/*--------------------------------*- C++ -*----------------------------------*\
  =========                 |
  \\      /  F ield         | OpenFOAM: The Open Source CFD Toolbox
   \\    /   O peration     | Website:  https://openfoam.org
    \\  /    A nd           | Version:  6
     \\/     M anipulation  |
\*---------------------------------------------------------------------------*/
FoamFile
{
    version     2.0;
    format      ascii;
    class       volScalarField;
    location    "26236";
    object      nut;
}
// * * * * * * * * * * * * * * * * * * * * * * * * * * * * * * * * * * * * * //

dimensions      [0 2 -1 0 0 0 0];

internalField   nonuniform List<scalar> 
115600
(
8.15635e-10
2.34073e-10
2.04764e-10
1.94661e-10
1.84224e-10
1.70766e-10
1.56347e-10
1.42643e-10
1.30946e-10
1.20665e-10
1.11677e-10
1.03858e-10
9.70768e-11
9.12035e-11
8.61166e-11
8.1709e-11
7.78893e-11
7.458e-11
7.17158e-11
6.9242e-11
6.71122e-11
6.5287e-11
6.3733e-11
6.24215e-11
6.1328e-11
6.04309e-11
5.97114e-11
5.91529e-11
5.87404e-11
5.84604e-11
5.83015e-11
5.82904e-11
5.84517e-11
5.87282e-11
5.90983e-11
5.95477e-11
6.00656e-11
6.06422e-11
6.12692e-11
6.19397e-11
6.26477e-11
6.33882e-11
6.41578e-11
6.49552e-11
6.5782e-11
6.66447e-11
6.75562e-11
6.85418e-11
6.96437e-11
7.09509e-11
7.25937e-11
7.49813e-11
7.86825e-11
8.70218e-11
1.11152e-10
2.39299e-10
5.19251e-08
2.86104e-08
2.54389e-08
2.41532e-08
2.26014e-08
2.05433e-08
1.83118e-08
1.61962e-08
1.43965e-08
1.28717e-08
1.15863e-08
1.0506e-08
9.59883e-09
8.83597e-09
8.19278e-09
7.64887e-09
7.18766e-09
6.79581e-09
6.46251e-09
6.17903e-09
5.93826e-09
5.73436e-09
5.56254e-09
5.41883e-09
5.29989e-09
5.20294e-09
5.1256e-09
5.06582e-09
5.02182e-09
4.99205e-09
4.97522e-09
4.97308e-09
4.98784e-09
5.01497e-09
5.05215e-09
5.09789e-09
5.15098e-09
5.21041e-09
5.27526e-09
5.34475e-09
5.41816e-09
5.49488e-09
5.57438e-09
5.65632e-09
5.74061e-09
5.82754e-09
5.91795e-09
6.01376e-09
6.11843e-09
6.23905e-09
6.38773e-09
6.5959e-09
6.92237e-09
7.60137e-09
9.50077e-09
1.50782e-08
2.69826e-07
2.63545e-07
2.66043e-07
2.63442e-07
2.53357e-07
2.37169e-07
2.17924e-07
1.98136e-07
1.79507e-07
1.62815e-07
1.48051e-07
1.35123e-07
1.23881e-07
1.14144e-07
1.05733e-07
9.84777e-08
9.22289e-08
8.68556e-08
8.22448e-08
7.8299e-08
7.49348e-08
7.20804e-08
6.96747e-08
6.76653e-08
6.60072e-08
6.46617e-08
6.35957e-08
6.278e-08
6.21894e-08
6.18015e-08
6.15981e-08
6.15884e-08
6.17861e-08
6.21517e-08
6.26568e-08
6.32795e-08
6.40016e-08
6.48066e-08
6.56793e-08
6.66055e-08
6.75714e-08
6.85639e-08
6.95702e-08
7.05788e-08
7.15794e-08
7.25647e-08
7.35315e-08
7.4484e-08
7.54398e-08
7.64415e-08
7.75808e-08
7.90631e-08
8.13869e-08
8.58571e-08
9.79579e-08
1.1953e-07
5.40773e-07
6.57629e-07
7.10099e-07
7.21746e-07
7.08747e-07
6.80573e-07
6.44546e-07
6.05894e-07
5.68129e-07
5.32941e-07
5.00934e-07
4.72137e-07
4.46437e-07
4.23609e-07
4.03391e-07
3.8553e-07
3.69792e-07
3.5597e-07
3.43878e-07
3.33349e-07
3.24238e-07
3.16414e-07
3.09759e-07
3.04169e-07
2.99548e-07
2.95813e-07
2.92885e-07
2.90691e-07
2.89167e-07
2.8825e-07
2.87886e-07
2.88071e-07
2.88794e-07
2.89978e-07
2.91547e-07
2.93434e-07
2.95575e-07
2.97913e-07
3.00391e-07
3.02955e-07
3.05553e-07
3.08131e-07
3.10637e-07
3.13019e-07
3.15227e-07
3.1721e-07
3.18925e-07
3.20337e-07
3.21428e-07
3.22216e-07
3.22799e-07
3.23437e-07
3.24881e-07
3.2897e-07
3.44032e-07
3.74993e-07
7.48118e-07
1.01475e-06
1.15877e-06
1.21525e-06
1.22041e-06
1.19557e-06
1.15413e-06
1.1049e-06
1.05374e-06
1.00408e-06
9.57607e-07
9.14923e-07
8.76225e-07
8.4142e-07
8.103e-07
7.82615e-07
7.58103e-07
7.36508e-07
7.17585e-07
7.01108e-07
6.86865e-07
6.74664e-07
6.64327e-07
6.55695e-07
6.48619e-07
6.42965e-07
6.38607e-07
6.3543e-07
6.33325e-07
6.32192e-07
6.31938e-07
6.3252e-07
6.33888e-07
6.35945e-07
6.38584e-07
6.41702e-07
6.45199e-07
6.4898e-07
6.52953e-07
6.57028e-07
6.61116e-07
6.6513e-07
6.68978e-07
6.7257e-07
6.75817e-07
6.78628e-07
6.80917e-07
6.82605e-07
6.83635e-07
6.83995e-07
6.83759e-07
6.83252e-07
6.83292e-07
6.86532e-07
7.0303e-07
7.47823e-07
8.91728e-07
1.25802e-06
1.49804e-06
1.62112e-06
1.66858e-06
1.66968e-06
1.64309e-06
1.6009e-06
1.55105e-06
1.49886e-06
1.44726e-06
1.39801e-06
1.35195e-06
1.30942e-06
1.27055e-06
1.23536e-06
1.20373e-06
1.17554e-06
1.15061e-06
1.12873e-06
1.10973e-06
1.0934e-06
1.07954e-06
1.06797e-06
1.05853e-06
1.05103e-06
1.04533e-06
1.04127e-06
1.03871e-06
1.03751e-06
1.03755e-06
1.03875e-06
1.04099e-06
1.04418e-06
1.04818e-06
1.05287e-06
1.05811e-06
1.06378e-06
1.06975e-06
1.07591e-06
1.08212e-06
1.08827e-06
1.09424e-06
1.09991e-06
1.10517e-06
1.10989e-06
1.11396e-06
1.1173e-06
1.11984e-06
1.12157e-06
1.12263e-06
1.12347e-06
1.12521e-06
1.13125e-06
1.15412e-06
1.21264e-06
1.00155e-06
1.3883e-06
1.69557e-06
1.88433e-06
1.98494e-06
2.02702e-06
2.03156e-06
2.01265e-06
1.97975e-06
1.9393e-06
1.8956e-06
1.85101e-06
1.80735e-06
1.76551e-06
1.7261e-06
1.6895e-06
1.65593e-06
1.62548e-06
1.59818e-06
1.57396e-06
1.55273e-06
1.53438e-06
1.51876e-06
1.50575e-06
1.49517e-06
1.48689e-06
1.48075e-06
1.47659e-06
1.47427e-06
1.47364e-06
1.47456e-06
1.47691e-06
1.48053e-06
1.48533e-06
1.49117e-06
1.4979e-06
1.50539e-06
1.51348e-06
1.52203e-06
1.53089e-06
1.53991e-06
1.54897e-06
1.55792e-06
1.56662e-06
1.57495e-06
1.58278e-06
1.58999e-06
1.59651e-06
1.60229e-06
1.60737e-06
1.61199e-06
1.61674e-06
1.62315e-06
1.6348e-06
1.66661e-06
1.73418e-06
1.10974e-06
1.43534e-06
1.76516e-06
2.00289e-06
2.15486e-06
2.24321e-06
2.28745e-06
2.30196e-06
2.29686e-06
2.27923e-06
2.25403e-06
2.22448e-06
2.19274e-06
2.16035e-06
2.12842e-06
2.09773e-06
2.06881e-06
2.04202e-06
2.0176e-06
1.9957e-06
1.97636e-06
1.95962e-06
1.94544e-06
1.93376e-06
1.9245e-06
1.91757e-06
1.91287e-06
1.91026e-06
1.90964e-06
1.91087e-06
1.91383e-06
1.91836e-06
1.92431e-06
1.93158e-06
1.94004e-06
1.94957e-06
1.96e-06
1.97119e-06
1.98299e-06
1.99524e-06
2.00779e-06
2.02049e-06
2.0332e-06
2.04578e-06
2.05809e-06
2.07001e-06
2.08145e-06
2.09234e-06
2.10267e-06
2.11254e-06
2.12228e-06
2.13255e-06
2.14521e-06
2.16348e-06
2.20364e-06
2.27493e-06
1.2434e-06
1.43635e-06
1.73579e-06
1.99454e-06
2.18682e-06
2.31935e-06
2.40576e-06
2.45853e-06
2.48736e-06
2.49945e-06
2.50003e-06
2.49284e-06
2.48028e-06
2.46446e-06
2.44688e-06
2.42864e-06
2.41057e-06
2.39326e-06
2.37716e-06
2.36258e-06
2.34976e-06
2.33884e-06
2.32994e-06
2.32309e-06
2.31832e-06
2.3156e-06
2.31491e-06
2.31618e-06
2.31934e-06
2.32431e-06
2.331e-06
2.33924e-06
2.34891e-06
2.35992e-06
2.37217e-06
2.38553e-06
2.39987e-06
2.41505e-06
2.43093e-06
2.44735e-06
2.46418e-06
2.48126e-06
2.49844e-06
2.51561e-06
2.53262e-06
2.54937e-06
2.56578e-06
2.58179e-06
2.59744e-06
2.61285e-06
2.6284e-06
2.64476e-06
2.66392e-06
2.68829e-06
2.73441e-06
2.80519e-06
1.42007e-06
1.42924e-06
1.6453e-06
1.88707e-06
2.09919e-06
2.26696e-06
2.393e-06
2.48486e-06
2.55028e-06
2.59576e-06
2.62645e-06
2.64623e-06
2.65787e-06
2.66376e-06
2.66571e-06
2.66508e-06
2.6629e-06
2.65997e-06
2.6569e-06
2.65417e-06
2.65216e-06
2.65113e-06
2.65132e-06
2.65288e-06
2.65591e-06
2.66049e-06
2.66666e-06
2.67444e-06
2.68381e-06
2.69474e-06
2.70718e-06
2.721e-06
2.7361e-06
2.75243e-06
2.76991e-06
2.78843e-06
2.80788e-06
2.82816e-06
2.84912e-06
2.87065e-06
2.8926e-06
2.91484e-06
2.93723e-06
2.95966e-06
2.982e-06
3.00416e-06
3.02605e-06
3.04766e-06
3.06901e-06
3.09025e-06
3.11176e-06
3.13409e-06
3.1592e-06
3.18849e-06
3.23781e-06
3.30515e-06
1.64875e-06
1.44711e-06
1.53879e-06
1.71988e-06
1.92043e-06
2.10541e-06
2.26219e-06
2.38959e-06
2.49098e-06
2.57089e-06
2.63372e-06
2.68317e-06
2.72224e-06
2.7534e-06
2.77861e-06
2.79939e-06
2.81694e-06
2.83221e-06
2.84596e-06
2.8588e-06
2.87121e-06
2.8836e-06
2.89627e-06
2.90948e-06
2.92342e-06
2.93825e-06
2.95408e-06
2.97098e-06
2.98902e-06
3.00822e-06
3.02857e-06
3.04998e-06
3.0724e-06
3.0958e-06
3.12012e-06
3.1453e-06
3.17125e-06
3.19788e-06
3.2251e-06
3.25278e-06
3.28082e-06
3.30909e-06
3.33748e-06
3.36588e-06
3.39417e-06
3.42227e-06
3.45011e-06
3.47766e-06
3.50495e-06
3.53209e-06
3.55942e-06
3.58735e-06
3.6176e-06
3.65049e-06
3.70061e-06
3.76264e-06
1.93927e-06
1.51636e-06
1.46334e-06
1.54544e-06
1.6945e-06
1.86678e-06
2.0356e-06
2.18793e-06
2.31985e-06
2.43192e-06
2.52663e-06
2.6068e-06
2.67508e-06
2.73375e-06
2.78473e-06
2.82961e-06
2.86969e-06
2.90603e-06
2.9395e-06
2.97082e-06
3.00056e-06
3.02923e-06
3.0572e-06
3.08483e-06
3.11238e-06
3.14006e-06
3.16807e-06
3.19653e-06
3.22556e-06
3.25522e-06
3.28559e-06
3.31659e-06
3.34821e-06
3.38046e-06
3.4133e-06
3.4467e-06
3.48061e-06
3.51496e-06
3.54968e-06
3.58468e-06
3.61986e-06
3.65512e-06
3.69037e-06
3.7255e-06
3.76041e-06
3.79502e-06
3.82927e-06
3.86309e-06
3.89652e-06
3.92961e-06
3.96261e-06
3.99572e-06
4.03034e-06
4.06571e-06
4.1148e-06
4.17047e-06
2.31258e-06
1.66096e-06
1.46091e-06
1.42319e-06
1.48361e-06
1.6038e-06
1.75264e-06
1.90777e-06
2.05645e-06
2.19299e-06
2.31571e-06
2.42505e-06
2.52233e-06
2.60916e-06
2.68713e-06
2.75769e-06
2.82212e-06
2.88151e-06
2.93679e-06
2.98874e-06
3.03803e-06
3.0852e-06
3.13073e-06
3.17501e-06
3.21838e-06
3.26112e-06
3.30345e-06
3.34557e-06
3.38763e-06
3.42976e-06
3.47204e-06
3.51449e-06
3.5571e-06
3.59989e-06
3.64288e-06
3.68604e-06
3.72936e-06
3.7728e-06
3.8163e-06
3.8598e-06
3.90322e-06
3.94649e-06
3.98951e-06
4.03219e-06
4.07444e-06
4.11618e-06
4.15733e-06
4.19783e-06
4.23765e-06
4.27679e-06
4.31537e-06
4.35335e-06
4.39173e-06
4.42878e-06
4.47566e-06
4.52454e-06
2.80222e-06
1.91043e-06
1.5677e-06
1.40795e-06
1.35954e-06
1.39173e-06
1.47974e-06
1.60223e-06
1.74137e-06
1.88439e-06
2.02353e-06
2.15488e-06
2.27696e-06
2.3897e-06
2.49369e-06
2.58984e-06
2.67909e-06
2.7624e-06
2.84063e-06
2.91455e-06
2.98484e-06
3.05208e-06
3.11679e-06
3.17941e-06
3.24031e-06
3.29981e-06
3.3582e-06
3.4157e-06
3.4725e-06
3.52876e-06
3.58462e-06
3.64013e-06
3.69531e-06
3.75018e-06
3.80479e-06
3.85914e-06
3.91324e-06
3.96706e-06
4.02058e-06
4.07374e-06
4.12649e-06
4.17877e-06
4.23048e-06
4.28156e-06
4.33191e-06
4.38144e-06
4.43006e-06
4.47768e-06
4.52422e-06
4.56958e-06
4.61377e-06
4.65647e-06
4.69825e-06
4.73651e-06
4.78058e-06
4.8228e-06
3.4581e-06
2.31528e-06
1.82933e-06
1.55106e-06
1.39003e-06
1.31578e-06
1.31088e-06
1.36099e-06
1.45126e-06
1.56744e-06
1.69753e-06
1.83262e-06
1.96693e-06
2.09715e-06
2.22164e-06
2.33984e-06
2.4518e-06
2.55788e-06
2.65859e-06
2.7545e-06
2.84617e-06
2.93412e-06
3.01883e-06
3.10075e-06
3.18025e-06
3.25768e-06
3.33333e-06
3.40746e-06
3.48027e-06
3.55197e-06
3.62268e-06
3.69255e-06
3.76159e-06
3.82984e-06
3.89733e-06
3.96411e-06
4.03018e-06
4.09554e-06
4.16019e-06
4.22407e-06
4.28716e-06
4.34939e-06
4.4107e-06
4.47099e-06
4.53019e-06
4.58817e-06
4.64484e-06
4.70007e-06
4.75372e-06
4.80559e-06
4.85554e-06
4.90298e-06
4.94803e-06
4.98736e-06
5.02856e-06
5.06471e-06
4.38429e-06
2.97819e-06
2.33167e-06
1.92666e-06
1.64816e-06
1.45932e-06
1.34471e-06
1.29415e-06
1.29784e-06
1.34551e-06
1.42669e-06
1.53138e-06
1.65078e-06
1.77795e-06
1.90788e-06
2.0373e-06
2.16424e-06
2.28763e-06
2.40703e-06
2.52233e-06
2.63365e-06
2.74123e-06
2.84537e-06
2.94637e-06
3.04454e-06
3.14017e-06
3.23353e-06
3.32486e-06
3.41436e-06
3.50223e-06
3.58862e-06
3.67367e-06
3.75746e-06
3.84001e-06
3.92133e-06
4.00146e-06
4.08044e-06
4.15827e-06
4.23495e-06
4.31044e-06
4.38472e-06
4.45773e-06
4.5294e-06
4.59964e-06
4.66837e-06
4.73544e-06
4.80073e-06
4.86406e-06
4.92524e-06
4.98397e-06
5.03992e-06
5.09227e-06
5.14071e-06
5.1813e-06
5.22003e-06
5.25117e-06
5.73289e-06
4.05259e-06
3.20782e-06
2.64937e-06
2.23604e-06
1.91888e-06
1.67905e-06
1.50802e-06
1.39893e-06
1.34464e-06
1.33758e-06
1.36992e-06
1.43383e-06
1.52179e-06
1.62692e-06
1.74335e-06
1.86646e-06
1.99281e-06
2.12001e-06
2.2465e-06
2.37132e-06
2.49392e-06
2.61402e-06
2.73155e-06
2.8465e-06
2.95899e-06
3.06912e-06
3.17703e-06
3.28287e-06
3.38677e-06
3.48885e-06
3.58922e-06
3.68798e-06
3.78517e-06
3.88076e-06
3.97474e-06
4.06715e-06
4.158e-06
4.24728e-06
4.33497e-06
4.42103e-06
4.5054e-06
4.58802e-06
4.66878e-06
4.74757e-06
4.82424e-06
4.89864e-06
4.97052e-06
5.03964e-06
5.10557e-06
5.16786e-06
5.22542e-06
5.27755e-06
5.31988e-06
5.35703e-06
5.38465e-06
7.47819e-06
5.6002e-06
4.54235e-06
3.81062e-06
3.24837e-06
2.79156e-06
2.41485e-06
2.10815e-06
1.86638e-06
1.6854e-06
1.56039e-06
1.48573e-06
1.45532e-06
1.46291e-06
1.50233e-06
1.56761e-06
1.65314e-06
1.75385e-06
1.86537e-06
1.98415e-06
2.10743e-06
2.23315e-06
2.35984e-06
2.48647e-06
2.61236e-06
2.73706e-06
2.86028e-06
2.98187e-06
3.10174e-06
3.21984e-06
3.33617e-06
3.45076e-06
3.56361e-06
3.67476e-06
3.78416e-06
3.89172e-06
3.99741e-06
4.10122e-06
4.20312e-06
4.3031e-06
4.40109e-06
4.49702e-06
4.5908e-06
4.68233e-06
4.77147e-06
4.85804e-06
4.94183e-06
5.02258e-06
5.09994e-06
5.1734e-06
5.24234e-06
5.3055e-06
5.3618e-06
5.40663e-06
5.44348e-06
5.46953e-06
9.22335e-06
7.40672e-06
6.22049e-06
5.35078e-06
4.66119e-06
4.08245e-06
3.58421e-06
3.15227e-06
2.78042e-06
2.4661e-06
2.20782e-06
2.00365e-06
1.85065e-06
1.74494e-06
1.68196e-06
1.65687e-06
1.66472e-06
1.70068e-06
1.76006e-06
1.83844e-06
1.93179e-06
2.03658e-06
2.14979e-06
2.26899e-06
2.39223e-06
2.51802e-06
2.64523e-06
2.773e-06
2.90072e-06
3.02794e-06
3.15431e-06
3.27959e-06
3.40361e-06
3.52623e-06
3.64736e-06
3.7668e-06
3.88438e-06
4.00001e-06
4.11361e-06
4.2251e-06
4.3344e-06
4.44141e-06
4.546e-06
4.64802e-06
4.74731e-06
4.84366e-06
4.9368e-06
5.02643e-06
5.11211e-06
5.19327e-06
5.26912e-06
5.33825e-06
5.39933e-06
5.44764e-06
5.48587e-06
5.51277e-06
1.05506e-05
9.09172e-06
7.95307e-06
7.04648e-06
6.29614e-06
5.64797e-06
5.07472e-06
4.56077e-06
4.09772e-06
3.68175e-06
3.31174e-06
2.9878e-06
2.7103e-06
2.47914e-06
2.29335e-06
2.15103e-06
2.04949e-06
1.98545e-06
1.95527e-06
1.95514e-06
1.98124e-06
2.0298e-06
2.09722e-06
2.18012e-06
2.27548e-06
2.38061e-06
2.49326e-06
2.61151e-06
2.73381e-06
2.85893e-06
2.98585e-06
3.11381e-06
3.24217e-06
3.37045e-06
3.49825e-06
3.62526e-06
3.7511e-06
3.87543e-06
3.99804e-06
4.11877e-06
4.23742e-06
4.35382e-06
4.46777e-06
4.57908e-06
4.68751e-06
4.7928e-06
4.89463e-06
4.99263e-06
5.0863e-06
5.17496e-06
5.25775e-06
5.33312e-06
5.39959e-06
5.45253e-06
5.49421e-06
5.52482e-06
1.1376e-05
1.03991e-05
9.47047e-06
8.64842e-06
7.92567e-06
7.27771e-06
6.68906e-06
6.14846e-06
5.64835e-06
5.18419e-06
4.75377e-06
4.35658e-06
3.99322e-06
3.66489e-06
3.37292e-06
3.11844e-06
2.90202e-06
2.72356e-06
2.58221e-06
2.4764e-06
2.40401e-06
2.3625e-06
2.34902e-06
2.3606e-06
2.39421e-06
2.44686e-06
2.5157e-06
2.59806e-06
2.69154e-06
2.79397e-06
2.90351e-06
3.01855e-06
3.13776e-06
3.26001e-06
3.38436e-06
3.51006e-06
3.63644e-06
3.76283e-06
3.88871e-06
4.01367e-06
4.13733e-06
4.25935e-06
4.37939e-06
4.49714e-06
4.61227e-06
4.72441e-06
4.83318e-06
4.9381e-06
5.03861e-06
5.13396e-06
5.2232e-06
5.30476e-06
5.37708e-06
5.43585e-06
5.48328e-06
5.52088e-06
1.18297e-05
1.12869e-05
1.06426e-05
9.99435e-06
9.37757e-06
8.79598e-06
8.24874e-06
7.73278e-06
7.24463e-06
6.7814e-06
6.34117e-06
5.92296e-06
5.52665e-06
5.15285e-06
4.80273e-06
4.4778e-06
4.17979e-06
3.91036e-06
3.67096e-06
3.46264e-06
3.28595e-06
3.14081e-06
3.0266e-06
2.94213e-06
2.88577e-06
2.85555e-06
2.84925e-06
2.86449e-06
2.89885e-06
2.94994e-06
3.01545e-06
3.0932e-06
3.18122e-06
3.27769e-06
3.38102e-06
3.4898e-06
3.60284e-06
3.71901e-06
3.83739e-06
3.95713e-06
4.07751e-06
4.19788e-06
4.31765e-06
4.43627e-06
4.55324e-06
4.66803e-06
4.78012e-06
4.88891e-06
4.99376e-06
5.09383e-06
5.18813e-06
5.2751e-06
5.35329e-06
5.41884e-06
5.47435e-06
5.52243e-06
1.20641e-05
1.18382e-05
1.14684e-05
1.1029e-05
1.05657e-05
1.00983e-05
9.63697e-06
9.18658e-06
8.74886e-06
8.3241e-06
7.91207e-06
7.51251e-06
7.12536e-06
6.7509e-06
6.38975e-06
6.04287e-06
5.71157e-06
5.39738e-06
5.10202e-06
4.82729e-06
4.57491e-06
4.34648e-06
4.14328e-06
3.96623e-06
3.81579e-06
3.69196e-06
3.59428e-06
3.52185e-06
3.47342e-06
3.44745e-06
3.44218e-06
3.45574e-06
3.48618e-06
3.53156e-06
3.58998e-06
3.65964e-06
3.73884e-06
3.82602e-06
3.91983e-06
4.01901e-06
4.12237e-06
4.22884e-06
4.33744e-06
4.44731e-06
4.55761e-06
4.6676e-06
4.77651e-06
4.8836e-06
4.98807e-06
5.089e-06
5.18537e-06
5.2757e-06
5.35878e-06
5.43138e-06
5.49685e-06
5.55861e-06
1.21844e-05
1.21638e-05
1.20146e-05
1.17736e-05
1.14768e-05
1.11466e-05
1.07979e-05
1.04404e-05
1.00801e-05
9.72022e-06
9.36277e-06
9.00885e-06
8.65918e-06
8.31434e-06
7.97494e-06
7.64167e-06
7.31541e-06
6.99721e-06
6.68834e-06
6.39024e-06
6.1045e-06
5.83281e-06
5.57689e-06
5.33844e-06
5.11901e-06
4.91997e-06
4.7424e-06
4.58707e-06
4.45436e-06
4.34429e-06
4.25651e-06
4.19033e-06
4.14479e-06
4.11867e-06
4.11058e-06
4.11904e-06
4.14243e-06
4.17917e-06
4.2276e-06
4.2865e-06
4.35438e-06
4.42987e-06
4.51165e-06
4.59851e-06
4.68932e-06
4.783e-06
4.87854e-06
4.97497e-06
5.07131e-06
5.16654e-06
5.25964e-06
5.34926e-06
5.43455e-06
5.51302e-06
5.58905e-06
5.66654e-06
1.22499e-05
1.2354e-05
1.23634e-05
1.22861e-05
1.21425e-05
1.19502e-05
1.17225e-05
1.14707e-05
1.12027e-05
1.09238e-05
1.06375e-05
1.03464e-05
1.00521e-05
9.75593e-06
9.45874e-06
9.16139e-06
8.86468e-06
8.56944e-06
8.2766e-06
7.98722e-06
7.70245e-06
7.42362e-06
7.15216e-06
6.88958e-06
6.63748e-06
6.39746e-06
6.17109e-06
5.95986e-06
5.76508e-06
5.58788e-06
5.42916e-06
5.28951e-06
5.16924e-06
5.06835e-06
4.98657e-06
4.92336e-06
4.87795e-06
4.84932e-06
4.83622e-06
4.83764e-06
4.85245e-06
4.87941e-06
4.91725e-06
4.9647e-06
5.0205e-06
5.08344e-06
5.15232e-06
5.22603e-06
5.30348e-06
5.38357e-06
5.46534e-06
5.54764e-06
5.63006e-06
5.71098e-06
5.79586e-06
5.88873e-06
1.22901e-05
1.24687e-05
1.25848e-05
1.26308e-05
1.26141e-05
1.25446e-05
1.24319e-05
1.22859e-05
1.2114e-05
1.19223e-05
1.17152e-05
1.14959e-05
1.12671e-05
1.10304e-05
1.07873e-05
1.05388e-05
1.02861e-05
1.00298e-05
9.77084e-06
9.51006e-06
9.24837e-06
8.98674e-06
8.72627e-06
8.46814e-06
8.21361e-06
7.96405e-06
7.72088e-06
7.48556e-06
7.25956e-06
7.04432e-06
6.84118e-06
6.65141e-06
6.4761e-06
6.31614e-06
6.17223e-06
6.04485e-06
5.93423e-06
5.84036e-06
5.76276e-06
5.70085e-06
5.65428e-06
5.62251e-06
5.6048e-06
5.60031e-06
5.6081e-06
5.62715e-06
5.65646e-06
5.69501e-06
5.74179e-06
5.79588e-06
5.85648e-06
5.92281e-06
5.99502e-06
6.07234e-06
6.16126e-06
6.26565e-06
1.23185e-05
1.25425e-05
1.27283e-05
1.28621e-05
1.2943e-05
1.29746e-05
1.29622e-05
1.29126e-05
1.2832e-05
1.27257e-05
1.25983e-05
1.24533e-05
1.22933e-05
1.21208e-05
1.19373e-05
1.17443e-05
1.15429e-05
1.13342e-05
1.11189e-05
1.08979e-05
1.06719e-05
1.04419e-05
1.02086e-05
9.97301e-06
9.73606e-06
9.49884e-06
9.26248e-06
9.0282e-06
8.79725e-06
8.57096e-06
8.35067e-06
8.13769e-06
7.93334e-06
7.73884e-06
7.55535e-06
7.38392e-06
7.22545e-06
7.08074e-06
6.95001e-06
6.83309e-06
6.73044e-06
6.64232e-06
6.56881e-06
6.50978e-06
6.46497e-06
6.43398e-06
6.41633e-06
6.41147e-06
6.41887e-06
6.438e-06
6.46856e-06
6.5103e-06
6.56408e-06
6.63e-06
6.71538e-06
6.82382e-06
1.23408e-05
1.25942e-05
1.28253e-05
1.30196e-05
1.31722e-05
1.32824e-05
1.33519e-05
1.33846e-05
1.33849e-05
1.33568e-05
1.33041e-05
1.32302e-05
1.31377e-05
1.3029e-05
1.29059e-05
1.277e-05
1.26225e-05
1.24647e-05
1.22973e-05
1.21213e-05
1.19374e-05
1.17465e-05
1.15491e-05
1.13462e-05
1.11385e-05
1.09268e-05
1.07121e-05
1.04953e-05
1.02774e-05
1.00595e-05
9.84282e-06
9.62844e-06
9.4176e-06
9.21151e-06
9.0114e-06
8.81846e-06
8.63389e-06
8.45896e-06
8.29394e-06
8.1392e-06
7.99568e-06
7.86419e-06
7.74544e-06
7.64001e-06
7.54834e-06
7.47075e-06
7.40749e-06
7.35869e-06
7.32451e-06
7.30511e-06
7.30088e-06
7.31231e-06
7.34105e-06
7.38808e-06
7.46129e-06
7.56411e-06
1.23593e-05
1.26329e-05
1.2894e-05
1.31294e-05
1.33332e-05
1.3502e-05
1.36356e-05
1.37352e-05
1.38033e-05
1.38427e-05
1.38564e-05
1.3847e-05
1.38169e-05
1.37682e-05
1.37027e-05
1.3622e-05
1.35275e-05
1.34202e-05
1.33012e-05
1.31714e-05
1.30316e-05
1.28825e-05
1.27248e-05
1.25593e-05
1.23866e-05
1.22074e-05
1.20224e-05
1.18325e-05
1.16385e-05
1.14411e-05
1.12415e-05
1.10405e-05
1.08391e-05
1.06385e-05
1.04397e-05
1.02439e-05
1.00523e-05
9.86634e-06
9.68589e-06
9.51195e-06
9.34556e-06
9.18778e-06
9.03965e-06
8.90218e-06
8.77629e-06
8.66288e-06
8.56279e-06
8.47684e-06
8.40584e-06
8.3507e-06
8.31252e-06
8.29257e-06
8.29326e-06
8.31636e-06
8.37002e-06
8.45789e-06
1.23746e-05
1.26626e-05
1.29441e-05
1.32075e-05
1.34469e-05
1.36584e-05
1.38403e-05
1.39921e-05
1.41149e-05
1.42105e-05
1.42805e-05
1.43271e-05
1.4352e-05
1.43572e-05
1.43442e-05
1.43144e-05
1.42692e-05
1.42097e-05
1.41369e-05
1.40517e-05
1.3955e-05
1.38475e-05
1.37298e-05
1.36027e-05
1.34668e-05
1.33227e-05
1.3171e-05
1.30125e-05
1.28478e-05
1.26776e-05
1.25026e-05
1.23237e-05
1.21418e-05
1.19576e-05
1.17722e-05
1.15866e-05
1.14019e-05
1.12191e-05
1.10383e-05
1.08607e-05
1.06873e-05
1.0519e-05
1.03572e-05
1.02028e-05
1.00572e-05
9.92137e-06
9.79668e-06
9.68434e-06
9.58566e-06
9.50208e-06
9.4353e-06
9.38719e-06
9.36071e-06
9.3582e-06
9.38785e-06
9.45384e-06
1.23868e-05
1.26852e-05
1.29805e-05
1.32627e-05
1.35267e-05
1.37685e-05
1.39856e-05
1.4177e-05
1.43425e-05
1.44828e-05
1.4599e-05
1.46923e-05
1.47642e-05
1.48159e-05
1.48489e-05
1.48643e-05
1.48634e-05
1.48473e-05
1.48168e-05
1.47729e-05
1.47164e-05
1.46481e-05
1.45686e-05
1.44786e-05
1.43787e-05
1.42695e-05
1.41516e-05
1.40255e-05
1.3892e-05
1.37515e-05
1.36046e-05
1.34522e-05
1.32948e-05
1.31333e-05
1.29683e-05
1.28008e-05
1.26319e-05
1.24617e-05
1.22912e-05
1.2121e-05
1.19522e-05
1.17857e-05
1.16226e-05
1.14641e-05
1.13114e-05
1.11657e-05
1.10284e-05
1.09009e-05
1.07847e-05
1.06817e-05
1.05939e-05
1.05233e-05
1.04733e-05
1.04465e-05
1.04508e-05
1.04912e-05
1.23959e-05
1.27013e-05
1.30055e-05
1.33e-05
1.35804e-05
1.38429e-05
1.4085e-05
1.43053e-05
1.45029e-05
1.46779e-05
1.48306e-05
1.49617e-05
1.50721e-05
1.51628e-05
1.52347e-05
1.5289e-05
1.53266e-05
1.53485e-05
1.53555e-05
1.53485e-05
1.53283e-05
1.52957e-05
1.52511e-05
1.51955e-05
1.51292e-05
1.5053e-05
1.49673e-05
1.48727e-05
1.47698e-05
1.4659e-05
1.45409e-05
1.44162e-05
1.42853e-05
1.4149e-05
1.40078e-05
1.38627e-05
1.37139e-05
1.35621e-05
1.3408e-05
1.32523e-05
1.30958e-05
1.29393e-05
1.27839e-05
1.26304e-05
1.24802e-05
1.23343e-05
1.21941e-05
1.2061e-05
1.19366e-05
1.18226e-05
1.17212e-05
1.16346e-05
1.1566e-05
1.15179e-05
1.14981e-05
1.15123e-05
1.24019e-05
1.2711e-05
1.30201e-05
1.33218e-05
1.36123e-05
1.38881e-05
1.4147e-05
1.43874e-05
1.46083e-05
1.4809e-05
1.49895e-05
1.515e-05
1.52911e-05
1.54133e-05
1.55173e-05
1.56039e-05
1.5674e-05
1.57282e-05
1.57675e-05
1.57926e-05
1.58042e-05
1.58029e-05
1.57895e-05
1.57646e-05
1.57288e-05
1.56825e-05
1.56264e-05
1.5561e-05
1.54868e-05
1.54042e-05
1.53137e-05
1.5216e-05
1.51114e-05
1.50005e-05
1.4884e-05
1.47623e-05
1.46357e-05
1.45049e-05
1.43704e-05
1.42329e-05
1.4093e-05
1.39514e-05
1.3809e-05
1.36666e-05
1.35252e-05
1.33859e-05
1.32498e-05
1.31182e-05
1.29926e-05
1.28746e-05
1.27661e-05
1.26692e-05
1.25869e-05
1.25216e-05
1.24802e-05
1.24697e-05
1.24048e-05
1.27143e-05
1.30247e-05
1.33293e-05
1.36246e-05
1.39078e-05
1.41768e-05
1.44301e-05
1.46665e-05
1.48852e-05
1.50858e-05
1.52682e-05
1.54326e-05
1.55793e-05
1.57087e-05
1.58214e-05
1.5918e-05
1.59991e-05
1.60654e-05
1.61176e-05
1.61562e-05
1.61821e-05
1.61957e-05
1.61976e-05
1.61885e-05
1.61689e-05
1.61392e-05
1.61e-05
1.60518e-05
1.59949e-05
1.593e-05
1.58574e-05
1.57776e-05
1.56911e-05
1.55982e-05
1.54995e-05
1.53952e-05
1.52858e-05
1.5172e-05
1.5054e-05
1.49326e-05
1.48083e-05
1.46818e-05
1.45537e-05
1.44249e-05
1.42963e-05
1.41687e-05
1.40434e-05
1.39215e-05
1.38044e-05
1.36938e-05
1.35914e-05
1.34998e-05
1.34211e-05
1.33616e-05
1.33292e-05
1.24044e-05
1.27112e-05
1.30193e-05
1.33228e-05
1.36185e-05
1.3904e-05
1.41773e-05
1.44372e-05
1.46826e-05
1.49124e-05
1.51263e-05
1.53238e-05
1.55049e-05
1.56696e-05
1.58182e-05
1.5951e-05
1.60685e-05
1.6171e-05
1.62593e-05
1.63337e-05
1.63949e-05
1.64435e-05
1.648e-05
1.65049e-05
1.65189e-05
1.65223e-05
1.65157e-05
1.64996e-05
1.64744e-05
1.64405e-05
1.63985e-05
1.63486e-05
1.62914e-05
1.62272e-05
1.61563e-05
1.60792e-05
1.59961e-05
1.59075e-05
1.58138e-05
1.57154e-05
1.56128e-05
1.55063e-05
1.53966e-05
1.52843e-05
1.51698e-05
1.50539e-05
1.49374e-05
1.48211e-05
1.4706e-05
1.45931e-05
1.44838e-05
1.43795e-05
1.42823e-05
1.41939e-05
1.41198e-05
1.40689e-05
1.24007e-05
1.27015e-05
1.30039e-05
1.33023e-05
1.35942e-05
1.38773e-05
1.415e-05
1.4411e-05
1.46594e-05
1.48944e-05
1.51153e-05
1.53217e-05
1.55134e-05
1.56901e-05
1.58521e-05
1.59995e-05
1.61324e-05
1.62514e-05
1.63567e-05
1.64488e-05
1.65282e-05
1.65953e-05
1.66508e-05
1.66949e-05
1.67283e-05
1.67514e-05
1.67647e-05
1.67685e-05
1.67634e-05
1.67497e-05
1.67278e-05
1.66982e-05
1.66611e-05
1.66169e-05
1.6566e-05
1.65086e-05
1.64451e-05
1.63758e-05
1.63011e-05
1.62213e-05
1.61367e-05
1.60477e-05
1.59547e-05
1.58581e-05
1.57584e-05
1.56561e-05
1.55517e-05
1.54458e-05
1.53392e-05
1.52326e-05
1.51269e-05
1.50233e-05
1.49232e-05
1.48282e-05
1.47431e-05
1.46774e-05
1.23937e-05
1.26852e-05
1.29782e-05
1.32679e-05
1.35518e-05
1.38281e-05
1.40953e-05
1.43524e-05
1.45986e-05
1.48331e-05
1.50553e-05
1.52649e-05
1.54613e-05
1.56446e-05
1.58145e-05
1.59711e-05
1.61145e-05
1.6245e-05
1.63628e-05
1.64683e-05
1.65617e-05
1.66435e-05
1.67142e-05
1.6774e-05
1.68235e-05
1.68631e-05
1.68931e-05
1.6914e-05
1.69261e-05
1.69298e-05
1.69256e-05
1.69136e-05
1.68943e-05
1.6868e-05
1.68349e-05
1.67953e-05
1.67496e-05
1.6698e-05
1.66407e-05
1.65781e-05
1.65104e-05
1.64378e-05
1.63608e-05
1.62795e-05
1.61942e-05
1.61054e-05
1.60133e-05
1.59184e-05
1.58211e-05
1.57218e-05
1.56213e-05
1.55201e-05
1.54196e-05
1.53208e-05
1.52279e-05
1.51513e-05
1.23833e-05
1.26621e-05
1.29421e-05
1.3219e-05
1.34908e-05
1.37559e-05
1.40131e-05
1.42614e-05
1.45003e-05
1.47291e-05
1.49473e-05
1.51546e-05
1.53506e-05
1.5535e-05
1.57077e-05
1.58686e-05
1.60178e-05
1.61552e-05
1.62812e-05
1.63958e-05
1.64994e-05
1.65922e-05
1.66745e-05
1.67467e-05
1.68092e-05
1.68622e-05
1.69062e-05
1.69414e-05
1.69682e-05
1.69869e-05
1.69978e-05
1.70013e-05
1.69976e-05
1.69871e-05
1.69699e-05
1.69463e-05
1.69166e-05
1.68809e-05
1.68396e-05
1.67928e-05
1.67406e-05
1.66834e-05
1.66213e-05
1.65544e-05
1.6483e-05
1.64072e-05
1.63273e-05
1.62433e-05
1.61557e-05
1.60645e-05
1.59701e-05
1.5873e-05
1.57739e-05
1.56739e-05
1.55766e-05
1.54928e-05
1.23695e-05
1.26319e-05
1.2895e-05
1.31551e-05
1.34107e-05
1.36602e-05
1.39027e-05
1.41375e-05
1.43642e-05
1.45823e-05
1.47915e-05
1.49915e-05
1.51819e-05
1.53625e-05
1.55331e-05
1.56935e-05
1.58438e-05
1.59839e-05
1.61138e-05
1.62337e-05
1.63436e-05
1.64439e-05
1.65346e-05
1.66161e-05
1.66886e-05
1.67523e-05
1.68076e-05
1.68546e-05
1.68937e-05
1.69252e-05
1.69493e-05
1.69662e-05
1.69763e-05
1.69797e-05
1.69766e-05
1.69674e-05
1.69521e-05
1.6931e-05
1.69042e-05
1.68719e-05
1.68342e-05
1.67912e-05
1.67431e-05
1.66898e-05
1.66316e-05
1.65684e-05
1.65003e-05
1.64273e-05
1.63496e-05
1.6267e-05
1.61798e-05
1.60881e-05
1.59925e-05
1.58939e-05
1.57956e-05
1.57085e-05
1.23519e-05
1.25941e-05
1.28363e-05
1.30755e-05
1.33103e-05
1.35397e-05
1.3763e-05
1.39797e-05
1.41895e-05
1.43922e-05
1.45875e-05
1.47753e-05
1.49554e-05
1.51274e-05
1.52913e-05
1.54468e-05
1.55938e-05
1.57323e-05
1.58623e-05
1.59836e-05
1.60964e-05
1.62008e-05
1.62968e-05
1.63845e-05
1.64642e-05
1.65361e-05
1.66002e-05
1.66568e-05
1.67061e-05
1.67484e-05
1.67837e-05
1.68123e-05
1.68345e-05
1.68503e-05
1.686e-05
1.68638e-05
1.68617e-05
1.68539e-05
1.68406e-05
1.68217e-05
1.67975e-05
1.67679e-05
1.6733e-05
1.66928e-05
1.66473e-05
1.65964e-05
1.65401e-05
1.64782e-05
1.64108e-05
1.63375e-05
1.62586e-05
1.61739e-05
1.6084e-05
1.59897e-05
1.58941e-05
1.58079e-05
1.23303e-05
1.25481e-05
1.2765e-05
1.29787e-05
1.31883e-05
1.3393e-05
1.35925e-05
1.37865e-05
1.39749e-05
1.41576e-05
1.43346e-05
1.45057e-05
1.4671e-05
1.48301e-05
1.49829e-05
1.51293e-05
1.52691e-05
1.54021e-05
1.55283e-05
1.56475e-05
1.57598e-05
1.5865e-05
1.59632e-05
1.60545e-05
1.61388e-05
1.62163e-05
1.6287e-05
1.63511e-05
1.64087e-05
1.64599e-05
1.65048e-05
1.65436e-05
1.65765e-05
1.66035e-05
1.66247e-05
1.66403e-05
1.66505e-05
1.66551e-05
1.66544e-05
1.66483e-05
1.6637e-05
1.66203e-05
1.65983e-05
1.65709e-05
1.65379e-05
1.64994e-05
1.64551e-05
1.64049e-05
1.63485e-05
1.62858e-05
1.62166e-05
1.6141e-05
1.60595e-05
1.59729e-05
1.58841e-05
1.58037e-05
1.23042e-05
1.24929e-05
1.26798e-05
1.28633e-05
1.30429e-05
1.32184e-05
1.33895e-05
1.35564e-05
1.37191e-05
1.38777e-05
1.40322e-05
1.41827e-05
1.43292e-05
1.44714e-05
1.46094e-05
1.47428e-05
1.48716e-05
1.49956e-05
1.51145e-05
1.52283e-05
1.53368e-05
1.54399e-05
1.55376e-05
1.56296e-05
1.57161e-05
1.57969e-05
1.58721e-05
1.59417e-05
1.60058e-05
1.60643e-05
1.61173e-05
1.6165e-05
1.62073e-05
1.62444e-05
1.62763e-05
1.6303e-05
1.63246e-05
1.63411e-05
1.63525e-05
1.63589e-05
1.63601e-05
1.63563e-05
1.63471e-05
1.63327e-05
1.63127e-05
1.62871e-05
1.62556e-05
1.6218e-05
1.6174e-05
1.61235e-05
1.60663e-05
1.60025e-05
1.59327e-05
1.5858e-05
1.57812e-05
1.5712e-05
1.22728e-05
1.24271e-05
1.25788e-05
1.27271e-05
1.28721e-05
1.30138e-05
1.31525e-05
1.32883e-05
1.34216e-05
1.35525e-05
1.36812e-05
1.38077e-05
1.3932e-05
1.40542e-05
1.4174e-05
1.42913e-05
1.44059e-05
1.45176e-05
1.46263e-05
1.47317e-05
1.48336e-05
1.49318e-05
1.50262e-05
1.51165e-05
1.52028e-05
1.52848e-05
1.53625e-05
1.54358e-05
1.55046e-05
1.5569e-05
1.56289e-05
1.56842e-05
1.5735e-05
1.57813e-05
1.5823e-05
1.58602e-05
1.58929e-05
1.59209e-05
1.59444e-05
1.59632e-05
1.59773e-05
1.59865e-05
1.59907e-05
1.59899e-05
1.59838e-05
1.59721e-05
1.59548e-05
1.59314e-05
1.59019e-05
1.58661e-05
1.58239e-05
1.57755e-05
1.57218e-05
1.56641e-05
1.56053e-05
1.55537e-05
1.22353e-05
1.23491e-05
1.24602e-05
1.25684e-05
1.26744e-05
1.27785e-05
1.28812e-05
1.29829e-05
1.3084e-05
1.31845e-05
1.32848e-05
1.33849e-05
1.34848e-05
1.35844e-05
1.36837e-05
1.37824e-05
1.38804e-05
1.39774e-05
1.40733e-05
1.41678e-05
1.42607e-05
1.43516e-05
1.44404e-05
1.45269e-05
1.46109e-05
1.46921e-05
1.47705e-05
1.48458e-05
1.49179e-05
1.49868e-05
1.50523e-05
1.51143e-05
1.51727e-05
1.52275e-05
1.52787e-05
1.5326e-05
1.53696e-05
1.54093e-05
1.5445e-05
1.54766e-05
1.5504e-05
1.55272e-05
1.55458e-05
1.55598e-05
1.55689e-05
1.5573e-05
1.55719e-05
1.55653e-05
1.55531e-05
1.55353e-05
1.5512e-05
1.54837e-05
1.54515e-05
1.54169e-05
1.53831e-05
1.53565e-05
1.21906e-05