/*--------------------------------*- C++ -*----------------------------------*\
  =========                 |
  \\      /  F ield         | OpenFOAM: The Open Source CFD Toolbox
   \\    /   O peration     | Website:  https://openfoam.org
    \\  /    A nd           | Version:  6
     \\/     M anipulation  |
\*---------------------------------------------------------------------------*/
FoamFile
{
    version     2.0;
    format      ascii;
    class       volScalarField;
    location    "0";
    object      P_rec;
}
// * * * * * * * * * * * * * * * * * * * * * * * * * * * * * * * * * * * * * //

dimensions      [0 2 -2 0 0 0 0];

internalField   nonuniform List<scalar> 
918
(
0.551672
0.262658
0.109567
0.572045
-0.00282444
0.155009
-0.790123
0.507246
0.577357
-0.129074
0.029412
0.448232
0.00222067
-0.00932355
-1.22464
0.0203276
0.56891
-0.742108
0.406113
0.0232551
-0.0945388
0.576724
0.50737
0.401895
0.494636
-0.0876771
0.0790647
-0.0354566
-0.0559532
-0.0428198
-0.0030637
0.0480862
0.00742961
0.140646
0.125581
0.164792
0.415367
0.190743
-0.656428
-0.706891
-0.700684
-0.872167
0.517806
0.531515
-0.286606
0.485892
0.460205
0.416105
0.55603
0.580225
0.512132
0.558978
0.586962
0.259298
-0.180516
-0.251976
-0.0790825
-0.0771123
0.0727047
0.0239747
0.0106594
0.058365
0.0449622
0.367116
0.439318
0.434447
0.459923
0.458635
0.224433
0.179138
0.223778
0.00204494
0.130895
-0.0242812
0.0892883
-0.00684493
0.0300953
-0.0292573
-0.0452797
-1.49147
-2.24362
-0.75735
-0.623756
0.00611424
0.0217421
0.0297824
0.558855
0.56047
0.555419
0.56544
0.70422
-0.675242
-0.851269
0.439803
0.439382
0.563013
0.516386
0.45746
0.390465
0.0205143
0.0170451
0.0117109
0.0395545
0.0310012
0.0907162
0.208608
0.380128
0.414882
0.458756
0.484511
0.47262
0.202353
0.532118
0.530541
-0.116609
0.0463947
-0.0892008
-0.0091109
0.0899444
0.0572994
0.160351
0.198657
-0.0610066
-0.0110137
0.0361507
0.000607019
0.0259454
0.413796
0.404081
0.428244
0.417719
0.422954
0.0924828
-0.00493245
0.2645
0.304643
-0.533238
-0.571401
-0.769724
-0.789346
-0.902845
0.466488
0.535368
0.551239
-0.39146
-0.261214
-0.427553
-0.174322
-0.22094
0.421215
0.412609
0.413609
0.42025
0.423487
0.424631
0.565184
0.557919
0.592866
0.267567
0.342909
0.243149
0.201338
-0.481911
-0.34854
-0.459233
-0.0476244
-0.011184
0.0615642
0.0966691
0.107502
0.0778633
-0.00693715
0.0093
-0.000802472
0.0151204
0.0169565
0.371094
0.355464
0.368314
0.37802
0.432462
0.431167
0.436359
0.439003
0.168361
0.156304
0.113602
0.0905602
-3.03277
-5.18808
-0.431148
-0.339293
-0.0025774
-0.0129719
-0.00490717
-0.0834289
-0.0154095
-0.0426176
0.066426
0.0401361
0.0314385
0.0511704
0.555823
0.568498
0.698705
0.723797
0.624004
0.619877
0.436889
0.446612
0.441717
0.443946
0.0309026
0.0168651
0.0324488
0.424376
0.315573
0.36959
0.170006
0.0758019
0.249635
0.289184
0.557614
0.541239
0.563399
-0.120241
-0.0368174
0.301251
0.0502398
0.287583
0.114968
0.0720674
0.109246
0.0443357
0.382947
0.400182
0.396696
0.424503
0.43181
0.431688
0.434535
0.4262
0.429989
-0.162123
-0.456033
0.41992
0.414955
0.348753
0.396644
0.528176
0.581865
0.556856
0.545834
0.555382
-0.0766834
-0.11269
0.153006
0.1416
0.319081
0.334547
0.324683
0.0869548
0.0464633
0.0847915
0.0712179
0.0474559
0.0980619
-0.425307
-1.78475
-1.0217
-0.14594
-0.229849
-0.199199
0.0372135
0.101218
0.0685316
0.690163
0.735621
0.390814
0.547664
0.501212
-0.14906
-0.0716491
0.0338032
-0.088005
-0.0397246
0.0398548
-0.00727144
0.39715
0.389773
0.399327
0.602054
0.664085
0.038122
-0.0232661
-0.064304
0.120207
0.113832
0.112848
0.716208
0.668033
0.708565
0.388929
0.378341
-0.0580844
-0.00425477
0.490609
0.516836
-0.0611317
-0.0274039
-0.13575
-0.817275
0.0393252
0.442096
0.400917
0.455281
-0.17545
0.179644
0.00113414
0.0169251
-0.033911
0.420228
0.348173
0.317143
-0.060711
0.00582805
-0.00422076
-0.45211
0.449941
0.433978
0.440351
0.451709
0.465477
-0.00760947
-0.0148075
0.0298368
-0.037348
0.0414398
0.0381534
0.42423
0.413982
-0.444408
0.434097
0.458446
0.457547
0.471113
0.472427
0.460644
-0.0164
0.0309112
0.0355693
0.137963
0.245339
-0.0359502
-0.0885953
-0.0152264
-0.148596
-0.336221
-0.0716901
-0.0610625
-0.0707958
-0.0507328
0.521416
0.485756
0.124551
-0.0607202
0.108771
0.0729654
0.437814
0.455719
0.429261
0.441575
0.459035
0.409319
0.4738
0.442423
0.439066
0.482472
-0.121543
-0.0476025
-0.135469
-0.261331
0.252425
0.345453
0.158794
0.224901
0.0919806
-0.0160061
0.0410895
-0.0222639
0.00130801
-0.0013081
0.0979597
0.0295189
0.13257
0.0156871
0.105497
-0.0408756
0.132064
-0.00873562
0.403402
0.422766
0.420341
0.46162
0.380956
0.39839
0.376469
0.374702
0.395223
0.326638
0.344567
0.344499
0.0129618
0.0122769
0.043749
0.0209784
0.0422886
-0.0312009
-0.0285777
-0.0288734
-0.00659393
-0.0499451
-0.010983
-0.00504078
-0.385874
-0.540171
0.623782
0.52523
-0.088954
0.410676
0.453899
0.427468
0.465812
0.476116
0.508417
0.473284
0.45006
0.420494
0.436169
0.418631
0.437659
-0.360971
-0.439151
-0.28618
-0.336781
0.110837
0.538165
0.294719
0.24288
0.235313
0.401413
0.321102
0.0681583
-0.194899
-0.310677
-0.544651
-0.404174
-0.56519
-0.108858
-0.054548
-0.114187
-0.036445
0.0386307
-0.0248806
-0.040306
-0.12693
0.427597
-0.184254
-0.164587
0.0611037
-0.02382
0.220119
0.521356
0.531389
0.463016
0.440812
0.506532
0.480322
0.479556
0.509152
0.515867
0.4201
0.185482
0.174246
0.109256
0.529294
0.443714
0.478273
0.364657
0.45925
0.463162
0.44242
0.433073
0.469262
0.431851
0.427448
0.405334
0.397268
0.437009
0.440562
0.410047
-0.0117054
-0.0204178
-0.143169
-0.362764
-0.222585
-0.319365
-0.19832
-0.0746292
-0.127148
-0.0724382
0.176958
-0.115837
-0.321764
-0.173224
-0.30011
-0.0240068
-0.122222
0.116323
0.125483
0.121865
0.133591
0.182648
0.156337
0.0321004
0.0395966
0.0712023
-0.00698897
0.123356
0.0845055
0.1486
0.056475
0.109286
0.0629439
0.0247182
-0.005652
0.098264
0.0456281
0.00195825
0.0271338
0.0150665
-0.0731098
-0.072123
0.174122
0.0442719
0.444678
0.428548
0.430096
0.448915
0.482133
0.474929
0.420652
0.421727
0.448682
0.419315
0.389588
0.370892
0.362332
0.393962
0.405246
0.401483
0.442182
0.433081
0.405641
0.42631
0.372083
0.391879
0.346032
0.364924
0.392238
-0.0987818
0.0202491
-0.0390902
-0.0453996
0.0111686
0.0496611
0.107596
0.0291958
0.114814
0.0870604
0.0581699
0.0275339
0.0552177
-0.283668
-0.201131
-0.381417
-0.459984
-0.546648
0.591838
0.666065
0.544091
0.377287
0.424357
0.539618
0.648278
0.376277
0.398651
0.492475
0.370814
0.577003
0.438369
0.424002
0.445418
0.465643
0.441301
-0.211161
-0.0710197
-0.0332167
0.071305
0.18276
0.241133
0.140844
0.0590648
0.15648
0.183701
0.520102
0.540218
0.505464
0.537801
0.533073
0.334979
0.42835
0.457214
0.452392
0.454231
0.476427
0.482558
0.477601
0.40856
0.405118
0.410431
0.366077
0.390876
0.364149
0.363521
0.418205
0.396571
0.398104
0.409139
0.457571
0.43761
0.465178
0.510214
0.489434
0.390746
0.370742
0.395689
0.406747
0.384643
0.383298
0.378407
0.122703
0.143543
0.0650262
-0.132556
-0.00480263
-0.0665669
-0.11622
-0.10008
0.0468209
-0.438935
-0.377527
-0.892706
0.314958
0.387415
0.175053
-0.0934349
0.419915
0.454884
0.438982
0.341456
0.352851
0.513207
0.534944
0.543479
0.469683
0.464549
0.483069
0.469231
0.422252
0.30006
0.235299
0.274341
0.113562
0.173729
0.328213
0.270741
0.22639
0.257729
0.347423
0.253069
0.280005
0.353961
0.316119
0.306559
0.432883
0.478638
0.494515
0.437684
0.348898
0.40842
0.394514
0.441378
0.48272
0.486779
0.442615
0.423788
0.433353
0.424954
0.414077
0.431619
0.401283
0.4474
0.452974
0.46116
0.454692
-0.0155496
0.00686817
0.0215666
-0.021763
-0.0601597
-0.110809
-0.120525
-0.132832
0.0662826
0.0388452
-0.0637481
-0.0165849
0.0830496
0.0328435
0.0673758
0.0767419
0.00170506
-0.0524934
0.102439
0.275223
0.262694
0.206165
0.0885895
0.119012
0.225721
0.0285237
0.121745
0.0746352
0.0375704
0.0371701
0.015513
0.107895
0.0445628
0.0845684
0.036107
-0.116682
0.043332
0.0969838
-0.0522615
0.00656359
0.0401454
0.407528
0.410465
0.394735
0.375406
0.383451
0.381804
0.418513
0.443463
0.445588
0.444542
0.45104
0.433793
0.440188
0.00829878
0.127339
0.155537
0.0922861
0.0439843
-0.0077668
-0.0234862
0.0278297
-0.144815
-0.0999712
-0.219578
-0.307649
-0.259667
0.316605
0.331552
0.349187
0.527975
0.391371
0.303744
0.390731
0.508162
0.209134
0.306692
0.188921
0.582638
0.516874
0.618251
0.372931
0.0306213
0.118739
0.261439
-0.00359626
-0.00316155
0.116312
0.117554
0.121778
0.117789
0.198658
0.180497
0.159837
0.0674474
0.112317
0.229918
0.216197
0.293008
0.353032
0.0778223
0.0911565
0.0222418
0.495081
0.520971
0.54306
0.515528
0.535669
0.475691
0.473006
0.504872
0.531275
0.520066
-0.741185
-0.479871
-1.31586
-0.635193
-0.337103
0.413058
0.153157
0.762696
0.601715
0.464225
0.488194
0.491991
0.453684
0.509472
0.509403
0.264256
0.357329
0.300843
0.337836
0.249879
0.176537
0.475974
0.464865
0.48982
0.510148
0.46805
0.509367
0.364312
0.405965
0.388423
0.422784
0.445876
0.46545
0.072306
0.0147202
0.028077
0.0140867
0.0079286
-0.00642181
-0.0499989
-0.017122
0.16849
0.107104
0.0480492
0.104687
-0.00788684
-0.0373021
-0.164373
-0.0893918
-0.152138
-0.289635
-0.270935
-0.235694
-0.128761
-0.0527591
0.285662
0.454637
0.347535
0.487665
0.301327
0.459636
0.354964
0.363895
0.39028
0.281993
0.32227
-0.0343923
-0.327022
-0.234053
0.829827
0.922387
0.572945
0.309908
0.0726344
0.388428
0.445476
0.378739
0.396435
0.477307
0.438722
-0.130505
-0.0354185
-0.0944505
-0.0226777
0.11561
0.0482588
0.0549211
0.0482156
0.0540539
)
;

boundaryField
{
    wall-4
    {
        type            calculated;
        value           nonuniform List<scalar> 
100
(
0.551672
0.262658
0.109567
0.572045
0.155009
-0.790123
0.507246
-0.129074
0.029412
0.448232
0.00222067
-0.00932355
-1.22464
0.56891
-0.742108
0.406113
0.0232551
-0.0945388
0.401895
0.494636
-0.0876771
0.0790647
-0.0354566
0.140646
0.415367
-0.706891
-0.872167
0.531515
-0.286606
0.460205
0.416105
-0.251976
-0.0771123
0.0106594
0.0449622
0.367116
0.434447
0.458635
0.130895
0.0892883
0.0300953
-0.0452797
-2.24362
-0.623756
0.56047
0.56544
-0.851269
0.439382
0.390465
0.0170451
0.0310012
0.208608
0.414882
0.47262
0.202353
0.530541
-0.116609
-0.0091109
0.0572994
0.198657
0.404081
0.428244
0.422954
-0.571401
-0.902845
0.551239
-0.427553
-0.22094
0.413609
0.424631
-0.459233
-0.011184
-0.000802472
0.0169565
0.355464
0.37802
0.432462
0.439003
0.0905602
-0.339293
0.568498
0.436889
0.443946
0.0324488
0.36959
0.0758019
0.289184
0.563399
-0.0368174
0.114968
0.396696
0.431688
0.429989
0.555382
-0.11269
0.324683
0.0712179
-0.199199
-0.0397246
-0.064304
)
;
    }
    velocity-inlet-5
    {
        type            calculated;
        value           nonuniform List<scalar> 8(0.551672 0.572045 0.577357 0.576724 0.580225 0.586962 0.563013 0.592866);
    }
    velocity-inlet-6
    {
        type            calculated;
        value           nonuniform List<scalar> 4(0.262658 0.155009 0.164792 0.223778);
    }
    pressure-outlet-7
    {
        type            calculated;
        value           uniform 0;
    }
    wall-8
    {
        type            calculated;
        value           nonuniform List<scalar> 
34
(
-0.00282444
0.0203276
0.00742961
0.190743
0.259298
0.0727047
0.0297824
0.70422
0.0259454
-0.00493245
0.304643
0.466488
0.342909
0.201338
0.0966691
0.0778633
-5.18808
0.066426
0.0511704
0.723797
0.619877
-0.456033
0.41992
0.396644
0.581865
0.1416
-1.0217
0.0685316
0.735621
0.501212
0.399327
0.664085
0.112848
0.708565
)
;
    }
    frontAndBackPlanes
    {
        type            empty;
    }
}

