/*--------------------------------*- C++ -*----------------------------------*\
  =========                 |
  \\      /  F ield         | OpenFOAM: The Open Source CFD Toolbox
   \\    /   O peration     | Website:  https://openfoam.org
    \\  /    A nd           | Version:  6
     \\/     M anipulation  |
\*---------------------------------------------------------------------------*/
FoamFile
{
    version     2.0;
    format      ascii;
    class       volVectorField;
    location    "0";
    object      U_rec;
}
// * * * * * * * * * * * * * * * * * * * * * * * * * * * * * * * * * * * * * //

dimensions      [0 1 -1 0 0 0 0];

internalField   nonuniform List<vector> 
918
(
(0.983406 -0.00510914 0)
(-0.00159558 2.98171 0)
(-0.0145459 1.69231 0)
(0.976023 0.00752006 0)
(-0.00240621 1.65205 5.88299e-17)
(-0.00151069 2.97097 -4.65545e-17)
(0.948806 1.44422 1.23074e-19)
(0.466704 0.23541 1.47424e-19)
(0.993056 -0.000312698 0)
(0.0120014 1.47852 0)
(-0.000226008 1.54167 0)
(0.882228 -0.00283972 0)
(0.00143472 2.986 0)
(0.00502226 2.89588 0)
(0.00129632 2.89508 1.28139e-17)
(-0.00724287 1.61762 3.4834e-17)
(0.641645 0.130496 7.82916e-18)
(0.167917 1.56096 -4.14171e-17)
(0.982468 0.00630614 0)
(0.00389983 1.61295 0)
(-0.0243371 0.00450904 1.01572e-18)
(0.983763 0.00893488 0)
(1.004 0.0111031 0)
(1.01516 0.000129358 0)
(0.798256 -0.00147899 0)
(0.018578 2.93692 0)
(-0.0086755 2.94374 -8.93516e-17)
(-0.0145662 1.71983 0)
(0.00221777 1.76463 0)
(-0.00725696 1.71704 0)
(-0.0108112 1.79067 0)
(-0.0121628 1.66386 5.88448e-17)
(-0.00738227 1.62185 0)
(-0.0100047 3.00978 -5.44835e-23)
(0.00285253 3.0205 -4.38662e-17)
(0.0202692 3.002 0)
(0.929582 -0.00385316 0)
(0.596499 1.10633 -8.99378e-18)
(0.972573 1.44921 -3.69908e-18)
(1.08807 1.2852 1.98829e-17)
(0.825434 1.57681 1.07655e-17)
(0.796476 1.55456 1.09843e-17)
(0.485694 0.306814 1.64205e-19)
(0.518488 0.226823 0)
(1.27427 0.681477 0)
(0.415848 0.319051 5.26925e-19)
(0.394006 0.221736 4.50914e-19)
(0.956794 -0.00282998 0)
(0.99721 0.0022531 0)
(0.99319 0.00369715 0)
(0.99077 0.0020057 0)
(0.982413 0.00828481 0)
(0.994064 0.0135084 0)
(0.0384458 1.58654 -4.15248e-19)
(0.00741857 1.53837 0)
(0.0193744 1.44702 0)
(-0.00332796 1.57992 0)
(0.00122101 1.52079 0)
(-0.0104566 1.65012 0)
(-0.00164806 1.6411 0)
(0.00268601 1.54964 0)
(-0.0119658 1.64917 0)
(-0.00582529 1.5505 0)
(0.954618 0.00144812 0)
(0.929126 0.0117951 0)
(0.897851 0.0013248 0)
(0.918674 0.0135927 0)
(0.86918 -0.00316335 0)
(-0.0248142 3.03878 3.18802e-17)
(0.00501854 2.96716 0)
(-0.0268033 3.00432 0)
(0.0361551 3.03972 1.2696e-23)
(-0.000403108 3.03141 3.05102e-17)
(0.0170176 3.00881 0)
(0.00224686 2.9573 0)
(0.00526526 2.96902 7.28958e-25)
(0.00369687 2.903 0)
(0.00140688 2.97574 0)
(0.00565408 2.88537 0)
(0.269915 3.17241 0)
(-0.0637355 3.25562 0)
(0.0905355 2.95357 1.24106e-17)
(0.00157463 2.80108 0)
(-0.00530987 1.76832 0)
(-0.00341201 1.68695 3.48991e-17)
(-0.00379751 1.62683 3.47719e-17)
(0.676911 0.170708 -7.43889e-18)
(0.669721 0.0983728 -2.02457e-19)
(0.637128 0.205128 1.3505e-17)
(0.608722 0.164495 -1.42905e-17)
(0.224504 1.23699 0)
(0.265739 1.64062 -4.33846e-17)
(0.364798 1.61774 -4.30556e-17)
(0.993683 0.00631561 0)
(0.968995 0.00305839 0)
(0.992443 -0.0062506 0)
(1.00142 0.000830145 0)
(1.00479 0.0139734 1.12892e-16)
(1.00534 0.0153341 1.50411e-16)
(-0.00720713 1.67221 0)
(-0.00310112 1.60489 0)
(-0.00848774 1.71854 0)
(-0.0124361 1.68935 0)
(-0.00117217 1.62915 0)
(-0.0494516 0.248783 -1.26513e-18)
(0.168778 0.158107 0)
(1.0151 -0.0157763 0)
(0.983967 -0.00354954 0)
(0.89626 0.024457 0)
(0.857937 0.0463157 0)
(0.841119 0.00212553 0)
(1.08829 -0.00233861 0)
(0.81147 0.0463447 0)
(0.74117 -0.00203882 3.40595e-17)
(-0.0161825 2.87397 2.92765e-17)
(0.00958304 2.98814 0)
(-0.0496018 3.02936 0)
(0.00633256 2.87561 0)
(-0.00649716 2.98516 -2.94651e-17)
(-0.00509653 2.93211 0)
(-0.0122681 2.98919 -3.14125e-17)
(-0.0122779 2.95447 3.0565e-17)
(0.00354824 1.77939 0)
(-0.000126056 1.77891 0)
(0.000624271 1.68682 -1.64818e-20)
(-0.00395878 1.67484 0)
(-0.00232137 1.61993 0)
(0.963378 -0.000189459 0)
(0.927988 -0.00246119 0)
(0.922699 0.00598602 0)
(0.96783 -0.00135712 0)
(0.939702 -0.00216854 0)
(0.644718 1.23152 -8.25529e-18)
(0.733882 1.27576 0)
(0.537097 1.05903 -9.92971e-19)
(0.498481 0.98349 0)
(1.08683 1.28832 1.9732e-17)
(1.18928 1.08017 4.58227e-20)
(0.479511 1.68109 0)
(0.671966 1.66511 0)
(0.586782 1.62239 0)
(0.30059 0.619959 -7.27385e-18)
(0.536802 0.285292 0)
(0.555103 0.207999 -3.01106e-18)
(1.16108 1.10258 0)
(1.22157 0.901008 0)
(1.24198 0.869111 -3.75414e-21)
(1.26684 0.711582 0)
(1.29315 0.499972 -2.97175e-17)
(0.97409 0.00182775 0)
(0.976983 -0.00405595 0)
(0.946452 -0.00222214 0)
(0.997709 -0.00809632 0)
(0.988142 -0.00849372 0)
(0.969714 -0.00201646 0)
(0.989188 -0.00392497 0)
(0.987929 7.53525e-06 0)
(0.993912 -0.00179474 0)
(0.0382775 1.66389 3.31383e-17)
(0.0416763 1.54511 0)
(0.0367928 1.68952 1.04836e-18)
(0.0239917 1.61211 -3.44524e-19)
(0.0990712 1.56938 -4.16085e-17)
(0.0264396 1.52138 0)
(0.06067 1.46951 0)
(-0.00242694 1.63019 0)
(0.0084598 1.54316 0)
(-0.00833305 1.70986 4.72016e-21)
(0.00109618 1.65597 0)
(-0.00958446 1.70438 -3.47469e-17)
(0.00192218 1.64778 1.6662e-19)
(0.00608129 1.64588 0)
(0.00518945 1.64484 0)
(0.00966177 1.54737 0)
(-0.0115147 1.65849 0)
(-0.00667294 1.56933 0)
(0.99805 0.0178018 0)
(0.973229 0.00576583 0)
(0.981896 0.00948277 0)
(0.94461 0.00246914 0)
(0.902943 -0.00418177 0)
(0.946278 0.00208679 0)
(0.938637 0.00856946 0)
(0.899316 -0.00177525 0)
(0.00999909 3.03748 -6.57792e-21)
(0.0148199 3.03368 0)
(0.00534008 2.9935 0)
(0.0029145 2.94164 0)
(0.979673 3.68554 0)
(1.36418 2.73164 -2.74306e-18)
(0.00716715 2.87564 0)
(-0.00983783 2.79925 0)
(-0.00627719 1.76731 0)
(-0.00808883 1.76862 0)
(-0.0090376 1.76862 0)
(-0.00620437 1.7828 -7.83541e-17)
(-0.0114198 1.7697 0)
(-0.00595452 1.77584 0)
(0.00197677 1.63274 -6.96884e-17)
(0.00346132 1.69828 -3.47956e-17)
(-0.00586334 1.69464 3.4872e-17)
(-0.00024404 1.63092 0)
(0.708944 0.134068 -1.51749e-17)
(0.69765 0.0653612 -1.57601e-17)
(0.187355 1.39177 0)
(0.276427 1.09654 -1.40548e-19)
(0.122582 1.4708 -3.06515e-17)
(0.146913 1.37288 -2.9626e-17)
(0.949305 0.00606364 0)
(0.979318 0.0050334 0)
(0.984482 0.00835004 0)
(0.956219 0.00546937 0)
(-0.011211 1.66455 0)
(-0.00503998 1.66645 0)
(-0.00749694 1.58921 0)
(0.336665 0.316244 2.20002e-18)
(0.200638 0.28391 -3.15336e-18)
(0.307342 0.205413 0)
(1.17813 0.102017 -9.9667e-20)
(1.1834 0.0590053 0)
(1.09227 0.0472655 0)
(1.0306 0.00436715 0)
(0.725124 0.0919724 0)
(0.755462 0.0496791 1.5708e-17)
(0.70681 0.0286482 -1.54222e-17)
(-0.01654 2.95451 -2.92762e-17)
(-0.00864664 2.90403 -5.91414e-17)
(0.00576829 3.02868 -2.16074e-20)
(0.030486 3.01882 -3.35937e-17)
(-0.016397 3.00281 6.16109e-21)
(-0.0106941 2.98167 -7.07251e-23)
(-0.0106425 3.02371 -6.78374e-18)
(0.00195088 2.98511 -6.23766e-18)
(0.0430289 3.02034 -3.43519e-17)
(0.976681 0.00548459 0)
(0.969513 0.0094287 0)
(0.935581 0.00303546 0)
(0.974333 0.00754846 0)
(0.964314 0.00959997 0)
(0.934675 0.00642942 0)
(0.949573 0.000558161 0)
(0.955901 0.00813252 0)
(0.907117 0.00047069 0)
(0.789737 1.44751 -2.73262e-19)
(0.871887 1.50908 0)
(0.402273 0.824465 1.87705e-18)
(0.38166 0.877921 8.60369e-19)
(0.445267 0.962699 -1.54245e-17)
(0.426006 0.902504 -1.38276e-17)
(0.378769 0.935766 7.09788e-18)
(0.286915 0.649797 2.13613e-17)
(0.608999 0.23297 -7.28843e-18)
(0.577157 0.258052 -2.38247e-18)
(0.587727 0.188736 6.84037e-18)
(1.2917 0.524513 -2.98179e-17)
(1.29011 0.332921 -9.33725e-20)
(0.018766 1.70439 -3.34604e-17)
(0.0115794 1.63337 0)
(1.04413 0.0313966 0)
(1.01555 0.0204706 0)
(0.996327 0.00101234 0)
(0.013703 3.04529 0)
(0.0142746 2.97396 -2.94536e-17)
(0.00989095 2.98508 0)
(0.00309162 2.9235 -3.08141e-17)
(0.0112216 3.05756 1.74921e-17)
(0.0106175 3.05009 0)
(0.851655 1.74199 -2.63162e-18)
(1.19907 2.31484 -1.33436e-17)
(0.942283 1.82525 -1.34238e-17)
(-0.0284873 2.91702 2.88034e-17)
(-0.0270398 2.87781 0)
(-0.0184951 2.83601 0)
(-0.0106209 1.69435 6.92031e-17)
(0.00180503 1.69 -4.25969e-19)
(-0.0096388 1.63242 6.90971e-17)
(0.243908 1.30782 -1.39345e-17)
(0.293863 0.921902 -1.42991e-17)
(0.0389795 1.62152 -3.08818e-17)
(0.0760064 1.55744 -3.1603e-17)
(0.0665378 1.47406 -6.23936e-17)
(-0.0198866 3.06872 1.18691e-16)
(-0.00768585 3.06579 1.20269e-16)
(0.00669154 2.98593 3.06209e-17)
(-0.0168286 2.97925 -3.00245e-17)
(-0.00205831 2.93377 2.96933e-17)
(0.016596 3.06149 -1.05279e-16)
(-0.00631284 3.05678 -1.20721e-16)
(0.333585 0.889161 0)
(0.309683 0.840234 -1.27353e-17)
(0.353299 0.672645 -1.41813e-17)
(0.355611 1.00875 3.55291e-17)
(0.309474 0.69203 2.03459e-17)
(1.26806 0.201247 -6.07548e-19)
(1.2934 0.361668 0)
(1.26306 0.176051 -6.13062e-20)
(-0.0102776 1.71587 8.92932e-22)
(0.00975287 1.71563 0)
(-8.83529e-05 1.64664 0)
(0.296386 1.22989 1.32801e-19)
(0.349038 1.14101 -3.55345e-17)
(0.286181 0.790524 -2.73685e-17)
(1.00215 -0.0240624 0)
(1.00162 -0.0139415 1.90229e-17)
(0.00224164 1.77487 0)
(-0.0100665 1.7905 0)
(1.0006 -0.0019593 4.72913e-19)
(1.00123 0.00133344 2.84529e-17)
(0.000978692 1.78298 -7.8368e-17)
(-7.73681e-05 1.77915 0)
(-0.0207873 2.96855 2.98153e-17)
(0.302351 2.98806 0)
(1.09601 0.700679 -2.85865e-17)
(1.00446 0.00784089 8.72696e-17)
(1.01299 -0.0061219 0)
(1.00483 -0.00138956 3.66167e-19)
(-0.113824 1.61273 0)
(-0.0493432 1.92577 0)
(-0.00574347 1.79309 0)
(0.00815625 1.76076 -7.68913e-17)
(-0.0063679 1.76485 7.70246e-17)
(0.988325 0.0113035 8.55361e-17)
(1.03593 0.0207343 0)
(1.06044 0.0325034 0)
(-0.00289621 1.7723 0)
(0.000353984 1.77362 0)
(-0.0168822 1.77736 0)
(0.229233 1.51965 -8.4682e-17)
(1.00471 -0.013455 0)
(1.00651 -0.0148152 0)
(0.995437 0.00558551 -1.38368e-17)
(0.996527 -0.00515751 1.80545e-17)
(0.995001 -0.00347533 0)
(-0.00190309 1.76592 0)
(-0.00237211 1.76699 0)
(-0.00257869 1.76365 0)
(-0.00952067 1.77845 0)
(-0.0262586 1.7776 0)
(-0.0145198 1.77108 0)
(1.01207 0.00206145 0)
(1.01091 0.00713056 8.74463e-17)
(0.838431 1.42011 -3.55313e-18)
(1.00159 -0.00722404 1.42041e-17)
(0.998851 0.00476149 -1.77446e-17)
(1.00196 0.00331305 0)
(1.00135 0.0107354 4.40361e-17)
(1.00611 0.0135833 4.21811e-17)
(1.00434 0.0108675 0)
(0.00231003 1.77639 0)
(0.00496338 1.77556 -3.94324e-17)
(-0.00205396 1.77271 -3.53581e-17)
(1.1621 0.260453 -5.34441e-17)
(1.0995 0.0819392 0)
(-0.241751 2.96862 2.40368e-17)
(-0.260332 3.23419 3.10358e-19)
(-0.0395401 3.0138 5.7112e-17)
(-0.0417627 2.96699 3.51471e-17)
(0.046365 2.94172 0)
(-0.027074 3.02531 1.563e-17)
(-0.10451 3.12807 2.90314e-17)
(-0.0845853 3.00948 1.51507e-17)
(-0.0622095 3.09668 0)
(0.641964 0.337169 0)
(0.524928 0.384806 0)
(1.07697 0.823246 3.4834e-17)
(1.07394 0.90299 3.33148e-17)
(1.13993 0.638548 0)
(1.15714 0.559236 0)
(1.00739 0.00542313 1.49029e-18)
(1.00383 0.0040917 1.0885e-18)
(1.01474 -0.00715977 0)
(1.00794 -0.0146826 0)
(0.999366 0.0103873 0)
(1.00573 0.00381879 0)
(1.00498 0.00627298 0)
(1.00203 0.00609711 0)
(1.00365 0.00507999 0)
(0.993493 0.0061503 0)
(-0.0950169 1.63177 0)
(-0.0997553 1.67044 0)
(-0.0699429 1.58746 0)
(-0.0300547 1.582 0)
(-0.0450479 1.95734 0)
(0.00563657 1.95321 3.4715e-17)
(-0.0342112 1.91096 0)
(-0.0388218 1.86303 3.44737e-17)
(-0.00668227 1.7723 -7.33146e-17)
(-0.0125462 1.79358 0)
(-0.00455344 1.79105 0)
(0.000599934 1.79287 0)
(-0.00534772 1.79066 0)
(0.00814698 1.77565 -7.76336e-17)
(-0.0213668 1.75564 -4.91425e-17)
(0.00968408 1.76361 3.92884e-17)
(-0.00285538 1.76946 0)
(0.0163716 1.77048 3.13859e-17)
(0.00461176 1.77394 -7.41565e-17)
(-0.0201744 1.79228 -1.17879e-16)
(-0.0173458 1.74142 -4.93567e-17)
(0.00593734 1.74882 3.90436e-17)
(0.992086 0.0175971 2.55179e-18)
(0.995337 0.0031411 -1.3946e-18)
(0.987608 0.0241574 2.47519e-18)
(0.975524 0.0171893 1.54148e-18)
(1.03127 0.0126274 0)
(1.0311 0.00927427 0)
(1.04432 0.0339202 0)
(1.03829 0.0307598 0)
(1.04166 0.0146789 0)
(1.08658 0.0723576 0)
(1.06479 0.0612884 0)
(1.08068 0.0407754 0)
(-0.0134346 1.78294 1.01955e-17)
(-0.00217091 1.75958 0)
(-0.0154566 1.76807 0)
(-0.00389607 1.77227 -1.50933e-17)
(-0.00166854 1.77433 1.35985e-20)
(-0.0124219 1.78784 4.56433e-17)
(-0.0250941 1.77608 4.55869e-17)
(-0.005503 1.76902 0)
(-0.028981 1.7744 0)
(-0.0150529 1.76669 0)
(-0.00710463 1.78002 0)
(-0.010577 1.78499 0)
(0.412203 1.56199 -6.00799e-17)
(0.426233 1.60808 4.19843e-17)
(0.404992 1.97315 -4.8437e-19)
(0.212173 1.98912 3.20209e-17)
(0.302946 2.03485 3.82926e-17)
(1.012 -0.0124933 0)
(1.01134 -0.00665136 0)
(1.01487 -0.00847791 0)
(1.00528 0.00360088 0)
(0.997643 -0.00418901 0)
(0.990467 -0.00161971 0)
(1.00216 -0.00120784 0)
(1.00472 -0.000571984 0)
(1.00802 0.00545174 3.27717e-18)
(1.00375 0.00711138 -1.20531e-18)
(1.01132 0.00865821 1.81247e-18)
(1.00674 0.00767149 1.10334e-18)
(0.762797 1.5196 0)
(0.725677 1.55539 -8.11376e-17)
(0.90144 1.37342 7.13135e-17)
(0.949998 1.29573 7.13788e-17)
(1.00192 2.09358 -1.8469e-17)
(0.822245 0.116063 -1.70761e-17)
(1.11198 0.134654 0)
(1.15805 0.188614 -1.03695e-16)
(1.13639 0.140029 -1.4298e-19)
(0.951737 0.141219 0)
(-0.0906588 2.6953 5.82247e-17)
(-0.386438 2.6103 6.46723e-17)
(-0.840045 2.68268 1.12884e-17)
(-0.671855 0.194803 -1.38006e-17)
(0.19425 2.97928 -1.25315e-17)
(0.0390468 2.97264 0)
(0.138825 2.94895 -1.24932e-17)
(0.0195381 2.69145 6.97488e-17)
(0.193623 2.72082 0)
(-0.0234909 3.05204 -9.61206e-20)
(-0.0343801 3.07207 -2.71396e-17)
(-0.00523691 3.0943 -2.62903e-17)
(-0.0445927 3.111 0)
(-0.0480633 3.05027 0)
(1.13821 2.15509 0)
(0.489304 1.05409 4.78798e-17)
(1.01994 1.09801 -3.3898e-17)
(0.991554 1.22753 0)
(0.82813 1.09339 -1.60905e-17)
(1.04277 1.04259 -6.35339e-17)
(0.168767 0.421945 -6.10115e-18)
(0.651531 0.335959 1.24048e-17)
(0.672051 0.2989 1.51329e-17)
(0.46319 0.454345 2.113e-19)
(0.425966 0.391516 -3.45635e-18)
(0.605526 0.382864 0)
(0.593105 0.48048 1.49502e-17)
(0.615181 0.433463 0)
(0.544257 0.409934 0)
(0.58694 0.353077 0)
(0.676986 0.691442 3.73479e-17)
(1.17238 0.342993 3.31956e-17)
(1.18258 0.46309 0)
(1.17329 0.387309 0)
(0.745433 0.230861 2.35851e-17)
(0.721681 0.625515 3.51381e-17)
(0.60905 0.568699 1.53919e-17)
(0.871805 0.42814 -8.8275e-17)
(1.00245 0.00551898 4.17458e-17)
(1.00309 0.0146506 4.06932e-17)
(0.997607 0.0105045 0)
(1.00772 0.00458738 0)
(1.00609 -0.0166454 -4.07293e-17)
(0.997909 -0.0114832 -3.91188e-17)
(1.01654 0.000587784 0)
(1.00546 0.00576345 0)
(1.00881 0.000544586 0)
(1.00386 0.00265179 0)
(1.00968 -0.00172267 0)
(1.00611 -0.00565838 0)
(-0.0742802 1.71067 0)
(-0.0576443 1.7254 0)
(-0.137947 1.53525 -5.46963e-17)
(0.173099 1.55726 -4.1288e-17)
(0.036167 1.55372 7.9104e-17)
(0.076939 1.52972 3.7716e-17)
(-0.0468577 1.54032 0)
(-0.143171 1.89405 7.35655e-17)
(-0.202322 1.84601 0)
(0.187973 2.08526 3.82952e-17)
(0.148949 2.09263 -4.44153e-17)
(-0.0793112 1.80866 7.35628e-17)
(0.150897 1.46035 -4.24385e-17)
(-0.0214232 1.5247 -4.24943e-17)
(0.161744 1.46737 -1.14316e-17)
(0.031264 1.85494 0)
(0.142675 1.85659 -5.30594e-17)
(-0.0644607 1.77487 5.48737e-18)
(-0.0120933 1.78896 0)
(-0.104423 1.82438 -7.39486e-17)
(-0.0931078 1.77947 0)
(-0.0225629 1.84156 3.42207e-17)
(-0.0146141 1.80434 0)
(0.0140904 1.77761 5.52151e-17)
(0.0153938 1.7829 0)
(-0.00578369 1.78177 0)
(-0.00138506 1.79164 5.54403e-17)
(-0.0128761 1.75256 -1.21103e-16)
(0.00431518 1.76803 -7.01138e-17)
(-0.00597355 1.76532 4.49321e-21)
(0.00158168 1.76508 7.96425e-17)
(-0.0221727 1.78639 -4.03626e-17)
(-0.0120186 1.78902 0)
(-0.0116958 1.79507 0)
(-0.0463843 1.7979 3.2716e-17)
(-0.0421434 1.78845 2.79737e-17)
(-0.0217618 1.79364 6.04883e-17)
(-0.108581 1.80916 0)
(3.91935e-05 1.77724 1.04788e-16)
(-0.0104146 1.77188 1.779e-17)
(0.00324594 1.77634 -2.00502e-17)
(0.00827655 1.78148 7.95206e-17)
(0.0139929 1.74261 -4.17668e-18)
(0.00176832 1.74937 -4.53247e-17)
(1.00424 0.0128985 4.05811e-17)
(0.998943 0.00592863 4.10848e-17)
(0.999307 0.00808608 0)
(0.989859 0.0478796 -6.03181e-17)
(0.966589 0.0502581 2.96214e-18)
(0.949135 0.0336874 6.36023e-18)
(0.983943 0.0900102 1.14743e-19)
(1.01695 0.00787392 0)
(1.02268 0.0121637 -4.0382e-17)
(1.01973 0.00624071 -4.09452e-17)
(1.02586 0.0382081 2.93209e-18)
(1.02859 0.0358345 -6.09118e-18)
(1.01879 0.0495727 0)
(1.01074 0.0443247 -1.23476e-18)
(1.00433 0.0267982 0)
(0.999924 0.0287678 0)
(1.01771 0.0228134 0)
(1.00586 0.0104539 0)
(1.01142 0.0289958 7.33635e-18)
(1.01141 0.0217653 2.4138e-17)
(1.02476 0.0311892 -9.51722e-18)
(1.018 0.029762 6.92393e-18)
(1.01687 0.0670426 3.5526e-17)
(1.03843 0.061444 0)
(1.02903 0.0913467 0)
(0.000221607 1.78479 -5.53234e-17)
(0.0163359 1.76436 -8.99491e-19)
(-0.00597339 1.773 0)
(0.00752287 1.78213 -5.52458e-17)
(0.00157352 1.78726 9.30935e-18)
(0.00291924 1.77873 -4.15341e-18)
(-0.00307012 1.774 -7.89698e-17)
(0.00486859 1.768 -2.24628e-19)
(0.00929209 1.76132 -4.96567e-18)
(-0.00423762 1.77167 3.48091e-17)
(-0.00282439 1.77483 3.51183e-17)
(0.0025068 1.76455 -2.38049e-17)
(-0.00236312 1.77809 -3.95087e-17)
(0.396419 1.42134 2.95723e-17)
(0.354302 1.53906 -5.38778e-18)
(0.679046 1.6188 -8.12264e-17)
(0.549127 1.63165 4.19129e-17)
(0.582072 1.62346 0)
(0.430735 1.96501 -2.99413e-18)
(0.502506 1.94714 4.3734e-19)
(0.267425 1.99008 -7.58105e-18)
(0.218744 2.12908 -3.81386e-17)
(0.307278 2.11233 -2.71937e-17)
(0.364516 1.98408 0)
(0.328872 1.96003 -1.47066e-17)
(0.0547861 1.99178 5.38089e-18)
(0.157248 2.00409 6.38771e-17)
(0.112847 1.96449 1.22834e-18)
(0.753613 1.93067 -3.22944e-17)
(0.657634 1.9578 0)
(1.00909 0.00862282 7.33032e-20)
(1.00822 -0.00397875 3.79034e-20)
(1.00362 -0.0195569 -1.23973e-17)
(1.01422 -0.00857821 -1.18169e-17)
(1.01036 0.00168673 0)
(0.703084 1.44877 0)
(0.634128 1.37631 0)
(0.769428 1.23041 0)
(0.680729 1.29571 0)
(0.983649 2.10853 2.99065e-17)
(0.931528 1.93311 0)
(0.696066 1.88159 -1.08131e-18)
(0.711487 2.03804 0)
(0.735959 2.0695 7.17922e-17)
(0.791332 2.0223 7.2205e-17)
(0.803697 0.15035 0)
(0.788139 0.155873 4.77122e-20)
(0.880717 0.134735 1.69652e-17)
(0.84055 0.112132 -3.22956e-17)
(0.8518 0.0840422 -9.10895e-18)
(1.01631 0.255133 -3.78049e-17)
(0.89704 0.299005 2.95204e-17)
(0.855798 0.285576 3.35162e-17)
(0.946662 0.231742 1.93537e-17)
(0.888718 0.165856 3.07485e-17)
(0.867225 0.195336 -1.00164e-17)
(0.865574 0.263062 -1.21715e-18)
(0.851062 0.227195 0)
(0.950365 0.202424 2.80034e-17)
(0.989219 0.18469 0)
(0.981677 0.25468 0)
(1.04884 0.124194 -9.88025e-18)
(1.00012 0.184537 3.24852e-17)
(0.991678 0.216686 2.04179e-17)
(1.0328 0.202677 0)
(0.994562 0.0263827 -3.1922e-17)
(1.00415 0.0346585 3.91094e-17)
(1.0063 0.0347426 -3.27543e-17)
(1.00472 0.0551679 3.93759e-17)
(0.982054 0.0503482 -6.44296e-17)
(0.945408 0.147515 0)
(0.958423 0.0725852 0)
(0.945516 0.0556036 4.14958e-17)
(0.920106 0.0535513 1.06195e-17)
(0.988389 0.0969819 -3.32101e-17)
(1.01379 0.124472 -3.59556e-17)
(1.00935 0.150395 -2.04072e-18)
(0.976384 0.149143 0)
(1.01643 0.0978927 0)
(1.01002 0.084527 3.33729e-17)
(0.991904 0.085054 -3.29294e-17)
(0.547094 1.33141 3.02222e-17)
(0.563811 1.5517 -2.38247e-17)
(0.919803 2.21283 1.63657e-17)
(0.986069 2.47187 -1.52043e-18)
(1.04055 2.18926 -3.79291e-17)
(1.0991 2.23534 8.77093e-18)
(1.09685 1.97128 8.48625e-18)
(1.0114 2.37367 -2.04303e-17)
(1.01187 2.348 -8.7546e-18)
(1.04947 2.57794 5.2899e-19)
(1.17761 2.44862 5.52538e-19)
(1.24394 2.40136 0)
(0.467176 1.11365 -3.9596e-18)
(-0.180335 1.42074 -1.23287e-17)
(0.0304291 0.597552 -3.15674e-18)
(-0.102606 0.819519 -1.34543e-17)
(0.341869 0.456687 -4.4816e-18)
(0.358174 0.510598 -4.96746e-18)
(0.305604 0.601128 -4.78255e-20)
(0.213266 0.471384 2.5004e-19)
(0.305169 0.387179 -2.34062e-18)
(0.728128 0.273777 2.25086e-17)
(0.682413 0.304755 0)
(0.705041 0.261316 6.35528e-18)
(0.596649 0.569422 -9.51164e-18)
(0.510708 0.542007 4.08317e-18)
(0.424734 0.57866 -6.0755e-18)
(0.492564 0.491984 0)
(0.572665 0.936437 -2.23378e-17)
(0.73869 0.906539 5.38134e-17)
(0.682272 1.04395 4.79997e-17)
(0.774784 0.9325 1.19166e-17)
(0.893626 0.925726 -5.19349e-18)
(0.894014 0.991189 -5.12826e-18)
(0.781403 0.757087 -1.41702e-18)
(0.843192 0.806629 1.21234e-17)
(0.929618 0.855308 0)
(0.92612 0.735347 2.41551e-17)
(0.948831 0.325432 5.49946e-17)
(1.05804 0.325041 -1.61419e-17)
(0.996123 0.313452 -4.76915e-17)
(0.904435 0.398488 4.49388e-17)
(0.994031 0.451312 0)
(1.03048 0.42315 0)
(0.816786 0.390876 5.20418e-17)
(0.78369 0.290562 0)
(0.778564 0.290697 -1.20674e-17)
(0.871929 0.316867 7.08841e-17)
(0.827851 0.499756 -6.88199e-17)
(0.752756 0.554113 4.86653e-18)
(0.792178 0.509844 3.24985e-18)
(0.720189 0.467349 3.95313e-18)
(0.704876 0.480424 -3.25199e-18)
(0.668852 0.460896 -3.67183e-18)
(1.01707 -0.00179743 -4.15639e-17)
(1.01099 -0.0102131 0)
(1.01875 -0.00211171 1.62195e-17)
(1.00826 0.00576111 -2.63215e-17)
(1.02181 0.00401776 -1.92132e-17)
(1.01176 0.0148721 -8.98858e-18)
(1.00835 0.0111691 0)
(1.00912 0.0042116 1.11043e-17)
(1.01197 0.00816105 5.27324e-18)
(1.00581 0.0085507 -6.56822e-18)
(1.00936 0.00365292 1.13901e-17)
(-0.0268016 1.77929 0)
(-0.029671 1.79887 0)
(-0.0343266 1.74561 0)
(-0.0244918 1.75988 0)
(-0.159948 1.75501 -1.77484e-18)
(-0.164009 1.68327 -1.13413e-16)
(-0.202435 1.84513 -3.51207e-17)
(-0.243567 1.76816 -8.81547e-17)
(-0.0939807 1.78946 5.66259e-17)
(-0.087055 1.79793 6.58865e-17)
(-0.132028 1.75765 1.2484e-16)
(-0.108318 1.76088 5.70121e-17)
(-0.069074 1.77108 1.01644e-17)
(-0.060759 1.79559 1.22573e-18)
(-0.119166 1.86274 -7.42784e-17)
(-0.100967 1.92207 0)
(-0.180771 1.9543 -4.13744e-17)
(-0.217712 1.87911 -4.28781e-18)
(-0.00277967 1.99143 -1.95278e-17)
(0.00197609 2.06255 0)
(0.0291397 2.06296 5.2979e-17)
(0.06013 2.09275 5.34591e-17)
(-0.0737139 1.98701 -6.71151e-17)
(-0.127271 1.9827 -8.45685e-17)
(-0.0954078 2.00033 0)
(-0.0299632 1.76366 3.12853e-17)
(-0.017828 1.72938 -2.5267e-17)
(-0.0149716 1.75288 0)
(-0.016542 1.75864 2.18513e-17)
(-0.0620059 1.77295 1.9321e-17)
(-0.00433755 1.7886 1.01033e-17)
(-0.00867457 1.78195 -1.07538e-16)
(-0.021685 1.78931 -6.7883e-17)
(-0.0261831 1.7812 4.95255e-17)
(-0.00615552 1.78266 0)
(0.0109908 1.79143 0)
(-0.00868408 1.78138 -3.97165e-17)
(-0.00456994 1.77332 -4.10263e-18)
(-0.00307323 1.78228 0)
(-0.00850709 1.7897 3.53048e-17)
(-0.00960249 1.78424 -5.37741e-19)
(1.01853 0.0342032 0)
(1.02855 0.0271345 -5.42394e-19)
(1.01077 0.0221299 4.05435e-17)
(1.01983 0.0148581 0)
(1.01786 0.0082174 0)
(1.02079 0.00505719 2.22255e-17)
(1.01571 0.0118342 -4.76028e-17)
(1.00939 0.00841018 -6.79581e-18)
(1.0059 0.0079804 0)
(1.00729 0.0102255 0)
(1.00696 0.015955 3.60827e-17)
(1.00195 0.0172132 0)
(1.00593 0.0151812 0)
(-0.00228692 1.78041 0)
(0.000678905 1.77536 -4.29625e-17)
(0.000236509 1.76994 4.47527e-17)
(-0.00552256 1.76717 0)
(0.0090341 1.78174 -4.01258e-17)
(-0.00383422 1.77039 -1.9972e-17)
(-0.00842638 1.76377 0)
(0.519339 1.7418 0)
(0.345332 1.57883 1.8804e-17)
(0.348065 1.71178 0)
(0.497743 1.4321 9.24608e-17)
(0.523129 1.47305 0)
(0.517215 1.46887 3.23737e-17)
(0.826924 2.10275 -4.11809e-19)
(0.775903 1.91433 -3.33785e-17)
(0.719768 1.7522 -1.43782e-17)
(0.675193 1.93738 -7.12244e-18)
(0.708621 2.02986 0)
(0.7488 2.01076 0)
(0.711892 1.92933 0)
(0.707902 1.92401 -8.09607e-18)
(0.563183 2.10701 -4.35341e-17)
(0.677445 2.02334 3.22142e-18)
(0.672092 2.06342 3.30462e-18)
(0.517075 1.96527 0)
(0.601708 1.96219 0)
(0.583685 1.95956 -4.12811e-19)
(0.627945 2.05746 0)
(0.614661 1.25285 0)
(0.564954 1.16027 -7.12003e-17)
(0.55563 1.14476 -6.53008e-18)
(0.571331 1.24673 0)
(0.570402 1.19758 -6.63771e-17)
(0.723009 1.05662 -1.20659e-17)
(0.774372 1.19139 0)
(0.787952 1.11355 -2.78487e-17)
(0.680495 1.20291 0)
(0.615357 1.14967 0)
(0.917044 2.17877 1.09047e-17)
(0.900537 2.25281 -1.3075e-17)
(0.734628 1.99341 -3.66036e-17)
(0.723399 1.96205 -4.48125e-18)
(0.899389 2.14544 0)
(0.851753 2.1244 -3.24605e-18)
(0.891899 1.99754 -7.94295e-18)
(0.838217 1.81613 -7.93638e-18)
(0.552585 1.47413 0)
(0.530906 1.32957 3.00565e-17)
(0.565765 1.38698 0)
(0.81725 0.215193 0)
(0.778211 0.188341 0)
(0.760553 0.199729 0)
(0.802021 0.25223 -1.26859e-17)
(0.748867 0.230912 7.8762e-18)
(0.927196 0.0770828 1.02448e-17)
(0.921021 0.11739 0)
(0.897548 0.0940086 6.56812e-19)
(0.85952 0.0777572 8.17209e-19)
(0.867034 0.055897 -8.99738e-18)
(1.03922 2.74129 -1.25523e-17)
(0.97663 2.64324 0)
(0.937413 2.81686 -4.98981e-17)
(0.586048 3.02342 -3.66828e-17)
(0.720349 2.54136 9.31687e-18)
(0.446149 1.19094 -2.19315e-17)
(0.526419 1.10244 0)
(0.232695 0.832935 6.21977e-18)
(0.254902 0.93118 4.8642e-17)
(0.186379 0.799513 8.92673e-18)
(0.260853 0.638717 6.84472e-18)
(0.489002 0.637049 -5.99939e-18)
(0.512243 0.687268 0)
(0.456371 0.78287 0)
(0.350826 0.737317 0)
(0.902184 0.688222 1.30311e-17)
(0.826227 0.604304 3.21753e-18)
(0.841946 0.643239 1.24757e-18)
(0.86425 0.52775 1.7459e-17)
(0.976652 0.553011 0)
(0.97744 0.618992 -1.24224e-17)
(0.772743 0.417483 4.23147e-18)
(0.772719 0.36846 1.79624e-17)
(0.71824 0.398628 6.72262e-19)
(0.719254 0.373434 -2.23349e-18)
(0.762702 0.333034 -1.31441e-17)
(0.74408 0.313078 -1.24744e-17)
(1.02744 0.000524229 -4.5528e-17)
(1.02655 -0.00150199 -2.42631e-17)
(1.02341 0.00349341 4.50418e-17)
(1.02338 0.00304543 4.40534e-17)
(1.01696 0.0215264 0)
(1.00208 0.0151363 -2.88915e-17)
(-0.118867 1.81365 2.78412e-17)
(-0.121277 1.82037 0)
(-0.200075 1.86038 -4.3414e-17)
(-0.212384 1.86113 -6.36602e-17)
(-0.221281 1.83831 -3.49617e-17)
(-0.190838 1.84574 0)
(0.0245383 1.79008 0)
(0.0159827 1.78322 -2.02994e-17)
(0.00172702 1.76931 -2.02608e-17)
(0.000397291 1.77495 -5.09996e-17)
(-0.00736512 1.78025 -1.08749e-17)
(0.0223254 1.78314 -4.13178e-18)
(0.596796 1.47236 -1.21799e-16)
(0.614623 1.5304 -1.26127e-16)
(0.563155 1.46473 7.39917e-17)
(0.613215 1.50894 -4.76308e-18)
(0.667675 1.47483 0)
(0.606801 1.51802 7.41646e-17)
(0.644833 1.50835 7.41656e-17)
(0.580473 1.42307 7.40258e-17)
(0.624548 1.44076 0)
(0.618093 1.42954 0)
(0.567162 2.12296 -4.31128e-17)
(0.513182 2.06026 -6.10548e-17)
(0.564639 2.06297 -6.19697e-17)
(0.448592 2.07216 -3.18385e-18)
(0.404021 2.22749 3.82613e-18)
(0.338365 2.16814 -2.40238e-17)
(0.790062 1.8747 -1.57246e-17)
(0.83638 1.90061 0)
(0.763428 1.74216 -7.56582e-19)
(0.853984 2.09254 0)
(0.822233 2.09696 0)
(0.558502 2.0168 -6.79486e-18)
(0.91901 2.46801 -7.48469e-18)
(0.797898 2.47592 3.21464e-18)
(0.167811 1.24499 0)
(0.203346 1.19729 -1.74476e-17)
(0.435548 1.10761 -3.9764e-17)
(0.377859 1.96071 0)
(0.368835 2.32194 9.39056e-18)
(0.203584 2.29608 0)
(0.599436 0.850484 -2.14991e-17)
(0.635754 0.843869 -3.97159e-17)
(0.650453 0.796525 -3.33549e-17)
(0.483863 0.81989 -2.65198e-18)
(0.561508 0.717582 -1.87818e-18)
(0.833211 2.28255 -7.40851e-18)
(0.887265 2.2657 -1.3692e-17)
(0.646653 1.99106 1.66556e-17)
(0.62655 1.6849 2.60551e-17)
(0.677091 1.76071 3.41915e-17)
(0.8414 2.05179 -3.07242e-17)
(0.842572 2.0611 -1.43639e-17)
(0.712805 1.72553 1.09078e-18)
(0.552202 1.46238 3.60501e-17)
)
;

boundaryField
{
    wall-4
    {
        type            calculated;
        value           uniform (0 0 0);
    }
    velocity-inlet-5
    {
        type            calculated;
        value           uniform (1 0 0);
    }
    velocity-inlet-6
    {
        type            calculated;
        value           uniform (0 3 0);
    }
    pressure-outlet-7
    {
        type            calculated;
        value           nonuniform List<vector> 8((-0.014491 1.69251 0) (-0.00247636 1.65187 5.88299e-17) (0.00252623 1.76476 0) (-0.010455 1.79065 0) (-0.00519802 1.7682 0) (8.11311e-05 1.77874 0) (-0.00898071 1.76848 0) (-0.00576504 1.7757 0));
    }
    wall-8
    {
        type            calculated;
        value           uniform (0 0 0);
    }
    frontAndBackPlanes
    {
        type            empty;
    }
}

