/*--------------------------------*- C++ -*----------------------------------*\
  =========                 |
  \\      /  F ield         | OpenFOAM: The Open Source CFD Toolbox
   \\    /   O peration     | Website:  https://openfoam.org
    \\  /    A nd           | Version:  6
     \\/     M anipulation  |
\*---------------------------------------------------------------------------*/
FoamFile
{
    version     2.0;
    format      ascii;
    class       volScalarField;
    location    "0";
    object      p;
}
// * * * * * * * * * * * * * * * * * * * * * * * * * * * * * * * * * * * * * //

dimensions      [0 2 -2 0 0 0 0];

internalField   nonuniform List<scalar> 
145945
(
2.09843e-06
2.09815e-06
2.09822e-06
2.09831e-06
2.09852e-06
2.09866e-06
2.0988e-06
2.09888e-06
2.09893e-06
2.0989e-06
2.09885e-06
2.09872e-06
2.0986e-06
2.09842e-06
2.09835e-06
2.09823e-06
2.09852e-06
2.09815e-06
2.09807e-06
2.09817e-06
2.09833e-06
2.09856e-06
2.09872e-06
2.09887e-06
2.09896e-06
2.09901e-06
2.09898e-06
2.09892e-06
2.09878e-06
2.09865e-06
2.09845e-06
2.09832e-06
2.09817e-06
2.09825e-06
2.09822e-06
2.09817e-06
2.09829e-06
2.0985e-06
2.09874e-06
2.09893e-06
2.09909e-06
2.09918e-06
2.09923e-06
2.09921e-06
2.09914e-06
2.099e-06
2.09884e-06
2.09863e-06
2.09845e-06
2.09829e-06
2.09832e-06
2.09831e-06
2.09833e-06
2.0985e-06
2.09876e-06
2.09902e-06
2.09923e-06
2.09939e-06
2.09949e-06
2.09954e-06
2.09952e-06
2.09944e-06
2.0993e-06
2.09913e-06
2.0989e-06
2.09868e-06
2.09846e-06
2.09842e-06
2.09852e-06
2.09856e-06
2.09874e-06
2.09902e-06
2.0993e-06
2.09951e-06
2.09968e-06
2.09979e-06
2.09984e-06
2.09981e-06
2.09973e-06
2.09959e-06
2.09941e-06
2.09917e-06
2.09893e-06
2.09869e-06
2.09863e-06
2.09866e-06
2.09872e-06
2.09893e-06
2.09923e-06
2.09951e-06
2.09974e-06
2.09991e-06
2.10002e-06
2.10007e-06
2.10005e-06
2.09996e-06
2.09982e-06
2.09963e-06
2.09938e-06
2.09912e-06
2.09886e-06
2.09877e-06
2.0988e-06
2.09887e-06
2.09909e-06
2.09939e-06
2.09968e-06
2.09991e-06
2.10008e-06
2.10019e-06
2.10024e-06
2.10022e-06
2.10014e-06
2.09999e-06
2.0998e-06
2.09955e-06
2.09928e-06
2.09901e-06
2.09892e-06
2.09888e-06
2.09896e-06
2.09918e-06
2.09949e-06
2.09979e-06
2.10002e-06
2.10019e-06
2.10031e-06
2.10036e-06
2.10034e-06
2.10025e-06
2.1001e-06
2.0999e-06
2.09965e-06
2.09938e-06
2.0991e-06
2.099e-06
2.09893e-06
2.09901e-06
2.09923e-06
2.09954e-06
2.09984e-06
2.10007e-06
2.10024e-06
2.10036e-06
2.10041e-06
2.10039e-06
2.1003e-06
2.10015e-06
2.09995e-06
2.0997e-06
2.09942e-06
2.09915e-06
2.09904e-06
2.0989e-06
2.09898e-06
2.09921e-06
2.09952e-06
2.09981e-06
2.10005e-06
2.10022e-06
2.10034e-06
2.10039e-06
2.10036e-06
2.10028e-06
2.10013e-06
2.09993e-06
2.09968e-06
2.0994e-06
2.09912e-06
2.09902e-06
2.09885e-06
2.09892e-06
2.09914e-06
2.09944e-06
2.09973e-06
2.09996e-06
2.10014e-06
2.10025e-06
2.1003e-06
2.10028e-06
2.10019e-06
2.10005e-06
2.09985e-06
2.0996e-06
2.09933e-06
2.09906e-06
2.09896e-06
2.09872e-06
2.09878e-06
2.099e-06
2.0993e-06
2.09959e-06
2.09982e-06
2.09999e-06
2.1001e-06
2.10015e-06
2.10013e-06
2.10005e-06
2.0999e-06
2.0997e-06
2.09946e-06
2.09919e-06
2.09892e-06
2.09883e-06
2.0986e-06
2.09865e-06
2.09884e-06
2.09913e-06
2.09941e-06
2.09963e-06
2.0998e-06
2.0999e-06
2.09995e-06
2.09993e-06
2.09985e-06
2.0997e-06
2.09952e-06
2.09928e-06
2.09903e-06
2.09878e-06
2.09871e-06
2.09842e-06
2.09845e-06
2.09863e-06
2.0989e-06
2.09917e-06
2.09938e-06
2.09955e-06
2.09965e-06
2.0997e-06
2.09968e-06
2.0996e-06
2.09946e-06
2.09928e-06
2.09905e-06
2.09881e-06
2.09858e-06
2.09853e-06
2.09835e-06
2.09832e-06
2.09846e-06
2.09868e-06
2.09893e-06
2.09912e-06
2.09928e-06
2.09938e-06
2.09943e-06
2.0994e-06
2.09933e-06
2.09919e-06
2.09903e-06
2.09881e-06
2.09862e-06
2.09844e-06
2.09846e-06
2.09823e-06
2.09817e-06
2.09829e-06
2.09846e-06
2.09869e-06
2.09886e-06
2.09901e-06
2.0991e-06
2.09915e-06
2.09912e-06
2.09906e-06
2.09892e-06
2.09878e-06
2.09858e-06
2.09844e-06
2.09828e-06
2.09834e-06
2.09853e-06
2.09825e-06
2.09832e-06
2.09842e-06
2.09863e-06
2.09877e-06
2.09892e-06
2.099e-06
2.09904e-06
2.09902e-06
2.09896e-06
2.09883e-06
2.09871e-06
2.09853e-06
2.09846e-06
2.09834e-06
2.09862e-06
2.02374e-06
2.02376e-06
2.02411e-06
2.02447e-06
2.02487e-06
2.0252e-06
2.02546e-06
2.02563e-06
2.02571e-06
2.02567e-06
2.02553e-06
2.02529e-06
2.02499e-06
2.02462e-06
2.02428e-06
2.02387e-06
2.02383e-06
2.02376e-06
2.02395e-06
2.02434e-06
2.02477e-06
2.0252e-06
2.02556e-06
2.02585e-06
2.02602e-06
2.0261e-06
2.02606e-06
2.02592e-06
2.02566e-06
2.02534e-06
2.02493e-06
2.02453e-06
2.02409e-06
2.02385e-06
2.02411e-06
2.02434e-06
2.02474e-06
2.02522e-06
2.02568e-06
2.02607e-06
2.02636e-06
2.02655e-06
2.02664e-06
2.02659e-06
2.02644e-06
2.02617e-06
2.02583e-06
2.02539e-06
2.02494e-06
2.02448e-06
2.02421e-06
2.02447e-06
2.02477e-06
2.02521e-06
2.02573e-06
2.02623e-06
2.02663e-06
2.02694e-06
2.02714e-06
2.02723e-06
2.02718e-06
2.02702e-06
2.02675e-06
2.02638e-06
2.02592e-06
2.02543e-06
2.02492e-06
2.02457e-06
2.02487e-06
2.0252e-06
2.02568e-06
2.02623e-06
2.02674e-06
2.02716e-06
2.02748e-06
2.02768e-06
2.02777e-06
2.02772e-06
2.02756e-06
2.02728e-06
2.0269e-06
2.02642e-06
2.0259e-06
2.02537e-06
2.02497e-06
2.0252e-06
2.02556e-06
2.02606e-06
2.02663e-06
2.02716e-06
2.02759e-06
2.02792e-06
2.02812e-06
2.02821e-06
2.02817e-06
2.028e-06
2.02771e-06
2.02732e-06
2.02683e-06
2.02629e-06
2.02573e-06
2.0253e-06
2.02546e-06
2.02585e-06
2.02636e-06
2.02694e-06
2.02748e-06
2.02792e-06
2.02825e-06
2.02846e-06
2.02854e-06
2.0285e-06
2.02833e-06
2.02804e-06
2.02764e-06
2.02715e-06
2.02659e-06
2.02602e-06
2.02557e-06
2.02563e-06
2.02602e-06
2.02655e-06
2.02714e-06
2.02768e-06
2.02812e-06
2.02846e-06
2.02867e-06
2.02876e-06
2.02871e-06
2.02854e-06
2.02825e-06
2.02785e-06
2.02735e-06
2.02679e-06
2.0262e-06
2.02574e-06
2.02571e-06
2.0261e-06
2.02664e-06
2.02723e-06
2.02777e-06
2.02821e-06
2.02854e-06
2.02876e-06
2.02885e-06
2.0288e-06
2.02863e-06
2.02834e-06
2.02794e-06
2.02744e-06
2.02687e-06
2.02628e-06
2.02581e-06
2.02567e-06
2.02606e-06
2.02659e-06
2.02718e-06
2.02773e-06
2.02817e-06
2.0285e-06
2.02871e-06
2.0288e-06
2.02876e-06
2.02859e-06
2.02829e-06
2.02789e-06
2.02739e-06
2.02683e-06
2.02624e-06
2.02577e-06
2.02553e-06
2.02592e-06
2.02644e-06
2.02702e-06
2.02756e-06
2.028e-06
2.02833e-06
2.02854e-06
2.02863e-06
2.02859e-06
2.02841e-06
2.02812e-06
2.02772e-06
2.02723e-06
2.02667e-06
2.02609e-06
2.02564e-06
2.02529e-06
2.02566e-06
2.02617e-06
2.02675e-06
2.02728e-06
2.02771e-06
2.02804e-06
2.02825e-06
2.02834e-06
2.02829e-06
2.02812e-06
2.02783e-06
2.02744e-06
2.02695e-06
2.0264e-06
2.02583e-06
2.0254e-06
2.02499e-06
2.02534e-06
2.02583e-06
2.02638e-06
2.0269e-06
2.02732e-06
2.02764e-06
2.02785e-06
2.02794e-06
2.02789e-06
2.02772e-06
2.02744e-06
2.02706e-06
2.02658e-06
2.02605e-06
2.0255e-06
2.0251e-06
2.02462e-06
2.02493e-06
2.02539e-06
2.02592e-06
2.02642e-06
2.02684e-06
2.02715e-06
2.02735e-06
2.02744e-06
2.02739e-06
2.02723e-06
2.02695e-06
2.02658e-06
2.02612e-06
2.02561e-06
2.02509e-06
2.02472e-06
2.02429e-06
2.02453e-06
2.02494e-06
2.02543e-06
2.0259e-06
2.02629e-06
2.02659e-06
2.02679e-06
2.02687e-06
2.02683e-06
2.02667e-06
2.0264e-06
2.02605e-06
2.02561e-06
2.02514e-06
2.02468e-06
2.02438e-06
2.02387e-06
2.02409e-06
2.02449e-06
2.02493e-06
2.02537e-06
2.02573e-06
2.02602e-06
2.0262e-06
2.02628e-06
2.02624e-06
2.02609e-06
2.02583e-06
2.0255e-06
2.02509e-06
2.02468e-06
2.02423e-06
2.02397e-06
2.02383e-06
2.02385e-06
2.02421e-06
2.02457e-06
2.02497e-06
2.0253e-06
2.02557e-06
2.02574e-06
2.02581e-06
2.02577e-06
2.02564e-06
2.0254e-06
2.0251e-06
2.02472e-06
2.02438e-06
2.02397e-06
2.02392e-06
1.96786e-06
1.96916e-06
1.97041e-06
1.97151e-06
1.9725e-06
1.97324e-06
1.97378e-06
1.9741e-06
1.97423e-06
1.97415e-06
1.97387e-06
1.97337e-06
1.97268e-06
1.97172e-06
1.97061e-06
1.96923e-06
1.96785e-06
1.96916e-06
1.97032e-06
1.97152e-06
1.97263e-06
1.9736e-06
1.97435e-06
1.97488e-06
1.97521e-06
1.97534e-06
1.97525e-06
1.97497e-06
1.97448e-06
1.97378e-06
1.97284e-06
1.97171e-06
1.97038e-06
1.96916e-06
1.97041e-06
1.97152e-06
1.97265e-06
1.97372e-06
1.97467e-06
1.9754e-06
1.97592e-06
1.97625e-06
1.97637e-06
1.97629e-06
1.97601e-06
1.97552e-06
1.97484e-06
1.97393e-06
1.97283e-06
1.97157e-06
1.97041e-06
1.97151e-06
1.97263e-06
1.97372e-06
1.97478e-06
1.97569e-06
1.97641e-06
1.97693e-06
1.97725e-06
1.97737e-06
1.97729e-06
1.97702e-06
1.97654e-06
1.97586e-06
1.97497e-06
1.97389e-06
1.97268e-06
1.97151e-06
1.9725e-06
1.9736e-06
1.97467e-06
1.97569e-06
1.97659e-06
1.9773e-06
1.97781e-06
1.97813e-06
1.97825e-06
1.97817e-06
1.9779e-06
1.97743e-06
1.97676e-06
1.97589e-06
1.97483e-06
1.97365e-06
1.97249e-06
1.97324e-06
1.97435e-06
1.9754e-06
1.97641e-06
1.9773e-06
1.978e-06
1.97851e-06
1.97882e-06
1.97894e-06
1.97886e-06
1.97859e-06
1.97812e-06
1.97747e-06
1.9766e-06
1.97555e-06
1.97439e-06
1.97323e-06
1.97378e-06
1.97488e-06
1.97592e-06
1.97693e-06
1.97781e-06
1.97851e-06
1.97901e-06
1.97932e-06
1.97944e-06
1.97936e-06
1.97909e-06
1.97863e-06
1.97798e-06
1.97712e-06
1.97608e-06
1.97493e-06
1.97377e-06
1.9741e-06
1.97521e-06
1.97625e-06
1.97725e-06
1.97813e-06
1.97882e-06
1.97932e-06
1.97963e-06
1.97975e-06
1.97967e-06
1.9794e-06
1.97894e-06
1.97829e-06
1.97744e-06
1.9764e-06
1.97526e-06
1.9741e-06
1.97423e-06
1.97534e-06
1.97637e-06
1.97737e-06
1.97825e-06
1.97894e-06
1.97944e-06
1.97975e-06
1.97986e-06
1.97979e-06
1.97952e-06
1.97906e-06
1.97841e-06
1.97756e-06
1.97653e-06
1.97539e-06
1.97423e-06
1.97415e-06
1.97525e-06
1.97629e-06
1.97729e-06
1.97817e-06
1.97886e-06
1.97936e-06
1.97967e-06
1.97979e-06
1.97971e-06
1.97944e-06
1.97898e-06
1.97833e-06
1.97748e-06
1.97644e-06
1.9753e-06
1.97414e-06
1.97387e-06
1.97497e-06
1.97601e-06
1.97702e-06
1.9779e-06
1.97859e-06
1.97909e-06
1.9794e-06
1.97952e-06
1.97944e-06
1.97918e-06
1.97871e-06
1.97806e-06
1.97721e-06
1.97617e-06
1.97502e-06
1.97386e-06
1.97337e-06
1.97448e-06
1.97552e-06
1.97654e-06
1.97743e-06
1.97812e-06
1.97863e-06
1.97894e-06
1.97906e-06
1.97898e-06
1.97871e-06
1.97825e-06
1.97759e-06
1.97673e-06
1.97568e-06
1.97452e-06
1.97336e-06
1.97268e-06
1.97378e-06
1.97484e-06
1.97586e-06
1.97676e-06
1.97747e-06
1.97798e-06
1.97829e-06
1.97841e-06
1.97833e-06
1.97806e-06
1.97759e-06
1.97693e-06
1.97606e-06
1.975e-06
1.97383e-06
1.97267e-06
1.97172e-06
1.97284e-06
1.97393e-06
1.97497e-06
1.97589e-06
1.9766e-06
1.97712e-06
1.97744e-06
1.97756e-06
1.97748e-06
1.97721e-06
1.97673e-06
1.97606e-06
1.97517e-06
1.97409e-06
1.97289e-06
1.97172e-06
1.97061e-06
1.97171e-06
1.97283e-06
1.97389e-06
1.97483e-06
1.97555e-06
1.97608e-06
1.9764e-06
1.97653e-06
1.97645e-06
1.97617e-06
1.97568e-06
1.975e-06
1.97409e-06
1.973e-06
1.97176e-06
1.9706e-06
1.96923e-06
1.97038e-06
1.97157e-06
1.97268e-06
1.97365e-06
1.97439e-06
1.97493e-06
1.97526e-06
1.97539e-06
1.9753e-06
1.97502e-06
1.97452e-06
1.97383e-06
1.97289e-06
1.97176e-06
1.97044e-06
1.96923e-06
1.96785e-06
1.96916e-06
1.97041e-06
1.97151e-06
1.97249e-06
1.97323e-06
1.97377e-06
1.9741e-06
1.97423e-06
1.97414e-06
1.97386e-06
1.97336e-06
1.97267e-06
1.97171e-06
1.9706e-06
1.96923e-06
1.96784e-06
1.91388e-06
1.91607e-06
1.91804e-06
1.9199e-06
1.92148e-06
1.92266e-06
1.9235e-06
1.92401e-06
1.92421e-06
1.92408e-06
1.92363e-06
1.92285e-06
1.92175e-06
1.92025e-06
1.91838e-06
1.91623e-06
1.91389e-06
1.91607e-06
1.91789e-06
1.91982e-06
1.92164e-06
1.92319e-06
1.92435e-06
1.92518e-06
1.92568e-06
1.92587e-06
1.92575e-06
1.92531e-06
1.92454e-06
1.92346e-06
1.92199e-06
1.92016e-06
1.91804e-06
1.91608e-06
1.91804e-06
1.91982e-06
1.92167e-06
1.92343e-06
1.92491e-06
1.92603e-06
1.92683e-06
1.92732e-06
1.9275e-06
1.92738e-06
1.92696e-06
1.92622e-06
1.92517e-06
1.92376e-06
1.922e-06
1.91995e-06
1.91805e-06
1.9199e-06
1.92164e-06
1.92343e-06
1.92513e-06
1.92656e-06
1.92765e-06
1.92842e-06
1.92889e-06
1.92907e-06
1.92895e-06
1.92854e-06
1.92783e-06
1.92681e-06
1.92545e-06
1.92374e-06
1.92177e-06
1.91991e-06
1.92148e-06
1.92319e-06
1.92491e-06
1.92656e-06
1.92795e-06
1.92901e-06
1.92976e-06
1.93022e-06
1.93039e-06
1.93028e-06
1.92988e-06
1.92919e-06
1.9282e-06
1.92688e-06
1.92522e-06
1.92332e-06
1.9215e-06
1.92266e-06
1.92435e-06
1.92603e-06
1.92765e-06
1.92901e-06
1.93005e-06
1.93078e-06
1.93123e-06
1.9314e-06
1.93129e-06
1.9309e-06
1.93022e-06
1.92925e-06
1.92796e-06
1.92633e-06
1.92448e-06
1.92267e-06
1.9235e-06
1.92518e-06
1.92683e-06
1.92842e-06
1.92976e-06
1.93078e-06
1.9315e-06
1.93195e-06
1.93212e-06
1.93201e-06
1.93162e-06
1.93095e-06
1.93e-06
1.92873e-06
1.92713e-06
1.92531e-06
1.92352e-06
1.92401e-06
1.92568e-06
1.92732e-06
1.92889e-06
1.93022e-06
1.93123e-06
1.93195e-06
1.93239e-06
1.93255e-06
1.93244e-06
1.93206e-06
1.9314e-06
1.93045e-06
1.92919e-06
1.92761e-06
1.92581e-06
1.92403e-06
1.92421e-06
1.92587e-06
1.9275e-06
1.92907e-06
1.93039e-06
1.9314e-06
1.93212e-06
1.93255e-06
1.93272e-06
1.93261e-06
1.93223e-06
1.93157e-06
1.93063e-06
1.92937e-06
1.92779e-06
1.926e-06
1.92422e-06
1.92408e-06
1.92575e-06
1.92738e-06
1.92895e-06
1.93028e-06
1.93129e-06
1.93201e-06
1.93244e-06
1.93261e-06
1.9325e-06
1.93212e-06
1.93146e-06
1.93051e-06
1.92926e-06
1.92767e-06
1.92587e-06
1.92409e-06
1.92363e-06
1.92531e-06
1.92696e-06
1.92854e-06
1.92988e-06
1.9309e-06
1.93162e-06
1.93206e-06
1.93223e-06
1.93212e-06
1.93173e-06
1.93107e-06
1.93012e-06
1.92885e-06
1.92725e-06
1.92544e-06
1.92365e-06
1.92285e-06
1.92454e-06
1.92622e-06
1.92783e-06
1.92919e-06
1.93022e-06
1.93095e-06
1.9314e-06
1.93157e-06
1.93146e-06
1.93107e-06
1.93039e-06
1.92943e-06
1.92814e-06
1.92652e-06
1.92467e-06
1.92287e-06
1.92175e-06
1.92346e-06
1.92517e-06
1.92681e-06
1.9282e-06
1.92925e-06
1.93e-06
1.93045e-06
1.93063e-06
1.93051e-06
1.93012e-06
1.92943e-06
1.92844e-06
1.92713e-06
1.92548e-06
1.92359e-06
1.92177e-06
1.92025e-06
1.92199e-06
1.92376e-06
1.92545e-06
1.92688e-06
1.92796e-06
1.92873e-06
1.9292e-06
1.92937e-06
1.92926e-06
1.92885e-06
1.92814e-06
1.92713e-06
1.92578e-06
1.92408e-06
1.92212e-06
1.92026e-06
1.91838e-06
1.92016e-06
1.922e-06
1.92374e-06
1.92522e-06
1.92634e-06
1.92713e-06
1.92761e-06
1.92779e-06
1.92767e-06
1.92725e-06
1.92652e-06
1.92548e-06
1.92408e-06
1.92232e-06
1.92029e-06
1.9184e-06
1.91623e-06
1.91804e-06
1.91996e-06
1.92177e-06
1.92332e-06
1.92448e-06
1.92531e-06
1.92581e-06
1.926e-06
1.92587e-06
1.92544e-06
1.92467e-06
1.92359e-06
1.92212e-06
1.92029e-06
1.91819e-06
1.91625e-06
1.91389e-06
1.91608e-06
1.91805e-06
1.91991e-06
1.9215e-06
1.92267e-06
1.92352e-06
1.92403e-06
1.92422e-06
1.92409e-06
1.92365e-06
1.92287e-06
1.92177e-06
1.92026e-06
1.91839e-06
1.91624e-06
1.91389e-06
1.86148e-06
1.864e-06
1.86621e-06
1.86839e-06
1.87021e-06
1.87159e-06
1.87257e-06
1.87317e-06
1.8734e-06
1.87325e-06
1.87272e-06
1.87181e-06
1.87053e-06
1.86879e-06
1.86659e-06
1.86418e-06
1.86148e-06
1.864e-06
1.86607e-06
1.86827e-06
1.8704e-06
1.8722e-06
1.87357e-06
1.87455e-06
1.87514e-06
1.87537e-06
1.87522e-06
1.8747e-06
1.8738e-06
1.87252e-06
1.8708e-06
1.86865e-06
1.86624e-06
1.864e-06
1.86621e-06
1.86827e-06
1.87044e-06
1.8725e-06
1.87424e-06
1.87557e-06
1.87652e-06
1.87709e-06
1.87731e-06
1.87717e-06
1.87666e-06
1.87579e-06
1.87454e-06
1.87288e-06
1.87081e-06
1.86842e-06
1.86622e-06
1.86839e-06
1.8704e-06
1.87249e-06
1.8745e-06
1.87619e-06
1.87749e-06
1.87841e-06
1.87897e-06
1.87918e-06
1.87904e-06
1.87855e-06
1.8777e-06
1.87649e-06
1.87487e-06
1.87286e-06
1.87055e-06
1.8684e-06
1.87021e-06
1.8722e-06
1.87424e-06
1.87619e-06
1.87784e-06
1.87911e-06
1.88001e-06
1.88056e-06
1.88077e-06
1.88063e-06
1.88015e-06
1.87932e-06
1.87813e-06
1.87656e-06
1.8746e-06
1.87235e-06
1.87022e-06
1.87159e-06
1.87357e-06
1.87557e-06
1.87749e-06
1.87911e-06
1.88035e-06
1.88123e-06
1.88177e-06
1.88198e-06
1.88184e-06
1.88137e-06
1.88056e-06
1.87939e-06
1.87785e-06
1.87592e-06
1.87372e-06
1.8716e-06
1.87257e-06
1.87455e-06
1.87651e-06
1.87841e-06
1.88001e-06
1.88123e-06
1.88211e-06
1.88264e-06
1.88284e-06
1.88271e-06
1.88224e-06
1.88144e-06
1.88029e-06
1.87877e-06
1.87686e-06
1.8747e-06
1.87258e-06
1.87317e-06
1.87514e-06
1.87709e-06
1.87897e-06
1.88056e-06
1.88177e-06
1.88264e-06
1.88317e-06
1.88337e-06
1.88324e-06
1.88277e-06
1.88198e-06
1.88084e-06
1.87933e-06
1.87743e-06
1.87529e-06
1.87318e-06
1.8734e-06
1.87537e-06
1.87731e-06
1.87918e-06
1.88077e-06
1.88198e-06
1.88284e-06
1.88337e-06
1.88357e-06
1.88344e-06
1.88298e-06
1.88218e-06
1.88105e-06
1.87954e-06
1.87765e-06
1.87552e-06
1.87341e-06
1.87325e-06
1.87522e-06
1.87717e-06
1.87904e-06
1.88063e-06
1.88185e-06
1.88271e-06
1.88324e-06
1.88344e-06
1.88331e-06
1.88284e-06
1.88205e-06
1.88091e-06
1.8794e-06
1.87751e-06
1.87537e-06
1.87326e-06
1.87272e-06
1.8747e-06
1.87666e-06
1.87855e-06
1.88015e-06
1.88137e-06
1.88224e-06
1.88277e-06
1.88298e-06
1.88284e-06
1.88238e-06
1.88158e-06
1.88043e-06
1.87891e-06
1.87701e-06
1.87485e-06
1.87273e-06
1.87181e-06
1.8738e-06
1.87579e-06
1.8777e-06
1.87932e-06
1.88056e-06
1.88144e-06
1.88198e-06
1.88218e-06
1.88205e-06
1.88158e-06
1.88076e-06
1.8796e-06
1.87807e-06
1.87614e-06
1.87394e-06
1.87182e-06
1.87053e-06
1.87252e-06
1.87454e-06
1.87649e-06
1.87813e-06
1.8794e-06
1.88029e-06
1.88084e-06
1.88105e-06
1.88091e-06
1.88043e-06
1.8796e-06
1.87842e-06
1.87686e-06
1.8749e-06
1.87266e-06
1.87054e-06
1.86879e-06
1.8708e-06
1.87288e-06
1.87488e-06
1.87656e-06
1.87785e-06
1.87877e-06
1.87933e-06
1.87954e-06
1.8794e-06
1.87891e-06
1.87807e-06
1.87686e-06
1.87525e-06
1.87325e-06
1.87095e-06
1.8688e-06
1.86659e-06
1.86865e-06
1.87081e-06
1.87286e-06
1.8746e-06
1.87592e-06
1.87686e-06
1.87744e-06
1.87765e-06
1.87751e-06
1.87701e-06
1.87614e-06
1.8749e-06
1.87325e-06
1.87118e-06
1.86881e-06
1.8666e-06
1.86419e-06
1.86624e-06
1.86842e-06
1.87055e-06
1.87235e-06
1.87372e-06
1.8747e-06
1.87529e-06
1.87552e-06
1.87537e-06
1.87485e-06
1.87394e-06
1.87266e-06
1.87095e-06
1.86881e-06
1.86641e-06
1.8642e-06
1.86148e-06
1.864e-06
1.86622e-06
1.8684e-06
1.87022e-06
1.8716e-06
1.87259e-06
1.87318e-06
1.87341e-06
1.87326e-06
1.87273e-06
1.87182e-06
1.87054e-06
1.8688e-06
1.8666e-06
1.86419e-06
1.86149e-06
1.81321e-06
1.81582e-06
1.8181e-06
1.82039e-06
1.82228e-06
1.82372e-06
1.82476e-06
1.82538e-06
1.82562e-06
1.82546e-06
1.82491e-06
1.82395e-06
1.8226e-06
1.8208e-06
1.81847e-06
1.816e-06
1.8132e-06
1.81582e-06
1.81798e-06
1.82025e-06
1.82249e-06
1.82439e-06
1.82583e-06
1.82687e-06
1.8275e-06
1.82774e-06
1.82758e-06
1.82702e-06
1.82606e-06
1.82471e-06
1.8229e-06
1.82063e-06
1.81814e-06
1.81582e-06
1.8181e-06
1.82026e-06
1.82253e-06
1.82471e-06
1.82655e-06
1.82796e-06
1.82897e-06
1.82958e-06
1.82982e-06
1.82966e-06
1.82912e-06
1.82819e-06
1.82686e-06
1.8251e-06
1.8229e-06
1.8204e-06
1.81809e-06
1.82039e-06
1.82249e-06
1.82471e-06
1.82682e-06
1.82862e-06
1.83e-06
1.83099e-06
1.83159e-06
1.83182e-06
1.83167e-06
1.83114e-06
1.83023e-06
1.82893e-06
1.82721e-06
1.82507e-06
1.82263e-06
1.82039e-06
1.82228e-06
1.82439e-06
1.82655e-06
1.82862e-06
1.83039e-06
1.83174e-06
1.83271e-06
1.8333e-06
1.83352e-06
1.83337e-06
1.83285e-06
1.83196e-06
1.83069e-06
1.829e-06
1.8269e-06
1.82452e-06
1.82227e-06
1.82372e-06
1.82583e-06
1.82796e-06
1.83e-06
1.83174e-06
1.83308e-06
1.83403e-06
1.83461e-06
1.83484e-06
1.83469e-06
1.83418e-06
1.8333e-06
1.83204e-06
1.83038e-06
1.82831e-06
1.82597e-06
1.82372e-06
1.82476e-06
1.82687e-06
1.82897e-06
1.83099e-06
1.83271e-06
1.83403e-06
1.83497e-06
1.83555e-06
1.83577e-06
1.83562e-06
1.83512e-06
1.83424e-06
1.833e-06
1.83136e-06
1.82931e-06
1.827e-06
1.82475e-06
1.82538e-06
1.8275e-06
1.82958e-06
1.83159e-06
1.8333e-06
1.83462e-06
1.83555e-06
1.83612e-06
1.83634e-06
1.8362e-06
1.83569e-06
1.83483e-06
1.83359e-06
1.83196e-06
1.82992e-06
1.82763e-06
1.82538e-06
1.82562e-06
1.82774e-06
1.82981e-06
1.83182e-06
1.83352e-06
1.83484e-06
1.83577e-06
1.83634e-06
1.83656e-06
1.83641e-06
1.83591e-06
1.83505e-06
1.83381e-06
1.83219e-06
1.83016e-06
1.82787e-06
1.82562e-06
1.82546e-06
1.82758e-06
1.82966e-06
1.83167e-06
1.83337e-06
1.83469e-06
1.83562e-06
1.8362e-06
1.83641e-06
1.83627e-06
1.83576e-06
1.8349e-06
1.83367e-06
1.83204e-06
1.83e-06
1.82771e-06
1.82546e-06
1.82491e-06
1.82702e-06
1.82912e-06
1.83114e-06
1.83285e-06
1.83418e-06
1.83512e-06
1.83569e-06
1.83591e-06
1.83576e-06
1.83526e-06
1.83439e-06
1.83315e-06
1.83151e-06
1.82946e-06
1.82715e-06
1.8249e-06
1.82395e-06
1.82606e-06
1.82819e-06
1.83023e-06
1.83196e-06
1.8333e-06
1.83425e-06
1.83483e-06
1.83505e-06
1.8349e-06
1.83439e-06
1.83351e-06
1.83226e-06
1.8306e-06
1.82853e-06
1.8262e-06
1.82394e-06
1.8226e-06
1.82471e-06
1.82686e-06
1.82893e-06
1.83069e-06
1.83204e-06
1.833e-06
1.83359e-06
1.83381e-06
1.83367e-06
1.83315e-06
1.83226e-06
1.83099e-06
1.82931e-06
1.82722e-06
1.82484e-06
1.82259e-06
1.8208e-06
1.8229e-06
1.8251e-06
1.82721e-06
1.829e-06
1.83038e-06
1.83136e-06
1.83196e-06
1.83219e-06
1.83204e-06
1.83151e-06
1.8306e-06
1.82931e-06
1.82759e-06
1.82546e-06
1.82303e-06
1.82079e-06
1.81847e-06
1.82063e-06
1.82291e-06
1.82507e-06
1.82691e-06
1.82831e-06
1.82931e-06
1.82993e-06
1.83016e-06
1.83e-06
1.82946e-06
1.82854e-06
1.82722e-06
1.82546e-06
1.82327e-06
1.82078e-06
1.81846e-06
1.816e-06
1.81814e-06
1.8204e-06
1.82263e-06
1.82452e-06
1.82597e-06
1.827e-06
1.82763e-06
1.82787e-06
1.82771e-06
1.82716e-06
1.8262e-06
1.82484e-06
1.82304e-06
1.82077e-06
1.8183e-06
1.816e-06
1.8132e-06
1.81582e-06
1.81809e-06
1.82039e-06
1.82227e-06
1.82372e-06
1.82475e-06
1.82538e-06
1.82562e-06
1.82546e-06
1.8249e-06
1.82394e-06
1.82259e-06
1.82079e-06
1.81846e-06
1.816e-06
1.8132e-06
1.76891e-06
1.77144e-06
1.77365e-06
1.77593e-06
1.77778e-06
1.77921e-06
1.78024e-06
1.78087e-06
1.7811e-06
1.78094e-06
1.78039e-06
1.77944e-06
1.77809e-06
1.77633e-06
1.774e-06
1.77162e-06
1.7689e-06
1.77144e-06
1.77355e-06
1.77577e-06
1.778e-06
1.77987e-06
1.78132e-06
1.78235e-06
1.78299e-06
1.78323e-06
1.78306e-06
1.78251e-06
1.78155e-06
1.78018e-06
1.7784e-06
1.77614e-06
1.77371e-06
1.77143e-06
1.77365e-06
1.77577e-06
1.77803e-06
1.7802e-06
1.78204e-06
1.78346e-06
1.78447e-06
1.78509e-06
1.78532e-06
1.78517e-06
1.78462e-06
1.78368e-06
1.78235e-06
1.78059e-06
1.77839e-06
1.77592e-06
1.77364e-06
1.77593e-06
1.778e-06
1.7802e-06
1.78231e-06
1.78413e-06
1.78552e-06
1.78652e-06
1.78713e-06
1.78736e-06
1.7872e-06
1.78667e-06
1.78574e-06
1.78443e-06
1.7827e-06
1.78056e-06
1.77813e-06
1.77592e-06
1.77778e-06
1.77987e-06
1.78204e-06
1.78412e-06
1.78591e-06
1.78729e-06
1.78827e-06
1.78887e-06
1.7891e-06
1.78894e-06
1.78841e-06
1.7875e-06
1.78621e-06
1.78451e-06
1.78239e-06
1.78e-06
1.77777e-06
1.77921e-06
1.78132e-06
1.78346e-06
1.78552e-06
1.78729e-06
1.78865e-06
1.78962e-06
1.79021e-06
1.79044e-06
1.79029e-06
1.78976e-06
1.78886e-06
1.78758e-06
1.7859e-06
1.78381e-06
1.78145e-06
1.7792e-06
1.78024e-06
1.78235e-06
1.78447e-06
1.78652e-06
1.78827e-06
1.78962e-06
1.79058e-06
1.79117e-06
1.79139e-06
1.79124e-06
1.79072e-06
1.78983e-06
1.78856e-06
1.78689e-06
1.78482e-06
1.78248e-06
1.78023e-06
1.78087e-06
1.78299e-06
1.78509e-06
1.78713e-06
1.78887e-06
1.79021e-06
1.79117e-06
1.79175e-06
1.79198e-06
1.79183e-06
1.79131e-06
1.79042e-06
1.78916e-06
1.7875e-06
1.78543e-06
1.78311e-06
1.78086e-06
1.7811e-06
1.78323e-06
1.78532e-06
1.78736e-06
1.7891e-06
1.79044e-06
1.79139e-06
1.79198e-06
1.7922e-06
1.79205e-06
1.79153e-06
1.79065e-06
1.78939e-06
1.78773e-06
1.78567e-06
1.78335e-06
1.7811e-06
1.78094e-06
1.78306e-06
1.78517e-06
1.7872e-06
1.78894e-06
1.79029e-06
1.79124e-06
1.79183e-06
1.79205e-06
1.7919e-06
1.79138e-06
1.7905e-06
1.78924e-06
1.78757e-06
1.78551e-06
1.78319e-06
1.78093e-06
1.78039e-06
1.78251e-06
1.78462e-06
1.78666e-06
1.78841e-06
1.78976e-06
1.79072e-06
1.79131e-06
1.79153e-06
1.79138e-06
1.79086e-06
1.78997e-06
1.78871e-06
1.78704e-06
1.78496e-06
1.78264e-06
1.78038e-06
1.77944e-06
1.78155e-06
1.78368e-06
1.78574e-06
1.7875e-06
1.78886e-06
1.78983e-06
1.79042e-06
1.79065e-06
1.7905e-06
1.78997e-06
1.78908e-06
1.7878e-06
1.78612e-06
1.78403e-06
1.78167e-06
1.77943e-06
1.77809e-06
1.78018e-06
1.78235e-06
1.78443e-06
1.78621e-06
1.78758e-06
1.78856e-06
1.78916e-06
1.78939e-06
1.78924e-06
1.78871e-06
1.7878e-06
1.78651e-06
1.78481e-06
1.7827e-06
1.78031e-06
1.77808e-06
1.77633e-06
1.7784e-06
1.78059e-06
1.7827e-06
1.78451e-06
1.7859e-06
1.78689e-06
1.7875e-06
1.78773e-06
1.78758e-06
1.78704e-06
1.78612e-06
1.78481e-06
1.78309e-06
1.78095e-06
1.77853e-06
1.77632e-06
1.77401e-06
1.77614e-06
1.7784e-06
1.78056e-06
1.78239e-06
1.78381e-06
1.78482e-06
1.78543e-06
1.78567e-06
1.78551e-06
1.78497e-06
1.78403e-06
1.7827e-06
1.78095e-06
1.77876e-06
1.77628e-06
1.774e-06
1.77162e-06
1.77371e-06
1.77592e-06
1.77813e-06
1.78e-06
1.78145e-06
1.78248e-06
1.78311e-06
1.78336e-06
1.78319e-06
1.78264e-06
1.78168e-06
1.78031e-06
1.77853e-06
1.77628e-06
1.77386e-06
1.77161e-06
1.7689e-06
1.77143e-06
1.77364e-06
1.77592e-06
1.77777e-06
1.7792e-06
1.78023e-06
1.78086e-06
1.7811e-06
1.78093e-06
1.78038e-06
1.77943e-06
1.77808e-06
1.77632e-06
1.774e-06
1.77161e-06
1.76889e-06
1.72795e-06
1.73029e-06
1.73234e-06
1.73449e-06
1.73622e-06
1.73759e-06
1.73856e-06
1.73915e-06
1.73938e-06
1.73923e-06
1.7387e-06
1.7378e-06
1.73651e-06
1.73487e-06
1.73267e-06
1.73045e-06
1.72795e-06
1.73029e-06
1.73226e-06
1.73433e-06
1.73643e-06
1.7382e-06
1.73958e-06
1.74057e-06
1.74117e-06
1.7414e-06
1.74125e-06
1.74071e-06
1.7398e-06
1.7385e-06
1.73681e-06
1.73467e-06
1.73241e-06
1.73028e-06
1.73234e-06
1.73433e-06
1.73646e-06
1.73852e-06
1.74027e-06
1.74163e-06
1.7426e-06
1.74319e-06
1.74342e-06
1.74327e-06
1.74274e-06
1.74184e-06
1.74056e-06
1.73889e-06
1.7368e-06
1.73447e-06
1.73233e-06
1.73449e-06
1.73643e-06
1.73852e-06
1.74053e-06
1.74227e-06
1.74361e-06
1.74457e-06
1.74516e-06
1.74538e-06
1.74523e-06
1.74471e-06
1.74382e-06
1.74256e-06
1.7409e-06
1.73886e-06
1.73656e-06
1.73448e-06
1.73622e-06
1.7382e-06
1.74027e-06
1.74227e-06
1.74399e-06
1.74531e-06
1.74626e-06
1.74685e-06
1.74707e-06
1.74692e-06
1.74641e-06
1.74552e-06
1.74427e-06
1.74263e-06
1.74061e-06
1.73832e-06
1.73621e-06
1.73759e-06
1.73958e-06
1.74163e-06
1.74361e-06
1.74531e-06
1.74663e-06
1.74758e-06
1.74816e-06
1.74837e-06
1.74823e-06
1.74772e-06
1.74684e-06
1.7456e-06
1.74397e-06
1.74196e-06
1.7397e-06
1.73758e-06
1.73856e-06
1.74057e-06
1.7426e-06
1.74457e-06
1.74626e-06
1.74758e-06
1.74851e-06
1.74909e-06
1.74931e-06
1.74916e-06
1.74865e-06
1.74778e-06
1.74655e-06
1.74493e-06
1.74293e-06
1.74069e-06
1.73855e-06
1.73915e-06
1.74117e-06
1.74319e-06
1.74516e-06
1.74685e-06
1.74816e-06
1.74909e-06
1.74966e-06
1.74988e-06
1.74973e-06
1.74923e-06
1.74836e-06
1.74713e-06
1.74552e-06
1.74352e-06
1.74129e-06
1.73914e-06
1.73938e-06
1.7414e-06
1.74342e-06
1.74538e-06
1.74707e-06
1.74837e-06
1.74931e-06
1.74988e-06
1.7501e-06
1.74995e-06
1.74945e-06
1.74858e-06
1.74735e-06
1.74574e-06
1.74375e-06
1.74152e-06
1.73937e-06
1.73922e-06
1.74125e-06
1.74327e-06
1.74523e-06
1.74692e-06
1.74823e-06
1.74916e-06
1.74974e-06
1.74995e-06
1.74981e-06
1.7493e-06
1.74843e-06
1.74721e-06
1.74559e-06
1.7436e-06
1.74137e-06
1.73922e-06
1.7387e-06
1.74071e-06
1.74274e-06
1.74471e-06
1.74641e-06
1.74772e-06
1.74865e-06
1.74923e-06
1.74945e-06
1.7493e-06
1.74879e-06
1.74792e-06
1.74669e-06
1.74507e-06
1.74307e-06
1.74084e-06
1.73869e-06
1.7378e-06
1.7398e-06
1.74184e-06
1.74382e-06
1.74552e-06
1.74684e-06
1.74778e-06
1.74836e-06
1.74858e-06
1.74843e-06
1.74792e-06
1.74705e-06
1.74581e-06
1.74418e-06
1.74218e-06
1.73992e-06
1.73779e-06
1.73651e-06
1.7385e-06
1.74056e-06
1.74256e-06
1.74427e-06
1.7456e-06
1.74655e-06
1.74713e-06
1.74735e-06
1.74721e-06
1.74669e-06
1.74581e-06
1.74456e-06
1.74292e-06
1.7409e-06
1.73862e-06
1.7365e-06
1.73487e-06
1.73681e-06
1.73889e-06
1.7409e-06
1.74263e-06
1.74397e-06
1.74493e-06
1.74552e-06
1.74574e-06
1.74559e-06
1.74507e-06
1.74418e-06
1.74292e-06
1.74127e-06
1.73923e-06
1.73694e-06
1.73486e-06
1.73267e-06
1.73467e-06
1.7368e-06
1.73886e-06
1.74061e-06
1.74196e-06
1.74293e-06
1.74352e-06
1.74375e-06
1.7436e-06
1.74307e-06
1.74218e-06
1.7409e-06
1.73923e-06
1.73715e-06
1.73481e-06
1.73266e-06
1.73045e-06
1.73241e-06
1.73447e-06
1.73656e-06
1.73832e-06
1.7397e-06
1.74069e-06
1.7413e-06
1.74153e-06
1.74137e-06
1.74084e-06
1.73992e-06
1.73862e-06
1.73694e-06
1.73481e-06
1.73255e-06
1.73045e-06
1.72795e-06
1.73028e-06
1.73233e-06
1.73448e-06
1.73621e-06
1.73758e-06
1.73855e-06
1.73914e-06
1.73937e-06
1.73922e-06
1.73869e-06
1.73779e-06
1.7365e-06
1.73486e-06
1.73266e-06
1.73045e-06
1.72794e-06
1.68991e-06
1.69201e-06
1.69386e-06
1.69583e-06
1.6974e-06
1.69865e-06
1.69954e-06
1.70009e-06
1.7003e-06
1.70015e-06
1.69967e-06
1.69885e-06
1.69766e-06
1.69617e-06
1.69416e-06
1.69216e-06
1.6899e-06
1.69201e-06
1.6938e-06
1.69568e-06
1.6976e-06
1.69921e-06
1.70049e-06
1.7014e-06
1.70195e-06
1.70217e-06
1.70202e-06
1.70153e-06
1.70069e-06
1.69948e-06
1.69795e-06
1.69598e-06
1.69393e-06
1.692e-06
1.69386e-06
1.69568e-06
1.69762e-06
1.69951e-06
1.70112e-06
1.70238e-06
1.70328e-06
1.70383e-06
1.70404e-06
1.70389e-06
1.70341e-06
1.70257e-06
1.70139e-06
1.69985e-06
1.69793e-06
1.6958e-06
1.69385e-06
1.69583e-06
1.6976e-06
1.69951e-06
1.70136e-06
1.70297e-06
1.70422e-06
1.70511e-06
1.70566e-06
1.70587e-06
1.70573e-06
1.70524e-06
1.70441e-06
1.70324e-06
1.70171e-06
1.69982e-06
1.69771e-06
1.69582e-06
1.6974e-06
1.69921e-06
1.70112e-06
1.70297e-06
1.70456e-06
1.7058e-06
1.70669e-06
1.70724e-06
1.70745e-06
1.70731e-06
1.70682e-06
1.706e-06
1.70483e-06
1.70331e-06
1.70143e-06
1.69932e-06
1.69739e-06
1.69865e-06
1.70049e-06
1.70238e-06
1.70421e-06
1.7058e-06
1.70704e-06
1.70792e-06
1.70847e-06
1.70867e-06
1.70853e-06
1.70805e-06
1.70723e-06
1.70607e-06
1.70455e-06
1.70268e-06
1.7006e-06
1.69864e-06
1.69954e-06
1.70139e-06
1.70327e-06
1.70511e-06
1.70669e-06
1.70792e-06
1.7088e-06
1.70934e-06
1.70955e-06
1.70941e-06
1.70893e-06
1.70812e-06
1.70696e-06
1.70544e-06
1.70358e-06
1.70151e-06
1.69953e-06
1.70009e-06
1.70195e-06
1.70383e-06
1.70566e-06
1.70724e-06
1.70847e-06
1.70934e-06
1.70989e-06
1.71009e-06
1.70995e-06
1.70947e-06
1.70866e-06
1.7075e-06
1.70599e-06
1.70413e-06
1.70206e-06
1.70008e-06
1.7003e-06
1.70217e-06
1.70404e-06
1.70587e-06
1.70745e-06
1.70867e-06
1.70955e-06
1.71009e-06
1.71029e-06
1.71016e-06
1.70968e-06
1.70887e-06
1.70771e-06
1.7062e-06
1.70434e-06
1.70228e-06
1.70029e-06
1.70015e-06
1.70202e-06
1.70389e-06
1.70573e-06
1.70731e-06
1.70853e-06