/*--------------------------------*- C++ -*----------------------------------*\
  =========                 |
  \\      /  F ield         | OpenFOAM: The Open Source CFD Toolbox
   \\    /   O peration     | Website:  https://openfoam.org
    \\  /    A nd           | Version:  6
     \\/     M anipulation  |
\*---------------------------------------------------------------------------*/
FoamFile
{
    version     2.0;
    format      ascii;
    class       volScalarField;
    location    "0";
    object      p_rgh;
}
// * * * * * * * * * * * * * * * * * * * * * * * * * * * * * * * * * * * * * //

dimensions      [0 2 -2 0 0 0 0];

internalField   nonuniform List<scalar> 
10000
(
0.00492604
0.00492675
0.00492665
0.00492518
0.00492185
0.00491627
0.0049082
0.00489757
0.00488445
0.00486911
0.0048519
0.00483329
0.00481377
0.00479384
0.00477398
0.00475459
0.00473601
0.00471856
0.0047025
0.00468796
0.00467501
0.00466365
0.00465387
0.00464559
0.00463874
0.00463321
0.00462891
0.00462572
0.00462352
0.0046222
0.00462167
0.00462182
0.00462256
0.00462381
0.00462549
0.00462752
0.00462985
0.00463242
0.00463519
0.0046381
0.00464113
0.00464424
0.00464739
0.00465058
0.00465376
0.00465693
0.00466007
0.00466316
0.0046662
0.00466916
0.00467205
0.00467485
0.00467755
0.00468016
0.00468266
0.00468505
0.00468733
0.0046895
0.00469155
0.00469348
0.00469529
0.00469698
0.00469855
0.00469999
0.00470131
0.00470251
0.00470358
0.00470453
0.00470535
0.00470605
0.00470661
0.00470704
0.00470732
0.00470746
0.00470744
0.00470725
0.00470687
0.00470629
0.00470546
0.00470437
0.00470296
0.00470118
0.00469894
0.00469617
0.00469273
0.0046885
0.0046833
0.00467694
0.00466919
0.0046598
0.00464851
0.00463508
0.00461929
0.00460098
0.00458019
0.00455735
0.00453348
0.00451047
0.00449201
0.00448263
0.00492465
0.00492467
0.00492374
0.00492148
0.00491753
0.0049115
0.00490316
0.00489242
0.00487936
0.00486421
0.00484732
0.00482912
0.00481009
0.0047907
0.00477142
0.00475263
0.00473467
0.00471775
0.00470214
0.00468805
0.00467552
0.00466455
0.00465509
0.00464709
0.00464046
0.00463512
0.00463095
0.00462785
0.00462571
0.00462443
0.0046239
0.00462403
0.00462473
0.00462591
0.00462752
0.00462947
0.00463171
0.00463419
0.00463686
0.00463968
0.0046426
0.00464561
0.00464867
0.00465176
0.00465485
0.00465793
0.00466098
0.00466399
0.00466695
0.00466984
0.00467265
0.00467538
0.00467802
0.00468056
0.00468301
0.00468535
0.00468758
0.0046897
0.00469171
0.00469359
0.00469537
0.00469702
0.00469855
0.00469996
0.00470125
0.00470241
0.00470345
0.00470437
0.00470516
0.00470582
0.00470634
0.00470673
0.00470698
0.00470707
0.004707
0.00470675
0.00470631
0.00470566
0.00470476
0.00470358
0.00470208
0.00470019
0.00469786
0.00469498
0.00469145
0.00468715
0.00468192
0.00467558
0.00466793
0.00465877
0.00464786
0.00463499
0.00461998
0.00460268
0.00458313
0.00456158
0.00453861
0.00451542
0.0044948
0.00447982
0.00492408
0.00492337
0.00492165
0.00491864
0.00491404
0.00490746
0.00489866
0.00488757
0.00487425
0.00485894
0.00484198
0.00482382
0.00480492
0.00478577
0.00476679
0.00474839
0.0047309
0.00471453
0.00469941
0.00468577
0.00467369
0.00466315
0.00465411
0.00464649
0.00464022
0.00463518
0.00463129
0.00462842
0.00462648
0.00462535
0.00462495
0.00462517
0.00462594
0.00462717
0.0046288
0.00463076
0.00463299
0.00463544
0.00463808
0.00464085
0.00464373
0.00464668
0.00464969
0.00465271
0.00465575
0.00465876
0.00466176
0.00466471
0.0046676
0.00467043
0.00467319
0.00467587
0.00467846
0.00468096
0.00468336
0.00468566
0.00468785
0.00468993
0.0046919
0.00469376
0.0046955
0.00469712
0.00469862
0.0047
0.00470126
0.0047024
0.00470341
0.0047043
0.00470506
0.00470569
0.00470619
0.00470655
0.00470676
0.00470682
0.00470672
0.00470643
0.00470595
0.00470526
0.00470432
0.0047031
0.00470156
0.00469964
0.00469728
0.0046944
0.00469089
0.00468663
0.00468149
0.0046753
0.00466787
0.00465902
0.00464852
0.00463616
0.00462173
0.00460505
0.00458596
0.00456433
0.00454026
0.00451417
0.00448793
0.00446389
0.00492449
0.00492268
0.0049199
0.00491589
0.00491034
0.00490287
0.00489325
0.00488138
0.00486738
0.00485149
0.00483408
0.0048156
0.00479653
0.00477735
0.00475849
0.00474034
0.00472322
0.0047074
0.00469291
0.00467984
0.00466835
0.00465842
0.00464997
0.00464293
0.0046372
0.00463268
0.00462926
0.00462683
0.00462527
0.00462449
0.00462439
0.00462488
0.00462586
0.00462728
0.00462906
0.00463113
0.00463346
0.00463599
0.00463867
0.00464148
0.00464437
0.00464733
0.00465033
0.00465335
0.00465636
0.00465936
0.00466233
0.00466525
0.00466811
0.00467092
0.00467364
0.00467629
0.00467885
0.00468132
0.00468369
0.00468596
0.00468812
0.00469018
0.00469212
0.00469395
0.00469567
0.00469727
0.00469875
0.0047001
0.00470133
0.00470244
0.00470343
0.0047043
0.00470504
0.00470564
0.00470612
0.00470645
0.00470665
0.00470668
0.00470655
0.00470625
0.00470575
0.00470504
0.00470409
0.00470287
0.00470134
0.00469945
0.00469713
0.00469431
0.00469089
0.00468677
0.0046818
0.00467583
0.00466867
0.00466013
0.00464996
0.00463792
0.00462373
0.00460702
0.00458735
0.00456417
0.00453705
0.00450577
0.00447158
0.00443685
0.00492579
0.00492236
0.00491802
0.00491253
0.00490556
0.00489672
0.00488578
0.00487268
0.00485755
0.00484067
0.00482244
0.00480334
0.00478385
0.00476446
0.00474559
0.00472763
0.00471086
0.00469552
0.00468174
0.00466949
0.00465878
0.00464965
0.00464201
0.00463576
0.00463081
0.00462703
0.00462431
0.00462253
0.00462158
0.00462135
0.00462175
0.00462269
0.00462407
0.00462584
0.00462792
0.00463026
0.00463281
0.00463553
0.00463837
0.00464131
0.00464431
0.00464736
0.00465043
0.0046535
0.00465655
0.00465958
0.00466256
0.0046655
0.00466837
0.00467118
0.00467391
0.00467655
0.0046791
0.00468156
0.00468392
0.00468618
0.00468833
0.00469038
0.00469231
0.00469412
0.00469583
0.00469741
0.00469887
0.00470022
0.00470143
0.00470252
0.00470349
0.00470433
0.00470505
0.00470564
0.0047061
0.00470641
0.00470659
0.00470661
0.00470647
0.00470616
0.00470566
0.00470495
0.00470401
0.00470281
0.00470132
0.00469948
0.00469723
0.00469452
0.00469123
0.00468727
0.00468249
0.00467674
0.00466981
0.00466149
0.00465148
0.00463947
0.00462503
0.00460759
0.00458636
0.0045604
0.00452877
0.00449079
0.00444734
0.00440115
0.00492783
0.00492222
0.00491578
0.00490827
0.00489934
0.00488859
0.00487582
0.00486099
0.00484428
0.00482601
0.00480662
0.0047866
0.00476646
0.00474669
0.0047277
0.00470986
0.00469343
0.00467862
0.00466554
0.00465419
0.00464447
0.00463634
0.00462972
0.00462449
0.00462053
0.00461773
0.00461594
0.00461505
0.00461493
0.00461548
0.00461659
0.00461818
0.00462017
0.00462247
0.00462503
0.0046278
0.00463073
0.00463378
0.00463691
0.0046401
0.00464332
0.00464655
0.00464977
0.00465298
0.00465615
0.00465927
0.00466234
0.00466534
0.00466827
0.00467112
0.00467388
0.00467656
0.00467914
0.00468162
0.004684
0.00468627
0.00468843
0.00469048
0.00469241
0.00469423
0.00469593
0.00469751
0.00469897
0.0047003
0.00470152
0.0047026
0.00470355
0.00470438
0.00470508
0.00470566
0.0047061
0.0047064
0.00470656
0.00470658
0.00470643
0.00470612
0.00470563
0.00470494
0.00470402
0.00470287
0.00470143
0.00469966
0.00469752
0.00469492
0.00469178
0.00468798
0.00468339
0.00467781
0.00467103
0.00466278
0.00465271
0.00464038
0.0046252
0.00460634
0.00458268
0.00455292
0.00451569
0.00447001
0.00441664
0.00435882
0.00493047
0.00492218
0.0049131
0.00490301
0.00489157
0.00487838
0.00486327
0.00484625
0.00482753
0.0048075
0.00478662
0.00476544
0.00474445
0.00472416
0.00470495
0.00468718
0.00467108
0.0046568
0.00464445
0.00463403
0.00462542
0.00461847
0.00461304
0.00460901
0.00460625
0.00460462
0.00460397
0.00460417
0.0046051
0.00460663
0.00460866
0.00461111
0.00461388
0.0046169
0.00462012
0.00462349
0.00462695
0.00463048
0.00463404
0.00463761
0.00464117
0.0046447
0.00464819
0.00465162
0.00465499
0.00465829
0.0046615
0.00466464
0.00466768
0.00467063
0.00467348
0.00467623
0.00467888
0.00468141
0.00468384
0.00468615
0.00468834
0.00469042
0.00469238
0.00469421
0.00469593
0.00469752
0.00469898
0.00470033
0.00470154
0.00470263
0.00470358
0.0047044
0.00470509
0.00470566
0.00470609
0.00470639
0.00470655
0.00470656
0.00470641
0.00470611
0.00470563
0.00470496
0.00470409
0.00470298
0.0047016
0.00469993
0.00469789
0.00469541
0.00469241
0.00468877
0.00468431
0.00467885
0.00467213
0.00466379
0.00465342
0.00464045
0.00462404
0.00460315
0.00457637
0.00454202
0.00449841
0.00444442
0.00438089
0.00431164
0.00493367
0.0049222
0.00490997
0.0048968
0.00488233
0.0048662
0.00484828
0.00482864
0.00480754
0.00478542
0.00476281
0.00474024
0.00471826
0.00469733
0.00467785
0.00466011
0.00464433
0.00463061
0.00461902
0.00460953
0.00460207
0.00459639
0.00459227
0.00458958
0.00458816
0.00458786
0.00458851
0.00458997
0.0045921
0.00459479
0.00459791
0.00460137
0.0046051
0.00460901
0.00461305
0.00461717
0.00462133
0.00462548
0.00462961
0.0046337
0.00463772
0.00464166
0.00464552
0.00464928
0.00465294
0.0046565
0.00465995
0.00466329
0.00466651
0.00466962
0.00467261
0.00467548
0.00467824
0.00468087
0.00468337
0.00468576
0.00468801
0.00469014
0.00469215
0.00469402
0.00469577
0.00469739
0.00469888
0.00470024
0.00470147
0.00470257
0.00470354
0.00470435
0.00470505
0.00470561
0.00470604
0.00470634
0.00470649
0.00470651
0.00470637
0.00470608
0.00470562
0.00470498
0.00470415
0.0047031
0.00470179
0.0047002
0.00469827
0.00469591
0.00469304
0.00468952
0.00468517
0.00467975
0.00467296
0.00466439
0.00465349
0.00463955
0.00462152
0.00459811
0.00456763
0.0045281
0.00447758
0.00441495
0.00434129
0.00426098
0.00493742
0.00492234
0.00490651
0.00488977
0.0048718
0.00485229
0.00483114
0.0048085
0.00478471
0.00476025
0.00473568
0.00471159
0.00468851
0.00466689
0.0046471
0.0046294
0.00461395
0.00460083
0.00459003
0.00458149
0.00457518
0.00457079
0.00456804
0.00456676
0.00456676
0.00456787
0.00456992
0.00457275
0.00457621
0.00458016
0.00458449
0.00458911
0.00459392
0.00459885
0.00460384
0.00460884
0.00461382
0.00461873
0.00462355
0.00462827
0.00463287
0.00463734
0.00464167
0.00464586
0.00464991
0.00465381
0.00465757
0.00466119
0.00466466
0.00466799
0.00467118
0.00467423
0.00467714
0.00467991
0.00468254
0.00468503
0.00468738
0.00468959
0.00469167
0.00469361
0.00469541
0.00469708
0.0046986
0.0047
0.00470125
0.00470238
0.00470337
0.00470421
0.00470491
0.00470547
0.00470591
0.00470621
0.00470637
0.00470639
0.00470627
0.00470599
0.00470556
0.00470495
0.00470416
0.00470317
0.00470193
0.00470043
0.00469859
0.00469634
0.00469358
0.00469015
0.00468585
0.00468041
0.00467345
0.00466449
0.00465285
0.00463766
0.00461767
0.00459134
0.00455673
0.00451158
0.00445382
0.00438242
0.0042988
0.00420788
0.00494178
0.00492269
0.00490284
0.00488211
0.00486022
0.00483692
0.00481218
0.00478623
0.00475948
0.00473248
0.00470584
0.00468014
0.00465593
0.00463362
0.00461354
0.00459592
0.00458085
0.00456836
0.0045584
0.00455087
0.00454563
0.00454251
0.00454117
0.00454131
0.00454276
0.00454532
0.0045488
0.00455304
0.00455787
0.00456315
0.00456877
0.0045746
0.00458058
0.00458661
0.00459264
0.00459862
0.00460451
0.00461027
0.00461588
0.00462133
0.00462661
0.0046317
0.0046366
0.00464131
0.00464583
0.00465016
0.00465431
0.00465828
0.00466207
0.00466568
0.00466913
0.00467241
0.00467552
0.00467847
0.00468126
0.0046839
0.00468638
0.00468871
0.00469088
0.00469291
0.00469479
0.00469652
0.0046981
0.00469954
0.00470084
0.004702
0.00470302
0.0047039
0.00470462
0.0047052
0.00470565
0.00470596
0.00470613
0.00470617
0.00470606
0.0047058
0.00470539
0.00470482
0.00470407
0.00470313
0.00470197
0.00470054
0.00469879
0.00469663
0.00469395
0.00469058
0.00468628
0.00468074
0.00467352
0.00466403
0.00465148
0.00463479
0.00461257
0.004583
0.00454391
0.00449285
0.00442765
0.00434749
0.00425417
0.0041531
0.00494683
0.00492336
0.0048991
0.00487399
0.0048478
0.00482036
0.00479172
0.00476221
0.00473231
0.00470265
0.00467387
0.00464656
0.00462124
0.0045983
0.00457802
0.00456056
0.00454595
0.00453416
0.00452509
0.00451859
0.00451447
0.0045126
0.0045126
0.00451414
0.004517
0.00452099
0.00452589
0.00453152
0.00453771
0.00454432
0.00455122
0.0045583
0.00456546
0.00457263
0.00457974
0.00458674
0.00459359
0.00460027
0.00460674
0.00461299
0.00461901
0.00462479
0.00463033
0.00463564
0.0046407
0.00464553
0.00465014
0.00465452
0.00465869
0.00466264
0.0046664
0.00466996
0.00467332
0.0046765
0.0046795
0.00468231
0.00468496
0.00468743
0.00468973
0.00469187
0.00469385
0.00469567
0.00469733
0.00469883
0.00470019
0.00470139
0.00470245
0.00470337
0.00470413
0.00470473
0.0047052
0.00470553
0.00470572
0.00470577
0.00470567
0.00470544
0.00470506
0.00470452
0.00470381
0.00470292
0.00470182
0.00470046
0.00469879
0.00469671
0.00469409
0.00469074
0.0046864
0.0046807
0.00467312
0.00466299
0.00464937
0.00463098
0.00460628
0.00457324
0.00452942
0.00447224
0.00439952
0.00431069
0.00420796
0.00409719
0.00495268
0.00492447
0.00489546
0.00486561
0.00483479
0.00480289
0.00477009
0.00473682
0.00470366
0.00467129
0.00464037
0.00461151
0.00458518
0.00456174
0.00454138
0.00452419
0.00451016
0.00449917
0.00449107
0.00448564
0.00448267
0.00448201
0.00448331
0.00448617
0.00449038
0.00449572
0.00450197
0.00450893
0.00451643
0.00452432
0.00453245
0.00454073
0.00454905
0.00455733
0.00456551
0.00457354
0.00458137
0.00458898
0.00459633
0.00460341
0.00461022
0.00461674
0.00462297
0.00462891
0.00463457
0.00463996
0.00464507
0.00464992
0.00465451
0.00465886
0.00466298
0.00466686
0.00467052
0.00467396
0.0046772
0.00468023
0.00468307
0.00468571
0.00468817
0.00469045
0.00469255
0.00469447
0.00469622
0.00469781
0.00469923
0.00470049
0.0047016
0.00470255
0.00470336
0.00470401
0.0047045
0.00470485
0.00470506
0.00470513
0.00470506
0.00470485
0.00470449
0.00470398
0.00470332
0.00470248
0.00470143
0.00470013
0.00469852
0.00469649
0.00469391
0.00469055
0.00468612
0.0046802
0.00467219
0.00466131
0.00464648
0.00462627
0.00459891
0.00456218
0.00451345
0.00445002
0.00436978
0.00427241
0.00416057
0.00404051
0.00495945
0.00492618
0.00489206
0.00485716
0.00482139
0.00478478
0.00474763
0.00471047
0.00467398
0.00463891
0.00460593
0.00457564
0.00454845
0.00452467
0.0045044
0.00448766
0.00447434
0.00446427
0.00445721
0.00445292
0.00445112
0.00445165
0.00445417
0.00445829
0.00446377
0.00447037
0.00447787
0.00448605
0.00449475
0.00450381
0.00451309
0.00452248
0.00453189
0.00454122
0.00455042
0.00455943
0.00456821
0.00457672
0.00458494
0.00459285
0.00460045
0.00460771
0.00461465
0.00462126
0.00462755
0.00463351
0.00463917
0.00464452
0.00464958
0.00465436
0.00465886
0.00466311
0.00466709
0.00467084
0.00467434
0.00467762
0.00468068
0.00468352
0.00468616
0.00468859
0.00469083
0.00469287
0.00469473
0.00469641
0.00469791
0.00469924
0.00470041
0.00470141
0.00470226
0.00470296
0.00470349
0.00470387
0.0047041
0.00470419
0.00470414
0.00470395
0.00470362
0.00470315
0.00470252
0.00470171
0.00470071
0.00469947
0.0046979
0.00469592
0.00469334
0.00468994
0.00468538
0.00467918
0.00467067
0.00465894
0.00464277
0.00462062
0.00459048
0.00454992
0.00449617
0.00442643
0.0043387
0.00423296
0.00411231
0.00398332
0.00496727
0.0049286
0.00488909
0.00484882
0.00480784
0.0047663
0.00472464
0.00468352
0.00464372
0.00460603
0.00457112
0.00453957
0.00451173
0.00448781
0.00446785
0.00445174
0.00443929
0.00443026
0.00442434
0.00442124
0.00442063
0.00442233
0.00442602
0.00443132
0.00443796
0.00444571
0.00445432
0.0044636
0.00447336
0.00448346
0.00449376
0.00450415
0.00451452
0.0045248
0.00453493
0.00454484
0.00455449
0.00456385
0.00457289
0.0045816
0.00458996
0.00459795
0.00460559
0.00461286
0.00461977
0.00462633
0.00463254
0.00463841
0.00464395
0.00464918
0.0046541
0.00465872
0.00466306
0.00466713
0.00467093
0.00467447
0.00467777
0.00468083
0.00468366
0.00468627
0.00468866
0.00469084
0.00469282
0.0046946
0.00469619
0.0046976
0.00469883
0.00469989
0.00470078
0.00470152
0.00470209
0.00470251
0.00470277
0.00470288
0.00470286
0.00470269
0.00470238
0.00470193
0.00470133
0.00470057
0.0046996
0.0046984
0.00469687
0.0046949
0.00469231
0.00468884
0.00468411
0.00467758
0.00466851
0.00465587
0.00463827
0.00461407
0.00458104
0.00453656
0.0044777
0.00440164
0.0043065
0.00419258
0.00406339
0.0039258
0.00497627
0.0049319
0.00488669
0.00484079
0.00479437
0.00474774
0.00470148
0.00465639
0.00461334
0.00457314
0.0045365
0.00450391
0.00447566
0.00445184
0.0044324
0.00441712
0.00440571
0.00439785
0.00439317
0.00439131
0.00439192
0.00439476
0.00439955
0.00440594
0.00441364
0.00442239
0.00443198
0.00444221
0.00445288
0.00446387
0.00447504
0.00448627
0.00449747
0.00450857
0.0045195
0.0045302
0.00454063
0.00455075
0.00456054
0.00456997
0.00457903
0.00458771
0.004596
0.0046039
0.00461142
0.00461855
0.00462531
0.00463169
0.00463772
0.0046434
0.00464875
0.00465376
0.00465846
0.00466286
0.00466696
0.00467079
0.00467434
0.00467762
0.00468066
0.00468345
0.004686
0.00468833
0.00469044
0.00469233
0.00469402
0.00469551
0.00469681
0.00469792
0.00469886
0.00469963
0.00470025
0.0047007
0.00470099
0.00470113
0.00470113
0.00470098
0.0047007
0.00470027
0.0046997
0.00469896
0.00469803
0.00469685
0.00469534
0.00469338
0.00469076
0.00468719
0.00468225
0.00467535
0.00466566
0.00465202
0.00463298
0.00460663
0.00457062
0.00452214
0.00445814
0.00437578
0.00427334
0.00415143
0.00401396
0.00386805
0.00498657
0.00493622
0.00488503
0.00483326
0.00478122
0.00472937
0.00467847
0.00462945
0.00458326
0.00454075
0.00450259
0.00446921
0.00444081
0.00441735
0.00439865
0.0043844
0.00437421
0.00436764
0.00436428
0.0043637
0.00436554
0.00436949
0.00437531
0.00438271
0.00439134
0.00440098
0.00441139
0.0044224
0.00443383
0.00444553
0.0044574
0.00446932
0.0044812
0.00449296
0.00450455
0.00451591
0.004527
0.00453777
0.0045482
0.00455826
0.00456795
0.00457724
0.00458613
0.00459461
0.00460269
0.00461036
0.00461763
0.00462451
0.00463101
0.00463712
0.00464288
0.00464828
0.00465334
0.00465807
0.00466248
0.00466658
0.00467038
0.0046739
0.00467714
0.00468012
0.00468284
0.00468532
0.00468755
0.00468956
0.00469135
0.00469292
0.00469429
0.00469546
0.00469645
0.00469726
0.0046979
0.00469838
0.0046987
0.00469887
0.00469888
0.00469876
0.0046985
0.00469809
0.00469754
0.00469683
0.00469592
0.00469476
0.00469327
0.00469129
0.00468861
0.00468492
0.00467974
0.00467243
0.00466207
0.00464737
0.00462682
0.00459829
0.00455925
0.00450674
0.00443759
0.00434898
0.00423935
0.00410964
0.00396413
0.00381015
0.00499827
0.00494167
0.00488428
0.00482643
0.00476862
0.00471147
0.00465594
0.00460307
0.0045539
0.0045093
0.00446987
0.00443598
0.00440768
0.00438484
0.00436712
0.00435409
0.00434525
0.00434009
0.0043381
0.00433884
0.00434191
0.00434693
0.00435373
0.00436202
0.00437147
0.00438184
0.00439294
0.00440456
0.00441657
0.00442884
0.00444123
0.00445367
0.00446607
0.00447835
0.00449045
0.00450233
0.00451393
0.00452523
0.00453619
0.00454678
0.00455699
0.00456681
0.00457621
0.0045852
0.00459378
0.00460193
0.00460967
0.004617
0.00462392
0.00463045
0.00463659
0.00464236
0.00464776
0.0046528
0.0046575
0.00466188
0.00466593
0.00466967
0.00467312
0.00467628
0.00467916
0.00468178
0.00468414
0.00468626
0.00468814
0.00468979
0.00469123
0.00469246
0.00469349
0.00469433
0.00469499
0.0046955
0.00469585
0.00469603
0.00469607
0.00469597
0.00469572
0.00469534
0.00469481
0.00469411
0.00469323
0.00469208
0.00469058
0.00468858
0.00468583
0.00468199
0.00467655
0.00466879
0.0046577
0.00464194
0.00461981
0.00458905
0.00454694
0.00449038
0.0044161
0.00432132
0.00420464
0.00406732
0.00391399
0.00375216
0.00501148
0.00494839
0.00488457
0.00482048
0.00475679
0.00469432
0.0046342
0.00457761
0.00452565
0.00447918
0.00443875
0.00440461
0.0043767
0.00435471
0.00433818
0.00432654
0.00431918
0.0043155
0.00431494
0.004317
0.00432126
0.00432733
0.00433503
0.00434411
0.00435425
0.00436522
0.00437684
0.00438894
0.00440137
0.00441403
0.0044268
0.0044396
0.00445235
0.00446499
0.00447746
0.00448972
0.0045017
0.00451339
0.00452476
0.00453576
0.00454639
0.00455663
0.00456646
0.00457587
0.00458486
0.00459343
0.00460157
0.0046093
0.0046166
0.00462349
0.00462998
0.00463607
0.00464178
0.00464712
0.00465209
0.00465671
0.00466099
0.00466494
0.00466858
0.00467191
0.00467494
0.0046777
0.00468018
0.00468239
0.00468436
0.00468609
0.00468758
0.00468886
0.00468993
0.0046908
0.00469149
0.00469201
0.00469237
0.00469258
0.00469263
0.00469255
0.00469232
0.00469195
0.00469144
0.00469077
0.0046899
0.00468876
0.00468725
0.00468521
0.00468237
0.00467836
0.00467262
0.00466438
0.00465253
0.00463568
0.00461193
0.00457891
0.00453373
0.00447311
0.00439375
0.00429286
0.00416927
0.00402453
0.00386358
0.00369413
0.00502628
0.00495648
0.00488605
0.00481558
0.00474593
0.00467815
0.00461353
0.00455337
0.00449882
0.00445073
0.00440956
0.00437544
0.00434815
0.00432723
0.00431207
0.00430195
0.00429617
0.00429403
0.00429491
0.00429829
0.0043037
0.00431076
0.00431928
0.00432904
0.00433974
0.00435119
0.0043632
0.00437562
0.00438833
0.00440123
0.00441423
0.00442725
0.00444021
0.00445307
0.00446577
0.00447825
0.00449049
0.00450245
0.00451409
0.00452539
0.00453633
0.00454688
0.00455703
0.00456677
0.0045761
0.004585
0.00459347
0.00460152
0.00460914
0.00461634
0.00462312
0.00462949
0.00463547
0.00464106
0.00464627
0.0046511
0.00465559
0.00465972
0.00466352
0.004667
0.00467017
0.00467304
0.00467563
0.00467793
0.00467998
0.00468177
0.00468332
0.00468463
0.00468574
0.00468663
0.00468734
0.00468786
0.00468823
0.00468845
0.00468853
0.00468845
0.00468824
0.0046879
0.00468741
0.00468675
0.00468589
0.00468476
0.00468324
0.00468115
0.00467821
0.00467401
0.00466796
0.0046592
0.00464657
0.00462858
0.0046032
0.0045679
0.00451962
0.00445497
0.00437056
0.00426368
0.00413332
0.00398133
0.00381297
0.00363608
0.00504271
0.00496601
0.00488883
0.00481188
0.00473624
0.00466318
0.00459415
0.00453059
0.00447367
0.00442419
0.00438253
0.00434866
0.00432221
0.00430254
0.00428889
0.0042804
0.00427625
0.00427567
0.00427799
0.00428263
0.00428914
0.00429711
0.00430637
0.00431671
0.00432787
0.00433967
0.00435194
0.00436456
0.00437743
0.00439045
0.00440354
0.00441664
0.00442969
0.00444264
0.00445544
0.00446804
0.0044804
0.0044925
0.0045043
0.00451578
0.00452691
0.00453767
0.00454805
0.00455802
0.00456759
0.00457673
0.00458545
0.00459375
0.00460161
0.00460905
0.00461607
0.00462267
0.00462887
0.00463466
0.00464006
0.00464508
0.00464973
0.00465402
0.00465796
0.00466156
0.00466484
0.00466781
0.00467047
0.00467285
0.00467495
0.00467679
0.00467838
0.00467973
0.00468086
0.00468177
0.00468249
0.00468303
0.0046834
0.00468363
0.00468371
0.00468366
0.00468347
0.00468314
0.00468267
0.00468204
0.0046812
0.00468007
0.00467854
0.00467639
0.00467334
0.00466893
0.00466254
0.00465323
0.00463982
0.00462067
0.00459363
0.00455602
0.00450465
0.00443599
0.0043466
0.00423383
0.00409684
0.00393779
0.0037622
0.00357807
0.0050608
0.00497706
0.00489299
0.00480949
0.00472786
0.00464957
0.00457627
0.00450948
0.00445038
0.00439973
0.00435779
0.00432437
0.00429893
0.00428066
0.00426861
0.00426181
0.00425932
0.00426028
0.00426399
0.00426984
0.00427736
0.00428616
0.00429606
0.00430688
0.0043184
0.00433044
0.00434287
0.00435559
0.00436851
0.00438154
0.00439463
0.00440771
0.00442074
0.00443366
0.00444645
0.00445905
0.00447143
0.00448357
0.00449543
0.00450698
0.0045182
0.00452906
0.00453956
0.00454967
0.00455938
0.00456869
0.00457757
0.00458603
0.00459407
0.00460168
0.00460887
0.00461564
0.00462199
0.00462794
0.00463348
0.00463864
0.00464341
0.00464781
0.00465185
0.00465555
0.00465891
0.00466195
0.00466468
0.00466711
0.00466925
0.00467113
0.00467274
0.00467412
0.00467526
0.00467619
0.00467692
0.00467746
0.00467783
0.00467806
0.00467816
0.00467813
0.00467796
0.00467766
0.00467722
0.00467662
0.0046758
0.00467468
0.00467312
0.00467092
0.00466775
0.00466312
0.00465636
0.0046465
0.00463228
0.00461194
0.00458323
0.00454331
0.00448885
0.00441621
0.00432191
0.00420334
0.00405987
0.00389393
0.0037113
0.00352012
0.00508056
0.00498965
0.00489861
0.00480851
0.0047209
0.00463746
0.00456001
0.00449014
0.00442905
0.00437742
0.00433538
0.00430257
0.00427826
0.00426147
0.00425108
0.00424597
0.00424512
0.00424757
0.00425258
0.00425956
0.00426801
0.00427756
0.00428801
0.00429922
0.00431099
0.00432319
0.0043357
0.00434843
0.00436131
0.00437428
0.00438727
0.00440025
0.00441318
0.004426
0.00443868
0.0044512
0.00446351
0.00447559
0.0044874
0.00449893
0.00451015
0.00452103
0.00453156
0.00454171
0.00455148
0.00456086
0.00456982
0.00457838
0.00458651
0.00459422
0.00460151
0.00460838
0.00461483
0.00462087
0.00462651
0.00463175
0.0046366
0.00464108
0.00464519
0.00464894
0.00465236
0.00465544
0.0046582
0.00466066
0.00466283
0.00466473
0.00466636
0.00466775
0.0046689
0.00466984
0.00467057
0.00467112
0.00467151
0.00467174
0.00467186
0.00467185
0.00467171
0.00467144
0.00467104
0.00467047
0.00466968
0.00466857
0.00466701
0.00466475
0.00466145
0.0046566
0.00464944
0.00463903
0.00462398
0.00460244
0.00457204
0.00452979
0.00447225
0.00439567
0.00429652
0.00417227
0.00402247
0.00384981
0.00366032
0.00346227
0.00510195
0.00500378
0.0049057
0.00480899
0.00471543
0.00462693
0.00454544
0.00447265
0.00440972
0.00435726
0.00431524
0.00428314
0.00426004
0.00424474
0.00423602
0.00423254
0.00423329
0.0042372
0.00424345
0.00425143
0.00426068
0.00427084
0.00428174
0.00429325
0.00430521
0.00431749
0.00433002
0.00434273
0.00435552
0.00436836
0.0043812
0.00439402
0.00440677
0.00441942
0.00443194
0.0044443
0.00445646
0.0044684
0.0044801
0.00449153
0.00450266
0.00451347
0.00452395
0.00453407
0.00454382
0.00455319
0.00456216
0.00457072
0.00457888
0.00458662
0.00459394
0.00460085
0.00460734
0.00461342
0.0046191
0.00462438
0.00462927
0.00463377
0.00463791
0.00464169
0.00464512
0.00464822
0.004651
0.00465347
0.00465565
0.00465755
0.00465918
0.00466057
0.00466173
0.00466268
0.00466342
0.00466399
0.00466439
0.00466464
0.00466478
0.0046648
0.0046647
0.00466448
0.00466412
0.0046636
0.00466285
0.00466177
0.00466019
0.00465788
0.00465445
0.00464935
0.00464183
0.00463084
0.00461495
0.00459219
0.00456008
0.00451551
0.00445489
0.00437441
0.00427048
0.00414065
0.00398466
0.00380545
0.0036093
0.00340457
0.00512493
0.00501943
0.00491428
0.00481095
0.00471148
0.004618
0.00453259
0.00445699
0.00439235
0.00433915
0.00429724
0.00426589
0.00424399
0.00423017
0.00422312
0.00422134
0.00422354
0.00422872
0.00423604
0.00424486
0.00425479
0.00426547
0.00427674
0.00428849
0.00430058
0.00431291
0.00432541
0.00433802
0.00435067
0.00436334
0.004376
0.00438864
0.0044012
0.00441364
0.00442594
0.00443809
0.00445005
0.0044618
0.00447332
0.00448458
0.00449556
0.00450624
0.0045166
0.00452661
0.00453627
0.00454556
0.00455447
0.00456298
0.00457109
0.00457879
0.00458609
0.00459297
0.00459945
0.00460552
0.00461118
0.00461645
0.00462133
0.00462583
0.00462996
0.00463373
0.00463715
0.00464024
0.00464301
0.00464547
0.00464764
0.00464954
0.00465117
0.00465256
0.00465373
0.00465468
0.00465544
0.00465602
0.00465645
0.00465674
0.00465691
0.00465697
0.00465693
0.00465677
0.00465647
0.00465601
0.00465531
0.00465426
0.00465269
0.00465033
0.00464677
0.00464142
0.00463353
0.00462197
0.00460522
0.00458123
0.00454739
0.00450048
0.00443682
0.00435246
0.00424382
0.00410853
0.0039465
0.00376091
0.00355827
0.00334705
0.00514943
0.00503655
0.0049243
0.00481438
0.00470905
0.00461066
0.00452142
0.00444311
0.00437683
0.00432296
0.00428117
0.00425056
0.00422982
0.0042176
0.00421213
0.00421187
0.00421532
0.00422154
0.00422973
0.00423929
0.00424981
0.00426095
0.00427255
0.00428449
0.00429668
0.00430902
0.00432146
0.00433394
0.00434644
0.00435893
0.00437137
0.00438377
0.00439607
0.00440825
0.00442032
0.00443225
0.00444398
0.0044555
0.0044668
0.00447785
0.00448862
0.00449912
0.0045093
0.00451915
0.00452866
0.00453781
0.00454659
0.00455499
0.004563
0.00457061
0.00457783
0.00458464
0.00459104
0.00459705
0.00460266
0.00460787
0.0046127
0.00461716
0.00462125
0.00462498
0.00462837
0.00463143
0.00463417
0.00463661
0.00463877
0.00464065
0.00464228
0.00464366
0.00464483
0.0046458
0.00464658
0.0046472
0.00464767
0.00464801
0.00464823
0.00464836
0.00464838
0.0046483
0.00464808
0.0046477
0.00464707
0.00464607
0.00464452
0.00464211
0.00463842
0.00463286
0.00462459
0.00461245
0.00459482
0.00456958
0.004534
0.00448477
0.00441806
0.00432987
0.0042166
0.00407595
0.00390801
0.00371622
0.00350727
0.00328976
0.00517535
0.00505508
0.00493572
0.00481923
0.0047081
0.00460486
0.00451187
0.0044309
0.00436302
0.00430848
0.00426678
0.00423686
0.00421744
0.00420671
0.00420258
0.00420345
0.00420796
0.0042151
0.00422408
0.00423429
0.00424532
0.00425685
0.00426872
0.00428083
0.00429309
0.00430543
0.00431779
0.00433014
0.00434247
0.00435474
0.00436695
0.00437908
0.00439111
0.00440303
0.00441481
0.00442644
0.00443789
0.00444915
0.00446022
0.00447103
0.00448158
0.00449184
0.00450181
0.00451145
0.00452077
0.00452974
0.00453835
0.00454659
0.00455445
0.00456192
0.00456901
0.0045757
0.00458199
0.00458789
0.00459341
0.00459854
0.00460329
0.00460767
0.00461169
0.00461537
0.00461871
0.00462172
0.00462442
0.00462683
0.00462896
0.00463083
0.00463245
0.00463384
0.00463502
0.00463602
0.00463684
0.0046375
0.00463803
0.00463843
0.00463873
0.00463894
0.00463905
0.00463907
0.00463896
0.00463867
0.00463814
0.00463721
0.00463568
0.00463325
0.00462945
0.00462367
0.00461503
0.0046023
0.00458379
0.00455728
0.00451996
0.00446839
0.00439865
0.00430667
0.00418884
0.00404295
0.00386925
0.00367142
0.00345636
0.00323275
0.00520258
0.00507491
0.00494847
0.00482543
0.00470854
0.00460051
0.00450381
0.00442022
0.00435074
0.00429549
0.0042538
0.00422471
0.00420655
0.00419687
0.00419379
0.00419564
0.00420107
0.00420901
0.00421866
0.00422943
0.0042409
0.00425276
0.00426486
0.00427712
0.00428942
0.00430173
0.004314
0.00432622
0.00433836
0.00435042
0.00436238
0.00437424
0.00438599
0.0043976
0.00440908
0.00442041
0.00443156
0.00444253
0.00445329
0.00446381
0.0044741
0.00448413
0.00449385
0.00450327
0.00451236
0.00452112
0.00452952
0.00453757
0.00454524
0.00455254
0.00455946
0.004566
0.00457215
0.00457792
0.00458331
0.00458833
0.00459298
0.00459726
0.0046012
0.0046048
0.00460807
0.00461103
0.00461369
0.00461606
0.00461817
0.00462002
0.00462164
0.00462305
0.00462426
0.00462529
0.00462616
0.00462689
0.0046275
0.004628
0.0046284
0.0046287
0.00462893
0.00462907
0.00462909
0.00462893
0.0046285
0.00462767
0.00462619
0.00462375
0.00461986
0.00461388
0.00460488
0.00459155
0.00457214
0.00454437