/*--------------------------------*- C++ -*----------------------------------*\
  =========                 |
  \\      /  F ield         | OpenFOAM: The Open Source CFD Toolbox
   \\    /   O peration     | Website:  https://openfoam.org
    \\  /    A nd           | Version:  6
     \\/     M anipulation  |
\*---------------------------------------------------------------------------*/
FoamFile
{
    version     2.0;
    format      ascii;
    class       volVectorField;
    location    "0";
    object      U;
}
// * * * * * * * * * * * * * * * * * * * * * * * * * * * * * * * * * * * * * //

dimensions      [0 1 -1 0 0 0 0];

internalField   nonuniform List<vector> 
10000
(
(4.44309e-07 -1.38959e-06 0)
(7.64795e-05 -1.60891e-05 0)
(0.000239095 -2.92878e-05 0)
(0.000469041 -3.97068e-05 0)
(0.000751635 -4.72755e-05 0)
(0.00107139 -5.18264e-05 0)
(0.00141218 -5.32284e-05 0)
(0.00175796 -5.15379e-05 0)
(0.00209373 -4.70755e-05 0)
(0.00240642 -4.03886e-05 0)
(0.00268557 -3.21603e-05 0)
(0.00292358 -2.31101e-05 0)
(0.0031158 -1.39132e-05 0)
(0.0032603 -5.1494e-06 0)
(0.00335758 2.70962e-06 0)
(0.00341017 9.27911e-06 0)
(0.00342211 1.43746e-05 0)
(0.0033993 1.87151e-05 0)
(0.00334496 2.2482e-05 0)
(0.00326371 2.51205e-05 0)
(0.00316038 2.6728e-05 0)
(0.0030395 2.75082e-05 0)
(0.00290521 2.76257e-05 0)
(0.0027612 2.72229e-05 0)
(0.00261072 2.64215e-05 0)
(0.0024566 2.53244e-05 0)
(0.00230123 2.40206e-05 0)
(0.00214662 2.25822e-05 0)
(0.00199443 2.10671e-05 0)
(0.00184598 1.95242e-05 0)
(0.00170233 1.79907e-05 0)
(0.00156425 1.6492e-05 0)
(0.00143234 1.50475e-05 0)
(0.00130699 1.36727e-05 0)
(0.00118844 1.23754e-05 0)
(0.00107682 1.11572e-05 0)
(0.000972167 1.00201e-05 0)
(0.00087442 8.96465e-06 0)
(0.000783476 7.98707e-06 0)
(0.000699176 7.08221e-06 0)
(0.000621329 6.24578e-06 0)
(0.000549719 5.47473e-06 0)
(0.000484118 4.76433e-06 0)
(0.000424279 4.10847e-06 0)
(0.000369949 3.50303e-06 0)
(0.00032087 2.94526e-06 0)
(0.000276784 2.43214e-06 0)
(0.000237432 1.96011e-06 0)
(0.000202554 1.52556e-06 0)
(0.000171893 1.12583e-06 0)
(0.000145197 7.5958e-07 0)
(0.000122219 4.25055e-07 0)
(0.00010272 1.19524e-07 0)
(8.64674e-05 -1.59588e-07 0)
(7.32384e-05 -4.14254e-07 0)
(6.28221e-05 -6.46157e-07 0)
(5.50209e-05 -8.5705e-07 0)
(4.9652e-05 -1.04941e-06 0)
(4.65488e-05 -1.22654e-06 0)
(4.55618e-05 -1.39159e-06 0)
(4.65653e-05 -1.54367e-06 0)
(4.94419e-05 -1.68186e-06 0)
(5.40909e-05 -1.80936e-06 0)
(6.04203e-05 -1.9297e-06 0)
(6.83586e-05 -2.04622e-06 0)
(7.78615e-05 -2.16286e-06 0)
(8.89143e-05 -2.28385e-06 0)
(0.000101534 -2.4133e-06 0)
(0.00011577 -2.55567e-06 0)
(0.000131708 -2.71627e-06 0)
(0.000149471 -2.90125e-06 0)
(0.000169228 -3.11761e-06 0)
(0.000191197 -3.37378e-06 0)
(0.000215656 -3.68026e-06 0)
(0.000242949 -4.05015e-06 0)
(0.000273501 -4.49987e-06 0)
(0.00030783 -5.04987e-06 0)
(0.000346562 -5.72521e-06 0)
(0.00039044 -6.55562e-06 0)
(0.000440338 -7.57529e-06 0)
(0.000497254 -8.82241e-06 0)
(0.000562304 -1.03373e-05 0)
(0.000636678 -1.21586e-05 0)
(0.000721578 -1.43159e-05 0)
(0.000818098 -1.68211e-05 0)
(0.000927048 -1.9655e-05 0)
(0.00104871 -2.27511e-05 0)
(0.0011825 -2.59745e-05 0)
(0.00132653 -2.90993e-05 0)
(0.00147713 -3.17814e-05 0)
(0.0016282 -3.3524e-05 0)
(0.00177052 -3.36172e-05 0)
(0.00189091 -3.10488e-05 0)
(0.00197072 -2.42737e-05 0)
(0.00198494 -1.11332e-05 0)
(0.00189953 1.20338e-05 0)
(0.00167298 4.84176e-05 0)
(0.00126959 9.66463e-05 0)
(0.000705746 0.000140961 0)
(0.000142242 0.000133926 0)
(1.39947e-05 -7.71981e-05 0)
(0.000223441 -0.000236449 0)
(0.000616962 -0.000375812 0)
(0.00115663 -0.000488234 0)
(0.00181036 -0.000572452 0)
(0.00254553 -0.000627168 0)
(0.00332864 -0.000651994 0)
(0.00412716 -0.000648062 0)
(0.00491104 -0.000618154 0)
(0.00565403 -0.000566391 0)
(0.0063345 -0.000497716 0)
(0.00693588 -0.000417374 0)
(0.00744667 -0.000330471 0)
(0.00786013 -0.000241672 0)
(0.00817391 -0.000155051 0)
(0.00838942 -7.40349e-05 0)
(0.00851128 -1.39788e-06 0)
(0.00854642 6.22529e-05 0)
(0.00850685 0.00011804 0)
(0.00839898 0.000165752 0)
(0.00823201 0.000204933 0)
(0.00801485 0.000236066 0)
(0.00775607 0.00025983 0)
(0.00746378 0.000276969 0)
(0.00714549 0.000288256 0)
(0.00680809 0.000294456 0)
(0.00645772 0.000296307 0)
(0.00609983 0.000294506 0)
(0.00573918 0.000289694 0)
(0.0053798 0.000282452 0)
(0.00502515 0.000273297 0)
(0.00467804 0.000262683 0)
(0.0043408 0.000250996 0)
(0.00401524 0.000238565 0)
(0.00370277 0.000225667 0)
(0.00340446 0.000212526 0)
(0.00312102 0.000199324 0)
(0.00285294 0.000186204 0)
(0.00260047 0.000173281 0)
(0.00236369 0.00016064 0)
(0.00214252 0.000148348 0)
(0.00193676 0.000136454 0)
(0.00174612 0.000124994 0)
(0.00157022 0.000113991 0)
(0.00140862 0.000103463 0)
(0.00126084 9.34234e-05 0)
(0.00112635 8.38773e-05 0)
(0.00100459 7.48266e-05 0)
(0.000894979 6.62703e-05 0)
(0.000796931 5.82039e-05 0)
(0.000709843 5.06207e-05 0)
(0.000633114 4.35109e-05 0)
(0.000566147 3.68603e-05 0)
(0.000508353 3.06519e-05 0)
(0.00045916 2.48664e-05 0)
(0.000418021 1.94812e-05 0)
(0.000384413 1.447e-05 0)
(0.000357846 9.80263e-06 0)
(0.000337866 5.44514e-06 0)
(0.000324065 1.35968e-06 0)
(0.000316075 -2.49021e-06 0)
(0.000313604 -6.13001e-06 0)
(0.000316385 -9.57353e-06 0)
(0.000324161 -1.28524e-05 0)
(0.00033672 -1.60184e-05 0)
(0.000353914 -1.91234e-05 0)
(0.000375667 -2.22248e-05 0)
(0.000401979 -2.53851e-05 0)
(0.000432932 -2.86712e-05 0)
(0.000468696 -3.21555e-05 0)
(0.000509532 -3.59173e-05 0)
(0.000555807 -4.00468e-05 0)
(0.000608001 -4.4647e-05 0)
(0.000666723 -4.98374e-05 0)
(0.000732731 -5.5757e-05 0)
(0.000806943 -6.25679e-05 0)
(0.000890465 -7.04554e-05 0)
(0.000984599 -7.96261e-05 0)
(0.00109086 -9.03021e-05 0)
(0.00121096 -0.000102709 0)
(0.00134679 -0.000117052 0)
(0.00150033 -0.000133484 0)
(0.00167358 -0.000152047 0)
(0.00186828 -0.000172599 0)
(0.0020857 -0.000194715 0)
(0.00232617 -0.000217561 0)
(0.00258853 -0.000239748 0)
(0.0028694 -0.000259173 0)
(0.00316229 -0.000272857 0)
(0.00345661 -0.000276788 0)
(0.00373642 -0.000265754 0)
(0.00397925 -0.000233133 0)
(0.00415481 -0.000170548 0)
(0.00422285 -6.74699e-05 0)
(0.00413416 9.01657e-05 0)
(0.00382466 0.000315233 0)
(0.00323723 0.000603538 0)
(0.00234163 0.000904231 0)
(0.00121998 0.00106053 0)
(0.000186589 0.000726481 0)
(2.21335e-05 -0.000224344 0)
(0.000322498 -0.000617343 0)
(0.000866421 -0.000949026 0)
(0.00160125 -0.0012164 0)
(0.00248373 -0.00141734 0)
(0.0034717 -0.0015498 0)
(0.00452303 -0.001614 0)
(0.00559784 -0.00161336 0)
(0.0066599 -0.00155438 0)
(0.0076778 -0.00144592 0)
(0.0086255 -0.00129822 0)
(0.00948251 -0.00112197 0)
(0.0102338 -0.000927558 0)
(0.0108692 -0.000724588 0)
(0.0113835 -0.000521539 0)
(0.0117751 -0.000325661 0)
(0.0120461 -0.000142997 0)
(0.0122002 2.16135e-05 0)
(0.0122476 0.000167291 0)
(0.0121995 0.000295148 0)
(0.0120652 0.000404605 0)
(0.0118553 0.000496022 0)
(0.01158 0.000570332 0)
(0.0112492 0.000628715 0)
(0.0108725 0.00067252 0)
(0.010459 0.000703195 0)
(0.0100169 0.00072222 0)
(0.00955392 0.000731063 0)
(0.00907701 0.000731144 0)
(0.00859235 0.000723803 0)
(0.00810538 0.000710282 0)
(0.00762084 0.000691713 0)
(0.00714279 0.000669109 0)
(0.00667466 0.000643364 0)
(0.00621929 0.000615258 0)
(0.00577901 0.000585458 0)
(0.00535566 0.000554533 0)
(0.00495067 0.000522956 0)
(0.0045651 0.000491122 0)
(0.00419969 0.000459356 0)
(0.00385491 0.000427922 0)
(0.00353099 0.000397032 0)
(0.00322795 0.000366858 0)
(0.00294564 0.000337537 0)
(0.00268378 0.000309178 0)
(0.00244195 0.000281866 0)
(0.00221963 0.000255665 0)
(0.00201623 0.000230623 0)
(0.00183107 0.000206774 0)
(0.00166343 0.000184139 0)
(0.00151255 0.000162723 0)
(0.00137763 0.000142521 0)
(0.00125788 0.000123518 0)
(0.00115248 0.000105684 0)
(0.00106063 8.89817e-05 0)
(0.000981538 7.33607e-05 0)
(0.00091445 5.87602e-05 0)
(0.00085864 4.51086e-05 0)
(0.000813429 3.23243e-05 0)
(0.000778192 2.03156e-05 0)
(0.000752364 8.98004e-06 0)
(0.000735442 -1.78301e-06 0)
(0.000727037 -1.20418e-05 0)
(0.000726853 -2.18322e-05 0)
(0.00073452 -3.12483e-05 0)
(0.000749765 -4.0443e-05 0)
(0.00077241 -4.95661e-05 0)
(0.00080239 -5.87777e-05 0)
(0.000839751 -6.82497e-05 0)
(0.00088466 -7.8166e-05 0)
(0.00093741 -8.8726e-05 0)
(0.000998426 -0.00010015 0)
(0.00106828 -0.000112687 0)
(0.00114772 -0.000126618 0)
(0.00123763 -0.000142262 0)
(0.00133913 -0.000159981 0)
(0.0014535 -0.000180171 0)
(0.00158227 -0.000203258 0)
(0.00172713 -0.000229677 0)
(0.00188997 -0.00025983 0)
(0.00207277 -0.00029403 0)
(0.0022775 -0.000332408 0)
(0.00250597 -0.000374779 0)
(0.00275948 -0.000420469 0)
(0.00303852 -0.000468082 0)
(0.00334214 -0.000515227 0)
(0.00366731 -0.000558194 0)
(0.00400798 -0.000591624 0)
(0.00435403 -0.000608169 0)
(0.00469003 -0.000598197 0)
(0.00499386 -0.000549532 0)
(0.00523535 -0.000447214 0)
(0.00537491 -0.000273226 0)
(0.00536279 -6.03649e-06 0)
(0.00513727 0.000378736 0)
(0.00463528 0.000891846 0)
(0.0038107 0.00150163 0)
(0.00266316 0.00207852 0)
(0.00132665 0.00229258 0)
(0.000175773 0.00146925 0)
(2.50072e-05 -0.000409392 0)
(0.00037614 -0.00109088 0)
(0.00100975 -0.00165443 0)
(0.0018614 -0.00210566 0)
(0.00287955 -0.00244382 0)
(0.00401566 -0.00266769 0)
(0.00522267 -0.0027796 0)
(0.00645722 -0.00278655 0)
(0.00768088 -0.00269982 0)
(0.00886087 -0.00253371 0)
(0.00997033 -0.00230413 0)
(0.0109882 -0.0020273 0)
(0.0118986 -0.00171882 0)
(0.0126908 -0.00139298 0)
(0.0133579 -0.0010624 0)
(0.0138969 -0.000737842 0)
(0.0143075 -0.000428211 0)
(0.0145926 -0.000141173 0)
(0.0147538 0.000117764 0)
(0.0148046 0.000347199 0)
(0.0147529 0.000548056 0)
(0.0146092 0.000720362 0)
(0.014384 0.000865102 0)
(0.0140873 0.000983707 0)
(0.0137289 0.0010779 0)
(0.0133184 0.00114964 0)
(0.0128649 0.001201 0)
(0.012377 0.00123409 0)
(0.0118624 0.00125105 0)
(0.0113287 0.00125394 0)
(0.0107824 0.00124472 0)
(0.0102296 0.00122524 0)
(0.00967548 0.0011972 0)
(0.00912489 0.00116213 0)
(0.00858188 0.00112141 0)
(0.00804998 0.00107629 0)
(0.00753217 0.00102782 0)
(0.00703096 0.000976935 0)
(0.00654837 0.000924441 0)
(0.00608605 0.000871019 0)
(0.00564524 0.000817248 0)
(0.00522687 0.000763616 0)
(0.00483159 0.000710535 0)
(0.00445975 0.00065835 0)
(0.00411151 0.000607343 0)
(0.00378678 0.000557753 0)
(0.00348535 0.000509772 0)
(0.00320681 0.000463556 0)
(0.00295064 0.000419226 0)
(0.00271622 0.000376872 0)
(0.00250282 0.000336553 0)
(0.00230966 0.000298304 0)
(0.00213589 0.00026213 0)
(0.00198064 0.000228013 0)
(0.001843 0.00019591 0)
(0.00172209 0.000165753 0)
(0.00161701 0.000137454 0)
(0.00152689 0.000110902 0)
(0.00145092 8.59651e-05 0)
(0.00138831 6.24928e-05 0)
(0.00133835 4.0315e-05 0)
(0.00130039 1.92429e-05 0)
(0.00127386 -9.13979e-07 0)
(0.00125833 -2.02735e-05 0)
(0.00125358 -3.88979e-05 0)
(0.00125914 -5.6981e-05 0)
(0.00127473 -7.48188e-05 0)
(0.00130015 -9.26972e-05 0)
(0.00133535 -0.000110916 0)
(0.00138043 -0.000129792 0)
(0.00143562 -0.000149666 0)
(0.00150129 -0.000170907 0)
(0.00157795 -0.000193924 0)
(0.0016663 -0.000219172 0)
(0.0017672 -0.000247155 0)
(0.00188166 -0.000278426 0)
(0.0020109 -0.000313581 0)
(0.00215628 -0.000353231 0)
(0.00231932 -0.000397971 0)
(0.00250164 -0.0004483 0)
(0.00270485 -0.000504526 0)
(0.00293044 -0.000566604 0)
(0.00317954 -0.000633925 0)
(0.00345266 -0.000705026 0)
(0.00374922 -0.000777225 0)
(0.004067 -0.000846185 0)
(0.0044014 -0.000905412 0)
(0.00474449 -0.000945731 0)
(0.00508392 -0.000954771 0)
(0.00540159 -0.000916532 0)
(0.00567232 -0.000811068 0)
(0.00586245 -0.000614349 0)
(0.005929 -0.000298299 0)
(0.00581895 0.000169421 0)
(0.00547111 0.000815845 0)
(0.00483338 0.00163947 0)
(0.00387723 0.0025695 0)
(0.00263078 0.00338529 0)
(0.00125763 0.00358188 0)
(0.000147779 0.00219455 0)
(2.51653e-05 -0.000612078 0)
(0.000401739 -0.00161451 0)
(0.00108633 -0.00243485 0)
(0.0020064 -0.00308716 0)
(0.00310398 -0.00357344 0)
(0.00432526 -0.00389495 0)
(0.00561944 -0.00405765 0)
(0.00694102 -0.00407355 0)
(0.0082507 -0.0039598 0)
(0.00951586 -0.00373687 0)
(0.0107104 -0.00342671 0)
(0.0118144 -0.00305115 0)
(0.0128131 -0.00263081 0)
(0.0136967 -0.00218431 0)
(0.0144589 -0.00172793 0)
(0.0150967 -0.00127547 0)
(0.0156095 -0.000838279 0)
(0.015999 -0.000425487 0)
(0.0162677 -4.54506e-05 0)
(0.0164181 0.000296688 0)
(0.0164614 0.000600038 0)
(0.0164057 0.000864908 0)
(0.0162606 0.00109232 0)
(0.0160354 0.00128382 0)
(0.0157391 0.00144134 0)
(0.0153807 0.00156713 0)
(0.0149689 0.00166365 0)
(0.014512 0.00173351 0)
(0.014018 0.00177934 0)
(0.0134943 0.00180378 0)
(0.0129479 0.00180938 0)
(0.0123853 0.0017986 0)
(0.0118123 0.00177373 0)
(0.0112344 0.00173692 0)
(0.0106564 0.00169013 0)
(0.0100826 0.00163513 0)
(0.009517 0.00157353 0)
(0.00896285 0.00150674 0)
(0.00842307 0.00143602 0)
(0.00790015 0.00136249 0)
(0.00739614 0.00128709 0)
(0.00691277 0.00121068 0)
(0.00645136 0.00113398 0)
(0.00601297 0.00105762 0)
(0.00559833 0.00098215 0)
(0.00520792 0.000908023 0)
(0.00484197 0.000835637 0)
(0.0045005 0.000765323 0)
(0.00418335 0.000697353 0)
(0.00389016 0.000631944 0)
(0.00362047 0.000569263 0)
(0.00337367 0.000509428 0)
(0.00314905 0.000452512 0)
(0.00294584 0.00039854 0)
(0.00276319 0.000347494 0)
(0.00260023 0.000299319 0)
(0.00245606 0.000253916 0)
(0.0023298 0.000211152 0)
(0.00222057 0.00017086 0)
(0.00212751 0.000132838 0)
(0.00204982 9.6856e-05 0)
(0.00198678 6.2653e-05 0)
(0.00193771 2.99394e-05 0)
(0.001902 -1.58607e-06 0)
(0.00187927 -3.2083e-05 0)
(0.00186939 -6.16509e-05 0)
(0.00187182 -9.06203e-05 0)
(0.00188627 -0.000119454 0)
(0.00191254 -0.000148592 0)
(0.00195059 -0.000178492 0)
(0.00200052 -0.000209636 0)
(0.00206255 -0.000242542 0)
(0.00213706 -0.00027777 0)
(0.00222457 -0.000315931 0)
(0.00232572 -0.000357689 0)
(0.00244131 -0.000403757 0)
(0.00257227 -0.000454876 0)
(0.00271962 -0.000511785 0)
(0.00288449 -0.000575154 0)
(0.00306798 -0.00064549 0)
(0.00327114 -0.000722982 0)
(0.00349477 -0.000807288 0)
(0.00373923 -0.000897239 0)
(0.00400415 -0.000990444 0)
(0.00428801 -0.0010828 0)
(0.00458759 -0.00116789 0)
(0.00489721 -0.0012363 0)
(0.00520791 -0.00127492 0)
(0.00550626 -0.00126623 0)
(0.00577314 -0.00118777 0)
(0.00598246 -0.00101179 0)
(0.00609989 -0.00070544 0)
(0.00608266 -0.000231297 0)
(0.00587837 0.000450344 0)
(0.00543476 0.00136257 0)
(0.00471107 0.00248524 0)
(0.00369632 0.00370196 0)
(0.00244074 0.00469915 0)
(0.00112144 0.00481152 0)
(0.000116935 0.00284441 0)
(2.4488e-05 -0.000822215 0)
(0.000414161 -0.00216526 0)
(0.00112897 -0.00325915 0)
(0.00209073 -0.0041236 0)
(0.00323599 -0.00476364 0)
(0.00450608 -0.00518418 0)
(0.0058468 -0.00539638 0)
(0.00721085 -0.00541872 0)
(0.00855854 -0.00527543 0)
(0.00985796 -0.00499405 0)
(0.0110845 -0.00460313 0)
(0.01222 -0.00413037 0)
(0.0132519 -0.00360138 0)
(0.0141722 -0.00303891 0)
(0.0149765 -0.00246257 0)
(0.0156631 -0.0018887 0)
(0.0162325 -0.00133062 0)
(0.0166864 -0.000798863 0)
(0.0170279 -0.000301956 0)
(0.0172586 0.000152831 0)
(0.0173844 0.000560258 0)
(0.0174126 0.000920656 0)
(0.017351 0.00123503 0)
(0.0172077 0.00150488 0)
(0.0169904 0.00173223 0)
(0.0167069 0.00191948 0)
(0.016365 0.00206933 0)
(0.0159719 0.00218465 0)
(0.0155348 0.00226845 0)
(0.0150607 0.00232374 0)
(0.0145561 0.0023535 0)
(0.0140271 0.00236061 0)
(0.0134796 0.00234785 0)
(0.012919 0.00231782 0)
(0.0123504 0.00227294 0)
(0.0117784 0.00221546 0)
(0.0112072 0.00214744 0)
(0.0106407 0.00207073 0)
(0.0100825 0.00198703 0)
(0.00953543 0.00189785 0)
(0.00900236 0.00180454 0)
(0.00848561 0.00170833 0)
(0.00798718 0.00161027 0)
(0.00750875 0.00151133 0)
(0.00705169 0.00141236 0)
(0.00661707 0.00131409 0)
(0.00620568 0.00121717 0)
(0.00581806 0.00112216 0)
(0.00545452 0.00102955 0)
(0.00511515 0.000939733 0)
(0.00479985 0.000853037 0)
(0.00450834 0.000769717 0)
(0.00424021 0.000689956 0)
(0.00399492 0.000613872 0)
(0.00377183 0.000541514 0)
(0.00357021 0.000472872 0)
(0.00338929 0.000407875 0)
(0.00322827 0.000346395 0)
(0.00308631 0.000288255 0)
(0.0029626 0.000233225 0)
(0.00285634 0.000181032 0)
(0.00276674 0.000131361 0)
(0.0026931 8.38575e-05 0)
(0.00263478 3.8117e-05 0)
(0.00259113 -6.27957e-06 0)
(0.00256194 -4.95023e-05 0)
(0.00254708 -9.1714e-05 0)
(0.00254598 -0.00013342 0)
(0.00255832 -0.000175242 0)
(0.00258391 -0.000217773 0)
(0.00262266 -0.000261627 0)
(0.00267461 -0.000307451 0)
(0.00273992 -0.000355938 0)
(0.00281885 -0.000407823 0)
(0.00291179 -0.000463894 0)
(0.0030192 -0.000524973 0)
(0.00314163 -0.000591894 0)
(0.00327969 -0.000665453 0)
(0.00343397 -0.000746326 0)
(0.00360504 -0.000834946 0)
(0.00379328 -0.000931305 0)
(0.00399882 -0.00103469 0)
(0.00422128 -0.00114332 0)
(0.00445954 -0.00125383 0)
(0.00471133 -0.0013607 0)
(0.00497275 -0.00145546 0)
(0.00523755 -0.00152587 0)
(0.00549633 -0.00155498 0)
(0.00573547 -0.0015203 0)
(0.00593592 -0.00139314 0)
(0.00607203 -0.00113838 0)
(0.00611067 -0.000715032 0)
(0.0060109 -7.75034e-05 0)
(0.00572457 0.000816933 0)
(0.00520991 0.00198297 0)
(0.0044369 0.00337859 0)
(0.00340944 0.00483865 0)
(0.0021936 0.00595986 0)
(0.000969483 0.00593699 0)
(8.91005e-05 0.00340489 0)
(2.40177e-05 -0.00103625 0)
(0.000422844 -0.00273277 0)
(0.00115879 -0.00411145 0)
(0.00214874 -0.00519453 0)
(0.00332409 -0.00598977 0)
(0.0046215 -0.00650675 0)
(0.00598362 -0.00676337 0)
(0.00736161 -0.0067861 0)
(0.00871571 -0.00660755 0)
(0.010015 -0.00626327 0)
(0.0112367 -0.00578904 0)
(0.012365 -0.00521876 0)
(0.0133896 -0.00458312 0)
(0.0143052 -0.00390893 0)
(0.0151095 -0.00321884 0)
(0.015803 -0.00253144 0)
(0.0163878 -0.00186157 0)
(0.016867 -0.00122074 0)
(0.0172443 -0.000617733 0)
(0.0175235 -5.99816e-05 0)
(0.0177066 0.000446208 0)
(0.0177992 0.000898233 0)
(0.0178081 0.0012971 0)
(0.0177394 0.00164432 0)
(0.0175996 0.00194192 0)
(0.017395 0.00219238 0)
(0.0171319 0.00239854 0)
(0.0168163 0.00256345 0)
(0.0164543 0.00269031 0)
(0.0160517 0.00278236 0)
(0.015614 0.00284284 0)
(0.0151467 0.00287492 0)
(0.0146549 0.00288167 0)
(0.0141436 0.00286599 0)
(0.0136176 0.00283064 0)
(0.0130812 0.00277819 0)
(0.0125388 0.00271103 0)
(0.0119941 0.00263138 0)
(0.0114509 0.00254125 0)
(0.0109125 0.00244251 0)
(0.010382 0.00233685 0)
(0.00986213 0.00222581 0)
(0.00935535 0.0021108 0)
(0.00886385 0.00199308 0)
(0.00838952 0.00187381 0)
(0.00793396 0.00175402 0)
(0.00749849 0.00163463 0)
(0.00708418 0.00151647 0)
(0.00669183 0.00140026 0)
(0.00632201 0.00128662 0)
(0.00597506 0.00117608 0)
(0.00565115 0.00106907 0)
(0.00535022 0.000965936 0)
(0.00507208 0.00086693 0)
(0.00481639 0.00077221 0)
(0.0045827 0.000681853 0)
(0.00437044 0.000595854 0)
(0.00417901 0.00051413 0)
(0.00400772 0.000436524 0)
(0.00385586 0.000362814 0)
(0.0037227 0.000292712 0)
(0.00360754 0.000225878 0)
(0.00350966 0.000161913 0)
(0.0034284 0.000100366 0)
(0.00336318 4.07085e-05 0)
(0.00331326 -1.75806e-05 0)
(0.00327879 -7.46226e-05 0)
(0.00325944 -0.000130703 0)
(0.00325465 -0.000186529 0)
(0.00326409 -0.000242831 0)
(0.0032875 -0.000300337 0)
(0.0033247 -0.000359801 0)
(0.00337562 -0.000422014 0)
(0.00344026 -0.000487805 0)
(0.00351867 -0.000558041 0)
(0.00361098 -0.000633604 0)
(0.00371733 -0.000715366 0)
(0.00383786 -0.000804125 0)
(0.00397268 -0.000900505 0)
(0.00412177 -0.0010048 0)
(0.00428495 -0.00111678 0)
(0.00446171 -0.00123531 0)
(0.00465104 -0.00135799 0)
(0.00485123 -0.00148054 0)
(0.00505949 -0.00159607 0)
(0.0052715 -0.00169421 0)
(0.00548082 -0.00176004 0)
(0.00567806 -0.00177306 0)
(0.00584989 -0.00170612 0)
(0.00597805 -0.00152474 0)
(0.00603809 -0.00118701 0)
(0.0059992 -0.000644642 0)
(0.00582268 0.000154625 0)
(0.00546848 0.00125112 0)
(0.00490243 0.00265074 0)
(0.00410501 0.00428694 0)
(0.00309194 0.00594514 0)
(0.00193995 0.00713846 0)
(0.000825433 0.00694398 0)
(6.63661e-05 0.00387841 0)
(2.4132e-05 -0.00125423 0)
(0.000432289 -0.00331409 0)
(0.00118628 -0.00498496 0)
(0.00219759 -0.00628924 0)
(0.00339235 -0.0072373 0)
(0.00470277 -0.00784458 0)
(0.00606875 -0.00813728 0)
(0.00744036 -0.00815144 0)
(0.00877813 -0.00792929 0)
(0.0100526 -0.00751536 0)
(0.011243 -0.00695323 0)
(0.012336 -0.00628334 0)
(0.0133241 -0.00554158 0)
(0.0142046 -0.00475872 0)
(0.0149777 -0.00396031 0)
(0.0156463 -0.00316688 0)
(0.0162143 -0.00239448 0)
(0.0166866 -0.00165524 0)
(0.0170682 -0.00095808 0)
(0.0173637 -0.00030959 0)
(0.017577 0.000284347 0)
(0.0177102 0.000818981 0)
(0.0177695 0.00129475 0)
(0.0177596 0.00171324 0)
(0.0176857 0.0020765 0)
(0.0175526 0.00238707 0)
(0.017365 0.00264787 0)
(0.0171278 0.00286207 0)
(0.0168456 0.00303298 0)
(0.0165227 0.00316397 0)
(0.0161637 0.00325841 0)
(0.0157728 0.00331961 0)
(0.0153543 0.00335079 0)
(0.0149123 0.00335502 0)
(0.0144508 0.00333523 0)
(0.0139737 0.00329418 0)
(0.0134848 0.00323446 0)
(0.0129877 0.00315849 0)
(0.0124859 0.00306854 0)
(0.0119827 0.00296669 0)
(0.0114812 0.00285489 0)
(0.0109844 0.00273494 0)
(0.0104948 0.00260851 0)
(0.0100149 0.00247714 0)
(0.00954703 0.00234224 0)
(0.00909312 0.00220511 0)
(0.00865489 0.00206695 0)
(0.00823387 0.00192883 0)
(0.00783128 0.00179173 0)
(0.00744816 0.00165651 0)
(0.00708529 0.00152391 0)
(0.00674325 0.00139458 0)
(0.00642241 0.00126904 0)
(0.00612296 0.00114772 0)
(0.00584491 0.00103091 0)
(0.00558815 0.000918835 0)
(0.00535241 0.000811577 0)
(0.00513731 0.000709138 0)
(0.00494242 0.000611424 0)
(0.00476721 0.000518253 0)
(0.0046111 0.000429361 0)
(0.00447349 0.000344411 0)
(0.00435376 0.000262996 0)
(0.0042513 0.000184644 0)
(0.00416549 0.000108816 0)
(0.00409581 3.48521e-05 0)
(0.00404137 -3.78209e-05 0)
(0.00400286 -0.000109254 0)
(0.0039795 -0.000179893 0)
(0.00397082 -0.000250611 0)
(0.00397642 -0.000322228 0)
(0.00399593 -0.000395568 0)
(0.00402906 -0.000471486 0)
(0.00407553 -0.000550864 0)
(0.0041351 -0.000634608 0)
(0.00420755 -0.000723619 0)
(0.00429265 -0.000818762 0)
(0.0043901 -0.000920787 0)
(0.00449954 -0.00103022 0)
(0.00462049 -0.00114721 0)
(0.00475221 -0.00127122 0)
(0.0048937 -0.00140077 0)
(0.00504345 -0.00153283 0)
(0.00519931 -0.00166229 0)
(0.00535815 -0.001781 0)
(0.00551547 -0.00187685 0)
(0.00566483 -0.00193251 0)
(0.00579713 -0.0019242 0)
(0.00589974 -0.00182051 0)
(0.00595545 -0.00158167 0)
(0.00594156 -0.00115973 0)
(0.00582988 -0.000500104 0)
(0.00558526 0.000453422 0)
(0.00517515 0.00173749 0)
(0.00457234 0.00334732 0)
(0.00376657 0.00519049 0)
(0.00278275 0.00700403 0)
(0.0017041 0.00822514 0)
(0.000699063 0.00783501 0)
(4.88606e-05 0.00427515 0)
(2.48593e-05 -0.00147744 0)
(0.000443772 -0.00390926 0)
(0.00121478 -0.00587661 0)
(0.00224295 -0.00740095 0)
(0.0034489 -0.00849584 0)
(0.00476081 -0.00918399 0)
(0.00611633 -0.00950167 0)
(0.00746504 -0.00949603 0)
(0.00876832 -0.00922014 0)
(0.00999847 -0.00872831 0)
(0.0111372 -0.0080725 0)
(0.0121738 -0.00729989 0)
(0.0131038 -0.00645165 0)
(0.013927 -0.00556243 0)
(0.0146464 -0.00466043 0)
(0.0152671 -0.00376791 0)
(0.015795 -0.00290178 0)
(0.0162368 -0.00207449 0)
(0.0165986 -0.00129477 0)
(0.0168862 -0.000568624 0)
(0.0171056 9.99334e-05 0)
(0.0172571 0.000705664 0)
(0.0173464 0.00124774 0)
(0.0173776 0.00172811 0)
(0.0173543 0.00214898 0)
(0.0172802 0.002513 0)
(0.0171587 0.00282321 0)
(0.0169933 0.00308287 0)
(0.0167872 0.00329537 0)
(0.0165436 0.00346417 0)
(0.0162656 0.00359267 0)
(0.0159562 0.00368424 0)
(0.0156186 0.00374213 0)
(0.0152559 0.00376945 0)
(0.0148712 0.00376917 0)
(0.0144676 0.00374412 0)
(0.0140482 0.00369696 0)
(0.013616 0.00363019 0)
(0.0131742 0.00354618 0)
(0.0127257 0.00344715 0)
(0.0122734 0.00333519 0)
(0.01182 0.00321227 0)
(0.0113683 0.00308022 0)
(0.0109207 0.00294079 0)
(0.0104797 0.0027956 0)
(0.0100474 0.00264616 0)
(0.0096258 0.00249389 0)
(0.00921669 0.0023401 0)
(0.00882165 0.00218598 0)
(0.00844207 0.00203263 0)
(0.00807911 0.00188101 0)
(0.00773373 0.00173198 0)
(0.00740668 0.00158625 0)
(0.00709852 0.00144445 0)
(0.00680965 0.00130705 0)
(0.00654025 0.00117439 0)
(0.00629042 0.00104672 0)
(0.00606006 0.000924139 0)
(0.005849 0.000806657 0)
(0.00565694 0.000694165 0)
(0.00548351 0.000586456 0)
(0.00532829 0.000483234 0)
(0.00519078 0.000384119 0)
(0.00507047 0.00028865 0)
(0.00496681 0.000196293 0)
(0.00487926 0.000106429 0)
(0.00480727 1.82634e-05 0)
(0.00475005 -6.86812e-05 0)
(0.00470831 -0.000154462 0)
(0.00468113 -0.00023973 0)
(0.00466804 -0.000325428 0)
(0.00466853 -0.000412421 0)
(0.00468209 -0.000501589 0)
(0.00470824 -0.000593829 0)
(0.00474646 -0.000690048 0)
(0.00479623 -0.000791129 0)
(0.00485698 -0.00089789 0)
(0.00492807 -0.001011 0)
(0.00500873 -0.00113087 0)
(0.00509805 -0.00125745 0)
(0.00519491 -0.00138997 0)
(0.00529787 -0.00152652 0)
(0.00540507 -0.00166358 0)
(0.00551405 -0.00179523 0)
(0.00562149 -0.00191224 0)
(0.00572284 -0.00200092 0)
(0.00581183 -0.00204179 0)
(0.00587981 -0.0020081 0)
(0.00591498 -0.00186463 0)
(0.00590142 -0.00156687 0)
(0.00581841 -0.00106154 0)
(0.00564022 -0.000288793 0)
(0.00533604 0.000809414 0)
(0.0048801 0.0022645 0)
(0.00425144 0.00406022 0)
(0.00344755 0.00607785 0)
(0.0025003 0.00800806 0)
(0.00149614 0.00922049 0)
(0.000593034 0.00862042 0)
(3.59178e-05 0.00460755 0)
(2.60786e-05 -0.00170719 0)
(0.000456842 -0.00451869 0)
(0.00124362 -0.00678397 0)
(0.00228409 -0.00852374 0)
(0.00349325 -0.00975605 0)
(0.00479571 -0.0105128 0)
(0.0061276 -0.0108422 0)
(0.00743865 -0.0108039 0)
(0.00869164 -0.010463 0)
(0.00986112 -0.00988433 0)
(0.0109315 -0.00912857 0)
(0.011895 -0.00824986 0)
(0.0127502 -0.00729462 0)
(0.0134997 -0.00630119 0)
(0.014149 -0.00530022 0)
(0.0147055 -0.00431533 0)
(0.0151771 -0.00336401 0)
(0.0155718 -0.00245867 0)
(0.0158973 -0.00160755 0)
(0.0161601 -0.000815888 0)
(0.016366 -8.63373e-05 0)
(0.0165196 0.000577631 0)
(0.0166224 0.00117411 0)
(0.016679 0.00170538 0)
(0.0166919 0.00217392 0)
(0.0166638 0.0025826 0)
(0.0165971 0.00293466 0)
(0.016494 0.00323351 0)
(0.0163566 0.00348266 0)
(0.0161867 0.00368561 0)
(0.0159863 0.00384578 0)
(0.0157572 0.00396653 0)
(0.0155013 0.00405105 0)
(0.0152208 0.00410241 0)
(0.0149177 0.00412353 0)
(0.0145942 0.00411718 0)
(0.0142527 0.00408598 0)
(0.0138955 0.00403242 0)
(0.0135251 0.00395886 0)
(0.013144 0.00386753 0)
(0.0127545 0.00376057 0)
(0.0123593 0.00364 0)
(0.0119607 0.00350777 0)
(0.0115612 0.0033657 0)
(0.0111631 0.00321557 0)
(0.0107686 0.00305904 0)
(0.0103797 0.00289769 0)
(0.00999847 0.002733 0)
(0.0096266 0.00256637 0)
(0.00926573 0.00239907 0)
(0.00891728 0.00223228 0)
(0.00858253 0.00206704 0)
(0.00826252 0.00190428 0)
(0.00795814 0.00174479 0)
(0.0076701 0.00158922 0)
(0.00739894 0.0014381 0)
(0.00714501 0.00129181 0)
(0.00690856 0.00115059 0)
(0.00668966 0.00101458 0)
(0.00648827 0.000883772 0)
(0.00630426 0.000758044 0)
(0.00613739 0.000637177 0)
(0.00598735 0.000520847 0)
(0.00585374 0.00040864 0)
(0.00573614 0.000300058 0)
(0.00563406 0.000194515 0)
(0.00554699 9.13228e-05 0)
(0.00547418 -1.03736e-05 0)
(0.00541546 -0.000110852 0)
(0.00537091 -0.000210318 0)
(0.0053397 -0.0003096 0)
(0.00532128 -0.000409593 0)
(0.00531501 -0.000511168 0)
(0.00532022 -0.000615206 0)
(0.00533619 -0.000722579 0)
(0.00536216 -0.00083412 0)
(0.00539729 -0.000950572 0)
(0.00544064 -0.0010725 0)
(0.00549115 -0.00120018 0)
(0.00554758 -0.00133336 0)
(0.00560849 -0.00147102 0)
(0.00567215 -0.00161091 0)
(0.00573644 -0.001749 0)
(0.00579871 -0.00187869 0)
(0.00585552 -0.00198979 0)
(0.00590239 -0.00206721 0)
(0.00593329 -0.00208955 0)
(0.00594011 -0.00202746 0)
(0.0059119 -0.00184228 0)
(0.00583407 -0.00148534 0)
(0.00568801 -0.000898674 0)
(0.00544986 -1.7958e-05 0)
(0.00509457 0.00121354 0)
(0.00460141 0.0028227 0)
(0.00395512 0.00478076 0)
(0.00315952 0.00694279 0)
(0.00225157 0.00895589 0)
(0.00131852 0.0101305 0)
(0.000506511 0.0093136 0)
(2.66303e-05 0.00488774 0)
(2.763e-05 -0.00194423 0)
(0.000470327 -0.00514187 0)
(0.0012704 -0.00770371 0)
(0.00231751 -0.009651 0)
(0.00352118 -0.0110084 0)
(0.00480308 -0.0118191 0)
(0.00609856 -0.0121452 0)
(0.00735816 -0.0120605 0)
(0.00854662 -0.0116428 0)
(0.00964111 -0.0109682 0)
(0.0106291 -0.0101064 0)
(0.0115059 -0.00911848 0)
(0.0122732 -0.00805609 0)
(0.0129364 -0.00696102 0)
(0.0135038 -0.00586604 0)
(0.0139846 -0.00479578 0)
(0.0143888 -0.00376795 0)
(0.0147257 -0.00279453 0)
(0.0150041 -0.00188299 0)
(0.0152313 -0.00103739 0)
(0.0154132 -0.000259359 0)
(0.0155561 0.000449477 0)
(0.0156601 0.00108813 0)
(0.0157299 0.00165878 0)
(0.0157672 0.00216425 0)
(0.0157739 0.00260779 0)
(0.0157515 0.00299293 0)
(0.0157012 0.00332335 0)
(0.0156238 0.00360268 0)
(0.0155202 0.0038345 0)
(0.0153912 0.00402224 0)
(0.0152375 0.0041692 0)
(0.0150601 0.00427849 0)
(0.0148599 0.00435306 0)
(0.0146381 0.00439571 0)
(0.014396 0.00440907 0)
(0.0141351 0.00439563 0)
(0.0138571 0.00435778 0)
(0.0135636 0.00429777 0)
(0.0132566 0.00421777 0)
(0.0129381 0.00411986 0)
(0.0126101 0.00400605 0)
(0.0122747 0.00387827 0)
(0.011934 0.0037384 0)
(0.0115903 0.00358825 0)
(0.0112455 0.00342956 0)
(0.0109017 0.00326402 0)
(0.0105609 0.00309325 0)
(0.0102248 0.00291875 0)
(0.00989518 0.00274197 0)
(0.00957369 0.00256424 0)
(0.00926172 0.00238678 0)
(0.00896058 0.00221068 0)
(0.00867137 0.0020369 0)
(0.00839506 0.00186629 0)
(0.00813245 0.00169952 0)
(0.00788418 0.00153713 0)
(0.00765075 0.00137954 0)
(0.00743248 0.00122698 0)
(0.00722959 0.0010796 0)
(0.00704217 0.000937373 0)
(0.00687017 0.000800188 0)
(0.00671348 0.000667805 0)
(0.00657185 0.000539888 0)
(0.006445 0.000416004 0)
(0.00633253 0.000295635 0)
(0.00623397 0.000178171 0)
(0.00614886 6.2833e-05 0)
(0.00607615 -5.11668e-05 0)
(0.00601647 -0.000163898 0)
(0.00596897 -0.000275783 0)
(0.00593303 -0.000387706 0)
(0.00590796 -0.0005005 0)
(0.00589297 -0.000614985 0)
(0.0058872 -0.000731969 0)
(0.00588972 -0.000852208 0)
(0.00589949 -0.000976346 0)
(0.00591536 -0.00110483 0)
(0.00593605 -0.00123779 0)
(0.0059601 -0.00137477 0)
(0.00598585 -0.00151452 0)
(0.00601135 -0.00165446 0)
(0.00603433 -0.00179012 0)
(0.00605201 -0.00191429 0)
(0.00606095 -0.00201592 0)
(0.00605677 -0.00207872 0)
(0.00603371 -0.00207957 0)
(0.00598419 -0.0019868 0)
(0.00589807 -0.00175874 0)
(0.00576205 -0.00134305 0)
(0.00555943 -0.000677676 0)
(0.00526858 0.000304986 0)
(0.00487026 0.00165785 0)
(0.0043471 0.00340457 0)
(0.00368935 0.00550296 0)
(0.0029059 0.00778235 0)
(0.0020373 0.00984944 0)
(0.00116974 0.0109635 0)
(0.000437102 0.00992828 0)
(2.01097e-05 0.0051264 0)