/*--------------------------------*- C++ -*----------------------------------*\
  =========                 |
  \\      /  F ield         | OpenFOAM: The Open Source CFD Toolbox
   \\    /   O peration     | Website:  https://openfoam.org
    \\  /    A nd           | Version:  6
     \\/     M anipulation  |
\*---------------------------------------------------------------------------*/
FoamFile
{
    version     2.0;
    format      ascii;
    class       volVectorField;
    location    "0";
    object      U_rec;
}
// * * * * * * * * * * * * * * * * * * * * * * * * * * * * * * * * * * * * * //

dimensions      [0 1 -1 0 0 0 0];

internalField   nonuniform List<vector> 
918
(
(0.943636 -0.0574979 0)
(-0.0546708 3.04184 0)
(-0.144787 1.76506 0)
(0.885235 0.0899326 0)
(-0.0630943 1.70081 3.55442e-17)
(0.0274706 3.03657 7.86629e-17)
(1.16641 1.71072 2.21792e-17)
(0.503922 0.289068 7.4152e-19)
(0.977354 -0.00388888 0)
(0.0309331 1.77308 0)
(0.025999 1.73283 0)
(0.929191 0.0208093 0)
(-0.041412 3.0202 0)
(0.00882809 2.91799 0)
(-0.0661015 2.74237 3.98062e-17)
(-0.0185737 1.70934 2.40217e-17)
(0.708808 0.162282 -4.36559e-17)
(0.227123 2.03726 -5.92036e-18)
(0.993783 0.0683533 0)
(0.0363752 1.72013 0)
(0.514474 0.0940862 3.03694e-17)
(0.869661 0.00770082 0)
(0.89196 0.0181212 0)
(1.04377 0.0556441 0)
(0.846637 0.0593006 0)
(0.0189233 2.92535 0)
(-0.0325297 2.90099 -9.13821e-17)
(-0.0491774 1.76296 0)
(-0.0365002 1.69896 0)
(-0.11763 1.7505 0)
(-0.00458101 1.7789 0)
(-0.0481981 1.71287 3.40346e-17)
(-0.0275148 1.69964 0)
(0.102704 3.04567 4.0321e-21)
(0.0265142 3.05536 -1.10729e-16)
(0.0295289 3.06593 0)
(0.98179 -0.000727594 0)
(0.796938 1.11413 -2.24409e-17)
(1.14146 1.72591 -4.45061e-17)
(1.27102 1.49407 4.62536e-17)
(0.955837 1.90024 1.34903e-18)
(0.972496 1.91407 3.28378e-17)
(0.53604 0.308 -5.42829e-19)
(0.543434 0.284991 0)
(1.36342 0.802575 0)
(0.488636 0.323302 -2.55444e-18)
(0.441272 0.29422 3.2315e-18)
(0.98838 -0.000833912 0)
(0.959945 0.0079136 0)
(0.98121 0.00643517 0)
(0.901239 -0.0568099 0)
(0.932071 0.0364235 0)
(0.990727 0.0287199 0)
(-0.0322333 1.58823 2.87466e-17)
(0.0130496 1.82215 0)
(0.00893673 1.83427 0)
(0.00495597 1.77977 0)
(-0.00673756 1.78509 0)
(-0.0328824 1.71042 0)
(0.0239285 1.7621 0)
(0.00328776 1.74696 0)
(0.00965551 1.74109 0)
(0.0100472 1.72256 0)
(0.990076 -0.0172574 0)
(0.958498 0.0306408 0)
(0.952241 0.00121483 0)
(0.938204 0.00582704 0)
(0.940653 -0.00101648 0)
(0.00866503 3.08566 -1.97283e-17)
(-0.019805 3.05396 0)
(-0.0353916 3.13246 0)
(-0.030393 3.06757 -4.50751e-22)
(-0.0354435 2.99345 7.72141e-17)
(-0.0018291 3.05574 0)
(-0.0102323 2.98921 0)
(-0.0161552 2.99377 -9.69629e-23)
(-0.00226701 2.92389 0)
(0.0398735 2.99343 0)
(0.0466058 2.8941 0)
(0.139363 2.8936 0)
(-0.0814218 2.92003 0)
(0.0110984 2.79567 -2.23454e-17)
(-0.0721461 2.71757 0)
(-0.0114241 1.7402 0)
(-0.00903191 1.73811 1.71337e-17)
(0.0199571 1.70924 2.48372e-17)
(0.730686 0.180624 1.24831e-17)
(0.737595 0.152482 1.64314e-17)
(0.701331 0.23057 5.78282e-17)
(0.664354 0.209141 2.34526e-17)
(0.188547 1.38826 0)
(0.337358 2.12016 -4.23563e-17)
(0.459129 2.10228 1.74692e-18)
(0.981693 0.0132337 0)
(0.970408 -0.00586795 0)
(0.971917 -0.0251113 0)
(0.962182 -0.00702724 0)
(1.04176 0.097911 2.77214e-16)
(1.07215 0.0951206 -7.44145e-17)
(0.0167582 1.76076 0)
(-0.00409004 1.73457 0)
(0.0155722 1.76103 0)
(0.000609646 1.73605 0)
(-0.0106227 1.74431 0)
(0.453103 0.220932 -9.98673e-18)
(0.398685 0.31864 0)
(1.05629 0.0124713 0)
(1.00894 -4.36133e-05 0)
(0.937768 0.0159627 0)
(0.896153 0.0575263 0)
(0.90884 0.0182437 0)
(1.13345 -0.0235256 0)
(0.841342 0.0581795 0)
(0.825129 0.0396433 -5.94481e-17)
(-0.00517354 2.84255 -2.40101e-17)
(-0.0198619 2.97688 0)
(-0.0645308 3.00335 0)
(0.0173091 2.8843 0)
(-0.0399632 2.9518 -5.51912e-17)
(0.00257811 2.87534 0)
(-0.0482564 2.95231 9.67675e-17)
(-0.0712132 2.89526 -2.11858e-17)
(0.0298363 1.73706 0)
(-0.00395945 1.74801 0)
(-0.0154488 1.72273 7.69342e-20)
(-0.0280247 1.73929 0)
(0.014253 1.71051 0)
(0.997005 0.0107476 0)
(0.989311 -0.006478 0)
(0.968384 -0.0118885 0)
(0.995319 0.0121107 0)
(0.980479 0.0136798 0)
(0.829926 1.18732 1.62877e-17)
(0.776564 1.10085 0)
(0.821292 1.24705 -2.96376e-18)
(0.75944 1.16677 0)
(1.2089 1.48657 8.0958e-19)
(1.35526 1.22732 2.3656e-17)
(0.561674 2.14413 0)
(0.761733 2.07482 0)
(0.737401 2.05756 0)
(0.530087 1.28309 5.76263e-18)
(0.57656 0.311124 0)
(0.587788 0.252398 -1.04991e-17)
(1.24295 1.23466 0)
(1.29442 0.978717 0)
(1.36354 0.996623 -2.48992e-17)
(1.32092 0.769664 0)
(1.36629 0.568243 -1.77134e-17)
(0.985827 0.0183794 0)
(1.00613 -0.0152219 0)
(0.977738 -0.0176616 0)
(1.00179 0.00836698 0)
(1.00088 0.000322845 0)
(0.980388 0.00658004 0)
(0.923428 -0.0207998 0)
(0.939892 -0.00645402 0)
(0.986099 0.00463048 0)
(-0.0155097 1.65174 4.46538e-18)
(0.0413076 1.59572 0)
(0.012339 1.6311 -2.74082e-17)
(0.0197044 1.64415 2.59773e-17)
(0.135012 2.00623 -3.99894e-17)
(0.00795499 1.89451 0)
(0.0359235 1.93797 0)
(-0.0155108 1.79424 0)
(-0.0113745 1.77036 0)
(-0.0125463 1.7495 1.44211e-19)
(0.023276 1.7107 0)
(0.00323417 1.72937 -1.26814e-17)
(0.0435729 1.72851 -1.51834e-17)
(0.0144058 1.7809 0)
(0.0227137 1.76037 0)
(0.013493 1.74056 0)
(-0.000273623 1.74853 0)
(-0.00229301 1.74527 0)
(1.0214 0.028932 0)
(1.02291 0.020755 0)
(1.02289 -0.00416557 0)
(0.997603 0.0152402 0)
(0.971249 -0.00619479 0)
(0.975043 0.00199417 0)
(0.959672 0.0159196 0)
(0.950453 0.000415622 0)
(0.0716936 3.03998 3.55403e-19)
(0.0717815 3.03015 0)
(0.00623552 3.02114 0)
(-0.00878475 2.9632 0)
(0.754253 3.22029 0)
(0.96826 2.4385 7.09627e-18)
(-0.0342651 2.80989 0)
(-0.0486169 2.76288 0)
(-0.0134798 1.76614 0)
(-0.0039096 1.71286 0)
(-0.0043966 1.7378 0)
(0.00447537 1.78812 -4.72354e-17)
(-0.0316788 1.78216 0)
(0.0356075 1.76703 0)
(0.0140777 1.70767 -4.15399e-17)
(0.0297572 1.73361 -2.60289e-17)
(0.00991122 1.73586 1.60737e-17)
(0.0267542 1.71324 0)
(0.760574 0.154224 -3.54447e-17)
(0.754655 0.0841477 1.65874e-17)
(0.190236 1.4025 0)
(0.222373 1.34392 5.85651e-18)
(0.148394 1.48368 1.55513e-18)
(0.110323 1.46772 -3.70768e-17)
(0.989743 -0.00985201 0)
(0.986195 -0.0148931 0)
(0.992293 -0.00299671 0)
(0.963238 0.00872888 0)
(-0.00771217 1.76273 0)
(0.00865491 1.7589 0)
(-0.00736003 1.75319 0)
(0.44094 0.307173 -2.49067e-17)
(0.430663 0.287433 2.8737e-17)
(0.408943 0.290567 0)
(1.19781 0.118955 -3.44803e-18)
(1.23683 0.0674797 0)
(1.1353 0.0521634 0)
(1.07488 0.0175255 0)
(0.783125 0.108919 0)
(0.820224 0.0557815 1.3597e-16)
(0.777169 0.0452123 -5.61338e-17)
(0.00506798 2.93388 -5.56002e-17)
(0.0327652 2.86459 -3.55195e-17)
(0.0792917 3.02062 7.33124e-19)
(0.0958823 3.01991 -4.83708e-17)
(-0.0394116 2.97596 -1.30738e-18)
(-0.0683319 2.96618 5.26322e-21)
(-0.022902 3.10464 1.91772e-17)
(0.0146831 3.07315 -1.97666e-17)
(0.135735 3.07496 7.50801e-18)
(1.01215 0.0201861 0)
(0.997242 0.0306176 0)
(0.991694 0.024395 0)
(0.991828 -0.0151993 0)
(0.982547 -0.00779201 0)
(0.970689 -0.00470349 0)
(0.9735 -0.00362136 0)
(0.989299 0.014573 0)
(0.964602 0.0128165 0)
(0.832732 1.23373 2.46796e-17)
(0.731553 1.25202 0)
(0.686047 1.27238 -2.1221e-18)
(0.695901 1.33619 -2.65025e-17)
(0.759133 1.30201 7.26581e-18)
(0.72962 1.23 -4.04949e-17)
(0.474115 1.32398 -4.55227e-17)
(0.501868 1.29303 3.64692e-18)
(0.663122 0.246263 -3.80206e-17)
(0.630516 0.273833 -1.01848e-17)
(0.644046 0.240237 -1.23767e-17)
(1.30318 0.556217 8.14754e-18)
(1.33098 0.391023 2.78528e-17)
(0.0190482 1.68698 -3.22776e-17)
(0.0165909 1.6766 0)
(1.07189 0.0436289 0)
(1.0597 0.0130584 0)
(1.03266 -0.0110908 0)
(0.0656501 3.0532 0)
(-0.00917631 2.99925 -7.05732e-17)
(-0.00311536 3.01036 0)
(-0.0108968 2.94484 3.49067e-17)
(0.0527372 3.07272 -2.5334e-18)
(0.0592654 3.06459 0)
(0.731211 1.39053 -8.67128e-18)
(0.906594 1.9383 1.68061e-17)
(0.695241 1.49219 -3.08229e-17)
(-0.0260347 2.90166 5.53434e-17)
(-0.0403063 2.85468 0)
(-0.0281618 2.80648 0)
(-0.0142765 1.76574 4.1233e-17)
(0.003821 1.70438 1.22341e-17)
(-0.0424285 1.69913 4.12069e-17)
(0.243763 1.39528 -2.77558e-17)
(0.302937 1.34889 4.56549e-18)
(0.0329769 1.6226 -3.51504e-17)
(0.0759808 1.55174 1.00717e-19)
(0.0525659 1.55236 -3.72874e-17)
(-0.0467173 3.07323 1.5362e-16)
(-0.0218406 3.08559 -2.79644e-17)
(-0.0234479 2.94789 -1.90951e-17)
(0.0282229 2.94928 2.00297e-17)
(0.0309205 2.87445 5.52126e-17)
(0.0416383 3.08032 3.41626e-17)
(0.0171453 3.07213 -1.70293e-16)
(0.540219 1.33871 0)
(0.61951 1.34284 4.59572e-17)
(0.615302 1.27127 -3.15934e-17)
(0.43098 1.35774 -5.1392e-18)
(0.432415 1.31565 5.26066e-17)
(1.28937 0.184635 -1.37378e-17)
(1.30376 0.371114 0)
(1.30912 0.202463 1.41833e-17)
(0.0109707 1.71539 1.59481e-19)
(0.000895848 1.70543 0)
(-0.0070703 1.68167 0)
(0.302068 1.3873 7.20847e-18)
(0.358311 1.36573 -5.23189e-18)
(0.372129 1.34687 -4.57871e-17)
(1.03552 -0.0713219 0)
(1.06922 -0.0915475 -2.84665e-17)
(0.00353136 1.76235 0)
(-0.0255342 1.78784 0)
(1.02883 -0.0153986 3.47582e-19)
(0.984143 -0.0507487 -6.18627e-17)
(-0.0182756 1.78934 -4.47706e-17)
(0.0334064 1.803 0)
(-0.0659168 2.92425 -1.87436e-17)
(0.0775872 2.75223 0)
(1.12206 0.689336 -4.34069e-18)
(1.03083 -0.0115274 5.1767e-17)
(1.0357 0.0387868 0)
(1.05186 -0.00256478 2.13315e-19)
(0.0607658 1.84719 0)
(0.0777735 1.72038 0)
(-0.0305941 1.76786 0)
(0.080846 1.76058 -5.53262e-17)
(0.0166642 1.76275 3.90194e-17)
(0.975274 0.00266009 5.07492e-17)
(1.06524 0.0560271 0)
(1.07206 0.0521458 0)
(0.0032729 1.77038 0)
(0.030977 1.75391 0)
(-0.045164 1.76025 0)
(0.195788 1.96543 -6.70066e-17)
(0.987743 -0.0498386 0)
(0.990329 -0.0438394 0)
(1.03284 0.033441 -5.84551e-17)
(1.0424 0.00933745 7.0968e-17)
(1.06071 -0.00120469 0)
(-0.0382783 1.74836 0)
(0.0155218 1.75949 0)
(-0.00668221 1.72984 0)
(-0.0369211 1.78168 0)
(-0.0153505 1.75925 0)
(-0.0202742 1.76037 0)
(1.00502 0.0124269 0)
(1.01016 -0.0139754 5.18756e-17)
(0.804342 1.7202 1.87073e-17)
(1.05359 -0.0365604 5.86774e-17)
(1.0693 0.0418263 -7.08973e-17)
(1.08193 0.0263162 0)
(1.00103 0.000658611 -2.28079e-17)
(1.00687 -0.0088517 8.47141e-17)
(1.01331 0.0083316 0)
(0.0313968 1.77303 0)
(0.00797722 1.7538 -2.66024e-17)
(0.00357822 1.75888 -1.84023e-17)
(1.19409 0.325957 -1.01308e-16)
(1.11082 0.100134 0)
(-0.192324 2.9858 6.46647e-17)
(-0.193173 3.07646 3.41742e-18)
(-0.122983 2.97671 -3.84301e-17)
(-0.112382 2.92802 4.18075e-17)
(-0.0367475 2.87792 0)
(-0.0651056 2.99625 -7.13608e-18)
(-0.10533 3.06841 -3.06847e-17)
(-0.112988 2.98218 3.9715e-17)
(-0.0724332 3.06014 0)
(0.650853 0.307306 0)
(0.5219 0.363399 0)
(1.07679 0.835061 -1.7381e-17)
(1.13873 0.939443 6.93682e-17)
(1.12208 0.660077 0)
(1.14913 0.618991 0)
(1.03686 0.0061561 9.35574e-17)
(1.00838 -0.00238755 -1.14405e-16)
(1.04162 0.00855403 0)
(1.00547 -0.0340328 0)
(0.977134 0.0385291 0)
(1.01608 -0.00803606 0)
(1.03879 -0.012513 0)
(1.03182 -0.0392653 0)
(1.05192 -0.0284946 0)
(1.02964 0.0275092 0)
(0.0542847 1.85082 0)
(0.00472373 1.82186 0)
(0.110732 1.83467 0)
(0.115885 1.88559 0)
(0.0437351 1.63236 0)
(0.0501606 1.67648 3.39649e-17)
(0.0958795 1.72219 0)
(0.0712827 1.70538 9.51921e-18)
(0.0411559 1.72425 -2.75988e-17)
(-0.0346889 1.78015 0)
(0.0108169 1.75706 0)
(-0.0127954 1.77756 0)
(-0.0275972 1.79084 0)
(-0.0192303 1.74024 -3.7374e-17)
(-0.00928061 1.69342 -3.8228e-17)
(0.0800238 1.77798 1.21385e-17)
(0.0325937 1.77609 0)
(0.0419538 1.75669 3.40215e-17)
(0.0225667 1.74546 -3.45554e-17)
(-0.0259843 1.75148 -7.63117e-17)
(0.00521709 1.64535 -1.75296e-17)
(0.0872845 1.75654 3.66453e-17)
(0.973801 -0.00472577 -8.12758e-17)
(0.989633 -0.0373185 1.03798e-16)
(0.975222 0.0211977 8.24882e-17)
(0.931242 0.00775877 -9.93025e-17)
(1.02486 0.00280555 0)
(1.02833 0.0138717 0)
(0.996741 0.0278488 0)
(1.05871 0.0489224 0)
(1.02883 0.0196932 0)
(1.03785 0.0702097 0)
(1.07255 0.0589059 0)
(1.06534 0.0426827 0)
(-0.0669462 1.767 6.34691e-18)
(0.0629307 1.76764 0)
(-0.0553192 1.75216 0)
(0.00646985 1.74383 -1.19757e-17)
(0.00728288 1.77971 1.37157e-19)
(0.0094978 1.80564 2.33881e-17)
(-0.0398688 1.77488 3.04067e-17)
(-0.0235813 1.76407 0)
(-0.0697689 1.77463 0)
(-0.00259755 1.77728 0)
(-0.0300896 1.75559 0)
(-0.0292849 1.78235 0)
(0.378468 1.94123 -2.47215e-19)
(0.397549 2.01256 3.69756e-17)
(0.2349 1.46756 4.74324e-18)
(0.201233 1.53413 2.69676e-18)
(0.27751 1.66905 1.5296e-17)
(1.00374 0.00907947 0)
(1.00118 0.00266668 0)
(1.024 0.041915 0)
(1.0185 -0.0276958 0)
(1.00966 -0.015911 0)
(0.951278 0.0176325 0)
(0.992499 0.0954721 0)
(1.04709 0.0925984 0)
(0.984138 -0.018 -8.63451e-17)
(1.00474 -0.0143017 1.11047e-16)
(1.00705 -0.00568907 8.78135e-17)
(0.983995 0.0106215 -1.07435e-16)
(0.744998 1.79012 0)
(0.723445 1.79274 -2.11305e-17)
(0.848281 1.59459 6.41023e-17)
(0.924556 1.56636 1.253e-17)
(0.879107 1.53227 -7.89877e-17)
(0.859638 0.118407 -4.1265e-17)
(1.11668 0.143595 0)
(1.11761 0.213173 -3.85196e-18)
(1.12182 0.131818 2.37548e-18)
(0.938162 0.180475 0)
(-0.278392 2.83454 -5.54697e-18)
(-0.312281 2.71446 1.04047e-16)
(-0.445436 2.80706 -3.1399e-17)
(-0.213782 0.721275 8.55971e-18)
(-0.0291881 2.84095 -2.8534e-17)
(-0.0165223 2.88393 0)
(0.0516127 2.81379 2.07834e-17)
(-0.276227 2.80781 1.34829e-16)
(-0.197205 2.74194 0)
(-0.0372738 3.05805 -2.77794e-18)
(-0.0534576 3.03992 1.42464e-17)
(-0.0386215 3.08801 -5.97227e-17)
(-0.0420049 3.07774 0)
(-0.092378 3.03077 0)
(0.974979 1.75399 0)
(0.133526 1.11032 5.19575e-17)
(1.06285 1.23369 -3.82832e-17)
(0.939656 1.40701 0)
(0.776536 1.22825 4.22517e-18)
(1.00829 1.17288 -3.7773e-17)
(0.350338 0.0789114 3.65904e-17)
(0.63481 0.313947 7.4009e-18)
(0.636654 0.320311 -1.01195e-17)
(0.486474 0.39391 -1.17464e-18)
(0.454554 0.33818 4.94598e-17)
(0.618029 0.369042 0)
(0.61139 0.423793 -2.33233e-17)
(0.610461 0.379877 0)
(0.508751 0.381656 0)
(0.544866 0.348946 0)
(0.594604 0.768766 -3.57658e-18)
(1.20244 0.355932 7.64044e-17)
(1.16472 0.427751 0)
(1.19533 0.33924 0)
(0.768536 0.234711 -1.55814e-17)
(0.626541 0.634511 3.99898e-17)
(0.594281 0.540916 -2.67734e-17)
(0.840848 0.437185 -6.96013e-18)
(0.985393 0.023769 -3.51425e-17)
(1.00399 0.0538625 8.53699e-17)
(0.991768 0.056695 0)
(0.996806 -0.00139729 0)
(0.994583 -0.0415533 3.35828e-17)
(0.998761 0.00104282 -8.03027e-17)
(0.971639 0.0192348 0)
(0.969741 -0.00436491 0)
(1.03558 -0.011537 0)
(0.998322 0.00374052 0)
(1.00047 -0.0356559 0)
(1.00117 -0.0347721 0)
(0.0151146 1.81343 0)
(0.0509396 1.80197 0)
(-0.000765286 1.80087 -1.49616e-17)
(0.171418 1.95351 -1.44202e-17)
(0.125972 1.90704 6.82232e-17)
(0.0866303 1.92978 -1.26599e-17)
(0.0379422 1.77831 0)
(0.25854 1.71444 6.15932e-17)
(0.175109 1.79059 0)
(0.237483 1.70397 3.31454e-17)
(0.221196 1.61826 -4.95795e-17)
(0.20417 1.70848 2.73186e-17)
(0.212405 1.87519 -1.55698e-17)
(0.130338 1.73738 -3.25763e-17)
(0.246138 1.81417 1.75861e-17)
(0.193635 1.70552 0)
(0.218117 1.71414 -4.94127e-17)
(0.00920668 1.71864 9.19051e-18)
(0.00301385 1.70092 0)
(0.0493149 1.68878 -5.99657e-17)
(0.0085729 1.71297 0)
(0.0481881 1.71955 3.20873e-17)
(0.029769 1.72215 0)
(0.0501261 1.74728 4.33481e-17)
(0.0601128 1.77939 0)
(0.0642663 1.75407 0)
(0.0444294 1.79214 2.04246e-17)
(0.0219705 1.69414 -7.1848e-17)
(0.0519129 1.74988 -6.03846e-17)
(0.0225322 1.73342 -1.31639e-19)
(0.0364271 1.65648 4.09594e-17)
(-0.00465141 1.70177 -2.73473e-17)
(0.0257612 1.74039 0)
(-0.0458881 1.76415 0)
(-0.0162373 1.76947 2.29505e-18)
(-0.0221414 1.77171 1.48333e-19)
(0.0056694 1.7695 5.6516e-17)
(-0.000813256 1.74569 0)
(0.00654314 1.71446 7.2852e-17)
(-0.0110495 1.73039 5.62344e-18)
(0.0293672 1.78088 -1.0322e-17)
(0.0662389 1.74956 5.41739e-17)
(0.0336482 1.6245 -4.5943e-20)
(-0.0207256 1.72047 -3.7811e-17)
(0.97943 0.0288611 8.15816e-17)
(0.972883 0.000158812 -3.17506e-17)
(0.975477 0.0386898 0)
(0.967723 0.00433252 -1.08755e-16)
(0.911262 0.0984465 8.09413e-17)
(0.913054 0.0755415 -8.30631e-17)
(0.969693 0.0177125 9.92845e-18)
(1.03147 -0.0200805 0)
(1.01078 -0.00922498 -7.8908e-17)
(1.00961 -0.0281841 3.10127e-17)
(0.961688 0.0498599 4.95856e-18)
(0.988025 0.0610318 -3.11061e-17)
(0.970065 0.0815903 0)
(0.96784 0.0505162 8.71999e-18)
(0.985225 0.0587732 0)
(0.971608 0.0546966 0)
(0.978371 0.0718924 0)
(0.9706 0.0221037 0)
(1.01984 0.0663302 -1.54058e-17)
(0.985049 0.0403005 5.77542e-17)
(0.938434 0.00746103 1.58132e-17)
(0.972337 0.0278983 2.72252e-17)
(1.02776 0.0959111 -2.43573e-17)
(1.02764 0.0823814 0)
(0.967665 0.0724936 0)
(0.0238258 1.77459 -2.76988e-17)
(0.060541 1.72683 -1.20946e-19)
(-0.00314085 1.77267 0)
(0.036468 1.78927 -3.75571e-17)
(-0.0162595 1.78938 4.78221e-18)
(0.035315 1.75067 -1.65267e-18)
(0.000325512 1.75501 -5.46173e-17)
(0.0861238 1.74404 3.68329e-19)
(0.087004 1.68305 -5.29453e-18)
(-0.0459528 1.76631 2.46894e-17)
(-0.0214237 1.77351 1.56597e-17)
(0.0313988 1.73695 -1.42015e-17)
(-0.0348249 1.71488 -2.86643e-17)
(0.386507 1.82471 -1.4059e-18)
(0.350362 1.74703 -2.89835e-17)
(0.676432 1.86955 -7.33778e-17)
(0.545807 1.95735 1.29615e-17)
(0.589432 1.93242 0)
(0.236363 1.46102 -8.13246e-18)
(0.296557 1.45495 -7.16725e-18)
(0.191158 1.48837 -4.53898e-18)
(0.277235 1.52898 6.68225e-18)
(0.26437 1.49772 -3.68823e-17)
(0.247709 1.49649 0)
(0.172878 1.49105 4.00803e-18)
(0.100491 1.60476 -3.0362e-17)
(0.185675 1.597 3.80986e-17)
(0.0792014 1.59916 4.24759e-17)
(0.548934 1.38815 -5.2933e-17)
(0.457557 1.43959 0)
(1.01911 0.0387312 -1.93981e-18)
(1.04652 0.004393 1.6873e-18)
(0.983215 -0.0597421 2.24518e-17)
(0.987337 -0.0103738 -3.71314e-17)
(0.99497 0.0515696 0)
(0.701475 1.69282 0)
(0.624439 1.63121 0)
(0.805403 1.40928 0)
(0.588666 1.46721 0)
(0.873083 1.50873 1.78473e-17)
(0.872064 1.48901 0)
(0.58329 1.50997 -1.01316e-18)
(0.4588 1.50123 0)
(0.508899 1.44601 7.34904e-17)
(0.538104 1.45274 2.27919e-17)
(0.843343 0.143928 0)
(0.813663 0.141116 -7.92748e-18)
(0.890419 0.091087 -4.24784e-17)
(0.84223 0.11749 -6.22464e-19)
(0.835395 0.112764 5.28657e-17)
(1.00825 0.200059 4.79779e-17)
(0.857734 0.31158 1.75735e-17)
(0.814549 0.289257 -2.79656e-17)
(0.934568 0.18645 -3.2144e-17)
(0.869354 0.159909 9.01619e-17)
(0.868581 0.219074 -1.46421e-17)
(0.778297 0.294269 1.88508e-17)
(0.865186 0.265117 0)
(0.933871 0.182545 -1.99046e-17)
(0.935216 0.217579 0)
(0.966553 0.256709 0)
(1.01431 0.184114 -2.77123e-17)
(0.953887 0.235522 1.93767e-17)
(0.938949 0.174088 2.37733e-17)
(0.966187 0.183856 0)
(0.973635 0.0707587 -6.17123e-17)
(0.992077 0.0129365 -3.08874e-17)
(1.0104 0.070838 2.23065e-17)
(0.98721 0.086637 5.93617e-17)
(0.918004 0.0561157 1.37494e-17)
(0.921167 0.154186 0)
(0.948899 0.0231861 0)
(0.915635 0.0951145 5.47169e-17)
(0.908659 0.0522196 -5.02517e-18)
(0.990428 0.10587 -6.81229e-17)
(1.01591 0.133105 4.01527e-17)
(0.971667 0.140935 -5.42325e-17)
(0.932001 0.179864 0)
(0.964213 0.104341 0)
(0.969844 0.103162 4.49057e-17)
(0.965317 0.115179 2.06958e-17)
(0.588375 1.59859 8.20349e-19)
(0.547549 1.64877 2.99224e-18)
(0.73262 1.63371 3.5646e-17)
(0.738617 1.91301 -7.59063e-18)
(0.887473 1.6326 4.62777e-17)
(0.963467 1.76309 -1.87255e-17)
(1.03161 1.63456 5.09764e-18)
(0.799039 1.78842 1.72656e-17)
(0.819427 1.72158 -4.85229e-17)
(0.819272 2.09614 -1.3299e-17)
(0.941826 1.96884 1.42786e-17)
(1.01367 1.99221 0)
(0.242824 1.28451 4.47065e-19)
(-0.54796 1.81463 -2.61642e-17)
(0.161175 0.231444 -2.73998e-17)
(-0.160871 0.664906 -3.79086e-17)
(0.39591 0.360916 -3.20154e-17)
(0.371062 0.353396 4.68258e-17)
(0.319667 0.344285 -4.09364e-17)
(0.349569 0.285656 1.5131e-17)
(0.400507 0.269308 -3.44331e-17)
(0.755329 0.282024 3.05283e-17)
(0.65078 0.324514 0)
(0.686719 0.269309 3.79957e-18)
(0.54025 0.504354 -2.27378e-17)
(0.459721 0.515302 6.46794e-17)
(0.395936 0.426748 -3.67451e-18)
(0.442031 0.413882 0)
(0.392923 1.06057 -3.40014e-17)
(0.687238 0.999306 2.85927e-18)
(0.606319 1.06981 6.105e-17)
(0.672955 1.02272 1.95237e-17)
(0.870379 0.980581 1.73045e-18)
(0.845539 1.04473 -7.98292e-18)
(0.752705 0.738016 4.1884e-17)
(0.76731 0.87568 -4.49145e-18)
(0.906945 0.894356 0)
(0.861932 0.803899 3.15928e-17)
(0.90777 0.40493 1.71199e-17)
(1.04376 0.344382 -3.95315e-17)
(1.07857 0.307326 -5.5538e-17)
(0.874862 0.46092 5.58482e-17)
(1.01548 0.398238 0)
(0.963056 0.42118 0)
(0.795471 0.400655 3.10699e-17)
(0.741134 0.322187 0)
(0.727642 0.348172 -2.779e-17)
(0.905667 0.290002 4.2162e-17)
(0.834093 0.510933 -1.68158e-16)
(0.706216 0.555224 -3.01461e-17)
(0.760511 0.55386 3.34209e-17)
(0.703716 0.430046 -3.13156e-17)
(0.653072 0.482246 -2.02798e-17)
(0.617824 0.444197 1.54108e-17)
(0.977358 0.0796588 -7.25394e-17)
(0.983962 -0.0664293 0)
(1.01192 0.0140641 -2.24364e-17)
(0.958814 0.0799821 5.66046e-17)
(1.0043 -0.0252572 -4.6463e-17)
(0.98915 0.0642471 6.88263e-17)
(0.998247 0.00384333 0)
(0.978752 -0.0398629 2.17225e-17)
(0.995024 0.063118 -3.48913e-17)
(0.955913 0.0190933 1.55053e-17)
(0.968945 -0.0480299 -7.46457e-18)
(-0.00409611 1.80056 0)
(0.0869914 1.76841 0)
(0.0503285 1.78979 0)
(0.00333564 1.81856 0)
(0.088874 1.72736 -3.22456e-17)
(0.109654 1.74323 -5.74427e-17)
(0.102743 1.75654 -1.21045e-17)
(0.125199 1.7478 -6.14381e-17)
(0.0390436 1.72816 5.30423e-17)
(0.0414124 1.77375 2.41331e-17)
(0.0497117 1.76799 7.40153e-17)
(0.0472397 1.78751 5.22734e-17)
(0.00346516 1.74044 8.55621e-18)
(0.0241385 1.78773 3.0225e-18)
(0.0830471 1.68061 -2.62631e-17)
(0.115303 1.70741 0)
(0.133392 1.70405 -3.241e-17)
(0.0645813 1.78704 -1.0391e-17)
(0.158927 1.65999 -5.00351e-18)
(0.164195 1.5872 0)
(0.134272 1.59159 5.8546e-17)
(0.169863 1.59939 1.24507e-17)
(0.134185 1.6633 -2.19785e-17)
(0.147485 1.70548 -5.90653e-17)
(0.051585 1.59851 0)
(0.0167462 1.73168 3.73167e-17)
(0.027246 1.70253 5.62382e-18)
(-0.0280005 1.66779 0)
(0.0496649 1.76565 1.30333e-17)
(0.0241578 1.72948 2.13634e-18)
(-0.000144154 1.79153 4.3212e-18)
(0.00616815 1.74542 -3.7947e-17)
(-0.0120115 1.73481 -4.71949e-17)
(-0.049967 1.74604 2.06331e-17)
(0.0190437 1.75347 0)
(-0.0102392 1.79505 0)
(0.0202506 1.7447 -3.04244e-17)
(-0.00801983 1.74038 -2.4743e-19)
(-0.00424246 1.80165 0)
(-0.0428788 1.77229 1.52084e-17)
(0.00724378 1.75047 1.05107e-17)
(0.951276 0.123949 0)
(1.02983 0.148738 4.75572e-18)
(1.00045 0.0288126 5.95891e-17)
(0.94064 -0.000919042 0)
(0.998582 -0.0129955 0)
(1.03477 -0.0774599 1.32285e-17)
(0.940673 -0.0575468 -8.58814e-17)
(0.983321 0.00103563 -7.44022e-17)
(0.956579 0.00712667 0)
(0.980584 0.00344196 0)
(0.965827 -0.00830486 -1.38943e-17)
(0.979412 0.0334207 0)
(0.971134 0.0389191 0)
(-0.0340898 1.79234 0)
(-0.00506894 1.71161 -2.56283e-17)
(-0.00318231 1.73925 2.39711e-17)
(-0.00582512 1.73554 0)
(0.0376606 1.69991 -2.74273e-17)
(0.0374601 1.73904 -9.8516e-18)
(-0.0162831 1.76186 0)
(0.403572 1.67919 0)
(0.287 1.71738 5.45117e-17)
(0.314477 1.66011 0)
(0.395694 1.7515 1.26536e-18)
(0.454966 1.82758 0)
(0.428229 1.81124 4.26154e-17)
(0.58347 1.4529 5.70478e-19)
(0.533038 1.38207 2.15351e-17)
(0.591829 1.39027 -5.93176e-17)
(0.462241 1.41729 -1.34081e-17)
(0.496496 1.43588 0)
(0.515739 1.44722 0)
(0.546814 1.40258 0)
(0.49865 1.41025 2.75499e-17)
(0.323287 1.50082 -1.76265e-18)
(0.413796 1.44224 7.53809e-18)
(0.405337 1.45261 -2.65503e-18)
(0.351632 1.46666 0)
(0.42244 1.46476 0)
(0.403635 1.46235 8.52128e-18)
(0.393729 1.44787 0)
(0.473997 1.5334 0)
(0.386876 1.50773 -4.98064e-18)
(0.437883 1.3347 -1.61884e-18)
(0.616565 1.57423 0)
(0.527322 1.58654 -9.57864e-17)
(0.661194 1.24214 4.72094e-18)
(0.758659 1.29719 0)
(0.734479 1.23817 -3.73227e-17)
(0.456604 1.4883 0)
(0.486898 1.32182 0)
(0.740168 1.53764 2.98296e-17)
(0.708977 1.58222 9.9215e-18)
(0.604518 1.56465 -5.20205e-17)
(0.6202 1.5408 6.27337e-18)
(0.729964 1.45663 0)
(0.665534 1.47139 -1.34921e-17)
(0.795181 1.46391 1.33375e-17)
(0.785033 1.4377 -4.78015e-18)
(0.538471 1.56736 0)
(0.541943 1.65719 3.23961e-17)
(0.582448 1.66618 0)
(0.825675 0.235247 0)
(0.808102 0.175482 0)
(0.750654 0.20776 0)
(0.804115 0.256673 2.54635e-17)
(0.749739 0.232031 -1.36054e-17)
(0.933133 0.0353974 2.98662e-17)
(0.917113 0.0822565 0)
(0.876925 0.0513823 -9.38395e-18)
(0.832584 0.0827535 -3.84018e-17)
(0.86775 0.0326748 1.94116e-17)
(0.74972 2.33755 -3.04535e-17)
(0.725812 2.24287 0)
(0.709031 2.50156 -6.76456e-17)
(0.223822 2.70953 1.31372e-17)
(0.274221 2.34584 2.88483e-17)
(0.0371095 1.5942 -4.3253e-17)
(0.168376 1.60805 0)
(-0.138943 0.796811 9.69835e-18)
(-0.032131 0.908339 -1.08533e-17)
(0.0115888 0.337199 1.4624e-17)
(0.237253 0.45236 -5.82269e-18)
(0.451539 0.514602 -2.57862e-17)
(0.519753 0.552582 0)
(0.261554 0.714816 0)
(0.246537 0.608469 0)
(0.847573 0.725655 -6.23742e-18)
(0.738292 0.582796 3.35403e-17)
(0.793859 0.649794 -2.84401e-17)
(0.824697 0.540346 3.62974e-17)
(1.04175 0.558892 0)
(1.01155 0.656259 1.60624e-18)
(0.742154 0.368265 4.59471e-17)
(0.725166 0.347573 6.67218e-17)
(0.62652 0.448013 -3.27158e-17)
(0.664447 0.38411 3.00481e-17)
(0.735745 0.338184 1.82771e-17)
(0.712819 0.332634 -3.93938e-17)
(1.02788 -0.0102484 1.03323e-17)
(1.02729 0.0071328 -9.17482e-17)
(1.01592 0.0648397 -1.95068e-17)
(1.00659 0.012263 8.22112e-17)
(0.887977 0.0459335 0)
(0.854347 -0.0203518 7.38488e-17)
(0.0524967 1.73424 1.27865e-17)
(0.0280836 1.72243 0)
(0.0451524 1.73907 -5.68037e-17)
(0.0251845 1.73586 -8.91278e-18)
(0.0417889 1.67271 -3.68408e-17)
(0.0228776 1.71114 0)
(0.105102 1.77776 0)
(0.00133682 1.76003 -9.75343e-18)
(-0.0167488 1.62646 -1.39284e-17)
(-0.00270688 1.64528 -3.03642e-17)
(-0.0171281 1.75482 -2.9256e-18)
(0.0694969 1.6979 -4.37906e-18)
(0.497104 1.5861 -2.73525e-17)
(0.496873 1.61621 -1.21374e-16)
(0.474939 1.70026 7.39865e-17)
(0.506685 1.64504 -4.95167e-18)
(0.638516 1.7148 0)
(0.529006 1.82147 7.3147e-17)
(0.545498 1.79952 1.52858e-17)
(0.514146 1.76443 1.4615e-17)
(0.580215 1.72439 0)
(0.582731 1.66258 0)
(0.386212 1.49074 -6.20671e-17)
(0.264814 1.47836 -8.31667e-17)
(0.337166 1.47366 -4.52094e-18)
(0.226575 1.49545 3.50565e-18)
(0.341713 1.53131 -8.99361e-18)
(0.216663 1.50558 1.28695e-17)
(0.622631 1.39845 1.96652e-17)
(0.739608 1.40839 0)
(0.687665 1.39812 3.17166e-17)
(0.62855 1.41736 0)
(0.632808 1.39842 0)
(0.213935 2.05049 2.27512e-17)
(0.472867 2.03 2.23917e-17)
(0.35363 2.1957 -2.57971e-17)
(-0.362583 1.66527 0)
(-0.334997 1.50958 2.99397e-18)
(-0.102506 1.56421 -4.09323e-18)
(0.0410378 2.11918 0)
(-0.14539 2.36353 -1.11207e-17)
(-0.335757 2.50892 0)
(0.420189 0.86179 3.21453e-17)
(0.591071 0.905768 -8.85059e-17)
(0.597856 0.808272 4.4554e-17)
(0.314462 0.752018 3.83748e-18)
(0.488214 0.659561 2.18024e-17)
(0.470413 1.94331 -2.46911e-17)
(0.587322 1.78251 2.64011e-17)
(0.407074 1.9883 -3.41882e-17)
(0.446035 1.84996 4.35005e-17)
(0.576927 1.62362 6.04672e-17)
(0.606149 1.70916 -1.50254e-17)
(0.626119 1.69075 -4.29545e-17)
(0.551655 1.77831 -1.76963e-18)
(0.536254 1.71428 5.04112e-18)
)
;

boundaryField
{
    wall-4
    {
        type            calculated;
        value           uniform (0 0 0);
    }
    velocity-inlet-5
    {
        type            calculated;
        value           uniform (1 0 0);
    }
    velocity-inlet-6
    {
        type            calculated;
        value           uniform (0 3 0);
    }
    pressure-outlet-7
    {
        type            calculated;
        value           nonuniform List<vector> 8((-0.150369 1.76601 0) (-0.0640346 1.69791 3.55442e-17) (-0.0361279 1.70514 0) (0.00668883 1.78255 0) (-0.0107353 1.73903 0) (0.000517036 1.74822 0) (-0.00365044 1.73704 0) (0.0362798 1.76796 0));
    }
    wall-8
    {
        type            calculated;
        value           uniform (0 0 0);
    }
    frontAndBackPlanes
    {
        type            empty;
    }
}

