/*--------------------------------*- C++ -*----------------------------------*\
  =========                 |
  \\      /  F ield         | OpenFOAM: The Open Source CFD Toolbox
   \\    /   O peration     | Website:  https://openfoam.org
    \\  /    A nd           | Version:  6
     \\/     M anipulation  |
\*---------------------------------------------------------------------------*/
FoamFile
{
    version     2.0;
    format      ascii;
    class       volVectorField;
    location    "0";
    object      U_rec;
}
// * * * * * * * * * * * * * * * * * * * * * * * * * * * * * * * * * * * * * //

dimensions      [0 1 -1 0 0 0 0];

internalField   nonuniform List<vector> 
918
(
(0.66829 -0.227735 0)
(0.201697 2.82046 0)
(-0.300383 1.72338 0)
(0.590416 0.207164 0)
(0.210654 1.78017 8.09465e-18)
(-0.250612 2.65385 -2.21404e-16)
(1.09845 1.80524 -4.35998e-17)
(0.438238 0.267761 -1.30331e-18)
(0.700928 0.00834204 0)
(0.0251959 1.76636 0)
(0.0171001 1.72764 0)
(0.935472 0.00474662 0)
(0.0401953 3.16414 0)
(0.0751308 2.98093 0)
(-0.109031 2.65913 -6.21784e-17)
(-0.0135073 1.71136 -1.13892e-18)
(0.689078 0.171826 9.97097e-17)
(0.180499 2.06576 -4.33926e-17)
(0.987385 0.0395268 0)
(0.00980064 1.71829 0)
(0.143743 -0.175284 -5.83004e-17)
(0.506665 -0.0410021 0)
(0.832415 0.0806067 0)
(1.07846 0.0436353 0)
(0.856676 0.0456153 0)
(0.0884302 3.12063 0)
(0.00294708 2.90508 6.2394e-17)
(-0.464374 1.82375 0)
(-0.0548219 1.67583 0)
(-0.2768 1.76576 0)
(-0.0232054 1.65735 0)
(-0.18831 1.64189 1.13542e-17)
(-0.0266578 1.71103 0)
(-0.396803 3.1731 -8.1492e-21)
(-0.0380966 3.04187 1.62863e-16)
(0.0655789 2.95964 0)
(0.982668 -0.00385436 0)
(0.83928 1.34361 3.32824e-17)
(1.12514 1.70926 8.34839e-17)
(1.23863 1.61379 -6.52116e-17)
(0.927966 1.88616 1.16672e-17)
(0.887442 1.98674 -4.99382e-17)
(0.465577 0.312537 1.32603e-18)
(0.51036 0.269529 0)
(1.37495 0.812799 0)
(0.377852 0.318641 5.88763e-18)
(0.357894 0.245593 -5.92328e-18)
(0.996787 -0.00911384 0)
(0.950085 0.0106976 0)
(0.704168 0.00221639 0)
(0.920509 -0.143589 0)
(0.903528 0.0450524 0)
(0.711989 0.0462321 0)
(-0.00541311 1.60822 -5.87781e-17)
(0.0387931 1.81416 0)
(0.014419 1.83184 0)
(-0.00838002 1.79419 0)
(-0.00862061 1.8133 0)
(-0.0112891 1.72234 0)
(0.0398513 1.74763 0)
(0.00326815 1.75275 0)
(-0.00361426 1.71047 0)
(-0.000234459 1.70234 0)
(1.01128 0.00382257 0)
(0.947874 0.0274511 0)
(0.956247 0.00274747 0)
(0.936269 0.00755217 0)
(0.935771 0.00501683 0)
(-0.177138 2.85838 8.26456e-17)
(0.357944 2.82352 0)
(-0.045533 2.66539 0)
(0.115793 3.29999 9.2455e-22)
(-0.208456 3.11353 -1.13881e-16)
(0.0527743 3.1554 0)
(0.0493723 3.01465 0)
(0.10552 3.02247 1.9484e-22)
(0.0203457 2.94672 0)
(-0.0317332 2.99961 0)
(-0.0566106 2.96514 0)
(0.155698 2.8057 0)
(-0.0640975 2.90394 0)
(-0.0243711 2.73028 6.12571e-17)
(-0.0787168 2.65055 0)
(0.000779355 1.73328 0)
(-0.0234439 1.72367 1.28336e-17)
(0.0137919 1.72261 -2.86661e-18)
(0.709761 0.175419 -3.56386e-17)
(0.727619 0.149031 -3.37648e-17)
(0.674741 0.221899 -9.92449e-17)
(0.653352 0.206495 -6.73066e-17)
(0.165241 1.4184 0)
(0.347511 2.09629 2.55589e-17)
(0.419787 2.13272 -6.03948e-17)
(1.0058 -0.00553334 0)
(0.990546 -0.00216525 0)
(0.682751 -0.0147761 0)
(0.987418 0.0383242 0)
(0.997302 0.134384 -4.07499e-16)
(1.11682 0.291414 3.55787e-16)
(0.0182334 1.74129 0)
(-0.0110736 1.74003 0)
(-0.0383429 1.69707 0)
(-0.0557211 1.74228 0)
(-0.0406738 1.74259 0)
(0.315633 0.0882349 1.8036e-17)
(0.207553 0.200111 0)
(1.0558 -0.00492055 0)
(1.0169 -0.00684526 0)
(0.923215 0.055175 0)
(0.878706 0.156416 0)
(0.898471 0.0188543 0)
(1.14 -0.0109427 0)
(0.843231 0.0613443 0)
(0.81642 0.0372698 1.67599e-16)
(-0.0824654 2.88204 8.78654e-17)
(0.0214568 3.06284 0)
(-0.0539944 3.16235 0)
(0.0381998 2.9978 0)
(0.0711108 2.94675 7.06539e-17)
(0.0572051 2.91881 0)
(0.0338249 2.92541 -2.36089e-16)
(-0.0486751 2.89405 8.37121e-17)
(0.0272926 1.73468 0)
(-0.0183764 1.75023 0)
(0.00555153 1.71653 -1.78709e-19)
(-0.0508368 1.73299 0)
(0.0140215 1.71779 0)
(0.983144 0.00572301 0)
(0.981984 -0.00436585 0)
(0.979015 -0.00170063 0)
(0.985453 -0.00732844 0)
(0.981187 0.005293 0)
(0.900982 1.41745 -4.43768e-17)
(0.947672 1.36907 0)
(0.816487 1.37155 4.69153e-18)
(0.771456 1.31065 0)
(1.20716 1.47535 2.48636e-17)
(1.34725 1.32617 -4.71519e-17)
(0.551024 2.11817 0)
(0.757425 2.03452 0)
(0.674803 2.09538 0)
(0.521204 1.26924 -2.18655e-17)
(0.525261 0.307231 0)
(0.555018 0.252167 1.72463e-17)
(1.25164 1.23072 0)
(1.276 0.984159 0)
(1.38055 1.06094 4.98766e-17)
(1.32802 0.773949 0)
(1.38798 0.637805 -4.56025e-18)
(0.989171 0.0138378 0)
(1.00087 -0.0160224 0)
(0.992514 -0.00207277 0)
(1.0097 -0.0015906 0)
(1.00188 -0.0264505 0)
(0.990587 0.00119198 0)
(0.913655 -0.0161135 0)
(0.9232 -0.00996777 0)
(0.709321 -0.000255089 0)
(-0.00474129 1.62929 3.6098e-17)
(0.0184214 1.58602 0)
(0.0300667 1.65303 5.69533e-17)
(0.0178204 1.67447 -5.30012e-17)
(0.0851947 2.01178 2.33871e-17)
(0.0217471 1.89963 0)
(0.00826193 1.95985 0)
(0.0125884 1.79018 0)
(0.0166423 1.73338 0)
(-0.0182205 1.72747 -2.82912e-19)
(0.000446553 1.72427 0)
(0.0357273 1.72657 -2.16043e-17)
(0.0337485 1.72399 3.0859e-17)
(0.0309258 1.73654 0)
(0.026068 1.75006 0)
(0.00654209 1.7305 0)
(-0.0053624 1.74119 0)
(-0.00819009 1.78291 0)
(1.02086 0.0275576 0)
(1.02368 0.00544454 0)
(1.00375 0.00252672 0)
(0.995611 0.00315643 0)
(0.969778 -0.00169931 0)
(0.957329 0.00220434 0)
(0.950401 0.0102073 0)
(0.944444 -0.000304157 0)
(0.0953552 3.05211 -7.24956e-19)
(0.122238 3.07236 0)
(0.0501076 3.02818 0)
(-0.00311146 2.96477 0)
(0.617552 3.05048 0)
(1.15398 2.38485 -1.76366e-17)
(-0.0975489 2.72874 0)
(-0.0920849 2.6831 0)
(-0.0266612 1.80894 0)
(-0.0095669 1.71038 0)
(-0.00174052 1.74277 0)
(0.144391 1.8464 -1.13043e-17)
(0.00580975 1.80935 0)
(0.0508886 1.77898 0)
(0.0322686 1.72636 -1.08217e-17)
(0.0382675 1.71704 5.22795e-18)
(0.00932221 1.70886 1.49564e-17)
(0.00657027 1.69462 0)
(0.738589 0.171731 5.14772e-17)
(0.745272 0.0937076 -5.53766e-17)
(0.19342 1.42238 0)
(0.20828 1.3526 -1.21455e-17)
(0.126234 1.50782 -4.51364e-17)
(0.0739492 1.50036 3.49064e-17)
(0.988062 -0.00372942 0)
(0.984912 -0.0151182 0)
(0.990539 0.00611534 0)
(0.973742 0.00307295 0)
(0.00195595 1.77047 0)
(0.00213084 1.73525 0)
(0.00603195 1.73149 0)
(0.292581 0.291177 5.32579e-17)
(0.222637 0.241204 -6.19063e-17)
(0.277106 0.213409 0)
(1.17493 0.116663 6.84074e-18)
(1.25406 0.0584872 0)
(1.10655 0.0497247 0)
(1.07355 0.00687335 0)
(0.766362 0.104295 0)
(0.80664 0.0640709 -2.55277e-16)
(0.769977 0.0588306 9.33162e-17)
(-0.110884 2.93712 7.20819e-17)
(-0.0403899 2.93677 -8.70446e-18)
(0.151693 3.10572 -1.50788e-18)
(0.182586 3.27665 5.18322e-17)
(-0.0317193 2.96877 2.64642e-18)
(-0.0914758 2.98749 -1.06763e-20)
(-0.0709456 3.11966 -4.76771e-17)
(0.409168 3.22883 3.10232e-17)
(0.173582 3.36697 -6.13239e-17)
(0.997519 0.0115353 0)
(0.980027 0.0452701 0)
(0.9918 0.01522 0)
(0.980527 -0.00664837 0)
(0.971601 -0.00614281 0)
(0.965304 -0.000331702 0)
(0.96678 -0.00896645 0)
(0.97606 0.0128906 0)
(0.966593 0.00213141 0)
(0.997367 1.40893 -5.04955e-17)
(1.01188 1.40169 0)
(0.655369 1.25189 6.9314e-18)
(0.675423 1.31631 5.55088e-17)
(0.761326 1.34931 -3.62381e-17)
(0.724007 1.30358 6.40498e-17)
(0.509758 1.29619 1.03391e-16)
(0.493615 1.2856 2.19613e-17)
(0.636927 0.249056 6.74739e-17)
(0.583965 0.278182 1.74713e-17)
(0.61517 0.238555 3.45557e-17)
(1.29855 0.570443 -5.69022e-17)
(1.34893 0.405378 -5.63357e-17)
(0.00222335 1.68595 1.96256e-17)
(-0.002097 1.67415 0)
(1.06402 0.0439359 0)
(1.0399 0.0196439 0)
(1.0411 0.00254233 0)
(0.0457599 3.07507 0)
(0.0834882 2.99759 1.01642e-16)
(0.0539016 3.00795 0)
(0.00174209 2.94684 -1.1155e-16)
(-0.0453094 3.05778 2.87375e-17)
(0.0212772 3.04154 0)
(0.996616 1.50486 1.388e-17)
(1.0943 1.87627 -5.21882e-17)
(0.957908 1.54546 4.36491e-17)
(-0.129685 2.88074 -7.22541e-17)
(-0.129576 2.78808 0)
(-0.0856055 2.79566 0)
(-0.0190651 1.72635 1.08287e-17)
(0.0608478 1.6934 -2.5294e-17)
(-0.0198785 1.67864 1.07962e-17)
(0.234033 1.37139 3.74829e-17)
(0.268415 1.30823 -2.88662e-17)
(0.0464947 1.59898 2.9049e-17)
(0.076455 1.55507 -4.33363e-17)
(0.0272365 1.54543 -9.46301e-18)
(-0.058534 3.10151 -1.47348e-16)
(-0.0794245 3.10834 2.18956e-16)
(0.0835608 2.9527 7.95404e-17)
(-0.0720403 3.02338 -8.04748e-17)
(0.154574 2.93988 -7.04272e-17)
(-0.0530874 3.01962 -2.10374e-16)
(-0.146206 3.06355 1.78226e-16)
(0.535216 1.29436 0)
(0.595113 1.29132 -1.11893e-16)
(0.570618 1.22972 4.53196e-17)
(0.430115 1.33938 5.93782e-17)
(0.399731 1.29986 -7.96603e-17)
(1.25555 0.208631 2.69192e-17)
(1.29861 0.402035 0)
(1.33506 0.256964 -2.87123e-17)
(-0.00404406 1.73015 -3.21541e-19)
(-0.00593438 1.69575 0)
(0.00757934 1.70487 0)
(0.288865 1.35892 -1.4481e-17)
(0.355408 1.34213 -3.81574e-17)
(0.356143 1.33565 5.60401e-17)
(1.00932 -0.0814394 0)
(1.127 -0.140643 8.35763e-17)
(0.0683049 1.74426 0)
(0.0169604 1.66129 0)
(1.07194 -0.0674632 2.86955e-20)
(0.905317 -0.105364 1.64302e-16)
(0.0787917 1.89614 -1.59192e-17)
(0.104787 1.76869 0)
(-0.167541 2.82309 7.77921e-17)
(0.0621529 2.61341 0)
(1.20019 0.649727 -3.0189e-17)
(1.07158 -0.00888096 1.40779e-17)
(1.08669 0.0308965 0)
(1.00708 -0.00372048 5.51653e-20)
(0.019597 1.9119 0)
(0.12246 1.80206 0)
(-0.0246633 1.81122 0)
(0.119364 1.85105 7.08469e-18)
(0.0649711 1.83211 2.5776e-17)
(0.999767 0.00520379 1.38309e-17)
(1.09076 0.081713 0)
(1.10643 0.0610507 0)
(-0.0254868 1.73407 0)
(0.0721957 1.7748 0)
(-0.0799742 1.7995 0)
(0.245208 1.99034 1.97065e-17)
(1.02377 -0.135249 0)
(0.982128 -0.0595459 0)
(0.991104 0.14898 9.96272e-17)
(0.953754 0.051444 -1.19263e-16)
(1.14286 -0.0693202 0)
(0.0947394 1.77573 0)
(-0.0941163 1.72925 0)
(-0.0574707 1.82872 0)
(-0.0823299 1.77412 0)
(-0.194465 1.82053 0)
(-0.0317102 1.61667 0)
(1.01407 0.00657509 0)
(1.02828 -0.00536248 1.41319e-17)
(0.902392 1.71125 -4.19334e-17)
(1.02092 -0.166306 -9.95643e-17)
(1.03845 0.0730947 1.19729e-16)
(1.17699 0.0705234 0)
(0.984287 -0.00752625 1.06371e-16)
(1.08534 0.111115 -1.14501e-16)
(0.975776 0.0205928 0)
(0.0485212 1.76376 0)
(0.158489 1.76891 1.86907e-19)
(0.00174909 1.66218 -1.09482e-17)
(1.1977 0.297242 1.3235e-16)
(1.12887 0.0963462 0)
(-0.786327 2.82462 -9.68383e-17)
(-0.284239 3.37884 -6.42071e-18)
(-0.4556 2.66106 1.54653e-16)
(-0.0873532 2.76504 -3.63341e-17)
(-0.0693757 2.73307 0)
(-0.0962187 2.90446 3.55161e-17)
(-0.421532 3.06613 9.95208e-17)
(-0.162003 2.88128 -5.92992e-17)
(-0.363389 3.06122 0)
(0.613354 0.309417 0)
(0.435575 0.360214 0)
(1.0468 0.880783 8.26531e-17)
(1.13394 0.934878 -9.51705e-17)
(1.13948 0.559722 0)
(1.1164 0.609441 0)
(1.03577 0.0493792 -1.8797e-16)
(0.95907 0.0258636 2.33771e-16)
(1.08589 -0.135666 0)
(0.956953 -0.0707044 0)
(0.868588 0.0848479 0)
(1.09153 -0.065662 0)
(1.03417 0.0769664 0)
(0.972795 -0.0245575 0)
(1.061 -0.151803 0)
(0.981317 -0.00370788 0)
(0.00206917 1.85096 0)
(0.0286675 1.74115 0)
(0.0257478 1.83295 0)
(0.130864 1.81712 0)
(0.191986 1.76035 0)
(0.0770809 1.6454 -2.15072e-17)
(0.131996 1.68873 0)
(0.0230463 1.63276 2.77125e-17)
(0.103272 1.77716 -4.37819e-17)
(0.0476547 1.77908 0)
(0.0890681 1.67014 0)
(-0.0750931 1.73759 0)
(-0.0629159 1.70242 0)
(-0.0563512 1.78163 -2.98019e-17)
(0.0440878 1.70741 1.05178e-17)
(-0.00200424 1.80804 2.86919e-17)
(0.0164383 1.65552 0)
(-0.00280564 1.78119 -2.5778e-17)
(0.00681434 1.67207 -3.1215e-17)
(0.104311 1.8446 -6.40411e-18)
(-0.20127 1.47024 -3.18191e-17)
(0.0268334 1.56476 -2.07101e-17)
(0.967251 -0.0384176 1.68635e-16)
(0.939314 -0.0603821 -2.12809e-16)
(0.965344 0.0521561 -1.64283e-16)
(0.890623 0.0344858 2.03894e-16)
(1.06361 0.134163 0)
(0.965648 0.0497285 0)
(1.01831 0.0791505 0)
(1.04876 -0.0097372 0)
(0.927187 0.0112926 0)
(1.07468 0.121764 0)
(1.07811 0.0220008 0)
(0.96183 0.0427538 0)
(-0.238959 1.67484 1.04104e-18)
(-0.0526992 1.79989 0)
(-0.00667224 1.79101 0)
(0.118139 1.71207 3.63438e-18)
(0.103032 1.71021 -2.58627e-19)
(-0.0333472 1.76835 1.4733e-17)
(-0.274211 1.68983 6.65537e-19)
(-0.190617 1.71891 0)
(0.00517406 1.82337 0)
(0.0616296 1.73448 0)
(-0.130586 1.74333 0)
(-0.116551 1.73486 0)
(0.333038 1.90044 -8.0353e-17)
(0.433961 1.97819 -1.71683e-17)
(0.284096 1.49356 -1.03269e-17)
(0.188375 1.6454 3.82305e-17)
(0.310642 1.80125 2.11911e-17)
(1.03203 0.0434361 0)
(0.999445 0.0533382 0)
(0.99831 0.0686243 0)
(0.965347 -0.0410887 0)
(1.03166 -0.0851112 0)
(0.925243 0.0408701 0)
(1.01475 0.166848 0)
(1.03156 0.00329016 0)
(0.971619 -0.0420902 1.79831e-16)
(0.959818 -0.0430095 -2.27223e-16)
(0.995288 0.0410009 -1.75829e-16)
(0.931109 0.0359108 2.19862e-16)
(0.840064 1.69366 0)
(0.808725 1.70749 -6.71876e-17)
(0.829801 1.62054 -3.22125e-17)
(0.958162 1.46642 7.148e-17)
(0.89687 1.57284 1.35321e-16)
(0.842653 0.115323 6.06852e-17)
(1.0899 0.101051 0)
(1.1367 0.31901 -1.33749e-16)
(1.03579 0.123091 -5.01505e-18)
(0.960603 0.144262 0)
(-0.80854 2.58634 8.92742e-17)
(-0.964032 2.48471 -1.20283e-16)
(-1.23173 3.13974 7.77979e-17)
(-1.35725 1.09285 -3.51627e-17)
(-0.135174 2.64873 4.02656e-17)
(-0.18115 2.7703 0)
(-0.0272956 2.66525 -5.88552e-17)
(-0.496541 2.55104 -1.75915e-16)
(-0.370151 2.51093 0)
(-0.152508 2.9293 5.45283e-18)
(-0.114497 3.15152 -6.54632e-17)
(-0.0747334 3.00293 8.45733e-17)
(-0.25933 3.03906 0)
(-0.117136 2.94343 0)
(1.05865 1.7624 0)
(0.292141 1.28182 -4.02809e-17)
(1.07413 1.14939 3.12793e-17)
(0.885901 1.47419 0)
(0.75639 1.12794 -3.05598e-17)
(0.991212 1.16776 -1.00411e-17)
(-0.0138907 -0.0239436 -8.11359e-17)
(0.607398 0.273324 1.92664e-18)
(0.591701 0.29612 4.12633e-17)
(0.349428 0.462667 2.66428e-18)
(0.261004 0.326099 -1.04524e-16)
(0.522535 0.441491 0)
(0.517267 0.562931 6.77331e-17)
(0.533792 0.353713 0)
(0.401028 0.375352 0)
(0.438539 0.344042 0)
(0.558387 0.777411 5.83609e-17)
(1.20716 0.227235 -1.09446e-16)
(1.09469 0.547905 0)
(1.17003 0.271899 0)
(0.761988 0.227181 6.39262e-17)
(0.544862 0.743686 -3.33206e-17)
(0.495782 0.552652 7.55676e-17)
(0.822619 0.426621 -1.06404e-16)
(0.967665 -0.0350252 1.28345e-16)
(0.992068 0.169751 -1.17798e-16)
(0.951345 0.0544619 0)
(0.963081 -0.0253368 0)
(0.965202 -0.0285201 -1.23844e-16)
(0.950268 0.0382064 1.09636e-16)
(0.917 0.100967 0)
(0.905013 0.034939 0)
(1.05155 -0.0198122 0)
(0.91974 -0.0403537 0)
(1.04083 -0.0244309 0)
(0.966487 -0.071754 0)
(0.203914 1.7934 0)
(0.150671 1.75449 0)
(0.194312 1.81434 -4.40085e-17)
(0.291085 1.94704 -2.68632e-17)
(0.324392 1.86049 -2.99682e-17)
(0.212561 1.88428 7.63664e-17)
(-0.0558212 1.75822 0)
(0.167049 1.74492 -2.44772e-17)
(-0.0474633 1.86715 0)
(0.239088 1.66741 -1.49407e-17)
(0.120651 1.55569 3.99701e-17)
(0.307191 1.58336 4.49786e-17)
(0.156553 1.68716 -2.62282e-17)
(0.0309949 1.66446 7.97231e-18)
(0.149086 1.77561 -5.10914e-17)
(0.20368 1.71022 0)
(0.259001 1.61458 2.77414e-17)
(0.132593 1.63987 -1.10802e-17)
(0.144555 1.70485 0)
(-0.00789044 1.73531 2.05294e-17)
(-0.124894 1.64467 0)
(0.0184597 1.66646 -1.83106e-17)
(0.0108251 1.60389 0)
(0.00155826 1.73947 -1.22724e-17)
(0.0909474 1.65758 0)
(0.0329443 1.71935 0)
(0.0717873 1.71588 3.39613e-17)
(0.161984 1.74666 -1.941e-17)
(0.0359868 1.73618 2.642e-17)
(0.0494602 1.6557 2.72401e-19)
(0.156974 1.66617 2.54021e-17)
(0.0339314 1.46162 2.85199e-19)
(-0.142363 1.66364 0)
(-0.12149 1.72868 0)
(-0.0101146 1.63731 3.95504e-17)
(-0.0492152 1.68139 3.76881e-17)
(0.070189 1.76408 -3.17708e-17)
(-0.00619381 1.77614 0)
(0.125728 1.74526 -4.77896e-18)
(-0.0465015 1.57246 1.27431e-17)
(-0.0416819 1.72725 -6.36685e-18)
(0.154143 1.87973 -1.12919e-18)
(0.244548 1.51862 -5.65914e-18)
(0.0100713 1.53884 1.46809e-17)
(0.951586 0.0626245 -1.10381e-16)
(0.956428 -0.137029 1.20585e-16)
(0.929793 0.0316488 0)
(0.945014 -0.0681275 1.38548e-16)
(0.881149 0.186422 -1.60559e-16)
(0.938267 0.0393191 1.77847e-16)
(0.935036 -0.0212652 -2.0007e-17)
(1.04345 -0.110034 0)
(0.970761 0.0129706 1.05014e-16)
(0.928111 -0.0448491 -1.19029e-16)
(0.912537 -0.0257543 -6.06716e-18)
(0.917139 0.177396 5.48241e-17)
(0.981665 0.134013 0)
(0.915659 0.0824193 -1.9382e-17)
(0.973977 0.0470992 0)
(0.891296 0.0878479 0)
(0.975724 0.0789549 0)
(0.892424 -0.0192201 0)
(0.97118 0.0943261 4.1326e-17)
(1.02057 0.0389488 -8.44385e-17)
(0.961848 0.000155419 -4.50258e-17)
(0.947346 -0.00590038 -4.58432e-17)
(1.10307 0.10123 9.78862e-17)
(0.916055 0.104288 0)
(0.886951 0.00452275 0)
(0.0386073 1.8678 -1.91266e-17)
(0.293386 1.82418 -9.84434e-19)
(0.104024 1.62589 0)
(0.0823602 1.72867 5.71253e-19)
(-0.193232 1.74878 3.00664e-18)
(-0.0915128 1.73156 -2.332e-18)
(-0.111273 1.73695 3.09304e-18)
(-0.00762256 1.70157 -1.05072e-18)
(0.258752 1.63029 3.98829e-18)
(0.104886 1.70486 -2.56685e-18)
(-0.0576483 1.71023 1.61554e-17)
(-0.0627882 1.6142 -3.71921e-18)
(0.00893342 1.82402 4.28496e-18)
(0.471348 1.71704 4.286e-17)
(0.294802 1.80444 5.14975e-17)
(0.720872 1.79396 3.71694e-17)
(0.568583 1.92882 3.04006e-17)
(0.643868 1.92376 0)
(0.288376 1.43827 1.25062e-17)
(0.237317 1.35351 1.52243e-17)
(0.220363 1.50947 -1.1169e-18)
(0.249021 1.48116 -6.58233e-17)
(0.458814 1.49607 3.81008e-17)
(0.170961 1.50955 0)
(0.146127 1.4158 -2.8335e-17)
(0.0590513 1.65701 6.90446e-17)
(-0.0216405 1.6566 9.93765e-18)
(0.00106496 1.53962 -8.48007e-17)
(0.677932 1.40407 6.40291e-17)
(0.469369 1.43257 0)
(1.03684 0.199049 4.02962e-18)
(0.999725 -0.170946 -3.36671e-18)
(0.912497 -0.140852 -6.25639e-17)
(1.00374 0.0243052 5.92888e-17)
(0.950723 0.0243713 0)
(0.73808 1.57641 0)
(0.892219 1.64193 0)
(0.823916 1.29241 0)
(0.681094 1.45982 0)
(0.803703 1.57376 4.67617e-18)
(0.732851 1.47158 0)
(0.572897 1.35304 5.81094e-19)
(0.409467 1.44265 0)
(0.557814 1.54384 -5.16043e-17)
(0.639342 1.38043 5.25691e-17)
(0.790473 0.0957157 0)
(0.779428 0.124143 1.61993e-17)
(0.828654 0.147085 1.09759e-16)
(0.82999 0.0733016 -4.29362e-17)
(0.815045 0.110514 -1.20113e-16)
(1.11186 0.213203 -1.49105e-16)
(0.659694 0.455044 4.58364e-18)
(0.934861 0.138645 1.0276e-16)
(0.86847 0.0756091 9.18135e-17)
(0.805969 0.205282 -1.41214e-16)
(0.883756 0.28845 1.6078e-17)
(0.654284 0.326282 -3.99952e-17)
(0.801559 0.318057 0)
(0.89585 0.166894 7.8729e-17)
(0.951289 0.204982 0)
(0.993795 0.127561 0)
(0.902989 0.23945 4.28091e-17)
(0.9034 0.387776 5.03432e-18)
(0.814335 0.0891919 -2.04185e-17)
(0.91028 0.0796943 0)
(0.885765 0.0567464 8.1765e-17)
(0.899358 -0.119929 1.16173e-16)
(1.07051 0.0916213 -8.99897e-17)
(0.961393 0.19474 -6.67607e-17)
(0.902204 -0.0160687 -1.16019e-16)
(0.834039 0.23319 0)
(0.904842 0.0290484 0)
(0.877056 0.13251 -5.45603e-17)
(0.892686 -0.0580043 2.4771e-17)
(0.982839 0.180292 9.29626e-17)
(1.03018 0.116506 -1.30808e-16)
(0.898765 0.170442 1.07312e-16)
(0.853929 0.250545 0)
(1.01126 0.179339 0)
(0.864264 0.117391 -4.55455e-17)
(0.903081 0.0964836 -8.69769e-17)
(0.583396 1.60403 3.97171e-17)
(0.598469 1.48346 -3.88009e-17)
(0.784594 1.58694 -5.02213e-17)
(0.72956 1.69608 1.33479e-17)
(0.895111 1.57618 -1.46878e-16)
(1.0289 1.7442 4.95435e-17)
(0.94845 1.54512 1.20552e-18)
(0.906839 1.7088 -6.30648e-17)
(0.744215 1.66365 8.6875e-17)
(0.792863 1.92205 2.7746e-17)
(1.06151 1.89036 -2.83008e-17)
(1.06098 1.96605 0)
(0.485428 1.43107 -6.35161e-18)
(-0.819826 1.79049 3.54954e-17)
(-0.623362 0.416064 5.06455e-17)
(-0.653574 0.689408 5.68322e-17)
(0.174031 0.420991 5.85727e-17)
(0.135019 0.401639 -1.01488e-16)
(0.0688331 0.578817 8.28191e-17)
(-0.0620016 0.304781 -2.99809e-17)
(0.156962 0.242641 6.59346e-17)
(0.706585 0.302919 -3.12485e-17)
(0.603806 0.352274 0)
(0.622507 0.271734 9.8341e-19)
(0.514154 0.518074 3.31654e-17)
(0.270423 0.627171 -1.25685e-16)
(0.202438 0.543303 -9.33239e-19)
(0.363877 0.42567 0)
(0.456637 1.00254 3.8783e-17)
(0.679471 0.903973 6.78432e-17)
(0.644005 1.27198 -5.85181e-17)
(0.645198 0.928644 -2.34334e-17)
(0.861542 0.909179 -1.06295e-17)
(0.940445 1.12938 9.23505e-18)
(0.647683 0.76425 -8.71244e-17)
(0.710336 1.01363 2.57367e-17)
(0.99793 0.845053 0)
(0.877333 0.77624 -3.11821e-17)
(0.832165 0.375201 4.03453e-17)
(0.912559 0.437704 5.80822e-17)
(1.04375 0.337909 4.75181e-17)
(0.846903 0.460401 -5.20551e-17)
(1.00922 0.392278 0)
(0.971852 0.362428 0)
(0.65142 0.439489 8.04698e-18)
(0.782991 0.258966 0)
(0.597297 0.348266 4.00425e-17)
(0.876401 0.290823 1.11968e-17)
(0.867933 0.634508 2.47577e-16)
(0.66831 0.582337 6.80542e-17)
(0.644431 0.563789 -6.35659e-17)
(0.617206 0.48033 6.9086e-17)
(0.597627 0.602318 3.68316e-17)
(0.525978 0.41393 -3.63156e-17)
(0.996955 0.1157 9.03705e-17)
(0.91193 -0.147952 0)
(0.936734 0.0258926 6.75867e-17)
(0.856004 0.228811 -1.50716e-16)
(1.02752 -0.0167696 6.8102e-17)
(0.884794 0.0430309 -1.51998e-16)
(1.01454 -0.0160395 0)
(0.941668 -0.0157168 -2.8955e-17)
(0.950103 0.105093 7.80362e-17)
(0.943292 0.00434978 -4.04306e-17)
(0.915651 -0.149027 3.07027e-17)
(-0.116841 1.76101 0)
(0.249317 1.64382 0)
(-0.0494617 1.74788 0)
(-0.0181555 1.77109 0)
(0.0681496 1.83155 6.24023e-17)
(0.0218719 1.75306 -3.80847e-17)
(0.111623 1.58703 -2.32187e-17)
(0.232531 1.56153 4.11334e-18)
(-0.220957 1.79057 -3.01583e-17)
(0.0992548 1.61527 4.08082e-17)
(0.0106315 1.82245 2.02602e-17)
(0.0453587 1.62998 -2.78215e-17)
(0.105785 1.70883 -3.43965e-18)
(0.311933 1.73448 -4.42215e-18)
(-0.0420551 1.64868 -4.79141e-17)
(0.0825756 1.60646 0)
(-0.00214955 1.70978 9.24246e-18)
(0.0228928 1.7213 1.51331e-17)
(0.0800571 1.55417 -1.65739e-17)
(0.0379922 1.68341 0)
(0.17705 1.53072 -4.66346e-17)
(0.068376 1.58345 4.77593e-17)
(0.31706 1.61725 -4.71415e-17)
(0.17069 1.63668 4.52665e-18)
(-0.163017 1.39423 0)
(0.0857762 1.53233 -3.25129e-17)
(-0.0552041 1.47618 -4.56779e-17)
(-0.115301 1.61966 0)
(0.0641052 1.71344 3.41637e-18)
(0.0142858 1.82136 2.18564e-17)
(-0.0102939 1.66084 5.00159e-18)
(0.0677471 1.56143 -6.95735e-17)
(-0.0604365 1.74414 3.03628e-18)
(-0.17289 1.40264 2.56125e-17)
(0.0890517 1.87308 0)
(-2.2634e-05 1.8464 0)
(-0.120435 1.74271 7.39887e-18)
(0.150084 1.66583 -5.0831e-18)
(-0.0556814 1.74416 0)
(0.0604815 1.74929 1.71908e-17)
(0.049789 1.69892 -2.18066e-17)
(0.902443 0.311718 0)
(1.06652 0.120488 -1.03975e-17)
(0.889752 0.143488 -6.54858e-17)
(0.853231 0.00285077 0)
(0.854803 -0.187764 0)
(1.06863 -0.0819949 3.42688e-18)
(0.9493 -0.188611 1.09354e-16)
(0.877643 0.00203817 1.41899e-16)
(0.967688 0.0116396 0)
(0.942578 -0.00953047 0)
(0.902985 -0.0657732 7.75755e-17)
(0.923549 0.0365637 0)
(0.893315 0.152523 0)
(-0.044763 1.75691 0)
(-0.062611 1.52853 -6.57729e-18)
(-0.0828992 1.52963 1.24244e-17)
(-0.0622942 1.69613 0)
(0.2097 1.77039 9.26182e-19)
(0.043535 1.71722 -7.22337e-18)
(0.019487 1.60063 0)
(0.250611 1.60706 0)
(0.294799 1.41584 -8.48758e-17)
(0.292492 1.43324 0)
(0.450613 1.7952 1.23486e-16)
(0.535615 1.74485 0)
(0.567924 1.78593 -4.21521e-17)
(0.481956 1.34127 -1.7373e-18)
(0.713477 1.35415 -9.04378e-17)
(0.605959 1.34469 1.02053e-16)
(0.518332 1.36898 1.77462e-17)
(0.406065 1.43298 0)
(0.580434 1.39686 0)
(0.56363 1.42027 0)
(0.472428 1.31927 -6.79074e-17)
(0.37385 1.47967 -5.62061e-17)
(0.256938 1.43604 -1.10087e-17)
(0.472822 1.53353 9.99941e-18)
(0.258068 1.41565 0)
(0.45645 1.39929 0)
(0.365094 1.35375 -1.79732e-17)
(0.352734 1.47772 0)
(0.462697 1.44247 0)
(0.662723 1.35434 -8.73169e-17)
(0.427924 1.15826 -5.66402e-18)
(0.775432 1.52849 0)
(0.683444 1.62746 1.04323e-16)
(0.707295 1.44969 -2.60528e-17)
(1.05296 1.20854 0)
(0.836418 1.01052 3.77467e-17)
(0.32433 1.58192 0)
(0.313819 1.27637 0)
(0.735261 1.38135 -4.5999e-17)
(0.690248 1.57471 -3.8234e-17)
(0.797057 1.50084 5.60203e-17)
(0.719125 1.54034 -1.89554e-17)
(0.720297 1.43173 0)
(0.67458 1.40859 2.30969e-17)
(0.741495 1.4363 -3.82823e-17)
(0.739117 1.38831 -1.14904e-18)
(0.6065 1.40806 0)
(0.546753 1.54954 -2.47342e-17)
(0.608598 1.41138 0)
(0.783817 0.157289 0)
(0.785045 0.2189 0)
(0.678197 0.202431 0)
(0.746397 0.333828 -6.92719e-17)
(0.7358 0.188385 3.85095e-17)
(1.01743 -0.0300037 -4.68851e-17)
(0.854177 -0.00999175 0)
(0.892511 -0.00502866 2.00425e-17)
(0.814054 0.178921 7.94742e-17)
(0.747846 0.0763717 -5.19021e-17)
(0.925862 2.32686 4.46071e-17)
(0.829577 2.01589 0)
(0.884243 2.34228 6.81442e-17)
(0.200988 2.49256 -7.57874e-17)
(0.201522 1.97513 -4.57364e-17)
(0.161999 1.46305 5.83258e-17)
(0.335866 1.50409 0)
(0.0877837 1.058 -1.11683e-17)
(-0.0619646 1.24631 8.89527e-17)
(-0.383837 0.955968 -1.74114e-17)
(-0.044293 0.644702 2.10841e-17)
(0.193829 0.672283 4.40935e-17)
(0.476573 0.701344 0)
(0.168526 0.961757 0)
(0.0114495 0.955631 0)
(0.793767 0.777161 3.04742e-17)
(0.737241 0.611754 -6.38319e-17)
(0.88667 0.660828 5.95071e-17)
(0.751771 0.441098 -4.99025e-17)
(0.988513 0.69171 0)
(0.898813 0.675505 -2.02386e-17)
(0.750811 0.371607 -8.77777e-17)
(0.717004 0.254092 -1.11198e-16)
(0.555753 0.481147 6.74698e-17)
(0.564864 0.476547 -6.4252e-17)
(0.72072 0.395607 -5.52072e-17)
(0.655255 0.330684 6.31187e-17)
(1.04775 0.00210144 -8.31562e-17)
(1.04627 0.0295166 1.53199e-16)
(1.04608 0.0490292 1.00816e-16)
(1.01406 -0.0783869 -1.06541e-16)
(0.737778 0.0909134 0)
(0.685681 -0.0346686 -1.89228e-16)
(0.151754 1.5402 1.20215e-17)
(-0.130797 1.71486 0)
(0.16078 1.76555 5.55863e-17)
(0.0878501 1.70002 -6.85055e-17)
(0.0335698 1.77439 2.68014e-17)
(0.145129 1.73999 0)
(-0.0223802 1.74584 0)
(0.078779 1.56276 -7.90101e-18)
(-0.0510046 1.5057 5.80949e-19)
(0.166444 1.54108 -8.02918e-18)
(-0.280114 1.78519 -8.92735e-18)
(-0.10518 1.63705 3.27854e-18)
(0.524432 1.58834 -1.1085e-16)
(0.649693 1.61711 7.42629e-17)
(0.433364 1.75015 -4.90412e-17)
(0.657475 1.63135 3.56302e-18)
(0.553802 1.72028 0)
(0.641148 1.78361 -4.68365e-17)
(0.542619 1.72464 6.98995e-17)
(0.504182 1.66287 7.11161e-17)
(0.575848 1.70812 0)
(0.746756 1.65471 0)
(0.679611 1.42931 6.76431e-17)
(0.223729 1.54115 8.63574e-17)
(0.123 1.54689 -7.60031e-17)
(0.023703 1.5543 -1.15436e-17)
(0.37743 1.42536 2.36672e-17)
(0.299425 1.31469 -5.93609e-17)
(0.641695 1.37495 -6.19846e-17)
(0.632549 1.41725 0)
(0.604441 1.36326 -6.59493e-17)
(0.745197 1.40473 0)
(0.648047 1.53872 0)
(0.631255 1.83481 -5.57353e-17)
(0.597822 1.87856 -5.57909e-17)
(0.384925 2.01261 5.72599e-17)
(-0.581158 1.63946 0)
(-0.133862 1.5502 -3.00678e-17)
(0.0882067 1.55553 -4.62246e-17)
(0.499533 1.66164 0)
(0.351992 2.09677 3.52993e-17)
(-0.131527 2.22915 0)
(0.517685 1.02409 -9.52053e-17)
(0.567361 1.04733 1.26085e-16)
(0.693635 0.845369 -1.36446e-16)
(0.292887 0.861018 -1.14582e-17)
(0.335159 0.860536 -4.6907e-17)
(0.726462 1.78625 4.01443e-17)
(0.711202 1.71579 -7.26312e-17)
(0.617105 1.80013 9.26943e-17)
(0.600984 1.67515 -5.29723e-17)
(0.593729 1.69722 -7.6729e-17)
(0.636608 1.75793 -1.1539e-17)
(0.732174 1.63546 6.78718e-17)
(0.592918 1.71609 5.1128e-18)
(0.545539 1.5607 3.92686e-17)
)
;

boundaryField
{
    wall-4
    {
        type            calculated;
        value           uniform (0 0 0);
    }
    velocity-inlet-5
    {
        type            calculated;
        value           uniform (1 0 0);
    }
    velocity-inlet-6
    {
        type            calculated;
        value           uniform (0 3 0);
    }
    pressure-outlet-7
    {
        type            calculated;
        value           nonuniform List<vector> 8((-0.301411 1.72876 0) (0.20787 1.77164 8.09465e-18) (-0.0466448 1.68129 0) (-0.00479003 1.65723 0) (0.0035531 1.72761 0) (-0.0100723 1.74483 0) (-0.000429813 1.73693 0) (0.0565749 1.77431 0));
    }
    wall-8
    {
        type            calculated;
        value           uniform (0 0 0);
    }
    frontAndBackPlanes
    {
        type            empty;
    }
}

