/*--------------------------------*- C++ -*----------------------------------*\
  =========                 |
  \\      /  F ield         | OpenFOAM: The Open Source CFD Toolbox
   \\    /   O peration     | Website:  https://openfoam.org
    \\  /    A nd           | Version:  6
     \\/     M anipulation  |
\*---------------------------------------------------------------------------*/
FoamFile
{
    version     2.0;
    format      ascii;
    class       volScalarField;
    location    "0";
    object      p;
}
// * * * * * * * * * * * * * * * * * * * * * * * * * * * * * * * * * * * * * //

dimensions      [0 2 -2 0 0 0 0];

internalField   nonuniform List<scalar> 
10000
(
0
1.27069e-06
1.78484e-06
1.06507e-06
-1.30258e-06
-5.62219e-06
-1.20727e-05
-2.07017e-05
-3.14237e-05
-4.40328e-05
-5.82261e-05
-7.36339e-05
-8.98525e-05
-0.000106474
-0.00012311
-0.000139417
-0.000155115
-0.00016995
-0.000183699
-0.000196232
-0.000207483
-0.000217432
-0.000226093
-0.000233507
-0.000239735
-0.00024485
-0.000248935
-0.000252079
-0.000254369
-0.000255893
-0.000256737
-0.000256981
-0.0002567
-0.000255963
-0.000254835
-0.000253373
-0.000251629
-0.000249649
-0.000247474
-0.000245141
-0.000242681
-0.000240124
-0.000237495
-0.000234815
-0.000232104
-0.000229378
-0.000226654
-0.000223944
-0.00022126
-0.000218613
-0.000216011
-0.000213462
-0.000210975
-0.000208555
-0.000206207
-0.000203937
-0.000201748
-0.000199646
-0.000197632
-0.00019571
-0.000193883
-0.000192154
-0.000190524
-0.000188995
-0.000187571
-0.000186251
-0.000185037
-0.000183933
-0.000182938
-0.000182058
-0.000181295
-0.000180656
-0.000180145
-0.000179773
-0.000179548
-0.000179484
-0.000179598
-0.000179911
-0.00018045
-0.000181252
-0.000182359
-0.000183829
-0.000185732
-0.000188157
-0.000191211
-0.000195026
-0.000199756
-0.000205578
-0.000212688
-0.000221292
-0.000231596
-0.000243778
-0.000257964
-0.000274191
-0.000292285
-0.000311688
-0.000331284
-0.000349174
-0.000361884
-0.000365337
-0.00984742
-0.00984573
-0.00984494
-0.00984539
-0.00984739
-0.00985125
-0.00985713
-0.00986511
-0.00987509
-0.00988689
-0.00990022
-0.00991472
-0.00993001
-0.00994569
-0.00996139
-0.00997679
-0.00999158
-0.0100056
-0.0100186
-0.0100304
-0.010041
-0.0100504
-0.0100585
-0.0100654
-0.0100712
-0.0100759
-0.0100797
-0.0100825
-0.0100846
-0.0100859
-0.0100866
-0.0100867
-0.0100863
-0.0100854
-0.0100843
-0.0100827
-0.010081
-0.010079
-0.0100768
-0.0100745
-0.010072
-0.0100695
-0.0100669
-0.0100642
-0.0100616
-0.0100589
-0.0100562
-0.0100535
-0.0100509
-0.0100483
-0.0100457
-0.0100432
-0.0100407
-0.0100384
-0.010036
-0.0100338
-0.0100316
-0.0100295
-0.0100275
-0.0100256
-0.0100238
-0.0100221
-0.0100204
-0.0100189
-0.0100175
-0.0100162
-0.0100149
-0.0100138
-0.0100128
-0.0100119
-0.0100112
-0.0100105
-0.01001
-0.0100096
-0.0100093
-0.0100093
-0.0100094
-0.0100096
-0.0100101
-0.0100109
-0.010012
-0.0100133
-0.0100151
-0.0100174
-0.0100202
-0.0100237
-0.010028
-0.0100332
-0.0100394
-0.0100468
-0.0100554
-0.0100653
-0.0100765
-0.0100887
-0.0101017
-0.0101147
-0.0101268
-0.0101366
-0.0101416
-0.0101394
-0.0196941
-0.0196918
-0.0196906
-0.0196906
-0.0196922
-0.0196955
-0.0197009
-0.0197084
-0.0197178
-0.0197291
-0.0197418
-0.0197557
-0.0197703
-0.0197854
-0.0198004
-0.0198151
-0.0198291
-0.0198424
-0.0198547
-0.0198659
-0.0198759
-0.0198846
-0.0198921
-0.0198985
-0.0199038
-0.0199081
-0.0199114
-0.0199139
-0.0199156
-0.0199167
-0.0199171
-0.019917
-0.0199164
-0.0199154
-0.0199141
-0.0199125
-0.0199106
-0.0199085
-0.0199063
-0.019904
-0.0199015
-0.019899
-0.0198964
-0.0198937
-0.0198911
-0.0198884
-0.0198857
-0.0198831
-0.0198805
-0.0198779
-0.0198754
-0.0198729
-0.0198704
-0.0198681
-0.0198658
-0.0198635
-0.0198614
-0.0198593
-0.0198573
-0.0198554
-0.0198536
-0.0198519
-0.0198502
-0.0198487
-0.0198473
-0.019846
-0.0198447
-0.0198436
-0.0198426
-0.0198417
-0.0198409
-0.0198402
-0.0198397
-0.0198392
-0.019839
-0.0198388
-0.0198389
-0.0198391
-0.0198396
-0.0198403
-0.0198412
-0.0198425
-0.0198441
-0.0198462
-0.0198487
-0.0198518
-0.0198556
-0.0198601
-0.0198654
-0.0198716
-0.0198787
-0.0198865
-0.019895
-0.0199039
-0.0199125
-0.0199205
-0.019927
-0.0199311
-0.0199312
-0.0199262
-0.0295398
-0.029537
-0.0295353
-0.0295349
-0.029536
-0.029539
-0.029544
-0.0295511
-0.0295603
-0.0295712
-0.0295836
-0.0295971
-0.0296114
-0.029626
-0.0296405
-0.0296546
-0.0296681
-0.0296807
-0.0296923
-0.0297028
-0.0297121
-0.0297202
-0.0297271
-0.0297329
-0.0297376
-0.0297414
-0.0297442
-0.0297462
-0.0297475
-0.0297482
-0.0297482
-0.0297478
-0.029747
-0.0297458
-0.0297442
-0.0297425
-0.0297405
-0.0297383
-0.029736
-0.0297335
-0.029731
-0.0297284
-0.0297258
-0.0297232
-0.0297205
-0.0297178
-0.0297152
-0.0297126
-0.02971
-0.0297074
-0.0297049
-0.0297024
-0.0297
-0.0296977
-0.0296954
-0.0296932
-0.029691
-0.029689
-0.029687
-0.0296851
-0.0296833
-0.0296815
-0.0296799
-0.0296784
-0.0296769
-0.0296756
-0.0296743
-0.0296732
-0.0296722
-0.0296712
-0.0296704
-0.0296697
-0.0296692
-0.0296687
-0.0296684
-0.0296682
-0.0296682
-0.0296684
-0.0296688
-0.0296693
-0.0296702
-0.0296713
-0.0296727
-0.0296745
-0.0296767
-0.0296794
-0.0296826
-0.0296865
-0.0296909
-0.029696
-0.0297017
-0.0297078
-0.029714
-0.0297201
-0.0297255
-0.0297298
-0.0297323
-0.0297326
-0.0297299
-0.0297235
-0.0393844
-0.0393814
-0.0393794
-0.0393786
-0.0393794
-0.0393821
-0.0393869
-0.0393938
-0.0394028
-0.0394136
-0.0394258
-0.0394392
-0.0394532
-0.0394674
-0.0394816
-0.0394953
-0.0395083
-0.0395203
-0.0395312
-0.039541
-0.0395496
-0.039557
-0.0395633
-0.0395684
-0.0395725
-0.0395756
-0.0395778
-0.0395793
-0.0395801
-0.0395803
-0.03958
-0.0395792
-0.039578
-0.0395765
-0.0395747
-0.0395727
-0.0395705
-0.0395682
-0.0395657
-0.0395632
-0.0395606
-0.0395579
-0.0395552
-0.0395526
-0.0395499
-0.0395472
-0.0395445
-0.0395419
-0.0395393
-0.0395367
-0.0395342
-0.0395318
-0.0395294
-0.0395271
-0.0395248
-0.0395226
-0.0395205
-0.0395184
-0.0395164
-0.0395145
-0.0395127
-0.039511
-0.0395094
-0.0395078
-0.0395064
-0.039505
-0.0395038
-0.0395026
-0.0395016
-0.0395006
-0.0394998
-0.0394991
-0.0394985
-0.039498
-0.0394976
-0.0394974
-0.0394973
-0.0394974
-0.0394977
-0.0394982
-0.0394988
-0.0394998
-0.039501
-0.0395025
-0.0395044
-0.0395067
-0.0395094
-0.0395126
-0.0395162
-0.0395203
-0.0395248
-0.0395294
-0.0395338
-0.0395378
-0.0395408
-0.0395424
-0.0395422
-0.0395401
-0.0395358
-0.0395289
-0.0492283
-0.049225
-0.0492227
-0.0492217
-0.0492223
-0.0492249
-0.0492296
-0.0492365
-0.0492454
-0.0492562
-0.0492685
-0.0492817
-0.0492956
-0.0493097
-0.0493235
-0.0493368
-0.0493493
-0.0493608
-0.0493711
-0.0493802
-0.0493881
-0.0493948
-0.0494003
-0.0494047
-0.0494081
-0.0494106
-0.0494122
-0.0494131
-0.0494133
-0.049413
-0.0494122
-0.049411
-0.0494094
-0.0494075
-0.0494054
-0.0494032
-0.0494007
-0.0493982
-0.0493955
-0.0493928
-0.0493901
-0.0493874
-0.0493846
-0.0493818
-0.0493791
-0.0493764
-0.0493737
-0.0493711
-0.0493685
-0.0493659
-0.0493634
-0.049361
-0.0493586
-0.0493563
-0.049354
-0.0493518
-0.0493497
-0.0493476
-0.0493457
-0.0493438
-0.049342
-0.0493403
-0.0493386
-0.0493371
-0.0493356
-0.0493343
-0.049333
-0.0493318
-0.0493308
-0.0493298
-0.0493289
-0.0493282
-0.0493275
-0.049327
-0.0493266
-0.0493263
-0.0493262
-0.0493262
-0.0493264
-0.0493267
-0.0493273
-0.049328
-0.049329
-0.0493303
-0.0493318
-0.0493337
-0.0493359
-0.0493385
-0.0493414
-0.0493447
-0.0493481
-0.0493514
-0.0493545
-0.0493568
-0.049358
-0.0493577
-0.0493557
-0.0493522
-0.0493472
-0.0493404
-0.0590713
-0.0590679
-0.0590655
-0.0590643
-0.0590648
-0.0590673
-0.0590721
-0.0590791
-0.0590882
-0.0590991
-0.0591114
-0.0591247
-0.0591385
-0.0591524
-0.0591659
-0.0591789
-0.0591909
-0.0592019
-0.0592116
-0.05922
-0.0592272
-0.0592331
-0.0592379
-0.0592416
-0.0592443
-0.059246
-0.059247
-0.0592472
-0.0592469
-0.059246
-0.0592447
-0.059243
-0.059241
-0.0592387
-0.0592363
-0.0592337
-0.059231
-0.0592282
-0.0592253
-0.0592225
-0.0592196
-0.0592167
-0.0592138
-0.059211
-0.0592082
-0.0592054
-0.0592027
-0.0592
-0.0591974
-0.0591948
-0.0591923
-0.0591899
-0.0591875
-0.0591852
-0.0591829
-0.0591808
-0.0591786
-0.0591766
-0.0591747
-0.0591728
-0.059171
-0.0591692
-0.0591676
-0.0591661
-0.0591646
-0.0591632
-0.059162
-0.0591608
-0.0591597
-0.0591587
-0.0591578
-0.059157
-0.0591564
-0.0591558
-0.0591553
-0.059155
-0.0591548
-0.0591547
-0.0591548
-0.059155
-0.0591554
-0.0591559
-0.0591567
-0.0591577
-0.0591589
-0.0591604
-0.0591622
-0.0591642
-0.0591665
-0.059169
-0.0591715
-0.0591739
-0.0591758
-0.0591769
-0.0591768
-0.0591753
-0.0591723
-0.059168
-0.0591627
-0.0591562
-0.0689136
-0.0689101
-0.0689076
-0.0689064
-0.0689069
-0.0689095
-0.0689144
-0.0689216
-0.0689309
-0.068942
-0.0689545
-0.0689678
-0.0689815
-0.0689953
-0.0690085
-0.0690211
-0.0690327
-0.0690431
-0.0690522
-0.06906
-0.0690664
-0.0690716
-0.0690756
-0.0690785
-0.0690805
-0.0690816
-0.0690819
-0.0690815
-0.0690805
-0.0690791
-0.0690772
-0.069075
-0.0690726
-0.0690699
-0.0690671
-0.0690642
-0.0690612
-0.0690581
-0.069055
-0.0690519
-0.0690489
-0.0690458
-0.0690429
-0.0690399
-0.069037
-0.0690342
-0.0690314
-0.0690287
-0.069026
-0.0690234
-0.0690209
-0.0690185
-0.0690161
-0.0690138
-0.0690115
-0.0690094
-0.0690073
-0.0690053
-0.0690033
-0.0690014
-0.0689996
-0.0689979
-0.0689963
-0.0689947
-0.0689933
-0.0689919
-0.0689906
-0.0689894
-0.0689883
-0.0689873
-0.0689864
-0.0689856
-0.0689849
-0.0689843
-0.0689838
-0.0689834
-0.0689831
-0.0689829
-0.0689829
-0.0689829
-0.0689832
-0.0689836
-0.0689841
-0.0689848
-0.0689858
-0.0689869
-0.0689882
-0.0689898
-0.0689915
-0.0689933
-0.0689951
-0.0689966
-0.0689977
-0.0689979
-0.0689969
-0.0689946
-0.0689909
-0.0689863
-0.0689811
-0.0689751
-0.0787552
-0.0787517
-0.0787491
-0.0787479
-0.0787485
-0.0787513
-0.0787565
-0.078764
-0.0787735
-0.0787849
-0.0787975
-0.0788109
-0.0788245
-0.0788381
-0.078851
-0.0788632
-0.0788742
-0.078884
-0.0788925
-0.0788996
-0.0789053
-0.0789098
-0.078913
-0.0789152
-0.0789164
-0.0789168
-0.0789164
-0.0789154
-0.0789139
-0.0789119
-0.0789095
-0.0789068
-0.0789039
-0.0789009
-0.0788977
-0.0788944
-0.0788911
-0.0788878
-0.0788845
-0.0788812
-0.0788779
-0.0788747
-0.0788716
-0.0788685
-0.0788655
-0.0788626
-0.0788598
-0.078857
-0.0788543
-0.0788517
-0.0788492
-0.0788467
-0.0788443
-0.078842
-0.0788398
-0.0788376
-0.0788356
-0.0788335
-0.0788316
-0.0788297
-0.078828
-0.0788263
-0.0788246
-0.0788231
-0.0788216
-0.0788202
-0.0788189
-0.0788177
-0.0788166
-0.0788156
-0.0788147
-0.0788138
-0.0788131
-0.0788124
-0.0788118
-0.0788114
-0.078811
-0.0788108
-0.0788106
-0.0788106
-0.0788106
-0.0788109
-0.0788112
-0.0788117
-0.0788123
-0.0788131
-0.0788141
-0.0788152
-0.0788164
-0.0788176
-0.0788187
-0.0788196
-0.07882
-0.0788195
-0.078818
-0.0788151
-0.0788112
-0.0788065
-0.0788016
-0.0787962
-0.0885961
-0.0885925
-0.0885899
-0.0885888
-0.0885896
-0.0885927
-0.0885982
-0.088606
-0.0886159
-0.0886275
-0.0886403
-0.0886537
-0.0886673
-0.0886805
-0.0886931
-0.0887048
-0.0887152
-0.0887244
-0.0887321
-0.0887385
-0.0887435
-0.0887472
-0.0887497
-0.0887512
-0.0887517
-0.0887514
-0.0887504
-0.0887488
-0.0887467
-0.0887441
-0.0887413
-0.0887381
-0.0887348
-0.0887314
-0.0887279
-0.0887243
-0.0887207
-0.0887171
-0.0887135
-0.08871
-0.0887066
-0.0887033
-0.0887
-0.0886968
-0.0886937
-0.0886907
-0.0886878
-0.088685
-0.0886822
-0.0886796
-0.088677
-0.0886746
-0.0886722
-0.0886699
-0.0886676
-0.0886655
-0.0886634
-0.0886614
-0.0886595
-0.0886577
-0.0886559
-0.0886542
-0.0886526
-0.088651
-0.0886496
-0.0886482
-0.0886469
-0.0886457
-0.0886445
-0.0886435
-0.0886426
-0.0886417
-0.0886409
-0.0886402
-0.0886396
-0.088639
-0.0886386
-0.0886383
-0.088638
-0.0886378
-0.0886378
-0.0886378
-0.088638
-0.0886382
-0.0886386
-0.0886391
-0.0886397
-0.0886404
-0.0886411
-0.0886419
-0.0886425
-0.0886428
-0.0886426
-0.0886417
-0.0886397
-0.0886366
-0.0886326
-0.0886281
-0.0886235
-0.0886186
-0.0984362
-0.0984325
-0.09843
-0.0984291
-0.0984301
-0.0984335
-0.0984394
-0.0984476
-0.0984579
-0.0984697
-0.0984826
-0.098496
-0.0985094
-0.0985223
-0.0985345
-0.0985455
-0.0985553
-0.0985638
-0.0985708
-0.0985764
-0.0985807
-0.0985836
-0.0985853
-0.0985861
-0.0985859
-0.098585
-0.0985834
-0.0985812
-0.0985786
-0.0985756
-0.0985723
-0.0985688
-0.0985651
-0.0985613
-0.0985574
-0.0985536
-0.0985497
-0.0985459
-0.0985421
-0.0985384
-0.0985348
-0.0985313
-0.0985279
-0.0985246
-0.0985214
-0.0985183
-0.0985153
-0.0985125
-0.0985097
-0.098507
-0.0985044
-0.098502
-0.0984996
-0.0984973
-0.098495
-0.0984929
-0.0984908
-0.0984889
-0.098487
-0.0984851
-0.0984834
-0.0984817
-0.0984801
-0.0984786
-0.0984771
-0.0984757
-0.0984744
-0.0984732
-0.0984721
-0.098471
-0.09847
-0.0984691
-0.0984683
-0.0984676
-0.0984669
-0.0984663
-0.0984658
-0.0984654
-0.098465
-0.0984647
-0.0984646
-0.0984644
-0.0984644
-0.0984645
-0.0984646
-0.0984648
-0.0984651
-0.0984654
-0.0984658
-0.0984661
-0.0984663
-0.0984662
-0.0984656
-0.0984642
-0.098462
-0.0984588
-0.0984549
-0.0984505
-0.0984463
-0.0984419
-0.108275
-0.108272
-0.108269
-0.108269
-0.10827
-0.108274
-0.10828
-0.108289
-0.108299
-0.108311
-0.108324
-0.108338
-0.108351
-0.108363
-0.108375
-0.108385
-0.108394
-0.108402
-0.108408
-0.108413
-0.108416
-0.108419
-0.10842
-0.10842
-0.108419
-0.108417
-0.108415
-0.108413
-0.108409
-0.108406
-0.108402
-0.108398
-0.108394
-0.10839
-0.108386
-0.108382
-0.108378
-0.108374
-0.10837
-0.108366
-0.108362
-0.108359
-0.108355
-0.108352
-0.108349
-0.108345
-0.108342
-0.108339
-0.108337
-0.108334
-0.108331
-0.108329
-0.108326
-0.108324
-0.108322
-0.10832
-0.108318
-0.108316
-0.108314
-0.108312
-0.10831
-0.108309
-0.108307
-0.108306
-0.108304
-0.108303
-0.108302
-0.1083
-0.108299
-0.108298
-0.108297
-0.108296
-0.108295
-0.108295
-0.108294
-0.108293
-0.108293
-0.108292
-0.108292
-0.108291
-0.108291
-0.108291
-0.108291
-0.10829
-0.10829
-0.10829
-0.10829
-0.10829
-0.10829
-0.10829
-0.10829
-0.10829
-0.108289
-0.108287
-0.108285
-0.108282
-0.108278
-0.108274
-0.10827
-0.108266
-0.118114
-0.11811
-0.118108
-0.118107
-0.118109
-0.118113
-0.11812
-0.118129
-0.11814
-0.118152
-0.118165
-0.118178
-0.118191
-0.118203
-0.118214
-0.118223
-0.118232
-0.118238
-0.118244
-0.118248
-0.118251
-0.118252
-0.118252
-0.118252
-0.11825
-0.118248
-0.118246
-0.118243
-0.118239
-0.118235
-0.118231
-0.118227
-0.118223
-0.118219
-0.118214
-0.11821
-0.118206
-0.118201
-0.118197
-0.118193
-0.118189
-0.118186
-0.118182
-0.118179
-0.118175
-0.118172
-0.118169
-0.118166
-0.118163
-0.11816
-0.118158
-0.118155
-0.118153
-0.118151
-0.118148
-0.118146
-0.118144
-0.118142
-0.11814
-0.118139
-0.118137
-0.118135
-0.118134
-0.118132
-0.118131
-0.11813
-0.118128
-0.118127
-0.118126
-0.118125
-0.118124
-0.118123
-0.118122
-0.118121
-0.11812
-0.11812
-0.118119
-0.118119
-0.118118
-0.118118
-0.118117
-0.118117
-0.118116
-0.118116
-0.118116
-0.118116
-0.118115
-0.118115
-0.118115
-0.118115
-0.118114
-0.118113
-0.118112
-0.11811
-0.118108
-0.118105
-0.118101
-0.118097
-0.118094
-0.11809
-0.127951
-0.127947
-0.127945
-0.127945
-0.127947
-0.127952
-0.127959
-0.127968
-0.127979
-0.127992
-0.128004
-0.128017
-0.12803
-0.128041
-0.128051
-0.12806
-0.128067
-0.128073
-0.128078
-0.128081
-0.128083
-0.128084
-0.128083
-0.128082
-0.12808
-0.128078
-0.128075
-0.128071
-0.128067
-0.128063
-0.128059
-0.128055
-0.12805
-0.128046
-0.128041
-0.128037
-0.128032
-0.128028
-0.128024
-0.12802
-0.128016
-0.128012
-0.128008
-0.128005
-0.128001
-0.127998
-0.127995
-0.127992
-0.127989
-0.127986
-0.127984
-0.127981
-0.127979
-0.127977
-0.127974
-0.127972
-0.12797
-0.127968
-0.127967
-0.127965
-0.127963
-0.127961
-0.12796
-0.127958
-0.127957
-0.127956
-0.127954
-0.127953
-0.127952
-0.127951
-0.12795
-0.127949
-0.127948
-0.127947
-0.127947
-0.127946
-0.127945
-0.127945
-0.127944
-0.127943
-0.127943
-0.127942
-0.127942
-0.127942
-0.127941
-0.127941
-0.12794
-0.12794
-0.127939
-0.127939
-0.127938
-0.127937
-0.127936
-0.127934
-0.127931
-0.127928
-0.127925
-0.127921
-0.127918
-0.127915
-0.137787
-0.137784
-0.137782
-0.137782
-0.137784
-0.137789
-0.137797
-0.137806
-0.137818
-0.13783
-0.137843
-0.137855
-0.137867
-0.137877
-0.137887
-0.137895
-0.137901
-0.137906
-0.13791
-0.137912
-0.137913
-0.137913
-0.137912
-0.137911
-0.137908
-0.137905
-0.137902
-0.137898
-0.137894
-0.13789
-0.137885
-0.137881
-0.137876
-0.137872
-0.137867
-0.137863
-0.137858
-0.137854
-0.13785
-0.137845
-0.137841
-0.137838
-0.137834
-0.13783
-0.137827
-0.137824
-0.13782
-0.137817
-0.137815
-0.137812
-0.137809
-0.137807
-0.137804
-0.137802
-0.1378
-0.137798
-0.137796
-0.137794
-0.137792
-0.13779
-0.137789
-0.137787
-0.137786
-0.137784
-0.137783
-0.137782
-0.13778
-0.137779
-0.137778
-0.137777
-0.137776
-0.137775
-0.137774
-0.137773
-0.137772
-0.137772
-0.137771
-0.13777
-0.13777
-0.137769
-0.137768
-0.137768
-0.137767
-0.137767
-0.137766
-0.137766
-0.137765
-0.137765
-0.137764
-0.137763
-0.137762
-0.137761
-0.137759
-0.137757
-0.137755
-0.137752
-0.137748
-0.137745
-0.137742
-0.137739
-0.147622
-0.147619
-0.147617
-0.147617
-0.14762
-0.147625
-0.147633
-0.147643
-0.147655
-0.147667
-0.147679
-0.147691
-0.147702
-0.147712
-0.14772
-0.147727
-0.147732
-0.147737
-0.147739
-0.147741
-0.147741
-0.147741
-0.14774
-0.147737
-0.147735
-0.147731
-0.147728
-0.147724
-0.147719
-0.147715
-0.147711
-0.147706
-0.147701
-0.147697
-0.147692
-0.147688
-0.147683
-0.147679
-0.147674
-0.14767
-0.147666
-0.147662
-0.147659
-0.147655
-0.147652
-0.147648
-0.147645
-0.147642
-0.147639
-0.147637
-0.147634
-0.147632
-0.147629
-0.147627
-0.147625
-0.147623
-0.147621
-0.147619
-0.147617
-0.147616
-0.147614
-0.147612
-0.147611
-0.14761
-0.147608
-0.147607
-0.147606
-0.147605
-0.147603
-0.147602
-0.147601
-0.1476
-0.147599
-0.147599
-0.147598
-0.147597
-0.147596
-0.147596
-0.147595
-0.147594
-0.147594
-0.147593
-0.147592
-0.147592
-0.147591
-0.147591
-0.14759
-0.147589
-0.147588
-0.147587
-0.147586
-0.147585
-0.147583
-0.147581
-0.147579
-0.147576
-0.147572
-0.147569
-0.147567
-0.147564
-0.157456
-0.157453
-0.157451
-0.157452
-0.157455
-0.15746
-0.157469
-0.157479
-0.15749
-0.157502
-0.157513
-0.157525
-0.157535
-0.157544
-0.157551
-0.157557
-0.157562
-0.157565
-0.157567
-0.157568
-0.157568
-0.157567
-0.157565
-0.157562
-0.157559
-0.157556
-0.157552
-0.157548
-0.157543
-0.157539
-0.157534
-0.15753
-0.157525
-0.157521
-0.157516
-0.157511
-0.157507
-0.157503
-0.157499
-0.157494
-0.157491
-0.157487
-0.157483
-0.157479
-0.157476
-0.157473
-0.15747
-0.157467
-0.157464
-0.157461
-0.157459
-0.157456
-0.157454
-0.157452
-0.15745
-0.157448
-0.157446
-0.157444
-0.157442
-0.15744
-0.157439
-0.157437
-0.157436
-0.157434
-0.157433
-0.157432
-0.157431
-0.15743
-0.157428
-0.157427
-0.157426
-0.157425
-0.157425
-0.157424
-0.157423
-0.157422
-0.157421
-0.157421
-0.15742
-0.157419
-0.157419
-0.157418
-0.157417
-0.157417
-0.157416
-0.157415
-0.157414
-0.157414
-0.157413
-0.157412
-0.15741
-0.157409
-0.157407
-0.157405
-0.157402
-0.1574
-0.157397
-0.157394
-0.157391
-0.157389
-0.167288
-0.167285
-0.167284
-0.167285
-0.167288
-0.167294
-0.167302
-0.167312
-0.167323
-0.167335
-0.167346
-0.167356
-0.167366
-0.167374
-0.16738
-0.167385
-0.167389
-0.167391
-0.167392
-0.167392
-0.167392
-0.16739
-0.167388
-0.167385
-0.167382
-0.167379
-0.167375
-0.16737
-0.167366
-0.167362
-0.167357
-0.167353
-0.167348
-0.167343
-0.167339
-0.167335
-0.16733
-0.167326
-0.167322
-0.167318
-0.167314
-0.16731
-0.167307
-0.167303
-0.1673
-0.167297
-0.167294
-0.167291
-0.167288
-0.167285
-0.167283
-0.16728
-0.167278
-0.167276
-0.167274
-0.167272
-0.16727
-0.167268
-0.167266
-0.167265
-0.167263
-0.167262
-0.16726
-0.167259
-0.167258
-0.167257
-0.167255
-0.167254
-0.167253
-0.167252
-0.167251
-0.16725
-0.167249
-0.167248
-0.167248
-0.167247
-0.167246
-0.167245
-0.167245
-0.167244
-0.167243
-0.167243
-0.167242
-0.167241
-0.167241
-0.16724
-0.167239
-0.167238
-0.167237
-0.167236
-0.167235
-0.167233
-0.167231
-0.167229
-0.167226
-0.167224
-0.167221
-0.167218
-0.167216
-0.167213
-0.177119
-0.177116
-0.177115
-0.177116
-0.17712
-0.177126
-0.177134
-0.177144
-0.177155
-0.177166
-0.177176
-0.177186
-0.177194
-0.177201
-0.177207
-0.177211
-0.177214
-0.177215
-0.177216
-0.177215
-0.177214
-0.177212
-0.17721
-0.177207
-0.177204
-0.1772
-0.177196
-0.177192
-0.177188
-0.177183
-0.177179
-0.177174
-0.17717
-0.177165
-0.177161
-0.177157
-0.177153
-0.177149
-0.177145
-0.177141
-0.177137
-0.177133
-0.17713
-0.177126
-0.177123
-0.17712
-0.177117
-0.177114
-0.177111
-0.177109
-0.177106
-0.177104
-0.177102
-0.1771
-0.177098
-0.177096
-0.177094
-0.177092
-0.17709
-0.177089
-0.177087
-0.177086
-0.177085
-0.177083
-0.177082
-0.177081
-0.17708
-0.177079
-0.177078
-0.177077
-0.177076
-0.177075
-0.177074
-0.177073
-0.177072
-0.177071
-0.177071
-0.17707
-0.177069
-0.177068
-0.177068
-0.177067
-0.177066
-0.177066
-0.177065
-0.177064
-0.177063
-0.177062
-0.177061
-0.17706
-0.177059
-0.177057
-0.177055
-0.177053
-0.17705
-0.177048
-0.177045
-0.177042
-0.17704
-0.177038
-0.186949
-0.186946
-0.186945
-0.186946
-0.18695
-0.186956
-0.186965
-0.186974
-0.186984
-0.186995
-0.187004
-0.187013
-0.18702
-0.187026
-0.187031
-0.187034
-0.187036
-0.187037
-0.187037
-0.187036
-0.187035
-0.187033
-0.18703
-0.187027
-0.187024
-0.18702
-0.187016
-0.187012
-0.187008
-0.187004
-0.186999
-0.186995
-0.186991
-0.186987
-0.186983
-0.186978
-0.186974
-0.18697
-0.186967
-0.186963
-0.186959
-0.186956
-0.186952
-0.186949
-0.186946
-0.186943
-0.18694
-0.186937
-0.186934
-0.186932
-0.18693
-0.186927
-0.186925
-0.186923
-0.186921
-0.186919
-0.186917
-0.186916
-0.186914
-0.186913
-0.186911
-0.18691
-0.186908
-0.186907
-0.186906
-0.186905
-0.186904
-0.186903
-0.186902
-0.186901
-0.1869
-0.186899
-0.186898
-0.186897
-0.186896
-0.186895
-0.186895
-0.186894
-0.186893
-0.186893
-0.186892
-0.186891
-0.186891
-0.18689
-0.186889
-0.186888
-0.186888
-0.186887
-0.186886
-0.186884
-0.186883
-0.186881
-0.186879
-0.186877
-0.186874
-0.186872
-0.186869
-0.186867
-0.186864
-0.186862
-0.196777
-0.196774
-0.196773
-0.196775
-0.196779
-0.196785
-0.196793
-0.196802
-0.196812
-0.196822
-0.19683
-0.196838
-0.196844
-0.196849
-0.196853
-0.196856
-0.196857
-0.196857
-0.196857
-0.196855
-0.196854
-0.196851
-0.196849
-0.196846
-0.196842
-0.196839
-0.196835
-0.196831
-0.196827
-0.196823
-0.196819
-0.196815
-0.196811
-0.196807
-0.196803
-0.196799
-0.196795
-0.196792
-0.196788
-0.196784
-0.196781
-0.196778
-0.196774
-0.196771
-0.196768
-0.196765
-0.196762
-0.19676
-0.196757
-0.196755
-0.196752
-0.19675
-0.196748
-0.196746
-0.196744
-0.196742
-0.196741
-0.196739
-0.196737
-0.196736
-0.196734
-0.196733
-0.196732
-0.196731
-0.196729
-0.196728
-0.196727
-0.196726
-0.196725
-0.196724
-0.196723
-0.196722
-0.196722
-0.196721
-0.19672
-0.196719
-0.196719
-0.196718
-0.196717
-0.196717
-0.196716
-0.196715
-0.196715
-0.196714
-0.196713
-0.196712
-0.196712
-0.196711
-0.19671
-0.196708
-0.196707
-0.196705
-0.196703
-0.196701
-0.196698
-0.196696
-0.196693
-0.196691
-0.196689
-0.196687
-0.206603
-0.206601
-0.2066
-0.206602
-0.206606
-0.206612
-0.20662
-0.206629
-0.206638
-0.206646
-0.206654
-0.206661
-0.206666
-0.20667
-0.206673
-0.206675
-0.206676
-0.206676
-0.206675
-0.206673
-0.206671
-0.206669
-0.206666
-0.206664
-0.20666
-0.206657
-0.206653
-0.20665
-0.206646
-0.206642
-0.206638
-0.206635
-0.206631
-0.206627
-0.206623
-0.20662
-0.206616
-0.206612
-0.206609
-0.206606
-0.206602
-0.206599
-0.206596
-0.206593
-0.20659
-0.206587
-0.206585
-0.206582
-0.20658
-0.206577
-0.206575
-0.206573
-0.206571
-0.206569
-0.206567
-0.206565
-0.206564
-0.206562
-0.20656
-0.206559
-0.206558
-0.206556
-0.206555
-0.206554
-0.206553
-0.206552
-0.206551
-0.20655
-0.206549
-0.206548
-0.206547
-0.206546
-0.206545
-0.206544
-0.206544
-0.206543
-0.206542
-0.206542
-0.206541
-0.20654
-0.20654
-0.206539
-0.206538
-0.206538
-0.206537
-0.206536
-0.206536
-0.206535
-0.206534
-0.206532
-0.206531
-0.206529
-0.206527
-0.206525
-0.206522
-0.20652
-0.206517
-0.206515
-0.206513
-0.206511
-0.216428
-0.216426
-0.216426
-0.216428
-0.216432
-0.216438
-0.216445
-0.216453
-0.216461
-0.216469
-0.216476
-0.216482
-0.216486
-0.21649
-0.216492
-0.216493
-0.216493
-0.216493
-0.216492
-0.21649
-0.216488
-0.216486
-0.216483
-0.21648
-0.216477
-0.216474
-0.216471
-0.216468
-0.216464
-0.216461
-0.216457
-0.216453
-0.21645
-0.216446
-0.216443
-0.216439
-0.216436
-0.216433
-0.216429
-0.216426
-0.216423
-0.21642
-0.216417
-0.216414
-0.216412
-0.216409
-0.216406
-0.216404
-0.216402
-0.216399
-0.216397
-0.216395
-0.216393
-0.216391
-0.21639
-0.216388
-0.216386
-0.216385
-0.216383
-0.216382
-0.21638
-0.216379
-0.216378
-0.216377
-0.216376
-0.216375
-0.216374
-0.216373
-0.216372
-0.216371
-0.21637
-0.216369
-0.216368
-0.216368
-0.216367
-0.216366
-0.216365
-0.216365
-0.216364
-0.216364
-0.216363
-0.216362
-0.216362
-0.216361
-0.216361
-0.21636
-0.216359
-0.216358
-0.216357
-0.216356
-0.216354
-0.216353
-0.216351
-0.216348
-0.216346
-0.216343
-0.216341
-0.216338
-0.216336
-0.216335
-0.226252
-0.22625
-0.22625
-0.226252
-0.226256
-0.226261
-0.226268
-0.226276
-0.226283
-0.22629
-0.226296
-0.226301
-0.226305
-0.226307
-0.226309
-0.226309
-0.226309
-0.226309
-0.226307
-0.226306
-0.226304
-0.226302
-0.226299
-0.226297
-0.226294
-0.226291
-0.226288
-0.226285
-0.226282
-0.226278
-0.226275
-0.226272
-0.226268
-0.226265
-0.226262
-0.226259
-0.226256
-0.226253
-0.22625
-0.226247
-0.226244
-0.226241
-0.226238
-0.226235
-0.226233
-0.22623
-0.226228
-0.226226
-0.226223
-0.226221
-0.226219
-0.226217
-0.226215
-0.226213
-0.226212
-0.22621
-0.226209
-0.226207
-0.226206
-0.226204
-0.226203
-0.226202
-0.226201
-0.226199
-0.226198
-0.226197
-0.226196
-0.226195
-0.226194
-0.226194
-0.226193
-0.226192
-0.226191
-0.22619
-0.22619
-0.226189
-0.226188
-0.226188
-0.226187
-0.226187
-0.226186
-0.226186
-0.226185
-0.226185
-0.226184
-0.226183
-0.226183
-0.226182
-0.226181
-0.226179
-0.226178
-0.226176
-0.226174
-0.226172
-0.226169
-0.226167
-0.226164
-0.226162
-0.22616
-0.226158
-0.236074
-0.236073
-0.236073
-0.236074
-0.236078
-0.236083
-0.23609
-0.236097
-0.236103
-0.236109
-0.236115
-0.236119
-0.236122
-0.236124
-0.236125
-0.236125
-0.236124
-0.236123
-0.236122
-0.236121
-0.236119
-0.236117
-0.236115
-0.236112
-0.23611
-0.236107
-0.236104
-0.236102
-0.236099
-0.236096
-0.236093
-0.23609
-0.236087
-0.236084
-0.236081
-0.236078
-0.236075
-0.236072
-0.236069
-0.236067
-0.236064
-0.236061
-0.236059
-0.236056
-0.236054
-0.236051
-0.236049
-0.236047
-0.236045
-0.236043
-0.236041
-0.236039
-0.236037
-0.236035
-0.236034
-0.236032
-0.236031
-0.236029
-0.236028
-0.236027
-0.236025
-0.236024
-0.236023
-0.236022
-0.236021
-0.23602
-0.236019
-0.236018
-0.236017
-0.236016
-0.236015
-0.236014
-0.236014
-0.236013
-0.236012
-0.236012
-0.236011
-0.23601
-0.23601
-0.236009
-0.236009
-0.236008
-0.236008
-0.236007
-0.236007
-0.236006
-0.236006
-0.236005
-0.236004
-0.236003
-0.236001
-0.235999
-0.235997
-0.235995
-0.235993
-0.23599
-0.235988
-0.235985
-0.235983
-0.235982
-0.245896
-0.245894
-0.245894
-0.245896
-0.245899
-0.245904
-0.24591
-0.245916
-0.245922
-0.245927
-0.245932
-0.245935
-0.245937
-0.245939
-0.245939
-0.245939
-0.245939
-0.245938
-0.245937
-0.245935
-0.245934
-0.245932
-0.24593
-0.245928
-0.245925
-0.245923
-0.245921
-0.245918
-0.245915
-0.245913
-0.24591
-0.245907
-0.245905
-0.245902
-0.245899
-0.245897
-0.245894
-0.245891
-0.245889
-0.245886
-0.245884
-0.245881
-0.245879
-0.245877
-0.245874
-0.245872
-0.24587
-0.245868
-0.245866
-0.245864
-0.245862
-0.24586
-0.245859
-0.245857
-0.245855
-0.245854
-0.245853
-0.245851
-0.24585
-0.245849
-0.245847
-0.245846
-0.245845
-0.245844
-0.245843
-0.245842
-0.245841
-0.24584
-0.245839
-0.245838
-0.245837
-0.245837
-0.245836
-0.245835
-0.245835
-0.245834
-0.245833
-0.245833
-0.245832
-0.245832
-0.245831
-0.245831
-0.24583
-0.24583
-0.24583
-0.245829
-0.245828
-0.245828
-0.245827
-0.245825
-0.245824
-0.245822
-0.24582
-0.245818
-0.245815
-0.245813
-0.24581
-0.245808
-0.245806
-0.245805
-0.255715
-0.255714
-0.255714
-0.255716
-0.255719
-0.255724
-0.255729
-0.255734
-0.255739
-0.255744
-0.255747
-0.25575
-0.255752
-0.255753
-0.255753
-0.255753
-0.255752
-0.255751
-0.25575
-0.255749
-0.255748
-0.255746
-0.255745
-0.255743
-0.255741
-0.255739
-0.255737
-0.255734
-0.255732
-0.25573
-0.255727
-0.255725
-0.255722
-0.25572
-0.255717
-0.255715
-0.255713
-0.25571
-0.255708
-0.255706
-0.255703
-0.255701
-0.255699
-0.255697
-0.255695
-0.255693
-0.255691
-0.255689
-0.255687
-0.255685
-0.255683
-0.255682
-0.25568
-0.255678
-0.255677
-0.255675
-0.255674
-0.255673
-0.255672
-0.25567
-0.255669
-0.255668
-0.255667
-0.255666
-0.255665
-0.255664
-0.255663
-0.255662
-0.255661
-0.25566
-0.255659
-0.255659
-0.255658
-0.255657
-0.255656
-0.255656
-0.255655
-0.255655
-0.255654
-0.255654
-0.255653
-0.255653
-0.255653
-0.255652
-0.255652
-0.255651
-0.255651
-0.25565
-0.255649
-0.255648
-0.255646
-0.255645
-0.255643
-0.25564
-0.255638
-0.255635
-0.255633
-0.255631
-0.255629
-0.255628
-0.265534
-0.265533
-0.265533
-0.265535
-0.265538
-0.265542
-0.265547
-0.265551
-0.265556
-0.265559
-0.265562
-0.265564
-0.265565
-0.265566
-0.265566
-0.265566
-0.265566
-0.265565
-0.265564
-0.265563
-0.265562
-0.265561
-0.265559
-0.265558
-0.265556
-0.265554
-0.265552
-0.26555
-0.265548
-0.265546
-0.265544
-0.265542
-0.26554
-0.265538
-0.265535
-0.265533
-0.265531
-0.265529
-0.265527
-0.265525
-0.265523
-0.265521
-0.265519
-0.265517
-0.265515
-0.265513
-0.265511
-0.265509
-0.265507
-0.265506
-0.265504
-0.265502
-0.265501
-0.265499
-0.265498
-0.265497
-0.265495
-0.265494
-0.265493
-0.265492
-0.26549
-0.265489
-0.265488
-0.265487
-0.265486
-0.265485
-0.265484
-0.265483
-0.265482
-0.265482
-0.265481
-0.26548
-0.265479
-0.265479
-0.265478
-0.265477
-0.265477
-0.265476
-0.265476
-0.265475
-0.265475
-0.265475
-0.265474
-0.265474
-0.265474
-0.265473
-0.265473
-0.265472
-0.265471
-0.26547
-0.265469
-0.265467
-0.265465
-0.265463
-0.26546
-0.265458
-0.265455
-0.265453
-0.265451
-0.26545
-0.275352
-0.275351
-0.275351
-0.275353
-0.275355
-0.275359
-0.275363
-0.275367
-0.275371
-0.275374
-0.275376
-0.275378
-0.275378
-0.275379
-0.275379
-0.275379
-0.275379
-0.275378
-0.275378
-0.275377
-0.275376
-0.275375
-0.275374
-0.275372
-0.275371
-0.27537
-0.275368
-0.275366
-0.275365
-0.275363
-0.275361
-0.275359