/*--------------------------------*- C++ -*----------------------------------*\
  =========                 |
  \\      /  F ield         | OpenFOAM: The Open Source CFD Toolbox
   \\    /   O peration     | Website:  https://openfoam.org
    \\  /    A nd           | Version:  6
     \\/     M anipulation  |
\*---------------------------------------------------------------------------*/
FoamFile
{
    version     2.0;
    format      ascii;
    class       volVectorField;
    location    "0";
    object      U;
}
// * * * * * * * * * * * * * * * * * * * * * * * * * * * * * * * * * * * * * //

dimensions      [0 1 -1 0 0 0 0];

internalField   nonuniform List<vector> 
10000
(
(1.3832e-07 -8.48622e-07 0)
(6.69046e-05 -1.39412e-05 0)
(0.000210229 -2.55398e-05 0)
(0.000412139 -3.44136e-05 0)
(0.000658975 -4.06567e-05 0)
(0.00093693 -4.42881e-05 0)
(0.00123212 -4.53152e-05 0)
(0.00153108 -4.38456e-05 0)
(0.00182134 -4.01603e-05 0)
(0.00209211 -3.4696e-05 0)
(0.00233472 -2.79858e-05 0)
(0.00254283 -2.05888e-05 0)
(0.0027125 -1.30308e-05 0)
(0.00284198 -5.76705e-06 0)
(0.00293149 8.31884e-07 0)
(0.00298298 6.46708e-06 0)
(0.00299948 1.08851e-05 0)
(0.00298595 1.46216e-05 0)
(0.00294525 1.79167e-05 0)
(0.0028811 2.03053e-05 0)
(0.0027975 2.18386e-05 0)
(0.00269829 2.2675e-05 0)
(0.00258698 2.29477e-05 0)
(0.00246674 2.27724e-05 0)
(0.00234035 2.22474e-05 0)
(0.00221026 2.14583e-05 0)
(0.00207853 2.04798e-05 0)
(0.00194692 1.93719e-05 0)
(0.00181688 1.81843e-05 0)
(0.00168957 1.69595e-05 0)
(0.00156593 1.57295e-05 0)
(0.00144666 1.45169e-05 0)
(0.00133228 1.33401e-05 0)
(0.00122316 1.22133e-05 0)
(0.00111954 1.11434e-05 0)
(0.00102156 1.01336e-05 0)
(0.00092925 9.18667e-06 0)
(0.000842598 8.30353e-06 0)
(0.000761534 7.4813e-06 0)
(0.000685943 6.7164e-06 0)
(0.000615684 6.00604e-06 0)
(0.000550597 5.34761e-06 0)
(0.000490511 4.73727e-06 0)
(0.00043524 4.17039e-06 0)
(0.000384591 3.6437e-06 0)
(0.000338371 3.15496e-06 0)
(0.000296385 2.70162e-06 0)
(0.00025844 2.28079e-06 0)
(0.000224339 1.88969e-06 0)
(0.00019389 1.52635e-06 0)
(0.000166902 1.18951e-06 0)
(0.000143192 8.77678e-07 0)
(0.00012258 5.88952e-07 0)
(0.000104888 3.21383e-07 0)
(8.99493e-05 7.33055e-08 0)
(7.76021e-05 -1.56616e-07 0)
(6.76973e-05 -3.698e-07 0)
(6.00955e-05 -5.68093e-07 0)
(5.46685e-05 -7.53685e-07 0)
(5.13014e-05 -9.28937e-07 0)
(4.98948e-05 -1.09621e-06 0)
(5.03686e-05 -1.25536e-06 0)
(5.26507e-05 -1.40481e-06 0)
(5.66782e-05 -1.54638e-06 0)
(6.23943e-05 -1.68399e-06 0)
(6.97622e-05 -1.82147e-06 0)
(7.87729e-05 -1.96314e-06 0)
(8.9448e-05 -2.11362e-06 0)
(0.000101842 -2.27749e-06 0)
(0.000116046 -2.45976e-06 0)
(0.000132184 -2.66629e-06 0)
(0.000150427 -2.90405e-06 0)
(0.000170991 -3.18156e-06 0)
(0.000194153 -3.50937e-06 0)
(0.000220254 -3.90065e-06 0)
(0.000249718 -4.37168e-06 0)
(0.000283057 -4.9425e-06 0)
(0.00032089 -5.63763e-06 0)
(0.000363951 -6.48628e-06 0)
(0.000413099 -7.52201e-06 0)
(0.000469313 -8.78185e-06 0)
(0.000533681 -1.03043e-05 0)
(0.000607359 -1.2125e-05 0)
(0.000691502 -1.42703e-05 0)
(0.000787141 -1.67476e-05 0)
(0.000895011 -1.95321e-05 0)
(0.0010153 -2.25508e-05 0)
(0.00114731 -2.56619e-05 0)
(0.00128904 -2.86333e-05 0)
(0.00143671 -3.11178e-05 0)
(0.00158413 -3.26214e-05 0)
(0.00172206 -3.24497e-05 0)
(0.00183745 -2.96281e-05 0)
(0.00191198 -2.26929e-05 0)
(0.00192153 -9.58918e-06 0)
(0.00183332 1.30736e-05 0)
(0.00160858 4.80608e-05 0)
(0.00121503 9.37097e-05 0)
(0.000671331 0.000134727 0)
(0.000134005 0.000126364 0)
(1.23822e-05 -6.75613e-05 0)
(0.000198345 -0.000208535 0)
(0.000547197 -0.000330893 0)
(0.0010239 -0.00042802 0)
(0.00159909 -0.000499531 0)
(0.00224375 -0.000545195 0)
(0.00292874 -0.00056537 0)
(0.00362623 -0.000561415 0)
(0.00431069 -0.000535835 0)
(0.0049599 -0.000492092 0)
(0.00555555 -0.000434251 0)
(0.00608356 -0.000366592 0)
(0.0065341 -0.000293282 0)
(0.00690134 -0.000218141 0)
(0.00718314 -0.000144507 0)
(0.00738049 -7.51934e-05 0)
(0.0074974 -1.25354e-05 0)
(0.00753872 4.25e-05 0)
(0.00751543 9.08076e-05 0)
(0.00743268 0.000132528 0)
(0.00729827 0.000167085 0)
(0.00711981 0.000194808 0)
(0.00690466 0.000216243 0)
(0.00665979 0.000232003 0)
(0.00639169 0.000242732 0)
(0.00610627 0.00024907 0)
(0.00580884 0.000251642 0)
(0.00550411 0.00025104 0)
(0.00519617 0.00024781 0)
(0.00488853 0.000242449 0)
(0.00458414 0.000235402 0)
(0.00428545 0.000227056 0)
(0.00399446 0.000217748 0)
(0.00371273 0.000207761 0)
(0.0034415 0.000197332 0)
(0.00318167 0.000186655 0)
(0.0029339 0.000175885 0)
(0.0026986 0.000165148 0)
(0.00247603 0.000154537 0)
(0.00226627 0.000144126 0)
(0.0020693 0.00013397 0)
(0.00188499 0.000124111 0)
(0.00171313 0.000114574 0)
(0.00155347 0.000105381 0)
(0.00140568 9.65434e-05 0)
(0.0012694 8.80716e-05 0)
(0.00114427 7.99692e-05 0)
(0.00102987 7.22373e-05 0)
(0.000925778 6.48744e-05 0)
(0.000831565 5.7878e-05 0)
(0.000746792 5.12435e-05 0)
(0.000671018 4.49638e-05 0)
(0.000603804 3.90291e-05 0)
(0.000544715 3.34274e-05 0)
(0.000493329 2.81448e-05 0)
(0.000449236 2.31655e-05 0)
(0.000412049 1.84708e-05 0)
(0.000381401 1.40385e-05 0)
(0.000356951 9.84345e-06 0)
(0.000338389 5.85726e-06 0)
(0.000325443 2.049e-06 0)
(0.000317877 -1.61138e-06 0)
(0.000315513 -5.14284e-06 0)
(0.000318199 -8.55228e-06 0)
(0.000325776 -1.18666e-05 0)
(0.00033813 -1.51364e-05 0)
(0.000355207 -1.8416e-05 0)
(0.000377028 -2.17653e-05 0)
(0.000403692 -2.52484e-05 0)
(0.00043538 -2.89346e-05 0)
(0.000472363 -3.29014e-05 0)
(0.000515011 -3.72364e-05 0)
(0.000563804 -4.20408e-05 0)
(0.00061935 -4.74321e-05 0)
(0.000682398 -5.35473e-05 0)
(0.000753861 -6.05456e-05 0)
(0.000834829 -6.86081e-05 0)
(0.00092659 -7.7937e-05 0)
(0.00103063 -8.87483e-05 0)
(0.00114863 -0.000101259 0)
(0.00128243 -0.000115663 0)
(0.00143398 -0.000132098 0)
(0.00160516 -0.000150587 0)
(0.00179766 -0.000170966 0)
(0.00201263 -0.000192782 0)
(0.00225024 -0.000215176 0)
(0.00250921 -0.000236732 0)
(0.00278599 -0.000255332 0)
(0.00307396 -0.000268 0)
(0.00336241 -0.00027076 0)
(0.00363541 -0.000258498 0)
(0.00387068 -0.000224789 0)
(0.00403837 -0.000161608 0)
(0.00409922 -5.90594e-05 0)
(0.00400568 9.59907e-05 0)
(0.00369674 0.000314833 0)
(0.00311935 0.000591702 0)
(0.0022479 0.000876091 0)
(0.00116554 0.00101756 0)
(0.000176765 0.000690361 0)
(1.99545e-05 -0.000198733 0)
(0.00028864 -0.000547423 0)
(0.000773481 -0.000839309 0)
(0.00142617 -0.00107161 0)
(0.00220746 -0.00124392 0)
(0.00307998 -0.00135605 0)
(0.00400688 -0.00140942 0)
(0.00495361 -0.00140764 0)
(0.00588894 -0.00135654 0)
(0.00678575 -0.00126366 0)
(0.00762154 -0.00113757 0)
(0.00837855 -0.000987183 0)
(0.0090437 -0.000821177 0)
(0.00960823 -0.000647576 0)
(0.0100674 -0.000473505 0)
(0.0104198 -0.000305075 0)
(0.0106674 -0.000147328 0)
(0.0108139 -4.54464e-06 0)
(0.0108661 0.000122158 0)
(0.0108354 0.000233671 0)
(0.010729 0.000329621 0)
(0.0105565 0.000410151 0)
(0.0103266 0.000475993 0)
(0.010048 0.000528125 0)
(0.00972898 0.00056769 0)
(0.00937742 0.000595921 0)
(0.00900055 0.000614087 0)
(0.00860503 0.000623454 0)
(0.00819685 0.000625244 0)
(0.00778133 0.000620615 0)
(0.00736315 0.000610641 0)
(0.00694637 0.0005963 0)
(0.00653445 0.000578465 0)
(0.00613029 0.000557904 0)
(0.0057363 0.000535287 0)
(0.00535444 0.000511183 0)
(0.00498624 0.000486072 0)
(0.00463293 0.000460353 0)
(0.00429538 0.000434355 0)
(0.00397423 0.000408345 0)
(0.0036699 0.000382539 0)
(0.00338259 0.000357105 0)
(0.00311237 0.000332179 0)
(0.00285918 0.000307869 0)
(0.00262282 0.000284256 0)
(0.00240301 0.000261405 0)
(0.00219941 0.000239365 0)
(0.00201161 0.00021817 0)
(0.00183912 0.000197847 0)
(0.00168144 0.000178412 0)
(0.00153804 0.000159873 0)
(0.00140835 0.000142227 0)
(0.00129179 0.000125464 0)
(0.00118778 0.000109567 0)
(0.00109574 9.45101e-05 0)
(0.0010151 8.02599e-05 0)
(0.000945303 6.67737e-05 0)
(0.000885821 5.4e-05 0)
(0.000836152 4.18793e-05 0)
(0.000795835 3.03435e-05 0)
(0.000764451 1.93159e-05 0)
(0.000741638 8.71139e-06 0)
(0.000727081 -1.55211e-06 0)
(0.000720568 -1.15174e-05 0)
(0.000721947 -2.12108e-05 0)
(0.000730992 -3.0727e-05 0)
(0.000747577 -4.0216e-05 0)
(0.000771672 -4.98304e-05 0)
(0.000803355 -5.97325e-05 0)
(0.000842818 -7.00977e-05 0)
(0.000890369 -8.11182e-05 0)
(0.000946446 -9.3008e-05 0)
(0.00101163 -0.000106009 0)
(0.00108664 -0.000120396 0)
(0.0011724 -0.000136482 0)
(0.00126998 -0.00015462 0)
(0.00138067 -0.000175198 0)
(0.00150595 -0.00019863 0)
(0.00164751 -0.000225337 0)
(0.00180718 -0.000255701 0)
(0.00198689 -0.00029001 0)
(0.00218854 -0.000328364 0)
(0.00241386 -0.000370541 0)
(0.00266405 -0.000415823 0)
(0.00293947 -0.00046277 0)
(0.00323905 -0.000508948 0)
(0.0035596 -0.00055062 0)
(0.00389497 -0.000582423 0)
(0.00423493 -0.000597059 0)
(0.00456404 -0.000585032 0)
(0.00486032 -0.000534436 0)
(0.00509396 -0.000430796 0)
(0.00522612 -0.000256896 0)
(0.00520846 7.5346e-06 0)
(0.00498121 0.000384697 0)
(0.00448501 0.000882717 0)
(0.0036775 0.00146809 0)
(0.00256193 0.00201352 0)
(0.00127111 0.00220293 0)
(0.00016721 0.00140027 0)
(2.28258e-05 -0.00036502 0)
(0.000338595 -0.000971216 0)
(0.000905736 -0.00146832 0)
(0.00166534 -0.00186204 0)
(0.00257096 -0.00215403 0)
(0.00357973 -0.00234551 0)
(0.00465047 -0.00244011 0)
(0.00574543 -0.0024447 0)
(0.00683109 -0.00236927 0)
(0.00787879 -0.00222602 0)
(0.00886488 -0.00202838 0)
(0.00977069 -0.00179006 0)
(0.0105822 -0.00152422 0)
(0.0112896 -0.00124303 0)
(0.0118868 -0.000957281 0)
(0.012371 -0.000676233 0)
(0.012742 -0.000407583 0)
(0.0130025 -0.000157742 0)
(0.0131545 6.82846e-05 0)
(0.0132086 0.000268925 0)
(0.0131726 0.000445039 0)
(0.0130556 0.000596511 0)
(0.0128669 0.000724118 0)
(0.0126153 0.000829064 0)
(0.0123096 0.000912835 0)
(0.0119582 0.000977119 0)
(0.0115691 0.00102372 0)
(0.0111498 0.00105451 0)
(0.0107073 0.00107135 0)
(0.0102479 0.00107603 0)
(0.00977727 0.00107029 0)
(0.0093007 0.00105573 0)
(0.00882268 0.00103384 0)
(0.00834721 0.00100596 0)
(0.00787772 0.000973264 0)
(0.00741716 0.000936813 0)
(0.006968 0.000897513 0)
(0.0065323 0.000856145 0)
(0.00611172 0.000813375 0)
(0.00570762 0.00076976 0)
(0.00532101 0.000725768 0)
(0.00495267 0.000681788 0)
(0.00460315 0.000638141 0)
(0.00427277 0.000595093 0)
(0.0039617 0.000552859 0)
(0.00366994 0.000511619 0)
(0.00339737 0.000471517 0)
(0.00314376 0.000432669 0)
(0.00290877 0.000395167 0)
(0.00269199 0.00035908 0)
(0.00249293 0.000324457 0)
(0.00231106 0.000291327 0)
(0.0021458 0.0002597 0)
(0.00199654 0.000229571 0)
(0.00186265 0.000200914 0)
(0.0017435 0.000173687 0)
(0.00163846 0.000147829 0)
(0.00154691 0.000123263 0)
(0.00146825 9.98971e-05 0)
(0.00140194 7.76197e-05 0)
(0.00134744 5.63037e-05 0)
(0.00130429 3.5806e-05 0)
(0.0012721 1.59685e-05 0)
(0.0012505 -3.36075e-06 0)
(0.00123934 -2.22409e-05 0)
(0.00123848 -4.07378e-05 0)
(0.00124765 -5.90685e-05 0)
(0.00126675 -7.75193e-05 0)
(0.00129576 -9.63722e-05 0)
(0.00133483 -0.000115927 0)
(0.00138421 -0.000136509 0)
(0.00144428 -0.000158475 0)
(0.00151559 -0.00018222 0)
(0.00159883 -0.000208186 0)
(0.00169485 -0.000236865 0)
(0.00180467 -0.000268796 0)
(0.00192948 -0.000304559 0)
(0.00207064 -0.000344748 0)
(0.00222962 -0.000389931 0)
(0.00240801 -0.000440579 0)
(0.00260737 -0.00049696 0)
(0.00282912 -0.000558985 0)
(0.00307433 -0.00062599 0)
(0.00334339 -0.000696453 0)
(0.00363564 -0.000767635 0)
(0.00394875 -0.000835152 0)
(0.00427799 -0.00089249 0)
(0.00461537 -0.000930503 0)
(0.0049485 -0.000936939 0)
(0.00525934 -0.000896061 0)
(0.00552295 -0.000788407 0)
(0.00570619 -0.000590759 0)
(0.00576698 -0.000276342 0)
(0.00565376 0.000185149 0)
(0.00530793 0.000817618 0)
(0.00468037 0.00161629 0)
(0.00374578 0.00250886 0)
(0.00253453 0.00327962 0)
(0.00120749 0.00344521 0)
(0.000141071 0.00209536 0)
(2.31488e-05 -0.000548074 0)
(0.00036268 -0.00144156 0)
(0.00097666 -0.00216655 0)
(0.00179904 -0.0027376 0)
(0.00277794 -0.00315982 0)
(0.00386613 -0.00343723 0)
(0.00501928 -0.00357685 0)
(0.00619768 -0.00358991 0)
(0.00736686 -0.00349138 0)
(0.00849798 -0.00329871 0)
(0.00956773 -0.0030305 0)
(0.010558 -0.00270528 0)
(0.0114554 -0.00234063 0)
(0.0122507 -0.00195256 0)
(0.0129378 -0.00155518 0)
(0.013514 -0.00116055 0)
(0.0139785 -0.000778651 0)
(0.0143326 -0.000417552 0)
(0.0145794 -8.44748e-05 0)
(0.0147206 0.000216031 0)
(0.0147666 0.000482729 0)
(0.0147247 0.000715924 0)
(0.0146034 0.0009164 0)
(0.0144112 0.00108547 0)
(0.0141564 0.00122481 0)
(0.0138469 0.00133641 0)
(0.0134907 0.00142246 0)
(0.0130952 0.00148528 0)
(0.0126674 0.00152721 0)
(0.0122139 0.00155062 0)
(0.0117408 0.00155779 0)
(0.0112537 0.00155088 0)
(0.0107578 0.00153195 0)
(0.0102575 0.00150286 0)
(0.00975704 0.00146533 0)
(0.00926002 0.00142091 0)
(0.0087696 0.00137094 0)
(0.00828856 0.00131664 0)
(0.00781925 0.00125904 0)
(0.00736368 0.00119907 0)
(0.00692353 0.00113749 0)
(0.00650017 0.00107498 0)
(0.00609469 0.0010121 0)
(0.00570796 0.000949334 0)
(0.00534058 0.000887097 0)
(0.00499299 0.000825737 0)
(0.00466545 0.000765547 0)
(0.00435804 0.000706773 0)
(0.00407071 0.000649619 0)
(0.00380329 0.00059425 0)
(0.00355549 0.000540794 0)
(0.00332694 0.000489347 0)
(0.0031172 0.000439971 0)
(0.00292576 0.000392698 0)
(0.00275205 0.000347526 0)
(0.00259548 0.000304426 0)
(0.00245545 0.000263338 0)
(0.00233133 0.000224173 0)
(0.00222253 0.000186815 0)
(0.00212844 0.000151121 0)
(0.0020485 0.000116921 0)
(0.00198219 8.40172e-05 0)
(0.00192903 5.21897e-05 0)
(0.00188864 2.11898e-05 0)
(0.0018606 -9.2139e-06 0)
(0.00184497 -3.90717e-05 0)
(0.00184153 -6.85334e-05 0)
(0.00185 -9.79906e-05 0)
(0.0018703 -0.000127866 0)
(0.00190242 -0.000158589 0)
(0.00194652 -0.000190618 0)
(0.00200286 -0.000224447 0)
(0.00207184 -0.000260615 0)
(0.00215398 -0.000299713 0)
(0.00224995 -0.000342384 0)
(0.00236055 -0.000389322 0)
(0.00248669 -0.000441244 0)
(0.00262941 -0.000498864 0)
(0.00278977 -0.000562819 0)
(0.00296888 -0.000633575 0)
(0.00316773 -0.000711271 0)
(0.00338707 -0.000795508 0)
(0.00362722 -0.00088505 0)
(0.00388772 -0.000977438 0)
(0.00416698 -0.0010685 0)
(0.00446168 -0.00115178 0)
(0.0047661 -0.00121786 0)
(0.00507121 -0.0012537 0)
(0.0053636 -0.00124198 0)
(0.00562429 -0.00116064 0)
(0.00582748 -0.000982657 0)
(0.00593945 -0.000676325 0)
(0.00591837 -0.000206015 0)
(0.00571347 0.000465143 0)
(0.0052749 0.00135649 0)
(0.00456447 0.00244443 0)
(0.00357373 0.00361173 0)
(0.00235397 0.0045528 0)
(0.0010785 0.00463123 0)
(0.000112006 0.00271946 0)
(2.25748e-05 -0.000738146 0)
(0.000373784 -0.00193671 0)
(0.00101464 -0.00290474 0)
(0.0018744 -0.0036635 0)
(0.00289681 -0.0042219 0)
(0.00403071 -0.00458768 0)
(0.00522897 -0.00477249 0)
(0.00645027 -0.00479304 0)
(0.00765966 -0.00467021 0)
(0.00882863 -0.00442742 0)
(0.00993486 -0.00408884 0)
(0.0109616 -0.00367808 0)
(0.0118968 -0.0032171 0)
(0.0127327 -0.00272562 0)
(0.0134646 -0.00222077 0)
(0.0140905 -0.00171705 0)
(0.0146104 -0.00122635 0)
(0.0150256 -0.000758204 0)
(0.015339 -0.000320224 0)
(0.0155525 8.10276e-05 0)
(0.0156713 0.000440885 0)
(0.0157021 0.000759374 0)
(0.0156525 0.00103724 0)
(0.0155297 0.0012758 0)
(0.0153412 0.00147682 0)
(0.0150941 0.00164248 0)
(0.0147954 0.00177519 0)
(0.0144519 0.0018776 0)
(0.0140702 0.00195241 0)
(0.0136565 0.00200239 0)
(0.0132166 0.00203023 0)
(0.012756 0.00203857 0)
(0.0122797 0.00202988 0)
(0.0117924 0.0020065 0)
(0.0112985 0.00197059 0)
(0.0108019 0.00192411 0)
(0.010306 0.00186885 0)
(0.0098141 0.00180639 0)
(0.00932898 0.00173815 0)
(0.00885314 0.00166539 0)
(0.00838873 0.00158921 0)
(0.00793766 0.00151057 0)
(0.00750152 0.00143031 0)
(0.00708166 0.00134917 0)
(0.00667918 0.00126779 0)
(0.00629498 0.00118672 0)
(0.00592973 0.00110645 0)
(0.00558392 0.00102739 0)
(0.00525788 0.000949907 0)
(0.00495177 0.000874289 0)
(0.0046656 0.000800789 0)
(0.00439928 0.000729603 0)
(0.00415259 0.000660881 0)
(0.00392523 0.000594724 0)
(0.00371681 0.000531187 0)
(0.00352688 0.00047028 0)
(0.00335494 0.000411969 0)
(0.00320047 0.000356179 0)
(0.00306292 0.00030279 0)
(0.00294174 0.000251646 0)
(0.00283637 0.000202549 0)
(0.00274629 0.000155265 0)
(0.00267102 0.000109526 0)
(0.00261009 6.50266e-05 0)
(0.00256317 2.14098e-05 0)
(0.00252974 -2.16253e-05 0)
(0.00251023 -6.41027e-05 0)
(0.00250418 -0.0001063 0)
(0.00251136 -0.000148798 0)
(0.00253166 -0.000192156 0)
(0.00256507 -0.000236948 0)
(0.00261168 -0.000283788 0)
(0.00267168 -0.000333333 0)
(0.00274539 -0.000386294 0)
(0.0028332 -0.000443428 0)
(0.00293559 -0.00050553 0)
(0.00305313 -0.000573404 0)
(0.00318641 -0.000647812 0)
(0.00333602 -0.000729391 0)
(0.00350252 -0.000818524 0)
(0.00368628 -0.000915145 0)
(0.00388737 -0.00101847 0)
(0.0041054 -0.00112665 0)
(0.00433919 -0.00123624 0)
(0.00458641 -0.00134164 0)
(0.00484311 -0.00143435 0)
(0.00510301 -0.00150215 0)
(0.00535668 -0.0015282 0)
(0.00559055 -0.00149031 0)
(0.00578575 -0.00136034 0)
(0.00591696 -0.0011041 0)
(0.00595169 -0.000682101 0)
(0.00584991 -5.10069e-05 0)
(0.00556531 0.000828248 0)
(0.00505803 0.00196645 0)
(0.00430036 0.00331807 0)
(0.00329804 0.00471813 0)
(0.00211725 0.00577452 0)
(0.000933611 0.00571754 0)
(8.56429e-05 0.00325866 0)
(2.20587e-05 -0.000931396 0)
(0.00038046 -0.00244611 0)
(0.00103882 -0.00366721 0)
(0.00192268 -0.00462001 0)
(0.00297184 -0.00531694 0)
(0.00413141 -0.0057702 0)
(0.00535165 -0.00599719 0)
(0.00658984 -0.00602128 0)
(0.00781075 -0.00587029 0)
(0.00898653 -0.00557433 0)
(0.0100961 -0.00516373 0)
(0.0111245 -0.00466742 0)
(0.0120615 -0.00411185 0)
(0.0129011 -0.00352038 0)
(0.0136407 -0.00291298 0)
(0.0142797 -0.0023063 0)
(0.0148194 -0.0017138 0)
(0.0152622 -0.00114608 0)
(0.0156113 -0.000611342 0)
(0.0158703 -0.00011642 0)
(0.0160412 0.000333161 0)
(0.0161294 0.000734608 0)
(0.0161413 0.00108865 0)
(0.016083 0.00139663 0)
(0.0159605 0.00166036 0)
(0.01578 0.0018821 0)
(0.0155475 0.00206446 0)
(0.0152687 0.00221026 0)
(0.0149492 0.00232248 0)
(0.0145945 0.00240413 0)
(0.0142097 0.00245822 0)
(0.0137997 0.0024877 0)
(0.013369 0.00249537 0)
(0.0129222 0.0024839 0)
(0.0124631 0.00245578 0)
(0.0119957 0.00241332 0)
(0.0115235 0.00235861 0)
(0.0110497 0.00229358 0)
(0.0105773 0.00221995 0)
(0.010109 0.00213926 0)
(0.00964731 0.00205292 0)
(0.00919437 0.00196215 0)
(0.00875216 0.00186807 0)
(0.00832241 0.00177164 0)
(0.00790664 0.00167375 0)
(0.00750612 0.00157517 0)
(0.00712194 0.00147659 0)
(0.006755 0.00137861 0)
(0.00640598 0.00128177 0)
(0.00607543 0.00118653 0)
(0.00576371 0.00109328 0)
(0.00547105 0.00100236 0)
(0.00519754 0.000914023 0)
(0.00494313 0.000828484 0)
(0.0047077 0.000745881 0)
(0.004491 0.000666293 0)
(0.00429274 0.000589744 0)
(0.00411254 0.000516195 0)
(0.00395 0.000445555 0)
(0.00380465 0.000377677 0)
(0.00367605 0.000312362 0)
(0.0035637 0.000249362 0)
(0.00346717 0.000188381 0)
(0.00338599 0.000129075 0)
(0.00331975 7.10527e-05 0)
(0.00326814 1.38282e-05 0)
(0.00323065 -4.28856e-05 0)
(0.00320788 -9.91233e-05 0)
(0.00319921 -0.000155352 0)
(0.00320444 -0.000212296 0)
(0.0032234 -0.000270631 0)
(0.00325599 -0.00033106 0)
(0.0033022 -0.000394328 0)
(0.00336207 -0.000461226 0)
(0.00343571 -0.000532582 0)
(0.00352326 -0.000609246 0)
(0.0036249 -0.000692051 0)
(0.00374079 -0.000781754 0)
(0.00387104 -0.000878932 0)
(0.00401565 -0.000983829 0)
(0.00417442 -0.00109613 0)
(0.00434683 -0.00121465 0)
(0.00453188 -0.00133689 0)
(0.00472781 -0.00145849 0)
(0.00493182 -0.00157249 0)
(0.00513955 -0.00166848 0)
(0.00534455 -0.00173159 0)
(0.00553742 -0.00174147 0)
(0.00570493 -0.00167135 0)
(0.00582897 -0.00148745 0)
(0.00588546 -0.00114902 0)
(0.00584422 -0.000609618 0)
(0.00566757 0.000180206 0)
(0.00531702 0.00125684 0)
(0.00476016 0.00262193 0)
(0.00397943 0.00420559 0)
(0.00299185 0.00579462 0)
(0.00187349 0.00691659 0)
(0.000795792 0.00668998 0)
(6.40307e-05 0.00371485 0)
(2.19804e-05 -0.00112735 0)
(0.000387104 -0.0029662 0)
(0.00105947 -0.0044469 0)
(0.00196075 -0.00559674 0)
(0.00302679 -0.00643136 0)
(0.00419915 -0.0069682 0)
(0.0054257 -0.00723157 0)
(0.00666263 -0.00725267 0)
(0.00787473 -0.00706731 0)
(0.00903506 -0.00671306 0)
(0.0101241 -0.00622693 0)
(0.0111287 -0.00564348 0)
(0.0120409 -0.00499379 0)
(0.0128568 -0.00430481 0)
(0.0135757 -0.00359924 0)
(0.0141991 -0.00289565 0)
(0.0147297 -0.00220878 0)
(0.0151715 -0.00155005 0)
(0.0155286 -0.000927986 0)
(0.0158051 -0.000348998 0)
(0.016005 0.000181598 0)
(0.0161303 0.000659136 0)
(0.016187 0.00108363 0)
(0.01618 0.00145653 0)
(0.0161143 0.00177967 0)
(0.0159949 0.0020554 0)
(0.0158264 0.00228643 0)
(0.0156137 0.00247574 0)
(0.0153612 0.00262647 0)
(0.0150733 0.00274182 0)
(0.0147541 0.002825 0)
(0.0144079 0.00287915 0)
(0.0140383 0.0029073 0)
(0.0136491 0.00291232 0)
(0.0132439 0.00289693 0)
(0.0128261 0.00286364 0)
(0.0123988 0.0028148 0)
(0.0119651 0.00275253 0)
(0.0115279 0.00267879 0)
(0.0110898 0.00259536 0)
(0.0106533 0.00250384 0)
(0.0102207 0.00240569 0)
(0.00979419 0.00230224 0)
(0.00937569 0.00219467 0)
(0.00896697 0.00208407 0)
(0.00856958 0.00197141 0)
(0.00818493 0.00185757 0)
(0.00781423 0.00174336 0)
(0.00745852 0.00162948 0)
(0.00711866 0.00151657 0)
(0.00679537 0.00140518 0)
(0.00648919 0.00129579 0)
(0.00620052 0.00118882 0)
(0.00592965 0.00108458 0)
(0.00567669 0.00098333 0)
(0.00544169 0.000885249 0)
(0.00522458 0.00079044 0)
(0.00502519 0.000698935 0)
(0.0048433 0.000610693 0)
(0.00467861 0.000525608 0)
(0.0045308 0.000443506 0)
(0.00439949 0.000364154 0)
(0.0042843 0.000287253 0)
(0.00418483 0.00021245 0)
(0.00410068 0.000139329 0)
(0.0040315 6.74093e-05 0)
(0.00397681 -3.89833e-06 0)
(0.00393657 -7.47694e-05 0)
(0.00391099 -0.000145352 0)
(0.0038995 -0.000216332 0)
(0.00390186 -0.000288485 0)
(0.0039178 -0.000362574 0)
(0.00394709 -0.000439398 0)
(0.00398954 -0.00051979 0)
(0.00404496 -0.000604607 0)
(0.00411318 -0.000694709 0)
(0.00419401 -0.000790915 0)
(0.0042872 -0.000893929 0)
(0.00439243 -0.00100423 0)
(0.0045092 -0.00112188 0)
(0.00463684 -0.00124631 0)
(0.00477434 -0.00137592 0)
(0.0049202 -0.00150762 0)
(0.00507226 -0.00163619 0)
(0.0052274 -0.00175341 0)
(0.00538111 -0.00184714 0)
(0.00552695 -0.00190011 0)
(0.00565584 -0.00188874 0)
(0.00575523 -0.00178208 0)
(0.0058081 -0.0015412 0)
(0.0057921 -0.00111953 0)
(0.00567964 -0.000464652 0)
(0.0054366 0.000476382 0)
(0.00503182 0.00173597 0)
(0.00443967 0.00330489 0)
(0.00365152 0.00508772 0)
(0.0026931 0.00682429 0)
(0.00164638 0.0079694 0)
(0.000674612 0.00755072 0)
(4.73328e-05 0.00409757 0)
(2.24038e-05 -0.00132689 0)
(0.000395266 -0.00349653 0)
(0.00108055 -0.00524075 0)
(0.00199536 -0.00658757 0)
(0.00307132 -0.00755605 0)
(0.00424669 -0.00816977 0)
(0.00546731 -0.00846127 0)
(0.00668871 -0.00847077 0)
(0.00787608 -0.00824304 0)
(0.00900372 -0.00782389 0)
(0.0100539 -0.00725744 0)
(0.0110156 -0.0065842 0)
(0.0118831 -0.00583993 0)
(0.0126549 -0.00505516 0)
(0.0133322 -0.00425515 0)
(0.0139186 -0.00346021 0)
(0.0144186 -0.00268614 0)
(0.0148374 -0.00194483 0)
(0.0151804 -0.00124491 0)
(0.0154527 -0.000592499 0)
(0.0156592 8.14261e-06 0)
(0.0158022 0.000552417 0)
(0.015886 0.00103891 0)
(0.015915 0.00146928 0)
(0.0158931 0.00184549 0)
(0.0158242 0.00216997 0)
(0.015712 0.00244558 0)
(0.0155601 0.00267545 0)
(0.015372 0.00286284 0)
(0.0151509 0.0030111 0)
(0.0149 0.00312357 0)
(0.0146223 0.00320351 0)
(0.0143208 0.00325405 0)
(0.0139983 0.00327819 0)
(0.0136578 0.00327876 0)
(0.0133019 0.0032584 0)
(0.0129334 0.00321955 0)
(0.0125548 0.00316448 0)
(0.0121686 0.00309528 0)
(0.0117774 0.00301386 0)
(0.0113833 0.00292196 0)
(0.0109886 0.0028212 0)
(0.0105955 0.00271305 0)
(0.0102058 0.00259886 0)
(0.00982156 0.00247986 0)
(0.00944438 0.00235721 0)
(0.00907587 0.00223195 0)
(0.00871744 0.00210504 0)
(0.0083704 0.00197735 0)
(0.00803587 0.00184969 0)
(0.00771483 0.00172277 0)
(0.00740813 0.00159722 0)
(0.00711645 0.00147359 0)
(0.00684034 0.00135234 0)
(0.00658022 0.00123385 0)
(0.00633639 0.00111843 0)
(0.00610903 0.00100627 0)
(0.00589821 0.000897499 0)
(0.00570392 0.000792155 0)
(0.00552605 0.000690196 0)
(0.00536443 0.000591503 0)
(0.00521884 0.000495879 0)
(0.005089 0.000403059 0)
(0.00497459 0.000312707 0)
(0.00487529 0.000224419 0)
(0.00479071 0.00013772 0)
(0.00472054 5.20189e-05 0)
(0.00466406 -3.32875e-05 0)
(0.00462196 -0.000118235 0)
(0.00459368 -0.000203166 0)
(0.00457881 -0.000288912 0)
(0.00457701 -0.000376268 0)
(0.00458786 -0.000466042 0)
(0.00461096 -0.000559071 0)
(0.00464589 -0.000656204 0)
(0.00469219 -0.000758274 0)
(0.00474935 -0.000866046 0)
(0.00481679 -0.000980142 0)
(0.0048938 -0.00110091 0)
(0.00497951 -0.00122822 0)
(0.00507283 -0.00136124 0)
(0.00517237 -0.00149798 0)
(0.00527629 -0.0016348 0)
(0.00538216 -0.0017657 0)
(0.00548666 -0.00188136 0)
(0.00558526 -0.00196807 0)
(0.0056717 -0.0020064 0)
(0.00573738 -0.00196988 0)
(0.00577055 -0.0018238 0)
(0.00575551 -0.00152463 0)
(0.00567189 -0.00102068 0)
(0.00549445 -0.000254561 0)
(0.00519346 0.000828099 0)
(0.00474438 0.00225424 0)
(0.00412764 0.0040031 0)
(0.00334203 0.0059534 0)
(0.00241986 0.00780012 0)
(0.00144587 0.0089335 0)
(0.000572762 0.00830961 0)
(3.49448e-05 0.00441858 0)
(2.32486e-05 -0.00153112 0)
(0.000404886 -0.00403751 0)
(0.00110232 -0.00604685 0)
(0.00202721 -0.00758776 0)
(0.00310682 -0.0086834 0)
(0.00427635 -0.00936484 0)
(0.00548015 -0.00967415 0)
(0.00667354 -0.00966186 0)
(0.00782257 -0.00938258 0)
(0.00890314 -0.00889101 0)
(0.0098996 -0.00823883 0)
(0.0108032 -0.00747265 0)
(0.0116108 -0.00663297 0)
(0.012323 -0.00575381 0)
(0.0129433 -0.00486285 0)
(0.0134772 -0.00398187 0)
(0.0139309 -0.00312747 0)
(0.0143111 -0.00231178 0)
(0.0146241 -0.00154324 0)
(0.0148761 -0.000827474 0)
(0.0150722 -0.000167864 0)
(0.0152171 0.000432187 0)
(0.0153125 0.000970737 0)
(0.0153632 0.00144947 0)
(0.0153721 0.0018705 0)
(0.0153423 0.00223646 0)
(0.0152765 0.00255042 0)
(0.0151775 0.00281567 0)
(0.0150475 0.00303565 0)
(0.0148887 0.00321383 0)
(0.0147034 0.00335362 0)
(0.0144936 0.00345835 0)
(0.0142612 0.00353122 0)
(0.0140083 0.00357525 0)
(0.0137369 0.0035933 0)
(0.0134491 0.00358803 0)
(0.0131468 0.00356192 0)
(0.012832 0.00351728 0)
(0.0125069 0.00345622 0)
(0.0121734 0.00338072 0)
(0.0118335 0.00329259 0)
(0.0114892 0.0031935 0)
(0.0111425 0.00308501 0)
(0.0107952 0.00296857 0)
(0.010449 0.00284552 0)
(0.0101058 0.00271711 0)
(0.00976723 0.00258452 0)
(0.00943471 0.00244884 0)
(0.00910972 0.00231107 0)
(0.00879354 0.00217216 0)
(0.00848736 0.00203294 0)
(0.00819224 0.00189421 0)
(0.00790908 0.00175664 0)
(0.00763869 0.00162083 0)
(0.0073817 0.0014873 0)
(0.00713868 0.00135647 0)
(0.00691001 0.00122865 0)
(0.00669602 0.00110408 0)
(0.00649689 0.000982888 0)
(0.00631272 0.000865124 0)
(0.00614352 0.000750743 0)
(0.00598921 0.000639613 0)
(0.00584966 0.000531524 0)
(0.00572467 0.000426187 0)
(0.00561397 0.000323236 0)
(0.00551726 0.000222232 0)
(0.0054342 0.000122651 0)
(0.00536444 2.37762e-05 0)
(0.00530723 -7.48193e-05 0)
(0.00526336 -0.000173151 0)
(0.00523199 -0.000271795 0)
(0.00521272 -0.00037159 0)
(0.00520504 -0.000473321 0)
(0.00520837 -0.000577793 0)
(0.00522211 -0.000685811 0)
(0.00524556 -0.000798148 0)
(0.00527799 -0.000915488 0)
(0.00531851 -0.00103834 0)
(0.00536615 -0.00116691 0)
(0.00541972 -0.00130089 0)
(0.00547786 -0.00143915 0)
(0.00553887 -0.00157937 0)
(0.00560068 -0.0017174 0)
(0.00566068 -0.00184655 0)
(0.00571548 -0.00195651 0)
(0.00576061 -0.00203221 0)
(0.00579007 -0.00205229 0)
(0.00579578 -0.0019877 0)
(0.00576688 -0.00180037 0)
(0.00568896 -0.00144274 0)
(0.00554375 -0.000858613 0)
(0.00530786 1.36332e-05 0)
(0.00495741 0.00122645 0)
(0.0044725 0.00280238 0)
(0.00383921 0.00470809 0)
(0.00306237 0.00679659 0)
(0.00217906 0.00872082 0)
(0.00127446 0.00981469 0)
(0.000489533 0.00897948 0)
(2.60228e-05 0.0046894 0)
(2.43906e-05 -0.00174078 0)
(0.000415165 -0.00458905 0)
(0.00112321 -0.00686292 0)
(0.0020541 -0.00859234 0)
(0.00313067 -0.0098059 0)
(0.00428552 -0.0105437 0)
(0.00546201 -0.010859 0)
(0.00661579 -0.0108136 0)
(0.00771423 -0.0104729 0)
(0.00873519 -0.009901 0)
(0.00966535 -0.00915753 0)
(0.0104985 -0.00829529 0)
(0.0112339 -0.00735951 0)
(0.0118747 -0.00638754 0)
(0.0124266 -0.00540924 0)
(0.0128968 -0.00444764 0)
(0.0132933 -0.00351984 0)
(0.0136239 -0.00263792 0)
(0.0138963 -0.00180988 0)
(0.0141171 -0.00104058 0)
(0.0142918 -0.000332564 0)
(0.0144265 0.000312267 0)
(0.014522 0.000892523 0)
(0.014583 0.00140978 0)
(0.0146118 0.00186646 0)
(0.0146108 0.00226554 0)
(0.0145821 0.00261037 0)
(0.0145273 0.0029045 0)
(0.0144479 0.00315157 0)
(0.0143452 0.00335515 0)
(0.0142203 0.00351875 0)
(0.0140744 0.00364573 0)
(0.0139086 0.00373929 0)
(0.0137239 0.00380244 0)
(0.0135217 0.00383798 0)
(0.0133032 0.00384856 0)
(0.0130697 0.00383659 0)
(0.0128226 0.00380435 0)
(0.0125635 0.00375392 0)
(0.0122937 0.00368724 0)
(0.012015 0.00360611 0)
(0.011729 0.00351222 0)
(0.0114372 0.00340713 0)
(0.0111414 0.00329232 0)
(0.0108432 0.00316918 0)
(0.0105441 0.00303903 0)
(0.0102459 0.0029031 0)
(0.00994994 0.00276257 0)
(0.00965774 0.00261855 0)
(0.00937065 0.00247207 0)
(0.00908997 0.0023241 0)
(0.00881686 0.00217553 0)
(0.0085524 0.00202717 0)
(0.00829756 0.00187975 0)
(0.00805318 0.0017339 0)
(0.00781998 0.00159015 0)
(0.00759858 0.00144896 0)
(0.00738948 0.00131065 0)
(0.00719306 0.00117549 0)
(0.0070096 0.0010436 0)
(0.00683928 0.000915043 0)
(0.0066822 0.000789766 0)
(0.00653835 0.000667636 0)
(0.00640764 0.000548434 0)
(0.00628994 0.000431857 0)
(0.00618499 0.000317525 0)
(0.00609251 0.000204973 0)
(0.00601218 9.3629e-05 0)
(0.0059433 -1.7245e-05 0)
(0.00588592 -0.000127816 0)
(0.00583993 -0.000238254 0)
(0.00580466 -0.000349287 0)
(0.00577957 -0.000461659 0)
(0.005764 -0.000576109 0)
(0.00575719 -0.00069337 0)
(0.0057583 -0.000814129 0)
(0.00576641 -0.000938969 0)
(0.00578046 -0.00106827 0)
(0.00579923 -0.00120209 0)
(0.00582136 -0.00133991 0)
(0.00584525 -0.00148036 0)
(0.00586903 -0.00162079 0)
(0.00589049 -0.00175661 0)
(0.0059069 -0.00188049 0)
(0.00591487 -0.00198129 0)
(0.00591004 -0.00204268 0)
(0.00588672 -0.00204163 0)
(0.00583733 -0.00194679 0)
(0.00575187 -0.00171713 0)
(0.00561717 -0.00130155 0)
(0.00541685 -0.00063994 0)
(0.00512987 0.000332132 0)
(0.00473781 0.0016635 0)
(0.00422417 0.00337304 0)
(0.00358034 0.00541404 0)
(0.00281601 0.00761444 0)
(0.00197154 0.00958834 0)
(0.00113081 0.0106211 0)
(0.000422692 0.00957355 0)