/*--------------------------------*- C++ -*----------------------------------*\
  =========                 |
  \\      /  F ield         | OpenFOAM: The Open Source CFD Toolbox
   \\    /   O peration     | Website:  https://openfoam.org
    \\  /    A nd           | Version:  6
     \\/     M anipulation  |
\*---------------------------------------------------------------------------*/
FoamFile
{
    version     2.0;
    format      ascii;
    class       volVectorField;
    location    "0";
    object      U_rec;
}
// * * * * * * * * * * * * * * * * * * * * * * * * * * * * * * * * * * * * * //

dimensions      [0 1 -1 0 0 0 0];

internalField   nonuniform List<vector> 
13046
(
(-0.240426 0.139138 0)
(-0.428306 -0.110735 -5.49466e-23)
(-0.124238 0.0294839 -3.31957e-22)
(-0.247404 0.0860195 0)
(-0.119908 0.0710184 -2.72817e-22)
(-0.351783 -0.0912328 0)
(-0.264534 0.0931758 1.61655e-23)
(-0.393404 -0.12412 4.46639e-23)
(-0.104026 0.0826308 -3.5406e-22)
(-0.407028 0.191181 -4.2561e-22)
(-0.921396 -0.450796 0)
(0.0161582 0.0988045 8.11745e-23)
(-0.287389 0.143697 -6.53978e-23)
(-0.524879 -0.183441 1.11969e-22)
(-0.0768736 0.0605339 2.0137e-22)
(-0.388684 0.227014 3.95644e-22)
(0.0131185 0.0890163 2.13112e-22)
(-0.955494 -0.394286 -8.72715e-22)
(-0.158566 0.101877 0)
(-0.248915 -0.0416213 -1.52206e-22)
(-0.282055 0.0194915 3.12686e-22)
(-0.392882 0.220116 2.04035e-22)
(0.0159864 0.0927249 -2.74453e-22)
(-0.948646 -0.40681 0)
(-0.222479 0.104828 1.36595e-22)
(-0.347585 -0.0678263 -3.23332e-22)
(-0.141436 0.0359563 0)
(-0.289273 0.159148 -3.98861e-23)
(-0.550059 -0.190799 -2.31265e-23)
(-0.0751773 0.0519305 -2.90863e-22)
(-0.241362 0.151636 0)
(-0.448992 -0.110633 0)
(-0.12882 0.0168591 3.38374e-22)
(-0.210299 0.0923807 -1.58815e-22)
(-0.158502 0.0300279 1.10113e-22)
(-0.308565 -0.0397627 5.30617e-22)
(-0.214371 0.0776269 -2.93701e-22)
(-0.162119 0.0413627 1.87053e-22)
(-0.286541 -0.0293699 -2.87629e-22)
(-0.205298 0.173167 1.41539e-22)
(-0.236581 -0.0825165 6.33051e-23)
(-0.42654 -0.0582203 -1.89906e-23)
(-0.223245 0.038862 1.22144e-22)
(-0.1878 0.0475099 2.72784e-22)
(-0.225632 0.0088206 0)
(-0.238092 0.0371747 8.95872e-23)
(-0.169761 0.0659318 -4.11017e-22)
(-0.235383 -0.00929001 -5.22044e-23)
(-0.250274 0.131535 0)
(-0.436326 -0.12692 -4.26667e-24)
(-0.105425 0.0447696 -2.08823e-23)
(-0.38353 -0.205611 2.10801e-22)
(-0.185366 0.196157 0)
(-0.443986 -0.0242729 2.6275e-22)
(-0.438656 -0.246958 -3.00488e-22)
(-0.434993 -0.00990484 4.78067e-22)
(-0.170955 0.192673 2.22642e-22)
(-0.826856 -0.261949 2.01179e-22)
(-0.345495 0.252958 0)
(-0.0839887 0.00675818 1.86963e-22)
(-0.35966 0.121006 9.48348e-24)
(-0.647792 -0.311486 -9.5407e-23)
(-0.0493591 0.121912 -5.21573e-22)
(0.00444659 0.100903 2.04506e-22)
(-0.881785 -0.411829 3.9848e-22)
(-0.402976 0.188921 3.65906e-22)
(-0.333602 0.257337 0)
(-0.788584 -0.23102 0)
(-0.117049 -0.024349 0)
(-0.322695 0.251843 9.10777e-24)
(-0.752231 -0.212763 0)
(-0.130371 -0.0337693 1.36703e-22)
(-0.864941 -0.278659 0)
(-0.354809 0.257618 2.81488e-23)
(-0.0720702 0.0121075 -2.73993e-23)
(-0.163777 0.113696 0)
(-0.243118 -0.0490128 2.06088e-22)
(-0.30484 0.00169282 -1.84655e-22)
(-0.0341789 0.0457002 1.66146e-22)
(-0.368209 0.249829 3.30915e-22)
(-0.903519 -0.318759 0)
(-0.234108 0.104963 5.76514e-23)
(-0.36404 -0.0847854 0)
(-0.125415 0.0517424 0)
(0.00880257 0.100808 -1.54846e-22)
(-0.903766 -0.423688 4.05046e-22)
(-0.407214 0.193365 -2.33329e-22)
(-0.424256 0.145545 4.88728e-22)
(-0.0154747 0.119901 0)
(-0.841843 -0.454023 2.36585e-22)
(-0.0518274 0.138597 0)
(-0.457571 0.100832 0)
(-0.818461 -0.509831 -3.9312e-23)
(-0.352849 0.180051 0)
(-0.366464 0.178303 -9.62057e-23)
(-0.731906 -0.304119 -5.15596e-22)
(-0.762503 -0.331481 2.44785e-22)
(-0.0284629 0.0809445 -1.14248e-22)
(-0.0192761 0.0916445 2.8529e-22)
(-0.0255759 0.125177 -1.02785e-23)
(-0.426997 0.133269 -4.77347e-22)
(-0.82317 -0.458699 0)
(-0.242661 0.0482213 -1.10747e-23)
(-0.154468 0.0717815 1.89419e-22)
(-0.262762 -0.0333207 0)
(-0.135587 0.165114 0)
(-0.375772 0.0269715 8.76897e-23)
(-0.427744 -0.210765 0)
(-0.181174 0.181936 2.79552e-22)
(-0.333375 -0.157696 0)
(-0.41787 -0.0264935 1.8616e-22)
(-0.370167 0.177239 0)
(0.0151066 0.0845947 0)
(-0.836494 -0.433432 1.52272e-21)
(-0.270689 0.135035 1.73844e-22)
(-0.485774 -0.15699 3.82366e-23)
(-0.0868953 0.0600256 2.44449e-22)
(-0.364152 0.205643 -8.46882e-23)
(-0.352112 0.195713 1.37431e-22)
(-0.801913 -0.32088 5.17298e-22)
(-0.0228062 0.0717288 1.22604e-22)
(-0.754374 -0.29871 -4.24385e-22)
(-0.030342 0.069932 -1.14507e-22)
(-0.399176 0.19389 4.64667e-22)
(-0.917395 -0.447543 1.50502e-21)
(0.0180373 0.096595 -2.98055e-23)
(-0.323762 0.174298 0)
(-0.647902 -0.251868 2.5593e-22)
(-0.0495427 0.0630017 3.27668e-22)
(-0.221061 0.175856 0)
(-0.203744 -0.0592935 -3.01985e-22)
(-0.450229 -0.0806942 -2.46073e-23)
(-0.0591009 0.144211 0)
(-0.450369 0.095354 0)
(-0.79956 -0.491192 0)
(-0.391566 0.169111 0)
(-0.809191 -0.38364 9.51079e-22)
(-0.0110195 0.106316 -2.64584e-22)
(-0.257866 0.159995 0)
(-0.487839 -0.137329 0)
(-0.116379 0.0174881 0)
(-0.31618 0.0888547 0)
(-0.482741 -0.206455 0)
(-0.0858982 0.118567 0)
(-0.172923 0.183641 0)
(-0.371848 -0.185593 0)
(-0.415937 -0.0143646 -7.9038e-23)
(-0.134984 0.158279 -2.98996e-23)
(-0.364885 0.0275829 1.81447e-23)
(-0.415572 -0.194443 3.25419e-22)
(-0.368241 0.130328 -2.39004e-22)
(-0.682111 -0.332381 0)
(-0.0396894 0.116815 6.70694e-22)
(-0.120567 0.128431 0)
(-0.31649 0.0472977 6.02253e-23)
(-0.376394 -0.147399 -4.62579e-23)
(-0.538126 -0.307592 0)
(-0.412312 0.0315189 -3.17547e-22)
(-0.588333 -0.337206 0)
(-0.40735 0.0507372 -1.87709e-22)
(-0.132444 0.178474 0)
(-0.11321 0.169555 0)
(-0.340135 0.0622192 8.53961e-24)
(-0.469404 -0.221536 3.80928e-23)
(-0.10152 0.137448 -1.34811e-22)
(-0.416018 0.182226 4.59672e-22)
(0.0126261 0.100565 0)
(-0.90778 -0.462104 1.37267e-21)
(-0.381957 0.185949 4.42799e-22)
(0.0172773 0.0902463 -1.08816e-23)
(-0.876266 -0.439849 0)
(-0.393566 0.177762 2.47276e-22)
(-0.829987 -0.388334 0)
(-0.00550848 0.102683 2.99718e-22)
(-0.250325 0.206023 0)
(-0.532054 -0.112221 -8.38985e-23)
(-0.210112 -0.079046 1.7166e-22)
(-0.339924 0.0525402 -2.725e-23)
(-0.112363 0.143105 6.46612e-23)
(-0.435811 -0.195604 0)
(0.00283069 0.106928 0)
(-0.891932 -0.481528 0)
(-0.430321 0.164307 -4.44364e-22)
(-0.234451 0.196631 0)
(-0.495961 -0.0914335 7.73375e-23)
(-0.222082 -0.0786629 3.96684e-23)
(-0.120359 0.136542 0)
(-0.327072 0.0436232 0)
(-0.38269 -0.160146 0)
(-0.303959 0.0816494 3.28387e-23)
(-0.448252 -0.184315 0)
(-0.0919049 0.113391 0)
(-0.569572 -0.22127 -1.18938e-23)
(-0.0596604 0.0788537 -2.01613e-22)
(-0.312804 0.164828 6.13951e-23)
(-0.614 -0.231747 0)
(-0.0568864 0.0648626 -4.10603e-22)
(-0.421382 0.168134 4.6972e-22)
(-0.000372374 0.110445 1.2928e-22)
(-0.881989 -0.451391 1.61931e-21)
(-0.0470517 0.138298 1.25429e-22)
(-0.434733 0.109797 -2.80278e-22)
(-0.7959 -0.466431 -9.13397e-22)
(-0.445402 0.124541 1.07131e-21)
(-0.842118 -0.490097 0)
(-0.0297941 0.127461 -1.06124e-22)
(-0.405266 -0.235643 -8.71921e-24)
(-0.496456 -0.0442324 -1.61299e-22)
(-0.207358 0.220648 0)
(-0.287369 0.1117 -1.54409e-22)
(-0.364036 0.25716 -1.20283e-22)
(-0.0464751 0.0352981 -1.07438e-22)
(-0.905868 -0.309734 0)
(-0.855939 -0.499196 0)
(-0.446104 0.132675 1.08814e-21)
(-0.0214056 0.120516 0)
(-0.231768 0.0682043 -3.88162e-22)
(-0.146736 0.0617465 -1.8357e-22)
(-0.290238 -0.0450154 3.99803e-22)
(-0.279914 0.167554 0)
(-0.540965 -0.173494 3.22652e-24)
(-0.0917647 0.0372467 -1.57098e-22)
(-0.0567017 0.143581 1.02344e-22)
(-0.441184 0.0999341 0)
(-0.788745 -0.475344 1.0535e-21)
(-0.300867 0.120233 9.86764e-23)
(-0.553182 -0.219986 -1.36008e-22)
(-0.0622204 0.0865938 0)
(0.0119578 0.0943261 0)
(-0.875985 -0.466029 -1.67502e-21)
(-0.408403 0.174526 0)
(-0.191894 0.21282 0)
(-0.475495 -0.0286555 0)
(-0.441166 -0.265683 0)
(-0.436609 0.122995 -9.39743e-22)
(-0.825809 -0.473499 0)
(-0.0319289 0.128923 -1.62314e-23)
(-0.371741 0.0578661 -6.81132e-23)
(-0.527196 -0.278254 -8.70598e-24)
(-0.103834 0.153899 0)
(-0.321768 0.185115 0)
(-0.657528 -0.24589 -2.35677e-22)
(-0.0550117 0.0537283 2.69575e-22)
(-0.718505 -0.453361 6.51425e-22)
(-0.447641 0.0624653 5.28319e-22)
(-0.0980336 0.169479 6.65994e-23)
(-0.421153 0.050899 0)
(-0.625707 -0.370722 1.1559e-22)
(-0.1127 0.172494 -2.68065e-24)
(0.00874071 0.0917482 -7.28922e-23)
(-0.855303 -0.470852 0)
(-0.409524 0.165448 6.91986e-22)
(-0.209401 0.195773 1.24457e-22)
(-0.29329 -0.13333 -2.1285e-22)
(-0.462515 -0.058342 -2.37833e-23)
(-0.336194 0.190949 -5.10129e-22)
(0.0204907 0.083181 -7.97109e-23)
(-0.838508 -0.383233 0)
(-0.145479 0.0937815 -8.80171e-23)
(-0.267962 0.0370563 -2.89983e-22)
(-0.273742 -0.0554426 4.83589e-22)
(-0.35466 0.085642 -9.09916e-23)
(-0.357648 0.0670689 1.17593e-23)
(-0.562828 -0.281866 -1.37606e-23)
(-0.519263 -0.262638 0)
(-0.0958246 0.145071 1.22497e-22)
(-0.0771865 0.13556 -1.33036e-22)
(-0.0198175 0.0582084 -2.17389e-22)
(-0.373552 0.247388 -1.58594e-22)
(-0.930034 -0.333853 1.95545e-21)
(-0.308153 0.188651 0)
(-0.629939 -0.218051 0)
(-0.074696 0.0380888 -3.50766e-22)
(-0.424668 0.0637282 1.19153e-22)
(-0.66724 -0.402496 0)
(-0.0993889 0.16652 0)
(-0.378118 0.189496 1.17372e-22)
(-0.810489 -0.351879 0)
(-0.0108999 0.0902321 1.04412e-22)
(-0.206988 0.0525479 1.21371e-22)
(-0.236279 0.0131382 1.17945e-22)
(-0.193593 0.03357 -6.0704e-23)
(-0.389237 0.0649977 2.49519e-22)
(-0.587171 -0.324045 0)
(-0.0976623 0.158065 -1.80753e-22)
(-0.31071 0.198263 0)
(-0.649633 -0.218402 -3.373e-22)
(-0.0785771 0.0287935 -1.82958e-22)
(-0.303793 0.13605 0)
(-0.317701 0.141702 3.43754e-24)
(-0.214366 0.202938 4.04996e-23)
(-0.303539 -0.145971 5.2158e-22)
(-0.476956 -0.0604391 5.97594e-22)
(-0.389822 0.0791707 2.6862e-22)
(-0.625096 -0.347795 -1.45237e-22)
(-0.0817012 0.150099 1.61427e-22)
(-0.387275 0.188138 0)
(-0.00529686 0.0962199 -3.99598e-22)
(-0.834612 -0.37281 6.47622e-22)
(-0.180478 0.173014 -3.83448e-22)
(-0.312868 -0.140321 0)
(-0.404473 -0.0248277 -7.93485e-23)
(-0.143811 0.188097 -1.77917e-22)
(-0.429453 0.0215564 2.15481e-22)
(-0.539842 -0.321197 0)
(-0.344345 0.217226 4.36844e-23)
(-0.765482 -0.275019 4.57408e-22)
(-0.0502006 0.0438428 7.07782e-23)
(-0.200717 0.204355 1.74484e-23)
(-0.359717 -0.189017 0)
(-0.466405 -0.0405726 -3.40379e-22)
(-0.354997 0.222618 0)
(-0.362965 0.217605 0)
(-0.804715 -0.294885 3.55776e-22)
(-0.0401436 0.050793 -1.99411e-22)
(-0.820831 -0.31581 -5.09951e-22)
(-0.0269115 0.064109 2.02916e-22)
(0.00527376 0.10668 -9.53034e-23)
(-0.898711 -0.468787 0)
(-0.425435 0.1723 4.41888e-22)
(-0.339415 0.196395 -6.85598e-23)
(-0.719718 -0.275897 0)
(-0.0428311 0.0587183 8.83476e-23)
(-0.722493 -0.382812 -5.36037e-21)
(0.0113701 0.0684738 5.87398e-23)
(-0.316006 0.158522 -1.84121e-21)
(-0.305496 0.0334648 -1.31779e-22)
(-0.133854 0.122239 0)
(-0.323445 -0.106808 0)
(-0.34232 0.118751 -9.84878e-23)
(-0.607467 -0.279157 0)
(-0.0534293 0.114586 4.32568e-22)
(-0.00201113 0.10888 -1.06861e-22)
(-0.412695 0.169985 -9.07747e-22)
(-0.864218 -0.430698 -1.0343e-21)
(-0.458162 -0.265658 0)
(-0.444944 -0.00811427 -2.23908e-22)
(-0.171078 0.199401 -2.52675e-22)
(-0.74414 -0.463896 1.17239e-21)
(-0.444238 0.0759387 3.56645e-22)
(-0.0821744 0.158822 0)
(-0.493815 -0.18378 -1.44125e-22)
(-0.0761203 0.0860547 0)
(-0.345019 0.147812 -1.93044e-22)
(-0.65235 -0.287476 -1.13563e-22)
(-0.0387328 0.0958234 1.40624e-22)
(-0.483331 -0.190484 2.76721e-23)
(-0.0773788 0.0953514 1.43438e-23)
(-0.388196 0.227209 1.84091e-23)
(0.00755611 0.0850929 1.24945e-22)
(-0.94352 -0.383496 1.28334e-21)
(-0.392185 -0.239914 0)
(-0.5279 -0.060993 -6.9319e-23)
(-0.222987 0.231122 0)
(-0.356843 0.153189 1.9813e-22)
(-0.69592 -0.310534 1.3818e-22)
(-0.0311967 0.10134 -1.60826e-22)
(-0.327559 0.0801409 0)
(-0.485524 -0.220875 -5.56708e-23)
(-0.0890005 0.127098 0)
(-0.396093 0.00682228 0)
(-0.408357 -0.211077 0)
(-0.154381 0.174479 0)
(-0.246446 0.117393 -7.97486e-23)
(-0.404983 -0.112762 -1.05491e-22)
(-0.111333 0.0523894 1.84022e-23)
(-0.158603 0.196331 2.30036e-22)
(-0.441367 0.00666775 -5.91531e-22)
(-0.508394 -0.301164 7.00745e-24)
(-0.429902 0.153236 5.94554e-22)
(-0.867311 -0.465327 -1.39268e-21)
(-0.00793104 0.115186 -1.23509e-22)
(-0.75132 -0.454281 -7.50623e-22)
(-0.43602 0.0866593 -3.62017e-22)
(-0.0713578 0.152539 1.09197e-22)
(-0.298786 0.247709 2.67679e-24)
(-0.183589 -0.0724129 1.53985e-22)
(-0.684645 -0.171049 6.95609e-22)
(-0.365181 0.238712 -7.99005e-23)
(-0.357905 0.235638 4.63094e-23)
(-0.835972 -0.296082 1.19034e-22)
(-0.867827 -0.311158 0)
(-0.0355682 0.0492801 -5.47461e-23)
(-0.0457162 0.0412424 -6.33851e-23)
(0.0144687 0.073551 -7.61361e-23)
(-0.760442 -0.383743 5.90372e-21)
(-0.32463 0.167596 -3.09166e-22)
(-0.345951 0.198568 2.87217e-23)
(0.0222462 0.0870972 1.1492e-22)
(-0.871918 -0.38868 0)
(-0.367208 0.0932253 2.93713e-22)
(-0.60766 -0.308765 2.00972e-23)
(-0.0714725 0.137627 0)
(0.00421354 0.107497 -2.49227e-22)
(-0.421053 0.173944 -4.39814e-22)
(-0.895791 -0.454414 0)
(-0.325177 0.235789 -1.09456e-22)
(-0.335674 0.234517 1.0019e-22)
(-0.736375 -0.229563 -4.95541e-22)
(-0.765119 -0.249215 -1.98264e-22)
(-0.10308 -0.00446245 -1.39955e-22)
(-0.0804808 0.0145632 -6.90353e-23)
(-0.0197174 0.112838 0)
(-0.849665 -0.515531 0)
(-0.452855 0.126508 -2.41241e-22)
(-0.311001 0.185123 5.98736e-22)
(0.0200033 0.0782532 0)
(-0.800252 -0.356039 0)
(-0.276371 0.00448042 -5.07251e-24)
(-0.177306 0.0913049 2.23621e-22)
(-0.209957 -0.00903 1.08923e-22)
(-0.346448 0.178575 1.26385e-21)
(-0.81895 -0.408036 -2.22737e-21)
(0.0165533 0.0810221 5.47782e-24)
(-0.269096 0.206205 0)
(-0.566632 -0.141499 4.09931e-22)
(-0.166039 -0.0443159 -2.91952e-23)
(-0.435335 0.157162 2.10034e-23)
(-0.884409 -0.486405 -2.52385e-21)
(-0.00245713 0.109769 4.94877e-24)
(-0.631598 -0.380213 -1.49179e-22)
(0.00408838 0.0566231 -4.42887e-23)
(-0.302792 0.123023 8.73711e-22)
(-0.188282 0.16114 -1.31564e-22)
(-0.248358 -0.0807209 1.9101e-22)
(-0.391545 -0.0368681 7.92114e-23)
(-0.27131 0.0507946 0)
(-0.313432 -0.0823675 -5.35966e-22)
(-0.131007 0.0974858 2.56549e-22)
(-0.391468 0.202361 0)
(0.0201375 0.0958418 8.47791e-23)
(-0.92583 -0.436304 -5.6739e-23)
(-0.282897 0.0523963 0)
(-0.331158 -0.0993965 -1.36052e-22)
(-0.123756 0.108492 -3.63805e-22)
(-0.258469 0.0133754 1.70881e-22)
(-0.18071 0.078075 -1.24599e-22)
(-0.209969 0.00120154 6.05612e-23)
(-0.186305 0.215791 1.03483e-22)
(-0.480581 -0.0206948 2.61606e-22)
(-0.488107 -0.305663 5.05442e-23)
(-0.312719 0.00924343 0)
(-0.263098 -0.0649623 0)
(-0.154603 0.124424 2.73886e-23)
(-0.316706 0.0225686 2.0826e-22)
(-0.301578 -0.0907304 1.35661e-22)
(-0.145088 0.129299 3.75367e-24)
(-0.286399 0.244452 2.32924e-23)
(-0.648093 -0.151081 5.35472e-22)
(-0.213773 -0.0994802 -1.70171e-22)
(0.0166157 0.0983415 1.67612e-22)
(0.0156684 0.0997737 -1.71342e-22)
(-0.936169 -0.432276 -1.01971e-21)
(-0.927026 -0.442561 -6.3866e-22)
(-0.402848 0.205681 0)
(-0.407848 0.197965 4.35786e-22)
(-0.435472 0.151823 -7.10438e-22)
(-0.874216 -0.477278 1.44499e-21)
(-0.00770401 0.115197 1.55974e-22)
(-0.172794 -0.0711251 -1.32501e-22)
(-0.309969 0.25688 -8.80139e-24)
(-0.722307 -0.18652 -8.85754e-22)
(-0.217937 0.191811 -1.13629e-22)
(-0.25578 -0.104581 -1.77385e-22)
(-0.467287 -0.0708936 -5.48617e-23)
(-0.440399 0.0336237 0)
(-0.617243 -0.381242 -1.19781e-22)
(-0.131084 0.185081 2.78253e-24)
(-0.72199 -0.446842 -1.74152e-21)
(0.0011969 0.0710262 -3.69619e-23)
(-0.373667 0.12819 6.88917e-22)
(-0.0405951 0.131601 0)
(-0.455198 0.111195 0)
(-0.830156 -0.509785 -8.34351e-22)
(-0.396428 0.183767 -4.85674e-22)
(0.0157432 0.0933933 0)
(-0.889195 -0.453887 1.64347e-21)
(0.00409077 0.05054 -1.56903e-34)
(-0.584019 -0.347796 2.75203e-21)
(-0.271728 0.115702 -8.63314e-22)
(-0.604453 -0.307641 -3.1076e-21)
(0.00867141 0.053493 1.56699e-34)
(-0.257217 0.136256 7.5884e-22)
(-0.700477 -0.371829 3.52051e-22)
(-0.392125 0.111193 0)
(-0.0527568 0.13479 -3.44011e-22)
(-0.821852 -0.503714 7.60331e-22)
(-0.00924014 0.0959072 -4.08105e-23)
(-0.439061 0.130256 0)
(-0.400001 0.161667 2.95976e-22)
(-0.813662 -0.401413 -6.1122e-22)
(-0.0121679 0.111396 1.69908e-22)
(-0.374164 0.232005 -8.62694e-22)
(0.0177154 0.0889826 5.08369e-23)
(-0.970725 -0.383316 0)
(-0.274531 0.119368 4.62925e-23)
(-0.0849654 0.0758354 -9.44825e-23)
(-0.47283 -0.162797 7.55125e-23)
(-0.847762 -0.516757 -4.70565e-22)
(-0.0259091 0.119118 6.08699e-23)
(-0.455296 0.122036 -2.00618e-22)
(-0.443681 0.0234971 2.67213e-22)
(-0.142349 0.191558 -5.53327e-23)
(-0.585601 -0.358526 0)
(-0.682843 -0.403221 0)
(-0.417651 0.0765762 0)
(-0.0849125 0.158456 0)
(0.00171418 0.0238296 0)
(-0.330073 -0.171203 2.96933e-21)
(-0.145418 0.0655083 -7.98421e-22)
(-0.719533 -0.40348 -2.26794e-21)
(0.00881942 0.06813 -4.77437e-23)
(-0.329186 0.149758 6.75056e-22)
(-0.262632 0.111037 -1.2993e-22)
(-0.0974913 0.0711447 2.61877e-22)
(-0.427539 -0.137368 3.46779e-23)
(-0.8662 -0.500882 -2.63725e-21)
(-0.443895 0.143292 5.77396e-22)
(-0.00847958 0.108658 0)
(-0.0197568 0.109129 -6.58863e-23)
(-0.454532 0.123253 0)
(-0.837411 -0.519528 1.872e-21)
(-0.413417 0.187168 3.75889e-22)
(0.00916583 0.103695 2.81885e-22)
(-0.907659 -0.439673 0)
(-0.00606356 0.073744 -2.40396e-22)
(-0.921657 -0.356416 -9.94809e-22)
(-0.380906 0.233585 0)
(-0.279851 0.250848 -1.17027e-22)
(-0.640923 -0.139573 -6.81517e-22)
(-0.250604 -0.131046 -5.53817e-23)
(-0.813967 -0.273848 -2.13984e-22)
(-0.347989 0.242642 -8.08571e-23)
(-0.0689982 0.0206393 -1.99036e-22)
(-0.000633879 0.0737796 -2.05075e-22)
(-0.378687 0.242484 0)
(-0.960639 -0.361503 0)
(-0.279549 0.193704 -3.1563e-23)
(-0.296454 0.201166 0)
(-0.574031 -0.164723 3.35633e-22)
(-0.620551 -0.191191 -3.60453e-22)
(-0.121352 -0.000332093 4.47891e-23)
(-0.104693 0.00737314 -4.78957e-23)
(-0.26696 0.196296 3.05258e-23)
(-0.552003 -0.142775 0)
(-0.149112 -0.0242339 7.39835e-23)
(-0.320885 0.243576 0)
(-0.735312 -0.218156 8.22262e-22)
(-0.121412 -0.0220911 5.43972e-23)
(-0.728529 -0.433881 3.43134e-22)
(-0.426815 0.0857643 -2.91034e-22)
(-0.0725111 0.151673 -2.18886e-22)
(-0.863768 -0.493853 0)
(-0.440584 0.141984 -1.15834e-21)
(-0.0136855 0.116722 0)
(-0.0503032 0.138817 -7.72236e-23)
(-0.423959 0.107927 2.336e-22)
(-0.770144 -0.442834 2.64282e-22)
(-0.65472 -0.320002 4.567e-22)
(0.01152 0.06023 1.80346e-23)
(-0.273538 0.150167 0)
(-0.214359 0.158607 1.41189e-22)
(-0.21913 0.150328 0)
(-0.183397 -0.0294833 0)
(-0.419126 -0.072273 -1.20403e-23)
(-0.165134 -0.0111448 0)
(-0.414209 -0.0806474 -4.05386e-23)
(-0.299142 0.233055 0)
(-0.282838 0.22587 0)
(-0.173391 -0.0576495 3.71463e-23)
(-0.666227 -0.181606 -3.34655e-22)
(-0.151546 -0.0394161 3.70892e-22)
(-0.620471 -0.157207 5.84917e-22)
(-0.624622 -0.396736 0)
(0.00204059 0.0568024 4.99226e-23)
(-0.318766 0.115708 0)
(-0.871193 -0.495616 1.38819e-21)
(-0.441968 0.146349 -1.50074e-22)
(-0.00743801 0.110038 4.54803e-23)
(-0.231455 0.212079 -1.60626e-22)
(-0.288121 -0.141352 -1.37436e-22)
(-0.510198 -0.0813825 -6.38194e-22)
(-0.684902 -0.42673 -5.29918e-22)
(-0.440687 0.0556959 -8.61727e-22)
(-0.105836 0.173169 0)
(-0.0142479 0.0659244 2.56517e-22)
(-0.909689 -0.34373 1.05795e-21)
(-0.376896 0.236715 -2.17492e-22)
(-0.80628 -0.445538 0)
(-0.377425 0.162131 0)
(0.0101747 0.0814101 0)
(-0.82314 -0.462755 0)
(-0.395389 0.158546 -5.28006e-22)
(0.00786681 0.0852591 1.21729e-23)
(-0.335632 0.223934 4.22756e-23)
(-0.74968 -0.256182 -2.67095e-22)
(-0.0686333 0.0271476 1.02543e-22)
(-0.16778 0.1649 -4.44356e-23)
(-0.321845 -0.135344 0)
(-0.38291 -0.00898884 -3.27691e-23)
(-0.413337 0.189843 -4.37969e-22)
(0.0119968 0.10248 1.47637e-22)
(-0.919471 -0.445338 7.43728e-22)
(-0.717803 -0.394684 0)
(-0.403104 0.108256 0)
(-0.0541206 0.139717 2.94529e-22)
(0.000868739 0.0951713 7.62705e-23)
(-0.868325 -0.388179 -1.19227e-21)
(-0.393266 0.196828 -6.36536e-22)
(-0.273012 0.226044 0)
(-0.200632 -0.0794846 -2.80206e-22)
(-0.598611 -0.141525 -2.35943e-22)
(-0.378099 0.0415805 -5.29713e-25)
(-0.489182 -0.2541 1.31702e-23)
(-0.121721 0.162085 0)
(-0.202599 0.178828 3.08946e-23)
(-0.262186 -0.104966 -6.52055e-23)
(-0.4319 -0.0534477 7.17389e-23)
(0.0100166 0.103719 1.95707e-24)
(-0.910676 -0.461487 -1.84617e-21)
(-0.419347 0.180878 -6.18312e-22)
(-0.375255 0.202777 8.47326e-23)
(-0.828408 -0.345283 2.71097e-22)
(-0.0125493 0.0820678 0)
(-0.191997 0.153721 -1.53241e-22)
(-0.223608 -0.0566262 3.57224e-22)
(-0.386084 -0.0420025 -6.22499e-23)
(-0.376896 0.241739 -2.75092e-22)
(0.00639305 0.0789436 7.43335e-23)
(-0.97382 -0.368926 1.26251e-21)
(-0.255715 0.171962 -4.1678e-23)
(-0.500557 -0.134131 0)
(-0.129105 0.000972158 0)
(-0.303908 0.0673412 -9.63717e-23)
(-0.403945 -0.156236 6.36901e-23)
(-0.104909 0.118553 0)
(-0.67015 -0.380103 0)
(-0.404509 0.0834941 -3.85076e-22)
(-0.0772762 0.152599 0)
(-0.361005 0.21238 2.60474e-22)
(0.0232893 0.0916426 -1.53958e-23)
(-0.927069 -0.395006 -2.33702e-21)
(-0.361471 0.220314 -6.97671e-22)
(0.0229407 0.0916889 0)
(-0.944105 -0.386712 1.86898e-21)
(0.00128752 0.090316 5.83347e-23)
(-0.882055 -0.381671 9.08524e-22)
(-0.390557 0.206055 5.63721e-22)
(-0.399758 0.0261387 2.0374e-22)
(-0.50052 -0.275942 -7.89818e-23)
(-0.136014 0.173294 0)
(0.0234851 0.0883796 1.41164e-23)
(-0.891879 -0.380572 2.18097e-21)
(-0.341456 0.205177 0)
(-0.00886107 0.112623 0)
(-0.838698 -0.423327 7.51164e-22)
(-0.409891 0.161025 9.31942e-23)
(0.00143185 0.0401729 4.4353e-23)
(-0.488854 -0.312028 -2.74907e-21)
(-0.236793 0.0908818 0)
(-0.213272 0.121514 7.27525e-22)
(-0.526019 -0.247786 0)
(0.00780167 0.0447267 4.50191e-23)
(0.000597668 0.0774809 2.11583e-24)
(-0.946436 -0.36833 0)
(-0.382303 0.236117 0)
(0.0104431 0.09945 0)
(-0.89418 -0.47256 0)
(-0.418494 0.174304 -1.00259e-21)
(-0.400505 0.209734 3.16828e-22)
(-0.40036 0.206658 -2.5624e-22)
(0.0142744 0.0958259 -8.67811e-23)
(-0.936626 -0.416343 3.05153e-22)
(0.0112054 0.0957775 -1.71854e-22)
(-0.92083 -0.411033 -4.21592e-22)
(-0.414111 0.15049 -1.67763e-22)
(-0.828531 -0.431415 -4.18833e-22)
(-0.0148638 0.117382 0)
(-0.126294 0.18588 0)
(-0.65012 -0.41256 0)
(-0.450151 0.0382458 0)
(-0.217695 0.129103 0)
(-0.150773 0.0130334 -5.68383e-22)
(-0.380714 -0.07404 8.6169e-23)
(-0.414664 0.126459 -4.67718e-22)
(-0.783158 -0.428941 -1.08818e-22)
(-0.0340152 0.129025 2.38552e-22)
(-0.0446519 0.135037 1.36612e-22)
(-0.414377 0.115989 6.51694e-22)
(-0.761241 -0.424696 1.50764e-22)
(-0.373848 0.250733 -2.09677e-22)
(-0.0127501 0.0621873 9.65381e-23)
(-0.955167 -0.342678 -2.04185e-21)
(-0.304857 0.240188 0)
(-0.689561 -0.188134 -2.57651e-22)
(-0.151873 -0.0441348 -3.6351e-22)
(-0.282361 0.214305 0)
(-0.602149 -0.160158 -5.38212e-22)
(-0.155264 -0.0400093 8.48264e-24)
(-0.38338 0.1325 3.04065e-22)
(-0.722144 -0.364504 -8.41749e-23)
(-0.0353475 0.121032 -1.72791e-22)
(-0.392031 0.125985 0)
(-0.729621 -0.379391 -6.53213e-23)
(-0.0390669 0.126304 1.39507e-22)
(-0.181604 0.141752 0)
(-0.227784 -0.0514034 -5.24277e-22)
(-0.357012 -0.0272374 1.01697e-22)
(-0.301219 0.208813 0)
(-0.63893 -0.195845 0)
(-0.106345 -0.000632465 6.80293e-23)
(-0.0349125 0.124614 -1.3088e-22)
(-0.835482 -0.521554 2.44725e-21)
(-0.46092 0.112246 0)
(-0.402635 0.146571 -8.79664e-22)
(0.00331829 0.0836534 0)
(-0.797286 -0.470329 -1.20156e-21)
(-0.395742 0.134521 -3.66336e-23)
(0.000586458 0.0785329 0)
(-0.764876 -0.466444 3.54527e-21)
(-0.236098 0.187207 6.44056e-23)
(-0.195629 -0.0545964 -6.19704e-23)
(-0.486975 -0.0996626 -7.13036e-23)
(-0.75262 -0.427393 1.27788e-22)
(0.00796708 0.0734525 7.78698e-23)
(-0.358878 0.150093 0)
(-0.382213 0.210375 -3.96034e-22)
(-0.00596873 0.0833924 1.39272e-22)
(-0.864459 -0.360672 0)
(0.00353875 0.0681642 -1.06674e-23)
(-0.710503 -0.432188 2.33277e-21)
(-0.355529 0.132379 0)
(-0.249367 0.0725052 2.6492e-22)
(-0.129107 0.0781045 3.19332e-22)
(-0.32451 -0.0749225 3.554e-23)
(-0.324009 0.154791 -4.34172e-24)
(-0.62137 -0.24917 2.58362e-23)
(-0.0498087 0.0802579 -2.25216e-22)
(-0.456594 -0.250582 2.15913e-22)
(-0.409246 0.00993579 -3.52339e-22)
(-0.1523 0.180172 0)
(-0.0102921 0.101558 0)
(-0.839259 -0.507196 8.66723e-22)
(-0.444016 0.133577 0)
(-0.703421 -0.399524 0)
(-0.407772 0.0970477 0)
(-0.0640855 0.1456 0)
(0.0135042 0.0863644 0)
(-0.380423 0.233909 3.28494e-22)
(-0.971177 -0.382607 -1.23727e-21)
(-0.339229 0.158498 0)
(-0.658999 -0.275515 4.65247e-24)
(-0.0396447 0.0873153 2.20432e-22)
(-0.212839 0.118861 0)
(-0.154519 0.0171012 4.95286e-22)
(-0.357156 -0.0616134 0)
(-0.861419 -0.500098 2.49174e-21)
(-0.438233 0.146632 -5.48728e-22)
(-0.00437315 0.102592 0)
(0.00024108 0.104653 -1.35737e-22)
(-0.863548 -0.416554 -5.27457e-23)
(-0.405021 0.179387 5.4977e-23)
(-0.376796 0.202824 0)
(-0.369596 0.19828 -6.15044e-22)
(0.0216518 0.0930899 -4.00301e-23)
(0.0209972 0.0908221 -3.62356e-23)
(-0.914839 -0.418662 1.28371e-21)
(-0.894848 -0.418577 -1.05588e-21)
(-0.340402 0.0933305 0)
(-0.546097 -0.26058 -2.07873e-23)
(-0.0746277 0.126537 2.07776e-22)
(-0.660823 -0.344962 -4.70208e-22)
(-0.380906 0.10323 0)
(-0.0590542 0.135721 -1.92732e-22)
(-0.277372 0.0862343 -1.06152e-22)
(-0.401027 -0.138415 6.62338e-23)
(-0.0985492 0.0955601 4.60991e-22)
(-0.824767 -0.487704 -2.25248e-21)
(-0.42087 0.145537 -8.94293e-22)
(-0.811618 -0.493957 1.15793e-21)
(0.00025304 0.0905021 0)
(-0.42636 0.135295 8.63609e-22)
(-0.0044306 0.0902826 0)
(-0.36838 0.167346 0)
(-0.745357 -0.336754 0)
(-0.0216254 0.0982822 2.09942e-22)
(-0.430406 0.154946 -1.05645e-21)
(-0.423202 0.153939 2.00511e-21)
(-0.868124 -0.491945 -1.47581e-21)
(-0.852217 -0.486255 3.4466e-21)
(0.0014588 0.0994883 1.1317e-22)
(0.00297439 0.0944316 -3.13542e-24)
(-0.378835 0.0926514 0)
(-0.630513 -0.331893 2.78284e-22)
(-0.0725121 0.143588 2.59492e-22)
(-0.313357 0.118144 1.48592e-23)
(-0.570964 -0.241754 8.51701e-23)
(-0.0567256 0.0975483 0)
(-0.374943 0.224621 0)
(0.0208265 0.0919079 0)
(-0.959339 -0.395497 -1.79553e-21)
(-0.335629 0.106753 1.28308e-23)
(-0.565753 -0.258401 3.4607e-23)
(-0.0644469 0.118459 -3.43857e-22)
(-0.288651 0.0963554 4.29295e-23)
(-0.44918 -0.172967 -7.6366e-23)
(-0.086534 0.0990858 2.22965e-22)
(-0.372473 0.209177 0)
(0.0224506 0.0931611 0)
(-0.931815 -0.410995 2.36009e-21)
(-0.34075 0.171049 0)
(-0.689153 -0.280194 -8.06991e-23)
(-0.0355344 0.0792727 -1.92701e-22)
(-0.570068 -0.357207 0)
(-0.461342 0.00885839 0)
(-0.157684 0.202213 -5.99907e-24)
(-0.273509 0.233384 -2.65786e-24)
(-0.607621 -0.136876 0)
(-0.218485 -0.0975811 3.85076e-22)
(-0.775145 -0.489811 -5.06091e-22)
(-0.0745838 0.154213 0)
(-0.453511 0.081329 0)
(0.00339974 0.0353689 -1.07391e-22)
(-0.448268 -0.239447 -4.15364e-21)
(-0.197019 0.0905679 1.1171e-21)
(-0.335473 0.13294 0)
(-0.607176 -0.266929 -4.01234e-23)
(-0.0491649 0.102391 -1.85481e-22)
(-0.390199 0.217794 -6.14396e-22)
(0.0189254 0.0943397 2.61168e-22)
(-0.953635 -0.409879 0)
(-0.320802 -0.18414 -6.00236e-23)
(-0.581925 -0.101327 4.08821e-22)
(-0.251926 0.241751 -4.28211e-23)
(-0.26857 0.160425 0)
(0.0148688 0.0640923 -3.63501e-23)
(-0.688406 -0.312652 0)
(-0.140014 0.144924 2.07757e-22)
(-0.147786 0.156611 -2.1046e-22)
(-0.345755 -0.141793 0)
(-0.342202 0.020833 -7.97716e-24)
(-0.362237 -0.161764 -4.18662e-22)
(-0.363731 0.0112406 2.94968e-23)
(-0.285215 0.0698417 1.01872e-22)
(-0.374277 -0.126554 1.91516e-22)
(-0.108947 0.10601 0)
(-0.172507 0.157188 1.52209e-22)
(-0.155314 0.146998 0)
(-0.281916 -0.102298 -2.45815e-22)
(-0.373899 -0.0175664 3.48317e-24)
(-0.29902 -0.108129 2.47516e-22)
(-0.348641 0.00358104 1.00095e-23)
(-0.323563 0.130496 -1.05278e-24)
(-0.53042 -0.222195 -7.65146e-24)
(-0.0671159 0.102888 -2.89675e-22)
(-0.319043 0.108038 -2.7738e-23)
(-0.530134 -0.227477 -4.93072e-25)
(-0.0704328 0.111184 0)
(-0.0041045 0.0825843 0)
(-0.770783 -0.48206 0)
(-0.412862 0.128134 -1.09853e-21)
(-0.250754 0.187216 -5.99144e-23)
(-0.511222 -0.119897 0)
(-0.163773 -0.030648 1.06815e-22)
(-0.427327 0.16456 1.56049e-21)
(-0.886878 -0.484908 -1.46866e-21)
(0.00542442 0.102213 -6.85972e-23)
(-0.385885 0.146242 0)
(-0.39602 0.150486 -2.83786e-22)
(-0.75455 -0.370925 1.05063e-22)
(-0.7855 -0.391503 -5.57072e-22)
(-0.0244531 0.115072 -2.07578e-22)
(-0.0193963 0.115511 -1.64145e-22)
(-0.245421 0.175215 0)
(-0.48752 -0.116393 0)
(-0.152135 -0.0174691 5.87325e-23)
(-0.316061 0.22636 -1.0287e-24)
(-0.697872 -0.215674 0)
(-0.107151 -0.00388949 1.15858e-22)
(-0.363608 0.144796 8.44527e-23)
(-0.69717 -0.326929 0)
(-0.0317007 0.109044 0)
(-0.192031 0.0979409 2.25999e-22)
(-0.299472 -0.0209277 -9.36413e-23)
(-0.183526 0.00588139 1.44865e-22)
(-0.404201 0.133313 0)
(-0.7729 -0.407999 0)
(-0.0304411 0.124911 -2.54812e-22)
(-0.206189 0.136922 0)
(-0.174103 -0.00951226 6.43644e-23)
(-0.377286 -0.060743 0)
(-0.369558 0.107623 1.45574e-22)
(-0.639066 -0.327727 1.90634e-22)
(-0.0586681 0.130513 -2.82638e-23)
(-0.315448 0.215666 -1.66815e-23)
(-0.683029 -0.219378 0)
(-0.0922443 0.00913249 2.3098e-22)
(-0.193509 0.112075 -2.2383e-22)
(-0.183708 0.118407 -9.26606e-23)
(-0.323647 -0.033433 7.90276e-23)
(-0.181356 -0.00192319 -2.73356e-22)
(-0.324577 -0.0252656 0)
(-0.201087 -0.0216144 -5.05733e-22)
(-0.166569 0.135443 -9.9739e-23)
(-0.251397 -0.0680538 2.10607e-22)
(-0.156198 0.139899 6.41524e-23)
(-0.337583 -0.00868632 -8.74441e-23)
(-0.291295 -0.0968325 -1.39342e-22)
(-0.338643 0.00441268 8.09253e-23)
(-0.274867 0.182286 4.8758e-23)
(-0.289397 0.180509 0)
(-0.551123 -0.162038 -1.44216e-22)
(-0.578282 -0.185651 1.16871e-22)
(-0.111528 0.0115512 -2.60518e-22)
(-0.0901732 0.0309922 4.31406e-22)
(-0.00256861 0.0796122 0)
(-0.90506 -0.364521 6.17364e-22)
(-0.38374 0.223898 3.1592e-22)
(-0.167691 0.205076 7.47476e-23)
(-0.461201 -0.00197852 -4.13364e-22)
(-0.525007 -0.32311 -2.49124e-23)
(0.00514591 0.0861252 -1.17864e-22)
(0.0068374 0.0907993 8.41976e-23)
(-0.921363 -0.383781 -5.34312e-22)
(-0.910002 -0.393222 -8.31106e-22)
(-0.389453 0.221404 -8.75692e-22)
(-0.394197 0.212145 4.75191e-22)
(-0.21012 0.214229 1.17127e-22)
(-0.367494 -0.201756 -1.23169e-22)
(-0.489271 -0.0506598 -3.94324e-23)
(-0.201793 0.0688248 3.81514e-22)
(-0.184506 0.0286884 0)
(-0.259201 -0.00236249 -3.41373e-22)
(-0.405189 0.144294 1.66837e-22)
(-0.795625 -0.411451 6.32286e-22)
(-0.0217174 0.119916 0)
(-0.226945 0.167835 0)
(-0.176056 -0.0344182 -5.60747e-23)
(-0.448111 -0.089049 3.32181e-23)