/*--------------------------------*- C++ -*----------------------------------*\
  =========                 |
  \\      /  F ield         | OpenFOAM: The Open Source CFD Toolbox
   \\    /   O peration     | Website:  https://openfoam.org
    \\  /    A nd           | Version:  6
     \\/     M anipulation  |
\*---------------------------------------------------------------------------*/
FoamFile
{
    version     2.0;
    format      ascii;
    class       volScalarField;
    location    "0";
    object      p;
}
// * * * * * * * * * * * * * * * * * * * * * * * * * * * * * * * * * * * * * //

dimensions      [0 2 -2 0 0 0 0];

internalField   nonuniform List<scalar> 
13046
(
0.729608
0.715731
0.808976
0.732162
0.792853
0.745094
0.71085
0.74773
0.806006
0.440208
0.589013
0.814434
0.704967
0.707546
0.810034
0.51326
0.818409
0.581746
0.781537
0.774406
0.727187
0.502002
0.818667
0.586064
0.736255
0.74301
0.793782
0.692015
0.699734
0.816094
0.740286
0.701923
0.805055
0.752034
0.790135
0.740873
0.750561
0.790314
0.752053
0.758592
0.800231
0.669168
0.753765
0.777029
0.762937
0.746829
0.771902
0.771803
0.714003
0.719623
0.809862
0.784766
0.779682
0.619697
0.787933
0.597156
0.787755
0.59199
0.652848
0.820222
0.622886
0.721801
0.813952
0.817243
0.639157
0.538231
0.674536
0.58912
0.816537
0.689264
0.593782
0.815429
0.582526
0.639419
0.820425
0.780245
0.78543
0.710356
0.822686
0.601857
0.587456
0.726696
0.744379
0.795743
0.816089
0.629522
0.517006
0.50675
0.815246
0.674509
0.809155
0.458502
0.695253
0.634488
0.612922
0.675534
0.673398
0.816586
0.820751
0.815375
0.50806
0.686792
0.74082
0.778541
0.766493
0.799616
0.624489
0.781536
0.770433
0.794139
0.637811
0.353522
0.809976
0.5429
0.712743
0.7173
0.804163
0.620164
0.635355
0.646578
0.819659
0.661678
0.818252
0.423314
0.573842
0.814502
0.672255
0.677511
0.821108
0.749678
0.802605
0.672838
0.804696
0.476752
0.709808
0.575932
0.67096
0.817752
0.730644
0.697007
0.805791
0.662296
0.756074
0.801998
0.773117
0.786896
0.633609
0.794465
0.640042
0.781695
0.616143
0.708231
0.813176
0.805843
0.67957
0.770257
0.768529
0.58457
0.759253
0.576958
0.798922
0.803178
0.659751
0.75348
0.79637
0.43534
0.813117
0.603427
0.382917
0.811335
0.552988
0.568283
0.659141
0.820176
0.748968
0.638707
0.809397
0.665752
0.792344
0.76104
0.816305
0.626685
0.439989
0.753537
0.651246
0.803012
0.8043
0.666834
0.771668
0.676077
0.755862
0.797488
0.705973
0.816722
0.679959
0.690772
0.815303
0.498255
0.814778
0.648745
0.810944
0.503994
0.703515
0.466098
0.683456
0.806398
0.787733
0.586962
0.772501
0.68862
0.609433
0.822475
0.580367
0.664931
0.454318
0.811847
0.739012
0.790291
0.757959
0.705072
0.697869
0.814887
0.809944
0.494236
0.712403
0.675973
0.715757
0.817671
0.811698
0.583439
0.387926
0.778266
0.581805
0.782414
0.489336
0.6924
0.80942
0.614515
0.757985
0.805464
0.669088
0.672332
0.820752
0.737874
0.511829
0.799024
0.557541
0.754859
0.799474
0.809562
0.588965
0.368475
0.771604
0.802644
0.631849
0.383254
0.811547
0.509069
0.781564
0.728832
0.767952
0.62286
0.629342
0.746105
0.756156
0.808626
0.802512
0.819248
0.58218
0.581692
0.688741
0.675337
0.815953
0.55031
0.741268
0.807305
0.595559
0.659766
0.818573
0.763635
0.753802
0.780176
0.594501
0.751797
0.804952
0.691366
0.660267
0.817919
0.680341
0.672513
0.775054
0.801234
0.621439
0.587709
0.740907
0.806765
0.572617
0.818365
0.659462
0.784606
0.791521
0.652994
0.799482
0.574297
0.768261
0.649517
0.637904
0.817199
0.777218
0.789674
0.61932
0.632268
0.618679
0.632814
0.817985
0.633923
0.821292
0.815251
0.630432
0.459332
0.649972
0.66376
0.8192
0.496112
0.809526
0.311933
0.706093
0.78467
0.767137
0.640096
0.724886
0.811975
0.816215
0.522862
0.657841
0.787478
0.579719
0.786658
0.726718
0.506461
0.804101
0.732548
0.8103
0.633392
0.707328
0.815247
0.732252
0.808878
0.53658
0.81839
0.591235
0.794864
0.575224
0.771623
0.618613
0.703802
0.814848
0.653962
0.753911
0.806736
0.630848
0.779298
0.791337
0.727471
0.729301
0.803572
0.787424
0.579397
0.773525
0.484937
0.66328
0.811443
0.727326
0.508407
0.806335
0.707287
0.810016
0.601059
0.614764
0.629867
0.614899
0.606602
0.817649
0.817775
0.809292
0.504812
0.333
0.400522
0.812979
0.516389
0.609573
0.741403
0.800393
0.814253
0.488904
0.63492
0.675902
0.664362
0.618322
0.618853
0.817993
0.818488
0.804727
0.657151
0.408739
0.369191
0.811971
0.487359
0.733054
0.773304
0.780525
0.354127
0.519227
0.810624
0.734995
0.647281
0.809823
0.444341
0.636001
0.8157
0.520268
0.804577
0.252349
0.764793
0.795599
0.680124
0.711652
0.772014
0.787977
0.435525
0.81597
0.564348
0.701012
0.771184
0.790492
0.741597
0.773188
0.778143
0.788743
0.561835
0.78441
0.698446
0.787989
0.77943
0.711147
0.771351
0.779211
0.722036
0.599898
0.807863
0.81911
0.818984
0.594222
0.598561
0.477138
0.468605
0.461146
0.661328
0.810508
0.816057
0.701417
0.585826
0.758769
0.7988
0.649825
0.549121
0.755936
0.792807
0.571642
0.803919
0.286533
0.81035
0.452036
0.684764
0.393469
0.81278
0.567778
0.80454
0.504186
0.247365
0.473913
0.806948
0.284884
0.723781
0.577362
0.806891
0.629636
0.803076
0.355053
0.557732
0.676846
0.817133
0.490497
0.816736
0.546526
0.701434
0.804548
0.734351
0.666484
0.807592
0.423897
0.558229
0.791108
0.760938
0.73469
0.550445
0.811246
0.804446
0.431715
0.192802
0.519796
0.807492
0.288421
0.714692
0.80344
0.734988
0.648594
0.410273
0.806546
0.806132
0.38706
0.653336
0.495801
0.81505
0.630843
0.819495
0.599877
0.565832
0.73672
0.585293
0.810538
0.606455
0.649074
0.821898
0.82068
0.549127
0.567064
0.715829
0.705572
0.665592
0.657076
0.813047
0.815901
0.727614
0.661209
0.810868
0.689632
0.603542
0.820711
0.729968
0.527872
0.805874
0.656431
0.454321
0.815894
0.807687
0.526161
0.71183
0.472835
0.808743
0.306838
0.758308
0.748583
0.803802
0.688459
0.804583
0.698725
0.714861
0.715497
0.811432
0.616965
0.816145
0.627456
0.533635
0.80411
0.257628
0.651557
0.427819
0.808103
0.757904
0.797178
0.623978
0.745258
0.527158
0.799563
0.819697
0.599874
0.581521
0.554989
0.333252
0.808674
0.57305
0.341383
0.808574
0.663623
0.630569
0.821283
0.789557
0.78502
0.663603
0.479157
0.815362
0.614617
0.723469
0.558847
0.813718
0.820542
0.639929
0.560286
0.726776
0.811838
0.621905
0.622046
0.764936
0.797418
0.765651
0.798984
0.657123
0.814982
0.617104
0.457271
0.598578
0.646417
0.820154
0.765717
0.796775
0.689954
0.527505
0.81966
0.556795
0.721797
0.685878
0.810427
0.689649
0.757158
0.802387
0.736932
0.564959
0.806194
0.432787
0.815105
0.52607
0.450981
0.816131
0.526273
0.821207
0.628696
0.562193
0.603181
0.77248
0.791626
0.813533
0.508531
0.407344
0.816087
0.667976
0.537734
0.803828
0.49281
0.227096
0.266191
0.451033
0.806785
0.821315
0.580377
0.550923
0.812947
0.601782
0.41336
0.50595
0.521567
0.816143
0.599291
0.817241
0.614039
0.528952
0.680151
0.814646
0.804474
0.755537
0.525911
0.753225
0.797621
0.717592
0.537878
0.698476
0.814541
0.81371
0.544236
0.707058
0.568751
0.820752
0.564753
0.709134
0.605856
0.817333
0.723717
0.6421
0.809325
0.585539
0.711354
0.817289
0.574064
0.711761
0.815585
0.770035
0.788861
0.706091
0.703918
0.64286
0.819568
0.806843
0.677515
0.422522
0.329606
0.806975
0.586396
0.307296
0.804337
0.59084
0.74627
0.806825
0.662309
0.547605
0.806192
0.305988
0.583442
0.820701
0.630921
0.805302
0.554533
0.281403
0.735547
0.790112
0.754416
0.666867
0.70372
0.813559
0.77646
0.612577
0.790247
0.804347
0.637234
0.37726
0.724523
0.560545
0.811365
0.817912
0.509828
0.560419
0.645414
0.699839
0.819873
0.757419
0.797359
0.723484
0.62817
0.391858
0.809532
0.819539
0.651481
0.539183
0.422372
0.403663
0.812961
0.812403
0.550061
0.53972
0.639865
0.743345
0.809435
0.729678
0.591806
0.804396
0.699931
0.750778
0.807499
0.604465
0.3509
0.61101
0.807841
0.345202
0.805981
0.611399
0.683401
0.820901
0.391402
0.37109
0.616829
0.606932
0.810221
0.807662
0.593965
0.739759
0.814883
0.665247
0.725479
0.811204
0.471221
0.817721
0.545093
0.651844
0.729986
0.810189
0.692412
0.741991
0.803726
0.42977
0.814472
0.541342
0.651306
0.682448
0.815635
0.771924
0.545902
0.790072
0.733857
0.607718
0.810613
0.720879
0.801624
0.48093
0.805064
0.45018
0.2163
0.643356
0.718972
0.813287
0.483228
0.815793
0.572939
0.802905
0.579001
0.754714
0.313018
0.808583
0.472142
0.791475
0.784616
0.777713
0.672247
0.780902
0.659095
0.701632
0.757329
0.798885
0.772114
0.782765
0.788617
0.677454
0.789833
0.671343
0.656873
0.732066
0.81435
0.663855
0.737884
0.812129
0.804205
0.603181
0.318063
0.737236
0.669908
0.805915
0.413345
0.615206
0.812913
0.581157
0.564904
0.698219
0.688791
0.814578
0.813537
0.730729
0.685201
0.80706
0.687225
0.631132
0.815869
0.611432
0.703748
0.8194
0.761365
0.73803
0.785455
0.555509
0.698943
0.814767
0.75342
0.794472
0.715305
0.607907
0.729741
0.814391
0.683295
0.646247
0.815791
0.759917
0.765167
0.724805
0.794087
0.720052
0.791959
0.773722
0.782256
0.783314
0.705327
0.790699
0.680331
0.715172
0.705693
0.676725
0.682858
0.813582
0.812912
0.819626
0.608917
0.56857
0.785745
0.563729
0.775824
0.821291
0.820377
0.603999
0.61583
0.547457
0.541817
0.771865
0.79559
0.599757
0.761294
0.779956
0.752934
0.55204
0.687652
0.815879
0.752881
0.803756
0.681502
0.673081
0.646746
0.817165
0.603019
0.603689
0.608587
0.822268
0.620683
0.821085
0.592418
0.683444
0.816535
0.332986
0.490834
0.809267
0.797767
0.586679
0.759966
0.743974
0.746284
0.804929
0.59044
0.808391
0.596402
0.537737
0.719827
0.80955
0.697134
0.631634
0.815676
0.767052
0.797706
0.605507
0.742568
0.743208
0.801883
0.811326
0.625496
0.624256
0.739066
0.808584
0.60681
0.594588
0.693688
0.818027
0.762674
0.791747
0.714388
0.454315
0.814414
0.570696
0.762676
0.801544
0.595986
0.676166
0.657959
0.655261
0.650513
0.815956
0.82144
0.816034
0.578406
0.469732
0.469693
0.817537
0.555225
0.451272
0.814895
0.556164
0.584931
0.821271
0.620127
0.70426
0.643376
0.814963
0.719999
0.801746
0.814311
0.724685
0.81865
0.600639
0.811418
0.722863
0.774372
0.812737
0.810688
0.773579
0.732959
0.816602
0.808218
0.756577
0.718989
0.816847
0.804296
0.806761
0.806439
0.809596
0.809791
0.816933
0.819617
0.802782
0.822828
0.78131
0.811312
0.721196
0.78842
0.807661
0.81555
0.801604
0.799447
0.821488
0.818208
0.81122
0.733353
0.759427
0.814966
0.810172
0.801643
0.813483
0.791024
0.818661
0.820842
0.825487
0.773271
0.809099
0.816155
0.799657
0.75913
0.841795
0.785342
0.814144
0.811734
0.815003
0.838105
0.814022
0.810102
0.802537
0.819311
0.729313
0.819437
0.811428
0.810621
0.814806
0.810719
0.787958
0.803872
0.808963
0.786438
0.806815
0.803231
0.797335
0.789307
0.797975
0.809873
0.809325
0.81143
0.815914
0.768541
0.767311
0.81937
0.812492
0.816738
0.719571
0.812471
0.815162
0.765114
0.814375
0.819556
0.799149
0.741272
0.553598
0.797592
0.828616
0.740677
0.79989
0.816258
0.811668
0.793398
0.812955
0.759298
0.707879
0.772826
0.771602
0.800507
0.81842
0.812676
0.799889
0.778122
0.816719
0.76039
0.7906
0.819559
0.721686
0.793536
0.812835
0.807959
0.810125
0.807804
0.80812
0.808502
0.784547
0.782837
0.818586
0.687215
0.805416
0.804984
0.812089
0.771134
0.637293
0.709788
0.80967
0.795423
0.775573
0.790425
0.807626
0.747295
0.811675
0.775386
0.780267
0.798031
0.843152
0.761595
0.813117
0.789276
0.821424
0.772546
0.801364
0.734586
0.818213
0.812513
0.817413
0.810073
0.81125
0.814048
0.789178
0.782315
0.778843
0.798965
0.686549
0.746614
0.774019
0.813593
0.81679
0.806597
0.818122
0.809039
0.819801
0.819306
0.813666
0.761719
0.798321
0.779825
0.813549
0.772372
0.763353
0.674724
0.764048
0.814647
0.831092
0.812294
0.819174
0.811085
0.812026
0.81846
0.833014
0.810887
0.629785
0.793757
0.794834
0.806144
0.812846
0.815726
0.791892
0.824583
0.813747
0.810151
0.708561
0.794567
0.807611
0.816309
0.780522
0.764375
0.839872
0.800271
0.801355
0.828774
0.717622
0.666801
0.79207
0.787496
0.759712
0.794342
0.716665
0.812371
0.820233
0.79841
0.826725
0.764397
0.754578
0.812973
0.810249
0.756157
0.766983
0.703837
0.807248
0.763438
0.795536
0.801938
0.841435
0.775324
0.807285
0.810114
0.784406
0.755756
0.811752
0.805815
0.80447
0.816505
0.81075
0.748501
0.783197
0.814305
0.823297
0.753096
0.799413
0.809304
0.810469
0.815245
0.804757
0.760558
0.806806
0.771712
0.810217
0.795262
0.788926
0.817659
0.814872
0.659926
0.767792
0.788246
0.759552
0.813271
0.8083
0.808584
0.820955
0.810448
0.742337
0.812042
0.818468
0.823408
0.80939
0.834602
0.809687
0.782911
0.765032
0.808565
0.773786
0.771603
0.801713
0.644968
0.774245
0.813712
0.802285
0.782867
0.75591
0.788908
0.804951
0.7151
0.658026
0.749136
0.797056
0.812847
0.803959
0.596941
0.751206
0.81503
0.814456
0.712306
0.765591
0.779155
0.798076
0.770043
0.839507
0.814552
0.784803
0.786274
0.808646
0.800069
0.810628
0.697187
0.812107
0.80802
0.643777
0.770682
0.765702
0.787705
0.810835
0.831592
0.813244
0.778099
0.749816
0.81537
0.801069
0.818786
0.782014
0.817671
0.808608
0.805441
0.814254
0.817215
0.805624
0.782778
0.822658
0.726929
0.793771
0.83445
0.79268
0.752996
0.740306
0.749594
0.722351
0.814155
0.755015
0.788893
0.805849
0.802475
0.771859
0.739785
0.819286
0.79566
0.639209
0.809967
0.784069
0.775887
0.815412
0.827441
0.789163
0.801267
0.803945
0.807523
0.783152
0.812735
0.815578
0.806678
0.558257
0.749942
0.794635
0.792943
0.81873
0.817053
0.802955
0.817293
0.742677
0.766177
0.735494
0.687701
0.787535
0.813267
0.779926
0.794701
0.808297
0.804831
0.77207
0.720867
0.747076
0.780355
0.757011
0.820101
0.802375
0.785778
0.819479
0.810598
0.797184
0.818016
0.717974
0.793667
0.775546
0.81551
0.800513
0.807713
0.823884
0.812894
0.804481
0.789266
0.759192
0.693249
0.80597
0.783245
0.692302
0.747098
0.780254
0.753555
0.784866
0.816487
0.819328
0.757467
0.784444
0.781335
0.771887
0.775528
0.776598
0.710544
0.797546
0.813747
0.815581
0.809894
0.844395
0.809919
0.63432
0.805573
0.805784
0.757181
0.815836
0.61718
0.81332
0.815502
0.81954
0.794852
0.805779
0.789658
0.743245
0.815355
0.737982
0.816558
0.823646
0.757518
0.792479
0.721851
0.805834
0.818094
0.780768
0.816961
0.806172
0.779867
0.705193
0.814319
0.630268
0.843379
0.821252
0.770669
0.818239
0.679826
0.674437
0.810574
0.830326
0.81384
0.816167
0.808433
0.818382
0.817336
0.80865
0.808481
0.81631
0.771456
0.805656
0.817315
0.813359
0.792528
0.612954
0.816349
0.792275
0.80276
0.803833
0.815776
0.81034
0.815346
0.811869
0.796539
0.818834
0.744567
0.812001
0.795356
0.816933
0.816169
0.816328
0.801174
0.797605
0.753782
0.724965
0.806546
0.789278
0.800885
0.715385
0.626544
0.773872
0.792718
0.804884
0.79171
0.818706
0.810859
0.752622
0.795086
0.773633
0.81458
0.726215
0.794886
0.800764
0.814499
0.793037
0.815052
0.743468
0.822789
0.814269
0.760747
0.714918
0.816397
0.801855
0.809381
0.814875
0.800066
0.767911
0.800072
0.79126
0.760201
0.814437
0.816829
0.817768
0.716488
0.819605
0.812157
0.817435
0.798622
0.816267
0.807076
0.813206
0.839394
0.732966
0.782042
0.799875
0.605354
0.81561
0.809109
0.804777
0.811934
0.814326
0.81554
0.799503
0.812428
0.817537
0.812072
0.802725
0.809627
0.782381
0.814002
0.836544
0.779365
0.816208
0.813438
0.78963
0.817919
0.782048
0.808996
0.814972
0.787696
0.810173
0.776091
0.755707
0.776481
0.810617
0.809464
0.800722
0.81655
0.809955
0.828157
0.820496
0.818638
0.813235
0.787956
0.75147
0.762966
0.774343
0.543307
0.771909
0.792831
0.817659
0.785553
0.816502
0.816062
0.802336
0.766309
0.781902
0.823637
0.555358
0.816305
0.776543
0.827523
0.776844
0.774466
0.810874
0.732065
0.816009
0.774442
0.818311
0.794409
0.812609
0.712089
0.664165
0.811672
0.787443
0.79317
0.819004
0.666098
0.832244
0.832194
0.766985
0.733978
0.813563
0.818407
0.815503
0.721735
0.806838
0.811639
0.844786
0.748887
0.811753
0.777044
0.544594
0.819444
0.787247
0.775851
0.814181
0.810652
0.824123
0.810157
0.804288
0.819851
0.817324
0.810863
0.803271
0.815608
0.816914
0.815937
0.808094
0.828052
0.819069
0.761278
0.786853
0.81386
0.814763
0.816963
0.804108
0.816748
0.77571
0.810371
0.810857
0.511651
0.808677
0.818577
0.757935
0.8047
0.782887
0.817016
0.812232
0.805297
0.771756
0.808048
0.814512
0.794787
0.816161
0.81626
0.668125
0.757521
0.793263
0.772908
0.670149
0.791317
0.819641
0.810059
0.796824
0.799826
0.730084
0.759367
0.813329
0.807049
0.786593
0.785195
0.739613
0.827397
0.789774
0.806026
0.794965
0.81094
0.810653
0.764055
0.815053
0.796581
0.774634
0.801174
0.808703
0.797977
0.812713
0.76746
0.811322
0.792353
0.817456
0.807155
0.814959
0.814418
0.768463
0.766527
0.818989
0.776439
0.757943
0.810488
0.762185
0.765591
0.793241
0.839476
0.781509
0.813487
0.772037
0.806724
0.815766
0.807995
0.804747
0.817596
0.806145
0.78857
0.814196
0.716705
0.810076
0.780098
0.818764
0.81323
0.813465
0.816399
0.818144
0.830083
0.763814
0.795448
0.812922
0.814731
0.818411
0.760955
0.725053
0.805241
0.832675
0.768451
0.790083
0.791089
0.805713
0.81038
0.630611
0.770348
0.708665
0.731321
0.806487
0.804356
0.815749
0.80345
0.813731
0.763852
0.81799
0.829761
0.709574
0.810483
0.775313
0.810188
0.812971
0.789904
0.759195
0.772696
0.825453
0.812278
0.793922
0.806073
0.832751
0.810819
0.805643
0.801463
0.811874
0.812878
0.779024
0.761754
0.68905
0.803014
0.781879
0.808564
0.772264
0.798936
0.81591
0.800009
0.805779
0.813098
0.807794
0.701701
0.813073
0.730152
0.781815
0.811002
0.773693
0.785966
0.788039
0.8017
0.741806
0.773162
0.694244
0.782838
0.805309
0.698466
0.789002
0.814695
0.75424
0.744117
0.804909
0.811304
0.800937
0.738876
0.807264
0.793195
0.790276
0.831661
0.788008
0.810435
0.803644
0.819566
0.773044
0.80826
0.814764
0.810249
0.814969
0.8141
0.70583
0.77076
0.798226
0.76245
0.817055
0.814616
0.810939
0.808947
0.762914
0.777946
0.800271
0.817406
0.740387
0.811349
0.805888
0.815636
0.756312
0.736317
0.760981
0.714181
0.805544
0.739956
0.808563
0.809549
0.813797
0.750592
0.811745
0.785354
0.808502
0.820964
0.806394
0.811197
0.811645
0.814426
0.817839
0.799862
0.796651
0.806513
0.81324
0.788652
0.80758
0.822847
0.79731
0.818004
0.80024
0.809791
0.808429
0.815233
0.767833
0.690468
0.821083
0.781849
0.821076
0.809318
0.812209
0.806899
0.815271
0.780701
0.809298
0.772929
0.80061
0.805965
0.815135
0.811544
0.795799
0.829855
0.81882
0.801694
0.761229
0.813287
0.809473
0.758902
0.777424
0.820251
0.791843
0.779045
0.776458
0.821477
0.808913
0.819927
0.810206
0.820342
0.812041
0.814938
0.781547
0.81135
0.815585
0.810225
0.813387
0.806967
0.764736
0.74371
0.813557
0.809705
0.77582
0.754652
0.808887
0.830122
0.813017
0.809578
0.769298
0.779426
0.793801
0.81335
0.815775
0.806849
0.805383
0.705822
0.818833
0.787355
0.811855
0.813334
0.821501
0.751054
0.769843
0.791327
0.819685
0.815387
0.81086
0.807936
0.782159
0.824333
0.77331
0.779387
0.808931
0.814209
0.66357
0.763683
0.81883
0.825385
0.755301
0.778042
0.810314
0.806534
0.803192
0.806557
0.797759
0.81373
0.813887
0.802892
0.806751
0.792893
0.776111
0.787902
0.81186
0.803532
0.814054
0.667088
0.83955
0.647824
0.80755
0.81464
0.842456
0.811732
0.815057
0.813043
0.800416
0.797319
0.807562
0.720821
0.816468
0.809638
0.766988
0.807578
0.604193
0.763012
0.793131
0.808117
0.818265
0.777927
0.770977
0.822305
0.812483
0.674302
0.776795
0.825063
0.684781
0.74071
0.794035
0.740165
0.805016
0.775914
0.801882
0.817072
0.60587
0.787365
0.831691
0.800801
0.765176
0.806559
0.819587
0.786826
0.768431
0.828123
0.802719
0.769724
0.80505
0.814153
0.782662
0.761599
0.793714
0.77691
0.790379
0.806045
0.704988
0.775954
0.80058
0.814573
0.804787
0.797968
0.829087
0.659802
0.797521
0.797093
0.787314
0.820178
0.796563
0.830438
0.679726
0.665478
0.812188
0.763526
0.81176
0.811913
0.816535
0.800018
0.660115
0.806475
0.79233
0.813285
0.825407
0.778585
0.811615
0.780332
0.800551
0.790984
0.819285
0.782672
0.758536
0.796574
0.81829
0.815637
0.701084
0.807748
0.784088
0.791823
0.791158
0.816452
0.810921
0.81176
0.814056
0.807001
0.75856
0.739038
0.814512
0.775822
0.795701
0.704924
0.752427
0.765526
0.759665
0.814188
0.67791
0.808602
0.782017
0.813334
0.835422
0.811847
0.811881
0.776698
0.814135
0.81616
0.820581
0.81649
0.811623
0.776767
0.830791
0.765792
0.797031
0.8183
0.679198
0.794793
0.809642
0.813442
0.797967
0.828158
0.801562
0.800514
0.800945
0.784413
0.770254
0.834044
0.799907
0.702359
0.810147
0.758782
0.830903
0.768476
0.804462
0.843099
0.808201
0.816633
0.779427
0.794367
0.823296
0.836335
0.813105
0.716663
0.747722
0.817982
0.772469
0.774705
0.816187
0.818558
0.814979
0.751512
0.779526
0.796566
0.769451
0.722576
0.82332
0.773417
0.823395
0.794877
0.807875
0.79596
0.784681
0.723968
0.798813
0.801418
0.78758
0.810734
0.811444
0.735428
0.806216
0.665144
0.811588
0.693839
0.809256
0.815398
0.826285
0.832254
0.82806
0.80188
0.813488
0.806975
0.806029
0.725745
0.830141
0.783392
0.830797
0.758508
0.81722
0.790365
0.755808
0.816478
0.811726
0.750048
0.81321
0.772571
0.80861
0.806844
0.805565
0.704849
0.803931
0.82207
0.80113
0.812356
0.776162
0.767824
0.780063
0.809901
0.812769
0.813459
0.793239
0.809692
0.810422
0.783546
0.811728
0.766917
0.799401
0.812298
0.813424
0.785186
0.816365
0.830119
0.818763
0.81861
0.815548
0.825361
0.781643
0.812736
0.647767
0.810426
0.687711
0.81454
0.813456
0.822523
0.832113
0.774227
0.815425
0.686345
0.722837
0.768177
0.735123
0.815588
0.770598
0.765281
0.718287
0.761355
0.833122
0.811063
0.820728
0.770018
0.777996
0.812167
0.800525
0.792163
0.778306
0.814134
0.811152
0.825304
0.812969
0.810094
0.819048
0.769857
0.795812
0.737197
0.809646
0.815553
0.81277
0.809303
0.813357
0.796666
0.766255
0.828754
0.779193
0.768018
0.778327
0.82138
0.813453
0.806188
0.821056
0.810533
0.800621
0.812982
0.794339
0.801179
0.809579
0.815153
0.797343
0.764641
0.804343
0.813495
0.81535
0.816683
0.816936
0.755479
0.74931
0.762349
0.803215
0.812968
0.70369
0.770728
0.814153
0.791681
0.811168
0.768017
0.800648
0.810579
0.8041
0.80607
0.75722
0.809938
0.812008
0.806583
0.806371
0.776189
0.807309
0.813571
0.812652
0.814427
0.821693
0.702497
0.811544
0.793202
0.797235
0.819312
0.816978
0.810557
0.817519
0.780354
0.810943
0.78425
0.758589
0.811762
0.79833
0.811495
0.792321
0.811026
0.815401
0.81107
0.798459
0.815807
0.747932
0.811353
0.811876
0.802394
0.788429
0.756752
0.757413
0.812036
0.798878
0.784713
0.751521
0.779327
0.813805
0.811991
0.807622
0.807981
0.814427
0.775517
0.800818
0.813627
0.762627
0.803897
0.804833
0.792856
0.825974
0.792655
0.698544
0.768364
0.808645
0.7898
0.810843
0.765913
0.814558
0.815057
0.817605
0.814569
0.812459
0.815552
0.762784
0.813068
0.767004
0.80198
0.743306
0.800493
0.769331
0.761816
0.800407
0.777896
0.764631
0.791163
0.819513
0.822436
0.836144
0.749883
0.811519
0.776303
0.706967
0.820165
0.810422
0.803773
0.784981
0.793479
0.817462
0.745718
0.808465
0.749673
0.791594
0.827277
0.731745
0.816334
0.799806
0.807427
0.814324
0.817383
0.784023
0.811438
0.822456
0.818289
0.822025
0.78521
0.778938
0.80644
0.818224
0.810697
0.718017
0.768643
0.780143
0.801008
0.814272
0.818499
0.745136
0.814313
0.771693
0.807112
0.813054
0.811029
0.795066
0.806032
0.699222
0.806253
0.743003
0.795727
0.722941
0.767668
0.806077
0.815469
0.781956
0.785395
0.811383
0.793606
0.693699
0.766299
0.77478
0.789621
0.638896
0.801717
0.790195
0.810025
0.804329
0.805734
0.807823
0.673646
0.671133
0.816843
0.81129
0.696423
0.782235
0.799995
0.81601
0.803032
0.735358
0.841547
0.744189
0.81345
0.812019
0.819665
0.800053
0.811618
0.78258
0.813491
0.817782
0.777141
0.801564
0.809656
0.810721
0.787096
0.766308
0.724662
0.675107
0.728706
0.819142
0.780907
0.762727
0.713805
0.755838
0.811301
0.730683
0.790897
0.752316
0.813137
0.785995
0.814487
0.797432
0.815842
0.789856
0.802257
0.804164
0.814792
0.757905
0.815065
0.784553
0.791552
0.805804
0.796907
0.814811
0.801419
0.767725
0.812317
0.773385
0.79061
0.811535
0.801297
0.784004
0.794235
0.788497
0.812854
0.811579
0.812735
0.732403
0.7842
0.754884
0.76109
0.816641
0.787216
0.807041
0.818155
0.822892
0.678512
0.756572
0.796615
0.748573
0.817487
0.763942
0.797028
0.775652
0.80875
0.814855
0.7942
0.740655
0.799158
0.779119
0.815686
0.81737
0.797434
0.773795
0.797207
0.800259
0.809084
0.812663
0.810612
0.814871
0.815226
0.81266
0.79394
0.790113
0.766931
0.768052
0.814127
0.807192
0.775454
0.812248
0.795619
0.816354
0.813002
0.763508
0.740309
0.790557
0.832474
0.811146
0.808384
0.809621
0.810024
0.816724
0.813368
0.813893
0.787413
0.808477
0.807385
0.789834
0.792199
0.815083
0.689963
0.599276
0.8002
0.795286
0.812167
0.817562
0.77671
0.756039
0.808684
0.7431
0.829206
0.812893
0.779025
0.81034
0.837243
0.755789
0.776801
0.771617
0.728578
0.808087
0.796212
0.802304
0.74949
0.78875
0.792069
0.751864
0.782835
0.807022
0.805358
0.757699
0.67815
0.817521
0.817139
0.814079
0.811592
0.814575
0.793775
0.8133
0.794644
0.783636
0.722515
0.80787
0.799858
0.798424
0.812131
0.812861
0.812984
0.804768
0.837915
0.817315
0.764705
0.800331
0.813713
0.809375
0.801652
0.787481
0.80766
0.767136
0.795579
0.808285
0.780439
0.817477
0.779263
0.817478
0.815005
0.815914
0.786479
0.815653
0.77295
0.791168
0.791206
0.778266
0.782628
0.792066
0.795754
0.811956
0.747838
0.755337
0.82117
0.799122
0.80727
0.796324
0.804603
0.809244
0.816718
0.815005
0.813544
0.814566
0.75369
0.816526
0.810586
0.771461
0.80896
0.711457
0.824034
0.714054
0.811647
0.82161
0.830523
0.789029
0.773043
0.801794
0.837897
0.815007
0.80777
0.808341
0.802532
0.814629
0.815176
0.796295
0.770477
0.815485
0.794407
0.826395
0.814797
0.767582
0.75937
0.781068
0.81282
0.817889
0.785963
0.793748
0.769627
0.781358
0.741257
0.82554
0.759967
0.809362
0.790236
0.800873
0.829753
0.814696
0.760652
0.824528
0.804048
0.803857
0.841899
0.807615
0.80972
0.78625
0.797067
0.812658
0.824359
0.7724
0.801376
0.771463
0.814228
0.732012
0.759888
0.811186
0.692724
0.749055
0.818598
0.810699
0.76533
0.834338
0.786195
0.721807
0.780491
0.762139
0.769736
0.777019
0.76941
0.813897
0.822906
0.807438
0.813417
0.796234
0.813723
0.833151
0.821974
0.806513
0.79987
0.808969
0.817673
0.818104
0.800079
0.732039
0.813223
0.812227
0.600129
0.815231
0.820858
0.818921
0.804712
0.810971
0.806114
0.81891
0.815217
0.79216
0.811975
0.616183
0.784031
0.7266
0.798674
0.819418
0.747317
0.766256
0.784782
0.78085
0.756604
0.804614
0.808122
0.815507
0.812204
0.789544
0.817046
0.760213
0.835213
0.812746
0.834162
0.814773
0.796459
0.621548
0.776144
0.814961
0.813028
0.783669
0.792064
0.827084
0.812435
0.764743
0.815945
0.800666
0.836933
0.823431
0.815397
0.803924
0.815189
0.813872
0.735003
0.80619
0.800337
0.812136
0.753184
0.797219
0.812982
0.76125
0.798889
0.771812
0.806723
0.825908
0.807316
0.798614
0.723991
0.803596
0.779611
0.779584
0.820817
0.795199
0.757057
0.822505
0.787226
0.803687
0.768218
0.831864
0.757551
0.70816
0.806847
0.798992
0.809262
0.788412
0.732371
0.802535
0.677284
0.816436
0.802008
0.779844
0.762214
0.820704
0.758628
0.762132
0.768322
0.730988
0.807218
0.805108
0.813631
0.763098
0.813055
0.814355
0.80548
0.799564
0.782555
0.795579
0.81351
0.816415
0.782791
0.76745
0.805777
0.817691
0.807374
0.804357
0.820529
0.73704
0.830758
0.80956
0.803939
0.744391
0.806997
0.823583
0.7661
0.808834
0.764775
0.813989
0.814375
0.757373
0.831817
0.818263
0.827526
0.776622
0.837408
0.808535
0.814405
0.807214
0.810435
0.76527
0.805173
0.809596
0.815193
0.804146
0.808681
0.819784
0.796349
0.803062
0.826105
0.793341
0.658729
0.744911
0.828133
0.798565
0.774904
0.757823
0.824851
0.80397
0.743825
0.765187
0.79896
0.760898
0.811711
0.789847
0.838589
0.814367
0.766153
0.809851
0.78149
0.810206
0.809119
0.80626
0.786609
0.780869
0.815909
0.740107
0.813449
0.8091
0.798545
0.772112
0.813622
0.80719
0.77943
0.819294
0.73524
0.808422
0.813784
0.744389
0.821202
0.770939
0.822047
0.64487
0.82521
0.766271
0.817068
0.804345
0.773236
0.816768
0.759572
0.801208
0.815817
0.76261
0.81212
0.809669
0.806707
0.815272
0.816098
0.815467
0.725359
0.815847
0.808671
0.81333
0.80924
0.808911
0.816597
0.814568
0.811464
0.828993
0.832701
0.774915
0.839416
0.712274
0.763601
0.813575
0.555997
0.806176
0.807707
0.7937
0.785785
0.820326
0.816794
0.79185
0.810847
0.815261
0.810063
0.817234
0.816188
0.814028
0.760379
0.805906
0.81015
0.8097
0.807407
0.786111
0.794081
0.776315
0.779113
0.833802
0.798375
0.820606
0.767231
0.811139
0.840266
0.787367
0.802573
0.810236
0.775468
0.81101
0.792276
0.796993
0.771653
0.813097
0.732405
0.828626
0.807855
0.813997
0.753059
0.740659
0.810792
0.728194
0.76019
0.812509
0.817896
0.763109
0.760975
0.76739
0.782884
0.813466
0.817383
0.76261
0.794608
0.803836
0.818207
0.811855
0.795489
0.815221
0.811184
0.800252
0.806319
0.811834
0.80171
0.813473
0.810846
0.745912
0.725769
0.811101
0.775549
0.825156
0.656627
0.677199
0.805279
0.810444
0.779779
0.816179
0.807542
0.804686
0.811862
0.769521
0.814947
0.812901
0.829065
0.73785
0.771322
0.814968
0.812133
0.812124
0.765031
0.822973
0.831168
0.812079
0.809417
0.780791
0.780063
0.809379
0.813664
0.791252
0.806006
0.810522
0.799862
0.658653
0.813984
0.807105
0.808952
0.81483
0.765432
0.779676
0.809731
0.749577
0.814535
0.770805
0.798422
0.663942
0.805161
0.796302
0.775473
0.764212
0.784413
0.739348
0.771554
0.813583
0.793874
0.80994
0.755452
0.816227
0.814061
0.778531
0.813471
0.798711
0.805612
0.80833
0.805968
0.816081
0.762579
0.749083
0.805662
0.816004
0.814709
0.808577
0.725433
0.81665
0.826179
0.82528
0.809142
0.813204
0.810058
0.809328
0.773532
0.77993
0.794216
0.762433
0.828425
0.809632
0.75837
0.814625
0.812015
0.812011
0.84362
0.828974
0.756233
0.801604
0.809745
0.783727
0.80472
0.812733
0.82202
0.833023
0.832149
0.796858
0.804784
0.828425
0.758754
0.808287
0.729308
0.655624
0.811524
0.820205
0.781374
0.814301
0.764291
0.727047
0.796775
0.804067
0.814258
0.610272
0.833335
0.817214
0.813661
0.801614
0.817533
0.80223
0.779188
0.798236
0.817818
0.809339
0.774206
0.806011
0.829309
0.773894
0.771081
0.803415
0.783035
0.776987
0.838557
0.81339
0.752889
0.814259
0.798724
0.718297
0.741613
0.811941
0.794715
0.777587
0.727665
0.77053
0.815402
0.807732
0.807967
0.7833
0.814414
0.746315
0.836905
0.777308
0.756342
0.781478
0.842498
0.813618
0.762243
0.774667
0.823265
0.823656
0.818315
0.81726
0.820875
0.83609
0.81831
0.78675
0.815817
0.812914
0.814289
0.787389
0.763488
0.792708
0.814856
0.822229
0.783642
0.786081
0.710274
0.77631
0.818213
0.813074
0.81131
0.811082
0.798564
0.76568
0.817955
0.741823
0.819996
0.782588
0.811926
0.754065
0.787263
0.776015
0.818526
0.836324
0.774645
0.762531
0.737066
0.815735
0.78625
0.764339
0.757496
0.765893
0.784726
0.800308
0.794361