/*--------------------------------*- C++ -*----------------------------------*\
  =========                 |
  \\      /  F ield         | OpenFOAM: The Open Source CFD Toolbox
   \\    /   O peration     | Website:  https://openfoam.org
    \\  /    A nd           | Version:  6
     \\/     M anipulation  |
\*---------------------------------------------------------------------------*/
FoamFile
{
    version     2.0;
    format      ascii;
    class       surfaceScalarField;
    location    "0";
    object      Phi_rec;
}
// * * * * * * * * * * * * * * * * * * * * * * * * * * * * * * * * * * * * * //

dimensions      [0 3 -1 0 0 0 0];

internalField   nonuniform List<scalar> 
17780
(
0.0013648
0.00100255
0.000970337
0.000609947
0.000623285
0.00031238
0.0004559
0.000173296
0.000362278
0.000104292
0.000306287
6.29845e-05
0.000270496
4.78242e-05
0.000244988
2.32292e-05
0.000227214
1.4591e-05
0.000215692
6.40764e-06
0.00020748
1.73286e-05
0.000200244
1.64131e-05
0.000196114
1.44378e-05
0.000195411
1.40544e-05
0.000193631
2.73603e-06
0.000190773
-3.16579e-06
0.000188399
-5.85039e-06
0.00018712
1.21568e-06
0.000187393
7.84198e-06
0.000188571
1.41523e-05
0.000188727
1.02179e-05
0.000187872
1.10517e-05
0.000187539
6.92272e-06
0.000187464
8.3407e-06
0.000188251
9.92567e-06
0.000187634
5.67794e-06
0.000186466
-1.50122e-06
0.000187641
3.80741e-07
0.000187254
-9.19538e-06
0.000187274
-4.4159e-06
0.00018826
-2.87958e-06
0.000187525
-9.71572e-06
0.00018731
-1.20593e-05
0.000186576
-1.12148e-05
0.000185802
-6.66889e-06
0.000186351
-3.53777e-06
0.000187346
-4.63264e-07
0.000188539
-4.12175e-06
0.00018985
-4.06996e-06
0.000191049
-2.09501e-06
0.000190873
-3.99075e-06
0.000191065
-8.5574e-06
0.000193024
-5.60389e-06
0.000196842
-7.25122e-06
0.00020196
-1.18846e-05
0.000208669
-2.1712e-05
0.000224525
-2.76332e-05
0.000262073
-3.65035e-05
0.000353432
-0.000100678
-0.000310492
0.00059779
0.00230042
0.00135057
0.00192945
0.00112248
0.00149058
0.00072481
0.00119605
0.000456244
0.00099871
0.000295206
0.000866707
0.000193734
0.000774819
0.000136138
0.000708904
8.31176e-05
0.000665142
5.98459e-05
0.0006356
3.98498e-05
0.000610792
3.83703e-05
0.000589523
2.89599e-05
0.000575539
2.47057e-05
0.000568888
2.63206e-05
0.000564602
9.86826e-06
0.000561017
1.6227e-06
0.000557509
-1.77992e-06
0.000554488
1.30941e-06
0.000552735
1.20147e-05
0.000552731
1.6511e-05
0.000552733
1.83628e-05
0.000550572
1.16402e-05
0.000550051
1.03404e-05
0.000550995
1.37201e-05
0.000550652
1.54469e-05
0.000547989
3.26998e-06
0.000546834
-9.21191e-07
0.000548717
-4.84784e-06
0.000549571
-1.72057e-05
0.000550347
-6.85418e-06
0.000549499
-9.3034e-06
0.000548687
-1.22395e-05
0.000550341
-1.46038e-05
0.000549412
-1.47334e-05
0.000548404
-7.16511e-06
0.00054915
-1.03696e-06
0.000550882
-4.16448e-07
0.000555157
8.42972e-07
0.000558695
-6.22132e-06
0.000560667
-1.98584e-06
0.000562143
-8.25396e-06
0.000565959
-1.71317e-05
0.000571561
-1.89492e-05
0.00057998
-2.40989e-05
0.000595953
-3.0372e-05
0.000622614
-4.75028e-05
0.00066595
-6.98443e-05
0.000739923
-0.000121528
0.000879376
-0.00023835
-0.000516443
0.00106947
0.00259772
0.00122951
0.0024064
0.00135962
0.00205768
0.00105651
0.00175634
0.000743679
0.00152469
0.000522325
0.00135424
0.000364999
0.00122639
0.000251507
0.00113406
0.0001787
0.00107149
0.000132553
0.00102826
9.7306e-05
0.000990448
7.08995e-05
0.000957833
4.56365e-05
0.000937357
4.19444e-05
0.000924982
3.74182e-05
0.000915825
1.87019e-05
0.000909746
9.62752e-06
0.000906603
7.80644e-06
0.000904233
4.38955e-06
0.000900975
1.39633e-05
0.000898879
1.13929e-05
0.000897036
1.89993e-05
0.000895051
6.42649e-06
0.000896219
1.11104e-05
0.000894759
1.26094e-05
0.000891395
1.25425e-05
0.000890501
1.72447e-06
0.000888589
-4.8634e-06
0.000890076
-7.83278e-06
0.000893649
-1.8231e-05
0.000893847
-1.06396e-05
0.000891761
-9.36797e-06
0.00089057
-1.01439e-05
0.000894071
-8.32873e-06
0.000895989
-1.19159e-05
0.000894132
-7.96917e-06
0.000894243
2.80385e-06
0.000897154
3.92208e-07
0.000902486
3.37381e-06
0.000907669
-6.61769e-06
0.000909875
-6.04507e-06
0.000913336
-1.52324e-05
0.000922401
-2.24516e-05
0.000933852
-3.32958e-05
0.000949553
-4.21515e-05
0.000973918
-5.76586e-05
0.001013
-8.59192e-05
0.0010744
-0.000130146
0.00116642
-0.000225574
0.00130416
-0.000376515
-0.000679899
0.00144527
0.00268663
0.00105131
0.00263385
0.00143085
0.00240561
0.00127662
0.00215885
0.000987687
0.00193806
0.000735983
0.00175965
0.000538934
0.00162244
0.000393312
0.00151897
0.000291947
0.0014426
0.00022087
0.00138548
0.000164185
0.00134013
0.000117161
0.00130589
7.92833e-05
0.00127916
6.78028e-05
0.00125851
4.8311e-05
0.00124807
2.97876e-05
0.00124225
1.93379e-05
0.00123682
1.16865e-05
0.00123344
6.27303e-06
0.00122982
1.49085e-05
0.00122586
1.18119e-05
0.00122204
1.41444e-05
0.00122071
2.09401e-06
0.00122238
7.6382e-06
0.00121959
5.60744e-06
0.00121434
6.01417e-06
0.00121131
1.17562e-06
0.00120943
-7.41626e-06
0.00121322
-1.61839e-06
0.00121875
-1.09214e-05
0.00121965
-1.09342e-05
0.00121798
-1.72659e-06
0.00121669
-3.33134e-06
0.00121967
-9.73882e-07
0.0012227
-6.10786e-06
0.00122232
-5.27298e-06
0.00122213
1.68007e-06
0.00122379
-4.72979e-06
0.00122955
-2.64762e-06
0.0012377
-1.34682e-05
0.00124212
-1.6786e-05
0.00124659
-2.94398e-05
0.00125863
-3.38258e-05
0.00127491
-4.99177e-05
0.0012961
-6.79826e-05
0.001329
-9.68247e-05
0.00137586
-0.000137439
0.00144394
-0.000201765
0.00154028
-0.000319435
0.00166224
-0.000497129
-0.000794151
0.00176547
0.00269903
0.000888956
0.00273407
0.00141129
0.00261296
0.00138759
0.00243565
0.00116054
0.00225159
0.000908216
0.00209065
0.000700261
0.00196131
0.000539458
0.00185576
0.000403089
0.0017735
0.000310254
0.00171195
0.000233922
0.00166319
0.000169408
0.001626
0.000123553
0.00159556
9.4732e-05
0.00157225
6.26635e-05
0.00155971
4.55638e-05
0.00155176
3.15957e-05
0.00154664
1.74122e-05
0.00154275
1.34089e-05
0.00153738
1.86766e-05
0.00153315
1.7342e-05
0.00152952
1.2234e-05
0.00152865
3.06056e-06
0.00152969
4.08842e-06
0.00152524
-8.21658e-07
0.001518
-2.57611e-08
0.00151644
5.02004e-06
0.00151656
-3.76097e-06
0.0015179
1.66506e-06
0.00152435
-6.56373e-07
0.00152728
-7.15357e-06
0.00152437
2.67472e-06
0.00152183
1.59002e-06
0.00152411
8.46655e-06
0.00153003
6.61452e-06
0.00153176
4.4769e-06
0.00152959
-2.12336e-06
0.00153186
-7.9634e-06
0.00153933
-9.19919e-06
0.0015476
-2.31624e-05
0.00155407
-2.98917e-05
0.00156213
-4.14394e-05
0.00157662
-5.25423e-05
0.0015963
-7.19947e-05
0.0016217
-0.000102949
0.00165748
-0.000143715
0.00170766
-0.000195172
0.00177832
-0.000269314
0.00186908
-0.000396273
0.00196894
-0.0005913
-0.000870214
0.00204296
0.00268936
0.000751028
0.00276827
0.00133752
0.00272554
0.00141683
0.00261781
0.00126366
0.002488
0.00104469
0.00235921
0.000842579
0.00224268
0.000660853
0.00214615
0.000505546
0.00206752
0.000391435
0.00200358
0.000296502
0.00195567
0.000219526
0.00191973
0.000165208
0.00188695
0.00011979
0.00186224
8.26493e-05
0.00184969
6.34675e-05
0.00184086
4.47813e-05
0.00183682
2.79373e-05
0.00183611
2.76961e-05
0.00182902
2.4363e-05
0.00181881
1.55392e-05
0.00181361
1.23753e-05
0.0018143
5.76992e-06
0.00181629
4.84024e-07
0.00181337
-1.92154e-06
0.00180612
-4.89481e-06
0.001803
7.38382e-06
0.00180323
3.44032e-07
0.00180413
-2.69021e-07
0.00181093
5.24834e-06
0.00181718
1.34796e-06
0.00181454
4.35321e-06
0.00181003
3.20856e-06
0.00181238
1.46672e-05
0.00181691
1.51231e-05
0.00181631
6.96127e-06
0.00181637
-5.02395e-06
0.00182059
-7.04855e-06
0.00182827
-1.48481e-05
0.00183909
-2.47086e-05
0.00184742
-3.95152e-05
0.00185697
-4.8817e-05
0.00187258
-6.9119e-05
0.0018925
-9.30328e-05
0.00192156
-0.000131774
0.00196395
-0.000180523
0.00201532
-0.000246907
0.00207959
-0.000334377
0.00215989
-0.00046536
0.00223968
-0.00066431
-0.000927334
0.00228912
0.00267034
0.000637062
0.00277029
0.00123317
0.0027844
0.00138936
0.00274002
0.00131088
0.00266217
0.00113951
0.00256627
0.000940638
0.00247278
0.000751454
0.00239268
0.000589492
0.00232293
0.000454055
0.00226511
0.000345097
0.0022205
0.000260154
0.00218422
0.000196186
0.00215367
0.000142497
0.00213261
0.000106159
0.0021191
7.72604e-05
0.0021099
5.40239e-05
0.00210718
3.51325e-05
0.00210352
3.21549e-05
0.00209447
2.30184e-05
0.00208686
1.77365e-05
0.00208278
1.0834e-05
0.00208196
6.23756e-06
0.00208273
-1.35972e-06
0.00208237
-2.03675e-06
0.00207641
-7.15191e-06
0.00207058
-5.10867e-07
0.002072
5.59783e-06
0.00207402
-1.49139e-07
0.00207891
1.42407e-06
0.00208465
5.39239e-06
0.00208457
1.85738e-06
0.00208297
6.82574e-06
0.00208189
8.77384e-06
0.00208243
9.14999e-06
0.00208349
-1.01885e-06
0.00208546
-8.26751e-06
0.00208994
-1.16612e-05
0.00209745
-2.25157e-05
0.00210963
-2.55025e-05
0.00212044
-4.23715e-05
0.00213068
-6.18902e-05
0.0021472
-8.39077e-05
0.00216898
-0.000115305
0.002199
-0.000157531
0.00224216
-0.000209807
0.00229416
-0.000291065
0.00235189
-0.000393425
0.00241539
-0.000532752
0.00247452
-0.000725649
-0.000966401
0.0025072
0.00265407
0.000545747
0.00276138
0.00111973
0.00281439
0.0013237
0.00281833
0.00130395
0.00278471
0.00117561
0.00272501
0.000987031
0.00265899
0.000809539
0.0025983
0.000649674
0.00254152
0.000500193
0.00249346
0.000383797
0.00245633
0.000291284
0.00242537
0.000222392
0.00239771
0.000164207
0.00237763
0.000124644
0.0023654
9.18785e-05
0.00235836
6.3455e-05
0.00235767
4.10721e-05
0.00235356
3.04668e-05
0.00234297
1.4663e-05
0.00233482
2.1366e-05
0.00232887
9.34538e-06
0.00232837
1.04859e-05
0.0023321
5.1344e-06
0.00233219
-6.65939e-06
0.00232719
-8.92767e-06
0.00232144
-1.20504e-05
0.00232123
2.64483e-06
0.002325
-1.25229e-06
0.00233068
-4.47236e-06
0.0023351
-3.37314e-06
0.00233442
-7.16373e-06
0.00233222
1.21345e-06
0.00233128
-1.92034e-06
0.00233089
-1.83633e-07
0.00233161
-5.44061e-06
0.00233541
-1.11818e-05
0.00234116
-1.87083e-05
0.00234929
-2.89855e-05
0.00236109
-3.28409e-05
0.0023726
-4.76627e-05
0.00238487
-7.82851e-05
0.00240186
-0.000100324
0.00242277
-0.000139632
0.00245185
-0.000186282
0.00249271
-0.00024128
0.00254071
-0.000330025
0.00259297
-0.000438001
0.00264507
-0.0005863
0.00268586
-0.000773663
-0.000992935
0.00270267
0.00263627
0.000467111
0.0027462
0.00100355
0.00282809
0.00123509
0.00286872
0.00125669
0.00286957
0.00116408
0.0028445
0.00100089
0.00280764
0.000839932
0.00276763
0.000687258
0.00272926
0.000541591
0.00269537
0.000418958
0.00266674
0.000316884
0.00264187
0.000247142
0.00261905
0.000183807
0.00260089
0.00013644
0.00258997
0.000107736
0.0025848
7.65417e-05
0.00258466
5.28606e-05
0.00258311
3.29842e-05
0.00257434
1.33668e-05
0.00256391
1.52169e-05
0.00255933
1.46106e-05
0.00255918
1.81712e-05
0.00255986
9.62841e-06
0.00256084
-1.06284e-05
0.00255921
-1.20352e-05
0.00255513
-1.88107e-05
0.00255128
-7.90468e-06
0.00255225
-8.1691e-06
0.00255938
-4.24439e-06
0.00256607
-1.1694e-05
0.00256724
-1.38797e-05
0.00256377
-1.36636e-05
0.00256091
-1.08689e-05
0.00256143
-7.06012e-06
0.00256364
-5.43441e-06
0.00256612
-1.31766e-05
0.00257223
-2.00245e-05
0.00258311
-3.16831e-05
0.00259314
-4.42165e-05
0.00260231
-6.02207e-05
0.00261588
-9.02798e-05
0.00263356
-0.000116517
0.0026558
-0.000161468
0.00268365
-0.000211539
0.00271968
-0.000277662
0.00276306
-0.000363699
0.00280569
-0.000481566
0.00284588
-0.000624057
0.0028753
-0.000804852
-0.00100801
0.00288023
0.00262222
0.000395707
0.00272895
0.000889129
0.0028273
0.00113349
0.00289586
0.00119024
0.00292975
0.00112587
0.00293914
0.000994277
0.00292973
0.000845917
0.0029084
0.000700113
0.00288636
0.000565955
0.00286806
0.000445558
0.00285202
0.000338739
0.00283421
0.000264244
0.00281684
0.000197824
0.00280426
0.000145667
0.00279406
0.000112505
0.00278947
8.62801e-05
0.00279125
6.54857e-05
0.00279122
3.85547e-05
0.00278597
2.05981e-05
0.00277812
1.22918e-05
0.00277198
2.03769e-05
0.00276671
2.00862e-05
0.00276585
7.4886e-06
0.0027696
-4.92709e-06
0.00276894
-1.32042e-05
0.00276667
-1.79625e-05
0.0027653
-9.74737e-06
0.00276494
-6.63229e-06
0.00276972
-6.36979e-06
0.00277678
-1.04201e-05
0.00277904
-1.63797e-05
0.00277749
-2.17545e-05
0.00277728
-1.60894e-05
0.00277559
-1.40981e-05
0.0027731
-1.10049e-05
0.0027763
-1.41878e-05
0.00278454
-1.84573e-05
0.0027952
-3.23686e-05
0.00280472
-5.21312e-05
0.00281462
-7.21213e-05
0.00282901
-9.75078e-05
0.00284484
-0.00013485
0.00286466
-0.000183886
0.0028912
-0.000237943
0.00292346
-0.00031245
0.00295952
-0.000399053
0.0029934
-0.000520821
0.00302218
-0.000658339
0.00304126
-0.000825488
-0.00100974
0.00303961
0.00261173
0.000338908
0.00271654
0.000786975
0.00282596
0.00102723
0.0029138
0.00110563
0.00297168
0.00106418
0.0030077
0.000962403
0.0030247
0.00082584
0.00302602
0.000689405
0.00301986
0.000563717
0.00301541
0.000449066
0.00301265
0.00034879
0.00300301
0.000271644
0.00299318
0.000205687
0.00298651
0.0001472
0.0029794
0.000105849
0.002975
8.52731e-05
0.00297538
6.55983e-05
0.00297814
4.54026e-05
0.00297762
2.69255e-05
0.00297293
1.48197e-05
0.00296487
1.77294e-05
0.00295529
1.5514e-05
0.00295371
5.88973e-06
0.00295922
2.70042e-06
0.00296134
-1.25481e-05
0.00296007
-1.42999e-05
0.0029578
-7.4779e-06
0.00295759
-1.98203e-06
0.00296118
-1.03371e-05
0.00296682
-6.29016e-06
0.00297127
-1.53727e-05
0.0029725
-1.80502e-05
0.00297187
-1.63413e-05
0.00297015
-2.01709e-05
0.002969
-1.88215e-05
0.00297025
-2.00044e-05
0.00297503
-2.69773e-05
0.00298586
-3.65652e-05
0.00299708
-5.48522e-05
0.00300636
-8.20998e-05
0.00301825
-0.000107282
0.0030326
-0.000153733
0.00305144
-0.000203142
0.00307469
-0.000262909
0.00310222
-0.000335255
0.00313276
-0.000427763
0.00316028
-0.000541724
0.00317938
-0.000685127
0.00318788
-0.000836702
-0.001004
0.0031793
0.00260483
0.000290386
0.0027056
0.000689317
0.00282038
0.000918018
0.00292159
0.000996166
0.00300015
0.000980069
0.00305973
0.000903525
0.00309927
0.000780126
0.00312131
0.000656786
0.00313288
0.000538067
0.00314184
0.000429807
0.00314963
0.000339032
0.00314925
0.0002652
0.00314544
0.000203056
0.00314569
0.000143666
0.00314553
0.000101205
0.00314289
8.03604e-05
0.00314319
6.00373e-05
0.00314625
4.66281e-05
0.0031479
2.83064e-05
0.00314569
1.49029e-05
0.00313667
1.05486e-05
0.00312627
8.81041e-06
0.0031243
5.38522e-06
0.00312812
4.57504e-06
0.00313216
-6.53112e-06
0.00313634
-5.45573e-06
0.00313389
-8.38428e-06
0.00312955
-4.99868e-06
0.00313352
-5.69471e-06
0.00313975
-5.2269e-06
0.00314438
-9.2936e-06
0.00314713
-1.17274e-05
0.00314715
-1.54715e-05
0.00314582
-2.48994e-05
0.00314401
-2.72534e-05
0.00314505
-3.24065e-05
0.00314972
-4.08968e-05
0.00315795
-4.35431e-05
0.0031683
-6.11913e-05
0.00317672
-9.2119e-05
0.00318528
-0.000121138
0.00319829
-0.000165253
0.00321635
-0.000214494
0.00323741
-0.000275668
0.00326091
-0.000351411
0.00328372
-0.000444349
0.00330196
-0.000552857
0.00331441
-0.000694469
0.00331591
-0.000832227
-0.000989451
0.00330017
0.0025987
0.000243536
0.00269526
0.000592363
0.00281317
0.000803886
0.00292622
0.000880657
0.00302023
0.000879038
0.00309637
0.00081992
0.0031562
0.000709806
0.00319763
0.000601685
0.00322466
0.000492867
0.00324883
0.000398965
0.00326945
0.000317254
0.00327471
0.000245814
0.00327501
0.000192411
0.00328267
0.000142868
0.00328968
0.000102291
0.00329145
8.16411e-05
0.003293
5.66021e-05
0.00329521
4.39347e-05
0.00329698
2.54701e-05
0.00329727
1.2331e-05
0.00329025
8.5523e-07
0.00327937
-8.14051e-07
0.00327551
2.33543e-06
0.00327937
8.15647e-06
0.00328617
7.74045e-06
0.00328988
5.08944e-06
0.00328643
-6.87372e-06
0.00328521
-4.10568e-06
0.00328909
2.18121e-06
0.00329326
-1.91756e-06
0.0032983
-2.30294e-06
0.00330017
-7.42403e-06
0.00329951
-1.53163e-05
0.00329979
-2.43811e-05
0.00329871
-3.31606e-05
0.00329993
-3.86095e-05
0.00330595
-4.49671e-05
0.00331291
-4.88695e-05
0.00331915
-7.16011e-05
0.00332551
-9.90648e-05
0.00333351
-0.000130835
0.00334546
-0.000171191
0.00336162
-0.000221072
0.00337904
-0.00028271
0.00339724
-0.000362301
0.00341263
-0.000454284
0.00342319
-0.000560632
0.00342967
-0.000687033
0.00342488
-0.000817259
-0.000964227
0.00340305
0.0025963
0.000199821
0.00268826
0.000500129
0.00280488
0.000683317
0.00292761
0.000769435
0.00303402
0.000767606
0.00312268
0.000713947
0.00319935
0.000629192
0.00325788
0.00053247
0.00330134
0.000439443
0.00333827
0.00035918
0.00336814
0.000290062
0.0033832
0.000223883
0.00339059
0.000176994
0.00340348
0.000137797
0.00341507
0.000103946
0.00341857
7.89465e-05
0.00342051
4.99601e-05
0.00342389
4.04549e-05
0.00342739
2.32287e-05
0.00342921
6.9836e-06
0.00342399
-5.10399e-06
0.00341469
-1.1774e-05
0.00341149
-5.99327e-07
0.00341462
1.20547e-05
0.00341853
1.48823e-05
0.00342183
7.36157e-06
0.00342262
-2.67912e-06
0.0034209
-4.56983e-06
0.00342311
4.23678e-06
0.00342829
8.05985e-06
0.00343186
2.97595e-06
0.00343319
-2.22872e-06
0.00343356
-1.40799e-05
0.00343443
-2.13697e-05
0.00343434
-3.12988e-05
0.00343822
-3.36726e-05
0.00344369
-4.29925e-05
0.00344551
-5.55919e-05
0.00344975
-8.03018e-05
0.00345661
-0.000106415
0.00346297
-0.000140215
0.00347202
-0.000177092
0.00348444
-0.000226386
0.00349752
-0.000289387
0.00351225
-0.000364231
0.00352264
-0.000455568
0.00352677
-0.000564083
0.00352692
-0.000672428
0.00351536
-0.000800192
-0.000935206
0.00348922
0.0025945
0.000157196
0.00268392
0.000408071
0.00280013
0.000560781
0.00292466
0.000643689
0.00303865
0.000644378
0.00313901
0.000597832
0.00323139
0.000544692
0.0033076
0.00045983
0.00336491
0.00037977
0.00341226
0.000310049
0.00345202
0.000253373
0.00347607
0.000196695
0.00348766
0.000151755
0.00350402
0.000122135
0.00351944
0.000102431
0.00352538
6.69553e-05
0.00353079
4.61582e-05
0.00353454
3.21497e-05
0.00353665
1.84186e-05
0.00353967
1.69528e-06
0.00353882
-3.05741e-06
0.00353468
-1.36005e-05
0.00353269
-8.07604e-07
0.00353213
9.60773e-06
0.00353179
3.46788e-06
0.00353413
1.95779e-06
0.00353675
-5.67003e-06
0.00353853
-5.97328e-06
0.0035402
3.77169e-06
0.00354293
1.24826e-05
0.00354633
6.89765e-06
0.00354736
-1.76201e-06
0.00354751
-1.35907e-05
0.00354896
-2.51123e-05
0.0035508
-2.80587e-05
0.00355431
-3.49895e-05
0.00355766
-4.36072e-05
0.00355891
-6.59276e-05
0.00356229
-8.77294e-05
0.00356672
-0.0001158
0.00357145
-0.000151408
0.00357925
-0.000184783
0.00358821
-0.000232453
0.00359697
-0.000292808
0.00360647
-0.000362885
0.00361255
-0.00045258
0.00361253
-0.00056048
0.00360588
-0.000660309
0.00358932
-0.000780606
-0.00090715
0.00355917
0.00259429
0.00012168
0.0026811
0.000315892
0.00279688
0.000443177
0.00292137
0.000507948
0.00304173
0.000514826
0.0031554
0.000487656
0.00325668
0.000446205
0.00334253
0.000380655
0.00341417
0.000312058
0.0034733
0.000252935
0.00351915
0.000206019
0.00354902
0.000157532
0.00356947
0.000119755
0.00358975
9.69093e-05
0.00360384
8.65565e-05
0.00361231
5.58133e-05
0.00362221
4.52916e-05
0.00362592
2.41811e-05
0.00362827
1.29292e-05
0.00363261
3.45018e-06
0.00363358
1.95032e-06
0.00363435
-6.36663e-06
0.00363296
-2.48177e-06
0.00362884
4.86056e-06
0.0036268
-7.71726e-06
0.00362866
-5.11084e-06
0.00363282
-7.9633e-06
0.00363787
-7.65523e-07
0.00364032
6.00359e-06
0.00363902
7.49763e-06
0.00363943
6.2083e-06
0.00364094
-7.10498e-07
0.00364316
-1.26986e-05
0.00364753
-2.84428e-05
0.00364922
-2.85055e-05
0.00364988
-4.35129e-05
0.00365141
-5.12039e-05
0.00365077
-7.84578e-05
0.00365232
-9.77246e-05
0.00365838
-0.000119289
0.00366429
-0.000157659
0.00366796
-0.000195411
0.00367244
-0.000240195
0.00367753
-0.000296415
0.00368068
-0.00036306
0.00368138
-0.000449914
0.0036787
-0.000547907
0.00366644
-0.000648206
0.00364239
-0.000762322
-0.000875246
0.00360969
0.00259514
9.70174e-05
0.0026781
0.000228921
0.0027911
0.00032676
0.00291759
0.000374272
0.00304548
0.00038902
0.0031675
0.000376662
0.00327515
0.000338807
0.00336975
0.000290468
0.00345156
0.000240527
0.003519
0.00019141
0.00357179
0.000154646
0.00360856
0.000114929
0.00363591
8.68566e-05
0.00365808
6.89131e-05
0.00367164
5.25045e-05
0.00368238
3.96959e-05
0.00369234
3.13728e-05
0.00369715
1.74575e-05
0.00370301
1.36615e-05
0.0037089
9.81341e-06
0.00371076
8.75261e-06
0.00371207
-2.15931e-06
0.00370854
-4.96823e-06
0.00370305
1.86922e-06
0.00370365
-4.76241e-06
0.00370696
-5.86549e-06
0.003712
-1.36475e-06
0.0037172
6.24483e-06
0.00371812
6.7949e-06
0.00371603
4.58945e-06
0.00371508
1.14918e-06
0.00371545
5.32777e-07
0.00371902
-1.16457e-05
0.00372419
-2.49536e-05
0.00372601
-3.58448e-05
0.00372675
-4.63777e-05
0.00372577
-6.13443e-05
0.00372538
-8.94295e-05
0.00372702
-0.000108608
0.00372968
-0.000123769
0.00373387
-0.00016342
0.0037371
-0.000203456
0.00373908
-0.000248311
0.00373869
-0.000302309
0.00373551
-0.000365423
0.00373255
-0.000443407
0.00372674
-0.000530135
0.00370948
-0.000629398
0.00368118
-0.000736135
-0.000837378
0.00364393
0.00259043
6.91663e-05
0.00267544
0.000152875
0.00279011
0.000212567
0.00291858
0.000244235
0.00304918
0.000255421
0.00317381
0.00024747
0.00328744
0.000223426
0.00338832
0.000189689
0.00347748
0.000163719
0.00355251
0.000129249
0.00360924
0.000104093
0.00365038
7.56488e-05
0.00368364
5.52153e-05
0.00371077
4.718e-05
0.0037266
2.20525e-05
0.00373601
1.67959e-05
0.00374511
1.19468e-05
0.00375184
1.02354e-05
0.00375945
1.20292e-05
0.00376487
1.08962e-05
0.00376523
1.21464e-05
0.00376847
-1.22288e-06
0.0037679
-2.2211e-06
0.00376046
-1.30824e-07
0.00376002
-8.98418e-08
0.00376638
-1.34676e-07
0.00377274
4.07627e-06
0.00377641
1.05309e-05
0.00377612
8.02657e-06
0.00377498
6.73165e-06
0.00377408
1.13996e-06
0.00377107
-5.79387e-06
0.0037733
-1.29418e-05
0.00378081
-2.05645e-05
0.00378186
-4.42106e-05
0.00378032
-4.95503e-05
0.00377973
-6.1947e-05
0.00378123
-9.10437e-05
0.00378276
-0.000111647
0.00378158
-0.000135151
0.00378377
-0.000167542
0.00378594
-0.00020131
0.00378504
-0.000249431
0.00378143
-0.00029897
0.00377376
-0.000362769
0.00376563
-0.000433732
0.00375439
-0.000509902
0.00373386
-0.000601494
0.00370486
-0.000695333
-0.000794833
0.00366532
0.00258459
3.51683e-05
0.0026689
7.60403e-05
0.00278725
9.94886e-05
0.00291994
0.000117911
0.00305224
0.000114771
0.00317813
0.000110515
0.00329527
9.9592e-05
0.00340193
9.00097e-05
0.00349485
8.2542e-05
0.00357265
6.43281e-05
0.00363432
4.818e-05
0.00368039
3.0943e-05
0.00371411
1.65303e-05
0.00373976
1.88725e-05
0.00375922
4.78429e-06
0.00377334
2.58101e-06
0.00378501
1.92475e-06
0.00379278
3.68806e-06
0.0037991
2.01115e-06
0.00380172
4.84458e-06
0.00380046
6.86334e-06
0.00380603
2.76653e-06
0.00380692
2.32918e-06
0.00379923
-4.87675e-06
0.00379962
1.63105e-06
0.00380682
4.56751e-06
0.00381273
8.03482e-06
0.00381504
1.09514e-05
0.00381422
1.3959e-05
0.00381227
8.96536e-06
0.00381133
4.22107e-06
0.00380948
-7.82565e-06
0.00380967
-1.35888e-05
0.00381521
-1.92e-05
0.00381964
-4.35328e-05
0.00381749
-5.06615e-05
0.00381332
-5.85754e-05
0.00381689
-7.97352e-05
0.003819
-0.000102748
0.00381523
-0.000138162
0.00381532
-0.000164296
0.00381514
-0.000192681
0.00381217
-0.000237547
0.00380629
-0.000286918
0.00379622
-0.000348955
0.0037838
-0.000419448
0.00376819
-0.000489761
0.00374397
-0.000572809
0.00370935
-0.000660503
-0.000755709
0.00366693
0.00258423
5.61703e-06
0.00266756
-5.58898e-06
0.00278472
-1.07125e-05
0.00291634
-1.23714e-05
0.00305143
-2.36805e-05
0.00318138
-2.38121e-05
0.00330218
-2.67666e-05
0.00341129
-1.07902e-05
0.00350523
-3.25283e-06
0.00358412
-7.2171e-06
0.00364548
-1.55851e-05
0.00369363
-1.57876e-05
0.00373077
-2.31866e-05
0.00375617
-1.76572e-05
0.003776
-1.44133e-05
0.00379215
-1.09937e-05
0.00380368
-4.27366e-06
0.00381066
-6.01236e-06
0.00381809
-7.18834e-06
0.00382109
-8.66912e-07
0.00381915
-3.91831e-06
0.00382468
4.41244e-06
0.00382574
-1.01911e-06
0.0038191
-1.17722e-05
0.00382039
4.7676e-06
0.00382798
9.35685e-06
0.00383443
1.33118e-05
0.00383613
1.17647e-05
0.00383416
1.6393e-05
0.00383081
8.0661e-06
0.00382828
3.28963e-06
0.00382727
-7.96075e-06
0.00382736
-1.56738e-05
0.00383098
-1.78414e-05
0.00383747
-3.4951e-05
0.00383706
-4.08255e-05
0.00383023
-5.73769e-05
0.00383021
-6.82364e-05
0.00383211
-9.29402e-05
0.00383167
-0.000126543
0.00383107
-0.000154734
0.00382697
-0.000186381
0.00382045
-0.000223986
0.00380956
-0.000276707
0.00379724
-0.000333616
0.00378472
-0.000395661
0.00376532
-0.000471532
0.00373647
-0.000547177
0.00369696
-0.000632923
-0.000717772
0.00365136
0.00257864
-2.8725e-05
0.00266398
-8.53326e-05
0.0027851
-0.000117074
0.00291699
-0.000147153
0.00305163
-0.000162748
0.00318351
-0.00016138
0.00330621
-0.000152437
0.00341319
-0.000124567
0.00350283
-0.000101
0.00357945
-8.57713e-05
0.00364218
-7.48024e-05
0.00369287
-5.73161e-05
0.00373294
-5.41014e-05
0.00375995
-4.76489e-05
0.00377846
-3.7053e-05
0.00379308
-2.95396e-05
0.00380353
-1.65065e-05
0.00381097
-1.82594e-05
0.00381965
-1.24284e-05
0.00382331
-6.76669e-06
0.00382092
-1.23323e-05
0.00382252
2.84559e-07
0.0038234
-3.58937e-06
0.00382204
-7.79374e-06
0.00382445
8.48619e-06
0.00383003
1.26587e-05
0.00383594
1.70441e-05
0.00383757
1.10594e-05
0.00383294
5.67973e-06
0.00382866
5.00525e-06
0.00382758
2.26268e-06
0.00382627
-1.28402e-05
0.00382524
-1.65129e-05
0.0038287
-1.6031e-05
0.00383634
-2.39358e-05
0.0038373
-3.1735e-05
0.00383104
-5.37543e-05
0.00382743
-6.76531e-05
0.00382529
-9.16479e-05
0.00382524
-0.000114157
0.003826
-0.000142819
0.00381937
-0.000185956
0.00380858
-0.000219277
0.00379627
-0.000269851
0.00378136
-0.000323829
0.00376506
-0.000371845
0.00374302
-0.000446798
0.00371084
-0.00051746
0.00366933
-0.000596251
-0.000667088
0.00362318
0.00257844
-6.95278e-05
0.00266464
-0.000165377
0.00278198
-0.000232114
0.00291263
-0.000278754
0.0030488
-0.000296593
0.00318154
-0.000296
0.00330661
-0.000268992
0.00341157
-0.000234443
0.00349529
-0.000197733
0.00357001
-0.000161341
0.00363159
-0.000129467
0.00367812
-0.000101857
0.00371569
-8.4802e-05
0.00374243
-7.31782e-05
0.00376281
-5.40253e-05
0.00377809
-4.2126e-05
0.00378565
-3.61557e-05
0.0037927
-2.9151e-05
0.00380061
-1.47334e-05
0.00380309
-1.53823e-05
0.0038022
-1.21892e-05
0.00380362
-1.19209e-06
0.00380657
1.46908e-06
0.00380885
3.49266e-06
0.00380943
6.92534e-06
0.00381179
7.71982e-06
0.00381719
1.59879e-05
0.00381811
4.74216e-06
0.00381385
-8.62035e-06
0.00380826
-1.28284e-06
0.00380426
-1.79546e-06
0.00380639
-1.24123e-05
0.00380915
-1.31009e-05
0.00381176
-1.91321e-05
0.00381658
-2.37354e-05
0.0038145
-3.59914e-05
0.00380771
-5.50712e-05
0.00380457
-7.24908e-05
0.00380271
-9.36053e-05
0.00380128
-0.00010942
0.00379955
-0.000137547
0.00379215
-0.000182489
0.00377949
-0.000213066
0.00376521
-0.000263172
0.00374817
-0.000311901
0.00372778
-0.000355898
0.00370375
-0.000417024
0.00367052
-0.000484463
0.00362874
-0.000552019
-0.000609758
0.00358221
0.00258135
-0.000105755
0.00266617
-0.000246949
0.00278174
-0.000349959
0.00291149
-0.000402531
0.00304697
-0.000423939
0.0031787
-0.000415926
0.00329919
-0.000377009
0.00339954
-0.000332267
0.00348097
-0.000281161
0.00355134
-0.000228664
0.00360659
-0.000180456
0.00364888
-0.0001453
0.00368501
-0.00011113
0.00371128
-9.31646e-05
0.0037295
-7.19857e-05
0.00374218
-5.28335e-05
0.00375001
-4.50767e-05
0.00375731
-3.26166e-05
0.00376421
-1.41274e-05
0.00376718
-1.84812e-05
0.00376737
-1.19027e-05
0.00376814
-1.64684e-06
0.00376957
3.30061e-06
0.00377082
5.96343e-06
0.00377263
-3.01136e-06
0.00377509
-5.55763e-07
0.00377545
6.78615e-06
0.0037768
7.82644e-07
0.00377766
-7.99656e-06
0.00377111
-6.54427e-06
0.00376605
-8.13491e-06
0.0037691
-6.79963e-06
0.00377133
-1.44539e-05
0.00377305
-2.2364e-05
0.00377658
-3.1209e-05
0.00377405
-4.34559e-05
0.00376688
-6.12574e-05
0.00376406
-7.50347e-05
0.0037623
-9.45933e-05
0.0037562
-0.00011081
0.00375103
-0.000133981
0.00374505
-0.000169184
0.00373179
-0.00019998
0.00371794
-0.00024534
0.00370191
-0.000288943
0.00367652
-0.000339419
0.00364754
-0.000392349
0.00361487
-0.000449876
0.00357393
-0.000507225
-0.000557608
0.00352566
0.00258554
-0.0001398
0.00267037
-0.000329709
0.0027843
-0.000466918
0.00291025
-0.000530009
0.00304226
-0.000547108
0.00317218
-0.000523987
0.00328852
-0.000476451
0.00338258
-0.000421053
0.00345607
-0.000358219
0.00351979
-0.000287571
0.00357057
-0.000224815
0.00360656
-0.000180074
0.00363825
-0.000132388
0.00366337
-0.000109402
0.00367756
-9.39183e-05
0.00368728
-6.44569e-05
0.00369813
-4.08544e-05
0.00370519
-2.9158e-05
0.00370764
-1.9956e-05
0.00371141
-1.5382e-05
0.00371292
-1.54608e-05
0.00371218
-7.31513e-06
0.00371246
-1.18677e-06
0.00371276
-6.01282e-07
0.00371575
-1.23264e-05
0.00371881
-5.06001e-06
0.00371702
-3.18132e-06
0.00371752
1.26157e-06
0.0037203
-1.91176e-06
0.00371528
-6.42875e-06
0.00370953
-1.0638e-05
0.00371078
-6.24623e-06
0.00371146
-2.16995e-05
0.0037135
-2.44641e-05
0.00371735
-3.49708e-05
0.00371388
-4.72497e-05
0.00370667
-6.18971e-05
0.00370445
-7.55065e-05
0.00370293
-9.20514e-05
0.0036961
-0.000113368
0.0036899
-0.000128565
0.00368116
-0.000158271
0.00366489
-0.000188981
0.00365012
-0.000221402
0.00363344
-0.0002652
0.00360796
-0.000317295
0.00357839
-0.000366034
0.00354488
-0.000412774
0.00350328
-0.000463808
-0.000513413
0.00345248
0.00259029
-0.000174706
0.00267672
-0.000413859
0.00278931
-0.000587678
0.00291178
-0.000663315
0.00303921
-0.000665132
0.00316093
-0.00063468
0.00326731
-0.000570241
0.0033544
-0.000498695
0.00342329
-0.000424676
0.0034786
-0.000339732
0.00351969
-0.000270875
0.00355039
-0.00021191
0.003574
-0.000160908
0.00359367
-0.000130056
0.00361162
-0.000104725
0.00362102
-7.41426e-05
0.00362658
-4.84593e-05
0.00363133
-3.2157e-05
0.00363209
-2.98558e-05
0.00363544
-1.77594e-05
0.00363869
-1.96982e-05
0.00363807
-1.48155e-05
0.00363481
-1.19974e-05
0.00363324
-1.12125e-05
0.00363904
-1.43108e-05
0.00364436
-3.7789e-06
0.00364308
-5.98827e-06
0.00364242
-2.84457e-06
0.00364252
-5.91334e-06
0.00363851
-7.93653e-06
0.00363392
-6.93865e-06
0.00363343
-9.19781e-06
0.00363493
-2.43719e-05
0.00363603
-3.02189e-05
0.00363752
-3.97341e-05
0.00363435
-5.11771e-05
0.00362778
-6.1077e-05
0.00362538
-7.34634e-05
0.00362461
-8.38546e-05
0.00361801
-0.000108373
0.00360901
-0.000122678
0.00359957
-0.000149068
0.00358356
-0.000178008
0.00356556
-0.000204709
0.00354581
-0.000248444
0.00352085
-0.000293279
0.00349245
-0.000330938
0.00345883
-0.000373489
0.00341627
-0.000422589
-0.000474044
0.00336391
0.00259482
-0.00020894
0.00268032