/*--------------------------------*- C++ -*----------------------------------*\
  =========                 |
  \\      /  F ield         | OpenFOAM: The Open Source CFD Toolbox
   \\    /   O peration     | Website:  https://openfoam.org
    \\  /    A nd           | Version:  6
     \\/     M anipulation  |
\*---------------------------------------------------------------------------*/
FoamFile
{
    version     2.0;
    format      ascii;
    class       volScalarField;
    location    "0";
    object      p;
}
// * * * * * * * * * * * * * * * * * * * * * * * * * * * * * * * * * * * * * //

dimensions      [0 2 -2 0 0 0 0];

internalField   nonuniform List<scalar> 
13046
(
0.354997
0.33211
0.376312
0.360601
0.373907
0.34015
0.345608
0.343264
0.379729
0.173683
0.0943303
0.348168
0.348051
0.302831
0.371251
0.220345
0.347105
0.120971
0.378686
0.363926
0.350396
0.213286
0.349196
0.117773
0.356905
0.353774
0.370988
0.33678
0.304654
0.372692
0.363553
0.313484
0.369756
0.366463
0.374999
0.350163
0.364817
0.377275
0.358338
0.362695
0.362749
0.307866
0.361813
0.377433
0.366221
0.361967
0.369313
0.36596
0.345896
0.330468
0.377044
0.333336
0.364198
0.275946
0.340343
0.263458
0.367899
0.196514
0.307872
0.350413
0.299305
0.286569
0.369303
0.355177
0.180549
0.244802
0.318147
0.202041
0.346369
0.327626
0.211108
0.347095
0.179621
0.298971
0.349813
0.378815
0.373515
0.338175
0.352539
0.276984
0.17411
0.352818
0.34945
0.370543
0.352685
0.162723
0.227891
0.22355
0.357921
0.200195
0.354475
0.188225
0.199669
0.304798
0.292202
0.255157
0.245418
0.362668
0.364712
0.359522
0.223457
0.212164
0.362144
0.372652
0.360827
0.376923
0.285828
0.34468
0.363204
0.35385
0.29157
0.103194
0.343814
0.018549
0.350432
0.315599
0.368796
0.295035
0.304361
0.225745
0.358998
0.24649
0.359999
0.159832
0.0735586
0.346848
0.330154
0.26689
0.371203
0.359723
0.363172
0.306338
0.354729
0.199283
0.221644
0.271193
0.225293
0.361212
0.358149
0.305998
0.366975
0.318502
0.336937
0.372292
0.360378
0.342841
0.293433
0.37426
0.298981
0.352527
0.296667
0.269921
0.367082
0.383611
0.323248
0.350094
0.316167
0.262949
0.306079
0.260022
0.367438
0.367542
0.319449
0.320237
0.368927
0.16785
0.348911
0.102344
0.127759
0.344671
0.0370239
0.266237
0.210912
0.360259
0.360667
0.272396
0.360006
0.321355
0.36913
0.32849
0.35235
0.130371
0.17478
0.361307
0.285711
0.354938
0.382064
0.313402
0.345391
0.32615
0.337876
0.37105
0.296718
0.375484
0.332652
0.282976
0.368525
0.217916
0.354762
0.17342
0.358641
0.219533
0.225065
0.191949
0.19212
0.353249
0.326188
0.25236
0.357481
0.335596
0.281558
0.347832
0.173177
0.169544
0.187485
0.353229
0.358761
0.377403
0.358153
0.342425
0.309323
0.37048
0.358947
0.210342
0.231268
0.327969
0.304975
0.378012
0.346916
0.0662398
0.130633
0.358763
0.251821
0.31929
0.208058
0.209585
0.356662
0.285122
0.315884
0.372773
0.324169
0.271752
0.370698
0.261571
0.220078
0.355596
0.248225
0.294396
0.36247
0.346813
0.0658425
0.115395
0.368231
0.358154
0.280714
0.124343
0.341923
-0.0126373
0.374662
0.354451
0.357578
0.294242
0.296064
0.309987
0.31965
0.374997
0.36805
0.346305
0.265926
0.156577
0.334165
0.279878
0.365717
0.247395
0.275137
0.36373
0.279971
0.226279
0.360033
0.367255
0.359745
0.377297
0.274536
0.303774
0.368518
0.336639
0.265821
0.364824
0.330629
0.328813
0.3704
0.351873
0.268616
0.272673
0.290619
0.366862
0.263638
0.358631
0.21851
0.375285
0.35333
0.29605
0.367575
0.253234
0.309339
0.309807
0.231993
0.355805
0.364964
0.337122
0.272131
0.29782
0.292443
0.222137
0.354773
0.216911
0.357716
0.352106
0.141332
0.187773
0.311152
0.257601
0.362454
-0.0436273
0.342021
0.0661894
0.343129
0.371973
0.344131
0.309821
0.29608
0.3698
0.357202
0.233034
0.192424
0.334841
0.251538
0.365977
0.247275
0.218143
0.356961
0.325531
0.374237
0.302069
0.287466
0.369189
0.317886
0.376057
0.237973
0.34855
0.138745
0.332969
0.23859
0.359295
0.293174
0.278282
0.366037
0.312858
0.329348
0.375355
0.290023
0.334945
0.370698
0.356755
0.332099
0.375708
0.360866
0.256604
0.315108
0.206016
0.180223
0.354693
0.252629
0.216918
0.359627
0.332409
0.34426
0.232267
0.287191
0.295643
0.206638
0.190794
0.348497
0.351444
0.342273
-0.0296851
0.0844244
0.137622
0.342371
0.000113437
0.287228
0.302147
0.364271
0.35292
0.211956
0.155267
0.320174
0.31672
0.233611
0.22358
0.356002
0.353576
0.348788
0.145424
0.151696
0.112596
0.34083
-0.0335857
0.348823
0.375378
0.370732
0.103806
-0.00527113
0.343166
0.355264
0.272084
0.3568
0.179496
0.140165
0.352682
-0.0246379
0.343537
0.0186624
0.365857
0.360837
0.318013
0.34414
0.364569
0.374947
0.165778
0.346817
0.0659707
0.33779
0.357888
0.374883
0.354335
0.374937
0.372359
0.364492
0.237666
0.320939
0.332784
0.370287
0.375099
0.346209
0.34566
0.370698
0.339671
0.23798
0.343165
0.349485
0.351117
0.117364
0.115843
0.198398
0.193238
0.187085
0.170926
0.353447
0.349993
0.330786
0.213898
0.360546
0.352181
0.29181
0.240964
0.28883
0.357004
0.0314538
0.343874
0.0490666
0.354169
0.183625
0.186543
0.137006
0.346025
0.0567635
0.343738
-0.0425097
0.0148547
-0.074229
0.342755
0.0450625
0.27446
0.268088
0.362635
0.102682
0.346187
0.107814
0.257263
0.224465
0.361263
0.203807
0.342143
0.0758341
0.342556
0.372147
0.334867
0.160485
0.35096
0.164777
0.24557
0.35785
0.295502
0.269449
0.247852
0.365376
0.344472
-0.126031
-0.0324344
-0.0184392
0.342684
0.0479369
0.349834
0.37592
0.334946
0.137953
0.149232
0.349961
0.34908
0.132052
0.134507
0.21206
0.352319
0.155216
0.348911
0.164611
0.255619
0.348403
0.230253
0.344937
0.207836
0.307068
0.355729
0.346938
0.245359
0.124631
0.346868
0.341719
0.282506
0.271145
0.36341
0.365684
0.3514
0.285044
0.361968
0.329223
0.224392
0.357179
0.260785
0.231077
0.360662
0.16239
0.18602
0.354627
0.358972
0.233788
0.241851
-0.073215
0.342309
0.0631909
0.369173
0.364493
0.370158
0.315345
0.373723
0.322266
0.344394
0.338951
0.354406
0.240434
0.355709
0.261348
-0.0155727
0.343059
0.0221054
0.145619
0.161668
0.351244
0.357135
0.3417
0.27041
0.274012
0.228308
0.358515
0.34923
0.171861
0.26558
0.024151
0.0878826
0.344793
0.0456349
0.0955389
0.345413
0.318045
0.234356
0.360086
0.377059
0.348339
0.30587
0.202478
0.350742
0.133402
0.267508
0.255273
0.365756
0.358232
0.193309
0.257916
0.34382
0.355814
0.262934
0.290194
0.321821
0.369334
0.365716
0.358825
0.299357
0.350579
0.126838
0.187052
0.281512
0.21741
0.358305
0.369713
0.365285
0.321362
0.229838
0.344033
0.105658
0.34876
0.307336
0.369481
0.333554
0.336738
0.377835
0.279237
0.257772
0.364021
0.162656
0.342368
0.0296135
0.175556
0.341956
0.0376404
0.356568
0.185126
0.258636
0.275267
0.327254
0.365077
0.34043
0.00375142
0.142072
0.358639
0.206581
0.24541
0.343204
-0.0601657
-0.00420306
0.02848
-0.092454
0.341699
0.349491
0.13702
0.247536
0.348773
0.0937354
0.15168
0.220167
0.230498
0.348834
0.131131
0.351408
0.152716
0.236389
0.21589
0.359239
0.364038
0.284302
0.22289
0.369743
0.371215
0.329765
0.244336
0.233378
0.361785
0.362347
0.249103
0.242822
0.257363
0.346594
0.132463
0.340588
0.228897
0.354439
0.347797
0.264091
0.35295
0.273253
0.268067
0.367455
0.266869
0.262848
0.366187
0.371673
0.35939
0.332546
0.341133
0.260589
0.367781
0.351644
0.168384
0.159944
0.0847856
0.34555
0.0518433
0.0677119
0.345447
0.0535462
0.358969
0.363275
0.295427
0.0089899
0.344133
0.0640896
0.272101
0.356832
0.19586
0.343713
0.0145685
0.043597
0.360995
0.375248
0.347574
0.32446
0.294835
0.369985
0.329305
0.278421
0.366797
0.347523
0.114092
0.125309
0.264565
0.257657
0.364378
0.344117
0.218454
0.098881
0.31091
0.286724
0.371334
0.372171
0.37443
0.334528
0.113121
0.137519
0.348963
0.358123
0.193218
0.245292
0.156308
0.141454
0.344049
0.343535
0.044313
0.0272588
0.306014
0.31608
0.373835
0.283515
0.277195
0.363162
0.338275
0.341583
0.380679
0.0766855
0.102333
0.0822738
0.346647
0.100038
0.345936
0.292045
0.253499
0.367462
0.136712
0.11984
0.101401
0.0847076
0.348891
0.34733
0.276041
0.296528
0.372178
0.322383
0.310055
0.37197
0.190786
0.343857
0.0659669
0.318016
0.302581
0.372053
0.337257
0.326143
0.374946
0.162192
0.342711
0.0467676
0.316694
0.264064
0.364677
0.307436
0.231835
0.359323
0.348419
0.247494
0.35195
0.234275
0.353929
0.19921
0.343506
-0.104706
-0.0126324
0.308891
0.297008
0.370481
0.20128
0.34602
0.0960165
0.33943
0.233237
0.353673
0.0666171
0.340374
-0.0574728
0.375827
0.369951
0.347241
0.317356
0.348348
0.309362
0.341172
0.342177
0.377709
0.36715
0.374591
0.355763
0.319846
0.365035
0.314859
0.31689
0.316939
0.377573
0.323051
0.31998
0.376699
0.345167
0.0655921
0.075629
0.355704
0.294936
0.359993
0.153365
0.108587
0.349718
0.271505
0.261811
0.253914
0.237332
0.363618
0.360884
0.350952
0.312035
0.364914
0.32811
0.245281
0.355368
0.290906
0.272357
0.369581
0.369966
0.35068
0.368651
0.256241
0.242138
0.362793
0.366019
0.365031
0.333753
0.287721
0.291498
0.371027
0.326155
0.258411
0.356289
0.369197
0.370495
0.34225
0.374414
0.34242
0.370431
0.371157
0.354555
0.376719
0.335187
0.37125
0.320939
0.347517
0.34405
0.292199
0.290273
0.367738
0.364552
0.350911
0.170515
0.260845
0.358822
0.243502
0.314143
0.352499
0.353489
0.15702
0.165022
0.246814
0.243628
0.361374
0.341919
0.258934
0.36915
0.372026
0.359336
0.254744
0.229682
0.361654
0.365861
0.366143
0.306485
0.321694
0.253395
0.357297
0.282528
0.283732
0.186614
0.354412
0.196651
0.355399
0.279788
0.245706
0.363111
0.0835595
-0.0374579
0.341139
0.335259
0.243772
0.354617
0.348865
0.351363
0.341923
0.239288
0.350409
0.248196
0.241863
0.252983
0.361527
0.331673
0.254306
0.357488
0.361897
0.340247
0.256158
0.348707
0.354954
0.346688
0.360162
0.271651
0.266278
0.347795
0.352713
0.255118
0.281036
0.255475
0.365941
0.369202
0.365336
0.336959
0.17948
0.345822
0.0783295
0.359891
0.342955
0.246789
0.326549
0.316699
0.255041
0.247484
0.357826
0.362545
0.346679
0.0961753
0.193463
0.191832
0.345264
0.0752675
0.178004
0.344399
0.0658001
0.272614
0.354779
0.188324
0.336269
0.266733
0.359809
0.147025
0.175594
0.296203
0.150751
0.25228
0.05086
0.211986
0.177791
0.103485
0.242732
0.240077
0.0849069
0.14239
0.242672
0.150027
0.138822
0.15597
0.148972
0.169467
0.214497
0.170153
0.146067
0.253287
0.340584
0.304092
0.181184
0.262389
0.0856758
0.186771
0.135459
0.0928033
0.206598
0.171529
0.159039
0.104037
0.180461
0.288272
0.251102
0.161129
0.214949
0.13658
0.340831
0.116649
0.241221
0.280846
0.132221
0.138435
0.121469
0.0878608
0.115307
0.307761
0.169828
0.141009
0.132837
0.0937848
0.302466
0.216798
0.17487
0.1203
0.235618
0.112852
0.120655
0.304839
0.187362
0.173491
0.218715
0.181793
0.333701
0.252326
0.259814
0.0677578
0.0907574
0.149973
0.227257
0.0826541
0.157137
0.184875
0.0987996
0.23057
0.272723
0.150563
0.1647
0.0921998
0.128278
0.126088
0.237496
0.126737
0.150065
0.148118
0.310788
0.136309
0.234132
0.303309
0.160544
0.140918
0.000878386
0.111771
0.123686
0.140796
0.0644066
0.205854
0.256773
0.289081
0.336922
0.132146
0.143619
0.0856783
0.145401
0.113352
0.286474
0.261049
0.2124
0.110745
0.0868104
0.220405
0.269002
0.142519
0.150116
0.0647772
0.144516
0.156598
0.320432
0.330274
0.230049
0.182867
0.156614
0.0873948
0.322698
0.124228
0.22467
0.0630739
0.306638
0.0944256
0.105203
0.137092
0.271434
0.150173
0.0418796
0.119356
0.21188
0.134941
0.239118
0.221678
0.136705
0.278059
0.134142
0.121966
0.279984
0.11907
0.148292
0.0860063
0.193288
0.159231
0.275968
0.233575
0.136445
0.227659
0.240678
0.293775
0.185801
0.149182
0.13508
0.250504
0.125493
0.214004
0.0900653
0.336248
0.14592
0.28286
0.320156
0.175702
0.326359
0.279813
0.291486
0.1111
0.0593598
0.0859808
0.296719
0.107951
0.0990388
0.120767
0.101125
0.147843
0.135349
0.180878
0.320498
0.23155
0.134809
0.235647
0.128275
0.33814
0.0898793
0.27358
0.135539
0.0547294
0.309056
0.323383
0.131433
0.124541
0.335339
0.188642
0.159986
0.11269
0.227955
0.285226
0.242006
0.125749
0.120245
0.257934
0.187215
0.10715
0.219681
0.115396
0.0980353
0.155655
0.273999
0.0681896
0.171651
0.257478
0.123943
0.062816
0.139937
0.142923
0.158688
0.199397
0.205983
0.129322
0.0952081
0.130516
0.216718
0.239061
0.128646
0.206642
0.135955
0.109216
0.1895
0.137449
0.0507622
0.24509
0.278829
0.177923
0.314326
0.288052
0.340047
0.140255
0.0392187
0.150379
0.136569
0.158384
0.0737782
0.195188
0.30475
0.227521
0.186202
0.121355
0.135413
0.253399
0.16944
0.227505
0.120382
0.156577
0.132589
0.107871
0.12641
0.1354
0.136356
0.103674
0.208218
0.183187
0.136673
0.213897
0.151688
0.145589
0.114345
0.139368
0.114737
0.127121
0.184399
0.0724585
0.0309344
0.162975
0.081018
0.0611453
0.184866
0.0937253
0.0646895
0.27674
0.210005
0.122289
0.249875
0.0974378
0.205431
0.220403
0.117404
0.144642
0.266016
0.150557
0.245546
0.0445657
0.120841
0.279742
0.130213
0.135872
0.0188168
0.0703488
0.0526261
0.0763417
0.130234
0.214191
0.104654
0.0585214
0.107082
0.132771
0.338775
0.139832
0.227102
0.20191
0.102459
0.168672
0.124006
0.0886882
0.200699
0.140205
0.304797
0.235163
0.127264
0.136864
0.171775
0.340915
0.248946
0.289132
0.233589
0.14138
0.178542
0.144626
0.103018
0.0748817
0.123846
0.162015
0.228294
0.116213
0.077528
0.143466
0.166356
0.140085
0.15684
0.265042
0.155036
0.139712
0.30206
0.277049
0.126206
0.203529
0.286406
0.0887347
0.0893215
0.141205
0.105184
0.0924256
0.283888
0.107947
0.161532
0.297366
0.0581791
0.185254
0.131827
0.177123
0.140658
0.124048
0.00398865
0.170468
0.0807386
0.102452
0.134462
0.13104
0.241312
0.304163
0.139392
0.197684
0.171013
0.134376
0.046581
0.260455
0.218844
0.105943
0.075787
0.198106
0.0834703
0.150295
0.131608
0.117099
0.265016
0.301944
0.138382
0.24247
0.336326
0.264984
0.273354
0.293426
0.158635
0.136897
0.0945549
0.337976
0.265456
0.281832
0.118597
0.125357
0.0605437
0.24916
0.160051
0.136296
0.283752
0.226184
0.128961
0.169026
0.129441
0.142119
0.128225
0.135652
0.138667
0.108646
0.145616
0.0738903
0.167956
0.105313
0.228204
0.19007
0.0679164
0.287467
0.298445
0.231907
0.128725
0.188154
0.0917352
0.240599
0.168733
0.0806975
0.284567
0.0668849
0.306592
0.0770042
0.147435
0.170184
0.229525
0.258868
0.141338
0.3196
0.143192
0.267053
0.148343
0.230069
0.138766
0.138971
0.126658
0.272114
0.171959
0.335418
0.21841
0.0728825
0.14216
0.206382
0.0795144
0.129741
0.149987
0.108557
0.310037
0.125649
0.115205
0.249925
0.121775
0.304617
0.329623
0.127601
0.337079
0.31582
0.268283
0.28405
0.191371
0.0865714
0.113408
0.142188
0.258432
0.151614
0.0685012
0.318151
0.10231
0.136726
0.109495
0.291909
0.337501
0.109684
0.264745
0.206318
0.303952
0.172986
0.237618
0.126345
0.320563
0.333224
0.223051
0.115105
0.25983
0.156657
0.201454
0.172457
0.1651
0.204474
0.152513
0.0716002
0.0951067
0.169294
0.213813
0.193065
0.28027
0.105382
0.157098
0.222051
0.0992335
0.296853
0.136601
0.125703
0.298731
0.27296
0.198888
0.324229
0.131524
0.125289
0.241159
0.189957
0.187881
0.145363
0.128229
0.206369
0.2235
0.128842
0.131507
0.193077
0.069767
0.106243
0.305882
0.334286
0.335232
0.176657
0.341361
0.336519
0.313513
0.045651
0.201235
0.200441
0.323723
0.133108
0.141221
0.0880158
0.114349
0.0563034
0.318533
0.147898
0.154169
0.240282
0.222286
0.133639
0.126591
0.335991
0.320105
0.287932
0.230033
0.111527
0.242667
0.21257
0.130168
0.172914
0.0879727
0.110308
0.188988
0.159263
0.14173
0.307293
0.304825
0.0487349
0.270682
0.135885
0.129172
0.158074
0.303809
0.14939
0.229341
0.147536
0.289764
0.132925
0.150361
0.332958
0.0634704
0.0669147
0.131741
0.112602
0.0345653
-0.00996456
0.119104
0.0404286
0.164637
0.0510368
0.0965536
0.158896
0.0996845
0.119836
0.146374
0.0833505
0.00164388
0.316814
0.280351
0.132942
0.0829514
0.285094
0.115257
0.141447
0.330801
0.12528
0.330244
0.157677
0.276637
0.177092
0.102366
0.0917925
0.193263
0.191783
0.164747
0.102063
0.136305
0.0962377
0.114469
0.148229
0.0649278
0.0854378
0.315423
0.132937
0.222849
0.246569
0.133255
0.264985
0.248271
0.0880096
-0.00581418
0.149603
0.075627
0.0376078
0.228807
0.23225
0.132777
0.209716
0.136106
0.333037
0.313732
0.142104
0.131461
0.321955
0.28183
0.201787
0.205554
0.129976
0.336076
0.195932
0.0485117
0.292967
0.264787
0.305782
0.187914
0.113338
0.154839
0.233785
0.202709
-0.042205
0.34157
0.149148
0.127152
0.168256
0.291342
0.333237
0.331944
0.211333
0.181797
0.254065
0.283874
0.301959
0.225548
0.260136
0.113525
0.135321
0.203254
0.0953356
0.113388
0.0668792
0.147736
0.248091
0.0731779
0.18123
0.144137
0.273551
0.331871
0.145465
0.0823143
0.0591573
0.251637
0.123756
0.114109
0.0662473
0.305589
0.187378
0.191639
0.0782713
0.196476
0.116681
0.130853
0.242313
0.244958
0.30821
0.33688
0.120765
0.288615
0.0504865
0.294497
0.303513
0.305315
0.254127
0.108222
0.108612
0.133128
0.0476255
0.193594
0.0616981
0.216368
0.0826289
0.284626
0.13261
0.0559337
0.273334
0.257398
0.157916
0.160514
0.221068
0.304344
0.187081
0.171229
0.0538259
0.264532
0.200167
0.320788
0.0388641
0.159099
0.293999
0.233125
0.32489
0.238434
0.137802
0.0230918
0.0518882
0.158287
0.0739898
0.316395
0.0483623
0.155381
0.159505
0.11029
0.268593
0.0411616
0.302024
0.234004
0.194931
0.0761381
0.230078
0.138449
0.166183
0.152189
0.160939
0.123509
0.110101
0.25028
0.108695
0.339736
0.121571
0.183538
0.216346
0.250605
0.318188
0.123
0.130509
0.120515
0.180154
0.114805
0.311206
0.113069
0.176387
0.128749
0.268318
0.0965117
0.186262
0.08518
0.332888
0.0466684
0.107546
0.151744
0.276131
0.0590618
0.0717946
0.104003
0.0792803
0.303785
0.174476
0.231979
0.27678
0.22228
0.193883
0.332904
0.193467
0.254309
0.213746
0.196203
0.0673907
0.199341
0.146275
0.150527
0.205122
0.123427
0.0720772
0.170948
0.161678
0.106635
0.262485
0.185692
0.239858
0.145739
0.315404
0.161426
0.17383
0.216584
0.0746872
0.109597
0.128046
0.192389
0.191937
0.202731
0.299434
0.249472
0.256345
0.178299
0.289169
0.319652
0.315368
0.203225
0.189895
0.205233
0.0896535
0.328335
0.281006
0.268127
0.159315
0.104979
0.0672127
0.204219
0.232997
0.130605
0.267976
0.28396
0.203242
0.139399
0.203181
0.148258
0.136521
0.159463
0.143161
0.191185
0.0646829
0.194928
0.181868
0.142767
0.0432367
0.19387
0.173609
0.225198
0.136239
0.186083
0.299123
0.309595
0.190025
0.158196
0.257225
0.172996
0.111253
0.110475
0.145654
0.0768975
0.29897
0.170988
0.179792
0.234744
0.226941
0.227866
0.120983
0.337588
0.228541
0.113898
0.16889
0.165546
0.256897
0.295431
0.230383
0.20103
0.0591104
0.102467
0.141224
0.200678
0.175521
0.189349
0.11971
0.306348
0.211969
0.267349
0.284811
0.185497
0.132053
0.194973
0.326671
0.101105
0.0543609
0.195056
0.332458
0.129413
0.14375
0.251053
0.233515
0.271301
0.15979
0.060241
0.198669
0.0796348
0.132451
0.269443
0.150944
0.0934803
0.126974
0.127933
0.207399
0.149209
0.145654
0.292464
0.114078
0.33359
0.269207
0.0839409
0.0324579
0.176928
0.24376
0.282271
0.155463
0.141211
0.136656
0.134814
0.168162
0.336814
0.29467
0.237963
0.15909
0.0664297
0.307502
0.338576
0.306128
0.257729
0.294839
0.191274
0.0872146
0.0445074
0.0541945
0.318051
0.170403
0.124745
0.160239
0.337516
0.130414
0.138701
0.0778873
0.15719
0.109072
0.337494
0.198262
0.24533
0.291193
0.281881
0.132231
0.210355
0.184466
0.244172
0.0935603
0.207294
0.125627
0.310636
0.106589
0.125862
0.118965
0.145051
0.297899
0.135306
0.267602
0.286881
0.293486
0.0897731
0.180645
0.141422
0.141628
0.305141
0.187287
0.201759
0.195456
0.0560219
0.161616
0.312462
0.214075
0.307751
0.0489361
0.108317
0.129316
0.315133
0.135651
0.173507
0.0983047
0.122116
0.162873
0.318202
0.17266
0.143867
0.077588
0.335783
0.327322
0.0560483
0.310599
0.134577
0.0911804
0.109769
0.169395
0.0776698
0.222197
0.157027
0.128314
0.148763
0.296897
0.159631
0.26708
0.161608
0.100685
0.152423
0.0482673
0.06439
0.151122
0.160608
0.206441
0.102578
0.158749
0.287909
0.212538
0.128535
0.0985567
0.297886
0.154299
0.170398
0.34463
0.198133
0.126151
0.149183
0.122109
0.320298
0.149996
0.160068
0.205446
0.0757879
0.300654
0.110408
0.290573
0.180682
0.245999
0.101009
0.269672
0.152502
0.0858614
0.107333
0.181775
0.296956
0.027922
0.135439
0.114167
0.31781
0.338448
0.13262
0.126536
0.220285
0.323787
0.164344
0.3025
0.28057
0.266312
0.249164
0.1852
0.240091
0.233045
0.307078
0.174845
0.188744
0.133806
0.143256
0.178954
0.114206
0.321052
0.120386
0.30284
0.172181
0.315264
0.122292
0.325922
0.243353
0.293985
0.316499
0.299165
0.34342
0.137808
0.287146
0.183212
0.129986
0.137558
0.102023
0.307643
0.121158
0.195407
0.206717
0.147243
0.214109
0.117217
0.310999
0.167969
0.260135
0.0449079
0.123329
0.134946
0.338634
0.137258
0.218348
0.146537
0.136691
0.0929383
0.152284
0.132232
0.260975
0.311303
0.0755876
0.190766
0.131638
0.12579
0.27234
0.134673
0.142377
0.322497
0.0555616
0.200644
0.233673
0.296743
0.3307
0.145031
0.127734
0.0836208
0.150545
0.140754
0.131073
0.261968
0.131033
0.0918229
0.143961
0.181949
0.144065
0.146623
0.113935
0.177221
0.0808107
0.253902
0.244903
0.152435
0.257963
0.107818
0.0706708
0.132756
0.0612087
0.323798
0.138157
0.129746
0.120132
0.285395
0.306061
0.18078
0.256316
0.144818
0.111966
0.189061
0.132518
0.133586
0.30666
0.205871
0.239371
0.32714
0.26149
0.186061
0.317094
0.0720389
0.1832
0.179348
0.203853
0.166529
0.316885
0.127747
0.198527
0.165911
0.145913
0.114918
0.131187
0.243546
0.274136
0.289324
0.188524
0.193144
0.317238
0.27213
0.149735
0.20758
0.0909193
0.133609
0.265483
0.0756565
0.284078
0.12536
0.291906
0.340344
0.309707
0.116938
0.293723
0.28192
0.0942296
0.317353
0.143659
0.313487
0.261638
0.129647
0.0983048
0.212032
0.137963
0.160621
0.141077
0.276372
0.153689
0.319576
0.103452
0.143323
0.139811
0.10422
0.129357
0.275695
0.333024
0.100221
0.264529
0.173294
0.198792
0.162925
0.22056
0.301654
0.264836
0.125362
0.295659
0.271368
0.32993
0.104483
0.102321
0.142294
0.25376
0.324695
0.276627
0.161031
0.326145
0.176428
0.0754355
0.0970297
0.029278
0.181739
0.0875537
0.329968
0.334148
0.191771
0.344032
0.266749
0.175277
0.322856
0.0869187
0.316048
0.131727
0.306242
0.148068
0.109451
0.251709
0.188892
0.313723
0.301074
0.304599
0.1207
0.118973
0.0619749
0.290357
0.263679
0.134377
0.193355
0.265214
0.0524861
0.124277
0.117622
0.123256
0.199715
0.121596
0.179311
0.258642
0.177467
0.18879
0.24606
0.139837
0.158278
0.197879
0.178417
0.140182
0.288158
0.312949
0.133608
0.261214
0.0489097
0.124286
0.292941
0.255354
0.1153
0.308672
0.0920214
0.244818
0.164869
0.172686
0.293278
0.149488
0.25407
0.258332
0.229347
0.339231
0.231941
0.0819512
0.211527
0.180392
0.253485
0.335471
0.230298
0.179489
0.133651
0.174056
0.294622
0.100292
0.286796
0.125963
0.213815
0.261507
0.2465
0.166105
0.293243
0.325724
0.156282
0.141954
0.185945
0.118415
0.0855643
0.181447
0.257263
0.109339
0.0790273
0.136504
0.0794344
0.241224
0.176634
0.255965
0.14147
0.306427
0.179169
0.281725
0.331478
0.115498
0.299864
0.161504
0.18548
0.194527
0.292835
0.140171
0.157754
0.197209
0.110727
0.143593
0.109063
0.0904269
0.0488975
0.325437
0.335574
0.107577
0.142093
0.250143
0.0688443
0.133474
0.132439
0.234137
0.246612
0.0649204
0.0473847
0.300956
0.144912
0.206216
0.142865
0.0787526
0.0965253
0.212758
0.281405
0.209858
0.069737
0.30819
0.279978
0.117555
0.200626
0.128658
0.330288
0.138227
0.167967
0.0917566
0.221014
0.313995
0.205926
0.209228
0.129759
0.179152
0.214036
0.323638
0.344378
0.13987
0.327502
0.134588
0.187699
0.190292
0.149919
0.137784
0.29137
0.165651
0.197026
0.12307
0.0914717
0.173293
0.112184
0.234435
0.306797
0.114534
0.130061
0.186301
0.139007
0.142926
0.044181
0.150082
0.295907
0.0844928
0.108503
0.254281
0.183594
0.165213
0.219032
0.278493
0.122214
0.128272
0.275235
0.155777
0.128549
0.184426
0.291958
0.2198
0.187596
0.14253
0.117895
0.135723
0.324584
0.276407
0.333747
0.162665
0.230005
0.0993875
0.174319
0.282518
0.0733861
0.0765636
0.245122
0.278919
0.0724336
0.143906
0.143401
0.122002
0.142469
0.343271
0.172249
0.142283
0.208378
0.133984
0.250185
0.216336
0.0951066
0.14975
0.263715
0.177033
0.326616
0.0823631
0.12462
0.230356
0.21256
0.148223
0.20378
0.112697
0.330061
0.313987
0.231679
0.294769
0.1133
0.288246
0.215374
0.23297
0.317318
0.0692841
0.141196
0.33329
0.217362
0.0632028
0.107308
0.282819
0.331198
0.170672
0.251005
0.141051
0.0866763
0.122629
0.0580811
0.281872
0.12643
0.171027
0.318682
0.114158
0.125676
0.132528
0.194224
0.145729
0.117054
0.134288
0.0953201
0.178625
0.263246
0.315549
0.248276
0.157628
0.138514
0.0585827
0.127429
0.212322
0.19433
0.243801
0.253942
0.138418
0.157459
0.274641
0.281383
0.332825
0.294001
0.319904
0.175543
0.0877198
0.11952
0.102841
0.324189
0.188204
0.132434
0.316037
0.0930589
0.266893
0.245986
0.147982
0.145486
0.142678
0.119115
0.279576
0.135849
0.234301
0.169502
0.313366
0.197559
0.338082
0.11415
0.168512
0.104636
0.0443793
0.145392
0.260276
0.122938
0.0453799
0.186291
0.313535
0.254325
0.119121
0.088363
0.125889
0.0912381
0.146884
0.0927562
0.148711
0.103409
0.246311
0.107174
0.144006
0.305892
0.18529
0.236607
0.272809
0.138619
0.169301
0.117426
0.269005
0.127803
0.155573
0.171998
0.104376
0.0786262
0.140138
0.138459
0.253246
0.3342
0.286579
0.191486
0.239
0.0747761
0.327489
0.209917
0.260512
0.145999
0.245066
0.111143
0.145293
0.266222
0.31416
0.258552
0.191508
0.136894
0.33743
0.162369
0.275501
0.322301
0.227572
0.156041
0.0722541
0.272974
0.212552
0.0998644
0.218313
0.204894
0.310704
0.125343
0.319661
0.333783
0.148068
0.116244
0.32085
0.092462
0.102854
0.147741
0.102541
0.150324
0.109481
0.0850574
0.167246
0.146745
0.123801
0.128267
0.193726
0.0999745
0.117944
0.213261
0.171544
0.0834503
0.306725
0.335751
0.325155
0.141475
0.0734326
0.339707
0.0857195
0.166653
0.138031
0.127608
0.145317
0.244549
0.134097
0.123221
0.0764598
0.0732063
0.0994478
0.133704
0.069046
0.163595
0.184602
0.15512
0.313874
0.191233
0.234751
0.166431
0.276964
0.117408
0.133862
0.346714
0.155044
0.208441
0.0877793
0.228384
0.336132
0.129151
0.219621
0.209989
0.101398
0.138487
0.110926
0.108218
0.248261
0.104732
0.160574
0.1238
0.148355
0.127053
0.112356
0.167138
0.130402
0.124942
0.334802
0.164202
0.162461
0.186881
0.312809
0.138049
0.0751135
0.269651
0.0929118
0.147494
0.143946
0.187191
0.113287
0.165593
0.189038
0.330765
0.284368
0.0783656
0.125352
0.0730391
0.14022
0.060833
0.111536
0.156262
0.1158
0.156016
0.214135
0.343359
0.138538
0.241869
0.186284
0.324208
0.12928
0.336198
0.206443
0.095323
0.216394
0.248702
0.125529
0.28747
0.144604
0.290397
0.122571
0.046503
0.159106
0.341962
0.331694
0.247307
0.221535
0.242506
0.0738058
0.109985
0.247313
0.337571
0.0617422
0.18187
0.145679
0.117638
0.154018
0.126707
0.0990477
0.127163
0.107468
0.144307
0.127061
0.160268
0.337843
0.280337
0.0607297
0.262403
0.119419
0.109111
0.269222
0.119616
0.146085
0.236712
0.0755937
0.117993
0.169455
0.286172
0.0999534
0.121107
0.141272
0.210322
0.1023
0.31212
0.0713325
0.130582
0.140069
0.117783
0.225494
0.212762
0.314327
0.140044
0.260144
0.183236
0.208316
0.138379
0.227632
0.104829
0.094615
0.0488527
0.214865
0.154138
0.139598
0.300243
0.17589
0.211693
0.22575
0.12241
0.107471
0.136287
0.210709
0.145165
0.341618
0.0891083
0.0700515
0.150238
0.123672
0.143374
0.142925
0.247373
0.143338
0.160948
0.101641
0.147174
0.155863
0.11346
0.33882
0.327523
0.106656
0.125233
0.281097
0.199604
0.131486
0.088938
0.132964
0.0993885
0.182485
0.303968
0.132717
0.0770485
0.212884
0.168122
0.0723057
0.102167
0.170854
0.236325
0.342765
0.0960326
0.0709451
0.19421
0.281384
0.136097
0.195509
0.136856
0.143613
0.134348
0.209457
0.150154
0.142745
0.261862
0.139229
0.052673
0.179812
0.141255
0.266983
0.338332
0.147791
0.129494
0.129809
0.13248
0.0985813
0.131743
0.101448
0.316619
0.273894
0.234441
0.156133
0.0790628
0.258731
0.327448
0.116105
0.176605
0.11735
0.0493044
0.165909
0.126542
0.0432102
0.138469
0.234962
0.0887705
0.0728908
0.104275
0.281407
0.0833655
0.268091
0.183029
0.131573
0.125844
0.122199
0.266975
0.0579197
0.134675
0.145214
0.0939475
0.194191
0.250037
0.193602
0.155483
0.251117
0.100453
0.105137
0.30183
0.139862
0.298375
0.19596
0.133179
0.210762
0.28687
0.167727
0.0729194
0.311241
0.135856
0.140718
0.28815
0.128734
0.319892
0.129836
0.141592
0.0878101
0.145944
0.108778
0.169446
0.0974661
0.054496
0.0920001
0.102542
0.0525095
0.304026
0.102619
0.143165
0.197595
0.172329
0.328989
0.33168
0.11338
0.19037
0.27047
0.105198
0.304841
0.0598612
0.128595
0.18397
0.114621
0.273698
0.118943
0.125942
0.147317
0.114737
0.142803
0.0543999
0.289823
0.00435914
0.320061
0.239467
0.0997047
0.0745154
0.0987847
0.344374
0.250761
0.217274
0.162184
0.196672
0.14394
0.287602
0.258937
0.123951
0.214008
0.322978
0.147984
0.174174
0.228481
0.0674308
0.104652
0.279156
0.135082
0.165235
0.320629
0.0980105
0.0610391
0.118666
0.166375
0.144957
0.33363
0.125683
0.0786003
0.11737
0.163441
0.127641
0.296693
0.187331
0.102834
0.115655
0.113814
0.128222
0.15418
0.210731
0.199269
0.118925
0.296309
0.127118
0.285074
0.119322
0.0991386
0.156446
0.292228
0.326466
0.276801
0.159088
0.149926
0.264605
0.328999
0.0901272
0.305891
0.0965977
0.230634
0.207
0.295151
0.159653
0.285196
0.311652
0.147212
0.150916
0.144425
0.187102
0.0978173
0.121555
0.12125
0.243554
0.274596
0.0907168
0.311321
0.162891
0.253297
0.158599
0.109178
0.271199
0.259001
0.12308
0.153323
0.107154
0.332479
0.245229
0.338816
0.0903393
0.0971804
0.144674
0.278409
0.216719
0.304888
0.200851
0.330958
0.120196
0.159066
0.173992
0.127029
0.195607
0.102381
0.26532
0.166895
0.183569
0.30686
0.0845079
0.092642
0.0594281
0.222277
0.291488
0.147042
0.227423
0.10827
0.0779188
0.167362
0.137671
0.132621
0.300475
0.198223
0.120605
0.149955
0.210789
0.316953
0.223015
0.134546
0.289593
0.189856
0.320936
0.165801
0.232516
0.133335
0.0819733
0.340796
0.115082
0.213103
0.18889
0.302898
0.227929
0.15354
0.148604
0.336989
0.151808
0.10414
0.247844
0.32863
0.242751
0.21549
0.0848732
0.0486339
0.173524
0.121274
0.136974
0.173929
0.118641
0.314627
0.331811
0.309561
0.124286
0.131086
0.134692
0.141034
0.234696
0.0917897
0.232329
0.315726
0.0897869
0.123288
0.116731
0.282158
0.218247
0.130075
0.122979
0.238813
0.137455
0.100469
0.0906948
0.343272
0.057365
0.262694
0.228846
0.143391
0.321265
0.181444
0.343848
0.0699928
0.126925
0.186776
0.309658
0.143084
0.30433
0.181913
0.0566318
0.150545
0.121739
0.14207
0.0513237
0.26661
0.12409
0.119704
0.0709789
0.154655
0.302012
0.0222978
0.128032
0.290363
0.170179
0.286042
0.0578408
0.140297
0.138093
0.140922
0.100585
0.0858166
0.136813
0.0286115
0.133011
0.131491
0.25497
0.201502
0.292476
0.127354
0.133186
0.0873357
0.198555
0.0305113
0.136346
0.339263
0.176808
0.141553