/*--------------------------------*- C++ -*----------------------------------*\
  =========                 |
  \\      /  F ield         | OpenFOAM: The Open Source CFD Toolbox
   \\    /   O peration     | Website:  https://openfoam.org
    \\  /    A nd           | Version:  6
     \\/     M anipulation  |
\*---------------------------------------------------------------------------*/
FoamFile
{
    version     2.0;
    format      ascii;
    class       volVectorField;
    location    "0";
    object      uRec;
}
// * * * * * * * * * * * * * * * * * * * * * * * * * * * * * * * * * * * * * //

dimensions      [0 1 -1 0 0 0 0];

internalField   nonuniform List<vector> 
10000
(
(9.34106e-06 1.11636e-05 0)
(6.73419e-05 -3.18484e-06 0)
(0.000174801 -1.72163e-05 0)
(0.000339827 -2.77407e-05 0)
(0.000553095 -3.55e-05 0)
(0.000801842 -4.06579e-05 0)
(0.0010722 -4.28938e-05 0)
(0.00134921 -4.19671e-05 0)
(0.00161904 -3.81475e-05 0)
(0.00187014 -3.2089e-05 0)
(0.00209369 -2.47297e-05 0)
(0.00228376 -1.70106e-05 0)
(0.00243734 -9.671e-06 0)
(0.00255411 -3.27615e-06 0)
(0.00263592 1.73199e-06 0)
(0.00268777 4.82511e-06 0)
(0.00270902 4.77825e-06 0)
(0.00272672 1.38014e-05 0)
(0.00269062 1.97484e-05 0)
(0.00264681 1.50069e-05 0)
(0.00259122 1.47982e-05 0)
(0.00252543 1.49689e-05 0)
(0.00245115 1.48911e-05 0)
(0.00237037 1.4636e-05 0)
(0.00228544 1.40194e-05 0)
(0.00219782 1.32605e-05 0)
(0.00210943 1.24729e-05 0)
(0.00202183 1.15058e-05 0)
(0.00193548 1.05808e-05 0)
(0.00185145 9.84039e-06 0)
(0.00177067 9.02268e-06 0)
(0.00169285 8.16651e-06 0)
(0.00161811 7.5804e-06 0)
(0.0015472 7.1102e-06 0)
(0.00147991 6.48962e-06 0)
(0.00141557 5.90519e-06 0)
(0.0013544 5.5864e-06 0)
(0.00129671 5.34405e-06 0)
(0.00124205 4.92796e-06 0)
(0.00118982 4.51001e-06 0)
(0.00114018 4.31099e-06 0)
(0.0010934 4.18811e-06 0)
(0.0010491 3.93818e-06 0)
(0.0010068 3.62577e-06 0)
(0.000966581 3.41952e-06 0)
(0.000928662 3.32331e-06 0)
(0.000892945 3.18201e-06 0)
(0.000859091 2.94419e-06 0)
(0.000827005 2.72931e-06 0)
(0.000796907 2.60619e-06 0)
(0.000768897 2.50758e-06 0)
(0.000742819 2.35213e-06 0)
(0.000718488 2.13033e-06 0)
(0.000695922 1.91153e-06 0)
(0.000675313 1.75423e-06 0)
(0.000656771 1.61805e-06 0)
(0.000640241 1.43937e-06 0)
(0.000625545 1.22111e-06 0)
(0.000612656 9.35438e-07 0)
(0.000601971 8.66685e-07 0)
(0.000592403 1.0461e-06 0)
(0.000584119 1.00867e-06 0)
(0.000576727 8.76774e-07 0)
(0.000569768 8.07221e-07 0)
(0.000563589 6.02759e-07 0)
(0.000558614 3.2749e-07 0)
(0.000555376 1.19883e-07 0)
(0.000553761 -2.57132e-08 0)
(0.000553459 -1.18833e-07 0)
(0.00055416 -1.941e-07 0)
(0.000555631 -2.62699e-07 0)
(0.00055774 -3.03918e-07 0)
(0.000560454 -3.03741e-07 0)
(0.000563791 -3.00599e-07 0)
(0.000567769 -3.51073e-07 0)
(0.000572469 -4.58425e-07 0)
(0.000578152 -6.12976e-07 0)
(0.000585276 -8.60563e-07 0)
(0.000594437 -1.25337e-06 0)
(0.00060639 -1.80751e-06 0)
(0.000622142 -2.561e-06 0)
(0.000642953 -3.60119e-06 0)
(0.000670282 -5.01472e-06 0)
(0.000705828 -6.85903e-06 0)
(0.000751521 -9.19662e-06 0)
(0.000809313 -1.2076e-05 0)
(0.000880887 -1.54675e-05 0)
(0.000967335 -1.9257e-05 0)
(0.00106872 -2.32522e-05 0)
(0.00118337 -2.71309e-05 0)
(0.00130707 -3.03584e-05 0)
(0.00143223 -3.21419e-05 0)
(0.00154724 -3.14677e-05 0)
(0.00163437 -2.63438e-05 0)
(0.00166983 -1.5073e-05 0)
(0.00162014 5.56671e-06 0)
(0.00144458 3.88221e-05 0)
(0.0011073 8.31564e-05 0)
(0.000620364 0.000124058 0)
(0.00012626 0.00011898 0)
(1.43301e-05 -2.88884e-05 0)
(0.000165187 -0.000147902 0)
(0.000447443 -0.000263884 0)
(0.000847316 -0.000362055 0)
(0.00134531 -0.000438994 0)
(0.00191613 -0.000491556 0)
(0.00253245 -0.000518019 0)
(0.00316602 -0.000518641 0)
(0.00379073 -0.00049595 0)
(0.00438453 -0.000454152 0)
(0.00492996 -0.000398519 0)
(0.00541421 -0.00033441 0)
(0.00582894 -0.000266709 0)
(0.00616987 -0.000199731 0)
(0.00643634 -0.000137185 0)
(0.00662967 -8.19843e-05 0)
(0.00676138 -3.77448e-05 0)
(0.00680569 3.99203e-06 0)
(0.00686845 5.43511e-05 0)
(0.00680705 9.17594e-05 0)
(0.00673473 0.000111711 0)
(0.00662584 0.000130451 0)
(0.0064869 0.000145618 0)
(0.00632327 0.000157081 0)
(0.00614076 0.000164737 0)
(0.00594429 0.000168724 0)
(0.00573843 0.000169827 0)
(0.00552756 0.000168579 0)
(0.00531475 0.000165368 0)
(0.00510269 0.000160791 0)
(0.00489398 0.00015533 0)
(0.00469011 0.000149217 0)
(0.00449206 0.000142758 0)
(0.00430098 0.000136205 0)
(0.00411751 0.00012966 0)
(0.00394168 0.000123245 0)
(0.00377362 0.000117075 0)
(0.00361341 0.000111197 0)
(0.00346083 0.000105534 0)
(0.00331556 0.000100141 0)
(0.00317742 9.51034e-05 0)
(0.00304624 9.03113e-05 0)
(0.00292161 8.5661e-05 0)
(0.00280316 8.12169e-05 0)
(0.00269083 7.70056e-05 0)
(0.00258455 7.29524e-05 0)
(0.00248401 6.8954e-05 0)
(0.00238895 6.49858e-05 0)
(0.00229933 6.11422e-05 0)
(0.00221523 5.74368e-05 0)
(0.00213663 5.37339e-05 0)
(0.00206331 4.99626e-05 0)
(0.00199512 4.61732e-05 0)
(0.00193216 4.24339e-05 0)
(0.00187457 3.87424e-05 0)
(0.00182236 3.5014e-05 0)
(0.00177533 3.11666e-05 0)
(0.00173336 2.72025e-05 0)
(0.00169704 2.33791e-05 0)
(0.00166506 1.9903e-05 0)
(0.00163949 1.70052e-05 0)
(0.00161845 1.56516e-05 0)
(0.00159785 1.45366e-05 0)
(0.00158009 1.28217e-05 0)
(0.00156372 1.09325e-05 0)
(0.00154937 8.11469e-06 0)
(0.00153914 4.94448e-06 0)
(0.00153298 2.16341e-06 0)
(0.00153035 -1.56877e-07 0)
(0.00153062 -2.03406e-06 0)
(0.00153331 -3.54709e-06 0)
(0.00153808 -4.79326e-06 0)
(0.0015447 -5.88363e-06 0)
(0.00155306 -6.99607e-06 0)
(0.00156323 -8.36164e-06 0)
(0.00157549 -1.01788e-05 0)
(0.00159033 -1.26252e-05 0)
(0.00160862 -1.5975e-05 0)
(0.00163162 -2.05952e-05 0)
(0.00166093 -2.68574e-05 0)
(0.0016985 -3.51667e-05 0)
(0.00174674 -4.6001e-05 0)
(0.00180843 -5.98223e-05 0)
(0.00188663 -7.69411e-05 0)
(0.00198452 -9.74497e-05 0)
(0.00210506 -0.0001211 0)
(0.00225034 -0.000147032 0)
(0.00242073 -0.000173567 0)
(0.00261402 -0.000198027 0)
(0.00282415 -0.000216495 0)
(0.00303968 -0.000223499 0)
(0.0032421 -0.000211831 0)
(0.00340523 -0.000172481 0)
(0.00348919 -9.57441e-05 0)
(0.00345447 3.41284e-05 0)
(0.00323132 0.000231118 0)
(0.00276404 0.000491559 0)
(0.00201764 0.000769026 0)
(0.00105907 0.000920923 0)
(0.000163406 0.000637307 0)
(1.68843e-05 -0.000135873 0)
(0.000233281 -0.000420646 0)
(0.000633206 -0.000685687 0)
(0.00118691 -0.000912378 0)
(0.00186515 -0.00109062 0)
(0.00263444 -0.00121282 0)
(0.00346045 -0.0012765 0)
(0.00430993 -0.001284 0)
(0.00515298 -0.00124146 0)
(0.00596416 -0.0011576 0)
(0.00672297 -0.00104229 0)
(0.00741385 -0.000905549 0)
(0.00802559 -0.000756624 0)
(0.00855093 -0.000603774 0)
(0.00898618 -0.000454084 0)
(0.00933014 -0.000313273 0)
(0.00958449 -0.000185224 0)
(0.00975898 -7.74649e-05 0)
(0.00983686 3.52328e-05 0)
(0.00988296 0.000132369 0)
(0.00984999 0.000193697 0)
(0.009766 0.000256791 0)
(0.00962913 0.000311484 0)
(0.00944966 0.000354717 0)
(0.00923516 0.000387272 0)
(0.00899264 0.000409767 0)
(0.00872903 0.000423292 0)
(0.00845014 0.000429535 0)
(0.00816075 0.000429777 0)
(0.00786601 0.000425011 0)
(0.00757009 0.000416459 0)
(0.00727556 0.000405138 0)
(0.00698508 0.000391724 0)
(0.00670148 0.000376964 0)
(0.00642611 0.000361518 0)
(0.00615952 0.000345735 0)
(0.00590281 0.000329838 0)
(0.00565691 0.000314234 0)
(0.0054217 0.000299165 0)
(0.00519683 0.000284579 0)
(0.00498241 0.000270439 0)
(0.00477856 0.000256872 0)
(0.00458486 0.000243925 0)
(0.00440071 0.000231516 0)
(0.00422587 0.000219479 0)
(0.00406036 0.000207721 0)
(0.00390394 0.000196299 0)
(0.0037562 0.000185201 0)
(0.00361694 0.000174306 0)
(0.00348612 0.000163514 0)
(0.00336374 0.000152774 0)
(0.00324965 0.000142097 0)
(0.00314367 0.000131525 0)
(0.00304572 0.000121041 0)
(0.00295585 0.000110563 0)
(0.00287406 0.000100031 0)
(0.00280014 8.94229e-05 0)
(0.00273396 7.87424e-05 0)
(0.00267505 6.82101e-05 0)
(0.00262501 5.80736e-05 0)
(0.0025816 4.8722e-05 0)
(0.00254472 4.12479e-05 0)
(0.00252103 3.75667e-05 0)
(0.00249397 3.49126e-05 0)
(0.00247131 3.08417e-05 0)
(0.00244863 2.48098e-05 0)
(0.00242936 1.6677e-05 0)
(0.00241671 8.75642e-06 0)
(0.00240953 2.1458e-06 0)
(0.002407 -3.29301e-06 0)
(0.00240839 -7.73388e-06 0)
(0.00241315 -1.15002e-05 0)
(0.0024209 -1.49363e-05 0)
(0.0024314 -1.83825e-05 0)
(0.00244464 -2.2265e-05 0)
(0.00246095 -2.70946e-05 0)
(0.00248091 -3.33925e-05 0)
(0.00250548 -4.17456e-05 0)
(0.00253605 -5.29011e-05 0)
(0.00257445 -6.77213e-05 0)
(0.0026229 -8.709e-05 0)
(0.002684 -0.000111882 0)
(0.00276072 -0.000142871 0)
(0.0028562 -0.000180491 0)
(0.00297344 -0.000224563 0)
(0.00311494 -0.000274016 0)
(0.00328186 -0.000326435 0)
(0.00347307 -0.000377541 0)
(0.00368397 -0.000420733 0)
(0.00390513 -0.000446668 0)
(0.00412059 -0.000442824 0)
(0.00430611 -0.000393181 0)
(0.00442722 -0.000278417 0)
(0.00444095 -7.71024e-05 0)
(0.00428275 0.00023806 0)
(0.00389622 0.000681896 0)
(0.00323015 0.00122773 0)
(0.00227472 0.00175898 0)
(0.00114049 0.00197703 0)
(0.000152298 0.00127925 0)
(1.82063e-05 -0.00027038 0)
(0.000275552 -0.000769174 0)
(0.000750317 -0.00121554 0)
(0.00140119 -0.00159287 0)
(0.00219103 -0.00188715 0)
(0.00308023 -0.00208853 0)
(0.00403006 -0.00219512 0)
(0.00500512 -0.00221241 0)
(0.00597462 -0.00215123 0)
(0.0069129 -0.0020254 0)
(0.0077994 -0.00184966 0)
(0.00861839 -0.00163846 0)
(0.00935829 -0.00140517 0)
(0.0100111 -0.00116152 0)
(0.0105719 -0.000917647 0)
(0.0110381 -0.000682016 0)
(0.0114108 -0.000461307 0)
(0.0116924 -0.000260524 0)
(0.011867 -8.97431e-05 0)
(0.0120581 7.41147e-05 0)
(0.0120485 0.000235876 0)
(0.0120152 0.000356952 0)
(0.0119157 0.000463679 0)
(0.0117618 0.000551816 0)
(0.0115621 0.000621748 0)
(0.0113226 0.00067491 0)
(0.0110505 0.000712607 0)
(0.0107529 0.000736655 0)
(0.0104352 0.00074912 0)
(0.0101029 0.000751734 0)
(0.00976192 0.000746131 0)
(0.00941623 0.000733998 0)
(0.0090695 0.000716793 0)
(0.00872554 0.000695731 0)
(0.00838705 0.00067192 0)
(0.00805581 0.000646352 0)
(0.00773385 0.000619793 0)
(0.00742278 0.000592824 0)
(0.00712316 0.00056589 0)
(0.00683533 0.000539331 0)
(0.00655995 0.000513376 0)
(0.0062974 0.000488208 0)
(0.00604736 0.000463846 0)
(0.00580937 0.000440203 0)
(0.0055834 0.000417245 0)
(0.00536952 0.000394963 0)
(0.00516744 0.000373301 0)
(0.00497659 0.000352122 0)
(0.00479671 0.00033127 0)
(0.00462781 0.000310664 0)
(0.00446986 0.000290304 0)
(0.0043226 0.000270178 0)
(0.00418573 0.000250223 0)
(0.00405909 0.000230369 0)
(0.00394269 0.000210591 0)
(0.0038365 0.00019093 0)
(0.00374025 0.000171429 0)
(0.0036536 0.000152084 0)
(0.00357635 0.000132767 0)
(0.00350777 0.000113714 0)
(0.00344956 9.55863e-05 0)
(0.00340197 7.88926e-05 0)
(0.00335804 6.58265e-05 0)
(0.00333584 5.99132e-05 0)
(0.00330899 5.6875e-05 0)
(0.00328343 5.013e-05 0)
(0.00325539 3.71158e-05 0)
(0.00323361 2.21369e-05 0)
(0.00321972 9.38301e-06 0)
(0.0032118 -1.09806e-06 0)
(0.003209 -9.80817e-06 0)
(0.00321058 -1.72383e-05 0)
(0.00321606 -2.39717e-05 0)
(0.00322507 -3.06123e-05 0)
(0.00323746 -3.7821e-05 0)
(0.00325341 -4.63839e-05 0)
(0.00327345 -5.71928e-05 0)
(0.00329844 -7.1226e-05 0)
(0.00332959 -8.96122e-05 0)
(0.00336854 -0.000113641 0)
(0.00341728 -0.000144624 0)
(0.0034781 -0.000183758 0)
(0.00355353 -0.000231985 0)
(0.00364612 -0.000289687 0)
(0.00375813 -0.000356226 0)
(0.00389106 -0.000429404 0)
(0.00404492 -0.00050485 0)
(0.0042172 -0.000575254 0)
(0.00440161 -0.000629619 0)
(0.00458674 -0.000652587 0)
(0.00475445 -0.000623929 0)
(0.00487793 -0.000518215 0)
(0.00492028 -0.000306078 0)
(0.00483523 4.83626e-05 0)
(0.00456356 0.000575759 0)
(0.00405439 0.00128122 0)
(0.00327345 0.00210678 0)
(0.00223516 0.00285582 0)
(0.00107463 0.00307361 0)
(0.000127384 0.00190087 0)
(1.82723e-05 -0.000419182 0)
(0.000300073 -0.00116206 0)
(0.000822579 -0.00181183 0)
(0.00153523 -0.00235326 0)
(0.00239405 -0.00277038 0)
(0.00335447 -0.00305352 0)
(0.00437461 -0.00320343 0)
(0.0054178 -0.0032303 0)
(0.0064534 -0.00315049 0)
(0.00745672 -0.00298327 0)
(0.00840847 -0.00274848 0)
(0.00929404 -0.00246488 0)
(0.0101029 -0.00214965 0)
(0.0108276 -0.00181759 0)
(0.0114635 -0.00148127 0)
(0.0120078 -0.00115141 0)
(0.0124593 -0.000836182 0)
(0.0128163 -0.00054397 0)
(0.0130919 -0.000287444 0)
(0.0132148 -2.95685e-05 0)
(0.0133889 0.000198426 0)
(0.0134287 0.000389686 0)
(0.0134061 0.00056105 0)
(0.0133124 0.000706358 0)
(0.0131613 0.000825446 0)
(0.0129604 0.000920217 0)
(0.012717 0.000992695 0)
(0.0124384 0.00104497 0)
(0.0121305 0.00107929 0)
(0.0117995 0.00109799 0)
(0.0114516 0.00110335 0)
(0.0110914 0.00109746 0)
(0.0107233 0.00108227 0)
(0.0103522 0.00105962 0)
(0.00998169 0.00103126 0)
(0.0096143 0.000998656 0)
(0.00925294 0.000962982 0)
(0.00890022 0.000925304 0)
(0.00855768 0.000886544 0)
(0.00822635 0.000847436 0)
(0.00790744 0.000808452 0)
(0.00760194 0.000769905 0)
(0.00731003 0.000732062 0)
(0.00703164 0.000695096 0)
(0.006767 0.000659044 0)
(0.00651634 0.000623881 0)
(0.00627939 0.000589531 0)
(0.00605568 0.000555873 0)
(0.00584497 0.000522799 0)
(0.00564725 0.000490249 0)
(0.00546242 0.000458174 0)
(0.00529012 0.000426473 0)
(0.00512992 0.00039506 0)
(0.00498161 0.000363921 0)
(0.00484517 0.000333082 0)
(0.0047205 0.000302598 0)
(0.0046072 0.000272526 0)
(0.00450478 0.000242896 0)
(0.0044129 0.000213696 0)
(0.0043312 0.000184797 0)
(0.00425912 0.000156373 0)
(0.00419682 0.000129702 0)
(0.00414865 0.000105624 0)
(0.00410211 8.67514e-05 0)
(0.00408282 7.99365e-05 0)
(0.00406189 7.76959e-05 0)
(0.00403411 6.65757e-05 0)
(0.00400136 4.5096e-05 0)
(0.00397889 2.39498e-05 0)
(0.00396345 7.24918e-06 0)
(0.00395387 -6.66459e-06 0)
(0.00394938 -1.85835e-05 0)
(0.00394932 -2.92743e-05 0)
(0.00395322 -3.9626e-05 0)
(0.00396076 -5.05526e-05 0)
(0.00397195 -6.30773e-05 0)
(0.0039871 -7.84104e-05 0)
(0.00400683 -9.7912e-05 0)
(0.004032 -0.00012306 0)
(0.00406386 -0.000155449 0)
(0.00410396 -0.00019669 0)
(0.00415402 -0.000248221 0)
(0.00421583 -0.00031105 0)
(0.00429113 -0.00038535 0)
(0.00438134 -0.000469875 0)
(0.00448699 -0.000561214 0)
(0.0046071 -0.000652947 0)
(0.00473816 -0.000734664 0)
(0.00487304 -0.000790938 0)
(0.00499957 -0.00080045 0)
(0.00509914 -0.000735389 0)
(0.0051444 -0.000561234 0)
(0.00510054 -0.000237945 0)
(0.00491813 0.000278522 0)
(0.00455155 0.00101778 0)
(0.00395839 0.0019719 0)
(0.00312046 0.00304458 0)
(0.00207137 0.00395805 0)
(0.000956962 0.00411572 0)
(0.000100964 0.00245578 0)
(1.78384e-05 -0.000576863 0)
(0.000315296 -0.00158324 0)
(0.000869901 -0.00245128 0)
(0.00162308 -0.00316485 0)
(0.00252439 -0.00370678 0)
(0.00352512 -0.00406965 0)
(0.004581 -0.00425924 0)
(0.00565477 -0.00429204 0)
(0.00671646 -0.00419087 0)
(0.00774278 -0.00398092 0)
(0.0087162 -0.00368731 0)
(0.00962394 -0.00333314 0)
(0.0104571 -0.00293899 0)
(0.0112101 -0.0025226 0)
(0.0118793 -0.0020985 0)
(0.0124628 -0.00167883 0)
(0.0129607 -0.00127312 0)
(0.0133724 -0.000889064 0)
(0.0137028 -0.000532817 0)
(0.0139453 -0.000228871 0)
(0.0141399 4.88782e-05 0)
(0.0142238 0.000339044 0)
(0.0142595 0.000586804 0)
(0.0142248 0.000797907 0)
(0.014131 0.000974466 0)
(0.0139835 0.00111915 0)
(0.0137884 0.00123445 0)
(0.013552 0.00132302 0)
(0.0132798 0.00138747 0)
(0.0129777 0.00143038 0)
(0.0126518 0.00145432 0)
(0.0123066 0.00146187 0)
(0.011947 0.00145553 0)
(0.011578 0.00143752 0)
(0.0112037 0.00140997 0)
(0.0108273 0.00137478 0)
(0.0104523 0.00133369 0)
(0.0100821 0.00128825 0)
(0.009719 0.00123979 0)
(0.00936464 0.00118935 0)
(0.00902097 0.00113781 0)
(0.00868968 0.00108589 0)
(0.0083716 0.00103412 0)
(0.00806716 0.00098289 0)
(0.00777693 0.000932436 0)
(0.00750147 0.000882844 0)
(0.00724084 0.000834136 0)
(0.00699471 0.000786332 0)
(0.00676296 0.000739387 0)
(0.00654565 0.000693206 0)
(0.00634257 0.000647724 0)
(0.0061533 0.000602862 0)
(0.00597742 0.000558553 0)
(0.00581466 0.0005148 0)
(0.00566485 0.000471646 0)
(0.00552777 0.000429158 0)
(0.00540295 0.000387408 0)
(0.00528981 0.000346463 0)
(0.00518786 0.000306383 0)
(0.00509669 0.000267237 0)
(0.00501577 0.000229093 0)
(0.00494475 0.000191853 0)
(0.00488189 0.000157031 0)
(0.00483611 0.000126057 0)
(0.00478858 0.000101562 0)
(0.00477996 9.72218e-05 0)
(0.00476143 9.54337e-05 0)
(0.00473059 7.68434e-05 0)
(0.00469476 4.87789e-05 0)
(0.00467096 2.38564e-05 0)
(0.00465274 4.1148e-06 0)
(0.00463991 -1.2738e-05 0)
(0.0046317 -2.77061e-05 0)
(0.00462749 -4.1881e-05 0)
(0.00462683 -5.64385e-05 0)
(0.00462948 -7.26574e-05 0)
(0.00463547 -9.20032e-05 0)
(0.0046451 -0.000116115 0)
(0.00465892 -0.000146736 0)
(0.00467768 -0.000185688 0)
(0.00470235 -0.000234787 0)
(0.00473399 -0.000295625 0)
(0.0047737 -0.000369189 0)
(0.00482243 -0.000455362 0)
(0.00488077 -0.000552248 0)
(0.00494849 -0.000655274 0)
(0.0050239 -0.000756076 0)
(0.00510301 -0.000841249 0)
(0.0051784 -0.000891103 0)
(0.00523791 -0.000878647 0)
(0.00526334 -0.000768918 0)
(0.00522853 -0.000518865 0)
(0.00509895 -7.99213e-05 0)
(0.00483491 0.000595869 0)
(0.00439515 0.00153493 0)
(0.00374856 0.00271298 0)
(0.00289038 0.0039929 0)
(0.00186838 0.00501882 0)
(0.000830747 0.00507056 0)
(7.7727e-05 0.00293527 0)
(1.77645e-05 -0.000740696 0)
(0.000327122 -0.00202404 0)
(0.000904874 -0.0031197 0)
(0.00168524 -0.00400871 0)
(0.00261166 -0.00467345 0)
(0.00363178 -0.00511082 0)
(0.00469978 -0.00533369 0)
(0.00577844 -0.00536637 0)
(0.00683885 -0.00523904 0)
(0.00785928 -0.00498337 0)
(0.00882417 -0.00462983 0)
(0.00972286 -0.00420605 0)
(0.0105484 -0.00373582 0)
(0.0112969 -0.00323949 0)
(0.0119666 -0.00273372 0)
(0.0125567 -0.0022318 0)
(0.0130682 -0.00174454 0)
(0.0135015 -0.00128091 0)
(0.0138585 -0.000847867 0)
(0.0141395 -0.000457378 0)
(0.0143335 -8.79527e-05 0)
(0.0144932 0.000251846 0)
(0.0145859 0.000561678 0)
(0.0146117 0.000832785 0)
(0.0145773 0.00106566 0)
(0.0144881 0.00126207 0)
(0.0143494 0.00142382 0)
(0.0141667 0.00155326 0)
(0.0139447 0.00165301 0)
(0.0136884 0.00172583 0)
(0.0134035 0.00177452 0)
(0.0130942 0.00180183 0)
(0.0127649 0.0018105 0)
(0.0124206 0.0018031 0)
(0.0120655 0.00178204 0)
(0.011703 0.00174961 0)
(0.0113369 0.00170793 0)
(0.010971 0.00165885 0)
(0.010608 0.00160412 0)
(0.0102502 0.00154517 0)
(0.00990029 0.00148324 0)
(0.00956036 0.00141947 0)
(0.00923184 0.00135472 0)
(0.00891575 0.00128959 0)
(0.00861318 0.00122458 0)
(0.00832507 0.00116009 0)
(0.00805188 0.00109637 0)
(0.00779364 0.00103354 0)
(0.00755034 0.000971661 0)
(0.00732213 0.000910722 0)
(0.00710898 0.000850725 0)
(0.00691047 0.000791653 0)
(0.00672613 0.000733482 0)
(0.00655561 0.000676232 0)
(0.00639871 0.000619966 0)
(0.00625512 0.000564765 0)
(0.00612421 0.000510718 0)
(0.00600527 0.000457944 0)
(0.0058978 0.000406588 0)
(0.00580133 0.000356807 0)
(0.00571526 0.000308726 0)
(0.00563884 0.000262389 0)
(0.00557156 0.000217291 0)
(0.00551079 0.000175327 0)
(0.00546948 0.000137838 0)
(0.00541672 0.000109456 0)
(0.00542986 0.000112281 0)
(0.00540286 0.00011098 0)
(0.00536724 8.27961e-05 0)
(0.00533299 5.04862e-05 0)
(0.00530685 2.42311e-05 0)
(0.00528469 2.35879e-06 0)
(0.00526686 -1.68304e-05 0)
(0.00525261 -3.45853e-05 0)
(0.00524137 -5.23325e-05 0)
(0.00523271 -7.16005e-05 0)
(0.00522641 -9.40307e-05 0)
(0.00522247 -0.000121421 0)
(0.00522107 -0.000155723 0)
(0.0052225 -0.000198953 0)
(0.00522718 -0.000253041 0)
(0.00523556 -0.000319606 0)
(0.00524809 -0.000399566 0)
(0.00526505 -0.000492556 0)
(0.00528636 -0.00059609 0)
(0.00531123 -0.000704504 0)
(0.00533758 -0.000807652 0)
(0.0053613 -0.000889423 0)
(0.00537511 -0.000926261 0)
(0.00536733 -0.000886061 0)
(0.00532085 -0.000727437 0)
(0.0052102 -0.000399763 0)
(0.00500629 0.000154848 0)
(0.0046735 0.00098206 0)
(0.00417901 0.00210397 0)
(0.00350041 0.00347754 0)
(0.00264378 0.0049247 0)
(0.00166668 0.00601708 0)
(0.000714518 0.00593005 0)
(5.91062e-05 0.0033436 0)
(1.83206e-05 -0.000910217 0)
(0.0003384 -0.00248071 0)
(0.000933734 -0.0038089 0)
(0.00173184 -0.00487225 0)
(0.00267058 -0.00565436 0)
(0.00369471 -0.00615855 0)
(0.00475769 -0.00640652 0)
(0.00582282 -0.00643156 0)
(0.0068625 -0.00627201 0)
(0.00785674 -0.00596649 0)
(0.00879189 -0.00555091 0)
(0.00965955 -0.0050574 0)
(0.0104549 -0.00451315 0)
(0.0111759 -0.00394073 0)
(0.0118227 -0.00335849 0)
(0.0123962 -0.00278075 0)
(0.0128981 -0.00221856 0)
(0.0133299 -0.0016808 0)
(0.0136919 -0.00117447 0)
(0.0139897 -0.000707875 0)
(0.0142021 -0.000292634 0)
(0.0143785 8.86239e-05 0)
(0.0145205 0.000470286 0)
(0.0145948 0.000807414 0)
(0.0146121 0.00109817 0)
(0.0145772 0.00134694 0)
(0.0144941 0.00155602 0)
(0.0143675 0.00172789 0)
(0.0142011 0.00186538 0)
(0.0139989 0.00197135 0)
(0.0137655 0.00204871 0)
(0.0135044 0.00210027 0)
(0.0132196 0.00212877 0)
(0.0129155 0.00213702 0)
(0.012596 0.00212761 0)
(0.0122644 0.002103 0)
(0.0119247 0.00206553 0)
(0.0115806 0.00201738 0)
(0.0112352 0.0019605 0)
(0.0108911 0.00189671 0)
(0.0105511 0.00182761 0)
(0.0102181 0.00175459 0)
(0.00989377 0.00167885 0)
(0.00957962 0.00160137 0)
(0.00927726 0.00152293 0)
(0.00898817 0.0014442 0)
(0.00871313 0.0013657 0)
(0.00845244 0.0012878 0)
(0.00820646 0.00121071 0)
(0.0079756 0.00113458 0)
(0.00775993 0.00105956 0)
(0.00755911 0.000985738 0)
(0.00737276 0.000913196 0)
(0.00720055 0.000841995 0)
(0.00704219 0.000772213 0)
(0.00689726 0.000703964 0)
(0.00676511 0.000637407 0)
(0.00664498 0.00057272 0)
(0.00653624 0.000510087 0)
(0.00643829 0.000449694 0)
(0.00635052 0.000391724 0)
(0.00627213 0.000336317 0)
(0.00620221 0.000283427 0)
(0.0061396 0.000232282 0)
(0.00608305 0.000185574 0)
(0.00604442 0.000142382 0)
(0.00599092 0.000119073 0)
(0.00601954 0.000128317 0)
(0.00598507 0.000119899 0)
(0.00594351 8.52868e-05 0)
(0.00591048 5.24702e-05 0)
(0.00588 2.67499e-05 0)
(0.0058524 4.33593e-06 0)
(0.00582747 -1.62197e-05 0)
(0.00580453 -3.63146e-05 0)
(0.00578307 -5.75878e-05 0)
(0.00576272 -8.18043e-05 0)
(0.0057432 -0.000110875 0)
(0.00572432 -0.000146863 0)
(0.00570602 -0.000191884 0)
(0.00568826 -0.000247925 0)
(0.00567098 -0.000316586 0)
(0.00565403 -0.000398699 0)
(0.00563716 -0.000493679 0)
(0.00561981 -0.000598545 0)
(0.00560081 -0.00070665 0)
(0.00557788 -0.000806229 0)
(0.00554695 -0.000878678 0)
(0.00550102 -0.000896775 0)
(0.00542897 -0.000823307 0)
(0.00531461 -0.000609799 0)
(0.00513621 -0.000198525 0)
(0.0048744 0.000456817 0)
(0.00448484 0.00142323 0)
(0.00394907 0.00270846 0)
(0.00325269 0.00424906 0)
(0.00240975 0.00582672 0)
(0.00148392 0.00694701 0)
(0.000614867 0.00669897 0)
(4.49339e-05 0.00369064 0)
(1.93095e-05 -0.00108544 0)
(0.000349643 -0.00295078 0)
(0.000958404 -0.00451274 0)
(0.00176639 -0.00574582 0)
(0.00270696 -0.00663721 0)
(0.00372291 -0.00719873 0)
(0.00476764 -0.00746244 0)
(0.00580535 -0.00747158 0)
(0.00680983 -0.00727313 0)
(0.00776304 -0.00691294 0)
(0.0086533 -0.00643271 0)
(0.00947423 -0.00586886 0)
(0.0102233 -0.00525209 0)
(0.0109007 -0.00460722 0)
(0.0115081 -0.00395384 0)
(0.0120485 -0.00330706 0)
(0.0125248 -0.00267808 0)
(0.0129401 -0.00207517 0)
(0.0132961 -0.00150447 0)
(0.0135968 -0.000970385 0)
(0.0138382 -0.000483455 0)
(0.0140122 -7.00389e-05 0)
(0.0141776 0.000345139 0)
(0.0142832 0.000739637 0)
(0.0143358 0.00108241 0)
(0.014345 0.00137946 0)
(0.0143114 0.00163324 0)
(0.0142381 0.00184622 0)
(0.014127 0.00202132 0)
(0.0139808 0.00216133 0)
(0.0138029 0.00226913 0)
(0.0135959 0.00234753 0)
(0.0133629 0.0023992 0)
(0.013108 0.00242681 0)
(0.0128344 0.00243309 0)
(0.0125451 0.00242054 0)
(0.0122439 0.00239156 0)
(0.0119344 0.00234853 0)
(0.0116196 0.00229368 0)
(0.0113023 0.00222895 0)
(0.0109855 0.00215621 0)
(0.0106721 0.00207714 0)
(0.0103644 0.00199322 0)
(0.0100641 0.00190575 0)
(0.00977317 0.00181585 0)
(0.00949343 0.00172443 0)
(0.00922613 0.0016323 0)
(0.00897193 0.0015401 0)
(0.00873139 0.0014483 0)
(0.00850522 0.00135728 0)
(0.00829376 0.00126736 0)
(0.00809688 0.00117882 0)
(0.00791422 0.00109187 0)
(0.00774547 0.00100665 0)
(0.0075904 0.0009233 0)
(0.00744863 0.000842055 0)
(0.00731945 0.000763137 0)
(0.00720199 0.000686734 0)
(0.00709554 0.000613057 0)
(0.00699951 0.000542372 0)
(0.00691321 0.000474933 0)
(0.00683581 0.000410907 0)
(0.00676631 0.000350326 0)
(0.0067038 0.000292922 0)
(0.00664571 0.00023781 0)
(0.00659884 0.000188721 0)
(0.0065526 0.000141 0)
(0.00653388 0.000131808 0)
(0.00654016 0.000145016 0)
(0.00650216 0.000126068 0)
(0.006457 9.09652e-05 0)
(0.0064198 6.06475e-05 0)
(0.00638274 3.58172e-05 0)
(0.00634725 1.35129e-05 0)
(0.00631263 -7.74799e-06 0)
(0.00627814 -2.9675e-05 0)
(0.00624328 -5.41475e-05 0)
(0.00620755 -8.31431e-05 0)
(0.00617052 -0.000118725 0)
(0.0061318 -0.000163013 0)
(0.00609101 -0.000218029 0)
(0.00604767 -0.000285373 0)
(0.00600118 -0.000365764 0)
(0.00595083 -0.000458394 0)
(0.00589577 -0.000559885 0)
(0.00583465 -0.000662829 0)
(0.00576517 -0.000754106 0)
(0.00568361 -0.000812991 0)
(0.00558385 -0.000809177 0)
(0.00545676 -0.000701489 0)
(0.00528598 -0.000438995 0)
(0.0050619 3.06448e-05 0)
(0.0047278 0.000810371 0)
(0.00429369 0.0019074 0)
(0.00372762 0.00333688 0)
(0.00302325 0.0050178 0)
(0.00220036 0.00669364 0)
(0.00132607 0.00781056 0)
(0.000532692 0.0073874 0)
(3.44912e-05 0.00398729 0)
(2.05283e-05 -0.0012664 0)
(0.000360245 -0.00343172 0)
(0.000978314 -0.00522557 0)
(0.00178891 -0.00662106 0)
(0.00272209 -0.00761169 0)
(0.00371965 -0.00821996 0)
(0.00473535 -0.00848946 0)
(0.00573464 -0.0084741 0)
(0.00669286 -0.00822984 0)
(0.00759378 -0.00780994 0)
(0.00842789 -0.00726215 0)
(0.00919086 -0.00662732 0)
(0.00988228 -0.00593936 0)
(0.0105044 -0.00522538 0)
(0.0110611 -0.00450617 0)
(0.0115567 -0.00379734 0)
(0.011996 -0.00311013 0)
(0.0123831 -0.00245252 0)
(0.0127218 -0.0018303 0)
(0.0130165 -0.00124683 0)
(0.0132631 -0.00071417 0)
(0.0134813 -0.000247633 0)
(0.0136157 0.00020514 0)
(0.0137476 0.000651855 0)
(0.013822 0.00103619 0)
(0.0138674 0.00137199 0)
(0.0138776 0.0016633 0)
(0.013853 0.00191266 0)
(0.013794 0.00212262 0)
(0.013702 0.00229554 0)
(0.0135792 0.00243381 0)
(0.0134274 0.00253995 0)
(0.0132487 0.00261647 0)
(0.0130467 0.00266583 0)
(0.0128241 0.00269054 0)
(0.0125833 0.00269317 0)
(0.0123278 0.00267615 0)
(0.012061 0.00264186 0)
(0.0117856 0.00259262 0)
(0.0115043 0.00253057 0)
(0.0112201 0.00245772 0)
(0.0109362 0.00237594 0)
(0.0106546 0.00228695 0)
(0.0103776 0.0021923 0)
(0.0101072 0.00209338 0)
(0.00984552 0.00199142 0)
(0.00959417 0.00188748 0)
(0.00935399 0.00178246 0)
(0.00912591 0.00167714 0)
(0.00891091 0.00157217 0)
(0.00870958 0.00146813 0)
(0.00852192 0.00136543 0)
(0.00834774 0.00126446 0)
(0.00818686 0.00116557 0)
(0.00803914 0.00106905 0)
(0.00790423 0.000975175 0)
(0.00778138 0.000884246 0)
(0.00766972 0.000796537 0)
(0.00756854 0.000712333 0)
(0.00747719 0.000631922 0)
(0.0073949 0.000555576 0)
(0.00732076 0.000483514 0)
(0.00725376 0.000415842 0)
(0.00719267 0.000352462 0)
(0.00713671 0.000292595 0)
(0.00708026 0.000235827 0)
(0.00704208 0.00018427 0)
(0.00697209 0.000143548 0)
(0.00700163 0.00015359 0)
(0.00697519 0.000161184 0)
(0.0069341 0.000133353 0)
(0.00689126 0.000101786 0)
(0.00684873 7.62928e-05 0)
(0.00680458 5.3931e-05 0)
(0.0067596 3.2979e-05 0)
(0.00671308 1.18826e-05 0)
(0.00666445 -1.12092e-05 0)
(0.0066132 -3.82744e-05 0)
(0.00655873 -7.13529e-05 0)
(0.00650038 -0.000112516 0)
(0.00643748 -0.000163759 0)
(0.00636929 -0.000226672 0)
(0.00629488 -0.000301888 0)
(0.00621318 -0.000388384 0)
(0.00612308 -0.000482449 0)
(0.00602311 -0.000576117 0)
(0.00591095 -0.000655198 0)
(0.00578304 -0.000697163 0)
(0.00563374 -0.000668981 0)
(0.00545412 -0.000525301 0)
(0.00523179 -0.000207716 0)
(0.00493786 0.00036197 0)
(0.00457289 0.001217 0)
(0.00410657 0.00242363 0)
(0.00352258 0.00397858 0)
(0.00281817 0.00577678 0)
(0.00201863 0.00752393 0)
(0.00119317 0.00861299 0)
(0.000466325 0.00800673 0)
(2.69337e-05 0.00424351 0)
(2.18641e-05 -0.00145279 0)
(0.000369253 -0.00392059 0)
(0.000991959 -0.00594161 0)
(0.00179813 -0.00749006 0)
(0.00271551 -0.00856867 0)
(0.00368581 -0.00921262 0)
(0.00466355 -0.00947786 0)
(0.00561552 -0.00942933 0)
(0.0065188 -0.00913238 0)
(0.00735897 -0.00864786 0)
(0.00812854 -0.0080296 0)
(0.00882538 -0.00732312 0)
(0.00945114 -0.00656547 0)
(0.0100101 -0.00578576 0)
(0.0105081 -0.0050059 0)
(0.0109511 -0.00424177 0)
(0.0113452 -0.00350431 0)
(0.0116952 -0.00280102 0)
(0.0120065 -0.00213745 0)
(0.0122801 -0.00151818 0)
(0.0125232 -0.000950261 0)
(0.0127652 -0.000416146 0)
(0.0128441 7.59741e-05 0)
(0.0130121 0.000544499 0)
(0.0131147 0.000956853 0)
(0.0131993 0.00132368 0)
(0.0132524 0.00164745 0)
(0.0132737 0.00192966 0)
(0.0132632 0.00217194 0)
(0.0132218 0.0023761 0)
(0.0131511 0.00254406 0)
(0.0130523 0.00267782 0)
(0.0129269 0.00277963 0)
(0.0127779 0.00285177 0)
(0.0126073 0.00289658 0)
(0.0124174 0.00291646 0)
(0.0122109 0.00291382 0)
(0.0119908 0.00289103 0)
(0.0117597 0.00285038 0)
(0.01152 0.0027941 0)
(0.0112747 0.00272427 0)
(0.0110265 0.0026429 0)
(0.0107779 0.00255189 0)
(0.010531 0.00245296 0)
(0.0102879 0.00234774 0)
(0.010051 0.00223768 0)
(0.00982198 0.0021241 0)
(0.00960198 0.00200822 0)
(0.00939215 0.0018911 0)
(0.00919365 0.00177365 0)
(0.00900726 0.00165666 0)
(0.00883324 0.00154083 0)
(0.0086716 0.00142678 0)
(0.00852224 0.00131502 0)
(0.00838513 0.00120599 0)
(0.00826001 0.00110011 0)
(0.00814622 0.000997806 0)
(0.00804289 0.000899459 0)
(0.00794929 0.000805408 0)
(0.00786474 0.000715962 0)
(0.00778848 0.000631442 0)
(0.0077196 0.000552156 0)
(0.00765705 0.000478318 0)
(0.00759966 0.000409966 0)
(0.00754626 0.000346873 0)
(0.00749596 0.00028764 0)
(0.00744389 0.000233031 0)
(0.00740562 0.000179652 0)
(0.00734799 0.000156954 0)
(0.00738085 0.000179697 0)
(0.00733994 0.000177051 0)
(0.00729007 0.000149263 0)
(0.00724321 0.000123254 0)
(0.00719235 0.000102718 0)
(0.00713878 8.40061e-05 0)
(0.00708206 6.55371e-05 0)
(0.00702149 4.56403e-05 0)
(0.00695648 2.24205e-05 0)
(0.00688639 -6.10927e-06 0)
(0.00681038 -4.19357e-05 0)
(0.00672757 -8.69475e-05 0)
(0.00663701 -0.000142662 0)
(0.00653757 -0.000209659 0)
(0.00642795 -0.00028676 0)
(0.00630678 -0.000369964 0)
(0.00617247 -0.000450827 0)
(0.00602277 -0.000514268 0)
(0.00585429 -0.000536134 0)
(0.0056618 -0.000480829 0)
(0.00543715 -0.000299245 0)
(0.00516715 7.08073e-05 0)
(0.00483843 0.000698088 0)
(0.0044377 0.0016462 0)
(0.00394274 0.00295963 0)
(0.00334333 0.00462674 0)
(0.00264106 0.00652283 0)
(0.0018645 0.00831898 0)