/*--------------------------------*- C++ -*----------------------------------*\
  =========                 |
  \\      /  F ield         | OpenFOAM: The Open Source CFD Toolbox
   \\    /   O peration     | Website:  https://openfoam.org
    \\  /    A nd           | Version:  6
     \\/     M anipulation  |
\*---------------------------------------------------------------------------*/
FoamFile
{
    version     2.0;
    format      ascii;
    class       volVectorField;
    location    "0";
    object      U;
}
// * * * * * * * * * * * * * * * * * * * * * * * * * * * * * * * * * * * * * //

dimensions      [0 1 -1 0 0 0 0];

internalField   nonuniform List<vector> 
13046
(
(0.42089 0.137847 0)
(0.55985 -0.168434 2.7608e-21)
(0.207315 -0.10368 6.21049e-21)
(0.414852 0.0620119 0)
(0.191744 -0.0373842 5.71459e-21)
(0.477702 -0.177622 0)
(0.451673 0.0820111 -8.38947e-22)
(0.521276 -0.210865 -1.40487e-21)
(0.16706 -0.0265641 6.2852e-21)
(0.86647 0.375456 -2.01807e-21)
(0.971669 -0.42566 0)
(-0.0180168 -0.0114646 -3.84631e-21)
(0.526467 0.174938 5.30177e-21)
(0.65181 -0.236791 4.08113e-21)
(0.136833 -0.0736663 -3.38335e-21)
(0.817022 0.41949 -1.17536e-21)
(0.0174178 -0.0408463 -6.12802e-21)
(1.01753 -0.355682 -1.18497e-21)
(0.253783 0.0302666 0)
(0.363066 -0.155012 3.06772e-21)
(0.426222 -0.0268304 -8.78381e-21)
(0.827824 0.411705 1.15276e-21)
(0.00717496 -0.0329986 1.22715e-20)
(1.00905 -0.371434 -3.25512e-22)
(0.372834 0.0727572 -3.56981e-21)
(0.475576 -0.139915 5.21797e-21)
(0.22592 -0.0826232 0)
(0.532882 0.201667 -1.20221e-22)
(0.675357 -0.234479 -1.20541e-21)
(0.139851 -0.0875277 1.16971e-20)
(0.425037 0.15729 0)
(0.582707 -0.158052 0)
(0.215899 -0.122335 -6.32092e-21)
(0.344393 0.0465442 1.25245e-20)
(0.248102 -0.0822536 -2.1306e-21)
(0.435019 -0.114119 -8.08642e-21)
(0.34546 0.0257611 2.74771e-23)
(0.252991 -0.0629618 0)
(0.409091 -0.111094 0)
(0.343362 0.161165 -4.52882e-21)
(0.355647 -0.232178 -5.63854e-21)
(0.583614 -0.0779578 4.14297e-21)
(0.342318 -0.0327366 -2.86609e-21)
(0.290683 -0.0377927 2.93683e-21)
(0.336968 -0.0811469 0)
(0.365446 -0.0254546 -1.83871e-21)
(0.266852 -0.0177965 0)
(0.347393 -0.105271 9.3863e-22)
(0.44025 0.133175 0)
(0.566537 -0.188211 1.9699e-22)
(0.178513 -0.0848356 3.20554e-23)
(0.515208 -0.357976 -6.73483e-21)
(0.290699 0.179404 0)
(0.653002 -0.009132 4.78207e-21)
(0.568956 -0.392241 9.58836e-21)
(0.669215 0.0134852 5.17347e-21)
(0.259254 0.164326 -6.94518e-21)
(0.924381 -0.22836 7.54309e-22)
(0.678968 0.401605 0)
(0.175092 -0.165654 -5.10975e-21)
(0.685526 0.188189 2.49481e-21)
(0.761496 -0.377974 -2.294e-21)
(0.0669113 0.0106555 1.40515e-20)
(0.00568571 -0.0262658 -7.15217e-21)
(0.953601 -0.404992 1.10179e-21)
(0.830006 0.341279 3.63106e-21)
(0.644006 0.395759 0)
(0.893899 -0.195899 -3.62572e-21)
(0.219015 -0.203679 -1.47974e-21)
(0.614343 0.376028 1.90571e-21)
(0.864032 -0.183596 4.91348e-21)
(0.235025 -0.212663 2.0132e-21)
(0.955703 -0.236729 7.10742e-24)
(0.705435 0.418889 -7.59502e-23)
(0.15928 -0.160065 2.85739e-23)
(0.263982 0.0504447 0)
(0.356719 -0.168893 -3.34277e-21)
(0.45264 -0.043338 6.2139e-21)
(0.104803 -0.114343 -5.6044e-21)
(0.74639 0.425199 5.4764e-21)
(0.985219 -0.277718 1.53176e-21)
(0.397354 0.0817619 -1.87138e-21)
(0.492247 -0.159351 1.8588e-21)
(0.20288 -0.0649724 0)
(-0.000135043 -0.0244308 6.37211e-21)
(0.968929 -0.409723 0)
(0.84597 0.355919 -2.13799e-21)
(0.869033 0.275139 3.69395e-21)
(0.0042414 0.00645034 0)
(0.912116 -0.474231 9.00874e-22)
(0.0363895 0.0407525 0)
(0.929186 0.216136 0)
(0.878886 -0.549731 -1.0979e-22)
(0.690066 0.279261 4.90209e-21)
(0.724944 0.287294 -6.78373e-21)
(0.836815 -0.324417 -4.19746e-21)
(0.862112 -0.351259 1.96036e-21)
(0.0679662 -0.0586772 2.98625e-21)
(0.0485096 -0.0433052 -7.66856e-21)
(0.0134179 0.0149618 3.64933e-22)
(0.867814 0.255163 -3.6141e-21)
(0.895048 -0.487876 0)
(0.379691 -0.00352113 1.44399e-23)
(0.243678 -0.0178906 0)
(0.379221 -0.130576 0)
(0.200883 0.109934 -1.26239e-20)
(0.604847 0.0396774 2.4369e-21)
(0.558476 -0.340151 0)
(0.288225 0.158865 -1.91494e-21)
(0.464009 -0.305497 0)
(0.606252 -0.0270612 9.33017e-21)
(0.815974 0.373818 0)
(-0.021456 -0.00237108 5.20017e-21)
(0.885257 -0.414329 1.48445e-22)
(0.487322 0.153089 -3.70703e-21)
(0.614604 -0.216277 -1.80612e-21)
(0.15051 -0.0703099 -6.11469e-21)
(0.724402 0.333827 -2.83481e-21)
(0.691574 0.306607 2.64592e-21)
(0.897294 -0.318481 -1.07758e-21)
(0.0705638 -0.0748528 -3.40799e-21)
(0.856976 -0.307084 1.1246e-21)
(0.0793492 -0.0756052 3.1837e-21)
(0.855869 0.384547 4.68262e-21)
(0.967083 -0.420111 8.1099e-22)
(-0.0189057 -0.00989659 1.71333e-21)
(0.616972 0.248412 0)
(0.764877 -0.281612 2.94792e-21)
(0.102656 -0.0801825 -1.77695e-20)
(0.377436 0.176033 0)
(0.317385 -0.211015 5.6795e-21)
(0.598912 -0.102834 -2.17023e-22)
(0.0488025 0.0492049 0)
(0.903681 0.201606 0)
(0.867425 -0.540303 0)
(0.788053 0.291737 0)
(0.897102 -0.40177 5.05223e-21)
(0.0215779 -0.020085 7.70298e-21)
(0.460651 0.177848 0)
(0.619369 -0.178635 0)
(0.200254 -0.12682 0)
(0.557524 0.107501 0)
(0.610607 -0.300625 0)
(0.128361 0.018016 0)
(0.26986 0.155177 1.77198e-21)
(0.503918 -0.331251 0)
(0.619242 -0.00756522 -5.04423e-21)
(0.202896 0.0980935 1.22312e-20)
(0.584721 0.0353678 5.39565e-21)
(0.545082 -0.322386 -6.09898e-21)
(0.711626 0.207085 -5.62462e-21)
(0.791235 -0.387877 0)
(0.0533064 -9.51356e-05 -1.82557e-20)
(0.185085 0.0491196 0)
(0.514753 0.0398517 -1.19015e-20)
(0.504427 -0.262635 -1.58338e-21)
(0.66211 -0.431991 -2.62584e-21)
(0.698428 0.0716574 -5.45797e-21)
(0.706206 -0.448066 0)
(0.720919 0.100976 -3.15389e-21)
(0.184061 0.123718 -5.95358e-21)
(0.148581 0.101491 5.71859e-21)
(0.584717 0.080225 -7.54537e-22)
(0.598673 -0.329527 -3.10989e-21)
(0.145808 0.0514983 3.5214e-21)
(0.88489 0.360805 2.04844e-21)
(-0.0198171 -0.0089455 -2.00438e-21)
(0.955033 -0.442905 1.46111e-21)
(0.832824 0.380914 1.22869e-21)
(-0.0212067 -0.00414676 7.80995e-22)
(0.92514 -0.415532 0)
(0.797166 0.309933 -1.11123e-22)
(0.914626 -0.398539 0)
(0.0177269 -0.0257288 -9.30426e-21)
(0.437306 0.239809 0)
(0.679201 -0.11489 -1.23572e-21)
(0.327815 -0.245232 -3.27502e-21)
(0.567745 0.0637852 -4.88685e-21)
(0.16534 0.066118 0)
(0.567275 -0.310829 0)
(-0.0181886 -0.00348538 0)
(0.940645 -0.474306 0)
(0.906279 0.327114 -1.64656e-21)
(0.403958 0.215885 0)
(0.647077 -0.0994838 2.77035e-21)
(0.34114 -0.239697 -8.52281e-22)
(0.182142 0.062518 0)
(0.5307 0.0398284 0)
(0.51203 -0.277601 0)
(0.527594 0.0883654 -2.47614e-21)
(0.576578 -0.280133 0)
(0.139289 0.0131678 0)
(0.693112 -0.276656 1.74208e-23)
(0.106598 -0.0514512 4.16829e-21)
(0.589614 0.225851 -7.67105e-21)
(0.734132 -0.269146 0)
(0.110912 -0.0752096 1.83606e-20)
(0.872626 0.317878 4.19492e-21)
(-0.00641436 -0.00758385 -5.78751e-21)
(0.945022 -0.452153 3.88631e-21)
(0.0368654 0.037253 -5.33703e-21)
(0.872506 0.217049 -2.2758e-21)
(0.871545 -0.513071 -4.66054e-21)
(0.9142 0.250773 5.89683e-21)
(0.901798 -0.514857 0)
(0.0115504 0.0219058 5.22492e-21)
(0.537375 -0.399211 2.69685e-21)
(0.708293 -0.0149096 -2.09925e-21)
(0.33117 0.22903 -5.82968e-21)
(0.514097 0.126805 4.87077e-21)
(0.734703 0.435186 -2.85958e-21)
(0.123892 -0.128779 3.44742e-21)
(0.988802 -0.266817 -7.10057e-24)
(0.909523 -0.514401 0)
(0.924401 0.270726 1.61845e-21)
(0.000883669 0.0133127 0)
(0.372488 0.0226262 9.24961e-21)
(0.231566 -0.0375029 0)
(0.410843 -0.135167 -3.02667e-21)
(0.512144 0.207296 0)
(0.668218 -0.214572 1.74003e-22)
(0.166899 -0.106457 -3.46899e-21)
(0.0479334 0.0468904 -4.11179e-21)
(0.880552 0.204499 0)
(0.862637 -0.527258 5.36956e-21)
(0.54608 0.147689 0)
(0.677278 -0.28328 -7.38024e-21)
(0.106216 -0.0389377 0)
(-0.0238557 -0.00574634 0)
(0.918085 -0.447394 -7.85671e-22)
(0.880363 0.359637 0)
(0.29691 0.205921 6.30757e-21)
(0.707826 0.00285779 0)
(0.571578 -0.421434 0)
(0.889107 0.241962 -5.17345e-21)
(0.893375 -0.504371 0)
(0.0169883 0.0224301 3.73204e-23)
(0.649687 0.0914418 -6.29955e-21)
(0.652481 -0.388186 -2.309e-21)
(0.140943 0.0768219 8.07438e-21)
(0.613566 0.265351 0)
(0.77355 -0.26854 -2.76014e-21)
(0.11633 -0.0936265 -1.83978e-21)
(0.809656 -0.538637 7.33958e-21)
(0.848407 0.142651 4.09514e-21)
(0.111599 0.0941591 -3.23753e-21)
(0.758085 0.109408 0)
(0.737647 -0.477243 3.09062e-21)
(0.144165 0.104636 1.17885e-22)
(-0.0240057 -0.00545735 4.04438e-21)
(0.894864 -0.45493 0)
(0.886992 0.347878 1.11418e-21)
(0.346433 0.196476 -8.43647e-21)
(0.421362 -0.291751 4.06352e-21)
(0.635388 -0.059192 3.96131e-22)
(0.749766 0.397711 -1.18441e-21)
(-0.0163485 0.00135408 4.30383e-22)
(0.900416 -0.360082 0)
(0.230585 0.0109894 -1.89476e-21)
(0.416995 -0.0051405 7.13262e-21)
(0.391591 -0.162448 -9.14151e-21)
(0.645531 0.127725 -2.52883e-21)
(0.629375 0.0984356 -3.26941e-23)
(0.68522 -0.372191 5.63811e-21)
(0.645571 -0.36846 5.52475e-21)
(0.132005 0.0610722 -6.4201e-21)
(0.103474 0.0403518 3.30494e-21)
(0.0818943 -0.0954265 7.33569e-21)
(0.76521 0.429891 -2.93228e-21)
(1.00689 -0.290229 0)
(0.580525 0.259263 0)
(0.749959 -0.24022 0)
(0.147523 -0.113157 7.33414e-21)
(0.788842 0.133118 1.09941e-21)
(0.771805 -0.497553 0)
(0.11934 0.0904854 0)
(0.758587 0.316494 -2.42183e-21)
(0.901484 -0.357931 0)
(0.0392674 -0.0466277 -3.36315e-21)
(0.32145 -0.0189251 -1.9533e-21)
(0.352288 -0.0694585 -2.801e-21)
(0.296703 -0.0577191 9.78381e-22)
(0.700224 0.113745 4.01164e-21)
(0.706428 -0.427326 0)
(0.125853 0.0795145 5.50011e-21)
(0.586671 0.276994 0)
(0.768636 -0.233699 -3.40914e-21)
(0.156187 -0.126616 4.65637e-21)
(0.560174 0.172414 -7.86937e-21)
(0.594773 0.19105 6.33743e-21)
(0.355155 0.209848 6.67655e-21)
(0.432344 -0.307743 -1.17444e-20)
(0.652907 -0.0551473 8.67498e-21)
(0.72249 0.138113 4.123e-21)
(0.739413 -0.43817 -4.66644e-21)
(0.0992741 0.0620916 -5.01717e-21)
(0.782662 0.32232 8.93315e-21)
(0.0263579 -0.0369139 1.19174e-20)
(0.919867 -0.37654 2.34506e-21)
(0.288966 0.144302 2.93431e-21)
(0.440187 -0.286648 0)
(0.586682 -0.0302089 -3.14207e-21)
(0.201919 0.142779 6.44526e-21)
(0.716123 0.0638099 3.10211e-21)
(0.662871 -0.451325 0)
(0.673419 0.335662 9.26108e-22)
(0.868386 -0.267385 2.81447e-21)
(0.119792 -0.113153 -2.10031e-21)
(0.322686 0.201382 -5.45866e-22)
(0.491213 -0.348149 0)
(0.663597 -0.0248078 -6.62854e-21)
(0.701973 0.354879 0)
(0.723812 0.355477 0)
(0.90153 -0.282062 1.73581e-21)
(0.105841 -0.105432 5.4842e-21)
(0.91438 -0.305677 -2.44923e-21)
(0.082758 -0.0865195 -5.80702e-21)
(-0.0154734 -0.00709731 4.46108e-21)
(0.95063 -0.459811 0)
(0.893285 0.336316 2.52832e-21)
(0.658653 0.296953 0)
(0.827297 -0.285968 1.33936e-21)
(0.100981 -0.0901464 -1.90523e-21)
(0.778832 -0.378451 4.46154e-22)
(-0.0163346 0.00130498 -6.40098e-21)
(0.723695 0.358437 -1.76943e-21)
(0.480051 0.0116762 9.64914e-21)
(0.209641 0.0465499 0)
(0.448318 -0.223676 3.32192e-21)
(0.643863 0.173564 -5.91155e-21)
(0.72573 -0.348632 0)
(0.0774876 0.0013968 -1.08129e-20)
(0.000814199 -0.0126913 3.69659e-21)
(0.847855 0.312407 -7.7654e-21)
(0.934578 -0.435241 -3.1457e-21)
(0.588244 -0.411483 3.49584e-21)
(0.687627 0.0194654 0)
(0.257271 0.176118 7.87112e-21)
(0.829035 -0.537275 8.57086e-21)
(0.861179 0.164695 2.46955e-21)
(0.0856081 0.0742028 0)
(0.620975 -0.256141 3.91076e-21)
(0.126613 -0.0339303 0)
(0.662245 0.219091 -6.34335e-21)
(0.765937 -0.334507 -2.54315e-21)
(0.0680722 -0.0320819 -3.29036e-21)
(0.61094 -0.270203 -1.34573e-22)
(0.123595 -0.0190084 -1.65556e-23)
(0.809797 0.41143 5.87327e-21)
(0.0279116 -0.0502809 -8.64624e-21)
(1.00962 -0.346616 1.74193e-21)
(0.523857 -0.409516 -3.50983e-21)
(0.731261 -0.0280298 -6.48912e-22)
(0.363153 0.254145 0)
(0.69251 0.236703 6.46194e-21)
(0.804515 -0.351994 3.10201e-21)
(0.0551638 -0.0258526 7.97913e-21)
(0.575556 0.10262 0)
(0.613142 -0.319941 2.27916e-21)
(0.129124 0.032219 0)
(0.61744 0.0198475 3.10927e-21)
(0.539322 -0.349092 0)
(0.23332 0.130812 0)
(0.428034 0.108818 2.59364e-21)
(0.534659 -0.182289 4.34009e-21)
(0.183467 -0.0707571 -5.58685e-24)
(0.230551 0.162932 -7.99816e-21)
(0.709485 0.0441781 -7.50758e-21)
(0.634945 -0.43977 -9.37224e-21)
(0.889821 0.294582 3.06497e-21)
(0.928391 -0.473571 -3.27159e-21)
(-0.00494529 0.0010835 -8.72038e-23)
(0.836542 -0.521482 -5.8536e-21)
(0.850846 0.176917 -2.50296e-21)
(0.0709226 0.0624681 -4.13668e-21)
(0.550289 0.344134 5.8991e-21)
(0.300006 -0.253774 -2.99221e-21)
(0.811453 -0.145972 0)
(0.734489 0.396916 -1.6028e-21)
(0.711953 0.381825 1.49449e-21)
(0.928484 -0.270899 5.47039e-22)
(0.955219 -0.281006 -2.15536e-21)
(0.103326 -0.108927 1.98186e-21)
(0.118126 -0.11981 1.77213e-21)
(-0.0175931 0.00192833 6.50343e-21)
(0.818603 -0.373365 -4.91335e-22)
(0.737045 0.365894 -8.18816e-22)
(0.763973 0.40462 8.58019e-23)
(-0.0150812 -0.0011811 0)
(0.931856 -0.361131 0)
(0.679836 0.145956 9.36294e-21)
(0.725123 -0.392902 1.21986e-21)
(0.0928073 0.0400855 0)
(-0.0104261 -0.0101405 1.114e-20)
(0.877999 0.331574 -3.18783e-21)
(0.955329 -0.448488 0)
(0.621408 0.350012 -8.31942e-21)
(0.650765 0.358675 6.20541e-21)
(0.846909 -0.212741 -3.05151e-21)
(0.870687 -0.231913 -1.15055e-21)
(0.198543 -0.175392 3.49359e-21)
(0.167688 -0.152512 1.75533e-21)
(-0.00521053 0.00869178 0)
(0.890745 -0.522426 0)
(0.951909 0.268547 -8.2729e-22)
(0.701243 0.393105 1.3909e-21)
(-0.0152208 0.00452132 -4.02016e-21)
(0.869407 -0.338067 0)
(0.408334 -0.0566962 5.18601e-24)
(0.284489 0.0255611 -4.18466e-21)
(0.315347 -0.119374 -2.05319e-21)
(0.771885 0.379126 2.07218e-21)
(0.874296 -0.390389 -2.17161e-22)
(-0.0192916 0.000339615 -8.08281e-21)
(0.482857 0.254403 -7.28873e-21)
(0.702684 -0.147595 5.59416e-21)
(0.274597 -0.209568 4.58995e-23)
(0.913105 0.315073 -8.27192e-23)
(0.933781 -0.484276 -4.10681e-21)
(-0.0146791 -0.000435387 2.27885e-21)
(0.681443 -0.384641 3.84247e-24)
(-0.014128 -0.00293505 7.40297e-21)
(0.706062 0.298396 4.03205e-22)
(0.310557 0.134219 3.90908e-21)
(0.367798 -0.223523 2.42399e-22)
(0.550986 -0.0611132 -1.01958e-20)
(0.434041 0.0188366 0)
(0.435639 -0.187221 1.01189e-20)
(0.207377 0.00878317 -5.2727e-21)
(0.840696 0.398908 -4.79372e-21)
(-0.0157268 -0.0113475 -5.1041e-21)
(0.976828 -0.405986 5.77695e-23)
(0.456009 0.0286885 0)
(0.456163 -0.206577 3.484e-21)
(0.19453 0.0230963 7.46195e-21)
(0.385882 -0.0528963 -4.21294e-21)
(0.287147 0.00702041 4.41989e-21)
(0.31541 -0.10259 -1.08892e-21)
(0.283102 0.206091 3.84427e-21)
(0.734268 0.0192176 2.59646e-21)
(0.615452 -0.457987 -5.1268e-21)
(0.4674 -0.0280562 0)
(0.381915 -0.186482 0)
(0.248212 0.0642126 -6.21138e-22)
(0.485029 -0.00250372 -5.20038e-21)
(0.425226 -0.212206 -2.70369e-21)
(0.230317 0.0633266 -8.78171e-23)
(0.517878 0.326771 -8.98434e-21)
(0.783857 -0.127352 4.10051e-21)
(0.33525 -0.281294 6.00545e-21)
(-0.00680527 -0.0208848 -7.73679e-21)
(-0.0117636 -0.0171682 7.88855e-21)
(0.992496 -0.404974 -1.01729e-21)
(0.981868 -0.41851 -7.64362e-22)
(0.850418 0.39118 -4.3368e-21)
(0.86145 0.380983 6.47483e-21)
(0.906348 0.297207 -3.81429e-21)
(0.929336 -0.482817 2.68937e-21)
(-0.00829412 0.00376139 0)
(0.287842 -0.25554 -3.8854e-21)
(0.578795 0.37094 -1.83692e-21)
(0.843463 -0.154457 0)
(0.366101 0.195911 0)
(0.379536 -0.262523 3.71893e-21)
(0.628726 -0.0772551 -3.10539e-21)
(0.774149 0.0915608 0)
(0.729049 -0.497643 -3.19807e-21)
(0.173703 0.129693 -1.21954e-22)
(0.758902 -0.442412 -5.82307e-22)
(-0.0201293 -0.00791152 0)
(0.838371 0.300419 1.5753e-21)
(0.0216515 0.0301244 0)
(0.93309 0.234667 0)
(0.887247 -0.541283 -1.91311e-21)
(0.855986 0.374232 -1.52699e-21)
(-0.0224376 -0.00608226 0)
(0.935402 -0.430441 7.71052e-22)
(-0.0114194 -0.000716397 2.74571e-32)
(0.637831 -0.358094 -4.5489e-22)
(0.648348 0.287744 -3.61273e-22)
(0.669067 -0.314103 5.30285e-22)
(-0.0111049 0.00411518 -2.73923e-32)
(0.614459 0.329565 3.35497e-22)
(0.804224 -0.4371 6.18224e-21)
(0.757843 0.191134 0)
(0.0594269 0.0305039 1.06292e-20)
(0.853137 -0.499057 4.75566e-22)
(-0.016562 -0.00273516 0)
(0.943572 0.287408 0)
(0.807896 0.284954 3.94024e-21)
(0.898185 -0.421883 -3.10356e-21)
(0.0162533 -0.0112423 -5.47371e-21)
(0.797497 0.438428 -5.62836e-21)
(0.0135378 -0.0331036 -3.07235e-21)
(1.03206 -0.336437 0)
(0.489332 0.131734 -1.97868e-21)
(0.142664 -0.046577 2.08797e-21)
(0.600682 -0.233654 -1.89197e-21)
(0.89316 -0.530628 0)
(0.00200812 0.01508 -3.80074e-21)
(0.948998 0.258424 -1.03934e-21)
(0.75621 0.0761167 3.01973e-21)
(0.195629 0.145485 2.18445e-21)
(0.70266 -0.484355 0)
(0.785395 -0.489929 0)
(0.788678 0.150044 0)
(0.0967025 0.0748028 -3.87944e-21)
(-0.00322064 0.00273557 0)
(0.378771 -0.188358 -9.59297e-22)
(0.370592 0.177852 1.99875e-22)
(0.770693 -0.399674 -1.15667e-22)
(-0.0174173 -0.00121269 4.47176e-21)
(0.75015 0.34389 9.32572e-22)
(0.45851 0.109195 5.14147e-21)
(0.160361 -0.0478178 -4.99063e-21)
(0.556283 -0.212844 -2.19921e-21)
(0.908044 -0.500047 -3.1723e-21)
(0.936789 0.297083 1.66885e-21)
(-0.0139986 0.00252006 0)
(-0.0065772 0.00691008 3.96559e-21)
(0.961187 0.268304 0)
(0.872789 -0.524343 2.42651e-21)
(0.863086 0.351881 2.32958e-21)
(-0.00747729 -0.0169183 -1.18982e-20)
(0.967712 -0.426294 -3.44606e-21)
(0.054777 -0.0713687 8.87395e-21)
(0.996191 -0.321461 -2.23991e-21)
(0.783725 0.410188 0)
(0.500027 0.332604 1.13816e-20)
(0.784964 -0.111205 -5.22591e-21)
(0.377141 -0.315566 5.68011e-21)
(0.911603 -0.24771 -8.03086e-22)
(0.684107 0.385056 -3.57283e-21)
(0.15327 -0.147213 5.45691e-21)
(0.0496526 -0.0686885 7.93042e-21)
(0.788028 0.436972 0)
(1.02915 -0.314706 1.23535e-21)
(0.511335 0.244918 1.83394e-21)
(0.550624 0.268788 0)
(0.702718 -0.183119 5.87026e-21)
(0.744475 -0.203563 -6.27671e-21)
(0.215298 -0.157567 -3.84788e-21)
(0.193836 -0.152111 0)
(0.480095 0.238766 1.79701e-21)
(0.685677 -0.1583 0)
(0.252148 -0.184401 -1.80983e-21)
(0.609793 0.360763 0)
(0.848289 -0.197327 4.92596e-21)
(0.223335 -0.197437 -1.2599e-21)
(0.820275 -0.505043 2.98327e-21)
(0.826236 0.169932 -2.70902e-21)
(0.0751965 0.0610175 8.46623e-21)
(0.917193 -0.504709 0)
(0.916668 0.286304 -5.8297e-22)
(-0.00611381 0.00788805 0)
(0.044796 0.0375133 2.73156e-21)
(0.840818 0.20661 1.64689e-21)
(0.85427 -0.49543 1.90964e-21)
(0.720154 -0.322033 -9.66048e-23)
(-0.0127373 0.00507357 -5.96568e-24)
(0.643948 0.348538 0)
(0.366887 0.14867 -3.57695e-21)
(0.376514 0.139449 0)
(0.28897 -0.172657 9.01457e-22)
(0.562245 -0.108739 -1.22655e-20)
(0.264227 -0.150778 -1.1407e-21)
(0.552747 -0.124831 7.85007e-21)
(0.554223 0.322844 0)
(0.51268 0.296565 1.16199e-21)
(0.286713 -0.23005 -1.59116e-23)
(0.791108 -0.169876 -3.28681e-21)
(0.259921 -0.212976 -9.19766e-21)
(0.752462 -0.149705 7.06836e-21)
(0.667519 -0.400295 0)
(-0.0154016 -0.00614956 -8.0885e-21)
(0.741076 0.286523 0)
(0.916172 -0.495454 2.0812e-21)
(0.929179 0.29849 -5.68184e-22)
(-0.0132569 0.00198929 -2.39219e-21)
(0.390643 0.232617 2.18453e-21)
(0.416068 -0.308866 4.18043e-21)
(0.677574 -0.0716653 -9.74026e-21)
(0.784167 -0.521354 -6.59796e-21)
(0.818034 0.127854 -6.89475e-21)
(0.12694 0.10266 0)
(0.0694006 -0.084077 -9.48962e-21)
(0.987676 -0.309317 2.38274e-21)
(0.77051 0.409597 0)
(0.850023 -0.431753 0)
(0.83557 0.351882 0)
(-0.0222277 -0.00378077 0)
(0.863175 -0.44848 0)
(0.864823 0.342374 -2.12258e-21)
(-0.0235938 -0.00521921 0)
(0.650289 0.34093 3.46901e-21)
(0.856295 -0.246921 -1.75083e-21)
(0.148938 -0.135055 -2.59816e-21)
(0.266603 0.126572 1.03412e-21)
(0.449346 -0.276709 0)
(0.566489 -0.0159743 -3.39699e-21)
(0.868894 0.362488 -2.71431e-21)
(-0.0112277 -0.0154678 -6.89839e-21)
(0.976003 -0.427029 4.90474e-21)
(0.816991 -0.459417 0)
(0.783385 0.193582 0)
(0.0569282 0.0391529 -9.17178e-21)
(0.0198269 -0.0375646 -2.27898e-21)
(0.946496 -0.381868 -3.93242e-21)
(0.803845 0.347031 -8.13186e-21)
(0.488177 0.288122 -1.18368e-21)
(0.319107 -0.253207 6.16894e-21)
(0.737193 -0.132705 -3.67098e-21)
(0.637982 0.0693038 6.09228e-21)
(0.617469 -0.375457 -3.41819e-21)
(0.172285 0.0962609 -7.88024e-21)
(0.335603 0.167016 -7.45496e-23)
(0.385362 -0.256428 1.23545e-21)
(0.597002 -0.0660459 4.06798e-21)
(-0.0162445 -0.00987811 2.68728e-21)
(0.96254 -0.44637 -1.96617e-21)
(0.884733 0.352244 -2.75529e-21)
(0.754013 0.338882 1.54922e-21)
(0.918076 -0.341947 1.27574e-21)
(0.0504295 -0.0596266 0)
(0.31947 0.126625 3.87901e-21)
(0.337598 -0.196636 -7.86952e-21)
(0.53747 -0.0747619 6.74059e-21)
(0.791252 0.443647 -2.32781e-21)
(0.0380064 -0.0575309 -3.49768e-21)
(1.03922 -0.319426 -1.29148e-22)
(0.456231 0.195319 2.23085e-21)
(0.633216 -0.167672 0)
(0.22161 -0.148089 0)
(0.510408 0.0657985 9.16347e-21)
(0.532699 -0.261321 -2.12794e-21)
(0.160326 0.0280893 0)
(0.777473 -0.463462 0)
(0.7623 0.152297 -5.89299e-21)
(0.0889146 0.0643238 4.06315e-21)
(0.784028 0.419905 0)
(-0.00865053 -0.00983887 1.08042e-21)
(0.986851 -0.357995 -3.93988e-22)
(0.780965 0.429767 -2.01824e-21)
(-0.00235365 -0.0151912 -3.4397e-21)
(1.00516 -0.344959 7.49105e-22)
(0.0259205 -0.0453459 -2.06645e-21)
(0.959242 -0.368225 2.15202e-21)
(0.80014 0.362179 7.49824e-21)
(0.663654 0.056789 2.70897e-21)
(0.627818 -0.403138 6.8714e-21)
(0.1941 0.117439 0)
(-0.0113151 -0.00295415 -9.89726e-22)
(0.955583 -0.348932 3.72e-22)
(0.749396 0.413274 0)
(0.00727908 -0.00760751 0)
(0.915517 -0.43825 2.31177e-21)
(0.836279 0.292767 9.11165e-22)
(-0.00837769 -0.00160959 -4.04127e-21)
(0.538961 -0.329905 2.58617e-22)
(0.57938 0.238644 0)
(0.519889 0.30597 5.78718e-22)
(0.593817 -0.258423 0)
(-0.00834522 0.00620149 -4.03486e-21)
(0.0445736 -0.063532 9.67918e-24)
(1.01586 -0.327596 2.34104e-22)
(0.793428 0.424191 0)
(-0.0224573 -0.00638269 0)
(0.938316 -0.455334 0)
(0.894021 0.351896 -3.29972e-21)
(0.840326 0.389451 2.49469e-21)
(0.833487 0.378728 -2.01813e-21)
(0.00237276 -0.0297115 3.88676e-21)
(0.998125 -0.387909 3.6381e-22)
(0.00625215 -0.0325224 0)
(0.985778 -0.388249 0)
(0.84203 0.276014 -1.78727e-21)
(0.904675 -0.453148 -1.59342e-21)
(0.00946328 0.000529366 0)
(0.162345 0.129262 0)
(0.75489 -0.522887 0)
(0.806498 0.103896 0)
(0.370989 0.107471 -4.84541e-21)
(0.242112 -0.116841 1.09762e-20)
(0.514104 -0.131693 -4.34804e-21)
(0.829144 0.23318 -5.16422e-21)
(0.867868 -0.471137 -6.38484e-22)
(0.0275685 0.0199263 -8.03678e-21)
(0.0406811 0.0304869 -5.22906e-21)
(0.821341 0.215528 7.18188e-21)
(0.850108 -0.476949 8.85375e-22)
(0.772482 0.444827 -2.85341e-21)
(0.0720937 -0.088085 -3.78888e-21)
(1.02739 -0.293221 0)
(0.567574 0.339029 0)
(0.812216 -0.170592 -1.46267e-21)
(0.261014 -0.220764 9.016e-21)
(0.513452 0.2767 0)
(0.733502 -0.160133 -7.34518e-21)
(0.262324 -0.208105 1.34943e-23)
(0.749609 0.220853 7.14383e-21)
(0.823494 -0.415289 -8.36039e-22)
(0.0424242 0.00584865 4.6275e-21)
(0.768639 0.216523 0)
(0.828446 -0.432489 -7.93928e-22)
(0.0426565 0.0149177 -4.23962e-21)
(0.299063 0.103121 0)
(0.341483 -0.185318 1.24029e-20)
(0.50714 -0.0646942 0)
(0.561373 0.285079 0)
(0.761477 -0.202023 4.01113e-21)
(0.198336 -0.163543 -1.3797e-21)
(0.0119683 0.0228197 8.2315e-21)
(0.881266 -0.542345 4.22973e-21)
(0.955253 0.243285 0)
(0.883218 0.324711 4.27145e-23)
(-0.0226859 -0.00632453 -2.49217e-21)
(0.832848 -0.460234 -4.75653e-22)
(0.875328 0.30585 1.67056e-22)
(-0.0213089 -0.00762445 0)
(0.799163 -0.458255 1.25926e-21)
(0.409808 0.203428 -2.64902e-21)
(0.30873 -0.211192 1.33665e-21)
(0.632098 -0.116903 1.32499e-22)
(0.798097 -0.418843 -1.70729e-22)
(-0.0202478 -0.00386278 -1.02662e-20)
(0.808296 0.337936 0)
(0.777008 0.361341 -6.58921e-21)
(0.0426253 -0.0572159 0)
(0.947238 -0.347796 0)
(-0.0191164 -0.00621271 4.07572e-21)
(0.751908 -0.428675 3.17403e-22)
(0.80494 0.30983 -1.12562e-21)
(0.408646 0.0417291 -6.42923e-21)
(0.205095 -0.0223955 -6.69372e-21)
(0.448479 -0.167855 -2.95738e-23)
(0.612542 0.216532 1.11603e-21)
(0.739629 -0.29475 9.56639e-22)
(0.0934817 -0.0537613 4.22111e-21)
(0.586296 -0.387123 -7.92377e-21)
(0.652642 0.034677 -9.88442e-21)
(0.225265 0.136211 0)
(-0.0149675 -4.32987e-06 0)
(0.873222 -0.504255 6.79579e-22)
(0.947099 0.289118 0)
(0.804261 -0.471172 0)
(0.785635 0.178167 0)
(0.0687278 0.050168 0)
(0.0215518 -0.0428318 0)
(0.80398 0.435004 2.0267e-21)
(1.03374 -0.336906 -1.13236e-21)
(0.650691 0.234 0)
(0.772679 -0.318169 -4.92906e-22)
(0.0765649 -0.0456556 -2.34792e-24)
(0.358342 0.0895682 4.68094e-21)
(0.245792 -0.107715 -9.43177e-21)
(0.489239 -0.124795 0)
(0.89947 -0.494682 2.99902e-21)
(0.931268 0.309067 -1.5855e-21)
(-0.0182946 -0.00123353 0)
(0.00544612 -0.0205295 4.74059e-21)
(0.937124 -0.418376 -1.44393e-22)
(0.830183 0.324824 -1.90175e-22)
(0.817586 0.402723 0)
(0.806479 0.400523 -1.72057e-21)
(-0.0152888 -0.00777548 -2.48847e-21)
(-0.0174025 -0.00456754 3.08104e-21)
(0.967839 -0.387028 3.71177e-22)
(0.947899 -0.389509 -3.05256e-22)
(0.618347 0.133008 0)
(0.669551 -0.349252 -6.54796e-21)
(0.104489 0.0260584 -5.16799e-21)
(0.772012 -0.418202 -8.70592e-21)
(0.726101 0.171862 0)
(0.0703423 0.0346406 5.63669e-21)
(0.473163 0.079167 5.22057e-21)
(0.529148 -0.230129 -3.60826e-21)
(0.15572 -0.00830999 -8.19566e-21)
(0.85889 -0.478389 -1.40171e-21)
(0.911974 0.316909 -1.60166e-21)
(0.843728 -0.487223 6.01784e-22)
(-0.0221027 -0.00550618 2.63984e-21)
(0.923469 0.30037 1.50296e-21)
(-0.0197505 -0.00540033 0)
(0.726643 0.270483 0)
(0.846398 -0.365033 0)
(0.0448329 -0.0324943 -5.20714e-21)
(0.919269 0.32252 -1.82677e-21)
(0.91184 0.325482 4.67247e-21)
(0.906633 -0.481641 -9.16704e-22)
(0.889218 -0.474378 2.59908e-21)
(-0.0217173 -0.00380942 -6.97886e-21)
(-0.0229656 -0.00492662 1.15376e-23)
(0.706368 0.155245 0)
(0.743681 -0.418269 8.30893e-21)
(0.0898311 0.0500012 -7.31023e-21)
(0.57347 0.154266 -4.85519e-21)
(0.693531 -0.306769 5.86172e-21)
(0.0922042 -0.0235894 0)
(0.802746 0.430745 0)
(0.00296866 -0.0238356 -4.76454e-22)
(1.01904 -0.352457 -7.19651e-22)
(0.619333 0.152095 -3.57411e-21)
(0.687826 -0.338983 0)
(0.092493 0.0109707 8.53887e-21)
(0.506764 0.103486 -2.11635e-21)
(0.577573 -0.259854 4.23406e-21)
(0.135585 -0.00977497 -4.74028e-21)
(0.804534 0.411823 0)
(-0.0106346 -0.0107877 0)
(0.98806 -0.375246 1.06201e-21)
(0.65808 0.255267 0)
(0.800187 -0.309754 -9.69235e-22)
(0.0764991 -0.0589391 5.15869e-21)
(0.68802 -0.491527 0)
(0.761847 0.0614547 0)
(0.22375 0.16865 2.80834e-22)
(0.48814 0.299932 2.9107e-22)
(0.749471 -0.121528 0)
(0.340046 -0.274734 -4.71956e-21)
(0.847806 -0.551592 -3.28236e-21)
(0.0713994 0.0664079 0)
(0.894823 0.179763 0)
(-0.00618217 0.00260446 9.70866e-21)
(0.503229 -0.253683 1.34352e-21)
(0.489347 0.236701 -2.79928e-22)
(0.634607 0.189974 0)
(0.726168 -0.32794 -3.59478e-21)
(0.0786201 -0.0187741 0)
(0.828221 0.413182 -3.86754e-21)
(0.000279853 -0.0256722 -1.30713e-20)
(1.01196 -0.372157 2.29077e-21)
(0.45148 -0.363228 0)
(0.752812 -0.0703213 3.51349e-21)
(0.430856 0.293199 0)
(0.623512 0.361528 0)
(-0.0132677 0.00750532 2.38613e-21)
(0.761169 -0.310745 0)
(0.216445 0.0835893 -5.09128e-21)
(0.227811 0.10309 5.20518e-21)
(0.473595 -0.268536 0)
(0.533711 0.0114103 -4.32989e-21)
(0.491567 -0.293989 7.84521e-21)
(0.562635 0.007744 3.44349e-21)
(0.474931 0.0581652 -4.91407e-21)
(0.501985 -0.227788 -4.89004e-21)
(0.170167 0.0120542 0)
(0.278333 0.118825 -4.50442e-21)
(0.24647 0.0959697 0)
(0.405639 -0.241636 0)
(0.542599 -0.0368778 0)
(0.423652 -0.239443 4.56512e-21)
(0.522542 -0.0168905 -2.54292e-23)
(0.604704 0.178122 -3.06051e-22)
(0.655885 -0.299231 2.60394e-21)
(0.105098 -0.0115579 5.83406e-21)
(0.579762 0.141866 8.35354e-21)
(0.6553 -0.310269 0)
(0.106504 0.00176871 0)
(-0.0196887 -0.00762923 0)
(0.801388 -0.476762 0)
(0.905398 0.293364 -1.22478e-21)
(0.443831 0.213836 7.28506e-21)
(0.649104 -0.139967 0)
(0.269227 -0.186996 -2.47525e-21)
(0.908079 0.333954 4.51358e-21)
(0.930202 -0.472846 -1.33176e-21)
(-0.0218262 -0.00443705 3.98384e-21)
(0.76383 0.247092 0)
(0.792406 0.261778 -3.79323e-21)
(0.851014 -0.409169 1.04235e-21)
(0.875545 -0.422562 -3.07306e-21)
(0.0313789 -0.00473683 5.72825e-21)
(0.0224614 -0.00432868 5.28306e-21)
(0.432623 0.192302 0)
(0.623797 -0.146462 0)
(0.252705 -0.168431 -1.18183e-21)
(0.598462 0.326024 -2.80981e-21)
(0.813745 -0.206977 0)
(0.202391 -0.172271 -3.00801e-21)
(0.706271 0.229805 2.04519e-21)
(0.804625 -0.37405 0)
(0.0487584 -0.0132919 -5.27494e-21)
(0.312243 0.0439395 -5.05204e-21)
(0.429994 -0.0859329 -2.42102e-21)
(0.281891 -0.108606 -2.5413e-21)
(0.805376 0.238463 0)
(0.862134 -0.449659 0)
(0.0282271 0.0123442 8.54624e-21)
(0.348682 0.111103 0)
(0.274122 -0.142883 -1.37923e-21)
(0.515272 -0.109383 0)
(0.699879 0.171799 4.63538e-21)
(0.752673 -0.401521 4.62541e-21)
(0.0746301 0.0256004 7.32754e-22)
(0.596734 0.307517 -2.83928e-21)
(0.799134 -0.218962 -4.57097e-21)
(0.180485 -0.154533 0)
(0.318696 0.0665815 5.00658e-21)
(0.3015 0.0694095 2.23477e-21)
(0.457748 -0.0938534 -2.35169e-21)
(0.280812 -0.122866 5.03808e-21)
(0.46452 -0.0781016 0)
(0.30651 -0.145006 8.93953e-21)
(0.269592 0.0851115 2.25579e-21)
(0.368379 -0.197449 -5.76873e-21)
(0.249618 0.0846962 -1.45158e-21)
(0.493367 -0.0429015 0)
(0.413635 -0.2263 -2.93441e-21)
(0.507186 -0.021195 4.95402e-21)
(0.500567 0.225069 -2.64237e-21)
(0.535637 0.233278 0)
(0.680193 -0.189641 -4.46011e-21)
(0.703677 -0.215328 3.481e-21)
(0.199645 -0.140344 1.11299e-20)
(0.168273 -0.118166 -9.26512e-21)
(0.0440532 -0.0623187 0)
(0.981292 -0.337555 1.27466e-21)
(0.788191 0.392265 3.79524e-21)
(0.245716 0.179126 -9.50671e-21)
(0.735355 0.0418524 -4.09391e-21)
(0.64906 -0.465127 8.04869e-21)
(0.0284869 -0.0504079 4.43837e-21)
(0.0193227 -0.0428785 0)
(0.991671 -0.355463 -1.10257e-21)
(0.980489 -0.371029 -1.96742e-21)
(0.806151 0.396756 -9.58958e-21)
(0.815348 0.38139 4.96258e-21)
(0.340406 0.221789 0)
(0.499565 -0.365309 4.5146e-21)
(0.686334 -0.0303811 -9.70069e-22)
(0.319457 0.00416615 -1.06271e-20)
(0.283282 -0.0712768 0)
(0.380002 -0.0803016 8.30273e-21)
(0.814603 0.258458 1.77261e-21)
(0.881212 -0.444192 3.46906e-21)
(0.0194934 0.00377228 0)
(0.392085 0.168629 0)
(0.281485 -0.183023 1.12608e-21)
(0.590386 -0.11973 3.9637e-21)
(0.618958 0.314238 0)
(0.817305 -0.234721 0)
(0.160017 -0.139029 7.24285e-22)
(0.752705 0.391515 0)
(0.751414 0.375449 0)
(0.961137 -0.306202 -7.64236e-22)
(0.0790899 -0.0893523 5.47197e-21)
(0.946817 -0.314761 2.08094e-21)
(0.0707449 -0.0808261 -7.41242e-21)
(0.754606 0.272781 -3.83734e-21)
(0.866209 -0.383854 -3.30721e-21)
(0.0322369 -0.0229376 -2.49173e-21)
(0.684504 0.372654 -1.45549e-21)
(0.816495 -0.339439 0)
(-0.0154754 0.00504999 2.94568e-21)
(0.475223 -0.37238 0)
(0.730117 -0.0539179 -2.85602e-21)