/*--------------------------------*- C++ -*----------------------------------*\
  =========                 |
  \\      /  F ield         | OpenFOAM: The Open Source CFD Toolbox
   \\    /   O peration     | Website:  https://openfoam.org
    \\  /    A nd           | Version:  6
     \\/     M anipulation  |
\*---------------------------------------------------------------------------*/
FoamFile
{
    version     2.0;
    format      ascii;
    class       volScalarField;
    location    "0";
    object      P_rec;
}
// * * * * * * * * * * * * * * * * * * * * * * * * * * * * * * * * * * * * * //

dimensions      [0 2 -2 0 0 0 0];

internalField   nonuniform List<scalar> 
13046
(
0.98125
0.933365
0.935082
0.992982
0.956173
0.928845
0.980942
0.924536
0.951956
0.766941
0.395097
0.891407
0.985281
0.87487
0.925961
0.822749
0.87325
0.471932
0.98373
0.94783
0.974654
0.814078
0.879741
0.460984
0.984413
0.957722
0.941402
0.971188
0.873935
0.919578
0.988168
0.913006
0.924115
0.987135
0.957773
0.956702
0.984167
0.964233
0.963061
0.968554
0.907052
0.927558
0.971683
0.981073
0.97169
0.982455
0.968536
0.960267
0.97551
0.921645
0.937087
0.857121
0.950867
0.894799
0.857385
0.889037
0.950247
0.690154
0.922525
0.864934
0.944611
0.799864
0.927984
0.894638
0.587836
0.869899
0.928508
0.711389
0.859234
0.938579
0.73866
0.860901
0.647854
0.910659
0.863656
0.982656
0.951582
0.965049
0.869877
0.891014
0.612616
0.983587
0.945787
0.940672
0.890484
0.544557
0.844878
0.84924
0.910612
0.604033
0.91699
0.800242
0.585752
0.941458
0.929697
0.763464
0.735171
0.901161
0.904362
0.91434
0.851103
0.623247
0.988195
0.970093
0.951563
0.957489
0.922628
0.874321
0.957581
0.889415
0.920257
0.651268
0.892251
0.239276
0.986859
0.897279
0.926808
0.925968
0.93813
0.71132
0.888365
0.752473
0.891849
0.744356
0.353809
0.889663
0.967728
0.809231
0.912645
0.970386
0.907663
0.918133
0.918801
0.815849
0.624656
0.908831
0.684943
0.906573
0.985026
0.895067
0.916151
0.966353
0.887611
0.942624
0.950997
0.87536
0.924522
0.95843
0.941986
0.893726
0.941859
0.771926
0.925528
0.966103
0.960087
0.911501
0.820518
0.895637
0.801753
0.894211
0.941625
0.938769
0.96393
0.863646
0.948764
0.756198
0.895735
0.405859
0.690999
0.891037
0.276725
0.901434
0.656395
0.901428
0.967807
0.869195
0.890309
0.964802
0.953162
0.876363
0.902218
0.458408
0.776215
0.967411
0.890442
0.889005
0.963485
0.947698
0.897301
0.97165
0.898024
0.945238
0.853493
0.931193
0.970499
0.836004
0.913132
0.838032
0.903231
0.556153
0.918706
0.845051
0.643358
0.804066
0.567169
0.914636
0.837954
0.859506
0.94217
0.976022
0.897638
0.861579
0.616544
0.529596
0.799695
0.911815
0.982063
0.965808
0.955523
0.97352
0.888533
0.914387
0.920007
0.83214
0.646971
0.97099
0.861543
0.936081
0.897262
0.332585
0.697739
0.940792
0.862899
0.824635
0.82768
0.606554
0.915605
0.921754
0.833026
0.945298
0.957653
0.81191
0.910129
0.710334
0.841724
0.923295
0.879713
0.777682
0.932875
0.900328
0.321482
0.674179
0.965373
0.888688
0.900652
0.669699
0.883966
0.196423
0.973904
0.983687
0.942102
0.938416
0.936397
0.832862
0.847412
0.946404
0.937532
0.863175
0.878277
0.576184
0.964823
0.836885
0.902429
0.8775
0.748801
0.930236
0.91248
0.693679
0.895704
0.974133
0.967704
0.977733
0.913028
0.808262
0.939097
0.96527
0.821307
0.897774
0.971344
0.970747
0.964913
0.877297
0.880563
0.911896
0.78737
0.934602
0.892904
0.894715
0.664841
0.969486
0.894209
0.917841
0.940981
0.876169
0.807799
0.934266
0.740519
0.880109
0.95344
0.862393
0.883712
0.920561
0.919861
0.709876
0.878052
0.695174
0.883394
0.898857
0.484139
0.793498
0.942943
0.778769
0.893529
0.136666
0.892419
0.578453
0.978418
0.966924
0.909045
0.95551
0.824139
0.928845
0.903155
0.857705
0.596053
0.84259
0.874852
0.94724
0.683486
0.839751
0.921801
0.891099
0.934813
0.94346
0.811846
0.91931
0.880623
0.944494
0.846956
0.874168
0.513227
0.843477
0.835832
0.943956
0.934708
0.787513
0.913038
0.955849
0.872767
0.947396
0.919452
0.86436
0.954626
0.987682
0.922849
0.943666
0.938487
0.879422
0.81872
0.821253
0.558331
0.907513
0.686697
0.840573
0.923544
0.936959
0.860594
0.783812
0.90552
0.914552
0.686248
0.651374
0.86698
0.871306
0.890764
0.157814
0.609737
0.69188
0.882281
0.224795
0.933856
0.816642
0.932858
0.900943
0.82769
0.52174
0.935781
0.936359
0.762553
0.742216
0.876149
0.87339
0.911934
0.466295
0.742337
0.652736
0.882724
0.156284
0.965699
0.983437
0.956993
0.647214
0.201852
0.890419
0.968619
0.859342
0.885876
0.786314
0.477293
0.904853
0.14198
0.901759
0.512191
0.970685
0.911407
0.943374
0.980635
0.947268
0.962849
0.746095
0.886571
0.345614
0.975158
0.931183
0.960895
0.969325
0.981636
0.96485
0.942744
0.848201
0.817992
0.966122
0.941075
0.973859
0.979651
0.910848
0.971283
0.941459
0.80241
0.858432
0.883791
0.890092
0.455171
0.4484
0.802106
0.795848
0.793823
0.529454
0.906531
0.863911
0.935374
0.754242
0.962305
0.886222
0.905592
0.864251
0.769375
0.928765
0.242243
0.905278
0.568259
0.914961
0.793135
0.558268
0.709544
0.892717
0.317081
0.902105
0.109343
0.499262
0.0717978
0.895431
0.536634
0.758305
0.910324
0.924396
0.372852
0.910345
0.669595
0.891476
0.670599
0.908755
0.794959
0.866833
0.382654
0.982246
0.934117
0.911551
0.500327
0.912852
0.765662
0.866659
0.930868
0.785144
0.737567
0.878811
0.929531
0.902244
-0.0216923
0.414455
0.163223
0.896508
0.55965
0.987114
0.945776
0.919937
0.450606
0.735174
0.908759
0.911646
0.709645
0.438763
0.822998
0.893597
0.518081
0.870504
0.574011
0.870113
0.947954
0.79975
0.857102
0.704702
0.925068
0.873456
0.866747
0.853878
0.501257
0.968579
0.964676
0.861237
0.836649
0.898414
0.898579
0.968892
0.872991
0.895385
0.943882
0.75924
0.874059
0.709537
0.859287
0.925075
0.5183
0.795835
0.908616
0.921
0.863416
0.680874
0.0856093
0.893013
0.565661
0.983168
0.982863
0.923222
0.930318
0.931271
0.933585
0.958094
0.947804
0.878202
0.804023
0.875633
0.835748
0.166487
0.903629
0.512444
0.469486
0.753935
0.908251
0.952985
0.864756
0.871088
0.73551
0.851665
0.927271
0.869007
0.597511
0.881176
0.243001
0.628156
0.898968
0.279796
0.644886
0.900604
0.941771
0.756871
0.88321
0.970474
0.892556
0.932257
0.810292
0.892683
0.479242
0.737194
0.893037
0.925093
0.894157
0.621547
0.885171
0.949572
0.878368
0.845158
0.926721
0.845368
0.947115
0.96723
0.898407
0.919501
0.895785
0.458848
0.790047
0.911789
0.684365
0.888952
0.978043
0.920348
0.942891
0.8329
0.863775
0.455349
0.972073
0.900276
0.91442
0.972187
0.900723
0.958517
0.759097
0.894988
0.930488
0.736426
0.875818
0.281966
0.754497
0.872165
0.303047
0.888711
0.610921
0.88375
0.910747
0.844967
0.943324
0.874874
0.230141
0.705413
0.907484
0.631111
0.876716
0.902802
0.0850528
0.460918
0.513978
0.0336618
0.892641
0.871597
0.523823
0.859624
0.898389
0.38401
0.732635
0.829194
0.844707
0.88241
0.489658
0.885329
0.532124
0.864765
0.637688
0.910443
0.932205
0.751193
0.841357
0.991448
0.937179
0.936142
0.878033
0.672743
0.918726
0.921537
0.885297
0.693673
0.866061
0.863402
0.528106
0.953015
0.781294
0.872124
0.960186
0.838417
0.87882
0.914749
0.749585
0.920113
0.907741
0.736541
0.922025
0.980405
0.919783
0.954191
0.962621
0.823769
0.89741
0.913673
0.512038
0.756768
0.626264
0.904069
0.287136
0.601796
0.90693
0.278643
0.969995
0.90263
0.901228
0.208544
0.900757
0.585837
0.898724
0.88662
0.641379
0.902456
0.214358
0.557437
0.991121
0.963099
0.937408
0.964883
0.837227
0.919946
0.850797
0.907929
0.94784
0.910649
0.399646
0.697189
0.735967
0.894469
0.927303
0.867815
0.817715
0.433348
0.951734
0.815251
0.916727
0.992372
0.944525
0.943413
0.408346
0.718552
0.906648
0.899513
0.60875
0.874117
0.727177
0.703836
0.883268
0.884947
0.302238
0.268214
0.950775
0.850744
0.942349
0.780775
0.919697
0.927364
0.972593
0.915141
0.954096
0.333709
0.656994
0.340945
0.904789
0.655388
0.907514
0.932839
0.747648
0.912216
0.714732
0.685392
0.385677
0.350234
0.904763
0.904916
0.917169
0.799626
0.935534
0.964296
0.85483
0.929602
0.778778
0.872332
0.360535
0.963902
0.840738
0.93901
0.976655
0.894231
0.947202
0.741913
0.877199
0.310606
0.955051
0.78989
0.906636
0.792772
0.847525
0.932882
0.951252
0.826608
0.870496
0.645954
0.918749
0.813932
0.900016
0.0108166
0.446294
0.952236
0.831694
0.926024
0.796468
0.877959
0.415412
0.851622
0.817954
0.945752
0.583435
0.885523
0.0966016
0.964932
0.960254
0.899292
0.94933
0.894508
0.945628
0.978139
0.911943
0.959999
0.967449
0.970003
0.90606
0.950105
0.920252
0.949302
0.959039
0.866832
0.941451
0.968075
0.866878
0.943322
0.907685
0.305216
0.613027
0.971399
0.892152
0.897544
0.740645
0.409053
0.901361
0.91063
0.898621
0.727113
0.694079
0.914501
0.91166
0.969931
0.912087
0.907661
0.945258
0.787828
0.877616
0.933529
0.773101
0.920215
0.985066
0.961261
0.947867
0.894249
0.696713
0.918233
0.984599
0.926243
0.944889
0.93153
0.800739
0.933013
0.947267
0.804398
0.880458
0.982893
0.981112
0.957345
0.948151
0.962503
0.940957
0.975802
0.915434
0.974346
0.961767
0.933238
0.956427
0.972331
0.973029
0.873618
0.863761
0.906845
0.902864
0.875439
0.589272
0.880688
0.935221
0.860722
0.810177
0.879751
0.883587
0.553444
0.564679
0.863657
0.862377
0.949777
0.860809
0.869018
0.98369
0.964263
0.966657
0.8907
0.675868
0.914467
0.980384
0.912892
0.91325
0.945506
0.789619
0.882536
0.904768
0.908632
0.63916
0.876411
0.654843
0.879651
0.918238
0.723372
0.908998
0.612405
0.135954
0.885771
0.848405
0.837874
0.944826
0.944597
0.948231
0.855241
0.819593
0.866221
0.839138
0.874347
0.705729
0.92417
0.946337
0.809622
0.880865
0.953988
0.857541
0.85782
0.94875
0.959855
0.871852
0.886313
0.867216
0.862025
0.947098
0.872586
0.845167
0.921689
0.73899
0.914722
0.982055
0.92908
0.955125
0.764674
0.882365
0.369887
0.952048
0.857398
0.841928
0.954131
0.946453
0.793431
0.770654
0.885545
0.890635
0.881349
0.412413
0.789941
0.784238
0.876529
0.37847
0.763283
0.878495
0.34867
0.89755
0.880955
0.6302
0.952503
0.831908
0.887331
0.400174
0.545419
0.777027
0.405127
0.709541
0.221983
0.639218
0.497808
0.346286
0.704621
0.702161
0.315353
0.402979
0.69483
0.54276
0.404888
0.440375
0.50583
0.547404
0.662738
0.581772
0.493723
0.724492
0.863259
0.794425
0.550848
0.724621
0.331741
0.602303
0.395209
0.347352
0.638447
0.560143
0.568603
0.385505
0.580572
0.774353
0.718763
0.4581
0.579365
0.465314
0.885827
0.411283
0.695329
0.735994
0.497857
0.506155
0.437719
0.32384
0.412621
0.801286
0.59075
0.407111
0.482645
0.342911
0.796783
0.662357
0.568882
0.429194
0.683924
0.407748
0.421353
0.796983
0.518516
0.569522
0.666129
0.593428
0.83743
0.721198
0.689016
0.291586
0.337979
0.46444
0.683097
0.324075
0.569112
0.535598
0.378236
0.668991
0.753871
0.504148
0.560872
0.330344
0.389966
0.489834
0.679343
0.491943
0.437638
0.534189
0.801669
0.407969
0.688117
0.790789
0.573693
0.405941
0.167734
0.384351
0.443129
0.404326
0.288962
0.619801
0.728995
0.746717
0.842322
0.395905
0.418506
0.328773
0.420025
0.3869
0.772089
0.735525
0.664004
0.373103
0.342785
0.593688
0.70934
0.514882
0.437311
0.269931
0.49994
0.559082
0.807136
0.831451
0.687356
0.565078
0.469917
0.315746
0.821235
0.36352
0.679656
0.280907
0.793434
0.331235
0.371579
0.386465
0.752719
0.558072
0.241089
0.402035
0.645613
0.4018
0.686668
0.604031
0.423778
0.730672
0.478679
0.3843
0.764041
0.410222
0.517611
0.317219
0.570747
0.454002
0.751381
0.687879
0.506109
0.681467
0.686615
0.776017
0.542012
0.458699
0.417961
0.679377
0.362894
0.579752
0.335055
0.865764
0.501513
0.743417
0.824312
0.585481
0.826821
0.757238
0.777473
0.360476
0.274085
0.31475
0.779292
0.36514
0.34312
0.360651
0.345219
0.514882
0.475215
0.584941
0.823299
0.686922
0.470959
0.674624
0.459438
0.878439
0.339082
0.723118
0.426617
0.259317
0.81214
0.835737
0.41879
0.44281
0.863094
0.607489
0.460654
0.391631
0.684621
0.769267
0.641463
0.40239
0.431109
0.694153
0.556735
0.395139
0.617488
0.368411
0.360378
0.472531
0.715646
0.277215
0.486695
0.73043
0.484145
0.274127
0.501199
0.409954
0.454606
0.631825
0.644896
0.38738
0.339758
0.380249
0.666246
0.64105
0.517505
0.65267
0.48633
0.366291
0.618615
0.468166
0.256189
0.648847
0.763249
0.599345
0.796223
0.766637
0.884896
0.406771
0.230784
0.530926
0.503728
0.448315
0.285341
0.61425
0.805324
0.668656
0.614844
0.392834
0.519541
0.666155
0.576315
0.62168
0.412326
0.525355
0.46768
0.357377
0.388345
0.42704
0.409473
0.37411
0.648121
0.56173
0.509386
0.655793
0.411251
0.5218
0.414453
0.504242
0.483209
0.453384
0.608247
0.287769
0.22812
0.527495
0.309421
0.282632
0.61506
0.336387
0.281518
0.752676
0.658173
0.396462
0.660708
0.353133
0.64097
0.617014
0.378135
0.410257
0.711318
0.540708
0.670785
0.223697
0.37843
0.753018
0.460167
0.38956
0.204729
0.296093
0.271053
0.303844
0.47893
0.656757
0.367519
0.263366
0.393983
0.446856
0.879768
0.416609
0.681049
0.595751
0.354443
0.474641
0.389555
0.337219
0.635516
0.482149
0.80534
0.639354
0.386336
0.478788
0.592609
0.860512
0.656003
0.77629
0.692776
0.467162
0.590677
0.519215
0.38554
0.295207
0.447313
0.443727
0.631273
0.422546
0.322477
0.406051
0.465827
0.401877
0.433705
0.737317
0.449213
0.430241
0.7859
0.727713
0.386514
0.55782
0.770063
0.438807
0.329577
0.477652
0.372045
0.333977
0.757918
0.4006
0.489428
0.768568
0.286573
0.57538
0.403403
0.586512
0.482104
0.431047
0.18684
0.477305
0.320757
0.468993
0.497179
0.50073
0.660043
0.799784
0.402384
0.547467
0.464519
0.393817
0.252047
0.72463
0.603061
0.474562
0.325413
0.589779
0.314269
0.415704
0.396985
0.382057
0.694908
0.786752
0.460289
0.654413
0.841166
0.733281
0.719283
0.77997
0.452886
0.441319
0.336588
0.861079
0.706329
0.74716
0.431074
0.489573
0.266692
0.668705
0.460026
0.412103
0.74666
0.621041
0.370752
0.472882
0.397791
0.405339
0.404927
0.48104
0.5072
0.357856
0.452756
0.301946
0.475675
0.363802
0.616495
0.54008
0.278211
0.775327
0.793077
0.688677
0.457324
0.583411
0.338771
0.705872
0.581564
0.319375
0.768899
0.282874
0.80809
0.30854
0.514509
0.51483
0.688691
0.68906
0.403973
0.83039
0.416043
0.735571
0.51382
0.620996
0.444169
0.398005
0.434976
0.738531
0.505307
0.854937
0.669932
0.294412
0.415444
0.642865
0.297043
0.461718
0.514359
0.356814
0.806439
0.381996
0.362698
0.704669
0.439861
0.804808
0.844693
0.499635
0.852631
0.809861
0.747687
0.754683
0.6045
0.327266
0.407422
0.490539
0.728702
0.480109
0.285179
0.827966
0.370119
0.525107
0.398863
0.780918
0.874953
0.379301
0.734384
0.593108
0.79834
0.478122
0.696194
0.513028
0.825736
0.849911
0.652096
0.403111
0.693815
0.438983
0.5567
0.556855
0.495508
0.599969
0.430214
0.283624
0.339759
0.511177
0.61625
0.559336
0.755542
0.390621
0.458346
0.612105
0.340312
0.790319
0.396024
0.513012
0.768507
0.748055
0.574998
0.837705
0.393288
0.486291
0.694782
0.530214
0.530018
0.514313
0.43742
0.645398
0.669577
0.437229
0.399628
0.579179
0.295459
0.356472
0.797666
0.836017
0.849951
0.503089
0.848734
0.869399
0.812765
0.247745
0.608925
0.602187
0.839235
0.470551
0.402981
0.320192
0.40067
0.262101
0.821502
0.538841
0.549397
0.700989
0.655045
0.45989
0.509706
0.869456
0.815868
0.778313
0.6405
0.46973
0.656704
0.634002
0.471848
0.511063
0.348779
0.400022
0.542762
0.541131
0.439423
0.794919
0.802159
0.254065
0.750273
0.409047
0.404004
0.461499
0.787227
0.495622
0.648629
0.528748
0.781983
0.483793
0.527778
0.842133
0.260589
0.295055
0.391564
0.36475
0.227043
0.138507
0.37435
0.229766
0.548225
0.24808
0.354895
0.540859
0.453946
0.378356
0.44744
0.334453
0.166883
0.80907
0.729092
0.494658
0.320984
0.736737
0.47664
0.401894
0.847862
0.381398
0.840558
0.489824
0.759585
0.501397
0.336628
0.349689
0.553755
0.559354
0.550893
0.339926
0.489579
0.362601
0.36266
0.419801
0.283342
0.340565
0.81901
0.393526
0.676806
0.703256
0.474418
0.713599
0.708269
0.320041
0.145646
0.512797
0.296403
0.234724
0.675572
0.689134
0.496522
0.627918
0.460018
0.842023
0.806487
0.522896
0.448145
0.833245
0.763543
0.621153
0.614254
0.481067
0.847985
0.54038
0.25154
0.78449
0.721428
0.801813
0.567285
0.410204
0.458816
0.692148
0.639459
0.0847133
0.890882
0.509013
0.390984
0.574643
0.748326
0.833536
0.857452
0.624774
0.514046
0.710325
0.762925
0.770636
0.67251
0.728697
0.350276
0.407752
0.577697
0.33676
0.340971
0.280771
0.50555
0.713038
0.301526
0.553048
0.41309
0.730919
0.857979
0.538682
0.330313
0.270922
0.690535
0.448298
0.393285
0.269867
0.78481
0.598145
0.617772
0.310367
0.609873
0.391732
0.403973
0.669062
0.711334
0.785412
0.87282
0.37349
0.760492
0.254578
0.782367
0.803782
0.803251
0.707092
0.357443
0.356832
0.50485
0.250344
0.532457
0.281663
0.586195
0.316235
0.748648
0.477043
0.262927
0.747481
0.676842
0.516419
0.525736
0.668151
0.782633
0.597049
0.542886
0.258243
0.726881
0.561647
0.8121
0.230228
0.545526
0.786612
0.684842
0.837096
0.683613
0.489737
0.21499
0.264423
0.530479
0.290049
0.816806
0.261124
0.424842
0.509762
0.398898
0.708508
0.234971
0.775048
0.695237
0.616571
0.283358
0.620783
0.38612
0.455645
0.536729
0.509607
0.487392
0.475643
0.715451
0.365793
0.844353
0.477164
0.5234
0.654941
0.668176
0.816752
0.489297
0.526732
0.378578
0.510964
0.462883
0.815675
0.399615
0.547369
0.480195
0.723541
0.445757
0.566869
0.334226
0.858608
0.246719
0.356366
0.448965
0.730454
0.267882
0.272927
0.34579
0.320622
0.794082
0.535658
0.651771
0.760209
0.629938
0.553926
0.860843
0.535553
0.672447
0.63684
0.551031
0.280342
0.567872
0.54489
0.426726
0.567384
0.370179
0.294657
0.587401
0.470068
0.365407
0.714162
0.513665
0.650247
0.535977
0.800486
0.503508
0.489914
0.634466
0.320999
0.390175
0.482233
0.555672
0.590888
0.638985
0.786987
0.661826
0.72933
0.580401
0.762471
0.821129
0.822874
0.578908
0.534522
0.591579
0.329759
0.831531
0.758436
0.732375
0.561781
0.362105
0.286078
0.594157
0.682994
0.393124
0.727417
0.752754
0.632441
0.407514
0.556792
0.428231
0.399736
0.56515
0.416752
0.617596
0.270583
0.616833
0.505071
0.524854
0.235965
0.583793
0.56167
0.656403
0.467595
0.607362
0.793886
0.802251
0.625628
0.496133
0.730947
0.582989
0.395558
0.39278
0.506325
0.310337
0.782387
0.524322
0.594752
0.695433
0.676705
0.613473
0.365459
0.843648
0.619385
0.40864
0.538725
0.570401
0.730946
0.790089
0.623789
0.614855
0.271371
0.373212
0.53151
0.626457
0.550169
0.628113
0.43313
0.799144
0.60406
0.700542
0.767041
0.592251
0.3894
0.548549
0.830133
0.467492
0.265112
0.544808
0.83601
0.45161
0.510323
0.720323
0.678094
0.737727
0.551976
0.277369
0.628966
0.332985
0.460065
0.746202
0.548778
0.335649
0.391277
0.448076
0.640415
0.44927
0.417899
0.764949
0.416834
0.862626
0.735403
0.318193
0.219442
0.52355
0.678746
0.764662
0.555014
0.531377
0.395872
0.504426
0.500986
0.871676
0.779511
0.687669
0.449911
0.288399
0.785232
0.851072
0.796475
0.727439
0.77284
0.543045
0.336025
0.246182
0.2677
0.812231
0.567635
0.398974
0.467158
0.8481
0.480227
0.408991
0.302062
0.556025
0.385459
0.843235
0.634165
0.67729
0.783216
0.743069
0.516876
0.656308
0.54627
0.652935
0.460368
0.625623
0.425953
0.814924
0.348132
0.459363
0.399998
0.485796
0.791658
0.486928
0.745536
0.755184
0.780238
0.357888
0.542697
0.528508
0.396828
0.803607
0.565899
0.559847
0.628575
0.241752
0.473174
0.797558
0.658899
0.803603
0.256293
0.353648
0.491129
0.822769
0.425436
0.505134
0.37818
0.36152
0.455789
0.806667
0.483599
0.537416
0.309047
0.835546
0.841521
0.248138
0.796115
0.469682
0.360969
0.359582
0.560206
0.297261
0.613524
0.450713
0.459884
0.492199
0.772068
0.553564
0.740052
0.483556
0.346323
0.484258
0.255752
0.28789
0.539624
0.458458
0.573022
0.367748
0.516872
0.753158
0.608167
0.461381
0.333419
0.771378
0.564139
0.510513
0.86034
0.575296
0.454497
0.45285
0.38211
0.83206
0.429928
0.526831
0.640715
0.314885
0.778402
0.360324
0.761086
0.534985
0.705836
0.381992
0.709357
0.525425
0.32138
0.39548
0.532995
0.782128
0.217777
0.395373
0.488685
0.813941
0.843263
0.389468
0.438737
0.607356
0.82138
0.497001
0.79323
0.76653
0.732158
0.697585
0.61087
0.643137
0.635819
0.80719
0.505819
0.557243
0.387785
0.408761
0.501376
0.364814
0.83367
0.352029
0.785861
0.494379
0.82289
0.440734
0.843309
0.705364
0.753256
0.823199
0.794187
0.856461
0.508073
0.776969
0.528497
0.487663
0.393372
0.370557
0.802785
0.353732
0.638556
0.643337
0.519207
0.613931
0.425979
0.78872
0.58635
0.70389
0.241104
0.391163
0.493046
0.841967
0.398748
0.664325
0.41441
0.492377
0.331305
0.500218
0.478496
0.736759
0.812342
0.299128
0.631358
0.49016
0.447346
0.750165
0.39288
0.405262
0.820029
0.26817
0.563903
0.686374
0.791781
0.852062
0.419962
0.408095
0.311754
0.459588
0.398579
0.486892
0.695406
0.464753
0.328043
0.532357
0.542133
0.443602
0.402642
0.486223
0.553161
0.325913
0.723953
0.707839
0.434317
0.708125
0.334594
0.308676
0.400482
0.261864
0.834277
0.474257
0.476184
0.427414
0.746152
0.807148
0.600092
0.689359
0.412577
0.410704
0.541441
0.476807
0.393851
0.804386
0.584979
0.640227
0.831798
0.722966
0.517602
0.826262
0.294421
0.605575
0.599981
0.645876
0.4781
0.801031
0.467153
0.638338
0.537592
0.440682
0.363592
0.416004
0.706911
0.753166
0.780144
0.548887
0.576077
0.8057
0.714527
0.540931
0.567493
0.348855
0.510962
0.741988
0.294038
0.762572
0.481308
0.775152
0.844633
0.810708
0.473044
0.755054
0.764127
0.301548
0.801216
0.43205
0.817679
0.733573
0.494372
0.369153
0.583215
0.513804
0.476521
0.410614
0.720186
0.437608
0.821919
0.355148
0.42426
0.396147
0.352172
0.477787
0.746529
0.83805
0.350051
0.697645
0.567439
0.640603
0.503508
0.601536
0.799145
0.740245
0.48602
0.7901
0.752871
0.841769
0.348484
0.467889
0.402818
0.696771
0.826317
0.757846
0.526511
0.844197
0.531258
0.30379
0.36737
0.215172
0.50875
0.334342
0.835018
0.864576
0.579318
0.849733
0.745133
0.599552
0.837519
0.349206
0.799421
0.509296
0.805258
0.467671
0.358961
0.694058
0.591613
0.818646
0.793429
0.801146
0.376291
0.378227
0.283104
0.756019
0.737824
0.381993
0.53721
0.739061
0.252735
0.440073
0.375104
0.502118
0.626778
0.495606
0.599762
0.680413
0.571594
0.583303
0.71455
0.469201
0.477117
0.6342
0.577469
0.476799
0.776885
0.80766
0.38438
0.734033
0.240642
0.427344
0.778826
0.719439
0.480932
0.809697
0.341181
0.706239
0.483166
0.479243
0.787034
0.472298
0.711782
0.692369
0.661575
0.866227
0.672927
0.315658
0.651777
0.50396
0.720264
0.868248
0.655791
0.527739
0.392617
0.481409
0.789258
0.341974
0.742068
0.384056
0.589751
0.72039
0.707325
0.574057
0.774187
0.843087
0.46978
0.468807
0.582928
0.36963
0.335757
0.604498
0.695857
0.400204
0.315893
0.404318
0.312356
0.704656
0.524484
0.725268
0.415924
0.80044
0.566314
0.752034
0.831115
0.414869
0.795848
0.458201
0.592527
0.541121
0.761635
0.40701
0.497266
0.550272
0.365712
0.476914
0.352364
0.332014
0.242112
0.831963
0.841884
0.398962
0.418413
0.71809
0.29329
0.397077
0.482043
0.687944
0.695873
0.274604
0.241786
0.79259
0.413772
0.621089
0.406359
0.305456
0.369973
0.580696
0.759756
0.617244
0.302299
0.803282
0.75922
0.390589
0.624118
0.471601
0.830161
0.490735
0.500444
0.321122
0.672409
0.801712
0.642637
0.5873
0.404958
0.516799
0.61314
0.838343
0.854275
0.402447
0.846912
0.413806
0.612037
0.608963
0.538238
0.451845
0.763595
0.483823
0.584853
0.389296
0.444302
0.484131
0.359455
0.658617
0.804774
0.392079
0.43149
0.598287
0.460175
0.409878
0.252649
0.447815
0.759139
0.289109
0.473493
0.67776
0.60441
0.522972
0.664657
0.738963
0.393911
0.397598
0.753893
0.516799
0.377918
0.532056
0.759188
0.662188
0.619109
0.409537
0.422254
0.39785
0.839404
0.758696
0.846425
0.516741
0.683755
0.339382
0.557026
0.76356
0.300555
0.313669
0.709881
0.763818
0.289199
0.430407
0.404805
0.379903
0.400346
0.851481
0.492868
0.425442
0.586751
0.392285
0.690621
0.595183
0.330899
0.431976
0.710916
0.515001
0.84097
0.331808
0.441053
0.633551
0.624794
0.546609
0.627996
0.364361
0.848985
0.79456
0.637732
0.766231
0.404045
0.760412
0.667246
0.627427
0.826665
0.293949
0.445447
0.861778
0.67061
0.285866
0.477756
0.734942
0.856056
0.559772
0.717243
0.406698
0.319442
0.380147
0.280308
0.762324
0.416828
0.585427
0.816088
0.409688
0.393945
0.408303
0.569148
0.420007
0.475984
0.397224
0.35474
0.515429
0.7398
0.821256
0.671066
0.452035
0.445925
0.268962
0.448123
0.651096
0.635198
0.649725
0.684887
0.447887
0.559403
0.732408
0.76837
0.854433
0.782664
0.83158
0.524377
0.341187
0.382808
0.345656
0.840237
0.579162
0.418366
0.823746
0.347165
0.737432
0.688856
0.435764
0.407344
0.444069
0.431062
0.765319
0.516734
0.689989
0.546386
0.815603
0.617495
0.871871
0.382428
0.552702
0.463819
0.232855
0.459921
0.703696
0.370377
0.227093
0.61941
0.803813
0.723505
0.428332
0.329227
0.383778
0.353204
0.409053
0.353473
0.537693
0.359622
0.710619
0.39345
0.416608
0.790321
0.524837
0.652477
0.756161
0.535904
0.585998
0.376854
0.708365
0.519298
0.435708
0.504532
0.371012
0.326079
0.414392
0.427445
0.716006
0.847705
0.774089
0.615458
0.6907
0.297033
0.847283
0.594701
0.688399
0.417723
0.692406
0.47937
0.470455
0.743974
0.804311
0.708571
0.624341
0.492825
0.859332
0.461322
0.728327
0.835069
0.67742
0.495556
0.290304
0.728234
0.58036
0.360737
0.667721
0.573979
0.808197
0.410653
0.816217
0.855102
0.526208
0.382761
0.830981
0.32897
0.368153
0.467902
0.363061
0.446494
0.368512
0.333495
0.545274
0.418113
0.37971
0.458812
0.631809
0.451209
0.408165
0.659986
0.583764
0.305097
0.808343
0.838226
0.82572
0.406375
0.301541
0.881121
0.319211
0.523926
0.400662
0.488743
0.418645
0.707358
0.463994
0.478929
0.314939
0.296467
0.363983
0.470001
0.284351
0.569516
0.607829
0.559997
0.820013
0.578992
0.649255
0.483404
0.752726
0.49703
0.481456
0.857285
0.462691
0.56991
0.333682
0.67757
0.842071
0.527001
0.620459
0.575259
0.478801
0.40349
0.407647
0.356424
0.713513
0.374668
0.506578
0.476939
0.528476
0.384443
0.40885
0.525541
0.512189
0.45008
0.838739
0.536182
0.486957
0.62269
0.805385
0.478211
0.299944
0.715934
0.330911
0.495469
0.404587
0.518908
0.474547
0.486553
0.521277
0.843734
0.773065
0.309476
0.446863
0.29609
0.396176
0.284594
0.360696
0.45059
0.376873
0.460319
0.648304
0.851055
0.465966
0.694839
0.554365
0.837964
0.468431
0.842221
0.6484
0.341662
0.632246
0.700313
0.488446
0.751808
0.403754
0.780802
0.43208
0.254694
0.549968
0.852777
0.828994
0.717677
0.642795
0.671474
0.311404
0.462223
0.666591
0.873033
0.267299
0.527957
0.407969
0.493409
0.522936
0.387941
0.342652
0.423451
0.360679
0.425982
0.505766
0.514795
0.865311
0.750777
0.281754
0.729776
0.374543
0.399431
0.73476
0.433634
0.495229
0.659684
0.304406
0.400574
0.555644
0.767639
0.349692
0.413147
0.493013
0.649074
0.346239
0.80998
0.297288
0.478913
0.499809
0.424848
0.639549
0.651604
0.807955
0.402683
0.70037
0.614458
0.638786
0.397958
0.635368
0.38344
0.336993
0.262758
0.588541
0.553018
0.500776
0.777252
0.538303
0.586205
0.631609
0.388871
0.36947
0.470897
0.605606
0.405139
0.849095
0.333714
0.299331
0.462586
0.481291
0.411969
0.407
0.684546
0.470599
0.562347
0.346168
0.404973
0.562352
0.361732
0.850317
0.829044
0.351536
0.384484
0.753424
0.547481
0.390186
0.327019
0.394309
0.357636
0.608714
0.803218
0.38846
0.306043
0.64832
0.531195
0.297942
0.350532
0.526406
0.690544
0.849971
0.339294
0.300112
0.628456
0.760808
0.519061
0.59459
0.494851
0.403611
0.48196
0.649633
0.550617
0.405278
0.739328
0.494652
0.264782
0.599506
0.416459
0.742544
0.867247
0.410142
0.472022
0.476934
0.467065
0.335669
0.487135
0.355173
0.824603
0.740305
0.690251
0.454714
0.315968
0.72423
0.845122
0.409113
0.594046
0.476081
0.239468
0.579995
0.485999
0.249394
0.44061
0.634119
0.345483
0.301811
0.358599
0.741843
0.330254
0.728726
0.508091
0.408429
0.5086
0.377905
0.744038
0.269739
0.481532
0.51722
0.333999
0.593761
0.668404
0.621612
0.5554
0.723019
0.352866
0.350718
0.789052
0.401832
0.783307
0.629769
0.522404
0.579498
0.775397
0.531381
0.292358
0.808908
0.398671
0.528601
0.765231
0.389575
0.817127
0.397138
0.496461
0.301171
0.489851
0.355437
0.549783
0.375125
0.264597
0.362517
0.348706
0.244624
0.801147
0.347899
0.486299
0.603096
0.540861
0.848556
0.848635
0.469319
0.5307
0.745928
0.459464
0.804357
0.255567
0.50433
0.583976
0.415859
0.75532
0.475484
0.481423
0.432357
0.414831
0.402411
0.270526
0.779009
0.183337
0.808966
0.688956
0.374862
0.302026
0.371593
0.854976
0.675185
0.656937
0.528341
0.594448
0.524242
0.772971
0.71865
0.379917
0.624888
0.818887
0.536311
0.589716
0.623691
0.281615
0.345452
0.726271
0.490417
0.509478
0.818965
0.34463
0.261274
0.428701
0.50536
0.542122
0.834893
0.399855
0.324356
0.405176
0.504653
0.405359
0.791994
0.520458
0.373632
0.479678
0.410417
0.386784
0.44654
0.635891
0.553132
0.372519
0.776295
0.494187
0.749154
0.373662
0.340903
0.468704
0.768183
0.833478
0.742935
0.574879
0.550162
0.734962
0.824448
0.334368
0.80515
0.364773
0.653857
0.650864
0.788978
0.56999
0.774049
0.800345
0.410154
0.405789
0.487043
0.532995
0.364432
0.403779
0.347773
0.710921
0.754288
0.327392
0.812101
0.56372
0.726982
0.52858
0.370589
0.745937
0.724842
0.475306
0.43615
0.356176
0.856528
0.68326
0.877379
0.328705
0.363727
0.515543
0.761494
0.644661
0.776427
0.563228
0.82963
0.426734
0.492522
0.590179
0.44321
0.63591
0.325484
0.74026
0.53525
0.58467
0.806001
0.319186
0.330794
0.270966
0.599579
0.779871
0.432058
0.644916
0.333315
0.319389
0.513644
0.418303
0.393949
0.773737
0.542348
0.389489
0.502206
0.597987
0.806413
0.602594
0.508735
0.779328
0.539672
0.8334
0.583631
0.693307
0.51339
0.331488
0.85213
0.369983
0.580451
0.620307
0.800987
0.679042
0.547999
0.41461
0.861575
0.50174
0.381925
0.715971
0.849528
0.696847
0.661329
0.314392
0.258279
0.601855
0.374264
0.497714
0.574326
0.371571
0.803729
0.85749
0.813256
0.445542
0.48934
0.393679
0.460931
0.658275
0.35126
0.668866
0.823844
0.33617
0.480004
0.423922
0.737892
0.659133
0.490197
0.3789
0.701118
0.398875
0.3158
0.362411
0.861805
0.263477
0.736189
0.617411
0.404402
0.818505
0.607721
0.848311
0.305901
0.481065
0.57905
0.809648
0.462404
0.799236
0.610409
0.264023
0.556307
0.436903
0.476108
0.257116
0.717793
0.482041
0.378257
0.296811
0.558243
0.780893
0.204119
0.453177
0.781171
0.480971
0.763842
0.252397
0.405648
0.400658
0.523013
0.463365
0.313109
0.399238
0.217305
0.503899
0.510688
0.727276
0.567216
0.784304
0.388071
0.486557
0.316764
0.54341
0.21378
0.490502
0.871665
0.503245
0.44468
0.856232
0.389143
0.603017
0.640888
0.308617
0.451165
0.537947
0.58479
0.821112
0.84761
0.849398
0.594555
0.483261
0.52657
0.369553
0.753188
0.647428
0.408021
0.453664
0.438218
0.532648
0.852564
0.504178
0.847857
0.48179
0.624618
0.3742
0.397846
0.316714
0.423337
0.796903
0.438779
0.328515
0.355129
0.855779
0.454111
0.373492
0.36712
0.398291
0.686519
0.560512
0.57161
0.482833
0.685513
0.304763
0.524551
0.562322