/*--------------------------------*- C++ -*----------------------------------*\
  =========                 |
  \\      /  F ield         | OpenFOAM: The Open Source CFD Toolbox
   \\    /   O peration     | Website:  https://openfoam.org
    \\  /    A nd           | Version:  6
     \\/     M anipulation  |
\*---------------------------------------------------------------------------*/
FoamFile
{
    version     2.0;
    format      ascii;
    class       volVectorField;
    location    "0";
    object      U_rec;
}
// * * * * * * * * * * * * * * * * * * * * * * * * * * * * * * * * * * * * * //

dimensions      [0 1 -1 0 0 0 0];

internalField   nonuniform List<vector> 
13046
(
(-0.294077 0.0730962 0)
(-0.738331 -0.357742 -3.03983e-21)
(-0.206109 -0.18566 -6.05034e-21)
(-0.316023 -0.025329 0)
(-0.123906 -0.10594 -5.82626e-21)
(-0.622327 -0.352397 0)
(-0.351344 -0.00201254 9.59537e-22)
(-0.703318 -0.403304 1.48561e-21)
(-0.0877374 -0.0881256 -6.26021e-21)
(-0.96545 0.399812 2.33554e-21)
(-1.42671 -0.719576 0)
(0.070655 0.00619527 3.43498e-21)
(-0.418054 0.113443 -3.07774e-21)
(-0.914192 -0.462721 -4.16093e-21)
(-0.0959164 -0.127932 3.1897e-21)
(-0.88995 0.447382 -3.20868e-21)
(0.0135261 -0.0226062 8.09731e-21)
(-1.4861 -0.633767 6.90394e-23)
(-0.142629 -0.0395226 0)
(-0.443593 -0.29437 -3.18852e-21)
(-0.419086 -0.14748 9.98898e-21)
(-0.90437 0.438026 -1.29257e-21)
(0.0296341 -0.0136065 -1.08294e-20)
(-1.47677 -0.653712 0)
(-0.257928 -0.00489005 3.9397e-21)
(-0.595289 -0.30355 -7.62794e-21)
(-0.206912 -0.170882 0)
(-0.427144 0.146518 -5.53957e-21)
(-0.950336 -0.461668 1.25014e-21)
(-0.114465 -0.142994 -5.58837e-21)
(-0.297016 0.0975478 0)
(-0.769133 -0.346231 0)
(-0.230666 -0.207533 6.15728e-21)
(-0.241116 -0.0347912 -4.57739e-21)
(-0.233825 -0.17721 2.17973e-21)
(-0.515082 -0.262119 1.32929e-20)
(-0.259373 -0.062431 -6.99437e-21)
(-0.224212 -0.155115 3.3985e-21)
(-0.476837 -0.253267 -6.74819e-21)
(-0.206739 0.107374 4.71122e-21)
(-0.469496 -0.377683 1.06193e-21)
(-0.695273 -0.236068 -4.80987e-21)
(-0.311674 -0.13915 3.13012e-21)
(-0.248452 -0.13432 5.22358e-21)
(-0.349157 -0.198668 0)
(-0.33438 -0.132395 2.08702e-21)
(-0.198844 -0.102923 -8.0665e-21)
(-0.387728 -0.231103 -9.90514e-22)
(-0.316892 0.0655854 0)
(-0.761372 -0.383449 -2.11696e-22)
(-0.155204 -0.157165 -8.166e-23)
(-0.731426 -0.575816 6.19861e-21)
(-0.162927 0.127821 0)
(-0.711143 -0.143299 -5.61674e-21)
(-0.82227 -0.636734 -8.83628e-21)
(-0.698461 -0.113715 -9.20373e-21)
(-0.131197 0.111344 6.80631e-21)
(-1.3369 -0.46805 -6.32547e-22)
(-0.668354 0.395476 0)
(-0.210585 -0.213267 4.52999e-21)
(-0.620677 0.127559 -2.96885e-21)
(-1.11989 -0.668917 2.04837e-21)
(0.0471982 -0.0205053 -1.32617e-20)
(0.0586009 -0.0239091 6.45358e-21)
(-1.41467 -0.716784 -5.54565e-22)
(-0.865321 0.33694 -4.28268e-21)
(-0.621257 0.383905 0)
(-1.27802 -0.419234 0)
(-0.275688 -0.272732 0)
(-0.577659 0.357736 -2.00332e-21)
(-1.2256 -0.401953 0)
(-0.29843 -0.291526 3.59307e-21)
(-1.3854 -0.477347 0)
(-0.710999 0.419524 3.20858e-23)
(-0.188875 -0.199916 -5.37392e-23)
(-0.139722 -0.0170474 0)
(-0.443289 -0.309068 3.41169e-21)
(-0.465094 -0.174639 -7.03239e-21)
(-0.110479 -0.129717 4.91644e-21)
(-0.771257 0.43523 -6.03277e-21)
(-1.43728 -0.532026 0)
(-0.283483 0.00390685 2.10175e-21)
(-0.63527 -0.331263 0)
(-0.167005 -0.142258 0)
(0.0606637 -0.0171334 -5.71662e-21)
(-1.43464 -0.718962 -1.87403e-22)
(-0.898364 0.359775 2.52311e-21)
(-0.900677 0.251857 -4.55212e-21)
(0.0920643 -0.00739008 0)
(-1.36918 -0.816054 -4.89625e-22)
(0.0634801 0.00217821 0)
(-0.978394 0.179569 0)
(-1.33746 -0.919528 3.64319e-23)
(-0.642694 0.245211 0)
(-0.691613 0.256941 2.56886e-21)
(-1.22504 -0.604509 3.66379e-21)
(-1.26841 -0.643423 -1.68366e-21)
(-0.0173192 -0.0835517 -2.71888e-21)
(0.0132706 -0.0614431 7.01075e-21)
(0.0903058 -0.0047515 -3.35665e-22)
(-0.891701 0.225085 4.45331e-21)
(-1.34673 -0.834905 0)
(-0.331077 -0.106854 -7.71594e-24)
(-0.16865 -0.0973585 4.15097e-21)
(-0.4509 -0.271372 0)
(-0.0582075 0.0596349 0)
(-0.587967 -0.0723562 -2.93464e-21)
(-0.796212 -0.570272 0)
(-0.151495 0.106639 7.94478e-21)
(-0.647665 -0.497481 0)
(-0.664176 -0.166564 -1.11229e-20)
(-0.940663 0.413886 0)
(0.0579581 0.0215 0)
(-1.27168 -0.664253 1.92494e-21)
(-0.371482 0.0877027 8.49374e-21)
(-0.851409 -0.42819 1.90875e-21)
(-0.10986 -0.129399 5.86296e-21)
(-0.705303 0.316271 3.25288e-21)
(-0.652564 0.27982 -6.14331e-21)
(-1.3158 -0.597041 -3.03512e-21)
(-0.0403175 -0.0934878 3.08083e-21)
(-1.25352 -0.57997 1.60885e-21)
(-0.0466464 -0.100848 -2.87788e-21)
(-0.962297 0.414783 -1.63588e-21)
(-1.41221 -0.702962 1.27992e-21)
(0.0662238 0.0116752 -1.52557e-21)
(-0.540509 0.203601 0)
(-1.1026 -0.537602 -2.84297e-21)
(-0.067317 -0.120343 6.63854e-21)
(-0.245804 0.122625 0)
(-0.408573 -0.339291 -5.43318e-21)
(-0.744674 -0.27277 2.78746e-22)
(0.0570258 0.00805553 0)
(-0.933145 0.156388 0)
(-1.31955 -0.9075 0)
(-0.781774 0.266744 0)
(-1.33185 -0.715666 -3.63849e-21)
(0.0599739 -0.0312551 -7.46242e-21)
(-0.339449 0.121461 0)
(-0.836091 -0.380062 0)
(-0.211688 -0.207442 0)
(-0.472714 0.02264 0)
(-0.869767 -0.537436 0)
(-0.00719858 -0.0275444 0)
(-0.133008 0.10363 0)
(-0.711491 -0.541021 0)
(-0.660076 -0.140643 6.05514e-21)
(-0.0594379 0.0475117 -7.95873e-22)
(-0.564321 -0.0798176 -6.47187e-21)
(-0.775302 -0.544986 5.9596e-21)
(-0.657103 0.152121 6.80446e-21)
(-1.16629 -0.686495 0)
(0.0546414 -0.0272243 1.71906e-20)
(-0.0520082 -0.00341133 0)
(-0.46545 -0.0678865 6.8936e-21)
(-0.696927 -0.462717 -1.5511e-21)
(-0.973826 -0.717083 0)
(-0.679521 -0.0316241 6.67691e-21)
(-1.046 -0.749284 0)
(-0.688402 0.00895506 3.86715e-21)
(-0.051903 0.0723346 0)
(-0.0163257 0.0530577 0)
(-0.521468 -0.0159465 9.04028e-22)
(-0.856066 -0.570136 3.01219e-21)
(-0.00831548 0.00640828 -3.44233e-21)
(-0.984044 0.380775 -2.39494e-21)
(0.0789929 0.00382003 0)
(-1.40594 -0.745766 5.73457e-22)
(-0.952493 0.41796 -1.29934e-21)
(0.061237 0.0207638 -6.97165e-22)
(-1.3359 -0.677722 0)
(-0.801449 0.291233 -3.71214e-21)
(-1.35604 -0.71138 0)
(0.0556221 -0.032828 8.47547e-21)
(-0.328174 0.192981 0)
(-0.880105 -0.297387 1.39494e-21)
(-0.433957 -0.376986 3.04954e-21)
(-0.516438 -0.0373738 5.86355e-21)
(-0.0254651 0.0188382 1.68959e-21)
(-0.804029 -0.536254 0)
(0.0902704 -0.00248889 0)
(-1.40158 -0.799775 0)
(-0.994457 0.332888 1.95451e-21)
(-0.283739 0.16709 0)
(-0.818057 -0.272741 -3.14498e-21)
(-0.451553 -0.37462 8.04468e-22)
(-0.0437922 0.0117281 0)
(-0.486996 -0.0662227 0)
(-0.712841 -0.482598 0)
(-0.440807 -0.000161281 2.89535e-21)
(-0.813205 -0.504508 0)
(-0.0208443 -0.0346238 0)
(-0.99008 -0.522618 2.66194e-23)
(-0.0435885 -0.0948453 -3.99586e-21)
(-0.501546 0.176203 8.75736e-21)
(-1.05357 -0.517134 0)
(-0.0713001 -0.118504 -8.31594e-21)
(-0.924098 0.31141 -4.51707e-21)
(0.0870933 -0.00936443 5.24493e-21)
(-1.41041 -0.780925 -1.28433e-21)
(0.0742589 0.00487747 4.89561e-21)
(-0.888674 0.173798 2.82647e-21)
(-1.31769 -0.871307 2.68977e-21)
(-0.964379 0.224818 -7.28602e-21)
(-1.36379 -0.870173 0)
(0.0871219 -0.00389416 -4.79552e-21)
(-0.771779 -0.629917 -3.0954e-22)
(-0.801551 -0.154022 2.48687e-21)
(-0.222529 0.176183 0)
(-0.409083 0.0521436 -1.30447e-20)
(-0.757807 0.447453 3.10517e-21)
(-0.1382 -0.149594 -3.02121e-21)
(-1.43857 -0.519149 0)
(-1.37179 -0.865741 0)
(-0.992678 0.254403 -6.26581e-21)
(0.0908847 -0.00624951 0)
(-0.296338 -0.071185 -1.03642e-20)
(-0.173537 -0.118715 -3.3381e-21)
(-0.499014 -0.284001 9.82836e-21)
(-0.402294 0.155202 0)
(-0.930462 -0.434948 -1.85071e-22)
(-0.161439 -0.171745 -3.17966e-21)
(0.0629222 0.00921771 3.79688e-21)
(-0.897624 0.157358 0)
(-1.30736 -0.889423 -3.10088e-21)
(-0.445378 0.0774933 1.04449e-20)
(-0.967115 -0.528405 7.35123e-21)
(-0.0307708 -0.0822355 0)
(0.0759502 0.00836285 0)
(-1.34226 -0.733406 -1.60371e-21)
(-0.998561 0.387328 0)
(-0.183774 0.15167 0)
(-0.768585 -0.127671 0)
(-0.827335 -0.671651 0)
(-0.920945 0.208765 6.39104e-21)
(-1.35023 -0.855611 0)
(0.0866821 -0.00227375 -4.19902e-23)
(-0.598808 -0.00210037 2.54501e-21)
(-0.951963 -0.658808 -2.13841e-21)
(-0.00203916 0.031478 0)
(-0.539441 0.225021 0)
(-1.11337 -0.5206 2.67441e-21)
(-0.0957544 -0.136786 5.20817e-21)
(-1.22646 -0.896692 -5.30441e-21)
(-0.846946 0.0707137 -5.10704e-21)
(0.00233117 0.0428182 2.99731e-21)
(-0.733052 0.0213962 0)
(-1.10134 -0.795782 -2.52581e-21)
(-0.0170808 0.0547376 -1.11239e-22)
(0.0750335 0.00508107 -4.57036e-21)
(-1.31179 -0.738682 0)
(-1.01079 0.374897 -1.13776e-21)
(-0.219869 0.145328 4.28359e-21)
(-0.579932 -0.464003 -3.79566e-21)
(-0.748477 -0.21533 4.61488e-22)
(-0.865926 0.446375 1.14544e-21)
(0.0441389 0.0360391 -6.49611e-21)
(-1.27508 -0.58296 0)
(-0.12745 -0.0582288 -1.99047e-21)
(-0.380576 -0.115966 -8.07454e-21)
(-0.489394 -0.312217 9.55381e-21)
(-0.576904 0.046721 3.09606e-21)
(-0.569193 0.0072712 4.00699e-23)
(-1.00117 -0.646749 -5.34303e-21)
(-0.937143 -0.632525 0)
(0.00597732 0.0168166 3.12898e-21)
(0.0281562 0.000617628 -3.19206e-21)
(-0.0786684 -0.100263 -6.43498e-21)
(-0.803802 0.445943 3.2297e-21)
(-1.47044 -0.548949 -1.10817e-21)
(-0.496217 0.218178 0)
(-1.06726 -0.479211 0)
(-0.144969 -0.167518 -6.82393e-21)
(-0.766497 0.0546264 -1.36699e-21)
(-1.15683 -0.832242 0)
(0.00525257 0.0430631 0)
(-0.747633 0.296699 -3.1479e-21)
(-1.32926 -0.652889 0)
(0.016297 -0.0581927 3.02216e-21)
(-0.272602 -0.117433 2.0783e-21)
(-0.360714 -0.186689 3.03517e-21)
(-0.275928 -0.159841 -1.04511e-21)
(-0.654274 0.0277158 -4.91965e-21)
(-1.04284 -0.722742 0)
(0.00945655 0.0348776 -5.24004e-21)
(-0.509207 0.239599 0)
(-1.0934 -0.471563 3.3752e-21)
(-0.163956 -0.183142 -4.25357e-21)
(-0.459905 0.109095 0)
(-0.503625 0.132085 1.03914e-21)
(-0.233996 0.159114 1.53498e-21)
(-0.59892 -0.486078 1.09378e-20)
(-0.772256 -0.209943 -1.09396e-20)
(-0.674815 0.0604251 -5.0815e-21)
(-1.0945 -0.745108 4.08457e-21)
(0.0329056 0.0216704 4.78357e-21)
(-0.78346 0.306373 0)
(0.035075 -0.0444575 -1.07712e-20)
(-1.36181 -0.679963 -1.45466e-21)
(-0.149377 0.0916573 -1.10224e-20)
(-0.606773 -0.469614 0)
(-0.642374 -0.171165 3.69795e-21)
(-0.0761355 0.0892804 -6.20395e-21)
(-0.710217 -0.0415324 -3.76119e-21)
(-0.977488 -0.742845 0)
(-0.638662 0.314561 -3.10067e-21)
(-1.26208 -0.523643 -2.57496e-21)
(-0.119272 -0.148503 1.877e-21)
(-0.200466 0.150319 5.49933e-22)
(-0.693427 -0.554188 0)
(-0.751065 -0.168003 7.7633e-21)
(-0.681815 0.34096 0)
(-0.711444 0.343944 0)
(-1.3155 -0.546102 -1.4009e-21)
(-0.1009 -0.133463 -4.9249e-21)
(-1.33837 -0.579969 1.98366e-21)
(-0.0649531 -0.105789 5.19907e-21)
(0.0876047 -0.00329797 -4.00877e-21)
(-1.4126 -0.782797 0)
(-0.972338 0.343042 -3.02634e-21)
(-0.606172 0.265823 3.64969e-21)
(-1.20285 -0.548286 0)
(-0.0802165 -0.123931 1.7561e-21)
(-1.10345 -0.590562 -7.49087e-21)
(0.0395318 0.0267134 5.73131e-21)
(-0.845388 0.405646 1.3065e-21)
(-0.447944 -0.102689 -3.81705e-21)
(-0.0791692 -0.010018 0)
(-0.600727 -0.399319 0)
(-0.565938 0.108376 7.09569e-21)
(-1.05999 -0.623555 0)
(0.0328857 -0.032059 1.03117e-20)
(0.0800572 -0.0156872 -3.34608e-21)
(-0.88017 0.299817 9.34032e-21)
(-1.39389 -0.758903 1.5185e-21)
(-0.85444 -0.666629 0)
(-0.718051 -0.10364 3.36178e-21)
(-0.133543 0.121745 -7.71544e-21)
(-1.25603 -0.899453 -5.57514e-21)
(-0.864115 0.101943 -3.08125e-21)
(0.0275462 0.0272101 0)
(-0.873269 -0.482784 -7.96837e-21)
(-0.0496376 -0.083236 0)
(-0.593152 0.167262 7.47992e-21)
(-1.11757 -0.610448 2.35091e-21)
(0.0139115 -0.0624445 3.10199e-21)
(-0.861077 -0.50063 4.56279e-21)
(-0.0307822 -0.0662143 -3.0593e-23)
(-0.869871 0.431571 -2.11859e-22)
(0.00108078 -0.0376613 3.8384e-21)
(-1.47843 -0.62499 -1.02627e-22)
(-0.751741 -0.639317 0)
(-0.852752 -0.174161 7.54759e-22)
(-0.264224 0.202398 0)
(-0.635362 0.191067 -7.61854e-21)
(-1.18195 -0.638503 -2.86383e-21)
(0.0293256 -0.0520446 -3.69025e-21)
(-0.498633 0.015164 0)
(-0.876421 -0.563241 -4.3738e-21)
(-0.000174542 -0.011909 0)
(-0.624321 -0.101375 0)
(-0.767091 -0.576738 0)
(-0.0938295 0.0801086 0)
(-0.309605 0.0350731 -2.90926e-21)
(-0.708533 -0.370747 -4.61921e-21)
(-0.147364 -0.142379 -1.64459e-23)
(-0.107119 0.109145 7.68523e-21)
(-0.7225 -0.0698364 9.13692e-21)
(-0.931277 -0.717809 4.01239e-21)
(-0.94258 0.281274 -3.70672e-21)
(-1.39028 -0.809864 9.99607e-22)
(0.0936384 -0.00696396 -4.98835e-21)
(-1.26619 -0.878907 3.90028e-21)
(-0.849452 0.117798 3.12233e-21)
(0.0453929 0.0200162 3.86784e-21)
(-0.490219 0.314011 -6.10056e-21)
(-0.39622 -0.363915 5.36359e-21)
(-1.12144 -0.346486 -4.0519e-21)
(-0.743002 0.398034 1.7702e-21)
(-0.705828 0.375055 -1.64356e-21)
(-1.35468 -0.528053 -4.46697e-22)
(-1.3956 -0.542335 0)
(-0.104233 -0.128103 -1.74932e-21)
(-0.124345 -0.148037 -1.59e-21)
(0.0436969 0.0305336 -7.76487e-21)
(-1.15755 -0.588654 8.25206e-21)
(-0.85818 0.41198 8.73668e-22)
(-0.87853 0.451941 -8.90417e-23)
(0.0446043 0.0344165 8.98927e-21)
(-1.32265 -0.590867 0)
(-0.617822 0.0705683 -1.13679e-20)
(-1.06797 -0.681701 -1.09593e-21)
(0.037562 0.00198852 0)
(0.0850101 -0.00698778 -1.00874e-20)
(-0.94184 0.331682 3.01029e-21)
(-1.42198 -0.77254 0)
(-0.576646 0.327898 9.0267e-21)
(-0.616461 0.341108 -6.70733e-21)
(-1.20986 -0.443705 2.98389e-21)
(-1.25391 -0.471975 1.06643e-21)
(-0.241447 -0.240278 -3.14266e-21)
(-0.195308 -0.203134 -1.57663e-21)
(0.085376 -0.0118085 0)
(-1.34517 -0.867663 0)
(-1.05043 0.259435 1.01863e-21)
(-0.813027 0.444042 -1.34492e-21)
(0.0395324 0.0410868 0)
(-1.22193 -0.545048 0)
(-0.424158 -0.182433 4.07175e-23)
(-0.183837 -0.0509175 4.47832e-21)
(-0.353242 -0.240472 2.13503e-21)
(-0.893534 0.423494 -1.92109e-21)
(-1.24717 -0.625401 -2.81555e-21)
(0.0501537 0.0292443 4.23906e-22)
(-0.3826 0.210716 0)
(-0.944874 -0.345039 -6.06352e-21)
(-0.350224 -0.31614 -8.47258e-23)
(-0.998595 0.316768 1.05755e-22)
(-1.39484 -0.817011 -3.60001e-23)
(0.0931162 -0.00422003 5.30567e-24)
(-0.970798 -0.585762 -2.11063e-22)
(0.0336219 0.012874 -3.34675e-21)
(-0.832384 0.34044 -1.28627e-22)
(-0.168773 0.0788388 -4.06023e-21)
(-0.484152 -0.372536 3.50757e-21)
(-0.630129 -0.209667 1.17929e-20)
(-0.376599 -0.0864941 0)
(-0.568456 -0.353464 -1.06076e-20)
(-0.102832 -0.0565916 5.35564e-21)
(-0.944927 0.433684 0)
(0.0583737 0.0136514 4.54176e-21)
(-1.42052 -0.684966 -1.6297e-22)
(-0.398754 -0.0748518 0)
(-0.607549 -0.381484 -3.55886e-21)
(-0.0794426 -0.0364257 -7.61758e-21)
(-0.390247 -0.173291 4.605e-21)
(-0.203024 -0.0753558 -2.36519e-21)
(-0.340174 -0.219808 1.14914e-21)
(-0.173759 0.149868 3.71493e-21)
(-0.783899 -0.106342 -3.15252e-21)
(-0.902693 -0.734179 4.41773e-21)
(-0.475521 -0.153802 0)
(-0.491192 -0.335329 0)
(-0.117217 0.00129064 6.50784e-22)
(-0.477135 -0.123458 6.03984e-21)
(-0.562808 -0.377613 2.70953e-21)
(-0.0970242 0.00574331 9.12853e-23)
(-0.448449 0.291865 9.26675e-21)
(-1.0602 -0.317459 -4.48176e-21)
(-0.451263 -0.411358 -5.36141e-21)
(0.0551825 -0.003675 6.8593e-21)
(0.0651856 -0.00121242 -7.04897e-21)
(-1.45649 -0.701604 -3.6632e-22)
(-1.44475 -0.717892 -1.42089e-22)
(-0.931606 0.41425 0)
(-0.945591 0.401388 -2.39136e-21)
(-0.971048 0.288572 4.60889e-21)
(-1.39361 -0.820767 -2.95672e-22)
(0.0944446 -0.00622274 6.19173e-21)
(-0.379845 -0.36074 -3.45517e-21)
(-0.533072 0.346615 1.92706e-21)
(-1.1754 -0.358629 5.16413e-21)
(-0.239491 0.145393 -3.91076e-21)
(-0.512347 -0.415993 -3.50125e-21)
(-0.762662 -0.239742 3.61298e-21)
(-0.763493 -0.00292929 0)
(-1.08979 -0.820642 2.61449e-21)
(-0.0543222 0.0754543 1.14973e-22)
(-1.10398 -0.688666 -2.06993e-21)
(0.0565535 -0.00404936 -3.14986e-21)
(-0.980462 0.332236 -5.60936e-22)
(0.0751605 -0.00286146 0)
(-0.991617 0.205893 0)
(-1.34645 -0.908204 3.71587e-22)
(-0.972559 0.40627 1.70943e-21)
(0.0688716 0.0139165 0)
(-1.36139 -0.708521 1.574e-21)
(0.0261854 0.0174259 -1.24629e-32)
(-0.903357 -0.543134 4.13629e-21)
(-0.767057 0.331293 -7.31834e-25)
(-0.935979 -0.484044 -4.67025e-21)
(0.0256098 0.0296742 1.24335e-32)
(-0.722967 0.379621 -1.42974e-23)
(-1.19686 -0.75562 -5.21003e-21)
(-0.718485 0.131801 0)
(0.0632597 -0.000450318 -9.93567e-21)
(-1.27622 -0.81161 7.70114e-22)
(0.0788719 -0.0150247 -3.24691e-21)
(-1.07294 0.29716 0)
(-0.808238 0.258809 -4.75837e-21)
(-1.33688 -0.74336 2.17859e-21)
(0.0725083 -0.0229048 5.0274e-21)
(-0.888917 0.479432 6.14098e-21)
(0.0108796 -0.00516561 2.67819e-21)
(-1.49069 -0.591846 0)
(-0.378144 0.0593062 2.28588e-21)
(-0.0783293 -0.102033 -2.02405e-21)
(-0.836443 -0.450283 1.95739e-21)
(-1.352 -0.885024 7.96822e-23)
(0.0841146 -0.0100298 3.46254e-21)
(-1.03587 0.24323 1.30037e-21)
(-0.752901 -0.0246365 -3.68755e-21)
(-0.0764323 0.0901082 -2.07831e-21)
(-1.04632 -0.795245 0)
(-1.17619 -0.825216 0)
(-0.762793 0.0783989 0)
(0.0284605 0.0309197 0)
(0.00703122 0.0170535 0)
(-0.52336 -0.280652 4.75729e-21)
(-0.438128 0.209014 -6.82781e-22)
(-1.09967 -0.619536 -3.06305e-21)
(0.0428589 0.0194675 -4.0301e-21)
(-0.876823 0.388053 -7.96124e-22)
(-0.347097 0.0326793 -5.87919e-21)
(-0.0988264 -0.109476 4.94341e-21)
(-0.757781 -0.415144 2.36247e-21)
(-1.36271 -0.833081 -1.20845e-21)
(-1.03547 0.297216 -1.97984e-21)
(0.0902158 -0.00831201 0)
(0.0819768 -0.0152392 -3.60444e-21)
(-1.07185 0.26358 0)
(-1.31724 -0.865025 8.43907e-22)
(-0.924875 0.357224 -2.7378e-21)
(0.0722346 -0.00931749 1.06854e-20)
(-1.43565 -0.739961 0)
(-0.0363072 -0.0696563 -7.7934e-21)
(-1.45941 -0.59553 1.09725e-21)
(-0.822784 0.423138 0)
(-0.430536 0.296229 -1.1618e-20)
(-1.04273 -0.295621 5.7097e-21)
(-0.516675 -0.465759 -1.6845e-21)
(-1.32077 -0.495524 6.72672e-22)
(-0.668804 0.375098 3.91504e-21)
(-0.17708 -0.189077 -4.83735e-21)
(-0.0349163 -0.0582814 -6.9421e-21)
(-0.848853 0.463244 0)
(-1.50021 -0.578877 0)
(-0.410438 0.200399 -1.98822e-21)
(-0.463754 0.228781 0)
(-0.968961 -0.394732 -6.21649e-21)
(-1.04491 -0.428187 6.65308e-21)
(-0.253721 -0.238213 8.91205e-22)
(-0.223322 -0.223626 -9.49451e-22)
(-0.373196 0.193176 1.90867e-21)
(-0.926726 -0.358925 0)
(-0.311786 -0.281666 1.66002e-21)
(-0.566055 0.339094 0)
(-1.20385 -0.423004 -4.84428e-21)
(-0.279515 -0.272274 1.13277e-21)
(-1.23682 -0.852246 -2.13841e-21)
(-0.813582 0.1067 3.36431e-21)
(0.0453079 0.0202067 -7.86712e-21)
(-1.37941 -0.854328 0)
(-0.986705 0.275199 6.88674e-21)
(0.0932495 -0.00625159 0)
(0.0715038 0.00552453 -2.53694e-21)
(-0.838581 0.15714 -2.04771e-21)
(-1.28836 -0.844182 -1.31896e-21)
(-1.00531 -0.498355 6.84691e-22)
(0.0299373 0.0337735 2.13705e-21)
(-0.755613 0.398441 0)
(-0.230602 0.0907956 3.80874e-21)
(-0.241931 0.0788315 0)
(-0.354529 -0.287278 0)
(-0.697686 -0.277376 1.38063e-20)
(-0.310655 -0.256161 0)
(-0.696312 -0.298613 -8.84087e-21)
(-0.486465 0.29132 0)
(-0.429693 0.258289 0)
(-0.372759 -0.338598 2.68578e-23)
(-1.09908 -0.381415 3.52648e-21)
(-0.332354 -0.305316 8.29468e-21)
(-1.02567 -0.349845 -7.728e-21)
(-0.956216 -0.60959 0)
(0.037911 0.00376462 4.59851e-21)
(-0.875236 0.326098 0)
(-1.37239 -0.827968 1.99258e-22)
(-1.01927 0.296058 6.82882e-22)
(0.0922895 -0.00627885 2.16707e-21)
(-0.279706 0.184458 -6.58997e-21)
(-0.573954 -0.480381 -3.8382e-21)
(-0.82943 -0.235563 1.1249e-20)
(-1.18231 -0.867104 4.87776e-21)
(-0.807127 0.0485456 8.59204e-21)
(-0.00916629 0.051112 0)
(-0.057148 -0.0882924 8.33431e-21)
(-1.4449 -0.579912 -1.16658e-21)
(-0.801778 0.419756 4.16307e-21)
(-1.22968 -0.685077 0)
(-0.96741 0.388303 0)
(0.0601101 0.0132199 0)
(-1.25917 -0.719123 0)
(-0.996083 0.37326 1.34563e-21)
(0.0685866 0.00563868 7.73809e-22)
(-0.609664 0.319229 -3.81129e-21)
(-1.23561 -0.494918 1.57817e-21)
(-0.164877 -0.181208 2.3312e-21)
(-0.123771 0.0740166 -1.05456e-21)
(-0.617539 -0.45966 0)
(-0.601781 -0.149769 -4.76908e-23)
(-0.945314 0.375239 3.19e-21)
(0.0719987 -0.00431831 6.17648e-21)
(-1.44373 -0.736207 1.64632e-22)
(-1.22032 -0.789078 0)
(-0.754384 0.136561 0)
(0.065416 0.00655824 8.57966e-21)
(0.0359021 -0.0385444 2.06349e-21)
(-1.39917 -0.686435 2.30057e-21)
(-0.824913 0.341066 9.51775e-21)
(-0.400346 0.247634 0)
(-0.423042 -0.377416 -5.64557e-21)
(-0.986476 -0.325378 4.08251e-21)
(-0.603755 -0.0339364 3.89376e-23)
(-0.894432 -0.632258 3.13536e-21)
(-0.0317541 0.0486988 0)
(-0.200647 0.114343 2.15751e-23)
(-0.519276 -0.414257 -1.18674e-21)
(-0.699153 -0.221543 -4.73134e-21)
(0.0810897 -0.000872149 1.66138e-23)
(-1.42408 -0.760784 -7.72333e-22)
(-0.971043 0.365381 3.22132e-21)
(-0.748597 0.325545 -1.79006e-21)
(-1.35102 -0.630744 -9.8386e-22)
(-0.00964038 -0.0709838 0)
(-0.178776 0.0687322 -4.13071e-21)
(-0.431794 -0.332035 7.73123e-21)
(-0.62659 -0.227774 -7.77907e-21)
(-0.865214 0.477183 2.54315e-21)
(-0.0209635 -0.0397568 3.0418e-21)
(-1.51002 -0.579245 3.97717e-22)
(-0.336097 0.142024 -2.44849e-21)
(-0.850529 -0.36593 0)
(-0.253861 -0.236577 0)
(-0.438877 -0.0306131 -1.06894e-20)
(-0.738592 -0.468558 2.14013e-21)
(-0.0365529 -0.0223052 0)
(-1.16118 -0.786766 0)
(-0.72611 0.080602 7.26183e-21)
(0.0400656 0.0237469 0)
(-0.891874 0.465725 -1.13832e-21)
(0.0383054 0.0250894 -9.51663e-22)
(-1.41219 -0.602996 -2.64584e-21)
(-0.884532 0.476015 3.18119e-21)
(0.0293492 0.0197132 0)
(-1.43947 -0.589301 1.64941e-21)
(0.0202967 -0.0446121 1.82789e-21)
(-1.41544 -0.666099 -9.87868e-22)
(-0.82629 0.360982 -8.74537e-21)
(-0.644215 -0.0527704 -3.33454e-21)
(-0.918133 -0.671743 -3.19152e-21)
(-0.0575686 0.0669974 0)
(0.0383603 0.0349452 8.71923e-22)
(-1.3552 -0.578464 2.46461e-21)
(-0.859483 0.461981 0)
(0.081524 -0.0160054 0)
(-1.36674 -0.766499 -1.12622e-21)
(-0.855211 0.272201 -1.10085e-21)
(0.0184618 0.0129219 3.67972e-21)
(-0.760706 -0.494596 -4.13102e-21)
(-0.690086 0.278893 0)
(-0.611848 0.354593 -2.56293e-22)
(-0.825937 -0.400036 0)
(0.0192615 0.0313422 3.657e-21)
(-0.0248077 -0.0543414 -2.3216e-23)
(-1.48442 -0.600563 0)
(-0.848678 0.445606 0)
(0.081526 0.00408822 0)
(-1.38451 -0.758586 0)
(-1.00177 0.371751 3.82903e-21)
(-0.91077 0.407464 -2.87858e-21)
(-0.889548 0.389602 2.32833e-21)
(0.0434993 -0.0147522 -3.4477e-21)
(-1.46841 -0.682236 4.94358e-23)
(0.0425838 -0.0217641 -5.65003e-21)
(-1.45458 -0.687483 1.95171e-22)
(-0.857503 0.250246 2.17697e-21)
(-1.35423 -0.787467 8.66956e-22)
(0.0867477 -0.0121461 0)
(-0.0477792 0.0732871 0)
(-1.13495 -0.862115 0)
(-0.800999 0.0149114 0)
(-0.241917 0.0401009 0)
(-0.257476 -0.211924 -1.09466e-20)
(-0.644464 -0.300988 4.78955e-21)
(-0.826418 0.191955 6.39069e-21)
(-1.30221 -0.811094 4.29542e-22)
(0.0836052 -0.00397202 7.42356e-21)
(0.0759074 0.00192825 4.84581e-21)
(-0.811866 0.167902 -8.88785e-21)
(-1.27594 -0.818364 -5.95118e-22)
(-0.825068 0.468926 3.13956e-21)
(-0.0670669 -0.0854441 3.31115e-21)
(-1.49691 -0.549952 1.1563e-21)
(-0.508093 0.310039 0)
(-1.13316 -0.383198 1.45632e-21)
(-0.33589 -0.313829 -8.13112e-21)
(-0.42493 0.237728 0)
(-1.00122 -0.364885 7.95976e-21)
(-0.333075 -0.307706 -3.11851e-23)
(-0.710235 0.171381 -8.64107e-21)
(-1.22256 -0.729358 6.71775e-22)
(0.0672331 -0.0188997 -4.32855e-21)
(-0.735874 0.166008 0)
(-1.23309 -0.752354 6.41628e-22)
(0.0716987 -0.010718 3.96144e-21)
(-0.16017 0.0429927 0)
(-0.431551 -0.321297 -1.22029e-20)
(-0.570971 -0.209771 4.35331e-21)
(-0.48244 0.247765 0)
(-1.06933 -0.425894 0)
(-0.23401 -0.23678 1.27144e-21)
(0.0767094 -0.00920985 -7.49432e-21)
(-1.33759 -0.902624 -7.06934e-22)
(-1.03663 0.222751 0)
(-1.01908 0.35293 1.34483e-21)
(0.0689584 -0.0015556 0)
(-1.2183 -0.732947 -1.35325e-21)
(-1.01652 0.33356 -2.44633e-22)
(0.0643392 -0.00608065 0)
(-1.1713 -0.723786 4.1529e-21)
(-0.286222 0.152529 2.82101e-21)
(-0.3995 -0.333444 -1.25473e-21)
(-0.809261 -0.296574 -1.72313e-22)
(-1.14737 -0.653461 2.68242e-22)
(0.052474 0.01196 6.17769e-21)
(-0.942621 0.376701 0)
(-0.790408 0.356986 7.59796e-21)
(-0.00472761 -0.0617341 3.88302e-21)
(-1.39424 -0.637976 0)
(0.0501853 0.00336299 -9.23044e-22)
(-1.08689 -0.665119 3.04639e-21)
(-0.942875 0.346125 0)
(-0.326601 -0.0521831 7.21192e-21)
(-0.127679 -0.0919917 6.82492e-21)
(-0.575387 -0.332872 4.38139e-24)
(-0.528879 0.163998 -1.29646e-21)
(-1.06948 -0.554222 -9.33573e-22)
(-0.031897 -0.0923453 -4.53023e-21)
(-0.847438 -0.637299 7.30682e-21)
(-0.653589 -0.0831381 7.83387e-21)
(-0.0903324 0.0851039 0)
(0.0831709 -0.0129761 0)
(-1.30791 -0.826442 7.44068e-22)
(-1.06624 0.294332 0)
(-1.20202 -0.803449 0)
(-0.756818 0.115751 0)
(0.0560473 0.0142129 0)
(0.00266319 -0.0206659 0)
(-0.885528 0.469719 -2.19462e-21)
(-1.50167 -0.600829 -3.90545e-22)
(-0.580307 0.186493 0)
(-1.12371 -0.589747 4.97841e-22)
(-0.00902203 -0.0783097 4.42548e-21)
(-0.233899 0.0183286 0)
(-0.254201 -0.203715 9.41669e-21)
(-0.601679 -0.286659 0)
(-1.34345 -0.818096 1.14112e-21)
(-1.04282 0.317555 1.88144e-21)
(0.0874026 -0.0077716 0)
(0.0682223 -0.0218769 -4.26619e-21)
(-1.39264 -0.737577 6.8572e-23)
(-0.857562 0.314753 2.19838e-22)
(-0.928607 0.442763 0)
(-0.921694 0.442884 1.81332e-21)
(0.0519865 0.0221395 -2.23125e-21)
(0.0528367 0.025893 -2.72577e-21)
(-1.39431 -0.644678 1.36261e-21)
(-1.36132 -0.642313 -1.12098e-21)
(-0.541775 0.0539866 0)
(-0.971455 -0.615477 1.25059e-20)
(0.0218095 -0.0135329 4.9886e-21)
(-1.14308 -0.723239 7.35271e-21)
(-0.675252 0.105523 0)
(0.0551516 0.00119472 -5.33172e-21)
(-0.380292 -0.00710146 -6.00267e-21)
(-0.723822 -0.42923 3.68493e-21)
(-0.0592465 -0.0641276 8.16349e-21)
(-1.26931 -0.772553 -2.11853e-21)
(-1.04241 0.337572 1.722e-21)
(-1.25298 -0.785673 1.15596e-21)
(0.0762177 -0.0055507 0)
(-1.05758 0.317313 -1.66245e-21)
(0.0754732 -0.0107802 0)
(-0.688962 0.234713 0)
(-1.24624 -0.661457 0)
(0.0302137 -0.0518697 4.81762e-21)
(-1.03346 0.335481 2.9257e-21)
(-1.03578 0.344143 -5.29615e-21)
(-1.34732 -0.794117 -1.40199e-21)
(-1.31506 -0.773308 2.78802e-21)
(0.0849625 -0.0034564 6.31774e-21)
(0.0801612 -0.00195954 -1.8367e-23)
(-0.652136 0.0828926 0)
(-1.09961 -0.720018 -7.23158e-21)
(0.0410949 0.0115422 6.92064e-21)
(-0.478812 0.0842419 5.72664e-21)
(-1.00113 -0.562438 -5.75157e-21)
(-0.00121334 -0.0627094 0)
(-0.899061 0.47195 0)
(0.0256644 0.00614057 0)
(-1.47134 -0.610851 -1.585e-21)
(-0.537748 0.0795254 4.253e-21)
(-0.997 -0.604502 -3.48139e-21)
(0.0257522 -0.0261683 -8.1709e-21)
(-0.408156 0.0220223 2.43635e-21)
(-0.807049 -0.479476 -4.3288e-21)
(-0.0353693 -0.0594068 4.65705e-21)
(-0.911978 0.453529 0)
(0.0444926 0.0209536 0)
(-1.42307 -0.6324 2.09909e-21)
(-0.59499 0.213681 0)
(-1.16587 -0.579571 9.07567e-22)
(-0.0226499 -0.0891994 -4.7566e-21)
(-1.0251 -0.801246 0)
(-0.775733 -0.0470097 0)
(-0.110532 0.110793 -2.67513e-22)
(-0.405269 0.260552 -3.00564e-22)
(-0.99659 -0.309623 0)
(-0.456941 -0.408637 8.58533e-21)
(-1.29137 -0.924421 2.02431e-21)
(0.0351324 0.018371 0)
(-0.915553 0.125835 0)
(0.0137907 0.0207574 -8.8198e-21)
(-0.705493 -0.387487 -6.65505e-21)
(-0.581454 0.279661 9.55533e-22)
(-0.554025 0.129778 0)
(-1.05521 -0.595762 3.50119e-21)
(0.0159298 -0.0530956 -4.09365e-21)
(-0.915298 0.444082 4.34143e-21)
(0.0363778 -0.00240957 1.15485e-20)
(-1.47612 -0.648042 0)
(-0.635018 -0.552707 -2.20056e-21)
(-0.942839 -0.237535 -4.02907e-21)
(-0.346401 0.247484 -2.57308e-21)
(-0.727858 0.412484 0)
(0.0316662 0.0406872 -3.20048e-21)
(-1.06147 -0.49006 0)
(-0.0736282 0.0315822 5.1505e-21)
(-0.0837316 0.0516011 -5.25647e-21)
(-0.651832 -0.460932 0)
(-0.520689 -0.106892 5.06177e-21)
(-0.68731 -0.496578 -7.6826e-21)
(-0.562174 -0.11485 -4.04749e-21)
(-0.398984 -0.0370655 5.66033e-21)
(-0.681976 -0.419464 5.00675e-21)
(-0.0591504 -0.0434802 0)
(-0.134788 0.0644559 4.67375e-21)
(-0.10365 0.0405672 0)
(-0.5442 -0.406443 -4.38259e-21)
(-0.590923 -0.175765 4.51329e-21)
(-0.56994 -0.409841 4.41713e-21)
(-0.538914 -0.144121 2.46398e-23)
(-0.515471 0.115057 3.5913e-22)
(-0.939305 -0.545806 -2.58282e-21)
(-0.0046595 -0.0536039 -5.67569e-21)
(-0.489523 0.0668884 -9.89881e-21)
(-0.94107 -0.559627 6.62509e-23)
(0.00453626 -0.0399377 0)
(0.0678049 -0.0125678 0)
(-1.18339 -0.756721 0)
(-1.04691 0.315199 1.22503e-21)
(-0.325954 0.164634 -2.60432e-21)
(-0.856809 -0.329752 0)
(-0.335251 -0.292103 2.31581e-21)
(-1.01218 0.346691 -6.25179e-21)
(-1.38118 -0.787997 -9.54316e-22)
(0.0866053 -9.28523e-05 -3.5999e-21)
(-0.735122 0.206333 0)
(-0.779289 0.227403 4.58099e-21)
(-1.26433 -0.723214 -8.38154e-22)
(-1.30392 -0.743777 2.12457e-21)
(0.0679874 -0.0242127 -5.30253e-21)
(0.07485 -0.0207457 -4.85188e-21)
(-0.308526 0.139842 0)
(-0.821818 -0.335907 0)
(-0.304101 -0.269316 1.13015e-21)
(-0.540137 0.298236 2.99613e-21)
(-1.15432 -0.434891 0)
(-0.244795 -0.241097 2.70699e-21)
(-0.652525 0.181818 -2.45044e-21)
(-1.18361 -0.670466 0)
(0.0464948 -0.0382882 0)
(-0.202773 -0.031821 5.46714e-21)
(-0.482142 -0.225428 -2.60614e-21)
(-0.299868 -0.217978 2.57428e-21)
(-0.792489 0.197089 0)
(-1.2891 -0.780845 0)
(0.081141 -0.00953816 -7.89855e-21)
(-0.214416 0.0474763 0)
(-0.317451 -0.251584 1.35732e-21)
(-0.628128 -0.272395 0)
(-0.640363 0.104586 -5.61061e-21)
(-1.10909 -0.700147 -4.12292e-21)
(0.0484042 -0.0079465 -6.93391e-22)
(-0.531891 0.276518 3.08725e-21)
(-1.13703 -0.451671 0)
(-0.208695 -0.217862 5.60369e-21)
(-0.196927 -0.00442181 -5.41671e-21)
(-0.174022 0.00179935 -2.39081e-21)
(-0.527179 -0.240494 2.60388e-21)
(-0.311166 -0.233895 -5.12995e-21)
(-0.519385 -0.220958 0)
(-0.360757 -0.266936 -9.03938e-21)
(-0.131193 0.0251725 -2.35496e-21)
(-0.473268 -0.344926 5.68757e-21)
(-0.109635 0.0269684 1.513e-21)
(-0.526023 -0.176978 -6.12943e-21)
(-0.551392 -0.392556 -2.80121e-21)
(-0.520616 -0.150477 1.21985e-22)
(-0.392952 0.176507 2.8988e-21)
(-0.435708 0.186635 0)
(-0.937078 -0.401652 4.75165e-21)
(-0.986006 -0.439171 -3.7141e-21)
(-0.223715 -0.216904 -5.21776e-21)
(-0.172191 -0.181288 8.67583e-21)
(-0.016471 -0.0607091 0)
(-1.44137 -0.621522 -5.25635e-22)
(-0.821604 0.399921 -4.32651e-21)
(-0.130081 0.123339 3.27265e-21)
(-0.760031 -0.0747295 4.96999e-21)
(-0.957982 -0.754927 -6.98414e-21)
(0.00528825 -0.0424858 -3.92217e-21)
(0.0231609 -0.0355588 3.15347e-21)
(-1.45716 -0.644355 4.55145e-22)
(-1.44463 -0.665747 9.04118e-22)
(-0.852891 0.409472 1.09778e-20)
(-0.85959 0.38964 -5.69484e-21)
(-0.226465 0.170342 4.76703e-21)
(-0.710223 -0.577452 -3.59854e-21)
(-0.788965 -0.176726 1.10429e-21)
(-0.246096 -0.0855926 9.26998e-21)
(-0.270459 -0.173027 0)
(-0.410439 -0.207804 -9.03689e-21)
(-0.811031 0.224433 -2.15946e-21)
(-1.31597 -0.77465 -2.40041e-21)
(0.0824155 -0.0132685 0)
(-0.260542 0.113314 0)
(-0.347786 -0.297067 -1.07604e-21)
(-0.748061 -0.294511 -4.42053e-21)
(-0.561316 0.285546 0)
(-1.17134 -0.475328 0)
(-0.177687 -0.192896 -5.21478e-21)