/*--------------------------------*- C++ -*----------------------------------*\
  =========                 |
  \\      /  F ield         | OpenFOAM: The Open Source CFD Toolbox
   \\    /   O peration     | Website:  https://openfoam.org
    \\  /    A nd           | Version:  6
     \\/     M anipulation  |
\*---------------------------------------------------------------------------*/
FoamFile
{
    version     2.0;
    format      ascii;
    class       volVectorField;
    location    "0";
    object      U;
}
// * * * * * * * * * * * * * * * * * * * * * * * * * * * * * * * * * * * * * //

dimensions      [0 1 -1 0 0 0 0];

internalField   nonuniform List<vector> 
40000
(
(4.72527e-07 -4.72547e-07 0)
(1.92757e-06 -5.87116e-07 0)
(3.05461e-06 -3.74848e-07 0)
(3.20326e-06 -1.81593e-08 0)
(1.95556e-06 3.80756e-07 0)
(-8.06007e-07 7.81274e-07 0)
(-5.06952e-06 1.16235e-06 0)
(-1.07622e-05 1.51417e-06 0)
(-1.77809e-05 1.83344e-06 0)
(-2.60103e-05 2.1201e-06 0)
(-3.53322e-05 2.37546e-06 0)
(-4.56316e-05 2.60141e-06 0)
(-5.67995e-05 2.8001e-06 0)
(-6.87344e-05 2.97383e-06 0)
(-8.13427e-05 3.12495e-06 0)
(-9.45387e-05 3.25568e-06 0)
(-0.000108245 3.36808e-06 0)
(-0.00012239 3.46405e-06 0)
(-0.000136911 3.5453e-06 0)
(-0.000151751 3.61349e-06 0)
(-0.000166859 3.67008e-06 0)
(-0.00018219 3.71645e-06 0)
(-0.000197704 3.75382e-06 0)
(-0.000213366 3.78329e-06 0)
(-0.000229144 3.80587e-06 0)
(-0.000245012 3.82244e-06 0)
(-0.000260944 3.83382e-06 0)
(-0.000276922 3.84072e-06 0)
(-0.000292926 3.84377e-06 0)
(-0.000308942 3.84354e-06 0)
(-0.000324957 3.84051e-06 0)
(-0.000340958 3.83509e-06 0)
(-0.000356936 3.82767e-06 0)
(-0.000372883 3.81855e-06 0)
(-0.000388792 3.80799e-06 0)
(-0.000404658 3.79622e-06 0)
(-0.000420473 3.78341e-06 0)
(-0.000436236 3.76971e-06 0)
(-0.000451941 3.75523e-06 0)
(-0.000467585 3.74007e-06 0)
(-0.000483165 3.72428e-06 0)
(-0.000498678 3.70792e-06 0)
(-0.000514122 3.69101e-06 0)
(-0.000529494 3.67356e-06 0)
(-0.000544792 3.65557e-06 0)
(-0.000560013 3.63703e-06 0)
(-0.000575155 3.61793e-06 0)
(-0.000590215 3.59824e-06 0)
(-0.000605191 3.57793e-06 0)
(-0.00062008 3.55697e-06 0)
(-0.000634878 3.53532e-06 0)
(-0.000649583 3.51294e-06 0)
(-0.000664192 3.4898e-06 0)
(-0.000678702 3.46584e-06 0)
(-0.000693108 3.44103e-06 0)
(-0.000707407 3.41532e-06 0)
(-0.000721596 3.38868e-06 0)
(-0.00073567 3.36105e-06 0)
(-0.000749625 3.33239e-06 0)
(-0.000763457 3.30268e-06 0)
(-0.000777161 3.27185e-06 0)
(-0.000790732 3.23988e-06 0)
(-0.000804167 3.20673e-06 0)
(-0.000817459 3.17235e-06 0)
(-0.000830604 3.13671e-06 0)
(-0.000843596 3.09977e-06 0)
(-0.00085643 3.0615e-06 0)
(-0.0008691 3.02186e-06 0)
(-0.000881601 2.98081e-06 0)
(-0.000893926 2.93832e-06 0)
(-0.00090607 2.89436e-06 0)
(-0.000918026 2.8489e-06 0)
(-0.000929789 2.8019e-06 0)
(-0.000941351 2.75333e-06 0)
(-0.000952707 2.70317e-06 0)
(-0.00096385 2.65139e-06 0)
(-0.000974772 2.59796e-06 0)
(-0.000985468 2.54286e-06 0)
(-0.00099593 2.48605e-06 0)
(-0.00100615 2.42753e-06 0)
(-0.00101612 2.36727e-06 0)
(-0.00102584 2.30524e-06 0)
(-0.0010353 2.24144e-06 0)
(-0.00104448 2.17584e-06 0)
(-0.00105339 2.10843e-06 0)
(-0.00106202 2.0392e-06 0)
(-0.00107035 1.96814e-06 0)
(-0.00107838 1.89525e-06 0)
(-0.00108611 1.82052e-06 0)
(-0.00109352 1.74395e-06 0)
(-0.00110061 1.66553e-06 0)
(-0.00110737 1.58528e-06 0)
(-0.00111379 1.5032e-06 0)
(-0.00111986 1.4193e-06 0)
(-0.00112559 1.33359e-06 0)
(-0.00113095 1.24609e-06 0)
(-0.00113595 1.1568e-06 0)
(-0.00114058 1.06577e-06 0)
(-0.00114482 9.72999e-07 0)
(-0.00114867 8.7853e-07 0)
(-0.00115213 7.82392e-07 0)
(-0.00115519 6.84619e-07 0)
(-0.00115784 5.8525e-07 0)
(-0.00116008 4.8433e-07 0)
(-0.00116189 3.81903e-07 0)
(-0.00116327 2.78021e-07 0)
(-0.00116423 1.72738e-07 0)
(-0.00116474 6.6112e-08 0)
(-0.00116481 -4.17951e-08 0)
(-0.00116443 -1.50917e-07 0)
(-0.0011636 -2.61184e-07 0)
(-0.00116231 -3.72522e-07 0)
(-0.00116055 -4.84855e-07 0)
(-0.00115833 -5.98101e-07 0)
(-0.00115564 -7.12177e-07 0)
(-0.00115247 -8.26996e-07 0)
(-0.00114883 -9.42466e-07 0)
(-0.00114471 -1.05849e-06 0)
(-0.0011401 -1.17498e-06 0)
(-0.00113502 -1.29184e-06 0)
(-0.00112945 -1.40895e-06 0)
(-0.0011234 -1.52622e-06 0)
(-0.00111686 -1.64353e-06 0)
(-0.00110983 -1.76079e-06 0)
(-0.00110232 -1.87788e-06 0)
(-0.00109432 -1.99468e-06 0)
(-0.00108585 -2.11109e-06 0)
(-0.00107689 -2.22698e-06 0)
(-0.00106745 -2.34225e-06 0)
(-0.00105753 -2.45678e-06 0)
(-0.00104715 -2.57045e-06 0)
(-0.00103629 -2.68314e-06 0)
(-0.00102497 -2.79475e-06 0)
(-0.00101318 -2.90514e-06 0)
(-0.00100095 -3.01421e-06 0)
(-0.000988257 -3.12185e-06 0)
(-0.000975125 -3.22794e-06 0)
(-0.000961556 -3.33237e-06 0)
(-0.000947555 -3.43502e-06 0)
(-0.000933132 -3.5358e-06 0)
(-0.000918293 -3.63458e-06 0)
(-0.000903048 -3.73127e-06 0)
(-0.000887404 -3.82576e-06 0)
(-0.00087137 -3.91794e-06 0)
(-0.000854957 -4.00772e-06 0)
(-0.000838175 -4.09498e-06 0)
(-0.000821033 -4.17963e-06 0)
(-0.000803542 -4.26157e-06 0)
(-0.000785715 -4.34068e-06 0)
(-0.000767562 -4.41687e-06 0)
(-0.000749095 -4.49003e-06 0)
(-0.000730328 -4.56005e-06 0)
(-0.000711274 -4.6268e-06 0)
(-0.000691946 -4.69017e-06 0)
(-0.000672357 -4.75004e-06 0)
(-0.000652524 -4.80626e-06 0)
(-0.000632461 -4.85868e-06 0)
(-0.000612184 -4.90716e-06 0)
(-0.00059171 -4.9515e-06 0)
(-0.000571056 -4.99153e-06 0)
(-0.000550241 -5.02703e-06 0)
(-0.000529284 -5.05778e-06 0)
(-0.000508204 -5.08353e-06 0)
(-0.000487024 -5.104e-06 0)
(-0.000465766 -5.1189e-06 0)
(-0.000444453 -5.12789e-06 0)
(-0.000423112 -5.13061e-06 0)
(-0.000401768 -5.12666e-06 0)
(-0.000380451 -5.11562e-06 0)
(-0.000359191 -5.09702e-06 0)
(-0.000338021 -5.07035e-06 0)
(-0.000316975 -5.03506e-06 0)
(-0.000296091 -4.99055e-06 0)
(-0.000275407 -4.93618e-06 0)
(-0.000254968 -4.87125e-06 0)
(-0.000234817 -4.79505e-06 0)
(-0.000215003 -4.70677e-06 0)
(-0.000195579 -4.60558e-06 0)
(-0.000176599 -4.4906e-06 0)
(-0.000158122 -4.36089e-06 0)
(-0.000140211 -4.21548e-06 0)
(-0.000122932 -4.05335e-06 0)
(-0.000106356 -3.87344e-06 0)
(-9.05572e-05 -3.6747e-06 0)
(-7.56148e-05 -3.45603e-06 0)
(-6.1611e-05 -3.21639e-06 0)
(-4.86315e-05 -2.9548e-06 0)
(-3.67651e-05 -2.6704e-06 0)
(-2.61023e-05 -2.36259e-06 0)
(-1.6734e-05 -2.03115e-06 0)
(-8.74852e-06 -1.6765e-06 0)
(-2.22807e-06 -1.30019e-06 0)
(2.75765e-06 -9.05529e-07 0)
(6.16141e-06 -4.98841e-07 0)
(7.97465e-06 -9.16778e-08 0)
(8.2529e-06 2.95305e-07 0)
(7.15336e-06 6.27228e-07 0)
(5.01268e-06 8.46327e-07 0)
(2.52469e-06 8.31578e-07 0)
(4.74396e-07 4.74401e-07 0)
(5.8801e-07 -1.9285e-06 0)
(2.37646e-06 -2.37365e-06 0)
(2.78167e-06 -7.4604e-07 0)
(5.65244e-07 1.92735e-06 0)
(-5.09729e-06 5.04866e-06 0)
(-1.4519e-05 8.28108e-06 0)
(-2.77378e-05 1.14378e-05 0)
(-4.46363e-05 1.44196e-05 0)
(-6.50077e-05 1.71785e-05 0)
(-8.85987e-05 1.96956e-05 0)
(-0.000115136 2.19686e-05 0)
(-0.000144342 2.40046e-05 0)
(-0.000175946 2.58155e-05 0)
(-0.000209689 2.7416e-05 0)
(-0.000245328 2.8822e-05 0)
(-0.000282636 3.00497e-05 0)
(-0.000321405 3.11149e-05 0)
(-0.000361444 3.2033e-05 0)
(-0.000402579 3.28183e-05 0)
(-0.000444654 3.34842e-05 0)
(-0.000487525 3.40435e-05 0)
(-0.000531067 3.45077e-05 0)
(-0.000575165 3.48876e-05 0)
(-0.000619718 3.51929e-05 0)
(-0.000664637 3.54326e-05 0)
(-0.000709843 3.56147e-05 0)
(-0.000755266 3.57465e-05 0)
(-0.000800844 3.58346e-05 0)
(-0.000846526 3.58848e-05 0)
(-0.000892264 3.59022e-05 0)
(-0.000938019 3.58914e-05 0)
(-0.000983756 3.58564e-05 0)
(-0.00102944 3.58007e-05 0)
(-0.00107506 3.57273e-05 0)
(-0.00112058 3.56386e-05 0)
(-0.00116598 3.55369e-05 0)
(-0.00121125 3.5424e-05 0)
(-0.00125638 3.53013e-05 0)
(-0.00130135 3.51699e-05 0)
(-0.00134615 3.50309e-05 0)
(-0.00139076 3.4885e-05 0)
(-0.00143519 3.47326e-05 0)
(-0.00147942 3.45742e-05 0)
(-0.00152344 3.44099e-05 0)
(-0.00156725 3.42399e-05 0)
(-0.00161084 3.4064e-05 0)
(-0.00165419 3.38824e-05 0)
(-0.00169731 3.36947e-05 0)
(-0.00174019 3.35008e-05 0)
(-0.0017828 3.33004e-05 0)
(-0.00182516 3.30933e-05 0)
(-0.00186724 3.2879e-05 0)
(-0.00190904 3.26574e-05 0)
(-0.00195055 3.2428e-05 0)
(-0.00199176 3.21905e-05 0)
(-0.00203265 3.19446e-05 0)
(-0.00207323 3.16897e-05 0)
(-0.00211346 3.14257e-05 0)
(-0.00215335 3.11521e-05 0)
(-0.00219288 3.08685e-05 0)
(-0.00223204 3.05747e-05 0)
(-0.00227081 3.02702e-05 0)
(-0.00230918 2.99547e-05 0)
(-0.00234714 2.96279e-05 0)
(-0.00238467 2.92894e-05 0)
(-0.00242176 2.89388e-05 0)
(-0.00245839 2.8576e-05 0)
(-0.00249454 2.82005e-05 0)
(-0.00253021 2.78121e-05 0)
(-0.00256536 2.74104e-05 0)
(-0.00259999 2.69952e-05 0)
(-0.00263408 2.65662e-05 0)
(-0.00266761 2.6123e-05 0)
(-0.00270057 2.56655e-05 0)
(-0.00273293 2.51934e-05 0)
(-0.00276467 2.47064e-05 0)
(-0.00279578 2.42043e-05 0)
(-0.00282624 2.36869e-05 0)
(-0.00285603 2.31539e-05 0)
(-0.00288512 2.26052e-05 0)
(-0.00291351 2.20406e-05 0)
(-0.00294116 2.14599e-05 0)
(-0.00296807 2.0863e-05 0)
(-0.0029942 2.02497e-05 0)
(-0.00301953 1.962e-05 0)
(-0.00304406 1.89736e-05 0)
(-0.00306775 1.83106e-05 0)
(-0.00309058 1.76309e-05 0)
(-0.00311254 1.69345e-05 0)
(-0.0031336 1.62212e-05 0)
(-0.00315374 1.54913e-05 0)
(-0.00317294 1.47446e-05 0)
(-0.00319118 1.39813e-05 0)
(-0.00320845 1.32015e-05 0)
(-0.0032247 1.24051e-05 0)
(-0.00323994 1.15925e-05 0)
(-0.00325413 1.07638e-05 0)
(-0.00326726 9.91908e-06 0)
(-0.00327931 9.05867e-06 0)
(-0.00329025 8.18283e-06 0)
(-0.00330008 7.29182e-06 0)
(-0.00330876 6.38598e-06 0)
(-0.00331629 5.46567e-06 0)
(-0.00332263 4.53128e-06 0)
(-0.00332779 3.58322e-06 0)
(-0.00333173 2.62195e-06 0)
(-0.00333445 1.64798e-06 0)
(-0.00333592 6.61809e-07 0)
(-0.00333614 -3.35988e-07 0)
(-0.00333508 -1.34482e-06 0)
(-0.00333274 -2.36407e-06 0)
(-0.0033291 -3.39307e-06 0)
(-0.00332415 -4.43113e-06 0)
(-0.00331789 -5.47753e-06 0)
(-0.00331029 -6.53152e-06 0)
(-0.00330135 -7.59231e-06 0)
(-0.00329106 -8.6591e-06 0)
(-0.00327942 -9.73104e-06 0)
(-0.00326642 -1.08073e-05 0)
(-0.00325205 -1.18869e-05 0)
(-0.00323632 -1.2969e-05 0)
(-0.00321921 -1.40527e-05 0)
(-0.00320073 -1.51369e-05 0)
(-0.00318088 -1.62208e-05 0)
(-0.00315965 -1.73032e-05 0)
(-0.00313706 -1.83833e-05 0)
(-0.00311309 -1.94601e-05 0)
(-0.00308777 -2.05323e-05 0)
(-0.00306109 -2.15992e-05 0)
(-0.00303306 -2.26595e-05 0)
(-0.0030037 -2.37123e-05 0)
(-0.002973 -2.47565e-05 0)
(-0.00294099 -2.5791e-05 0)
(-0.00290767 -2.68149e-05 0)
(-0.00287306 -2.78271e-05 0)
(-0.00283717 -2.88265e-05 0)
(-0.00280002 -2.98122e-05 0)
(-0.00276163 -3.0783e-05 0)
(-0.00272202 -3.17381e-05 0)
(-0.0026812 -3.26764e-05 0)
(-0.0026392 -3.35969e-05 0)
(-0.00259605 -3.44987e-05 0)
(-0.00255176 -3.53808e-05 0)
(-0.00250636 -3.62422e-05 0)
(-0.00245987 -3.70819e-05 0)
(-0.00241233 -3.78991e-05 0)
(-0.00236377 -3.86928e-05 0)
(-0.0023142 -3.94619e-05 0)
(-0.00226368 -4.02055e-05 0)
(-0.00221222 -4.09227e-05 0)
(-0.00215986 -4.16124e-05 0)
(-0.00210663 -4.22735e-05 0)
(-0.00205258 -4.29049e-05 0)
(-0.00199774 -4.35054e-05 0)
(-0.00194216 -4.40739e-05 0)
(-0.00188586 -4.4609e-05 0)
(-0.0018289 -4.51092e-05 0)
(-0.00177132 -4.5573e-05 0)
(-0.00171316 -4.59988e-05 0)
(-0.00165448 -4.63847e-05 0)
(-0.00159534 -4.67288e-05 0)
(-0.00153577 -4.70288e-05 0)
(-0.00147584 -4.72824e-05 0)
(-0.00141562 -4.74869e-05 0)
(-0.00135516 -4.76395e-05 0)
(-0.00129453 -4.77371e-05 0)
(-0.0012338 -4.77763e-05 0)
(-0.00117306 -4.77534e-05 0)
(-0.00111238 -4.76642e-05 0)
(-0.00105185 -4.75046e-05 0)
(-0.000991569 -4.72696e-05 0)
(-0.000931625 -4.69543e-05 0)
(-0.000872128 -4.65531e-05 0)
(-0.000813191 -4.60602e-05 0)
(-0.000754934 -4.54693e-05 0)
(-0.000697486 -4.47738e-05 0)
(-0.000640983 -4.39666e-05 0)
(-0.000585571 -4.30403e-05 0)
(-0.000531405 -4.19871e-05 0)
(-0.000478649 -4.07989e-05 0)
(-0.000427479 -3.94675e-05 0)
(-0.000378078 -3.79844e-05 0)
(-0.000330642 -3.6341e-05 0)
(-0.000285373 -3.45289e-05 0)
(-0.000242486 -3.25402e-05 0)
(-0.000202202 -3.03676e-05 0)
(-0.000164749 -2.80052e-05 0)
(-0.000130357 -2.5449e-05 0)
(-9.92591e-05 -2.26984e-05 0)
(-7.16813e-05 -1.97574e-05 0)
(-4.78365e-05 -1.66375e-05 0)
(-2.79119e-05 -1.33613e-05 0)
(-1.20526e-05 -9.96864e-06 0)
(-3.35544e-07 -6.52591e-06 0)
(7.2675e-06 -3.14079e-06 0)
(1.09429e-05 1.46151e-08 0)
(1.11066e-05 2.66911e-06 0)
(8.52968e-06 4.40346e-06 0)
(4.59434e-06 4.6001e-06 0)
(8.29417e-07 2.52283e-06 0)
(3.77068e-07 -3.0597e-06 0)
(7.51326e-07 -2.78016e-06 0)
(-1.60422e-06 1.60654e-06 0)
(-8.1061e-06 8.16891e-06 0)
(-1.96749e-05 1.57481e-05 0)
(-3.67235e-05 2.364e-05 0)
(-5.93401e-05 3.14216e-05 0)
(-8.74046e-05 3.88485e-05 0)
(-0.000120665 4.57875e-05 0)
(-0.000158791 5.21746e-05 0)
(-0.000201412 5.79883e-05 0)
(-0.000248141 6.32331e-05 0)
(-0.000298592 6.7929e-05 0)
(-0.000352388 7.21051e-05 0)
(-0.000409169 7.57951e-05 0)
(-0.000468597 7.90352e-05 0)
(-0.000530357 8.1862e-05 0)
(-0.000594157 8.43116e-05 0)
(-0.00065973 8.64187e-05 0)
(-0.000726831 8.82163e-05 0)
(-0.000795238 8.97356e-05 0)
(-0.000864753 9.10057e-05 0)
(-0.000935194 9.20534e-05 0)
(-0.0010064 9.29036e-05 0)
(-0.00107823 9.35791e-05 0)
(-0.00115055 9.41005e-05 0)
(-0.00122326 9.44868e-05 0)
(-0.00129624 9.47549e-05 0)
(-0.00136942 9.49199e-05 0)
(-0.00144272 9.49954e-05 0)
(-0.00151608 9.49934e-05 0)
(-0.00158942 9.49245e-05 0)
(-0.00166271 9.47979e-05 0)
(-0.0017359 9.46216e-05 0)
(-0.00180894 9.44023e-05 0)
(-0.00188182 9.4146e-05 0)
(-0.0019545 9.38574e-05 0)
(-0.00202695 9.35407e-05 0)
(-0.00209915 9.31992e-05 0)
(-0.00217108 9.28354e-05 0)
(-0.00224273 9.24515e-05 0)
(-0.00231407 9.20489e-05 0)
(-0.0023851 9.16287e-05 0)
(-0.00245579 9.11917e-05 0)
(-0.00252614 9.07383e-05 0)
(-0.00259613 9.02686e-05 0)
(-0.00266574 8.97824e-05 0)
(-0.00273497 8.92795e-05 0)
(-0.0028038 8.87594e-05 0)
(-0.00287221 8.82216e-05 0)
(-0.00294019 8.76653e-05 0)
(-0.00300773 8.70898e-05 0)
(-0.0030748 8.64944e-05 0)
(-0.00314141 8.5878e-05 0)
(-0.00320751 8.524e-05 0)
(-0.00327311 8.45793e-05 0)
(-0.00333818 8.3895e-05 0)
(-0.0034027 8.31862e-05 0)
(-0.00346666 8.24521e-05 0)
(-0.00353003 8.16916e-05 0)
(-0.00359279 8.09039e-05 0)
(-0.00365493 8.00881e-05 0)
(-0.00371641 7.92433e-05 0)
(-0.00377722 7.83686e-05 0)
(-0.00383734 7.74631e-05 0)
(-0.00389674 7.65261e-05 0)
(-0.00395539 7.55566e-05 0)
(-0.00401327 7.45539e-05 0)
(-0.00407035 7.35173e-05 0)
(-0.00412662 7.24458e-05 0)
(-0.00418203 7.13388e-05 0)
(-0.00423657 7.01956e-05 0)
(-0.00429021 6.90154e-05 0)
(-0.00434291 6.77976e-05 0)
(-0.00439465 6.65414e-05 0)
(-0.0044454 6.52464e-05 0)
(-0.00449513 6.39119e-05 0)
(-0.0045438 6.25372e-05 0)
(-0.0045914 6.1122e-05 0)
(-0.00463788 5.96656e-05 0)
(-0.00468322 5.81677e-05 0)
(-0.00472738 5.66278e-05 0)
(-0.00477033 5.50455e-05 0)
(-0.00481205 5.34205e-05 0)
(-0.00485249 5.17525e-05 0)
(-0.00489162 5.00413e-05 0)
(-0.00492942 4.82867e-05 0)
(-0.00496584 4.64885e-05 0)
(-0.00500086 4.46467e-05 0)
(-0.00503444 4.27612e-05 0)
(-0.00506655 4.08322e-05 0)
(-0.00509715 3.88596e-05 0)
(-0.00512622 3.68437e-05 0)
(-0.00515372 3.47847e-05 0)
(-0.00517962 3.26829e-05 0)
(-0.00520388 3.05386e-05 0)
(-0.00522648 2.83524e-05 0)
(-0.00524738 2.61248e-05 0)
(-0.00526655 2.38563e-05 0)
(-0.00528396 2.15477e-05 0)
(-0.00529958 1.91997e-05 0)
(-0.00531338 1.68132e-05 0)
(-0.00532533 1.43891e-05 0)
(-0.00533541 1.19283e-05 0)
(-0.00534359 9.43213e-06 0)
(-0.00534983 6.90164e-06 0)
(-0.00535413 4.33814e-06 0)
(-0.00535644 1.74298e-06 0)
(-0.00535675 -8.82364e-07 0)
(-0.00535503 -3.53637e-06 0)
(-0.00535127 -6.21742e-06 0)
(-0.00534545 -8.92379e-06 0)
(-0.00533754 -1.16537e-05 0)
(-0.00532753 -1.44053e-05 0)
(-0.0053154 -1.71766e-05 0)
(-0.00530115 -1.99656e-05 0)
(-0.00528475 -2.27702e-05 0)
(-0.00526619 -2.55882e-05 0)
(-0.00524547 -2.84174e-05 0)
(-0.00522259 -3.12555e-05 0)
(-0.00519752 -3.41001e-05 0)
(-0.00517027 -3.69488e-05 0)
(-0.00514084 -3.97992e-05 0)
(-0.00510923 -4.26487e-05 0)
(-0.00507544 -4.54947e-05 0)
(-0.00503946 -4.83347e-05 0)
(-0.00500132 -5.1166e-05 0)
(-0.004961 -5.39859e-05 0)
(-0.00491854 -5.67919e-05 0)
(-0.00487392 -5.95812e-05 0)
(-0.00482718 -6.23511e-05 0)
(-0.00477832 -6.50989e-05 0)
(-0.00472736 -6.78219e-05 0)
(-0.00467433 -7.05174e-05 0)
(-0.00461923 -7.31827e-05 0)
(-0.00456211 -7.58152e-05 0)
(-0.00450298 -7.84121e-05 0)
(-0.00444186 -8.09708e-05 0)
(-0.0043788 -8.34888e-05 0)
(-0.00431382 -8.59634e-05 0)
(-0.00424695 -8.83921e-05 0)
(-0.00417824 -9.07723e-05 0)
(-0.00410771 -9.31014e-05 0)
(-0.00403541 -9.5377e-05 0)
(-0.00396138 -9.75965e-05 0)
(-0.00388566 -9.97574e-05 0)
(-0.00380829 -0.000101857 0)
(-0.00372934 -0.000103893 0)
(-0.00364883 -0.000105863 0)
(-0.00356683 -0.000107764 0)
(-0.00348339 -0.000109593 0)
(-0.00339856 -0.000111348 0)
(-0.0033124 -0.000113025 0)
(-0.00322498 -0.000114622 0)
(-0.00313635 -0.000116135 0)
(-0.00304658 -0.00011756 0)
(-0.00295573 -0.000118893 0)
(-0.00286389 -0.000120131 0)
(-0.00277111 -0.00012127 0)
(-0.0026775 -0.000122303 0)
(-0.00258311 -0.000123226 0)
(-0.00248805 -0.000124033 0)
(-0.0023924 -0.000124718 0)
(-0.00229626 -0.000125273 0)
(-0.00219974 -0.000125691 0)
(-0.00210293 -0.000125964 0)
(-0.00200596 -0.000126083 0)
(-0.00190895 -0.000126037 0)
(-0.00181203 -0.000125817 0)
(-0.00171533 -0.000125411 0)
(-0.00161901 -0.000124806 0)
(-0.00152323 -0.000123989 0)
(-0.00142814 -0.000122946 0)
(-0.00133393 -0.000121661 0)
(-0.0012408 -0.000120119 0)
(-0.00114894 -0.000118302 0)
(-0.00105857 -0.000116192 0)
(-0.000969925 -0.00011377 0)
(-0.000883244 -0.000111017 0)
(-0.000798786 -0.000107913 0)
(-0.000716825 -0.000104437 0)
(-0.000637648 -0.000100568 0)
(-0.000561556 -9.62867e-05 0)
(-0.000488864 -9.15728e-05 0)
(-0.000419898 -8.64087e-05 0)
(-0.000354994 -8.07795e-05 0)
(-0.000294494 -7.46744e-05 0)
(-0.000238742 -6.80888e-05 0)
(-0.000188077 -6.10277e-05 0)
(-0.000142822 -5.35099e-05 0)
(-0.000103273 -4.55741e-05 0)
(-6.96822e-05 -3.72882e-05 0)
(-4.22283e-05 -2.87626e-05 0)
(-2.09851e-05 -2.01704e-05 0)
(-5.87333e-06 -1.17757e-05 0)
(3.4021e-06 -3.97664e-06 0)
(7.42824e-06 2.63692e-06 0)
(7.20492e-06 7.20895e-06 0)
(4.3936e-06 8.53354e-06 0)
(8.41639e-07 5.00332e-06 0)
(2.02978e-08 -3.21219e-06 0)
(-1.93296e-06 -5.57211e-07 0)
(-8.20145e-06 8.11766e-06 0)
(-2.01759e-05 2.01216e-05 0)
(-3.86533e-05 3.37675e-05 0)
(-6.40375e-05 4.79696e-05 0)
(-9.6421e-05 6.20372e-05 0)
(-0.000135674 7.5547e-05 0)
(-0.000181515 8.82517e-05 0)
(-0.00023357 0.00010002 0)
(-0.000291403 0.000110795 0)
(-0.000354555 0.000120569 0)
(-0.000422557 0.000129365 0)
(-0.000494946 0.000137225 0)
(-0.000571274 0.000144203 0)
(-0.000651116 0.000150357 0)
(-0.00073407 0.000155749 0)
(-0.000819763 0.000160442 0)
(-0.000907849 0.000164497 0)
(-0.000998011 0.000167973 0)
(-0.00108996 0.000170924 0)
(-0.00118343 0.000173405 0)
(-0.00127818 0.000175464 0)
(-0.001374 0.000177146 0)
(-0.00147069 0.000178495 0)
(-0.00156809 0.000179547 0)
(-0.00166604 0.000180339 0)
(-0.0017644 0.000180902 0)
(-0.00186306 0.000181264 0)
(-0.00196191 0.000181452 0)
(-0.00206086 0.000181488 0)
(-0.00215982 0.000181391 0)
(-0.00225873 0.00018118 0)
(-0.00235753 0.000180871 0)
(-0.00245615 0.000180475 0)
(-0.00255456 0.000180004 0)
(-0.00265271 0.000179468 0)
(-0.00275056 0.000178876 0)
(-0.00284809 0.000178232 0)
(-0.00294526 0.000177543 0)
(-0.00304204 0.000176813 0)
(-0.00313842 0.000176044 0)
(-0.00323437 0.00017524 0)
(-0.00332987 0.000174401 0)
(-0.00342489 0.000173529 0)
(-0.00351943 0.000172625 0)
(-0.00361345 0.000171687 0)
(-0.00370695 0.000170716 0)
(-0.0037999 0.000169711 0)
(-0.00389228 0.000168671 0)
(-0.00398406 0.000167595 0)
(-0.00407524 0.000166482 0)
(-0.00416579 0.00016533 0)
(-0.00425568 0.000164137 0)
(-0.0043449 0.000162903 0)
(-0.00443341 0.000161624 0)
(-0.0045212 0.000160301 0)
(-0.00460824 0.000158931 0)
(-0.00469451 0.000157512 0)
(-0.00477997 0.000156042 0)
(-0.00486459 0.000154521 0)
(-0.00494836 0.000152946 0)
(-0.00503124 0.000151315 0)
(-0.0051132 0.000149628 0)
(-0.0051942 0.000147882 0)
(-0.00527423 0.000146076 0)
(-0.00535323 0.000144209 0)
(-0.00543119 0.000142278 0)
(-0.00550805 0.000140283 0)
(-0.0055838 0.000138222 0)
(-0.0056584 0.000136094 0)
(-0.0057318 0.000133896 0)
(-0.00580397 0.000131629 0)
(-0.00587487 0.00012929 0)
(-0.00594447 0.000126879 0)
(-0.00601272 0.000124394 0)
(-0.00607958 0.000121835 0)
(-0.00614502 0.000119199 0)
(-0.00620899 0.000116487 0)
(-0.00627145 0.000113697 0)
(-0.00633237 0.000110828 0)
(-0.00639169 0.000107881 0)
(-0.00644937 0.000104853 0)
(-0.00650538 0.000101744 0)
(-0.00655966 9.85544e-05 0)
(-0.00661219 9.52831e-05 0)
(-0.0066629 9.19299e-05 0)
(-0.00671176 8.84945e-05 0)
(-0.00675873 8.49769e-05 0)
(-0.00680375 8.1377e-05 0)
(-0.0068468 7.76948e-05 0)
(-0.00688781 7.39307e-05 0)
(-0.00692676 7.0085e-05 0)
(-0.00696359 6.6158e-05 0)
(-0.00699827 6.21505e-05 0)
(-0.00703074 5.80631e-05 0)
(-0.00706098 5.38967e-05 0)
(-0.00708893 4.96523e-05 0)
(-0.00711456 4.53311e-05 0)
(-0.00713782 4.09343e-05 0)
(-0.00715868 3.64635e-05 0)
(-0.00717709 3.19202e-05 0)
(-0.00719303 2.73063e-05 0)
(-0.00720644 2.26235e-05 0)
(-0.00721731 1.78741e-05 0)
(-0.00722558 1.30603e-05 0)
(-0.00723123 8.18439e-06 0)
(-0.00723423 3.24907e-06 0)
(-0.00723454 -1.74297e-06 0)
(-0.00723214 -6.78884e-06 0)
(-0.007227 -1.18855e-05 0)
(-0.00721909 -1.70297e-05 0)
(-0.00720839 -2.22181e-05 0)
(-0.00719487 -2.74472e-05 0)
(-0.00717852 -3.27133e-05 0)
(-0.00715932 -3.80127e-05 0)
(-0.00713725 -4.33414e-05 0)
(-0.00711229 -4.86952e-05 0)
(-0.00708443 -5.40701e-05 0)
(-0.00705367 -5.94618e-05 0)
(-0.00702 -6.48656e-05 0)
(-0.00698341 -7.02773e-05 0)
(-0.00694389 -7.5692e-05 0)
(-0.00690145 -8.11052e-05 0)
(-0.0068561 -8.65119e-05 0)
(-0.00680782 -9.19074e-05 0)
(-0.00675664 -9.72867e-05 0)
(-0.00670256 -0.000102645 0)
(-0.00664559 -0.000107977 0)
(-0.00658576 -0.000113277 0)
(-0.00652307 -0.000118542 0)
(-0.00645754 -0.000123765 0)
(-0.00638921 -0.000128941 0)
(-0.00631809 -0.000134067 0)
(-0.00624422 -0.000139135 0)
(-0.00616763 -0.000144142 0)
(-0.00608834 -0.000149082 0)
(-0.0060064 -0.000153951 0)
(-0.00592185 -0.000158744 0)
(-0.00583472 -0.000163455 0)
(-0.00574506 -0.000168079 0)
(-0.00565292 -0.000172613 0)
(-0.00555835 -0.000177051 0)
(-0.0054614 -0.000181388 0)
(-0.00536212 -0.00018562 0)
(-0.00526058 -0.000189742 0)
(-0.00515683 -0.000193748 0)
(-0.00505093 -0.000197635 0)
(-0.00494294 -0.000201397 0)
(-0.00483295 -0.000205029 0)
(-0.00472101 -0.000208525 0)
(-0.00460721 -0.000211881 0)
(-0.00449161 -0.00021509 0)
(-0.0043743 -0.000218147 0)
(-0.00425536 -0.000221044 0)
(-0.00413489 -0.000223776 0)
(-0.00401296 -0.000226334 0)
(-0.00388968 -0.000228712 0)
(-0.00376514 -0.000230899 0)
(-0.00363945 -0.000232887 0)
(-0.00351273 -0.000234665 0)
(-0.00338508 -0.000236222 0)
(-0.00325663 -0.000237547 0)
(-0.00312752 -0.000238625 0)
(-0.00299787 -0.000239442 0)
(-0.00286783 -0.000239982 0)
(-0.00273756 -0.000240229 0)
(-0.00260722 -0.000240163 0)
(-0.00247699 -0.000239764 0)
(-0.00234705 -0.00023901 0)
(-0.0022176 -0.000237879 0)
(-0.00208886 -0.000236344 0)
(-0.00196103 -0.00023438 0)
(-0.00183438 -0.000231957 0)
(-0.00170914 -0.000229045 0)
(-0.0015856 -0.000225613 0)
(-0.00146403 -0.000221627 0)
(-0.00134475 -0.000217052 0)
(-0.00122807 -0.000211853 0)
(-0.00111433 -0.000205994 0)
(-0.0010039 -0.000199436 0)
(-0.000897155 -0.000192145 0)
(-0.000794477 -0.000184084 0)
(-0.000696278 -0.000175222 0)
(-0.000602976 -0.000165528 0)
(-0.000515002 -0.000154981 0)
(-0.000432788 -0.000143566 0)
(-0.000356763 -0.000131284 0)
(-0.000287348 -0.000118152 0)
(-0.000224935 -0.000104216 0)
(-0.000169878 -8.95587e-05 0)
(-0.000122466 -7.43162e-05 0)
(-8.28963e-05 -5.86993e-05 0)
(-5.12341e-05 -4.30236e-05 0)
(-2.73647e-05 -2.77524e-05 0)
(-1.09324e-05 -1.35541e-05 0)
(-1.27002e-06 -1.37859e-06 0)
(2.70375e-06 7.452e-06 0)
(2.68144e-06 1.11247e-05 0)
(6.2263e-07 7.13731e-06 0)
(-3.81615e-07 -1.95934e-06 0)
(-5.09038e-06 5.14426e-06 0)
(-1.58795e-05 1.97472e-05 0)
(-3.40062e-05 3.86357e-05 0)
(-6e-05 5.97035e-05 0)
(-9.41663e-05 8.15336e-05 0)
(-0.000136547 0.000103183 0)
(-0.000186978 0.000124048 0)
(-0.000245144 0.000143756 0)
(-0.000310632 0.000162098 0)
(-0.000382965 0.00017897 0)
(-0.000461628 0.000194344 0)
(-0.000546094 0.000208239 0)
(-0.000635838 0.000220707 0)
(-0.000730344 0.000231819 0)
(-0.00082912 0.000241657 0)
(-0.000931698 0.000250311 0)
(-0.00103764 0.000257872 0)
(-0.00114653 0.000264429 0)
(-0.00125799 0.000270072 0)
(-0.00137168 0.000274885 0)
(-0.00148728 0.000278949 0)
(-0.00160449 0.000282339 0)
(-0.00172306 0.000285125 0)
(-0.00184275 0.000287373 0)
(-0.00196335 0.000289144 0)
(-0.00208466 0.000290493 0)
(-0.00220652 0.000291468 0)
(-0.00232878 0.000292117 0)
(-0.00245131 0.000292479 0)
(-0.00257399 0.00029259 0)
(-0.00269672 0.000292483 0)
(-0.0028194 0.000292187 0)
(-0.00294196 0.000291724 0)
(-0.00306433 0.000291118 0)
(-0.00318645 0.000290386 0)
(-0.00330826 0.000289545 0)
(-0.00342971 0.000288606 0)
(-0.00355076 0.00028758 0)
(-0.00367137 0.000286477 0)
(-0.00379152 0.000285304 0)
(-0.00391115 0.000284065 0)
(-0.00403026 0.000282766 0)
(-0.0041488 0.000281408 0)
(-0.00426675 0.000279993 0)
(-0.00438409 0.000278524 0)
(-0.00450079 0.000276998 0)
(-0.00461682 0.000275418 0)
(-0.00473216 0.00027378 0)
(-0.00484678 0.000272085 0)
(-0.00496066 0.00027033 0)
(-0.00507377 0.000268514 0)
(-0.00518609 0.000266634 0)
(-0.00529758 0.000264688 0)
(-0.00540822 0.000262674 0)
(-0.00551797 0.000260589 0)
(-0.00562681 0.000258431 0)
(-0.0057347 0.000256197 0)
(-0.00584162 0.000253884 0)
(-0.00594752 0.000251489 0)
(-0.00605238 0.000249011 0)
(-0.00615615 0.000246447 0)
(-0.00625881 0.000243793 0)
(-0.00636031 0.000241048 0)
(-0.00646061 0.000238209 0)
(-0.00655968 0.000235273 0)
(-0.00665747 0.000232239 0)
(-0.00675394 0.000229103 0)
(-0.00684906 0.000225864 0)
(-0.00694277 0.000222519 0)
(-0.00703503 0.000219066 0)
(-0.0071258 0.000215503 0)
(-0.00721504 0.000211828 0)
(-0.00730268 0.000208038 0)
(-0.0073887 0.000204133 0)
(-0.00747304 0.00020011 0)
(-0.00755564 0.000195968 0)
(-0.00763647 0.000191704 0)
(-0.00771547 0.000187318 0)
(-0.00779259 0.000182807 0)
(-0.00786779 0.000178171 0)
(-0.00794099 0.000173409 0)
(-0.00801217 0.000168519 0)
(-0.00808126 0.0001635 0)
(-0.00814821 0.000158352 0)
(-0.00821297 0.000153073 0)
(-0.00827548 0.000147665 0)
(-0.00833569 0.000142125 0)
(-0.00839356 0.000136454 0)
(-0.00844901 0.000130653 0)
(-0.00850201 0.00012472 0)
(-0.0085525 0.000118657 0)
(-0.00860042 0.000112464 0)
(-0.00864572 0.000106142 0)
(-0.00868836 9.96916e-05 0)
(-0.00872827 9.31143e-05 0)
(-0.00876541 8.64115e-05 0)
(-0.00879973 7.95846e-05 0)
(-0.00883117 7.26357e-05 0)
(-0.00885969 6.55668e-05 0)
(-0.00888524 5.83802e-05 0)
(-0.00890778 5.10786e-05 0)
(-0.00892725 4.36648e-05 0)
(-0.00894361 3.61418e-05 0)
(-0.00895682 2.8513e-05 0)
(-0.00896684 2.07819e-05 0)
(-0.00897362 1.29525e-05 0)
(-0.00897713 5.02879e-06 0)
(-0.00897733 -2.98487e-06 0)
(-0.00897418 -1.10839e-05 0)
(-0.00896766 -1.92633e-05 0)
(-0.00895773 -2.75182e-05 0)
(-0.00894435 -3.5843e-05 0)
(-0.00892751 -4.42324e-05 0)
(-0.00890718 -5.26804e-05 0)
(-0.00888334 -6.1181e-05 0)
(-0.00885596 -6.9728e-05 0)
(-0.00882504 -7.83148e-05 0)
(-0.00879054 -8.6935e-05 0)
(-0.00875248 -9.55815e-05 0)
(-0.00871082 -0.000104247 0)
(-0.00866557 -0.000112926 0)
(-0.00861673 -0.000121609 0)
(-0.00856429 -0.000130289 0)
(-0.00850826 -0.000138959 0)
(-0.00844864 -0.000147611 0)
(-0.00838545 -0.000156238 0)
(-0.00831869 -0.000164831 0)
(-0.00824837 -0.000173382 0)
(-0.00817453 -0.000181884 0)
(-0.00809717 -0.000190328 0)
(-0.00801633 -0.000198707 0)
(-0.00793203 -0.000207012 0)
(-0.0078443 -0.000215235 0)
(-0.00775318 -0.000223368 0)
(-0.00765871 -0.000231404 0)
(-0.00756093 -0.000239334 0)
(-0.00745987 -0.000247151 0)
(-0.0073556 -0.000254846 0)
(-0.00724816 -0.000262412 0)
(-0.0071376 -0.000269842 0)
(-0.00702398 -0.000277126 0)
(-0.00690737 -0.000284258 0)
(-0.00678782 -0.000291231 0)
(-0.0066654 -0.000298035 0)
(-0.00654018 -0.000304665 0)
(-0.00641224 -0.000311111 0)
(-0.00628164 -0.000317367 0)
(-0.00614848 -0.000323423 0)
(-0.00601283 -0.000329272 0)
(-0.00587478 -0.000334906 0)
(-0.00573441 -0.000340314 0)
(-0.00559183 -0.000345489 0)
(-0.00544714 -0.00035042 0)
(-0.00530042 -0.000355096 0)
(-0.0051518 -0.000359507 0)
(-0.00500138 -0.000363641 0)
(-0.00484928 -0.000367484 0)
(-0.00469562 -0.000371022 0)
(-0.00454054 -0.000374241 0)
(-0.00438417 -0.000377123 0)
(-0.00422664 -0.000379651 0)
(-0.00406812 -0.000381804 0)
(-0.00390877 -0.000383562 0)
(-0.00374874 -0.000384901 0)
(-0.00358823 -0.000385795 0)
(-0.00342742 -0.000386217 0)
(-0.00326651 -0.000386137 0)
(-0.00310572 -0.000385523 0)
(-0.00294528 -0.000384339 0)
(-0.00278543 -0.000382549 0)
(-0.00262643 -0.000380113 0)
(-0.00246856 -0.000376988 0)
(-0.0023121 -0.000373129 0)
(-0.00215737 -0.000368489 0)
(-0.0020047 -0.000363018 0)
(-0.00185444 -0.000356664 0)
(-0.00170696 -0.000349372 0)
(-0.00156266 -0.000341089 0)
(-0.00142193 -0.000331759 0)
(-0.00128521 -0.000321325 0)
(-0.00115296 -0.000309734 0)
(-0.00102564 -0.000296933 0)
(-0.000903728 -0.000282877 0)
(-0.00078773 -0.000267524 0)
(-0.000678146 -0.000250848 0)
(-0.000575478 -0.000232835 0)
(-0.000480225 -0.000213494 0)
(-0.000392864 -0.000192865 0)
(-0.00031384 -0.000171032 0)
(-0.000243547 -0.000148134 0)
(-0.000182302 -0.000124393 0)
(-0.000130314 -0.000100138 0)
(-8.76504e-05 -7.58473e-05 0)
(-5.41866e-05 -5.21978e-05 0)
(-2.9555e-05 -3.0137e-05 0)
(-1.30832e-05 -1.09684e-05 0)
(-3.71566e-06 3.54552e-06 0)
(9.77154e-08 1.10383e-05 0)
(2.96576e-07 8.24794e-06 0)
(-7.88957e-07 8.29531e-07 0)
(-8.39274e-06 1.46724e-05 0)
(-2.39558e-05 3.69628e-05 0)
(-4.85501e-05 6.4188e-05 0)
(-8.23555e-05 9.39517e-05 0)
(-0.000125514 0.000124581 0)
(-0.000177969 0.000154922 0)
(-0.000239491 0.000184207 0)
(-0.000309718 0.000211948 0)
(-0.000388195 0.000237852 0)
(-0.000474406 0.000261767 0)
(-0.000567795 0.000283639 0)
(-0.000667789 0.000303479 0)
(-0.000773815 0.000321344 0)
(-0.000885309 0.000337322 0)
(-0.00100172 0.000351517 0)
(-0.00112254 0.000364046 0)
(-0.00124727 0.000375028 0)
(-0.00137544 0.000384587 0)
(-0.00150663 0.000392842 0)
(-0.00164045 0.000399908 0)
(-0.00177652 0.000405899 0)
(-0.00191451 0.000410918 0)
(-0.00205413 0.000415064 0)
(-0.00219509 0.00041843 0)
(-0.00233716 0.0004211 0)
(-0.0024801 0.000423153 0)