/*--------------------------------*- C++ -*----------------------------------*\
  =========                 |
  \\      /  F ield         | OpenFOAM: The Open Source CFD Toolbox
   \\    /   O peration     | Website:  https://openfoam.org
    \\  /    A nd           | Version:  6
     \\/     M anipulation  |
\*---------------------------------------------------------------------------*/
FoamFile
{
    version     2.0;
    format      ascii;
    class       volScalarField;
    location    "0";
    object      p;
}
// * * * * * * * * * * * * * * * * * * * * * * * * * * * * * * * * * * * * * //

dimensions      [0 2 -2 0 0 0 0];

internalField   nonuniform List<scalar> 
145945
(
2.45737e-06
2.45702e-06
2.45699e-06
2.457e-06
2.45711e-06
2.45719e-06
2.45728e-06
2.45733e-06
2.45737e-06
2.45736e-06
2.45733e-06
2.45725e-06
2.4572e-06
2.4571e-06
2.45714e-06
2.45713e-06
2.4575e-06
2.45702e-06
2.45687e-06
2.45686e-06
2.45692e-06
2.45705e-06
2.45714e-06
2.45723e-06
2.45729e-06
2.45732e-06
2.45731e-06
2.45728e-06
2.4572e-06
2.45714e-06
2.45704e-06
2.45702e-06
2.45699e-06
2.45716e-06
2.45699e-06
2.45686e-06
2.45687e-06
2.45697e-06
2.4571e-06
2.45721e-06
2.45731e-06
2.45737e-06
2.45741e-06
2.4574e-06
2.45736e-06
2.45728e-06
2.45721e-06
2.4571e-06
2.45704e-06
2.457e-06
2.45713e-06
2.457e-06
2.45692e-06
2.45697e-06
2.4571e-06
2.45726e-06
2.45738e-06
2.45748e-06
2.45755e-06
2.45759e-06
2.45758e-06
2.45754e-06
2.45746e-06
2.45737e-06
2.45725e-06
2.45715e-06
2.45707e-06
2.45714e-06
2.45711e-06
2.45705e-06
2.4571e-06
2.45726e-06
2.45742e-06
2.45754e-06
2.45765e-06
2.45772e-06
2.45775e-06
2.45775e-06
2.4577e-06
2.45762e-06
2.45753e-06
2.45741e-06
2.45729e-06
2.4572e-06
2.45726e-06
2.45719e-06
2.45714e-06
2.45721e-06
2.45738e-06
2.45754e-06
2.45768e-06
2.45779e-06
2.45786e-06
2.45789e-06
2.45789e-06
2.45784e-06
2.45776e-06
2.45766e-06
2.45753e-06
2.45741e-06
2.4573e-06
2.45734e-06
2.45728e-06
2.45723e-06
2.45731e-06
2.45748e-06
2.45765e-06
2.45779e-06
2.45789e-06
2.45797e-06
2.458e-06
2.45799e-06
2.45795e-06
2.45787e-06
2.45777e-06
2.45764e-06
2.45751e-06
2.45739e-06
2.45743e-06
2.45733e-06
2.45729e-06
2.45737e-06
2.45755e-06
2.45772e-06
2.45786e-06
2.45797e-06
2.45804e-06
2.45807e-06
2.45807e-06
2.45802e-06
2.45794e-06
2.45784e-06
2.45771e-06
2.45757e-06
2.45745e-06
2.45748e-06
2.45737e-06
2.45732e-06
2.45741e-06
2.45759e-06
2.45776e-06
2.45789e-06
2.458e-06
2.45807e-06
2.45811e-06
2.4581e-06
2.45806e-06
2.45798e-06
2.45787e-06
2.45775e-06
2.45761e-06
2.45749e-06
2.45752e-06
2.45736e-06
2.45731e-06
2.4574e-06
2.45758e-06
2.45775e-06
2.45789e-06
2.45799e-06
2.45807e-06
2.4581e-06
2.4581e-06
2.45805e-06
2.45797e-06
2.45787e-06
2.45774e-06
2.4576e-06
2.45748e-06
2.45751e-06
2.45733e-06
2.45728e-06
2.45736e-06
2.45754e-06
2.45771e-06
2.45784e-06
2.45795e-06
2.45802e-06
2.45806e-06
2.45805e-06
2.45801e-06
2.45793e-06
2.45782e-06
2.4577e-06
2.45756e-06
2.45744e-06
2.45748e-06
2.45725e-06
2.4572e-06
2.45728e-06
2.45746e-06
2.45763e-06
2.45776e-06
2.45787e-06
2.45794e-06
2.45798e-06
2.45797e-06
2.45793e-06
2.45785e-06
2.45774e-06
2.45761e-06
2.45748e-06
2.45736e-06
2.4574e-06
2.4572e-06
2.45714e-06
2.45721e-06
2.45737e-06
2.45753e-06
2.45766e-06
2.45777e-06
2.45784e-06
2.45788e-06
2.45787e-06
2.45782e-06
2.45774e-06
2.45765e-06
2.45752e-06
2.4574e-06
2.4573e-06
2.45735e-06
2.45711e-06
2.45704e-06
2.4571e-06
2.45725e-06
2.45741e-06
2.45754e-06
2.45764e-06
2.45771e-06
2.45775e-06
2.45774e-06
2.4577e-06
2.45761e-06
2.45752e-06
2.4574e-06
2.45729e-06
2.45719e-06
2.45725e-06
2.45714e-06
2.45702e-06
2.45704e-06
2.45715e-06
2.45729e-06
2.45741e-06
2.45751e-06
2.45757e-06
2.45761e-06
2.4576e-06
2.45756e-06
2.45748e-06
2.4574e-06
2.45729e-06
2.45721e-06
2.45716e-06
2.45728e-06
2.45713e-06
2.45699e-06
2.457e-06
2.45707e-06
2.4572e-06
2.4573e-06
2.45739e-06
2.45745e-06
2.45749e-06
2.45748e-06
2.45744e-06
2.45737e-06
2.4573e-06
2.45719e-06
2.45716e-06
2.45712e-06
2.45726e-06
2.4575e-06
2.45716e-06
2.45713e-06
2.45714e-06
2.45726e-06
2.45734e-06
2.45743e-06
2.45748e-06
2.45752e-06
2.45751e-06
2.45748e-06
2.4574e-06
2.45735e-06
2.45725e-06
2.45728e-06
2.45726e-06
2.45763e-06
2.38419e-06
2.38411e-06
2.38432e-06
2.38454e-06
2.38482e-06
2.38505e-06
2.38525e-06
2.38537e-06
2.38543e-06
2.3854e-06
2.38531e-06
2.38514e-06
2.38493e-06
2.38467e-06
2.38447e-06
2.38422e-06
2.38428e-06
2.38411e-06
2.38421e-06
2.38446e-06
2.38474e-06
2.38505e-06
2.3853e-06
2.38551e-06
2.38565e-06
2.38571e-06
2.38568e-06
2.38558e-06
2.3854e-06
2.38517e-06
2.38488e-06
2.38462e-06
2.38434e-06
2.38421e-06
2.38432e-06
2.38446e-06
2.38472e-06
2.38505e-06
2.38538e-06
2.38566e-06
2.38589e-06
2.38603e-06
2.3861e-06
2.38607e-06
2.38595e-06
2.38576e-06
2.38551e-06
2.3852e-06
2.38489e-06
2.38459e-06
2.38443e-06
2.38454e-06
2.38474e-06
2.38505e-06
2.38541e-06
2.38577e-06
2.38607e-06
2.38631e-06
2.38646e-06
2.38653e-06
2.3865e-06
2.38638e-06
2.38617e-06
2.38591e-06
2.38558e-06
2.38523e-06
2.38489e-06
2.38465e-06
2.38482e-06
2.38505e-06
2.38538e-06
2.38577e-06
2.38614e-06
2.38646e-06
2.3867e-06
2.38686e-06
2.38692e-06
2.3869e-06
2.38677e-06
2.38656e-06
2.38628e-06
2.38594e-06
2.38557e-06
2.3852e-06
2.38493e-06
2.38505e-06
2.3853e-06
2.38566e-06
2.38607e-06
2.38646e-06
2.38678e-06
2.38703e-06
2.38719e-06
2.38726e-06
2.38723e-06
2.3871e-06
2.38689e-06
2.3866e-06
2.38625e-06
2.38586e-06
2.38546e-06
2.38516e-06
2.38525e-06
2.38551e-06
2.38589e-06
2.38631e-06
2.3867e-06
2.38703e-06
2.38728e-06
2.38744e-06
2.38751e-06
2.38748e-06
2.38735e-06
2.38714e-06
2.38685e-06
2.38649e-06
2.38609e-06
2.38568e-06
2.38536e-06
2.38537e-06
2.38565e-06
2.38603e-06
2.38646e-06
2.38686e-06
2.38719e-06
2.38744e-06
2.3876e-06
2.38768e-06
2.38765e-06
2.38752e-06
2.3873e-06
2.38701e-06
2.38664e-06
2.38623e-06
2.38581e-06
2.38548e-06
2.38543e-06
2.38571e-06
2.3861e-06
2.38653e-06
2.38693e-06
2.38726e-06
2.38751e-06
2.38768e-06
2.38775e-06
2.38772e-06
2.38759e-06
2.38737e-06
2.38707e-06
2.38671e-06
2.3863e-06
2.38588e-06
2.38554e-06
2.3854e-06
2.38568e-06
2.38607e-06
2.3865e-06
2.3869e-06
2.38723e-06
2.38748e-06
2.38765e-06
2.38772e-06
2.38769e-06
2.38756e-06
2.38734e-06
2.38705e-06
2.38668e-06
2.38627e-06
2.38585e-06
2.38552e-06
2.38531e-06
2.38558e-06
2.38596e-06
2.38638e-06
2.38677e-06
2.3871e-06
2.38736e-06
2.38752e-06
2.38759e-06
2.38756e-06
2.38743e-06
2.38722e-06
2.38692e-06
2.38656e-06
2.38616e-06
2.38574e-06
2.38542e-06
2.38514e-06
2.3854e-06
2.38576e-06
2.38617e-06
2.38656e-06
2.38689e-06
2.38714e-06
2.3873e-06
2.38737e-06
2.38734e-06
2.38722e-06
2.387e-06
2.38671e-06
2.38635e-06
2.38596e-06
2.38556e-06
2.38525e-06
2.38493e-06
2.38517e-06
2.38551e-06
2.38591e-06
2.38628e-06
2.3866e-06
2.38685e-06
2.38701e-06
2.38708e-06
2.38705e-06
2.38692e-06
2.38671e-06
2.38643e-06
2.38608e-06
2.3857e-06
2.38532e-06
2.38504e-06
2.38467e-06
2.38488e-06
2.3852e-06
2.38558e-06
2.38594e-06
2.38625e-06
2.38649e-06
2.38664e-06
2.38671e-06
2.38668e-06
2.38656e-06
2.38635e-06
2.38608e-06
2.38574e-06
2.38539e-06
2.38503e-06
2.38478e-06
2.38447e-06
2.38462e-06
2.38489e-06
2.38523e-06
2.38557e-06
2.38586e-06
2.38609e-06
2.38623e-06
2.3863e-06
2.38627e-06
2.38616e-06
2.38596e-06
2.3857e-06
2.38539e-06
2.38507e-06
2.38476e-06
2.38457e-06
2.38422e-06
2.38434e-06
2.38459e-06
2.38489e-06
2.3852e-06
2.38546e-06
2.38568e-06
2.38581e-06
2.38588e-06
2.38585e-06
2.38574e-06
2.38556e-06
2.38532e-06
2.38503e-06
2.38476e-06
2.38447e-06
2.38432e-06
2.38428e-06
2.38421e-06
2.38443e-06
2.38465e-06
2.38493e-06
2.38516e-06
2.38536e-06
2.38549e-06
2.38554e-06
2.38552e-06
2.38542e-06
2.38525e-06
2.38504e-06
2.38478e-06
2.38457e-06
2.38432e-06
2.38438e-06
2.33292e-06
2.33397e-06
2.33497e-06
2.33585e-06
2.33664e-06
2.33724e-06
2.33767e-06
2.33793e-06
2.33803e-06
2.33797e-06
2.33774e-06
2.33735e-06
2.33679e-06
2.33602e-06
2.33513e-06
2.33403e-06
2.33292e-06
2.33397e-06
2.33492e-06
2.33588e-06
2.33677e-06
2.33755e-06
2.33815e-06
2.33858e-06
2.33884e-06
2.33894e-06
2.33888e-06
2.33865e-06
2.33826e-06
2.3377e-06
2.33694e-06
2.33604e-06
2.33497e-06
2.33398e-06
2.33497e-06
2.33588e-06
2.33678e-06
2.33764e-06
2.3384e-06
2.33898e-06
2.33941e-06
2.33967e-06
2.33977e-06
2.3397e-06
2.33948e-06
2.33909e-06
2.33854e-06
2.33781e-06
2.33692e-06
2.33592e-06
2.33498e-06
2.33585e-06
2.33677e-06
2.33764e-06
2.33848e-06
2.33921e-06
2.33979e-06
2.34021e-06
2.34046e-06
2.34056e-06
2.3405e-06
2.34028e-06
2.3399e-06
2.33936e-06
2.33864e-06
2.33777e-06
2.33681e-06
2.33585e-06
2.33664e-06
2.33755e-06
2.3384e-06
2.33921e-06
2.33993e-06
2.3405e-06
2.34091e-06
2.34117e-06
2.34126e-06
2.3412e-06
2.34099e-06
2.34061e-06
2.34008e-06
2.33937e-06
2.33852e-06
2.33759e-06
2.33665e-06
2.33724e-06
2.33815e-06
2.33898e-06
2.33979e-06
2.3405e-06
2.34106e-06
2.34147e-06
2.34172e-06
2.34182e-06
2.34176e-06
2.34154e-06
2.34117e-06
2.34064e-06
2.33995e-06
2.33911e-06
2.33818e-06
2.33724e-06
2.33767e-06
2.33858e-06
2.33941e-06
2.34021e-06
2.34091e-06
2.34147e-06
2.34188e-06
2.34213e-06
2.34222e-06
2.34216e-06
2.34195e-06
2.34158e-06
2.34105e-06
2.34037e-06
2.33953e-06
2.33862e-06
2.33768e-06
2.33793e-06
2.33884e-06
2.33967e-06
2.34046e-06
2.34117e-06
2.34172e-06
2.34213e-06
2.34237e-06
2.34247e-06
2.34241e-06
2.3422e-06
2.34183e-06
2.34131e-06
2.34062e-06
2.33979e-06
2.33888e-06
2.33794e-06
2.33803e-06
2.33894e-06
2.33977e-06
2.34056e-06
2.34126e-06
2.34182e-06
2.34222e-06
2.34247e-06
2.34257e-06
2.34251e-06
2.34229e-06
2.34193e-06
2.34141e-06
2.34072e-06
2.33989e-06
2.33898e-06
2.33804e-06
2.33797e-06
2.33888e-06
2.3397e-06
2.3405e-06
2.3412e-06
2.34176e-06
2.34216e-06
2.34241e-06
2.34251e-06
2.34245e-06
2.34223e-06
2.34187e-06
2.34134e-06
2.34066e-06
2.33983e-06
2.33892e-06
2.33798e-06
2.33774e-06
2.33865e-06
2.33948e-06
2.34028e-06
2.34099e-06
2.34154e-06
2.34195e-06
2.3422e-06
2.34229e-06
2.34223e-06
2.34202e-06
2.34165e-06
2.34113e-06
2.34044e-06
2.3396e-06
2.33869e-06
2.33775e-06
2.33735e-06
2.33826e-06
2.33909e-06
2.3399e-06
2.34061e-06
2.34117e-06
2.34158e-06
2.34183e-06
2.34193e-06
2.34187e-06
2.34165e-06
2.34128e-06
2.34075e-06
2.34006e-06
2.33922e-06
2.33829e-06
2.33735e-06
2.33679e-06
2.3377e-06
2.33854e-06
2.33936e-06
2.34008e-06
2.34064e-06
2.34106e-06
2.34131e-06
2.34141e-06
2.34134e-06
2.34113e-06
2.34075e-06
2.34022e-06
2.33952e-06
2.33867e-06
2.33774e-06
2.3368e-06
2.33602e-06
2.33694e-06
2.33781e-06
2.33864e-06
2.33938e-06
2.33995e-06
2.34037e-06
2.34062e-06
2.34072e-06
2.34066e-06
2.34044e-06
2.34006e-06
2.33952e-06
2.33881e-06
2.33794e-06
2.33698e-06
2.33603e-06
2.33513e-06
2.33604e-06
2.33692e-06
2.33777e-06
2.33852e-06
2.33911e-06
2.33953e-06
2.33979e-06
2.33989e-06
2.33983e-06
2.33961e-06
2.33922e-06
2.33867e-06
2.33794e-06
2.33706e-06
2.33608e-06
2.33514e-06
2.33403e-06
2.33497e-06
2.33592e-06
2.33681e-06
2.33759e-06
2.33818e-06
2.33862e-06
2.33888e-06
2.33898e-06
2.33892e-06
2.33869e-06
2.3383e-06
2.33774e-06
2.33698e-06
2.33608e-06
2.33502e-06
2.33404e-06
2.33292e-06
2.33398e-06
2.33498e-06
2.33585e-06
2.33665e-06
2.33724e-06
2.33768e-06
2.33794e-06
2.33804e-06
2.33798e-06
2.33775e-06
2.33735e-06
2.3368e-06
2.33603e-06
2.33513e-06
2.33403e-06
2.33292e-06
2.28091e-06
2.28277e-06
2.28446e-06
2.28607e-06
2.28743e-06
2.28844e-06
2.28916e-06
2.2896e-06
2.28977e-06
2.28966e-06
2.28928e-06
2.28861e-06
2.28767e-06
2.28638e-06
2.28478e-06
2.28294e-06
2.28094e-06
2.28277e-06
2.28433e-06
2.28598e-06
2.28755e-06
2.28887e-06
2.28987e-06
2.29057e-06
2.291e-06
2.29116e-06
2.29106e-06
2.29069e-06
2.29004e-06
2.28912e-06
2.28787e-06
2.2863e-06
2.28449e-06
2.28281e-06
2.28446e-06
2.28598e-06
2.28756e-06
2.28907e-06
2.29033e-06
2.29129e-06
2.29197e-06
2.29238e-06
2.29254e-06
2.29244e-06
2.29208e-06
2.29146e-06
2.29057e-06
2.28937e-06
2.28787e-06
2.28613e-06
2.2845e-06
2.28607e-06
2.28755e-06
2.28907e-06
2.29052e-06
2.29174e-06
2.29266e-06
2.29332e-06
2.29371e-06
2.29387e-06
2.29377e-06
2.29343e-06
2.29283e-06
2.29197e-06
2.29082e-06
2.28936e-06
2.28769e-06
2.28611e-06
2.28743e-06
2.28887e-06
2.29033e-06
2.29174e-06
2.29292e-06
2.29382e-06
2.29445e-06
2.29484e-06
2.29499e-06
2.29489e-06
2.29456e-06
2.29398e-06
2.29314e-06
2.29203e-06
2.29062e-06
2.28901e-06
2.28747e-06
2.28844e-06
2.28987e-06
2.29129e-06
2.29266e-06
2.29382e-06
2.29469e-06
2.29531e-06
2.29569e-06
2.29584e-06
2.29575e-06
2.29542e-06
2.29485e-06
2.29404e-06
2.29295e-06
2.29157e-06
2.29001e-06
2.28848e-06
2.28916e-06
2.29057e-06
2.29197e-06
2.29332e-06
2.29445e-06
2.29531e-06
2.29592e-06
2.2963e-06
2.29644e-06
2.29635e-06
2.29603e-06
2.29547e-06
2.29467e-06
2.2936e-06
2.29225e-06
2.29071e-06
2.2892e-06
2.2896e-06
2.291e-06
2.29238e-06
2.29371e-06
2.29484e-06
2.29569e-06
2.2963e-06
2.29667e-06
2.29681e-06
2.29672e-06
2.2964e-06
2.29585e-06
2.29505e-06
2.294e-06
2.29266e-06
2.29114e-06
2.28964e-06
2.28977e-06
2.29116e-06
2.29254e-06
2.29387e-06
2.29499e-06
2.29584e-06
2.29644e-06
2.29681e-06
2.29695e-06
2.29686e-06
2.29654e-06
2.29599e-06
2.2952e-06
2.29415e-06
2.29281e-06
2.2913e-06
2.28981e-06
2.28966e-06
2.29106e-06
2.29244e-06
2.29377e-06
2.29489e-06
2.29575e-06
2.29635e-06
2.29672e-06
2.29686e-06
2.29677e-06
2.29645e-06
2.2959e-06
2.29511e-06
2.29405e-06
2.29271e-06
2.2912e-06
2.2897e-06
2.28928e-06
2.29069e-06
2.29208e-06
2.29343e-06
2.29456e-06
2.29542e-06
2.29603e-06
2.2964e-06
2.29654e-06
2.29645e-06
2.29613e-06
2.29557e-06
2.29478e-06
2.29371e-06
2.29236e-06
2.29083e-06
2.28932e-06
2.28861e-06
2.29004e-06
2.29146e-06
2.29283e-06
2.29398e-06
2.29485e-06
2.29547e-06
2.29585e-06
2.29599e-06
2.2959e-06
2.29557e-06
2.29501e-06
2.2942e-06
2.29311e-06
2.29174e-06
2.29018e-06
2.28866e-06
2.28767e-06
2.28912e-06
2.29057e-06
2.29197e-06
2.29314e-06
2.29404e-06
2.29467e-06
2.29505e-06
2.2952e-06
2.29511e-06
2.29478e-06
2.2942e-06
2.29337e-06
2.29226e-06
2.29086e-06
2.28926e-06
2.28772e-06
2.28639e-06
2.28787e-06
2.28937e-06
2.29082e-06
2.29203e-06
2.29295e-06
2.2936e-06
2.294e-06
2.29415e-06
2.29405e-06
2.29371e-06
2.29311e-06
2.29226e-06
2.29112e-06
2.28967e-06
2.28801e-06
2.28643e-06
2.28478e-06
2.2863e-06
2.28787e-06
2.28936e-06
2.29062e-06
2.29157e-06
2.29225e-06
2.29266e-06
2.29282e-06
2.29272e-06
2.29236e-06
2.29174e-06
2.29086e-06
2.28967e-06
2.28817e-06
2.28645e-06
2.28482e-06
2.28294e-06
2.28449e-06
2.28613e-06
2.28769e-06
2.28902e-06
2.29001e-06
2.29071e-06
2.29114e-06
2.2913e-06
2.2912e-06
2.29083e-06
2.29018e-06
2.28926e-06
2.28801e-06
2.28645e-06
2.28464e-06
2.28297e-06
2.28094e-06
2.28281e-06
2.2845e-06
2.28611e-06
2.28747e-06
2.28848e-06
2.2892e-06
2.28964e-06
2.28981e-06
2.2897e-06
2.28932e-06
2.28866e-06
2.28772e-06
2.28643e-06
2.28482e-06
2.28297e-06
2.28097e-06
2.22985e-06
2.23201e-06
2.23392e-06
2.2358e-06
2.23737e-06
2.23856e-06
2.23941e-06
2.23993e-06
2.24012e-06
2.23999e-06
2.23954e-06
2.23876e-06
2.23765e-06
2.23616e-06
2.23426e-06
2.23219e-06
2.22988e-06
2.23201e-06
2.2338e-06
2.23569e-06
2.23753e-06
2.23908e-06
2.24026e-06
2.2411e-06
2.24161e-06
2.24181e-06
2.24168e-06
2.24123e-06
2.24046e-06
2.23936e-06
2.23788e-06
2.23604e-06
2.23397e-06
2.23204e-06
2.23392e-06
2.23569e-06
2.23755e-06
2.23932e-06
2.24082e-06
2.24196e-06
2.24278e-06
2.24327e-06
2.24346e-06
2.24334e-06
2.24291e-06
2.24216e-06
2.24109e-06
2.23967e-06
2.23789e-06
2.23584e-06
2.23395e-06
2.2358e-06
2.23753e-06
2.23932e-06
2.24104e-06
2.24249e-06
2.24361e-06
2.2444e-06
2.24488e-06
2.24506e-06
2.24495e-06
2.24453e-06
2.2438e-06
2.24276e-06
2.24138e-06
2.23965e-06
2.23767e-06
2.23583e-06
2.23737e-06
2.23908e-06
2.24082e-06
2.24249e-06
2.24391e-06
2.245e-06
2.24577e-06
2.24624e-06
2.24642e-06
2.2463e-06
2.24589e-06
2.24518e-06
2.24417e-06
2.24283e-06
2.24115e-06
2.23923e-06
2.2374e-06
2.23856e-06
2.24026e-06
2.24196e-06
2.24361e-06
2.245e-06
2.24606e-06
2.24681e-06
2.24728e-06
2.24745e-06
2.24734e-06
2.24694e-06
2.24625e-06
2.24525e-06
2.24394e-06
2.24228e-06
2.2404e-06
2.23859e-06
2.23941e-06
2.2411e-06
2.24278e-06
2.2444e-06
2.24577e-06
2.24681e-06
2.24756e-06
2.24802e-06
2.24819e-06
2.24808e-06
2.24768e-06
2.247e-06
2.24602e-06
2.24472e-06
2.24309e-06
2.24125e-06
2.23944e-06
2.23992e-06
2.24161e-06
2.24327e-06
2.24488e-06
2.24624e-06
2.24728e-06
2.24802e-06
2.24847e-06
2.24864e-06
2.24853e-06
2.24814e-06
2.24746e-06
2.24649e-06
2.24521e-06
2.24359e-06
2.24176e-06
2.23996e-06
2.24012e-06
2.24181e-06
2.24346e-06
2.24506e-06
2.24642e-06
2.24746e-06
2.24819e-06
2.24864e-06
2.24882e-06
2.24871e-06
2.24831e-06
2.24764e-06
2.24667e-06
2.24539e-06
2.24378e-06
2.24195e-06
2.24016e-06
2.23999e-06
2.24168e-06
2.24334e-06
2.24495e-06
2.2463e-06
2.24734e-06
2.24808e-06
2.24853e-06
2.24871e-06
2.2486e-06
2.2482e-06
2.24753e-06
2.24656e-06
2.24527e-06
2.24366e-06
2.24183e-06
2.24003e-06
2.23954e-06
2.24123e-06
2.24291e-06
2.24452e-06
2.24589e-06
2.24694e-06
2.24768e-06
2.24814e-06
2.24831e-06
2.2482e-06
2.24781e-06
2.24713e-06
2.24615e-06
2.24485e-06
2.24323e-06
2.24138e-06
2.23958e-06
2.23876e-06
2.24046e-06
2.24216e-06
2.2438e-06
2.24519e-06
2.24625e-06
2.247e-06
2.24746e-06
2.24764e-06
2.24753e-06
2.24713e-06
2.24643e-06
2.24544e-06
2.24413e-06
2.24248e-06
2.24061e-06
2.23879e-06
2.23765e-06
2.23936e-06
2.24109e-06
2.24276e-06
2.24417e-06
2.24525e-06
2.24602e-06
2.24649e-06
2.24667e-06
2.24656e-06
2.24615e-06
2.24544e-06
2.24444e-06
2.2431e-06
2.24142e-06
2.23951e-06
2.23768e-06
2.23616e-06
2.23788e-06
2.23967e-06
2.24138e-06
2.24283e-06
2.24394e-06
2.24473e-06
2.24521e-06
2.24539e-06
2.24527e-06
2.24485e-06
2.24413e-06
2.2431e-06
2.24172e-06
2.24e-06
2.23803e-06
2.23619e-06
2.23427e-06
2.23604e-06
2.23789e-06
2.23965e-06
2.24115e-06
2.24229e-06
2.2431e-06
2.24359e-06
2.24378e-06
2.24366e-06
2.24323e-06
2.24248e-06
2.24142e-06
2.24e-06
2.23823e-06
2.23619e-06
2.23429e-06
2.23219e-06
2.23397e-06
2.23584e-06
2.23768e-06
2.23923e-06
2.24041e-06
2.24125e-06
2.24176e-06
2.24196e-06
2.24183e-06
2.24138e-06
2.24061e-06
2.23951e-06
2.23803e-06
2.23619e-06
2.23413e-06
2.23222e-06
2.22988e-06
2.23204e-06
2.23395e-06
2.23583e-06
2.2374e-06
2.23859e-06
2.23944e-06
2.23996e-06
2.24016e-06
2.24003e-06
2.23958e-06
2.23879e-06
2.23768e-06
2.23619e-06
2.23429e-06
2.23222e-06
2.2299e-06
2.18262e-06
2.18487e-06
2.18684e-06
2.18882e-06
2.19045e-06
2.1917e-06
2.1926e-06
2.19314e-06
2.19335e-06
2.19321e-06
2.19273e-06
2.19191e-06
2.19073e-06
2.18918e-06
2.18717e-06
2.18503e-06
2.18263e-06
2.18487e-06
2.18674e-06
2.1887e-06
2.19064e-06
2.19227e-06
2.19352e-06
2.19441e-06
2.19496e-06
2.19516e-06
2.19503e-06
2.19455e-06
2.19373e-06
2.19255e-06
2.191e-06
2.18904e-06
2.18689e-06
2.18488e-06
2.18684e-06
2.1887e-06
2.19066e-06
2.19254e-06
2.19413e-06
2.19535e-06
2.19622e-06
2.19675e-06
2.19695e-06
2.19682e-06
2.19635e-06
2.19555e-06
2.19441e-06
2.19289e-06
2.19099e-06
2.18884e-06
2.18684e-06
2.18882e-06
2.19064e-06
2.19254e-06
2.19436e-06
2.19591e-06
2.19711e-06
2.19796e-06
2.19847e-06
2.19867e-06
2.19854e-06
2.19809e-06
2.1973e-06
2.19619e-06
2.19471e-06
2.19286e-06
2.19077e-06
2.18883e-06
2.19045e-06
2.19227e-06
2.19413e-06
2.19591e-06
2.19743e-06
2.1986e-06
2.19943e-06
2.19994e-06
2.20014e-06
2.20001e-06
2.19956e-06
2.1988e-06
2.1977e-06
2.19625e-06
2.19445e-06
2.1924e-06
2.19046e-06
2.1917e-06
2.19352e-06
2.19535e-06
2.19711e-06
2.1986e-06
2.19975e-06
2.20057e-06
2.20107e-06
2.20127e-06
2.20114e-06
2.2007e-06
2.19995e-06
2.19887e-06
2.19744e-06
2.19566e-06
2.19365e-06
2.19171e-06
2.1926e-06
2.19441e-06
2.19622e-06
2.19796e-06
2.19943e-06
2.20057e-06
2.20138e-06
2.20188e-06
2.20207e-06
2.20194e-06
2.20151e-06
2.20076e-06
2.1997e-06
2.19829e-06
2.19653e-06
2.19454e-06
2.19261e-06
2.19314e-06
2.19496e-06
2.19675e-06
2.19847e-06
2.19994e-06
2.20107e-06
2.20188e-06
2.20237e-06
2.20256e-06
2.20244e-06
2.20201e-06
2.20126e-06
2.2002e-06
2.19881e-06
2.19706e-06
2.19508e-06
2.19315e-06
2.19335e-06
2.19516e-06
2.19695e-06
2.19867e-06
2.20014e-06
2.20127e-06
2.20207e-06
2.20256e-06
2.20275e-06
2.20262e-06
2.20219e-06
2.20145e-06
2.2004e-06
2.199e-06
2.19726e-06
2.19529e-06
2.19336e-06
2.19321e-06
2.19503e-06
2.19682e-06
2.19854e-06
2.20001e-06
2.20114e-06
2.20194e-06
2.20244e-06
2.20262e-06
2.2025e-06
2.20207e-06
2.20133e-06
2.20027e-06
2.19887e-06
2.19712e-06
2.19516e-06
2.19322e-06
2.19273e-06
2.19455e-06
2.19635e-06
2.19809e-06
2.19956e-06
2.2007e-06
2.20151e-06
2.20201e-06
2.20219e-06
2.20207e-06
2.20164e-06
2.20089e-06
2.19983e-06
2.19842e-06
2.19666e-06
2.19468e-06
2.19274e-06
2.19191e-06
2.19373e-06
2.19555e-06
2.1973e-06
2.1988e-06
2.19995e-06
2.20076e-06
2.20126e-06
2.20145e-06
2.20133e-06
2.20089e-06
2.20014e-06
2.19906e-06
2.19764e-06
2.19586e-06
2.19385e-06
2.19192e-06
2.19074e-06
2.19255e-06
2.19441e-06
2.19619e-06
2.1977e-06
2.19887e-06
2.1997e-06
2.2002e-06
2.2004e-06
2.20027e-06
2.19983e-06
2.19906e-06
2.19797e-06
2.19653e-06
2.19472e-06
2.19268e-06
2.19074e-06
2.18918e-06
2.191e-06
2.19289e-06
2.19471e-06
2.19625e-06
2.19744e-06
2.19829e-06
2.19881e-06
2.199e-06
2.19887e-06
2.19842e-06
2.19764e-06
2.19653e-06
2.19505e-06
2.19321e-06
2.19113e-06
2.18919e-06
2.18717e-06
2.18904e-06
2.19099e-06
2.19286e-06
2.19445e-06
2.19566e-06
2.19653e-06
2.19706e-06
2.19726e-06
2.19713e-06
2.19666e-06
2.19586e-06
2.19473e-06
2.19322e-06
2.19133e-06
2.18918e-06
2.18718e-06
2.18504e-06
2.18689e-06
2.18884e-06
2.19077e-06
2.1924e-06
2.19365e-06
2.19454e-06
2.19509e-06
2.19529e-06
2.19516e-06
2.19468e-06
2.19385e-06
2.19268e-06
2.19113e-06
2.18918e-06
2.18704e-06
2.18505e-06
2.18263e-06
2.18488e-06
2.18684e-06
2.18883e-06
2.19046e-06
2.19171e-06
2.19261e-06
2.19315e-06
2.19336e-06
2.19322e-06
2.19274e-06
2.19192e-06
2.19074e-06
2.18919e-06
2.18718e-06
2.18504e-06
2.18264e-06
2.13877e-06
2.14095e-06
2.14288e-06
2.14485e-06
2.14646e-06
2.14771e-06
2.14861e-06
2.14915e-06
2.14936e-06
2.14922e-06
2.14874e-06
2.14792e-06
2.14674e-06
2.14521e-06
2.1432e-06
2.14112e-06
2.13878e-06
2.14095e-06
2.14279e-06
2.14472e-06
2.14665e-06
2.14828e-06
2.14953e-06
2.15043e-06
2.15098e-06
2.15119e-06
2.15105e-06
2.15057e-06
2.14974e-06
2.14856e-06
2.14701e-06
2.14505e-06
2.14294e-06
2.14096e-06
2.14288e-06
2.14472e-06
2.14667e-06
2.14855e-06
2.15015e-06
2.15138e-06
2.15226e-06
2.1528e-06
2.153e-06
2.15286e-06
2.15239e-06
2.15158e-06
2.15043e-06
2.1489e-06
2.147e-06
2.14486e-06
2.14288e-06
2.14485e-06
2.14665e-06
2.14855e-06
2.15038e-06
2.15196e-06
2.15317e-06
2.15403e-06
2.15456e-06
2.15476e-06
2.15463e-06
2.15416e-06
2.15336e-06
2.15223e-06
2.15073e-06
2.14887e-06
2.14678e-06
2.14486e-06
2.14646e-06
2.14828e-06
2.15015e-06
2.15195e-06
2.1535e-06
2.15469e-06
2.15554e-06
2.15606e-06
2.15626e-06
2.15613e-06
2.15567e-06
2.15489e-06
2.15377e-06
2.1523e-06
2.15047e-06
2.1484e-06
2.14647e-06
2.14771e-06
2.14953e-06
2.15138e-06
2.15316e-06
2.15469e-06
2.15587e-06
2.15671e-06
2.15722e-06
2.15742e-06
2.15729e-06
2.15684e-06
2.15606e-06
2.15496e-06
2.1535e-06
2.15169e-06
2.14966e-06
2.14772e-06
2.14861e-06
2.15043e-06
2.15226e-06
2.15403e-06
2.15554e-06
2.15671e-06
2.15754e-06
2.15805e-06
2.15824e-06
2.15812e-06
2.15767e-06
2.1569e-06
2.15581e-06
2.15436e-06
2.15257e-06
2.15056e-06
2.14861e-06
2.14915e-06
2.15098e-06
2.15279e-06
2.15456e-06
2.15606e-06
2.15722e-06
2.15805e-06
2.15856e-06
2.15875e-06
2.15862e-06
2.15818e-06
2.15741e-06
2.15633e-06
2.15489e-06
2.15311e-06
2.15111e-06
2.14916e-06
2.14936e-06
2.15119e-06
2.153e-06
2.15476e-06
2.15626e-06
2.15742e-06
2.15824e-06
2.15875e-06
2.15894e-06
2.15882e-06
2.15837e-06
2.15761e-06
2.15652e-06
2.15509e-06
2.15331e-06
2.15131e-06
2.14937e-06
2.14922e-06
2.15105e-06
2.15286e-06
2.15462e-06
2.15613e-06
2.15729e-06
2.15812e-06
2.15862e-06
2.15882e-06
2.15869e-06
2.15824e-06
2.15748e-06
2.15639e-06
2.15496e-06
2.15317e-06
2.15118e-06
2.14923e-06
2.14874e-06
2.15057e-06
2.15239e-06
2.15416e-06
2.15567e-06
2.15684e-06
2.15767e-06
2.15818e-06
2.15837e-06
2.15824e-06
2.1578e-06
2.15703e-06
2.15594e-06
2.1545e-06
2.1527e-06
2.15069e-06
2.14875e-06
2.14792e-06
2.14974e-06
2.15158e-06
2.15336e-06
2.15489e-06
2.15606e-06
2.1569e-06
2.15741e-06
2.15761e-06
2.15748e-06
2.15703e-06
2.15626e-06
2.15515e-06
2.1537e-06
2.1519e-06
2.14986e-06
2.14792e-06
2.14674e-06
2.14856e-06
2.15043e-06
2.15223e-06
2.15377e-06
2.15496e-06
2.15581e-06
2.15633e-06
2.15652e-06
2.15639e-06
2.15594e-06
2.15515e-06
2.15404e-06
2.15257e-06
2.15074e-06
2.14868e-06
2.14675e-06
2.14521e-06
2.14701e-06
2.1489e-06
2.15073e-06
2.1523e-06
2.1535e-06
2.15436e-06
2.15489e-06
2.15509e-06
2.15496e-06
2.1545e-06
2.1537e-06
2.15257e-06
2.15108e-06
2.14923e-06
2.14714e-06
2.14522e-06
2.1432e-06
2.14505e-06
2.147e-06
2.14888e-06
2.15047e-06
2.1517e-06
2.15257e-06
2.15311e-06
2.15331e-06
2.15318e-06
2.15271e-06
2.1519e-06
2.15075e-06
2.14923e-06
2.14733e-06
2.14519e-06
2.14321e-06
2.14112e-06
2.14294e-06
2.14486e-06
2.14678e-06
2.1484e-06
2.14966e-06
2.15056e-06
2.15111e-06
2.15132e-06
2.15118e-06
2.15069e-06
2.14986e-06
2.14868e-06
2.14714e-06
2.14519e-06
2.14309e-06
2.14113e-06
2.13878e-06
2.14096e-06
2.14288e-06
2.14486e-06
2.14647e-06
2.14772e-06
2.14861e-06
2.14916e-06
2.14937e-06
2.14923e-06
2.14875e-06
2.14792e-06
2.14675e-06
2.14522e-06
2.14321e-06
2.14112e-06
2.13878e-06
2.09775e-06
2.09977e-06
2.10156e-06
2.10342e-06
2.10494e-06
2.10613e-06
2.10697e-06
2.10749e-06
2.10769e-06
2.10756e-06
2.1071e-06
2.10632e-06
2.1052e-06
2.10376e-06
2.10186e-06
2.09992e-06
2.09776e-06
2.09977e-06
2.10149e-06
2.10329e-06
2.10511e-06
2.10665e-06
2.10786e-06
2.10871e-06
2.10924e-06
2.10944e-06
2.10931e-06
2.10884e-06
2.10805e-06
2.10692e-06
2.10546e-06
2.1036e-06
2.10163e-06
2.09978e-06
2.10156e-06
2.10329e-06
2.10513e-06
2.10692e-06
2.10844e-06
2.10962e-06
2.11047e-06
2.11099e-06
2.11118e-06
2.11105e-06
2.1106e-06
2.10982e-06
2.10871e-06
2.10726e-06
2.10544e-06
2.10342e-06
2.10156e-06
2.10342e-06
2.10511e-06
2.10692e-06
2.10867e-06
2.11018e-06
2.11134e-06
2.11218e-06
2.11269e-06
2.11288e-06
2.11276e-06
2.1123e-06
2.11153e-06
2.11044e-06
2.109e-06
2.10723e-06
2.10523e-06
2.10343e-06
2.10494e-06
2.10665e-06
2.10844e-06
2.11018e-06
2.11167e-06
2.11282e-06
2.11365e-06
2.11415e-06
2.11435e-06
2.11422e-06
2.11377e-06
2.11301e-06
2.11193e-06
2.1105e-06
2.10875e-06
2.10677e-06
2.10494e-06
2.10613e-06
2.10785e-06
2.10962e-06
2.11134e-06
2.11282e-06
2.11397e-06
2.11478e-06
2.11529e-06
2.11548e-06
2.11535e-06
2.11491e-06
2.11415e-06
2.11308e-06
2.11167e-06
2.10993e-06
2.10797e-06
2.10613e-06
2.10697e-06
2.10871e-06
2.11047e-06
2.11218e-06
2.11365e-06
2.11478e-06
2.1156e-06
2.1161e-06
2.11629e-06
2.11616e-06
2.11572e-06
2.11497e-06
2.1139e-06
2.1125e-06
2.11077e-06
2.10883e-06
2.10698e-06
2.10749e-06
2.10924e-06
2.11098e-06
2.11269e-06
2.11415e-06
2.11529e-06
2.1161e-06
2.11659e-06
2.11678e-06
2.11666e-06
2.11622e-06
2.11547e-06
2.11441e-06
2.11301e-06
2.11128e-06
2.10936e-06
2.1075e-06
2.10769e-06
2.10944e-06
2.11118e-06
2.11288e-06
2.11435e-06
2.11548e-06
2.11629e-06
2.11678e-06
2.11697e-06
2.11685e-06
2.11641e-06
2.11566e-06
2.1146e-06
2.11321e-06
2.11148e-06
2.10956e-06
2.1077e-06
2.10756e-06
2.10931e-06
2.11105e-06
2.11276e-06
2.11422e-06
2.11535e-06
2.11616e-06
2.11666e-06
2.11685e-06
2.11672e-06
2.11629e-06
2.11554e-06
2.11447e-06
2.11308e-06
2.11135e-06
2.10943e-06
2.10756e-06
2.1071e-06
2.10884e-06
2.1106e-06
2.1123e-06
2.11377e-06
2.11491e-06
2.11572e-06
2.11622e-06
2.11641e-06
2.11629e-06
2.11585e-06
2.1151e-06
2.11403e-06
2.11263e-06
2.1109e-06
2.10896e-06
2.10711e-06
2.10632e-06
2.10805e-06
2.10982e-06
2.11153e-06
2.11301e-06
2.11415e-06
2.11497e-06
2.11547e-06
2.11566e-06
2.11554e-06
2.1151e-06
2.11434e-06
2.11327e-06
2.11186e-06
2.11012e-06
2.10817e-06
2.10632e-06
2.1052e-06
2.10692e-06
2.10871e-06
2.11044e-06
2.11193e-06
2.11308e-06
2.1139e-06
2.11441e-06
2.1146e-06
2.11447e-06
2.11403e-06
2.11327e-06
2.11219e-06
2.11077e-06
2.10901e-06
2.10704e-06
2.10521e-06
2.10376e-06
2.10546e-06
2.10726e-06
2.109e-06
2.11051e-06
2.11167e-06
2.1125e-06
2.11301e-06
2.11321e-06
2.11308e-06
2.11263e-06
2.11186e-06
2.11077e-06
2.10933e-06
2.10756e-06
2.10558e-06
2.10377e-06
2.10186e-06
2.1036e-06
2.10544e-06
2.10723e-06
2.10875e-06
2.10993e-06
2.11077e-06
2.11129e-06
2.11148e-06
2.11135e-06
2.1109e-06
2.11012e-06
2.10901e-06
2.10756e-06
2.10575e-06
2.10373e-06
2.10187e-06
2.09992e-06
2.10163e-06
2.10342e-06
2.10524e-06
2.10677e-06
2.10797e-06
2.10883e-06
2.10936e-06
2.10956e-06
2.10943e-06
2.10896e-06
2.10817e-06
2.10704e-06
2.10558e-06
2.10372e-06
2.10176e-06
2.09993e-06
2.09776e-06
2.09978e-06
2.10157e-06
2.10343e-06
2.10494e-06
2.10613e-06
2.10698e-06
2.1075e-06
2.1077e-06
2.10756e-06
2.10711e-06
2.10632e-06
2.10521e-06
2.10377e-06
2.10186e-06
2.09993e-06
2.09776e-06
2.05924e-06
2.06105e-06
2.06267e-06
2.06437e-06
2.06575e-06
2.06684e-06
2.06761e-06
2.06809e-06
2.06827e-06
2.06815e-06
2.06773e-06
2.06701e-06
2.06598e-06
2.06468e-06
2.06294e-06
2.06119e-06
2.05924e-06
2.06105e-06
2.06261e-06
2.06424e-06
2.06591e-06
2.06732e-06
2.06843e-06
2.06922e-06
2.0697e-06
2.06989e-06
2.06976e-06
2.06934e-06
2.0686e-06
2.06756e-06
2.06622e-06
2.06452e-06
2.06273e-06
2.06106e-06
2.06267e-06
2.06424e-06
2.06592e-06
2.06756e-06
2.06897e-06
2.07006e-06
2.07084e-06
2.07132e-06
2.0715e-06
2.07138e-06
2.07096e-06
2.07024e-06
2.06921e-06
2.06787e-06
2.0662e-06
2.06436e-06
2.06267e-06
2.06437e-06
2.06591e-06
2.06756e-06
2.06918e-06
2.07057e-06
2.07165e-06
2.07243e-06
2.07291e-06
2.07309e-06
2.07297e-06
2.07255e-06
2.07183e-06
2.07081e-06
2.06948e-06
2.06784e-06
2.06602e-06
2.06437e-06
2.06574e-06
2.06732e-06
2.06897e-06
2.07057e-06
2.07196e-06
2.07303e-06
2.0738e-06
2.07428e-06
2.07446e-06
2.07434e-06
2.07392e-06
2.07321e-06
2.0722e-06
2.07087e-06
2.06925e-06
2.06742e-06
2.06575e-06
2.06684e-06
2.06842e-06
2.07006e-06
2.07165e-06
2.07303e-06
2.0741e-06
2.07487e-06
2.07534e-06
2.07552e-06
2.0754e-06
2.07499e-06
2.07428e-06
2.07327e-06
2.07196e-06
2.07034e-06
2.06853e-06
2.06684e-06
2.06761e-06
2.06922e-06
2.07084e-06
2.07243e-06
2.0738e-06
2.07487e-06
2.07564e-06
2.07611e-06
2.07628e-06
2.07617e-06
2.07575e-06
2.07505e-06
2.07404e-06
2.07273e-06
2.07112e-06
2.06932e-06
2.06761e-06
2.06809e-06
2.0697e-06
2.07132e-06
2.07291e-06
2.07428e-06
2.07534e-06
2.07611e-06
2.07658e-06
2.07675e-06
2.07664e-06
2.07622e-06
2.07552e-06
2.07452e-06
2.07321e-06
2.0716e-06
2.06981e-06
2.06809e-06
2.06827e-06
2.06989e-06
2.0715e-06
2.07309e-06
2.07446e-06
2.07552e-06
2.07628e-06
2.07675e-06
2.07693e-06
2.07681e-06
2.0764e-06
2.0757e-06
2.0747e-06
2.07339e-06
2.07178e-06
2.07e-06
2.06827e-06
2.06815e-06