/*--------------------------------*- C++ -*----------------------------------*\
  =========                 |
  \\      /  F ield         | OpenFOAM: The Open Source CFD Toolbox
   \\    /   O peration     | Website:  https://openfoam.org
    \\  /    A nd           | Version:  6
     \\/     M anipulation  |
\*---------------------------------------------------------------------------*/
FoamFile
{
    version     2.0;
    format      ascii;
    class       volScalarField;
    location    "0";
    object      p;
}
// * * * * * * * * * * * * * * * * * * * * * * * * * * * * * * * * * * * * * //

dimensions      [0 2 -2 0 0 0 0];

internalField   nonuniform List<scalar> 
13046
(
0.462674
0.438688
0.490917
0.468294
0.487237
0.449781
0.45163
0.453042
0.493837
0.250474
0.18325
0.462854
0.453298
0.408401
0.485965
0.305489
0.462475
0.209961
0.490611
0.476408
0.457973
0.297043
0.464407
0.207161
0.465227
0.462635
0.484714
0.440965
0.409346
0.487661
0.471841
0.418481
0.484457
0.476134
0.488323
0.459248
0.474582
0.490463
0.468503
0.472392
0.477247
0.409098
0.4721
0.48936
0.477344
0.471341
0.481142
0.477656
0.452343
0.437382
0.491596
0.447035
0.475101
0.371596
0.454007
0.357056
0.479296
0.288094
0.407731
0.466441
0.396437
0.393463
0.483367
0.469952
0.276915
0.332865
0.420098
0.293129
0.462403
0.430965
0.302993
0.463058
0.269748
0.397409
0.465975
0.490583
0.486721
0.444324
0.468435
0.371776
0.264977
0.460334
0.458456
0.484312
0.467452
0.257505
0.313624
0.308118
0.471856
0.300579
0.467379
0.266896
0.302466
0.403113
0.388366
0.356641
0.346653
0.47765
0.479685
0.47323
0.308264
0.314155
0.470843
0.484869
0.472281
0.489546
0.383087
0.457525
0.473696
0.46791
0.389408
0.1696
0.458412
0.100447
0.456393
0.422049
0.483228
0.391859
0.402849
0.323744
0.474323
0.346328
0.475205
0.234623
0.160325
0.4616
0.432145
0.369205
0.48648
0.468676
0.477864
0.407896
0.467375
0.280177
0.326227
0.363379
0.326059
0.475768
0.465481
0.410269
0.481819
0.419566
0.447165
0.485802
0.470994
0.456399
0.390616
0.486571
0.397624
0.465428
0.392935
0.375329
0.481108
0.497072
0.426376
0.462175
0.428003
0.355405
0.416956
0.351834
0.479624
0.480015
0.419763
0.430819
0.481584
0.244019
0.463298
0.193116
0.19762
0.459385
0.120504
0.357613
0.310096
0.475013
0.469255
0.370283
0.475356
0.422278
0.481541
0.439789
0.466492
0.224104
0.251623
0.470414
0.384843
0.469831
0.495376
0.415295
0.457572
0.428552
0.448221
0.484366
0.402363
0.490257
0.435501
0.386612
0.483532
0.301451
0.469015
0.270577
0.471804
0.303606
0.329105
0.271703
0.293192
0.466357
0.440215
0.344082
0.46772
0.439309
0.377358
0.463799
0.263111
0.26846
0.265823
0.466609
0.467541
0.490457
0.468844
0.447748
0.4137
0.485512
0.47189
0.293359
0.336308
0.430352
0.411676
0.492684
0.461188
0.154085
0.201154
0.469446
0.343099
0.432742
0.290654
0.31195
0.46995
0.381249
0.426758
0.485705
0.425893
0.37337
0.486003
0.369929
0.304445
0.467655
0.337783
0.404724
0.474655
0.460898
0.153899
0.183566
0.478667
0.472905
0.378135
0.193405
0.457079
0.0654465
0.486838
0.461913
0.469381
0.391203
0.393802
0.419386
0.430282
0.488333
0.481244
0.462139
0.358583
0.246386
0.437773
0.381593
0.480996
0.336231
0.3842
0.476337
0.374316
0.32562
0.475028
0.478279
0.470237
0.489526
0.368369
0.413977
0.481284
0.440377
0.365978
0.480305
0.433538
0.430871
0.48096
0.466691
0.36491
0.365836
0.399626
0.479819
0.355594
0.473495
0.317486
0.486744
0.467396
0.395944
0.479654
0.344496
0.421358
0.409508
0.329047
0.471324
0.475579
0.451302
0.367755
0.395817
0.389104
0.318344
0.470296
0.313374
0.473197
0.466372
0.235717
0.266983
0.411134
0.357821
0.47773
0.0323588
0.456688
0.12668
0.448183
0.48406
0.456083
0.408703
0.403355
0.483871
0.471539
0.319476
0.290896
0.448403
0.343196
0.477255
0.35431
0.30209
0.469402
0.433574
0.488594
0.400457
0.392666
0.483704
0.426305
0.490131
0.325652
0.463994
0.229186
0.447645
0.328984
0.469304
0.39006
0.382825
0.480571
0.413168
0.439743
0.488834
0.387419
0.447943
0.482584
0.464184
0.440022
0.489918
0.472134
0.347994
0.42766
0.288121
0.278871
0.468568
0.359433
0.301387
0.472322
0.437364
0.459933
0.324939
0.383336
0.393383
0.300749
0.283728
0.464193
0.467119
0.457091
0.0472751
0.147637
0.208891
0.457568
0.0795498
0.382633
0.410921
0.477289
0.467256
0.294303
0.250551
0.422384
0.417822
0.32852
0.318457
0.47175
0.469322
0.461912
0.242548
0.224684
0.180205
0.456106
0.0413849
0.457158
0.48681
0.483451
0.169883
0.0737062
0.458034
0.462806
0.370669
0.472147
0.256923
0.235324
0.46664
0.052935
0.457706
0.0727362
0.47619
0.474917
0.420492
0.450188
0.476388
0.487757
0.241724
0.461725
0.151883
0.442852
0.469712
0.487754
0.463532
0.486482
0.484788
0.475753
0.326941
0.434441
0.437731
0.483506
0.486962
0.45167
0.457999
0.482331
0.445945
0.33063
0.458715
0.464434
0.465892
0.207584
0.206524
0.279673
0.273405
0.266498
0.268955
0.467216
0.466054
0.435113
0.304957
0.470115
0.466737
0.390699
0.329114
0.39953
0.468628
0.116359
0.457596
0.107318
0.467248
0.261629
0.287899
0.20826
0.460622
0.142496
0.458096
0.0326733
0.0677068
-0.00222912
0.457575
0.101802
0.381201
0.360267
0.475945
0.195667
0.459433
0.174327
0.347528
0.325658
0.475615
0.286142
0.457753
0.160061
0.447519
0.486341
0.442991
0.259133
0.464103
0.239622
0.33468
0.469351
0.406861
0.377672
0.336866
0.478353
0.459163
-0.0601814
0.0133119
0.0597769
0.457023
0.106357
0.455969
0.49
0.443446
0.233863
0.222562
0.463434
0.462212
0.202451
0.230948
0.295338
0.466869
0.249864
0.464422
0.256323
0.346704
0.455862
0.321448
0.460652
0.30133
0.406618
0.471648
0.462754
0.334409
0.212322
0.452907
0.446665
0.383229
0.370995
0.4787
0.481194
0.4584
0.385286
0.477212
0.43264
0.317916
0.47316
0.368069
0.317773
0.473403
0.260196
0.264401
0.46834
0.472039
0.320323
0.347009
-0.000516613
0.457279
0.122514
0.478953
0.473556
0.484781
0.419085
0.488302
0.427035
0.450043
0.444842
0.46986
0.335574
0.471508
0.357388
0.0644559
0.457042
0.0761466
0.242142
0.237197
0.464801
0.466393
0.456394
0.36625
0.383296
0.314442
0.470632
0.464827
0.263796
0.358335
0.10736
0.151715
0.459083
0.131346
0.160483
0.459518
0.419118
0.330913
0.475796
0.488981
0.461908
0.406848
0.2838
0.46538
0.226021
0.374158
0.345604
0.479287
0.473211
0.290125
0.348405
0.450648
0.47126
0.358556
0.386797
0.433425
0.48167
0.475859
0.473276
0.399429
0.465028
0.219575
0.265931
0.37615
0.315232
0.473522
0.480125
0.479458
0.425079
0.316545
0.459828
0.191706
0.455478
0.410392
0.484453
0.437347
0.447641
0.491246
0.387556
0.348409
0.476922
0.238236
0.457755
0.110481
0.253293
0.457483
0.118911
0.471728
0.280611
0.349298
0.3696
0.439491
0.476895
0.455803
0.0820531
0.214833
0.472893
0.306534
0.333425
0.45749
0.0137074
0.0454157
0.083238
-0.02403
0.456589
0.465158
0.22646
0.336859
0.463029
0.184034
0.22517
0.304436
0.3166
0.463926
0.222154
0.466437
0.24578
0.323499
0.317123
0.47324
0.476326
0.394747
0.30871
0.479218
0.485356
0.4365
0.332327
0.337073
0.47545
0.47583
0.337697
0.347674
0.348425
0.462583
0.22012
0.445663
0.32267
0.470361
0.454313
0.361807
0.468362
0.366642
0.37334
0.481626
0.358922
0.368254
0.480063
0.482497
0.473085
0.437743
0.445889
0.359062
0.483489
0.464556
0.268578
0.234632
0.148243
0.459374
0.139296
0.128648
0.45913
0.140875
0.467571
0.478243
0.39596
0.0907948
0.458336
0.124464
0.36502
0.472111
0.291799
0.457645
0.0971035
0.101282
0.469076
0.488327
0.458096
0.425956
0.399788
0.48468
0.442064
0.373676
0.478491
0.460789
0.208386
0.194505
0.371609
0.347886
0.47758
0.459731
0.303078
0.185154
0.410492
0.391198
0.486197
0.482117
0.488456
0.441978
0.206599
0.208581
0.462584
0.472759
0.291203
0.333609
0.230512
0.213413
0.459092
0.458523
0.128031
0.109492
0.40486
0.425477
0.487431
0.391039
0.37089
0.476393
0.443408
0.451754
0.494672
0.166607
0.168405
0.173007
0.460358
0.165272
0.459416
0.388059
0.356038
0.482211
0.207688
0.188364
0.193192
0.174903
0.462741
0.461172
0.370117
0.405314
0.485761
0.42404
0.417318
0.486275
0.270933
0.459318
0.149882
0.417923
0.41076
0.48584
0.44141
0.435421
0.488767
0.237734
0.457939
0.12948
0.416633
0.366554
0.479645
0.419718
0.319609
0.470626
0.455674
0.34153
0.467523
0.3404
0.466193
0.280439
0.458139
-0.0365178
0.0358801
0.40821
0.403566
0.484837
0.282791
0.461262
0.183486
0.454686
0.323965
0.462486
0.127913
0.455412
0.0142031
0.488153
0.481658
0.459987
0.419451
0.461377
0.409678
0.44618
0.453018
0.491029
0.477971
0.486355
0.46941
0.422003
0.478593
0.416948
0.417621
0.425248
0.49183
0.424366
0.428862
0.490666
0.458614
0.155039
0.137617
0.463578
0.396081
0.474968
0.227037
0.200498
0.463797
0.36438
0.352817
0.357665
0.339862
0.477819
0.475021
0.458422
0.414856
0.479769
0.431407
0.341708
0.470989
0.386952
0.377171
0.484046
0.480434
0.45934
0.481791
0.346221
0.346016
0.476607
0.47553
0.479059
0.439885
0.383265
0.399344
0.484764
0.429244
0.356516
0.47175
0.479569
0.481226
0.44974
0.48808
0.449326
0.484051
0.482334
0.467748
0.488559
0.440185
0.484843
0.42399
0.453534
0.449276
0.39432
0.392857
0.48294
0.479709
0.466357
0.263474
0.352156
0.469889
0.333016
0.426913
0.467878
0.468672
0.249312
0.258622
0.335827
0.332106
0.471558
0.456443
0.352341
0.479746
0.484563
0.469477
0.344309
0.332176
0.475679
0.475053
0.48094
0.409239
0.42382
0.351541
0.472781
0.377443
0.378763
0.280071
0.470087
0.291492
0.470942
0.373825
0.34796
0.477641
0.147346
0.0370698
0.456141
0.450101
0.335308
0.463889
0.456912
0.459584
0.457281
0.331066
0.465784
0.341098
0.329646
0.359283
0.474586
0.435886
0.350947
0.4731
0.471755
0.454997
0.35014
0.456783
0.463062
0.461626
0.47557
0.367516
0.362555
0.455473
0.468102
0.34908
0.375313
0.358982
0.480378
0.479526
0.479152
0.443079
0.257647
0.46084
0.165052
0.469309
0.458024
0.339724
0.428891
0.417344
0.354228
0.346335
0.473249
0.478047
0.461785
0.184156
0.273578
0.271901
0.460595
0.160518
0.255924
0.459598
0.150696
0.365704
0.470217
0.282965
0.441136
0.364797
0.475312
0.252645
0.300412
0.416777
0.256986
0.377606
0.136328
0.338333
0.284271
0.223815
0.367874
0.365039
0.206287
0.251619
0.368349
0.279416
0.253311
0.261994
0.278232
0.29568
0.34054
0.298446
0.273872
0.377106
0.456448
0.425103
0.305775
0.38781
0.208961
0.314725
0.242845
0.217058
0.332883
0.300257
0.287293
0.230445
0.309968
0.410341
0.37539
0.27011
0.32728
0.265237
0.456479
0.243055
0.366527
0.396984
0.263628
0.269839
0.252721
0.209059
0.243231
0.42747
0.297337
0.255854
0.267458
0.217198
0.422313
0.343336
0.303478
0.25348
0.361258
0.241052
0.247076
0.425686
0.294767
0.30305
0.345113
0.309899
0.450431
0.376442
0.376406
0.195694
0.218539
0.27139
0.352622
0.209913
0.285009
0.305252
0.225372
0.355237
0.395062
0.27866
0.294332
0.212333
0.245735
0.257863
0.362322
0.258124
0.256842
0.278127
0.430049
0.253189
0.360242
0.424455
0.288465
0.252156
0.0817541
0.236804
0.255463
0.251906
0.192005
0.33305
0.380531
0.405138
0.453317
0.247801
0.248056
0.207376
0.262751
0.238768
0.408655
0.38455
0.33783
0.231816
0.216772
0.332932
0.385827
0.273589
0.257243
0.190338
0.273395
0.285809
0.437627
0.446363
0.355336
0.30904
0.27704
0.209994
0.441028
0.224486
0.350075
0.191525
0.425466
0.21479
0.199061
0.241395
0.393834
0.27812
0.166168
0.242882
0.337815
0.248063
0.363785
0.337334
0.25701
0.39594
0.268646
0.238895
0.402114
0.242802
0.279093
0.207119
0.316947
0.268549
0.399388
0.35936
0.26751
0.353421
0.365045
0.414471
0.30652
0.26973
0.25501
0.370375
0.225401
0.324039
0.211696
0.452212
0.275422
0.402514
0.438713
0.303925
0.444513
0.403145
0.412471
0.2287
0.186655
0.208251
0.416964
0.228114
0.217811
0.218906
0.21986
0.277311
0.267559
0.309023
0.43924
0.357237
0.263397
0.361792
0.260876
0.453953
0.182567
0.390843
0.258858
0.183482
0.428101
0.44115
0.254392
0.255481
0.451498
0.316384
0.264362
0.237485
0.353267
0.407482
0.357712
0.243415
0.253813
0.377791
0.310884
0.238914
0.325611
0.213205
0.222792
0.276875
0.384981
0.193676
0.277208
0.381195
0.255931
0.189645
0.271917
0.258601
0.272232
0.327051
0.333026
0.244449
0.214954
0.234248
0.34269
0.351618
0.257519
0.332661
0.270315
0.229701
0.316989
0.265224
0.176023
0.355895
0.400855
0.305795
0.430926
0.409973
0.455575
0.253066
0.16478
0.280186
0.268408
0.271376
0.199831
0.32219
0.424093
0.353962
0.313603
0.23864
0.265111
0.366758
0.298252
0.347479
0.243931
0.285941
0.261931
0.20472
0.244179
0.257371
0.25204
0.232169
0.33491
0.309045
0.268142
0.340628
0.261864
0.275211
0.244181
0.271008
0.2461
0.259926
0.312372
0.19594
0.154292
0.289979
0.202697
0.18386
0.311998
0.188574
0.187442
0.39918
0.335864
0.243816
0.360539
0.221409
0.331445
0.325874
0.213689
0.257143
0.384643
0.280485
0.367038
0.13048
0.235824
0.402099
0.25942
0.241075
0.142934
0.193763
0.180853
0.197753
0.264595
0.341118
0.227623
0.183343
0.23519
0.258361
0.454409
0.242605
0.352902
0.326614
0.196956
0.285007
0.241711
0.212948
0.328045
0.272184
0.424293
0.351061
0.241418
0.266111
0.299386
0.456893
0.364692
0.410992
0.358702
0.267638
0.307386
0.275171
0.230756
0.198286
0.254718
0.268998
0.348338
0.249044
0.20354
0.256725
0.276476
0.252974
0.263255
0.388689
0.268956
0.261408
0.419896
0.395992
0.244688
0.31264
0.408928
0.219126
0.183301
0.268892
0.228112
0.213935
0.405897
0.239598
0.28306
0.414617
0.187305
0.311461
0.252236
0.305857
0.269614
0.251184
0.0866065
0.2824
0.206626
0.23213
0.265586
0.262434
0.362724
0.424532
0.251027
0.312408
0.279462
0.234925
0.172751
0.38415
0.335841
0.235655
0.20495
0.322399
0.204676
0.256493
0.244965
0.238052
0.375614
0.423242
0.264208
0.359799
0.453458
0.387718
0.391358
0.415182
0.264652
0.260272
0.215778
0.453922
0.384803
0.401967
0.249693
0.256465
0.188323
0.366815
0.274621
0.238434
0.40312
0.343653
0.229992
0.280418
0.249561
0.255655
0.249648
0.2654
0.269913
0.225699
0.266885
0.197465
0.284663
0.226372
0.343766
0.294579
0.194116
0.409036
0.418998
0.357331
0.263263
0.314753
0.184944
0.364915
0.297115
0.199859
0.406744
0.157137
0.425943
0.206591
0.277831
0.292856
0.354529
0.375911
0.252846
0.437729
0.253892
0.39095
0.279294
0.341756
0.261888
0.246064
0.253531
0.39573
0.291306
0.451745
0.344156
0.196001
0.246085
0.333797
0.171266
0.264148
0.280331
0.227925
0.429924
0.225227
0.214127
0.373628
0.253927
0.424207
0.446672
0.257999
0.453348
0.434847
0.390867
0.404377
0.319721
0.207775
0.240831
0.271726
0.382513
0.274822
0.158076
0.436502
0.227012
0.26605
0.236712
0.413352
0.453208
0.23792
0.387843
0.3281
0.424628
0.2836
0.362987
0.255284
0.438727
0.449623
0.349458
0.241221
0.378848
0.269663
0.307982
0.299076
0.2865
0.327694
0.257894
0.16298
0.216044
0.29157
0.337456
0.314223
0.403504
0.233932
0.270619
0.342141
0.219712
0.417562
0.244992
0.254718
0.415727
0.396041
0.320137
0.441782
0.244076
0.257713
0.366528
0.303827
0.29302
0.275485
0.254342
0.33332
0.350223
0.254547
0.249046
0.316877
0.195362
0.223993
0.425297
0.451385
0.451722
0.282267
0.457959
0.452488
0.432789
0.173783
0.328548
0.325724
0.441227
0.266829
0.250565
0.210612
0.240142
0.14486
0.43661
0.277501
0.28305
0.365468
0.348504
0.262531
0.255908
0.452077
0.438714
0.409064
0.352126
0.24261
0.359225
0.33918
0.263784
0.292139
0.217974
0.239143
0.309236
0.289144
0.262316
0.425522
0.424666
0.174729
0.393313
0.254871
0.244835
0.276315
0.422608
0.276866
0.351478
0.278047
0.410515
0.265185
0.28113
0.449826
0.192317
0.192267
0.245833
0.23031
0.159022
0.0683829
0.238043
0.167497
0.294095
0.176126
0.225657
0.28834
0.23042
0.237828
0.266691
0.214671
0.0825469
0.435538
0.393851
0.265511
0.205185
0.397873
0.246357
0.250493
0.447633
0.244177
0.447363
0.280823
0.39894
0.281768
0.199738
0.220452
0.313147
0.313346
0.294496
0.20008
0.269168
0.228618
0.232678
0.257493
0.194687
0.215817
0.43403
0.240741
0.348402
0.370984
0.267976
0.37482
0.3727
0.209731
0.0727761
0.279617
0.199817
0.162239
0.355092
0.357706
0.264934
0.335556
0.262602
0.450187
0.433007
0.272086
0.257925
0.439903
0.404505
0.329512
0.330953
0.262506
0.452733
0.309486
0.174278
0.413944
0.388096
0.425957
0.312594
0.24279
0.273321
0.359086
0.329889
0.0317748
0.456898
0.278861
0.243007
0.296334
0.405348
0.450104
0.44844
0.335687
0.29818
0.37674
0.405787
0.417645
0.352149
0.384543
0.21086
0.250621
0.324135
0.216025
0.210521
0.192229
0.27768
0.372512
0.199558
0.305134
0.252874
0.384887
0.44851
0.274847
0.206907
0.184067
0.360384
0.255595
0.237794
0.194079
0.42113
0.314944
0.319482
0.198641
0.324233
0.241206
0.250025
0.363398
0.369323
0.424212
0.453066
0.238565
0.408944
0.177147
0.41606
0.422721
0.425239
0.378249
0.227235
0.227243
0.264616
0.171656
0.306486
0.191283
0.329264
0.202929
0.401159
0.266621
0.180272
0.396036
0.370693
0.284689
0.289229
0.346938
0.421903
0.315888
0.297449
0.179462
0.38789
0.305547
0.437988
0.163888
0.289182
0.414764
0.358985
0.442453
0.364544
0.270141
0.146737
0.179345
0.286975
0.203029
0.435491
0.170209
0.262051
0.285445
0.242483
0.381216
0.16781
0.417035
0.35877
0.322254
0.167557
0.344314
0.242277
0.274108
0.280732
0.286553
0.254936
0.240869
0.374995
0.227052
0.456469
0.25524
0.287939
0.34262
0.365061
0.435394
0.254252
0.258777
0.237157
0.296781
0.247636
0.430021
0.238083
0.302074
0.262211
0.390225
0.227813
0.310565
0.214105
0.449294
0.171122
0.225405
0.252888
0.395427
0.183259
0.199478
0.223847
0.206044
0.423861
0.298672
0.355012
0.399065
0.346018
0.296975
0.449434
0.301013
0.369847
0.339659
0.312876
0.191728
0.31913
0.275149
0.261496
0.321071
0.225758
0.195842
0.299209
0.264245
0.229994
0.385817
0.298088
0.34932
0.274849
0.433221
0.285825
0.283651
0.341128
0.201122
0.233833
0.261491
0.312646
0.318478
0.329037
0.420928
0.363398
0.379842
0.307026
0.409196
0.43754
0.433846
0.307071
0.305871
0.327416
0.208981
0.445542
0.4032
0.390474
0.288414
0.223557
0.190401
0.327066
0.359506
0.242677
0.390233
0.403466
0.331066
0.253966
0.311624
0.2634
0.242447
0.288178
0.254205
0.318889
0.193067
0.322873
0.293639
0.272897
0.168822
0.319242
0.303068
0.349396
0.264297
0.314438
0.419555
0.42947
0.316726
0.282078
0.380501
0.302002
0.235308
0.237904
0.276514
0.20326
0.420134
0.295237
0.308104
0.359698
0.353431
0.341517
0.222662
0.454641
0.345269
0.243968
0.295742
0.294714
0.380184
0.41606
0.34677
0.327252
0.181947
0.228834
0.270641
0.328605
0.30259
0.315607
0.251748
0.426837
0.334672
0.378666
0.406396
0.312787
0.247443
0.312262
0.444669
0.230752
0.178566
0.311921
0.450253
0.257344
0.274464
0.37512
0.360285
0.393527
0.289446
0.184602
0.326254
0.210008
0.260594
0.392618
0.28022
0.212906
0.240082
0.25666
0.334034
0.268056
0.259443
0.411857
0.246125
0.450112
0.391028
0.20476
0.15782
0.29877
0.367993
0.404745
0.284484
0.270608
0.240612
0.266137
0.288995
0.452924
0.415134
0.364753
0.271639
0.188491
0.422327
0.454989
0.425842
0.381496
0.413755
0.309797
0.21819
0.168245
0.178577
0.435059
0.29949
0.222073
0.276018
0.453974
0.262328
0.253167
0.200404
0.28666
0.236171
0.452816
0.325336
0.365453
0.412158
0.403384
0.26172
0.336603
0.306322
0.359046
0.223217
0.333739
0.251772
0.429593
0.204506
0.259872
0.214478
0.272285
0.418467
0.269939
0.390575
0.408401
0.41404
0.21712
0.30379
0.2712
0.248151
0.425115
0.312971
0.316687
0.322742
0.142916
0.277322
0.427462
0.340394
0.42794
0.173256
0.227676
0.26139
0.433488
0.234912
0.29177
0.229821
0.22211
0.273067
0.432995
0.282598
0.273171
0.200053
0.450972
0.444718
0.143652
0.424873
0.266815
0.218428
0.228103
0.296606
0.207331
0.340522
0.273373
0.26008
0.274826
0.408983
0.287832
0.390605
0.281684
0.219059
0.276004
0.17249
0.190219
0.27981
0.264085
0.32295
0.228583
0.286934
0.406706
0.334493
0.260579
0.195536
0.414312
0.282365
0.291553
0.460724
0.32019
0.258376
0.249093
0.219409
0.438071
0.265479
0.287991
0.332838
0.205882
0.417537
0.207055
0.40956
0.302483
0.371037
0.232332
0.384008
0.281556
0.208443
0.234044
0.302915
0.418649
0.154387
0.250482
0.243695
0.43689
0.454873
0.235876
0.253968
0.33813
0.438242
0.286292
0.422876
0.402322
0.389079
0.373509
0.313017
0.351727
0.341564
0.426635
0.292751
0.311103
0.237616
0.256491
0.293939
0.231174
0.43887
0.218627
0.421315
0.291069
0.433614
0.255361
0.443124
0.368403
0.406947
0.434826
0.419702
0.459601
0.268606
0.408351
0.301214
0.263284
0.253676
0.227662
0.427835
0.219683
0.321268
0.333625
0.276787
0.335821
0.248873
0.42743
0.295671
0.380187
0.170313
0.242074
0.268424
0.45362
0.240617
0.34467
0.260941
0.269421
0.212975
0.27863
0.266953
0.384102
0.430663
0.19849
0.316815
0.26356
0.258836
0.395213
0.241163
0.254757
0.440841
0.178588
0.317469
0.360016
0.417498
0.44745
0.258429
0.248355
0.208995
0.268477
0.247814
0.26294
0.375653
0.261868
0.216578
0.273665
0.304655
0.265082
0.253215
0.243751
0.302212
0.205605
0.377901
0.369773
0.261987
0.379566
0.204416
0.200558
0.235026
0.189754
0.441331
0.269111
0.262832
0.251477
0.403688
0.425501
0.308737
0.377484
0.252511
0.244041
0.308014
0.265047
0.248786
0.42671
0.325999
0.350466
0.444363
0.384478
0.297656
0.435265
0.194073
0.3112
0.307319
0.330352
0.270072
0.433243
0.258893
0.324968
0.293715
0.26483
0.233228
0.251798
0.368293
0.396814
0.410461
0.310131
0.318634
0.434843
0.387247
0.279547
0.32183
0.217418
0.264285
0.388757
0.199328
0.406379
0.258771
0.414023
0.457097
0.429093
0.250299
0.407469
0.403765
0.187377
0.434754
0.244779
0.432311
0.385466
0.261797
0.230685
0.327892
0.268636
0.261549
0.24863
0.38854
0.263217
0.437581
0.223409
0.259779
0.245958
0.222283
0.262697
0.397401
0.450263
0.220251
0.378985
0.301559
0.325055
0.285718
0.33707
0.421702
0.388106
0.258223
0.416159
0.393793
0.447335
0.223916
0.232372
0.2524
0.376341
0.442043
0.399035
0.288359
0.443406
0.299549
0.196286
0.228918
0.154855
0.29721
0.210176
0.447788
0.450584
0.316769
0.460745
0.389625
0.302666
0.440441
0.213125
0.431991
0.262176
0.42599
0.271931
0.227718
0.373374
0.316369
0.43257
0.421703
0.42482
0.236419
0.233745
0.183103
0.408568
0.387219
0.237548
0.308937
0.388859
0.178601
0.252652
0.23601
0.25292
0.326944
0.251765
0.307199
0.369455
0.304904
0.31574
0.370056
0.26667
0.27727
0.324914
0.306706
0.268539
0.409634
0.433389
0.236782
0.384865
0.175385
0.249645
0.415053
0.380239
0.246738
0.428305
0.21463
0.369473
0.284666
0.286167
0.413852
0.273634
0.37768
0.376113
0.35419
0.454952
0.356927
0.20805
0.338681
0.291805
0.37761
0.451712
0.352781
0.300252
0.248583
0.287224
0.415075
0.225012
0.401462
0.240546
0.330838
0.384963
0.371226
0.294837
0.41246
0.443071
0.275187
0.267579
0.31352
0.235554
0.213192
0.309145
0.375429
0.240555
0.204466
0.239378
0.200419
0.365871
0.297985
0.379926
0.258039
0.425906
0.307162
0.404365
0.448509
0.244098
0.420234
0.276438
0.313483
0.30949
0.410541
0.251967
0.282337
0.312735
0.228543
0.269333
0.229486
0.210095
0.175118
0.443533
0.453236
0.240756
0.255483
0.374428
0.1918
0.238192
0.263282
0.359401
0.368814
0.189175
0.174409
0.421797
0.256817
0.3318
0.255551
0.203657
0.228321
0.320167
0.403991
0.332686
0.198632
0.427331
0.402926
0.23975
0.32778
0.259963
0.448072
0.269123
0.288434
0.213533
0.346788
0.43362
0.333081
0.314786
0.247959
0.297891
0.336719
0.441175
0.460668
0.251894
0.444658
0.253096
0.315337
0.318407
0.279617
0.262085
0.410101
0.268515
0.321716
0.236401
0.221845
0.279745
0.230676
0.357303
0.426536
0.236776
0.252663
0.314145
0.263331
0.244211
0.167005
0.268571
0.410963
0.176583
0.238999
0.371766
0.311753
0.290872
0.344341
0.398798
0.221635
0.226684
0.398369
0.283607
0.230889
0.30348
0.409296
0.346865
0.314708
0.252459
0.251761
0.247961
0.441961
0.398733
0.45073
0.287624
0.355822
0.221372
0.302156
0.405282
0.196197
0.203854
0.369663
0.400823
0.196666
0.260793
0.250783
0.220998
0.250652
0.459674
0.290784
0.258351
0.31343
0.248733
0.373691
0.323643
0.21878
0.263069
0.386359
0.297066
0.443756
0.209054
0.253918
0.349069
0.335814
0.277155
0.331334
0.229495
0.44691
0.427655
0.350797
0.413223
0.238887
0.409576
0.340829
0.346709
0.435437
0.191762
0.263773
0.449715
0.342712
0.187936
0.236821
0.39835
0.447929
0.298784
0.375535
0.25045
0.209824
0.238084
0.179315
0.404487
0.249057
0.299402
0.43749
0.24454
0.225439
0.248027
0.316756
0.258308
0.249107
0.25068
0.221172
0.296426
0.386266
0.434134
0.367164
0.268341
0.263031
0.182434
0.25662
0.339699
0.320502
0.358196
0.373177
0.263215
0.286496
0.396429
0.403002
0.449342
0.415155
0.437764
0.297753
0.212709
0.237778
0.222099
0.441694
0.314098
0.252035
0.43425
0.218603
0.390844
0.37024
0.263981
0.255926
0.264961
0.251592
0.401397
0.265901
0.359528
0.296825
0.432512
0.325217
0.453881
0.236912
0.295936
0.236229
0.170507
0.268358
0.383606
0.224389
0.131849
0.313154
0.428862
0.378522
0.248838
0.210426
0.241222
0.219638
0.257756
0.224661
0.278677
0.225113
0.370893
0.24038
0.258152
0.418902
0.301737
0.343847
0.394901
0.267148
0.297259
0.232416
0.385343
0.256311
0.268237
0.291625
0.231416
0.206934
0.255138
0.238202
0.378416
0.450809
0.408227
0.319464
0.364608
0.200222
0.444605
0.33095
0.376185
0.253081
0.36836
0.241141
0.270017
0.389284
0.43251
0.381689
0.318618
0.270799
0.453607
0.277752
0.394081
0.440014
0.353124
0.281018
0.196632
0.393569
0.326774
0.225038
0.344323
0.322666
0.430318
0.246452
0.438215
0.450159
0.278301
0.238665
0.438978
0.213239
0.227153
0.270618
0.224231
0.270258
0.233169
0.211022
0.29517
0.259031
0.239257
0.258771
0.320242
0.231459
0.24299
0.339132
0.300224
0.212178
0.426159
0.45238
0.442386
0.25516
0.203327
0.45516
0.206713
0.293059
0.243184
0.26008
0.250867
0.36946
0.264299
0.256962
0.201566
0.195235
0.225995
0.267077
0.198497
0.292447
0.312568
0.283716
0.43259
0.318329
0.355091
0.283361
0.399769
0.246563
0.265668
0.4628
0.272051
0.321309
0.210808
0.354531
0.45272
0.257029
0.340273
0.324736
0.229811
0.249902
0.242164
0.225708
0.372522
0.228957
0.285476
0.257293
0.278428
0.243193
0.243294
0.292495
0.260117
0.259158
0.450723
0.291677
0.28331
0.31339
0.430986
0.26881
0.196931
0.388888
0.213455
0.276067
0.252786
0.300818
0.24483
0.267518
0.30021
0.447985
0.405716
0.198908
0.258024
0.197362
0.247128
0.185227
0.229129
0.272965
0.236314
0.273158
0.341057
0.459996
0.265654
0.366982
0.309041
0.441578
0.2622
0.453294
0.333019
0.221041
0.341229
0.373981
0.257044
0.405212
0.253319
0.411518
0.250989
0.135075
0.288808
0.458392
0.449643
0.371017
0.346625
0.36482
0.204563
0.241857
0.365743
0.453272
0.151643
0.301474
0.253266
0.247293
0.283966
0.240439
0.218332
0.249648
0.229048
0.258976
0.256947
0.286823
0.453817
0.401833
0.18663
0.386782
0.236109
0.241938
0.391876
0.252463
0.274938
0.357265
0.166884
0.239035
0.298109
0.407487
0.222454
0.245255
0.272805
0.337472
0.221051
0.431284
0.198484
0.26448
0.271415
0.247125
0.348384
0.340173
0.43254
0.249982
0.381327
0.310219
0.335324
0.252103
0.348601
0.233561
0.213384
0.177202
0.330201
0.283375
0.271488
0.418596
0.29969
0.318253
0.348009
0.242895
0.229055
0.266412
0.331979
0.258979
0.45855
0.213115
0.198042
0.268131
0.257624
0.257686
0.24704
0.369614
0.268389
0.290009
0.224488
0.255612
0.284294
0.213177
0.454933
0.443172
0.227779
0.241914
0.404549
0.312446
0.247512
0.209386
0.242811
0.226631
0.310029
0.423706
0.248772
0.206122
0.340013
0.294054
0.199142
0.224343
0.294215
0.362066
0.459171
0.218586
0.19246
0.321324
0.404307
0.266049
0.320464
0.267921
0.253531
0.266884
0.336307
0.27908
0.254376
0.384737
0.270426
0.174898
0.308004
0.25758
0.390356
0.454106
0.261458
0.26234
0.260394
0.263995
0.21948
0.265893
0.228436
0.434926
0.394696
0.35989
0.272186
0.206748
0.38194
0.444644
0.242866
0.304943
0.249797
0.17618
0.294057
0.25931
0.170989
0.235413
0.34441
0.22065
0.199638
0.225172
0.392128
0.214726
0.388507
0.293442
0.249107
0.255291
0.238795
0.390076
0.183753
0.268501
0.275096
0.213579
0.320437
0.365887
0.321285
0.284598
0.374705
0.223641
0.226526
0.422106
0.250888
0.418444
0.323246
0.262186
0.32614
0.40837
0.29405
0.195915
0.43121
0.246305
0.270614
0.40946
0.241727
0.439143
0.248075
0.272323
0.181437
0.276471
0.227291
0.298251
0.22527
0.177684
0.222213
0.220421
0.180023
0.424145
0.221001
0.271478
0.32379
0.298321
0.446019
0.448408
0.245268
0.297183
0.393949
0.23658
0.424468
0.188281
0.259109
0.312395
0.243844
0.396148
0.252789
0.259631
0.26552
0.248255
0.247558
0.176228
0.411145
0.08631
0.43661
0.363522
0.225258
0.198806
0.229143
0.460543
0.368952
0.343618
0.290669
0.322719
0.274597
0.409605
0.382746
0.24029
0.338147
0.439821
0.277579
0.302445
0.346414
0.193216
0.2252
0.39314
0.268392
0.289066
0.439652
0.21762
0.189897
0.252514
0.2878
0.273953
0.449836
0.245495
0.207812
0.24167
0.286905
0.24672
0.417057
0.295415
0.234203
0.246251
0.242716
0.242929
0.265107
0.336887
0.306478
0.235616
0.416374
0.258789
0.39647
0.236137
0.218589
0.276526
0.41284
0.444016
0.388714
0.286622
0.278742
0.389052
0.445728
0.215487
0.425581
0.22525
0.352459
0.333391
0.415675
0.287833
0.406684
0.429525
0.258693
0.257328
0.272399
0.304521
0.228758
0.218459
0.218901
0.367626
0.396764
0.212906
0.430609
0.291437
0.376578
0.286783
0.228796
0.394555
0.382783
0.256169
0.263341
0.22677
0.44903
0.368916
0.454408
0.210032
0.227763
0.277141
0.400617
0.342199
0.418147
0.318653
0.447232
0.248902
0.281641
0.30213
0.255093
0.32195
0.198026
0.388799
0.293367
0.310595
0.426453
0.204654
0.214715
0.188676
0.332627
0.4127
0.264409
0.348833
0.204516
0.206014
0.290684
0.256655
0.24919
0.414663
0.307206
0.239948
0.278409
0.331476
0.43457
0.334458
0.265537
0.4109
0.307713
0.438739
0.293456
0.357337
0.263564
0.210107
0.456916
0.232601
0.3237
0.316132
0.42296
0.354117
0.282723
0.255842
0.453127
0.282324
0.235029
0.371996
0.445607
0.367085
0.341926
0.206196
0.173456
0.300349
0.238162
0.269451
0.301874
0.235049
0.433277
0.448441
0.428476
0.258703
0.264019
0.24936
0.266372
0.358474
0.215514
0.355471
0.43404
0.220057
0.25747
0.249155
0.39951
0.343279
0.263047
0.239129
0.363652
0.246395
0.195066
0.22008
0.459258
0.181519
0.386381
0.341968
0.251243
0.436422
0.308946
0.460051
0.16012
0.260508
0.31474
0.428575
0.268241
0.424744
0.309165
0.180538
0.27881
0.25157
0.269452
0.174793
0.387297
0.257621
0.239143
0.192912
0.283293
0.415965
0.147937
0.261518
0.411463
0.283041
0.407571
0.184748
0.24677
0.249655
0.271211
0.230415
0.207682
0.2455
0.152784
0.263948
0.261736
0.37855
0.320013
0.413472
0.240823
0.267088
0.209083
0.310888
0.156229
0.270928
0.454865
0.291517
0.261152
0.462644
0.235497
0.31656
0.341918
0.208411
0.255439
0.291775
0.328618
0.434745
0.444687
0.445808
0.333347
0.288312
0.260414
0.228256
0.406267
0.357124
0.249939
0.261778
0.262371
0.287767
0.46004
0.274815
0.458004
0.241531
0.348019
0.229295
0.247372
0.207997
0.255734
0.420198
0.265252
0.214739
0.229657
0.456525
0.259182
0.234451
0.231362
0.246077
0.366906
0.316216
0.324019
0.283765
0.37161
0.19946
0.291532
0.27964
0.270921