/*--------------------------------*- C++ -*----------------------------------*\
  =========                 |
  \\      /  F ield         | OpenFOAM: The Open Source CFD Toolbox
   \\    /   O peration     | Website:  https://openfoam.org
    \\  /    A nd           | Version:  6
     \\/     M anipulation  |
\*---------------------------------------------------------------------------*/
FoamFile
{
    version     2.0;
    format      ascii;
    class       volVectorField;
    location    "0";
    object      U;
}
// * * * * * * * * * * * * * * * * * * * * * * * * * * * * * * * * * * * * * //

dimensions      [0 1 -1 0 0 0 0];

internalField   nonuniform List<vector> 
13046
(
(0.43031 0.143694 0)
(0.56258 -0.166278 3.2771e-21)
(0.20734 -0.10311 7.31514e-21)
(0.422651 0.066784 0)
(0.193202 -0.0359389 6.70746e-21)
(0.479443 -0.175901 0)
(0.460603 0.0872578 -9.88827e-22)
(0.523146 -0.209494 -1.66767e-21)
(0.168367 -0.0252019 7.36853e-21)
(0.883514 0.384628 -2.59141e-21)
(0.980612 -0.427432 0)
(-0.0186937 -0.0135451 -4.58951e-21)
(0.538463 0.181862 6.24253e-21)
(0.654754 -0.235189 4.91693e-21)
(0.136716 -0.0734649 -3.98416e-21)
(0.834112 0.430028 -1.42413e-21)
(0.0166273 -0.0425389 -7.3287e-21)
(1.02622 -0.356222 -1.66495e-21)
(0.257968 0.0332949 0)
(0.364026 -0.153789 3.61398e-21)
(0.431034 -0.0231398 -1.03422e-20)
(0.845013 0.422121 1.46439e-21)
(0.00636161 -0.0347507 1.46775e-20)
(1.01773 -0.372221 -4.86327e-22)
(0.380174 0.077365 -4.18808e-21)
(0.477838 -0.137723 6.15113e-21)
(0.22665 -0.0814141 0)
(0.545163 0.209041 -1.27261e-22)
(0.678551 -0.232871 -1.44925e-21)
(0.139435 -0.0875248 1.37955e-20)
(0.434816 0.163349 0)
(0.585713 -0.155593 0)
(0.215793 -0.121994 -7.44522e-21)
(0.350487 0.0505925 1.46852e-20)
(0.249134 -0.0808293 -2.50444e-21)
(0.437442 -0.111727 -9.53353e-21)
(0.350924 0.0295676 3.24889e-23)
(0.254484 -0.0612174 0)
(0.411272 -0.108841 0)
(0.35155 0.166566 -5.31409e-21)
(0.35605 -0.232268 -6.6783e-21)
(0.588728 -0.0744658 4.93325e-21)
(0.345847 -0.0297352 -3.36748e-21)
(0.293388 -0.0353169 3.44244e-21)
(0.339114 -0.078976 0)
(0.369539 -0.0222673 -2.15531e-21)
(0.269841 -0.0152443 0)
(0.348959 -0.103376 1.10259e-21)
(0.450041 0.139074 0)
(0.569046 -0.186319 2.3409e-22)
(0.178567 -0.0842166 2.99936e-23)
(0.517012 -0.35881 -8.07645e-21)
(0.297785 0.184348 0)
(0.661682 -0.0045949 5.77684e-21)
(0.57121 -0.393307 1.15007e-20)
(0.679431 0.0183953 6.24653e-21)
(0.265564 0.168719 -8.15552e-21)
(0.930482 -0.226607 9.60425e-22)
(0.694437 0.412508 0)
(0.174819 -0.166837 -6.10344e-21)
(0.700501 0.19562 2.9559e-21)
(0.765516 -0.378101 -2.79601e-21)
(0.0678121 0.0109749 1.65695e-20)
(0.00494745 -0.0276937 -8.49811e-21)
(0.960734 -0.405647 1.4408e-21)
(0.847594 0.350887 4.45659e-21)
(0.658812 0.406486 0)
(0.899687 -0.193678 -4.58418e-21)
(0.219022 -0.204877 -1.77322e-21)
(0.62856 0.386313 2.25715e-21)
(0.869571 -0.1812 6.21236e-21)
(0.235092 -0.213782 2.41249e-21)
(0.962252 -0.235099 9.28068e-24)
(0.721349 0.43011 -8.08619e-23)
(0.159003 -0.161327 3.03671e-23)
(0.268915 0.0538431 0)
(0.35745 -0.167953 -3.9322e-21)
(0.457514 -0.0397418 7.32876e-21)
(0.1042 -0.115683 -6.70898e-21)
(0.762935 0.436571 6.62592e-21)
(0.992418 -0.276817 1.99021e-21)
(0.405346 0.0866599 -2.19769e-21)
(0.49429 -0.157359 2.19211e-21)
(0.203632 -0.0637674 0)
(-0.00092962 -0.0260073 7.58856e-21)
(0.976491 -0.410622 0)
(0.863677 0.365604 -2.63217e-21)
(0.887097 0.283561 4.5783e-21)
(0.00423905 0.0053461 0)
(0.918762 -0.475784 1.15987e-21)
(0.0374421 0.0401625 0)
(0.947694 0.223312 0)
(0.885393 -0.552374 -1.45029e-22)
(0.705604 0.288189 5.85544e-21)
(0.741074 0.296356 -8.1176e-21)
(0.841682 -0.323737 -5.19854e-21)
(0.867407 -0.350966 2.4298e-21)
(0.0673061 -0.0593195 3.53821e-21)
(0.0478732 -0.0440561 -9.08687e-21)
(0.0137182 0.0140735 4.31696e-22)
(0.88583 0.263371 -4.47937e-21)
(0.901428 -0.489625 0)
(0.384713 0.000118477 1.63981e-23)
(0.246394 -0.0155729 0)
(0.38066 -0.12879 0)
(0.20571 0.113239 -1.47932e-20)
(0.614889 0.0448042 2.92207e-21)
(0.560485 -0.340563 0)
(0.295217 0.163693 -2.25135e-21)
(0.46522 -0.305923 0)
(0.61368 -0.0228582 1.11737e-20)
(0.831176 0.381937 0)
(-0.0219299 -0.00480409 6.22743e-21)
(0.89497 -0.417215 5.75082e-22)
(0.498297 0.159514 -4.36061e-21)
(0.617233 -0.214537 -2.15304e-21)
(0.150577 -0.0698522 -7.2147e-21)
(0.740612 0.343674 -3.38666e-21)
(0.707211 0.315999 3.16095e-21)
(0.90303 -0.317762 -1.36114e-21)
(0.0697231 -0.0758377 -4.04788e-21)
(0.862089 -0.306182 1.39529e-21)
(0.0785573 -0.07639 3.78146e-21)
(0.872574 0.393672 6.19185e-21)
(0.976335 -0.422064 1.38029e-21)
(-0.0195655 -0.0120562 2.04836e-21)
(0.631097 0.256789 0)
(0.768925 -0.280404 3.60595e-21)
(0.102047 -0.0805989 -2.09869e-20)
(0.386424 0.181929 0)
(0.317563 -0.211103 6.72546e-21)
(0.603409 -0.0996217 -2.68447e-22)
(0.050169 0.0490203 0)
(0.921994 0.208702 0)
(0.873561 -0.542695 0)
(0.805123 0.300798 0)
(0.903093 -0.402175 6.37187e-21)
(0.0211576 -0.0210235 9.13186e-21)
(0.471357 0.184349 0)
(0.622499 -0.176298 0)
(0.2 -0.126693 0)
(0.568933 0.113512 0)
(0.612959 -0.300152 0)
(0.130381 0.0194199 0)
(0.276457 0.159697 2.08326e-21)
(0.505494 -0.331782 0)
(0.627581 -0.00307261 -6.03731e-21)
(0.207649 0.101286 1.43324e-20)
(0.594311 0.0404818 6.41518e-21)
(0.546926 -0.322633 -7.2498e-21)
(0.727224 0.214838 -6.75305e-21)
(0.795641 -0.388033 0)
(0.0538523 -0.000110805 -2.15325e-20)
(0.188667 0.0515876 0)
(0.523437 0.0448675 -1.40658e-20)
(0.505953 -0.262172 -1.87737e-21)
(0.665273 -0.433155 -3.16563e-21)
(0.711299 0.0773617 -6.59654e-21)
(0.709805 -0.449311 0)
(0.73506 0.107111 -3.80941e-21)
(0.188644 0.126724 -7.00025e-21)
(0.15231 0.103759 6.7239e-21)
(0.595941 0.0859219 -8.93388e-22)
(0.600978 -0.329421 -3.72706e-21)
(0.148944 0.0534303 4.1371e-21)
(0.902262 0.369784 2.6412e-21)
(-0.0204764 -0.0110344 -2.38937e-21)
(0.963664 -0.444956 2.14349e-21)
(0.84859 0.389388 1.68215e-21)
(-0.0217459 -0.00646599 9.35217e-22)
(0.934778 -0.417998 0)
(0.814402 0.319257 -1.18676e-22)
(0.920933 -0.398943 0)
(0.0171285 -0.0268403 -1.10308e-20)
(0.447723 0.247 0)
(0.684184 -0.111613 -1.49943e-21)
(0.328136 -0.245852 -3.8919e-21)
(0.577979 0.0691982 -5.81379e-21)
(0.16899 0.0685215 0)
(0.569288 -0.31066 0)
(-0.01867 -0.00541066 0)
(0.948745 -0.476455 0)
(0.924173 0.33572 -2.15823e-21)
(0.413659 0.2225 0)
(0.652052 -0.0960915 3.32832e-21)
(0.341521 -0.240116 -1.01136e-21)
(0.185949 0.065137 0)
(0.539615 0.0447882 0)
(0.51359 -0.277295 0)
(0.538146 0.093956 -2.92498e-21)
(0.578623 -0.279471 0)
(0.141395 0.0146667 0)
(0.696385 -0.275533 2.16482e-23)
(0.106577 -0.0513252 4.90976e-21)
(0.603137 0.233752 -9.05479e-21)
(0.737815 -0.26781 0)
(0.110465 -0.0754282 2.16845e-20)
(0.890585 0.326898 5.19953e-21)
(-0.00685567 -0.00908524 -6.8821e-21)
(0.952347 -0.453542 5.16675e-21)
(0.0378917 0.0369224 -6.31804e-21)
(0.89052 0.224611 -2.80976e-21)
(0.877582 -0.515071 -5.94405e-21)
(0.932638 0.258487 7.43774e-21)
(0.908616 -0.517064 0)
(0.011981 0.0209053 6.19377e-21)
(0.539512 -0.400512 3.25215e-21)
(0.717341 -0.0104315 -2.55417e-21)
(0.339156 0.234956 -6.86224e-21)
(0.525189 0.132933 5.7437e-21)
(0.751032 0.446657 -3.43456e-21)
(0.123408 -0.130148 4.12923e-21)
(0.99604 -0.265872 -9.27166e-24)
(0.916753 -0.516766 0)
(0.942736 0.278734 2.08683e-21)
(0.00104122 0.0119194 0)
(0.378286 0.0266064 1.08526e-20)
(0.233481 -0.0355896 0)
(0.412533 -0.133275 -3.57446e-21)
(0.524048 0.214612 0)
(0.671487 -0.212729 2.09293e-22)
(0.166478 -0.106466 -4.08389e-21)
(0.0492433 0.046775 -4.85886e-21)
(0.898626 0.21189 0)
(0.868581 -0.529479 6.84843e-21)
(0.558031 0.154241 0)
(0.680371 -0.282335 -8.8924e-21)
(0.106472 -0.0386329 0)
(-0.0244554 -0.00807844 0)
(0.927056 -0.450029 -1.39741e-21)
(0.897023 0.3681 0)
(0.304085 0.211141 7.42465e-21)
(0.717978 0.00749884 0)
(0.57397 -0.422808 0)
(0.907401 0.249807 -6.52519e-21)
(0.899809 -0.506346 0)
(0.0174868 0.021625 3.5392e-23)
(0.662383 0.0973762 -7.5479e-21)
(0.655421 -0.388759 -2.78115e-21)
(0.144321 0.0788946 9.48269e-21)
(0.627688 0.273986 0)
(0.77772 -0.267165 -3.37486e-21)
(0.11565 -0.0941058 -2.17956e-21)
(0.81473 -0.540854 9.14684e-21)
(0.865501 0.14911 5.06088e-21)
(0.114442 0.0954913 -3.82415e-21)
(0.773096 0.115587 0)
(0.741638 -0.478753 3.78979e-21)
(0.147811 0.106765 1.39007e-22)
(-0.0245729 -0.0078535 4.82412e-21)
(0.90374 -0.457794 0)
(0.903574 0.355991 1.67446e-21)
(0.354794 0.202323 -9.88416e-21)
(0.422314 -0.29234 4.83831e-21)
(0.641855 -0.0553303 4.78702e-22)
(0.764079 0.406128 -1.68053e-21)
(-0.0167006 -0.000884756 5.15973e-22)
(0.910892 -0.362559 0)
(0.233969 0.0135389 -2.22116e-21)
(0.422546 -0.00126386 8.38695e-21)
(0.392683 -0.161081 -1.07795e-20)
(0.659011 0.134197 -3.03427e-21)
(0.64188 0.104491 -3.41063e-23)
(0.688381 -0.372407 6.79297e-21)
(0.648403 -0.368818 6.65638e-21)
(0.134985 0.0629103 -7.53989e-21)
(0.105639 0.0415897 3.88666e-21)
(0.0812716 -0.0968138 8.78152e-21)
(0.781962 0.441163 -3.5374e-21)
(1.01456 -0.289546 0)
(0.594011 0.267606 0)
(0.753921 -0.238509 0)
(0.146915 -0.113581 8.67395e-21)
(0.804816 0.13969 1.34914e-21)
(0.776276 -0.499248 0)
(0.12239 0.0920446 0)
(0.775327 0.32601 -2.94956e-21)
(0.907385 -0.357758 0)
(0.0384985 -0.0476215 -3.99811e-21)
(0.32504 -0.0158784 -2.28718e-21)
(0.354874 -0.0669935 -3.29599e-21)
(0.298889 -0.0555157 1.14523e-21)
(0.714317 0.120036 4.8497e-21)
(0.709991 -0.428233 0)
(0.128986 0.0813396 6.47333e-21)
(0.600296 0.285639 0)
(0.77284 -0.231891 -4.18047e-21)
(0.155582 -0.127172 5.52761e-21)
(0.572769 0.179384 -9.29884e-21)
(0.608171 0.198423 7.48749e-21)
(0.363734 0.215897 7.81871e-21)
(0.433451 -0.308478 -1.39945e-20)
(0.659622 -0.0511963 1.05042e-20)
(0.737489 0.144785 4.99024e-21)
(0.74333 -0.439102 -5.68661e-21)
(0.101729 0.0633297 -5.90525e-21)
(0.799745 0.331857 1.08093e-20)
(0.0256007 -0.0380092 1.41503e-20)
(0.926147 -0.376676 3.01245e-21)
(0.295889 0.148913 3.43991e-21)
(0.44122 -0.286945 0)
(0.593663 -0.0259344 -3.76429e-21)
(0.206922 0.146159 7.57956e-21)
(0.728982 0.069378 3.76246e-21)
(0.666134 -0.452723 0)
(0.688782 0.345457 1.10111e-21)
(0.873639 -0.265988 3.50761e-21)
(0.119068 -0.114033 -2.50173e-21)
(0.330511 0.206937 -6.40059e-22)
(0.492852 -0.349034 0)
(0.671608 -0.0203784 -7.99524e-21)
(0.717846 0.365025 0)
(0.740026 0.365673 0)
(0.907249 -0.280896 2.18762e-21)
(0.105081 -0.106422 6.52249e-21)
(0.92036 -0.30486 -3.08925e-21)
(0.0819187 -0.0875798 -6.91409e-21)
(-0.0160285 -0.00893468 5.3128e-21)
(0.958606 -0.461659 0)
(0.911197 0.345262 3.1941e-21)
(0.673702 0.306156 0)
(0.832027 -0.284837 1.65334e-21)
(0.100184 -0.0908434 -2.2554e-21)
(0.788759 -0.382082 -8.30857e-22)
(-0.0166135 -0.00118159 -7.67007e-21)
(0.737194 0.365897 -3.11673e-21)
(0.487118 0.0161205 1.13826e-20)
(0.213641 0.0492548 0)
(0.449458 -0.222886 3.94442e-21)
(0.658007 0.180717 -7.03701e-21)
(0.72928 -0.348445 0)
(0.0783626 0.00180377 -1.27339e-20)
(0.000330047 -0.0140291 4.38842e-21)
(0.865702 0.321562 -9.58545e-21)
(0.941489 -0.436292 -4.09917e-21)
(0.590722 -0.412705 4.22073e-21)
(0.698316 0.0243553 0)
(0.263547 0.180684 9.24273e-21)
(0.834437 -0.539482 1.08024e-20)
(0.878742 0.171498 3.0686e-21)
(0.087852 0.0749333 0)
(0.623523 -0.255008 4.65685e-21)
(0.127185 -0.0332393 0)
(0.677085 0.22703 -7.58132e-21)
(0.769914 -0.334036 -3.09979e-21)
(0.068006 -0.0322228 -3.88203e-21)
(0.613399 -0.269228 -1.61387e-22)
(0.124581 -0.0181474 -1.90314e-23)
(0.826984 0.42206 7.26945e-21)
(0.0271034 -0.0518547 -1.03348e-20)
(1.01783 -0.346822 2.44751e-21)
(0.525946 -0.411044 -4.23249e-21)
(0.740008 -0.0236601 -7.95982e-22)
(0.371789 0.260686 0)
(0.70795 0.244912 7.72334e-21)
(0.808976 -0.351722 3.78096e-21)
(0.0550386 -0.0261209 9.42473e-21)
(0.587149 0.10866 0)
(0.615592 -0.319707 2.72915e-21)
(0.131512 0.0337452 0)
(0.626936 0.0247718 3.73435e-21)
(0.541226 -0.349654 0)
(0.239021 0.134587 0)
(0.437165 0.114305 3.04604e-21)
(0.536929 -0.180389 5.15726e-21)
(0.183912 -0.0698867 -7.9686e-24)
(0.236226 0.166911 -9.40451e-21)
(0.721419 0.0494585 -9.12835e-21)
(0.637915 -0.441128 -1.13422e-20)
(0.908028 0.303149 3.88898e-21)
(0.935497 -0.475312 -4.36077e-21)
(-0.00517951 -0.000319402 -1.03582e-22)
(0.841963 -0.523513 -7.3583e-21)
(0.868391 0.183929 -3.11016e-21)
(0.0728076 0.0629677 -4.8822e-21)
(0.563177 0.353554 6.97627e-21)
(0.300425 -0.254846 -3.59274e-21)
(0.816848 -0.143121 0)
(0.750883 0.407757 -1.93042e-21)
(0.727993 0.392456 1.78679e-21)
(0.934573 -0.269648 6.91684e-22)
(0.96178 -0.279934 -2.80042e-21)
(0.102652 -0.110122 2.36897e-21)
(0.117464 -0.12091 2.10992e-21)
(-0.0179163 -0.000486285 7.79117e-21)
(0.82868 -0.376636 9.15009e-22)
(0.750836 0.373486 -1.13048e-21)
(0.778673 0.413346 1.16723e-22)
(-0.0155163 -0.00335294 0)
(0.942219 -0.363378 0)
(0.694184 0.152712 1.12133e-20)
(0.728728 -0.393284 1.48169e-21)
(0.0947835 0.0411338 0)
(-0.0109589 -0.0117987 1.32492e-20)
(0.895933 0.340681 -4.01746e-21)
(0.962995 -0.44989 0)
(0.635755 0.359959 -9.88313e-21)
(0.665701 0.368841 7.3794e-21)
(0.852084 -0.210723 -3.80053e-21)
(0.876043 -0.230128 -1.43554e-21)
(0.198216 -0.176352 4.16369e-21)
(0.167213 -0.153492 2.09002e-21)
(-0.00518372 0.00694425 0)
(0.898246 -0.525279 0)
(0.970161 0.27597 -1.08788e-21)
(0.714586 0.401331 1.97347e-21)
(-0.0154428 0.00228285 -4.8308e-21)
(0.880242 -0.340726 0)
(0.411994 -0.0536108 8.59731e-24)
(0.288987 0.0288053 -4.8976e-21)
(0.31638 -0.117951 -2.41572e-21)
(0.7863 0.387176 3.13866e-21)
(0.88442 -0.393262 -8.41294e-22)
(-0.0196518 -0.00204656 -9.68014e-21)
(0.494294 0.26211 -8.56608e-21)
(0.707119 -0.144727 6.80447e-21)
(0.274579 -0.210132 4.33458e-23)
(0.931046 0.323614 -8.66618e-23)
(0.941661 -0.486527 -5.69739e-21)
(-0.015042 -0.0022785 2.70924e-21)
(0.690594 -0.388755 -3.41646e-23)
(-0.0144077 -0.00547403 8.85569e-21)
(0.718991 0.304804 9.57707e-22)
(0.317865 0.139011 4.58638e-21)
(0.368277 -0.223379 2.86705e-22)
(0.556245 -0.0574737 -1.2121e-20)
(0.440801 0.0231456 0)
(0.436821 -0.186006 1.19355e-20)
(0.210289 0.0110941 -6.18411e-21)
(0.857272 0.408294 -6.29877e-21)
(-0.0163802 -0.0134631 -6.10555e-21)
(0.986253 -0.407806 5.45646e-23)
(0.463348 0.0332084 0)
(0.45739 -0.205532 4.1287e-21)
(0.197569 0.0254375 8.75065e-21)
(0.389363 -0.0499068 -4.95812e-21)
(0.291118 0.0100546 5.17286e-21)
(0.316759 -0.100923 -1.27913e-21)
(0.289916 0.211108 4.52394e-21)
(0.74557 0.0241384 3.18023e-21)
(0.618328 -0.45971 -6.21573e-21)
(0.472802 -0.0242983 0)
(0.38266 -0.185669 0)
(0.253081 0.0676979 -7.27522e-22)
(0.491398 0.00179796 -6.11943e-21)
(0.426207 -0.211444 -3.19791e-21)
(0.23491 0.0664887 -1.02916e-22)
(0.530058 0.335718 -1.06148e-20)
(0.789411 -0.124314 5.067e-21)
(0.335867 -0.282415 7.19251e-21)
(-0.00759617 -0.0227722 -9.24344e-21)
(-0.0125346 -0.0191004 9.40889e-21)
(1.00119 -0.406259 -1.50112e-21)
(0.990461 -0.419968 -1.09687e-21)
(0.867745 0.40102 -5.50739e-21)
(0.878866 0.390699 8.25208e-21)
(0.92463 0.305554 -4.82479e-21)
(0.936736 -0.484803 3.67362e-21)
(-0.00853369 0.0022516 0)
(0.28827 -0.256759 -4.65433e-21)
(0.592265 0.381009 -2.17562e-21)
(0.849119 -0.151696 0)
(0.374913 0.201914 0)
(0.380148 -0.262929 4.4228e-21)
(0.634342 -0.0736361 -3.7193e-21)
(0.788979 0.0974159 0)
(0.733039 -0.499409 -3.92155e-21)
(0.178023 0.132374 -1.43806e-22)
(0.767539 -0.446223 -1.1788e-21)
(-0.0205759 -0.0105739 0)
(0.85329 0.307136 2.96936e-21)
(0.0223429 0.0292071 0)
(0.951621 0.242074 0)
(0.894018 -0.54392 -2.57414e-21)
(0.872225 0.382835 -2.04706e-21)
(-0.0230107 -0.00838552 0)
(0.944772 -0.432833 1.37141e-21)
(-0.0116501 -0.00315544 3.28783e-32)
(0.646957 -0.362419 1.50239e-22)
(0.660542 0.293929 -9.23175e-22)
(0.6789 -0.31787 -1.48417e-22)
(-0.0112181 0.00178602 -3.28007e-32)
(0.626259 0.336481 8.34e-22)
(0.808894 -0.437957 7.59074e-21)
(0.774079 0.198603 0)
(0.0607013 0.0307966 1.2545e-20)
(0.86115 -0.502287 7.91755e-22)
(-0.0168486 -0.0050262 0)
(0.960912 0.294565 0)
(0.825254 0.29389 4.78556e-21)
(0.904269 -0.422621 -3.92306e-21)
(0.0159649 -0.0121823 -6.48201e-21)
(0.813926 0.448876 -7.08329e-21)
(0.0129191 -0.0348655 -3.69279e-21)
(1.04174 -0.337165 0)
(0.500003 0.137913 -2.3326e-21)
(0.143161 -0.0458444 2.46015e-21)
(0.603106 -0.232269 -2.25052e-21)
(0.900468 -0.53342 0)
(0.00223187 0.0135806 -4.51164e-21)
(0.967357 0.265878 -1.31827e-21)
(0.770154 0.081785 3.6812e-21)
(0.200481 0.148682 2.57146e-21)
(0.70637 -0.486021 0)
(0.790044 -0.491502 0)
(0.804922 0.156828 0)
(0.09921 0.075953 -4.57252e-21)
(-0.00325158 0.000951684 0)
(0.386105 -0.191749 -4.20056e-22)
(0.378423 0.181975 -2.40755e-22)
(0.780304 -0.403439 -7.33401e-22)
(-0.0177548 -0.00377272 5.34945e-21)
(0.763901 0.351195 1.48339e-21)
(0.468182 0.114866 6.04826e-21)
(0.161083 -0.0468631 -5.86485e-21)
(0.558468 -0.21128 -2.6161e-21)
(0.915834 -0.502674 -4.60139e-21)
(0.954899 0.305008 2.24474e-21)
(-0.0142501 0.000622699 0)
(-0.00661372 0.00501779 4.71305e-21)
(0.979348 0.275553 0)
(0.880373 -0.527503 3.49276e-21)
(0.880921 0.361374 2.92878e-21)
(-0.00820696 -0.0185895 -1.41694e-20)
(0.975498 -0.427498 -4.78855e-21)
(0.0539756 -0.0727893 1.06125e-20)
(1.0038 -0.32118 -2.96991e-21)
(0.800747 0.421085 0)
(0.51177 0.341566 1.34167e-20)
(0.791051 -0.107954 -6.45751e-21)
(0.378119 -0.316886 6.81494e-21)
(0.917508 -0.246189 -1.02251e-21)
(0.699645 0.395785 -4.25884e-21)
(0.152783 -0.148339 6.51813e-21)
(0.0489938 -0.0702309 9.49992e-21)
(0.804902 0.448122 0)
(1.03767 -0.314567 1.79268e-21)
(0.523398 0.252689 2.15772e-21)
(0.563502 0.277129 0)
(0.70658 -0.180749 7.12223e-21)
(0.748602 -0.20135 -7.61547e-21)
(0.214922 -0.157934 -4.55455e-21)
(0.193386 -0.152631 0)
(0.491466 0.246263 2.10966e-21)
(0.689744 -0.155638 0)
(0.251967 -0.184797 -2.15242e-21)
(0.623898 0.370864 0)
(0.853643 -0.195139 6.13679e-21)
(0.223224 -0.198487 -1.50185e-21)
(0.825385 -0.50684 3.72682e-21)
(0.843381 0.176926 -3.32461e-21)
(0.0771674 0.0616284 9.9982e-21)
(0.924588 -0.506993 0)
(0.93494 0.294527 -7.5415e-22)
(-0.00618223 0.006349 0)
(0.0459738 0.0374101 3.22681e-21)
(0.85839 0.214133 2.04687e-21)
(0.859884 -0.497123 2.3973e-21)
(0.73016 -0.325617 -1.98075e-24)
(-0.0128987 0.00274162 -4.18622e-24)
(0.656233 0.355718 0)
(0.375443 0.154193 -4.18858e-21)
(0.385126 0.144945 0)
(0.289054 -0.172436 1.0625e-21)
(0.566155 -0.105673 -1.46204e-20)
(0.264258 -0.150414 -1.34448e-21)
(0.556214 -0.12203 9.34296e-21)
(0.567183 0.332036 0)
(0.524755 0.305102 1.37171e-21)
(0.286847 -0.230858 -1.78353e-23)
(0.796094 -0.167279 -4.03039e-21)
(0.259958 -0.213894 -1.09686e-20)
(0.757318 -0.146914 8.63565e-21)
(0.676095 -0.404572 0)
(-0.0157896 -0.00876194 -9.66945e-21)
(0.754549 0.292829 0)
(0.923837 -0.497954 2.91809e-21)
(0.947392 0.306644 -7.41319e-22)
(-0.0135353 0.000171978 -2.84397e-21)
(0.400027 0.239199 2.56374e-21)
(0.41709 -0.309688 4.99516e-21)
(0.683909 -0.0678658 -1.18083e-20)
(0.788842 -0.523353 -8.20239e-21)
(0.834427 0.134183 -8.50876e-21)
(0.130155 0.104393 0)
(0.0686282 -0.0854428 -1.13488e-20)
(0.995025 -0.308841 3.15927e-21)
(0.787383 0.420563 0)
(0.859368 -0.434946 0)
(0.850891 0.359588 0)
(-0.0227046 -0.00630963 0)
(0.872261 -0.451579 0)
(0.880587 0.350082 -3.08471e-21)
(-0.0240855 -0.00774134 0)
(0.665199 0.350853 4.1196e-21)
(0.861483 -0.245307 -2.17954e-21)
(0.148327 -0.135964 -3.09355e-21)
(0.272942 0.130764 1.20999e-21)
(0.450449 -0.276811 0)
(0.573578 -0.011563 -4.04765e-21)
(0.886538 0.371953 -3.41248e-21)
(-0.0119507 -0.0172955 -8.22421e-21)
(0.984229 -0.4284 6.8559e-21)
(0.821946 -0.460605 0)
(0.800022 0.201049 0)
(0.0582653 0.0394508 -1.08236e-20)
(0.0190069 -0.038887 -2.70452e-21)
(0.953356 -0.382167 -5.0799e-21)
(0.821165 0.356952 -9.89955e-21)
(0.499731 0.296374 -1.39732e-21)
(0.319448 -0.254065 7.34957e-21)
(0.742303 -0.129731 -4.46909e-21)
(0.649655 0.0749807 7.30788e-21)
(0.620067 -0.376011 -4.11945e-21)
(0.176489 0.0989175 -9.25631e-21)
(0.343648 0.1724 -7.90356e-23)
(0.385975 -0.256669 1.46445e-21)
(0.602774 -0.0623184 4.87221e-21)
(-0.016887 -0.0118087 3.208e-21)
(0.970845 -0.448162 -2.88445e-21)
(0.902362 0.361331 -3.55257e-21)
(0.770666 0.348772 1.86864e-21)
(0.924203 -0.341597 1.61144e-21)
(0.0495724 -0.0607099 0)
(0.326824 0.13145 4.54228e-21)
(0.337934 -0.196346 -9.30513e-21)
(0.542108 -0.0713243 8.00765e-21)
(0.807979 0.454701 -2.88683e-21)
(0.0373772 -0.0591566 -4.20049e-21)
(1.04824 -0.319579 -1.29464e-22)
(0.466964 0.202098 2.62521e-21)
(0.636639 -0.165249 0)
(0.221305 -0.148108 0)
(0.519814 0.0710943 1.08356e-20)
(0.534457 -0.260623 -2.53049e-21)
(0.16305 0.0300385 0)
(0.781884 -0.464698 0)
(0.778165 0.159083 -7.13278e-21)
(0.0911827 0.0653853 4.78901e-21)
(0.799482 0.429359 0)
(-0.00915904 -0.0118705 1.29746e-21)
(0.997136 -0.359657 -1.07766e-21)
(0.796568 0.43956 -2.62187e-21)
(-0.00285909 -0.0171279 -4.13575e-21)
(1.01541 -0.34629 1.38842e-21)
(0.025052 -0.04671 -2.45694e-21)
(0.966296 -0.368362 2.84435e-21)
(0.817405 0.372305 9.1167e-21)
(0.675465 0.062287 3.29139e-21)
(0.630548 -0.40405 8.27243e-21)
(0.198898 0.120518 0)
(-0.0117252 -0.00504675 -1.18854e-21)
(0.96621 -0.350995 1.01096e-21)
(0.763915 0.42225 0)
(0.00699594 -0.00873793 0)
(0.922022 -0.439241 3.01024e-21)
(0.853983 0.301696 1.11831e-21)
(-0.00863125 -0.00393998 -4.83751e-21)
(0.547303 -0.334599 -4.04019e-22)
(0.590596 0.243962 0)
(0.530142 0.312625 1.12426e-21)
(0.603533 -0.261978 0)
(-0.00831564 0.00400848 -4.83507e-21)
(0.0438362 -0.0650739 6.53008e-24)
(1.02408 -0.32754 3.28e-22)
(0.810397 0.435207 0)
(-0.023064 -0.00856308 0)
(0.946982 -0.457666 0)
(0.911282 0.360559 -4.38909e-21)
(0.857749 0.399476 3.09735e-21)
(0.850995 0.388792 -2.50566e-21)
(0.00156484 -0.0314279 4.64159e-21)
(1.00644 -0.388661 5.21356e-22)
(0.00541713 -0.0341271 0)
(0.99363 -0.388876 0)
(0.859826 0.284645 -2.18614e-21)
(0.911046 -0.45438 -2.05155e-21)
(0.00939372 -0.000474433 0)
(0.166343 0.131754 0)
(0.759248 -0.524998 0)
(0.822192 0.10989 0)
(0.378982 0.1125 -5.66723e-21)
(0.242364 -0.116111 1.29179e-20)
(0.516978 -0.129121 -5.16117e-21)
(0.846664 0.241174 -6.30519e-21)
(0.87366 -0.472506 -8.05154e-22)
(0.0281745 0.0194518 -9.50142e-21)
(0.041669 0.030312 -6.1806e-21)
(0.83867 0.223307 8.7689e-21)
(0.85562 -0.478376 1.11649e-21)
(0.789255 0.456277 -3.4719e-21)
(0.0715376 -0.0895493 -4.54163e-21)
(1.03565 -0.292694 0)
(0.580804 0.348522 0)
(0.817415 -0.16803 -1.8232e-21)
(0.261109 -0.221776 1.0752e-20)
(0.525559 0.284914 0)
(0.738029 -0.15738 -8.93437e-21)
(0.262267 -0.208779 1.06739e-23)
(0.765915 0.228806 8.5772e-21)
(0.828377 -0.415895 -1.03522e-21)
(0.0429032 0.00567059 5.46068e-21)
(0.785231 0.224413 0)
(0.833469 -0.433296 -9.80383e-22)
(0.0433653 0.0147767 -5.00499e-21)
(0.305664 0.107481 0)
(0.341921 -0.184779 1.4673e-20)
(0.511735 -0.0612214 0)
(0.574483 0.293758 0)
(0.765831 -0.199807 4.90976e-21)
(0.197904 -0.164192 -1.63729e-21)
(0.0124021 0.0215545 9.76942e-21)
(0.888305 -0.545297 5.72487e-21)
(0.97381 0.250584 0)
(0.899261 0.332137 6.42522e-23)
(-0.0231843 -0.00887666 -2.9727e-21)
(0.841488 -0.463632 -9.02987e-22)
(0.891011 0.312759 1.72302e-22)
(-0.0217747 -0.0102197 0)
(0.807691 -0.461795 2.49152e-21)
(0.419596 0.20996 -3.11131e-21)
(0.308861 -0.211453 1.58613e-21)
(0.636544 -0.113805 1.38816e-22)
(0.807403 -0.422367 -1.79991e-22)
(-0.0206799 -0.00643441 -1.22786e-20)
(0.823025 0.345206 0)
(0.794 0.371546 -7.96612e-21)
(0.0417487 -0.0584734 0)
(0.953942 -0.347594 0)
(-0.0195491 -0.00886505 4.87176e-21)
(0.760845 -0.432576 1.00241e-21)
(0.819417 0.316612 -2.21405e-21)
(0.415611 0.046233 -7.54289e-21)
(0.207098 -0.0205848 -7.85669e-21)
(0.450022 -0.166179 -3.3144e-23)
(0.626396 0.22438 1.31989e-21)
(0.743327 -0.293775 1.15907e-21)
(0.0932669 -0.0538528 4.97979e-21)
(0.588672 -0.387973 -9.51696e-21)
(0.663351 0.0398958 -1.19129e-20)
(0.230813 0.13988 0)
(-0.0152088 -0.00214124 0)
(0.881115 -0.507315 1.0702e-21)
(0.964804 0.296556 0)
(0.809073 -0.472475 0)
(0.802172 0.185428 0)
(0.0704608 0.0507204 0)
(0.0208734 -0.044527 0)
(0.820744 0.445679 2.56107e-21)
(1.04294 -0.337354 -1.69128e-21)
(0.665354 0.242215 0)
(0.776752 -0.317529 -5.92738e-22)
(0.0762663 -0.0458948 -2.89822e-24)
(0.365711 0.094314 5.47483e-21)
(0.246253 -0.10678 -1.10976e-20)
(0.492009 -0.122254 0)
(0.907598 -0.49748 4.34997e-21)
(0.948873 0.316992 -2.13273e-21)
(-0.0186324 -0.00337918 0)
(0.0048175 -0.0218769 5.63623e-21)
(0.943995 -0.419206 -1.89158e-22)
(0.847792 0.334277 -1.99449e-22)
(0.833519 0.411825 0)
(0.821977 0.409399 -2.35464e-21)
(-0.0158806 -0.00990788 -2.98424e-21)
(-0.0179238 -0.0067748 3.69183e-21)
(0.977615 -0.388951 7.82004e-22)
(0.957835 -0.391672 -6.43122e-22)
(0.631353 0.13963 0)
(0.672575 -0.349238 -7.90119e-21)
(0.106377 0.0271402 -6.07768e-21)
(0.776227 -0.418818 -1.0682e-20)
(0.741659 0.179015 0)
(0.0718595 0.0352101 6.64042e-21)
(0.482381 0.0844503 6.1546e-21)
(0.530965 -0.229003 -4.29855e-21)
(0.157354 -0.00682925 -9.60826e-21)
(0.867356 -0.481616 -2.32267e-21)
(0.928766 0.324419 -2.35523e-21)
(0.85201 -0.490524 1.04459e-21)
(-0.0225724 -0.00795123 3.14883e-21)
(0.940308 0.307626 2.20851e-21)
(-0.0201287 -0.00784632 0)
(0.742758 0.279365 0)
(0.851502 -0.364934 0)
(0.0444006 -0.0331275 -6.15459e-21)
(0.936712 0.33053 -2.55971e-21)
(0.92886 0.333262 6.51146e-21)
(0.915024 -0.484344 -1.51875e-21)
(0.897756 -0.47729 4.10171e-21)
(-0.0221693 -0.00603026 -8.31514e-21)
(-0.0234525 -0.00727022 9.28183e-24)
(0.721239 0.162242 0)
(0.747638 -0.419 1.01303e-20)
(0.0919022 0.0510405 -8.60969e-21)
(0.585993 0.161068 -5.74849e-21)
(0.696701 -0.306074 7.07118e-21)
(0.092675 -0.0232135 0)
(0.819067 0.440909 0)
(0.00233425 -0.0257082 -5.71872e-22)
(1.02884 -0.353537 -1.33385e-21)
(0.632689 0.158967 -4.2324e-21)
(0.691016 -0.338734 0)
(0.0938797 0.0117162 1.00529e-20)
(0.51724 0.109266 -2.49307e-21)
(0.579702 -0.258853 5.04409e-21)
(0.136997 -0.00860972 -5.56921e-21)
(0.8203 0.421243 0)
(-0.0112185 -0.0128598 0)
(0.998038 -0.376935 1.90088e-21)
(0.672967 0.263761 0)
(0.804557 -0.30887 -1.18679e-21)
(0.0759691 -0.0593944 6.10767e-21)
(0.691627 -0.493406 0)
(0.775298 0.0669896 0)
(0.229201 0.172461 3.30832e-22)
(0.499681 0.308333 3.43239e-22)
(0.754933 -0.118374 0)
(0.34063 -0.27573 -5.64533e-21)
(0.853657 -0.554095 -4.15943e-21)
(0.0732983 0.0667502 0)
(0.912934 0.186616 0)
(-0.00625851 0.00049717 1.16278e-20)
(0.511805 -0.25755 5.88308e-22)
(0.49917 0.241976 3.37188e-22)
(0.648771 0.197402 0)
(0.729696 -0.327441 -4.33682e-21)
(0.0790142 -0.0185626 0)
(0.845143 0.423327 -4.87688e-21)
(-0.000454896 -0.0275051 -1.56447e-20)
(1.02109 -0.373094 3.49139e-21)
(0.453009 -0.364621 0)
(0.760025 -0.0664759 4.31953e-21)
(0.441039 0.300967 0)
(0.635337 0.368968 0)
(-0.0133593 0.00522938 2.87018e-21)
(0.771808 -0.314105 0)
(0.221288 0.0867794 -5.96837e-21)
(0.233158 0.106598 6.10265e-21)
(0.474841 -0.26832 0)
(0.541596 0.0160109 -5.14586e-21)
(0.492954 -0.294036 9.32552e-21)
(0.570863 0.0123567 4.10303e-21)
(0.4835 0.0631951 -5.79339e-21)
(0.503566 -0.226763 -5.7949e-21)
(0.172591 0.0139513 0)
(0.284832 0.123088 -5.28492e-21)
(0.251994 0.09972 0)
(0.406392 -0.241469 0)
(0.548622 -0.0329169 0)
(0.42453 -0.239136 5.38318e-21)
(0.529117 -0.0127529 -2.93138e-23)
(0.618195 0.185291 -3.62843e-22)
(0.658737 -0.298567 3.12718e-21)
(0.106025 -0.0108561 6.85378e-21)
(0.592203 0.148522 9.89129e-21)
(0.658136 -0.309781 0)
(0.107805 0.00264947 0)
(-0.0201171 -0.0101904 0)
(0.809603 -0.480376 0)
(0.921683 0.300248 -2.00614e-21)
(0.454394 0.220747 8.56001e-21)
(0.653118 -0.137104 0)
(0.269147 -0.187228 -2.93627e-21)
(0.92563 0.342385 5.95713e-21)
(0.938564 -0.475275 -2.0196e-21)
(-0.0223627 -0.00655467 4.7455e-21)
(0.780471 0.255458 0)
(0.809514 0.270322 -4.60676e-21)
(0.856266 -0.409666 1.29069e-21)
(0.881227 -0.423248 -3.87672e-21)
(0.0314594 -0.00522372 6.77118e-21)
(0.022438 -0.00501955 6.25622e-21)
(0.442857 0.198859 0)
(0.627482 -0.143791 0)
(0.252531 -0.168466 -1.39789e-21)
(0.61236 0.335497 -3.32368e-21)
(0.818583 -0.204835 0)
(0.202043 -0.173109 -3.58465e-21)
(0.721886 0.237976 2.4548e-21)
(0.8092 -0.37408 0)
(0.0488564 -0.0135219 -6.22743e-21)
(0.317756 0.0476511 -5.91778e-21)
(0.433082 -0.0831333 -2.85093e-21)
(0.282755 -0.107276 -2.98959e-21)
(0.822591 0.246636 0)
(0.867739 -0.450724 0)
(0.0286785 0.0118645 1.01033e-20)
(0.356371 0.115981 0)
(0.274324 -0.142254 -1.62642e-21)
(0.518647 -0.106477 0)
(0.714962 0.179088 5.54702e-21)
(0.756644 -0.401984 5.63752e-21)
(0.0759976 0.0261661 8.62869e-22)
(0.610597 0.316675 -3.36333e-21)
(0.803725 -0.217013 -5.59494e-21)
(0.179962 -0.15527 0)
(0.324879 0.070668 5.86461e-21)
(0.307512 0.0733654 2.61784e-21)
(0.461008 -0.0910432 -2.77514e-21)
(0.281378 -0.121799 5.92442e-21)
(0.468374 -0.0750277 0)
(0.307003 -0.144058 1.05263e-20)
(0.275389 0.0889648 2.64188e-21)
(0.368981 -0.196853 -6.83177e-21)
(0.254998 0.0883441 -1.69989e-21)
(0.498568 -0.039225 0)
(0.414462 -0.225876 -3.45017e-21)
(0.513443 -0.0171018 5.88633e-21)
(0.51233 0.232532 -3.10964e-21)
(0.548155 0.241023 0)
(0.683792 -0.187409 -5.37838e-21)
(0.707246 -0.213373 4.19845e-21)
(0.199229 -0.140559 1.31711e-20)
(0.167772 -0.118394 -1.09584e-20)
(0.0432065 -0.0637158 0)
(0.988651 -0.337367 1.70373e-21)
(0.805305 0.402852 4.63083e-21)
(0.251705 0.183377 -1.11907e-20)
(0.747588 0.0471303 -5.01452e-21)
(0.652244 -0.466788 9.76296e-21)
(0.0276353 -0.051927 5.30185e-21)
(0.0184386 -0.0443913 0)
(0.999426 -0.355624 -1.47373e-21)
(0.988049 -0.371359 -2.60039e-21)
(0.823391 0.407304 -1.17391e-20)
(0.832745 0.391698 6.08476e-21)
(0.348618 0.227787 0)
(0.50131 -0.366409 5.41182e-21)
(0.694486 -0.0260697 -1.16432e-21)
(0.323828 0.00743684 -1.24584e-20)
(0.284965 -0.0693849 0)
(0.382559 -0.0777659 9.76968e-21)
(0.832007 0.266906 2.16831e-21)
(0.887121 -0.445199 4.37696e-21)
(0.0196295 0.00304071 0)
(0.401341 0.174544 0)
(0.281494 -0.182995 1.33194e-21)
(0.594338 -0.116726 4.72823e-21)
(0.633268 0.323585 0)
(0.822018 -0.232946 0)
(0.15941 -0.139788 8.61367e-22)
(0.769345 0.402282 0)
(0.768062 0.385935 0)
(0.967953 -0.305501 -9.88357e-22)
(0.0783118 -0.0906167 6.52327e-21)
(0.953375 -0.314107 2.69161e-21)
(0.0699161 -0.0820309 -8.83311e-21)
(0.771176 0.281586 -4.61567e-21)
(0.871627 -0.383983 -4.1505e-21)
(0.0318847 -0.0236446 -2.94661e-21)
(0.697392 0.380349 -2.28303e-21)
(0.827062 -0.342563 0)
(-0.0157 0.00273473 3.53322e-21)
(0.476862 -0.373716 0)
(0.737765 -0.0499103 -3.51416e-21)
(0.40639 0.274858 0)