/*--------------------------------*- C++ -*----------------------------------*\
  =========                 |
  \\      /  F ield         | OpenFOAM: The Open Source CFD Toolbox
   \\    /   O peration     | Website:  https://openfoam.org
    \\  /    A nd           | Version:  6
     \\/     M anipulation  |
\*---------------------------------------------------------------------------*/
FoamFile
{
    version     2.0;
    format      ascii;
    class       volVectorField;
    location    "0";
    object      U_rec;
}
// * * * * * * * * * * * * * * * * * * * * * * * * * * * * * * * * * * * * * //

dimensions      [0 1 -1 0 0 0 0];

internalField   nonuniform List<vector> 
918
(
(0.992083 -0.00120572 0)
(-0.022517 3.0051 0)
(0.00289981 1.73269 0)
(0.984269 0.00411568 0)
(-0.0180699 1.68936 5.36223e-17)
(0.0127587 2.99868 5.08691e-18)
(1.01309 1.48167 9.96103e-18)
(0.496642 0.277179 4.28582e-19)
(1.00303 0.000689956 0)
(0.0251262 1.70663 0)
(0.000243155 1.69208 0)
(0.920352 0.00557485 0)
(-0.00565271 2.99102 0)
(0.000867259 2.8832 0)
(0.00135113 2.95953 2.60145e-17)
(0.00470641 1.67466 3.30828e-17)
(0.684384 0.15522 -1.47665e-17)
(0.207367 1.97767 -2.92375e-17)
(0.992358 0.0160174 0)
(-1.77276e-05 1.69169 0)
(0.0205897 0.0614899 1.41554e-17)
(0.995467 0.0109179 0)
(1.00728 0.00971478 0)
(1.0039 0.00516354 0)
(0.857288 -0.0115203 0)
(0.00749967 2.91024 0)
(-0.00161199 2.93755 -9.80533e-17)
(-0.00413946 1.743 0)
(0.00776892 1.76413 0)
(-0.0107142 1.75159 0)
(-0.0101654 1.78754 0)
(-0.00396342 1.70966 5.29458e-17)
(-0.0105627 1.67443 0)
(0.0281159 3.01214 1.75838e-21)
(0.0124933 3.0264 -7.74798e-17)
(0.021541 3.02308 0)
(0.959665 0.00609051 0)
(0.404627 0.774852 -1.59695e-17)
(0.976265 1.52858 -2.2243e-17)
(1.10268 1.28691 3.34388e-17)
(0.84005 1.72407 7.51789e-18)
(0.871839 1.68801 2.16494e-17)
(0.528869 0.336685 -1.39835e-19)
(0.557895 0.259398 0)
(1.2617 0.647772 0)
(0.461596 0.338356 -8.12293e-19)
(0.448746 0.258163 1.74249e-18)
(0.953641 0.00028786 0)
(0.998056 0.0017128 0)
(1.0029 0.00208217 0)
(0.99119 0.0055932 0)
(0.985489 0.0061003 0)
(1.00352 0.0102515 0)
(0.0228677 1.59036 1.26629e-17)
(0.0347211 1.79217 0)
(0.0678168 1.75109 0)
(-0.00435984 1.7628 0)
(-0.00862562 1.69173 0)
(-0.00243538 1.67208 0)
(-0.00301574 1.72978 0)
(-0.00911501 1.69006 0)
(-0.00541613 1.73368 0)
(0.00376945 1.6879 0)
(0.989276 0.0147881 0)
(0.952903 0.0118448 0)
(0.936402 0.0014151 0)
(0.939648 0.0222771 0)
(0.902483 0.019866 0)
(-0.0104525 3.05182 1.16958e-17)
(-0.0128216 2.98256 0)
(-0.0327449 3.04778 0)
(0.0126586 3.04389 -1.92095e-22)
(-0.0093397 3.01936 5.39682e-17)
(0.0207902 3.01412 0)
(0.0103173 2.95157 0)
(0.000254134 2.95915 -4.2532e-23)
(0.00538344 2.8862 0)
(0.0174657 2.96643 0)
(0.00116922 2.86878 0)
(0.299119 3.27331 0)
(-0.0662956 3.35354 0)
(0.116564 3.02273 -2.03331e-18)
(0.00337058 2.83084 0)
(-0.0010375 1.7521 0)
(-0.000393265 1.71949 3.00338e-17)
(0.00149402 1.68695 3.34121e-17)
(0.709848 0.17864 9.05222e-19)
(0.707223 0.115951 7.30951e-18)
(0.696866 0.207033 3.47953e-17)
(0.668078 0.179794 1.49851e-18)
(0.192915 1.39981 0)
(0.320189 2.05737 -4.67369e-17)
(0.453684 2.00481 -2.68682e-17)
(0.998232 0.0126367 0)
(0.968014 0.0248774 0)
(1.0018 -0.00535711 0)
(1.00219 0.00274186 0)
(1.00783 0.018871 1.97422e-16)
(0.999857 0.00926897 6.2373e-17)
(-0.00276782 1.72527 0)
(-0.00174668 1.69104 0)
(0.00681051 1.75628 0)
(-0.0140023 1.73484 0)
(0.00305345 1.70234 0)
(0.0544599 0.275416 -5.25808e-18)
(0.222936 0.202706 0)
(1.01022 -0.00880047 0)
(0.993278 0.0035625 0)
(0.912392 0.0212682 0)
(0.894517 0.0210857 0)
(0.891428 -0.00118564 0)
(1.11234 0.00954081 0)
(0.854908 0.0418322 0)
(0.79425 0.0412481 -5.1966e-18)
(-0.0332619 2.88154 8.20292e-18)
(-0.00087719 2.97444 0)
(-0.051342 3.01684 0)
(-0.00783282 2.86149 0)
(-0.00319965 2.98449 -4.34541e-17)
(0.00294036 2.9304 0)
(-0.00742027 2.98669 2.28155e-17)
(-0.0119348 2.94757 1.02191e-17)
(0.00688729 1.76206 0)
(0.00256257 1.75636 0)
(0.00911752 1.71886 2.41352e-20)
(-0.005145 1.71607 0)
(0.00388215 1.67584 0)
(0.984712 0.00859935 0)
(0.965849 0.00764149 0)
(0.950979 -0.00883349 0)
(0.980456 0.00300337 0)
(0.953863 -0.0089391 0)
(0.47287 1.02485 2.19863e-18)
(0.535469 1.10311 0)
(0.474128 0.8111 -1.98912e-18)
(0.415399 0.539466 0)
(1.07958 1.31851 1.30085e-17)
(1.18189 1.06611 1.06544e-17)
(0.507309 2.02644 0)
(0.684499 1.90246 0)
(0.694449 1.88178 0)
(0.512367 0.991687 -2.1003e-18)
(0.594343 0.302164 0)
(0.605328 0.236527 -6.66842e-18)
(1.15482 1.11224 0)
(1.20903 0.897077 0)
(1.2304 0.858362 -1.12214e-17)
(1.26861 0.69694 0)
(1.29706 0.497989 -2.69764e-17)
(0.983164 -0.000637945 0)
(0.972894 0.00198559 0)
(0.955419 0.0056753 0)
(0.998019 -0.000884035 0)
(0.978829 -0.00356614 0)
(0.968879 0.00190382 0)
(0.992881 -0.00189474 0)
(0.990077 -0.000183219 0)
(1.00359 -0.00129425 0)
(0.022077 1.58988 2.32078e-17)
(0.0238274 1.53943 0)
(0.0239989 1.6402 -1.16514e-17)
(0.0114881 1.6362 1.14507e-17)
(0.154548 1.97094 -4.45338e-17)
(0.058199 1.83984 0)
(0.0899506 1.85752 0)
(-0.00255093 1.75811 0)
(0.00591305 1.68505 0)
(-0.00575537 1.70175 6.77885e-20)
(0.00119147 1.66834 0)
(0.00409114 1.70956 -2.79276e-17)
(0.00108266 1.67728 -6.71515e-18)
(0.00316002 1.74632 0)
(-0.0103059 1.73661 0)
(-0.00372654 1.6879 0)
(0.0040343 1.73276 0)
(0.00527913 1.69637 0)
(1.02294 0.00825585 0)
(0.996024 -0.00533552 0)
(1.00074 0.0144949 0)
(0.976581 0.00976062 0)
(0.943846 0.00523075 0)
(0.967676 0.00828806 0)
(0.967343 0.00311128 0)
(0.942969 -0.0055929 0)
(0.00633718 3.04622 1.53581e-19)
(0.0151061 3.03629 0)
(0.0143909 2.98876 0)
(0.00917476 2.92704 0)
(0.986604 3.79676 0)
(1.31644 2.84774 1.46896e-18)
(0.0221991 2.9091 0)
(-0.0180811 2.81119 0)
(0.000109194 1.74855 0)
(-0.00367946 1.74502 0)
(-0.00373736 1.74632 0)
(-0.00770103 1.77846 -7.13549e-17)
(-0.00608571 1.76232 0)
(0.000517384 1.76883 0)
(0.00889312 1.68334 -6.32643e-17)
(0.00135884 1.71773 -3.39639e-17)
(-0.00851366 1.71951 2.95388e-17)
(-0.0067938 1.68118 0)
(0.745481 0.13457 -2.57295e-17)
(0.728694 0.0674536 -2.5385e-18)
(0.194347 1.40323 0)
(0.262422 1.34456 2.55301e-18)
(0.129342 1.44276 -1.88691e-17)
(0.113913 1.43877 -3.56657e-17)
(0.937572 0.00378372 0)
(0.977259 0.00334504 0)
(0.983331 0.0221338 0)
(0.950289 0.0128498 0)
(0.00584053 1.735 0)
(0.00573489 1.72746 0)
(0.00540934 1.69348 0)
(0.377184 0.344989 -9.77916e-18)
(0.256675 0.33097 1.08365e-17)
(0.362126 0.231316 0)
(1.20505 0.0988212 -1.62519e-18)
(1.20502 0.0523356 0)
(1.1136 0.053758 0)
(1.05053 0.00760605 0)
(0.765658 0.0957806 0)
(0.786714 0.08564 7.16091e-17)
(0.756034 0.0502753 -3.52654e-17)
(-0.0182772 2.96259 -4.34815e-17)
(-0.0154573 2.91 -5.38075e-17)
(0.00684162 3.0303 3.1177e-19)
(0.040077 3.01481 -4.30821e-17)
(-0.0165665 2.99497 -5.7713e-19)
(-0.0198153 2.97559 2.29265e-21)
(-0.0196044 3.0358 4.15963e-18)
(-0.000196484 2.99525 -1.28019e-17)
(0.065288 3.02395 -1.8734e-17)
(1.00296 0.00667299 0)
(0.997774 0.0101447 0)
(0.976408 0.00558011 0)
(0.972588 0.00272711 0)
(0.974637 -0.00739349 0)
(0.9451 -0.0102933 0)
(0.972745 0.00504761 0)
(0.971709 -0.00307919 0)
(0.945521 -0.00433593 0)
(0.645151 1.31279 1.10041e-17)
(0.764583 1.41833 0)
(0.445809 0.627938 2.32503e-19)
(0.559556 0.851672 -1.15609e-17)
(0.544532 0.79476 -6.44338e-18)
(0.400483 0.510749 -2.73809e-17)
(0.474484 1.17 -1.57314e-17)
(0.500705 1.13875 1.53371e-17)
(0.667235 0.252657 -2.18518e-17)
(0.624206 0.280078 -6.12706e-18)
(0.630564 0.221998 -1.22832e-18)
(1.30046 0.514066 -1.53542e-17)
(1.30359 0.302416 1.25382e-17)
(0.00201557 1.67337 -3.59147e-17)
(-0.00652746 1.6534 0)
(1.06167 0.0298208 0)
(1.02807 0.0165803 0)
(1.02171 0.0060204 0)
(0.0114332 3.05184 0)
(0.0111067 2.96337 -5.02575e-17)
(0.0120562 2.97634 0)
(0.00724953 2.90466 -4.33218e-18)
(0.00735666 3.06195 1.01317e-17)
(0.00681635 3.05933 0)
(0.729587 1.68228 -5.58393e-18)
(1.17285 2.35664 -9.90466e-19)
(0.820979 1.80812 -2.24878e-17)
(-0.0292103 2.92813 4.30628e-17)
(-0.0182125 2.89724 0)
(-0.0304931 2.84471 0)
(-0.0132652 1.70241 6.28101e-17)
(0.0119556 1.70584 5.23627e-18)
(-0.00554072 1.66669 6.27256e-17)
(0.248408 1.35437 -2.14129e-17)
(0.32267 1.31638 -7.08372e-18)
(0.0318232 1.54715 -3.55927e-17)
(0.0742727 1.49721 -2.01349e-17)
(0.0497794 1.48799 -5.6691e-17)
(-0.0298467 3.07362 1.44475e-16)
(-0.0176403 3.0708 6.50002e-17)
(0.00332863 2.98854 1.12198e-17)
(-0.00339007 2.985 -1.0427e-17)
(0.00401308 2.93627 4.36039e-17)
(0.0137965 3.06951 -5.25888e-17)
(-0.00877364 3.05724 -1.53194e-16)
(0.530169 1.08172 0)
(0.569436 0.961688 1.26099e-17)
(0.506453 0.816815 -2.33089e-17)
(0.420975 1.25229 2.0496e-17)
(0.439011 1.22019 3.65524e-17)
(1.28527 0.20631 -6.59746e-18)
(1.3149 0.350957 0)
(1.28606 0.179708 6.37404e-18)
(-0.00105727 1.70162 7.23092e-20)
(-0.00442697 1.68903 0)
(-0.000673129 1.6621 0)
(0.298912 1.32941 3.32857e-18)
(0.357873 1.29572 -2.50944e-17)
(0.390035 1.29036 -3.80577e-17)
(1.00225 -0.0306608 0)
(0.999363 -0.0113374 -7.32717e-19)
(0.00290182 1.76411 0)
(-0.0101709 1.78569 0)
(1.0053 -0.00204967 4.49324e-19)
(1.00931 -0.00165738 -9.83466e-18)
(-0.0076754 1.77336 -7.02811e-17)
(-0.00396978 1.78063 0)
(-0.00729549 2.99233 1.09063e-17)
(0.352134 3.09858 0)
(1.12751 0.691163 -2.0201e-17)
(1.00246 0.00423921 7.91096e-17)
(1.00181 0.00553017 0)
(1.01012 -0.00644197 3.31767e-19)
(0.0266406 1.86422 0)
(0.0595026 1.65617 0)
(0.00670577 1.78977 0)
(0.023758 1.7468 -7.407e-17)
(0.00589002 1.74329 6.68316e-17)
(0.985905 0.0209439 7.75389e-17)
(1.03008 0.0090684 0)
(1.05213 0.0345336 0)
(0.00329676 1.75696 0)
(0.00894609 1.75885 0)
(-0.00855778 1.77297 0)
(0.189087 1.94951 -8.4216e-17)
(1.00485 -0.0239569 0)
(0.999985 -0.027593 0)
(1.00199 0.00118808 -3.52711e-17)
(0.991983 -0.00606067 4.36098e-17)
(1.00229 -0.00476102 0)
(0.00126258 1.74056 0)
(0.00757183 1.75812 0)
(0.00754511 1.74173 0)
(-0.00370152 1.78045 0)
(-0.0139312 1.76964 0)
(-0.00948409 1.77302 0)
(1.01249 0.00163134 0)
(1.00481 0.00837079 7.92706e-17)
(0.735531 1.4097 6.07137e-18)
(1.00364 -0.00566776 3.56036e-17)
(0.994752 0.00222885 -4.33942e-17)
(1.0077 0.00600332 0)
(0.997151 0.0105883 1.77863e-17)
(1.00046 0.00469848 6.5238e-17)
(0.99465 0.00184712 0)
(0.00796914 1.7692 0)
(-0.00297777 1.77118 -3.71925e-17)
(-0.00511405 1.77065 -3.08912e-17)
(1.1343 0.254386 -7.99154e-17)
(1.08533 0.0817453 0)
(-0.21004 2.97166 4.41191e-17)
(-0.224216 3.18271 1.7131e-18)
(0.00911962 3.02138 1.99158e-17)
(-0.0143758 2.98851 4.11426e-17)
(0.0755212 2.99041 0)
(-0.026553 3.03177 6.90204e-18)
(-0.0647655 3.12623 5.05987e-18)
(-0.0671517 3.02208 2.73387e-17)
(-0.0533608 3.0972 0)
(0.648475 0.347012 0)
(0.535919 0.383995 0)
(1.04511 0.78964 1.43695e-17)
(1.04614 0.882216 5.26107e-17)
(1.14566 0.61672 0)
(1.14942 0.574674 0)
(1.00821 -0.00149735 4.32527e-17)
(1.01059 -0.000148381 -5.10573e-17)
(1.00921 0.00604623 0)
(1.01394 0.00584951 0)
(1.01431 0.00469666 0)
(1.01128 0.0148909 0)
(1.0188 -0.00521118 0)
(1.01316 0.0161959 0)
(1.01109 0.0144274 0)
(1.00507 0.00894288 0)
(0.028227 1.85703 0)
(0.00250066 1.854 0)
(0.0773417 1.88642 0)
(0.0478387 1.90708 0)
(0.0458169 1.63777 0)
(0.0277994 1.62678 3.74858e-17)
(0.0679713 1.66917 0)
(0.0437046 1.66756 2.63397e-17)
(0.0290052 1.70382 -5.93213e-17)
(-0.000270795 1.79402 0)
(0.0067566 1.78811 0)
(0.0134617 1.79864 0)
(0.00434193 1.8207 0)
(0.0210009 1.76532 -6.64854e-17)
(-0.016074 1.74002 -4.86263e-17)
(0.0232683 1.75031 3.06187e-17)
(0.00381286 1.75789 0)
(0.0319707 1.74965 3.53553e-17)
(0.0178958 1.75517 -6.29729e-17)
(-0.0106466 1.77707 -1.09709e-16)
(-0.00996449 1.72907 -3.94579e-17)
(0.0170247 1.7433 4.14219e-17)
(0.989681 0.024256 -3.51285e-17)
(0.995807 0.00833233 4.60713e-17)
(0.985875 0.0230103 3.89072e-17)
(0.971191 0.0152561 -4.3995e-17)
(1.03142 0.00493984 0)
(1.03601 -0.00457245 0)
(1.0449 0.0307647 0)
(1.03344 0.0155086 0)
(1.04941 0.0163006 0)
(1.07101 0.0706271 0)
(1.06172 0.05376 0)
(1.0772 0.0410142 0)
(-0.00747014 1.78018 9.37633e-18)
(0.00749067 1.75036 0)
(-0.0209178 1.7602 0)
(0.00797118 1.76013 -1.50392e-17)
(0.0125766 1.76529 7.02087e-20)
(0.0104186 1.7633 3.97406e-17)
(-0.00667782 1.74902 4.28117e-17)
(0.000779817 1.76305 0)
(-0.0271662 1.76543 0)
(-0.003252 1.75888 0)
(0.000968199 1.77531 0)
(-0.00326293 1.78298 0)
(0.323547 1.94975 -3.87343e-17)
(0.334863 1.94464 4.34265e-17)
(0.264502 1.48174 1.82404e-18)
(0.120453 1.54532 2.17002e-17)
(0.218097 1.64895 3.14538e-17)
(1.0015 -0.00422058 0)
(0.994698 -0.0207398 0)
(0.994026 -0.0184849 0)
(1.02457 -0.00410024 0)
(1.00262 -0.01226 0)
(0.991825 -0.0123477 0)
(0.995181 -0.0140251 0)
(0.995218 0.00498538 0)
(1.00294 0.00724837 -3.69651e-17)
(1.01094 0.00367121 4.94663e-17)
(1.00395 0.00684391 4.08735e-17)
(1.00296 0.00132551 -4.7907e-17)
(0.670976 1.56694 0)
(0.613211 1.65227 -6.14977e-17)
(0.820197 1.32418 7.44175e-17)
(0.890321 1.24718 5.13414e-17)
(0.836027 2.10837 -4.78364e-17)
(0.82767 0.116422 -2.95734e-17)
(1.09757 0.123714 0)
(1.12773 0.190549 -6.79353e-17)
(1.14822 0.137837 9.83724e-19)
(0.951832 0.121328 0)
(-0.0547974 2.68595 3.5044e-17)
(-0.335225 2.60442 8.76372e-17)
(-0.75677 2.68443 -6.59198e-18)
(-0.594309 0.27541 -5.15996e-18)
(0.247217 3.07626 -2.07817e-17)
(0.101769 3.02078 0)
(0.187721 3.04696 1.26224e-18)
(0.060232 2.7293 1.04419e-16)
(0.257 2.78908 0)
(-0.0177319 3.06189 -1.29334e-18)
(-0.0344765 3.06295 -1.11432e-17)
(-0.00579988 3.10306 -4.33983e-17)
(-0.0233508 3.11112 0)
(-0.0504821 3.05293 0)
(1.0299 2.22548 0)
(0.579433 0.97009 5.41081e-17)
(0.987137 1.05733 -3.89304e-17)
(0.947745 1.17074 0)
(0.775674 1.0748 -8.33461e-18)
(1.0244 0.991556 -5.76362e-17)
(0.190991 0.425954 1.22852e-17)
(0.658527 0.344382 1.12624e-17)
(0.691721 0.314592 5.07792e-18)
(0.479386 0.457186 -3.92726e-19)
(0.4497 0.40536 1.99987e-17)
(0.611017 0.390522 0)
(0.611592 0.47136 -9.8576e-19)
(0.623526 0.424256 0)
(0.544017 0.414091 0)
(0.591661 0.373098 0)
(0.72641 0.643587 2.21832e-17)
(1.16472 0.326546 5.5733e-17)
(1.15667 0.464647 0)
(1.18562 0.390759 0)
(0.765232 0.233499 8.00367e-18)
(0.744529 0.609292 4.05188e-17)
(0.643173 0.541007 -2.31534e-18)
(0.871494 0.435714 -5.9473e-17)
(1.00985 -0.00263097 1.0732e-17)
(1.01043 0.00319889 6.45923e-17)
(1.01123 0.00160317 0)
(1.01113 0.0110776 0)
(1.00879 0.00272635 -1.07918e-17)
(1.01047 -0.000468506 -6.12937e-17)
(1.00279 -0.00495205 0)
(0.99307 0.00168091 0)
(1.01419 0.00416888 0)
(1.01141 -0.00352772 0)
(1.01331 0.00837911 0)
(1.01218 0.00385562 0)
(0.0108963 1.84847 0)
(0.0143206 1.84312 0)
(0.082664 1.86387 -4.18301e-17)
(0.161815 1.95131 -3.29506e-17)
(0.09289 1.94633 8.11918e-17)
(0.087783 1.96143 1.85942e-17)
(0.114664 1.86961 0)
(0.125735 1.74173 7.4619e-17)
(0.0918136 1.74935 0)
(0.1816 1.65175 3.92868e-17)
(0.165564 1.58491 -5.06156e-17)
(0.134133 1.77799 5.94695e-17)
(0.182236 1.86159 -3.4223e-17)
(0.13201 1.86172 -4.17767e-17)
(0.186857 1.82268 3.52178e-19)
(0.146853 1.74682 0)
(0.179387 1.73132 -5.59778e-17)
(0.0388875 1.73339 7.6388e-18)
(0.0218032 1.68588 0)
(0.0282275 1.68976 -7.42356e-17)
(0.0306356 1.69636 0)
(0.0386645 1.67037 3.63179e-17)
(0.0168995 1.67569 0)
(0.0254737 1.75264 5.48047e-17)
(0.0415377 1.76328 0)
(0.0276958 1.77229 0)
(0.0155713 1.77708 4.46652e-17)
(0.000789869 1.73134 -1.09783e-16)
(0.0348763 1.72231 -7.19935e-17)
(0.00745925 1.73814 -5.6324e-20)
(-0.00425948 1.74799 6.93781e-17)
(-0.0161919 1.77203 -3.81134e-17)
(0.00273737 1.78354 0)
(-0.0144113 1.78772 0)
(0.0263284 1.76221 2.19784e-17)
(0.0206053 1.78342 1.79606e-17)
(0.0331771 1.76384 6.41045e-17)
(0.0312629 1.75658 0)
(0.0148444 1.74466 9.97806e-17)
(0.00122475 1.74574 1.39225e-17)
(0.00689094 1.75283 -1.74725e-17)
(0.00312661 1.76417 7.52178e-17)
(0.021778 1.72527 -2.68709e-18)
(0.0104663 1.73643 -4.59857e-17)
(0.999492 0.00390607 6.28123e-17)
(0.997532 0.00382028 1.18419e-17)
(0.999869 0.00213738 0)
(0.979114 0.0695183 -8.77207e-17)
(0.962605 0.0378769 3.85507e-17)
(0.938856 0.0244443 -3.3553e-17)
(0.976397 0.0942394 4.56468e-18)
(1.02268 0.0128199 0)
(1.02753 0.00954289 -6.14789e-17)
(1.03062 0.00782027 -1.20932e-17)
(1.01527 0.0411411 4.11371e-18)
(1.01894 0.0254373 -1.79516e-17)
(0.992801 0.0332824 0)
(0.980183 0.0317039 3.15967e-18)
(0.999041 0.0257329 0)
(0.992555 0.0300989 0)
(1.00412 0.0135555 0)
(1.00091 0.00329517 0)
(0.994799 0.0197596 -2.28548e-18)
(0.99489 0.0246197 4.15394e-17)
(0.998829 0.0299294 1.07811e-18)
(0.978316 0.0208429 1.67316e-17)
(0.991127 0.0632685 1.16495e-17)
(1.03772 0.0559734 0)
(1.03652 0.0994075 0)
(0.0256254 1.75861 -4.78733e-17)
(0.0280858 1.73436 -6.31078e-19)
(0.0143585 1.74515 0)
(0.0175997 1.77071 -5.22046e-17)
(0.00431011 1.78079 8.10703e-18)
(0.0120038 1.76722 -3.39911e-18)
(0.00818489 1.7539 -7.50826e-17)
(0.0125533 1.7484 2.18387e-20)
(0.0134075 1.74768 -5.56102e-18)
(0.00213368 1.75176 3.33731e-17)
(0.00231307 1.75718 2.95044e-17)
(0.0100654 1.75126 -2.16117e-17)
(0.0129877 1.75277 -3.81543e-17)
(0.282866 1.82744 1.83973e-17)
(0.246936 1.79656 -1.62361e-17)
(0.568642 1.77325 -8.48792e-17)
(0.443671 1.91446 3.26977e-17)
(0.482302 1.84204 0)
(0.287264 1.47231 -5.55862e-18)
(0.308006 1.45101 -2.93781e-18)
(0.17803 1.52201 -6.91231e-18)
(0.175972 1.54504 -2.15394e-17)
(0.245695 1.53876 -3.39224e-17)
(0.253023 1.50619 0)
(0.184723 1.52226 -7.59855e-18)
(0.0634946 1.5973 -1.02209e-17)
(0.0978027 1.56511 5.79954e-17)
(0.0282467 1.56922 1.98794e-17)
(0.693376 1.41335 -4.43656e-17)
(0.50144 1.41343 0)
(1.02589 -0.00116083 -8.30296e-19)
(1.00859 0.00689164 7.87151e-19)
(1.01422 0.0117482 2.24235e-18)
(1.02219 0.00797321 -2.43333e-17)
(1.02385 0.00192919 0)
(0.468163 1.43969 0)
(0.40258 1.33462 0)
(0.637453 1.17599 0)
(0.49431 1.14844 0)
(0.824532 2.09769 2.71834e-17)
(0.818485 1.87902 0)
(0.461371 2.10779 -1.14771e-18)
(0.45232 1.71965 0)
(0.497789 1.80254 7.8886e-17)
(0.53165 1.87015 5.64913e-17)
(0.827385 0.152352 0)
(0.811594 0.165863 -3.55988e-18)
(0.899792 0.119264 -8.40355e-18)
(0.836178 0.110785 -2.08855e-17)
(0.836728 0.0862323 1.81377e-17)
(0.998927 0.237922 -2.43474e-18)
(0.88864 0.313095 2.67948e-17)
(0.818834 0.290526 8.72878e-18)
(0.924065 0.235216 -2.22736e-18)
(0.904392 0.161127 6.04312e-17)
(0.887039 0.171124 -1.30179e-17)
(0.875491 0.243311 7.76846e-18)
(0.874231 0.211929 0)
(0.941233 0.183107 8.86061e-18)
(0.966616 0.17173 0)
(0.956717 0.246142 0)
(1.05315 0.126172 -1.88437e-17)
(0.986738 0.168814 2.94916e-17)
(0.988041 0.203399 2.37944e-17)
(1.05145 0.215192 0)
(0.999437 0.0328542 -4.82914e-17)
(1.00111 0.0365783 1.09766e-17)
(1.00515 0.0424446 -1.08037e-17)
(1.01543 0.0580703 5.19878e-17)
(0.986037 0.0666994 -3.48691e-17)
(0.924687 0.108157 0)
(0.933813 0.0703755 0)
(0.928737 0.059428 5.12488e-17)
(0.908131 0.0624845 4.50088e-18)
(1.00227 0.111693 -5.20107e-17)
(0.996148 0.139198 -4.78232e-18)
(1.0005 0.142659 -2.58511e-17)
(0.981831 0.151324 0)
(1.00446 0.104043 0)
(1.00512 0.0978792 4.16102e-17)
(1.00232 0.101047 -1.16479e-17)
(0.292452 1.70139 1.956e-17)
(0.408192 2.26288 -1.37664e-17)
(0.746139 2.46858 2.67067e-17)
(0.904698 2.70642 -4.43874e-18)
(0.901499 2.29594 -3.01214e-18)
(0.998524 2.35297 -2.92505e-18)
(0.950173 1.92962 7.72985e-18)
(0.899437 2.58038 -5.11117e-18)
(0.891782 2.55803 -2.77175e-17)
(1.00354 2.79087 -5.69273e-18)
(1.13759 2.62765 6.84322e-18)
(1.22449 2.51895 0)
(0.564068 0.992015 -2.30117e-18)
(-0.0899875 1.32108 -1.94006e-17)
(0.0110739 0.668472 -1.4217e-17)
(-0.0818176 0.827999 -2.53957e-17)
(0.37158 0.458859 -1.72425e-17)
(0.391946 0.501118 1.78538e-17)
(0.334793 0.6168 -1.83893e-17)
(0.226243 0.497133 6.90516e-18)
(0.345465 0.41274 -1.69064e-17)
(0.746199 0.271259 2.81742e-17)
(0.706128 0.307101 0)
(0.729869 0.282502 5.77268e-18)
(0.623121 0.55063 -1.63459e-17)
(0.541925 0.524231 3.18247e-17)
(0.434356 0.589344 -5.51697e-18)
(0.520656 0.491143 0)
(0.614098 0.842175 -2.969e-17)
(0.741544 0.870944 3.55513e-17)
(0.67944 0.975557 5.83433e-17)
(0.778217 0.844939 1.64554e-17)
(0.888236 0.922383 -2.5244e-18)
(0.868113 0.944444 -6.89023e-18)
(0.77428 0.702086 1.80936e-17)
(0.83614 0.73519 5.68557e-18)
(0.93537 0.80335 0)
(0.932637 0.702234 2.97235e-17)
(0.943082 0.331671 4.28384e-17)
(1.07166 0.330347 -2.81845e-17)
(0.985956 0.289361 -5.5558e-17)
(0.912108 0.39842 5.39483e-17)
(0.97557 0.447535 0)
(1.00995 0.422686 0)
(0.787496 0.390724 4.72547e-17)
(0.778379 0.306546 0)
(0.788933 0.30036 -2.0279e-17)
(0.81412 0.318921 6.43118e-17)
(0.824007 0.495271 -1.19981e-16)
(0.768712 0.556487 -1.05513e-17)
(0.794215 0.511073 1.71867e-17)
(0.721679 0.457396 -1.16396e-17)
(0.699205 0.475732 -1.12476e-17)
(0.649206 0.458139 4.63136e-18)
(1.01416 0.019337 -5.93459e-17)
(1.00928 -0.0038259 0)
(1.01297 0.0171216 1.98472e-19)
(1.01098 0.0234341 8.81209e-18)
(1.00897 0.00721588 -3.32763e-17)
(1.00497 0.0209571 2.53957e-17)
(0.997601 0.00905638 0)
(1.00094 -0.00732692 1.6913e-17)
(1.01025 0.00470945 -1.24297e-17)
(1.01037 0.000930281 2.83159e-18)
(1.00564 0.00202122 3.88872e-18)
(-0.00398373 1.81912 0)
(0.0137613 1.79689 0)
(0.0214128 1.83188 0)
(0.00186461 1.82935 0)
(0.0465927 1.80627 -1.55288e-17)
(0.0471164 1.83156 -9.84e-17)
(0.0588909 1.77017 -2.79498e-17)
(0.0665061 1.83193 -8.39532e-17)
(0.0192818 1.77728 6.00611e-17)
(0.0310372 1.79636 5.30115e-17)
(0.035506 1.80492 1.13136e-16)
(0.0224818 1.80984 5.99259e-17)
(0.0131602 1.79995 1.03475e-17)
(0.00772196 1.81134 2.1429e-18)
(0.0421578 1.6858 -5.93675e-17)
(0.0634975 1.69462 0)
(0.0569918 1.71293 -4.1007e-17)
(0.0588832 1.75897 -7.37693e-18)
(0.130895 1.68677 -1.47782e-17)
(0.0906552 1.59787 0)
(0.0851176 1.59326 6.01067e-17)
(0.113438 1.59167 3.98734e-17)
(0.111178 1.69262 -5.2911e-17)
(0.0924631 1.70978 -8.0609e-17)
(0.0587959 1.62774 0)
(0.0255957 1.7539 3.67738e-17)
(0.0189262 1.72623 -1.36295e-17)
(0.0200274 1.74379 0)
(0.0415941 1.73698 1.98379e-17)
(0.0349584 1.73712 1.33316e-17)
(0.00818887 1.77769 8.4108e-18)
(0.00100176 1.77335 -8.59162e-17)
(-0.0069049 1.77083 -6.46264e-17)
(-0.0179417 1.76911 4.09708e-17)
(-0.00146656 1.74992 0)
(0.0141216 1.78272 0)
(0.00908869 1.77686 -3.90772e-17)
(-0.00105055 1.77031 -2.73861e-18)
(0.00623306 1.77922 0)
(-0.0050141 1.78286 2.9438e-17)
(0.0063726 1.77665 4.35871e-18)
(1.00088 0.0276636 0)
(1.00498 0.0346162 1.80641e-18)
(0.997347 0.0176914 5.28215e-17)
(1.01889 0.01854 0)
(1.01445 0.0208571 0)
(0.993313 -0.000266554 2.01762e-17)
(0.999023 0.00805874 -6.92539e-17)
(0.996575 0.0059354 -3.79905e-17)
(1.00047 0.00361638 0)
(1.00766 0.00976409 0)
(0.996829 0.0176741 1.67323e-17)
(0.9921 0.0183637 0)
(0.999631 0.014917 0)
(0.000584714 1.74362 0)
(0.015544 1.7663 -3.90121e-17)
(0.0216386 1.74524 3.94134e-17)
(0.00709952 1.7711 0)
(0.0110575 1.77448 -3.80014e-17)
(0.00170147 1.76764 -1.72159e-17)
(-0.00611002 1.77332 0)
(0.340037 1.74248 0)
(0.233363 1.79686 3.61516e-17)
(0.219357 1.72534 0)
(0.280093 1.77258 6.01497e-17)
(0.349189 1.77865 0)
(0.329897 1.81976 3.96951e-17)
(0.712525 1.71211 -8.79434e-21)
(0.697307 1.40931 -1.18093e-17)
(0.75366 1.4222 -3.59641e-17)
(0.532881 1.40486 -1.05469e-17)
(0.497277 1.5524 0)
(0.547071 1.61132 0)
(0.651489 1.40422 0)
(0.604465 1.381 7.08199e-18)
(0.353509 1.68361 -2.87713e-17)
(0.44234 1.54784 5.41072e-18)
(0.411779 1.69403 9.52384e-19)
(0.372741 1.44115 0)
(0.45078 1.42589 0)
(0.414436 1.42909 3.54685e-18)
(0.427397 1.52044 0)
(0.542269 1.07426 0)
(0.488727 0.974185 -4.72834e-17)
(0.623716 0.895904 -4.8716e-18)
(0.320622 1.21619 0)
(0.475472 1.28843 -8.63099e-17)
(0.696042 0.974079 -5.53243e-18)
(0.708995 1.11806 0)
(0.741384 1.05939 -3.4694e-17)
(0.698522 0.957052 0)
(0.678971 0.961781 0)
(0.732175 2.24891 2.05423e-17)
(0.715974 2.42118 -3.8262e-18)
(0.49877 2.3136 -4.70017e-17)
(0.47446 2.1875 -3.25017e-20)
(0.752402 2.04455 0)
(0.714171 1.99783 -8.1616e-18)
(0.776819 1.85804 1.07791e-18)
(0.812556 1.6765 -7.21386e-18)
(0.337377 1.94374 0)
(0.241168 1.6434 3.3923e-17)
(0.298476 1.63637 0)
(0.846131 0.205316 0)
(0.802992 0.195031 0)
(0.782755 0.194515 0)
(0.836678 0.248179 3.43017e-18)
(0.775101 0.226525 -1.12712e-18)
(0.908185 0.0924079 2.00443e-17)
(0.903167 0.116793 0)
(0.887373 0.0922183 -3.83019e-18)
(0.851722 0.086559 -1.68684e-17)
(0.865992 0.068019 3.05306e-18)
(1.05273 2.92366 -2.17206e-17)
(0.972739 2.85718 0)
(0.95916 2.94654 -6.23311e-17)
(0.632582 3.1623 -1.74572e-17)
(0.764609 2.68999 1.90112e-17)
(0.598195 1.12946 -3.37522e-17)
(0.611816 1.10365 0)
(0.444642 0.829511 8.32854e-18)
(0.422163 0.895224 2.6063e-17)
(0.245984 0.884507 1.22637e-17)
(0.317924 0.646187 1.78941e-18)
(0.50054 0.622618 -1.5457e-17)
(0.558037 0.638984 0)
(0.521033 0.780264 0)
(0.396584 0.755684 0)
(0.943653 0.665007 5.48473e-18)
(0.826604 0.578764 1.72496e-17)
(0.813709 0.619868 -1.20968e-17)
(0.853783 0.53658 2.75655e-17)
(0.955179 0.534946 0)
(0.967149 0.584592 -7.19514e-18)
(0.750088 0.426654 2.34815e-17)
(0.769077 0.385878 4.16628e-17)
(0.690662 0.404516 -1.43761e-17)
(0.690174 0.392145 1.21634e-17)
(0.751151 0.360168 -1.24632e-19)
(0.713295 0.348316 -2.57774e-17)
(1.01333 -0.00279049 -2.43878e-17)
(1.01331 -0.00727655 -5.69714e-17)
(1.01567 0.0156157 1.99102e-17)
(1.00918 0.0198539 6.53009e-17)
(0.994902 0.027632 0)
(0.990355 0.00526799 1.50207e-17)
(0.0553378 1.76779 2.35575e-17)
(0.0549452 1.77496 0)
(0.0548661 1.75769 -5.32266e-17)
(0.0537075 1.75652 -4.4824e-17)
(0.0468811 1.78031 -3.88551e-17)
(0.0466931 1.78711 0)
(0.0266443 1.76844 0)
(0.00918212 1.76432 -1.7378e-17)
(0.00422684 1.76069 -1.92192e-17)
(-0.00324905 1.77125 -4.62789e-17)
(-0.0117961 1.74731 -8.27396e-18)
(0.0244457 1.75214 -4.61708e-18)
(0.34413 1.83152 -9.03688e-17)
(0.333856 1.80064 -1.35107e-16)
(0.312905 1.7693 8.04336e-17)
(0.322903 1.79532 -5.26087e-18)
(0.422907 1.55528 0)
(0.385776 1.74991 8.02243e-17)
(0.411385 1.65079 5.44277e-17)
(0.312307 1.73195 5.40827e-17)
(0.322955 1.73642 0)
(0.322886 1.6316 0)
(0.345312 1.63089 -5.52831e-17)
(0.335107 1.5021 -7.62261e-17)
(0.376655 1.52712 -4.18245e-17)
(0.308273 1.51012 -4.70262e-19)
(0.281222 1.61013 -1.54863e-18)
(0.240913 1.53209 -9.67637e-18)
(0.751386 1.48465 -1.15522e-18)
(0.801653 1.61364 0)
(0.801317 1.50502 1.40025e-17)
(0.73877 1.85676 0)
(0.722614 1.7952 0)
(0.752195 2.15019 6.1403e-18)
(0.890301 2.71166 5.50828e-18)
(0.80857 2.64746 -9.70276e-18)
(0.329222 1.2042 0)
(0.437788 1.22345 -9.74909e-18)
(0.648961 1.15601 -2.70041e-17)
(0.625841 1.96124 0)
(0.54271 2.41269 9.39892e-19)
(0.309876 2.31111 0)
(0.64543 0.79479 9.30166e-19)
(0.671036 0.802644 -6.54744e-17)
(0.678572 0.76631 -1.0435e-18)
(0.555018 0.771235 5.14835e-20)
(0.59396 0.696771 8.68007e-18)
(0.815737 2.52597 -1.60094e-17)
(0.823421 2.56312 3.45719e-18)
(0.814443 2.21127 -5.33833e-18)
(0.7457 2.03167 3.66509e-17)
(0.59226 2.16206 4.96038e-17)
(0.745821 2.37406 -2.63608e-17)
(0.642521 2.42455 -2.88592e-17)
(0.727402 2.02456 -1.2854e-19)
(0.601026 2.01827 2.50978e-17)
)
;

boundaryField
{
    wall-4
    {
        type            calculated;
        value           uniform (0 0 0);
    }
    velocity-inlet-5
    {
        type            calculated;
        value           uniform (1 0 0);
    }
    velocity-inlet-6
    {
        type            calculated;
        value           uniform (0 3 0);
    }
    pressure-outlet-7
    {
        type            calculated;
        value           nonuniform List<vector> 8((0.00221769 1.73272 0) (-0.0181556 1.68899 5.36223e-17) (0.0078422 1.76471 0) (-0.00893463 1.78769 0) (-0.00096841 1.75166 0) (0.00308042 1.75606 0) (-0.00367117 1.74589 0) (0.000558603 1.76865 0));
    }
    wall-8
    {
        type            calculated;
        value           uniform (0 0 0);
    }
    frontAndBackPlanes
    {
        type            empty;
    }
}

