/*--------------------------------*- C++ -*----------------------------------*\
  =========                 |
  \\      /  F ield         | OpenFOAM: The Open Source CFD Toolbox
   \\    /   O peration     | Website:  https://openfoam.org
    \\  /    A nd           | Version:  6
     \\/     M anipulation  |
\*---------------------------------------------------------------------------*/
FoamFile
{
    version     2.0;
    format      ascii;
    class       volScalarField;
    location    "0";
    object      p;
}
// * * * * * * * * * * * * * * * * * * * * * * * * * * * * * * * * * * * * * //

dimensions      [0 2 -2 0 0 0 0];

internalField   nonuniform List<scalar> 
13046
(
0.457556
0.336953
0.374365
0.444787
0.40529
0.335942
0.440833
0.328794
0.406795
0.481614
-0.00124201
0.303662
0.469434
0.280118
0.369758
0.501476
0.27774
0.0537215
0.441677
0.363674
0.402524
0.495708
0.290694
0.0439692
0.447676
0.365088
0.382713
0.468462
0.283658
0.361216
0.472782
0.320068
0.356041
0.441061
0.394337
0.370024
0.431486
0.405456
0.379764
0.466169
0.316326
0.35119
0.407114
0.417864
0.397659
0.416968
0.413961
0.38294
0.45292
0.326351
0.379863
0.24081
0.466715
0.349953
0.236169
0.357131
0.458827
0.185738
0.507392
0.255323
0.448594
0.203311
0.390287
0.321878
0.0861451
0.485943
0.508555
0.201714
0.244223
0.506859
0.216117
0.247751
0.163862
0.512993
0.252714
0.446179
0.366587
0.392594
0.267778
0.506132
0.138933
0.447159
0.352099
0.385512
0.316557
0.0660997
0.485414
0.449481
0.361071
0.0725889
0.387776
0.405721
0.0355357
0.486176
0.478979
0.192582
0.174598
0.339813
0.345755
0.37508
0.436948
0.0768438
0.424276
0.418174
0.368904
0.444909
0.385549
0.267172
0.45817
0.280751
0.362929
0.465977
0.297757
-0.0621336
0.468638
0.297155
0.369469
0.49521
0.491186
0.169791
0.315598
0.192917
0.323791
0.480371
-0.0141754
0.298259
0.480203
0.231643
0.353173
0.471914
0.320201
0.338121
0.396015
0.405639
0.0534128
0.475358
0.133061
0.348246
0.480421
0.303111
0.349994
0.439015
0.280175
0.409344
0.454871
0.262841
0.370115
0.443793
0.395419
0.282865
0.4569
0.182973
0.383437
0.438429
0.408312
0.313328
0.20247
0.380465
0.185467
0.390084
0.442086
0.434654
0.423165
0.253953
0.427133
0.467917
0.321235
-0.0095348
0.476662
0.29424
-0.0458011
0.477641
0.124201
0.339436
0.485713
0.30421
0.29528
0.417894
0.431332
0.266246
0.338586
0.0107656
0.452364
0.480261
0.320735
0.295484
0.439581
0.401074
0.299129
0.439045
0.288832
0.409357
0.2579
0.378534
0.478159
0.247025
0.353802
0.468136
0.339735
0.0563801
0.392281
0.419473
0.0770673
0.428259
0.0348056
0.376024
0.212028
0.329421
0.469155
0.452631
0.505462
0.249788
0.148101
0.0210917
0.430332
0.368966
0.4271
0.412299
0.370019
0.472409
0.296319
0.35353
0.401367
0.406306
0.0726453
0.457009
0.264261
0.389813
0.321433
-0.0433071
0.456248
0.462362
0.339323
0.199702
0.428554
0.0586294
0.380886
0.400127
0.223001
0.434369
0.4829
0.236466
0.345985
0.100193
0.385981
0.419012
0.387967
0.160129
0.429815
0.327188
-0.0509956
0.44808
0.470883
0.285875
0.33902
0.48809
0.279433
-0.0682169
0.429838
0.417695
0.353924
0.430643
0.411774
0.221938
0.239279
0.427606
0.409723
0.254704
0.512677
0.117363
0.487312
0.25404
0.336006
0.390144
0.139563
0.426645
0.486132
0.150241
0.330583
0.413717
0.396131
0.410697
0.402976
0.193591
0.4288
0.491592
0.247142
0.323668
0.464997
0.469601
0.476341
0.271582
0.327334
0.411777
0.178307
0.41961
0.482169
0.332407
0.132837
0.466775
0.294651
0.357775
0.449925
0.364863
0.188068
0.501459
0.194652
0.296448
0.474209
0.246747
0.336843
0.50226
0.496999
0.178329
0.294234
0.168368
0.303812
0.332886
0.0238056
0.461448
0.487578
0.21381
0.326022
-0.101066
0.299989
0.4495
0.412702
0.438435
0.315592
0.451914
0.224416
0.389995
0.345102
0.468295
0.0801846
0.219977
0.352703
0.457108
0.0879296
0.392043
0.413905
0.292113
0.39009
0.466333
0.21965
0.373804
0.28134
0.402005
0.505596
0.278137
0.071589
0.213207
0.312467
0.477655
0.468816
0.201765
0.366001
0.424432
0.267486
0.421593
0.373914
0.25532
0.454004
0.45391
0.329048
0.388496
0.452432
0.360479
0.193095
0.453512
0.0462544
0.353445
0.097117
0.400946
0.408927
0.498489
0.245741
0.25003
0.509861
0.506955
0.169327
0.151113
0.26936
0.27715
0.291391
-0.0887269
0.464901
0.490372
0.278348
-0.0580531
0.436114
0.204036
0.403706
0.330015
0.473242
0.0435723
0.499534
0.502999
0.223047
0.207537
0.280146
0.27896
0.361949
-0.0159945
0.425189
0.486563
0.27121
-0.0739805
0.391409
0.436957
0.381245
0.475987
-0.0692493
0.286759
0.4903
0.289104
0.295901
0.447335
0.0122037
0.345987
-0.0975326
0.308979
0.426016
0.458679
0.321647
0.367329
0.423367
0.353176
0.420211
0.483014
0.297314
-0.0156039
0.419212
0.336633
0.422985
0.39651
0.429472
0.391102
0.462655
0.336689
0.189473
0.396157
0.353289
0.439045
0.408029
0.320827
0.443091
0.494805
0.264599
0.242049
0.300243
0.312267
0.0338656
0.0253893
0.484136
0.477646
0.446876
0.0302937
0.354729
0.24476
0.501628
0.233476
0.472895
0.288159
0.337047
0.374205
0.145754
0.436439
-0.0845359
0.328683
0.419228
0.384194
0.411241
0.0264232
0.472366
0.302506
-0.0354467
0.302756
-0.102376
0.43091
-0.112986
0.292726
0.45346
0.158888
0.438748
0.392899
-0.0531633
0.350945
0.42153
0.465947
0.120946
0.35705
0.509518
0.255887
0.0237397
0.457461
0.384603
0.306772
-0.00225183
0.368756
0.4215
0.366856
0.442531
0.157513
0.138513
0.398444
0.420325
0.294634
-0.136514
0.412952
-0.0904709
0.305222
0.436706
0.454815
0.394251
0.317206
-0.0156776
0.435582
0.354725
0.366191
0.413616
-0.0301261
0.477448
0.324374
0.0488112
0.276232
0.108972
0.503189
0.492774
0.269057
0.235719
0.186895
0.504349
0.276823
0.256612
0.512075
0.0803798
0.485624
0.492323
0.282794
0.26115
0.320832
0.320856
0.485508
0.295268
0.313452
0.500086
0.225599
0.271708
0.112736
0.405543
0.409206
0.0240938
0.433544
0.364454
0.39359
0.424729
0.0995358
-0.112923
0.290086
0.461256
0.467181
0.464004
0.344998
0.345298
0.357115
0.344783
0.498829
0.489757
0.277755
0.253133
0.276842
0.276716
-0.106139
0.321972
0.412706
-0.00609751
0.437618
0.356738
0.480017
0.25684
0.317116
0.119621
0.384296
0.42468
0.272905
0.122263
0.504598
-0.0699191
0.451116
0.311645
-0.0625787
0.447196
0.319403
0.497855
0.210854
0.29772
0.462545
0.295204
0.370024
0.481124
0.314456
0.0324066
0.146981
0.426251
0.39885
0.324131
0.110266
0.486504
0.485639
0.27607
0.287206
0.394309
0.232134
0.439822
0.467486
0.303078
0.349364
0.320834
0.0163761
0.471403
0.491783
0.15173
0.317425
0.460737
0.336684
0.363787
0.511465
0.250336
0.0611923
0.473545
0.311445
0.3425
0.426193
0.298648
0.425085
0.156102
0.413261
0.411752
0.500521
0.265213
-0.0231118
0.504257
0.258929
-0.0119637
0.312535
0.110656
0.491964
0.384942
0.22341
0.442717
0.260441
-0.0422651
0.496075
0.351765
0.0961668
0.466059
0.308936
-0.116536
0.412376
0.448423
-0.112536
0.284018
0.269941
0.0846337
0.50732
0.32649
-0.0215975
0.459274
0.49857
0.494501
0.292159
0.0499049
0.302299
0.0679077
0.454826
0.0943987
0.363141
0.437099
0.134043
0.36783
0.461901
0.37085
0.346005
0.437743
0.106771
0.383121
0.390767
0.430704
0.115857
0.51555
0.250121
0.0961477
0.500051
0.243172
0.268096
0.494937
0.273965
0.287953
0.448582
0.168472
0.382566
0.441643
0.154011
0.388212
0.458242
0.338888
0.3743
0.492276
0.255083
0.314775
0.384724
-0.00658494
0.405495
0.430391
0.333316
-0.0722634
0.425779
0.333059
-0.0738234
0.475882
0.314855
0.324219
-0.0838316
0.313439
0.441141
0.495574
0.309215
0.128909
0.320952
-0.0852508
0.423057
0.436638
0.413606
0.346136
0.474338
0.24124
0.365919
0.232245
0.372988
0.451746
0.356227
-0.0448813
0.424497
0.141302
0.418324
0.40727
0.258721
0.510179
0.0446226
0.46999
0.228563
0.366572
0.455318
0.379432
0.355519
-0.0297291
0.434805
0.348083
0.337397
0.0935521
0.474027
0.491389
0.486616
0.284083
0.286036
-0.0303624
-0.0452271
0.431526
0.242703
0.413674
0.174246
0.437032
0.396516
0.431287
0.318233
0.414289
-0.056997
0.429123
-0.0593055
0.340222
0.424014
0.344923
0.471212
0.177404
0.361663
0.444219
0.443314
-0.0310903
-0.0459303
0.338939
0.333642
0.417191
0.195281
0.416203
0.442967
0.251615
0.386549
0.502431
0.26619
0.0110662
0.445047
0.235774
0.403003
0.441281
0.29142
0.405616
0.49717
0.268845
-0.0149278
0.484489
0.208659
0.344684
0.162691
0.350686
0.450709
0.491693
0.278228
0.261443
0.0587893
0.412223
0.39043
0.29609
-0.127281
0.422234
0.459157
0.232347
0.383265
0.501955
0.279463
0.0231233
0.225015
0.290532
0.484164
0.467821
0.273061
-0.0877069
0.445599
0.449134
0.300862
0.392072
0.287316
0.389251
0.427808
0.316658
0.421881
0.456302
0.447996
0.312142
0.377549
0.324814
0.384425
0.457643
0.26632
0.402338
0.441225
0.263418
0.408493
0.346052
-0.0760656
0.414491
0.482137
0.310185
0.315707
0.451925
-0.0140134
0.333159
0.460454
0.463068
0.152463
0.130321
0.368827
0.362755
0.473689
0.323666
0.33268
0.498714
0.236016
0.286435
0.457004
0.192332
0.37839
0.441268
0.381224
0.379718
0.445162
0.124963
0.379977
0.461837
0.355255
0.357351
0.432748
0.198562
0.40604
0.493251
0.243163
0.297518
0.444214
0.447102
0.375606
0.377951
0.382414
0.366555
0.452504
0.330164
0.447882
0.385559
0.339511
0.388328
0.480581
0.484033
0.289276
0.275493
0.335147
0.335304
0.285305
0.110201
0.502851
0.455451
0.350163
0.179196
0.29103
0.302087
0.089518
0.0895131
0.498803
0.49373
0.472525
0.240038
0.329826
0.428476
0.399039
0.389788
0.45371
0.116523
0.369442
0.475687
0.334235
0.330135
0.494155
0.231291
0.301264
0.503864
0.501948
0.141107
0.284528
0.144333
0.293912
0.472831
0.156183
0.355133
0.473675
-0.0802706
0.276648
0.222918
0.306846
0.47891
0.487889
0.482062
0.233309
0.284083
0.249241
0.297005
0.416272
0.115688
0.402416
0.494616
0.251473
0.288141
0.480394
0.243172
0.314438
0.479656
0.481519
0.263574
0.284729
0.311304
0.303468
0.483199
0.259049
0.296339
0.462638
0.165865
0.36755
0.456927
0.354136
0.370779
0.49208
0.289911
-0.00375843
0.484338
0.240134
0.30314
0.495574
0.491619
0.228668
0.212505
0.309138
0.317104
0.285224
0.0178682
0.496087
0.500277
0.273011
0.0126183
0.498577
0.276326
-0.00437922
0.499873
0.296034
0.128655
0.490002
0.266199
0.299743
-0.130413
-0.194918
0.0321981
-0.13011
-0.0715148
-0.0812249
-0.147496
-0.0750143
-0.283589
-0.0807318
-0.0836358
-0.323301
-0.160833
-0.0913381
-0.264672
-0.191568
-0.11348
-0.259758
-0.212574
-0.136209
-0.22657
-0.256309
-0.0534172
0.242286
0.0529711
-0.18579
-0.0506162
-0.330266
-0.196144
-0.154699
-0.322464
-0.153362
-0.226282
-0.24849
-0.315473
-0.215891
0.0275683
-0.0613423
-0.124669
-0.0549026
-0.274494
0.266071
-0.29445
-0.0917094
0.0478597
-0.29614
-0.288536
-0.303722
-0.315453
-0.303068
0.0686142
-0.225158
-0.189282
-0.296572
-0.317198
0.0616723
-0.134159
-0.219517
-0.306222
-0.10185
-0.30784
-0.288728
0.0574817
-0.0662485
-0.228077
-0.129522
-0.20652
0.179549
-0.0577404
-0.00442497
-0.38457
-0.343799
-0.211846
-0.110609
-0.355433
-0.25059
-0.151197
-0.323711
-0.1059
-0.0113297
-0.251326
-0.242006
-0.30404
-0.223201
-0.32147
-0.09762
-0.319971
-0.128418
-0.273771
0.0777158
-0.209115
-0.103784
0.0479721
-0.244527
-0.173095
-0.100764
-0.295086
-0.302094
-0.173713
-0.389719
-0.163329
-0.0455769
0.0615579
0.195425
-0.208513
-0.11741
-0.320896
-0.196819
-0.295183
0.0231174
-0.0355678
-0.13889
-0.272434
-0.355595
-0.0510381
0.00843437
-0.289023
-0.131578
-0.387041
-0.26369
-0.251351
0.11923
0.186327
-0.104369
-0.192932
-0.196636
-0.326482
0.116523
-0.115855
-0.116468
-0.397542
0.072915
-0.302408
-0.0601153
-0.133463
-0.0116808
-0.263857
-0.420765
-0.272424
-0.14682
-0.188991
-0.0917428
-0.0686727
-0.224972
0.0180207
-0.292104
-0.23098
0.0077794
-0.274394
-0.272436
-0.321426
-0.162318
-0.131869
-0.0139175
-0.104056
-0.292604
-0.111912
-0.0891962
0.0289529
-0.152287
-0.209788
-0.224068
-0.0479662
-0.112583
-0.0393743
-0.314133
0.233403
-0.265488
0.0095307
0.122274
-0.214922
0.129902
-0.00513996
0.0261326
-0.257316
-0.398006
-0.327081
0.0379758
-0.273065
-0.28263
-0.0993468
-0.280124
-0.263505
-0.28976
-0.208843
0.11811
-0.104688
-0.276496
-0.107772
-0.297001
0.253325
-0.0764533
0.0169934
-0.245938
-0.415351
0.10252
0.154925
-0.248703
-0.298273
0.223249
-0.192824
-0.0888086
-0.292979
-0.108103
0.0122818
-0.0360398
-0.226885
-0.307115
-0.0358813
-0.169576
-0.325211
0.0363206
-0.0971795
-0.31561
-0.199528
0.0848451
-0.378689
-0.0792402
-0.0435793
-0.326528
-0.392618
-0.290444
-0.189884
-0.157409
-0.169838
-0.156809
-0.213661
-0.292598
-0.135708
-0.131971
-0.00858046
-0.307196
-0.151517
-0.294207
-0.269879
-0.188963
-0.268662
-0.407728
0.0195493
0.0065467
-0.211876
0.114284
0.00911322
0.269558
-0.180669
-0.434167
-0.261443
-0.295686
-0.151956
-0.371364
-0.177001
0.086423
-0.123377
-0.194922
-0.237487
-0.297516
0.00831144
-0.232137
-0.0895666
-0.274681
-0.250071
-0.282953
-0.0982105
-0.229241
-0.2373
-0.200318
-0.325021
-0.15249
-0.190119
-0.299866
-0.143515
-0.156891
-0.268328
-0.310777
-0.290943
-0.328908
-0.29898
-0.199371
-0.362559
-0.435088
-0.226695
-0.332822
-0.371206
-0.19664
-0.0988672
-0.369603
-0.0117701
-0.144537
-0.256232
0.0321096
-0.311801
-0.153698
0.0415227
-0.0769911
-0.174403
-0.00949542
-0.270286
-0.0702828
-0.0907762
-0.223683
-0.00887209
-0.285206
-0.141423
-0.4634
-0.360068
-0.414281
-0.338654
-0.299289
-0.138751
-0.295005
-0.393891
-0.316725
-0.265722
0.257571
-0.106807
-0.110429
-0.153813
-0.0788613
-0.150315
-0.230962
-0.331369
-0.167232
-0.281966
0.0878563
-0.0423869
-0.211412
-0.27595
-0.222337
0.236521
-0.0264616
0.0305542
-0.0968133
-0.25479
-0.214084
-0.275333
-0.321606
-0.353887
-0.299334
-0.112898
-0.0894134
-0.31304
-0.358811
-0.182038
-0.12605
-0.185784
-0.113423
-0.0372122
-0.163894
-0.227885
0.078579
0.00372008
-0.233082
-0.0502979
0.0171774
-0.388513
-0.0964489
-0.262379
-0.294665
-0.307376
2.31687e-05
-0.324098
-0.194569
0.067969
-0.403444
-0.1886
-0.231405
-0.21812
-0.269536
-0.28576
-0.109388
-0.127746
-0.353095
-0.36039
-0.293389
-0.303026
-0.075786
0.0683562
-0.178151
-0.10647
-0.104446
-0.098287
-0.418216
-0.0498989
-0.0808117
-0.353064
-0.372471
-0.156086
-0.325446
-0.125123
-0.197891
-0.25934
0.0726095
0.0404478
-0.256153
-0.0458883
0.182246
-0.0361404
0.00509917
0.0290499
-0.105371
-0.244655
-0.301435
0.232292
-0.0203491
0.00844651
-0.308685
-0.314289
-0.400185
-0.0363432
-0.160058
-0.106595
0.016138
-0.0714581
-0.115689
-0.127804
-0.233666
-0.184522
-0.244157
-0.280931
-0.297239
-0.258385
-0.218811
-0.35494
-0.156046
-0.283955
-0.0555917
-0.0271104
-0.382474
0.02466
0.0597192
-0.102527
-0.297056
-0.186552
-0.0798932
-0.0813782
-0.231651
-0.314538
0.0133825
-0.0951731
0.0935106
-0.373899
-0.269475
-0.188214
-0.103878
-0.0090539
-0.176282
0.144769
-0.166639
-0.0381959
-0.271839
-0.0145014
-0.240625
-0.148337
-0.281032
-0.0300652
-0.169153
0.216758
-0.127833
-0.355024
-0.118116
-0.155963
-0.0939743
-0.296152
-0.264375
-0.267824
0.0772554
-0.101655
-0.112264
-0.0674087
-0.304811
0.0864334
0.181088
-0.311575
0.21157
0.0918097
-0.0205102
0.01246
-0.192649
-0.316045
-0.304413
-0.270209
-0.0477659
-0.22251
-0.0833217
0.139973
-0.308523
-0.294078
-0.309821
0.0341702
0.247057
-0.31086
-0.0377661
-0.128128
0.0646839
-0.119401
-0.0915868
-0.312288
0.129426
0.205699
-0.130607
-0.294082
-0.0268712
-0.156364
-0.02589
-0.207993
-0.189796
-0.139692
-0.113104
-0.103161
-0.29845
-0.187269
-0.130161
-0.147593
-0.0100151
-0.321279
-0.163339
-0.0967488
-0.291763
0.0538863
-0.163306
-0.312777
0.0726622
-0.0218408
-0.137881
0.159515
-0.195106
-0.31858
-0.0904697
-0.114065
-0.0333282
-0.272892
-0.274461
-0.156994
-0.126116
-0.272848
-0.217629
-0.163024
-0.371888
-0.262646
0.0696557
0.168695
0.202951
-0.0669801
0.206096
0.235849
0.0918149
-0.428204
-0.172787
-0.159943
0.167152
-0.293224
-0.159699
-0.323816
-0.293957
-0.0938702
0.121319
-0.273707
-0.262343
-0.0854161
-0.129573
-0.279929
-0.312854
0.236458
0.106984
0.0335923
-0.097737
-0.348406
-0.0356836
-0.150735
-0.297586
-0.171613
-0.353753
-0.31477
-0.146543
-0.251909
-0.217937
0.0841426
0.0725573
-0.415404
-0.0172877
-0.218238
-0.214359
-0.175482
0.0664922
-0.250668
-0.0965581
-0.277141
0.0391487
-0.292696
-0.274076
0.183061
-0.406718
-0.377552
-0.203952
-0.251269
-0.436942
-0.0949579
-0.249743
-0.43949
-0.241057
-0.411913
-0.337088
-0.246146
-0.369023
-0.241024
-0.210684
-0.363231
-0.101439
0.0949551
0.0704165
-0.307724
-0.326282
0.0929196
-0.340775
-0.15886
0.190636
-0.237418
0.172928
-0.212274
0.00111202
-0.0557269
-0.117434
-0.343256
-0.139541
-0.151322
-0.241386
-0.123012
-0.290754
-0.343579
-0.256886
-0.146832
-0.397039
-0.359635
0.112361
-0.160879
-0.118875
-0.0766213
-0.292207
0.0928132
-0.0716296
-0.319389
-0.0917613
-0.263847
-0.357069
-0.429484
-0.117161
-0.101158
-0.300926
-0.147811
-0.264756
0.176945
0.0824078
-0.281896
-0.271447
0.148791
0.00559032
-0.171149
-0.152787
-0.299317
0.200293
-0.0965246
-0.413571
0.0437224
-0.0444799
0.0710102
-0.17569
-0.311401
-0.185792
-0.0970767
-0.162552
-0.102629
0.2768
-0.262253
-0.217014
-0.232184
0.0902832
0.175192
0.208313
-0.134991
-0.134441
-0.0540223
0.00366188
0.0930191
-0.119341
-0.0463391
-0.101581
-0.199279
-0.12917
-0.298398
-0.103505
-0.379526
-0.266291
-0.0713303
-0.370056
-0.178428
-0.152374
0.0994181
0.210048
-0.276913
-0.343566
-0.390681
0.0794208
-0.303497
-0.282908
-0.397301
0.11565
-0.191213
-0.187925
-0.328598
-0.180329
-0.283777
-0.229676
-0.0683276
-0.0722444
0.105667
0.242868
-0.240217
0.0181063
-0.413788
0.0323547
0.0817685
0.0777264
-0.0656506
-0.266392
-0.265158
-0.300539
-0.408822
-0.097975
-0.40124
-0.0571804
-0.320667
0.0540713
-0.294472
-0.394061
-0.0197411
0.0205701
-0.232329
-0.243015
-0.128583
0.0784012
-0.200888
-0.210927
-0.403742
-0.0432051
-0.0180571
0.123856
-0.433036
-0.253432
0.0473297
-0.104998
0.160579
-0.100173
-0.28834
-0.450715
-0.412323
-0.245078
-0.381278
0.101132
-0.392337
-0.119527
-0.225998
-0.320781
0.0593738
-0.433254
0.112557
-0.0955609
-0.178484
-0.0990468
-0.0422454
-0.127936
-0.10992
-0.256114
-0.222074
-0.324216
-0.339877
-0.0658824
-0.260027
0.190992
-0.32594
-0.0343869
-0.136925
-0.00228117
0.134321
-0.324194
-0.30123
-0.23377
-0.136861
-0.344072
0.109164
-0.294461
-0.198512
-0.30173
-0.0312156
-0.374782
-0.173289
-0.356548
0.212616
-0.412918
-0.262486
-0.0664101
0.00205847
-0.387907
-0.388652
-0.28298
-0.358873
0.054771
-0.193397
-0.099413
0.00272761
-0.119741
0.00419153
0.216585
-0.0539219
-0.0106718
-0.142145
-0.119233
-0.373657
-0.128437
-0.27416
-0.15723
-0.0956314
-0.133653
-0.359253
-0.225714
-0.0660291
-0.293316
-0.0496286
-0.106851
0.0317298
-0.271858
0.0985276
-0.213454
-0.111881
-0.129077
-0.364894
-0.293111
-0.303275
-0.141882
-0.18114
-0.16309
0.0360757
-0.000994003
-0.0480592
-0.217634
0.0238795
0.124504
0.127437
0.0168198
-0.121006
-0.133104
-0.301458
0.159704
-0.00310408
-0.0291709
-0.251413
-0.268206
-0.36494
-0.139696
-0.10738
-0.193892
-0.0307278
0.017824
-0.166474
-0.191858
-0.0451344
-0.178549
-0.142612
-0.249153
-0.165619
-0.189387
-0.396621
-0.182536
-0.107769
-0.282612
-0.427451
-0.17068
-0.225794
-0.115789
-0.271839
-0.198966
0.0564608
0.0697272
-0.185723
-0.215003
-0.0472381
-0.225458
-0.290826
-0.308688
-0.273566
-0.362817
0.0336052
-0.199507
-0.212238
-0.0934909
-0.114828
-0.0379679
-0.131851
0.184842
-0.0668728
-0.311147
-0.217122
-0.240251
-0.0452331
0.0565251
-0.0572255
-0.163815
-0.381396
-0.31713
-0.285446
-0.1723
-0.210297
-0.184662
-0.307323
0.0622017
-0.129435
0.0673365
0.0117703
-0.19481
-0.212497
-0.117693
0.137728
-0.360831
-0.394513
-0.112724
0.153855
-0.282239
-0.275595
-0.0588278
-0.110107
-0.0242036
-0.253829
-0.383425
-0.173312
-0.368931
-0.278896
-0.0216216
-0.26652
-0.294325
-0.204162
-0.286134
-0.153626
-0.196691
-0.175981
0.0343682
-0.315271
0.220799
-0.0247252
-0.320256
-0.446432
-0.172217
-0.0866744
0.005503
-0.256508
-0.28603
-0.12578
-0.304866
-0.179636
0.238207
0.033492
-0.0994258
-0.148574
-0.361308
0.126984
0.21292
0.0642029
-0.0524128
0.0470988
-0.130551
-0.357432
-0.413135
-0.39476
0.131474
-0.233809
-0.0727075
-0.167168
0.208411
-0.295946
-0.191333
-0.344189
-0.254945
-0.30897
0.208623
-0.171887
-0.0537613
0.0428817
-0.00730481
-0.303217
-0.144193
-0.161023
-0.0208341
-0.371363
-0.155317
-0.278924
0.109695
-0.114701
-0.30017
-0.0524108
-0.254764
0.0538306
-0.295534
-0.0218143
0.00372765
0.0353538
-0.342072
-0.177003
-0.284506
-0.143928
0.0828844
-0.183022
-0.103946
-0.17737
-0.0842276
-0.166855
0.141512
-0.141109
0.0731377
-0.405176
-0.271137
-0.305235
0.127637
-0.0710206
-0.159327
-0.338802
-0.116546
-0.129876
0.157167
-0.112093
-0.280141
-0.342148
0.199475
0.171775
-0.0890879
0.147474
-0.290646
-0.341605
-0.26167
-0.215481
-0.375884
-0.0830022
-0.169881
-0.295874
-0.241674
0.14087
-0.243652
-0.0324949
-0.184765
-0.277897
-0.222499
-0.405373
-0.382562
-0.256767
-0.0731193
-0.096681
-0.314871
-0.240913
0.0298201
-0.122451
-0.296553
-0.118758
0.0848094
-0.256285
-0.181934
0.239382
-0.142538
-0.299711
-0.0534082
-0.0802396
0.148194
-0.177736
-0.236932
-0.161688
-0.374274
0.0850386
-0.0946008
0.0342416
-0.169564
-0.079459
-0.334314
0.0398954
-0.260282
-0.32685
-0.312177
-0.16088
0.0269496
-0.455642
-0.204467
-0.3368
0.0964019
0.20357
-0.127374
-0.284115
-0.0832343
0.180836
-0.192423
0.0526156
0.0112891
-0.0353052
-0.0761831
-0.198744
0.00115948
0.034138
0.0856638
-0.154743
-0.158149
-0.130836
-0.178172
-0.129046
-0.248919
0.156327
-0.104621
0.0689517
-0.160745
0.128528
-0.304657
0.176449
-0.0812424
0.109133
0.125133
0.0638063
0.232066
-0.290006
0.0306716
-0.143664
-0.308679
-0.210556
-0.313893
0.0704045
-0.10575
-0.173291
-0.157223
-0.264013
-0.11385
-0.310054
0.105252
-0.229465
-0.0317801
-0.421736
-0.238311
-0.299332
0.204485
-0.120518
-0.133638
-0.179468
-0.29125
-0.300868
-0.238895
-0.295659
-0.0359435
0.09545
-0.348451
-0.181779
-0.297178
-0.300609
-0.0173883
-0.15125
-0.179495
0.116575
-0.385957
-0.115114
-0.104662
0.061344
0.197535
-0.178529
-0.241561
-0.348125
-0.194718
-0.149438
-0.297452
0.0339243
-0.289105
-0.329449
-0.279052
-0.172764
-0.217512
-0.13851
-0.338113
-0.192553
-0.346563
-0.0545387
-0.0778704
-0.14271
-0.0429977
-0.105402
-0.386949
-0.116008
-0.406485
0.153459
-0.282369
-0.298971
-0.304977
0.0282323
0.0894758
-0.209754
-0.0497886
-0.145699
-0.318652
-0.139806
-0.292954
-0.204821
0.0800102
-0.121385
0.00810586
0.159538
-0.0472438
-0.104705
0.137254
-0.3527
-0.203033
-0.210359
-0.157432
-0.0656737
0.126712
-0.295148
-0.170366
-0.228031
-0.20166
-0.255623
-0.236182
-0.0783558
-0.013457
0.0370109
-0.157784
-0.174873
0.108485
0.0349811
-0.270922
-0.0795999
-0.335835
-0.304635
-0.0258445
-0.355395
0.00177602
-0.322429
0.0193182
0.199727
0.0938564
-0.332423
0.102221
0.0045074
-0.093633
0.109019
-0.0811986
0.109482
-0.0407018
-0.313013
-0.340084
-0.0829645
-0.297493
-0.0414772
-0.149399
0.0769487
-0.143224
0.125676
-0.278644
-0.192522
-0.141439
-0.268281
-0.299789
-0.0106689
0.169003
-0.284233
0.0247049
-0.219065
-0.166774
-0.202838
-0.0791605
0.07269
-0.0315683
-0.317086
0.0557173
-0.0103863
0.170581
-0.277649
-0.358944
-0.166306
-0.0598685
0.146498
-0.0059512
-0.231479
0.178522
-0.184576
-0.33762
-0.341384
-0.453003
-0.127521
-0.323564
0.151253
0.225754
-0.170538
0.204855
-0.0225362
-0.214629
0.160967
-0.342388
0.129933
-0.30604
0.0820003
-0.227623
-0.261827
-0.0567051
-0.1899
0.113899
0.0520708
0.0713953
-0.230033
-0.224114
-0.363157
0.0399532
-0.0335056
-0.126506
-0.110697
-0.032578
-0.410514
-0.290354
-0.24489
-0.320254
-0.17042
-0.325505
-0.208039
0.0490845
-0.206156
-0.188964
-0.0686405
-0.260336
-0.189165
-0.170323
-0.211314
-0.268994
0.0304975
0.0778329
-0.12653
-0.0405254
-0.422564
-0.277123
0.0266769
-0.0593168
-0.333038
0.0958103
-0.314571
-0.0786
-0.175484
-0.128122
0.0491996
-0.227848
-0.061279
-0.0151022
-0.111123
0.242663
-0.106986
-0.352883
-0.144187
-0.114427
-0.0597219
0.231886
-0.0941808
-0.162778
-0.207383
-0.12352
0.0538262
-0.310285
0.0710944
-0.213594
-0.0913784
-0.0486886
-0.077257
-0.238332
0.0446918
0.174893
-0.189066
-0.251381
-0.196988
-0.243701
-0.354784
-0.205179
-0.0177581
-0.321533
-0.35306
-0.115533
-0.328854
-0.0811896
-0.173906
-0.0556792
-0.198211
0.0721932
-0.21045
-0.00875774
0.161375
-0.305062
0.0668211
-0.155548
-0.199416
-0.109659
0.0529889
-0.175902
-0.221391
-0.106827
-0.255739
-0.251869
-0.276575
-0.30098
-0.421015
0.1413
0.168155
-0.326458
-0.184674
-0.061577
-0.359041
-0.138698
-0.288543
-0.100299
-0.064864
-0.379077
-0.427132
0.0515809
-0.168908
-0.152317
-0.18129
-0.354329
-0.343566
-0.0154127
-0.00326326
-0.126724
-0.38452
0.0805053
-0.00287923
-0.268921
-0.169742
-0.294177
0.142635
-0.282809
-0.179588
-0.317001
-0.126202
0.0742915
-0.158581
0.0160608
-0.225507
-0.154387
-0.125927
0.164357
0.228833
-0.179552
0.183977
-0.219661
-0.195404
-0.19249
-0.268218
-0.2501
0.0405065
-0.0594423
-0.162101
-0.210408
-0.383628
-0.0843463
-0.26132
-0.0932972
0.0761254
-0.275399
-0.252584
-0.196834
-0.249998
-0.0916156
-0.405445
-0.194143
0.0879068
-0.0956159
-0.350258
-0.0247668
-0.202856
-0.216764
-0.125225
-0.00169141
-0.10125
-0.0800522
-0.00750571
-0.241591
-0.126748
-0.148421
0.055274
-0.133421
-0.190812
-0.161606
-0.31087
-0.185888
0.16548
-0.000868803
0.187791
-0.215021
-0.108682
-0.299007
-0.215512
0.00442808
-0.35013
-0.366103
-0.0745061
0.00796172
-0.363098
-0.19494
-0.144812
-0.102347
-0.154446
0.218601
-0.156359
-0.192009
0.0213311
-0.206438
-0.0729271
0.00432517
-0.316946
-0.167415
-0.0461737
-0.161664
0.17104
-0.354083
-0.294255
-0.0716387
-0.123873
-0.270255
-0.167568
-0.248568
0.190583
0.148111
-0.0723988
0.047242
-0.295807
0.0101293
-0.134049
-0.0333666
0.136125
-0.355937
-0.232555
0.217061
-0.130323
-0.378246
-0.349468
0.0517066
0.205595
-0.222468
-0.0630422
-0.160273
-0.329043
-0.223181
-0.368841
-0.000172057
-0.255738
-0.22684
0.103637
-0.311246
-0.101215
-0.207345
-0.155227
-0.169601
-0.336082
-0.208645
-0.327446
-0.149569
-0.0316567
0.118472
-0.0452788
-0.142757
-0.246821
-0.386881
-0.290338
-0.144039
-0.175666
-0.0201489
-0.0371243
-0.249987
-0.253091
-0.0206455
0.0147645
0.207184
0.0327091
0.149132
-0.177004
-0.336664
-0.242242
-0.281873
0.169013
-0.181452
-0.227349
0.12782
-0.329654
-0.0364477
-0.0809709
-0.184929
-0.162672
-0.227932
-0.308767
0.0101694
-0.291269
-0.0999144
-0.219158
0.103116
-0.179024
0.247473
-0.278136
-0.219884
-0.355198
-0.430813
-0.229497
-0.0558894
-0.126279
-0.0956028
-0.192397
0.145392
-0.0545923
-0.303569
-0.318742
-0.2181
-0.343861
-0.163515
-0.348556
-0.274441
-0.290146
-0.074562
-0.326874
-0.18042
0.151498
-0.130975
0.0549629
-0.00640084
-0.286926
-0.228472
-0.226617
0.0146845
-0.307387
-0.154956
-0.165914
-0.318811
-0.365161
-0.191377
-0.0709108
-0.0649473
0.199815
0.0256243
-0.189033
-0.0963632
-0.363474
0.186047
-0.123647
0.00334022
-0.134683
-0.0756458
-0.344435
-0.241071
-0.023404
0.094742
-0.0530528
-0.183186
-0.295562
0.223653
-0.157282
0.00829675
0.15495
-0.114833
-0.224514
-0.36396
-0.0138006
-0.0736816
-0.314941
-0.129315
-0.109898
0.0806633
-0.252668
0.106848
0.208839
-0.271894
-0.272649
0.141391
-0.30604
-0.305961
-0.22578
-0.288604
-0.200667
-0.291332
-0.345004
-0.226817
-0.168753
-0.224745
-0.29193
-0.179409
-0.369097
-0.286024
-0.140059
-0.227243
-0.363808
0.0953905
0.1825
0.14756
-0.184064
-0.380539
0.263014
-0.319172
-0.218942
-0.136568
-0.310021
-0.124259
-0.0782771
-0.285018
-0.313324
-0.355969
-0.34968
-0.324281
-0.291575
-0.389988
-0.241904
-0.200899
-0.256465
0.120167
-0.187632
-0.0766086
-0.163505
-0.0130495
-0.329508
-0.290454
0.229823
-0.18229
-0.0789535
-0.32373
-0.116377
0.195674
-0.303681
-0.100727
-0.0762028
-0.357133
-0.175857
-0.319591
-0.261157
-0.0709412
-0.302822
-0.218629
-0.313795
-0.268877
-0.219879
-0.316934
-0.209865
-0.30785
-0.301271
0.192276
-0.227874
-0.190716
-0.190201
0.0991308
-0.281134
-0.345031
-0.0104015
-0.303851
-0.258698
-0.154863
-0.115105
-0.341572
-0.0424706
-0.0931529
0.177829
0.0232267
-0.330292
-0.299865
-0.361815
-0.148242
-0.380971
-0.255594
-0.172601
-0.262678
-0.178202
-0.145454
0.20954
-0.2645
-0.0865608
-0.16772
0.162139
-0.295768
0.18075
-0.154745
-0.327722
-0.132454
-0.0786337
-0.323519
0.0407625
-0.154411
0.0358962
-0.293819
-0.10719
-0.254738
0.218007
0.137331
-0.0654862
-0.12642
-0.0772259
-0.380399
-0.352517
-0.0452783
0.247002
-0.102288
-0.15565
-0.143133
-0.330759
-0.257342
-0.208926
-0.285582
-0.255093
-0.28239
-0.1832
-0.313958
-0.228313
0.235562
-0.00442371
-0.389418
-0.045711
-0.235847
-0.324051
-0.0322915
-0.307482
-0.262179
-0.0735008
-0.0889269
-0.262351
-0.227094
0.0115367
-0.299862
-0.275278
-0.280433
-0.150408
-0.279019
0.0910956
-0.376334
-0.299507
-0.2831
-0.304757
-0.10657
-0.147189
0.101109
-0.165966
-0.0428016
-0.198008
-0.157093
-0.195126
-0.0931145
-0.323381
-0.290838
-0.418486
-0.0816766
-0.26166
-0.287202
0.0612586
-0.186828
0.00186337
-0.104333
-0.249094
-0.279259
-0.282455
-0.116751
-0.186685
0.199348
-0.329683
-0.381399
-0.199785
-0.316245
-0.183564
-0.118947
-0.0668575
-0.245726
-0.248993
-0.297658
-0.150137
-0.254405
-0.123452
0.221809
0.181748
-0.281978
-0.224674
-0.0112713
-0.0869228
-0.212681
-0.310157
-0.17583
-0.326736
-0.201645
0.0826065
-0.215686
-0.374159
-0.148182
-0.214129
-0.373976
-0.295985
-0.19208
-0.0995071
0.20996
-0.309755
-0.348118
-0.178144
-0.00346144
-0.296876
-0.164579
-0.287982
-0.16396
-0.291288
-0.151409
-0.266176
-0.175771
-0.0329082
-0.281948
-0.387509
-0.210295
-0.19648
-0.0255288
0.242277
-0.179054
-0.297036
-0.291048
-0.289753
-0.298228
-0.303794
-0.32154
0.130597
-0.00706918
-0.101584
-0.171399
-0.363034
-0.0533442
0.180219
-0.296658
-0.21627
-0.33334
-0.424317
-0.235136
-0.318311
-0.430992
-0.0286617
0.0149047
-0.355151
-0.371894
-0.285558
0.122502
-0.364455
-0.015066
-0.100537
-0.22239
-0.313588
-0.230857
-0.0245107
-0.39729
-0.292691
-0.270404
-0.297784
-0.17554
-0.0187141
-0.183682
-0.257732
-0.0572488
-0.303706
-0.284958
0.0483405
-0.175619
0.0438416
-0.174625
-0.299941
-0.0808092
0.0270322
-0.217061
-0.355755
0.0822923
-0.175695
-0.288335
0.0132968
-0.201573
0.0978886
-0.22415
-0.277558
-0.104317
-0.270885
-0.266264
-0.228672
-0.33137
-0.390669
-0.347552
-0.272681
-0.420975
0.0735007
-0.275372
-0.263453
-0.16924
-0.207113
0.189911
0.193297
-0.34515
-0.0540762
-0.0215918
-0.359778
0.0831412
-0.41105
-0.308815
-0.204717
-0.308898
-0.0058579
-0.327084
-0.320987
-0.195579
-0.314954
-0.124806
-0.381661
0.0327049
-0.101028
0.134774
-0.0893176
-0.318573
-0.35596
-0.33739
0.22999
-0.0355431
-0.137669
-0.237922
-0.17017
-0.28567
0.018066
-0.0542273
-0.227309
-0.130883