/*--------------------------------*- C++ -*----------------------------------*\
  =========                 |
  \\      /  F ield         | OpenFOAM: The Open Source CFD Toolbox
   \\    /   O peration     | Website:  https://openfoam.org
    \\  /    A nd           | Version:  6
     \\/     M anipulation  |
\*---------------------------------------------------------------------------*/
FoamFile
{
    version     2.0;
    format      ascii;
    class       volScalarField;
    location    "0";
    object      T;
}
// * * * * * * * * * * * * * * * * * * * * * * * * * * * * * * * * * * * * * //

dimensions      [0 0 0 1 0 0 0];

internalField   nonuniform List<scalar> 
10000
(
3.95668
11.7207
18.8342
24.8551
29.6944
33.4407
36.2599
38.3207
39.763
40.6941
41.1979
41.3448
41.1996
40.824
40.278
39.6175
38.8949
38.1561
37.4417
36.7843
36.2104
35.7397
35.3872
35.1624
35.0715
35.1168
35.298
35.6121
36.0541
36.6169
37.2922
38.0698
38.9386
39.8865
40.9002
41.966
43.0695
44.1957
45.3296
46.4557
47.5585
48.6228
49.6331
50.5744
51.432
52.1917
52.8395
53.3622
53.7471
53.9824
54.0568
53.96
53.6824
53.2155
52.5516
51.684
50.6069
49.3156
47.8063
46.0762
44.1234
41.947
39.5469
36.9241
34.08
31.0174
27.7392
24.2495
20.553
16.655
12.5617
8.27985
3.81702
-0.818325
-5.61691
-10.5683
-15.6607
-20.8811
-26.2142
-31.6426
-37.1455
-42.6984
-48.2713
-53.8273
-59.3199
-64.69
-69.861
-74.7324
-79.1718
-83.0036
-85.9964
-87.8488
-88.1779
-86.5162
-82.3269
-75.0495
-64.2076
-49.5906
-31.4839
-10.8407
4.10761
12.0858
19.2784
25.3224
30.1606
33.9035
36.7237
38.7903
40.2382
41.172
41.6726
41.8109
41.6511
41.2574
40.6896
40.0064
39.2597
38.4977
37.7612
37.0846
36.4932
36.0077
35.6416
35.4055
35.3046
35.3417
35.5157
35.8242
36.2614
36.8207
37.4931
38.2687
39.1361
40.083
41.0961
42.1614
43.2644
44.3902
45.5234
46.6486
47.7504
48.813
49.8215
50.7605
51.6156
52.3721
53.0166
53.5354
53.9164
54.1471
54.2171
54.1153
53.8329
53.3607
52.6917
51.8186
50.7363
49.4395
47.925
46.1894
44.2314
42.0496
39.6444
37.0162
34.1673
31.0994
27.8163
24.3215
20.6201
16.7169
12.6186
8.33128
3.86295
-0.778479
-5.58349
-10.5422
-15.6428
-20.8728
-26.2172
-31.6591
-37.1785
-42.7518
-48.3502
-53.9382
-59.4715
-64.8936
-70.1312
-75.0881
-79.6364
-83.6056
-86.768
-88.8229
-89.3813
-87.9584
-83.9837
-76.8359
-65.9661
-51.0985
-32.5055
-11.2104
4.20203
12.3403
19.6755
25.8535
30.8221
34.6894
37.626
39.7947
41.329
42.3295
42.8785
43.0455
42.8984
42.5011
41.9178
41.2072
40.4252
39.6201
38.8372
38.1137
37.4775
36.9478
36.5402
36.2638
36.1251
36.1261
36.2667
36.5436
36.9517
37.4837
38.131
38.8831
39.7286
40.655
41.6487
42.6957
43.781
44.8896
46.0059
47.1144
48.1993
49.2452
50.2365
51.1584
51.9958
52.7349
53.3612
53.8624
54.2251
54.4383
54.4901
54.3711
54.0711
53.5824
52.8966
52.0079
50.9099
49.5986
48.0695
46.3206
44.3494
42.1557
39.7386
37.0998
34.2401
31.1627
27.8701
24.3668
20.6568
16.7459
12.6395
8.34458
3.86815
-0.781361
-5.5954
-10.5637
-15.6756
-20.9184
-26.2783
-31.7388
-37.2811
-42.8826
-48.5161
-54.148
-59.7363
-65.2271
-70.5505
-75.6141
-80.2938
-84.4225
-87.7738
-90.0442
-90.8334
-89.6331
-85.8239
-78.7272
-67.7334
-52.5324
-33.4234
-11.522
4.32582
12.7122
20.2923
26.7114
31.9134
36.0031
39.1441
41.4949
43.1836
44.3094
44.9526
45.1844
45.0731
44.6861
44.0891
43.3451
42.5118
41.6415
40.7798
39.9714
39.2499
38.6363
38.146
37.7896
37.5735
37.5005
37.5706
37.7808
38.1261
38.5994
39.1917
39.8927
40.6907
41.5727
42.5252
43.5335
44.5826
45.6569
46.7406
47.8178
48.8725
49.889
50.8517
51.7452
52.5548
53.2661
53.8654
54.3393
54.6755
54.8622
54.8883
54.7437
54.4191
53.9061
53.1972
52.2858
51.1663
49.8341
48.2855
46.5177
44.529
42.3183
39.8856
37.2318
34.3584
31.2678
27.9632
24.4483
20.7276
16.8063
12.69
8.3853
3.89917
-0.760525
-5.58519
-10.5653
-15.6903
-20.9482
-26.3258
-31.8075
-37.3754
-43.0079
-48.6791
-54.357
-60.0012
-65.5598
-70.9648
-76.1256
-80.9199
-85.1809
-88.6805
-91.1085
-92.0511
-90.9743
-87.2208
-80.0766
-68.9061
-53.4056
-33.9288
-11.6737
4.49313
13.2186
21.1383
27.8911
33.4152
37.8092
41.2302
43.8312
45.7355
47.0401
47.8237
48.1583
48.1132
47.7583
47.1618
46.3901
45.504
44.5592
43.604
42.6829
41.842
41.1078
40.4969
40.0214
39.6885
39.5024
39.4635
39.5697
39.8161
40.1959
40.7004
41.3192
42.0404
42.851
43.7369
44.6833
45.6747
46.695
47.7282
48.7577
49.7673
50.7408
51.6623
52.5161
53.2874
53.9614
54.5244
54.9628
55.2644
55.4172
55.4105
55.2337
54.8781
54.3349
53.597
52.6576
51.5115
50.1538
48.5811
46.7903
44.78
42.5489
40.0973
37.4256
34.5356
31.4295
28.1105
24.582
20.8488
16.9155
12.788
8.47218
3.97518
-0.695643
-5.53185
-10.5245
-15.6632
-20.9369
-26.3326
-31.8356
-37.4285
-43.0909
-48.7976
-54.5176
-60.2113
-65.8276
-71.299
-76.535
-81.4126
-85.7626
-89.3527
-91.8646
-92.8709
-91.8155
-88.0227
-80.7655
-69.412
-53.6929
-34.0271
-11.6758
4.69806
13.8374
22.1704
29.3275
35.2402
39.9995
43.7569
46.6594
48.8271
50.3539
51.3182
51.7915
51.8448
51.5494
50.9765
50.1948
49.2688
48.2569
47.2108
46.1745
45.198
44.3209
43.5638
42.9405
42.4607
42.1298
41.9497
41.9192
42.0344
42.2892
42.6751
43.1819
43.7979
44.5099
45.3038
46.1642
47.0755
48.0211
48.9844
49.9487
50.8969
51.8126
52.6792
53.481
54.2024
54.8287
55.3456
55.7398
55.9984
56.1098
56.0627
55.8472
55.454
54.8748
54.102
53.1295
51.9516
50.5637
48.9623
47.1446
45.1088
42.854
40.38
37.6876
34.7782
31.6542
28.3184
24.7746
21.027
17.0804
12.9403
8.61252
4.10378
-0.578647
-5.42684
-10.432
-15.5844
-20.8733
-26.2862
-31.8089
-37.4249
-43.114
-48.8516
-54.6071
-60.3412
-66.0023
-71.5225
-76.8095
-81.7378
-86.1344
-89.7607
-92.2903
-93.2837
-92.1712
-88.2745
-80.871
-69.3537
-53.504
-33.8067
-11.5656
4.9291
14.5334
23.3287
30.9366
37.2805
42.4445
46.5739
49.8116
52.2744
54.0544
55.2291
55.8704
56.0502
55.8417
55.3179
54.5502
53.6056
52.5457
51.4247
50.2895
49.1837
48.161
47.2493
46.4658
45.8229
45.3283
44.9859
44.7964
44.757
44.8625
45.1054
45.476
45.9628
46.5528
47.2319
47.9846
48.7949
49.6461
50.521
51.4025
52.2731
53.1158
53.9137
54.6504
55.3101
55.8776
56.3383
56.6786
56.8856
56.9473
56.8524
56.5909
56.1535
55.5318
54.7184
53.7069
52.492
51.0689
49.4342
47.5851
45.5198
43.2374
40.7377
38.0214
35.0898
31.9452
28.5903
25.029
21.2652
17.3037
13.1497
8.80894
4.28782
-0.406689
-5.26693
-10.2845
-15.45
-20.7531
-26.1817
-31.7222
-37.3583
-43.0702
-48.8337
-54.6178
-60.383
-66.0769
-71.6295
-76.9463
-81.8978
-86.3057
-89.925
-92.4206
-93.3438
-92.1225
-88.0835
-80.5222
-68.8706
-52.9686
-33.363
-11.3805
5.17528
15.2737
24.5583
32.6415
39.4384
45.0264
49.5459
53.1359
55.9109
57.9615
59.3649
60.1935
60.5203
60.4198
59.9674
59.2364
58.2965
57.2114
56.038
54.8258
53.6156
52.4615
51.4034
50.4632
49.6564
48.9937
48.4817
48.123
47.9168
47.8594
47.9442
48.1625
48.5035
48.9545
49.5017
50.1296
50.8222
51.5625
52.3332
53.1166
53.895
54.6509
55.367
56.0265
56.613
57.111
57.5057
57.7829
57.9296
57.9334
57.7832
57.4686
56.9803
56.3098
55.4498
54.3938
53.1365
51.6733
50.0005
48.1156
46.0167
43.7028
41.1738
38.4302
35.4735
32.3056
28.9293
25.3481
21.5661
17.588
13.4187
9.06389
4.5296
-0.177447
-5.04987
-10.0796
-15.2576
-20.5738
-26.0167
-31.5729
-37.2263
-42.9575
-48.742
-54.5488
-60.3374
-66.0539
-71.6262
-76.9563
-81.9101
-86.3035
-89.8842
-92.3098
-93.1252
-91.7634
-87.5626
-79.8453
-68.0905
-52.2004
-32.7763
-11.1505
5.4281
16.0326
25.8162
34.3825
41.6385
47.6556
52.5695
56.5163
59.6084
61.9356
63.5749
64.5996
65.0838
65.104
64.7375
64.06
63.1433
62.0533
60.8494
59.583
58.2965
57.0356
55.8512
54.7701
53.8114
52.9892
52.3128
51.7872
51.4138
51.1907
51.1128
51.1724
51.3598
51.6629
52.0682
52.5608
53.1246
53.7427
54.3977
55.0716
55.7466
56.4047
57.0284
57.6004
58.104
58.5233
58.843
59.0489
59.1274
59.0662
58.8538
58.4795
57.9341
57.2091
56.2969
55.1913
53.8866
52.3785
50.6633
48.7383
46.6018
44.2528
41.691
38.917
35.9322
32.7384
29.3383
25.7351
21.9329
17.9363
13.7503
9.38016
4.83179
0.111621
-4.77327
-9.81508
-15.0052
-20.3338
-25.7897
-31.3597
-37.0282
-42.7757
-48.5777
-54.4025
-60.2085
-65.9404
-71.5231
-76.8549
-81.7966
-86.1577
-89.6789
-92.011
-92.6975
-91.1788
-86.8095
-78.9453
-67.1169
-51.2884
-32.1076
-10.8971
5.6816
16.7921
27.073
36.119
43.83
50.2717
55.5757
59.8751
63.2805
65.8811
67.7543
68.9742
69.6169
69.7608
69.4858
68.8699
67.9872
66.9062
65.6882
64.3866
63.0463
61.7064
60.4203
59.2208
58.1305
57.1663
56.3403
55.6602
55.1294
54.7479
54.5123
54.4163
54.4511
54.6057
54.8672
55.2211
55.6517
56.1424
56.6756
57.2335
57.7982
58.3514
58.8754
59.3526
59.7661
60.0997
60.3378
60.4658
60.47
60.3377
60.0572
59.618
59.0104
58.2259
57.2569
56.0971
54.7409
53.1838
51.4223
49.4536
47.276
44.8885
42.2908
39.4836
36.4679
33.2458
29.8196
26.1925
22.3682
18.3515
14.1472
9.76045
5.19697
0.462923
-4.43489
-9.48898
-14.691
-20.0315
-25.4996
-31.0825
-36.7644
-42.5262
-48.3429
-54.1824
-60.002
-65.7442
-71.3314
-76.6575
-81.578
-85.8961
-89.3454
-91.5703
-92.1187
-90.4376
-85.9017
-77.9038
-66.0281
-50.2986
-31.4004
-10.6354
5.9319
17.5412
28.3104
37.8266
45.9829
52.8396
58.524
63.1664
66.8754
69.7399
71.8375
73.2441
74.0379
74.3001
74.1131
73.5581
72.712
71.6456
70.4226
69.0982
67.7189
66.323
64.9592
63.6652
62.4664
61.3823
60.4275
59.6117
58.9407
58.4159
58.0357
57.795
57.6864
57.6996
57.8226
58.0415
58.3412
58.7052
59.1164
59.5572
60.0094
60.455
60.876
61.2548
61.5742
61.8179
61.9701
62.016
61.9416
61.7341
61.3816
60.8734
60.1998
59.3522
58.3229
57.1055
55.6945
54.0854
52.2745
50.2592
48.0377
45.609
42.9729
40.1299
37.0811
33.8285
30.3744
26.7217
22.8739
18.8354
14.6113
10.2067
5.62702
0.878226
-4.03317
-9.09997
-14.3141
-19.6665
-25.1465
-30.7414
-36.436
-42.2107
-48.0406
-53.8928
-59.7235
-65.4732
-71.0612
-76.3774
-81.2719
-85.5414
-88.913
-91.0264
-91.4345
-89.5925
-84.8975
-76.781
-64.8812
-49.2777
-30.685
-10.3751
6.17684
18.2732
29.5187
39.4926
48.0819
55.3414
61.394
66.3664
70.3655
73.4795
75.7871
77.366
78.297
78.6647
78.5552
78.0528
77.2378
76.184
74.9573
73.6153
72.2064
70.769
69.3463
67.9786
66.6935
65.5124
64.4516
63.5226
62.7325
62.0846
61.5783
61.2099
60.9729
60.858
60.854
60.9478
61.1246
61.3686
61.6631
61.9904
62.3329
62.6725
62.9913
63.2718
63.4967
63.6495
63.7144
63.6764
63.5216
63.2369
62.8103
62.231
61.4892
60.5762
59.4845
58.2074
56.7394
55.0761
53.2138
51.1499
48.8826
46.4108
43.7344
40.8539
37.7703
34.4856
31.0019
27.3222
23.4498
19.3885
15.1434
10.7197
6.12277
1.35828
-3.56748
-8.64761
-13.8743
-19.2388
-24.7308
-30.3378
-36.0446
-41.8317
-47.674
-53.5379
-59.3784
-65.134
-70.7211
-76.0255
-80.8919
-85.1109
-88.4032
-90.407
-90.6781
-88.6818
-83.8387
-75.6198
-63.7156
-48.2571
-29.9804
-10.1223
6.41519
18.9853
30.6932
41.1115
50.1207
57.7698
64.1767
69.4643
73.7375
77.0838
79.583
81.3153
82.3649
82.8203
82.7716
82.3076
81.5122
80.4625
79.2274
77.8666
76.4304
74.9586
73.4902
72.0653
70.7129
69.4556
68.3109
67.2913
66.4051
65.6564
65.0457
64.5701
64.2238
63.9986
63.8837
63.8668
63.9336
64.0689
64.2562
64.4784
64.7181
64.9575
65.1788
65.3646
65.4978
65.5618
65.5409
65.4201
65.1854
64.8236
64.3229
63.6722
62.8618
61.883
60.728
59.3905
57.8648
56.1464
54.2317
52.1182
49.804
47.2882
44.5705
41.6514
38.5319
35.214
31.6998
27.9921
24.0941
20.0094
15.7425
11.2989
6.68371
1.90266
-3.03828
-8.13246
-13.3724
-18.7496
-24.2539
-29.8732
-35.5923
-41.3919
-47.2464
-53.1217
-58.9714
-64.7324
-70.3181
-75.6102
-80.4484
-84.6171
-87.831
-89.731
-89.8725
-87.7321
-82.7542
-74.4491
-62.5577
-47.2571
-29.2986
-9.88002
6.6465
19.6759
31.8323
42.6814
52.0973
60.1224
66.869
72.4557
76.9851
80.5442
83.2142
85.0781
86.2243
86.7458
86.7377
86.2935
85.5017
84.4431
83.1899
81.8044
80.3386
78.834
77.3271
75.8564
74.4515
73.1357
71.9269
70.8382
69.8781
69.0513
68.3587
67.7979
67.3637
67.0483
66.8415
66.7314
66.7043
66.7454
66.8388
66.9677
67.115
67.2632
67.3949
67.4929
67.5402
67.5204
67.4179
67.2178
66.906
66.4697
65.8968
65.1763
64.2986
63.2549
62.0377
60.6403
59.0573
57.2842
55.3174
53.1544
50.7934
48.2334
45.4742
42.5162
39.3606
36.0091
32.4639
28.7277
24.8036
20.6952
16.4063
11.9421
7.30809
2.50974
-2.44713
-7.55611
-12.81
-18.2005
-23.7178
-29.3499
-35.0818
-40.8942
-46.7611
-52.6478
-58.507
-64.2733
-69.8576
-75.1379
-79.9487
-84.0693
-87.2093
-89.0123
-89.0335
-86.7607
-81.6627
-73.2876
-61.4238
-46.2894
-28.6456
-9.64999
6.87048
20.3448
32.9355
44.2021
54.0114
62.3986
69.4696
75.3385
80.105
83.8559
86.674
88.6459
89.8645
90.4282
90.438
89.9927
89.1857
88.1025
86.8185
85.399
83.8979
82.3586
80.8159
79.3066
77.8603
76.5003
75.2444
74.1055
73.0921
72.2086
71.456
70.832
70.3314
69.9468
69.6682
69.484
69.3811
69.3448
69.3597
69.4094
69.4771
69.5458
69.5984
69.6178
69.5875
69.4913
69.3136
69.0398
68.6561
68.1496
67.5083
66.7215
65.7794
64.6735
63.3962
61.941
60.3025
58.4762
56.4587
54.2474
51.8405
49.2372
46.4371
43.4409
40.2495
36.8647
33.2887
29.5241
25.574
21.4417
17.131
12.6462
7.99296
3.17681
-1.79658
-6.92101
-12.1895
-17.5941
-23.125
-28.7707
-34.5161
-40.3417
-46.2215
-52.12
-57.9887
-63.7607
-69.344
-74.6131
-79.398
-83.4726
-86.5461
-88.2596
-88.1707
-85.7787
-80.5756
-72.1462
-60.3226
-45.3597
-28.024
-9.43228
7.0871
20.9915
34.0028
45.6735
55.8627
64.5977
71.9774
78.1106
83.0942
87.0149
89.9575
92.0125
93.2783
93.8595
93.8632
93.3945
92.5526
91.4276
90.0989
88.6345
87.0908
85.5124
83.9342
82.3906
80.911
79.5181
78.2293
77.0566
76.0079
75.0871
74.2947
73.6281
73.0819
72.6485
72.3181
72.0793
71.9189
71.8228
71.7756
71.7616
71.7641
71.7666
71.7521
71.7041
71.6063
71.4427
71.1982
70.8583
70.4093
69.8385
69.1344
68.2861
67.2841
66.12
64.7862
63.2765
61.5854
59.7087
57.6428
55.3853
52.9346
50.2896
47.4503
44.417
41.1911
37.774
34.1679
30.3756
26.3998
22.244
17.9117
13.4068
8.73446
3.90031
-1.08998
-6.23038
-11.5141
-16.9334
-22.4788
-28.1388
-33.8983
-39.7378
-45.631
-51.5417
-57.4203
-63.1982
-68.7809
-74.0394
-78.7998
-82.8307
-85.8452
-87.4778
-87.2898
-84.792
-79.499
-71.03
-59.2579
-44.4696
-27.4333
-9.22661
7.29612
21.6159
35.0337
47.0949
57.6503
66.7184
74.3903
80.7693
85.9495
90.0173
93.0603
95.1734
96.4609
97.0345
97.0083
96.4943
95.5977
94.4139
93.0264
91.5063
89.9121
88.2899
86.6748
85.0996
83.5927
82.1762
80.866
79.6734
78.605
77.6639
76.8496
76.1589
75.586
75.1229
74.7596
74.4845
74.2847
74.1461
74.0535
73.9915
73.9437
73.8938
73.8254
73.722
73.5679
73.3473
73.0454
72.6481
72.1418
71.5143
70.7539
69.8503
68.7941
67.5769
66.1914
64.6315
62.8918
60.9682
58.8574
56.5568
54.0649
51.3808
48.5044
45.4363
42.1775
38.7297
35.0949
31.2759
27.2754
23.0967
18.7434
14.2191
9.52811
4.67611
-0.33122
-5.48793
-10.7874
-16.2221
-21.7826
-27.4575
-33.2318
-39.0859
-44.9929
-50.9162
-56.8049
-62.5888
-68.1711
-73.4197
-78.1568
-82.15
-85.1105
-86.6702
-86.3937
-83.8033
-78.4351
-69.9406
-58.23
-43.618
-26.8721
-9.03182
7.4975
22.2173
36.0274
48.4653
59.3727
68.7586
76.7057
83.3114
88.6672
92.8595
95.9788
98.1252
99.4097
99.9515
99.8727
99.2925
98.3228
97.0643
95.6052
94.0194
92.3677
90.6974
89.0442
87.4393
85.91
84.4772
83.1554
81.9544
80.8795
79.9324
79.1116
78.413
77.8299
77.354
76.9747
76.6803
76.4577
76.2928
76.1707
76.0759
75.9924
75.904
75.7948
75.6486
75.4497
75.1831
74.8341
74.3888
73.8341
73.1579
72.349
71.3971
70.2931
69.0289
67.5973
65.9923
64.2089
62.2429
60.0911
57.7511
55.2216
52.5016
49.5911
46.4906
43.2013
39.7248
36.0632
32.219
28.1951
23.9947
19.6211
15.0779
10.3691
5.49976
0.47549
-4.69768
-10.0133
-15.4637
-21.0399
-26.7304
-32.5202
-38.3894
-44.3107
-50.2468
-56.1457
-61.9356
-67.5174
-72.7562
-77.4706
-81.4319
-84.344
-85.8383
-85.4837
-82.8132
-77.3838
-68.877
-57.2368
-42.8021
-26.3375
-8.847
7.69092
22.7955
36.9829
49.7831
61.0277
70.7153
78.9201
85.7334
91.2438
95.5382
98.7105
100.866
102.124
102.612
102.46
101.795
100.735
99.3889
97.8473
96.1879
94.4732
92.7519
91.0599
89.4273
87.8801
86.4374
85.1121
83.9122
82.8416
81.9003
81.0857
80.3926
79.8134
79.339
78.9584
78.6595
78.429
78.2525
78.1153
78.0018
77.8962
77.7826
77.6452
77.4682
77.2363
76.9346
76.5488
76.0653
75.4713
74.7551
73.9057
72.9131
71.7684
70.4638
68.9923
67.348
65.5261
63.5227
61.3346
58.9596
56.3964
53.6441
50.7028
47.5731
44.256
40.7533
37.067
33.1995
29.1537
24.9327
20.5399
15.9786
11.2528
6.36672
1.32588
-3.86374
-9.19562
-14.6623
-20.2547
-25.9613
-31.767
-37.6517
-43.5876
-49.5366
-55.4456
-61.2412
-66.8223
-72.0513
-76.7467
-80.679
-83.5473
-84.9832
-84.5599
-81.8213
-76.3437
-67.8367
-56.275
-42.0181
-25.8267
-8.67067
7.87625
23.3493
37.8989
51.0464
62.6126
72.5856
81.0302
88.0319
93.6763
98.0513
101.254
103.398
104.608
105.021
104.777
104.011
102.85
101.404
99.7724
98.034
96.2533
94.4797
92.7496
91.092
89.5311
88.084
86.7619
85.5709
84.5131
83.5871
82.7889
82.1121
81.5482
81.0871
80.7174
80.4264
80.2005
80.0251
79.8853
79.7656
79.6503
79.5236
79.3698
79.1734
78.9194
78.593
78.1804
77.6683
77.0443
76.2967
75.4149
74.3893
73.2112
71.873
70.368
68.6906
66.8359
64.8003
62.5809
60.1755
57.5828
54.8022
51.8338
48.6781
45.3363
41.81
38.1014
34.2127
30.1468
25.9067
21.4956
16.9171
12.1748
7.27273
2.21576
-2.99012
-8.33838
-13.8215
-19.4305
-25.1537
-30.9758
-36.8763
-42.8269
-48.7887
-54.7075
-60.5083
-66.0881
-71.307
-75.9876
-79.8933
-82.7217
-84.1055
-83.6221
-80.8261
-75.3125
-66.8165
-55.3405
-41.262
-25.3363
-8.50189
8.05316
23.8785
38.7743
52.2534
64.1253
74.3666
83.0332
90.2041
95.9627
100.398
103.612
105.723
106.867
107.189
106.838
105.959
104.685
103.134
101.407
99.5872
97.7398
95.9151
94.1491
92.4698
90.8994
89.4529
88.1395
86.9636
85.9253
85.0219
84.2478
83.5955
83.0556
82.6171
82.268
81.9949
81.7838
81.62
81.4883
81.373
81.2586
81.1293
80.9695
80.7639
80.4977
80.1564
79.7265
79.1948
78.5493
77.7786
76.8724
75.8214
74.6171
73.2521
71.72
70.0154
68.1338
66.0714
63.8257
61.3946
58.7768
55.972
52.9801
49.8018
46.4383
42.8912
39.1626
35.2548
31.1706
26.9128
22.4848
17.8898
13.1315
8.21389
3.1413
-2.08061
-7.44528
-12.9451
-18.571
-24.311
-30.1498
-36.0663
-42.0318
-48.0062
-53.9343
-59.7396
-65.3173
-70.5295
-75.1961
-79.0768
-81.8688
-83.2056
-82.6699
-79.8265
-74.2878
-65.8129
-54.4293
-40.5298
-24.8635
-8.33926
8.22157
24.3821
39.6079
53.4024
65.5634
76.0559
84.9266
92.2484
98.1026
102.579
105.786
107.848
108.91
109.127
108.658
107.658
106.265
104.606
102.783
100.883
98.971
97.0983
95.3002
93.6035
92.028
90.5866
89.2864
88.1302
87.1164
86.2407
85.4962
84.8744
84.3648
83.9558
83.6343
83.3867
83.1985
83.0545
82.9393
82.8372
82.7325
82.6094
82.4525
82.2466
81.9769
81.6293
81.1903
80.6473
79.9882
79.2021
78.2789
77.2095
75.9858
74.6005
73.0475
71.3216
69.4184
67.3345
65.0674
62.6151
59.9765
57.1513
54.1395
50.942
47.5598
43.9946
40.2484
36.3235
32.2226
27.9485
23.5045
18.8938
14.1201
9.18705
4.09907
-1.1387
-6.51973
-12.0364
-17.6794
-23.4366
-29.2923
-35.225
-41.2051
-47.1918
-53.1287
-58.9379
-64.5142
-69.7216
-74.3746
-78.2316
-80.9897
-82.2843
-81.703
-78.8209
-73.2671
-64.8227
-53.5376
-39.8177
-24.4053
-8.18207
8.38123
24.8599
40.3988
54.4921
66.9253
77.6519
86.7091
94.1643
100.097
104.599
107.782
109.781
110.75
110.853
110.26
109.133
107.621
105.853
103.937
101.96
99.9887
98.0731
96.2482
94.5389
92.9629
91.5308
90.2479
89.115
88.1292
87.2847
86.5733
85.9857
85.5108
85.1356
84.8468
84.6301
84.4703
84.3522
84.26
84.1778
84.0897
83.9799
83.8331
83.634
83.3682
83.0215
82.5808
82.0334
81.3678
80.5731
79.6394
78.5581
77.321
75.9213
74.353
72.6112
70.6916
68.591
66.3069
63.8376
61.1822
58.3402
55.3119
52.0981
48.6999
45.1189
41.3572
37.4171
33.301
29.0119
24.5528
19.927
15.138
10.1897
5.08625
-0.167325
-5.56481
-11.0985
-16.7588
-22.5334
-28.4062
-34.355
-40.3496
-46.3484
-52.2936
-58.1065
-63.6838
-68.8859
-73.5252
-77.3595
-80.0859
-81.3422
-80.7213
-77.8085
-72.2484
-63.8428
-52.6618
-39.1224
-23.9597
-8.02917
8.53219
25.3115
41.1467
55.5218
68.2102
79.1538
88.3807
95.9529
101.948
106.462
109.61
111.536
112.402
112.385
111.665
110.412
108.782
106.911
104.908
102.861
100.837
98.8849
97.039
95.3222
93.7502
92.3314
91.0693
89.9629
89.0077
88.1967
87.5207
86.9696
86.5317
86.193
85.9397
85.7571
85.6296
85.5414
85.4766
85.419
85.3526
85.2615
85.1303
84.9438
84.6876
84.3477
83.9111
83.3653
82.6989
81.9013
80.9628
79.8749
78.6298
77.2209
75.6422
73.8891
71.9575
69.8444
67.5473
65.0648
62.3959
59.5404
56.4985
53.271
49.8591
46.2644
42.489
38.535
34.4049
30.1016
25.6281
20.9876
16.1836
11.2199
6.10074
0.831059
-4.58308
-10.1339
-15.8118
-21.604
-27.494
-33.459
-39.4681
-45.4786
-51.432
-57.25
-62.8285
-68.0247
-72.6502
-76.4622
-79.1588
-80.3802
-79.7249
-76.7882
-71.2299
-62.8707
-51.7989
-38.441
-23.5243
-7.88015
8.67436
25.7372
41.8514
56.4914
69.4181
80.5619
89.9424
97.6167
103.662
108.175
111.279
113.125
113.885
113.747
112.9
111.525
109.784
107.817
105.736
103.628
101.56
99.5781
97.7165
95.9965
94.4316
93.0289
91.7899
90.7122
89.7901
89.0153
88.3777
87.8656
87.4663
87.1657
86.9493
86.8025
86.7091
86.6531
86.6184
86.5884
86.5469
86.4782
86.3664
86.1967
85.9544
85.6257
85.1977
84.658
83.9954
83.1995
82.2607
81.1707
79.9219
78.5079
76.9229
75.1624
73.2225
71.1003
68.7936
66.3008
63.6213
60.7548
57.7015
54.4624
51.0387
47.4319
43.644
39.6772
35.5341
31.2173
26.7297
22.0747
17.2556
12.2762
7.14094
1.85467
-3.57651
-9.14492
-14.8406
-20.6508
-26.5581
-32.5395
-38.563
-44.5854
-50.5477
-56.3715
-61.9502
-67.1399
-71.7512
-75.5415
-78.2098
-79.3992
-78.7141
-75.7599
-70.2105
-61.9044
-50.9465
-37.7711
-23.0977
-7.73412
8.80799
26.1371
42.5134
57.4013
70.5497
81.8778
91.3969
99.1598
105.243
109.747
112.801
114.563
115.216
114.959
113.991
112.502
110.662
108.611
106.462
104.303
102.197
100.193
98.3205
96.601
95.0461
93.6614
92.4469
91.3991
90.511
89.7735
89.1754
88.7041
88.346
88.0863
87.9097
87.8004
87.7423
87.7194
87.7158
87.7148
87.7001
87.6557
87.5657
87.4153
87.1897
86.8752
86.4589
85.9287
85.2732
84.4822
83.5465
82.4577
81.2085
79.7925
78.2043
76.4393
74.494
72.3653
70.0514
67.5507
64.8626
61.987
58.9241
55.6749
52.2406
48.6227
44.8233
40.8444
36.6886
32.3585
27.857
23.1874
18.353
13.3577
8.20575
2.90232
-2.54649
-8.13295
-13.8469
-19.6753
-25.6004
-31.5983
-37.6366
-43.6712
-49.6428
-55.472
-61.0504
-66.2329
-70.8298
-74.5988
-77.2402
-78.4003
-77.6896
-74.7232
-69.1891
-60.9423
-50.1027
-37.111
-22.6784
-7.59094
8.93317
26.5119
43.1337
58.2529
71.6068
83.1039
92.7478
100.588
106.7
111.189
114.188
115.867
116.415
116.043
114.964
113.376
111.449
109.326
107.121
104.919
102.784
100.763
98.8855
97.1703
95.6281
94.2632
93.0746
92.0575
91.204
90.5041
89.9457
89.5155
89.199
88.9809
88.8453
88.7759
88.7561
88.7691
88.7982
88.8269
88.8393
88.8199
88.7527
88.6227
88.4153
88.1167
87.7139
87.195
86.5487
85.7648
84.8343
83.749
82.5015
81.0857
79.4963
77.7288
75.7798
73.6466
71.327
68.82
66.1247
63.2411
60.1697
56.9112
53.467
49.8386
46.0279
42.0372
37.8688
33.5254
29.0098
24.3253
19.4752
14.4635
9.29445
3.97327
-1.49381
-7.09889
-12.8317
-18.6788
-24.6219
-30.6368
-36.6902
-42.7376
-48.7186
-54.5527
-60.13
-65.305
-69.8876
-73.6358
-76.2515
-77.3846
-76.652
-73.6785
-68.1655
-59.9834
-49.266
-36.4591
-22.2655
-7.44994
9.05033
26.8624
43.7135
59.0482
72.5921
84.2438
94.0001
101.907
108.041
112.51
115.456
117.05
117.498
117.023
115.847
114.173
112.174
109.992
107.741
105.505
103.35
101.318
99.4404
97.7331
96.2064
94.8634
93.702
92.7166
91.8983
91.2361
90.7175
90.3282
90.0532
89.8767
89.7822
89.7528
89.7717
89.8216
89.8856
89.9467
89.9886
89.9951
89.9507
89.8411
89.652
89.3696
88.981
88.4741
87.8379
87.0621
86.1379
85.057
83.8124
82.3979
80.8084
79.0395
77.0879
74.9509
72.6266
70.1138
67.4119
64.5209
61.4412
58.1738
54.7198
51.081
47.2591
43.2563
39.0751
34.7181
30.1881
25.4882
20.622
15.5934
10.4067
5.06716
-0.418798
-6.04312
-11.7953
-17.6616
-23.6234
-29.6556
-35.7246
-41.7849
-47.7754
-53.614
-59.19
-64.3573
-68.9257
-72.6536
-75.245
-76.3535
-75.6024
-72.6262
-67.1394
-59.0271
-48.4354
-35.8144
-21.8581
-7.31119
9.15974
27.1899
44.2548
59.7897
73.5092
85.3024
95.1598
103.125
109.276
113.723
116.613
118.126
118.483
117.92
116.664
114.92
112.862
110.633
108.346
106.087
103.918
101.882
100.008
98.3129
96.8045
95.4855
94.3529
93.4001
92.6176
91.9937
91.5148
91.1664
90.9327
90.7973
90.7435
90.7538
90.8111
90.8977
90.9965
91.0903
91.1625
91.1967
91.1774
91.0895
90.9187
90.652
90.277
89.7818
89.1554
88.3877
87.4697
86.3934
85.1517
83.7387
82.1492
80.3791
78.4249
76.2843
73.9553
71.4368
68.7282
65.8297
62.7416
59.465
56.0009
52.3512
48.5177
44.5024
40.3079
35.9367
31.3918
26.6761
21.7933
16.7472
11.5423
6.18393
0.678549
-4.96557
-10.7378
-16.6238
-22.6047
-28.6548
-34.7398
-40.8134
-46.8133
-52.6563
-58.2311
-63.3909
-67.9454
-71.6539
-74.2223
-75.3083
-74.5419
-71.5672
-66.1112
-58.0732
-47.6105
-35.1764
-21.4561
-7.17422
9.26199
27.4956
44.7599
60.4806
74.3621
86.2849
96.2338
104.251
110.414
114.837
117.67
119.109
119.39
118.756
117.437
115.637
113.534
111.269
108.957
106.682
104.506
102.473
100.608
98.9274
97.4403
96.1475
95.0454
94.1265
93.3807
92.7953
92.3564
92.0488
91.8561
91.7615
91.7478
91.7973
91.8923
92.0151
92.1481
92.2741
92.3761
92.4378
92.4435
92.3779
92.2269
91.977
91.6156
91.1312
90.5135
89.7529
88.8402
87.7677
86.5282
85.116
83.5259
81.7539
79.7966
77.6517
75.3174
72.7925
70.0767
67.1699
64.0728
60.7862
57.3114
53.6502
49.8043
45.7759
41.5674
37.1815
32.621
27.8889
22.9889
17.925
12.7014
7.32371
1.79842
-3.86605
-9.65873
-15.565
-21.5655
-27.6341
-33.7356
-39.8227
-45.8324
-51.6801
-57.254
-62.4067
-66.9479
-70.6379
-73.1849
-74.2506
-73.4718
-70.5023
-65.0815
-57.1218
-46.7909
-34.5447
-21.0588
-7.03925
9.35752
27.7814
45.2314
61.1247
75.156
87.1975
97.2297
105.292
111.464
115.86
118.639
120.018
120.24
119.55
118.182
116.341
114.204
111.914
109.586
107.304
105.129
103.102
101.25
99.5893
98.1263
96.8621
95.7923
94.9087
94.2004
93.6543
93.2557
92.9888
92.837
92.7829
92.8088
92.8968
93.0288
93.187
93.3534
93.5106
93.6416
93.7299
93.7597
93.7158
93.5839
93.3505
93.0031
92.5301
91.9211
91.1663
90.2575
89.1872
87.9485
86.5356
84.9436
83.1684
81.2069
79.0565
76.7157
74.1833
71.4591
68.5431
65.4358
62.1383
58.6519
54.9782
51.1191
47.0768
42.8536
38.4523
33.8755
29.1266
24.2091
19.1268
13.8842
8.4867
2.94102
-2.74431
-8.55799
-14.4851
-20.5057
-26.5931
-32.7116
-38.8129
-44.8328
-50.6859
-56.2594
-61.4057
-65.9346
-69.6073
-72.1343
-73.1818
-72.3935
-69.4327
-64.0511
-56.1734
-45.9769
-33.9191
-20.6663
-6.90592
9.44701
28.0488
45.6722
61.7261
75.896
88.047
98.155
106.258
112.434
116.801
119.537
120.869
121.046
120.316
118.913
117.043
114.884
112.58
110.245
107.963
105.795
103.78
101.945
100.307
98.8706
97.6373
96.6017
95.7548
95.085
94.5788
94.2209
93.9949
93.8838
93.8698
93.9349
94.0607
94.229
94.4215
94.6203
94.8078
94.9667
95.0805
95.1332
95.1098
94.9958
94.7778
94.4433
93.9809
93.3799
92.6309
91.7255
90.6562
89.4166
88.0013
86.4055
84.6254
82.6578
80.5004
78.1515
75.6103
72.8763
69.9497
66.8311
63.5214
60.0222
56.335
52.4618
48.4048
44.1662
39.7488
35.1553
30.3892
25.4537
20.3527
15.0906
9.67295
4.10638
-1.60024
-7.43534
-13.3837
-19.4248
-25.5317
-31.6677
-37.7839
-43.8148
-49.674
-55.2482
-60.389
-64.9067
-68.5634
-71.0721
-72.1037
-71.3085
-68.3598
-63.0209
-55.2284
-45.1686
-33.2997
-20.2784
-6.77464
9.53098
28.2998
46.0855
62.2892
76.588
88.8404
99.0176
107.157
113.332
117.674
120.377
121.676
121.823
121.067
119.64
117.753
115.583
113.274
110.94
108.665
106.508
104.509
102.696
101.083
99.6772
98.4771
97.4773
96.6685
96.0384
95.5728
95.2559
95.0711
95.0006
95.0265
95.1301
95.2931
95.4968
95.7228
95.953
96.1695
96.355
96.493
96.5673
96.5629
96.4654
96.2614
95.9384
95.485
94.8907
94.1462
93.2431
92.174
90.9327
89.5136
87.9124
86.1255
84.1499
81.9836
79.625
77.0731
74.3278
71.3891
68.2578
64.9349
61.4218
57.7201
53.8319
49.7593
45.5046
41.0705
36.4601
31.6764
26.7225
21.6024
16.3205
10.8822
5.29436
-0.433954
-6.29091
-12.2609
-18.3232
-24.45
-30.6042
-36.736
-42.7789
-48.6454
-54.2212
-59.3579
-63.8656
-67.5078
-70.0001
-71.0179
-70.2186
-67.2851
-61.9921
-54.2879
-44.3665
-32.6868
-19.8953
-6.64517
9.6102
28.5362
46.4745
62.8186
77.2378
89.5845
99.8263
107.994
114.167
118.493
121.175
122.453
122.581
121.809
120.372
118.477
116.305
114
111.674
109.412
107.271
105.293
103.505
101.921
100.547
99.382
98.4197
97.6502
97.0607
96.6363
96.361
96.2174
96.1874
96.2528
96.3946
96.5941
96.8324
97.0909
97.3512
97.5955
97.8064
97.9671
98.0616
98.0748
97.9922
97.8006
97.4874
97.0414
96.4523
95.7106
94.8082
93.7379
92.4934
91.0694
89.4617
87.6666
85.6816
83.5047
81.1345
78.5704
75.8121
72.86
69.7146
66.3772
62.8491
59.1321
55.228
51.1391
46.8678
42.4169
37.7891
32.9874
28.0149
22.8755
17.5733
12.1139
6.50448
0.754108
-5.12509
-11.1172
-17.201
-23.3484
-29.5215
-35.6698
-41.7258
-47.6007
-53.1795
-58.3134
-62.8128
-66.4422
-68.9199
-69.9261
-69.1253
-66.2099
-60.9659
-53.3527
-43.5714
-32.0806
-19.5169
-6.51798
9.68521
28.7602
46.8426
63.319
77.8515
90.2864
100.588
108.78
114.954
119.27
121.941
123.209
123.328
122.551
121.112
119.22
117.054
114.76
112.449
110.204
108.084
106.13
104.37
102.817
101.478
100.35
99.4267
98.6976
98.1494
97.7668
97.5332
97.4308
97.4413
97.5458
97.7252
97.9605
98.2325
98.5225
98.8119
99.0828
99.3177
99.4997
99.6129
99.642
99.5728
99.3919
99.087
98.6467
98.061
97.3205
96.4172
95.344
94.0948
92.6645
91.0488
89.2444
87.2488
85.0601
82.6771
80.0994
77.3269
74.3599
71.1994
67.8464
64.3024
60.569
56.6485
52.5429
48.2547
43.7866
39.1412
34.3212
29.3299
24.1707
18.8479
13.3673
7.73584
1.96309
-3.93868
-9.95328
-16.0592
-22.2277
-28.4204
-34.5862
-40.6564
-46.5411
-52.1245
-57.2572
-61.7498
-65.3682
-67.8334
-68.8303
-68.0305
-65.136
-59.9439
-52.4238
-42.7838
-31.4814
-19.1439
-6.39284
9.75677
28.9735
47.1931
63.7949
78.4349
90.9536
101.308
109.523
115.703
120.018
122.685
123.951
124.071
123.296
121.864
119.982
117.83
115.553
113.262
111.039
108.943
107.018
105.289
103.77
102.467
101.377
100.494
99.8062
99.2999
98.9594
98.7677
98.7064
98.757
98.9002
99.1166
99.3868
99.6917
100.012
100.33
100.626
100.883
101.085
101.216
101.259
101.202
101.03
100.732
100.295
99.7115
98.9706
98.0649
96.9872
95.7319
94.2937
92.6688
90.8538
88.8464
86.6449
84.2482
81.656
78.8683
75.8857
72.709
69.3395
65.7788
62.0287
58.0913
53.9687
49.6635
45.1781
40.5148
35.6765
30.666
25.4867
20.143
14.6408
8.9872
3.19187
-2.73279
-8.7703
-14.8988
-21.0891
-27.3023
-33.4864
-39.572
-45.468
-51.0575
-56.1907
-60.6784
-64.2876
-66.7423
-67.7321
-66.9359
-64.065
-58.9273
-51.5025
-42.0046