/*--------------------------------*- C++ -*----------------------------------*\
  =========                 |
  \\      /  F ield         | OpenFOAM: The Open Source CFD Toolbox
   \\    /   O peration     | Website:  https://openfoam.org
    \\  /    A nd           | Version:  6
     \\/     M anipulation  |
\*---------------------------------------------------------------------------*/
FoamFile
{
    version     2.0;
    format      ascii;
    class       volVectorField;
    location    "0";
    object      U_rec;
}
// * * * * * * * * * * * * * * * * * * * * * * * * * * * * * * * * * * * * * //

dimensions      [0 1 -1 0 0 0 0];

internalField   nonuniform List<vector> 
918
(
(0.986658 -0.00269743 0)
(-0.00972227 2.99047 0)
(-0.00732917 1.71668 0)
(0.980315 0.00423657 0)
(-0.00842489 1.67963 5.55623e-17)
(0.00412302 2.98148 -2.56195e-17)
(0.950277 1.41095 3.9482e-18)
(0.485046 0.261356 2.52717e-19)
(0.997051 0.000549436 0)
(0.0434695 1.66287 0)
(-0.00690628 1.63801 0)
(0.909167 -0.000966759 0)
(-0.000309356 2.98636 0)
(0.00445213 2.88882 0)
(0.0028959 2.91116 1.76468e-17)
(-0.00494526 1.65546 3.34143e-17)
(0.655554 0.146351 -1.05616e-18)
(0.201947 1.84692 -3.58561e-17)
(0.983583 0.00951171 0)
(0.00463539 1.66076 0)
(0.0131282 0.0391114 6.07318e-18)
(0.990009 0.00861037 0)
(1.00547 0.00925611 0)
(1.01206 -0.00141529 0)
(0.830442 -0.0125095 0)
(0.0210469 2.91519 0)
(-0.00691681 2.94092 -9.08081e-17)
(-0.0090735 1.7333 0)
(0.00365704 1.76776 0)
(-0.0109594 1.73941 0)
(-0.0105613 1.79032 0)
(-0.00938528 1.69623 5.53111e-17)
(-0.00393529 1.65562 0)
(0.00485566 3.01105 6.46835e-22)
(0.00585773 3.02306 -5.59103e-17)
(0.0203152 3.01038 0)
(0.942835 -0.00236696 0)
(0.525085 1.09934 -1.14457e-17)
(0.942158 1.43963 -1.08426e-17)
(1.07215 1.23922 2.47364e-17)
(0.798176 1.58631 9.27707e-18)
(0.793191 1.55297 1.48829e-17)
(0.512818 0.318943 4.34212e-20)
(0.545163 0.235419 0)
(1.2657 0.67408 0)
(0.432588 0.33 -1.24449e-21)
(0.425122 0.239803 9.39813e-19)
(0.951872 -0.00216691 0)
(0.996964 0.00251792 0)
(0.997052 0.00303769 0)
(0.993079 0.00347008 0)
(0.983466 0.00761733 0)
(0.997641 0.0119325 0)
(0.0156498 1.573 4.60567e-18)
(0.0373061 1.755 0)
(0.0660404 1.69657 0)
(0.0170465 1.74384 0)
(0.0133642 1.63997 0)
(-0.00885521 1.66076 0)
(-0.008107 1.69868 0)
(-0.00623357 1.637 0)
(-0.0130814 1.70822 0)
(-0.0067135 1.64834 0)
(0.97464 0.0095075 0)
(0.945031 0.00818002 0)
(0.921123 -0.00278779 0)
(0.935765 0.0125346 0)
(0.890833 0.011286 0)
(-0.0182853 3.04315 2.34038e-17)
(-0.00121541 2.97492 0)
(-0.0278771 3.02176 0)
(0.0274835 3.04052 -6.66492e-23)
(-0.00296009 3.02545 3.89188e-17)
(0.0191446 3.01108 0)
(0.00550439 2.95436 0)
(0.00383273 2.96573 -1.60107e-23)
(0.00385127 2.8962 0)
(0.00895502 2.97177 0)
(0.00691838 2.87436 0)
(0.277924 3.20142 0)
(-0.0666472 3.27929 0)
(0.0969283 2.97367 6.55949e-18)
(-0.00166981 2.81285 0)
(0.00594615 1.75261 0)
(-0.00358129 1.70214 3.2275e-17)
(-0.00231029 1.65724 3.35002e-17)
(0.69898 0.172839 -4.06016e-18)
(0.690191 0.0977396 2.70161e-18)
(0.66371 0.206896 2.14319e-17)
(0.644459 0.165535 -7.892e-18)
(0.202011 1.37497 0)
(0.269123 1.89787 -4.37356e-17)
(0.416863 1.80576 -3.59145e-17)
(0.994906 0.00702071 0)
(0.971579 0.00715842 0)
(0.99629 -0.00551082 0)
(1.002 0.00147352 0)
(1.00317 0.0146183 1.43119e-16)
(1.00395 0.0120861 1.13206e-16)
(-0.00128102 1.7088 0)
(0.00428049 1.66457 0)
(-0.00585048 1.74328 0)
(-0.0104845 1.71659 0)
(-0.00165651 1.66867 0)
(0.00643091 0.263704 -2.78151e-18)
(0.195015 0.184363 0)
(1.01141 -0.0142139 0)
(0.984164 0.000492232 0)
(0.907008 0.0335669 0)
(0.874674 0.0355726 0)
(0.860758 0.00768788 0)
(1.09869 0.00915768 0)
(0.836837 0.0214886 0)
(0.783891 0.000760597 1.81808e-17)
(-0.0193608 2.87625 2.05021e-17)
(0.00803851 2.98204 0)
(-0.0458966 3.02115 0)
(0.00584697 2.86257 0)
(-0.00579925 2.98516 -3.42435e-17)
(-0.00276232 2.93068 0)
(-0.0104262 2.98852 -9.78802e-18)
(-0.0122589 2.95181 2.20515e-17)
(0.00399966 1.77234 0)
(0.00380067 1.76709 0)
(0.00327296 1.70497 -5.46234e-22)
(-0.00111832 1.70198 0)
(0.00266869 1.65314 0)
(0.972448 0.00441716 0)
(0.947299 0.00603387 0)
(0.930849 -0.00682333 0)
(0.972629 -0.0034753 0)
(0.942178 -0.00314044 0)
(0.590271 1.23437 -4.10193e-18)
(0.708922 1.30057 0)
(0.411075 0.992199 -1.34999e-18)
(0.447856 0.857914 0)
(1.05517 1.26383 1.67013e-17)
(1.16333 1.0435 4.16646e-18)
(0.43108 1.83028 0)
(0.623351 1.7168 0)
(0.618216 1.68244 0)
(0.374898 0.610424 -5.11953e-18)
(0.564163 0.297137 0)
(0.582716 0.23073 -4.35734e-18)
(1.14011 1.07502 0)
(1.20918 0.875026 0)
(1.2271 0.845365 -4.3567e-18)
(1.27335 0.692975 0)
(1.29842 0.506424 -2.80234e-17)
(0.972852 0.00507056 0)
(0.971456 -0.00432811 0)
(0.944444 0.00170099 0)
(0.998568 -0.00593714 0)
(0.983227 -0.00543926 0)
(0.971118 0.000248883 0)
(0.990667 -0.00317645 0)
(0.988022 -0.000533063 0)
(0.997732 -0.00192289 0)
(0.0223236 1.59803 2.86155e-17)
(0.0298525 1.54655 0)
(0.0184709 1.63031 -3.84062e-18)
(0.0113998 1.59657 4.1849e-18)
(0.104448 1.86317 -4.18283e-17)
(0.0527684 1.80491 0)
(0.108618 1.77621 0)
(0.00207523 1.72104 0)
(0.00586065 1.6214 0)
(-0.00793231 1.70374 2.89011e-20)
(0.00119556 1.66783 0)
(-0.00898381 1.70329 -3.13763e-17)
(0.00183733 1.66045 -2.48601e-18)
(-0.00111359 1.71004 0)
(-0.00506834 1.70492 0)
(0.000614474 1.62766 0)
(-0.00846326 1.7156 0)
(-0.0014728 1.6569 0)
(1.01215 0.0185441 0)
(0.993666 0.00277635 0)
(0.995255 0.0102742 0)
(0.966866 0.00396992 0)
(0.928836 -0.000938753 0)
(0.959662 0.00790807 0)
(0.953966 0.00600486 0)
(0.923787 0.00359188 0)
(0.0102015 3.04137 5.54382e-20)
(0.0154899 3.03603 0)
(0.00907573 2.99169 0)
(0.00497381 2.93535 0)
(0.992025 3.71492 0)
(1.3604 2.78366 -1.04806e-18)
(0.0111964 2.88974 0)
(-0.0121885 2.80752 0)
(0.00335046 1.76054 0)
(0.00659696 1.74926 0)
(0.00317976 1.75096 0)
(-0.00357506 1.77865 -7.3978e-17)
(0.00354692 1.75743 0)
(-0.000305577 1.77118 0)
(0.00276132 1.65338 -6.57195e-17)
(0.00375004 1.70319 -3.37288e-17)
(-0.00257356 1.69999 3.20725e-17)
(0.000956195 1.65272 0)
(0.722698 0.13238 -1.89254e-17)
(0.71348 0.0711748 -1.03191e-17)
(0.190631 1.37364 0)
(0.265527 1.297 8.87663e-19)
(0.132448 1.44351 -2.54687e-17)
(0.126642 1.4326 -3.13042e-17)
(0.938385 0.00740852 0)
(0.979387 0.0108228 0)
(0.986438 0.0141825 0)
(0.956222 0.0149798 0)
(-0.000562088 1.71655 0)
(0.00510646 1.71249 0)
(0.00485876 1.66345 0)
(0.350736 0.331252 -2.47172e-18)
(0.233378 0.304052 2.31869e-18)
(0.3273 0.21187 0)
(1.19454 0.101063 -6.87605e-19)
(1.19713 0.0509328 0)
(1.10132 0.0529677 0)
(1.03884 0.00194598 0)
(0.75028 0.106896 0)
(0.787863 0.0701872 3.69498e-17)
(0.742426 0.0576954 -2.27522e-17)
(-0.0146333 2.95891 -3.41448e-17)
(-0.00961736 2.90449 -5.58182e-17)
(0.0079597 3.03213 1.07651e-19)
(0.0341568 3.02095 -3.65395e-17)
(-0.015891 3.00139 -2.19308e-19)
(-0.0133285 2.97987 8.43582e-22)
(-0.0124938 3.02961 -2.4126e-18)
(0.00195105 2.99223 -8.6408e-18)
(0.0511415 3.02382 -2.75866e-17)
(0.992403 0.00422555 0)
(0.984625 0.0117719 0)
(0.959286 0.00519372 0)
(0.96876 0.0100849 0)
(0.963265 0.000588021 0)
(0.927132 0.00433793 0)
(0.962718 -0.00229491 0)
(0.960939 -0.00272405 0)
(0.92919 -0.00821378 0)
(0.787401 1.47115 4.04422e-18)
(0.876058 1.53582 0)
(0.340587 0.464174 1.17684e-18)
(0.384299 0.736104 -4.14928e-18)
(0.380768 0.810994 -1.15833e-17)
(0.397339 0.633729 -1.8844e-17)
(0.436723 0.953718 -1.81601e-18)
(0.375871 0.783118 1.8615e-17)
(0.648037 0.23708 -1.27515e-17)
(0.607093 0.275801 -3.77595e-18)
(0.61879 0.201607 3.58328e-18)
(1.29873 0.520079 -2.3585e-17)
(1.30398 0.328646 4.79777e-18)
(0.00893467 1.65531 -3.36787e-17)
(0.0085243 1.62733 0)
(1.05145 0.0269823 0)
(1.02657 0.0142559 0)
(1.00693 -0.00160442 0)
(0.0134156 3.0479 0)
(0.0127926 2.97032 -3.68655e-17)
(0.0103999 2.98162 0)
(0.00377985 2.91609 -1.99232e-17)
(0.0106651 3.05993 1.42744e-17)
(0.0106024 3.0541 0)
(0.862618 1.76786 -3.71698e-18)
(1.21515 2.34538 -8.27715e-18)
(0.944363 1.85441 -1.66557e-17)
(-0.025483 2.92406 3.37049e-17)
(-0.0225005 2.88825 0)
(-0.0203053 2.84114 0)
(-0.00962979 1.69714 6.52578e-17)
(0.00361381 1.69401 1.76209e-18)
(-0.00694714 1.64599 6.51614e-17)
(0.252919 1.31032 -1.64755e-17)
(0.32046 1.22564 -1.12395e-17)
(0.0365534 1.5636 -3.20253e-17)
(0.0754555 1.50532 -2.65204e-17)
(0.0620268 1.49751 -5.88569e-17)
(-0.0225655 3.07375 1.26129e-16)
(-0.00999562 3.06997 9.63461e-17)
(0.00484678 2.98678 2.24683e-17)
(-0.0106925 2.98155 -2.18074e-17)
(8.27385e-05 2.93249 3.44383e-17)
(0.0164089 3.06581 -8.26655e-17)
(-0.00615108 3.0588 -1.30701e-16)
(0.473742 0.85424 0)
(0.436434 0.773322 -2.2745e-18)
(0.342632 0.460974 -1.75648e-17)
(0.41677 1.06079 2.90633e-17)
(0.399788 0.96496 2.60261e-17)
(1.27759 0.205496 -2.91047e-18)
(1.30988 0.360839 0)
(1.27522 0.182931 2.42986e-18)
(-0.00527007 1.70027 2.83622e-20)
(0.00727366 1.68063 0)
(0.00239276 1.65572 0)
(0.299804 1.22741 1.34424e-18)
(0.353946 1.14674 -3.08018e-17)
(0.363498 1.11684 -3.08021e-17)
(1.00127 -0.021533 0)
(1.00012 -0.0099017 1.09868e-17)
(0.000697186 1.77374 0)
(-0.00951212 1.7893 0)
(1.00314 -0.00125625 4.53856e-19)
(1.00358 0.00259838 1.30618e-17)
(0.00188898 1.77562 -7.35728e-17)
(0.000259798 1.77635 0)
(-0.019029 2.98446 2.18577e-17)
(0.306074 3.01578 0)
(1.10828 0.70951 -2.47287e-17)
(1.0013 0.00592587 8.22553e-17)
(1.00314 -0.00687669 0)
(1.00506 -0.00224632 3.45653e-19)
(0.00489618 1.85295 0)
(0.00713885 1.67687 0)
(-0.00273392 1.80075 0)
(0.0236049 1.73492 -7.41548e-17)
(8.25813e-05 1.75323 7.14464e-17)
(0.987983 0.0142856 8.06217e-17)
(1.03386 0.0175983 0)
(1.0585 0.0305251 0)
(0.011205 1.75959 0)
(0.0105004 1.75755 0)
(-0.0081141 1.77557 0)
(0.112663 1.84084 -8.26735e-17)
(1.00823 -0.0160646 0)
(1.00803 -0.0191763 0)
(0.998169 0.00314387 -2.18196e-17)
(0.994301 -0.00496875 2.75371e-17)
(0.997245 -0.00500442 0)
(0.00360656 1.75861 0)
(0.00188938 1.77028 0)
(0.00501008 1.75866 0)
(-0.00249086 1.77868 0)
(-0.0185085 1.77654 0)
(-0.00820487 1.77287 0)
(1.01367 0.00715333 0)
(1.00951 0.00363853 8.24225e-17)
(0.784187 1.34234 2.65757e-19)
(0.999631 -0.00648917 2.21651e-17)
(0.997982 0.00279852 -2.72708e-17)
(1.00289 0.00268697 0)
(0.998066 0.00975815 3.29587e-17)
(1.007 0.0112198 5.01856e-17)
(1.00283 0.00564296 0)
(0.0118483 1.76308 0)
(0.00735485 1.76634 -3.77233e-17)
(0.00359775 1.76221 -3.28805e-17)
(1.144 0.256933 -6.25381e-17)
(1.08897 0.0840492 0)
(-0.216296 2.98189 3.12967e-17)
(-0.238524 3.2089 8.4627e-19)
(-0.025388 3.0352 4.14653e-17)
(-0.0295606 2.99003 3.67201e-17)
(0.0487059 2.96468 0)
(-0.0246669 3.0345 1.19206e-17)
(-0.0867304 3.13527 1.91354e-17)
(-0.0754158 3.0254 1.9546e-17)
(-0.0530861 3.10039 0)
(0.646503 0.346565 0)
(0.509734 0.388036 0)
(1.08337 0.82874 2.61602e-17)
(1.06349 0.881805 4.00884e-17)
(1.12808 0.620774 0)
(1.14227 0.564739 0)
(1.00357 0.00523194 1.75862e-17)
(1.00204 0.00584287 -1.90724e-17)
(1.00606 -0.00529634 0)
(1.00624 -0.00595807 0)
(1.00776 0.00270408 0)
(1.00959 0.0086077 0)
(1.00631 0.00405564 0)
(1.00481 0.00933401 0)
(1.00292 0.00447216 0)
(0.993756 0.00498717 0)
(0.0150041 1.8514 0)
(-0.00376126 1.85842 0)
(0.0344039 1.85888 0)
(0.016111 1.86739 0)
(0.00976433 1.66793 0)
(0.0123849 1.66903 3.50243e-17)
(0.0203215 1.67853 0)
(0.0102577 1.6754 3.061e-17)
(0.0347214 1.69793 -6.63555e-17)
(-0.00938401 1.80403 0)
(-0.000107826 1.79894 0)
(0.00537176 1.80846 0)
(-0.00335707 1.82515 0)
(0.0344276 1.76815 -7.16755e-17)
(-0.0144072 1.7419 -4.78897e-17)
(0.0215541 1.74291 3.51069e-17)
(0.00211736 1.75243 0)
(0.0229151 1.75823 3.22422e-17)
(0.00871929 1.76258 -6.82583e-17)
(0.00202141 1.78683 -1.12204e-16)
(-0.00322168 1.73423 -4.44853e-17)
(0.0213982 1.73999 3.91234e-17)
(0.992253 0.0168487 -1.20583e-17)
(0.996906 0.00291543 1.69684e-17)
(0.987207 0.0294782 1.64969e-17)
(0.973699 0.0218207 -1.60844e-17)
(1.03032 0.00970995 0)
(1.03445 0.00746975 0)
(1.04576 0.032136 0)
(1.03332 0.0192411 0)
(1.04484 0.0133884 0)
(1.08162 0.0646526 0)
(1.06345 0.0583502 0)
(1.08189 0.0409645 0)
(0.00154767 1.76876 9.66135e-18)
(0.0134391 1.74428 0)
(-0.00368074 1.75269 0)
(0.00239817 1.75791 -1.47472e-17)
(0.00492522 1.7604 3.50681e-20)
(-0.0050896 1.78194 4.23892e-17)
(-0.0160436 1.77276 4.35424e-17)
(0.000112371 1.77078 0)
(-0.0265796 1.77552 0)
(-0.00940609 1.76879 0)
(0.00111477 1.77858 0)
(-0.00287346 1.7853 0)
(0.220481 1.80387 -5.06103e-17)
(0.273962 1.7489 4.16427e-17)
(0.313757 1.53367 4.03386e-19)
(0.151685 1.5952 2.73842e-17)
(0.134373 1.83982 3.49032e-17)
(1.00321 -0.0168985 0)
(1.00675 -0.0145369 0)
(1.00447 -0.0175186 0)
(1.00932 -0.00299577 0)
(0.997865 -0.00653558 0)
(0.98908 -0.00421825 0)
(1.00117 -0.00977293 0)
(0.996965 -0.00901541 0)
(1.00914 0.000628614 -1.23399e-17)
(1.01224 -0.00134084 1.83937e-17)
(1.00835 0.00713046 1.68648e-17)
(1.00352 0.0067064 -1.78542e-17)
(0.731041 1.43376 0)
(0.656519 1.46842 -7.17827e-17)
(0.85774 1.29815 7.10236e-17)
(0.918314 1.23235 6.20721e-17)
(1.01441 2.17829 -2.9312e-17)
(0.813026 0.124782 -2.15349e-17)
(1.0989 0.129017 0)
(1.15597 0.194106 -8.7659e-17)
(1.14295 0.138262 2.95818e-19)
(0.952722 0.139412 0)
(-0.0795454 2.72248 4.79881e-17)
(-0.355633 2.62967 7.22065e-17)
(-0.771141 2.66951 4.12012e-18)
(-0.607728 0.236059 -1.01576e-17)
(0.21081 3.00221 -1.54476e-17)
(0.0573687 2.99613 0)
(0.141082 2.97791 -6.91911e-18)
(0.0258101 2.72146 8.17563e-17)
(0.194977 2.74472 0)
(-0.0209275 3.06061 -5.56936e-19)
(-0.0326317 3.07277 -2.03784e-17)
(-0.00438915 3.1008 -3.23423e-17)
(-0.0339244 3.11482 0)
(-0.0464995 3.05824 0)
(1.17538 2.20165 0)
(0.53374 1.06951 4.92331e-17)
(1.01842 1.06827 -3.51336e-17)
(0.978163 1.17178 0)
(0.85005 1.04595 -1.2745e-17)
(1.04584 1.00713 -5.98963e-17)
(0.185863 0.419361 1.14396e-18)
(0.659475 0.349196 1.16989e-17)
(0.69097 0.311809 1.0931e-17)
(0.458939 0.45521 -2.63057e-20)
(0.431774 0.400045 5.67326e-18)
(0.607663 0.389713 0)
(0.586573 0.474635 8.48363e-18)
(0.606305 0.43316 0)
(0.533965 0.419927 0)
(0.586521 0.359963 0)
(0.692832 0.677239 3.0699e-17)
(1.15241 0.32752 4.11918e-17)
(1.17004 0.457128 0)
(1.17596 0.386795 0)
(0.762812 0.232343 1.70683e-17)
(0.733925 0.640581 3.64639e-17)
(0.620618 0.564859 8.22961e-18)
(0.863259 0.434447 -7.52689e-17)
(1.0081 -0.00079056 2.88757e-17)
(1.00406 0.0129925 4.90538e-17)
(1.00509 0.00886002 0)
(1.00961 0.0159033 0)
(1.0017 -0.00308076 -2.82956e-17)
(1.00188 0.0022839 -4.68499e-17)
(1.00774 -9.02678e-06 0)
(1.00055 0.00173977 0)
(1.01273 0.00430008 0)
(1.00948 0.00506549 0)
(1.01676 0.00340033 0)
(1.01264 -0.000697552 0)
(0.0116021 1.85307 0)
(0.0122435 1.84551 0)
(0.0117287 1.83574 -4.86113e-17)
(0.0844278 1.86186 -3.72076e-17)
(0.0522894 1.8774 7.81752e-17)
(0.0367642 1.8731 2.95993e-17)
(0.0307769 1.83166 0)
(0.0377879 1.78452 7.2289e-17)
(0.0105542 1.77507 0)
(0.104984 1.82676 3.77606e-17)
(0.156283 1.7182 -4.57669e-17)
(0.0438908 1.80238 6.66495e-17)
(0.0795768 1.81009 -3.8404e-17)
(0.0396544 1.82345 -4.12755e-17)
(0.0475192 1.79 -6.78658e-18)
(0.059157 1.80099 0)
(0.0897375 1.79832 -5.29345e-17)
(0.0338007 1.72012 6.19448e-18)
(0.0323461 1.68566 0)
(0.0126847 1.69615 -7.24502e-17)
(0.0177879 1.69538 0)
(0.023788 1.67548 3.42849e-17)
(0.0225846 1.67931 0)
(0.0308639 1.76981 5.38738e-17)
(0.0521945 1.77835 0)
(0.0289503 1.79724 0)
(0.0174844 1.79244 5.01006e-17)
(0.00644607 1.71917 -1.14146e-16)
(0.038237 1.70758 -6.93315e-17)
(0.0150847 1.72007 -1.90072e-20)
(0.00637489 1.75463 7.3982e-17)
(-0.0102651 1.7803 -3.86308e-17)
(-0.00540588 1.79482 0)
(-0.00930508 1.79989 0)
(0.0369752 1.76823 2.78862e-17)
(0.0294663 1.80353 2.35198e-17)
(0.0383025 1.78271 6.05791e-17)
(0.0267777 1.76966 0)
(0.00215539 1.75631 1.00609e-16)
(-0.00574744 1.75743 1.59199e-17)
(0.0046965 1.76368 -1.86278e-17)
(0.0119658 1.76995 7.61568e-17)
(0.0157621 1.73366 -3.51343e-18)
(0.00628868 1.74101 -4.46066e-17)
(0.999081 0.0122363 4.83025e-17)
(0.996542 0.00193761 2.89142e-17)
(0.995709 0.00535081 0)
(0.986804 0.0596563 -6.96149e-17)
(0.964122 0.0453766 1.66444e-17)
(0.947133 0.0316494 -9.19174e-18)
(0.984522 0.102509 1.83124e-18)
(1.01998 0.00967998 0)
(1.02477 0.0154309 -4.76711e-17)
(1.02717 0.00822883 -2.8926e-17)
(1.02352 0.037171 3.32605e-18)
(1.02374 0.0290857 -1.05441e-17)
(1.00306 0.0374769 0)
(0.991875 0.0356485 4.89412e-19)
(0.994894 0.0258264 0)
(0.996057 0.0266336 0)
(1.00723 0.018673 0)
(0.999787 0.00845879 0)
(0.997642 0.0271281 3.46212e-18)
(1.00112 0.0214716 3.03444e-17)
(1.01834 0.0379032 -5.2204e-18)
(1.00095 0.030092 1.05657e-17)
(1.00084 0.0541234 2.55433e-17)
(1.03117 0.053522 0)
(1.0299 0.0905381 0)
(0.00576295 1.76395 -5.1267e-17)
(0.0232715 1.74376 -7.76789e-19)
(-0.000446407 1.75696 0)
(0.0136146 1.76755 -5.28907e-17)
(0.0119093 1.77101 8.6466e-18)
(0.0116691 1.76303 -3.7736e-18)
(0.00067712 1.76118 -7.57792e-17)
(0.00837104 1.75723 -1.24897e-19)
(0.00955278 1.75281 -5.08858e-18)
(-0.00355349 1.75834 3.35091e-17)
(-0.000111853 1.76262 3.22036e-17)
(0.00563146 1.7674 -2.24499e-17)
(-0.00206256 1.76918 -3.81411e-17)
(0.11637 1.71036 2.4665e-17)
(0.0896911 1.7812 -9.3386e-18)
(0.592938 1.54994 -8.09405e-17)
(0.392083 1.68419 3.74627e-17)
(0.480245 1.61743 0)
(0.344148 1.53829 -3.89075e-18)
(0.40374 1.46637 -8.51073e-19)
(0.209336 1.56972 -7.16758e-18)
(0.207305 1.63525 -3.10476e-17)
(0.269137 1.66529 -2.91025e-17)
(0.294968 1.54462 0)
(0.229917 1.55579 -1.16801e-17)
(0.0670726 1.64512 -7.05632e-19)
(0.121637 1.61696 6.02415e-17)
(0.0584523 1.62771 8.3318e-18)
(0.740075 1.79615 -3.6372e-17)
(0.560759 1.58894 0)
(1.01595 -0.00332839 -2.77113e-19)
(1.00058 -0.0138858 3.26455e-19)
(1.00153 -0.0158902 -6.47841e-18)
(1.02326 -0.00583399 -1.63992e-17)
(1.02197 -0.00275169 0)
(0.659537 1.22435 0)
(0.684867 1.15756 0)
(0.759396 1.20137 0)
(0.740249 1.10839 0)
(0.99771 2.22469 2.81609e-17)
(0.898298 2.01467 0)
(0.693255 2.21436 -1.08746e-18)
(0.474895 2.14549 0)
(0.599132 2.2064 7.30923e-17)
(0.682883 2.18942 6.4536e-17)
(0.80931 0.154375 0)
(0.796532 0.155177 -1.34601e-18)
(0.872183 0.13454 6.81027e-18)
(0.826161 0.119455 -2.72026e-17)
(0.839594 0.0904838 1.60699e-18)
(1.00386 0.242655 -2.334e-17)
(0.880159 0.308206 2.78368e-17)
(0.853925 0.288022 2.32333e-17)
(0.930378 0.208378 1.06036e-17)
(0.883813 0.164953 4.15521e-17)
(0.876391 0.18024 -1.0961e-17)
(0.891952 0.243911 2.27968e-18)
(0.866759 0.211029 0)
(0.947058 0.18491 2.00139e-17)
(0.983544 0.180379 0)
(0.970139 0.233174 0)
(1.03445 0.128427 -1.3133e-17)
(0.997337 0.184764 3.06349e-17)
(0.98929 0.216031 2.12879e-17)
(1.04736 0.20947 0)
(0.991764 0.0282792 -3.75647e-17)
(0.996255 0.0296318 2.74056e-17)
(1.00002 0.0349463 -2.35749e-17)
(1.00668 0.0493089 4.34086e-17)
(0.987866 0.0555828 -5.16364e-17)
(0.922703 0.137852 0)
(0.952441 0.080873 0)
(0.939929 0.0483629 4.43781e-17)
(0.915071 0.0522708 8.02984e-18)
(1.00096 0.106326 -3.97643e-17)
(1.00459 0.138466 -2.31445e-17)
(1.00781 0.159795 -1.11965e-17)
(0.986918 0.159066 0)
(1.01057 0.0958418 0)
(1.00474 0.085498 3.58436e-17)
(0.996479 0.0882056 -2.40051e-17)
(0.778016 1.40043 2.53683e-17)
(0.7955 1.68305 -1.93554e-17)
(0.996325 2.29678 1.99868e-17)
(1.0412 2.5333 -2.60301e-18)
(1.06751 2.27788 -2.37667e-17)
(1.14281 2.29421 4.10313e-18)
(1.11478 2.02699 8.02008e-18)
(1.06349 2.4471 -1.41148e-17)
(1.05991 2.44067 -1.58436e-17)
(1.09772 2.62753 -1.87049e-18)
(1.21857 2.49316 2.94511e-18)
(1.28273 2.43746 0)
(0.500414 1.12198 -3.24227e-18)
(-0.176896 1.43354 -1.48256e-17)
(0.0455626 0.609159 -7.36517e-18)
(-0.101197 0.810692 -1.77932e-17)
(0.355739 0.454461 -9.3128e-18)
(0.368088 0.506789 3.94096e-18)
(0.316303 0.589164 -7.12006e-18)
(0.229177 0.479612 2.81714e-18)
(0.330028 0.381492 -7.91774e-18)
(0.741159 0.269974 2.42149e-17)
(0.699578 0.302982 0)
(0.72459 0.26843 5.99509e-18)
(0.592637 0.566037 -1.19434e-17)
(0.518904 0.533879 1.46953e-17)
(0.427061 0.585461 -5.73261e-18)
(0.498871 0.481289 0)
(0.586178 0.9315 -2.46849e-17)
(0.768483 0.859256 4.56067e-17)
(0.703152 1.02035 5.09752e-17)
(0.794243 0.881714 1.34193e-17)
(0.917214 0.90277 -4.05035e-18)
(0.916658 0.951068 -5.70077e-18)
(0.774208 0.750614 6.14251e-18)
(0.832982 0.799345 9.37442e-18)
(0.931986 0.833274 0)
(0.933871 0.729793 2.5796e-17)
(0.935489 0.32294 4.9125e-17)
(1.06081 0.310587 -2.04474e-17)
(0.985899 0.288665 -4.97106e-17)
(0.900069 0.397606 4.74613e-17)
(0.981583 0.454595 0)
(1.02355 0.425685 0)
(0.772793 0.403692 4.90788e-17)
(0.794007 0.286841 0)
(0.78662 0.284636 -1.4979e-17)
(0.837929 0.314307 6.68351e-17)
(0.826147 0.497986 -8.71055e-17)
(0.765338 0.557945 -1.19319e-18)
(0.790353 0.50669 8.55826e-18)
(0.709303 0.471793 -2.14832e-18)
(0.697629 0.489883 -6.26732e-18)
(0.642686 0.471142 -3.89905e-19)
(1.01815 0.013901 -4.75449e-17)
(1.01548 0.00169976 0)
(1.02318 0.00912572 9.68532e-18)
(1.0086 0.0179231 -1.21908e-17)
(1.01877 0.00981405 -2.42352e-17)
(1.01119 0.0129117 4.48393e-18)
(1.00493 0.00719422 0)
(1.00804 -0.000960621 1.31112e-17)
(1.01675 0.00678271 -1.67835e-18)
(1.01074 0.00470467 -2.79705e-18)
(1.012 0.00346363 8.24924e-18)
(-0.00729701 1.82367 0)
(0.0138829 1.82109 0)
(0.0211119 1.83679 0)
(0.00134559 1.83221 0)
(0.0244732 1.8324 -6.98676e-18)
(0.0125944 1.84269 -1.05212e-16)
(0.00351494 1.7817 -3.16275e-17)
(0.00346071 1.84472 -8.46193e-17)
(0.0201672 1.8058 5.67322e-17)
(0.034352 1.82132 5.95167e-17)
(0.0249912 1.84164 1.17641e-16)
(0.024754 1.84228 5.69033e-17)
(0.0184863 1.82826 1.0017e-17)
(0.0134054 1.83528 1.55244e-18)
(0.0131342 1.69435 -6.69686e-17)
(0.0260557 1.70309 0)
(0.0112788 1.73048 -4.0318e-17)
(0.000769138 1.77375 -5.36177e-18)
(0.0777074 1.73348 -1.73111e-17)
(0.0742558 1.66128 0)
(0.0817303 1.66538 5.44796e-17)
(0.100875 1.69427 4.71536e-17)
(0.0547638 1.73123 -6.02736e-17)
(0.034107 1.73148 -8.11835e-17)
(0.0127226 1.65793 0)
(0.032162 1.74617 3.27197e-17)
(0.0219384 1.71505 -2.02435e-17)
(0.0278506 1.74309 0)
(0.0387632 1.71993 2.0607e-17)
(0.0238247 1.72742 1.66034e-17)
(0.00188626 1.78322 9.23444e-18)
(-0.00492209 1.77772 -9.69033e-17)
(-0.0140229 1.77476 -6.51734e-17)
(-0.0169044 1.76931 4.51683e-17)
(0.00465392 1.76807 0)
(0.0154785 1.78065 0)
(0.00425643 1.78199 -3.8621e-17)
(0.00310363 1.76865 -3.48872e-18)
(0.00530782 1.77591 0)
(-0.00319936 1.79334 3.22858e-17)
(0.00138736 1.78663 1.36381e-18)
(1.01201 0.028587 0)
(1.0161 0.0246547 3.76443e-19)
(0.998745 0.0186727 4.44203e-17)
(1.01171 0.0176505 0)
(1.00872 0.0111183 0)
(1.00806 0.00155395 2.09602e-17)
(1.0078 0.00888449 -5.49495e-17)
(1.00185 0.00466637 -1.87001e-17)
(1.00008 0.00485731 0)
(1.00596 0.00825064 0)
(1.00064 0.0130162 2.7838e-17)
(0.998653 0.014075 0)
(1.00549 0.0116763 0)
(-0.00636885 1.76403 0)
(0.00145155 1.76631 -4.05191e-17)
(0.00298854 1.75252 4.1737e-17)
(0.00364793 1.76439 0)
(0.00945178 1.77518 -3.84464e-17)
(-0.000462384 1.77051 -1.84813e-17)
(-0.0026239 1.76659 0)
(0.176394 2.03801 0)
(0.0212164 1.82371 2.49504e-17)
(0.068381 1.88597 0)
(0.0848669 1.71284 7.80951e-17)
(0.24014 1.5147 0)
(0.174038 1.6718 3.44882e-17)
(0.814294 2.22663 -2.43966e-19)
(0.754843 1.87644 -2.42141e-17)
(0.757347 1.79581 -2.28059e-17)
(0.59687 1.64393 -8.26913e-18)
(0.549522 1.99382 0)
(0.612415 2.04918 0)
(0.701973 1.75439 0)
(0.679944 1.62806 -2.11576e-18)
(0.293021 2.09361 -3.69591e-17)
(0.451157 2.01157 3.98871e-18)
(0.408296 2.14587 2.33215e-18)
(0.437155 1.52196 0)
(0.514305 1.56461 0)
(0.493865 1.49708 1.08994e-18)
(0.422071 1.87243 0)
(0.778172 1.12079 0)
(0.663756 1.16832 -6.05733e-17)
(0.637604 1.10472 -5.75925e-18)
(0.76944 1.14993 0)
(0.703464 1.21959 -7.24584e-17)
(0.743919 1.05337 -9.28242e-18)
(0.799298 1.15637 0)
(0.80116 1.07645 -2.99064e-17)
(0.742451 1.18408 0)
(0.663934 1.12327 0)
(0.948548 2.34313 1.4412e-17)
(0.965194 2.38232 -9.15621e-18)
(0.858523 2.15009 -3.99686e-17)
(0.83242 2.16583 -2.60527e-18)
(0.919454 2.30816 0)
(0.851711 2.31509 -5.15264e-18)
(0.859515 2.11976 -4.25899e-18)
(0.799533 1.92128 -7.48589e-18)
(0.554855 1.88485 0)
(0.613818 1.31721 3.09886e-17)
(0.617518 1.29556 0)
(0.825205 0.201733 0)
(0.793289 0.191083 0)
(0.767391 0.200699 0)
(0.820183 0.240284 -6.19497e-18)
(0.76895 0.226027 4.2324e-18)
(0.920167 0.0757717 1.38101e-17)
(0.903995 0.117363 0)
(0.872745 0.0999248 -1.08954e-18)
(0.856877 0.0761841 -6.0307e-18)
(0.87148 0.0521986 -4.15168e-18)
(1.07127 2.77321 -1.58334e-17)
(1.02516 2.67853 0)
(0.96888 2.85137 -5.36636e-17)
(0.613496 3.05313 -2.84868e-17)
(0.761478 2.59139 1.28131e-17)
(0.494605 1.23029 -2.59073e-17)
(0.569128 1.15969 0)
(0.243439 0.834466 6.89763e-18)
(0.265768 0.958398 3.8933e-17)
(0.199133 0.791531 1.00242e-17)
(0.269279 0.633668 4.75027e-18)
(0.485974 0.607355 -9.51748e-18)
(0.520261 0.659047 0)
(0.476424 0.773928 0)
(0.359259 0.733232 0)
(0.911138 0.670844 9.83242e-18)
(0.836597 0.601669 8.5699e-18)
(0.846871 0.634266 -3.93853e-18)
(0.860239 0.525678 2.0989e-17)
(0.967558 0.5528 0)
(0.950392 0.603527 -1.01371e-17)
(0.747565 0.428455 1.15686e-17)
(0.757458 0.378349 2.67263e-17)
(0.68734 0.421882 -5.14806e-18)
(0.690733 0.39741 3.36725e-18)
(0.768377 0.339332 -7.8355e-18)
(0.735983 0.328621 -1.73449e-17)
(1.01989 0.00686849 -3.63916e-17)
(1.01781 0.00218606 -3.63752e-17)
(1.0241 0.0152907 3.43725e-17)
(1.02136 0.0141801 5.13213e-17)
(1.00782 0.023193 0)
(0.997087 0.0108478 -1.13143e-17)
(0.039624 1.76402 2.55917e-17)
(0.037215 1.78434 0)
(0.0117543 1.76873 -4.61895e-17)
(0.00362049 1.76608 -5.51135e-17)
(-0.00101663 1.78238 -3.56712e-17)
(0.0158447 1.79432 0)
(0.0272972 1.77932 0)
(0.0159968 1.77111 -1.87388e-17)
(0.00300854 1.75868 -1.94253e-17)
(-0.000774182 1.76663 -4.80882e-17)
(-0.00892123 1.76567 -9.64007e-18)
(0.0221751 1.76921 -4.22999e-18)
(0.417423 1.85835 -1.06748e-16)
(0.278605 1.89457 -1.27239e-16)
(0.157998 1.70624 7.50074e-17)
(0.148002 1.94965 -4.86217e-18)
(0.551453 1.27803 0)
(0.338042 1.46116 7.49811e-17)
(0.432535 1.34121 6.49026e-17)
(0.229263 1.4311 6.46377e-17)
(0.38413 1.44789 0)
(0.515448 1.25263 0)
(0.270393 2.0377 -4.68099e-17)
(0.338155 1.76263 -6.53676e-17)
(0.382275 1.83556 -5.3018e-17)
(0.306176 1.72247 -2.09145e-18)
(0.218089 1.90122 1.73732e-18)
(0.249883 1.69594 -1.81252e-17)
(0.760202 1.94656 -9.52998e-18)
(0.799486 2.01532 0)
(0.765808 1.85827 5.18183e-18)
(0.847528 2.26954 0)
(0.818859 2.25266 0)
(0.577262 1.9865 -1.77605e-18)
(0.973328 2.51099 -2.39565e-18)
(0.847762 2.49315 -1.7561e-18)
(0.159016 1.23483 0)
(0.189673 1.16977 -1.41406e-17)
(0.475005 1.12327 -3.40866e-17)
(0.342975 1.91374 0)
(0.369247 2.34686 5.96452e-18)
(0.196664 2.29713 0)
(0.632321 0.840582 -1.24079e-17)
(0.663018 0.822767 -4.8795e-17)
(0.679267 0.762182 -2.01793e-17)
(0.511676 0.79849 -1.55457e-18)
(0.578968 0.69319 2.22882e-18)
(0.896254 2.30445 -1.05053e-17)
(0.960587 2.29559 -6.85592e-18)
(0.647921 1.92497 8.08592e-18)
(0.688405 1.6645 2.94055e-17)
(0.834698 1.76776 3.93046e-17)
(0.930505 2.08959 -2.83859e-17)
(0.931035 2.09349 -1.9598e-17)
(0.75167 1.69051 6.05231e-19)
(0.708179 1.43028 3.10809e-17)
)
;

boundaryField
{
    wall-4
    {
        type            calculated;
        value           uniform (0 0 0);
    }
    velocity-inlet-5
    {
        type            calculated;
        value           uniform (1 0 0);
    }
    velocity-inlet-6
    {
        type            calculated;
        value           uniform (0 3 0);
    }
    pressure-outlet-7
    {
        type            calculated;
        value           nonuniform List<vector> 8((-0.00714103 1.71693 0) (-0.00849314 1.67934 5.55623e-17) (0.00411046 1.76776 0) (-0.01013 1.79006 0) (0.00610487 1.75228 0) (0.00406499 1.7667 0) (0.00324823 1.7506 0) (-2.65235e-05 1.77081 0));
    }
    wall-8
    {
        type            calculated;
        value           uniform (0 0 0);
    }
    frontAndBackPlanes
    {
        type            empty;
    }
}

