/*--------------------------------*- C++ -*----------------------------------*\
  =========                 |
  \\      /  F ield         | OpenFOAM: The Open Source CFD Toolbox
   \\    /   O peration     | Website:  https://openfoam.org
    \\  /    A nd           | Version:  6
     \\/     M anipulation  |
\*---------------------------------------------------------------------------*/
FoamFile
{
    version     2.0;
    format      ascii;
    class       volVectorField;
    location    "0";
    object      U;
}
// * * * * * * * * * * * * * * * * * * * * * * * * * * * * * * * * * * * * * //

dimensions      [0 1 -1 0 0 0 0];

internalField   nonuniform List<vector> 
13046
(
(0.625295 0.233559 0)
(0.577183 -0.0517578 5.84727e-21)
(0.294393 -0.083038 1.32742e-20)
(0.609869 0.15827 0)
(0.320279 -0.00739274 1.20394e-20)
(0.499729 -0.0791336 0)
(0.655055 0.184041 -1.74028e-21)
(0.514925 -0.104843 -2.99178e-21)
(0.296835 -0.0024505 1.32855e-20)
(1.05804 0.497665 -5.22713e-21)
(0.779838 -0.270854 0)
(0.0393163 -0.0798656 -8.8802e-21)
(0.745728 0.28789 1.10356e-20)
(0.600527 -0.104837 9.18731e-21)
(0.237588 -0.0748664 -7.33252e-21)
(1.01732 0.551433 -2.65865e-21)
(0.0807816 -0.12243 -1.41794e-20)
(0.821777 -0.198786 -4.56635e-21)
(0.416986 0.0865717 0)
(0.415245 -0.0865663 6.42693e-21)
(0.571254 0.0710661 -1.80899e-20)
(1.02826 0.543864 2.93396e-21)
(0.0706755 -0.112624 2.84032e-20)
(0.812109 -0.214214 -1.49786e-21)
(0.563972 0.158353 -7.37688e-21)
(0.527094 -0.0394784 1.08183e-20)
(0.330734 -0.0469988 0)
(0.750563 0.316118 -1.72064e-22)
(0.618934 -0.100426 -2.68689e-21)
(0.230827 -0.092376 2.53376e-20)
(0.629044 0.25359 0)
(0.599598 -0.0381511 0)
(0.290897 -0.104539 -1.35095e-20)
(0.5247 0.126383 2.58079e-20)
(0.353996 -0.0381184 -4.47093e-21)
(0.51138 -0.0212128 -1.67691e-20)
(0.518319 0.105345 5.92627e-23)
(0.370543 -0.014918 0)
(0.489155 -0.0240124 0)
(0.525543 0.240661 -9.6201e-21)
(0.364265 -0.181857 -1.21952e-20)
(0.680849 0.0437177 8.79494e-21)
(0.481502 0.0440595 -5.92219e-21)
(0.425883 0.025517 6.05319e-21)
(0.444123 -0.0104309 0)
(0.510719 0.0569706 -3.74222e-21)
(0.412342 0.0399454 0)
(0.434121 -0.0343253 1.94695e-21)
(0.647776 0.233008 0)
(0.566771 -0.0721319 4.20011e-22)
(0.276256 -0.0685099 -6.0312e-24)
(0.44685 -0.267426 -1.51631e-20)
(0.44684 0.249147 0)
(0.816054 0.119842 1.06463e-20)
(0.476425 -0.284794 2.15848e-20)
(0.856284 0.144909 1.14161e-20)
(0.406167 0.22736 -1.51251e-20)
(0.796661 -0.0758127 2.06739e-21)
(0.885891 0.538526 0)
(0.212704 -0.2087 -1.1625e-20)
(0.922502 0.317246 5.21864e-21)
(0.619123 -0.221813 -5.44938e-21)
(0.184129 0.00376202 3.09713e-20)
(0.0850868 -0.0835903 -1.62565e-20)
(0.753148 -0.232521 3.38785e-21)
(1.04959 0.475421 8.39274e-21)
(0.846331 0.530643 0)
(0.798153 -0.0477478 -9.65323e-21)
(0.243264 -0.232776 -3.39171e-21)
(0.814875 0.507111 4.17278e-21)
(0.786957 -0.0377062 1.30819e-20)
(0.25612 -0.232923 4.61494e-21)
(0.813639 -0.0831432 2.13203e-23)
(0.911694 0.55825 -1.48403e-22)
(0.198792 -0.210841 3.09432e-25)
(0.43391 0.110651 0)
(0.401345 -0.104149 -6.99418e-21)
(0.590202 0.0594392 1.28769e-20)
(0.157779 -0.180399 -1.29122e-20)
(0.954601 0.565933 1.24876e-20)
(0.814688 -0.122941 4.53702e-21)
(0.594201 0.173 -3.86536e-21)
(0.523547 -0.0568882 3.85639e-21)
(0.314472 -0.0351891 0)
(0.0746952 -0.0870193 1.45934e-20)
(0.765815 -0.23959 0)
(1.06077 0.488709 -4.98065e-21)
(1.09643 0.407271 8.65047e-21)
(0.0861969 -0.025829 0)
(0.704046 -0.292846 2.63914e-21)
(0.106934 0.0357329 0)
(1.15563 0.343831 0)
(0.662599 -0.361789 -3.53082e-22)
(0.917015 0.409851 1.0577e-20)
(0.953594 0.419879 -1.4711e-20)
(0.691436 -0.163898 -1.05222e-20)
(0.700137 -0.186275 4.93731e-21)
(0.159831 -0.0930904 6.68543e-21)
(0.14172 -0.0811599 -1.71292e-20)
(0.0976654 -0.00948721 8.23243e-22)
(1.09793 0.388287 -8.46451e-21)
(0.688152 -0.305266 0)
(0.539401 0.0838748 2.32269e-23)
(0.387718 0.032772 0)
(0.446223 -0.0531348 0)
(0.350158 0.1573 -2.70243e-20)
(0.803097 0.163825 5.25844e-21)
(0.483582 -0.233372 0)
(0.45281 0.227948 -4.14132e-21)
(0.422572 -0.227568 0)
(0.754927 0.0981562 2.00995e-20)
(0.978484 0.479535 0)
(0.0144003 -0.066721 1.21131e-20)
(0.74263 -0.295444 3.6023e-21)
(0.70253 0.260802 -7.67908e-21)
(0.581589 -0.0920587 -3.89979e-21)
(0.254139 -0.0647775 -1.32776e-20)
(0.946606 0.468409 -6.15818e-21)
(0.915101 0.4385 5.74658e-21)
(0.736668 -0.15573 -2.9082e-21)
(0.149125 -0.12289 -7.65721e-21)
(0.711398 -0.147874 2.84304e-21)
(0.161894 -0.115159 7.15393e-21)
(1.04136 0.504371 1.30491e-20)
(0.783768 -0.272856 5.13659e-21)
(0.0339362 -0.0812331 3.97597e-21)
(0.840003 0.373528 0)
(0.66129 -0.132097 7.02176e-21)
(0.192272 -0.101847 -3.89114e-20)
(0.56542 0.262837 0)
(0.339846 -0.17277 1.22794e-20)
(0.669103 0.0205149 -5.05658e-22)
(0.12702 0.0499536 0)
(1.13699 0.331608 0)
(0.653591 -0.353116 0)
(1.01782 0.426359 0)
(0.710798 -0.228425 1.36586e-20)
(0.114946 -0.0603374 1.73522e-20)
(0.667823 0.278781 0)
(0.616353 -0.0518154 0)
(0.27436 -0.1162 0)
(0.777885 0.224786 0)
(0.537482 -0.177014 0)
(0.265577 0.0346916 0)
(0.428981 0.219065 3.83184e-21)
(0.445434 -0.241823 0)
(0.78414 0.11931 -1.08253e-20)
(0.355889 0.143604 2.61945e-20)
(0.779568 0.15843 1.13549e-20)
(0.479797 -0.218468 -1.32048e-20)
(0.94816 0.338038 -1.21625e-20)
(0.639206 -0.22583 0)
(0.164511 -0.0154407 -4.02945e-20)
(0.33841 0.0864716 0)
(0.70841 0.153365 -2.47273e-20)
(0.474193 -0.164794 -3.40221e-21)
(0.533228 -0.295898 -6.01018e-21)
(0.920105 0.20399 -1.20354e-20)
(0.560424 -0.30012 0)
(0.953563 0.234091 -6.92598e-21)
(0.315006 0.167193 -1.3099e-20)
(0.271678 0.13362 1.25787e-20)
(0.802233 0.201984 -1.56699e-21)
(0.519523 -0.20822 -6.92454e-21)
(0.287198 0.0763517 7.63189e-21)
(1.07991 0.483084 5.34365e-21)
(0.0383262 -0.0713209 -4.62134e-21)
(0.762048 -0.285797 6.45092e-21)
(1.00345 0.491452 3.71956e-21)
(0.0209225 -0.0733421 1.8186e-21)
(0.766211 -0.285255 0)
(1.0243 0.445046 -1.95182e-22)
(0.725258 -0.225355 0)
(0.106293 -0.0721109 -2.0962e-20)
(0.625083 0.339755 0)
(0.723814 0.0181056 -2.80415e-21)
(0.332468 -0.214982 -7.19909e-21)
(0.776176 0.18401 -1.03036e-20)
(0.312513 0.0985596 0)
(0.500673 -0.199657 0)
(0.0424305 -0.0532329 0)
(0.736914 -0.305542 0)
(1.11081 0.451104 -4.44657e-21)
(0.590059 0.308984 0)
(0.710357 0.0299431 6.07947e-21)
(0.345533 -0.203471 -1.86439e-21)
(0.334727 0.101658 0)
(0.725369 0.154491 0)
(0.472324 -0.178953 0)
(0.742184 0.201726 -5.14648e-21)
(0.521291 -0.163059 0)
(0.278523 0.0326358 0)
(0.61016 -0.137448 4.51589e-23)
(0.214284 -0.0586737 9.0139e-21)
(0.812332 0.347009 -1.60899e-20)
(0.642811 -0.124283 0)
(0.204956 -0.0912411 4.02015e-20)
(1.09098 0.449371 9.87438e-21)
(0.0702696 -0.055926 -1.32289e-20)
(0.736823 -0.275451 1.27287e-20)
(0.12243 0.0292688 -1.21168e-20)
(1.10728 0.349586 -5.27749e-21)
(0.663715 -0.327944 -1.32379e-20)
(1.13893 0.378855 1.4455e-20)
(0.687182 -0.33103 0)
(0.0843861 0.00222197 1.18993e-20)
(0.451413 -0.307212 6.22186e-21)
(0.86324 0.118334 -4.76718e-21)
(0.484396 0.311727 -1.28417e-20)
(0.732744 0.23859 1.01043e-20)
(0.940617 0.575417 -6.43096e-21)
(0.17146 -0.192706 7.93384e-21)
(0.824252 -0.112215 -2.12941e-23)
(0.697354 -0.333261 0)
(1.14071 0.398172 4.16409e-21)
(0.0675533 -0.0142721 0)
(0.546505 0.109061 1.89695e-20)
(0.363562 0.00744391 0)
(0.471599 -0.0503509 -6.36244e-21)
(0.726456 0.317468 0)
(0.627407 -0.0813796 3.86653e-22)
(0.248525 -0.1068 -7.46304e-21)
(0.131947 0.045575 -9.28753e-21)
(1.11634 0.337607 0)
(0.653586 -0.341761 1.5249e-20)
(0.769002 0.263225 0)
(0.595705 -0.146672 -1.66428e-20)
(0.220365 -0.0423379 0)
(0.0224856 -0.0659202 0)
(0.744259 -0.30525 -5.4983e-21)
(1.06079 0.473994 0)
(0.442595 0.280049 1.38889e-20)
(0.886052 0.135354 0)
(0.472023 -0.315228 0)
(1.11949 0.373652 -1.26796e-20)
(0.681308 -0.321058 0)
(0.096469 0.00366642 3.44936e-23)
(0.875871 0.219139 -1.35459e-20)
(0.538914 -0.253974 -5.24774e-21)
(0.273811 0.104882 1.75552e-20)
(0.834433 0.390239 0)
(0.672673 -0.119402 -6.55882e-21)
(0.198226 -0.116289 -4.03305e-21)
(0.61298 -0.359074 1.91054e-20)
(1.08879 0.275874 9.54806e-21)
(0.206978 0.117889 -7.32551e-21)
(0.994291 0.24315 0)
(0.575127 -0.31992 7.56281e-21)
(0.260348 0.136044 2.63358e-22)
(0.0174742 -0.0606995 9.36018e-21)
(0.725374 -0.316788 0)
(1.06425 0.458808 4.09235e-21)
(0.519233 0.279127 -1.79857e-20)
(0.393053 -0.231001 8.93628e-21)
(0.749477 0.0695766 8.8282e-22)
(0.905401 0.503454 -3.90274e-21)
(0.0197404 -0.072766 1.00456e-21)
(0.772447 -0.252755 0)
(0.385263 0.0597913 -3.96885e-21)
(0.578892 0.0910895 1.46487e-20)
(0.435385 -0.0859596 -1.91511e-20)
(0.877918 0.255049 -5.45304e-21)
(0.855038 0.224674 -4.68022e-23)
(0.56628 -0.230374 1.27952e-20)
(0.540452 -0.23585 1.25876e-20)
(0.267001 0.0851219 -1.39234e-20)
(0.231971 0.0530111 7.18936e-21)
(0.138112 -0.168141 1.69016e-20)
(0.971561 0.569081 -6.64298e-21)
(0.824866 -0.134979 0)
(0.797884 0.378956 0)
(0.67158 -0.0949614 0)
(0.221619 -0.129016 1.61006e-20)
(1.02865 0.268051 2.51594e-21)
(0.596487 -0.329649 0)
(0.227454 0.113693 0)
(0.984914 0.4512 -5.51114e-21)
(0.726087 -0.190606 0)
(0.126375 -0.0939635 -7.62742e-21)
(0.467533 0.0538205 -4.01289e-21)
(0.465982 0.00555972 -5.81041e-21)
(0.418861 0.00461569 2.00823e-21)
(0.934105 0.244715 8.83363e-21)
(0.566606 -0.279119 0)
(0.249912 0.103306 1.21262e-20)
(0.801351 0.398549 0)
(0.68884 -0.0879105 -8.16889e-21)
(0.222633 -0.144495 1.03623e-20)
(0.784097 0.288968 -1.64685e-20)
(0.822036 0.311921 1.3252e-20)
(0.526199 0.294859 1.42096e-20)
(0.396277 -0.245468 -2.59575e-20)
(0.767426 0.0744689 1.94955e-20)
(0.961138 0.270529 9.07689e-21)
(0.587706 -0.28101 -1.10965e-20)
(0.216807 0.0759467 -1.10636e-20)
(1.00872 0.457184 1.99401e-20)
(0.112752 -0.0861369 2.68956e-20)
(0.73341 -0.206418 6.76702e-21)
(0.457115 0.211587 6.23376e-21)
(0.412755 -0.212774 0)
(0.730888 0.0937374 -6.79765e-21)
(0.330943 0.192588 1.41914e-20)
(0.93512 0.196779 6.93295e-21)
(0.529859 -0.314386 0)
(0.890263 0.467357 2.00736e-21)
(0.73662 -0.111989 7.15678e-21)
(0.184305 -0.153304 -4.74885e-21)
(0.483904 0.279006 -1.17307e-21)
(0.430818 -0.267712 0)
(0.80841 0.106376 -1.46948e-20)
(0.919264 0.488973 0)
(0.94289 0.490948 0)
(0.753043 -0.123533 4.62878e-21)
(0.171441 -0.152451 1.23671e-20)
(0.753447 -0.144026 -6.54521e-21)
(0.154255 -0.137815 -1.31281e-20)
(0.0510595 -0.0607873 1.02582e-20)
(0.746214 -0.289432 0)
(1.10125 0.463078 6.24442e-21)
(0.880352 0.426439 0)
(0.700849 -0.130909 3.30141e-21)
(0.179408 -0.123928 -4.20934e-21)
(0.678091 -0.28979 -1.02618e-20)
(0.0058545 -0.0543832 -1.4957e-20)
(0.866796 0.45299 -8.81936e-21)
(0.65578 0.119976 1.99259e-20)
(0.368957 0.0899727 0)
(0.447091 -0.138373 7.16013e-21)
(0.878099 0.29949 -1.24947e-20)
(0.602105 -0.200976 0)
(0.197948 -0.00287434 -2.36537e-20)
(0.083059 -0.0602717 8.39042e-21)
(1.07179 0.446305 -1.81076e-20)
(0.730777 -0.259263 -9.60172e-21)
(0.485206 -0.298969 8.06814e-21)
(0.878795 0.150554 0)
(0.400017 0.241804 1.71376e-20)
(0.627463 -0.354069 2.3281e-20)
(1.10105 0.298043 5.82987e-21)
(0.175671 0.0886108 0)
(0.565535 -0.130319 8.41283e-21)
(0.246453 -0.0276096 0)
(0.893824 0.346516 -1.36652e-20)
(0.637505 -0.181055 -6.0086e-21)
(0.176131 -0.0503836 -7.21668e-21)
(0.553161 -0.144875 -2.98842e-22)
(0.249863 -0.0101302 -6.58698e-23)
(1.01528 0.5461 1.40694e-20)
(0.0932404 -0.128455 -1.9928e-20)
(0.813859 -0.187188 6.70929e-21)
(0.440358 -0.321597 -8.10014e-21)
(0.870942 0.107485 -1.51859e-21)
(0.51887 0.344668 0)
(0.925496 0.365878 1.39286e-20)
(0.657318 -0.193171 7.33411e-21)
(0.161178 -0.0487053 1.76507e-20)
(0.796674 0.223265 0)
(0.532912 -0.195283 5.07163e-21)
(0.266796 0.0513824 0)
(0.804695 0.146734 6.75196e-21)
(0.468346 -0.246923 0)
(0.385567 0.184999 0)
(0.632697 0.206735 5.36256e-21)
(0.54539 -0.0709448 9.27158e-21)
(0.290825 -0.0498113 -1.01895e-23)
(0.365363 0.220301 -1.76113e-20)
(0.916651 0.177008 -1.68748e-20)
(0.512764 -0.312419 -2.18321e-20)
(1.11059 0.425079 7.65525e-21)
(0.718487 -0.29567 -1.08271e-20)
(0.0705906 -0.0388406 -1.98804e-22)
(0.635187 -0.339508 -1.57494e-20)
(1.09092 0.31038 -5.91049e-21)
(0.162668 0.0707023 -9.26953e-21)
(0.743154 0.466309 1.29303e-20)
(0.300829 -0.249887 -6.86807e-21)
(0.785095 -0.00442824 0)
(0.947009 0.53443 -3.61066e-21)
(0.925296 0.518525 3.30439e-21)
(0.776144 -0.113803 1.47245e-21)
(0.790628 -0.122553 -6.3875e-21)
(0.161696 -0.168141 4.54041e-21)
(0.175104 -0.171567 3.99886e-21)
(0.00969122 -0.0597044 1.51933e-20)
(0.709858 -0.278726 1.12995e-20)
(0.884168 0.462809 -2.50672e-21)
(0.924553 0.513979 2.57042e-22)
(0.0256802 -0.0800737 0)
(0.79168 -0.247027 0)
(0.916006 0.274774 2.01094e-20)
(0.588681 -0.242577 2.86466e-21)
(0.217127 0.0478406 0)
(0.0620493 -0.0641478 2.54688e-20)
(1.09176 0.461744 -7.82465e-21)
(0.748082 -0.274405 0)
(0.828129 0.479458 -1.81451e-20)
(0.861115 0.490759 1.35994e-20)
(0.756731 -0.0643826 -7.66915e-21)
(0.758642 -0.0810482 -2.93305e-21)
(0.236361 -0.200415 7.8578e-21)
(0.214365 -0.187125 3.95167e-21)
(0.0477693 -0.0186514 0)
(0.684817 -0.349378 0)
(1.15562 0.387416 -2.2357e-21)
(0.84672 0.495663 4.58219e-21)
(0.0171611 -0.06783 -9.43878e-21)
(0.759206 -0.242174 0)
(0.531527 0.0343495 3.40701e-23)
(0.450168 0.0900823 -8.63089e-21)
(0.395287 -0.0590292 -4.28557e-21)
(0.926534 0.48228 7.77619e-21)
(0.744784 -0.280882 -5.2705e-21)
(0.0136387 -0.066363 -1.88289e-20)
(0.679241 0.361253 -1.54498e-20)
(0.708315 -0.0118814 1.29178e-20)
(0.299237 -0.196105 1.62696e-23)
(1.11874 0.440303 -1.15482e-22)
(0.728174 -0.312377 -1.54727e-20)
(0.0486294 -0.0454648 5.23441e-21)
(0.595248 -0.307817 -3.12396e-22)
(-0.000595874 -0.0448457 1.72225e-20)
(0.839144 0.379747 3.23688e-21)
(0.490398 0.2064 8.28998e-21)
(0.378167 -0.166999 5.20577e-22)
(0.665702 0.056499 -2.15465e-20)
(0.612395 0.118698 0)
(0.456319 -0.101581 2.1197e-20)
(0.357865 0.0507334 -1.11216e-20)
(1.02551 0.519507 -1.31696e-20)
(0.0374843 -0.0870291 -1.18536e-20)
(0.795731 -0.259924 2.44428e-24)
(0.639745 0.132185 0)
(0.460124 -0.118196 7.43099e-21)
(0.346481 0.0628691 1.57078e-20)
(0.511749 0.0332821 -8.73134e-21)
(0.445545 0.0716462 9.11304e-21)
(0.406393 -0.0401687 -2.25866e-21)
(0.421822 0.278761 8.50378e-21)
(0.925991 0.153701 5.97328e-21)
(0.495345 -0.337427 -1.20358e-20)
(0.612287 0.0756452 0)
(0.409364 -0.118382 0)
(0.417214 0.122575 -1.29972e-21)
(0.646929 0.106768 -1.0652e-20)
(0.432303 -0.134161 -5.7579e-21)
(0.395435 0.113203 -1.84648e-22)
(0.705672 0.444029 -1.96564e-20)
(0.789048 0.0110619 9.92399e-21)
(0.324059 -0.26319 1.36611e-20)
(0.05762 -0.0932523 -1.7886e-20)
(0.0518474 -0.086535 1.81889e-20)
(0.794759 -0.243909 -4.53133e-21)
(0.78357 -0.257531 -3.16037e-21)
(1.05116 0.51952 -1.09543e-20)
(1.06225 0.509708 1.64941e-20)
(1.12357 0.424052 -9.46219e-21)
(0.71847 -0.305788 9.65472e-21)
(0.0620938 -0.034225 0)
(0.289848 -0.258791 -8.84991e-21)
(0.772705 0.499787 -4.02085e-21)
(0.800382 -0.0111422 0)
(0.54507 0.280955 0)
(0.369933 -0.212564 8.162e-21)
(0.722329 0.0500461 -6.71745e-21)
(1.00766 0.225348 0)
(0.565313 -0.341077 -7.82437e-21)
(0.289162 0.170968 -2.72494e-22)
(0.633733 -0.336671 -5.29469e-21)
(0.00221139 -0.0486182 0)
(0.989153 0.391928 8.76702e-21)
(0.0892617 0.0179995 0)
(1.15546 0.361381 0)
(0.672358 -0.354955 -6.54967e-21)
(1.03262 0.487982 -4.38432e-21)
(0.0236581 -0.0724348 0)
(0.764432 -0.290659 5.39574e-21)
(-0.000580679 -0.0404251 6.37942e-32)
(0.565442 -0.292291 4.7449e-21)
(0.774606 0.365255 -3.2143e-21)
(0.602682 -0.251598 -5.30746e-21)
(0.00336231 -0.0422503 -6.36423e-32)
(0.739989 0.415022 2.86898e-21)
(0.633301 -0.268869 1.51477e-20)
(0.998031 0.323911 0)
(0.169635 0.0248547 2.36772e-20)
(0.672453 -0.349305 2.89248e-21)
(0.0218581 -0.03731 0)
(1.12557 0.395143 0)
(1.03871 0.42 8.8066e-21)
(0.706404 -0.246605 -8.4698e-21)
(0.108827 -0.0488458 -1.23009e-20)
(0.984507 0.565852 -1.41365e-20)
(0.0692896 -0.123247 -7.20313e-21)
(0.847004 -0.19307 0)
(0.704367 0.240351 -4.09718e-21)
(0.259337 -0.0372314 4.49948e-21)
(0.561705 -0.11141 -4.0542e-21)
(0.682643 -0.351964 0)
(0.0595244 -0.00755658 -8.7356e-21)
(1.15818 0.379981 -2.56627e-21)
(0.982978 0.209891 6.83005e-21)
(0.31691 0.193873 4.84528e-21)
(0.549471 -0.336261 0)
(0.607698 -0.319986 0)
(1.02961 0.284201 0)
(0.202334 0.0908099 -8.64292e-21)
(8.65196e-06 -0.0187546 0)
(0.356884 -0.165351 3.88209e-21)
(0.450941 0.225432 -1.93024e-21)
(0.664496 -0.308063 -5.18314e-21)
(0.00377653 -0.0532108 1.04149e-20)
(0.894032 0.437572 3.85887e-21)
(0.666932 0.212347 1.06302e-20)
(0.278793 -0.0311103 -1.06032e-20)
(0.541993 -0.098042 -4.71138e-21)
(0.704925 -0.331695 -1.36373e-20)
(1.1392 0.417219 4.78496e-21)
(0.0406366 -0.0344423 0)
(0.0408224 -0.0190652 9.14709e-21)
(1.15889 0.383599 0)
(0.673605 -0.356901 1.02184e-20)
(1.07625 0.483194 5.7212e-21)
(0.064641 -0.0771855 -2.72585e-20)
(0.761924 -0.255976 -1.29813e-20)
(0.119021 -0.143709 2.04491e-20)
(0.807656 -0.161366 -7.15243e-21)
(0.993758 0.547877 0)
(0.681725 0.449847 2.4826e-20)
(0.812776 0.0282 -1.26439e-20)
(0.349335 -0.285609 1.29759e-20)
(0.778849 -0.0934885 -2.2018e-21)
(0.894285 0.522133 -7.84449e-21)
(0.199976 -0.191311 1.24168e-20)
(0.108517 -0.15102 1.83657e-20)
(0.989107 0.573883 0)
(0.837693 -0.160209 5.19123e-21)
(0.718036 0.355465 3.88345e-21)
(0.759795 0.385553 0)
(0.675233 -0.0463785 1.34441e-20)
(0.691208 -0.060848 -1.43738e-20)
(0.266187 -0.157123 -8.41202e-21)
(0.247819 -0.16067 0)
(0.680529 0.344525 3.8267e-21)
(0.68421 -0.0240001 0)
(0.289947 -0.173745 -4.01894e-21)
(0.812522 0.490983 0)
(0.770296 -0.0498876 1.23943e-20)
(0.251187 -0.217888 -2.83341e-21)
(0.627655 -0.32743 7.82898e-21)
(1.06752 0.303924 -6.18407e-21)
(0.172577 0.0689041 1.90454e-20)
(0.706264 -0.324727 0)
(1.1317 0.413469 -1.52141e-21)
(0.0595567 -0.0251332 0)
(0.13802 0.0308702 6.12854e-21)
(1.07892 0.340104 3.88312e-21)
(0.654556 -0.314044 5.10646e-21)
(0.64395 -0.253258 7.24476e-22)
(0.00577562 -0.0478305 -1.12945e-23)
(0.775494 0.438267 0)
(0.559163 0.233807 -7.47415e-21)
(0.571711 0.226477 0)
(0.332922 -0.137921 1.91867e-21)
(0.628225 0.0096877 -2.62552e-20)
(0.322564 -0.119266 -2.42828e-21)
(0.606999 -0.00831247 1.67026e-20)
(0.753189 0.444081 0)
(0.706971 0.410617 2.51991e-21)
(0.300051 -0.220652 -1.69902e-24)
(0.75278 -0.0266327 -7.78406e-21)
(0.280306 -0.217032 -2.06587e-20)
(0.743684 -0.0112855 1.64706e-20)
(0.576324 -0.32044 0)
(-0.00178953 -0.0442759 -1.88055e-20)
(0.877099 0.368107 0)
(0.710757 -0.325587 8.09616e-21)
(1.13603 0.42191 -1.51752e-21)
(0.0456795 -0.0375247 -5.49419e-21)
(0.564797 0.323457 4.69265e-21)
(0.383709 -0.253585 9.35354e-21)
(0.772654 0.0612201 -2.19879e-20)
(0.598639 -0.349057 -1.70137e-20)
(1.05814 0.26178 -1.60278e-20)
(0.229499 0.130993 0)
(0.131757 -0.15355 -2.18704e-20)
(0.805367 -0.149888 7.60972e-21)
(0.981137 0.547885 0)
(0.709221 -0.314976 0)
(0.996841 0.45419 0)
(0.00910624 -0.0601216 0)
(0.709254 -0.320977 0)
(1.03056 0.446887 -7.26458e-21)
(0.0112662 -0.0579112 0)
(0.863447 0.472585 7.52855e-21)
(0.741051 -0.0944331 -4.44408e-21)
(0.204434 -0.1697 -5.84893e-21)
(0.433898 0.188281 2.19018e-21)
(0.423062 -0.199945 0)
(0.720112 0.10554 -7.22652e-21)
(1.07493 0.491412 -6.66607e-21)
(0.0563752 -0.079401 -1.58932e-20)
(0.772431 -0.260498 1.88034e-20)
(0.637226 -0.287026 0)
(1.02383 0.326983 0)
(0.162211 0.0361943 -2.04281e-20)
(0.100743 -0.0947253 -5.1398e-21)
(0.753762 -0.211253 -1.15736e-20)
(1.02511 0.483331 -1.84481e-20)
(0.67805 0.398813 -2.567e-21)
(0.320276 -0.233493 1.37397e-20)
(0.752087 0.00472766 -8.42269e-21)
(0.854052 0.197582 1.31337e-20)
(0.516839 -0.251655 -7.81347e-21)
(0.31197 0.133123 -1.7147e-20)
(0.513067 0.245037 -1.49161e-22)
(0.378714 -0.199757 2.67556e-21)
(0.706899 0.0579648 8.80169e-21)
(0.0480663 -0.0696215 6.20359e-21)
(0.761149 -0.280451 -8.68056e-21)
(1.08705 0.477827 -7.18703e-21)
(0.976599 0.474198 3.44561e-21)
(0.743534 -0.175847 3.44276e-21)
(0.131419 -0.11161 0)
(0.502996 0.201153 8.10463e-21)
(0.365114 -0.1469 -1.68842e-20)
(0.639004 0.0404674 1.42166e-20)
(0.986598 0.578214 -5.65166e-21)
(0.0954258 -0.145067 -8.1694e-21)
(0.847693 -0.1692 -5.739e-23)
(0.660173 0.296818 4.69669e-21)
(0.636237 -0.040231 0)
(0.281578 -0.135499 0)
(0.714585 0.178605 1.90782e-20)
(0.496153 -0.156008 -4.60109e-21)
(0.306325 0.0563131 0)
(0.607303 -0.29779 0)
(1.00302 0.285052 -1.29809e-20)
(0.199695 0.0761248 9.04908e-21)
(0.955307 0.53694 0)
(0.039151 -0.0956813 2.53181e-21)
(0.82458 -0.229358 -5.82093e-21)
(0.955114 0.549744 -5.47723e-21)
(0.0474313 -0.104508 -8.0806e-21)
(0.837198 -0.213377 5.64098e-21)
(0.103262 -0.107105 -4.69104e-21)
(0.766953 -0.199531 6.84057e-21)
(1.0186 0.498235 1.69786e-20)
(0.877248 0.187292 6.06458e-21)
(0.515705 -0.276226 1.56434e-20)
(0.332515 0.16159 0)
(0.0310076 -0.0868686 -2.31868e-21)
(0.812361 -0.233106 5.44292e-21)
(0.909212 0.524394 0)
(0.0946391 -0.0480719 0)
(0.715215 -0.260459 7.04088e-21)
(1.06395 0.427109 2.09157e-21)
(-0.00202612 -0.0331058 -9.38138e-21)
(0.48441 -0.27772 -5.36673e-21)
(0.693632 0.303999 0)
(0.629689 0.386482 3.39518e-21)
(0.547154 -0.211219 0)
(0.00326806 -0.0344978 -9.38401e-21)
(0.106921 -0.142423 1.2434e-24)
(0.82375 -0.169277 8.88722e-22)
(0.9976 0.561567 0)
(0.0303842 -0.0648196 0)
(0.7487 -0.30106 0)
(1.0847 0.471221 -9.25116e-21)
(1.04565 0.520614 5.96865e-21)
(1.04453 0.512151 -4.82838e-21)
(0.0702159 -0.103133 8.97315e-21)
(0.797227 -0.224144 1.4931e-21)
(0.0778432 -0.101753 0)
(0.784271 -0.221266 0)
(1.07237 0.409923 -4.0547e-21)
(0.702906 -0.27429 -4.66574e-21)
(0.0976626 -0.0334355 0)
(0.270349 0.169994 0)
(0.578141 -0.357783 0)
(1.0432 0.237885 0)
(0.565792 0.193022 -9.95367e-21)
(0.323207 -0.0852809 2.32494e-20)
(0.56758 -0.0223717 -9.20735e-21)
(1.06507 0.367087 -1.16168e-20)
(0.671419 -0.291632 -1.73533e-21)
(0.121307 0.00201966 -1.80574e-20)
(0.137696 0.0197868 -1.17702e-20)
(1.05931 0.349936 1.61614e-20)
(0.657237 -0.297941 2.4075e-21)
(0.974562 0.584319 -6.60009e-21)
(0.127193 -0.167613 -8.78503e-21)
(0.840819 -0.139766 0)
(0.765704 0.462974 0)
(0.766718 -0.0266665 -3.68583e-21)
(0.277767 -0.227026 2.02503e-20)
(0.711874 0.388654 0)
(0.720688 -0.0210721 -1.69648e-20)
(0.288085 -0.201933 -2.68197e-24)
(0.986859 0.353362 1.54524e-20)
(0.653795 -0.24676 -2.11222e-21)
(0.149341 -0.0116938 1.02475e-20)
(1.00698 0.350055 0)
(0.652398 -0.26187 -1.98716e-21)
(0.148085 -6.35292e-05 -9.43803e-21)
(0.479656 0.172698 0)
(0.375442 -0.131173 2.66486e-20)
(0.620478 0.0457912 0)
(0.768817 0.404695 0)
(0.705435 -0.0595902 9.48252e-21)
(0.24665 -0.174095 -3.04481e-21)
(0.0702816 0.00778022 1.89239e-20)
(0.669212 -0.36176 1.47652e-20)
(1.16842 0.365892 0)
(1.04984 0.427466 1.56761e-22)
(0.00930971 -0.0528769 -5.78083e-21)
(0.681128 -0.334321 -3.82831e-21)
(1.03544 0.402098 2.17486e-22)
(0.00591576 -0.0494458 0)
(0.6561 -0.338579 1.09694e-20)
(0.60072 0.297546 -5.61086e-21)
(0.329327 -0.181049 2.9239e-21)
(0.682403 0.0110467 1.52864e-22)
(0.676108 -0.316268 -1.83155e-22)
(0.00477826 -0.0551234 -2.38866e-20)
(0.961393 0.433831 0)
(0.996598 0.497882 -1.47513e-20)
(0.119504 -0.116639 0)
(0.763502 -0.18078 0)
(0.00128573 -0.049915 9.47299e-21)
(0.636079 -0.329778 5.86665e-21)
(0.95269 0.399865 -6.73345e-21)
(0.594546 0.137341 -1.31857e-20)
(0.341992 0.0139703 -1.4102e-20)
(0.479973 -0.0765256 -4.99437e-23)
(0.838716 0.339845 2.34007e-21)
(0.634258 -0.147598 2.19856e-21)
(0.197495 -0.0688482 9.23394e-21)
(0.491303 -0.27255 -1.78932e-20)
(0.852279 0.165202 -2.16884e-20)
(0.369925 0.188702 0)
(0.029108 -0.03455 0)
(0.683107 -0.34639 3.63282e-21)
(1.13705 0.401965 0)
(0.626056 -0.298898 0)
(1.02681 0.312434 0)
(0.174091 0.0529071 0)
(0.0803498 -0.130054 0)
(0.997743 0.566206 5.14467e-21)
(0.841663 -0.186693 -5.16095e-21)
(0.879413 0.361263 0)
(0.648414 -0.166091 -1.09654e-21)
(0.18031 -0.065931 2.08191e-23)
(0.549479 0.173174 9.61474e-21)
(0.333825 -0.0718661 -1.99554e-20)
(0.551708 -0.0206832 0)
(0.705801 -0.333842 1.29007e-20)
(1.1234 0.42565 -4.54841e-21)
(0.0305135 -0.0422997 0)
(0.0885909 -0.0718699 1.0783e-20)
(0.737809 -0.24346 -4.47683e-22)
(1.053 0.459802 -2.74712e-22)
(0.993024 0.518496 0)
(0.975774 0.513375 -5.20485e-21)
(0.0331233 -0.0862735 -5.8093e-21)
(0.0269863 -0.0808107 7.17981e-21)
(0.799903 -0.253663 3.59497e-21)
(0.789823 -0.261753 -2.956e-21)
(0.847934 0.258578 0)
(0.563514 -0.211281 -1.49489e-20)
(0.234561 0.0364978 -1.12482e-20)
(0.613827 -0.257338 -2.12703e-20)
(0.966206 0.303398 0)
(0.185221 0.0346511 1.24467e-20)
(0.678692 0.184705 1.08158e-20)
(0.508898 -0.123941 -7.82975e-21)
(0.291087 0.0153972 -1.73249e-20)
(0.689929 -0.338818 -8.43865e-21)
(1.08849 0.423801 -5.59213e-21)
(0.674286 -0.346505 4.01297e-21)
(0.0145523 -0.0500833 6.12253e-21)
(1.09861 0.405904 5.23653e-21)
(0.0150715 -0.0451051 0)
(0.957817 0.404044 0)
(0.68538 -0.199676 0)
(0.143447 -0.0656389 -1.15462e-20)
(1.10924 0.437851 -5.75141e-21)
(1.09353 0.436129 1.45505e-20)
(0.717367 -0.326039 -5.52886e-21)
(0.711085 -0.328731 1.39476e-20)
(0.0253289 -0.0512221 -1.61153e-20)
(0.0188524 -0.0536771 1.0705e-23)
(0.944436 0.286995 0)
(0.595123 -0.263092 1.97799e-20)
(0.209955 0.059652 -1.61263e-20)
(0.80032 0.274173 -1.01343e-20)
(0.595404 -0.166319 1.32952e-20)
(0.210257 -0.0275416 0)
(0.987251 0.555771 0)
(0.0574882 -0.111966 -1.11482e-21)
(0.837397 -0.210736 -5.41888e-21)
(0.850963 0.277304 -7.4478e-21)
(0.579119 -0.198795 0)
(0.219112 0.0144923 1.8646e-20)
(0.721795 0.214807 -4.37895e-21)
(0.532511 -0.141667 9.18469e-21)
(0.267747 0.00518921 -1.01569e-20)
(0.979225 0.530042 0)
(0.0395709 -0.0937558 0)
(0.817461 -0.240074 7.4757e-21)
(0.884779 0.383036 0)
(0.670418 -0.154972 -2.3259e-21)
(0.172354 -0.0861956 1.14545e-20)
(0.537488 -0.34774 0)
(0.980757 0.196651 0)
(0.347723 0.226607 6.25054e-22)
(0.674746 0.411903 6.32697e-22)
(0.771935 0.0160635 0)
(0.330663 -0.250833 -1.06594e-20)
(0.636969 -0.363831 -9.09611e-21)
(0.152635 0.0778294 0)
(1.13109 0.310916 0)
(0.000316861 -0.0280807 2.25584e-20)
(0.463242 -0.214831 -5.43685e-21)
(0.591617 0.299915 2.70377e-21)
(0.866957 0.315072 0)
(0.610681 -0.180818 -8.16119e-21)
(0.194586 -0.0277205 0)
(1.02233 0.541637 -9.68317e-21)
(0.0603377 -0.106876 -3.0327e-20)
(0.818676 -0.219799 1.11149e-20)
(0.395267 -0.304664 0)
(0.839476 0.0684318 8.29793e-21)
(0.599448 0.397996 0)
(0.7519 0.454084 0)
(0.00896004 -0.0513898 5.60498e-21)
(0.682267 -0.238628 0)
(0.376862 0.13172 -1.08451e-20)
(0.387562 0.154562 1.11023e-20)
(0.4462 -0.180302 0)
(0.71083 0.127566 -9.13736e-21)
(0.449583 -0.202616 1.69842e-20)
(0.739314 0.127439 7.3246e-21)
(0.672799 0.16519 -1.01703e-20)
(0.48761 -0.128616 -1.04299e-20)
(0.314757 0.0424455 0)
(0.451458 0.183057 -9.55436e-21)
(0.414428 0.15356 0)
(0.402157 -0.174004 0)
(0.680039 0.0803294 0)
(0.417875 -0.164959 9.59263e-21)
(0.677324 0.0963405 -4.72455e-23)
(0.83487 0.300174 -6.43395e-22)
(0.571985 -0.166166 5.80548e-21)
(0.230049 -0.00753554 1.25375e-20)
(0.806468 0.262914 1.74123e-20)
(0.566394 -0.177866 0)
(0.235428 0.0087914 0)
(0.00860925 -0.0454375 0)
(0.648756 -0.349327 0)
(1.07138 0.392191 -5.29539e-21)
(0.641385 0.313301 1.54184e-20)
(0.671546 -0.0101471 0)
(0.305307 -0.168237 -5.43387e-21)
(1.10304 0.453854 1.24151e-20)
(0.73476 -0.312733 -6.44757e-21)
(0.0312674 -0.0567185 9.19443e-21)
(0.99903 0.380677 0)
(1.02635 0.39589 -8.47171e-21)
(0.674284 -0.238807 2.63238e-21)
(0.688678 -0.248548 -8.34386e-21)
(0.133023 -0.030834 1.27587e-20)
(0.119569 -0.0346291 1.18727e-20)
(0.632114 0.289004 0)
(0.646782 -0.0202695 0)
(0.301147 -0.148418 -2.5581e-21)
(0.805697 0.451623 -6.08996e-21)
(0.738094 -0.0602933 0)
(0.242885 -0.191358 -6.76576e-21)
(0.94058 0.361257 4.4322e-21)
(0.652202 -0.21243 0)
(0.156019 -0.0338406 -1.16503e-20)
(0.487642 0.115482 -1.04432e-20)
(0.530062 0.00863411 -5.01991e-21)
(0.370362 -0.0575498 -5.3402e-21)
(1.04172 0.372867 0)
(0.672223 -0.273186 0)
(0.126178 -0.00840733 1.91911e-20)
(0.539463 0.191598 0)
(0.337406 -0.105308 -2.94284e-21)
(0.587644 0.00177333 0)
(0.937929 0.303228 9.93575e-21)
(0.607758 -0.24386 1.0996e-20)
(0.192916 0.0246195 1.61068e-21)
(0.806928 0.431355 -6.13672e-21)
(0.719582 -0.0730513 -1.08079e-20)
(0.23147 -0.174112 0)
(0.500158 0.140489 1.03522e-20)
(0.480816 0.138976 4.65156e-21)
(0.550827 0.00578732 -4.8936e-21)
(0.358946 -0.0751928 1.0579e-20)
(0.572484 0.0241067 0)
(0.36893 -0.0925086 1.88182e-20)
(0.443925 0.14722 4.73026e-21)
(0.393912 -0.134719 -1.24314e-20)
(0.419175 0.141752 -3.04721e-21)
(0.62687 0.0654635 0)
(0.417044 -0.152579 -6.08616e-21)
(0.65928 0.0906456 1.04408e-20)
(0.708773 0.334277 -5.56796e-21)
(0.749861 0.346951 0)
(0.653683 -0.055812 -1.00019e-20)
(0.652056 -0.0775026 7.8078e-21)
(0.261491 -0.138796 2.43339e-20)
(0.241395 -0.124811 -2.02532e-20)
(0.113316 -0.131264 0)
(0.791995 -0.173471 4.1936e-21)
(1.00167 0.529039 8.73864e-21)
(0.378154 0.241352 -2.10555e-20)
(0.942044 0.176438 -9.42411e-21)
(0.517001 -0.33362 1.89019e-20)
(0.097923 -0.122801 1.02123e-20)
(0.0919015 -0.11178 0)
(0.796592 -0.190728 -3.6257e-21)
(0.783707 -0.204452 -6.25091e-21)
(1.01678 0.532688 -2.22238e-20)
(1.0289 0.517019 1.15402e-20)
(0.500502 0.305316 0)
(0.431565 -0.28431 1.01971e-20)
(0.826202 0.102186 -2.13031e-21)
(0.47936 0.0765404 -2.18901e-20)
(0.396159 -0.0149257 0)
(0.484412 0.00219458 1.72115e-20)
(1.04853 0.392798 4.0233e-21)
(0.688003 -0.267021 9.42049e-21)
(0.114068 -0.0243053 0)
(0.585726 0.258095 0)
(0.321967 -0.15256 2.43752e-21)
(0.643918 0.0023517 8.52487e-21)
(0.831935 0.440701 0)
(0.721253 -0.0858667 0)
(0.216656 -0.164825 1.62422e-21)
(0.966545 0.52962 0)
(0.968459 0.512437 0)
(0.787429 -0.144298 -2.23621e-21)
(0.143668 -0.151685 1.24577e-20)
(0.77333 -0.151539 6.09864e-21)
(0.140344 -0.140047 -1.68486e-20)
(0.986592 0.406271 -8.37674e-21)
(0.692235 -0.215066 -8.77101e-21)
(0.12994 -0.0575695 -5.55391e-21)
(0.823701 0.469238 -5.87732e-21)
(0.718633 -0.252796 0)
(0.0116894 -0.0592663 6.8822e-21)
(0.411952 -0.302796 0)
(0.841149 0.0823872 -6.77332e-21)
(0.56126 0.364233 0)
(0.634108 0.413145 -6.42619e-21)
(0.615675 0.388384 6.89868e-21)
(0.371002 -0.286865 6.64548e-21)
(0.815003 0.0482374 0)
(0.373504 -0.274927 0)
(0.800623 0.0490742 0)
(1.06225 0.321938 1.41006e-20)
(0.638122 -0.315999 -1.77793e-20)
(0.158756 0.0488962 -8.78301e-22)
(0.774816 0.438739 1.25005e-20)
(0.737184 -0.0453487 0)