/*--------------------------------*- C++ -*----------------------------------*\
  =========                 |
  \\      /  F ield         | OpenFOAM: The Open Source CFD Toolbox
   \\    /   O peration     | Website:  https://openfoam.org
    \\  /    A nd           | Version:  6
     \\/     M anipulation  |
\*---------------------------------------------------------------------------*/
FoamFile
{
    version     2.0;
    format      ascii;
    class       volScalarField;
    location    "0";
    object      p;
}
// * * * * * * * * * * * * * * * * * * * * * * * * * * * * * * * * * * * * * //

dimensions      [0 2 -2 0 0 0 0];

internalField   nonuniform List<scalar> 
13046
(
0.590433
0.565984
0.573988
0.608919
0.584216
0.56057
0.590331
0.563791
0.584491
0.284556
0.0402962
0.509102
0.591051
0.506088
0.560197
0.361591
0.502529
0.122386
0.604962
0.583896
0.596254
0.350307
0.506275
0.109977
0.594406
0.592531
0.577799
0.570075
0.513076
0.5571
0.598905
0.536621
0.563597
0.60516
0.59169
0.585702
0.605165
0.597283
0.594108
0.575735
0.554085
0.544362
0.597798
0.610854
0.600014
0.604857
0.595679
0.59305
0.581756
0.558109
0.574195
0.505666
0.556864
0.498574
0.517387
0.482426
0.557983
0.322302
0.500665
0.508277
0.532866
0.449284
0.549559
0.518664
0.239888
0.422781
0.512195
0.339962
0.503946
0.526937
0.361908
0.506497
0.283841
0.484859
0.507239
0.604322
0.59384
0.582078
0.509262
0.455124
0.261458
0.592882
0.582052
0.574471
0.514392
0.198305
0.390347
0.398743
0.524335
0.262996
0.51865
0.34302
0.245408
0.523133
0.506128
0.409875
0.38478
0.533592
0.534372
0.526197
0.403553
0.285092
0.608937
0.595682
0.586179
0.574702
0.517248
0.532379
0.564396
0.541195
0.525299
0.141117
0.505446
-0.135469
0.592666
0.528752
0.560645
0.500915
0.518466
0.356231
0.523564
0.398057
0.526829
0.255416
-0.00663596
0.507037
0.561595
0.441017
0.549058
0.575517
0.552574
0.538704
0.52067
0.365543
0.29168
0.475984
0.335259
0.529704
0.59086
0.522773
0.555759
0.560868
0.539669
0.566697
0.555357
0.524134
0.529935
0.573297
0.5381
0.551242
0.525644
0.41965
0.545375
0.590823
0.567875
0.557864
0.479093
0.482639
0.46285
0.477472
0.549993
0.547282
0.566513
0.504741
0.562134
0.276521
0.510316
0.0546366
0.18924
0.506217
-0.0921415
0.464941
0.305049
0.526155
0.572368
0.483831
0.538786
0.569292
0.566191
0.517613
0.51392
0.108854
0.299116
0.573049
0.50624
0.533957
0.587274
0.553465
0.545465
0.570377
0.544093
0.568874
0.490402
0.562745
0.566188
0.470402
0.548496
0.380364
0.519586
0.211874
0.525703
0.400401
0.305783
0.344312
0.232739
0.519293
0.487357
0.460929
0.543815
0.577941
0.462981
0.501055
0.263139
0.187456
0.333737
0.516512
0.601843
0.596379
0.588784
0.573373
0.526402
0.553678
0.525463
0.386516
0.314545
0.566496
0.501181
0.567017
0.508127
-0.0286021
0.203245
0.54337
0.460982
0.475803
0.376485
0.273086
0.523582
0.515929
0.487742
0.559811
0.547246
0.453446
0.547538
0.374079
0.407244
0.523458
0.4579
0.438634
0.538232
0.509228
-0.0372613
0.174307
0.574342
0.541773
0.506229
0.167471
0.502073
-0.190173
0.59596
0.602309
0.577263
0.526444
0.532123
0.485344
0.498924
0.564592
0.554512
0.500743
0.436416
0.220094
0.558661
0.474042
0.541685
0.456293
0.404787
0.53602
0.482638
0.345596
0.526245
0.601274
0.593995
0.60916
0.500232
0.46455
0.549832
0.55956
0.451899
0.538742
0.567689
0.566604
0.574786
0.529871
0.484719
0.496079
0.441899
0.545487
0.455841
0.523095
0.322636
0.583188
0.54277
0.527684
0.548335
0.465604
0.464296
0.516045
0.380832
0.519607
0.559209
0.50967
0.491085
0.49632
0.492504
0.356484
0.516633
0.341065
0.519902
0.513974
0.13792
0.322326
0.526635
0.424373
0.530838
-0.265603
0.503065
0.0578961
0.594286
0.582938
0.547147
0.547319
0.470693
0.552517
0.522249
0.408302
0.255227
0.504691
0.463217
0.553558
0.346326
0.402378
0.523827
0.535018
0.565995
0.526812
0.463267
0.547848
0.518826
0.571348
0.393702
0.505458
0.164324
0.497161
0.436286
0.545941
0.513243
0.442375
0.5413
0.554489
0.523465
0.568475
0.523139
0.513519
0.565662
0.600054
0.55539
0.577815
0.541505
0.471353
0.473468
0.362973
0.219337
0.520689
0.356051
0.399367
0.528627
0.527427
0.505577
0.407907
0.475219
0.489035
0.330536
0.294951
0.505376
0.510805
0.504186
-0.23629
0.0935608
0.194849
0.501415
-0.157929
0.514936
0.47146
0.547255
0.517129
0.3657
0.17298
0.52105
0.51981
0.397948
0.374479
0.520175
0.515101
0.513346
0.126467
0.263261
0.144479
0.50059
-0.236315
0.588498
0.606748
0.593069
0.134904
-0.182311
0.505144
0.571395
0.47832
0.530927
0.312441
0.130253
0.514673
-0.246753
0.508651
-0.0270693
0.580894
0.5552
0.559575
0.591008
0.589737
0.589606
0.261261
0.505391
-0.0159275
0.584142
0.574865
0.586024
0.593328
0.607449
0.599174
0.547336
0.438447
0.477093
0.578938
0.584934
0.595639
0.599453
0.546314
0.584958
0.535713
0.423003
0.50525
0.50663
0.509906
0.101802
0.0942276
0.331005
0.323163
0.327797
0.192998
0.518435
0.512832
0.524326
0.373342
0.56768
0.532346
0.520053
0.444431
0.426775
0.529585
-0.125408
0.508107
0.0434843
0.517679
0.331745
0.218122
0.212038
0.507062
-0.0471942
0.510251
-0.287214
-0.0429198
-0.341009
0.507697
0.00605055
0.416807
0.483538
0.538204
0.028754
0.510848
0.170974
0.454074
0.326313
0.529591
0.323783
0.496333
0.0243096
0.585005
0.566411
0.556054
0.161543
0.514948
0.292137
0.452535
0.532238
0.439323
0.394776
0.455306
0.537881
0.513142
-0.459995
-0.147839
-0.224284
0.504914
0.0310394
0.594049
0.577222
0.556778
0.113282
0.254292
0.514865
0.512505
0.225011
0.0992703
0.362369
0.514109
0.175126
0.504401
0.225373
0.425059
0.545754
0.413115
0.507251
0.341157
0.503822
0.516354
0.501592
0.401588
0.143339
0.568446
0.560839
0.488678
0.466866
0.540874
0.542155
0.56976
0.497881
0.539934
0.53297
0.386654
0.521202
0.375818
0.424829
0.531605
0.174183
0.328068
0.516679
0.528801
0.425332
0.343224
-0.329634
0.506034
0.0425535
0.59598
0.5939
0.566609
0.549434
0.573134
0.557204
0.554618
0.541285
0.523851
0.421659
0.522698
0.461832
-0.222439
0.507508
-0.0206081
0.13367
0.27955
0.515903
0.555589
0.511545
0.485207
0.3988
0.422384
0.529306
0.504817
0.246498
0.440984
-0.130331
0.113697
0.507901
-0.0847395
0.133695
0.508369
0.526342
0.39249
0.525295
0.585609
0.537786
0.542336
0.342724
0.512203
0.128804
0.398059
0.46424
0.539269
0.521373
0.273419
0.443562
0.545715
0.526553
0.468638
0.524894
0.496106
0.558164
0.575874
0.546624
0.532705
0.512182
0.109439
0.31659
0.480942
0.33323
0.521741
0.591106
0.5635
0.561306
0.373099
0.497213
0.0982351
0.57293
0.531245
0.556589
0.581262
0.540453
0.581457
0.416618
0.47074
0.539876
0.246537
0.499336
-0.0894477
0.270142
0.49767
-0.0657226
0.517865
0.260512
0.441143
0.502007
0.502017
0.55078
0.497348
-0.148068
0.206659
0.525633
0.285727
0.433331
0.509421
-0.321353
-0.0849457
-0.0247985
-0.381724
0.50587
0.505292
0.16786
0.409256
0.51034
0.0305022
0.245933
0.367596
0.38914
0.508304
0.136346
0.511574
0.183676
0.420103
0.299547
0.526773
0.536678
0.414768
0.413536
0.606719
0.574951
0.561098
0.441275
0.33138
0.531286
0.532645
0.452232
0.349904
0.419068
0.501014
0.167227
0.547095
0.399383
0.519518
0.558605
0.461628
0.522856
0.488842
0.408495
0.541758
0.480138
0.395327
0.539611
0.594667
0.558836
0.575308
0.557954
0.450853
0.543361
0.514636
0.177581
0.2862
0.116276
0.508705
-0.0748394
0.0838061
0.510428
-0.0796037
0.574925
0.548603
0.520988
-0.168316
0.508459
0.0644139
0.462489
0.518639
0.289044
0.507315
-0.160189
0.0295181
0.609915
0.590092
0.569154
0.556776
0.485547
0.551881
0.503274
0.50579
0.555656
0.512055
0.0573893
0.20687
0.39152
0.469366
0.537352
0.498708
0.353324
0.0774565
0.538389
0.466555
0.548719
0.611449
0.582787
0.566745
0.0615596
0.229137
0.511816
0.52196
0.263654
0.428734
0.237695
0.208176
0.503455
0.503243
-0.0648556
-0.104106
0.544158
0.502017
0.562209
0.436085
0.498725
0.54157
0.582802
0.556547
0.584221
-0.0211125
0.154496
-0.0122255
0.509292
0.151501
0.509041
0.509993
0.397857
0.539473
0.223061
0.187508
0.0364122
-0.00216646
0.511998
0.511474
0.500073
0.457642
0.552096
0.563682
0.5037
0.558217
0.301665
0.498861
-0.00229434
0.561197
0.483097
0.559089
0.583485
0.530538
0.573818
0.251345
0.500046
-0.055695
0.543212
0.429061
0.539436
0.456562
0.429956
0.534318
0.549441
0.442328
0.520545
0.317356
0.518544
0.367635
0.510272
-0.415487
-0.107464
0.540626
0.478312
0.55313
0.325701
0.503785
0.0601255
0.503118
0.423401
0.545783
0.0576088
0.501698
-0.301662
0.582905
0.572342
0.543722
0.56021
0.542485
0.550677
0.589521
0.551749
0.58487
0.577652
0.587582
0.550746
0.564257
0.570423
0.556649
0.552391
0.513922
0.568427
0.5673
0.51569
0.567547
0.508663
-0.0509933
0.102177
0.574787
0.515536
0.540946
0.254896
0.0580396
0.511796
0.482047
0.46414
0.3845
0.349898
0.536178
0.531542
0.571268
0.542608
0.550284
0.53479
0.420115
0.520818
0.51328
0.426927
0.545007
0.604494
0.589396
0.582875
0.46077
0.354123
0.533491
0.59587
0.564433
0.571304
0.516168
0.454933
0.550875
0.53654
0.441277
0.522199
0.602272
0.599297
0.581614
0.586987
0.58559
0.580488
0.590303
0.555042
0.593139
0.580683
0.58314
0.564807
0.572784
0.572877
0.503089
0.495074
0.549246
0.542976
0.508574
0.236688
0.437707
0.536725
0.44908
0.469351
0.510431
0.512534
0.203493
0.215448
0.414151
0.412601
0.553348
0.514189
0.471686
0.606225
0.596396
0.595173
0.454683
0.331153
0.531138
0.58971
0.557186
0.534458
0.532548
0.428098
0.523087
0.471606
0.47682
0.282021
0.513254
0.299422
0.515768
0.490733
0.377176
0.533973
0.0929291
-0.255957
0.50222
0.498451
0.443052
0.545156
0.542862
0.546916
0.505556
0.431471
0.519647
0.449312
0.442118
0.365377
0.532259
0.537585
0.441735
0.525433
0.558481
0.50805
0.463225
0.546451
0.560849
0.517693
0.537103
0.486371
0.476811
0.54426
0.524381
0.459823
0.496153
0.392789
0.538524
0.59628
0.568511
0.579049
0.286374
0.504414
0.013375
0.555229
0.510574
0.446956
0.543738
0.531697
0.428137
0.410336
0.525337
0.529662
0.505128
0.0555474
0.315414
0.307642
0.501717
0.0159195
0.281661
0.502122
-0.0117289
0.460377
0.51458
0.276923
0.545327
0.463647
0.531075
0.0952748
0.21402
0.437439
0.102602
0.372289
-0.122206
0.300925
0.177539
0.0290275
0.358667
0.354417
-0.00657526
0.0946405
0.357555
0.191669
0.0943699
0.125194
0.169753
0.210064
0.312298
0.231699
0.158792
0.375489
0.494297
0.449968
0.223219
0.389465
0.00472944
0.258695
0.0807414
0.0207471
0.29482
0.223281
0.213745
0.0546043
0.241802
0.426307
0.371797
0.141662
0.260077
0.134323
0.50489
0.0821511
0.355221
0.399517
0.149474
0.16068
0.103127
0.00193058
0.0817357
0.452641
0.234948
0.0979891
0.141609
0.0188063
0.445765
0.314328
0.230869
0.0960716
0.344664
0.076705
0.0916062
0.451069
0.19905
0.22985
0.317918
0.249299
0.486046
0.373819
0.360458
-0.0351201
0.01491
0.141784
0.334192
-0.0016005
0.212344
0.213983
0.0456387
0.331616
0.40567
0.169717
0.216559
0.010187
0.0768668
0.139681
0.344166
0.14168
0.118036
0.186315
0.457784
0.0943865
0.345203
0.449288
0.217929
0.095454
-0.205777
0.0603789
0.108604
0.0947503
-0.0394666
0.286704
0.380303
0.413637
0.491778
0.0832166
0.0989326
0.00128199
0.110183
0.0635451
0.42359
0.386551
0.311706
0.0511055
0.0134387
0.274661
0.379709
0.170178
0.118239
-0.0503165
0.161418
0.208293
0.46822
0.480448
0.338328
0.234224
0.150499
-0.00279734
0.47137
0.0459198
0.330642
-0.045708
0.449341
0.0123988
0.0286009
0.0753924
0.403559
0.199997
-0.0881704
0.0776104
0.303267
0.0877416
0.348694
0.28223
0.105362
0.398381
0.140726
0.0673048
0.415307
0.0827949
0.177375
-0.00329585
0.245507
0.138278
0.409259
0.343743
0.159349
0.334046
0.350408
0.433569
0.218296
0.137588
0.0997799
0.350954
0.0469354
0.258886
0.00987002
0.491953
0.164771
0.41115
0.468974
0.239406
0.476162
0.415415
0.431145
0.0443922
-0.0531698
-0.00510043
0.437386
0.0441838
0.0227542
0.039421
0.0263402
0.174137
0.140283
0.244394
0.469451
0.340489
0.134653
0.341749
0.123561
0.499304
-0.00672129
0.389149
0.106715
-0.0650885
0.455575
0.473703
0.0976037
0.109497
0.491017
0.263118
0.138866
0.0659573
0.334918
0.42335
0.322157
0.0817557
0.0972769
0.365986
0.231294
0.063757
0.282749
0.0373788
0.0332599
0.151368
0.388135
-0.0423469
0.165767
0.381138
0.134768
-0.0495054
0.16063
0.102146
0.141839
0.283697
0.296503
0.0761798
0.0173021
0.0640831
0.315992
0.314085
0.158165
0.300952
0.14734
0.0453382
0.267564
0.135685
-0.0710812
0.32519
0.413864
0.247066
0.45746
0.42746
0.502323
0.0958574
-0.0967053
0.186522
0.158673
0.136599
-0.0327562
0.272511
0.450626
0.331159
0.262966
0.0700349
0.164316
0.342398
0.229041
0.303475
0.0845038
0.188997
0.13176
0.0225828
0.0745096
0.105833
0.0950925
0.0472545
0.300967
0.233004
0.161619
0.310283
0.110099
0.176027
0.0823584
0.161252
0.12645
0.11883
0.2574
-0.0322639
-0.105714
0.194109
-0.0129563
-0.0467034
0.26196
-0.00492214
-0.0437139
0.410543
0.30661
0.0758697
0.335127
0.028142
0.293911
0.285754
0.0453608
0.102649
0.37862
0.191506
0.345886
-0.127955
0.0620212
0.414455
0.124716
0.0768852
-0.130665
-0.0300056
-0.0609811
-0.0212581
0.136928
0.308511
0.0431311
-0.0596034
0.0634042
0.118096
0.499786
0.0931788
0.331595
0.268256
0.0148936
0.162206
0.0720435
0.0115118
0.286642
0.149405
0.449726
0.311825
0.0729623
0.141575
0.237936
0.493255
0.336816
0.42755
0.344121
0.137922
0.245148
0.174051
0.054411
-0.0259319
0.111252
0.133247
0.308828
0.0888139
-0.00735659
0.100098
0.152157
0.0939732
0.122515
0.394147
0.134529
0.111628
0.44039
0.398638
0.0731783
0.236833
0.424133
0.0770054
-0.0132006
0.14443
0.0462761
0.0121558
0.420042
0.0678569
0.167062
0.430649
-0.0467747
0.241728
0.088043
0.241779
0.147079
0.10026
-0.190853
0.163012
-0.00555604
0.107424
0.151818
0.150315
0.336507
0.449012
0.0927666
0.230978
0.154308
0.0728788
-0.0773807
0.385095
0.280312
0.113434
-0.00680226
0.258928
-0.00746035
0.106958
0.0827212
0.0622967
0.367784
0.446759
0.130617
0.329634
0.48913
0.390788
0.3897
0.434967
0.134002
0.116402
0.0153025
0.491666
0.378126
0.411569
0.0968397
0.137492
-0.0554343
0.34297
0.145963
0.0857349
0.411705
0.296914
0.0555878
0.159374
0.0834949
0.0982764
0.0859617
0.142269
0.16257
0.0402779
0.131586
-0.0232167
0.162727
0.041594
0.294806
0.21309
-0.0422082
0.426314
0.440801
0.341009
0.122008
0.249183
-0.00557817
0.356622
0.23035
-0.00839741
0.421906
-0.0651927
0.452191
-0.0159224
0.174568
0.189952
0.338409
0.36016
0.0957154
0.469117
0.102755
0.396397
0.175053
0.29393
0.120232
0.0860076
0.105599
0.403024
0.18615
0.487182
0.319365
-0.0291531
0.0958968
0.295157
-0.0436178
0.125967
0.177003
0.0395779
0.456693
0.0570375
0.0341109
0.365843
0.104883
0.449305
0.480951
0.147134
0.488063
0.463526
0.399192
0.417029
0.264464
0.00231002
0.0770185
0.154297
0.383315
0.154191
-0.0632591
0.466824
0.0431701
0.169915
0.0681895
0.432189
0.497072
0.0565249
0.39179
0.267184
0.448746
0.165701
0.349869
0.153607
0.468519
0.483861
0.31937
0.0752163
0.366612
0.130391
0.232727
0.217957
0.174627
0.270152
0.115535
-0.0597106
0.0177604
0.186959
0.289852
0.236994
0.41675
0.0594498
0.14302
0.291894
0.0215531
0.439207
0.08388
0.15353
0.432475
0.405486
0.250566
0.474904
0.0802519
0.137477
0.355124
0.213595
0.203125
0.1723
0.107882
0.297605
0.326601
0.10889
0.084922
0.248679
-0.0307352
0.0364951
0.449596
0.487878
0.486491
0.179328
0.494591
0.494488
0.460913
-0.0802938
0.276809
0.269675
0.475659
0.134884
0.0928244
2.60123e-06
0.0729855
-0.0915002
0.465262
0.187883
0.197932
0.354568
0.319387
0.128251
0.151426
0.494168
0.469266
0.426813
0.315676
0.114844
0.328845
0.29891
0.132524
0.190925
0.0181428
0.0698581
0.222616
0.200778
0.118826
0.450206
0.44961
-0.0738697
0.402689
0.0955871
0.0858492
0.14485
0.445082
0.163621
0.318177
0.182834
0.430134
0.142175
0.185003
0.482376
-0.0561849
-0.0339235
0.0801338
0.0471479
-0.103076
-0.236446
0.0601479
-0.095756
0.20965
-0.0752834
0.029325
0.199962
0.0953088
0.0623382
0.127885
0.00491992
-0.206921
0.464423
0.397586
0.149274
-0.00415825
0.405293
0.122019
0.0923499
0.482428
0.0698826
0.479642
0.165042
0.410442
0.178037
0.00526347
0.0217234
0.232806
0.235531
0.210824
0.00706773
0.149326
0.0337886
0.0495591
0.10828
-0.0417742
0.0106559
0.462865
0.0773846
0.32667
0.361858
0.137056
0.374853
0.365625
-2.89146e-05
-0.225771
0.175348
-0.024934
-0.0962378
0.335224
0.341155
0.150907
0.292546
0.129018
0.483229
0.461311
0.174587
0.11787
0.472041
0.418081
0.283687
0.28141
0.137989
0.486691
0.222889
-0.0762204
0.433691
0.389849
0.451198
0.239145
0.0786836
0.141052
0.343824
0.289817
-0.303679
0.50652
0.172447
0.0758122
0.225398
0.417155
0.481827
0.487527
0.290919
0.19741
0.370549
0.420803
0.43709
0.327691
0.385354
0.0245119
0.0924571
0.256059
0.016045
0.0195633
-0.0420554
0.169468
0.36708
-0.0240771
0.22239
0.100122
0.38957
0.487549
0.184478
0.00134307
-0.0548129
0.348757
0.111749
0.0675047
-0.0499609
0.443464
0.256281
0.270008
-0.0152818
0.272329
0.0689568
0.0882701
0.339513
0.36274
0.449096
0.496853
0.0605835
0.423215
-0.0731028
0.43667
0.449966
0.450669
0.372344
0.0393823
0.0397463
0.155347
-0.0771943
0.216214
-0.0458526
0.265129
-0.00792971
0.408248
0.137929
-0.0628611
0.405362
0.350753
0.182299
0.192481
0.323042
0.443927
0.257816
0.210074
-0.0676958
0.390335
0.234427
0.469423
-0.0972155
0.203342
0.435217
0.342022
0.474729
0.348833
0.151182
-0.121156
-0.0658915
0.192222
-0.0302721
0.464546
-0.073007
0.116324
0.180042
0.0686952
0.375744
-0.0924537
0.436653
0.345749
0.273751
-0.056156
0.297533
0.076471
0.144435
0.190146
0.181108
0.136336
0.117062
0.370147
0.0432968
0.493793
0.128147
0.196401
0.311973
0.339825
0.463599
0.137685
0.165522
0.061579
0.193469
0.112886
0.458756
0.0716776
0.217732
0.136082
0.391592
0.0877415
0.235527
0.0069139
0.488169
-0.080579
0.0380407
0.122019
0.398032
-0.0571796
-0.0427956
0.0301845
-0.00721488
0.447918
0.20804
0.324909
0.41042
0.306043
0.224439
0.489489
0.213964
0.347349
0.301458
0.233019
-0.042022
0.24605
0.189661
0.116395
0.247476
0.0496093
-0.0295922
0.235268
0.145837
0.0436481
0.384687
0.197847
0.319522
0.184057
0.461205
0.177163
0.17259
0.301456
-0.0108783
0.0615023
0.136645
0.232252
0.256837
0.290739
0.444181
0.335724
0.380955
0.240181
0.423449
0.466449
0.463711
0.248216
0.215927
0.266143
0.00636865
0.476423
0.416421
0.394791
0.210394
0.0386244
-0.0395298
0.266799
0.341319
0.0791806
0.392994
0.413598
0.289004
0.0962708
0.235595
0.116534
0.0830119
0.212696
0.102575
0.270231
-0.0495803
0.273878
0.188857
0.175921
-0.0899604
0.254188
0.22612
0.318072
0.133688
0.260838
0.44233
0.455931
0.272386
0.169271
0.382698
0.234706
0.0669014
0.065248
0.167308
-0.0154524
0.443124
0.198935
0.248335
0.345925
0.331493
0.289622
0.0436042
0.489332
0.298406
0.0781088
0.20609
0.220456
0.382174
0.436301
0.300773
0.277044
-0.0546951
0.0459164
0.176567
0.284897
0.21997
0.27304
0.0989826
0.452302
0.280613
0.373217
0.421969
0.251331
0.0804379
0.228395
0.475639
0.10486
-0.0632609
0.225487
0.483767
0.118718
0.168201
0.371852
0.340593
0.399707
0.206418
-0.0506596
0.282632
0.000836784
0.12656
0.399782
0.196054
0.0130934
0.0732719
0.114881
0.296969
0.130948
0.10762
0.427277
0.083353
0.491005
0.395328
-0.00540635
-0.109872
0.200426
0.349848
0.419123
0.203531
0.176832
0.0791236
0.157071
0.179072
0.496621
0.434797
0.349549
0.137686
-0.0388812
0.44687
0.489164
0.45096
0.382538
0.430401
0.222661
0.00905884
-0.0826491
-0.0618989
0.461424
0.223763
0.0657988
0.151093
0.487902
0.137383
0.0960259
-0.019954
0.207183
0.0592246
0.498304
0.284598
0.343419
0.430973
0.41345
0.160618
0.305113
0.220545
0.326892
0.0941163
0.289317
0.0985488
0.457328
0.0173048
0.119927
0.0594401
0.153218
0.440409
0.146513
0.397056
0.423713
0.432979
0.0254094
0.217041
0.176712
0.0878958
0.449653
0.238303
0.241818
0.279286
-0.103466
0.155509
0.456221
0.311429
0.453821
-0.0725014
0.0382951
0.144285
0.463853
0.0922124
0.185217
0.0454013
0.0424408
0.142961
0.466125
0.167678
0.182809
-0.0163347
0.494574
0.477999
-0.100648
0.455238
0.135415
0.0275567
0.0423493
0.217409
-0.0222169
0.289715
0.138067
0.123332
0.158957
0.43415
0.204933
0.396333
0.163112
0.0261779
0.157293
-0.0741631
-0.0402695
0.189983
0.136478
0.251974
0.0422152
0.185565
0.418251
0.281825
0.123646
-0.00333239
0.430536
0.207709
0.188239
0.498207
0.250166
0.11724
0.120766
0.0518277
0.47093
0.119265
0.191551
0.295482
-0.0129708
0.437198
0.0271216
0.423452
0.212217
0.363824
0.0499169
0.37693
0.182226
-0.00133574
0.0641534
0.210449
0.440699
-0.114989
0.0873643
0.128551
0.466742
0.490821
0.0709483
0.107675
0.284371
0.478598
0.174121
0.446802
0.416607
0.392376
0.36353
0.26087
0.31674
0.302144
0.452837
0.187522
0.231663
0.0718945
0.100658
0.185794
0.0495682
0.471378
0.0343948
0.443396
0.177641
0.463529
0.105936
0.479198
0.360138
0.423856
0.464821
0.441478
0.49569
0.161866
0.425907
0.207919
0.142645
0.0891263
0.0437222
0.453721
0.0362104
0.28422
0.297648
0.175379
0.283956
0.0919642
0.452893
0.231017
0.372071
-0.0853823
0.0730622
0.150531
0.504276
0.0809021
0.317592
0.107576
0.151639
0.0105404
0.167702
0.138529
0.388078
0.457963
-0.0238191
0.276221
0.144972
0.113725
0.404403
0.0785009
0.0980597
0.471361
-0.0604083
0.244275
0.343563
0.437061
0.48362
0.108678
0.0875667
-0.00853433
0.139242
0.0891366
0.142718
0.361137
0.128513
0.00804698
0.181164
0.217618
0.123789
0.0975798
0.126971
0.219362
-0.00303456
0.37663
0.362644
0.12068
0.373028
0.00918061
-0.0230387
0.0767917
-0.057993
0.473169
0.142393
0.134783
0.0956263
0.41244
0.45148
0.250919
0.365008
0.101003
0.077903
0.221136
0.137729
0.0839903
0.452137
0.261317
0.313707
0.474919
0.384326
0.200549
0.466216
-0.0291067
0.255819
0.249475
0.294261
0.153918
0.461362
0.126945
0.287048
0.203574
0.122771
0.0502282
0.0954149
0.360352
0.407421
0.428382
0.227629
0.250536
0.463484
0.382584
0.190595
0.248409
0.020388
0.159156
0.393216
-0.0261337
0.421008
0.134199
0.433983
0.494183
0.456037
0.122202
0.422186
0.417959
-0.0257546
0.462753
0.104691
0.461155
0.388024
0.146639
0.0396403
0.261886
0.16408
0.146257
0.0951858
0.389987
0.123928
0.466409
0.0339849
0.109859
0.0853888
0.0323315
0.135229
0.406221
0.482325
0.0279045
0.367497
0.227097
0.287647
0.178139
0.282201
0.445488
0.393422
0.137525
0.437469
0.403221
0.480462
0.031389
0.106176
0.0948469
0.366522
0.471765
0.410974
0.191861
0.479
0.207216
-0.0212484
0.0375785
-0.115217
0.192982
0.00770266
0.479874
0.491544
0.249066
0.498203
0.396079
0.244696
0.474406
0.017015
0.460475
0.156984
0.451562
0.141739
0.0416154
0.360861
0.255243
0.461235
0.445076
0.449382
0.0614808
0.05918
-0.0465218
0.421055
0.391046
0.0689184
0.219954
0.393496
-0.071413
0.106453
0.0579373
0.144498
0.282855
0.139384
0.249879
0.354838
0.232991
0.250675
0.365058
0.137953
0.157037
0.282969
0.237552
0.144101
0.426721
0.461993
0.0694342
0.387896
-0.0826215
0.0983478
0.434839
0.377719
0.125207
0.454063
0.0152288
0.361475
0.164961
0.166294
0.434475
0.146257
0.373123
0.360913
0.328265
0.493852
0.33516
-0.0078318
0.303085
0.188635
0.375479
0.494405
0.321866
0.204904
0.0829809
0.168635
0.436253
0.0255015
0.409733
0.0690482
0.269364
0.384913
0.36439
0.224136
0.429558
0.477765
0.150898
0.13992
0.248315
0.0566453
0.00714164
0.254664
0.361298
0.0690999
-0.0108713
0.0828009
-0.0128972
0.356558
0.202528
0.380323
0.103961
0.451107
0.232847
0.417305
0.483574
0.0835886
0.442628
0.145351
0.252545
0.223716
0.42416
0.0954028
0.170682
0.231008
0.0462152
0.146775
0.0387195
0.00817623
-0.0817503
0.475039
0.488383
0.0662781
0.104836
0.369965
-0.033896
0.077176
0.139569
0.343529
0.355614
-0.0474117
-0.0853107
0.445131
0.10396
0.285206
0.100257
-0.0166467
0.0388141
0.258277
0.417741
0.281372
-0.0271226
0.452736
0.415391
0.0690692
0.282657
0.130415
0.483969
0.151264
0.179687
0.00312512
0.32436
0.463041
0.296631
0.254369
0.0874494
0.197914
0.28669
0.474696
0.499588
0.0932424
0.480391
0.0970354
0.26457
0.265644
0.190045
0.125592
0.423744
0.158109
0.257884
0.068436
0.0829197
0.165991
0.0453328
0.328661
0.4524
0.0673545
0.105441
0.25612
0.131547
0.091091
-0.0800127
0.131045
0.426161
-0.0445564
0.115064
0.351655
0.256304
0.193126
0.317678
0.405531
0.0610477
0.0681528
0.408022
0.181146
0.0597472
0.212145
0.421838
0.318864
0.266379
0.0977881
0.0899202
0.0861596
0.476039
0.410292
0.484419
0.18662
0.337587
0.0216171
0.222536
0.419133
-0.0255644
-0.0137414
0.362673
0.414312
-0.0323069
0.114739
0.0946934
0.0521472
0.0923694
0.497688
0.175806
0.109364
0.254248
0.0831555
0.358873
0.266897
0.0129287
0.118875
0.383746
0.19504
0.477495
0.00305296
0.108463
0.307616
0.288038
0.191243
0.287981
0.0472952
0.48248
0.463519
0.311714
0.429037
0.0740941
0.42483
0.316064
0.302988
0.4669
-0.0333224
0.122921
0.490709
0.319733
-0.0432203
0.11612
0.402706
0.486966
0.220109
0.371327
0.0942943
-0.00158649
0.0648818
-0.051315
0.419077
0.0923913
0.233988
0.466914
0.0786919
0.0643523
0.0904148
0.245206
0.108159
0.123611
0.0864888
0.0281969
0.196752
0.391373
0.46363
0.344266
0.136208
0.121053
-0.0567146
0.115239
0.304064
0.281093
0.325544
0.356115
0.122287
0.206345
0.4019
0.41787
0.486208
0.435758
0.47035
0.199538
0.0130127
0.064268
0.0289304
0.475876
0.245685
0.0975361
0.464919
0.0213229
0.396274
0.357715
0.121335
0.100695
0.123127
0.0971137
0.415057
0.164849
0.344701
0.211467
0.460698
0.277008
0.495137
0.0606793
0.2135
0.106176
-0.090611
0.135907
0.37929
0.0488528
-0.124871
0.265328
0.457961
0.37699
0.0953026
0.0035263
0.0702183
0.0233725
0.103527
0.0250164
0.187849
0.0371831
0.364723
0.0625274
0.105347
0.451223
0.206675
0.317949
0.406115
0.177274
0.233171
0.0569152
0.378194
0.158478
0.127303
0.18371
0.0458972
-0.00390086
0.100807
0.0959371
0.37481
0.484984
0.424687
0.269165
0.351003
-0.0254224
0.481049
0.272451
0.360377
0.10269
0.354226
0.120329
0.142805
0.394823
0.460529
0.378349
0.272895
0.151924
0.490458
0.148473
0.395372
0.473138
0.332941
0.167195
-0.0318006
0.396121
0.26047
0.0351972
0.318231
0.252857
0.457334
0.0877555
0.467819
0.486905
0.181797
0.0631184
0.470711
0.00874731
0.0422713
0.142978
0.0372441
0.131175
0.0488091
0.0056976
0.209099
0.108463
0.0666029
0.122067
0.279646
0.0940444
0.0808477
0.310884
0.234386
-0.0127856
0.451771
0.490456
0.47263
0.0976676
-0.023988
0.500483
-0.0026117
0.195863
0.0847678
0.141613
0.101845
0.361803
0.13201
0.130035
-0.0137482
-0.0271296
0.0374801
0.1353
-0.0371827
0.219338
0.258888
0.206272
0.461608
0.251539
0.3219
0.166431
0.410908
0.136398
0.14208
0.507396
0.143942
0.251988
0.00748913
0.334484
0.485759
0.164438
0.293002
0.253996
0.112402
0.0914572
0.0749216
0.0390748
0.367785
0.0482918
0.178967
0.129593
0.183379
0.0718803
0.0771402
0.195398
0.156503
0.113559
0.491524
0.200589
0.166516
0.267893
0.458125
0.144101
-0.0233302
0.385959
0.0108821
0.162316
0.0965776
0.204144
0.120243
0.157439
0.204423
0.481575
0.422217
-0.0153311
0.112519
-0.0275214
0.0863698
-0.0459371
0.0445602
0.137232
0.058889
0.143732
0.307751
0.495352
0.135132
0.35498
0.229113
0.474935
0.129156
0.486292
0.298612
0.0200868
0.300921
0.365424
0.138149
0.415304
0.0967967
0.430161
0.100598
-0.106603
0.204605
0.494101
0.485962
0.367816
0.311784
0.342842
-0.0172579
0.108891
0.341284
0.495491
-0.0816649
0.207158
0.0986138
0.134494
0.185536
0.0718985
0.02295
0.0977647
0.0416605
0.111216
0.149626
0.18375
0.492728
0.413264
-0.0472054
0.38906
0.059142
0.0681396
0.396978
0.0985329
0.160906
0.32855
-0.0432971
0.0752176
0.217942
0.423157
0.027363
0.0865309
0.156746
0.303731
0.0282871
0.45927
-0.0281226
0.137406
0.158768
0.0920498
0.311511
0.307459
0.458968
0.0917093
0.374214
0.259635
0.297767
0.0911363
0.309816
0.0545143
0.0153552
-0.0687633
0.269134
0.201631
0.159367
0.438316
0.209871
0.258461
0.306615
0.0705868
0.0458181
0.138608
0.275943
0.10242
0.494479
0.00987755
-0.027748
0.140779
0.132838
0.104395
0.0919745
0.353796
0.141587
0.212456
0.0287308
0.10005
0.206942
0.0325929
0.490237
0.481939
0.0348123
0.0703058
0.417285
0.229541
0.0796347
0.00299637
0.0795937
0.0341789
0.25587
0.448692
0.0811389
-0.0178785
0.306419
0.200655
-0.0267911
0.0305345
0.197956
0.347851
0.499472
0.0189836
-0.0297997
0.277369
0.418984
0.166382
0.259943
0.151653
0.0964451
0.142841
0.30308
0.19628
0.0982707
0.38983
0.155055
-0.0651871
0.249534
0.105083
0.395563
0.493808
0.107492
0.13175
0.133914
0.132265
0.0193177
0.144052
0.0338491
0.464959
0.400495
0.345643
0.139445
-0.0102447
0.380526
0.479345
0.0798878
0.243734
0.124173
-0.082328
0.22633
0.13843
-0.0835067
0.10232
0.307565
0.0165625
-0.0241165
0.0376826
0.406315
0.00254148
0.389005
0.191383
0.0900319
0.151166
0.0639207
0.396359
-0.0565028
0.14302
0.173305
0.0135743
0.260196
0.341023
0.273674
0.202181
0.373313
0.0306978
0.0332858
0.445219
0.0927182
0.439587
0.278505
0.165009
0.258095
0.425176
0.200816
-0.0300986
0.458694
0.0859676
0.175576
0.426133
0.0754552
0.469496
0.0823791
0.157675
-0.0338858
0.159397
0.0394861
0.215043
0.0429186
-0.0630385
0.0303906
0.0293562
-0.0762137
0.448659
0.0291216
0.152471
0.2682
0.210018
0.481628
0.483224
0.116682
0.20867
0.401205
0.103599
0.449916
-0.0628408
0.150838
0.247017
0.0836455
0.406427
0.124979
0.134587
0.118935
0.0821687
0.0900777
-0.0600225
0.429503
-0.192835
0.466761
0.347238
0.0444133
-0.0238507
0.0421631
0.500909
0.34776
0.314007
0.195731
0.263437
0.175788
0.426763
0.381251
0.0667355
0.293914
0.470077
0.186879
0.239714
0.302026
-0.0411975
0.0293713
0.395111
0.149163
0.183017
0.469834
0.0223884
-0.058452
0.0949115
0.181653
0.186487
0.48786
0.0809502
-0.00491589
0.0780811
0.17868
0.0861203
0.438765
0.200201
0.0467977
0.12382
0.0793649
0.0748165
0.130274
0.297872
0.229087
0.0579186
0.436595
0.144459
0.41126
0.058824
0.0227043
0.149526
0.429982
0.475529
0.396657
0.217621
0.194706
0.393034
0.479793
0.0108536
0.450888
0.035548
0.320188
0.299409
0.437223
0.214582
0.4225
0.45357
0.105513
0.104443
0.153608
0.213577
0.036095
0.0656873
0.0325031
0.361541
0.407285
0.00564414
0.458098
0.214421
0.37731
0.190997
0.0479485
0.403243
0.383
0.127771
0.122283
0.0379654
0.486263
0.354426
0.497807
0.0071022
0.0351624
0.174618
0.413426
0.307388
0.444848
0.244079
0.483944
0.0948717
0.168105
0.240077
0.111409
0.282272
-0.00317215
0.393049
0.20099
0.245136
0.452372
-0.00392822
0.00928365
-0.0541501
0.27697
0.431727
0.11842
0.312054
0.00742224
-0.00850608
0.188276
0.10238
0.0830058
0.436491
0.223147
0.07018
0.16856
0.272699
0.462974
0.279142
0.158376
0.428889
0.219638
0.47147
0.228034
0.343427
0.160688
0.00229893
0.494061
0.052661
0.258284
0.267208
0.44653
0.332198
0.197734
0.104949
0.490467
0.17225
0.052726
0.366999
0.482533
0.355241
0.313474
-0.00564518
-0.0721485
0.244891
0.0620395
0.155472
0.230918
0.0576081
0.461141
0.488239
0.456506
0.110072
0.144688
0.0854196
0.13298
0.332481
0.0221173
0.328878