/*--------------------------------*- C++ -*----------------------------------*\
  =========                 |
  \\      /  F ield         | OpenFOAM: The Open Source CFD Toolbox
   \\    /   O peration     | Website:  https://openfoam.org
    \\  /    A nd           | Version:  6
     \\/     M anipulation  |
\*---------------------------------------------------------------------------*/
FoamFile
{
    version     2.0;
    format      ascii;
    class       volVectorField;
    location    "0";
    object      U;
}
// * * * * * * * * * * * * * * * * * * * * * * * * * * * * * * * * * * * * * //

dimensions      [0 1 -1 0 0 0 0];

internalField   nonuniform List<vector> 
918
(
(0.984337 -0.00994607 0)
(-0.00406485 2.96742 0)
(-0.0169252 1.72879 0)
(0.960458 0.0274187 0)
(-0.0342692 1.68964 1.57854e-23)
(0.00139593 2.95108 -1.37027e-18)
(1.17028 1.45553 4.47334e-19)
(0.570043 0.306925 -4.99387e-21)
(0.99683 -0.00638522 0)
(-0.000758573 1.69553 0)
(0.0133525 1.67358 0)
(0.911889 0.0265561 0)
(0.00918813 2.93524 0)
(-0.0299165 2.83853 0)
(-0.031426 3.15699 8.52781e-19)
(0.0172356 1.65808 -1.275e-20)
(0.711798 0.144137 3.70174e-19)
(0.283326 1.96335 4.48362e-19)
(0.991564 0.057178 0)
(0.00984901 1.68425 0)
(0.34249 0.384898 -3.45877e-19)
(0.966413 0.0047215 0)
(0.969919 -0.00447928 0)
(0.959589 0.0326005 0)
(0.849742 0.0298084 0)
(0.0488175 2.67381 0)
(-0.00146574 2.92173 4.6202e-19)
(-0.0112405 1.7257 0)
(-0.00390249 1.76072 0)
(-0.00492052 1.745 0)
(-0.00295532 1.79067 0)
(-0.00448998 1.71373 -1.23731e-23)
(-0.00387378 1.6576 0)
(-0.0199282 2.9897 -4.79619e-23)
(-0.0137572 3.00788 1.07909e-18)
(0.00156704 2.99968 0)
(0.96257 0.0100466 0)
(0.348216 0.458268 -7.69045e-20)
(1.05715 1.54045 -4.91767e-19)
(1.18429 1.25048 5.09976e-19)
(0.915136 1.73849 -1.02798e-19)
(1.0085 1.70378 6.29015e-19)
(0.6089 0.340944 4.87069e-21)
(0.577632 0.292401 0)
(1.28739 0.602842 0)
(0.599137 0.353027 2.16525e-20)
(0.542469 0.333492 -2.24744e-20)
(0.947462 0.00948792 0)
(0.996377 -0.00210544 0)
(0.999279 0.00312424 0)
(0.958682 -0.0224381 0)
(0.993774 -0.00174717 0)
(1.00093 0.00251878 0)
(0.0246185 1.63216 -3.21164e-19)
(-0.00181761 1.76417 0)
(0.061291 1.73806 0)
(-0.00708223 1.76682 0)
(0.0220438 1.67584 0)
(0.0130278 1.66905 0)
(0.011372 1.72354 0)
(0.0156541 1.67453 0)
(0.00818282 1.7235 0)
(0.0203708 1.66925 0)
(0.971338 -0.0147167 0)
(0.955408 0.0129358 0)
(0.914942 0.00397887 0)
(0.930991 0.0229664 0)
(0.905657 0.00448072 0)
(0.0137054 3.00348 4.94909e-19)
(0.0116009 3.00432 0)
(0.00728589 3.00365 0)
(0.0106318 2.99742 5.53424e-24)
(0.00618287 2.96269 -7.44692e-19)
(0.0119938 2.98436 0)
(0.010116 2.90977 0)
(-0.0094839 2.93398 1.01416e-24)
(-0.0167219 2.83192 0)
(-0.0124318 2.94369 0)
(-0.038154 2.8291 0)
(0.20728 3.45454 0)
(-0.112096 3.53625 0)
(0.108474 3.23954 -7.87364e-19)
(-0.0107981 2.98743 0)
(0.00466077 1.74779 0)
(0.0100283 1.71992 1.25764e-20)
(0.0236431 1.66704 -1.76522e-20)
(0.734452 0.178812 -1.28505e-19)
(0.708734 0.122797 -1.30059e-19)
(0.734047 0.213926 -3.86832e-19)
(0.66899 0.193615 -2.56245e-19)
(0.184241 1.33812 0)
(0.370135 2.03923 -4.55431e-19)
(0.491769 2.01853 7.73411e-19)
(0.978163 0.0484187 0)
(0.941648 0.0369489 0)
(0.999372 -0.00602289 0)
(0.983135 0.00998635 0)
(1.03175 0.0536801 -7.98125e-19)
(0.993706 0.0185569 6.17812e-19)
(-0.000484689 1.7363 0)
(-0.0119689 1.69244 0)
(0.0014749 1.74708 0)
(0.0146018 1.73471 0)
(0.0315888 1.67859 0)
(0.362537 0.432544 9.80669e-20)
(0.476926 0.357936 0)
(1.01643 0.00775582 0)
(0.991167 0.00662418 0)
(0.926694 -0.00519015 0)
(0.911413 0.0133714 0)
(0.911816 0.000899215 0)
(1.10247 -0.00622696 0)
(0.84925 0.0798276 0)
(0.768361 0.0548547 5.22346e-19)
(-0.0516411 2.83829 2.18998e-19)
(0.0145492 2.95872 0)
(0.0608018 2.93198 0)
(0.00159875 2.78902 0)
(-0.00485394 2.9945 4.23084e-19)
(-0.0197069 2.90892 0)
(-0.0106919 2.98989 -1.34491e-18)
(-0.0100409 2.93161 4.6373e-19)
(0.00132554 1.77125 0)
(0.00341724 1.76175 0)
(-0.00804024 1.72003 1.37456e-23)
(-0.00550455 1.70383 0)
(-0.0165504 1.65304 0)
(0.992343 0.010896 0)
(0.965588 0.00333972 0)
(0.936796 -0.0159649 0)
(0.983943 0.0165952 0)
(0.954447 0.00529841 0)
(0.511306 0.804312 8.53917e-20)
(0.284267 0.715698 0)
(0.611828 0.78625 -2.20264e-21)
(0.485412 0.497625 0)
(1.10812 1.31688 -1.41383e-19)
(1.24634 0.992347 2.91391e-19)
(0.583297 2.0278 0)
(0.753724 1.92147 0)
(0.813919 1.91249 0)
(0.591498 1.11302 -2.28989e-19)
(0.654289 0.315663 0)
(0.638939 0.235478 6.89229e-20)
(1.16726 1.08522 0)
(1.219 0.878347 0)
(1.25506 0.800429 -2.5412e-19)
(1.22633 0.656246 0)
(1.28682 0.428396 3.17403e-20)
(0.979536 -0.0104702 0)
(0.988661 0.00380313 0)
(0.950533 -0.0220288 0)
(0.984812 0.00990521 0)
(0.974724 0.00668493 0)
(0.950652 0.00428236 0)
(0.987898 -0.00178722 0)
(0.994819 0.00427072 0)
(0.998076 0.00396714 0)
(0.0242047 1.65483 1.73246e-19)
(0.0629848 1.58106 0)
(-0.0166664 1.67533 2.89526e-19)
(-0.0341905 1.59809 -2.50476e-19)
(0.200692 1.92141 -3.74489e-19)
(0.0564513 1.79914 0)
(0.125031 1.8016 0)
(0.018659 1.73976 0)
(-0.00576944 1.67821 0)
(0.00256963 1.69527 -7.24108e-22)
(-0.00682844 1.65521 0)
(-0.00501948 1.72118 -3.3608e-20)
(-0.021719 1.66665 6.90839e-20)
(-0.0254409 1.7361 0)
(-0.00524006 1.74263 0)
(-0.0243736 1.68134 0)
(0.00825658 1.72285 0)
(0.00610328 1.68244 0)
(1.01108 -0.00593672 0)
(0.98048 0.0201983 0)
(1.01605 0.0149045 0)
(0.96496 0.0274434 0)
(0.939323 -0.000529797 0)
(0.97442 -0.00279208 0)
(0.969843 0.0127277 0)
(0.947218 -0.0123862 0)
(0.0134532 3.06397 -4.23639e-21)
(0.0170503 3.05254 0)
(0.0140124 2.97214 0)
(0.0129352 2.88078 0)
(0.683386 3.71846 0)
(0.915876 3.02177 6.26868e-19)
(0.0833017 3.10371 0)
(-0.00686076 2.88614 0)
(-0.00548804 1.74772 0)
(0.00713347 1.74863 0)
(0.00326912 1.7461 0)
(0.00817955 1.78629 2.08641e-21)
(0.00829404 1.74759 0)
(0.00355815 1.77013 0)
(-0.0293861 1.66998 -3.26602e-21)
(-0.0284686 1.71497 2.81524e-20)
(0.0201859 1.72712 1.79206e-20)
(0.00755533 1.67129 0)
(0.765502 0.133728 1.97635e-19)
(0.733815 0.0610769 -1.90339e-19)
(0.182964 1.42513 0)
(0.296923 1.32146 -1.42844e-19)
(0.130554 1.41768 -4.21216e-19)
(0.156693 1.37919 4.20646e-19)
(0.94256 -0.00250409 0)
(0.973053 -0.0022801 0)
(0.971065 0.00582691 0)
(0.940362 0.00458604 0)
(0.0104257 1.72069 0)
(-0.0110215 1.72244 0)
(-0.00555244 1.67433 0)
(0.55816 0.381391 1.91885e-19)
(0.508451 0.402812 -2.36388e-19)
(0.513793 0.342951 0)
(1.20214 0.0831157 1.50097e-21)
(1.1983 0.05436 0)
(1.12825 0.0441978 0)
(1.04464 0.0165127 0)
(0.786037 0.0904292 0)
(0.80165 0.0629603 -8.38673e-19)
(0.76094 0.0122024 3.19784e-19)
(-0.015505 2.96382 3.14605e-19)
(-0.0554489 2.83945 4.32396e-20)
(0.00373906 3.05116 -9.06332e-21)
(0.0127228 3.03958 3.52782e-19)
(-0.0119105 3.00029 1.53137e-20)
(-0.00769067 2.95483 -6.26853e-23)
(-0.0142171 3.01289 -2.93176e-19)
(0.0110244 3.02436 2.09643e-19)
(0.0075021 3.02844 -3.46666e-19)
(1.00362 0.0205414 0)
(1.00748 0.00710987 0)
(0.96514 0.0177775 0)
(0.979051 -0.0178927 0)
(0.988057 -0.00484125 0)
(0.952808 -0.0225776 0)
(0.97327 0.0127677 0)
(0.976878 0.000111151 0)
(0.942209 0.0099495 0)
(0.453274 1.01747 2.30264e-19)
(0.389604 1.07576 0)
(0.599876 0.871565 6.12669e-20)
(0.643325 1.01547 4.19562e-19)
(0.655173 0.868571 -1.96575e-19)
(0.547842 0.672391 3.49708e-19)
(0.505113 1.2964 1.1141e-18)
(0.487862 1.18225 2.23307e-19)
(0.693439 0.252003 2.75537e-19)
(0.67805 0.26802 6.60205e-20)
(0.65336 0.222753 1.34378e-19)
(1.26743 0.48182 1.58922e-19)
(1.30199 0.2685 1.72795e-19)
(-0.016288 1.65755 1.17028e-19)
(0.011152 1.62554 0)
(1.06637 0.0265181 0)
(1.04388 0.0198991 0)
(1.01838 -0.00605281 0)
(0.01873 3.07494 0)
(0.0106947 2.93856 5.86949e-19)
(0.0204089 2.95951 0)
(0.0151443 2.84784 -5.82131e-19)
(0.0104703 3.08092 1.38036e-19)
(0.0129767 3.07391 0)
(0.413854 1.34777 -1.29866e-19)
(0.92653 2.21322 3.61511e-19)
(0.364875 1.56353 -8.50938e-19)
(0.0225723 2.97608 -2.01956e-19)
(0.0562898 3.0159 0)
(-0.0186736 2.8493 0)
(0.0009426 1.71028 -5.43485e-21)
(-0.00204354 1.74233 -4.7476e-20)
(0.0259979 1.68831 -7.45831e-21)
(0.261956 1.37884 4.49269e-19)
(0.345339 1.29513 -3.10869e-19)
(0.0517971 1.59085 2.84136e-19)
(0.087181 1.49733 -3.3417e-19)
(0.0890082 1.46566 2.94023e-20)
(0.0164424 3.08487 -7.9927e-19)
(0.0238177 3.10019 8.34084e-19)
(-0.0368888 2.98935 3.79675e-19)
(-0.0204544 2.96448 -3.4888e-19)
(-0.0533935 2.87443 -3.86894e-19)
(0.0139767 3.09519 -9.99009e-19)
(0.0241484 3.1022 9.37413e-19)
(0.560257 1.20721 0)
(0.604343 1.13998 -1.04776e-18)
(0.603299 1.02981 4.73143e-19)
(0.410145 1.29479 6.09896e-19)
(0.457506 1.19006 -9.53962e-19)
(1.28038 0.163741 -2.42294e-20)
(1.27522 0.273467 0)
(1.28167 0.112967 6.09311e-20)
(-0.0054132 1.70679 -8.30701e-22)
(0.0170569 1.68582 0)
(0.0201181 1.6522 0)
(0.319074 1.34627 -1.61024e-19)
(0.386881 1.32641 -3.93718e-19)
(0.406535 1.23753 7.10434e-19)
(1.01114 -0.0529602 0)
(0.996754 -0.0519472 1.57619e-19)
(-0.00152114 1.77121 0)
(-0.00296576 1.77631 0)
(0.978256 -0.0110794 1.89048e-21)
(0.998151 -0.0155525 2.9998e-19)
(0.0071997 1.7752 -2.78386e-21)
(0.00487993 1.77463 0)
(0.0829456 3.22807 1.06701e-20)
(0.30772 3.57906 0)
(1.07168 0.67816 5.7863e-21)
(1.01399 -0.0107569 -2.43386e-22)
(1.01182 0.00950026 0)
(1.00284 -0.0101475 -3.92552e-21)
(0.0439672 1.84984 0)
(0.0685779 1.68621 0)
(0.00993671 1.79358 0)
(0.0119548 1.75616 4.85196e-20)
(0.0254097 1.74641 2.76307e-20)
(0.996125 -0.00258994 -1.41894e-21)
(1.04661 -0.00654956 0)
(1.05989 0.0325468 0)
(-0.00163714 1.75233 0)
(-0.0195426 1.78977 0)
(-0.00858018 1.78727 0)
(0.241351 1.96212 -1.73441e-19)
(0.993195 -0.0513623 0)
(0.979852 -0.0452334 0)
(1.01152 0.00100637 2.02274e-19)
(1.00601 -0.00568251 -2.32621e-19)
(0.996725 0.00656578 0)
(-0.0149817 1.75018 0)
(0.00281184 1.76022 0)
(-0.0100615 1.7547 0)
(-0.00479286 1.78937 0)
(0.00116945 1.77526 0)
(-0.00529954 1.78245 0)
(1.02301 0.00642167 0)
(1.0202 -0.00670705 -8.0114e-22)
(0.720523 1.59746 2.46641e-19)
(1.02474 -0.00930224 -2.00552e-19)
(1.0137 0.0175862 2.46016e-19)
(0.995747 0.0072052 0)
(1.01812 -0.0030811 1.88106e-19)
(0.976957 -0.0127891 -2.43918e-19)
(0.977559 -0.00819933 0)
(-0.0202113 1.79121 0)
(-0.00884936 1.77967 5.19737e-21)
(-0.00937231 1.78503 -2.19005e-21)
(1.18751 0.261935 5.35821e-20)
(1.10455 0.0619441 0)
(0.151376 3.05612 -3.89733e-19)
(0.0831231 2.88484 -3.3912e-20)
(0.231098 3.2404 4.92696e-19)
(0.165136 3.29388 4.58649e-20)
(0.175243 3.33289 0)
(0.039523 3.13265 7.48616e-20)
(0.133643 3.16907 3.78129e-19)
(0.11777 3.22202 -1.48984e-19)
(0.0632744 3.08819 0)
(0.708486 0.343026 0)
(0.64487 0.407113 0)
(0.994777 0.716195 -3.53066e-20)
(1.08785 0.83261 6.26301e-20)
(1.15219 0.560821 0)
(1.1812 0.52976 0)
(1.02739 -0.00724325 -3.69406e-19)
(1.02852 -0.00387557 4.57928e-19)
(1.03317 0.013416 0)
(1.02785 0.0107362 0)
(1.00575 0.00909061 0)
(1.01178 0.000852232 0)
(1.03637 -0.0210848 0)
(1.03142 0.00411893 0)
(1.03316 0.023581 0)
(1.03956 0.0229479 0)
(0.0444227 1.85453 0)
(0.0280389 1.85962 0)
(0.0437803 1.8665 0)
(0.0367704 1.88237 0)
(0.0899396 1.67314 0)
(0.106776 1.66636 -1.84609e-19)
(0.0338993 1.71647 0)
(0.00231079 1.69734 9.75916e-20)
(0.0405001 1.76443 -8.65695e-20)
(-0.000115484 1.79192 0)
(-0.0144483 1.78472 0)
(0.0166698 1.79263 0)
(0.00783365 1.8076 0)
(-0.00724599 1.75382 -3.04907e-20)
(0.0167016 1.75797 3.4013e-20)
(0.0134061 1.76654 4.05741e-20)
(0.0203633 1.76794 0)
(0.0226987 1.7751 -5.30404e-20)
(0.00357537 1.77328 -3.60663e-20)
(0.00152008 1.74043 2.34243e-20)
(0.018998 1.75757 -4.34456e-20)
(0.0137057 1.76158 -4.84597e-20)
(1.00301 0.0107675 3.5117e-19)
(1.00306 0.0125683 -4.37862e-19)
(0.998225 -0.00524612 -3.56516e-19)
(0.97366 -0.00132076 4.55826e-19)
(1.0388 -0.00189415 0)
(1.0417 -0.0181106 0)
(1.03989 0.022803 0)
(1.06601 0.015075 0)
(1.07258 0.0231443 0)
(1.05976 0.0530745 0)
(1.07905 0.0321852 0)
(1.08207 0.0393649 0)
(-0.00414956 1.77022 -1.38808e-21)
(-0.00990404 1.76109 0)
(0.00654059 1.7546 0)
(-0.0051976 1.79217 8.13573e-21)
(-0.0113404 1.79998 -3.98225e-22)
(-0.00136358 1.71499 1.58617e-20)
(-0.00591621 1.73965 -1.6151e-20)
(0.0074717 1.76674 0)
(0.00964216 1.75755 0)
(0.0027669 1.75654 0)
(-0.0121957 1.7776 0)
(-0.0152611 1.77735 0)
(0.37721 1.94215 2.85115e-19)
(0.371599 1.94953 1.34756e-19)
(0.281198 1.53263 -1.10932e-19)
(0.110968 1.53376 2.90948e-19)
(0.296241 1.62222 6.98819e-20)
(1.00002 0.00630802 0)
(0.981272 -0.0287503 0)
(0.986916 -0.00643406 0)
(1.03807 -0.013489 0)
(1.0141 -0.0170174 0)
(0.996677 -0.0230919 0)
(0.972528 0.0357515 0)
(1.0184 0.0583856 0)
(1.0077 0.00640952 3.49873e-19)
(1.01601 0.0209615 -4.42373e-19)
(1.01739 -0.0179425 -3.52408e-19)
(1.01873 -0.0120078 4.37968e-19)
(0.719984 1.65856 0)
(0.625351 1.78587 1.98758e-19)
(0.808966 1.42622 6.95506e-20)
(0.841422 1.37628 -9.16048e-20)
(0.861181 1.88328 -1.79071e-19)
(0.857605 0.116869 1.97958e-19)
(1.1278 0.0878801 0)
(1.08527 0.158435 -5.45983e-20)
(1.15511 0.137812 -1.09506e-21)
(0.95966 0.141804 0)
(0.255189 3.06589 -2.82535e-19)
(0.212802 2.88781 -4.78555e-19)
(0.126216 2.2402 3.89463e-19)
(0.26997 0.250447 -1.22765e-19)
(0.239446 3.52222 -4.3629e-19)
(0.194918 3.45286 0)
(0.221208 3.47429 5.68113e-19)
(0.310987 3.25735 4.35028e-19)
(0.358978 3.38721 0)
(0.0195219 3.09372 2.0743e-20)
(0.0281415 3.114 -2.51194e-19)
(0.0278943 3.10317 3.69006e-19)
(0.0582718 3.1294 0)
(0.0642024 3.14703 0)
(0.801786 2.12558 0)
(0.205329 0.513576 4.45521e-20)
(0.977044 1.17167 -4.27739e-20)
(0.934875 1.15495 0)
(0.704845 1.05233 -3.08899e-20)
(0.973929 0.893613 1.33991e-20)
(0.581102 0.58521 -2.21792e-19)
(0.707175 0.336297 -1.22861e-20)
(0.694419 0.318756 1.34908e-19)
(0.635063 0.419895 8.85479e-21)
(0.619564 0.425245 -3.64967e-19)
(0.710966 0.352213 0)
(0.701643 0.39703 1.92689e-19)
(0.706049 0.39626 0)
(0.666825 0.376542 0)
(0.676489 0.361123 0)
(0.692446 0.62685 1.0329e-19)
(1.20438 0.312045 -9.05834e-21)
(1.16133 0.410793 0)
(1.17893 0.409942 0)
(0.789134 0.235867 2.20173e-19)
(0.731392 0.468039 -1.15228e-19)
(0.724332 0.436161 1.93766e-19)
(0.858784 0.421667 -2.12278e-19)
(1.01183 0.0248631 2.42274e-19)
(1.02842 -0.00577068 -2.40903e-19)
(1.01796 0.0151306 0)
(1.01762 -0.00262201 0)
(1.02657 -0.0175065 -2.36457e-19)
(1.02228 -0.0198465 2.35899e-19)
(1.00985 -0.0134075 0)
(0.997281 -0.00595827 0)
(1.01822 -0.00400043 0)
(1.02709 -0.00971192 0)
(1.01148 -0.01059 0)
(1.01468 0.00889757 0)
(0.0239755 1.85202 0)
(0.0210227 1.84401 0)
(0.0661172 1.82552 3.22546e-20)
(0.246656 1.94267 8.80689e-20)
(0.0764585 1.9133 1.90892e-19)
(0.11866 1.96784 -3.12137e-19)
(0.155054 1.86473 0)
(0.152403 1.74356 -5.71618e-20)
(0.119128 1.79532 0)
(0.290145 1.67609 -1.00747e-19)
(0.204936 1.62791 3.38269e-19)
(0.202485 1.76394 4.92394e-20)
(0.263445 1.8641 3.36928e-20)
(0.223631 1.86352 -2.71178e-20)
(0.307976 1.79166 -2.45187e-20)
(0.264996 1.7435 0)
(0.270758 1.75812 2.56983e-20)
(0.0459695 1.7594 -3.14889e-20)
(0.0490633 1.75411 0)
(0.0628517 1.73021 1.20489e-19)
(0.0639979 1.74291 0)
(0.0143565 1.70707 -1.05547e-19)
(0.0262765 1.73453 0)
(0.00105204 1.7681 -1.33e-20)
(-0.00893901 1.77096 0)
(0.0129107 1.75991 0)
(0.0177872 1.7597 1.47319e-20)
(0.00380416 1.75967 -1.33727e-21)
(0.0118432 1.76881 1.0345e-19)
(0.00259903 1.76452 6.91585e-22)
(-0.0106568 1.74616 1.56835e-20)
(-0.0147715 1.74307 1.30578e-20)
(-0.0130814 1.78446 0)
(-0.0108766 1.77298 0)
(0.000770404 1.75802 6.21558e-20)
(0.0251293 1.75119 4.86697e-20)
(0.00595678 1.74856 -6.8746e-20)
(0.0072133 1.75127 0)
(0.0113114 1.77067 -2.67427e-20)
(0.0184719 1.76313 1.52812e-20)
(0.018585 1.7497 -5.10457e-21)
(0.00579832 1.741 -1.93651e-20)
(-0.00795571 1.74685 -1.0864e-20)
(0.0191763 1.7688 2.74699e-20)
(1.01832 -0.00337164 -2.32607e-19)
(0.999613 0.0258118 2.35103e-19)
(1.00775 0.00978727 0)
(0.967885 0.0533526 3.23108e-19)
(0.960964 0.0249201 -3.76455e-19)
(0.922815 0.0397951 4.3087e-19)
(0.973553 0.0326725 -4.14469e-20)
(1.04584 0.0044705 0)
(1.04018 -0.023442 2.09436e-19)
(1.03953 -0.0159304 -2.11538e-19)
(0.991399 0.033109 -1.17897e-20)
(1.01559 0.0232879 1.03963e-19)
(0.971862 0.0477849 0)
(0.972465 0.0281495 -3.79853e-20)
(1.0202 0.0473514 0)
(0.999953 0.0381175 0)
(1.01352 0.0100893 0)
(1.0172 0.0065206 0)
(1.01168 0.030528 8.02821e-20)
(0.998578 0.0104291 -1.68408e-19)
(0.924398 0.00122655 -8.29088e-20)
(0.948992 0.0198089 -9.4082e-20)
(1.00385 0.0805441 1.51348e-19)
(1.0639 0.0649012 0)
(1.03247 0.0790511 0)
(-0.0150737 1.7671 -2.22582e-20)
(-0.0247882 1.76735 -9.14406e-22)
(-0.0174877 1.75409 0)
(-0.0218872 1.77743 2.17484e-20)
(-0.00673946 1.7768 2.17305e-21)
(-0.0162569 1.78249 -2.3527e-21)
(0.000566133 1.77146 2.7434e-20)
(0.00929186 1.74366 -1.65982e-21)
(-0.0120279 1.74077 1.29371e-20)
(0.00796804 1.79566 -1.77548e-20)
(-0.00351271 1.7689 2.05301e-20)
(0.0183023 1.72543 1.92536e-21)
(0.00879919 1.70748 1.60617e-20)
(0.364863 1.81231 -1.18316e-19)
(0.302271 1.79655 4.67228e-20)
(0.639509 1.83005 -1.917e-19)
(0.526339 1.91222 -1.33218e-19)
(0.529211 1.89503 0)
(0.319018 1.52941 1.15946e-19)
(0.35846 1.51602 1.65263e-19)
(0.153989 1.55208 2.45077e-20)
(0.164392 1.54139 -3.8531e-19)
(0.218457 1.54904 3.17321e-19)
(0.255428 1.55408 0)
(0.178492 1.54515 -2.43296e-19)
(0.144424 1.636 4.75068e-19)
(0.127738 1.57023 -3.94937e-20)
(0.113613 1.60684 -6.43511e-19)
(0.669674 1.47486 6.41574e-19)
(0.465225 1.50021 0)
(1.03266 -0.00920655 6.56532e-21)
(1.04428 0.0607811 -5.61013e-21)
(1.02679 0.0384887 -1.09609e-19)
(0.999188 0.0104228 1.12355e-19)
(1.00507 0.0151077 0)
(0.559029 1.62369 0)
(0.502846 1.52172 0)
(0.617999 1.26025 0)
(0.424313 1.47316 0)
(0.859194 1.82832 1.14432e-19)
(0.929562 1.6643 0)
(0.638803 1.73884 4.21729e-21)
(0.508226 1.59903 0)
(0.591214 1.58235 -4.22155e-19)
(0.612247 1.63532 2.70028e-19)
(0.873629 0.138908 0)
(0.851001 0.160524 5.53928e-20)
(0.921934 0.0812887 2.84526e-19)
(0.861969 0.097889 -1.08344e-19)
(0.844607 0.0601 -3.67416e-19)
(0.976192 0.190668 -2.05854e-19)
(0.925533 0.246981 -9.08719e-21)
(0.808847 0.269825 2.74318e-19)
(0.937601 0.222512 2.0609e-19)
(0.92579 0.137942 -3.70073e-19)
(0.900137 0.138224 4.6981e-20)
(0.846654 0.236348 -9.50446e-20)
(0.905883 0.210966 0)
(0.947973 0.177248 1.80785e-19)
(0.940609 0.17193 0)
(0.952416 0.220073 0)
(1.07521 0.139492 7.0433e-20)
(0.967865 0.147426 -4.00422e-21)
(0.98095 0.16944 -4.44406e-20)
(1.00297 0.199606 0)
(1.01472 0.0502866 1.67726e-19)
(1.01594 0.0393111 2.1213e-19)
(1.0199 0.0598448 -1.63544e-19)
(1.0298 0.0565523 -1.42475e-19)
(0.974005 0.0648596 -2.29701e-19)
(0.956548 0.0501772 0)
(0.95389 0.0301187 0)
(0.926159 0.0825517 -1.53331e-19)
(0.910423 0.0817199 6.24066e-20)
(1.01252 0.0827518 1.86165e-19)
(0.988346 0.0867776 -2.10116e-19)
(0.98691 0.103422 1.90734e-19)
(0.98184 0.121913 0)
(0.992099 0.0814682 0)
(1.0063 0.0972562 -8.26858e-20)
(1.01366 0.0995063 -1.47809e-19)
(0.357302 1.7361 2.0129e-19)
(0.385527 2.06785 -1.9013e-19)
(0.658951 2.20854 -1.111e-19)
(0.671019 2.83265 -4.36773e-20)
(0.885747 2.13108 2.90869e-19)
(0.866643 2.23076 -2.01428e-19)
(0.974223 1.69062 -3.92679e-20)
(0.669869 2.59376 5.80434e-20)
(0.757504 2.42499 2.56759e-20)
(0.689003 3.02763 -1.55838e-19)
(0.934804 2.64905 1.77178e-19)
(0.964227 2.62867 0)
(0.176148 0.640111 2.37143e-22)
(0.650836 1.37104 5.88117e-20)
(0.711684 0.505505 1.54079e-19)
(0.726682 0.359794 2.37909e-19)
(0.608636 0.437127 2.00333e-19)
(0.610915 0.435241 -2.61344e-19)
(0.598475 0.459225 1.93262e-19)
(0.604768 0.449844 -9.70774e-20)
(0.581674 0.474273 2.49528e-19)
(0.788156 0.258118 -1.24665e-19)
(0.751865 0.2857 0)
(0.768222 0.270052 6.29189e-21)
(0.671448 0.466781 9.65886e-20)
(0.663103 0.425871 -3.61722e-19)
(0.610658 0.434579 1.51002e-20)
(0.633816 0.444076 0)
(0.443243 0.67816 6.66813e-20)
(0.633793 0.81723 1.74625e-19)
(0.542274 0.762228 -1.9389e-19)
(0.654541 0.835067 -5.61541e-20)
(0.781393 0.898743 -1.31135e-20)
(0.77351 0.902633 1.33978e-20)
(0.778622 0.561947 -1.86262e-19)
(0.823867 0.637587 5.26827e-20)
(0.868368 0.735119 0)
(0.866466 0.713977 -5.46642e-20)
(0.968802 0.333784 5.28768e-20)
(1.10134 0.293061 1.82793e-20)
(1.02839 0.238411 8.10787e-20)
(0.922065 0.383893 -1.14907e-19)
(0.942958 0.386564 0)
(0.966484 0.386559 0)
(0.863124 0.334235 5.67633e-21)
(0.780299 0.314792 0)
(0.813562 0.299461 1.34893e-19)
(0.839698 0.273762 -1.02215e-20)
(0.852357 0.418839 5.8513e-19)
(0.810697 0.47081 1.61212e-19)
(0.8225 0.450616 -1.72245e-19)
(0.767032 0.370903 1.83662e-19)
(0.726186 0.388248 1.1398e-19)
(0.70647 0.410421 -1.0999e-19)
(0.994351 0.0391732 1.91018e-19)
(0.998629 -0.039742 0)
(1.00111 0.00871342 1.27434e-19)
(1.00228 0.0340814 -2.85642e-19)
(1.00854 -0.0152245 1.3815e-19)
(1.0121 0.0496282 -2.92726e-19)
(1.00572 0.0041208 0)
(0.996337 -0.0246676 -6.24838e-20)
(0.999469 0.0203744 1.58046e-19)
(0.991182 0.0115406 -8.12988e-20)
(0.986263 -0.0137676 5.93699e-20)
(0.00677795 1.81114 0)
(0.0163834 1.76045 0)
(0.0145383 1.83817 0)
(0.00753202 1.82683 0)
(0.0478012 1.74863 5.47828e-20)
(0.0546287 1.77849 -3.18106e-20)
(0.0628767 1.78898 -1.03525e-20)
(0.0549326 1.77455 -3.21355e-20)
(0.035425 1.76172 -3.5689e-20)
(0.0253755 1.76353 2.59927e-20)
(0.0494608 1.75729 -2.99588e-20)
(0.0288198 1.78762 -4.17978e-21)
(0.0287565 1.78577 7.7506e-22)
(0.0168074 1.76445 -3.59381e-21)
(0.0497169 1.71964 -1.25469e-19)
(0.0366908 1.70661 0)
(0.0503989 1.70016 7.80735e-20)
(0.0839765 1.78645 4.34945e-20)
(0.220531 1.6993 -5.05649e-20)
(0.176784 1.67374 0)
(0.168609 1.64549 -3.50763e-19)
(0.204232 1.66327 2.46916e-19)
(0.159784 1.71827 -1.44137e-19)
(0.0885427 1.6862 7.91432e-20)
(0.0929658 1.66416 0)
(0.00605135 1.75612 -7.23264e-20)
(0.00451546 1.74525 -9.58131e-20)
(0.00415387 1.74536 0)
(0.00462483 1.74776 -1.89441e-21)
(0.0181922 1.74674 3.86475e-20)
(0.00538363 1.78749 2.35612e-21)
(0.00488462 1.79062 -3.12907e-20)
(-0.00480048 1.78822 3.94861e-21)
(-0.003357 1.77582 1.61988e-20)
(0.011646 1.77448 0)
(-0.00551171 1.78759 0)
(-0.000625959 1.78539 1.71046e-20)
(-1.44567e-05 1.79052 -5.14093e-21)
(-0.00178303 1.78587 0)
(0.00588639 1.77996 1.49205e-20)
(0.00604172 1.78036 -2.75053e-20)
(0.969981 0.040867 0)
(1.02534 0.0797367 -1.88362e-20)
(1.03218 -0.00286426 -1.17476e-19)
(1.01232 -0.00496804 0)
(1.04336 0.0545227 0)
(1.00442 -0.0272777 -1.69443e-20)
(0.973337 -0.0093397 2.12732e-19)
(1.00892 0.00752173 2.62331e-19)
(1.00758 0.0221145 0)
(1.00093 0.0139114 0)
(1.00625 0.00456735 1.35844e-19)
(1.00635 0.0134559 0)
(0.994615 0.0195029 0)
(0.0365154 1.76462 0)
(0.024596 1.72114 -2.37597e-21)
(0.0163366 1.77528 4.87812e-21)
(0.00390709 1.78268 0)
(0.0171285 1.70984 1.40463e-20)
(0.0131012 1.72606 -6.42985e-21)
(-0.00252946 1.77945 0)
(0.393157 1.65195 0)
(0.314457 1.76487 -1.24884e-19)
(0.286928 1.72058 0)
(0.45046 1.77093 8.16384e-20)
(0.486846 1.79822 0)
(0.439558 1.80463 -5.44185e-21)
(0.680719 1.55239 -1.34178e-20)
(0.721978 1.47975 -7.51385e-19)
(0.779724 1.45458 8.60065e-19)
(0.493167 1.50443 1.82353e-19)
(0.491639 1.52473 0)
(0.534877 1.52035 0)
(0.623996 1.49283 0)
(0.564731 1.48653 -6.61333e-19)
(0.370049 1.576 -3.35852e-19)
(0.463361 1.54111 -8.43136e-20)
(0.501781 1.57444 6.98129e-20)
(0.406606 1.50054 0)
(0.455553 1.50916 0)
(0.421186 1.50682 -1.88986e-19)
(0.455472 1.55482 0)
(0.27209 1.4307 0)
(-0.165241 1.25008 -1.33073e-19)
(0.153486 0.930087 -9.01516e-21)
(0.0780057 1.6436 0)
(-0.0806802 1.68353 2.29577e-19)
(0.598611 0.830593 -5.74164e-20)
(0.596879 1.16641 0)
(0.670549 1.07633 6.5538e-20)
(0.397495 1.12032 0)
(0.456576 0.987302 0)
(0.836312 1.86431 -1.27823e-19)
(0.731831 2.04579 -1.66194e-19)
(0.620169 1.95888 3.19609e-19)
(0.653317 1.85852 -9.61673e-20)
(0.867178 1.732 0)
(0.857917 1.67976 1.23983e-19)
(0.927002 1.60939 -1.42089e-19)
(0.923607 1.50496 -1.19171e-20)
(0.554695 1.71248 0)
(0.441209 1.74036 -1.75083e-19)
(0.460883 1.67436 0)
(0.87904 0.223731 0)
(0.848662 0.158424 0)
(0.806138 0.17551 0)
(0.851484 0.234141 -2.13017e-19)
(0.798725 0.221795 1.31744e-19)
(0.903452 0.0841098 -1.29043e-19)
(0.926851 0.0742805 0)
(0.926134 0.0694412 5.46952e-20)
(0.871223 0.0401499 2.35594e-19)
(0.882188 0.0647428 -1.44861e-19)
(0.758306 3.23543 -4.96357e-19)
(0.730065 3.15769 0)
(0.80026 3.2543 -1.29055e-18)
(0.375882 3.54132 1.17903e-18)
(0.444151 3.26107 5.26837e-19)
(0.0924901 0.913844 -3.86933e-19)
(-0.1542 1.37735 0)
(0.531674 0.387203 1.07538e-20)
(0.490991 0.34812 -7.22741e-20)
(0.668272 0.390984 -5.75784e-20)
(0.675146 0.437533 4.20862e-21)
(0.636338 0.477646 1.0465e-19)
(0.654293 0.476312 0)
(0.61549 0.492449 0)
(0.633871 0.413556 0)
(0.971002 0.571061 4.99682e-21)
(0.783135 0.464527 -1.56658e-19)
(0.759577 0.537279 1.20624e-19)
(0.864002 0.483699 -1.12328e-19)
(1.01598 0.410181 0)
(1.07855 0.533899 -2.22852e-20)
(0.768847 0.350093 -2.6991e-19)
(0.782483 0.349422 -3.20857e-19)
(0.727559 0.379824 2.10564e-19)
(0.744729 0.333848 -2.19632e-19)
(0.768757 0.323533 -1.74985e-19)
(0.748733 0.326115 2.15596e-19)
(1.02078 -0.0217529 -1.39943e-19)
(1.0268 -0.0151927 2.82413e-19)
(0.993803 0.0412692 1.825e-19)
(0.997761 0.0542439 -2.17924e-19)
(0.954335 0.0467803 0)
(0.964394 -0.0244867 -3.41077e-19)
(0.0539886 1.78315 1.87932e-20)
(0.0464285 1.74223 0)
(0.0702444 1.78415 1.44021e-19)
(0.0771501 1.78807 -1.22478e-19)
(0.0604832 1.78292 1.89827e-20)
(0.0486539 1.72014 0)
(0.0183412 1.72724 0)
(0.00311166 1.77673 -3.89691e-21)
(-0.00155199 1.7812 3.50113e-21)
(0.00885063 1.75213 -3.80829e-21)
(0.0166443 1.73095 -8.27427e-21)
(0.0029745 1.73066 8.49301e-21)
(0.517252 1.65791 -4.16035e-19)
(0.492146 1.63133 4.41454e-19)
(0.453234 1.7159 -9.96627e-20)
(0.47454 1.67375 1.77591e-20)
(0.568713 1.67893 0)
(0.554025 1.7576 6.8928e-20)
(0.559945 1.73873 -6.77921e-20)
(0.493739 1.71087 9.61041e-20)
(0.515008 1.67161 0)
(0.495908 1.67911 0)
(0.350969 1.53449 5.15817e-19)
(0.398295 1.52459 7.61302e-19)
(0.412072 1.54967 -5.1999e-19)
(0.339731 1.53194 -9.79683e-20)
(0.309264 1.5359 1.58618e-19)
(0.220649 1.53783 -4.02021e-19)
(0.823889 1.43542 -4.67475e-19)
(0.902816 1.45819 0)
(0.857654 1.43653 -4.76494e-19)
(0.798106 1.60582 0)
(0.801879 1.5493 0)
(0.147539 2.91875 4.10621e-19)
(0.469377 3.09961 4.02475e-19)
(0.418737 3.19064 -5.04449e-19)
(0.501408 1.45796 0)
(0.442861 1.2491 2.03656e-19)
(0.149008 1.27688 2.068e-19)
(0.12379 2.84496 0)
(0.30704 3.14977 -3.76671e-19)
(0.34904 3.02559 0)
(0.522471 0.488214 -1.50466e-19)
(0.655994 0.636793 2.51517e-19)
(0.647763 0.650107 -2.53472e-19)
(0.602889 0.468012 -1.74025e-20)
(0.665646 0.500242 -8.15113e-20)
(0.38464 2.9473 -3.05944e-19)
(0.394685 2.71946 1.27045e-19)
(0.143682 2.7422 -2.93689e-19)
(0.0543289 2.57727 1.41551e-19)
(0.188659 2.27624 -3.37609e-19)
(0.306607 2.62335 -1.57933e-19)
(0.364892 2.2391 1.29149e-19)
(0.0209503 2.48978 3.17731e-21)
(0.0745797 2.38361 1.75193e-19)
)
;

boundaryField
{
    wall-4
    {
        type            noSlip;
    }
    velocity-inlet-5
    {
        type            fixedValue;
        value           uniform (1 0 0);
    }
    velocity-inlet-6
    {
        type            fixedValue;
        value           uniform (0 3 0);
    }
    pressure-outlet-7
    {
        type            zeroGradient;
    }
    wall-8
    {
        type            noSlip;
    }
    frontAndBackPlanes
    {
        type            empty;
    }
}

