/*--------------------------------*- C++ -*----------------------------------*\
  =========                 |
  \\      /  F ield         | OpenFOAM: The Open Source CFD Toolbox
   \\    /   O peration     | Website:  https://openfoam.org
    \\  /    A nd           | Version:  6
     \\/     M anipulation  |
\*---------------------------------------------------------------------------*/
FoamFile
{
    version     2.0;
    format      ascii;
    class       volVectorField;
    location    "0";
    object      U;
}
// * * * * * * * * * * * * * * * * * * * * * * * * * * * * * * * * * * * * * //

dimensions      [0 1 -1 0 0 0 0];

internalField   nonuniform List<vector> 
10000
(
(-5.88807e-07 -5.80543e-07 0)
(5.58583e-05 -1.15674e-05 0)
(0.000179074 -2.14879e-05 0)
(0.000353732 -2.92208e-05 0)
(0.000568963 -3.4866e-05 0)
(0.000813663 -3.84664e-05 0)
(0.00107659 -4.00031e-05 0)
(0.00134661 -3.94988e-05 0)
(0.00161308 -3.7101e-05 0)
(0.00186645 -3.30905e-05 0)
(0.00209865 -2.7848e-05 0)
(0.00230342 -2.18034e-05 0)
(0.00247635 -1.53864e-05 0)
(0.00261491 -8.98851e-06 0)
(0.00271828 -2.94425e-06 0)
(0.00278714 2.47146e-06 0)
(0.00282345 7.02645e-06 0)
(0.00283015 1.06723e-05 0)
(0.00281113 1.38482e-05 0)
(0.00276872 1.65815e-05 0)
(0.00270619 1.8542e-05 0)
(0.00262691 1.98058e-05 0)
(0.00253414 2.04979e-05 0)
(0.00243081 2.07232e-05 0)
(0.00231963 2.05725e-05 0)
(0.00220298 2.01243e-05 0)
(0.00208296 1.94487e-05 0)
(0.00196137 1.86048e-05 0)
(0.00183978 1.7641e-05 0)
(0.00171948 1.65999e-05 0)
(0.00160153 1.55175e-05 0)
(0.0014868 1.44199e-05 0)
(0.00137597 1.33282e-05 0)
(0.00126954 1.22606e-05 0)
(0.00116791 1.12289e-05 0)
(0.00107134 1.02401e-05 0)
(0.00097998 9.30007e-06 0)
(0.000893919 8.41329e-06 0)
(0.000813171 7.58062e-06 0)
(0.000737696 6.80064e-06 0)
(0.000667407 6.07252e-06 0)
(0.000602187 5.39578e-06 0)
(0.000541894 4.76823e-06 0)
(0.000486363 4.1863e-06 0)
(0.000435414 3.64723e-06 0)
(0.000388855 3.14943e-06 0)
(0.000346493 2.69088e-06 0)
(0.000308125 2.26859e-06 0)
(0.000273549 1.87958e-06 0)
(0.000242558 1.5218e-06 0)
(0.000214954 1.19382e-06 0)
(0.000190541 8.93784e-07 0)
(0.000169127 6.19193e-07 0)
(0.000150527 3.67572e-07 0)
(0.000134564 1.37067e-07 0)
(0.000121071 -7.38399e-08 0)
(0.000109895 -2.66981e-07 0)
(0.000100892 -4.44697e-07 0)
(9.39326e-05 -6.09539e-07 0)
(8.89016e-05 -7.63934e-07 0)
(8.57008e-05 -9.10208e-07 0)
(8.42504e-05 -1.05088e-06 0)
(8.44918e-05 -1.18709e-06 0)
(8.63788e-05 -1.31779e-06 0)
(8.98771e-05 -1.44473e-06 0)
(9.49614e-05 -1.5723e-06 0)
(0.000101629 -1.70419e-06 0)
(0.000109905 -1.8447e-06 0)
(0.000119849 -1.99909e-06 0)
(0.000131556 -2.17321e-06 0)
(0.00014516 -2.37333e-06 0)
(0.000160837 -2.60647e-06 0)
(0.000178813 -2.88111e-06 0)
(0.000199374 -3.20768e-06 0)
(0.000222865 -3.59893e-06 0)
(0.000249708 -4.07024e-06 0)
(0.00028041 -4.64022e-06 0)
(0.000315566 -5.33108e-06 0)
(0.000355874 -6.16829e-06 0)
(0.000402126 -7.17964e-06 0)
(0.000455205 -8.39398e-06 0)
(0.000516053 -9.83869e-06 0)
(0.000585623 -1.15351e-05 0)
(0.000664797 -1.34916e-05 0)
(0.000754259 -1.5695e-05 0)
(0.00085432 -1.80991e-05 0)
(0.000964687 -2.06112e-05 0)
(0.00108416 -2.30786e-05 0)
(0.0012103 -2.52734e-05 0)
(0.00133901 -2.68765e-05 0)
(0.00146409 -2.74546e-05 0)
(0.00157678 -2.64206e-05 0)
(0.00166515 -2.29509e-05 0)
(0.00171296 -1.59339e-05 0)
(0.00169993 -3.58438e-06 0)
(0.00159834 1.66505e-05 0)
(0.00137915 4.61309e-05 0)
(0.00102167 8.24513e-05 0)
(0.00055073 0.00011221 0)
(0.000105565 0.000100041 0)
(1.02434e-05 -5.73063e-05 0)
(0.000170608 -0.000178941 0)
(0.000473966 -0.000286069 0)
(0.000891225 -0.000372747 0)
(0.00139857 -0.000438777 0)
(0.00197233 -0.000483894 0)
(0.00258845 -0.000508067 0)
(0.00322344 -0.000511908 0)
(0.00385518 -0.000496927 0)
(0.0044638 -0.000465492 0)
(0.00503231 -0.000420602 0)
(0.00554698 -0.0003656 0)
(0.00599754 -0.000303897 0)
(0.0063771 -0.000238746 0)
(0.00668193 -0.000173094 0)
(0.00691118 -0.000109514 0)
(0.00706654 -5.01848e-05 0)
(0.00715161 3.16841e-06 0)
(0.00717217 5.03898e-05 0)
(0.00713615 9.21579e-05 0)
(0.00704842 0.000128119 0)
(0.00691562 0.000158002 0)
(0.00674426 0.000182109 0)
(0.00654063 0.000200881 0)
(0.0063107 0.00021481 0)
(0.00606008 0.000224412 0)
(0.0057939 0.000230204 0)
(0.0055168 0.000232696 0)
(0.00523294 0.000232366 0)
(0.00494596 0.000229667 0)
(0.00465903 0.000225012 0)
(0.00437484 0.000218779 0)
(0.00409569 0.000211298 0)
(0.00382345 0.000202862 0)
(0.00355965 0.000193724 0)
(0.00330549 0.000184101 0)
(0.0030619 0.000174174 0)
(0.00282957 0.000164094 0)
(0.00260897 0.000153987 0)
(0.00240038 0.000143953 0)
(0.00220395 0.000134074 0)
(0.00201968 0.000124415 0)
(0.00184747 0.000115026 0)
(0.00168715 0.000105944 0)
(0.00153846 9.72007e-05 0)
(0.00140107 8.88164e-05 0)
(0.00127463 8.08058e-05 0)
(0.00115873 7.31769e-05 0)
(0.00105297 6.59334e-05 0)
(0.00095688 5.90757e-05 0)
(0.000870023 5.26003e-05 0)
(0.000791937 4.64993e-05 0)
(0.000722166 4.07615e-05 0)
(0.000660257 3.53728e-05 0)
(0.000605774 3.03168e-05 0)
(0.000558295 2.55746e-05 0)
(0.000517425 2.11242e-05 0)
(0.000482788 1.69403e-05 0)
(0.000454043 1.29954e-05 0)
(0.000430879 9.25933e-06 0)
(0.000413026 5.69942e-06 0)
(0.000400258 2.27989e-06 0)
(0.000392391 -1.03584e-06 0)
(0.000389295 -4.27879e-06 0)
(0.000390899 -7.46102e-06 0)
(0.000397122 -1.06093e-05 0)
(0.000407932 -1.37781e-05 0)
(0.000423362 -1.70249e-05 0)
(0.000443523 -2.04155e-05 0)
(0.000468611 -2.40225e-05 0)
(0.000498913 -2.79254e-05 0)
(0.000534816 -3.22123e-05 0)
(0.00057682 -3.6983e-05 0)
(0.000625545 -4.23512e-05 0)
(0.000681751 -4.8447e-05 0)
(0.000746343 -5.54169e-05 0)
(0.00082039 -6.34225e-05 0)
(0.000905127 -7.26369e-05 0)
(0.00100195 -8.32351e-05 0)
(0.0011124 -9.53771e-05 0)
(0.00123811 -0.000109182 0)
(0.0013807 -0.000124691 0)
(0.00154168 -0.000141813 0)
(0.00172219 -0.000160254 0)
(0.00192272 -0.000179431 0)
(0.00214272 -0.000198371 0)
(0.00238005 -0.000215603 0)
(0.00263042 -0.000229052 0)
(0.0028866 -0.000235949 0)
(0.00313767 -0.000232753 0)
(0.00336819 -0.000215077 0)
(0.00355738 -0.000177594 0)
(0.00367822 -0.000113799 0)
(0.00369676 -1.58906e-05 0)
(0.00357156 0.000126043 0)
(0.00325467 0.000318102 0)
(0.00270753 0.000550206 0)
(0.00191984 0.000774707 0)
(0.000975982 0.000864773 0)
(0.000142951 0.000564441 0)
(1.71539e-05 -0.000170667 0)
(0.000251707 -0.000474242 0)
(0.000677495 -0.000731823 0)
(0.00125416 -0.000940896 0)
(0.00194952 -0.0011012 0)
(0.00273271 -0.00121224 0)
(0.00357284 -0.00127435 0)
(0.00444032 -0.00128943 0)
(0.0053077 -0.0012612 0)
(0.00615052 -0.00119499 0)
(0.0069478 -0.00109724 0)
(0.00768235 -0.000975016 0)
(0.0083408 -0.000835459 0)
(0.00891353 -0.000685427 0)
(0.00939435 -0.000531208 0)
(0.00978026 -0.000378364 0)
(0.0100709 -0.000231659 0)
(0.0102688 -9.51159e-05 0)
(0.0103767 2.82153e-05 0)
(0.0104037 0.000138106 0)
(0.0103572 0.000235269 0)
(0.0102441 0.000319077 0)
(0.0100724 0.000389709 0)
(0.00984989 0.000447764 0)
(0.0095839 0.000494031 0)
(0.00928171 0.000529431 0)
(0.00895016 0.00055496 0)
(0.00859562 0.000571649 0)
(0.00822399 0.000580531 0)
(0.00784059 0.000582613 0)
(0.00745024 0.000578856 0)
(0.00705722 0.000570164 0)
(0.00666524 0.000557369 0)
(0.00627754 0.000541226 0)
(0.00589688 0.000522412 0)
(0.00552557 0.000501527 0)
(0.00516552 0.000479095 0)
(0.00481828 0.000455569 0)
(0.00448506 0.000431338 0)
(0.00416678 0.00040673 0)
(0.0038641 0.000382024 0)
(0.00357747 0.000357449 0)
(0.00330712 0.000333197 0)
(0.00305314 0.000309425 0)
(0.00281545 0.000286259 0)
(0.00259386 0.000263799 0)
(0.00238807 0.000242124 0)
(0.00219772 0.000221294 0)
(0.00202235 0.000201352 0)
(0.00186145 0.000182326 0)
(0.00171449 0.000164228 0)
(0.0015809 0.00014706 0)
(0.00146007 0.000130811 0)
(0.00135143 0.000115462 0)
(0.00125436 0.000100982 0)
(0.0011683 8.73294e-05 0)
(0.00109266 7.44562e-05 0)
(0.00102693 6.23042e-05 0)
(0.000970586 5.08083e-05 0)
(0.000923181 3.98952e-05 0)
(0.000884301 2.94836e-05 0)
(0.000853588 1.94835e-05 0)
(0.000830746 9.79683e-06 0)
(0.000815545 3.23357e-07 0)
(0.000807824 -9.01092e-06 0)
(0.000807576 -1.82416e-05 0)
(0.000814688 -2.74623e-05 0)
(0.000829156 -3.68334e-05 0)
(0.000851074 -4.652e-05 0)
(0.000880651 -5.67024e-05 0)
(0.000918221 -6.75762e-05 0)
(0.000964245 -7.93564e-05 0)
(0.00101932 -9.22808e-05 0)
(0.00108421 -0.000106614 0)
(0.00115982 -0.000122651 0)
(0.00124722 -0.000140713 0)
(0.00134769 -0.000161142 0)
(0.00146263 -0.000184284 0)
(0.00159361 -0.000210461 0)
(0.00174231 -0.000239933 0)
(0.00191041 -0.00027282 0)
(0.00209945 -0.00030902 0)
(0.00231071 -0.000348074 0)
(0.0025448 -0.000389008 0)
(0.00280137 -0.000430138 0)
(0.00307856 -0.000468845 0)
(0.00337238 -0.000501347 0)
(0.00367591 -0.000522479 0)
(0.00397845 -0.000525507 0)
(0.00426458 -0.000502012 0)
(0.0045132 -0.000441823 0)
(0.00469664 -0.000333001 0)
(0.0047799 -0.000161788 0)
(0.00472089 8.77639e-05 0)
(0.00446908 0.000430212 0)
(0.00397904 0.000865355 0)
(0.00322233 0.00135563 0)
(0.00221388 0.00178483 0)
(0.00108041 0.00188768 0)
(0.000138026 0.00116085 0)
(1.99498e-05 -0.000316378 0)
(0.000298189 -0.000847289 0)
(0.000800254 -0.00128835 0)
(0.0014765 -0.00164472 0)
(0.00228844 -0.00191781 0)
(0.00320031 -0.00210789 0)
(0.00417717 -0.00221653 0)
(0.0051863 -0.00224775 0)
(0.00619792 -0.0022082 0)
(0.00718586 -0.0021067 0)
(0.00812792 -0.00195356 0)
(0.0090059 -0.00175973 0)
(0.00980554 -0.00153618 0)
(0.0105163 -0.00129338 0)
(0.0111308 -0.00104087 0)
(0.011645 -0.000787149 0)
(0.012057 -0.00053949 0)
(0.0123673 -0.000303956 0)
(0.0125786 -8.59075e-05 0)
(0.0126928 0.000111272 0)
(0.0127209 0.000287124 0)
(0.0126686 0.000441973 0)
(0.0125441 0.000575693 0)
(0.0123554 0.000688895 0)
(0.0121102 0.000782526 0)
(0.0118161 0.000857769 0)
(0.0114805 0.000915981 0)
(0.0111105 0.000958623 0)
(0.0107127 0.000987211 0)
(0.0102933 0.00100327 0)
(0.00985813 0.0010083 0)
(0.0094124 0.00100375 0)
(0.00896085 0.000990973 0)
(0.00850772 0.000971252 0)
(0.00805678 0.000945755 0)
(0.0076113 0.000915543 0)
(0.00717412 0.000881569 0)
(0.00674766 0.000844682 0)
(0.00633395 0.000805629 0)
(0.00593465 0.000765059 0)
(0.00555111 0.000723539 0)
(0.00518437 0.000681552 0)
(0.0048352 0.000639516 0)
(0.00450415 0.000597781 0)
(0.00419154 0.000556642 0)
(0.00389751 0.000516345 0)
(0.00362205 0.000477093 0)
(0.00336499 0.000439049 0)
(0.00312604 0.000402341 0)
(0.00290483 0.000367062 0)
(0.00270089 0.000333281 0)
(0.00251368 0.000301035 0)
(0.00234264 0.00027034 0)
(0.00218714 0.000241187 0)
(0.00204654 0.000213546 0)
(0.00192021 0.000187367 0)
(0.00180751 0.000162578 0)
(0.00170782 0.000139094 0)
(0.00162055 0.000116811 0)
(0.00154514 9.56097e-05 0)
(0.00148107 7.53539e-05 0)
(0.00142791 5.58929e-05 0)
(0.00138524 3.70607e-05 0)
(0.00135277 1.86785e-05 0)
(0.00133024 5.59831e-07 0)
(0.00131751 -1.74164e-05 0)
(0.00131468 -3.53265e-05 0)
(0.00132159 -5.33783e-05 0)
(0.0013383 -7.18806e-05 0)
(0.00136493 -9.11431e-05 0)
(0.00140178 -0.000111495 0)
(0.00144927 -0.000133294 0)
(0.00150796 -0.000156928 0)
(0.00157857 -0.000182823 0)
(0.00166196 -0.000211438 0)
(0.00175916 -0.000243263 0)
(0.00187132 -0.000278799 0)
(0.00199976 -0.000318531 0)
(0.00214584 -0.000362879 0)
(0.00231098 -0.000412115 0)
(0.00249653 -0.000466255 0)
(0.00270357 -0.000524904 0)
(0.00293275 -0.000587047 0)
(0.00318396 -0.000650792 0)
(0.00345586 -0.000713059 0)
(0.00374545 -0.000769232 0)
(0.00404729 -0.000812791 0)
(0.00435278 -0.000834976 0)
(0.00464917 -0.000824505 0)
(0.00491866 -0.000767428 0)
(0.00513735 -0.000647113 0)
(0.00527453 -0.000444455 0)
(0.00529229 -0.000138223 0)
(0.00514549 0.00029433 0)
(0.00478668 0.000866224 0)
(0.00417838 0.00156297 0)
(0.00330726 0.00231029 0)
(0.00221083 0.00291423 0)
(0.00103875 0.00296985 0)
(0.000118599 0.00175336 0)
(2.04178e-05 -0.000478189 0)
(0.000321534 -0.00126444 0)
(0.000868289 -0.00191048 0)
(0.00160468 -0.00242964 0)
(0.00248738 -0.00282623 0)
(0.00347667 -0.00310235 0)
(0.00453461 -0.00326181 0)
(0.00562644 -0.00331162 0)
(0.00672119 -0.00326211 0)
(0.00779226 -0.00312617 0)
(0.00881745 -0.00291828 0)
(0.00977892 -0.00265345 0)
(0.0106629 -0.00234645 0)
(0.0114591 -0.00201117 0)
(0.0121606 -0.00166022 0)
(0.012763 -0.00130469 0)
(0.0132644 -0.000954092 0)
(0.0136645 -0.000616335 0)
(0.0139648 -0.000297904 0)
(0.0141673 -4.69244e-06 0)
(0.0142758 0.00025996 0)
(0.0142984 0.000495831 0)
(0.0142419 0.000702899 0)
(0.0141137 0.000881754 0)
(0.0139211 0.0010334 0)
(0.0136714 0.00115917 0)
(0.0133717 0.00126062 0)
(0.0130289 0.00133951 0)
(0.0126496 0.00139771 0)
(0.0122403 0.00143715 0)
(0.0118068 0.00145976 0)
(0.0113548 0.00146745 0)
(0.0108894 0.00146205 0)
(0.0104154 0.0014453 0)
(0.00993711 0.00141884 0)
(0.00945849 0.00138419 0)
(0.00898299 0.00134274 0)
(0.00851373 0.00129575 0)
(0.00805339 0.00124436 0)
(0.00760432 0.00118959 0)
(0.00716851 0.00113232 0)
(0.00674763 0.00107337 0)
(0.00634303 0.00101343 0)
(0.00595582 0.000953099 0)
(0.00558681 0.000892905 0)
(0.00523661 0.000833297 0)
(0.0049056 0.000774659 0)
(0.00459398 0.000717309 0)
(0.00430178 0.000661512 0)
(0.00402889 0.000607477 0)
(0.00377506 0.000555368 0)
(0.00353996 0.000505299 0)
(0.00332313 0.000457346 0)
(0.00312409 0.000411543 0)
(0.00294227 0.000367885 0)
(0.00277708 0.000326335 0)
(0.0026279 0.000286821 0)
(0.00249414 0.000249242 0)
(0.00237517 0.000213468 0)
(0.00227041 0.000179343 0)
(0.00217931 0.000146682 0)
(0.00210137 0.000115279 0)
(0.00203613 8.49028e-05 0)
(0.00198319 5.52986e-05 0)
(0.00194226 2.61896e-05 0)
(0.00191308 -2.71311e-06 0)
(0.00189563 -3.15594e-05 0)
(0.00189002 -6.04946e-05 0)
(0.00189608 -8.98939e-05 0)
(0.00191388 -0.000120227 0)
(0.00194358 -0.000151958 0)
(0.00198548 -0.000185583 0)
(0.00204001 -0.000221631 0)
(0.00210773 -0.000260669 0)
(0.00218932 -0.000303299 0)
(0.00228559 -0.000350142 0)
(0.00239745 -0.000401815 0)
(0.00252587 -0.000458885 0)
(0.00267186 -0.000521793 0)
(0.0028364 -0.000590744 0)
(0.00302029 -0.000665554 0)
(0.00322403 -0.000745428 0)
(0.00344758 -0.000828687 0)
(0.00369009 -0.000912405 0)
(0.00394942 -0.000991995 0)
(0.0042217 -0.00106073 0)
(0.00450063 -0.00110924 0)
(0.00477671 -0.00112506 0)
(0.00503631 -0.00109224 0)
(0.00526077 -0.000991216 0)
(0.00542542 -0.000798884 0)
(0.00549903 -0.000489221 0)
(0.00544379 -3.41317e-05 0)
(0.00521574 0.000592137 0)
(0.00477541 0.0013961 0)
(0.00409459 0.00234442 0)
(0.00317418 0.00332118 0)
(0.00206873 0.00405412 0)
(0.000937144 0.00401086 0)
(9.58441e-05 0.00229189 0)
(1.99789e-05 -0.000647106 0)
(0.000332633 -0.0017058 0)
(0.000905565 -0.00257148 0)
(0.00167866 -0.00326388 0)
(0.00260472 -0.00379041 0)
(0.00364047 -0.00415579 0)
(0.00474527 -0.004367 0)
(0.00588262 -0.004435 0)
(0.00702079 -0.00437461 0)
(0.00813315 -0.00420347 0)
(0.00919809 -0.00394064 0)
(0.0101987 -0.00360547 0)
(0.0111224 -0.00321661 0)
(0.0119602 -0.00279129 0)
(0.0127061 -0.00234499 0)
(0.0133567 -0.00189115 0)
(0.0139107 -0.00144116 0)
(0.0143682 -0.00100446 0)
(0.0147305 -0.000588654 0)
(0.015 -0.000200179 0)
(0.0151778 0.000155677 0)
(0.01527 0.000475701 0)
(0.0152822 0.000760093 0)
(0.0152208 0.00100938 0)
(0.0150925 0.00122453 0)
(0.0149036 0.00140693 0)
(0.0146604 0.00155825 0)
(0.0143692 0.00168044 0)
(0.0140362 0.00177559 0)
(0.0136672 0.0018459 0)
(0.0132678 0.00189361 0)
(0.0128434 0.00192097 0)
(0.0123991 0.00193017 0)
(0.0119397 0.00192334 0)
(0.0114696 0.00190249 0)
(0.010993 0.00186952 0)
(0.0105136 0.00182621 0)
(0.0100349 0.00177418 0)
(0.00955994 0.00171494 0)
(0.00909158 0.00164986 0)
(0.00863227 0.00158016 0)
(0.00818419 0.00150697 0)
(0.0077492 0.00143127 0)
(0.0073289 0.00135396 0)
(0.00692461 0.00127582 0)
(0.00653741 0.00119753 0)
(0.00616815 0.0011197 0)
(0.00581743 0.00104285 0)
(0.0054857 0.000967418 0)
(0.00517319 0.000893769 0)
(0.00487999 0.000822205 0)
(0.00460604 0.000752959 0)
(0.00435116 0.000686203 0)
(0.00411505 0.00062205 0)
(0.00389735 0.000560555 0)
(0.00369762 0.000501725 0)
(0.00351535 0.000445512 0)
(0.00335004 0.000391827 0)
(0.00320113 0.000340535 0)
(0.00306809 0.000291461 0)
(0.00295038 0.000244391 0)
(0.00284749 0.000199076 0)
(0.00275896 0.000155233 0)
(0.00268436 0.000112545 0)
(0.00262332 7.06631e-05 0)
(0.00257557 2.91937e-05 0)
(0.00254078 -1.22502e-05 0)
(0.00251923 -5.38056e-05 0)
(0.00251085 -9.57426e-05 0)
(0.0025155 -0.000138638 0)
(0.00253322 -0.000183092 0)
(0.00256413 -0.000229721 0)
(0.00260847 -0.000279173 0)
(0.00266657 -0.00033213 0)
(0.00273887 -0.000389295 0)
(0.00282586 -0.000451379 0)
(0.00292812 -0.000519063 0)
(0.00304621 -0.000592937 0)
(0.0031807 -0.000673401 0)
(0.00333204 -0.000760531 0)
(0.00350048 -0.000853878 0)
(0.00368594 -0.0009522 0)
(0.00388774 -0.00105311 0)
(0.0041044 -0.00115265 0)
(0.00433322 -0.00124471 0)
(0.00456978 -0.00132052 0)
(0.00480739 -0.00136793 0)
(0.00503626 -0.00137085 0)
(0.00524267 -0.00130883 0)
(0.00540811 -0.00115688 0)
(0.00550835 -0.000885778 0)
(0.00551339 -0.000463155 0)
(0.00538681 0.000144751 0)
(0.00509003 0.000962262 0)
(0.00459091 0.00198724 0)
(0.0038707 0.00316454 0)
(0.00294213 0.00433474 0)
(0.00187145 0.00515084 0)
(0.000818014 0.00496994 0)
(7.45754e-05 0.00276193 0)
(1.94957e-05 -0.000819258 0)
(0.000339082 -0.00216118 0)
(0.000929076 -0.00325649 0)
(0.00172627 -0.00412893 0)
(0.00268006 -0.00478868 0)
(0.00374377 -0.00524357 0)
(0.00487419 -0.00550463 0)
(0.00603324 -0.00558776 0)
(0.00718858 -0.00551316 0)
(0.0083138 -0.00530389 0)
(0.00938813 -0.00498417 0)
(0.010396 -0.004578 0)
(0.0113262 -0.00410803 0)
(0.0121713 -0.0035949 0)
(0.0129272 -0.00305681 0)
(0.0135918 -0.00250936 0)
(0.0141649 -0.0019656 0)
(0.0146477 -0.00143614 0)
(0.0150422 -0.000929463 0)
(0.015351 -0.000452232 0)
(0.0155768 -1.02858e-05 0)
(0.0157214 0.000391602 0)
(0.0157902 0.00075195 0)
(0.0157885 0.00107128 0)
(0.0157217 0.00135056 0)
(0.0155952 0.00159116 0)
(0.0154144 0.00179482 0)
(0.0151846 0.00196358 0)
(0.0149109 0.00209967 0)
(0.0145985 0.00220547 0)
(0.0142524 0.00228341 0)
(0.0138772 0.00233597 0)
(0.0134776 0.00236559 0)
(0.0130579 0.00237465 0)
(0.0126223 0.00236543 0)
(0.0121747 0.00234012 0)
(0.0117189 0.00230078 0)
(0.0112583 0.00224934 0)
(0.0107962 0.00218759 0)
(0.0103354 0.00211719 0)
(0.00987874 0.00203966 0)
(0.00942866 0.0019564 0)
(0.00898738 0.00186868 0)
(0.00855686 0.00177765 0)
(0.00813881 0.00168436 0)
(0.00773473 0.00158974 0)
(0.00734586 0.00149463 0)
(0.00697323 0.00139975 0)
(0.00661768 0.00130575 0)
(0.00627982 0.00121318 0)
(0.00596012 0.00112252 0)
(0.00565884 0.00103413 0)
(0.00537612 0.000948337 0)
(0.00511197 0.000865349 0)
(0.00486625 0.000785322 0)
(0.00463876 0.000708335 0)
(0.0044292 0.0006344 0)
(0.0042372 0.000563465 0)
(0.00406238 0.00049542 0)
(0.00390428 0.000430098 0)
(0.00376245 0.000367279 0)
(0.00363646 0.000306697 0)
(0.00352585 0.000248036 0)
(0.00343021 0.000190939 0)
(0.00334915 0.000135003 0)
(0.00328233 7.97835e-05 0)
(0.00322952 2.47584e-05 0)
(0.00319027 -3.05176e-05 0)
(0.00316524 -8.61604e-05 0)
(0.00315403 -0.000142596 0)
(0.00315651 -0.000200579 0)
(0.00317266 -0.000260827 0)
(0.00320249 -0.000324071 0)
(0.0032461 -0.000391068 0)
(0.00330362 -0.000462588 0)
(0.00337523 -0.000539385 0)
(0.00346113 -0.000622156 0)
(0.00356149 -0.000711463 0)
(0.00367639 -0.000807622 0)
(0.00380582 -0.000910535 0)
(0.0039495 -0.00101946 0)
(0.0041068 -0.0011327 0)
(0.00427655 -0.00124718 0)
(0.00445681 -0.00135792 0)
(0.00464448 -0.00145745 0)
(0.0048349 -0.00153501 0)
(0.00502129 -0.00157587 0)
(0.00519399 -0.00156055 0)
(0.00533971 -0.00146437 0)
(0.0054407 -0.00125727 0)
(0.00547399 -0.000904469 0)
(0.0054116 -0.00036807 0)
(0.00521976 0.000389163 0)
(0.00486656 0.001388 0)
(0.00432632 0.00261583 0)
(0.00358904 0.00399405 0)
(0.00267668 0.0053199 0)
(0.00166291 0.00617762 0)
(0.000701903 0.00583216 0)
(5.672e-05 0.00316301 0)
(1.93416e-05 -0.000993881 0)
(0.000345043 -0.00262677 0)
(0.000948532 -0.00395857 0)
(0.00176351 -0.00501497 0)
(0.00273596 -0.00580848 0)
(0.00381594 -0.0063505 0)
(0.00495782 -0.00665703 0)
(0.00612214 -0.00674988 0)
(0.00727618 -0.00665557 0)
(0.00839396 -0.0064033 0)
(0.00945576 -0.00602299 0)
(0.0104475 -0.00554361 0)
(0.0113597 -0.00499204 0)
(0.0121868 -0.00439235 0)
(0.0129263 -0.00376539 0)
(0.013578 -0.00312879 0)
(0.0141431 -0.00249705 0)
(0.0146243 -0.00188174 0)
(0.0150245 -0.00129191 0)
(0.0153471 -0.000734475 0)
(0.0155955 -0.000214863 0)
(0.0157723 0.000262094 0)
(0.0158801 0.000692882 0)
(0.0159238 0.00107777 0)
(0.0159078 0.00141774 0)
(0.0158364 0.00171417 0)
(0.015714 0.00196883 0)
(0.0155448 0.00218384 0)
(0.0153332 0.00236151 0)
(0.0150831 0.00250433 0)
(0.0147987 0.00261485 0)
(0.0144837 0.00269567 0)
(0.0141421 0.00274939 0)
(0.0137776 0.00277853 0)
(0.0133936 0.00278555 0)
(0.0129938 0.0027728 0)
(0.0125813 0.00274254 0)
(0.0121595 0.00269688 0)
(0.0117314 0.00263782 0)
(0.0112998 0.00256723 0)
(0.0108675 0.00248685 0)
(0.0104369 0.00239829 0)
(0.0100105 0.00230305 0)
(0.00959038 0.00220251 0)
(0.00917853 0.00209793 0)
(0.00877668 0.00199048 0)
(0.00838641 0.00188119 0)
(0.00800909 0.00177103 0)
(0.00764586 0.00166083 0)
(0.00729772 0.00155133 0)
(0.00696544 0.00144319 0)
(0.00664965 0.00133696 0)
(0.00635081 0.00123309 0)
(0.00606923 0.00113193 0)
(0.00580507 0.00103377 0)
(0.00555839 0.00093879 0)
(0.00532913 0.000847079 0)
(0.00511715 0.000758659 0)
(0.00492222 0.000673473 0)
(0.00474408 0.000591391 0)
(0.0045824 0.000512217 0)
(0.00443684 0.00043569 0)
(0.00430702 0.000361495 0)
(0.00419259 0.000289255 0)
(0.00409317 0.000218545 0)
(0.00400842 0.000148884 0)
(0.00393802 7.97315e-05 0)
(0.00388169 1.04309e-05 0)
(0.00383909 -5.93926e-05 0)
(0.00381082 -0.000129893 0)
(0.00379636 -0.000201712 0)
(0.00379553 -0.000275684 0)
(0.00380817 -0.000352595 0)
(0.00383411 -0.000433241 0)
(0.00387324 -0.000518415 0)
(0.00392541 -0.000608879 0)
(0.00399046 -0.000705302 0)
(0.00406819 -0.000808182 0)
(0.00415827 -0.000917718 0)
(0.00426024 -0.00103362 0)
(0.00437338 -0.00115484 0)
(0.00449665 -0.00127925 0)
(0.00462847 -0.00140313 0)
(0.00476656 -0.00152058 0)
(0.00490762 -0.00162284 0)
(0.00504694 -0.00169739 0)
(0.00517784 -0.00172711 0)
(0.00529109 -0.00168943 0)
(0.00537413 -0.00155575 0)
(0.00541031 -0.00129146 0)
(0.00537842 -0.000856826 0)
(0.00525267 -0.000209283 0)
(0.00500299 0.000689809 0)
(0.00460391 0.00185601 0)
(0.00403566 0.0032654 0)
(0.0032957 0.00481517 0)
(0.00241301 0.00626073 0)
(0.00146522 0.0071246 0)
(0.000597953 0.00659754 0)
(4.26187e-05 0.00350173 0)
(1.96074e-05 -0.00117159 0)
(0.000352201 -0.00310195 0)
(0.000968162 -0.00467479 0)
(0.0017975 -0.00591648 0)
(0.00278258 -0.00684167 0)
(0.00387029 -0.00746598 0)
(0.00501284 -0.00781134 0)
(0.00616971 -0.00790655 0)
(0.00730813 -0.00778531 0)
(0.00840281 -0.0074837 0)
(0.00943535 -0.00703782 0)
(0.0103933 -0.00648195 0)
(0.011269 -0.00584734 0)
(0.012059 -0.0051615 0)
(0.0127626 -0.00444793 0)
(0.0133813 -0.00372612 0)
(0.013918 -0.00301183 0)
(0.0143768 -0.00231739 0)
(0.0147617 -0.00165221 0)
(0.0150773 -0.00102322 0)
(0.0153275 -0.000435488 0)
(0.0155165 0.000107186 0)
(0.0156451 0.000600431 0)
(0.0157181 0.00104363 0)
(0.015739 0.00143798 0)
(0.0157113 0.00178492 0)
(0.0156383 0.00208631 0)
(0.0155233 0.00234431 0)
(0.0153697 0.00256133 0)
(0.0151804 0.00273993 0)
(0.0149586 0.00288275 0)
(0.0147072 0.00299245 0)
(0.014429 0.0030717 0)
(0.0141271 0.00312309 0)
(0.0138042 0.00314916 0)
(0.0134631 0.00315234 0)
(0.0131067 0.00313496 0)
(0.0127375 0.00309925 0)
(0.0123583 0.00304729 0)
(0.0119716 0.0029811 0)
(0.0115799 0.00290252 0)
(0.0111857 0.00281334 0)
(0.0107912 0.00271519 0)
(0.0103986 0.00260961 0)
(0.0100099 0.00249806 0)
(0.00962702 0.00238185 0)
(0.00925168 0.00226222 0)
(0.00888545 0.0021403 0)
(0.00852975 0.00201713 0)
(0.0081858 0.00189361 0)
(0.00785469 0.00177059 0)
(0.00753732 0.00164877 0)
(0.00723445 0.00152877 0)
(0.00694668 0.00141111 0)
(0.00667445 0.00129618 0)
(0.00641808 0.0011843 0)
(0.00617779 0.00107566 0)
(0.00595366 0.000970391 0)
(0.00574568 0.000868504 0)
(0.00555376 0.000769936 0)
(0.00537776 0.00067454 0)
(0.00521746 0.000582094 0)
(0.00507262 0.000492304 0)
(0.00494293 0.00040481 0)
(0.0048281 0.000319189 0)
(0.00472779 0.000234955 0)
(0.00464168 0.000151558 0)
(0.00456947 6.83677e-05 0)
(0.00451064 -1.53363e-05 0)
(0.00446541 -9.97818e-05 0)
(0.00443376 -0.000185271 0)
(0.00441521 -0.000272614 0)
(0.00440947 -0.00036263 0)
(0.00441617 -0.000456117 0)
(0.00443496 -0.00055386 0)
(0.00446543 -0.000656589 0)
(0.0045071 -0.000764917 0)
(0.00455945 -0.000879252 0)
(0.00462181 -0.000999653 0)
(0.00469335 -0.00112563 0)
(0.004773 -0.00125585 0)
(0.00485937 -0.00138777 0)
(0.00495062 -0.00151708 0)
(0.00504426 -0.00163708 0)
(0.00513689 -0.00173785 0)
(0.00522385 -0.00180528 0)
(0.00529876 -0.00182011 0)
(0.00535291 -0.00175696 0)
(0.0053746 -0.00158376 0)
(0.0053485 -0.00126178 0)
(0.00525538 -0.000746943 0)
(0.00507138 7.20941e-06 0)
(0.00477166 0.00103792 0)
(0.00433556 0.00235581 0)
(0.00374889 0.00392475 0)
(0.00301524 0.00561766 0)
(0.00216874 0.00715043 0)
(0.00128837 0.00799135 0)
(0.000509289 0.00727338 0)
(3.19316e-05 0.00378717 0)
(2.02469e-05 -0.00135337 0)
(0.000360757 -0.00358712 0)
(0.000988768 -0.00540367 0)
(0.00182981 -0.00682953 0)
(0.00282237 -0.00788183 0)
(0.00391035 -0.00858129 0)
(0.00504412 -0.00895694 0)
(0.00618255 -0.00904555 0)
(0.00729314 -0.00888893 0)
(0.00835169 -0.00853068 0)
(0.00934131 -0.00801352 0)
(0.0102514 -0.0073773 0)
(0.0110764 -0.00665775 0)
(0.0118148 -0.00588582 0)
(0.0124677 -0.00508754 0)
(0.0130386 -0.00428414 0)
(0.013532 -0.00349244 0)
(0.0139532 -0.00272532 0)
(0.0143076 -0.00199233 0)
(0.0146006 -0.00130021 0)
(0.0148368 -0.000653617 0)
(0.0150208 -5.54497e-05 0)
(0.0151557 0.00049093 0)
(0.0152436 0.000983792 0)
(0.0152881 0.00142458 0)
(0.015292 0.0018149 0)
(0.0152578 0.00215673 0)
(0.0151882 0.00245238 0)
(0.0150853 0.00270438 0)
(0.0149514 0.00291538 0)
(0.0147886 0.00308808 0)
(0.0145989 0.0032252 0)
(0.0143842 0.00332941 0)
(0.0141467 0.00340333 0)
(0.0138883 0.00344949 0)
(0.013611 0.00347032 0)
(0.013317 0.00346816 0)
(0.0130084 0.00344525 0)
(0.0126872 0.00340371 0)
(0.0123557 0.00334555 0)
(0.0120159 0.00327271 0)
(0.0116699 0.003187 0)
(0.0113198 0.00309015 0)
(0.0109677 0.0029838 0)
(0.0106155 0.0028695 0)
(0.0102651 0.0027487 0)
(0.00991815 0.00262277 0)
(0.00957643 0.00249297 0)
(0.00924145 0.00236049 0)
(0.0089146 0.0022264 0)
(0.00859715 0.00209169 0)
(0.00829023 0.00195721 0)
(0.00799481 0.00182375 0)
(0.00771174 0.00169196 0)
(0.00744171 0.00156239 0)
(0.0071853 0.00143547 0)
(0.00694292 0.00131153 0)
(0.00671492 0.0011908 0)
(0.0065015 0.00107339 0)
(0.00630276 0.000959327 0)
(0.00611872 0.000848537 0)
(0.00594935 0.00074086 0)
(0.0057945 0.000636054 0)
(0.00565402 0.000533799 0)
(0.00552766 0.000433705 0)
(0.00541515 0.000335313 0)
(0.0053162 0.000238096 0)
(0.00523045 0.000141459 0)
(0.0051576 4.46626e-05 0)
(0.00509688 -5.2949e-05 0)
(0.00504903 -0.000151469 0)
(0.00501334 -0.000251379 0)
(0.00498939 -0.000353536 0)
(0.00497668 -0.000458713 0)
(0.00497468 -0.000567643 0)
(0.00498274 -0.000680996 0)
(0.00500019 -0.000799304 0)
(0.0050262 -0.000922865 0)
(0.00505985 -0.00105159 0)
(0.00510003 -0.00118478 0)
(0.00514541 -0.00132085 0)
(0.00519436 -0.00145686 0)
(0.00524484 -0.001588 0)
(0.00529425 -0.00170685 0)
(0.00533917 -0.00180244 0)
(0.0053751 -0.00185929 0)
(0.00539598 -0.00185623 0)
(0.0053937 -0.00176537 0)
(0.0053575 -0.00155151 0)
(0.00527336 -0.00117233 0)
(0.00512403 -0.000579982 0)
(0.00488791 0.000274671 0)
(0.00454545 0.00142569 0)
(0.00407961 0.00287932 0)
(0.00348142 0.00458644 0)
(0.00275947 0.00639616 0)
(0.00195143 0.00798769 0)
(0.00113564 0.00878255 0)
(0.00043593 0.00787013 0)
(2.40698e-05 0.00402866 0)
(2.11665e-05 -0.00153998 0)
(0.000370179 -0.00408251 0)
(0.00100936 -0.00614363 0)
(0.00185908 -0.00775024 0)
(0.00285377 -0.00892277 0)
(0.0039346 -0.00968825 0)
(0.00505057 -0.010084 0)
(0.00616032 -0.0101559 0)
(0.00723209 -0.00995467 0)
(0.00824304 -0.00953199 0)
(0.00917812 -0.00893757 0)
(0.0100288 -0.00821702 0)
(0.0107915 -0.0074106 0)
(0.0114669 -0.00655268 0)
(0.0120582 -0.00567165 0)
(0.0125704 -0.00479031 0)
(0.0130097 -0.00392632 0)
(0.0133828 -0.0030929 0)
(0.013696 -0.00229947 0)
(0.0139556 -0.00155241 0)
(0.0141671 -0.000855711 0)
(0.0143351 -0.000211582 0)
(0.0144642 0.00037781 0)
(0.0145553 0.000911098 0)
(0.0146123 0.00138963 0)
(0.0146372 0.00181522 0)
(0.014632 0.00219011 0)
(0.0145986 0.00251682 0)
(0.0145385 0.00279807 0)
(0.0144531 0.00303663 0)
(0.0143435 0.00323529 0)
(0.0142109 0.00339681 0)
(0.0140565 0.00352386 0)
(0.0138814 0.00361902 0)
(0.0136868 0.0036848 0)
(0.0134741 0.00372356 0)
(0.0132446 0.00373758 0)
(0.0129997 0.00372904 0)
(0.012741 0.00370001 0)
(0.0124701 0.00365247 0)
(0.0121886 0.00358831 0)
(0.0118983 0.00350936 0)
(0.011601 0.00341735 0)
(0.0112983 0.00331394 0)
(0.010992 0.00320072 0)
(0.010684 0.00307921 0)
(0.0103758 0.00295085 0)
(0.0100691 0.00281701 0)
(0.00976545 0.00267897 0)
(0.00946633 0.00253793 0)
(0.0091731 0.00239498 0)
(0.008887 0.00225113 0)
(0.00860917 0.00210728 0)
(0.00834063 0.00196423 0)
(0.00808225 0.00182265 0)
(0.0078348 0.00168311 0)
(0.00759891 0.00154606 0)
(0.00737511 0.00141185 0)
(0.0071638 0.0012807 0)
(0.00696527 0.00115273 0)
(0.00677972 0.00102797 0)
(0.00660724 0.000906339 0)
(0.00644787 0.000787661 0)
(0.00630153 0.000671685 0)
(0.00616809 0.000558079 0)
(0.00604737 0.000446436 0)
(0.0059391 0.00033628 0)
(0.00584296 0.000227063 0)
(0.00575861 0.000118154 0)
(0.00568553 8.73369e-06 0)
(0.00562321 -0.000101591 0)
(0.00557201 -0.000212933 0)
(0.00553114 -0.000325949 0)
(0.00550004 -0.000441382 0)
(0.00547803 -0.000559896 0)
(0.00546434 -0.000682074 0)
(0.00545809 -0.000808348 0)
(0.0054583 -0.000938891 0)
(0.00546382 -0.00107346 0)
(0.00547335 -0.00121117 0)
(0.0054854 -0.00135016 0)
(0.00549815 -0.00148719 0)
(0.00550947 -0.00161696 0)
(0.0055167 -0.00173141 0)
(0.00551647 -0.00181871 0)
(0.00550445 -0.00186211 0)
(0.00547496 -0.00183876 0)
(0.00542048 -0.00171857 0)
(0.00533117 -0.00146358 0)
(0.00519435 -0.00102832 0)
(0.00499444 -0.000361851 0)
(0.00471278 0.000585983 0)
(0.00433397 0.00184641 0)
(0.00384449 0.00342032 0)
(0.00323988 0.00524556 0)
(0.00253268 0.00714835 0)