/*--------------------------------*- C++ -*----------------------------------*\
  =========                 |
  \\      /  F ield         | OpenFOAM: The Open Source CFD Toolbox
   \\    /   O peration     | Website:  https://openfoam.org
    \\  /    A nd           | Version:  6
     \\/     M anipulation  |
\*---------------------------------------------------------------------------*/
FoamFile
{
    version     2.0;
    format      ascii;
    class       volScalarField;
    location    "./ITHACAoutput/Offline/1";
    object      P_rec;
}
// * * * * * * * * * * * * * * * * * * * * * * * * * * * * * * * * * * * * * //

dimensions      [0 2 -2 0 0 0 0];

internalField   nonuniform List<scalar> 
13046
(
0.990776
0.940563
0.982072
0.99733
0.992692
0.94999
0.982593
0.944732
0.993918
0.753412
0.41807
0.978964
0.985609
0.892031
0.981171
0.821238
0.961284
0.489426
1.00742
0.976397
0.979497
0.808826
0.966757
0.480952
0.994916
0.967987
0.980719
0.973849
0.884679
0.977263
0.999495
0.922977
0.974655
0.999182
0.989996
0.969028
0.994736
0.993762
0.977289
0.996782
0.957557
0.925123
0.98647
1.00065
0.988551
0.992652
0.991982
0.98264
0.982137
0.93063
0.984682
0.917207
0.998922
0.889334
0.912801
0.879621
1.00182
0.696566
0.939281
0.947404
0.932084
0.833508
0.992289
0.977423
0.614882
0.85638
0.951826
0.716067
0.94146
0.962636
0.742925
0.941277
0.655089
0.92688
0.94736
1.00688
0.981039
0.967433
0.954318
0.898912
0.621423
0.991279
0.959261
0.981983
0.974993
0.571331
0.831945
0.826986
0.992376
0.643775
1.00218
0.772135
0.640497
0.937552
0.921169
0.783037
0.757712
0.973549
0.978302
0.996015
0.827239
0.666615
0.994438
0.995849
0.974184
1.00393
0.912943
0.91793
0.997046
0.940672
0.913947
0.643219
0.978576
0.249418
0.990921
0.913107
0.979395
0.923748
0.93696
0.727618
0.966093
0.768052
0.966712
0.732224
0.373342
0.977905
0.964105
0.826537
0.978008
0.995188
0.960863
0.917382
1.00155
0.788663
0.679845
0.894095
0.714326
0.984199
0.995785
0.905646
0.970942
0.960895
0.915607
0.99275
0.995226
0.928526
0.915484
1.00273
0.932627
0.934138
0.927537
0.805696
0.99176
1.0058
0.95642
0.94464
0.874023
0.881228
0.8539
0.878729
1.0016
1.00248
0.955102
0.904529
0.998435
0.741916
0.983355
0.435841
0.682031
0.977453
0.290722
0.886562
0.684066
0.980809
0.995291
0.868425
0.95272
0.957788
0.999191
0.917799
0.990123
0.491049
0.755905
0.99626
0.890205
0.949482
1.00506
0.944007
0.933591
0.968982
0.926398
0.992485
0.8742
0.988759
0.969998
0.852959
0.976539
0.818322
0.98713
0.590192
0.9995
0.819594
0.692632
0.779895
0.614963
0.998427
0.90589
0.850573
0.994698
0.974042
0.908606
0.948826
0.623829
0.574805
0.772765
0.998618
0.990326
0.995924
0.973562
0.980843
0.897016
0.972523
1.00162
0.805947
0.699726
0.967399
0.883578
0.991977
0.98577
0.359873
0.68357
0.996031
0.852771
0.891433
0.803849
0.653904
0.997394
0.909318
0.878614
1.00224
0.958455
0.823898
0.976135
0.770056
0.818068
1.00077
0.862088
0.832789
1.00084
0.987432
0.348816
0.659899
1.00113
0.944409
0.894324
0.666689
0.969335
0.199853
1.00141
0.988061
0.968874
0.927587
0.925368
0.87123
0.888704
1.00147
0.995825
0.949645
0.885391
0.586686
0.971059
0.847108
0.968264
0.854508
0.805182
1.00236
0.90506
0.715694
0.973329
0.99145
0.983314
0.998633
0.897349
0.856452
1.00148
0.972753
0.830567
0.965457
0.970244
0.967208
1.00238
0.936855
0.876435
0.894148
0.834776
0.999948
0.884145
0.974319
0.688081
1.00596
0.94463
0.91526
1.00284
0.861031
0.866683
0.941442
0.750954
0.95641
0.999373
0.924847
0.878665
0.927052
0.920315
0.720707
0.956673
0.708572
0.962344
0.985985
0.516928
0.774992
0.944948
0.79139
0.965887
0.13139
0.978962
0.575295
0.977953
1.00111
0.945928
0.94562
0.855034
0.990221
0.985235
0.840026
0.629066
0.900288
0.863185
1.00098
0.741391
0.813264
1.00109
0.910521
0.987125
0.937289
0.834654
0.984433
0.906258
0.994037
0.845137
0.960487
0.530987
0.912771
0.82771
0.996228
0.92719
0.811475
0.982029
0.947389
0.906322
0.998477
0.910892
0.91592
1.00182
0.99307
0.937709
0.987349
0.998419
0.865556
0.879568
0.799829
0.598118
0.990573
0.739968
0.817667
1.00136
0.968066
0.937853
0.784293
0.913375
0.923851
0.695283
0.661996
0.950516
0.952081
0.975468
0.15619
0.606211
0.688322
0.968729
0.233487
0.920852
0.854809
0.99447
0.985312
0.809487
0.553809
0.953214
0.949262
0.764742
0.749157
0.951843
0.951579
0.998249
0.512802
0.7166
0.651491
0.969571
0.149692
0.974959
1.00347
0.984408
0.642053
0.204307
0.975708
0.991322
0.862699
0.951455
0.763019
0.513816
0.993461
0.134318
0.982649
0.509605
0.998453
0.9584
0.941393
0.982232
0.970652
0.995855
0.736924
0.975205
0.364909
0.974984
0.958627
0.996289
0.98023
1.00093
0.989236
1.00198
0.835939
0.883769
0.965746
0.972991
1.00109
0.979219
0.950118
1.00203
0.975781
0.801133
0.93414
0.972848
0.978346
0.477341
0.473185
0.793007
0.782904
0.77303
0.5692
0.991434
0.942024
0.965719
0.754999
0.9955
0.944276
0.902449
0.847198
0.830969
0.998548
0.260812
0.990612
0.559307
1.00102
0.76547
0.610115
0.697947
0.980697
0.335944
0.980808
0.0915214
0.499274
0.049522
0.974951
0.536635
0.798553
0.894149
0.994429
0.412431
0.997235
0.648647
0.874806
0.702812
0.986872
0.795542
0.955819
0.395167
0.983728
0.984464
0.927033
0.548711
0.99971
0.737911
0.850334
0.998337
0.848091
0.790841
0.855791
1.00168
0.976315
-0.0748888
0.420397
0.160943
0.982019
0.555507
0.990428
0.990674
0.937165
0.493364
0.713784
0.994804
1.0001
0.685874
0.485124
0.808529
0.978431
0.546817
0.956075
0.588209
0.872092
0.98548
0.796183
0.933031
0.711889
0.936854
0.953472
0.954886
0.857267
0.513751
0.983186
0.977648
0.866438
0.842401
0.961582
0.964536
0.987902
0.875245
0.957761
0.963563
0.760323
0.95051
0.761978
0.837656
1.00034
0.559801
0.770379
0.996247
0.99837
0.840933
0.729204
0.0696549
0.974844
0.564093
1.00244
0.998806
0.971044
0.932478
0.977375
0.936538
0.980176
0.974911
0.948096
0.806529
0.948699
0.83374
0.16967
0.987191
0.509781
0.512994
0.731055
0.994428
0.992018
0.930205
0.868371
0.795025
0.831259
1.00168
0.954161
0.610711
0.88517
0.2564
0.618824
0.984438
0.299671
0.632941
0.987632
0.950688
0.764507
0.958945
1.00769
0.941367
0.929534
0.795355
0.97919
0.506338
0.780265
0.872931
0.997496
0.976214
0.645609
0.874428
0.979533
0.946489
0.840394
0.914921
0.893503
1.00074
0.998858
0.950657
0.915631
0.982946
0.48906
0.773484
0.906869
0.70305
0.968139
1.00197
0.96543
0.943405
0.836883
0.953518
0.466814
0.985769
0.903561
0.969771
0.969389
0.933231
1.0009
0.808144
0.876111
0.999297
0.734595
0.96415
0.290234
0.753971
0.961328
0.312877
0.971699
0.632143
0.875266
0.899788
0.895913
0.999352
0.963154
0.233782
0.705086
0.987861
0.66519
0.857717
0.98222
0.063612
0.464408
0.516307
-0.00386061
0.97262
0.959153
0.5389
0.860106
0.986313
0.413945
0.717103
0.820289
0.835344
0.96905
0.510992
0.970471
0.554735
0.845939
0.674891
0.990449
1.00453
0.812566
0.822605
1.00445
0.979506
0.946378
0.855038
0.71579
0.996301
0.997989
0.861688
0.738936
0.872802
0.951359
0.539601
0.97582
0.783009
0.947212
0.983189
0.842852
0.948056
0.899699
0.783315
0.991134
0.889529
0.774297
0.99441
1.00428
0.963243
0.95746
0.975855
0.827229
0.964236
1.00226
0.565884
0.729514
0.612112
0.991204
0.314556
0.588124
0.991444
0.303801
0.994099
0.959126
0.899783
0.21801
0.98442
0.579048
0.893003
0.968336
0.660757
0.987334
0.224272
0.551049
0.996056
0.996178
0.960444
0.962405
0.855512
0.982219
0.904817
0.898475
1.00075
0.997353
0.442943
0.674578
0.783928
0.872381
0.999448
0.956422
0.818934
0.446752
0.946559
0.834376
0.982106
1.00496
0.983424
0.954387
0.446709
0.697498
0.995099
0.982068
0.638619
0.857689
0.720083
0.6973
0.969816
0.971786
0.318151
0.281089
0.940254
0.885298
0.998537
0.820744
0.904589
0.99454
0.972586
0.938662
0.996905
0.365817
0.640347
0.374879
0.993048
0.636724
0.99549
0.921432
0.773292
0.984374
0.695927
0.668172
0.419719
0.381674
0.992178
0.99129
0.899472
0.840197
1.00012
0.956362
0.877952
0.988014
0.776522
0.961505
0.373918
0.953336
0.874368
0.996217
0.974351
0.921018
0.993938
0.738279
0.966172
0.321243
0.951297
0.810124
0.97544
0.855971
0.83176
0.999931
0.983776
0.823629
0.940786
0.704294
1.00221
0.786143
0.977144
-0.031677
0.450915
0.945281
0.857453
0.987745
0.792126
0.965237
0.433274
0.924209
0.812102
0.991
0.583273
0.968834
0.0746437
1.00303
1.00096
0.940482
0.945593
0.939067
0.940633
0.976554
0.940498
0.998944
0.999681
1.0022
0.951563
0.94626
0.958467
0.944907
0.9538
0.892635
0.995377
0.959392
0.894818
0.996922
0.994952
0.337501
0.597576
0.992285
0.894922
0.957178
0.722477
0.44121
0.989429
0.896332
0.882492
0.759433
0.727694
0.987771
0.987601
0.988391
0.913618
0.963423
0.962439
0.791968
0.95141
0.920692
0.801543
0.988772
1.00074
0.971769
0.980814
0.873563
0.736226
0.994351
1.00141
0.970756
0.951281
0.915322
0.837935
0.997431
0.961535
0.80958
0.952782
0.999495
1.00075
0.96453
0.983023
0.966998
0.977241
1.00343
0.956801
1.00452
0.964104
0.968392
0.952243
0.984009
0.98178
0.879651
0.873631
0.966959
0.965598
0.960413
0.606058
0.879007
0.998278
0.847415
0.873748
0.965665
0.968824
0.572183
0.585591
0.859394
0.855149
0.996921
0.924181
0.861415
0.998428
0.99017
0.9813
0.870727
0.713402
0.991726
1.00052
0.965046
0.916312
0.95654
0.796699
0.955858
0.906647
0.908403
0.652781
0.959552
0.669807
0.961547
0.90622
0.75126
0.983253
0.610428
0.124944
0.969683
0.919328
0.832385
0.992122
0.98645
0.987434
0.928481
0.815207
0.934747
0.831572
0.851071
0.755413
0.999661
0.966565
0.81075
0.952492
0.996877
0.924156
0.853605
0.984886
0.989757
0.938059
0.949645
0.863514
0.857191
0.983627
0.940114
0.839274
0.908055
0.768894
0.987125
1.00232
0.970306
0.959555
0.758056
0.969791
0.389952
0.995008
0.925567
0.83697
0.96201
0.95015
0.804177
0.782086
0.95773
0.963985
0.96902
0.431783
0.784097
0.779171
0.965929
0.393917
0.758101
0.966361
0.364572
0.894515
0.963895
0.647097
0.971275
0.833837
0.955828
0.472292
0.614335
0.872004
0.479158
0.78481
0.231106
0.705785
0.575485
0.408232
0.780812
0.778685
0.372245
0.480179
0.768319
0.592449
0.483132
0.517821
0.556987
0.613015
0.732833
0.637705
0.549291
0.806474
0.951638
0.886726
0.619391
0.797933
0.388338
0.66053
0.469458
0.402738
0.706768
0.612249
0.620427
0.440246
0.629181
0.862351
0.79759
0.541876
0.666816
0.516983
0.965364
0.466017
0.771166
0.829287
0.543039
0.549292
0.483448
0.382843
0.464493
0.898045
0.648551
0.482576
0.521832
0.399177
0.894205
0.731095
0.621299
0.472351
0.756866
0.458819
0.477399
0.890295
0.597435
0.617662
0.736014
0.650397
0.927274
0.800186
0.781904
0.334116
0.383099
0.537785
0.753614
0.369744
0.621817
0.61687
0.432435
0.747672
0.838658
0.5581
0.608208
0.392635
0.460937
0.527935
0.756424
0.530052
0.520367
0.579148
0.898185
0.48278
0.758123
0.882194
0.626605
0.485491
0.167528
0.438772
0.487633
0.483134
0.3324
0.679428
0.811995
0.837517
0.927949
0.471
0.49291
0.389495
0.493028
0.441188
0.862052
0.821086
0.731817
0.438329
0.386966
0.682266
0.802085
0.555822
0.520262
0.313641
0.552145
0.609491
0.898352
0.916982
0.760941
0.62826
0.544484
0.370298
0.91817
0.423543
0.749321
0.321676
0.890962
0.393769
0.414077
0.456224
0.838481
0.609232
0.284407
0.46328
0.718379
0.478981
0.766241
0.6954
0.493736
0.824785
0.518108
0.458693
0.850578
0.472564
0.560454
0.376013
0.642876
0.538115
0.835967
0.759911
0.550556
0.752498
0.76667
0.872672
0.62115
0.532631
0.488547
0.771193
0.421673
0.663432
0.395112
0.953369
0.551433
0.837329
0.917917
0.641891
0.922963
0.841359
0.872742
0.43042
0.316105
0.369833
0.875956
0.43106
0.409323
0.415332
0.411567
0.565788
0.517592
0.640063
0.917045
0.757922
0.524159
0.742612
0.50312
0.960715
0.380492
0.817493
0.486959
0.297175
0.900498
0.925311
0.480249
0.488474
0.950311
0.667041
0.535282
0.447558
0.758786
0.858432
0.732122
0.478848
0.474149
0.78502
0.629526
0.439223
0.682243
0.423728
0.415865
0.545666
0.786626
0.321471
0.563841
0.816543
0.520593
0.315902
0.541279
0.484909
0.538347
0.694491
0.709337
0.462468
0.404322
0.44861
0.737623
0.727859
0.562183
0.718852
0.5243
0.43121
0.679449
0.52296
0.299092
0.728452
0.849228
0.656723
0.886109
0.858345
0.968082
0.484902
0.270249
0.579082
0.543653
0.530064
0.328044
0.677201
0.889343
0.736199
0.673803
0.472156
0.566495
0.75301
0.626756
0.707405
0.477204
0.575462
0.517155
0.410994
0.459969
0.494719
0.486575
0.421532
0.714964
0.626718
0.548712
0.721338
0.489914
0.571564
0.461966
0.545349
0.52551
0.496665
0.66786
0.339479
0.271593
0.586847
0.365832
0.334228
0.67455
0.385502
0.333145
0.843525
0.725134
0.460775
0.738453
0.409468
0.713729
0.677474
0.428266
0.48867
0.805056
0.585843
0.756564
0.236903
0.451426
0.842646
0.510126
0.460225
0.243812
0.347373
0.312963
0.360352
0.519356
0.727577
0.427181
0.308242
0.443426
0.506617
0.963093
0.487383
0.758208
0.668465
0.399213
0.552634
0.462632
0.391037
0.699035
0.524192
0.895276
0.731397
0.462582
0.530845
0.649525
0.950365
0.746358
0.865876
0.767321
0.525702
0.642934
0.565559
0.435526
0.345325
0.49375
0.5185
0.717478
0.465737
0.372203
0.483224
0.548769
0.480936
0.507325
0.823706
0.532837
0.497562
0.883809
0.82113
0.455938
0.640553
0.858289
0.473044
0.376328
0.533223
0.432338
0.393752
0.848266
0.445479
0.564156
0.862245
0.329116
0.63898
0.468421
0.638824
0.5343
0.485804
0.194181
0.562494
0.368955
0.505296
0.542517
0.543918
0.744645
0.89178
0.479524
0.637102
0.542203
0.455983
0.293969
0.809071
0.693235
0.512885
0.370849
0.664757
0.372584
0.489295
0.475499
0.447635
0.766641
0.87878
0.519299
0.745269
0.932455
0.822461
0.812877
0.870563
0.530931
0.507876
0.395948
0.95028
0.798719
0.840558
0.476459
0.533336
0.305625
0.760612
0.543061
0.483526
0.842267
0.711115
0.43225
0.557371
0.463395
0.482453
0.470412
0.531971
0.547467
0.428153
0.523139
0.353427
0.554311
0.428075
0.707206
0.609183
0.321003
0.864143
0.884852
0.762649
0.497861
0.64669
0.381246
0.781221
0.63369
0.380949
0.857535
0.313394
0.897145
0.349143
0.560852
0.587422
0.763389
0.782698
0.483444
0.920632
0.497731
0.818698
0.557145
0.706603
0.510662
0.47298
0.490061
0.821659
0.586339
0.944514
0.741455
0.34601
0.489942
0.707681
0.332658
0.502239
0.560994
0.422014
0.901776
0.442489
0.422326
0.789127
0.48434
0.895437
0.934367
0.542563
0.94498
0.907013
0.832527
0.847636
0.65867
0.387919
0.458788
0.540392
0.809154
0.549305
0.315718
0.919405
0.425873
0.569998
0.450921
0.870321
0.957145
0.425219
0.823361
0.673424
0.890082
0.561512
0.769789
0.556544
0.92012
0.940508
0.718693
0.45766
0.785516
0.519106
0.630246
0.621437
0.570733
0.677413
0.504623
0.3173
0.401246
0.58458
0.691449
0.63819
0.840656
0.439985
0.544425
0.698884
0.402506
0.879325
0.471735
0.556762
0.861072
0.834875
0.655936
0.927856
0.470157
0.524997
0.770285
0.619703
0.600938
0.561417
0.494546
0.709401
0.736091
0.495896
0.472728
0.652572
0.342557
0.425364
0.896216
0.926553
0.941792
0.579918
0.937111
0.953852
0.908379
0.285518
0.668397
0.671334
0.925266
0.510753
0.479098
0.374399
0.457293
0.289186
0.917372
0.585007
0.60115
0.775793
0.724201
0.511097
0.554312
0.954004
0.912605
0.86638
0.722501
0.506697
0.748711
0.69963
0.513273
0.5939
0.393325
0.448273
0.624733
0.588366
0.511283
0.891311
0.895586
0.295787
0.835516
0.478181
0.484321
0.539537
0.884238
0.551688
0.731631
0.571517
0.867875
0.527913
0.569329
0.93496
0.297632
0.342999
0.467398
0.433949
0.268863
0.124358
0.442677
0.266027
0.596791
0.291196
0.399562
0.591138
0.48977
0.448636
0.520127
0.376473
0.165436
0.905499
0.811334
0.532349
0.377534
0.814132
0.515184
0.479086
0.937739
0.448229
0.933789
0.559478
0.84605
0.57344
0.389637
0.395598
0.637029
0.638195
0.599251
0.39526
0.53016
0.404293
0.432779
0.498724
0.322531
0.384394
0.912678
0.468958
0.749579
0.783063
0.513632
0.781493
0.788009
0.377152
0.134651
0.560451
0.344522
0.276473
0.745443
0.763746
0.53656
0.696573
0.518092
0.934945
0.904136
0.569229
0.504543
0.922926
0.849628
0.680809
0.683333
0.524224
0.938725
0.628098
0.292953
0.872981
0.804203
0.894208
0.636729
0.458463
0.536435
0.767444
0.705745
0.0552844
0.970526
0.558422
0.466816
0.630651
0.829903
0.925696
0.942435
0.700313
0.599726
0.798979
0.855396
0.857386
0.741236
0.80814
0.401673
0.485915
0.658839
0.397837
0.392281
0.325642
0.554141
0.79164
0.347611
0.625987
0.49385
0.804579
0.943056
0.58736
0.384011
0.31578
0.757977
0.492963
0.454355
0.309374
0.871942
0.659185
0.676321
0.369561
0.668237
0.447751
0.474604
0.757568
0.78861
0.872458
0.956302
0.444038
0.857026
0.294842
0.87385
0.882698
0.892339
0.78877
0.424347
0.424118
0.545727
0.294939
0.619159
0.321297
0.675126
0.376037
0.842883
0.517612
0.307845
0.837267
0.763204
0.576298
0.576408
0.739586
0.875867
0.64956
0.605743
0.300784
0.81306
0.632597
0.90408
0.270618
0.590892
0.875513
0.757012
0.928249
0.751708
0.531238
0.25616
0.306268
0.58255
0.328684
0.912359
0.312069
0.498499
0.57245
0.442104
0.789752
0.272604
0.859912
0.769011
0.680326
0.316122
0.710598
0.454319
0.532477
0.592109
0.572703
0.526321
0.518754
0.793977
0.437223
0.932415
0.514845
0.59286
0.724368
0.758354
0.912318
0.528112
0.572388
0.45316
0.595895
0.500056
0.902134
0.45688
0.611401
0.521464
0.812847
0.480421
0.637877
0.378611
0.944115
0.289728
0.425596
0.512267
0.824135
0.314335
0.311185
0.411318
0.368044
0.891328
0.605132
0.731067
0.847837
0.70512
0.613655
0.946125
0.614522
0.763805
0.705292
0.63842
0.327423
0.651289
0.592465
0.507527
0.655284
0.434553
0.344416
0.641773
0.538079
0.422157
0.795526
0.599247
0.725232
0.587127
0.894234
0.5714
0.575729
0.709441
0.370103
0.450645
0.523509
0.638154
0.655276
0.707189
0.880497
0.750746
0.810529
0.63276
0.859932
0.917074
0.911674
0.639225
0.622165
0.671282
0.392844
0.92628
0.850085
0.821157
0.611181
0.433723
0.336255
0.673006
0.74996
0.46978
0.81543
0.849882
0.692082
0.485014
0.637054
0.506282
0.476134
0.615597
0.498351
0.675292
0.309203
0.674778
0.590361
0.569759
0.276172
0.653139
0.608563
0.738259
0.522115
0.662877
0.885267
0.898661
0.68587
0.563189
0.810414
0.634412
0.455617
0.44323
0.551064
0.356925
0.876487
0.592149
0.648768
0.771971
0.74572
0.702224
0.427989
0.935812
0.710807
0.45547
0.599121
0.621507
0.810023
0.884495
0.714841
0.68301
0.321858
0.42468
0.579357
0.683968
0.608477
0.690059
0.477176
0.893951
0.681837
0.775309
0.860849
0.654862
0.465108
0.634256
0.926277
0.506851
0.311252
0.629987
0.92939
0.50412
0.55654
0.800499
0.743208
0.829417
0.598203
0.324811
0.688903
0.376857
0.512549
0.829628
0.596024
0.39961
0.472545
0.498867
0.70836
0.524878
0.495999
0.860844
0.461563
0.946858
0.828978
0.376872
0.25741
0.5995
0.754736
0.852648
0.604911
0.577781
0.4661
0.543534
0.576974
0.954046
0.876859
0.753559
0.532515
0.342
0.867305
0.941947
0.893776
0.811192
0.871764
0.626089
0.377942
0.291245
0.314443
0.9069
0.616927
0.453399
0.550707
0.938995
0.525843
0.487729
0.355726
0.603109
0.435365
0.917672
0.696063
0.77
0.873965
0.832344
0.561514
0.726801
0.623036
0.743985
0.500177
0.69149
0.482125
0.904835
0.403797
0.502566
0.446123
0.541927
0.883066
0.524868
0.830178
0.844667
0.877044
0.408488
0.615647
0.573773
0.470393
0.894447
0.632673
0.649496
0.690239
0.258562
0.558281
0.879217
0.726559
0.896887
0.301293
0.418997
0.532502
0.909118
0.486321
0.586405
0.422811
0.421508
0.538003
0.884566
0.568114
0.584306
0.36442
0.909474
0.932279
0.268895
0.873169
0.511616
0.414113
0.428412
0.622882
0.336198
0.70324
0.528937
0.505638
0.553294
0.839568
0.610581
0.824687
0.559798
0.414037
0.551207
0.30084
0.334149
0.59544
0.527218
0.661288
0.420132
0.570754
0.848027
0.68942
0.50648
0.387002
0.864104
0.616106
0.586333
0.948259
0.654113
0.499723
0.512207
0.434507
0.918167
0.507243
0.583496
0.701217
0.356773
0.871486
0.413673
0.857427
0.611134
0.782211
0.427123
0.797612
0.579148
0.376519
0.449442
0.611565
0.875136
0.254751
0.471801
0.529904
0.910093
0.930417
0.459471
0.492202
0.696629
0.894397
0.568893
0.889793
0.853163
0.820218
0.776572
0.667397
0.727435
0.708136
0.897962
0.588604
0.632933
0.457648
0.485799
0.585797
0.4361
0.92209
0.40637
0.882787
0.572387
0.911796
0.48332
0.926234
0.781581
0.827556
0.913756
0.885383
0.945381
0.553194
0.863654
0.612031
0.525956
0.469991
0.424247
0.896906
0.40776
0.70055
0.707728
0.569689
0.69839
0.471325
0.876964
0.642778
0.795854
0.281546
0.462462
0.531001
0.910787
0.468428
0.732592
0.490488
0.532585
0.393759
0.560096
0.518272
0.816741
0.905111
0.350415
0.692145
0.533552
0.489939
0.837705
0.466331
0.483318
0.916299
0.316788
0.652536
0.755115
0.891321
0.941059
0.50021
0.477151
0.358949
0.541832
0.474036
0.530652
0.783378
0.511546
0.377884
0.57934
0.61581
0.513349
0.47791
0.52657
0.621203
0.37895
0.804593
0.784566
0.516106
0.798527
0.383003
0.351788
0.470666
0.299292
0.925902
0.519111
0.518648
0.47257
0.840681
0.896834
0.656586
0.776806
0.490735
0.454943
0.626312
0.519599
0.468368
0.89546
0.669307
0.72241
0.926386
0.812253
0.605944
0.914082
0.349496
0.66197
0.656542
0.713463
0.548543
0.889248
0.513403
0.699629
0.594131
0.516061
0.43344
0.485832
0.781705
0.840763
0.87038
0.626596
0.643135
0.898497
0.80463
0.586499
0.655872
0.39965
0.550977
0.828252
0.344635
0.853257
0.517784
0.864487
0.932655
0.902209
0.510647
0.834573
0.856183
0.338775
0.89391
0.497929
0.907913
0.815405
0.532115
0.411282
0.671778
0.555733
0.536642
0.490534
0.797064
0.520526
0.917815
0.420276
0.501671
0.468847
0.419785
0.51997
0.83915
0.932871
0.415211
0.786803
0.62257
0.704699
0.574803
0.690865
0.888888
0.822692
0.524487
0.878719
0.837491
0.933956
0.413871
0.50651
0.479781
0.782433
0.922309
0.847507
0.584941
0.929985
0.602746
0.361377
0.410006
0.252837
0.592409
0.392717
0.930272
0.950075
0.649805
0.937609
0.829149
0.658038
0.923512
0.401725
0.885449
0.550707
0.896269
0.533579
0.427578
0.782798
0.653096
0.909163
0.887589
0.893043
0.45113
0.454691
0.337399
0.850955
0.820693
0.448942
0.623981
0.821833
0.293659
0.491945
0.444629
0.543965
0.689984
0.535628
0.657451
0.755988
0.631192
0.643744
0.792439
0.526246
0.556575
0.6993
0.634195
0.529639
0.866105
0.90072
0.45217
0.814673
0.279341
0.485597
0.868243
0.796694
0.521271
0.902157
0.400292
0.78597
0.559492
0.560875
0.875485
0.536468
0.797368
0.786952
0.737278
0.955238
0.750027
0.362552
0.723834
0.591697
0.801223
0.950614
0.740707
0.606226
0.469652
0.562848
0.877999
0.39119
0.82787
0.458947
0.678972
0.805143
0.787007
0.624414
0.873239
0.931152
0.546987
0.528015
0.642769
0.44168
0.383602
0.663282
0.790736
0.444664
0.36582
0.474976
0.370819
0.77992
0.602233
0.808023
0.491764
0.898131
0.621905
0.839974
0.921086
0.465212
0.887124
0.53913
0.649302
0.630109
0.856946
0.486413
0.564417
0.637896
0.437284
0.537564
0.416775
0.396117
0.281136
0.925791
0.93414
0.441823
0.500857
0.798729
0.345518
0.473648
0.530162
0.763918
0.786345
0.321531
0.281139
0.885694
0.492869
0.692928
0.485253
0.352701
0.413501
0.655392
0.848984
0.701351
0.345208
0.901148
0.845051
0.452649
0.687147
0.517619
0.922904
0.537383
0.577657
0.378047
0.741505
0.896258
0.706415
0.653054
0.478705
0.597468
0.692421
0.927095
0.939681
0.480633
0.934758
0.487567
0.671018
0.66494
0.584714
0.514801
0.861513
0.553132
0.655433
0.471409
0.478041
0.561811
0.428011
0.741919
0.898213
0.456368
0.497753
0.657016
0.52323
0.473773
0.300789
0.523714
0.844574
0.321849
0.510715
0.770253
0.66066
0.586912
0.741598
0.832478
0.458909
0.453873
0.839064
0.574245
0.444453
0.615705
0.853969
0.726273
0.679961
0.489076
0.46395
0.475289
0.926782
0.843674
0.938446
0.581537
0.755234
0.396119
0.613749
0.850473
0.353959
0.359856
0.786826
0.848002
0.336926
0.508415
0.48008
0.440464
0.476432
0.93811
0.571145
0.505049
0.649859
0.468057
0.772071
0.66798
0.383014
0.513311
0.795488
0.592409
0.930917
0.379756
0.490427
0.723823
0.708293
0.597539
0.687803
0.435486
0.938196
0.86477
0.727491
0.862169
0.462178
0.85186
0.735031
0.71686
0.912788
0.346884
0.512335
0.943366
0.739432
0.334049
0.518115
0.824834
0.940211
0.615919
0.795187
0.485823
0.371964
0.454137
0.334565
0.850896
0.482556
0.639233
0.91321
0.455998
0.458286
0.489243
0.644851
0.500497
0.513656
0.470066
0.405872
0.599303
0.821276
0.911788
0.76237
0.537232
0.507582
0.315913
0.498413
0.719959
0.698984
0.739755
0.777425
0.509078
0.612594
0.821482
0.854711
0.942766
0.876489
0.917407
0.599449
0.394692
0.455113
0.412237
0.928316
0.64468
0.492048
0.911176
0.398299
0.819626
0.76541
0.515121
0.485101
0.511082
0.475076
0.852393
0.563292
0.765627
0.605048
0.907913
0.676754
0.959167
0.443107
0.61246
0.501098
0.271626
0.528442
0.783899
0.43482
0.24127
0.680048
0.888172
0.802902
0.476523
0.387791
0.459526
0.400119
0.487261
0.395161
0.582639
0.421842
0.789342
0.43568
0.494999
0.859796
0.610718
0.717341
0.839598
0.584025
0.640339
0.452206
0.800785
0.56464
0.514801
0.58236
0.421319
0.371555
0.492849
0.488656
0.791732
0.93766
0.861431
0.673026
0.763904
0.342917
0.933294
0.677489
0.780222
0.495232
0.778061
0.519072
0.533997
0.829446
0.899962
0.791862
0.686532
0.530337
0.949893
0.541654
0.823347
0.921913
0.751434
0.56003
0.33816
0.821445
0.66966
0.414451
0.738535
0.661791
0.904161
0.479247
0.913295
0.944239
0.571944
0.443125
0.920489
0.3896
0.425071
0.536904
0.42752
0.517499
0.423925
0.38404
0.602338
0.49786
0.45421
0.506894
0.69184
0.485826
0.467127
0.732695
0.636013
0.345116
0.900696
0.924894
0.920253
0.483486
0.342305
0.96429
0.378034
0.58472
0.476449
0.528539
0.49471
0.783475
0.51045
0.520063
0.366243
0.351257
0.41427
0.510471
0.32273
0.620483
0.664204
0.610659
0.909531
0.637131
0.73694
0.56701
0.841394
0.539255
0.525322
0.937013
0.544736
0.65986
0.390199
0.746746
0.933013
0.572073
0.70513
0.663387
0.518045
0.482016
0.45332
0.42604
0.794762
0.432435
0.570833
0.517967
0.575493
0.457541
0.454416
0.591102
0.555177
0.492242
0.91995
0.594294
0.561553
0.683269
0.903919
0.524331
0.355569
0.80943
0.391723
0.547615
0.481256
0.605464
0.512189
0.550037
0.607252
0.935587
0.859506
0.368543
0.490509
0.345326
0.469944
0.333765
0.430359
0.528629
0.441995
0.541141
0.712872
0.941409
0.522176
0.770087
0.628902
0.92696
0.511796
0.936553
0.713372
0.390893
0.705505
0.774081
0.526524
0.846954
0.480142
0.870148
0.483043
0.283954
0.596879
0.942591
0.920117
0.794984
0.714781
0.757216
0.352477
0.498145
0.758077
0.958675
0.2968
0.609427
0.483719
0.534427
0.569882
0.466796
0.407658
0.489734
0.421085
0.506868
0.549108
0.576478
0.953557
0.843572
0.327638
0.809326
0.447654
0.442458
0.824647
0.477085
0.546132
0.747976
0.341586
0.469708
0.609346
0.863183
0.408989
0.473668
0.536162
0.712648
0.412957
0.905511
0.340833
0.519653
0.543533
0.474005
0.71911
0.71406
0.907057
0.48049
0.787906
0.676127
0.70296
0.476088
0.720297
0.431215
0.402163
0.303035
0.677823
0.601779
0.54262
0.873137
0.609044
0.657686
0.714888
0.454677
0.433481
0.517017
0.690562
0.484382
0.939388
0.386354
0.34243
0.546245
0.520244
0.488979
0.478361
0.771316
0.533954
0.611559
0.401382
0.481967
0.615369
0.425424
0.93871
0.90992
0.411776
0.457205
0.836874
0.634979
0.464453
0.388795
0.47054
0.404678
0.669092
0.891356
0.463376
0.347395
0.71183
0.594089
0.342541
0.409157
0.597739
0.762472
0.934429
0.395245
0.358089
0.690629
0.847112
0.561901
0.666634
0.541032
0.481428
0.52407
0.714731
0.599326
0.484338
0.820071
0.539763
0.314506
0.655011
0.491674
0.826135
0.955335
0.488196
0.515325
0.526008
0.511634
0.397878
0.524766
0.402547
0.914739
0.834661
0.764855
0.535279
0.36089
0.812797
0.933896
0.463348
0.64843
0.5136
0.27716
0.63344
0.523191
0.289377
0.487113
0.71086
0.38721
0.347243
0.421973
0.806451
0.371439
0.824106
0.59343
0.485387
0.551406
0.450246
0.826848
0.313676
0.521256
0.566342
0.397578
0.659436
0.760611
0.680233
0.608297
0.802419
0.409544
0.410561
0.886102
0.479825
0.880623
0.695381
0.567917
0.667761
0.864645
0.59279
0.343773
0.902646
0.476432
0.572457
0.857213
0.465648
0.914529
0.46844
0.543435
0.339409
0.534055
0.423799
0.602013
0.425668
0.313052
0.407699
0.416498
0.282368
0.891593
0.414953
0.539497
0.669302
0.60515
0.937215
0.938655
0.50538
0.608842
0.829408
0.494864
0.89343
0.292729
0.547008
0.637198
0.464571
0.839705
0.513661
0.518352
0.506103
0.457433
0.473521
0.322285
0.86656
0.189326
0.898046
0.77114
0.430095
0.352511
0.41569
0.938719
0.767445
0.726083
0.580202
0.658991
0.566043
0.862846
0.8018
0.453498
0.700775
0.910818
0.58216
0.644147
0.713489
0.325839
0.4074
0.810871
0.529151
0.578123
0.916226
0.409394
0.298472
0.47089
0.581487
0.59019
0.91969
0.470582
0.368505
0.464354
0.575289
0.478676
0.882237
0.601913
0.415482
0.520235
0.460161
0.462208
0.5322
0.705166
0.631182
0.444381
0.871984
0.533422
0.81749
0.445872
0.405892
0.543707
0.863511
0.926379
0.818678
0.627117
0.60181
0.814592
0.913223
0.383737
0.897396
0.41171
0.7407
0.720033
0.875528
0.624081
0.864886
0.898944
0.489474
0.480999
0.541601
0.617984
0.407695
0.457382
0.399463
0.786442
0.845572
0.383444
0.905455
0.62031
0.804833
0.584851
0.439717
0.832072
0.80898
0.512222
0.517069
0.421917
0.945269
0.76342
0.962987
0.391608
0.407766
0.553426
0.847456
0.717263
0.848176
0.650342
0.915412
0.477551
0.563416
0.644924
0.495689
0.699681
0.371433
0.823512
0.598642
0.647331
0.898581
0.380183
0.388029
0.309163
0.683008
0.874018
0.507185
0.733314
0.381947
0.363902
0.584805
0.490539
0.468005
0.853996
0.624276
0.460895
0.555311
0.682005
0.899391
0.688097
0.549369
0.867298
0.624411
0.920666
0.638339
0.768775
0.555669
0.377995
0.938331
0.440842
0.665397
0.684816
0.892577
0.751915
0.601189
0.489491
0.951324
0.544928
0.426115
0.795883
0.934989
0.778461
0.728724
0.373395
0.303278
0.65906
0.446682
0.53488
0.6342
0.444267
0.899134
0.93981
0.899934
0.487339
0.529009
0.470541
0.522337
0.734089
0.409234
0.756705
0.91069
0.377139
0.518595
0.467597
0.831831
0.736811
0.529813
0.452114
0.775233
0.477187
0.357588
0.410268
0.95161
0.309811
0.81971
0.706115
0.479705
0.899171
0.667209
0.928607
0.339267
0.517938
0.634659
0.90513
0.52456
0.891827
0.670978
0.310782
0.606789
0.485036
0.532664
0.304322
0.811636
0.520706
0.445825
0.351989
0.608436
0.859399
0.240002
0.494001
0.870472
0.566204
0.858022
0.291918
0.481657
0.478159
0.566179
0.500813
0.369942
0.476852
0.257902
0.543541
0.553665
0.806294
0.652228
0.873993
0.46478
0.525979
0.373981
0.629883
0.250785
0.527457
0.958966
0.590621
0.520925
0.945178
0.434578
0.654863
0.702529
0.348156
0.496012
0.587247
0.671119
0.912368
0.932478
0.936344
0.681465
0.566074
0.573079
0.41631
0.83401
0.738561
0.471666
0.529516
0.513608
0.580798
0.932131
0.560023
0.926583
0.520278
0.712182
0.419321
0.475198
0.357839
0.491386
0.885395
0.521501
0.382062
0.419397
0.945541
0.495832
0.440345
0.438093
0.475999
0.760401
0.644807
0.659986
0.568041
0.767908
0.356699
0.591285
0.614339
0.539262
0.858967
0.871136
0.425931
0.879696
0.904011