/*--------------------------------*- C++ -*----------------------------------*\
  =========                 |
  \\      /  F ield         | OpenFOAM: The Open Source CFD Toolbox
   \\    /   O peration     | Website:  https://openfoam.org
    \\  /    A nd           | Version:  6
     \\/     M anipulation  |
\*---------------------------------------------------------------------------*/
FoamFile
{
    version     2.0;
    format      ascii;
    class       volScalarField;
    location    "0";
    object      p;
}
// * * * * * * * * * * * * * * * * * * * * * * * * * * * * * * * * * * * * * //

dimensions      [0 2 -2 0 0 0 0];

internalField   nonuniform List<scalar> 
13046
(
0.743324
0.728899
0.810359
0.740087
0.794187
0.754951
0.725699
0.757137
0.805077
0.588084
0.62627
0.831538
0.724261
0.724035
0.812684
0.636283
0.833973
0.619002
0.781464
0.779488
0.735909
0.627819
0.833858
0.622896
0.746291
0.750701
0.796673
0.720277
0.717518
0.820102
0.750372
0.717041
0.807127
0.757207
0.791025
0.748961
0.755353
0.789622
0.757166
0.770624
0.808324
0.690008
0.758904
0.777509
0.767102
0.751423
0.774756
0.775036
0.732693
0.732919
0.811672
0.799746
0.791086
0.651163
0.804863
0.637547
0.798978
0.624828
0.716547
0.832063
0.668
0.743
0.819001
0.829107
0.67206
0.636385
0.729769
0.622486
0.8293
0.736586
0.626515
0.827321
0.617057
0.71102
0.832732
0.781689
0.789486
0.724041
0.835665
0.688304
0.624391
0.738844
0.751933
0.798518
0.829943
0.66378
0.625928
0.607274
0.828454
0.706924
0.828145
0.568487
0.7287
0.687472
0.674578
0.70121
0.699927
0.823799
0.827663
0.828888
0.604371
0.719026
0.746884
0.780703
0.771447
0.803842
0.660026
0.794377
0.783343
0.806349
0.666299
0.541354
0.831252
0.580634
0.728933
0.731825
0.807385
0.684925
0.691159
0.675243
0.828649
0.687925
0.826449
0.580395
0.611038
0.832558
0.70926
0.699483
0.824341
0.763822
0.809895
0.692593
0.824268
0.576912
0.74351
0.651172
0.699875
0.82698
0.74499
0.713779
0.809404
0.69127
0.770155
0.80658
0.786622
0.801052
0.663115
0.799755
0.671677
0.794785
0.666463
0.731945
0.819522
0.803419
0.700066
0.779079
0.788588
0.631929
0.78134
0.62903
0.809139
0.81353
0.685726
0.769447
0.801605
0.581105
0.830808
0.64112
0.558871
0.830912
0.59074
0.649185
0.688294
0.829854
0.765767
0.664509
0.817866
0.688285
0.797366
0.775287
0.833531
0.662651
0.577884
0.767457
0.674068
0.811648
0.803255
0.690519
0.781151
0.700077
0.769316
0.801732
0.724519
0.817943
0.711995
0.710836
0.819245
0.609582
0.828637
0.682842
0.826064
0.596277
0.735371
0.57906
0.719061
0.825222
0.804979
0.62603
0.789996
0.71217
0.693892
0.83666
0.616985
0.700466
0.575986
0.829879
0.74606
0.790131
0.763126
0.729179
0.71502
0.819071
0.826648
0.587692
0.744836
0.70513
0.733164
0.818443
0.831818
0.621692
0.554875
0.794505
0.623792
0.801023
0.591041
0.726364
0.825817
0.655343
0.776052
0.811053
0.710567
0.696456
0.825526
0.768
0.589803
0.817733
0.616437
0.779139
0.813346
0.830955
0.627457
0.54145
0.781939
0.812889
0.661085
0.564807
0.830396
0.546439
0.782998
0.737204
0.774753
0.664535
0.666001
0.765637
0.772949
0.811793
0.809388
0.833187
0.677963
0.617489
0.721837
0.697631
0.821535
0.613448
0.766495
0.819201
0.667035
0.688965
0.827954
0.766088
0.75887
0.77919
0.642215
0.773067
0.813273
0.725292
0.683862
0.823479
0.709014
0.703718
0.785117
0.811594
0.652087
0.640135
0.763715
0.815568
0.654071
0.829309
0.689822
0.789078
0.800766
0.676653
0.81019
0.623134
0.788456
0.705083
0.666713
0.826254
0.789071
0.803413
0.649388
0.696623
0.687451
0.66313
0.828346
0.663743
0.831076
0.832093
0.666226
0.58998
0.700044
0.689565
0.827173
0.532691
0.831177
0.519292
0.718376
0.787582
0.776796
0.679112
0.744436
0.816769
0.829134
0.622571
0.691043
0.805573
0.625712
0.800089
0.757383
0.589847
0.821414
0.746169
0.812602
0.681226
0.729585
0.821143
0.746728
0.809831
0.648279
0.83224
0.627756
0.812202
0.616633
0.790747
0.672676
0.727308
0.822348
0.684868
0.768472
0.809653
0.661768
0.79288
0.798154
0.738981
0.740523
0.804533
0.802382
0.625263
0.793696
0.597197
0.698102
0.827029
0.758227
0.593349
0.822781
0.747986
0.823143
0.63309
0.691467
0.698616
0.647293
0.639462
0.829713
0.829248
0.830081
0.54156
0.532574
0.575407
0.83124
0.553894
0.657177
0.763422
0.809936
0.828591
0.607058
0.669479
0.725388
0.717766
0.649685
0.64825
0.828805
0.828668
0.826736
0.69528
0.549869
0.559136
0.831466
0.525141
0.741867
0.774366
0.783075
0.545372
0.556697
0.830679
0.755124
0.670828
0.81759
0.577896
0.67188
0.833032
0.557128
0.829481
0.479919
0.773598
0.802836
0.697803
0.725091
0.778201
0.790246
0.589623
0.833406
0.602256
0.716856
0.777861
0.79275
0.748508
0.773929
0.779925
0.803174
0.610416
0.804583
0.714117
0.792272
0.782642
0.720629
0.780258
0.782436
0.756337
0.633183
0.821595
0.835479
0.834992
0.630166
0.634509
0.610204
0.603151
0.583512
0.697398
0.828449
0.829191
0.746566
0.620238
0.772167
0.809247
0.673917
0.608509
0.781136
0.809903
0.611336
0.829712
0.493191
0.829212
0.567922
0.719268
0.562701
0.832081
0.605674
0.827867
0.539735
0.478695
0.508341
0.827562
0.503699
0.749868
0.639419
0.81788
0.669871
0.82769
0.524072
0.639079
0.706687
0.827529
0.629402
0.83362
0.584844
0.721291
0.808344
0.748153
0.70383
0.828242
0.556641
0.612254
0.807417
0.784418
0.760163
0.616429
0.821609
0.825392
0.461906
0.447068
0.557387
0.831518
0.502691
0.729776
0.804814
0.747531
0.687088
0.554186
0.8279
0.829865
0.536951
0.69214
0.612921
0.830136
0.666146
0.833469
0.634616
0.664276
0.766217
0.621613
0.824491
0.638855
0.711141
0.832652
0.834832
0.660942
0.60396
0.740678
0.735539
0.687284
0.681647
0.819194
0.821829
0.749274
0.68349
0.817978
0.734683
0.63681
0.831107
0.759356
0.604547
0.820623
0.691634
0.57869
0.832863
0.822044
0.608634
0.742368
0.507644
0.827948
0.518217
0.765482
0.758554
0.807176
0.705196
0.807702
0.714316
0.74706
0.748235
0.822721
0.64616
0.825513
0.656199
0.571468
0.828872
0.480062
0.689676
0.563893
0.828149
0.775625
0.809709
0.653096
0.773529
0.597897
0.816136
0.833272
0.634508
0.673266
0.592968
0.525848
0.830512
0.611743
0.528259
0.830937
0.714634
0.659679
0.829998
0.791088
0.794094
0.684758
0.606216
0.830725
0.65015
0.749672
0.627385
0.823688
0.831284
0.672048
0.650015
0.755663
0.82348
0.652546
0.658164
0.781769
0.804664
0.776272
0.807731
0.680264
0.831488
0.653224
0.592205
0.672176
0.675923
0.829838
0.772026
0.802185
0.705855
0.650446
0.835305
0.594287
0.743245
0.704603
0.815677
0.707362
0.768357
0.801745
0.761854
0.626649
0.817243
0.595696
0.833462
0.564113
0.607841
0.83388
0.564797
0.832147
0.661172
0.654109
0.644677
0.791365
0.802895
0.833537
0.546782
0.582117
0.827531
0.699315
0.628453
0.827368
0.528498
0.4661
0.495175
0.486528
0.828752
0.834691
0.616513
0.658809
0.831608
0.639604
0.56755
0.62696
0.633155
0.830479
0.634682
0.830711
0.648932
0.620495
0.712072
0.827279
0.818752
0.781751
0.594415
0.758499
0.799467
0.729657
0.619764
0.728129
0.825927
0.82483
0.620618
0.735429
0.673483
0.834516
0.601915
0.745715
0.636936
0.827435
0.749621
0.666746
0.818327
0.648224
0.736609
0.825304
0.640443
0.737908
0.824488
0.773447
0.794364
0.717352
0.736632
0.670133
0.82575
0.829003
0.715434
0.551913
0.5175
0.830416
0.625445
0.503203
0.829259
0.630432
0.761678
0.81415
0.684329
0.585674
0.829288
0.509406
0.666313
0.830969
0.662608
0.830726
0.59328
0.492691
0.741137
0.790428
0.762187
0.703013
0.725301
0.818511
0.793271
0.648959
0.79994
0.82718
0.677135
0.535757
0.750521
0.626328
0.821566
0.833776
0.638644
0.598018
0.689996
0.722052
0.824813
0.760354
0.79784
0.734224
0.666645
0.547557
0.830709
0.831121
0.683674
0.633718
0.584532
0.573997
0.830891
0.831054
0.587663
0.577577
0.676565
0.761103
0.813294
0.753947
0.647038
0.814176
0.717246
0.760391
0.806511
0.643525
0.526914
0.650586
0.831251
0.522229
0.829942
0.670871
0.709395
0.827477
0.550145
0.539567
0.655205
0.645697
0.8307
0.829282
0.646702
0.761447
0.820524
0.696318
0.744051
0.81539
0.617023
0.834864
0.58285
0.68508
0.748218
0.813418
0.711964
0.754703
0.80487
0.591761
0.833261
0.579041
0.695682
0.705846
0.820882
0.796119
0.603042
0.807824
0.761544
0.640342
0.822441
0.755438
0.822665
0.575805
0.826966
0.482505
0.46254
0.684484
0.738705
0.817652
0.618991
0.831627
0.61029
0.818344
0.617862
0.77872
0.524216
0.831176
0.509448
0.793926
0.790891
0.78709
0.692858
0.792879
0.683479
0.717108
0.766842
0.799209
0.779846
0.787451
0.797408
0.69657
0.796863
0.693898
0.692159
0.748277
0.81569
0.693691
0.754149
0.814521
0.829766
0.642925
0.506528
0.75436
0.69019
0.812791
0.564258
0.652488
0.832005
0.648717
0.64073
0.725289
0.717496
0.823765
0.823993
0.749538
0.703284
0.813539
0.729442
0.659392
0.825523
0.667025
0.727274
0.825456
0.764747
0.744894
0.787789
0.631165
0.727614
0.825218
0.76066
0.798673
0.726139
0.657622
0.751674
0.820193
0.724402
0.672339
0.825489
0.764544
0.769219
0.734745
0.79564
0.729968
0.794726
0.7773
0.789523
0.786775
0.717455
0.796886
0.701225
0.738682
0.730586
0.697169
0.702308
0.818621
0.817886
0.832058
0.642249
0.662874
0.802995
0.61397
0.797939
0.833936
0.833234
0.638948
0.649904
0.651463
0.645023
0.787784
0.810722
0.636012
0.763854
0.781086
0.757968
0.631994
0.716914
0.826155
0.762924
0.808594
0.699936
0.718108
0.672707
0.826335
0.683276
0.680989
0.641493
0.833041
0.652534
0.831374
0.659403
0.711014
0.825089
0.534939
0.527954
0.831366
0.813623
0.623872
0.781598
0.770886
0.771589
0.819655
0.626367
0.822135
0.632162
0.613062
0.748403
0.822164
0.735745
0.660408
0.825619
0.782921
0.811191
0.638621
0.766649
0.76527
0.81442
0.82124
0.654027
0.653962
0.766236
0.821745
0.640468
0.658148
0.719675
0.825647
0.767586
0.796103
0.725295
0.600672
0.831467
0.608577
0.781523
0.81543
0.631424
0.717222
0.706994
0.679743
0.677109
0.823646
0.828672
0.832181
0.615088
0.609299
0.613649
0.834072
0.592553
0.602202
0.832334
0.593963
0.669955
0.832077
0.652374
0.738632
0.669495
0.823748
0.763117
0.815947
0.83858
0.767225
0.837244
0.642369
0.827394
0.763009
0.791189
0.831261
0.829436
0.787526
0.772662
0.83508
0.814503
0.7867
0.760707
0.818607
0.816091
0.823875
0.817482
0.814405
0.830259
0.834184
0.841405
0.818037
0.840656
0.790996
0.822981
0.761911
0.795449
0.824084
0.823215
0.813405
0.802046
0.827129
0.83776
0.831476
0.772083
0.794806
0.815604
0.82676
0.805568
0.83303
0.818675
0.815299
0.818005
0.81612
0.788179
0.808425
0.838715
0.813786
0.788466
0.824998
0.79442
0.836603
0.826875
0.823314
0.820635
0.832192
0.808483
0.806659
0.840991
0.768896
0.825088
0.826889
0.821842
0.833145
0.83122
0.817803
0.798115
0.805021
0.803944
0.826073
0.80055
0.810969
0.810797
0.800314
0.828935
0.833092
0.816229
0.821702
0.787029
0.791132
0.816242
0.832055
0.815246
0.760591
0.817088
0.838214
0.791103
0.831791
0.841777
0.812417
0.777562
0.593318
0.802971
0.817885
0.777594
0.795675
0.829363
0.831394
0.821366
0.830005
0.78736
0.749878
0.786274
0.796085
0.804661
0.83733
0.83214
0.820439
0.793307
0.806296
0.796755
0.820607
0.819356
0.762712
0.794824
0.815356
0.816329
0.833626
0.824858
0.826835
0.821354
0.804021
0.793334
0.83987
0.73159
0.825239
0.797676
0.835647
0.788659
0.677626
0.753451
0.832411
0.808922
0.782015
0.80081
0.825304
0.780031
0.831542
0.807576
0.798826
0.826231
0.825929
0.786969
0.834934
0.800327
0.82093
0.78807
0.819679
0.773672
0.838642
0.830649
0.816543
0.827884
0.831969
0.837766
0.810883
0.802018
0.79749
0.825736
0.731652
0.78421
0.788114
0.833351
0.817983
0.833447
0.838508
0.819839
0.840263
0.839566
0.836873
0.786352
0.794371
0.791323
0.837475
0.790418
0.784832
0.718823
0.7859
0.817216
0.821998
0.822781
0.839523
0.829072
0.813007
0.835236
0.820864
0.828826
0.670676
0.822266
0.80562
0.797836
0.834607
0.836025
0.803222
0.816644
0.833761
0.822831
0.74995
0.801652
0.826087
0.837966
0.81335
0.788793
0.82123
0.827599
0.818368
0.814587
0.751386
0.709648
0.797868
0.805241
0.791098
0.796005
0.75773
0.831457
0.816296
0.795791
0.821858
0.792095
0.788393
0.825185
0.824866
0.785962
0.785765
0.747189
0.82447
0.79717
0.805526
0.820622
0.826149
0.79164
0.820691
0.813172
0.787455
0.790236
0.833959
0.818288
0.828805
0.839677
0.828296
0.781898
0.785283
0.817723
0.819595
0.786583
0.798977
0.823335
0.834185
0.832443
0.819097
0.785454
0.81202
0.805114
0.819724
0.822257
0.799994
0.820757
0.814042
0.702499
0.791364
0.802161
0.787763
0.808153
0.82453
0.821725
0.819507
0.826739
0.781427
0.815425
0.812057
0.819971
0.808443
0.821298
0.821064
0.791524
0.775048
0.817284
0.787377
0.782593
0.817428
0.687378
0.785199
0.836551
0.821238
0.797551
0.789598
0.796559
0.822085
0.749662
0.700285
0.783524
0.825045
0.817666
0.829488
0.638053
0.78099
0.838149
0.81334
0.755839
0.773286
0.787997
0.792199
0.784239
0.823442
0.827413
0.795684
0.790398
0.806817
0.807907
0.82963
0.739499
0.827775
0.824418
0.685249
0.798056
0.789113
0.794796
0.82416
0.82364
0.834487
0.809115
0.781802
0.81508
0.814943
0.835957
0.815377
0.837473
0.827531
0.811763
0.823184
0.81781
0.804649
0.791282
0.815358
0.768188
0.821379
0.818362
0.79464
0.786218
0.778663
0.783614
0.763189
0.835469
0.787553
0.803345
0.829668
0.830459
0.793353
0.778141
0.838946
0.799046
0.681227
0.813624
0.795382
0.790039
0.838765
0.814106
0.807332
0.827623
0.795322
0.820902
0.799428
0.822269
0.816091
0.808831
0.598295
0.784921
0.796367
0.800139
0.816265
0.814849
0.828284
0.838241
0.778813
0.800334
0.774223
0.730969
0.787803
0.83504
0.810285
0.801458
0.800602
0.821204
0.787259
0.762988
0.78022
0.795523
0.788364
0.842413
0.809575
0.81696
0.836593
0.833392
0.826441
0.839503
0.75892
0.805132
0.790046
0.83388
0.828619
0.833451
0.814888
0.811284
0.798612
0.819603
0.791007
0.735394
0.83217
0.812999
0.736325
0.783257
0.797907
0.78617
0.799399
0.815357
0.818653
0.783655
0.80268
0.789687
0.798899
0.791777
0.808497
0.750211
0.796944
0.835975
0.836533
0.828284
0.824817
0.822704
0.675425
0.827197
0.817185
0.778076
0.837196
0.659518
0.834741
0.804813
0.819824
0.811372
0.825336
0.818927
0.779749
0.834991
0.775439
0.837794
0.821874
0.79137
0.805129
0.762819
0.80932
0.83965
0.805565
0.835328
0.824111
0.788938
0.748016
0.826465
0.673006
0.824885
0.821175
0.789938
0.839844
0.723229
0.717969
0.831936
0.81813
0.834865
0.835878
0.811029
0.836431
0.839346
0.832149
0.834106
0.826542
0.786495
0.806527
0.817262
0.833634
0.807718
0.654345
0.834978
0.798712
0.810508
0.804977
0.837486
0.831245
0.810868
0.834157
0.818619
0.83959
0.782382
0.830257
0.805164
0.837173
0.834892
0.832467
0.804913
0.826
0.787259
0.763319
0.817232
0.808417
0.820441
0.757358
0.669559
0.789335
0.810342
0.825155
0.814668
0.840332
0.807232
0.787422
0.820748
0.790119
0.83648
0.767111
0.804777
0.827306
0.83697
0.815801
0.835875
0.778265
0.816754
0.833013
0.79585
0.753038
0.817941
0.807544
0.824721
0.83065
0.807292
0.791521
0.818284
0.793394
0.783803
0.836933
0.835964
0.835542
0.756885
0.835834
0.831864
0.839048
0.792528
0.828874
0.823233
0.833192
0.824323
0.771536
0.792449
0.804345
0.646231
0.836646
0.815306
0.81344
0.830621
0.830984
0.815178
0.80712
0.830882
0.839115
0.834056
0.826368
0.809466
0.813108
0.829146
0.822231
0.805382
0.805967
0.809329
0.812041
0.821582
0.800285
0.832649
0.83735
0.788516
0.833289
0.796853
0.785132
0.799207
0.834776
0.815475
0.824386
0.81896
0.83335
0.819638
0.821468
0.83719
0.803962
0.790677
0.783386
0.78624
0.780419
0.582329
0.792763
0.790054
0.822588
0.78912
0.808368
0.820463
0.803997
0.789387
0.801185
0.808133
0.595335
0.838913
0.806567
0.820757
0.788662
0.803681
0.810606
0.771156
0.835272
0.794875
0.837832
0.809569
0.833996
0.75223
0.70828
0.805212
0.812035
0.814892
0.822873
0.710215
0.822318
0.813943
0.790286
0.772116
0.802035
0.806493
0.836747
0.761965
0.825074
0.831823
0.826211
0.777832
0.831914
0.790264
0.584316
0.820225
0.793066
0.781033
0.831564
0.828471
0.818942
0.826306
0.810289
0.838488
0.839898
0.815077
0.808904
0.836141
0.83781
0.828359
0.824758
0.818982
0.836597
0.795219
0.787977
0.835914
0.83751
0.839035
0.819945
0.811178
0.798645
0.828334
0.824308
0.54927
0.826527
0.819618
0.785784
0.816196
0.811264
0.834059
0.832499
0.823704
0.800852
0.830626
0.837607
0.822149
0.830485
0.835649
0.712369
0.786095
0.816807
0.788998
0.714918
0.793455
0.82003
0.831008
0.796267
0.815663
0.769289
0.786904
0.832027
0.813749
0.792753
0.789196
0.769143
0.817144
0.799562
0.799762
0.819276
0.822467
0.82307
0.781765
0.826838
0.803233
0.795502
0.825992
0.829031
0.82412
0.828582
0.790575
0.836236
0.790329
0.839465
0.83347
0.83744
0.835257
0.788645
0.788107
0.816838
0.78368
0.793083
0.799741
0.796639
0.783273
0.819961
0.823962
0.787032
0.836109
0.804398
0.81521
0.820682
0.826765
0.83065
0.826836
0.817779
0.789758
0.836536
0.755856
0.833001
0.784057
0.822261
0.835614
0.83104
0.836024
0.835237
0.822063
0.772747
0.7914
0.818294
0.804565
0.839643
0.774395
0.765677
0.815261
0.81679
0.798854
0.788389
0.816188
0.826278
0.823919
0.674062
0.803657
0.752532
0.771083
0.814166
0.815127
0.814116
0.804787
0.832837
0.785347
0.835909
0.818707
0.748673
0.8269
0.8071
0.830554
0.812733
0.803049
0.785184
0.800628
0.816939
0.834785
0.801607
0.81883
0.820318
0.835239
0.804833
0.817381
0.804332
0.832965
0.784568
0.785235
0.73051
0.830153
0.787776
0.802493
0.791155
0.797761
0.839062
0.815493
0.828408
0.833771
0.828577
0.739166
0.831188
0.769122
0.814089
0.827569
0.805175
0.791287
0.813033
0.8115
0.779086
0.804352
0.738268
0.790033
0.817117
0.740371
0.798003
0.837499
0.789677
0.777695
0.8123
0.835401
0.81343
0.777866
0.825971
0.794053
0.798795
0.819683
0.811574
0.823731
0.821529
0.842094
0.805544
0.830542
0.823927
0.83491
0.835835
0.834698
0.742233
0.801002
0.819455
0.782712
0.835809
0.837471
0.834472
0.817095
0.784697
0.786762
0.82047
0.833158
0.77639
0.835041
0.83159
0.82755
0.786586
0.774866
0.790135
0.755946
0.815501
0.775916
0.822316
0.801553
0.825654
0.786441
0.815578
0.78719
0.823324
0.826451
0.826147
0.813093
0.823002
0.836727
0.840281
0.817341
0.810488
0.830202
0.821461
0.798601
0.8071
0.820381
0.796972
0.841416
0.815314
0.821297
0.827268
0.830322
0.800687
0.734753
0.838628
0.812977
0.813129
0.818835
0.81962
0.829753
0.834873
0.811349
0.824109
0.78383
0.802556
0.81257
0.82764
0.821722
0.815033
0.817468
0.840501
0.823143
0.79277
0.836005
0.82174
0.788317
0.805037
0.840508
0.798715
0.785171
0.804116
0.840702
0.810945
0.818839
0.83034
0.835038
0.835526
0.820391
0.78715
0.824535
0.803894
0.812063
0.83478
0.814839
0.784339
0.776908
0.812566
0.825341
0.798353
0.786101
0.834292
0.816358
0.830324
0.833377
0.785314
0.782189
0.811903
0.834014
0.837405
0.81517
0.812363
0.748153
0.817874
0.807209
0.829767
0.836925
0.836018
0.785272
0.782724
0.816087
0.836955
0.838446
0.833151
0.832529
0.807779
0.809462
0.781575
0.785073
0.829873
0.82122
0.705582
0.793985
0.83566
0.817837
0.785511
0.789059
0.817888
0.80637
0.821059
0.822148
0.823224
0.834614
0.839113
0.80974
0.823079
0.812794
0.808428
0.795358
0.826778
0.808047
0.834611
0.710847
0.822092
0.687631
0.813374
0.836853
0.826172
0.833011
0.839939
0.835815
0.799755
0.81518
0.813438
0.763101
0.836889
0.822715
0.801865
0.822117
0.646247
0.793604
0.816543
0.825311
0.839618
0.784236
0.790797
0.817118
0.834065
0.715655
0.802589
0.811246
0.729335
0.778059
0.816242
0.778245
0.8126
0.787418
0.821181
0.8362
0.647108
0.810524
0.82161
0.799945
0.787548
0.816557
0.807443
0.814643
0.79541
0.818817
0.811397
0.79494
0.814249
0.835643
0.803824
0.784272
0.808265
0.783166
0.791709
0.813103
0.745752
0.805929
0.802666
0.819852
0.831417
0.820664
0.818707
0.702691
0.822665
0.810496
0.808417
0.835276
0.817302
0.818804
0.720428
0.707919
0.834061
0.791846
0.818388
0.826342
0.804635
0.825089
0.703208
0.832447
0.81275
0.832925
0.812032
0.809007
0.815897
0.790959
0.80321
0.811205
0.842365
0.782075
0.788696
0.803695
0.840093
0.831444
0.744175
0.809786
0.813021
0.813025
0.80869
0.839121
0.833755
0.834402
0.834707
0.820353
0.793423
0.771202
0.836666
0.80267
0.815256
0.747855
0.784857
0.796006
0.78577
0.833257
0.723034
0.833042
0.804576
0.834057
0.819964
0.832698
0.831372
0.805304
0.835667
0.836559
0.835928
0.81654
0.834058
0.804378
0.820863
0.794004
0.800957
0.839823
0.724299
0.815791
0.825214
0.816108
0.819358
0.816293
0.827535
0.814014
0.827791
0.786827
0.791628
0.823287
0.819567
0.745357
0.826825
0.789371
0.822024
0.786577
0.813142
0.825321
0.83073
0.837737
0.789154
0.81464
0.817356
0.821532
0.835159
0.759034
0.782971
0.83919
0.782364
0.806534
0.832566
0.835598
0.834736
0.784809
0.796854
0.798566
0.796068
0.765014
0.817343
0.803945
0.817289
0.798774
0.813831
0.814761
0.802012
0.766661
0.804714
0.815674
0.792857
0.831426
0.831343
0.773612
0.830396
0.709849
0.800352
0.736728
0.800935
0.835847
0.821037
0.820528
0.817189
0.829419
0.83502
0.819494
0.831928
0.766816
0.816003
0.808844
0.820592
0.787719
0.838011
0.815355
0.789885
0.835444
0.834513
0.787453
0.833774
0.785926
0.820697
0.819256
0.821658
0.745988
0.827465
0.815708
0.819684
0.819957
0.797904
0.790508
0.797649
0.830171
0.835126
0.83462
0.814914
0.824563
0.833989
0.813745
0.816909
0.799916
0.799945
0.81446
0.833089
0.792659
0.838958
0.820072
0.840699
0.834276
0.837243
0.815886
0.809334
0.835565
0.691791
0.834068
0.729488
0.836468
0.834077
0.818138
0.814242
0.805122
0.816621
0.726288
0.763654
0.799211
0.773998
0.836146
0.788797
0.7916
0.760418
0.784259
0.820641
0.834619
0.839174
0.787935
0.809769
0.820856
0.818693
0.809456
0.81043
0.835749
0.83327
0.817695
0.834857
0.832185
0.838299
0.789387
0.801091
0.775635
0.833213
0.835179
0.835009
0.817239
0.833057
0.814475
0.782819
0.812753
0.78145
0.797939
0.789833
0.840746
0.830479
0.821512
0.837765
0.832142
0.815161
0.834013
0.796679
0.825039
0.812818
0.837338
0.808565
0.787197
0.829138
0.824743
0.836114
0.839057
0.838126
0.783993
0.779073
0.778084
0.830188
0.833539
0.74727
0.801015
0.834765
0.791557
0.81073
0.789488
0.807159
0.824505
0.80852
0.818825
0.790631
0.820436
0.8243
0.828017
0.811857
0.800878
0.821716
0.822647
0.814956
0.835703
0.842828
0.745922
0.833254
0.791524
0.804857
0.840516
0.835654
0.809401
0.836476
0.791214
0.831037
0.804763
0.790078
0.834122
0.809219
0.833239
0.820667
0.83019
0.834307
0.830094
0.798527
0.827473
0.786089
0.832231
0.829874
0.824551
0.809616
0.78708
0.789624
0.834117
0.802857
0.813964
0.78151
0.81001
0.835944
0.832223
0.817773
0.832053
0.834095
0.8003
0.809893
0.824693
0.788311
0.800613
0.818849
0.8204
0.814042
0.795024
0.741348
0.784104
0.828802
0.810825
0.832879
0.792406
0.836964
0.824082
0.84056
0.834545
0.809951
0.836152
0.79233
0.823827
0.799626
0.828358
0.778425
0.812938
0.801355
0.785498
0.810185
0.794758
0.783735
0.790429
0.839511
0.840907
0.817257
0.783527
0.830897
0.785956
0.749646
0.81564
0.829403
0.827131
0.790758
0.789675
0.839342
0.780635
0.824824
0.784776
0.795319
0.811814
0.769972
0.838503
0.81947
0.799214
0.836342
0.838512
0.797761
0.825339
0.815992
0.839041
0.818463
0.806859
0.791622
0.825579
0.841949
0.825553
0.752336
0.792026
0.805691
0.822791
0.834067
0.832509
0.780283
0.833699
0.7943
0.821212
0.824572
0.816444
0.806577
0.8314
0.740614
0.822956
0.775797
0.799511
0.763486
0.790012
0.828076
0.837644
0.796233
0.800516
0.822984
0.805858
0.736918
0.777301
0.798023
0.817491
0.682506
0.805032
0.820236
0.821677
0.815876
0.824233
0.83383
0.716488
0.713298
0.836831
0.817073
0.740238
0.808024
0.826681
0.830384
0.818369
0.773217
0.82136
0.778774
0.8345
0.834309
0.838377
0.813169
0.829192
0.79457
0.822101
0.838634
0.787118
0.798565
0.829995
0.833421
0.792557
0.792738
0.765639
0.718831
0.76964
0.834154
0.803437
0.789886
0.748442
0.78669
0.832913
0.76585
0.797904
0.784711
0.837121
0.808006
0.835181
0.797694
0.813222
0.817358
0.820862
0.812693
0.827633
0.784064
0.834796
0.810268
0.818691
0.831975
0.802705
0.83898
0.821863
0.801996
0.834126
0.784549
0.804514
0.831133
0.822179
0.788417
0.80144
0.817986
0.831584
0.820052
0.832247
0.77089
0.793175
0.783387
0.776796
0.838479
0.800392
0.818052
0.839315
0.813753
0.721709
0.785455
0.817737
0.782053
0.813291
0.790366
0.799882
0.80334
0.831434
0.836287
0.822645
0.777824
0.808017
0.786453
0.813718
0.828715
0.816658
0.807296
0.824784
0.808553
0.816541
0.837313
0.833336
0.833789
0.837941
0.833574
0.811598
0.795376
0.789191
0.788818
0.833643
0.82094
0.795341
0.834588
0.798847
0.837359
0.83412
0.791785
0.777809
0.804735
0.818375
0.833326
0.812371
0.829
0.819301
0.837892
0.826134
0.832659
0.79865
0.817932
0.806146
0.789817
0.806354
0.83821
0.733941
0.640754
0.81668
0.817501
0.832352
0.812531
0.788424
0.784762
0.803556
0.780056
0.812164
0.817472
0.792967
0.830901
0.817694
0.786424
0.80074
0.801507
0.761285
0.831442
0.807367
0.815534
0.778694
0.818678
0.803692
0.785715
0.805357
0.805963
0.80018
0.787113
0.719301
0.835889
0.834995
0.835706
0.823661
0.833094
0.795658
0.832543
0.819132
0.814921
0.76238
0.829879
0.804765
0.80918
0.832459
0.836086
0.835662
0.819873
0.825135
0.835643
0.793719
0.827707
0.834712
0.828045
0.812512
0.792582
0.833341
0.800888
0.799841
0.825319
0.809384
0.839406
0.796826
0.838968
0.834698
0.818429
0.798865
0.836838
0.788762
0.798244
0.806272
0.791564
0.802117
0.800449
0.797355
0.819953
0.782392
0.784728
0.815695
0.817986
0.805876
0.803517
0.823304
0.819442
0.807292
0.834837
0.832001
0.83425
0.785731
0.804284
0.830427
0.787138
0.818832
0.754322
0.81768
0.755539
0.831408
0.817863
0.81812
0.792788
0.786124
0.802693
0.823935
0.804098
0.817237
0.820998
0.813358
0.835188
0.826855
0.822496
0.798411
0.837654
0.803249
0.819276
0.82974
0.795232
0.796499
0.791113
0.830337
0.834801
0.800948
0.818605
0.800876
0.794411
0.77678
0.814079
0.784848
0.830805
0.798317
0.813558
0.818113
0.817784
0.787423
0.814136
0.815776
0.809938
0.822758
0.825684
0.818095
0.806243
0.815282
0.834734
0.819953
0.786124
0.828903
0.788352
0.817205
0.771719
0.794754
0.809865
0.732215
0.785725
0.837618
0.833453
0.78273
0.820545
0.791902
0.763803
0.786321
0.786418
0.79577
0.794364
0.796481
0.828859
0.839089
0.812241
0.832265
0.815813
0.834867
0.820534
0.839633
0.823065
0.801677
0.827124
0.836247
0.815788
0.827185
0.772238
0.83559
0.811216
0.640095
0.820249
0.836383
0.840685
0.827327
0.829218
0.82947
0.804805
0.811509
0.821584
0.832448
0.657994
0.80815
0.767202
0.805307
0.821113
0.779421
0.786506
0.799667
0.794771
0.786927
0.809736
0.816793
0.834394
0.836484
0.790697
0.83678
0.786082
0.817461
0.835957
0.818701
0.817045
0.822455
0.663324
0.793959
0.821961
0.83639
0.794249
0.802035
0.821837
0.82701
0.786696
0.837548
0.797615
0.822687
0.819585
0.811472
0.825788
0.828899
0.835469
0.773043
0.832341
0.816106
0.827254
0.786425
0.82254
0.808184
0.783206
0.79246
0.80569
0.815036
0.820825
0.832704
0.814518
0.760601
0.82588
0.795909
0.793212
0.818082
0.81749
0.790171
0.839416
0.794809
0.798481
0.795639
0.819233
0.788722
0.750792
0.830209
0.809231
0.817463
0.798008
0.772915
0.813178
0.721255
0.832538
0.82089
0.794195
0.787818
0.841956
0.793333
0.789169
0.784962
0.769392
0.805428
0.818464
0.835263
0.791132
0.80375
0.828768
0.81701
0.797511
0.79462
0.812035
0.831689
0.832454
0.79406
0.781116
0.820799
0.839349
0.812622
0.820503
0.817038
0.775734
0.82113
0.825522
0.81329
0.780982
0.83001
0.819504
0.77878
0.820339
0.792112
0.834299
0.833308
0.790157
0.82016
0.814224
0.819767
0.79242
0.82366
0.806499
0.834876
0.831758
0.829868
0.793629
0.800557
0.832248
0.834721
0.806449
0.819722
0.813955
0.793518
0.815205
0.818705
0.788264
0.696896
0.780544
0.810951
0.796902
0.791469
0.784381
0.808885
0.829035
0.782074
0.790099
0.806806
0.787
0.833207
0.791024
0.824351
0.81666
0.785896
0.823757
0.813276
0.823144
0.816241
0.828392
0.79605
0.794514
0.83914
0.777519
0.837112
0.822173
0.807821
0.803256
0.835089
0.817892
0.789048
0.840493
0.772943
0.813834
0.837771
0.77842
0.842908
0.792951
0.819333
0.688442
0.822448
0.788457
0.823226
0.802853
0.782946
0.806857
0.783684
0.796276
0.837345
0.785316
0.815272
0.824095
0.818307
0.833933
0.835455
0.812138
0.765154
0.83631
0.807637
0.835786
0.801236
0.811367
0.825523
0.810481
0.833325
0.817354
0.82138
0.797546
0.819836
0.754558
0.777851
0.836151
0.594784
0.828628
0.828532
0.798867
0.791017
0.809956
0.830982
0.821028
0.827588
0.820765
0.824375
0.818695
0.838085
0.835458
0.787113
0.824814
0.829654
0.815829
0.818836
0.81588
0.794635
0.792407
0.809218
0.82313
0.812378
0.841823
0.786073
0.801769
0.82095
0.807755
0.811551
0.828286
0.794674
0.802584
0.801417
0.811622
0.793374
0.834771
0.771706
0.814158
0.809385
0.810276
0.78419
0.777822
0.826713
0.766754
0.786323
0.83715
0.81553
0.78959
0.786641
0.7877
0.803046
0.837802
0.836949
0.788416
0.810015
0.8128
0.8375
0.831496
0.798579
0.836279
0.805802
0.823137
0.822416
0.835139
0.813398
0.834086
0.832981
0.782558
0.769138
0.814991
0.804079
0.811495
0.69759
0.72248
0.827348
0.833968
0.791159
0.837688
0.816102
0.8281
0.817856
0.788866
0.836841
0.834003
0.819745
0.774679
0.790016
0.834287
0.834017
0.83118
0.784716
0.810624
0.825717
0.834988
0.826956
0.807354
0.809076
0.828735
0.811282
0.80839
0.81829
0.811327
0.817844
0.702559
0.833931
0.817119
0.820952
0.837017
0.783885
0.791405
0.799645
0.786288
0.837169
0.795248
0.821683
0.707859
0.800243
0.812341
0.796474
0.790482
0.810763
0.777706
0.792062
0.817433
0.817425
0.833711
0.790805
0.816507
0.835485
0.805844
0.833764
0.812968
0.825908
0.812476
0.801173
0.831767
0.786527
0.785913
0.81939
0.835884
0.82977
0.815007
0.765859
0.835157
0.824099
0.812892
0.829401
0.832953
0.830521
0.825893
0.788684
0.784515
0.81183
0.788603
0.822148
0.81967
0.785843
0.83783
0.831395
0.834231
0.823312
0.820076
0.787441
0.809723
0.831389
0.79266
0.825391
0.834084
0.809506
0.81973
0.81766
0.825085
0.824203
0.819655
0.78616
0.828549
0.768867
0.700024
0.80436
0.835979
0.787861
0.833683
0.798808
0.767267
0.815252
0.817825
0.830278
0.650475
0.822271
0.826768
0.836169
0.810576
0.838691
0.816861
0.786581
0.810346
0.813271
0.813475
0.783195
0.831626
0.818722
0.793446
0.783969
0.813487
0.807651
0.779381
0.822734
0.835159
0.788288
0.837878
0.795235
0.758985
0.778147
0.815508
0.80067
0.790585
0.766816
0.777664
0.815862
0.811708
0.83017
0.81002
0.835426
0.779211
0.823482
0.790738
0.791212
0.783242
0.827068
0.833224
0.795222
0.797371
0.838253
0.812072
0.826635
0.831051
0.807092
0.819279
0.822617
0.814772
0.836683
0.832327
0.833047
0.816103
0.793866
0.804676
0.807824
0.843488
0.815363
0.800525
0.752026
0.797349
0.821624
0.828812
0.81502
0.827724
0.804221
0.801802
0.809017
0.778026
0.8061
0.79971
0.835393
0.786976
0.795046
0.793718
0.834805
0.820955
0.792584
0.786742
0.773914
0.834569
0.810974
0.798506
0.792102
0.797541
0.790567
0.813309
0.808629
0.783945