/*--------------------------------*- C++ -*----------------------------------*\
  =========                 |
  \\      /  F ield         | OpenFOAM: The Open Source CFD Toolbox
   \\    /   O peration     | Website:  https://openfoam.org
    \\  /    A nd           | Version:  6
     \\/     M anipulation  |
\*---------------------------------------------------------------------------*/
FoamFile
{
    version     2.0;
    format      ascii;
    class       volScalarField;
    location    "0";
    object      p;
}
// * * * * * * * * * * * * * * * * * * * * * * * * * * * * * * * * * * * * * //

dimensions      [0 2 -2 0 0 0 0];

internalField   nonuniform List<scalar> 
13046
(
0.522517
0.508034
0.571485
0.520891
0.559547
0.526331
0.508986
0.52848
0.568414
0.404049
0.417046
0.584727
0.509398
0.500678
0.572828
0.440485
0.5864
0.413335
0.551658
0.546828
0.515707
0.434199
0.586721
0.415728
0.524302
0.525934
0.560488
0.505339
0.496938
0.578405
0.529039
0.49755
0.568129
0.532988
0.557115
0.524006
0.53116
0.556565
0.530796
0.542841
0.567246
0.479669
0.53275
0.548168
0.538851
0.527909
0.544918
0.544257
0.514057
0.510563
0.572589
0.556684
0.557922
0.451009
0.561127
0.440339
0.563876
0.424163
0.501918
0.584529
0.466229
0.511681
0.577844
0.583782
0.453852
0.441809
0.511855
0.423313
0.58151
0.517351
0.426789
0.580059
0.417438
0.497674
0.58504
0.551976
0.555355
0.505793
0.588047
0.480067
0.421448
0.518775
0.526115
0.561855
0.584076
0.446903
0.433388
0.419413
0.583672
0.479133
0.582951
0.389871
0.494289
0.480955
0.470907
0.480201
0.478367
0.580419
0.583792
0.5843
0.416961
0.488068
0.525086
0.549724
0.540868
0.568054
0.457509
0.554687
0.551839
0.564319
0.462421
0.36765
0.58378
0.382624
0.512698
0.507678
0.568385
0.478721
0.483472
0.46008
0.583634
0.470727
0.58193
0.397856
0.405638
0.585334
0.497976
0.480062
0.581922
0.537911
0.568645
0.481112
0.580097
0.396184
0.505931
0.453463
0.476263
0.58295
0.525001
0.494458
0.569435
0.482921
0.536532
0.568769
0.553752
0.558904
0.46104
0.564672
0.466844
0.555678
0.465427
0.502278
0.578007
0.568324
0.48845
0.54447
0.546622
0.437256
0.540282
0.435239
0.570904
0.574088
0.479772
0.533468
0.565137
0.398659
0.58437
0.426868
0.381377
0.583689
0.390128
0.451769
0.467404
0.584981
0.540064
0.458264
0.574198
0.481457
0.562075
0.538702
0.586828
0.444017
0.396246
0.541038
0.46642
0.568837
0.568111
0.48094
0.545395
0.489678
0.53587
0.564999
0.500196
0.577705
0.499797
0.489624
0.577537
0.421225
0.583413
0.460629
0.582046
0.411007
0.500437
0.397638
0.486671
0.580554
0.559761
0.43206
0.556433
0.4994
0.483911
0.587935
0.416715
0.472174
0.395432
0.584182
0.523984
0.557086
0.534752
0.51199
0.49594
0.577215
0.582589
0.404046
0.50736
0.493956
0.507027
0.578499
0.584845
0.41162
0.378206
0.559683
0.430672
0.556038
0.406697
0.492963
0.581551
0.455191
0.537809
0.572937
0.498243
0.478894
0.582625
0.526246
0.406181
0.575547
0.42595
0.537582
0.573272
0.584071
0.41608
0.36789
0.551801
0.56995
0.457197
0.38668
0.582996
0.35708
0.551904
0.517502
0.542487
0.462925
0.463494
0.529949
0.536067
0.573551
0.570618
0.585244
0.472481
0.4156
0.506876
0.480689
0.578673
0.424212
0.526582
0.577858
0.465024
0.469231
0.583377
0.538623
0.5322
0.549231
0.445699
0.534237
0.57398
0.509759
0.469936
0.580018
0.497017
0.493595
0.554619
0.568249
0.449827
0.444479
0.526334
0.575406
0.454731
0.584226
0.469225
0.55772
0.560364
0.469375
0.571955
0.430415
0.545769
0.493929
0.455167
0.581035
0.556833
0.559931
0.449216
0.487093
0.480252
0.451908
0.582562
0.451734
0.585229
0.585671
0.446939
0.405387
0.489892
0.472961
0.582678
0.347066
0.583623
0.351408
0.503747
0.555258
0.541792
0.474718
0.513774
0.576152
0.584128
0.430952
0.467512
0.561136
0.431336
0.564397
0.51752
0.40617
0.578484
0.518787
0.573247
0.475574
0.502826
0.579289
0.517758
0.571705
0.450138
0.585233
0.42057
0.565654
0.42409
0.557507
0.469066
0.500435
0.579753
0.47794
0.534268
0.571776
0.459594
0.552147
0.563416
0.519782
0.515696
0.567239
0.565445
0.432315
0.550141
0.411459
0.471416
0.582175
0.518685
0.40815
0.579726
0.525317
0.576111
0.433787
0.48314
0.488528
0.439955
0.433232
0.582795
0.582707
0.582743
0.353877
0.361623
0.394558
0.58379
0.362097
0.457591
0.52736
0.5705
0.583114
0.419281
0.450372
0.508602
0.503271
0.444374
0.442251
0.582549
0.582341
0.581036
0.467469
0.375253
0.38183
0.583652
0.342689
0.519199
0.546057
0.550592
0.371226
0.365348
0.583292
0.532134
0.462391
0.573809
0.396406
0.450678
0.586522
0.36731
0.582208
0.320241
0.545023
0.563008
0.486182
0.507858
0.546043
0.55699
0.404934
0.586128
0.398342
0.501609
0.544887
0.558953
0.524448
0.545499
0.548727
0.566641
0.420158
0.558657
0.498623
0.556906
0.55202
0.505633
0.544442
0.551469
0.531665
0.434471
0.574587
0.58794
0.587898
0.420792
0.423602
0.420411
0.415264
0.400568
0.470317
0.582993
0.58149
0.524419
0.423049
0.544001
0.566405
0.467328
0.420245
0.538235
0.570222
0.404636
0.582481
0.330312
0.583745
0.3892
0.486529
0.384223
0.584819
0.400998
0.581021
0.355819
0.320186
0.331602
0.580846
0.340766
0.515041
0.444122
0.576284
0.44755
0.581324
0.354845
0.443822
0.480881
0.583394
0.435221
0.585385
0.387548
0.506209
0.56962
0.521306
0.474161
0.582522
0.380524
0.423019
0.568632
0.541335
0.521678
0.426348
0.579771
0.579318
0.3014
0.29686
0.366318
0.583767
0.337585
0.51274
0.567607
0.520677
0.461045
0.378027
0.5821
0.583435
0.364826
0.464416
0.423227
0.584183
0.447921
0.585947
0.427675
0.461861
0.539363
0.425966
0.576981
0.434263
0.498025
0.585868
0.586932
0.459411
0.403906
0.521045
0.517334
0.474348
0.469122
0.576159
0.578744
0.527421
0.472242
0.574869
0.515906
0.434689
0.584483
0.520164
0.416908
0.578299
0.465572
0.397168
0.586673
0.579034
0.42055
0.506718
0.329529
0.581245
0.351827
0.539975
0.534488
0.567964
0.490134
0.568887
0.49706
0.525887
0.525591
0.577142
0.442495
0.579833
0.452022
0.375591
0.581862
0.320672
0.462941
0.385467
0.582554
0.546462
0.565359
0.451363
0.53131
0.412072
0.574803
0.585785
0.428136
0.468791
0.391426
0.355923
0.583368
0.4051
0.357636
0.583758
0.501043
0.450647
0.584441
0.559176
0.554904
0.476121
0.4182
0.584461
0.435664
0.5143
0.434556
0.581099
0.585928
0.454746
0.451935
0.53111
0.577779
0.449785
0.457628
0.542572
0.567834
0.547337
0.566308
0.472188
0.585008
0.437101
0.407327
0.468827
0.459787
0.584522
0.544464
0.563307
0.491647
0.451085
0.5869
0.396118
0.522424
0.488901
0.574248
0.495248
0.535007
0.566144
0.523962
0.434211
0.576131
0.409432
0.585357
0.371183
0.418628
0.585667
0.371708
0.586318
0.446834
0.454973
0.446983
0.549813
0.56602
0.585028
0.358412
0.398569
0.583071
0.474383
0.435899
0.580666
0.346685
0.310674
0.333299
0.317445
0.58147
0.587293
0.413058
0.457878
0.584922
0.425568
0.388222
0.434159
0.438921
0.583989
0.425046
0.584497
0.436125
0.429321
0.483734
0.582972
0.577566
0.538204
0.408814
0.53501
0.562619
0.508098
0.429147
0.49622
0.582344
0.581609
0.429985
0.502064
0.469067
0.586546
0.403073
0.524691
0.43523
0.581102
0.527746
0.458951
0.573829
0.450407
0.505519
0.582406
0.444675
0.5058
0.581778
0.54556
0.556743
0.500932
0.518103
0.460216
0.582018
0.583313
0.48189
0.376459
0.349366
0.583464
0.414076
0.338251
0.582378
0.41862
0.536538
0.571933
0.47417
0.386168
0.58227
0.34331
0.464405
0.585372
0.44871
0.583229
0.391997
0.329779
0.521383
0.557117
0.532334
0.492843
0.50069
0.57727
0.551537
0.450014
0.564279
0.581328
0.452635
0.364032
0.514441
0.434256
0.579482
0.585757
0.442386
0.397957
0.482453
0.497735
0.582311
0.536349
0.561982
0.511754
0.445432
0.372853
0.584233
0.585791
0.462477
0.439505
0.401467
0.393279
0.583673
0.583737
0.387585
0.379899
0.472022
0.527433
0.574345
0.518845
0.450052
0.573601
0.502254
0.530447
0.569777
0.427718
0.356619
0.43311
0.584185
0.353326
0.583092
0.468145
0.485359
0.584135
0.374887
0.36669
0.437157
0.429972
0.584134
0.582772
0.448944
0.525367
0.579699
0.486947
0.515231
0.575251
0.425687
0.586679
0.385567
0.47958
0.516938
0.574102
0.499065
0.524271
0.567854
0.406204
0.585175
0.382679
0.487637
0.484198
0.578447
0.550769
0.414962
0.569211
0.536073
0.439893
0.576478
0.514531
0.578999
0.395046
0.580404
0.315322
0.30859
0.478229
0.51001
0.576842
0.427742
0.584481
0.406042
0.57139
0.423949
0.548519
0.354433
0.58305
0.333459
0.560663
0.557814
0.549731
0.483075
0.553728
0.476066
0.502627
0.534856
0.564146
0.549588
0.555733
0.558243
0.485831
0.559344
0.48301
0.484061
0.51886
0.576387
0.485372
0.523247
0.575469
0.58286
0.427005
0.340891
0.531247
0.47796
0.570637
0.385643
0.435682
0.585271
0.451116
0.445193
0.496468
0.489581
0.58072
0.580582
0.526926
0.488864
0.57181
0.512069
0.451952
0.579968
0.46496
0.499607
0.582778
0.538698
0.521594
0.553691
0.43786
0.496631
0.581948
0.535978
0.560877
0.506734
0.457809
0.517956
0.579237
0.508045
0.461956
0.58
0.538534
0.542046
0.513419
0.560181
0.510423
0.558787
0.548089
0.552421
0.555461
0.501595
0.560213
0.488503
0.519546
0.513691
0.481933
0.485072
0.576439
0.575546
0.585271
0.43315
0.461413
0.5657
0.423437
0.552895
0.587142
0.586731
0.429515
0.437633
0.452524
0.447687
0.555408
0.565864
0.438853
0.537601
0.549562
0.531597
0.43863
0.488308
0.582464
0.538138
0.56837
0.485585
0.503385
0.461598
0.580966
0.47703
0.475469
0.433858
0.586472
0.442141
0.585344
0.459482
0.485847
0.581668
0.362664
0.345781
0.583353
0.567316
0.429338
0.550438
0.542506
0.543086
0.572776
0.430249
0.575768
0.434803
0.42397
0.511914
0.579552
0.516537
0.453664
0.580147
0.552238
0.566283
0.440067
0.539135
0.538962
0.569549
0.576698
0.452198
0.450799
0.538974
0.575767
0.441043
0.458375
0.492713
0.582504
0.541059
0.558947
0.506628
0.413613
0.584395
0.40348
0.551211
0.569716
0.434154
0.503392
0.495388
0.466195
0.463509
0.579153
0.583895
0.584974
0.40945
0.420253
0.423295
0.586332
0.392829
0.414606
0.584794
0.393232
0.467016
0.585854
0.44132
0.518769
0.461064
0.579034
0.514607
0.554472
0.580276
0.517834
0.575245
0.431059
0.564621
0.515915
0.532951
0.569745
0.568084
0.529198
0.520236
0.572571
0.551428
0.530732
0.512826
0.556161
0.554062
0.561727
0.554287
0.552545
0.569783
0.585532
0.584045
0.556355
0.578887
0.531914
0.559794
0.512182
0.536086
0.56139
0.559788
0.55022
0.541891
0.563887
0.579875
0.57055
0.520886
0.541032
0.553771
0.580072
0.545021
0.570702
0.564118
0.552564
0.555094
0.554582
0.52953
0.54766
0.58252
0.550826
0.532388
0.56234
0.535316
0.58025
0.56472
0.559974
0.55937
0.569884
0.547666
0.546087
0.583843
0.520673
0.561689
0.564797
0.558661
0.582102
0.570444
0.561264
0.538514
0.544908
0.544472
0.564169
0.540781
0.54773
0.551348
0.540045
0.566941
0.573573
0.554109
0.558247
0.528378
0.533808
0.553127
0.569821
0.552106
0.511719
0.553642
0.582052
0.533947
0.569395
0.583977
0.549214
0.523749
0.393087
0.5434
0.556223
0.523653
0.536042
0.566292
0.571195
0.566863
0.580083
0.530769
0.50439
0.52799
0.538781
0.545008
0.579382
0.572297
0.558092
0.534906
0.546017
0.542395
0.563968
0.556109
0.513136
0.53538
0.553204
0.552614
0.579804
0.575328
0.565135
0.558942
0.545095
0.534335
0.58573
0.491805
0.563128
0.538143
0.579755
0.530086
0.453168
0.50704
0.573047
0.545651
0.522735
0.541208
0.56255
0.525131
0.569424
0.550551
0.540212
0.569079
0.563357
0.529775
0.576261
0.540304
0.55783
0.529281
0.558046
0.521725
0.578665
0.568437
0.553363
0.565879
0.569791
0.579551
0.551276
0.542849
0.539254
0.566126
0.492046
0.533247
0.529614
0.584196
0.555428
0.574773
0.584833
0.556546
0.586671
0.5798
0.578792
0.528565
0.534858
0.532544
0.579689
0.532089
0.526907
0.483102
0.527807
0.554493
0.559464
0.559548
0.585637
0.567117
0.551495
0.572533
0.558672
0.581146
0.447399
0.565836
0.546398
0.537889
0.580053
0.583831
0.544196
0.554985
0.584286
0.559603
0.505432
0.541864
0.564396
0.579086
0.556137
0.531109
0.559932
0.567988
0.55701
0.553695
0.510806
0.475713
0.538375
0.545967
0.543379
0.536376
0.511487
0.571422
0.553159
0.536256
0.558629
0.535368
0.532433
0.562449
0.562264
0.529263
0.527627
0.502089
0.562368
0.544758
0.542188
0.558102
0.563297
0.533509
0.55795
0.551665
0.528067
0.54007
0.575298
0.55535
0.575496
0.580178
0.581188
0.527018
0.525873
0.554478
0.556261
0.531557
0.53948
0.560395
0.578743
0.569417
0.556206
0.528461
0.548984
0.551528
0.556315
0.561661
0.540421
0.557854
0.552155
0.470239
0.533742
0.54324
0.531174
0.548112
0.56177
0.559299
0.555919
0.564002
0.52749
0.552511
0.551013
0.556878
0.545034
0.559179
0.558271
0.532117
0.51586
0.555178
0.528737
0.523687
0.554473
0.458837
0.526163
0.576627
0.55884
0.538901
0.540367
0.537198
0.559551
0.509467
0.469852
0.528493
0.567029
0.554376
0.568337
0.426522
0.524822
0.578116
0.55165
0.50811
0.514043
0.52889
0.532655
0.525885
0.560823
0.565374
0.536615
0.530937
0.546117
0.54711
0.581807
0.496836
0.566244
0.562241
0.45866
0.54124
0.53181
0.535365
0.561552
0.560867
0.579359
0.552752
0.52565
0.55318
0.551933
0.586973
0.558088
0.579719
0.565959
0.550827
0.559812
0.554762
0.544087
0.532031
0.553677
0.519044
0.560816
0.557027
0.53497
0.530526
0.52607
0.528154
0.515234
0.574642
0.531708
0.544503
0.574714
0.571891
0.53566
0.52809
0.580394
0.535829
0.454588
0.552133
0.536279
0.531272
0.579075
0.553126
0.547598
0.572502
0.535533
0.558506
0.541378
0.558875
0.554273
0.548181
0.395092
0.531013
0.536819
0.536677
0.553432
0.551903
0.567209
0.582086
0.524418
0.543285
0.524054
0.49183
0.528262
0.573829
0.552293
0.538065
0.540384
0.559729
0.528489
0.514321
0.524676
0.537126
0.54081
0.584286
0.548865
0.558775
0.585443
0.573097
0.568634
0.581308
0.511602
0.545496
0.531509
0.584844
0.569429
0.574784
0.55336
0.548878
0.538768
0.561354
0.534641
0.493905
0.574133
0.554844
0.495465
0.529584
0.539622
0.530415
0.540848
0.553227
0.555318
0.526063
0.54318
0.530533
0.541729
0.533015
0.551811
0.507715
0.537382
0.577877
0.580109
0.566493
0.562794
0.560092
0.450814
0.56587
0.553913
0.520221
0.578566
0.439836
0.57983
0.544867
0.556732
0.551215
0.563696
0.561904
0.525246
0.582466
0.521995
0.576677
0.558887
0.539938
0.545399
0.513241
0.548476
0.578629
0.545956
0.585568
0.562077
0.530032
0.502931
0.564105
0.449948
0.562639
0.558147
0.531974
0.583964
0.485586
0.481219
0.57055
0.556437
0.579691
0.584814
0.547926
0.586565
0.583989
0.572341
0.575474
0.563408
0.52798
0.545881
0.555022
0.572913
0.547161
0.436492
0.582351
0.539154
0.547184
0.544431
0.579749
0.582646
0.550565
0.573575
0.557938
0.583127
0.529309
0.568621
0.541808
0.583967
0.584752
0.569395
0.544714
0.566993
0.532118
0.517964
0.555224
0.54843
0.559137
0.510497
0.446962
0.530779
0.550213
0.563131
0.554049
0.579986
0.546659
0.531096
0.560423
0.531808
0.579656
0.515599
0.5413
0.572334
0.576572
0.555247
0.583833
0.523225
0.553722
0.570782
0.539407
0.50992
0.554885
0.546917
0.562006
0.567927
0.546526
0.534298
0.556834
0.533892
0.526435
0.580877
0.584087
0.585565
0.51115
0.585814
0.583028
0.583945
0.532718
0.565698
0.561042
0.581623
0.561942
0.519578
0.533636
0.544174
0.430731
0.583074
0.552046
0.550717
0.569037
0.568039
0.553393
0.543907
0.582316
0.584364
0.576559
0.565099
0.546359
0.556241
0.566337
0.559841
0.545545
0.545767
0.548642
0.552351
0.558327
0.541495
0.577507
0.581369
0.528975
0.573527
0.53889
0.527965
0.541664
0.578613
0.553479
0.563385
0.555557
0.575978
0.557084
0.558129
0.586177
0.543908
0.531618
0.527338
0.528957
0.521079
0.387083
0.534612
0.530359
0.559335
0.52956
0.548377
0.557225
0.540829
0.531797
0.542368
0.547928
0.395023
0.583684
0.555229
0.55768
0.529805
0.553929
0.547503
0.519309
0.584649
0.536934
0.586289
0.549114
0.575178
0.508491
0.474062
0.545242
0.552154
0.55427
0.559769
0.474908
0.559583
0.553457
0.532022
0.520526
0.542035
0.54633
0.582683
0.51185
0.563176
0.570404
0.563784
0.533708
0.570595
0.531503
0.388271
0.557323
0.533947
0.521857
0.568724
0.566807
0.555683
0.563798
0.549166
0.587158
0.583986
0.551656
0.547934
0.583665
0.578733
0.565014
0.56236
0.556366
0.586369
0.539914
0.528585
0.578696
0.575973
0.582799
0.558016
0.5503
0.540794
0.566806
0.561871
0.364138
0.579997
0.556881
0.529028
0.553299
0.559779
0.583139
0.582596
0.561821
0.543288
0.569997
0.578247
0.56882
0.568512
0.574829
0.478252
0.529889
0.556401
0.530588
0.480351
0.534151
0.557215
0.569748
0.536798
0.554618
0.517973
0.540733
0.582389
0.550629
0.53334
0.529904
0.526453
0.555384
0.540017
0.540579
0.567526
0.559604
0.560168
0.523429
0.563679
0.543833
0.537286
0.565662
0.567991
0.570977
0.580864
0.532971
0.577606
0.531064
0.58132
0.577587
0.581601
0.573587
0.530822
0.53021
0.55367
0.524328
0.538233
0.539828
0.542517
0.524993
0.565554
0.561503
0.527905
0.575934
0.551441
0.553419
0.558088
0.564122
0.575457
0.563196
0.555668
0.530462
0.575288
0.512453
0.579485
0.524633
0.558802
0.578554
0.568827
0.584154
0.572589
0.559268
0.513701
0.531943
0.555826
0.545014
0.584883
0.516351
0.517165
0.553636
0.555979
0.548535
0.5289
0.564766
0.564725
0.560738
0.450891
0.548476
0.506761
0.521343
0.551289
0.553624
0.550932
0.541739
0.571687
0.528138
0.58518
0.55572
0.506111
0.564373
0.552669
0.577985
0.549351
0.53958
0.528427
0.543246
0.554108
0.580441
0.541397
0.556813
0.557725
0.574617
0.541689
0.556048
0.544302
0.583174
0.52528
0.527661
0.491962
0.571739
0.528684
0.543261
0.532512
0.538178
0.582063
0.554063
0.566542
0.575138
0.566235
0.500866
0.581954
0.521204
0.557946
0.5649
0.546696
0.53211
0.553275
0.54813
0.525285
0.547222
0.495424
0.53103
0.553888
0.498959
0.539115
0.57584
0.535346
0.53086
0.549152
0.580525
0.552477
0.525563
0.563847
0.534326
0.539123
0.557014
0.551859
0.561044
0.558805
0.583661
0.551453
0.569979
0.560485
0.576777
0.582404
0.581332
0.503512
0.543738
0.558508
0.524651
0.583889
0.577864
0.574063
0.553911
0.526969
0.52797
0.559175
0.570837
0.52154
0.574491
0.573742
0.564677
0.530618
0.525895
0.533886
0.507931
0.552235
0.522633
0.559186
0.541687
0.562482
0.532708
0.552231
0.527731
0.561026
0.562786
0.564483
0.551754
0.55968
0.580069
0.583867
0.554433
0.549887
0.569608
0.558316
0.538739
0.54673
0.557818
0.537512
0.582761
0.553823
0.55796
0.565898
0.568216
0.546506
0.492932
0.587476
0.55496
0.552249
0.55666
0.556566
0.569327
0.578576
0.554187
0.561623
0.524726
0.542575
0.549461
0.564279
0.559125
0.552116
0.555927
0.583783
0.561599
0.543887
0.577244
0.558845
0.531311
0.547383
0.587372
0.535547
0.526115
0.546934
0.588205
0.549595
0.5559
0.569685
0.572589
0.575173
0.557166
0.528082
0.561682
0.543713
0.550601
0.574919
0.551497
0.526357
0.521832
0.551253
0.562483
0.540128
0.530672
0.576749
0.555148
0.581441
0.573416
0.526931
0.522951
0.552031
0.571967
0.578291
0.551992
0.549191
0.503266
0.554528
0.547851
0.58154
0.579101
0.573598
0.530598
0.524106
0.565327
0.587035
0.581879
0.572065
0.575868
0.549296
0.549456
0.5223
0.526001
0.577383
0.558475
0.473134
0.536636
0.585736
0.555388
0.529724
0.530238
0.554192
0.546254
0.572982
0.559228
0.563967
0.577596
0.578889
0.546511
0.560895
0.552564
0.552998
0.531963
0.564111
0.547656
0.580486
0.475797
0.560037
0.460757
0.551722
0.580045
0.563378
0.573389
0.579932
0.578347
0.539507
0.554071
0.550005
0.513802
0.581509
0.560525
0.544456
0.559149
0.432631
0.536333
0.566226
0.56277
0.583535
0.524843
0.532505
0.553993
0.580616
0.480037
0.544229
0.550447
0.489976
0.525623
0.566838
0.526023
0.549372
0.528627
0.572729
0.584796
0.432635
0.561601
0.559518
0.539996
0.529729
0.554285
0.547642
0.55594
0.538475
0.556727
0.550182
0.549023
0.551775
0.575142
0.544762
0.526407
0.547659
0.524042
0.532317
0.550426
0.503296
0.548518
0.542947
0.557403
0.573955
0.559619
0.556875
0.470247
0.569046
0.547074
0.548301
0.5867
0.556594
0.557068
0.484849
0.475348
0.581482
0.535481
0.555988
0.563317
0.544411
0.57095
0.470992
0.575118
0.552133
0.571054
0.551336
0.555921
0.55388
0.532137
0.542744
0.551444
0.583475
0.522734
0.531716
0.540389
0.58489
0.581832
0.500052
0.54893
0.554529
0.565122
0.548863
0.581939
0.57525
0.573982
0.57278
0.55723
0.541841
0.526407
0.581322
0.544127
0.554619
0.502827
0.529684
0.539857
0.528209
0.581309
0.486254
0.577133
0.546441
0.580759
0.558274
0.581463
0.569661
0.555708
0.582128
0.580372
0.586918
0.553334
0.576383
0.545706
0.557866
0.536179
0.541072
0.583595
0.48713
0.552885
0.562335
0.553449
0.55914
0.554966
0.573868
0.550999
0.568319
0.5274
0.533787
0.560238
0.571572
0.501236
0.564494
0.533221
0.559143
0.5283
0.551634
0.562726
0.570608
0.582882
0.530269
0.551712
0.554603
0.559612
0.57529
0.50986
0.527747
0.585046
0.52346
0.547851
0.570242
0.579746
0.584278
0.529221
0.538248
0.539265
0.537378
0.514603
0.554584
0.551692
0.555344
0.539736
0.550481
0.553835
0.543109
0.516631
0.541408
0.554247
0.533504
0.570663
0.569726
0.521598
0.570158
0.476494
0.540815
0.494561
0.54113
0.58366
0.55858
0.558014
0.555879
0.572188
0.579952
0.556514
0.571075
0.516227
0.554827
0.54962
0.558197
0.531081
0.582387
0.555333
0.539541
0.583553
0.573508
0.533288
0.580844
0.526845
0.557694
0.556172
0.55926
0.503512
0.574878
0.553623
0.556754
0.557405
0.539775
0.532377
0.53902
0.568733
0.575404
0.577325
0.554095
0.561955
0.579915
0.559592
0.553678
0.544179
0.540094
0.551143
0.573499
0.533424
0.579435
0.557096
0.581748
0.584206
0.582239
0.552777
0.558725
0.576636
0.46475
0.579779
0.490352
0.582198
0.573584
0.554774
0.55367
0.548324
0.553586
0.489694
0.513512
0.549653
0.521762
0.582755
0.530607
0.534787
0.511766
0.526738
0.558112
0.575046
0.58748
0.529736
0.555814
0.557997
0.556041
0.548855
0.552318
0.579883
0.573067
0.554566
0.578256
0.573009
0.586775
0.531178
0.537734
0.522471
0.571856
0.582732
0.575628
0.555049
0.582005
0.553312
0.524194
0.552105
0.52215
0.541498
0.53095
0.588176
0.581751
0.559469
0.587516
0.572547
0.552223
0.582046
0.53679
0.57296
0.549404
0.581759
0.548688
0.529417
0.568573
0.561677
0.582152
0.581946
0.582122
0.527131
0.523237
0.519726
0.573321
0.573427
0.502874
0.544267
0.574501
0.531973
0.549603
0.531997
0.543848
0.561589
0.545215
0.555637
0.541654
0.557674
0.561442
0.567095
0.55061
0.54179
0.559165
0.559606
0.553172
0.577994
0.586449
0.501667
0.57271
0.532217
0.54439
0.581949
0.574405
0.546119
0.58185
0.532561
0.569495
0.546174
0.535561
0.577245
0.549275
0.571869
0.56325
0.567811
0.585383
0.567938
0.539201
0.565483
0.531709
0.571195
0.581374
0.563707
0.549998
0.530403
0.535239
0.577469
0.543314
0.561184
0.525893
0.551684
0.574587
0.570482
0.55444
0.575275
0.582832
0.54131
0.548799
0.561494
0.530559
0.541002
0.55552
0.56295
0.553108
0.535738
0.4981
0.525592
0.567493
0.550389
0.571638
0.535338
0.580997
0.561088
0.580137
0.5826
0.549016
0.580106
0.536332
0.560683
0.54281
0.572422
0.524364
0.551693
0.544337
0.527971
0.548744
0.536055
0.525669
0.531189
0.586634
0.588936
0.556254
0.527793
0.570183
0.527197
0.503154
0.553554
0.567421
0.566657
0.531468
0.531069
0.58216
0.52642
0.562376
0.528937
0.536128
0.55126
0.523182
0.578799
0.558808
0.539598
0.580918
0.57898
0.53862
0.562393
0.553769
0.585685
0.55596
0.54714
0.533268
0.56317
0.585072
0.562611
0.511192
0.534112
0.546864
0.561338
0.582389
0.583747
0.525701
0.582875
0.536296
0.557921
0.561344
0.553171
0.545919
0.574578
0.498982
0.560738
0.520655
0.536228
0.515989
0.531816
0.566712
0.581853
0.536906
0.54063
0.559837
0.545284
0.496392
0.518436
0.539967
0.564737
0.457792
0.541691
0.562361
0.5585
0.554123
0.562197
0.574664
0.479408
0.47902
0.57738
0.554974
0.497267
0.548535
0.571103
0.567788
0.555506
0.520691
0.56012
0.524279
0.582721
0.575268
0.587434
0.551722
0.567161
0.535875
0.559346
0.579404
0.528412
0.53888
0.568762
0.574794
0.533443
0.535336
0.515651
0.482069
0.51821
0.58476
0.545761
0.533173
0.508308
0.530143
0.57182
0.520904
0.53891
0.529679
0.575612
0.548924
0.583657
0.537801
0.551677
0.558536
0.560158
0.549614
0.564675
0.526822
0.584148
0.561357
0.559532
0.575226
0.542432
0.579707
0.559528
0.547309
0.581019
0.525944
0.545007
0.58177
0.559829
0.529337
0.538139
0.563684
0.581845
0.55735
0.571272
0.518871
0.534264
0.526957
0.518246
0.578916
0.54096
0.554896
0.584618
0.552953
0.483648
0.528802
0.556301
0.527534
0.550222
0.533453
0.540133
0.544681
0.571392
0.582475
0.563582
0.524656
0.548063
0.527316
0.552119
0.566556
0.553843
0.552034
0.565718
0.548509
0.553583
0.576808
0.57503
0.583918
0.57995
0.581125
0.551628
0.535795
0.531616
0.530291
0.582191
0.558819
0.537051
0.581083
0.539288
0.576477
0.571881
0.534795
0.52449
0.545439
0.556838
0.574881
0.54905
0.567008
0.556829
0.583324
0.562969
0.584135
0.539646
0.555466
0.54284
0.530282
0.546286
0.576064
0.492455
0.428267
0.553832
0.56723
0.571543
0.551315
0.530347
0.528265
0.543584
0.526243
0.551824
0.554198
0.534229
0.569445
0.556837
0.530877
0.553927
0.543817
0.519355
0.572339
0.544083
0.552252
0.52286
0.562743
0.540341
0.530954
0.546561
0.546137
0.540146
0.530961
0.482901
0.57436
0.584869
0.577724
0.560663
0.570749
0.536322
0.581886
0.558236
0.559159
0.513577
0.56868
0.541524
0.548572
0.572944
0.581041
0.574024
0.557007
0.56218
0.586203
0.537414
0.569912
0.582481
0.565869
0.551655
0.533454
0.573715
0.545073
0.540354
0.563236
0.550699
0.583711
0.537704
0.584424
0.5847
0.555169
0.539825
0.583961
0.530358
0.538946
0.546081
0.533154
0.543631
0.54123
0.537802
0.557249
0.527775
0.527829
0.553902
0.554899
0.542791
0.54336
0.56073
0.556095
0.547823
0.580165
0.581217
0.581964
0.530086
0.54449
0.582515
0.52847
0.556763
0.506861
0.554482
0.508448
0.569834
0.555787
0.555382
0.533529
0.527165
0.542847
0.561552
0.544062
0.553916
0.557851
0.549962
0.581506
0.563865
0.562434
0.540519
0.577635
0.539899
0.556721
0.581323
0.537313
0.541071
0.532198
0.567855
0.584457
0.537499
0.558558
0.545376
0.530832
0.523069
0.553001
0.527174
0.569409
0.538757
0.55215
0.555481
0.55447
0.530693
0.553049
0.554324
0.546674
0.560979
0.576224
0.555697
0.546732
0.552368
0.579979
0.55751
0.527193
0.570116
0.529742
0.555003
0.519893
0.538826
0.546512
0.493848
0.532627
0.586427
0.575472
0.524203
0.558748
0.53274
0.514048
0.527274
0.528796
0.538789
0.535782
0.538525
0.565979
0.589042
0.550907
0.570365
0.554615
0.582949
0.558317
0.588416
0.560511
0.542219
0.564809
0.574089
0.552732
0.570894
0.52031
0.578037
0.550107
0.425452
0.557106
0.586998
0.587013
0.566431
0.566728
0.568235
0.544664
0.548533
0.562628
0.583696
0.43921
0.548792
0.517099
0.541977
0.558093
0.523899
0.528305
0.539892
0.536131
0.530874
0.5465
0.554971
0.585338
0.576808
0.531284
0.575772
0.529024
0.556492
0.5753
0.557272
0.554845
0.562471
0.442105
0.534801
0.558861
0.577655
0.535707
0.542016
0.558939
0.564217
0.528475
0.582418
0.538066
0.560025
0.55677
0.550262
0.564304
0.566065
0.581007
0.520414
0.571577
0.5533
0.56418
0.530016
0.561886
0.547771
0.525153
0.532572
0.548376
0.551714
0.557812
0.576484
0.553487
0.516557
0.564648
0.53785
0.534783
0.555812
0.557426
0.533457
0.58879
0.535498
0.53868
0.536798
0.556314
0.532285
0.505535
0.569125
0.548297
0.554331
0.538866
0.521135
0.550087
0.482737
0.5832
0.571519
0.535911
0.530875
0.581506
0.538876
0.532336
0.527117
0.517015
0.545451
0.555651
0.579829
0.533659
0.54407
0.565878
0.555076
0.537939
0.535947
0.551261
0.569511
0.582922
0.535169
0.523246
0.557968
0.579455
0.549222
0.558634
0.554688
0.522705
0.558581
0.562708
0.54989
0.526222
0.570032
0.556768
0.52004
0.557268
0.534776
0.574505
0.584531
0.533829
0.557816
0.552231
0.557481
0.533589
0.560722
0.546803
0.581693
0.572764
0.567619
0.536651
0.540946
0.571623
0.583667
0.546041
0.556619
0.550923
0.533939
0.552028
0.555651
0.529188
0.46857
0.53232
0.550643
0.53738
0.532779
0.539849
0.5487
0.570163
0.529468
0.53267
0.54334
0.529942
0.573401
0.531559
0.561732
0.553683
0.527476
0.561195
0.556926
0.560312
0.553322
0.567756
0.537145
0.536036
0.581751
0.523421
0.579703
0.55971
0.544493
0.546913
0.577279
0.555789
0.530081
0.584751
0.519753
0.550494
0.578762
0.523151
0.587506
0.535425
0.556728
0.461292
0.559769
0.530378
0.560105
0.542394
0.523872
0.54629
0.525886
0.536581
0.581428
0.527365
0.553262
0.561549
0.556288
0.583403
0.584908
0.548999
0.51798
0.576307
0.544504
0.580288
0.541378
0.548158
0.562452
0.549417
0.57422
0.554332
0.558382
0.539951
0.558777
0.508312
0.519091
0.578355
0.393351
0.576209
0.5673
0.538795
0.532228
0.549387
0.582353
0.562603
0.564953
0.55812
0.561836
0.555506
0.579431
0.574118
0.530093
0.562862
0.577784
0.552518
0.555608
0.556966
0.535343
0.534203
0.556932
0.560175
0.551786
0.586917
0.528126
0.541885
0.559531
0.547536
0.548288
0.578098
0.53631
0.542447
0.541559
0.551023
0.535025
0.578366
0.52245
0.553717
0.546336
0.549375
0.527558
0.524225
0.564007
0.519783
0.529127
0.579219
0.552082
0.544003
0.529469
0.52918
0.544256
0.579291
0.584735
0.542224
0.546707
0.549736
0.576599
0.579816
0.539168
0.580927
0.545626
0.562741
0.560138
0.578205
0.550307
0.576429
0.578628
0.52789
0.518768
0.553143
0.54578
0.55133
0.466849
0.486455
0.566194
0.574465
0.532794
0.582721
0.553231
0.567515
0.555456
0.530815
0.576316
0.57304
0.556928
0.522632
0.531936
0.584318
0.571807
0.583081
0.526289
0.550385
0.561759
0.575896
0.564486
0.558564
0.550192
0.577998
0.550258
0.547928
0.554958
0.550125
0.555155
0.471643
0.574079
0.555197
0.558307
0.581477
0.525401
0.533073
0.539733
0.535409
0.579164
0.53793
0.561447
0.475635
0.540301
0.551451
0.538496
0.533388
0.560396
0.527655
0.533802
0.55514
0.557434
0.579659
0.538829
0.553265
0.577987
0.547466
0.581561
0.549814
0.564301
0.54906
0.541175
0.582779
0.529222
0.534355
0.556812
0.580434
0.568013
0.551993
0.516397
0.585856
0.561241
0.55237
0.568599
0.582386
0.568983
0.563464
0.529701
0.525248
0.54874
0.530943
0.559009
0.55671
0.528434
0.582407
0.581704
0.579752
0.561638
0.557098
0.530603
0.549161
0.569042
0.533569
0.564627
0.580777
0.549537
0.556747
0.556293
0.568716
0.562049
0.55661
0.529154
0.566955
0.517041
0.470192
0.543889
0.587307
0.528496
0.573721
0.544719
0.516859
0.566753
0.554954
0.581137
0.432732
0.559258
0.563521
0.581142
0.549791
0.582359
0.554051
0.527266
0.547062
0.55177
0.55216
0.523991
0.571802
0.555668
0.53537
0.525362
0.55038
0.558547
0.519952
0.560737
0.577791
0.533001
0.578634
0.536208
0.510633
0.523716
0.552103
0.537355
0.531719
0.515672
0.518361
0.552658
0.548305
0.569575
0.551255
0.578411
0.52372
0.560659
0.531831
0.537393
0.523785
0.563953
0.584573
0.538266
0.538152
0.58892
0.551415
0.563407
0.568076
0.54712
0.557762
0.559473
0.554788
0.582881
0.581692
0.582639
0.555941
0.538337
0.541335
0.547566
0.582626
0.557283
0.541489
0.506562
0.539169
0.558395
0.580116
0.5529
0.578705
0.540823
0.547201
0.548434
0.523322
0.545975
0.540833
0.579054
0.531067
0.536259
0.535091
0.585759
0.559042
0.534367
0.529168
0.520485
0.572226
0.551866
0.543369
0.53558
0.546903
0.531814
0.552286
0.545373
0.529259