/*--------------------------------*- C++ -*----------------------------------*\
  =========                 |
  \\      /  F ield         | OpenFOAM: The Open Source CFD Toolbox
   \\    /   O peration     | Website:  https://openfoam.org
    \\  /    A nd           | Version:  6
     \\/     M anipulation  |
\*---------------------------------------------------------------------------*/
FoamFile
{
    version     2.0;
    format      ascii;
    class       volScalarField;
    location    "0";
    object      p;
}
// * * * * * * * * * * * * * * * * * * * * * * * * * * * * * * * * * * * * * //

dimensions      [0 2 -2 0 0 0 0];

internalField   nonuniform List<scalar> 
145945
(
2.13284e-06
2.13256e-06
2.13261e-06
2.1327e-06
2.1329e-06
2.13303e-06
2.13317e-06
2.13325e-06
2.13329e-06
2.13327e-06
2.13321e-06
2.13309e-06
2.13298e-06
2.1328e-06
2.13275e-06
2.13264e-06
2.13294e-06
2.13256e-06
2.13247e-06
2.13256e-06
2.13271e-06
2.13293e-06
2.13308e-06
2.13323e-06
2.13331e-06
2.13336e-06
2.13333e-06
2.13327e-06
2.13314e-06
2.13302e-06
2.13283e-06
2.13271e-06
2.13257e-06
2.13266e-06
2.13261e-06
2.13256e-06
2.13267e-06
2.13287e-06
2.1331e-06
2.13328e-06
2.13343e-06
2.13352e-06
2.13357e-06
2.13355e-06
2.13348e-06
2.13335e-06
2.1332e-06
2.133e-06
2.13283e-06
2.13268e-06
2.13272e-06
2.1327e-06
2.13271e-06
2.13287e-06
2.13312e-06
2.13337e-06
2.13357e-06
2.13372e-06
2.13382e-06
2.13387e-06
2.13385e-06
2.13378e-06
2.13364e-06
2.13347e-06
2.13326e-06
2.13305e-06
2.13284e-06
2.13281e-06
2.1329e-06
2.13293e-06
2.1331e-06
2.13337e-06
2.13363e-06
2.13384e-06
2.134e-06
2.1341e-06
2.13415e-06
2.13413e-06
2.13405e-06
2.13391e-06
2.13374e-06
2.13352e-06
2.13328e-06
2.13306e-06
2.13301e-06
2.13303e-06
2.13308e-06
2.13328e-06
2.13356e-06
2.13384e-06
2.13405e-06
2.13422e-06
2.13433e-06
2.13437e-06
2.13435e-06
2.13427e-06
2.13413e-06
2.13395e-06
2.13372e-06
2.13347e-06
2.13322e-06
2.13315e-06
2.13317e-06
2.13323e-06
2.13343e-06
2.13372e-06
2.134e-06
2.13422e-06
2.13439e-06
2.13449e-06
2.13454e-06
2.13452e-06
2.13444e-06
2.1343e-06
2.13412e-06
2.13388e-06
2.13362e-06
2.13337e-06
2.13329e-06
2.13325e-06
2.13331e-06
2.13352e-06
2.13382e-06
2.1341e-06
2.13433e-06
2.13449e-06
2.1346e-06
2.13465e-06
2.13463e-06
2.13455e-06
2.13441e-06
2.13422e-06
2.13398e-06
2.13371e-06
2.13345e-06
2.13336e-06
2.13329e-06
2.13336e-06
2.13357e-06
2.13387e-06
2.13415e-06
2.13437e-06
2.13454e-06
2.13465e-06
2.1347e-06
2.13468e-06
2.1346e-06
2.13446e-06
2.13427e-06
2.13403e-06
2.13376e-06
2.1335e-06
2.13341e-06
2.13327e-06
2.13333e-06
2.13355e-06
2.13385e-06
2.13413e-06
2.13435e-06
2.13452e-06
2.13463e-06
2.13468e-06
2.13466e-06
2.13458e-06
2.13444e-06
2.13425e-06
2.13401e-06
2.13374e-06
2.13348e-06
2.13338e-06
2.13321e-06
2.13327e-06
2.13348e-06
2.13378e-06
2.13405e-06
2.13427e-06
2.13444e-06
2.13455e-06
2.1346e-06
2.13458e-06
2.1345e-06
2.13436e-06
2.13417e-06
2.13393e-06
2.13367e-06
2.13341e-06
2.13333e-06
2.13309e-06
2.13315e-06
2.13335e-06
2.13364e-06
2.13391e-06
2.13413e-06
2.1343e-06
2.13441e-06
2.13446e-06
2.13444e-06
2.13436e-06
2.13421e-06
2.13403e-06
2.13379e-06
2.13354e-06
2.13328e-06
2.1332e-06
2.13298e-06
2.13302e-06
2.1332e-06
2.13347e-06
2.13374e-06
2.13395e-06
2.13412e-06
2.13422e-06
2.13427e-06
2.13425e-06
2.13417e-06
2.13403e-06
2.13385e-06
2.13362e-06
2.13339e-06
2.13315e-06
2.13309e-06
2.1328e-06
2.13283e-06
2.133e-06
2.13326e-06
2.13352e-06
2.13372e-06
2.13388e-06
2.13398e-06
2.13403e-06
2.13401e-06
2.13393e-06
2.13379e-06
2.13362e-06
2.1334e-06
2.13318e-06
2.13296e-06
2.13292e-06
2.13275e-06
2.13271e-06
2.13283e-06
2.13305e-06
2.13328e-06
2.13347e-06
2.13362e-06
2.13372e-06
2.13376e-06
2.13374e-06
2.13367e-06
2.13354e-06
2.13339e-06
2.13318e-06
2.133e-06
2.13283e-06
2.13286e-06
2.13264e-06
2.13257e-06
2.13268e-06
2.13284e-06
2.13306e-06
2.13322e-06
2.13337e-06
2.13345e-06
2.1335e-06
2.13348e-06
2.13341e-06
2.13329e-06
2.13315e-06
2.13296e-06
2.13283e-06
2.13268e-06
2.13274e-06
2.13294e-06
2.13266e-06
2.13272e-06
2.13281e-06
2.13301e-06
2.13315e-06
2.13329e-06
2.13336e-06
2.13341e-06
2.13339e-06
2.13333e-06
2.1332e-06
2.13309e-06
2.13292e-06
2.13286e-06
2.13275e-06
2.13304e-06
2.05827e-06
2.05828e-06
2.05862e-06
2.05896e-06
2.05935e-06
2.05967e-06
2.05993e-06
2.06009e-06
2.06017e-06
2.06013e-06
2.06e-06
2.05976e-06
2.05947e-06
2.05911e-06
2.05879e-06
2.05839e-06
2.05836e-06
2.05828e-06
2.05846e-06
2.05884e-06
2.05925e-06
2.05968e-06
2.06002e-06
2.0603e-06
2.06048e-06
2.06055e-06
2.06051e-06
2.06037e-06
2.06012e-06
2.05981e-06
2.05941e-06
2.05902e-06
2.0586e-06
2.05837e-06
2.05862e-06
2.05884e-06
2.05923e-06
2.05969e-06
2.06014e-06
2.06051e-06
2.06081e-06
2.06099e-06
2.06107e-06
2.06103e-06
2.06088e-06
2.06062e-06
2.06028e-06
2.05986e-06
2.05942e-06
2.05898e-06
2.05871e-06
2.05896e-06
2.05925e-06
2.05969e-06
2.06019e-06
2.06067e-06
2.06107e-06
2.06137e-06
2.06157e-06
2.06165e-06
2.06161e-06
2.06145e-06
2.06118e-06
2.06082e-06
2.06038e-06
2.05989e-06
2.05941e-06
2.05906e-06
2.05935e-06
2.05968e-06
2.06014e-06
2.06067e-06
2.06117e-06
2.06158e-06
2.06189e-06
2.06209e-06
2.06218e-06
2.06213e-06
2.06197e-06
2.0617e-06
2.06132e-06
2.06086e-06
2.06035e-06
2.05984e-06
2.05945e-06
2.05967e-06
2.06002e-06
2.06051e-06
2.06107e-06
2.06158e-06
2.062e-06
2.06232e-06
2.06252e-06
2.06261e-06
2.06257e-06
2.0624e-06
2.06212e-06
2.06174e-06
2.06127e-06
2.06074e-06
2.06019e-06
2.05977e-06
2.05993e-06
2.0603e-06
2.06081e-06
2.06137e-06
2.06189e-06
2.06232e-06
2.06264e-06
2.06285e-06
2.06293e-06
2.06289e-06
2.06272e-06
2.06244e-06
2.06205e-06
2.06157e-06
2.06103e-06
2.06047e-06
2.06004e-06
2.06009e-06
2.06048e-06
2.06099e-06
2.06157e-06
2.06209e-06
2.06252e-06
2.06285e-06
2.06306e-06
2.06314e-06
2.0631e-06
2.06293e-06
2.06265e-06
2.06226e-06
2.06177e-06
2.06122e-06
2.06065e-06
2.0602e-06
2.06017e-06
2.06055e-06
2.06107e-06
2.06165e-06
2.06218e-06
2.06261e-06
2.06293e-06
2.06314e-06
2.06323e-06
2.06319e-06
2.06302e-06
2.06273e-06
2.06234e-06
2.06185e-06
2.0613e-06
2.06073e-06
2.06027e-06
2.06013e-06
2.06051e-06
2.06103e-06
2.06161e-06
2.06213e-06
2.06257e-06
2.06289e-06
2.0631e-06
2.06319e-06
2.06315e-06
2.06298e-06
2.06269e-06
2.0623e-06
2.06181e-06
2.06126e-06
2.06069e-06
2.06023e-06
2.06e-06
2.06037e-06
2.06088e-06
2.06145e-06
2.06197e-06
2.0624e-06
2.06272e-06
2.06293e-06
2.06302e-06
2.06298e-06
2.06281e-06
2.06252e-06
2.06214e-06
2.06165e-06
2.06111e-06
2.06054e-06
2.0601e-06
2.05976e-06
2.06012e-06
2.06062e-06
2.06118e-06
2.0617e-06
2.06212e-06
2.06244e-06
2.06265e-06
2.06273e-06
2.06269e-06
2.06252e-06
2.06224e-06
2.06186e-06
2.06138e-06
2.06084e-06
2.06029e-06
2.05987e-06
2.05947e-06
2.05981e-06
2.06028e-06
2.06082e-06
2.06132e-06
2.06174e-06
2.06205e-06
2.06226e-06
2.06234e-06
2.0623e-06
2.06214e-06
2.06186e-06
2.06148e-06
2.06102e-06
2.0605e-06
2.05997e-06
2.05958e-06
2.05911e-06
2.05941e-06
2.05986e-06
2.06038e-06
2.06086e-06
2.06127e-06
2.06157e-06
2.06177e-06
2.06186e-06
2.06181e-06
2.06165e-06
2.06138e-06
2.06102e-06
2.06057e-06
2.06007e-06
2.05957e-06
2.05921e-06
2.05879e-06
2.05902e-06
2.05942e-06
2.05989e-06
2.06035e-06
2.06074e-06
2.06103e-06
2.06122e-06
2.0613e-06
2.06126e-06
2.06111e-06
2.06084e-06
2.0605e-06
2.06007e-06
2.05962e-06
2.05917e-06
2.05888e-06
2.05839e-06
2.0586e-06
2.05898e-06
2.05941e-06
2.05984e-06
2.06019e-06
2.06047e-06
2.06065e-06
2.06073e-06
2.06069e-06
2.06054e-06
2.06029e-06
2.05997e-06
2.05957e-06
2.05917e-06
2.05873e-06
2.05849e-06
2.05836e-06
2.05837e-06
2.05871e-06
2.05906e-06
2.05945e-06
2.05977e-06
2.06004e-06
2.0602e-06
2.06027e-06
2.06023e-06
2.0601e-06
2.05987e-06
2.05958e-06
2.05921e-06
2.05888e-06
2.05849e-06
2.05845e-06
2.00281e-06
2.00409e-06
2.00531e-06
2.00639e-06
2.00736e-06
2.00809e-06
2.00862e-06
2.00894e-06
2.00906e-06
2.00898e-06
2.0087e-06
2.00821e-06
2.00753e-06
2.0066e-06
2.0055e-06
2.00415e-06
2.0028e-06
2.00409e-06
2.00522e-06
2.0064e-06
2.00749e-06
2.00845e-06
2.00918e-06
2.0097e-06
2.01002e-06
2.01015e-06
2.01007e-06
2.00979e-06
2.0093e-06
2.00862e-06
2.0077e-06
2.00659e-06
2.00528e-06
2.00408e-06
2.00531e-06
2.0064e-06
2.00751e-06
2.00856e-06
2.00949e-06
2.0102e-06
2.01072e-06
2.01104e-06
2.01116e-06
2.01108e-06
2.01081e-06
2.01033e-06
2.00966e-06
2.00876e-06
2.00768e-06
2.00645e-06
2.00531e-06
2.00639e-06
2.00749e-06
2.00856e-06
2.0096e-06
2.0105e-06
2.0112e-06
2.01171e-06
2.01202e-06
2.01214e-06
2.01207e-06
2.01179e-06
2.01133e-06
2.01066e-06
2.00979e-06
2.00873e-06
2.00754e-06
2.00638e-06
2.00736e-06
2.00845e-06
2.00949e-06
2.0105e-06
2.01138e-06
2.01207e-06
2.01258e-06
2.01288e-06
2.013e-06
2.01293e-06
2.01266e-06
2.0122e-06
2.01154e-06
2.01069e-06
2.00964e-06
2.00849e-06
2.00735e-06
2.00809e-06
2.00917e-06
2.0102e-06
2.0112e-06
2.01207e-06
2.01276e-06
2.01326e-06
2.01356e-06
2.01368e-06
2.01361e-06
2.01334e-06
2.01288e-06
2.01224e-06
2.01139e-06
2.01036e-06
2.00922e-06
2.00808e-06
2.00862e-06
2.0097e-06
2.01072e-06
2.01171e-06
2.01258e-06
2.01326e-06
2.01375e-06
2.01405e-06
2.01417e-06
2.0141e-06
2.01383e-06
2.01338e-06
2.01274e-06
2.0119e-06
2.01088e-06
2.00975e-06
2.00861e-06
2.00894e-06
2.01002e-06
2.01104e-06
2.01202e-06
2.01288e-06
2.01356e-06
2.01405e-06
2.01436e-06
2.01447e-06
2.0144e-06
2.01414e-06
2.01369e-06
2.01305e-06
2.01221e-06
2.01119e-06
2.01007e-06
2.00893e-06
2.00906e-06
2.01015e-06
2.01116e-06
2.01214e-06
2.013e-06
2.01368e-06
2.01417e-06
2.01447e-06
2.01459e-06
2.01452e-06
2.01425e-06
2.0138e-06
2.01316e-06
2.01233e-06
2.01131e-06
2.01019e-06
2.00906e-06
2.00898e-06
2.01007e-06
2.01108e-06
2.01206e-06
2.01293e-06
2.01361e-06
2.0141e-06
2.0144e-06
2.01452e-06
2.01444e-06
2.01418e-06
2.01373e-06
2.01309e-06
2.01225e-06
2.01123e-06
2.01011e-06
2.00897e-06
2.0087e-06
2.00979e-06
2.01081e-06
2.01179e-06
2.01266e-06
2.01334e-06
2.01383e-06
2.01414e-06
2.01425e-06
2.01418e-06
2.01392e-06
2.01346e-06
2.01282e-06
2.01198e-06
2.01096e-06
2.00983e-06
2.0087e-06
2.00821e-06
2.0093e-06
2.01033e-06
2.01133e-06
2.0122e-06
2.01288e-06
2.01338e-06
2.01369e-06
2.0138e-06
2.01373e-06
2.01346e-06
2.01301e-06
2.01236e-06
2.01151e-06
2.01048e-06
2.00935e-06
2.00821e-06
2.00753e-06
2.00862e-06
2.00966e-06
2.01066e-06
2.01154e-06
2.01224e-06
2.01274e-06
2.01305e-06
2.01316e-06
2.01309e-06
2.01282e-06
2.01236e-06
2.01171e-06
2.01085e-06
2.00981e-06
2.00867e-06
2.00753e-06
2.0066e-06
2.0077e-06
2.00876e-06
2.00979e-06
2.01069e-06
2.01139e-06
2.0119e-06
2.01221e-06
2.01233e-06
2.01225e-06
2.01198e-06
2.01151e-06
2.01085e-06
2.00998e-06
2.00892e-06
2.00774e-06
2.00659e-06
2.0055e-06
2.00659e-06
2.00768e-06
2.00873e-06
2.00965e-06
2.01036e-06
2.01088e-06
2.01119e-06
2.01131e-06
2.01123e-06
2.01096e-06
2.01048e-06
2.00981e-06
2.00892e-06
2.00785e-06
2.00664e-06
2.0055e-06
2.00415e-06
2.00528e-06
2.00645e-06
2.00754e-06
2.00849e-06
2.00922e-06
2.00975e-06
2.01007e-06
2.01019e-06
2.01011e-06
2.00984e-06
2.00935e-06
2.00867e-06
2.00774e-06
2.00664e-06
2.00534e-06
2.00415e-06
2.0028e-06
2.00408e-06
2.00531e-06
2.00638e-06
2.00735e-06
2.00808e-06
2.00861e-06
2.00893e-06
2.00906e-06
2.00897e-06
2.0087e-06
2.00821e-06
2.00753e-06
2.00659e-06
2.0055e-06
2.00415e-06
2.00279e-06
1.949e-06
1.95115e-06
1.9531e-06
1.95493e-06
1.95649e-06
1.95765e-06
1.95849e-06
1.95899e-06
1.95918e-06
1.95905e-06
1.95861e-06
1.95784e-06
1.95676e-06
1.95527e-06
1.95343e-06
1.95131e-06
1.949e-06
1.95115e-06
1.95295e-06
1.95485e-06
1.95665e-06
1.95818e-06
1.95932e-06
1.96014e-06
1.96063e-06
1.96082e-06
1.9607e-06
1.96027e-06
1.95951e-06
1.95844e-06
1.95699e-06
1.95519e-06
1.9531e-06
1.95116e-06
1.9531e-06
1.95485e-06
1.95668e-06
1.95841e-06
1.95988e-06
1.96098e-06
1.96177e-06
1.96224e-06
1.96243e-06
1.96231e-06
1.96189e-06
1.96116e-06
1.96013e-06
1.95874e-06
1.957e-06
1.95499e-06
1.95311e-06
1.95493e-06
1.95665e-06
1.95841e-06
1.96009e-06
1.9615e-06
1.96257e-06
1.96333e-06
1.9638e-06
1.96397e-06
1.96386e-06
1.96345e-06
1.96275e-06
1.96175e-06
1.96041e-06
1.95872e-06
1.95678e-06
1.95495e-06
1.95649e-06
1.95818e-06
1.95987e-06
1.9615e-06
1.96287e-06
1.96391e-06
1.96465e-06
1.9651e-06
1.96528e-06
1.96516e-06
1.96477e-06
1.96409e-06
1.96312e-06
1.96182e-06
1.96018e-06
1.95831e-06
1.95651e-06
1.95765e-06
1.95932e-06
1.96098e-06
1.96257e-06
1.96391e-06
1.96494e-06
1.96566e-06
1.9661e-06
1.96627e-06
1.96616e-06
1.96577e-06
1.96511e-06
1.96415e-06
1.96288e-06
1.96128e-06
1.95945e-06
1.95767e-06
1.95849e-06
1.96014e-06
1.96177e-06
1.96333e-06
1.96465e-06
1.96566e-06
1.96637e-06
1.96681e-06
1.96698e-06
1.96687e-06
1.96649e-06
1.96583e-06
1.96489e-06
1.96364e-06
1.96206e-06
1.96027e-06
1.9585e-06
1.95899e-06
1.96063e-06
1.96224e-06
1.9638e-06
1.9651e-06
1.9661e-06
1.96681e-06
1.96724e-06
1.96741e-06
1.9673e-06
1.96692e-06
1.96627e-06
1.96534e-06
1.9641e-06
1.96253e-06
1.96076e-06
1.959e-06
1.95918e-06
1.96082e-06
1.96243e-06
1.96397e-06
1.96528e-06
1.96627e-06
1.96698e-06
1.96741e-06
1.96757e-06
1.96746e-06
1.96709e-06
1.96644e-06
1.96551e-06
1.96427e-06
1.96272e-06
1.96095e-06
1.9592e-06
1.95905e-06
1.9607e-06
1.96231e-06
1.96386e-06
1.96516e-06
1.96616e-06
1.96687e-06
1.9673e-06
1.96746e-06
1.96736e-06
1.96698e-06
1.96633e-06
1.9654e-06
1.96416e-06
1.9626e-06
1.96083e-06
1.95907e-06
1.95861e-06
1.96027e-06
1.96189e-06
1.96345e-06
1.96477e-06
1.96577e-06
1.96649e-06
1.96692e-06
1.96709e-06
1.96698e-06
1.9666e-06
1.96594e-06
1.96501e-06
1.96376e-06
1.96218e-06
1.96039e-06
1.95863e-06
1.95784e-06
1.95951e-06
1.96116e-06
1.96275e-06
1.96409e-06
1.96511e-06
1.96583e-06
1.96627e-06
1.96644e-06
1.96633e-06
1.96594e-06
1.96528e-06
1.96433e-06
1.96306e-06
1.96146e-06
1.95964e-06
1.95786e-06
1.95676e-06
1.95844e-06
1.96013e-06
1.96175e-06
1.96312e-06
1.96415e-06
1.96489e-06
1.96534e-06
1.96551e-06
1.9654e-06
1.96501e-06
1.96433e-06
1.96336e-06
1.96206e-06
1.96043e-06
1.95857e-06
1.95678e-06
1.95528e-06
1.95699e-06
1.95874e-06
1.96041e-06
1.96182e-06
1.96288e-06
1.96364e-06
1.9641e-06
1.96427e-06
1.96416e-06
1.96376e-06
1.96306e-06
1.96206e-06
1.96073e-06
1.95905e-06
1.95712e-06
1.95529e-06
1.95344e-06
1.95519e-06
1.957e-06
1.95873e-06
1.96018e-06
1.96128e-06
1.96206e-06
1.96254e-06
1.96272e-06
1.9626e-06
1.96218e-06
1.96146e-06
1.96043e-06
1.95905e-06
1.95733e-06
1.95532e-06
1.95345e-06
1.95131e-06
1.9531e-06
1.95499e-06
1.95678e-06
1.95831e-06
1.95945e-06
1.96027e-06
1.96076e-06
1.96095e-06
1.96083e-06
1.96039e-06
1.95964e-06
1.95857e-06
1.95712e-06
1.95532e-06
1.95324e-06
1.95133e-06
1.949e-06
1.95116e-06
1.95311e-06
1.95495e-06
1.95651e-06
1.95767e-06
1.9585e-06
1.95901e-06
1.9592e-06
1.95907e-06
1.95863e-06
1.95786e-06
1.95678e-06
1.95529e-06
1.95345e-06
1.95133e-06
1.94901e-06
1.8967e-06
1.89918e-06
1.90137e-06
1.90352e-06
1.90532e-06
1.90667e-06
1.90765e-06
1.90824e-06
1.90846e-06
1.90831e-06
1.9078e-06
1.9069e-06
1.90563e-06
1.90392e-06
1.90174e-06
1.89937e-06
1.89671e-06
1.89918e-06
1.90123e-06
1.9034e-06
1.9055e-06
1.90728e-06
1.90863e-06
1.9096e-06
1.91018e-06
1.91041e-06
1.91026e-06
1.90975e-06
1.90886e-06
1.90759e-06
1.9059e-06
1.90378e-06
1.9014e-06
1.89919e-06
1.90137e-06
1.9034e-06
1.90554e-06
1.90757e-06
1.90929e-06
1.9106e-06
1.91154e-06
1.91211e-06
1.91232e-06
1.91218e-06
1.91168e-06
1.91082e-06
1.90959e-06
1.90795e-06
1.90591e-06
1.90355e-06
1.90138e-06
1.90352e-06
1.9055e-06
1.90757e-06
1.90954e-06
1.91122e-06
1.9125e-06
1.9134e-06
1.91396e-06
1.91417e-06
1.91403e-06
1.91354e-06
1.91271e-06
1.91151e-06
1.90992e-06
1.90793e-06
1.90565e-06
1.90353e-06
1.90532e-06
1.90728e-06
1.90929e-06
1.91122e-06
1.91285e-06
1.9141e-06
1.91498e-06
1.91552e-06
1.91573e-06
1.9156e-06
1.91512e-06
1.9143e-06
1.91314e-06
1.91159e-06
1.90964e-06
1.90743e-06
1.90533e-06
1.90667e-06
1.90863e-06
1.9106e-06
1.91249e-06
1.9141e-06
1.91532e-06
1.91619e-06
1.91673e-06
1.91693e-06
1.9168e-06
1.91633e-06
1.91553e-06
1.91438e-06
1.91286e-06
1.91095e-06
1.90878e-06
1.90669e-06
1.90765e-06
1.9096e-06
1.91154e-06
1.9134e-06
1.91498e-06
1.91619e-06
1.91705e-06
1.91758e-06
1.91778e-06
1.91765e-06
1.91719e-06
1.91639e-06
1.91526e-06
1.91376e-06
1.91188e-06
1.90975e-06
1.90766e-06
1.90824e-06
1.91018e-06
1.91211e-06
1.91396e-06
1.91552e-06
1.91673e-06
1.91758e-06
1.9181e-06
1.9183e-06
1.91817e-06
1.91771e-06
1.91693e-06
1.9158e-06
1.91431e-06
1.91245e-06
1.91033e-06
1.90825e-06
1.90846e-06
1.91041e-06
1.91232e-06
1.91417e-06
1.91573e-06
1.91693e-06
1.91778e-06
1.9183e-06
1.9185e-06
1.91837e-06
1.91791e-06
1.91713e-06
1.91601e-06
1.91452e-06
1.91266e-06
1.91056e-06
1.90848e-06
1.90831e-06
1.91026e-06
1.91218e-06
1.91403e-06
1.9156e-06
1.9168e-06
1.91765e-06
1.91817e-06
1.91837e-06
1.91824e-06
1.91778e-06
1.917e-06
1.91587e-06
1.91439e-06
1.91252e-06
1.91041e-06
1.90833e-06
1.9078e-06
1.90975e-06
1.91168e-06
1.91354e-06
1.91512e-06
1.91633e-06
1.91719e-06
1.91771e-06
1.91791e-06
1.91778e-06
1.91732e-06
1.91653e-06
1.9154e-06
1.9139e-06
1.91202e-06
1.90989e-06
1.90781e-06
1.9069e-06
1.90886e-06
1.91082e-06
1.91271e-06
1.9143e-06
1.91553e-06
1.91639e-06
1.91693e-06
1.91713e-06
1.917e-06
1.91653e-06
1.91573e-06
1.91459e-06
1.91307e-06
1.91116e-06
1.909e-06
1.90691e-06
1.90563e-06
1.90759e-06
1.90959e-06
1.91151e-06
1.91314e-06
1.91438e-06
1.91526e-06
1.9158e-06
1.91601e-06
1.91587e-06
1.9154e-06
1.91459e-06
1.91342e-06
1.91188e-06
1.90994e-06
1.90774e-06
1.90564e-06
1.90392e-06
1.9059e-06
1.90795e-06
1.90992e-06
1.91159e-06
1.91286e-06
1.91376e-06
1.91432e-06
1.91453e-06
1.91439e-06
1.9139e-06
1.91307e-06
1.91188e-06
1.91029e-06
1.90831e-06
1.90604e-06
1.90393e-06
1.90175e-06
1.90378e-06
1.90591e-06
1.90793e-06
1.90965e-06
1.91095e-06
1.91188e-06
1.91245e-06
1.91266e-06
1.91252e-06
1.91202e-06
1.91117e-06
1.90994e-06
1.90831e-06
1.90628e-06
1.90393e-06
1.90176e-06
1.89937e-06
1.9014e-06
1.90355e-06
1.90565e-06
1.90743e-06
1.90878e-06
1.90975e-06
1.91033e-06
1.91056e-06
1.91041e-06
1.90989e-06
1.909e-06
1.90774e-06
1.90604e-06
1.90393e-06
1.90156e-06
1.89938e-06
1.89671e-06
1.89919e-06
1.90138e-06
1.90353e-06
1.90533e-06
1.90669e-06
1.90766e-06
1.90825e-06
1.90848e-06
1.90833e-06
1.90781e-06
1.90691e-06
1.90564e-06
1.90393e-06
1.90175e-06
1.89938e-06
1.89671e-06
1.84851e-06
1.85109e-06
1.85333e-06
1.8556e-06
1.85746e-06
1.85889e-06
1.85991e-06
1.86053e-06
1.86077e-06
1.86061e-06
1.86006e-06
1.85911e-06
1.85778e-06
1.856e-06
1.8537e-06
1.85127e-06
1.8485e-06
1.85109e-06
1.85322e-06
1.85546e-06
1.85767e-06
1.85954e-06
1.86097e-06
1.86199e-06
1.86262e-06
1.86285e-06
1.86269e-06
1.86215e-06
1.8612e-06
1.85986e-06
1.85808e-06
1.85584e-06
1.85338e-06
1.85108e-06
1.85333e-06
1.85546e-06
1.85771e-06
1.85986e-06
1.86168e-06
1.86307e-06
1.86407e-06
1.86467e-06
1.8649e-06
1.86475e-06
1.86421e-06
1.86329e-06
1.86199e-06
1.86025e-06
1.85808e-06
1.85561e-06
1.85333e-06
1.8556e-06
1.85767e-06
1.85986e-06
1.86194e-06
1.86372e-06
1.86509e-06
1.86606e-06
1.86665e-06
1.86688e-06
1.86673e-06
1.86621e-06
1.86531e-06
1.86403e-06
1.86233e-06
1.86022e-06
1.85781e-06
1.85559e-06
1.85746e-06
1.85954e-06
1.86168e-06
1.86372e-06
1.86547e-06
1.8668e-06
1.86776e-06
1.86834e-06
1.86856e-06
1.86841e-06
1.8679e-06
1.86702e-06
1.86576e-06
1.8641e-06
1.86203e-06
1.85967e-06
1.85746e-06
1.85889e-06
1.86097e-06
1.86307e-06
1.86509e-06
1.8668e-06
1.86812e-06
1.86906e-06
1.86964e-06
1.86986e-06
1.86971e-06
1.86921e-06
1.86834e-06
1.8671e-06
1.86546e-06
1.86342e-06
1.8611e-06
1.85888e-06
1.85991e-06
1.86199e-06
1.86406e-06
1.86606e-06
1.86776e-06
1.86906e-06
1.86999e-06
1.87056e-06
1.87078e-06
1.87063e-06
1.87013e-06
1.86927e-06
1.86805e-06
1.86643e-06
1.86441e-06
1.86212e-06
1.8599e-06
1.86053e-06
1.86262e-06
1.86467e-06
1.86665e-06
1.86834e-06
1.86964e-06
1.87056e-06
1.87113e-06
1.87134e-06
1.8712e-06
1.8707e-06
1.86985e-06
1.86863e-06
1.86702e-06
1.86501e-06
1.86275e-06
1.86052e-06
1.86077e-06
1.86285e-06
1.8649e-06
1.86688e-06
1.86856e-06
1.86986e-06
1.87078e-06
1.87134e-06
1.87155e-06
1.87141e-06
1.87092e-06
1.87006e-06
1.86885e-06
1.86724e-06
1.86524e-06
1.86298e-06
1.86076e-06
1.86061e-06
1.86269e-06
1.86475e-06
1.86673e-06
1.86841e-06
1.86971e-06
1.87063e-06
1.8712e-06
1.87141e-06
1.87127e-06
1.87077e-06
1.86992e-06
1.8687e-06
1.86709e-06
1.86509e-06
1.86282e-06
1.8606e-06
1.86006e-06
1.86215e-06
1.86421e-06
1.86621e-06
1.8679e-06
1.86921e-06
1.87013e-06
1.8707e-06
1.87092e-06
1.87077e-06
1.87027e-06
1.86942e-06
1.86819e-06
1.86657e-06
1.86455e-06
1.86228e-06
1.86006e-06
1.85911e-06
1.8612e-06
1.86329e-06
1.86531e-06
1.86702e-06
1.86834e-06
1.86927e-06
1.86985e-06
1.87006e-06
1.86992e-06
1.86942e-06
1.86855e-06
1.86731e-06
1.86568e-06
1.86364e-06
1.86133e-06
1.85911e-06
1.85778e-06
1.85986e-06
1.86199e-06
1.86403e-06
1.86576e-06
1.8671e-06
1.86805e-06
1.86863e-06
1.86885e-06
1.8687e-06
1.86819e-06
1.86731e-06
1.86606e-06
1.8644e-06
1.86234e-06
1.85999e-06
1.85777e-06
1.856e-06
1.85808e-06
1.86025e-06
1.86233e-06
1.8641e-06
1.86546e-06
1.86643e-06
1.86702e-06
1.86724e-06
1.8671e-06
1.86657e-06
1.86568e-06
1.8644e-06
1.86271e-06
1.86061e-06
1.85821e-06
1.856e-06
1.8537e-06
1.85584e-06
1.85808e-06
1.86022e-06
1.86203e-06
1.86342e-06
1.86441e-06
1.86501e-06
1.86524e-06
1.86509e-06
1.86456e-06
1.86364e-06
1.86234e-06
1.86061e-06
1.85845e-06
1.85598e-06
1.85369e-06
1.85127e-06
1.85338e-06
1.85561e-06
1.85781e-06
1.85967e-06
1.8611e-06
1.86213e-06
1.86275e-06
1.86298e-06
1.86283e-06
1.86228e-06
1.86133e-06
1.85999e-06
1.85821e-06
1.85598e-06
1.85353e-06
1.85126e-06
1.8485e-06
1.85108e-06
1.85333e-06
1.85559e-06
1.85746e-06
1.85888e-06
1.8599e-06
1.86052e-06
1.86076e-06
1.8606e-06
1.86006e-06
1.85911e-06
1.85777e-06
1.856e-06
1.85369e-06
1.85126e-06
1.8485e-06
1.80423e-06
1.80673e-06
1.80891e-06
1.81116e-06
1.81299e-06
1.81441e-06
1.81543e-06
1.81604e-06
1.81628e-06
1.81612e-06
1.81557e-06
1.81463e-06
1.8133e-06
1.81156e-06
1.80927e-06
1.80691e-06
1.80423e-06
1.80673e-06
1.80882e-06
1.81101e-06
1.81321e-06
1.81506e-06
1.81649e-06
1.81751e-06
1.81814e-06
1.81837e-06
1.81821e-06
1.81766e-06
1.81671e-06
1.81537e-06
1.8136e-06
1.81137e-06
1.80897e-06
1.80672e-06
1.80891e-06
1.81101e-06
1.81324e-06
1.81538e-06
1.8172e-06
1.8186e-06
1.8196e-06
1.82021e-06
1.82044e-06
1.82029e-06
1.81975e-06
1.81882e-06
1.81751e-06
1.81577e-06
1.8136e-06
1.81115e-06
1.80891e-06
1.81116e-06
1.81321e-06
1.81538e-06
1.81747e-06
1.81926e-06
1.82064e-06
1.82162e-06
1.82222e-06
1.82245e-06
1.8223e-06
1.82177e-06
1.82086e-06
1.81956e-06
1.81785e-06
1.81574e-06
1.81334e-06
1.81115e-06
1.81299e-06
1.81506e-06
1.8172e-06
1.81926e-06
1.82102e-06
1.82238e-06
1.82335e-06
1.82394e-06
1.82417e-06
1.82402e-06
1.82349e-06
1.8226e-06
1.82132e-06
1.81964e-06
1.81755e-06
1.81519e-06
1.81298e-06
1.81441e-06
1.81649e-06
1.8186e-06
1.82064e-06
1.82238e-06
1.82372e-06
1.82468e-06
1.82527e-06
1.82549e-06
1.82534e-06
1.82482e-06
1.82394e-06
1.82267e-06
1.82101e-06
1.81895e-06
1.81662e-06
1.8144e-06
1.81543e-06
1.81751e-06
1.8196e-06
1.82162e-06
1.82335e-06
1.82468e-06
1.82563e-06
1.82621e-06
1.82643e-06
1.82629e-06
1.82577e-06
1.82489e-06
1.82364e-06
1.82199e-06
1.81994e-06
1.81764e-06
1.81542e-06
1.81604e-06
1.81813e-06
1.82021e-06
1.82222e-06
1.82394e-06
1.82527e-06
1.82621e-06
1.82679e-06
1.82701e-06
1.82687e-06
1.82635e-06
1.82548e-06
1.82423e-06
1.82259e-06
1.82055e-06
1.81826e-06
1.81603e-06
1.81628e-06
1.81837e-06
1.82044e-06
1.82245e-06
1.82417e-06
1.82549e-06
1.82643e-06
1.82701e-06
1.82723e-06
1.82708e-06
1.82657e-06
1.8257e-06
1.82446e-06
1.82282e-06
1.82078e-06
1.8185e-06
1.81627e-06
1.81612e-06
1.81821e-06
1.82029e-06
1.8223e-06
1.82402e-06
1.82534e-06
1.82629e-06
1.82687e-06
1.82708e-06
1.82694e-06
1.82643e-06
1.82555e-06
1.82431e-06
1.82267e-06
1.82063e-06
1.81834e-06
1.81611e-06
1.81557e-06
1.81766e-06
1.81975e-06
1.82177e-06
1.82349e-06
1.82482e-06
1.82577e-06
1.82635e-06
1.82657e-06
1.82643e-06
1.82591e-06
1.82504e-06
1.82378e-06
1.82214e-06
1.82009e-06
1.81779e-06
1.81557e-06
1.81463e-06
1.81671e-06
1.81882e-06
1.82086e-06
1.8226e-06
1.82394e-06
1.82489e-06
1.82548e-06
1.8257e-06
1.82555e-06
1.82504e-06
1.82415e-06
1.82289e-06
1.82123e-06
1.81917e-06
1.81684e-06
1.81462e-06
1.8133e-06
1.81537e-06
1.81751e-06
1.81956e-06
1.82132e-06
1.82267e-06
1.82364e-06
1.82423e-06
1.82446e-06
1.82431e-06
1.82378e-06
1.82289e-06
1.82162e-06
1.81994e-06
1.81785e-06
1.8155e-06
1.81329e-06
1.81156e-06
1.81361e-06
1.81577e-06
1.81785e-06
1.81964e-06
1.82101e-06
1.82199e-06
1.82259e-06
1.82282e-06
1.82267e-06
1.82214e-06
1.82123e-06
1.81994e-06
1.81823e-06
1.81612e-06
1.81374e-06
1.81155e-06
1.80927e-06
1.81137e-06
1.8136e-06
1.81574e-06
1.81755e-06
1.81895e-06
1.81994e-06
1.82055e-06
1.82078e-06
1.82063e-06
1.82009e-06
1.81917e-06
1.81786e-06
1.81612e-06
1.81396e-06
1.81151e-06
1.80926e-06
1.80691e-06
1.80897e-06
1.81115e-06
1.81334e-06
1.81519e-06
1.81662e-06
1.81764e-06
1.81826e-06
1.8185e-06
1.81834e-06
1.81779e-06
1.81684e-06
1.8155e-06
1.81374e-06
1.81151e-06
1.80912e-06
1.8069e-06
1.80423e-06
1.80672e-06
1.8089e-06
1.81115e-06
1.81298e-06
1.8144e-06
1.81542e-06
1.81603e-06
1.81627e-06
1.81611e-06
1.81557e-06
1.81462e-06
1.81329e-06
1.81155e-06
1.80926e-06
1.8069e-06
1.80422e-06
1.76325e-06
1.76556e-06
1.76759e-06
1.76971e-06
1.77142e-06
1.77277e-06
1.77373e-06
1.77432e-06
1.77454e-06
1.77439e-06
1.77387e-06
1.77298e-06
1.77171e-06
1.77008e-06
1.76791e-06
1.76572e-06
1.76325e-06
1.76556e-06
1.76751e-06
1.76956e-06
1.77163e-06
1.77338e-06
1.77474e-06
1.77572e-06
1.77631e-06
1.77654e-06
1.77639e-06
1.77586e-06
1.77495e-06
1.77367e-06
1.77201e-06
1.76989e-06
1.76765e-06
1.76556e-06
1.76759e-06
1.76956e-06
1.77166e-06
1.77369e-06
1.77542e-06
1.77676e-06
1.77772e-06
1.77831e-06
1.77853e-06
1.77838e-06
1.77786e-06
1.77697e-06
1.77571e-06
1.77406e-06
1.772e-06
1.76969e-06
1.76758e-06
1.76971e-06
1.77163e-06
1.77369e-06
1.77568e-06
1.77739e-06
1.77872e-06
1.77967e-06
1.78025e-06
1.78047e-06
1.78032e-06
1.77981e-06
1.77893e-06
1.77768e-06
1.77604e-06
1.77403e-06
1.77175e-06
1.7697e-06
1.77142e-06
1.77338e-06
1.77542e-06
1.77739e-06
1.77909e-06
1.7804e-06
1.78134e-06
1.78192e-06
1.78213e-06
1.78199e-06
1.78148e-06
1.78061e-06
1.77937e-06
1.77775e-06
1.77575e-06
1.7735e-06
1.77141e-06
1.77277e-06
1.77474e-06
1.77676e-06
1.77872e-06
1.7804e-06
1.7817e-06
1.78264e-06
1.78321e-06
1.78342e-06
1.78328e-06
1.78277e-06
1.78191e-06
1.78069e-06
1.77908e-06
1.77709e-06
1.77486e-06
1.77276e-06
1.77373e-06
1.77571e-06
1.77772e-06
1.77967e-06
1.78134e-06
1.78264e-06
1.78356e-06
1.78413e-06
1.78434e-06
1.7842e-06
1.7837e-06
1.78284e-06
1.78162e-06
1.78002e-06
1.77805e-06
1.77584e-06
1.77372e-06
1.77432e-06
1.77631e-06
1.7783e-06
1.78025e-06
1.78192e-06
1.78321e-06
1.78413e-06
1.7847e-06
1.78491e-06
1.78477e-06
1.78427e-06
1.78341e-06
1.7822e-06
1.7806e-06
1.77863e-06
1.77643e-06
1.77431e-06
1.77454e-06
1.77654e-06
1.77853e-06
1.78047e-06
1.78213e-06
1.78342e-06
1.78434e-06
1.78491e-06
1.78512e-06
1.78498e-06
1.78448e-06
1.78363e-06
1.78242e-06
1.78082e-06
1.77885e-06
1.77666e-06
1.77453e-06
1.77439e-06
1.77639e-06
1.77838e-06
1.78032e-06
1.78199e-06
1.78328e-06
1.7842e-06
1.78477e-06
1.78498e-06
1.78484e-06
1.78434e-06
1.78348e-06
1.78227e-06
1.78068e-06
1.77871e-06
1.77651e-06
1.77438e-06
1.77387e-06
1.77586e-06
1.77786e-06
1.77981e-06
1.78148e-06
1.78277e-06
1.7837e-06
1.78427e-06
1.78448e-06
1.78434e-06
1.78384e-06
1.78298e-06
1.78176e-06
1.78016e-06
1.77819e-06
1.77598e-06
1.77386e-06
1.77298e-06
1.77495e-06
1.77697e-06
1.77893e-06
1.78061e-06
1.78191e-06
1.78284e-06
1.78341e-06
1.78363e-06
1.78348e-06
1.78298e-06
1.78212e-06
1.78089e-06
1.77929e-06
1.7773e-06
1.77508e-06
1.77297e-06
1.77171e-06
1.77367e-06
1.77571e-06
1.77768e-06
1.77937e-06
1.78069e-06
1.78162e-06
1.7822e-06
1.78242e-06
1.78227e-06
1.78176e-06
1.78089e-06
1.77966e-06
1.77804e-06
1.77604e-06
1.77379e-06
1.7717e-06
1.77008e-06
1.77201e-06
1.77406e-06
1.77604e-06
1.77775e-06
1.77908e-06
1.78002e-06
1.78061e-06
1.78083e-06
1.78068e-06
1.78016e-06
1.77929e-06
1.77804e-06
1.77641e-06
1.7744e-06
1.77213e-06
1.77008e-06
1.76792e-06
1.76989e-06
1.772e-06
1.77403e-06
1.77575e-06
1.77709e-06
1.77805e-06
1.77863e-06
1.77886e-06
1.77871e-06
1.77819e-06
1.7773e-06
1.77605e-06
1.7744e-06
1.77234e-06
1.77002e-06
1.76791e-06
1.76572e-06
1.76765e-06
1.76969e-06
1.77175e-06
1.7735e-06
1.77486e-06
1.77584e-06
1.77643e-06
1.77666e-06
1.77651e-06
1.77598e-06
1.77508e-06
1.77379e-06
1.77213e-06
1.77002e-06
1.7678e-06
1.76572e-06
1.76325e-06
1.76555e-06
1.76758e-06
1.7697e-06
1.77141e-06
1.77276e-06
1.77372e-06
1.77431e-06
1.77453e-06
1.77438e-06
1.77386e-06
1.77297e-06
1.7717e-06
1.77007e-06
1.76791e-06
1.76572e-06
1.76324e-06
1.72515e-06
1.72722e-06
1.72905e-06
1.73099e-06
1.73255e-06
1.73378e-06
1.73466e-06
1.7352e-06
1.73541e-06
1.73527e-06
1.73479e-06
1.73398e-06
1.73281e-06
1.73133e-06
1.72935e-06
1.72737e-06
1.72514e-06
1.72722e-06
1.72899e-06
1.73084e-06
1.73274e-06
1.73434e-06
1.7356e-06
1.73649e-06
1.73705e-06
1.73726e-06
1.73711e-06
1.73663e-06
1.73579e-06
1.73461e-06
1.73309e-06
1.73115e-06
1.72912e-06
1.72722e-06
1.72905e-06
1.73084e-06
1.73276e-06
1.73463e-06
1.73622e-06
1.73746e-06
1.73835e-06
1.73889e-06
1.7391e-06
1.73896e-06
1.73848e-06
1.73766e-06
1.73649e-06
1.73497e-06
1.73307e-06
1.73096e-06
1.72904e-06
1.73099e-06
1.73274e-06
1.73463e-06
1.73646e-06
1.73805e-06
1.73928e-06
1.74016e-06
1.7407e-06
1.74091e-06
1.74077e-06
1.74029e-06
1.73947e-06
1.73831e-06
1.7368e-06
1.73494e-06
1.73285e-06
1.73098e-06
1.73255e-06
1.73434e-06
1.73622e-06
1.73805e-06
1.73962e-06
1.74085e-06
1.74173e-06
1.74226e-06
1.74247e-06
1.74233e-06
1.74186e-06
1.74104e-06
1.73989e-06
1.73838e-06
1.73653e-06
1.73445e-06
1.73253e-06
1.73378e-06
1.7356e-06
1.73746e-06
1.73928e-06
1.74085e-06
1.74207e-06
1.74294e-06
1.74348e-06
1.74368e-06
1.74354e-06
1.74307e-06
1.74226e-06
1.74111e-06
1.73961e-06
1.73777e-06
1.73571e-06
1.73377e-06
1.73466e-06
1.73649e-06
1.73835e-06
1.74016e-06
1.74173e-06
1.74294e-06
1.74381e-06
1.74434e-06
1.74455e-06
1.74441e-06
1.74394e-06
1.74313e-06
1.74199e-06
1.74049e-06
1.73865e-06
1.7366e-06
1.73465e-06
1.7352e-06
1.73705e-06
1.73889e-06
1.7407e-06
1.74226e-06
1.74348e-06
1.74435e-06
1.74488e-06
1.74508e-06
1.74495e-06
1.74447e-06
1.74367e-06
1.74253e-06
1.74104e-06
1.7392e-06
1.73716e-06
1.73519e-06
1.73541e-06
1.73726e-06
1.7391e-06
1.74091e-06
1.74247e-06
1.74368e-06
1.74455e-06
1.74508e-06
1.74528e-06
1.74515e-06
1.74468e-06
1.74387e-06
1.74273e-06
1.74124e-06
1.7394e-06
1.73737e-06
1.7354e-06
1.73527e-06
1.73711e-06