/*--------------------------------*- C++ -*----------------------------------*\
  =========                 |
  \\      /  F ield         | OpenFOAM: The Open Source CFD Toolbox
   \\    /   O peration     | Website:  https://openfoam.org
    \\  /    A nd           | Version:  6
     \\/     M anipulation  |
\*---------------------------------------------------------------------------*/
FoamFile
{
    version     2.0;
    format      ascii;
    class       volVectorField;
    location    "0";
    object      U_rec;
}
// * * * * * * * * * * * * * * * * * * * * * * * * * * * * * * * * * * * * * //

dimensions      [0 1 -1 0 0 0 0];

internalField   nonuniform List<vector> 
13046
(
(-0.692293 0.230929 0)
(-0.875725 -0.223765 -1.21264e-20)
(-0.37491 -0.190207 -2.67743e-20)
(-0.683372 0.111251 0)
(-0.342475 -0.0841365 -2.4585e-20)
(-0.7601 -0.252369 0)
(-0.745571 0.14789 3.68188e-21)
(-0.813011 -0.298386 6.14381e-21)
(-0.301961 -0.0704777 -2.68675e-20)
(-1.63245 0.729028 1.12846e-20)
(-1.34359 -0.535758 0)
(0.00230729 -0.0486113 1.74187e-20)
(-0.883188 0.310859 -1.1824e-20)
(-0.983856 -0.311177 -1.87376e-20)
(-0.265514 -0.152675 1.45936e-20)
(-1.53469 0.803664 -1.51034e-20)
(-0.0671113 -0.109909 4.17124e-20)
(-1.40934 -0.432586 8.52819e-21)
(-0.423007 0.0320446 0)
(-0.600939 -0.241809 -1.31838e-20)
(-0.701117 -0.0229645 3.79532e-20)
(-1.55615 0.794071 -6.27039e-21)
(-0.0496537 -0.0952285 -5.57224e-20)
(-1.39709 -0.455396 0)
(-0.611907 0.117399 1.54217e-20)
(-0.762954 -0.192728 -2.98853e-20)
(-0.401946 -0.150004 0)
(-0.895365 0.355429 -2.16609e-20)
(-1.01481 -0.303881 5.4958e-21)
(-0.271949 -0.174877 -2.53994e-20)
(-0.698819 0.261798 0)
(-0.908427 -0.202459 0)
(-0.386134 -0.220518 2.72424e-20)
(-0.56772 0.0735113 -1.79106e-20)
(-0.434729 -0.145095 9.13354e-21)
(-0.708874 -0.160015 5.21515e-20)
(-0.572786 0.0410952 -2.73932e-20)
(-0.440519 -0.113649 1.40027e-20)
(-0.671753 -0.161677 -2.68571e-20)
(-0.549114 0.251708 1.98471e-20)
(-0.574034 -0.371689 4.95922e-21)
(-0.927101 -0.0782439 -1.84667e-20)
(-0.573227 -0.0499404 1.23129e-20)
(-0.494064 -0.0667635 2.1104e-20)
(-0.567078 -0.127948 0)
(-0.608021 -0.0349163 7.83993e-21)
(-0.455169 -0.0395756 -3.23468e-20)
(-0.582022 -0.162847 -4.00159e-21)
(-0.72502 0.227077 0)
(-0.881098 -0.252058 -8.65349e-22)
(-0.330627 -0.162693 -2.63712e-23)
(-0.772066 -0.541122 3.0218e-20)
(-0.449225 0.270926 0)
(-1.0499 0.0357099 -2.23984e-20)
(-0.839214 -0.581862 -4.30356e-20)
(-1.08888 0.0725838 -3.61754e-20)
(-0.393201 0.242529 3.0563e-20)
(-1.33 -0.259425 -4.12476e-21)
(-1.22051 0.732895 0)
(-0.305494 -0.308518 2.29178e-20)
(-1.17889 0.355528 -1.12274e-20)
(-1.09317 -0.511499 1.08344e-20)
(-0.123768 -0.0218922 -6.17221e-20)
(-0.0458622 -0.0827085 3.20043e-20)
(-1.32512 -0.51081 -6.48518e-21)
(-1.51847 0.650505 -1.82348e-20)
(-1.14576 0.714519 0)
(-1.30106 -0.212972 0)
(-0.36695 -0.363054 0)
(-1.08175 0.67131 -8.72849e-21)
(-1.26789 -0.199823 0)
(-0.389816 -0.374157 1.8231e-20)
(-1.3649 -0.264906 0)
(-1.27975 0.770795 2.34617e-22)
(-0.281069 -0.301348 -2.27808e-23)
(-0.433149 0.0654288 0)
(-0.589683 -0.264935 1.42472e-20)
(-0.740989 -0.045268 -2.70245e-20)
(-0.203675 -0.232427 2.5375e-20)
(-1.36971 0.797255 -2.66303e-20)
(-1.38959 -0.322137 0)
(-0.65425 0.136768 8.13678e-21)
(-0.78332 -0.220256 0)
(-0.365737 -0.125581 0)
(-0.0356921 -0.0789754 -2.87122e-20)
(-1.3414 -0.514672 -4.91113e-21)
(-1.56086 0.681327 1.08294e-20)
(-1.57443 0.532859 -1.89779e-20)
(-0.0159553 -0.0246929 0)
(-1.26262 -0.619625 -5.03952e-21)
(-0.0330194 0.031268 0)
(-1.67138 0.433122 0)
(-1.20949 -0.733772 6.5917e-22)
(-1.20894 0.513938 0)
(-1.28032 0.532866 1.0396e-20)
(-1.19839 -0.412817 2.09404e-20)
(-1.22455 -0.450462 -9.79996e-21)
(-0.156145 -0.13752 -1.32123e-20)
(-0.122044 -0.112802 3.39279e-20)
(-0.022255 -0.0111928 -1.62433e-21)
(-1.56082 0.500338 1.85762e-20)
(-1.23899 -0.642759 0)
(-0.628794 0.00272494 -1.76385e-23)
(-0.418736 -0.0442748 1.70385e-20)
(-0.626715 -0.197486 0)
(-0.306301 0.149286 0)
(-0.994266 0.101909 -1.12672e-20)
(-0.833713 -0.501468 0)
(-0.448999 0.239503 3.40896e-20)
(-0.712018 -0.467114 0)
(-0.973942 0.00196094 -4.2559e-20)
(-1.57648 0.734802 0)
(0.0182097 -0.0203745 0)
(-1.2449 -0.538296 -6.01851e-21)
(-0.811072 0.268154 3.26175e-20)
(-0.937989 -0.286899 7.98874e-21)
(-0.286447 -0.145126 2.67173e-20)
(-1.29302 0.618325 1.32403e-20)
(-1.22064 0.563364 -2.49501e-20)
(-1.27472 -0.393015 -1.77219e-20)
(-0.160452 -0.166028 1.51502e-20)
(-1.22713 -0.383078 1.0644e-20)
(-0.175193 -0.165636 -1.41542e-20)
(-1.62481 0.748728 -8.93518e-21)
(-1.34071 -0.529288 -9.08472e-21)
(0.00453819 -0.0445966 -7.79592e-21)
(-1.06165 0.45004 0)
(-1.12072 -0.35916 -1.41984e-20)
(-0.212958 -0.169027 3.10113e-20)
(-0.609405 0.282191 0)
(-0.522665 -0.345665 -2.46989e-20)
(-0.943365 -0.113108 1.07662e-21)
(-0.051738 0.0436827 0)
(-1.61343 0.403715 0)
(-1.19621 -0.724593 0)
(-1.40847 0.552561 0)
(-1.2582 -0.517483 -2.66224e-20)
(-0.0683851 -0.0734925 -3.63918e-20)
(-0.761288 0.299375 0)
(-0.954275 -0.224791 0)
(-0.362535 -0.230511 0)
(-0.92907 0.202006 0)
(-0.912272 -0.423421 0)
(-0.221082 -0.00561083 0)
(-0.416386 0.228961 0)
(-0.762454 -0.499421 0)
(-0.998685 0.032459 2.29563e-20)
(-0.313631 0.129572 -3.52468e-21)
(-0.958925 0.0935518 -2.42103e-20)
(-0.819732 -0.476572 2.66263e-20)
(-1.23302 0.391487 2.64087e-20)
(-1.13028 -0.517268 0)
(-0.105413 -0.0406183 8.02269e-20)
(-0.302181 0.0510612 0)
(-0.847363 0.0922962 2.61109e-20)
(-0.778134 -0.387892 -6.78539e-21)
(-0.956798 -0.621535 0)
(-1.16395 0.166378 2.58818e-20)
(-1.01076 -0.634411 0)
(-1.21477 0.216072 1.49778e-20)
(-0.267839 0.167786 0)
(-0.211111 0.128471 0)
(-0.970243 0.165843 3.33276e-21)
(-0.892658 -0.469748 1.39835e-20)
(-0.230997 0.0484021 -1.53707e-20)
(-1.66242 0.703039 -1.15536e-20)
(0.00883272 -0.0428516 0)
(-1.31684 -0.563902 -1.16451e-20)
(-1.59937 0.742621 -7.76231e-21)
(0.0139884 -0.02821 -3.56953e-21)
(-1.29219 -0.531277 0)
(-1.43523 0.587504 -1.5227e-20)
(-1.28084 -0.510287 0)
(-0.0650314 -0.0830057 4.13695e-20)
(-0.718061 0.397918 0)
(-1.05155 -0.118888 5.84852e-21)
(-0.527985 -0.403884 1.4356e-20)
(-0.937193 0.137939 2.19813e-20)
(-0.261343 0.0740736 7.40311e-21)
(-0.852894 -0.449943 0)
(0.015013 -0.0340514 0)
(-1.29546 -0.609921 0)
(-1.68523 0.636727 9.6459e-21)
(-0.656858 0.352261 0)
(-1.0102 -0.100957 -1.267e-20)
(-0.54844 -0.392095 3.73861e-21)
(-0.291804 0.0728475 0)
(-0.87304 0.0941648 0)
(-0.784892 -0.409327 0)
(-0.874532 0.167909 1.09395e-20)
(-0.872092 -0.396602 0)
(-0.240442 -0.0119442 0)
(-1.02787 -0.368491 -5.60597e-23)
(-0.214468 -0.119737 -1.80715e-20)
(-1.00649 0.405558 3.42897e-20)
(-1.08278 -0.345721 0)
(-0.225311 -0.159723 -3.88593e-20)
(-1.59811 0.615189 -1.92267e-20)
(-0.0116149 -0.0474947 2.60444e-20)
(-1.30548 -0.579386 -2.3922e-20)
(-0.0434819 0.0239267 2.38872e-20)
(-1.55646 0.429692 1.15634e-20)
(-1.20727 -0.686686 2.51852e-20)
(-1.65545 0.491043 -3.17437e-20)
(-1.2416 -0.677414 0)
(-0.00883696 0.00222449 -2.34876e-20)
(-0.7954 -0.604416 -1.54975e-21)
(-1.13096 0.0328861 1.00531e-20)
(-0.520745 0.358094 0)
(-0.857016 0.229336 -4.97788e-20)
(-1.34717 0.812339 1.36452e-20)
(-0.229587 -0.254167 -1.55959e-20)
(-1.39726 -0.309504 0)
(-1.25155 -0.673118 0)
(-1.68844 0.535982 -2.80736e-20)
(0.00413778 -0.00931045 0)
(-0.61639 0.0417825 -3.96982e-20)
(-0.404135 -0.0763573 -1.37529e-20)
(-0.671507 -0.199528 3.94356e-20)
(-0.858241 0.35922 0)
(-1.01018 -0.276453 -7.93719e-22)
(-0.313393 -0.202862 -1.48223e-20)
(-0.0541191 0.0392903 1.83505e-20)
(-1.56606 0.410623 0)
(-1.19274 -0.708999 -2.90355e-20)
(-0.914174 0.26708 3.99535e-20)
(-1.00508 -0.381986 3.37873e-20)
(-0.2101 -0.0995011 0)
(0.0215068 -0.0306175 0)
(-1.27063 -0.575384 9.5924e-21)
(-1.66976 0.705688 0)
(-0.458158 0.314004 0)
(-1.1428 0.0588416 0)
(-0.838514 -0.627906 0)
(-1.60178 0.47577 2.78236e-20)
(-1.23365 -0.665292 0)
(-0.0194598 0.00183885 -6.66059e-23)
(-1.08638 0.191516 9.75452e-21)
(-0.951879 -0.552008 -1.06289e-20)
(-0.210114 0.0894182 0)
(-1.05768 0.477743 0)
(-1.13392 -0.338491 1.32813e-20)
(-0.23478 -0.19026 2.43679e-20)
(-1.12905 -0.741315 -3.69084e-20)
(-1.47236 0.296285 -2.07542e-20)
(-0.143304 0.114146 1.45125e-20)
(-1.28652 0.232644 0)
(-1.04701 -0.670363 -1.4813e-20)
(-0.200783 0.132924 -5.25845e-22)
(0.0260579 -0.0269801 -2.29909e-20)
(-1.24082 -0.587969 0)
(-1.68527 0.684977 -8.48625e-21)
(-0.551038 0.310347 1.82967e-20)
(-0.652917 -0.458683 -1.7813e-20)
(-1.00765 -0.0435123 1.86106e-21)
(-1.46982 0.783442 7.91638e-21)
(0.00729244 -0.0182519 -3.35097e-20)
(-1.28153 -0.465565 0)
(-0.389805 -0.00145441 -8.08175e-21)
(-0.687177 0.00796668 -3.06732e-20)
(-0.640928 -0.247019 3.92718e-20)
(-1.09109 0.250229 1.17987e-20)
(-1.0538 0.201276 1.08029e-22)
(-0.996449 -0.518013 -2.57042e-20)
(-0.946314 -0.52388 0)
(-0.203754 0.0638272 1.39739e-20)
(-0.165748 0.0289741 -1.44289e-20)
(-0.168145 -0.202422 -3.32141e-20)
(-1.41512 0.80934 1.41974e-20)
(-1.41177 -0.338547 -2.14621e-20)
(-0.99309 0.458548 0)
(-1.10992 -0.298699 0)
(-0.281755 -0.219054 -3.20689e-20)
(-1.35422 0.278116 -5.46703e-21)
(-1.08821 -0.691319 0)
(-0.160891 0.108684 0)
(-1.35842 0.592532 -1.27245e-20)
(-1.27057 -0.45178 0)
(-0.107687 -0.119333 1.50433e-20)
(-0.539637 -0.0314892 8.26007e-21)
(-0.589894 -0.107626 1.20463e-20)
(-0.505739 -0.0973254 -4.13513e-21)
(-1.18334 0.233964 -1.90868e-20)
(-1.01535 -0.600624 0)
(-0.181782 0.0921136 -2.42199e-20)
(-1.00764 0.491118 0)
(-1.13583 -0.287727 1.65848e-20)
(-0.292645 -0.240602 -2.05868e-20)
(-0.942925 0.309863 0)
(-1.00993 0.347723 4.01266e-21)
(-0.566482 0.333012 6.63526e-21)
(-0.664693 -0.482782 5.18235e-20)
(-1.03381 -0.0350858 -4.45063e-20)
(-1.23305 0.277454 -1.96898e-20)
(-1.05572 -0.606492 2.20066e-20)
(-0.142755 0.0627006 2.21081e-20)
(-1.40789 0.605581 0)
(-0.0843101 -0.102603 -5.30798e-20)
(-1.28952 -0.47666 -1.30727e-20)
(-0.45212 0.215764 -4.71148e-20)
(-0.683071 -0.44181 0)
(-0.944381 -0.00261997 1.4359e-20)
(-0.294435 0.20002 -2.85088e-20)
(-1.18908 0.156509 -1.48108e-20)
(-0.955333 -0.65191 0)
(-1.19193 0.610008 -1.27814e-20)
(-1.25025 -0.32139 -1.43763e-20)
(-0.234499 -0.225639 9.38344e-21)
(-0.50564 0.31221 2.39102e-21)
(-0.740241 -0.533728 0)
(-1.05964 0.0148835 3.09226e-20)
(-1.25319 0.650063 0)
(-1.29824 0.657898 0)
(-1.28707 -0.339531 -9.15106e-21)
(-0.212865 -0.215146 -2.44347e-20)
(-1.29829 -0.374004 1.29539e-20)
(-0.178289 -0.185432 2.59409e-20)
(0.00458194 -0.0427489 -2.01459e-20)
(-1.30855 -0.587998 0)
(-1.65707 0.655159 -1.35837e-20)
(-1.15269 0.540042 1.47898e-20)
(-1.1956 -0.355491 0)
(-0.209445 -0.187749 8.36166e-21)
(-1.13023 -0.517454 1.6541e-20)
(0.016359 -0.0066451 2.93566e-20)
(-1.4402 0.721688 1.72424e-20)
(-0.786208 0.0436381 -1.41245e-20)
(-0.343975 0.0495091 0)
(-0.709179 -0.33537 0)
(-1.09862 0.324427 2.69377e-20)
(-1.05288 -0.473869 0)
(-0.145701 -0.0354793 4.72946e-20)
(-0.0279662 -0.0581932 -1.65214e-20)
(-1.54285 0.60073 3.95259e-20)
(-1.29592 -0.557204 1.82736e-20)
(-0.861955 -0.608158 0)
(-1.12047 0.0811675 1.34121e-20)
(-0.389333 0.262324 -3.46317e-20)
(-1.15275 -0.733935 -4.46489e-20)
(-1.50938 0.33737 -1.27485e-20)
(-0.104898 0.0822266 0)
(-0.936365 -0.350699 -3.42704e-20)
(-0.241495 -0.0883846 0)
(-1.14157 0.404209 2.95157e-20)
(-1.10686 -0.440834 1.2012e-20)
(-0.147152 -0.0917405 1.43712e-20)
(-0.921676 -0.373724 2.01129e-20)
(-0.230272 -0.0646746 4.60196e-23)
(-1.51071 0.784242 -9.41036e-22)
(-0.0856954 -0.126871 1.95954e-20)
(-1.4014 -0.418598 -1.25396e-20)
(-0.775801 -0.623007 0)
(-1.15773 0.0169358 3.18127e-21)
(-0.579642 0.4055 0)
(-1.20315 0.437438 -3.01027e-20)
(-1.15152 -0.461548 -1.46443e-20)
(-0.125024 -0.0827631 -1.75143e-20)
(-0.960017 0.200251 0)
(-0.912307 -0.453623 -2.03086e-20)
(-0.214047 0.0177306 0)
(-1.0066 0.0767675 0)
(-0.807744 -0.519103 0)
(-0.355793 0.18517 0)
(-0.706909 0.186582 -1.127e-20)
(-0.838601 -0.248034 -1.90672e-20)
(-0.336537 -0.139576 -1.43783e-23)
(-0.342422 0.235693 3.53238e-20)
(-1.16731 0.124003 3.61354e-20)
(-0.920569 -0.640928 2.14492e-20)
(-1.62673 0.572555 -1.67366e-20)
(-1.27977 -0.61299 2.02594e-20)
(-0.00399184 -0.0318095 -2.46516e-20)
(-1.16355 -0.708892 3.02469e-20)
(-1.4935 0.355938 1.29242e-20)
(-0.0865505 0.0632842 1.84153e-20)
(-0.946652 0.597134 -2.6886e-20)
(-0.480137 -0.428255 2.73837e-20)
(-1.21318 -0.150089 -2.04215e-20)
(-1.33497 0.737584 7.70634e-21)
(-1.28248 0.703755 -7.03377e-21)
(-1.32225 -0.318398 -2.9148e-21)
(-1.35224 -0.329942 0)
(-0.204331 -0.222636 -8.95516e-21)
(-0.227828 -0.23897 -7.91205e-21)
(0.0153874 -0.00906725 -3.97435e-20)
(-1.17844 -0.501551 -1.82257e-20)
(-1.45697 0.728073 5.21498e-21)
(-1.48882 0.792197 -5.3208e-22)
(0.00192687 -0.0265243 4.63642e-20)
(-1.31441 -0.461006 0)
(-1.15746 0.283112 -4.33274e-20)
(-1.04452 -0.541288 -5.69109e-21)
(-0.147836 0.0261938 0)
(-0.00704364 -0.0507603 -5.01431e-20)
(-1.62061 0.641631 1.35243e-20)
(-1.31933 -0.571277 0)
(-1.08878 0.626667 3.83521e-20)
(-1.15167 0.64878 -2.87471e-20)
(-1.23924 -0.243539 1.55662e-20)
(-1.26282 -0.269507 5.90009e-21)
(-0.344338 -0.318599 -1.55694e-20)
(-0.300504 -0.285832 -7.81922e-21)
(0.017652 -0.0112626 0)
(-1.22254 -0.683842 0)
(-1.75905 0.530192 4.89527e-21)
(-1.38625 0.782097 -9.28674e-21)
(0.00765308 -0.0111188 0)
(-1.25551 -0.446395 0)
(-0.673474 -0.0745938 -5.45992e-24)
(-0.473941 0.0309371 1.78214e-20)
(-0.534715 -0.192485 8.78891e-21)
(-1.50651 0.748145 -1.56724e-20)
(-1.24289 -0.511526 8.80501e-21)
(0.0151343 -0.0155692 2.1733e-21)
(-0.805675 0.430585 0)
(-1.07299 -0.165688 -2.6607e-20)
(-0.456581 -0.356318 -6.13009e-23)
(-1.6888 0.619281 2.61394e-22)
(-1.28526 -0.626008 2.8322e-20)
(0.0132824 -0.0296249 1.04354e-23)
(-1.00244 -0.537988 5.01472e-22)
(0.0175936 -0.0072187 -1.69417e-20)
(-1.41916 0.624699 -6.20913e-21)
(-0.495772 0.203563 -1.7077e-20)
(-0.593131 -0.354903 1.57517e-20)
(-0.883631 -0.0583266 4.5228e-20)
(-0.714994 0.0457519 0)
(-0.698591 -0.278859 -4.34589e-20)
(-0.354203 -0.00810095 2.26924e-20)
(-1.60074 0.776302 0)
(-0.00281417 -0.0489584 2.32476e-20)
(-1.35398 -0.510706 -6.51344e-23)
(-0.751051 0.0645374 0)
(-0.722769 -0.306489 -1.51643e-20)
(-0.329787 0.0131321 -3.20906e-20)
(-0.640296 -0.0732703 1.81412e-20)
(-0.482224 0.00278228 -9.46772e-21)
(-0.535153 -0.165918 4.64231e-21)
(-0.433501 0.312792 1.71133e-20)
(-1.19372 0.086737 -1.27422e-20)
(-0.892287 -0.675671 2.3688e-20)
(-0.76389 -0.022048 0)
(-0.621964 -0.289695 0)
(-0.405902 0.0858193 2.67574e-21)
(-0.79244 0.0227588 2.23572e-20)
(-0.677842 -0.32292 1.1696e-20)
(-0.375793 0.0781427 3.7948e-22)
(-0.881362 0.561204 4.0794e-20)
(-1.18447 -0.12572 -2.04736e-20)
(-0.528772 -0.463932 -2.71028e-20)
(-0.023539 -0.0704525 3.50886e-20)
(-0.012694 -0.062524 -3.56876e-20)
(-1.37132 -0.506014 8.29301e-21)
(-1.35652 -0.524839 5.79675e-21)
(-1.59434 0.754032 0)
(-1.61425 0.740167 -1.15558e-20)
(-1.66268 0.575464 2.06981e-20)
(-1.27881 -0.625224 -1.77903e-20)
(0.00453988 -0.0254613 3.05487e-20)
(-0.461789 -0.434291 -1.75492e-20)
(-1.0086 0.65426 8.4081e-21)
(-1.25166 -0.158397 2.60215e-20)
(-0.586242 0.311509 -1.67052e-20)
(-0.6002 -0.418734 -1.6347e-20)
(-0.991605 -0.0699875 1.41052e-20)
(-1.30667 0.204486 0)
(-1.03379 -0.704535 1.53302e-20)
(-0.244771 0.17492 5.43957e-22)
(-1.07462 -0.593157 8.93647e-21)
(0.0288874 -0.0186162 -1.58356e-20)
(-1.62825 0.613028 -6.19272e-21)
(-0.015335 0.0158017 0)
(-1.68936 0.467121 0)
(-1.22042 -0.720181 1.20797e-20)
(-1.62927 0.729912 9.35091e-21)
(0.0157158 -0.032731 0)
(-1.29978 -0.549477 -9.41217e-21)
(0.0137681 -0.00254154 -6.28063e-32)
(-0.953517 -0.515172 -7.31044e-21)
(-1.33342 0.615221 5.84682e-21)
(-1.00991 -0.452037 8.1791e-21)
(0.0115726 0.00238334 6.26582e-32)
(-1.26264 0.692958 -5.20822e-21)
(-1.13691 -0.590323 -2.98477e-20)
(-1.31598 0.369205 0)
(-0.0944569 0.0097907 -4.70192e-20)
(-1.17602 -0.652627 -4.99768e-21)
(0.0305525 -0.0213615 -1.62261e-20)
(-1.77258 0.571842 0)
(-1.44659 0.544211 -1.92185e-20)
(-1.25513 -0.547181 1.64597e-20)
(-0.0534442 -0.0579984 2.43294e-20)
(-1.52262 0.846932 3.00054e-20)
(-0.0562538 -0.0962304 1.411e-20)
(-1.43262 -0.405491 0)
(-0.813536 0.234357 8.69603e-21)
(-0.270091 -0.107098 -9.07596e-21)
(-0.91497 -0.319086 8.25686e-21)
(-1.2257 -0.697521 6.16889e-21)
(0.00949726 -0.00390781 1.71805e-20)
(-1.74135 0.511797 5.65317e-21)
(-1.26543 0.178819 -1.46551e-20)
(-0.281643 0.202783 -9.6945e-21)
(-1.00213 -0.692641 0)
(-1.10594 -0.677243 0)
(-1.36057 0.304586 0)
(-0.12899 0.0829633 0)
(0.00373872 0.00502191 0)
(-0.606844 -0.298721 -5.49951e-21)
(-0.806246 0.412732 2.87047e-21)
(-1.11339 -0.54386 8.48197e-21)
(0.0192822 -0.00925523 -2.04611e-20)
(-1.48151 0.69865 -7.60204e-21)
(-0.756522 0.191843 -2.24721e-20)
(-0.297166 -0.106186 2.14642e-20)
(-0.86106 -0.293246 9.72574e-21)
(-1.24724 -0.649092 2.44905e-20)
(-1.73934 0.58473 -1.03521e-20)
(0.0217078 -0.0209729 0)
(0.0213716 -0.0120077 -1.79666e-20)
(-1.78318 0.532814 0)
(-1.19685 -0.688769 -1.82926e-20)
(-1.59657 0.67686 -1.24149e-20)
(-0.0190611 -0.0637478 5.36288e-20)
(-1.33653 -0.538096 0)
(-0.129314 -0.162866 -4.01885e-20)
(-1.39141 -0.385446 1.37397e-20)
(-1.4471 0.77542 0)
(-0.847105 0.570601 -5.12106e-20)
(-1.19296 -0.10237 2.60683e-20)
(-0.583495 -0.511355 -8.57575e-21)
(-1.30901 -0.287682 4.38745e-21)
(-1.22504 0.706008 1.66588e-20)
(-0.277829 -0.280606 -2.44852e-20)
(-0.117518 -0.158972 -3.60184e-20)
(-1.47523 0.833291 0)
(-1.43281 -0.37205 0)
(-0.85973 0.420407 -8.14647e-21)
(-0.935356 0.468562 0)
(-1.06287 -0.220261 -2.75891e-20)
(-1.11276 -0.244008 2.95323e-20)
(-0.378338 -0.281968 4.20238e-21)
(-0.34614 -0.27723 -4.47527e-21)
(-0.799134 0.404009 7.81411e-21)
(-1.0469 -0.185156 0)
(-0.429203 -0.319224 8.0055e-21)
(-1.06842 0.645199 0)
(-1.2463 -0.222801 -2.518e-20)
(-0.376489 -0.351368 5.60712e-21)
(-1.14589 -0.687788 -1.51773e-20)
(-1.44272 0.342116 1.35073e-20)
(-0.0956821 0.0605802 -3.77351e-20)
(-1.26247 -0.660417 0)
(-1.68187 0.562197 3.07969e-20)
(0.0090293 -0.0171912 0)
(-0.0584639 0.0232982 -1.21324e-20)
(-1.4857 0.4075 -8.51846e-21)
(-1.18933 -0.664318 -9.86421e-21)
(-1.06996 -0.45409 -1.11567e-21)
(0.0120615 0.00103571 1.09099e-20)
(-1.30996 0.714153 0)
(-0.595233 0.237511 1.54805e-20)
(-0.612394 0.224385 0)
(-0.487716 -0.289186 0)
(-0.890973 -0.130094 5.47831e-20)
(-0.455547 -0.257347 0)
(-0.874556 -0.156603 -3.48621e-20)
(-0.951398 0.564022 0)
(-0.865731 0.507401 0)
(-0.468503 -0.388985 -1.23222e-23)
(-1.18168 -0.187451 1.60082e-20)
(-0.429721 -0.369133 4.09479e-20)
(-1.13673 -0.162297 -3.39957e-20)
(-0.969926 -0.558744 0)
(0.0208832 -0.0116 2.31403e-20)
(-1.48486 0.608174 0)
(-1.25741 -0.642473 -1.47679e-20)
(-1.72104 0.587479 3.31546e-21)
(0.0179642 -0.0237554 1.07971e-20)
(-0.630973 0.375052 -2.87762e-20)
(-0.641993 -0.487614 -1.86449e-20)
(-1.06157 -0.0542949 4.60638e-20)
(-1.09945 -0.723262 3.29366e-20)
(-1.40623 0.268563 3.48697e-20)
(-0.168833 0.128772 0)
(-0.15205 -0.183735 4.2991e-20)
(-1.38407 -0.369515 -1.46102e-20)
(-1.41716 0.77088 1.79965e-20)
(-1.19671 -0.566002 0)
(-1.6167 0.696142 0)
(0.0241275 -0.0186564 0)
(-1.20611 -0.584644 0)
(-1.65356 0.675753 8.17687e-21)
(0.0276023 -0.0220412 3.9048e-21)
(-1.14584 0.619079 -1.59719e-20)
(-1.24164 -0.294233 8.89548e-21)
(-0.27677 -0.259082 1.15676e-20)
(-0.418411 0.184343 -4.46212e-21)
(-0.697027 -0.425523 0)
(-0.916133 0.0152314 -1.34201e-22)
(-1.6181 0.701481 1.44651e-20)
(-0.0121568 -0.0597404 3.11923e-20)
(-1.34763 -0.537463 -6.74989e-21)
(-1.1495 -0.622187 0)
(-1.36624 0.376765 0)
(-0.084236 0.0245682 4.05738e-20)
(-0.0739863 -0.10362 1.01452e-20)
(-1.3209 -0.479879 2.23122e-20)
(-1.4626 0.659986 3.99818e-20)
(-0.818998 0.489546 0)
(-0.511636 -0.420468 -2.73346e-20)
(-1.12275 -0.139454 1.74343e-20)
(-1.06119 0.156367 2.18412e-22)
(-0.907561 -0.542662 1.55873e-20)
(-0.257651 0.122741 0)
(-0.533716 0.260289 1.7728e-22)
(-0.611162 -0.405006 -5.3816e-21)
(-0.9501 -0.0580758 -1.84769e-20)
(0.00177025 -0.0472332 1.81621e-23)
(-1.32616 -0.567731 1.56521e-20)
(-1.65014 0.684292 1.55378e-20)
(-1.35464 0.633117 -7.43733e-21)
(-1.29461 -0.425677 -6.77899e-21)
(-0.127453 -0.14136 0)
(-0.512802 0.193264 -1.67861e-20)
(-0.554805 -0.317773 3.41966e-20)
(-0.861535 -0.0819108 -2.98272e-20)
(-1.49311 0.852281 1.20169e-20)
(-0.0975139 -0.14006 1.59968e-20)
(-1.44381 -0.378803 -9.69937e-21)
(-0.753992 0.328415 -9.88073e-21)
(-0.974963 -0.207524 0)
(-0.392112 -0.261712 0)
(-0.842941 0.132878 -4.04478e-20)
(-0.816401 -0.378754 9.36121e-21)
(-0.270594 0.0146589 0)
(-1.10045 -0.63747 0)
(-1.31079 0.302634 2.81728e-20)
(-0.123263 0.0655797 0)
(-1.51425 0.819583 -6.17148e-21)
(-0.0139672 -0.048475 -4.96095e-21)
(-1.37993 -0.44608 9.95677e-21)
(-1.50449 0.836533 1.71446e-20)
(-0.0259334 -0.0608949 0)
(-1.40231 -0.424522 -9.95375e-21)
(-0.0854184 -0.117435 9.20791e-21)
(-1.33909 -0.457682 -1.30816e-20)
(-1.46193 0.685732 -3.67721e-20)
(-1.09707 0.138882 -1.30421e-20)
(-0.917018 -0.584219 -1.56562e-20)
(-0.287192 0.158694 0)
(-0.00591361 -0.0331386 4.54412e-21)
(-1.34801 -0.443363 -9.30705e-21)
(-1.4569 0.80931 0)
(-0.0350683 -0.0502461 0)
(-1.27334 -0.566698 -1.33937e-20)
(-1.51123 0.563747 -4.57028e-21)
(0.0104416 -0.00188439 1.84827e-20)
(-0.820953 -0.491733 8.31904e-21)
(-1.2242 0.538513 0)
(-1.08884 0.665225 -6.15944e-21)
(-0.923528 -0.38795 0)
(0.00870654 0.0067747 1.84739e-20)
(-0.11158 -0.150051 -1.91453e-23)
(-1.4142 -0.392024 0)
(-1.47713 0.810168 0)
(0.0180682 -0.0352742 0)
(-1.2951 -0.582759 0)
(-1.68404 0.688067 1.98944e-20)
(-1.5695 0.746435 -1.28749e-20)
(-1.54418 0.723993 1.04151e-20)
(-0.0418164 -0.0884341 -1.76075e-20)
(-1.38188 -0.477964 -2.75565e-21)
(-0.0494188 -0.0941232 -2.8584e-20)
(-1.36578 -0.48115 5.11172e-21)
(-1.5152 0.532852 8.84985e-21)
(-1.25645 -0.591314 8.91742e-21)
(-0.0311241 -0.0362755 0)
(-0.224539 0.174336 0)
(-1.06228 -0.736372 0)
(-1.3718 0.227297 0)
(-0.605651 0.17277 0)
(-0.426597 -0.204913 -4.72039e-20)
(-0.819152 -0.172407 1.91033e-20)
(-1.47186 0.453235 2.54238e-20)
(-1.21049 -0.625795 3.35213e-21)
(-0.0446123 -0.00524634 3.56921e-20)
(-0.0590845 0.0114509 2.32918e-20)
(-1.45098 0.423692 -3.53942e-20)
(-1.18807 -0.639219 -4.64695e-21)
(-1.44205 0.844928 1.40654e-20)
(-0.151328 -0.191215 1.72287e-20)
(-1.43561 -0.340559 2.23984e-20)
(-0.979784 0.593821 0)
(-1.20893 -0.186849 7.50626e-21)
(-0.42895 -0.382237 -4.014e-20)
(-0.866004 0.474862 0)
(-1.10958 -0.178687 3.49393e-20)
(-0.43803 -0.357001 -2.10115e-23)
(-1.30896 0.419559 -3.35555e-20)
(-1.16476 -0.554329 4.14777e-21)
(-0.083695 -0.0306411 -2.03545e-20)
(-1.34563 0.415683 0)
(-1.16794 -0.578276 3.90183e-21)
(-0.0765296 -0.0153049 1.87471e-20)
(-0.482219 0.153032 0)
(-0.56367 -0.297649 -5.40382e-20)
(-0.818412 -0.070327 1.67073e-20)
(-0.959427 0.50042 0)
(-1.13544 -0.239646 0)
(-0.351021 -0.29552 6.05542e-21)
(-0.000116048 0.00705672 -3.72084e-20)
(-1.20706 -0.717418 -3.3784e-20)
(-1.74403 0.486676 0)
(-1.68869 0.648258 1.02826e-20)
(0.0304841 -0.0219869 0)
(-1.16 -0.605093 6.51458e-21)
(-1.68215 0.613662 -5.71126e-22)
(0.030951 -0.0211405 0)
(-1.11938 -0.605276 -1.85692e-20)
(-0.667557 0.333383 1.1682e-20)
(-0.508389 -0.351165 -5.86326e-21)
(-0.985661 -0.130679 -3.446e-22)
(-1.13658 -0.558593 3.94772e-22)
(0.0236241 -0.0146723 3.13068e-20)
(-1.58113 0.677352 0)
(-1.41179 0.680087 3.18213e-20)
(-0.114073 -0.137818 1.93923e-20)
(-1.32859 -0.429084 0)
(0.0254319 -0.0153342 -4.65657e-21)
(-1.07461 -0.580413 -9.70011e-21)
(-1.57875 0.632266 0)
(-0.673976 0.0795436 2.76021e-20)
(-0.360166 -0.0586577 2.88e-20)
(-0.720419 -0.244052 5.2368e-23)
(-1.04507 0.39371 -5.00475e-21)
(-1.08262 -0.38668 -4.43684e-21)
(-0.194544 -0.125942 -2.10325e-20)
(-0.863976 -0.568672 3.56813e-20)
(-1.06906 0.105576 3.05716e-20)
(-0.338534 0.192701 0)
(0.0277442 -0.0200415 0)
(-1.19997 -0.657868 -6.3532e-21)
(-1.76971 0.573768 0)
(-1.13254 -0.64161 0)
(-1.3652 0.353073 0)
(-0.0957283 0.0423595 0)
(-0.0715 -0.11387 0)
(-1.52265 0.836559 -1.08731e-20)
(-1.43375 -0.404433 9.51064e-21)
(-1.12188 0.430878 0)
(-1.11818 -0.418937 2.22521e-21)
(-0.166427 -0.114167 2.05563e-20)
(-0.585913 0.143786 0)
(-0.432681 -0.188833 4.05096e-20)
(-0.78487 -0.166786 0)
(-1.23783 -0.642554 -2.31383e-20)
(-1.73853 0.6106 9.85331e-21)
(0.0267184 -0.0238406 0)
(-0.0418762 -0.0726524 -2.12257e-20)
(-1.30246 -0.534248 8.537e-22)
(-1.51003 0.623044 5.73744e-22)
(-1.56978 0.782481 0)
(-1.55474 0.781752 1.08081e-20)
(-0.00189822 -0.0412551 -1.14494e-20)
(0.00437757 -0.0327054 -1.4074e-20)
(-1.34685 -0.486531 -6.20536e-21)
(-1.32461 -0.493849 5.104e-21)
(-1.0431 0.258081 0)
(-0.980774 -0.487722 6.01127e-20)
(-0.175492 0.00623709 2.25686e-20)
(-1.09866 -0.568836 4.19324e-20)
(-1.25163 0.331556 0)
(-0.111485 0.0177512 -2.47939e-20)
(-0.7824 0.147143 -2.28834e-20)
(-0.819226 -0.327824 1.59627e-20)
(-0.277857 -0.0424743 3.50432e-20)
(-1.18929 -0.625121 1.46787e-20)
(-1.72838 0.627794 1.14712e-20)
(-1.16823 -0.637947 -6.95522e-21)
(0.0315312 -0.0240745 0)
(-1.74715 0.59956 -1.10552e-20)
(0.0320882 -0.023155 0)
(-1.27917 0.507016 0)
(-1.20236 -0.473135 0)
(-0.111935 -0.0947188 2.29078e-20)
(-1.72705 0.631144 1.67512e-20)
(-1.72345 0.638545 -3.10329e-20)
(-1.24999 -0.622413 9.59934e-21)
(-1.2292 -0.61473 -2.45227e-20)
(0.0274735 -0.0274042 3.16634e-20)
(0.0295725 -0.0261921 -2.34991e-23)
(-1.20737 0.305094 0)
(-1.06277 -0.580696 -3.9268e-20)
(-0.136664 0.0429454 3.21375e-20)
(-0.965866 0.284007 2.17108e-20)
(-1.02069 -0.413673 -2.68617e-20)
(-0.181695 -0.0752552 0)
(-1.53564 0.834309 0)
(-0.0379999 -0.0780361 0)
(-1.4159 -0.430567 9.5678e-21)
(-1.04931 0.28855 1.59619e-20)
(-1.0059 -0.468315 -1.67197e-20)
(-0.164616 -0.018751 -3.7321e-20)
(-0.841951 0.192488 9.28657e-21)
(-0.878786 -0.363248 -1.87497e-20)
(-0.245252 -0.0486292 2.04931e-20)
(-1.54232 0.803254 0)
(-0.0117924 -0.0494899 0)
(-1.37637 -0.467892 -1.3174e-20)
(-1.14113 0.466219 0)
(-1.15546 -0.397511 4.67446e-21)
(-0.169378 -0.136236 -2.27687e-20)
(-0.981892 -0.708939 0)
(-1.26475 0.156795 0)
(-0.32861 0.243614 -1.25392e-21)
(-0.820818 0.510525 -1.31164e-21)
(-1.14226 -0.121073 0)
(-0.537355 -0.452004 4.23445e-20)
(-1.17081 -0.74833 1.73689e-20)
(-0.081846 0.0701153 0)
(-1.58335 0.366374 0)
(0.00710273 0.0039319 -4.44265e-20)
(-0.789319 -0.392913 7.6967e-21)
(-1.0482 0.541108 -4.01659e-21)
(-1.08521 0.350683 0)
(-1.05782 -0.439865 1.64604e-20)
(-0.158078 -0.0687018 -1.89718e-20)
(-1.56523 0.79806 2.07384e-20)
(-0.0360042 -0.0808271 5.94894e-20)
(-1.40162 -0.455538 0)
(-0.681241 -0.569471 -1.121e-20)
(-1.16753 -0.0441734 -1.73048e-20)
(-0.71092 0.486121 -1.15487e-20)
(-1.25384 0.736131 0)
(0.0107484 0.0017291 -1.65202e-20)
(-1.13223 -0.436899 0)
(-0.342426 0.109805 2.20911e-20)
(-0.35488 0.141275 -2.26061e-20)
(-0.733547 -0.403542 0)
(-0.872789 0.0517503 1.93574e-20)
(-0.753305 -0.440976 -3.42568e-20)
(-0.91695 0.0487564 -1.54785e-20)
(-0.783329 0.114836 2.15179e-20)
(-0.782051 -0.330689 2.12783e-20)
(-0.293702 -0.00866189 0)
(-0.44055 0.173674 1.96586e-20)
(-0.391808 0.13416 0)
(-0.643801 -0.376467 -1.92046e-20)
(-0.875664 -0.0221779 1.72097e-20)
(-0.669479 -0.367546 1.93551e-20)
(-0.850229 0.00449489 1.1979e-22)
(-1.02746 0.326151 1.37966e-21)
(-0.9736 -0.412437 -1.17555e-20)
(-0.197363 -0.0543393 -2.51968e-20)
(-0.974417 0.264971 -3.73018e-20)
(-0.969568 -0.430835 3.11172e-22)
(-0.193187 -0.0330465 0)
(0.0322599 -0.0228323 0)
(-1.11459 -0.62965 0)
(-1.72715 0.591641 1.09301e-20)
(-0.731226 0.356302 -1.07699e-20)
(-1.0018 -0.162056 0)
(-0.45471 -0.319304 1.08821e-20)
(-1.70117 0.653395 -3.18973e-20)
(-1.28224 -0.608071 1.14547e-20)
(0.0218617 -0.0320017 -1.80553e-20)
(-1.34548 0.468425 0)
(-1.4073 0.498626 1.84682e-20)
(-1.19934 -0.538803 -5.17246e-21)
(-1.2275 -0.553151 1.61893e-20)
(-0.0735601 -0.0477847 -2.529e-20)
(-0.0583237 -0.0466615 -2.34808e-20)
(-0.71042 0.31824 0)
(-0.966569 -0.177194 0)
(-0.435327 -0.289617 5.14352e-21)
(-1.0393 0.579583 1.27838e-20)
(-1.19929 -0.238948 0)
(-0.352479 -0.312079 1.34145e-20)
(-1.22711 0.431168 -9.62256e-21)
(-1.14812 -0.49655 0)
(-0.107488 -0.0619192 0)
(-0.514879 0.0636089 2.16857e-20)
(-0.703822 -0.115555 -1.02896e-20)
(-0.485918 -0.181193 1.08705e-20)
(-1.42587 0.460391 0)
(-1.20657 -0.595889 0)
(-0.0535967 -0.0183993 -3.79447e-20)
(-0.56675 0.173839 0)
(-0.471427 -0.241662 5.96895e-21)
(-0.823929 -0.136937 0)
(-1.2012 0.332076 -2.14853e-20)
(-1.07847 -0.548136 -2.18208e-20)
(-0.12516 0.0025004 -3.20738e-21)
(-1.03218 0.545812 1.29636e-20)
(-1.17778 -0.260245 0)
(-0.324102 -0.284455 2.76241e-20)
(-0.521827 0.100283 -2.1495e-20)
(-0.492425 0.101044 -9.63919e-21)
(-0.74363 -0.123703 1.01815e-20)
(-0.484272 -0.204987 -2.15797e-20)
(-0.755907 -0.0977923 0)
(-0.519814 -0.235597 -3.82997e-20)
(-0.434838 0.119437 -9.72584e-21)
(-0.60008 -0.310281 2.52444e-20)
(-0.400856 0.116062 6.26213e-21)
(-0.800672 -0.0384907 -2.33388e-20)
(-0.658931 -0.348795 -1.20969e-20)
(-0.825521 -0.00455404 3.27861e-22)
(-0.837495 0.385928 1.1717e-20)
(-0.905153 0.40582 0)
(-1.03206 -0.234404 2.05425e-20)
(-1.05574 -0.269544 -1.60612e-20)
(-0.35874 -0.254806 -2.4346e-20)
(-0.313644 -0.223533 4.04921e-20)
(-0.114064 -0.147438 0)
(-1.37141 -0.410504 -8.01253e-21)
(-1.45001 0.740855 -1.88234e-20)
(-0.367404 0.263309 1.52224e-20)
(-1.20772 0.123132 2.01103e-20)
(-0.93541 -0.678115 -3.73326e-20)
(-0.0883222 -0.126992 -2.00549e-20)
(-0.0733597 -0.113436 1.60652e-20)
(-1.37962 -0.435174 6.93456e-21)
(-1.36325 -0.457947 1.19658e-20)
(-1.49126 0.754691 4.78989e-20)
(-1.5044 0.727002 -2.48963e-20)
(-0.53741 0.349087 2.11296e-20)
(-0.748881 -0.559893 -1.77732e-20)
(-1.09131 0.00692389 4.44688e-21)
(-0.533442 0.00281385 3.63128e-20)
(-0.486861 -0.121548 0)
(-0.630759 -0.117769 -3.57341e-20)
(-1.45241 0.496869 -8.79122e-21)
(-1.23102 -0.584403 -1.82917e-20)
(-0.0462212 -0.0322173 0)
(-0.637542 0.272907 0)
(-0.475598 -0.307352 -4.89865e-21)
(-0.927783 -0.140062 -1.77863e-20)
(-1.07774 0.562328 0)
(-1.19604 -0.281164 0)
(-0.294679 -0.26237 -2.57345e-20)
(-1.37162 0.732937 -2.05107e-20)
(-1.36324 0.701111 0)
(-1.3549 -0.368433 4.36944e-21)
(-0.169133 -0.191668 -2.45262e-20)
(-1.33516 -0.381691 -1.19059e-20)
(-0.15796 -0.177239 3.31837e-20)
(-1.33493 0.512205 1.82083e-20)
(-1.2225 -0.496698 1.71574e-20)
(-0.0869518 -0.0784342 1.37495e-20)
(-1.35877 0.748486 1.17508e-20)
(-1.19039 -0.460077 0)