/*--------------------------------*- C++ -*----------------------------------*\
  =========                 |
  \\      /  F ield         | OpenFOAM: The Open Source CFD Toolbox
   \\    /   O peration     | Website:  https://openfoam.org
    \\  /    A nd           | Version:  6
     \\/     M anipulation  |
\*---------------------------------------------------------------------------*/
FoamFile
{
    version     2.0;
    format      ascii;
    class       volScalarField;
    location    "0";
    object      p;
}
// * * * * * * * * * * * * * * * * * * * * * * * * * * * * * * * * * * * * * //

dimensions      [0 2 -2 0 0 0 0];

internalField   nonuniform List<scalar> 
145945
(
3.62597e-06
3.62456e-06
3.6234e-06
3.62222e-06
3.62131e-06
3.62057e-06
3.62007e-06
3.61975e-06
3.61963e-06
3.6197e-06
3.61997e-06
3.62043e-06
3.62111e-06
3.62196e-06
3.62314e-06
3.62435e-06
3.62585e-06
3.62456e-06
3.6234e-06
3.62222e-06
3.62105e-06
3.6201e-06
3.61934e-06
3.61881e-06
3.61848e-06
3.61836e-06
3.61844e-06
3.61872e-06
3.6192e-06
3.6199e-06
3.62079e-06
3.62196e-06
3.6232e-06
3.62445e-06
3.6234e-06
3.62222e-06
3.62099e-06
3.61981e-06
3.61884e-06
3.61808e-06
3.61754e-06
3.61721e-06
3.61708e-06
3.61716e-06
3.61745e-06
3.61794e-06
3.61864e-06
3.61956e-06
3.62072e-06
3.62203e-06
3.62329e-06
3.62222e-06
3.62105e-06
3.61981e-06
3.61864e-06
3.61765e-06
3.61687e-06
3.61632e-06
3.61598e-06
3.61585e-06
3.61593e-06
3.61623e-06
3.61673e-06
3.61745e-06
3.61839e-06
3.61955e-06
3.62087e-06
3.62211e-06
3.62131e-06
3.6201e-06
3.61884e-06
3.61765e-06
3.61663e-06
3.61585e-06
3.61529e-06
3.61494e-06
3.61481e-06
3.61489e-06
3.61519e-06
3.61571e-06
3.61644e-06
3.61739e-06
3.61857e-06
3.61992e-06
3.6212e-06
3.62057e-06
3.61934e-06
3.61808e-06
3.61688e-06
3.61585e-06
3.61505e-06
3.61448e-06
3.61413e-06
3.61399e-06
3.61408e-06
3.61439e-06
3.61491e-06
3.61565e-06
3.61662e-06
3.61781e-06
3.61916e-06
3.62046e-06
3.62007e-06
3.61882e-06
3.61754e-06
3.61632e-06
3.61529e-06
3.61448e-06
3.6139e-06
3.61355e-06
3.61341e-06
3.6135e-06
3.61381e-06
3.61434e-06
3.61509e-06
3.61607e-06
3.61727e-06
3.61863e-06
3.61996e-06
3.61975e-06
3.61848e-06
3.61721e-06
3.61598e-06
3.61494e-06
3.61413e-06
3.61355e-06
3.61319e-06
3.61305e-06
3.61314e-06
3.61345e-06
3.61399e-06
3.61474e-06
3.61573e-06
3.61694e-06
3.6183e-06
3.61964e-06
3.61963e-06
3.61836e-06
3.61708e-06
3.61585e-06
3.61481e-06
3.61399e-06
3.61341e-06
3.61305e-06
3.61291e-06
3.613e-06
3.61332e-06
3.61385e-06
3.61461e-06
3.6156e-06
3.61681e-06
3.61818e-06
3.61952e-06
3.6197e-06
3.61844e-06
3.61716e-06
3.61593e-06
3.61489e-06
3.61408e-06
3.6135e-06
3.61314e-06
3.613e-06
3.61309e-06
3.6134e-06
3.61394e-06
3.61469e-06
3.61568e-06
3.61689e-06
3.61826e-06
3.61959e-06
3.61997e-06
3.61872e-06
3.61745e-06
3.61623e-06
3.61519e-06
3.61439e-06
3.61381e-06
3.61345e-06
3.61332e-06
3.6134e-06
3.61371e-06
3.61424e-06
3.61499e-06
3.61597e-06
3.61718e-06
3.61854e-06
3.61987e-06
3.62043e-06
3.6192e-06
3.61794e-06
3.61673e-06
3.61571e-06
3.61491e-06
3.61434e-06
3.61399e-06
3.61385e-06
3.61394e-06
3.61424e-06
3.61477e-06
3.61551e-06
3.61648e-06
3.61767e-06
3.61902e-06
3.62033e-06
3.62111e-06
3.6199e-06
3.61864e-06
3.61745e-06
3.61644e-06
3.61565e-06
3.61509e-06
3.61474e-06
3.61461e-06
3.61469e-06
3.61499e-06
3.61551e-06
3.61624e-06
3.6172e-06
3.61838e-06
3.61972e-06
3.62101e-06
3.62196e-06
3.62079e-06
3.61956e-06
3.61839e-06
3.61739e-06
3.61662e-06
3.61607e-06
3.61573e-06
3.6156e-06
3.61568e-06
3.61597e-06
3.61648e-06
3.6172e-06
3.61814e-06
3.61929e-06
3.62061e-06
3.62186e-06
3.62314e-06
3.62196e-06
3.62072e-06
3.61955e-06
3.61857e-06
3.61781e-06
3.61727e-06
3.61694e-06
3.61681e-06
3.61689e-06
3.61718e-06
3.61767e-06
3.61838e-06
3.61929e-06
3.62045e-06
3.62176e-06
3.62302e-06
3.62435e-06
3.6232e-06
3.62203e-06
3.62087e-06
3.61992e-06
3.61916e-06
3.61863e-06
3.6183e-06
3.61818e-06
3.61826e-06
3.61854e-06
3.61902e-06
3.61972e-06
3.62061e-06
3.62176e-06
3.623e-06
3.62423e-06
3.62585e-06
3.62445e-06
3.62329e-06
3.62211e-06
3.6212e-06
3.62046e-06
3.61996e-06
3.61964e-06
3.61952e-06
3.61959e-06
3.61987e-06
3.62033e-06
3.62101e-06
3.62186e-06
3.62303e-06
3.62423e-06
3.62573e-06
3.57238e-06
3.57149e-06
3.5707e-06
3.5699e-06
3.56927e-06
3.56877e-06
3.56842e-06
3.5682e-06
3.56811e-06
3.56815e-06
3.56833e-06
3.56863e-06
3.56908e-06
3.56965e-06
3.57042e-06
3.57124e-06
3.57218e-06
3.57149e-06
3.57076e-06
3.57e-06
3.56921e-06
3.56857e-06
3.56807e-06
3.56771e-06
3.56749e-06
3.5674e-06
3.56744e-06
3.56762e-06
3.56793e-06
3.56838e-06
3.56896e-06
3.56971e-06
3.57052e-06
3.5713e-06
3.5707e-06
3.57e-06
3.56922e-06
3.56845e-06
3.56781e-06
3.56731e-06
3.56695e-06
3.56673e-06
3.56664e-06
3.56668e-06
3.56686e-06
3.56717e-06
3.56762e-06
3.5682e-06
3.56893e-06
3.56976e-06
3.57051e-06
3.5699e-06
3.56921e-06
3.56845e-06
3.56769e-06
3.56705e-06
3.56655e-06
3.56619e-06
3.56596e-06
3.56587e-06
3.56592e-06
3.5661e-06
3.56641e-06
3.56686e-06
3.56744e-06
3.56817e-06
3.56898e-06
3.56971e-06
3.56927e-06
3.56857e-06
3.56781e-06
3.56705e-06
3.5664e-06
3.5659e-06
3.56554e-06
3.56531e-06
3.56522e-06
3.56526e-06
3.56545e-06
3.56576e-06
3.56621e-06
3.5668e-06
3.56753e-06
3.56834e-06
3.56908e-06
3.56877e-06
3.56807e-06
3.56731e-06
3.56655e-06
3.5659e-06
3.56539e-06
3.56503e-06
3.5648e-06
3.56471e-06
3.56475e-06
3.56494e-06
3.56526e-06
3.56571e-06
3.5663e-06
3.56703e-06
3.56784e-06
3.56858e-06
3.56842e-06
3.56771e-06
3.56695e-06
3.56619e-06
3.56554e-06
3.56503e-06
3.56466e-06
3.56443e-06
3.56434e-06
3.56439e-06
3.56457e-06
3.56489e-06
3.56535e-06
3.56594e-06
3.56667e-06
3.56748e-06
3.56823e-06
3.5682e-06
3.56749e-06
3.56673e-06
3.56596e-06
3.56531e-06
3.5648e-06
3.56443e-06
3.5642e-06
3.56411e-06
3.56416e-06
3.56434e-06
3.56467e-06
3.56512e-06
3.56572e-06
3.56645e-06
3.56726e-06
3.568e-06
3.56811e-06
3.5674e-06
3.56664e-06
3.56587e-06
3.56522e-06
3.56471e-06
3.56434e-06
3.56411e-06
3.56402e-06
3.56406e-06
3.56425e-06
3.56457e-06
3.56503e-06
3.56563e-06
3.56636e-06
3.56717e-06
3.56792e-06
3.56815e-06
3.56744e-06
3.56668e-06
3.56592e-06
3.56526e-06
3.56475e-06
3.56439e-06
3.56416e-06
3.56406e-06
3.56411e-06
3.5643e-06
3.56462e-06
3.56508e-06
3.56567e-06
3.5664e-06
3.56722e-06
3.56796e-06
3.56833e-06
3.56762e-06
3.56686e-06
3.5661e-06
3.56545e-06
3.56494e-06
3.56457e-06
3.56434e-06
3.56425e-06
3.5643e-06
3.56449e-06
3.56481e-06
3.56526e-06
3.56585e-06
3.56658e-06
3.5674e-06
3.56814e-06
3.56863e-06
3.56793e-06
3.56717e-06
3.56641e-06
3.56576e-06
3.56526e-06
3.5649e-06
3.56467e-06
3.56457e-06
3.56462e-06
3.56481e-06
3.56513e-06
3.56558e-06
3.56617e-06
3.56689e-06
3.56771e-06
3.56844e-06
3.56908e-06
3.56838e-06
3.56762e-06
3.56686e-06
3.56621e-06
3.56571e-06
3.56535e-06
3.56512e-06
3.56503e-06
3.56508e-06
3.56526e-06
3.56558e-06
3.56603e-06
3.56661e-06
3.56734e-06
3.56815e-06
3.56889e-06
3.56965e-06
3.56896e-06
3.5682e-06
3.56744e-06
3.5668e-06
3.5663e-06
3.56594e-06
3.56572e-06
3.56563e-06
3.56567e-06
3.56585e-06
3.56617e-06
3.56661e-06
3.56719e-06
3.56792e-06
3.56873e-06
3.56946e-06
3.57042e-06
3.56971e-06
3.56894e-06
3.56817e-06
3.56753e-06
3.56703e-06
3.56667e-06
3.56645e-06
3.56636e-06
3.5664e-06
3.56658e-06
3.56689e-06
3.56734e-06
3.56792e-06
3.56865e-06
3.56948e-06
3.57023e-06
3.57124e-06
3.57052e-06
3.56976e-06
3.56898e-06
3.56834e-06
3.56784e-06
3.56748e-06
3.56726e-06
3.56717e-06
3.56722e-06
3.5674e-06
3.56771e-06
3.56815e-06
3.56873e-06
3.56948e-06
3.57028e-06
3.57105e-06
3.57219e-06
3.5713e-06
3.57051e-06
3.56971e-06
3.56908e-06
3.56858e-06
3.56823e-06
3.568e-06
3.56792e-06
3.56796e-06
3.56814e-06
3.56844e-06
3.56889e-06
3.56946e-06
3.57023e-06
3.57105e-06
3.57199e-06
3.5366e-06
3.5364e-06
3.53622e-06
3.536e-06
3.53582e-06
3.53565e-06
3.53553e-06
3.53544e-06
3.5354e-06
3.53541e-06
3.53547e-06
3.53558e-06
3.53572e-06
3.53587e-06
3.53606e-06
3.53623e-06
3.53643e-06
3.5364e-06
3.53621e-06
3.536e-06
3.53575e-06
3.53554e-06
3.53535e-06
3.5352e-06
3.53511e-06
3.53506e-06
3.53508e-06
3.53515e-06
3.53526e-06
3.53543e-06
3.53562e-06
3.53583e-06
3.53604e-06
3.53624e-06
3.53622e-06
3.536e-06
3.53572e-06
3.53543e-06
3.53519e-06
3.53498e-06
3.53482e-06
3.53472e-06
3.53467e-06
3.53469e-06
3.53476e-06
3.5349e-06
3.53508e-06
3.53529e-06
3.53555e-06
3.53581e-06
3.53605e-06
3.536e-06
3.53575e-06
3.53544e-06
3.53512e-06
3.53485e-06
3.53462e-06
3.53444e-06
3.53433e-06
3.53428e-06
3.5343e-06
3.53438e-06
3.53453e-06
3.53473e-06
3.53497e-06
3.53525e-06
3.53557e-06
3.53583e-06
3.53582e-06
3.53554e-06
3.53519e-06
3.53485e-06
3.53455e-06
3.5343e-06
3.53411e-06
3.53399e-06
3.53394e-06
3.53396e-06
3.53405e-06
3.53421e-06
3.53443e-06
3.53469e-06
3.535e-06
3.53535e-06
3.53565e-06
3.53565e-06
3.53535e-06
3.53498e-06
3.53462e-06
3.5343e-06
3.53404e-06
3.53385e-06
3.53372e-06
3.53367e-06
3.53369e-06
3.53378e-06
3.53395e-06
3.53418e-06
3.53446e-06
3.53479e-06
3.53516e-06
3.53549e-06
3.53553e-06
3.5352e-06
3.53482e-06
3.53444e-06
3.53411e-06
3.53385e-06
3.53365e-06
3.53351e-06
3.53346e-06
3.53348e-06
3.53358e-06
3.53375e-06
3.53399e-06
3.53429e-06
3.53463e-06
3.53502e-06
3.53536e-06
3.53544e-06
3.53511e-06
3.53472e-06
3.53433e-06
3.53399e-06
3.53372e-06
3.53351e-06
3.53338e-06
3.53333e-06
3.53335e-06
3.53345e-06
3.53363e-06
3.53387e-06
3.53417e-06
3.53452e-06
3.53492e-06
3.53527e-06
3.5354e-06
3.53506e-06
3.53467e-06
3.53428e-06
3.53394e-06
3.53367e-06
3.53346e-06
3.53333e-06
3.53327e-06
3.53329e-06
3.5334e-06
3.53357e-06
3.53382e-06
3.53412e-06
3.53448e-06
3.53488e-06
3.53523e-06
3.53541e-06
3.53508e-06
3.53469e-06
3.5343e-06
3.53396e-06
3.53369e-06
3.53348e-06
3.53335e-06
3.53329e-06
3.53332e-06
3.53342e-06
3.53359e-06
3.53384e-06
3.53414e-06
3.53449e-06
3.53489e-06
3.53524e-06
3.53547e-06
3.53515e-06
3.53476e-06
3.53438e-06
3.53405e-06
3.53378e-06
3.53358e-06
3.53345e-06
3.5334e-06
3.53342e-06
3.53352e-06
3.53369e-06
3.53393e-06
3.53423e-06
3.53457e-06
3.53496e-06
3.53531e-06
3.53558e-06
3.53527e-06
3.5349e-06
3.53453e-06
3.53421e-06
3.53395e-06
3.53375e-06
3.53363e-06
3.53357e-06
3.53359e-06
3.53369e-06
3.53386e-06
3.53409e-06
3.53438e-06
3.53471e-06
3.53508e-06
3.53541e-06
3.53572e-06
3.53543e-06
3.53508e-06
3.53473e-06
3.53443e-06
3.53418e-06
3.53399e-06
3.53387e-06
3.53382e-06
3.53384e-06
3.53393e-06
3.53409e-06
3.53431e-06
3.53458e-06
3.53489e-06
3.53524e-06
3.53555e-06
3.53588e-06
3.53562e-06
3.5353e-06
3.53498e-06
3.5347e-06
3.53446e-06
3.53429e-06
3.53417e-06
3.53412e-06
3.53414e-06
3.53423e-06
3.53438e-06
3.53458e-06
3.53483e-06
3.53511e-06
3.53543e-06
3.53571e-06
3.53607e-06
3.53583e-06
3.53555e-06
3.53525e-06
3.535e-06
3.53479e-06
3.53463e-06
3.53452e-06
3.53448e-06
3.53449e-06
3.53457e-06
3.53471e-06
3.53489e-06
3.53511e-06
3.53537e-06
3.53565e-06
3.5359e-06
3.53623e-06
3.53604e-06
3.53582e-06
3.53557e-06
3.53535e-06
3.53516e-06
3.53502e-06
3.53492e-06
3.53488e-06
3.53489e-06
3.53496e-06
3.53508e-06
3.53524e-06
3.53543e-06
3.53565e-06
3.53586e-06
3.53607e-06
3.53644e-06
3.53624e-06
3.53605e-06
3.53583e-06
3.53565e-06
3.53549e-06
3.53536e-06
3.53527e-06
3.53523e-06
3.53525e-06
3.53531e-06
3.53541e-06
3.53555e-06
3.53571e-06
3.5359e-06
3.53607e-06
3.53627e-06
3.49354e-06
3.49372e-06
3.49392e-06
3.49409e-06
3.49423e-06
3.49431e-06
3.49436e-06
3.49438e-06
3.49439e-06
3.49437e-06
3.49434e-06
3.49429e-06
3.4942e-06
3.49407e-06
3.49388e-06
3.49364e-06
3.49341e-06
3.49372e-06
3.49383e-06
3.49398e-06
3.49412e-06
3.49421e-06
3.49426e-06
3.49429e-06
3.4943e-06
3.4943e-06
3.49429e-06
3.49427e-06
3.49424e-06
3.49418e-06
3.49408e-06
3.49394e-06
3.49375e-06
3.49359e-06
3.49392e-06
3.49398e-06
3.49407e-06
3.49416e-06
3.49422e-06
3.49424e-06
3.49424e-06
3.49424e-06
3.49424e-06
3.49423e-06
3.49422e-06
3.49421e-06
3.49418e-06
3.49413e-06
3.49403e-06
3.4939e-06
3.49379e-06
3.49409e-06
3.49412e-06
3.49416e-06
3.49421e-06
3.49422e-06
3.49422e-06
3.4942e-06
3.49419e-06
3.49418e-06
3.49417e-06
3.49418e-06
3.49418e-06
3.49418e-06
3.49416e-06
3.49411e-06
3.49403e-06
3.49397e-06
3.49423e-06
3.49421e-06
3.49422e-06
3.49422e-06
3.49421e-06
3.49418e-06
3.49415e-06
3.49412e-06
3.49411e-06
3.49411e-06
3.49412e-06
3.49414e-06
3.49416e-06
3.49418e-06
3.49416e-06
3.49413e-06
3.49411e-06
3.49431e-06
3.49426e-06
3.49424e-06
3.49422e-06
3.49418e-06
3.49413e-06
3.49408e-06
3.49405e-06
3.49404e-06
3.49404e-06
3.49406e-06
3.49409e-06
3.49413e-06
3.49417e-06
3.49418e-06
3.49418e-06
3.49419e-06
3.49436e-06
3.49429e-06
3.49424e-06
3.4942e-06
3.49415e-06
3.49408e-06
3.49403e-06
3.49399e-06
3.49397e-06
3.49398e-06
3.494e-06
3.49404e-06
3.4941e-06
3.49415e-06
3.49419e-06
3.49421e-06
3.49424e-06
3.49438e-06
3.4943e-06
3.49424e-06
3.49419e-06
3.49412e-06
3.49405e-06
3.49399e-06
3.49395e-06
3.49393e-06
3.49394e-06
3.49396e-06
3.49401e-06
3.49407e-06
3.49413e-06
3.49418e-06
3.49422e-06
3.49427e-06
3.49439e-06
3.4943e-06
3.49424e-06
3.49418e-06
3.49411e-06
3.49404e-06
3.49398e-06
3.49393e-06
3.49391e-06
3.49392e-06
3.49395e-06
3.49399e-06
3.49406e-06
3.49412e-06
3.49418e-06
3.49422e-06
3.49427e-06
3.49437e-06
3.49429e-06
3.49423e-06
3.49418e-06
3.49411e-06
3.49404e-06
3.49398e-06
3.49394e-06
3.49392e-06
3.49392e-06
3.49395e-06
3.494e-06
3.49406e-06
3.49412e-06
3.49417e-06
3.49421e-06
3.49426e-06
3.49434e-06
3.49427e-06
3.49422e-06
3.49418e-06
3.49412e-06
3.49406e-06
3.494e-06
3.49396e-06
3.49395e-06
3.49395e-06
3.49397e-06
3.49402e-06
3.49407e-06
3.49413e-06
3.49416e-06
3.49419e-06
3.49423e-06
3.49429e-06
3.49424e-06
3.49421e-06
3.49418e-06
3.49414e-06
3.49409e-06
3.49404e-06
3.49401e-06
3.49399e-06
3.494e-06
3.49402e-06
3.49405e-06
3.49409e-06
3.49413e-06
3.49415e-06
3.49415e-06
3.49417e-06
3.4942e-06
3.49418e-06
3.49418e-06
3.49418e-06
3.49416e-06
3.49413e-06
3.4941e-06
3.49407e-06
3.49406e-06
3.49406e-06
3.49407e-06
3.49409e-06
3.49412e-06
3.49414e-06
3.49413e-06
3.4941e-06
3.49409e-06
3.49407e-06
3.49409e-06
3.49413e-06
3.49416e-06
3.49418e-06
3.49417e-06
3.49415e-06
3.49413e-06
3.49412e-06
3.49412e-06
3.49413e-06
3.49413e-06
3.49414e-06
3.49412e-06
3.49408e-06
3.494e-06
3.49395e-06
3.49388e-06
3.49394e-06
3.49403e-06
3.49411e-06
3.49417e-06
3.49418e-06
3.49419e-06
3.49418e-06
3.49418e-06
3.49417e-06
3.49416e-06
3.49415e-06
3.49413e-06
3.49408e-06
3.49399e-06
3.49386e-06
3.49376e-06
3.49364e-06
3.49375e-06
3.4939e-06
3.49403e-06
3.49413e-06
3.49418e-06
3.49421e-06
3.49422e-06
3.49422e-06
3.49421e-06
3.49419e-06
3.49415e-06
3.4941e-06
3.494e-06
3.49386e-06
3.49367e-06
3.49352e-06
3.49342e-06
3.49359e-06
3.49379e-06
3.49397e-06
3.49411e-06
3.49419e-06
3.49424e-06
3.49427e-06
3.49427e-06
3.49426e-06
3.49423e-06
3.49417e-06
3.49409e-06
3.49395e-06
3.49376e-06
3.49352e-06
3.49329e-06
3.45293e-06
3.45329e-06
3.45362e-06
3.45395e-06
3.45422e-06
3.45441e-06
3.45453e-06
3.4546e-06
3.45463e-06
3.4546e-06
3.45452e-06
3.4544e-06
3.45421e-06
3.45395e-06
3.45359e-06
3.4532e-06
3.45279e-06
3.45329e-06
3.45356e-06
3.45385e-06
3.45414e-06
3.45438e-06
3.45455e-06
3.45466e-06
3.45472e-06
3.45474e-06
3.45472e-06
3.45465e-06
3.45454e-06
3.45437e-06
3.45413e-06
3.45381e-06
3.45346e-06
3.45315e-06
3.45362e-06
3.45385e-06
3.4541e-06
3.45435e-06
3.45455e-06
3.45469e-06
3.45479e-06
3.45484e-06
3.45485e-06
3.45483e-06
3.45478e-06
3.45468e-06
3.45453e-06
3.45433e-06
3.45406e-06
3.45375e-06
3.45348e-06
3.45395e-06
3.45414e-06
3.45435e-06
3.45455e-06
3.45472e-06
3.45484e-06
3.45491e-06
3.45495e-06
3.45496e-06
3.45495e-06
3.4549e-06
3.45482e-06
3.4547e-06
3.45453e-06
3.4543e-06
3.45404e-06
3.45381e-06
3.45422e-06
3.45438e-06
3.45455e-06
3.45472e-06
3.45486e-06
3.45495e-06
3.45501e-06
3.45504e-06
3.45505e-06
3.45504e-06
3.455e-06
3.45493e-06
3.45483e-06
3.45469e-06
3.4545e-06
3.45428e-06
3.45408e-06
3.45441e-06
3.45455e-06
3.45469e-06
3.45484e-06
3.45495e-06
3.45503e-06
3.45508e-06
3.4551e-06
3.45511e-06
3.45509e-06
3.45506e-06
3.45501e-06
3.45492e-06
3.45481e-06
3.45464e-06
3.45445e-06
3.45427e-06
3.45453e-06
3.45466e-06
3.45479e-06
3.45491e-06
3.45501e-06
3.45508e-06
3.45512e-06
3.45513e-06
3.45514e-06
3.45513e-06
3.4551e-06
3.45505e-06
3.45498e-06
3.45488e-06
3.45473e-06
3.45456e-06
3.4544e-06
3.4546e-06
3.45472e-06
3.45484e-06
3.45495e-06
3.45504e-06
3.4551e-06
3.45513e-06
3.45515e-06
3.45515e-06
3.45514e-06
3.45512e-06
3.45508e-06
3.45501e-06
3.45492e-06
3.45478e-06
3.45462e-06
3.45447e-06
3.45463e-06
3.45474e-06
3.45486e-06
3.45497e-06
3.45505e-06
3.45511e-06
3.45514e-06
3.45515e-06
3.45515e-06
3.45514e-06
3.45512e-06
3.45508e-06
3.45502e-06
3.45493e-06
3.4548e-06
3.45464e-06
3.45449e-06
3.4546e-06
3.45472e-06
3.45483e-06
3.45495e-06
3.45504e-06
3.45509e-06
3.45513e-06
3.45514e-06
3.45514e-06
3.45513e-06
3.45511e-06
3.45507e-06
3.455e-06
3.45491e-06
3.45478e-06
3.45462e-06
3.45446e-06
3.45453e-06
3.45465e-06
3.45478e-06
3.4549e-06
3.455e-06
3.45506e-06
3.4551e-06
3.45512e-06
3.45512e-06
3.45511e-06
3.45508e-06
3.45504e-06
3.45497e-06
3.45487e-06
3.45472e-06
3.45455e-06
3.45439e-06
3.4544e-06
3.45454e-06
3.45468e-06
3.45482e-06
3.45493e-06
3.45501e-06
3.45505e-06
3.45508e-06
3.45508e-06
3.45507e-06
3.45504e-06
3.45498e-06
3.4549e-06
3.45479e-06
3.45462e-06
3.45443e-06
3.45426e-06
3.45421e-06
3.45437e-06
3.45454e-06
3.4547e-06
3.45483e-06
3.45493e-06
3.45498e-06
3.45501e-06
3.45502e-06
3.45501e-06
3.45497e-06
3.4549e-06
3.45481e-06
3.45467e-06
3.45448e-06
3.45426e-06
3.45407e-06
3.45395e-06
3.45413e-06
3.45433e-06
3.45453e-06
3.45469e-06
3.45481e-06
3.45488e-06
3.45492e-06
3.45493e-06
3.45491e-06
3.45487e-06
3.45479e-06
3.45467e-06
3.45451e-06
3.45429e-06
3.45403e-06
3.45381e-06
3.45359e-06
3.45382e-06
3.45406e-06
3.4543e-06
3.4545e-06
3.45464e-06
3.45473e-06
3.45478e-06
3.4548e-06
3.45478e-06
3.45472e-06
3.45462e-06
3.45448e-06
3.45429e-06
3.45402e-06
3.45372e-06
3.45345e-06
3.4532e-06
3.45347e-06
3.45375e-06
3.45404e-06
3.45428e-06
3.45445e-06
3.45456e-06
3.45462e-06
3.45464e-06
3.45462e-06
3.45455e-06
3.45443e-06
3.45427e-06
3.45403e-06
3.45372e-06
3.45337e-06
3.45306e-06
3.45279e-06
3.45315e-06
3.45348e-06
3.45381e-06
3.45408e-06
3.45427e-06
3.4544e-06
3.45447e-06
3.45449e-06
3.45446e-06
3.45439e-06
3.45426e-06
3.45407e-06
3.45381e-06
3.45345e-06
3.45306e-06
3.45264e-06
3.41344e-06
3.41388e-06
3.41428e-06
3.4147e-06
3.41505e-06
3.41531e-06
3.41549e-06
3.4156e-06
3.41563e-06
3.4156e-06
3.4155e-06
3.41532e-06
3.41507e-06
3.41473e-06
3.41427e-06
3.4138e-06
3.41331e-06
3.41388e-06
3.41422e-06
3.41459e-06
3.41497e-06
3.4153e-06
3.41554e-06
3.41571e-06
3.41581e-06
3.41584e-06
3.41581e-06
3.41571e-06
3.41555e-06
3.41531e-06
3.41499e-06
3.41458e-06
3.41414e-06
3.41374e-06
3.41428e-06
3.41459e-06
3.41493e-06
3.41527e-06
3.41557e-06
3.41579e-06
3.41594e-06
3.41603e-06
3.41606e-06
3.41603e-06
3.41594e-06
3.41579e-06
3.41558e-06
3.41529e-06
3.41491e-06
3.41451e-06
3.41415e-06
3.4147e-06
3.41497e-06
3.41527e-06
3.41558e-06
3.41585e-06
3.41604e-06
3.41618e-06
3.41626e-06
3.41628e-06
3.41626e-06
3.41618e-06
3.41604e-06
3.41585e-06
3.41559e-06
3.41526e-06
3.41489e-06
3.41458e-06
3.41505e-06
3.4153e-06
3.41557e-06
3.41585e-06
3.41608e-06
3.41626e-06
3.41638e-06
3.41645e-06
3.41647e-06
3.41645e-06
3.41638e-06
3.41626e-06
3.41609e-06
3.41585e-06
3.41555e-06
3.41521e-06
3.41493e-06
3.41531e-06
3.41554e-06
3.41579e-06
3.41604e-06
3.41626e-06
3.41642e-06
3.41653e-06
3.41659e-06
3.41661e-06
3.41659e-06
3.41652e-06
3.41642e-06
3.41626e-06
3.41604e-06
3.41577e-06
3.41546e-06
3.41519e-06
3.41549e-06
3.41571e-06
3.41594e-06
3.41618e-06
3.41638e-06
3.41653e-06
3.41663e-06
3.41669e-06
3.4167e-06
3.41668e-06
3.41662e-06
3.41652e-06
3.41638e-06
3.41618e-06
3.41592e-06
3.41563e-06
3.41537e-06
3.4156e-06
3.41581e-06
3.41603e-06
3.41626e-06
3.41645e-06
3.41659e-06
3.41669e-06
3.41674e-06
3.41676e-06
3.41674e-06
3.41668e-06
3.41658e-06
3.41644e-06
3.41625e-06
3.416e-06
3.41572e-06
3.41547e-06
3.41563e-06
3.41584e-06
3.41606e-06
3.41628e-06
3.41647e-06
3.41661e-06
3.4167e-06
3.41676e-06
3.41677e-06
3.41676e-06
3.4167e-06
3.41661e-06
3.41647e-06
3.41628e-06
3.41603e-06
3.41576e-06
3.41551e-06
3.4156e-06
3.41581e-06
3.41603e-06
3.41626e-06
3.41645e-06
3.41659e-06
3.41668e-06
3.41674e-06
3.41676e-06
3.41674e-06
3.41668e-06
3.41658e-06
3.41644e-06
3.41625e-06
3.416e-06
3.41573e-06
3.41547e-06
3.4155e-06
3.41571e-06
3.41594e-06
3.41618e-06
3.41638e-06
3.41653e-06
3.41662e-06
3.41668e-06
3.4167e-06
3.41668e-06
3.41662e-06
3.41652e-06
3.41637e-06
3.41618e-06
3.41592e-06
3.41563e-06
3.41537e-06
3.41532e-06
3.41555e-06
3.41579e-06
3.41605e-06
3.41626e-06
3.41642e-06
3.41652e-06
3.41659e-06
3.41661e-06
3.41658e-06
3.41652e-06
3.41641e-06
3.41626e-06
3.41605e-06
3.41577e-06
3.41546e-06
3.4152e-06
3.41507e-06
3.41531e-06
3.41558e-06
3.41585e-06
3.41609e-06
3.41626e-06
3.41638e-06
3.41645e-06
3.41647e-06
3.41644e-06
3.41637e-06
3.41626e-06
3.41609e-06
3.41586e-06
3.41556e-06
3.41523e-06
3.41494e-06
3.41473e-06
3.41499e-06
3.41529e-06
3.41559e-06
3.41585e-06
3.41605e-06
3.41618e-06
3.41625e-06
3.41628e-06
3.41625e-06
3.41618e-06
3.41605e-06
3.41586e-06
3.4156e-06
3.41527e-06
3.41491e-06
3.4146e-06
3.41428e-06
3.41458e-06
3.41492e-06
3.41526e-06
3.41555e-06
3.41577e-06
3.41592e-06
3.416e-06
3.41603e-06
3.416e-06
3.41592e-06
3.41577e-06
3.41556e-06
3.41527e-06
3.4149e-06
3.4145e-06
3.41415e-06
3.4138e-06
3.41414e-06
3.41451e-06
3.41489e-06
3.41522e-06
3.41546e-06
3.41563e-06
3.41572e-06
3.41576e-06
3.41573e-06
3.41563e-06
3.41546e-06
3.41523e-06
3.41491e-06
3.4145e-06
3.41406e-06
3.41367e-06
3.41331e-06
3.41374e-06
3.41415e-06
3.41458e-06
3.41493e-06
3.41519e-06
3.41537e-06
3.41547e-06
3.41551e-06
3.41547e-06
3.41537e-06
3.4152e-06
3.41494e-06
3.4146e-06
3.41415e-06
3.41367e-06
3.41318e-06
3.37486e-06
3.37528e-06
3.37567e-06
3.3761e-06
3.37646e-06
3.37673e-06
3.37692e-06
3.37704e-06
3.37708e-06
3.37704e-06
3.37693e-06
3.37675e-06
3.37648e-06
3.37613e-06
3.37567e-06
3.37521e-06
3.37474e-06
3.37528e-06
3.37561e-06
3.37598e-06
3.37638e-06
3.37672e-06
3.37698e-06
3.37717e-06
3.37728e-06
3.37732e-06
3.37728e-06
3.37718e-06
3.377e-06
3.37674e-06
3.37641e-06
3.37598e-06
3.37554e-06
3.37515e-06
3.37567e-06
3.37598e-06
3.37633e-06
3.3767e-06
3.37702e-06
3.37726e-06
3.37743e-06
3.37753e-06
3.37757e-06
3.37754e-06
3.37744e-06
3.37727e-06
3.37704e-06
3.37672e-06
3.37633e-06
3.37591e-06
3.37555e-06
3.3761e-06
3.37638e-06
3.3767e-06
3.37703e-06
3.37733e-06
3.37755e-06
3.37771e-06
3.3778e-06
3.37784e-06
3.37781e-06
3.37772e-06
3.37756e-06
3.37735e-06
3.37706e-06
3.37669e-06
3.3763e-06
3.37598e-06
3.37646e-06
3.37672e-06
3.37702e-06
3.37733e-06
3.3776e-06
3.37781e-06
3.37795e-06
3.37804e-06
3.37807e-06
3.37804e-06
3.37796e-06
3.37782e-06
3.37762e-06
3.37735e-06
3.37701e-06
3.37665e-06
3.37634e-06
3.37673e-06
3.37698e-06
3.37726e-06
3.37755e-06
3.37781e-06
3.378e-06
3.37814e-06
3.37822e-06
3.37825e-06
3.37822e-06
3.37814e-06
3.37801e-06
3.37782e-06
3.37757e-06
3.37725e-06
3.37691e-06
3.37662e-06
3.37692e-06
3.37717e-06
3.37743e-06
3.37771e-06
3.37795e-06
3.37814e-06
3.37827e-06
3.37834e-06
3.37837e-06
3.37834e-06
3.37827e-06
3.37814e-06
3.37796e-06
3.37772e-06
3.37742e-06
3.37709e-06
3.37681e-06
3.37704e-06
3.37728e-06
3.37753e-06
3.3778e-06
3.37804e-06
3.37822e-06
3.37834e-06
3.37842e-06
3.37844e-06
3.37842e-06
3.37835e-06
3.37822e-06
3.37805e-06
3.37782e-06
3.37752e-06
3.3772e-06
3.37692e-06
3.37708e-06
3.37732e-06
3.37757e-06
3.37784e-06
3.37807e-06
3.37825e-06
3.37837e-06
3.37844e-06
3.37847e-06
3.37844e-06
3.37837e-06
3.37825e-06
3.37808e-06
3.37785e-06
3.37756e-06
3.37724e-06
3.37696e-06
3.37704e-06
3.37728e-06
3.37754e-06
3.37781e-06
3.37804e-06
3.37822e-06
3.37835e-06
3.37842e-06
3.37844e-06
3.37842e-06
3.37835e-06
3.37823e-06
3.37805e-06
3.37782e-06
3.37753e-06
3.37721e-06
3.37693e-06
3.37693e-06
3.37718e-06
3.37744e-06
3.37772e-06
3.37796e-06
3.37814e-06
3.37827e-06
3.37835e-06
3.37837e-06
3.37835e-06
3.37827e-06
3.37815e-06
3.37797e-06
3.37773e-06
3.37743e-06
3.3771e-06
3.37682e-06
3.37675e-06
3.377e-06
3.37728e-06
3.37756e-06
3.37782e-06
3.37801e-06
3.37814e-06
3.37822e-06
3.37825e-06
3.37823e-06
3.37815e-06
3.37802e-06
3.37783e-06
3.37758e-06
3.37727e-06
3.37692e-06
3.37663e-06
3.37648e-06
3.37674e-06
3.37704e-06
3.37735e-06
3.37762e-06
3.37782e-06
3.37796e-06
3.37805e-06
3.37808e-06
3.37805e-06
3.37797e-06
3.37783e-06
3.37763e-06
3.37736e-06
3.37703e-06
3.37667e-06
3.37637e-06
3.37613e-06
3.37641e-06
3.37673e-06
3.37706e-06
3.37735e-06
3.37757e-06
3.37772e-06
3.37782e-06
3.37785e-06
3.37782e-06
3.37773e-06
3.37758e-06
3.37736e-06
3.37708e-06
3.37672e-06
3.37633e-06
3.37602e-06
3.37568e-06
3.37598e-06
3.37633e-06
3.37669e-06
3.37701e-06
3.37725e-06
3.37742e-06
3.37752e-06
3.37756e-06
3.37753e-06
3.37743e-06
3.37727e-06
3.37703e-06
3.37672e-06
3.37633e-06
3.37591e-06
3.37556e-06
3.37521e-06
3.37554e-06
3.37591e-06
3.3763e-06
3.37665e-06
3.37691e-06
3.3771e-06
3.37721e-06
3.37724e-06
3.37721e-06
3.3771e-06
3.37692e-06
3.37667e-06
3.37633e-06
3.37591e-06
3.37547e-06
3.37509e-06
3.37474e-06
3.37516e-06
3.37555e-06
3.37598e-06
3.37634e-06
3.37662e-06
3.37681e-06
3.37692e-06
3.37696e-06
3.37693e-06
3.37682e-06
3.37663e-06
3.37637e-06
3.37602e-06
3.37556e-06
3.37509e-06
3.37462e-06
3.33713e-06
3.33748e-06
3.33782e-06
3.33821e-06
3.33854e-06
3.3388e-06
3.33898e-06
3.33909e-06
3.33912e-06
3.33909e-06
3.33899e-06
3.33882e-06
3.33857e-06
3.33825e-06
3.33783e-06
3.33742e-06
3.33702e-06
3.33748e-06
3.33777e-06
3.3381e-06
3.33846e-06
3.33878e-06
3.33903e-06
3.33921e-06
3.33932e-06
3.33936e-06
3.33933e-06
3.33922e-06
3.33905e-06
3.33881e-06
3.3385e-06
3.33811e-06
3.33771e-06
3.33737e-06
3.33782e-06
3.3381e-06
3.33842e-06
3.33876e-06
3.33906e-06
3.3393e-06
3.33947e-06
3.33957e-06
3.3396e-06
3.33957e-06
3.33948e-06
3.33932e-06
3.33909e-06
3.33879e-06
3.33842e-06
3.33804e-06
3.33772e-06
3.33821e-06
3.33846e-06
3.33876e-06
3.33908e-06
3.33936e-06
3.33958e-06
3.33974e-06
3.33984e-06
3.33987e-06
3.33984e-06
3.33975e-06
3.3396e-06
3.33939e-06
3.33911e-06
3.33876e-06
3.3384e-06
3.3381e-06
3.33854e-06
3.33878e-06
3.33906e-06
3.33936e-06
3.33963e-06
3.33984e-06
3.33999e-06
3.34008e-06
3.34011e-06
3.34008e-06
3.34e-06
3.33985e-06
3.33965e-06
3.33939e-06
3.33906e-06
3.33872e-06
3.33844e-06
3.3388e-06
3.33903e-06
3.3393e-06
3.33958e-06
3.33984e-06
3.34004e-06
3.34018e-06
3.34026e-06
3.34029e-06
3.34026e-06
3.34018e-06
3.34005e-06
3.33986e-06
3.33961e-06
3.3393e-06
3.33897e-06
3.33869e-06
3.33898e-06
3.33921e-06
3.33947e-06
3.33974e-06
3.33999e-06
3.34018e-06
3.34031e-06
3.34039e-06
3.34042e-06
3.34039e-06
3.34032e-06
3.34019e-06
3.34e-06
3.33976e-06
3.33946e-06
3.33915e-06
3.33887e-06
3.33909e-06
3.33932e-06
3.33957e-06
3.33984e-06
3.34008e-06
3.34026e-06
3.34039e-06
3.34047e-06
3.3405e-06
3.34047e-06
3.3404e-06
3.34027e-06
3.34009e-06
3.33986e-06
3.33956e-06
3.33925e-06
3.33898e-06
3.33912e-06
3.33936e-06
3.3396e-06
3.33987e-06
3.34011e-06
3.34029e-06
3.34042e-06
3.3405e-06
3.34052e-06
3.3405e-06
3.34043e-06
3.3403e-06
3.34012e-06
3.33989e-06
3.3396e-06
3.33929e-06
3.33902e-06
3.33909e-06
3.33933e-06
3.33958e-06
3.33984e-06
3.34008e-06
3.34026e-06
3.34039e-06
3.34047e-06
3.3405e-06
3.34048e-06
3.3404e-06
3.34028e-06
3.3401e-06
3.33986e-06
3.33957e-06
3.33926e-06
3.33899e-06
3.33899e-06
3.33922e-06
3.33948e-06
3.33975e-06
3.34e-06
3.34018e-06
3.34032e-06
3.3404e-06
3.34043e-06
3.3404e-06
3.34032e-06
3.3402e-06
3.34001e-06
3.33977e-06
3.33948e-06
3.33916e-06
3.33889e-06
3.33882e-06
3.33905e-06
3.33932e-06
3.3396e-06
3.33985e-06
3.34005e-06
3.34019e-06
3.34027e-06
3.3403e-06
3.34028e-06
3.3402e-06
3.34006e-06
3.33987e-06
3.33962e-06
3.33932e-06
3.33899e-06
3.33871e-06
3.33857e-06
3.33881e-06
3.33909e-06
3.33939e-06
3.33965e-06
3.33986e-06
3.34e-06
3.34009e-06
3.34012e-06
3.3401e-06
3.34001e-06
3.33987e-06
3.33967e-06
3.33941e-06
3.33909e-06
3.33875e-06
3.33846e-06
3.33825e-06
3.3385e-06
3.33879e-06
3.33911e-06
3.33939e-06
3.33961e-06
3.33976e-06
3.33986e-06
3.33989e-06
3.33986e-06
3.33977e-06
3.33962e-06
3.33941e-06
3.33913e-06
3.33879e-06
3.33843e-06
3.33814e-06
3.33783e-06
3.33811e-06
3.33843e-06
3.33876e-06
3.33907e-06
3.3393e-06
3.33947e-06
3.33957e-06
3.3396e-06
3.33957e-06
3.33948e-06
3.33932e-06
3.33909e-06
3.33879e-06
3.33843e-06
3.33805e-06
3.33773e-06
3.33743e-06
3.33772e-06
3.33804e-06
3.3384e-06
3.33872e-06
3.33897e-06
3.33915e-06
3.33925e-06
3.33929e-06
3.33926e-06
3.33916e-06
3.33899e-06
3.33875e-06
3.33843e-06
3.33805e-06
3.33766e-06
3.33732e-06
3.33702e-06
3.33737e-06
3.33772e-06
3.3381e-06
3.33844e-06
3.33869e-06
3.33887e-06
3.33898e-06
3.33902e-06
3.33899e-06
3.33889e-06
3.33871e-06
3.33846e-06
3.33814e-06
3.33773e-06
3.33732e-06
3.33691e-06
3.30001e-06
3.30029e-06
3.30057e-06
3.30089e-06
3.30117e-06
3.3014e-06
3.30156e-06
3.30165e-06
3.30169e-06
3.30166e-06
3.30157e-06
3.30142e-06
3.3012e-06
3.30093e-06
3.30058e-06
3.30025e-06
3.29992e-06
3.30029e-06
3.30053e-06
3.3008e-06
3.30111e-06
3.30139e-06
3.30161e-06
3.30176e-06
3.30186e-06
3.30189e-06
3.30187e-06
3.30178e-06
3.30163e-06
3.30141e-06
3.30114e-06
3.30081e-06
3.30048e-06
3.3002e-06
3.30057e-06
3.3008e-06
3.30107e-06
3.30136e-06
3.30163e-06
3.30184e-06
3.30199e-06
3.30208e-06
3.30212e-06
3.30209e-06
3.302e-06
3.30186e-06
3.30166e-06
3.3014e-06
3.30108e-06
3.30075e-06
3.30048e-06
3.30089e-06
3.30111e-06
3.30136e-06
3.30164e-06
3.3019e-06
3.30209e-06
3.30224e-06
3.30233e-06
3.30236e-06
3.30233e-06
3.30225e-06
3.30211e-06
3.30192e-06
3.30167e-06
3.30137e-06
3.30106e-06
3.3008e-06
3.30117e-06
3.30139e-06
3.30163e-06
3.3019e-06
3.30214e-06
3.30233e-06
3.30246e-06
3.30254e-06
3.30257e-06
3.30255e-06
3.30247e-06
3.30234e-06
3.30216e-06
3.30192e-06
3.30164e-06
3.30133e-06
3.30109e-06
3.3014e-06
3.30161e-06
3.30184e-06
3.30209e-06
3.30233e-06
3.30251e-06
3.30264e-06
3.30272e-06
3.30274e-06
3.30272e-06
3.30265e-06
3.30252e-06
3.30235e-06
3.30212e-06
3.30184e-06
3.30155e-06
3.30131e-06
3.30156e-06
3.30176e-06
3.30199e-06
3.30224e-06
3.30246e-06
3.30264e-06
3.30276e-06
3.30284e-06
3.30287e-06
3.30284e-06
3.30277e-06
3.30265e-06
3.30248e-06
3.30226e-06
3.30199e-06
3.30171e-06
3.30147e-06
3.30165e-06
3.30186e-06
3.30208e-06
3.30233e-06
3.30254e-06
3.30272e-06
3.30284e-06
3.30291e-06
3.30294e-06
3.30292e-06
3.30285e-06
3.30273e-06
3.30256e-06
3.30235e-06
3.30208e-06
3.30181e-06
3.30157e-06
3.30169e-06
3.30189e-06
3.30212e-06
3.30236e-06
3.30257e-06
3.30274e-06
3.30287e-06
3.30294e-06
3.30297e-06
3.30294e-06
3.30287e-06
3.30276e-06
3.30259e-06
3.30238e-06
3.30212e-06
3.30184e-06
3.3016e-06