/*--------------------------------*- C++ -*----------------------------------*\
  =========                 |
  \\      /  F ield         | OpenFOAM: The Open Source CFD Toolbox
   \\    /   O peration     | Website:  https://openfoam.org
    \\  /    A nd           | Version:  6
     \\/     M anipulation  |
\*---------------------------------------------------------------------------*/
FoamFile
{
    version     2.0;
    format      ascii;
    class       volVectorField;
    location    "0";
    object      U;
}
// * * * * * * * * * * * * * * * * * * * * * * * * * * * * * * * * * * * * * //

dimensions      [0 1 -1 0 0 0 0];

internalField   nonuniform List<vector> 
13046
(
(-0.251145 0.0413236 0)
(-0.738619 -0.377834 -2.61135e-21)
(-0.213845 -0.193766 -5.26617e-21)
(-0.286209 -0.0516426 0)
(-0.126702 -0.117637 -5.0713e-21)
(-0.624529 -0.368455 0)
(-0.314832 -0.0303709 8.35195e-22)
(-0.704834 -0.419033 1.27487e-21)
(-0.0908774 -0.0994349 -5.44857e-21)
(-0.861196 0.34247 2.17949e-21)
(-1.4046 -0.729965 0)
(0.0603345 0.00720191 3.00857e-21)
(-0.358168 0.076023 -2.69404e-21)
(-0.913016 -0.481872 -3.50146e-21)
(-0.104955 -0.13467 2.79444e-21)
(-0.787811 0.382593 -2.93359e-21)
(0.002745 -0.0234518 7.12269e-21)
(-1.46454 -0.650657 -2.26559e-22)
(-0.131481 -0.0577672 0)
(-0.448238 -0.306572 -2.76162e-21)
(-0.410059 -0.169831 8.67588e-21)
(-0.801388 0.373932 -1.20043e-21)
(0.0187974 -0.0141963 -9.52252e-21)
(-1.45542 -0.669483 0)
(-0.229529 -0.0304626 3.43559e-21)
(-0.596637 -0.32199 -6.59639e-21)
(-0.212504 -0.181544 0)
(-0.365491 0.106365 -4.86021e-21)
(-0.948717 -0.482037 1.05553e-21)
(-0.124027 -0.14882 -4.8735e-21)
(-0.250989 0.0642494 0)
(-0.768904 -0.367714 0)
(-0.239006 -0.214792 5.35886e-21)
(-0.220545 -0.057459 -3.99179e-21)
(-0.238533 -0.189178 1.89132e-21)
(-0.51607 -0.28034 1.14912e-20)
(-0.243462 -0.0842393 -6.08263e-21)
(-0.227141 -0.168304 2.95403e-21)
(-0.47835 -0.270581 -5.83509e-21)
(-0.169194 0.0767408 4.11585e-21)
(-0.475044 -0.383517 9.31428e-22)
(-0.689919 -0.260638 -4.16319e-21)
(-0.306892 -0.157808 2.71441e-21)
(-0.246647 -0.150639 4.54361e-21)
(-0.350416 -0.214582 0)
(-0.327277 -0.152226 1.82134e-21)
(-0.19538 -0.119215 -7.0125e-21)
(-0.390581 -0.246058 -8.59395e-22)
(-0.272015 0.0340113 0)
(-0.761874 -0.402763 -1.81424e-22)
(-0.163004 -0.165404 -7.22345e-23)
(-0.732908 -0.579449 5.36248e-21)
(-0.130597 0.098059 0)
(-0.68962 -0.171027 -4.84674e-21)
(-0.82216 -0.640561 -7.638e-21)
(-0.666721 -0.142656 -8.01435e-21)
(-0.102985 0.0844934 5.93743e-21)
(-1.32797 -0.494226 -4.84822e-22)
(-0.582829 0.331548 0)
(-0.219082 -0.214572 3.99691e-21)
(-0.542324 0.0868662 -2.60902e-21)
(-1.11535 -0.681784 1.69592e-21)
(0.0432013 -0.0277787 -1.15682e-20)
(0.0472027 -0.0247084 5.64352e-21)
(-1.40032 -0.732172 -3.34256e-22)
(-0.763446 0.279997 -3.86117e-21)
(-0.540581 0.321187 0)
(-1.27165 -0.446763 0)
(-0.283076 -0.273718 0)
(-0.501239 0.297971 -1.75817e-21)
(-1.22053 -0.429516 0)
(-0.305679 -0.292662 3.16892e-21)
(-1.37448 -0.503359 0)
(-0.621661 0.353372 2.07094e-23)
(-0.197519 -0.200996 -5.56107e-23)
(-0.123717 -0.036782 0)
(-0.448339 -0.320217 2.96441e-21)
(-0.4566 -0.197264 -6.095e-21)
(-0.120142 -0.13114 4.34248e-21)
(-0.676769 0.367625 -5.38164e-21)
(-1.42291 -0.555807 0)
(-0.2514 -0.0230039 1.83406e-21)
(-0.636854 -0.349183 0)
(-0.172493 -0.152739 0)
(0.0492875 -0.0174727 -4.99972e-21)
(-1.41843 -0.733813 -2.27951e-23)
(-0.794495 0.301513 2.27908e-21)
(-0.796127 0.202415 -4.09946e-21)
(0.0846213 -0.0090462 0)
(-1.35693 -0.826464 -3.28798e-22)
(0.063479 -0.00143122 0)
(-0.869941 0.137066 0)
(-1.3256 -0.924428 1.82202e-23)
(-0.558851 0.194996 0)
(-0.603359 0.205706 2.27818e-21)
(-1.21815 -0.623662 2.9254e-21)
(-1.26036 -0.661314 -1.33979e-21)
(-0.0284885 -0.0868712 -2.37852e-21)
(0.0022133 -0.0645478 6.12829e-21)
(0.0847179 -0.00728627 -2.92668e-22)
(-0.788244 0.177277 4.01063e-21)
(-1.33538 -0.844287 0)
(-0.319047 -0.12843 -7.88397e-24)
(-0.166151 -0.112513 3.61447e-21)
(-0.454218 -0.286167 0)
(-0.039473 0.038858 0)
(-0.552782 -0.10102 -2.55719e-21)
(-0.796905 -0.577428 0)
(-0.120269 0.0783934 6.93706e-21)
(-0.650444 -0.502726 0)
(-0.648287 -0.192809 -9.67267e-21)
(-0.845451 0.361467 0)
(0.0501885 0.0228599 0)
(-1.24587 -0.668436 2.08288e-21)
(-0.318719 0.0529526 7.43376e-21)
(-0.851034 -0.447159 1.63118e-21)
(-0.118234 -0.137006 5.10261e-21)
(-0.615917 0.259656 2.87795e-21)
(-0.567723 0.22649 -5.42748e-21)
(-1.30635 -0.617899 -2.40375e-21)
(-0.0518422 -0.0956677 2.69622e-21)
(-1.24608 -0.60079 1.22856e-21)
(-0.0579827 -0.103595 -2.51863e-21)
(-0.859315 0.357131 -1.58263e-21)
(-1.3885 -0.712416 1.5559e-21)
(0.0563115 0.0125881 -1.33772e-21)
(-0.466318 0.157402 0)
(-1.09837 -0.557749 -2.33615e-21)
(-0.0780383 -0.12477 5.79809e-21)
(-0.203476 0.0894492 0)
(-0.415063 -0.344803 -4.74126e-21)
(-0.741785 -0.29723 2.42396e-22)
(0.0585041 0.00276636 0)
(-0.827817 0.114975 0)
(-1.30879 -0.912886 0)
(-0.68605 0.214812 0)
(-1.32162 -0.730812 -2.7423e-21)
(0.049647 -0.0337647 -6.52109e-21)
(-0.287304 0.0855913 0)
(-0.83544 -0.401913 0)
(-0.22065 -0.213711 0)
(-0.421229 -0.00995463 0)
(-0.869406 -0.549996 0)
(-0.00602967 -0.0390241 0)
(-0.10404 0.0765226 0)
(-0.713323 -0.545949 0)
(-0.638717 -0.167787 5.27927e-21)
(-0.0416405 0.0275396 -6.94634e-22)
(-0.531376 -0.108798 -5.65605e-21)
(-0.776477 -0.552769 5.15887e-21)
(-0.573692 0.109566 6.01263e-21)
(-1.16076 -0.699852 0)
(0.0488056 -0.0332598 1.49971e-20)
(-0.0422949 -0.0196995 0)
(-0.435126 -0.0955075 5.99477e-21)
(-0.699107 -0.473616 -1.33109e-21)
(-0.971403 -0.721969 0)
(-0.624959 -0.0631856 5.84813e-21)
(-1.04236 -0.754976 0)
(-0.622113 -0.0244821 3.39182e-21)
(-0.0335783 0.052095 0)
(-0.0027729 0.0363029 0)
(-0.473236 -0.0468437 7.91456e-22)
(-0.855942 -0.579881 2.56394e-21)
(-0.000381167 -0.00792427 -3.00334e-21)
(-0.878188 0.324673 -2.23556e-21)
(0.0689013 0.00517529 0)
(-1.38528 -0.755161 9.3383e-22)
(-0.853589 0.363361 -1.28544e-21)
(0.0526148 0.0219197 -6.10839e-22)
(-1.31018 -0.684013 0)
(-0.704073 0.237295 -3.32576e-21)
(-1.34474 -0.726971 0)
(0.0447108 -0.0348348 7.4063e-21)
(-0.276525 0.152301 0)
(-0.877433 -0.323704 1.18814e-21)
(-0.439973 -0.380292 2.67192e-21)
(-0.476266 -0.066875 5.12338e-21)
(-0.0148027 0.00241209 1.47482e-21)
(-0.804574 -0.545648 0)
(0.081081 -0.00120333 0)
(-1.38402 -0.808777 0)
(-0.886549 0.279862 1.84061e-21)
(-0.236614 0.129519 0)
(-0.814933 -0.298492 -2.69448e-21)
(-0.45738 -0.378704 7.01472e-22)
(-0.0323464 -0.00530172 0)
(-0.4559 -0.0933782 0)
(-0.714826 -0.492784 0)
(-0.395023 -0.0302863 2.52976e-21)
(-0.813689 -0.517322 0)
(-0.0194769 -0.046481 0)
(-0.98789 -0.540469 2.38938e-23)
(-0.0523948 -0.101327 -3.48781e-21)
(-0.431494 0.132803 7.682e-21)
(-1.05032 -0.537008 0)
(-0.0815522 -0.123558 -7.26272e-21)
(-0.818731 0.257491 -4.08704e-21)
(0.0771871 -0.00960863 4.58382e-21)
(-1.39548 -0.792876 -5.24729e-22)
(0.0730922 8.92391e-06 4.26462e-21)
(-0.785941 0.130228 2.52452e-21)
(-1.30751 -0.878436 1.95683e-21)
(-0.856417 0.178855 -6.59407e-21)
(-1.35079 -0.877573 0)
(0.0828472 -0.00552525 -4.1787e-21)
(-0.771953 -0.631454 -2.68916e-22)
(-0.781846 -0.182579 2.1514e-21)
(-0.184698 0.140709 0)
(-0.357395 0.0193633 -1.14182e-20)
(-0.664549 0.37891 2.75338e-21)
(-0.147191 -0.150979 -2.67168e-21)
(-1.42429 -0.543292 0)
(-1.35757 -0.872821 0)
(-0.883651 0.206114 -5.77162e-21)
(0.0852351 -0.00651482 0)
(-0.279301 -0.0938438 -9.01669e-21)
(-0.174477 -0.132271 -2.90173e-21)
(-0.501725 -0.300008 8.49034e-21)
(-0.342903 0.114877 0)
(-0.928996 -0.456129 -1.56706e-22)
(-0.1708 -0.177423 -2.77029e-21)
(0.0638036 0.00345165 3.30604e-21)
(-0.794979 0.114894 0)
(-1.29731 -0.89557 -2.25555e-21)
(-0.387744 0.0422533 9.15018e-21)
(-0.965235 -0.545141 6.18332e-21)
(-0.0383449 -0.0894979 0)
(0.0669501 0.0105283 0)
(-1.32011 -0.739976 -1.87868e-21)
(-0.895167 0.333316 0)
(-0.150483 0.119913 0)
(-0.740539 -0.1562 0)
(-0.826659 -0.673442 0)
(-0.81532 0.1628 5.78479e-21)
(-1.33846 -0.86385 0)
(0.0826442 -0.00486588 -3.55605e-23)
(-0.54185 -0.0338564 2.22087e-21)
(-0.950338 -0.666646 -1.81739e-21)
(0.00862254 0.0161698 0)
(-0.465372 0.177003 0)
(-1.10912 -0.541902 2.19971e-21)
(-0.106474 -0.140677 4.55824e-21)
(-1.21863 -0.900494 -4.29247e-21)
(-0.754934 0.0341629 -4.52786e-21)
(0.0120527 0.0301301 2.60612e-21)
(-0.659695 -0.01275 0)
(-1.09647 -0.800743 -2.11313e-21)
(-0.00369538 0.0384759 -9.68786e-23)
(0.0667439 0.00786198 -3.98762e-21)
(-1.2901 -0.744045 0)
(-0.907511 0.322772 -1.20947e-21)
(-0.180322 0.11172 3.74165e-21)
(-0.583719 -0.468109 -3.31326e-21)
(-0.73944 -0.241582 3.96613e-22)
(-0.775926 0.391895 1.18818e-21)
(0.0369348 0.0351812 -5.70085e-21)
(-1.24444 -0.587425 0)
(-0.120716 -0.0742895 -1.73315e-21)
(-0.366698 -0.138772 -7.01794e-21)
(-0.493491 -0.325345 8.26835e-21)
(-0.511558 0.0120132 2.74059e-21)
(-0.512504 -0.0251109 4.25547e-23)
(-0.998836 -0.657342 -4.51686e-21)
(-0.935762 -0.641564 0)
(0.0138509 0.00281132 2.73002e-21)
(0.0311196 -0.0104321 -2.78434e-21)
(-0.0886499 -0.101595 -5.68381e-21)
(-0.706718 0.378254 2.87014e-21)
(-1.45368 -0.571831 -3.57437e-22)
(-0.426267 0.171561 0)
(-1.06383 -0.501508 0)
(-0.155194 -0.17154 -5.97316e-21)
(-0.683862 0.0185397 -1.20742e-21)
(-1.15093 -0.837216 0)
(0.0154387 0.0292329 0)
(-0.654439 0.241971 -2.79227e-21)
(-1.31915 -0.671156 0)
(0.00472247 -0.0604264 2.64237e-21)
(-0.266927 -0.136136 1.80543e-21)
(-0.360485 -0.203777 2.62639e-21)
(-0.276489 -0.175356 -9.09638e-22)
(-0.586318 -0.00618032 -4.3142e-21)
(-1.03951 -0.729884 0)
(0.0190331 0.0204548 -4.5712e-21)
(-0.43798 0.191134 0)
(-1.0896 -0.494661 2.77787e-21)
(-0.174024 -0.186722 -3.71906e-21)
(-0.397131 0.0714821 0)
(-0.43514 0.0921053 9.12905e-22)
(-0.193007 0.124057 1.34011e-21)
(-0.602394 -0.489551 9.5303e-21)
(-0.762878 -0.236848 -9.39107e-21)
(-0.598882 0.0244352 -4.47834e-21)
(-1.0903 -0.753051 3.39956e-21)
(0.0386002 0.00999687 4.1728e-21)
(-0.68763 0.251157 0)
(0.0236147 -0.0462997 -9.42133e-21)
(-1.35042 -0.697207 -1.00452e-21)
(-0.118648 0.0646252 -9.62521e-21)
(-0.610409 -0.475488 0)
(-0.627924 -0.197718 3.20078e-21)
(-0.0550915 0.066895 -5.40496e-21)
(-0.657392 -0.0723561 -3.27636e-21)
(-0.974796 -0.746493 0)
(-0.555335 0.258393 -2.73511e-21)
(-1.2547 -0.547225 -2.05712e-21)
(-0.129929 -0.150676 1.64566e-21)
(-0.163793 0.117299 4.80123e-22)
(-0.695392 -0.557212 0)
(-0.734875 -0.196093 6.69272e-21)
(-0.594672 0.282307 0)
(-0.621618 0.284872 0)
(-1.30641 -0.56927 -1.07329e-21)
(-0.111665 -0.135284 -4.31812e-21)
(-1.32819 -0.601781 1.51941e-21)
(-0.076104 -0.107706 4.56091e-21)
(0.0776942 -0.00246234 -3.50359e-21)
(-1.39525 -0.793314 0)
(-0.86507 0.28815 -2.78102e-21)
(-0.525705 0.213923 3.22001e-21)
(-1.19672 -0.569937 0)
(-0.0912041 -0.126963 1.5378e-21)
(-1.07704 -0.589551 -7.88532e-21)
(0.034268 0.0269605 5.01397e-21)
(-0.760839 0.357312 1.75967e-21)
(-0.427142 -0.128325 -3.32619e-21)
(-0.0678591 -0.0272129 0)
(-0.604151 -0.410353 0)
(-0.493519 0.0694842 6.24029e-21)
(-1.05665 -0.63731 0)
(0.0286466 -0.0395474 8.99102e-21)
(0.0698614 -0.0166208 -2.92541e-21)
(-0.777247 0.2459 8.43028e-21)
(-1.38039 -0.772108 9.24686e-22)
(-0.853565 -0.669922 0)
(-0.683874 -0.132241 2.92679e-21)
(-0.105369 0.093811 -6.73073e-21)
(-1.2475 -0.903863 -4.31833e-21)
(-0.767121 0.0634878 -2.74379e-21)
(0.0338158 0.0174328 0)
(-0.872759 -0.499302 -6.79197e-21)
(-0.0558371 -0.0917892 0)
(-0.51488 0.123768 6.58979e-21)
(-1.11319 -0.626933 1.93879e-21)
(0.00514434 -0.067667 2.70542e-21)
(-0.860806 -0.515772 3.87477e-21)
(-0.0351707 -0.0756152 -2.3008e-23)
(-0.768348 0.367013 -1.91366e-22)
(-0.00997631 -0.0386109 3.37948e-21)
(-1.45942 -0.643605 3.3285e-22)
(-0.752009 -0.640089 0)
(-0.836607 -0.20312 6.49325e-22)
(-0.222367 0.163647 0)
(-0.552869 0.145456 -6.71075e-21)
(-1.17611 -0.654781 -2.36153e-21)
(0.0202487 -0.0567313 -3.22201e-21)
(-0.446699 -0.0172348 0)
(-0.876062 -0.574579 -3.72272e-21)
(0.00345539 -0.0241207 0)
(-0.594293 -0.129563 0)
(-0.768305 -0.582363 0)
(-0.0699013 0.0566181 0)
(-0.269331 0.0055714 -2.53937e-21)
(-0.709533 -0.389003 -3.95872e-21)
(-0.154104 -0.151818 -1.40656e-23)
(-0.0823613 0.0837128 6.69595e-21)
(-0.678196 -0.099865 7.97407e-21)
(-0.929223 -0.720869 3.43567e-21)
(-0.835686 0.230016 -3.38453e-21)
(-1.37609 -0.820176 3.62335e-22)
(0.0852287 -0.00733609 -4.35256e-21)
(-1.25754 -0.884582 3.04292e-21)
(-0.75257 0.0781792 2.78029e-21)
(0.0493372 0.0115083 3.36932e-21)
(-0.423083 0.259705 -5.33767e-21)
(-0.401961 -0.364943 4.70997e-21)
(-1.1188 -0.374427 -3.33901e-21)
(-0.650653 0.334059 1.57284e-21)
(-0.616733 0.313059 -1.45306e-21)
(-1.34446 -0.552179 -3.4207e-22)
(-1.38354 -0.565986 0)
(-0.114548 -0.129496 -1.53821e-21)
(-0.134511 -0.149485 -1.39516e-21)
(0.0376321 0.0304508 -6.79275e-21)
(-1.12979 -0.589381 8.6873e-21)
(-0.771569 0.362706 8.80049e-22)
(-0.78624 0.395664 -8.81324e-23)
(0.0367848 0.0334332 7.88845e-21)
(-1.29228 -0.596961 0)
(-0.545739 0.0337361 -1.00045e-20)
(-1.06439 -0.69216 -9.16618e-22)
(0.0395888 -0.00838018 0)
(0.0747274 -0.00675764 -8.81709e-21)
(-0.835484 0.276667 2.76586e-21)
(-1.40572 -0.784398 0)
(-0.499995 0.270835 7.94643e-21)
(-0.535609 0.282413 -5.90566e-21)
(-1.2045 -0.469747 2.4269e-21)
(-1.24718 -0.49745 8.54084e-22)
(-0.25 -0.242033 -2.76598e-21)
(-0.204605 -0.204982 -1.38627e-21)
(0.0799288 -0.0101001 0)
(-1.3298 -0.873075 0)
(-0.939321 0.213143 9.51981e-22)
(-0.728907 0.391014 -1.39492e-21)
(0.0330017 0.0392592 0)
(-1.18955 -0.547588 0)
(-0.420286 -0.202559 4.18781e-23)
(-0.171667 -0.0700365 3.8984e-21)
(-0.357875 -0.253152 1.85186e-21)
(-0.802771 0.371478 -2.12243e-21)
(-1.21933 -0.628362 -3.04639e-21)
(0.0430069 0.0295672 3.71548e-22)
(-0.324897 0.167225 0)
(-0.943113 -0.370724 -5.1132e-21)
(-0.357602 -0.319417 -7.38379e-23)
(-0.890431 0.264383 8.78051e-23)
(-1.37814 -0.825496 -8.79688e-22)
(0.0844728 -0.00317283 4.67571e-24)
(-0.948441 -0.582787 -2.22499e-22)
(0.0294627 0.0143311 -2.92283e-21)
(-0.751667 0.298717 -3.88068e-22)
(-0.13694 0.0514756 -3.54529e-21)
(-0.489439 -0.379569 3.05059e-21)
(-0.623122 -0.233914 1.02034e-20)
(-0.355864 -0.111135 0)
(-0.571882 -0.366856 -9.1758e-21)
(-0.0981743 -0.0714056 4.65463e-21)
(-0.842878 0.374436 0)
(0.0485054 0.0140559 3.98253e-21)
(-1.39598 -0.694961 -1.48234e-22)
(-0.375058 -0.10027 0)
(-0.610623 -0.394241 -3.06143e-21)
(-0.0737837 -0.0515106 -6.62325e-21)
(-0.386722 -0.1927 3.98467e-21)
(-0.194253 -0.0936334 -2.06029e-21)
(-0.343881 -0.233538 9.97025e-22)
(-0.142087 0.118996 3.23474e-21)
(-0.748078 -0.136054 -2.75174e-21)
(-0.90064 -0.735541 3.80588e-21)
(-0.464982 -0.176948 0)
(-0.495713 -0.346143 0)
(-0.10127 -0.0188953 5.67477e-22)
(-0.461272 -0.148692 5.26194e-21)
(-0.566615 -0.388094 2.34341e-21)
(-0.0824748 -0.0136328 7.9598e-23)
(-0.385746 0.240287 8.10461e-21)
(-1.05797 -0.34544 -3.77973e-21)
(-0.456107 -0.412365 -4.71107e-21)
(0.0442223 -0.00355188 6.01342e-21)
(0.0543524 -0.000833962 -6.17233e-21)
(-1.43577 -0.714941 -6.35674e-22)
(-1.4245 -0.730234 -3.26727e-22)
(-0.827396 0.353615 0)
(-0.840674 0.341481 -2.2315e-21)
(-0.86296 0.237955 4.19576e-21)
(-1.37852 -0.830096 2.41418e-22)
(0.0863142 -0.00601887 5.40328e-21)
(-0.385456 -0.361478 -3.04876e-21)
(-0.461659 0.288358 1.69284e-21)
(-1.17174 -0.386845 4.25516e-21)
(-0.19764 0.111056 -3.41579e-21)
(-0.5172 -0.420261 -3.04981e-21)
(-0.756985 -0.265689 3.11882e-21)
(-0.693588 -0.0358234 0)
(-1.08488 -0.823845 2.18737e-21)
(-0.0367856 0.0562693 1.00146e-22)
(-1.08402 -0.689286 -2.29138e-21)
(0.0506589 -9.67253e-05 -2.74114e-21)
(-0.886527 0.288093 -6.91216e-22)
(0.073013 -0.00499602 0)
(-0.882209 0.161639 0)
(-1.33393 -0.913454 3.88155e-23)
(-0.871314 0.351432 1.65338e-21)
(0.0596875 0.0154996 0)
(-1.33735 -0.715597 1.84387e-21)
(0.0228509 0.0179164 -1.08911e-32)
(-0.880673 -0.538277 4.29228e-21)
(-0.691381 0.290914 3.01511e-22)
(-0.909187 -0.479796 -4.84526e-21)
(0.0221316 0.0285958 1.08654e-32)
(-0.649858 0.335007 -2.80536e-22)
(-1.19046 -0.765862 -4.26561e-21)
(-0.631377 0.0904476 0)
(0.0619643 -0.00787192 -8.6629e-21)
(-1.25879 -0.815499 8.89559e-22)
(0.0725298 -0.0110517 -2.82361e-21)
(-0.965072 0.251 0)
(-0.710461 0.207471 -4.24066e-21)
(-1.32631 -0.757179 1.62692e-21)
(0.0629996 -0.0253799 4.3887e-21)
(-0.788442 0.413906 5.66446e-21)
(0.00117225 -0.00658077 2.36378e-21)
(-1.4639 -0.607188 0)
(-0.328663 0.0259879 1.99702e-21)
(-0.0850169 -0.110623 -1.76066e-21)
(-0.83638 -0.467526 1.67556e-21)
(-1.33746 -0.89035 -8.89181e-23)
(0.0795397 -0.00945655 3.01206e-21)
(-0.924897 0.197468 1.19017e-21)
(-0.691534 -0.0565199 -3.22413e-21)
(-0.055992 0.0683632 -1.80908e-21)
(-1.04214 -0.798109 0)
(-1.17003 -0.831126 0)
(-0.67714 0.041204 0)
(0.0353445 0.0191463 0)
(0.00607682 0.0153669 0)
(-0.50625 -0.274252 4.85137e-21)
(-0.393003 0.183691 -3.15101e-22)
(-1.07498 -0.618799 -3.26628e-21)
(0.0374601 0.0206962 -3.51963e-21)
(-0.790647 0.340486 -9.3457e-22)
(-0.304593 0.0021711 -5.14413e-21)
(-0.10469 -0.119114 4.30451e-21)
(-0.758645 -0.432217 2.02218e-21)
(-1.34602 -0.839903 -1.89848e-21)
(-0.925534 0.247691 -1.88378e-21)
(0.082992 -0.00633023 0)
(0.0767398 -0.0127794 -3.13187e-21)
(-0.960734 0.217885 0)
(-1.30171 -0.86955 1.32502e-21)
(-0.81971 0.299798 -2.50855e-21)
(0.0612911 -0.0091678 9.34462e-21)
(-1.41864 -0.753398 0)
(-0.0471362 -0.0708917 -6.85912e-21)
(-1.44289 -0.616369 6.11329e-22)
(-0.724271 0.35785 0)
(-0.370181 0.244389 -1.01516e-20)
(-1.03991 -0.323891 4.81545e-21)
(-0.520314 -0.466367 -1.48073e-21)
(-1.31185 -0.52068 5.15632e-22)
(-0.583243 0.312784 3.45591e-21)
(-0.186348 -0.190587 -4.2691e-21)
(-0.0451565 -0.059707 -6.13006e-21)
(-0.748908 0.395343 0)
(-1.47975 -0.599009 0)
(-0.349304 0.156921 -1.74135e-21)
(-0.397369 0.182041 0)
(-0.967188 -0.418728 -5.22418e-21)
(-1.04212 -0.452356 5.59094e-21)
(-0.262529 -0.242353 7.79744e-22)
(-0.232684 -0.227144 -8.30604e-22)
(-0.316209 0.15112 1.67182e-21)
(-0.925169 -0.383536 0)
(-0.319728 -0.285666 1.45146e-21)
(-0.490637 0.280994 0)
(-1.19876 -0.449618 -3.94448e-21)
(-0.287297 -0.273831 9.98378e-22)
(-1.22907 -0.858573 -1.68845e-21)
(-0.720171 0.0676042 2.98628e-21)
(0.0493795 0.0111554 -6.84983e-21)
(-1.36484 -0.861823 0)
(-0.878027 0.225419 6.33438e-21)
(0.0863075 -0.00603365 0)
(0.0707507 -0.000286658 -2.21234e-21)
(-0.740336 0.114427 -1.83775e-21)
(-1.27927 -0.852136 -1.02319e-21)
(-0.977308 -0.495348 7.09016e-22)
(0.0258295 0.0325259 1.86909e-21)
(-0.678971 0.351937 0)
(-0.191547 0.0601144 3.32717e-21)
(-0.203032 0.0485794 0)
(-0.361633 -0.294326 0)
(-0.695753 -0.300368 1.18538e-20)
(-0.318239 -0.263696 0)
(-0.695332 -0.320796 -7.60083e-21)
(-0.418786 0.238823 0)
(-0.368069 0.210001 0)
(-0.379382 -0.340709 3.33709e-23)
(-1.09599 -0.408099 2.96009e-21)
(-0.339595 -0.307356 7.29114e-21)
(-1.02355 -0.37653 -6.52967e-21)
(-0.936335 -0.607239 0)
(0.0335845 0.00628258 4.00534e-21)
(-0.791164 0.28461 0)
(-1.35614 -0.835506 6.35559e-22)
(-0.909469 0.245636 6.36977e-22)
(0.0846954 -0.00482127 1.88974e-21)
(-0.234079 0.146278 -5.75138e-21)
(-0.577719 -0.482885 -3.33893e-21)
(-0.822846 -0.262937 9.65329e-21)
(-1.17554 -0.87112 3.96844e-21)
(-0.721879 0.0130687 7.6096e-21)
(0.00240802 0.0365172 0)
(-0.0677843 -0.0896173 7.33573e-21)
(-1.42949 -0.601623 -6.50034e-22)
(-0.704754 0.354326 3.7142e-21)
(-1.20594 -0.687955 0)
(-0.870977 0.338282 0)
(0.0529098 0.0156301 0)
(-1.23692 -0.72296 0)
(-0.897084 0.32347 1.33696e-21)
(0.060926 0.00873572 6.75199e-22)
(-0.529319 0.262376 -3.35832e-21)
(-1.22893 -0.519336 1.25775e-21)
(-0.174819 -0.183436 2.04971e-21)
(-0.0968582 0.0491502 -9.21196e-22)
(-0.621052 -0.466453 0)
(-0.585636 -0.176329 -3.75112e-23)
(-0.839689 0.317234 2.92288e-21)
(0.0610796 -0.00386797 5.4039e-21)
(-1.42509 -0.748803 3.80278e-22)
(-1.21325 -0.798268 0)
(-0.664345 0.0950596 0)
(0.0649245 -0.00106228 7.47947e-21)
(0.0241745 -0.0398769 1.80337e-21)
(-1.38587 -0.70343 1.53485e-21)
(-0.725915 0.282896 8.53617e-21)
(-0.341811 0.200748 0)
(-0.428836 -0.379436 -4.9532e-21)
(-0.984312 -0.352205 3.47035e-21)
(-0.555759 -0.0648485 2.17342e-23)
(-0.893666 -0.639135 2.66461e-21)
(-0.0164617 0.0304844 0)
(-0.16353 0.0836033 1.8082e-23)
(-0.524126 -0.419629 -1.0331e-21)
(-0.691542 -0.247012 -4.08397e-21)
(0.0707501 6.04319e-05 1.09029e-23)
(-1.40528 -0.771656 -1.25674e-21)
(-0.864588 0.309227 3.0071e-21)
(-0.655623 0.268261 -1.59495e-21)
(-1.34018 -0.650303 -7.43887e-22)
(-0.0213142 -0.0729226 0)
(-0.147012 0.0414879 -3.60836e-21)
(-0.437743 -0.339676 6.70046e-21)
(-0.621711 -0.251271 -6.7285e-21)
(-0.764857 0.409055 2.31703e-21)
(-0.0309342 -0.0413491 2.68926e-21)
(-1.48671 -0.597845 7.28467e-22)
(-0.283632 0.104617 -2.1446e-21)
(-0.849752 -0.388634 0)
(-0.262402 -0.242183 0)
(-0.402046 -0.0591475 -9.29826e-21)
(-0.740146 -0.480658 1.83663e-21)
(-0.0319704 -0.0363909 0)
(-1.15539 -0.794258 0)
(-0.643327 0.0433197 6.39895e-21)
(0.0450058 0.0127114 0)
(-0.795513 0.405438 -1.0863e-21)
(0.0294243 0.0238934 -8.37218e-22)
(-1.38237 -0.61265 -2.93338e-21)
(-0.787567 0.413816 3.02493e-21)
(0.0203119 0.0181556 0)
(-1.40984 -0.600681 1.96119e-21)
(0.00849982 -0.0458254 1.60297e-21)
(-1.40142 -0.684089 -5.35647e-22)
(-0.727232 0.301289 -7.83681e-21)
(-0.597201 -0.0835315 -2.92424e-21)
(-0.916801 -0.677234 -2.74095e-21)
(-0.0384582 0.0467711 0)
(0.0303832 0.0332584 7.6702e-22)
(-1.32349 -0.585486 2.7336e-21)
(-0.768332 0.40432 0)
(0.0720907 -0.0177279 0)
(-1.35483 -0.77935 -6.91513e-22)
(-0.753776 0.220179 -9.89307e-22)
(0.0161204 0.0131157 3.21302e-21)
(-0.741006 -0.488042 -4.30439e-21)
(-0.621535 0.244037 0)
(-0.549205 0.312651 -5.14671e-22)
(-0.799205 -0.394313 0)
(0.0165687 0.0291635 3.19831e-21)
(-0.0355622 -0.0556308 -1.39997e-23)
(-1.46548 -0.620373 0)
(-0.748747 0.378883 0)
(0.0720369 0.00598707 0)
(-1.36378 -0.766511 0)
(-0.895826 0.317236 3.65059e-21)
(-0.806772 0.346213 -2.62321e-21)
(-0.786576 0.328941 2.1221e-21)
(0.0321393 -0.0149756 -3.0223e-21)
(-1.44902 -0.697714 1.39924e-22)
(0.0310614 -0.0221784 -4.9554e-21)
(-1.43716 -0.703648 2.37355e-23)
(-0.756095 0.200163 1.94773e-21)
(-1.34276 -0.799149 5.81963e-22)
(0.0786176 -0.0142585 0)
(-0.0314203 0.0548664 0)
(-1.12903 -0.865001 0)
(-0.723904 -0.0189921 0)
(-0.207707 0.0123557 0)
(-0.264572 -0.221037 -9.5132e-21)
(-0.644574 -0.321416 4.11472e-21)
(-0.728096 0.146491 5.69201e-21)
(-1.29277 -0.820951 3.25733e-22)
(0.0792496 -0.00830863 6.4763e-21)
(0.0737063 -0.00376906 4.2244e-21)
(-0.715341 0.124017 -7.91496e-21)
(-1.26734 -0.82733 -4.51268e-22)
(-0.72642 0.399552 2.81731e-21)
(-0.0768702 -0.0869618 2.92588e-21)
(-1.47766 -0.571921 3.73149e-22)
(-0.438595 0.255639 0)
(-1.12958 -0.410237 1.18867e-21)
(-0.342838 -0.315508 -7.14741e-21)
(-0.363102 0.191014 0)
(-0.999099 -0.390989 6.71195e-21)
(-0.340667 -0.310413 -1.84198e-23)
(-0.62188 0.127175 -7.6348e-21)
(-1.21564 -0.741884 5.34705e-22)
(0.0615287 -0.0243176 -3.77628e-21)
(-0.645413 0.122125 0)
(-1.22585 -0.763761 5.16978e-22)
(0.0674217 -0.016367 3.45505e-21)
(-0.133453 0.0181858 0)
(-0.437308 -0.330058 -1.05628e-20)
(-0.565405 -0.232864 3.76321e-21)
(-0.414422 0.198958 0)
(-1.06619 -0.450588 0)
(-0.243188 -0.239892 1.11574e-21)
(0.0736929 -0.00952491 -6.51789e-21)
(-1.32414 -0.907399 2.13135e-22)
(-0.925353 0.178136 0)
(-0.918448 0.30454 1.44039e-21)
(0.0619009 0.00219848 0)
(-1.19793 -0.735824 -1.52068e-21)
(-0.917701 0.288122 -1.97106e-22)
(0.0578986 -0.00181903 0)
(-1.15151 -0.725855 4.61708e-21)
(-0.238863 0.115869 2.4671e-21)
(-0.406059 -0.338226 -1.09582e-21)
(-0.807069 -0.321388 -1.61778e-22)
(-1.12381 -0.654571 2.56262e-22)
(0.0462499 0.014385 5.39489e-21)
(-0.849918 0.329135 0)
(-0.694 0.29717 6.78535e-21)
(-0.0164924 -0.0632331 3.40564e-21)
(-1.38142 -0.657357 0)
(0.0445908 0.00648795 -8.0432e-22)
(-1.06564 -0.664882 3.28117e-21)
(-0.851898 0.301631 0)
(-0.302866 -0.0772835 6.27406e-21)
(-0.128135 -0.10512 5.94087e-21)
(-0.578133 -0.34819 9.44798e-24)
(-0.456877 0.121206 -1.13901e-21)
(-1.06595 -0.572451 -7.78595e-22)
(-0.0414953 -0.0977274 -3.95708e-21)
(-0.847277 -0.64219 6.29053e-21)
(-0.615962 -0.112724 6.82284e-21)
(-0.0669419 0.0618773 0)
(0.0766867 -0.00968692 0)
(-1.29092 -0.831156 9.11461e-22)
(-0.957003 0.247029 0)
(-1.19537 -0.811439 0)
(-0.667921 0.075679 0)
(0.0579686 0.00534106 0)
(-0.0075085 -0.0218941 0)
(-0.784155 0.403579 -2.03518e-21)
(-1.47729 -0.617864 -7.15857e-22)
(-0.50285 0.141297 0)
(-1.11909 -0.607385 4.20383e-22)
(-0.0186509 -0.083242 3.86504e-21)
(-0.2041 -0.00786452 0)
(-0.260717 -0.213765 8.18437e-21)
(-0.601913 -0.306453 0)
(-1.32571 -0.82396 1.79234e-21)
(-0.934617 0.267622 1.78967e-21)
(0.0798488 -0.00502032 0)
(0.0573202 -0.0229977 -3.73199e-21)
(-1.37941 -0.751992 3.99786e-23)
(-0.756282 0.25916 1.84347e-22)
(-0.829437 0.384636 0)
(-0.824921 0.385829 1.79368e-21)
(0.0428508 0.0221735 -1.95727e-21)
(0.044186 0.0260324 -2.39257e-21)
(-1.36733 -0.653575 1.54686e-21)
(-1.33373 -0.649681 -1.27258e-21)
(-0.479126 0.0185794 0)
(-0.969673 -0.627144 1.05629e-20)
(0.022945 -0.0239057 4.35156e-21)
(-1.13784 -0.733673 6.03234e-21)
(-0.593624 0.066403 0)
(0.0550088 -0.0071667 -4.64976e-21)
(-0.342767 -0.0353846 -5.22418e-21)
(-0.725378 -0.443849 3.14719e-21)
(-0.0605246 -0.0759542 7.10596e-21)
(-1.24987 -0.776302 -2.50468e-21)
(-0.937782 0.288964 1.76207e-21)
(-1.23456 -0.788898 1.34076e-21)
(0.068963 -0.00180439 0)
(-0.952322 0.270374 -1.70156e-21)
(0.0687829 -0.0066682 0)
(-0.601053 0.184996 0)
(-1.23874 -0.678049 0)
(0.0199442 -0.0555136 4.20773e-21)
(-0.925987 0.28484 2.86708e-21)
(-0.929924 0.2942 -5.21783e-21)
(-1.32826 -0.800211 -1.65978e-21)
(-1.29509 -0.778347 3.46746e-21)
(0.0768112 -0.000642613 5.5101e-21)
(0.0722445 0.00127934 -1.44556e-23)
(-0.576566 0.0448987 0)
(-1.0953 -0.729331 -6.01596e-21)
(0.0442217 0.000898779 6.03357e-21)
(-0.417674 0.0478515 5.0134e-21)
(-0.99882 -0.578234 -4.83068e-21)
(-0.00777383 -0.0699354 0)
(-0.798859 0.40805 0)
(0.0159807 0.00496599 0)
(-1.44431 -0.624303 -1.88464e-21)
(-0.471469 0.0425455 3.7297e-21)
(-0.994847 -0.617412 -2.93485e-21)
(0.0239353 -0.0351314 -7.12662e-21)
(-0.361539 -0.00860561 2.12781e-21)
(-0.80754 -0.493958 -3.69732e-21)
(-0.0378538 -0.0699853 4.05958e-21)
(-0.813997 0.3936 0)
(0.0351103 0.0203652 0)
(-1.3952 -0.642455 2.50379e-21)
(-0.515632 0.166484 0)
(-1.16045 -0.59867 7.42943e-22)
(-0.0334213 -0.0932044 -4.15339e-21)
(-1.02112 -0.803194 0)
(-0.720699 -0.0789446 0)
(-0.0864032 0.0860475 -2.3284e-22)
(-0.346576 0.212391 -2.62781e-22)
(-0.994077 -0.337066 0)
(-0.462147 -0.4102 7.5541e-21)
(-1.2817 -0.928553 1.54284e-21)
(0.0397893 0.0106105 0)
(-0.81321 0.0862196 0)
(0.0119417 0.0194407 -7.70742e-21)
(-0.684044 -0.380719 -6.78681e-21)
(-0.522116 0.245623 4.40966e-22)
(-0.480889 0.0894913 0)
(-1.05196 -0.611142 2.94085e-21)
(0.0091064 -0.0597168 -3.57044e-21)
(-0.812816 0.381098 3.99813e-21)
(0.025799 -0.00282898 1.0148e-20)
(-1.45278 -0.662434 0)
(-0.636946 -0.553345 -1.92301e-21)
(-0.935919 -0.266273 -3.44987e-21)
(-0.295459 0.202203 -2.24339e-21)
(-0.654007 0.364721 0)
(0.0269671 0.0384934 -2.80857e-21)
(-1.03028 -0.487849 0)
(-0.0562439 0.0118004 4.49357e-21)
(-0.0628812 0.0301886 -4.58617e-21)
(-0.654778 -0.469789 0)
(-0.497339 -0.133118 4.38857e-21)
(-0.689809 -0.504186 -6.65024e-21)
(-0.537989 -0.141682 -3.50943e-21)
(-0.366738 -0.0643941 4.92689e-21)
(-0.684126 -0.432679 4.3077e-21)
(-0.0566142 -0.0571495 0)
(-0.10769 0.0395169 4.08261e-21)
(-0.0825239 0.0185065 0)
(-0.548656 -0.413824 -3.80264e-21)
(-0.579831 -0.200662 3.90945e-21)
(-0.573934 -0.418533 3.83272e-21)
(-0.523845 -0.168875 2.42454e-23)
(-0.447114 0.0762907 3.14502e-22)
(-0.937989 -0.560474 -2.18385e-21)
(-0.00900955 -0.0623289 -4.95119e-21)
(-0.429585 0.0312879 -8.67515e-21)
(-0.939722 -0.573272 5.5912e-23)
(0.00216969 -0.0494 0)
(0.0616057 -0.00798094 0)
(-1.16517 -0.75868 0)
(-0.944741 0.270054 1.38414e-21)
(-0.274048 0.125917 -2.27797e-21)
(-0.855446 -0.354171 0)
(-0.34289 -0.296776 2.01907e-21)
(-0.904856 0.293803 -5.93474e-21)
(-1.36193 -0.795551 -1.28097e-21)
(0.077578 0.00193507 -3.14032e-21)
(-0.643725 0.159305 0)
(-0.68398 0.178719 4.08378e-21)
(-1.25629 -0.736847 -6.67178e-22)
(-1.29461 -0.757064 1.59786e-21)
(0.0601559 -0.0283296 -4.62732e-21)
(0.0665496 -0.0240979 -4.23525e-21)
(-0.259045 0.103341 0)
(-0.820861 -0.359222 0)
(-0.311988 -0.274772 9.84241e-22)
(-0.466742 0.244201 2.62818e-21)
(-1.14998 -0.460593 0)
(-0.25355 -0.243309 2.38063e-21)
(-0.568878 0.136674 -2.16731e-21)
(-1.17765 -0.685168 0)
(0.0386403 -0.0433829 0)
(-0.184888 -0.0531034 4.76267e-21)
(-0.480862 -0.245076 -2.24785e-21)
(-0.305091 -0.229836 2.23379e-21)
(-0.696688 0.150821 0)
(-1.2802 -0.792018 0)
(0.0756047 -0.0138338 -6.89022e-21)
(-0.181648 0.020341 0)
(-0.324345 -0.260351 1.17534e-21)
(-0.627029 -0.294163 0)
(-0.562097 0.0652398 -4.93434e-21)
(-1.10475 -0.711212 -3.41355e-21)
(0.047315 -0.016402 -6.04995e-22)
(-0.459087 0.224546 2.71185e-21)
(-1.13278 -0.476452 0)
(-0.218078 -0.22049 4.90592e-21)
(-0.174449 -0.0272995 -4.71841e-21)
(-0.152022 -0.0204845 -2.08508e-21)
(-0.525741 -0.260704 2.24892e-21)
(-0.317096 -0.244731 -4.45167e-21)
(-0.51587 -0.242212 0)
(-0.366678 -0.277403 -7.84655e-21)
(-0.10927 0.0027575 -2.05446e-21)
(-0.478387 -0.354227 4.91093e-21)
(-0.0897953 0.00560303 1.32027e-21)
(-0.516965 -0.200311 -5.31798e-21)
(-0.555638 -0.401809 -2.4228e-21)
(-0.506658 -0.175214 1.06147e-22)
(-0.333862 0.135124 2.53832e-21)
(-0.37198 0.143563 0)
(-0.935526 -0.424606 4.01584e-21)
(-0.983869 -0.46144 -3.13874e-21)
(-0.232817 -0.221789 -4.55253e-21)
(-0.181898 -0.18608 7.56232e-21)
(-0.0278334 -0.061953 0)
(-1.42596 -0.641424 -2.45462e-22)
(-0.722898 0.336804 -3.8904e-21)
(-0.103251 0.0963938 2.84961e-21)
(-0.715072 -0.105447 4.33787e-21)
(-0.955242 -0.756949 -5.98737e-21)
(-0.00613484 -0.043515 -3.4489e-21)
(0.0115416 -0.0364609 2.7652e-21)
(-1.44033 -0.662888 2.1256e-22)
(-1.42846 -0.683388 4.90181e-22)
(-0.752281 0.346153 9.89336e-21)
(-0.758351 0.327979 -5.13702e-21)
(-0.187371 0.135111 4.15213e-21)
(-0.71161 -0.579727 -3.13334e-21)
(-0.773528 -0.204852 9.4092e-22)
(-0.235974 -0.105269 8.05741e-21)
(-0.27293 -0.187081 0)
(-0.41045 -0.225595 -7.82069e-21)
(-0.713188 0.176151 -1.93163e-21)
(-1.30613 -0.786531 -1.80391e-21)
(0.0751703 -0.0165724 0)
(-0.216843 0.0803206 0)
(-0.355155 -0.303155 -9.36747e-22)
(-0.746262 -0.317775 -3.78027e-21)
(-0.485483 0.232398 0)