/*--------------------------------*- C++ -*----------------------------------*\
  =========                 |
  \\      /  F ield         | OpenFOAM: The Open Source CFD Toolbox
   \\    /   O peration     | Website:  https://openfoam.org
    \\  /    A nd           | Version:  6
     \\/     M anipulation  |
\*---------------------------------------------------------------------------*/
FoamFile
{
    version     2.0;
    format      ascii;
    class       volVectorField;
    location    "0";
    object      U_rec;
}
// * * * * * * * * * * * * * * * * * * * * * * * * * * * * * * * * * * * * * //

dimensions      [0 1 -1 0 0 0 0];

internalField   nonuniform List<vector> 
13046
(
(-0.179268 0.0404521 0)
(-0.705564 -0.363983 -7.64391e-22)
(-0.205378 -0.126158 -1.56451e-21)
(-0.23938 -0.0455796 0)
(-0.125942 -0.0610549 -1.67772e-21)
(-0.595599 -0.33717 0)
(-0.254612 -0.0318694 2.98771e-22)
(-0.670219 -0.38692 3.49166e-22)
(-0.0929289 -0.0395134 -1.81756e-21)
(-0.562034 0.220304 7.55782e-22)
(-1.28309 -0.701249 0)
(0.0485943 0.0971623 7.91937e-22)
(-0.24348 0.055342 -1.03186e-21)
(-0.868968 -0.466593 -6.16632e-22)
(-0.105239 -0.0616526 8.57723e-22)
(-0.508984 0.255209 -1.0739e-21)
(0.00556116 0.0662538 1.68921e-21)
(-1.34946 -0.64344 -1.49651e-21)
(-0.118417 -0.0192932 0)
(-0.42672 -0.257463 -8.47415e-22)
(-0.384782 -0.158724 3.04131e-21)
(-0.51832 0.246802 -4.27328e-22)
(0.0182384 0.0752139 -2.2822e-21)
(-1.3394 -0.657982 0)
(-0.187107 -0.0173814 1.25072e-21)
(-0.570652 -0.299582 -2.13631e-21)
(-0.206348 -0.122913 0)
(-0.24211 0.0802601 -1.86027e-21)
(-0.9033 -0.472331 2.08051e-22)
(-0.121009 -0.0731674 -1.44293e-21)
(-0.171621 0.0613575 0)
(-0.734891 -0.360582 0)
(-0.227621 -0.145029 1.59225e-21)
(-0.190428 -0.0373498 -1.45328e-21)
(-0.230857 -0.135459 5.96564e-22)
(-0.493626 -0.256076 3.71189e-21)
(-0.218402 -0.0630499 -2.15643e-21)
(-0.219949 -0.118324 9.90914e-22)
(-0.4575 -0.241237 -1.85959e-21)
(-0.109552 0.0900652 1.53152e-21)
(-0.443465 -0.312025 2.4365e-22)
(-0.657493 -0.270603 -1.33533e-21)
(-0.29037 -0.129438 9.19989e-22)
(-0.235949 -0.112036 1.56812e-21)
(-0.335741 -0.177475 0)
(-0.307613 -0.129709 6.74661e-22)
(-0.186319 -0.079219 -2.42443e-21)
(-0.373899 -0.206333 -2.81254e-22)
(-0.195488 0.0308765 0)
(-0.726943 -0.386447 -4.98115e-23)
(-0.159005 -0.0981061 -5.70948e-23)
(-0.68044 -0.503664 9.74226e-22)
(-0.0820553 0.120058 0)
(-0.640471 -0.200529 -1.40387e-21)
(-0.764257 -0.566516 -1.38133e-21)
(-0.603942 -0.175811 -2.50307e-21)
(-0.0646827 0.115308 2.19644e-21)
(-1.25624 -0.517026 1.65193e-22)
(-0.375083 0.239684 0)
(-0.193679 -0.122105 8.89404e-22)
(-0.375748 0.0397936 -9.95948e-22)
(-1.05009 -0.645657 5.96201e-23)
(0.0285235 0.0469282 -3.64324e-21)
(0.0356485 0.0632865 1.55429e-21)
(-1.30451 -0.713709 6.44025e-22)
(-0.493734 0.179789 -1.43315e-21)
(-0.34913 0.237551 0)
(-1.20847 -0.475555 0)
(-0.252029 -0.180205 0)
(-0.323387 0.224497 -6.83166e-22)
(-1.16235 -0.458017 0)
(-0.273885 -0.200478 6.41421e-22)
(-1.29605 -0.52699 0)
(-0.400702 0.252592 1.22259e-23)
(-0.172944 -0.107294 -3.813e-23)
(-0.105268 -0.00105759 0)
(-0.425696 -0.267058 9.25701e-22)
(-0.430254 -0.188475 -2.06285e-21)
(-0.102603 -0.0388306 9.53152e-22)
(-0.436013 0.25498 -2.06264e-21)
(-1.33242 -0.570715 0)
(-0.201538 -0.015017 6.77712e-22)
(-0.608109 -0.325274 0)
(-0.169129 -0.0933051 0)
(0.0380974 0.0712714 -1.34184e-21)
(-1.3167 -0.714561 7.07326e-22)
(-0.514416 0.19405 8.40293e-22)
(-0.522286 0.116151 -1.4446e-21)
(0.0625046 0.0773173 0)
(-1.26387 -0.788504 4.20465e-22)
(0.0429111 0.0823649 0)
(-0.58766 0.0590496 0)
(-1.23143 -0.867445 -7.71244e-23)
(-0.360641 0.131902 0)
(-0.390024 0.135666 8.63729e-22)
(-1.15062 -0.612888 -3.0773e-22)
(-1.1872 -0.646668 1.6917e-22)
(-0.0325564 -0.00338708 -6.62876e-22)
(-0.00538739 0.0196046 1.69138e-21)
(0.0620081 0.0778399 -9.19405e-23)
(-0.521476 0.0955314 1.41055e-21)
(-1.2449 -0.802228 0)
(-0.294578 -0.111122 2.81149e-24)
(-0.159576 -0.0678046 1.24636e-21)
(-0.434053 -0.246822 0)
(-0.0231405 0.0824393 0)
(-0.487607 -0.124513 -8.50023e-22)
(-0.745618 -0.515 0)
(-0.0753755 0.101923 2.57142e-21)
(-0.605481 -0.431652 0)
(-0.606784 -0.212981 -3.16521e-21)
(-0.553823 0.233327 0)
(0.0403329 0.110338 0)
(-1.10994 -0.623897 2.80845e-21)
(-0.223153 0.039362 2.83483e-21)
(-0.810531 -0.430237 4.17228e-22)
(-0.117914 -0.0672161 1.48701e-21)
(-0.39522 0.178179 1.10571e-21)
(-0.364103 0.156621 -2.08125e-21)
(-1.23086 -0.616048 3.44257e-22)
(-0.0494585 -0.0086478 6.94692e-22)
(-1.17745 -0.597325 -4.24425e-22)
(-0.0566015 -0.0185703 -6.49014e-22)
(-0.560968 0.230849 -5.06519e-22)
(-1.26181 -0.681949 2.7965e-21)
(0.0462527 0.102142 -3.41459e-22)
(-0.301891 0.112049 0)
(-1.04194 -0.54941 -1.27883e-22)
(-0.077757 -0.0439736 1.66325e-21)
(-0.131396 0.0947668 0)
(-0.387201 -0.271564 -1.26666e-21)
(-0.709299 -0.30613 6.87635e-23)
(0.0403273 0.0833606 0)
(-0.564696 0.0425165 0)
(-1.21804 -0.856357 0)
(-0.445807 0.134462 0)
(-1.23873 -0.707948 1.29566e-21)
(0.035057 0.0514367 -1.85337e-21)
(-0.19117 0.0755973 0)
(-0.798376 -0.397191 0)
(-0.209994 -0.140334 0)
(-0.329074 -0.0308456 0)
(-0.82125 -0.508447 0)
(-0.0125412 0.0240799 0)
(-0.0644763 0.104099 0)
(-0.664397 -0.475122 0)
(-0.590958 -0.191181 1.77475e-21)
(-0.0262201 0.0724013 -2.40292e-22)
(-0.470697 -0.1297 -2.03001e-21)
(-0.72843 -0.491859 1.29241e-21)
(-0.388242 0.0576771 2.23575e-21)
(-1.09261 -0.667169 0)
(0.0328155 0.0444113 4.71988e-21)
(-0.0372821 0.0305819 0)
(-0.381609 -0.105969 2.10925e-21)
(-0.65973 -0.423002 -3.22097e-22)
(-0.906022 -0.654583 0)
(-0.524037 -0.102137 1.96139e-21)
(-0.973834 -0.692018 0)
(-0.495885 -0.0674088 1.16485e-21)
(-0.0185259 0.100205 0)
(0.00199639 0.092718 0)
(-0.389145 -0.0696949 2.96445e-22)
(-0.805341 -0.529378 4.77687e-22)
(-0.00118335 0.0497342 -1.03228e-21)
(-0.574044 0.205946 -7.56575e-22)
(0.0534455 0.0957902 0)
(-1.26827 -0.721473 2.59237e-21)
(-0.558557 0.235701 -3.94711e-22)
(0.0432296 0.110172 -1.54165e-22)
(-1.17589 -0.645741 0)
(-0.455776 0.150878 -1.2486e-21)
(-1.25891 -0.706678 0)
(0.0318839 0.0514223 2.10084e-21)
(-0.176074 0.139362 0)
(-0.840075 -0.343457 2.72305e-22)
(-0.405899 -0.298461 6.54997e-22)
(-0.406405 -0.0870524 1.8267e-21)
(-0.0109502 0.0547516 5.20437e-22)
(-0.756027 -0.492474 0)
(0.0604168 0.0895236 0)
(-1.27406 -0.770634 0)
(-0.580834 0.171703 5.97899e-22)
(-0.149913 0.125091 0)
(-0.779858 -0.31552 -7.25864e-22)
(-0.42368 -0.300392 1.75496e-22)
(-0.0262485 0.0436954 0)
(-0.400424 -0.106259 0)
(-0.6731 -0.440515 0)
(-0.315416 -0.0444292 9.31525e-22)
(-0.769483 -0.47629 0)
(-0.0247027 0.0144606 0)
(-0.937356 -0.52085 2.76269e-23)
(-0.0572823 -0.0265234 -1.06237e-21)
(-0.282113 0.0950094 2.93881e-21)
(-0.997254 -0.526473 0)
(-0.082334 -0.0449212 -2.08412e-21)
(-0.533585 0.158068 -1.4761e-21)
(0.0582326 0.0789581 1.29941e-21)
(-1.29512 -0.762193 2.99361e-21)
(0.052775 0.0814377 1.36656e-21)
(-0.530755 0.0572505 8.70934e-22)
(-1.21916 -0.827358 -1.75048e-21)
(-0.568745 0.0944601 -2.17503e-21)
(-1.25406 -0.83001 0)
(0.0591553 0.081106 -1.32486e-21)
(-0.712827 -0.547959 -4.54457e-23)
(-0.73225 -0.220585 6.02741e-22)
(-0.120119 0.149252 0)
(-0.264674 0.00477667 -4.28305e-21)
(-0.428576 0.264777 1.06706e-21)
(-0.126293 -0.0579615 -5.61871e-22)
(-1.33482 -0.560375 0)
(-1.25714 -0.82568 0)
(-0.584341 0.113848 -1.9331e-21)
(0.0609881 0.0823161 0)
(-0.250956 -0.077792 -3.2524e-21)
(-0.169664 -0.0827604 -9.73302e-22)
(-0.479513 -0.265992 2.6496e-21)
(-0.225591 0.0907107 0)
(-0.885608 -0.449165 -3.37416e-23)
(-0.163037 -0.101182 -7.55003e-22)
(0.0452255 0.0833555 1.10559e-21)
(-0.542707 0.0433401 0)
(-1.20915 -0.840801 2.01739e-21)
(-0.280071 0.0205984 3.44465e-21)
(-0.915224 -0.520874 1.01417e-21)
(-0.044934 -0.0162822 0)
(0.0508939 0.101404 0)
(-1.19653 -0.698743 -3.15745e-21)
(-0.587992 0.211203 0)
(-0.0984218 0.138666 0)
(-0.681674 -0.194653 0)
(-0.765355 -0.592507 0)
(-0.541858 0.0830285 1.90971e-21)
(-1.24591 -0.818298 0)
(0.0595921 0.0800158 -2.74797e-23)
(-0.437345 -0.0664884 7.62721e-22)
(-0.890607 -0.610268 -2.43688e-22)
(0.00935267 0.0739743 0)
(-0.299291 0.128092 0)
(-1.05301 -0.538325 1.32281e-22)
(-0.101786 -0.0586805 1.27283e-21)
(-1.1359 -0.835096 1.13477e-21)
(-0.554079 -0.0248242 -1.48455e-21)
(0.00835249 0.0964389 9.03824e-22)
(-0.515752 -0.0604209 0)
(-1.02348 -0.736333 6.79606e-23)
(0.000476887 0.0964716 -3.38952e-23)
(0.0489396 0.0990246 -1.14006e-21)
(-1.16658 -0.699029 0)
(-0.597323 0.202615 -2.65638e-22)
(-0.113818 0.120949 1.40542e-21)
(-0.541376 -0.391138 -7.59095e-22)
(-0.702084 -0.262701 1.07366e-22)
(-0.504359 0.257474 3.44315e-22)
(0.0355971 0.11818 -1.36926e-21)
(-1.09558 -0.549318 0)
(-0.113276 -0.0301024 -5.96619e-22)
(-0.338141 -0.128384 -2.48823e-21)
(-0.470116 -0.280711 2.52128e-21)
(-0.385403 -0.0223596 1.04721e-21)
(-0.408243 -0.0557212 4.66391e-23)
(-0.939252 -0.611628 -6.70833e-22)
(-0.878485 -0.58866 0)
(0.0112042 0.0628982 9.38204e-22)
(0.0220703 0.0556206 -9.32464e-22)
(-0.073852 -0.0100975 -1.2473e-21)
(-0.455055 0.259908 1.09658e-21)
(-1.35521 -0.583955 2.92094e-21)
(-0.273558 0.129145 0)
(-1.01228 -0.501236 0)
(-0.146092 -0.0899708 -1.66211e-21)
(-0.513 -0.0341916 -3.99633e-22)
(-1.07471 -0.774493 0)
(0.0132027 0.0930325 0)
(-0.42159 0.159996 -1.0591e-21)
(-1.23944 -0.659749 0)
(-0.00169392 0.0258263 7.02802e-22)
(-0.251709 -0.106004 6.28253e-22)
(-0.344644 -0.171385 8.5507e-22)
(-0.26536 -0.134654 -3.20162e-22)
(-0.455807 -0.0469144 -1.46938e-21)
(-0.973001 -0.672545 0)
(0.0170597 0.0814314 -1.56845e-21)
(-0.279889 0.144399 0)
(-1.03699 -0.498404 1.85691e-22)
(-0.161703 -0.103727 -9.31813e-22)
(-0.273974 0.0462268 0)
(-0.295406 0.0590778 3.51503e-22)
(-0.122114 0.130344 5.06953e-22)
(-0.557607 -0.410584 2.12366e-21)
(-0.724253 -0.261746 -2.48036e-21)
(-0.445172 -0.0205914 -1.57857e-21)
(-1.0215 -0.700288 1.05936e-22)
(0.0302608 0.0767232 1.43491e-21)
(-0.443828 0.163832 0)
(0.0147441 0.0405862 -2.55163e-21)
(-1.26532 -0.682725 9.80995e-22)
(-0.0755117 0.0903088 -3.57642e-21)
(-0.569893 -0.405889 0)
(-0.58852 -0.215371 9.97013e-22)
(-0.0338549 0.110341 -1.95298e-21)
(-0.559567 -0.11333 -1.02405e-21)
(-0.907484 -0.674763 0)
(-0.355215 0.185211 -1.05759e-21)
(-1.18794 -0.555699 1.97322e-22)
(-0.118261 -0.0635505 3.90713e-22)
(-0.103698 0.130738 1.80869e-22)
(-0.644224 -0.478351 0)
(-0.690664 -0.226928 1.93425e-21)
(-0.380966 0.199295 0)
(-0.398483 0.197299 0)
(-1.2335 -0.576772 3.48433e-22)
(-0.100565 -0.0467399 -1.07494e-21)
(-1.25092 -0.604274 -4.94646e-22)
(-0.0690653 -0.0195337 1.10378e-21)
(0.0588782 0.0877074 -9.70558e-22)
(-1.28737 -0.759979 0)
(-0.564997 0.17882 -9.80404e-22)
(-0.33695 0.151652 1.23244e-21)
(-1.13366 -0.569115 0)
(-0.0865041 -0.0425464 4.23253e-22)
(-0.938089 -0.533559 -9.72847e-21)
(0.028038 0.107036 1.28024e-21)
(-0.49527 0.228835 1.31711e-22)
(-0.388045 -0.131309 -1.22445e-21)
(-0.0588724 0.0183007 0)
(-0.571471 -0.360306 0)
(-0.345279 0.0301729 2.34052e-21)
(-0.996829 -0.603465 0)
(0.0156061 0.0336255 2.87925e-21)
(0.052311 0.0709421 -8.29174e-22)
(-0.505318 0.151689 3.06273e-21)
(-1.28591 -0.745658 -1.79796e-21)
(-0.79236 -0.594338 0)
(-0.617082 -0.167518 8.783e-22)
(-0.0670038 0.122595 -2.49016e-21)
(-1.16303 -0.841962 2.24699e-21)
(-0.545398 0.00044028 -8.95185e-22)
(0.0237335 0.0897213 0)
(-0.828511 -0.472622 -1.59633e-21)
(-0.0611778 -0.023172 0)
(-0.342091 0.076794 2.45567e-21)
(-1.05239 -0.604683 1.05225e-22)
(-0.00553057 0.0108921 8.30045e-22)
(-0.816021 -0.484211 8.22588e-22)
(-0.0420319 -0.00891407 -3.3525e-24)
(-0.495539 0.245872 -7.19319e-23)
(-0.00631609 0.0511341 8.03735e-22)
(-1.35047 -0.639869 2.19727e-21)
(-0.69263 -0.552504 0)
(-0.789263 -0.243362 1.57641e-22)
(-0.146681 0.163353 0)
(-0.365239 0.0902981 -2.4993e-21)
(-1.10937 -0.632306 -1.28092e-22)
(0.00819471 0.0235036 -9.52708e-22)
(-0.353509 -0.0411378 0)
(-0.825927 -0.529258 -6.93741e-22)
(-0.00173042 0.0379378 0)
(-0.536147 -0.154956 0)
(-0.717369 -0.514941 0)
(-0.0423372 0.0938134 0)
(-0.203459 0.0067946 -9.38179e-22)
(-0.677003 -0.367463 -1.07384e-21)
(-0.151916 -0.0881024 -1.95081e-23)
(-0.0520952 0.11934 2.41145e-21)
(-0.595267 -0.139514 2.50257e-21)
(-0.863714 -0.646127 3.02315e-22)
(-0.546974 0.13599 -1.12235e-21)
(-1.27759 -0.7836 -2.60804e-21)
(0.0629917 0.0808823 -1.30235e-21)
(-1.17328 -0.826953 -1.4091e-21)
(-0.527867 0.014945 9.07519e-22)
(0.0354564 0.0861662 1.14692e-21)
(-0.273536 0.206449 -2.03069e-21)
(-0.363759 -0.273433 8.78773e-22)
(-1.06999 -0.405521 -1.24877e-22)
(-0.417932 0.233152 6.02621e-22)
(-0.395903 0.221122 -5.59433e-22)
(-1.26796 -0.565396 1.12351e-22)
(-1.30059 -0.578117 0)
(-0.100166 -0.0389186 -3.3757e-22)
(-0.118981 -0.05918 -3.37006e-22)
(0.0321863 0.111694 -1.72933e-21)
(-0.987949 -0.539014 1.0715e-20)
(-0.502369 0.234962 2.80254e-22)
(-0.511141 0.260939 -2.77693e-23)
(0.0359346 0.117597 1.90006e-21)
(-1.14595 -0.563378 0)
(-0.401517 -0.00715897 -3.68617e-21)
(-1.00033 -0.646819 -6.74144e-23)
(0.0287263 0.060134 0)
(0.056999 0.082291 -2.48804e-21)
(-0.54392 0.172057 9.7453e-22)
(-1.30146 -0.755065 0)
(-0.320843 0.202758 3.06601e-21)
(-0.34322 0.206734 -2.27588e-21)
(-1.14589 -0.489555 -3.11539e-23)
(-1.18351 -0.514749 -7.42975e-23)
(-0.225367 -0.152393 -6.41243e-22)
(-0.183734 -0.115671 -3.29904e-22)
(0.0545975 0.0809122 0)
(-1.22519 -0.821675 0)
(-0.621826 0.118754 2.94144e-22)
(-0.473273 0.256874 -4.04242e-22)
(0.0338261 0.118878 0)
(-1.03548 -0.505979 0)
(-0.399255 -0.184091 4.91426e-23)
(-0.155132 -0.0372606 1.39485e-21)
(-0.342418 -0.204149 5.81546e-22)
(-0.524225 0.241362 -4.94617e-22)
(-1.07704 -0.582863 -4.10747e-21)
(0.0369996 0.114005 9.21618e-23)
(-0.206894 0.143523 0)
(-0.90297 -0.386891 -9.52367e-22)
(-0.329665 -0.236999 -6.96578e-23)
(-0.584822 0.159126 4.37993e-23)
(-1.2712 -0.784754 -4.91187e-21)
(0.0621916 0.0875629 -1.98992e-24)
(-0.821398 -0.519937 -2.77146e-22)
(0.0186951 0.0912834 -8.02567e-22)
(-0.489644 0.185244 1.28956e-22)
(-0.0913915 0.0726392 -1.29449e-21)
(-0.458828 -0.312399 8.11357e-22)
(-0.591497 -0.240522 3.28432e-21)
(-0.319277 -0.105426 0)
(-0.543822 -0.323799 -2.79369e-21)
(-0.0942182 -0.0224068 1.5777e-21)
(-0.548735 0.24417 0)
(0.0419269 0.103037 1.00432e-21)
(-1.26759 -0.666953 -1.06283e-22)
(-0.333381 -0.0996799 0)
(-0.578929 -0.349583 -8.23363e-22)
(-0.0705941 -0.00204878 -2.25609e-21)
(-0.367266 -0.170252 1.3129e-21)
(-0.180157 -0.0598293 -7.43368e-22)
(-0.329628 -0.187997 3.26295e-22)
(-0.094185 0.14105 1.20972e-21)
(-0.677637 -0.178655 -8.18474e-22)
(-0.833874 -0.652865 3.58971e-22)
(-0.435603 -0.173415 0)
(-0.468363 -0.292284 0)
(-0.0841016 0.0171608 2.05144e-22)
(-0.426037 -0.150716 1.937e-21)
(-0.535182 -0.33478 6.48786e-22)
(-0.0682296 0.0265625 2.83556e-23)
(-0.250096 0.197235 3.09426e-21)
(-1.01369 -0.377843 -5.69948e-22)
(-0.414467 -0.321228 -9.23991e-22)
(0.0370974 0.0862307 1.496e-21)
(0.0440795 0.0890463 -1.63114e-21)
(-1.31963 -0.69431 -1.82888e-21)
(-1.30922 -0.706304 -1.16132e-21)
(-0.536936 0.230529 0)
(-0.546702 0.219704 -7.73741e-22)
(-0.566039 0.141099 1.38831e-21)
(-1.27607 -0.790956 2.79039e-21)
(0.0633373 0.083231 1.62219e-21)
(-0.34645 -0.267641 -6.17611e-22)
(-0.299501 0.22329 6.58415e-22)
(-1.11892 -0.41997 1.5889e-22)
(-0.125258 0.116563 -1.28305e-21)
(-0.48002 -0.343979 -7.23288e-22)
(-0.722261 -0.283971 9.43096e-22)
(-0.559264 -0.0845313 0)
(-1.01074 -0.753129 -7.03415e-23)
(-0.0234128 0.107795 3.50274e-23)
(-0.962566 -0.630183 -3.40451e-21)
(0.0316127 0.0881325 -8.12503e-22)
(-0.585164 0.175866 -4.0405e-23)
(0.0502365 0.0811998 0)
(-0.590029 0.0787194 0)
(-1.23785 -0.858381 -1.69763e-21)
(-0.571197 0.226171 5.28857e-22)
(0.0476596 0.105275 0)
(-1.20801 -0.677656 3.09877e-21)
(0.0145581 0.0886617 -2.93061e-33)
(-0.755059 -0.473197 5.01188e-21)
(-0.44639 0.17965 -1.4041e-22)
(-0.772892 -0.422236 -5.65029e-21)
(0.0195695 0.0970764 2.92383e-33)
(-0.417706 0.211023 1.15483e-22)
(-1.11643 -0.722318 1.97857e-22)
(-0.43749 0.0341596 0)
(0.0455169 0.0677898 -2.79981e-21)
(-1.14658 -0.761751 1.53288e-21)
(0.0477107 0.0819668 -8.76733e-22)
(-0.639835 0.147222 0)
(-0.463339 0.126173 -1.56649e-21)
(-1.24155 -0.729832 -8.65377e-22)
(0.0457662 0.0599185 1.30165e-21)
(-0.509299 0.276965 2.07837e-21)
(0.00765468 0.0817587 5.02497e-22)
(-1.33264 -0.59902 0)
(-0.240838 0.0135257 7.43979e-22)
(-0.087997 -0.042916 -5.31074e-22)
(-0.795237 -0.44289 4.28743e-22)
(-1.2354 -0.837878 -9.67711e-22)
(0.0545631 0.08042 9.58882e-22)
(-0.613735 0.106583 4.07448e-22)
(-0.576648 -0.103004 -1.01598e-21)
(-0.0358695 0.113705 -6.45362e-22)
(-0.969747 -0.725051 0)
(-1.09338 -0.772393 0)
(-0.494879 -0.0124569 0)
(0.027334 0.087159 0)
(0.00447176 0.054231 0)
(-0.417812 -0.2292 5.2651e-21)
(-0.248341 0.111364 -3.723e-22)
(-0.940471 -0.560969 -4.24061e-21)
(0.0276261 0.102797 -9.5484e-22)
(-0.517151 0.215318 -1.7206e-22)
(-0.232098 -0.00230869 -1.94461e-21)
(-0.106309 -0.0549116 1.36969e-21)
(-0.722141 -0.406217 5.43927e-22)
(-1.23805 -0.793976 -5.31031e-21)
(-0.610032 0.145328 -5.45453e-22)
(0.0586217 0.0851584 0)
(0.0508689 0.0792735 -9.92619e-22)
(-0.637411 0.12162 0)
(-1.196 -0.815079 3.84975e-21)
(-0.532094 0.1905 -8.88835e-22)
(0.0474748 0.0799548 2.5215e-21)
(-1.31307 -0.729524 0)
(-0.0390112 0.0194118 -1.54792e-21)
(-1.34406 -0.619946 -1.49795e-21)
(-0.466198 0.242719 0)
(-0.241516 0.203137 -3.91133e-21)
(-0.996572 -0.359185 7.26563e-22)
(-0.473208 -0.373479 -2.79776e-22)
(-1.24069 -0.53806 -1.75711e-22)
(-0.374868 0.224742 1.33762e-21)
(-0.165241 -0.099251 -9.49897e-22)
(-0.0341675 0.0308699 -1.35313e-21)
(-0.482781 0.267656 0)
(-1.36764 -0.602953 0)
(-0.222962 0.129033 -6.67337e-22)
(-0.253596 0.143647 0)
(-0.924233 -0.425985 -9.14624e-22)
(-0.993991 -0.460585 9.78464e-22)
(-0.243655 -0.161962 2.03499e-22)
(-0.215128 -0.14428 -2.16825e-22)
(-0.201632 0.129647 6.40893e-22)
(-0.885278 -0.39387 0)
(-0.296096 -0.205188 3.39107e-22)
(-0.315576 0.212031 0)
(-1.14128 -0.472814 3.17066e-23)
(-0.258432 -0.18302 2.31731e-22)
(-1.14796 -0.802725 5.60742e-22)
(-0.508932 0.00804396 1.02244e-21)
(0.0362568 0.0845642 -2.31179e-21)
(-1.2636 -0.816506 0)
(-0.577893 0.129115 2.12752e-21)
(0.0625147 0.0833765 0)
(0.0517108 0.0791712 -7.12192e-22)
(-0.504322 0.0466605 -6.28355e-22)
(-1.19481 -0.803106 4.4008e-22)
(-0.837365 -0.441012 8.19366e-22)
(0.0237779 0.104614 4.74187e-22)
(-0.437708 0.224975 0)
(-0.129015 0.0690624 1.24664e-21)
(-0.140769 0.0565093 0)
(-0.340135 -0.225298 0)
(-0.665062 -0.300406 3.42194e-21)
(-0.300807 -0.195864 0)
(-0.664914 -0.316077 -2.24351e-21)
(-0.268254 0.188747 0)
(-0.23595 0.17322 0)
(-0.346478 -0.25412 3.27845e-23)
(-1.04699 -0.430807 4.45134e-22)
(-0.308752 -0.219117 1.62117e-21)
(-0.979922 -0.399468 -1.19721e-21)
(-0.817018 -0.543571 0)
(0.0192145 0.0858721 1.15745e-21)
(-0.517001 0.173392 0)
(-1.25043 -0.791697 2.73851e-21)
(-0.598389 0.144087 2.02627e-22)
(0.06055 0.0859903 5.62208e-22)
(-0.149392 0.143694 -2.1675e-21)
(-0.533338 -0.400596 -6.71976e-22)
(-0.78539 -0.29047 2.5026e-21)
(-1.09611 -0.805344 -8.77356e-22)
(-0.543774 -0.0417947 2.4979e-21)
(0.00261891 0.0986838 0)
(-0.0574058 0.00108757 1.65501e-21)
(-1.33516 -0.607892 1.59296e-21)
(-0.453508 0.242209 1.4231e-21)
(-1.07487 -0.638214 0)
(-0.572161 0.214728 0)
(0.039035 0.103998 0)
(-1.11019 -0.673857 0)
(-0.59141 0.203416 3.68603e-22)
(0.0440004 0.0991747 1.89666e-22)
(-0.338714 0.191041 -1.30613e-21)
(-1.16555 -0.531215 -1.31938e-22)
(-0.15794 -0.0954374 4.87783e-22)
(-0.0623311 0.0797057 -3.43008e-22)
(-0.581279 -0.400219 0)
(-0.54571 -0.191857 -1.02184e-23)
(-0.546023 0.202514 1.03567e-21)
(0.0479612 0.0857992 1.44627e-21)
(-1.314 -0.723771 1.34907e-21)
(-1.13583 -0.751465 0)
(-0.460489 0.0356129 0)
(0.0480298 0.0747669 2.43005e-21)
(0.0168161 0.0481273 4.97443e-22)
(-1.29471 -0.689651 -1.84846e-21)
(-0.468261 0.184784 3.22317e-21)
(-0.219256 0.170222 0)
(-0.392362 -0.292741 -1.14702e-21)
(-0.943026 -0.376792 7.41118e-22)
(-0.468948 -0.0962139 -2.58524e-23)
(-0.836407 -0.577966 3.57315e-22)
(-0.00711591 0.08147 0)
(-0.104535 0.0981674 1.30226e-23)
(-0.48838 -0.347194 -2.68196e-22)
(-0.65707 -0.26131 -1.23483e-21)
(0.0546154 0.0903295 3.01803e-23)
(-1.29303 -0.740164 -3.48769e-21)
(-0.564156 0.195186 1.01779e-21)
(-0.421488 0.180715 -6.08501e-22)
(-1.259 -0.644302 3.02756e-22)
(-0.0225932 0.0144828 0)
(-0.1014 0.0610525 -1.35209e-21)
(-0.411674 -0.273707 1.81709e-21)
(-0.591911 -0.253089 -2.16686e-21)
(-0.493596 0.275764 8.75222e-22)
(-0.0205759 0.0486446 5.653e-22)
(-1.36678 -0.59854 2.15222e-21)
(-0.18492 0.0928463 -8.16743e-22)
(-0.812817 -0.388911 0)
(-0.24636 -0.166948 0)
(-0.338719 -0.0699093 -3.28619e-21)
(-0.699601 -0.435771 4.44415e-22)
(-0.0330383 0.0188584 0)
(-1.08088 -0.740581 0)
(-0.468508 -0.00724785 2.25449e-21)
(0.0345148 0.0814558 0)
(-0.516289 0.268575 -3.74442e-22)
(0.0309442 0.110015 -1.91541e-22)
(-1.2393 -0.588598 -4.21363e-21)
(-0.510226 0.275406 1.05531e-21)
(0.0244977 0.104495 0)
(-1.26828 -0.582334 3.33454e-21)
(0.00483315 0.0427058 4.2121e-22)
(-1.30855 -0.674725 1.44438e-21)
(-0.468438 0.199418 -2.9721e-21)
(-0.510936 -0.117747 -9.63123e-22)
(-0.855871 -0.610951 -4.47164e-22)
(-0.02152 0.0938363 0)
(0.0324703 0.117081 1.75556e-22)
(-1.1739 -0.555064 3.9322e-21)
(-0.499395 0.268107 0)
(0.0534292 0.0685437 0)
(-1.26501 -0.750135 1.3048e-21)
(-0.491085 0.132949 -3.62556e-22)
(0.00766741 0.0756871 8.78844e-22)
(-0.629241 -0.421117 -5.1401e-21)
(-0.398473 0.147517 0)
(-0.350847 0.194912 -1.57137e-23)
(-0.667817 -0.339901 0)
(0.0168921 0.0881168 8.41503e-22)
(-0.027342 0.0346761 -2.67855e-23)
(-1.35809 -0.621472 0)
(-0.48273 0.255565 0)
(0.0546277 0.0970341 0)
(-1.24516 -0.728257 0)
(-0.587134 0.199414 1.14631e-21)
(-0.521984 0.227423 -9.66679e-22)
(-0.508424 0.215524 7.81975e-22)
(0.02712 0.074373 -7.54679e-22)
(-1.33787 -0.683755 5.4108e-22)
(0.0252509 0.0669093 -1.2557e-21)
(-1.33229 -0.690153 -7.36376e-22)
(-0.495408 0.11665 7.07825e-22)
(-1.25362 -0.765403 -7.43882e-22)
(0.0580671 0.0714488 0)
(-0.0213271 0.108781 0)
(-1.05159 -0.793325 0)
(-0.570663 -0.0719172 0)
(-0.1556 0.0232342 0)
(-0.253251 -0.157741 -2.87981e-21)
(-0.61651 -0.30809 1.20423e-21)
(-0.48674 0.0746996 2.04027e-21)
(-1.20829 -0.779014 -1.73921e-22)
(0.0583275 0.0737843 2.03475e-21)
(0.0542621 0.0759232 1.36518e-21)
(-0.484798 0.0561166 -2.83564e-21)
(-1.18499 -0.781402 2.40989e-22)
(-0.467865 0.272805 1.08296e-21)
(-0.0616109 0.00442555 6.33247e-22)
(-1.37051 -0.582394 -3.0501e-21)
(-0.282078 0.199903 0)
(-1.07828 -0.435468 1.817e-24)
(-0.310343 -0.225545 -1.58907e-21)
(-0.231705 0.157757 0)
(-0.956105 -0.409271 1.24992e-21)
(-0.312802 -0.225917 -8.41267e-24)
(-0.417866 0.0673994 -2.83842e-21)
(-1.14187 -0.706607 -9.16854e-23)
(0.0435823 0.0551685 -1.18292e-21)
(-0.43584 0.0603829 0)
(-1.14992 -0.725272 -6.84328e-23)
(0.0490411 0.0628987 1.10474e-21)
(-0.0979807 0.0430317 0)
(-0.412709 -0.267664 -2.82549e-21)
(-0.537278 -0.231301 1.23191e-21)
(-0.264593 0.155577 0)
(-1.01698 -0.462175 0)
(-0.223205 -0.155551 2.85555e-22)
(0.0491944 0.0792994 -2.09053e-21)
(-1.22533 -0.851807 5.04767e-21)
(-0.617231 0.0903157 0)
(-0.606352 0.187735 2.85242e-22)
(0.0420524 0.0932779 0)
(-1.07727 -0.682616 -2.35335e-21)
(-0.606242 0.176036 -8.42112e-23)
(0.0373617 0.0886693 0)
(-1.03124 -0.670263 6.94631e-21)
(-0.152409 0.11205 9.35072e-22)
(-0.377007 -0.26161 -2.74445e-22)
(-0.772524 -0.332652 -1.21688e-22)
(-0.992537 -0.600269 1.82684e-22)
(0.0326729 0.100524 1.47537e-21)
(-0.557471 0.207489 0)
(-0.446168 0.199432 2.59436e-21)
(-0.0167062 0.0251483 8.78265e-22)
(-1.29366 -0.652326 0)
(0.028447 0.0922538 -2.28899e-22)
(-0.940271 -0.604823 4.42621e-21)
(-0.560166 0.186377 0)
(-0.264357 -0.0691808 2.26963e-21)
(-0.125925 -0.0526038 1.96526e-21)
(-0.551124 -0.31274 1.0792e-23)
(-0.303243 0.0812722 -4.38605e-22)
(-1.0103 -0.555193 -9.76176e-23)
(-0.0469074 -0.0196549 -1.18497e-21)
(-0.790035 -0.573117 1.07671e-21)
(-0.545559 -0.14484 2.17054e-21)
(-0.0402205 0.101285 0)
(0.051769 0.0829194 0)
(-1.18109 -0.77954 1.76265e-21)
(-0.633578 0.144033 0)
(-1.11857 -0.760734 0)
(-0.470833 0.0184495 0)
(0.0434168 0.0787441 0)
(-0.000924821 0.0674538 0)
(-0.506293 0.270534 -7.48475e-22)
(-1.35399 -0.613327 -2.1157e-21)
(-0.330762 0.092275 0)
(-1.05896 -0.588694 7.95496e-23)
(-0.0257565 -0.00341572 1.15788e-21)
(-0.160558 0.00614475 0)
(-0.250244 -0.153414 2.49102e-21)
(-0.575685 -0.289781 0)
(-1.21398 -0.776264 5.0149e-21)
(-0.617142 0.159863 5.17827e-22)
(0.0563057 0.087336 0)
(0.0428477 0.0645461 -1.0029e-21)
(-1.28676 -0.729147 -8.81753e-23)
(-0.49023 0.163223 9.68589e-23)
(-0.539801 0.252654 0)
(-0.537664 0.25296 5.51823e-22)
(0.03867 0.109685 -4.87256e-22)
(0.0396252 0.112995 -5.74291e-22)
(-1.23171 -0.624866 2.36815e-21)
(-1.19501 -0.616536 -1.94815e-21)
(-0.359348 -0.0141492 0)
(-0.913537 -0.584239 1.54439e-21)
(0.0137189 0.0431596 1.45724e-21)
(-1.06765 -0.690094 -2.21953e-22)
(-0.419134 0.0171182 0)
(0.0404202 0.0656748 -1.5392e-21)
(-0.280184 -0.0402177 -1.87332e-21)
(-0.688334 -0.408134 7.46483e-22)
(-0.0638676 -0.0167637 2.37004e-21)
(-1.13207 -0.724256 -4.4464e-21)
(-0.619785 0.176113 3.99988e-22)
(-1.1191 -0.734642 2.25444e-21)
(0.0469749 0.0904967 0)
(-0.630792 0.161631 -3.86432e-22)
(0.0454299 0.0860371 0)
(-0.391357 0.118103 0)
(-1.16665 -0.658295 0)
(0.00905528 0.0275606 1.23956e-21)
(-0.609889 0.174136 8.00791e-22)
(-0.613201 0.181226 -1.42718e-21)
(-1.21271 -0.754837 -2.93219e-21)
(-1.17644 -0.730715 6.77974e-21)
(0.055053 0.0913671 1.60035e-21)
(0.0511141 0.093237 -2.16708e-23)
(-0.422414 -0.00222837 0)
(-1.02758 -0.680213 -1.48762e-22)
(0.0335828 0.0697655 2.00535e-21)
(-0.301623 0.0202942 1.85478e-21)
(-0.945358 -0.551019 -7.36466e-22)
(-0.0176597 0.00323583 0)
(-0.517003 0.271264 0)
(0.0195311 0.0929246 0)
(-1.31076 -0.610266 -3.20352e-21)
(-0.342027 0.00792035 1.40515e-21)
(-0.938738 -0.57961 -4.15953e-22)
(0.0128779 0.0346007 -2.29542e-21)
(-0.2808 -0.0203576 7.94147e-22)
(-0.765565 -0.459229 -8.76856e-22)
(-0.0439268 -0.00672124 1.32379e-21)
(-0.529495 0.259725 0)
(0.0337804 0.107656 0)
(-1.25745 -0.617639 4.29873e-21)
(-0.334505 0.11323 0)
(-1.09813 -0.586811 2.12375e-23)
(-0.0380954 -0.0118372 -1.15038e-21)
(-0.948616 -0.725322 0)
(-0.617706 -0.126976 0)
(-0.0576133 0.124346 -8.41674e-23)
(-0.223275 0.179644 -1.00474e-22)
(-0.952451 -0.365765 0)
(-0.421926 -0.321841 1.61036e-21)
(-1.19352 -0.866561 -1.00584e-21)
(0.0266372 0.0868832 0)
(-0.566912 0.0175908 0)
(0.00894632 0.0724353 -2.06806e-21)
(-0.571716 -0.323952 -7.36588e-21)
(-0.331847 0.149741 5.21082e-22)
(-0.328228 0.0505862 0)
(-0.994421 -0.583437 4.38324e-22)
(-0.00245399 0.0153021 -1.0954e-21)
(-0.52645 0.251541 1.42898e-21)
(0.0247859 0.0861201 2.4257e-21)
(-1.32915 -0.648583 0)
(-0.583352 -0.462871 -3.18981e-22)
(-0.894031 -0.304517 -7.59712e-22)
(-0.193975 0.182151 -8.4974e-22)
(-0.423297 0.236037 0)
(0.027556 0.110483 -6.64857e-22)
(-0.880552 -0.43565 0)
(-0.0403925 0.0537538 1.61385e-21)
(-0.0411056 0.0697474 -1.64755e-21)
(-0.615975 -0.411592 0)
(-0.45111 -0.144824 1.4545e-21)
(-0.646766 -0.442172 -1.6677e-21)
(-0.489271 -0.157774 -1.15733e-21)
(-0.312214 -0.0685291 1.76809e-21)
(-0.648369 -0.391113 1.15879e-21)
(-0.0574237 -0.00256076 0)
(-0.0724849 0.0677528 1.49189e-21)
(-0.059175 0.0535355 0)
(-0.514579 -0.348952 -1.03631e-21)
(-0.545834 -0.20926 1.28717e-21)
(-0.539787 -0.358222 1.04445e-21)
(-0.487266 -0.175614 7.86504e-24)
(-0.309466 0.0432773 1.16003e-22)
(-0.887605 -0.527964 -3.99751e-22)
(-0.0181796 0.00723648 -1.61935e-21)
(-0.316871 0.00383609 -3.24021e-21)
(-0.888237 -0.536844 8.85561e-24)
(-0.00709325 0.0188671 0)
(0.0386082 0.0840578 0)
(-1.04978 -0.701188 0)
(-0.625809 0.161419 1.68811e-22)
(-0.175183 0.11426 -8.63785e-22)
(-0.819188 -0.363155 0)
(-0.318931 -0.219368 5.05566e-22)
(-0.594049 0.181436 -1.88587e-21)
(-1.24746 -0.75479 -2.85871e-21)
(0.0572823 0.0931722 -9.0657e-22)
(-0.425156 0.0924782 0)
(-0.449321 0.105006 1.5098e-21)
(-1.17946 -0.706751 1.14375e-22)
(-1.21326 -0.726838 -8.33208e-22)
(0.0426303 0.0534346 -1.39886e-21)
(0.0481455 0.0593291 -1.25655e-21)
(-0.168214 0.0960177 0)
(-0.785792 -0.362319 0)
(-0.291912 -0.199727 2.65408e-22)
(-0.298565 0.185672 1.00811e-21)
(-1.09559 -0.477892 0)
(-0.230209 -0.155625 5.51138e-22)
(-0.378668 0.0804156 -8.09881e-22)
(-1.1092 -0.657302 0)
(0.024283 0.0362703 0)
(-0.160559 -0.0269056 1.72334e-21)
(-0.458972 -0.225819 -7.00863e-22)
(-0.292886 -0.176972 6.8652e-22)
(-0.464087 0.0801532 0)
(-1.19843 -0.754014 0)
(0.055557 0.068152 -2.16496e-21)
(-0.132942 0.0355446 0)
(-0.307969 -0.196157 3.4009e-22)
(-0.599632 -0.286477 0)
(-0.397505 0.0189153 -1.81058e-21)
(-1.03877 -0.668977 -1.19976e-22)
(0.0333394 0.0564898 -1.96995e-22)
(-0.293494 0.170287 1.03842e-21)
(-1.0787 -0.488832 0)
(-0.199306 -0.134491 1.15936e-21)
(-0.144136 -0.0039009 -1.70722e-21)
(-0.123542 0.0066316 -7.60619e-22)
(-0.501909 -0.245094 7.23446e-22)
(-0.302929 -0.18814 -1.3861e-21)
(-0.491091 -0.230937 0)
(-0.348778 -0.220398 -2.37847e-21)
(-0.0830723 0.0341089 -7.46182e-22)
(-0.45196 -0.295146 1.27722e-21)
(-0.0678928 0.0415877 4.81095e-22)
(-0.487654 -0.199807 -1.79734e-21)
(-0.524729 -0.342393 -6.70551e-22)
(-0.47209 -0.178597 6.85514e-23)
(-0.215075 0.111584 9.66184e-22)
(-0.24011 0.112561 0)
(-0.893477 -0.426506 8.24542e-22)
(-0.938073 -0.460213 -6.42221e-22)
(-0.217774 -0.143643 -1.22439e-21)
(-0.171657 -0.107402 2.04664e-21)
(-0.0237197 0.0274522 0)
(-1.33039 -0.640808 9.70226e-22)
(-0.465 0.22713 -1.47583e-21)
(-0.0676425 0.128647 1.02814e-21)
(-0.630423 -0.149301 1.28982e-21)
(-0.886636 -0.678208 -5.36037e-22)
(-0.00451914 0.0459991 -8.25533e-22)
(0.00895422 0.0526715 6.91764e-22)
(-1.33886 -0.657303 -8.40148e-22)
(-1.32864 -0.674537 -1.32153e-21)
(-0.484891 0.231181 3.73163e-21)
(-0.489219 0.216943 -1.93433e-21)
(-0.12039 0.142896 1.56256e-21)
(-0.657401 -0.497731 -5.82556e-22)
(-0.728788 -0.238224 2.4744e-22)
(-0.217985 -0.0773783 2.84201e-21)
(-0.262899 -0.141515 0)
(-0.392405 -0.197057 -2.56595e-21)
(-0.469908 0.100222 -7.01429e-22)
(-1.222 -0.751865 9.44276e-22)
(0.0552856 0.0671527 0)
(-0.14216 0.08375 0)
(-0.332957 -0.230935 -2.52566e-22)
(-0.713827 -0.321057 -1.03951e-21)
(-0.310262 0.172851 0)
(-1.10868 -0.510124 0)
(-0.171324 -0.109326 -1.07943e-21)
(-0.432173 0.22688 -1.62185e-21)