/*--------------------------------*- C++ -*----------------------------------*\
  =========                 |
  \\      /  F ield         | OpenFOAM: The Open Source CFD Toolbox
   \\    /   O peration     | Website:  https://openfoam.org
    \\  /    A nd           | Version:  6
     \\/     M anipulation  |
\*---------------------------------------------------------------------------*/
FoamFile
{
    version     2.0;
    format      ascii;
    class       volScalarField;
    location    "./ITHACAoutput/Offline/1";
    object      P_rec;
}
// * * * * * * * * * * * * * * * * * * * * * * * * * * * * * * * * * * * * * //

dimensions      [0 2 -2 0 0 0 0];

internalField   nonuniform List<scalar> 
40000
(
0.00813893
0.0081385
0.00813707
0.00813458
0.00813134
0.00812763
0.00812369
0.00811971
0.00811584
0.00811219
0.00810886
0.00810592
0.00810343
0.00810143
0.00809994
0.00809895
0.00809852
0.00809863
0.00809928
0.00810049
0.00810223
0.00810451
0.00810733
0.00811067
0.00811453
0.00811889
0.00812376
0.00812912
0.00813497
0.00814129
0.00814808
0.00815535
0.00816305
0.00817122
0.00817984
0.0081889
0.0081984
0.00820831
0.00821866
0.00822943
0.00824062
0.00825223
0.00826424
0.00827667
0.00828949
0.00830271
0.00831633
0.00833034
0.00834474
0.00835952
0.00837466
0.00839017
0.00840607
0.0084223
0.00843889
0.00845583
0.0084731
0.00849069
0.00850862
0.00852683
0.00854534
0.00856414
0.00858322
0.00860254
0.00862213
0.00864194
0.00866196
0.0086822
0.00870262
0.0087232
0.00874393
0.00876481
0.00878578
0.00880687
0.00882803
0.00884925
0.0088705
0.00889179
0.00891306
0.00893433
0.00895556
0.00897673
0.00899783
0.00901882
0.00903972
0.00906048
0.00908111
0.00910158
0.00912188
0.00914203
0.00916195
0.00918168
0.0092012
0.00922051
0.0092396
0.00925845
0.00927709
0.0092955
0.00931368
0.00933163
0.00934939
0.00936694
0.00938428
0.00940144
0.0094184
0.0094352
0.00945188
0.00946839
0.00948481
0.00950112
0.00951734
0.00953352
0.00954963
0.00956575
0.00958185
0.00959797
0.00961413
0.00963033
0.00964659
0.00966294
0.0096794
0.00969596
0.00971267
0.00972947
0.00974643
0.00976354
0.00978078
0.00979816
0.00981567
0.00983333
0.0098511
0.00986897
0.00988696
0.00990501
0.00992313
0.00994127
0.00995941
0.00997754
0.00999561
0.0100136
0.0100315
0.0100492
0.0100667
0.010084
0.0101011
0.0101178
0.0101342
0.0101502
0.0101658
0.0101809
0.0101956
0.0102097
0.0102233
0.0102362
0.0102486
0.0102603
0.0102713
0.0102816
0.0102912
0.0103001
0.0103082
0.0103156
0.0103222
0.0103281
0.0103332
0.0103375
0.0103411
0.0103439
0.010346
0.0103474
0.010348
0.010348
0.0103472
0.0103458
0.0103439
0.0103413
0.0103381
0.0103344
0.0103303
0.0103256
0.0103206
0.0103151
0.0103093
0.0103032
0.0102969
0.0102904
0.0102837
0.0102769
0.0102702
0.0102635
0.010257
0.0102507
0.0102448
0.0102393
0.0102346
0.0102305
0.0102275
0.0102256
0.0102249
0.010225
0.00813936
0.00813892
0.00813764
0.00813544
0.00813256
0.00812926
0.00812575
0.00812218
0.0081187
0.00811541
0.00811242
0.00810977
0.00810754
0.00810576
0.00810446
0.00810365
0.00810336
0.00810357
0.00810432
0.00810559
0.00810738
0.00810971
0.00811255
0.00811589
0.00811974
0.00812408
0.00812893
0.00813425
0.00814006
0.00814632
0.00815306
0.00816024
0.00816789
0.00817598
0.00818452
0.00819348
0.00820289
0.0082127
0.00822297
0.00823364
0.00824473
0.00825623
0.00826814
0.00828044
0.00829315
0.00830625
0.00831975
0.00833364
0.00834791
0.00836256
0.00837759
0.00839298
0.00840873
0.00842485
0.0084413
0.0084581
0.00847525
0.00849271
0.00851049
0.00852858
0.00854697
0.00856563
0.00858458
0.00860379
0.00862323
0.00864293
0.00866283
0.00868293
0.00870324
0.00872371
0.00874434
0.00876511
0.00878598
0.00880698
0.00882806
0.00884921
0.00887038
0.00889158
0.0089128
0.008934
0.00895518
0.00897631
0.00899735
0.00901833
0.0090392
0.00905995
0.00908057
0.00910104
0.00912136
0.00914149
0.00916145
0.0091812
0.00920075
0.0092201
0.00923923
0.00925814
0.00927682
0.0092953
0.00931355
0.00933158
0.00934942
0.00936701
0.00938445
0.00940168
0.00941874
0.00943564
0.00945237
0.009469
0.00948548
0.00950187
0.00951816
0.00953441
0.00955059
0.00956677
0.00958292
0.00959909
0.00961527
0.00963153
0.00964782
0.00966417
0.00968062
0.00969718
0.00971386
0.00973065
0.00974757
0.0097646
0.00978179
0.00979909
0.00981651
0.00983407
0.00985173
0.00986946
0.00988732
0.00990523
0.00992316
0.00994112
0.0099591
0.00997701
0.00999491
0.0100127
0.0100303
0.0100478
0.0100651
0.0100822
0.010099
0.0101154
0.0101316
0.0101474
0.0101627
0.0101776
0.010192
0.0102058
0.0102191
0.0102319
0.010244
0.0102554
0.0102663
0.0102764
0.0102858
0.0102945
0.0103025
0.0103097
0.0103162
0.0103219
0.0103269
0.0103312
0.0103346
0.0103374
0.0103395
0.0103408
0.0103414
0.0103414
0.0103407
0.0103394
0.0103374
0.010335
0.0103319
0.0103284
0.0103244
0.0103199
0.010315
0.0103098
0.0103043
0.0102984
0.0102924
0.0102862
0.0102799
0.0102735
0.0102671
0.0102608
0.0102547
0.0102488
0.0102433
0.0102383
0.0102339
0.0102302
0.0102274
0.0102256
0.010225
0.0102251
0.00814078
0.00814021
0.00813892
0.00813691
0.00813437
0.00813149
0.00812842
0.0081253
0.00812227
0.00811939
0.00811679
0.00811449
0.00811257
0.00811106
0.00810998
0.00810938
0.00810926
0.00810962
0.00811048
0.00811185
0.00811372
0.00811608
0.00811894
0.0081223
0.00812614
0.00813048
0.00813528
0.00814056
0.00814631
0.00815251
0.00815918
0.00816628
0.00817384
0.00818183
0.00819027
0.00819913
0.00820842
0.00821814
0.00822826
0.00823882
0.00824976
0.00826112
0.00827288
0.00828507
0.00829763
0.00831058
0.00832393
0.00833767
0.00835178
0.00836626
0.00838113
0.00839636
0.00841196
0.00842791
0.0084442
0.00846084
0.00847782
0.00849511
0.00851272
0.00853065
0.00854888
0.00856738
0.00858617
0.00860523
0.00862451
0.00864406
0.00866382
0.00868379
0.00870395
0.00872429
0.00874478
0.00876544
0.00878621
0.00880709
0.00882806
0.00884911
0.00887018
0.00889132
0.00891247
0.0089336
0.00895471
0.00897579
0.00899682
0.00901775
0.00903861
0.00905935
0.00907997
0.00910045
0.00912078
0.00914093
0.00916091
0.00918071
0.00920031
0.00921972
0.00923889
0.00925788
0.00927665
0.00929521
0.00931354
0.00933167
0.00934958
0.0093673
0.00938481
0.00940214
0.0094193
0.0094363
0.00945315
0.00946984
0.00948643
0.0095029
0.0095193
0.00953561
0.00955188
0.00956812
0.00958434
0.00960054
0.00961678
0.00963304
0.00964934
0.00966572
0.00968218
0.00969872
0.00971537
0.00973213
0.00974898
0.00976595
0.00978306
0.00980026
0.00981758
0.00983499
0.00985252
0.0098701
0.00988776
0.0099055
0.00992323
0.00994098
0.00995873
0.00997642
0.00999405
0.0100116
0.0100289
0.0100462
0.0100632
0.01008
0.0100965
0.0101126
0.0101285
0.0101439
0.010159
0.0101735
0.0101876
0.0102012
0.0102142
0.0102267
0.0102385
0.0102497
0.0102602
0.0102701
0.0102793
0.0102878
0.0102955
0.0103026
0.0103089
0.0103144
0.0103193
0.0103234
0.0103268
0.0103294
0.0103314
0.0103327
0.0103333
0.0103333
0.0103327
0.0103314
0.0103295
0.0103271
0.0103243
0.0103208
0.010317
0.0103127
0.0103081
0.0103032
0.0102979
0.0102924
0.0102867
0.0102809
0.0102749
0.010269
0.010263
0.0102572
0.0102516
0.0102462
0.0102412
0.0102366
0.0102326
0.0102293
0.0102267
0.010225
0.0102244
0.0102245
0.00814329
0.00814242
0.00814093
0.0081389
0.0081365
0.00813384
0.00813105
0.00812823
0.0081255
0.00812294
0.00812063
0.0081186
0.00811694
0.00811564
0.0081148
0.00811436
0.00811438
0.00811486
0.00811585
0.0081173
0.00811922
0.00812164
0.00812453
0.00812789
0.00813174
0.00813607
0.00814084
0.00814608
0.00815179
0.00815794
0.00816453
0.00817157
0.00817905
0.00818697
0.0081953
0.00820407
0.00821325
0.00822285
0.00823287
0.00824329
0.00825413
0.00826536
0.00827701
0.00828905
0.00830147
0.0083143
0.0083275
0.00834109
0.00835506
0.00836941
0.00838412
0.00839921
0.00841465
0.00843045
0.0084466
0.00846309
0.00847992
0.00849708
0.00851454
0.00853232
0.00855039
0.00856878
0.00858742
0.00860633
0.00862551
0.00864492
0.00866455
0.0086844
0.00870445
0.0087247
0.00874509
0.00876564
0.00878631
0.00880711
0.008828
0.00884897
0.00887
0.00889108
0.00891217
0.00893327
0.00895435
0.00897542
0.00899641
0.00901735
0.00903819
0.00905894
0.00907958
0.00910008
0.00912044
0.00914064
0.00916064
0.0091805
0.00920016
0.00921962
0.00923887
0.00925793
0.00927674
0.00929538
0.0093138
0.009332
0.00935
0.00936781
0.0093854
0.00940282
0.00942006
0.00943712
0.00945407
0.00947084
0.00948748
0.00950402
0.0095205
0.00953687
0.0095532
0.00956948
0.00958574
0.00960198
0.00961823
0.00963451
0.00965084
0.00966721
0.00968365
0.00970018
0.00971677
0.0097335
0.00975029
0.0097672
0.00978421
0.00980132
0.00981852
0.00983584
0.00985322
0.00987069
0.00988822
0.00990578
0.00992335
0.00994093
0.00995848
0.00997598
0.0099934
0.0100107
0.0100279
0.0100448
0.0100616
0.0100782
0.0100944
0.0101103
0.0101259
0.0101411
0.0101559
0.0101702
0.0101841
0.0101974
0.0102101
0.0102223
0.0102339
0.0102449
0.0102552
0.0102648
0.0102738
0.0102821
0.0102896
0.0102965
0.0103026
0.010308
0.0103127
0.0103167
0.01032
0.0103226
0.0103245
0.0103257
0.0103263
0.0103262
0.0103256
0.0103243
0.0103225
0.0103202
0.0103174
0.0103141
0.0103104
0.0103063
0.0103019
0.0102971
0.0102921
0.0102869
0.0102815
0.0102759
0.0102703
0.0102647
0.0102591
0.0102536
0.0102483
0.0102433
0.0102386
0.0102344
0.0102306
0.0102275
0.010225
0.0102234
0.0102226
0.0102225
0.00814654
0.00814531
0.00814346
0.00814129
0.00813888
0.00813631
0.00813367
0.00813105
0.00812854
0.00812621
0.00812413
0.00812233
0.00812087
0.00811978
0.00811908
0.00811882
0.00811898
0.00811959
0.00812066
0.00812218
0.00812418
0.00812664
0.00812957
0.00813296
0.00813681
0.00814112
0.00814587
0.00815109
0.00815675
0.00816285
0.00816939
0.00817637
0.00818376
0.0081916
0.00819985
0.00820851
0.0082176
0.0082271
0.00823701
0.00824732
0.00825804
0.00826915
0.00828066
0.00829258
0.00830488
0.00831758
0.00833064
0.0083441
0.00835794
0.00837214
0.00838672
0.00840166
0.00841697
0.00843263
0.00844865
0.00846499
0.00848167
0.0084987
0.00851604
0.00853368
0.00855164
0.00856988
0.0085884
0.0086072
0.00862625
0.00864556
0.00866509
0.00868484
0.00870481
0.00872494
0.00874526
0.00876572
0.00878633
0.00880707
0.00882791
0.00884882
0.00886982
0.00889086
0.00891193
0.00893301
0.00895409
0.00897513
0.00899614
0.00901708
0.00903794
0.00905871
0.00907938
0.00909991
0.00912031
0.00914056
0.00916063
0.00918055
0.00920025
0.00921978
0.0092391
0.00925824
0.00927716
0.00929585
0.00931435
0.00933264
0.0093507
0.00936856
0.00938626
0.00940375
0.00942108
0.00943822
0.0094552
0.00947205
0.00948877
0.00950537
0.00952189
0.00953831
0.00955466
0.00957098
0.00958726
0.00960352
0.00961979
0.00963606
0.00965238
0.00966876
0.00968516
0.00970166
0.00971822
0.00973487
0.00975161
0.00976845
0.00978539
0.00980242
0.00981953
0.00983675
0.00985403
0.00987135
0.00988874
0.00990615
0.00992358
0.009941
0.00995837
0.00997571
0.00999294
0.0100101
0.010027
0.0100438
0.0100604
0.0100767
0.0100927
0.0101085
0.0101238
0.0101388
0.0101534
0.0101674
0.0101811
0.0101941
0.0102067
0.0102187
0.01023
0.0102407
0.0102508
0.0102603
0.010269
0.0102771
0.0102845
0.0102912
0.0102971
0.0103024
0.0103069
0.0103108
0.0103139
0.0103164
0.0103182
0.0103194
0.0103199
0.0103198
0.0103191
0.0103179
0.0103161
0.0103138
0.0103111
0.0103079
0.0103043
0.0103003
0.010296
0.0102914
0.0102866
0.0102815
0.0102763
0.0102711
0.0102657
0.0102604
0.010255
0.0102499
0.0102449
0.0102401
0.0102357
0.0102316
0.010228
0.0102249
0.0102225
0.0102208
0.0102199
0.0102195
0.00815028
0.00814862
0.00814634
0.00814395
0.00814144
0.00813885
0.00813628
0.00813378
0.00813142
0.00812925
0.00812734
0.00812572
0.00812444
0.00812352
0.00812297
0.00812283
0.00812312
0.00812384
0.008125
0.00812661
0.00812866
0.00813117
0.00813413
0.00813753
0.00814139
0.0081457
0.00815044
0.00815563
0.00816126
0.00816731
0.0081738
0.0081807
0.00818804
0.00819579
0.00820396
0.00821253
0.00822153
0.00823093
0.00824073
0.00825094
0.00826154
0.00827255
0.00828393
0.00829572
0.0083079
0.00832045
0.00833339
0.00834673
0.00836044
0.0083745
0.00838896
0.00840376
0.00841894
0.00843446
0.00845035
0.00846656
0.00848313
0.00850003
0.00851724
0.00853477
0.00855261
0.00857074
0.00858915
0.00860784
0.00862681
0.00864601
0.00866545
0.00868512
0.008705
0.00872508
0.00874533
0.00876575
0.0087863
0.008807
0.00882779
0.00884869
0.00886965
0.00889069
0.00891176
0.00893285
0.00895392
0.00897497
0.00899599
0.00901698
0.00903789
0.0090587
0.0090794
0.00909999
0.00912046
0.00914075
0.0091609
0.00918088
0.00920066
0.00922027
0.00923967
0.00925887
0.00927786
0.00929664
0.00931522
0.00933358
0.00935175
0.00936969
0.00938745
0.009405
0.0094224
0.00943961
0.00945666
0.00947356
0.00949032
0.00950698
0.00952353
0.00953997
0.00955634
0.00957269
0.00958896
0.00960525
0.00962153
0.00963779
0.00965409
0.00967042
0.00968682
0.00970326
0.00971978
0.00973637
0.00975305
0.00976982
0.00978669
0.00980364
0.00982065
0.00983773
0.00985491
0.00987213
0.0098894
0.00990669
0.00992398
0.00994126
0.00995851
0.00997569
0.00999275
0.0100097
0.0100265
0.0100431
0.0100595
0.0100756
0.0100915
0.010107
0.0101222
0.0101369
0.0101513
0.0101652
0.0101786
0.0101914
0.0102038
0.0102155
0.0102267
0.0102372
0.0102471
0.0102563
0.0102649
0.0102728
0.01028
0.0102865
0.0102923
0.0102974
0.0103018
0.0103055
0.0103085
0.0103109
0.0103126
0.0103137
0.0103141
0.010314
0.0103132
0.010312
0.0103102
0.0103079
0.0103052
0.010302
0.0102985
0.0102946
0.0102904
0.010286
0.0102813
0.0102764
0.0102714
0.0102663
0.0102611
0.010256
0.0102509
0.0102459
0.0102412
0.0102366
0.0102323
0.0102284
0.0102249
0.0102219
0.0102194
0.0102175
0.0102162
0.0102156
0.00815427
0.00815216
0.00814941
0.00814673
0.00814404
0.00814138
0.0081388
0.00813635
0.00813408
0.00813204
0.00813025
0.00812877
0.00812762
0.00812683
0.00812642
0.00812641
0.0081268
0.00812762
0.00812887
0.00813054
0.00813266
0.00813521
0.00813821
0.00814162
0.00814549
0.00814979
0.00815452
0.00815969
0.00816527
0.00817128
0.00817773
0.00818457
0.00819184
0.00819951
0.00820761
0.00821611
0.00822499
0.0082343
0.008244
0.00825411
0.00826461
0.00827549
0.00828676
0.00829843
0.00831049
0.00832293
0.00833575
0.00834895
0.00836254
0.00837648
0.0083908
0.00840549
0.00842055
0.00843595
0.00845171
0.00846782
0.00848426
0.00850105
0.00851815
0.00853558
0.00855331
0.00857135
0.00858968
0.00860828
0.00862715
0.0086463
0.00866567
0.00868527
0.0087051
0.00872513
0.00874533
0.00876571
0.00878625
0.0088069
0.00882771
0.0088486
0.00886957
0.00889059
0.00891168
0.00893278
0.00895389
0.008975
0.00899606
0.00901708
0.00903804
0.00905893
0.00907971
0.00910034
0.00912087
0.00914126
0.00916148
0.00918154
0.00920141
0.00922111
0.0092406
0.00925987
0.00927896
0.00929783
0.00931648
0.00933492
0.00935316
0.00937118
0.00938902
0.00940665
0.00942408
0.00944135
0.00945846
0.00947542
0.00949223
0.00950891
0.00952547
0.00954196
0.00955837
0.0095747
0.00959101
0.00960726
0.00962352
0.00963977
0.00965605
0.00967235
0.00968869
0.00970509
0.00972156
0.00973811
0.00975472
0.00977141
0.00978818
0.00980503
0.00982199
0.00983897
0.00985603
0.00987316
0.0098903
0.00990747
0.00992463
0.00994178
0.0099589
0.00997591
0.00999285
0.0100096
0.0100263
0.0100428
0.010059
0.0100749
0.0100906
0.010106
0.010121
0.0101355
0.0101497
0.0101634
0.0101766
0.0101893
0.0102014
0.010213
0.010224
0.0102343
0.010244
0.0102531
0.0102614
0.0102691
0.0102762
0.0102825
0.0102881
0.010293
0.0102973
0.0103009
0.0103037
0.010306
0.0103076
0.0103086
0.0103089
0.0103087
0.0103079
0.0103066
0.0103047
0.0103024
0.0102997
0.0102966
0.0102931
0.0102892
0.0102851
0.0102807
0.0102761
0.0102714
0.0102665
0.0102615
0.0102565
0.0102516
0.0102467
0.0102419
0.0102372
0.0102328
0.0102287
0.0102248
0.0102213
0.0102182
0.0102156
0.0102135
0.0102119
0.0102109
0.00815831
0.00815576
0.00815252
0.00814951
0.00814663
0.00814384
0.0081412
0.00813874
0.00813651
0.00813453
0.00813285
0.00813147
0.00813042
0.00812974
0.00812944
0.00812952
0.00813001
0.00813091
0.00813224
0.00813398
0.00813615
0.00813874
0.00814177
0.00814521
0.00814908
0.00815338
0.0081581
0.00816324
0.00816881
0.00817477
0.00818115
0.00818796
0.00819515
0.00820275
0.00821078
0.00821919
0.008228
0.0082372
0.00824682
0.00825681
0.00826721
0.00827798
0.00828916
0.00830073
0.00831266
0.00832498
0.0083377
0.00835079
0.00836424
0.00837809
0.00839228
0.00840686
0.00842179
0.00843709
0.00845274
0.00846874
0.00848509
0.00850177
0.00851878
0.00853611
0.00855377
0.00857172
0.00858997
0.00860852
0.00862733
0.0086464
0.00866574
0.0086853
0.00870508
0.00872508
0.00874529
0.00876564
0.00878617
0.00880686
0.00882765
0.00884856
0.00886955
0.00889063
0.00891173
0.00893289
0.00895407
0.00897522
0.00899636
0.00901745
0.00903849
0.00905944
0.0090803
0.00910104
0.00912167
0.00914213
0.00916246
0.00918261
0.00920258
0.00922235
0.00924195
0.00926132
0.0092805
0.00929946
0.00931819
0.00933673
0.00935505
0.00937316
0.00939105
0.00940874
0.00942625
0.00944357
0.00946073
0.0094777
0.00949457
0.00951129
0.00952787
0.00954437
0.00956078
0.0095771
0.0095934
0.00960964
0.00962588
0.0096421
0.00965836
0.00967463
0.00969091
0.00970728
0.00972367
0.00974013
0.00975669
0.0097733
0.00979001
0.00980677
0.00982363
0.0098405
0.00985748
0.00987447
0.00989151
0.00990857
0.00992562
0.00994265
0.00995961
0.00997651
0.0099933
0.01001
0.0100265
0.0100428
0.0100588
0.0100747
0.0100902
0.0101054
0.0101202
0.0101346
0.0101486
0.0101622
0.0101752
0.0101877
0.0101996
0.010211
0.0102218
0.010232
0.0102415
0.0102504
0.0102586
0.0102661
0.0102729
0.0102791
0.0102845
0.0102893
0.0102934
0.0102968
0.0102995
0.0103016
0.0103031
0.0103039
0.0103042
0.0103039
0.010303
0.0103016
0.0102997
0.0102974
0.0102946
0.0102915
0.010288
0.0102842
0.0102801
0.0102758
0.0102712
0.0102666
0.0102617
0.0102569
0.010252
0.0102472
0.0102423
0.0102377
0.0102331
0.0102288
0.0102247
0.0102208
0.0102173
0.0102141
0.0102114
0.010209
0.010207
0.0102057
0.00816224
0.00815927
0.00815555
0.00815221
0.00814908
0.00814612
0.0081434
0.0081409
0.00813867
0.00813674
0.0081351
0.00813379
0.00813283
0.00813224
0.00813202
0.00813219
0.00813276
0.00813374
0.00813512
0.00813692
0.00813914
0.00814176
0.00814481
0.00814827
0.00815216
0.00815645
0.00816116
0.00816628
0.0081718
0.00817774
0.00818409
0.00819083
0.00819797
0.00820552
0.00821345
0.0082218
0.00823052
0.00823965
0.00824917
0.00825907
0.00826935
0.00828004
0.00829111
0.00830257
0.0083144
0.00832662
0.00833922
0.0083522
0.00836556
0.00837928
0.00839339
0.00840784
0.00842269
0.00843788
0.00845344
0.00846933
0.0084856
0.0085022
0.00851914
0.00853641
0.00855398
0.00857188
0.00859008
0.00860856
0.00862735
0.00864639
0.00866569
0.00868523
0.00870502
0.008725
0.00874522
0.0087656
0.00878615
0.00880685
0.00882768
0.00884864
0.00886969
0.00889081
0.008912
0.00893323
0.00895448
0.00897573
0.00899696
0.00901814
0.00903927
0.00906033
0.00908129
0.00910214
0.00912286
0.00914346
0.00916388
0.00918415
0.00920423
0.00922412
0.00924381
0.0092633
0.00928258
0.00930164
0.00932046
0.00933909
0.00935748
0.00937566
0.00939364
0.00941141
0.00942897
0.00944635
0.00946354
0.00948056
0.00949743
0.00951417
0.00953078
0.0095473
0.00956369
0.00958004
0.0095963
0.00961254
0.00962873
0.00964492
0.00966112
0.00967733
0.00969358
0.00970988
0.0097262
0.00974261
0.00975907
0.0097756
0.00979219
0.00980886
0.00982561
0.00984242
0.00985928
0.00987619
0.00989311
0.00991006
0.00992697
0.00994388
0.00996072
0.00997751
0.00999418
0.0100107
0.0100271
0.0100432
0.0100592
0.0100748
0.0100902
0.0101053
0.0101199
0.0101342
0.0101481
0.0101614
0.0101743
0.0101866
0.0101984
0.0102096
0.0102203
0.0102302
0.0102396
0.0102483
0.0102563
0.0102637
0.0102703
0.0102763
0.0102816
0.0102862
0.0102901
0.0102933
0.0102959
0.0102979
0.0102992
0.0102999
0.0103
0.0102996
0.0102986
0.0102971
0.0102952
0.0102927
0.0102899
0.0102867
0.0102832
0.0102794
0.0102753
0.010271
0.0102665
0.0102618
0.0102571
0.0102523
0.0102475
0.0102427
0.010238
0.0102333
0.0102289
0.0102245
0.0102204
0.0102166
0.010213
0.0102097
0.0102068
0.0102041
0.0102017
0.0102
0.00816595
0.00816256
0.00815839
0.0081547
0.00815132
0.0081482
0.00814534
0.00814278
0.00814054
0.0081386
0.00813699
0.00813572
0.00813482
0.0081343
0.00813416
0.0081344
0.00813503
0.00813607
0.0081375
0.00813936
0.00814161
0.00814427
0.00814734
0.00815082
0.00815472
0.00815901
0.00816372
0.0081688
0.00817431
0.00818021
0.00818652
0.0081932
0.0082003
0.00820776
0.00821564
0.00822391
0.00823257
0.00824161
0.00825104
0.00826085
0.00827107
0.00828163
0.00829261
0.00830397
0.00831571
0.00832783
0.00834032
0.0083532
0.00836645
0.0083801
0.00839411
0.00840849
0.00842323
0.00843834
0.00845383
0.00846966
0.00848582
0.00850237
0.00851925
0.00853644
0.00855398
0.00857183
0.00859
0.00860846
0.00862722
0.00864626
0.00866555
0.00868512
0.00870492
0.00872493
0.00874516
0.00876559
0.00878619
0.00880695
0.00882786
0.00884888
0.00887001
0.00889123
0.00891252
0.00893383
0.00895518
0.00897655
0.0089979
0.0090192
0.00904045
0.00906164
0.00908272
0.00910371
0.00912457
0.0091453
0.00916587
0.00918624
0.00920646
0.00922647
0.00924628
0.00926588
0.00928527
0.00930443
0.00932338
0.0093421
0.00936058
0.00937884
0.00939688
0.00941473
0.00943235
0.00944978
0.00946704
0.0094841
0.00950097
0.00951774
0.00953436
0.00955087
0.00956726
0.00958358
0.00959985
0.00961603
0.0096322
0.00964833
0.00966449
0.00968064
0.00969682
0.00971302
0.00972928
0.0097456
0.00976198
0.00977842
0.00979494
0.0098115
0.00982813
0.00984484
0.00986158
0.00987836
0.00989518
0.00991199
0.00992881
0.00994558
0.00996233
0.00997897
0.0099955
0.0100119
0.0100281
0.0100442
0.01006
0.0100755
0.0100908
0.0101057
0.0101202
0.0101343
0.010148
0.0101612
0.0101739
0.0101861
0.0101977
0.0102088
0.0102192
0.0102291
0.0102382
0.0102467
0.0102546
0.0102618
0.0102682
0.010274
0.0102792
0.0102836
0.0102873
0.0102904
0.0102928
0.0102946
0.0102958
0.0102963
0.0102963
0.0102957
0.0102946
0.010293
0.010291
0.0102885
0.0102856
0.0102823
0.0102787
0.0102749
0.0102707
0.0102664
0.0102619
0.0102573
0.0102525
0.0102478
0.010243
0.0102382
0.0102335
0.0102289
0.0102244
0.0102201
0.010216
0.0102121
0.0102084
0.010205
0.0102018
0.0101989
0.0101961
0.0101941
0.0081693
0.00816554
0.00816094
0.00815692
0.00815328
0.00814998
0.00814698
0.00814435
0.00814203
0.00814009
0.00813848
0.00813725
0.00813639
0.00813592
0.00813582
0.00813612
0.00813681
0.0081379
0.00813939
0.00814128
0.00814356
0.00814626
0.00814936
0.00815285
0.00815675
0.00816103
0.00816573
0.00817081
0.00817628
0.00818214
0.0081884
0.00819505
0.00820209
0.00820951
0.00821732
0.00822552
0.0082341
0.00824307
0.00825242
0.00826216
0.00827227
0.00828278
0.00829366
0.00830493
0.00831657
0.00832861
0.00834101
0.0083538
0.00836697
0.00838052
0.00839445
0.00840875
0.00842342
0.00843846
0.00845387
0.00846965
0.00848579
0.00850228
0.0085191
0.00853629
0.00855379
0.00857163
0.00858979
0.00860826
0.00862702
0.00864608
0.0086654
0.00868499
0.00870482
0.00872491
0.00874519
0.00876568
0.00878637
0.00880722
0.00882821
0.00884935
0.00887059
0.00889193
0.00891333
0.00893479
0.00895629
0.00897779
0.00899926
0.00902073
0.00904213
0.00906347
0.00908472
0.00910585
0.00912686
0.00914774
0.00916845
0.009189
0.00920935
0.00922952
0.00924946
0.00926921
0.00928872
0.009308
0.00932706
0.00934586
0.00936446
0.00938281
0.00940094
0.00941884
0.00943654
0.00945403
0.0094713
0.00948839
0.00950533
0.00952209
0.00953874
0.00955522
0.00957162
0.00958791
0.00960412
0.00962028
0.00963641
0.00965251
0.00966857
0.00968465
0.00970075
0.00971688
0.00973304
0.00974927
0.00976555
0.00978188
0.00979829
0.00981474
0.00983127
0.00984785
0.00986447
0.00988113
0.00989782
0.00991453
0.0099312
0.00994785
0.00996445
0.00998096
0.00999736
0.0100136
0.0100297
0.0100456
0.0100613
0.0100767
0.0100918
0.0101065
0.0101209
0.0101349
0.0101484
0.0101615
0.0101741
0.0101861
0.0101976
0.0102084
0.0102187
0.0102283
0.0102374
0.0102457
0.0102534
0.0102604
0.0102667
0.0102723
0.0102772
0.0102815
0.010285
0.0102879
0.0102902
0.0102918
0.0102928
0.0102932
0.010293
0.0102923
0.0102911
0.0102893
0.0102871
0.0102845
0.0102815
0.0102782
0.0102745
0.0102706
0.0102664
0.010262
0.0102575
0.0102528
0.0102481
0.0102433
0.0102385
0.0102337
0.010229
0.0102244
0.0102199
0.0102156
0.0102114
0.0102074
0.0102036
0.0102
0.0101967
0.0101934
0.0101903
0.0101879
0.00817223
0.00816812
0.00816312
0.00815879
0.0081549
0.00815139
0.00814827
0.00814554
0.00814317
0.00814118
0.00813957
0.00813836
0.0081375
0.00813707
0.00813701
0.00813735
0.00813809
0.00813922
0.00814074
0.00814267
0.008145
0.00814772
0.00815084
0.00815435
0.00815824
0.00816252
0.0081672
0.00817227
0.00817772
0.00818356
0.00818978
0.00819638
0.00820336
0.00821074
0.00821848
0.00822661
0.00823513
0.00824404
0.0082533
0.00826296
0.00827299
0.00828343
0.00829423
0.00830542
0.00831698
0.00832893
0.00834128
0.00835398
0.00836708
0.00838056
0.00839443
0.00840866
0.0084233
0.00843828
0.00845365
0.00846938
0.00848548
0.00850193
0.00851877
0.00853592
0.00855344
0.00857129
0.00858945
0.00860795
0.00862675
0.00864584
0.00866523
0.00868489
0.00870479
0.00872497
0.00874534
0.00876596
0.00878674
0.00880772
0.00882886
0.00885012
0.0088715
0.00889299
0.00891456
0.00893617
0.00895784
0.0089795
0.00900117
0.00902281
0.00904439
0.00906592
0.00908735
0.00910867
0.00912987
0.00915091
0.00917181
0.00919251
0.00921304
0.00923335
0.00925348
0.00927334
0.00929301
0.00931242
0.00933162
0.00935055
0.00936925
0.0093877
0.0094059
0.00942389
0.00944165
0.0094592
0.00947653
0.00949365
0.00951062
0.0095274
0.00954403
0.00956052
0.0095769
0.00959317
0.00960934
0.00962545
0.0096415
0.00965754
0.00967353
0.00968953
0.00970554
0.00972157
0.00973764
0.00975376
0.0097699
0.00978611
0.00980239
0.00981872
0.00983513
0.00985157
0.00986806
0.00988456
0.00990113
0.00991767
0.00993421
0.00995074
0.00996718
0.00998353
0.0099998
0.0100159
0.0100319
0.0100476
0.0100632
0.0100784
0.0100934
0.0101079
0.0101222
0.010136
0.0101494
0.0101623
0.0101747
0.0101866
0.0101979
0.0102086
0.0102187
0.0102282
0.010237
0.0102452
0.0102527
0.0102595
0.0102656
0.0102711
0.0102758
0.0102798
0.0102832
0.010286
0.010288
0.0102894
0.0102902
0.0102905
0.0102902
0.0102892
0.0102879
0.010286
0.0102836
0.0102809
0.0102778
0.0102743
0.0102705
0.0102665
0.0102622
0.0102578
0.0102532
0.0102485
0.0102437
0.0102389
0.010234
0.0102292
0.0102245
0.0102198
0.0102153
0.0102109
0.0102066
0.0102025
0.0101986
0.0101949
0.0101913
0.0101878
0.0101843
0.0101817
0.00817466
0.00817024
0.00816486
0.00816023
0.00815611
0.00815242
0.00814915
0.00814631
0.00814387
0.00814184
0.00814021
0.00813899
0.00813816
0.00813773
0.00813771
0.00813808
0.00813886
0.00814003
0.00814159
0.00814355
0.00814589
0.00814863
0.00815175
0.00815528
0.00815917
0.00816346
0.00816812
0.00817316
0.00817861
0.00818441
0.00819059
0.00819716
0.0082041
0.00821143
0.00821912
0.0082272
0.00823565
0.00824448
0.00825369
0.00826329
0.00827326
0.00828361
0.00829434
0.00830547
0.00831696
0.00832885
0.00834112
0.00835377
0.00836683
0.00838024
0.00839406
0.00840825
0.00842283
0.00843778
0.00845313
0.00846885
0.00848493
0.00850139
0.00851822
0.00853541
0.00855294
0.00857084
0.00858904
0.0086076
0.00862647
0.00864565
0.00866512
0.00868487
0.0087049
0.00872518
0.0087457
0.00876643
0.00878738
0.00880851
0.00882982
0.00885126
0.00887282
0.00889451
0.00891626
0.00893807
0.00895994
0.00898184
0.0090037
0.00902555
0.00904735
0.00906908
0.00909072
0.00911226
0.00913366
0.00915493
0.009176
0.00919692
0.00921764
0.00923815
0.00925843
0.0092785
0.00929831
0.00931788
0.0093372
0.00935629
0.00937509
0.00939366
0.00941197
0.00943005
0.00944787
0.00946547
0.00948287
0.00950004
0.00951701
0.00953381
0.00955045
0.00956692
0.00958327
0.00959948
0.00961562
0.00963167
0.00964767
0.0096636
0.00967953
0.00969542
0.00971131
0.00972725
0.00974318
0.00975917
0.0097752
0.00979125
0.00980739
0.00982358
0.00983981
0.00985611
0.00987245
0.0098888
0.00990519
0.00992158
0.00993793
0.00995428
0.00997057
0.00998678
0.0100029
0.0100188
0.0100347
0.0100502
0.0100656
0.0100807
0.0100954
0.0101099
0.010124
0.0101376
0.0101508
0.0101636
0.0101758
0.0101875
0.0101987
0.0102092
0.0102191
0.0102284
0.0102371
0.0102451
0.0102524
0.010259
0.010265
0.0102702
0.0102748
0.0102786
0.0102818
0.0102843
0.0102862
0.0102874
0.0102881
0.0102881
0.0102876
0.0102865
0.010285
0.0102829
0.0102804
0.0102775
0.0102742
0.0102706
0.0102667
0.0102626
0.0102582
0.0102537
0.010249
0.0102442
0.0102393
0.0102344
0.0102296
0.0102247
0.0102199
0.0102152
0.0102106
0.0102061
0.0102017
0.0101976
0.0101935
0.0101896
0.0101858
0.0101821
0.0101783
0.0101754
0.00817653
0.0081718
0.0081661
0.0081612
0.00815686
0.00815299
0.00814957
0.00814662
0.00814411
0.00814204
0.00814038
0.00813915
0.00813832
0.00813791
0.0081379
0.00813831
0.0081391
0.00814029
0.00814189
0.00814386
0.00814622
0.00814898
0.00815212
0.00815565
0.00815955
0.00816382
0.00816848
0.00817352
0.00817892
0.00818471
0.00819086
0.00819739
0.00820428
0.00821156
0.00821921
0.00822723
0.00823564
0.00824441
0.00825356
0.0082631
0.00827301
0.0082833
0.00829398
0.00830504
0.00831648
0.00832832
0.00834055
0.00835315
0.00836615
0.00837955
0.00839333
0.00840751
0.00842207
0.00843702
0.00845236
0.00846809
0.00848419
0.00850066
0.00851754
0.00853477
0.00855237
0.00857032
0.00858861
0.00860726
0.00862622
0.00864552
0.00866512
0.00868501
0.00870519
0.00872561
0.00874631
0.00876724
0.00878836
0.0088097
0.0088312
0.00885285
0.00887465
0.00889655
0.00891854
0.00894061
0.00896272
0.00898484
0.00900697
0.00902907
0.00905112
0.00907309
0.00909499
0.00911677
0.00913841
0.00915991
0.00918123
0.00920237
0.00922331
0.00924404
0.00926451
0.00928477
0.00930476
0.00932452
0.009344
0.00936324
0.00938217
0.00940087
0.00941929
0.00943744
0.00945536
0.00947304
0.00949047
0.00950768
0.00952469
0.0095415
0.00955815
0.0095746
0.0095909
0.00960708
0.00962316
0.00963916
0.00965504
0.00967089
0.00968671
0.00970251
0.00971827
0.00973406
0.00974985
0.00976568
0.00978154
0.00979746
0.00981342
0.00982942
0.00984549
0.0098616
0.00987773
0.00989393
0.0099101
0.00992632
0.00994248
0.00995864
0.00997474
0.00999076
0.0100067
0.0100225
0.0100381
0.0100535
0.0100686
0.0100835
0.0100981
0.0101124
0.0101263
0.0101398
0.0101528
0.0101654
0.0101774
0.0101889
0.0101999
0.0102103
0.01022
0.0102291
0.0102376
0.0102454
0.0102525
0.0102589
0.0102647
0.0102697
0.0102741
0.0102778
0.0102808
0.0102831
0.0102847