/*--------------------------------*- C++ -*----------------------------------*\
  =========                 |
  \\      /  F ield         | OpenFOAM: The Open Source CFD Toolbox
   \\    /   O peration     | Website:  https://openfoam.org
    \\  /    A nd           | Version:  6
     \\/     M anipulation  |
\*---------------------------------------------------------------------------*/
FoamFile
{
    version     2.0;
    format      ascii;
    class       volScalarField;
    location    "0";
    object      p;
}
// * * * * * * * * * * * * * * * * * * * * * * * * * * * * * * * * * * * * * //

dimensions      [0 2 -2 0 0 0 0];

internalField   nonuniform List<scalar> 
9000
(
115.77
64.3221
50.0578
44.0303
40.8931
39.0988
37.9377
37.0976
36.4325
35.8661
35.3559
34.8768
34.4139
33.9583
33.5045
33.0496
32.592
32.1311
31.6667
31.1989
30.7283
30.2552
29.7801
29.3035
28.8258
28.3473
27.8684
27.3896
26.911
26.433
25.956
25.4803
25.0062
24.5342
24.0648
23.5986
23.1362
22.6786
22.227
21.7827
21.348
20.9255
20.5194
20.1355
19.7822
19.4711
19.2076
18.9625
18.9598
17.9112
87.1933
61.0624
50.6959
45.1308
41.8615
39.8325
38.4723
37.4845
36.7128
36.0696
35.5037
34.9841
34.4915
34.014
33.5443
33.0778
32.6118
32.1448
31.676
31.2053
30.7326
30.2581
29.7821
29.3048
28.8267
28.348
27.869
27.3901
26.9114
26.4334
25.9562
25.4802
25.0057
24.5331
24.0627
23.5952
23.131
22.6709
22.2158
21.7666
21.3248
20.8921
20.4705
20.0626
19.6706
19.2944
18.922
18.5057
18.0316
16.5236
69.8877
57.4088
50.5665
45.7181
42.5374
40.4145
38.9304
37.8336
36.9753
36.2657
35.6495
35.0919
34.5709
34.0721
33.5865
33.1082
32.6335
32.1602
31.6868
31.2128
30.7377
30.2616
29.7845
29.3065
28.8279
28.3489
27.8697
27.3906
26.9117
26.4335
25.956
25.4796
25.0045
24.5311
24.0596
23.5905
23.1242
22.6611
22.2018
21.7469
21.2969
20.8525
20.4137
19.9797
19.5471
19.106
18.6308
18.0534
17.2953
15.8834
60.5314
53.8949
49.3785
45.4988
42.6913
40.673
39.1895
38.0589
37.1597
36.412
35.7633
35.1794
34.6373
34.1222
33.6239
33.1359
32.6538
32.1749
31.6975
31.2204
30.7432
30.2655
29.7872
29.3084
28.8292
28.3498
27.8703
27.3909
26.9118
26.4332
25.9554
25.4784
25.0027
24.5283
24.0556
23.5848
23.1162
22.65
22.1865
21.7258
21.2679
20.8122
20.3574
19.9004
19.4344
18.9451
18.4038
17.7479
16.9062
15.6665
54.337
50.7707
47.8293
44.8706
42.521
40.704
39.2964
38.1843
37.2789
36.5156
35.8494
35.2488
34.6922
34.1649
33.6568
33.161
32.6727
32.1891
31.708
31.2281
30.7488
30.2695
29.7901
29.3105
28.8307
28.3507
27.8708
27.3911
26.9116
26.4327
25.9544
25.4768
25.0003
24.525
24.0509
23.5783
23.1073
22.638
22.1703
21.704
21.2384
20.7723
20.3033
19.8269
19.3348
18.8119
18.2319
17.5465
16.703
15.6128
49.8888
48.1189
46.2669
44.0728
42.1643
40.5812
39.2895
38.2294
37.3426
36.5816
35.9101
35.3013
34.736
34.2005
33.6852
33.1832
32.69
32.2023
31.718
31.2357
30.7544
30.2737
29.7931
29.3126
28.8321
28.3517
27.8713
27.3912
26.9113
26.4319
25.953
25.4749
24.9975
24.5211
24.0456
23.5713
23.0979
22.6255
22.1538
21.6821
21.2095
20.7342
20.2531
19.7612
19.2499
18.7052
18.1054
17.4158
16.6018
15.6359
46.6661
45.9278
44.812
43.2193
41.7013
40.3536
39.1963
38.2088
37.3585
36.6137
35.9471
35.3375
34.7687
34.2286
33.7086
33.2023
32.7053
32.2144
31.7274
31.2429
30.7599
30.2778
29.7961
29.3148
28.8336
28.3526
27.8717
27.3911
26.9108
26.4309
25.9515
25.4726
24.9944
24.5169
24.0401
23.5639
23.0883
22.613
22.1374
21.661
21.1822
20.6992
20.2084
19.7049
19.1807
18.6237
18.0172
17.3379
16.5656
15.7019
44.2941
44.1351
43.5085
42.3757
41.1884
40.0606
39.0418
38.1375
37.3353
36.6165
35.9629
35.3586
34.7908
34.2495
33.7272
33.2182
32.7184
32.2251
31.7359
31.2496
30.7651
30.2817
29.7991
29.3169
28.835
28.3534
27.8721
27.391
26.9102
26.4297
25.9497
25.4701
24.9911
24.5124
24.0343
23.5564
23.0787
22.6007
22.1218
21.6412
21.1573
20.668
20.17
19.6586
19.1267
18.5647
17.9604
17.2993
16.5714
15.7904
42.5082
42.6708
42.368
41.5808
40.6653
39.7336
38.8479
38.0301
37.282
36.5958
35.961
35.3667
34.8035
34.2637
33.741
33.2308
32.7294
32.2343
31.7435
31.2557
30.7699
30.2855
29.8019
29.3189
28.8364
28.3542
27.8723
27.3907
26.9094
26.4284
25.9478
25.4675
24.9876
24.5079
24.0285
23.5491
23.0694
22.589
22.1073
21.6232
21.1352
20.6412
20.1382
19.6219
19.0866
18.5249
17.9284
17.2889
16.6032
15.8886
41.1359
41.4735
41.385
40.855
40.1583
39.3959
38.6326
37.8993
37.2074
36.5573
35.9449
35.3639
34.8081
34.2719
33.7506
33.2404
32.7383
32.2421
31.7502
31.2612
30.7743
30.2889
29.8045
29.3208
28.8376
28.3549
27.8725
27.3903
26.9085
26.427
25.9458
25.4648
24.984
24.5034
24.0228
23.542
23.0606
22.5782
22.0941
21.6072
21.1162
20.6189
20.1128
19.5943
19.0587
18.5009
17.9154
17.2984
16.6505
15.9893
40.0637
40.493
40.5464
40.2065
39.6837
39.0643
38.41
37.7559
37.1191
36.5064
35.9183
35.3527
34.8062
34.2752
33.7565
33.2473
32.7453
32.2486
31.7559
31.266
30.7783
30.292
29.8068
29.3225
28.8387
28.3554
27.8725
27.3899
26.9076
26.4255
25.9437
25.462
24.9805
24.499
24.0173
23.5353
23.0525
22.5684
22.0824
21.5935
21.1003
20.6011
20.0935
19.5747
19.0413
18.4897
17.9168
17.3214
16.7067
16.0883
39.2151
39.6892
39.8368
39.637
39.251
38.7503
38.191
37.6087
37.0241
36.4479
35.8846
35.3354
34.7992
34.2746
33.7594
33.2519
32.7505
32.2538
31.7606
31.2702
30.7817
30.2948
29.8089
29.324
28.8396
28.3558
27.8724
27.3893
26.9065
26.424
25.9416
25.4593
24.9771
24.4948
24.0122
23.5291
23.0451
22.5597
22.0723
21.5819
21.0874
20.5873
20.0796
19.5622
19.0326
18.4885
17.9286
17.3534
16.7673
16.1836
38.5379
39.031
39.2412
39.1445
38.8655
38.462
37.9837
37.4648
36.9278
36.3861
35.847
35.3142
34.7889
34.271
33.7599
33.2547
32.7543
32.2578
31.7645
31.2736
30.7847
30.2971
29.8108
29.3252
28.8404
28.3561
27.8722
27.3887
26.9054
26.4223
25.9394
25.4566
24.9738
24.4907
24.0074
23.5234
23.0385
22.5521
22.0637
21.5725
21.0775
20.5773
20.0706
19.5556
19.0308
18.495
17.9478
17.391
16.8292
16.2738
37.9959
38.4944
38.7464
38.7255
38.5293
38.2044
37.7938
37.3298
36.8351
36.3248
35.8083
35.2912
34.7765
34.2655
33.7587
33.2559
32.7569
32.2609
31.7676
31.2765
30.7871
30.2991
29.8123
29.3263
28.841
28.3562
27.8719
27.3879
26.9042
26.4207
25.9373
25.454
24.9706
24.4869
24.0029
23.5183
23.0326
22.5456
22.0567
21.5651
21.0701
20.5706
20.0656
19.5539
19.0345
18.507
17.972
17.4316
16.8906
16.3582
37.5641
38.0613
38.3411
38.3757
38.2431
37.9808
37.6258
37.2079
36.7497
36.267
35.7708
35.2681
34.7633
34.259
33.7564
33.2562
32.7585
32.2632
31.77
31.2788
30.7891
30.3008
29.8135
29.3271
28.8413
28.3562
27.8715
27.3871
26.903
26.4191
25.9352
25.4514
24.9675
24.4834
23.9989
23.5137
23.0276
22.5401
22.051
21.5594
21.0649
20.5667
20.0639
19.5559
19.0422
18.523
17.9992
17.4734
16.95
16.4366
37.2247
37.7178
38.0162
38.091
38.0066
37.793
37.4824
37.1024
36.6745
36.2154
35.7367
35.2466
34.7506
34.2522
33.7535
33.2557
32.7594
32.2647
31.7718
31.2806
30.7907
30.302
29.8144
29.3276
28.8415
28.356
27.8709
27.3862
26.9017
26.4174
25.9332
25.449
24.9647
24.4801
23.9952
23.5096
23.0232
22.5356
22.0465
21.5553
21.0617
20.565
20.0649
19.5608
19.0529
18.5415
18.028
17.515
17.0065
16.5088
36.9654
37.4538
37.7643
37.8678
37.8189
37.6422
37.3659
37.0155
36.6119
36.1718
35.7074
35.2278
34.7393
34.2459
33.7506
33.2548
32.7597
32.2658
31.7731
31.2818
30.7918
30.3029
29.815
29.3279
28.8415
28.3556
27.8702
27.3852
26.9004
26.4157
25.9312
25.4466
24.962
24.4771
23.9918
23.506
23.0194
22.5319
22.043
21.5525
21.06
20.5652
20.0678
19.5678
19.0654
18.5613
18.0571
17.5552
17.0594
16.5748
36.7775
37.2616
37.5799
37.7031
37.6791
37.5288
37.2775
36.949
36.5636
36.1378
35.6844
35.2129
34.7301
34.2407
33.748
33.2539
32.7598
32.2664
31.7739
31.2826
30.7925
30.3034
29.8153
29.3279
28.8412
28.3551
27.8694
27.3841
26.899
26.4141
25.9292
25.4443
24.9594
24.4742
23.9887
23.5028
23.0162
22.5288
22.0403
21.5506
21.0594
20.5666
20.0721
19.576
19.0788
18.5815
18.0855
17.5934
17.1082
16.6345
36.6552
37.1362
37.4592
37.5946
37.5865
37.4532
37.2182
36.9041
36.5307
36.1145
35.6685
35.2025
34.7236
34.2369
33.746
33.2531
32.7597
32.2666
31.7743
31.2831
30.7928
30.3036
29.8152
29.3277
28.8408
28.3544
27.8685
27.3829
26.8975
26.4123
25.9272
25.4421
24.9569
24.4715
23.9859
23.4999
23.0134
22.5262
22.0383
21.5495
21.0597
20.5689
20.0772
19.5849
19.0925
18.6013
18.1126
17.6288
17.1527
16.688
36.5949
37.0743
37.3994
37.5407
37.5403
37.4153
37.1884
36.8814
36.5141
36.1027
35.6604
35.1971
34.7202
34.2349
33.7449
33.2526
32.7596
32.2666
31.7744
31.2831
30.7927
30.3034
29.8149
29.3272
28.8401
28.3536
27.8674
27.3816
26.896
26.4106
25.9253
25.4399
24.9545
24.469
23.9833
23.4973
23.0109
22.524
22.0367
21.5488
21.0604
20.5716
20.0825
19.5937
19.1059
18.62
18.1377
17.6611
17.1926
16.7355
36.5949
37.0743
37.3994
37.5407
37.5403
37.4153
37.1884
36.8814
36.5141
36.1027
35.6604
35.197
34.7201
34.2348
33.7448
33.2525
32.7594
32.2664
31.7741
31.2827
30.7923
30.3029
29.8143
29.3264
28.8392
28.3525
27.8662
27.3803
26.8945
26.4089
25.9233
25.4378
24.9522
24.4666
23.9808
23.4948
23.0085
22.5221
22.0353
21.5484
21.0613
20.5743
20.0878
19.6022
19.1182
18.6372
18.1604
17.6898
17.2277
16.7769
36.6551
37.1362
37.4591
37.5945
37.5864
37.4531
37.2181
36.904
36.5306
36.1144
35.6684
35.2023
34.7234
34.2367
33.7457
33.2527
32.7591
32.2659
31.7735
31.282
30.7915
30.302
29.8134
29.3254
28.8382
28.3514
27.8649
27.3788
26.8929
26.4071
25.9214
25.4357
24.9499
24.4642
23.9783
23.4923
23.0063
22.5201
22.034
21.5479
21.0621
20.5768
20.0925
19.6097
19.1293
18.6523
18.1802
17.7148
17.2581
16.8124
36.7774
37.2615
37.5798
37.703
37.6791
37.5287
37.2774
36.9489
36.5635
36.1376
35.6842
35.2126
34.7297
34.2402
33.7474
33.2532
32.7589
32.2652
31.7725
31.2809
30.7903
30.3008
29.8122
29.3242
28.8369
28.35
27.8635
27.3773
26.8912
26.4053
25.9194
25.4335
24.9476
24.4618
23.9758
23.4899
23.004
22.5181
22.0325
21.5472
21.0625
20.5787
20.0964
19.616
19.1386
18.6651
18.197
17.7359
17.2835
16.8421
36.9652
37.4536
37.7641
37.8677
37.8188
37.6421
37.3658
37.0153
36.6118
36.1715
35.7071
35.2274
34.7388
34.2453
33.7497
33.2538
32.7584
32.2641
31.7711
31.2794
30.7888
30.2993
29.8107
29.3228
28.8354
28.3485
27.862
27.3757
26.8895
26.4034
25.9174
25.4313
24.9453
24.4593
23.9733
23.4874
23.0016
22.516
22.0308
21.5461
21.0624
20.5799
20.0991
19.6209
19.1459
18.6754
18.2105
17.7528
17.304
16.866
37.2245
37.7176
38.016
38.0908
38.0065
37.7929
37.4823
37.1022
36.6743
36.2151
35.7363
35.2461
34.75
34.2514
33.7525
33.2544
32.7577
32.2627
31.7693
31.2774
30.7869
30.2975
29.8089
29.3211
28.8338
28.3469
27.8604
27.374
26.8877
26.4015
25.9153
25.4291
24.943
24.4568
23.9707
23.4847
22.9989
22.5135
22.0286
21.5445
21.0614
20.5799
20.1006
19.624
19.151
18.6828
18.2205
17.7656
17.3196
16.8842
37.5638
38.0611
38.3409
38.3755
38.243
37.9806
37.6256
37.2077
36.7494
36.2667
35.7704
35.2676
34.7626
34.258
33.7551
33.2546
32.7565
32.2607
31.767
31.2751
30.7846
30.2953
29.8069
29.3192
28.832
28.3452
27.8587
27.3722
26.8859
26.3996
25.9132
25.4269
24.9406
24.4542
23.968
23.4819
22.996
22.5106
22.0259
21.5421
21.0596
20.5789
20.1005
19.6251
19.1538
18.6873
18.227
17.7742
17.3303
16.8968
37.9956
38.4942
38.7462
38.7253
38.5292
38.2043
37.7936
37.3296
36.8348
36.3244
35.8078
35.2905
34.7756
34.2644
33.7573
33.2542
32.7546
32.2581
31.7642
31.2723
30.7819
30.2928
29.8047
29.3172
28.8301
28.3434
27.8569
27.3704
26.884
26.3976
25.9111
25.4246
24.9381
24.4515
23.9651
23.4788
22.9928
22.5073
22.0226
21.539
21.0567
20.5765
20.0987
19.6243
19.1539
18.6888
18.2299
17.7785
17.3361
16.904
38.5376
39.0307
39.241
39.1443
38.8653
38.4618
37.9835
37.4646
36.9275
36.3857
35.8465
35.3135
34.788
34.2698
33.7584
33.2527
32.7518
32.2548
31.7607
31.2689
30.7788
30.2901
29.8022
29.315
28.8281
28.3415
27.8551
27.3686
26.8822
26.3956
25.909
25.4223
24.9355
24.4487
23.962
23.4754
22.9892
22.5036
22.0187
21.5349
21.0528
20.5727
20.0952
19.6212
19.1515
18.6871
18.2291
17.7786
17.337
16.9058
39.2148
39.6889
39.8366
39.6368
39.2509
38.7502
38.1908
37.6085
37.0238
36.4474
35.8841
35.3347
34.7983
34.2733
33.7578
33.2499
32.7479
32.2505
31.7565
31.265
30.7754
30.287
29.7995
29.3126
28.826
28.3396
27.8532
27.3668
26.8803
26.3937
25.9069
25.4199
24.9329
24.4458
23.9587
23.4718
22.9852
22.4992
22.014
21.53
21.0476
20.5674
20.0899
19.616
19.1465
18.6823
18.2246
17.7745
17.3332
16.9022
40.0634
40.4927
40.5462
40.2063
39.6835
39.0641
38.4098
37.7557
37.1188
36.506
35.9178
35.352
34.8052
34.2739
33.7549
33.2452
32.7425
32.2451
31.7515
31.2605
30.7715
30.2837
29.7967
29.3102
28.8239
28.3377
27.8514
27.365
26.8785
26.3917
25.9047
25.4175
24.9302
24.4427
23.9553
23.4679
22.9809
22.4944
22.0087
21.5242
21.0413
20.5606
20.0828
19.6085
19.1387
18.6743
18.2164
17.7662
17.3247
16.8935
41.1356
41.4732
41.3848
40.8548
40.1581
39.3957
38.6324
37.8991
37.2071
36.557
35.9444
35.3632
34.8072
34.2706
33.7489
33.2382
32.7355
32.2385
31.7456
31.2555
30.7672
30.2801
29.7937
29.3077
28.8217
28.3358
27.8497
27.3633
26.8767
26.3898
25.9026
25.4152
24.9275
24.4396
23.9516
23.4638
22.9761
22.489
22.0026
21.5174
21.0338
20.5524
20.0738
19.5988
19.1283
18.6632
18.2046
17.7537
17.3116
16.8796
42.5079
42.6705
42.3678
41.5807
40.6652
39.7335
38.8477
38.0299
37.2818
36.5955
35.9605
35.366
34.8026
34.2624
33.7394
33.2286
32.7266
32.2307
31.7389
31.2499
30.7626
30.2763
29.7906
29.3051
28.8196
28.3339
27.848
27.3617
26.8751
26.388
25.9006
25.4128
24.9247
24.4364
23.9479
23.4594
22.971
22.4831
21.9959
21.5097
21.0251
20.5427
20.063
19.5869
19.1152
18.649
18.1893
17.7372
17.2939
16.8607
44.2938
44.1348
43.5083
42.3755
41.1883
40.0605
39.0417
38.1374
37.3351
36.6162
35.9625
35.358
34.79
34.2484
33.7256
33.2161
32.7157
32.2215
31.7313
31.2437
30.7577
30.2724
29.7875
29.3027
28.8176
28.3322
27.8465
27.3602
26.8735
26.3864
25.8987
25.4106
24.9221
24.4332
23.9441
23.4548
22.9656
22.4767
21.9885
21.5012
21.0153
20.5315
20.0504
19.5728
19.0996
18.6318
18.1704
17.7166
17.2717
16.8368
46.6659
45.9276
44.8119
43.2192
41.7013
40.3535
39.1963
38.2087
37.3584
36.6135
35.9468
35.337
34.768
34.2276
33.7072
33.2004
32.7027
32.2109
31.7229
31.2371
30.7525
30.2684
29.7845
29.3003
28.8157
28.3307
27.8451
27.3589
26.8722
26.3848
25.8969
25.4085
24.9195
24.43
23.9402
23.4501
22.96
22.47
21.9805
21.4918
21.0045
20.519
20.0362
19.5567
19.0815
18.6116
18.1481
17.6922
17.2451
16.8081
49.8886
48.1188
46.2668
44.0728
42.1643
40.5812
39.2895
38.2294
37.3426
36.5816
35.9099
35.301
34.7355
34.1997
33.6839
33.1815
32.6876
32.1991
31.7137
31.2301
30.7472
30.2645
29.7815
29.2981
28.814
28.3293
27.8439
27.3578
26.871
26.3835
25.8953
25.4065
24.917
24.4269
23.9363
23.4454
22.9542
22.463
21.972
21.4818
20.9927
20.5053
20.0203
19.5385
19.0609
18.5885
18.1224
17.6638
17.2141
16.7745
54.3368
50.7706
47.8292
44.8706
42.521
40.704
39.2965
38.1844
37.2789
36.5157
35.8493
35.2486
34.6919
34.1643
33.6558
33.1595
32.6706
32.1862
31.704
31.2229
30.7419
30.2606
29.7787
29.2961
28.8126
28.3283
27.8431
27.357
26.8702
26.3825
25.894
25.4047
24.9147
24.424
23.9326
23.4406
22.9483
22.4557
21.9632
21.4712
20.9801
20.4904
20.003
19.5186
19.0381
18.5627
18.0935
17.6318
17.1789
16.7362
60.5313
53.8948
49.3784
45.4988
42.6913
40.6732
39.1896
38.059
37.1599
36.4122
35.7634
35.1794
34.6372
34.1218
33.6232
33.1347
32.6521
32.1724
31.694
31.2156
30.7368
30.2571
29.7763
29.2945
28.8115
28.3275
27.8425
27.3565
26.8696
26.3817
25.893
25.4033
24.9127
24.4212
23.929
23.436
22.9424
22.4483
21.9541
21.4601
20.9667
20.4746
19.9844
19.4969
19.0132
18.5344
18.0616
17.5962
17.1397
16.6933
69.8876
57.4088
50.5664
45.7182
42.5375
40.4147
38.9306
37.8338
36.9756
36.2661
35.6498
35.0922
34.571
34.072
33.5862
33.1075
32.6322
32.1581
31.6839
31.2086
30.732
30.2539
29.7743
29.2933
28.8109
28.3272
27.8424
27.3564
26.8694
26.3814
25.8923
25.4022
24.911
24.4188
23.9256
23.4315
22.9365
22.4409
21.9448
21.4486
20.9527
20.4577
19.9643
19.4734
18.9859
18.5031
18.0262
17.5565
17.0957
16.6451
87.1932
61.0623
50.6959
45.1309
41.8616
39.8327
38.4726
37.4849
36.7132
36.0701
35.5042
34.9845
34.4919
34.0143
33.5444
33.0775
32.611
32.1434
31.6738
31.2019
30.7277
30.2513
29.7729
29.2927
28.8108
28.3274
27.8428
27.3568
26.8697
26.3814
25.892
25.4014
24.9097
24.4167
23.9226
23.4272
22.9308
22.4333
21.9351
21.4364
20.9376
20.4393
19.9422
19.4472
18.9553
18.4677
17.9858
17.5111
17.045
16.5893
115.77
64.3221
50.0579
44.0304
40.8933
39.0991
37.9381
37.0981
36.4331
35.8668
35.3566
34.8775
34.4146
33.9589
33.5049
33.0498
32.5918
32.1303
31.6651
31.1964
30.7244
30.2495
29.7721
29.2926
28.8111
28.328
27.8434
27.3575
26.8703
26.3818
25.8921
25.4011
24.9088
24.4151
23.9201
23.4236
22.9257
22.4266
21.9263
21.4252
20.9236
20.4221
19.9214
19.4224
18.9261
18.4338
17.947
17.4671
16.996
16.5353
8.30386
10.2568
10.3675
10.7545
10.9648
11.1156
11.2055
11.2548
11.2721
11.2644
11.2367
11.1927
11.1351
11.066
10.9874
10.9005
10.8066
10.7066
10.6015
10.492
10.3786
10.262
10.1426
10.0208
9.89707
9.77161
9.64472
9.51665
9.3876
9.25775
9.12724
8.99622
8.86479
8.73305
8.60107
8.46892
8.33666
8.20433
8.07197
7.93961
7.80727
7.67497
7.54273
7.41055
7.27844
7.14641
7.01445
6.88258
6.75078
6.61906
6.4874
6.35582
6.2243
6.09284
5.96143
5.83008
5.69877
5.56751
5.43629
5.30509
5.17394
5.0428
4.9117
4.78061
4.64954
4.51849
4.38746
4.25644
4.12542
3.99442
3.86342
3.73244
3.60145
3.47048
3.3395
3.20853
3.07756
2.9466
2.81563
2.68467
2.55371
2.42275
2.29179
2.16083
2.02987
1.89891
1.76795
1.63699
1.50604
1.37508
1.24412
1.11316
0.982201
0.851243
0.720284
0.589326
0.458368
0.327407
0.196456
0.0654723
10.7329
11.2842
10.9902
11.1539
11.2466
11.3253
11.3682
11.3842
11.3764
11.3493
11.306
11.2491
11.1809
11.103
11.0168
10.9237
10.8245
10.7201
10.6113
10.4986
10.3827
10.264
10.143
10.0199
9.89506
9.76881
9.64135
9.51288
9.38358
9.25359
9.12306
8.99208
8.86075
8.72916
8.59736
8.46542
8.33338
8.20128
8.06915
7.93702
7.8049
7.67282
7.54079
7.4088
7.27688
7.14502
7.01322
6.88149
6.74982
6.61822
6.48668
6.35519
6.22376
6.09237
5.96104
5.82974
5.69849
5.56727
5.43609
5.30493
5.1738
5.0427
4.91161
4.78054
4.64949
4.51846
4.38743
4.25642
4.12541
3.99442
3.86343
3.73244
3.60146
3.47049
3.33951
3.20854
3.07758
2.94661
2.81565
2.68469
2.55372
2.42276
2.2918
2.16084
2.02988
1.89892
1.76796
1.637
1.50604
1.37508
1.24412
1.11317
0.982206
0.851247
0.720287
0.589328
0.458369
0.327408
0.196453
0.0654778
12.0637
12.0305
11.5562
11.5458
11.5332
11.5419
11.5371
11.5185
11.4847
11.4373
11.3777
11.3076
11.2284
11.1413
11.0475
10.9478
10.8432
10.7342
10.6216
10.5058
10.3873
10.2664
10.1436
10.0191
9.89326
9.76619
9.63812
9.50922
9.37965
9.24951
9.11892
8.98797
8.85673
8.72528
8.59365
8.46191
8.33009
8.19821
8.06632
7.93441
7.80252
7.67066
7.53883
7.40704
7.2753
7.14361
7.01197
6.88039
6.74885
6.61737
6.48593
6.35455
6.2232
6.0919
5.96063
5.8294
5.6982
5.56703
5.43588
5.30476
5.17367
5.04259
4.91152
4.78048
4.64944
4.51842
4.3874
4.2564
4.1254
3.99441
3.86343
3.73245
3.60147
3.4705
3.33953
3.20856
3.07759
2.94663
2.81566
2.6847
2.55374
2.42277
2.29181
2.16085
2.02989
1.89893
1.76797
1.63701
1.50605
1.37509
1.24413
1.11317
0.98221
0.85125
0.72029
0.58933
0.45837
0.327409
0.19645
0.0654831
12.975
12.6165
12.0587
11.916
11.8149
11.7592
11.7083
11.6554
11.5954
11.5274
11.4512
11.3675
11.277
11.1806
11.0789
10.9727
10.8625
10.7489
10.6323
10.5133
10.3921
10.2691
10.1445
10.0186
9.89162
9.76369
9.635
9.50565
9.37578
9.24548
9.11483
8.98389
8.85273
8.72141
8.58995
8.4584
8.32679
8.19514
8.06347
7.93179
7.80012
7.66848
7.53685
7.40526
7.2737
7.14219
7.01071
6.87927
6.74787
6.6165
6.48518
6.35389
6.22263
6.09141
5.96021
5.82904
5.6979
5.56678
5.43568
5.30459
5.17352
5.04247
4.91143
4.7804
4.64939
4.51838
4.38738
4.25638
4.12539
3.99441
3.86343
3.73245
3.60148
3.47051
3.33954
3.20857
3.0776
2.94664
2.81568
2.68471
2.55375
2.42279
2.29183
2.16086
2.0299
1.89894
1.76798
1.63702
1.50606
1.3751
1.24414
1.11318
0.982215
0.851254
0.720293
0.589332
0.458371
0.327409
0.196447
0.0654884
13.6372
13.0958
12.4999
12.2587
12.0856
11.9728
11.879
11.793
11.7072
11.6185
11.5257
11.4283
11.3265
11.2206
11.1109
10.998
10.8822
10.7639
10.6434
10.521
10.3971
10.2719
10.1455
10.0182
9.89008
9.76129
9.63195
9.50215
9.37197
9.24149
9.11076
8.97983
8.84875
8.71755
8.58625
8.4549
8.32349
8.19206
8.06061
7.92916
7.79772
7.66628
7.53486
7.40347
7.2721
7.14075
7.00943
6.87814
6.74687
6.61563
6.48442
6.35323
6.22206
6.09092
5.95979
5.82868
5.69759
5.56652
5.43546
5.30441
5.17338
5.04235
4.91134
4.78033
4.64933
4.51833
4.38734
4.25636
4.12538
3.9944
3.86343
3.73245
3.60148
3.47051
3.33955
3.20858
3.07762
2.94665
2.81569
2.68473
2.55376
2.4228
2.29184
2.16088
2.02991
1.89895
1.76799
1.63703
1.50607
1.37511
1.24414
1.11318
0.98222
0.851258
0.720296
0.589334
0.458372
0.32741
0.196445
0.0654935
14.1238
13.4925
12.8847
12.5722
12.3417
12.1795
12.0465
11.9293
11.8186
11.7097
11.6004
11.4894
11.3763
11.2608
11.1432
11.0236
10.9021
10.779
10.6546
10.5289
10.4023
10.2748
10.1467
10.0179
9.88861
9.75895
9.62895
9.49868
9.36819
9.23752
9.10671
8.97578
8.84477
8.71369
8.58256
8.45139
8.32019
8.18898
8.05775
7.92653
7.7953
7.66408
7.53287
7.40167
7.27048
7.1393
7.00814
6.877
6.74587
6.61475
6.48365
6.35256
6.22148
6.09042
5.95936
5.82832
5.69729
5.56626
5.43525
5.30424
5.17323
5.04223
4.91124
4.78025
4.64927
4.51829
4.38731
4.25634
4.12536
3.99439
3.86342
3.73246
3.60149
3.47052
3.33956
3.20859
3.07763
2.94667
2.8157
2.68474
2.55378
2.42281
2.29185
2.16089
2.02992
1.89896
1.768
1.63704
1.50607
1.37511
1.24415
1.11319
0.982224
0.851262
0.720299
0.589336
0.458373
0.327411
0.196442
0.0654984
14.4926
13.8252
13.2199
12.8568
12.5813
12.377
12.209
12.0629
11.9285
11.8002
11.6748
11.5503
11.426
11.3011
11.1755
11.0492
10.922
10.7942
10.6658
10.5369
10.4075
10.2778
10.1478
10.0176
9.88717
9.75662
9.62596
9.49522
9.36442
9.23356
9.10267
8.97174
8.8408
8.70984
8.57886
8.44788
8.31689
8.18589
8.05489
7.92389
7.79288
7.66187
7.53087
7.39986
7.26886
7.13786
7.00685
6.87586
6.74486
6.61387
6.48287
6.35189
6.2209
6.08992
5.95893
5.82795
5.69698
5.566
5.43503
5.30405
5.17308
5.04211
4.91115
4.78018
4.64921
4.51825
4.38728
4.25632
4.12535
3.99439
3.86342
3.73246
3.6015
3.47053
3.33957
3.20861
3.07764
2.94668
2.81572
2.68475
2.55379
2.42283
2.29186
2.1609
2.02994
1.89897
1.76801
1.63705
1.50608
1.37512
1.24416
1.11319
0.982229
0.851266
0.720302
0.589338
0.458374
0.327412
0.19644
0.0655031
14.7829
14.1084
13.5122
13.1142
12.8035
12.5639
12.3651
12.1926
12.036
11.8891
11.7481
11.6106
11.4751
11.341
11.2075
11.0745
10.9418
10.8093
10.6769
10.5447
10.4127
10.2807
10.1489
10.0172
9.88569
9.75427
9.62296
9.49175
9.36064
9.22959
9.09862
8.9677
8.83683
8.70598
8.57517
8.44437
8.31358
8.1828
8.05203
7.92125
7.79046
7.65967
7.52887
7.39806
7.26724
7.13641
7.00556
6.87471
6.74385
6.61298
6.4821
6.35121
6.22032
6.08941
5.9585
5.82759
5.69667
5.56574
5.43481
5.30387
5.17294
5.04199
4.91105
4.7801
4.64915
4.5182
4.38725
4.25629
4.12534
3.99438
3.86342
3.73246
3.6015
3.47054
3.33958
3.20862
3.07765
2.94669
2.81573
2.68477
2.5538
2.42284
2.29187
2.16091
2.02995
1.89898
1.76802
1.63705
1.50609
1.37513
1.24416
1.1132
0.982234
0.851269
0.720305
0.589341
0.458375
0.327413
0.196438
0.0655076
15.0189
14.3523
13.7682
13.3463
13.0084
12.7395
12.5136
12.3173
12.1401
11.9756
11.8197
11.6696
11.5234
11.3802
11.239
11.0995
10.9612
10.8241
10.6878
10.5524
10.4176
10.2835
10.1499
10.0168
9.88415
9.75187
9.61992
9.48825
9.35683
9.22561
9.09456
8.96365
8.83285
8.70213
8.57147
8.44086
8.31028
8.17972
8.04917
7.91861
7.78804
7.65747
7.52687
7.39626
7.26562
7.13496
7.00428
6.87357
6.74285
6.6121
6.48133
6.35054
6.21974
6.08891
5.95807
5.82722
5.69636
5.56548
5.43459
5.30369
5.17279
5.04187
4.91095
4.78003
4.64909
4.51816
4.38722
4.25627
4.12532
3.99437
3.86342
3.73246
3.60151
3.47055
3.33959
3.20863
3.07767
2.94671
2.81574
2.68478
2.55382
2.42285
2.29189
2.16092
2.02996
1.89899
1.76803
1.63706
1.5061
1.37513
1.24417
1.1132
0.982239
0.851273
0.720308
0.589343
0.458377
0.327414
0.196436
0.0655118
15.216
14.5645
13.9931
13.5553
13.1965
12.9032
12.654
12.4362
12.2401
12.0593
11.8892
11.7269
11.5704
11.4183
11.2697
11.1237
10.9801
10.8384
10.6983
10.5597
10.4223
10.286
10.1507
10.0162
9.88249
9.74937
9.6168
9.48469
9.35298
9.22159
9.09048
8.95958
8.82885
8.69826
8.56777
8.43736
8.30699
8.17664
8.04631
7.91598
7.78564
7.65527
7.52488
7.39446
7.26401
7.13352
7.003
6.87244
6.74185
6.61122
6.48056
6.34988
6.21916
6.08842
5.95765
5.82686
5.69605
5.56522
5.43438
5.30352
5.17264
5.04175
4.91086
4.77995
4.64904
4.51811
4.38718
4.25625
4.12531
3.99437
3.86342
3.73247
3.60151
3.47056
3.3396
3.20864
3.07768
2.94672
2.81576
2.68479
2.55383
2.42286
2.2919
2.16093
2.02997
1.899
1.76804
1.63707
1.50611
1.37514
1.24417
1.11321
0.982243
0.851277
0.720311
0.589345
0.458378
0.327415
0.196434
0.0655157
15.3844
14.7505
14.1915
13.7435
13.3685
13.0552
12.7858
12.5489
12.3356
12.1395
11.9561
11.7823
11.6158
11.4552
11.2993
11.1472
10.9983
10.8521
10.7084
10.5666
10.4267
10.2883
10.1513
10.0155
9.88066
9.74674
9.61357
9.48105
9.34906
9.21753
9.08636
8.95549
8.82485
8.69439
8.56407
8.43385
8.30369
8.17357
8.04347
7.91336
7.78324
7.65309
7.5229
7.39268
7.26241
7.13209
7.00173
6.87132
6.74086
6.61035
6.4798
6.34922
6.21859
6.08793
5.95723
5.8265
5.69575
5.56497
5.43416
5.30334
5.1725
5.04164
4.91076
4.77988
4.64898
4.51807
4.38715
4.25623
4.1253
3.99436
3.86342
3.73247
3.60152
3.47057
3.33961
3.20865
3.07769
2.94673
2.81577
2.68481
2.55384
2.42288
2.29191
2.16095
2.02998
1.89901
1.76805
1.63708
1.50611
1.37515
1.24418
1.11321
0.982248
0.851281
0.720314
0.589348
0.458379
0.327416
0.196432
0.0655194
15.5306
14.9146
14.3671
13.9127
13.5253
13.1955
12.9087
12.655
12.426
12.2158
12.0199
11.8352
11.6593
11.4905
11.3276
11.1695
11.0156
10.8651
10.7178
10.573
10.4306
10.2902
10.1516
10.0145
9.87864
9.74395
9.61022
9.4773
9.34507
9.2134
9.0822
8.95136
8.82082
8.69051
8.56037
8.43035
8.30041
8.17051
8.04064
7.91076
7.78086
7.65092
7.52094
7.39091
7.26083
7.13068
7.00047
6.87021
6.73988
6.6095
6.47906
6.34857
6.21803
6.08744
5.95682
5.82615
5.69545
5.56472
5.43396
5.30317
5.17236
5.04153
4.91067
4.77981
4.64893
4.51803
4.38712
4.25621
4.12529
3.99435
3.86342
3.73247
3.60153
3.47058
3.33962
3.20867
3.07771
2.94675
2.81578
2.68482
2.55385
2.42289
2.29192
2.16096
2.02999
1.89902
1.76806
1.63709
1.50612
1.37515
1.24419
1.11322
0.982253
0.851285
0.720318
0.58935
0.458381
0.327417
0.196431
0.0655228
15.6591
15.0601
14.5229
14.0647
13.6678
13.3245
13.0228
12.7541
12.511
12.2878
12.0804
11.8854
11.7006
11.5241
11.3544
11.1906
11.0318
10.8772
10.7264
10.5788
10.434
10.2917
10.1515
10.0131
9.87637
9.74096
9.6067
9.47343
9.34098
9.2092
9.07798
8.9472
8.81677
8.68662
8.55666
8.42685
8.29713
8.16746
8.03782
7.90817
7.77849
7.64878
7.519
7.38917
7.25926
7.12928
6.99923
6.86911
6.73892
6.60865
6.47832
6.34793
6.21748
6.08697
5.95641
5.82581
5.69516
5.56448
5.43375
5.303
5.17222
5.04142
4.91059
4.77974
4.64887
4.51799
4.3871
4.25619
4.12528
3.99435
3.86342
3.73248
3.60154
3.47059
3.33963
3.20868
3.07772
2.94676
2.8158
2.68483
2.55387
2.4229
2.29194
2.16097
2.03
1.89903
1.76807
1.6371
1.50613
1.37516
1.24419
1.11323
0.982258
0.851289
0.720321
0.589352
0.458383
0.327418
0.19643
0.0655258
15.773
15.1894
14.6614
14.2012
13.797
13.4424
13.1279
12.8461
12.5902
12.3553
12.1371
11.9326
11.7394
11.5555
11.3795
11.2103
11.0468
10.8883
10.7342
10.5839
10.4368
10.2927
10.151
10.0115
9.87381
9.73773
9.603
9.46941
9.33677
9.20492
9.0737
8.943
8.8127
8.68271
8.55295
8.42335
8.29386
8.16443
8.03502
7.90561
7.77615
7.64665
7.51709
7.38744
7.25772
7.12791
6.99802
6.86804
6.73797
6.60783
6.4776
6.34731
6.21694
6.08651
5.95602
5.82547
5.69488
5.56424
5.43356
5.30284
5.17209
5.04131
4.9105
4.77967
4.64882
4.51796
4.38707
4.25618
4.12527
3.99435
3.86342
3.73249
3.60154
3.4706
3.33965
3.20869
3.07773
2.94677
2.81581
2.68485
2.55388
2.42292
2.29195
2.16098
2.03001
1.89904
1.76808
1.63711
1.50614
1.37517
1.2442
1.11323
0.982262
0.851293
0.720324
0.589355
0.458384
0.327419
0.196429
0.0655286
15.8745
15.3045
14.7845
14.3236
13.9136
13.5497
13.2243
12.9309
12.6637
12.418
12.1899
11.9766
11.7755
11.5847
11.4027
11.2283
11.0605
10.8983
10.741
10.5881
10.439
10.2931
10.15
10.0094
9.87092
9.73424
9.59909
9.46522
9.33243
9.20053
9.06935
8.93874
8.80859
8.67878
8.54923
8.41986
8.29061
8.16142
8.03225
7.90306
7.77384
7.64456
7.5152
7.38575
7.25621
7.12656
6.99682
6.86699
6.73705
6.60702
6.4769
6.3467
6.21642
6.08606
5.95564
5.82515
5.69461
5.56402
5.43337
5.30269
5.17197
5.04121
4.91043
4.77961
4.64878
4.51792
4.38705
4.25616
4.12526
3.99435
3.86342
3.73249
3.60155
3.47061
3.33966
3.20871
3.07775
2.94679
2.81583
2.68486
2.5539
2.42293
2.29196
2.16099
2.03002
1.89905
1.76809
1.63712
1.50615
1.37518
1.24421
1.11324
0.982267
0.851297
0.720327
0.589358
0.458386
0.32742
0.196428
0.065531
15.965
15.4069
14.8939
14.4329
14.0184
13.6469
13.312
13.0084
12.7311
12.4756
12.2386
12.0171
11.8086
11.6114
11.4238
11.2446
11.0726
10.9069
10.7468
10.5914
10.4403
10.2928
10.1485
10.0069
9.86767
9.73045
9.59493
9.46084
9.32795
9.19603
9.06491
8.93443
8.80444
8.67484
8.54551
8.41638
8.28737
8.15842
8.0295
7.90055
7.77156
7.64249
7.51334
7.38408
7.25472
7.12525
6.99566
6.86596
6.73615
6.60624
6.47622
6.34611
6.21592
6.08563
5.95527
5.82485
5.69435
5.5638
5.4332
5.30254
5.17185
5.04112
4.91035
4.77956
4.64874
4.5179
4.38703
4.25615
4.12526
3.99435
3.86343
3.7325
3.60156
3.47062
3.33967
3.20872
3.07776
2.9468
2.81584
2.68488
2.55391
2.42294
2.29197
2.161
2.03003
1.89906
1.76809
1.63712
1.50615
1.37518
1.24421
1.11324
0.982272
0.851302
0.720331
0.58936
0.458388
0.327422
0.196428
0.0655331
16.0457
15.4979
14.9909
14.5301
14.1122
13.7342
13.3913
13.0788
12.7924
12.5282
12.2829
12.0538
11.8387
11.6355
11.4427
11.259
11.0832
10.9142
10.7514
10.5938
10.4408
10.2918
10.1464
10.0039
9.86401
9.72632
9.59051
9.45625
9.3233
9.19141
9.06039
8.93005
8.80026
8.67087
8.54178
8.4129
8.28414
8.15545
8.02678
7.89807
7.76931
7.64046
7.51152
7.38245
7.25327
7.12396
6.99453
6.86497
6.73528
6.60548
6.47557
6.34555
6.21543
6.08522
5.95493
5.82455
5.69411
5.5636
5.43303
5.30241
5.17174
5.04103
4.91029
4.77951
4.6487
4.51787
4.38702
4.25614
4.12525
3.99435
3.86344
3.73251
3.60158
3.47063
3.33969
3.20873
3.07778
2.94682
2.81585
2.68489
2.55392
2.42295
2.29199
2.16102
2.03005
1.89907
1.7681
1.63713
1.50616
1.37519
1.24422
1.11325
0.982277