/*--------------------------------*- C++ -*----------------------------------*\
  =========                 |
  \\      /  F ield         | OpenFOAM: The Open Source CFD Toolbox
   \\    /   O peration     | Website:  https://openfoam.org
    \\  /    A nd           | Version:  6
     \\/     M anipulation  |
\*---------------------------------------------------------------------------*/
FoamFile
{
    version     2.0;
    format      ascii;
    class       surfaceScalarField;
    location    "0";
    object      phi;
}
// * * * * * * * * * * * * * * * * * * * * * * * * * * * * * * * * * * * * * //

dimensions      [0 3 -1 0 0 0 0];

internalField   nonuniform List<scalar> 
17780
(
0.0015085
0.0010815
0.000910991
0.000597506
0.0006198
0.000291191
0.000461455
0.000158345
0.000369835
9.16196e-05
0.00031323
5.66053e-05
0.000276298
3.69315e-05
0.000251283
2.50157e-05
0.000233936
1.73467e-05
0.000221746
1.21896e-05
0.000213129
8.61762e-06
0.000207031
6.09757e-06
0.00020273
4.30124e-06
0.000199715
3.01524e-06
0.00019762
2.09473e-06
0.000196182
1.43835e-06
0.000195208
9.73575e-07
0.00019456
6.47812e-07
0.000194138
4.226e-07
0.000193868
2.69721e-07
0.0001937
1.68466e-07
0.000193596
1.03673e-07
0.000193532
6.42856e-08
0.000193489
4.22682e-08
0.000193458
3.18015e-08
0.000193429
2.86638e-08
0.000193399
2.97616e-08
0.000193366
3.27668e-08
0.000193331
3.58321e-08
0.000193293
3.73616e-08
0.000193257
3.58148e-08
0.000193228
2.95274e-08
0.000193211
1.65274e-08
0.000193217
-5.67323e-09
0.000193257
-4.03431e-08
0.000193349
-9.18958e-08
0.000193516
-1.66426e-07
0.000193788
-2.72544e-07
0.000194211
-4.22744e-07
0.000194847
-6.35774e-07
0.000195788
-9.41016e-07
0.000197175
-1.38723e-06
0.000199236
-2.06153e-06
0.000202371
-3.13435e-06
0.000207345
-4.97451e-06
0.000215825
-8.47952e-06
0.000231962
-1.61368e-05
0.000266601
-3.46391e-05
0.000351673
-8.5072e-05
-0.000298482
0.000650154
0.0024161
0.00125541
0.00191521
0.00109839
0.0014992
0.000707203
0.00121069
0.000446859
0.00101511
0.000287199
0.000881445
0.000190269
0.000788605
0.000129772
0.000723145
9.04749e-05
0.000676492
6.39998e-05
0.000643033
4.56487e-05
0.000618981
3.26698e-05
0.000601708
2.33709e-05
0.000589348
1.66605e-05
0.000580558
1.18056e-05
0.000574356
8.29646e-06
0.000570024
5.77033e-06
0.000567034
3.964e-06
0.000564997
2.68446e-06
0.000563631
1.7892e-06
0.000562728
1.17271e-06
0.000562139
7.56933e-07
0.000561759
4.84215e-07
0.000561511
3.1214e-07
0.000561344
2.09594e-07
0.000561222
1.53794e-07
0.000561122
1.28009e-07
0.000561032
1.19793e-07
0.000560945
1.19623e-07
0.000560861
1.19808e-07
0.000560785
1.13592e-07
0.000560727
9.43871e-08
0.000560701
5.50421e-08
0.00056073
-1.29107e-08
0.000560845
-1.20133e-07
0.000561085
-2.80606e-07
0.000561506
-5.13188e-07
0.000562184
-8.43927e-07
0.000563221
-1.30964e-06
0.000564762
-1.96376e-06
0.000567013
-2.88631e-06
0.000570273
-4.20178e-06
0.000574999
-6.11319e-06
0.000581908
-8.97069e-06
0.000592193
-1.34188e-05
0.00060795
-2.07313e-05
0.000633095
-3.36253e-05
0.000675285
-5.83261e-05
0.000750175
-0.00010953
0.00088938
-0.000224277
-0.00051925
0.00111015
0.00266583
0.00117958
0.00241808
0.00134613
0.00207796
0.00104732
0.00178023
0.000744587
0.00154867
0.000518757
0.00137592
0.000363022
0.00124885
0.000256841
0.00115573
0.000183598
0.00108752
0.000132204
0.0010376
9.5568e-05
0.00100114
6.91369e-05
0.000974589
4.99184e-05
0.000955361
3.58891e-05
0.000941525
2.56414e-05
0.000931649
1.81722e-05
0.000924666
1.27534e-05
0.000919781
8.84908e-06
0.000916404
6.06172e-06
0.000914098
4.09489e-06
0.000912543
2.72732e-06
0.000911506
1.79405e-06
0.000910818
1.17239e-06
0.000910359
7.71438e-07
0.000910044
5.24006e-07
0.000909818
3.80511e-07
0.000909641
3.04195e-07
0.000909494
2.67435e-07
0.000909365
2.48832e-07
0.000909253
2.3088e-07
0.000909169
1.9803e-07
0.000909128
1.3499e-07
0.000909158
2.51105e-08
0.000909297
-1.51317e-07
0.000909596
-4.19057e-07
0.000910126
-8.10488e-07
0.000910982
-1.36917e-06
0.000912293
-2.15507e-06
0.000914236
-3.25265e-06
0.000917056
-4.78385e-06
0.000921099
-6.92977e-06
0.000926866
-9.96865e-06
0.000935098
-1.43449e-05
0.000946928
-2.08006e-05
0.000964145
-3.06365e-05
0.000989664
-4.62502e-05
0.00102832
-7.22788e-05
0.00108804
-0.000118051
0.00118111
-0.000202602
0.00132048
-0.00036364
-0.000678345
0.00147957
0.00273536
0.00103422
0.00265622
0.00142528
0.00243489
0.00126865
0.00218865
0.000990825
0.00196893
0.000738477
0.00178983
0.000542123
0.00164992
0.000396746
0.00154298
0.000290545
0.00146222
0.00021296
0.00140174
0.000156045
0.00135676
0.000114117
0.00132353
8.31498e-05
0.00129916
6.02674e-05
0.00128141
4.33868e-05
0.0012686
3.09793e-05
0.00125945
2.19099e-05
0.00125297
1.53292e-05
0.00124843
1.05981e-05
0.00124529
7.2354e-06
0.00124314
4.87839e-06
0.00124168
3.25463e-06
0.00124069
2.16004e-06
0.00124002
1.44239e-06
0.00123955
9.88392e-07
0.00123922
7.13823e-07
0.00123897
5.55735e-07
0.00123877
4.66379e-07
0.00123861
4.08368e-07
0.00123849
3.50764e-07
0.00123842
2.65805e-07
0.00123843
1.25992e-07
0.00123856
-9.87104e-08
0.00123885
-4.4384e-07
0.00123938
-9.53932e-07
0.00124026
-1.687e-06
0.00124161
-2.72075e-06
0.00124362
-4.16157e-06
0.00124652
-6.15834e-06
0.00125066
-8.92405e-06
0.00125651
-1.27713e-05
0.00126471
-1.81721e-05
0.00127623
-2.5862e-05
0.00129245
-3.70282e-05
0.00131547
-5.36539e-05
0.00134839
-7.91657e-05
0.00139575
-0.000119642
0.0014637
-0.000186002
0.00155864
-0.000297541
0.00168021
-0.000485209
-0.000793023
0.00179489
0.00274078
0.000883439
0.0027606
0.00140545
0.00264531
0.00138395
0.00247025
0.00116588
0.00228875
0.000919974
0.00212628
0.000704597
0.00199098
0.000532045
0.00188273
0.000398795
0.00179821
0.000297485
0.00173328
0.000220969
0.00168403
0.000163372
0.00164705
0.00012013
0.00161955
8.77662e-05
0.00159929
6.36449e-05
0.00158451
4.57623e-05
0.00157383
3.25926e-05
0.00156618
2.29711e-05
0.00156077
1.60086e-05
0.00155698
1.10269e-05
0.00155435
7.51041e-06
0.00155254
5.06823e-06
0.00155129
3.40558e-06
0.00155043
2.30098e-06
0.00154983
1.58857e-06
0.0015494
1.14414e-06
0.00154908
8.74154e-07
0.00154884
7.07012e-07
0.00154866
5.86088e-07
0.00154855
4.64023e-07
0.00154852
2.97894e-07
0.0015486
4.48883e-08
0.00154884
-3.41887e-07
0.00154932
-9.17888e-07
0.00155012
-1.75239e-06
0.00155136
-2.93522e-06
0.00155323
-4.58598e-06
0.00155594
-6.8673e-06
0.00155978
-1.00047e-05
0.00156517
-1.4317e-05
0.00157267
-2.02655e-05
0.00158303
-2.85322e-05
0.00159732
-4.01524e-05
0.00161703
-5.6737e-05
0.00164423
-8.08532e-05
0.00168173
-0.000116669
0.0017331
-0.000171007
0.00180201
-0.000254912
0.00188987
-0.000385409
0.00198957
-0.000584906
-0.00087479
0.00207134
0.0027241
0.000749343
0.00279771
0.00133184
0.0027635
0.00141816
0.00265858
0.00127081
0.00252596
0.00105259
0.00239362
0.000836931
0.0022753
0.000650371
0.00217576
0.000498337
0.00209511
0.000378132
0.00203141
0.000284673
0.00198201
0.000212768
0.00194427
0.000157873
0.00191579
0.000116247
0.00189454
8.48934e-05
0.00187885
6.14457e-05
0.0018674
4.40478e-05
0.00185912
3.12521e-05
0.00185319
2.19346e-05
0.00184899
1.5227e-05
0.00184604
1.04618e-05
0.00184398
7.12883e-06
0.00184254
4.84041e-06
0.00184154
3.30318e-06
0.00184083
2.296e-06
0.00184033
1.65212e-06
0.00183996
1.24502e-06
0.00183969
9.77001e-07
0.0018395
7.70035e-07
0.00183941
5.5817e-07
0.00183942
2.81051e-07
0.00183959
-1.21931e-07
0.00183997
-7.1736e-07
0.00184063
-1.5839e-06
0.0018417
-2.81949e-06
0.00184331
-4.55042e-06
0.00184567
-6.94368e-06
0.00184903
-1.02244e-05
0.00185373
-1.47013e-05
0.00186021
-2.08054e-05
0.0018691
-2.9149e-05
0.00188118
-4.06183e-05
0.00189755
-5.65199e-05
0.00191963
-7.88141e-05
0.00194926
-0.000110481
0.00198867
-0.000156078
0.00204018
-0.000222518
0.00210521
-0.000319942
0.00218184
-0.000462045
0.00226044
-0.000663499
-0.000931791
0.00231744
0.00270303
0.000636312
0.00280274
0.00123212
0.00282566
0.00139524
0.00278113
0.00131534
0.00269835
0.00113537
0.00260229
0.00093299
0.00250852
0.000744146
0.00242484
0.000582014
0.00235411
0.000448857
0.00229645
0.000342341
0.00225062
0.000258598
0.0022149
0.000193585
0.00218752
0.000143633
0.0021668
0.000105608
0.00215133
7.69214e-05
0.0021399
5.54782e-05
0.00213155
3.96041e-05
0.0021255
2.79758e-05
0.00212117
1.95564e-05
0.0021181
1.35402e-05
0.00211592
9.30552e-06
0.00211438
6.37636e-06
0.0021133
4.38999e-06
0.00211252
3.07116e-06
0.00211196
2.21086e-06
0.00211156
1.64932e-06
0.00211127
1.2621e-06
0.00211109
9.48815e-07
0.00211103
6.23722e-07
0.0021111
2.07585e-07
0.00211136
-3.79719e-07
0.00211187
-1.22646e-06
0.00211272
-2.43683e-06
0.00211404
-4.14003e-06
0.00211599
-6.50165e-06
0.00211879
-9.73895e-06
0.00212271
-1.41419e-05
0.00212811
-2.01036e-05
0.00213547
-2.81645e-05
0.0021454
-3.9078e-05
0.00215869
-5.39096e-05
0.00217635
-7.41848e-05
0.00219965
-0.000102109
0.00223005
-0.000140882
0.00226909
-0.000195123
0.00231792
-0.000271344
0.0023762
-0.000378225
0.00244018
-0.000526021
0.00250001
-0.000723331
-0.000969769
0.00253799
0.00268392
0.000542389
0.00279387
0.00112218
0.00285487
0.00133424
0.00285869
0.00131152
0.00282157
0.00117249
0.00276287
0.000991686
0.00269733
0.000809692
0.002634
0.000645346
0.00257751
0.00050534
0.00252963
0.00039022
0.00249045
0.000297783
0.0024592
0.000224832
0.00243479
0.000168047
0.00241603
0.000124365
0.00240183
9.1127e-05
0.0023912
6.61003e-05
0.00238335
4.7456e-05
0.00237761
3.37204e-05
0.00237344
2.37217e-05
0.00237044
1.65387e-05
0.0023683
1.14539e-05
0.00236676
7.91368e-06
0.00236565
5.49303e-06
0.00236486
3.86734e-06
0.00236428
2.78843e-06
0.00236387
2.06508e-06
0.00236358
1.54708e-06
0.00236342
1.11203e-06
0.00236339
6.54207e-07
0.00236352
7.49596e-08
0.00236387
-7.2619e-07
0.0023645
-1.86027e-06
0.00236552
-3.45818e-06
0.00236706
-5.68157e-06
0.0023693
-8.73629e-06
0.00237245
-1.289e-05
0.0023768
-1.84964e-05
0.00238273
-2.60284e-05
0.00239069
-3.6126e-05
0.00240128
-4.96644e-05
0.00241522
-6.78511e-05
0.0024334
-9.23644e-05
0.00245683
-0.000125542
0.00248658
-0.000170628
0.0025235
-0.000232043
0.00256774
-0.000315589
0.00261782
-0.000428301
0.00266916
-0.000577368
0.00271284
-0.000767012
-0.000992767
0.00273584
0.00266835
0.000464036
0.00278009
0.00101044
0.0028654
0.00124893
0.00290622
0.00127071
0.0029084
0.00117031
0.00288508
0.001015
0.00284858
0.000846188
0.00280782
0.000686108
0.00276828
0.000544879
0.00273284
0.000425662
0.00270265
0.000327975
0.00267783
0.000249649
0.00265797
0.000187906
0.00264241
0.000139926
0.00263043
0.00010311
0.00262133
7.51942e-05
0.00261452
5.42715e-05
0.00260947
3.87741e-05
0.00260575
2.74362e-05
0.00260304
1.92512e-05
0.00260106
1.34275e-05
0.00259963
9.34913e-06
0.00259858
6.54023e-06
0.00259781
4.63466e-06
0.00259725
3.35056e-06
0.00259685
2.46909e-06
0.00259658
1.81677e-06
0.00259644
1.25071e-06
0.00259645
6.46107e-07
0.00259664
-1.14728e-07
0.00259706
-1.15256e-06
0.00259781
-2.60124e-06
0.00259897
-4.61846e-06
0.00260068
-7.39808e-06
0.00260313
-1.11852e-05
0.00260654
-1.62958e-05
0.00261118
-2.31425e-05
0.00261742
-3.22695e-05
0.0026257
-4.44013e-05
0.00263654
-6.05084e-05
0.00265059
-8.18977e-05
0.00266856
-0.000110332
0.00269119
-0.000148177
0.00271914
-0.000198573
0.00275266
-0.00026557
0.00279119
-0.000354113
0.00283253
-0.000469638
0.00287199
-0.00061683
0.00290192
-0.000796943
-0.00100368
0.00291283
0.00265623
0.000397803
0.00276563
0.000901038
0.00286583
0.00114873
0.00293411
0.00120242
0.0029688
0.00113563
0.00297725
0.00100655
0.00296871
0.000854729
0.00295101
0.000703805
0.00292972
0.000566166
0.00290833
0.000447058
0.00288873
0.000347572
0.00287179
0.000266591
0.00285771
0.000201985
0.00284635
0.000151288
0.00283738
0.000112076
0.00283043
8.21438e-05
0.00282512
5.9581e-05
0.00282111
4.27841e-05
0.00281811
3.04387e-05
0.00281587
2.14865e-05
0.00281421
1.50878e-05
0.00281298
1.05837e-05
0.00281206
7.46138e-06
0.00281137
5.3239e-06
0.00281086
3.86333e-06
0.00281049
2.83867e-06
0.00281025
2.05702e-06
0.00281014
1.35772e-06
0.00281019
5.98735e-07
0.00281043
-3.5538e-07
0.00281092
-1.64471e-06
0.00281174
-3.42509e-06
0.00281301
-5.87992e-06
0.00281484
-9.23369e-06
0.00281742
-1.37682e-05
0.00282097
-1.98433e-05
0.00282575
-2.79233e-05
0.0028321
-3.86123e-05
0.00284039
-5.27003e-05
0.00285111
-7.12245e-05
0.00286476
-9.55469e-05
0.00288188
-0.00012745
0.00290295
-0.000169244
0.00292823
-0.000223859
0.00295753
-0.000294869
0.00298976
-0.00038634
0.0030224
-0.000502282
0.00305102
-0.000645446
0.00306926
-0.000815183
-0.00100462
0.0030702
0.002647
0.000340802
0.00275231
0.000795725
0.00286119
0.00103986
0.00294944
0.00111417
0.00301028
0.00107479
0.00304625
0.000970575
0.00306342
0.000837561
0.00306804
0.000699189
0.0030652
0.000569007
0.00305854
0.000453712
0.00305044
0.000355674
0.00304229
0.000274738
0.00303484
0.000209435
0.00302841
0.000157721
0.00302306
0.000117421
0.00301874
8.64652e-05
0.00301532
6.30057e-05
0.00301264
4.54597e-05
0.00301057
3.25093e-05
0.00300898
2.30808e-05
0.00300775
1.63141e-05
0.00300681
1.15293e-05
0.00300607
8.19317e-06
0.00300551
5.89018e-06
0.00300508
4.29565e-06
0.00300476
3.15323e-06
0.00300456
2.25564e-06
0.00300449
1.42809e-06
0.00300458
5.14049e-07
0.00300486
-6.376e-07
0.0030054
-2.18449e-06
0.00300628
-4.30268e-06
0.0030076
-7.19925e-06
0.00300949
-1.11266e-05
0.00301212
-1.63992e-05
0.00301569
-2.34147e-05
0.00302045
-3.26804e-05
0.00302668
-4.48462e-05
0.00303473
-6.0748e-05
0.00304496
-8.14601e-05
0.00305778
-0.000108359
0.00307352
-0.000143195
0.00309243
-0.000188152
0.00311445
-0.000245884
0.00313904
-0.000319456
0.0031648
-0.000412095
0.00318913
-0.000526612
0.00320801
-0.000664331
0.00321628
-0.000823455
-0.000997212
0.00320887
0.00264003
0.00029077
0.0027408
0.000694963
0.00285438
0.000926272
0.00295693
0.00101162
0.0030384
0.000993322
0.00309759
0.000911384
0.00313762
0.00079753
0.00316297
0.000673839
0.00317792
0.000554054
0.00318595
0.000445684
0.00318962
0.000352007
0.00319069
0.000273663
0.00319034
0.000209789
0.00318928
0.000158779
0.00318795
0.00011875
0.00318659
8.78253e-05
0.00318533
6.42747e-05
0.0031842
4.65861e-05
0.00318323
3.34811e-05
0.0031824
2.39064e-05
0.00318171
1.70105e-05
0.00318112
1.21147e-05
0.00318063
8.68339e-06
0.00318022
6.296e-06
0.0031799
4.62139e-06
0.00317966
3.39573e-06
0.00317951
2.40317e-06
0.00317948
1.45927e-06
0.00317959
3.96394e-07
0.00317991
-9.49447e-07
0.00318047
-2.75096e-06
0.00318137
-5.20194e-06
0.0031827
-8.53024e-06
0.00318459
-1.30124e-05
0.00318718
-1.89907e-05
0.00319066
-2.68936e-05
0.00319524
-3.72607e-05
0.00320117
-5.0774e-05
0.00320871
-6.8295e-05
0.00321816
-9.09083e-05
0.00322977
-0.00011997
0.00324373
-0.000157152
0.00326005
-0.000204473
0.00327844
-0.000264275
0.0032981
-0.000339114
0.00331747
-0.000431469
0.00333405
-0.000543184
0.00334429
-0.000674569
0.00334402
-0.000823192
-0.000982712
0.00332952
0.00263479
0.000245978
0.00273118
0.000598573
0.00284703
0.00081042
0.00295967
0.000898988
0.00305718
0.000895806
0.00313555
0.000833017
0.00319537
0.000737707
0.00323938
0.000629833
0.00327087
0.000522565
0.00329292
0.00042363
0.0033081
0.00033683
0.00331838
0.000263382
0.00332524
0.000202934
0.00332972
0.000154291
0.0033326
0.00011588
0.00333437
8.60502e-05
0.00333541
6.32345e-05
0.00333596
4.60339e-05
0.0033362
3.32487e-05
0.00333622
2.38796e-05
0.00333612
1.71114e-05
0.00333595
1.22897e-05
0.00333574
8.89427e-06
0.00333552
6.51363e-06
0.00333532
4.82112e-06
0.00333516
3.55372e-06
0.00333507
2.49347e-06
0.00333508
1.45122e-06
0.00333522
2.52172e-07
0.00333555
-1.27721e-06
0.00333612
-3.32169e-06
0.00333701
-6.08966e-06
0.0033383
-9.82628e-06
0.00334012
-1.48279e-05
0.00334259
-2.14587e-05
0.00334586
-3.017e-05
0.00335013
-4.15239e-05
0.00335557
-5.62198e-05
0.0033624
-7.51263e-05
0.00337081
-9.93146e-05
0.00338093
-0.000130092
0.0033928
-0.000169022
0.00340626
-0.00021793
0.00342082
-0.000278837
0.00343553
-0.000353825
0.00344879
-0.000444729
0.00345825
-0.000552639
0.00346085
-0.00067717
0.00345325
-0.000815594
-0.000962139
0.00343268
0.00263086
0.000205122
0.00272335
0.000506083
0.00284001
0.000693753
0.00295969
0.000779306
0.00306952
0.000785979
0.00316344
0.000739099
0.00323999
0.000661154
0.00330031
0.000569516
0.00334667
0.000476205
0.00338164
0.000388657
0.00340764
0.000310835
0.00342672
0.000244298
0.00344057
0.000189084
0.00345051
0.000144351
0.00345756
0.000108833
0.00346248
8.11244e-05
0.00346587
5.98514e-05
0.00346814
4.3763e-05
0.00346962
3.17722e-05
0.00347053
2.29638e-05
0.00347106
1.65853e-05
0.00347132
1.2028e-05
0.00347141
8.80467e-06
0.0034714
6.52685e-06
0.00347133
4.88322e-06
0.00347127
3.6201e-06
0.00347124
2.52403e-06
0.00347128
1.40637e-06
0.00347144
8.94475e-08
0.00347177
-1.60618e-06
0.00347233
-3.87389e-06
0.00347317
-6.93319e-06
0.00347439
-1.10425e-05
0.00347607
-1.65132e-05
0.00347834
-2.37251e-05
0.00348131
-3.31449e-05
0.00348513
-4.53463e-05
0.00348995
-6.10332e-05
0.00349589
-8.10649e-05
0.00350305
-0.00010648
0.00351147
-0.000138513
0.00352106
-0.000178605
0.00353149
-0.000228369
0.00354218
-0.000289522
0.00355207
-0.000363714
0.00355959
-0.000452248
0.00356259
-0.000555641
0.00355847
-0.000673051
0.00354455
-0.000801674
-0.000936338
0.00351875
0.00262791
0.000167212
0.00271709
0.000416905
0.00283376
0.000577078
0.00295831
0.000654757
0.00307746
0.000666827
0.00318376
0.000632803
0.00327412
0.000570792
0.0033483
0.000495339
0.00340761
0.000416897
0.00345406
0.000342205
0.00348983
0.000275059
0.00351699
0.000217139
0.00353735
0.000168732
0.00355241
0.000129288
0.00356342
9.78234e-05
0.00357136
7.31838e-05
0.003577
5.42084e-05
0.00358094
3.98217e-05
0.00358364
2.90773e-05
0.00358543
2.11708e-05
0.00358658
1.54355e-05
0.00358728
1.13283e-05
0.00358767
8.41117e-06
0.00358787
6.33175e-06
0.00358795
4.80456e-06
0.00358797
3.59348e-06
0.003588
2.49609e-06
0.00358808
1.3295e-06
0.00358825
-8.25021e-08
0.00358857
-1.92141e-06
0.00358908
-4.38557e-06
0.00358985
-7.70184e-06
0.00359094
-1.21377e-05
0.00359244
-1.80144e-05
0.00359444
-2.57215e-05
0.00359703
-3.57328e-05
0.0036003
-4.86244e-05
0.00360436
-6.5093e-05
0.00360927
-8.59742e-05
0.00361505
-0.000112258
0.00362163
-0.000145096
0.00362882
-0.000185788
0.00363619
-0.000235743
0.00364306
-0.000296389
0.00364835
-0.000369003
0.00365056
-0.000454457
0.00364776
-0.000552844
0.00363775
-0.000663043
0.00361838
-0.000782302
-0.000906031
0.00358807
0.00262572
0.00013149
0.0027122
0.000330427
0.00282849
0.000460788
0.00295636
0.00052689
0.00308245
0.00054073
0.00319838
0.000516876
0.00329983
0.000469345
0.00338541
0.000409757
0.00345559
0.000346715
0.00351185
0.000285945
0.00355611
0.000230804
0.00359036
0.00018289
0.00361648
0.000142612
0.00363613
0.000109639
0.00365071
8.32376e-05
0.00366139
6.25021e-05
0.00366911
4.6497e-05
0.00367459
3.43419e-05
0.00367841
2.52532e-05
0.00368102
1.85596e-05
0.00368276
1.37e-05
0.00368387
1.02143e-05
0.00368455
7.72798e-06
0.00368495
5.93679e-06
0.00368516
4.59049e-06
0.00368528
3.47815e-06
0.00368536
2.41448e-06
0.00368546
1.22736e-06
0.00368563
-2.53694e-07
0.00368592
-2.20842e-06
0.00368637
-4.83646e-06
0.00368704
-8.36815e-06
0.00368797
-1.30757e-05
0.00368925
-1.92854e-05
0.00369091
-2.73902e-05
0.00369305
-3.78642e-05
0.0036957
-5.12768e-05
0.00369891
-6.83074e-05
0.0037027
-8.97573e-05
0.00370699
-0.000116557
0.00371166
-0.000149763
0.00371641
-0.000190536
0.00372075
-0.000240087
0.00372395
-0.000299582
0.00372493
-0.000369983
0.00372229
-0.000451818
0.00371433
-0.00054488
0.00369917
-0.000647892
0.00367511
-0.000758234
-0.00087185
0.00364093
0.00262413
9.73581e-05
0.0027085
0.000246055
0.00282427
0.000345017
0.00295436
0.000396807
0.0030855
0.000409591
0.00320868
0.000393692
0.0033187
0.000359327
0.00341328
0.000315174
0.00349219
0.000267807
0.00355643
0.000221704
0.00360767
0.000179566
0.00364781
0.000142744
0.00367877
0.000111652
0.0037023
8.61115e-05
0.00371993
6.56075e-05
0.00373296
4.94731e-05
0.00374245
3.70044e-05
0.00374926
2.75298e-05
0.00375407
2.0446e-05
0.0037574
1.52318e-05
0.00375965
1.14483e-05
0.00376113
8.7325e-06
0.00376207
6.78587e-06
0.00376265
5.36204e-06
0.00376299
4.25431e-06
0.00376318
3.2836e-06
0.00376331
2.28719e-06
0.00376343
1.10827e-06
0.00376359
-4.1398e-07
0.00376383
-2.45389e-06
0.0037642
-5.20883e-06
0.00376475
-8.90884e-06
0.0037655
-1.38267e-05
0.0037665
-2.02888e-05
0.0037678
-2.86862e-05
0.00376942
-3.94863e-05
0.00377139
-5.32445e-05
0.00377369
-7.06146e-05
0.00377629
-9.23551e-05
0.00377906
-0.00011933
0.0037818
-0.000152497
0.00378414
-0.000192878
0.00378555
-0.000241502
0.00378528
-0.000299304
0.00378228
-0.000366983
0.00377526
-0.000444804
0.00376273
-0.000532349
0.00374311
-0.000628275
0.00371501
-0.000730135
-0.000834358
0.00367752
0.00262302
6.43346e-05
0.00270585
0.000163225
0.00282113
0.000229741
0.00295264
0.000265296
0.00308727
0.000274959
0.00321564
0.000265326
0.0033319
0.000243063
0.00343315
0.000213927
0.00351861
0.000182353
0.0035889
0.000151408
0.00364549
0.000122981
0.00369018
9.80458e-05
0.0037249
7.69315e-05
0.00375146
5.95526e-05
0.00377149
4.55848e-05
0.00378637
3.459e-05
0.00379728
2.60981e-05
0.00380515
1.96553e-05
0.00381075
1.48506e-05
0.00381465
1.13261e-05
0.00381732
8.77743e-06
0.0038191
6.94983e-06
0.00382026
5.63006e-06
0.00382098
4.63775e-06
0.00382142
3.81627e-06
0.00382168
3.02382e-06
0.00382184
2.12477e-06
0.00382197
9.81517e-07
0.00382211
-5.53607e-07
0.0038223
-2.64626e-06
0.00382258
-5.48819e-06
0.00382298
-9.30562e-06
0.00382352
-1.4368e-05
0.00382423
-2.09974e-05
0.00382512
-2.95775e-05
0.0038262
-4.05638e-05
0.00382745
-5.44912e-05
0.00382881
-7.19813e-05
0.0038302
-9.3744e-05
0.00383144
-0.000120572
0.00383227
-0.000153326
0.00383229
-0.000192895
0.00383093
-0.00024014
0.00382742
-0.0002958
0.0038208
-0.00036036
0.00380988
-0.000433882
0.00379334
-0.000515814
0.00376987
-0.000604807
0.00373834
-0.000698603
-0.000794066
0.00369805
0.00262232
3.20118e-05
0.00270414
8.14036e-05
0.00281905
0.000114837
0.00295141
0.000132937
0.00308824
0.000138129
0.00321994
0.000133628
0.00334028
0.000122722
0.00344592
0.000108281
0.00353574
9.25353e-05
0.0036101
7.70453e-05
0.0036703
6.2781e-05
0.0037181
5.0252e-05
0.00375539
3.96395e-05
0.00378403
3.09114e-05
0.0038057
2.39115e-05
0.00382187
1.84224e-05
0.00383376
1.42077e-05
0.00384238
1.10374e-05
0.00384853
8.70032e-06
0.00385284
7.01042e-06
0.00385582
5.80638e-06
0.00385782
4.94912e-06
0.00385913
4.31735e-06
0.00385996
3.80227e-06
0.00386048
3.30207e-06
0.00386079
2.71618e-06
0.00386097
1.93953e-06
0.0038611
8.56762e-07
0.00386121
-6.63778e-07
0.00386134
-2.77623e-06
0.00386151
-5.66379e-06
0.00386175
-9.54566e-06
0.00386207
-1.46844e-05
0.00386246
-2.13937e-05
0.00386293
-3.00457e-05
0.00386345
-4.10785e-05
0.00386396
-5.50021e-05
0.00386438
-7.24008e-05
0.00386457
-9.39322e-05
0.00386431
-0.000120317
0.0038633
-0.000152319
0.00386112
-0.000190706
0.00385717
-0.000236191
0.00385071
-0.000289344
0.00384083
-0.000350479
0.00382646
-0.000419511
0.00380645
-0.000495806
0.0037797
-0.00057805
0.00374527
-0.000664181
-0.000751444
0.00370265
0.00262198
2.81223e-08
0.00270331
7.99326e-08
0.00281801
1.30456e-07
0.00295077
1.82381e-07
0.00308866
2.37951e-07
0.00322199
2.99205e-07
0.00334434
3.68059e-07
0.00345218
4.46359e-07
0.00354418
5.35895e-07
0.00362058
6.38381e-07
0.00368261
7.55401e-07
0.00373197
8.88331e-07
0.00377057
1.03821e-06
0.00380028
1.20558e-06
0.0038228
1.39027e-06
0.00383963
1.59109e-06
0.00385203
1.80547e-06
0.00386104
2.02901e-06
0.00386749
2.25485e-06
0.00387203
2.47298e-06
0.00387516
2.66929e-06
0.00387729
2.82446e-06
0.00387869
2.91261e-06
0.00387959
2.8996e-06
0.00388016
2.74111e-06
0.00388049
2.38022e-06
0.00388069
1.74462e-06
0.0038808
7.43312e-07
0.00388087
-7.37188e-07
0.00388093
-2.83724e-06
0.003881
-5.729e-06
0.00388108
-9.62191e-06
0.00388116
-1.47685e-05
0.00388124
-2.14706e-05
0.00388128
-3.0085e-05
0.00388123
-4.10288e-05
0.00388101
-5.47825e-05
0.0038805
-7.18905e-05
0.00387952
-9.29561e-05
0.00387783
-0.000118629
0.00387509
-0.000149581
0.00387085
-0.000186468
0.00386454
-0.000229874
0.00385542
-0.00028023
0.00384266
-0.000337715
0.00382529
-0.000402138
0.00380231
-0.000472826
0.00377278
-0.000548524
0.00373597
-0.000627366
-0.00070693
0.00369145
0.00262198
-3.1956e-05
0.00270331
-8.12449e-05
0.00281802
-0.000114578
0.00295077
-0.000132575
0.00308867
-0.000137656
0.003222
-0.000133033
0.00334436
-0.00012199
0.0034522
-0.000107393
0.0035442
-9.14696e-05
0.00362062
-7.57757e-05
0.00368265
-6.12786e-05
0.00373203
-4.8485e-05
0.00377064
-3.75743e-05
0.00380036
-2.85131e-05
0.00382289
-2.11455e-05
0.00383974
-1.52566e-05
0.00385216
-1.06151e-05
0.00386119
-6.99945e-06
0.00386766
-4.21239e-06
0.00387222
-2.08758e-06
0.00387538
-4.91775e-07
0.00387753
6.75733e-07
0.00387895
1.48483e-06
0.00387988
1.97649e-06
0.00388045
2.16447e-06
0.0038808
2.0362e-06
0.00388099
1.55303e-06
0.00388108
6.49451e-07
0.00388111
-7.68507e-07
0.0038811
-2.82578e-06
0.00388106
-5.68155e-06
0.00388097
-9.53319e-06
0.00388082
-1.46206e-05
0.00388058
-2.12309e-05
0.0038802
-2.97024e-05
0.0038796
-4.04281e-05
0.00387867
-5.38564e-05
0.00387727
-7.04898e-05
0.00387519
-9.08768e-05
0.00387216
-0.000115598
0.00386782
-0.00014524
0.00386171
-0.00018036
0.00385327
-0.000221429
0.0038418
-0.000268763
0.00382652
-0.000322438
0.00380658
-0.000382194
0.00378109
-0.000447344
0.00374928
-0.000516714
0.00371054
-0.000588621
-0.000660942
0.00366455
0.00262232
-6.42801e-05
0.00270415
-0.00016307
0.00281906
-0.000229487
0.00295142
-0.000264941
0.00308826
-0.000274494
0.00321997
-0.000264742
0.00334032
-0.000242344
0.00344599
-0.000213055
0.00353582
-0.000181305
0.00361021
-0.00015016
0.00367043
-0.000121503
0.00371825
-9.63078e-05
0.00375558
-7.48998e-05
0.00378426
-5.71926e-05
0.00380598
-4.28624e-05
0.00382219
-3.14733e-05
0.00383414
-2.256e-05
0.00384282
-1.56774e-05
0.00384903
-1.04277e-05
0.00385342
-6.47237e-06
0.00385646
-3.53459e-06
0.00385853
-1.39707e-06
0.00385991
1.03013e-07
0.00386081
1.07957e-06
0.00386137
1.60284e-06
0.0038617
1.70368e-06
0.00386188
1.37664e-06
0.00386195
5.81788e-07
0.00386193
-7.54789e-07
0.00386185
-2.74163e-06
0.00386169
-5.52354e-06
0.00386144
-9.28409e-06
0.00386107
-1.42485e-05
0.00386053
-2.06868e-05
0.00385974
-2.89165e-05
0.00385862
-3.9304e-05
0.00385702
-5.22643e-05
0.00385479
-6.82567e-05
0.00385169
-8.77763e-05
0.00384743
-0.000111338
0.00384164
-0.00013945
0.00383386
-0.000172581
0.00382354
-0.000211107
0.00381003
-0.000255253
0.00379261
-0.000305016
0.00377051
-0.000360092
0.00374297
-0.000419808
0.00370933
-0.000483073
0.00366909
-0.000548382
-0.000613873
0.00362202
0.00262303
-9.73057e-05
0.00270586
-0.000245905
0.00282115
-0.000344772
0.00295267
-0.000396463
0.00308732
-0.000409141
0.0032157
-0.000393125
0.00333198
-0.000358629
0.00343326
-0.000314327
0.00351874
-0.00026679
0.00358907
-0.000220491
0.0036457
-0.000178129
0.00369044
-0.000141054
0.00372522
-0.000109676
0.00375184
-8.38147e-05
0.00377194
-6.29569e-05
0.0037869
-4.64372e-05
0.0037979
-3.35564e-05
0.00380587
-2.36511e-05
0.00381157
-1.61306e-05
0.00381559
-1.04925e-05
0.00381838
-6.32438e-06
0.00382029
-3.29948e-06
0.00382156
-1.16793e-06
0.00382238
2.52357e-07
0.0038229
1.08449e-06
0.00382321
1.40011e-06
0.00382336
1.22528e-06
0.00382339
5.44694e-07
0.00382333
-6.95766e-07
0.00382318
-2.58792e-06
0.00382292
-5.26139e-06
0.00382252
-8.88469e-06
0.00382194
-1.36668e-05
0.00382111
-1.9859e-05
0.00381995
-2.77562e-05
0.00381834
-3.76968e-05
0.00381614
-5.00611e-05
0.00381315
-6.52659e-05
0.00380913
-8.37542e-05
0.00380377
-0.000105979
0.0037967
-0.000132379
0.00378746
-0.000163344
0.00377552
-0.000199172
0.00376029
-0.000240013
0.00374108
-0.00028581
0.00371722
-0.000336236
0.00368806
-0.000390643
0.00365302
-0.000448032
0.0036117
-0.000507063
-0.000566105
0.00356393
0.00262413
-0.00013144
0.00270851
-0.000330285
0.0028243
-0.000460554
0.00295439
-0.000526562
0.00308555
-0.000540299
0.00320876
-0.000516333
0.00331881
-0.000468676
0.00341342
-0.000408944
0.00349237
-0.000345738
0.00355666
-0.00028478
0.00360796
-0.000229424
0.00364817
-0.000181266
0.00367921
-0.000140711
0.00370282
-0.000107429
0.00372055
-8.06857e-05
0.00373369
-5.95775e-05
0.00374331
-4.31732e-05
0.00375025
-3.06e-05
0.00375521
-2.10864e-05
0.0037587
-1.39787e-05
0.00376111
-8.74119e-06
0.00376276
-4.94795e-06
0.00376386
-2.27106e-06
0.00376458
-4.67429e-07
0.00376504
6.33365e-07
0.0037653
1.13961e-06
0.00376542
1.10597e-06
0.00376542
5.39872e-07
0.00376532
-5.94021e-07
0.0037651
-2.37111e-06
0.00376475
-4.90556e-06
0.00376421
-8.3501e-06
0.00376344
-1.28965e-05
0.00376236
-1.87759e-05
0.00376086
-2.62596e-05
0.00375882
-3.56572e-05
0.00375607
-4.73141e-05
0.00375241
-6.16052e-05
0.00374758
-7.89242e-05
0.00374127
-9.9667e-05
0.0037331
-0.000124209
0.00372263
-0.000152873
0.00370935
-0.000185891
0.00369269
-0.000223357
0.00367206
-0.000265174
0.00364683
-0.00031101
0.00361644
-0.000360255
0.00358041
-0.000412001
0.00353841
-0.00046506
-0.00051801
0.00349031
0.00262573
-0.000167166
0.00271221
-0.000416772
0.00282852
-0.000576859
0.0029564
-0.000654447
0.00308253
-0.000666421
0.00319848
-0.00063229
0.00329997
-0.000570159
0.00338559
-0.00049457
0.00345583
-0.000415972
0.00351215
-0.000341101
0.00355647
-0.00027375
0.0035908
-0.000215597
0.00361702
-0.000166926
0.00363678
-0.000127187
0.00365149
-9.53957e-05
0.00366231
-7.03993e-05
0.00367017
-5.10411e-05
0.00367583
-3.62525e-05
0.00367984
-2.50983e-05
0.00368265
-1.67907e-05
0.0036846
-1.06864e-05
0.00368592
-6.27459e-06
0.00368681
-3.16078e-06
0.0036874
-1.05022e-06
0.00368776
2.67547e-07
0.00368797
9.31973e-07
0.00368805
1.02233e-06
0.00368803
5.6609e-07
0.00368789
-4.54997e-07
0.00368762
-2.10078e-06
0.00368718
-4.47018e-06
0.00368653
-7.69991e-06
0.0036856
-1.19638e-05
0.0036843
-1.74726e-05
0.00368251
-2.44729e-05
0.0036801
-3.32453e-05
0.00367688
-4.41009e-05
0.00367265
-5.73739e-05
0.00366714
-7.34114e-05
0.00366003
-9.25573e-05
0.00365095
-0.000115131
0.00363948
-0.000141397
0.00362512
-0.000171535
0.00360736
-0.000205594
0.00358564
-0.000243455
0.00355942
-0.00028479
0.0035282
-0.000329034
0.00349157
-0.000375372
0.00344927
-0.000422756
-0.000469949
0.0034012
0.00262791
-0.00020508
0.0027171
-0.000505961
0.00283379
-0.000693551
0.00295837
-0.000779019
0.00307755
-0.000785601