/*--------------------------------*- C++ -*----------------------------------*\
  =========                 |
  \\      /  F ield         | OpenFOAM: The Open Source CFD Toolbox
   \\    /   O peration     | Website:  https://openfoam.org
    \\  /    A nd           | Version:  6
     \\/     M anipulation  |
\*---------------------------------------------------------------------------*/
FoamFile
{
    version     2.0;
    format      ascii;
    class       volVectorField;
    location    "0";
    object      U;
}
// * * * * * * * * * * * * * * * * * * * * * * * * * * * * * * * * * * * * * //

dimensions      [0 1 -1 0 0 0 0];

internalField   nonuniform List<vector> 
11644
(
(1.00009 -0.000293272 0)
(1.00004 -0.000864341 0)
(1.00004 -0.00141654 0)
(1.00004 -0.00197006 0)
(1.00004 -0.00252912 0)
(1.00004 -0.00308919 0)
(1.00004 -0.00364335 0)
(1.00004 -0.00418163 0)
(1.00004 -0.00468959 0)
(1.00003 -0.00514732 0)
(1.00003 -0.00552875 0)
(1.00002 -0.00580174 0)
(1.00001 -0.00592922 0)
(0.999995 -0.00587203 0)
(0.999976 -0.00559405 0)
(0.999954 -0.00506921 0)
(0.99993 -0.00428867 0)
(0.999908 -0.00326766 0)
(0.99989 -0.00204844 0)
(0.999881 -0.000698142 3.75904e-30)
(0.999881 0.000698049 -3.75904e-30)
(0.99989 0.00204835 0)
(0.999908 0.00326758 0)
(0.99993 0.0042886 0)
(0.999954 0.00506915 0)
(0.999976 0.005594 0)
(0.999995 0.00587199 0)
(1.00001 0.00592919 0)
(1.00002 0.00580172 0)
(1.00003 0.00552874 0)
(1.00003 0.00514731 0)
(1.00004 0.00468959 0)
(1.00004 0.00418163 0)
(1.00004 0.00364335 0)
(1.00004 0.00308919 0)
(1.00004 0.00252912 0)
(1.00004 0.00197006 0)
(1.00004 0.00141655 0)
(1.00004 0.000864342 0)
(1.00009 0.000293273 0)
(1.00164 -0.000857372 0)
(1.00155 -0.00255315 0)
(1.00155 -0.00422474 0)
(1.00156 -0.00590007 0)
(1.00157 -0.00758667 0)
(1.00157 -0.00927671 0)
(1.00155 -0.0109529 0)
(1.00149 -0.0125872 0)
(1.00139 -0.0141376 0)
(1.00123 -0.0155448 0)
(1.00098 -0.0167302 0)
(1.00064 -0.0175951 0)
(1.00018 -0.0180244 0)
(0.999612 -0.0178958 0)
(0.998939 -0.0170943 0)
(0.998204 -0.0155325 0)
(0.997464 -0.0131756 0)
(0.9968 -0.0100621 0)
(0.996294 -0.00631811 0)
(0.99602 -0.00215514 -1.54855e-29)
(0.99602 0.00215486 1.54855e-29)
(0.996294 0.00631784 0)
(0.9968 0.0100618 0)
(0.997464 0.0131754 0)
(0.998204 0.0155323 0)
(0.998939 0.0170942 0)
(0.999612 0.0178957 0)
(1.00018 0.0180243 0)
(1.00064 0.017595 0)
(1.00098 0.0167302 0)
(1.00123 0.0155448 0)
(1.00139 0.0141376 0)
(1.00149 0.0125872 0)
(1.00155 0.0109529 0)
(1.00157 0.00927672 0)
(1.00157 0.00758668 0)
(1.00156 0.00590007 0)
(1.00155 0.00422475 0)
(1.00155 0.00255316 0)
(1.00164 0.000857373 0)
(1.00467 -0.00140795 0)
(1.00455 -0.00421263 0)
(1.00455 -0.00700607 0)
(1.00459 -0.00981417 0)
(1.00462 -0.0126469 0)
(1.00461 -0.0154968 0)
(1.00456 -0.0183411 0)
(1.00441 -0.0211387 0)
(1.00413 -0.0238246 0)
(1.00366 -0.0263039 0)
(1.00295 -0.0284464 0)
(1.00195 -0.0300837 0)
(1.00062 -0.0310114 0)
(0.998933 -0.0309993 0)
(0.996934 -0.0298174 0)
(0.994719 -0.0272767 0)
(0.99247 -0.0232748 0)
(0.990423 -0.0178604 0)
(0.988854 -0.0112545 0)
(0.988 -0.00384625 -3.20977e-29)
(0.988 0.00384575 3.20977e-29)
(0.988854 0.0112541 0)
(0.990423 0.0178599 0)
(0.99247 0.0232744 0)
(0.994719 0.0272764 0)
(0.996934 0.0298172 0)
(0.998933 0.0309991 0)
(1.00062 0.0310113 0)
(1.00195 0.0300836 0)
(1.00295 0.0284463 0)
(1.00366 0.0263038 0)
(1.00413 0.0238246 0)
(1.00441 0.0211387 0)
(1.00456 0.0183411 0)
(1.00461 0.0154968 0)
(1.00462 0.0126469 0)
(1.00459 0.00981419 0)
(1.00455 0.00700608 0)
(1.00455 0.00421264 0)
(1.00467 0.00140795 0)
(1.00923 -0.00194876 0)
(1.00909 -0.00584531 0)
(1.00911 -0.00975253 0)
(1.00919 -0.0136982 0)
(1.00927 -0.0176989 0)
(1.00929 -0.0217536 0)
(1.00922 -0.0258415 0)
(1.00897 -0.0299169 0)
(1.00848 -0.0339007 0)
(1.00762 -0.0376701 0)
(1.00629 -0.0410454 0)
(1.00436 -0.0437794 0)
(1.00171 -0.0455537 0)
(0.998303 -0.0459931 0)
(0.994178 -0.0446999 0)
(0.989551 -0.0413163 0)
(0.984765 -0.0356252 0)
(0.980363 -0.0275897 0)
(0.976941 -0.0175007 0)
(0.97506 -0.00600141 0)
(0.97506 0.00600067 0)
(0.976941 0.0175 0)
(0.980363 0.027589 0)
(0.984765 0.0356247 0)
(0.989551 0.0413158 0)
(0.994178 0.0446996 0)
(0.998303 0.0459929 0)
(1.00171 0.0455536 0)
(1.00436 0.0437793 0)
(1.00629 0.0410454 0)
(1.00762 0.03767 0)
(1.00848 0.0339007 0)
(1.00897 0.0299169 0)
(1.00922 0.0258415 0)
(1.00929 0.0217536 0)
(1.00927 0.017699 0)
(1.00919 0.0136983 0)
(1.00911 0.00975255 0)
(1.00909 0.00584532 0)
(1.00923 0.00194877 0)
(1.01525 -0.00247349 0)
(1.01514 -0.00743116 0)
(1.01521 -0.0124294 0)
(1.01537 -0.0175055 0)
(1.01556 -0.0226895 0)
(1.01568 -0.0279952 0)
(1.01566 -0.033415 0)
(1.01539 -0.0389123 0)
(1.01473 -0.04441 0)
(1.01349 -0.0497751 0)
(1.01144 -0.0547967 0)
(1.00836 -0.0591612 0)
(1.00401 -0.0624316 0)
(0.998259 -0.0640414 0)
(0.991101 -0.0633147 0)
(0.982766 -0.059555 0)
(0.973967 -0.0521159 0)
(0.965523 -0.0408845 0)
(0.958818 -0.0261927 0)
(0.955092 -0.00902995 -7.37335e-29)
(0.955092 0.00902889 7.37335e-29)
(0.958818 0.0261917 0)
(0.965522 0.0408836 0)
(0.973966 0.0521152 0)
(0.982766 0.0595544 0)
(0.991101 0.0633142 0)
(0.998259 0.0640411 0)
(1.00401 0.0624314 0)
(1.00836 0.0591611 0)
(1.01144 0.0547967 0)
(1.01349 0.0497751 0)
(1.01473 0.04441 0)
(1.01539 0.0389123 0)
(1.01566 0.0334151 0)
(1.01568 0.0279952 0)
(1.01556 0.0226895 0)
(1.01537 0.0175055 0)
(1.01521 0.0124295 0)
(1.01514 0.00743118 0)
(1.01525 0.0024735 0)
(1.02267 -0.00296886 0)
(1.02261 -0.00893071 0)
(1.02279 -0.0149715 0)
(1.02312 -0.0211458 0)
(1.0235 -0.0275055 0)
(1.02385 -0.0340904 0)
(1.02405 -0.0409206 0)
(1.02392 -0.0479889 0)
(1.02327 -0.0552469 0)
(1.02182 -0.0625854 0)
(1.01923 -0.0697996 0)
(1.01508 -0.0765314 0)
(1.0089 -0.0821982 0)
(1.00023 -0.0859678 0)
(0.988888 -0.0866936 0)
(0.975261 -0.0830802 0)
(0.960059 -0.0745786 0)
(0.945281 -0.0598475 0)
(0.933185 -0.0389551 0)
(0.926247 -0.0135449 -1.64635e-28)
(0.926247 0.0135435 1.64635e-28)
(0.933185 0.0389537 0)
(0.945281 0.0598463 0)
(0.960059 0.0745777 0)
(0.97526 0.0830795 0)
(0.988887 0.0866931 0)
(1.00023 0.0859675 0)
(1.0089 0.082198 0)
(1.01508 0.0765313 0)
(1.01923 0.0697996 0)
(1.02182 0.0625854 0)
(1.02327 0.055247 0)
(1.02392 0.047989 0)
(1.02405 0.0409207 0)
(1.02385 0.0340904 0)
(1.0235 0.0275056 0)
(1.02312 0.0211458 0)
(1.02279 0.0149716 0)
(1.02261 0.00893074 0)
(1.02267 0.00296887 0)
(1.03139 -0.00341586 0)
(1.03142 -0.010287 0)
(1.03177 -0.0172827 0)
(1.03237 -0.0244813 0)
(1.0331 -0.0319646 0)
(1.03386 -0.0398096 0)
(1.03449 -0.0480811 0)
(1.0348 -0.056825 0)
(1.03451 -0.0660566 0)
(1.03323 -0.0757402 0)
(1.03046 -0.0857518 0)
(1.02549 -0.0958123 0)
(1.01743 -0.10531 0)
(1.00529 -0.113148 0)
(0.989061 -0.118068 0)
(0.967968 -0.118162 0)
(0.953468 -0.102598 0)
(0.929807 -0.0878422 0)
(0.909002 -0.0624305 0)
(0.894977 -0.0283604 -2.24093e-23)
(0.891788 0.010238 0)
(0.900459 0.0472144 2.06462e-22)
(0.918263 0.0771255 0)
(0.94066 0.0975903 0)
(0.967967 0.118161 0)
(0.98906 0.118068 0)
(1.00529 0.113148 0)
(1.01743 0.10531 0)
(1.02549 0.0958123 0)
(1.03046 0.0857519 0)
(1.03323 0.0757404 0)
(1.03451 0.0660568 0)
(1.0348 0.0568251 0)
(1.03449 0.0480812 0)
(1.03386 0.0398097 0)
(1.0331 0.0319647 0)
(1.03237 0.0244813 0)
(1.03177 0.0172828 0)
(1.03142 0.010287 0)
(1.03139 0.00341588 0)
(1.04124 -0.00379105 0)
(1.04142 -0.0114287 0)
(1.04203 -0.0192404 0)
(1.04301 -0.0273312 0)
(1.04426 -0.0358188 0)
(1.04566 -0.0448263 0)
(1.04705 -0.0544787 0)
(1.0482 -0.0648997 0)
(1.04879 -0.0762093 0)
(1.04836 -0.0885206 0)
(1.04628 -0.101911 0)
(1.04163 -0.116309 0)
(1.03327 -0.131278 0)
(1.01837 -0.135984 0)
(1.00013 -0.146426 0)
(0.974169 -0.153266 0)
(0.939488 -0.150454 0)
(0.899423 -0.134339 0)
(0.859663 -0.10027 0)
(0.831323 -0.0473768 2.61042e-23)
(0.824964 0.0161571 0)
(0.843327 0.0759305 -2.61049e-23)
(0.878872 0.11986 0)
(0.920092 0.144183 0)
(0.957118 0.153981 0)
(0.987539 0.150617 0)
(1.00954 0.14143 0)
(1.03327 0.131278 0)
(1.04163 0.116309 0)
(1.04628 0.101912 0)
(1.04836 0.0885209 0)
(1.04879 0.0762095 0)
(1.0482 0.0648999 0)
(1.04705 0.0544789 0)
(1.04566 0.0448265 0)
(1.04426 0.035819 0)
(1.04301 0.0273313 0)
(1.04203 0.0192405 0)
(1.04142 0.0114288 0)
(1.04124 0.00379107 0)
(1.05201 -0.00406861 0)
(1.05238 -0.0122767 0)
(1.05333 -0.0207053 0)
(1.05483 -0.0294855 0)
(1.05678 -0.0387701 0)
(1.05909 -0.0487313 0)
(1.0616 -0.0595607 0)
(1.06409 -0.0714741 0)
(1.06625 -0.0847209 0)
(1.06761 -0.099607 0)
(1.06753 -0.116517 0)
(1.065 -0.135817 0)
(1.05846 -0.157524 0)
(1.04047 -0.16902 0)
(1.01994 -0.190221 0)
(0.985938 -0.211053 0)
(0.941421 -0.21276 0)
(0.878716 -0.207105 0)
(0.806025 -0.170686 4.63988e-23)
(0.74449 -0.0932541 0)
(0.723886 0.014211 -2.75625e-23)
(0.756735 0.116802 0)
(0.823773 0.183849 -3.49006e-22)
(0.895465 0.211045 0)
(0.954374 0.211481 0)
(1.00495 0.201058 0)
(1.03169 0.179332 0)
(1.05846 0.157524 0)
(1.065 0.135818 0)
(1.06753 0.116518 0)
(1.06761 0.0996074 0)
(1.06625 0.0847212 0)
(1.06409 0.0714744 0)
(1.0616 0.0595609 0)
(1.05909 0.0487315 0)
(1.05678 0.0387703 0)
(1.05483 0.0294856 0)
(1.05333 0.0207054 0)
(1.05238 0.0122767 0)
(1.05201 0.00406862 0)
(1.0634 -0.00422404 0)
(1.064 -0.0127549 0)
(1.06537 -0.0215422 0)
(1.06749 -0.0307349 0)
(1.07032 -0.0405133 0)
(1.07378 -0.051089 0)
(1.07776 -0.0627112 0)
(1.0821 -0.0756789 0)
(1.08657 -0.0903596 0)
(1.0908 -0.107232 0)
(1.09427 -0.126964 0)
(1.09619 -0.150453 0)
(1.09519 -0.178725 0)
(1.07792 -0.200222 0)
(1.06202 -0.235757 0)
(1.02616 -0.266783 0)
(0.970042 -0.30015 0)
(0.876567 -0.329215 0)
(0.736269 -0.312933 2.20948e-22)
(0.582636 -0.198884 0)
(0.516486 0.0145676 4.97362e-22)
(0.599547 0.219647 5.6453e-22)
(0.755962 0.319281 -2.0579e-22)
(0.890873 0.327082 0)
(0.986634 0.29857 0)
(1.04824 0.257023 0)
(1.07174 0.216548 0)
(1.09519 0.178726 0)
(1.09619 0.150454 0)
(1.09427 0.126965 0)
(1.0908 0.107232 0)
(1.08657 0.09036 0)
(1.0821 0.0756793 0)
(1.07776 0.0627115 0)
(1.07378 0.0510893 0)
(1.07032 0.0405135 0)
(1.06749 0.0307351 0)
(1.06537 0.0215423 0)
(1.064 0.012755 0)
(1.0634 0.00422406 0)
(1.07505 -0.00423882 0)
(1.07591 -0.0128053 0)
(1.07774 -0.0216448 0)
(1.08056 -0.030911 0)
(1.08438 -0.0407941 0)
(1.08915 -0.0515228 0)
(1.09485 -0.0633734 0)
(1.10142 -0.0766883 0)
(1.10875 -0.0918983 0)
(1.1167 -0.109562 0)
(1.12503 -0.130461 0)
(1.13348 -0.155803 0)
(1.14168 -0.187654 0)
(1.13106 -0.219328 0)
(1.13049 -0.266898 0)
(1.10625 -0.322938 0)
(1.05941 -0.397904 5.09518e-24)
(0.947212 -0.493493 -6.5043e-23)
(0.687697 -0.52779 -4.10963e-22)
(0.272759 -0.343154 -1.51711e-20)
(0.0740467 0.0107516 0)
(0.297349 0.363128 -3.30764e-21)
(0.710093 0.530136 4.34109e-22)
(0.967791 0.482099 1.80828e-23)
(1.07903 0.384103 -1.16193e-24)
(1.12612 0.298377 0)
(1.13205 0.240328 0)
(1.14168 0.187655 0)
(1.13348 0.155804 0)
(1.12503 0.130462 0)
(1.1167 0.109563 0)
(1.10875 0.0918989 0)
(1.10142 0.0766887 0)
(1.09485 0.0633738 0)
(1.08915 0.0515231 0)
(1.08438 0.0407943 0)
(1.08056 0.0309111 0)
(1.07774 0.0216449 0)
(1.07591 0.0128054 0)
(1.07505 0.00423884 0)
(1.08655 -0.00410537 0)
(1.08769 -0.0124035 0)
(1.08998 -0.0209666 0)
(1.09352 -0.0299362 0)
(1.09833 -0.0394899 0)
(1.10445 -0.049842 0)
(1.11192 -0.0612515 0)
(1.12081 -0.0740384 0)
(1.13118 -0.0886022 0)
(1.14312 -0.105432 0)
(1.1568 -0.125149 0)
(1.17256 -0.148751 0)
(1.19109 -0.178462 0)
(1.19214 -0.21489 0)
(1.21242 -0.26083 0)
(1.21246 -0.322473 0)
(1.18651 -0.392313 -2.45234e-23)
(1.023 -0.422577 2.39485e-22)
(0.321895 -0.170532 -8.97638e-21)
(0.397432 0.205567 2.07246e-21)
(1.05077 0.417369 3.62705e-23)
(1.20259 0.373337 0)
(1.22103 0.29058 0)
(1.20255 0.235046 0)
(1.19109 0.178463 0)
(1.17256 0.148752 0)
(1.1568 0.12515 0)
(1.14312 0.105433 0)
(1.13118 0.0886028 0)
(1.12081 0.0740389 0)
(1.11192 0.0612518 0)
(1.10445 0.0498423 0)
(1.09833 0.0394901 0)
(1.09352 0.0299364 0)
(1.08998 0.0209667 0)
(1.08769 0.0124035 0)
(1.08655 0.00410539 0)
(1.09751 -0.00383032 0)
(1.09889 -0.0115689 0)
(1.10162 -0.0195397 0)
(1.1058 -0.0278555 0)
(1.11151 -0.0366587 0)
(1.11883 -0.046118 0)
(1.12788 -0.0564297 0)
(1.1388 -0.0678252 0)
(1.15178 -0.0805759 0)
(1.1671 -0.0949757 0)
(1.18516 -0.111318 0)
(1.20658 -0.130069 0)
(1.23203 -0.15252 0)
(1.24376 -0.184253 0)
(1.27068 -0.210821 0)
(1.26897 -0.239643 0)
(1.1826 -0.225104 0)
(0.820462 -0.104134 3.9971e-22)
(0.0120896 0.00225588 4.6777e-20)
(0.0382996 -0.00605407 -1.90751e-20)
(0.857142 0.115609 0)
(1.21086 0.225302 0)
(1.2765 0.222447 0)
(1.2583 0.196693 0)
(1.23204 0.152521 0)
(1.20658 0.13007 0)
(1.18516 0.111319 0)
(1.1671 0.0949763 0)
(1.15178 0.0805764 0)
(1.1388 0.0678256 0)
(1.12788 0.0564301 0)
(1.11883 0.0461183 0)
(1.11151 0.0366589 0)
(1.1058 0.0278556 0)
(1.10162 0.0195398 0)
(1.09889 0.011569 0)
(1.09751 0.00383034 0)
(1.10754 -0.00343496 0)
(1.10914 -0.0103672 0)
(1.11221 -0.0174795 0)
(1.1169 -0.0248461 0)
(1.12331 -0.0325598 0)
(1.13154 -0.0407262 0)
(1.14175 -0.0494573 0)
(1.1541 -0.0588691 0)
(1.16883 -0.0690745 0)
(1.18626 -0.0801505 0)
(1.20677 -0.0920802 0)
(1.23063 -0.104797 0)
(1.25695 -0.118233 0)
(1.27146 -0.138797 0)
(1.28131 -0.141608 0)
(1.23939 -0.132568 0)
(1.05634 -0.0726686 0)
(0.615007 0.0259879 5.03764e-24)
(0.138051 0.0350076 0)
(0.161758 -0.038364 1.5752e-21)
(0.681055 -0.0158493 0)
(1.10462 0.0836906 0)
(1.26546 0.13477 0)
(1.28052 0.141407 0)
(1.25695 0.118234 0)
(1.23063 0.104798 0)
(1.20677 0.0920808 0)
(1.18626 0.0801511 0)
(1.16883 0.069075 0)
(1.1541 0.0588695 0)
(1.14175 0.0494576 0)
(1.13154 0.0407265 0)
(1.12331 0.0325601 0)
(1.1169 0.0248462 0)
(1.11222 0.0174797 0)
(1.10914 0.0103672 0)
(1.10754 0.00343498 0)
(1.11635 -0.00295174 0)
(1.11811 -0.00889839 0)
(1.12142 -0.014964 0)
(1.12645 -0.0211815 0)
(1.13329 -0.027592 0)
(1.14207 -0.0342362 0)
(1.15291 -0.0411443 0)
(1.16597 -0.0483261 0)
(1.18144 -0.055754 0)
(1.19952 -0.0633217 0)
(1.22027 -0.0707742 0)
(1.24307 -0.0776691 0)
(1.2648 -0.0829855 0)
(1.27491 -0.0922657 0)
(1.25685 -0.0788141 0)
(1.17183 -0.0526247 0)
(0.94591 0.00133133 0)
(0.558776 0.0485135 -4.86711e-23)
(0.196237 0.0361851 -1.64944e-24)
(0.012497 0.00123861 -9.90319e-23)
(-0.024506 0.000346928 -3.73819e-23)
(0.0253703 -0.00411622 -1.55723e-21)
(0.233191 -0.0406013 -8.16401e-22)
(0.610384 -0.0454723 4.8672e-23)
(1.00024 0.00783278 0)
(1.21736 0.0630609 0)
(1.27309 0.0875819 0)
(1.2648 0.0829858 0)
(1.24307 0.0776695 0)
(1.22027 0.0707746 0)
(1.19952 0.0633221 0)
(1.18144 0.0557544 0)
(1.16597 0.0483264 0)
(1.15291 0.0411446 0)
(1.14207 0.0342365 0)
(1.13329 0.0275922 0)
(1.12645 0.0211817 0)
(1.12142 0.0149641 0)
(1.11811 0.00889846 0)
(1.11635 0.00295176 0)
(1.12374 -0.00241788 0)
(1.12559 -0.00727735 0)
(1.12903 -0.0121953 0)
(1.13421 -0.017169 0)
(1.14124 -0.0221942 0)
(1.1502 -0.0272583 0)
(1.1612 -0.0323292 0)
(1.17433 -0.0373432 0)
(1.1897 -0.0421849 0)
(1.20731 -0.0466451 0)
(1.22685 -0.0503516 0)
(1.24682 -0.0526205 0)
(1.26211 -0.0515634 0)
(1.26215 -0.0520961 0)
(1.21862 -0.0315196 0)
(1.07529 0.00799742 0)
(0.854479 0.0412816 0)
(0.520868 0.0633499 0)
(0.222128 0.0508113 3.65032e-23)
(0.0400902 0.0226419 -1.47608e-22)
(-0.00866213 -0.00308024 0)
(0.072965 -0.0297601 0)
(0.287794 -0.0564906 -6.55364e-22)
(0.605553 -0.0611798 0)
(0.929603 -0.0315228 0)
(1.16319 0.0140789 0)
(1.24993 0.0439172 0)
(1.26211 0.0515634 0)
(1.24682 0.0526208 0)
(1.22685 0.0503519 0)
(1.20731 0.0466454 0)
(1.1897 0.0421852 0)
(1.17433 0.0373435 0)
(1.1612 0.0323294 0)
(1.1502 0.0272585 0)
(1.14124 0.0221943 0)
(1.13422 0.0171691 0)
(1.12903 0.0121954 0)
(1.12559 0.00727741 0)
(1.12375 0.0024179 0)
(1.12962 -0.00186862 0)
(1.1315 -0.00561211 0)
(1.13497 -0.00936165 0)
(1.14016 -0.0130872 0)
(1.14714 -0.0167508 0)
(1.156 -0.0203014 0)
(1.16678 -0.0236654 0)
(1.17954 -0.0267339 0)
(1.19424 -0.0293382 0)
(1.21069 -0.0311915 0)
(1.22805 -0.0317727 0)
(1.24365 -0.0301337 0)
(1.2494 -0.0245447 0)
(1.22436 -0.00956969 0)
(1.17624 0.00349279 0)
(1.02317 0.0366216 0)
(0.811444 0.0605043 0)
(0.519068 0.0720226 0)
(0.254002 0.0589854 0)
(0.0820291 0.0299366 0)
(0.033278 -0.00434475 7.79917e-24)
(0.114123 -0.0380181 -2.54437e-22)
(0.313454 -0.0642468 0)
(0.592916 -0.0714492 0)
(0.907928 -0.0526143 0)
(1.11317 -0.0195043 0)
(1.22436 0.00956926 0)
(1.2494 0.0245447 0)
(1.24365 0.0301338 0)
(1.22806 0.0317729 0)
(1.21069 0.0311918 0)
(1.19424 0.0293385 0)
(1.17954 0.0267341 0)
(1.16679 0.0236656 0)
(1.156 0.0203016 0)
(1.14714 0.016751 0)
(1.14016 0.0130873 0)
(1.13497 0.00936175 0)
(1.1315 0.00561217 0)
(1.12962 0.00186864 0)
(1.13399 -0.00133255 0)
(1.13585 -0.00398975 0)
(1.13927 -0.00661184 0)
(1.14434 -0.00915085 0)
(1.15113 -0.0115465 0)
(1.15968 -0.0137236 0)
(1.17001 -0.0155844 0)
(1.18209 -0.0169964 0)
(1.19577 -0.0177664 0)
(1.21061 -0.0175767 0)
(1.22523 -0.0158594 0)
(1.2358 -0.0116319 0)
(1.23284 -0.00331124 0)
(1.19735 0.0123575 0)
(1.13754 0.0267931 0)
(0.98362 0.0535576 0)
(0.785913 0.0710621 0)
(0.523188 0.0759792 0)
(0.28552 0.0612862 0)
(0.128007 0.0316901 0)
(0.0825944 -0.00464268 0)
(0.1577 -0.0400385 0)
(0.339208 -0.0666587 0)
(0.589058 -0.0765644 0)
(0.87562 -0.0653914 0)
(1.07165 -0.0400788 0)
(1.19734 -0.0123578 0)
(1.23284 0.00331125 0)
(1.2358 0.0116321 0)
(1.22523 0.0158597 0)
(1.21061 0.017577 0)
(1.19578 0.0177667 0)
(1.18209 0.0169967 0)
(1.17001 0.0155847 0)
(1.15968 0.0137238 0)
(1.15113 0.0115467 0)
(1.14434 0.00915099 0)
(1.13927 0.00661194 0)
(1.13586 0.00398981 0)
(1.13399 0.00133257 0)
(1.13692 -0.000829984 0)
(1.13873 -0.00247167 0)
(1.14204 -0.00404917 0)
(1.14691 -0.00550487 0)
(1.1534 -0.00676657 0)
(1.16152 -0.00774743 0)
(1.17125 -0.00834033 0)
(1.18249 -0.0084066 0)
(1.19498 -0.0077508 0)
(1.20802 -0.00605873 0)
(1.21972 -0.00277624 0)
(1.22549 0.00303863 0)
(1.21531 0.0127751 0)
(1.17164 0.0284518 0)
(1.10468 0.0422417 0)
(0.953385 0.0633416 0)
(0.769705 0.0759754 0)
(0.531893 0.0765987 0)
(0.317504 0.0605765 0)
(0.174367 0.0312684 0)
(0.132842 -0.00458484 0)
(0.20145 -0.039496 0)
(0.366041 -0.0660492 0)
(0.591269 -0.0779836 0)
(0.852622 -0.0719929 0)
(1.03808 -0.0529268 0)
(1.17164 -0.0284519 0)
(1.21531 -0.0127749 0)
(1.22549 -0.00303834 0)
(1.21972 0.00277658 0)
(1.20802 0.00605908 0)
(1.19498 0.00775113 0)
(1.18249 0.0084069 0)
(1.17125 0.00834059 0)
(1.16152 0.00774765 0)
(1.1534 0.00676675 0)
(1.14691 0.00550501 0)
(1.14204 0.00404926 0)
(1.13873 0.00247173 0)
(1.13692 0.000830004 0)
(1.13852 -0.000373439 0)
(1.14026 -0.00109525 0)
(1.14342 -0.00173492 0)
(1.14806 -0.00223185 0)
(1.15419 -0.00251016 0)
(1.16182 -0.00248058 0)
(1.17088 -0.00203632 0)
(1.18123 -0.00104177 0)
(1.19247 0.000693629 0)
(1.20367 0.00347398 0)
(1.21254 0.00782293 0)
(1.21391 0.0145985 0)
(1.19758 0.0249592 0)
(1.14743 0.0400032 0)
(1.07742 0.0523368 0)
(0.930839 0.0686611 0)
(0.760071 0.0774654 0)
(0.543711 0.0751304 0)
(0.34945 0.0583963 0)
(0.219416 0.029972 0)
(0.181593 -0.0043903 0)
(0.244057 -0.0378879 0)
(0.393455 -0.063855 0)
(0.597548 -0.0770489 0)
(0.83684 -0.0748144 0)
(1.0117 -0.0607632 0)
(1.14743 -0.040003 0)
(1.19758 -0.0249589 0)
(1.21391 -0.014598 0)
(1.21254 -0.00782248 0)
(1.20367 -0.00347355 0)
(1.19248 -0.000693248 0)
(1.18123 0.0010421 0)
(1.17088 0.0020366 0)
(1.16182 0.00248081 0)
(1.15419 0.00251035 0)
(1.14806 0.00223199 0)
(1.14342 0.00173502 0)
(1.14026 0.00109531 0)
(1.13852 0.000373458 0)
(1.13894 3.09861e-05 0)
(1.14059 0.000121773 0)
(1.14359 0.000303507 0)
(1.14797 0.000635135 0)
(1.15373 0.00119049 0)
(1.16086 0.00205545 0)
(1.16925 0.00333099 0)
(1.17871 0.00514497 0)
(1.18873 0.00767905 0)
(1.19816 0.0112216 0)
(1.20437 0.0162415 0)
(1.20191 0.0234306 0)
(1.18096 0.0336145 0)
(1.12764 0.0479268 0)
(1.05473 0.0586812 0)
(0.914917 0.0706755 0)
(0.754778 0.077123 0)
(0.557247 0.07258 0)
(0.380534 0.0556271 0)
(0.26228 0.0283985 0)
(0.227977 -0.00414166 -3.65764e-33)
(0.285054 -0.0359032 0)
(0.42114 -0.0609554 0)
(0.606989 -0.0748406 0)
(0.827022 -0.0751803 0)
(0.992571 -0.0649539 0)
(1.12764 -0.0479262 0)
(1.18096 -0.0336139 0)
(1.20191 -0.02343 0)
(1.20437 -0.0162409 0)
(1.19816 -0.011221 0)
(1.18873 -0.00767862 0)
(1.17871 -0.0051446 0)
(1.16926 -0.00333069 0)
(1.16086 -0.0020552 0)
(1.15373 -0.0011903 0)
(1.14797 -0.000634994 0)
(1.14359 -0.00030341 0)
(1.14059 -0.000121715 0)
(1.13894 -3.09672e-05 0)
(1.13832 0.000381839 0)
(1.13988 0.00117574 0)
(1.14272 0.00206265 0)
(1.14684 0.00309702 0)
(1.15224 0.00434718 0)
(1.15888 0.00589223 0)
(1.16664 0.00782456 0)
(1.17526 0.0102616 0)
(1.18412 0.0133723 0)
(1.1919 0.0174226 0)
(1.1957 0.022829 0)
(1.18996 0.0301638 0)
(1.16526 0.0400162 0)
(1.10865 0.0524906 0)
(1.00493 0.0655965 0)
(0.899384 0.0722076 0)
(0.731425 0.0748594 0)
(0.552314 0.0676546 0)
(0.397835 0.049591 0)
(0.299864 0.0229737 0)
(0.279369 -0.00772667 9.26987e-34)
(0.340786 -0.0370358 0)
(0.470883 -0.0598256 0)
(0.642268 -0.0726056 0)
(0.820508 -0.0743179 0)
(1.00493 -0.0655954 0)
(1.10864 -0.0524897 0)
(1.16526 -0.0400153 0)
(1.18996 -0.030163 0)
(1.1957 -0.0228283 0)
(1.1919 -0.017422 0)
(1.18413 -0.0133718 0)
(1.17526 -0.0102613 0)
(1.16664 -0.00782425 0)
(1.15888 -0.00589199 0)
(1.15224 -0.004347 0)
(1.14684 -0.00309688 0)
(1.14272 -0.00206256 0)
(1.13988 -0.00117569 0)
(1.13832 -0.000381822 0)
(1.13682 0.000680757 0)
(1.13829 0.00207224 0)
(1.14097 0.00355425 0)
(1.14485 0.00517552 0)
(1.14991 0.00699727 0)
(1.1561 0.00909037 0)
(1.16327 0.0115378 0)
(1.17111 0.0144462 0)
(1.17892 0.0179707 0)
(1.18519 0.022353 0)
(1.18688 0.0279542 0)
(1.17838 0.0352255 0)
(1.15075 0.0445273 0)
(1.09234 0.0556555 0)
(0.992482 0.0662735 0)
(0.855279 0.0721609 0)
(0.695669 0.0709808 0)
(0.536888 0.0604801 0)
(0.408411 0.0407978 0)
(0.336526 0.0144166 -1.59091e-33)
(0.336524 -0.0144128 1.59091e-33)
(0.408407 -0.0407943 0)
(0.536881 -0.0604771 0)
(0.695662 -0.0709783 0)
(0.855273 -0.072159 0)
(0.992478 -0.0662719 0)
(1.09234 -0.0556542 0)
(1.15075 -0.0445263 0)
(1.17838 -0.0352246 0)
(1.18688 -0.0279535 0)
(1.18519 -0.0223525 0)
(1.17892 -0.0179702 0)
(1.17111 -0.0144458 0)
(1.16327 -0.0115375 0)
(1.1561 -0.00909014 0)
(1.14991 -0.0069971 0)
(1.14485 -0.0051754 0)
(1.14097 -0.00355417 0)
(1.13829 -0.00207219 0)
(1.13682 -0.000680742 0)
(1.13457 0.000931563 0)
(1.13596 0.00282326 0)
(1.13849 0.00480027 0)
(1.14214 0.00690558 0)
(1.14689 0.00919317 0)
(1.15267 0.0117257 0)
(1.15932 0.0145772 0)
(1.16646 0.0178445 0)
(1.17331 0.0216691 0)
(1.17824 0.0262673 0)
(1.17809 0.0319443 0)
(1.16732 0.0390388 0)
(1.13758 0.04772 0)
(1.07864 0.0575283 0)
(0.982583 0.0662756 0)
(0.852837 0.0705414 0)
(0.703671 0.068075 0)
(0.557079 0.0573035 0)
(0.439398 0.0383861 0)
(0.37384 0.013522 -1.72434e-34)
(0.373838 -0.0135173 1.72434e-34)
(0.439394 -0.0383818 0)
(0.557074 -0.0572997 0)
(0.703665 -0.0680719 0)
(0.852832 -0.070539 0)
(0.982579 -0.0662738 0)
(1.07864 -0.0575269 0)
(1.13758 -0.0477189 0)
(1.16732 -0.0390379 0)
(1.17809 -0.0319436 0)
(1.17824 -0.0262667 0)
(1.17331 -0.0216686 0)
(1.16646 -0.0178442 0)
(1.15932 -0.014577 0)
(1.15268 -0.0117255 0)
(1.1469 -0.00919305 0)
(1.14214 -0.00690549 0)
(1.13849 -0.00480021 0)
(1.13596 -0.00282323 0)
(1.13457 -0.000931552 0)
(1.13171 0.00114001 0)
(1.13301 0.00344644 0)
(1.1354 0.00583146 0)
(1.13886 0.00833312 0)
(1.14333 0.0109989 0)
(1.14875 0.0138843 0)
(1.15492 0.0170556 0)
(1.16143 0.0206011 0)
(1.16742 0.0246496 0)
(1.17116 0.0293922 0)
(1.16943 0.0350809 0)
(1.15686 0.0419545 0)
(1.12569 0.0500249 0)
(1.06704 0.0586578 0)
(0.974921 0.0658658 0)
(0.85261 0.0688294 0)
(0.713236 0.0654539 0)
(0.577255 0.054493 0)
(0.468558 0.0362316 0)
(0.40812 0.0127146 0)
(0.408119 -0.0127092 0)
(0.468555 -0.0362266 0)
(0.57725 -0.0544888 0)
(0.713231 -0.0654505 0)
(0.852606 -0.0688268 0)
(0.974919 -0.0658639 0)
(1.06704 -0.0586564 0)
(1.12569 -0.0500239 0)
(1.15686 -0.0419537 0)
(1.16943 -0.0350803 0)
(1.17116 -0.0293918 0)
(1.16742 -0.0246493 0)
(1.16143 -0.0206009 0)
(1.15492 -0.0170555 0)
(1.14875 -0.0138842 0)
(1.14333 -0.0109988 0)
(1.13886 -0.00833308 0)
(1.1354 -0.00583143 0)
(1.13301 -0.00344642 0)
(1.13171 -0.00114 0)
(1.12833 0.00131364 0)
(1.12955 0.00396475 0)
(1.13183 0.00668705 0)
(1.1351 0.00951467 0)
(1.13933 0.0124897 0)
(1.14442 0.0156616 0)
(1.15016 0.0190911 0)
(1.1561 0.0228591 0)
(1.16132 0.0270828 0)
(1.16401 0.0319287 0)
(1.16095 0.0375982 0)
(1.14697 0.0442413 0)
(1.11493 0.0517441 0)
(1.05715 0.0593672 0)
(0.969002 0.065309 0)
(0.853733 0.0671678 0)
(0.72342 0.0630503 0)
(0.596981 0.0519678 0)
(0.496251 0.0343195 0)
(0.440334 0.0120032 0)
(0.440333 -0.0119977 0)
(0.496248 -0.0343144 0)
(0.596978 -0.0519635 0)
(0.723416 -0.0630469 0)
(0.853729 -0.0671653 0)
(0.969001 -0.0653073 0)
(1.05715 -0.059366 0)
(1.11493 -0.0517434 0)
(1.14697 -0.0442408 0)
(1.16096 -0.0375979 0)
(1.16401 -0.0319285 0)
(1.16132 -0.0270827 0)
(1.1561 -0.022859 0)
(1.15016 -0.0190911 0)
(1.14442 -0.0156616 0)
(1.13933 -0.0124897 0)
(1.1351 -0.00951469 0)
(1.13183 -0.00668707 0)
(1.12956 -0.00396476 0)
(1.12833 -0.00131365 0)
(1.12452 0.00146113 0)
(1.12568 0.00440451 0)
(1.12784 0.00741172 0)
(1.13095 0.0105137 0)
(1.13496 0.013748 0)
(1.13975 0.0171596 0)
(1.14511 0.0208047 0)
(1.15054 0.0247585 0)
(1.15506 0.0291275 0)
(1.15683 0.0340539 0)
(1.15266 0.0396911 0)
(1.13761 0.0461094 0)
(1.10516 0.0530947 0)
(1.04866 0.059849 0)
(0.9645 0.064732 0)
(0.855901 0.0656603 0)
(0.734028 0.0609546 0)
(0.616323 0.0498211 0)
(0.522802 0.0327215 0)
(0.470954 0.0114138 -2.24156e-34)
(0.470953 -0.0114087 2.24156e-34)
(0.5228 -0.0327169 0)
(0.61632 -0.0498173 0)
(0.734025 -0.0609516 0)
(0.855899 -0.0656583 0)
(0.964499 -0.0647308 0)
(1.04866 -0.0598483 0)
(1.10517 -0.0530944 0)
(1.13761 -0.0461093 0)
(1.15266 -0.0396911 0)
(1.15683 -0.034054 0)
(1.15506 -0.0291277 0)
(1.15054 -0.0247587 0)
(1.14511 -0.0208048 0)
(1.13975 -0.0171598 0)
(1.13496 -0.0137481 0)
(1.13095 -0.0105138 0)
(1.12784 -0.00741179 0)
(1.12568 -0.00440455 0)
(1.12452 -0.00146114 0)
(1.12034 0.00159058 0)
(1.12145 0.00479051 0)
(1.12351 0.00804767 0)
(1.12647 0.01139 0)
(1.13027 0.0148514 0)
(1.1348 0.0184731 0)
(1.13981 0.0223076 0)
(1.14477 0.0264255 0)
(1.14866 0.0309226 0)
(1.14963 0.0359176 0)
(1.14454 0.0415185 0)
(1.12874 0.047725 0)
(1.09627 0.0542443 0)
(1.04138 0.0602506 0)
(0.96121 0.0642429 0)
(0.858978 0.0643917 0)
(0.745004 0.0592156 0)
(0.63535 0.0480645 0)
(0.548408 0.0314267 0)
(0.500253 0.0109382 0)
(0.500252 -0.010934 0)
(0.548407 -0.0314229 0)
(0.635349 -0.0480615 0)
(0.745003 -0.0592134 0)
(0.858977 -0.0643904 0)
(0.96121 -0.0642423 0)
(1.04138 -0.0602506 0)
(1.09628 -0.0542446 0)
(1.12874 -0.0477254 0)
(1.14454 -0.0415189 0)
(1.14963 -0.035918 0)
(1.14866 -0.030923 0)
(1.14477 -0.0264258 0)
(1.13981 -0.0223079 0)
(1.13481 -0.0184733 0)
(1.13028 -0.0148516 0)
(1.12647 -0.0113902 0)
(1.12351 -0.00804779 0)
(1.12145 -0.00479058 0)
(1.12034 -0.00159061 0)
(1.11583 0.00170736 0)
(1.11689 0.00513921 0)
(1.11885 0.00862334 0)
(1.12169 0.0121848 0)
(1.12531 0.0158538 0)
(1.1296 0.0196686 0)
(1.13428 0.0236786 0)
(1.13881 0.0279493 0)
(1.14214 0.0325661 0)
(1.14241 0.0376244 0)
(1.13659 0.0431899 0)
(1.1203 0.049201 0)
(1.08815 0.0553042 0)
(1.03512 0.0606654 0)
(0.95896 0.0639032 0)
(0.862833 0.0633936 0)
(0.756287 0.0578274 0)
(0.654113 0.0466632 0)
(0.573236 0.0303967 0)
(0.528474 0.0105604 0)
(0.528474 -0.0105576 0)
(0.573236 -0.0303942 0)
(0.654112 -0.0466614 0)
(0.756287 -0.0578264 0)
(0.862833 -0.0633933 0)
(0.95896 -0.0639035 0)
(1.03512 -0.060666 0)
(1.08815 -0.055305 0)
(1.1203 -0.0492019 0)
(1.13659 -0.0431908 0)
(1.14241 -0.0376252 0)
(1.14214 -0.0325668 0)
(1.13881 -0.0279499 0)
(1.13428 -0.0236791 0)
(1.1296 -0.019669 0)
(1.12531 -0.0158542 0)
(1.12169 -0.012185 0)
(1.11886 -0.00862352 0)
(1.11689 -0.00513931 0)
(1.11583 -0.00170739 0)
(1.11102 0.00181223 0)
(1.11203 0.00545325 0)
(1.11391 0.00914395 0)
(1.11663 0.0129066 0)
(1.12009 0.0167685 0)
(1.12415 0.0207648 0)
(1.12854 0.0249419 0)
(1.13267 0.0293598 0)
(1.13549 0.0340925 0)
(1.13517 0.0392125 0)
(1.12879 0.0447463 0)
(1.11226 0.0505801 0)
(1.0807 0.0563145 0)
(1.02974 0.0611199 0)
(0.95759 0.0637177 0)
(0.867342 0.0626512 0)
(0.767827 0.0567556 0)
(0.672665 0.0455725 0)
(0.597449 0.029594 0)
(0.555848 0.0102659 0)
(0.555848 -0.0102648 0)
(0.597449 -0.0295931 0)
(0.672666 -0.0455721 0)
(0.767828 -0.0567559 0)
(0.867343 -0.062652 0)
(0.957592 -0.0637189 0)
(1.02974 -0.0611213 0)
(1.08071 -0.056316 0)
(1.11226 -0.0505815 0)
(1.12879 -0.0447477 0)
(1.13517 -0.0392136 0)
(1.1355 -0.0340935 0)
(1.13267 -0.0293607 0)
(1.12854 -0.0249425 0)
(1.12416 -0.0207654 0)
(1.12009 -0.0167689 0)
(1.11663 -0.012907 0)
(1.11391 -0.00914417 0)
(1.11203 -0.00545338 0)
(1.11102 -0.00181227 0)
(1.10595 0.00190124 0)
(1.1069 0.00572073 0)
(1.10871 0.00959003 0)
(1.11131 0.0135295 0)
(1.11462 0.0175642 0)
(1.11848 0.0217271 0)
(1.12259 0.0260611 0)
(1.12636 0.0306203 0)
(1.12873 0.035466 0)
(1.12791 0.0406484 0)
(1.12112 0.046158 0)
(1.10457 0.0518367 0)
(1.07384 0.057252 0)
(1.0251 0.0615864 0)
(0.956962 0.0636493 0)
(0.872398 0.0621195 0)
(0.779586 0.0559495 0)
(0.691063 0.0447422 0)
(0.62119 0.0289809 0)
(0.58257 0.0100406 0)
(0.58257 -0.0100413 0)
(0.621191 -0.0289818 0)
(0.691065 -0.0447433 0)
(0.779588 -0.055951 0)
(0.8724 -0.0621214 0)
(0.956963 -0.0636514 0)
(1.0251 -0.0615885 0)
(1.07384 -0.0572541 0)
(1.10457 -0.0518387 0)
(1.12112 -0.0461597 0)
(1.12791 -0.0406498 0)
(1.12873 -0.0354673 0)
(1.12636 -0.0306213 0)
(1.12259 -0.026062 0)
(1.11848 -0.0217278 0)
(1.11462 -0.0175647 0)
(1.11131 -0.0135299 0)
(1.10871 -0.0095903 0)
(1.1069 -0.00572089 0)
(1.10595 -0.00190129 0)
(1.10065 0.00196761 0)
(1.10156 0.00592109 0)
(1.10329 0.00992701 0)
(1.10578 0.0140055 0)
(1.10893 0.0181813 0)
(1.11259 0.022486 0)
(1.11644 0.0269594 0)
(1.11988 0.0316491 0)
(1.12185 0.0366038 0)
(1.12062 0.0418513 0)
(1.11357 0.0473501 0)
(1.09717 0.0529048 0)
(1.06746 0.0580587 0)
(1.02108 0.0620101 0)
(0.95694 0.063642 0)
(0.877904 0.0617407 0)
(0.79153 0.0553502 0)
(0.709353 0.0441183 0)
(0.644578 0.0285188 0)
(0.608799 0.00987042 0)
(0.6088 -0.00987286 0)
(0.644579 -0.0285213 0)
(0.709355 -0.044121 0)
(0.791532 -0.0553529 0)
(0.877906 -0.0617436 0)
(0.956942 -0.0636449 0)
(1.02108 -0.0620129 0)
(1.06746 -0.0580613 0)
(1.09717 -0.0529071 0)
(1.11357 -0.0473521 0)
(1.12062 -0.0418531 0)
(1.12185 -0.0366052 0)
(1.11988 -0.0316503 0)