/*--------------------------------*- C++ -*----------------------------------*\
  =========                 |
  \\      /  F ield         | OpenFOAM: The Open Source CFD Toolbox
   \\    /   O peration     | Website:  https://openfoam.org
    \\  /    A nd           | Version:  6
     \\/     M anipulation  |
\*---------------------------------------------------------------------------*/
FoamFile
{
    version     2.0;
    format      ascii;
    class       volScalarField;
    location    "0";
    object      p;
}
// * * * * * * * * * * * * * * * * * * * * * * * * * * * * * * * * * * * * * //

dimensions      [0 2 -2 0 0 0 0];

internalField   nonuniform List<scalar> 
145945
(
3.55877e-06
3.55746e-06
3.55639e-06
3.5553e-06
3.55447e-06
3.5538e-06
3.55334e-06
3.55305e-06
3.55294e-06
3.55301e-06
3.55327e-06
3.55369e-06
3.55433e-06
3.5551e-06
3.55619e-06
3.55731e-06
3.5587e-06
3.55746e-06
3.55639e-06
3.5553e-06
3.55423e-06
3.55335e-06
3.55266e-06
3.55217e-06
3.55187e-06
3.55176e-06
3.55183e-06
3.5521e-06
3.55255e-06
3.5532e-06
3.55403e-06
3.55511e-06
3.55625e-06
3.5574e-06
3.55639e-06
3.5553e-06
3.55416e-06
3.55308e-06
3.55219e-06
3.55148e-06
3.55099e-06
3.55068e-06
3.55057e-06
3.55065e-06
3.55092e-06
3.55138e-06
3.55204e-06
3.55289e-06
3.55396e-06
3.55517e-06
3.55634e-06
3.5553e-06
3.55423e-06
3.55308e-06
3.552e-06
3.55108e-06
3.55037e-06
3.54986e-06
3.54954e-06
3.54943e-06
3.54951e-06
3.54979e-06
3.55026e-06
3.55094e-06
3.55181e-06
3.55289e-06
3.55411e-06
3.55525e-06
3.55447e-06
3.55335e-06
3.55219e-06
3.55108e-06
3.55014e-06
3.54941e-06
3.54889e-06
3.54857e-06
3.54845e-06
3.54853e-06
3.54882e-06
3.54931e-06
3.54999e-06
3.55089e-06
3.55199e-06
3.55324e-06
3.55442e-06
3.5538e-06
3.55266e-06
3.55148e-06
3.55037e-06
3.54941e-06
3.54867e-06
3.54813e-06
3.5478e-06
3.54768e-06
3.54777e-06
3.54806e-06
3.54856e-06
3.54926e-06
3.55017e-06
3.55129e-06
3.55254e-06
3.55375e-06
3.55334e-06
3.55217e-06
3.55099e-06
3.54986e-06
3.54889e-06
3.54813e-06
3.54759e-06
3.54726e-06
3.54713e-06
3.54722e-06
3.54752e-06
3.54803e-06
3.54874e-06
3.54966e-06
3.55079e-06
3.55206e-06
3.5533e-06
3.55305e-06
3.55187e-06
3.55068e-06
3.54954e-06
3.54857e-06
3.5478e-06
3.54726e-06
3.54692e-06
3.5468e-06
3.54688e-06
3.54719e-06
3.5477e-06
3.54842e-06
3.54935e-06
3.55049e-06
3.55176e-06
3.55301e-06
3.55295e-06
3.55176e-06
3.55057e-06
3.54943e-06
3.54845e-06
3.54768e-06
3.54713e-06
3.5468e-06
3.54667e-06
3.54676e-06
3.54706e-06
3.54757e-06
3.54829e-06
3.54923e-06
3.55037e-06
3.55165e-06
3.5529e-06
3.55302e-06
3.55183e-06
3.55065e-06
3.54951e-06
3.54853e-06
3.54777e-06
3.54722e-06
3.54688e-06
3.54676e-06
3.54685e-06
3.54715e-06
3.54766e-06
3.54838e-06
3.54931e-06
3.55045e-06
3.55172e-06
3.55297e-06
3.55327e-06
3.5521e-06
3.55092e-06
3.54979e-06
3.54882e-06
3.54806e-06
3.54752e-06
3.54719e-06
3.54706e-06
3.54715e-06
3.54745e-06
3.54796e-06
3.54867e-06
3.54959e-06
3.55072e-06
3.55199e-06
3.55323e-06
3.55369e-06
3.55255e-06
3.55138e-06
3.55026e-06
3.54931e-06
3.54856e-06
3.54803e-06
3.5477e-06
3.54757e-06
3.54766e-06
3.54796e-06
3.54845e-06
3.54916e-06
3.55007e-06
3.55118e-06
3.55244e-06
3.55365e-06
3.55433e-06
3.5532e-06
3.55204e-06
3.55094e-06
3.54999e-06
3.54926e-06
3.54874e-06
3.54842e-06
3.54829e-06
3.54838e-06
3.54867e-06
3.54916e-06
3.54985e-06
3.55074e-06
3.55184e-06
3.55309e-06
3.55428e-06
3.5551e-06
3.55403e-06
3.55289e-06
3.55181e-06
3.55089e-06
3.55017e-06
3.54966e-06
3.54935e-06
3.54923e-06
3.54931e-06
3.54959e-06
3.55007e-06
3.55074e-06
3.55162e-06
3.55269e-06
3.55391e-06
3.55506e-06
3.55619e-06
3.55511e-06
3.55396e-06
3.55289e-06
3.55199e-06
3.55129e-06
3.55079e-06
3.55048e-06
3.55037e-06
3.55045e-06
3.55072e-06
3.55118e-06
3.55184e-06
3.55269e-06
3.55377e-06
3.55498e-06
3.55614e-06
3.55731e-06
3.55625e-06
3.55517e-06
3.55411e-06
3.55324e-06
3.55254e-06
3.55206e-06
3.55176e-06
3.55165e-06
3.55172e-06
3.55199e-06
3.55244e-06
3.55309e-06
3.55391e-06
3.55498e-06
3.55611e-06
3.55725e-06
3.5587e-06
3.5574e-06
3.55634e-06
3.55525e-06
3.55442e-06
3.55375e-06
3.5533e-06
3.55301e-06
3.5529e-06
3.55297e-06
3.55323e-06
3.55365e-06
3.55428e-06
3.55506e-06
3.55614e-06
3.55725e-06
3.55864e-06
3.5025e-06
3.50168e-06
3.50097e-06
3.50024e-06
3.49968e-06
3.49924e-06
3.49894e-06
3.49875e-06
3.49867e-06
3.49871e-06
3.49887e-06
3.49914e-06
3.49954e-06
3.50005e-06
3.50074e-06
3.50148e-06
3.50236e-06
3.50167e-06
3.50102e-06
3.50034e-06
3.49964e-06
3.49907e-06
3.49862e-06
3.49831e-06
3.49812e-06
3.49804e-06
3.49808e-06
3.49825e-06
3.49852e-06
3.49892e-06
3.49944e-06
3.50011e-06
3.50083e-06
3.50154e-06
3.50097e-06
3.50034e-06
3.49964e-06
3.49896e-06
3.49839e-06
3.49795e-06
3.49764e-06
3.49745e-06
3.49737e-06
3.49741e-06
3.49757e-06
3.49785e-06
3.49825e-06
3.49876e-06
3.49942e-06
3.50016e-06
3.50083e-06
3.50025e-06
3.49964e-06
3.49896e-06
3.49829e-06
3.49772e-06
3.49728e-06
3.49697e-06
3.49677e-06
3.49669e-06
3.49674e-06
3.4969e-06
3.49718e-06
3.49757e-06
3.49809e-06
3.49874e-06
3.49947e-06
3.50011e-06
3.49968e-06
3.49907e-06
3.49839e-06
3.49772e-06
3.49714e-06
3.4967e-06
3.49639e-06
3.49619e-06
3.49611e-06
3.49616e-06
3.49632e-06
3.4966e-06
3.497e-06
3.49752e-06
3.49817e-06
3.4989e-06
3.49955e-06
3.49924e-06
3.49862e-06
3.49795e-06
3.49728e-06
3.4967e-06
3.49626e-06
3.49594e-06
3.49574e-06
3.49566e-06
3.49571e-06
3.49588e-06
3.49616e-06
3.49656e-06
3.49709e-06
3.49774e-06
3.49846e-06
3.49911e-06
3.49894e-06
3.49831e-06
3.49764e-06
3.49697e-06
3.49639e-06
3.49594e-06
3.49562e-06
3.49542e-06
3.49534e-06
3.49539e-06
3.49555e-06
3.49584e-06
3.49625e-06
3.49678e-06
3.49743e-06
3.49815e-06
3.49881e-06
3.49875e-06
3.49812e-06
3.49745e-06
3.49677e-06
3.49619e-06
3.49574e-06
3.49542e-06
3.49522e-06
3.49514e-06
3.49519e-06
3.49535e-06
3.49564e-06
3.49605e-06
3.49658e-06
3.49723e-06
3.49796e-06
3.49862e-06
3.49867e-06
3.49804e-06
3.49737e-06
3.49669e-06
3.49611e-06
3.49566e-06
3.49534e-06
3.49514e-06
3.49506e-06
3.49511e-06
3.49528e-06
3.49557e-06
3.49597e-06
3.4965e-06
3.49716e-06
3.49788e-06
3.49854e-06
3.49871e-06
3.49808e-06
3.49741e-06
3.49674e-06
3.49616e-06
3.49571e-06
3.49539e-06
3.49519e-06
3.49511e-06
3.49515e-06
3.49532e-06
3.49561e-06
3.49602e-06
3.49655e-06
3.4972e-06
3.49792e-06
3.49858e-06
3.49887e-06
3.49825e-06
3.49757e-06
3.4969e-06
3.49632e-06
3.49588e-06
3.49555e-06
3.49535e-06
3.49528e-06
3.49532e-06
3.49549e-06
3.49578e-06
3.49618e-06
3.49671e-06
3.49736e-06
3.49808e-06
3.49874e-06
3.49914e-06
3.49852e-06
3.49785e-06
3.49718e-06
3.4966e-06
3.49616e-06
3.49584e-06
3.49564e-06
3.49557e-06
3.49561e-06
3.49578e-06
3.49606e-06
3.49646e-06
3.49699e-06
3.49764e-06
3.49836e-06
3.49901e-06
3.49954e-06
3.49892e-06
3.49825e-06
3.49757e-06
3.497e-06
3.49656e-06
3.49625e-06
3.49605e-06
3.49597e-06
3.49602e-06
3.49618e-06
3.49646e-06
3.49686e-06
3.49738e-06
3.49803e-06
3.49876e-06
3.49941e-06
3.50005e-06
3.49944e-06
3.49876e-06
3.49809e-06
3.49753e-06
3.49709e-06
3.49678e-06
3.49658e-06
3.4965e-06
3.49655e-06
3.49671e-06
3.49699e-06
3.49738e-06
3.4979e-06
3.49855e-06
3.49927e-06
3.49992e-06
3.50074e-06
3.50011e-06
3.49942e-06
3.49874e-06
3.49817e-06
3.49773e-06
3.49743e-06
3.49723e-06
3.49716e-06
3.4972e-06
3.49736e-06
3.49763e-06
3.49803e-06
3.49854e-06
3.4992e-06
3.49994e-06
3.50061e-06
3.50148e-06
3.50084e-06
3.50016e-06
3.49947e-06
3.4989e-06
3.49846e-06
3.49815e-06
3.49796e-06
3.49788e-06
3.49792e-06
3.49808e-06
3.49836e-06
3.49876e-06
3.49927e-06
3.49994e-06
3.50066e-06
3.50135e-06
3.50236e-06
3.50154e-06
3.50083e-06
3.50011e-06
3.49955e-06
3.49911e-06
3.49881e-06
3.49862e-06
3.49854e-06
3.49858e-06
3.49874e-06
3.49901e-06
3.49941e-06
3.49992e-06
3.50061e-06
3.50135e-06
3.50222e-06
3.46587e-06
3.46579e-06
3.46571e-06
3.46559e-06
3.4655e-06
3.4654e-06
3.46532e-06
3.46527e-06
3.46524e-06
3.46525e-06
3.46529e-06
3.46535e-06
3.46543e-06
3.46551e-06
3.4656e-06
3.46566e-06
3.46574e-06
3.46579e-06
3.46571e-06
3.4656e-06
3.46545e-06
3.46533e-06
3.4652e-06
3.46511e-06
3.46505e-06
3.46502e-06
3.46503e-06
3.46507e-06
3.46515e-06
3.46525e-06
3.46536e-06
3.46548e-06
3.46558e-06
3.46567e-06
3.46571e-06
3.4656e-06
3.46542e-06
3.46524e-06
3.46508e-06
3.46494e-06
3.46483e-06
3.46476e-06
3.46473e-06
3.46474e-06
3.46479e-06
3.46488e-06
3.46501e-06
3.46514e-06
3.4653e-06
3.46546e-06
3.46558e-06
3.46559e-06
3.46545e-06
3.46524e-06
3.46503e-06
3.46484e-06
3.46468e-06
3.46455e-06
3.46447e-06
3.46444e-06
3.46445e-06
3.46451e-06
3.46462e-06
3.46476e-06
3.46492e-06
3.46511e-06
3.46531e-06
3.46546e-06
3.4655e-06
3.46533e-06
3.46508e-06
3.46484e-06
3.46462e-06
3.46445e-06
3.46431e-06
3.46422e-06
3.46418e-06
3.4642e-06
3.46427e-06
3.46438e-06
3.46454e-06
3.46473e-06
3.46494e-06
3.46518e-06
3.46537e-06
3.4654e-06
3.4652e-06
3.46494e-06
3.46468e-06
3.46445e-06
3.46425e-06
3.46411e-06
3.46401e-06
3.46397e-06
3.46399e-06
3.46406e-06
3.46419e-06
3.46436e-06
3.46457e-06
3.4648e-06
3.46506e-06
3.46527e-06
3.46532e-06
3.46511e-06
3.46483e-06
3.46455e-06
3.46431e-06
3.46411e-06
3.46396e-06
3.46386e-06
3.46381e-06
3.46383e-06
3.46391e-06
3.46404e-06
3.46422e-06
3.46444e-06
3.46469e-06
3.46497e-06
3.4652e-06
3.46527e-06
3.46505e-06
3.46476e-06
3.46447e-06
3.46422e-06
3.46401e-06
3.46386e-06
3.46375e-06
3.46371e-06
3.46373e-06
3.46381e-06
3.46395e-06
3.46413e-06
3.46436e-06
3.46461e-06
3.4649e-06
3.46514e-06
3.46524e-06
3.46502e-06
3.46473e-06
3.46444e-06
3.46418e-06
3.46397e-06
3.46381e-06
3.46371e-06
3.46367e-06
3.46369e-06
3.46377e-06
3.46391e-06
3.46409e-06
3.46432e-06
3.46458e-06
3.46487e-06
3.46511e-06
3.46525e-06
3.46503e-06
3.46474e-06
3.46445e-06
3.4642e-06
3.46399e-06
3.46383e-06
3.46373e-06
3.46369e-06
3.46371e-06
3.46379e-06
3.46392e-06
3.46411e-06
3.46433e-06
3.46459e-06
3.46488e-06
3.46512e-06
3.46529e-06
3.46507e-06
3.46479e-06
3.46451e-06
3.46427e-06
3.46406e-06
3.46391e-06
3.46381e-06
3.46377e-06
3.46379e-06
3.46387e-06
3.464e-06
3.46418e-06
3.4644e-06
3.46465e-06
3.46493e-06
3.46516e-06
3.46535e-06
3.46515e-06
3.46488e-06
3.46462e-06
3.46438e-06
3.46419e-06
3.46404e-06
3.46395e-06
3.46391e-06
3.46392e-06
3.464e-06
3.46413e-06
3.4643e-06
3.46451e-06
3.46474e-06
3.465e-06
3.46522e-06
3.46543e-06
3.46525e-06
3.46501e-06
3.46476e-06
3.46454e-06
3.46436e-06
3.46422e-06
3.46413e-06
3.46409e-06
3.46411e-06
3.46418e-06
3.4643e-06
3.46446e-06
3.46465e-06
3.46487e-06
3.46511e-06
3.46531e-06
3.46551e-06
3.46536e-06
3.46515e-06
3.46492e-06
3.46473e-06
3.46457e-06
3.46444e-06
3.46436e-06
3.46432e-06
3.46433e-06
3.4644e-06
3.46451e-06
3.46465e-06
3.46482e-06
3.46501e-06
3.46522e-06
3.46538e-06
3.4656e-06
3.46548e-06
3.4653e-06
3.46511e-06
3.46494e-06
3.4648e-06
3.46469e-06
3.46461e-06
3.46458e-06
3.46459e-06
3.46465e-06
3.46474e-06
3.46487e-06
3.46501e-06
3.46517e-06
3.46534e-06
3.46548e-06
3.46566e-06
3.46558e-06
3.46546e-06
3.46531e-06
3.46518e-06
3.46506e-06
3.46497e-06
3.4649e-06
3.46487e-06
3.46488e-06
3.46493e-06
3.465e-06
3.46511e-06
3.46522e-06
3.46534e-06
3.46544e-06
3.46554e-06
3.46574e-06
3.46567e-06
3.46558e-06
3.46546e-06
3.46537e-06
3.46527e-06
3.4652e-06
3.46514e-06
3.46512e-06
3.46512e-06
3.46516e-06
3.46522e-06
3.46531e-06
3.46538e-06
3.46548e-06
3.46554e-06
3.46562e-06
3.42184e-06
3.42218e-06
3.42252e-06
3.42285e-06
3.42311e-06
3.42328e-06
3.4234e-06
3.42346e-06
3.42348e-06
3.42346e-06
3.4234e-06
3.42328e-06
3.42312e-06
3.42287e-06
3.42255e-06
3.42215e-06
3.42176e-06
3.42218e-06
3.42244e-06
3.42273e-06
3.42301e-06
3.42323e-06
3.42337e-06
3.42347e-06
3.42352e-06
3.42353e-06
3.42352e-06
3.42347e-06
3.42337e-06
3.42324e-06
3.42303e-06
3.42275e-06
3.42241e-06
3.4221e-06
3.42253e-06
3.42273e-06
3.42297e-06
3.4232e-06
3.42337e-06
3.42348e-06
3.42355e-06
3.42359e-06
3.4236e-06
3.42359e-06
3.42355e-06
3.42348e-06
3.42337e-06
3.42321e-06
3.42298e-06
3.4227e-06
3.42244e-06
3.42285e-06
3.42301e-06
3.4232e-06
3.42338e-06
3.42351e-06
3.42359e-06
3.42364e-06
3.42367e-06
3.42368e-06
3.42367e-06
3.42364e-06
3.42359e-06
3.42351e-06
3.42339e-06
3.4232e-06
3.42297e-06
3.42277e-06
3.42311e-06
3.42323e-06
3.42337e-06
3.42351e-06
3.42361e-06
3.42367e-06
3.4237e-06
3.42371e-06
3.42372e-06
3.42371e-06
3.42369e-06
3.42366e-06
3.4236e-06
3.42352e-06
3.42337e-06
3.42319e-06
3.42303e-06
3.42328e-06
3.42337e-06
3.42348e-06
3.42359e-06
3.42367e-06
3.4237e-06
3.42372e-06
3.42373e-06
3.42373e-06
3.42372e-06
3.42371e-06
3.42369e-06
3.42366e-06
3.42359e-06
3.42348e-06
3.42334e-06
3.4232e-06
3.4234e-06
3.42347e-06
3.42355e-06
3.42364e-06
3.4237e-06
3.42372e-06
3.42373e-06
3.42373e-06
3.42373e-06
3.42373e-06
3.42372e-06
3.42371e-06
3.42369e-06
3.42364e-06
3.42355e-06
3.42343e-06
3.42332e-06
3.42346e-06
3.42352e-06
3.42359e-06
3.42367e-06
3.42371e-06
3.42373e-06
3.42373e-06
3.42373e-06
3.42373e-06
3.42372e-06
3.42372e-06
3.42372e-06
3.4237e-06
3.42366e-06
3.42359e-06
3.42348e-06
3.42339e-06
3.42348e-06
3.42354e-06
3.42361e-06
3.42368e-06
3.42372e-06
3.42373e-06
3.42373e-06
3.42373e-06
3.42372e-06
3.42372e-06
3.42372e-06
3.42372e-06
3.4237e-06
3.42367e-06
3.4236e-06
3.4235e-06
3.42341e-06
3.42346e-06
3.42352e-06
3.42359e-06
3.42367e-06
3.42371e-06
3.42372e-06
3.42373e-06
3.42372e-06
3.42372e-06
3.42372e-06
3.42372e-06
3.42371e-06
3.4237e-06
3.42366e-06
3.42359e-06
3.42348e-06
3.42339e-06
3.4234e-06
3.42347e-06
3.42355e-06
3.42364e-06
3.42369e-06
3.42371e-06
3.42372e-06
3.42372e-06
3.42372e-06
3.42372e-06
3.42371e-06
3.4237e-06
3.42368e-06
3.42364e-06
3.42355e-06
3.42343e-06
3.42333e-06
3.42329e-06
3.42337e-06
3.42348e-06
3.42359e-06
3.42366e-06
3.42369e-06
3.42371e-06
3.42372e-06
3.42372e-06
3.42371e-06
3.4237e-06
3.42368e-06
3.42365e-06
3.42359e-06
3.42348e-06
3.42334e-06
3.42321e-06
3.42312e-06
3.42324e-06
3.42337e-06
3.42351e-06
3.42361e-06
3.42366e-06
3.42369e-06
3.4237e-06
3.4237e-06
3.4237e-06
3.42368e-06
3.42365e-06
3.4236e-06
3.42352e-06
3.42338e-06
3.4232e-06
3.42305e-06
3.42288e-06
3.42303e-06
3.42321e-06
3.42339e-06
3.42352e-06
3.4236e-06
3.42364e-06
3.42367e-06
3.42367e-06
3.42366e-06
3.42364e-06
3.42359e-06
3.42352e-06
3.4234e-06
3.42322e-06
3.423e-06
3.4228e-06
3.42255e-06
3.42275e-06
3.42298e-06
3.42321e-06
3.42338e-06
3.42348e-06
3.42355e-06
3.42359e-06
3.4236e-06
3.42359e-06
3.42355e-06
3.42348e-06
3.42338e-06
3.42322e-06
3.423e-06
3.42272e-06
3.42247e-06
3.42216e-06
3.42241e-06
3.4227e-06
3.42298e-06
3.42319e-06
3.42334e-06
3.42343e-06
3.42348e-06
3.4235e-06
3.42348e-06
3.42343e-06
3.42334e-06
3.4232e-06
3.423e-06
3.42272e-06
3.42238e-06
3.42207e-06
3.42176e-06
3.4221e-06
3.42245e-06
3.42277e-06
3.42303e-06
3.42321e-06
3.42332e-06
3.42339e-06
3.42341e-06
3.42339e-06
3.42333e-06
3.42321e-06
3.42305e-06
3.4228e-06
3.42247e-06
3.42207e-06
3.42168e-06
3.38009e-06
3.38062e-06
3.38111e-06
3.3816e-06
3.382e-06
3.38229e-06
3.38248e-06
3.3826e-06
3.38264e-06
3.38261e-06
3.3825e-06
3.3823e-06
3.38202e-06
3.38164e-06
3.38113e-06
3.38057e-06
3.37997e-06
3.38062e-06
3.38105e-06
3.3815e-06
3.38194e-06
3.38231e-06
3.38258e-06
3.38277e-06
3.38287e-06
3.38291e-06
3.38288e-06
3.38278e-06
3.3826e-06
3.38234e-06
3.38198e-06
3.38151e-06
3.38099e-06
3.38051e-06
3.38111e-06
3.3815e-06
3.38191e-06
3.38231e-06
3.38264e-06
3.38288e-06
3.38304e-06
3.38314e-06
3.38317e-06
3.38314e-06
3.38305e-06
3.38289e-06
3.38266e-06
3.38234e-06
3.38192e-06
3.38144e-06
3.381e-06
3.3816e-06
3.38194e-06
3.38231e-06
3.38266e-06
3.38295e-06
3.38317e-06
3.38331e-06
3.3834e-06
3.38342e-06
3.3834e-06
3.38332e-06
3.38317e-06
3.38297e-06
3.38268e-06
3.38231e-06
3.38188e-06
3.38149e-06
3.382e-06
3.38231e-06
3.38264e-06
3.38295e-06
3.38321e-06
3.3834e-06
3.38353e-06
3.38361e-06
3.38363e-06
3.38361e-06
3.38354e-06
3.38341e-06
3.38323e-06
3.38297e-06
3.38264e-06
3.38225e-06
3.38189e-06
3.38229e-06
3.38258e-06
3.38288e-06
3.38317e-06
3.3834e-06
3.38357e-06
3.38369e-06
3.38376e-06
3.38378e-06
3.38376e-06
3.38369e-06
3.38358e-06
3.38341e-06
3.38318e-06
3.38287e-06
3.38252e-06
3.38218e-06
3.38248e-06
3.38277e-06
3.38304e-06
3.38331e-06
3.38353e-06
3.38369e-06
3.3838e-06
3.38386e-06
3.38388e-06
3.38386e-06
3.3838e-06
3.38369e-06
3.38354e-06
3.38332e-06
3.38304e-06
3.3827e-06
3.38238e-06
3.3826e-06
3.38287e-06
3.38314e-06
3.3834e-06
3.38361e-06
3.38376e-06
3.38386e-06
3.38392e-06
3.38394e-06
3.38392e-06
3.38386e-06
3.38376e-06
3.38361e-06
3.38341e-06
3.38313e-06
3.38281e-06
3.3825e-06
3.38264e-06
3.38291e-06
3.38317e-06
3.38342e-06
3.38363e-06
3.38378e-06
3.38388e-06
3.38394e-06
3.38395e-06
3.38394e-06
3.38388e-06
3.38378e-06
3.38364e-06
3.38343e-06
3.38316e-06
3.38285e-06
3.38254e-06
3.38261e-06
3.38288e-06
3.38314e-06
3.3834e-06
3.38361e-06
3.38376e-06
3.38386e-06
3.38392e-06
3.38394e-06
3.38392e-06
3.38386e-06
3.38376e-06
3.38361e-06
3.38341e-06
3.38313e-06
3.38282e-06
3.3825e-06
3.3825e-06
3.38278e-06
3.38305e-06
3.38332e-06
3.38354e-06
3.38369e-06
3.3838e-06
3.38386e-06
3.38388e-06
3.38386e-06
3.3838e-06
3.3837e-06
3.38354e-06
3.38333e-06
3.38304e-06
3.38271e-06
3.38239e-06
3.3823e-06
3.3826e-06
3.38289e-06
3.38318e-06
3.38341e-06
3.38358e-06
3.38369e-06
3.38376e-06
3.38378e-06
3.38376e-06
3.3837e-06
3.38359e-06
3.38342e-06
3.38319e-06
3.38289e-06
3.38253e-06
3.3822e-06
3.38202e-06
3.38234e-06
3.38266e-06
3.38297e-06
3.38323e-06
3.38341e-06
3.38354e-06
3.38361e-06
3.38364e-06
3.38361e-06
3.38354e-06
3.38342e-06
3.38324e-06
3.38299e-06
3.38266e-06
3.38227e-06
3.38192e-06
3.38164e-06
3.38198e-06
3.38234e-06
3.38268e-06
3.38297e-06
3.38318e-06
3.38332e-06
3.38341e-06
3.38344e-06
3.38341e-06
3.38333e-06
3.38319e-06
3.38299e-06
3.38271e-06
3.38234e-06
3.38192e-06
3.38154e-06
3.38113e-06
3.38151e-06
3.38192e-06
3.38231e-06
3.38264e-06
3.38287e-06
3.38304e-06
3.38313e-06
3.38316e-06
3.38314e-06
3.38304e-06
3.38289e-06
3.38266e-06
3.38234e-06
3.38193e-06
3.38146e-06
3.38103e-06
3.38057e-06
3.38099e-06
3.38144e-06
3.38188e-06
3.38225e-06
3.38252e-06
3.3827e-06
3.38281e-06
3.38285e-06
3.38282e-06
3.38271e-06
3.38253e-06
3.38228e-06
3.38192e-06
3.38146e-06
3.38094e-06
3.38047e-06
3.37998e-06
3.38051e-06
3.38101e-06
3.38149e-06
3.38189e-06
3.38218e-06
3.38238e-06
3.3825e-06
3.38254e-06
3.38251e-06
3.38239e-06
3.3822e-06
3.38192e-06
3.38154e-06
3.38103e-06
3.38047e-06
3.37987e-06
3.3399e-06
3.34052e-06
3.34109e-06
3.34168e-06
3.34217e-06
3.34254e-06
3.34279e-06
3.34294e-06
3.34299e-06
3.34295e-06
3.34281e-06
3.34257e-06
3.34222e-06
3.34175e-06
3.34113e-06
3.34048e-06
3.33979e-06
3.34052e-06
3.34103e-06
3.34156e-06
3.34211e-06
3.34258e-06
3.34293e-06
3.34317e-06
3.34331e-06
3.34336e-06
3.34332e-06
3.34319e-06
3.34295e-06
3.34262e-06
3.34217e-06
3.3416e-06
3.34098e-06
3.34041e-06
3.34109e-06
3.34156e-06
3.34207e-06
3.34258e-06
3.34301e-06
3.34333e-06
3.34356e-06
3.34369e-06
3.34374e-06
3.3437e-06
3.34357e-06
3.34336e-06
3.34305e-06
3.34263e-06
3.3421e-06
3.34151e-06
3.34099e-06
3.34169e-06
3.34211e-06
3.34258e-06
3.34304e-06
3.34344e-06
3.34374e-06
3.34394e-06
3.34407e-06
3.34411e-06
3.34407e-06
3.34396e-06
3.34376e-06
3.34348e-06
3.34309e-06
3.3426e-06
3.34206e-06
3.34158e-06
3.34217e-06
3.34258e-06
3.34301e-06
3.34344e-06
3.34381e-06
3.34408e-06
3.34427e-06
3.34439e-06
3.34443e-06
3.34439e-06
3.34429e-06
3.3441e-06
3.34384e-06
3.34348e-06
3.34303e-06
3.34252e-06
3.34207e-06
3.34254e-06
3.34293e-06
3.34333e-06
3.34374e-06
3.34408e-06
3.34434e-06
3.34452e-06
3.34463e-06
3.34466e-06
3.34463e-06
3.34453e-06
3.34436e-06
3.34411e-06
3.34378e-06
3.34335e-06
3.34287e-06
3.34243e-06
3.34279e-06
3.34317e-06
3.34356e-06
3.34394e-06
3.34427e-06
3.34452e-06
3.34469e-06
3.34479e-06
3.34483e-06
3.3448e-06
3.3447e-06
3.34454e-06
3.3443e-06
3.34398e-06
3.34357e-06
3.34311e-06
3.34269e-06
3.34294e-06
3.34331e-06
3.34369e-06
3.34407e-06
3.34439e-06
3.34463e-06
3.34479e-06
3.34489e-06
3.34492e-06
3.3449e-06
3.3448e-06
3.34464e-06
3.34441e-06
3.3441e-06
3.34371e-06
3.34326e-06
3.34284e-06
3.34299e-06
3.34337e-06
3.34374e-06
3.34411e-06
3.34443e-06
3.34466e-06
3.34483e-06
3.34492e-06
3.34496e-06
3.34493e-06
3.34484e-06
3.34468e-06
3.34445e-06
3.34415e-06
3.34375e-06
3.34331e-06
3.34289e-06
3.34295e-06
3.34332e-06
3.3437e-06
3.34407e-06
3.34439e-06
3.34463e-06
3.3448e-06
3.3449e-06
3.34493e-06
3.3449e-06
3.34481e-06
3.34465e-06
3.34442e-06
3.34411e-06
3.34371e-06
3.34327e-06
3.34285e-06
3.34281e-06
3.34319e-06
3.34357e-06
3.34396e-06
3.34429e-06
3.34453e-06
3.3447e-06
3.3448e-06
3.34484e-06
3.34481e-06
3.34471e-06
3.34455e-06
3.34432e-06
3.344e-06
3.34359e-06
3.34313e-06
3.34271e-06
3.34257e-06
3.34296e-06
3.34336e-06
3.34376e-06
3.3441e-06
3.34436e-06
3.34454e-06
3.34465e-06
3.34468e-06
3.34465e-06
3.34455e-06
3.34438e-06
3.34414e-06
3.3438e-06
3.34338e-06
3.3429e-06
3.34246e-06
3.34222e-06
3.34262e-06
3.34305e-06
3.34348e-06
3.34384e-06
3.34411e-06
3.3443e-06
3.34442e-06
3.34446e-06
3.34442e-06
3.34432e-06
3.34414e-06
3.34387e-06
3.34352e-06
3.34307e-06
3.34257e-06
3.34212e-06
3.34175e-06
3.34218e-06
3.34263e-06
3.34309e-06
3.34349e-06
3.34378e-06
3.34398e-06
3.34411e-06
3.34415e-06
3.34411e-06
3.344e-06
3.3438e-06
3.34352e-06
3.34314e-06
3.34266e-06
3.34212e-06
3.34165e-06
3.34113e-06
3.3416e-06
3.3421e-06
3.34261e-06
3.34303e-06
3.34335e-06
3.34357e-06
3.34371e-06
3.34375e-06
3.34372e-06
3.34359e-06
3.34338e-06
3.34307e-06
3.34266e-06
3.34214e-06
3.34155e-06
3.34103e-06
3.34048e-06
3.34098e-06
3.34152e-06
3.34206e-06
3.34252e-06
3.34287e-06
3.34312e-06
3.34326e-06
3.34331e-06
3.34327e-06
3.34313e-06
3.3429e-06
3.34257e-06
3.34212e-06
3.34155e-06
3.34094e-06
3.34038e-06
3.33979e-06
3.34042e-06
3.34099e-06
3.34158e-06
3.34207e-06
3.34244e-06
3.34269e-06
3.34284e-06
3.34289e-06
3.34285e-06
3.34271e-06
3.34247e-06
3.34212e-06
3.34165e-06
3.34103e-06
3.34038e-06
3.33969e-06
3.30082e-06
3.30143e-06
3.302e-06
3.3026e-06
3.3031e-06
3.30348e-06
3.30374e-06
3.3039e-06
3.30396e-06
3.30391e-06
3.30376e-06
3.30351e-06
3.30314e-06
3.30267e-06
3.30204e-06
3.30139e-06
3.30071e-06
3.30143e-06
3.30193e-06
3.30247e-06
3.30303e-06
3.30351e-06
3.30388e-06
3.30414e-06
3.3043e-06
3.30436e-06
3.30431e-06
3.30417e-06
3.30392e-06
3.30356e-06
3.3031e-06
3.30251e-06
3.30189e-06
3.30132e-06
3.302e-06
3.30247e-06
3.30299e-06
3.30352e-06
3.30397e-06
3.30432e-06
3.30456e-06
3.30471e-06
3.30476e-06
3.30472e-06
3.30458e-06
3.30435e-06
3.30402e-06
3.30358e-06
3.30302e-06
3.30242e-06
3.30189e-06
3.3026e-06
3.30303e-06
3.30352e-06
3.30401e-06
3.30444e-06
3.30476e-06
3.30499e-06
3.30513e-06
3.30518e-06
3.30514e-06
3.30501e-06
3.30479e-06
3.30448e-06
3.30407e-06
3.30355e-06
3.30298e-06
3.30249e-06
3.3031e-06
3.30351e-06
3.30397e-06
3.30444e-06
3.30484e-06
3.30515e-06
3.30536e-06
3.3055e-06
3.30554e-06
3.30551e-06
3.30538e-06
3.30518e-06
3.30488e-06
3.30449e-06
3.304e-06
3.30346e-06
3.30299e-06
3.30348e-06
3.30388e-06
3.30432e-06
3.30476e-06
3.30515e-06
3.30544e-06
3.30565e-06
3.30577e-06
3.30582e-06
3.30578e-06
3.30567e-06
3.30547e-06
3.30519e-06
3.30481e-06
3.30435e-06
3.30383e-06
3.30337e-06
3.30374e-06
3.30414e-06
3.30456e-06
3.30499e-06
3.30536e-06
3.30565e-06
3.30585e-06
3.30597e-06
3.30601e-06
3.30598e-06
3.30587e-06
3.30568e-06
3.3054e-06
3.30504e-06
3.30459e-06
3.30409e-06
3.30364e-06
3.3039e-06
3.3043e-06
3.30471e-06
3.30513e-06
3.3055e-06
3.30577e-06
3.30597e-06
3.30609e-06
3.30613e-06
3.30609e-06
3.30599e-06
3.3058e-06
3.30553e-06
3.30518e-06
3.30474e-06
3.30425e-06
3.3038e-06
3.30396e-06
3.30436e-06
3.30476e-06
3.30518e-06
3.30554e-06
3.30582e-06
3.30601e-06
3.30613e-06
3.30617e-06
3.30614e-06
3.30603e-06
3.30584e-06
3.30558e-06
3.30523e-06
3.30479e-06
3.30431e-06
3.30386e-06
3.30391e-06
3.30431e-06
3.30472e-06
3.30514e-06
3.30551e-06
3.30578e-06
3.30598e-06
3.30609e-06
3.30614e-06
3.3061e-06
3.30599e-06
3.30581e-06
3.30554e-06
3.30519e-06
3.30475e-06
3.30426e-06
3.30381e-06
3.30376e-06
3.30417e-06
3.30459e-06
3.30501e-06
3.30538e-06
3.30567e-06
3.30587e-06
3.30599e-06
3.30603e-06
3.30599e-06
3.30588e-06
3.30569e-06
3.30542e-06
3.30506e-06
3.30461e-06
3.30412e-06
3.30366e-06
3.30351e-06
3.30392e-06
3.30435e-06
3.30479e-06
3.30518e-06
3.30547e-06
3.30568e-06
3.3058e-06
3.30584e-06
3.30581e-06
3.30569e-06
3.3055e-06
3.30522e-06
3.30485e-06
3.30438e-06
3.30387e-06
3.30341e-06
3.30315e-06
3.30356e-06
3.30402e-06
3.30448e-06
3.30488e-06
3.30519e-06
3.3054e-06
3.30553e-06
3.30558e-06
3.30554e-06
3.30542e-06
3.30522e-06
3.30493e-06
3.30454e-06
3.30405e-06
3.30351e-06
3.30304e-06
3.30267e-06
3.3031e-06
3.30358e-06
3.30407e-06
3.30449e-06
3.30482e-06
3.30504e-06
3.30518e-06
3.30523e-06
3.30519e-06
3.30506e-06
3.30485e-06
3.30454e-06
3.30413e-06
3.30361e-06
3.30305e-06
3.30256e-06
3.30204e-06
3.30251e-06
3.30302e-06
3.30355e-06
3.304e-06
3.30435e-06
3.30459e-06
3.30474e-06
3.30479e-06
3.30475e-06
3.30461e-06
3.30438e-06
3.30405e-06
3.30361e-06
3.30306e-06
3.30246e-06
3.30193e-06
3.30139e-06
3.30189e-06
3.30242e-06
3.30298e-06
3.30346e-06
3.30383e-06
3.30409e-06
3.30425e-06
3.30431e-06
3.30426e-06
3.30412e-06
3.30387e-06
3.30351e-06
3.30305e-06
3.30246e-06
3.30184e-06
3.30129e-06
3.30072e-06
3.30133e-06
3.30189e-06
3.30249e-06
3.30299e-06
3.30338e-06
3.30364e-06
3.3038e-06
3.30386e-06
3.30382e-06
3.30367e-06
3.30341e-06
3.30304e-06
3.30256e-06
3.30193e-06
3.30129e-06
3.30061e-06
3.26286e-06
3.2634e-06
3.2639e-06
3.26445e-06
3.26491e-06
3.26527e-06
3.26552e-06
3.26568e-06
3.26573e-06
3.26569e-06
3.26555e-06
3.26531e-06
3.26496e-06
3.26452e-06
3.26393e-06
3.26335e-06
3.26275e-06
3.2634e-06
3.26385e-06
3.26433e-06
3.26485e-06
3.2653e-06
3.26565e-06
3.2659e-06
3.26605e-06
3.26611e-06
3.26606e-06
3.26592e-06
3.26569e-06
3.26535e-06
3.26491e-06
3.26436e-06
3.2638e-06
3.26329e-06
3.2639e-06
3.26433e-06
3.2648e-06
3.2653e-06
3.26573e-06
3.26606e-06
3.2663e-06
3.26645e-06
3.2665e-06
3.26646e-06
3.26632e-06
3.2661e-06
3.26577e-06
3.26535e-06
3.26483e-06
3.26428e-06
3.2638e-06
3.26445e-06
3.26485e-06
3.2653e-06
3.26576e-06
3.26617e-06
3.26649e-06
3.26672e-06
3.26686e-06
3.26691e-06
3.26687e-06
3.26674e-06
3.26652e-06
3.26622e-06
3.26582e-06
3.26532e-06
3.2648e-06
3.26435e-06
3.26491e-06
3.2653e-06
3.26573e-06
3.26617e-06
3.26657e-06
3.26687e-06
3.26709e-06
3.26722e-06
3.26726e-06
3.26723e-06
3.26711e-06
3.2669e-06
3.26661e-06
3.26623e-06
3.26576e-06
3.26525e-06
3.26481e-06
3.26527e-06
3.26565e-06
3.26606e-06
3.26649e-06
3.26687e-06
3.26716e-06
3.26737e-06
3.26749e-06
3.26754e-06
3.26751e-06
3.26739e-06
3.26719e-06
3.26691e-06
3.26654e-06
3.26609e-06
3.2656e-06
3.26517e-06
3.26552e-06
3.2659e-06
3.2663e-06
3.26672e-06
3.26709e-06
3.26737e-06
3.26757e-06
3.26769e-06
3.26774e-06
3.2677e-06
3.26759e-06
3.2674e-06
3.26712e-06
3.26677e-06
3.26633e-06
3.26585e-06
3.26542e-06
3.26568e-06
3.26605e-06
3.26645e-06
3.26686e-06
3.26722e-06
3.2675e-06
3.26769e-06
3.26781e-06
3.26786e-06
3.26782e-06
3.26771e-06
3.26752e-06
3.26726e-06
3.2669e-06
3.26647e-06
3.266e-06
3.26558e-06
3.26573e-06
3.26611e-06
3.2665e-06
3.26691e-06
3.26726e-06
3.26754e-06
3.26774e-06
3.26786e-06
3.2679e-06
3.26787e-06
3.26776e-06
3.26757e-06
3.2673e-06
3.26695e-06
3.26652e-06
3.26605e-06
3.26563e-06
3.26569e-06
3.26606e-06
3.26646e-06
3.26687e-06
3.26723e-06
3.26751e-06
3.2677e-06
3.26782e-06
3.26787e-06
3.26783e-06
3.26772e-06
3.26753e-06
3.26727e-06
3.26692e-06
3.26648e-06
3.26601e-06
3.26559e-06
3.26555e-06
3.26592e-06
3.26632e-06
3.26674e-06
3.26711e-06
3.26739e-06
3.26759e-06
3.26771e-06
3.26776e-06
3.26772e-06
3.26761e-06
3.26742e-06
3.26715e-06
3.26679e-06
3.26635e-06
3.26587e-06
3.26545e-06
3.26531e-06
3.26569e-06
3.2661e-06
3.26652e-06
3.2669e-06
3.26719e-06
3.2674e-06
3.26752e-06
3.26757e-06
3.26753e-06
3.26742e-06
3.26722e-06
3.26694e-06
3.26658e-06
3.26612e-06
3.26563e-06
3.26521e-06
3.26496e-06
3.26535e-06
3.26578e-06
3.26622e-06
3.26661e-06
3.26691e-06
3.26713e-06
3.26726e-06
3.2673e-06
3.26727e-06
3.26715e-06
3.26694e-06
3.26665e-06
3.26627e-06
3.2658e-06
3.26529e-06
3.26486e-06
3.26452e-06
3.26491e-06
3.26536e-06
3.26582e-06
3.26623e-06
3.26654e-06
3.26677e-06
3.26691e-06
3.26696e-06
3.26692e-06
3.26679e-06
3.26658e-06
3.26627e-06
3.26587e-06
3.26538e-06
3.26486e-06
3.26441e-06
3.26394e-06
3.26436e-06
3.26483e-06
3.26533e-06
3.26576e-06
3.26609e-06
3.26633e-06
3.26647e-06
3.26652e-06
3.26648e-06
3.26635e-06
3.26612e-06
3.2658e-06
3.26538e-06
3.26486e-06
3.26431e-06
3.26383e-06
3.26335e-06
3.2638e-06
3.26428e-06
3.2648e-06
3.26525e-06
3.2656e-06
3.26585e-06
3.266e-06
3.26606e-06
3.26601e-06
3.26587e-06
3.26563e-06
3.2653e-06
3.26486e-06
3.26431e-06
3.26375e-06
3.26325e-06
3.26275e-06
3.26329e-06
3.2638e-06
3.26435e-06
3.26481e-06
3.26517e-06
3.26543e-06
3.26558e-06
3.26563e-06
3.26559e-06
3.26545e-06
3.26521e-06
3.26486e-06
3.26441e-06
3.26383e-06
3.26325e-06
3.26264e-06
3.22575e-06
3.2262e-06
3.22663e-06
3.2271e-06
3.22751e-06
3.22783e-06
3.22805e-06
3.22819e-06
3.22824e-06
3.2282e-06
3.22807e-06
3.22786e-06
3.22755e-06
3.22716e-06
3.22665e-06
3.22616e-06
3.22565e-06
3.2262e-06
3.22658e-06
3.22699e-06
3.22744e-06
3.22784e-06
3.22815e-06
3.22838e-06
3.22851e-06
3.22856e-06
3.22852e-06
3.2284e-06
3.22818e-06
3.22788e-06
3.22749e-06
3.22701e-06
3.22653e-06
3.2261e-06
3.22663e-06
3.22699e-06
3.2274e-06
3.22783e-06
3.22821e-06
3.22851e-06
3.22873e-06
3.22886e-06
3.22891e-06
3.22887e-06
3.22875e-06
3.22855e-06
3.22826e-06
3.22788e-06
3.22742e-06
3.22694e-06
3.22653e-06
3.2271e-06
3.22744e-06
3.22783e-06
3.22824e-06
3.22861e-06
3.2289e-06
3.22911e-06
3.22923e-06
3.22928e-06
3.22924e-06
3.22913e-06
3.22893e-06
3.22865e-06
3.22829e-06
3.22785e-06
3.22739e-06
3.22701e-06
3.22751e-06
3.22784e-06
3.22821e-06
3.22861e-06
3.22896e-06
3.22924e-06
3.22944e-06
3.22956e-06
3.22961e-06
3.22957e-06
3.22946e-06
3.22927e-06
3.229e-06
3.22866e-06
3.22824e-06
3.22779e-06
3.22741e-06
3.22783e-06
3.22815e-06
3.22851e-06
3.2289e-06
3.22924e-06
3.22951e-06
3.2297e-06
3.22982e-06
3.22986e-06
3.22983e-06
3.22972e-06
3.22954e-06
3.22928e-06
3.22894e-06
3.22854e-06
3.2281e-06
3.22773e-06
3.22805e-06
3.22838e-06
3.22873e-06
3.22911e-06
3.22944e-06
3.2297e-06
3.22989e-06
3.23e-06
3.23005e-06
3.23001e-06
3.22991e-06
3.22973e-06
3.22948e-06
3.22915e-06
3.22875e-06
3.22833e-06
3.22796e-06
3.22819e-06
3.22851e-06
3.22886e-06
3.22923e-06
3.22956e-06
3.22982e-06
3.23e-06
3.23012e-06
3.23016e-06
3.23013e-06
3.23002e-06
3.22985e-06
3.2296e-06
3.22928e-06
3.22888e-06
3.22846e-06
3.22809e-06
3.22824e-06
3.22856e-06
3.22891e-06
3.22928e-06
3.22961e-06
3.22986e-06
3.23005e-06
3.23016e-06
3.2302e-06
3.23017e-06
3.23006e-06
3.22989e-06
3.22964e-06
3.22932e-06
3.22893e-06
3.22851e-06
3.22814e-06
3.2282e-06