/*--------------------------------*- C++ -*----------------------------------*\
  =========                 |
  \\      /  F ield         | OpenFOAM: The Open Source CFD Toolbox
   \\    /   O peration     | Website:  https://openfoam.org
    \\  /    A nd           | Version:  6
     \\/     M anipulation  |
\*---------------------------------------------------------------------------*/
FoamFile
{
    version     2.0;
    format      ascii;
    class       volScalarField;
    location    "0";
    object      P_rec;
}
// * * * * * * * * * * * * * * * * * * * * * * * * * * * * * * * * * * * * * //

dimensions      [0 2 -2 0 0 0 0];

internalField   nonuniform List<scalar> 
13046
(
0.692169
0.701212
0.792589
0.700531
0.772336
0.733968
0.67709
0.735032
0.783976
0.319146
0.590237
0.788549
0.654611
0.701125
0.79036
0.392075
0.800317
0.572674
0.756936
0.759591
0.70567
0.381519
0.798839
0.578362
0.707704
0.728768
0.775553
0.640784
0.687489
0.798608
0.697305
0.692318
0.788769
0.724618
0.771892
0.725597
0.724113
0.771067
0.735819
0.720856
0.789307
0.65288
0.732269
0.75634
0.745289
0.724827
0.749271
0.756867
0.675258
0.705455
0.792634
0.780089
0.737434
0.59668
0.781022
0.572487
0.746633
0.582426
0.560656
0.809959
0.565838
0.718215
0.787484
0.79363
0.635528
0.439612
0.58641
0.579429
0.807747
0.606366
0.585503
0.806591
0.572117
0.540475
0.809006
0.752928
0.77057
0.690412
0.809903
0.497177
0.570454
0.695344
0.73149
0.777115
0.792348
0.624672
0.413003
0.420801
0.784311
0.672693
0.767845
0.382893
0.697564
0.562723
0.537869
0.66945
0.666096
0.796178
0.799215
0.782453
0.428549
0.683834
0.716641
0.756599
0.752374
0.764744
0.593811
0.771442
0.732905
0.78672
0.617589
0.216351
0.781674
0.552376
0.668603
0.710972
0.785001
0.536542
0.55924
0.639489
0.801169
0.654092
0.800033
0.297127
0.57748
0.788963
0.607371
0.672276
0.801604
0.709011
0.79117
0.657578
0.764497
0.406209
0.708412
0.493903
0.668252
0.793077
0.684811
0.687845
0.78869
0.626344
0.747834
0.776733
0.737853
0.781989
0.609852
0.763526
0.613746
0.772734
0.555148
0.705655
0.787685
0.77796
0.649089
0.757811
0.763837
0.548724
0.754092
0.536643
0.761691
0.766928
0.623067
0.750855
0.769451
0.317734
0.784867
0.603359
0.248196
0.78463
0.559856
0.48129
0.655762
0.796379
0.69649
0.62519
0.798278
0.632554
0.76424
0.758543
0.785053
0.627895
0.334997
0.706154
0.636365
0.793573
0.773671
0.6346
0.760222
0.642706
0.749452
0.772802
0.699141
0.796028
0.621773
0.685675
0.795773
0.400847
0.786379
0.647418
0.774536
0.432046
0.701861
0.383316
0.681396
0.769869
0.78613
0.563555
0.723966
0.646461
0.504856
0.811974
0.562761
0.666392
0.364859
0.775381
0.712124
0.769663
0.743788
0.656989
0.685073
0.798658
0.771041
0.42596
0.709106
0.632994
0.707497
0.795967
0.781185
0.588682
0.263383
0.731612
0.55524
0.781197
0.410752
0.68818
0.774256
0.574115
0.751138
0.772023
0.605375
0.661057
0.80312
0.737839
0.458943
0.758351
0.514564
0.752316
0.761307
0.777087
0.59356
0.24441
0.728515
0.792975
0.614235
0.232999
0.786615
0.520272
0.758624
0.70587
0.755042
0.578227
0.588288
0.742632
0.750042
0.777922
0.773732
0.806029
0.469723
0.571844
0.629385
0.666204
0.799044
0.498196
0.740794
0.768568
0.512673
0.65234
0.797243
0.741117
0.734582
0.76086
0.551019
0.747667
0.770748
0.627451
0.652857
0.801971
0.633897
0.619146
0.727169
0.791969
0.602585
0.538591
0.737398
0.77395
0.486943
0.796078
0.650501
0.745518
0.781198
0.630868
0.757363
0.537171
0.764403
0.568683
0.629615
0.802172
0.731157
0.784879
0.596555
0.547258
0.531968
0.621841
0.802477
0.624054
0.804634
0.786095
0.629475
0.353669
0.579316
0.652805
0.802263
0.515077
0.778637
0.160898
0.680052
0.758882
0.757593
0.586244
0.720355
0.787193
0.789556
0.430957
0.652514
0.781015
0.554027
0.743589
0.726133
0.447026
0.763798
0.722226
0.789096
0.575355
0.698622
0.792798
0.724419
0.786388
0.419887
0.80061
0.582223
0.791251
0.55431
0.717247
0.556102
0.696271
0.791424
0.615069
0.74521
0.77999
0.600956
0.772788
0.755098
0.690573
0.717715
0.784624
0.745425
0.547585
0.771429
0.391589
0.659995
0.780421
0.723305
0.44896
0.768129
0.635074
0.803866
0.587835
0.515278
0.537736
0.603559
0.597301
0.803636
0.804237
0.780756
0.519614
0.18303
0.252843
0.789383
0.525437
0.563178
0.739375
0.771898
0.786619
0.38545
0.635239
0.599389
0.581519
0.604827
0.610016
0.806984
0.806744
0.765823
0.658519
0.312386
0.21643
0.787581
0.500452
0.71401
0.747782
0.763923
0.210019
0.531738
0.78353
0.67843
0.63689
0.798484
0.343424
0.63769
0.782893
0.532462
0.771778
0.107333
0.730022
0.785975
0.661654
0.687647
0.759607
0.764325
0.306031
0.791859
0.566108
0.674657
0.759934
0.765088
0.722226
0.748848
0.760589
0.739944
0.534351
0.78122
0.6764
0.776038
0.750665
0.686026
0.762894
0.75293
0.654537
0.585842
0.802267
0.796396
0.794531
0.591831
0.597286
0.360201
0.353162
0.366146
0.657034
0.777657
0.808238
0.622895
0.575146
0.716147
0.790868
0.632893
0.509443
0.755944
0.751966
0.581396
0.766517
0.157279
0.77038
0.371298
0.685659
0.265219
0.785038
0.574084
0.772029
0.516604
0.0952092
0.490941
0.77618
0.123977
0.721339
0.519102
0.777064
0.632003
0.763252
0.24576
0.476751
0.672324
0.790791
0.355076
0.799937
0.541272
0.662258
0.784578
0.723285
0.667768
0.767929
0.3332
0.519808
0.748521
0.761792
0.732681
0.495005
0.774523
0.772044
0.447946
0.0249685
0.533566
0.77606
0.144697
0.680046
0.783414
0.725049
0.646558
0.307945
0.770074
0.765016
0.289211
0.654282
0.391031
0.789506
0.625304
0.804056
0.588243
0.458018
0.669048
0.570948
0.80493
0.595212
0.56017
0.809292
0.805845
0.428032
0.559829
0.660357
0.645863
0.654842
0.647156
0.799569
0.800552
0.675142
0.649163
0.798196
0.612138
0.591233
0.809834
0.726508
0.470305
0.769032
0.657017
0.361564
0.7808
0.773305
0.458677
0.709897
0.494173
0.778282
0.147633
0.719678
0.710937
0.790087
0.673242
0.790313
0.684451
0.644508
0.655575
0.803136
0.608224
0.805202
0.613798
0.549821
0.766889
0.115085
0.647703
0.32763
0.773027
0.708607
0.790927
0.605165
0.744298
0.478859
0.758701
0.805008
0.58804
0.475913
0.565447
0.199035
0.776989
0.581253
0.213691
0.775413
0.585074
0.620568
0.807331
0.753695
0.775592
0.640092
0.367686
0.789644
0.61413
0.719844
0.497377
0.781478
0.798589
0.633811
0.465812
0.670121
0.803777
0.605922
0.585472
0.760154
0.763762
0.72597
0.789101
0.63899
0.787262
0.617222
0.345405
0.511497
0.638838
0.800721
0.730592
0.784922
0.671979
0.400355
0.804734
0.549449
0.677015
0.673018
0.796144
0.65582
0.749979
0.777052
0.73519
0.512156
0.772689
0.290828
0.794927
0.529585
0.309403
0.797518
0.527498
0.800788
0.622363
0.46393
0.572014
0.767612
0.756952
0.793235
0.51496
0.261743
0.788769
0.665956
0.451015
0.768721
0.508742
0.0699221
0.103363
0.464589
0.777682
0.805085
0.573621
0.43486
0.782601
0.604278
0.295104
0.389231
0.412509
0.794443
0.597237
0.795761
0.608968
0.447155
0.675488
0.78569
0.760951
0.753215
0.483649
0.71756
0.780611
0.704589
0.464431
0.695869
0.782801
0.78093
0.475075
0.706514
0.448573
0.806975
0.557955
0.634957
0.595847
0.807064
0.663258
0.631458
0.798062
0.522172
0.704738
0.789779
0.509669
0.706221
0.786361
0.737654
0.776656
0.687782
0.640822
0.632146
0.80471
0.764228
0.676254
0.337694
0.204469
0.770724
0.594084
0.18242
0.767207
0.596372
0.701296
0.795433
0.646972
0.55841
0.773194
0.167266
0.488425
0.801314
0.624153
0.769881
0.565971
0.147217
0.706594
0.768404
0.743406
0.611503
0.694783
0.793121
0.771839
0.583028
0.752823
0.765108
0.638279
0.271114
0.723596
0.50064
0.778068
0.80139
0.381141
0.55387
0.585331
0.68882
0.799384
0.723338
0.779613
0.710365
0.630816
0.284432
0.772784
0.794575
0.646705
0.446668
0.284219
0.263125
0.789475
0.787825
0.553353
0.54593
0.595629
0.736429
0.782474
0.727587
0.536273
0.774564
0.664442
0.738861
0.784033
0.609775
0.23291
0.616987
0.771003
0.230177
0.767265
0.540311
0.676412
0.798187
0.278967
0.253211
0.619206
0.610429
0.775781
0.773057
0.54348
0.733391
0.783629
0.618111
0.717423
0.788283
0.336068
0.799329
0.543185
0.601673
0.726221
0.785277
0.653578
0.736183
0.779922
0.292876
0.793403
0.544476
0.583694
0.679406
0.795216
0.769014
0.512492
0.745078
0.672044
0.594279
0.80231
0.717933
0.759324
0.417603
0.772843
0.46622
0.0511735
0.590372
0.713316
0.789767
0.356249
0.795475
0.569693
0.798772
0.561948
0.694737
0.15807
0.783224
0.484471
0.759834
0.752723
0.769192
0.643285
0.774037
0.634954
0.669206
0.747649
0.774663
0.740213
0.751465
0.779057
0.656742
0.778115
0.649249
0.605955
0.7219
0.790987
0.619055
0.728369
0.788106
0.764371
0.609276
0.198558
0.689504
0.657879
0.793652
0.301243
0.617761
0.780959
0.511009
0.489105
0.692902
0.685701
0.788092
0.786378
0.688887
0.671091
0.794101
0.615411
0.619953
0.804343
0.548557
0.69542
0.794959
0.733547
0.719912
0.768532
0.484054
0.695977
0.784842
0.719295
0.779928
0.700382
0.554053
0.723917
0.786118
0.615659
0.634275
0.803426
0.729416
0.735168
0.707993
0.778095
0.701819
0.777413
0.743707
0.770905
0.753558
0.685286
0.778554
0.659634
0.662999
0.650547
0.665437
0.67503
0.798554
0.796741
0.802062
0.601921
0.463359
0.741247
0.534373
0.773492
0.802765
0.800413
0.596245
0.608981
0.438978
0.436367
0.724228
0.790263
0.578533
0.737598
0.761177
0.735365
0.47485
0.685233
0.787184
0.711015
0.789395
0.667004
0.602489
0.636121
0.803921
0.503927
0.50859
0.599875
0.806509
0.612968
0.803916
0.517095
0.67783
0.792543
0.181752
0.502229
0.784086
0.794623
0.567693
0.704817
0.683324
0.689964
0.800223
0.575222
0.801821
0.579687
0.474696
0.718629
0.774489
0.630421
0.618402
0.804873
0.714885
0.791598
0.587153
0.692086
0.690162
0.796259
0.801758
0.607393
0.60865
0.683433
0.801477
0.590766
0.524588
0.687719
0.793033
0.731073
0.777476
0.697916
0.325106
0.791704
0.569045
0.706897
0.794498
0.57859
0.606185
0.584382
0.64802
0.641031
0.800481
0.805529
0.794053
0.577851
0.344906
0.338455
0.797637
0.555734
0.318037
0.79379
0.555728
0.4866
0.803349
0.612712
0.643333
0.629438
0.803505
0.705404
0.787093
0.814254
0.707998
0.814627
0.597598
0.806277
0.717761
0.745739
0.81285
0.812046
0.744876
0.717809
0.812851
0.798774
0.734823
0.710205
0.793128
0.790806
0.80845
0.801768
0.787013
0.812169
0.80215
0.818505
0.787255
0.8177
0.750897
0.804375
0.710633
0.756246
0.804982
0.800837
0.80041
0.766514
0.807028
0.816527
0.812685
0.723046
0.752766
0.784844
0.78119
0.770585
0.81158
0.79135
0.795706
0.797961
0.785588
0.745121
0.774662
0.816162
0.801446
0.736855
0.800012
0.753675
0.814829
0.810272
0.801771
0.787953
0.810914
0.774499
0.772344
0.818187
0.723848
0.805126
0.810301
0.803445
0.812586
0.812673
0.78555
0.758272
0.764641
0.7648
0.809953
0.761112
0.799112
0.77271
0.76522
0.805431
0.812665
0.789459
0.803715
0.742292
0.742789
0.798551
0.807883
0.7981
0.711875
0.799984
0.815245
0.742888
0.812689
0.818557
0.800092
0.724684
0.56118
0.764383
0.78755
0.724028
0.75645
0.806416
0.813054
0.792844
0.809669
0.737776
0.701442
0.746078
0.746849
0.766017
0.816516
0.813276
0.806529
0.751131
0.768332
0.754925
0.789675
0.80008
0.713533
0.751958
0.790779
0.800649
0.80915
0.805381
0.810317
0.794113
0.763387
0.748889
0.816885
0.680184
0.809258
0.757387
0.812849
0.743212
0.640104
0.699064
0.812606
0.797657
0.743337
0.762023
0.804967
0.730342
0.808425
0.768657
0.755963
0.79726
0.798951
0.73969
0.814004
0.763026
0.799464
0.743886
0.787779
0.723882
0.816814
0.811829
0.796955
0.810876
0.807909
0.814284
0.774446
0.761258
0.754413
0.794467
0.679217
0.742627
0.747108
0.796194
0.792841
0.805352
0.815125
0.802316
0.817308
0.817529
0.815015
0.738528
0.754923
0.74742
0.814053
0.746928
0.739823
0.669426
0.74002
0.794552
0.794355
0.803065
0.816242
0.81164
0.785338
0.811823
0.792003
0.785
0.633427
0.793762
0.766134
0.756514
0.809262
0.808065
0.763918
0.78598
0.797539
0.804588
0.70391
0.764005
0.809939
0.816064
0.774307
0.74393
0.7887
0.796874
0.785851
0.779515
0.717911
0.6669
0.7594
0.765801
0.757448
0.752812
0.71183
0.812889
0.798314
0.754762
0.799526
0.740165
0.738512
0.808795
0.808727
0.734709
0.742301
0.695921
0.808697
0.761957
0.794141
0.806403
0.800776
0.748361
0.805926
0.783098
0.747844
0.75272
0.81342
0.804056
0.804064
0.815533
0.781495
0.729839
0.746054
0.798445
0.799766
0.736215
0.755567
0.803629
0.810332
0.810781
0.804897
0.740683
0.797561
0.76891
0.803336
0.784806
0.762535
0.796789
0.786318
0.661057
0.743204
0.761803
0.739271
0.770671
0.807488
0.792747
0.801379
0.809074
0.722192
0.795987
0.779067
0.798983
0.793086
0.791283
0.805883
0.747466
0.738543
0.790393
0.744502
0.74334
0.803845
0.648729
0.743881
0.813849
0.806951
0.756009
0.753889
0.756672
0.803892
0.713083
0.657794
0.729314
0.796043
0.801301
0.797805
0.598741
0.733101
0.814182
0.784887
0.702925
0.73791
0.74749
0.754015
0.742969
0.798482
0.810548
0.755359
0.748637
0.772219
0.773935
0.785228
0.693526
0.811026
0.794936
0.646538
0.751699
0.742911
0.754875
0.808325
0.795634
0.81034
0.774659
0.731354
0.788093
0.802064
0.805583
0.776826
0.815846
0.810736
0.779429
0.805898
0.798037
0.769927
0.748516
0.786365
0.715732
0.786432
0.785791
0.756492
0.73145
0.728855
0.72936
0.711604
0.813881
0.738948
0.761955
0.807911
0.800174
0.745491
0.735655
0.817255
0.787082
0.642487
0.784477
0.75567
0.74717
0.814278
0.779984
0.769075
0.801972
0.757656
0.795397
0.75386
0.804757
0.788379
0.775879
0.572055
0.736722
0.756976
0.78926
0.795408
0.797044
0.795697
0.816149
0.725696
0.756091
0.723212
0.682989
0.748995
0.812303
0.772516
0.790064
0.763378
0.79264
0.743762
0.708915
0.730097
0.75241
0.754015
0.818435
0.777158
0.781831
0.814078
0.811392
0.795552
0.817505
0.711203
0.767812
0.747055
0.800528
0.797583
0.807276
0.783929
0.793809
0.756769
0.785602
0.742648
0.690089
0.805325
0.776962
0.683838
0.734125
0.752525
0.732207
0.757123
0.78952
0.799082
0.736504
0.762466
0.748825
0.7528
0.749141
0.770148
0.709252
0.754357
0.814409
0.813807
0.81101
0.794822
0.798003
0.637878
0.810301
0.802756
0.737562
0.815827
0.622345
0.810302
0.763892
0.797394
0.776551
0.809584
0.786971
0.725065
0.806503
0.723752
0.814846
0.79932
0.75517
0.76727
0.709818
0.775735
0.815192
0.764017
0.804555
0.808703
0.747241
0.698791
0.810078
0.63167
0.795446
0.797369
0.744073
0.817273
0.676848
0.67283
0.808572
0.787545
0.810715
0.806593
0.794895
0.806928
0.816945
0.812348
0.8089
0.80713
0.745055
0.772517
0.791166
0.81418
0.771889
0.616857
0.807535
0.76057
0.796949
0.77047
0.815462
0.789157
0.772444
0.811997
0.785551
0.816827
0.732571
0.812275
0.793804
0.813912
0.804916
0.808549
0.769118
0.794174
0.735011
0.722535
0.793633
0.769437
0.790934
0.70687
0.629455
0.746171
0.77443
0.794699
0.778057
0.81698
0.772589
0.738806
0.783825
0.745104
0.814087
0.714408
0.793295
0.800566
0.814818
0.781022
0.806542
0.72727
0.797633
0.811819
0.750196
0.713162
0.796483
0.774187
0.808449
0.811837
0.772769
0.744175
0.789096
0.75325
0.738542
0.815399
0.813942
0.806199
0.713151
0.813364
0.792873
0.816809
0.753041
0.804906
0.797158
0.802262
0.796216
0.718169
0.749452
0.767921
0.611044
0.813272
0.799777
0.797797
0.812326
0.808032
0.784475
0.794594
0.79148
0.816738
0.812753
0.794298
0.794106
0.779776
0.80607
0.795851
0.76417
0.768647
0.774844
0.773449
0.800589
0.758659
0.810484
0.814117
0.749141
0.813145
0.750378
0.737778
0.755442
0.811357
0.786509
0.795268
0.800796
0.812052
0.795592
0.8019
0.811477
0.759378
0.751593
0.73201
0.739871
0.742178
0.54647
0.745232
0.749941
0.801049
0.747505
0.769629
0.799372
0.79041
0.742464
0.758894
0.769473
0.564463
0.815971
0.776203
0.800618
0.747552
0.772557
0.794946
0.716956
0.805025
0.746446
0.811471
0.773737
0.813755
0.70888
0.664365
0.767298
0.773499
0.77956
0.802056
0.667633
0.798393
0.775625
0.740736
0.719834
0.76097
0.768503
0.813096
0.711685
0.809298
0.811026
0.798525
0.750008
0.811605
0.746566
0.547166
0.796326
0.750925
0.743354
0.81091
0.811237
0.798668
0.802823
0.778315
0.812785
0.817044
0.797433
0.776222
0.807699
0.816373
0.807415
0.799275
0.795545
0.810152
0.751171
0.748923
0.813758
0.8113
0.815457
0.789985
0.777708
0.755461
0.811329
0.808251
0.514211
0.777326
0.794923
0.737226
0.800038
0.781241
0.812151
0.796816
0.797931
0.756652
0.807202
0.814647
0.794424
0.81272
0.815264
0.665899
0.737766
0.780737
0.745153
0.664705
0.752017
0.79488
0.811919
0.756109
0.785717
0.716833
0.760527
0.796541
0.7994
0.754252
0.748908
0.741727
0.788168
0.760965
0.756539
0.795577
0.802581
0.807032
0.740187
0.805722
0.764329
0.74969
0.79619
0.811675
0.798206
0.787323
0.741462
0.810461
0.751118
0.817028
0.809845
0.813509
0.810426
0.742816
0.741533
0.798937
0.744109
0.747797
0.75968
0.756174
0.740925
0.795101
0.797734
0.746863
0.813592
0.769883
0.788002
0.795117
0.808379
0.80562
0.806869
0.790502
0.749781
0.81198
0.715762
0.810186
0.744809
0.802783
0.813167
0.811659
0.808564
0.81276
0.797421
0.737677
0.752826
0.795121
0.762018
0.816796
0.737581
0.711802
0.784714
0.781206
0.768338
0.749194
0.790613
0.809842
0.804508
0.631782
0.765686
0.697229
0.720313
0.79511
0.783811
0.796981
0.790176
0.813617
0.741424
0.814412
0.798601
0.707647
0.807756
0.773603
0.810938
0.796212
0.793161
0.737625
0.757345
0.797422
0.809111
0.764869
0.78982
0.797131
0.80794
0.790385
0.788847
0.765491
0.797505
0.745183
0.738871
0.687436
0.801765
0.746976
0.75799
0.743659
0.759002
0.816308
0.783633
0.798718
0.813869
0.797304
0.700007
0.794114
0.725906
0.778934
0.804463
0.762695
0.749303
0.775486
0.798367
0.726464
0.763738
0.689646
0.748951
0.802786
0.695122
0.757179
0.810177
0.743568
0.743998
0.796618
0.811009
0.779751
0.73019
0.800097
0.756928
0.761565
0.797373
0.775423
0.799125
0.804631
0.818111
0.770453
0.811767
0.803792
0.810028
0.813736
0.807789
0.704473
0.758368
0.78669
0.7397
0.813512
0.814568
0.810052
0.80216
0.741203
0.746269
0.789003
0.813828
0.725819
0.809235
0.806671
0.809662
0.735825
0.732301
0.740532
0.705377
0.801244
0.725254
0.806289
0.758921
0.807336
0.740125
0.798493
0.74719
0.794981
0.804547
0.801675
0.783814
0.806056
0.814275
0.81741
0.80404
0.776844
0.811372
0.805331
0.761489
0.770913
0.796983
0.75716
0.816574
0.782031
0.804463
0.8107
0.812511
0.762865
0.686767
0.815982
0.774648
0.778958
0.791902
0.803859
0.811589
0.812333
0.774599
0.8014
0.742946
0.765251
0.798442
0.808939
0.794507
0.802811
0.786197
0.818034
0.790412
0.758662
0.814246
0.800778
0.735707
0.765286
0.816237
0.787759
0.746025
0.763694
0.817567
0.780519
0.797124
0.812351
0.81428
0.810741
0.802868
0.74773
0.807956
0.766621
0.782438
0.814443
0.80029
0.740989
0.728132
0.782226
0.806026
0.755094
0.734857
0.808858
0.783451
0.792545
0.809328
0.743065
0.744051
0.77587
0.806756
0.815916
0.800237
0.798384
0.697739
0.799749
0.76896
0.789431
0.814359
0.815491
0.73469
0.742359
0.790825
0.810252
0.815981
0.812406
0.808987
0.768442
0.769833
0.742565
0.746333
0.810177
0.803257
0.663012
0.747228
0.809898
0.794061
0.735608
0.746509
0.80168
0.769507
0.799417
0.806739
0.794636
0.812972
0.81062
0.796336
0.807952
0.778759
0.772904
0.785651
0.804002
0.772995
0.808977
0.667052
0.794129
0.650451
0.784368
0.814027
0.801391
0.813344
0.812558
0.814502
0.764052
0.781735
0.797958
0.708045
0.81311
0.793443
0.75839
0.806732
0.604243
0.747863
0.792934
0.808686
0.816985
0.745206
0.743584
0.796968
0.807049
0.674222
0.761456
0.775767
0.678934
0.727865
0.792717
0.730134
0.798721
0.746342
0.797364
0.807754
0.607992
0.786764
0.793291
0.764124
0.740765
0.795303
0.764375
0.778847
0.748
0.790506
0.782216
0.767784
0.796468
0.814445
0.763611
0.738883
0.773833
0.744823
0.752502
0.795693
0.700796
0.766538
0.764261
0.792133
0.804515
0.788208
0.791095
0.661345
0.79848
0.798255
0.77063
0.808482
0.783807
0.790258
0.679917
0.664819
0.804657
0.742156
0.792803
0.80908
0.76506
0.801235
0.660553
0.806802
0.776557
0.812651
0.776493
0.778652
0.794458
0.749374
0.768574
0.77473
0.817802
0.745203
0.735514
0.791874
0.817504
0.810378
0.694303
0.777578
0.776182
0.789957
0.771632
0.816423
0.812831
0.81156
0.810103
0.805344
0.756568
0.73884
0.812854
0.759931
0.781936
0.696459
0.731651
0.750732
0.737288
0.803482
0.67115
0.8097
0.762645
0.806913
0.7892
0.800746
0.812408
0.774071
0.809107
0.813738
0.81019
0.796869
0.812978
0.763726
0.799451
0.73858
0.763041
0.81725
0.672535
0.803301
0.80789
0.795419
0.789139
0.784402
0.801254
0.801377
0.799119
0.747245
0.746347
0.800881
0.794548
0.695677
0.809829
0.736067
0.798665
0.742309
0.784273
0.799118
0.812271
0.814129
0.747481
0.802873
0.796028
0.790523
0.81418
0.707575
0.728324
0.816708
0.743226
0.765295
0.813366
0.812789
0.802127
0.73328
0.754358
0.756348
0.751926
0.710314
0.795251
0.773473
0.789521
0.756733
0.797808
0.780298
0.760999
0.709061
0.792302
0.7887
0.754236
0.812846
0.812424
0.72247
0.804125
0.662203
0.762268
0.68986
0.757937
0.808603
0.791929
0.795677
0.784475
0.801554
0.811249
0.803932
0.800134
0.713587
0.782424
0.769033
0.794936
0.736111
0.814962
0.779381
0.753927
0.813066
0.810344
0.74096
0.805654
0.743322
0.805535
0.804384
0.807018
0.702097
0.803083
0.790209
0.805372
0.794418
0.753928
0.741256
0.755543
0.812005
0.81439
0.813006
0.777905
0.794158
0.811249
0.783588
0.801061
0.757964
0.762166
0.798697
0.813685
0.749208
0.815751
0.799721
0.817744
0.812078
0.812519
0.79672
0.780233
0.814304
0.642452
0.809159
0.685848
0.811141
0.814262
0.799562
0.776567
0.765761
0.799739
0.685999
0.712466
0.767115
0.722796
0.813824
0.745113
0.744063
0.706574
0.739016
0.796409
0.811077
0.814966
0.744493
0.777638
0.799984
0.805269
0.77448
0.770435
0.812488
0.813277
0.79812
0.81252
0.812783
0.811052
0.743051
0.789373
0.720787
0.805061
0.813549
0.814293
0.791107
0.801062
0.779699
0.741006
0.775393
0.7437
0.75342
0.749296
0.816135
0.792144
0.793022
0.815396
0.812948
0.802402
0.803733
0.760146
0.800409
0.797217
0.812855
0.773534
0.740633
0.801862
0.801785
0.810938
0.816387
0.815267
0.734878
0.732023
0.738923
0.803125
0.814118
0.693948
0.757939
0.814684
0.750707
0.779906
0.743203
0.794311
0.806097
0.794756
0.803314
0.754718
0.798391
0.79923
0.810944
0.781037
0.758602
0.806808
0.801622
0.785762
0.8141
0.819456
0.693909
0.813386
0.750488
0.770195
0.817984
0.815193
0.794007
0.813038
0.750992
0.811582
0.76354
0.742863
0.812109
0.774904
0.809707
0.790269
0.805103
0.798709
0.807152
0.757839
0.810473
0.737823
0.812637
0.790259
0.797432
0.772587
0.734591
0.741934
0.812
0.759936
0.784746
0.732439
0.770483
0.811106
0.81157
0.802525
0.809544
0.802933
0.757208
0.777272
0.800808
0.738497
0.762428
0.803186
0.791866
0.779415
0.755565
0.693531
0.742258
0.811352
0.773489
0.812325
0.743082
0.815628
0.799756
0.814891
0.813006
0.776519
0.813163
0.744352
0.80357
0.756205
0.802547
0.726501
0.778664
0.759351
0.739551
0.778177
0.746602
0.740783
0.749717
0.814769
0.817517
0.782199
0.732856
0.812661
0.746049
0.700234
0.791967
0.810264
0.803468
0.748421
0.749966
0.816975
0.727955
0.800732
0.729472
0.753899
0.77501
0.728172
0.81581
0.792094
0.760405
0.815319
0.816584
0.756545
0.805872
0.791239
0.816099
0.793876
0.767093
0.746912
0.809083
0.816654
0.808246
0.717137
0.746423
0.764653
0.791662
0.803824
0.810667
0.72692
0.801361
0.748848
0.804614
0.806658
0.799497
0.770717
0.806675
0.696307
0.792753
0.728453
0.787677
0.716556
0.741357
0.799508
0.814829
0.756114
0.762727
0.803643
0.771813
0.68773
0.739938
0.753718
0.789068
0.636789
0.791912
0.786668
0.80566
0.785893
0.805782
0.806396
0.673793
0.670128
0.815973
0.790976
0.689889
0.767448
0.800621
0.81204
0.804659
0.720687
0.787466
0.726937
0.804391
0.813685
0.811298
0.782688
0.811556
0.750412
0.797646
0.816755
0.746595
0.7593
0.811851
0.813197
0.750291
0.745761
0.711683
0.673458
0.714257
0.812221
0.761596
0.742871
0.71285
0.734103
0.806313
0.72864
0.75433
0.734939
0.808053
0.76875
0.805217
0.759814
0.781995
0.783386
0.794498
0.799123
0.808124
0.736738
0.803205
0.781282
0.785147
0.806071
0.767094
0.813366
0.807266
0.764248
0.805995
0.744473
0.766003
0.794084
0.807177
0.749525
0.79015
0.788544
0.796224
0.798316
0.813459
0.718576
0.75077
0.734897
0.738517
0.81643
0.761372
0.803424
0.817283
0.779891
0.67732
0.738217
0.783594
0.730928
0.796051
0.740367
0.761371
0.76089
0.812318
0.810843
0.789948
0.728604
0.771995
0.745926
0.783012
0.811389
0.803675
0.770434
0.793538
0.77307
0.801752
0.809456
0.812786
0.801023
0.815985
0.804406
0.776663
0.756961
0.743661
0.741621
0.802464
0.795177
0.752752
0.807244
0.759847
0.81525
0.808504
0.74405
0.722345
0.765313
0.786478
0.812825
0.796009
0.810288
0.794217
0.813462
0.806467
0.793704
0.757642
0.795004
0.791405
0.748671
0.768758
0.808282
0.685445
0.601649
0.803788
0.796427
0.813359
0.780894
0.747831
0.73487
0.766641
0.724028
0.773559
0.801265
0.750799
0.811878
0.781603
0.735857
0.77535
0.758379
0.728972
0.812233
0.795891
0.801731
0.73262
0.787863
0.793283
0.733791
0.765956
0.767532
0.76229
0.737863
0.677707
0.815284
0.807803
0.81433
0.806782
0.811894
0.754287
0.799361
0.783544
0.781914
0.711692
0.805799
0.792026
0.775422
0.813447
0.813318
0.808246
0.805439
0.801772
0.803201
0.746201
0.799132
0.805648
0.8095
0.780316
0.750609
0.805282
0.759835
0.76112
0.809309
0.770247
0.816498
0.755705
0.816809
0.801937
0.799043
0.756757
0.809102
0.74453
0.759411
0.769381
0.751132
0.759074
0.758928
0.758705
0.79571
0.729761
0.734603
0.787661
0.804138
0.791149
0.766776
0.806484
0.803844
0.763952
0.81017
0.810584
0.813085
0.73302
0.763585
0.786044
0.743807
0.78855
0.702503
0.7976
0.705833
0.812535
0.788185
0.797189
0.7539
0.743735
0.76463
0.795476
0.761815
0.801843
0.805456
0.799634
0.808826
0.799499
0.790415
0.753589
0.815042
0.792032
0.794349
0.808938
0.750582
0.752742
0.750783
0.811374
0.811969
0.792163
0.786568
0.761195
0.786603
0.724578
0.780466
0.737735
0.811219
0.759718
0.781214
0.796448
0.798628
0.737765
0.780315
0.78575
0.796236
0.792845
0.805529
0.792954
0.766748
0.803008
0.8128
0.792079
0.743514
0.799051
0.744093
0.789538
0.716713
0.748117
0.793981
0.691681
0.740001
0.809346
0.812663
0.740647
0.789987
0.750523
0.709416
0.74792
0.738806
0.749136
0.750036
0.750776
0.809056
0.814889
0.781166
0.811278
0.782155
0.80544
0.794039
0.814953
0.807657
0.760662
0.800768
0.813139
0.798398
0.800683
0.716446
0.813494
0.778789
0.609081
0.802413
0.810861
0.816935
0.810528
0.803136
0.799933
0.765397
0.794693
0.787673
0.791706
0.620186
0.76915
0.712889
0.792964
0.797957
0.729881
0.74143
0.761148
0.751263
0.738112
0.795786
0.787338
0.799158
0.811502
0.751666
0.815543
0.737804
0.781997
0.811572
0.787625
0.79021
0.792581
0.626589
0.753292
0.799475
0.813948
0.752724
0.764939
0.796342
0.809597
0.740209
0.816595
0.757403
0.797787
0.796978
0.779405
0.796308
0.810852
0.814229
0.720065
0.801909
0.803331
0.807431
0.731709
0.789939
0.772118
0.738902
0.754207
0.764088
0.799765
0.798338
0.807856
0.783145
0.722711
0.793589
0.752024
0.751845
0.789063
0.786333
0.732921
0.816112
0.754126
0.758861
0.752151
0.798596
0.735579
0.699548
0.802038
0.775975
0.802094
0.754164
0.715612
0.800032
0.676486
0.808936
0.800477
0.749006
0.739324
0.817556
0.750022
0.738215
0.742228
0.718648
0.766134
0.804412
0.811647
0.737868
0.762638
0.809914
0.788067
0.75688
0.751938
0.77983
0.812292
0.811546
0.751084
0.741419
0.806224
0.817108
0.797603
0.794818
0.79461
0.720191
0.795952
0.80839
0.799623
0.725757
0.811825
0.795489
0.740162
0.805146
0.742801
0.814506
0.796857
0.733375
0.794426
0.790373
0.79144
0.745712
0.800949
0.766247
0.808466
0.807459
0.810646
0.747018
0.760983
0.810696
0.804088
0.771522
0.804652
0.796141
0.751777
0.801749
0.79907
0.750445
0.659968
0.743076
0.772192
0.756916
0.748108
0.755358
0.769347
0.80449
0.735345
0.744459
0.794009
0.738135
0.813708
0.750811
0.798494
0.795908
0.74115
0.798658
0.77928
0.807319
0.801385
0.811104
0.754849
0.749958
0.81608
0.723493
0.814343
0.807021
0.795437
0.763315
0.814197
0.789202
0.746629
0.817324
0.721025
0.7991
0.813802
0.728297
0.81861
0.746129
0.794631
0.644831
0.794277
0.74083
0.799351
0.767954
0.743086
0.770973
0.737836
0.753816
0.814129
0.739321
0.787125
0.79989
0.789798
0.802091
0.80557
0.795252
0.721763
0.815573
0.792477
0.811348
0.757568
0.795829
0.804062
0.77775
0.813586
0.797522
0.800437
0.751328
0.785757
0.701666
0.739138
0.814072
0.566323
0.805502
0.80705
0.762535
0.751042
0.773311
0.809842
0.78841
0.808434
0.794793
0.798361
0.801536
0.816166
0.811867
0.737505
0.79749
0.80889
0.79968
0.803722
0.778811
0.753283
0.746277
0.77858
0.799756
0.779004
0.81823
0.742712
0.758654
0.788198
0.770422
0.79832
0.807583
0.75108
0.764059
0.764345
0.777153
0.748944
0.811895
0.72709
0.776077
0.794432
0.77645
0.733221
0.72834
0.804593
0.725771
0.737647
0.812924
0.797935
0.761976
0.73813
0.741579
0.762089
0.812808
0.812734
0.765383
0.798809
0.799334
0.816281
0.809284
0.75831
0.813303
0.768976
0.795452
0.807522
0.812704
0.800471
0.813189
0.810735
0.725873
0.709167
0.786577
0.76256
0.773812
0.658149
0.668699
0.810531
0.812979
0.748716
0.814307
0.79907
0.810862
0.793641
0.745544
0.814758
0.812508
0.7995
0.724594
0.744524
0.800351
0.806053
0.788793
0.740616
0.77305
0.804415
0.813761
0.804017
0.778211
0.76874
0.807492
0.778744
0.772103
0.803108
0.779785
0.804749
0.656122
0.814244
0.790017
0.798958
0.813539
0.740754
0.748588
0.758775
0.74618
0.815335
0.748397
0.792856
0.659931
0.761435
0.777779
0.751434
0.740178
0.784436
0.733798
0.748062
0.79019
0.783694
0.811031
0.751747
0.799657
0.814058
0.765424
0.804191
0.800627
0.809608
0.79716
0.763016
0.808886
0.739857
0.745018
0.805264
0.812548
0.81217
0.798326
0.712391
0.801815
0.797478
0.77641
0.811681
0.799682
0.809042
0.809331
0.744053
0.74617
0.800738
0.738428
0.800763
0.799611
0.736447
0.814425
0.795603
0.808878
0.792428
0.798513
0.734054
0.776002
0.802111
0.754088
0.801342
0.806552
0.769032
0.798764
0.785245
0.796666
0.804464
0.79879
0.736749
0.811147
0.716082
0.651203
0.769092
0.806546
0.746451
0.814248
0.760394
0.713407
0.79461
0.804089
0.808442
0.616202
0.801171
0.802265
0.813363
0.77565
0.816455
0.803718
0.745578
0.798315
0.782402
0.783616
0.743125
0.803475
0.798184
0.746982
0.743302
0.800143
0.783616
0.742441
0.792414
0.813275
0.73982
0.814005
0.752803
0.708152
0.725067
0.798948
0.789158
0.746067
0.715278
0.740368
0.798817
0.796355
0.811948
0.771639
0.813561
0.729402
0.799634
0.746067
0.747792
0.74461
0.802412
0.794355
0.749316
0.755131
0.813467
0.777028
0.808639
0.809215
0.765828
0.791494
0.798841
0.775518
0.811704
0.799049
0.800598
0.776883
0.746749
0.794108
0.770973
0.818161
0.779007
0.758636
0.705214
0.75419
0.799007
0.808262
0.790098
0.806753
0.791863
0.760829
0.772874
0.725689
0.766336
0.757945
0.811782
0.737123
0.752851
0.746113
0.806671
0.792019
0.748095
0.739461
0.722385
0.81087
0.773378
0.75659
0.743735
0.764731
0.750618
0.783757
0.797683