/*--------------------------------*- C++ -*----------------------------------*\
  =========                 |
  \\      /  F ield         | OpenFOAM: The Open Source CFD Toolbox
   \\    /   O peration     | Website:  https://openfoam.org
    \\  /    A nd           | Version:  6
     \\/     M anipulation  |
\*---------------------------------------------------------------------------*/
FoamFile
{
    version     2.0;
    format      ascii;
    class       volScalarField;
    location    "0";
    object      p;
}
// * * * * * * * * * * * * * * * * * * * * * * * * * * * * * * * * * * * * * //

dimensions      [0 2 -2 0 0 0 0];

internalField   nonuniform List<scalar> 
13046
(
0.860549
0.853744
0.956327
0.860619
0.935026
0.888917
0.840393
0.891072
0.948958
0.600187
0.750718
0.970437
0.830987
0.852635
0.957676
0.666546
0.975778
0.736059
0.917497
0.917931
0.860032
0.655925
0.975359
0.741982
0.868607
0.881395
0.938884
0.822423
0.841943
0.966821
0.868437
0.84141
0.952102
0.884679
0.932082
0.879327
0.883533
0.930688
0.889926
0.894167
0.952796
0.80176
0.890112
0.914017
0.901566
0.88007
0.909963
0.913001
0.845476
0.859491
0.957331
0.942604
0.917832
0.748156
0.946847
0.727635
0.928149
0.732218
0.791429
0.977646
0.75133
0.877361
0.962124
0.971309
0.797614
0.682055
0.811586
0.727551
0.97431
0.824201
0.731662
0.972633
0.724388
0.780211
0.977156
0.916299
0.929641
0.844594
0.9802
0.74614
0.732637
0.857879
0.884064
0.941049
0.971083
0.789174
0.664244
0.650381
0.96826
0.83898
0.962018
0.603899
0.864523
0.766978
0.747672
0.826404
0.825508
0.968589
0.973109
0.968118
0.650345
0.852149
0.872893
0.917535
0.908606
0.939951
0.755092
0.935913
0.909487
0.949946
0.767872
0.525348
0.966836
0.704606
0.839345
0.861601
0.951232
0.756186
0.769017
0.795906
0.973798
0.809931
0.972001
0.586213
0.734721
0.9712
0.801794
0.824275
0.971298
0.883952
0.954752
0.806512
0.956894
0.618933
0.879587
0.712693
0.828119
0.970323
0.859043
0.837721
0.954119
0.791376
0.907207
0.947372
0.913972
0.944381
0.761893
0.935732
0.770705
0.935373
0.746063
0.864811
0.962238
0.944905
0.809075
0.918056
0.929131
0.714248
0.920466
0.707366
0.942914
0.94878
0.785602
0.908405
0.939637
0.594086
0.968482
0.768441
0.551359
0.967622
0.714641
0.706917
0.815361
0.973922
0.88125
0.77278
0.963444
0.791134
0.934091
0.915361
0.972362
0.791776
0.596365
0.885978
0.783965
0.957066
0.943137
0.796105
0.9211
0.804529
0.906727
0.941609
0.852936
0.963986
0.808585
0.837188
0.965001
0.645818
0.968554
0.811922
0.962755
0.644468
0.870543
0.613367
0.853218
0.959495
0.948377
0.715268
0.911585
0.817287
0.75304
0.98204
0.723003
0.833313
0.604634
0.966159
0.871029
0.93049
0.898117
0.83539
0.837814
0.966115
0.961739
0.635024
0.880593
0.806085
0.863062
0.96458
0.96782
0.749237
0.553154
0.918202
0.710112
0.944096
0.632904
0.86061
0.961805
0.743755
0.914739
0.94893
0.801815
0.817099
0.972245
0.906034
0.64696
0.948722
0.688738
0.918409
0.946408
0.965532
0.75645
0.535218
0.906634
0.957572
0.763783
0.552791
0.967005
0.665959
0.919668
0.860386
0.912621
0.751875
0.757762
0.903176
0.911514
0.951994
0.948143
0.976844
0.728011
0.728397
0.819419
0.818406
0.967655
0.681724
0.905016
0.954701
0.732641
0.813329
0.972039
0.899484
0.891115
0.917341
0.723861
0.911391
0.950318
0.821911
0.802547
0.970103
0.809615
0.800358
0.90917
0.956234
0.753084
0.71776
0.901105
0.953406
0.712823
0.972792
0.814817
0.919681
0.94384
0.783306
0.942331
0.703707
0.929201
0.784326
0.783423
0.971555
0.914021
0.946832
0.747703
0.769797
0.756767
0.779262
0.973276
0.781309
0.97678
0.971118
0.794862
0.613348
0.783353
0.809754
0.973383
0.653353
0.965662
0.488529
0.834452
0.923632
0.916218
0.767708
0.878534
0.960003
0.97019
0.667083
0.819477
0.947727
0.711087
0.927897
0.89467
0.643681
0.954243
0.878112
0.957393
0.76546
0.858815
0.965468
0.880068
0.953718
0.686169
0.974532
0.744994
0.955397
0.704829
0.910062
0.751616
0.856978
0.966061
0.783063
0.905364
0.95104
0.75898
0.935211
0.930981
0.856399
0.870675
0.948536
0.930674
0.708182
0.935092
0.632221
0.829781
0.964674
0.894974
0.647163
0.957035
0.843743
0.968281
0.735353
0.754942
0.768417
0.760095
0.752759
0.973979
0.973848
0.96503
0.662492
0.507551
0.568504
0.968669
0.67355
0.739722
0.900621
0.94784
0.968311
0.638865
0.797726
0.812102
0.799708
0.758232
0.760017
0.974545
0.974767
0.95889
0.829179
0.564632
0.541728
0.968058
0.640852
0.868837
0.908205
0.922301
0.527047
0.677744
0.966777
0.865513
0.783033
0.96367
0.599094
0.801905
0.971423
0.681199
0.96158
0.434733
0.900411
0.947339
0.811308
0.843158
0.916339
0.928654
0.597758
0.972542
0.724252
0.83165
0.91675
0.931172
0.877516
0.908579
0.918233
0.929053
0.691564
0.946918
0.830733
0.9342
0.916667
0.838652
0.921008
0.916844
0.857542
0.733435
0.966551
0.977019
0.976057
0.752247
0.758107
0.633065
0.624757
0.611984
0.829354
0.964805
0.97416
0.838495
0.721283
0.893384
0.954148
0.781359
0.679692
0.920808
0.939511
0.740127
0.960462
0.463288
0.963772
0.599873
0.85438
0.560064
0.969363
0.730349
0.960298
0.662152
0.430327
0.627623
0.961352
0.463148
0.88528
0.709937
0.956667
0.802757
0.958098
0.520209
0.696452
0.836178
0.96987
0.648622
0.974269
0.699185
0.83036
0.951921
0.878929
0.837768
0.9615
0.577201
0.687211
0.936244
0.924707
0.897926
0.6834
0.959047
0.958273
0.576511
0.38002
0.680171
0.965006
0.467554
0.843831
0.948179
0.878947
0.820098
0.567379
0.961003
0.961264
0.54581
0.826248
0.645838
0.970199
0.792617
0.977192
0.749676
0.712168
0.871364
0.717777
0.969781
0.748724
0.786843
0.978388
0.977899
0.699603
0.716097
0.846589
0.837105
0.804199
0.797617
0.965662
0.967697
0.859128
0.798045
0.96408
0.82466
0.742098
0.97734
0.896305
0.663871
0.955555
0.8235
0.606111
0.97085
0.958626
0.663743
0.877812
0.627265
0.96259
0.483722
0.88964
0.880467
0.952352
0.823421
0.952561
0.835147
0.846921
0.850744
0.968453
0.753828
0.971722
0.762417
0.698151
0.959727
0.43835
0.822471
0.582246
0.962265
0.893648
0.954216
0.754522
0.912034
0.660576
0.947635
0.977301
0.748322
0.725916
0.719505
0.506156
0.964897
0.739315
0.512903
0.965016
0.798253
0.773156
0.976442
0.924473
0.936695
0.793146
0.632194
0.970682
0.775892
0.885424
0.693194
0.963612
0.975037
0.795438
0.702591
0.862277
0.96931
0.755778
0.749916
0.92202
0.940188
0.901024
0.952237
0.788859
0.970652
0.780693
0.612582
0.736748
0.797639
0.974701
0.899358
0.946409
0.822725
0.681261
0.977664
0.706491
0.854615
0.823618
0.96163
0.816906
0.906377
0.943071
0.899661
0.696984
0.95426
0.597986
0.972513
0.680721
0.614642
0.973514
0.679884
0.976284
0.782489
0.705495
0.732478
0.931831
0.935503
0.971691
0.662329
0.576158
0.969039
0.829056
0.678756
0.958846
0.650583
0.412014
0.44823
0.600069
0.962635
0.978073
0.730755
0.700024
0.968608
0.767794
0.574755
0.657486
0.670342
0.971487
0.756512
0.972518
0.771199
0.670439
0.843208
0.967609
0.950745
0.92118
0.659503
0.882912
0.94283
0.856044
0.675773
0.861787
0.965857
0.964457
0.679969
0.870291
0.717488
0.977696
0.711908
0.842385
0.742702
0.973647
0.855237
0.778468
0.963912
0.71924
0.869532
0.968176
0.708442
0.871347
0.966128
0.903236
0.93747
0.837928
0.836415
0.782932
0.972091
0.96057
0.850314
0.574669
0.500795
0.962829
0.75581
0.480724
0.960331
0.761339
0.879236
0.959804
0.796601
0.712461
0.96206
0.4815
0.724202
0.975369
0.783044
0.962517
0.720404
0.45942
0.864006
0.930313
0.898015
0.796859
0.852421
0.963113
0.934742
0.740901
0.931489
0.958377
0.810473
0.538988
0.887074
0.693444
0.960377
0.975346
0.664893
0.71268
0.776729
0.848735
0.97099
0.886959
0.940977
0.861879
0.798095
0.553412
0.964904
0.973949
0.810492
0.681988
0.586479
0.570285
0.968841
0.968377
0.70965
0.699303
0.768782
0.896574
0.955108
0.890011
0.722527
0.952546
0.829167
0.89545
0.95007
0.774581
0.518474
0.782213
0.964015
0.513271
0.961734
0.745225
0.836588
0.972784
0.553937
0.536329
0.785817
0.776407
0.965692
0.962875
0.725651
0.897661
0.961873
0.794531
0.875793
0.959059
0.631484
0.975548
0.698691
0.778345
0.882797
0.956313
0.819957
0.890372
0.94717
0.594727
0.972295
0.697271
0.78137
0.832642
0.965851
0.936374
0.677144
0.935034
0.868507
0.741828
0.967649
0.891706
0.95338
0.621671
0.959882
0.599043
0.402205
0.773557
0.870862
0.961698
0.639824
0.971907
0.72957
0.962621
0.710032
0.89124
0.491128
0.966287
0.623617
0.929665
0.923854
0.92867
0.800958
0.93449
0.788493
0.830213
0.904086
0.940112
0.909471
0.920785
0.940432
0.80799
0.938926
0.803547
0.785795
0.880616
0.960449
0.791978
0.887708
0.958329
0.959987
0.775051
0.489184
0.868563
0.805901
0.958269
0.573574
0.781857
0.968856
0.715958
0.701834
0.856658
0.848827
0.965831
0.965258
0.864005
0.820772
0.95934
0.821089
0.770788
0.971497
0.744625
0.857392
0.970194
0.894703
0.873744
0.928642
0.691894
0.860484
0.966049
0.885315
0.942075
0.850653
0.738432
0.886357
0.962464
0.816616
0.786433
0.971908
0.89313
0.899197
0.860746
0.938359
0.853932
0.937516
0.908675
0.931458
0.920961
0.836527
0.938313
0.813503
0.8459
0.834401
0.816072
0.824332
0.965013
0.964153
0.975912
0.760111
0.712865
0.929351
0.693615
0.938926
0.977632
0.976555
0.75708
0.770506
0.694945
0.688471
0.910005
0.954199
0.729659
0.895574
0.919714
0.890412
0.689739
0.848728
0.967596
0.884079
0.953383
0.817412
0.806793
0.788217
0.972762
0.744096
0.743574
0.756146
0.978207
0.769571
0.976266
0.727462
0.839411
0.968407
0.508582
0.645095
0.966789
0.957765
0.7161
0.897292
0.880159
0.883269
0.964222
0.72214
0.967154
0.728341
0.673121
0.88457
0.959378
0.831603
0.769667
0.97155
0.902473
0.955398
0.735912
0.879768
0.878294
0.95955
0.967055
0.756189
0.757621
0.876309
0.966658
0.739384
0.728849
0.849548
0.969421
0.895704
0.93901
0.848444
0.613828
0.970416
0.730379
0.89845
0.959484
0.727244
0.807518
0.791277
0.798645
0.795026
0.969776
0.975562
0.972474
0.736402
0.627379
0.629097
0.974729
0.710112
0.61252
0.971659
0.713462
0.72667
0.976812
0.77059
0.838631
0.780494
0.970022
0.896403
0.942185
0.971229
0.900109
0.96363
0.775334
0.952639
0.898075
0.919568
0.95828
0.956665
0.915836
0.90462
0.960924
0.938938
0.916611
0.894903
0.943641
0.941791
0.949958
0.94197
0.940009
0.958756
0.974617
0.974232
0.944091
0.967246
0.918891
0.94755
0.894789
0.923196
0.949463
0.947545
0.937881
0.929103
0.951361
0.969383
0.95927
0.905168
0.928888
0.941237
0.9626
0.932276
0.959122
0.955901
0.939927
0.942456
0.941924
0.916432
0.934964
0.973798
0.9386
0.918187
0.949845
0.922321
0.971395
0.952848
0.947666
0.946713
0.958094
0.935007
0.933378
0.974223
0.904104
0.949256
0.952972
0.946318
0.975728
0.959213
0.951896
0.925626
0.932254
0.931809
0.952529
0.92798
0.935423
0.939303
0.927274
0.955404
0.962862
0.941557
0.945963
0.915219
0.920176
0.940509
0.958237
0.939484
0.894773
0.941218
0.974102
0.920156
0.95757
0.974186
0.936918
0.908708
0.721828
0.930463
0.943534
0.90869
0.923146
0.954087
0.960232
0.958776
0.973415
0.916866
0.884408
0.914601
0.925028
0.932118
0.969019
0.961472
0.946354
0.921752
0.933317
0.930772
0.954914
0.943425
0.896783
0.922414
0.940638
0.940513
0.973023
0.968381
0.95358
0.946658
0.932282
0.921299
0.978233
0.866612
0.951432
0.925017
0.972034
0.916803
0.811522
0.887595
0.96246
0.933311
0.909759
0.9284
0.950729
0.910547
0.958056
0.939812
0.927101
0.96042
0.95086
0.916216
0.965685
0.927658
0.945263
0.916123
0.945924
0.90653
0.967701
0.956673
0.940848
0.954177
0.958562
0.970508
0.938992
0.930038
0.926051
0.956092
0.866915
0.919604
0.916295
0.971238
0.942935
0.96575
0.975772
0.944341
0.979217
0.968864
0.969259
0.915133
0.922018
0.919359
0.970914
0.918814
0.913521
0.853796
0.914462
0.942041
0.946866
0.947266
0.976519
0.955417
0.938783
0.960596
0.946178
0.964917
0.805029
0.957018
0.933219
0.925088
0.969979
0.973287
0.931086
0.942352
0.971642
0.947428
0.885153
0.928938
0.952851
0.968632
0.946232
0.917884
0.947248
0.957982
0.944905
0.941
0.88836
0.844436
0.92549
0.933209
0.929696
0.923593
0.893249
0.960568
0.940527
0.92341
0.946148
0.921488
0.918842
0.950499
0.950245
0.915458
0.91437
0.881535
0.950624
0.933022
0.929702
0.946239
0.950799
0.920207
0.945773
0.939103
0.915152
0.927573
0.964757
0.943117
0.968388
0.970301
0.964093
0.912388
0.912864
0.942286
0.943935
0.917363
0.92656
0.948304
0.968572
0.957453
0.944038
0.914705
0.936501
0.941347
0.943969
0.950712
0.927402
0.945467
0.93956
0.837647
0.920217
0.930278
0.9173
0.935163
0.949767
0.947125
0.943733
0.951934
0.912674
0.940136
0.938326
0.944255
0.932804
0.946682
0.946101
0.91911
0.902905
0.942736
0.91549
0.910711
0.942329
0.822494
0.91308
0.966335
0.947015
0.925746
0.927342
0.924384
0.947714
0.885886
0.835629
0.913953
0.957541
0.941904
0.957626
0.771407
0.910823
0.967841
0.939045
0.889801
0.901037
0.915921
0.919555
0.912557
0.948342
0.953527
0.92354
0.918043
0.933473
0.934468
0.965668
0.874516
0.95469
0.950403
0.819804
0.927724
0.918233
0.922444
0.9495
0.948482
0.969491
0.942156
0.911726
0.940631
0.939699
0.977052
0.94837
0.969355
0.954475
0.938218
0.947618
0.942227
0.931425
0.919111
0.94106
0.901173
0.949857
0.944358
0.922077
0.91625
0.91096
0.913877
0.89629
0.963834
0.917958
0.931556
0.967524
0.963048
0.922112
0.913443
0.96981
0.923171
0.815975
0.939532
0.923235
0.91822
0.968946
0.940432
0.935052
0.96461
0.92263
0.9462
0.928117
0.946551
0.941656
0.935458
0.727829
0.916845
0.923884
0.924066
0.94085
0.939297
0.956314
0.972244
0.909701
0.931474
0.907224
0.865889
0.915424
0.962866
0.941195
0.925486
0.927695
0.947731
0.915379
0.896117
0.91056
0.92401
0.927033
0.974516
0.936233
0.948426
0.978634
0.962464
0.959758
0.971076
0.893359
0.932783
0.918407
0.973507
0.959913
0.965425
0.940691
0.935755
0.926122
0.951455
0.921109
0.870974
0.965353
0.943885
0.870828
0.9153
0.926281
0.916129
0.92765
0.940688
0.942627
0.912608
0.93036
0.91758
0.928377
0.919898
0.94104
0.886611
0.924504
0.967532
0.970106
0.954888
0.950219
0.947824
0.809976
0.954522
0.941571
0.906877
0.968057
0.792641
0.969828
0.932029
0.944335
0.938677
0.95223
0.952699
0.91064
0.971788
0.906901
0.965657
0.946348
0.927468
0.932653
0.895687
0.935791
0.96766
0.933674
0.975057
0.950379
0.916964
0.882825
0.952087
0.807054
0.950143
0.945734
0.918572
0.974742
0.858267
0.853297
0.95951
0.943802
0.969793
0.974387
0.935252
0.977611
0.976155
0.961657
0.965943
0.951004
0.91486
0.933113
0.942476
0.961726
0.934584
0.787383
0.971922
0.926246
0.93471
0.931654
0.969398
0.967364
0.93798
0.962919
0.946184
0.973141
0.914703
0.957013
0.929294
0.975104
0.974774
0.957441
0.931933
0.957217
0.917783
0.899636
0.942927
0.936017
0.947342
0.891331
0.803892
0.917726
0.937734
0.951384
0.942137
0.969236
0.933919
0.917955
0.949516
0.918478
0.969484
0.899688
0.928789
0.964671
0.965874
0.943501
0.973164
0.908887
0.941087
0.959252
0.927288
0.88932
0.94246
0.934201
0.949967
0.956052
0.933854
0.920622
0.944688
0.921054
0.912878
0.97271
0.977711
0.976203
0.892685
0.979025
0.969035
0.97497
0.919935
0.953441
0.948934
0.970262
0.949357
0.90341
0.92056
0.931446
0.779898
0.974815
0.939563
0.937617
0.957533
0.956146
0.940846
0.931395
0.967915
0.977056
0.966381
0.953747
0.933716
0.94577
0.954032
0.94727
0.933373
0.932766
0.935862
0.940424
0.945792
0.92853
0.96988
0.971742
0.916144
0.962829
0.925468
0.914635
0.928407
0.970788
0.940958
0.952006
0.943058
0.965837
0.944568
0.945588
0.97792
0.931039
0.918406
0.913259
0.915334
0.908094
0.710178
0.921279
0.917411
0.946889
0.916612
0.935548
0.94501
0.928185
0.918261
0.92938
0.93516
0.724707
0.97604
0.944993
0.94509
0.916943
0.943234
0.934881
0.90317
0.973989
0.923422
0.977478
0.936588
0.96465
0.888078
0.843668
0.932392
0.940392
0.94234
0.94721
0.845838
0.947045
0.940706
0.918716
0.904194
0.929266
0.93347
0.973523
0.894791
0.951545
0.95897
0.951278
0.916979
0.959155
0.918394
0.711035
0.944903
0.920898
0.908854
0.956853
0.955229
0.94334
0.951777
0.936595
0.978707
0.976113
0.939281
0.935238
0.97299
0.968006
0.952855
0.950285
0.94385
0.977508
0.92724
0.915711
0.968413
0.965116
0.972975
0.945865
0.937562
0.927585
0.955285
0.949861
0.67262
0.961377
0.944464
0.915272
0.940652
0.950527
0.976746
0.969704
0.950073
0.930849
0.959325
0.96828
0.960694
0.956589
0.963508
0.847668
0.915885
0.944618
0.917375
0.850192
0.921208
0.944775
0.95825
0.92389
0.942461
0.901703
0.926631
0.969399
0.938249
0.92045
0.916951
0.908004
0.942655
0.927175
0.927083
0.959635
0.947347
0.947892
0.910148
0.951394
0.930845
0.923984
0.95501
0.956686
0.963154
0.965619
0.919419
0.968883
0.918032
0.971239
0.967203
0.971372
0.962294
0.91738
0.916783
0.941249
0.911419
0.925247
0.927031
0.930629
0.911667
0.957203
0.948965
0.914898
0.965512
0.941267
0.940947
0.945411
0.952301
0.967656
0.950953
0.943302
0.917535
0.964595
0.892594
0.972723
0.911652
0.946502
0.968334
0.957058
0.973999
0.960673
0.946724
0.900687
0.918975
0.943085
0.931965
0.976043
0.902744
0.898625
0.941176
0.943231
0.937158
0.915973
0.956541
0.953207
0.948697
0.808932
0.93728
0.886636
0.904145
0.938879
0.941137
0.938376
0.929053
0.960299
0.914574
0.978582
0.943167
0.885045
0.952433
0.942497
0.971277
0.936802
0.927105
0.914499
0.930691
0.941541
0.97016
0.928565
0.944477
0.945186
0.964458
0.929099
0.943843
0.931488
0.970501
0.91234
0.914158
0.866136
0.962509
0.915639
0.929794
0.919315
0.925282
0.973307
0.941778
0.955164
0.964717
0.954595
0.875655
0.968579
0.904748
0.948309
0.952922
0.934899
0.919093
0.941525
0.935735
0.91033
0.935272
0.873398
0.917999
0.94159
0.876532
0.925943
0.964844
0.921703
0.915118
0.936703
0.97339
0.940115
0.911053
0.952119
0.921458
0.926265
0.944485
0.939848
0.948841
0.946651
0.973974
0.941162
0.958934
0.948067
0.968178
0.974735
0.971017
0.878875
0.931526
0.946775
0.911337
0.976988
0.96774
0.963594
0.941506
0.913652
0.914875
0.947492
0.95896
0.907237
0.964046
0.965007
0.952501
0.916397
0.910475
0.919895
0.889589
0.939888
0.907389
0.946901
0.928981
0.950315
0.91875
0.939773
0.91476
0.949002
0.950594
0.95286
0.939089
0.947376
0.970125
0.975151
0.942312
0.93724
0.958437
0.94598
0.925872
0.933948
0.94501
0.924587
0.973526
0.941454
0.94561
0.954476
0.956405
0.934915
0.870198
0.980718
0.944585
0.939557
0.944263
0.944147
0.958306
0.968839
0.943529
0.949476
0.911655
0.92972
0.937027
0.952206
0.946716
0.940108
0.943281
0.974356
0.949883
0.931257
0.967435
0.946579
0.917591
0.935078
0.979392
0.922709
0.913099
0.934534
0.980399
0.936903
0.943426
0.958545
0.960593
0.965097
0.944696
0.915085
0.949469
0.930816
0.937908
0.963969
0.93911
0.913025
0.907613
0.93864
0.950515
0.927084
0.916323
0.968203
0.942484
0.967702
0.96346
0.913679
0.909821
0.939746
0.960291
0.967695
0.939521
0.936723
0.882177
0.94198
0.935291
0.966671
0.970217
0.961692
0.916234
0.910838
0.956777
0.978666
0.973401
0.960989
0.96803
0.937026
0.936572
0.909354
0.913003
0.970679
0.945592
0.841374
0.923582
0.977638
0.942868
0.915539
0.917085
0.941963
0.933433
0.964459
0.947172
0.953766
0.96759
0.968931
0.93402
0.949093
0.940379
0.94278
0.919336
0.951901
0.934905
0.970464
0.845886
0.947596
0.821539
0.939147
0.970015
0.950877
0.962592
0.970097
0.969132
0.926732
0.941897
0.93757
0.896309
0.971363
0.948333
0.932871
0.947126
0.77907
0.923355
0.957714
0.950853
0.973907
0.912026
0.919184
0.941595
0.970232
0.851604
0.931576
0.937771
0.864546
0.910256
0.958122
0.911309
0.936926
0.915505
0.964024
0.974406
0.781036
0.951862
0.946655
0.927085
0.916285
0.941998
0.934802
0.944965
0.924981
0.944248
0.937638
0.935446
0.938971
0.964166
0.932034
0.913007
0.93506
0.911106
0.919429
0.937965
0.880912
0.936701
0.930116
0.944882
0.965427
0.948056
0.944161
0.838487
0.961493
0.934735
0.935886
0.977951
0.944702
0.944366
0.85611
0.843202
0.970573
0.921511
0.943543
0.951202
0.931846
0.96336
0.838833
0.966766
0.939986
0.959531
0.938659
0.946166
0.940639
0.919157
0.929979
0.939179
0.973675
0.909691
0.918057
0.927854
0.976771
0.975079
0.878645
0.936153
0.943419
0.955171
0.936245
0.972981
0.964788
0.963352
0.9614
0.944996
0.929837
0.909333
0.971302
0.931678
0.942481
0.881948
0.915064
0.926682
0.914715
0.970575
0.85855
0.969494
0.933556
0.970578
0.945627
0.969696
0.958171
0.944744
0.972183
0.970263
0.97905
0.940861
0.96612
0.933435
0.945269
0.922744
0.928255
0.974146
0.859703
0.940888
0.950303
0.940956
0.947668
0.942324
0.96617
0.938752
0.958404
0.91448
0.920415
0.947706
0.96177
0.879702
0.952541
0.919064
0.946626
0.914988
0.939096
0.95022
0.959667
0.973194
0.917206
0.939695
0.942092
0.947008
0.964621
0.892465
0.913376
0.977549
0.91043
0.936344
0.958429
0.970231
0.972685
0.915017
0.925141
0.926308
0.92463
0.898106
0.942098
0.941392
0.942774
0.926651
0.937942
0.941633
0.930109
0.899643
0.928863
0.941898
0.920565
0.959532
0.958263
0.90589
0.95989
0.84562
0.927465
0.871692
0.928195
0.97392
0.946034
0.945479
0.94322
0.963703
0.970001
0.943996
0.960717
0.89964
0.942149
0.937727
0.945601
0.917226
0.972456
0.943861
0.926763
0.976112
0.962993
0.920315
0.97043
0.913785
0.945448
0.943912
0.947371
0.88194
0.967669
0.941089
0.944694
0.944981
0.926651
0.919012
0.92596
0.957232
0.964801
0.967223
0.942085
0.949887
0.972408
0.950333
0.941226
0.932234
0.927336
0.938569
0.962743
0.920435
0.969165
0.944422
0.971504
0.977565
0.972297
0.940258
0.949019
0.966495
0.826634
0.973167
0.865334
0.972214
0.962453
0.942326
0.94095
0.936509
0.940921
0.861704
0.896827
0.937927
0.906378
0.974754
0.91735
0.921072
0.893647
0.913218
0.945591
0.965117
0.980287
0.916517
0.946074
0.945516
0.944105
0.93625
0.941265
0.969793
0.962059
0.942006
0.968175
0.962422
0.977021
0.917855
0.925169
0.90719
0.961161
0.975897
0.965231
0.942611
0.970289
0.941047
0.911026
0.939454
0.909039
0.928348
0.917841
0.980103
0.967926
0.947451
0.980799
0.961787
0.940034
0.970747
0.923938
0.965557
0.93688
0.971599
0.936023
0.915966
0.958034
0.949523
0.972103
0.972355
0.972201
0.913426
0.90914
0.906411
0.965157
0.96242
0.88151
0.931929
0.963455
0.919146
0.936971
0.918435
0.931315
0.949438
0.932623
0.943414
0.928559
0.945486
0.949127
0.955913
0.938065
0.929169
0.947185
0.947199
0.940496
0.967703
0.976975
0.880194
0.961576
0.919058
0.931646
0.971616
0.962897
0.933669
0.97207
0.919435
0.95811
0.933383
0.921159
0.967213
0.936505
0.96097
0.953881
0.956209
0.973859
0.956297
0.926207
0.953623
0.918462
0.959931
0.966768
0.95246
0.937618
0.916519
0.920813
0.967491
0.930762
0.952057
0.911508
0.940475
0.963741
0.959064
0.942006
0.967228
0.971396
0.928497
0.936166
0.949314
0.917109
0.927787
0.943322
0.953361
0.94038
0.922845
0.876206
0.912433
0.956079
0.938259
0.960511
0.921564
0.97255
0.948666
0.969724
0.975844
0.936359
0.970046
0.922572
0.948405
0.930753
0.964595
0.909368
0.939383
0.932108
0.914471
0.936134
0.922846
0.912359
0.917999
0.977578
0.980933
0.943553
0.913867
0.958991
0.914154
0.884117
0.940886
0.955789
0.956095
0.918468
0.91727
0.972416
0.911496
0.950472
0.914987
0.923117
0.93836
0.906746
0.968374
0.947316
0.926523
0.972646
0.968151
0.925534
0.950253
0.941332
0.97888
0.943321
0.934741
0.919695
0.951383
0.976916
0.950571
0.8897
0.920813
0.93436
0.949719
0.971384
0.976968
0.911002
0.971081
0.923036
0.945695
0.94908
0.940679
0.933275
0.9666
0.877064
0.948746
0.906477
0.923533
0.898338
0.918471
0.95548
0.972348
0.923921
0.927843
0.9476
0.932368
0.871933
0.905388
0.926775
0.956267
0.817815
0.929071
0.952707
0.94629
0.941728
0.950493
0.965311
0.852431
0.848317
0.966638
0.942516
0.874941
0.936584
0.963258
0.955775
0.943429
0.904981
0.947418
0.909536
0.971737
0.964573
0.978249
0.939272
0.955442
0.92278
0.946946
0.968702
0.915325
0.926037
0.957339
0.964271
0.920418
0.921918
0.898314
0.854361
0.902096
0.97849
0.932759
0.919603
0.88532
0.916143
0.960092
0.90329
0.925848
0.915352
0.964978
0.936352
0.973179
0.924974
0.939066
0.947813
0.948598
0.937234
0.952374
0.913221
0.972932
0.950539
0.948798
0.967247
0.929668
0.969905
0.947778
0.936088
0.97038
0.912758
0.932187
0.968029
0.948101
0.916359
0.925594
0.955047
0.968915
0.944857
0.959871
0.902923
0.921183
0.91305
0.905144
0.968464
0.928112
0.942606
0.976797
0.940243
0.857823
0.915261
0.944342
0.912845
0.937591
0.919568
0.92723
0.932355
0.96046
0.972499
0.953473
0.909949
0.935328
0.914292
0.939517
0.954674
0.941849
0.941747
0.955893
0.935787
0.941274
0.966711
0.964647
0.972265
0.970241
0.970283
0.939202
0.922927
0.918165
0.917076
0.970836
0.946507
0.923942
0.970814
0.926365
0.965298
0.960514
0.921287
0.909101
0.932572
0.944201
0.964498
0.936652
0.955376
0.944444
0.973613
0.950707
0.970367
0.9266
0.943113
0.930226
0.917229
0.933681
0.965128
0.868949
0.773726
0.941731
0.95906
0.960325
0.938563
0.916838
0.914384
0.93064
0.911098
0.939039
0.941751
0.921111
0.958036
0.944098
0.91657
0.94148
0.931449
0.898849
0.96182
0.93167
0.939968
0.908751
0.953685
0.927865
0.916325
0.933911
0.933242
0.927336
0.916923
0.855108
0.962808
0.975293
0.967313
0.948341
0.959011
0.923403
0.969889
0.946777
0.949803
0.895528
0.957631
0.928955
0.935886
0.962241
0.973541
0.963256
0.944979
0.949664
0.975439
0.923679
0.961135
0.971579
0.954156
0.939108
0.920436
0.964252
0.933358
0.927469
0.951478
0.939178
0.974694
0.924739
0.97689
0.973488
0.942707
0.926752
0.973302
0.91707
0.925933
0.933485
0.920041
0.930526
0.928194
0.924926
0.944862
0.913108
0.914132
0.941322
0.942792
0.930047
0.930626
0.948945
0.943769
0.934771
0.970337
0.974371
0.97508
0.915757
0.931628
0.966605
0.915352
0.944333
0.888442
0.942048
0.889432
0.958346
0.94315
0.942906
0.920598
0.914077
0.929937
0.948977
0.931369
0.9415
0.945592
0.937624
0.971229
0.951477
0.951571
0.927808
0.967086
0.927386
0.944225
0.974039
0.924452
0.929412
0.919147
0.95597
0.97751
0.924933
0.94709
0.933189
0.91828
0.907903
0.940316
0.913717
0.958113
0.925828
0.939711
0.942817
0.942126
0.916792
0.940365
0.94195
0.934134
0.948383
0.96914
0.943282
0.934105
0.940305
0.973439
0.945008
0.914094
0.960856
0.916596
0.942476
0.903721
0.925994
0.933957
0.868003
0.918849
0.97652
0.965197
0.910995
0.946183
0.919712
0.896908
0.914277
0.915292
0.925264
0.922551
0.925614
0.95391
0.982214
0.938287
0.958758
0.942535
0.972329
0.945832
0.981214
0.94851
0.929287
0.95303
0.962459
0.940103
0.962712
0.904387
0.967789
0.937451
0.773216
0.944563
0.979097
0.979561
0.9553
0.954894
0.957368
0.931934
0.935831
0.952627
0.969348
0.791656
0.936535
0.899873
0.929447
0.945643
0.909716
0.915032
0.927096
0.922939
0.916933
0.934014
0.942554
0.97318
0.967084
0.918392
0.964431
0.915327
0.943771
0.96494
0.9446
0.942252
0.9516
0.796801
0.921847
0.946514
0.968104
0.922551
0.929238
0.946507
0.952169
0.915175
0.973778
0.925162
0.947512
0.944239
0.937569
0.952797
0.953992
0.97421
0.904766
0.961267
0.941194
0.952066
0.916234
0.950734
0.934928
0.911826
0.919888
0.93706
0.939058
0.945253
0.968728
0.941161
0.89736
0.953418
0.924517
0.921634
0.943176
0.945952
0.919752
0.981671
0.922499
0.925836
0.924182
0.943773
0.918454
0.884895
0.958469
0.935743
0.941812
0.926106
0.905098
0.937774
0.857109
0.975929
0.963773
0.922489
0.917095
0.970505
0.926003
0.918491
0.913437
0.901352
0.932649
0.943491
0.969738
0.920086
0.931006
0.953821
0.942685
0.925046
0.922726
0.938905
0.957747
0.976326
0.922007
0.909585
0.945987
0.96889
0.936726
0.946571
0.941761
0.907338
0.946005
0.950672
0.937661
0.911751
0.959211
0.944258
0.906885
0.944999
0.921283
0.963532
0.972014
0.919862
0.945279
0.939589
0.944978
0.920437
0.948208
0.934009
0.971605
0.963109
0.955948
0.923257
0.928072
0.960599
0.97243
0.933283
0.944329
0.938292
0.920929
0.939739
0.94304
0.915778
0.831223
0.917691
0.937883
0.92449
0.919573
0.924038
0.935925
0.960618
0.915246
0.919036
0.93085
0.91621
0.9625
0.918662
0.949198
0.941289
0.914235
0.949007
0.947065
0.948053
0.94094
0.956719
0.924005
0.922838
0.972982
0.908673
0.971069
0.947679
0.932003
0.934982
0.967015
0.943386
0.916961
0.975235
0.904513
0.938018
0.968942
0.908897
0.979434
0.921883
0.944165
0.823962
0.947215
0.917016
0.947741
0.929631
0.910832
0.933555
0.91248
0.923598
0.971393
0.913982
0.940742
0.949389
0.943973
0.971916
0.974477
0.936347
0.90101
0.965323
0.931799
0.970092
0.928435
0.935577
0.949949
0.936702
0.963594
0.941807
0.945814
0.926476
0.946063
0.888153
0.905932
0.967927
0.724052
0.969261
0.95569
0.926007
0.919069
0.936599
0.975734
0.952689
0.952988
0.945535
0.94961
0.942997
0.969103
0.963062
0.916354
0.95118
0.971519
0.940046
0.943356
0.94625
0.92241
0.920687
0.947276
0.947646
0.939248
0.978829
0.914792
0.928999
0.946799
0.935158
0.935881
0.971736
0.923111
0.929722
0.928716
0.938714
0.92188
0.968379
0.906625
0.940847
0.933759
0.936689
0.913809
0.90979
0.952068
0.90305
0.91547
0.970513
0.939825
0.929731
0.9158
0.915967
0.931406
0.970214
0.976134
0.92857
0.934412
0.937367
0.96535
0.973526
0.926226
0.971219
0.93274
0.951648
0.948288
0.967913
0.938024
0.966346
0.972103
0.913281
0.902065
0.940589
0.933517
0.938388
0.832697
0.8581
0.954918
0.964094
0.919434
0.973276
0.940785
0.9565
0.943007
0.917446
0.965533
0.962006
0.944233
0.906821
0.918608
0.972278
0.960683
0.967995
0.913056
0.937543
0.949815
0.965214
0.952651
0.94759
0.938571
0.971457
0.937621
0.935438
0.942717
0.937438
0.943192
0.837959
0.963136
0.94284
0.946056
0.971795
0.912181
0.919659
0.926982
0.922217
0.969359
0.924461
0.950512
0.843489
0.927458
0.939161
0.9252
0.919572
0.950788
0.912779
0.920559
0.942616
0.945927
0.971965
0.926196
0.940775
0.967697
0.935336
0.970703
0.937547
0.952826
0.936558
0.928417
0.974992
0.915625
0.921087
0.944739
0.970505
0.956302
0.939585
0.898474
0.974303
0.948727
0.939612
0.957431
0.970253
0.957561
0.951555
0.916602
0.91234
0.936566
0.91748
0.946253
0.944433
0.914905
0.974678
0.968529
0.969629
0.949007
0.94457
0.916919
0.936525
0.957512
0.920355
0.953406
0.970307
0.936576
0.944186
0.943624
0.960299
0.950397
0.944125
0.915431
0.955499
0.901112
0.835469
0.931159
0.978142
0.915543
0.962748
0.933262
0.89976
0.958537
0.942789
0.97422
0.783595
0.946768
0.951301
0.972263
0.937218
0.972635
0.941912
0.914297
0.934739
0.93909
0.939536
0.910962
0.962293
0.943119
0.92191
0.912221
0.937925
0.948458
0.906933
0.948056
0.967586
0.919327
0.969006
0.922698
0.892247
0.909084
0.93963
0.924747
0.918541
0.899191
0.905373
0.940046
0.935812
0.958473
0.939332
0.968268
0.909525
0.948112
0.918701
0.924164
0.910747
0.951433
0.971472
0.925736
0.92535
0.981437
0.938667
0.95116
0.955867
0.934297
0.944963
0.947071
0.943547
0.973141
0.969593
0.970788
0.944833
0.924481
0.928886
0.934755
0.971559
0.947024
0.928418
0.887249
0.926038
0.946027
0.973262
0.940427
0.97143
0.928243
0.936282
0.935667
0.908871
0.933273
0.927786
0.968982
0.917249
0.923151
0.921929
0.976776
0.946284
0.921141
0.915667
0.905301
0.960527
0.940025
0.931363
0.922539
0.93543
0.918676
0.93981
0.933057
0.915094