/*--------------------------------*- C++ -*----------------------------------*\
  =========                 |
  \\      /  F ield         | OpenFOAM: The Open Source CFD Toolbox
   \\    /   O peration     | Website:  https://openfoam.org
    \\  /    A nd           | Version:  6
     \\/     M anipulation  |
\*---------------------------------------------------------------------------*/
FoamFile
{
    version     2.0;
    format      ascii;
    class       volScalarField;
    location    "0";
    object      P_rec;
}
// * * * * * * * * * * * * * * * * * * * * * * * * * * * * * * * * * * * * * //

dimensions      [0 2 -2 0 0 0 0];

internalField   nonuniform List<scalar> 
13046
(
0.657701
0.661564
0.748504
0.663539
0.729978
0.691962
0.642967
0.692908
0.740542
0.341851
0.553114
0.748767
0.624898
0.660342
0.747425
0.405148
0.759471
0.537596
0.715421
0.716915
0.666733
0.395754
0.758171
0.542832
0.670772
0.6871
0.732388
0.613692
0.648136
0.755169
0.662521
0.652593
0.744978
0.685581
0.728762
0.684582
0.684809
0.72765
0.694015
0.684596
0.74558
0.617423
0.691689
0.713985
0.703761
0.684673
0.708031
0.713744
0.642855
0.665486
0.748757
0.736949
0.700003
0.566954
0.738182
0.546535
0.708666
0.548627
0.548659
0.767294
0.546959
0.67673
0.745754
0.752655
0.597575
0.443847
0.570448
0.546139
0.765062
0.587242
0.552106
0.763672
0.538728
0.531813
0.766629
0.712099
0.727311
0.653062
0.767956
0.494895
0.537704
0.65975
0.6893
0.734017
0.751729
0.587173
0.421152
0.425333
0.744286
0.633403
0.729569
0.390175
0.657673
0.547349
0.52625
0.630354
0.627189
0.754021
0.757007
0.742703
0.430922
0.644332
0.67759
0.715118
0.709511
0.724385
0.567163
0.728279
0.696019
0.743232
0.5863
0.251888
0.742921
0.515192
0.636658
0.669659
0.742172
0.526336
0.545084
0.60191
0.758975
0.615799
0.757592
0.322923
0.540397
0.749356
0.585814
0.633072
0.758414
0.674105
0.747483
0.62125
0.726555
0.409494
0.668619
0.488654
0.628958
0.751884
0.651844
0.648099
0.745394
0.598054
0.705088
0.735271
0.700455
0.738683
0.579798
0.723305
0.584885
0.729519
0.5386
0.664831
0.746303
0.735193
0.616527
0.714839
0.721477
0.527706
0.712195
0.517989
0.722402
0.727411
0.594085
0.708075
0.728701
0.339262
0.745503
0.565996
0.280355
0.745404
0.522823
0.478531
0.61688
0.754989
0.663697
0.590797
0.754649
0.601722
0.72384
0.715362
0.745712
0.589613
0.353333
0.671718
0.60122
0.749828
0.731529
0.60346
0.71712
0.612027
0.706547
0.731423
0.658746
0.75287
0.597378
0.64567
0.752821
0.409911
0.746331
0.608915
0.735465
0.432454
0.66188
0.391675
0.642323
0.731636
0.743119
0.537075
0.688365
0.616866
0.501591
0.769977
0.530409
0.62731
0.377212
0.736805
0.67372
0.726691
0.701375
0.627655
0.645781
0.755013
0.73244
0.426352
0.669201
0.605479
0.666791
0.752786
0.742475
0.551082
0.291952
0.695158
0.530462
0.73838
0.414789
0.648926
0.735365
0.550995
0.70884
0.731445
0.584405
0.623228
0.76003
0.697015
0.452125
0.720516
0.499065
0.710581
0.722707
0.738742
0.555909
0.274784
0.691702
0.749329
0.582575
0.267586
0.74717
0.483825
0.717132
0.6673
0.712347
0.556006
0.563765
0.700384
0.707477
0.736429
0.733119
0.764214
0.471898
0.537723
0.604636
0.627694
0.755952
0.486051
0.699229
0.729245
0.505168
0.614131
0.755515
0.699674
0.693734
0.71774
0.531253
0.705654
0.730771
0.603546
0.615067
0.75868
0.606543
0.594084
0.690749
0.748352
0.57163
0.521413
0.695756
0.733787
0.483166
0.754714
0.612398
0.706547
0.737633
0.597688
0.718574
0.516959
0.722064
0.554043
0.592945
0.759477
0.694518
0.741539
0.566178
0.535968
0.523019
0.585631
0.760141
0.587486
0.762337
0.746557
0.591352
0.36965
0.562032
0.615098
0.759561
0.477748
0.740366
0.202275
0.643649
0.718098
0.714583
0.564596
0.678807
0.745248
0.749185
0.435134
0.614197
0.738328
0.530524
0.706206
0.685563
0.443042
0.725496
0.680593
0.746113
0.556514
0.658479
0.750702
0.682718
0.7437
0.428965
0.759355
0.546987
0.748405
0.528093
0.682874
0.540217
0.656036
0.749698
0.587976
0.702746
0.738167
0.572389
0.729605
0.715628
0.655635
0.676493
0.741263
0.707974
0.525408
0.728907
0.400602
0.621349
0.740979
0.682996
0.444921
0.729565
0.611619
0.76087
0.555227
0.509771
0.528459
0.568494
0.562031
0.761494
0.761888
0.742041
0.482625
0.222562
0.285207
0.749738
0.48914
0.543491
0.697378
0.73197
0.746615
0.397361
0.596909
0.580797
0.565732
0.570825
0.574581
0.76411
0.763857
0.728165
0.619925
0.331712
0.25328
0.748314
0.464542
0.674377
0.706649
0.720957
0.24705
0.494829
0.744495
0.647719
0.60077
0.754842
0.360338
0.599194
0.743781
0.495382
0.734219
0.15351
0.692496
0.741987
0.62567
0.651403
0.716318
0.722623
0.330633
0.752096
0.529605
0.63975
0.716406
0.723548
0.682018
0.707401
0.71778
0.702847
0.512345
0.73874
0.640662
0.732033
0.710394
0.648504
0.719612
0.712624
0.628089
0.554046
0.759231
0.756112
0.754442
0.555037
0.56019
0.37711
0.370697
0.378485
0.618641
0.738757
0.765385
0.601685
0.54321
0.68049
0.747229
0.598799
0.493632
0.714195
0.714233
0.543709
0.729376
0.197266
0.732004
0.380971
0.646169
0.294925
0.745839
0.536814
0.734187
0.479783
0.143017
0.454157
0.737704
0.169476
0.68028
0.506444
0.737138
0.594086
0.726127
0.274393
0.473446
0.633082
0.749951
0.374611
0.759239
0.506843
0.630782
0.741998
0.681874
0.628931
0.729988
0.349577
0.501987
0.710963
0.71966
0.69134
0.484089
0.734503
0.733899
0.41206
0.0795293
0.496412
0.738228
0.187351
0.645973
0.740525
0.683546
0.608444
0.328176
0.732112
0.727741
0.310989
0.615869
0.401971
0.749323
0.587793
0.762508
0.553151
0.4611
0.64075
0.540895
0.761848
0.560944
0.547828
0.766665
0.764368
0.436848
0.52559
0.631691
0.619445
0.61746
0.610287
0.755953
0.757255
0.644637
0.612511
0.754606
0.591955
0.558434
0.766819
0.685892
0.463083
0.730136
0.618085
0.374768
0.741746
0.73417
0.454833
0.669621
0.456859
0.739525
0.191046
0.682693
0.674936
0.746022
0.635856
0.746322
0.646213
0.619403
0.628587
0.759852
0.573961
0.761873
0.579983
0.512008
0.729633
0.159727
0.609701
0.344998
0.734756
0.674468
0.747579
0.573208
0.703166
0.468533
0.720607
0.763288
0.553229
0.476297
0.527843
0.235796
0.738666
0.543615
0.248505
0.737274
0.568358
0.584913
0.764393
0.713408
0.731991
0.606348
0.382874
0.749542
0.576482
0.678871
0.487774
0.741095
0.757255
0.596211
0.466177
0.641075
0.760456
0.573429
0.560221
0.717412
0.723931
0.689267
0.745328
0.60493
0.747519
0.579389
0.363431
0.504944
0.601204
0.75873
0.69258
0.740999
0.634976
0.413378
0.763577
0.515328
0.645777
0.635027
0.752524
0.622917
0.707028
0.734582
0.693694
0.498959
0.732907
0.318946
0.754905
0.494091
0.335368
0.757253
0.492528
0.759259
0.585233
0.465221
0.547737
0.725054
0.718063
0.753544
0.479502
0.293491
0.748226
0.626793
0.451944
0.731177
0.471786
0.119711
0.151149
0.429313
0.739375
0.76361
0.538701
0.442186
0.743555
0.566583
0.319429
0.402402
0.421655
0.753719
0.560439
0.754817
0.572119
0.447546
0.636353
0.745552
0.722256
0.711808
0.471471
0.67997
0.737199
0.664438
0.46116
0.655797
0.742662
0.740875
0.46962
0.665903
0.454533
0.765305
0.524057
0.611551
0.562486
0.763862
0.634803
0.595387
0.754717
0.510133
0.664261
0.74851
0.499375
0.66575
0.745568
0.698462
0.733003
0.649088
0.615658
0.596686
0.761345
0.726848
0.637526
0.352011
0.239301
0.733054
0.556175
0.219664
0.729839
0.558709
0.667361
0.751699
0.611394
0.520936
0.735229
0.207147
0.485986
0.759529
0.587135
0.73252
0.52836
0.188548
0.668279
0.726128
0.700793
0.588082
0.654924
0.750714
0.728955
0.556518
0.71403
0.727662
0.600304
0.296358
0.682391
0.490141
0.737922
0.760413
0.396709
0.519247
0.565642
0.649284
0.75661
0.68474
0.73598
0.669976
0.592648
0.30885
0.734744
0.753673
0.608418
0.449132
0.312341
0.293809
0.749628
0.748264
0.516942
0.509396
0.571572
0.694486
0.740863
0.686154
0.520864
0.7345
0.631469
0.696554
0.74075
0.571798
0.263817
0.578945
0.733345
0.261412
0.729895
0.527756
0.637131
0.756199
0.304622
0.282177
0.581247
0.572592
0.737394
0.734928
0.526438
0.691806
0.742385
0.592296
0.676274
0.746049
0.358045
0.758892
0.508088
0.57755
0.684434
0.743325
0.62215
0.693666
0.737633
0.320581
0.753453
0.508534
0.565023
0.639563
0.75266
0.727178
0.494747
0.708044
0.643132
0.562411
0.759047
0.678216
0.722015
0.418043
0.734846
0.429975
0.103531
0.568733
0.672112
0.747593
0.374695
0.754889
0.533906
0.755742
0.533802
0.663031
0.200685
0.744598
0.448976
0.71925
0.713281
0.725615
0.610547
0.730563
0.602813
0.635266
0.704816
0.732383
0.701619
0.711712
0.735426
0.621802
0.734319
0.616004
0.581957
0.680602
0.748214
0.592642
0.68682
0.745764
0.727378
0.571372
0.233118
0.656789
0.620681
0.750027
0.324295
0.579714
0.742077
0.501501
0.483342
0.652893
0.645846
0.747074
0.745748
0.655974
0.633274
0.750463
0.594095
0.584596
0.761236
0.533676
0.655306
0.752982
0.693932
0.679142
0.725345
0.478123
0.655841
0.744481
0.682002
0.736388
0.660365
0.536415
0.682619
0.744765
0.59373
0.597939
0.760382
0.690513
0.695927
0.668353
0.734271
0.662598
0.733505
0.703983
0.727527
0.713398
0.647371
0.734672
0.625475
0.633727
0.622489
0.627563
0.635853
0.75495
0.753323
0.760438
0.565783
0.465492
0.704351
0.513312
0.731271
0.761362
0.75919
0.560351
0.572365
0.444831
0.442032
0.688672
0.74712
0.550316
0.696886
0.718382
0.693827
0.471078
0.645388
0.746581
0.67532
0.745708
0.629701
0.582577
0.599333
0.760932
0.500146
0.503651
0.564414
0.76438
0.576713
0.761833
0.507847
0.638434
0.751113
0.221854
0.466203
0.7453
0.751562
0.539436
0.671689
0.652922
0.658813
0.757132
0.545306
0.758656
0.550146
0.468024
0.677875
0.734974
0.60684
0.583788
0.761691
0.68023
0.748326
0.557077
0.660284
0.6587
0.752876
0.758197
0.574983
0.576312
0.653084
0.758296
0.559976
0.513608
0.647854
0.75147
0.692356
0.733895
0.658505
0.347253
0.751641
0.53287
0.673528
0.751387
0.549172
0.585423
0.566971
0.610096
0.603878
0.75753
0.762536
0.753638
0.54135
0.364674
0.359907
0.757219
0.519968
0.342024
0.753603
0.519874
0.48498
0.761447
0.576273
0.617793
0.594045
0.76018
0.669194
0.747547
0.773925
0.671877
0.774312
0.561157
0.765956
0.679812
0.707934
0.772166
0.77128
0.706868
0.681271
0.772546
0.758252
0.697668
0.67306
0.753363
0.750966
0.767601
0.761146
0.747454
0.771417
0.761396
0.778021
0.747887
0.777392
0.712684
0.763927
0.673774
0.717889
0.764529
0.760741
0.759648
0.727821
0.76668
0.775864
0.77203
0.685654
0.714261
0.74562
0.741826
0.731808
0.771218
0.750861
0.7556
0.757868
0.746487
0.707142
0.735772
0.775509
0.760549
0.699656
0.760454
0.715452
0.774163
0.769476
0.761605
0.749096
0.770566
0.735651
0.733472
0.777687
0.685794
0.764812
0.769495
0.763001
0.77061
0.771997
0.745928
0.720076
0.726424
0.726271
0.769203
0.722843
0.758285
0.734033
0.726537
0.765301
0.772139
0.749847
0.76329
0.704523
0.705231
0.758273
0.767798
0.757787
0.674564
0.759583
0.774514
0.70535
0.77214
0.778113
0.759283
0.687804
0.524244
0.725901
0.748448
0.687254
0.718244
0.766265
0.772271
0.752359
0.767324
0.70039
0.664175
0.707861
0.709339
0.727491
0.775781
0.772478
0.765711
0.712975
0.730018
0.716367
0.749871
0.759877
0.67631
0.713881
0.750981
0.760101
0.767956
0.762871
0.769533
0.754423
0.724966
0.710957
0.77591
0.643514
0.768531
0.719303
0.772065
0.705454
0.602035
0.66259
0.771994
0.756827
0.705133
0.723546
0.764587
0.693094
0.768229
0.729967
0.717833
0.757275
0.75957
0.702091
0.773428
0.724448
0.759423
0.706026
0.7485
0.686627
0.776343
0.771244
0.756819
0.770145
0.767789
0.773885
0.735643
0.722919
0.716275
0.755014
0.642679
0.703958
0.708958
0.756296
0.75308
0.765424
0.774393
0.761818
0.776257
0.77706
0.774483
0.701062
0.716692
0.709486
0.773593
0.708956
0.702092
0.632528
0.702369
0.754587
0.754941
0.762717
0.775518
0.770942
0.745828
0.771628
0.752727
0.745618
0.59547
0.753697
0.727639
0.718482
0.768761
0.767666
0.72542
0.746874
0.757591
0.764101
0.666213
0.72548
0.769103
0.775571
0.735505
0.706081
0.749869
0.757344
0.746605
0.740911
0.677992
0.629321
0.720952
0.727265
0.716934
0.714751
0.673984
0.77206
0.758098
0.716619
0.759611
0.702919
0.701185
0.768022
0.767972
0.697574
0.704387
0.659153
0.767859
0.722513
0.753436
0.765584
0.761227
0.710332
0.765115
0.74379
0.709674
0.713172
0.772829
0.763262
0.762834
0.775281
0.742365
0.692798
0.707857
0.758196
0.759653
0.698916
0.717527
0.763259
0.769906
0.77048
0.764114
0.702859
0.756912
0.729441
0.762794
0.746026
0.723945
0.756894
0.746892
0.623379
0.705636
0.723374
0.701781
0.732178
0.766847
0.753188
0.761056
0.768476
0.685996
0.755771
0.740173
0.758955
0.752757
0.752132
0.765085
0.709518
0.700273
0.750719
0.706544
0.705173
0.763043
0.610881
0.705833
0.773509
0.766132
0.717772
0.714072
0.718327
0.763362
0.67343
0.620139
0.6925
0.756246
0.760813
0.758429
0.561732
0.695728
0.773954
0.745527
0.666346
0.699575
0.709349
0.715861
0.704897
0.758928
0.76967
0.717082
0.710528
0.733478
0.73498
0.745976
0.655999
0.770106
0.755348
0.608668
0.71388
0.705174
0.716618
0.76753
0.756217
0.769739
0.735432
0.694224
0.748528
0.761218
0.764719
0.737929
0.7752
0.769955
0.740292
0.765361
0.757858
0.731212
0.7105
0.747111
0.678816
0.747435
0.746956
0.718163
0.694663
0.69156
0.692557
0.674567
0.77347
0.701488
0.723583
0.766842
0.760445
0.707858
0.697195
0.776671
0.746633
0.604704
0.745064
0.717371
0.709142
0.774081
0.741285
0.730411
0.761336
0.719446
0.75557
0.715957
0.76425
0.748843
0.736864
0.534354
0.699153
0.71871
0.748706
0.755382
0.756784
0.756425
0.775529
0.688888
0.718053
0.685943
0.645793
0.710779
0.772022
0.733773
0.749494
0.725036
0.752982
0.705848
0.672241
0.692937
0.71429
0.713664
0.778074
0.738056
0.742747
0.772293
0.771024
0.755841
0.776985
0.673713
0.729079
0.709042
0.759981
0.758038
0.767195
0.744893
0.753581
0.718674
0.746359
0.705141
0.652479
0.765226
0.738028
0.647241
0.696689
0.714631
0.695328
0.718887
0.74987
0.758932
0.699033
0.724103
0.710694
0.714965
0.711108
0.731352
0.67063
0.71629
0.773868
0.773217
0.770263
0.755756
0.758059
0.599898
0.769608
0.762065
0.699572
0.775267
0.584843
0.769746
0.725827
0.757416
0.737561
0.768742
0.747362
0.688398
0.766038
0.686772
0.774551
0.75935
0.715841
0.728611
0.673097
0.736778
0.77502
0.725748
0.763991
0.767852
0.709139
0.661624
0.769259
0.594383
0.756301
0.757486
0.706319
0.776667
0.639561
0.635481
0.768392
0.748479
0.770128
0.766063
0.754536
0.765961
0.776106
0.771777
0.768734
0.766714
0.70694
0.733697
0.751506
0.773549
0.733077
0.57922
0.766975
0.722101
0.756333
0.731706
0.774929
0.749911
0.733961
0.771652
0.746403
0.776272
0.695225
0.771573
0.753117
0.773088
0.764223
0.768443
0.730395
0.754717
0.697901
0.683773
0.753612
0.730859
0.75142
0.669771
0.592203
0.708186
0.735567
0.755275
0.739295
0.776674
0.733848
0.701377
0.744999
0.707269
0.773553
0.677747
0.752637
0.759955
0.774425
0.742055
0.766216
0.690271
0.757553
0.771417
0.712346
0.674422
0.756442
0.735191
0.76773
0.771269
0.73388
0.706497
0.749585
0.715046
0.700837
0.774624
0.772189
0.765212
0.67498
0.771377
0.753146
0.776102
0.714933
0.764848
0.75734
0.761879
0.75692
0.681422
0.711421
0.729212
0.573343
0.77239
0.759248
0.757263
0.771656
0.767843
0.745258
0.753924
0.751718
0.775736
0.772135
0.754994
0.753727
0.74044
0.765905
0.756408
0.725875
0.730272
0.736087
0.73479
0.760452
0.720404
0.769539
0.773582
0.710973
0.772586
0.71259
0.700243
0.717325
0.77067
0.747073
0.755713
0.760483
0.771502
0.755855
0.761679
0.770356
0.72142
0.713393
0.694939
0.702207
0.70394
0.510271
0.707591
0.71181
0.76091
0.709393
0.73127
0.759206
0.749992
0.704818
0.72071
0.731277
0.527299
0.775109
0.735626
0.760536
0.709411
0.731791
0.75455
0.68029
0.764509
0.708858
0.770672
0.734892
0.773103
0.670647
0.627112
0.72889
0.734888
0.740627
0.761855
0.630245
0.758668
0.737387
0.703355
0.682882
0.722936
0.730214
0.772419
0.674737
0.768458
0.770579
0.759228
0.708938
0.771123
0.708613
0.511061
0.756452
0.712851
0.705091
0.770517
0.770456
0.758631
0.762728
0.739176
0.771776
0.776308
0.7571
0.737198
0.767357
0.775831
0.76708
0.759396
0.7558
0.769013
0.713095
0.71068
0.77322
0.771342
0.774982
0.75053
0.738845
0.717317
0.770525
0.767429
0.478784
0.738475
0.755101
0.69978
0.759471
0.740419
0.770133
0.756812
0.758048
0.718625
0.767001
0.774292
0.753589
0.771968
0.774693
0.628808
0.700261
0.741845
0.707242
0.628027
0.713894
0.755106
0.771324
0.717903
0.746263
0.679941
0.719201
0.75646
0.758717
0.715905
0.710764
0.700768
0.748952
0.722491
0.718579
0.754116
0.762221
0.766324
0.702217
0.765441
0.725845
0.711865
0.756624
0.770942
0.757098
0.747435
0.703978
0.770294
0.712913
0.776551
0.769576
0.77309
0.770362
0.705067
0.703886
0.758679
0.705943
0.709867
0.721615
0.717592
0.702991
0.754398
0.758271
0.708702
0.773249
0.730134
0.748375
0.755363
0.767821
0.764887
0.766514
0.750852
0.711565
0.771856
0.676745
0.768817
0.706599
0.76249
0.772653
0.771118
0.768014
0.772498
0.757731
0.699318
0.714611
0.755183
0.724008
0.776102
0.699315
0.675003
0.745362
0.742643
0.727837
0.711008
0.749249
0.769112
0.764078
0.594679
0.726768
0.660845
0.683096
0.754823
0.744539
0.756681
0.749824
0.77297
0.703495
0.772481
0.75863
0.669064
0.767268
0.733995
0.769282
0.755898
0.752395
0.700107
0.71921
0.757287
0.7687
0.726291
0.750306
0.757408
0.76807
0.750068
0.749278
0.727209
0.757494
0.706979
0.701243
0.64943
0.761883
0.708845
0.720064
0.706039
0.720679
0.775727
0.744383
0.759185
0.773153
0.757924
0.660973
0.754047
0.68756
0.739611
0.764322
0.724535
0.711215
0.736786
0.75769
0.689532
0.725295
0.652725
0.710817
0.762074
0.657242
0.718906
0.770342
0.705758
0.704001
0.756107
0.77009
0.740652
0.692618
0.760215
0.718537
0.722974
0.757576
0.736522
0.759147
0.764014
0.777762
0.73096
0.771139
0.763502
0.769731
0.772613
0.767293
0.665172
0.720173
0.747476
0.701838
0.772024
0.774217
0.769934
0.761505
0.703278
0.708108
0.749662
0.77327
0.688842
0.769242
0.766388
0.769049
0.698565
0.693815
0.703113
0.668413
0.760565
0.688117
0.765626
0.720856
0.766812
0.70234
0.758119
0.708998
0.75531
0.764328
0.761665
0.744426
0.765502
0.773739
0.776788
0.763254
0.737807
0.770809
0.764702
0.722938
0.732264
0.757127
0.718923
0.776315
0.742925
0.763919
0.76987
0.7718
0.723908
0.64981
0.774418
0.735915
0.740166
0.752199
0.7632
0.770949
0.771617
0.735644
0.761263
0.704868
0.726736
0.757767
0.768422
0.754827
0.761958
0.74721
0.777471
0.751172
0.718334
0.773769
0.76051
0.698673
0.726771
0.775377
0.747193
0.707809
0.72523
0.77645
0.741318
0.757119
0.771608
0.773835
0.770631
0.762419
0.709522
0.767284
0.728326
0.743147
0.773865
0.759689
0.703092
0.690831
0.743006
0.765577
0.716992
0.697649
0.768557
0.744626
0.752436
0.769136
0.705069
0.705818
0.736931
0.76694
0.775407
0.759622
0.757734
0.660786
0.759467
0.730318
0.749643
0.773848
0.775024
0.69743
0.70427
0.749306
0.769063
0.775345
0.771937
0.768391
0.72988
0.731661
0.704376
0.708099
0.768455
0.762811
0.625195
0.709556
0.768476
0.754299
0.698262
0.708483
0.761188
0.730909
0.75679
0.766011
0.754944
0.772296
0.77082
0.7557
0.767054
0.739709
0.733641
0.745046
0.763859
0.734142
0.768408
0.629724
0.754834
0.612182
0.744955
0.773516
0.761798
0.772684
0.772633
0.773889
0.725483
0.742627
0.757481
0.671599
0.772535
0.753836
0.720331
0.765978
0.567423
0.710084
0.751112
0.767982
0.776402
0.707003
0.705953
0.756942
0.766596
0.636109
0.723139
0.737251
0.642165
0.690582
0.750677
0.692594
0.758073
0.708236
0.755037
0.767255
0.570757
0.744797
0.753969
0.725567
0.703141
0.755118
0.72639
0.739873
0.710296
0.751157
0.74279
0.726154
0.756062
0.773982
0.725186
0.701198
0.734889
0.706572
0.714264
0.755269
0.662906
0.727958
0.725781
0.752547
0.764336
0.748988
0.751703
0.623839
0.757405
0.757496
0.73199
0.766935
0.744664
0.750947
0.641616
0.627172
0.764333
0.70471
0.75301
0.768471
0.726907
0.760221
0.622972
0.766492
0.737723
0.772168
0.73793
0.738424
0.754386
0.711233
0.729819
0.735869
0.777539
0.706953
0.698527
0.751245
0.776693
0.76801
0.65733
0.738519
0.737321
0.747713
0.732924
0.775877
0.77228
0.771262
0.770006
0.764647
0.717186
0.69867
0.772376
0.721786
0.742815
0.659654
0.694682
0.712811
0.699888
0.762934
0.634633
0.768953
0.72432
0.766386
0.750195
0.760465
0.771808
0.73314
0.768621
0.773121
0.768567
0.756715
0.772399
0.725387
0.759551
0.701715
0.724539
0.776655
0.636003
0.762504
0.767268
0.755282
0.749627
0.745444
0.760259
0.760519
0.759381
0.709043
0.708506
0.761041
0.752193
0.658649
0.769114
0.699049
0.758893
0.704472
0.744817
0.759676
0.771638
0.773555
0.709389
0.762023
0.756082
0.751502
0.773667
0.67082
0.691606
0.775675
0.705027
0.726987
0.772803
0.771926
0.761954
0.696175
0.7162
0.71822
0.713997
0.673843
0.755374
0.73327
0.750101
0.718573
0.757363
0.741305
0.722675
0.672829
0.751726
0.749
0.715893
0.772166
0.771822
0.685368
0.764183
0.62534
0.72406
0.652525
0.719933
0.767995
0.752591
0.756073
0.745561
0.761439
0.770684
0.763284
0.760732
0.67684
0.743678
0.730534
0.755375
0.698962
0.774377
0.740521
0.714375
0.771694
0.77018
0.703189
0.765149
0.705369
0.764814
0.763653
0.766132
0.66403
0.761676
0.750627
0.764646
0.754604
0.715885
0.703825
0.717345
0.771362
0.773856
0.772365
0.739144
0.754693
0.770146
0.743428
0.760533
0.719624
0.723694
0.758276
0.772939
0.711198
0.775412
0.759728
0.777338
0.769875
0.772053
0.756722
0.739214
0.773784
0.605879
0.768102
0.647976
0.770674
0.773653
0.759373
0.738264
0.727159
0.759314
0.647555
0.675523
0.726618
0.685711
0.772775
0.707178
0.706408
0.669984
0.701308
0.75676
0.770814
0.773714
0.706543
0.737709
0.759779
0.764421
0.73557
0.731935
0.771951
0.772716
0.758092
0.771943
0.772127
0.770449
0.705344
0.748836
0.684205
0.76532
0.772108
0.773737
0.751367
0.760758
0.740748
0.703035
0.737059
0.705455
0.71542
0.711136
0.77522
0.752097
0.753393
0.773472
0.772276
0.761533
0.763483
0.721645
0.758934
0.756795
0.772443
0.734548
0.702993
0.762051
0.761663
0.770403
0.775877
0.7747
0.697542
0.694515
0.700802
0.762862
0.773456
0.657359
0.719755
0.77408
0.712547
0.740742
0.705476
0.753722
0.765584
0.75425
0.762667
0.714753
0.758263
0.759324
0.770211
0.741769
0.720452
0.76596
0.761383
0.746384
0.773497
0.778935
0.657188
0.772826
0.712339
0.731377
0.777525
0.774657
0.753658
0.772323
0.712724
0.771015
0.725156
0.705128
0.771526
0.735904
0.769524
0.750578
0.765117
0.758424
0.766966
0.719634
0.769553
0.700295
0.772064
0.750419
0.75765
0.733813
0.697553
0.704271
0.771402
0.721765
0.744145
0.695128
0.731942
0.771022
0.771135
0.761916
0.768903
0.762651
0.719168
0.738216
0.760787
0.701171
0.724062
0.762562
0.752017
0.740748
0.717251
0.656281
0.704266
0.77065
0.734772
0.771857
0.705621
0.774849
0.759797
0.774825
0.771303
0.737626
0.77256
0.70673
0.763258
0.718082
0.762034
0.689497
0.739665
0.721101
0.70187
0.739054
0.708973
0.702869
0.711577
0.774079
0.776364
0.743665
0.695683
0.771904
0.707848
0.663165
0.75217
0.76971
0.763311
0.710357
0.711812
0.776443
0.69099
0.760681
0.692812
0.715767
0.736629
0.689365
0.775436
0.752355
0.722201
0.774456
0.776105
0.718322
0.765436
0.751598
0.774812
0.754141
0.728638
0.70903
0.768383
0.776197
0.767624
0.677399
0.708615
0.726321
0.75228
0.763423
0.768249
0.690064
0.761118
0.710991
0.764032
0.766131
0.759088
0.731966
0.766215
0.65823
0.753301
0.69102
0.747235
0.678849
0.703887
0.759822
0.774236
0.717822
0.724188
0.763248
0.7329
0.650542
0.701675
0.715718
0.748235
0.599939
0.751454
0.747328
0.765003
0.746484
0.765247
0.766463
0.636036
0.63241
0.775365
0.751224
0.653043
0.729072
0.760082
0.771423
0.763819
0.68379
0.748802
0.689951
0.76406
0.773129
0.770533
0.743373
0.770848
0.71245
0.757712
0.77625
0.708423
0.721028
0.771177
0.772609
0.71221
0.708078
0.675038
0.63609
0.67779
0.76994
0.723244
0.705179
0.673252
0.69711
0.766419
0.689175
0.716285
0.697585
0.768364
0.730212
0.76479
0.721453
0.742897
0.74423
0.754643
0.758366
0.767683
0.699241
0.762871
0.739747
0.745953
0.765671
0.728354
0.773244
0.766484
0.725269
0.765615
0.706326
0.727415
0.754171
0.766427
0.711256
0.749521
0.748206
0.756057
0.758186
0.772791
0.68169
0.712701
0.697486
0.70035
0.775984
0.722886
0.762704
0.776357
0.741079
0.639728
0.700622
0.744583
0.693743
0.755827
0.703003
0.72299
0.722727
0.771714
0.770342
0.750626
0.691254
0.733161
0.707801
0.743831
0.770527
0.762836
0.731288
0.754051
0.734205
0.760992
0.76961
0.772203
0.760637
0.775465
0.763999
0.73764
0.71858
0.705854
0.704035
0.762131
0.755354
0.714578
0.766845
0.721495
0.774865
0.768536
0.706449
0.685745
0.726793
0.747562
0.772204
0.755618
0.769708
0.754368
0.772931
0.766068
0.753941
0.719371
0.754977
0.751131
0.710539
0.730085
0.768715
0.648468
0.564645
0.762933
0.754384
0.772711
0.741859
0.709625
0.697554
0.728172
0.687444
0.73534
0.76075
0.71269
0.77128
0.743146
0.698554
0.733443
0.720272
0.688746
0.771622
0.755119
0.761007
0.695027
0.747989
0.752523
0.696663
0.727444
0.729052
0.723971
0.700445
0.639598
0.77477
0.766735
0.773753
0.76618
0.771513
0.716132
0.759071
0.744619
0.742297
0.674611
0.765692
0.751471
0.736366
0.7727
0.772392
0.768438
0.764625
0.762017
0.762728
0.708524
0.759193
0.765304
0.768906
0.741097
0.712512
0.765431
0.721367
0.722669
0.768486
0.731695
0.775892
0.717469
0.775811
0.761581
0.758815
0.718591
0.768803
0.706635
0.720984
0.730669
0.712845
0.720871
0.720696
0.720341
0.75578
0.692765
0.697392
0.748264
0.763425
0.750863
0.728119
0.765817
0.763217
0.725941
0.769505
0.768486
0.771523
0.695986
0.72549
0.746839
0.705883
0.749146
0.665687
0.75759
0.668679
0.77192
0.748921
0.757309
0.715576
0.705756
0.72619
0.756205
0.723805
0.761243
0.764783
0.758948
0.76833
0.759774
0.751113
0.715665
0.774682
0.751361
0.754703
0.766238
0.712683
0.71461
0.712577
0.770823
0.770184
0.751358
0.747302
0.722611
0.745861
0.687643
0.741682
0.700216
0.77068
0.721287
0.742049
0.756623
0.758381
0.700395
0.741536
0.746318
0.755652
0.753781
0.763011
0.753124
0.72825
0.76215
0.77168
0.752615
0.705557
0.759343
0.706233
0.750005
0.680146
0.71038
0.753709
0.653162
0.702104
0.768736
0.772077
0.702705
0.750895
0.712409
0.672902
0.709655
0.701289
0.711326
0.712101
0.712959
0.768615
0.7732
0.741949
0.770871
0.743095
0.76506
0.754581
0.773629
0.766891
0.722431
0.760919
0.772892
0.758073
0.760321
0.679983
0.772965
0.739785
0.571079
0.761988
0.769212
0.775848
0.769824
0.763261
0.760353
0.727275
0.754443
0.748468
0.752255
0.582766
0.730563
0.676245
0.752369
0.75801
0.692625
0.703683
0.722676
0.713257
0.700655
0.755203
0.747866
0.759023
0.771357
0.713434
0.775071
0.700324
0.743451
0.771425
0.748647
0.750614
0.753072
0.588793
0.715051
0.759397
0.773518
0.714483
0.726341
0.756696
0.76896
0.702602
0.775719
0.719234
0.758207
0.757081
0.740416
0.756766
0.770252
0.773055
0.683261
0.762373
0.762431
0.767019
0.69495
0.750714
0.733517
0.701161
0.716016
0.725777
0.759222
0.758451
0.767277
0.743843
0.683296
0.754276
0.713988
0.713634
0.749743
0.746932
0.696344
0.774512
0.715941
0.720683
0.714179
0.758703
0.69857
0.662613
0.762299
0.73691
0.761481
0.716133
0.679275
0.759231
0.63914
0.767032
0.75802
0.711137
0.701835
0.777338
0.711822
0.700933
0.704289
0.681736
0.727791
0.763566
0.771115
0.700835
0.72456
0.769372
0.748564
0.718716
0.713832
0.740636
0.771754
0.769137
0.713083
0.703262
0.765405
0.776671
0.757113
0.75495
0.754714
0.683664
0.756347
0.767754
0.758939
0.689151
0.771177
0.755706
0.701985
0.764431
0.705343
0.77384
0.756716
0.696725
0.754895
0.750598
0.752086
0.707987
0.761179
0.72791
0.767919
0.767254
0.770122
0.709289
0.722725
0.770293
0.763766
0.732716
0.76395
0.756003
0.713661
0.760986
0.759012
0.71229
0.621371
0.703613
0.734
0.718707
0.710147
0.714059
0.731216
0.764316
0.697619
0.706668
0.753436
0.700713
0.773074
0.712659
0.758986
0.755798
0.703403
0.758731
0.739887
0.766598
0.760629
0.770386
0.716629
0.712007
0.775563
0.686821
0.773794
0.766143
0.754751
0.724785
0.773557
0.749675
0.708601
0.776757
0.684176
0.758542
0.773529
0.691208
0.777984
0.708393
0.754892
0.607709
0.754804
0.703277
0.759388
0.729261
0.704947
0.732484
0.700234
0.715742
0.773595
0.701692
0.747659
0.759884
0.750218
0.761731
0.765002
0.755027
0.683432
0.775007
0.752177
0.770895
0.719561
0.755421
0.763846
0.738834
0.772948
0.757598
0.760481
0.713473
0.747088
0.664922
0.701004
0.773581
0.52882
0.763907
0.766711
0.723981
0.712784
0.734858
0.76728
0.749039
0.767929
0.755066
0.758527
0.761113
0.775671
0.771662
0.700149
0.757738
0.767019
0.759189
0.763036
0.73998
0.715144
0.708512
0.738129
0.760004
0.739903
0.777485
0.704776
0.720646
0.749438
0.731717
0.757631
0.765212
0.713038
0.725793
0.725763
0.738143
0.711023
0.771319
0.689018
0.737767
0.753934
0.737602
0.69613
0.691061
0.764364
0.687038
0.700228
0.772527
0.757678
0.720578
0.700676
0.703927
0.723699
0.772568
0.771759
0.723715
0.757991
0.758559
0.775791
0.767376
0.720056
0.772675
0.730486
0.755725
0.766626
0.772234
0.759642
0.772479
0.769563
0.689374
0.673157
0.747109
0.724288
0.735431
0.620025
0.632371
0.769846
0.772461
0.710657
0.773712
0.758574
0.770203
0.753733
0.70758
0.774378
0.772107
0.759421
0.687342
0.706721
0.76025
0.76629
0.749345
0.70283
0.734632
0.764332
0.773264
0.763859
0.736864
0.730326
0.765321
0.73975
0.733313
0.76245
0.740669
0.76388
0.619192
0.773568
0.750334
0.758806
0.773007
0.702888
0.71056
0.720723
0.707234
0.77481
0.710647
0.753237
0.623037
0.723179
0.738787
0.713493
0.702848
0.743053
0.695562
0.710096
0.750606
0.744571
0.769928
0.712831
0.759258
0.773448
0.727029
0.763766
0.759808
0.76882
0.75671
0.724676
0.766828
0.70221
0.706355
0.764349
0.771907
0.771362
0.757854
0.675616
0.761535
0.757769
0.737895
0.770931
0.75949
0.768688
0.768596
0.706213
0.707929
0.759858
0.701135
0.760797
0.759298
0.699149
0.7736
0.755525
0.768398
0.753462
0.75862
0.697126
0.73698
0.762529
0.715758
0.761221
0.766105
0.730926
0.758908
0.746389
0.756519
0.764038
0.758838
0.699416
0.770469
0.679324
0.614535
0.730516
0.765372
0.708352
0.773536
0.721455
0.676724
0.752105
0.76325
0.765898
0.57828
0.761158
0.762277
0.772669
0.736725
0.775846
0.762837
0.707477
0.757532
0.743296
0.744251
0.704993
0.763666
0.758269
0.709249
0.705192
0.759401
0.741861
0.704181
0.753356
0.772689
0.702349
0.773719
0.714746
0.671163
0.688293
0.758547
0.748595
0.708172
0.678366
0.702087
0.758458
0.755917
0.771302
0.733015
0.772931
0.692228
0.759943
0.708199
0.709586
0.706389
0.762793
0.754491
0.711517
0.717015
0.7717
0.738389
0.768109
0.768948
0.727793
0.752199
0.758906
0.736977
0.771125
0.758786
0.760272
0.738311
0.709017
0.753329
0.732463
0.778044
0.740028
0.720431
0.667635
0.716083
0.758976
0.765607
0.75031
0.764084
0.751334
0.722119
0.734362
0.688846
0.728221
0.71972
0.771362
0.699811
0.714716
0.708473
0.765368
0.752851
0.710151
0.701891
0.68546
0.770698
0.734648
0.718201
0.706243
0.724632
0.71235
0.744306