/*--------------------------------*- C++ -*----------------------------------*\
  =========                 |
  \\      /  F ield         | OpenFOAM: The Open Source CFD Toolbox
   \\    /   O peration     | Website:  https://openfoam.org
    \\  /    A nd           | Version:  6
     \\/     M anipulation  |
\*---------------------------------------------------------------------------*/
FoamFile
{
    version     2.0;
    format      ascii;
    class       volScalarField;
    location    "0";
    object      TRec;
}
// * * * * * * * * * * * * * * * * * * * * * * * * * * * * * * * * * * * * * //

dimensions      [0 0 0 1 0 0 0];

internalField   nonuniform List<scalar> 
10000
(
298.813
298.839
298.864
298.889
298.912
298.934
298.955
298.974
298.992
299.009
299.024
299.039
299.052
299.065
299.076
299.087
299.097
299.107
299.116
299.125
299.133
299.141
299.148
299.155
299.162
299.169
299.175
299.181
299.187
299.193
299.199
299.204
299.21
299.215
299.22
299.225
299.23
299.235
299.24
299.245
299.25
299.255
299.259
299.263
299.268
299.272
299.275
299.279
299.282
299.286
299.289
299.291
299.294
299.296
299.298
299.3
299.302
299.304
299.305
299.307
299.308
299.31
299.311
299.313
299.314
299.316
299.318
299.319
299.321
299.323
299.325
299.327
299.329
299.332
299.334
299.337
299.34
299.344
299.348
299.352
299.357
299.363
299.37
299.378
299.389
299.401
299.418
299.439
299.465
299.5
299.546
299.606
299.683
299.785
299.914
300.077
300.276
300.511
300.775
301.056
298.813
298.84
298.865
298.89
298.914
298.936
298.957
298.976
298.995
299.012
299.027
299.042
299.055
299.068
299.079
299.09
299.1
299.109
299.118
299.126
299.134
299.142
299.149
299.156
299.163
299.169
299.175
299.181
299.187
299.193
299.199
299.204
299.209
299.215
299.22
299.225
299.23
299.235
299.24
299.245
299.249
299.254
299.258
299.263
299.267
299.271
299.275
299.279
299.282
299.285
299.288
299.291
299.294
299.296
299.298
299.3
299.302
299.304
299.306
299.307
299.309
299.31
299.312
299.313
299.315
299.316
299.318
299.319
299.321
299.323
299.325
299.327
299.329
299.332
299.334
299.337
299.34
299.344
299.347
299.352
299.356
299.362
299.369
299.377
299.387
299.399
299.414
299.434
299.46
299.493
299.536
299.594
299.669
299.768
299.895
300.057
300.258
300.496
300.765
301.053
298.814
298.841
298.868
298.894
298.918
298.941
298.963
298.983
299.002
299.02
299.036
299.051
299.064
299.077
299.088
299.098
299.108
299.117
299.125
299.133
299.14
299.147
299.154
299.16
299.166
299.172
299.178
299.184
299.189
299.194
299.199
299.205
299.21
299.215
299.219
299.224
299.229
299.234
299.239
299.244
299.248
299.253
299.257
299.262
299.266
299.27
299.274
299.278
299.281
299.285
299.288
299.291
299.294
299.296
299.299
299.301
299.303
299.304
299.306
299.308
299.309
299.311
299.312
299.314
299.315
299.317
299.319
299.32
299.322
299.324
299.326
299.328
299.33
299.332
299.335
299.338
299.34
299.344
299.347
299.351
299.356
299.361
299.367
299.375
299.384
299.395
299.409
299.428
299.451
299.483
299.524
299.578
299.65
299.746
299.872
300.035
300.237
300.48
300.755
301.05
298.815
298.844
298.872
298.899
298.925
298.95
298.974
298.995
299.015
299.034
299.051
299.066
299.08
299.092
299.104
299.114
299.123
299.131
299.138
299.145
299.151
299.157
299.163
299.169
299.174
299.179
299.184
299.188
299.193
299.198
299.202
299.207
299.211
299.216
299.22
299.225
299.229
299.234
299.238
299.243
299.247
299.252
299.256
299.261
299.265
299.269
299.273
299.277
299.281
299.284
299.288
299.291
299.294
299.296
299.299
299.301
299.303
299.305
299.307
299.309
299.311
299.312
299.314
299.315
299.317
299.318
299.32
299.322
299.324
299.325
299.327
299.329
299.331
299.334
299.336
299.338
299.341
299.344
299.348
299.351
299.355
299.36
299.366
299.373
299.381
299.392
299.405
299.421
299.443
299.473
299.511
299.564
299.634
299.728
299.853
300.016
300.221
300.468
300.748
301.047
298.816
298.847
298.878
298.907
298.936
298.963
298.988
299.012
299.034
299.054
299.072
299.088
299.102
299.115
299.126
299.136
299.144
299.151
299.158
299.163
299.169
299.173
299.178
299.182
299.186
299.189
299.193
299.197
299.2
299.204
299.208
299.211
299.215
299.219
299.222
299.226
299.23
299.234
299.239
299.243
299.247
299.251
299.256
299.26
299.264
299.268
299.272
299.276
299.28
299.284
299.288
299.291
299.294
299.297
299.3
299.302
299.304
299.307
299.309
299.311
299.312
299.314
299.316
299.317
299.319
299.321
299.322
299.324
299.326
299.327
299.329
299.331
299.333
299.335
299.338
299.34
299.343
299.345
299.348
299.352
299.356
299.36
299.365
299.372
299.379
299.389
299.401
299.416
299.437
299.464
299.501
299.552
299.621
299.715
299.84
300.004
300.211
300.46
300.743
301.046
298.817
298.851
298.885
298.917
298.949
298.978
299.007
299.033
299.057
299.078
299.098
299.115
299.13
299.143
299.154
299.164
299.171
299.178
299.183
299.187
299.191
299.195
299.197
299.2
299.202
299.204
299.207
299.209
299.211
299.213
299.216
299.218
299.221
299.224
299.227
299.23
299.233
299.237
299.24
299.244
299.248
299.252
299.256
299.26
299.264
299.268
299.272
299.276
299.28
299.284
299.288
299.291
299.295
299.298
299.301
299.303
299.306
299.308
299.311
299.313
299.315
299.317
299.318
299.32
299.322
299.323
299.325
299.327
299.329
299.33
299.332
299.334
299.336
299.338
299.34
299.342
299.345
299.347
299.35
299.353
299.357
299.361
299.366
299.371
299.378
299.387
299.398
299.413
299.432
299.458
299.494
299.544
299.613
299.706
299.832
299.997
300.206
300.458
300.742
301.045
298.819
298.856
298.893
298.929
298.964
298.997
299.028
299.056
299.083
299.107
299.128
299.146
299.162
299.176
299.187
299.196
299.203
299.209
299.213
299.216
299.217
299.221
299.222
299.222
299.223
299.223
299.224
299.224
299.225
299.226
299.227
299.228
299.229
299.231
299.233
299.235
299.238
299.24
299.243
299.246
299.25
299.253
299.257
299.261
299.265
299.269
299.273
299.277
299.281
299.285
299.289
299.292
299.296
299.299
299.302
299.305
299.308
299.311
299.313
299.315
299.318
299.32
299.322
299.323
299.325
299.327
299.329
299.33
299.332
299.334
299.336
299.337
299.339
299.341
299.343
299.345
299.347
299.35
299.353
299.355
299.359
299.362
299.367
299.372
299.378
299.386
299.397
299.411
299.429
299.455
299.49
299.54
299.608
299.702
299.829
299.996
300.206
300.458
300.743
301.046
298.821
298.862
298.902
298.942
298.98
299.016
299.051
299.082
299.111
299.137
299.16
299.18
299.197
299.211
299.223
299.232
299.239
299.244
299.247
299.248
299.248
299.25
299.249
299.249
299.247
299.246
299.244
299.243
299.242
299.241
299.24
299.24
299.24
299.24
299.241
299.242
299.244
299.246
299.248
299.25
299.253
299.256
299.26
299.263
299.267
299.27
299.274
299.278
299.282
299.286
299.29
299.294
299.297
299.301
299.304
299.308
299.311
299.313
299.316
299.319
299.321
299.323
299.325
299.327
299.329
299.331
299.333
299.335
299.336
299.338
299.34
299.342
299.343
299.345
299.347
299.349
299.351
299.353
299.356
299.358
299.361
299.365
299.369
299.374
299.38
299.387
299.397
299.41
299.429
299.454
299.489
299.538
299.607
299.702
299.83
299.998
300.209
300.462
300.746
301.047
298.823
298.868
298.912
298.955
298.997
299.037
299.075
299.11
299.141
299.169
299.194
299.216
299.234
299.249
299.26
299.27
299.276
299.281
299.283
299.284
299.284
299.282
299.28
299.277
299.274
299.271
299.268
299.264
299.261
299.259
299.256
299.254
299.253
299.252
299.251
299.251
299.252
299.253
299.254
299.256
299.258
299.261
299.263
299.266
299.27
299.273
299.277
299.281
299.285
299.288
299.292
299.296
299.3
299.304
299.307
299.311
299.314
299.317
299.32
299.322
299.325
299.327
299.33
299.332
299.334
299.336
299.338
299.339
299.341
299.343
299.345
299.347
299.348
299.35
299.352
299.354
299.356
299.358
299.36
299.362
299.365
299.368
299.372
299.376
299.382
299.389
299.399
299.412
299.429
299.454
299.49
299.539
299.609
299.705
299.834
300.003
300.215
300.467
300.749
301.048
298.825
298.874
298.922
298.969
299.015
299.059
299.099
299.137
299.171
299.202
299.229
299.252
299.271
299.287
299.299
299.308
299.315
299.319
299.321
299.32
299.319
299.314
299.314
299.308
299.303
299.298
299.293
299.288
299.283
299.279
299.274
299.271
299.268
299.265
299.264
299.262
299.262
299.262
299.262
299.263
299.264
299.266
299.269
299.271
299.274
299.277
299.281
299.284
299.288
299.292
299.296
299.299
299.303
299.307
299.311
299.314
299.318
299.321
299.324
299.327
299.33
299.332
299.335
299.337
299.339
299.341
299.343
299.345
299.347
299.348
299.35
299.352
299.354
299.355
299.357
299.359
299.361
299.363
299.365
299.367
299.369
299.372
299.376
299.38
299.385
299.392
299.401
299.414
299.432
299.457
299.492
299.543
299.613
299.71
299.84
300.01
300.223
300.474
300.754
301.05
298.827
298.88
298.932
298.983
299.033
299.08
299.124
299.165
299.202
299.235
299.264
299.288
299.309
299.325
299.338
299.348
299.354
299.357
299.358
299.357
299.354
299.348
299.346
299.34
299.333
299.327
299.32
299.313
299.306
299.3
299.294
299.289
299.285
299.281
299.278
299.275
299.273
299.272
299.272
299.272
299.272
299.274
299.275
299.277
299.28
299.283
299.286
299.289
299.292
299.296
299.3
299.304
299.307
299.311
299.315
299.318
299.322
299.325
299.329
299.332
299.335
299.337
299.34
299.342
299.345
299.347
299.349
299.351
299.352
299.354
299.356
299.358
299.36
299.361
299.363
299.365
299.366
299.368
299.37
299.372
299.375
299.377
299.38
299.384
299.389
299.396
299.405
299.418
299.435
299.461
299.497
299.548
299.619
299.717
299.848
300.019
300.231
300.481
300.759
301.052
298.829
298.886
298.942
298.997
299.05
299.101
299.148
299.192
299.232
299.267
299.298
299.324
299.346
299.363
299.377
299.386
299.392
299.396
299.396
299.394
299.39
299.383
299.378
299.371
299.364
299.356
299.347
299.339
299.331
299.323
299.316
299.309
299.303
299.298
299.293
299.289
299.286
299.284
299.283
299.282
299.282
299.282
299.283
299.285
299.287
299.289
299.292
299.295
299.298
299.301
299.305
299.309
299.312
299.316
299.32
299.324
299.327
299.331
299.334
299.337
299.34
299.343
299.346
299.348
299.351
299.353
299.355
299.357
299.359
299.361
299.362
299.364
299.366
299.368
299.369
299.371
299.373
299.374
299.376
299.378
299.38
299.383
299.386
299.39
299.394
299.401
299.41
299.422
299.44
299.466
299.502
299.554
299.626
299.725
299.858
300.029
300.241
300.489
300.764
301.054
298.831
298.892
298.952
299.011
299.068
299.122
299.172
299.219
299.261
299.298
299.331
299.359
299.382
299.4
299.414
299.424
299.43
299.433
299.433
299.431
299.426
299.42
299.412
299.404
299.395
299.385
299.376
299.366
299.356
299.347
299.338
299.33
299.322
299.316
299.31
299.305
299.301
299.298
299.295
299.294
299.293
299.292
299.293
299.294
299.295
299.297
299.299
299.302
299.305
299.308
299.311
299.315
299.318
299.322
299.326
299.329
299.333
299.336
299.34
299.343
299.346
299.349
299.352
299.355
299.357
299.359
299.362
299.364
299.365
299.367
299.369
299.371
299.373
299.375
299.376
299.378
299.379
299.381
299.383
299.384
299.386
299.389
299.392
299.395
299.4
299.406
299.415
299.428
299.446
299.472
299.509
299.561
299.634
299.734
299.868
300.04
300.251
300.498
300.77
301.055
298.832
298.897
298.961
299.024
299.084
299.142
299.195
299.245
299.289
299.329
299.363
299.392
299.416
299.435
299.45
299.46
299.466
299.469
299.469
299.466
299.461
299.454
299.445
299.436
299.426
299.414
299.403
299.392
299.381
299.37
299.361
299.351
299.343
299.335
299.328
299.322
299.317
299.313
299.309
299.307
299.305
299.304
299.304
299.304
299.305
299.306
299.308
299.31
299.313
299.315
299.319
299.322
299.325
299.329
299.332
299.336
299.339
299.343
299.346
299.35
299.353
299.356
299.359
299.361
299.364
299.366
299.369
299.371
299.372
299.374
299.376
299.378
299.38
299.382
299.383
299.385
299.386
299.388
299.389
299.391
299.393
299.395
299.398
299.402
299.406
299.412
299.421
299.434
299.452
299.478
299.516
299.569
299.643
299.744
299.879
300.051
300.261
300.506
300.776
301.057
298.834
298.903
298.971
299.037
299.101
299.161
299.218
299.27
299.317
299.358
299.394
299.425
299.45
299.469
299.484
299.494
299.5
299.503
299.502
299.499
299.493
299.486
299.476
299.466
299.454
299.442
299.43
299.418
299.406
299.394
299.383
299.373
299.363
299.355
299.347
299.34
299.334
299.328
299.324
299.321
299.318
299.317
299.315
299.315
299.315
299.316
299.318
299.319
299.322
299.324
299.327
299.33
299.333
299.336
299.34
299.343
299.347
299.35
299.353
299.357
299.36
299.363
299.366
299.369
299.371
299.374
299.376
299.378
299.38
299.382
299.384
299.385
299.387
299.389
299.391
299.392
299.394
299.395
299.397
299.398
299.4
299.402
299.405
299.408
299.413
299.419
299.428
299.441
299.459
299.485
299.524
299.578
299.653
299.755
299.89
300.062
300.272
300.515
300.781
301.059
298.836
298.908
298.98
299.049
299.117
299.18
299.24
299.294
299.344
299.387
299.424
299.456
299.482
299.502
299.517
299.527
299.533
299.535
299.534
299.53
299.523
299.515
299.504
299.494
299.481
299.469
299.456
299.443
299.43
299.417
299.406
299.395
299.384
299.375
299.366
299.358
299.351
299.345
299.34
299.336
299.333
299.33
299.329
299.328
299.327
299.327
299.328
299.33
299.331
299.334
299.336
299.339
299.342
299.345
299.348
299.351
299.354
299.358
299.361
299.364
299.367
299.37
299.373
299.376
299.379
299.381
299.384
299.386
299.388
299.39
299.391
299.393
299.395
299.397
299.399
299.4
299.402
299.403
299.405
299.406
299.408
299.41
299.412
299.416
299.42
299.426
299.435
299.448
299.467
299.494
299.532
299.587
299.663
299.766
299.901
300.074
300.283
300.523
300.787
301.061
298.838
298.914
298.989
299.062
299.132
299.199
299.261
299.318
299.369
299.414
299.453
299.485
299.512
299.532
299.547
299.557
299.563
299.565
299.563
299.558
299.551
299.542
299.531
299.519
299.506
299.493
299.479
299.466
299.453
299.44
299.428
299.416
299.405
299.395
299.385
299.377
299.369
299.362
299.357
299.352
299.348
299.345
299.342
299.341
299.34
299.34
299.34
299.341
299.342
299.344
299.346
299.348
299.351
299.354
299.357
299.36
299.363
299.366
299.369
299.372
299.375
299.378
299.381
299.384
299.387
299.389
299.392
299.394
299.396
299.398
299.399
299.401
299.403
299.405
299.407
299.408
299.41
299.411
299.413
299.414
299.416
299.418
299.42
299.423
299.428
299.434
299.443
299.456
299.475
299.502
299.541
299.596
299.673
299.777
299.913
300.085
300.293
300.532
300.792
301.063
298.84
298.919
298.997
299.074
299.147
299.217
299.282
299.341
299.394
299.44
299.48
299.513
299.54
299.561
299.576
299.586
299.591
299.592
299.589
299.584
299.576
299.566
299.555
299.542
299.529
299.516
299.502
299.488
299.474
299.461
299.448
299.436
299.425
299.414
299.404
299.395
299.387
299.38
299.374
299.368
299.364
299.36
299.357
299.355
299.353
299.352
299.352
299.353
299.354
299.355
299.357
299.359
299.361
299.363
299.366
299.369
299.372
299.375
299.378
299.381
299.384
299.387
299.39
299.392
299.395
299.398
299.4
299.402
299.404
299.406
299.408
299.41
299.411
299.413
299.415
299.417
299.418
299.42
299.421
299.423
299.424
299.426
299.429
299.432
299.436
299.442
299.451
299.464
299.483
299.511
299.55
299.606
299.684
299.788
299.925
300.097
300.304
300.54
300.798
301.065
298.841
298.924
299.006
299.085
299.162
299.234
299.301
299.363
299.417
299.465
299.506
299.54
299.567
299.588
299.602
299.612
299.616
299.617
299.613
299.607
299.599
299.589
299.576
299.563
299.55
299.536
299.522
299.508
299.495
299.481
299.468
299.456
299.444
299.433
299.423
299.414
299.405
299.397
299.39
299.385
299.379
299.375
299.372
299.369
299.367
299.366
299.365
299.365
299.365
299.366
299.368
299.369
299.371
299.374
299.376
299.379
299.381
299.384
299.387
299.39
299.393
299.396
299.398
299.401
299.404
299.406
299.409
299.411
299.413
299.415
299.417
299.418
299.42
299.422
299.424
299.426
299.428
299.429
299.43
299.432
299.433
299.435
299.438
299.441
299.445
299.451
299.46
299.473
299.492
299.52
299.56
299.617
299.695
299.8
299.937
300.108
300.314
300.549
300.803
301.067
298.843
298.929
299.014
299.096
299.176
299.251
299.321
299.384
299.44
299.489
299.531
299.565
299.592
299.612
299.627
299.635
299.639
299.639
299.635
299.628
299.619
299.608
299.596
299.582
299.569
299.555
299.541
299.527
299.513
299.5
299.487
299.474
299.462
299.451
299.441
299.431
299.422
299.414
299.407
299.401
299.395
299.391
299.387
299.384
299.381
299.38
299.378
299.378
299.378
299.378
299.379
299.381
299.382
299.384
299.386
299.389
299.391
299.394
299.397
299.399
299.402
299.405
299.408
299.41
299.413
299.415
299.418
299.42
299.422
299.425
299.426
299.428
299.43
299.432
299.433
299.435
299.437
299.439
299.44
299.442
299.443
299.445
299.447
299.45
299.454
299.46
299.469
299.482
299.502
299.53
299.57
299.627
299.706
299.812
299.949
300.12
300.324
300.557
300.808
301.069
298.845
298.934
299.022
299.107
299.19
299.267
299.339
299.404
299.462
299.512
299.554
299.588
299.615
299.635
299.649
299.657
299.66
299.658
299.654
299.646
299.637
299.625
299.612
299.599
299.585
299.571
299.557
299.543
299.53
299.516
299.503
299.491
299.479
299.468
299.458
299.448
299.439
299.431
299.423
299.417
299.411
299.406
299.402
299.398
299.395
299.393
299.392
299.391
299.391
299.391
299.391
299.392
299.394
299.395
299.397
299.399
299.402
299.404
299.407
299.409
299.412
299.415
299.417
299.42
299.423
299.425
299.428
299.43
299.432
299.434
299.437
299.438
299.44
299.442
299.443
299.445
299.447
299.449
299.451
299.452
299.454
299.455
299.457
299.46
299.464
299.47
299.479
299.492
299.512
299.54
299.581
299.638
299.718
299.824
299.961
300.131
300.335
300.565
300.813
301.07
298.846
298.938
299.029
299.118
299.203
299.283
299.357
299.424
299.482
299.533
299.576
299.61
299.637
299.656
299.669
299.676
299.678
299.676
299.67
299.662
299.652
299.64
299.627
299.613
299.599
299.586
299.572
299.558
299.544
299.531
299.519
299.507
299.495
299.484
299.474
299.464
299.455
299.447
299.439
299.432
299.426
299.421
299.417
299.413
299.41
299.407
299.405
299.404
299.403
299.403
299.404
299.404
299.405
299.407
299.408
299.41
299.412
299.415
299.417
299.42
299.422
299.425
299.428
299.43
299.433
299.435
299.438
299.44
299.443
299.445
299.447
299.449
299.451
299.453
299.455
299.456
299.457
299.459
299.461
299.463
299.465
299.466
299.468
299.471
299.475
299.48
299.49
299.503
299.522
299.551
299.592
299.65
299.729
299.836
299.973
300.143
300.345
300.573
300.818
301.072
298.848
298.943
299.037
299.128
299.216
299.298
299.374
299.442
299.502
299.553
299.596
299.63
299.656
299.675
299.687
299.693
299.694
299.691
299.684
299.675
299.665
299.653
299.639
299.625
299.612
299.599
299.585
299.571
299.558
299.545
299.532
299.521
299.509
299.498
299.488
299.478
299.47
299.461
299.454
299.447
299.441
299.435
299.431
299.427
299.423
299.421
299.419
299.417
299.416
299.416
299.416
299.416
299.417
299.418
299.42
299.422
299.424
299.426
299.428
299.431
299.433
299.436
299.438
299.441
299.444
299.446
299.449
299.452
299.454
299.457
299.459
299.461
299.463
299.465
299.467
299.468
299.469
299.471
299.473
299.475
299.476
299.478
299.48
299.482
299.485
299.491
299.5
299.514
299.533
299.562
299.603
299.661
299.741
299.848
299.985
300.154
300.355
300.58
300.823
301.074
298.849
298.947
299.044
299.138
299.228
299.313
299.39
299.46
299.52
299.572
299.615
299.649
299.674
299.692
299.703
299.708
299.708
299.704
299.696
299.687
299.676
299.663
299.65
299.637
299.623
299.61
299.596
299.583
299.57
299.557
299.545
299.533
299.522
299.511
299.501
299.492
299.483
299.475
299.468
299.461
299.455
299.449
299.445
299.441
299.437
299.434
299.432
299.43
299.429
299.429
299.429
299.429
299.43
299.431
299.432
299.434
299.435
299.438
299.44
299.442
299.445
299.447
299.45
299.453
299.455
299.458
299.461
299.464
299.466
299.469
299.472
299.474
299.476
299.478
299.48
299.482
299.483
299.484
299.485
299.487
299.488
299.49
299.491
299.494
299.497
299.504
299.512
299.525
299.545
299.573
299.615
299.673
299.753
299.86
299.997
300.166
300.365
300.588
300.828
301.075
298.85
298.951
299.051
299.148
299.24
299.327
299.406
299.476
299.538
299.59
299.632
299.666
299.691
299.708
299.718
299.721
299.72
299.715
299.707
299.697
299.686
299.673
299.66
299.646
299.633
299.62
299.607
299.593
299.58
299.568
299.556
299.545
299.534
299.523
299.514
299.504
299.496
299.488
299.481
299.474
299.468
299.463
299.458
299.454
299.45
299.447
299.445
299.444
299.442
299.442
299.441
299.442
299.442
299.443
299.444
299.446
299.448
299.45
299.452
299.455
299.457
299.46
299.463
299.465
299.468
299.471
299.474
299.477
299.48
299.483
299.485
299.488
299.491
299.493
299.495
299.496
299.497
299.498
299.499
299.501
299.502
299.503
299.504
299.507
299.511
299.517
299.525
299.538
299.557
299.586
299.627
299.686
299.766
299.873
300.009
300.177
300.375
300.596
300.833
301.077
298.852
298.955
299.057
299.157
299.252
299.34
299.421
299.492
299.554
299.606
299.648
299.681
299.706
299.722
299.73
299.733
299.731
299.725
299.717
299.707
299.696
299.682
299.669
299.655
299.642
299.628
299.615
299.602
299.589
299.577
299.565
299.555
299.545
299.535
299.525
299.516
299.507
299.5
299.493
299.486
299.48
299.475
299.471
299.467
299.463
299.46
299.458
299.457
299.455
299.455
299.454
299.455
299.455
299.456
299.458
299.459
299.461
299.463
299.465
299.468
299.47
299.473
299.476
299.479
299.482
299.485
299.488
299.491
299.494
299.498
299.501
299.504
299.507
299.508
299.51
299.512
299.513
299.514
299.515
299.516
299.517
299.518
299.519
299.522
299.525
299.53
299.538
299.551
299.57
299.598
299.64
299.698
299.779
299.886
300.022
300.189
300.384
300.603
300.837
301.079
298.853
298.959
299.064
299.166
299.263
299.353
299.435
299.507
299.569
299.621
299.663
299.696
299.72
299.735
299.742
299.743
299.74
299.734
299.726
299.715
299.703
299.69
299.677
299.663
299.649
299.636
299.623
299.61
299.598
299.586
299.575
299.564
299.554
299.544
299.535
299.527
299.519
299.511
299.504
299.498
299.492
299.487
299.483
299.479
299.476
299.473
299.471
299.47
299.469
299.468
299.468
299.468
299.469
299.47
299.471
299.473
299.475
299.477
299.479
299.482
299.485
299.488
299.491
299.494
299.497
299.5
299.504
299.507
299.511
299.514
299.518
299.521
299.523
299.525
299.527
299.529
299.53
299.531
299.532
299.533
299.534
299.534
299.536
299.538
299.541
299.545
299.553
299.565
299.583
299.612
299.653
299.712
299.792
299.898
300.034
300.2
300.394
300.611
300.842
301.08
298.854
298.963
299.07
299.174
299.273
299.365
299.448
299.522
299.584
299.636
299.677
299.71
299.732
299.746
299.752
299.752
299.749
299.743
299.734
299.723
299.711
299.698
299.684
299.67
299.656
299.643
299.63
299.617
299.605
299.594
299.583
299.573
299.563
299.554
299.545
299.537
299.529
299.522
299.515
299.51
299.504
299.5
299.495
299.492
299.489
299.486
299.485
299.483
299.482
299.482
299.482
299.482
299.483
299.484
299.486
299.488
299.49
299.492
299.495
299.497
299.5
299.503
299.507
299.51
299.514
299.517
299.521
299.525
299.528
299.532
299.536
299.539
299.541
299.543
299.545
299.547
299.549
299.55
299.551
299.552
299.552
299.552
299.553
299.554
299.557
299.561
299.568
299.579
299.597
299.625
299.667
299.725
299.805
299.912
300.047
300.212
300.404
300.618
300.847
301.082
298.856
298.967
299.076
299.183
299.284
299.377
299.461
299.535
299.597
299.649
299.69
299.721
299.743
299.755
299.761
299.762
299.758
299.751
299.741
299.73
299.717
299.705
299.69
299.677
299.663
299.65
299.637
299.625
299.613
299.602
299.591
299.581
299.572
299.563
299.554
299.547
299.539
299.533
299.527
299.521
299.516
299.512
299.508
299.505
299.502
299.5
299.498
299.497
299.496
299.496
299.496
299.497
299.498
299.499
299.501
299.503
299.506
299.508
299.511
299.514
299.517
299.52
299.524
299.528
299.531
299.535
299.54
299.544
299.548
299.552
299.556
299.558
299.56
299.562
299.564
299.567
299.569
299.571
299.572
299.572
299.572
299.572
299.572
299.572
299.574
299.577
299.583
299.594
299.612
299.64
299.681
299.739
299.819
299.925
300.06
300.223
300.414
300.626
300.852
301.083
298.857
298.97
299.082
299.191
299.294
299.388
299.474
299.548
299.611
299.661
299.703
299.733
299.752
299.764
299.77
299.77
299.766
299.758
299.749
299.737
299.725
299.711
299.697
299.683
299.67
299.657
299.644
299.632
299.62
299.609
299.599
299.589
299.58
299.572
299.564
299.556
299.55
299.544
299.538
299.533
299.528
299.524
299.521
299.518
299.516
299.514
299.512
299.511
299.511
299.511
299.512
299.513
299.514
299.516
299.518
299.52
299.522
299.525
299.528
299.532
299.535
299.539
299.543
299.547
299.551
299.555
299.56
299.565
299.569
299.573
299.575
299.577
299.579
299.582
299.585
299.589
299.591
299.592
299.593
299.593
299.593
299.592
299.591
299.591
299.592
299.594
299.6
299.61
299.627
299.654
299.695
299.753
299.833
299.939
300.072
300.235
300.424
300.633
300.856
301.085
298.858
298.974
299.088
299.198
299.303
299.399
299.485
299.56
299.622
299.673
299.713
299.741
299.762
299.774
299.779
299.779
299.774
299.766
299.756
299.745
299.732
299.718
299.704
299.69
299.677
299.664
299.651
299.639
299.628
299.617
299.607
299.598
299.589
299.581
299.574
299.567
299.561
299.555
299.55
299.545
299.541
299.537
299.534
299.532
299.53
299.528
299.527
299.527
299.527
299.527
299.528
299.529
299.531
299.533
299.535
299.538
299.541
299.544
299.547
299.551
299.555
299.559
299.563
299.567
299.572
299.577
299.582
299.587
299.59
299.592
299.595
299.598
299.601
299.605
299.609
299.612
299.614
299.615
299.616
299.616
299.615
299.613
299.612
299.61
299.61
299.612
299.617
299.626
299.643
299.67
299.71
299.768
299.847
299.952
300.085
300.247
300.434
300.641
300.861
301.087
298.859
298.977
299.093
299.206
299.312
299.41
299.497
299.571
299.633
299.683
299.723
299.752
299.772
299.783
299.788
299.787
299.782
299.774
299.764
299.752
299.74
299.725
299.712
299.698
299.684
299.672
299.659
299.648
299.637
299.626
299.617
299.608
299.6
299.592
299.585
299.578
299.573
299.567
299.562
299.558
299.555
299.551
299.549
299.547
299.545
299.544
299.543
299.543
299.544
299.545
299.546
299.547
299.549
299.551
299.554
299.557
299.56
299.563
299.567
299.571
299.575
299.58
299.585
299.59
299.595
299.6
299.605
299.608
299.61
299.613
299.616
299.62
299.625
299.629
299.633
299.636
299.638
299.639
299.639
299.639
299.637
299.636
299.633
299.631
299.63
299.631
299.635
299.643
299.659
299.685
299.725
299.783
299.862
299.966
300.099
300.259
300.444
300.648
300.866
301.088
298.86
298.98
299.099
299.213
299.321
299.42
299.508
299.58
299.644
299.694
299.732
299.762
299.781
299.792
299.796
299.795
299.79
299.782
299.772
299.761
299.748
299.733
299.72
299.706
299.693
299.68
299.668
299.657
299.646
299.636
299.627
299.619
299.611
299.604
299.597
299.591
299.586
299.581
299.576
299.573
299.569
299.567
299.564
299.563
299.562
299.561
299.561
299.561
299.561
299.563
299.564
299.566
299.568
299.571
299.574
299.577
299.581
299.584
299.588
299.593
299.597
299.602
299.607
299.613
299.618
299.622
299.625
299.627
299.631
299.635
299.64
299.645
299.65
299.654
299.658
299.66
299.662
299.663
299.663
299.662
299.661
299.658
299.655
299.652
299.65
299.65
299.653
299.661
299.676
299.702
299.741
299.798
299.876
299.98
300.112
300.271
300.454
300.656
300.87
301.089
298.861
298.983
299.104
299.221
299.33
299.43
299.518
299.591
299.653
299.703
299.743
299.772
299.79
299.801
299.805
299.804
299.798
299.79
299.781
299.77
299.756
299.742
299.728
299.715
299.702
299.69
299.678
299.667
299.657
299.648
299.639
299.631
299.623
299.617
299.61
299.605
299.6
299.595
299.592
299.588
299.585
299.583
299.581
299.58
299.579
299.579
299.579
299.58
299.58
299.582
299.584
299.586
299.588
299.592
299.595
299.598
299.602
299.606
299.611
299.615
299.62
299.626
299.631
299.636
299.639
299.642
299.645
299.649
299.653
299.659
299.665
299.67
299.675
299.679
299.682
299.684
299.686
299.687
299.687
299.686
299.684
299.681
299.678
299.673
299.67
299.669
299.672
299.679
299.693
299.718
299.757
299.813
299.892
299.995
300.125
300.283
300.464
300.664
300.875
301.091
298.862
298.987
299.109
299.228
299.339
299.44
299.526
299.602
299.662
299.714
299.753
299.781
299.8
299.81
299.814
299.812
299.807
299.799
299.791
299.779
299.765
299.752
299.738
299.725
299.713
299.701
299.69
299.679
299.669
299.66
299.652
299.644
299.637
299.631
299.625
299.62
299.616
299.612
299.608
299.605
299.603
299.601
299.6
299.599
299.598
299.598
299.599
299.599
299.601
299.602
299.604
299.607
299.61
299.613
299.617
299.621
299.625
299.629
299.634
299.639
299.644
299.649
299.653
299.655
299.658
299.662
299.666
299.672
299.678
299.684
299.69
299.695
299.699
299.703
299.705
299.708
299.709
299.71
299.71
299.71
299.708
299.705
299.701
299.696
299.691
299.69
299.691
299.697
299.711
299.735
299.773
299.829
299.907
300.009
300.139
300.295
300.474
300.672
300.879
301.093
298.863
298.99
299.115
299.235
299.348
299.45
299.535
299.613
299.672
299.724
299.763
299.791
299.809
299.819
299.823
299.821
299.816
299.81
299.801
299.788
299.775
299.762
299.749
299.736
299.724
299.713
299.702
299.692
299.683
299.674
299.667
299.66
299.653
299.647
299.642
299.637
299.633
299.63
299.627
299.624
299.622
299.62
299.619
299.619
299.618
299.619
299.619
299.62
299.622
299.624
299.626
299.629
299.632
299.635
299.639
299.643
299.648
299.653
299.657
299.662
299.666
299.669
299.671
299.674
299.679
299.684
299.69
299.697
299.703
299.708
299.713
299.717
299.722
299.725
299.728
299.73
299.732
299.733
299.733
299.733
299.731
299.728
299.724
299.718
299.713
299.71
299.711
299.716
299.729
299.752
299.79
299.845
299.922
300.024
300.153
300.307
300.484
300.68
300.882
301.094
298.864
298.993
299.12
299.242
299.357
299.458
299.546
299.622
299.684
299.735
299.774
299.801
299.819
299.829
299.832
299.831
299.826
299.82
299.811
299.798
299.785
299.773
299.76
299.748
299.737
299.726
299.716
299.706
299.698
299.69
299.683
299.676
299.67
299.665
299.66
299.656
299.652
299.649
299.646
299.644
299.643
299.641
299.64
299.64
299.64
299.64
299.641
299.643
299.644
299.646
299.649
299.652
299.655
299.658
299.662
299.667
299.671
299.675
299.679
299.682
299.684
299.687
299.691
299.696
299.702
299.708
299.715
299.721
299.726
299.73
299.735
299.74
299.744
299.747
299.75
299.753
299.755
299.756
299.756
299.755
299.754
299.751
299.746
299.741
299.735
299.731
299.731
299.735
299.747
299.77
299.807
299.862
299.938
300.039
300.167
300.32
300.495
300.687
300.886
301.095
298.865
298.996
299.125
299.25
299.366
299.466
299.559
299.631
299.694
299.745
299.784
299.811
299.829
299.839
299.842
299.841