/*--------------------------------*- C++ -*----------------------------------*\
  =========                 |
  \\      /  F ield         | OpenFOAM: The Open Source CFD Toolbox
   \\    /   O peration     | Website:  https://openfoam.org
    \\  /    A nd           | Version:  6
     \\/     M anipulation  |
\*---------------------------------------------------------------------------*/
FoamFile
{
    version     2.0;
    format      ascii;
    class       volVectorField;
    location    "0";
    object      uRec;
}
// * * * * * * * * * * * * * * * * * * * * * * * * * * * * * * * * * * * * * //

dimensions      [0 1 -1 0 0 0 0];

internalField   nonuniform List<vector> 
10000
(
(1.15182e-05 1.37044e-05 0)
(6.53374e-05 -1.34233e-06 0)
(0.000160633 -1.49081e-05 0)
(0.000310457 -2.46617e-05 0)
(0.0005045 -3.17774e-05 0)
(0.000731284 -3.65451e-05 0)
(0.000978413 -3.87486e-05 0)
(0.00123255 -3.81763e-05 0)
(0.00148133 -3.50411e-05 0)
(0.00171433 -2.98889e-05 0)
(0.00192347 -2.35252e-05 0)
(0.00210317 -1.67671e-05 0)
(0.0022504 -1.02569e-05 0)
(0.00236453 -4.4877e-06 0)
(0.00244685 1.57452e-07 0)
(0.00250186 3.22155e-06 0)
(0.00252738 2.76958e-06 0)
(0.00255202 1.12953e-05 0)
(0.0025244 1.74096e-05 0)
(0.00248925 1.2874e-05 0)
(0.00244269 1.2799e-05 0)
(0.00238613 1.31393e-05 0)
(0.00232108 1.32419e-05 0)
(0.00224935 1.31684e-05 0)
(0.00217312 1.27383e-05 0)
(0.00209378 1.21546e-05 0)
(0.00201313 1.15313e-05 0)
(0.00193269 1.07246e-05 0)
(0.00185292 9.94067e-06 0)
(0.00177486 9.31615e-06 0)
(0.00169946 8.60446e-06 0)
(0.00162646 7.84607e-06 0)
(0.00155603 7.32981e-06 0)
(0.00148893 6.91122e-06 0)
(0.001425 6.34476e-06 0)
(0.00136365 5.80595e-06 0)
(0.00130512 5.51205e-06 0)
(0.00124975 5.28237e-06 0)
(0.00119713 4.88384e-06 0)
(0.00114673 4.48591e-06 0)
(0.00109874 4.29236e-06 0)
(0.00105342 4.16572e-06 0)
(0.00101042 3.91779e-06 0)
(0.000969316 3.60993e-06 0)
(0.000930197 3.40371e-06 0)
(0.000893287 3.30243e-06 0)
(0.000858497 3.15575e-06 0)
(0.0008255 2.9181e-06 0)
(0.000794219 2.70401e-06 0)
(0.000764873 2.57638e-06 0)
(0.000737557 2.47285e-06 0)
(0.000712115 2.3167e-06 0)
(0.000688371 2.09752e-06 0)
(0.000666342 1.88281e-06 0)
(0.000646213 1.72884e-06 0)
(0.000628085 1.59574e-06 0)
(0.000611891 1.42233e-06 0)
(0.00059746 1.20648e-06 0)
(0.000584777 9.21132e-07 0)
(0.000574247 8.38403e-07 0)
(0.000564864 1.00274e-06 0)
(0.000556772 9.69033e-07 0)
(0.000549586 8.38895e-07 0)
(0.000542854 7.70629e-07 0)
(0.000536903 5.73211e-07 0)
(0.000532134 3.04024e-07 0)
(0.000529071 9.85037e-08 0)
(0.000527621 -4.99627e-08 0)
(0.000527499 -1.50078e-07 0)
(0.000528426 -2.35417e-07 0)
(0.000530193 -3.17579e-07 0)
(0.000532694 -3.76027e-07 0)
(0.000535914 -3.96722e-07 0)
(0.000539884 -4.1709e-07 0)
(0.000544636 -4.9184e-07 0)
(0.000550259 -6.23553e-07 0)
(0.000557015 -8.0205e-07 0)
(0.000565349 -1.07113e-06 0)
(0.000575835 -1.48077e-06 0)
(0.000589188 -2.04411e-06 0)
(0.000606348 -2.79362e-06 0)
(0.000628476 -3.81002e-06 0)
(0.0006569 -5.17303e-06 0)
(0.000693145 -6.93027e-06 0)
(0.000738923 -9.13023e-06 0)
(0.000795927 -1.18088e-05 0)
(0.000865545 -1.49302e-05 0)
(0.00094856 -1.83778e-05 0)
(0.00104475 -2.19599e-05 0)
(0.00115221 -2.53641e-05 0)
(0.00126667 -2.80873e-05 0)
(0.00138068 -2.93943e-05 0)
(0.00148316 -2.8371e-05 0)
(0.00155723 -2.30795e-05 0)
(0.00158113 -1.20327e-05 0)
(0.00152345 7.5441e-06 0)
(0.00134808 3.8366e-05 0)
(0.00102446 7.85237e-05 0)
(0.000567799 0.000114295 0)
(0.000113589 0.000107269 0)
(1.42852e-05 -2.12085e-05 0)
(0.000153676 -0.000132198 0)
(0.000412145 -0.000239371 0)
(0.00077911 -0.000329772 0)
(0.00123642 -0.000400633 0)
(0.00176142 -0.000449562 0)
(0.00232958 -0.000475195 0)
(0.00291544 -0.000477717 0)
(0.00349531 -0.000459238 0)
(0.00404904 -0.000423348 0)
(0.00456045 -0.00037463 0)
(0.00501749 -0.000317796 0)
(0.00541213 -0.000257171 0)
(0.00573997 -0.000196618 0)
(0.00599997 -0.000139504 0)
(0.0061925 -8.8458e-05 0)
(0.00632978 -4.74385e-05 0)
(0.00638025 -9.31691e-06 0)
(0.00645538 3.8931e-05 0)
(0.0064078 7.58586e-05 0)
(0.00635125 9.49162e-05 0)
(0.0062597 0.000113229 0)
(0.00613909 0.000128405 0)
(0.00599438 0.000140201 0)
(0.00583094 0.000148459 0)
(0.00565336 0.000153263 0)
(0.00546591 0.000155326 0)
(0.00527272 0.000155129 0)
(0.00507671 0.000153019 0)
(0.00488045 0.000149554 0)
(0.00468644 0.000145173 0)
(0.00449616 0.000140096 0)
(0.00431057 0.000134609 0)
(0.00413085 0.000128949 0)
(0.00395767 0.000123223 0)
(0.00379114 0.000117544 0)
(0.00363146 0.000112027 0)
(0.00347878 0.000106721 0)
(0.00333296 0.000101557 0)
(0.00319376 9.66028e-05 0)
(0.00306108 9.19372e-05 0)
(0.00293482 8.74588e-05 0)
(0.00281461 8.30821e-05 0)
(0.00270018 7.88721e-05 0)
(0.00259152 7.4857e-05 0)
(0.00248857 7.09735e-05 0)
(0.00239108 6.71236e-05 0)
(0.00229882 6.329e-05 0)
(0.00221177 5.95704e-05 0)
(0.00213004 5.59757e-05 0)
(0.00205361 5.23785e-05 0)
(0.00198226 4.87174e-05 0)
(0.00191587 4.50412e-05 0)
(0.00185453 4.14164e-05 0)
(0.00179838 3.78449e-05 0)
(0.00174741 3.42472e-05 0)
(0.00170144 3.05442e-05 0)
(0.00166035 2.67353e-05 0)
(0.00162461 2.3029e-05 0)
(0.00159311 1.9595e-05 0)
(0.0015678 1.66648e-05 0)
(0.00154713 1.5235e-05 0)
(0.00152702 1.40872e-05 0)
(0.00150978 1.23688e-05 0)
(0.00149402 1.05045e-05 0)
(0.00148023 7.74408e-06 0)
(0.00147049 4.6028e-06 0)
(0.0014648 1.81598e-06 0)
(0.00146266 -5.60538e-07 0)
(0.00146351 -2.54379e-06 0)
(0.00146694 -4.20826e-06 0)
(0.00147265 -5.64781e-06 0)
(0.00148046 -6.96927e-06 0)
(0.0014903 -8.34052e-06 0)
(0.00150227 -9.97943e-06 0)
(0.00151666 -1.20738e-05 0)
(0.00153396 -1.47891e-05 0)
(0.00155502 -1.83765e-05 0)
(0.00158105 -2.3169e-05 0)
(0.00161353 -2.94996e-05 0)
(0.00165428 -3.77264e-05 0)
(0.00170549 -4.8266e-05 0)
(0.00176966 -6.15066e-05 0)
(0.0018495 -7.76783e-05 0)
(0.00194775 -9.67946e-05 0)
(0.00206688 -0.000118541 0)
(0.00220841 -0.000142025 0)
(0.00237219 -0.000165585 0)
(0.00255556 -0.000186635 0)
(0.00275219 -0.000201459 0)
(0.00295067 -0.000204929 0)
(0.00313305 -0.000190363 0)
(0.00327446 -0.000149482 0)
(0.0033366 -7.40112e-05 0)
(0.003285 5.07129e-05 0)
(0.0030538 0.000236571 0)
(0.00259475 0.000477518 0)
(0.00188008 0.000728185 0)
(0.000978112 0.000856164 0)
(0.000148597 0.000582403 0)
(1.60744e-05 -0.000122109 0)
(0.00021683 -0.000383858 0)
(0.000586008 -0.000627798 0)
(0.00109728 -0.000836598 0)
(0.001724 -0.00100141 0)
(0.00243603 -0.0011158 0)
(0.00320238 -0.00117758 0)
(0.00399279 -0.00118869 0)
(0.00477984 -0.00115434 0)
(0.00553997 -0.00108202 0)
(0.00625399 -0.000980417 0)
(0.00690714 -0.000858378 0)
(0.00748861 -0.000724207 0)
(0.00799121 -0.000585381 0)
(0.00841106 -0.000448383 0)
(0.00874659 -0.000318521 0)
(0.00899857 -0.000198948 0)
(0.00917802 -9.81583e-05 0)
(0.00925861 7.74616e-06 0)
(0.0093204 0.000100128 0)
(0.0093023 0.000158882 0)
(0.00923638 0.000219792 0)
(0.00911961 0.00027314 0)
(0.00896173 0.000315844 0)
(0.00876987 0.00034859 0)
(0.00855057 0.000371909 0)
(0.00831037 0.000386773 0)
(0.00805468 0.000394739 0)
(0.00778805 0.000396974 0)
(0.00751532 0.000394389 0)
(0.00724047 0.000388111 0)
(0.00696593 0.000379081 0)
(0.00669428 0.000367931 0)
(0.00642825 0.000355356 0)
(0.00616916 0.000341978 0)
(0.00591758 0.000328125 0)
(0.00567466 0.000314012 0)
(0.00544133 0.000300035 0)
(0.00521756 0.000286424 0)
(0.00500308 0.000273133 0)
(0.00479808 0.000260147 0)
(0.00460276 0.000247593 0)
(0.00441679 0.000235531 0)
(0.00423963 0.000223896 0)
(0.00407115 0.000212531 0)
(0.00391143 0.000201367 0)
(0.00376026 0.000190475 0)
(0.00361731 0.000179848 0)
(0.00348242 0.000169381 0)
(0.00335559 0.000158988 0)
(0.00323682 0.000148627 0)
(0.00312601 0.000138317 0)
(0.00302298 0.000128107 0)
(0.00292768 0.000117982 0)
(0.00284016 0.000107865 0)
(0.00276041 9.77055e-05 0)
(0.00268825 8.74935e-05 0)
(0.00262353 7.72367e-05 0)
(0.00256587 6.71176e-05 0)
(0.0025166 5.72953e-05 0)
(0.00247371 4.80409e-05 0)
(0.00243709 4.04444e-05 0)
(0.00241358 3.65404e-05 0)
(0.00238719 3.37212e-05 0)
(0.00236525 2.96337e-05 0)
(0.00234363 2.37167e-05 0)
(0.0023252 1.57033e-05 0)
(0.00231334 7.77646e-06 0)
(0.00230695 1.04902e-06 0)
(0.00230533 -4.63134e-06 0)
(0.0023078 -9.43531e-06 0)
(0.00231391 -1.36686e-05 0)
(0.00232332 -1.76572e-05 0)
(0.00233587 -2.17248e-05 0)
(0.00235157 -2.62738e-05 0)
(0.00237077 -3.17818e-05 0)
(0.00239406 -3.87279e-05 0)
(0.00242237 -4.76456e-05 0)
(0.00245701 -5.92108e-05 0)
(0.00249969 -7.41947e-05 0)
(0.00255243 -9.33667e-05 0)
(0.00261758 -0.000117463 0)
(0.00269779 -0.000147099 0)
(0.00279575 -0.000182545 0)
(0.002914 -0.000223472 0)
(0.00305444 -0.000268688 0)
(0.00321764 -0.000315731 0)
(0.00340188 -0.000360406 0)
(0.00360211 -0.000396379 0)
(0.0038087 -0.000414817 0)
(0.00400589 -0.000404027 0)
(0.00417029 -0.000349202 0)
(0.00426894 -0.000232705 0)
(0.00426239 -3.54409e-05 0)
(0.00408802 0.00026641 0)
(0.00369807 0.000684193 0)
(0.00304731 0.00118875 0)
(0.0021319 0.00166797 0)
(0.00106071 0.00184515 0)
(0.00013976 0.00117616 0)
(1.72307e-05 -0.000247301 0)
(0.000256569 -0.000706705 0)
(0.000696803 -0.0011182 0)
(0.00130031 -0.00146665 0)
(0.0020334 -0.00173992 0)
(0.00286032 -0.00192941 0)
(0.00374592 -0.00203333 0)
(0.00465783 -0.0020562 0)
(0.00556754 -0.00200728 0)
(0.00645105 -0.00189858 0)
(0.00728888 -0.00174309 0)
(0.00806589 -0.00155369 0)
(0.00877079 -0.00134247 0)
(0.00939554 -0.00112014 0)
(0.00993518 -0.000896063 0)
(0.0103869 -0.000678132 0)
(0.0107511 -0.000472568 0)
(0.011031 -0.000283484 0)
(0.0112094 -0.000123436 0)
(0.0114041 3.05532e-05 0)
(0.011406 0.000185839 0)
(0.0113866 0.000301775 0)
(0.0113042 0.000404857 0)
(0.0111698 0.000490738 0)
(0.0109913 0.000559637 0)
(0.0107744 0.000612839 0)
(0.0105259 0.000651496 0)
(0.0102524 0.000677264 0)
(0.00995895 0.000692039 0)
(0.0096509 0.000697413 0)
(0.00933367 0.0006949 0)
(0.00901112 0.000686059 0)
(0.00868673 0.000672252 0)
(0.00836413 0.000654607 0)
(0.00804589 0.000634158 0)
(0.00773373 0.000611842 0)
(0.00742963 0.000588374 0)
(0.00713514 0.000564306 0)
(0.00685085 0.000540061 0)
(0.00657715 0.000515963 0)
(0.00631472 0.000492244 0)
(0.006064 0.000469088 0)
(0.00582473 0.00044652 0)
(0.00559654 0.000424479 0)
(0.00537948 0.000402948 0)
(0.0051737 0.000381935 0)
(0.00497896 0.000361407 0)
(0.00479476 0.000341253 0)
(0.00462092 0.000321333 0)
(0.00445749 0.00030159 0)
(0.00430447 0.000282043 0)
(0.00416164 0.000262688 0)
(0.00402874 0.000243476 0)
(0.00390564 0.000224349 0)
(0.00379237 0.000205292 0)
(0.00368891 0.000186347 0)
(0.00359501 0.000167562 0)
(0.00351036 0.000148939 0)
(0.00343478 0.00013037 0)
(0.00336763 0.000112051 0)
(0.00331036 9.44914e-05 0)
(0.00326304 7.79463e-05 0)
(0.00321922 6.4581e-05 0)
(0.00319694 5.81726e-05 0)
(0.00317052 5.46266e-05 0)
(0.00314611 4.78121e-05 0)
(0.00311958 3.50938e-05 0)
(0.00309893 2.02152e-05 0)
(0.00308619 7.27942e-06 0)
(0.00307949 -3.58873e-06 0)
(0.00307811 -1.2893e-05 0)
(0.00308137 -2.1099e-05 0)
(0.00308888 -2.87605e-05 0)
(0.00310035 -3.64504e-05 0)
(0.00311565 -4.47878e-05 0)
(0.00313499 -5.44997e-05 0)
(0.00315892 -6.64066e-05 0)
(0.00318825 -8.14003e-05 0)
(0.00322411 -0.000100494 0)
(0.00326803 -0.000124824 0)
(0.00332182 -0.000155518 0)
(0.00338751 -0.000193558 0)
(0.00346728 -0.000239651 0)
(0.00356327 -0.000293929 0)
(0.00367727 -0.000355525 0)
(0.00381022 -0.000422074 0)
(0.00396155 -0.000489167 0)
(0.00412817 -0.000549662 0)
(0.00430342 -0.000593016 0)
(0.00447571 -0.000604727 0)
(0.00462714 -0.000565931 0)
(0.0047318 -0.000453179 0)
(0.00475462 -0.000239732 0)
(0.00465193 0.000106648 0)
(0.00436947 0.000611499 0)
(0.00386199 0.00127495 0)
(0.00310101 0.00203773 0)
(0.00210503 0.00271206 0)
(0.00100541 0.00287698 0)
(0.000117903 0.00175513 0)
(1.72596e-05 -0.000386153 0)
(0.000279705 -0.0010719 0)
(0.000765258 -0.00167196 0)
(0.00142765 -0.0021732 0)
(0.00222707 -0.00256199 0)
(0.00312328 -0.0028298 0)
(0.00407813 -0.00297695 0)
(0.00505793 -0.0030119 0)
(0.00603408 -0.00294871 0)
(0.00698327 -0.0028042 0)
(0.00788697 -0.00259593 0)
(0.0087309 -0.00234074 0)
(0.00950455 -0.00205422 0)
(0.0102004 -0.00175002 0)
(0.0108134 -0.00143983 0)
(0.0113405 -0.00113376 0)
(0.0117805 -0.000839671 0)
(0.0121306 -0.000565329 0)
(0.0124071 -0.00032343 0)
(0.0125297 -7.82966e-05 0)
(0.0127103 0.000138435 0)
(0.0127578 0.000321539 0)
(0.012747 0.000486284 0)
(0.012668 0.000626867 0)
(0.0125339 0.000742953 0)
(0.0123519 0.000836252 0)
(0.012129 0.000908578 0)
(0.011872 0.00096183 0)
(0.0115866 0.000998072 0)
(0.0112786 0.00101946 0)
(0.0109539 0.0010281 0)
(0.0106169 0.00102594 0)
(0.0102717 0.0010148 0)
(0.00992302 0.00099641 0)
(0.00957422 0.000972401 0)
(0.00922776 0.000944135 0)
(0.0088864 0.000912727 0)
(0.00855262 0.000879171 0)
(0.00822788 0.000844344 0)
(0.00791321 0.000808935 0)
(0.00760981 0.00077339 0)
(0.00731862 0.000738019 0)
(0.00703987 0.000703084 0)
(0.00677355 0.000668756 0)
(0.00651994 0.000635095 0)
(0.00627929 0.000602095 0)
(0.00605144 0.000569699 0)
(0.00583595 0.000537819 0)
(0.00563267 0.000506375 0)
(0.00544165 0.000475328 0)
(0.00526282 0.000444652 0)
(0.00509588 0.000414271 0)
(0.00494045 0.00038412 0)
(0.00479637 0.000354193 0)
(0.00466365 0.000324528 0)
(0.00454221 0.000295187 0)
(0.00443168 0.000266229 0)
(0.00433163 0.000237684 0)
(0.00424176 0.000209544 0)
(0.00416174 0.000181705 0)
(0.00409106 0.000154339 0)
(0.00402991 0.00012849 0)
(0.00398171 0.000104539 0)
(0.00393497 8.5106e-05 0)
(0.00391555 7.73462e-05 0)
(0.00389423 7.40414e-05 0)
(0.00386842 6.28366e-05 0)
(0.00383741 4.17841e-05 0)
(0.00381641 2.04922e-05 0)
(0.00380257 3.27354e-06 0)
(0.00379473 -1.1456e-05 0)
(0.00379225 -2.4467e-05 0)
(0.00379455 -3.64801e-05 0)
(0.00380123 -4.8328e-05 0)
(0.00381203 -6.08629e-05 0)
(0.00382697 -7.50343e-05 0)
(0.00384639 -9.19551e-05 0)
(0.00387085 -0.000112857 0)
(0.00390119 -0.000139052 0)
(0.00393854 -0.00017193 0)
(0.00398426 -0.000212861 0)
(0.00403985 -0.000263001 0)
(0.0041068 -0.000323039 0)
(0.0041865 -0.000392817 0)
(0.00427989 -0.000470794 0)
(0.00438703 -0.000553358 0)
(0.00450638 -0.000634057 0)
(0.00463395 -0.000702718 0)
(0.00476222 -0.000744556 0)
(0.00487888 -0.000739441 0)
(0.00496557 -0.000661458 0)
(0.00499585 -0.000478823 0)
(0.00493645 -0.000155276 0)
(0.00474108 0.000348592 0)
(0.00436872 0.00105552 0)
(0.00378164 0.00195266 0)
(0.00296634 0.00294346 0)
(0.00195883 0.00376374 0)
(0.00090003 0.0038616 0)
(9.42617e-05 0.00227516 0)
(1.68031e-05 -0.000533285 0)
(0.000293751 -0.0014638 0)
(0.00080942 -0.0022667 0)
(0.00151032 -0.00292885 0)
(0.00235092 -0.00343583 0)
(0.0032872 -0.00378095 0)
(0.00427875 -0.00396869 0)
(0.0052911 -0.00401292 0)
(0.00629612 -0.0039333 0)
(0.00727153 -0.0037519 0)
(0.0082003 -0.00349103 0)
(0.00906964 -0.00317153 0)
(0.00987047 -0.00281218 0)
(0.0105967 -0.00242942 0)
(0.0112443 -0.00203687 0)
(0.0118111 -0.00164612 0)
(0.0122966 -0.00126635 0)
(0.0126999 -0.00090514 0)
(0.0130258 -0.000567464 0)
(0.0132688 -0.000278277 0)
(0.0134628 -1.43557e-05 0)
(0.0135516 0.000263671 0)
(0.0135946 0.000501455 0)
(0.0135699 0.000705103 0)
(0.0134882 0.000876378 0)
(0.0133549 0.00101768 0)
(0.0131756 0.00113128 0)
(0.0129566 0.00121958 0)
(0.012703 0.001285 0)
(0.0124205 0.00132992 0)
(0.0121148 0.00135675 0)
(0.0117905 0.00136789 0)
(0.0114519 0.00136569 0)
(0.0111041 0.00135224 0)
(0.0107507 0.00132953 0)
(0.0103949 0.00129936 0)
(0.01004 0.00126336 0)
(0.00968928 0.00122298 0)
(0.00934475 0.00117948 0)
(0.0090081 0.00113383 0)
(0.00868116 0.00108687 0)
(0.00836554 0.00103927 0)
(0.00806203 0.000991553 0)
(0.00777108 0.000944083 0)
(0.00749326 0.000897094 0)
(0.00722916 0.00085069 0)
(0.00697885 0.000804912 0)
(0.00674207 0.000759798 0)
(0.00651876 0.000715326 0)
(0.006309 0.000671434 0)
(0.00611268 0.000628083 0)
(0.00592941 0.000585219 0)
(0.00575883 0.000542799 0)
(0.00560072 0.000500841 0)
(0.00545498 0.000459403 0)
(0.00532141 0.000418557 0)
(0.0051996 0.000378375 0)
(0.005089 0.000338926 0)
(0.00498921 0.000300271 0)
(0.00489984 0.00026248 0)
(0.00482046 0.000225625 0)
(0.00475069 0.000189671 0)
(0.00468912 0.000155841 0)
(0.00464304 0.00012485 0)
(0.00459496 9.94484e-05 0)
(0.0045861 9.34049e-05 0)
(0.00456658 9.00807e-05 0)
(0.00453864 7.14832e-05 0)
(0.00450453 4.35919e-05 0)
(0.00448264 1.80514e-05 0)
(0.00446649 -2.72135e-06 0)
(0.00445598 -2.09671e-05 0)
(0.00445044 -3.76366e-05 0)
(0.00444931 -5.37489e-05 0)
(0.0044522 -7.04037e-05 0)
(0.00445889 -8.87827e-05 0)
(0.00446945 -0.000110221 0)
(0.00448415 -0.000136193 0)
(0.00450349 -0.000168243 0)
(0.00452814 -0.000207947 0)
(0.00455893 -0.000256821 0)
(0.00459672 -0.000316106 0)
(0.00464236 -0.000386397 0)
(0.00469649 -0.000467186 0)
(0.0047593 -0.00055622 0)
(0.00483012 -0.00064868 0)
(0.00490678 -0.000736159 0)
(0.00498483 -0.000805559 0)
(0.00505649 -0.000838003 0)
(0.00510945 -0.000808011 0)
(0.00512578 -0.000683002 0)
(0.00508014 -0.000423274 0)
(0.00493938 1.51813e-05 0)
(0.00466736 0.000672931 0)
(0.0042263 0.00157039 0)
(0.00358928 0.00267789 0)
(0.00275519 0.00385951 0)
(0.0017729 0.00477779 0)
(0.000784908 0.00476686 0)
(7.32056e-05 0.00272696 0)
(1.66438e-05 -0.000685925 0)
(0.000304227 -0.00187378 0)
(0.000841229 -0.00288862 0)
(0.00156789 -0.00371553 0)
(0.00243325 -0.00433976 0)
(0.00338995 -0.00475822 0)
(0.00439599 -0.00498139 0)
(0.00541676 -0.00502983 0)
(0.00642487 -0.00492967 0)
(0.00739931 -0.00470874 0)
(0.00832464 -0.00439423 0)
(0.00918995 -0.00401114 0)
(0.00998774 -0.0035813 0)
(0.0107136 -0.00312367 0)
(0.0113651 -0.00265399 0)
(0.0119409 -0.00218504 0)
(0.0124414 -0.00172735 0)
(0.0128666 -0.00128979 0)
(0.0132183 -0.000879064 0)
(0.0134975 -0.000506805 0)
(0.0136908 -0.000152116 0)
(0.0138519 0.000171975 0)
(0.0139476 0.000469611 0)
(0.0139789 0.000731275 0)
(0.0139517 0.000956938 0)
(0.0138716 0.00114815 0)
(0.0137437 0.00130653 0)
(0.0135733 0.00143423 0)
(0.013365 0.00153369 0)
(0.0131237 0.00160747 0)
(0.0128548 0.00165819 0)
(0.0125625 0.00168847 0)
(0.0122508 0.00170087 0)
(0.0119247 0.00169782 0)
(0.011588 0.0016816 0)
(0.011244 0.00165439 0)
(0.0108964 0.00161816 0)
(0.0105488 0.00157469 0)
(0.0102036 0.0015256 0)
(0.00986317 0.00147224 0)
(0.0095298 0.0014158 0)
(0.00920565 0.00135733 0)
(0.00889201 0.00129765 0)
(0.00858986 0.00123735 0)
(0.00830023 0.00117687 0)
(0.00802405 0.00111663 0)
(0.00776177 0.00105686 0)
(0.00751342 0.000997706 0)
(0.00727906 0.000939238 0)
(0.00705887 0.000881476 0)
(0.00685285 0.000824441 0)
(0.00666064 0.00076814 0)
(0.00648182 0.000712574 0)
(0.00631612 0.000657781 0)
(0.00616339 0.000603836 0)
(0.00602335 0.000550827 0)
(0.00589544 0.000498847 0)
(0.00577904 0.000448016 0)
(0.00567369 0.000398473 0)
(0.00557898 0.000350362 0)
(0.00549438 0.000303809 0)
(0.00541923 0.00025887 0)
(0.00535301 0.000215169 0)
(0.00529357 0.00017423 0)
(0.00525163 0.000136447 0)
(0.00519829 0.000106676 0)
(0.00520977 0.000106591 0)
(0.00518332 0.000103447 0)
(0.00515074 7.5374e-05 0)
(0.00511831 4.25733e-05 0)
(0.0050945 1.50475e-05 0)
(0.00507494 -8.51087e-06 0)
(0.00506005 -2.97713e-05 0)
(0.00504915 -4.99059e-05 0)
(0.00504171 -7.02389e-05 0)
(0.00503737 -9.21742e-05 0)
(0.00503591 -0.000117203 0)
(0.00503733 -0.000146941 0)
(0.00504177 -0.000183105 0)
(0.00504947 -0.000227423 0)
(0.00506072 -0.000281473 0)
(0.00507584 -0.000346468 0)
(0.00509506 -0.000422882 0)
(0.0051184 -0.00050989 0)
(0.00514545 -0.000604587 0)
(0.00517501 -0.000701009 0)
(0.0052046 -0.000788958 0)
(0.00522966 -0.000852682 0)
(0.00524257 -0.000869599 0)
(0.0052315 -0.000809403 0)
(0.0051796 -0.000633579 0)
(0.00506203 -0.000295505 0)
(0.00485147 0.000256827 0)
(0.00451514 0.0010615 0)
(0.0040232 0.00213346 0)
(0.00335694 0.00342453 0)
(0.00252527 0.0047596 0)
(0.00158574 0.00573341 0)
(0.000677686 0.00558395 0)
(5.61499e-05 0.00311352 0)
(1.7045e-05 -0.000843477 0)
(0.000313986 -0.00229804 0)
(0.000866998 -0.00352987 0)
(0.00161061 -0.00452139 0)
(0.00248892 -0.00525881 0)
(0.0034518 -0.00574438 0)
(0.00445641 -0.00599606 0)
(0.00546838 -0.00604222 0)
(0.0064613 -0.00591615 0)
(0.00741559 -0.00565193 0)
(0.00831741 -0.00528172 0)
(0.0091578 -0.00483472 0)
(0.00993121 -0.00433601 0)
(0.0106348 -0.00380671 0)
(0.0112678 -0.00326432 0)
(0.0118305 -0.0027227 0)
(0.0123241 -0.00219279 0)
(0.0127496 -0.00168349 0)
(0.0131073 -0.0012018 0)
(0.0134018 -0.000755827 0)
(0.0136163 -0.00035623 0)
(0.0137901 8.99673e-06 0)
(0.0139316 0.000376133 0)
(0.0140072 0.000701954 0)
(0.0140273 0.000983734 0)
(0.0139968 0.00122561 0)
(0.0139196 0.00142972 0)
(0.0138003 0.00159837 0)
(0.0136426 0.0017342 0)
(0.0134504 0.00183989 0)
(0.0132281 0.00191819 0)
(0.0129793 0.00197175 0)
(0.0127078 0.0020032 0)
(0.0124178 0.00201517 0)
(0.0121132 0.00201018 0)
(0.011797 0.00199052 0)
(0.0114729 0.00195846 0)
(0.0111447 0.00191602 0)
(0.0108151 0.00186508 0)
(0.0104865 0.00180734 0)
(0.0101619 0.00174431 0)
(0.0098436 0.00167731 0)
(0.00953342 0.00160745 0)
(0.00923269 0.00153568 0)
(0.00894294 0.00146272 0)
(0.00866557 0.00138921 0)
(0.00840133 0.00131566 0)
(0.0081505 0.00124241 0)
(0.00791344 0.00116969 0)
(0.00769058 0.00109766 0)
(0.00748201 0.00102648 0)
(0.00728744 0.000956259 0)
(0.00710654 0.000887093 0)
(0.00693903 0.000819057 0)
(0.00678468 0.000752242 0)
(0.00664314 0.000686774 0)
(0.0065138 0.000622811 0)
(0.006396 0.000560527 0)
(0.00628915 0.000500095 0)
(0.00619276 0.000441696 0)
(0.00610626 0.000385505 0)
(0.00602894 0.000331654 0)
(0.00595996 0.000280123 0)
(0.00589827 0.000230323 0)
(0.00584296 0.000184449 0)
(0.00580356 0.000140616 0)
(0.00574999 0.000114777 0)
(0.00577469 0.000119898 0)
(0.00574329 0.000109851 0)
(0.00570417 7.50269e-05 0)
(0.00567345 4.07645e-05 0)
(0.0056458 1.30045e-05 0)
(0.00562135 -1.18728e-05 0)
(0.00559999 -3.52508e-05 0)
(0.00558109 -5.84128e-05 0)
(0.00556419 -8.28625e-05 0)
(0.00554893 -0.000110202 0)
(0.00553502 -0.000142135 0)
(0.00552228 -0.000180459 0)
(0.00551059 -0.000226967 0)
(0.00549984 -0.000283258 0)
(0.00548985 -0.000350484 0)
(0.0054803 -0.000428978 0)
(0.00547071 -0.000517627 0)
(0.00546027 -0.000612963 0)
(0.00544746 -0.000707992 0)
(0.00542959 -0.00079088 0)
(0.00540219 -0.000843417 0)
(0.00535794 -0.000839471 0)
(0.00528553 -0.000743885 0)
(0.00516904 -0.000511439 0)
(0.00498714 -8.8948e-05 0)
(0.00472313 0.000561886 0)
(0.00433379 0.00150127 0)
(0.00380393 0.00272895 0)
(0.00312219 0.00417655 0)
(0.00230477 0.00563065 0)
(0.00141455 0.00662435 0)
(0.000584911 0.00631643 0)
(4.30288e-05 0.00344332 0)
(1.7839e-05 -0.0010059 0)
(0.000323716 -0.00273428 0)
(0.000889016 -0.00418483 0)
(0.00164254 -0.00533764 0)
(0.00252431 -0.00618174 0)
(0.00348227 -0.00672643 0)
(0.00447325 -0.00699855 0)
(0.00546349 -0.00703511 0)
(0.00642765 -0.00687707 0)
(0.00734776 -0.00656505 0)
(0.00821166 -0.00613654 0)
(0.00901215 -0.00562478 0)
(0.00974572 -0.00505822 0)
(0.0104114 -0.00446023 0)
(0.0110102 -0.00384964 0)
(0.0115439 -0.00324123 0)
(0.0120151 -0.00264624 0)
(0.0124261 -0.00207321 0)
(0.0127785 -0.00152856 0)
(0.0130765 -0.00101721 0)
(0.0133158 -0.000547567 0)
(0.0134905 -0.000147304 0)
(0.0136515 0.000252371 0)
(0.013756 0.000634201 0)
(0.013808 0.000966554 0)
(0.0138176 0.0012553 0)
(0.0137856 0.00150276 0)
(0.0137149 0.00171121 0)
(0.0136075 0.00188335 0)
(0.0134663 0.00202182 0)
(0.0132946 0.00212934 0)
(0.0130951 0.0022086 0)
(0.0128707 0.00226215 0)
(0.0126255 0.00229259 0)
(0.0123625 0.0023025 0)
(0.0120847 0.0022943 0)
(0.0117956 0.00227028 0)
(0.0114987 0.00223273 0)
(0.0111969 0.00218372 0)
(0.0108926 0.00212514 0)
(0.0105889 0.00205873 0)
(0.0102885 0.00198609 0)
(0.00999327 0.0019086 0)
(0.00970505 0.00182749 0)
(0.00942563 0.00174381 0)
(0.00915672 0.00165843 0)
(0.00889948 0.00157211 0)
(0.00865451 0.00148547 0)
(0.00842238 0.00139895 0)
(0.00820375 0.00131292 0)
(0.00799899 0.00122771 0)
(0.00780797 0.00114361 0)
(0.00763037 0.00106081 0)
(0.00746595 0.000979476 0)
(0.00731453 0.000899768 0)
(0.00717578 0.000821904 0)
(0.00704904 0.000746105 0)
(0.00693353 0.000672562 0)
(0.00682863 0.000601481 0)
(0.00673381 0.000533109 0)
(0.00664845 0.00046768 0)
(0.00657179 0.000405353 0)
(0.00650294 0.000346171 0)
(0.00644108 0.000289927 0)
(0.00638393 0.000235935 0)
(0.00633776 0.000187165 0)
(0.00629129 0.000138356 0)
(0.00627124 0.000124886 0)
(0.00627428 0.000133247 0)
(0.00624067 0.000112892 0)
(0.00619754 7.65514e-05 0)
(0.00616324 4.38394e-05 0)
(0.0061295 1.61408e-05 0)
(0.00609774 -9.42983e-06 0)
(0.00606734 -3.42498e-05 0)
(0.0060376 -5.98803e-05 0)
(0.00600801 -8.8017e-05 0)
(0.00597813 -0.000120409 0)
(0.0059475 -0.000158837 0)
(0.00591571 -0.000205077 0)
(0.0058823 -0.000260732 0)
(0.00584673 -0.000326911 0)
(0.00580824 -0.000403779 0)
(0.00576599 -0.000489942 0)
(0.00571887 -0.000581474 0)
(0.00566522 -0.00067057 0)
(0.00560239 -0.00074401 0)
(0.00552629 -0.000781481 0)
(0.00543051 -0.000753877 0)
(0.00530574 -0.00062234 0)
(0.00513582 -0.000339726 0)
(0.00491209 0.000140368 0)
(0.00457852 0.000914684 0)
(0.00414789 0.00198072 0)
(0.00359056 0.00334578 0)
(0.00290277 0.00492452 0)
(0.00210586 0.00646728 0)
(0.00126553 0.00745196 0)
(0.000507772 0.00697311 0)
(3.32518e-05 0.00372601 0)
(1.88486e-05 -0.00117326 0)
(0.000333013 -0.0031803 0)
(0.000907111 -0.00484858 0)
(0.00166419 -0.00615685 0)
(0.00254123 -0.00709925 0)
(0.00348502 -0.00769399 0)
(0.0044525 -0.00797777 0)
(0.00541078 -0.00799697 0)
(0.00633577 -0.00780059 0)
(0.00721101 -0.00743595 0)
(0.0080262 -0.00694618 0)
(0.00877594 -0.0063687 0)
(0.00945857 -0.00573509 0)
(0.0100752 -0.00507105 0)
(0.0106284 -0.00439671 0)
(0.0111218 -0.00372753 0)
(0.0115593 -0.00307498 0)
(0.0119445 -0.00244746 0)
(0.0122806 -0.00185129 0)
(0.0125729 -0.00129043 0)
(0.0128139 -0.000776129 0)
(0.0130331 -0.000322367 0)
(0.0131609 0.000115468 0)
(0.0132904 0.000548599 0)
(0.0133618 0.000921823 0)
(0.0134044 0.00124863 0)
(0.0134122 0.00153285 0)
(0.0133859 0.00177675 0)
(0.013326 0.00198268 0)
(0.0132342 0.00215287 0)
(0.0131129 0.00228963 0)
(0.0129638 0.0023954 0)
(0.0127891 0.00247262 0)
(0.0125922 0.00252367 0)
(0.0123759 0.00255101 0)
(0.0121425 0.00255712 0)
(0.0118952 0.00254433 0)
(0.0116374 0.00251494 0)
(0.0113717 0.00247116 0)
(0.0111004 0.00241503 0)
(0.0108265 0.00234845 0)
(0.010553 0.0022732 0)
(0.0102819 0.00219091 0)
(0.010015 0.00210301 0)
(0.00975443 0.00201084 0)
(0.00950217 0.00191555 0)
(0.00925961 0.00181812 0)
(0.00902759 0.00171941 0)
(0.00880697 0.00162016 0)
(0.00859868 0.00152101 0)
(0.00840328 0.00142248 0)
(0.00822081 0.001325 0)
(0.00805107 0.00122895 0)
(0.00789394 0.00113466 0)
(0.00774931 0.00104242 0)
(0.00761688 0.000952511 0)
(0.00749596 0.000865223 0)
(0.00738577 0.000780827 0)
(0.00728567 0.00069959 0)
(0.00719508 0.000621783 0)
(0.0071133 0.000547659 0)
(0.00703952 0.000477427 0)
(0.00697279 0.000411191 0)
(0.00691203 0.00034887 0)
(0.0068565 0.000289801 0)
(0.00680132 0.000233698 0)
(0.00676318 0.00018176 0)
(0.00669451 0.000138719 0)
(0.00671976 0.000142526 0)
(0.00669394 0.00014557 0)
(0.00665609 0.00011614 0)
(0.00661552 8.19403e-05 0)
(0.00657629 5.30791e-05 0)
(0.0065359 2.69537e-05 0)
(0.00649521 1.91968e-06 0)
(0.00645353 -2.34266e-05 0)
(0.00641032 -5.07398e-05 0)
(0.00636508 -8.17598e-05 0)
(0.0063172 -0.000118235 0)
(0.006266 -0.000161876 0)
(0.00621079 -0.000214229 0)
(0.00615074 -0.000276355 0)
(0.00608484 -0.000348283 0)
(0.00601188 -0.00042836 0)
(0.00593054 -0.000512267 0)
(0.00583908 -0.000591579 0)
(0.00573487 -0.000651969 0)
(0.00561401 -0.000671334 0)
(0.00547055 -0.000617953 0)
(0.00529544 -0.000449029 0)
(0.00507647 -0.000110291 0)
(0.00478516 0.000470596 0)
(0.00442395 0.00131782 0)
(0.003964 0.00248943 0)
(0.00339126 0.00397367 0)
(0.00270514 0.0056616 0)
(0.00193199 0.0072678 0)
(0.00113919 0.00822087 0)
(0.000444995 0.00756425 0)
(2.60937e-05 0.0039706 0)
(1.99777e-05 -0.0013454 0)
(0.000341089 -0.00363371 0)
(0.000920078 -0.00551616 0)
(0.00167464 -0.00697212 0)
(0.00253949 -0.0080032 0)
(0.00346108 -0.00863827 0)
(0.00439679 -0.00892472 0)
(0.00531477 -0.00891864 0)
(0.00619236 -0.00867745 0)
(0.00701458 -0.00825542 0)
(0.00777292 -0.00770132 0)
(0.00846388 -0.00705707 0)
(0.00908769 -0.00635732 0)
(0.00964729 -0.00562985 0)
(0.0101471 -0.00489606 0)
(0.0105922 -0.00417191 0)
(0.0109879 -0.00346877 0)
(0.0113384 -0.00279475 0)
(0.0116486 -0.00215605 0)
(0.0119204 -0.00155764 0)
(0.012157 -0.00100759 0)
(0.0123945 -0.000487975 0)
(0.0124703 -1.04012e-05 0)
(0.0126334 0.000444724 0)
(0.0127302 0.000846603 0)
(0.0128083 0.00120467 0)
(0.0128549 0.0015211 0)
(0.0128702 0.00179723 0)
(0.0128545 0.00203458 0)
(0.0128089 0.00223491 0)
(0.0127352 0.00240012 0)
(0.0126347 0.00253223 0)
(0.0125089 0.00263346 0)
(0.0123607 0.00270607 0)
(0.0121923 0.00275235 0)
(0.0120057 0.00277464 0)
(0.0118035 0.00277529 0)
(0.0115888 0.00275659 0)
(0.0113639 0.00272075 0)
(0.011131 0.00266989 0)
(0.0108929 0.00260601 0)
(0.0106525 0.00253102 0)
(0.0104118 0.00244669 0)
(0.0101727 0.00235468 0)
(0.00993749 0.00225649 0)
(0.00970816 0.00215349 0)
(0.00948632 0.00204694 0)
(0.00927305 0.00193797 0)
(0.00906941 0.00182758 0)
(0.00887649 0.00171662 0)
(0.00869505 0.00160587 0)
(0.00852531 0.00149597 0)
(0.00836729 0.00138752 0)
(0.00822093 0.00128102 0)
(0.00808621 0.00117688 0)
(0.00796292 0.00107553 0)
(0.00785045 0.000977357 0)
(0.00774802 0.000882739 0)
(0.00765495 0.000791993 0)
(0.00757065 0.000705416 0)
(0.00749443 0.000623309 0)
(0.00742546 0.000545956 0)
(0.00736276 0.000473555 0)
(0.00730528 0.000406145 0)
(0.00725198 0.000343537 0)
(0.00720201 0.000284548 0)
(0.0071514 0.000229878 0)
(0.00711303 0.000175299 0)
(0.00705607 0.000148023 0)
(0.00708367 0.00016344 0)
(0.00704679 0.000157029 0)
(0.00699918 0.000126515 0)
(0.00695534 9.66055e-05 0)
(0.00690819 7.17188e-05 0)
(0.00685887 4.83537e-05 0)
(0.006807 2.50563e-05 0)
(0.00675188 3.50768e-07 0)
(0.00669295 -2.74176e-05 0)
(0.00662952 -5.9935e-05 0)
(0.0065608 -9.88108e-05 0)
(0.00648585 -0.000145465 0)
(0.00640367 -0.000200855 0)
(0.00631307 -0.000264918 0)
(0.00621264 -0.000335796 0)
(0.00610081 -0.000408825 0)
(0.00597578 -0.000475036 0)
(0.00583501 -0.000519172 0)
(0.00567479 -0.000517513 0)
(0.00548963 -0.000435866 0)
(0.00527123 -0.000227899 0)
(0.00500657 0.00016404 0)
(0.00468305 0.000801806 0)
(0.00428848 0.00174056 0)
(0.00380221 0.0030154 0)