/*--------------------------------*- C++ -*----------------------------------*\
  =========                 |
  \\      /  F ield         | OpenFOAM: The Open Source CFD Toolbox
   \\    /   O peration     | Website:  https://openfoam.org
    \\  /    A nd           | Version:  6
     \\/     M anipulation  |
\*---------------------------------------------------------------------------*/
FoamFile
{
    version     2.0;
    format      ascii;
    class       volVectorField;
    location    "0";
    object      U;
}
// * * * * * * * * * * * * * * * * * * * * * * * * * * * * * * * * * * * * * //

dimensions      [0 1 -1 0 0 0 0];

internalField   nonuniform List<vector> 
40000
(
(-2.11659e-07 2.11526e-07 0)
(9.92735e-07 -4.95591e-07 0)
(4.74282e-06 -1.29749e-06 0)
(1.08955e-05 -1.87726e-06 0)
(1.87539e-05 -2.24931e-06 0)
(2.76664e-05 -2.45123e-06 0)
(3.70893e-05 -2.52008e-06 0)
(4.65865e-05 -2.48829e-06 0)
(5.58194e-05 -2.3817e-06 0)
(6.45311e-05 -2.22035e-06 0)
(7.25304e-05 -2.01973e-06 0)
(7.96782e-05 -1.79177e-06 0)
(8.58767e-05 -1.54571e-06 0)
(9.10603e-05 -1.2886e-06 0)
(9.51888e-05 -1.02581e-06 0)
(9.8241e-05 -7.61356e-07 0)
(0.000100211 -4.98174e-07 0)
(0.000101101 -2.38305e-07 0)
(0.000100925 1.69157e-08 0)
(9.96974e-05 2.66731e-07 0)
(9.74377e-05 5.10843e-07 0)
(9.41657e-05 7.49317e-07 0)
(8.99007e-05 9.82505e-07 0)
(8.46607e-05 1.21097e-06 0)
(7.84613e-05 1.43543e-06 0)
(7.13155e-05 1.65672e-06 0)
(6.32329e-05 1.87571e-06 0)
(5.42196e-05 2.09334e-06 0)
(4.42783e-05 2.31052e-06 0)
(3.34084e-05 2.52813e-06 0)
(2.16055e-05 2.74704e-06 0)
(8.86238e-06 2.96803e-06 0)
(-4.83137e-06 3.19181e-06 0)
(-1.94887e-05 3.41903e-06 0)
(-3.51249e-05 3.65025e-06 0)
(-5.17572e-05 3.88592e-06 0)
(-6.94046e-05 4.12643e-06 0)
(-8.80872e-05 4.37206e-06 0)
(-0.000107826 4.62301e-06 0)
(-0.000128643 4.8794e-06 0)
(-0.00015056 5.14125e-06 0)
(-0.000173598 5.40853e-06 0)
(-0.000197779 5.6811e-06 0)
(-0.000223124 5.95876e-06 0)
(-0.000249651 6.24126e-06 0)
(-0.000277379 6.52826e-06 0)
(-0.000306324 6.81937e-06 0)
(-0.0003365 7.11413e-06 0)
(-0.000367922 7.41203e-06 0)
(-0.000400597 7.71249e-06 0)
(-0.000434534 8.01488e-06 0)
(-0.000469737 8.31852e-06 0)
(-0.000506208 8.62266e-06 0)
(-0.000543945 8.9265e-06 0)
(-0.000582941 9.22917e-06 0)
(-0.000623189 9.52975e-06 0)
(-0.000664674 9.82728e-06 0)
(-0.000707378 1.01207e-05 0)
(-0.000751279 1.04089e-05 0)
(-0.000796351 1.06908e-05 0)
(-0.00084256 1.0965e-05 0)
(-0.000889869 1.12305e-05 0)
(-0.000938235 1.14857e-05 0)
(-0.00098761 1.17293e-05 0)
(-0.00103794 1.19599e-05 0)
(-0.00108916 1.2176e-05 0)
(-0.00114121 1.2376e-05 0)
(-0.00119401 1.25583e-05 0)
(-0.00124748 1.27214e-05 0)
(-0.00130153 1.28635e-05 0)
(-0.00135608 1.29831e-05 0)
(-0.00141102 1.30784e-05 0)
(-0.00146624 1.31477e-05 0)
(-0.00152163 1.31894e-05 0)
(-0.00157707 1.32018e-05 0)
(-0.00163243 1.31833e-05 0)
(-0.00168757 1.31322e-05 0)
(-0.00174236 1.30469e-05 0)
(-0.00179665 1.2926e-05 0)
(-0.00185028 1.2768e-05 0)
(-0.0019031 1.25716e-05 0)
(-0.00195495 1.23355e-05 0)
(-0.00200566 1.20586e-05 0)
(-0.00205506 1.17398e-05 0)
(-0.00210296 1.13783e-05 0)
(-0.0021492 1.09733e-05 0)
(-0.0021936 1.05243e-05 0)
(-0.00223596 1.00308e-05 0)
(-0.00227612 9.49273e-06 0)
(-0.00231388 8.90998e-06 0)
(-0.00234907 8.28277e-06 0)
(-0.00238151 7.61154e-06 0)
(-0.00241101 6.89694e-06 0)
(-0.00243741 6.13985e-06 0)
(-0.00246053 5.34142e-06 0)
(-0.00248021 4.50303e-06 0)
(-0.00249631 3.62633e-06 0)
(-0.00250865 2.71322e-06 0)
(-0.00251711 1.76587e-06 0)
(-0.00252156 7.86686e-07 0)
(-0.00252187 -2.21638e-07 0)
(-0.00251794 -1.25617e-06 0)
(-0.00250967 -2.31374e-06 0)
(-0.00249697 -3.39092e-06 0)
(-0.00247978 -4.48408e-06 0)
(-0.00245806 -5.58934e-06 0)
(-0.00243175 -6.70266e-06 0)
(-0.00240085 -7.81979e-06 0)
(-0.00236534 -8.93633e-06 0)
(-0.00232526 -1.00477e-05 0)
(-0.00228063 -1.11493e-05 0)
(-0.0022315 -1.22363e-05 0)
(-0.00217795 -1.33039e-05 0)
(-0.00212008 -1.43473e-05 0)
(-0.00205799 -1.53616e-05 0)
(-0.00199181 -1.63418e-05 0)
(-0.00192171 -1.72834e-05 0)
(-0.00184784 -1.81814e-05 0)
(-0.0017704 -1.90315e-05 0)
(-0.00168959 -1.98291e-05 0)
(-0.00160563 -2.05701e-05 0)
(-0.00151877 -2.12505e-05 0)
(-0.00142926 -2.18665e-05 0)
(-0.00133737 -2.24147e-05 0)
(-0.00124338 -2.28921e-05 0)
(-0.00114758 -2.32958e-05 0)
(-0.00105028 -2.36235e-05 0)
(-0.000951793 -2.38733e-05 0)
(-0.000852435 -2.40435e-05 0)
(-0.000752533 -2.41331e-05 0)
(-0.000652413 -2.41415e-05 0)
(-0.000552405 -2.40684e-05 0)
(-0.000452841 -2.39141e-05 0)
(-0.000354046 -2.36794e-05 0)
(-0.000256344 -2.33656e-05 0)
(-0.000160055 -2.29743e-05 0)
(-6.54872e-05 -2.25076e-05 0)
(2.70575e-05 -2.19683e-05 0)
(0.000117289 -2.13593e-05 0)
(0.00020493 -2.06841e-05 0)
(0.000289718 -1.99463e-05 0)
(0.000371405 -1.91501e-05 0)
(0.000449761 -1.83e-05 0)
(0.000524572 -1.74006e-05 0)
(0.000595645 -1.64569e-05 0)
(0.000662807 -1.54739e-05 0)
(0.000725905 -1.44569e-05 0)
(0.000784807 -1.34113e-05 0)
(0.000839402 -1.23424e-05 0)
(0.000889601 -1.12557e-05 0)
(0.000935338 -1.01565e-05 0)
(0.000976566 -9.05016e-06 0)
(0.00101326 -7.94184e-06 0)
(0.00104542 -6.83657e-06 0)
(0.00107306 -5.73919e-06 0)
(0.00109621 -4.65432e-06 0)
(0.00111492 -3.5863e-06 0)
(0.00112928 -2.53921e-06 0)
(0.00113936 -1.51681e-06 0)
(0.00114527 -5.22546e-07 0)
(0.00114712 4.40488e-07 0)
(0.00114505 1.36954e-06 0)
(0.00113918 2.26221e-06 0)
(0.00112967 3.11647e-06 0)
(0.00111667 3.93062e-06 0)
(0.00110035 4.70331e-06 0)
(0.00108087 5.43353e-06 0)
(0.00105842 6.12055e-06 0)
(0.00103316 6.76393e-06 0)
(0.00100527 7.36349e-06 0)
(0.000974929 7.91925e-06 0)
(0.000942322 8.4314e-06 0)
(0.000907627 8.90023e-06 0)
(0.000871021 9.32611e-06 0)
(0.000832684 9.70941e-06 0)
(0.000792792 1.00504e-05 0)
(0.000751524 1.03492e-05 0)
(0.000709058 1.06057e-05 0)
(0.000665575 1.08195e-05 0)
(0.000621258 1.09896e-05 0)
(0.000576299 1.11146e-05 0)
(0.000530892 1.11923e-05 0)
(0.000485248 1.12199e-05 0)
(0.000439587 1.11932e-05 0)
(0.00039415 1.11073e-05 0)
(0.000349199 1.09557e-05 0)
(0.000305025 1.07307e-05 0)
(0.000261952 1.04227e-05 0)
(0.00022034 1.00205e-05 0)
(0.000180598 9.51066e-06 0)
(0.000143183 8.87803e-06 0)
(0.000108607 8.10553e-06 0)
(7.7442e-05 7.17498e-06 0)
(5.03084e-05 6.06873e-06 0)
(2.78625e-05 4.77375e-06 0)
(1.07496e-05 3.29147e-06 0)
(-4.85284e-07 1.6558e-06 0)
(-5.6202e-06 -3.46551e-08 0)
(-5.37378e-06 -1.45906e-06 0)
(-1.73267e-06 -1.73247e-06 0)
(4.9716e-07 -9.94665e-07 0)
(5.92348e-06 -5.91364e-06 0)
(1.68273e-05 -1.11132e-05 0)
(3.28129e-05 -1.52002e-05 0)
(5.24514e-05 -1.79688e-05 0)
(7.4405e-05 -1.9536e-05 0)
(9.74769e-05 -2.00963e-05 0)
(0.000120648 -1.98491e-05 0)
(0.000143087 -1.89714e-05 0)
(0.000164137 -1.76119e-05 0)
(0.000183285 -1.58922e-05 0)
(0.000200147 -1.39102e-05 0)
(0.00021444 -1.17442e-05 0)
(0.000225962 -9.45624e-06 0)
(0.00023458 -7.09454e-06 0)
(0.000240214 -4.69626e-06 0)
(0.000242822 -2.28924e-06 0)
(0.000242394 1.06347e-07 0)
(0.000238943 2.47666e-06 0)
(0.000232494 4.81302e-06 0)
(0.000223083 7.111e-06 0)
(0.000210751 9.36952e-06 0)
(0.000195539 1.15902e-05 0)
(0.000177484 1.37768e-05 0)
(0.000156621 1.59344e-05 0)
(0.000132976 1.80695e-05 0)
(0.00010657 2.01889e-05 0)
(7.74126e-05 2.23002e-05 0)
(4.55071e-05 2.44108e-05 0)
(1.08471e-05 2.65281e-05 0)
(-2.65822e-05 2.86591e-05 0)
(-6.6804e-05 3.08104e-05 0)
(-0.000109849 3.29881e-05 0)
(-0.000155753 3.51975e-05 0)
(-0.000204561 3.74432e-05 0)
(-0.00025632 3.97292e-05 0)
(-0.000311083 4.20584e-05 0)
(-0.000368905 4.44331e-05 0)
(-0.000429843 4.68549e-05 0)
(-0.000493956 4.93243e-05 0)
(-0.000561303 5.18415e-05 0)
(-0.00063194 5.44054e-05 0)
(-0.000705924 5.70147e-05 0)
(-0.000783308 5.96671e-05 0)
(-0.000864143 6.23598e-05 0)
(-0.000948472 6.50894e-05 0)
(-0.00103634 6.78516e-05 0)
(-0.00112777 7.06418e-05 0)
(-0.00122281 7.34549e-05 0)
(-0.00132146 7.6285e-05 0)
(-0.00142374 7.91256e-05 0)
(-0.00152966 8.197e-05 0)
(-0.0016392 8.48107e-05 0)
(-0.00175236 8.76397e-05 0)
(-0.0018691 9.04485e-05 0)
(-0.00198938 9.32281e-05 0)
(-0.00211316 9.59688e-05 0)
(-0.00224037 9.86605e-05 0)
(-0.00237094 0.000101293 0)
(-0.00250476 0.000103854 0)
(-0.00264175 0.000106332 0)
(-0.00278176 0.000108716 0)
(-0.00292468 0.000110993 0)
(-0.00307033 0.000113149 0)
(-0.00321856 0.000115171 0)
(-0.00336916 0.000117045 0)
(-0.00352194 0.000118756 0)
(-0.00367667 0.000120291 0)
(-0.0038331 0.000121633 0)
(-0.00399097 0.000122769 0)
(-0.00415 0.000123683 0)
(-0.0043099 0.00012436 0)
(-0.00447033 0.000124785 0)
(-0.00463097 0.000124942 0)
(-0.00479145 0.000124818 0)
(-0.0049514 0.000124398 0)
(-0.00511043 0.000123667 0)
(-0.00526814 0.000122613 0)
(-0.00542409 0.000121222 0)
(-0.00557786 0.000119483 0)
(-0.00572898 0.000117384 0)
(-0.00587699 0.000114915 0)
(-0.00602142 0.000112067 0)
(-0.00616179 0.000108832 0)
(-0.00629758 0.000105204 0)
(-0.00642832 0.000101177 0)
(-0.00655349 9.6748e-05 0)
(-0.00667258 9.19146e-05 0)
(-0.00678509 8.66766e-05 0)
(-0.00689052 8.10357e-05 0)
(-0.00698836 7.49954e-05 0)
(-0.00707812 6.85611e-05 0)
(-0.00715932 6.17404e-05 0)
(-0.00723148 5.45431e-05 0)
(-0.00729415 4.69808e-05 0)
(-0.00734689 3.90678e-05 0)
(-0.00738928 3.08202e-05 0)
(-0.00742092 2.22566e-05 0)
(-0.00744144 1.33977e-05 0)
(-0.0074505 4.2665e-06 0)
(-0.00744778 -5.11183e-06 0)
(-0.007433 -1.471e-05 0)
(-0.00740592 -2.44987e-05 0)
(-0.00736635 -3.44467e-05 0)
(-0.0073141 -4.45206e-05 0)
(-0.00724906 -5.46856e-05 0)
(-0.00717116 -6.49051e-05 0)
(-0.00708036 -7.51411e-05 0)
(-0.00697668 -8.53542e-05 0)
(-0.00686018 -9.55042e-05 0)
(-0.00673099 -0.00010555 0)
(-0.00658927 -0.000115448 0)
(-0.00643524 -0.000125158 0)
(-0.00626918 -0.000134637 0)
(-0.0060914 -0.000143841 0)
(-0.00590229 -0.000152729 0)
(-0.00570227 -0.000161259 0)
(-0.00549182 -0.00016939 0)
(-0.00527147 -0.000177083 0)
(-0.00504178 -0.0001843 0)
(-0.00480339 -0.000191004 0)
(-0.00455695 -0.000197162 0)
(-0.00430316 -0.00020274 0)
(-0.00404276 -0.000207709 0)
(-0.00377653 -0.000212043 0)
(-0.00350527 -0.000215719 0)
(-0.0032298 -0.000218715 0)
(-0.002951 -0.000221015 0)
(-0.00266971 -0.000222605 0)
(-0.00238684 -0.000223476 0)
(-0.00210328 -0.000223622 0)
(-0.00181992 -0.000223042 0)
(-0.00153767 -0.000221737 0)
(-0.00125742 -0.000219715 0)
(-0.000980055 -0.000216985 0)
(-0.000706444 -0.000213561 0)
(-0.000437439 -0.000209463 0)
(-0.000173866 -0.000204712 0)
(8.34774e-05 -0.000199333 0)
(0.000333826 -0.000193356 0)
(0.000576451 -0.000186813 0)
(0.000810666 -0.00017974 0)
(0.00103583 -0.000172173 0)
(0.00125134 -0.000164154 0)
(0.00145665 -0.000155724 0)
(0.00165128 -0.000146928 0)
(0.00183477 -0.000137812 0)
(0.00200676 -0.000128421 0)
(0.0021669 -0.000118803 0)
(0.00231494 -0.000109004 0)
(0.00245066 -9.90731e-05 0)
(0.00257392 -8.90559e-05 0)
(0.0026846 -7.89984e-05 0)
(0.00278268 -6.89454e-05 0)
(0.00286816 -5.89402e-05 0)
(0.00294113 -4.90242e-05 0)
(0.00300168 -3.92368e-05 0)
(0.00305 -2.96153e-05 0)
(0.00308628 -2.01941e-05 0)
(0.00311079 -1.10053e-05 0)
(0.00312382 -2.07808e-06 0)
(0.00312569 6.56139e-06 0)
(0.00311677 1.48898e-05 0)
(0.00309744 2.28868e-05 0)
(0.00306811 3.05352e-05 0)
(0.00302923 3.78205e-05 0)
(0.00298125 4.47309e-05 0)
(0.00292463 5.12575e-05 0)
(0.00285985 5.73935e-05 0)
(0.0027874 6.31344e-05 0)
(0.00270779 6.84774e-05 0)
(0.0026215 7.34212e-05 0)
(0.00252904 7.79653e-05 0)
(0.00243092 8.21101e-05 0)
(0.00232765 8.58555e-05 0)
(0.00221974 8.9201e-05 0)
(0.0021077 9.21447e-05 0)
(0.00199204 9.46828e-05 0)
(0.00187331 9.68084e-05 0)
(0.00175204 9.8511e-05 0)
(0.00162879 9.97756e-05 0)
(0.00150413 0.000100581 0)
(0.00137868 0.000100901 0)
(0.00125309 0.0001007 0)
(0.00112806 9.99335e-05 0)
(0.00100433 9.85492e-05 0)
(0.000882738 9.64827e-05 0)
(0.000764176 9.3659e-05 0)
(0.000649639 8.99917e-05 0)
(0.000540219 8.53838e-05 0)
(0.000437116 7.97299e-05 0)
(0.000341636 7.29219e-05 0)
(0.000255181 6.48589e-05 0)
(0.00017922 5.54683e-05 0)
(0.000115224 4.47456e-05 0)
(6.45378e-05 3.28314e-05 0)
(2.81641e-05 2.0159e-05 0)
(6.33183e-06 7.72461e-06 0)
(-2.32142e-06 -2.32913e-06 0)
(-1.46004e-06 -5.37364e-06 0)
(1.30543e-06 -4.76089e-06 0)
(1.11638e-05 -1.68334e-05 0)
(2.83806e-05 -2.83081e-05 0)
(5.21539e-05 -3.72928e-05 0)
(8.04956e-05 -4.34273e-05 0)
(0.000111691 -4.68947e-05 0)
(0.000144173 -4.80562e-05 0)
(0.00017656 -4.73118e-05 0)
(0.00020769 -4.50383e-05 0)
(0.000236612 -4.15666e-05 0)
(0.000262571 -3.71774e-05 0)
(0.000284977 -3.21037e-05 0)
(0.000303387 -2.65361e-05 0)
(0.000317474 -2.06282e-05 0)
(0.000327013 -1.45022e-05 0)
(0.000331855 -8.25312e-06 0)
(0.000331913 -1.95374e-06 0)
(0.00032715 4.34237e-06 0)
(0.000317561 1.05975e-05 0)
(0.000303168 1.67871e-05 0)
(0.000284007 2.28975e-05 0)
(0.000260122 2.89238e-05 0)
(0.000231563 3.48681e-05 0)
(0.000198375 4.0738e-05 0)
(0.000160598 4.65451e-05 0)
(0.000118263 5.23041e-05 0)
(7.13911e-05 5.80318e-05 0)
(1.9992e-05 6.37458e-05 0)
(-3.59379e-05 6.94643e-05 0)
(-9.64141e-05 7.52053e-05 0)
(-0.000161465 8.09861e-05 0)
(-0.00023113 8.68229e-05 0)
(-0.000305461 9.27305e-05 0)
(-0.000384518 9.87219e-05 0)
(-0.00046837 0.000104809 0)
(-0.000557093 0.000111 0)
(-0.00065077 0.000117303 0)
(-0.000749485 0.000123723 0)
(-0.000853329 0.000130263 0)
(-0.000962391 0.000136925 0)
(-0.00107676 0.000143708 0)
(-0.00119652 0.000150609 0)
(-0.00132176 0.000157623 0)
(-0.00145256 0.000164743 0)
(-0.00158898 0.000171962 0)
(-0.0017311 0.00017927 0)
(-0.00187897 0.000186655 0)
(-0.00203263 0.000194104 0)
(-0.00219212 0.000201603 0)
(-0.00235747 0.000209134 0)
(-0.00252867 0.000216682 0)
(-0.00270572 0.000224225 0)
(-0.0028886 0.000231745 0)
(-0.00307727 0.000239219 0)
(-0.00327166 0.000246624 0)
(-0.00347171 0.000253935 0)
(-0.00367731 0.000261125 0)
(-0.00388835 0.000268169 0)
(-0.00410468 0.000275035 0)
(-0.00432613 0.000281695 0)
(-0.00455252 0.000288117 0)
(-0.00478363 0.000294268 0)
(-0.00501922 0.000300114 0)
(-0.00525903 0.000305621 0)
(-0.00550275 0.000310752 0)
(-0.00575007 0.00031547 0)
(-0.00600063 0.000319738 0)
(-0.00625404 0.000323518 0)
(-0.00650991 0.00032677 0)
(-0.00676779 0.000329455 0)
(-0.00702721 0.000331535 0)
(-0.00728767 0.000332971 0)
(-0.00754864 0.000333723 0)
(-0.00780956 0.000333753 0)
(-0.00806985 0.000333024 0)
(-0.00832891 0.000331499 0)
(-0.00858608 0.000329143 0)
(-0.00884071 0.000325923 0)
(-0.00909211 0.000321807 0)
(-0.00933957 0.000316766 0)
(-0.00958237 0.000310771 0)
(-0.00981976 0.0003038 0)
(-0.010051 0.000295829 0)
(-0.0102753 0.000286842 0)
(-0.0104918 0.000276823 0)
(-0.0106999 0.000265762 0)
(-0.0108986 0.000253653 0)
(-0.0110872 0.000240491 0)
(-0.0112649 0.000226281 0)
(-0.011431 0.000211028 0)
(-0.0115845 0.000194745 0)
(-0.0117249 0.000177449 0)
(-0.0118512 0.000159162 0)
(-0.0119629 0.000139911 0)
(-0.0120592 0.000119731 0)
(-0.0121394 9.86606e-05 0)
(-0.0122029 7.67435e-05 0)
(-0.0122491 5.40304e-05 0)
(-0.0122775 3.05768e-05 0)
(-0.0122875 6.44415e-06 0)
(-0.0122786 -1.8301e-05 0)
(-0.0122505 -4.35867e-05 0)
(-0.0122029 -6.93359e-05 0)
(-0.0121353 -9.54671e-05 0)
(-0.0120477 -0.000121894 0)
(-0.0119397 -0.000148525 0)
(-0.0118115 -0.000175268 0)
(-0.0116628 -0.000202023 0)
(-0.0114938 -0.000228689 0)
(-0.0113047 -0.000255165 0)
(-0.0110956 -0.000281343 0)
(-0.0108667 -0.000307118 0)
(-0.0106186 -0.00033238 0)
(-0.0103515 -0.000357024 0)
(-0.0100661 -0.000380939 0)
(-0.00976298 -0.000404021 0)
(-0.00944274 -0.000426164 0)
(-0.00910619 -0.000447265 0)
(-0.00875413 -0.000467225 0)
(-0.00838748 -0.000485947 0)
(-0.0080072 -0.000503342 0)
(-0.00761432 -0.000519322 0)
(-0.00720994 -0.000533807 0)
(-0.00679519 -0.000546724 0)
(-0.00637127 -0.000558005 0)
(-0.00593944 -0.000567591 0)
(-0.00550097 -0.000575431 0)
(-0.00505718 -0.000581482 0)
(-0.00460941 -0.00058571 0)
(-0.00415904 -0.000588092 0)
(-0.00370744 -0.000588613 0)
(-0.003256 -0.000587268 0)
(-0.00280611 -0.000584063 0)
(-0.00235915 -0.000579012 0)
(-0.00191648 -0.000572141 0)
(-0.00147946 -0.000563486 0)
(-0.0010494 -0.000553091 0)
(-0.000627583 -0.000541012 0)
(-0.000215248 -0.00052731 0)
(0.000186412 -0.00051206 0)
(0.000576257 -0.00049534 0)
(0.000953212 -0.000477239 0)
(0.00131626 -0.000457852 0)
(0.00166447 -0.000437278 0)
(0.00199696 -0.000415625 0)
(0.00231295 -0.000393002 0)
(0.00261174 -0.000369525 0)
(0.00289268 -0.000345309 0)
(0.00315526 -0.000320475 0)
(0.00339902 -0.000295142 0)
(0.00362359 -0.000269429 0)
(0.00382871 -0.000243456 0)
(0.00401417 -0.000217341 0)
(0.0041799 -0.000191197 0)
(0.00432586 -0.000165135 0)
(0.00445212 -0.000139264 0)
(0.00455882 -0.000113685 0)
(0.00464619 -8.84959e-05 0)
(0.00471451 -6.37863e-05 0)
(0.00476415 -3.96409e-05 0)
(0.00479551 -1.61374e-05 0)
(0.00480909 6.65394e-06 0)
(0.0048054 2.86701e-05 0)
(0.00478503 4.98552e-05 0)
(0.00474859 7.0161e-05 0)
(0.00469675 8.95462e-05 0)
(0.00463019 0.000107977 0)
(0.00454963 0.000125424 0)
(0.00445581 0.000141867 0)
(0.00434949 0.000157289 0)
(0.00423143 0.000171677 0)
(0.00410243 0.000185024 0)
(0.00396327 0.000197324 0)
(0.00381477 0.000208571 0)
(0.00365773 0.000218761 0)
(0.00349297 0.000227889 0)
(0.00332133 0.000235943 0)
(0.00314363 0.000242912 0)
(0.00296075 0.000248772 0)
(0.00277356 0.000253493 0)
(0.00258297 0.000257035 0)
(0.00238993 0.000259343 0)
(0.00219542 0.000260346 0)
(0.00200051 0.000259956 0)
(0.00180631 0.000258066 0)
(0.00161402 0.000254546 0)
(0.00142495 0.000249243 0)
(0.00124049 0.000241983 0)
(0.00106217 0.000232568 0)
(0.000891654 0.000220785 0)
(0.000730712 0.000206411 0)
(0.000581247 0.000189231 0)
(0.000445246 0.00016907 0)
(0.000324731 0.00014584 0)
(0.000221657 0.000119637 0)
(0.000137741 9.08978e-05 0)
(7.41828e-05 6.06809e-05 0)
(3.12507e-05 3.11253e-05 0)
(7.79937e-06 6.35006e-06 0)
(-2.85039e-08 -5.6039e-06 0)
(1.89697e-06 -1.09591e-05 0)
(1.53189e-05 -3.28861e-05 0)
(3.74954e-05 -5.21119e-05 0)
(6.71181e-05 -6.68845e-05 0)
(0.000101633 -7.68829e-05 0)
(0.000139027 -8.2408e-05 0)
(0.000177493 -8.40088e-05 0)
(0.000215419 -8.23064e-05 0)
(0.000251428 -7.79048e-05 0)
(0.000284372 -7.13507e-05 0)
(0.000313318 -6.31195e-05 0)
(0.000337526 -5.36148e-05 0)
(0.000356423 -4.31722e-05 0)
(0.000369581 -3.20667e-05 0)
(0.000376688 -2.05197e-05 0)
(0.000377534 -8.70625e-06 0)
(0.000371983 3.23866e-06 0)
(0.000359963 1.5214e-05 0)
(0.000341445 2.71474e-05 0)
(0.000316435 3.89907e-05 0)
(0.00028496 5.07157e-05 0)
(0.000247059 6.23105e-05 0)
(0.000202775 7.37762e-05 0)
(0.000152152 8.51244e-05 0)
(9.52273e-05 9.63746e-05 0)
(3.20274e-05 0.000107552 0)
(-3.74323e-05 0.000118685 0)
(-0.000113151 0.000129806 0)
(-0.000195142 0.000140946 0)
(-0.000283436 0.000152137 0)
(-0.000378076 0.000163411 0)
(-0.00047912 0.000174797 0)
(-0.000586642 0.00018632 0)
(-0.000700724 0.000198004 0)
(-0.000821461 0.000209869 0)
(-0.000948955 0.000221932 0)
(-0.00108332 0.000234204 0)
(-0.00122465 0.000246696 0)
(-0.00137309 0.000259412 0)
(-0.00152874 0.000272352 0)
(-0.00169171 0.000285515 0)
(-0.00186212 0.000298893 0)
(-0.00204007 0.000312476 0)
(-0.00222566 0.000326252 0)
(-0.00241898 0.000340203 0)
(-0.0026201 0.00035431 0)
(-0.0028291 0.000368548 0)
(-0.00304601 0.000382892 0)
(-0.00327087 0.000397311 0)
(-0.00350369 0.000411775 0)
(-0.00374448 0.000426248 0)
(-0.0039932 0.000440693 0)
(-0.0042498 0.000455068 0)
(-0.00451421 0.000469331 0)
(-0.00478633 0.000483435 0)
(-0.00506603 0.000497332 0)
(-0.00535317 0.000510971 0)
(-0.00564755 0.000524298 0)
(-0.00594897 0.000537258 0)
(-0.00625716 0.00054979 0)
(-0.00657186 0.000561835 0)
(-0.00689274 0.000573329 0)
(-0.00721945 0.000584206 0)
(-0.00755161 0.000594401 0)
(-0.00788879 0.000603843 0)
(-0.00823052 0.000612462 0)
(-0.00857631 0.000620187 0)
(-0.00892562 0.000626945 0)
(-0.00927785 0.000632663 0)
(-0.0096324 0.000637267 0)
(-0.00998861 0.000640684 0)
(-0.0103458 0.000642841 0)
(-0.0107032 0.000643665 0)
(-0.01106 0.000643086 0)
(-0.0114155 0.000641034 0)
(-0.0117688 0.000637443 0)
(-0.012119 0.000632249 0)
(-0.0124653 0.000625391 0)
(-0.0128066 0.000616812 0)
(-0.0131421 0.000606459 0)
(-0.0134707 0.000594284 0)
(-0.0137915 0.000580246 0)
(-0.0141034 0.000564307 0)
(-0.0144054 0.000546438 0)
(-0.0146964 0.000526615 0)
(-0.0149754 0.000504821 0)
(-0.0152413 0.00048105 0)
(-0.0154932 0.000455301 0)
(-0.0157299 0.000427582 0)
(-0.0159504 0.000397912 0)
(-0.0161536 0.000366318 0)
(-0.0163387 0.000332836 0)
(-0.0165046 0.000297513 0)
(-0.0166505 0.000260406 0)
(-0.0167753 0.000221581 0)
(-0.0168782 0.000181115 0)
(-0.0169585 0.000139096 0)
(-0.0170154 9.56219e-05 0)
(-0.0170481 5.07994e-05 0)
(-0.017056 4.74662e-06 0)
(-0.0170387 -4.24092e-05 0)
(-0.0169954 -9.05313e-05 0)
(-0.016926 -0.000139474 0)
(-0.0168299 -0.000189083 0)
(-0.0167069 -0.000239196 0)
(-0.0165569 -0.000289644 0)
(-0.0163798 -0.000340249 0)
(-0.0161756 -0.000390831 0)
(-0.0159444 -0.0004412 0)
(-0.0156864 -0.000491167 0)
(-0.0154019 -0.000540535 0)
(-0.0150913 -0.000589107 0)
(-0.0147551 -0.000636684 0)
(-0.014394 -0.000683069 0)
(-0.0140086 -0.000728062 0)
(-0.0135998 -0.000771469 0)
(-0.0131684 -0.000813096 0)
(-0.0127155 -0.000852757 0)
(-0.0122421 -0.000890269 0)
(-0.0117495 -0.000925458 0)
(-0.0112389 -0.000958156 0)
(-0.0107116 -0.000988207 0)
(-0.0101692 -0.00101546 0)
(-0.00961297 -0.00103979 0)
(-0.00904462 -0.00106107 0)
(-0.00846573 -0.00107919 0)
(-0.00787798 -0.00109405 0)
(-0.00728307 -0.00110559 0)
(-0.00668275 -0.00111373 0)
(-0.0060788 -0.00111844 0)
(-0.00547301 -0.00111968 0)
(-0.00486718 -0.00111745 0)
(-0.00426312 -0.00111175 0)
(-0.00366263 -0.00110262 0)
(-0.00306749 -0.00109009 0)
(-0.00247945 -0.00107424 0)
(-0.00190023 -0.00105513 0)
(-0.00133151 -0.00103288 0)
(-0.000774922 -0.00100758 0)
(-0.000232023 -0.000979384 0)
(0.000295684 -0.000948423 0)
(0.000806776 -0.00091486 0)
(0.00129991 -0.000878866 0)
(0.00177383 -0.000840624 0)
(0.00222737 -0.000800327 0)
(0.00265948 -0.000758178 0)
(0.00306919 -0.000714385 0)
(0.00345564 -0.000669162 0)
(0.0038181 -0.000622727 0)
(0.00415592 -0.000575301 0)
(0.0044686 -0.000527105 0)
(0.00475571 -0.000478359 0)
(0.00501696 -0.00042928 0)
(0.00525217 -0.000380081 0)
(0.00546126 -0.00033097 0)
(0.00564426 -0.000282146 0)
(0.00580131 -0.000233803 0)
(0.00593265 -0.000186123 0)
(0.00603859 -0.000139278 0)
(0.00611956 -9.34279e-05 0)
(0.00617606 -4.87223e-05 0)
(0.00620868 -5.29689e-06 0)
(0.00621807 3.67256e-05 0)
(0.00620495 7.72353e-05 0)
(0.0061701 0.000116136 0)
(0.00611436 0.000153344 0)
(0.00603859 0.000188788 0)
(0.00594374 0.000222409 0)
(0.00583075 0.000254159 0)
(0.00570061 0.000283999 0)
(0.00555434 0.000311899 0)
(0.00539296 0.000337834 0)
(0.00521754 0.000361786 0)
(0.00502914 0.000383739 0)
(0.00482885 0.000403675 0)
(0.00461777 0.000421577 0)
(0.00439703 0.00043742 0)
(0.00416776 0.00045117 0)
(0.00393114 0.000462783 0)
(0.00368835 0.000472197 0)
(0.00344065 0.000479333 0)
(0.00318932 0.000484087 0)
(0.0029357 0.000486331 0)
(0.00268122 0.000485903 0)
(0.00242738 0.000482613 0)
(0.00217579 0.000476232 0)
(0.00192815 0.000466496 0)
(0.0016863 0.000453107 0)
(0.00145222 0.000435738 0)
(0.00122799 0.000414043 0)
(0.00101586 0.000387674 0)
(0.000818164 0.000356317 0)
(0.000637299 0.000319744 0)
(0.000475668 0.000277904 0)
(0.000335555 0.000231068 0)
(0.00021895 0.000180066 0)
(0.000127291 0.000126665 0)
(6.11726e-05 7.41497e-05 0)
(2.03977e-05 2.83313e-05 0)
(1.68348e-06 -3.97726e-07 0)
(2.28362e-06 -1.89036e-05 0)
(1.81633e-05 -5.26569e-05 0)
(4.37582e-05 -8.05437e-05 0)
(7.72779e-05 -0.00010142 0)
(0.000115646 -0.000115252 0)
(0.000156576 -0.000122564 0)
(0.000198071 -0.000124135 0)
(0.000238364 -0.000120828 0)
(0.000275936 -0.000113485 0)
(0.00030951 -0.000102883 0)
(0.000338033 -8.97065e-05 0)
(0.000360659 -7.45482e-05 0)
(0.000376719 -5.79069e-05 0)
(0.000385706 -4.01963e-05 0)
(0.000387241 -2.17535e-05 0)
(0.000381056 -2.84742e-06 0)
(0.000366973 1.6312e-05 0)
(0.000344884 3.55661e-05 0)
(0.000314733 5.47999e-05 0)
(0.000276504 7.39353e-05 0)
(0.000230206 9.29251e-05 0)
(0.000175866 0.000111748 0)
(0.000113516 0.000130401 0)
(4.31888e-05 0.000148901 0)
(-3.50901e-05 0.000167276 0)
(-0.000121304 0.00018556 0)
(-0.00021545 0.000203799 0)
(-0.000317542 0.000222037 0)
(-0.000427608 0.000240325 0)
(-0.000545694 0.00025871 0)
(-0.000671865 0.000277238 0)
(-0.0008062 0.000295953 0)
(-0.000948791 0.000314896 0)
(-0.00109975 0.0003341 0)
(-0.00125919 0.000353597 0)
(-0.00142724 0.00037341 0)
(-0.00160403 0.000393557 0)
(-0.00178971 0.00041405 0)
(-0.0019844 0.000434896 0)
(-0.00218826 0.000456093 0)
(-0.00240142 0.000477637 0)
(-0.002624 0.000499514 0)
(-0.00285613 0.000521706 0)
(-0.00309791 0.00054419 0)
(-0.00334946 0.000566936 0)
(-0.00361084 0.00058991 0)
(-0.00388212 0.000613073 0)
(-0.00416335 0.000636381 0)
(-0.00445455 0.000659783 0)
(-0.00475573 0.000683225 0)
(-0.00506684 0.000706651 0)
(-0.00538785 0.000729995 0)
(-0.00571866 0.000753191 0)
(-0.00605917 0.000776166 0)
(-0.00640922 0.000798846 0)
(-0.00676863 0.000821149 0)
(-0.00713717 0.00084299 0)
(-0.00751461 0.000864283 0)
(-0.00790062 0.000884933 0)
(-0.00829489 0.000904846 0)
(-0.00869702 0.000923922 0)
(-0.0091066 0.000942057 0)
(-0.00952314 0.000959146 0)
(-0.00994615 0.00097508 0)
(-0.0103751 0.000989747 0)
(-0.0108092 0.00100304 0)
(-0.0112481 0.00101483 0)
(-0.0116908 0.00102501 0)
(-0.0121367 0.00103346 0)
(-0.0125851 0.00104007 0)
(-0.0130349 0.00104472 0)
(-0.0134854 0.0010473 0)
(-0.0139356 0.00104768 0)
(-0.0143845 0.00104577 0)
(-0.0148311 0.00104144 0)
(-0.0152743 0.00103461 0)
(-0.0157131 0.00102517 0)
(-0.0161463 0.00101302 0)
(-0.0165728 0.000998089 0)
(-0.0169912 0.00098029 0)
(-0.0174005 0.000959554 0)
(-0.0177994 0.000935817 0)
(-0.0181866 0.00090903 0)
(-0.0185608 0.000879148 0)
(-0.0189208 0.000846143 0)
(-0.0192653 0.000809996 0)
(-0.0195929 0.0007707 0)
(-0.0199025 0.000728264 0)
(-0.0201927 0.000682707 0)
(-0.0204624 0.000634066 0)
(-0.0207102 0.000582391 0)
(-0.0209351 0.000527747 0)
(-0.0211358 0.000470214 0)
(-0.0213113 0.000409889 0)
(-0.0214604 0.000346885 0)
(-0.0215822 0.000281329 0)
(-0.0216757 0.000213365 0)
(-0.0217401 0.000143154 0)
(-0.0217745 7.08694e-05 0)
(-0.0217782 -3.29763e-06 0)
(-0.0217506 -7.91422e-05 0)
(-0.0216911 -0.000156445 0)
(-0.0215992 -0.000234974 0)
(-0.0214745 -0.000314484 0)
(-0.0213169 -0.000394716 0)
(-0.021126 -0.000475404 0)
(-0.020902 -0.000556269 0)
(-0.0206448 -0.000637024 0)
(-0.0203545 -0.000717375 0)
(-0.0200316 -0.000797022 0)
(-0.0196763 -0.000875661 0)
(-0.0192893 -0.000952984 0)
(-0.0188711 -0.00102868 0)
(-0.0184226 -0.00110244 0)
(-0.0179445 -0.00117396 0)
(-0.0174379 -0.00124294 0)
(-0.0169039 -0.00130907 0)
(-0.0163438 -0.00137208 0)
(-0.0157588 -0.00143166 0)
(-0.0151504 -0.00148757 0)
(-0.0145201 -0.00153953 0)
(-0.0138695 -0.00158731 0)
(-0.0132004 -0.00163068 0)
(-0.0125145 -0.00166943 0)
(-0.0118137 -0.00170338 0)
(-0.0111 -0.00173235 0)
(-0.0103754 -0.0017562 0)
(-0.00964183 -0.00177482 0)
(-0.00890147 -0.0017881 0)
(-0.00815641 -0.00179598 0)
(-0.00740881 -0.00179841 0)
(-0.00666081 -0.00179538 0)
(-0.00591457 -0.00178689 0)
(-0.00517226 -0.001773 0)
(-0.00443599 -0.00175375 0)
(-0.00370789 -0.00172926 0)
(-0.00299001 -0.00169964 0)
(-0.00228437 -0.00166503 0)
(-0.00159294 -0.00162563 0)
(-0.000917609 -0.00158161 0)
(-0.000260199 -0.00153321 0)
(0.000377559 -0.00148066 0)
(0.000994024 -0.00142423 0)
(0.00158766 -0.00136421 0)
(0.00215703 -0.00130088 0)
(0.00270081 -0.00123456 0)
(0.00321782 -0.00116558 0)
(0.00370697 -0.00109425 0)
(0.00416731 -0.00102093 0)
(0.00459802 -0.000945952 0)
(0.00499842 -0.000869661 0)
(0.00536796 -0.000792402 0)
(0.0057062 -0.000714514 0)
(0.00601287 -0.000636332 0)
(0.00628781 -0.000558184 0)
(0.00653099 -0.000480386 0)
(0.0067425 -0.000403242 0)
(0.00692256 -0.000327044 0)
(0.0070715 -0.000252067 0)
(0.00718976 -0.00017857 0)
(0.0072779 -0.000106793 0)
(0.00733656 -3.69567e-05 0)
(0.00736648 3.07367e-05 0)
(0.00736847 9.61056e-05 0)
(0.00734344 0.000158989 0)
(0.00729237 0.000219244 0)
(0.00721627 0.000276749 0)
(0.00711624 0.000331399 0)
(0.00699341 0.000383106 0)
(0.00684898 0.000431798 0)
(0.00668415 0.000477415 0)
(0.00650017 0.000519908 0)
(0.00629834 0.000559235 0)
(0.00607995 0.000595357 0)
(0.00584635 0.00062824 0)
(0.00559889 0.000657841 0)
(0.00533896 0.000684112 0)
(0.00506798 0.000706994 0)
(0.0047874 0.000726407 0)
(0.00449871 0.00074225 0)
(0.00420347 0.000754393 0)
(0.00390327 0.000762676 0)
(0.00359978 0.000766896 0)
(0.00329475 0.000766811 0)
(0.00299004 0.000762131 0)
(0.0026876 0.00075252 0)
(0.0023895 0.000737591 0)
(0.00209793 0.000716918 0)
(0.00181524 0.000690038 0)
(0.00154387 0.000656476 0)
(0.00128642 0.000615769 0)
(0.00104555 0.000567524 0)
(0.000823977 0.000511488 0)
(0.000624397 0.00044768 0)
(0.000449372 0.000376572 0)
(0.000301191 0.000299382 0)
(0.00018166 0.000218501 0)
(9.1978e-05 0.000138095 0)
(3.33338e-05 6.50875e-05 0)
(3.35556e-06 1.10139e-05 0)
(2.49927e-06 -2.79427e-05 0)
(1.97847e-05 -7.47901e-05 0)
(4.72789e-05 -0.000111844 0)
(8.27972e-05 -0.000138813 0)
(0.000122839 -0.000156142 0)
(0.000164878 -0.000164697 0)
(0.000206757 -0.000165547 0)
(0.000246594 -0.000159819 0)
(0.000282774 -0.000148612 0)
(0.000313938 -0.000132938 0)
(0.000338958 -0.000113703 0)
(0.000356917 -9.16938e-05 0)
(0.000367082 -6.75833e-05 0)
(0.000368888 -4.19333e-05 0)
(0.000361905 -1.52059e-05 0)
(0.000345823 1.22269e-05 0)
(0.000320425 4.00726e-05 0)
(0.000285571 6.8108e-05 0)
(0.000241177 9.617e-05 0)
(0.000187204 0.000124146 0)
(0.000123642 0.000151967 0)
(5.04968e-05 0.000179599 0)
(-3.22155e-05 0.000207036 0)
(-0.000124479 0.000234298 0)
(-0.000226284 0.000261419 0)
(-0.00033763 0.000288449 0)
(-0.000458533 0.000315446 0)
(-0.000589024 0.000342473 0)
(-0.000729151 0.000369597 0)
(-0.000878982 0.000396882 0)
(-0.0010386 0.000424394 0)
(-0.00120811 0.000452191 0)
(-0.00138763 0.000480328 0)
(-0.00157729 0.000508851 0)
(-0.00177723 0.000537802 0)
(-0.0019876 0.000567212 0)
(-0.00220856 0.000597104 0)
(-0.00244027 0.000627493 0)
(-0.0026829 0.000658384 0)
(-0.00293659 0.000689775 0)
(-0.00320151 0.000721652 0)
(-0.00347779 0.000753996 0)
(-0.00376557 0.000786777 0)
(-0.00406497 0.000819957 0)
(-0.00437609 0.000853492 0)
(-0.00469901 0.000887328 0)
(-0.00503378 0.000921404 0)
(-0.00538046 0.000955653 0)
(-0.00573903 0.00099 0)
(-0.00610948 0.00102436 0)
(-0.00649176 0.00105865 0)