/*--------------------------------*- C++ -*----------------------------------*\
  =========                 |
  \\      /  F ield         | OpenFOAM: The Open Source CFD Toolbox
   \\    /   O peration     | Website:  https://openfoam.org
    \\  /    A nd           | Version:  6
     \\/     M anipulation  |
\*---------------------------------------------------------------------------*/
FoamFile
{
    version     2.0;
    format      ascii;
    class       volVectorField;
    location    "0";
    object      U;
}
// * * * * * * * * * * * * * * * * * * * * * * * * * * * * * * * * * * * * * //

dimensions      [0 1 -1 0 0 0 0];

internalField   nonuniform List<vector> 
13046
(
(0.641062 0.269098 0)
(0.556556 -0.0133758 5.60135e-21)
(0.282128 -0.0516318 1.2669e-20)
(0.62354 0.195468 0)
(0.322044 0.0250525 1.14446e-20)
(0.476388 -0.0409563 0)
(0.668423 0.220608 -1.6474e-21)
(0.486235 -0.0662634 -2.87147e-21)
(0.299793 0.0287034 1.26385e-20)
(1.01585 0.491912 -4.83351e-21)
(0.737579 -0.243654 0)
(0.0391841 -0.0816827 -8.46955e-21)
(0.757431 0.321117 1.03842e-20)
(0.567027 -0.0670849 8.85348e-21)
(0.230743 -0.0475182 -6.99265e-21)
(0.986327 0.551441 -2.46642e-21)
(0.0743791 -0.11771 -1.35439e-20)
(0.777417 -0.17154 -4.49253e-21)
(0.429173 0.122148 0)
(0.395687 -0.0495297 6.13918e-21)
(0.575283 0.109254 -1.72157e-20)
(0.995509 0.543269 2.7119e-21)
(0.0656593 -0.109153 2.71293e-20)
(0.767658 -0.186846 -1.47899e-21)
(0.578803 0.195583 -6.9889e-21)
(0.511858 -0.00124758 1.03386e-20)
(0.324078 -0.0135769 0)
(0.761639 0.348294 -1.79177e-22)
(0.585667 -0.0633486 -2.58782e-21)
(0.220576 -0.0656587 2.4169e-20)
(0.645246 0.288415 0)
(0.579471 -0.000354142 0)
(0.275019 -0.0731899 -1.28945e-20)
(0.538024 0.16359 2.44703e-20)
(0.348009 -0.00349409 -4.26357e-21)
(0.500603 0.0169842 -1.60334e-20)
(0.529559 0.142889 7.07128e-23)
(0.368116 0.0201876 0)
(0.478755 0.0143418 0)
(0.543831 0.274754 -9.07306e-21)
(0.333236 -0.145588 -1.16819e-20)
(0.676667 0.0803935 8.4055e-21)
(0.484718 0.081815 -5.63637e-21)
(0.428668 0.0622094 5.75989e-21)
(0.439358 0.0269293 0)
(0.515409 0.0949881 -3.55525e-21)
(0.417997 0.0760723 0)
(0.423995 0.00268432 1.85802e-21)
(0.662923 0.268599 0)
(0.54209 -0.0343518 4.02917e-22)
(0.267668 -0.0381397 -6.22116e-24)
(0.40511 -0.225771 -1.46013e-20)
(0.465763 0.280091 0)
(0.818315 0.152406 1.01735e-20)
(0.432383 -0.241882 2.07882e-20)
(0.859217 0.176387 1.08577e-20)
(0.424928 0.257178 -1.42723e-20)
(0.760242 -0.0450516 2.00901e-21)
(0.881048 0.557022 0)
(0.191214 -0.184563 -1.1133e-20)
(0.922942 0.343407 4.90465e-21)
(0.571396 -0.181989 -5.27609e-21)
(0.19234 0.0253302 2.94297e-20)
(0.0835994 -0.0751489 -1.54927e-20)
(0.705245 -0.19968 3.3144e-21)
(1.02566 0.484276 7.78992e-21)
(0.845382 0.551578 0)
(0.767234 -0.0171824 -9.36249e-21)
(0.218573 -0.204861 -3.2526e-21)
(0.817089 0.530065 3.89825e-21)
(0.75846 -0.0064913 1.2688e-20)
(0.230327 -0.203561 4.42512e-21)
(0.775659 -0.0534858 2.07928e-23)
(0.903196 0.574367 -1.46825e-22)
(0.178633 -0.188233 1.6333e-24)
(0.448332 0.146213 0)
(0.379688 -0.0675513 -6.6842e-21)
(0.592665 0.0979157 1.22631e-20)
(0.141978 -0.163371 -1.23577e-20)
(0.939771 0.577678 1.15882e-20)
(0.772198 -0.094222 4.42681e-21)
(0.608938 0.210109 -3.65447e-21)
(0.503581 -0.0187319 3.6929e-21)
(0.310101 -0.00278662 0)
(0.0730091 -0.0808057 1.39099e-20)
(0.718821 -0.208054 0)
(1.03248 0.494425 -4.62089e-21)
(1.07025 0.416868 8.05923e-21)
(0.0927389 -0.0165359 0)
(0.65514 -0.256336 2.5799e-21)
(0.118465 0.0457855 0)
(1.12256 0.350692 0)
(0.61438 -0.322477 -3.46025e-22)
(0.914866 0.433454 9.88414e-21)
(0.947385 0.440906 -1.3739e-20)
(0.646445 -0.127942 -1.02141e-20)
(0.653121 -0.150206 4.79442e-21)
(0.153505 -0.0737539 6.37302e-21)
(0.137938 -0.0639659 -1.63294e-20)
(0.106088 0.00113367 7.82164e-22)
(1.07332 0.39913 -7.88591e-21)
(0.639089 -0.26753 0)
(0.54709 0.121912 2.93289e-23)
(0.393501 0.0681728 0)
(0.431455 -0.0157186 0)
(0.368468 0.187586 -2.55701e-20)
(0.809236 0.197329 4.98622e-21)
(0.440965 -0.19236 0)
(0.471697 0.260283 -3.9071e-21)
(0.383829 -0.188165 0)
(0.757288 0.1331 1.91623e-20)
(0.926356 0.463309 0)
(0.0149803 -0.0758821 1.1555e-20)
(0.708793 -0.27373 3.60337e-21)
(0.716224 0.295137 -7.24425e-21)
(0.550773 -0.0542744 -3.75072e-21)
(0.2478 -0.0362078 -1.26431e-20)
(0.939025 0.487532 -5.7442e-21)
(0.911863 0.46081 5.3604e-21)
(0.691609 -0.121983 -2.83101e-21)
(0.138929 -0.10548 -7.30963e-21)
(0.667431 -0.113157 2.76139e-21)
(0.151975 -0.0958759 6.82921e-21)
(0.996916 0.49607 1.2067e-20)
(0.74309 -0.247137 5.09509e-21)
(0.0335564 -0.0847492 3.7935e-21)
(0.844768 0.401699 0)
(0.621365 -0.0956081 6.78854e-21)
(0.183111 -0.0784394 -3.7106e-20)
(0.582986 0.296968 0)
(0.311312 -0.137957 1.17602e-20)
(0.660531 0.0571293 -4.84126e-22)
(0.13969 0.0624495 0)
(1.10958 0.341761 0)
(0.604532 -0.312614 0)
(1.00368 0.442477 0)
(0.661902 -0.192349 1.33061e-20)
(0.116002 -0.0468376 1.65286e-20)
(0.682882 0.312913 0)
(0.593285 -0.0144241 0)
(0.258217 -0.085807 0)
(0.787908 0.25857 0)
(0.496807 -0.137311 0)
(0.275948 0.0629145 0)
(0.448065 0.250604 3.61514e-21)
(0.404495 -0.201258 0)
(0.787695 0.153401 -1.03154e-20)
(0.373654 0.174528 2.47878e-20)
(0.7866 0.192882 1.0771e-20)
(0.438483 -0.177928 -1.26895e-20)
(0.945756 0.362603 -1.14e-20)
(0.591029 -0.186728 0)
(0.171163 0.00450799 -3.82917e-20)
(0.352705 0.118148 0)
(0.717864 0.189592 -2.34718e-20)
(0.438653 -0.125528 -3.26088e-21)
(0.48586 -0.252112 -5.80214e-21)
(0.921677 0.23227 -1.14057e-20)
(0.511933 -0.256517 0)
(0.95314 0.260529 -6.54031e-21)
(0.33336 0.194146 -1.23905e-20)
(0.28927 0.15866 1.18981e-20)
(0.810852 0.235059 -1.48465e-21)
(0.476875 -0.167871 -6.66916e-21)
(0.302078 0.105108 7.23374e-21)
(1.03683 0.478145 4.948e-21)
(0.0392944 -0.0728975 -4.40354e-21)
(0.719833 -0.257647 6.36995e-21)
(0.953811 0.477996 3.4412e-21)
(0.0211469 -0.0807047 1.73533e-21)
(0.729775 -0.262195 0)
(1.00793 0.459402 -1.89063e-22)
(0.676575 -0.190184 0)
(0.10581 -0.0598182 -1.99678e-20)
(0.640392 0.371672 0)
(0.71206 0.053165 -2.6915e-21)
(0.301054 -0.179716 -6.90281e-21)
(0.785096 0.217793 -9.7749e-21)
(0.328347 0.128578 0)
(0.459271 -0.159593 0)
(0.0458487 -0.0522931 0)
(0.692546 -0.27441 0)
(1.06981 0.449575 -4.12152e-21)
(0.606885 0.341669 0)
(0.701272 0.0655039 5.82984e-21)
(0.313765 -0.167935 -1.78576e-21)
(0.350291 0.133026 0)
(0.734384 0.190036 0)
(0.434821 -0.139711 0)
(0.753428 0.236656 -4.86914e-21)
(0.48309 -0.123777 0)
(0.28849 0.0618754 0)
(0.571068 -0.099349 4.4314e-23)
(0.211346 -0.0333226 8.58495e-21)
(0.819535 0.376777 -1.51116e-20)
(0.604155 -0.0873158 0)
(0.196803 -0.0668096 3.83325e-20)
(1.0609 0.455159 9.1735e-21)
(0.0733415 -0.0497784 -1.25962e-20)
(0.689265 -0.241791 1.24854e-20)
(0.134011 0.0423098 -1.15012e-20)
(1.08404 0.362035 -4.93929e-21)
(0.614033 -0.287906 -1.29288e-20)
(1.10647 0.385374 1.3485e-20)
(0.639263 -0.294051 0)
(0.0936789 0.0104506 1.1294e-20)
(0.408519 -0.263827 5.99465e-21)
(0.863112 0.148422 -4.55525e-21)
(0.502123 0.341415 -1.21023e-20)
(0.744946 0.272945 9.5431e-21)
(0.92699 0.587004 -5.97526e-21)
(0.154233 -0.174316 7.60068e-21)
(0.783207 -0.0833009 -2.07662e-23)
(0.650702 -0.29792 0)
(1.10347 0.401427 3.87151e-21)
(0.0754074 -0.00876272 0)
(0.557212 0.146869 1.80109e-20)
(0.365776 0.0419987 0)
(0.45629 -0.0124299 -6.08776e-21)
(0.73873 0.34987 0)
(0.597732 -0.0439181 3.72406e-22)
(0.234767 -0.078727 -7.11905e-21)
(0.144546 0.0591801 -8.80367e-21)
(1.09277 0.349985 0)
(0.604117 -0.300994 1.48921e-20)
(0.779875 0.296319 0)
(0.556199 -0.108191 -1.60469e-20)
(0.220156 -0.0165187 0)
(0.023894 -0.0713665 0)
(0.705966 -0.279585 -5.46347e-21)
(1.01109 0.463516 0)
(0.460785 0.30928 1.30889e-20)
(0.887073 0.164799 0)
(0.427706 -0.271004 0)
(1.09224 0.383609 -1.18298e-20)
(0.632376 -0.283212 0)
(0.106018 0.0139274 3.1659e-23)
(0.880635 0.249339 -1.28234e-20)
(0.492607 -0.212097 -5.06593e-21)
(0.29047 0.131763 1.66251e-20)
(0.839201 0.417847 0)
(0.634045 -0.0834515 -6.33933e-21)
(0.186044 -0.0926539 -3.85309e-21)
(0.562788 -0.314829 1.85828e-20)
(1.07315 0.292885 8.99272e-21)
(0.2228 0.136924 -6.93144e-21)
(0.990154 0.267151 0)
(0.525772 -0.275751 7.32939e-21)
(0.277708 0.159642 2.48996e-22)
(0.0192796 -0.0669262 8.90908e-21)
(0.688099 -0.291586 0)
(1.01202 0.447379 3.80058e-21)
(0.537389 0.311534 -1.69512e-20)
(0.356281 -0.192457 8.58661e-21)
(0.747461 0.104707 8.44138e-22)
(0.856691 0.485064 -3.61842e-21)
(0.0197135 -0.0823127 9.58817e-22)
(0.739991 -0.233641 0)
(0.3954 0.0946877 -3.7678e-21)
(0.586423 0.129094 1.39398e-20)
(0.414497 -0.0486158 -1.83228e-20)
(0.882607 0.28469 -5.12738e-21)
(0.860886 0.255698 -3.66062e-23)
(0.519891 -0.189655 1.23493e-20)
(0.49512 -0.194451 1.21465e-20)
(0.282348 0.112218 -1.31966e-20)
(0.245038 0.0781406 6.82064e-21)
(0.124601 -0.154059 1.61758e-20)
(0.952834 0.577751 -6.16986e-21)
(0.780999 -0.107003 0)
(0.805364 0.407986 0)
(0.637107 -0.0587508 0)
(0.206223 -0.103297 1.53668e-20)
(1.02041 0.289531 2.37081e-21)
(0.546583 -0.285601 0)
(0.243996 0.135249 0)
(0.973749 0.4687 -5.12775e-21)
(0.678706 -0.156028 0)
(0.121526 -0.07901 -7.27253e-21)
(0.472768 0.0911896 -3.82214e-21)
(0.462921 0.0433541 -5.54144e-21)
(0.417948 0.0412844 1.91221e-21)
(0.934903 0.2718 8.34621e-21)
(0.51831 -0.236452 0)
(0.266456 0.128078 1.14866e-20)
(0.807941 0.426619 0)
(0.654942 -0.0522889 -7.90073e-21)
(0.205265 -0.118623 9.90404e-21)
(0.794059 0.321331 -1.54959e-20)
(0.829512 0.342541 1.2471e-20)
(0.544154 0.326732 1.33955e-20)
(0.358638 -0.206259 -2.4929e-20)
(0.765122 0.108711 1.86639e-20)
(0.959509 0.295948 8.54596e-21)
(0.538722 -0.238844 -1.07417e-20)
(0.231948 0.0987049 -1.04788e-20)
(0.994178 0.472442 1.85733e-20)
(0.109522 -0.0730957 2.56426e-20)
(0.68531 -0.172061 6.60873e-21)
(0.476041 0.244498 5.88112e-21)
(0.376103 -0.173816 0)
(0.732844 0.129396 -6.48586e-21)
(0.349527 0.219511 1.34013e-20)
(0.935608 0.224153 6.5918e-21)
(0.482413 -0.269677 0)
(0.888107 0.489625 1.87378e-21)
(0.696368 -0.0787228 6.94036e-21)
(0.168225 -0.131746 -4.53933e-21)
(0.502431 0.310154 -1.10567e-21)
(0.390133 -0.226497 0)
(0.80886 0.139125 -1.40416e-20)
(0.913687 0.508741 0)
(0.934499 0.508879 0)
(0.710881 -0.0907853 4.50267e-21)
(0.156384 -0.132624 1.18146e-20)
(0.709163 -0.110998 -6.36706e-21)
(0.141769 -0.120191 -1.25468e-20)
(0.0536224 -0.0587015 9.77334e-21)
(0.701206 -0.258022 0)
(1.06343 0.46316 5.78917e-21)
(0.880646 0.45108 0)
(0.659572 -0.0959737 3.20104e-21)
(0.167073 -0.102578 -4.01768e-21)
(0.650094 -0.271842 -1.03212e-20)
(0.00657468 -0.0659901 -1.42646e-20)
(0.813367 0.430922 -8.25161e-21)
(0.664365 0.1571 1.89446e-20)
(0.383335 0.123219 0)
(0.416149 -0.100248 6.86996e-21)
(0.882279 0.328218 -1.17456e-20)
(0.556183 -0.161591 0)
(0.205123 0.020244 -2.24754e-20)
(0.0853062 -0.0517627 7.99125e-21)
(1.04719 0.455802 -1.68298e-20)
(0.682473 -0.224947 -9.39623e-21)
(0.440292 -0.255316 7.78676e-21)
(0.880962 0.180895 0)
(0.418705 0.271021 1.61709e-20)
(0.577412 -0.310901 2.26932e-20)
(1.0825 0.313286 5.47471e-21)
(0.190526 0.10572 0)
(0.529427 -0.0917437 8.09239e-21)
(0.247157 9.6756e-05 0)
(0.895625 0.373725 -1.28108e-20)
(0.592507 -0.143255 -5.81924e-21)
(0.176568 -0.0288149 -6.87239e-21)
(0.51579 -0.105933 -2.87797e-22)
(0.253928 0.0177769 -6.58164e-23)
(0.988174 0.54982 1.30255e-20)
(0.085543 -0.12116 -1.9045e-20)
(0.768623 -0.159088 6.60025e-21)
(0.398218 -0.277805 -7.80564e-21)
(0.869097 0.137358 -1.45455e-21)
(0.535374 0.373951 0)
(0.924245 0.390829 1.30574e-20)
(0.610484 -0.155606 7.10423e-21)
(0.16219 -0.0288418 1.67999e-20)
(0.805526 0.256294 0)
(0.490756 -0.155151 4.88145e-21)
(0.279232 0.0793507 0)
(0.809812 0.180043 6.42052e-21)
(0.42605 -0.205534 0)
(0.404604 0.215702 0)
(0.647716 0.243093 5.07088e-21)
(0.521647 -0.0327006 8.89812e-21)
(0.285383 -0.0185839 -2.03823e-23)
(0.384091 0.248106 -1.6638e-20)
(0.917744 0.20531 -1.60196e-20)
(0.466132 -0.267901 -2.10839e-20)
(1.07913 0.431286 7.11942e-21)
(0.670953 -0.261162 -1.06263e-20)
(0.0758137 -0.0324254 -1.89146e-22)
(0.585062 -0.297276 -1.53463e-20)
(1.07339 0.326322 -5.55059e-21)
(0.176836 0.0873726 -8.77912e-21)
(0.750882 0.492935 1.21085e-20)
(0.270615 -0.2164 -6.59427e-21)
(0.764461 0.0273499 0)
(0.935502 0.549263 -3.3549e-21)
(0.917433 0.536272 3.07729e-21)
(0.734719 -0.0825113 1.43281e-21)
(0.74784 -0.0919787 -6.2331e-21)
(0.146209 -0.150281 4.34365e-21)
(0.158296 -0.15161 3.82195e-21)
(0.0103069 -0.0708656 1.44879e-20)
(0.680553 -0.260406 1.13645e-20)
(0.831692 0.442533 -2.31821e-21)
(0.877365 0.4977 2.37961e-22)
(0.0250268 -0.0883125 0)
(0.75754 -0.227103 0)
(0.918043 0.302591 1.89491e-20)
(0.540892 -0.201697 2.77246e-21)
(0.229922 0.0715336 0)
(0.0642352 -0.059753 2.42525e-20)
(1.05868 0.465231 -7.25431e-21)
(0.701336 -0.241993 0)
(0.83042 0.503599 -1.69426e-20)
(0.860469 0.513041 1.26924e-20)
(0.724885 -0.0317818 -7.42006e-21)
(0.722949 -0.0486684 -2.84332e-21)
(0.21305 -0.173471 7.52306e-21)
(0.193509 -0.162543 3.7803e-21)
(0.0547422 -0.0167327 0)
(0.641132 -0.316418 0)
(1.10961 0.386023 -2.07815e-21)
(0.798815 0.474913 4.24851e-21)
(0.0174994 -0.0782985 -9.01796e-21)
(0.728939 -0.224669 0)
(0.531053 0.0725689 4.34772e-23)
(0.461693 0.126367 -8.19738e-21)
(0.382525 -0.022647 -4.09093e-21)
(0.875162 0.463954 7.22569e-21)
(0.712459 -0.260828 -5.27214e-21)
(0.014123 -0.0764231 -1.79619e-20)
(0.69239 0.392464 -1.45148e-20)
(0.690225 0.0233639 1.24477e-20)
(0.271506 -0.163505 1.17217e-23)
(1.07802 0.439622 -1.07492e-22)
(0.683315 -0.280257 -1.52374e-20)
(0.0530731 -0.0436011 4.97819e-21)
(0.57014 -0.290726 -3.13848e-22)
(-0.000291963 -0.056449 1.64016e-20)
(0.782903 0.358079 3.04058e-21)
(0.508884 0.240824 7.83086e-21)
(0.347657 -0.130408 4.98522e-22)
(0.664141 0.0936077 -2.05831e-20)
(0.622377 0.156728 0)
(0.431198 -0.0637229 2.02907e-20)
(0.367234 0.0844432 -1.05588e-20)
(0.982338 0.510597 -1.21835e-20)
(0.0363775 -0.0903976 -1.13114e-20)
(0.755359 -0.234607 3.0295e-25)
(0.649824 0.169633 0)
(0.431102 -0.0801882 7.1284e-21)
(0.357508 0.0958181 1.49127e-20)
(0.511723 0.0714771 -8.32487e-21)
(0.454691 0.108152 8.65497e-21)
(0.396805 -0.00350968 -2.15548e-21)
(0.439772 0.306785 8.02161e-21)
(0.925712 0.181457 5.68217e-21)
(0.449499 -0.291719 -1.16267e-20)
(0.615865 0.113567 0)
(0.383665 -0.0816328 0)
(0.432366 0.157452 -1.23041e-21)
(0.653254 0.144227 -1.01393e-20)
(0.402493 -0.0963102 -5.51687e-21)
(0.410771 0.147204 -1.74884e-22)
(0.715535 0.471871 -1.84131e-20)
(0.773145 0.0428569 9.56064e-21)
(0.291558 -0.227465 1.31069e-20)
(0.0553228 -0.0916583 -1.70753e-20)
(0.0506247 -0.0855069 1.73459e-20)
(0.75058 -0.21544 -4.47082e-21)
(0.739416 -0.228935 -3.11493e-21)
(1.01535 0.517593 -1.0133e-20)
(1.02493 0.507606 1.52554e-20)
(1.08828 0.427736 -8.80381e-21)
(0.671877 -0.271866 9.49766e-21)
(0.0675954 -0.0293438 0)
(0.260557 -0.225788 -8.49247e-21)
(0.777745 0.524486 -3.75593e-21)
(0.777505 0.0199041 0)
(0.562951 0.313969 0)
(0.335791 -0.175572 7.83199e-21)
(0.717831 0.0854638 -6.42451e-21)
(1.00273 0.24856 0)
(0.516111 -0.295681 -7.5825e-21)
(0.306913 0.195101 -2.57642e-22)
(0.603766 -0.315529 -5.27983e-21)
(0.00351802 -0.0586256 0)
(0.92878 0.374411 8.2021e-21)
(0.0995412 0.0263356 0)
(1.12006 0.366542 0)
(0.624805 -0.31694 -6.43467e-21)
(0.984125 0.476635 -4.05152e-21)
(0.0242567 -0.0783085 0)
(0.726211 -0.26593 5.36153e-21)
(-0.000417965 -0.0519603 6.07991e-32)
(0.542321 -0.276623 4.79352e-21)
(0.72021 0.342591 -3.03351e-21)
(0.579474 -0.237377 -5.36267e-21)
(0.0041356 -0.0539635 -6.06538e-32)
(0.689552 0.389854 2.70758e-21)
(0.583636 -0.228338 1.46956e-20)
(0.991527 0.346185 0)
(0.18098 0.0439563 2.24736e-20)
(0.634181 -0.321338 2.87193e-21)
(0.0262779 -0.0410606 0)
(1.07042 0.386491 0)
(1.02218 0.435098 8.21664e-21)
(0.657278 -0.210218 -8.25546e-21)
(0.111806 -0.0361464 -1.17015e-20)
(0.948942 0.560028 -1.3058e-20)
(0.0636201 -0.121854 -6.8915e-21)
(0.80533 -0.169188 0)
(0.717566 0.275202 -3.87713e-21)
(0.257859 -0.0085655 4.28449e-21)
(0.528833 -0.0729829 -3.90004e-21)
(0.637601 -0.317332 0)
(0.0676218 -0.00358093 -8.29231e-21)
(1.11533 0.380574 -2.38629e-21)
(0.980065 0.234292 6.47421e-21)
(0.335128 0.219286 4.57839e-21)
(0.500839 -0.290724 0)
(0.557675 -0.276701 0)
(1.02083 0.305093 0)
(0.217985 0.111361 -8.19125e-21)
(0.000163258 -0.0263044 0)
(0.343572 -0.157404 3.95818e-21)
(0.415456 0.207749 -1.86823e-21)
(0.636097 -0.28937 -5.19526e-21)
(0.00438548 -0.0647007 9.92318e-21)
(0.838594 0.416129 3.60419e-21)
(0.680983 0.248259 1.00396e-20)
(0.277608 -0.000951971 -1.0096e-20)
(0.512942 -0.0595734 -4.52e-21)
(0.661641 -0.300176 -1.34712e-20)
(1.09386 0.414737 4.44609e-21)
(0.0460464 -0.0337552 0)
(0.0473838 -0.018605 8.68825e-21)
(1.10912 0.379945 0)
(0.631766 -0.325026 1.00905e-20)
(1.04466 0.486913 5.30178e-21)
(0.0644776 -0.0727269 -2.59791e-20)
(0.715432 -0.22464 -1.27767e-20)
(0.108268 -0.13212 1.95547e-20)
(0.76236 -0.132214 -7.00025e-21)
(0.973147 0.556264 0)
(0.692236 0.477338 2.32708e-20)
(0.800038 0.0596354 -1.21807e-20)
(0.314565 -0.247655 1.24682e-20)
(0.740727 -0.0620394 -2.13983e-21)
(0.889524 0.541532 -7.31167e-21)
(0.180062 -0.168382 1.18903e-20)
(0.0983643 -0.141843 1.75719e-20)
(0.963736 0.577031 0)
(0.79338 -0.133509 5.10864e-21)
(0.729983 0.386744 3.64841e-21)
(0.769105 0.415199 0)
(0.65028 -0.0102729 1.29587e-20)
(0.662314 -0.0252105 -1.38537e-20)
(0.244059 -0.127559 -8.04019e-21)
(0.22681 -0.132475 0)
(0.694111 0.376434 3.58883e-21)
(0.664264 0.0120339 0)
(0.264706 -0.142198 -3.84952e-21)
(0.815437 0.514865 0)
(0.740962 -0.0175082 1.19892e-20)
(0.226097 -0.189284 -2.71357e-21)
(0.577513 -0.285207 7.61796e-21)
(1.05353 0.322039 -5.80328e-21)
(0.186892 0.0867822 1.80465e-20)
(0.65983 -0.290002 0)
(1.09442 0.415996 -1.41491e-21)
(0.0661788 -0.0204907 0)
(0.149947 0.0458551 5.81772e-21)
(1.06118 0.355723 3.62906e-21)
(0.604524 -0.273662 4.97322e-21)
(0.619185 -0.238392 7.33114e-22)
(0.00657911 -0.0596837 -8.04685e-24)
(0.724766 0.414236 0)
(0.576792 0.268812 -7.05903e-21)
(0.588876 0.261914 0)
(0.309223 -0.104034 1.8337e-21)
(0.618066 0.0474524 -2.51391e-20)
(0.302446 -0.0859957 -2.32053e-21)
(0.59436 0.0296711 1.59839e-20)
(0.761053 0.471337 0)
(0.71779 0.439829 2.36328e-21)
(0.270713 -0.187832 -6.94146e-24)
(0.729039 0.00691084 -7.50468e-21)
(0.25281 -0.186017 -1.98004e-20)
(0.724625 0.0224221 1.58628e-20)
(0.551246 -0.302599 0)
(-0.00149689 -0.0555758 -1.78978e-20)
(0.818001 0.347012 0)
(0.666581 -0.293607 7.97845e-21)
(1.09349 0.421317 -1.40675e-21)
(0.0509599 -0.0358604 -5.22529e-21)
(0.581582 0.354934 4.41913e-21)
(0.346704 -0.214698 8.98582e-21)
(0.768288 0.0949687 -2.10642e-20)
(0.548595 -0.304495 -1.65412e-20)
(1.04699 0.281405 -1.50967e-20)
(0.245981 0.151889 0)
(0.119464 -0.139957 -2.09134e-20)
(0.760691 -0.120436 7.44812e-21)
(0.96315 0.558101 0)
(0.676126 -0.293094 0)
(0.941415 0.437793 0)
(0.0101058 -0.0696385 0)
(0.674395 -0.297388 0)
(0.975635 0.432428 -6.74489e-21)
(0.012909 -0.0661192 0)
(0.863265 0.49571 7.02683e-21)
(0.703821 -0.0612083 -4.31203e-21)
(0.185441 -0.146031 -5.59538e-21)
(0.452749 0.221182 2.07009e-21)
(0.386611 -0.161004 0)
(0.723587 0.141335 -6.88377e-21)
(1.03928 0.491682 -6.17743e-21)
(0.0560815 -0.077045 -1.51526e-20)
(0.727039 -0.230485 1.85123e-20)
(0.587239 -0.246067 0)
(1.01414 0.347319 0)
(0.174296 0.0544094 -1.9385e-20)
(0.0968235 -0.0839597 -4.89822e-21)
(0.706018 -0.178151 -1.13082e-20)
(1.00565 0.494723 -1.71376e-20)
(0.690261 0.428669 -2.40741e-21)
(0.288788 -0.198864 1.31726e-20)
(0.736804 0.038517 -8.1042e-21)
(0.859251 0.228725 1.24369e-20)
(0.47157 -0.209711 -7.5389e-21)
(0.329868 0.161451 -1.62315e-20)
(0.531459 0.278512 -1.47865e-22)
(0.345102 -0.162536 2.56441e-21)
(0.704493 0.0941814 8.41847e-21)
(0.0492776 -0.0687774 5.91615e-21)
(0.716822 -0.250417 -8.57151e-21)
(1.04772 0.476134 -6.65483e-21)
(0.964999 0.490769 3.20531e-21)
(0.69695 -0.14222 3.35133e-21)
(0.123605 -0.0965391 0)
(0.521144 0.236152 7.6547e-21)
(0.338152 -0.111268 -1.61574e-20)
(0.635217 0.0781282 1.35789e-20)
(0.957412 0.577783 -5.22216e-21)
(0.086647 -0.138536 -7.82007e-21)
(0.804154 -0.143827 -4.4766e-23)
(0.675074 0.330531 4.41647e-21)
(0.615319 -0.00334493 0)
(0.261479 -0.104693 0)
(0.725478 0.214245 1.80908e-20)
(0.460038 -0.116879 -4.41837e-21)
(0.318138 0.087036 0)
(0.557363 -0.255474 0)
(0.997246 0.307823 -1.22216e-20)
(0.214614 0.0971708 8.57576e-21)
(0.912252 0.524227 0)
(0.0369892 -0.100638 2.41981e-21)
(0.786917 -0.207678 -5.80681e-21)
(0.914406 0.538427 -5.05216e-21)
(0.0442985 -0.10784 -7.72927e-21)
(0.798523 -0.191492 5.60101e-21)
(0.0974966 -0.0964213 -4.4749e-21)
(0.719667 -0.167337 6.69631e-21)
(0.998667 0.508908 1.57735e-20)
(0.881147 0.217703 5.74877e-21)
(0.469578 -0.233275 1.50911e-20)
(0.351004 0.189783 0)
(0.0297126 -0.0941843 -2.21607e-21)
(0.77751 -0.213225 5.42965e-21)
(0.864451 0.508526 0)
(0.0982855 -0.037668 0)
(0.666228 -0.224682 6.89029e-21)
(1.04233 0.438912 1.94607e-21)
(-0.00225863 -0.0437041 -8.93689e-21)
(0.464856 -0.263555 -5.41043e-21)
(0.641772 0.282799 0)
(0.584959 0.360408 3.1974e-21)
(0.526949 -0.199587 0)
(0.00424849 -0.0453759 -8.94652e-21)
(0.097243 -0.133239 -4.93045e-24)
(0.778822 -0.141399 8.72775e-22)
(0.972902 0.566028 0)
(0.032081 -0.0676888 0)
(0.7075 -0.273348 0)
(1.03836 0.464649 -8.57603e-21)
(1.01375 0.522106 5.52592e-21)
(1.01645 0.516662 -4.4703e-21)
(0.0665007 -0.0989981 8.56549e-21)
(0.751652 -0.195172 1.47095e-21)
(0.0740036 -0.095644 0)
(0.737799 -0.190968 0)
(1.05107 0.422343 -3.783e-21)
(0.653798 -0.237668 -4.56053e-21)
(0.103241 -0.0225346 0)
(0.287574 0.192756 0)
(0.528591 -0.311929 0)
(1.03454 0.258845 0)
(0.58229 0.229235 -9.41912e-21)
(0.309361 -0.0521763 2.21803e-20)
(0.55371 0.0158639 -8.81937e-21)
(1.04778 0.38246 -1.08651e-20)
(0.621559 -0.252595 -1.69082e-21)
(0.130818 0.0159788 -1.71551e-20)
(0.148763 0.0352028 -1.11689e-20)
(1.04371 0.366495 1.51148e-20)
(0.607201 -0.257796 2.346e-21)
(0.952513 0.589621 -6.11459e-21)
(0.114797 -0.15549 -8.40781e-21)
(0.797 -0.113034 0)
(0.772333 0.489253 0)
(0.742295 0.00619497 -3.56327e-21)
(0.250125 -0.195871 1.94088e-20)
(0.723114 0.418712 0)
(0.70008 0.0135456 -1.63481e-20)
(0.260796 -0.170138 -5.39193e-24)
(0.980185 0.37527 1.44845e-20)
(0.604697 -0.207554 -2.05276e-21)
(0.15677 0.0062532 9.74037e-21)
(0.998251 0.370785 0)
(0.602821 -0.222325 -1.92998e-21)
(0.157136 0.0173453 -8.96137e-21)
(0.497162 0.208044 0)
(0.350076 -0.0951832 2.5502e-20)
(0.618661 0.0835486 0)
(0.776926 0.433429 0)
(0.676699 -0.0248612 9.15616e-21)
(0.224491 -0.145806 -2.91338e-21)
(0.0793804 0.0132437 1.79585e-20)
(0.623846 -0.325951 1.45168e-20)
(1.12665 0.367421 0)
(0.992794 0.413113 1.45905e-22)
(0.0113287 -0.0609066 -5.50035e-21)
(0.647098 -0.310515 -3.81385e-21)
(0.97613 0.386904 2.00424e-22)
(0.00783883 -0.0581237 0)
(0.62359 -0.315624 1.09347e-20)
(0.617379 0.330939 -5.28209e-21)
(0.300457 -0.146871 2.80046e-21)
(0.6709 0.0474102 1.39739e-22)
(0.645801 -0.296134 -1.74203e-22)
(0.00560507 -0.0657982 -2.27522e-20)
(0.903983 0.415173 0)
(0.980588 0.51101 -1.37096e-20)
(0.111587 -0.103716 0)
(0.716741 -0.148326 0)
(0.00211968 -0.0606695 9.01973e-21)
(0.607109 -0.309654 5.87013e-21)
(0.893405 0.380977 -6.30433e-21)
(0.606668 0.174915 -1.25166e-20)
(0.346319 0.0474632 -1.34046e-20)
(0.457955 -0.0383697 -5.34825e-23)
(0.844527 0.369078 2.19869e-21)
(0.592804 -0.109976 2.12492e-21)
(0.193764 -0.0451639 8.79416e-21)
(0.44672 -0.229883 -1.72458e-20)
(0.856409 0.196512 -2.06263e-20)
(0.388799 0.218069 0)
(0.0341303 -0.0365711 0)
(0.642938 -0.316899 3.60325e-21)
(1.08517 0.3956 0)
(0.576035 -0.2572 0)
(1.01747 0.332987 0)
(0.187549 0.0718807 0)
(0.0734911 -0.126088 0)
(0.965316 0.563802 4.74853e-21)
(0.798397 -0.16132 -5.0885e-21)
(0.881787 0.388308 0)
(0.604602 -0.128524 -1.05806e-21)
(0.177733 -0.0439656 1.84103e-23)
(0.565366 0.209716 9.09759e-21)
(0.322107 -0.0381441 -1.90373e-20)
(0.539146 0.0176508 0)
(0.664521 -0.304085 1.27452e-20)
(1.07436 0.419694 -4.22575e-21)
(0.0350087 -0.0441157 0)
(0.0888641 -0.0626536 1.02821e-20)
(0.689602 -0.209336 -4.38183e-22)
(1.0304 0.469926 -2.58383e-22)
(0.947605 0.506893 0)
(0.928621 0.499525 -4.81564e-21)
(0.0319138 -0.091656 -5.54636e-21)
(0.0263833 -0.0877504 6.85457e-21)
(0.761742 -0.230674 3.58119e-21)
(0.753275 -0.23958 -2.94458e-21)
(0.854233 0.289155 0)
(0.518718 -0.170911 -1.44341e-20)
(0.246007 0.0621277 -1.06718e-20)
(0.564666 -0.216672 -2.06315e-20)
(0.963318 0.327887 0)
(0.197169 0.0554372 1.18079e-20)
(0.691257 0.220871 1.02465e-20)
(0.476855 -0.0854417 -7.52481e-21)
(0.297196 0.0460704 -1.64794e-20)
(0.65325 -0.312859 -8.37815e-21)
(1.03335 0.41256 -5.20378e-21)
(0.63772 -0.320225 3.98794e-21)
(0.0174302 -0.0560544 5.82535e-21)
(1.04209 0.394891 4.87346e-21)
(0.0184715 -0.0507691 0)
(0.951976 0.425796 0)
(0.637917 -0.162854 0)
(0.142425 -0.0480963 -1.09933e-20)
(1.05992 0.431066 -5.33847e-21)
(1.04099 0.426696 1.35033e-20)
(0.676806 -0.297604 -5.49165e-21)
(0.672631 -0.30207 1.38269e-20)
(0.0287432 -0.0542201 -1.53367e-20)
(0.0216984 -0.0586455 7.20934e-24)
(0.943821 0.312672 0)
(0.546506 -0.221323 1.91442e-20)
(0.223842 0.082389 -1.52996e-20)
(0.809354 0.306148 -9.55416e-21)
(0.553157 -0.127754 1.28349e-20)
(0.213077 -0.00268456 0)
(0.949217 0.548236 0)
(0.0532005 -0.112623 -1.06581e-21)
(0.796367 -0.187027 -5.38033e-21)
(0.85716 0.307239 -7.02104e-21)
(0.534323 -0.159017 0)
(0.228386 0.0392591 1.77142e-20)
(0.733897 0.249755 -4.13392e-21)
(0.496564 -0.102747 8.82524e-21)
(0.273775 0.034303 -9.65386e-21)
(0.935966 0.518876 0)
(0.0374712 -0.0981956 0)
(0.778622 -0.217133 7.42142e-21)
(0.886143 0.408959 0)
(0.626697 -0.118487 -2.25154e-21)
(0.166758 -0.0651272 1.09178e-20)
(0.489359 -0.301511 0)
(0.977877 0.221344 0)
(0.365844 0.252686 5.899e-22)
(0.686653 0.441086 5.93319e-22)
(0.757887 0.0490891 0)
(0.297889 -0.214958 -1.02294e-20)
(0.587619 -0.321587 -8.87417e-21)
(0.166571 0.0925752 0)
(1.10666 0.32266 0)
(0.000602744 -0.0378065 2.14981e-20)
(0.445528 -0.203867 -5.54327e-21)
(0.54712 0.278276 2.61671e-21)
(0.871579 0.344162 0)
(0.566304 -0.142175 -7.88113e-21)
(0.198001 -0.00440655 0)
(0.986267 0.537978 -8.95568e-21)
(0.0563198 -0.105735 -2.89681e-20)
(0.775413 -0.193737 1.09838e-20)
(0.356588 -0.263442 0)
(0.83322 0.0994333 7.95831e-21)
(0.613476 0.427087 0)
(0.704588 0.430449 0)
(0.00987612 -0.0631096 5.35628e-21)
(0.656476 -0.223711 0)
(0.394116 0.164131 -1.02629e-20)
(0.405723 0.186601 1.05063e-20)
(0.410035 -0.141439 0)
(0.717786 0.163659 -8.69198e-21)
(0.411084 -0.163068 1.63206e-20)
(0.745529 0.162806 6.97741e-21)
(0.684356 0.201764 -9.63557e-21)
(0.455596 -0.0901448 -1.00054e-20)
(0.324238 0.0740707 0)
(0.469977 0.216962 -9.02574e-21)
(0.43204 0.187225 0)
(0.369319 -0.136402 0)
(0.682 0.117131 0)
(0.385089 -0.127182 9.1897e-21)
(0.681733 0.133277 -4.68619e-23)
(0.841893 0.330737 -6.05907e-22)
(0.530909 -0.127006 5.5971e-21)
(0.235349 0.018747 1.19199e-20)
(0.815235 0.295014 1.6413e-20)
(0.524258 -0.138371 0)
(0.243206 0.0351889 0)
(0.0112507 -0.0527848 0)
(0.615086 -0.324936 0)
(1.01206 0.378705 -4.94255e-21)
(0.656857 0.346331 1.45053e-20)
(0.655278 0.0262076 0)
(0.279561 -0.135742 -5.19962e-21)
(1.05733 0.448877 1.15081e-20)
(0.692578 -0.283605 -6.37889e-21)
(0.034068 -0.0584291 8.75183e-21)
(0.989773 0.400552 0)
(1.013 0.41312 -7.90453e-21)
(0.625117 -0.200837 2.55805e-21)
(0.639235 -0.211118 -8.13086e-21)
(0.138021 -0.014625 1.21377e-20)
(0.124408 -0.0202688 1.12946e-20)
(0.648049 0.32291 0)
(0.629953 0.0166888 0)
(0.278091 -0.116287 -2.44646e-21)
(0.810382 0.477611 -5.70072e-21)
(0.707693 -0.0268064 0)
(0.219551 -0.163756 -6.47643e-21)
(0.938016 0.385374 4.1482e-21)
(0.604481 -0.174115 0)
(0.159644 -0.0144775 -1.10867e-20)
(0.501063 0.152227 -9.89714e-21)
(0.524791 0.0468956 -4.78652e-21)
(0.35932 -0.0221638 -5.10166e-21)
(1.02751 0.389918 0)
(0.622442 -0.234415 0)
(0.134458 0.00637075 1.82325e-20)
(0.556563 0.22765 0)
(0.31871 -0.0714019 -2.80948e-21)
(0.578077 0.0398357 0)
(0.937428 0.329569 9.34269e-21)
(0.55964 -0.20323 1.06489e-20)
(0.203644 0.0465647 1.52939e-21)
(0.812175 0.458228 -5.74105e-21)
(0.68767 -0.0390137 -1.04369e-20)
(0.210302 -0.147405 0)
(0.515199 0.176982 9.81168e-21)
(0.496338 0.175176 4.4028e-21)
(0.544455 0.0441177 -4.67299e-21)
(0.344831 -0.0402212 1.00964e-20)
(0.569297 0.0624263 0)
(0.350726 -0.0570596 1.79832e-20)
(0.46092 0.182236 4.47777e-21)
(0.367117 -0.0982036 -1.18996e-20)
(0.43605 0.175838 -2.88425e-21)
(0.628598 0.102978 0)
(0.386316 -0.114809 -5.83043e-21)
(0.663588 0.128239 9.93376e-21)
(0.721489 0.366453 -5.23659e-21)
(0.760609 0.378053 0)
(0.627897 -0.0192853 -9.633e-21)
(0.621459 -0.040808 7.51849e-21)
(0.242026 -0.109572 2.32527e-20)
(0.225221 -0.0973369 -1.93466e-20)
(0.104128 -0.119939 0)
(0.745882 -0.143045 4.10768e-21)
(0.981655 0.538413 8.10177e-21)
(0.396529 0.268632 -1.98665e-20)
(0.941535 0.203365 -8.96523e-21)
(0.469985 -0.288027 1.82585e-20)
(0.0905193 -0.114038 9.75757e-21)
(0.0861099 -0.103391 0)
(0.750439 -0.16077 -3.55105e-21)
(0.737035 -0.173714 -6.11847e-21)
(0.992699 0.539013 -2.06012e-20)
(1.00459 0.52404 1.06969e-20)
(0.518312 0.335931 0)
(0.390386 -0.242458 9.8073e-21)
(0.825806 0.134258 -2.04131e-21)
(0.488233 0.113819 -2.07954e-20)
(0.39237 0.0211286 0)
(0.479471 0.0402299 1.64079e-20)
(1.0321 0.40824 3.75326e-21)
(0.638399 -0.22918 9.17968e-21)
(0.120552 -0.0109495 0)
(0.602977 0.292639 0)
(0.297281 -0.118928 2.33136e-21)
(0.631987 0.039442 8.16368e-21)
(0.835203 0.466447 0)
(0.686425 -0.0518476 0)
(0.197228 -0.139674 1.55296e-21)
(0.952475 0.543072 0)
(0.955524 0.527043 0)
(0.742904 -0.11324 -2.18131e-21)
(0.130638 -0.136073 1.19076e-20)
(0.728214 -0.119656 5.95016e-21)
(0.128591 -0.12457 -1.61035e-20)
(0.977554 0.425919 -7.82902e-21)
(0.643743 -0.178465 -8.53829e-21)
(0.130805 -0.041753 -5.28548e-21)
(0.774469 0.447494 -5.46384e-21)
(0.690316 -0.236002 0)
(0.012306 -0.0705684 6.56758e-21)
(0.371984 -0.260976 0)
(0.837492 0.113511 -6.49919e-21)
(0.576785 0.393881 0)
(0.647156 0.44194 -6.02416e-21)
(0.629814 0.418041 6.47916e-21)
(0.334459 -0.247624 6.38611e-21)
(0.80591 0.0799202 0)
(0.336826 -0.235994 0)
(0.792615 0.0817352 0)
(1.04788 0.339498 1.32265e-20)
(0.587981 -0.274474 -1.73046e-20)
(0.172005 0.0658974 -8.32671e-22)
(0.781734 0.466018 1.16983e-20)
(0.710106 -0.0115097 0)