/*--------------------------------*- C++ -*----------------------------------*\
  =========                 |
  \\      /  F ield         | OpenFOAM: The Open Source CFD Toolbox
   \\    /   O peration     | Website:  https://openfoam.org
    \\  /    A nd           | Version:  6
     \\/     M anipulation  |
\*---------------------------------------------------------------------------*/
FoamFile
{
    version     2.0;
    format      ascii;
    class       volVectorField;
    location    "0";
    object      U_rec;
}
// * * * * * * * * * * * * * * * * * * * * * * * * * * * * * * * * * * * * * //

dimensions      [0 1 -1 0 0 0 0];

internalField   nonuniform List<vector> 
918
(
(0.994768 -0.00878482 0)
(-0.00731737 2.97778 0)
(-0.0448034 1.73975 0)
(0.970178 0.0292769 0)
(-0.0378452 1.69562 4.83751e-17)
(0.0106261 2.97412 -4.76061e-17)
(1.15993 1.62178 -1.76235e-18)
(0.526323 0.291355 6.31283e-20)
(1.00459 -0.00772403 0)
(0.00259953 1.77859 0)
(0.014432 1.71943 0)
(0.931192 0.0221121 0)
(0.00347796 2.95308 0)
(-0.00869443 2.90659 0)
(-0.0200465 2.88544 7.96815e-18)
(0.00396498 1.6997 2.83768e-17)
(0.71279 0.157894 1.08089e-17)
(0.219949 2.03643 -3.56022e-17)
(0.996092 0.0503864 0)
(0.0169166 1.72225 0)
(0.191758 0.151293 -1.87461e-18)
(0.971392 0.0158427 0)
(0.973369 0.00790647 0)
(1.0002 0.0308468 0)
(0.853324 0.0332447 0)
(0.0279003 2.88266 0)
(-0.025428 2.9394 -7.01938e-17)
(0.0171791 1.74612 0)
(0.000541806 1.7567 0)
(0.0112327 1.75981 0)
(-0.00969409 1.78831 0)
(-0.0154344 1.72049 4.85116e-17)
(-0.0090525 1.69463 0)
(-0.00388409 2.98908 -4.01135e-22)
(-0.00382942 3.01135 -2.86592e-17)
(0.0107299 2.99262 0)
(0.980363 0.00548565 0)
(0.611458 0.824279 -5.9232e-18)
(1.09662 1.67582 6.79435e-19)
(1.23701 1.38428 1.33762e-17)
(0.946306 1.87174 9.28703e-18)
(0.997126 1.83875 6.86526e-18)
(0.551901 0.325466 1.92111e-19)
(0.555443 0.286483 0)
(1.32485 0.730458 0)
(0.512404 0.33785 6.87034e-19)
(0.469754 0.299304 1.09012e-19)
(0.969825 0.00616021 0)
(0.990624 0.000887398 0)
(1.00695 0.00706427 0)
(0.951073 -0.0135853 0)
(0.97795 0.00895782 0)
(1.01079 0.0148655 0)
(-0.0111633 1.62211 -2.93879e-18)
(0.00371967 1.82104 0)
(0.0221909 1.82489 0)
(0.00905871 1.79125 0)
(0.00766692 1.74465 0)
(-0.00818216 1.698 0)
(0.00399795 1.7476 0)
(0.00516356 1.72128 0)
(0.00560938 1.74678 0)
(0.0137772 1.72404 0)
(0.987966 -0.0168355 0)
(0.961265 0.0169553 0)
(0.942462 0.00204255 0)
(0.939305 0.0167209 0)
(0.928997 0.00117727 0)
(-0.00874623 3.03533 2.9643e-17)
(-0.00949115 2.98154 0)
(-0.0118558 3.00516 0)
(0.0346624 3.00334 5.02148e-23)
(0.0222639 3.00986 1.99387e-17)
(0.00645365 2.98594 0)
(-0.00831201 2.94563 0)
(-0.00864751 2.98091 9.00986e-24)
(-0.00971384 2.91901 0)
(-0.0087479 2.9849 0)
(-0.00052738 2.89778 0)
(0.180615 3.07442 0)
(-0.0676122 3.15331 0)
(0.0588337 2.93627 1.2598e-17)
(-0.012955 2.8134 0)
(-0.00521595 1.74666 0)
(0.00755196 1.73067 2.90433e-17)
(0.0156213 1.69822 2.82541e-17)
(0.728642 0.184011 -7.65071e-18)
(0.726559 0.139156 -1.66679e-18)
(0.711695 0.22233 6.6033e-18)
(0.669507 0.204687 -1.46565e-17)
(0.167376 1.38445 0)
(0.341505 2.12232 -3.43856e-17)
(0.457917 2.09891 -3.76064e-17)
(0.979412 0.0348751 0)
(0.959462 0.0148052 0)
(1.00754 -0.0133234 0)
(0.980365 -0.00190417 0)
(1.02987 0.0491462 7.40104e-17)
(1.00797 0.018698 1.385e-16)
(0.000465855 1.75068 0)
(-0.00296347 1.72315 0)
(-0.00119871 1.75891 0)
(0.0166288 1.74252 0)
(0.0162062 1.72282 0)
(0.110121 0.357793 -2.09585e-19)
(0.343131 0.255077 0)
(1.03245 -0.000944655 0)
(1.00312 0.00487515 0)
(0.933006 0.0062788 0)
(0.904964 0.0276502 0)
(0.917403 0.00473797 0)
(1.12852 -0.0102939 0)
(0.84488 0.0689183 0)
(0.801476 0.0453544 3.52523e-17)
(0.00155093 2.8413 2.75745e-17)
(0.0162999 2.99078 0)
(-0.0200179 3.00117 0)
(0.00618354 2.87133 0)
(-0.0318275 2.98395 -2.09695e-17)
(-0.0294345 2.9153 0)
(-0.0302525 2.99284 -3.59417e-17)
(-0.017612 2.95298 2.86013e-17)
(0.0131239 1.75324 0)
(0.00801031 1.75057 0)
(-0.010409 1.72992 -2.11354e-20)
(-0.00589708 1.72792 0)
(-0.00466796 1.6973 0)
(0.999806 0.00944404 0)
(0.987256 -0.000226909 0)
(0.959425 -0.0128575 0)
(0.994086 0.0127165 0)
(0.976588 0.00731125 0)
(0.678024 1.02295 -8.62992e-18)
(0.565536 0.950007 0)
(0.734784 1.04931 -6.11025e-19)
(0.65152 0.882678 0)
(1.16758 1.44302 1.71963e-17)
(1.2972 1.13275 -2.04046e-18)
(0.563202 2.13132 0)
(0.757142 2.04312 0)
(0.756956 2.02476 0)
(0.573189 1.26527 -7.01207e-18)
(0.602973 0.312942 0)
(0.613829 0.246884 -1.69556e-18)
(1.22208 1.19437 0)
(1.27346 0.962636 0)
(1.31124 0.919963 2.19705e-18)
(1.28688 0.732834 0)
(1.32703 0.506783 -2.44519e-17)
(0.985604 0.00177906 0)
(0.995317 -0.00261028 0)
(0.967737 -0.0185697 0)
(0.994587 0.00493701 0)
(0.987066 0.00221965 0)
(0.97318 0.00423649 0)
(0.974873 -0.00942251 0)
(0.981402 0.00201541 0)
(1.0071 0.00208932 0)
(0.0170423 1.64775 2.86328e-17)
(0.0410932 1.59278 0)
(-0.00811692 1.65212 3.38085e-18)
(-0.012969 1.63241 -2.62686e-18)
(0.16726 1.99967 -3.30141e-17)
(0.0430743 1.87384 0)
(0.0672597 1.9029 0)
(0.00295831 1.77223 0)
(-0.0140814 1.74479 0)
(0.00367691 1.7222 -8.53117e-21)
(0.00690668 1.68483 0)
(-0.0133007 1.72264 -2.93002e-17)
(0.00235748 1.70235 1.47414e-18)
(-0.0121526 1.76868 0)
(0.00281102 1.75139 0)
(-0.00632014 1.72856 0)
(0.00439838 1.74397 0)
(0.00396236 1.71885 0)
(1.0196 0.00827772 0)
(1.00957 0.0178598 0)
(1.02369 0.00781358 0)
(0.989501 0.019733 0)
(0.964422 -0.00249405 0)
(0.981457 0.00134067 0)
(0.970036 0.0137082 0)
(0.962273 -0.00516224 0)
(0.0137957 3.03238 -3.63755e-20)
(0.00999659 3.03077 0)
(-0.00883993 2.99069 0)
(-0.00662252 2.9427 0)
(0.78875 3.44131 0)
(1.10735 2.51931 -2.97514e-18)
(0.0160349 2.89877 0)
(-0.0069982 2.80274 0)
(-0.00243219 1.73117 0)
(0.00332591 1.74143 0)
(-0.00240967 1.73988 0)
(-0.0122095 1.77592 -6.44297e-17)
(-0.0131782 1.74254 0)
(-0.00721871 1.76509 0)
(-0.0150848 1.69783 -5.73509e-17)
(-0.00452231 1.73185 -2.81599e-17)
(0.00648977 1.74156 2.9107e-17)
(0.0162134 1.71118 0)
(0.760174 0.141619 -1.00996e-17)
(0.751098 0.0787586 -1.53232e-17)
(0.176599 1.41034 0)
(0.245774 1.36728 -6.5296e-19)
(0.134215 1.4356 -2.69816e-17)
(0.120895 1.43582 -2.26556e-17)
(0.969569 -0.00530934 0)
(0.980952 -0.00468789 0)
(0.983137 0.00126916 0)
(0.958926 0.00548192 0)
(0.00111454 1.74351 0)
(0.00164461 1.74996 0)
(-0.00849635 1.73194 0)
(0.441878 0.344079 4.11738e-18)
(0.352336 0.346358 -5.27886e-18)
(0.41699 0.284899 0)
(1.21061 0.100927 2.2385e-19)
(1.21952 0.0696197 0)
(1.1363 0.0539477 0)
(1.06855 0.0152313 0)
(0.783947 0.102236 0)
(0.808589 0.0624267 1.45687e-18)
(0.779681 0.0344241 -8.45215e-18)
(-0.00515494 2.94371 -2.08495e-17)
(-0.0112583 2.86281 -4.86285e-17)
(-0.00155001 3.01774 -8.21189e-20)
(0.00748035 2.99882 -2.51957e-17)
(-0.0183613 3.00548 1.18236e-19)
(-0.00438107 2.97506 -5.18564e-22)
(-0.00628285 3.00491 -7.60705e-18)
(-0.0281056 2.96736 -3.70944e-18)
(0.0122827 2.98843 -3.0734e-17)
(1.01193 0.0149858 0)
(1.00972 0.0119932 0)
(0.989468 0.0159273 0)
(0.987694 -0.0139073 0)
(0.989321 -0.00381108 0)
(0.972238 -0.0133018 0)
(0.979135 0.00741476 0)
(0.986318 0.00405207 0)
(0.963591 0.0105134 0)
(0.651792 1.17215 -2.33157e-18)
(0.615949 1.21009 0)
(0.653042 1.11878 1.86584e-18)
(0.675563 1.2036 3.3006e-18)
(0.709218 1.118 -1.42398e-17)
(0.657761 0.993093 -8.36405e-18)
(0.47941 1.33868 1.0807e-17)
(0.497634 1.294 1.84613e-17)
(0.670798 0.251165 -2.95323e-18)
(0.645382 0.273669 -1.17085e-18)
(0.648133 0.233294 7.11368e-18)
(1.30743 0.534972 -2.68364e-17)
(1.32056 0.353319 -2.5493e-18)
(0.00392318 1.67626 -2.64267e-17)
(0.0108424 1.66859 0)
(1.07323 0.0317814 0)
(1.05484 0.018534 0)
(1.03487 -0.00835276 0)
(0.022881 3.04172 0)
(-0.000965093 2.98608 -1.96602e-17)
(-0.00367624 2.9901 0)
(-0.00933933 2.93565 -2.99605e-17)
(0.0336917 3.05998 1.55081e-17)
(0.0232938 3.04752 0)
(0.624906 1.41134 -1.55267e-18)
(0.957906 2.02935 -1.31299e-17)
(0.669452 1.5243 -9.08286e-18)
(-0.00233878 2.92137 2.04993e-17)
(-0.00225003 2.90164 0)
(0.00160941 2.81918 0)
(0.00295297 1.73497 5.69513e-17)
(-0.0138726 1.73332 -1.45634e-18)
(-0.000993866 1.7157 5.68592e-17)
(0.251161 1.39166 -9.70816e-18)
(0.317441 1.35799 -1.29599e-17)
(0.036028 1.59209 -2.39212e-17)
(0.0765398 1.50878 -2.7688e-17)
(0.053012 1.51492 -5.13375e-17)
(0.0100709 3.05821 9.05425e-17)
(0.0212541 3.06422 1.0747e-16)
(-0.0178438 2.97667 2.84335e-17)
(-0.028286 2.9548 -2.79861e-17)
(-0.0350448 2.89769 2.11818e-17)
(0.0337705 3.0622 -9.49986e-17)
(0.0271139 3.06628 -9.08777e-17)
(0.565308 1.30372 0)
(0.629585 1.26771 -1.58113e-17)
(0.626379 1.2176 -9.3491e-18)
(0.421252 1.33812 3.17823e-17)
(0.447823 1.31072 1.28144e-17)
(1.29775 0.18801 6.9726e-19)
(1.30435 0.338801 0)
(1.29417 0.165378 -1.31717e-18)
(-0.0062846 1.70886 -1.30836e-20)
(0.0102472 1.7038 0)
(-0.000230525 1.68111 0)
(0.308617 1.36718 -5.44059e-19)
(0.36583 1.35856 -3.07288e-17)
(0.37798 1.32637 -1.97467e-17)
(1.01402 -0.0538965 0)
(0.998226 -0.0480717 1.92426e-17)
(0.00478955 1.75651 0)
(-0.00271521 1.77302 0)
(0.977507 -0.00936426 3.8477e-19)
(0.998408 -0.0161096 3.05008e-17)
(-0.00116436 1.76792 -6.46625e-17)
(-0.000123805 1.76875 0)
(0.0196871 3.03617 2.75239e-17)
(0.244993 3.03167 0)
(1.08749 0.704327 -2.46737e-17)
(1.00691 -0.00737168 7.18367e-17)
(1.01133 0.0140946 0)
(1.00886 -0.00751538 2.98087e-19)
(0.047684 1.85011 0)
(0.0393382 1.65103 0)
(-0.00943994 1.77183 0)
(0.0105758 1.7418 -6.24362e-17)
(0.00345113 1.73777 6.3996e-17)
(0.983166 0.00307619 7.0408e-17)
(1.04219 0.00688371 0)
(1.05193 0.0333919 0)
(0.00692291 1.7442 0)
(-0.0125833 1.76812 0)
(-0.0101327 1.77337 0)
(0.225951 1.97363 -6.82092e-17)
(0.988773 -0.0367544 0)
(0.984287 -0.0335805 0)
(1.00798 0.00113711 -6.85929e-18)
(1.01321 -0.00425647 9.44669e-18)
(0.986339 0.0100754 0)
(-0.0099518 1.73512 0)
(0.0131034 1.74492 0)
(0.000692221 1.72793 0)
(-0.00243577 1.77226 0)
(-0.00372597 1.76432 0)
(-0.00620327 1.77109 0)
(1.01776 0.00734308 0)
(1.01085 -0.00750006 7.19804e-17)
(0.793863 1.63974 -4.75732e-18)
(1.02263 -0.00646405 7.16358e-18)
(1.01734 0.0177934 -9.17601e-18)
(0.992162 0.00443663 0)
(1.01021 0.00162009 4.065e-17)
(0.979511 -0.0134462 2.93609e-17)
(0.987936 -0.00390967 0)
(-0.00689287 1.77125 0)
(-0.0052483 1.76114 -3.21811e-17)
(-0.00154626 1.76927 -2.93296e-17)
(1.17526 0.276163 -3.77322e-17)
(1.0976 0.0736147 0)
(-0.090648 2.99145 1.54811e-17)
(-0.176419 3.1517 -2.37108e-20)
(0.0461793 3.08268 5.29412e-17)
(-0.00223929 3.04268 2.72335e-17)
(0.0663338 3.01072 0)
(-0.00665623 3.05673 1.42312e-17)
(-0.0348442 3.12876 2.80753e-17)
(-0.0267407 3.0638 9.90382e-18)
(-0.00339582 3.0853 0)
(0.65886 0.332119 0)
(0.555224 0.384231 0)
(1.03825 0.810996 3.21219e-17)
(1.11227 0.88894 2.29441e-17)
(1.14242 0.635009 0)
(1.17325 0.558489 0)
(1.02066 -0.00408947 -7.09132e-18)
(1.01929 -0.00502148 1.12445e-17)
(1.02598 0.0244018 0)
(1.01855 0.00283455 0)
(0.998189 0.0159453 0)
(1.00187 0.00330635 0)
(1.02691 -0.0156437 0)
(1.02206 -0.00468918 0)
(1.02259 0.0212311 0)
(1.02242 0.0216444 0)
(0.05495 1.85205 0)
(0.0216424 1.85356 0)
(0.0737407 1.8749 0)
(0.0466583 1.90271 0)
(0.0547656 1.62011 0)
(0.0611358 1.62818 2.73755e-17)
(0.0424413 1.67709 0)
(0.0320174 1.68108 2.93499e-17)
(0.0128422 1.73746 -6.17397e-17)
(-0.0202984 1.77399 0)
(-0.0216174 1.77505 0)
(0.0104154 1.78254 0)
(-0.0024663 1.79798 0)
(0.00769146 1.75206 -6.46668e-17)
(-0.0048277 1.73875 -3.96661e-17)
(0.0179041 1.75977 3.33071e-17)
(0.0151536 1.76715 0)
(0.0204431 1.75973 2.44799e-17)
(0.0014244 1.767 -6.18662e-17)
(-0.0331453 1.76057 -9.64762e-17)
(0.0168628 1.73789 -4.1651e-17)
(0.0181544 1.75877 3.09791e-17)
(0.988952 0.0106653 9.53403e-18)
(0.998115 0.00227896 -1.05572e-17)
(0.98509 0.00799357 -5.25597e-18)
(0.9627 0.00320588 1.03287e-17)
(1.02744 -0.0130042 0)
(1.03697 -0.0103282 0)
(1.02527 0.0204518 0)
(1.05546 0.0306126 0)
(1.0585 0.023334 0)
(1.05514 0.0561593 0)
(1.06848 0.0504287 0)
(1.0794 0.0404689 0)
(-0.00525999 1.76613 8.36647e-18)
(0.0155179 1.72856 0)
(-0.00558264 1.73751 0)
(-0.0223919 1.77025 -1.21591e-17)
(-0.0249988 1.78051 3.65238e-23)
(-0.00475547 1.74291 3.78829e-17)
(-0.00412319 1.75465 3.72428e-17)
(0.0220991 1.75713 0)
(-0.0111902 1.74866 0)
(-0.0120114 1.74733 0)
(0.00515937 1.77232 0)
(0.0037956 1.77015 0)
(0.389614 1.97688 -5.26885e-17)
(0.390245 1.98706 3.348e-17)
(0.233487 1.46141 -8.54791e-19)
(0.121383 1.49986 2.78345e-17)
(0.294612 1.60191 3.22696e-17)
(0.997606 -0.00346316 0)
(0.99026 -0.0184861 0)
(0.999494 0.00142352 0)
(1.02623 -0.00650213 0)
(1.00213 -0.011719 0)
(0.97909 -0.00981865 0)
(0.972161 0.0372942 0)
(1.01971 0.0561449 0)
(1.00152 -0.000960321 1.06334e-17)
(1.00981 0.0119374 -1.10394e-17)
(1.01043 -0.0119352 -6.3056e-18)
(1.00874 -0.00538159 1.06324e-17)
(0.732594 1.74893 0)
(0.690969 1.80632 -6.9234e-17)
(0.860655 1.51664 5.67158e-17)
(0.909523 1.45256 6.14591e-17)
(0.860978 1.64125 -9.09222e-18)
(0.848592 0.120966 -1.12513e-17)
(1.12107 0.13123 0)
(1.10987 0.175258 -9.05337e-17)
(1.14456 0.132031 -3.38179e-19)
(0.943519 0.156193 0)
(0.0647633 2.82769 5.11586e-17)
(-0.160132 2.71399 4.76824e-17)
(-0.534736 2.54142 1.25701e-17)
(-0.288151 0.259369 -1.27559e-17)
(0.12732 3.03378 -8.64183e-18)
(0.03617 3.03631 0)
(0.122554 2.99916 -1.25125e-17)
(0.0650608 2.84429 5.00359e-17)
(0.217143 2.88265 0)
(0.000595077 3.06128 1.52141e-19)
(-0.00192962 3.07635 -2.49197e-17)
(0.0175111 3.09228 -1.78929e-17)
(-0.00846415 3.11334 0)
(-0.00674884 3.07943 0)
(0.893732 1.85472 0)
(0.238758 0.844627 3.73751e-17)
(1.03674 1.19512 -2.62598e-17)
(0.965581 1.28779 0)
(0.757503 1.16021 -1.45193e-17)
(1.00444 1.06126 -5.22901e-17)
(0.377015 0.489563 -8.38917e-18)
(0.651439 0.337573 1.02082e-17)
(0.663326 0.316903 1.41762e-17)
(0.509017 0.423206 2.88026e-19)
(0.503053 0.385289 -7.3689e-18)
(0.637766 0.364508 0)
(0.630077 0.425358 1.51653e-17)
(0.643862 0.397413 0)
(0.561165 0.388284 0)
(0.59956 0.352126 0)
(0.655917 0.693684 3.30806e-17)
(1.19076 0.366706 2.2255e-17)
(1.17766 0.437487 0)
(1.18328 0.397436 0)
(0.761341 0.23882 2.20898e-17)
(0.699548 0.570908 2.72047e-17)
(0.647974 0.513885 1.59064e-17)
(0.852453 0.437145 -7.67691e-17)
(1.00128 0.0224088 3.97649e-17)
(1.01369 0.00377961 2.79884e-17)
(1.00502 0.0206294 0)
(1.0114 0.00497717 0)
(1.01407 -0.0254156 -3.87374e-17)
(1.01051 -0.01464 -2.70517e-17)
(1.00506 -0.0149399 0)
(0.99084 -0.00689435 0)
(1.014 -0.00401413 0)
(1.01751 -0.00380431 0)
(1.00144 -0.0150276 0)
(1.00671 4.92234e-05 0)
(0.0162537 1.83697 0)
(0.00882847 1.82168 0)
(0.0457581 1.83087 -4.65569e-17)
(0.201668 1.9702 -3.48782e-17)
(0.0782269 1.93386 6.32281e-17)
(0.0877157 1.96262 3.41497e-17)
(0.102003 1.83854 0)
(0.14718 1.73216 5.88139e-17)
(0.125276 1.76584 0)
(0.235389 1.64702 3.04706e-17)
(0.212006 1.60103 -3.43708e-17)
(0.149933 1.74135 6.21279e-17)
(0.234075 1.88146 -3.58394e-17)
(0.16735 1.84076 -3.42818e-17)
(0.269467 1.79549 -1.18096e-17)
(0.188245 1.71818 0)
(0.24177 1.72419 -4.19143e-17)
(0.0386883 1.75004 4.00496e-18)
(0.0266257 1.7303 0)
(0.0712326 1.7052 -5.94572e-17)
(0.0438237 1.72183 0)
(0.0422348 1.69825 2.71141e-17)
(0.0281126 1.72377 0)
(0.0200578 1.75694 4.45394e-17)
(0.00807043 1.76799 0)
(0.0208354 1.7589 0)
(0.0221065 1.75731 4.67038e-17)
(-0.0110733 1.74719 -9.97018e-17)
(0.0172519 1.75198 -5.60738e-17)
(0.00136957 1.76069 1.53981e-20)
(-0.00759087 1.73468 6.61119e-17)
(-0.0431568 1.77409 -3.29273e-17)
(-0.00420347 1.77465 0)
(0.00441835 1.76897 0)
(0.00205659 1.75362 2.84119e-17)
(0.0180801 1.74633 2.44513e-17)
(-0.00190392 1.75063 4.8004e-17)
(0.00954872 1.74637 0)
(-0.0108623 1.76224 8.53502e-17)
(0.00122386 1.7621 1.50697e-17)
(0.0199802 1.75429 -1.66425e-17)
(0.00536457 1.73081 6.48455e-17)
(-0.0122067 1.71758 -3.65225e-18)
(0.000738852 1.74741 -3.63622e-17)
(1.00337 0.00906323 2.82292e-17)
(0.989675 0.0284466 3.88814e-17)
(0.994491 0.0182444 0)
(0.971278 0.0500853 -4.30553e-17)
(0.942417 0.046292 -4.71584e-18)
(0.917561 0.0493907 1.30631e-17)
(0.976477 0.0492719 -7.92534e-19)
(1.03628 0.00799625 0)
(1.032 -0.0152139 -2.82853e-17)
(1.03489 -0.0116773 -3.86775e-17)
(0.992893 0.0379829 2.1241e-18)
(1.01478 0.0282243 -2.53965e-18)
(0.981979 0.0488103 0)
(0.983089 0.0331568 -1.87118e-18)
(1.00769 0.0482701 0)
(0.993753 0.0422399 0)
(1.00603 0.02969 0)
(1.00378 0.0164521 0)
(1.01177 0.0414035 7.8178e-18)
(0.990017 0.0205666 1.59641e-17)
(0.94852 0.0107827 -9.77352e-18)
(0.969078 0.0254976 3.61779e-18)
(1.00641 0.0844123 3.33286e-17)
(1.05492 0.0710708 0)
(1.01961 0.0856753 0)
(-0.0150006 1.75596 -4.59842e-17)
(-0.0110852 1.74194 -7.7505e-19)
(-0.0197451 1.76096 0)
(-0.0054934 1.76866 -4.50612e-17)
(0.0171041 1.76687 7.72652e-18)
(0.005947 1.76336 -3.48932e-18)
(0.00686433 1.76454 -6.43305e-17)
(0.0182327 1.73722 -2.29021e-19)
(-0.00475923 1.72173 -3.87919e-18)
(-0.0201222 1.77975 2.82946e-17)
(-0.000119246 1.7675 2.93676e-17)
(0.0335174 1.73882 -1.95874e-17)
(0.00543681 1.72066 -3.20828e-17)
(0.343301 1.83474 2.60863e-17)
(0.322668 1.78589 -1.88809e-18)
(0.657851 1.87894 -6.45629e-17)
(0.526666 1.96089 3.55636e-17)
(0.565086 1.91401 0)
(0.280371 1.45594 -1.87893e-18)
(0.315652 1.46231 1.03783e-18)
(0.166666 1.50368 -6.25835e-18)
(0.172613 1.5129 -3.41483e-17)
(0.223144 1.50776 -2.04449e-17)
(0.230951 1.48183 0)
(0.165501 1.50093 -1.32531e-17)
(0.113443 1.58547 7.42839e-18)
(0.13458 1.54006 5.25559e-17)
(0.0896191 1.57647 -2.7166e-18)
(0.569827 1.38884 -2.31831e-17)
(0.436123 1.41441 0)
(1.02164 -0.00589436 2.3794e-19)
(1.03989 0.057631 -1.1799e-19)
(1.01007 0.00368157 -1.28755e-17)
(1.00011 -0.000699676 -7.02883e-18)
(1.00131 0.021875 0)
(0.623933 1.66749 0)
(0.537575 1.56622 0)
(0.694208 1.36525 0)
(0.54725 1.50198 0)
(0.825751 1.60995 2.46602e-17)
(0.886716 1.50928 0)
(0.575518 1.59488 -8.54406e-19)
(0.46529 1.50573 0)
(0.501327 1.47134 5.61003e-17)
(0.562854 1.4983 6.13843e-17)
(0.846806 0.153708 0)
(0.826311 0.158618 7.58749e-19)
(0.900676 0.0987403 1.86803e-17)
(0.845109 0.113277 -2.82482e-17)
(0.840049 0.0793753 -1.27747e-17)
(0.982622 0.228211 -3.74145e-17)
(0.902275 0.280265 2.42903e-17)
(0.795538 0.292973 3.19142e-17)
(0.932019 0.240706 1.98764e-17)
(0.898651 0.142101 1.88354e-17)
(0.88052 0.171624 -7.46328e-18)
(0.829731 0.250856 -2.77312e-18)
(0.873084 0.234481 0)
(0.93617 0.200526 2.63355e-17)
(0.94698 0.186537 0)
(0.949563 0.273386 0)
(1.06076 0.156328 -6.16872e-18)
(0.973126 0.174989 2.67336e-17)
(0.980652 0.186676 1.5752e-17)
(1.00571 0.213082 0)
(1.00208 0.0498219 -2.24343e-17)
(1.01153 0.0412597 3.70636e-17)
(1.00549 0.0574493 -3.07195e-17)
(1.018 0.0582683 2.91682e-17)
(0.961806 0.0656373 -5.77352e-17)
(0.941862 0.0954774 0)
(0.945378 0.0331467 0)
(0.920953 0.0794581 3.14397e-17)
(0.911353 0.0758453 9.7612e-18)
(1.00228 0.090085 -2.29889e-17)
(0.999377 0.119497 -3.51128e-17)
(0.994856 0.129753 3.10106e-18)
(0.96628 0.146179 0)
(0.987931 0.0869088 0)
(1.0071 0.0973571 2.5216e-17)
(0.995218 0.10424 -3.07206e-17)
(0.459702 1.67291 2.65416e-17)
(0.468517 1.81667 -2.13244e-17)
(0.686637 1.84682 1.10803e-17)
(0.706353 2.25048 -6.59519e-19)
(0.860053 1.80691 -3.72217e-17)
(0.863113 1.90933 9.31834e-18)
(0.958995 1.59461 6.96247e-18)
(0.732681 2.07819 -1.94354e-17)
(0.771779 1.97974 -3.31087e-18)
(0.754495 2.3958 1.60347e-18)
(0.9191 2.1825 -7.45821e-19)
(0.974375 2.1707 0)
(0.22515 0.98697 -3.51405e-18)
(0.0635913 1.60271 -8.7095e-18)
(0.382252 0.473744 -4.32388e-19)
(0.253238 0.713417 -8.52445e-18)
(0.435852 0.426005 -1.11875e-18)
(0.465269 0.428233 -8.41314e-18)
(0.411717 0.479208 3.46759e-18)
(0.385076 0.419368 -1.08013e-18)
(0.426051 0.40239 9.66353e-19)
(0.750334 0.27099 1.69702e-17)
(0.690167 0.30402 0)
(0.726684 0.269352 5.22976e-18)
(0.598649 0.50732 -6.31096e-18)
(0.552141 0.472422 -2.17061e-18)
(0.471151 0.48233 -5.00371e-18)
(0.521759 0.447022 0)
(0.418953 0.897468 -1.65179e-17)
(0.668551 0.927624 4.70059e-17)
(0.590198 0.973158 3.64732e-17)
(0.681788 0.956356 8.66191e-18)
(0.832163 0.965634 -4.71818e-18)
(0.821995 1.01159 -3.76759e-18)
(0.778687 0.697767 -5.05404e-18)
(0.804966 0.759367 1.10574e-17)
(0.878622 0.86897 0)
(0.875699 0.7658 1.83043e-17)
(0.953453 0.357447 4.66647e-17)
(1.08128 0.316138 -1.06091e-17)
(1.02928 0.291819 -3.6809e-17)
(0.893565 0.431323 3.4364e-17)
(0.979297 0.420394 0)
(0.967988 0.422596 0)
(0.832432 0.375146 4.28257e-17)
(0.750038 0.318748 0)
(0.775631 0.315603 -8.06948e-18)
(0.850091 0.309528 5.83289e-17)
(0.820506 0.480474 -4.51823e-17)
(0.758562 0.530852 6.99646e-18)
(0.796496 0.509971 -1.57388e-19)
(0.724915 0.421329 6.28703e-18)
(0.696074 0.440488 -1.02884e-18)
(0.652693 0.449037 -4.6109e-18)
(0.996018 0.0314575 -2.98917e-17)
(0.99685 -0.0312564 0)
(1.01083 0.00912237 1.62445e-17)
(0.997334 0.0307791 -2.81764e-17)
(1.0067 -0.00999575 -1.26641e-17)
(1.00842 0.0480285 -1.4069e-17)
(0.996458 0.00575164 0)
(0.993391 -0.0247523 7.7781e-18)
(0.998958 0.0263821 7.7748e-18)
(0.980481 0.013654 -7.16356e-18)
(0.986711 -0.0118485 1.06606e-17)
(0.00281496 1.7956 0)
(0.000876846 1.779 0)
(0.0255894 1.80693 0)
(0.00945729 1.79606 0)
(0.072892 1.7516 1.30608e-18)
(0.0731592 1.77489 -9.42523e-17)
(0.0767725 1.77268 -2.96793e-17)
(0.0624437 1.78292 -7.17631e-17)
(0.0333522 1.75062 4.49674e-17)
(0.0284073 1.78334 5.55058e-17)
(0.0558346 1.76915 1.02721e-16)
(0.037232 1.78874 4.53562e-17)
(0.0227935 1.76851 8.1523e-18)
(-0.00881791 1.7724 8.11774e-19)
(0.0798614 1.70593 -6.27087e-17)
(0.0828122 1.70597 0)
(0.0737066 1.69538 -3.33144e-17)
(0.0956042 1.7682 -2.81415e-18)
(0.165015 1.67009 -1.66997e-17)
(0.130168 1.60964 0)
(0.137836 1.60062 4.10775e-17)
(0.168621 1.61101 4.58134e-17)
(0.10947 1.67881 -5.69235e-17)
(0.0802375 1.68296 -6.87493e-17)
(0.0736946 1.60577 0)
(0.00771779 1.76039 2.41408e-17)
(0.00799339 1.74367 -2.25913e-17)
(0.00128311 1.74456 0)
(0.0196151 1.74138 1.79799e-17)
(0.0121961 1.74149 1.66995e-17)
(-0.0109772 1.78057 8.45778e-18)
(-0.00902418 1.78431 -9.06998e-17)
(-0.0218674 1.78256 -5.53071e-17)
(-0.0272627 1.78006 4.15212e-17)
(-0.00189612 1.75554 0)
(0.00406315 1.77725 0)
(0.00253946 1.76763 -3.21009e-17)
(-0.00882454 1.77462 -3.56466e-18)
(0.0036388 1.77647 0)
(-0.00469542 1.77234 2.9559e-17)
(-0.0125178 1.76837 -1.38109e-18)
(0.982035 0.0455884 0)
(1.0256 0.07617 -9.03676e-19)
(1.02427 -0.000454811 3.01919e-17)
(1.00398 -0.004078 0)
(1.03672 0.0356501 0)
(1.01394 -0.0292144 1.82771e-17)
(0.97095 -0.00156317 -3.39898e-17)
(1.0058 0.00651957 7.14582e-19)
(0.991505 0.018527 0)
(0.994459 0.0144911 0)
(0.997563 0.0089674 3.28781e-17)
(0.999925 0.0197682 0)
(0.994531 0.0152576 0)
(0.0140343 1.76679 0)
(0.0171093 1.73453 -3.53587e-17)
(-0.00175284 1.77608 3.70588e-17)
(0.0033798 1.75236 0)
(0.00661541 1.70973 -3.27202e-17)
(0.0163546 1.72993 -1.66095e-17)
(0.00168496 1.76489 0)
(0.40025 1.65044 0)
(0.305512 1.76693 1.11503e-17)
(0.29545 1.68523 0)
(0.408329 1.7622 8.1343e-17)
(0.443447 1.83321 0)
(0.412597 1.83149 2.43942e-17)
(0.594732 1.42994 -4.18928e-19)
(0.618909 1.37662 -3.15762e-17)
(0.675933 1.3791 -6.90044e-18)
(0.459576 1.41399 -4.97014e-18)
(0.449352 1.4404 0)
(0.483019 1.42549 0)
(0.526735 1.40057 0)
(0.501723 1.40866 -9.83193e-18)
(0.337676 1.50642 -3.82136e-17)
(0.422761 1.43415 2.10171e-18)
(0.421512 1.49937 3.17062e-18)
(0.3524 1.43373 0)
(0.396688 1.42842 0)
(0.372562 1.43967 -1.1693e-18)
(0.39963 1.45975 0)
(0.436672 1.48861 0)
(0.156555 1.43499 -6.20596e-17)
(0.344501 1.16688 -5.58677e-18)
(0.385712 1.60306 0)
(0.246729 1.63254 -4.94112e-17)
(0.645363 1.03823 -1.10433e-17)
(0.661165 1.3016 0)
(0.728395 1.20402 -2.09942e-17)
(0.525661 1.31627 0)
(0.520057 1.21593 0)
(0.764219 1.61758 6.81878e-18)
(0.696498 1.75883 -1.24638e-17)
(0.575824 1.71173 -2.71504e-17)
(0.604226 1.65251 -4.54693e-18)
(0.783436 1.53223 0)
(0.726792 1.49362 -1.5605e-18)
(0.839883 1.46623 -8.18938e-18)
(0.833971 1.42135 -6.528e-18)
(0.546933 1.64763 0)
(0.489547 1.69038 2.33143e-17)
(0.509251 1.6718 0)
(0.846067 0.231508 0)
(0.814242 0.174066 0)
(0.780158 0.192122 0)
(0.82142 0.254657 -1.34134e-17)
(0.762734 0.233991 8.13087e-18)
(0.909782 0.0855308 6.30346e-18)
(0.921939 0.0962349 0)
(0.899304 0.0713495 1.41946e-18)
(0.855374 0.0489951 4.17407e-18)
(0.874938 0.0479106 -9.63724e-18)
(0.758319 2.62587 -8.37694e-18)
(0.684805 2.53408 0)
(0.717293 2.73047 -3.79902e-17)
(0.3635 2.99572 -3.30642e-17)
(0.332842 2.65959 5.80928e-18)
(0.1014 1.26731 -1.55916e-17)
(0.0901718 1.49738 0)
(0.218662 0.650932 4.63345e-18)
(0.250776 0.649488 4.34569e-17)
(0.354533 0.488539 6.54918e-18)
(0.447075 0.491226 6.44091e-18)
(0.54702 0.531307 -2.98582e-18)
(0.547728 0.568469 0)
(0.471124 0.623803 0)
(0.450149 0.542067 0)
(0.91292 0.677201 1.19904e-17)
(0.778794 0.558941 -2.24591e-19)
(0.760516 0.607949 3.69878e-18)
(0.843074 0.528834 1.20285e-17)
(1.01602 0.504176 0)
(1.03629 0.600745 -1.10408e-17)
(0.746502 0.39229 -4.28615e-19)
(0.750422 0.364218 9.73182e-18)
(0.67381 0.40547 3.5497e-18)
(0.701734 0.360247 -4.65731e-18)
(0.733417 0.342422 -1.31668e-17)
(0.722497 0.330016 -7.3862e-18)
(1.01825 -0.0166932 -4.08265e-17)
(1.02231 -0.0130398 -1.30415e-17)
(1.00144 0.0371415 4.12618e-17)
(1.00493 0.0443389 3.12058e-17)
(0.967232 0.0363374 0)
(0.957589 -0.013701 -3.20045e-17)
(0.0562688 1.77011 2.32303e-17)
(0.0589016 1.74573 0)
(0.0522481 1.76233 -3.2961e-17)
(0.0698115 1.7694 -5.49831e-17)
(0.0503445 1.73342 -2.73709e-17)
(0.046139 1.70925 0)
(0.0370568 1.74588 0)
(0.0134433 1.78583 -1.69023e-17)
(0.00622029 1.75446 -1.65177e-17)
(0.00104162 1.73368 -4.19719e-17)
(0.0373589 1.74339 -9.25526e-18)
(0.035413 1.74524 -3.23065e-18)
(0.49446 1.61584 -1.04668e-16)
(0.465672 1.63024 -9.92511e-17)
(0.453335 1.73148 5.80128e-17)
(0.442691 1.6571 -3.71046e-18)
(0.599424 1.70657 0)
(0.520508 1.80941 5.83578e-17)
(0.572149 1.75387 6.37025e-17)
(0.47761 1.75447 6.3777e-17)
(0.518361 1.69899 0)
(0.534863 1.66295 0)
(0.329183 1.50316 -3.18889e-17)
(0.344705 1.44106 -4.57955e-17)
(0.366397 1.45298 -5.40848e-17)
(0.274662 1.45957 -3.11663e-18)
(0.306234 1.52796 4.23756e-18)
(0.230501 1.49156 -2.23598e-17)
(0.705888 1.36409 -1.57542e-17)
(0.786747 1.38329 0)
(0.768603 1.38441 -3.68894e-18)
(0.691704 1.44012 0)
(0.664603 1.41596 0)
(0.14933 2.4063 -7.86748e-18)
(0.515047 2.42343 -8.46673e-18)
(0.417616 2.59996 4.96017e-18)
(0.200951 1.57994 0)
(0.113033 1.38802 -1.5398e-17)
(0.0789894 1.38976 -3.44139e-17)
(0.0991415 2.42426 0)
(0.173664 2.58481 9.06193e-18)
(0.0826484 2.63411 0)
(0.48764 0.69344 -2.17418e-17)
(0.603374 0.793335 -2.68504e-17)
(0.612073 0.768549 -3.32526e-17)
(0.471471 0.653026 -2.66577e-18)
(0.584797 0.589122 -3.59039e-18)
(0.436921 2.34852 -4.36193e-18)
(0.509887 2.14867 -1.43627e-17)
(0.270334 2.27589 1.76067e-17)
(0.234596 2.1545 1.89324e-17)
(0.432007 1.90084 2.43449e-17)
(0.495747 2.05372 -2.56478e-17)
(0.529831 1.88107 -8.62261e-18)
(0.338829 2.08868 1.11765e-18)
(0.384188 2.02558 3.12634e-17)
)
;

boundaryField
{
    wall-4
    {
        type            calculated;
        value           uniform (0 0 0);
    }
    velocity-inlet-5
    {
        type            calculated;
        value           uniform (1 0 0);
    }
    velocity-inlet-6
    {
        type            calculated;
        value           uniform (0 3 0);
    }
    pressure-outlet-7
    {
        type            calculated;
        value           nonuniform List<vector> 8((-0.0455027 1.73969 0) (-0.0376259 1.69637 4.83751e-17) (-0.000162756 1.75767 0) (-0.00984626 1.78977 0) (-0.00528408 1.74796 0) (0.00789761 1.752 0) (-0.00232713 1.7413 0) (-0.00766065 1.76653 0));
    }
    wall-8
    {
        type            calculated;
        value           uniform (0 0 0);
    }
    frontAndBackPlanes
    {
        type            empty;
    }
}

