/*--------------------------------*- C++ -*----------------------------------*\
  =========                 |
  \\      /  F ield         | OpenFOAM: The Open Source CFD Toolbox
   \\    /   O peration     | Website:  https://openfoam.org
    \\  /    A nd           | Version:  6
     \\/     M anipulation  |
\*---------------------------------------------------------------------------*/
FoamFile
{
    version     2.0;
    format      ascii;
    class       volScalarField;
    location    "0";
    object      p;
}
// * * * * * * * * * * * * * * * * * * * * * * * * * * * * * * * * * * * * * //

dimensions      [0 2 -2 0 0 0 0];

internalField   nonuniform List<scalar> 
13046
(
0.137003
0.103676
0.108479
0.145583
0.11729
0.0921965
0.134665
0.0945726
0.117956
0.0648452
-0.273002
0.0778585
0.143531
0.0550119
0.100343
0.0835268
0.068192
-0.212908
0.137743
0.10962
0.128911
0.0812934
0.0724442
-0.224
0.135816
0.122835
0.108274
0.135295
0.0630299
0.100065
0.144063
0.0831842
0.0980323
0.138435
0.119016
0.115004
0.134028
0.123184
0.11925
0.132077
0.0907851
0.106647
0.124328
0.136339
0.125251
0.133358
0.123113
0.119117
0.132713
0.0955696
0.11074
0.0499069
0.123366
0.0944445
0.0623188
0.0911016
0.124636
-0.0539283
0.120222
0.064396
0.126227
0.00773062
0.103912
0.0819408
-0.137184
0.101608
0.121112
-0.0345833
0.0588032
0.125445
-0.0183055
0.0594279
-0.0819636
0.115667
0.0642494
0.138818
0.119801
0.120625
0.0697611
0.108038
-0.105117
0.135448
0.112857
0.107325
0.0793925
-0.166671
0.0911163
0.091663
0.0928183
-0.126647
0.0985245
0.0724502
-0.141041
0.127315
0.122472
-0.0130104
-0.0334633
0.0865971
0.0896974
0.0960003
0.0906707
-0.112072
0.139483
0.125232
0.112336
0.127066
0.10221
0.070972
0.12638
0.0810267
0.10725
0.0241345
0.0764309
-0.387594
0.143269
0.0730878
0.0992642
0.121668
0.125268
-0.0479667
0.0794352
-0.0183386
0.080931
0.0569594
-0.302833
0.0762255
0.13908
0.00802505
0.0955352
0.133575
0.0900458
0.0991598
0.100353
0.0758833
-0.107639
0.116041
-0.0712963
0.089758
0.143627
0.074119
0.0925493
0.132211
0.0782624
0.112716
0.121495
0.0662386
0.115394
0.126333
0.117173
0.0885117
0.128621
-0.0135621
0.101965
0.1295
0.119975
0.0874522
0.0302878
0.0996675
0.0178326
0.100744
0.11752
0.115453
0.136717
0.0479399
0.116493
0.0599821
0.0806388
-0.269077
0.0387829
0.0761125
-0.359661
0.113556
-0.0924247
0.0869157
0.136199
0.0642598
0.0803469
0.135111
0.118986
0.0584834
0.0857133
-0.229916
0.0670533
0.133788
0.080035
0.0746737
0.128593
0.112112
0.0775546
0.134803
0.0812576
0.113094
0.0415235
0.106373
0.138024
0.0305099
0.093814
0.0894078
0.0869521
-0.159958
0.0994772
0.0878254
-0.0975657
0.0733579
-0.148668
0.0954606
0.0372212
0.0804001
0.119645
0.137302
0.109742
0.0620718
-0.0997324
-0.179587
0.0752202
0.092608
0.132853
0.124926
0.114316
0.136125
0.0764527
0.0954046
0.101622
0.0805689
-0.0917775
0.136281
0.0480475
0.110461
0.080444
-0.325009
0.0393534
0.118519
0.0842277
0.0277199
0.0806704
-0.12123
0.0971513
0.109315
0.0350477
0.118408
0.13309
0.0220035
0.0952981
-0.0475926
0.0855549
0.104885
0.0969845
0.000373768
0.111524
0.0828883
-0.330717
0.030577
0.133465
0.0815924
0.0886326
0.0352091
0.0699424
-0.422106
0.12958
0.137817
0.104849
0.121612
0.115987
0.0358571
0.0438298
0.118044
0.110719
0.0624515
0.103978
-0.134663
0.135187
0.040525
0.0876652
0.0970586
-0.0271934
0.109219
0.115711
-0.0603114
0.0840736
0.126708
0.119115
0.132892
0.109408
0.0186974
0.114163
0.136964
0.0256308
0.0851691
0.136727
0.138269
0.134549
0.0707003
0.0734957
0.111356
0.00104271
0.110749
0.107007
0.0834992
-0.0772806
0.134555
0.0785765
0.0957164
0.118172
0.0882179
0.0175631
0.12404
-0.0240035
0.0734307
0.12607
0.0535658
0.0847777
0.117889
0.119081
-0.0416468
0.0724878
-0.0560687
0.0767293
0.0839753
-0.210748
0.0720006
0.126166
0.00220845
0.0833162
-0.47036
0.0737294
0.00353344
0.139078
0.125953
0.0791706
0.131299
0.0239659
0.104485
0.0880003
0.0952042
-0.12973
0.0525327
0.0848884
0.123247
-0.0692405
0.0846013
0.103338
0.0747417
0.107497
0.124734
0.0226235
0.0995518
0.0591124
0.113333
0.0932561
0.069228
-0.184125
0.0464181
0.0642718
0.123051
0.121006
0.00781353
0.0950552
0.125782
0.0630838
0.117363
0.105975
0.0547029
0.124677
0.140927
0.0908008
0.111568
0.116069
0.0941391
0.0262665
0.0806346
-0.157909
0.0905931
-0.0607638
0.0821827
0.104668
0.121655
0.0570769
0.0212406
0.113181
0.115889
-0.056656
-0.0824771
0.0639989
0.068006
0.0737408
-0.451474
0.0135386
0.0422277
0.0692662
-0.403917
0.123045
0.027067
0.107126
0.0848241
0.0872985
-0.185534
0.123209
0.124876
-0.000379593
-0.0215097
0.0730103
0.0688414
0.0925318
-0.2224
0.0532926
0.0286815
0.0680847
-0.443353
0.119737
0.136892
0.118041
0.0256331
-0.414616
0.0743046
0.136444
0.0564547
0.0742518
0.0704114
-0.217476
0.0872185
-0.455754
0.0823391
-0.0232359
0.131631
0.0900918
0.11461
0.13364
0.116755
0.123209
0.0581701
0.0741167
-0.310547
0.130407
0.103586
0.122317
0.121557
0.134644
0.123206
0.121566
0.0748187
0.0302794
0.122098
0.113192
0.131941
0.140085
0.0785144
0.12817
0.123209
0.0360812
0.0560156
0.0742775
0.0781848
-0.230303
-0.237243
0.0759005
0.0746482
0.0689836
-0.17491
0.0902215
0.0647752
0.123307
-0.00336344
0.12974
0.07331
0.0952745
0.093969
-0.00932302
0.108951
-0.384692
0.0852843
-0.00616084
0.0964167
0.0699669
-0.160684
0.0446333
0.0774834
-0.33113
0.0818906
-0.478582
-0.0240611
-0.515133
0.0760804
-0.00750676
-0.0142588
0.113804
0.102484
-0.288194
0.0903614
0.0276237
0.107792
-0.0789281
0.0919339
0.0751255
0.0625277
-0.27588
0.139946
0.106086
0.0940528
-0.198502
0.0938144
0.0613998
0.0918252
0.110635
-4.28762e-05
-0.0352018
0.0971028
0.108354
0.0809313
-0.584536
-0.050504
-0.441097
0.0780619
-0.00721715
0.142303
0.113365
0.0925153
-0.232519
0.0484782
0.0907821
0.0927231
0.0399116
-0.241644
0.0826746
0.0812647
-0.183857
0.0673636
-0.136899
0.0998327
0.127543
0.0346874
0.0575447
-0.0460102
0.121105
0.0718751
0.064802
0.0962788
-0.19066
0.135936
0.135856
0.0560374
0.0403894
0.0842576
0.086735
0.135717
0.0666351
0.0824949
0.128125
-0.0049565
0.0730108
-0.0468129
0.0898687
0.105387
-0.188061
0.0733771
0.0908015
0.100816
0.094922
-0.0701169
-0.511942
0.0734637
0.00310389
0.140727
0.139905
0.0997613
0.09795
0.106886
0.101721
0.133673
0.125676
0.0723324
0.0202018
0.0708625
0.0538238
-0.447108
0.0825563
-0.0216447
-0.220126
0.0545775
0.0906915
0.126225
0.0563003
0.0784577
-0.0296785
0.0873916
0.107802
0.0667278
-0.120485
0.104012
-0.38607
0.0167135
0.0805781
-0.357437
0.0213069
0.0822288
0.12759
-0.0129055
0.0779717
0.133634
0.0728983
0.104745
0.0799266
0.0795769
-0.213868
-0.0296921
0.103603
0.104409
0.0828594
-0.112001
0.106905
0.126353
0.0743097
0.0620274
0.113411
0.0418598
0.118857
0.132317
0.0843535
0.100206
0.0813478
-0.229885
0.0721768
0.115821
-0.06649
0.0798039
0.136538
0.0961184
0.109673
0.0882102
0.0618844
-0.221875
0.135083
0.0857933
0.096056
0.13208
0.0745483
0.122221
-0.0169863
0.105331
0.10806
0.0553161
0.0667774
-0.351828
0.0615894
0.0646213
-0.336105
0.0793176
-0.118915
0.106628
0.108704
0.0492067
0.117671
0.0654881
-0.388559
0.0433098
0.0902231
-0.107738
0.103392
0.081468
-0.50275
-0.034896
-0.0168002
-0.52884
0.0744514
0.0682539
-0.176589
0.0981185
0.0820918
-0.2847
0.052074
0.0874152
0.0922087
0.0731987
-0.205242
0.0759848
-0.173872
0.0965174
-0.099703
0.0930508
0.113029
-0.0182945
0.0795724
0.144578
0.105122
0.0990271
0.101339
-0.0787228
0.0988688
0.100789
0.104391
-0.065484
0.100851
0.0629389
-0.170077
0.132161
0.00568847
0.0689609
0.132659
0.0457945
0.0685408
0.113014
-0.0209166
0.100523
0.111407
-0.0314186
0.101774
0.136234
0.08968
0.11732
0.136174
0.0307159
0.0889076
0.0954437
-0.190899
0.0551655
0.0140423
0.084652
-0.356825
0.0045676
0.0873782
-0.357622
0.134927
0.0877089
0.0861859
-0.410749
0.0817257
0.00209093
0.112183
0.0782336
-0.0976371
0.0831446
-0.403805
-0.00963495
0.142437
0.121405
0.0983201
0.136553
0.0415926
0.0992518
0.0488606
0.103851
0.120822
0.0908248
-0.271506
0.0373426
-0.036004
0.106524
0.105521
0.0640307
0.0831714
-0.239976
0.129255
0.0263166
0.0989414
0.143899
0.110963
0.101629
-0.265805
0.0453908
0.087994
0.0857083
-0.122441
0.102048
0.0526261
0.0445611
0.0716237
0.0718968
-0.3437
-0.368493
0.126237
0.0475941
0.114328
-0.000446171
0.116799
0.104004
0.128788
0.087547
0.120601
-0.320845
0.0237952
-0.314528
0.0859639
0.0246343
0.0875056
0.123892
-0.0258091
0.0951551
0.0448468
0.0343691
-0.281436
-0.307247
0.0865807
0.0862802
0.110618
0.0138741
0.111595
0.130078
0.0519153
0.105328
0.0697281
0.065873
-0.294921
0.136031
0.0322628
0.110534
0.135741
0.0683808
0.113969
0.055827
0.0680078
-0.32979
0.13346
-0.000176262
0.0895343
0.0150951
0.0784782
0.114033
0.128462
0.0461344
0.0681927
-0.089616
0.101115
0.0731893
0.0792391
-0.557103
-0.0389852
0.128065
0.0320565
0.102557
0.0758736
0.0700003
-0.256509
0.0526241
0.0480886
0.125066
0.00229915
0.0707703
-0.477419
0.128499
0.125793
0.0780674
0.116222
0.0798023
0.119959
0.134871
0.0834523
0.122721
0.129574
0.131867
0.0854578
0.121575
0.10198
0.114376
0.129801
0.0565183
0.113553
0.134647
0.0578534
0.114991
0.0876733
-0.342418
0.00851281
0.135694
0.0796762
0.0813975
0.053981
-0.26511
0.0845435
0.113158
0.110073
-0.0371332
-0.0619255
0.096052
0.0934721
0.132979
0.0977868
0.0896457
0.127035
0.0131191
0.0717489
0.12203
-0.00695547
0.100533
0.136664
0.118665
0.109758
0.108101
-0.0611525
0.0984012
0.138958
0.0964222
0.110652
0.119825
0.0116735
0.108835
0.126755
0.0249348
0.0731478
0.135964
0.134876
0.114698
0.1147
0.120236
0.108749
0.132877
0.0862072
0.134425
0.12487
0.113654
0.117687
0.137449
0.137987
0.0635147
0.0555689
0.0909861
0.086067
0.0701122
-0.131752
0.105335
0.115053
0.0862712
0.0244237
0.0733814
0.0759721
-0.156896
-0.150278
0.0993302
0.0981349
0.125047
0.0599289
0.0795417
0.134462
0.121338
0.121534
0.107863
-0.0773008
0.0955149
0.140302
0.0922194
0.0887686
0.12665
0.0129804
0.0746948
0.1148
0.115835
-0.0960558
0.0721308
-0.0856691
0.0740373
0.117671
-0.0407261
0.0922215
0.0115964
-0.455036
0.0715013
0.0478455
0.0633706
0.123094
0.12409
0.126345
0.0553148
0.0499573
0.0675255
0.0586893
0.0983066
-0.0544896
0.103583
0.126515
0.0317596
0.0754117
0.127977
0.0539275
0.0676601
0.123756
0.132155
0.0636258
0.0807638
0.0786984
0.0653499
0.125157
0.071563
0.0630924
0.118391
-0.0310711
0.0964257
0.136915
0.0985751
0.117827
0.0641358
0.0721642
-0.291478
0.128135
0.0571297
0.0575744
0.131606
0.129145
0.00895987
-0.00562842
0.0751649
0.0817251
0.0719057
-0.260482
0.0735094
0.0717977
0.0684651
-0.283354
0.0638185
0.069581
-0.304995
0.111816
0.0744438
-0.103777
0.128855
0.0452056
0.078712
-0.261525
-0.225583
-0.00965265
-0.257064
-0.0816275
-0.373791
-0.150311
-0.198808
-0.375863
-0.0943045
-0.0977457
-0.412898
-0.275929
-0.0962256
-0.264979
-0.294735
-0.240652
-0.284358
-0.235114
-0.140158
-0.222859
-0.288884
-0.0749576
0.0601918
0.00161673
-0.215719
-0.0658993
-0.412199
-0.195891
-0.282038
-0.401579
-0.156731
-0.231148
-0.239398
-0.380507
-0.216859
-0.0230734
-0.0792981
-0.236416
-0.143947
-0.31524
0.067337
-0.354337
-0.0974127
-0.0346769
-0.31418
-0.302878
-0.357286
-0.404787
-0.361647
0.00775616
-0.216879
-0.292027
-0.337253
-0.399274
0.000461542
-0.139961
-0.223601
-0.373777
-0.108201
-0.367663
-0.345771
0.00288953
-0.183354
-0.228503
-0.136252
-0.205101
0.0433134
-0.0768956
-0.0686034
-0.46933
-0.422341
-0.279091
-0.117168
-0.43539
-0.239049
-0.210166
-0.38977
-0.117976
-0.0418384
-0.27957
-0.241759
-0.392837
-0.321061
-0.323459
-0.106144
-0.319557
-0.25131
-0.271812
0.012077
-0.303278
-0.109285
0.000473502
-0.23408
-0.282527
-0.431153
-0.367963
-0.354546
-0.282517
-0.472127
-0.16557
-0.0704998
-0.0212071
0.0471084
-0.308829
-0.25793
-0.40833
-0.290149
-0.366656
-0.0264229
-0.0642367
-0.137984
-0.359978
-0.435146
-0.132201
-0.0518215
-0.291203
-0.251589
-0.470196
-0.291012
-0.248763
0.0257105
0.0359637
-0.113503
-0.211176
-0.266854
-0.414321
0.0292071
-0.28644
-0.120338
-0.481342
0.00531386
-0.391353
-0.289112
-0.275084
-0.0444935
-0.250825
-0.500498
-0.345891
-0.147748
-0.296112
-0.102059
-0.134742
-0.307178
-0.0381889
-0.337524
-0.328829
-0.0329121
-0.342442
-0.283461
-0.408808
-0.191429
-0.240225
-0.0425199
-0.109614
-0.302593
-0.118763
-0.0991962
-0.0139584
-0.206865
-0.279489
-0.310741
-0.0857658
-0.284245
-0.139875
-0.399833
0.0578666
-0.290035
-0.0308489
0.027363
-0.215041
0.0342088
-0.036538
-0.0163272
-0.351628
-0.482747
-0.415169
-0.00915474
-0.362331
-0.376157
-0.285311
-0.37253
-0.281607
-0.325799
-0.209158
0.0272494
-0.11242
-0.315194
-0.111362
-0.34441
0.0626884
-0.3143
-0.0452762
-0.317294
-0.499868
0.013694
0.0348696
-0.324558
-0.349522
0.0562745
-0.190926
-0.226357
-0.36199
-0.116851
-0.0263932
-0.09876
-0.319492
-0.374822
-0.0715957
-0.204993
-0.397112
-0.117713
-0.287939
-0.392327
-0.269224
-0.0370583
-0.462733
-0.207454
-0.0701296
-0.328864
-0.47652
-0.304843
-0.291028
-0.250209
-0.172568
-0.158007
-0.313199
-0.38531
-0.283515
-0.136562
-0.0993605
-0.293604
-0.150051
-0.329903
-0.362619
-0.18648
-0.31038
-0.489354
-0.0873403
-0.033829
-0.207001
0.0166976
-0.0224188
0.0662367
-0.28733
-0.513406
-0.271344
-0.30641
-0.25235
-0.45627
-0.179505
0.00908874
-0.122414
-0.190332
-0.329056
-0.291557
-0.0765042
-0.22678
-0.126896
-0.340699
-0.266629
-0.321112
-0.298316
-0.324591
-0.313665
-0.298777
-0.396365
-0.152459
-0.211169
-0.301655
-0.143562
-0.264488
-0.280667
-0.370065
-0.302752
-0.335852
-0.349878
-0.198091
-0.44478
-0.513068
-0.252193
-0.420183
-0.456709
-0.190162
-0.316452
-0.453022
-0.0396009
-0.144286
-0.338799
-0.0784502
-0.393284
-0.157472
-0.114083
-0.27949
-0.279835
-0.0577721
-0.26677
-0.0935356
-0.382361
-0.326003
-0.0352791
-0.327205
-0.277484
-0.539004
-0.44385
-0.495474
-0.426885
-0.340667
-0.147349
-0.375223
-0.475892
-0.379586
-0.317426
0.0644515
-0.258422
-0.122318
-0.17486
-0.298435
-0.240343
-0.327385
-0.409884
-0.168402
-0.31572
0.00649379
-0.109588
-0.313004
-0.311733
-0.2144
0.0590648
-0.0855175
-0.0214725
-0.10761
-0.301807
-0.21228
-0.286336
-0.386352
-0.439111
-0.347818
-0.232464
-0.122514
-0.378824
-0.435706
-0.284494
-0.229614
-0.28922
-0.241351
-0.0580633
-0.258211
-0.306672
-0.00181988
-0.0401048
-0.328326
-0.156451
-0.0265809
-0.375616
-0.321269
-0.301808
-0.372551
-0.396842
-0.0291912
-0.392826
-0.256175
-0.00824389
-0.487232
-0.204617
-0.322614
-0.214394
-0.304885
-0.340914
-0.42693
-0.22665
-0.432679
-0.344014
-0.310229
-0.312868
-0.101657
0.00291874
-0.286018
-0.175925
-0.221062
-0.265873
-0.499798
-0.0658083
-0.13981
-0.338775
-0.450588
-0.182686
-0.413237
-0.25398
-0.301933
-0.348969
-0.0534125
-0.00241571
-0.306897
-0.0966134
0.046603
-0.0582901
-0.0457257
-0.0144114
-0.233724
-0.309989
-0.392686
0.0576005
-0.0593724
-0.0319897
-0.36238
-0.323304
-0.48623
-0.0860078
-0.249994
-0.263839
-0.0302684
-0.126475
-0.28017
-0.227852
-0.325476
-0.287225
-0.328961
-0.313259
-0.29904
-0.353404
-0.287294
-0.438257
-0.241592
-0.368546
-0.122961
-0.167327
-0.466116
-0.0211744
-0.00522332
-0.111334
-0.355684
-0.199108
-0.313268
-0.0930625
-0.22407
-0.406896
-0.0273287
-0.347148
0.00946634
-0.459457
-0.284729
-0.239669
-0.112538
-0.0703259
-0.283088
0.0286619
-0.27489
-0.0557601
-0.286449
-0.115277
-0.305244
-0.276126
-0.334477
-0.0485307
-0.230907
0.052489
-0.132596
-0.441134
-0.259535
-0.161016
-0.334687
-0.351037
-0.282043
-0.362692
0.0112165
-0.276996
-0.294696
-0.0839988
-0.360086
0.00568597
0.0441868
-0.310636
0.0529561
0.0187188
-0.0488621
-0.027441
-0.191155
-0.405083
-0.363684
-0.300312
-0.0680934
-0.274515
-0.345838
0.0252602
-0.382886
-0.284443
-0.371133
-0.0154031
0.0630255
-0.385294
-0.058742
-0.166398
0.00182962
-0.219359
-0.102859
-0.298001
0.028136
0.0489367
-0.132949
-0.359382
-0.0687449
-0.257175
-0.154227
-0.229447
-0.248749
-0.168599
-0.245632
-0.347143
-0.389711
-0.240815
-0.151112
-0.191093
-0.0349975
-0.38553
-0.249861
-0.138549
-0.38359
-0.00662184
-0.282963
-0.298521
-0.00632549
-0.0450578
-0.179659
0.036779
-0.300951
-0.329464
-0.0979733
-0.189074
-0.175569
-0.285754
-0.329021
-0.156331
-0.128524
-0.326317
-0.314543
-0.189831
-0.454379
-0.35979
0.00443494
0.0446376
0.0502365
-0.196922
0.0539881
0.0594252
0.017201
-0.511594
-0.175109
-0.175692
0.0367226
-0.338734
-0.277731
-0.411962
-0.360117
-0.366236
0.0251922
-0.26885
-0.255974
-0.0980935
-0.132857
-0.32208
-0.301796
0.0577922
0.0248346
-0.0194461
-0.122688
-0.343328
-0.0959921
-0.152547
-0.340885
-0.226483
-0.431151
-0.376902
-0.201517
-0.257434
-0.296658
0.0068238
0.00541014
-0.495642
-0.0458236
-0.309859
-0.308195
-0.2638
0.00126153
-0.282531
-0.121354
-0.277074
-0.0147076
-0.325062
-0.275826
0.0454096
-0.49001
-0.456755
-0.305775
-0.349588
-0.514669
-0.446064
-0.341937
-0.519189
-0.246915
-0.49107
-0.415613
-0.256713
-0.360094
-0.336692
-0.287422
-0.449853
-0.431977
0.0204082
-0.0311131
-0.318366
-0.415576
-0.0246076
-0.336881
-0.277244
0.0461097
-0.332409
0.042751
-0.264182
-0.0380951
-0.194461
-0.312928
-0.42087
-0.191087
-0.194037
-0.247568
-0.314424
-0.32069
-0.428218
-0.348866
-0.264271
-0.483966
-0.439872
0.0214752
-0.286991
-0.125226
-0.0888605
-0.342203
-0.0483867
-0.0856374
-0.40844
-0.436962
-0.28218
-0.441588
-0.509657
-0.118893
-0.111541
-0.31561
-0.156463
-0.311176
0.0454688
0.0159157
-0.283096
-0.321332
0.0326019
-0.0321197
-0.171033
-0.165096
-0.33036
0.0501438
-0.179699
-0.496232
-0.0124313
-0.0593136
0.0059868
-0.201372
-0.371686
-0.268255
-0.108674
-0.165157
-0.483893
0.0706862
-0.28371
-0.316853
-0.22717
-0.015749
0.0401563
0.0513732
-0.153554
-0.210903
-0.0770082
-0.0286049
0.000386589
-0.127522
-0.067161
-0.294544
-0.300052
-0.172789
-0.389828
-0.297777
-0.462662
-0.287382
-0.0836586
-0.451841
-0.214928
-0.270578
-0.0392691
0.0500518
-0.271511
-0.421295
-0.472805
-0.0686298
-0.351951
-0.356202
-0.480179
0.0042271
-0.196873
-0.185046
-0.417469
-0.1817
-0.357658
-0.317816
-0.0993761
-0.0879845
0.0101792
0.0579522
-0.337189
-0.0227385
-0.497624
-0.0122368
0.0100983
0.00686569
-0.0783688
-0.361729
-0.359712
-0.308449
-0.489136
-0.183124
-0.487446
-0.141431
-0.410248
-0.0278376
-0.337714
-0.477233
-0.0449865
-0.0697806
-0.262566
-0.25984
-0.128884
0.00342283
-0.199148
-0.234309
-0.487531
-0.0600353
-0.152033
0.026971
-0.511288
-0.256001
-0.0103744
-0.111575
0.036367
-0.104956
-0.316126
-0.528603
-0.495723
-0.260674
-0.468696
0.0212028
-0.476647
-0.247064
-0.26108
-0.394533
-0.0491283
-0.514931
-0.00149311
-0.104582
-0.179863
-0.343019
-0.116928
-0.271976
-0.227811
-0.262942
-0.258701
-0.325077
-0.341576
-0.0823057
-0.356665
0.0520356
-0.344624
-0.180446
-0.140817
-0.0817607
0.0216003
-0.322944
-0.28416
-0.332723
-0.215285
-0.353753
0.0178494
-0.358061
-0.224776
-0.336905
-0.0545425
-0.370089
-0.204019
-0.435822
0.0524333
-0.49392
-0.358583
-0.230844
-0.0418993
-0.471372
-0.471721
-0.372939
-0.438612
0.0018751
-0.228507
-0.11706
-0.0384531
-0.136034
-0.156987
0.0515605
-0.171864
-0.0767451
-0.148268
-0.180039
-0.457809
-0.178824
-0.26427
-0.26296
-0.165071
-0.291577
-0.444571
-0.219397
-0.216791
-0.3758
-0.063815
-0.197375
-0.0908208
-0.270882
0.0187821
-0.258049
-0.212584
-0.144173
-0.441189
-0.364463
-0.336372
-0.192787
-0.191746
-0.160092
-0.00548658
-0.0839377
-0.0683293
-0.215389
-0.0220523
0.0259675
0.0227226
-0.141012
-0.193612
-0.168451
-0.393548
0.0364172
-0.0333307
-0.0535188
-0.245788
-0.36198
-0.451177
-0.170293
-0.114048
-0.300426
-0.0545173
-0.0294119
-0.167253
-0.293129
-0.155834
-0.277137
-0.276068
-0.242113
-0.276235
-0.183819
-0.483087
-0.181465
-0.203392
-0.282372
-0.507056
-0.190039
-0.229814
-0.129498
-0.313664
-0.195669
-0.00307503
0.0101002
-0.178731
-0.263102
-0.0653296
-0.222759
-0.358632
-0.374445
-0.293759
-0.44391
-0.00605886
-0.236588
-0.206688
-0.105677
-0.123838
-0.122493
-0.294461
0.0490092
-0.122979
-0.375126
-0.240315
-0.236734
-0.0662156
-0.010581
-0.12016
-0.172704
-0.463291
-0.387727
-0.278945
-0.170729
-0.227476
-0.176546
-0.36512
0.00497428
-0.156057
-0.049771
-0.0270718
-0.200224
-0.310113
-0.186488
0.03541
-0.346611
-0.477668
-0.187525
0.0430076
-0.326962
-0.292514
-0.0789195
-0.115209
-0.0492282
-0.251199
-0.467117
-0.172327
-0.449262
-0.320524
-0.0501245
-0.260111
-0.387685
-0.310182
-0.334223
-0.15609
-0.278591
-0.280089
-0.0161845
-0.3802
0.0523515
-0.0523805
-0.409926
-0.52459
-0.226999
-0.0978662
-0.030869
-0.251861
-0.278401
-0.271395
-0.304708
-0.242703
0.0591942
-0.0120487
-0.107452
-0.249977
-0.446001
0.00782802
0.0531137
0.00516695
-0.0679812
-0.0130357
-0.195284
-0.443763
-0.492972
-0.477652
0.0206265
-0.232052
-0.268692
-0.249985
0.0507814
-0.328176
-0.293536
-0.429859
-0.250249
-0.378304
0.0504477
-0.168873
-0.0943561
-0.0156762
-0.0328488
-0.293899
-0.14772
-0.209042
-0.0936102
-0.357368
-0.161503
-0.337754
0.0150629
-0.304762
-0.355525
-0.268422
-0.291401
-0.00523555
-0.3322
-0.0523176
-0.0238149
-0.0140837
-0.411948
-0.216266
-0.280177
-0.271901
0.00498549
-0.205319
-0.167124
-0.174719
-0.365334
-0.246291
0.0152572
-0.141238
0.00798082
-0.486725
-0.363521
-0.321759
0.0236587
-0.253004
-0.22808
-0.413444
-0.289098
-0.237686
0.0235848
-0.216554
-0.272548
-0.427221
0.0473438
0.039906
-0.367932
0.0138558
-0.330608
-0.410483
-0.356357
-0.232581
-0.464454
-0.135588
-0.262334
-0.340626
-0.281663
-0.00304189
-0.247431
-0.0546999
-0.254262
-0.371528
-0.272887
-0.487943
-0.464554
-0.264308
-0.223214
-0.163168
-0.389299
-0.264496
-0.0226939
-0.153617
-0.341743
-0.319753
-0.0082882
-0.244103
-0.235397
0.0610879
-0.182544
-0.348846
-0.230296
-0.275439
0.0323598
-0.275697
-0.258346
-0.159522
-0.460196
-0.00293157
-0.294677
-0.0187622
-0.215843
-0.0887802
-0.408185
-0.0500448
-0.272206
-0.413596
-0.37283
-0.215565
-0.00900916
-0.535541
-0.30272
-0.323966
0.0221474
0.0479629
-0.276777
-0.335151
-0.138598
0.0334015
-0.251116
-0.000275562
-0.0304221
-0.0566712
-0.0864697
-0.193633
-0.0955294
-0.103672
0.00971636
-0.22485
-0.200437
-0.277127
-0.284172
-0.216098
-0.344414
0.0311614
-0.288999
0.000129158
-0.236422
0.0228315
-0.363681
0.0413696
-0.092427
-0.00925078
0.0246824
-0.00447974
0.058154
-0.298887
-0.0202705
-0.206984
-0.328888
-0.304342
-0.386407
0.00770342
-0.288075
-0.164357
-0.155936
-0.28079
-0.151815
-0.37007
0.013465
-0.221254
-0.0671559
-0.502362
-0.330458
-0.322127
0.0554114
-0.268243
-0.135498
-0.281583
-0.317697
-0.392089
-0.274337
-0.340885
-0.060474
0.0146501
-0.435158
-0.172564
-0.320673
-0.35591
-0.0456793
-0.281166
-0.283488
0.0285091
-0.469857
-0.170748
-0.111709
-0.0115034
0.0473932
-0.27844
-0.324738
-0.431944
-0.269019
-0.273385
-0.322506
-0.0632236
-0.33114
-0.41392
-0.275861
-0.214031
-0.29336
-0.263747
-0.326718
-0.221302
-0.426088
-0.0741556
-0.0894869
-0.255251
-0.0713275
-0.30524
-0.468603
-0.270519
-0.491045
0.0351048
-0.317561
-0.33616
-0.36476
-0.0265192
0.00854937
-0.203035
-0.0754513
-0.265536
-0.385387
-0.198607
-0.330403
-0.306213
0.00708083
-0.166418
-0.0973088
0.035677
-0.0649765
-0.193885
0.0259008
-0.436505
-0.199121
-0.20484
-0.158464
-0.211142
0.0200715
-0.334403
-0.163847
-0.246258
-0.286405
-0.348673
-0.317716
-0.090862
-0.0422493
-0.0184849
-0.200981
-0.193026
0.0218009
-0.0461238
-0.267283
-0.159498
-0.412045
-0.300231
-0.0574399
-0.440165
-0.0290204
-0.336926
-0.0164296
0.0503929
0.0130839
-0.348885
-0.0115636
-0.0306839
-0.321123
0.0202591
-0.246205
0.0198334
-0.0630408
-0.318701
-0.422815
-0.152214
-0.295427
-0.211885
-0.271491
-0.0357549
-0.252755
0.0257118
-0.370843
-0.288467
-0.272991
-0.364669
-0.337136
-0.0418537
0.0433044
-0.376906
-0.0578055
-0.226352
-0.163263
-0.250682
-0.135887
0.00107794
-0.0560792
-0.331701
-0.00766321
-0.0449383
0.042589
-0.37032
-0.347422
-0.2785
-0.0789577
0.0313498
-0.0385854
-0.255669
0.0405068
-0.224886
-0.424681
-0.422243
-0.530647
-0.211197
-0.406518
0.0398428
0.0531342
-0.193756
0.0572731
-0.0528965
-0.207374
0.035843
-0.414737
0.0196252
-0.301393
0.00797236
-0.28834
-0.356681
-0.0819165
-0.197068
0.0194286
-0.0016758
0.00397209
-0.329193
-0.328388
-0.44923
-0.0188308
-0.0595227
-0.276519
-0.188402
-0.0575204
-0.492735
-0.340766
-0.342509
-0.30967
-0.170956
-0.31654
-0.204363
-0.0631517
-0.217924
-0.198524
-0.0846051
-0.304044
-0.256242
-0.170953
-0.216677
-0.304747
-0.0207776
0.0144646
-0.276648
-0.0622245
-0.503796
-0.334794
-0.0155396
-0.0756329
-0.336496
0.00941879
-0.399509
-0.0902402
-0.251319
-0.227426
-0.0106125
-0.285246
-0.0769916
-0.0718609
-0.120581
0.0607225
-0.115269
-0.435258
-0.1535
-0.20327
-0.0755485
0.0567556
-0.120059
-0.219003
-0.306105
-0.224185
-0.00871923
-0.397324
-0.0219907
-0.317838
-0.149177
-0.0651667
-0.0878928
-0.231107
-0.0149752
0.0393289
-0.260947
-0.297019
-0.203471
-0.338379
-0.429239
-0.19907
-0.0729031
-0.389235
-0.435737
-0.266613
-0.417924
-0.0943313
-0.223319
-0.07066
-0.293564
0.00602084
-0.219076
-0.0331529
0.0409881
-0.363083
-0.00294863
-0.251222
-0.201323
-0.183331
-0.0153487
-0.284594
-0.2648
-0.178387
-0.351448
-0.291232
-0.367216
-0.393466
-0.502012
0.034962
0.0478157
-0.402084
-0.282614
-0.0814891
-0.445538
-0.278322
-0.321131
-0.108526
-0.0894724
-0.462174
-0.509426
-0.00240663
-0.27696
-0.16284
-0.282967
-0.43749
-0.420862
-0.13612
-0.032864
-0.159088
-0.467166
0.00860287
-0.0353221
-0.347702
-0.170493
-0.33198
0.0402432
-0.309658
-0.240783
-0.404929
-0.127281
0.0167759
-0.157996
-0.137601
-0.315374
-0.218021
-0.150953
0.0357649
0.056297
-0.286886
0.0421798
-0.307725
-0.189294
-0.189551
-0.267259
-0.305112
-0.0184234
-0.209367
-0.18408
-0.316018
-0.369913
-0.207879
-0.353795
-0.114087
0.00829844
-0.350259
-0.316924
-0.197714
-0.29933
-0.253372
-0.487456
-0.276998
-0.00884817
-0.334062
-0.340792
-0.0780642
-0.199242
-0.247764
-0.133505
-0.0378124
-0.279038
-0.266165
-0.0430294
-0.268044
-0.28273
-0.206848
-0.0166661
-0.136835
-0.18615
-0.276077
-0.383098
-0.294152
0.038378
-0.0378739
0.0478128
-0.251136
-0.115572
-0.389352
-0.228551
-0.0315683
-0.437192
-0.44703
-0.0883081
-0.0327476
-0.448441
-0.285968
-0.26914
-0.280967
-0.274025
0.0550246
-0.236856
-0.288085
-0.137052
-0.304998
-0.0878887
-0.13021
-0.404403
-0.269434
-0.0625699
-0.225084
0.0405762
-0.428845
-0.342766
-0.120918
-0.154508
-0.26332
-0.166552
-0.346033
0.0459822
0.0226209
-0.118383
-0.0123233
-0.358631
-0.0227053
-0.13386
-0.111179
0.027383
-0.4429
-0.300328
0.0538323
-0.130092
-0.462305
-0.335532
-0.0293226
0.0489627
-0.232421
-0.0804534
-0.277432
-0.415856
-0.325027
-0.454766
-0.0316949
-0.328869
-0.220954
0.0228881
-0.376195
-0.275446
-0.303608
-0.188106
-0.276113
-0.340314
-0.308075
-0.40176
-0.216294
-0.0570999
0.022811
-0.0884108
-0.246589
-0.310057
-0.46956
-0.335886
-0.153054
-0.168773
-0.0932499
-0.0793068
-0.310107
-0.249858
-0.0444238
-0.0289225
0.0503166
-0.0122634
0.0309901
-0.229037
-0.41214
-0.336691
-0.371975
0.036644
-0.2
-0.312056
0.0254509
-0.406551
-0.0558049
-0.0908968
-0.276653
-0.274256
-0.298753
-0.369187
-0.0323351
-0.293129
-0.107262
-0.237184
0.018038
-0.177095
0.0609086
-0.357923
-0.236321
-0.354983
-0.509451
-0.290265
-0.0682431
-0.289424
-0.381423
-0.186158
0.0164434
-0.0743396
-0.357238
-0.407325
-0.319674
-0.418348
-0.273123
-0.43393
-0.270347
-0.37518
-0.0866903
-0.405588
-0.28366
0.0104717
-0.202927
-0.0905834
-0.0409275
-0.274445
-0.219903
-0.331265
-0.0522252
-0.291768
-0.258396
-0.233947
-0.39056
-0.443255
-0.291174
-0.249864
-0.0790707
0.0487655
-0.0228654
-0.18634
-0.102034
-0.447903
0.0425042
-0.15852
-0.0662257
-0.262394
-0.0931649
-0.33364
-0.29054
-0.055124
0.0167605
-0.0698385
-0.180146
-0.322935
0.0558506
-0.2499
-0.0429754
0.0344829
-0.118973
-0.269226
-0.448814
-0.0472522
-0.148876
-0.392033
-0.134489
-0.1663
0.0127881
-0.326844
0.024381
0.0519897
-0.277124
-0.353808
0.0312173
-0.396471
-0.381876
-0.28351
-0.375928
-0.281211
-0.372102
-0.423194
-0.241791
-0.274358
-0.323278
-0.335874
-0.170923
-0.364898
-0.349745
-0.14082
-0.221591
-0.450923
0.00797446
0.0465345
0.0321183
-0.288379
-0.468544
0.0666192
-0.408049
-0.247608
-0.272142
-0.326042
-0.25872
-0.0902814
-0.324107
-0.344247
-0.437297
-0.434704
-0.396346
-0.336516
-0.477442
-0.236308
-0.195936
-0.247606
0.0199955
-0.197451
-0.112684
-0.240475
-0.0398406
-0.315043
-0.322645
0.0611347
-0.261023
-0.152533
-0.408344
-0.118998
0.0465504
-0.283188
-0.139577
-0.156165
-0.334036
-0.286788
-0.384014
-0.356072
-0.0830891
-0.376125
-0.257691
-0.343044
-0.275225
-0.320727
-0.380256
-0.244731
-0.298563
-0.36259
0.0456372
-0.24806
-0.253867
-0.182255
0.0136911
-0.315302
-0.43035
-0.0525067
-0.393721
-0.288343
-0.272499
-0.195654
-0.341078
-0.206127
-0.188708
0.0440607
-0.0240416
-0.418107
-0.355375
-0.445135
-0.27472
-0.463658
-0.351306
-0.264449
-0.349793
-0.261113
-0.146288
0.0566307
-0.307817
-0.0972209
-0.203851
0.0374609
-0.340926
0.0473563
-0.154178
-0.40772
-0.145299
-0.0874671
-0.323412
-0.0232311
-0.271757
-0.0162664
-0.346269
-0.379437
-0.2532
0.0558384
0.0427992
-0.0809355
-0.135933
-0.0997615
-0.467342
-0.352651
-0.0896354
0.0619907
-0.359926
-0.212936
-0.266336
-0.31898
-0.272007
-0.312965
-0.377914
-0.323495
-0.369852
-0.281237
-0.305957
-0.260207
0.0587761
-0.0343855
-0.471353
-0.063608
-0.334839
-0.398345
-0.052417
-0.369806
-0.290885
-0.107776
-0.33625
-0.338629
-0.236372
-0.0251775
-0.387364
-0.34054
-0.306787
-0.151336
-0.370716
0.0151659
-0.45909
-0.337672
-0.304315
-0.358656
-0.129315
-0.148824
0.0156422
-0.281157
-0.0671801
-0.192081
-0.155757
-0.294448
-0.124986
-0.390784
-0.382975
-0.503127
-0.14392
-0.254344
-0.306137
-0.0038144
-0.225559
-0.135582
-0.132027
-0.339117
-0.367334
-0.317347
-0.157655
-0.284232
0.0549641
-0.409845
-0.463054
-0.267879
-0.342401
-0.284827
-0.261088
-0.0898673
-0.293438
-0.24336
-0.386931
-0.267668
-0.24663
-0.299877
0.0516239
0.0358618
-0.373649
-0.324449
-0.034785
-0.171723
-0.313106
-0.400989
-0.292009
-0.401924
-0.197749
0.00514265
-0.311589
-0.458458
-0.148275
-0.241674
-0.456243
-0.382429
-0.235037
-0.105548
0.0551831
-0.394676
-0.436127
-0.17607
-0.032204
-0.290362
-0.184137
-0.310213
-0.276321
-0.32543
-0.150818
-0.25864
-0.281081
-0.0581728
-0.30728
-0.470778
-0.205703
-0.291492
-0.0548512
0.0603186
-0.278997
-0.337995
-0.325448
-0.330468
-0.387051
-0.332074
-0.400677
0.0244456
-0.0448939
-0.106939
-0.260779
-0.445456
-0.068504
0.0416439
-0.358115
-0.21173
-0.342122
-0.505143
-0.227211
-0.329866
-0.513696
-0.237956
-0.100103
-0.441789
-0.453677
-0.371109
-0.0251251
-0.451925
-0.0543832
-0.197618
-0.310716