/*--------------------------------*- C++ -*----------------------------------*\
  =========                 |
  \\      /  F ield         | OpenFOAM: The Open Source CFD Toolbox
   \\    /   O peration     | Website:  https://openfoam.org
    \\  /    A nd           | Version:  6
     \\/     M anipulation  |
\*---------------------------------------------------------------------------*/
FoamFile
{
    version     2.0;
    format      ascii;
    class       volVectorField;
    location    "0";
    object      U;
}
// * * * * * * * * * * * * * * * * * * * * * * * * * * * * * * * * * * * * * //

dimensions      [0 1 -1 0 0 0 0];

internalField   nonuniform List<vector> 
918
(
(0.92516 -0.0707021 0)
(-0.00717745 2.96892 0)
(-0.200168 1.75302 0)
(0.854071 0.111452 0)
(-0.0492633 1.69432 -1.21531e-21)
(0.00144506 2.95118 -5.38371e-19)
(1.2174 1.64787 4.0612e-19)
(0.529869 0.301561 -8.06069e-21)
(0.951542 -0.0128539 0)
(0.0496225 1.76458 0)
(0.0327429 1.71779 0)
(0.923563 0.0257243 0)
(0.00856597 2.93898 0)
(0.0122916 2.84681 0)
(-0.0913319 2.80688 6.36672e-19)
(-0.0248545 1.69653 -1.73328e-20)
(0.70741 0.15118 7.39913e-19)
(0.273105 2.03358 4.33961e-19)
(0.985592 0.0945893 0)
(0.0526608 1.71036 0)
(0.766877 0.301109 -5.84256e-20)
(0.824198 -0.00564442 0)
(0.845747 0.00320136 0)
(1.02581 0.0658178 0)
(0.840311 0.0690884 0)
(0.0193085 2.80932 0)
(-0.0646505 2.90393 9.2843e-20)
(-0.0401376 1.75332 0)
(-0.0572209 1.69923 0)
(-0.10578 1.74996 0)
(0.0131204 1.77874 0)
(-0.0555911 1.69892 9.60353e-22)
(-0.0332001 1.68133 0)
(-0.0125791 2.98398 -1.53696e-23)
(-0.0187443 3.00677 4.25512e-19)
(1.93331e-06 2.99859 0)
(0.97641 -0.00239942 0)
(0.786601 1.01041 1.40654e-19)
(1.15025 1.66381 -4.63162e-19)
(1.2918 1.42144 4.32515e-19)
(0.989403 1.82639 -1.02731e-19)
(1.04219 1.84683 6.36516e-19)
(0.568457 0.308509 7.86295e-21)
(0.554858 0.29023 0)
(1.35766 0.79205 0)
(0.538879 0.332995 2.98123e-20)
(0.473461 0.322752 -3.09475e-20)
(0.98144 -0.00082166 0)
(0.927471 0.00750598 0)
(0.954295 0.00827077 0)
(0.844844 -0.0863457 0)
(0.907954 0.0358231 0)
(0.970287 0.0275939 0)
(-0.0536705 1.56271 -3.93769e-19)
(0.000374547 1.83193 0)
(0.0130037 1.82051 0)
(0.0169785 1.77303 0)
(-0.00570962 1.76897 0)
(-0.0592334 1.68653 0)
(0.0199381 1.75846 0)
(-3.92853e-06 1.73014 0)
(0.0166802 1.74924 0)
(0.0160516 1.70854 0)
(0.976918 -0.0268014 0)
(0.963942 0.0293603 0)
(0.946728 -0.00156395 0)
(0.941312 -0.00137529 0)
(0.939679 -0.00523591 0)
(0.0273409 2.99332 2.05363e-19)
(0.0176227 3.0214 0)
(0.0190492 2.99974 0)
(0.0138168 2.98037 2.17279e-24)
(0.00671339 2.94286 -3.0804e-19)
(-0.0400043 3.00836 0)
(-0.0941427 2.98061 0)
(0.0102266 2.95103 4.21748e-27)
(0.019197 2.84996 0)
(0.00413462 2.94816 0)
(0.00701892 2.8307 0)
(0.0947069 2.96659 0)
(-0.118684 3.00824 0)
(0.0135927 2.89721 -5.88846e-19)
(-0.0847044 2.80556 0)
(-0.0222686 1.74446 0)
(-0.0040915 1.74208 1.70975e-20)
(0.0273729 1.68506 -2.33925e-20)
(0.741875 0.176589 -2.59653e-19)
(0.734617 0.149399 -2.53847e-19)
(0.712812 0.230334 -7.5871e-19)
(0.662152 0.203711 -4.88422e-19)
(0.209572 1.36111 0)
(0.354006 2.09168 -4.43234e-19)
(0.486044 2.0708 7.61637e-19)
(0.964832 0.0247877 0)
(0.957863 -0.00869348 0)
(0.94991 -0.0248466 0)
(0.928318 -0.00604878 0)
(1.04091 0.12893 -2.17728e-18)
(1.06346 0.119599 1.62591e-18)
(0.0136305 1.76565 0)
(-0.000170909 1.71579 0)
(0.00404014 1.74736 0)
(0.027506 1.72582 0)
(-0.012055 1.72088 0)
(0.567744 0.304057 2.48599e-20)
(0.500147 0.423251 0)
(1.05384 0.0215991 0)
(1.0022 0.000358301 0)
(0.945074 0.00853626 0)
(0.900907 0.0572995 0)
(0.908601 0.019461 0)
(1.12537 -0.0399609 0)
(0.843962 0.0603793 0)
(0.819112 0.038221 1.14537e-18)
(0.0474852 2.84877 -1.52231e-19)
(0.0291296 2.96332 0)
(0.0624782 2.9196 0)
(0.067158 2.80752 0)
(-0.0554374 2.96041 1.58638e-20)
(-0.0291464 2.8303 0)
(-0.0950639 2.94618 -2.42967e-19)
(-0.110048 2.86056 1.4396e-19)
(0.0384798 1.74477 0)
(0.00095265 1.752 0)
(-0.0268716 1.72225 -7.52723e-22)
(-0.0230441 1.73529 0)
(0.0174276 1.69693 0)
(1.00291 0.0102627 0)
(0.988584 -0.0104121 0)
(0.959736 -0.0172464 0)
(0.998531 0.0124441 0)
(0.97558 0.0163831 0)
(0.832087 1.06798 -1.80197e-19)
(0.69393 0.950684 0)
(0.833675 1.2124 2.54001e-20)
(0.723531 1.10786 0)
(1.20934 1.40548 -1.1621e-19)
(1.37045 1.16261 1.93477e-19)
(0.598356 2.08729 0)
(0.782146 2.02598 0)
(0.804271 2.00348 0)
(0.517012 1.21564 -2.38988e-19)
(0.599189 0.314642 0)
(0.594723 0.248625 1.25482e-19)
(1.21934 1.15793 0)
(1.28859 0.906421 0)
(1.36346 0.955526 -1.06269e-19)
(1.30072 0.736734 0)
(1.36989 0.523362 3.75919e-20)
(0.984707 0.0182201 0)
(1.00897 -0.0209842 0)
(0.969649 -0.0262573 0)
(0.996655 0.00752425 0)
(0.997685 0.000447277 0)
(0.971746 0.00584866 0)
(0.894283 -0.0213051 0)
(0.91094 -0.00951037 0)
(0.96239 0.00888169 0)
(-0.0160512 1.6728 1.97857e-19)
(0.0663763 1.59509 0)
(-0.00119872 1.62855 3.66871e-19)
(0.0243884 1.6319 -3.02066e-19)
(0.175555 1.98935 -3.64303e-19)
(0.00743883 1.88889 0)
(0.0711564 1.90948 0)
(-0.0222138 1.78998 0)
(-0.0156487 1.77027 0)
(-0.0115855 1.76725 -9.62815e-22)
(0.0393538 1.70096 0)
(-0.0209079 1.72292 -7.13251e-20)
(0.0700902 1.71604 1.13311e-19)
(0.0126675 1.78178 0)
(0.0178473 1.74631 0)
(0.0187236 1.70636 0)
(0.00207223 1.73764 0)
(-0.00461914 1.71723 0)
(1.02153 0.0276638 0)
(1.01884 0.0267034 0)
(1.02939 -0.0143605 0)
(0.994997 0.0192863 0)
(0.96839 -0.00929276 0)
(0.983048 0.00132234 0)
(0.96271 0.0154516 0)
(0.945273 -4.31556e-05 0)
(0.0981805 3.00367 -1.14121e-21)
(0.0898031 3.02931 0)
(-0.0525014 3.04702 0)
(-0.044987 3.00812 0)
(0.60943 3.13568 0)
(0.85262 2.57999 4.47258e-19)
(-0.00693869 2.90429 0)
(-0.0626654 2.84929 0)
(-0.00883307 1.7519 0)
(-0.000696462 1.71601 0)
(-0.00515803 1.73826 0)
(0.0085362 1.79573 -2.40945e-20)
(-0.0537063 1.77273 0)
(0.0288633 1.76937 0)
(0.0178249 1.69995 1.41934e-20)
(0.032504 1.73789 3.33572e-20)
(0.00416924 1.7383 2.38107e-20)
(0.0290827 1.71526 0)
(0.769401 0.148993 4.03038e-19)
(0.749039 0.0723276 -3.90793e-19)
(0.187914 1.39335 0)
(0.230403 1.31119 -1.48362e-19)
(0.159202 1.48266 -4.2515e-19)
(0.140249 1.44426 4.23963e-19)
(0.986648 -0.0125251 0)
(0.986396 -0.014364 0)
(0.993275 -0.00739647 0)
(0.951825 0.0148738 0)
(-0.0110725 1.76041 0)
(0.0149439 1.76509 0)
(-0.0112948 1.75726 0)
(0.512242 0.327685 2.26198e-19)
(0.540214 0.32888 -1.66301e-19)
(0.466773 0.344097 0)
(1.19617 0.104003 2.87917e-20)
(1.23082 0.061926 0)
(1.14597 0.0469148 0)
(1.06969 0.0197071 0)
(0.790427 0.104697 0)
(0.828692 0.0438008 -1.8435e-18)
(0.771107 0.0359956 6.96647e-19)
(0.0659156 2.93812 -6.73177e-20)
(0.0505243 2.83899 2.95738e-20)
(0.0789557 3.03557 -2.34623e-21)
(0.028589 3.01446 1.32367e-19)
(-0.0485852 3.00553 4.0252e-21)
(-0.0566548 2.94832 -1.65564e-23)
(-0.0277166 3.02244 -8.67775e-20)
(-0.00589059 3.01539 6.28355e-20)
(-0.00284561 3.00335 -1.36638e-19)
(1.01583 0.0213018 0)
(1.0018 0.0274231 0)
(0.986833 0.0284667 0)
(0.995686 -0.0176659 0)
(0.983732 -0.0101657 0)
(0.965811 -0.00550384 0)
(0.977233 -0.00359963 0)
(0.996052 0.014769 0)
(0.959416 0.0173202 0)
(0.781368 1.11727 -1.42352e-20)
(0.561295 1.18159 0)
(0.684936 1.19683 6.85439e-20)
(0.689544 1.29362 5.05448e-19)
(0.740119 1.26083 -2.98565e-19)
(0.723203 1.1526 5.66511e-19)
(0.480129 1.296 1.13064e-18)
(0.511897 1.23998 2.17745e-19)
(0.676501 0.241218 5.16199e-19)
(0.652723 0.272195 1.26813e-19)
(0.652388 0.236326 2.43087e-19)
(1.28716 0.510101 -3.24911e-20)
(1.32898 0.367129 -6.64708e-20)
(0.0185184 1.69565 1.33951e-19)
(0.0222399 1.68028 0)
(1.07366 0.0375304 0)
(1.07004 0.00503104 0)
(1.02079 -0.0219955 0)
(0.0952448 3.05 0)
(0.0450047 3.0119 3.22868e-20)
(0.00573087 3.05616 0)
(0.0181303 2.95611 -3.03884e-20)
(0.0839976 3.10388 1.52499e-21)
(0.0968881 3.05732 0)
(0.600537 1.36487 -7.31455e-20)
(0.887031 1.93949 2.28479e-19)
(0.532685 1.48152 -5.83279e-19)
(0.0156448 2.96406 1.31282e-19)
(-0.0198349 2.95398 0)
(-0.024915 2.86215 0)
(-0.00109752 1.7931 1.19469e-21)
(-0.0235222 1.7003 -1.05893e-19)
(-0.0740429 1.69944 1.54293e-20)
(0.246455 1.4054 4.51475e-19)
(0.325425 1.33447 -3.05566e-19)
(0.0378526 1.62533 2.92467e-19)
(0.0759089 1.54891 -3.60441e-19)
(0.0757124 1.5422 4.5808e-20)
(0.00713219 3.11744 7.11366e-20)
(0.0223499 3.12674 -7.41837e-20)
(-0.0286149 2.93388 3.43147e-21)
(0.0251379 2.92803 3.88264e-20)
(0.026988 2.81604 -3.49681e-21)
(0.0350368 3.12264 4.53447e-20)
(0.0301639 3.13308 -4.94247e-20)
(0.551575 1.3151 0)
(0.638495 1.31413 -1.13007e-18)
(0.61165 1.20867 5.0633e-19)
(0.453528 1.34745 6.24331e-19)
(0.444367 1.28929 -9.72846e-19)
(1.28591 0.148864 7.52825e-20)
(1.28294 0.351679 0)
(1.30707 0.158318 -4.84317e-20)
(0.00523334 1.70902 -1.4425e-21)
(-0.00793163 1.714 0)
(-0.0186948 1.6616 0)
(0.317871 1.38536 -1.59445e-19)
(0.364087 1.35131 -3.96282e-19)
(0.381839 1.30758 7.2221e-19)
(1.04436 -0.0912169 0)
(1.05545 -0.11706 4.14654e-19)
(0.0237737 1.76388 0)
(-0.00423042 1.76417 0)
(0.987263 -0.0199878 2.1032e-20)
(0.958142 -0.0546968 8.61908e-19)
(-0.00870876 1.79888 3.17498e-20)
(0.0341387 1.79526 0)
(-0.0108077 3.05669 -2.92245e-19)
(0.0926499 3.03045 0)
(1.12122 0.660263 -9.79965e-20)
(1.0342 -0.0139186 -1.26533e-20)
(1.04438 0.0373089 0)
(1.0175 -0.00490547 -7.30969e-21)
(0.0894967 1.87406 0)
(0.0618181 1.72723 0)
(-0.0410245 1.78079 0)
(0.0582619 1.76296 8.1564e-20)
(-0.0108196 1.79352 2.62178e-20)
(0.996042 -0.0102742 3.92292e-21)
(1.09639 0.051348 0)
(1.09265 0.042253 0)
(0.0117345 1.74619 0)
(0.0303797 1.7819 0)
(-0.0431619 1.78793 0)
(0.217687 1.97302 -1.5793e-19)
(0.970736 -0.0673655 0)
(0.978614 -0.0562759 0)
(1.01396 0.0352005 5.47937e-19)
(1.0418 0.00459911 -6.36082e-19)
(1.02443 0.00436175 0)
(-0.0202923 1.72902 0)
(0.0312038 1.75189 0)
(-0.0036659 1.72497 0)
(-0.0321174 1.7966 0)
(-0.00713389 1.77429 0)
(-0.00880088 1.77687 0)
(1.02681 0.00895822 0)
(1.03111 -0.0219947 -6.45125e-21)
(0.81898 1.71781 2.27818e-19)
(1.03585 -0.0411042 -5.38454e-19)
(1.05702 0.0518756 6.784e-19)
(1.04299 0.0229373 0)
(1.00421 -0.00339507 5.34988e-19)
(0.982811 -0.0166107 -6.82618e-19)
(1.00111 0.00587807 0)
(0.0253265 1.79589 0)
(0.00701329 1.75354 2.83303e-20)
(0.00318968 1.76458 -2.19379e-20)
(1.22117 0.326527 5.61532e-19)
(1.13855 0.0871719 0)
(0.0128178 3.15073 1.91393e-19)
(0.00978428 2.93181 4.42747e-21)
(-0.0415115 3.17527 -5.88385e-19)
(-0.0240407 3.10054 1.59829e-19)
(-0.0164837 3.01423 0)
(-0.00393697 3.08699 -7.8395e-20)
(-0.0322173 3.1317 -1.77088e-19)
(0.00725237 3.09927 1.47569e-19)
(-0.0157788 3.0943 0)
(0.680146 0.303582 0)
(0.56043 0.379552 0)
(1.08371 0.746986 2.55417e-19)
(1.14983 0.895096 -2.86196e-19)
(1.11087 0.632511 0)
(1.15379 0.615847 0)
(1.05072 0.0113993 -1.00915e-18)
(1.01941 -0.00505618 1.2802e-18)
(1.06091 0.0117767 0)
(1.01228 -0.0484129 0)
(0.946754 0.0427853 0)
(1.0115 -0.0182882 0)
(1.02263 -0.0185388 0)
(1.02473 -0.0512885 0)
(1.03741 -0.0335332 0)
(1.01785 0.0318694 0)
(0.0632649 1.88344 0)
(0.01607 1.86681 0)
(0.105957 1.86972 0)
(0.130024 1.90948 0)
(0.0392312 1.62008 0)
(0.0611009 1.6628 -2.01354e-19)
(0.09555 1.73477 0)
(0.0938179 1.72465 1.23656e-19)
(0.0184854 1.73839 -1.08471e-19)
(-0.0376719 1.79606 0)
(-0.00127281 1.783 0)
(-0.0306615 1.78427 0)
(-0.0440068 1.79839 0)
(-0.0195746 1.72363 -2.67454e-21)
(-0.0039212 1.70806 6.86344e-20)
(0.0572096 1.81424 -2.45195e-21)
(0.0405517 1.79089 0)
(-0.000274276 1.80055 -5.91594e-20)
(0.00819401 1.77678 -9.90562e-20)
(-0.0210355 1.76435 -2.7912e-21)
(0.0210557 1.66958 -8.6801e-20)
(0.0845472 1.794 2.98779e-21)
(0.991841 -0.0232799 9.17588e-19)
(1.00554 -0.0507601 -1.18982e-18)
(1.0009 0.00593851 -9.57431e-19)
(0.944842 -0.00563663 1.25254e-18)
(1.03454 -0.00994117 0)
(1.03566 0.00644753 0)
(1.00064 0.0152962 0)
(1.09053 0.0437289 0)
(1.04775 0.0142709 0)
(1.04286 0.0533716 0)
(1.09524 0.0396334 0)
(1.07971 0.0325699 0)
(-0.0910516 1.75159 -1.27099e-21)
(0.0756281 1.73449 0)
(-0.0433336 1.74089 0)
(-0.0225481 1.76192 1.69993e-20)
(-0.0268852 1.78983 -5.65947e-22)
(0.00716875 1.78796 -4.43909e-20)
(-0.0234334 1.7793 4.55097e-20)
(-0.00713171 1.77911 0)
(-0.0287681 1.78093 0)
(0.00204838 1.78138 0)
(-0.0283368 1.78047 0)
(-0.00114863 1.7834 0)
(0.426811 1.92089 2.26847e-19)
(0.416254 2.01572 1.15572e-19)
(0.226379 1.48049 -1.11285e-19)
(0.217492 1.53062 2.76523e-19)
(0.352026 1.66553 5.48929e-20)
(1.00079 0.00762107 0)
(0.994936 -0.00427637 0)
(1.01715 0.0430405 0)
(1.00686 -0.0353961 0)
(0.995505 -0.0254124 0)
(0.924559 0.0208912 0)
(0.969736 0.115132 0)
(1.05665 0.104838 0)
(1.00275 -0.0300213 9.73112e-19)
(1.01531 -0.0158378 -1.24612e-18)
(1.03316 -0.0110387 -9.4288e-19)
(1.00471 0.0103264 1.23315e-18)
(0.800175 1.7381 0)
(0.758332 1.74729 1.64025e-19)
(0.866414 1.52212 3.75209e-20)
(0.907788 1.56254 -4.99847e-20)
(0.962402 1.59351 5.76233e-19)
(0.873059 0.110409 4.32916e-19)
(1.14028 0.110755 0)
(1.12063 0.196492 -4.71628e-19)
(1.13174 0.115237 -2.04936e-20)
(0.954342 0.177955 0)
(-0.0826839 3.18014 -3.85486e-19)
(0.0319864 3.11223 4.5685e-19)
(0.0874675 2.73603 -1.37387e-19)
(0.455291 0.690918 2.08893e-19)
(0.0204383 3.02043 -2.91562e-19)
(-0.0376173 3.04705 0)
(0.0464045 2.98256 3.67488e-19)
(-0.119438 3.05403 9.45479e-19)
(-0.108857 3.07411 0)
(-0.00576671 3.11163 -5.4273e-21)
(0.00674261 3.12086 3.37218e-20)
(-0.011944 3.09886 -4.58747e-20)
(-0.0057394 3.08623 0)
(0.010247 3.11393 0)
(0.944246 1.80369 0)
(0.0455443 0.986947 -3.62949e-19)
(1.06392 1.19981 6.64357e-20)
(0.925742 1.34596 0)
(0.787953 1.15226 -1.37261e-19)
(0.998703 1.11701 2.34587e-20)
(0.513324 0.15108 1.53482e-19)
(0.66172 0.305855 -6.11799e-21)
(0.649659 0.32138 2.66756e-19)
(0.557038 0.382414 1.20779e-20)
(0.517864 0.366336 -4.3455e-19)
(0.670468 0.347832 0)
(0.652283 0.395499 3.78873e-19)
(0.642151 0.369479 0)
(0.553344 0.383679 0)
(0.571694 0.351665 0)
(0.603468 0.741841 3.34411e-19)
(1.22388 0.321088 -4.32791e-19)
(1.16418 0.365345 0)
(1.20864 0.317873 0)
(0.784938 0.227563 4.17867e-19)
(0.621598 0.578971 -2.67849e-19)
(0.633787 0.490925 4.97092e-19)
(0.837394 0.411065 -5.43292e-19)
(0.994724 0.031961 6.77576e-19)
(1.0141 0.0619006 -6.92764e-19)
(1.00158 0.0650379 0)
(1.01346 -0.0124122 0)
(1.00875 -0.0554856 -6.60617e-19)
(1.00881 -0.00854436 6.54901e-19)
(0.996091 0.022793 0)
(0.988255 -0.00903291 0)
(1.04245 -0.0138561 0)
(1.00733 -0.00116824 0)
(1.01083 -0.0491921 0)
(1.00564 -0.0381216 0)
(0.0124048 1.84923 0)
(0.0416101 1.82035 0)
(0.0181951 1.84097 1.01993e-19)
(0.216627 1.95376 8.05278e-20)
(0.139276 1.92739 1.35013e-19)
(0.117768 1.93402 -2.40173e-19)
(0.0184123 1.80536 0)
(0.237958 1.76011 -7.14828e-20)
(0.196828 1.82747 0)
(0.303284 1.72658 -7.93931e-20)
(0.274521 1.65253 3.3221e-19)
(0.189714 1.72746 6.16547e-20)
(0.227935 1.90684 3.28553e-20)
(0.120343 1.73568 -2.63523e-20)
(0.325233 1.80527 -3.58025e-20)
(0.216339 1.72634 0)
(0.241557 1.73988 3.32332e-20)
(0.0136227 1.72208 -3.23051e-20)
(-0.00815303 1.71972 0)
(0.0523735 1.69462 8.9697e-20)
(-0.0200641 1.71616 0)
(0.0678866 1.74337 -1.40836e-19)
(0.0374627 1.73612 0)
(0.0463175 1.76798 -5.93929e-21)
(0.0452982 1.77986 0)
(0.0657442 1.76122 0)
(0.0602758 1.77135 6.74228e-21)
(0.0306002 1.70411 -9.27732e-21)
(0.0400421 1.76739 1.23867e-19)
(0.0383545 1.74345 1.1763e-21)
(0.0516031 1.66704 1.07768e-20)
(0.00321577 1.71232 4.03727e-21)
(0.0338965 1.75691 0)
(-0.015782 1.76844 0)
(-0.016287 1.76633 5.79161e-20)
(-0.0236479 1.74213 8.51641e-20)
(-0.0308223 1.76847 -1.01584e-19)
(0.00363116 1.78312 0)
(-0.0301619 1.73287 -3.76045e-20)
(-0.0310742 1.75011 -8.80518e-22)
(0.0221515 1.79912 2.23431e-21)
(0.0654616 1.76181 -1.29903e-20)
(0.0133535 1.65685 -2.90951e-20)
(-0.0366062 1.77249 3.94607e-20)
(0.998183 0.0337526 -6.75827e-19)
(0.988926 0.00399947 6.44971e-19)
(0.988387 0.0433417 0)
(0.977938 -0.0271084 8.99145e-19)
(0.919893 0.0920753 -1.00566e-18)
(0.920052 0.075582 1.11632e-18)
(0.979083 -0.0253357 -1.10443e-19)
(1.05761 -0.0364683 0)
(1.02757 -0.0271114 6.14668e-19)
(1.03161 -0.0463309 -6.12222e-19)
(0.960257 0.0371914 -3.54874e-20)
(0.993066 0.053392 2.94479e-19)
(0.971973 0.0816565 0)
(0.972886 0.0383101 -1.08972e-19)
(1.00673 0.0578561 0)
(0.98401 0.0565958 0)
(1.00537 0.0722032 0)
(0.996127 0.0236516 0)
(1.04273 0.0711441 2.18707e-19)
(0.999406 0.0353516 -5.07138e-19)
(0.92681 -0.012065 -2.29608e-19)
(0.976298 0.0185197 -2.56662e-19)
(1.04999 0.0871751 4.78589e-19)
(1.0497 0.0759143 0)
(0.96953 0.0461099 0)
(-0.0100284 1.77482 3.98472e-20)
(0.0660058 1.72939 1.22738e-21)
(-0.00925074 1.78792 0)
(0.0273506 1.79481 -4.07446e-20)
(-0.0147361 1.771 -7.64026e-24)
(0.0277534 1.75186 -6.1712e-21)
(-0.00149306 1.78502 8.88481e-20)
(0.0712723 1.76062 -2.97718e-21)
(0.0852467 1.67929 2.59442e-20)
(-0.061047 1.78909 -3.63141e-20)
(-0.0321507 1.79141 4.36683e-20)
(0.0583358 1.75154 -5.23143e-21)
(-0.0186861 1.71572 -2.71858e-21)
(0.460171 1.80096 -7.54381e-20)
(0.41547 1.73911 7.84584e-20)
(0.732364 1.80784 -1.57364e-19)
(0.600321 1.90577 -1.13706e-19)
(0.637004 1.87844 0)
(0.265974 1.47868 1.1958e-19)
(0.350979 1.46137 1.60238e-19)
(0.221882 1.51504 2.64662e-20)
(0.29731 1.5251 -3.81079e-19)
(0.294777 1.50077 3.70346e-19)
(0.257434 1.51572 0)
(0.213546 1.50812 -2.45466e-19)
(0.0940175 1.60606 5.18224e-19)
(0.189194 1.62755 -1.66277e-20)
(0.0987482 1.61996 -6.67895e-19)
(0.549497 1.45488 6.51235e-19)
(0.480369 1.45427 0)
(1.01234 0.0337008 2.00231e-20)
(1.06051 0.0193887 -1.68722e-20)
(0.971492 -0.0817967 -3.26234e-19)
(0.980144 -0.016726 3.24676e-19)
(0.98603 0.056988 0)
(0.744303 1.64883 0)
(0.675786 1.56363 0)
(0.847362 1.33641 0)
(0.612718 1.44037 0)
(0.955069 1.55979 2.73041e-20)
(0.921788 1.52847 0)
(0.643755 1.55509 4.34632e-21)
(0.487866 1.55288 0)
(0.559118 1.51061 -4.67683e-19)
(0.578341 1.5218 2.92781e-19)
(0.869909 0.119732 0)
(0.830167 0.130167 1.16763e-19)
(0.899714 0.0614127 6.89104e-19)
(0.855601 0.105987 -2.43193e-19)
(0.83547 0.108017 -8.3543e-19)
(1.0087 0.154167 -7.0091e-19)
(0.86925 0.272925 -2.39011e-20)
(0.813777 0.266519 6.41444e-19)
(0.945055 0.15403 5.7652e-19)
(0.88968 0.137245 -9.11841e-19)
(0.88517 0.216311 1.12333e-19)
(0.78164 0.285297 -2.62903e-19)
(0.889329 0.254074 0)
(0.947353 0.160076 4.39067e-19)
(0.937484 0.196217 0)
(0.970543 0.221829 0)
(1.02471 0.176133 2.38173e-19)
(0.954458 0.21698 -5.84175e-22)
(0.935888 0.151548 -1.45187e-19)
(0.951551 0.149944 0)
(1.00123 0.0655939 4.88268e-19)
(1.01061 -0.00369148 6.09821e-19)
(1.02971 0.0648731 -4.66772e-19)
(1.0058 0.0756119 -4.13568e-19)
(0.925879 0.0393689 -6.44574e-19)
(0.933454 0.135945 0)
(0.966828 -0.00652928 0)
(0.92296 0.0916169 -3.96487e-19)
(0.912616 0.0441615 1.4729e-19)
(1.0132 0.0847383 5.32011e-19)
(1.03474 0.109799 -6.65737e-19)
(0.978001 0.123119 5.94192e-19)
(0.942675 0.169129 0)
(0.968217 0.0880599 0)
(0.977029 0.090689 -2.66043e-19)
(0.983267 0.101585 -4.38945e-19)
(0.631369 1.57902 1.81611e-19)
(0.574971 1.60455 -2.36422e-19)
(0.792522 1.72027 -2.83821e-19)
(0.813868 2.02827 3.55447e-20)
(0.996402 1.70437 -5.027e-19)
(0.981455 1.83801 3.84872e-20)
(1.06443 1.69481 -2.4354e-20)
(0.849476 1.94521 -1.81741e-19)
(0.828342 1.81032 3.6014e-19)
(0.803674 2.22897 -2.1028e-20)
(0.995837 1.99653 2.37815e-20)
(1.00663 2.02607 0)
(0.218393 1.18653 -5.2327e-20)
(-0.401003 2.06415 -3.21272e-19)
(0.509237 0.209499 1.33027e-20)
(-0.0328429 0.645026 -2.22172e-19)
(0.493488 0.369652 2.40612e-19)
(0.450859 0.347858 -4.11025e-19)
(0.425939 0.2815 2.77171e-19)
(0.52055 0.320056 -2.94619e-20)
(0.487452 0.315924 1.77027e-19)
(0.786428 0.265597 -2.42489e-19)
(0.667191 0.3235 0)
(0.702344 0.259604 9.42815e-21)
(0.561829 0.473153 2.06822e-19)
(0.506447 0.495735 -7.40053e-19)
(0.464601 0.375495 -3.45842e-20)
(0.485835 0.407173 0)
(0.400556 0.955464 3.33296e-19)
(0.684205 0.928742 4.322e-19)
(0.632244 0.945216 -4.9352e-19)
(0.662893 0.946333 -1.64304e-19)
(0.867626 0.913776 -5.15618e-20)
(0.849836 0.95544 5.29029e-20)
(0.767205 0.655599 -5.67211e-19)
(0.772407 0.821242 1.5442e-19)
(0.908815 0.822137 0)
(0.859534 0.782538 -2.03348e-19)
(0.913924 0.400145 1.6375e-19)
(1.05412 0.31874 2.53608e-19)
(1.10783 0.263195 2.75505e-19)
(0.882138 0.431005 -3.40199e-19)
(1.0204 0.358038 0)
(0.955193 0.389565 0)
(0.822881 0.363462 1.87208e-20)
(0.752122 0.314538 0)
(0.739316 0.338059 2.88571e-19)
(0.92842 0.250505 -1.92323e-20)
(0.869919 0.461494 1.52598e-18)
(0.740164 0.511269 4.28816e-19)
(0.772263 0.520158 -3.97235e-19)
(0.730995 0.38977 4.25547e-19)
(0.674741 0.444741 2.47845e-19)
(0.64505 0.424796 -2.39757e-19)
(0.979242 0.092408 5.25719e-19)
(0.985321 -0.0868491 0)
(1.01022 0.0123979 3.43667e-19)
(0.9564 0.0888169 -7.79593e-19)
(1.0176 -0.0410544 3.81319e-19)
(1.00026 0.0700324 -8.08054e-19)
(1.0156 -0.0072579 0)
(0.983048 -0.0544362 -1.70364e-19)
(1.00112 0.0725876 4.38204e-19)
(0.95131 0.0189561 -2.30027e-19)
(0.968379 -0.0680168 1.62818e-19)
(-0.000350743 1.81687 0)
(0.102761 1.76181 0)
(0.053481 1.79706 0)
(0.0255454 1.82238 0)
(0.0971998 1.75555 3.38234e-20)
(0.104854 1.75673 -5.25104e-20)
(0.0970675 1.77962 -1.97793e-22)
(0.116207 1.75302 -8.53907e-20)
(0.0420409 1.72693 -6.10407e-20)
(0.0406499 1.78053 4.425e-20)
(0.0512949 1.79885 -3.4438e-20)
(0.051772 1.79958 3.12476e-20)
(0.0201626 1.73523 -7.73368e-22)
(0.0202026 1.76497 -7.78341e-21)
(0.103046 1.70582 -9.31573e-20)
(0.13968 1.73727 0)
(0.137447 1.7199 8.02597e-20)
(0.100024 1.81375 4.54616e-20)
(0.139252 1.67078 -5.85014e-20)
(0.145635 1.60579 0)
(0.148341 1.60125 -3.55252e-19)
(0.200722 1.62918 2.59079e-19)
(0.134199 1.67191 -1.46596e-19)
(0.130693 1.68409 8.486e-20)
(0.0381537 1.58387 0)
(0.031542 1.72936 -5.24736e-20)
(0.0360894 1.71519 -1.33848e-19)
(-0.0268513 1.67189 0)
(0.0551039 1.76847 -1.10635e-21)
(0.0225891 1.74576 2.66139e-20)
(-0.0179119 1.80468 -3.83874e-21)
(0.0131479 1.77676 2.66932e-20)
(-0.00928292 1.76074 -2.97743e-20)
(-0.0418417 1.74672 1.78527e-20)
(0.0385325 1.7868 0)
(-0.00637853 1.81623 0)
(0.0216091 1.75467 -3.5661e-21)
(0.00938433 1.76372 -2.94317e-22)
(-0.00179265 1.83234 0)
(-0.047036 1.78211 -1.64457e-20)
(-0.0282578 1.7599 2.07507e-20)
(0.957637 0.136855 0)
(1.05422 0.159655 -5.67527e-20)
(1.03214 0.0140152 -3.54087e-19)
(0.942407 -0.0181043 0)
(1.01496 -0.0190932 0)
(1.07656 -0.100711 -3.2669e-20)
(0.951757 -0.082802 6.72796e-19)
(1.00794 -0.00492917 7.66067e-19)
(0.982255 0.0120683 0)
(0.993798 0.000168168 0)
(0.978682 -0.0230547 4.0842e-19)
(0.998264 0.0337736 0)
(0.986569 0.0409115 0)
(-0.0683168 1.81802 0)
(-0.00543943 1.69514 9.4812e-21)
(-0.0516723 1.75554 8.26827e-21)
(-0.00124476 1.73305 0)
(0.0467755 1.67273 1.03173e-20)
(0.075516 1.75317 1.28661e-20)
(0.025828 1.77971 0)
(0.441439 1.66724 0)
(0.337976 1.68268 -1.88394e-19)
(0.367328 1.65038 0)
(0.45236 1.76547 1.60053e-19)
(0.478631 1.80231 0)
(0.47129 1.79164 -4.08036e-20)
(0.616739 1.50515 -1.44301e-20)
(0.578115 1.45397 -8.02127e-19)
(0.622875 1.43778 1.0038e-18)
(0.528144 1.44516 1.82448e-19)
(0.538225 1.50395 0)
(0.551713 1.50398 0)
(0.562732 1.45767 0)
(0.552811 1.4448 -6.71374e-19)
(0.35352 1.49101 -3.66398e-19)
(0.425524 1.48053 -8.92293e-20)
(0.450342 1.46808 7.34279e-20)
(0.37869 1.47719 0)
(0.444905 1.48285 0)
(0.411613 1.48035 -1.93684e-19)
(0.410055 1.4819 0)
(0.456612 1.51647 0)
(0.349839 1.46616 -4.69901e-19)
(0.410115 1.28631 -3.46618e-20)
(0.636802 1.57864 0)
(0.500603 1.61191 7.47405e-19)
(0.681536 1.17635 -1.46412e-19)
(0.786493 1.21627 0)
(0.735848 1.18569 2.22719e-19)
(0.419754 1.46204 0)
(0.47294 1.26503 0)
(0.814294 1.59086 -2.78594e-19)
(0.765763 1.62917 -2.18857e-19)
(0.670166 1.58093 4.024e-19)
(0.68156 1.59094 -1.1675e-19)
(0.787904 1.52191 0)
(0.708322 1.51006 1.57016e-19)
(0.879167 1.5102 -2.54981e-19)
(0.811245 1.49846 -1.6445e-20)
(0.578801 1.55755 0)
(0.571756 1.61785 -1.5953e-19)
(0.615537 1.59604 0)
(0.848125 0.234387 0)
(0.834219 0.152873 0)
(0.756099 0.204702 0)
(0.819355 0.243665 -4.60057e-19)
(0.767772 0.223756 2.59269e-19)
(0.942942 0.00307072 -3.04277e-19)
(0.92644 0.0456763 0)
(0.890916 0.0319212 1.348e-19)
(0.843389 0.0674464 5.48038e-19)
(0.880256 0.0174455 -3.40278e-19)
(0.654929 2.45054 -2.34716e-19)
(0.696563 2.35979 0)
(0.695359 2.63353 -7.79573e-19)
(0.147098 2.86112 6.03549e-19)
(0.224107 2.51294 2.11242e-20)
(-0.0704125 1.58063 4.7024e-19)
(0.097597 1.66041 0)
(-0.186908 0.611176 -2.52109e-20)
(-0.0727331 0.749725 5.89295e-19)
(0.138899 0.0776462 -3.15996e-20)
(0.363536 0.396751 1.38815e-20)
(0.526111 0.446186 2.40787e-19)
(0.578897 0.470499 0)
(0.275045 0.602687 0)
(0.327768 0.487558 0)
(0.834877 0.672235 1.3099e-19)
(0.737859 0.527682 -4.17315e-19)
(0.802936 0.602057 3.62689e-19)
(0.844522 0.49689 -3.11275e-19)
(1.08693 0.492268 0)
(1.04187 0.634132 -9.74324e-20)
(0.761565 0.328993 -5.90512e-19)
(0.736191 0.3185 -7.65396e-19)
(0.644144 0.446026 4.59598e-19)
(0.683161 0.371664 -4.41837e-19)
(0.754126 0.314854 -3.52888e-19)
(0.736773 0.315771 4.41264e-19)
(1.0504 -0.0239917 -3.89601e-19)
(1.06243 0.00486541 8.24396e-19)
(1.02059 0.0799265 4.91246e-19)
(1.02219 0.0230145 -5.98165e-19)
(0.884025 0.0416405 0)
(0.854844 -0.0403792 -1.05908e-18)
(0.0763845 1.73716 2.16967e-20)
(0.0316401 1.74413 0)
(0.0253077 1.7744 1.34878e-19)
(0.0214286 1.78057 -1.19272e-19)
(0.0165686 1.67526 3.61409e-22)
(0.0257496 1.69668 0)
(0.0916765 1.79932 0)
(0.0227638 1.82182 7.95466e-21)
(-0.0020436 1.62745 -7.0194e-21)
(0.014233 1.63353 7.50916e-21)
(0.00298502 1.7824 -1.64162e-20)
(0.079283 1.7363 2.31897e-20)
(0.516792 1.59901 -4.87206e-19)
(0.508985 1.61445 5.20843e-19)
(0.515888 1.6874 -1.2185e-19)
(0.544986 1.65457 2.02235e-20)
(0.713715 1.62628 0)
(0.539029 1.78333 2.02285e-20)
(0.570036 1.74489 -1.93794e-20)
(0.530436 1.75836 1.21676e-19)
(0.601075 1.67276 0)
(0.62753 1.58963 0)
(0.410425 1.48243 5.42983e-19)
(0.285633 1.48929 8.4767e-19)
(0.373742 1.48815 -5.75641e-19)
(0.230141 1.5066 -9.99459e-20)
(0.394167 1.50551 1.94606e-19)
(0.246247 1.48782 -4.73514e-19)
(0.676847 1.46353 -5.46405e-19)
(0.770477 1.4871 0)
(0.740119 1.46046 -5.65746e-19)
(0.661981 1.48052 0)
(0.657644 1.47387 0)
(-0.0397204 2.20499 -2.07069e-19)
(0.436543 2.06069 -1.06892e-19)
(0.315572 2.27022 1.21626e-19)
(-0.490036 1.63172 0)
(-0.487225 1.37965 -1.71139e-19)
(-0.285919 1.48201 -3.61293e-19)
(-0.263755 2.33427 0)
(-0.389868 2.52393 -1.35611e-20)
(-0.349417 2.73478 0)
(0.401455 0.754933 -7.04353e-19)
(0.614726 0.825021 9.14049e-19)
(0.619776 0.715351 -8.65964e-19)
(0.326529 0.64514 -7.89626e-20)
(0.535382 0.56987 -3.00359e-19)
(0.521484 2.0376 8.18525e-20)
(0.612389 1.84976 -3.133e-19)
(0.383523 2.03611 6.94766e-19)
(0.498178 1.87897 -4.79196e-19)
(0.546496 1.65505 -5.39714e-19)
(0.606437 1.76869 -1.12489e-19)
(0.632776 1.74425 4.31058e-19)
(0.573158 1.85364 3.17419e-20)
(0.510385 1.72327 2.49118e-19)
)
;

boundaryField
{
    wall-4
    {
        type            noSlip;
    }
    velocity-inlet-5
    {
        type            fixedValue;
        value           uniform (1 0 0);
    }
    velocity-inlet-6
    {
        type            fixedValue;
        value           uniform (0 3 0);
    }
    pressure-outlet-7
    {
        type            zeroGradient;
    }
    wall-8
    {
        type            noSlip;
    }
    frontAndBackPlanes
    {
        type            empty;
    }
}

