/*--------------------------------*- C++ -*----------------------------------*\
  =========                 |
  \\      /  F ield         | OpenFOAM: The Open Source CFD Toolbox
   \\    /   O peration     | Website:  https://openfoam.org
    \\  /    A nd           | Version:  6
     \\/     M anipulation  |
\*---------------------------------------------------------------------------*/
FoamFile
{
    version     2.0;
    format      ascii;
    class       volScalarField;
    location    "0";
    object      p;
}
// * * * * * * * * * * * * * * * * * * * * * * * * * * * * * * * * * * * * * //

dimensions      [0 2 -2 0 0 0 0];

internalField   nonuniform List<scalar> 
40000
(
0.0167559
0.0167563
0.0167563
0.0167554
0.0167534
0.0167505
0.0167467
0.0167422
0.016737
0.0167312
0.016725
0.0167184
0.0167116
0.0167045
0.0166973
0.01669
0.0166826
0.0166751
0.0166677
0.0166603
0.0166529
0.0166455
0.0166382
0.0166309
0.0166237
0.0166165
0.0166094
0.0166023
0.0165952
0.0165882
0.0165812
0.0165742
0.0165673
0.0165604
0.0165535
0.0165467
0.0165399
0.0165331
0.0165263
0.0165196
0.0165129
0.0165063
0.0164997
0.0164932
0.0164868
0.0164805
0.0164743
0.0164682
0.0164623
0.0164565
0.0164509
0.0164454
0.0164402
0.0164352
0.0164304
0.0164259
0.0164217
0.0164178
0.0164142
0.016411
0.0164081
0.0164057
0.0164036
0.016402
0.0164008
0.0164001
0.0163999
0.0164002
0.016401
0.0164024
0.0164043
0.0164068
0.0164099
0.0164136
0.0164179
0.0164229
0.0164284
0.0164346
0.0164415
0.016449
0.0164571
0.0164658
0.0164752
0.0164851
0.0164957
0.0165068
0.0165185
0.0165308
0.0165435
0.0165567
0.0165703
0.0165844
0.0165988
0.0166135
0.0166285
0.0166436
0.016659
0.0166744
0.0166898
0.0167052
0.0167205
0.0167355
0.0167504
0.0167648
0.0167789
0.0167924
0.0168054
0.0168176
0.0168291
0.0168398
0.0168495
0.0168582
0.0168658
0.0168722
0.0168774
0.0168812
0.0168836
0.0168845
0.0168839
0.0168817
0.0168778
0.0168722
0.0168648
0.0168557
0.0168448
0.016832
0.0168174
0.0168009
0.0167826
0.0167624
0.0167405
0.0167167
0.0166911
0.0166639
0.016635
0.0166044
0.0165723
0.0165387
0.0165038
0.0164675
0.01643
0.0163913
0.0163516
0.016311
0.0162695
0.0162273
0.0161845
0.0161412
0.0160975
0.0160535
0.0160094
0.0159651
0.0159209
0.0158769
0.0158331
0.0157896
0.0157466
0.0157041
0.0156623
0.0156212
0.0155808
0.0155413
0.0155028
0.0154652
0.0154287
0.0153934
0.0153592
0.0153262
0.0152945
0.015264
0.0152349
0.0152072
0.0151809
0.0151559
0.0151324
0.0151104
0.0150899
0.0150708
0.0150533
0.0150373
0.0150228
0.0150098
0.0149984
0.0149886
0.0149803
0.0149735
0.0149683
0.0149646
0.0149624
0.0149616
0.0149622
0.0149641
0.0149671
0.0149711
0.0149758
0.0149809
0.0149861
0.0149906
0.0149938
0.0149953
0.0167555
0.0167559
0.0167559
0.0167549
0.0167531
0.0167503
0.0167468
0.0167425
0.0167376
0.0167321
0.0167263
0.01672
0.0167135
0.0167067
0.0166998
0.0166928
0.0166856
0.0166784
0.0166712
0.016664
0.0166568
0.0166496
0.0166424
0.0166353
0.0166282
0.0166211
0.0166141
0.0166071
0.0166001
0.0165931
0.0165862
0.0165793
0.0165725
0.0165656
0.0165588
0.016552
0.0165453
0.0165385
0.0165318
0.0165251
0.0165185
0.016512
0.0165055
0.016499
0.0164927
0.0164864
0.0164803
0.0164742
0.0164684
0.0164626
0.0164571
0.0164517
0.0164465
0.0164416
0.0164368
0.0164324
0.0164282
0.0164244
0.0164208
0.0164176
0.0164148
0.0164123
0.0164103
0.0164086
0.0164075
0.0164068
0.0164065
0.0164068
0.0164076
0.0164089
0.0164108
0.0164132
0.0164162
0.0164198
0.016424
0.0164288
0.0164342
0.0164402
0.0164469
0.0164542
0.016462
0.0164705
0.0164796
0.0164893
0.0164995
0.0165103
0.0165217
0.0165335
0.0165459
0.0165587
0.0165719
0.0165855
0.0165994
0.0166137
0.0166281
0.0166428
0.0166576
0.0166724
0.0166873
0.0167021
0.0167168
0.0167313
0.0167456
0.0167595
0.0167729
0.0167858
0.0167982
0.0168099
0.0168208
0.0168309
0.01684
0.0168482
0.0168553
0.0168612
0.0168658
0.0168692
0.0168711
0.0168716
0.0168706
0.016868
0.0168638
0.0168579
0.0168503
0.0168409
0.0168298
0.0168169
0.0168022
0.0167856
0.0167673
0.0167471
0.0167252
0.0167016
0.0166762
0.0166491
0.0166204
0.0165901
0.0165583
0.0165251
0.0164905
0.0164546
0.0164176
0.0163794
0.0163402
0.0163001
0.0162592
0.0162176
0.0161754
0.0161327
0.0160896
0.0160463
0.0160028
0.0159592
0.0159157
0.0158723
0.0158292
0.0157864
0.015744
0.0157022
0.015661
0.0156205
0.0155808
0.0155419
0.015504
0.015467
0.0154311
0.0153963
0.0153626
0.0153301
0.0152988
0.0152689
0.0152402
0.0152129
0.0151869
0.0151623
0.0151392
0.0151174
0.0150971
0.0150783
0.015061
0.0150451
0.0150307
0.0150179
0.0150065
0.0149966
0.0149883
0.0149814
0.014976
0.0149721
0.0149696
0.0149684
0.0149686
0.0149699
0.0149724
0.0149757
0.0149797
0.0149841
0.0149884
0.0149924
0.0149953
0.0149967
0.0167555
0.0167559
0.0167559
0.016755
0.0167532
0.0167506
0.0167473
0.0167433
0.0167387
0.0167336
0.0167281
0.0167223
0.0167161
0.0167097
0.0167032
0.0166964
0.0166896
0.0166827
0.0166758
0.0166688
0.0166618
0.0166548
0.0166479
0.0166409
0.0166339
0.016627
0.0166201
0.0166132
0.0166064
0.0165995
0.0165927
0.0165859
0.0165791
0.0165723
0.0165656
0.0165589
0.0165522
0.0165455
0.0165389
0.0165323
0.0165257
0.0165192
0.0165128
0.0165064
0.0165001
0.0164939
0.0164879
0.0164819
0.0164761
0.0164704
0.0164649
0.0164596
0.0164545
0.0164496
0.0164449
0.0164405
0.0164364
0.0164326
0.0164291
0.0164259
0.0164231
0.0164207
0.0164186
0.016417
0.0164158
0.0164151
0.0164148
0.016415
0.0164157
0.016417
0.0164187
0.0164211
0.0164239
0.0164274
0.0164314
0.016436
0.0164413
0.0164471
0.0164535
0.0164604
0.016468
0.0164762
0.016485
0.0164943
0.0165041
0.0165145
0.0165254
0.0165368
0.0165487
0.016561
0.0165737
0.0165867
0.0166001
0.0166137
0.0166276
0.0166416
0.0166557
0.0166699
0.0166841
0.0166983
0.0167123
0.0167261
0.0167396
0.0167527
0.0167655
0.0167777
0.0167893
0.0168003
0.0168105
0.0168199
0.0168284
0.0168359
0.0168423
0.0168476
0.0168517
0.0168544
0.0168559
0.0168559
0.0168544
0.0168513
0.0168467
0.0168405
0.0168325
0.0168229
0.0168116
0.0167985
0.0167836
0.016767
0.0167486
0.0167285
0.0167066
0.0166831
0.0166578
0.016631
0.0166025
0.0165726
0.0165411
0.0165083
0.0164741
0.0164388
0.0164022
0.0163646
0.016326
0.0162865
0.0162463
0.0162054
0.0161639
0.0161219
0.0160796
0.016037
0.0159943
0.0159515
0.0159088
0.0158662
0.0158239
0.0157819
0.0157404
0.0156994
0.0156589
0.0156192
0.0155803
0.0155421
0.0155049
0.0154687
0.0154334
0.0153993
0.0153662
0.0153344
0.0153037
0.0152743
0.0152461
0.0152193
0.0151938
0.0151697
0.0151469
0.0151255
0.0151056
0.015087
0.0150699
0.0150543
0.0150401
0.0150273
0.015016
0.0150061
0.0149977
0.0149907
0.0149851
0.0149809
0.014978
0.0149764
0.0149761
0.0149768
0.0149786
0.0149812
0.0149844
0.014988
0.0149918
0.0149952
0.0149981
0.0149999
0.0167565
0.0167569
0.0167568
0.0167559
0.0167541
0.0167516
0.0167485
0.0167447
0.0167403
0.0167355
0.0167303
0.0167247
0.0167189
0.0167128
0.0167065
0.0167001
0.0166935
0.0166869
0.0166802
0.0166734
0.0166666
0.0166599
0.016653
0.0166462
0.0166394
0.0166327
0.0166259
0.0166191
0.0166124
0.0166056
0.0165989
0.0165922
0.0165854
0.0165787
0.0165721
0.0165654
0.0165588
0.0165522
0.0165456
0.016539
0.0165325
0.0165261
0.0165197
0.0165134
0.0165072
0.016501
0.016495
0.0164891
0.0164833
0.0164777
0.0164722
0.0164669
0.0164619
0.016457
0.0164524
0.016448
0.0164439
0.0164401
0.0164366
0.0164335
0.0164306
0.0164282
0.0164261
0.0164245
0.0164233
0.0164225
0.0164222
0.0164223
0.0164229
0.0164241
0.0164258
0.016428
0.0164307
0.016434
0.0164379
0.0164423
0.0164473
0.0164529
0.0164591
0.0164658
0.0164731
0.016481
0.0164894
0.0164984
0.0165079
0.0165179
0.0165285
0.0165394
0.0165509
0.0165627
0.0165749
0.0165875
0.0166003
0.0166134
0.0166268
0.0166403
0.0166538
0.0166675
0.0166811
0.0166946
0.0167081
0.0167212
0.0167342
0.0167467
0.0167588
0.0167705
0.0167815
0.0167919
0.0168015
0.0168103
0.0168183
0.0168252
0.0168311
0.0168359
0.0168394
0.0168417
0.0168427
0.0168423
0.0168404
0.016837
0.016832
0.0168255
0.0168173
0.0168074
0.0167959
0.0167826
0.0167676
0.0167509
0.0167325
0.0167124
0.0166905
0.016667
0.0166419
0.0166152
0.016587
0.0165572
0.0165261
0.0164935
0.0164597
0.0164247
0.0163886
0.0163514
0.0163133
0.0162743
0.0162346
0.0161942
0.0161533
0.0161119
0.0160702
0.0160283
0.0159862
0.0159441
0.015902
0.0158601
0.0158184
0.0157771
0.0157363
0.0156959
0.0156562
0.0156171
0.0155788
0.0155413
0.0155047
0.0154691
0.0154345
0.0154009
0.0153684
0.0153371
0.015307
0.015278
0.0152504
0.015224
0.0151989
0.0151752
0.0151528
0.0151317
0.0151121
0.0150938
0.0150769
0.0150615
0.0150474
0.0150347
0.0150235
0.0150136
0.0150051
0.014998
0.0149923
0.0149878
0.0149847
0.0149828
0.014982
0.0149823
0.0149836
0.0149857
0.0149885
0.0149917
0.0149952
0.0149987
0.0150021
0.0150045
0.0167585
0.0167588
0.0167586
0.0167576
0.0167558
0.0167534
0.0167503
0.0167466
0.0167424
0.0167378
0.0167328
0.0167275
0.0167219
0.016716
0.01671
0.0167038
0.0166975
0.0166911
0.0166846
0.016678
0.0166714
0.0166648
0.0166582
0.0166515
0.0166449
0.0166382
0.0166316
0.0166249
0.0166183
0.0166116
0.016605
0.0165983
0.0165917
0.0165851
0.0165785
0.0165719
0.0165653
0.0165587
0.0165522
0.0165457
0.0165392
0.0165328
0.0165265
0.0165202
0.016514
0.0165079
0.0165019
0.016496
0.0164903
0.0164847
0.0164793
0.016474
0.016469
0.0164641
0.0164595
0.0164551
0.016451
0.0164472
0.0164437
0.0164406
0.0164377
0.0164353
0.0164332
0.0164315
0.0164302
0.0164293
0.0164289
0.016429
0.0164296
0.0164306
0.0164322
0.0164342
0.0164368
0.01644
0.0164437
0.0164479
0.0164527
0.0164581
0.016464
0.0164705
0.0164775
0.0164851
0.0164932
0.0165019
0.0165111
0.0165207
0.0165309
0.0165415
0.0165525
0.0165639
0.0165757
0.0165878
0.0166002
0.0166129
0.0166257
0.0166387
0.0166518
0.0166649
0.016678
0.0166911
0.016704
0.0167166
0.016729
0.016741
0.0167526
0.0167637
0.0167742
0.0167841
0.0167932
0.0168016
0.016809
0.0168155
0.0168209
0.0168252
0.0168284
0.0168302
0.0168308
0.01683
0.0168278
0.0168241
0.0168188
0.016812
0.0168036
0.0167935
0.0167818
0.0167684
0.0167533
0.0167365
0.016718
0.0166978
0.016676
0.0166526
0.0166275
0.0166009
0.0165728
0.0165433
0.0165123
0.01648
0.0164465
0.0164118
0.0163759
0.0163391
0.0163014
0.0162628
0.0162235
0.0161836
0.0161432
0.0161023
0.0160611
0.0160196
0.0159781
0.0159365
0.015895
0.0158537
0.0158126
0.0157719
0.0157316
0.0156918
0.0156527
0.0156142
0.0155765
0.0155396
0.0155035
0.0154685
0.0154344
0.0154013
0.0153694
0.0153386
0.0153089
0.0152805
0.0152532
0.0152273
0.0152026
0.0151792
0.0151572
0.0151365
0.0151171
0.0150991
0.0150824
0.0150671
0.0150532
0.0150406
0.0150294
0.0150196
0.0150111
0.0150039
0.014998
0.0149934
0.01499
0.0149879
0.0149868
0.0149868
0.0149878
0.0149896
0.0149921
0.0149952
0.0149987
0.0150024
0.0150065
0.0150096
0.0167614
0.0167616
0.0167613
0.0167601
0.0167582
0.0167557
0.0167527
0.0167491
0.016745
0.0167405
0.0167357
0.0167305
0.0167251
0.0167195
0.0167136
0.0167076
0.0167015
0.0166953
0.016689
0.0166827
0.0166763
0.0166698
0.0166634
0.0166569
0.0166503
0.0166438
0.0166373
0.0166307
0.0166242
0.0166176
0.0166111
0.0166045
0.0165979
0.0165914
0.0165848
0.0165783
0.0165717
0.0165652
0.0165587
0.0165523
0.0165459
0.0165395
0.0165332
0.0165269
0.0165208
0.0165147
0.0165087
0.0165028
0.0164971
0.0164915
0.0164861
0.0164809
0.0164758
0.016471
0.0164663
0.016462
0.0164579
0.016454
0.0164505
0.0164473
0.0164444
0.0164419
0.0164398
0.016438
0.0164367
0.0164357
0.0164352
0.0164352
0.0164356
0.0164366
0.016438
0.0164399
0.0164424
0.0164453
0.0164488
0.0164529
0.0164575
0.0164626
0.0164683
0.0164745
0.0164813
0.0164886
0.0164965
0.0165048
0.0165137
0.016523
0.0165328
0.016543
0.0165537
0.0165647
0.0165761
0.0165878
0.0165998
0.016612
0.0166244
0.0166369
0.0166496
0.0166622
0.0166749
0.0166875
0.0166999
0.0167121
0.016724
0.0167355
0.0167467
0.0167573
0.0167674
0.0167768
0.0167855
0.0167934
0.0168004
0.0168064
0.0168115
0.0168154
0.0168182
0.0168197
0.01682
0.0168189
0.0168163
0.0168123
0.0168068
0.0167998
0.0167911
0.0167809
0.016769
0.0167554
0.0167402
0.0167234
0.0167048
0.0166846
0.0166628
0.0166394
0.0166144
0.0165878
0.0165598
0.0165304
0.0164996
0.0164674
0.0164341
0.0163996
0.016364
0.0163275
0.0162901
0.0162518
0.0162129
0.0161733
0.0161332
0.0160928
0.016052
0.016011
0.0159699
0.0159288
0.0158877
0.0158469
0.0158063
0.0157661
0.0157263
0.0156871
0.0156484
0.0156105
0.0155733
0.0155369
0.0155014
0.0154668
0.0154332
0.0154006
0.0153692
0.0153388
0.0153096
0.0152816
0.0152548
0.0152292
0.0152049
0.0151819
0.0151602
0.0151398
0.0151207
0.0151029
0.0150864
0.0150713
0.0150575
0.0150451
0.0150339
0.0150241
0.0150156
0.0150084
0.0150024
0.0149977
0.0149942
0.0149918
0.0149905
0.0149903
0.0149911
0.0149927
0.0149951
0.0149982
0.0150019
0.0150061
0.0150108
0.0150147
0.0167654
0.0167652
0.0167646
0.0167633
0.0167613
0.0167587
0.0167556
0.016752
0.016748
0.0167436
0.0167388
0.0167338
0.0167286
0.0167231
0.0167174
0.0167116
0.0167057
0.0166997
0.0166935
0.0166874
0.0166811
0.0166748
0.0166685
0.0166621
0.0166558
0.0166494
0.0166429
0.0166365
0.01663
0.0166236
0.0166171
0.0166106
0.0166041
0.0165976
0.0165911
0.0165846
0.0165781
0.0165717
0.0165652
0.0165588
0.0165524
0.016546
0.0165397
0.0165335
0.0165274
0.0165213
0.0165153
0.0165095
0.0165037
0.0164981
0.0164927
0.0164875
0.0164824
0.0164775
0.0164729
0.0164685
0.0164643
0.0164605
0.0164569
0.0164536
0.0164507
0.0164481
0.0164459
0.016444
0.0164426
0.0164416
0.016441
0.0164408
0.0164411
0.0164419
0.0164432
0.016445
0.0164472
0.01645
0.0164533
0.0164572
0.0164616
0.0164665
0.0164719
0.0164779
0.0164844
0.0164914
0.016499
0.016507
0.0165156
0.0165246
0.0165341
0.0165439
0.0165542
0.0165649
0.0165759
0.0165873
0.0165989
0.0166107
0.0166227
0.0166348
0.0166471
0.0166593
0.0166716
0.0166837
0.0166957
0.0167075
0.016719
0.0167302
0.0167409
0.0167512
0.0167608
0.0167699
0.0167782
0.0167857
0.0167923
0.0167981
0.0168028
0.0168064
0.0168088
0.0168101
0.01681
0.0168087
0.0168059
0.0168017
0.0167959
0.0167887
0.0167799
0.0167694
0.0167574
0.0167437
0.0167284
0.0167114
0.0166928
0.0166726
0.0166507
0.0166273
0.0166023
0.0165758
0.0165478
0.0165185
0.0164877
0.0164558
0.0164226
0.0163882
0.0163528
0.0163165
0.0162793
0.0162413
0.0162026
0.0161633
0.0161235
0.0160834
0.0160429
0.0160023
0.0159615
0.0159208
0.0158802
0.0158397
0.0157996
0.0157598
0.0157204
0.0156816
0.0156434
0.0156059
0.0155692
0.0155332
0.0154982
0.0154641
0.0154309
0.0153988
0.0153678
0.0153378
0.0153091
0.0152815
0.015255
0.0152299
0.0152059
0.0151832
0.0151618
0.0151417
0.0151228
0.0151053
0.0150891
0.0150741
0.0150605
0.0150481
0.0150371
0.0150273
0.0150188
0.0150115
0.0150055
0.0150007
0.0149971
0.0149946
0.0149932
0.0149928
0.0149935
0.014995
0.0149975
0.0150007
0.0150046
0.0150093
0.0150148
0.0150195
0.0167701
0.0167697
0.0167687
0.0167671
0.0167649
0.0167622
0.016759
0.0167553
0.0167513
0.0167469
0.0167423
0.0167374
0.0167322
0.0167269
0.0167213
0.0167157
0.0167099
0.016704
0.0166981
0.0166921
0.016686
0.0166798
0.0166736
0.0166674
0.0166611
0.0166549
0.0166485
0.0166422
0.0166358
0.0166295
0.0166231
0.0166166
0.0166102
0.0166038
0.0165973
0.0165909
0.0165844
0.016578
0.0165716
0.0165652
0.0165588
0.0165524
0.0165462
0.0165399
0.0165338
0.0165277
0.0165217
0.0165159
0.0165101
0.0165045
0.016499
0.0164937
0.0164886
0.0164837
0.0164791
0.0164746
0.0164704
0.0164665
0.0164628
0.0164595
0.0164565
0.0164538
0.0164515
0.0164495
0.016448
0.0164469
0.0164461
0.0164458
0.016446
0.0164466
0.0164478
0.0164493
0.0164514
0.016454
0.0164572
0.0164608
0.0164649
0.0164696
0.0164748
0.0164805
0.0164868
0.0164936
0.0165008
0.0165086
0.0165168
0.0165255
0.0165347
0.0165442
0.0165542
0.0165645
0.0165752
0.0165862
0.0165974
0.0166089
0.0166206
0.0166323
0.0166442
0.0166561
0.016668
0.0166798
0.0166914
0.0167029
0.016714
0.0167248
0.0167352
0.0167451
0.0167545
0.0167632
0.0167712
0.0167784
0.0167848
0.0167902
0.0167946
0.016798
0.0168002
0.0168012
0.0168009
0.0167993
0.0167963
0.0167919
0.016786
0.0167785
0.0167696
0.016759
0.0167468
0.016733
0.0167176
0.0167006
0.0166819
0.0166616
0.0166397
0.0166162
0.0165912
0.0165647
0.0165368
0.0165074
0.0164768
0.0164448
0.0164117
0.0163775
0.0163422
0.016306
0.0162689
0.0162311
0.0161926
0.0161535
0.016114
0.0160741
0.0160339
0.0159935
0.015953
0.0159126
0.0158723
0.0158322
0.0157923
0.0157529
0.0157139
0.0156755
0.0156377
0.0156006
0.0155642
0.0155287
0.015494
0.0154603
0.0154275
0.0153958
0.0153652
0.0153356
0.0153072
0.01528
0.015254
0.0152291
0.0152055
0.0151831
0.015162
0.0151422
0.0151236
0.0151063
0.0150902
0.0150755
0.015062
0.0150498
0.0150388
0.0150291
0.0150206
0.0150133
0.0150073
0.0150024
0.0149987
0.0149961
0.0149947
0.0149943
0.0149949
0.0149965
0.014999
0.0150024
0.0150066
0.0150118
0.0150181
0.0150235
0.0167756
0.0167748
0.0167734
0.0167715
0.016769
0.0167661
0.0167628
0.016759
0.016755
0.0167506
0.016746
0.0167411
0.016736
0.0167308
0.0167254
0.0167199
0.0167142
0.0167085
0.0167027
0.0166968
0.0166908
0.0166848
0.0166787
0.0166726
0.0166665
0.0166603
0.0166541
0.0166479
0.0166416
0.0166353
0.016629
0.0166226
0.0166162
0.0166098
0.0166034
0.016597
0.0165906
0.0165842
0.0165778
0.0165714
0.016565
0.0165587
0.0165524
0.0165462
0.01654
0.0165339
0.0165279
0.016522
0.0165162
0.0165106
0.0165051
0.0164997
0.0164946
0.0164896
0.0164849
0.0164803
0.0164761
0.016472
0.0164683
0.0164649
0.0164618
0.016459
0.0164566
0.0164545
0.0164528
0.0164515
0.0164507
0.0164502
0.0164502
0.0164507
0.0164516
0.016453
0.0164549
0.0164573
0.0164602
0.0164636
0.0164676
0.016472
0.0164769
0.0164824
0.0164884
0.0164949
0.0165019
0.0165093
0.0165173
0.0165257
0.0165345
0.0165438
0.0165535
0.0165635
0.0165738
0.0165845
0.0165954
0.0166066
0.0166179
0.0166293
0.0166409
0.0166525
0.016664
0.0166755
0.0166868
0.016698
0.0167088
0.0167194
0.0167295
0.0167391
0.0167482
0.0167566
0.0167644
0.0167713
0.0167774
0.0167826
0.0167868
0.01679
0.016792
0.0167928
0.0167923
0.0167905
0.0167874
0.0167828
0.0167768
0.0167692
0.0167601
0.0167494
0.0167371
0.0167232
0.0167077
0.0166906
0.0166718
0.0166514
0.0166295
0.016606
0.0165809
0.0165544
0.0165265
0.0164971
0.0164665
0.0164346
0.0164015
0.0163673
0.0163321
0.016296
0.016259
0.0162212
0.0161829
0.0161439
0.0161045
0.0160648
0.0160247
0.0159846
0.0159443
0.0159041
0.015864
0.0158242
0.0157846
0.0157454
0.0157068
0.0156686
0.0156311
0.0155943
0.0155583
0.0155231
0.0154888
0.0154554
0.0154231
0.0153917
0.0153614
0.0153322
0.0153042
0.0152773
0.0152516
0.015227
0.0152037
0.0151817
0.0151608
0.0151413
0.0151229
0.0151058
0.01509
0.0150754
0.0150621
0.01505
0.0150391
0.0150294
0.015021
0.0150138
0.0150077
0.0150029
0.0149991
0.0149965
0.014995
0.0149946
0.0149952
0.0149969
0.0149995
0.0150032
0.0150078
0.0150135
0.0150205
0.0150265
0.0167818
0.0167806
0.0167787
0.0167764
0.0167736
0.0167705
0.016767
0.0167631
0.016759
0.0167546
0.0167499
0.0167451
0.01674
0.0167349
0.0167296
0.0167241
0.0167186
0.016713
0.0167073
0.0167015
0.0166957
0.0166898
0.0166838
0.0166778
0.0166718
0.0166657
0.0166596
0.0166534
0.0166472
0.016641
0.0166348
0.0166285
0.0166221
0.0166158
0.0166094
0.016603
0.0165966
0.0165902
0.0165838
0.0165775
0.0165711
0.0165647
0.0165584
0.0165522
0.016546
0.0165399
0.0165338
0.0165279
0.016522
0.0165163
0.0165108
0.0165054
0.0165001
0.0164951
0.0164903
0.0164857
0.0164813
0.0164772
0.0164733
0.0164698
0.0164665
0.0164636
0.0164611
0.0164589
0.016457
0.0164556
0.0164546
0.0164539
0.0164538
0.016454
0.0164548
0.016456
0.0164577
0.0164598
0.0164625
0.0164657
0.0164694
0.0164735
0.0164783
0.0164835
0.0164892
0.0164954
0.0165021
0.0165093
0.0165169
0.0165251
0.0165336
0.0165426
0.0165519
0.0165617
0.0165717
0.0165821
0.0165927
0.0166035
0.0166146
0.0166258
0.016637
0.0166483
0.0166596
0.0166708
0.0166819
0.0166928
0.0167034
0.0167136
0.0167235
0.0167329
0.0167418
0.01675
0.0167575
0.0167643
0.0167702
0.0167753
0.0167793
0.0167823
0.0167841
0.0167848
0.0167842
0.0167823
0.016779
0.0167743
0.0167681
0.0167605
0.0167513
0.0167405
0.0167281
0.0167141
0.0166985
0.0166813
0.0166625
0.016642
0.01662
0.0165964
0.0165714
0.0165448
0.0165168
0.0164874
0.0164567
0.0164248
0.0163917
0.0163575
0.0163223
0.0162862
0.0162493
0.0162116
0.0161733
0.0161344
0.0160951
0.0160554
0.0160155
0.0159754
0.0159353
0.0158953
0.0158554
0.0158157
0.0157763
0.0157374
0.0156989
0.0156611
0.0156238
0.0155873
0.0155515
0.0155166
0.0154826
0.0154496
0.0154175
0.0153864
0.0153565
0.0153276
0.0152998
0.0152733
0.0152479
0.0152236
0.0152006
0.0151788
0.0151583
0.0151389
0.0151208
0.015104
0.0150883
0.0150739
0.0150607
0.0150488
0.015038
0.0150284
0.0150201
0.0150129
0.0150069
0.015002
0.0149983
0.0149957
0.0149942
0.0149938
0.0149945
0.0149962
0.0149991
0.015003
0.0150079
0.0150141
0.0150218
0.0150284
0.0167885
0.0167869
0.0167845
0.0167818
0.0167787
0.0167752
0.0167715
0.0167675
0.0167632
0.0167587
0.016754
0.0167492
0.0167442
0.016739
0.0167338
0.0167284
0.016723
0.0167175
0.0167119
0.0167062
0.0167005
0.0166947
0.0166888
0.016683
0.016677
0.016671
0.016665
0.0166589
0.0166528
0.0166466
0.0166404
0.0166342
0.0166279
0.0166216
0.0166153
0.0166089
0.0166025
0.0165961
0.0165897
0.0165833
0.016577
0.0165706
0.0165643
0.016558
0.0165517
0.0165456
0.0165395
0.0165335
0.0165276
0.0165218
0.0165161
0.0165106
0.0165053
0.0165002
0.0164952
0.0164905
0.016486
0.0164818
0.0164778
0.0164741
0.0164707
0.0164677
0.016465
0.0164626
0.0164606
0.016459
0.0164577
0.0164569
0.0164566
0.0164566
0.0164571
0.0164581
0.0164596
0.0164615
0.0164639
0.0164669
0.0164703
0.0164742
0.0164787
0.0164836
0.016489
0.016495
0.0165014
0.0165083
0.0165157
0.0165235
0.0165318
0.0165405
0.0165495
0.016559
0.0165687
0.0165788
0.0165892
0.0165998
0.0166105
0.0166214
0.0166324
0.0166435
0.0166545
0.0166655
0.0166764
0.016687
0.0166974
0.0167075
0.0167172
0.0167264
0.0167351
0.0167432
0.0167505
0.0167572
0.016763
0.0167679
0.0167718
0.0167746
0.0167764
0.016777
0.0167763
0.0167743
0.0167709
0.0167661
0.0167599
0.0167521
0.0167429
0.016732
0.0167196
0.0167055
0.0166899
0.0166726
0.0166537
0.0166332
0.0166111
0.0165875
0.0165623
0.0165357
0.0165076
0.0164782
0.0164475
0.0164155
0.0163824
0.0163481
0.0163129
0.0162768
0.0162398
0.0162021
0.0161638
0.0161249
0.0160856
0.016046
0.0160061
0.0159661
0.0159261
0.0158861
0.0158463
0.0158067
0.0157675
0.0157287
0.0156904
0.0156527
0.0156157
0.0155794
0.0155439
0.0155092
0.0154754
0.0154426
0.0154108
0.01538
0.0153503
0.0153217
0.0152943
0.015268
0.0152429
0.0152189
0.0151962
0.0151747
0.0151543
0.0151352
0.0151174
0.0151007
0.0150853
0.015071
0.015058
0.0150462
0.0150355
0.015026
0.0150178
0.0150106
0.0150046
0.0149998
0.0149961
0.0149936
0.0149921
0.0149918
0.0149926
0.0149945
0.0149975
0.0150016
0.0150069
0.0150135
0.0150218
0.0150289
0.0167957
0.0167936
0.0167906
0.0167875
0.016784
0.0167803
0.0167763
0.0167721
0.0167677
0.0167631
0.0167583
0.0167534
0.0167484
0.0167433
0.0167381
0.0167328
0.0167274
0.016722
0.0167164
0.0167109
0.0167052
0.0166996
0.0166938
0.016688
0.0166822
0.0166763
0.0166703
0.0166643
0.0166583
0.0166522
0.016646
0.0166398
0.0166336
0.0166273
0.0166209
0.0166146
0.0166082
0.0166018
0.0165954
0.016589
0.0165826
0.0165762
0.0165698
0.0165635
0.0165572
0.0165509
0.0165448
0.0165387
0.0165327
0.0165268
0.0165211
0.0165155
0.0165101
0.0165048
0.0164997
0.0164949
0.0164902
0.0164859
0.0164817
0.0164779
0.0164743
0.0164711
0.0164682
0.0164656
0.0164634
0.0164616
0.0164602
0.0164592
0.0164585
0.0164584
0.0164587
0.0164594
0.0164606
0.0164623
0.0164645
0.0164671
0.0164703
0.0164739
0.0164781
0.0164828
0.0164879
0.0164936
0.0164997
0.0165063
0.0165134
0.016521
0.0165289
0.0165373
0.0165461
0.0165553
0.0165648
0.0165746
0.0165847
0.016595
0.0166056
0.0166162
0.016627
0.0166378
0.0166487
0.0166595
0.0166701
0.0166806
0.0166908
0.0167008
0.0167103
0.0167194
0.0167279
0.0167359
0.0167432
0.0167497
0.0167554
0.0167602
0.0167641
0.0167669
0.0167686
0.0167691
0.0167683
0.0167663
0.0167629
0.0167581
0.0167518
0.016744
0.0167347
0.0167238
0.0167113
0.0166972
0.0166815
0.0166642
0.0166452
0.0166247
0.0166025
0.0165788
0.0165536
0.0165269
0.0164988
0.0164693
0.0164385
0.0164065
0.0163732
0.0163389
0.0163036
0.0162674
0.0162304
0.0161926
0.0161543
0.0161154
0.016076
0.0160364
0.0159965
0.0159565
0.0159165
0.0158766
0.0158368
0.0157973
0.0157582
0.0157195
0.0156813
0.0156437
0.0156068
0.0155707
0.0155353
0.0155008
0.0154673
0.0154347
0.0154031
0.0153725
0.0153431
0.0153147
0.0152875
0.0152615
0.0152366
0.0152129
0.0151904
0.0151691
0.015149
0.0151302
0.0151125
0.0150961
0.0150808
0.0150667
0.0150539
0.0150422
0.0150316
0.0150223
0.0150141
0.015007
0.0150011
0.0149963
0.0149927
0.0149902
0.0149888
0.0149885
0.0149894
0.0149914
0.0149947
0.0149991
0.0150047
0.0150116
0.0150204
0.0150279
0.0168032
0.0168006
0.0167971
0.0167935
0.0167896
0.0167856
0.0167813
0.0167769
0.0167723
0.0167675
0.0167627
0.0167578
0.0167527
0.0167476
0.0167424
0.0167371
0.0167318
0.0167264
0.016721
0.0167155
0.0167099
0.0167043
0.0166987
0.016693
0.0166872
0.0166814
0.0166755
0.0166695
0.0166636
0.0166575
0.0166514
0.0166452
0.016639
0.0166327
0.0166264
0.0166201
0.0166137
0.0166073
0.0166008
0.0165944
0.0165879
0.0165815
0.0165751
0.0165687
0.0165623
0.016556
0.0165497
0.0165435
0.0165375
0.0165315
0.0165256
0.0165199
0.0165143
0.0165089
0.0165037
0.0164987
0.0164939
0.0164893
0.016485
0.016481
0.0164773
0.0164738
0.0164707
0.0164679
0.0164655
0.0164635
0.0164618
0.0164605
0.0164597
0.0164593
0.0164593
0.0164598
0.0164607
0.0164621
0.016464
0.0164664
0.0164692
0.0164726
0.0164765
0.0164808
0.0164857
0.016491
0.0164969
0.0165032
0.01651
0.0165173
0.016525
0.0165331
0.0165416
0.0165505
0.0165597
0.0165693
0.0165791
0.0165892
0.0165995
0.01661
0.0166206
0.0166312
0.0166419
0.0166525
0.016663
0.0166733
0.0166834
0.0166932
0.0167026
0.0167116
0.0167201
0.016728
0.0167352
0.0167417
0.0167474
0.0167522
0.016756
0.0167588
0.0167604
0.0167609
0.0167602
0.0167582
0.0167548
0.01675
0.0167437
0.0167359
0.0167266
0.0167157
0.0167032
0.0166891
0.0166733
0.016656
0.016637
0.0166164
0.0165942
0.0165704
0.0165452
0.0165184
0.0164902
0.0164606
0.0164297
0.0163976
0.0163643
0.0163299
0.0162945
0.0162582
0.016221
0.0161832
0.0161447
0.0161057
0.0160663
0.0160266
0.0159867
0.0159466
0.0159066
0.0158666
0.0158269
0.0157874
0.0157483
0.0157096
0.0156715
0.015634
0.0155972
0.0155611
0.0155259
0.0154915
0.0154581
0.0154257
0.0153943
0.0153639
0.0153347
0.0153065
0.0152795
0.0152537
0.0152291
0.0152056
0.0151833
0.0151623
0.0151424
0.0151238
0.0151063
0.01509
0.015075
0.0150611
0.0150483
0.0150368
0.0150264
0.0150171
0.015009
0.0150021
0.0149962
0.0149915
0.0149879
0.0149855
0.0149842
0.014984
0.014985
0.0149872
0.0149906
0.0149952
0.0150011
0.0150084
0.0150176
0.0150255
0.0168111
0.016808
0.0168039
0.0167997
0.0167955
0.016791
0.0167865
0.0167818
0.016777
0.0167721
0.0167672
0.0167622
0.0167571
0.0167519
0.0167467
0.0167415
0.0167362
0.0167309
0.0167255
0.01672
0.0167146
0.016709
0.0167034
0.0166978
0.0166921
0.0166863
0.0166805
0.0166746
0.0166687
0.0166627
0.0166566
0.0166504
0.0166442
0.016638
0.0166317
0.0166253
0.0166189
0.0166125
0.016606
0.0165995
0.016593
0.0165865
0.01658
0.0165735
0.016567
0.0165606
0.0165543
0.016548
0.0165418
0.0165357
0.0165297
0.0165238
0.0165181
0.0165125
0.0165071
0.0165019
0.016497
0.0164922
0.0164877
0.0164835
0.0164795
0.0164758
0.0164725
0.0164695
0.0164668
0.0164645
0.0164626
0.016461
0.0164599
0.0164592
0.0164589
0.0164591
0.0164597
0.0164609
0.0164624
0.0164645
0.0164671
0.0164701
0.0164737
0.0164777
0.0164823
0.0164873
0.0164928
0.0164989
0.0165054
0.0165123
0.0165197
0.0165275
0.0165358
0.0165444
0.0165534
0.0165627
0.0165723
0.0165822
0.0165922
0.0166025
0.0166129
0.0166234
0.0166338
0.0166443
0.0166547
0.0166649
0.0166749
0.0166846
0.016694
0.0167029
0.0167113
0.0167192
0.0167264
0.0167329
0.0167386
0.0167434
0.0167472
0.01675
0.0167517
0.0167523
0.0167516
0.0167496
0.0167462
0.0167415
0.0167352
0.0167275
0.0167182
0.0167074
0.0166949
0.0166808
0.0166651
0.0166477
0.0166287
0.0166081
0.0165859
0.0165621
0.0165367
0.0165099
0.0164816
0.016452
0.016421
0.0163888
0.0163553
0.0163208
0.0162853
0.0162489
0.0162116
0.0161736
0.0161351
0.0160959
0.0160564
0.0160166
0.0159766
0.0159364
0.0158963
0.0158563
0.0158164
0.0157769
0.0157378
0.0156991
0.015661
0.0156235
0.0155867
0.0155508
0.0155156
0.0154813
0.015448
0.0154157
0.0153845
0.0153543
0.0153252
0.0152972
0.0152704
0.0152448
0.0152203
0.0151971
0.015175
0.0151541
0.0151345
0.015116
0.0150987
0.0150827
0.0150677
0.015054
0.0150414
0.01503
0.0150197
0.0150106
0.0150026
0.0149957
0.01499
0.0149853
0.0149818
0.0149795
0.0149782
0.0149782
0.0149793
0.0149816
0.0149851
0.0149899
0.0149961
0.0150037
0.0150133
0.0150214
0.0168191
0.0168155
0.0168108
0.0168061
0.0168014
0.0167966
0.0167917
0.0167868
0.0167818
0.0167767
0.0167717
0.0167665
0.0167614
0.0167562
0.016751
0.0167458
0.0167405
0.0167352
0.0167299
0.0167245
0.0167191
0.0167136
0.0167081
0.0167025
0.0166968
0.0166911
0.0166853
0.0166795
0.0166736
0.0166676
0.0166616
0.0166554
0.0166492
0.016643
0.0166367
0.0166303
0.0166238
0.0166174
0.0166108
0.0166043
0.0165977
0.0165911
0.0165845
0.016578
0.0165714
0.0165649
0.0165584
0.016552
0.0165456
0.0165394
0.0165332
0.0165272
0.0165213
0.0165155
0.0165099
0.0165045
0.0164993
0.0164944
0.0164896
0.0164852
0.0164809
0.016477
0.0164734
0.0164701
0.0164672
0.0164646
0.0164624
0.0164605
0.0164591
0.0164581
0.0164575
0.0164574
0.0164577
0.0164585
0.0164597
0.0164614
0.0164637
0.0164664
0.0164696
0.0164733
0.0164775
0.0164822
0.0164874
0.0164931
0.0164993
0.0165059
0.016513
0.0165206
0.0165285
0.0165369
0.0165456
0.0165546
0.016564
0.0165736
0.0165835
0.0165936
0.0166038
0.0166141
0.0166244
0.0166347
0.016645
0.0166551
0.0166651
0.0166747
0.016684
0.0166929
0.0167014
0.0167092
0.0167165
0.016723
0.0167287
0.0167336
0.0167375
0.0167404
0.0167422
0.0167428
0.0167422
0.0167403
0.016737
0.0167324
0.0167262
0.0167186
0.0167094
0.0166986
0.0166862
0.0166722
0.0166565
0.0166392
0.0166202
0.0165996
0.0165774
0.0165535
0.0165282
0.0165013
0.016473
0.0164432
0.0164122
0.0163798
0.0163463
0.0163117
0.016276
0.0162395
0.0162021
0.016164
0.0161252
0.016086
0.0160463
0.0160063
0.0159662
0.0159259
0.0158856
0.0158455
0.0158056
0.015766
0.0157267
0.015688
0.0156499
0.0156124
0.0155756
0.0155396
0.0155045
0.0154703
0.015437