/*--------------------------------*- C++ -*----------------------------------*\
  =========                 |
  \\      /  F ield         | OpenFOAM: The Open Source CFD Toolbox
   \\    /   O peration     | Website:  https://openfoam.org
    \\  /    A nd           | Version:  6
     \\/     M anipulation  |
\*---------------------------------------------------------------------------*/
FoamFile
{
    version     2.0;
    format      ascii;
    class       volVectorField;
    location    "0";
    object      U;
}
// * * * * * * * * * * * * * * * * * * * * * * * * * * * * * * * * * * * * * //

dimensions      [0 1 -1 0 0 0 0];

internalField   nonuniform List<vector> 
40000
(
(2.43543e-07 -2.43682e-07 0)
(2.25576e-06 -8.17799e-07 0)
(5.72542e-06 -1.18689e-06 0)
(1.00178e-05 -1.28537e-06 0)
(1.43145e-05 -1.20804e-06 0)
(1.80796e-05 -1.01505e-06 0)
(2.0961e-05 -7.50015e-07 0)
(2.2734e-05 -4.44073e-07 0)
(2.3269e-05 -1.18386e-07 0)
(2.2505e-05 2.12741e-07 0)
(2.043e-05 5.39495e-07 0)
(1.70662e-05 8.55085e-07 0)
(1.24597e-05 1.15492e-06 0)
(6.67271e-06 1.43611e-06 0)
(-2.22337e-07 1.69704e-06 0)
(-8.14683e-06 1.93705e-06 0)
(-1.70195e-05 2.1561e-06 0)
(-2.67589e-05 2.35462e-06 0)
(-3.72856e-05 2.53343e-06 0)
(-4.85233e-05 2.69362e-06 0)
(-6.03998e-05 2.8365e-06 0)
(-7.28482e-05 2.9635e-06 0)
(-8.58068e-05 3.07609e-06 0)
(-9.92198e-05 3.17579e-06 0)
(-0.000113037 3.26407e-06 0)
(-0.000127214 3.34241e-06 0)
(-0.000141713 3.4122e-06 0)
(-0.0001565 3.47478e-06 0)
(-0.000171548 3.53138e-06 0)
(-0.000186832 3.58316e-06 0)
(-0.000202334 3.63117e-06 0)
(-0.00021804 3.67635e-06 0)
(-0.000233938 3.71956e-06 0)
(-0.00025002 3.76155e-06 0)
(-0.000266282 3.80297e-06 0)
(-0.000282721 3.84438e-06 0)
(-0.000299336 3.88625e-06 0)
(-0.00031613 3.92896e-06 0)
(-0.000333105 3.97283e-06 0)
(-0.000350265 4.01809e-06 0)
(-0.000367616 4.06491e-06 0)
(-0.000385162 4.11338e-06 0)
(-0.00040291 4.16356e-06 0)
(-0.000420865 4.21543e-06 0)
(-0.000439034 4.26894e-06 0)
(-0.000457422 4.32398e-06 0)
(-0.000476034 4.3804e-06 0)
(-0.000494875 4.43803e-06 0)
(-0.000513948 4.49663e-06 0)
(-0.000533256 4.55595e-06 0)
(-0.0005528 4.61571e-06 0)
(-0.000572581 4.67558e-06 0)
(-0.000592598 4.73521e-06 0)
(-0.000612849 4.79423e-06 0)
(-0.000633328 4.85223e-06 0)
(-0.000654031 4.90878e-06 0)
(-0.000674949 4.96342e-06 0)
(-0.000696073 5.01567e-06 0)
(-0.000717392 5.06503e-06 0)
(-0.000738891 5.11097e-06 0)
(-0.000760555 5.15293e-06 0)
(-0.000782365 5.19035e-06 0)
(-0.000804301 5.22264e-06 0)
(-0.00082634 5.24918e-06 0)
(-0.000848455 5.26936e-06 0)
(-0.00087062 5.28253e-06 0)
(-0.000892802 5.28805e-06 0)
(-0.000914969 5.28524e-06 0)
(-0.000937084 5.27345e-06 0)
(-0.000959107 5.25199e-06 0)
(-0.000980998 5.22019e-06 0)
(-0.00100271 5.17739e-06 0)
(-0.0010242 5.1229e-06 0)
(-0.00104542 5.05608e-06 0)
(-0.0010663 4.97626e-06 0)
(-0.00108681 4.88284e-06 0)
(-0.00110688 4.77519e-06 0)
(-0.00112644 4.65275e-06 0)
(-0.00114545 4.51495e-06 0)
(-0.00116382 4.36128e-06 0)
(-0.00118151 4.19129e-06 0)
(-0.00119843 4.00453e-06 0)
(-0.00121452 3.80064e-06 0)
(-0.00122971 3.5793e-06 0)
(-0.00124393 3.34026e-06 0)
(-0.0012571 3.08334e-06 0)
(-0.00126915 2.80841e-06 0)
(-0.00128001 2.51546e-06 0)
(-0.0012896 2.20453e-06 0)
(-0.00129785 1.87575e-06 0)
(-0.00130469 1.52937e-06 0)
(-0.00131004 1.16571e-06 0)
(-0.00131384 7.85201e-07 0)
(-0.00131602 3.88376e-07 0)
(-0.00131652 -2.41219e-08 0)
(-0.00131527 -4.51542e-07 0)
(-0.00131222 -8.93023e-07 0)
(-0.00130731 -1.34759e-06 0)
(-0.00130049 -1.81415e-06 0)
(-0.00129172 -2.29152e-06 0)
(-0.00128095 -2.77838e-06 0)
(-0.00126816 -3.27331e-06 0)
(-0.0012533 -3.77481e-06 0)
(-0.00123637 -4.28124e-06 0)
(-0.00121734 -4.79089e-06 0)
(-0.0011962 -5.30196e-06 0)
(-0.00117297 -5.81257e-06 0)
(-0.00114763 -6.32075e-06 0)
(-0.00112022 -6.82449e-06 0)
(-0.00109074 -7.32173e-06 0)
(-0.00105924 -7.81033e-06 0)
(-0.00102575 -8.28817e-06 0)
(-0.000990329 -8.75307e-06 0)
(-0.000953026 -9.20289e-06 0)
(-0.000913912 -9.63546e-06 0)
(-0.000873061 -1.00487e-05 0)
(-0.000830557 -1.04404e-05 0)
(-0.000786493 -1.08087e-05 0)
(-0.000740968 -1.11515e-05 0)
(-0.00069409 -1.1467e-05 0)
(-0.000645974 -1.17534e-05 0)
(-0.000596743 -1.20091e-05 0)
(-0.000546525 -1.22325e-05 0)
(-0.000495453 -1.24223e-05 0)
(-0.000443668 -1.25772e-05 0)
(-0.000391314 -1.26961e-05 0)
(-0.000338538 -1.27783e-05 0)
(-0.000285493 -1.28229e-05 0)
(-0.000232331 -1.28294e-05 0)
(-0.000179208 -1.27977e-05 0)
(-0.00012628 -1.27275e-05 0)
(-7.3704e-05 -1.2619e-05 0)
(-2.16347e-05 -1.24725e-05 0)
(2.97738e-05 -1.22885e-05 0)
(8.03702e-05 -1.20677e-05 0)
(0.000130006 -1.18111e-05 0)
(0.000178537 -1.15197e-05 0)
(0.000225825 -1.11949e-05 0)
(0.000271734 -1.08382e-05 0)
(0.000316138 -1.04511e-05 0)
(0.000358915 -1.00354e-05 0)
(0.000399951 -9.59319e-06 0)
(0.000439142 -9.12637e-06 0)
(0.000476389 -8.63711e-06 0)
(0.000511605 -8.12767e-06 0)
(0.000544709 -7.60034e-06 0)
(0.000575632 -7.05748e-06 0)
(0.000604313 -6.50148e-06 0)
(0.000630701 -5.93476e-06 0)
(0.000654754 -5.35971e-06 0)
(0.000676441 -4.77871e-06 0)
(0.000695741 -4.19412e-06 0)
(0.000712639 -3.60823e-06 0)
(0.000727134 -3.02325e-06 0)
(0.000739229 -2.44134e-06 0)
(0.00074894 -1.86453e-06 0)
(0.000756289 -1.29478e-06 0)
(0.000761304 -7.33895e-07 0)
(0.000764025 -1.83583e-07 0)
(0.000764493 3.54588e-07 0)
(0.00076276 8.79182e-07 0)
(0.000758882 1.3889e-06 0)
(0.00075292 1.88258e-06 0)
(0.00074494 2.35919e-06 0)
(0.000735012 2.81784e-06 0)
(0.00072321 3.25774e-06 0)
(0.000709611 3.67824e-06 0)
(0.000694294 4.07877e-06 0)
(0.000677343 4.45885e-06 0)
(0.000658841 4.81808e-06 0)
(0.000638876 5.1561e-06 0)
(0.000617535 5.47257e-06 0)
(0.000594908 5.76718e-06 0)
(0.000571088 6.03954e-06 0)
(0.000546167 6.28924e-06 0)
(0.000520243 6.51576e-06 0)
(0.000493414 6.71843e-06 0)
(0.000465783 6.89639e-06 0)
(0.000437456 7.04857e-06 0)
(0.000408546 7.17359e-06 0)
(0.000379171 7.26973e-06 0)
(0.000349458 7.33485e-06 0)
(0.000319542 7.36632e-06 0)
(0.000289574 7.36096e-06 0)
(0.000259714 7.31492e-06 0)
(0.000230141 7.22364e-06 0)
(0.000201054 7.08168e-06 0)
(0.000172672 6.88268e-06 0)
(0.000145244 6.61923e-06 0)
(0.000119043 6.28283e-06 0)
(9.43778e-05 5.86383e-06 0)
(7.15907e-05 5.35155e-06 0)
(5.1059e-05 4.73475e-06 0)
(3.31921e-05 4.00262e-06 0)
(1.84184e-05 3.14743e-06 0)
(7.15723e-06 2.17086e-06 0)
(-2.39913e-07 1.09559e-06 0)
(-3.63337e-06 -1.37541e-08 0)
(-3.49668e-06 -9.48165e-07 0)
(-1.13048e-06 -1.13043e-06 0)
(8.20483e-07 -2.2587e-06 0)
(5.97793e-06 -5.96498e-06 0)
(1.37164e-05 -8.15278e-06 0)
(2.27452e-05 -8.72087e-06 0)
(3.14174e-05 -8.02825e-06 0)
(3.85787e-05 -6.44061e-06 0)
(4.34079e-05 -4.25334e-06 0)
(4.5343e-05 -1.69191e-06 0)
(4.40327e-05 1.07653e-06 0)
(3.92887e-05 3.92996e-06 0)
(3.10458e-05 6.78002e-06 0)
(1.93307e-05 9.56331e-06 0)
(4.23727e-06 1.22353e-05 0)
(-1.40931e-05 1.47657e-05 0)
(-3.54864e-05 1.71355e-05 0)
(-5.97482e-05 1.93342e-05 0)
(-8.66726e-05 2.13577e-05 0)
(-0.00011605 2.32069e-05 0)
(-0.000147671 2.48863e-05 0)
(-0.000181334 2.64036e-05 0)
(-0.000216846 2.77684e-05 0)
(-0.000254026 2.89915e-05 0)
(-0.000292704 3.00848e-05 0)
(-0.000332726 3.10608e-05 0)
(-0.000373954 3.19319e-05 0)
(-0.000416261 3.27105e-05 0)
(-0.000459539 3.34085e-05 0)
(-0.000503691 3.40375e-05 0)
(-0.000548636 3.46084e-05 0)
(-0.000594305 3.51313e-05 0)
(-0.000640639 3.56154e-05 0)
(-0.000687594 3.60694e-05 0)
(-0.000735132 3.65009e-05 0)
(-0.000783228 3.69166e-05 0)
(-0.000831861 3.73227e-05 0)
(-0.000881021 3.77242e-05 0)
(-0.0009307 3.81255e-05 0)
(-0.000980899 3.85302e-05 0)
(-0.00103162 3.89414e-05 0)
(-0.00108287 3.93612e-05 0)
(-0.00113466 3.97914e-05 0)
(-0.001187 4.0233e-05 0)
(-0.0012399 4.06865e-05 0)
(-0.00129337 4.1152e-05 0)
(-0.00134743 4.16291e-05 0)
(-0.00140209 4.2117e-05 0)
(-0.00145736 4.26143e-05 0)
(-0.00151324 4.31196e-05 0)
(-0.00156975 4.36308e-05 0)
(-0.00162689 4.41456e-05 0)
(-0.00168466 4.46616e-05 0)
(-0.00174305 4.51757e-05 0)
(-0.00180207 4.56849e-05 0)
(-0.00186169 4.61857e-05 0)
(-0.00192191 4.66745e-05 0)
(-0.00198271 4.71472e-05 0)
(-0.00204406 4.75998e-05 0)
(-0.00210592 4.80278e-05 0)
(-0.00216828 4.84266e-05 0)
(-0.00223107 4.87914e-05 0)
(-0.00229426 4.91172e-05 0)
(-0.0023578 4.93987e-05 0)
(-0.00242161 4.96306e-05 0)
(-0.00248564 4.98073e-05 0)
(-0.0025498 4.99232e-05 0)
(-0.00261401 4.99723e-05 0)
(-0.0026782 4.99488e-05 0)
(-0.00274225 4.98467e-05 0)
(-0.00280606 4.96599e-05 0)
(-0.00286952 4.93824e-05 0)
(-0.00293252 4.9008e-05 0)
(-0.00299492 4.85306e-05 0)
(-0.00305658 4.79444e-05 0)
(-0.00311738 4.72434e-05 0)
(-0.00317715 4.64219e-05 0)
(-0.00323573 4.54743e-05 0)
(-0.00329298 4.43952e-05 0)
(-0.00334871 4.31796e-05 0)
(-0.00340276 4.18226e-05 0)
(-0.00345493 4.03199e-05 0)
(-0.00350504 3.86673e-05 0)
(-0.00355291 3.68614e-05 0)
(-0.00359833 3.4899e-05 0)
(-0.00364111 3.27775e-05 0)
(-0.00368105 3.0495e-05 0)
(-0.00371794 2.80501e-05 0)
(-0.00375158 2.54422e-05 0)
(-0.00378176 2.26713e-05 0)
(-0.00380828 1.97383e-05 0)
(-0.00383095 1.66448e-05 0)
(-0.00384956 1.33933e-05 0)
(-0.00386391 9.98708e-06 0)
(-0.00387382 6.43046e-06 0)
(-0.0038791 2.72862e-06 0)
(-0.00387958 -1.11226e-06 0)
(-0.00387509 -5.08508e-06 0)
(-0.00386547 -9.18171e-06 0)
(-0.00385058 -1.33931e-05 0)
(-0.00383027 -1.7709e-05 0)
(-0.00380444 -2.21186e-05 0)
(-0.00377296 -2.66097e-05 0)
(-0.00373576 -3.11694e-05 0)
(-0.00369276 -3.57839e-05 0)
(-0.00364389 -4.04385e-05 0)
(-0.00358913 -4.51176e-05 0)
(-0.00352846 -4.9805e-05 0)
(-0.00346187 -5.44838e-05 0)
(-0.0033894 -5.91363e-05 0)
(-0.00331109 -6.37446e-05 0)
(-0.00322701 -6.82901e-05 0)
(-0.00313726 -7.2754e-05 0)
(-0.00304195 -7.71173e-05 0)
(-0.00294121 -8.13607e-05 0)
(-0.00283523 -8.54651e-05 0)
(-0.00272417 -8.94115e-05 0)
(-0.00260826 -9.31811e-05 0)
(-0.00248772 -9.67554e-05 0)
(-0.00236281 -0.000100117 0)
(-0.00223382 -0.000103247 0)
(-0.00210103 -0.000106131 0)
(-0.00196477 -0.000108753 0)
(-0.00182537 -0.000111097 0)
(-0.0016832 -0.00011315 0)
(-0.00153861 -0.000114901 0)
(-0.00139199 -0.000116339 0)
(-0.00124375 -0.000117453 0)
(-0.00109428 -0.000118237 0)
(-0.000944007 -0.000118683 0)
(-0.000793351 -0.000118788 0)
(-0.000642739 -0.000118548 0)
(-0.000492602 -0.000117963 0)
(-0.000343371 -0.000117033 0)
(-0.000195475 -0.000115761 0)
(-4.93372e-05 -0.000114151 0)
(9.46224e-05 -0.000112209 0)
(0.000235994 -0.000109944 0)
(0.000374378 -0.000107363 0)
(0.000509387 -0.00010448 0)
(0.000640648 -0.000101305 0)
(0.000767805 -9.78546e-05 0)
(0.000890519 -9.41427e-05 0)
(0.00100847 -9.01863e-05 0)
(0.00112136 -8.60032e-05 0)
(0.00122892 -8.16122e-05 0)
(0.00133089 -7.70326e-05 0)
(0.00142704 -7.22848e-05 0)
(0.00151717 -6.73893e-05 0)
(0.0016011 -6.23672e-05 0)
(0.00167869 -5.72397e-05 0)
(0.0017498 -5.20281e-05 0)
(0.00181434 -4.67536e-05 0)
(0.00187224 -4.1437e-05 0)
(0.00192344 -3.60989e-05 0)
(0.00196793 -3.07592e-05 0)
(0.00200571 -2.54374e-05 0)
(0.0020368 -2.01519e-05 0)
(0.00206126 -1.49205e-05 0)
(0.00207915 -9.75992e-06 0)
(0.00209057 -4.68594e-06 0)
(0.00209563 2.86786e-07 0)
(0.00209446 5.14469e-06 0)
(0.0020872 9.87535e-06 0)
(0.00207401 1.44675e-05 0)
(0.00205508 1.89109e-05 0)
(0.00203058 2.31966e-05 0)
(0.00200071 2.73163e-05 0)
(0.0019657 3.12631e-05 0)
(0.00192575 3.50307e-05 0)
(0.00188109 3.86134e-05 0)
(0.00183196 4.20063e-05 0)
(0.00177859 4.52047e-05 0)
(0.00172125 4.82043e-05 0)
(0.00166018 5.10005e-05 0)
(0.00159564 5.35888e-05 0)
(0.0015279 5.59637e-05 0)
(0.00145725 5.8119e-05 0)
(0.00138396 6.00475e-05 0)
(0.00130833 6.174e-05 0)
(0.00123068 6.31857e-05 0)
(0.00115132 6.43711e-05 0)
(0.00107062 6.52799e-05 0)
(0.000988926 6.58926e-05 0)
(0.000906643 6.61854e-05 0)
(0.000824194 6.61305e-05 0)
(0.000742044 6.5695e-05 0)
(0.000660696 6.48403e-05 0)
(0.000580705 6.35224e-05 0)
(0.000502678 6.16906e-05 0)
(0.000427284 5.92884e-05 0)
(0.000355256 5.62533e-05 0)
(0.000287396 5.25191e-05 0)
(0.000224571 4.80182e-05 0)
(0.000167707 4.26896e-05 0)
(0.000117772 3.64908e-05 0)
(7.57226e-05 2.94242e-05 0)
(4.24351e-05 2.15866e-05 0)
(1.85524e-05 1.32642e-05 0)
(4.21191e-06 5.1083e-06 0)
(-1.488e-06 -1.48478e-06 0)
(-9.50087e-07 -3.49814e-06 0)
(1.19724e-06 -5.74856e-06 0)
(8.20811e-06 -1.37203e-05 0)
(1.79726e-05 -1.78989e-05 0)
(2.87806e-05 -1.85935e-05 0)
(3.85332e-05 -1.65298e-05 0)
(4.57496e-05 -1.24337e-05 0)
(4.93322e-05 -6.92121e-06 0)
(4.84965e-05 -4.8609e-07 0)
(4.27282e-05 6.4885e-06 0)
(3.17332e-05 1.37109e-05 0)
(1.53909e-05 2.09625e-05 0)
(-6.2848e-06 2.80818e-05 0)
(-3.31782e-05 3.49521e-05 0)
(-6.50984e-05 4.14917e-05 0)
(-0.000101802 4.76465e-05 0)
(-0.000143009 5.33844e-05 0)
(-0.000188419 5.86898e-05 0)
(-0.000237721 6.35609e-05 0)
(-0.000290605 6.80056e-05 0)
(-0.000346765 7.204e-05 0)
(-0.000405906 7.56856e-05 0)
(-0.00046775 7.89681e-05 0)
(-0.000532038 8.19159e-05 0)
(-0.000598528 8.45592e-05 0)
(-0.000667003 8.69286e-05 0)
(-0.000737265 8.90548e-05 0)
(-0.000809139 9.09679e-05 0)
(-0.000882472 9.26968e-05 0)
(-0.000957131 9.42691e-05 0)
(-0.001033 9.57104e-05 0)
(-0.00110999 9.70448e-05 0)
(-0.00118802 9.8294e-05 0)
(-0.00126702 9.94779e-05 0)
(-0.00134695 0.000100614 0)
(-0.00142778 0.000101718 0)
(-0.00150947 0.000102804 0)
(-0.00159201 0.000103882 0)
(-0.0016754 0.000104963 0)
(-0.00175963 0.000106054 0)
(-0.00184471 0.000107162 0)
(-0.00193064 0.000108291 0)
(-0.00201745 0.000109444 0)
(-0.00210514 0.000110622 0)
(-0.00219372 0.000111827 0)
(-0.00228323 0.000113056 0)
(-0.00237365 0.000114309 0)
(-0.00246502 0.000115581 0)
(-0.00255734 0.000116869 0)
(-0.0026506 0.000118168 0)
(-0.00274483 0.000119473 0)
(-0.00284001 0.000120775 0)
(-0.00293614 0.000122068 0)
(-0.00303319 0.000123345 0)
(-0.00313116 0.000124594 0)
(-0.00323001 0.000125808 0)
(-0.00332971 0.000126976 0)
(-0.00343022 0.000128087 0)
(-0.00353148 0.00012913 0)
(-0.00363344 0.000130092 0)
(-0.00373602 0.00013096 0)
(-0.00383914 0.000131723 0)
(-0.00394272 0.000132365 0)
(-0.00404666 0.000132874 0)
(-0.00415083 0.000133233 0)
(-0.00425513 0.00013343 0)
(-0.00435941 0.000133448 0)
(-0.00446353 0.000133272 0)
(-0.00456733 0.000132886 0)
(-0.00467065 0.000132275 0)
(-0.0047733 0.000131423 0)
(-0.00487509 0.000130313 0)
(-0.00497581 0.000128931 0)
(-0.00507525 0.000127261 0)
(-0.00517319 0.000125288 0)
(-0.00526937 0.000122997 0)
(-0.00536355 0.000120373 0)
(-0.00545547 0.000117404 0)
(-0.00554486 0.000114075 0)
(-0.00563144 0.000110375 0)
(-0.00571492 0.000106293 0)
(-0.005795 0.000101819 0)
(-0.00587139 9.69435e-05 0)
(-0.00594377 9.16589e-05 0)
(-0.00601183 8.59594e-05 0)
(-0.00607525 7.98401e-05 0)
(-0.00613372 7.32982e-05 0)
(-0.00618691 6.63325e-05 0)
(-0.0062345 5.89438e-05 0)
(-0.00627618 5.11348e-05 0)
(-0.00631163 4.29103e-05 0)
(-0.00634054 3.42775e-05 0)
(-0.0063626 2.52455e-05 0)
(-0.00637753 1.58262e-05 0)
(-0.00638503 6.03345e-06 0)
(-0.00638484 -4.11605e-06 0)
(-0.0063767 -1.46033e-05 0)
(-0.00636036 -2.54068e-05 0)
(-0.0063356 -3.65024e-05 0)
(-0.00630221 -4.78636e-05 0)
(-0.00626001 -5.94614e-05 0)
(-0.00620884 -7.12641e-05 0)
(-0.00614856 -8.32381e-05 0)
(-0.00607907 -9.53473e-05 0)
(-0.00600027 -0.000107553 0)
(-0.00591213 -0.000119816 0)
(-0.00581461 -0.000132093 0)
(-0.00570773 -0.000144341 0)
(-0.00559154 -0.000156515 0)
(-0.00546611 -0.000168567 0)
(-0.00533156 -0.000180451 0)
(-0.00518803 -0.000192118 0)
(-0.00503572 -0.000203518 0)
(-0.00487485 -0.000214603 0)
(-0.00470568 -0.000225324 0)
(-0.00452851 -0.000235632 0)
(-0.00434365 -0.000245479 0)
(-0.0041515 -0.000254818 0)
(-0.00395244 -0.000263602 0)
(-0.0037469 -0.000271789 0)
(-0.00353537 -0.000279335 0)
(-0.00331833 -0.000286201 0)
(-0.00309631 -0.00029235 0)
(-0.00286987 -0.000297748 0)
(-0.00263957 -0.000302362 0)
(-0.00240603 -0.000306166 0)
(-0.00216985 -0.000309135 0)
(-0.00193167 -0.00031125 0)
(-0.00169214 -0.000312493 0)
(-0.00145191 -0.000312854 0)
(-0.00121166 -0.000312324 0)
(-0.000972059 -0.000310901 0)
(-0.000733769 -0.000308585 0)
(-0.000497464 -0.000305385 0)
(-0.000263806 -0.000301308 0)
(-3.34495e-05 -0.000296372 0)
(0.000192964 -0.000290595 0)
(0.000414807 -0.000284001 0)
(0.000631473 -0.000276618 0)
(0.000842374 -0.000268477 0)
(0.00104695 -0.000259615 0)
(0.00124467 -0.000250069 0)
(0.00143501 -0.000239883 0)
(0.00161752 -0.0002291 0)
(0.00179175 -0.000217769 0)
(0.00195729 -0.000205938 0)
(0.00211378 -0.000193659 0)
(0.00226089 -0.000180985 0)
(0.00239832 -0.000167969 0)
(0.00252583 -0.000154665 0)
(0.0026432 -0.000141127 0)
(0.00275027 -0.000127411 0)
(0.00284691 -0.000113569 0)
(0.00293303 -9.96557e-05 0)
(0.00300857 -8.57212e-05 0)
(0.00307352 -7.18163e-05 0)
(0.00312792 -5.79891e-05 0)
(0.00317181 -4.42861e-05 0)
(0.00320531 -3.07511e-05 0)
(0.00322852 -1.74257e-05 0)
(0.00324163 -4.34873e-06 0)
(0.0032448 8.4436e-06 0)
(0.00323826 2.09179e-05 0)
(0.00322225 3.30437e-05 0)
(0.00319704 4.4793e-05 0)
(0.0031629 5.61408e-05 0)
(0.00312015 6.70644e-05 0)
(0.00306911 7.75435e-05 0)
(0.00301011 8.75599e-05 0)
(0.00294351 9.7097e-05 0)
(0.00286968 0.00010614 0)
(0.00278899 0.000114674 0)
(0.00270185 0.000122687 0)
(0.00260866 0.000130164 0)
(0.00250982 0.00013709 0)
(0.00240579 0.00014345 0)
(0.00229699 0.000149226 0)
(0.0021839 0.000154396 0)
(0.002067 0.000158936 0)
(0.00194678 0.000162815 0)
(0.00182377 0.000165998 0)
(0.00169854 0.000168442 0)
(0.00157168 0.000170096 0)
(0.00144383 0.0001709 0)
(0.00131566 0.000170784 0)
(0.00118791 0.000169666 0)
(0.00106137 0.000167454 0)
(0.000936924 0.00016404 0)
(0.000815499 0.000159308 0)
(0.000698116 0.000153126 0)
(0.000585879 0.000145358 0)
(0.000479973 0.000135864 0)
(0.000381656 0.000124509 0)
(0.000292239 0.00011119 0)
(0.000213051 9.58609e-05 0)
(0.000145367 7.85956e-05 0)
(9.02992e-05 5.9691e-05 0)
(4.86181e-05 3.98455e-05 0)
(2.04796e-05 2.04594e-05 0)
(5.11438e-06 4.21855e-06 0)
(-1.63475e-08 -3.6378e-06 0)
(1.3071e-06 -1.00894e-05 0)
(8.83035e-06 -2.28071e-05 0)
(1.87552e-05 -2.87262e-05 0)
(2.90544e-05 -2.88857e-05 0)
(3.73561e-05 -2.44878e-05 0)
(4.19987e-05 -1.66695e-05 0)
(4.17353e-05 -6.41215e-06 0)
(3.56546e-05 5.47659e-06 0)
(2.31438e-05 1.83513e-05 0)
(3.84e-06 3.17067e-05 0)
(-2.24159e-05 4.5154e-05 0)
(-5.56212e-05 5.83995e-05 0)
(-9.56463e-05 7.12264e-05 0)
(-0.000142266 8.34794e-05 0)
(-0.000195186 9.50529e-05 0)
(-0.000254062 0.000105881 0)
(-0.000318521 0.000115928 0)
(-0.000388172 0.000125186 0)
(-0.000462622 0.000133663 0)
(-0.000541479 0.000141385 0)
(-0.000624367 0.000148388 0)
(-0.000710926 0.000154717 0)
(-0.000800816 0.00016042 0)
(-0.000893723 0.000165552 0)
(-0.000989361 0.000170167 0)
(-0.00108747 0.000174322 0)
(-0.00118781 0.00017807 0)
(-0.00129018 0.000181465 0)
(-0.00139439 0.000184558 0)
(-0.0015003 0.000187395 0)
(-0.00160778 0.000190022 0)
(-0.0017167 0.000192479 0)
(-0.00182699 0.000194803 0)
(-0.00193856 0.000197027 0)
(-0.00205138 0.00019918 0)
(-0.00216539 0.000201288 0)
(-0.00228057 0.000203373 0)
(-0.0023969 0.000205452 0)
(-0.00251438 0.000207542 0)
(-0.002633 0.000209654 0)
(-0.00275277 0.000211796 0)
(-0.0028737 0.000213975 0)
(-0.0029958 0.000216193 0)
(-0.00311909 0.000218453 0)
(-0.00324358 0.000220751 0)
(-0.00336928 0.000223086 0)
(-0.00349621 0.00022545 0)
(-0.00362436 0.000227837 0)
(-0.00375375 0.000230238 0)
(-0.00388437 0.000232641 0)
(-0.00401621 0.000235034 0)
(-0.00414925 0.000237403 0)
(-0.00428348 0.000239732 0)
(-0.00441886 0.000242005 0)
(-0.00455534 0.000244204 0)
(-0.00469289 0.000246309 0)
(-0.00483143 0.000248299 0)
(-0.0049709 0.000250153 0)
(-0.0051112 0.000251848 0)
(-0.00525224 0.000253361 0)
(-0.0053939 0.000254665 0)
(-0.00553608 0.000255736 0)
(-0.00567861 0.000256546 0)
(-0.00582136 0.000257069 0)
(-0.00596415 0.000257276 0)
(-0.0061068 0.000257138 0)
(-0.00624911 0.000256627 0)
(-0.00639087 0.000255713 0)
(-0.00653184 0.000254366 0)
(-0.00667178 0.000252557 0)
(-0.00681044 0.000250255 0)
(-0.00694752 0.000247432 0)
(-0.00708274 0.000244058 0)
(-0.00721579 0.000240106 0)
(-0.00734635 0.000235547 0)
(-0.00747408 0.000230355 0)
(-0.00759863 0.000224505 0)
(-0.00771964 0.000217972 0)
(-0.00783673 0.000210735 0)
(-0.00794952 0.000202772 0)
(-0.00805761 0.000194065 0)
(-0.00816059 0.000184599 0)
(-0.00825806 0.00017436 0)
(-0.00834961 0.000163336 0)
(-0.00843479 0.00015152 0)
(-0.00851321 0.000138907 0)
(-0.00858442 0.000125496 0)
(-0.008648 0.00011129 0)
(-0.00870354 9.62935e-05 0)
(-0.00875062 8.05176e-05 0)
(-0.00878883 6.39763e-05 0)
(-0.00881778 4.66881e-05 0)
(-0.00883707 2.86758e-05 0)
(-0.00884633 9.96692e-06 0)
(-0.00884521 -9.40669e-06 0)
(-0.00883338 -2.94084e-05 0)
(-0.00881051 -4.99968e-05 0)
(-0.00877632 -7.11261e-05 0)
(-0.00873053 -9.27456e-05 0)
(-0.00867292 -0.0001148 0)
(-0.00860328 -0.00013723 0)
(-0.00852143 -0.000159972 0)
(-0.00842724 -0.000182957 0)
(-0.0083206 -0.000206114 0)
(-0.00820146 -0.000229367 0)
(-0.0080698 -0.000252637 0)
(-0.00792563 -0.000275842 0)
(-0.00776902 -0.000298897 0)
(-0.00760009 -0.000321715 0)
(-0.00741899 -0.000344207 0)
(-0.00722593 -0.000366284 0)
(-0.00702115 -0.000387853 0)
(-0.00680496 -0.000408824 0)
(-0.00657769 -0.000429105 0)
(-0.00633976 -0.000448605 0)
(-0.00609158 -0.000467236 0)
(-0.00583366 -0.000484909 0)
(-0.00556652 -0.000501541 0)
(-0.00529073 -0.000517049 0)
(-0.00500692 -0.000531354 0)
(-0.00471572 -0.000544384 0)
(-0.00441785 -0.000556069 0)
(-0.00411401 -0.000566344 0)
(-0.00380498 -0.000575153 0)
(-0.00349153 -0.000582444 0)
(-0.00317447 -0.000588171 0)
(-0.00285465 -0.000592297 0)
(-0.0025329 -0.000594792 0)
(-0.0022101 -0.000595633 0)
(-0.00188712 -0.000594806 0)
(-0.00156485 -0.000592304 0)
(-0.00124415 -0.00058813 0)
(-0.000925923 -0.000582294 0)
(-0.00061103 -0.000574815 0)
(-0.000300339 -0.00056572 0)
(5.30492e-06 -0.000555043 0)
(0.000305072 -0.000542829 0)
(0.000598158 -0.000529128 0)
(0.000883785 -0.000513997 0)
(0.0011612 -0.000497502 0)
(0.0014297 -0.000479713 0)
(0.00168861 -0.000460707 0)
(0.00193728 -0.000440568 0)
(0.00217512 -0.000419381 0)
(0.0024016 -0.000397239 0)
(0.0026162 -0.000374234 0)
(0.00281848 -0.000350466 0)
(0.00300803 -0.000326032 0)
(0.00318451 -0.000301034 0)
(0.00334762 -0.000275572 0)
(0.00349712 -0.000249748 0)
(0.00363282 -0.000223662 0)
(0.00375457 -0.000197413 0)
(0.00386229 -0.000171097 0)
(0.00395593 -0.00014481 0)
(0.00403552 -0.000118641 0)
(0.00410111 -9.26787e-05 0)
(0.00415281 -6.70064e-05 0)
(0.00419077 -4.17032e-05 0)
(0.00421517 -1.68435e-05 0)
(0.00422625 7.50322e-06 0)
(0.00422428 3.12723e-05 0)
(0.00420955 5.44041e-05 0)
(0.00418242 7.68441e-05 0)
(0.00414323 9.85425e-05 0)
(0.00409239 0.000119454 0)
(0.00403031 0.000139538 0)
(0.00395743 0.000158756 0)
(0.00387423 0.000177075 0)
(0.00378118 0.000194462 0)
(0.00367879 0.000210889 0)
(0.00356758 0.000226326 0)
(0.00344809 0.000240744 0)
(0.00332089 0.000254112 0)
(0.00318655 0.000266397 0)
(0.00304567 0.000277562 0)
(0.00289889 0.000287564 0)
(0.00274685 0.000296355 0)
(0.00259024 0.000303875 0)
(0.00242976 0.000310057 0)
(0.00226619 0.000314821 0)
(0.00210031 0.00031807 0)
(0.00193299 0.000319697 0)
(0.00176513 0.000319573 0)
(0.00159772 0.000317552 0)
(0.0014318 0.000313469 0)
(0.00126851 0.000307141 0)
(0.00110907 0.000298364 0)
(0.00095478 0.000286922 0)
(0.00080704 0.000272592 0)
(0.000667326 0.000255153 0)
(0.000537186 0.000234414 0)
(0.000418202 0.00021024 0)
(0.000311948 0.000182618 0)
(0.000219913 0.000151743 0)
(0.000143389 0.000118177 0)
(8.32944e-05 8.30889e-05 0)
(3.99919e-05 4.86314e-05 0)
(1.3319e-05 1.85986e-05 0)
(1.09717e-06 -2.36245e-07 0)
(1.24042e-06 -1.44641e-05 0)
(8.1712e-06 -3.15655e-05 0)
(1.67083e-05 -3.8501e-05 0)
(2.46144e-05 -3.71687e-05 0)
(2.93951e-05 -2.93296e-05 0)
(2.93007e-05 -1.6567e-05 0)
(2.30163e-05 -2.46718e-07 0)
(9.57556e-06 1.84925e-05 0)
(-1.1679e-05 3.87237e-05 0)
(-4.11412e-05 5.97069e-05 0)
(-7.89859e-05 8.08616e-05 0)
(-0.00012521 0.000101741 0)
(-0.000179669 0.00012201 0)
(-0.000242107 0.000141424 0)
(-0.00031219 0.000159812 0)
(-0.000389521 0.000177064 0)
(-0.000473669 0.00019312 0)
(-0.000564179 0.000207957 0)
(-0.000660588 0.000221585 0)
(-0.000762437 0.000234037 0)
(-0.000869279 0.000245363 0)
(-0.000980684 0.000255629 0)
(-0.00109625 0.000264909 0)
(-0.00121559 0.000273285 0)
(-0.00133837 0.000280839 0)
(-0.00146426 0.000287656 0)
(-0.00159298 0.000293822 0)
(-0.00172427 0.000299418 0)
(-0.00185792 0.000304523 0)
(-0.00199372 0.000309212 0)
(-0.00213152 0.000313552 0)
(-0.00227116 0.000317609 0)
(-0.00241255 0.000321441 0)
(-0.00255557 0.000325099 0)
(-0.00270016 0.000328631 0)
(-0.00284627 0.000332077 0)
(-0.00299384 0.000335472 0)
(-0.00314286 0.000338845 0)
(-0.00329331 0.000342221 0)
(-0.00344517 0.000345618 0)
(-0.00359846 0.000349051 0)
(-0.00375316 0.00035253 0)
(-0.0039093 0.000356061 0)
(-0.00406689 0.000359645 0)
(-0.00422592 0.000363279 0)
(-0.00438641 0.00036696 0)
(-0.00454838 0.000370678 0)
(-0.00471181 0.000374422 0)
(-0.00487672 0.000378177 0)
(-0.00504308 0.000381925 0)
(-0.00521089 0.000385647 0)
(-0.00538011 0.000389321 0)
(-0.00555072 0.000392923 0)
(-0.00572268 0.000396424 0)
(-0.00589591 0.000399797 0)
(-0.00607036 0.000403011 0)
(-0.00624595 0.000406032 0)
(-0.00642258 0.000408826 0)
(-0.00660013 0.000411356 0)
(-0.00677849 0.000413584 0)
(-0.00695752 0.000415471 0)
(-0.00713704 0.000416974 0)
(-0.0073169 0.000418051 0)
(-0.00749688 0.000418659 0)
(-0.00767679 0.000418752 0)
(-0.0078564 0.000418285 0)
(-0.00803544 0.00041721 0)
(-0.00821366 0.000415483 0)
(-0.00839077 0.000413054 0)
(-0.00856646 0.000409876 0)
(-0.0087404 0.000405904 0)
(-0.00891225 0.000401089 0)
(-0.00908164 0.000395386 0)
(-0.00924819 0.00038875 0)
(-0.0094115 0.000381138 0)
(-0.00957116 0.000372507 0)
(-0.00972673 0.000362818 0)
(-0.00987777 0.000352034 0)
(-0.0100238 0.000340119 0)
(-0.0101644 0.000327041 0)
(-0.010299 0.000312773 0)
(-0.0104271 0.00029729 0)
(-0.0105483 0.00028057 0)
(-0.010662 0.000262598 0)
(-0.0107677 0.000243362 0)
(-0.0108649 0.000222857 0)
(-0.0109531 0.000201081 0)
(-0.0110317 0.00017804 0)
(-0.0111003 0.000153744 0)
(-0.0111583 0.000128212 0)
(-0.0112053 0.000101466 0)
(-0.0112407 7.35374e-05 0)
(-0.0112641 4.44645e-05 0)
(-0.0112751 1.42918e-05 0)
(-0.0112732 -1.69286e-05 0)
(-0.011258 -4.91373e-05 0)
(-0.0112291 -8.22677e-05 0)
(-0.0111862 -0.000116246 0)
(-0.011129 -0.00015099 0)
(-0.0110572 -0.000186413 0)
(-0.0109705 -0.000222418 0)
(-0.0108688 -0.000258904 0)
(-0.0107518 -0.000295763 0)
(-0.0106195 -0.000332879 0)
(-0.0104718 -0.000370134 0)
(-0.0103087 -0.000407401 0)
(-0.0101303 -0.000444552 0)
(-0.0099365 -0.000481451 0)
(-0.00972757 -0.000517961 0)
(-0.00950368 -0.000553943 0)
(-0.00926509 -0.000589254 0)
(-0.0090121 -0.000623751 0)
(-0.00874509 -0.000657289 0)
(-0.00846447 -0.000689725 0)
(-0.00817072 -0.000720916 0)
(-0.00786438 -0.000750722 0)
(-0.00754605 -0.000779007 0)
(-0.00721636 -0.000805636 0)
(-0.00687601 -0.000830482 0)
(-0.00652574 -0.000853421 0)
(-0.00616635 -0.000874337 0)
(-0.00579868 -0.000893123 0)
(-0.0054236 -0.000909677 0)
(-0.00504202 -0.000923909 0)
(-0.0046549 -0.000935736 0)
(-0.00426322 -0.000945089 0)
(-0.00386799 -0.000951908 0)
(-0.00347022 -0.000956143 0)
(-0.00307098 -0.00095776 0)
(-0.00267131 -0.000956735 0)
(-0.00227228 -0.000953056 0)
(-0.00187497 -0.000946727 0)
(-0.00148043 -0.000937761 0)
(-0.00108974 -0.000926187 0)
(-0.000703938 -0.000912047 0)
(-0.000324054 -0.000895393 0)
(4.89012e-05 -0.000876291 0)
(0.000413944 -0.00085482 0)
(0.000770123 -0.000831068 0)
(0.00111652 -0.000805136 0)
(0.00145227 -0.000777133 0)
(0.00177652 -0.000747179 0)
(0.0020885 -0.000715401 0)
(0.00238747 -0.000681936 0)
(0.00267274 -0.000646924 0)
(0.0029437 -0.000610514 0)
(0.00319977 -0.000572856 0)
(0.00344044 -0.000534107 0)
(0.00366527 -0.000494424 0)
(0.00387388 -0.000453966 0)
(0.00406593 -0.000412892 0)
(0.00424118 -0.00037136 0)
(0.00439943 -0.000329527 0)
(0.00454054 -0.000287545 0)
(0.00466444 -0.000245566 0)
(0.00477112 -0.000203733 0)
(0.00486062 -0.000162188 0)
(0.00493306 -0.000121062 0)
(0.00498858 -8.04849e-05 0)
(0.00502739 -4.05756e-05 0)
(0.00504975 -1.44742e-06 0)
(0.00505598 3.67944e-05 0)
(0.00504641 7.40519e-05 0)
(0.00502144 0.000110235 0)
(0.0049815 0.000145261 0)
(0.00492705 0.000179053 0)
(0.0048586 0.000211542 0)
(0.00477667 0.000242665 0)
(0.00468182 0.000272362 0)
(0.00457464 0.000300579 0)
(0.00445575 0.000327263 0)
(0.00432578 0.000352363 0)
(0.0041854 0.000375827 0)
(0.0040353 0.000397603 0)
(0.00387619 0.000417634 0)
(0.00370882 0.000435856 0)
(0.00353397 0.000452198 0)
(0.00335244 0.00046658 0)
(0.00316508 0.000478907 0)
(0.00297278 0.000489069 0)
(0.00277648 0.00049694 0)
(0.00257717 0.000502371 0)
(0.00237589 0.000505193 0)
(0.00217377 0.000505212 0)
(0.00197199 0.000502207 0)
(0.00177183 0.000495932 0)
(0.00157465 0.000486117 0)
(0.00138189 0.00047247 0)
(0.00119509 0.000454682 0)
(0.00101589 0.000432445 0)
(0.000845984 0.000405467 0)
(0.000687135 0.000373505 0)
(0.000541133 0.000336418 0)
(0.000409741 0.000294244 0)
(0.00029463 0.000247319 0)
(0.000197285 0.000196468 0)
(0.000118861 0.000143276 0)
(6.01059e-05 9.04829e-05 0)
(2.17482e-05 4.26158e-05 0)
(2.18403e-06 7.20317e-06 0)
(1.0527e-06 -1.83212e-05 0)
(6.55883e-06 -3.87854e-05 0)
(1.2465e-05 -4.56417e-05 0)
(1.64282e-05 -4.16344e-05 0)
(1.59685e-05 -2.9113e-05 0)
(9.32465e-06 -1.01269e-05 0)
(-4.8244e-06 1.35652e-05 0)
(-2.7447e-05 4.04877e-05 0)
(-5.92006e-05 6.94254e-05 0)
(-0.000100476 9.93949e-05 0)
(-0.00015144 0.000129614 0)
(-0.000212074 0.000159472 0)
(-0.00028221 0.000188503 0)
(-0.000361563 0.000216362 0)
(-0.000449759 0.000242807 0)
(-0.000546358 0.000267676 0)
(-0.000650877 0.000290876 0)
(-0.000762808 0.000312368 0)
(-0.000881631 0.000332159 0)
(-0.00100683 0.000350289 0)
(-0.0011379 0.000366824 0)
(-0.00127435 0.000381851 0)
(-0.00141571 0.000395471 0)
(-0.00156157 0.000407795 0)
(-0.00171151 0.000418938 0)
(-0.00186517 0.00042902 0)
(-0.00202221 0.000438156 0)
(-0.00218235 0.000446464 0)
(-0.00234532 0.000454052 0)
(-0.00251088 0.000461027 0)
(-0.00267885 0.000467487 0)
(-0.00284905 0.000473522 0)
(-0.00302135 0.000479215 0)
(-0.00319562 0.000484641 0)
(-0.00337178 0.000489867 0)
(-0.00354974 0.00049495 0)
(-0.00372947 0.000499943 0)
(-0.00391091 0.000504886 0)
(-0.00409404 0.000509815 0)
(-0.00427884 0.000514758 0)
(-0.00446531 0.000519736 0)
(-0.00465345 0.000524764 0)