/*--------------------------------*- C++ -*----------------------------------*\
  =========                 |
  \\      /  F ield         | OpenFOAM: The Open Source CFD Toolbox
   \\    /   O peration     | Website:  https://openfoam.org
    \\  /    A nd           | Version:  6
     \\/     M anipulation  |
\*---------------------------------------------------------------------------*/
FoamFile
{
    version     2.0;
    format      ascii;
    class       volVectorField;
    location    "0";
    object      U;
}
// * * * * * * * * * * * * * * * * * * * * * * * * * * * * * * * * * * * * * //

dimensions      [0 1 -1 0 0 0 0];

internalField   nonuniform List<vector> 
13046
(
(0.300361 0.0288723 0)
(0.589468 -0.257431 1.97061e-21)
(0.235072 -0.165676 4.45301e-21)
(0.331694 -0.0392602 0)
(0.190935 -0.103822 4.14809e-21)
(0.5132 -0.262242 0)
(0.353087 -0.0232398 -6.22361e-22)
(0.559989 -0.294861 -9.92138e-22)
(0.163939 -0.0905267 4.54344e-21)
(0.650291 0.242997 -1.83599e-21)
(0.936319 -0.457248 0)
(-0.00949755 -0.0182996 -2.73002e-21)
(0.370923 0.0553456 3.99316e-21)
(0.687474 -0.322356 2.78284e-21)
(0.156844 -0.126166 -2.44351e-21)
(0.597507 0.269287 -9.50426e-22)
(0.0354707 -0.0570666 -4.34504e-21)
(0.988502 -0.400878 -4.5715e-22)
(0.210153 -0.0509829 0)
(0.397567 -0.232216 2.20268e-21)
(0.404168 -0.122175 -6.46646e-21)
(0.607768 0.263385 1.03217e-21)
(0.0234865 -0.0474118 8.69709e-21)
(0.979932 -0.414295 -8.40625e-23)
(0.289452 -0.0259005 -2.6413e-21)
(0.502213 -0.22759 3.77344e-21)
(0.243764 -0.150986 0)
(0.370747 0.0783316 -6.46707e-23)
(0.709396 -0.319632 -8.2872e-22)
(0.165247 -0.138762 8.38381e-21)
(0.295419 0.0467101 0)
(0.610327 -0.248487 0)
(0.248034 -0.183229 -4.53155e-21)
(0.281035 -0.0467068 9.23519e-21)
(0.264407 -0.154149 -1.53505e-21)
(0.454756 -0.201619 -5.84471e-21)
(0.295952 -0.0665542 4.59726e-24)
(0.26148 -0.137105 0)
(0.429267 -0.197336 0)
(0.225908 0.0592676 -3.33902e-21)
(0.398469 -0.299764 -4.00512e-21)
(0.579109 -0.17307 3.03218e-21)
(0.329272 -0.120285 -2.08951e-21)
(0.283485 -0.119364 2.13788e-21)
(0.34781 -0.163436 0)
(0.34614 -0.114972 -1.36754e-21)
(0.250482 -0.0975333 0)
(0.368801 -0.186235 6.79235e-22)
(0.316349 0.024215 0)
(0.600289 -0.275353 1.39536e-22)
(0.20107 -0.144992 3.43741e-23)
(0.556994 -0.427773 -4.64244e-21)
(0.180809 0.0828889 0)
(0.598016 -0.108806 3.4982e-21)
(0.609752 -0.462867 6.6032e-21)
(0.589981 -0.0891952 3.88579e-21)
(0.158371 0.0744449 -5.06167e-21)
(0.932547 -0.302482 4.60102e-22)
(0.472348 0.241743 0)
(0.207046 -0.20723 -3.62351e-21)
(0.500944 0.0644675 1.9158e-21)
(0.792336 -0.453203 -1.49337e-21)
(0.0517809 -0.0328675 1.00994e-20)
(0.0174146 -0.0459877 -5.08834e-21)
(0.948852 -0.460776 5.72626e-22)
(0.604582 0.199483 3.02181e-21)
(0.444229 0.23683 0)
(0.904654 -0.273714 -2.31464e-21)
(0.252715 -0.249806 -1.04086e-21)
(0.420731 0.221622 1.44163e-21)
(0.877123 -0.264166 3.13667e-21)
(0.269777 -0.261272 1.41637e-21)
(0.957983 -0.307039 4.00843e-24)
(0.49434 0.256131 -3.86654e-23)
(0.189768 -0.198985 3.11948e-23)
(0.205826 -0.0335812 0)
(0.393939 -0.244136 -2.40538e-21)
(0.434155 -0.139037 4.55037e-21)
(0.132253 -0.146541 -3.97079e-21)
(0.529643 0.262351 4.38731e-21)
(0.979345 -0.34053 8.55486e-22)
(0.306049 -0.0193629 -1.39258e-21)
(0.524286 -0.246095 1.34101e-21)
(0.216572 -0.13091 0)
(0.0117981 -0.0411821 4.52073e-21)
(0.956956 -0.460453 0)
(0.619815 0.21391 -1.78992e-21)
(0.642113 0.146509 3.08652e-21)
(-0.00390661 -0.0154888 0)
(0.914383 -0.528326 4.89145e-22)
(0.00603048 0.0113203 0)
(0.703309 0.102767 0)
(0.882495 -0.597442 -5.52176e-23)
(0.486503 0.140968 3.83507e-21)
(0.515297 0.148433 -5.32424e-21)
(0.858972 -0.399949 -2.63585e-21)
(0.880432 -0.423465 1.22428e-21)
(0.0876807 -0.0954665 2.1321e-21)
(0.0641901 -0.0766742 -5.46696e-21)
(-0.00133506 -0.00995152 2.61317e-22)
(0.643066 0.12867 -3.01944e-21)
(0.900605 -0.542674 0)
(0.345472 -0.0965554 1.09499e-23)
(0.228263 -0.0943451 0)
(0.407331 -0.212416 0)
(0.124084 0.0322905 -9.18904e-21)
(0.517809 -0.0652831 1.83415e-21)
(0.600617 -0.414411 0)
(0.182148 0.0641185 -1.40181e-21)
(0.507752 -0.376128 0)
(0.56668 -0.125672 6.94421e-21)
(0.624308 0.257572 0)
(-0.01611 -0.00106088 3.678e-21)
(0.828301 -0.421765 -4.31429e-22)
(0.347463 0.0380731 -2.78891e-21)
(0.651061 -0.302705 -1.26557e-21)
(0.1693 -0.125881 -4.37451e-21)
(0.511566 0.186614 -2.21959e-21)
(0.485419 0.1637 2.07207e-21)
(0.91014 -0.389916 -6.40307e-22)
(0.0952858 -0.108254 -2.421e-21)
(0.87659 -0.382377 7.00498e-22)
(0.10393 -0.112186 2.26168e-21)
(0.644114 0.253329 4.49594e-21)
(0.925476 -0.446453 -2.39918e-23)
(-0.010244 -0.0150601 1.2148e-21)
(0.429751 0.115531 0)
(0.794226 -0.362562 1.93705e-21)
(0.12671 -0.124181 -1.27284e-20)
(0.249939 0.0686773 0)
(0.359085 -0.276012 4.03665e-21)
(0.605741 -0.19637 -1.65276e-22)
(0.0137921 0.0149244 0)
(0.681608 0.0876076 0)
(0.876106 -0.593036 0)
(0.569283 0.154087 0)
(0.907803 -0.466952 2.96494e-21)
(0.0280033 -0.0475847 5.49404e-21)
(0.31674 0.0627225 0)
(0.648601 -0.268185 0)
(0.232805 -0.184912 0)
(0.429322 -0.00553733 0)
(0.651588 -0.380625 0)
(0.102153 -0.0406282 0)
(0.168302 0.0637333 1.29718e-21)
(0.546942 -0.402493 0)
(0.565274 -0.10818 -3.77834e-21)
(0.129614 0.0211334 8.89857e-21)
(0.50235 -0.0710456 4.07241e-21)
(0.588073 -0.39729 -4.27748e-21)
(0.516034 0.0809211 -4.41499e-21)
(0.81865 -0.461265 0)
(0.0436823 -0.0399529 -1.31184e-20)
(0.136856 -0.0222686 0)
(0.436347 -0.0655313 -8.82735e-21)
(0.547414 -0.340935 -1.11462e-21)
(0.699181 -0.503352 -1.77688e-21)
(0.571151 -0.0362273 -4.17296e-21)
(0.740383 -0.518652 0)
(0.569548 -0.00996306 -2.42902e-21)
(0.105823 0.0498868 -4.31123e-21)
(0.0818182 0.0363771 4.14152e-21)
(0.466783 -0.0295882 -5.71464e-22)
(0.640131 -0.406804 -2.12902e-21)
(0.0979974 -0.0118597 2.55538e-21)
(0.665867 0.230304 1.86817e-21)
(-0.0137203 -0.015689 -1.42248e-21)
(0.923346 -0.474118 4.14238e-22)
(0.633165 0.259009 1.25812e-21)
(-0.0144938 -0.0049909 5.52334e-22)
(0.872268 -0.430174 0)
(0.575734 0.169949 -5.95206e-23)
(0.921476 -0.461966 0)
(0.0274466 -0.0512699 -6.63544e-21)
(0.287648 0.118687 0)
(0.687277 -0.207779 -8.78036e-22)
(0.36927 -0.30697 -2.32359e-21)
(0.467817 -0.043789 -3.68699e-21)
(0.110811 -0.00250452 0)
(0.609774 -0.387986 0)
(-0.0178897 -0.0131847 0)
(0.919561 -0.510703 0)
(0.681634 0.200237 -1.53949e-21)
(0.264097 0.100921 0)
(0.651827 -0.193525 1.98497e-21)
(0.383147 -0.30328 -6.03876e-22)
(0.127474 -0.00937983 0)
(0.45088 -0.0637283 0)
(0.55537 -0.354988 0)
(0.411216 -0.0203565 -1.86108e-21)
(0.618524 -0.360703 0)
(0.113948 -0.0473596 0)
(0.728422 -0.359586 3.59445e-24)
(0.11968 -0.100036 3.0002e-21)
(0.411344 0.0973293 -5.81921e-21)
(0.766175 -0.351853 0)
(0.133185 -0.121354 1.31445e-20)
(0.645186 0.183755 3.5481e-21)
(-0.00453483 -0.0241231 -4.1188e-21)
(0.937009 -0.50184 1.86799e-21)
(0.00859598 0.00500795 -3.81872e-21)
(0.651662 0.0971629 -1.86159e-21)
(0.882285 -0.569463 -2.63027e-21)
(0.685993 0.13113 5.02556e-21)
(0.900658 -0.562786 0)
(-0.00702345 -0.000851225 3.73696e-21)
(0.577358 -0.46697 1.85009e-21)
(0.655205 -0.112566 -1.54963e-21)
(0.208619 0.120828 -4.245e-21)
(0.380804 0.0144372 3.66232e-21)
(0.520021 0.270763 -2.24678e-21)
(0.151698 -0.162529 2.44156e-21)
(0.982508 -0.330424 -4.00532e-24)
(0.902331 -0.557123 0)
(0.696421 0.14945 1.4567e-21)
(-0.0128624 -0.00447481 0)
(0.321992 -0.0719534 6.82107e-21)
(0.228605 -0.110683 0)
(0.43907 -0.219136 -2.1639e-21)
(0.353501 0.0839884 0)
(0.700421 -0.30152 1.20445e-22)
(0.196705 -0.159912 -2.49605e-21)
(0.0140393 0.0117882 -2.95036e-21)
(0.661219 0.0867723 0)
(0.873937 -0.582735 3.03008e-21)
(0.400056 0.0311715 0)
(0.713694 -0.365534 -5.001e-21)
(0.11318 -0.0888329 0)
(-0.019589 -0.00787682 0)
(0.876561 -0.4671 1.11072e-22)
(0.671062 0.237214 0)
(0.184166 0.105794 4.59418e-21)
(0.635207 -0.0956724 0)
(0.610891 -0.489964 0)
(0.662472 0.119698 -4.40994e-21)
(0.897768 -0.556798 0)
(-0.00250846 -0.00294089 3.02731e-23)
(0.514925 -0.0185313 -4.76392e-21)
(0.691006 -0.462408 -1.55364e-21)
(0.083165 0.0134779 5.85869e-21)
(0.425407 0.129748 0)
(0.801745 -0.349879 -1.81707e-21)
(0.144174 -0.137944 -1.31204e-21)
(0.831549 -0.599634 4.51297e-21)
(0.65134 0.0323722 3.27978e-21)
(0.0547474 0.0400985 -2.32584e-21)
(0.594212 -0.00123711 0)
(0.76898 -0.545831 1.99801e-21)
(0.0775349 0.0412903 8.51227e-23)
(-0.0214212 -0.00635472 2.87213e-21)
(0.853121 -0.471258 0)
(0.67954 0.230088 1.30464e-21)
(0.221773 0.0901761 -6.20284e-21)
(0.464431 -0.359332 2.85894e-21)
(0.616063 -0.155854 2.87431e-22)
(0.567637 0.278445 -1.29442e-21)
(-0.00953691 0.00149348 3.04243e-22)
(0.830975 -0.365688 0)
(0.19881 -0.0653708 -1.38029e-21)
(0.379525 -0.10102 5.25228e-21)
(0.427185 -0.241902 -6.54756e-21)
(0.49046 0.0125275 -1.99686e-21)
(0.494117 -0.0133712 -4.05822e-23)
(0.722363 -0.448113 3.79911e-21)
(0.684738 -0.444148 3.72333e-21)
(0.0825312 -0.00010629 -4.65486e-21)
(0.0671626 -0.0133205 2.38939e-21)
(0.107102 -0.123733 5.19738e-21)
(0.546699 0.268826 -2.32438e-21)
(0.994444 -0.349567 0)
(0.399212 0.125885 0)
(0.778641 -0.324186 0)
(0.178824 -0.160892 5.25145e-21)
(0.607071 0.02028 8.68753e-22)
(0.799442 -0.563712 0)
(0.0607128 0.0336713 0)
(0.541371 0.17342 -1.96299e-21)
(0.912493 -0.426064 0)
(0.0567371 -0.0762502 -2.38678e-21)
(0.303249 -0.105827 -1.42137e-21)
(0.357905 -0.154203 -2.02843e-21)
(0.300033 -0.137976 7.1485e-22)
(0.544212 0.00145495 3.0877e-21)
(0.74123 -0.499549 0)
(0.0695776 0.0195887 3.97978e-21)
(0.402237 0.140773 0)
(0.795246 -0.317534 -2.25415e-21)
(0.18907 -0.174195 3.30408e-21)
(0.400449 0.0523479 -5.98635e-21)
(0.423845 0.0672553 4.81939e-21)
(0.226783 0.101138 4.90713e-21)
(0.474837 -0.374942 -8.24549e-21)
(0.631777 -0.15171 6.26625e-21)
(0.549187 0.0228236 3.22657e-21)
(0.771316 -0.509197 -3.04173e-21)
(0.0528838 0.00945749 -3.63113e-21)
(0.562373 0.17972 7.16842e-21)
(0.0411453 -0.0635313 8.47891e-21)
(0.92654 -0.441281 1.29859e-21)
(0.185369 0.0513381 2.15983e-21)
(0.484066 -0.357483 0)
(0.551913 -0.130373 -2.31189e-21)
(0.117035 0.0641934 4.68058e-21)
(0.592552 -0.0415054 2.33672e-21)
(0.699171 -0.521442 0)
(0.468706 0.18806 7.14827e-22)
(0.885959 -0.343905 1.786e-21)
(0.150343 -0.152769 -1.4871e-21)
(0.203213 0.0977805 -4.00687e-22)
(0.533054 -0.416745 0)
(0.621941 -0.12415 -4.83612e-21)
(0.491895 0.203972 0)
(0.510447 0.204679 0)
(0.914136 -0.355594 1.04901e-21)
(0.135084 -0.142121 3.89534e-21)
(0.924322 -0.37666 -1.47993e-21)
(0.109554 -0.120158 -4.11872e-21)
(-0.0126167 -0.0182232 3.16674e-21)
(0.931243 -0.500098 0)
(0.667584 0.204695 2.22507e-21)
(0.45888 0.155685 0)
(0.850308 -0.363673 8.56426e-22)
(0.128504 -0.130242 -1.36248e-21)
(0.71332 -0.369993 2.09089e-21)
(-0.0129844 0.0051872 -4.52807e-21)
(0.555322 0.254101 -2.63426e-21)
(0.425661 -0.0894085 7.14977e-21)
(0.159351 -0.028326 0)
(0.490386 -0.301473 2.33038e-21)
(0.469637 0.0518936 -4.55761e-21)
(0.759891 -0.426329 0)
(0.0651446 -0.044198 -7.78335e-21)
(0.00460799 -0.0324396 2.63456e-21)
(0.621125 0.175638 -6.50357e-21)
(0.932641 -0.490095 -1.64044e-21)
(0.627885 -0.48172 2.36958e-21)
(0.602863 -0.0816019 0)
(0.156132 0.0841432 5.73739e-21)
(0.847348 -0.596333 5.05327e-21)
(0.653834 0.0521688 2.00652e-21)
(0.037471 0.0278597 0)
(0.659705 -0.339759 2.73777e-21)
(0.130694 -0.0884792 0)
(0.472075 0.0903416 -4.92399e-21)
(0.796403 -0.411945 -1.65981e-21)
(0.0744473 -0.0734117 -2.36044e-21)
(0.65056 -0.352861 -9.20995e-23)
(0.118983 -0.074421 -1.29494e-23)
(0.58828 0.259255 4.95875e-21)
(0.0478767 -0.0696631 -6.12671e-21)
(0.988044 -0.396781 6.72107e-22)
(0.563443 -0.475905 -2.40733e-21)
(0.686179 -0.124485 -4.73166e-22)
(0.232381 0.13871 0)
(0.494999 0.105368 5.01375e-21)
(0.830997 -0.427339 2.02393e-21)
(0.0606153 -0.0642645 5.71436e-21)
(0.447813 -0.00979864 0)
(0.65378 -0.398588 1.5651e-21)
(0.0942957 -0.0268784 0)
(0.542282 -0.0833034 2.32492e-21)
(0.581659 -0.421683 0)
(0.143443 0.0476768 0)
(0.317283 0.00269237 1.92869e-21)
(0.568522 -0.269255 3.06442e-21)
(0.200012 -0.133119 1.37874e-24)
(0.137094 0.0773232 -5.80309e-21)
(0.603378 -0.0594902 -5.69713e-21)
(0.672641 -0.509697 -6.31609e-21)
(0.660967 0.165192 2.6645e-21)
(0.922517 -0.521763 -1.55327e-21)
(-0.00936104 -0.0161747 -6.21152e-23)
(0.85435 -0.581363 -3.4793e-21)
(0.641703 0.0617504 -2.03316e-21)
(0.0284409 0.0195736 -2.97755e-21)
(0.3714 0.198448 4.41099e-21)
(0.33741 -0.308318 -2.08197e-21)
(0.823732 -0.231188 0)
(0.518884 0.239136 -1.26979e-21)
(0.499808 0.225846 1.16397e-21)
(0.93645 -0.342023 3.30461e-22)
(0.957537 -0.348932 -1.20364e-21)
(0.131628 -0.142289 1.39935e-21)
(0.148027 -0.156227 1.25702e-21)
(-0.0131876 0.00481574 4.60222e-21)
(0.751428 -0.369435 -2.30241e-21)
(0.563723 0.258297 -8.67607e-22)
(0.576371 0.280601 8.70382e-23)
(-0.00689614 -0.00274277 0)
(0.865509 -0.371295 0)
(0.511679 0.0277463 7.26294e-21)
(0.759259 -0.467432 8.02187e-22)
(0.0583325 -0.0111659 0)
(-0.00643373 -0.0241961 7.92613e-21)
(0.650725 0.197053 -2.79393e-21)
(0.942019 -0.494998 0)
(0.426869 0.199924 -6.37086e-21)
(0.449944 0.206614 4.75627e-21)
(0.864158 -0.292809 -1.99846e-21)
(0.88674 -0.309907 -7.34644e-22)
(0.233614 -0.222096 2.47826e-21)
(0.201033 -0.195825 1.24673e-21)
(-0.0175732 -0.00367055 0)
(0.875813 -0.555397 0)
(0.725848 0.155326 -7.67836e-22)
(0.531002 0.277812 1.52042e-21)
(-0.00922479 0.00517414 -2.84017e-21)
(0.793556 -0.338297 0)
(0.40378 -0.147437 -1.2741e-23)
(0.240991 -0.058984 -3.06472e-21)
(0.341962 -0.195799 -1.47921e-21)
(0.589373 0.264726 2.50785e-21)
(0.810484 -0.393566 6.31098e-22)
(-0.0138436 0.00197577 -5.71659e-21)
(0.32174 0.127604 -5.44847e-21)
(0.72062 -0.237954 3.87339e-21)
(0.314472 -0.267398 4.39776e-23)
(0.688116 0.188787 -5.24849e-23)
(0.916116 -0.522016 -1.6297e-21)
(-0.0172623 -0.0116828 1.62318e-21)
(0.622762 -0.369996 5.31402e-23)
(-0.0121932 0.00243138 5.24638e-21)
(0.547588 0.21046 8.87371e-22)
(0.207186 0.0386668 2.87445e-21)
(0.410517 -0.293475 1.72304e-22)
(0.540039 -0.15749 -7.45573e-21)
(0.377458 -0.0805731 0)
(0.474753 -0.267768 7.24316e-21)
(0.179869 -0.0640634 -3.81498e-21)
(0.630148 0.264946 -4.55112e-21)
(-0.00571828 -0.0171129 -3.61646e-21)
(0.93273 -0.432779 4.8097e-23)
(0.392531 -0.0718592 0)
(0.497261 -0.286542 2.46036e-21)
(0.161564 -0.0484899 5.40827e-21)
(0.381052 -0.142297 -3.05576e-21)
(0.25505 -0.0767617 3.23741e-21)
(0.336533 -0.180582 -7.88006e-22)
(0.174323 0.107859 2.79145e-21)
(0.644904 -0.0813412 1.97124e-21)
(0.653157 -0.526193 -3.45351e-21)
(0.442082 -0.12412 0)
(0.42193 -0.261924 0)
(0.187772 -0.0192823 -4.55509e-22)
(0.444507 -0.103257 -3.85632e-21)
(0.466849 -0.288621 -1.91935e-21)
(0.172124 -0.0164644 -6.4305e-23)
(0.346727 0.185899 -6.70528e-21)
(0.791843 -0.214171 2.86004e-21)
(0.373898 -0.338795 4.21201e-21)
(0.00585687 -0.0322589 -5.47431e-21)
(-0.00107214 -0.0275894 5.59984e-21)
(0.963278 -0.444898 -2.90214e-22)
(0.953806 -0.456772 -2.5808e-22)
(0.629742 0.249849 -3.8501e-21)
(0.640277 0.241391 5.79111e-21)
(0.677676 0.171017 -3.28993e-21)
(0.919146 -0.527263 1.1502e-21)
(-0.0135352 -0.0117068 0)
(0.324089 -0.308407 -2.73562e-21)
(0.393334 0.21833 -1.3902e-21)
(0.854147 -0.237497 0)
(0.237103 0.0877134 0)
(0.422423 -0.328605 2.62048e-21)
(0.621538 -0.172718 -2.26425e-21)
(0.617997 -0.0155434 0)
(0.760385 -0.564936 -2.06765e-21)
(0.0972142 0.059226 -8.80504e-23)
(0.71139 -0.440621 2.71994e-22)
(-0.0196631 -0.00387564 0)
(0.654679 0.204167 2.5169e-21)
(-0.00259834 0.00533519 0)
(0.705301 0.119507 0)
(0.887151 -0.586543 -8.83032e-22)
(0.650577 0.250388 -1.5037e-21)
(-0.0161155 -0.00822417 0)
(0.889019 -0.449781 -1.09009e-22)
(-0.00960289 0.00461998 1.94421e-32)
(0.577367 -0.338829 -1.19884e-21)
(0.500511 0.203981 -9.0406e-22)
(0.599718 -0.297585 1.36369e-21)
(-0.00894864 0.00855165 -1.93964e-32)
(0.469486 0.236091 8.13068e-22)
(0.829397 -0.50637 3.93412e-21)
(0.559799 0.0678403 0)
(0.0328261 -0.0107946 7.63152e-21)
(0.824273 -0.517945 1.5496e-23)
(-0.0224597 -0.0065849 0)
(0.729398 0.180457 0)
(0.586979 0.149022 3.18127e-21)
(0.907559 -0.484494 -1.80611e-21)
(0.0180394 -0.0376855 -3.91046e-21)
(0.58623 0.290741 -4.92321e-21)
(0.0296307 -0.0461063 -2.16766e-21)
(0.985923 -0.371886 0)
(0.359169 0.0182692 -1.48521e-21)
(0.151456 -0.103141 1.49632e-21)
(0.6391 -0.318582 -1.3235e-21)
(0.882914 -0.567552 0)
(-0.0139311 -0.0012514 -2.71209e-21)
(0.721742 0.144461 -9.10152e-22)
(0.616523 -0.0294403 2.30835e-21)
(0.11229 0.0688261 1.58099e-21)
(0.736138 -0.552668 0)
(0.811542 -0.556066 0)
(0.599586 0.0356987 0)
(0.0464072 0.023223 -2.79346e-21)
(-0.00264716 0.00582571 0)
(0.331215 -0.169155 -1.54727e-21)
(0.282936 0.128174 -4.3111e-22)
(0.709652 -0.391648 7.1248e-22)
(-0.0144794 0.00310894 3.1675e-21)
(0.579164 0.241615 1.20232e-21)
(0.343675 0.000569806 3.86302e-21)
(0.168153 -0.1082 -3.60179e-21)
(0.594047 -0.298321 -1.55365e-21)
(0.88862 -0.532762 -9.68926e-22)
(0.711726 0.178314 1.60773e-21)
(-0.0205015 -0.00719566 0)
(-0.0185186 -0.00365397 2.82163e-21)
(0.737519 0.158212 0)
(0.854509 -0.552576 7.98611e-22)
(0.636627 0.212854 2.02769e-21)
(0.00142999 -0.0310974 -8.44401e-21)
(0.95219 -0.473199 -1.36739e-21)
(0.0781805 -0.0964572 6.27757e-21)
(0.984381 -0.379369 -1.14145e-21)
(0.562898 0.253808 0)
(0.333605 0.191113 8.45234e-21)
(0.785786 -0.199236 -3.64553e-21)
(0.415954 -0.374913 3.97881e-21)
(0.9218 -0.3214 -4.89851e-22)
(0.476905 0.227506 -2.76488e-21)
(0.185259 -0.187633 3.87025e-21)
(0.0713745 -0.0909121 5.61509e-21)
(0.569404 0.278933 0)
(1.00397 -0.36547 4.26285e-22)
(0.345083 0.117528 1.37433e-21)
(0.37416 0.135623 0)
(0.728788 -0.271373 4.02665e-21)
(0.770378 -0.290019 -4.30572e-21)
(0.252386 -0.211925 -2.74242e-21)
(0.229736 -0.203354 0)
(0.321326 0.114121 1.34199e-21)
(0.707391 -0.248235 0)
(0.29122 -0.241813 -1.27941e-21)
(0.417543 0.208759 0)
(0.863528 -0.278128 3.23445e-21)
(0.258723 -0.245958 -8.95317e-22)
(0.841187 -0.567414 1.80352e-21)
(0.622293 0.0540076 -2.17422e-21)
(0.0322059 0.0167288 6.08389e-21)
(0.908237 -0.547102 0)
(0.688747 0.162799 -5.24583e-22)
(-0.0154051 -0.00769511 0)
(0.0152126 0.00235767 1.96136e-21)
(0.625964 0.0857055 1.36764e-21)
(0.869617 -0.555624 1.13569e-21)
(0.648932 -0.308515 -2.11725e-22)
(-0.00990671 0.00895435 -6.38658e-24)
(0.491199 0.249429 0)
(0.249626 0.0444899 -2.64165e-21)
(0.26142 0.0350814 0)
(0.328009 -0.238266 6.46502e-22)
(0.574358 -0.202446 -8.80186e-21)
(0.300605 -0.215873 -8.18215e-22)
(0.570512 -0.217239 5.64704e-21)
(0.374605 0.180132 0)
(0.343347 0.160882 8.67058e-22)
(0.325871 -0.286234 -2.22637e-23)
(0.808113 -0.255648 -2.26439e-21)
(0.297583 -0.265872 -6.5071e-21)
(0.768048 -0.237431 4.92788e-21)
(0.614949 -0.387387 0)
(-0.0139588 -0.00062205 -5.73535e-21)
(0.577596 0.1994 0)
(0.899016 -0.530586 7.78539e-22)
(0.702307 0.176388 -5.23386e-22)
(-0.0191338 -0.0088758 -1.70385e-21)
(0.252306 0.117751 1.60752e-21)
(0.458072 -0.37409 2.91772e-21)
(0.664508 -0.166832 -7.02514e-21)
(0.809776 -0.585208 -4.08513e-21)
(0.632795 0.0176974 -5.50267e-21)
(0.0651543 0.0438161 0)
(0.094354 -0.111813 -6.71339e-21)
(0.979515 -0.369868 1.21427e-21)
(0.550757 0.251808 0)
(0.797248 -0.436727 0)
(0.643634 0.241186 0)
(-0.0188107 -0.00131224 0)
(0.816307 -0.458468 0)
(0.667401 0.231003 -2.34841e-21)
(-0.0212544 -0.00381503 0)
(0.450122 0.191758 2.66518e-21)
(0.874368 -0.325203 -1.10417e-21)
(0.181738 -0.177747 -1.84531e-21)
(0.172716 0.0380074 7.58687e-22)
(0.493139 -0.349027 0)
(0.526671 -0.117249 -2.50827e-21)
(0.644909 0.224788 -2.36255e-21)
(-0.0020595 -0.0271747 -4.89567e-21)
(0.953862 -0.469147 1.89363e-21)
(0.839658 -0.526159 0)
(0.581575 0.071585 0)
(0.0272315 -0.0018204 -6.58591e-21)
(0.0358023 -0.0608598 -1.62184e-21)
(0.945787 -0.442075 -2.13652e-21)
(0.580665 0.201399 -6.6522e-21)
(0.324566 0.155415 -8.83256e-22)
(0.359091 -0.311783 4.36767e-21)
(0.748121 -0.221753 -2.58792e-21)
(0.523186 -0.039644 4.62795e-21)
(0.657631 -0.449528 -2.30648e-21)
(0.10306 0.0261099 -5.72308e-21)
(0.218074 0.0656186 -4.64908e-23)
(0.428832 -0.324532 8.75782e-22)
(0.583846 -0.162702 2.96554e-21)
(-0.0103693 -0.0195689 1.90419e-21)
(0.93804 -0.484252 -5.57402e-22)
(0.661901 0.219438 -2.51299e-21)
(0.53694 0.191922 1.24075e-21)
(0.926406 -0.409773 7.58049e-22)
(0.0720916 -0.0894765 0)
(0.218099 0.0299194 2.86467e-21)
(0.378664 -0.265998 -5.59097e-21)
(0.534896 -0.170368 4.92571e-21)
(0.575102 0.287615 -1.97368e-21)
(0.0578218 -0.0767081 -2.47167e-21)
(1.00548 -0.364352 -1.31501e-22)
(0.309485 0.0781212 1.67333e-21)
(0.659521 -0.257225 0)
(0.257832 -0.206605 0)
(0.415289 -0.0406498 6.81163e-21)
(0.574953 -0.341287 -1.48791e-21)
(0.126493 -0.0379752 0)
(0.805465 -0.531885 0)
(0.576562 0.036401 -4.60989e-21)
(0.0438362 0.0140652 2.92616e-21)
(0.585992 0.286149 0)
(0.00245567 -0.015413 7.6259e-22)
(0.926931 -0.37824 5.39665e-22)
(0.580423 0.291515 -1.88058e-21)
(0.0101479 -0.0229329 -2.42566e-21)
(0.947279 -0.369162 -1.58445e-22)
(0.0445847 -0.0686901 -1.47157e-21)
(0.955981 -0.428085 1.08599e-21)
(0.577128 0.214306 6.11438e-21)
(0.551124 -0.0507487 2.08247e-21)
(0.66737 -0.475675 4.67053e-21)
(0.114453 0.0429014 0)
(-0.00200279 -0.00622143 -6.98563e-22)
(0.887279 -0.360969 -5.01052e-22)
(0.56296 0.286208 0)
(0.00758458 -0.0304114 0)
(0.919673 -0.4967 1.20837e-21)
(0.611488 0.157824 7.54091e-22)
(-0.00698515 0.00355706 -2.86301e-21)
(0.484462 -0.306393 1.09093e-21)
(0.44764 0.16888 0)
(0.395534 0.21957 1.03973e-21)
(0.524569 -0.240206 0)
(-0.00681513 0.0099925 -2.85532e-21)
(0.0664488 -0.0856069 6.52325e-24)
(0.995367 -0.380046 9.5975e-23)
(0.573681 0.267552 0)
(-0.0184527 -0.0113845 0)
(0.905052 -0.482397 0)
(0.677122 0.225863 -3.165e-21)
(0.617302 0.244816 2.13268e-21)
(0.609033 0.233052 -1.7253e-21)
(0.0174908 -0.0443467 2.75122e-21)
(0.97515 -0.434056 1.25389e-22)
(0.0217116 -0.0495321 0)
(0.969884 -0.438802 0)
(0.617669 0.144145 -1.46066e-21)
(0.910275 -0.511127 -8.65267e-22)
(0.00424162 -0.0234485 0)
(0.0892939 0.0607013 0)
(0.783403 -0.588067 0)
(0.637562 -0.00365606 0)
(0.270392 0.00633862 -3.58862e-21)
(0.2716 -0.182969 7.88326e-21)
(0.536232 -0.222216 -3.10416e-21)
(0.611375 0.107519 -4.1727e-21)
(0.881332 -0.532231 -3.74069e-22)
(0.0091073 -0.0110162 -5.7622e-21)
(0.015612 -0.0043299 -3.75284e-21)
(0.608152 0.0917479 5.80106e-21)
(0.866954 -0.539518 5.18628e-22)
(0.554302 0.282659 -2.32332e-21)
(0.0956675 -0.113965 -2.68116e-21)
(1.00651 -0.347842 0)
(0.384749 0.193045 0)
(0.827675 -0.255026 -9.65822e-22)
(0.298036 -0.273141 6.37868e-21)
(0.34423 0.144352 0)
(0.752304 -0.248856 -5.08517e-21)
(0.301415 -0.263721 5.4417e-24)
(0.545592 0.0932036 5.60588e-21)
(0.846412 -0.485118 -5.17568e-22)
(0.0308318 -0.0308735 3.32056e-21)
(0.562446 0.0899367 0)
(0.850124 -0.500573 -4.96024e-22)
(0.0255483 -0.0215024 -3.04422e-21)
(0.21123 0.0106702 0)
(0.381488 -0.256675 8.79705e-21)
(0.500953 -0.160262 0)
(0.381389 0.148462 0)
(0.785511 -0.287378 2.69923e-21)
(0.234726 -0.214479 -9.83916e-22)
(-0.00870174 0.00293028 5.87447e-21)
(0.874797 -0.580452 1.90086e-21)
(0.727403 0.130792 0)
(0.683877 0.21681 4.92298e-23)
(-0.0221981 -0.00474361 -1.7694e-21)
(0.789862 -0.468355 1.47237e-22)
(0.681249 0.205078 9.36269e-23)
(-0.0215285 -0.00501969 0)
(0.755628 -0.463024 -5.16041e-22)
(0.27062 0.0893455 -1.96902e-21)
(0.350217 -0.273982 9.47144e-22)
(0.64334 -0.209757 1.14123e-22)
(0.742074 -0.41696 -1.37709e-22)
(-0.0174839 7.37131e-05 -7.27415e-21)
(0.625059 0.234069 0)
(0.556318 0.211781 -5.31167e-21)
(0.0642472 -0.0838286 0)
(0.948428 -0.411485 0)
(-0.0176022 -0.00161829 2.88871e-21)
(0.699883 -0.423615 -6.23674e-22)
(0.62659 0.213602 -1.90287e-21)
(0.341915 -0.0579564 -4.74221e-21)
(0.196286 -0.092322 -4.85933e-21)
(0.483655 -0.251428 -2.04192e-23)
(0.432824 0.0883359 8.53504e-22)
(0.772064 -0.375883 6.37857e-22)
(0.10818 -0.098817 3.02985e-21)
(0.627118 -0.459185 -5.42726e-21)
(0.560235 -0.0704265 -7.41336e-21)
(0.135673 0.0546214 0)
(-0.0218733 -0.00622837 0)
(0.848262 -0.527984 8.77531e-23)
(0.727936 0.177858 0)
(0.828439 -0.537581 0)
(0.587395 0.0585898 0)
(0.0319518 0.00606692 0)
(0.0394984 -0.0586263 0)
(0.588127 0.283861 1.79381e-21)
(0.99634 -0.378647 -3.1689e-22)
(0.460566 0.10243 0)
(0.802167 -0.396902 -3.35014e-22)
(0.0893181 -0.0875926 -2.77234e-24)
(0.269403 -0.00928974 3.46747e-21)
(0.272171 -0.175835 -6.777e-21)
(0.510042 -0.214699 0)
(0.873824 -0.521612 9.15966e-22)
(0.712062 0.191961 -1.52652e-21)
(-0.0224594 -0.0074935 0)
(0.013639 -0.0413447 3.36776e-21)
(0.936108 -0.475333 -7.41616e-23)
(0.60517 0.184578 -1.22203e-22)
(0.61475 0.272539 0)
(0.609339 0.273885 -1.76096e-21)
(-0.00555446 -0.0117191 -1.7555e-21)
(-0.0089322 -0.00670909 2.17715e-21)
(0.914832 -0.40752 -2.19859e-22)
(0.890926 -0.405316 1.80813e-22)
(0.4675 0.0160203 0)
(0.707449 -0.426864 -4.39386e-21)
(0.0751753 -0.0270918 -3.73586e-21)
(0.801206 -0.489924 -5.55307e-21)
(0.538533 0.0513816 0)
(0.0408792 -0.00981718 4.05944e-21)
(0.37369 -0.0259238 3.87346e-21)
(0.569753 -0.312681 -2.51584e-21)
(0.143575 -0.0716881 -5.92577e-21)
(0.822142 -0.492852 -3.52126e-23)
(0.70362 0.206552 -1.78552e-21)
(0.809545 -0.501443 -5.0878e-23)
(-0.0233339 -0.00632985 1.87425e-21)
(0.715071 0.193475 1.67498e-21)
(-0.0230326 -0.00660299 0)
(0.518735 0.133426 0)
(0.866666 -0.437002 0)
(0.0551294 -0.0666256 -3.7279e-21)
(0.701505 0.204508 -1.90414e-21)
(0.69955 0.210835 4.82528e-21)
(0.876325 -0.506313 -1.41352e-23)
(0.85358 -0.493197 3.34537e-22)
(-0.0228086 -0.00832108 -4.95991e-21)
(-0.0231896 -0.00703594 1.06596e-23)
(0.532423 0.0359957 0)
(0.775273 -0.49104 5.41048e-21)
(0.0511994 -0.000689345 -5.26593e-21)
(0.421395 0.0356802 -3.67143e-21)
(0.730073 -0.387466 3.95009e-21)
(0.0919356 -0.0717973 0)
(0.593484 0.287021 0)
(0.0173733 -0.0342578 -3.36729e-22)
(0.970614 -0.383832 1.52184e-22)
(0.459092 0.0327964 -2.71997e-21)
(0.724565 -0.417601 0)
(0.0726379 -0.0387808 6.15489e-21)
(0.386575 -0.00565393 -1.58705e-21)
(0.618397 -0.34238 2.95312e-21)
(0.124584 -0.0684904 -3.42844e-21)
(0.602857 0.277964 0)
(0.000662255 -0.0164107 0)
(0.934044 -0.398101 -1.44953e-22)
(0.462695 0.121114 0)
(0.827057 -0.38807 -6.30292e-22)
(0.0950557 -0.0987324 3.67703e-21)
(0.722084 -0.559208 0)
(0.634664 -0.0435614 0)
(0.132124 0.0844996 2.03491e-22)
(0.324248 0.165277 2.16638e-22)
(0.756566 -0.210754 0)
(0.379784 -0.333896 -3.31685e-21)
(0.860865 -0.606143 -1.90268e-21)
(0.0280546 0.0249075 0)
(0.678852 0.0679168 0)
(-0.00510004 0.00670071 6.87424e-21)
(0.44541 -0.232846 2.16673e-21)
(0.374345 0.16943 6.0367e-22)
(0.456496 0.0660531 0)
(0.760328 -0.40701 -2.41887e-21)
(0.0772904 -0.0638557 0)
(0.611681 0.268762 -3.39714e-21)
(0.0150853 -0.0372973 -9.24771e-21)
(0.975193 -0.410028 4.98587e-22)
(0.491087 -0.426811 0)
(0.734514 -0.16322 2.53625e-21)
(0.282191 0.164362 0)
(0.47439 0.25903 0)
(-0.00968059 0.0103187 1.68155e-21)
(0.683824 -0.299307 0)
(0.146563 0.00564646 -3.7183e-21)
(0.147869 0.0224962 3.80042e-21)
(0.517271 -0.34392 0)
(0.474042 -0.0904526 -3.19693e-21)
(0.535633 -0.368278 5.50265e-21)
(0.501479 -0.0944665 2.54256e-21)
(0.389608 -0.0458496 -3.64806e-21)
(0.543276 -0.308868 -3.45318e-21)
(0.145206 -0.0550652 0)
(0.185539 0.0290606 -3.31159e-21)
(0.168705 0.011617 0)
(0.449013 -0.313638 0)
(0.517621 -0.135115 0)
(0.466902 -0.31337 3.26895e-21)
(0.48551 -0.115574 -2.36297e-23)
(0.435975 0.0563932 -2.31978e-22)
(0.694356 -0.380308 1.77402e-21)
(0.0975931 -0.0635483 4.22093e-21)
(0.431642 0.0241677 6.34125e-21)
(0.693914 -0.390429 0)
(0.0912071 -0.0513165 0)
(-0.0220767 -0.00659433 0)
(0.763716 -0.484366 0)
(0.704869 0.19231 -1.5996e-21)
(0.295841 0.0953158 5.43185e-21)
(0.668074 -0.231471 0)
(0.308952 -0.24692 -1.75417e-21)
(0.688021 0.210103 4.27331e-21)
(0.9023 -0.502014 -2.89812e-22)
(-0.020635 -0.0106796 2.83128e-21)
(0.553083 0.115787 0)
(0.575622 0.129232 -3.06476e-21)
(0.869902 -0.477598 6.454e-22)
(0.889777 -0.48785 -1.79584e-21)
(0.0274149 -0.0374776 4.09863e-21)
(0.019232 -0.0338236 3.77398e-21)
(0.291243 0.0772966 0)
(0.645199 -0.23747 0)
(0.29111 -0.229021 -8.41545e-22)
(0.409037 0.180872 -2.12134e-21)
(0.83392 -0.289594 0)
(0.238331 -0.220697 -2.13199e-21)
(0.508095 0.099732 1.60678e-21)
(0.830294 -0.447851 0)
(0.0477874 -0.0512819 -3.77917e-21)
(0.253709 -0.0451807 -3.71507e-21)
(0.437987 -0.175981 -1.75648e-21)
(0.306406 -0.182266 -1.82487e-21)
(0.590247 0.110088 0)
(0.877681 -0.513578 0)
(0.0142245 -0.0190828 6.12764e-21)
(0.24916 0.0124516 0)
(0.308937 -0.210478 -9.85988e-22)
(0.529637 -0.202093 0)
(0.517565 0.0498455 3.58137e-21)
(0.783944 -0.474832 3.01039e-21)
(0.0495424 -0.0202646 5.28057e-22)
(0.408277 0.165843 -2.15693e-21)
(0.821819 -0.301577 -3.07572e-21)
(0.21554 -0.202397 0)
(0.24678 -0.0250429 3.6808e-21)
(0.228964 -0.0200869 1.64557e-21)
(0.466992 -0.18455 -1.7025e-21)
(0.310275 -0.194702 3.62448e-21)
(0.465059 -0.170523 0)
(0.340782 -0.217526 6.4137e-21)
(0.192897 -0.00203766 1.65509e-21)
(0.408925 -0.270618 -4.07673e-21)
(0.176624 0.000628337 -1.06539e-21)
(0.474828 -0.138997 0)
(0.456367 -0.300886 -2.11817e-21)
(0.473137 -0.120519 3.66465e-21)
(0.339732 0.100807 -1.9804e-21)
(0.366667 0.105752 0)
(0.708413 -0.277699 -3.08352e-21)
(0.734125 -0.301817 2.40711e-21)
(0.234952 -0.195033 7.93084e-21)
(0.200486 -0.169595 -6.6003e-21)
(0.0664098 -0.086934 0)
(0.973468 -0.396929 6.23393e-22)
(0.566269 0.239171 3.11778e-21)
(0.147642 0.0900112 -6.89932e-21)
(0.627704 -0.0616812 -3.107e-21)
(0.685534 -0.533771 5.39907e-21)
(0.0486228 -0.0715454 3.14589e-21)
(0.03763 -0.0632319 0)
(0.978111 -0.41023 -5.39255e-22)
(0.96933 -0.425902 -9.92872e-22)
(0.583633 0.245074 -7.9328e-21)
(0.591417 0.232319 4.11703e-21)
(0.215458 0.113218 0)
(0.540876 -0.433181 3.13503e-21)
(0.6456 -0.128213 -6.87574e-22)
(0.286117 -0.0835953 -7.7864e-21)
(0.293568 -0.148406 0)
(0.389713 -0.166945 6.01996e-21)
(0.595329 0.127669 1.44801e-21)
(0.893124 -0.5068 2.02631e-21)
(0.0115587 -0.0245083 0)
(0.263237 0.0605149 0)
(0.321119 -0.246802 8.01702e-22)
(0.604636 -0.212441 2.82527e-21)
(0.425714 0.170846 0)
(0.839501 -0.315882 0)
(0.193728 -0.184501 5.12737e-22)
(0.534817 0.235347 0)
(0.533542 0.222194 0)
(0.960789 -0.371809 -4.27282e-22)
(0.105532 -0.119865 3.8853e-21)
(0.94968 -0.381626 1.15704e-21)
(0.0964039 -0.111157 -5.26309e-21)
(0.541862 0.136959 -3.03494e-21)
(0.883091 -0.453169 -1.97355e-21)
(0.0387566 -0.0542092 -1.78279e-21)