/*--------------------------------*- C++ -*----------------------------------*\
  =========                 |
  \\      /  F ield         | OpenFOAM: The Open Source CFD Toolbox
   \\    /   O peration     | Website:  https://openfoam.org
    \\  /    A nd           | Version:  6
     \\/     M anipulation  |
\*---------------------------------------------------------------------------*/
FoamFile
{
    version     2.0;
    format      ascii;
    class       volVectorField;
    location    "0";
    object      U;
}
// * * * * * * * * * * * * * * * * * * * * * * * * * * * * * * * * * * * * * //

dimensions      [0 1 -1 0 0 0 0];

internalField   nonuniform List<vector> 
918
(
(0.985741 0.00389168 0)
(-0.00398858 2.96739 0)
(-0.000663945 1.6285 0)
(0.980757 -0.00207531 0)
(-0.00621195 1.58604 -1.11418e-22)
(0.00135485 2.95102 -1.38944e-18)
(0.853227 1.16003 4.9605e-19)
(0.477344 0.209159 -5.70943e-21)
(0.999909 -0.000327048 0)
(0.0106566 0.985789 0)
(0.000102519 1.2992 0)
(0.805552 -0.00770328 0)
(0.00893722 2.93488 0)
(0.00378144 2.79737 0)
(-0.000597639 3.19957 7.94852e-19)
(-0.00988033 1.49784 -8.9378e-21)
(0.583538 0.0846848 3.55615e-19)
(0.182073 1.12469 4.56383e-19)
(0.966009 0.00386756 0)
(-0.00154781 1.43855 0)
(0.206802 0.260543 -3.03747e-19)
(1.00167 -0.00523274 0)
(1.00164 -0.00834833 0)
(0.977389 -0.00495294 0)
(0.728508 -0.0159635 0)
(0.0309121 2.637 0)
(-0.0106585 2.91564 4.63371e-19)
(-0.0147248 1.65511 0)
(-0.0147867 1.76009 0)
(-0.0169532 1.65173 0)
(-0.00414721 1.81782 0)
(0.00137361 1.60281 8.7207e-23)
(-0.0100183 1.50583 0)
(-0.0197605 2.98961 -4.87098e-23)
(-0.0137413 3.00794 1.09352e-18)
(0.00162799 2.9997 0)
(0.872774 -0.00649041 0)
(0.364263 0.909703 -2.62521e-20)
(0.860652 1.17825 -7.1578e-19)
(0.988853 1.05223 6.57577e-19)
(0.717746 1.26098 -1.14518e-19)
(0.736643 1.22572 6.50187e-19)
(0.510582 0.290108 5.56872e-21)
(0.507266 0.184363 0)
(1.19408 0.543864 0)
(0.474327 0.315169 2.61371e-20)
(0.423662 0.212655 -2.71327e-20)
(0.924156 -0.00497814 0)
(1.00029 -0.000141399 0)
(0.999892 0.000304391 0)
(1.00326 -0.00736702 0)
(1.00086 -0.00115954 0)
(1.00013 -7.61112e-05 0)
(0.0823212 1.58676 -2.66378e-19)
(-0.0124315 1.0578 0)
(0.0495459 0.886989 0)
(-0.0372888 1.1678 0)
(-0.0163118 1.09661 0)
(-0.010203 1.57775 0)
(-0.00457047 1.47709 0)
(-0.00142238 1.2976 0)
(-0.0129324 1.50379 0)
(-0.0091005 1.31142 0)
(0.88336 0.000656945 0)
(0.890241 0.0111787 0)
(0.818378 -0.000460648 0)
(0.882293 0.0165509 0)
(0.786604 -0.00758231 0)
(0.0136562 3.00363 5.01025e-19)
(0.0114503 3.00446 0)
(0.00733482 3.00383 0)
(0.010642 2.99821 5.5939e-24)
(0.00612028 2.96202 -7.53899e-19)
(0.0117971 2.9846 0)
(0.00852585 2.909 0)
(0.0216306 2.93263 1.01737e-24)
(0.0045749 2.82815 0)
(0.0275067 2.91973 0)
(-0.000229204 2.74693 0)
(0.312877 3.60584 0)
(-0.127909 3.68785 0)
(0.151437 3.29135 -7.3657e-19)
(0.00564252 3.02173 0)
(-0.0117466 1.79761 0)
(-0.0054673 1.63779 8.81543e-21)
(-0.008878 1.51796 -1.43765e-20)
(0.641781 0.155757 -1.22546e-19)
(0.603512 0.0520008 -1.18225e-19)
(0.608621 0.187457 -3.68113e-19)
(0.550463 0.118251 -2.46344e-19)
(0.28536 0.977081 0)
(0.257576 1.23188 -4.37951e-19)
(0.343088 1.21936 7.19858e-19)
(0.989455 0.00705618 0)
(0.94602 0.00665385 0)
(0.999813 0.000805424 0)
(1.00375 0.00764417 0)
(1.00332 0.00871034 -6.37576e-19)
(0.992849 0.00730083 4.88167e-19)
(-0.016546 1.56203 0)
(-0.00927895 1.41982 0)
(-0.0181979 1.66083 0)
(-0.0179389 1.59934 0)
(-8.81013e-05 1.46705 0)
(0.234244 0.287635 9.34309e-20)
(0.290795 0.259813 0)
(0.99464 -0.00602804 0)
(0.955868 -0.0054717 0)
(0.856848 0.0191775 0)
(0.82273 0.0369496 0)
(0.764737 -0.0104724 0)
(1.02419 -0.00501285 0)
(0.776367 0.0486599 0)
(0.649974 -0.0148612 4.62061e-19)
(-0.0344806 2.86781 2.6639e-19)
(0.0351133 2.9141 0)
(0.0451867 2.89017 0)
(0.00537288 2.70075 0)
(-0.00801284 2.98764 4.31493e-19)
(-0.0127477 2.89875 0)
(-0.00986751 2.99277 -1.35467e-18)
(-0.0091488 2.93257 4.66311e-19)
(-0.0107284 1.81254 0)
(-0.0090437 1.80758 0)
(0.000246419 1.6341 -1.68431e-22)
(-0.000834118 1.60497 0)
(-0.00970697 1.49886 0)
(0.933197 -0.00380614 0)
(0.862774 -0.00617698 0)
(0.871853 0.0115156 0)
(0.946712 -0.00296276 0)
(0.891893 -0.00535056 0)
(0.493414 1.10946 2.54714e-20)
(0.541396 1.18573 0)
(0.322735 0.831766 2.22209e-21)
(0.264309 0.698937 0)
(0.967579 1.07048 -1.92636e-19)
(1.0812 0.879932 3.90565e-19)
(0.463776 1.30258 0)
(0.589822 1.32559 0)
(0.591604 1.23031 0)
(0.113002 0.108019 -6.88661e-20)
(0.537574 0.256249 0)
(0.518942 0.158486 7.11086e-20)
(1.04368 0.926221 0)
(1.11398 0.766456 0)
(1.14515 0.701971 -3.41161e-19)
(1.17271 0.606825 0)
(1.22959 0.392028 3.32145e-20)
(0.957196 -0.00453707 0)
(0.963499 -0.00490849 0)
(0.906406 -0.00414386 0)
(0.985042 -0.00690072 0)
(0.976784 -0.00617582 0)
(0.9393 -0.00491987 0)
(0.999783 0.0022835 0)
(1.00089 0.00114627 0)
(0.999987 0.000680065 0)
(0.0675968 1.79464 1.58327e-19)
(0.0969202 1.53061 0)
(0.0354728 1.7923 2.00198e-19)
(0.0389494 1.58969 -1.72539e-19)
(0.107621 1.12371 -3.77485e-19)
(0.0423273 1.03016 0)
(0.161099 0.94485 0)
(-0.0263421 1.30147 0)
(0.00392838 1.1961 0)
(-0.00970471 1.71721 -6.11382e-22)
(-0.00401333 1.60751 0)
(-0.011088 1.69446 -2.8887e-20)
(-0.00988988 1.55706 5.54145e-20)
(-0.0160666 1.39023 0)
(-0.0117657 1.44381 0)
(-0.00606534 1.25243 0)
(-0.0161685 1.52379 0)
(-0.0112077 1.34057 0)
(0.960598 0.0162242 0)
(0.905595 0.00562718 0)
(0.94169 0.0107408 0)
(0.871807 0.00184902 0)
(0.823338 -0.00321217 0)
(0.912265 0.00264324 0)
(0.90311 0.00554851 0)
(0.820548 -0.00564058 0)
(0.00839065 3.06483 -4.27198e-21)
(0.0141167 3.05733 0)
(0.012212 2.97249 0)
(0.00740341 2.88092 0)
(0.914737 4.01467 0)
(1.21888 3.39226 7.576e-19)
(0.0806246 3.10454 0)
(-0.014167 2.92805 0)
(-0.0123992 1.7946 0)
(-0.0127558 1.79471 0)
(-0.0123927 1.79438 0)
(-0.00639317 1.80641 2.56688e-21)
(-0.0105617 1.80383 0)
(-0.00805762 1.80169 0)
(0.000537417 1.52955 6.32829e-22)
(-0.000593982 1.66496 1.52947e-20)
(-0.00412122 1.65439 1.46879e-20)
(-0.00418922 1.52244 0)
(0.66687 0.109191 1.81087e-19)
(0.606107 0.0183826 -1.76868e-19)
(0.179065 1.48164 0)
(0.337232 0.746185 -1.49877e-19)
(0.0910246 1.56389 -5.31942e-19)
(0.223869 1.20019 5.29246e-19)
(0.909099 0.010046 0)
(0.968946 0.0106022 0)
(0.976299 0.0105046 0)
(0.927955 0.00823954 0)
(-0.0196957 1.53546 0)
(-0.0200181 1.54627 0)
(-0.0111 1.37952 0)
(0.434072 0.320753 2.38017e-19)
(0.368674 0.295956 -2.90257e-19)
(0.384513 0.241481 0)
(1.14152 0.0860576 -4.36898e-21)
(1.12951 0.0417336 0)
(1.05728 0.0358009 0)
(0.970211 0.00891874 0)
(0.67101 0.0746404 0)
(0.702934 0.0421803 -7.51973e-19)
(0.606168 -0.00951331 2.93265e-19)
(0.0111154 2.98092 3.24015e-19)
(-0.0291652 2.86669 3.09994e-20)
(0.00703865 3.05006 -9.21094e-21)
(0.0153921 3.04144 3.5176e-19)
(-0.00961222 3.00009 1.5539e-20)
(-0.00886473 2.95412 -6.34985e-23)
(-0.0150157 3.0128 -2.97478e-19)
(0.0125871 3.02385 2.09739e-19)
(0.0061788 3.0317 -3.36016e-19)
(0.938195 0.00788096 0)
(0.935924 0.00201897 0)
(0.860134 -0.000920406 0)
(0.958284 0.0122198 0)
(0.947703 0.0124654 0)
(0.892184 0.00834874 0)
(0.920633 0.00702818 0)
(0.932233 0.0151706 0)
(0.842987 0.00601814 0)
(0.684628 1.42275 2.11609e-19)
(0.707114 1.53691 0)
(0.188019 0.374841 1.26157e-20)
(0.157868 0.516703 9.92831e-20)
(0.227716 0.643175 -5.97528e-20)
(0.19295 0.534998 1.08554e-19)
(0.289876 0.66627 4.1939e-19)
(0.131264 0.147364 1.40998e-19)
(0.582101 0.216374 2.64704e-19)
(0.561985 0.241764 6.5135e-20)
(0.542384 0.145931 1.31473e-19)
(1.21873 0.451869 2.22194e-19)
(1.23756 0.24841 2.30999e-19)
(0.0271927 1.7698 8.46878e-20)
(0.0302269 1.60464 0)
(1.00726 0.0299779 0)
(0.975575 0.0203966 0)
(0.929611 0.00129482 0)
(0.0113214 3.07307 0)
(0.0172905 2.94603 5.92196e-19)
(0.0140369 2.95907 0)
(0.00586229 2.85391 -5.89189e-19)
(0.00784477 3.08852 1.39691e-19)
(0.0103015 3.08012 0)
(0.727213 1.83226 -1.69327e-19)
(1.26297 2.62603 5.61513e-19)
(0.708412 2.00412 -1.13632e-18)
(0.0232308 2.98437 -2.46649e-19)
(0.0417071 3.01063 0)
(-0.0319903 2.88748 0)
(-0.00274311 1.66031 -2.88014e-21)
(0.000916444 1.66286 -3.50739e-20)
(0.00138974 1.5334 -4.73253e-21)
(0.241096 1.3066 4.68697e-19)
(0.316808 0.45967 -3.22963e-19)
(0.0552135 1.74145 3.47132e-19)
(0.0894875 1.68028 -4.36125e-19)
(0.147223 1.40444 6.31302e-20)
(0.00538629 3.11812 -8.03069e-19)
(0.0135576 3.11827 9.02639e-19)
(-0.00440056 2.98218 3.83284e-19)
(-0.00135222 2.97801 -3.46963e-19)
(-0.0151445 2.88193 -3.90491e-19)
(0.0120536 3.09765 -1.02655e-18)
(0.00545222 3.10207 1.03998e-18)
(0.178601 0.560313 0)
(0.120695 0.492084 -2.00792e-19)
(0.123135 0.157973 8.89085e-20)
(0.304739 0.777208 4.14899e-19)
(0.200224 0.196927 -6.3331e-19)
(1.22703 0.168942 -4.90092e-20)
(1.23434 0.305838 0)
(1.22086 0.1118 9.27321e-20)
(-0.0016664 1.74971 -7.39952e-22)
(0.0168651 1.76882 0)
(0.010367 1.60285 0)
(0.288029 1.18096 -1.65005e-19)
(0.342122 1.0124 -3.52719e-19)
(0.228418 0.309154 5.96234e-19)
(1.00575 -0.0108908 0)
(1.00675 -0.00705515 1.17768e-19)
(-0.0108638 1.80162 0)
(-0.0192213 1.81079 0)
(1.00161 0.00325359 1.16595e-21)
(1.00303 0.00851195 2.39046e-19)
(-0.00635505 1.80986 -3.4074e-21)
(-0.0051792 1.80863 0)
(0.0466386 3.17999 1.23719e-19)
(0.383342 3.55186 0)
(1.07343 0.681132 4.60224e-20)
(1.01093 0.0114482 -1.36859e-21)
(1.01891 -0.0122565 0)
(1.00158 0.000100886 3.03349e-23)
(-0.194861 1.22731 0)
(-0.141744 2.41672 0)
(-0.0532887 1.74238 0)
(-0.0508511 1.90969 4.05798e-20)
(-0.0361376 1.85275 2.37314e-20)
(1.00298 0.00982879 1.377e-21)
(1.04566 0.0165005 0)
(1.07771 0.027842 0)
(-0.0132283 1.79584 0)
(-0.0138092 1.82011 0)
(-0.0261719 1.79661 0)
(0.300874 1.29079 -3.13097e-19)
(1.00866 -0.00937694 0)
(1.00906 -0.0145644 0)
(1.00222 0.000272251 1.48014e-19)
(1.00531 -0.00528582 -1.77046e-19)
(1.00103 -0.00104478 0)
(-0.0150464 1.79378 0)
(-0.0129098 1.79497 0)
(-0.0127593 1.79561 0)
(-0.0229304 1.79832 0)
(-0.0189341 1.79472 0)
(-0.0224417 1.79799 0)
(1.01981 -0.00826061 0)
(1.02055 0.0148493 -9.47507e-22)
(0.764612 1.29668 3.58758e-19)
(1.00313 0.000359797 -1.4787e-19)
(1.00329 0.00431852 1.79176e-19)
(1.00136 0.00198874 0)
(1.01142 0.0106362 1.41953e-19)
(1.00747 0.00890008 -1.80533e-19)
(1.0091 0.0125928 0)
(-0.0111645 1.82057 0)
(-0.00714424 1.81602 7.14061e-21)
(-0.0095598 1.81422 -4.84737e-21)
(1.18637 0.260126 -8.53878e-20)
(1.12268 0.0858415 0)
(0.0589297 3.08625 -3.95747e-19)
(0.0525776 2.86517 -3.0174e-20)
(0.120892 3.2044 5.07174e-19)
(0.130295 3.22064 -4.41771e-20)
(0.148757 3.26324 0)
(0.0250239 3.13746 9.68846e-20)
(0.0719127 3.16158 3.89178e-19)
(0.0695777 3.18375 -1.8537e-19)
(0.0312002 3.12518 0)
(0.690975 0.333809 0)
(0.641647 0.400817 0)
(1.06782 0.707403 -1.75102e-19)
(1.03029 0.860442 2.70872e-19)
(1.12878 0.598799 0)
(1.16102 0.550288 0)
(1.0144 0.0110351 -2.68785e-19)
(1.01309 0.011191 3.3428e-19)
(1.02219 -0.0125479 0)
(1.01786 -0.0182556 0)
(1.00746 0.00245083 0)
(1.00985 0.00281988 0)
(1.0039 0.00281734 0)
(1.00825 0.00729464 0)
(1.00691 0.0051537 0)
(1.00384 0.00488082 0)
(-0.186432 1.28232 0)
(-0.193739 1.30866 0)
(-0.133369 1.18808 0)
(0.0133341 1.20509 0)
(-0.121767 2.54684 0)
(0.0167561 2.57289 -1.69282e-19)
(-0.146702 2.41924 0)
(-0.100883 2.28565 6.22259e-20)
(-0.0423806 2.03652 -7.43359e-20)
(-0.0419247 1.75201 0)
(-0.0257672 1.76679 0)
(-0.0698301 1.71583 0)
(-0.0602654 1.67128 0)
(-0.103298 1.84941 -2.00326e-20)
(-0.0483625 1.86885 2.89454e-20)
(-0.0488299 1.90437 3.88594e-20)
(-0.0422938 1.88689 0)
(-0.0306707 1.85222 -5.55985e-20)
(-0.00989627 1.84044 -2.83488e-20)
(-0.096337 1.8405 1.61425e-20)
(-0.0652927 1.8486 -3.78725e-20)
(-0.0735812 1.87171 -5.01783e-20)
(1.0116 0.0187703 2.62919e-19)
(1.01244 0.00981779 -3.22025e-19)
(1.00525 0.0190842 -2.76116e-19)
(0.994195 0.0147393 3.52769e-19)
(1.0436 0.0213254 0)
(1.03762 0.00646877 0)
(1.06106 0.0398726 0)
(1.05241 0.0245388 0)
(1.05773 0.0142313 0)
(1.10498 0.0758342 0)
(1.08261 0.0536957 0)
(1.09725 0.0430492 0)
(-0.00959634 1.81168 -9.40271e-22)
(-0.0139963 1.80134 0)
(-0.0107415 1.80539 0)
(-0.0119135 1.82332 8.46476e-21)
(-0.00959224 1.8245 -3.95119e-22)
(-0.0182755 1.79637 9.12889e-21)
(-0.0183146 1.79591 -9.20354e-21)
(-0.0228894 1.79773 0)
(-0.0191774 1.79791 0)
(-0.0181924 1.79767 0)
(-0.0263509 1.79638 0)
(-0.0253287 1.78997 0)
(0.455457 1.39343 6.01476e-19)
(0.404784 1.42899 2.20299e-19)
(0.632462 2.44471 -1.08303e-19)
(0.40219 2.58282 2.66066e-19)
(0.562593 2.15613 -8.87448e-20)
(1.01893 -0.00742166 0)
(1.01515 -0.00939245 0)
(1.01764 -0.0127026 0)
(1.00796 -0.000701217 0)
(1.00437 -0.00114613 0)
(1.00678 -0.00414241 0)
(1.01016 -0.00519945 0)
(1.0124 -0.00504773 0)
(1.02042 0.0137164 2.56937e-19)
(1.0117 0.0132691 -3.26803e-19)
(1.02398 0.0131601 -2.56284e-19)
(1.02143 0.0128106 3.21576e-19)
(0.740494 1.31719 0)
(0.658565 1.37311 4.25572e-19)
(0.853578 1.20882 2.44036e-19)
(0.858428 1.20595 -3.2379e-19)
(1.14393 2.63243 -3.72895e-19)
(0.833951 0.121308 1.79884e-19)
(1.12775 0.094392 0)
(1.16466 0.175385 7.08733e-20)
(1.15152 0.160683 3.18529e-21)
(0.974719 0.127156 0)
(0.107431 3.02701 -4.86473e-20)
(0.10791 2.90183 -4.61377e-19)
(0.050333 2.34463 3.11118e-19)
(0.179565 0.0663369 -1.36744e-19)
(0.352854 3.45564 -3.17132e-19)
(0.201219 3.34709 0)
(0.230772 3.40527 4.12902e-19)
(0.242884 3.08575 -1.50369e-19)
(0.27823 3.20715 0)
(0.00915648 3.11919 2.10401e-20)
(0.0195919 3.12845 -2.60222e-19)
(0.018725 3.12429 3.82286e-19)
(0.0384243 3.13747 0)
(0.0362734 3.14952 0)
(1.25406 2.60424 0)
(0.494082 0.835145 -1.42837e-19)
(0.954422 1.03715 -1.38129e-19)
(0.948456 1.06151 0)
(0.802747 0.951973 4.14519e-20)
(1.02392 0.905146 1.82849e-20)
(0.428097 0.461676 -3.41335e-19)
(0.715335 0.331643 -1.70811e-20)
(0.706033 0.296972 1.39004e-19)
(0.641161 0.42166 1.1077e-20)
(0.583486 0.417811 -4.58833e-19)
(0.696084 0.345151 0)
(0.703368 0.427492 2.38905e-19)
(0.703112 0.42509 0)
(0.683507 0.39201 0)
(0.670885 0.342158 0)
(0.716997 0.614721 7.1372e-20)
(1.18917 0.284719 6.46349e-20)
(1.17344 0.419313 0)
(1.17396 0.391998 0)
(0.7654 0.226322 2.0848e-19)
(0.763159 0.518955 -1.16217e-19)
(0.706555 0.487747 1.88221e-19)
(0.90297 0.403551 -1.61387e-19)
(1.01641 0.00968419 1.75781e-19)
(1.01715 0.00983844 -1.80065e-19)
(1.01024 0.00841761 0)
(1.01998 -0.0121528 0)
(1.02065 -0.0151237 -1.59238e-19)
(1.01328 -0.0229614 1.57605e-19)
(1.03345 0.00630928 0)
(1.02785 0.0137219 0)
(1.0123 0.00494254 0)
(1.01379 0.00789887 0)
(1.0169 0.00103927 0)
(1.01423 0.000335603 0)
(-0.198657 1.41072 0)
(-0.169607 1.46304 0)
(-0.140411 1.11013 2.44386e-19)
(0.309056 1.26889 1.99055e-19)
(0.12681 1.15569 4.36909e-19)
(0.224481 1.20097 -6.97734e-19)
(0.0881663 1.19303 0)
(-0.215206 1.97301 4.48662e-19)
(-0.34108 1.86245 0)
(0.567748 2.27556 1.30723e-19)
(0.43012 2.48096 1.30337e-19)
(0.040754 1.73176 -3.94148e-19)
(0.379792 1.14645 2.14156e-19)
(0.153774 1.16693 -1.69635e-19)
(0.501333 1.22523 4.59302e-19)
(0.391877 1.79326 0)
(0.501314 1.82026 -3.56632e-19)
(-0.214968 2.0075 -4.58084e-21)
(-0.0560522 2.08996 0)
(-0.260492 2.17762 2.79647e-20)
(-0.203847 2.07463 0)
(-0.0865795 2.24634 -6.98671e-20)
(-0.0487254 2.12005 0)
(-0.105443 1.78127 -1.6644e-20)
(-0.141275 1.81425 0)
(-0.133425 1.72242 0)
(-0.111344 1.74428 1.8755e-20)
(-0.0564881 1.93395 -5.98427e-21)
(-0.0438597 2.01096 8.26812e-20)
(-0.0422273 1.97653 5.91677e-22)
(-0.0550093 1.82133 1.69078e-20)
(-0.0697901 1.81405 8.32475e-21)
(-0.0232046 1.77824 0)
(-0.0190828 1.78199 0)
(-0.202875 1.89065 1.43915e-20)
(-0.191 1.74434 3.62474e-21)
(-0.172428 1.82607 -7.57926e-21)
(-0.283305 1.90019 0)
(-0.0164206 1.81506 -3.22969e-20)
(-0.0162147 1.82147 1.52869e-20)
(-0.0159459 1.82178 -4.57085e-21)
(-0.0440584 1.81759 -2.00839e-20)
(-0.0183307 1.83637 -7.55802e-21)
(-0.0265458 1.8449 3.96157e-20)
(1.02446 0.0101364 -1.71339e-19)
(1.0218 0.0119293 1.73297e-19)
(1.01967 0.00627342 0)
(1.00008 0.0428755 2.46316e-19)
(0.995273 0.0318161 -2.93478e-19)
(0.971244 0.0263341 3.3953e-19)
(0.991203 0.08173 -3.26077e-20)
(1.02275 -0.00560639 0)
(1.03019 0.00821674 1.429e-19)
(1.02309 -0.00258522 -1.40737e-19)
(1.0428 0.0385556 -7.59853e-21)
(1.04562 0.0274465 6.73247e-20)
(1.03652 0.0560187 0)
(1.02891 0.0447586 -2.59415e-20)
(1.02422 0.0262271 0)
(1.021 0.0241592 0)
(1.03627 0.00946864 0)
(1.03138 0.0104461 0)
(1.03109 0.0264737 5.37834e-20)
(1.03282 0.0204789 -1.22912e-19)
(1.03427 0.0301774 -5.28863e-20)
(1.03487 0.0301152 -6.226e-20)
(1.03157 0.0579355 1.09551e-19)
(1.06005 0.0556734 0)
(1.04965 0.088689 0)
(-0.0166142 1.81585 -1.29274e-20)
(-0.0141886 1.8054 -1.07929e-21)
(-0.0165378 1.80618 0)
(-0.012157 1.81706 1.35987e-20)
(-0.00976049 1.81331 1.93753e-21)
(-0.00977018 1.8164 -1.97417e-21)
(-0.00596479 1.83679 2.40798e-20)
(-0.0134308 1.82738 -1.62759e-21)
(-0.0119689 1.8296 8.12023e-21)
(-0.00631482 1.82876 -1.27136e-20)
(-0.00446889 1.83132 1.56878e-20)
(-0.0230146 1.7978 3.8806e-22)
(-0.0211961 1.80047 1.46436e-20)
(0.55777 1.30049 -3.0049e-19)
(0.562713 1.36362 -3.48533e-19)
(0.637525 1.41484 -4.11371e-19)
(0.520649 1.45505 -2.16455e-19)
(0.527284 1.45217 0)
(0.625917 2.41604 8.33729e-20)
(0.702552 2.36803 1.60443e-19)
(0.438532 2.54999 6.99979e-20)
(0.402751 2.63871 -7.94928e-20)
(0.547039 2.57671 1.56229e-19)
(0.541535 2.47542 0)
(0.546233 2.48277 -2.42703e-19)
(0.091054 2.64887 4.66871e-19)
(0.271549 2.63719 -2.15674e-20)
(0.230919 2.6241 -6.5393e-19)
(0.934593 2.36624 1.08544e-19)
(0.828025 2.34054 0)
(1.01107 0.000300656 5.84718e-21)
(1.01323 -0.00386776 -4.91082e-21)
(1.01381 -0.00420314 -8.66011e-20)
(1.01303 -0.00412375 8.72542e-20)
(1.01274 -0.000440867 0)
(0.648176 1.27135 0)
(0.639278 1.15125 0)
(0.747085 1.07409 0)
(0.629462 1.10496 0)
(1.17989 2.65087 2.89308e-20)
(1.05473 2.37904 0)
(0.81565 2.30051 -1.6281e-21)
(0.801621 2.48428 0)
(0.884593 2.57848 -9.98181e-21)
(0.913144 2.53741 6.60453e-21)
(0.831476 0.124743 0)
(0.804845 0.143254 5.33397e-20)
(0.911394 0.12944 2.66256e-19)
(0.863778 0.110576 -1.07278e-19)
(0.856514 0.0791862 -3.24367e-19)
(1.02396 0.212646 -1.37082e-19)
(0.944292 0.268939 -7.30238e-21)
(0.887892 0.290746 2.30699e-19)
(0.975138 0.211809 1.73006e-19)
(0.927365 0.166205 -3.31507e-19)
(0.890468 0.17858 4.40838e-20)
(0.906558 0.273086 -8.13634e-20)
(0.88467 0.193825 0)
(0.9741 0.1749 1.56483e-19)
(1.00249 0.167961 0)
(1.00517 0.187205 0)
(1.0777 0.100226 4.29556e-20)
(1.0111 0.147451 -6.79944e-21)
(1.01072 0.218894 -2.85352e-20)
(1.04706 0.181078 0)
(1.01494 0.0234614 1.3094e-19)
(1.02325 0.0423688 1.53129e-19)
(1.02144 0.0273958 -1.29177e-19)
(1.0153 0.0459509 -1.03423e-19)
(1.00271 0.0466274 -1.74236e-19)
(0.977918 0.130821 0)
(0.982179 0.0779647 0)
(0.971501 0.0473686 -1.22947e-19)
(0.931588 0.0604489 5.2474e-20)
(0.998622 0.0818708 1.46827e-19)
(1.02156 0.100301 -1.37819e-19)
(1.01702 0.133137 1.30232e-19)
(0.997549 0.121712 0)
(1.03233 0.0955251 0)
(1.01923 0.0790305 -5.92479e-20)
(1.01787 0.0770944 -1.1625e-19)
(0.589883 1.09664 -8.1898e-20)
(0.632145 1.49194 1.49764e-19)
(1.14676 2.77098 7.34753e-20)
(1.20284 3.13023 -5.14045e-20)
(1.24409 2.75707 3.98217e-19)
(1.29059 2.72854 -2.02257e-19)
(1.2541 2.34621 -1.79414e-20)
(1.18858 3.03766 1.64759e-19)
(1.20226 2.997 -1.79459e-19)
(1.18598 3.28275 -1.87358e-19)
(1.40194 2.99749 2.25669e-19)
(1.41724 2.92962 0)
(0.518742 0.847761 -6.36315e-21)
(0.242542 1.27425 1.86748e-19)
(0.481606 0.5436 2.21823e-19)
(0.331132 0.319861 2.59387e-19)
(0.575325 0.439076 2.56182e-19)
(0.539385 0.509644 -4.06014e-19)
(0.54106 0.517505 3.37158e-19)
(0.520811 0.482129 -1.33745e-19)
(0.499228 0.422484 3.09906e-19)
(0.771885 0.258104 -1.16288e-19)
(0.739886 0.288631 0)
(0.740243 0.246127 7.74513e-21)
(0.68985 0.523756 1.21838e-19)
(0.662309 0.497797 -4.51225e-19)
(0.622581 0.500557 1.52889e-20)
(0.641663 0.481422 0)
(0.655795 0.741083 8.43689e-20)
(0.737542 0.7713 4.10533e-20)
(0.697616 0.844604 -5.31472e-20)
(0.807921 0.786502 -7.77294e-21)
(0.872723 0.838243 1.12174e-20)
(0.873796 0.840772 -1.15272e-20)
(0.794238 0.637782 -1.22065e-19)
(0.877764 0.703334 7.24151e-21)
(0.939722 0.705931 0)
(0.927465 0.674665 -4.99008e-22)
(0.973696 0.317605 3.41486e-20)
(1.08417 0.30073 -1.44226e-20)
(1.00565 0.261878 5.49479e-20)
(0.946972 0.343666 -8.33668e-20)
(0.980158 0.424874 0)
(1.05386 0.400538 0)
(0.885492 0.342534 7.06652e-21)
(0.826844 0.28136 0)
(0.834834 0.277718 1.2253e-19)
(0.888619 0.29059 -2.87534e-21)
(0.892854 0.410608 4.42777e-19)
(0.825373 0.488222 1.13259e-19)
(0.845611 0.433804 -1.52182e-19)
(0.800855 0.421614 1.62191e-19)
(0.78675 0.407705 1.11601e-19)
(0.78584 0.39736 -1.08999e-19)
(1.02067 -0.0119948 1.38461e-19)
(1.01993 -0.009895 0)
(1.01822 -0.00834479 9.29028e-20)
(1.02089 -0.0100228 -2.07196e-19)
(1.02818 -0.0024469 1.00333e-19)
(1.02668 0.00774675 -2.12346e-19)
(1.02562 0.0117521 0)
(1.02367 0.0132989 -4.43691e-20)
(1.01861 0.00263495 1.10752e-19)
(1.01657 0.00985786 -5.62916e-20)
(1.02106 0.00897041 4.14488e-20)
(-0.096192 1.64529 0)
(-0.153721 1.69934 0)
(-0.142691 1.54562 0)
(-0.0955257 1.58153 0)
(-0.349079 1.61791 -3.01303e-19)
(-0.334057 1.43345 9.47795e-20)
(-0.371 1.8771 8.59754e-20)
(-0.445642 1.65743 -1.53517e-19)
(-0.246035 1.75138 2.0849e-20)
(-0.270313 1.7394 -1.65616e-20)
(-0.314214 1.59114 5.71203e-20)
(-0.285541 1.59874 1.0378e-19)
(-0.218899 1.62033 7.78461e-21)
(-0.208477 1.66849 1.98174e-21)
(-0.279344 2.22805 -2.72359e-20)
(-0.294988 2.33548 0)
(-0.375643 2.27892 -7.64379e-20)
(-0.407457 1.98202 -6.6939e-20)
(0.184592 2.22059 7.51207e-20)
(0.132137 2.64135 0)
(0.213829 2.56386 -4.86839e-20)
(0.276416 2.56934 3.40081e-20)
(-0.0592226 2.29365 2.24806e-19)
(-0.258358 2.31001 -1.49946e-19)
(-0.193075 2.56794 0)
(-0.157664 1.89428 -3.18485e-20)
(-0.112426 1.8905 -7.30301e-20)
(-0.125341 1.8702 0)
(-0.116957 1.96946 -1.23895e-21)
(-0.185688 1.97678 2.08477e-20)
(-0.0606339 1.78131 3.21003e-21)
(-0.0375785 1.78702 -4.97325e-20)
(-0.0364145 1.79494 1.43255e-20)
(-0.0620802 1.79298 1.66353e-20)
(-0.0920822 1.79039 0)
(-0.0299683 1.79563 0)
(-0.0257186 1.79015 1.59802e-20)
(-0.0254314 1.79829 -5.21053e-21)
(-0.0261097 1.79804 0)
(-0.0225464 1.78666 1.23178e-20)
(-0.0225913 1.78511 -2.45014e-20)
(1.03049 0.0167728 0)
(1.03801 0.0191091 -1.33124e-20)
(1.03828 0.0219476 -9.72458e-20)
(1.03781 0.0231938 0)
(1.03722 0.0246099 0)
(1.03961 0.0122381 -3.98943e-21)
(1.03787 0.010532 1.63837e-19)
(1.0356 0.0129506 1.97719e-19)
(1.03165 0.0117362 0)
(1.02621 0.0101571 0)
(1.03182 0.0191239 9.933e-20)
(1.02474 0.0138681 0)
(1.02587 0.0119569 0)
(-0.0176783 1.81695 0)
(-0.0220709 1.80152 1.16486e-21)
(-0.0199347 1.81141 7.73767e-21)
(-0.0261648 1.79908 0)
(-0.0223312 1.80465 1.03152e-20)
(-0.0252623 1.80056 -5.12078e-21)
(-0.0269395 1.79795 0)
(0.461934 1.62721 0)
(0.54516 1.35738 5.11097e-19)
(0.499785 1.35948 0)
(0.542762 1.36293 -6.30957e-19)
(0.522992 1.40406 0)
(0.562635 1.38714 2.88402e-19)
(1.01655 2.7002 -2.39983e-21)
(0.948468 2.39032 -1.34271e-19)
(0.875385 2.13467 1.72587e-19)
(0.840639 2.33603 7.11571e-20)
(0.829454 2.50797 0)
(0.886387 2.52273 0)
(0.923804 2.35706 0)
(0.894528 2.32704 -2.54206e-19)
(0.684585 2.47103 -6.23595e-20)
(0.801687 2.48195 -1.64096e-20)
(0.793765 2.45798 1.30454e-20)
(0.699328 2.35307 0)
(0.788112 2.33826 0)
(0.758025 2.34984 -1.48455e-19)
(0.765541 2.47798 0)
(0.596689 1.04717 0)
(0.4991 0.90232 -7.01142e-21)
(0.509694 0.947986 3.16994e-22)
(0.511027 1.06044 0)
(0.506574 0.998745 1.41133e-20)
(0.725794 0.878971 1.15139e-20)
(0.759174 1.00686 0)
(0.732231 0.980876 -4.83708e-20)
(0.633408 0.995468 0)
(0.5965 0.930706 0)
(1.1468 2.79895 4.56923e-20)
(1.12493 2.86001 9.72037e-20)
(0.921935 2.40692 -2.22479e-19)
(0.898667 2.37708 3.37295e-20)
(1.10976 2.76916 0)
(1.05486 2.73884 -4.13746e-20)
(1.07591 2.50632 -3.63204e-20)
(0.956743 2.23018 -1.75023e-20)
(0.475206 1.42133 0)
(0.487313 1.0784 7.18969e-20)
(0.526468 1.14196 0)
(0.854723 0.209536 0)
(0.807982 0.159319 0)
(0.774755 0.184035 0)
(0.838989 0.225579 -1.93194e-19)
(0.786319 0.229255 1.22022e-19)
(0.932576 0.0581468 -1.06316e-19)
(0.937629 0.105356 0)
(0.928629 0.113067 4.98022e-20)
(0.884118 0.0786346 2.05804e-19)
(0.884615 0.0581962 -1.26365e-19)
(1.11592 3.37999 -6.58804e-19)
(1.17597 3.30468 0)
(1.13804 3.45045 -1.38423e-18)
(0.672668 3.59669 1.1869e-18)
(1.01841 3.12457 2.82072e-19)
(0.500752 0.842396 1.30416e-19)
(0.488678 0.819972 0)
(0.382959 0.56054 -5.14617e-20)
(0.398462 0.692194 2.33145e-19)
(0.500133 0.54101 -7.13763e-20)
(0.494753 0.56109 8.00455e-20)
(0.633121 0.555885 1.62858e-19)
(0.648842 0.576597 0)
(0.590914 0.63078 0)
(0.562367 0.573394 0)
(0.926408 0.580303 -3.51913e-20)
(0.851885 0.520452 -1.08202e-19)
(0.889042 0.572111 3.5502e-20)
(0.922043 0.4769 -7.75628e-20)
(0.991893 0.455539 0)
(1.02153 0.569562 1.06723e-21)
(0.831235 0.368658 -2.45188e-19)
(0.825496 0.359342 -2.87232e-19)
(0.810476 0.366293 1.91655e-19)
(0.789674 0.3422 -2.20538e-19)
(0.824266 0.293676 -1.63267e-19)
(0.794601 0.294865 2.00488e-19)
(1.03441 -0.00160845 -1.04387e-19)
(1.03538 -0.000253438 2.14572e-19)
(1.02339 -0.00746803 1.29947e-19)
(1.02594 -0.0060774 -1.56295e-19)
(1.03307 0.0125714 0)
(1.03599 0.00952078 -2.58246e-19)
(-0.337761 1.94726 2.06378e-20)
(-0.328068 1.87864 0)
(-0.412192 1.97795 -1.86677e-19)
(-0.406955 1.96124 1.92456e-19)
(-0.38949 1.87514 -1.52559e-19)
(-0.395735 1.89012 0)
(-0.0374872 1.81748 0)
(-0.0286951 1.80502 -5.83019e-21)
(-0.0248065 1.8047 5.2523e-21)
(-0.0239815 1.80688 1.98523e-21)
(-0.0205562 1.81614 -1.08429e-20)
(-0.0260522 1.81826 6.04473e-21)
(0.464676 1.42911 2.29683e-19)
(0.445837 1.41567 -2.44236e-19)
(0.493235 1.34917 2.93308e-19)
(0.483246 1.36817 -1.32357e-20)
(0.637471 1.29097 0)
(0.559245 1.40043 3.60505e-19)
(0.589839 1.37904 -3.56081e-19)
(0.49821 1.31742 -2.80846e-19)
(0.494129 1.27423 0)
(0.524634 1.20441 0)
(0.725462 2.45906 9.16043e-20)
(0.718401 2.4583 3.679e-19)
(0.75312 2.46099 -2.4424e-19)
(0.689726 2.45159 -7.4455e-20)
(0.652017 2.60168 5.33386e-20)
(0.546453 2.58172 -1.67521e-19)
(0.959245 2.36429 -9.48325e-20)
(0.997608 2.39919 0)
(0.884647 2.13345 -1.17917e-19)
(1.02572 2.72189 0)
(1.01566 2.69951 0)
(0.621778 2.3212 2.44114e-19)
(1.1158 3.12687 3.12318e-19)
(0.995123 3.01248 -3.44646e-19)
(0.32489 0.941301 0)
(0.363893 0.84971 -8.90747e-20)
(0.544796 0.758839 -4.00856e-20)
(0.387968 2.16472 0)
(0.413174 2.7695 -1.9952e-19)
(0.432497 2.51326 0)
(0.647479 0.689494 -1.78251e-19)
(0.696998 0.671495 2.53139e-19)
(0.70016 0.642 -2.50672e-19)
(0.612463 0.664515 -2.69393e-20)
(0.676371 0.62006 -1.13812e-19)
(0.988144 2.79362 -2.35994e-19)
(1.02062 2.80194 1.80871e-19)
(0.584036 2.25561 -1.02135e-19)
(0.615468 1.75412 3.7369e-20)
(0.712052 1.91509 6.12404e-20)
(0.985829 2.44168 -5.33413e-20)
(0.985132 2.42314 -9.03557e-20)
(0.675416 1.83541 -1.7329e-21)
(0.459608 1.34488 -5.38006e-20)
)
;

boundaryField
{
    wall-4
    {
        type            noSlip;
    }
    velocity-inlet-5
    {
        type            fixedValue;
        value           uniform (1 0 0);
    }
    velocity-inlet-6
    {
        type            fixedValue;
        value           uniform (0 3 0);
    }
    pressure-outlet-7
    {
        type            zeroGradient;
    }
    wall-8
    {
        type            noSlip;
    }
    frontAndBackPlanes
    {
        type            empty;
    }
}

