/*--------------------------------*- C++ -*----------------------------------*\
  =========                 |
  \\      /  F ield         | OpenFOAM: The Open Source CFD Toolbox
   \\    /   O peration     | Website:  https://openfoam.org
    \\  /    A nd           | Version:  6
     \\/     M anipulation  |
\*---------------------------------------------------------------------------*/
FoamFile
{
    version     2.0;
    format      ascii;
    class       volScalarField;
    location    "0.045";
    object      p;
}
// * * * * * * * * * * * * * * * * * * * * * * * * * * * * * * * * * * * * * //

dimensions      [0 2 -2 0 0 0 0];

internalField   nonuniform List<scalar> 
16000
(
-0.00798614
-0.0245182
-0.041192
-0.0578863
-0.0746559
-0.0915266
-0.10851
-0.125618
-0.142864
-0.160258
-0.177808
-0.195514
-0.213374
-0.231383
-0.249533
-0.267816
-0.286223
-0.304751
-0.323397
-0.342164
-0.361055
-0.38008
-0.399252
-0.418586
-0.438104
-0.457831
-0.477798
-0.49804
-0.518601
-0.539533
-0.560896
-0.582762
-0.605216
-0.628363
-0.652326
-0.677259
-0.703351
-0.73084
-0.760027
-0.791305
-0.825183
-0.862336
-0.903673
-0.950435
-1.00437
-1.06802
-1.14512
-1.24123
-1.36412
-1.53031
-0.00793733
-0.0244692
-0.0411413
-0.0578219
-0.0745845
-0.0914549
-0.108439
-0.125546
-0.142784
-0.160164
-0.177692
-0.195374
-0.213211
-0.231199
-0.249331
-0.2676
-0.285995
-0.30451
-0.323139
-0.341883
-0.360745
-0.379731
-0.398854
-0.418129
-0.437576
-0.45722
-0.477089
-0.497217
-0.517642
-0.538411
-0.559578
-0.581207
-0.603372
-0.626163
-0.649684
-0.674061
-0.699443
-0.726008
-0.75397
-0.783581
-0.815155
-0.849074
-0.885819
-0.925992
-0.97035
-1.01983
-1.0755
-1.13831
-1.2086
-1.28527
-0.00801534
-0.0245101
-0.0410994
-0.0577311
-0.0744645
-0.0913086
-0.108264
-0.125339
-0.142547
-0.159898
-0.177398
-0.19505
-0.212851
-0.230795
-0.248875
-0.26708
-0.2854
-0.303828
-0.322359
-0.34099
-0.359723
-0.378563
-0.397518
-0.4166
-0.435822
-0.455203
-0.474764
-0.494533
-0.51454
-0.534819
-0.555412
-0.576365
-0.597726
-0.619554
-0.641911
-0.664871
-0.688517
-0.712942
-0.738247
-0.764547
-0.791968
-0.820644
-0.850723
-0.882313
-0.915479
-0.950118
-0.985875
-1.02199
-1.05741
-1.09048
-0.00803468
-0.0244624
-0.0409581
-0.057524
-0.0742116
-0.0910175
-0.107936
-0.124974
-0.142143
-0.159455
-0.176915
-0.194522
-0.212269
-0.230146
-0.248138
-0.266235
-0.284423
-0.302695
-0.321044
-0.339467
-0.357962
-0.376532
-0.395179
-0.413909
-0.43273
-0.451651
-0.470682
-0.489839
-0.509137
-0.528595
-0.548232
-0.568069
-0.58813
-0.608436
-0.629011
-0.649882
-0.671076
-0.692621
-0.714538
-0.736843
-0.759531
-0.782551
-0.805803
-0.829144
-0.85233
-0.874994
-0.896701
-0.916761
-0.934178
-0.947617
-0.00803227
-0.0244024
-0.0408204
-0.0573181
-0.0739466
-0.0906963
-0.107558
-0.124536
-0.141643
-0.15889
-0.176282
-0.193816
-0.211481
-0.229259
-0.247134
-0.265089
-0.283109
-0.301184
-0.319305
-0.337467
-0.355665
-0.373897
-0.392159
-0.41045
-0.428772
-0.447124
-0.465507
-0.483926
-0.502381
-0.520877
-0.539413
-0.55799
-0.576605
-0.595251
-0.613921
-0.632601
-0.651269
-0.669898
-0.688445
-0.706848
-0.725018
-0.742855
-0.760208
-0.776881
-0.792609
-0.80707
-0.819823
-0.83033
-0.837947
-0.841949
-0.00800627
-0.0243255
-0.0406933
-0.0571398
-0.073715
-0.0904089
-0.107211
-0.124125
-0.141161
-0.158329
-0.175633
-0.193067
-0.210619
-0.228273
-0.246007
-0.263805
-0.281649
-0.299524
-0.317418
-0.335321
-0.353224
-0.371116
-0.388991
-0.406841
-0.424658
-0.442433
-0.460158
-0.477826
-0.495426
-0.512947
-0.530375
-0.547692
-0.564876
-0.581901
-0.598735
-0.615338
-0.631666
-0.647664
-0.663264
-0.678384
-0.692928
-0.706777
-0.71979
-0.731799
-0.742609
-0.751993
-0.759691
-0.765416
-0.768855
-0.769687
-0.00795988
-0.0242395
-0.0405878
-0.0570031
-0.0735346
-0.0901764
-0.106921
-0.123771
-0.140735
-0.15782
-0.175027
-0.19235
-0.20978
-0.2273
-0.244894
-0.262541
-0.280221
-0.297917
-0.315611
-0.333287
-0.350928
-0.368522
-0.386055
-0.403512
-0.42088
-0.438144
-0.455287
-0.472294
-0.489145
-0.505821
-0.522296
-0.538542
-0.554525
-0.570207
-0.585542
-0.60048
-0.614964
-0.62893
-0.642308
-0.65502
-0.666978
-0.678089
-0.688253
-0.697365
-0.705318
-0.71201
-0.717343
-0.721239
-0.723641
-0.724511
-0.00790638
-0.0241806
-0.0405476
-0.0569533
-0.0734526
-0.0900513
-0.106746
-0.123541
-0.140441
-0.157452
-0.174573
-0.191801
-0.209128
-0.22654
-0.244021
-0.261551
-0.279106
-0.296666
-0.314208
-0.331712
-0.349158
-0.366528
-0.383804
-0.400968
-0.418003
-0.434888
-0.451603
-0.468126
-0.484432
-0.500495
-0.516285
-0.531768
-0.546905
-0.561654
-0.575965
-0.589785
-0.603057
-0.61572
-0.62771
-0.638962
-0.649411
-0.658993
-0.667647
-0.675323
-0.681978
-0.687586
-0.692145
-0.695696
-0.698385
-0.70044
-0.00781626
-0.0240893
-0.040496
-0.0569067
-0.07339
-0.0899671
-0.10664
-0.12341
-0.140283
-0.15726
-0.174342
-0.191525
-0.208802
-0.22616
-0.243581
-0.261044
-0.278525
-0.296002
-0.313452
-0.330852
-0.348183
-0.365423
-0.382553
-0.399554
-0.416404
-0.433083
-0.449567
-0.465831
-0.48185
-0.497593
-0.513031
-0.528126
-0.542839
-0.557127
-0.570939
-0.584224
-0.596927
-0.608992
-0.62036
-0.630974
-0.64078
-0.649724
-0.65776
-0.664851
-0.670975
-0.676137
-0.680392
-0.683916
-0.68706
-0.690195
-0.00786066
-0.0241225
-0.0405183
-0.05693
-0.0734079
-0.0899732
-0.106632
-0.123391
-0.140255
-0.157229
-0.174311
-0.191494
-0.208768
-0.226117
-0.243523
-0.260965
-0.27842
-0.295865
-0.313281
-0.330644
-0.347936
-0.365135
-0.382222
-0.399177
-0.41598
-0.432607
-0.449037
-0.465244
-0.481203
-0.496884
-0.512256
-0.527284
-0.54193
-0.556152
-0.569905
-0.583142
-0.595815
-0.607876
-0.619278
-0.629977
-0.639932
-0.649111
-0.657489
-0.66506
-0.671842
-0.677888
-0.683325
-0.68854
-0.694308
-0.699749
-0.00790883
-0.0244789
-0.0411714
-0.057856
-0.0746163
-0.0914802
-0.108457
-0.12556
-0.142802
-0.160195
-0.177745
-0.195452
-0.213315
-0.231328
-0.249481
-0.267766
-0.286175
-0.304703
-0.323349
-0.342112
-0.361
-0.38002
-0.399185
-0.41851
-0.438018
-0.457732
-0.477684
-0.497909
-0.51845
-0.539357
-0.560692
-0.582524
-0.604939
-0.628037
-0.651942
-0.676803
-0.702808
-0.730187
-0.759233
-0.790327
-0.823972
-0.860831
-0.901777
-0.947999
-1.00119
-1.06384
-1.13986
-1.23578
-1.36354
-1.54539
-0.00797278
-0.0246065
-0.041292
-0.0579617
-0.0747137
-0.091571
-0.108538
-0.125625
-0.142844
-0.160206
-0.177719
-0.195389
-0.213217
-0.231199
-0.249329
-0.267597
-0.285993
-0.304509
-0.323141
-0.341887
-0.360752
-0.379742
-0.398868
-0.418146
-0.437596
-0.457243
-0.477116
-0.497247
-0.517676
-0.538449
-0.559619
-0.581252
-0.603422
-0.626218
-0.649744
-0.674129
-0.699523
-0.726101
-0.754074
-0.783693
-0.815258
-0.849137
-0.885802
-0.925847
-0.970015
-1.01924
-1.07478
-1.13803
-1.20992
-1.28828
-0.00812943
-0.0246919
-0.0412844
-0.0579286
-0.0746679
-0.091504
-0.108441
-0.12549
-0.142669
-0.15999
-0.177464
-0.195095
-0.212881
-0.230816
-0.24889
-0.267093
-0.285414
-0.303845
-0.322378
-0.341013
-0.35975
-0.378595
-0.397555
-0.416644
-0.435873
-0.455263
-0.474834
-0.494613
-0.51463
-0.534922
-0.555529
-0.576497
-0.597877
-0.619726
-0.642107
-0.665089
-0.688755
-0.713202
-0.738529
-0.764839
-0.792247
-0.820877
-0.85087
-0.882365
-0.915502
-0.950155
-0.985838
-1.0215
-1.05609
-1.08801
-0.00818534
-0.0246469
-0.0411368
-0.057733
-0.0744403
-0.0912454
-0.10815
-0.125164
-0.142304
-0.159582
-0.177009
-0.194588
-0.212314
-0.230176
-0.24816
-0.266253
-0.28444
-0.302712
-0.321064
-0.33949
-0.357989
-0.376562
-0.395212
-0.413946
-0.432772
-0.451697
-0.470734
-0.489897
-0.509201
-0.528664
-0.548308
-0.568151
-0.588218
-0.608529
-0.629107
-0.649976
-0.671161
-0.692687
-0.714578
-0.736867
-0.759544
-0.782564
-0.805826
-0.829141
-0.852185
-0.874607
-0.895991
-0.915705
-0.932707
-0.945646
-0.0082011
-0.0245891
-0.0409936
-0.0575275
-0.074181
-0.0909327
-0.107782
-0.124739
-0.141817
-0.159029
-0.176385
-0.193887
-0.211526
-0.229287
-0.247151
-0.265099
-0.283116
-0.30119
-0.319311
-0.337473
-0.355671
-0.373903
-0.392166
-0.410458
-0.428781
-0.447133
-0.465517
-0.483934
-0.502389
-0.520883
-0.539418
-0.557993
-0.576606
-0.59525
-0.613916
-0.63259
-0.65125
-0.669868
-0.688399
-0.70677
-0.724897
-0.742672
-0.759938
-0.776497
-0.79209
-0.806402
-0.818962
-0.82922
-0.83653
-0.840157
-0.00817504
-0.0245113
-0.0408653
-0.0573478
-0.0739479
-0.0906432
-0.107433
-0.124325
-0.141332
-0.158465
-0.175732
-0.193134
-0.21066
-0.228294
-0.246016
-0.263806
-0.281646
-0.299519
-0.317412
-0.335314
-0.353215
-0.371106
-0.38898
-0.406828
-0.424642
-0.442415
-0.460137
-0.4778
-0.495393
-0.512907
-0.530326
-0.547633
-0.564806
-0.581817
-0.598633
-0.615215
-0.631517
-0.647482
-0.663041
-0.678114
-0.692602
-0.706382
-0.719312
-0.731224
-0.741921
-0.751176
-0.758727
-0.764288
-0.767551
-0.768197
-0.00811033
-0.0244205
-0.0407613
-0.0572056
-0.0737547
-0.0903935
-0.107122
-0.123947
-0.14088
-0.157931
-0.175104
-0.192399
-0.209805
-0.227309
-0.24489
-0.262529
-0.280205
-0.297898
-0.31559
-0.333263
-0.350903
-0.368494
-0.386023
-0.403476
-0.420839
-0.438097
-0.455233
-0.472231
-0.489072
-0.505734
-0.522195
-0.538425
-0.55439
-0.57005
-0.585361
-0.600269
-0.614719
-0.628646
-0.641978
-0.654637
-0.666535
-0.677577
-0.687663
-0.696689
-0.704549
-0.711142
-0.716378
-0.72018
-0.722505
-0.723326
-0.00802077
-0.0243584
-0.0407255
-0.057142
-0.073645
-0.0902333
-0.106907
-0.123676
-0.140546
-0.157526
-0.17462
-0.191825
-0.209134
-0.226533
-0.244005
-0.261529
-0.279081
-0.296638
-0.314179
-0.33168
-0.349124
-0.366491
-0.383763
-0.400923
-0.417952
-0.43483
-0.451537
-0.46805
-0.484344
-0.500394
-0.516168
-0.531633
-0.546751
-0.561478
-0.575764
-0.589555
-0.602795
-0.615422
-0.627371
-0.638578
-0.648977
-0.658505
-0.667104
-0.674721
-0.681318
-0.686869
-0.691366
-0.694836
-0.697405
-0.699357
-0.00785406
-0.0242245
-0.0406417
-0.0570405
-0.0735123
-0.0900757
-0.106731
-0.123481
-0.140334
-0.157292
-0.174358
-0.191528
-0.208795
-0.226147
-0.243564
-0.261025
-0.278506
-0.295983
-0.313434
-0.330834
-0.348164
-0.365404
-0.382533
-0.399532
-0.416381
-0.433057
-0.449537
-0.465797
-0.48181
-0.497548
-0.512978
-0.528065
-0.542769
-0.557045
-0.570846
-0.584118
-0.596806
-0.608853
-0.620202
-0.630794
-0.640573
-0.649488
-0.657489
-0.664541
-0.670619
-0.67572
-0.679882
-0.683253
-0.686144
-0.688947
-0.00778803
-0.0240865
-0.0404995
-0.0569023
-0.0733722
-0.0899323
-0.106587
-0.123343
-0.140207
-0.157182
-0.174267
-0.191456
-0.208737
-0.226095
-0.24351
-0.260961
-0.278424
-0.295878
-0.313302
-0.330674
-0.347973
-0.365181
-0.382276
-0.39924
-0.416052
-0.43269
-0.44913
-0.46535
-0.481322
-0.497019
-0.512407
-0.527453
-0.542119
-0.556362
-0.570138
-0.583399
-0.596097
-0.608183
-0.61961
-0.630332
-0.640309
-0.649503
-0.657891
-0.665465
-0.672244
-0.678296
-0.683793
-0.689327
-0.696194
-0.702842
-0.00786171
-0.0244741
-0.0411741
-0.0578461
-0.0745988
-0.0914555
-0.108422
-0.125512
-0.142741
-0.160123
-0.177666
-0.195373
-0.21324
-0.231259
-0.249421
-0.267716
-0.286135
-0.304671
-0.323323
-0.342092
-0.360984
-0.380007
-0.399174
-0.418502
-0.43801
-0.457725
-0.477677
-0.497902
-0.518442
-0.539348
-0.56068
-0.58251
-0.604922
-0.628018
-0.65192
-0.676778
-0.702779
-0.730155
-0.7592
-0.790291
-0.823932
-0.860803
-0.90184
-0.948282
-1.00189
-1.06539
-1.14331
-1.24368
-1.38318
-1.5866
-0.00804634
-0.0247153
-0.0413964
-0.058071
-0.0748266
-0.0916789
-0.108633
-0.125701
-0.142896
-0.160234
-0.177725
-0.195379
-0.213196
-0.231174
-0.249305
-0.267579
-0.285984
-0.30451
-0.323152
-0.341909
-0.360784
-0.379783
-0.398919
-0.418207
-0.437668
-0.457327
-0.477212
-0.497358
-0.517803
-0.538594
-0.559786
-0.581444
-0.603642
-0.62647
-0.650033
-0.674459
-0.699907
-0.72656
-0.754627
-0.784362
-0.81607
-0.850116
-0.886951
-0.92719
-0.971652
-1.02135
-1.07765
-1.14242
-1.21796
-1.3022
-0.00830467
-0.0247591
-0.0413313
-0.0580459
-0.0748327
-0.0916792
-0.108606
-0.125636
-0.142787
-0.160076
-0.17752
-0.195125
-0.212894
-0.230819
-0.24889
-0.267096
-0.285424
-0.303864
-0.322408
-0.341054
-0.359802
-0.378658
-0.397632
-0.416734
-0.435979
-0.455385
-0.474975
-0.494774
-0.514814
-0.535132
-0.555769
-0.576772
-0.598193
-0.620089
-0.642525
-0.665572
-0.689307
-0.713821
-0.739224
-0.765628
-0.793143
-0.821854
-0.85188
-0.88338
-0.916478
-0.951212
-0.987368
-1.02391
-1.05899
-1.09052
-0.00840945
-0.0246544
-0.0411118
-0.0578241
-0.0746115
-0.0914397
-0.108342
-0.125344
-0.142462
-0.159711
-0.177107
-0.194657
-0.212359
-0.230205
-0.24818
-0.266271
-0.28446
-0.302735
-0.321094
-0.339528
-0.358035
-0.376617
-0.395276
-0.414019
-0.432854
-0.45179
-0.470839
-0.490015
-0.509332
-0.528811
-0.548471
-0.568333
-0.588419
-0.608751
-0.629351
-0.650239
-0.67144
-0.692975
-0.714863
-0.737121
-0.759748
-0.782773
-0.806093
-0.829487
-0.852652
-0.875143
-0.896409
-0.915816
-0.932497
-0.945078
-0.00844944
-0.0245736
-0.040934
-0.057601
-0.0743485
-0.0911275
-0.107976
-0.124922
-0.14198
-0.159166
-0.176492
-0.193965
-0.211579
-0.229321
-0.247172
-0.265113
-0.283127
-0.301198
-0.319319
-0.337482
-0.355682
-0.373915
-0.392179
-0.410474
-0.428798
-0.447152
-0.465537
-0.483956
-0.502411
-0.520905
-0.539441
-0.558017
-0.57663
-0.595275
-0.61394
-0.63261
-0.651265
-0.669875
-0.688394
-0.706758
-0.724877
-0.742608
-0.759803
-0.776262
-0.791725
-0.805855
-0.818218
-0.828217
-0.835202
-0.838416
-0.0084233
-0.0244944
-0.0408038
-0.057419
-0.0741124
-0.0908345
-0.107622
-0.124503
-0.14149
-0.158597
-0.175833
-0.193204
-0.210703
-0.228315
-0.246022
-0.263802
-0.281636
-0.299505
-0.317396
-0.335297
-0.353197
-0.371086
-0.388958
-0.406803
-0.424613
-0.442381
-0.460097
-0.477752
-0.495336
-0.512839
-0.530245
-0.547537
-0.564692
-0.581683
-0.598475
-0.615027
-0.631292
-0.647212
-0.662717
-0.677724
-0.692132
-0.705815
-0.718631
-0.730404
-0.74094
-0.750007
-0.757347
-0.76267
-0.765679
-0.766074
-0.00833395
-0.0244228
-0.040729
-0.0572872
-0.0739133
-0.0905716
-0.107294
-0.124104
-0.141013
-0.158032
-0.17517
-0.192431
-0.209811
-0.227294
-0.244861
-0.262491
-0.280162
-0.297853
-0.315543
-0.333214
-0.35085
-0.368438
-0.385961
-0.403407
-0.420761
-0.438008
-0.45513
-0.472112
-0.488933
-0.505573
-0.522009
-0.53821
-0.554143
-0.569767
-0.585036
-0.599896
-0.614289
-0.628149
-0.641404
-0.653973
-0.665768
-0.676693
-0.686645
-0.695519
-0.703209
-0.709615
-0.714651
-0.718253
-0.7204
-0.721124
-0.00819539
-0.0244182
-0.0407624
-0.0572462
-0.0737923
-0.0903866
-0.107047
-0.123792
-0.140633
-0.157579
-0.174637
-0.191811
-0.209096
-0.226478
-0.24394
-0.261459
-0.279011
-0.296568
-0.314109
-0.33161
-0.349052
-0.366414
-0.38368
-0.400831
-0.417849
-0.434714
-0.451405
-0.467898
-0.484169
-0.500192
-0.515937
-0.531369
-0.546449
-0.561134
-0.575373
-0.589112
-0.602292
-0.61485
-0.626722
-0.637842
-0.648144
-0.657564
-0.666045
-0.673534
-0.67999
-0.685386
-0.689703
-0.692953
-0.695248
-0.696982
-0.00792904
-0.0243291
-0.0407377
-0.0571389
-0.0736116
-0.0901672
-0.106806
-0.123535
-0.140363
-0.157295
-0.174336
-0.191485
-0.208738
-0.22608
-0.243493
-0.260955
-0.27844
-0.295921
-0.313374
-0.330777
-0.348107
-0.365345
-0.382471
-0.399465
-0.416306
-0.432973
-0.449443
-0.465689
-0.481686
-0.497405
-0.512814
-0.527877
-0.542556
-0.556805
-0.570574
-0.583811
-0.59646
-0.608462
-0.619761
-0.630296
-0.640011
-0.648852
-0.656768
-0.663717
-0.669663
-0.674586
-0.678482
-0.681435
-0.683743
-0.686036
-0.00774413
-0.0240817
-0.040499
-0.0568876
-0.0733487
-0.089901
-0.106545
-0.123289
-0.14014
-0.157106
-0.174185
-0.191373
-0.208657
-0.226021
-0.243446
-0.260908
-0.278381
-0.295844
-0.313277
-0.330656
-0.347961
-0.365173
-0.382272
-0.399238
-0.416052
-0.432691
-0.449133
-0.465353
-0.481325
-0.497022
-0.512411
-0.527458
-0.542124
-0.556369
-0.570147
-0.583411
-0.596112
-0.608201
-0.619631
-0.630357
-0.640336
-0.649534
-0.657924
-0.665494
-0.672264
-0.678295
-0.683768
-0.689381
-0.696846
-0.704348
-0.00785264
-0.0244743
-0.0411694
-0.0578355
-0.0745878
-0.0914427
-0.108402
-0.125479
-0.142693
-0.160061
-0.177594
-0.195297
-0.213166
-0.231192
-0.249364
-0.267672
-0.286103
-0.304652
-0.323314
-0.342093
-0.360992
-0.380023
-0.399197
-0.418532
-0.438048
-0.45777
-0.47773
-0.497964
-0.518514
-0.539432
-0.560777
-0.582623
-0.605054
-0.628172
-0.652101
-0.676992
-0.703035
-0.730465
-0.759582
-0.790768
-0.824534
-0.861581
-0.902897
-0.949874
-1.00444
-1.06961
-1.15063
-1.25683
-1.40781
-1.62814
-0.00813235
-0.0247202
-0.0413919
-0.0581039
-0.0748844
-0.0917452
-0.108698
-0.125757
-0.142936
-0.160254
-0.177724
-0.19536
-0.213166
-0.231139
-0.249273
-0.267555
-0.285971
-0.30451
-0.323165
-0.341935
-0.360822
-0.379833
-0.398981
-0.418281
-0.437755
-0.457427
-0.477328
-0.497491
-0.517957
-0.538772
-0.559991
-0.581679
-0.603914
-0.626784
-0.650395
-0.674878
-0.70039
-0.727129
-0.755318
-0.785208
-0.817114
-0.851425
-0.888612
-0.929271
-0.974311
-1.02496
-1.0828
-1.14984
-1.22899
-1.31891
-0.00846992
-0.0246233
-0.0411801
-0.0580278
-0.0749028
-0.0917813
-0.108717
-0.125745
-0.142883
-0.160152
-0.177571
-0.195153
-0.212903
-0.230817
-0.248886
-0.267095
-0.285429
-0.303881
-0.322439
-0.341097
-0.359858
-0.378727
-0.397714
-0.416831
-0.436092
-0.455515
-0.475124
-0.494945
-0.515011
-0.535356
-0.556026
-0.577067
-0.598532
-0.62048
-0.642977
-0.666096
-0.689916
-0.714523
-0.740021
-0.766537
-0.794194
-0.823092
-0.853307
-0.884943
-0.918176
-0.953102
-0.989673
-1.02727
-1.06395
-1.09619
-0.00861365
-0.0244032
-0.0408366
-0.0577451
-0.0746662
-0.0915423
-0.10846
-0.125471
-0.142589
-0.159829
-0.177207
-0.194735
-0.212416
-0.230245
-0.248208
-0.266294
-0.284481
-0.302758
-0.321124
-0.339568
-0.358084
-0.376674
-0.395343
-0.414097
-0.432942
-0.45189
-0.470952
-0.490142
-0.509475
-0.528972
-0.548651
-0.568536
-0.588647
-0.609007
-0.629637
-0.650557
-0.67179
-0.693353
-0.715264
-0.737532
-0.760156
-0.783132
-0.806447
-0.829969
-0.853334
-0.876058
-0.897544
-0.916963
-0.933439
-0.945757
-0.0086727
-0.024275
-0.0406003
-0.0574882
-0.0743902
-0.0912235
-0.108087
-0.125043
-0.142105
-0.159287
-0.176601
-0.194056
-0.211651
-0.229374
-0.247209
-0.265139
-0.283145
-0.301211
-0.319329
-0.337493
-0.355694
-0.373929
-0.392195
-0.410491
-0.428818
-0.447174
-0.465562
-0.483983
-0.50244
-0.520936
-0.539473
-0.558051
-0.576666
-0.595312
-0.613978
-0.632649
-0.651303
-0.66991
-0.688425
-0.706784
-0.724897
-0.742634
-0.759818
-0.776225
-0.791603
-0.805616
-0.817817
-0.827627
-0.834353
-0.837211
-0.00864646
-0.0241943
-0.0404679
-0.0573039
-0.0741513
-0.0909268
-0.107729
-0.124619
-0.14161
-0.158711
-0.175935
-0.193287
-0.210764
-0.228354
-0.246042
-0.263808
-0.281631
-0.299494
-0.317381
-0.33528
-0.353177
-0.371064
-0.388933
-0.406775
-0.424581
-0.442344
-0.460054
-0.477702
-0.495278
-0.51277
-0.530164
-0.547441
-0.56458
-0.581551
-0.598321
-0.614846
-0.631078
-0.646958
-0.662414
-0.677362
-0.691697
-0.705294
-0.718005
-0.72965
-0.740034
-0.748928
-0.756071
-0.761176
-0.763948
-0.764097
-0.00853758
-0.0241667
-0.0404465
-0.0571995
-0.0739567
-0.0906597
-0.107395
-0.124209
-0.141115
-0.15812
-0.175235
-0.192469
-0.209822
-0.227284
-0.244835
-0.262454
-0.280118
-0.297804
-0.315492
-0.333161
-0.350795
-0.368377
-0.385895
-0.403333
-0.420678
-0.437913
-0.455022
-0.471986
-0.488788
-0.505405
-0.521815
-0.537987
-0.553887
-0.569475
-0.584701
-0.599513
-0.613849
-0.627643
-0.64082
-0.653299
-0.664991
-0.675796
-0.685611
-0.694328
-0.70184
-0.708048
-0.712868
-0.716251
-0.718204
-0.718817
-0.00835971
-0.0242756
-0.0406023
-0.057216
-0.0738462
-0.0904677
-0.107132
-0.123872
-0.140698
-0.157619
-0.174648
-0.191793
-0.209051
-0.226415
-0.243866
-0.26138
-0.27893
-0.29649
-0.314032
-0.331534
-0.348973
-0.366332
-0.383591
-0.400734
-0.41774
-0.434591
-0.451264
-0.467737
-0.483984
-0.499979
-0.515691
-0.531088
-0.54613
-0.560772
-0.574963
-0.588646
-0.601763
-0.614249
-0.62604
-0.637067
-0.647265
-0.656568
-0.664916
-0.672255
-0.678543
-0.683746
-0.687841
-0.69083
-0.692831
-0.694337
-0.00801496
-0.024329
-0.0407253
-0.0571614
-0.0736561
-0.0902162
-0.106849
-0.123566
-0.140377
-0.157287
-0.174303
-0.19143
-0.208665
-0.225997
-0.243407
-0.26087
-0.278358
-0.295844
-0.313302
-0.330708
-0.348039
-0.365275
-0.382397
-0.399385
-0.416219
-0.432875
-0.449331
-0.465562
-0.481541
-0.497238
-0.512622
-0.527659
-0.542309
-0.556525
-0.570259
-0.583457
-0.596062
-0.608014
-0.619256
-0.629728
-0.639372
-0.64813
-0.655948
-0.662774
-0.668563
-0.673274
-0.67688
-0.679404
-0.68113
-0.682882
-0.00773623
-0.0240801
-0.0404893
-0.0568695
-0.0733278
-0.0898761
-0.106512
-0.123242
-0.140078
-0.157029
-0.174098
-0.191279
-0.208562
-0.22593
-0.243362
-0.260832
-0.278314
-0.295787
-0.313228
-0.330613
-0.347922
-0.365135
-0.382235
-0.3992
-0.416011
-0.432646
-0.449083
-0.465296
-0.481261
-0.496948
-0.512327
-0.527364
-0.542021
-0.556255
-0.570021
-0.583273
-0.595961
-0.608037
-0.619453
-0.630163
-0.640128
-0.649311
-0.657684
-0.665234
-0.671971
-0.677944
-0.683314
-0.688802
-0.696281
-0.704034
-0.00785693
-0.0244725
-0.0411611
-0.0578263
-0.0745815
-0.0914382
-0.108395
-0.125466
-0.142671
-0.16003
-0.177556
-0.195254
-0.213123
-0.231152
-0.249331
-0.267646
-0.286086
-0.304642
-0.323312
-0.342096
-0.361002
-0.380038
-0.399217
-0.418557
-0.438079
-0.457807
-0.477774
-0.498015
-0.518573
-0.5395
-0.560857
-0.582716
-0.605162
-0.628299
-0.65225
-0.677168
-0.703244
-0.730717
-0.759891
-0.791153
-0.825021
-0.862211
-0.903735
-0.951084
-1.00633
-1.07267
-1.1558
-1.26572
-1.42328
-1.65261
-0.00818998
-0.0246823
-0.0413492
-0.0581006
-0.0749073
-0.0917799
-0.108737
-0.125795
-0.142968
-0.160274
-0.177732
-0.195355
-0.213153
-0.231123
-0.249257
-0.267543
-0.285966
-0.304512
-0.323175
-0.341952
-0.360846
-0.379865
-0.39902
-0.418328
-0.437809
-0.45749
-0.477401
-0.497576
-0.518054
-0.538884
-0.56012
-0.581829
-0.604087
-0.626985
-0.650628
-0.675148
-0.700703
-0.727494
-0.755758
-0.785753
-0.817791
-0.852281
-0.889726
-0.930715
-0.976198
-1.02755
-1.08655
-1.15524
-1.23637
-1.32918
-0.00857001
-0.0244572
-0.0410095
-0.0579699
-0.0749207
-0.0918302
-0.10878
-0.125815
-0.142955
-0.160216
-0.177621
-0.195188
-0.212925
-0.230829
-0.248892
-0.267102
-0.285438
-0.303895
-0.322461
-0.341125
-0.359893
-0.37877
-0.397765
-0.41689
-0.43616
-0.455594
-0.475215
-0.495049
-0.515129
-0.535493
-0.556182
-0.577246
-0.598738
-0.620719
-0.643253
-0.666416
-0.690289
-0.71496
-0.740524
-0.767111
-0.79486
-0.823882
-0.854263
-0.886049
-0.919416
-0.95454
-0.991372
-1.02953
-1.06738
-1.10034
-0.00873533
-0.0241426
-0.0405646
-0.0576337
-0.0746661
-0.0915857
-0.108523
-0.125549
-0.14268
-0.159923
-0.177296
-0.194812
-0.212479
-0.230292
-0.248243
-0.266321
-0.284504
-0.302778
-0.321145
-0.339595
-0.358115
-0.37671
-0.395385
-0.414144
-0.432997
-0.451952
-0.471021
-0.49022
-0.509563
-0.529071
-0.548763
-0.568662
-0.58879
-0.609168
-0.629818
-0.65076
-0.672016
-0.693602
-0.715533
-0.737818
-0.760452
-0.783423
-0.806703
-0.83027
-0.85379
-0.876671
-0.898336
-0.917867
-0.93433
-0.946471
-0.00880484
-0.0239749
-0.0402812
-0.0573482
-0.0743781
-0.0912602
-0.108143
-0.125115
-0.142193
-0.159384
-0.176699
-0.194147
-0.211729
-0.229437
-0.247256
-0.265172
-0.283169
-0.301227
-0.31934
-0.337502
-0.355703
-0.373938
-0.392205
-0.410502
-0.42883
-0.447188
-0.465577
-0.484
-0.502459
-0.520957
-0.539495
-0.558074
-0.57669
-0.595337
-0.614005
-0.632677
-0.651331
-0.669938
-0.688451
-0.706808
-0.724919
-0.742658
-0.759853
-0.776255
-0.791585
-0.805541
-0.817661
-0.82737
-0.833939
-0.836572
-0.00877855
-0.0238932
-0.0401474
-0.0571624
-0.0741374
-0.0909613
-0.107783
-0.124688
-0.141693
-0.158803
-0.176028
-0.193373
-0.210837
-0.228409
-0.246078
-0.263828
-0.28164
-0.299495
-0.317376
-0.335271
-0.353166
-0.371051
-0.388918
-0.406757
-0.424561
-0.44232
-0.460027
-0.477671
-0.495242
-0.512728
-0.530114
-0.547383
-0.564512
-0.581471
-0.598227
-0.614736
-0.630949
-0.646806
-0.662233
-0.677146
-0.691438
-0.704984
-0.717631
-0.7292
-0.739493
-0.748282
-0.755308
-0.760286
-0.762922
-0.762925
-0.00865893
-0.023903
-0.0401701
-0.057083
-0.0739502
-0.0906948
-0.107447
-0.124275
-0.14119
-0.158196
-0.175303
-0.192522
-0.209856
-0.2273
-0.244837
-0.262443
-0.280099
-0.29778
-0.315465
-0.333131
-0.350762
-0.368341
-0.385854
-0.403287
-0.420626
-0.437853
-0.454954
-0.471909
-0.488698
-0.505302
-0.521695
-0.537849
-0.553729
-0.569294
-0.584495
-0.599277
-0.613578
-0.627331
-0.640461
-0.652885
-0.664513
-0.675245
-0.684976
-0.693596
-0.700997
-0.707081
-0.711769
-0.715021
-0.716868
-0.717435
-0.00845937
-0.0241058
-0.0404256
-0.057151
-0.0738548
-0.0905043
-0.107179
-0.123925
-0.14075
-0.157661
-0.174673
-0.191799
-0.209039
-0.226388
-0.243829
-0.261338
-0.278886
-0.296444
-0.313987
-0.331488
-0.348926
-0.366282
-0.383537
-0.400673
-0.417672
-0.434514
-0.451177
-0.467637
-0.483869
-0.499847
-0.51554
-0.530915
-0.545933
-0.560548
-0.574709
-0.588359
-0.601437
-0.613879
-0.625619
-0.636589
-0.646722
-0.655951
-0.664215
-0.671458
-0.677635
-0.682712
-0.686665
-0.689502
-0.691352
-0.692757
-0.00807223
-0.024288
-0.0406777
-0.0571522
-0.0736729
-0.0902397
-0.106872
-0.123588
-0.140394
-0.157292
-0.174291
-0.191403
-0.208626
-0.22595
-0.243356
-0.260819
-0.278308
-0.295797
-0.313257
-0.330664
-0.347996
-0.365231
-0.382351
-0.399335
-0.416163
-0.432812
-0.449261
-0.465481
-0.481448
-0.497131
-0.512501
-0.527521
-0.542152
-0.556349
-0.570061
-0.583234
-0.595811
-0.607732
-0.618939
-0.629372
-0.638971
-0.647677
-0.655433
-0.662182
-0.667868
-0.672443
-0.675871
-0.67817
-0.679603
-0.68105
-0.00774077
-0.0240768
-0.0404776
-0.0568554
-0.073315
-0.0898622
-0.106496
-0.12322
-0.140046
-0.156987
-0.174047
-0.191223
-0.208503
-0.225871
-0.243308
-0.260783
-0.27827
-0.295748
-0.313193
-0.330581
-0.347892
-0.365107
-0.382206
-0.399169
-0.415978
-0.43261
-0.449042
-0.46525
-0.481208
-0.496888
-0.51226
-0.527288
-0.541935
-0.55616
-0.569917
-0.583159
-0.595836
-0.607899
-0.619303
-0.63
-0.639951
-0.64912
-0.657477
-0.665007
-0.671716
-0.677644
-0.682935
-0.688287
-0.695602
-0.703327
-0.00785687
-0.0244724
-0.041161
-0.0578262
-0.0745815
-0.0914381
-0.108395
-0.125466
-0.142671
-0.16003
-0.177556
-0.195254
-0.213123
-0.231152
-0.249331
-0.267646
-0.286086
-0.304642
-0.323312
-0.342096
-0.361002
-0.380038
-0.399217
-0.418557
-0.438079
-0.457807
-0.477774
-0.498015
-0.518573
-0.5395
-0.560857
-0.582716
-0.605162
-0.628299
-0.65225
-0.677168
-0.703244
-0.730717
-0.759891
-0.791153
-0.825021
-0.862211
-0.903735
-0.951084
-1.00633
-1.07267
-1.1558
-1.26572
-1.42328
-1.65261
-0.00818991
-0.0246822
-0.0413491
-0.0581006
-0.0749072
-0.0917798
-0.108737
-0.125795
-0.142968
-0.160274
-0.177732
-0.195355
-0.213153
-0.231123
-0.249258
-0.267544
-0.285966
-0.304512
-0.323175
-0.341952
-0.360846
-0.379865
-0.39902
-0.418328
-0.437809
-0.45749
-0.477401
-0.497576
-0.518054
-0.538884
-0.56012
-0.581829
-0.604087
-0.626985
-0.650628
-0.675148
-0.700703
-0.727494
-0.755758
-0.785753
-0.817791
-0.852281
-0.889726
-0.930714
-0.976197
-1.02755
-1.08655
-1.15524
-1.23637
-1.32918
-0.00857
-0.0244571
-0.0410094
-0.0579699
-0.0749206
-0.0918301
-0.10878
-0.125815
-0.142955
-0.160216
-0.177621
-0.195188
-0.212925
-0.230829
-0.248892
-0.267102
-0.285438
-0.303895
-0.322461
-0.341125
-0.359893
-0.37877
-0.397765
-0.41689
-0.43616
-0.455594
-0.475215
-0.495049
-0.515129
-0.535493
-0.556182
-0.577246
-0.598738
-0.620719
-0.643253
-0.666416
-0.690289
-0.71496
-0.740524
-0.767111
-0.79486
-0.823881
-0.854263
-0.886048
-0.919416
-0.954539
-0.991372
-1.02953
-1.06738
-1.10034
-0.00873539
-0.0241426
-0.0405646
-0.0576337
-0.074666
-0.0915856
-0.108523
-0.125549
-0.14268
-0.159923
-0.177296
-0.194813
-0.212479
-0.230292
-0.248244
-0.266321
-0.284504
-0.302778
-0.321145
-0.339595
-0.358115
-0.37671
-0.395385
-0.414144
-0.432996
-0.451952
-0.471021
-0.49022
-0.509563
-0.529071
-0.548763
-0.568662
-0.58879
-0.609168
-0.629818
-0.65076
-0.672015
-0.693602
-0.715533
-0.737818
-0.760452
-0.783423
-0.806703
-0.830269
-0.853789
-0.876671
-0.898336
-0.917866
-0.934329
-0.946471
-0.00880496
-0.023975
-0.0402812
-0.0573482
-0.0743781
-0.0912602
-0.108143
-0.125115
-0.142193
-0.159384
-0.176699
-0.194147
-0.21173
-0.229437
-0.247257
-0.265172
-0.283169
-0.301226
-0.319339
-0.337502
-0.355703
-0.373937
-0.392205
-0.410502
-0.42883
-0.447188
-0.465577
-0.484
-0.502459
-0.520957
-0.539495
-0.558074
-0.57669
-0.595337
-0.614005
-0.632677
-0.651331
-0.669938
-0.688451
-0.706807
-0.724919
-0.742658
-0.759852
-0.776255
-0.791584
-0.80554
-0.817661
-0.827369
-0.833939
-0.836572
-0.00877873
-0.0238934
-0.0401475
-0.0571624
-0.0741375
-0.0909613
-0.107783
-0.124688
-0.141693
-0.158804
-0.176028
-0.193374
-0.210837
-0.228409
-0.246078
-0.263828
-0.28164
-0.299495
-0.317376
-0.335271
-0.353166
-0.371051
-0.388917
-0.406757
-0.42456
-0.44232
-0.460027
-0.477671
-0.495242
-0.512728
-0.530114
-0.547383
-0.564512
-0.581471
-0.598227
-0.614736
-0.630949
-0.646805
-0.662233
-0.677145
-0.691438
-0.704983
-0.71763
-0.729198
-0.739492
-0.748281
-0.755307
-0.760285
-0.76292
-0.762924
-0.00865909
-0.0239031
-0.0401702
-0.0570831
-0.0739503
-0.0906949
-0.107447
-0.124275
-0.14119
-0.158196
-0.175304
-0.192522
-0.209857
-0.227301
-0.244837
-0.262443
-0.280099
-0.29778
-0.315464
-0.33313
-0.350761
-0.368341
-0.385854
-0.403287
-0.420625
-0.437853
-0.454954
-0.471909
-0.488698
-0.505302
-0.521695
-0.537849
-0.553729
-0.569294
-0.584495
-0.599277
-0.613578
-0.627331
-0.640461
-0.652885
-0.664512
-0.675244
-0.684974
-0.693594
-0.700995
-0.707079
-0.711766
-0.715018
-0.716866
-0.717433
-0.00845948
-0.0241059
-0.0404257
-0.057151
-0.0738549
-0.0905043
-0.107179
-0.123925
-0.14075
-0.157661
-0.174674
-0.191799
-0.20904
-0.226388
-0.243829
-0.261338
-0.278886
-0.296444
-0.313986
-0.331487
-0.348926
-0.366282
-0.383537
-0.400673
-0.417672
-0.434514
-0.451177
-0.467637
-0.483869
-0.499847
-0.51554
-0.530915
-0.545933
-0.560548
-0.574709
-0.588359
-0.601437
-0.613879
-0.625618
-0.636588
-0.646721
-0.65595
-0.664213
-0.671456
-0.677633
-0.682708
-0.686661
-0.689497
-0.691347
-0.692753
-0.00807229
-0.0242881
-0.0406778
-0.0571523
-0.073673
-0.0902397
-0.106872
-0.123588
-0.140394
-0.157292
-0.174291
-0.191403
-0.208626
-0.22595
-0.243356
-0.260819
-0.278308
-0.295796
-0.313257
-0.330664
-0.347996
-0.365231
-0.382351
-0.399335
-0.416162
-0.432812
-0.449261
-0.465481
-0.481448
-0.497131