/*--------------------------------*- C++ -*----------------------------------*\
  =========                 |
  \\      /  F ield         | OpenFOAM: The Open Source CFD Toolbox
   \\    /   O peration     | Website:  https://openfoam.org
    \\  /    A nd           | Version:  6
     \\/     M anipulation  |
\*---------------------------------------------------------------------------*/
FoamFile
{
    version     2.0;
    format      ascii;
    class       volScalarField;
    location    "0";
    object      P_rec;
}
// * * * * * * * * * * * * * * * * * * * * * * * * * * * * * * * * * * * * * //

dimensions      [0 2 -2 0 0 0 0];

internalField   nonuniform List<scalar> 
918
(
2.91964
1.49205
0.248788
2.96469
0.0117484
1.23631
0.147949
1.9739
3.01641
0.666051
0.447214
2.38375
0.82257
0.800846
0.216807
0.188095
2.28874
-0.177492
2.52386
0.207231
0.362338
2.99908
2.81983
2.54425
2.33965
0.528504
0.994893
-0.0462677
-0.116458
-0.0746306
0.0195989
0.163957
0.0964124
1.13797
1.2177
1.34436
2.45596
1.56461
0.380452
0.375021
0.256165
-0.0758502
2.02933
2.07153
1.2065
1.91072
1.82265
2.51865
2.95523
3.02351
2.84214
2.96193
3.03595
0.979162
0.614926
0.536189
0.682096
0.619883
0.535618
0.463825
0.480483
0.476271
0.426377
2.2958
2.37938
2.38586
2.3928
2.36275
1.44868
1.42287
1.53092
0.819897
1.166
0.80619
1.03899
0.822134
0.898031
0.774742
0.732119
0.156739
-0.378359
0.564122
0.571634
0.0193186
0.200772
0.243129
2.29432
2.30758
2.25322
2.25212
1.49511
0.0108349
-0.232894
2.60209
2.58222
2.97593
2.84697
2.65641
2.52545
0.207273
0.219082
0.102462
0.22483
0.17419
0.856874
1.14799
2.4654
2.5419
2.33786
2.34257
2.33988
1.99349
2.39816
2.36158
0.709753
0.870526
0.581331
0.74326
1.02355
0.96196
1.16646
1.23217
-0.119862
-0.00753177
0.204623
0.0948591
0.163291
2.44408
2.41581
2.47975
2.47116
2.49572
1.44647
1.37127
1.65137
1.7391
0.663291
0.664246
-0.0482225
0.0179805
-0.243366
1.96554
2.10608
2.15174
0.940383
1.18041
0.940427
1.34941
1.34361
2.5049
2.5004
2.4951
2.5499
2.54612
2.55763
2.97456
2.95973
3.05023
0.969235
1.04946
0.981526
0.891868
0.274522
0.403822
0.253155
0.600165
0.623135
0.528967
0.622077
0.592032
0.492141
0.57772
0.51752
0.553332
0.34359
0.310054
2.30021
2.25892
2.29942
2.3289
2.43513
2.41689
2.40486
2.42105
1.20743
1.18905
1.08719
1.04084
-0.93944
-2.57981
0.615868
0.656572
0.0225597
-0.00903319
-0.000843431
-0.162119
-0.0137112
-0.0826207
0.396222
0.319737
0.263909
0.316541
2.32145
2.35676
1.54426
1.6045
1.36152
1.36132
2.53806
2.57145
2.57912
2.57583
0.303703
0.241093
0.28805
1.72627
1.42492
1.56891
1.94879
1.81519
2.05622
2.12858
2.35198
2.36062
2.37485
0.677977
0.801987
1.46365
0.943479
1.40243
1.04222
1.01955
1.16919
0.915444
2.34552
2.39953
2.38458
2.49948
2.49531
2.50649
2.4552
2.45883
2.45746
1.18984
0.987172
1.89114
1.86804
1.78946
1.88068
1.96231
1.94797
2.22655
2.16447
2.19881
1.55434
1.54971
0.798943
0.760679
2.18635
2.21054
2.19445
1.0348
0.933464
1.01498
0.989252
0.94726
1.05578
0.970339
0.0764646
0.537385
0.695354
0.682181
0.669564
0.382372
0.491947
0.436679
1.56236
1.65045
1.09753
1.29383
1.2254
0.564433
0.709203
0.920699
0.68758
0.792926
0.937395
0.831019
1.86483
1.83155
1.89036
1.85742
1.89137
1.74879
1.64966
1.61951
0.700325
0.709256
0.697714
1.67096
1.78511
1.75215
2.49153
2.49865
-0.0838265
0.0494506
2.7696
2.81043
-0.0978426
0.019569
0.737902
0.801716
1.64558
2.5818
2.47397
2.68039
0.6026
0.857204
0.406254
0.394483
0.203768
2.33066
2.24935
2.16878
-0.0786346
0.153835
0.133082
0.375395
2.6393
2.58853
2.64001
2.67244
2.71815
0.0553484
0.0309535
0.114764
0.0638565
0.195279
0.225802
2.46662
2.42841
0.657942
2.62189
2.6819
2.69624
2.66094
2.6912
2.65649
0.101735
0.166859
0.204525
1.85351
2.02187
0.744755
0.510567
0.823416
0.714137
0.631809
0.797396
0.716057
0.781268
0.701445
2.08939
1.93786
1.75542
1.47048
1.74541
1.74527
2.56528
2.59659
2.52204
2.55329
2.6439
2.51275
2.69128
2.59636
2.59929
2.71212
0.672471
0.738414
0.769914
0.577703
1.04644
1.09098
0.925473
0.986846
0.662413
0.340233
0.447279
0.403265
0.488678
0.416708
0.528065
0.401669
0.642711
0.30183
0.505776
0.303934
0.637252
0.359808
2.31108
2.37329
2.32061
2.4005
2.3269
2.38048
2.30132
2.29705
2.3507
2.18479
2.21462
2.23318
0.0997849
0.108481
0.157594
0.210365
0.283672
0.0652948
0.0568898
0.0730976
0.0942943
-0.00273295
0.146813
0.195685
0.577531
0.337066
1.45239
1.24407
1.07169
2.51004
2.63357
2.5593
2.6528
2.7
2.78224
2.69222
2.61471
2.45871
2.5079
2.431
2.46562
0.777723
0.703019
0.950927
0.939527
1.61644
2.32146
2.10907
2.03604
2.04279
2.16611
1.35587
1.01397
0.251196
-0.0692436
0.771295
0.622587
0.662109
0.979784
1.11613
0.686083
0.775347
0.879827
0.802947
0.834631
1.26981
2.01182
1.2401
1.22899
1.58451
1.50907
1.20092
2.12989
2.15549
1.88505
1.78951
2.04947
1.99534
2.01366
2.02774
2.04683
2.06145
1.90056
1.90526
1.82083
2.21746
2.08559
2.09908
1.99909
2.57696
2.60562
2.54633
2.50009
2.60833
2.50831
2.47716
2.42875
2.47284
2.56283
2.55105
2.4971
0.744015
0.663674
0.760681
0.526806
0.72981
0.594714
0.752919
0.910314
0.720865
0.929568
1.18853
0.94652
0.670733
0.905506
0.774068
1.07631
0.941121
0.895188
0.747229
0.88686
0.873164
0.905332
0.820156
0.490592
0.546782
0.704338
0.45168
0.671829
0.656657
0.773169
0.450596
0.601502
0.471529
0.359383
0.565325
0.792571
0.636446
0.655252
0.220573
0.204367
0.0363349
0.135127
0.645211
0.388101
2.46734
2.40561
2.42041
2.34843
2.42383
2.37898
2.25945
2.44953
2.50712
2.44413
2.31477
2.28417
2.22928
2.30539
2.32709
2.32217
2.49704
2.46582
2.34931
2.40928
2.28776
2.31871
2.1763
2.23807
2.29797
-0.0567434
0.158538
0.0567923
0.0536204
0.127848
0.229412
0.498387
0.27657
0.502665
0.401611
0.368266
0.216824
0.276429
0.862635
1.02469
0.782072
0.552517
0.444162
1.51514
1.58111
1.42633
1.35476
1.48597
1.45882
1.52517
1.22206
1.16456
1.27928
1.80153
1.77934
2.57175
2.53586
2.58692
2.62572
2.57594
1.04937
1.31095
1.41881
1.63481
1.66236
1.65745
1.40702
1.41608
1.49096
1.52468
2.27156
2.29459
2.31284
2.35877
2.36316
2.0666
2.17934
2.18772
2.25959
2.2088
2.20952
2.27224
2.21483
2.16606
2.20947
2.21233
2.21223
2.21491
2.16782
2.21211
2.32212
2.29346
2.2928
2.29668
2.39972
2.24176
2.3326
2.42739
2.34566
2.20105
2.19583
2.22615
2.22656
2.24954
2.24332
2.20853
1.71779
1.88815
1.52925
1.47293
1.55003
1.34578
1.29325
1.46338
1.44432
1.1598
1.14465
0.811275
1.84763
1.19126
1.13784
0.491095
1.73228
1.83589
1.76342
1.50776
1.54257
2.17896
2.19316
2.21829
2.01509
1.96226
1.95098
1.93442
2.06759
1.90182
1.76208
1.91487
1.70866
1.79111
1.95308
1.88546
1.86116
1.93791
2.03403
1.95027
1.93599
2.03983
2.00523
2.07208
2.09558
2.1395
2.20509
2.1083
1.9576
2.06291
2.00827
2.06907
2.12054
2.08991
2.53598
2.50207
2.52927
2.50855
2.46782
2.51001
2.42757
2.54561
2.57521
2.60949
2.58254
0.491132
0.583584
0.709353
0.539274
0.797863
0.746251
0.726601
0.7206
0.80246
0.809359
0.701865
0.734129
0.861131
0.708653
0.90293
0.931996
0.819801
0.770706
1.15112
1.20612
1.16734
1.19618
1.11067
1.04915
1.15803
0.601236
0.734634
0.62432
0.592202
0.637961
0.392055
0.5696
0.404874
0.539934
0.444794
0.0233126
0.319657
0.441961
0.156211
0.284028
0.329179
2.41005
2.40538
2.34602
2.29903
2.32679
2.33377
2.43225
2.47485
2.48234
2.46664
2.47517
2.41927
2.44184
0.23402
0.483249
0.542463
0.416637
0.323248
0.158499
0.129016
1.43851
1.20053
1.26701
1.01955
0.850509
0.937071
1.65067
1.78748
1.75854
1.8611
1.7326
1.68121
1.80786
1.9201
1.61184
1.62174
1.56864
1.60358
1.67588
1.69886
1.63989
1.49478
1.59297
1.87527
1.43204
1.36184
1.57532
1.6712
1.6569
1.63077
1.76671
1.69581
1.67644
1.725
1.54086
1.7553
1.71578
1.7625
1.80888
1.33994
1.56434
1.46324
2.21338
2.24923
2.28068
2.24624
2.26228
2.30077
2.28841
2.33337
2.39123
2.3839
0.779703
0.889944
0.372834
1.09779
1.29779
1.96877
1.51702
2.31846
2.18455
1.75632
1.87508
2.00565
1.97944
2.05417
2.00243
1.92131
2.01327
1.9271
1.98642
1.86463
1.78167
2.14632
2.13111
2.13551
2.15486
2.11543
2.16299
2.34006
2.43461
2.39384
2.46902
2.50694
2.5484
0.912896
0.768623
0.88866
0.909667
0.904596
0.825577
0.164165
0.224101
0.614496
0.488869
0.345586
0.498255
1.28773
1.31547
1.10466
1.25882
1.15617
0.877029
0.957632
0.937325
1.08303
1.28848
1.62398
1.60286
1.63277
1.65852
1.57083
1.71682
1.75262
1.79784
1.8135
1.71631
1.69224
1.56896
1.11833
1.36302
2.19736
2.53408
2.14721
1.89742
1.47735
1.69635
2.07671
1.97936
1.97087
2.06786
1.9926
1.4031
1.49954
1.37857
1.25461
1.73311
1.51826
1.54228
1.43637
1.5189
)
;

boundaryField
{
    wall-4
    {
        type            calculated;
        value           nonuniform List<scalar> 
100
(
2.91964
1.49205
0.248788
2.96469
1.23631
0.147949
1.9739
0.666051
0.447214
2.38375
0.82257
0.800846
0.216807
2.28874
-0.177492
2.52386
0.207231
0.362338
2.54425
2.33965
0.528504
0.994893
-0.0462677
1.13797
2.45596
0.375021
-0.0758502
2.07153
1.2065
1.82265
2.51865
0.536189
0.619883
0.480483
0.426377
2.2958
2.38586
2.36275
1.166
1.03899
0.898031
0.732119
-0.378359
0.571634
2.30758
2.25212
-0.232894
2.58222
2.52545
0.219082
0.17419
1.14799
2.5419
2.33988
1.99349
2.36158
0.709753
0.74326
0.96196
1.23217
2.41581
2.47975
2.49572
0.664246
-0.243366
2.15174
0.940427
1.34361
2.4951
2.55763
0.253155
0.623135
0.553332
0.310054
2.25892
2.3289
2.43513
2.42105
1.04084
0.656572
2.35676
2.53806
2.57583
0.28805
1.56891
1.81519
2.12858
2.37485
0.801987
1.04222
2.38458
2.50649
2.45746
2.19881
1.54971
2.19445
0.989252
0.669564
0.792926
1.61951
)
;
    }
    velocity-inlet-5
    {
        type            calculated;
        value           nonuniform List<scalar> 8(2.91964 2.96469 3.01641 2.99908 3.02351 3.03595 2.97593 3.05023);
    }
    velocity-inlet-6
    {
        type            calculated;
        value           nonuniform List<scalar> 4(1.49205 1.23631 1.34436 1.53092);
    }
    pressure-outlet-7
    {
        type            calculated;
        value           uniform 0;
    }
    wall-8
    {
        type            calculated;
        value           nonuniform List<scalar> 
34
(
0.0117484
0.188095
0.0964124
1.56461
0.979162
0.535618
0.243129
1.49511
0.163291
1.37127
1.7391
1.96554
1.04946
0.891868
0.622077
0.492141
-2.57981
0.396222
0.316541
1.6045
1.36132
0.987172
1.89114
1.88068
1.94797
0.760679
0.537385
0.436679
1.65045
1.2254
1.89036
1.89137
0.697714
1.75215
)
;
    }
    frontAndBackPlanes
    {
        type            empty;
    }
}

