/*--------------------------------*- C++ -*----------------------------------*\
  =========                 |
  \\      /  F ield         | OpenFOAM: The Open Source CFD Toolbox
   \\    /   O peration     | Website:  https://openfoam.org
    \\  /    A nd           | Version:  6
     \\/     M anipulation  |
\*---------------------------------------------------------------------------*/
FoamFile
{
    version     2.0;
    format      ascii;
    class       volVectorField;
    location    "0";
    object      U;
}
// * * * * * * * * * * * * * * * * * * * * * * * * * * * * * * * * * * * * * //

dimensions      [0 1 -1 0 0 0 0];

internalField   nonuniform List<vector> 
918
(
(0.986719 0.00163717 0)
(-0.00397746 2.96737 0)
(0.00635214 1.70338 0)
(0.979897 0.000519486 0)
(-0.00966158 1.66717 -6.05578e-22)
(0.00124941 2.95117 -1.52666e-18)
(0.954824 1.24247 4.2196e-19)
(0.528379 0.281975 -6.23815e-21)
(1.00014 -0.000688601 0)
(0.0515708 1.56336 0)
(-0.00673169 1.60987 0)
(0.885505 0.00567408 0)
(0.00997613 2.93368 0)
(0.00229319 2.79888 0)
(0.00427581 3.20903 7.20079e-19)
(0.00353656 1.61454 -1.52136e-20)
(0.658756 0.131439 3.65462e-19)
(0.260835 1.83906 3.70949e-19)
(0.981711 0.0215828 0)
(0.00177692 1.61965 0)
(0.246908 0.309338 -3.61079e-19)
(0.999659 -0.00292684 0)
(1.00061 -0.00662767 0)
(0.969426 0.000823493 0)
(0.838416 -0.0279279 0)
(0.0208455 2.64525 0)
(-0.0110607 2.91515 5.2033e-19)
(-0.00106669 1.71466 0)
(-0.000525725 1.76766 0)
(-0.000817433 1.73378 0)
(-0.00667155 1.7953 0)
(-0.00067408 1.68631 4.74571e-22)
(-0.0130901 1.6252 0)
(-0.0190974 2.98977 -5.41037e-23)
(-0.0136355 3.00766 1.19861e-18)
(0.00148101 2.99936 0)
(0.926356 0.00759093 0)
(0.123395 0.490225 -1.40847e-19)
(0.878407 1.31557 -5.3669e-19)
(1.03 1.0728 5.65912e-19)
(0.752982 1.5058 -9.29291e-20)
(0.850879 1.45415 5.41535e-19)
(0.579767 0.342036 6.08458e-21)
(0.581985 0.243191 0)
(1.21003 0.529002 0)
(0.531775 0.344202 2.87998e-20)
(0.511149 0.274489 -2.9891e-20)
(0.924988 -0.000415488 0)
(0.998822 -0.00058476 0)
(0.999882 -0.00013 0)
(0.99783 -0.00679844 0)
(1.00149 -0.00281367 0)
(1.00046 -0.000992565 0)
(0.031029 1.55644 -3.54756e-19)
(0.0454844 1.69047 0)
(0.123809 1.60055 0)
(-0.00342335 1.66151 0)
(-0.00322584 1.53812 0)
(4.13314e-05 1.626 0)
(-0.0161821 1.67447 0)
(-0.0167311 1.59414 0)
(-0.00457676 1.69483 0)
(0.00144047 1.61125 0)
(0.952782 0.019172 0)
(0.943523 0.00907179 0)
(0.906122 -0.00211173 0)
(0.930317 0.0232585 0)
(0.866252 0.0282294 0)
(0.0135058 3.00382 5.52501e-19)
(0.0111495 3.00678 0)
(0.00674862 3.00331 0)
(0.0111593 2.99918 6.19283e-24)
(0.0055305 2.96171 -8.3135e-19)
(0.0127516 2.98292 0)
(0.00972245 2.90675 0)
(0.0232867 2.93278 1.16955e-24)
(0.00334439 2.82866 0)
(0.0293749 2.91895 0)
(-0.00402714 2.74782 0)
(0.339485 3.64509 0)
(-0.123759 3.72991 0)
(0.167964 3.3007 -6.67304e-19)
(-0.00176865 3.01222 0)
(-0.0114357 1.76481 0)
(-0.00141102 1.69976 1.50064e-20)
(-0.00670721 1.64063 -1.49069e-20)
(0.70722 0.172029 -1.25355e-19)
(0.678712 0.0872537 -1.20477e-19)
(0.705003 0.19353 -3.78516e-19)
(0.661388 0.149759 -2.55305e-19)
(0.240966 1.3227 0)
(0.337635 1.91194 -4.19609e-19)
(0.505133 1.85965 6.87236e-19)
(0.994795 0.0168575 0)
(0.950275 0.0326708 0)
(1.00026 0.000632438 0)
(1.00205 0.00984215 0)
(1.00478 0.0185503 -6.14752e-19)
(0.987915 0.00678717 4.73005e-19)
(-0.00391798 1.6883 0)
(0.00348751 1.6268 0)
(-0.00426282 1.73603 0)
(-0.0106278 1.69805 0)
(0.00204851 1.63027 0)
(0.313778 0.326589 1.1177e-19)
(0.347079 0.307222 0)
(0.990082 0.00271295 0)
(0.973098 0.00618289 0)
(0.897303 0.0203478 0)
(0.89153 0.00515506 0)
(0.860454 -0.0065663 0)
(1.07685 0.0110796 0)
(0.857393 0.0302698 0)
(0.766034 0.0391415 4.73317e-19)
(-0.0348329 2.86447 3.43456e-19)
(0.0378893 2.91187 0)
(0.0452118 2.89154 0)
(0.000373337 2.70251 0)
(-0.00820144 2.98606 4.90176e-19)
(-0.0125633 2.89827 0)
(-0.0100916 2.99214 -1.52775e-18)
(-0.00848308 2.93211 5.25443e-19)
(0.00309774 1.78169 0)
(0.00404178 1.76786 0)
(0.00861718 1.69352 -4.52657e-22)
(0.00794673 1.68993 0)
(0.00666439 1.61538 0)
(0.969883 0.010397 0)
(0.935465 0.011842 0)
(0.918386 -0.014328 0)
(0.968006 0.000234179 0)
(0.921109 -0.0148713 0)
(0.215885 0.817464 1.73074e-19)
(0.310489 0.991596 0)
(0.244555 0.433104 -2.24234e-20)
(0.182594 0.071358 0)
(0.974515 1.13521 -1.63934e-19)
(1.0978 0.88587 3.52216e-19)
(0.484564 1.85937 0)
(0.631023 1.70538 0)
(0.725835 1.68163 0)
(0.454912 0.677372 -2.03918e-19)
(0.633959 0.292468 0)
(0.613379 0.217513 7.40814e-20)
(1.05428 0.955485 0)
(1.1145 0.771377 0)
(1.14444 0.712379 -3.28938e-19)
(1.20163 0.600658 0)
(1.2577 0.405364 4.01534e-20)
(0.972876 -0.00315838 0)
(0.958294 0.00230756 0)
(0.92346 0.00738962 0)
(0.989238 0.00271254 0)
(0.966209 -0.000764551 0)
(0.945559 0.00253678 0)
(1.00109 0.00262631 0)
(1.00022 0.000223664 0)
(1.00007 0.000825202 0)
(0.0188235 1.58713 1.88897e-19)
(0.0448165 1.50744 0)
(0.0182068 1.63232 3.26005e-19)
(0.0260815 1.60651 -2.83393e-19)
(0.175147 1.84928 -3.06036e-19)
(0.0592694 1.73555 0)
(0.152997 1.72438 0)
(-0.0209802 1.66832 0)
(-0.00457741 1.56457 0)
(0.00190278 1.68028 -8.80721e-22)
(0.00479984 1.61061 0)
(0.00108716 1.69532 -4.56291e-20)
(0.00153827 1.62677 8.76975e-20)
(-0.00424084 1.68479 0)
(-0.0132503 1.6747 0)
(0.00360308 1.58835 0)
(0.00634943 1.69328 0)
(0.0140236 1.60819 0)
(1.01271 0.007319 0)
(0.965038 -0.0100373 0)
(0.986166 0.0150965 0)
(0.946286 0.0127882 0)
(0.908703 0.00669802 0)
(0.955643 0.0107339 0)
(0.955658 -0.00284219 0)
(0.909567 -0.00629829 0)
(0.00540755 3.06303 -4.8156e-21)
(0.0117085 3.05633 0)
(0.0121877 2.97052 0)
(0.00630048 2.87971 0)
(0.932262 4.07696 0)
(1.22496 3.44205 7.5476e-19)
(0.0780609 3.09746 0)
(-0.0224541 2.91751 0)
(0.00534489 1.74922 0)
(-0.00344721 1.74657 0)
(-0.00197616 1.75081 0)
(-0.0108727 1.79022 3.78714e-21)
(-0.0134911 1.77666 0)
(-0.0100582 1.7803 0)
(0.00379916 1.62148 1.55545e-21)
(0.00558566 1.69228 2.75702e-20)
(-0.0101785 1.70007 1.53608e-20)
(0.00217108 1.62927 0)
(0.741947 0.119619 1.82995e-19)
(0.691884 0.0373761 -1.77338e-19)
(0.202121 1.39326 0)
(0.305375 1.24318 -1.57332e-19)
(0.147958 1.43985 -4.63387e-19)
(0.170144 1.37429 4.62133e-19)
(0.90041 0.00650018 0)
(0.967616 0.00943901 0)
(0.977868 0.0307092 0)
(0.926552 0.0239791 0)
(0.00722136 1.68894 0)
(0.000668706 1.69356 0)
(0.00182286 1.61956 0)
(0.482468 0.363655 2.69906e-19)
(0.420304 0.364714 -3.38711e-19)
(0.452876 0.276644 0)
(1.19148 0.0804287 -4.28265e-21)
(1.17426 0.031771 0)
(1.10042 0.0464397 0)
(1.01621 0.00875583 0)
(0.754841 0.0850776 0)
(0.774134 0.0909784 -7.61267e-19)
(0.714512 0.040228 2.89641e-19)
(0.0108157 2.98233 3.8932e-19)
(-0.027256 2.86817 3.15165e-20)
(0.00954533 3.04818 -1.03624e-20)
(0.0169151 3.04136 3.95575e-19)
(-0.00933564 2.99888 1.74865e-20)
(-0.0103415 2.95374 -7.07602e-23)
(-0.0157833 3.01156 -3.29559e-19)
(0.0142349 3.01921 2.35253e-19)
(0.00665911 3.03355 -3.84467e-19)
(0.990652 0.00886279 0)
(0.986847 0.00635926 0)
(0.941817 0.00606008 0)
(0.958316 0.00639997 0)
(0.962073 -0.0119335 0)
(0.912518 -0.0120882 0)
(0.961079 0.0066299 0)
(0.960389 -0.00659984 0)
(0.913211 -0.00735661 0)
(0.489401 1.30249 2.74582e-19)
(0.583052 1.47364 0)
(0.249373 0.0945532 1.74193e-20)
(0.455965 0.496831 -3.49589e-20)
(0.380319 0.418531 1.21427e-19)
(0.16238 -0.0115421 -2.83258e-19)
(0.446678 0.998648 1.02102e-18)
(0.478535 0.899002 2.29165e-19)
(0.687144 0.246635 2.77467e-19)
(0.646207 0.276731 6.75444e-20)
(0.627925 0.203503 1.4164e-19)
(1.24722 0.443238 2.19183e-19)
(1.27606 0.235603 2.3091e-19)
(0.0106895 1.68033 1.31574e-19)
(0.00308098 1.6403 0)
(1.04531 0.0247572 0)
(1.00948 0.00893201 0)
(0.988272 0.00505319 0)
(0.00973807 3.07429 0)
(0.0183534 2.94671 6.72306e-19)
(0.0132391 2.95882 0)
(0.00463425 2.855 -6.68536e-19)
(0.00763383 3.08982 1.59893e-19)
(0.0106639 3.07747 0)
(0.613693 1.80088 -1.51765e-19)
(1.25888 2.66347 4.95623e-19)
(0.626717 1.9993 -1.09261e-18)
(0.0197459 2.98353 -3.1911e-19)
(0.0378868 3.00506 0)
(-0.0355973 2.87757 0)
(-0.00401124 1.68379 -5.72123e-21)
(-0.00504318 1.69141 -6.14676e-20)
(-0.00486293 1.62667 -4.2931e-21)
(0.256131 1.33969 5.00474e-19)
(0.356003 1.20775 -3.4367e-19)
(0.0327251 1.55737 3.09361e-19)
(0.087215 1.51002 -3.75921e-19)
(0.0987156 1.45825 4.51819e-20)
(0.00956819 3.11622 -8.90194e-19)
(0.014861 3.11754 9.95642e-19)
(-0.00463095 2.98094 4.44976e-19)
(-0.00185332 2.97746 -4.11648e-19)
(-0.0161456 2.88158 -4.53342e-19)
(0.0111411 3.09541 -1.1798e-18)
(0.00345459 3.10292 1.19768e-18)
(0.503679 0.86842 0)
(0.534602 0.683292 -4.97255e-19)
(0.400945 0.393903 2.37061e-19)
(0.429931 1.1366 6.57211e-19)
(0.454873 1.05039 -1.01411e-18)
(1.26249 0.179697 -4.14553e-20)
(1.28287 0.300011 0)
(1.26725 0.129521 9.08604e-20)
(-0.0117054 1.68726 -1.11131e-21)
(-0.0148276 1.69582 0)
(-0.0143227 1.62587 0)
(0.306631 1.32386 -1.79436e-19)
(0.376404 1.2393 -4.16924e-19)
(0.412095 1.1745 7.57677e-19)
(1.00731 -0.0250835 0)
(0.998335 -0.00730804 1.19243e-19)
(0.00106757 1.77952 0)
(-0.00812505 1.78827 0)
(1.0004 -0.000707192 -8.39727e-22)
(1.00756 0.00307415 2.30661e-19)
(-0.00561792 1.79008 -5.00293e-21)
(-0.0051812 1.79335 0)
(0.0505088 3.18241 1.96622e-19)
(0.417039 3.54413 0)
(1.12081 0.684995 4.46499e-20)
(1.00494 0.00707158 -2.33039e-21)
(1.0016 0.00110247 0)
(1.00179 -0.007167 -6.47266e-22)
(0.0596996 1.84461 0)
(0.0675146 1.72401 0)
(0.00237708 1.7986 0)
(0.0176395 1.78024 5.85413e-20)
(-0.00161806 1.77449 3.23635e-20)
(0.998162 0.0238088 1.50855e-21)
(1.03974 -0.00295916 0)
(1.06701 0.0305683 0)
(0.00636362 1.74881 0)
(0.00255171 1.77921 0)
(0.00274368 1.79027 0)
(0.18965 1.92124 -1.58774e-19)
(1.00844 -0.0285673 0)
(1.00004 -0.0315827 0)
(1.00693 -0.00230493 1.47145e-19)
(0.99697 -0.00468141 -1.78024e-19)
(1.00163 -0.00156572 0)
(0.0110523 1.74415 0)
(0.000924983 1.77432 0)
(0.00912989 1.75154 0)
(-0.0035324 1.79363 0)
(-0.00885172 1.78842 0)
(-0.00903507 1.7925 0)
(1.02228 -0.0020686 0)
(1.01448 0.00997735 -2.43204e-22)
(0.642593 1.22607 2.67972e-19)
(1.00152 -0.0019031 -1.46408e-19)
(0.997791 0.0038419 1.74775e-19)
(1.0013 0.00437906 0)
(1.00352 0.00773737 1.43112e-19)
(1.0011 -0.000855342 -1.78453e-19)
(0.991496 -0.004245 0)
(0.000705527 1.78933 0)
(-0.00302599 1.79491 1.26931e-20)
(-0.00970368 1.79001 -9.57099e-21)
(1.1435 0.259237 -4.11481e-20)
(1.09764 0.0827428 0)
(0.0540796 3.092 -4.85493e-19)
(0.0485772 2.86653 -3.58929e-20)
(0.11962 3.19203 6.60149e-19)
(0.120779 3.20231 -8.83756e-20)
(0.155427 3.24627 0)
(0.0185981 3.13946 1.22611e-19)
(0.0712277 3.15801 4.76695e-19)
(0.0662948 3.18016 -2.34222e-19)
(0.0250964 3.12815 0)
(0.699487 0.347792 0)
(0.62619 0.390465 0)
(1.04763 0.663678 -1.50732e-19)
(1.00918 0.811287 2.28795e-19)
(1.12083 0.574586 0)
(1.1399 0.57384 0)
(1.01408 0.00425394 -2.77644e-19)
(1.02016 0.00158023 3.44439e-19)
(1.01184 0.00304038 0)
(1.01791 0.00863616 0)
(1.02011 -0.00515182 0)
(1.01965 0.0136789 0)
(1.02007 -0.008479 0)
(1.01988 0.0194949 0)
(1.01404 0.0145281 0)
(1.01107 0.00556724 0)
(0.046842 1.83176 0)
(0.0101601 1.82869 0)
(0.0905453 1.87748 0)
(0.0582888 1.89102 0)
(0.0522812 1.70772 0)
(0.0309697 1.69152 -2.03953e-19)
(0.0761614 1.73774 0)
(0.0731424 1.7361 1.0684e-19)
(-0.00209566 1.74755 -1.17881e-19)
(0.00125079 1.7973 0)
(-0.000735116 1.79511 0)
(0.00265055 1.8051 0)
(0.0022637 1.81972 0)
(0.00605175 1.77373 -3.79148e-20)
(-0.00310717 1.77887 4.27336e-20)
(0.00936364 1.78626 5.51815e-20)
(0.0023822 1.78348 0)
(0.000198112 1.77595 -7.81436e-20)
(0.00563242 1.77405 -4.42814e-20)
(0.00306051 1.76951 3.07164e-20)
(-0.00868561 1.77083 -5.6849e-20)
(0.00125995 1.77943 -6.7026e-20)
(1.00415 0.0168772 2.59612e-19)
(1.01004 0.00668947 -3.22229e-19)
(1.0032 0.0191942 -2.77217e-19)
(0.985044 0.0113725 3.51077e-19)
(1.04101 0.00808282 0)
(1.0451 -0.00721251 0)
(1.05935 0.0303589 0)
(1.04375 0.00206227 0)
(1.06452 0.0149041 0)
(1.07938 0.0674362 0)
(1.07429 0.0345411 0)
(1.08969 0.0389153 0)
(-0.00285705 1.78768 -1.40292e-21)
(0.0159084 1.75143 0)
(-0.00506661 1.77424 0)
(0.00529121 1.7802 1.2659e-20)
(0.0126268 1.77712 -5.53947e-22)
(0.0147481 1.74701 1.6505e-20)
(0.00638304 1.75065 -1.66606e-20)
(-0.00416397 1.78234 0)
(-0.00203697 1.78113 0)
(-0.00235506 1.77648 0)
(-0.00362506 1.78971 0)
(-0.0070875 1.78467 0)
(0.305623 1.90578 2.56756e-19)
(0.288488 1.89744 1.22575e-19)
(0.298462 1.59722 -1.22769e-19)
(0.160158 1.62074 3.08178e-19)
(0.227724 1.70802 8.02133e-20)
(0.999054 -0.00340423 0)
(0.99172 -0.0297202 0)
(0.98528 -0.0278517 0)
(1.03157 -0.0120546 0)
(1.00745 -0.0173151 0)
(0.999847 -0.0169949 0)
(0.994292 -0.0179857 0)
(0.994931 -0.00431992 0)
(1.01608 0.00698472 2.58499e-19)
(1.0231 0.00472557 -3.23687e-19)
(1.01409 0.0093763 -2.51944e-19)
(1.01388 0.00279997 3.23973e-19)
(0.634154 1.39009 0)
(0.50064 1.5433 2.49494e-19)
(0.763117 1.13081 1.6324e-19)
(0.802959 1.13621 -2.17455e-19)
(0.901204 2.69692 -8.42619e-19)
(0.833968 0.107902 1.82639e-19)
(1.10274 0.0831261 0)
(1.12863 0.168999 3.5216e-20)
(1.16113 0.137636 3.11941e-21)
(0.972937 0.104243 0)
(0.0970629 3.00454 1.38562e-19)
(0.0987728 2.89851 -5.94149e-19)
(0.0259535 2.36652 3.92862e-19)
(0.195799 0.151058 -1.7292e-19)
(0.373929 3.44672 -2.39378e-19)
(0.195033 3.31108 0)
(0.252405 3.36792 3.11653e-19)
(0.233209 3.04107 -5.5515e-19)
(0.280745 3.16434 0)
(0.00465526 3.11984 2.53971e-20)
(0.0189688 3.12755 -3.05456e-19)
(0.0151108 3.12343 4.48723e-19)
(0.0344297 3.13688 0)
(0.031735 3.1487 0)
(1.13576 2.66954 0)
(0.641606 0.796444 -1.53564e-19)
(0.922011 0.975252 -1.24438e-19)
(0.895851 1.00199 0)
(0.762809 0.944302 6.24892e-20)
(0.995192 0.870757 1.82579e-20)
(0.422351 0.455157 -4.406e-19)
(0.72499 0.330393 -1.49294e-20)
(0.739497 0.316062 1.40281e-19)
(0.628068 0.424272 1.26508e-20)
(0.574202 0.433463 -5.25933e-19)
(0.694601 0.364941 0)
(0.692842 0.424483 2.38997e-19)
(0.685389 0.414509 0)
(0.646678 0.413418 0)
(0.665656 0.379476 0)
(0.779253 0.551737 6.79386e-20)
(1.15616 0.2655 4.04058e-20)
(1.14247 0.404707 0)
(1.1916 0.379573 0)
(0.799173 0.220655 2.2001e-19)
(0.776866 0.520182 -1.17732e-19)
(0.720063 0.460587 1.85953e-19)
(0.888912 0.406291 -1.71769e-19)
(1.02526 -0.00340622 1.76068e-19)
(1.02308 -0.00309288 -1.83323e-19)
(1.02486 -0.00188878 0)
(1.02133 0.00428691 0)
(1.01704 0.00995381 -1.6713e-19)
(1.02154 -0.00348333 1.66536e-19)
(1.01107 -0.00106736 0)
(1.00604 0.00417987 0)
(1.02138 0.0112791 0)
(1.02316 -0.00338495 0)
(1.02537 0.00985546 0)
(1.02302 0.00924973 0)
(-0.00544035 1.83457 0)
(-0.00866335 1.83286 0)
(0.125055 1.85763 1.01662e-20)
(0.18578 1.89756 7.81318e-20)
(0.0820565 1.91911 1.7264e-19)
(0.0917832 1.92267 -2.78222e-19)
(0.116379 1.87582 0)
(0.117738 1.76451 -6.74807e-20)
(0.122773 1.7682 0)
(0.224146 1.70136 -1.15996e-19)
(0.183557 1.66808 3.7059e-19)
(0.132947 1.79598 6.0753e-20)
(0.185442 1.85891 2.42729e-20)
(0.147305 1.8666 -1.94918e-20)
(0.238271 1.79235 -7.62788e-20)
(0.183053 1.76353 0)
(0.189664 1.74622 7.30106e-20)
(0.00268391 1.76395 -3.27113e-20)
(0.016052 1.7464 0)
(0.0530065 1.74695 1.25678e-19)
(0.0129712 1.74192 0)
(0.0612058 1.74732 -1.22566e-19)
(0.0384168 1.74461 0)
(-0.000661443 1.76193 -2.84116e-20)
(0.00293541 1.76473 0)
(-0.000169758 1.76872 0)
(0.000447528 1.76156 3.24295e-20)
(0.0139931 1.77998 1.58637e-21)
(-0.00494703 1.76283 1.35728e-19)
(0.00107766 1.77193 9.1346e-22)
(-0.00982164 1.7648 2.56714e-20)
(-0.00755653 1.764 1.58378e-20)
(0.000470636 1.7923 0)
(0.000880551 1.78982 0)
(0.016165 1.7808 7.97847e-20)
(0.00551861 1.76669 5.38637e-20)
(0.0070709 1.76873 -7.7035e-20)
(0.0256545 1.78299 0)
(0.000845639 1.75377 -4.62254e-20)
(0.00278372 1.7621 2.16964e-20)
(0.00228735 1.76482 -6.44305e-21)
(-0.0110507 1.76864 -3.10566e-20)
(0.00244636 1.77653 -9.65327e-21)
(-0.00232953 1.77741 5.18597e-20)
(1.01277 -0.00308307 -1.73571e-19)
(1.01497 0.00339664 1.71643e-19)
(1.01446 -0.00255473 0)
(0.98253 0.069119 2.63032e-19)
(0.98314 0.0193503 -2.96033e-19)
(0.953396 0.0141303 3.44361e-19)
(0.979822 0.084525 -3.41779e-20)
(1.03081 0.00411797 0)
(1.03822 0.00934294 1.45344e-19)
(1.04081 0.00454746 -1.44438e-19)
(1.01639 0.038668 -8.65599e-21)
(1.0228 0.0126063 7.71515e-20)
(0.986569 0.0287338 0)
(0.972962 0.0219903 -2.69453e-20)
(1.00824 0.0176226 0)
(1.00272 0.026864 0)
(1.01404 9.69203e-05 0)
(1.01639 0.00135629 0)
(0.99975 0.0152762 5.83234e-20)
(1.00086 0.0216926 -1.24836e-19)
(0.99841 0.0270887 -6.02199e-20)
(0.973002 0.0172825 -6.85926e-20)
(0.985707 0.0428906 1.14247e-19)
(1.047 0.039853 0)
(1.04953 0.0897123 0)
(0.0072729 1.75339 -1.74571e-20)
(0.0252064 1.74941 -1.76326e-21)
(0.0217914 1.74548 0)
(0.0116188 1.7738 1.80186e-20)
(0.00994056 1.77895 2.9954e-21)
(0.0104427 1.77778 -3.06124e-21)
(0.00603625 1.77703 3.84006e-20)
(0.0052351 1.76963 -2.45122e-21)
(0.00654245 1.77277 1.03349e-20)
(0.00947061 1.77308 -2.00764e-20)
(0.00779443 1.77588 2.35761e-20)
(0.000286708 1.77337 7.45663e-23)
(0.0120319 1.76625 1.96069e-20)
(0.293519 1.8032 -1.09526e-19)
(0.24732 1.79104 5.53518e-20)
(0.493862 1.65904 -2.40619e-19)
(0.390925 1.83143 -1.21014e-19)
(0.39916 1.7493 0)
(0.336777 1.5948 1.28388e-19)
(0.357747 1.55413 1.83536e-19)
(0.211531 1.62518 2.6974e-20)
(0.204772 1.62507 -4.18132e-19)
(0.266709 1.63353 3.46075e-19)
(0.285691 1.6212 0)
(0.229589 1.6255 -2.61299e-19)
(0.0611031 1.66614 5.31398e-19)
(0.138271 1.65986 -2.88841e-20)
(0.0603905 1.65767 -7.2366e-19)
(0.788496 1.51645 4.92404e-19)
(0.628948 1.49346 0)
(1.03327 -0.0130775 5.7278e-21)
(1.01327 0.00996704 -4.89065e-21)
(1.01977 0.0239791 -8.48026e-20)
(1.02749 0.011519 8.47597e-20)
(1.0297 -0.00499501 0)
(0.286657 1.26104 0)
(0.288865 1.10322 0)
(0.601599 0.980163 0)
(0.434113 0.818321 0)
(0.931952 2.67256 6.0337e-20)
(0.845637 2.32221 0)
(0.377301 2.65659 5.90186e-22)
(0.481992 1.9762 0)
(0.532226 2.18893 -2.96993e-19)
(0.500998 2.32243 1.87098e-19)
(0.854577 0.127474 0)
(0.833411 0.162992 5.28801e-20)
(0.917172 0.101156 2.61317e-19)
(0.853062 0.101175 -1.05634e-19)
(0.833239 0.0891254 -3.25719e-19)
(0.997072 0.192167 -1.44541e-19)
(0.914754 0.283399 -7.52006e-21)
(0.839411 0.271282 2.50135e-19)
(0.933113 0.207383 1.70973e-19)
(0.938229 0.147397 -3.25282e-19)
(0.913312 0.148459 4.2459e-20)
(0.924208 0.225898 -8.04329e-20)
(0.9098 0.178591 0)
(0.961808 0.137426 1.53127e-19)
(0.971566 0.137613 0)
(0.962127 0.175543 0)
(1.06024 0.101912 4.78803e-20)
(0.990644 0.131942 -8.52998e-21)
(0.995181 0.191844 -2.64982e-20)
(1.06454 0.189703 0)
(1.01461 0.0274407 1.32131e-19)
(1.00598 0.032349 1.5487e-19)
(1.0126 0.0332729 -1.27161e-19)
(1.02533 0.0483488 -1.0515e-19)
(1.00543 0.065255 -1.85091e-19)
(0.936578 0.0821128 0)
(0.946232 0.0736172 0)
(0.943154 0.0474973 -1.24238e-19)
(0.909258 0.0637127 5.33065e-20)
(1.01879 0.102232 1.51121e-19)
(0.993619 0.117839 -1.5031e-19)
(1.00107 0.125779 1.35689e-19)
(1.00371 0.130214 0)
(1.01108 0.0974169 0)
(1.00352 0.0899324 -6.27424e-20)
(1.02424 0.0922857 -1.18631e-19)
(0.162624 1.78779 -3.41337e-19)
(0.415522 2.74349 3.1517e-19)
(0.88638 3.13742 3.2128e-19)
(1.14574 3.37157 -9.89929e-20)
(1.05007 2.91918 8.93276e-19)
(1.16367 2.86488 -2.82496e-19)
(1.01709 2.29193 1.32443e-21)
(1.0902 3.29389 3.88719e-19)
(1.06718 3.26725 -5.37222e-19)
(1.16009 3.4618 -2.23972e-19)
(1.36375 3.14887 2.80206e-19)
(1.40069 3.00224 0)
(0.634576 0.816459 8.4338e-21)
(0.195217 1.26114 2.51747e-19)
(0.396737 0.630631 2.79789e-19)
(0.230819 0.388163 3.24627e-19)
(0.561321 0.443843 2.94024e-19)
(0.544296 0.487826 -4.81351e-19)
(0.529638 0.529653 3.99949e-19)
(0.484819 0.511014 -1.64113e-19)
(0.517119 0.452226 3.62169e-19)
(0.797851 0.246822 -1.23242e-19)
(0.759441 0.300937 0)
(0.776357 0.278773 7.53483e-21)
(0.696388 0.494834 1.2336e-19)
(0.660041 0.48404 -4.57566e-19)
(0.581676 0.521794 1.88828e-20)
(0.643009 0.468037 0)
(0.691264 0.66162 6.66829e-20)
(0.753381 0.749676 -1.0792e-20)
(0.719049 0.806404 2.84378e-21)
(0.809981 0.679129 -4.22292e-21)
(0.889167 0.833585 1.38103e-20)
(0.855841 0.789527 -1.42276e-20)
(0.780459 0.57785 -1.19479e-19)
(0.856804 0.624142 3.93905e-21)
(0.955174 0.644319 0)
(0.945314 0.638879 -1.41156e-21)
(0.952251 0.311849 3.8158e-20)
(1.0864 0.296617 -7.60361e-21)
(0.986779 0.227396 5.81216e-20)
(0.941888 0.339931 -8.62085e-20)
(0.953495 0.407038 0)
(1.02282 0.382381 0)
(0.812887 0.344496 -8.92742e-22)
(0.821861 0.292116 0)
(0.837479 0.27519 1.24135e-19)
(0.806783 0.280116 -8.66429e-22)
(0.874351 0.412955 4.7186e-19)
(0.827915 0.501756 1.16877e-19)
(0.819781 0.448443 -1.64669e-19)
(0.772545 0.411896 1.76883e-19)
(0.745405 0.41687 1.20333e-19)
(0.715406 0.413898 -1.16536e-19)
(1.01713 0.0248402 1.35646e-19)
(1.01724 0.00079701 0)
(1.01165 0.018849 9.36073e-20)
(1.01518 0.0230868 -2.09519e-19)
(1.01581 0.00676412 1.00271e-19)
(1.01495 0.0148587 -2.10415e-19)
(1.01008 0.00383324 0)
(1.0084 -0.005408 -4.47967e-20)
(1.02061 0.0028342 1.08995e-19)
(1.02128 -0.00216005 -5.56517e-20)
(1.01561 0.00174779 4.24476e-20)
(-0.00335006 1.81725 0)
(-0.00230186 1.7706 0)
(-0.00829465 1.82642 0)
(-0.00632944 1.82273 0)
(0.0459964 1.80529 4.33992e-20)
(0.066122 1.82044 -1.48657e-20)
(0.0868982 1.78346 -2.10605e-20)
(0.0877218 1.8282 -1.813e-20)
(0.0105837 1.78015 -5.60022e-20)
(0.0146711 1.77926 4.12406e-20)
(0.0305715 1.79338 -1.30505e-20)
(-9.0129e-05 1.79467 -1.58478e-20)
(0.000423495 1.7866 -1.5478e-21)
(-0.00461025 1.78004 -5.10617e-21)
(0.0697812 1.75473 -1.30505e-19)
(0.0824644 1.75394 0)
(0.0815855 1.74937 7.61583e-20)
(0.110161 1.77307 4.93373e-20)
(0.132499 1.72575 -5.4596e-20)
(0.0968754 1.65525 0)
(0.106575 1.64543 -3.87529e-19)
(0.156598 1.65106 2.72e-19)
(0.127418 1.73357 -1.47791e-19)
(0.101006 1.72998 8.23106e-20)
(0.0562757 1.6925 0)
(0.0159906 1.77701 -9.66024e-20)
(0.0195494 1.77631 -1.15228e-19)
(0.0184426 1.77958 0)
(0.0173792 1.77628 -3.42623e-21)
(0.00844117 1.77054 4.88713e-20)
(0.000497523 1.77383 5.26542e-21)
(0.0039993 1.78357 -8.28614e-20)
(0.00113633 1.77607 2.17093e-20)
(-0.00698152 1.7594 2.92781e-20)
(0.000966641 1.76051 0)
(0.00250246 1.78278 0)
(-0.00669463 1.78736 2.3942e-20)
(-0.000272759 1.79075 -7.0467e-21)
(0.00149751 1.78836 0)
(0.0026892 1.78915 1.79419e-20)
(-0.00650557 1.78415 -3.63306e-20)
(1.0028 0.0206668 0)
(1.00555 0.0281542 -1.33783e-20)
(1.00786 0.0107261 -9.60706e-20)
(1.01844 0.0236813 0)
(1.01843 0.0309339 0)
(1.0034 0.00182089 -6.01669e-21)
(1.00656 0.001356 1.58693e-19)
(1.00703 0.00311087 2.00568e-19)
(1.01991 0.00217714 0)
(1.02078 0.00327016 0)
(1.00682 0.0141696 1.02508e-19)
(1.00457 0.014077 0)
(1.01314 0.0119339 0)
(-0.000959955 1.7508 0)
(0.000507351 1.76211 1.03918e-21)
(0.000557727 1.74888 1.17729e-20)
(-0.00235844 1.79007 0)
(-0.00430919 1.77455 1.47074e-20)
(-0.00228829 1.78595 -6.58599e-21)
(-0.00192511 1.79068 0)
(0.338467 1.7914 0)
(0.232974 1.79159 -1.18252e-19)
(0.233453 1.76037 0)
(0.272667 1.79314 7.96978e-20)
(0.285391 1.75718 0)
(0.278564 1.79235 -7.40974e-21)
(0.823702 2.05163 -9.89921e-21)
(0.817781 1.52769 -5.96335e-19)
(0.870538 1.54246 3.97672e-19)
(0.662328 1.49291 1.67009e-19)
(0.622102 1.71933 0)
(0.602854 1.85246 0)
(0.770859 1.49124 0)
(0.712604 1.43442 -6.20391e-19)
(0.416368 1.82607 -3.30684e-19)
(0.554722 1.69364 -1.03284e-19)
(0.504757 1.87116 8.52481e-20)
(0.462925 1.55238 0)
(0.588885 1.51271 0)
(0.523042 1.53163 -2.09794e-19)
(0.539488 1.64638 0)
(0.623774 0.748669 0)
(0.610667 0.680714 5.18878e-19)
(0.760277 0.678899 2.71189e-20)
(0.258177 0.915967 0)
(0.619047 1.00765 -8.29586e-19)
(0.735729 0.824198 4.2811e-20)
(0.720573 0.909353 0)
(0.697011 0.92472 -8.70187e-20)
(0.705355 0.702832 0)
(0.749098 0.710632 0)
(0.828941 3.00807 2.04302e-19)
(0.856899 3.12369 1.42513e-19)
(0.480822 2.93218 -4.5175e-19)
(0.359632 2.78336 -7.22036e-21)
(0.83159 2.67826 0)
(0.76739 2.59442 8.71742e-21)
(0.866021 2.29641 1.7169e-19)
(0.88191 2.00102 2.39244e-21)
(0.100905 2.21371 0)
(0.0328298 1.63733 2.98257e-19)
(0.0768831 1.60644 0)
(0.883262 0.189936 0)
(0.835281 0.179728 0)
(0.803664 0.183106 0)
(0.88074 0.213149 -1.96554e-19)
(0.822358 0.213916 1.26377e-19)
(0.90706 0.0718725 -1.10877e-19)
(0.901746 0.099837 0)
(0.896075 0.098564 4.94844e-20)
(0.868043 0.0878054 2.03713e-19)
(0.878297 0.0704128 -1.24446e-19)
(1.15073 3.49057 -5.55758e-19)
(1.1911 3.45611 0)
(1.16983 3.48054 -1.16841e-18)
(0.723239 3.6257 1.14089e-18)
(1.03721 3.05769 2.03903e-19)
(0.661106 0.978554 1.60664e-19)
(0.790536 0.811648 0)
(0.521758 0.616245 -6.5785e-20)
(0.51789 0.717622 2.52684e-19)
(0.485765 0.636093 -8.41621e-20)
(0.516139 0.566644 1.01101e-19)
(0.619478 0.523595 1.93582e-19)
(0.680264 0.510733 0)
(0.602248 0.644185 0)
(0.557502 0.613231 0)
(0.958984 0.561695 -3.3443e-20)
(0.849182 0.504048 -1.11872e-19)
(0.844607 0.548817 3.94785e-20)
(0.889149 0.487932 -8.3737e-20)
(0.974051 0.444914 0)
(0.982586 0.522735 -1.47555e-21)
(0.788056 0.381129 -2.67495e-19)
(0.805962 0.366426 -2.95885e-19)
(0.751262 0.381519 2.08128e-19)
(0.737964 0.371733 -2.31614e-19)
(0.799212 0.333412 -1.73017e-19)
(0.748705 0.340634 2.13152e-19)
(1.01402 -0.00476394 -1.06205e-19)
(1.01819 -0.00661242 2.14219e-19)
(1.01419 0.0195133 1.29826e-19)
(1.00935 0.0258988 -1.59327e-19)
(0.993122 0.0264024 0)
(1.00853 -0.0041382 -2.49384e-19)
(0.04481 1.78569 2.16764e-20)
(0.0292864 1.78675 0)
(0.0874098 1.77125 1.45912e-19)
(0.0987832 1.7814 -1.26529e-19)
(0.0743285 1.79935 3.90021e-20)
(0.0499776 1.793 0)
(-0.0117646 1.762 0)
(-0.00613896 1.77202 -8.37227e-21)
(-0.00398485 1.77904 7.66559e-21)
(-0.00366398 1.77332 2.71086e-21)
(-0.00624446 1.75726 -1.51564e-20)
(-0.00495113 1.76208 7.80204e-21)
(0.192814 2.00206 -3.31525e-19)
(0.240742 1.90632 3.45503e-19)
(0.241011 1.79182 -5.71688e-20)
(0.273052 1.8866 1.47638e-20)
(0.294411 1.40741 0)
(0.298959 1.68069 1.19148e-19)
(0.297029 1.55096 -1.15413e-19)
(0.194217 1.75193 5.46136e-20)
(0.165832 1.71982 0)
(0.0948263 1.60276 0)
(0.396489 1.7284 5.03666e-19)
(0.405408 1.59649 8.88521e-19)
(0.48194 1.65313 -6.039e-19)
(0.374917 1.61434 -1.08491e-19)
(0.312015 1.68008 1.81175e-19)
(0.261583 1.63054 -4.47523e-19)
(0.873135 1.70096 -2.07164e-19)
(0.901145 1.92235 0)
(0.903488 1.70414 4.64406e-20)
(0.804437 2.34972 0)
(0.803494 2.24901 0)
(0.918023 2.23796 2.82058e-19)
(1.11232 3.19823 4.46531e-19)
(1.0259 2.94565 -3.32891e-19)
(0.376942 0.978041 0)
(0.547409 0.968053 -1.36781e-19)
(0.753136 0.910959 -8.82438e-21)
(0.625704 1.95515 0)
(0.485888 2.67005 -1.41823e-19)
(0.430924 2.43121 0)
(0.697947 0.671985 -1.39499e-19)
(0.735782 0.657686 2.12997e-19)
(0.742743 0.605104 -2.06078e-19)
(0.652025 0.633394 -2.64129e-20)
(0.687846 0.591854 -1.1894e-19)
(1.06587 2.90543 -3.29762e-19)
(1.02372 3.07679 5.35504e-19)
(0.906699 2.40662 -5.08137e-19)
(1.03267 2.00385 3.45385e-19)
(0.789226 2.56016 9.4277e-19)
(1.02228 2.75114 6.93501e-20)
(0.780783 2.9246 -5.38907e-19)
(0.982756 2.15565 -4.00504e-20)
(0.806977 2.13479 -4.67629e-19)
)
;

boundaryField
{
    wall-4
    {
        type            noSlip;
    }
    velocity-inlet-5
    {
        type            fixedValue;
        value           uniform (1 0 0);
    }
    velocity-inlet-6
    {
        type            fixedValue;
        value           uniform (0 3 0);
    }
    pressure-outlet-7
    {
        type            zeroGradient;
    }
    wall-8
    {
        type            noSlip;
    }
    frontAndBackPlanes
    {
        type            empty;
    }
}

