/*--------------------------------*- C++ -*----------------------------------*\
  =========                 |
  \\      /  F ield         | OpenFOAM: The Open Source CFD Toolbox
   \\    /   O peration     | Website:  https://openfoam.org
    \\  /    A nd           | Version:  6
     \\/     M anipulation  |
\*---------------------------------------------------------------------------*/
FoamFile
{
    version     2.0;
    format      ascii;
    class       volVectorField;
    location    "0";
    object      Usup;
}
// * * * * * * * * * * * * * * * * * * * * * * * * * * * * * * * * * * * * * //

dimensions      [0 1 -1 0 0 0 0];

internalField   nonuniform List<vector> 
10000
(
(-0.00175455 -0.00179353 0)
(-0.00516123 -0.00535655 0)
(-0.00853296 -0.00888511 0)
(-0.0118442 -0.0123516 0)
(-0.0150763 -0.0157223 0)
(-0.0181868 -0.018963 0)
(-0.0211055 -0.0220386 0)
(-0.0237407 -0.0249142 0)
(-0.0259918 -0.0275561 0)
(-0.0277631 -0.0299337 0)
(-0.0289764 -0.0320216 0)
(-0.029579 -0.0338008 0)
(-0.0295488 -0.0352599 0)
(-0.0288938 -0.0363954 0)
(-0.0276497 -0.0372113 0)
(-0.0258739 -0.0377184 0)
(-0.0236384 -0.0379358 0)
(-0.0210226 -0.0378893 0)
(-0.018111 -0.0376078 0)
(-0.0149928 -0.0371178 0)
(-0.0117563 -0.0364439 0)
(-0.00848154 -0.0356129 0)
(-0.00523734 -0.0346514 0)
(-0.00208165 -0.0335841 0)
(0.000937968 -0.0324337 0)
(0.00378345 -0.0312206 0)
(0.00642552 -0.0299631 0)
(0.00884276 -0.0286776 0)
(0.0110207 -0.0273781 0)
(0.0129509 -0.0260773 0)
(0.0146304 -0.0247858 0)
(0.0160602 -0.0235128 0)
(0.0172454 -0.0222662 0)
(0.0181939 -0.0210526 0)
(0.018916 -0.0198775 0)
(0.0194237 -0.0187453 0)
(0.0197303 -0.0176596 0)
(0.0198503 -0.0166234 0)
(0.0197984 -0.0156386 0)
(0.0195894 -0.0147068 0)
(0.0192387 -0.0138289 0)
(0.018761 -0.0130055 0)
(0.0181707 -0.0122365 0)
(0.0174817 -0.0115215 0)
(0.0167074 -0.0108601 0)
(0.0158608 -0.0102512 0)
(0.0149535 -0.0096937 0)
(0.0139969 -0.00918621 0)
(0.0130019 -0.00872724 0)
(0.0119781 -0.00831513 0)
(0.0109348 -0.00794811 0)
(0.00988019 -0.00762431 0)
(0.00882234 -0.00734179 0)
(0.00776841 -0.00709858 0)
(0.00672487 -0.00689262 0)
(0.00569766 -0.00672182 0)
(0.00469227 -0.00658409 0)
(0.00371368 -0.00647732 0)
(0.00276636 -0.00639936 0)
(0.0018543 -0.00634808 0)
(0.000981207 -0.00632134 0)
(0.000150431 -0.006317 0)
(-0.000635168 -0.00633279 0)
(-0.00137328 -0.00636642 0)
(-0.00206199 -0.0064156 0)
(-0.00269959 -0.00647809 0)
(-0.00328452 -0.00655166 0)
(-0.0038154 -0.006634 0)
(-0.00429107 -0.00672282 0)
(-0.0047105 -0.00681575 0)
(-0.00507283 -0.00691045 0)
(-0.00537734 -0.00700453 0)
(-0.00562347 -0.00709555 0)
(-0.00581083 -0.00718109 0)
(-0.0059391 -0.00725864 0)
(-0.00600801 -0.00732569 0)
(-0.00601733 -0.00737966 0)
(-0.00596682 -0.0074179 0)
(-0.00585625 -0.00743771 0)
(-0.00568531 -0.00743629 0)
(-0.00545363 -0.00741073 0)
(-0.00516076 -0.00735806 0)
(-0.00480623 -0.00727518 0)
(-0.00438968 -0.00715896 0)
(-0.00391113 -0.0070062 0)
(-0.00337139 -0.00681374 0)
(-0.00277269 -0.00657857 0)
(-0.00211959 -0.006298 0)
(-0.00142007 -0.00596983 0)
(-0.000686789 -0.00559267 0)
(6.18202e-05 -0.00516622 0)
(0.000800679 -0.00469168 0)
(0.00149889 -0.00417213 0)
(0.00211897 -0.00361114 0)
(0.00261172 -0.0030176 0)
(0.00291638 -0.00240167 0)
(0.00296081 -0.00177302 0)
(0.00265662 -0.00115112 0)
(0.00192676 -0.000571441 0)
(0.000776322 -0.000104191 0)
(-0.00532096 -0.00529639 0)
(-0.0155476 -0.0158675 0)
(-0.0254972 -0.0263502 0)
(-0.0351071 -0.0366549 0)
(-0.0443086 -0.0466847 0)
(-0.0529826 -0.0563412 0)
(-0.0609499 -0.0655227 0)
(-0.0679874 -0.0741258 0)
(-0.0738559 -0.0820494 0)
(-0.0783325 -0.0892006 0)
(-0.081239 -0.0955007 0)
(-0.0824616 -0.100891 0)
(-0.0819612 -0.105333 0)
(-0.0797733 -0.108816 0)
(-0.0760012 -0.111348 0)
(-0.0708052 -0.11296 0)
(-0.0643846 -0.113701 0)
(-0.0569578 -0.11364 0)
(-0.0487502 -0.112864 0)
(-0.0399917 -0.111458 0)
(-0.030915 -0.1095 0)
(-0.0217366 -0.107067 0)
(-0.0126434 -0.104236 0)
(-0.00379329 -0.101081 0)
(0.00468253 -0.0976691 0)
(0.0126783 -0.0940614 0)
(0.0201118 -0.0903129 0)
(0.0269219 -0.0864725 0)
(0.0330666 -0.0825834 0)
(0.0385206 -0.0786832 0)
(0.043273 -0.074805 0)
(0.0473253 -0.0709769 0)
(0.0506895 -0.0672232 0)
(0.0533857 -0.0635645 0)
(0.0554412 -0.0600179 0)
(0.0568885 -0.0565975 0)
(0.0577637 -0.0533149 0)
(0.058106 -0.0501791 0)
(0.0579564 -0.0471969 0)
(0.0573567 -0.0443735 0)
(0.0563488 -0.041712 0)
(0.0549743 -0.0392142 0)
(0.0532741 -0.0368807 0)
(0.0512875 -0.0347106 0)
(0.0490527 -0.0327022 0)
(0.0466059 -0.030853 0)
(0.0439815 -0.0291596 0)
(0.0412121 -0.027618 0)
(0.0383282 -0.0262238 0)
(0.0353583 -0.0249719 0)
(0.0323288 -0.0238571 0)
(0.0292645 -0.0228737 0)
(0.026188 -0.022016 0)
(0.0231203 -0.0212777 0)
(0.0200806 -0.0206528 0)
(0.0170864 -0.0201349 0)
(0.0141537 -0.0197176 0)
(0.0112973 -0.0193943 0)
(0.00853018 -0.0191586 0)
(0.00586436 -0.0190039 0)
(0.00331078 -0.0189237 0)
(0.000879312 -0.0189115 0)
(-0.00142146 -0.0189606 0)
(-0.00358443 -0.0190639 0)
(-0.00560361 -0.0192143 0)
(-0.00747368 -0.0194049 0)
(-0.00918987 -0.019629 0)
(-0.010748 -0.0198797 0)
(-0.0121445 -0.0201498 0)
(-0.0133761 -0.0204324 0)
(-0.0144402 -0.0207203 0)
(-0.0153346 -0.0210064 0)
(-0.0160576 -0.0212833 0)
(-0.0166079 -0.0215436 0)
(-0.0169845 -0.02178 0)
(-0.0171865 -0.021985 0)
(-0.0172133 -0.0221507 0)
(-0.0170642 -0.0222695 0)
(-0.0167387 -0.0223333 0)
(-0.0162363 -0.0223338 0)
(-0.0155564 -0.0222627 0)
(-0.0146987 -0.0221111 0)
(-0.0136628 -0.0218701 0)
(-0.0124497 -0.0215304 0)
(-0.0110617 -0.0210825 0)
(-0.00950416 -0.0205168 0)
(-0.00778697 -0.019824 0)
(-0.00592706 -0.0189953 0)
(-0.0039511 -0.0180228 0)
(-0.00189842 -0.0169007 0)
(0.000176434 -0.0156259 0)
(0.00220196 -0.0141995 0)
(0.00409228 -0.0126279 0)
(0.00574122 -0.0109242 0)
(0.0070178 -0.00910946 0)
(0.00777465 -0.00721068 0)
(0.00783901 -0.00526883 0)
(0.00701102 -0.0033561 0)
(0.00511842 -0.00160152 0)
(0.00210395 -0.000248051 0)
(-0.00893383 -0.00866195 0)
(-0.0259811 -0.0260352 0)
(-0.0423799 -0.0432934 0)
(-0.0580286 -0.0602763 0)
(-0.0728093 -0.076827 0)
(-0.0865345 -0.0927868 0)
(-0.0989367 -0.107989 0)
(-0.109695 -0.122263 0)
(-0.118473 -0.13544 0)
(-0.124967 -0.147361 0)
(-0.128943 -0.157894 0)
(-0.130262 -0.166938 0)
(-0.128893 -0.174428 0)
(-0.124915 -0.18034 0)
(-0.118502 -0.184689 0)
(-0.109909 -0.187522 0)
(-0.0994482 -0.188916 0)
(-0.0874714 -0.188975 0)
(-0.0743343 -0.187824 0)
(-0.0603828 -0.185611 0)
(-0.0459597 -0.182481 0)
(-0.0313937 -0.178556 0)
(-0.0169739 -0.173962 0)
(-0.00294445 -0.168818 0)
(0.0104918 -0.163234 0)
(0.0231699 -0.157311 0)
(0.034961 -0.15114 0)
(0.0457686 -0.144801 0)
(0.0555253 -0.138366 0)
(0.06419 -0.131898 0)
(0.0717438 -0.125452 0)
(0.0781873 -0.119078 0)
(0.0835374 -0.112815 0)
(0.0878247 -0.106701 0)
(0.0910904 -0.100764 0)
(0.0933845 -0.0950298 0)
(0.0947634 -0.0895192 0)
(0.0952881 -0.0842484 0)
(0.0950228 -0.0792303 0)
(0.0940332 -0.0744745 0)
(0.0923857 -0.0699874 0)
(0.0901465 -0.0657731 0)
(0.0873801 -0.0618332 0)
(0.0841497 -0.0581671 0)
(0.0805161 -0.0547727 0)
(0.0765376 -0.051646 0)
(0.0722694 -0.0487819 0)
(0.0677639 -0.0461741 0)
(0.0630704 -0.0438152 0)
(0.0582351 -0.041697 0)
(0.0533008 -0.0398109 0)
(0.0483076 -0.0381474 0)
(0.0432924 -0.0366966 0)
(0.0382894 -0.0354485 0)
(0.03333 -0.0343924 0)
(0.0284428 -0.0335178 0)
(0.0236541 -0.0328136 0)
(0.018988 -0.0322688 0)
(0.0144659 -0.0318722 0)
(0.0101078 -0.0316128 0)
(0.00593137 -0.0314794 0)
(0.00195275 -0.0314608 0)
(-0.00181364 -0.0315458 0)
(-0.00535538 -0.031723 0)
(-0.00866235 -0.03198 0)
(-0.0117258 -0.0323048 0)
(-0.0145379 -0.0326858 0)
(-0.0170915 -0.0331115 0)
(-0.0193805 -0.03357 0)
(-0.0213995 -0.0340495 0)
(-0.0231439 -0.034538 0)
(-0.0246102 -0.0350235 0)
(-0.0257955 -0.0354936 0)
(-0.0266976 -0.0359362 0)
(-0.0273147 -0.0363389 0)
(-0.0276455 -0.0366892 0)
(-0.027689 -0.0369744 0)
(-0.0274444 -0.0371817 0)
(-0.0269111 -0.0372979 0)
(-0.0260889 -0.0373096 0)
(-0.0249775 -0.0372032 0)
(-0.0235771 -0.0369643 0)
(-0.021889 -0.0365784 0)
(-0.0199163 -0.0360302 0)
(-0.017665 -0.035304 0)
(-0.0151463 -0.0343836 0)
(-0.0123792 -0.0332525 0)
(-0.00939381 -0.0318945 0)
(-0.00623568 -0.0302944 0)
(-0.00296985 -0.0284393 0)
(0.000315539 -0.02632 0)
(0.0035068 -0.0239337 0)
(0.00646574 -0.0212866 0)
(0.00902864 -0.0183987 0)
(0.0110035 -0.0153013 0)
(0.0121684 -0.0120421 0)
(0.0122655 -0.00870959 0)
(0.0110024 -0.00545158 0)
(0.00810018 -0.00251988 0)
(0.00337285 -0.000348848 0)
(-0.0126299 -0.0119289 0)
(-0.036551 -0.0359178 0)
(-0.0593255 -0.059782 0)
(-0.0808199 -0.0832908 0)
(-0.100873 -0.106225 0)
(-0.119237 -0.128361 0)
(-0.135572 -0.149464 0)
(-0.149483 -0.169294 0)
(-0.160571 -0.187612 0)
(-0.168485 -0.204199 0)
(-0.172972 -0.218869 0)
(-0.173897 -0.231482 0)
(-0.171267 -0.241951 0)
(-0.165217 -0.250246 0)
(-0.156001 -0.256389 0)
(-0.143968 -0.26045 0)
(-0.129536 -0.262537 0)
(-0.113164 -0.262789 0)
(-0.0953357 -0.261367 0)
(-0.0765157 -0.258457 0)
(-0.0571318 -0.25426 0)
(-0.0375942 -0.24896 0)
(-0.0182793 -0.242729 0)
(0.000495829 -0.235727 0)
(0.0184678 -0.228105 0)
(0.0354216 -0.219999 0)
(0.051188 -0.211531 0)
(0.0656398 -0.202812 0)
(0.0786874 -0.193941 0)
(0.090275 -0.185005 0)
(0.100376 -0.17608 0)
(0.108991 -0.167234 0)
(0.11614 -0.158525 0)
(0.121861 -0.150005 0)
(0.126209 -0.141718 0)
(0.129248 -0.133698 0)
(0.131054 -0.125979 0)
(0.131705 -0.118583 0)
(0.131289 -0.111533 0)
(0.129892 -0.104841 0)
(0.127602 -0.0985208 0)
(0.124509 -0.0925782 0)
(0.120699 -0.0870173 0)
(0.116257 -0.0818386 0)
(0.111265 -0.0770402 0)
(0.105801 -0.0726177 0)
(0.0999421 -0.0685646 0)
(0.0937574 -0.0648726 0)
(0.0873145 -0.061532 0)
(0.0806762 -0.0585318 0)
(0.073901 -0.0558599 0)
(0.0670434 -0.0535032 0)
(0.0601542 -0.0514481 0)
(0.0532801 -0.0496803 0)
(0.0464641 -0.048185 0)
(0.0397457 -0.0469471 0)
(0.033161 -0.0459511 0)
(0.0267431 -0.0451814 0)
(0.0205218 -0.044622 0)
(0.0145243 -0.0442571 0)
(0.00877516 -0.0440706 0)
(0.00329655 -0.0440468 0)
(-0.00189172 -0.0441695 0)
(-0.00677183 -0.0444229 0)
(-0.0113287 -0.0447903 0)
(-0.0155503 -0.045254 0)
(-0.0194261 -0.045797 0)
(-0.0229462 -0.0464031 0)
(-0.0261016 -0.0470557 0)
(-0.028885 -0.0477381 0)
(-0.0312899 -0.0484332 0)
(-0.0333113 -0.0491242 0)
(-0.0349452 -0.049794 0)
(-0.0361885 -0.0504252 0)
(-0.0370388 -0.0510006 0)
(-0.0374943 -0.0515027 0)
(-0.037554 -0.0519139 0)
(-0.037217 -0.0522164 0)
(-0.0364832 -0.0523919 0)
(-0.0353526 -0.052422 0)
(-0.0338258 -0.0522877 0)
(-0.0319044 -0.0519694 0)
(-0.0295915 -0.0514468 0)
(-0.026893 -0.0506987 0)
(-0.0238192 -0.0497029 0)
(-0.0203876 -0.0484363 0)
(-0.0166259 -0.0468746 0)
(-0.0125773 -0.0449937 0)
(-0.00830478 -0.0427698 0)
(-0.00389715 -0.0401817 0)
(0.000526808 -0.0372128 0)
(0.00481507 -0.0338552 0)
(0.00878337 -0.0301142 0)
(0.012216 -0.0260121 0)
(0.0148646 -0.0215953 0)
(0.0164373 -0.0169446 0)
(0.0165908 -0.012203 0)
(0.0149332 -0.00760317 0)
(0.0110589 -0.00351728 0)
(0.00463554 -0.00052651 0)
(-0.0164475 -0.0150877 0)
(-0.0473565 -0.0454528 0)
(-0.0764913 -0.0756874 0)
(-0.103697 -0.105496 0)
(-0.128777 -0.134593 0)
(-0.151433 -0.162685 0)
(-0.171268 -0.189467 0)
(-0.187834 -0.214626 0)
(-0.200697 -0.237855 0)
(-0.209491 -0.258878 0)
(-0.213972 -0.277462 0)
(-0.214043 -0.293436 0)
(-0.209767 -0.306699 0)
(-0.201356 -0.317221 0)
(-0.189152 -0.325041 0)
(-0.1736 -0.330254 0)
(-0.155217 -0.333004 0)
(-0.134566 -0.33347 0)
(-0.112226 -0.331854 0)
(-0.0887669 -0.328367 0)
(-0.0647145 -0.323243 0)
(-0.0405474 -0.316726 0)
(-0.0166999 -0.309033 0)
(0.00645084 -0.300364 0)
(0.0285915 -0.290904 0)
(0.0494659 -0.280819 0)
(0.0688707 -0.270262 0)
(0.0866528 -0.259367 0)
(0.102703 -0.248256 0)
(0.116954 -0.237037 0)
(0.129372 -0.225807 0)
(0.139954 -0.21465 0)
(0.148726 -0.203642 0)
(0.155732 -0.192847 0)
(0.161038 -0.182324 0)
(0.164721 -0.172119 0)
(0.166872 -0.162276 0)
(0.16759 -0.152828 0)
(0.166978 -0.143804 0)
(0.165144 -0.135226 0)
(0.162197 -0.12711 0)
(0.158246 -0.11947 0)
(0.153399 -0.11231 0)
(0.147762 -0.105636 0)
(0.141436 -0.0994453 0)
(0.134519 -0.0937348 0)
(0.127105 -0.0884973 0)
(0.119282 -0.0837234 0)
(0.111134 -0.0794016 0)
(0.10274 -0.0755185 0)
(0.0941731 -0.0720592 0)
(0.085502 -0.0690073 0)
(0.0767904 -0.0663456 0)
(0.068097 -0.064056 0)
(0.059476 -0.0621195 0)
(0.0509774 -0.0605166 0)
(0.0426467 -0.0592276 0)
(0.0345257 -0.0582321 0)
(0.0266524 -0.0575097 0)
(0.019061 -0.0570396 0)
(0.0117825 -0.0568009 0)
(0.00484497 -0.0567728 0)
(-0.00172638 -0.0569345 0)
(-0.00790903 -0.0572653 0)
(-0.0136829 -0.0577443 0)
(-0.0190315 -0.0583493 0)
(-0.023942 -0.0590575 0)
(-0.0284022 -0.0598473 0)
(-0.0324004 -0.0606974 0)
(-0.0359271 -0.0615862 0)
(-0.0389742 -0.0624918 0)
(-0.0415351 -0.0633922 0)
(-0.0436047 -0.0642654 0)
(-0.0451792 -0.0650892 0)
(-0.0462555 -0.0658413 0)
(-0.0468318 -0.0664992 0)
(-0.0469068 -0.0670403 0)
(-0.0464802 -0.0674416 0)
(-0.045552 -0.0676801 0)
(-0.0441232 -0.0677319 0)
(-0.0421955 -0.0675727 0)
(-0.0397719 -0.0671776 0)
(-0.0368578 -0.0665204 0)
(-0.033462 -0.0655737 0)
(-0.0295991 -0.0643088 0)
(-0.0252922 -0.0626951 0)
(-0.0205775 -0.060701 0)
(-0.0155097 -0.0582937 0)
(-0.0101677 -0.0554408 0)
(-0.00466158 -0.0521127 0)
(0.000862065 -0.0482853 0)
(0.00621548 -0.0439454 0)
(0.0111725 -0.0390982 0)
(0.0154682 -0.0337721 0)
(0.0187933 -0.0280291 0)
(0.0207816 -0.0219899 0)
(0.0209984 -0.0158534 0)
(0.0189403 -0.00993294 0)
(0.0140672 -0.00469786 0)
(0.00590874 -0.000819303 0)
(-0.0204104 -0.0180915 0)
(-0.0584634 -0.0544974 0)
(-0.0939865 -0.0907626 0)
(-0.126812 -0.126533 0)
(-0.156716 -0.161455 0)
(-0.18336 -0.195164 0)
(-0.206306 -0.227279 0)
(-0.225076 -0.257415 0)
(-0.239223 -0.285202 0)
(-0.248396 -0.310309 0)
(-0.252391 -0.332466 0)
(-0.251174 -0.351482 0)
(-0.244886 -0.36725 0)
(-0.233833 -0.379751 0)
(-0.218454 -0.389046 0)
(-0.199293 -0.395264 0)
(-0.176964 -0.398589 0)
(-0.15212 -0.399242 0)
(-0.125423 -0.397465 0)
(-0.0975271 -0.393506 0)
(-0.0690497 -0.387624 0)
(-0.0405365 -0.380087 0)
(-0.0124668 -0.371157 0)
(0.0147379 -0.361069 0)
(0.0407258 -0.350037 0)
(0.0652074 -0.338254 0)
(0.0879525 -0.325893 0)
(0.108786 -0.313109 0)
(0.127584 -0.300043 0)
(0.144266 -0.28682 0)
(0.158793 -0.273551 0)
(0.171161 -0.260337 0)
(0.181398 -0.247266 0)
(0.189554 -0.234416 0)
(0.195703 -0.221858 0)
(0.199937 -0.20965 0)
(0.202358 -0.197847 0)
(0.203082 -0.186492 0)
(0.20223 -0.175623 0)
(0.199927 -0.165269 0)
(0.196303 -0.155456 0)
(0.191485 -0.1462 0)
(0.185601 -0.137514 0)
(0.178776 -0.129404 0)
(0.171129 -0.121872 0)
(0.162778 -0.114915 0)
(0.153834 -0.108529 0)
(0.144403 -0.102703 0)
(0.134583 -0.0974239 0)
(0.124469 -0.092678 0)
(0.114149 -0.0884476 0)
(0.103704 -0.084714 0)
(0.0932114 -0.0814567 0)
(0.0827406 -0.0786541 0)
(0.072357 -0.0762835 0)
(0.0621202 -0.0743216 0)
(0.0520852 -0.0727443 0)
(0.0423022 -0.071527 0)
(0.0328167 -0.0706446 0)
(0.0236702 -0.0700719 0)
(0.0149 -0.0697833 0)
(0.0065396 -0.069753 0)
(-0.00138078 -0.0699551 0)
(-0.00883397 -0.0703644 0)
(-0.0157955 -0.070955 0)
(-0.0222441 -0.0717013 0)
(-0.0281635 -0.0725754 0)
(-0.0335398 -0.0735497 0)
(-0.0383593 -0.074598 0)
(-0.0426101 -0.075694 0)
(-0.0462824 -0.0768107 0)
(-0.0493682 -0.0779213 0)
(-0.0518613 -0.0789987 0)
(-0.0537572 -0.0800156 0)
(-0.0550526 -0.0809447 0)
(-0.0557452 -0.0817585 0)
(-0.0558342 -0.0824292 0)
(-0.0553192 -0.0829289 0)
(-0.0542013 -0.0832291 0)
(-0.0524822 -0.0833007 0)
(-0.050165 -0.0831141 0)
(-0.0472542 -0.0826384 0)
(-0.0437574 -0.0818416 0)
(-0.0396862 -0.0806902 0)
(-0.035059 -0.0791486 0)
(-0.0299041 -0.0771793 0)
(-0.0242651 -0.0747427 0)
(-0.0182066 -0.0717981 0)
(-0.0118216 -0.068305 0)
(-0.00523935 -0.064226 0)
(0.00136804 -0.0595306 0)
(0.00777883 -0.0542019 0)
(0.0137249 -0.0482433 0)
(0.0188921 -0.0416935 0)
(0.0229045 -0.0346356 0)
(0.0253117 -0.0272267 0)
(0.025579 -0.0197188 0)
(0.0230831 -0.0124932 0)
(0.0171521 -0.00608981 0)
(0.00719817 -0.00122538 0)
(-0.0245263 -0.0208785 0)
(-0.0698979 -0.0628791 0)
(-0.111861 -0.104725 0)
(-0.150239 -0.146008 0)
(-0.18479 -0.186306 0)
(-0.215145 -0.225177 0)
(-0.240842 -0.262165 0)
(-0.261391 -0.296814 0)
(-0.276362 -0.328693 0)
(-0.285445 -0.357426 0)
(-0.288503 -0.382713 0)
(-0.285589 -0.404353 0)
(-0.276948 -0.422245 0)
(-0.262991 -0.436392 0)
(-0.244264 -0.446886 0)
(-0.221413 -0.453897 0)
(-0.195146 -0.457651 0)
(-0.166197 -0.458416 0)
(-0.135302 -0.456476 0)
(-0.103177 -0.452122 0)
(-0.0705024 -0.445634 0)
(-0.0378946 -0.43729 0)
(-0.00588181 -0.427377 0)
(0.0250864 -0.41616 0)
(0.0546311 -0.403874 0)
(0.0824379 -0.390731 0)
(0.108255 -0.376918 0)
(0.131891 -0.362607 0)
(0.153207 -0.347949 0)
(0.172114 -0.33308 0)
(0.188568 -0.318125 0)
(0.202564 -0.303192 0)
(0.214128 -0.288382 0)
(0.223318 -0.273784 0)
(0.230214 -0.259478 0)
(0.234918 -0.245535 0)
(0.237546 -0.232016 0)
(0.238226 -0.218977 0)
(0.237095 -0.206465 0)
(0.234297 -0.194518 0)
(0.229978 -0.183169 0)
(0.224284 -0.172441 0)
(0.217361 -0.162354 0)
(0.209352 -0.152919 0)
(0.200396 -0.144143 0)
(0.190627 -0.136025 0)
(0.180173 -0.128562 0)
(0.169155 -0.121746 0)
(0.15769 -0.115564 0)
(0.145885 -0.110001 0)
(0.133843 -0.105039 0)
(0.121657 -0.100657 0)
(0.109417 -0.0968318 0)
(0.0972036 -0.0935398 0)
(0.0850926 -0.0907548 0)
(0.0731533 -0.0884501 0)
(0.0614496 -0.0865977 0)
(0.0500396 -0.0851692 0)
(0.0389764 -0.0841353 0)
(0.0283083 -0.0834666 0)
(0.0180789 -0.0831331 0)
(0.00832735 -0.0831043 0)
(-0.000911513 -0.0833498 0)
(-0.00960636 -0.083839 0)
(-0.0177288 -0.0845417 0)
(-0.0252532 -0.0854278 0)
(-0.0321587 -0.0864659 0)
(-0.0384293 -0.0876231 0)
(-0.0440504 -0.0888676 0)
(-0.0490076 -0.0901683 0)
(-0.0532892 -0.0914935 0)
(-0.056886 -0.0928113 0)
(-0.059791 -0.0940896 0)
(-0.0619988 -0.095296 0)
(-0.0635057 -0.0963981 0)
(-0.0643096 -0.0973633 0)
(-0.0644097 -0.0981587 0)
(-0.0638062 -0.0987508 0)
(-0.0625009 -0.0991059 0)
(-0.0604964 -0.0991894 0)
(-0.0577971 -0.098966 0)
(-0.0544093 -0.0983992 0)
(-0.0503424 -0.0974508 0)
(-0.0456107 -0.0960809 0)
(-0.0402357 -0.0942475 0)
(-0.0342503 -0.0919059 0)
(-0.0277042 -0.0890095 0)
(-0.0206708 -0.0855103 0)
(-0.0132557 -0.0813604 0)
(-0.00560557 -0.0765158 0)
(0.00208295 -0.0709411 0)
(0.00955766 -0.0646183 0)
(0.0165063 -0.0575485 0)
(0.0225571 -0.0497815 0)
(0.0272631 -0.0414253 0)
(0.0300829 -0.0326693 0)
(0.0303724 -0.0238114 0)
(0.0273839 -0.0152861 0)
(0.0203227 -0.00768015 0)
(0.00850705 -0.00172763 0)
(-0.0287907 -0.0233871 0)
(-0.0816547 -0.0704308 0)
(-0.130115 -0.117311 0)
(-0.173989 -0.163561 0)
(-0.213019 -0.208688 0)
(-0.24682 -0.252174 0)
(-0.27492 -0.293483 0)
(-0.296842 -0.33209 0)
(-0.312195 -0.367508 0)
(-0.32074 -0.399323 0)
(-0.322436 -0.427216 0)
(-0.317447 -0.450988 0)
(-0.306139 -0.470554 0)
(-0.289044 -0.48595 0)
(-0.266823 -0.497309 0)
(-0.240226 -0.504846 0)
(-0.210049 -0.50884 0)
(-0.177101 -0.509601 0)
(-0.142179 -0.507461 0)
(-0.106047 -0.502747 0)
(-0.0694226 -0.495771 0)
(-0.0329762 -0.486818 0)
(0.00271168 -0.476181 0)
(0.0371674 -0.46414 0)
(0.0699958 -0.450943 0)
(0.100865 -0.436812 0)
(0.129507 -0.421942 0)
(0.155716 -0.406512 0)
(0.179344 -0.390679 0)
(0.200293 -0.374585 0)
(0.218514 -0.358359 0)
(0.233998 -0.342117 0)
(0.246774 -0.325965 0)
(0.256901 -0.309999 0)
(0.264466 -0.294308 0)
(0.269578 -0.278969 0)
(0.272364 -0.264055 0)
(0.272965 -0.249629 0)
(0.271532 -0.235747 0)
(0.268223 -0.222456 0)
(0.263201 -0.209798 0)
(0.25663 -0.197804 0)
(0.248672 -0.1865 0)
(0.239489 -0.175904 0)
(0.229236 -0.166029 0)
(0.218064 -0.156879 0)
(0.206119 -0.148453 0)
(0.193538 -0.140746 0)
(0.180452 -0.133748 0)
(0.166983 -0.127444 0)
(0.153246 -0.121815 0)
(0.139348 -0.11684 0)
(0.125391 -0.112496 0)
(0.111466 -0.108756 0)
(0.0976594 -0.105591 0)
(0.0840493 -0.102972 0)
(0.0707083 -0.100869 0)
(0.0577026 -0.0992489 0)
(0.0450926 -0.0980795 0)
(0.0329331 -0.0973271 0)
(0.0212738 -0.096958 0)
(0.0101592 -0.0969377 0)
(-0.000370594 -0.0972314 0)
(-0.0102805 -0.0978038 0)
(-0.0195385 -0.0986198 0)
(-0.0281156 -0.0996448 0)
(-0.0359866 -0.100844 0)
(-0.043132 -0.10218 0)
(-0.049536 -0.103616 0)
(-0.0551829 -0.105117 0)
(-0.0600588 -0.106644 0)
(-0.0641533 -0.108163 0)
(-0.0674584 -0.109635 0)
(-0.0699681 -0.111023 0)
(-0.0716785 -0.112289 0)
(-0.0725873 -0.113396 0)
(-0.072694 -0.114306 0)
(-0.0719995 -0.114979 0)
(-0.0705059 -0.115376 0)
(-0.0682173 -0.115457 0)
(-0.0651392 -0.115182 0)
(-0.0612793 -0.114506 0)
(-0.0566489 -0.113387 0)
(-0.0512644 -0.111778 0)
(-0.0451501 -0.10963 0)
(-0.0383429 -0.106893 0)
(-0.0308974 -0.103513 0)
(-0.022895 -0.099436 0)
(-0.0144524 -0.0946074 0)
(-0.00573286 -0.088978 0)
(0.00304237 -0.0825088 0)
(0.011592 -0.0751816 0)
(0.0195587 -0.067003 0)
(0.0265047 -0.0580293 0)
(0.0319051 -0.0483911 0)
(0.0351218 -0.0383072 0)
(0.0353942 -0.0281135 0)
(0.0318503 -0.0182844 0)
(0.0235835 -0.00943591 0)
(0.00983876 -0.00230372 0)
(-0.0331915 -0.0255645 0)
(-0.0937068 -0.0770111 0)
(-0.148712 -0.128297 0)
(-0.198019 -0.178894 0)
(-0.241361 -0.228233 0)
(-0.278344 -0.275715 0)
(-0.308502 -0.320725 0)
(-0.331397 -0.362669 0)
(-0.346704 -0.401011 0)
(-0.354282 -0.435306 0)
(-0.354213 -0.465229 0)
(-0.346799 -0.490591 0)
(-0.332542 -0.511339 0)
(-0.31211 -0.527547 0)
(-0.286283 -0.5394 0)
(-0.255915 -0.547168 0)
(-0.221887 -0.551177 0)
(-0.185073 -0.551792 0)
(-0.14632 -0.549385 0)
(-0.106424 -0.54432 0)
(-0.0661259 -0.536936 0)
(-0.0261243 -0.527542 0)
(0.0129597 -0.516422 0)
(0.0506272 -0.50385 0)
(0.0864702 -0.490082 0)
(0.120146 -0.475339 0)
(0.151376 -0.45982 0)
(0.179943 -0.4437 0)
(0.205691 -0.427136 0)
(0.228514 -0.410269 0)
(0.248358 -0.393227 0)
(0.265211 -0.376128 0)
(0.279101 -0.359078 0)
(0.290087 -0.342177 0)
(0.298262 -0.325518 0)
(0.303739 -0.309184 0)
(0.306653 -0.293253 0)
(0.307157 -0.277796 0)
(0.305412 -0.262877 0)
(0.301592 -0.248552 0)
(0.295874 -0.234869 0)
(0.288436 -0.22187 0)
(0.279459 -0.209586 0)
(0.26912 -0.198045 0)
(0.257591 -0.187264 0)
(0.245041 -0.177255 0)
(0.231631 -0.168021 0)
(0.217512 -0.15956 0)
(0.202832 -0.151867 0)
(0.187726 -0.144927 0)
(0.172324 -0.138725 0)
(0.156745 -0.133239 0)
(0.1411 -0.128445 0)
(0.125494 -0.124317 0)
(0.110022 -0.120824 0)
(0.0947715 -0.117935 0)
(0.0798233 -0.115617 0)
(0.0652517 -0.113836 0)
(0.051124 -0.112556 0)
(0.0375015 -0.11174 0)
(0.0244398 -0.11135 0)
(0.011989 -0.11135 0)
(0.000193712 -0.1117 0)
(-0.0109063 -0.112361 0)
(-0.0212758 -0.113293 0)
(-0.030883 -0.114458 0)
(-0.039699 -0.115816 0)
(-0.0477005 -0.117327 0)
(-0.0548697 -0.118949 0)
(-0.0611899 -0.120641 0)
(-0.0666453 -0.122362 0)
(-0.071224 -0.124071 0)
(-0.074917 -0.125726 0)
(-0.0777179 -0.127284 0)
(-0.0796225 -0.128702 0)
(-0.0806283 -0.129936 0)
(-0.080735 -0.130945 0)
(-0.079944 -0.131682 0)
(-0.0782584 -0.132103 0)
(-0.0756829 -0.132162 0)
(-0.0722243 -0.131812 0)
(-0.0678919 -0.131004 0)
(-0.0626984 -0.129688 0)
(-0.0566621 -0.127813 0)
(-0.0498099 -0.125323 0)
(-0.0421816 -0.122161 0)
(-0.0338367 -0.118268 0)
(-0.0248631 -0.113585 0)
(-0.0153883 -0.108051 0)
(-0.00559119 -0.101615 0)
(0.00428206 -0.0942341 0)
(0.0139167 -0.0858881 0)
(0.0229114 -0.0765971 0)
(0.03076 -0.0664241 0)
(0.0368499 -0.0555159 0)
(0.0404404 -0.044117 0)
(0.0406505 -0.0325939 0)
(0.0364859 -0.02145 0)
(0.026939 -0.0113193 0)
(0.0111975 -0.00293247 0)
(-0.037713 -0.02737 0)
(-0.106015 -0.0825107 0)
(-0.167596 -0.137515 0)
(-0.222259 -0.191784 0)
(-0.269731 -0.244665 0)
(-0.309622 -0.295475 0)
(-0.341491 -0.343518 0)
(-0.364959 -0.388138 0)
(-0.379798 -0.428751 0)
(-0.385997 -0.464893 0)
(-0.383785 -0.496243 0)
(-0.373623 -0.522635 0)
(-0.356172 -0.544055 0)
(-0.33224 -0.56063 0)
(-0.302735 -0.572598 0)
(-0.26861 -0.580289 0)
(-0.230825 -0.584084 0)
(-0.190313 -0.584397 0)
(-0.147953 -0.581643 0)
(-0.104562 -0.57622 0)
(-0.0608944 -0.568493 0)
(-0.0176536 -0.558792 0)
(0.0245262 -0.547391 0)
(0.0651176 -0.534552 0)
(0.103699 -0.520527 0)
(0.139923 -0.505531 0)
(0.173503 -0.489756 0)
(0.204217 -0.473367 0)
(0.231899 -0.456513 0)
(0.256439 -0.439329 0)
(0.277775 -0.421936 0)
(0.29589 -0.404446 0)
(0.31081 -0.386964 0)
(0.322595 -0.369587 0)
(0.331336 -0.352407 0)
(0.337152 -0.335512 0)
(0.340183 -0.318981 0)
(0.340589 -0.302891 0)
(0.338542 -0.287312 0)
(0.334227 -0.272306 0)
(0.327834 -0.257929 0)
(0.319557 -0.244229 0)
(0.309591 -0.231249 0)
(0.298127 -0.21902 0)
(0.285356 -0.207569 0)
(0.271462 -0.196913 0)
(0.256619 -0.187062 0)
(0.240998 -0.17802 0)
(0.224758 -0.169784 0)
(0.208051 -0.162346 0)
(0.191017 -0.15569 0)
(0.173789 -0.149798 0)
(0.156491 -0.144647 0)
(0.139237 -0.14021 0)
(0.122131 -0.136458 0)
(0.105272 -0.133358 0)
(0.0887478 -0.130876 0)
(0.0726405 -0.128975 0)
(0.0570246 -0.127619 0)
(0.0419677 -0.126767 0)
(0.0275313 -0.12638 0)
(0.0137707 -0.126417 0)
(0.000735332 -0.126835 0)
(-0.0115306 -0.127593 0)
(-0.022988 -0.128648 0)
(-0.0336024 -0.129955 0)
(-0.0433428 -0.131471 0)
(-0.0521815 -0.133152 0)
(-0.0600977 -0.134955 0)
(-0.0670741 -0.13683 0)
(-0.0730938 -0.138735 0)
(-0.0781425 -0.140622 0)
(-0.0822105 -0.142446 0)
(-0.0852906 -0.144158 0)
(-0.0873782 -0.14571 0)
(-0.0884709 -0.147055 0)
(-0.0885685 -0.148142 0)
(-0.0876727 -0.148921 0)
(-0.0857874 -0.149343 0)
(-0.0829181 -0.149354 0)
(-0.0790728 -0.148903 0)
(-0.074262 -0.147934 0)
(-0.0684999 -0.146391 0)
(-0.0618066 -0.144217 0)
(-0.0542111 -0.141351 0)
(-0.0457561 -0.13773 0)
(-0.0365054 -0.133291 0)
(-0.0265533 -0.127969 0)
(-0.0160372 -0.121701 0)
(-0.00515206 -0.114433 0)
(0.00583412 -0.106122 0)
(0.016566 -0.0967445 0)
(0.0265926 -0.0863306 0)
(0.0353433 -0.0749568 0)
(0.0421117 -0.0627823 0)
(0.0460472 -0.0500728 0)
(0.0461462 -0.0372188 0)
(0.0412954 -0.0247449 0)
(0.0303955 -0.0132959 0)
(0.0125879 -0.00359659 0)
(-0.0423383 -0.0287746 0)
(-0.118535 -0.0868517 0)
(-0.186694 -0.144845 0)
(-0.246614 -0.202073 0)
(-0.298017 -0.257794 0)
(-0.340526 -0.311233 0)
(-0.373748 -0.361617 0)
(-0.397389 -0.408227 0)
(-0.411347 -0.450445 0)
(-0.415769 -0.487795 0)
(-0.411061 -0.519971 0)
(-0.397864 -0.546839 0)
(-0.377009 -0.568435 0)
(-0.349458 -0.584944 0)
(-0.316242 -0.596667 0)
(-0.278415 -0.603991 0)
(-0.237008 -0.607356 0)
(-0.192995 -0.607222 0)
(-0.147284 -0.604044 0)
(-0.100698 -0.598253 0)
(-0.0539891 -0.590237 0)
(-0.00784294 -0.580338 0)
(0.0371087 -0.568823 0)
(0.0803142 -0.555946 0)
(0.121342 -0.541943 0)
(0.159845 -0.527019 0)
(0.195535 -0.511346 0)
(0.228182 -0.495079 0)
(0.257614 -0.478351 0)
(0.283715 -0.461284 0)
(0.306416 -0.443987 0)
(0.325696 -0.426562 0)
(0.341573 -0.409106 0)
(0.354105 -0.39171 0)
(0.363382 -0.374463 0)
(0.369524 -0.357449 0)
(0.372675 -0.340751 0)
(0.372998 -0.324444 0)
(0.370675 -0.308603 0)
(0.365899 -0.293295 0)
(0.35887 -0.278582 0)
(0.349796 -0.264519 0)
(0.338886 -0.251154 0)
(0.326345 -0.238528 0)
(0.31238 -0.226673 0)
(0.297188 -0.215615 0)
(0.280961 -0.20537 0)
(0.263883 -0.195947 0)
(0.246128 -0.18735 0)
(0.227862 -0.179574 0)
(0.209239 -0.172609 0)
(0.190403 -0.166439 0)
(0.171491 -0.161043 0)
(0.152626 -0.156396 0)
(0.133924 -0.15247 0)
(0.115491 -0.149233 0)
(0.0974252 -0.14665 0)
(0.0798152 -0.144684 0)
(0.0627428 -0.143296 0)
(0.046282 -0.142446 0)
(0.0305 -0.142091 0)
(0.0154573 -0.142189 0)
(0.00120844 -0.142694 0)
(-0.0121982 -0.143562 0)
(-0.0247197 -0.144747 0)
(-0.0363182 -0.146201 0)
(-0.0469604 -0.147877 0)
(-0.0566161 -0.149727 0)
(-0.0652604 -0.151703 0)
(-0.0728748 -0.153755 0)
(-0.0794419 -0.155832 0)
(-0.0849452 -0.157884 0)
(-0.0893734 -0.159861 0)
(-0.0927189 -0.16171 0)
(-0.0949764 -0.163377 0)
(-0.0961435 -0.164809 0)
(-0.0962198 -0.165952 0)
(-0.0952075 -0.166748 0)
(-0.093111 -0.167143 0)
(-0.0899368 -0.167078 0)
(-0.0856936 -0.166494 0)
(-0.0803934 -0.165331 0)
(-0.0740517 -0.163527 0)
(-0.0666903 -0.161018 0)
(-0.0583403 -0.157738 0)
(-0.0490473 -0.153621 0)
(-0.0388792 -0.148598 0)
(-0.027937 -0.142601 0)
(-0.0163682 -0.135565 0)
(-0.00438406 -0.127435 0)
(0.00772651 -0.118169 0)
(0.0195678 -0.107747 0)
(0.0306313 -0.0961987 0)
(0.0402777 -0.0836163 0)
(0.0477067 -0.0701722 0)
(0.0519528 -0.0561493 0)
(0.0518894 -0.0419573 0)
(0.0462871 -0.028136 0)
(0.0339617 -0.0153375 0)
(0.0140154 -0.00428316 0)
(-0.0470495 -0.0297602 0)
(-0.131217 -0.0899857 0)
(-0.205928 -0.150214 0)
(-0.270975 -0.209667 0)
(-0.326084 -0.267506 0)
(-0.370905 -0.322862 0)
(-0.405111 -0.374887 0)
(-0.428523 -0.422804 0)
(-0.441197 -0.465968 0)
(-0.443467 -0.503904 0)
(-0.43594 -0.536328 0)
(-0.419458 -0.56315 0)
(-0.395033 -0.584464 0)
(-0.363784 -0.600516 0)
(-0.326871 -0.611671 0)
(-0.285438 -0.618378 0)
(-0.240576 -0.62113 0)
(-0.193296 -0.620431 0)
(-0.144516 -0.616773 0)
(-0.0950551 -0.610612 0)
(-0.0456487 -0.602355 0)
(0.00305057 -0.59235 0)
(0.0504279 -0.58087 0)
(0.0959186 -0.568152 0)
(0.139087 -0.554415 0)
(0.179591 -0.539841 0)
(0.21714 -0.524587 0)
(0.2515 -0.508786 0)
(0.282496 -0.492554 0)
(0.310001 -0.475994 0)
(0.333942 -0.4592 0)
(0.354289 -0.44226 0)
(0.371054 -0.425258 0)
(0.38429 -0.408276 0)
(0.394081 -0.391394 0)
(0.400547 -0.374691 0)
(0.40383 -0.358246 0)
(0.404099 -0.342136 0)
(0.401537 -0.326433 0)
(0.396346 -0.311208 0)
(0.388736 -0.296527 0)
(0.378924 -0.282449 0)
(0.36713 -0.269029 0)
(0.353576 -0.256314 0)
(0.338478 -0.244342 0)
(0.32205 -0.233146 0)
(0.3045 -0.22275 0)
(0.286024 -0.213169 0)
(0.266811 -0.204413 0)
(0.247041 -0.196481 0)
(0.22688 -0.18937 0)
(0.206487 -0.183068 0)
(0.186008 -0.177556 0)
(0.165578 -0.172814 0)
(0.145323 -0.168815 0)
(0.125358 -0.165527 0)
(0.105789 -0.162919 0)
(0.0867143 -0.160951 0)
(0.0682209 -0.159587 0)
(0.0503899 -0.158784 0)
(0.0332944 -0.158499 0)
(0.0170003 -0.158688 0)
(0.00156665 -0.159304 0)
(-0.0129536 -0.1603 0)
(-0.0265134 -0.161627 0)
(-0.0390714 -0.163236 0)
(-0.0505916 -0.165076 0)
(-0.0610419 -0.167094 0)
(-0.0703941 -0.16924 0)
(-0.0786264 -0.171461 0)
(-0.0857212 -0.1737 0)
(-0.0916614 -0.175904 0)
(-0.0964331 -0.178018 0)
(-0.100028 -0.179984 0)
(-0.102439 -0.181745 0)
(-0.103665 -0.183241 0)
(-0.103705 -0.184413 0)
(-0.102561 -0.185199 0)
(-0.100238 -0.185538 0)
(-0.096743 -0.185364 0)
(-0.0920863 -0.184614 0)
(-0.0862807 -0.183221 0)
(-0.0793432 -0.181118 0)
(-0.0712973 -0.178235 0)
(-0.0621764 -0.174503 0)
(-0.0520292 -0.169849 0)
(-0.0409278 -0.164203 0)
(-0.0289799 -0.157492 0)
(-0.0163438 -0.149653 0)
(-0.00324823 -0.140626 0)