/*--------------------------------*- C++ -*----------------------------------*\
  =========                 |
  \\      /  F ield         | OpenFOAM: The Open Source CFD Toolbox
   \\    /   O peration     | Website:  https://openfoam.org
    \\  /    A nd           | Version:  6
     \\/     M anipulation  |
\*---------------------------------------------------------------------------*/
FoamFile
{
    version     2.0;
    format      ascii;
    class       volVectorField;
    location    "0";
    object      U;
}
// * * * * * * * * * * * * * * * * * * * * * * * * * * * * * * * * * * * * * //

dimensions      [0 1 -1 0 0 0 0];

internalField   nonuniform List<vector> 
13046
(
(-0.657638 0.312316 0)
(-0.716611 -0.19189 -9.45753e-21)
(-0.166619 -0.0872967 -1.99189e-20)
(-0.59381 0.1879 0)
(-0.159015 0.0079573 -1.83121e-20)
(-0.583513 -0.20073 0)
(-0.671089 0.224254 2.80023e-21)
(-0.661295 -0.255129 4.77092e-21)
(-0.126974 0.0217586 -1.99457e-20)
(-1.54613 0.729524 7.1741e-21)
(-1.59005 -0.684558 0)
(0.0849413 0.00268929 1.24867e-20)
(-0.868937 0.38681 -8.85075e-21)
(-0.887063 -0.305874 -1.45122e-20)
(-0.0700105 -0.0486386 1.06644e-20)
(-1.47468 0.81848 -9.87168e-21)
(0.0461423 -0.0106109 2.99454e-20)
(-1.63303 -0.561868 5.73126e-21)
(-0.300603 0.117535 0)
(-0.400104 -0.163311 -1.00591e-20)
(-0.53041 0.0436055 2.93143e-20)
(-1.49188 0.807375 -3.98089e-21)
(0.0598811 -0.00456767 -4.00024e-20)
(-1.62487 -0.5881 0)
(-0.53021 0.200594 1.16359e-20)
(-0.575042 -0.141358 -2.31999e-20)
(-0.193607 -0.0557223 0)
(-0.88704 0.430563 -1.59943e-20)
(-0.927533 -0.304493 4.26835e-21)
(-0.0751948 -0.0673607 -1.86855e-20)
(-0.679468 0.341983 0)
(-0.75346 -0.173873 0)
(-0.182353 -0.112978 2.02742e-20)
(-0.459838 0.154129 -1.35145e-20)
(-0.226477 -0.0540393 6.89444e-21)
(-0.510674 -0.0994288 4.04416e-20)
(-0.441856 0.121987 -2.08197e-20)
(-0.238058 -0.0249578 1.05527e-20)
(-0.469711 -0.0949104 -2.07214e-20)
(-0.543738 0.331413 1.45041e-20)
(-0.41443 -0.274859 3.66454e-21)
(-0.764364 -0.0440709 -1.43813e-20)
(-0.391677 0.0280865 9.42424e-21)
(-0.308018 0.0159795 1.59464e-20)
(-0.362254 -0.0497579 0)
(-0.433832 0.0403056 6.01459e-21)
(-0.282956 0.0447826 -2.452e-20)
(-0.373554 -0.086746 -3.05574e-21)
(-0.689577 0.305738 0)
(-0.731091 -0.222925 -6.73639e-22)
(-0.125962 -0.0614818 -6.83962e-23)
(-0.695063 -0.473877 2.26982e-20)
(-0.4659 0.342131 0)
(-0.930038 0.0710381 -1.72789e-20)
(-0.791052 -0.53396 -3.23649e-20)
(-0.987924 0.111603 -2.75644e-20)
(-0.409534 0.309928 2.19998e-20)
(-1.386 -0.322953 -3.07503e-21)
(-1.215 0.784164 0)
(-0.170419 -0.162322 1.66028e-20)
(-1.15726 0.415366 -8.38548e-21)
(-1.11703 -0.545033 8.25374e-21)
(-0.015299 0.0511926 -4.46441e-20)
(0.0770544 -0.00543837 2.30046e-20)
(-1.50358 -0.62842 -4.6448e-21)
(-1.47443 0.683616 -1.24903e-20)
(-1.14783 0.769848 0)
(-1.31714 -0.262388 0)
(-0.237096 -0.215374 0)
(-1.08912 0.730106 -6.19458e-21)
(-1.25768 -0.239493 0)
(-0.258728 -0.229411 1.32775e-20)
(-1.45002 -0.339155 0)
(-1.26805 0.817689 1.98068e-22)
(-0.150745 -0.153961 -6.04198e-23)
(-0.336054 0.149619 0)
(-0.393355 -0.183795 1.08243e-20)
(-0.568085 0.0164729 -2.08781e-20)
(-0.0710205 -0.093331 1.82728e-20)
(-1.34465 0.836297 -1.82697e-20)
(-1.52538 -0.413634 0)
(-0.579041 0.218126 6.13307e-21)
(-0.603884 -0.172362 0)
(-0.16296 -0.0315587 0)
(0.0807358 -0.00376517 -2.06254e-20)
(-1.54106 -0.641565 -3.38453e-21)
(-1.50792 0.708321 7.38239e-21)
(-1.52655 0.564635 -1.31766e-20)
(0.0560199 0.0215696 0)
(-1.44173 -0.740353 -3.63795e-21)
(-0.0302673 0.0586996 0)
(-1.6143 0.455494 0)
(-1.40712 -0.865851 4.5691e-22)
(-1.20021 0.575381 0)
(-1.26545 0.589197 7.42435e-21)
(-1.24243 -0.470035 1.59306e-20)
(-1.29717 -0.518379 -7.44018e-21)
(0.0143671 -0.0348703 -9.54064e-21)
(0.0368592 -0.018258 2.45678e-20)
(0.035478 0.0322401 -1.16272e-21)
(-1.51537 0.533115 1.2896e-20)
(-1.41114 -0.759865 0)
(-0.473407 0.077702 -3.14952e-23)
(-0.248462 0.0423113 1.27515e-20)
(-0.422158 -0.12584 0)
(-0.287421 0.2219 0)
(-0.894954 0.15522 -8.59467e-21)
(-0.759424 -0.455393 0)
(-0.451659 0.314264 2.48251e-20)
(-0.601681 -0.390589 0)
(-0.83595 0.0406902 -3.28774e-20)
(-1.45842 0.706938 0)
(0.0669759 0.00400132 0)
(-1.48539 -0.684218 -2.69021e-21)
(-0.786947 0.345491 2.44459e-20)
(-0.81898 -0.269302 6.22226e-21)
(-0.0882678 -0.04275 1.96354e-20)
(-1.27924 0.672418 9.4595e-21)
(-1.21213 0.623073 -1.78926e-20)
(-1.35722 -0.467762 -1.34453e-20)
(0.00242571 -0.0524421 1.09736e-20)
(-1.27662 -0.442776 7.97461e-21)
(-0.00473242 -0.0537854 -1.02504e-20)
(-1.53203 0.743061 -5.35266e-21)
(-1.59097 -0.678849 -5.21565e-21)
(0.08156 0.00527641 -5.58795e-21)
(-1.05797 0.51818 0)
(-1.09821 -0.389803 -1.09172e-20)
(-0.0283307 -0.0593949 2.2659e-20)
(-0.607654 0.361797 0)
(-0.35248 -0.241358 -1.83855e-20)
(-0.782695 -0.0855404 8.35733e-22)
(-0.0493087 0.0752902 0)
(-1.56571 0.431857 0)
(-1.37639 -0.842687 0)
(-1.38142 0.598943 0)
(-1.38172 -0.609155 -1.97571e-20)
(0.0616855 0.00312048 -2.62084e-20)
(-0.753097 0.378958 0)
(-0.818339 -0.208853 0)
(-0.161503 -0.119402 0)
(-0.875528 0.27203 0)
(-0.83347 -0.402941 0)
(-0.106207 0.0769015 0)
(-0.420391 0.302928 0)
(-0.67048 -0.433764 0)
(-0.873941 0.073746 1.77218e-20)
(-0.281834 0.205854 -2.55896e-21)
(-0.856313 0.149759 -1.85521e-20)
(-0.734053 -0.427904 2.02675e-20)
(-1.21444 0.448928 1.93376e-20)
(-1.17257 -0.564962 0)
(0.00823181 0.0352783 5.80154e-20)
(-0.214376 0.133413 0)
(-0.741133 0.157683 2.00329e-20)
(-0.649179 -0.333992 -5.20333e-21)
(-0.955781 -0.61235 0)
(-1.09985 0.211951 1.95563e-20)
(-1.03629 -0.645617 0)
(-1.16738 0.26307 1.12294e-20)
(-0.274689 0.23092 0)
(-0.210515 0.1893 0)
(-0.904253 0.226421 2.55486e-21)
(-0.820788 -0.444518 1.0702e-20)
(-0.164425 0.126822 -1.11436e-20)
(-1.57524 0.705394 -7.3565e-21)
(0.0867033 0.000643354 0)
(-1.55929 -0.715285 -7.39833e-21)
(-1.49027 0.723409 -4.49611e-21)
(0.0730324 0.00710488 -2.56346e-21)
(-1.54077 -0.680201 0)
(-1.4048 0.631206 -1.06439e-20)
(-1.41578 -0.607683 0)
(0.066945 -0.00315805 2.97946e-20)
(-0.734406 0.472184 0)
(-0.918044 -0.107786 4.52804e-21)
(-0.383591 -0.288889 1.06415e-20)
(-0.854029 0.197476 1.68404e-20)
(-0.200421 0.153129 5.38473e-21)
(-0.764737 -0.411212 0)
(0.0811112 0.0014273 0)
(-1.53079 -0.761255 0)
(-1.60471 0.646839 6.07122e-21)
(-0.669445 0.428553 0)
(-0.863806 -0.0813392 -9.86814e-21)
(-0.40017 -0.281749 2.77691e-21)
(-0.2216 0.151907 0)
(-0.767363 0.155069 0)
(-0.666456 -0.356551 0)
(-0.812116 0.23665 8.31943e-21)
(-0.771341 -0.367825 0)
(-0.118676 0.0726498 0)
(-0.968697 -0.374521 -3.8837e-23)
(-0.0332847 -0.0220307 -1.32621e-20)
(-1.00126 0.476467 2.5323e-20)
(-1.04049 -0.365486 0)
(-0.0376357 -0.0526893 -2.83952e-20)
(-1.54216 0.640806 -1.31386e-20)
(0.0800242 0.0060999 1.86739e-20)
(-1.50821 -0.711019 -1.67039e-20)
(-0.0171168 0.0629283 1.70443e-20)
(-1.51363 0.462995 8.21337e-21)
(-1.36968 -0.796343 1.8211e-20)
(-1.59818 0.515857 -2.17058e-20)
(-1.44516 -0.81153 0)
(0.0234883 0.0333209 -1.67587e-20)
(-0.741787 -0.535541 -1.15399e-21)
(-1.01895 0.0580033 7.69721e-21)
(-0.548838 0.423794 0)
(-0.816521 0.302132 -3.74698e-20)
(-1.3246 0.850714 9.45442e-21)
(-0.101195 -0.111452 -1.12457e-20)
(-1.52679 -0.399514 0)
(-1.46815 -0.817925 0)
(-1.61985 0.554145 -1.85689e-20)
(0.0407976 0.0190432 0)
(-0.483265 0.119708 -3.03659e-20)
(-0.217275 0.0113334 -1.03627e-20)
(-0.471749 -0.133097 3.04155e-20)
(-0.852332 0.43677 0)
(-0.910101 -0.272822 -6.19425e-22)
(-0.114119 -0.0924687 -1.09016e-20)
(-0.042296 0.0759696 1.30829e-20)
(-1.52283 0.442991 0)
(-1.3578 -0.818433 -2.09998e-20)
(-0.883424 0.339453 2.99857e-20)
(-0.942933 -0.383654 2.61326e-20)
(-0.0368868 -0.0052902 0)
(0.0803803 -0.00252368 0)
(-1.51868 -0.729588 5.3313e-21)
(-1.56378 0.693938 0)
(-0.485603 0.378555 0)
(-1.04233 0.0876349 0)
(-0.800308 -0.57575 0)
(-1.55305 0.506689 1.90269e-20)
(-1.41808 -0.786429 0)
(0.0196164 0.0385235 -5.32237e-23)
(-1.02981 0.24499 7.40089e-21)
(-0.928692 -0.543393 -8.05258e-21)
(-0.179693 0.157445 0)
(-1.05597 0.545871 0)
(-1.11115 -0.370132 1.02197e-20)
(-0.0496241 -0.0759982 1.78312e-20)
(-1.25008 -0.816404 -2.72106e-20)
(-1.43517 0.330608 -1.50673e-20)
(-0.159103 0.158035 1.03232e-20)
(-1.24371 0.27636 0)
(-1.09965 -0.697122 -1.10504e-20)
(-0.208127 0.189163 -3.7541e-22)
(0.0752078 -0.00746404 -1.64594e-20)
(-1.48883 -0.742895 0)
(-1.57335 0.671329 -4.55511e-21)
(-0.564384 0.384558 1.33032e-20)
(-0.533427 -0.364712 -1.33357e-20)
(-0.863122 -0.0146113 1.43664e-21)
(-1.35851 0.749857 4.33589e-21)
(0.0569996 0.0208806 -2.4076e-20)
(-1.52011 -0.600003 0)
(-0.251115 0.0845671 -6.06968e-21)
(-0.534851 0.0772707 -2.36654e-20)
(-0.444892 -0.174913 3.01304e-20)
(-1.05235 0.309475 8.71944e-21)
(-0.998849 0.259329 3.62237e-23)
(-0.980688 -0.524053 -1.96951e-20)
(-0.911031 -0.512957 0)
(-0.152545 0.134815 1.01308e-20)
(-0.0939571 0.099024 -1.04728e-20)
(-0.0410368 -0.0696152 -2.39145e-20)
(-1.38232 0.842423 9.81068e-21)
(-1.57546 -0.438681 -1.48619e-20)
(-0.99499 0.530116 0)
(-1.06045 -0.32118 0)
(-0.0942243 -0.101033 -2.34379e-20)
(-1.31758 0.319429 -4.00921e-21)
(-1.16536 -0.739057 0)
(-0.165297 0.161768 0)
(-1.33761 0.642998 -9.08521e-21)
(-1.37675 -0.535064 0)
(0.0454901 -0.0224273 1.08445e-20)
(-0.365981 0.0491437 6.3012e-21)
(-0.389416 -0.0302096 9.2551e-21)
(-0.306888 -0.0144943 -3.14848e-21)
(-1.13983 0.284009 -1.43159e-20)
(-1.03126 -0.61288 0)
(-0.161208 0.155704 -1.73997e-20)
(-1.01158 0.560445 0)
(-1.09211 -0.312564 1.27673e-20)
(-0.11177 -0.117878 -1.50261e-20)
(-0.925203 0.382981 0)
(-0.99565 0.418066 2.97283e-21)
(-0.584971 0.40572 4.80204e-21)
(-0.555313 -0.388677 3.86752e-20)
(-0.893093 -0.00782547 -3.43781e-20)
(-1.1987 0.32784 -1.45908e-20)
(-1.09061 -0.636423 1.66863e-20)
(-0.111699 0.123814 1.58796e-20)
(-1.38108 0.652178 0)
(0.0591012 -0.0136614 -3.83042e-20)
(-1.42126 -0.570968 -9.54607e-21)
(-0.447586 0.292802 -3.43347e-20)
(-0.557578 -0.36187 0)
(-0.799582 0.0397926 1.11106e-20)
(-0.312217 0.261313 -2.04318e-20)
(-1.12241 0.196979 -1.12561e-20)
(-0.96179 -0.642716 0)
(-1.18812 0.669727 -9.14627e-21)
(-1.2881 -0.37883 -1.09331e-20)
(-0.070737 -0.0976607 6.79866e-21)
(-0.525817 0.383729 1.7296e-21)
(-0.655759 -0.455249 0)
(-0.932663 0.0458333 2.38845e-20)
(-1.24429 0.705631 0)
(-1.28359 0.70985 0)
(-1.35573 -0.408486 -6.86258e-21)
(-0.0538644 -0.0878872 -1.76821e-20)
(-1.38693 -0.45059 9.7145e-21)
(-0.0198497 -0.0649882 1.87793e-20)
(0.0850941 0.00221676 -1.44403e-20)
(-1.53695 -0.734092 0)
(-1.5839 0.669018 -8.96141e-21)
(-1.14883 0.603733 1.06444e-20)
(-1.21534 -0.405243 0)
(-0.0337812 -0.0709366 6.09047e-21)
(-1.34005 -0.648858 5.82581e-21)
(0.0451942 0.00438103 2.10656e-20)
(-1.31029 0.676288 7.95762e-21)
(-0.654274 0.107575 -1.09603e-20)
(-0.249508 0.133853 0)
(-0.549523 -0.270182 0)
(-1.07658 0.388712 2.00743e-20)
(-1.04685 -0.492981 0)
(-0.0230503 0.0416133 3.43235e-20)
(0.0773052 0.0046322 -1.18628e-20)
(-1.49764 0.634489 2.71449e-20)
(-1.47635 -0.676304 1.30515e-20)
(-0.82721 -0.565536 0)
(-1.02461 0.118261 1.01752e-20)
(-0.410302 0.32748 -2.49274e-20)
(-1.28896 -0.822511 -3.26335e-20)
(-1.47143 0.370811 -9.10314e-21)
(-0.112824 0.122843 0)
(-0.839195 -0.334985 -2.66069e-20)
(-0.0655134 0.00447778 0)
(-1.12903 0.469291 2.15909e-20)
(-1.11305 -0.476028 9.2309e-21)
(0.0100713 -0.00222829 1.04571e-20)
(-0.825831 -0.356508 1.55584e-20)
(-0.0707683 0.0250352 -8.12776e-24)
(-1.46004 0.807285 -6.3344e-22)
(0.0364777 -0.020531 1.40966e-20)
(-1.60724 -0.540508 -8.4309e-21)
(-0.722094 -0.549266 0)
(-1.04649 0.036279 2.42621e-21)
(-0.60889 0.469859 0)
(-1.18919 0.499942 -2.20211e-20)
(-1.18914 -0.508801 -1.12497e-20)
(0.0246661 0.00349629 -1.26917e-20)
(-0.903066 0.265331 0)
(-0.842955 -0.433487 -1.55428e-20)
(-0.121642 0.0956576 0)
(-0.898706 0.122695 0)
(-0.729615 -0.466915 0)
(-0.353136 0.257562 0)
(-0.655632 0.265961 -8.49071e-21)
(-0.676563 -0.211322 -1.48161e-20)
(-0.134301 -0.0407922 1.5161e-23)
(-0.363465 0.298773 2.53227e-20)
(-1.08864 0.162132 2.72999e-20)
(-0.910909 -0.617954 1.60326e-20)
(-1.56903 0.598395 -1.11701e-20)
(-1.48242 -0.74568 1.40813e-20)
(0.0689488 0.0121362 -1.76624e-20)
(-1.30018 -0.798406 2.21591e-20)
(-1.45678 0.392661 9.23058e-21)
(-0.0825565 0.105537 1.31432e-20)
(-0.962087 0.661387 -1.9165e-20)
(-0.356547 -0.291846 1.99906e-20)
(-1.15211 -0.171623 -1.54852e-20)
(-1.31644 0.783515 5.34156e-21)
(-1.27057 0.755001 -4.94642e-21)
(-1.40627 -0.392888 -2.18413e-21)
(-1.46222 -0.414086 0)
(-0.0611554 -0.0890896 -6.46466e-21)
(-0.0792655 -0.103919 -5.73417e-21)
(0.0516367 0.0101512 -2.85305e-20)
(-1.39622 -0.63406 -6.42191e-21)
(-1.33223 0.687337 2.96469e-21)
(-1.38259 0.7647 -3.08259e-22)
(0.060249 0.0223631 3.33044e-20)
(-1.55906 -0.596938 0)
(-1.12529 0.341928 -3.236e-20)
(-1.05662 -0.562009 -4.33305e-21)
(-0.0786041 0.0961517 0)
(0.0843551 0.00323844 -3.59623e-20)
(-1.55823 0.662848 8.92158e-21)
(-1.53258 -0.707848 0)
(-1.09382 0.688588 2.7275e-20)
(-1.15187 0.707917 -2.03815e-20)
(-1.23233 -0.286347 1.18637e-20)
(-1.28157 -0.320203 4.48182e-21)
(-0.194856 -0.17942 -1.13182e-20)
(-0.148602 -0.147637 -5.67102e-21)
(0.0406864 0.00380156 0)
(-1.45862 -0.842481 0)
(-1.67086 0.538278 3.13922e-21)
(-1.27403 0.740357 -5.08848e-21)
(0.0505777 0.0249953 0)
(-1.48368 -0.574784 0)
(-0.48436 -0.00725338 -2.47131e-23)
(-0.344202 0.113212 1.34628e-20)
(-0.324415 -0.10911 6.6967e-21)
(-1.38775 0.713903 -8.10485e-21)
(-1.47827 -0.65281 3.93539e-21)
(0.0597472 0.0110956 1.56225e-21)
(-0.819737 0.504657 0)
(-0.957478 -0.164174 -2.06065e-20)
(-0.297714 -0.234474 -8.14617e-23)
(-1.60927 0.62997 2.41792e-22)
(-1.51532 -0.776819 1.87758e-20)
(0.0750453 0.00385873 1.45496e-23)
(-1.19012 -0.662444 1.84816e-22)
(0.0358696 -0.0115005 -1.2157e-20)
(-1.2773 0.576594 -2.4605e-21)
(-0.474739 0.28453 -1.25203e-20)
(-0.42867 -0.263342 1.18201e-20)
(-0.716896 -0.0150509 3.52178e-20)
(-0.585795 0.118363 0)
(-0.519431 -0.214656 -3.34176e-20)
(-0.212544 0.0780241 1.68761e-20)
(-1.51048 0.769354 0)
(0.0770777 0.00816801 1.66804e-20)
(-1.60444 -0.659272 -1.82027e-22)
(-0.62923 0.134413 0)
(-0.557598 -0.244837 -1.16452e-20)
(-0.20289 0.0970539 -2.38927e-20)
(-0.450152 -0.00221865 1.39592e-20)
(-0.332688 0.0848485 -7.12873e-21)
(-0.325164 -0.0836179 3.545e-21)
(-0.463499 0.373718 1.22384e-20)
(-1.10599 0.116858 -9.59309e-21)
(-0.881567 -0.640913 1.76533e-20)
(-0.598225 0.0393397 0)
(-0.438042 -0.210375 0)
(-0.31768 0.168918 1.98621e-21)
(-0.644889 0.0854312 1.73488e-20)
(-0.510998 -0.251435 8.90319e-21)
(-0.289964 0.163895 2.80826e-22)
(-0.90015 0.626962 2.91085e-20)
(-1.10013 -0.138293 -1.56491e-20)
(-0.411649 -0.334219 -1.97085e-20)
(0.0787756 0.000219145 2.52013e-20)
(0.0840807 0.00111362 -2.55729e-20)
(-1.60514 -0.647356 5.28937e-21)
(-1.59068 -0.667499 3.76484e-21)
(-1.52362 0.764289 0)
(-1.54007 0.749647 -7.34659e-21)
(-1.59763 0.596942 1.38889e-20)
(-1.49676 -0.766145 -1.19848e-20)
(0.0684521 0.0109699 2.18961e-20)
(-0.342373 -0.292748 -1.27743e-20)
(-1.02097 0.714604 5.96522e-21)
(-1.21183 -0.187681 1.97296e-20)
(-0.596911 0.388279 -1.21477e-20)
(-0.462231 -0.318331 -1.22071e-20)
(-0.84121 -0.0436259 1.09659e-20)
(-1.25969 0.242379 0)
(-1.08844 -0.727432 1.14371e-20)
(-0.265591 0.229504 3.87907e-22)
(-1.29211 -0.737169 4.53198e-21)
(0.0523432 -0.0244944 -1.1328e-20)
(-1.48682 0.580606 -2.98568e-21)
(-0.00274812 0.041632 0)
(-1.62692 0.487697 0)
(-1.42515 -0.859316 8.22931e-21)
(-1.52515 0.71584 5.60225e-21)
(0.0789592 0.00264478 0)
(-1.55094 -0.702744 -5.23603e-21)
(0.0288929 -0.00696884 -4.52065e-32)
(-1.12775 -0.63274 -1.90864e-21)
(-1.19136 0.562308 2.11486e-21)
(-1.18741 -0.562413 2.11198e-21)
(0.0291699 0.0067131 4.50984e-32)
(-1.13326 0.634356 -1.89875e-21)
(-1.21032 -0.647818 -2.25604e-20)
(-1.29092 0.42131 0)
(-0.028469 0.0717052 -3.37899e-20)
(-1.42124 -0.815896 -2.79754e-21)
(0.0536831 -0.0174407 -1.15691e-20)
(-1.65837 0.563995 0)
(-1.41549 0.588386 -1.36624e-20)
(-1.39044 -0.644656 1.21766e-20)
(0.0620602 0.0108239 1.7507e-20)
(-1.45088 0.847759 1.92128e-20)
(0.0389073 0.00207207 1.01287e-20)
(-1.67881 -0.537943 0)
(-0.774397 0.311499 6.59985e-21)
(-0.0826844 -0.0109479 -6.69768e-21)
(-0.800203 -0.298167 6.43555e-21)
(-1.4544 -0.852183 4.14193e-21)
(0.0291169 0.0149593 1.22278e-20)
(-1.66095 0.523401 3.79578e-21)
(-1.20967 0.215705 -1.10064e-20)
(-0.304963 0.259506 -6.93379e-21)
(-1.03889 -0.700051 0)
(-1.18873 -0.730876 0)
(-1.32703 0.347086 0)
(-0.122128 0.135432 0)
(0.00798271 0.000238871 0)
(-0.705066 -0.363426 -1.8804e-22)
(-0.704704 0.362469 1.85827e-22)
(-1.32477 -0.677981 3.51046e-21)
(0.0470838 -0.00347068 -1.46724e-20)
(-1.34779 0.655179 -3.77111e-21)
(-0.703881 0.269539 -1.69188e-20)
(-0.107753 -0.00998063 1.59374e-20)
(-0.719339 -0.261312 7.55809e-21)
(-1.4867 -0.805293 1.54423e-20)
(-1.65059 0.591979 -6.40285e-21)
(0.0621823 -0.000795874 0)
(0.0390176 -0.00233114 -1.28056e-20)
(-1.68609 0.536132 0)
(-1.43786 -0.851827 -1.1579e-20)
(-1.53681 0.699977 -8.19802e-21)
(0.085203 -1.14734e-05 3.85165e-20)
(-1.55168 -0.672518 0)
(0.0027699 -0.0435275 -2.89063e-20)
(-1.56354 -0.492707 9.78044e-21)
(-1.40993 0.808497 0)
(-0.868073 0.63427 -3.65812e-20)
(-1.10225 -0.111742 1.99267e-20)
(-0.480242 -0.387503 -6.26813e-21)
(-1.3654 -0.353567 3.2698e-21)
(-1.21881 0.759365 1.17705e-20)
(-0.133009 -0.139381 -1.77204e-20)
(-0.000284643 -0.037025 -2.58961e-20)
(-1.42823 0.854708 0)
(-1.63774 -0.489558 0)
(-0.867323 0.495457 -5.9473e-21)
(-0.943087 0.540549 0)
(-0.962499 -0.223438 -2.1429e-20)
(-1.04218 -0.260551 2.29348e-20)
(-0.198555 -0.160547 3.08713e-21)
(-0.169423 -0.152403 -3.28973e-21)
(-0.808715 0.480148 5.70442e-21)
(-0.929328 -0.182003 0)
(-0.25689 -0.199202 5.88549e-21)
(-1.07558 0.70572 0)
(-1.23105 -0.26306 -1.91725e-20)
(-0.236188 -0.209371 4.08295e-21)
(-1.26264 -0.76532 -1.12243e-20)
(-1.4092 0.382033 9.75982e-21)
(-0.0852996 0.107286 -2.69116e-20)
(-1.47973 -0.806952 0)
(-1.61193 0.579926 2.03892e-20)
(0.0560511 0.0124463 0)
(-0.0246989 0.0685853 -8.68529e-21)
(-1.45037 0.446645 -5.96994e-21)
(-1.32844 -0.759554 -7.26645e-21)
(-1.25781 -0.567154 -2.60898e-22)
(0.0349744 0.0117267 7.83788e-21)
(-1.18236 0.660943 0)
(-0.576148 0.31887 1.14507e-20)
(-0.584845 0.306017 0)
(-0.298477 -0.185516 0)
(-0.720491 -0.0933553 4.27146e-20)
(-0.25652 -0.154218 0)
(-0.703312 -0.119829 -2.71912e-20)
(-0.964812 0.630451 0)
(-0.881547 0.576828 0)
(-0.325488 -0.261817 1.89927e-23)
(-1.11832 -0.209041 1.23318e-20)
(-0.286431 -0.234475 2.99389e-20)
(-1.04533 -0.172628 -2.62758e-20)
(-1.15541 -0.685674 0)
(0.0385566 -0.020329 1.65822e-20)
(-1.33729 0.561832 0)
(-1.49097 -0.795197 -9.69941e-21)
(-1.63893 0.598684 2.11401e-21)
(0.0654469 0.00237351 7.71505e-21)
(-0.652439 0.447373 -2.07664e-20)
(-0.530932 -0.38773 -1.386e-20)
(-0.926298 -0.0360336 3.55652e-20)
(-1.19617 -0.78039 2.43502e-20)
(-1.36918 0.30611 2.53717e-20)
(-0.184118 0.177256 0)
(-0.0168273 -0.0581263 3.091e-20)
(-1.53948 -0.470872 -1.03979e-20)
(-1.38561 0.80757 1.24337e-20)
(-1.43338 -0.712985 0)
(-1.49 0.668395 0)
(0.0639781 -0.00600147 0)
(-1.44812 -0.737829 0)
(-1.52999 0.653137 4.73415e-21)
(0.0686443 -0.011069 2.79624e-21)
(-1.14521 0.679716 -1.13814e-20)
(-1.25932 -0.345125 6.7696e-21)
(-0.115785 -0.125864 8.38716e-21)
(-0.401529 0.262236 -3.25783e-21)
(-0.568336 -0.347803 0)
(-0.773026 0.0630152 -1.54576e-22)
(-1.54899 0.716286 9.5521e-21)
(0.0862978 0.000697746 2.23518e-20)
(-1.57549 -0.678478 -4.38258e-21)
(-1.24102 -0.68889 0)
(-1.33728 0.424802 0)
(-0.0334192 0.08047 2.91519e-20)
(0.0636927 -0.0143307 7.31754e-21)
(-1.47738 -0.586968 1.61995e-20)
(-1.4271 0.698448 2.76742e-20)
(-0.837267 0.559811 0)
(-0.377095 -0.297038 -2.01157e-20)
(-1.01764 -0.144321 1.35185e-20)
(-0.988553 0.208318 1.90371e-22)
(-0.865729 -0.518059 1.18086e-20)
(-0.238848 0.192673 0)
(-0.534173 0.338215 1.19716e-22)
(-0.466601 -0.311504 -4.03266e-21)
(-0.794051 -0.023261 -1.43656e-20)
(0.0871611 0.0013447 -1.40391e-24)
(-1.56089 -0.715639 9.94372e-21)
(-1.5725 0.694351 9.8891e-21)
(-1.33353 0.682316 -5.21578e-21)
(-1.40485 -0.51136 -5.06143e-21)
(0.0284132 -0.0356925 0)
(-0.48294 0.275481 -1.24178e-20)
(-0.375562 -0.222708 2.57186e-20)
(-0.688534 -0.0371127 -2.32288e-20)
(-1.4373 0.865462 7.86592e-21)
(0.0109697 -0.0231694 1.14879e-20)
(-1.66825 -0.502731 -6.18518e-21)
(-0.751076 0.407373 -7.25551e-21)
(-0.839753 -0.193617 0)
(-0.198601 -0.14889 0)
(-0.757752 0.199677 -3.10173e-20)
(-0.693668 -0.334042 7.17821e-21)
(-0.159298 0.099326 0)
(-1.16835 -0.684715 0)
(-1.27924 0.350234 2.08778e-20)
(-0.0993676 0.122448 0)
(-1.42125 0.802312 -3.74111e-21)
(0.0590524 0.0200238 -3.56279e-21)
(-1.63385 -0.585581 4.83607e-21)
(-1.41791 0.822928 1.04386e-20)
(0.0519734 0.0184322 0)
(-1.65613 -0.561628 -5.5215e-21)
(0.0539597 -0.0207298 6.60936e-21)
(-1.4997 -0.565231 -9.29264e-21)
(-1.42562 0.723029 -2.54823e-20)
(-1.02195 0.186926 -9.80048e-21)
(-0.892078 -0.563101 -1.18283e-20)
(-0.286873 0.225099 0)
(0.0557675 0.0260756 3.26403e-21)
(-1.59616 -0.579871 -4.52501e-21)
(-1.35704 0.782453 0)
(0.068065 0.0111322 0)
(-1.43376 -0.677308 -9.57131e-21)
(-1.47132 0.601044 -3.17709e-21)
(0.0210017 -0.010324 1.33033e-20)
(-0.96751 -0.599007 2.53704e-21)
(-1.08246 0.4836 0)
(-0.969272 0.599619 -2.49625e-21)
(-1.08051 -0.484117 0)
(0.021324 0.0102084 1.33075e-20)
(0.0116875 -0.0332098 -1.48951e-23)
(-1.61032 -0.509573 0)
(-1.43146 0.834215 0)
(0.0839869 -0.00163311 0)
(-1.54194 -0.737738 0)
(-1.58836 0.686239 1.22492e-20)
(-1.50829 0.764423 -8.56595e-21)
(-1.49136 0.748565 6.92911e-21)
(0.0715816 -0.00525412 -1.26454e-20)
(-1.6017 -0.6104 -1.80254e-21)
(0.070912 -0.0083762 -2.05563e-20)
(-1.57057 -0.607432 3.5245e-21)
(-1.47607 0.570943 6.24732e-21)
(-1.41803 -0.701772 6.4402e-21)
(0.0579499 0.0190264 0)
(-0.249057 0.224744 0)
(-1.14115 -0.775092 0)
(-1.32887 0.263502 0)
(-0.554283 0.25507 0)
(-0.216764 -0.105036 -3.53769e-20)
(-0.63813 -0.128973 1.48968e-20)
(-1.43783 0.494243 1.82357e-20)
(-1.34673 -0.721615 2.46198e-21)
(0.017091 0.0456932 2.55786e-20)
(-0.00914231 0.0618913 1.66511e-20)
(-1.41772 0.465263 -2.53873e-20)
(-1.3118 -0.727189 -3.41175e-21)
(-1.40239 0.870704 9.52396e-21)
(-0.0324602 -0.0588173 1.23884e-20)
(-1.62334 -0.449408 1.55038e-20)
(-0.992635 0.658164 0)
(-1.1574 -0.213126 5.70695e-21)
(-0.292522 -0.244353 -2.93481e-20)
(-0.880364 0.54742 0)
(-1.01286 -0.186731 2.70576e-20)
(-0.282087 -0.230884 -3.7792e-23)
(-1.2869 0.473558 -2.45744e-20)
(-1.2412 -0.617929 3.12401e-21)
(0.0171478 0.0384558 -1.47038e-20)
(-1.32096 0.466658 0)
(-1.25561 -0.645757 2.93688e-21)
(0.0067904 0.0479731 1.34839e-20)
(-0.432511 0.236622 0)
(-0.376732 -0.206421 -4.06625e-20)
(-0.641972 -0.0195671 1.3024e-20)
(-0.968049 0.570471 0)
(-1.07195 -0.259411 0)
(-0.180786 -0.166836 4.44345e-21)
(0.00922628 0.0253367 -2.64734e-20)
(-1.43036 -0.869224 -2.28306e-20)
(-1.66763 0.499921 0)
(-1.5614 0.62592 5.478e-21)
(0.0638461 -0.017727 0)
(-1.39547 -0.758946 3.42316e-21)
(-1.54704 0.588614 -5.31361e-22)
(0.0575287 -0.0235208 0)
(-1.35007 -0.756828 -9.53629e-21)
(-0.674068 0.411118 8.54405e-21)
(-0.344407 -0.240166 -4.33518e-21)
(-0.836596 -0.111168 -2.92834e-22)
(-1.35897 -0.698121 4.58314e-22)
(0.0554038 -0.00971047 2.24587e-20)
(-1.44645 0.642931 0)
(-1.38337 0.722509 2.21686e-20)
(0.0338675 -0.0324617 1.39742e-20)
(-1.4666 -0.527067 0)
(0.0497407 -0.01902 -3.33689e-21)
(-1.28756 -0.721207 -4.33995e-21)
(-1.4372 0.59594 0)
(-0.561746 0.155315 2.11091e-20)
(-0.186084 0.0318454 2.1448e-20)
(-0.535282 -0.184331 4.54988e-23)
(-1.03574 0.462679 -3.70771e-21)
(-1.05746 -0.409321 -3.43873e-21)
(-0.0160084 -0.0267043 -1.53451e-20)
(-0.816472 -0.529952 2.69297e-20)
(-0.977798 0.149578 2.33429e-20)
(-0.344272 0.261053 0)
(0.0546189 -0.0109228 0)
(-1.44415 -0.820407 -3.74707e-21)
(-1.66442 0.571106 0)
(-1.21899 -0.705227 0)
(-1.33548 0.399019 0)
(-0.0612572 0.0971256 0)
(0.0336829 -0.00921175 0)
(-1.45894 0.845549 -6.89048e-21)
(-1.66915 -0.533169 6.08279e-21)
(-1.11181 0.496647 0)
(-1.1212 -0.451911 1.73857e-21)
(0.00395538 -0.018166 1.49986e-20)
(-0.518375 0.226085 0)
(-0.22111 -0.0914454 3.0383e-20)
(-0.59761 -0.116854 0)
(-1.48242 -0.803314 -1.45813e-20)
(-1.63886 0.609446 6.09471e-21)
(0.0664365 -0.00766738 0)
(0.0770729 -0.000848025 -1.52733e-20)
(-1.47234 -0.649602 6.09084e-22)
(-1.46801 0.658124 5.18832e-22)
(-1.4729 0.768469 0)
(-1.45019 0.76136 6.28711e-21)
(0.0705877 0.0139329 -8.21613e-21)
(0.0688713 0.0145906 -1.01073e-20)
(-1.59895 -0.630282 -3.23941e-21)
(-1.57559 -0.638793 2.66513e-21)
(-1.00328 0.320839 0)
(-0.947729 -0.488255 4.60748e-20)
(-0.0824815 0.0804034 1.63752e-20)
(-1.14577 -0.609647 3.16429e-20)
(-1.22587 0.385676 0)
(-0.0451363 0.0801652 -1.78483e-20)
(-0.705498 0.219313 -1.74671e-20)
(-0.679703 -0.28555 1.23132e-20)
(-0.122435 0.0462561 2.60028e-20)
(-1.43314 -0.784863 8.3564e-21)
(-1.61014 0.614329 6.41636e-21)
(-1.41046 -0.799101 -3.86581e-21)
(0.0653322 -0.0165298 0)
(-1.62607 0.585865 -6.18285e-21)
(0.0582982 -0.0198988 0)
(-1.26301 0.563822 0)
(-1.27032 -0.538995 0)
(0.039666 -0.00606296 1.65887e-20)
(-1.62558 0.62869 9.90189e-21)
(-1.61287 0.629684 -1.81937e-20)
(-1.49805 -0.782233 5.46904e-21)
(-1.47732 -0.774035 -1.44863e-20)
(0.0732859 -0.00811431 2.2649e-20)
(0.0716316 -0.0111133 -6.33333e-24)
(-1.17452 0.359785 0)
(-1.09631 -0.607222 -2.96969e-20)
(-0.0844197 0.106831 2.31629e-20)
(-0.935028 0.353758 1.63516e-20)
(-0.978637 -0.421985 -2.076e-20)
(-0.0258122 0.0127424 0)
(-1.45744 0.83101 0)
(0.0518367 0.00905806 0)
(-1.66558 -0.567502 5.30997e-21)
(-1.01926 0.352639 1.20361e-20)
(-0.976313 -0.472916 -1.28206e-20)
(-0.0523955 0.0577598 -2.70927e-20)
(-0.786482 0.262613 7.01237e-21)
(-0.766386 -0.335908 -1.44583e-20)
(-0.0940171 0.0404122 1.50579e-20)
(-1.44944 0.789581 0)
(0.0659042 0.015701 0)
(-1.63032 -0.610937 -7.38848e-21)
(-1.13478 0.530718 0)
(-1.16976 -0.438965 3.58439e-21)
(0.00512186 -0.034756 -1.65393e-20)
(-1.01597 -0.709374 0)
(-1.20116 0.191703 0)
(-0.357301 0.300101 -8.95125e-22)
(-0.840826 0.57888 -9.40149e-22)
(-1.03867 -0.125781 0)
(-0.414071 -0.328748 3.08908e-20)
(-1.3375 -0.858423 1.26266e-20)
(-0.0914327 0.103993 0)
(-1.53939 0.395203 0)
(0.0155271 6.96053e-05 -3.19903e-20)
(-0.924423 -0.482427 2.63054e-22)
(-0.924609 0.481684 -2.60043e-22)
(-1.06814 0.417355 0)
(-1.04084 -0.459431 1.27117e-20)
(-0.0101941 0.0164897 -1.38008e-20)
(-1.49337 0.804557 1.32994e-20)
(0.0640429 0.00223951 4.27339e-20)
(-1.64318 -0.592539 0)
(-0.601481 -0.467273 -8.279e-21)
(-1.05691 -0.0383988 -1.32016e-20)
(-0.737257 0.551106 -8.2721e-21)
(-1.13698 0.682369 0)
(0.0379429 0.0206653 -1.18897e-20)
(-1.33068 -0.553146 0)
(-0.291857 0.188879 1.61644e-20)
(-0.324759 0.218477 -1.65299e-20)
(-0.602529 -0.340019 0)
(-0.74653 0.108166 1.49392e-20)
(-0.63974 -0.379584 -2.6097e-20)
(-0.793467 0.100866 -1.19704e-20)
(-0.68873 0.184956 1.64376e-20)
(-0.635438 -0.280303 1.63536e-20)
(-0.1589 0.0780555 0)
(-0.412498 0.254141 1.4385e-20)
(-0.344542 0.214312 0)
(-0.490786 -0.293181 -1.45539e-20)
(-0.717485 0.0255144 1.33643e-20)
(-0.517049 -0.291419 1.4667e-20)
(-0.699771 0.0589138 7.46376e-23)
(-1.008 0.395214 1.03279e-21)
(-0.91093 -0.40667 -9.09485e-21)
(-0.050617 0.0313983 -1.84601e-20)
(-0.938572 0.33356 -2.80997e-20)
(-0.913158 -0.423913 2.39315e-22)
(-0.0627618 0.049625 0)
(0.0541614 -0.0258825 0)
(-1.34711 -0.786167 0)
(-1.59578 0.571109 5.57644e-21)
(-0.737819 0.434499 -7.87582e-21)
(-0.864318 -0.14869 0)
(-0.279603 -0.203898 8.03827e-21)
(-1.60825 0.654818 -1.97761e-20)
(-1.52641 -0.764606 6.98454e-21)
(0.0808991 -0.00266207 -1.29137e-20)
(-1.32318 0.520252 0)
(-1.38045 0.546113 1.31272e-20)
(-1.29315 -0.612559 -3.89674e-21)
(-1.34508 -0.63997 1.19495e-20)
(0.0399668 0.0230704 -1.82575e-20)
(0.0498765 0.020303 -1.68965e-20)
(-0.708586 0.398626 0)
(-0.822176 -0.158737 0)
(-0.247687 -0.178327 3.82478e-21)
(-1.04669 0.645056 9.1593e-21)
(-1.16815 -0.272419 0)
(-0.195425 -0.176747 9.74713e-21)
(-1.2099 0.490402 -6.99553e-21)
(-1.19426 -0.546981 0)
(0.0247578 0.0178265 0)
(-0.405523 0.145818 1.6317e-20)
(-0.508847 -0.0535814 -8.00169e-21)
(-0.273935 -0.0924035 8.22465e-21)
(-1.39603 0.505523 0)
(-1.32774 -0.683566 0)
(0.0262054 0.0388374 -2.72041e-20)
(-0.520375 0.257004 0)
(-0.26754 -0.142707 4.4676e-21)
(-0.641884 -0.0925536 0)
(-1.17536 0.389734 -1.59796e-20)
(-1.10582 -0.583119 -1.66168e-20)
(-0.0416704 0.0717559 -2.31557e-21)
(-1.03831 0.613495 9.30671e-21)
(-1.14483 -0.291818 0)
(-0.157164 -0.153479 2.01098e-20)
(-0.434429 0.182205 -1.6175e-20)
(-0.411072 0.183863 -7.18941e-21)
(-0.552073 -0.0671363 7.89082e-21)
(-0.273036 -0.113749 -1.63032e-20)
(-0.569291 -0.0415367 0)
(-0.313667 -0.146567 -2.89968e-20)
(-0.373177 0.203451 -7.19502e-21)
(-0.419408 -0.225964 1.90274e-20)
(-0.34101 0.198432 4.627e-21)
(-0.632164 0.0156447 -1.80679e-20)
(-0.496935 -0.272283 -9.20212e-21)
(-0.671282 0.053282 3.29501e-22)
(-0.840343 0.462244 8.60739e-21)
(-0.906644 0.480942 0)
(-0.925158 -0.23285 1.59971e-20)
(-0.971144 -0.275424 -1.2504e-20)
(-0.169367 -0.137365 -1.79116e-20)
(-0.121113 -0.107422 2.97874e-20)
(0.0226351 -0.0350334 0)
(-1.53601 -0.517677 -5.64325e-21)
(-1.41415 0.775973 -1.28343e-20)
(-0.394592 0.323479 1.08803e-20)
(-1.13152 0.157802 1.51403e-20)
(-0.941307 -0.659906 -2.78978e-20)
(0.0414659 -0.0225452 -1.44226e-20)
(0.0567443 -0.016763 1.15454e-20)
(-1.56662 -0.552597 4.88667e-21)
(-1.54838 -0.574957 8.5045e-21)
(-1.44668 0.783047 3.25352e-20)
(-1.45934 0.757033 -1.68875e-20)
(-0.562092 0.417903 1.52108e-20)
(-0.674628 -0.481348 -1.32127e-20)
(-0.968069 0.0333643 3.47752e-21)
(-0.381734 0.0844633 2.7628e-20)
(-0.281722 -0.0364075 0)
(-0.429105 -0.046351 -2.74596e-20)
(-1.42053 0.540023 -6.20569e-21)
(-1.36379 -0.678959 -1.35065e-20)
(0.0449479 0.0269461 0)
(-0.630855 0.353187 0)
(-0.291165 -0.200117 -3.64399e-21)
(-0.766106 -0.112094 -1.3855e-20)
(-1.0808 0.628059 0)
(-1.18222 -0.319484 0)
(-0.126572 -0.132387 -1.87067e-20)
(-1.34754 0.775815 -1.41698e-20)
(-1.34116 0.746577 0)
(-1.48175 -0.460414 3.1947e-21)
(-0.0244513 -0.0659036 -1.7696e-20)
(-1.45523 -0.470894 -8.69925e-21)
(-0.00812403 -0.0572569 2.39611e-20)
(-1.31515 0.565203 1.31424e-20)
(-1.31568 -0.572318 1.2809e-20)
(0.0507978 0.00247227 9.92281e-21)
(-1.24025 0.701786 5.88554e-21)
(-1.40489 -0.585193 0)
(0.046785 0.0190865 -4.85738e-21)