/*--------------------------------*- C++ -*----------------------------------*\
  =========                 |
  \\      /  F ield         | OpenFOAM: The Open Source CFD Toolbox
   \\    /   O peration     | Website:  https://openfoam.org
    \\  /    A nd           | Version:  6
     \\/     M anipulation  |
\*---------------------------------------------------------------------------*/
FoamFile
{
    version     2.0;
    format      ascii;
    class       volScalarField;
    location    "0";
    object      p;
}
// * * * * * * * * * * * * * * * * * * * * * * * * * * * * * * * * * * * * * //

dimensions      [0 2 -2 0 0 0 0];

internalField   nonuniform List<scalar> 
918
(
0.210839
1.07046
0.000493261
0.205552
0.000602369
1.03909
-0.702633
0.431979
0.187182
-0.119662
0.0303238
0.185776
0.889213
0.6528
-1.40313
0.0240449
0.355999
-0.677175
0.176106
0.0168617
0.552351
0.196959
0.199743
0.191967
0.242592
0.614388
0.762826
0.000887626
-0.0010968
-0.00331673
0.00317301
0.00050523
0.00776059
0.912772
0.958096
0.976445
0.164751
-0.338683
-0.565736
-0.656786
-0.571855
-0.737295
0.411807
0.414049
-0.498574
0.434965
0.453459
0.182724
0.186354
0.185797
0.192482
0.187146
0.189213
0.278778
-0.124257
-0.167921
-0.0558914
-0.0367549
0.0850668
0.0304703
0.0329962
0.0238195
0.0305576
0.127791
0.179524
0.177859
0.186018
0.194785
0.995822
0.968778
0.991216
0.913142
0.931546
0.864339
0.835834
0.674428
0.697717
0.638301
0.625079
-1.90485
-2.93389
-0.773791
-0.503396
0.00361719
0.0257385
0.0181321
0.339987
0.343991
0.353521
0.368226
0.689379
-0.639126
-0.844415
0.183653
0.182807
0.190179
0.191457
0.181845
0.185815
0.0205068
0.0172171
0.0055432
0.0136681
0.0138874
0.53265
0.522389
0.190204
0.181786
0.206342
0.223848
0.209313
-0.0365168
0.250266
0.287079
0.462553
0.619024
0.608026
0.620177
0.738151
0.705307
0.793673
0.821655
0.00678085
0.000720222
0.0256494
0.00803932
0.0216126
0.159377
0.154066
0.175564
0.171557
0.167157
-0.31844
-0.340398
-0.394433
-0.43173
-0.515285
-0.59957
-0.661225
-0.617297
-0.808445
0.64097
0.390579
0.389621
-0.469203
-0.410397
-0.550516
-0.379676
-0.449733
0.166722
0.178725
0.174104
0.176559
0.183002
0.183057
0.188046
0.186278
0.187629
0.300123
0.370025
0.253326
0.229466
-0.417414
-0.215635
-0.376539
-0.0157023
-2.82122e-06
0.101199
0.116956
0.0795795
0.0784591
0.00305745
0.0290797
0.00749529
0.032226
0.0327487
0.110567
0.105899
0.136597
0.14078
0.170866
0.173745
0.172993
0.170565
0.784151
0.809603
0.814723
0.790522
-3.98894
-6.72188
-0.130222
0.0220675
0.00340998
0.00169652
0.0022192
0.00623056
0.00510684
0.00281038
0.0477143
0.0471967
0.0308487
0.0475561
0.324061
0.327493
0.682769
0.747921
0.630135
0.6221
0.180028
0.178869
0.180786
0.16975
0.0289144
0.020659
0.022121
0.462208
0.498197
0.488181
-0.0823356
-0.166065
0.0138538
0.0368134
0.311528
0.29331
0.304563
0.522149
0.560195
0.836323
0.853691
0.849022
0.861299
0.908492
0.928268
0.89003
0.14492
0.148171
0.146159
0.178481
0.175142
0.171583
0.167948
0.171297
0.173033
-0.418992
-0.705571
0.114525
-0.0621304
-0.389521
-0.231622
0.674321
0.736295
0.365211
0.37697
0.382305
-0.31207
-0.381072
0.199434
0.180042
0.061867
0.0971306
0.0756945
0.759729
0.720724
0.76892
0.744437
0.707575
0.733225
-0.580081
-2.38802
-1.27974
0.40187
0.213868
0.304658
0.0675614
0.0531465
0.0573492
0.739141
0.78656
0.400522
0.524913
0.491987
0.590019
0.617405
0.679299
0.608288
0.645306
0.677172
0.653554
0.527688
0.27974
0.438154
0.745819
0.803457
-0.186756
-0.274881
-0.301415
0.124095
0.148762
0.126039
0.776982
0.777999
0.803428
0.185552
0.187448
0.0133576
0.0175365
0.187077
0.183231
0.00705606
0.0013512
0.299704
-1.16172
-0.196802
0.184918
0.175124
0.186103
-0.0542008
0.248305
0.0280861
0.0892921
0.0647521
0.176731
0.134039
0.0996071
-0.00265901
0.0261365
0.0193852
-0.298925
0.178822
0.173278
0.185321
0.185483
0.185918
0.00452606
0.0104061
0.006566
0.0162515
0.0137638
0.0121652
0.160545
0.169592
-0.288165
0.183406
0.185955
0.185865
0.184139
0.186263
0.187665
0.0174907
0.0119921
0.0194616
-0.0586778
0.0463567
0.510301
0.603609
0.454822
0.277162
0.0206716
0.426
0.487871
0.396644
0.548463
0.367149
0.415764
-0.103327
-0.226633
-0.125196
-0.17023
0.177388
0.177358
0.168635
0.16455
0.177231
0.182756
0.178937
0.181412
0.184023
0.18264
-0.0120059
-0.0207182
-0.0783826
-0.1546
0.280401
0.3523
0.208857
0.230954
0.152899
0.0433104
0.0324326
0.030852
0.0339673
0.0692663
0.067382
0.0780179
0.0793699
0.0590599
0.0540901
0.0674037
0.0643444
0.069582
0.173751
0.171626
0.17803
0.182458
0.137873
0.144921
0.114683
0.13245
0.112277
0.0716919
0.0912565
0.0726733
0.0093232
0.00571999
0.00735453
0.0281954
0.0346323
0.0263399
0.0165814
0.0219526
0.0153738
0.0119516
0.0234324
0.0263484
-0.245457
-0.356563
0.655099
0.554431
0.325956
0.182176
0.179608
0.179474
0.171839
0.180067
0.187976
0.187771
0.181452
0.171284
0.172245
0.170592
0.168488
-0.212604
-0.356991
-0.228473
-0.319698
-0.494309
0.293644
0.0464098
-0.000163111
-0.0293688
0.17484
0.555193
0.450335
0.551955
0.530552
-0.555917
-0.106212
-0.466202
0.123868
0.106806
0.524726
0.571387
0.590317
0.542333
0.49358
-0.349577
0.137767
-0.313362
-0.26815
-0.181399
-0.230344
0.494739
0.346454
0.356695
0.410271
0.439072
0.359329
0.340462
0.337443
0.386
0.385007
0.149954
-0.0481406
-0.0868797
-0.143843
0.337183
0.198838
0.255435
0.175397
0.173798
0.176104
0.177552
0.166774
0.167846
0.172783
0.169524
0.171441
0.178894
0.173242
0.174503
0.183573
-0.0084967
-0.0111455
-0.0512764
-0.17624
-0.174359
-0.246465
-0.113494
0.125662
0.100821
0.296471
0.374892
0.059099
-0.074512
-0.0621258
0.0433568
0.149804
0.169914
0.122193
0.17008
0.172646
0.144568
0.205992
0.201577
0.0480773
0.0590495
0.0421419
0.037424
0.0961087
0.123745
0.117002
0.0556141
0.0574268
0.0374819
0.0350951
0.0854661
0.0534767
0.0659403
0.0754615
0.0297363
0.0300824
0.0359263
0.0477044
0.0398723
0.0497417
0.171745
0.170215
0.174817
0.189266
0.192116
0.209429
0.184275
0.154341
0.147589
0.148165
0.138213
0.148633
0.144392
0.153154
0.160925
0.168395
0.167076
0.168514
0.160476
0.157094
0.154619
0.161136
0.131305
0.104969
0.0982819
0.0242838
0.017509
0.0266581
0.015066
0.0156803
0.0193206
0.0458984
0.0415261
0.0402178
0.0412441
0.0446271
0.0231762
0.0231395
-0.0995747
0.0269216
-0.27276
-0.286523
-0.373842
0.643785
0.715867
0.551992
0.470673
0.501938
0.58457
0.612036
0.390765
0.471689
0.470192
0.546958
0.689145
0.174155
0.178361
0.175596
0.172224
0.177761
-0.131825
-0.175101
-0.241968
-0.260541
-0.398969
-0.441452
0.153209
0.48337
0.410564
0.195154
0.282515
0.299909
0.245871
0.275383
0.277913
0.105065
0.174735
0.233861
0.17575
0.223796
0.246728
0.211807
0.243719
0.183762
0.148343
0.146739
0.0930711
0.115001
0.0976238
0.0725281
0.171306
0.151579
0.158554
0.151235
0.17489
0.200772
0.193577
0.210201
0.230372
0.161539
0.127564
0.134595
0.153877
0.118762
0.128535
0.143774
-0.94877
-0.977324
-0.501346
-0.746786
-0.668095
-0.420907
-0.506868
-0.74579
-0.524302
-1.00784
-0.735548
-1.37458
-0.0410115
0.674976
0.468217
0.476546
0.441462
0.428134
0.43903
0.469813
0.466635
0.327098
0.33952
0.34324
0.290968
0.325757
0.396455
0.374852
0.0981687
0.0257447
-0.0303886
-0.0073092
-0.130163
-0.103331
0.104031
0.042361
-0.0294343
-0.0217222
0.13921
0.0252119
0.0945986
0.136646
0.101927
0.0407714
0.227659
0.288839
0.273778
0.263266
0.169908
0.181074
0.21355
0.253908
0.274719
0.311331
0.162579
0.171433
0.174895
0.169497
0.166579
0.169786
0.173195
0.175199
0.170688
0.172689
0.175697
0.0303633
0.0344654
0.00942349
0.0186331
0.0365668
0.0195394
0.0550409
0.0181914
0.0486718
0.0589396
0.0321119
0.00559136
0.0178698
0.033004
0.160262
0.181153
0.176502
0.133796
0.234485
0.346527
0.392443
0.343785
0.198929
0.223806
0.280458
0.0946232
0.0943905
0.0845125
0.101597
0.103123
0.0445235
0.0409406
0.041087
0.048204
0.0465423
0.0340623
0.0308125
0.0295145
0.0313422
0.0341137
0.0341605
0.155915
0.148502
0.143497
0.134761
0.137974
0.155597
0.158173
0.16167
0.165154
0.167727
0.162161
0.168162
0.168629
0.0375769
0.0232296
0.0277396
0.0303524
0.0285535
0.0233597
0.0244169
0.241538
0.113729
0.224677
0.0704737
-0.164343
-0.0646932
0.329268
0.492582
0.357002
0.619597
0.604578
0.453021
0.464986
0.614373
0.393132
0.629491
0.5447
0.673759
0.659513
0.712987
0.61189
-0.440361
-0.378932
-0.236549
-0.794707
-0.69121
-0.12567
-0.22043
-0.171951
-0.243673
-0.186679
-0.27091
-0.291382
-0.389841
0.00640345
-0.164803
0.0702911
-0.382679
-0.362992
0.0304687
-0.488934
-0.252575
0.280068
0.298637
0.316864
0.286466
0.316261
0.234475
0.232491
0.246673
0.255041
0.240555
-1.10875
-0.892105
-1.76555
-1.09099
-0.619507
0.0619056
-0.223809
0.498731
0.343325
0.45656
0.417519
0.355544
0.297252
0.303196
0.355496
0.024018
0.131568
0.0965683
0.121542
0.065257
-0.0132467
0.264996
0.251292
0.29878
0.316236
0.283629
0.317755
0.164044
0.162701
0.16126
0.162535
0.154952
0.152638
0.104014
0.0757659
0.110912
0.0928813
0.0547046
0.0499965
0.0445088
0.040167
0.0363829
0.0360716
0.0422339
0.0427599
0.224395
0.275222
0.102322
0.202449
-0.0891991
-0.105183
-0.162914
0.0326579
0.0745416
-0.0358849
0.443357
0.600137
0.543277
0.569561
0.450225
0.491028
0.201625
-0.132447
-0.0128898
0.135168
0.260677
-0.324583
-0.735092
-0.591718
0.659961
0.564387
0.323672
0.135254
-0.0129906
0.367183
0.160752
0.119139
0.169792
0.240045
0.249288
-0.665335
-0.622075
-0.542475
-0.488958
-0.989367
-0.631763
-0.664601
-0.705914
-0.878771
)
;

boundaryField
{
    wall-4
    {
        type            zeroGradient;
    }
    velocity-inlet-5
    {
        type            zeroGradient;
    }
    velocity-inlet-6
    {
        type            zeroGradient;
    }
    pressure-outlet-7
    {
        type            fixedValue;
        value           uniform 0;
    }
    wall-8
    {
        type            zeroGradient;
    }
    frontAndBackPlanes
    {
        type            empty;
    }
}

