/*--------------------------------*- C++ -*----------------------------------*\
  =========                 |
  \\      /  F ield         | OpenFOAM: The Open Source CFD Toolbox
   \\    /   O peration     | Website:  https://openfoam.org
    \\  /    A nd           | Version:  6
     \\/     M anipulation  |
\*---------------------------------------------------------------------------*/
FoamFile
{
    version     2.0;
    format      ascii;
    class       volScalarField;
    location    "0";
    object      P_rec;
}
// * * * * * * * * * * * * * * * * * * * * * * * * * * * * * * * * * * * * * //

dimensions      [0 2 -2 0 0 0 0];

internalField   nonuniform List<scalar> 
918
(
0.614348
0.274449
0.123753
0.639925
-0.00228068
0.149122
-0.773778
0.546108
0.648315
-0.144388
0.0342768
0.499628
-0.0326042
-0.0237193
-1.16952
0.0233249
0.615802
-0.735121
0.456829
0.0274297
-0.154804
0.643173
0.566192
0.451115
0.54515
-0.117951
0.067519
-0.041445
-0.0639214
-0.0483639
-0.00152008
0.0573029
0.0113065
0.120191
0.12065
0.171776
0.465473
0.228478
-0.64095
-0.688892
-0.684398
-0.859312
0.557971
0.572933
-0.248032
0.523558
0.49485
0.466569
0.62389
0.651885
0.57227
0.625576
0.657724
0.25214
-0.195914
-0.26341
-0.0961585
-0.0941318
0.0714141
0.0277947
0.0136426
0.0666398
0.0535121
0.415258
0.490521
0.486327
0.511754
0.509691
0.235943
0.197502
0.249037
-0.0371987
0.117364
-0.0530978
0.0740686
-0.0186413
0.0196299
-0.0398955
-0.057391
-1.42535
-2.17311
-0.706944
-0.584041
0.0051175
0.0244406
0.0335017
0.606033
0.60771
0.601985
0.611627
0.712721
-0.666984
-0.844419
0.490722
0.491077
0.631375
0.578509
0.513366
0.438271
0.0243504
0.0207884
0.012852
0.0447358
0.0353422
0.0742054
0.209244
0.428975
0.465758
0.509272
0.535934
0.523055
0.248701
0.58493
0.58121
-0.118142
0.0383479
-0.111716
-0.0244234
0.0809321
0.0490978
0.15178
0.187859
-0.0686628
-0.0119017
0.0419068
0.00381752
0.0313425
0.464262
0.454061
0.479824
0.468482
0.473672
0.130496
0.0380863
0.299045
0.333133
-0.510695
-0.547037
-0.759785
-0.774598
-0.890677
0.513989
0.578542
0.594213
-0.364851
-0.225549
-0.396719
-0.137075
-0.181099
0.471027
0.462588
0.463248
0.471069
0.475232
0.476046
0.633064
0.625097
0.665884
0.262716
0.34483
0.238675
0.193751
-0.478349
-0.361667
-0.46089
-0.0641334
-0.01937
0.0588773
0.0937151
0.108779
0.079109
-0.0140091
0.00988552
-0.00489259
0.0221584
0.0215128
0.418898
0.403121
0.416964
0.426709
0.483268
0.48204
0.488744
0.490467
0.163807
0.151024
0.103738
0.07989
-2.95844
-5.10479
-0.399553
-0.314985
-0.00317473
-0.0157654
-0.00583652
-0.093023
-0.0178352
-0.0470313
0.0701156
0.0407374
0.0361002
0.0558207
0.604634
0.618428
0.702943
0.726694
0.634481
0.630676
0.489024
0.499549
0.493728
0.496369
0.0347906
0.0220184
0.0372255
0.456038
0.333494
0.393495
0.215354
0.120034
0.296149
0.33666
0.607525
0.590741
0.612319
-0.126732
-0.0430605
0.303044
0.0242713
0.282936
0.0896182
0.0524459
0.106102
0.013041
0.431931
0.4494
0.446296
0.474964
0.483828
0.4832
0.485482
0.477048
0.480968
-0.122466
-0.413968
0.434823
0.428738
0.370804
0.416215
0.575745
0.622973
0.602363
0.589575
0.600008
-0.033015
-0.0687319
0.143464
0.133314
0.366908
0.382244
0.372347
0.0771039
0.0373177
0.0749228
0.0622369
0.0390734
0.0908562
-0.39002
-1.7357
-0.984925
-0.141747
-0.212911
-0.190934
0.0371118
0.107064
0.0717164
0.694853
0.745738
0.39414
0.557769
0.509514
-0.172093
-0.0856279
0.0238945
-0.104794
-0.0501623
0.0316529
-0.0172443
0.438911
0.409502
0.432635
0.638775
0.699491
0.0824849
0.0179791
-0.0220485
0.115763
0.106034
0.106072
0.731851
0.696408
0.728666
0.439059
0.425203
-0.0655118
-0.00499778
0.548394
0.57847
-0.0698147
-0.0299139
-0.11769
-0.74322
0.0791829
0.494102
0.448774
0.509467
-0.197671
0.148452
-8.55352e-05
0.0134979
-0.0391347
0.468969
0.393655
0.362906
-0.067915
0.00593225
-0.00588763
-0.445584
0.504368
0.486652
0.493049
0.505968
0.519944
-0.00683774
-0.0159908
0.0324338
-0.0376288
0.0470983
0.0441079
0.474805
0.463832
-0.432815
0.486786
0.513739
0.511742
0.527036
0.527989
0.514041
-0.0156312
0.0345189
0.0415854
0.183337
0.288352
-0.0368701
-0.120849
0.00559063
-0.127165
-0.306816
-0.0634549
-0.0655628
-0.0611041
-0.0645166
0.565117
0.525919
0.168682
-0.0215576
0.151479
0.118545
0.490498
0.510061
0.48063
0.493883
0.514155
0.457389
0.53053
0.494991
0.490782
0.539586
-0.152558
-0.0634503
-0.14355
-0.271291
0.224126
0.339713
0.128484
0.211794
0.0794636
-0.0163455
0.0479556
-0.0271874
-0.000791808
-0.0106367
0.105518
0.0339608
0.139781
0.0206089
0.115037
-0.0505753
0.147974
-0.00946176
0.451176
0.473123
0.470009
0.514355
0.428008
0.44883
0.426546
0.423321
0.44513
0.374064
0.392904
0.393614
0.0153804
0.0157198
0.0497725
0.0217485
0.0479737
-0.0303975
-0.0250903
-0.0251152
-0.00378456
-0.0511696
-0.0128706
-0.00313617
-0.362484
-0.526595
0.62338
0.531978
-0.0225948
0.459099
0.508783
0.479516
0.521907
0.531977
0.567331
0.528462
0.504295
0.471012
0.488753
0.469731
0.490007
-0.34436
-0.413424
-0.267912
-0.310853
0.147198
0.587265
0.343284
0.289264
0.281997
0.446195
0.391229
0.111882
-0.248124
-0.387274
-0.485953
-0.369701
-0.516662
-0.0594185
0.00138797
-0.119527
-0.0463067
0.0328397
-0.0293581
-0.034984
-0.0897888
0.473077
-0.152589
-0.133313
0.0992069
0.0110869
0.239039
0.56514
0.575024
0.502938
0.47662
0.550544
0.52217
0.521939
0.552776
0.558636
0.467343
0.230781
0.221015
0.152643
0.575955
0.489757
0.524731
0.406944
0.513573
0.518208
0.494773
0.483599
0.525298
0.483812
0.478343
0.453437
0.445339
0.489408
0.493093
0.459671
-0.0252018
-0.0361504
-0.153691
-0.353909
-0.220381
-0.314697
-0.196474
-0.11393
-0.192912
-0.0421112
0.184545
-0.124353
-0.290759
-0.15382
-0.249311
-0.00242122
-0.0756079
0.0937467
0.112802
0.0898355
0.109819
0.166307
0.142056
0.0269865
0.0316562
0.0687704
-0.0127392
0.125136
0.0764905
0.147291
0.0618263
0.119789
0.0724511
0.0303466
-0.0320848
0.0881642
0.0288671
-0.031669
0.0317322
0.0175129
-0.0796496
-0.0773547
0.191085
0.0524673
0.497895
0.478917
0.481221
0.500978
0.537262
0.527479
0.469778
0.473232
0.50511
0.471197
0.439693
0.41981
0.407548
0.442955
0.454358
0.450055
0.494723
0.485011
0.455794
0.478227
0.421246
0.441762
0.391198
0.414061
0.44426
-0.105547
0.0281818
-0.036882
-0.0449041
0.0153047
0.0581949
0.121073
0.0320291
0.126234
0.0968736
0.0627634
0.0363231
0.0643974
-0.228001
-0.125173
-0.347227
-0.434014
-0.528299
0.596122
0.679737
0.555057
0.394499
0.447887
0.552631
0.658466
0.379558
0.409589
0.508598
0.421383
0.615665
0.49285
0.476563
0.49868
0.522731
0.495401
-0.186566
-0.0447535
-0.00309863
0.110596
0.21083
0.270899
0.130833
0.0954608
0.185026
0.207122
0.567319
0.588456
0.555081
0.589187
0.584135
0.379374
0.474896
0.502183
0.501983
0.501421
0.523706
0.535197
0.52823
0.453643
0.452221
0.458011
0.416904
0.441012
0.412235
0.412932
0.468495
0.445582
0.445992
0.459299
0.510989
0.484187
0.516577
0.564933
0.54086
0.437967
0.419882
0.446111
0.45575
0.434759
0.433627
0.426196
0.134975
0.157411
0.0871837
-0.0849127
0.0372244
-0.0269273
-0.0759477
-0.0591667
0.0759908
-0.3938
-0.335924
-0.846795
0.350987
0.452309
0.21438
-0.0792319
0.455126
0.497882
0.482561
0.372476
0.380083
0.558862
0.580021
0.589603
0.515464
0.506907
0.529057
0.511729
0.469558
0.335719
0.2617
0.313403
0.151212
0.214366
0.369346
0.310354
0.269843
0.303911
0.391558
0.296943
0.322123
0.3981
0.357811
0.352732
0.476726
0.522567
0.541505
0.480921
0.389663
0.454142
0.438568
0.486796
0.529018
0.531356
0.49508
0.474631
0.485829
0.476685
0.463759
0.483068
0.449166
0.500228
0.506214
0.514792
0.508586
-0.0270257
-0.00523789
0.01107
-0.0329474
-0.110838
-0.158379
-0.170674
-0.167988
0.0522945
0.0182601
-0.102082
-0.0376168
0.0735402
0.0165386
0.026189
0.0329076
-0.0436129
-0.104683
0.109795
0.274641
0.272939
0.213093
0.08077
0.104733
0.215973
0.00810621
0.124833
0.0716771
0.026187
0.0159526
0.0196326
0.122397
0.0478849
0.0914643
0.0340776
-0.128316
0.0493881
0.108003
-0.0545373
0.00916444
0.0453481
0.457686
0.463248
0.447157
0.426952
0.434314
0.431842
0.469176
0.498312
0.498602
0.497424
0.505875
0.486008
0.492206
0.0154574
0.148008
0.180404
0.101789
0.0543964
-0.00612686
-0.0268797
0.108075
-0.040676
0.00974069
-0.146574
-0.262298
-0.19974
0.339718
0.379769
0.37149
0.575605
0.433609
0.337448
0.434649
0.561404
0.268866
0.357182
0.244551
0.602737
0.549464
0.648443
0.419501
0.0521815
0.145455
0.295264
0.00700675
0.013806
0.137305
0.156005
0.159323
0.146582
0.226054
0.204267
0.175754
0.0676998
0.103375
0.257428
0.23818
0.317845
0.370291
0.0717828
0.0981112
0.0418227
0.543253
0.56875
0.591149
0.56354
0.58398
0.52512
0.521144
0.555604
0.584541
0.572948
-0.705421
-0.452412
-1.25712
-0.549638
-0.262369
0.46535
0.180951
0.847567
0.665039
0.52322
0.541133
0.5409
0.499559
0.559848
0.559696
0.304572
0.39948
0.338483
0.380327
0.289965
0.216757
0.523419
0.508645
0.536595
0.555651
0.511426
0.554686
0.409486
0.455429
0.435625
0.473064
0.499662
0.521223
0.034836
-0.0293277
-0.0150165
-0.0296268
-0.0416255
-0.0603373
-0.0482744
-0.013555
0.190292
0.123853
0.0579052
0.119583
0.0125357
0.00733881
-0.10157
-0.0234252
-0.119917
-0.251951
-0.232144
-0.198138
-0.105766
-0.0262643
0.347349
0.490397
0.401953
0.529634
0.371249
0.511413
0.367912
0.374624
0.398542
0.296423
0.337762
0.0185979
-0.294981
-0.18092
0.937622
1.02572
0.644167
0.377555
0.13747
0.466238
0.493963
0.422135
0.440221
0.526439
0.484207
-0.0924034
0.00399191
-0.0653419
-0.011875
0.144819
0.0780387
0.0827504
0.0713813
0.0803217
)
;

boundaryField
{
    wall-4
    {
        type            calculated;
        value           nonuniform List<scalar> 
100
(
0.614348
0.274449
0.123753
0.639925
0.149122
-0.773778
0.546108
-0.144388
0.0342768
0.499628
-0.0326042
-0.0237193
-1.16952
0.615802
-0.735121
0.456829
0.0274297
-0.154804
0.451115
0.54515
-0.117951
0.067519
-0.041445
0.120191
0.465473
-0.688892
-0.859312
0.572933
-0.248032
0.49485
0.466569
-0.26341
-0.0941318
0.0136426
0.0535121
0.415258
0.486327
0.509691
0.117364
0.0740686
0.0196299
-0.057391
-2.17311
-0.584041
0.60771
0.611627
-0.844419
0.491077
0.438271
0.0207884
0.0353422
0.209244
0.465758
0.523055
0.248701
0.58121
-0.118142
-0.0244234
0.0490978
0.187859
0.454061
0.479824
0.473672
-0.547037
-0.890677
0.594213
-0.396719
-0.181099
0.463248
0.476046
-0.46089
-0.01937
-0.00489259
0.0215128
0.403121
0.426709
0.483268
0.490467
0.07989
-0.314985
0.618428
0.489024
0.496369
0.0372255
0.393495
0.120034
0.33666
0.612319
-0.0430605
0.0896182
0.446296
0.4832
0.480968
0.600008
-0.0687319
0.372347
0.0622369
-0.190934
-0.0501623
-0.0220485
)
;
    }
    velocity-inlet-5
    {
        type            calculated;
        value           nonuniform List<scalar> 8(0.614348 0.639925 0.648315 0.643173 0.651885 0.657724 0.631375 0.665884);
    }
    velocity-inlet-6
    {
        type            calculated;
        value           nonuniform List<scalar> 4(0.274449 0.149122 0.171776 0.249037);
    }
    pressure-outlet-7
    {
        type            calculated;
        value           uniform 0;
    }
    wall-8
    {
        type            calculated;
        value           nonuniform List<scalar> 
34
(
-0.00228068
0.0233249
0.0113065
0.228478
0.25214
0.0714141
0.0335017
0.712721
0.0313425
0.0380863
0.333133
0.513989
0.34483
0.193751
0.0937151
0.079109
-5.10479
0.0701156
0.0558207
0.726694
0.630676
-0.413968
0.434823
0.416215
0.622973
0.133314
-0.984925
0.0717164
0.745738
0.509514
0.432635
0.699491
0.106072
0.728666
)
;
    }
    frontAndBackPlanes
    {
        type            empty;
    }
}

