/*--------------------------------*- C++ -*----------------------------------*\
  =========                 |
  \\      /  F ield         | OpenFOAM: The Open Source CFD Toolbox
   \\    /   O peration     | Website:  https://openfoam.org
    \\  /    A nd           | Version:  6
     \\/     M anipulation  |
\*---------------------------------------------------------------------------*/
FoamFile
{
    version     2.0;
    format      ascii;
    class       volVectorField;
    location    "0";
    object      U;
}
// * * * * * * * * * * * * * * * * * * * * * * * * * * * * * * * * * * * * * //

dimensions      [0 1 -1 0 0 0 0];

internalField   nonuniform List<vector> 
10000
(
(-4.82469e-07 -4.9624e-07 0)
(5.71793e-05 -1.17393e-05 0)
(0.000183077 -2.19425e-05 0)
(0.000362193 -2.9996e-05 0)
(0.000583721 -3.59795e-05 0)
(0.000836499 -3.98922e-05 0)
(0.00110903 -4.16693e-05 0)
(0.00138975 -4.12996e-05 0)
(0.00166754 -3.89153e-05 0)
(0.00193227 -3.47993e-05 0)
(0.00217538 -2.93488e-05 0)
(0.00239014 -2.30193e-05 0)
(0.00257181 -1.62696e-05 0)
(0.0027176 -9.52077e-06 0)
(0.00282655 -3.13332e-06 0)
(0.00289929 2.59529e-06 0)
(0.00293781 7.41269e-06 0)
(0.0029452 1.12555e-05 0)
(0.00292554 1.46041e-05 0)
(0.00288126 1.75023e-05 0)
(0.00281575 1.9582e-05 0)
(0.00273258 2.09174e-05 0)
(0.00263515 2.16444e-05 0)
(0.00252658 2.18743e-05 0)
(0.00240971 2.17031e-05 0)
(0.00228706 2.12164e-05 0)
(0.00216085 2.04876e-05 0)
(0.00203301 1.95782e-05 0)
(0.00190518 1.85425e-05 0)
(0.00177873 1.74262e-05 0)
(0.00165481 1.62641e-05 0)
(0.00153433 1.50859e-05 0)
(0.00141803 1.39168e-05 0)
(0.00130646 1.27736e-05 0)
(0.00120002 1.16675e-05 0)
(0.001099 1.06087e-05 0)
(0.00100356 9.60489e-06 0)
(0.000913814 8.65823e-06 0)
(0.000829756 7.76872e-06 0)
(0.000751342 6.93732e-06 0)
(0.000678481 6.16438e-06 0)
(0.000611042 5.44722e-06 0)
(0.000548864 4.7822e-06 0)
(0.000491761 4.16722e-06 0)
(0.000439535 3.60077e-06 0)
(0.000391974 3.08007e-06 0)
(0.000348859 2.60133e-06 0)
(0.000309962 2.16149e-06 0)
(0.000275056 1.75872e-06 0)
(0.000243916 1.39124e-06 0)
(0.000216319 1.0564e-06 0)
(0.000192044 7.51155e-07 0)
(0.000170879 4.731e-07 0)
(0.000152617 2.20515e-07 0)
(0.000137065 -8.37814e-09 0)
(0.000124039 -2.15937e-07 0)
(0.000113369 -4.04879e-07 0)
(0.000104894 -5.77748e-07 0)
(9.84737e-05 -7.36734e-07 0)
(9.3982e-05 -8.84018e-07 0)
(9.13124e-05 -1.02229e-06 0)
(9.03767e-05 -1.15484e-06 0)
(9.11099e-05 -1.28223e-06 0)
(9.34567e-05 -1.40392e-06 0)
(9.73796e-05 -1.52249e-06 0)
(0.000102852 -1.64164e-06 0)
(0.000109872 -1.76516e-06 0)
(0.000118463 -1.89774e-06 0)
(0.000128686 -2.04479e-06 0)
(0.000140635 -2.21195e-06 0)
(0.000154445 -2.40526e-06 0)
(0.000170295 -2.63178e-06 0)
(0.000188414 -2.90001e-06 0)
(0.000209086 -3.22034e-06 0)
(0.00023266 -3.60548e-06 0)
(0.000259557 -4.07087e-06 0)
(0.000290281 -4.63496e-06 0)
(0.000325428 -5.31932e-06 0)
(0.000365688 -6.14858e-06 0)
(0.000411847 -7.14986e-06 0)
(0.000464771 -8.35111e-06 0)
(0.000525381 -9.77827e-06 0)
(0.000594601 -1.14507e-05 0)
(0.000673274 -1.33749e-05 0)
(0.000762038 -1.55355e-05 0)
(0.00086115 -1.78845e-05 0)
(0.000970259 -2.03289e-05 0)
(0.00108812 -2.27171e-05 0)
(0.00121225 -2.48254e-05 0)
(0.00133855 -2.63422e-05 0)
(0.00146086 -2.68445e-05 0)
(0.00157053 -2.57585e-05 0)
(0.00165578 -2.22706e-05 0)
(0.00170063 -1.53025e-05 0)
(0.00168515 -3.07229e-06 0)
(0.00158201 1.69276e-05 0)
(0.00136289 4.59582e-05 0)
(0.00100789 8.15798e-05 0)
(0.000542147 0.00011054 0)
(0.000103544 9.81449e-05 0)
(1.04584e-05 -5.8379e-05 0)
(0.000174196 -0.000182785 0)
(0.000484507 -0.000292997 0)
(0.000912506 -0.000383022 0)
(0.00143445 -0.000452418 0)
(0.00202644 -0.000500597 0)
(0.00266388 -0.000527211 0)
(0.00332249 -0.000532649 0)
(0.00397921 -0.000518309 0)
(0.00461319 -0.00048655 0)
(0.00520649 -0.000440455 0)
(0.00574456 -0.000383509 0)
(0.00621641 -0.000319295 0)
(0.0066146 -0.000251252 0)
(0.006935 -0.000182507 0)
(0.00717651 -0.000115801 0)
(0.00734074 -5.34648e-05 0)
(0.00743133 2.64018e-06 0)
(0.00745414 5.23029e-05 0)
(0.00741761 9.62706e-05 0)
(0.00732669 0.000134188 0)
(0.00718831 0.000165723 0)
(0.00700928 0.000191181 0)
(0.00679615 0.00021102 0)
(0.00655523 0.000225748 0)
(0.00629238 0.000235902 0)
(0.00601302 0.000242026 0)
(0.00572206 0.000244647 0)
(0.00542388 0.00024427 0)
(0.00512237 0.00024137 0)
(0.00482089 0.000236385 0)
(0.00452234 0.000229709 0)
(0.00422915 0.000221696 0)
(0.00394334 0.000212658 0)
(0.00366656 0.000202865 0)
(0.00340011 0.000192548 0)
(0.003145 0.000181905 0)
(0.00290196 0.000171099 0)
(0.0026715 0.000160266 0)
(0.00245393 0.000149518 0)
(0.00224939 0.000138945 0)
(0.0020579 0.000128617 0)
(0.00187933 0.00011859 0)
(0.00171347 0.00010891 0)
(0.00156003 9.96079e-05 0)
(0.00141865 9.07081e-05 0)
(0.00128891 8.22258e-05 0)
(0.00117037 7.41708e-05 0)
(0.00106254 6.6548e-05 0)
(0.000964937 5.93568e-05 0)
(0.000877036 5.25917e-05 0)
(0.000798325 4.62429e-05 0)
(0.00072829 4.0298e-05 0)
(0.000666429 3.47414e-05 0)
(0.000612253 2.95539e-05 0)
(0.000565293 2.47131e-05 0)
(0.000525107 2.01934e-05 0)
(0.000491278 1.59668e-05 0)
(0.000463427 1.20033e-05 0)
(0.000441214 8.2697e-06 0)
(0.000424341 4.72973e-06 0)
(0.000412554 1.34372e-06 0)
(0.000405647 -1.92727e-06 0)
(0.000403484 -5.11247e-06 0)
(0.000405964 -8.22865e-06 0)
(0.000413002 -1.13089e-05 0)
(0.00042456 -1.44084e-05 0)
(0.000440668 -1.75864e-05 0)
(0.000461435 -2.09095e-05 0)
(0.000487057 -2.44507e-05 0)
(0.000517822 -2.82896e-05 0)
(0.000554121 -3.25149e-05 0)
(0.000596457 -3.72265e-05 0)
(0.000645453 -4.25383e-05 0)
(0.000701868 -4.8579e-05 0)
(0.00076661 -5.54934e-05 0)
(0.000840745 -6.34407e-05 0)
(0.000925502 -7.25891e-05 0)
(0.00102227 -8.3107e-05 0)
(0.00113256 -9.51458e-05 0)
(0.00125797 -0.000108814 0)
(0.0014001 -0.00012414 0)
(0.00156038 -0.000141015 0)
(0.00173987 -0.000159131 0)
(0.00193898 -0.00017789 0)
(0.00215705 -0.000196312 0)
(0.00239186 -0.000212927 0)
(0.00263899 -0.000225682 0)
(0.00289119 -0.000231852 0)
(0.00313754 -0.000227969 0)
(0.00336271 -0.000209747 0)
(0.00354613 -0.00017198 0)
(0.00366113 -0.000108292 0)
(0.00367438 -1.09951e-05 0)
(0.00354484 0.000129602 0)
(0.00322579 0.000319273 0)
(0.00267968 0.00054773 0)
(0.00189726 0.000767642 0)
(0.000962839 0.000853923 0)
(0.000140595 0.000555521 0)
(1.74234e-05 -0.000174102 0)
(0.000256783 -0.000484642 0)
(0.000692297 -0.000749688 0)
(0.00128363 -0.000966632 0)
(0.00199851 -0.00113469 0)
(0.00280568 -0.00125269 0)
(0.00367351 -0.00132037 0)
(0.00457146 -0.00133921 0)
(0.00547104 -0.00131273 0)
(0.00634669 -0.00124625 0)
(0.00717643 -0.00114637 0)
(0.00794213 -0.0010204 0)
(0.00862965 -0.000875811 0)
(0.0092287 -0.000719791 0)
(0.00973262 -0.000558964 0)
(0.010138 -0.000399207 0)
(0.0104443 -0.000245572 0)
(0.0106537 -0.000102345 0)
(0.0107691 2.7173e-05 0)
(0.0107997 0.000142672 0)
(0.0107531 0.000244914 0)
(0.0106367 0.000333223 0)
(0.0104587 0.000407746 0)
(0.010227 0.000469085 0)
(0.00994942 0.000518043 0)
(0.00963353 0.00055556 0)
(0.00928648 0.000582659 0)
(0.00891498 0.000600409 0)
(0.00852524 0.000609878 0)
(0.00812291 0.000612117 0)
(0.0077131 0.00060813 0)
(0.00730035 0.000598867 0)
(0.00688864 0.000585204 0)
(0.00648146 0.000567941 0)
(0.00608176 0.000547801 0)
(0.00569204 0.000525423 0)
(0.00531437 0.000501372 0)
(0.00495042 0.000476139 0)
(0.00460152 0.000450146 0)
(0.00426865 0.000423754 0)
(0.00395253 0.000397266 0)
(0.00365364 0.00037094 0)
(0.00337224 0.000344987 0)
(0.00310838 0.000319582 0)
(0.00286197 0.000294865 0)
(0.00263278 0.00027095 0)
(0.00242047 0.000247925 0)
(0.0022246 0.000225855 0)
(0.00204465 0.000204787 0)
(0.00188004 0.000184751 0)
(0.00173015 0.000165759 0)
(0.00159434 0.000147811 0)
(0.00147193 0.000130894 0)
(0.00136224 0.000114982 0)
(0.0012646 0.000100039 0)
(0.00117837 8.60165e-05 0)
(0.0011029 7.28591e-05 0)
(0.00103759 6.05015e-05 0)
(0.000981883 4.88701e-05 0)
(0.000935268 3.7883e-05 0)
(0.000897286 2.74496e-05 0)
(0.000867537 1.74715e-05 0)
(0.000845691 7.84238e-06 0)
(0.00083148 -1.54235e-06 0)
(0.000824749 -1.07555e-05 0)
(0.000825435 -1.98468e-05 0)
(0.000833421 -2.89235e-05 0)
(0.000848693 -3.81476e-05 0)
(0.000871342 -4.76869e-05 0)
(0.000901573 -5.77237e-05 0)
(0.000939721 -6.84551e-05 0)
(0.000986248 -8.00975e-05 0)
(0.00104176 -9.28898e-05 0)
(0.00110701 -0.000107097 0)
(0.0011829 -0.00012301 0)
(0.00127054 -0.000140948 0)
(0.00137115 -0.000161243 0)
(0.00148617 -0.000184232 0)
(0.00161714 -0.000210225 0)
(0.0017657 -0.000239458 0)
(0.00193351 -0.000272031 0)
(0.00212206 -0.000307809 0)
(0.00233254 -0.000346301 0)
(0.00256549 -0.000386501 0)
(0.00282047 -0.000426694 0)
(0.00309548 -0.00046425 0)
(0.00338642 -0.000495397 0)
(0.00368628 -0.00051502 0)
(0.0039843 -0.000516485 0)
(0.00426508 -0.000491536 0)
(0.00450763 -0.000430224 0)
(0.00468455 -0.000320885 0)
(0.00476125 -0.000150058 0)
(0.00469628 9.79354e-05 0)
(0.00444002 0.000437134 0)
(0.00394811 0.000866829 0)
(0.0031932 0.00134939 0)
(0.002191 0.0017696 0)
(0.00106769 0.00186589 0)
(0.000136057 0.00114418 0)
(2.02129e-05 -0.000322646 0)
(0.000304032 -0.000865809 0)
(0.000817493 -0.00131966 0)
(0.00151077 -0.00168919 0)
(0.00234509 -0.00197498 0)
(0.00328408 -0.00217632 0)
(0.00429193 -0.00229392 0)
(0.00533486 -0.00233124 0)
(0.00638199 -0.00229469 0)
(0.00740611 -0.00219313 0)
(0.00838403 -0.00203711 0)
(0.00929671 -0.00183795 0)
(0.0101292 -0.00160707 0)
(0.0108702 -0.00135538 0)
(0.0115122 -0.00109292 0)
(0.0120504 -0.000828567 0)
(0.0124828 -0.000570007 0)
(0.0128096 -0.000323643 0)
(0.0130335 -9.51534e-05 0)
(0.0131561 0.000111748 0)
(0.0131885 0.000296459 0)
(0.0131369 0.000459358 0)
(0.0130095 0.000600252 0)
(0.0128146 0.000719725 0)
(0.0125601 0.000818721 0)
(0.012254 0.000898433 0)
(0.0119039 0.000960233 0)
(0.0115173 0.00100561 0)
(0.011101 0.00103613 0)
(0.0106618 0.00105336 0)
(0.0102056 0.00105886 0)
(0.00973794 0.00105412 0)
(0.00926397 0.00104058 0)
(0.00878818 0.00101958 0)
(0.00831462 0.000992353 0)
(0.00784681 0.000960033 0)
(0.00738783 0.000923643 0)
(0.0069403 0.000884094 0)
(0.00650642 0.000842197 0)
(0.006088 0.000798664 0)
(0.0056865 0.000754114 0)
(0.00530305 0.000709083 0)
(0.0049385 0.000664033 0)
(0.00459341 0.000619353 0)
(0.00426812 0.000575374 0)
(0.00396276 0.000532372 0)
(0.00367729 0.000490571 0)
(0.00341148 0.000450154 0)
(0.00316499 0.00041126 0)
(0.00293737 0.000373993 0)
(0.00272808 0.000338424 0)
(0.0025365 0.000304595 0)
(0.00236195 0.000272516 0)
(0.00220372 0.000242173 0)
(0.00206109 0.000213527 0)
(0.00193334 0.000186517 0)
(0.00181972 0.000161063 0)
(0.00171955 0.000137062 0)
(0.00163215 0.000114399 0)
(0.00155689 9.2937e-05 0)
(0.00149321 7.25263e-05 0)
(0.00144059 5.30008e-05 0)
(0.00139859 3.41802e-05 0)
(0.00136685 1.58695e-05 0)
(0.00134507 -2.12579e-06 0)
(0.00133315 -1.99265e-05 0)
(0.00133109 -3.76333e-05 0)
(0.00133874 -5.54741e-05 0)
(0.00135613 -7.37597e-05 0)
(0.00138339 -9.28039e-05 0)
(0.00142081 -0.00011294 0)
(0.00146881 -0.000134529 0)
(0.00152795 -0.000157962 0)
(0.00159895 -0.000183662 0)
(0.00168268 -0.000212086 0)
(0.00178015 -0.000243717 0)
(0.00189253 -0.000279045 0)
(0.0020211 -0.00031854 0)
(0.00216724 -0.000362597 0)
(0.00233234 -0.000411458 0)
(0.00251769 -0.000465101 0)
(0.00272435 -0.000523085 0)
(0.00295289 -0.000584344 0)
(0.00320311 -0.000646937 0)
(0.0034736 -0.000707743 0)
(0.00376121 -0.000762123 0)
(0.00406042 -0.000803579 0)
(0.00436251 -0.000823425 0)
(0.0046547 -0.000810539 0)
(0.00491916 -0.000751219 0)
(0.00513213 -0.000629187 0)
(0.00526313 -0.000425775 0)
(0.00527469 -0.000120229 0)
(0.00512228 0.000309648 0)
(0.00475952 0.000876129 0)
(0.00414988 0.00156422 0)
(0.00328095 0.00229981 0)
(0.00219074 0.00289078 0)
(0.00102808 0.00293785 0)
(0.000117156 0.00173002 0)
(2.06511e-05 -0.000487525 0)
(0.000327804 -0.00129199 0)
(0.000887068 -0.00195677 0)
(0.00164207 -0.00249481 0)
(0.002549 -0.00290927 0)
(0.0035673 -0.00320098 0)
(0.00465798 -0.00337269 0)
(0.00578511 -0.00343079 0)
(0.00691662 -0.0033854 0)
(0.00802486 -0.00324953 0)
(0.00908676 -0.00303802 0)
(0.0100837 -0.0027664 0)
(0.0110014 -0.00245 0)
(0.011829 -0.00210329 0)
(0.0125593 -0.00173942 0)
(0.0131876 -0.00137 0)
(0.0137116 -0.00100498 0)
(0.014131 -0.000652674 0)
(0.0144471 -0.000319902 0)
(0.0146619 -1.29397e-05 0)
(0.0147786 0.000264575 0)
(0.0148058 0.000512272 0)
(0.0147502 0.000730086 0)
(0.0146195 0.000918565 0)
(0.0144212 0.00107869 0)
(0.0141627 0.00121176 0)
(0.0138514 0.00131937 0)
(0.0134945 0.00140326 0)
(0.0130988 0.00146535 0)
(0.012671 0.00150759 0)
(0.0122174 0.00153198 0)
(0.0117439 0.00154046 0)
(0.0112559 0.00153496 0)
(0.0107586 0.00151729 0)
(0.0102565 0.00148917 0)
(0.0097539 0.00145221 0)
(0.00925451 0.00140789 0)
(0.0087617 0.00135756 0)
(0.0082784 0.00130246 0)
(0.00780717 0.00124368 0)
(0.00735016 0.00118222 0)
(0.00690919 0.00111895 0)
(0.00648574 0.00105464 0)
(0.00608099 0.00098997 0)
(0.00569582 0.00092552 0)
(0.00533088 0.000861794 0)
(0.00498654 0.00079922 0)
(0.00466299 0.000738153 0)
(0.00436024 0.000678886 0)
(0.0040781 0.000621653 0)
(0.00381627 0.000566628 0)
(0.00357433 0.000513938 0)
(0.00335175 0.000463656 0)
(0.00314794 0.000415814 0)
(0.00296224 0.000370401 0)
(0.00279396 0.000327365 0)
(0.0026424 0.00028662 0)
(0.00250684 0.000248048 0)
(0.0023866 0.000211497 0)
(0.00228101 0.000176789 0)
(0.00218943 0.00014372 0)
(0.00211129 0.000112059 0)
(0.00204608 8.15543e-05 0)
(0.00199334 5.19288e-05 0)
(0.00195273 2.28813e-05 0)
(0.00192394 -5.88813e-06 0)
(0.00190698 -3.45309e-05 0)
(0.00190186 -6.32272e-05 0)
(0.00190841 -9.23758e-05 0)
(0.00192669 -0.000122449 0)
(0.00195685 -0.000153918 0)
(0.00199918 -0.000187284 0)
(0.00205412 -0.00022308 0)
(0.0021222 -0.000261875 0)
(0.00220413 -0.000304264 0)
(0.0023007 -0.000350862 0)
(0.00241282 -0.000402271 0)
(0.00254145 -0.000459035 0)
(0.0026876 -0.000521566 0)
(0.00285221 -0.000590029 0)
(0.00303606 -0.000664187 0)
(0.00323961 -0.000743189 0)
(0.00346277 -0.000825287 0)
(0.00370459 -0.000907489 0)
(0.00396288 -0.000985155 0)
(0.00423364 -0.00105153 0)
(0.00451049 -0.00109727 0)
(0.00478382 -0.00110999 0)
(0.00503995 -0.00107398 0)
(0.00526019 -0.000969973 0)
(0.00541996 -0.000775362 0)
(0.00548828 -0.000464707 0)
(0.0054277 -1.05449e-05 0)
(0.00519492 0.000611883 0)
(0.00475141 0.00140835 0)
(0.00406981 0.00234504 0)
(0.00315179 0.00330651 0)
(0.00205212 0.00402321 0)
(0.000928746 0.00397016 0)
(9.48743e-05 0.0022633 0)
(2.01922e-05 -0.000659659 0)
(0.000339299 -0.00174306 0)
(0.000925716 -0.0026339 0)
(0.00171876 -0.0033512 0)
(0.00267052 -0.00390084 0)
(0.00373663 -0.004286 0)
(0.0048752 -0.00451246 0)
(0.00604849 -0.00459058 0)
(0.00722359 -0.00453507 0)
(0.00837287 -0.00436381 0)
(0.00947393 -0.00409643 0)
(0.0105093 -0.00375292 0)
(0.0114657 -0.00335263 0)
(0.012334 -0.00291351 0)
(0.013108 -0.00245165 0)
(0.0137841 -0.00198108 0)
(0.0143608 -0.00151368 0)
(0.0148382 -0.00105929 0)
(0.0152174 -0.00062588 0)
(0.0155009 -0.00022018 0)
(0.0156894 0.000152177 0)
(0.0157891 0.000487579 0)
(0.0158054 0.000786165 0)
(0.015745 0.0010484 0)
(0.0156144 0.0012752 0)
(0.0154203 0.00146791 0)
(0.0151691 0.0016282 0)
(0.0148671 0.00175797 0)
(0.0145208 0.00185933 0)
(0.0141362 0.0019345 0)
(0.0137192 0.00198576 0)
(0.0132755 0.00201541 0)
(0.0128103 0.0020257 0)
(0.0123287 0.00201882 0)
(0.0118356 0.00199689 0)
(0.0113352 0.00196189 0)
(0.0108317 0.00191571 0)
(0.0103288 0.00186008 0)
(0.0098298 0.00179663 0)
(0.00933782 0.00172682 0)
(0.00885551 0.00165202 0)
(0.00838526 0.00157344 0)
(0.0079291 0.00149218 0)
(0.00748876 0.00140922 0)
(0.00706567 0.00132545 0)
(0.006661 0.00124163 0)
(0.00627563 0.00115843 0)
(0.00591022 0.00107644 0)
(0.00556518 0.000996141 0)
(0.00524076 0.000917947 0)
(0.00493698 0.000842186 0)
(0.00465374 0.000769111 0)
(0.00439077 0.000698906 0)
(0.00414772 0.000631686 0)
(0.00392411 0.000567505 0)
(0.00371942 0.000506354 0)
(0.00353307 0.000448175 0)
(0.00336441 0.000392853 0)
(0.00321284 0.000340232 0)
(0.00307771 0.000290108 0)
(0.0029584 0.00024224 0)
(0.00285434 0.00019635 0)
(0.00276498 0.000152126 0)
(0.00268983 0.00010922 0)
(0.00262846 6.72542e-05 0)
(0.00258057 2.58052e-05 0)
(0.00254575 -1.55283e-05 0)
(0.00252432 -5.68927e-05 0)
(0.00251612 -9.85968e-05 0)
(0.002521 -0.000141239 0)
(0.00253897 -0.000185427 0)
(0.00257016 -0.000231788 0)
(0.00261479 -0.000280975 0)
(0.00267319 -0.000333671 0)
(0.00274579 -0.000390576 0)
(0.00283309 -0.000452392 0)
(0.00293563 -0.000519783 0)
(0.003054 -0.000593313 0)
(0.00318874 -0.000673347 0)
(0.00334029 -0.000759912 0)
(0.00350888 -0.000852499 0)
(0.00369437 -0.000949795 0)
(0.00389607 -0.00104933 0)
(0.00411242 -0.00114707 0)
(0.00434064 -0.00123684 0)
(0.00457625 -0.00130982 0)
(0.00481244 -0.00135389 0)
(0.00503933 -0.00135307 0)
(0.00524316 -0.00128717 0)
(0.00540535 -0.00113158 0)
(0.00550176 -0.000857674 0)
(0.00550258 -0.000433834 0)
(0.00537172 0.000172829 0)
(0.00507129 0.000985481 0)
(0.00456986 0.0020011 0)
(0.00384946 0.00316418 0)
(0.0029234 0.00431606 0)
(0.00185801 0.00511337 0)
(0.000811579 0.00492209 0)
(7.39663e-05 0.00272939 0)
(1.97155e-05 -0.000835238 0)
(0.000346279 -0.00220887 0)
(0.000950815 -0.00333619 0)
(0.0017693 -0.00423975 0)
(0.00275013 -0.0049278 0)
(0.00384531 -0.00540637 0)
(0.00501016 -0.00568525 0)
(0.00620525 -0.00577982 0)
(0.00739707 -0.00571033 0)
(0.00855824 -0.00550032 0)
(0.00966726 -0.00517474 0)
(0.010708 -0.00475844 0)
(0.011669 -0.00427493 0)
(0.0125427 -0.00374566 0)
(0.0133247 -0.00318956 0)
(0.0140129 -0.00262284 0)
(0.0146073 -0.00205907 0)
(0.0151089 -0.0015093 0)
(0.0155198 -0.000982353 0)
(0.0158426 -0.000485166 0)
(0.01608 -2.38644e-05 0)
(0.0162335 0.000396485 0)
(0.0163084 0.00077408 0)
(0.0163101 0.00110937 0)
(0.0162439 0.00140325 0)
(0.0161153 0.00165702 0)
(0.0159297 0.0018724 0)
(0.0156925 0.00205136 0)
(0.0154091 0.00219612 0)
(0.0150845 0.00230905 0)
(0.014724 0.0023926 0)
(0.0143325 0.00244927 0)
(0.0139147 0.00248154 0)
(0.0134753 0.00249185 0)
(0.0130187 0.00248257 0)
(0.0125491 0.00245598 0)
(0.0120704 0.00241423 0)
(0.0115865 0.00235938 0)
(0.0111007 0.00229334 0)
(0.0106162 0.0022179 0)
(0.0101362 0.00213471 0)
(0.00966317 0.00204531 0)
(0.00919962 0.00195111 0)
(0.00874766 0.00185336 0)
(0.00830917 0.00175325 0)
(0.00788576 0.00165182 0)
(0.00747878 0.00154999 0)
(0.00708933 0.00144859 0)
(0.00671828 0.00134834 0)
(0.00636626 0.00124985 0)
(0.00603373 0.00115365 0)
(0.00572094 0.00106015 0)
(0.00542797 0.000969675 0)
(0.00515478 0.000882474 0)
(0.00490116 0.000798696 0)
(0.00466682 0.000718416 0)
(0.00445139 0.000641633 0)
(0.00425442 0.000568274 0)
(0.0040754 0.000498204 0)
(0.00391383 0.000431225 0)
(0.00376915 0.000367085 0)
(0.00364085 0.000305482 0)
(0.0035284 0.000246066 0)
(0.00343131 0.00018844 0)
(0.00334914 0.000132169 0)
(0.00328149 7.67706e-05 0)
(0.00322808 2.16873e-05 0)
(0.00318842 -3.35389e-05 0)
(0.00316314 -8.90468e-05 0)
(0.0031518 -0.000145302 0)
(0.00315426 -0.000203076 0)
(0.00317047 -0.000263098 0)
(0.00320042 -0.000326109 0)
(0.00324421 -0.000392871 0)
(0.00330196 -0.000464151 0)
(0.00337384 -0.000540694 0)
(0.00346004 -0.00062318 0)
(0.00356071 -0.000712143 0)
(0.00367596 -0.000807857 0)
(0.00380572 -0.000910173 0)
(0.00394971 -0.00101828 0)
(0.00410728 -0.0011304 0)
(0.00427722 -0.00124336 0)
(0.00445753 -0.00135211 0)
(0.00464505 -0.00144906 0)
(0.00483507 -0.00152344 0)
(0.00502069 -0.0015605 0)
(0.00519219 -0.00154092 0)
(0.0053362 -0.00144027 0)
(0.00543493 -0.00122895 0)
(0.00546545 -0.000872883 0)
(0.00539994 -0.000335041 0)
(0.00520493 0.000420665 0)
(0.00484913 0.00141372 0)
(0.00430745 0.00263058 0)
(0.00357056 0.00399233 0)
(0.00266087 0.0052974 0)
(0.00165196 0.00613441 0)
(0.000696965 0.00577848 0)
(5.63554e-05 0.00312751 0)
(1.95977e-05 -0.0010136 0)
(0.000352948 -0.00268578 0)
(0.000972158 -0.0040568 0)
(0.00180979 -0.00515064 0)
(0.00281054 -0.00597745 0)
(0.00392285 -0.00654664 0)
(0.00509947 -0.00687301 0)
(0.00629952 -0.00697801 0)
(0.00748909 -0.00688846 0)
(0.00864129 -0.0066343 0)
(0.0097358 -0.0062464 0)
(0.0107581 -0.00575481 0)
(0.0116985 -0.00518741 0)
(0.0125514 -0.00456919 0)
(0.0133143 -0.00392183 0)
(0.0139871 -0.00326363 0)
(0.0145711 -0.00260961 0)
(0.015069 -0.00197178 0)
(0.015484 -0.00135952 0)
(0.0158195 -0.000779993 0)
(0.016079 -0.00023881 0)
(0.0162649 0.000258973 0)
(0.0163796 0.000709469 0)
(0.0164281 0.0011128 0)
(0.0164146 0.00146988 0)
(0.0163434 0.001782 0)
(0.016219 0.00205086 0)
(0.0160455 0.00227852 0)
(0.0158273 0.00246723 0)
(0.0155684 0.00261944 0)
(0.015273 0.0027377 0)
(0.0149451 0.0028246 0)
(0.0145886 0.00288275 0)
(0.0142074 0.00291472 0)
(0.0138053 0.00292302 0)
(0.0133859 0.00291009 0)
(0.0129529 0.00287827 0)
(0.0125096 0.00282979 0)
(0.0120594 0.00276678 0)
(0.0116053 0.00269123 0)
(0.0111503 0.00260504 0)
(0.0106972 0.00250997 0)
(0.0102485 0.00240766 0)
(0.00980664 0.00229964 0)
(0.00937371 0.00218732 0)
(0.00895164 0.002072 0)
(0.00854212 0.00195486 0)
(0.00814661 0.00183694 0)
(0.00776636 0.00171921 0)
(0.0074024 0.00160249 0)
(0.00705556 0.00148751 0)
(0.00672645 0.00137487 0)
(0.00641554 0.00126508 0)
(0.00612309 0.00115851 0)
(0.00584923 0.00105547 0)
(0.00559395 0.000956131 0)
(0.00535714 0.000860592 0)
(0.00513857 0.000768852 0)
(0.00493795 0.00068083 0)
(0.00475493 0.000596365 0)
(0.00458909 0.000515226 0)
(0.00444002 0.000437115 0)
(0.00430728 0.000361673 0)
(0.00419042 0.000288483 0)
(0.00408902 0.000217078 0)
(0.00400266 0.000146934 0)
(0.00393098 7.74728e-05 0)
(0.00387363 7.99986e-06 0)
(0.00383029 -6.18779e-05 0)
(0.00380147 -0.000132348 0)
(0.00378663 -0.000204082 0)
(0.00378557 -0.000277934 0)
(0.00379811 -0.000354702 0)
(0.00382407 -0.000435189 0)
(0.00386331 -0.00052019 0)
(0.00391567 -0.000610456 0)
(0.003981 -0.000706643 0)
(0.00405906 -0.000809218 0)
(0.00414954 -0.000918336 0)
(0.00425193 -0.00103365 0)
(0.00436553 -0.00115405 0)
(0.00448925 -0.0012773 0)
(0.00462151 -0.00139958 0)
(0.00475996 -0.00151492 0)
(0.00490128 -0.00161442 0)
(0.00504067 -0.00168552 0)
(0.00517139 -0.00171111 0)
(0.00528412 -0.00166874 0)
(0.00536623 -0.00153012 0)
(0.00540104 -0.00126113 0)
(0.00536735 -0.000822832 0)
(0.00523947 -0.000173664 0)
(0.00498764 0.000723652 0)
(0.00458696 0.00188326 0)
(0.00401812 0.0032803 0)
(0.00327911 0.00481172 0)
(0.00239927 0.00623449 0)
(0.00145606 0.00707625 0)
(0.000594056 0.006539 0)
(4.24032e-05 0.003464 0)
(1.99244e-05 -0.00119546 0)
(0.000360951 -0.00317326 0)
(0.000993879 -0.00479285 0)
(0.0018472 -0.00607827 0)
(0.00286163 -0.00704144 0)
(0.00398221 -0.00769588 0)
(0.00515941 -0.00806247 0)
(0.00635124 -0.00816989 0)
(0.00752374 -0.00805245 0)
(0.00865083 -0.00774726 0)
(0.00971359 -0.00729165 0)
(0.0106993 -0.00672117 0)
(0.0116002 -0.00606825 0)
(0.0124128 -0.00536146 0)
(0.0131367 -0.00462516 0)
(0.0137735 -0.00387957 0)
(0.0143263 -0.00314098 0)
(0.0147993 -0.00242215 0)
(0.015197 -0.00173279 0)
(0.0155237 -0.00108005 0)
(0.0157836 -0.000469133 0)
(0.0159811 9.60566e-05 0)
(0.0161166 0.000610865 0)
(0.0161949 0.00107442 0)
(0.0162195 0.00148788 0)
(0.0161936 0.00185256 0)
(0.0161206 0.00217024 0)
(0.0160038 0.002443 0)
(0.0158463 0.00267319 0)
(0.0156512 0.00286328 0)
(0.0154217 0.00301588 0)
(0.0151605 0.00313362 0)
(0.0148709 0.00321915 0)
(0.0145556 0.00327507 0)
(0.0142178 0.00330396 0)
(0.0138602 0.0033083 0)
(0.013486 0.0032905 0)
(0.0130979 0.00325287 0)
(0.0126989 0.00319765 0)
(0.0122916 0.00312694 0)
(0.011879 0.00304277 0)
(0.0114635 0.00294706 0)
(0.0110477 0.00284162 0)
(0.0106339 0.00272814 0)
(0.0102244 0.00260824 0)
(0.0098213 0.00248341 0)
(0.00942639 0.00235502 0)
(0.00904141 0.00222435 0)
(0.00866789 0.00209255 0)
(0.00830714 0.00196066 0)
(0.00796031 0.0018296 0)
(0.00762835 0.00170018 0)
(0.00731204 0.00157306 0)
(0.00701195 0.0014488 0)
(0.00672855 0.00132785 0)
(0.00646211 0.00121052 0)
(0.0062128 0.00109703 0)
(0.00598064 0.000987478 0)
(0.00576558 0.000881867 0)
(0.00556745 0.000780103 0)
(0.00538604 0.000682006 0)
(0.00522107 0.000587312 0)
(0.0050722 0.000495686 0)
(0.0049391 0.00040672 0)
(0.00482137 0.000319945 0)
(0.00471865 0.000234829 0)
(0.00463053 0.000150778 0)
(0.00455668 6.71152e-05 0)
(0.00449651 -1.69148e-05 0)
(0.00445025 -0.000101564 0)
(0.00441782 -0.000187169 0)
(0.0043987 -0.000274564 0)
(0.00439259 -0.000364586 0)
(0.00439909 -0.000458046 0)
(0.00441783 -0.000555732 0)
(0.00444837 -0.000658366 0)
(0.00449025 -0.000766548 0)
(0.0045429 -0.000880657 0)
(0.00460566 -0.00100071 0)
(0.00467767 -0.00112615 0)
(0.00475786 -0.00125558 0)
(0.00484482 -0.00138636 0)
(0.00493669 -0.00151406 0)
(0.00503093 -0.00163188 0)
(0.00512411 -0.00172978 0)
(0.00521152 -0.00179359 0)
(0.00528671 -0.00180404 0)
(0.00534088 -0.00173589 0)
(0.00536229 -0.00155735 0)
(0.00533553 -0.00123027 0)
(0.00524142 -0.000711412 0)
(0.00505608 4.45963e-05 0)
(0.00475526 0.00107314 0)
(0.00431843 0.00238372 0)
(0.00373192 0.00393912 0)
(0.00299977 0.0056121 0)
(0.00215635 0.00712046 0)
(0.0012804 0.00793831 0)
(0.000506057 0.00721066 0)
(3.17963e-05 0.00374766 0)
(2.06424e-05 -0.00138184 0)
(0.000370422 -0.00367179 0)
(0.00101661 -0.00554282 0)
(0.00188279 -0.00701854 0)
(0.00290545 -0.00811305 0)
(0.00402643 -0.00884499 0)
(0.00519428 -0.00924254 0)
(0.00636637 -0.00934275 0)
(0.00750911 -0.00918835 0)
(0.00859758 -0.00882432 0)
(0.00961451 -0.0082949 0)
(0.0105491 -0.00764142 0)
(0.011396 -0.00690095 0)
(0.0121536 -0.0061056 0)
(0.0128234 -0.00528235 0)
(0.0134092 -0.00445315 0)
(0.0139157 -0.00363539 0)
(0.0143485 -0.00284233 0)
(0.0147133 -0.00208377 0)
(0.0150154 -0.00136665 0)
(0.0152599 -0.000695711 0)
(0.0154511 -7.39113e-05 0)
(0.0155925 0.000495289 0)
(0.0156856 0.00100988 0)
(0.0157343 0.00147123 0)
(0.0157411 0.00188085 0)
(0.0157085 0.00224062 0)
(0.0156388 0.00255277 0)
(0.0155344 0.00281972 0)
(0.0153974 0.00304404 0)
(0.0152297 0.00322837 0)
(0.0150333 0.00337536 0)
(0.0148103 0.00348763 0)
(0.0145627 0.00356779 0)
(0.0142926 0.00361837 0)
(0.0140021 0.00364184 0)
(0.0136935 0.00364057 0)
(0.0133689 0.00361689 0)
(0.0130306 0.00357301 0)
(0.012681 0.00351109 0)
(0.0123224 0.00343317 0)
(0.0119571 0.00334125 0)
(0.0115874 0.00323721 0)
(0.0112155 0.00312287 0)
(0.0108435 0.00299994 0)
(0.0104735 0.00287006 0)
(0.0101075 0.00273475 0)
(0.00974718 0.00259545 0)
(0.00939427 0.00245349 0)
(0.00905029 0.00231008 0)
(0.00871658 0.00216631 0)
(0.00839435 0.00202317 0)
(0.00808463 0.0018815 0)
(0.00778828 0.00174202 0)
(0.00750601 0.00160533 0)
(0.00723838 0.00147191 0)
(0.00698582 0.00134209 0)
(0.00674861 0.0012161 0)
(0.00652691 0.00109404 0)
(0.0063208 0.000975923 0)
(0.00613023 0.000861634 0)
(0.00595511 0.000750977 0)
(0.00579523 0.000643667 0)
(0.00565037 0.000539337 0)
(0.00552024 0.000437547 0)
(0.00540451 0.000337789 0)
(0.00530282 0.000239488 0)
(0.00521477 0.000142001 0)
(0.00514002 4.45414e-05 0)
(0.00507774 -5.35843e-05 0)
(0.00502865 -0.000152493 0)
(0.004992 -0.000252695 0)
(0.00496735 -0.000355071 0)
(0.00495418 -0.000460407 0)
(0.00495191 -0.000569446 0)
(0.00495989 -0.000682854 0)
(0.0049774 -0.000801149 0)
(0.00500363 -0.000924601 0)
(0.00503763 -0.00105308 0)
(0.00507826 -0.00118583 0)
(0.0051242 -0.00132118 0)
(0.0051738 -0.00145611 0)
(0.00522498 -0.00158568 0)
(0.00527513 -0.00170234 0)
(0.0053208 -0.00179502 0)
(0.00535743 -0.00184815 0)
(0.00537892 -0.00184053 0)
(0.00537707 -0.00174442 0)
(0.00534107 -0.00152493 0)
(0.00525685 -0.00114032 0)
(0.00510716 -0.000543686 0)
(0.00487053 0.000312742 0)
(0.00452772 0.00146141 0)
(0.00406187 0.00290713 0)
(0.00346449 0.00459967 0)
(0.00274452 0.00638811 0)
(0.00193979 0.00795393 0)
(0.00112837 0.00872506 0)
(0.000433085 0.00780366 0)
(2.39697e-05 0.00398765 0)
(2.16506e-05 -0.00157356 0)
(0.000380752 -0.00418157 0)
(0.00103919 -0.00630499 0)
(0.00191492 -0.00796728 0)
(0.00294007 -0.00918568 0)
(0.00405356 -0.00998527 0)
(0.00520251 -0.0104029 0)
(0.0063441 -0.0104851 0)
(0.0074456 -0.0102839 0)
(0.00848355 -0.00985278 0)
(0.00944265 -0.00924324 0)
(0.0103143 -0.00850259 0)
(0.0110953 -0.00767257 0)
(0.0117863 -0.00678879 0)
(0.012391 -0.00588067 0)
(0.0129148 -0.00497173 0)
(0.0133642 -0.00408018 0)
(0.0137461 -0.00321957 0)
(0.0140673 -0.00239957 0)
(0.0143341 -0.00162666 0)
(0.0145523 -0.000904867 0)
(0.0147263 -0.000236411 0)
(0.0148612 0.000376527 0)
(0.0149573 0.000932409 0)
(0.0150187 0.00143248 0)
(0.0150472 0.00187846 0)
(0.0150446 0.00227249 0)
(0.0150128 0.00261702 0)
(0.014953 0.00291465 0)
(0.0148666 0.00316806 0)
(0.0147546 0.00337994 0)
(0.0146182 0.00355296 0)
(0.0144584 0.00368972 0)
(0.0142763 0.00379276 0)
(0.0140732 0.00386454 0)
(0.0138504 0.00390743 0)
(0.0136094 0.00392375 0)
(0.0133516 0.00391571 0)
(0.0130788 0.00388547 0)
(0.0127926 0.0038351 0)
(0.012495 0.00376665 0)
(0.0121877 0.00368207 0)
(0.0118728 0.00358325 0)
(0.0115522 0.00347204 0)
(0.0112278 0.00335021 0)
(0.0109015 0.00321945 0)
(0.0105752 0.00308139 0)
(0.0102507 0.00293758 0)
(0.00992961 0.00278945 0)
(0.00961362 0.00263836 0)
(0.00930416 0.00248556 0)
(0.00900259 0.00233215 0)
(0.00871011 0.00217916 0)
(0.00842777 0.00202745 0)
(0.00815652 0.00187777 0)
(0.00789712 0.00173073 0)
(0.00765022 0.00158683 0)
(0.00741633 0.00144641 0)
(0.00719584 0.0013097 0)
(0.006989 0.00117681 0)
(0.00679597 0.00104773 0)
(0.00661683 0.000922343 0)
(0.00645152 0.000800447 0)
(0.00629996 0.000681737 0)
(0.00616194 0.000565832 0)
(0.00603723 0.000452273 0)
(0.00592552 0.000340534 0)
(0.00582645 0.000230017 0)
(0.00573961 0.000120044 0)
(0.00566445 9.75056e-06 0)
(0.00560041 -0.000101301 0)
(0.00554784 -0.00021324 0)
(0.0055059 -0.000326743 0)
(0.00547402 -0.000442574 0)
(0.00545148 -0.000561411 0)
(0.00543748 -0.000683836 0)
(0.00543112 -0.000810268 0)
(0.00543138 -0.000940857 0)
(0.00543713 -0.00107532 0)
(0.00544703 -0.00121271 0)
(0.00545957 -0.0013511 0)
(0.00547294 -0.00148712 0)
(0.00548496 -0.00161539 0)
(0.00549297 -0.0017277 0)
(0.00549356 -0.00181209 0)
(0.00548237 -0.00185173 0)
(0.00545366 -0.00182374 0)
(0.00539987 -0.00169813 0)
(0.00531109 -0.00143729 0)
(0.00517462 -0.00099638 0)
(0.00497483 -0.000325447 0)
(0.00469324 0.000624164 0)
(0.00431469 0.00188199 0)
(0.00382584 0.00344741 0)
(0.00322258 0.00525714 0)
(0.0025178 0.00713747 0)
(0.00175152 0.00873667 0)