/*--------------------------------*- C++ -*----------------------------------*\
  =========                 |
  \\      /  F ield         | OpenFOAM: The Open Source CFD Toolbox
   \\    /   O peration     | Website:  https://openfoam.org
    \\  /    A nd           | Version:  6
     \\/     M anipulation  |
\*---------------------------------------------------------------------------*/
FoamFile
{
    version     2.0;
    format      ascii;
    class       volScalarField;
    location    "0";
    object      p;
}
// * * * * * * * * * * * * * * * * * * * * * * * * * * * * * * * * * * * * * //

dimensions      [0 2 -2 0 0 0 0];

internalField   nonuniform List<scalar> 
13046
(
0.85528
0.849506
0.884392
0.878667
0.882928
0.859245
0.851151
0.864553
0.88834
0.329906
0.282467
0.797885
0.838787
0.79361
0.865899
0.455316
0.799977
0.365594
0.894018
0.889693
0.874597
0.436315
0.801663
0.35496
0.864834
0.88308
0.886104
0.810664
0.796372
0.865401
0.864157
0.814689
0.874875
0.885384
0.895673
0.876502
0.888073
0.900918
0.889276
0.846777
0.868888
0.795921
0.888668
0.906588
0.89424
0.888185
0.890637
0.893962
0.840389
0.844688
0.882661
0.82177
0.830743
0.721115
0.834619
0.690062
0.833556
0.557669
0.695131
0.816831
0.737493
0.751327
0.843065
0.813196
0.510982
0.548866
0.721037
0.568855
0.813924
0.746289
0.591373
0.817756
0.516274
0.668247
0.814434
0.892576
0.901851
0.853441
0.813192
0.613882
0.503234
0.859286
0.875369
0.881172
0.808396
0.464446
0.499633
0.514542
0.809817
0.549015
0.792423
0.434512
0.536501
0.722362
0.691533
0.691494
0.667845
0.836342
0.835154
0.809846
0.525604
0.576829
0.887334
0.890113
0.888633
0.859998
0.739405
0.848327
0.837807
0.856882
0.75507
0.116834
0.790369
0.0729684
0.846558
0.817134
0.866667
0.684531
0.715782
0.625313
0.827705
0.6722
0.831915
0.285237
0.225714
0.795562
0.783731
0.720652
0.855326
0.842201
0.866644
0.794811
0.794073
0.47412
0.58961
0.636055
0.619864
0.8241
0.849578
0.800624
0.86682
0.793077
0.847167
0.861597
0.829121
0.839355
0.754254
0.857509
0.76502
0.865819
0.721732
0.717516
0.836773
0.885797
0.820146
0.868695
0.793982
0.676769
0.776459
0.665372
0.829059
0.827031
0.7982
0.814274
0.847669
0.321838
0.796556
0.305902
0.185746
0.792723
0.125065
0.61653
0.584146
0.821969
0.833233
0.727766
0.854289
0.806553
0.850552
0.827966
0.798154
0.369135
0.355664
0.838489
0.753461
0.849478
0.88051
0.801205
0.857683
0.8113
0.850653
0.863132
0.781421
0.865435
0.796811
0.753465
0.854755
0.48138
0.807284
0.486861
0.804634
0.524645
0.602796
0.436116
0.52054
0.795468
0.803135
0.663982
0.811553
0.822108
0.62692
0.806071
0.499128
0.467008
0.410998
0.793945
0.88091
0.897151
0.887044
0.820785
0.806264
0.864439
0.802405
0.508028
0.614816
0.801769
0.796311
0.869145
0.791449
0.208955
0.211524
0.812966
0.659318
0.791603
0.487952
0.566068
0.802916
0.7288
0.800671
0.845364
0.767973
0.72933
0.854073
0.681722
0.548043
0.795529
0.632262
0.750677
0.81471
0.790411
0.200022
0.169871
0.847074
0.858578
0.739143
0.151846
0.790768
0.00178916
0.886975
0.87634
0.881937
0.7362
0.751271
0.793702
0.810559
0.853915
0.84217
0.80415
0.57843
0.459773
0.791964
0.747097
0.850936
0.62277
0.714074
0.814205
0.653554
0.623409
0.826526
0.895289
0.886589
0.907641
0.697713
0.776379
0.831991
0.791091
0.718314
0.848827
0.804488
0.796481
0.846596
0.847114
0.715186
0.686364
0.750986
0.828284
0.611438
0.82163
0.600966
0.862982
0.858807
0.773475
0.825616
0.657119
0.779271
0.71708
0.641277
0.827403
0.831084
0.825801
0.716949
0.685369
0.672601
0.616139
0.823105
0.603728
0.824748
0.800724
0.402751
0.392577
0.73459
0.697387
0.837753
-0.0896134
0.78635
-0.00561365
0.856296
0.869699
0.857156
0.761787
0.772116
0.848102
0.812472
0.529742
0.535018
0.821879
0.659756
0.827118
0.651076
0.536043
0.798069
0.832504
0.869473
0.734173
0.757098
0.847359
0.818982
0.869839
0.505281
0.804403
0.412928
0.813272
0.636264
0.81087
0.71018
0.735669
0.840451
0.78515
0.832692
0.861345
0.749857
0.829086
0.84637
0.865625
0.847108
0.883736
0.814488
0.664379
0.788513
0.459906
0.500576
0.804809
0.661124
0.534864
0.804826
0.759855
0.817418
0.634173
0.645665
0.672906
0.581404
0.543352
0.810905
0.817271
0.789232
-0.0536343
0.0451659
0.193046
0.791039
0.0426731
0.713145
0.778823
0.832435
0.804585
0.455653
0.440666
0.736899
0.726543
0.642067
0.621702
0.830209
0.824415
0.786644
0.399165
0.306739
0.118355
0.789146
-0.0624548
0.872003
0.896301
0.897293
0.104498
0.0117242
0.791213
0.825764
0.728552
0.845611
0.375594
0.396041
0.797171
-0.0660362
0.787581
-0.123872
0.856161
0.869385
0.815309
0.854946
0.894926
0.886065
0.296154
0.795217
0.214108
0.843896
0.882391
0.881395
0.880441
0.899415
0.901187
0.818873
0.625626
0.793493
0.841205
0.894765
0.884335
0.864402
0.856677
0.868649
0.777363
0.645665
0.818532
0.800115
0.800914
0.350106
0.343989
0.404017
0.390934
0.408103
0.471773
0.801074
0.8246
0.750578
0.594801
0.836343
0.848144
0.761726
0.614605
0.738858
0.802345
0.0925976
0.783373
-0.0205196
0.792921
0.415169
0.505121
0.220503
0.793176
0.180536
0.790033
-0.120682
-0.150276
-0.188519
0.791296
-0.0829675
0.720607
0.659162
0.823125
0.28427
0.783263
0.168076
0.604156
0.613617
0.821629
0.391607
0.793176
0.247515
0.835487
0.870483
0.851299
0.439896
0.789005
0.350175
0.630742
0.804781
0.752163
0.702713
0.620133
0.818721
0.794726
-0.34912
-0.30341
-0.0387554
0.785859
-0.0413398
0.853348
0.879915
0.852109
0.383669
0.295656
0.792132
0.78515
0.253086
0.368259
0.457015
0.805237
0.441498
0.805913
0.475379
0.560932
0.793867
0.626919
0.822131
0.58611
0.698896
0.824457
0.802331
0.517213
0.377645
0.815666
0.800674
0.75141
0.729102
0.853416
0.8535
0.822692
0.755843
0.853843
0.755125
0.623127
0.832293
0.682431
0.574287
0.809166
0.449904
0.402517
0.797609
0.808279
0.566159
0.643914
-0.169789
0.790721
-0.0308392
0.869328
0.863979
0.879924
0.816618
0.885048
0.829585
0.792688
0.783961
0.837332
0.66037
0.835952
0.699699
-0.0287379
0.784027
-0.114716
0.407231
0.335338
0.794735
0.819913
0.827403
0.715165
0.708873
0.576369
0.80287
0.807663
0.495721
0.58793
0.0822597
0.0773816
0.789253
0.139824
0.107435
0.788591
0.735381
0.647808
0.834274
0.868818
0.853238
0.791482
0.420963
0.802574
0.386601
0.702285
0.629655
0.824807
0.81865
0.544642
0.585115
0.794743
0.840855
0.702244
0.742166
0.809656
0.840246
0.848496
0.862219
0.778777
0.800069
0.368227
0.380528
0.650342
0.604235
0.823984
0.867822
0.877037
0.825092
0.471171
0.796804
0.326869
0.827524
0.800473
0.868425
0.833692
0.848154
0.875498
0.724476
0.644058
0.820845
0.270729
0.791991
0.117066
0.307117
0.791687
0.144039
0.816652
0.526058
0.581088
0.707634
0.816955
0.829189
0.789105
0.0461023
0.212362
0.815384
0.569426
0.567308
0.787906
-0.162508
-0.211965
-0.126721
-0.253029
0.789956
0.805692
0.409994
0.529683
0.794437
0.278668
0.274913
0.459276
0.496675
0.803488
0.387271
0.807399
0.442731
0.552505
0.588595
0.814439
0.811917
0.726868
0.570409
0.881262
0.883999
0.844593
0.585482
0.627572
0.815858
0.815943
0.603009
0.648955
0.546931
0.803288
0.399688
0.779785
0.633423
0.83209
0.805661
0.710464
0.836883
0.667848
0.707772
0.834505
0.651565
0.6956
0.828753
0.874479
0.871375
0.846102
0.794594
0.707104
0.854885
0.787071
0.461951
0.348784
0.0846929
0.786042
0.157836
0.0374718
0.78602
0.150944
0.838462
0.863103
0.774495
0.0360719
0.788323
0.00680477
0.617371
0.819588
0.554621
0.784701
0.0459579
-0.0409569
0.884344
0.887608
0.870183
0.781738
0.775719
0.854349
0.818671
0.720343
0.8337
0.785349
0.319768
0.221893
0.696285
0.636189
0.819753
0.796778
0.438966
0.308876
0.750814
0.756931
0.85183
0.890023
0.8916
0.852227
0.32046
0.252368
0.789287
0.815593
0.540935
0.559907
0.258521
0.214525
0.793833
0.792289
0.156229
0.109094
0.763885
0.809273
0.853749
0.741366
0.684825
0.827007
0.841091
0.859929
0.885683
0.222247
0.142409
0.233505
0.786347
0.136372
0.783317
0.696962
0.685728
0.837784
0.241945
0.189408
0.289677
0.243598
0.791516
0.789996
0.692708
0.766329
0.840426
0.796063
0.802262
0.857927
0.356529
0.793853
0.21959
0.783551
0.786193
0.851681
0.833592
0.832614
0.871514
0.277895
0.792455
0.159321
0.75392
0.712392
0.842959
0.771563
0.60403
0.805318
0.798961
0.669426
0.835052
0.620206
0.790021
0.483764
0.791792
-0.289101
-0.245956
0.756501
0.776038
0.851825
0.394893
0.798517
0.297415
0.818366
0.630095
0.803282
-0.00520095
0.788317
-0.15004
0.869544
0.853854
0.856756
0.810191
0.856645
0.789797
0.847439
0.857917
0.880472
0.855724
0.87235
0.864834
0.815868
0.883991
0.805954
0.777303
0.815631
0.867133
0.798552
0.819697
0.863521
0.782145
0.188925
0.0667005
0.834233
0.775108
0.854979
0.288819
0.311838
0.794463
0.653987
0.621819
0.679126
0.641134
0.828788
0.822318
0.830623
0.808675
0.863599
0.759431
0.669546
0.831906
0.705778
0.722572
0.841504
0.887477
0.877404
0.889428
0.616493
0.650399
0.820405
0.86905
0.875803
0.849917
0.713152
0.760424
0.840811
0.761999
0.698275
0.833194
0.884293
0.882012
0.86318
0.895607
0.863524
0.890815
0.872424
0.867022
0.879257
0.847323
0.895781
0.818182
0.821165
0.816885
0.77196
0.768516
0.861294
0.854102
0.809924
0.491485
0.576773
0.8076
0.633893
0.784791
0.809632
0.810649
0.457959
0.475366
0.537876
0.535653
0.821759
0.830661
0.684358
0.893497
0.897931
0.888385
0.604037
0.62301
0.819517
0.85858
0.87122
0.799482
0.751459
0.687637
0.832967
0.63462
0.64335
0.534948
0.817182
0.558119
0.819515
0.665281
0.665829
0.829861
0.0457806
-0.0866632
0.789214
0.81384
0.650552
0.806289
0.796608
0.802461
0.82068
0.644807
0.834759
0.666044
0.593629
0.668642
0.812236
0.769223
0.688916
0.83702
0.824765
0.824421
0.683639
0.803575
0.817725
0.832425
0.852404
0.717086
0.711077
0.797279
0.838815
0.682193
0.675095
0.685545
0.833697
0.875024
0.880072
0.85482
0.335249
0.796319
0.248349
0.817932
0.826818
0.6638
0.764763
0.741456
0.693321
0.676985
0.835089
0.837654
0.798641
0.294858
0.377567
0.364735
0.796018
0.243307
0.325755
0.795074
0.215021
0.613848
0.81664
0.536939
0.782622
0.715996
0.843103
0.37573
0.516011
0.741173
0.384006
0.675896
0.0918957
0.605003
0.468038
0.323141
0.661918
0.657604
0.287971
0.380777
0.661581
0.496109
0.385184
0.410415
0.472631
0.512811
0.616116
0.536242
0.460794
0.678173
0.791361
0.751269
0.525252
0.692849
0.300787
0.563053
0.363573
0.317475
0.598864
0.527403
0.518384
0.353306
0.546328
0.72733
0.674665
0.43136
0.560472
0.435811
0.793561
0.381364
0.659076
0.708103
0.453256
0.464654
0.404345
0.296502
0.381453
0.754476
0.539463
0.388886
0.444792
0.314988
0.747288
0.618152
0.535015
0.396969
0.648541
0.376392
0.391139
0.75224
0.492472
0.534411
0.621684
0.553741
0.794089
0.676602
0.666341
0.261923
0.312634
0.439922
0.637767
0.295776
0.517016
0.51358
0.344258
0.635493
0.707619
0.47207
0.521099
0.304489
0.369573
0.444185
0.648138
0.44621
0.405261
0.490924
0.762138
0.387597
0.649057
0.751267
0.522577
0.383831
-0.0125082
0.358065
0.410044
0.382999
0.257643
0.590861
0.682834
0.723088
0.802278
0.374955
0.37967
0.29643
0.403788
0.361461
0.724757
0.688898
0.615618
0.346362
0.311859
0.57705
0.686404
0.474716
0.405471
0.245806
0.464009
0.512915
0.777706
0.792268
0.641789
0.537201
0.448209
0.292247
0.774183
0.314143
0.634329
0.251523
0.754346
0.306763
0.285522
0.353352
0.705486
0.504712
0.20773
0.374931
0.607522
0.377387
0.652596
0.584687
0.401317
0.704871
0.443533
0.35995
0.716794
0.380599
0.48138
0.291336
0.54766
0.42808
0.711568
0.647511
0.463506
0.637684
0.654324
0.736883
0.518019
0.435232
0.395188
0.655146
0.314923
0.559542
0.305179
0.785398
0.467652
0.716454
0.768605
0.543778
0.778848
0.717523
0.73331
0.337383
0.243556
0.289823
0.741115
0.338849
0.316201
0.303212
0.319873
0.477521
0.442993
0.548697
0.769231
0.644062
0.436349
0.645862
0.425635
0.789063
0.244935
0.695721
0.404305
0.23208
0.755189
0.77122
0.39485
0.410811
0.785115
0.567509
0.424428
0.363901
0.638408
0.724959
0.626601
0.375661
0.398293
0.670429
0.533066
0.363628
0.582941
0.300844
0.33041
0.449374
0.699791
0.253725
0.455655
0.683632
0.439262
0.247098
0.464681
0.393675
0.434959
0.587856
0.600625
0.36755
0.311225
0.340507
0.619772
0.618607
0.462938
0.604991
0.45072
0.339784
0.571885
0.436934
0.225092
0.631862
0.715384
0.551523
0.767838
0.730595
0.790269
0.385246
0.19958
0.490471
0.462865
0.428225
0.2635
0.576635
0.750536
0.635471
0.567348
0.364075
0.468901
0.649319
0.533683
0.606397
0.38285
0.492484
0.433556
0.283474
0.367666
0.402914
0.387283
0.346088
0.605178
0.535785
0.46619
0.614453
0.397677
0.479776
0.382583
0.465385
0.430677
0.420732
0.56174
0.263398
0.189983
0.496589
0.281844
0.248491
0.566375
0.250612
0.251612
0.713484
0.61057
0.371908
0.641907
0.32463
0.597972
0.585433
0.308589
0.39198
0.683664
0.496166
0.649841
0.0884656
0.35305
0.717661
0.426225
0.356855
0.165336
0.265601
0.236392
0.27338
0.439997
0.612298
0.339489
0.236366
0.362707
0.417982
0.789162
0.371716
0.635057
0.571281
0.270394
0.456779
0.3653
0.308184
0.590808
0.4522
0.749758
0.615179
0.363775
0.443664
0.542459
0.791187
0.642064
0.728535
0.647475
0.438429
0.549686
0.478095
0.35343
0.269489
0.412743
0.417932
0.611991
0.389583
0.289863
0.390071
0.44286
0.383819
0.405367
0.697181
0.427574
0.40839
0.747503
0.704497
0.366641
0.534925
0.725505
0.381636
0.240014
0.445899
0.342937
0.307001
0.723259
0.367938
0.465922
0.738435
0.250804
0.544877
0.382849
0.546395
0.449148
0.400176
0.0117371
0.456058
0.291357
0.412252
0.455561
0.454498
0.640163
0.749254
0.38138
0.530239
0.442349
0.344373
0.219108
0.688529
0.582026
0.418205
0.291377
0.561584
0.287158
0.38904
0.373
0.35734
0.677813
0.749021
0.430783
0.633537
0.795237
0.693935
0.695834
0.736417
0.419993
0.414798
0.30978
0.788253
0.683113
0.716045
0.397858
0.44158
0.241291
0.647527
0.439859
0.363485
0.717127
0.59932
0.325296
0.451777
0.378069
0.388478
0.381847
0.444715
0.467138
0.332996
0.429301
0.272533
0.457995
0.337006
0.597435
0.505901
0.254189
0.727483
0.741137
0.644506
0.42392
0.552656
0.246269
0.659785
0.53501
0.285213
0.72336
0.170142
0.751962
0.28171
0.478295
0.49014
0.641856
0.665932
0.384369
0.767203
0.39135
0.699538
0.478886
0.597055
0.41864
0.368481
0.405584
0.706287
0.484921
0.783932
0.623101
0.266117
0.376586
0.599165
0.198383
0.428065
0.480549
0.333181
0.757388
0.325905
0.300474
0.669527
0.406272
0.749278
0.778536
0.451615
0.787529
0.76698
0.701302
0.721087
0.568928
0.297105
0.376501
0.456809
0.68604
0.453895
0.172573
0.765065
0.340552
0.474647
0.367426
0.733088
0.78737
0.354927
0.695057
0.569182
0.748999
0.457866
0.653222
0.458405
0.768281
0.781827
0.623607
0.373904
0.671386
0.421412
0.528499
0.520875
0.473776
0.57264
0.398185
0.179581
0.312204
0.486789
0.592904
0.537914
0.719433
0.358799
0.437102
0.594467
0.315748
0.739638
0.369019
0.458377
0.741175
0.708136
0.552175
0.772326
0.369724
0.441715
0.659001
0.511833
0.49429
0.476099
0.407613
0.601797
0.630663
0.408592
0.378063
0.55101
0.265742
0.329292
0.752527
0.795649
0.786127
0.470677
0.800666
0.787025
0.761431
0.216728
0.58099
0.573006
0.77322
0.437426
0.378354
0.29508
0.371524
0.139965
0.766154
0.492534
0.50261
0.657837
0.623594
0.429661
0.456132
0.78654
0.773594
0.727852
0.618917
0.419411
0.632804
0.60312
0.43523
0.490377
0.31679
0.369483
0.522663
0.505045
0.415447
0.756358
0.749859
0.22261
0.704801
0.38986
0.378829
0.440551
0.750552
0.465572
0.621411
0.487424
0.731105
0.445261
0.489536
0.783136
0.241015
0.262583
0.370815
0.339787
0.19296
-0.0571095
0.354003
0.201008
0.513773
0.220914
0.327612
0.503838
0.399906
0.355549
0.424708
0.303306
-0.0121673
0.768754
0.708384
0.45357
0.290789
0.717377
0.426582
0.377677
0.77965
0.363372
0.778777
0.464831
0.712102
0.467269
0.265462
0.319919
0.533296
0.536567
0.515081
0.269509
0.45268
0.332793
0.343008
0.394507
0.255696
0.309199
0.762633
0.360974
0.630304
0.665324
0.439645
0.683707
0.66895
0.294678
-0.0448919
0.478789
0.270827
0.199713
0.639425
0.644588
0.454967
0.596325
0.42944
0.7834
0.764865
0.479019
0.418023
0.769719
0.719726
0.588199
0.584963
0.441211
0.786795
0.520632
0.219986
0.734356
0.693715
0.751391
0.541564
0.378719
0.437112
0.647181
0.593881
-0.149883
0.7925
0.475623
0.367725
0.529904
0.729548
0.789564
0.782428
0.594178
0.494761
0.674131
0.723633
0.748046
0.63143
0.68812
0.28513
0.384257
0.557569
0.310327
0.279262
0.254114
0.472703
0.67024
0.272734
0.524034
0.386351
0.700838
0.782277
0.489067
0.298167
0.241261
0.65483
0.413453
0.364872
0.246963
0.755022
0.560364
0.574461
0.278977
0.576674
0.366452
0.383037
0.643207
0.665741
0.760225
0.789067
0.353387
0.727945
0.223348
0.738058
0.749939
0.750395
0.676213
0.33284
0.333106
0.459623
0.218611
0.513179
0.251636
0.565292
0.286249
0.716235
0.440772
0.232861
0.708348
0.658368
0.484383
0.495722
0.627138
0.751498
0.562441
0.512656
0.2284
0.694002
0.531598
0.778266
0.198952
0.507789
0.735814
0.6458
0.772522
0.652836
0.45453
0.174569
0.230983
0.495589
0.266875
0.764925
0.22184
0.399122
0.481686
0.368604
0.6854
0.204061
0.749292
0.649106
0.578128
0.183651
0.600135
0.353222
0.431217
0.49413
0.482585
0.440814
0.421405
0.673184
0.336667
0.800982
0.432251
0.487039
0.616007
0.64573
0.770212
0.442298
0.470381
0.354028
0.490614
0.417092
0.758
0.370183
0.520055
0.439294
0.695787
0.392223
0.537576
0.304961
0.782957
0.215274
0.330957
0.400886
0.703206
0.238506
0.254
0.324335
0.290013
0.750299
0.509639
0.628471
0.712057
0.609467
0.516704
0.784053
0.509151
0.653121
0.605381
0.532728
0.253707
0.546775
0.494395
0.405513
0.547067
0.323238
0.265978
0.539876
0.430688
0.339921
0.688579
0.493159
0.624858
0.488488
0.768674
0.477816
0.465634
0.604943
0.286528
0.359182
0.439992
0.533051
0.560476
0.59505
0.746146
0.641768
0.683588
0.544748
0.728314
0.768909
0.762559
0.543865
0.514328
0.568304
0.30009
0.780506
0.719224
0.698414
0.515035
0.332404
0.255716
0.569207
0.645096
0.368402
0.696833
0.718673
0.593358
0.387417
0.532992
0.408673
0.364543
0.517344
0.391016
0.574807
0.247306
0.578209
0.48318
0.480442
0.206313
0.557213
0.530207
0.621874
0.434995
0.565432
0.742782
0.758023
0.576748
0.469569
0.685332
0.539272
0.364805
0.364183
0.470811
0.281462
0.746319
0.500229
0.552969
0.649209
0.635184
0.591412
0.315807
0.793405
0.601566
0.378093
0.508745
0.52504
0.684741
0.736997
0.60369
0.580916
0.240717
0.344063
0.481182
0.589228
0.523034
0.577387
0.400072
0.753496
0.583258
0.683903
0.724499
0.555369
0.372171
0.52742
0.776434
0.409632
0.232467
0.523855
0.78565
0.419638
0.471895
0.674624
0.644507
0.703506
0.511019
0.245171
0.586988
0.299333
0.427762
0.701935
0.50073
0.306777
0.363638
0.415753
0.601175
0.426812
0.398262
0.732438
0.383964
0.785468
0.699113
0.288904
0.18637
0.500181
0.653655
0.720881
0.508123
0.481499
0.356218
0.461714
0.477793
0.789065
0.737854
0.653368
0.428965
0.256175
0.760062
0.789663
0.753877
0.685534
0.735992
0.52183
0.307327
0.213088
0.233959
0.768816
0.528243
0.334859
0.446364
0.789934
0.440406
0.387287
0.275213
0.511909
0.357752
0.812987
0.588895
0.647158
0.731841
0.717686
0.465314
0.608993
0.521162
0.631682
0.398865
0.593288
0.397916
0.756796
0.279177
0.421994
0.322192
0.454737
0.740892
0.449911
0.699164
0.727892
0.735355
0.323821
0.518209
0.481361
0.369968
0.749341
0.54105
0.542078
0.583602
0.1185
0.451369
0.769733
0.615483
0.754193
0.22336
0.332056
0.448226
0.762818
0.367224
0.483115
0.344908
0.310721
0.432814
0.780514
0.459739
0.487487
0.27898
0.809715
0.775327
0.125475
0.769738
0.437843
0.326134
0.335613
0.520677
0.275105
0.591918
0.432008
0.42539
0.460099
0.747951
0.508999
0.69902
0.460929
0.319516
0.457109
0.221584
0.256295
0.494004
0.418587
0.552061
0.339952
0.488279
0.724215
0.584348
0.425745
0.255673
0.740316
0.512473
0.487829
0.799843
0.551736
0.419118
0.39829
0.316494
0.769085
0.411706
0.494482
0.599836
0.284841
0.746266
0.289166
0.729133
0.512687
0.667361
0.349452
0.685487
0.48603
0.293938
0.363288
0.510437
0.742866
0.181565
0.37888
0.433282
0.769429
0.799996
0.347227
0.407923
0.586233
0.793424
0.473289
0.748903
0.718044
0.695723
0.667352
0.565376
0.621946
0.604902
0.752409
0.485373
0.532843
0.3486
0.390291
0.481384
0.342188
0.769811
0.297748
0.749551
0.474863
0.762625
0.407304
0.776469
0.663495
0.737376
0.763839
0.741679
0.798359
0.466035
0.726972
0.506731
0.446659
0.381574
0.341495
0.7544
0.299977
0.588525
0.601911
0.478846
0.586283
0.392769
0.763236
0.535553
0.676491
0.210781
0.367183
0.454468
0.82014
0.357827
0.621559
0.398377
0.455164
0.304573
0.469205
0.441448
0.690472
0.757512
0.271339
0.580576
0.448499
0.41535
0.706703
0.36073
0.387486
0.774827
0.23489
0.544921
0.647312
0.7377
0.779204
0.399783
0.383373
0.287788
0.435977
0.37261
0.446128
0.669068
0.430485
0.304229
0.485809
0.518554
0.420753
0.38017
0.431685
0.521495
0.293667
0.679387
0.665944
0.408551
0.676978
0.267389
0.275102
0.353108
0.239034
0.771812
0.444816
0.437757
0.396423
0.718849
0.751209
0.555546
0.66929
0.385576
0.378322
0.521018
0.440502
0.375227
0.752006
0.562738
0.61871
0.777658
0.688048
0.49711
0.765136
0.266042
0.560283
0.554012
0.598281
0.439636
0.772404
0.42921
0.591358
0.50669
0.418308
0.343597
0.391485
0.663529
0.709666
0.72934
0.528507
0.553558
0.770316
0.690752
0.495223
0.547807
0.317986
0.463857
0.695389
0.2694
0.723526
0.438427
0.736181
0.802939
0.755527
0.426319
0.734969
0.720147
0.219329
0.77185
0.383149
0.760316
0.690606
0.451109
0.338824
0.562133
0.46868
0.427348
0.38021
0.70083
0.412787
0.768084
0.328187
0.403106
0.366417
0.32528
0.438281
0.709733
0.784625
0.322049
0.675385
0.53103
0.591809
0.478534
0.584114
0.745496
0.695785
0.441708
0.738007
0.705135
0.778443
0.325171
0.410874
0.381808
0.670525
0.775932
0.71309
0.494472
0.775916
0.508086
0.27328
0.336722
0.181134
0.489098
0.303409
0.78045
0.785409
0.551839
0.804492
0.698203
0.549162
0.771724
0.314887
0.772301
0.461677
0.751159
0.440878
0.334859
0.664751
0.559263
0.760211
0.746082
0.749434
0.353277
0.350084
0.248084
0.727833
0.693429
0.343947
0.517887
0.695927
0.224926
0.407004
0.351076
0.449228
0.587192
0.444114
0.554363
0.663758
0.536584
0.55432
0.667999
0.438717
0.454742
0.587095
0.541692
0.445866
0.727728
0.762877
0.344792
0.690451
0.213817
0.397578
0.736319
0.680815
0.429616
0.753676
0.310948
0.664862
0.462295
0.459072
0.735234
0.445682
0.67685
0.666128
0.632186
0.788897
0.639114
0.288891
0.606882
0.484078
0.678541
0.787375
0.625209
0.504463
0.374438
0.461089
0.736935
0.321521
0.720296
0.359676
0.570669
0.688627
0.667898
0.528845
0.734581
0.77444
0.447963
0.4403
0.552321
0.349417
0.305117
0.5593
0.666088
0.369079
0.285684
0.360022
0.281569
0.659707
0.502824
0.683388
0.397001
0.75341
0.536663
0.720748
0.791263
0.383573
0.742792
0.438651
0.55679
0.522361
0.731538
0.384143
0.471372
0.529687
0.33937
0.447567
0.332998
0.302044
0.214631
0.774121
0.789669
0.366356
0.396512
0.672782
0.261338
0.35798
0.44228
0.647167
0.659274
0.248335
0.211261
0.746165
0.392865
0.588917
0.390258
0.279526
0.338132
0.558099
0.720218
0.584105
0.270527
0.755002
0.717322
0.365467
0.586974
0.432851
0.789998
0.454364
0.478512
0.297964
0.628245
0.767364
0.600911
0.551257
0.381764
0.496501
0.58954
0.772267
0.80805
0.382155
0.776704
0.391777
0.569303
0.570144
0.494571
0.424962
0.729674
0.445744
0.560695
0.358949
0.387619
0.455232
0.338793
0.63228
0.7527
0.364226
0.403598
0.560432
0.431397
0.365914
0.215326
0.426728
0.737767
0.197025
0.419777
0.656637
0.56083
0.494983
0.621493
0.710177
0.334378
0.336858
0.709887
0.483713
0.333523
0.511764
0.729619
0.62291
0.570724
0.384752
0.390571
0.375051
0.773515
0.711931
0.782819
0.48798
0.641234
0.316399
0.526051
0.720918
0.269617
0.283527
0.665775
0.715836
0.263335
0.408751
0.377867
0.321074
0.377061
0.805835
0.472511
0.402565
0.550026
0.374455
0.662583
0.567082
0.308457
0.410128
0.687932
0.49374
0.77529
0.300693
0.40942
0.610425
0.590896
0.495839
0.592473
0.339656
0.779018
0.77923
0.614683
0.735517
0.372867
0.728454
0.619941
0.606437
0.76552
0.261706
0.420948
0.784806
0.623593
0.252773
0.420845
0.711888
0.782394
0.523862
0.674256
0.380539
0.293783
0.356209
0.243365
0.721242
0.389758
0.538572
0.769611
0.378739
0.337331
0.38326
0.547032
0.398032
0.428015
0.378579
0.325787
0.495047
0.693681
0.762543
0.648366
0.427188
0.419934
0.238935
0.416375
0.60792
0.585376
0.630609
0.660558
0.421446
0.510838
0.706126
0.719257
0.782417
0.737418
0.768691
0.499578
0.31019
0.357949
0.322881
0.773114
0.548717
0.393103
0.763869
0.318565
0.699111
0.661575
0.414971
0.387858
0.420834
0.398163
0.716559
0.469249
0.64833
0.514548
0.760098
0.581487
0.787056
0.357185
0.516757
0.410682
0.205883
0.434742
0.683495
0.320465
0.0929162
0.56969
0.770559
0.679762
0.396
0.298583
0.361516
0.321725
0.391213
0.323773
0.492517
0.332651
0.667967
0.362365
0.39635
0.766082
0.504644
0.621436
0.707983
0.482006
0.537805
0.347892
0.685102
0.463278
0.417569
0.481854
0.344161
0.294006
0.392596
0.370913
0.678053
0.784499
0.725794
0.573642
0.654827
0.27077
0.777748
0.574653
0.666912
0.386363
0.65788
0.425007
0.44277
0.696967
0.766306
0.682409
0.577174
0.455718
0.786824
0.442277
0.701242
0.770852
0.636829
0.46781
0.263965
0.700823
0.560978
0.33243
0.621988
0.553485
0.758039
0.38447
0.771292
0.783234
0.486076
0.359356
0.768365
0.303033
0.339396
0.442077
0.332793
0.427403
0.345359
0.302886
0.5125
0.398093
0.358315
0.423824
0.584054
0.398572
0.37946
0.614961
0.539058
0.284349
0.751622
0.800348
0.777774
0.387972
0.273546
0.789596
0.291866
0.498032
0.365875
0.445678
0.384078
0.665051
0.433901
0.43359
0.282828
0.267912
0.335538
0.437729
0.260105
0.524004
0.563423
0.510987
0.760537
0.555155
0.625113
0.463064
0.71358
0.441174
0.444982
0.818928
0.439819
0.552433
0.303207
0.638441
0.790687
0.469364
0.595336
0.553337
0.417347
0.379284
0.375165
0.331947
0.67107
0.34566
0.479976
0.433154
0.487585
0.363635
0.377386
0.497045
0.461225
0.415258
0.804472
0.50352
0.465056
0.572267
0.764581
0.446594
0.271638
0.691235
0.305224
0.464611
0.381844
0.500832
0.424786
0.441783
0.500038
0.779563
0.723475
0.279074
0.414085
0.268438
0.369029
0.250082
0.337388
0.431384
0.353926
0.439149
0.611988
0.799234
0.436157
0.658579
0.53059
0.77265
0.431541
0.788696
0.602704
0.317069
0.60455
0.669198
0.442669
0.722349
0.382102
0.731033
0.400954
0.1231
0.509181
0.797174
0.791416
0.67073
0.615596
0.646672
0.280694
0.41334
0.645555
0.78656
0.151846
0.506774
0.382261
0.439231
0.489176
0.362325
0.316702
0.395469
0.336814
0.403412
0.454291
0.485746
0.786949
0.717107
0.24935
0.692061
0.351423
0.368188
0.700696
0.399636
0.463323
0.63187
0.199667
0.371742
0.521833
0.725942
0.322922
0.384777
0.459947
0.607913
0.321897
0.760726
0.268837
0.440555
0.462309
0.392579
0.614708
0.611671
0.764109
0.37833
0.678615
0.564001
0.602143
0.381902
0.612833
0.353692
0.30891
0.228354
0.570047
0.506437
0.46317
0.744917
0.511224
0.558221
0.609765
0.365521
0.341322
0.440728
0.578004
0.393369
0.798016
0.306266
0.269604
0.438141
0.436718
0.395221
0.370808
0.657704
0.441873
0.517104
0.323975
0.385031
0.51153
0.301737
0.795076
0.79561
0.329286
0.362502
0.720065
0.527572
0.371364
0.297253
0.366081
0.3321
0.56024
0.74859
0.373306
0.279663
0.610685
0.502809
0.270093
0.326029
0.498783
0.65158
0.809444
0.314454
0.264924
0.58162
0.721275
0.471098
0.563002
0.455113
0.38327
0.445825
0.607303
0.500937
0.387218
0.692185
0.458289
0.229879
0.554059
0.397892
0.697758
0.787939
0.397994
0.43441
0.436424
0.434488
0.313859
0.447883
0.331384
0.763709
0.70448
0.649405
0.433782
0.287046
0.683866
0.775883
0.379102
0.548271
0.428459
0.214273
0.530936
0.442684
0.213479
0.370964
0.612155
0.315171
0.272826
0.332862
0.718307
0.300792
0.693192
0.485839
0.384423
0.455938
0.35607
0.698538
0.239944
0.446065
0.477036
0.307606
0.563732
0.64629
0.57807
0.506697
0.676086
0.326793
0.3279
0.748186
0.380907
0.743113
0.582625
0.469788
0.557835
0.726247
0.503152
0.265152
0.758826
0.373312
0.480311
0.729434
0.365217
0.77124
0.37596
0.460874
0.212949
0.462179
0.332904
0.518852
0.34183
0.232441
0.329449
0.322452
0.220586
0.748636
0.322453
0.454449
0.5718
0.512408
0.77805
0.780652
0.421179
0.503457
0.703444
0.408159
0.749656
0.234192
0.455361
0.551237
0.383863
0.708222
0.428992
0.43876
0.413445
0.382614
0.368911
0.235006
0.730399
0.00807458
0.777518
0.650863
0.342609
0.272003
0.341369
0.810636
0.652252
0.618167
0.498858
0.566808
0.480385
0.728255
0.684782
0.358783
0.597207
0.779706
0.491539
0.544297
0.604856
0.255062
0.323661
0.705587
0.452841
0.483501
0.771524
0.316175
0.238641
0.395884
0.481279
0.49117
0.800233
0.37619
0.293033
0.376252
0.478868
0.38136
0.739285
0.494214
0.345946
0.428373
0.379321
0.366121
0.421107
0.601884
0.526416
0.35016
0.74087
0.448812
0.723527
0.351122
0.316722
0.446887
0.734035
0.775812
0.70787
0.52233
0.499297
0.695758
0.790688
0.307595
0.750812
0.334248
0.623372
0.603359
0.737713
0.519166
0.723725
0.760778
0.394212
0.38699
0.455487
0.512259
0.334969
0.334366
0.293741
0.66459
0.709622
0.300528
0.757924
0.518623
0.680015
0.49405
0.342413
0.705967
0.686192
0.432028
0.410266
0.331768
0.781153
0.658383
0.787938
0.301169
0.33397
0.47908
0.715077
0.611278
0.759309
0.544594
0.795784
0.395199
0.467694
0.544701
0.412105
0.58648
0.25053
0.695281
0.503453
0.548812
0.752328
0.29032
0.304198
0.24308
0.579256
0.73321
0.412252
0.615169
0.264195
0.289166
0.488783
0.397295
0.375519
0.749793
0.519429
0.365137
0.471055
0.574477
0.769459
0.580884
0.462969
0.729788
0.518684
0.769641
0.532642
0.646829
0.465379
0.300218
0.799811
0.345374
0.558661
0.571437
0.74655
0.635737
0.502043
0.387886
0.785472
0.475234
0.352064
0.669878
0.778692
0.658909
0.617425
0.289178
0.223904
0.54944
0.354639
0.459868
0.53498
0.349965
0.76624
0.783407
0.756086
0.411609
0.448494
0.376781
0.432886
0.636238
0.318959
0.632384
0.763495
0.310271
0.435577
0.391169
0.711698
0.618372
0.448145
0.357353
0.656641
0.371922
0.240407
0.327818
0.795707
0.235158
0.691061
0.59687
0.378195
0.785224
0.559043
0.815616
0.19468
0.439218
0.551681
0.755714
0.436081
0.749792
0.560662
0.234734
0.504153
0.404271
0.445154
0.225545
0.689678
0.438045
0.357048
0.265018
0.508581
0.753863
0.16877
0.421306
0.730876
0.460432
0.726433
0.22827
0.372172
0.379226
0.477921
0.406669
0.288927
0.370063
0.181692
0.459279
0.462191
0.681543
0.546472
0.733408
0.363383
0.448148
0.292625
0.5231
0.181881
0.454489
0.788794
0.483512
0.420039
0.803992
0.357246
0.564521
0.609682
0.282577
0.41183
0.506477
0.567306
0.763289
0.778053
0.778227
0.578365
0.464159
0.47105
0.33949
0.72337
0.628598
0.385394
0.417509
0.414442
0.498844
0.815916
0.467499
0.816321
0.427455
0.609549
0.343312
0.375597
0.287169
0.400057
0.744454
0.418101
0.303078
0.33492
0.793015
0.41932
0.349277
0.343142