/*--------------------------------*- C++ -*----------------------------------*\
  =========                 |
  \\      /  F ield         | OpenFOAM: The Open Source CFD Toolbox
   \\    /   O peration     | Website:  https://openfoam.org
    \\  /    A nd           | Version:  6
     \\/     M anipulation  |
\*---------------------------------------------------------------------------*/
FoamFile
{
    version     2.0;
    format      ascii;
    class       volVectorField;
    location    "0";
    object      U;
}
// * * * * * * * * * * * * * * * * * * * * * * * * * * * * * * * * * * * * * //

dimensions      [0 1 -1 0 0 0 0];

internalField   nonuniform List<vector> 
40000
(
(7.27604e-08 -7.29054e-08 0)
(1.72553e-06 -6.73929e-07 0)
(5.17075e-06 -1.18378e-06 0)
(9.97075e-06 -1.44969e-06 0)
(1.53789e-05 -1.53452e-06 0)
(2.08367e-05 -1.4883e-06 0)
(2.59364e-05 -1.35088e-06 0)
(3.03868e-05 -1.15298e-06 0)
(3.39897e-05 -9.16837e-07 0)
(3.66181e-05 -6.58407e-07 0)
(3.81991e-05 -3.8926e-07 0)
(3.86995e-05 -1.17897e-07 0)
(3.81157e-05 1.49495e-07 0)
(3.64657e-05 4.08565e-07 0)
(3.37828e-05 6.56399e-07 0)
(3.01111e-05 8.91163e-07 0)
(2.55014e-05 1.11182e-06 0)
(2.00084e-05 1.31794e-06 0)
(1.36877e-05 1.50961e-06 0)
(6.59471e-06 1.68733e-06 0)
(-1.21752e-06 1.8519e-06 0)
(-9.699e-06 2.00433e-06 0)
(-1.88038e-05 2.14583e-06 0)
(-2.84907e-05 2.27765e-06 0)
(-3.87235e-05 2.40114e-06 0)
(-4.94711e-05 2.51767e-06 0)
(-6.07079e-05 2.6286e-06 0)
(-7.24137e-05 2.73526e-06 0)
(-8.45733e-05 2.83892e-06 0)
(-9.71764e-05 2.9408e-06 0)
(-0.000110218 3.042e-06 0)
(-0.000123695 3.14357e-06 0)
(-0.000137613 3.24644e-06 0)
(-0.000151976 3.35142e-06 0)
(-0.000166794 3.45926e-06 0)
(-0.00018208 3.57055e-06 0)
(-0.000197848 3.6858e-06 0)
(-0.000214114 3.80542e-06 0)
(-0.000230895 3.92969e-06 0)
(-0.000248212 4.05882e-06 0)
(-0.000266082 4.19291e-06 0)
(-0.000284526 4.33196e-06 0)
(-0.000303563 4.47591e-06 0)
(-0.000323212 4.6246e-06 0)
(-0.000343491 4.77778e-06 0)
(-0.000364417 4.93518e-06 0)
(-0.000386006 5.0964e-06 0)
(-0.000408273 5.26104e-06 0)
(-0.000431228 5.4286e-06 0)
(-0.000454883 5.59855e-06 0)
(-0.000479245 5.77031e-06 0)
(-0.000504319 5.94326e-06 0)
(-0.000530108 6.11672e-06 0)
(-0.000556611 6.29e-06 0)
(-0.000583825 6.46236e-06 0)
(-0.000611743 6.63302e-06 0)
(-0.000640355 6.80119e-06 0)
(-0.000669649 6.96604e-06 0)
(-0.000699606 7.12669e-06 0)
(-0.000730207 7.28228e-06 0)
(-0.000761428 7.43189e-06 0)
(-0.000793239 7.57459e-06 0)
(-0.00082561 7.70941e-06 0)
(-0.000858503 7.83538e-06 0)
(-0.000891879 7.9515e-06 0)
(-0.000925692 8.05674e-06 0)
(-0.000959894 8.15007e-06 0)
(-0.000994433 8.23043e-06 0)
(-0.00102925 8.29676e-06 0)
(-0.00106428 8.34799e-06 0)
(-0.00109946 8.38302e-06 0)
(-0.00113473 8.40078e-06 0)
(-0.00116999 8.40017e-06 0)
(-0.00120518 8.38012e-06 0)
(-0.00124021 8.33957e-06 0)
(-0.00127499 8.27746e-06 0)
(-0.00130942 8.19278e-06 0)
(-0.00134342 8.08453e-06 0)
(-0.00137689 7.95176e-06 0)
(-0.0014097 7.79356e-06 0)
(-0.00144177 7.60909e-06 0)
(-0.00147298 7.39755e-06 0)
(-0.00150321 7.15825e-06 0)
(-0.00153236 6.89055e-06 0)
(-0.00156029 6.59392e-06 0)
(-0.00158689 6.26792e-06 0)
(-0.00161204 5.91224e-06 0)
(-0.00163562 5.52666e-06 0)
(-0.00165751 5.11113e-06 0)
(-0.00167757 4.6657e-06 0)
(-0.00169569 4.19059e-06 0)
(-0.00171176 3.68617e-06 0)
(-0.00172564 3.15298e-06 0)
(-0.00173724 2.59171e-06 0)
(-0.00174642 2.00325e-06 0)
(-0.0017531 1.38863e-06 0)
(-0.00175715 7.49105e-07 0)
(-0.0017585 8.60887e-08 0)
(-0.00175704 -5.98812e-07 0)
(-0.00175269 -1.3038e-06 0)
(-0.00174538 -2.02691e-06 0)
(-0.00173504 -2.76599e-06 0)
(-0.00172161 -3.51869e-06 0)
(-0.00170505 -4.28253e-06 0)
(-0.00168531 -5.05483e-06 0)
(-0.00166237 -5.8328e-06 0)
(-0.00163622 -6.61348e-06 0)
(-0.00160685 -7.3938e-06 0)
(-0.00157427 -8.17056e-06 0)
(-0.00153851 -8.94049e-06 0)
(-0.00149961 -9.70024e-06 0)
(-0.00145761 -1.04464e-05 0)
(-0.00141258 -1.11755e-05 0)
(-0.0013646 -1.1884e-05 0)
(-0.00131376 -1.25686e-05 0)
(-0.00126016 -1.32258e-05 0)
(-0.00120394 -1.38523e-05 0)
(-0.00114521 -1.44447e-05 0)
(-0.00108413 -1.49998e-05 0)
(-0.00102085 -1.55147e-05 0)
(-0.000955551 -1.59864e-05 0)
(-0.000888406 -1.64123e-05 0)
(-0.000819611 -1.67898e-05 0)
(-0.000749365 -1.71166e-05 0)
(-0.000677881 -1.73908e-05 0)
(-0.000605374 -1.76105e-05 0)
(-0.000532071 -1.77743e-05 0)
(-0.000458199 -1.78811e-05 0)
(-0.000383993 -1.79298e-05 0)
(-0.00030969 -1.79201e-05 0)
(-0.000235528 -1.78516e-05 0)
(-0.000161744 -1.77245e-05 0)
(-8.85766e-05 -1.75393e-05 0)
(-1.62601e-05 -1.72968e-05 0)
(5.49744e-05 -1.6998e-05 0)
(0.000124901 -1.66445e-05 0)
(0.0001933 -1.6238e-05 0)
(0.000259959 -1.57807e-05 0)
(0.000324675 -1.52747e-05 0)
(0.000387255 -1.47228e-05 0)
(0.000447516 -1.41279e-05 0)
(0.000505286 -1.34929e-05 0)
(0.000560409 -1.28213e-05 0)
(0.000612739 -1.21164e-05 0)
(0.000662145 -1.13818e-05 0)
(0.000708511 -1.06213e-05 0)
(0.000751736 -9.83861e-06 0)
(0.000791734 -9.03757e-06 0)
(0.000828434 -8.22201e-06 0)
(0.000861781 -7.39579e-06 0)
(0.000891736 -6.56268e-06 0)
(0.000918272 -5.72642e-06 0)
(0.000941381 -4.89061e-06 0)
(0.000961068 -4.05876e-06 0)
(0.00097735 -3.23422e-06 0)
(0.000990259 -2.42016e-06 0)
(0.00099984 -1.61958e-06 0)
(0.00100615 -8.35254e-07 0)
(0.00100925 -6.97578e-08 0)
(0.00100923 6.74575e-07 0)
(0.00100617 1.39564e-06 0)
(0.00100017 2.09159e-06 0)
(0.000991318 2.76081e-06 0)
(0.000979738 3.40191e-06 0)
(0.000965541 4.01375e-06 0)
(0.000948844 4.59542e-06 0)
(0.000929773 5.14621e-06 0)
(0.000908452 5.6656e-06 0)
(0.000885011 6.15323e-06 0)
(0.00085958 6.60892e-06 0)
(0.000832289 7.03257e-06 0)
(0.000803272 7.42417e-06 0)
(0.00077266 7.78376e-06 0)
(0.000740588 8.11137e-06 0)
(0.000707188 8.40697e-06 0)
(0.000672596 8.67045e-06 0)
(0.000636947 8.9015e-06 0)
(0.00060038 9.09959e-06 0)
(0.000563037 9.26388e-06 0)
(0.000525063 9.39317e-06 0)
(0.000486613 9.48574e-06 0)
(0.000447847 9.53934e-06 0)
(0.000408936 9.55104e-06 0)
(0.000370066 9.51711e-06 0)
(0.000331439 9.43295e-06 0)
(0.000293277 9.29291e-06 0)
(0.000255825 9.0902e-06 0)
(0.000219359 8.81672e-06 0)
(0.000184185 8.46298e-06 0)
(0.000150648 8.01798e-06 0)
(0.000119135 7.46921e-06 0)
(9.00749e-05 6.80285e-06 0)
(6.39458e-05 6.00435e-06 0)
(4.12642e-05 5.05988e-06 0)
(2.25712e-05 3.95984e-06 0)
(8.39408e-06 2.70711e-06 0)
(-8.3075e-07 1.3323e-06 0)
(-4.94545e-06 -7.93105e-08 0)
(-4.59099e-06 -1.25534e-06 0)
(-1.45942e-06 -1.4593e-06 0)
(6.76028e-07 -1.72809e-06 0)
(5.74537e-06 -5.73376e-06 0)
(1.43342e-05 -8.91446e-06 0)
(2.5515e-05 -1.07122e-05 0)
(3.77763e-05 -1.12727e-05 0)
(4.99388e-05 -1.08606e-05 0)
(6.10774e-05 -9.72615e-06 0)
(7.04898e-05 -8.07862e-06 0)
(7.767e-05 -6.08417e-06 0)
(8.22742e-05 -3.87111e-06 0)
(8.40873e-05 -1.53748e-06 0)
(8.29957e-05 8.42333e-07 0)
(7.89645e-05 3.21258e-06 0)
(7.20177e-05 5.53232e-06 0)
(6.22235e-05 7.77244e-06 0)
(4.96815e-05 9.91326e-06 0)
(3.45124e-05 1.19426e-05 0)
(1.68499e-05 1.38542e-05 0)
(-3.16594e-06 1.56465e-05 0)
(-2.53945e-05 1.73219e-05 0)
(-4.96986e-05 1.88856e-05 0)
(-7.59477e-05 2.03452e-05 0)
(-0.000104021 2.17097e-05 0)
(-0.000133808 2.29895e-05 0)
(-0.000165213 2.41956e-05 0)
(-0.000198151 2.53394e-05 0)
(-0.000232551 2.64325e-05 0)
(-0.000268359 2.74862e-05 0)
(-0.00030553 2.85115e-05 0)
(-0.000344037 2.9519e-05 0)
(-0.00038386 3.05185e-05 0)
(-0.000424996 3.1519e-05 0)
(-0.000467449 3.25289e-05 0)
(-0.000511234 3.35555e-05 0)
(-0.000556375 3.46052e-05 0)
(-0.000602902 3.56837e-05 0)
(-0.000650853 3.67954e-05 0)
(-0.000700271 3.79441e-05 0)
(-0.0007512 3.91323e-05 0)
(-0.000803691 4.03619e-05 0)
(-0.000857794 4.16339e-05 0)
(-0.000913561 4.29483e-05 0)
(-0.000971042 4.43046e-05 0)
(-0.00103029 4.57012e-05 0)
(-0.00109135 4.7136e-05 0)
(-0.00115426 4.86063e-05 0)
(-0.00121907 5.01086e-05 0)
(-0.00128581 5.16389e-05 0)
(-0.00135451 5.31928e-05 0)
(-0.00142521 5.47653e-05 0)
(-0.0014979 5.63508e-05 0)
(-0.00157261 5.79434e-05 0)
(-0.00164933 5.9537e-05 0)
(-0.00172806 6.11248e-05 0)
(-0.00180879 6.26999e-05 0)
(-0.00189149 6.42549e-05 0)
(-0.00197613 6.57823e-05 0)
(-0.00206266 6.72742e-05 0)
(-0.00215104 6.87225e-05 0)
(-0.00224118 7.01188e-05 0)
(-0.00233303 7.14545e-05 0)
(-0.0024265 7.27207e-05 0)
(-0.00252148 7.39084e-05 0)
(-0.00261786 7.50085e-05 0)
(-0.00271553 7.60115e-05 0)
(-0.00281436 7.6908e-05 0)
(-0.00291418 7.76882e-05 0)
(-0.00301486 7.83424e-05 0)
(-0.00311621 7.88607e-05 0)
(-0.00321806 7.92333e-05 0)
(-0.00332021 7.94503e-05 0)
(-0.00342245 7.95018e-05 0)
(-0.00352455 7.9378e-05 0)
(-0.0036263 7.90691e-05 0)
(-0.00372744 7.85658e-05 0)
(-0.00382772 7.78587e-05 0)
(-0.00392687 7.69387e-05 0)
(-0.00402461 7.57973e-05 0)
(-0.00412065 7.44262e-05 0)
(-0.0042147 7.28177e-05 0)
(-0.00430645 7.09646e-05 0)
(-0.00439558 6.88604e-05 0)
(-0.00448178 6.64993e-05 0)
(-0.00456471 6.38762e-05 0)
(-0.00464403 6.09872e-05 0)
(-0.00471942 5.7829e-05 0)
(-0.00479052 5.43996e-05 0)
(-0.00485701 5.0698e-05 0)
(-0.00491853 4.67245e-05 0)
(-0.00497475 4.24805e-05 0)
(-0.00502533 3.79689e-05 0)
(-0.00506994 3.3194e-05 0)
(-0.00510826 2.81616e-05 0)
(-0.00513996 2.28787e-05 0)
(-0.00516475 1.73543e-05 0)
(-0.00518233 1.15986e-05 0)
(-0.00519243 5.62358e-06 0)
(-0.00519478 -5.57101e-07 0)
(-0.00518914 -6.92831e-06 0)
(-0.00517529 -1.34733e-05 0)
(-0.00515303 -2.01736e-05 0)
(-0.00512218 -2.70094e-05 0)
(-0.0050826 -3.39592e-05 0)
(-0.00503415 -4.10004e-05 0)
(-0.00497676 -4.81086e-05 0)
(-0.00491035 -5.52585e-05 0)
(-0.00483491 -6.24235e-05 0)
(-0.00475043 -6.9576e-05 0)
(-0.00465696 -7.66875e-05 0)
(-0.00455457 -8.37288e-05 0)
(-0.00444337 -9.067e-05 0)
(-0.00432351 -9.74809e-05 0)
(-0.00419518 -0.000104131 0)
(-0.00405861 -0.00011059 0)
(-0.00391406 -0.000116827 0)
(-0.00376182 -0.000122812 0)
(-0.00360224 -0.000128516 0)
(-0.00343567 -0.000133909 0)
(-0.00326254 -0.000138965 0)
(-0.00308328 -0.000143656 0)
(-0.00289836 -0.000147958 0)
(-0.00270828 -0.000151846 0)
(-0.00251358 -0.000155299 0)
(-0.0023148 -0.000158298 0)
(-0.00211253 -0.000160823 0)
(-0.00190735 -0.000162861 0)
(-0.0016999 -0.000164397 0)
(-0.00149079 -0.000165422 0)
(-0.00128067 -0.000165928 0)
(-0.00107019 -0.00016591 0)
(-0.000859992 -0.000165366 0)
(-0.000650741 -0.000164297 0)
(-0.000443084 -0.000162707 0)
(-0.000237667 -0.000160601 0)
(-3.5126e-05 -0.000157991 0)
(0.000163917 -0.000154888 0)
(0.000358856 -0.000151306 0)
(0.000549104 -0.000147265 0)
(0.000734096 -0.000142783 0)
(0.000913297 -0.000137884 0)
(0.00108619 -0.000132592 0)
(0.00125231 -0.000126933 0)
(0.0014112 -0.000120936 0)
(0.00156246 -0.000114631 0)
(0.00170571 -0.000108049 0)
(0.00184061 -0.000101222 0)
(0.00196688 -9.41834e-05 0)
(0.00208426 -8.69663e-05 0)
(0.00219254 -7.96046e-05 0)
(0.00229154 -7.21321e-05 0)
(0.00238115 -6.45822e-05 0)
(0.00246126 -5.69881e-05 0)
(0.00253184 -4.9382e-05 0)
(0.00259288 -4.17952e-05 0)
(0.0026444 -3.42579e-05 0)
(0.00268647 -2.67989e-05 0)
(0.0027192 -1.94456e-05 0)
(0.00274273 -1.22234e-05 0)
(0.00275721 -5.15616e-06 0)
(0.00276284 1.73417e-06 0)
(0.00275986 8.42771e-06 0)
(0.0027485 1.49065e-05 0)
(0.00272904 2.11548e-05 0)
(0.00270176 2.71587e-05 0)
(0.00266697 3.29063e-05 0)
(0.002625 3.83876e-05 0)
(0.00257617 4.35945e-05 0)
(0.00252083 4.85204e-05 0)
(0.00245933 5.31601e-05 0)
(0.00239204 5.75098e-05 0)
(0.00231932 6.15665e-05 0)
(0.00224154 6.5328e-05 0)
(0.00215907 6.87924e-05 0)
(0.0020723 7.19576e-05 0)
(0.00198161 7.48213e-05 0)
(0.00188738 7.73801e-05 0)
(0.00179002 7.96291e-05 0)
(0.00168992 8.15617e-05 0)
(0.0015875 8.31685e-05 0)
(0.00148319 8.44368e-05 0)
(0.00137743 8.53501e-05 0)
(0.00127071 8.58874e-05 0)
(0.00116351 8.60221e-05 0)
(0.00105639 8.57216e-05 0)
(0.000949912 8.49464e-05 0)
(0.000844718 8.36494e-05 0)
(0.000741499 8.17754e-05 0)
(0.000641014 7.92605e-05 0)
(0.000544099 7.60323e-05 0)
(0.000451674 7.20107e-05 0)
(0.000364746 6.711e-05 0)
(0.000284408 6.12432e-05 0)
(0.000211828 5.43315e-05 0)
(0.000148222 4.63215e-05 0)
(9.47992e-05 3.72188e-05 0)
(5.26532e-05 2.71531e-05 0)
(2.25756e-05 1.65014e-05 0)
(4.69723e-06 6.11318e-06 0)
(-2.20411e-06 -2.20532e-06 0)
(-1.25715e-06 -4.59199e-06 0)
(1.19312e-06 -5.19228e-06 0)
(8.96902e-06 -1.43397e-05 0)
(2.10396e-05 -2.09643e-05 0)
(3.60774e-05 -2.458e-05 0)
(5.20965e-05 -2.5501e-05 0)
(6.75856e-05 -2.42362e-05 0)
(8.13207e-05 -2.12918e-05 0)
(9.23366e-05 -1.71134e-05 0)
(9.99125e-05 -1.20715e-05 0)
(0.00010354 -6.46427e-06 0)
(0.000102885 -5.27401e-07 0)
(9.77608e-05 5.5557e-06 0)
(8.80912e-05 1.16444e-05 0)
(7.38916e-05 1.7633e-05 0)
(5.52449e-05 2.34444e-05 0)
(3.22836e-05 2.9025e-05 0)
(5.17529e-06 3.434e-05 0)
(-2.58902e-05 3.93701e-05 0)
(-6.07108e-05 4.41085e-05 0)
(-9.9081e-05 4.85582e-05 0)
(-0.000140798 5.27301e-05 0)
(-0.000185669 5.66411e-05 0)
(-0.000233511 6.03129e-05 0)
(-0.00028416 6.37701e-05 0)
(-0.000337467 6.70397e-05 0)
(-0.000393305 7.01499e-05 0)
(-0.000451567 7.31294e-05 0)
(-0.000512164 7.60066e-05 0)
(-0.00057503 7.88092e-05 0)
(-0.000640119 8.15638e-05 0)
(-0.000707403 8.42954e-05 0)
(-0.00077687 8.70272e-05 0)
(-0.000848528 8.97802e-05 0)
(-0.000922396 9.25734e-05 0)
(-0.00099851 9.54233e-05 0)
(-0.00107691 9.83442e-05 0)
(-0.00115767 0.000101348 0)
(-0.00124083 0.000104443 0)
(-0.00132646 0.000107638 0)
(-0.00141465 0.000110937 0)
(-0.00150547 0.000114342 0)
(-0.001599 0.000117853 0)
(-0.0016953 0.000121469 0)
(-0.00179446 0.000125185 0)
(-0.00189655 0.000128997 0)
(-0.00200163 0.000132897 0)
(-0.00210976 0.000136875 0)
(-0.002221 0.000140922 0)
(-0.00233538 0.000145024 0)
(-0.00245294 0.00014917 0)
(-0.00257369 0.000153344 0)
(-0.00269766 0.00015753 0)
(-0.00282483 0.000161712 0)
(-0.0029552 0.000165872 0)
(-0.00308873 0.000169992 0)
(-0.00322537 0.000174052 0)
(-0.00336507 0.000178031 0)
(-0.00350774 0.000181909 0)
(-0.0036533 0.000185664 0)
(-0.00380164 0.000189273 0)
(-0.00395261 0.000192714 0)
(-0.00410609 0.000195962 0)
(-0.0042619 0.000198995 0)
(-0.00441986 0.000201788 0)
(-0.00457977 0.000204315 0)
(-0.0047414 0.000206551 0)
(-0.00490451 0.000208472 0)
(-0.00506884 0.000210051 0)
(-0.00523411 0.000211262 0)
(-0.00540002 0.000212079 0)
(-0.00556624 0.000212478 0)
(-0.00573244 0.000212431 0)
(-0.00589826 0.000211914 0)
(-0.00606331 0.000210901 0)
(-0.00622721 0.000209369 0)
(-0.00638952 0.000207293 0)
(-0.00654983 0.00020465 0)
(-0.00670769 0.000201419 0)
(-0.00686262 0.000197578 0)
(-0.00701415 0.000193109 0)
(-0.00716179 0.000187993 0)
(-0.00730504 0.000182216 0)
(-0.00744337 0.000175762 0)
(-0.00757627 0.00016862 0)
(-0.0077032 0.000160781 0)
(-0.00782364 0.000152237 0)
(-0.00793703 0.000142986 0)
(-0.00804286 0.000133025 0)
(-0.00814057 0.000122356 0)
(-0.00822964 0.000110987 0)
(-0.00830954 9.89238e-05 0)
(-0.00837975 8.61809e-05 0)
(-0.00843977 7.27741e-05 0)
(-0.00848912 5.87236e-05 0)
(-0.00852731 4.40536e-05 0)
(-0.00855391 2.87925e-05 0)
(-0.00856848 1.29723e-05 0)
(-0.00857063 -3.37037e-06 0)
(-0.00855999 -2.01952e-05 0)
(-0.00853623 -3.74576e-05 0)
(-0.00849903 -5.51091e-05 0)
(-0.00844815 -7.30976e-05 0)
(-0.00838337 -9.1367e-05 0)
(-0.00830449 -0.000109858 0)
(-0.00821141 -0.000128507 0)
(-0.00810403 -0.000147249 0)
(-0.00798233 -0.000166015 0)
(-0.00784633 -0.000184734 0)
(-0.0076961 -0.000203333 0)
(-0.00753178 -0.000221735 0)
(-0.00735355 -0.000239866 0)
(-0.00716165 -0.000257647 0)
(-0.0069564 -0.000275002 0)
(-0.00673815 -0.00029185 0)
(-0.00650732 -0.000308116 0)
(-0.00626438 -0.000323723 0)
(-0.00600986 -0.000338596 0)
(-0.00574435 -0.000352661 0)
(-0.00546848 -0.000365849 0)
(-0.00518294 -0.000378092 0)
(-0.00488847 -0.000389325 0)
(-0.00458585 -0.00039949 0)
(-0.0042759 -0.000408531 0)
(-0.00395948 -0.000416397 0)
(-0.00363749 -0.000423044 0)
(-0.00331086 -0.000428432 0)
(-0.00298054 -0.000432529 0)
(-0.00264751 -0.000435309 0)
(-0.00231277 -0.000436751 0)
(-0.00197731 -0.000436842 0)
(-0.00164215 -0.000435578 0)
(-0.00130831 -0.00043296 0)
(-0.000976788 -0.000428996 0)
(-0.000648601 -0.000423703 0)
(-0.000324733 -0.000417105 0)
(-6.15334e-06 -0.000409231 0)
(0.000306192 -0.000400119 0)
(0.000611385 -0.000389814 0)
(0.000908544 -0.000378364 0)
(0.00119682 -0.000365828 0)
(0.00147542 -0.000352265 0)
(0.00174358 -0.000337743 0)
(0.00200059 -0.000322333 0)
(0.00224581 -0.000306111 0)
(0.00247863 -0.000289154 0)
(0.00269852 -0.000271545 0)
(0.002905 -0.000253366 0)
(0.00309765 -0.000234703 0)
(0.00327611 -0.000215642 0)
(0.00344011 -0.000196269 0)
(0.0035894 -0.000176669 0)
(0.00372383 -0.000156927 0)
(0.0038433 -0.000137126 0)
(0.00394776 -0.000117347 0)
(0.00403723 -9.7668e-05 0)
(0.0041118 -7.81638e-05 0)
(0.00417159 -5.89056e-05 0)
(0.00421679 -3.99606e-05 0)
(0.00424764 -2.13913e-05 0)
(0.00426441 -3.25606e-06 0)
(0.00426744 1.4392e-05 0)
(0.00425708 3.15046e-05 0)
(0.00423374 4.80384e-05 0)
(0.00419785 6.39553e-05 0)
(0.00414988 7.92217e-05 0)
(0.00409032 9.38091e-05 0)
(0.00401967 0.000107693 0)
(0.00393847 0.000120854 0)
(0.00384727 0.000133275 0)
(0.00374662 0.000144942 0)
(0.00363711 0.000155845 0)
(0.00351932 0.000165975 0)
(0.00339384 0.000175321 0)
(0.00326128 0.000183877 0)
(0.00312226 0.000191633 0)
(0.00297739 0.000198575 0)
(0.00282732 0.00020469 0)
(0.0026727 0.000209956 0)
(0.00251421 0.000214347 0)
(0.00235254 0.000217828 0)
(0.00218842 0.000220355 0)
(0.00202263 0.000221874 0)
(0.00185597 0.000222317 0)
(0.00168932 0.000221601 0)
(0.00152359 0.000219631 0)
(0.00135979 0.000216291 0)
(0.00119901 0.00021145 0)
(0.00104243 0.000204958 0)
(0.000891327 0.000196652 0)
(0.000747088 0.000186355 0)
(0.000611202 0.000173885 0)
(0.000485254 0.000159073 0)
(0.000370895 0.000141784 0)
(0.000269797 0.000121961 0)
(0.000183562 9.97056e-05 0)
(0.000113579 7.54099e-05 0)
(6.07888e-05 4.99886e-05 0)
(2.53354e-05 2.52639e-05 0)
(6.15149e-06 4.7102e-06 0)
(-7.83672e-08 -4.94124e-06 0)
(1.47096e-06 -1.0041e-05 0)
(1.083e-05 -2.55855e-05 0)
(2.47683e-05 -3.60283e-05 0)
(4.15848e-05 -4.13769e-05 0)
(5.89261e-05 -4.22509e-05 0)
(7.50657e-05 -3.9453e-05 0)
(8.86042e-05 -3.37806e-05 0)
(9.84196e-05 -2.59517e-05 0)
(0.000103657 -1.65796e-05 0)
(0.000103698 -6.17155e-06 0)
(9.81279e-05 4.86167e-06 0)
(8.67004e-05 1.61937e-05 0)
(6.93082e-05 2.75699e-05 0)
(4.59545e-05 3.87955e-05 0)
(1.67282e-05 4.97263e-05 0)
(-1.82171e-05 6.02594e-05 0)
(-5.86817e-05 7.03267e-05 0)
(-0.000104435 7.98883e-05 0)
(-0.00015523 8.89276e-05 0)
(-0.000210811 9.74464e-05 0)
(-0.000270925 0.000105462 0)
(-0.00033533 0.000113002 0)
(-0.000403795 0.000120104 0)
(-0.00047611 0.000126812 0)
(-0.000552088 0.000133174 0)
(-0.000631564 0.000139241 0)
(-0.000714401 0.000145065 0)
(-0.000800484 0.000150698 0)
(-0.000889729 0.00015619 0)
(-0.000982072 0.000161591 0)
(-0.00107748 0.000166946 0)
(-0.00117593 0.000172298 0)
(-0.00127744 0.000177687 0)
(-0.00138202 0.000183147 0)
(-0.00148973 0.000188709 0)
(-0.00160062 0.0001944 0)
(-0.00171476 0.000200242 0)
(-0.00183222 0.000206252 0)
(-0.00195311 0.000212442 0)
(-0.00207751 0.000218823 0)
(-0.00220552 0.000225398 0)
(-0.00233723 0.000232167 0)
(-0.00247275 0.000239127 0)
(-0.00261216 0.00024627 0)
(-0.00275556 0.000253587 0)
(-0.00290304 0.000261061 0)
(-0.00305465 0.000268677 0)
(-0.00321046 0.000276413 0)
(-0.00337053 0.000284247 0)
(-0.00353489 0.000292152 0)
(-0.00370356 0.000300102 0)
(-0.00387655 0.000308065 0)
(-0.00405384 0.00031601 0)
(-0.00423541 0.000323901 0)
(-0.00442121 0.000331704 0)
(-0.00461117 0.000339381 0)
(-0.00480519 0.000346892 0)
(-0.00500316 0.000354197 0)
(-0.00520496 0.000361254 0)
(-0.0054104 0.00036802 0)
(-0.00561933 0.00037445 0)
(-0.00583151 0.000380501 0)
(-0.00604673 0.000386125 0)
(-0.00626472 0.000391276 0)
(-0.0064852 0.000395905 0)
(-0.00670785 0.000399966 0)
(-0.00693234 0.000403409 0)
(-0.00715831 0.000406185 0)
(-0.00738536 0.000408245 0)
(-0.00761307 0.000409541 0)
(-0.00784101 0.000410022 0)
(-0.00806871 0.000409642 0)
(-0.00829566 0.000408352 0)
(-0.00852135 0.000406105 0)
(-0.00874524 0.000402857 0)
(-0.00896676 0.000398562 0)
(-0.00918532 0.000393178 0)
(-0.00940032 0.000386666 0)
(-0.00961111 0.000378986 0)
(-0.00981705 0.000370106 0)
(-0.0100175 0.000359991 0)
(-0.0102117 0.000348615 0)
(-0.0103991 0.000335952 0)
(-0.0105789 0.000321982 0)
(-0.0107503 0.00030669 0)
(-0.0109128 0.000290066 0)
(-0.0110656 0.000272102 0)
(-0.0112079 0.000252802 0)
(-0.0113391 0.000232169 0)
(-0.0114584 0.000210218 0)
(-0.0115652 0.000186967 0)
(-0.0116588 0.000162443 0)
(-0.0117384 0.000136678 0)
(-0.0118036 0.000109713 0)
(-0.0118536 8.15963e-05 0)
(-0.011888 5.23823e-05 0)
(-0.011906 2.21341e-05 0)
(-0.0119073 -9.07829e-06 0)
(-0.0118913 -4.1177e-05 0)
(-0.0118577 -7.40771e-05 0)
(-0.011806 -0.000107686 0)
(-0.0117359 -0.000141905 0)
(-0.0116472 -0.000176629 0)
(-0.0115396 -0.000211744 0)
(-0.011413 -0.000247132 0)
(-0.0112672 -0.000282671 0)
(-0.0111024 -0.000318231 0)
(-0.0109184 -0.000353679 0)
(-0.0107155 -0.000388879 0)
(-0.0104938 -0.000423691 0)
(-0.0102535 -0.000457972 0)
(-0.00999512 -0.00049158 0)
(-0.00971893 -0.00052437 0)
(-0.00942545 -0.000556197 0)
(-0.00911524 -0.000586918 0)
(-0.00878892 -0.000616393 0)
(-0.00844721 -0.000644482 0)
(-0.00809087 -0.000671052 0)
(-0.00772075 -0.000695971 0)
(-0.00733775 -0.000719116 0)
(-0.00694283 -0.00074037 0)
(-0.00653703 -0.000759622 0)
(-0.00612142 -0.00077677 0)
(-0.00569712 -0.000791722 0)
(-0.00526532 -0.000804395 0)
(-0.00482723 -0.000814716 0)
(-0.00438409 -0.000822625 0)
(-0.00393718 -0.000828072 0)
(-0.0034878 -0.000831022 0)
(-0.00303727 -0.000831448 0)
(-0.0025869 -0.000829341 0)
(-0.00213803 -0.000824703 0)
(-0.00169197 -0.000817549 0)
(-0.00125006 -0.000807907 0)
(-0.000813575 -0.000795819 0)
(-0.000383799 -0.000781341 0)
(3.80242e-05 -0.000764539 0)
(0.000450686 -0.000745493 0)
(0.000853019 -0.000724293 0)
(0.0012439 -0.000701043 0)
(0.00162227 -0.000675854 0)
(0.00198712 -0.000648847 0)
(0.0023375 -0.000620154 0)
(0.00267254 -0.000589911 0)
(0.00299142 -0.000558262 0)
(0.00329342 -0.000525357 0)
(0.00357787 -0.00049135 0)
(0.00384421 -0.000456396 0)
(0.00409193 -0.000420655 0)
(0.00432062 -0.000384287 0)
(0.00452996 -0.000347449 0)
(0.00471967 -0.000310299 0)
(0.00488961 -0.000272992 0)
(0.00503967 -0.000235679 0)
(0.00516985 -0.000198507 0)
(0.00528021 -0.000161616 0)
(0.00537089 -0.000125141 0)
(0.00544209 -8.92083e-05 0)
(0.0054941 -5.39385e-05 0)
(0.00552724 -1.94425e-05 0)
(0.00554193 1.4177e-05 0)
(0.0055386 4.68263e-05 0)
(0.00551776 7.84206e-05 0)
(0.00547996 0.000108884 0)
(0.00542579 0.00013815 0)
(0.00535588 0.00016616 0)
(0.00527088 0.000192864 0)
(0.00517148 0.000218219 0)
(0.00505841 0.000242189 0)
(0.0049324 0.000264743 0)
(0.0047942 0.000285855 0)
(0.00464461 0.000305501 0)
(0.0044844 0.000323661 0)
(0.00431439 0.000340313 0)
(0.0041354 0.000355433 0)
(0.00394829 0.000368995 0)
(0.00375391 0.000380963 0)
(0.00355317 0.000391297 0)
(0.00334696 0.000399942 0)
(0.00313626 0.000406832 0)
(0.00292204 0.000411883 0)
(0.00270535 0.000414993 0)
(0.00248729 0.000416039 0)
(0.00226902 0.000414872 0)
(0.00205179 0.000411318 0)
(0.00183692 0.000405177 0)
(0.00162585 0.00039622 0)
(0.00142011 0.000384194 0)
(0.00122134 0.000368825 0)
(0.0010313 0.000349827 0)
(0.000851842 0.000326919 0)
(0.000684922 0.000299853 0)
(0.000532531 0.000268461 0)
(0.000396647 0.000232726 0)
(0.000279138 0.000192911 0)
(0.000181616 0.000149752 0)
(0.000105208 0.000104776 0)
(5.03167e-05 6.07831e-05 0)
(1.66491e-05 2.26845e-05 0)
(1.34601e-06 -7.88398e-07 0)
(1.56876e-06 -1.5534e-05 0)
(1.14468e-05 -3.79599e-05 0)
(2.57647e-05 -5.21061e-05 0)
(4.2522e-05 -5.87202e-05 0)
(5.91046e-05 -5.8865e-05 0)
(7.36359e-05 -5.36974e-05 0)
(8.46096e-05 -4.43335e-05 0)
(9.08162e-05 -3.17813e-05 0)
(9.13259e-05 -1.69134e-05 0)
(8.54587e-05 -4.64587e-07 0)
(7.27508e-05 1.69604e-05 0)
(5.29221e-05 3.48731e-05 0)
(2.58449e-05 5.28866e-05 0)
(-8.48432e-06 7.07013e-05 0)
(-4.99711e-05 8.80918e-05 0)
(-9.84462e-05 0.000104895 0)
(-0.000153686 0.000121002 0)
(-0.00021543 0.000136344 0)
(-0.000283395 0.000150892 0)
(-0.000357289 0.000164644 0)
(-0.00043682 0.000177622 0)
(-0.000521706 0.000189868 0)
(-0.000611681 0.000201437 0)
(-0.000706499 0.000212394 0)
(-0.000805939 0.000222813 0)
(-0.000909811 0.000232771 0)
(-0.00101795 0.000242349 0)
(-0.00113022 0.000251626 0)
(-0.00124653 0.000260681 0)
(-0.0013668 0.000269591 0)
(-0.00149098 0.000278426 0)
(-0.00161906 0.000287255 0)
(-0.00175104 0.000296137 0)
(-0.00188696 0.000305128 0)
(-0.00202687 0.000314277 0)
(-0.00217083 0.000323624 0)
(-0.00231893 0.000333205 0)
(-0.00247126 0.000343046 0)
(-0.00262792 0.000353169 0)
(-0.00278903 0.000363585 0)
(-0.0029547 0.000374303 0)
(-0.00312505 0.000385322 0)
(-0.00330019 0.000396636 0)
(-0.00348023 0.000408233 0)
(-0.00366526 0.000420095 0)
(-0.0038554 0.000432198 0)
(-0.00405071 0.000444515 0)
(-0.00425127 0.000457013 0)
(-0.00445713 0.000469653 0)
(-0.00466833 0.000482394 0)
(-0.00488488 0.000495191 0)
(-0.00510679 0.000507994 0)
(-0.00533403 0.00052075 0)
(-0.00556655 0.000533405 0)
(-0.00580428 0.000545899 0)
(-0.00604712 0.000558171 0)
(-0.00629495 0.000570158 0)
(-0.00654762 0.000581794 0)
(-0.00680495 0.00059301 0)
(-0.00706672 0.000603736 0)
(-0.00733269 0.000613902 0)
(-0.00760259 0.000623433 0)
(-0.00787613 0.000632255 0)
(-0.00815296 0.000640293 0)
(-0.00843271 0.000647468 0)
(-0.008715 0.000653704 0)
(-0.00899937 0.000658922 0)
(-0.00928538 0.000663043 0)
(-0.00957252 0.000665989 0)
(-0.00986026 0.000667682 0)
(-0.010148 0.000668043 0)
(-0.0104353 0.000666996 0)
(-0.0107213 0.000664465 0)
(-0.0110055 0.000660375 0)
(-0.0112872 0.000654656 0)
(-0.0115657 0.000647239 0)
(-0.0118401 0.000638056 0)
(-0.0121099 0.000627045 0)
(-0.0123741 0.000614149 0)
(-0.0126321 0.000599314 0)
(-0.0128828 0.00058249 0)
(-0.0131256 0.000563636 0)
(-0.0133596 0.000542716 0)
(-0.0135838 0.0005197 0)
(-0.0137975 0.000494566 0)
(-0.0139997 0.000467302 0)
(-0.0141895 0.000437901 0)
(-0.0143662 0.000406368 0)
(-0.0145288 0.000372718 0)
(-0.0146765 0.000336973 0)
(-0.0148084 0.000299168 0)
(-0.0149237 0.000259348 0)
(-0.0150216 0.000217569 0)
(-0.0151014 0.0001739 0)
(-0.0151623 0.000128419 0)
(-0.0152037 8.12162e-05 0)
(-0.0152248 3.23954e-05 0)
(-0.015225 -1.79297e-05 0)
(-0.0152039 -6.96334e-05 0)
(-0.0151609 -0.000122578 0)
(-0.0150955 -0.000176617 0)
(-0.0150074 -0.00023159 0)
(-0.0148963 -0.000287328 0)
(-0.0147619 -0.000343653 0)
(-0.0146041 -0.000400377 0)
(-0.0144228 -0.000457304 0)
(-0.0142179 -0.000514231 0)
(-0.0139896 -0.000570947 0)
(-0.013738 -0.000627239 0)
(-0.0134633 -0.000682884 0)
(-0.0131659 -0.000737662 0)
(-0.0128463 -0.000791345 0)
(-0.0125048 -0.000843709 0)
(-0.0121421 -0.000894527 0)
(-0.0117589 -0.000943575 0)
(-0.011356 -0.000990633 0)
(-0.0109343 -0.00103549 0)
(-0.0104945 -0.00107792 0)
(-0.0100379 -0.00111774 0)
(-0.00956541 -0.00115475 0)
(-0.00907828 -0.00118876 0)
(-0.00857773 -0.0012196 0)
(-0.00806505 -0.00124712 0)
(-0.00754162 -0.00127116 0)
(-0.00700883 -0.00129161 0)
(-0.00646816 -0.00130834 0)
(-0.00592109 -0.00132127 0)
(-0.00536917 -0.00133031 0)
(-0.00481396 -0.00133541 0)
(-0.00425704 -0.00133652 0)
(-0.0037 -0.00133364 0)
(-0.00314445 -0.00132675 0)
(-0.00259197 -0.00131588 0)
(-0.00204417 -0.00130108 0)
(-0.0015026 -0.00128241 0)
(-0.000968817 -0.00125995 0)
(-0.000444318 -0.0012338 0)
(6.94231e-05 -0.00120408 0)
(0.000570986 -0.00117094 0)
(0.001059 -0.00113453 0)
(0.00153217 -0.00109503 0)
(0.00198925 -0.00105261 0)
(0.00242908 -0.00100748 0)
(0.00285057 -0.000959863 0)
(0.00325271 -0.000909968 0)
(0.00363459 -0.000858032 0)
(0.00399537 -0.000804293 0)
(0.00433433 -0.000748996 0)
(0.00465083 -0.000692388 0)
(0.00494432 -0.000634718 0)
(0.00521435 -0.000576236 0)
(0.00546058 -0.000517188 0)
(0.00568275 -0.000457819 0)
(0.00588071 -0.000398367 0)
(0.00605441 -0.000339065 0)
(0.00620387 -0.000280136 0)
(0.00632921 -0.000221794 0)
(0.00643064 -0.000164244 0)
(0.00650846 -0.000107678 0)
(0.00656303 -5.22755e-05 0)
(0.00659478 1.79589e-06 0)
(0.00660424 5.4383e-05 0)
(0.00659198 0.000105346 0)
(0.00655863 0.000154559 0)
(0.00650488 0.00020191 0)
(0.00643146 0.000247299 0)
(0.00633917 0.000290639 0)
(0.00622882 0.000331854 0)
(0.00610128 0.000370881 0)
(0.00595742 0.00040766 0)
(0.00579817 0.000442144 0)
(0.00562449 0.000474288 0)
(0.00543733 0.000504049 0)
(0.0052377 0.000531385 0)
(0.00502662 0.000556253 0)
(0.00480514 0.000578601 0)
(0.00457432 0.00059837 0)
(0.00433528 0.000615488 0)
(0.00408915 0.000629866 0)
(0.00383714 0.000641396 0)
(0.00358046 0.000649946 0)
(0.00332041 0.000655355 0)
(0.00305835 0.000657432 0)
(0.00279572 0.000655952 0)
(0.00253403 0.000650655 0)
(0.0022749 0.000641242 0)
(0.00202005 0.00062738 0)
(0.00177131 0.000608703 0)
(0.00153062 0.000584826 0)
(0.00130003 0.000555355 0)
(0.00108168 0.000519918 0)
(0.000877809 0.000478205 0)
(0.000690653 0.000430038 0)
(0.000522433 0.000375469 0)
(0.000375246 0.000314945 0)
(0.000250947 0.000249543 0)
(0.000150964 0.000181331 0)
(7.61973e-05 0.000113871 0)
(2.74971e-05 5.30319e-05 0)
(2.74572e-06 8.547e-06 0)
(1.53233e-06 -2.11049e-05 0)
(1.105e-05 -5.02461e-05 0)
(2.44525e-05 -6.76122e-05 0)
(3.95345e-05 -7.47702e-05 0)
(5.354e-05 -7.33145e-05 0)
(6.44997e-05 -6.48096e-05 0)
(7.08493e-05 -5.07172e-05 0)
(7.13385e-05 -3.23488e-05 0)
(6.50069e-05 -1.08463e-05 0)
(5.11495e-05 1.28197e-05 0)
(2.92838e-05 3.78407e-05 0)
(-8.82413e-07 6.35562e-05 0)
(-3.94818e-05 8.94369e-05 0)
(-8.65157e-05 0.000115068 0)
(-0.000141881 0.000140135 0)
(-0.000205392 0.000164407 0)
(-0.000276806 0.000187726 0)
(-0.000355838 0.000209994 0)
(-0.000442175 0.000231164 0)
(-0.000535498 0.000251228 0)
(-0.000635483 0.000270215 0)
(-0.000741819 0.000288178 0)
(-0.00085421 0.000305193 0)
(-0.000972385 0.00032135 0)
(-0.0010961 0.000336749 0)
(-0.00122513 0.000351499 0)
(-0.00135931 0.000365712 0)
(-0.00149849 0.000379499 0)
(-0.00164254 0.000392972 0)
(-0.0017914 0.000406237 0)
(-0.00194501 0.000419395 0)
(-0.00210335 0.000432542 0)
(-0.00226644 0.000445764 0)
(-0.0024343 0.000459138 0)
(-0.002607 0.000472734 0)
(-0.00278461 0.00048661 0)
(-0.00296724 0.000500814 0)
(-0.00315498 0.000515387 0)
(-0.00334796 0.000530355 0)
(-0.00354629 0.000545738 0)
(-0.00375012 0.000561545 0)
(-0.00395957 0.000577775 0)
(-0.00417476 0.000594419 0)
(-0.00439583 0.000611458 0)
(-0.00462287 0.000628866 0)
(-0.004856 0.000646608 0)