/*--------------------------------*- C++ -*----------------------------------*\
  =========                 |
  \\      /  F ield         | OpenFOAM: The Open Source CFD Toolbox
   \\    /   O peration     | Website:  https://openfoam.org
    \\  /    A nd           | Version:  6
     \\/     M anipulation  |
\*---------------------------------------------------------------------------*/
FoamFile
{
    version     2.0;
    format      ascii;
    class       volScalarField;
    location    "0";
    object      p;
}
// * * * * * * * * * * * * * * * * * * * * * * * * * * * * * * * * * * * * * //

dimensions      [0 2 -2 0 0 0 0];

internalField   nonuniform List<scalar> 
145945
(
2.57627e-06
2.5759e-06
2.57584e-06
2.57581e-06
2.5759e-06
2.57595e-06
2.57603e-06
2.57607e-06
2.5761e-06
2.57609e-06
2.57608e-06
2.57602e-06
2.57599e-06
2.57592e-06
2.57599e-06
2.57602e-06
2.57642e-06
2.5759e-06
2.57572e-06
2.57568e-06
2.5757e-06
2.57579e-06
2.57586e-06
2.57593e-06
2.57598e-06
2.57601e-06
2.57601e-06
2.57599e-06
2.57593e-06
2.57589e-06
2.57583e-06
2.57585e-06
2.57585e-06
2.57605e-06
2.57584e-06
2.57568e-06
2.57564e-06
2.5757e-06
2.5758e-06
2.57589e-06
2.57597e-06
2.57602e-06
2.57605e-06
2.57604e-06
2.57602e-06
2.57596e-06
2.57591e-06
2.57584e-06
2.57582e-06
2.57583e-06
2.57599e-06
2.57581e-06
2.5757e-06
2.5757e-06
2.5758e-06
2.57591e-06
2.57601e-06
2.57609e-06
2.57614e-06
2.57618e-06
2.57617e-06
2.57615e-06
2.57609e-06
2.57603e-06
2.57595e-06
2.57589e-06
2.57586e-06
2.57597e-06
2.5759e-06
2.57579e-06
2.5758e-06
2.57591e-06
2.57603e-06
2.57613e-06
2.57621e-06
2.57627e-06
2.5763e-06
2.5763e-06
2.57627e-06
2.57622e-06
2.57615e-06
2.57607e-06
2.576e-06
2.57596e-06
2.57606e-06
2.57595e-06
2.57586e-06
2.57589e-06
2.57601e-06
2.57613e-06
2.57624e-06
2.57632e-06
2.57638e-06
2.57641e-06
2.57641e-06
2.57638e-06
2.57632e-06
2.57625e-06
2.57617e-06
2.57609e-06
2.57603e-06
2.57612e-06
2.57603e-06
2.57593e-06
2.57597e-06
2.57609e-06
2.57621e-06
2.57632e-06
2.5764e-06
2.57646e-06
2.57649e-06
2.57649e-06
2.57646e-06
2.57641e-06
2.57634e-06
2.57625e-06
2.57617e-06
2.57611e-06
2.5762e-06
2.57607e-06
2.57598e-06
2.57602e-06
2.57614e-06
2.57627e-06
2.57638e-06
2.57646e-06
2.57652e-06
2.57655e-06
2.57655e-06
2.57652e-06
2.57647e-06
2.5764e-06
2.57631e-06
2.57622e-06
2.57616e-06
2.57624e-06
2.5761e-06
2.57601e-06
2.57605e-06
2.57618e-06
2.5763e-06
2.57641e-06
2.57649e-06
2.57655e-06
2.57658e-06
2.57658e-06
2.57655e-06
2.5765e-06
2.57643e-06
2.57634e-06
2.57626e-06
2.57619e-06
2.57627e-06
2.57609e-06
2.57601e-06
2.57604e-06
2.57617e-06
2.5763e-06
2.57641e-06
2.57649e-06
2.57655e-06
2.57658e-06
2.57658e-06
2.57655e-06
2.5765e-06
2.57643e-06
2.57634e-06
2.57625e-06
2.57618e-06
2.57626e-06
2.57608e-06
2.57599e-06
2.57602e-06
2.57615e-06
2.57627e-06
2.57638e-06
2.57646e-06
2.57652e-06
2.57655e-06
2.57655e-06
2.57652e-06
2.57647e-06
2.5764e-06
2.57631e-06
2.57623e-06
2.57616e-06
2.57625e-06
2.57602e-06
2.57593e-06
2.57596e-06
2.57609e-06
2.57622e-06
2.57632e-06
2.57641e-06
2.57647e-06
2.5765e-06
2.5765e-06
2.57647e-06
2.57641e-06
2.57634e-06
2.57625e-06
2.57617e-06
2.5761e-06
2.57619e-06
2.57599e-06
2.57589e-06
2.57592e-06
2.57603e-06
2.57615e-06
2.57625e-06
2.57634e-06
2.5764e-06
2.57643e-06
2.57643e-06
2.5764e-06
2.57634e-06
2.57627e-06
2.57619e-06
2.57611e-06
2.57607e-06
2.57616e-06
2.57592e-06
2.57583e-06
2.57584e-06
2.57595e-06
2.57607e-06
2.57617e-06
2.57625e-06
2.57631e-06
2.57634e-06
2.57634e-06
2.57631e-06
2.57625e-06
2.57619e-06
2.5761e-06
2.57604e-06
2.57599e-06
2.57609e-06
2.57599e-06
2.57585e-06
2.57582e-06
2.57589e-06
2.576e-06
2.57609e-06
2.57617e-06
2.57622e-06
2.57626e-06
2.57625e-06
2.57623e-06
2.57617e-06
2.57612e-06
2.57604e-06
2.57601e-06
2.576e-06
2.57615e-06
2.57602e-06
2.57585e-06
2.57583e-06
2.57586e-06
2.57596e-06
2.57603e-06
2.57611e-06
2.57616e-06
2.57619e-06
2.57619e-06
2.57616e-06
2.57611e-06
2.57607e-06
2.57599e-06
2.576e-06
2.57599e-06
2.57617e-06
2.57642e-06
2.57605e-06
2.576e-06
2.57597e-06
2.57606e-06
2.57612e-06
2.5762e-06
2.57624e-06
2.57628e-06
2.57627e-06
2.57625e-06
2.57619e-06
2.57616e-06
2.57609e-06
2.57615e-06
2.57617e-06
2.57657e-06
2.50379e-06
2.50368e-06
2.50384e-06
2.50401e-06
2.50424e-06
2.50444e-06
2.50461e-06
2.50472e-06
2.50477e-06
2.50475e-06
2.50467e-06
2.50452e-06
2.50435e-06
2.50413e-06
2.50398e-06
2.50379e-06
2.50389e-06
2.50368e-06
2.50375e-06
2.50394e-06
2.50417e-06
2.50443e-06
2.50465e-06
2.50484e-06
2.50495e-06
2.50501e-06
2.50499e-06
2.5049e-06
2.50474e-06
2.50455e-06
2.5043e-06
2.50409e-06
2.50387e-06
2.50379e-06
2.50384e-06
2.50394e-06
2.50415e-06
2.50443e-06
2.50471e-06
2.50496e-06
2.50516e-06
2.50529e-06
2.50534e-06
2.50532e-06
2.50522e-06
2.50505e-06
2.50484e-06
2.50457e-06
2.50432e-06
2.50408e-06
2.50395e-06
2.50401e-06
2.50417e-06
2.50443e-06
2.50474e-06
2.50505e-06
2.50531e-06
2.50552e-06
2.50566e-06
2.50572e-06
2.50569e-06
2.50559e-06
2.50541e-06
2.50518e-06
2.5049e-06
2.5046e-06
2.50432e-06
2.50412e-06
2.50424e-06
2.50443e-06
2.50471e-06
2.50505e-06
2.50537e-06
2.50565e-06
2.50586e-06
2.506e-06
2.50607e-06
2.50604e-06
2.50594e-06
2.50575e-06
2.50551e-06
2.50521e-06
2.5049e-06
2.50458e-06
2.50436e-06
2.50444e-06
2.50465e-06
2.50496e-06
2.50531e-06
2.50565e-06
2.50593e-06
2.50615e-06
2.5063e-06
2.50636e-06
2.50634e-06
2.50623e-06
2.50604e-06
2.50579e-06
2.50548e-06
2.50515e-06
2.50481e-06
2.50456e-06
2.50461e-06
2.50484e-06
2.50516e-06
2.50552e-06
2.50586e-06
2.50615e-06
2.50638e-06
2.50652e-06
2.50659e-06
2.50656e-06
2.50645e-06
2.50626e-06
2.50601e-06
2.50569e-06
2.50535e-06
2.505e-06
2.50473e-06
2.50472e-06
2.50495e-06
2.50529e-06
2.50566e-06
2.506e-06
2.5063e-06
2.50652e-06
2.50667e-06
2.50673e-06
2.50671e-06
2.5066e-06
2.50641e-06
2.50615e-06
2.50583e-06
2.50548e-06
2.50512e-06
2.50484e-06
2.50477e-06
2.50501e-06
2.50534e-06
2.50572e-06
2.50607e-06
2.50636e-06
2.50659e-06
2.50673e-06
2.5068e-06
2.50677e-06
2.50666e-06
2.50647e-06
2.50621e-06
2.50589e-06
2.50554e-06
2.50518e-06
2.50489e-06
2.50475e-06
2.50499e-06
2.50532e-06
2.50569e-06
2.50604e-06
2.50634e-06
2.50656e-06
2.50671e-06
2.50677e-06
2.50675e-06
2.50664e-06
2.50645e-06
2.50619e-06
2.50587e-06
2.50552e-06
2.50515e-06
2.50487e-06
2.50467e-06
2.5049e-06
2.50522e-06
2.50559e-06
2.50594e-06
2.50623e-06
2.50645e-06
2.5066e-06
2.50666e-06
2.50664e-06
2.50653e-06
2.50634e-06
2.50608e-06
2.50577e-06
2.50542e-06
2.50506e-06
2.50479e-06
2.50452e-06
2.50474e-06
2.50505e-06
2.50541e-06
2.50575e-06
2.50604e-06
2.50626e-06
2.50641e-06
2.50647e-06
2.50645e-06
2.50634e-06
2.50615e-06
2.5059e-06
2.50559e-06
2.50525e-06
2.5049e-06
2.50464e-06
2.50435e-06
2.50455e-06
2.50484e-06
2.50518e-06
2.50551e-06
2.50579e-06
2.50601e-06
2.50615e-06
2.50621e-06
2.50619e-06
2.50608e-06
2.5059e-06
2.50565e-06
2.50535e-06
2.50502e-06
2.5047e-06
2.50447e-06
2.50413e-06
2.50431e-06
2.50457e-06
2.5049e-06
2.50521e-06
2.50548e-06
2.50569e-06
2.50583e-06
2.50589e-06
2.50587e-06
2.50577e-06
2.50559e-06
2.50535e-06
2.50506e-06
2.50475e-06
2.50446e-06
2.50425e-06
2.50398e-06
2.5041e-06
2.50432e-06
2.5046e-06
2.5049e-06
2.50515e-06
2.50535e-06
2.50548e-06
2.50554e-06
2.50552e-06
2.50542e-06
2.50525e-06
2.50502e-06
2.50475e-06
2.50449e-06
2.50424e-06
2.50409e-06
2.50379e-06
2.50387e-06
2.50408e-06
2.50432e-06
2.50458e-06
2.50481e-06
2.505e-06
2.50512e-06
2.50518e-06
2.50516e-06
2.50506e-06
2.5049e-06
2.5047e-06
2.50446e-06
2.50424e-06
2.504e-06
2.5039e-06
2.50389e-06
2.50379e-06
2.50395e-06
2.50412e-06
2.50436e-06
2.50456e-06
2.50473e-06
2.50484e-06
2.50489e-06
2.50487e-06
2.50479e-06
2.50464e-06
2.50447e-06
2.50425e-06
2.50409e-06
2.5039e-06
2.50399e-06
2.45419e-06
2.45515e-06
2.45606e-06
2.45686e-06
2.45759e-06
2.45813e-06
2.45853e-06
2.45877e-06
2.45886e-06
2.4588e-06
2.4586e-06
2.45824e-06
2.45774e-06
2.45703e-06
2.45622e-06
2.45521e-06
2.4542e-06
2.45515e-06
2.45603e-06
2.45691e-06
2.45772e-06
2.45843e-06
2.45897e-06
2.45937e-06
2.45961e-06
2.4597e-06
2.45965e-06
2.45944e-06
2.45908e-06
2.45857e-06
2.45788e-06
2.45706e-06
2.45608e-06
2.45517e-06
2.45606e-06
2.45691e-06
2.45773e-06
2.45851e-06
2.4592e-06
2.45973e-06
2.46012e-06
2.46036e-06
2.46045e-06
2.4604e-06
2.4602e-06
2.45984e-06
2.45934e-06
2.45867e-06
2.45786e-06
2.45695e-06
2.45608e-06
2.45686e-06
2.45772e-06
2.45851e-06
2.45927e-06
2.45994e-06
2.46047e-06
2.46085e-06
2.46109e-06
2.46118e-06
2.46112e-06
2.46092e-06
2.46057e-06
2.46008e-06
2.45943e-06
2.45863e-06
2.45776e-06
2.45688e-06
2.45759e-06
2.45843e-06
2.4592e-06
2.45994e-06
2.4606e-06
2.46112e-06
2.46149e-06
2.46173e-06
2.46182e-06
2.46176e-06
2.46156e-06
2.46122e-06
2.46074e-06
2.4601e-06
2.45932e-06
2.45847e-06
2.45761e-06
2.45813e-06
2.45897e-06
2.45973e-06
2.46047e-06
2.46112e-06
2.46163e-06
2.46201e-06
2.46224e-06
2.46232e-06
2.46227e-06
2.46208e-06
2.46174e-06
2.46125e-06
2.46062e-06
2.45985e-06
2.45901e-06
2.45815e-06
2.45853e-06
2.45937e-06
2.46012e-06
2.46085e-06
2.46149e-06
2.46201e-06
2.46238e-06
2.4626e-06
2.46269e-06
2.46264e-06
2.46245e-06
2.46211e-06
2.46163e-06
2.461e-06
2.46024e-06
2.45941e-06
2.45855e-06
2.45877e-06
2.45961e-06
2.46036e-06
2.46108e-06
2.46173e-06
2.46224e-06
2.4626e-06
2.46283e-06
2.46292e-06
2.46287e-06
2.46267e-06
2.46234e-06
2.46186e-06
2.46124e-06
2.46048e-06
2.45965e-06
2.45879e-06
2.45886e-06
2.4597e-06
2.46045e-06
2.46118e-06
2.46182e-06
2.46232e-06
2.46269e-06
2.46292e-06
2.46301e-06
2.46296e-06
2.46276e-06
2.46243e-06
2.46195e-06
2.46133e-06
2.46057e-06
2.45974e-06
2.45888e-06
2.45881e-06
2.45965e-06
2.4604e-06
2.46112e-06
2.46176e-06
2.46227e-06
2.46264e-06
2.46287e-06
2.46296e-06
2.4629e-06
2.46271e-06
2.46237e-06
2.4619e-06
2.46127e-06
2.46051e-06
2.45968e-06
2.45882e-06
2.4586e-06
2.45944e-06
2.4602e-06
2.46092e-06
2.46157e-06
2.46208e-06
2.46245e-06
2.46267e-06
2.46276e-06
2.46271e-06
2.46252e-06
2.46218e-06
2.4617e-06
2.46107e-06
2.46031e-06
2.45948e-06
2.45862e-06
2.45824e-06
2.45908e-06
2.45984e-06
2.46057e-06
2.46122e-06
2.46174e-06
2.46211e-06
2.46234e-06
2.46243e-06
2.46237e-06
2.46218e-06
2.46184e-06
2.46136e-06
2.46073e-06
2.45996e-06
2.45912e-06
2.45826e-06
2.45774e-06
2.45857e-06
2.45934e-06
2.46008e-06
2.46074e-06
2.46126e-06
2.46163e-06
2.46186e-06
2.46195e-06
2.4619e-06
2.4617e-06
2.46136e-06
2.46087e-06
2.46023e-06
2.45946e-06
2.45861e-06
2.45775e-06
2.45703e-06
2.45788e-06
2.45867e-06
2.45943e-06
2.4601e-06
2.46062e-06
2.461e-06
2.46124e-06
2.46133e-06
2.46127e-06
2.46107e-06
2.46073e-06
2.46023e-06
2.45958e-06
2.45879e-06
2.45792e-06
2.45705e-06
2.45622e-06
2.45706e-06
2.45786e-06
2.45863e-06
2.45932e-06
2.45985e-06
2.46024e-06
2.46048e-06
2.46057e-06
2.46051e-06
2.46031e-06
2.45996e-06
2.45946e-06
2.45879e-06
2.45799e-06
2.4571e-06
2.45623e-06
2.45521e-06
2.45608e-06
2.45695e-06
2.45776e-06
2.45847e-06
2.45901e-06
2.45941e-06
2.45965e-06
2.45974e-06
2.45969e-06
2.45948e-06
2.45912e-06
2.45861e-06
2.45792e-06
2.4571e-06
2.45613e-06
2.45523e-06
2.4542e-06
2.45517e-06
2.45608e-06
2.45688e-06
2.45761e-06
2.45815e-06
2.45855e-06
2.45879e-06
2.45888e-06
2.45882e-06
2.45862e-06
2.45826e-06
2.45775e-06
2.45705e-06
2.45623e-06
2.45523e-06
2.45422e-06
2.40297e-06
2.40472e-06
2.40632e-06
2.40783e-06
2.40912e-06
2.41007e-06
2.41075e-06
2.41116e-06
2.41132e-06
2.41122e-06
2.41087e-06
2.41024e-06
2.40936e-06
2.40814e-06
2.40663e-06
2.40489e-06
2.40301e-06
2.40472e-06
2.40619e-06
2.40774e-06
2.40922e-06
2.41047e-06
2.4114e-06
2.41207e-06
2.41247e-06
2.41263e-06
2.41253e-06
2.41218e-06
2.41157e-06
2.41071e-06
2.40953e-06
2.40806e-06
2.40636e-06
2.40477e-06
2.40632e-06
2.40774e-06
2.40923e-06
2.41065e-06
2.41184e-06
2.41274e-06
2.41337e-06
2.41376e-06
2.41391e-06
2.41382e-06
2.41348e-06
2.4129e-06
2.41207e-06
2.41095e-06
2.40953e-06
2.4079e-06
2.40637e-06
2.40783e-06
2.40922e-06
2.41065e-06
2.41201e-06
2.41316e-06
2.41403e-06
2.41464e-06
2.41501e-06
2.41516e-06
2.41507e-06
2.41475e-06
2.41419e-06
2.41338e-06
2.41231e-06
2.41094e-06
2.40937e-06
2.40789e-06
2.40912e-06
2.41047e-06
2.41184e-06
2.41316e-06
2.41427e-06
2.41511e-06
2.4157e-06
2.41607e-06
2.41621e-06
2.41612e-06
2.41581e-06
2.41527e-06
2.41449e-06
2.41345e-06
2.41213e-06
2.41062e-06
2.40917e-06
2.41007e-06
2.4114e-06
2.41274e-06
2.41403e-06
2.41511e-06
2.41593e-06
2.41651e-06
2.41686e-06
2.417e-06
2.41692e-06
2.41661e-06
2.41608e-06
2.41532e-06
2.41431e-06
2.41302e-06
2.41155e-06
2.41013e-06
2.41075e-06
2.41207e-06
2.41337e-06
2.41464e-06
2.4157e-06
2.41651e-06
2.41708e-06
2.41743e-06
2.41757e-06
2.41748e-06
2.41718e-06
2.41666e-06
2.41592e-06
2.41492e-06
2.41365e-06
2.41222e-06
2.41081e-06
2.41116e-06
2.41247e-06
2.41376e-06
2.41501e-06
2.41607e-06
2.41687e-06
2.41743e-06
2.41778e-06
2.41791e-06
2.41783e-06
2.41753e-06
2.41702e-06
2.41628e-06
2.41529e-06
2.41404e-06
2.41262e-06
2.41122e-06
2.41132e-06
2.41263e-06
2.41391e-06
2.41516e-06
2.41621e-06
2.417e-06
2.41757e-06
2.41791e-06
2.41804e-06
2.41796e-06
2.41767e-06
2.41715e-06
2.41642e-06
2.41543e-06
2.41419e-06
2.41277e-06
2.41138e-06
2.41122e-06
2.41253e-06
2.41382e-06
2.41507e-06
2.41612e-06
2.41692e-06
2.41748e-06
2.41783e-06
2.41796e-06
2.41788e-06
2.41758e-06
2.41707e-06
2.41633e-06
2.41535e-06
2.41409e-06
2.41268e-06
2.41128e-06
2.41087e-06
2.41218e-06
2.41348e-06
2.41475e-06
2.41581e-06
2.41661e-06
2.41718e-06
2.41753e-06
2.41767e-06
2.41758e-06
2.41728e-06
2.41677e-06
2.41602e-06
2.41503e-06
2.41376e-06
2.41233e-06
2.41092e-06
2.41024e-06
2.41157e-06
2.4129e-06
2.41419e-06
2.41527e-06
2.41608e-06
2.41666e-06
2.41702e-06
2.41715e-06
2.41707e-06
2.41677e-06
2.41624e-06
2.41548e-06
2.41447e-06
2.41318e-06
2.41172e-06
2.4103e-06
2.40936e-06
2.41071e-06
2.41207e-06
2.41338e-06
2.41449e-06
2.41532e-06
2.41592e-06
2.41628e-06
2.41642e-06
2.41633e-06
2.41602e-06
2.41548e-06
2.41471e-06
2.41367e-06
2.41236e-06
2.41086e-06
2.40941e-06
2.40815e-06
2.40953e-06
2.41095e-06
2.41231e-06
2.41345e-06
2.41431e-06
2.41492e-06
2.41529e-06
2.41544e-06
2.41535e-06
2.41503e-06
2.41447e-06
2.41367e-06
2.4126e-06
2.41124e-06
2.40968e-06
2.4082e-06
2.40663e-06
2.40806e-06
2.40953e-06
2.41094e-06
2.41213e-06
2.41302e-06
2.41365e-06
2.41404e-06
2.41419e-06
2.4141e-06
2.41376e-06
2.41318e-06
2.41236e-06
2.41124e-06
2.40984e-06
2.40821e-06
2.40669e-06
2.40489e-06
2.40636e-06
2.4079e-06
2.40937e-06
2.41062e-06
2.41155e-06
2.41222e-06
2.41262e-06
2.41278e-06
2.41268e-06
2.41233e-06
2.41172e-06
2.41086e-06
2.40968e-06
2.40821e-06
2.40652e-06
2.40495e-06
2.40301e-06
2.40477e-06
2.40637e-06
2.40789e-06
2.40917e-06
2.41013e-06
2.41081e-06
2.41122e-06
2.41138e-06
2.41128e-06
2.41092e-06
2.4103e-06
2.40941e-06
2.4082e-06
2.40669e-06
2.40494e-06
2.40306e-06
2.3525e-06
2.35453e-06
2.35634e-06
2.35811e-06
2.3596e-06
2.36072e-06
2.36153e-06
2.36201e-06
2.3622e-06
2.36208e-06
2.36166e-06
2.36092e-06
2.35987e-06
2.35846e-06
2.35667e-06
2.35471e-06
2.35254e-06
2.35453e-06
2.35623e-06
2.35801e-06
2.35974e-06
2.36121e-06
2.36232e-06
2.36311e-06
2.3636e-06
2.36378e-06
2.36366e-06
2.36324e-06
2.36251e-06
2.36148e-06
2.36009e-06
2.35834e-06
2.35639e-06
2.35457e-06
2.35634e-06
2.35801e-06
2.35976e-06
2.36143e-06
2.36285e-06
2.36392e-06
2.36469e-06
2.36516e-06
2.36534e-06
2.36523e-06
2.36482e-06
2.36412e-06
2.36311e-06
2.36177e-06
2.36009e-06
2.35816e-06
2.35638e-06
2.35811e-06
2.35974e-06
2.36143e-06
2.36305e-06
2.36442e-06
2.36547e-06
2.36622e-06
2.36667e-06
2.36685e-06
2.36674e-06
2.36634e-06
2.36566e-06
2.36468e-06
2.36338e-06
2.36175e-06
2.35989e-06
2.35816e-06
2.3596e-06
2.36121e-06
2.36285e-06
2.36442e-06
2.36576e-06
2.36678e-06
2.36751e-06
2.36795e-06
2.36812e-06
2.36801e-06
2.36763e-06
2.36696e-06
2.36601e-06
2.36475e-06
2.36316e-06
2.36136e-06
2.35964e-06
2.36072e-06
2.36232e-06
2.36392e-06
2.36547e-06
2.36678e-06
2.36778e-06
2.36849e-06
2.36893e-06
2.3691e-06
2.36899e-06
2.36861e-06
2.36796e-06
2.36703e-06
2.36579e-06
2.36424e-06
2.36247e-06
2.36076e-06
2.36153e-06
2.36311e-06
2.36469e-06
2.36622e-06
2.36751e-06
2.36849e-06
2.36919e-06
2.36962e-06
2.36979e-06
2.36969e-06
2.36932e-06
2.36867e-06
2.36776e-06
2.36654e-06
2.365e-06
2.36327e-06
2.36157e-06
2.36201e-06
2.3636e-06
2.36516e-06
2.36667e-06
2.36795e-06
2.36893e-06
2.36963e-06
2.37005e-06
2.37022e-06
2.37011e-06
2.36975e-06
2.36911e-06
2.3682e-06
2.36699e-06
2.36547e-06
2.36375e-06
2.36206e-06
2.3622e-06
2.36378e-06
2.36534e-06
2.36685e-06
2.36812e-06
2.3691e-06
2.36979e-06
2.37022e-06
2.37038e-06
2.37028e-06
2.36991e-06
2.36928e-06
2.36837e-06
2.36717e-06
2.36565e-06
2.36394e-06
2.36225e-06
2.36208e-06
2.36366e-06
2.36523e-06
2.36674e-06
2.36801e-06
2.36899e-06
2.36969e-06
2.37011e-06
2.37028e-06
2.37018e-06
2.36981e-06
2.36917e-06
2.36826e-06
2.36706e-06
2.36554e-06
2.36382e-06
2.36213e-06
2.36166e-06
2.36324e-06
2.36482e-06
2.36634e-06
2.36763e-06
2.36862e-06
2.36932e-06
2.36975e-06
2.36991e-06
2.36981e-06
2.36944e-06
2.3688e-06
2.36788e-06
2.36666e-06
2.36513e-06
2.3634e-06
2.3617e-06
2.36092e-06
2.36251e-06
2.36412e-06
2.36566e-06
2.36696e-06
2.36796e-06
2.36867e-06
2.36911e-06
2.36928e-06
2.36917e-06
2.3688e-06
2.36815e-06
2.36722e-06
2.36598e-06
2.36443e-06
2.36267e-06
2.36096e-06
2.35987e-06
2.36148e-06
2.36311e-06
2.36468e-06
2.36601e-06
2.36703e-06
2.36776e-06
2.3682e-06
2.36837e-06
2.36826e-06
2.36788e-06
2.36722e-06
2.36627e-06
2.36501e-06
2.36343e-06
2.36163e-06
2.35991e-06
2.35846e-06
2.36009e-06
2.36177e-06
2.36338e-06
2.36475e-06
2.3658e-06
2.36654e-06
2.36699e-06
2.36717e-06
2.36706e-06
2.36666e-06
2.36598e-06
2.36501e-06
2.36372e-06
2.36209e-06
2.36024e-06
2.3585e-06
2.35667e-06
2.35835e-06
2.36009e-06
2.36176e-06
2.36317e-06
2.36424e-06
2.365e-06
2.36547e-06
2.36565e-06
2.36554e-06
2.36513e-06
2.36443e-06
2.36343e-06
2.36209e-06
2.36042e-06
2.3585e-06
2.35671e-06
2.35471e-06
2.35639e-06
2.35816e-06
2.35989e-06
2.36136e-06
2.36247e-06
2.36327e-06
2.36375e-06
2.36394e-06
2.36382e-06
2.3634e-06
2.36267e-06
2.36163e-06
2.36024e-06
2.3585e-06
2.35656e-06
2.35475e-06
2.35254e-06
2.35457e-06
2.35638e-06
2.35816e-06
2.35964e-06
2.36077e-06
2.36157e-06
2.36206e-06
2.36225e-06
2.36213e-06
2.3617e-06
2.36096e-06
2.35991e-06
2.3585e-06
2.35671e-06
2.35475e-06
2.35257e-06
2.30574e-06
2.30785e-06
2.30972e-06
2.31159e-06
2.31314e-06
2.31432e-06
2.31517e-06
2.31568e-06
2.31588e-06
2.31575e-06
2.3153e-06
2.31452e-06
2.31341e-06
2.31194e-06
2.31004e-06
2.30802e-06
2.30576e-06
2.30786e-06
2.30963e-06
2.31148e-06
2.31331e-06
2.31485e-06
2.31604e-06
2.31688e-06
2.3174e-06
2.31759e-06
2.31746e-06
2.31701e-06
2.31624e-06
2.31513e-06
2.31366e-06
2.31181e-06
2.30978e-06
2.30787e-06
2.30972e-06
2.31148e-06
2.31333e-06
2.3151e-06
2.31661e-06
2.31776e-06
2.31858e-06
2.31908e-06
2.31927e-06
2.31915e-06
2.31871e-06
2.31795e-06
2.31688e-06
2.31545e-06
2.31365e-06
2.31162e-06
2.30974e-06
2.31159e-06
2.31331e-06
2.3151e-06
2.31683e-06
2.31829e-06
2.31942e-06
2.32022e-06
2.32071e-06
2.3209e-06
2.32078e-06
2.32035e-06
2.31961e-06
2.31856e-06
2.31716e-06
2.31542e-06
2.31344e-06
2.31161e-06
2.31314e-06
2.31485e-06
2.31661e-06
2.31829e-06
2.31973e-06
2.32083e-06
2.32162e-06
2.3221e-06
2.32228e-06
2.32216e-06
2.32174e-06
2.32102e-06
2.31999e-06
2.31862e-06
2.31692e-06
2.31498e-06
2.31316e-06
2.31432e-06
2.31604e-06
2.31776e-06
2.31942e-06
2.32083e-06
2.32192e-06
2.32269e-06
2.32317e-06
2.32335e-06
2.32323e-06
2.32282e-06
2.3221e-06
2.32109e-06
2.31974e-06
2.31806e-06
2.31617e-06
2.31434e-06
2.31517e-06
2.31688e-06
2.31858e-06
2.32022e-06
2.32162e-06
2.32269e-06
2.32346e-06
2.32392e-06
2.3241e-06
2.32399e-06
2.32358e-06
2.32288e-06
2.32187e-06
2.32054e-06
2.31888e-06
2.31701e-06
2.31519e-06
2.31568e-06
2.3174e-06
2.31908e-06
2.32071e-06
2.3221e-06
2.32317e-06
2.32392e-06
2.32439e-06
2.32457e-06
2.32445e-06
2.32405e-06
2.32335e-06
2.32235e-06
2.32103e-06
2.31938e-06
2.31753e-06
2.3157e-06
2.31588e-06
2.31759e-06
2.31927e-06
2.3209e-06
2.32228e-06
2.32335e-06
2.3241e-06
2.32457e-06
2.32474e-06
2.32463e-06
2.32423e-06
2.32353e-06
2.32253e-06
2.32122e-06
2.31957e-06
2.31772e-06
2.3159e-06
2.31575e-06
2.31746e-06
2.31915e-06
2.32078e-06
2.32216e-06
2.32323e-06
2.32399e-06
2.32445e-06
2.32463e-06
2.32452e-06
2.32411e-06
2.32341e-06
2.32242e-06
2.3211e-06
2.31945e-06
2.31759e-06
2.31577e-06
2.3153e-06
2.31701e-06
2.31871e-06
2.32035e-06
2.32174e-06
2.32282e-06
2.32358e-06
2.32405e-06
2.32423e-06
2.32411e-06
2.3237e-06
2.323e-06
2.322e-06
2.32067e-06
2.31901e-06
2.31714e-06
2.31532e-06
2.31452e-06
2.31624e-06
2.31795e-06
2.31961e-06
2.32102e-06
2.32211e-06
2.32288e-06
2.32335e-06
2.32353e-06
2.32341e-06
2.323e-06
2.32229e-06
2.32128e-06
2.31994e-06
2.31826e-06
2.31637e-06
2.31454e-06
2.31341e-06
2.31513e-06
2.31688e-06
2.31856e-06
2.31999e-06
2.32109e-06
2.32187e-06
2.32235e-06
2.32253e-06
2.32242e-06
2.322e-06
2.32128e-06
2.32025e-06
2.31889e-06
2.31719e-06
2.31526e-06
2.31343e-06
2.31194e-06
2.31366e-06
2.31545e-06
2.31716e-06
2.31862e-06
2.31975e-06
2.32054e-06
2.32103e-06
2.32122e-06
2.3211e-06
2.32067e-06
2.31994e-06
2.31889e-06
2.3175e-06
2.31576e-06
2.31379e-06
2.31196e-06
2.31004e-06
2.31181e-06
2.31365e-06
2.31542e-06
2.31692e-06
2.31807e-06
2.31888e-06
2.31938e-06
2.31957e-06
2.31945e-06
2.31901e-06
2.31826e-06
2.31719e-06
2.31576e-06
2.31397e-06
2.31195e-06
2.31006e-06
2.30802e-06
2.30978e-06
2.31162e-06
2.31344e-06
2.31499e-06
2.31617e-06
2.31701e-06
2.31753e-06
2.31772e-06
2.31759e-06
2.31714e-06
2.31637e-06
2.31526e-06
2.31379e-06
2.31195e-06
2.30993e-06
2.30804e-06
2.30576e-06
2.30787e-06
2.30974e-06
2.31161e-06
2.31316e-06
2.31434e-06
2.31519e-06
2.3157e-06
2.3159e-06
2.31577e-06
2.31532e-06
2.31454e-06
2.31343e-06
2.31196e-06
2.31006e-06
2.30804e-06
2.30577e-06
2.26215e-06
2.26422e-06
2.26604e-06
2.26791e-06
2.26944e-06
2.27062e-06
2.27147e-06
2.27199e-06
2.27218e-06
2.27205e-06
2.2716e-06
2.27082e-06
2.26971e-06
2.26826e-06
2.26635e-06
2.26438e-06
2.26217e-06
2.26422e-06
2.26596e-06
2.26778e-06
2.26961e-06
2.27115e-06
2.27234e-06
2.27319e-06
2.27371e-06
2.27391e-06
2.27378e-06
2.27333e-06
2.27254e-06
2.27142e-06
2.26996e-06
2.2681e-06
2.26611e-06
2.26423e-06
2.26604e-06
2.26778e-06
2.26963e-06
2.27141e-06
2.27292e-06
2.27409e-06
2.27492e-06
2.27543e-06
2.27562e-06
2.27549e-06
2.27505e-06
2.27428e-06
2.27319e-06
2.27175e-06
2.26994e-06
2.26792e-06
2.26605e-06
2.26791e-06
2.26961e-06
2.27141e-06
2.27314e-06
2.27463e-06
2.27577e-06
2.27659e-06
2.27709e-06
2.27728e-06
2.27716e-06
2.27672e-06
2.27597e-06
2.27489e-06
2.27348e-06
2.27172e-06
2.26974e-06
2.26792e-06
2.26944e-06
2.27115e-06
2.27292e-06
2.27463e-06
2.27609e-06
2.27722e-06
2.27802e-06
2.27852e-06
2.2787e-06
2.27858e-06
2.27815e-06
2.27741e-06
2.27635e-06
2.27496e-06
2.27323e-06
2.27128e-06
2.26945e-06
2.27062e-06
2.27234e-06
2.27409e-06
2.27577e-06
2.27722e-06
2.27833e-06
2.27913e-06
2.27961e-06
2.2798e-06
2.27968e-06
2.27925e-06
2.27852e-06
2.27748e-06
2.2761e-06
2.27439e-06
2.27247e-06
2.27064e-06
2.27147e-06
2.27319e-06
2.27492e-06
2.27659e-06
2.27802e-06
2.27913e-06
2.27991e-06
2.2804e-06
2.28058e-06
2.28046e-06
2.28004e-06
2.27931e-06
2.27828e-06
2.27692e-06
2.27522e-06
2.27332e-06
2.27148e-06
2.27199e-06
2.27371e-06
2.27543e-06
2.27709e-06
2.27852e-06
2.27961e-06
2.2804e-06
2.28088e-06
2.28106e-06
2.28094e-06
2.28052e-06
2.2798e-06
2.27877e-06
2.27742e-06
2.27573e-06
2.27384e-06
2.272e-06
2.27218e-06
2.27391e-06
2.27562e-06
2.27728e-06
2.2787e-06
2.2798e-06
2.28058e-06
2.28106e-06
2.28124e-06
2.28112e-06
2.2807e-06
2.27998e-06
2.27896e-06
2.27761e-06
2.27592e-06
2.27404e-06
2.2722e-06
2.27205e-06
2.27378e-06
2.27549e-06
2.27716e-06
2.27858e-06
2.27968e-06
2.28046e-06
2.28094e-06
2.28112e-06
2.281e-06
2.28058e-06
2.27986e-06
2.27884e-06
2.27748e-06
2.2758e-06
2.27391e-06
2.27207e-06
2.2716e-06
2.27333e-06
2.27505e-06
2.27672e-06
2.27815e-06
2.27925e-06
2.28004e-06
2.28052e-06
2.2807e-06
2.28058e-06
2.28016e-06
2.27944e-06
2.2784e-06
2.27704e-06
2.27535e-06
2.27345e-06
2.27162e-06
2.27082e-06
2.27254e-06
2.27428e-06
2.27597e-06
2.27741e-06
2.27852e-06
2.27931e-06
2.2798e-06
2.27998e-06
2.27986e-06
2.27944e-06
2.27871e-06
2.27767e-06
2.27629e-06
2.27459e-06
2.27267e-06
2.27083e-06
2.26971e-06
2.27142e-06
2.27319e-06
2.27489e-06
2.27635e-06
2.27748e-06
2.27828e-06
2.27877e-06
2.27896e-06
2.27884e-06
2.2784e-06
2.27767e-06
2.27661e-06
2.27522e-06
2.2735e-06
2.27155e-06
2.26972e-06
2.26826e-06
2.26996e-06
2.27175e-06
2.27348e-06
2.27496e-06
2.2761e-06
2.27692e-06
2.27742e-06
2.27761e-06
2.27748e-06
2.27705e-06
2.27629e-06
2.27522e-06
2.27381e-06
2.27206e-06
2.27009e-06
2.26827e-06
2.26636e-06
2.2681e-06
2.26995e-06
2.27172e-06
2.27323e-06
2.27439e-06
2.27522e-06
2.27573e-06
2.27592e-06
2.2758e-06
2.27535e-06
2.27459e-06
2.2735e-06
2.27206e-06
2.27026e-06
2.26824e-06
2.26637e-06
2.26438e-06
2.26611e-06
2.26792e-06
2.26974e-06
2.27128e-06
2.27247e-06
2.27332e-06
2.27384e-06
2.27404e-06
2.27391e-06
2.27345e-06
2.27267e-06
2.27155e-06
2.27009e-06
2.26824e-06
2.26625e-06
2.26439e-06
2.26217e-06
2.26423e-06
2.26605e-06
2.26792e-06
2.26945e-06
2.27064e-06
2.27149e-06
2.272e-06
2.2722e-06
2.27207e-06
2.27162e-06
2.27083e-06
2.26972e-06
2.26827e-06
2.26637e-06
2.26439e-06
2.26218e-06
2.22122e-06
2.22313e-06
2.22483e-06
2.22659e-06
2.22803e-06
2.22916e-06
2.22996e-06
2.23045e-06
2.23064e-06
2.23052e-06
2.23009e-06
2.22934e-06
2.22828e-06
2.22692e-06
2.22512e-06
2.22328e-06
2.22124e-06
2.22313e-06
2.22476e-06
2.22646e-06
2.22819e-06
2.22965e-06
2.23079e-06
2.23161e-06
2.23211e-06
2.2323e-06
2.23217e-06
2.23173e-06
2.23098e-06
2.22991e-06
2.22852e-06
2.22676e-06
2.22489e-06
2.22314e-06
2.22483e-06
2.22646e-06
2.22821e-06
2.2299e-06
2.23134e-06
2.23246e-06
2.23326e-06
2.23375e-06
2.23394e-06
2.23382e-06
2.23339e-06
2.23265e-06
2.2316e-06
2.23022e-06
2.22851e-06
2.22659e-06
2.22484e-06
2.22659e-06
2.22819e-06
2.2299e-06
2.23156e-06
2.23298e-06
2.23409e-06
2.23488e-06
2.23537e-06
2.23555e-06
2.23543e-06
2.235e-06
2.23427e-06
2.23324e-06
2.23188e-06
2.2302e-06
2.22831e-06
2.2266e-06
2.22803e-06
2.22965e-06
2.23134e-06
2.23298e-06
2.2344e-06
2.23549e-06
2.23627e-06
2.23675e-06
2.23693e-06
2.23681e-06
2.23639e-06
2.23567e-06
2.23465e-06
2.2333e-06
2.23164e-06
2.22977e-06
2.22804e-06
2.22916e-06
2.23079e-06
2.23246e-06
2.23409e-06
2.23549e-06
2.23657e-06
2.23735e-06
2.23782e-06
2.23801e-06
2.23789e-06
2.23747e-06
2.23675e-06
2.23574e-06
2.23441e-06
2.23276e-06
2.23091e-06
2.22917e-06
2.22996e-06
2.23161e-06
2.23326e-06
2.23488e-06
2.23627e-06
2.23735e-06
2.23812e-06
2.23859e-06
2.23877e-06
2.23865e-06
2.23824e-06
2.23753e-06
2.23652e-06
2.2352e-06
2.23356e-06
2.23173e-06
2.22997e-06
2.23045e-06
2.2321e-06
2.23375e-06
2.23537e-06
2.23675e-06
2.23782e-06
2.23859e-06
2.23906e-06
2.23924e-06
2.23912e-06
2.23871e-06
2.238e-06
2.237e-06
2.23568e-06
2.23405e-06
2.23223e-06
2.23047e-06
2.23064e-06
2.2323e-06
2.23394e-06
2.23555e-06
2.23693e-06
2.23801e-06
2.23877e-06
2.23924e-06
2.23942e-06
2.2393e-06
2.23889e-06
2.23819e-06
2.23718e-06
2.23586e-06
2.23423e-06
2.23242e-06
2.23066e-06
2.23052e-06
2.23217e-06
2.23382e-06
2.23543e-06
2.23682e-06
2.23789e-06
2.23865e-06
2.23912e-06
2.2393e-06
2.23919e-06
2.23877e-06
2.23807e-06
2.23706e-06
2.23574e-06
2.23411e-06
2.23229e-06
2.23053e-06
2.23009e-06
2.23173e-06
2.23339e-06
2.235e-06
2.23639e-06
2.23747e-06
2.23824e-06
2.23871e-06
2.23889e-06
2.23877e-06
2.23836e-06
2.23765e-06
2.23664e-06
2.23532e-06
2.23368e-06
2.23185e-06
2.2301e-06
2.22934e-06
2.23098e-06
2.23265e-06
2.23428e-06
2.23567e-06
2.23676e-06
2.23753e-06
2.238e-06
2.23819e-06
2.23807e-06
2.23765e-06
2.23694e-06
2.23592e-06
2.23459e-06
2.23294e-06
2.2311e-06
2.22936e-06
2.22829e-06
2.22991e-06
2.2316e-06
2.23324e-06
2.23465e-06
2.23574e-06
2.23652e-06
2.237e-06
2.23718e-06
2.23706e-06
2.23664e-06
2.23592e-06
2.2349e-06
2.23356e-06
2.2319e-06
2.23003e-06
2.2283e-06
2.22692e-06
2.22852e-06
2.23023e-06
2.23188e-06
2.2333e-06
2.23441e-06
2.2352e-06
2.23568e-06
2.23587e-06
2.23574e-06
2.23532e-06
2.23459e-06
2.23356e-06
2.2322e-06
2.23052e-06
2.22864e-06
2.22693e-06
2.22512e-06
2.22676e-06
2.22851e-06
2.2302e-06
2.23164e-06
2.23276e-06
2.23356e-06
2.23405e-06
2.23423e-06
2.23411e-06
2.23368e-06
2.23294e-06
2.2319e-06
2.23052e-06
2.22881e-06
2.22689e-06
2.22513e-06
2.22328e-06
2.2249e-06
2.22659e-06
2.22832e-06
2.22977e-06
2.23091e-06
2.23173e-06
2.23223e-06
2.23242e-06
2.23229e-06
2.23185e-06
2.2311e-06
2.23003e-06
2.22864e-06
2.22689e-06
2.22503e-06
2.22329e-06
2.22124e-06
2.22314e-06
2.22484e-06
2.2266e-06
2.22804e-06
2.22917e-06
2.22998e-06
2.23047e-06
2.23066e-06
2.23053e-06
2.2301e-06
2.22936e-06
2.2283e-06
2.22693e-06
2.22513e-06
2.22329e-06
2.22125e-06
2.18265e-06
2.18437e-06
2.1859e-06
2.18751e-06
2.18881e-06
2.18985e-06
2.19059e-06
2.19104e-06
2.19121e-06
2.1911e-06
2.1907e-06
2.19002e-06
2.18905e-06
2.18781e-06
2.18616e-06
2.1845e-06
2.18266e-06
2.18437e-06
2.18584e-06
2.18738e-06
2.18897e-06
2.1903e-06
2.19135e-06
2.1921e-06
2.19256e-06
2.19274e-06
2.19262e-06
2.19222e-06
2.19152e-06
2.19054e-06
2.18927e-06
2.18765e-06
2.18596e-06
2.18437e-06
2.1859e-06
2.18739e-06
2.18897e-06
2.19053e-06
2.19186e-06
2.1929e-06
2.19364e-06
2.19409e-06
2.19427e-06
2.19415e-06
2.19375e-06
2.19307e-06
2.19209e-06
2.19083e-06
2.18925e-06
2.1875e-06
2.18591e-06
2.18751e-06
2.18897e-06
2.19053e-06
2.19206e-06
2.19338e-06
2.1944e-06
2.19514e-06
2.19559e-06
2.19577e-06
2.19565e-06
2.19526e-06
2.19458e-06
2.19361e-06
2.19235e-06
2.1908e-06
2.18907e-06
2.18752e-06
2.18881e-06
2.1903e-06
2.19186e-06
2.19338e-06
2.19469e-06
2.19571e-06
2.19644e-06
2.19689e-06
2.19706e-06
2.19695e-06
2.19655e-06
2.19588e-06
2.19492e-06
2.19367e-06
2.19213e-06
2.19041e-06
2.18882e-06
2.18985e-06
2.19135e-06
2.19289e-06
2.1944e-06
2.19571e-06
2.19672e-06
2.19745e-06
2.1979e-06
2.19807e-06
2.19796e-06
2.19756e-06
2.19689e-06
2.19594e-06
2.1947e-06
2.19316e-06
2.19146e-06
2.18986e-06
2.19059e-06
2.1921e-06
2.19364e-06
2.19514e-06
2.19644e-06
2.19745e-06
2.19817e-06
2.19862e-06
2.19879e-06
2.19868e-06
2.19829e-06
2.19762e-06
2.19667e-06
2.19543e-06
2.1939e-06
2.19221e-06
2.1906e-06
2.19104e-06
2.19256e-06
2.19409e-06
2.19559e-06
2.19689e-06
2.1979e-06
2.19862e-06
2.19906e-06
2.19923e-06
2.19912e-06
2.19873e-06
2.19807e-06
2.19712e-06
2.19588e-06
2.19436e-06
2.19267e-06
2.19105e-06
2.19121e-06
2.19274e-06
2.19427e-06
2.19577e-06
2.19706e-06
2.19807e-06
2.19879e-06
2.19923e-06
2.1994e-06
2.19929e-06
2.1989e-06
2.19824e-06
2.19729e-06
2.19606e-06
2.19453e-06
2.19285e-06
2.19122e-06