/*--------------------------------*- C++ -*----------------------------------*\
  =========                 |
  \\      /  F ield         | OpenFOAM: The Open Source CFD Toolbox
   \\    /   O peration     | Website:  https://openfoam.org
    \\  /    A nd           | Version:  6
     \\/     M anipulation  |
\*---------------------------------------------------------------------------*/
FoamFile
{
    version     2.0;
    format      ascii;
    class       volVectorField;
    location    "./ITHACAoutput/Offline/1";
    object      U_rec;
}
// * * * * * * * * * * * * * * * * * * * * * * * * * * * * * * * * * * * * * //

dimensions      [0 1 -1 0 0 0 0];

internalField   nonuniform List<vector> 
13046
(
(-0.251128 0.0387038 0)
(-0.735424 -0.376532 -1.8911e-21)
(-0.215372 -0.185881 -3.7787e-21)
(-0.291373 -0.0515104 0)
(-0.134965 -0.111607 -3.68329e-21)
(-0.62049 -0.364639 0)
(-0.317239 -0.0315123 6.15971e-22)
(-0.699519 -0.415332 9.15738e-22)
(-0.100282 -0.0932679 -3.95155e-21)
(-0.792923 0.311774 1.42742e-21)
(-1.41244 -0.741769 0)
(0.0526798 0.0091741 2.06039e-21)
(-0.347473 0.0700468 -1.9969e-21)
(-0.907645 -0.481738 -2.37646e-21)
(-0.110061 -0.126998 1.99791e-21)
(-0.725178 0.349761 -1.96719e-21)
(-0.000888505 -0.020159 4.84755e-21)
(-1.46955 -0.662765 -8.08129e-22)
(-0.142021 -0.0539978 0)
(-0.445675 -0.300214 -2.00846e-21)
(-0.414897 -0.168206 6.43206e-21)
(-0.737695 0.341432 -7.9237e-22)
(0.0142556 -0.0112046 -6.48257e-21)
(-1.46071 -0.681376 0)
(-0.235632 -0.0298783 2.53954e-21)
(-0.594849 -0.319217 -4.85196e-21)
(-0.216288 -0.174667 0)
(-0.35213 0.0987801 -3.57101e-21)
(-0.943705 -0.48297 7.25469e-22)
(-0.127324 -0.140809 -3.47128e-21)
(-0.249093 0.0609306 0)
(-0.765984 -0.367369 0)
(-0.239018 -0.206462 3.84521e-21)
(-0.228446 -0.055771 -2.95081e-21)
(-0.242242 -0.182806 1.37433e-21)
(-0.515861 -0.27717 8.44443e-21)
(-0.25142 -0.0821464 -4.4956e-21)
(-0.232254 -0.162473 2.16259e-21)
(-0.478385 -0.266664 -4.27774e-21)
(-0.170836 0.0752578 2.99232e-21)
(-0.46961 -0.373892 6.59199e-22)
(-0.691624 -0.261837 -3.04355e-21)
(-0.312705 -0.154353 1.99889e-21)
(-0.253292 -0.146149 3.34025e-21)
(-0.353261 -0.209927 0)
(-0.333167 -0.149392 1.36201e-21)
(-0.20366 -0.114767 -5.16232e-21)
(-0.391242 -0.241123 -6.30716e-22)
(-0.27089 0.0314628 0)
(-0.75764 -0.401513 -1.30291e-22)
(-0.166588 -0.15792 -6.90713e-23)
(-0.726422 -0.569144 3.66328e-21)
(-0.132819 0.0974014 0)
(-0.691874 -0.174664 -3.45072e-21)
(-0.815858 -0.630902 -5.21495e-21)
(-0.666874 -0.146841 -5.74182e-21)
(-0.107218 0.0853609 4.25174e-21)
(-1.32766 -0.503432 -2.16215e-22)
(-0.541329 0.306552 0)
(-0.21674 -0.204837 2.74539e-21)
(-0.518278 0.0767673 -1.92736e-21)
(-1.11052 -0.680704 1.05545e-21)
(0.0291951 -0.0209829 -8.17629e-21)
(0.0387017 -0.0193739 3.90189e-21)
(-1.40252 -0.740434 8.34456e-23)
(-0.706847 0.255281 -2.69674e-21)
(-0.503335 0.297965 0)
(-1.27178 -0.455684 0)
(-0.279742 -0.262971 0)
(-0.468114 0.277195 -1.25605e-21)
(-1.22042 -0.437552 0)
(-0.30212 -0.281632 2.1678e-21)
(-1.37491 -0.513899 0)
(-0.575995 0.326205 1.64526e-23)
(-0.195504 -0.19174 -5.41954e-23)
(-0.134155 -0.033553 0)
(-0.44509 -0.313382 2.16106e-21)
(-0.460654 -0.195701 -4.49364e-21)
(-0.119637 -0.123626 2.95742e-21)
(-0.625506 0.337853 -3.76301e-21)
(-1.42374 -0.567024 0)
(-0.256108 -0.0229853 1.35666e-21)
(-0.633588 -0.346373 0)
(-0.177676 -0.146116 0)
(0.0411738 -0.0127619 -3.4358e-21)
(-1.42204 -0.743166 3.02344e-22)
(-0.734176 0.274812 1.58498e-21)
(-0.740049 0.182392 -2.84831e-21)
(0.0710527 -0.00251483 0)
(-1.35932 -0.831553 -1.42666e-23)
(0.0499774 0.0068934 0)
(-0.811827 0.119718 0)
(-1.32955 -0.927758 -2.31549e-23)
(-0.524455 0.179213 0)
(-0.564646 0.188469 1.63755e-21)
(-1.21468 -0.627801 1.63269e-21)
(-1.25761 -0.665657 -7.35967e-22)
(-0.0344641 -0.0793057 -1.65911e-21)
(-0.00530149 -0.0574712 4.2756e-21)
(0.0702502 -0.000305719 -2.04379e-22)
(-0.734642 0.158554 2.78989e-21)
(-1.33755 -0.848478 0)
(-0.3255 -0.126345 -8.66877e-24)
(-0.175006 -0.107582 2.64497e-21)
(-0.453018 -0.281148 0)
(-0.0502685 0.0420607 0)
(-0.552876 -0.103936 -1.85677e-21)
(-0.79014 -0.569498 0)
(-0.124417 0.0782832 5.02788e-21)
(-0.643686 -0.493049 0)
(-0.651205 -0.194971 -7.05022e-21)
(-0.775614 0.328705 0)
(0.0444795 0.0209781 0)
(-1.25623 -0.680905 2.57886e-21)
(-0.313185 0.0485089 5.50891e-21)
(-0.845756 -0.446318 1.16009e-21)
(-0.123371 -0.12954 3.61848e-21)
(-0.573758 0.238755 2.07469e-21)
(-0.530974 0.20858 -3.91917e-21)
(-1.30443 -0.624793 -1.29747e-21)
(-0.0552445 -0.0880842 1.86927e-21)
(-1.24307 -0.606254 5.52858e-22)
(-0.0616902 -0.0957926 -1.74605e-21)
(-0.790298 0.325246 -9.68641e-22)
(-1.39707 -0.724868 2.22252e-21)
(0.0494028 0.0135421 -9.12099e-22)
(-0.441396 0.145501 0)
(-1.09367 -0.560517 -1.46354e-21)
(-0.0822338 -0.116741 4.09949e-21)
(-0.202107 0.0866169 0)
(-0.410356 -0.335108 -3.37019e-21)
(-0.742334 -0.298663 1.70735e-22)
(0.0448106 0.0110312 0)
(-0.775602 0.0994018 0)
(-1.31146 -0.914738 0)
(-0.639746 0.195488 0)
(-1.32084 -0.735765 -1.09294e-21)
(0.039022 -0.0272333 -4.53747e-21)
(-0.280955 0.0807711 0)
(-0.832083 -0.402485 0)
(-0.220777 -0.204932 0)
(-0.416494 -0.0139572 0)
(-0.862698 -0.545766 0)
(-0.0195921 -0.033006 0)
(-0.109202 0.0770223 0)
(-0.706519 -0.536409 0)
(-0.641215 -0.17036 3.86436e-21)
(-0.0528338 0.0309627 -4.9852e-22)
(-0.5324 -0.111385 -4.17796e-21)
(-0.769664 -0.544995 3.65947e-21)
(-0.544197 0.0981238 4.36465e-21)
(-1.15661 -0.700146 0)
(0.0352154 -0.0263288 1.05913e-20)
(-0.0552005 -0.0152677 0)
(-0.437874 -0.0969984 4.42227e-21)
(-0.692546 -0.467187 -9.40614e-22)
(-0.965895 -0.714358 0)
(-0.617263 -0.068907 4.22061e-21)
(-1.03764 -0.748834 0)
(-0.608374 -0.0314023 2.44737e-21)
(-0.0430842 0.0559629 0)
(-0.0144621 0.0413938 0)
(-0.470144 -0.0504824 5.89125e-22)
(-0.849082 -0.574206 1.75501e-21)
(-0.0143118 -0.00265165 -2.15092e-21)
(-0.809174 0.295029 -1.4579e-21)
(0.0601399 0.00781102 0)
(-1.3935 -0.766424 1.7363e-21)
(-0.783679 0.330952 -7.49432e-22)
(0.0465224 0.0208392 -4.15214e-22)
(-1.32011 -0.696687 0)
(-0.654858 0.216296 -2.35861e-21)
(-1.34456 -0.732843 0)
(0.0351722 -0.0285867 5.15152e-21)
(-0.266517 0.145226 0)
(-0.877841 -0.327123 8.22521e-22)
(-0.434792 -0.369223 1.88018e-21)
(-0.47622 -0.0698565 3.7802e-21)
(-0.0281218 0.00698892 1.0621e-21)
(-0.797511 -0.539203 0)
(0.0702215 0.00326587 0)
(-1.39113 -0.818472 0)
(-0.818618 0.253523 1.17957e-21)
(-0.230708 0.124272 0)
(-0.8158 -0.301125 -1.91574e-21)
(-0.45203 -0.368061 4.94149e-22)
(-0.0453521 -0.00111008 0)
(-0.458192 -0.0950709 0)
(-0.708035 -0.486184 0)
(-0.393208 -0.0329366 1.87403e-21)
(-0.806991 -0.51289 0)
(-0.0326333 -0.0406494 0)
(-0.982169 -0.540269 2.38199e-23)
(-0.0599607 -0.0939514 -2.48972e-21)
(-0.411092 0.122816 5.64324e-21)
(-1.04525 -0.538839 0)
(-0.0863023 -0.115637 -5.1348e-21)
(-0.758174 0.233446 -2.83581e-21)
(0.0657185 -0.00418436 3.16471e-21)
(-1.39931 -0.800586 1.01211e-21)
(0.0583489 0.00765231 2.96932e-21)
(-0.73614 0.114353 1.76844e-21)
(-1.30901 -0.880277 4.25467e-22)
(-0.796584 0.159605 -4.47356e-21)
(-1.3551 -0.882729 0)
(0.0686964 0.00201097 -2.90195e-21)
(-0.765741 -0.620065 -1.82099e-22)
(-0.784182 -0.187741 1.51652e-21)
(-0.181242 0.13738 0)
(-0.352663 0.0157248 -8.44454e-21)
(-0.614273 0.348448 1.93745e-21)
(-0.146109 -0.143091 -1.81933e-21)
(-1.42534 -0.554381 0)
(-1.36306 -0.879472 0)
(-0.819508 0.184388 -3.85609e-21)
(0.0717234 0.000408637 0)
(-0.286445 -0.0921435 -6.69456e-21)
(-0.182038 -0.126782 -2.12441e-21)
(-0.500133 -0.295617 6.20418e-21)
(-0.330993 0.107176 0)
(-0.92459 -0.456964 -1.08715e-22)
(-0.172127 -0.168883 -1.95407e-21)
(0.049473 0.0113538 2.31288e-21)
(-0.746058 0.0995738 0)
(-1.29907 -0.896885 -4.90313e-22)
(-0.37929 0.0370342 6.76238e-21)
(-0.959333 -0.544133 4.17155e-21)
(-0.0473806 -0.0823335 0)
(0.0588856 0.0117497 0)
(-1.33008 -0.752038 -2.58869e-21)
(-0.823737 0.302579 0)
(-0.150002 0.118577 0)
(-0.741478 -0.161307 0)
(-0.820661 -0.662762 0)
(-0.75988 0.144851 3.92432e-21)
(-1.34131 -0.867967 0)
(0.068124 0.00251 -3.33401e-23)
(-0.533737 -0.038936 1.61554e-21)
(-0.944253 -0.660678 -1.20654e-21)
(-0.00490831 0.0213607 0)
(-0.439662 0.16387 0)
(-1.10479 -0.545369 1.38326e-21)
(-0.108954 -0.132319 3.22186e-21)
(-1.21773 -0.897581 -2.1218e-21)
(-0.720664 0.0230016 -3.17164e-21)
(0.00067299 0.0369789 1.82083e-21)
(-0.641153 -0.0207511 0)
(-1.09263 -0.795153 -1.25524e-21)
(-0.014876 0.0439296 -6.81979e-23)
(0.0586823 0.00918112 -2.73379e-21)
(-1.30047 -0.756108 0)
(-0.835063 0.292674 -5.91564e-22)
(-0.178932 0.108855 2.71249e-21)
(-0.577413 -0.45744 -2.32424e-21)
(-0.741898 -0.244095 2.8032e-22)
(-0.709811 0.357046 6.37655e-22)
(0.0327028 0.0312199 -3.85767e-21)
(-1.25362 -0.599261 0)
(-0.131405 -0.0697209 -1.27109e-21)
(-0.372482 -0.137342 -5.21278e-21)
(-0.49034 -0.319572 6.02145e-21)
(-0.498376 0.00581067 2.0103e-21)
(-0.504544 -0.0301082 3.97808e-23)
(-0.992902 -0.653567 -3.02134e-21)
(-0.929395 -0.636009 0)
(-0.000450545 0.00826491 1.95531e-21)
(0.0163266 -0.00429234 -1.9876e-21)
(-0.0889649 -0.0951227 -3.87095e-21)
(-0.652163 0.347199 2.01269e-21)
(-1.45532 -0.583534 1.10335e-21)
(-0.404162 0.159564 0)
(-1.05977 -0.504736 0)
(-0.155956 -0.16264 -4.21588e-21)
(-0.658111 0.00895882 -8.52911e-22)
(-1.14812 -0.832956 0)
(0.00312838 0.0354571 0)
(-0.609438 0.221581 -2.00754e-21)
(-1.31782 -0.677312 0)
(-0.0020522 -0.0535996 1.82334e-21)
(-0.273897 -0.132676 1.33428e-21)
(-0.363808 -0.199594 1.92662e-21)
(-0.281461 -0.170512 -6.7364e-22)
(-0.571656 -0.0130868 -3.10883e-21)
(-1.0344 -0.724581 0)
(0.00548906 0.026093 -3.24445e-21)
(-0.413821 0.177878 0)
(-1.08598 -0.498518 1.7483e-21)
(-0.173788 -0.177538 -2.59004e-21)
(-0.384483 0.0650307 0)
(-0.418008 0.0839147 6.72513e-22)
(-0.190053 0.120572 9.67994e-22)
(-0.596136 -0.478531 6.64734e-21)
(-0.765313 -0.239959 -6.60827e-21)
(-0.578262 0.0162823 -3.22789e-21)
(-1.08592 -0.749276 2.11203e-21)
(0.0240235 0.0163177 2.96118e-21)
(-0.639483 0.229698 0)
(0.0158997 -0.0398437 -6.53014e-21)
(-1.35006 -0.703794 -1.74656e-22)
(-0.123751 0.065003 -6.9825e-21)
(-0.603955 -0.465988 0)
(-0.630773 -0.199693 2.31713e-21)
(-0.0625197 0.0700268 -3.84288e-21)
(-0.650234 -0.0783031 -2.3399e-21)
(-0.969571 -0.738243 0)
(-0.518414 0.238985 -1.97346e-21)
(-1.25234 -0.554181 -1.14716e-21)
(-0.130219 -0.141914 1.13311e-21)
(-0.163035 0.114983 3.4691e-22)
(-0.688984 -0.546268 0)
(-0.737549 -0.200046 4.76989e-21)
(-0.553649 0.260509 0)
(-0.578044 0.262139 0)
(-1.30474 -0.576965 -4.92507e-22)
(-0.112287 -0.126821 -2.98586e-21)
(-1.32671 -0.609361 6.9596e-22)
(-0.0780341 -0.0999598 3.14507e-21)
(0.0670744 0.00193473 -2.41016e-21)
(-1.4017 -0.802908 0)
(-0.798917 0.261324 -1.87492e-21)
(-0.493139 0.197674 2.32899e-21)
(-1.19328 -0.575036 0)
(-0.0936124 -0.118685 1.08073e-21)
(-1.0862 -0.599818 -9.37136e-21)
(0.0304558 0.022907 3.40127e-21)
(-0.694778 0.323658 4.60262e-22)
(-0.431932 -0.128558 -2.48821e-21)
(-0.0800285 -0.0230719 0)
(-0.598387 -0.403861 0)
(-0.47449 0.0611205 4.58334e-21)
(-1.05107 -0.635822 0)
(0.0153073 -0.0328543 6.38654e-21)
(0.0586913 -0.0108926 -2.02673e-21)
(-0.720935 0.223185 5.86968e-21)
(-1.38284 -0.779273 -2.36184e-22)
(-0.84745 -0.660183 0)
(-0.683237 -0.136725 2.078e-21)
(-0.109001 0.0943622 -4.82e-21)
(-1.24755 -0.90238 -1.65253e-21)
(-0.727046 0.0509926 -1.90327e-21)
(0.0210939 0.024935 0)
(-0.866705 -0.497237 -4.77983e-21)
(-0.0649744 -0.0849608 0)
(-0.488591 0.112701 4.7853e-21)
(-1.10835 -0.628045 1.21878e-21)
(-0.00491763 -0.0604703 1.91576e-21)
(-0.854474 -0.512954 2.69147e-21)
(-0.0460965 -0.0691083 -1.90132e-23)
(-0.708075 0.335879 -1.31935e-22)
(-0.013279 -0.0343308 2.31206e-21)
(-1.46299 -0.655205 1.18742e-21)
(-0.745918 -0.628212 0)
(-0.839228 -0.208809 4.46672e-22)
(-0.215494 0.158441 0)
(-0.522416 0.132474 -4.87218e-21)
(-1.17194 -0.656643 -1.48389e-21)
(0.00976817 -0.0495538 -2.26448e-21)
(-0.441556 -0.0215341 0)
(-0.869393 -0.569807 -2.54782e-21)
(-0.0105679 -0.0183436 0)
(-0.595535 -0.132627 0)
(-0.761644 -0.57351 0)
(-0.0778804 0.0587572 0)
(-0.27079 0.00421446 -1.87835e-21)
(-0.705438 -0.386782 -2.83785e-21)
(-0.159123 -0.144795 -9.70074e-24)
(-0.0876289 0.0854194 4.76061e-21)
(-0.67431 -0.105366 5.6768e-21)
(-0.923588 -0.711793 2.21596e-21)
(-0.774567 0.20763 -2.2631e-21)
(-1.3803 -0.827188 -9.396e-22)
(0.0724163 -0.00135615 -3.01181e-21)
(-1.25751 -0.8838 1.23992e-21)
(-0.711861 0.0654813 1.9283e-21)
(0.0354308 0.0190562 2.36623e-21)
(-0.397792 0.24351 -3.80743e-21)
(-0.39728 -0.353073 3.19664e-21)
(-1.11939 -0.381313 -2.0243e-21)
(-0.6028 0.307396 1.10761e-21)
(-0.572629 0.288685 -1.03384e-21)
(-1.34363 -0.561277 -1.55798e-22)
(-1.38336 -0.575807 0)
(-0.114565 -0.121616 -1.04868e-21)
(-0.134092 -0.140924 -9.63115e-22)
(0.0334335 0.0263058 -4.60707e-21)
(-1.13911 -0.600224 1.03258e-20)
(-0.705082 0.329435 5.15623e-22)
(-0.719788 0.360808 -5.17043e-23)
(0.0324757 0.0300939 5.33865e-21)
(-1.30155 -0.609192 0)
(-0.527826 0.0259394 -7.32489e-21)
(-1.05913 -0.689133 -5.84397e-22)
(0.0245989 -0.00194629 0)
(0.0640682 -0.00198031 -6.08522e-21)
(-0.772351 0.251101 1.86429e-21)
(-1.41039 -0.793141 0)
(-0.467743 0.251692 5.69547e-21)
(-0.499799 0.26168 -4.22006e-21)
(-1.20318 -0.476972 1.43084e-21)
(-1.24562 -0.505021 4.78572e-22)
(-0.247241 -0.231641 -1.91292e-21)
(-0.202699 -0.195219 -9.59141e-22)
(0.0675788 -0.00334239 0)
(-1.33764 -0.881478 0)
(-0.868932 0.190715 6.10862e-22)
(-0.66573 0.355702 -7.48815e-22)
(0.0292335 0.0342191 0)
(-1.19774 -0.55837 0)
(-0.423842 -0.20004 3.9193e-23)
(-0.181274 -0.0668797 2.8791e-21)
(-0.357978 -0.246969 1.35088e-21)
(-0.735095 0.337898 -9.94674e-22)
(-1.22908 -0.640245 -3.77181e-21)
(0.0381987 0.0262811 2.52081e-22)
(-0.310602 0.158153 0)
(-0.942167 -0.374303 -3.45979e-21)
(-0.353422 -0.308731 -7.09922e-23)
(-0.822938 0.238659 7.50997e-23)
(-1.38496 -0.834525 -2.74166e-21)
(0.072708 0.00189646 4.12735e-24)
(-0.957212 -0.592573 -2.6651e-22)
(0.026315 0.0111466 -1.99249e-21)
(-0.685761 0.268359 1.04844e-22)
(-0.14224 0.0515735 -2.57788e-21)
(-0.484013 -0.370571 2.17153e-21)
(-0.625508 -0.234409 7.46863e-21)
(-0.361429 -0.11028 0)
(-0.567411 -0.361345 -6.68601e-21)
(-0.109243 -0.0664374 3.37686e-21)
(-0.774659 0.341334 0)
(0.0424421 0.014595 2.71208e-21)
(-1.40451 -0.707405 -1.49718e-22)
(-0.379882 -0.100129 0)
(-0.605172 -0.388559 -2.19032e-21)
(-0.0857026 -0.0467402 -4.81298e-21)
(-0.390684 -0.189733 2.92768e-21)
(-0.203224 -0.0901772 -1.52104e-21)
(-0.345166 -0.227856 7.31728e-22)
(-0.141948 0.118217 2.29988e-21)
(-0.746654 -0.141978 -1.93537e-21)
(-0.895042 -0.725126 2.46745e-21)
(-0.469098 -0.176177 0)
(-0.49109 -0.339233 0)
(-0.112245 -0.0158938 4.15153e-22)
(-0.465815 -0.148667 3.93621e-21)
(-0.561071 -0.381132 1.68149e-21)
(-0.0939972 -0.0101369 5.80855e-23)
(-0.364056 0.226234 5.78783e-21)
(-1.05927 -0.351867 -2.47127e-21)
(-0.450898 -0.400182 -3.21066e-21)
(0.0376738 -0.000633299 4.10165e-21)
(0.0469059 0.00209534 -4.22975e-21)
(-1.44199 -0.726312 -1.21451e-21)
(-1.43091 -0.741494 -7.23207e-22)
(-0.762244 0.322543 0)
(-0.774669 0.310947 -1.46145e-21)
(-0.799294 0.214945 2.81827e-21)
(-1.38387 -0.837701 1.39943e-21)
(0.0736115 2.14711e-05 3.74193e-21)
(-0.380922 -0.349581 -2.08521e-21)
(-0.432291 0.269305 1.20973e-21)
(-1.17249 -0.394621 2.57944e-21)
(-0.19522 0.107708 -2.47616e-21)
(-0.511287 -0.409777 -2.14065e-21)
(-0.758939 -0.268133 2.25282e-21)
(-0.677293 -0.0437702 0)
(-1.08119 -0.817157 1.29947e-21)
(-0.0450717 0.060829 7.0488e-23)
(-1.09499 -0.701214 -2.97215e-21)
(0.0446904 -0.000135662 -1.87557e-21)
(-0.813386 0.258897 -2.14038e-22)
(0.0593486 0.00305541 0)
(-0.820914 0.142778 0)
(-1.33856 -0.917864 -7.28609e-22)
(-0.801142 0.319776 1.01138e-21)
(0.0526248 0.0157751 0)
(-1.34708 -0.728057 2.54116e-21)
(0.0204541 0.0140432 -7.42344e-33)
(-0.888118 -0.546453 5.00117e-21)
(-0.628501 0.26066 -1.6731e-22)
(-0.915634 -0.487023 -5.64083e-21)
(0.0196283 0.0235212 7.40591e-33)
(-0.590137 0.301461 1.35968e-22)
(-1.18737 -0.765099 -2.4984e-21)
(-0.599722 0.0787126 0)
(0.0467395 -0.000955123 -6.09337e-21)
(-1.26918 -0.826453 1.24722e-21)
(0.0624678 -0.00630771 -1.94189e-21)
(-0.890065 0.225383 0)
(-0.662343 0.188184 -3.0238e-21)
(-1.3262 -0.76196 6.06456e-22)
(0.0511547 -0.0188677 3.06128e-21)
(-0.723727 0.37834 3.74133e-21)
(-0.00167825 -0.00541722 1.58975e-21)
(-1.47039 -0.620419 0)
(-0.325027 0.0222989 1.48116e-21)
(-0.0927544 -0.103635 -1.25603e-21)
(-0.830678 -0.46547 1.19481e-21)
(-1.34434 -0.897516 -4.84496e-22)
(0.0665702 -0.0020988 2.08168e-21)
(-0.856909 0.17608 8.06657e-22)
(-0.680114 -0.0637919 -2.28747e-21)
(-0.0628683 0.0719004 -1.28015e-21)
(-1.03775 -0.790366 0)
(-1.1675 -0.827765 0)
(-0.648445 0.0310995 0)
(0.0217089 0.0258057 0)
(0.00542241 0.0124056 0)
(-0.508144 -0.276443 5.4948e-21)
(-0.353875 0.162989 -5.9157e-22)
(-1.08461 -0.629725 -3.97948e-21)
(0.0333297 0.0174452 -2.398e-21)
(-0.722999 0.307582 -3.77257e-22)
(-0.304516 3.88619e-05 -3.81675e-21)
(-0.112253 -0.112356 3.10675e-21)
(-0.753393 -0.429591 1.44678e-21)
(-1.35408 -0.849219 -3.55024e-21)
(-0.85522 0.223033 -1.15754e-21)
(0.0712153 -0.000677063 0)
(0.0649057 -0.00604044 -2.16029e-21)
(-0.888161 0.194779 0)
(-1.31065 -0.878556 2.54409e-21)
(-0.757287 0.272928 -1.69491e-21)
(0.0522925 -0.00475021 6.4232e-21)
(-1.42332 -0.762913 0)
(-0.0490954 -0.065074 -4.66745e-21)
(-1.44477 -0.627316 -2.98492e-22)
(-0.6687 0.328095 0)
(-0.349745 0.230436 -7.26402e-21)
(-1.042 -0.330334 3.14844e-21)
(-0.51473 -0.453826 -1.0076e-21)
(-1.31099 -0.529483 2.29895e-22)
(-0.542307 0.288992 2.46879e-21)
(-0.184665 -0.181153 -2.93196e-21)
(-0.0466549 -0.0551607 -4.16421e-21)
(-0.689564 0.362053 0)
(-1.48302 -0.611374 0)
(-0.333818 0.147578 -1.27075e-21)
(-0.376898 0.170365 0)
(-0.964453 -0.421577 -3.52363e-21)
(-1.03912 -0.456136 3.77088e-21)
(-0.260226 -0.232617 5.48715e-22)
(-0.230893 -0.217359 -5.8453e-22)
(-0.30352 0.142799 1.22014e-21)
(-0.92346 -0.386315 0)
(-0.316256 -0.275464 1.01049e-21)
(-0.458912 0.261385 0)
(-1.19798 -0.456868 -2.33137e-21)
(-0.283927 -0.262985 6.91841e-22)
(-1.22805 -0.857254 -7.83365e-22)
(-0.68338 0.0558028 2.10913e-21)
(0.0351674 0.0184426 -4.79913e-21)
(-1.37047 -0.868823 0)
(-0.813302 0.202565 4.23948e-21)
(0.0733711 0.000325122 0)
(0.0557019 0.00715989 -1.55091e-21)
(-0.696382 0.0999686 -1.27615e-21)
(-1.27936 -0.853149 -4.30269e-22)
(-0.984578 -0.503346 8.20298e-22)
(0.0229163 0.0271983 1.26796e-21)
(-0.617473 0.318091 0)
(-0.193259 0.058411 2.44316e-21)
(-0.204986 0.0469669 0)
(-0.358323 -0.285507 0)
(-0.695608 -0.300309 8.54386e-21)
(-0.316204 -0.255234 0)
(-0.694395 -0.320258 -5.49957e-21)
(-0.394454 0.223573 0)
(-0.348867 0.197762 0)
(-0.374803 -0.329444 3.6106e-23)
(-1.09523 -0.413914 1.95065e-21)
(-0.335582 -0.296248 5.04468e-21)
(-1.02332 -0.381646 -4.39408e-21)
(-0.945835 -0.617482 0)
(0.0298922 0.00417145 2.73652e-21)
(-0.722498 0.254682 0)
(-1.36362 -0.844561 1.6126e-21)
(-0.840704 0.221202 4.1003e-22)
(0.0726234 0.000765422 1.30655e-21)
(-0.227166 0.140938 -4.14278e-21)
(-0.571646 -0.471408 -2.2994e-21)
(-0.825344 -0.266807 6.77325e-21)
(-1.17353 -0.86702 2.03534e-21)
(-0.693985 0.00317336 5.338e-21)
(-0.00856146 0.0427024 0)
(-0.0690572 -0.0831231 4.99149e-21)
(-1.43078 -0.612289 3.175e-22)
(-0.651178 0.325167 2.61734e-21)
(-1.21659 -0.700211 0)
(-0.799156 0.306758 0)
(0.0468587 0.0144494 0)
(-1.24767 -0.735266 0)
(-0.82459 0.293031 7.59995e-22)
(0.0537152 0.00906779 4.62272e-22)
(-0.494651 0.242964 -2.41596e-21)
(-1.2267 -0.526133 6.97784e-22)
(-0.173747 -0.174029 1.41809e-21)
(-0.10432 0.0504463 -6.71117e-22)
(-0.614581 -0.45742 0)
(-0.58884 -0.178012 -3.31876e-23)
(-0.774675 0.288694 1.97483e-21)
(0.0525406 -0.000170794 3.70602e-21)
(-1.43081 -0.759273 8.41584e-22)
(-1.21101 -0.797583 0)
(-0.629764 0.0827082 0)
(0.0496278 0.00592939 5.26173e-21)
(0.0171786 -0.0340113 1.25095e-21)
(-1.38688 -0.711335 1.11328e-22)
(-0.672898 0.258429 6.01893e-21)
(-0.32491 0.189731 0)
(-0.423751 -0.367864 -3.44862e-21)
(-0.984808 -0.357034 2.37954e-21)
(-0.551545 -0.0694042 9.35669e-24)
(-0.887265 -0.631909 1.76889e-21)
(-0.0283507 0.0347116 0)
(-0.164922 0.0820835 1.60882e-23)
(-0.518166 -0.409785 -7.33333e-22)
(-0.693731 -0.248669 -2.94981e-21)
(0.0613076 0.00366263 1.1629e-23)
(-1.41212 -0.782028 -2.33615e-21)
(-0.79752 0.280925 1.96113e-21)
(-0.609578 0.246058 -1.13548e-21)
(-1.33912 -0.657471 -3.15417e-22)
(-0.0260694 -0.0659635 0)
(-0.152562 0.0415164 -2.64963e-21)
(-0.43324 -0.330992 4.7782e-21)
(-0.62343 -0.251165 -4.9271e-21)
(-0.703239 0.374232 1.56141e-21)
(-0.0327022 -0.0380133 1.81395e-21)
(-1.4912 -0.61071 1.41724e-21)
(-0.276084 0.0990526 -1.5696e-21)
(-0.84714 -0.389824 0)
(-0.260737 -0.233001 0)
(-0.403477 -0.0609542 -6.86281e-21)
(-0.733588 -0.475208 1.2979e-21)
(-0.0450338 -0.0312703 0)
(-1.15202 -0.791312 0)
(-0.616912 0.0338208 4.61155e-21)
(0.0303905 0.0193073 0)
(-0.729219 0.369995 -6.77004e-22)
(0.025385 0.0221456 -5.65099e-22)
(-1.39081 -0.625554 -3.73567e-21)
(-0.721967 0.377872 1.89401e-21)
(0.0168019 0.0169489 0)
(-1.41776 -0.613814 2.71864e-21)
(0.00288429 -0.0400509 1.10265e-21)
(-1.40261 -0.692798 3.19604e-22)
(-0.673311 0.275653 -5.52359e-21)
(-0.592961 -0.0882556 -2.09687e-21)
(-0.910642 -0.669343 -1.85207e-21)
(-0.0481542 0.0504719 0)
(0.0265504 0.0299236 5.17608e-22)
(-1.33212 -0.597839 3.48351e-21)
(-0.703489 0.36881 0)
(0.0599285 -0.0115516 0)
(-1.35611 -0.785024 1.58711e-22)
(-0.700729 0.199383 -6.94945e-22)
(0.0144815 0.0097185 2.19062e-21)
(-0.746981 -0.494354 -5.07321e-21)
(-0.5631 0.216996 0)
(-0.497103 0.279964 -4.37585e-23)
(-0.803298 -0.399283 0)
(0.0146462 0.0240443 2.17612e-21)
(-0.0376635 -0.0508305 -1.31517e-23)
(-1.46847 -0.63214 0)
(-0.690115 0.346834 0)
(0.0630589 0.00850465 0)
(-1.37259 -0.777877 0)
(-0.825197 0.287904 2.27713e-21)
(-0.743587 0.316163 -1.79518e-21)
(-0.726075 0.300369 1.45256e-21)
(0.0262175 -0.0113317 -2.06345e-21)
(-1.45376 -0.708893 3.29327e-22)
(0.0248014 -0.0177826 -3.39888e-21)
(-1.4409 -0.71391 -3.14683e-22)
(-0.704134 0.180668 1.37879e-21)
(-1.3442 -0.804089 2.54733e-23)
(0.0653462 -0.00776127 0)
(-0.0398151 0.0598863 0)
(-1.12633 -0.859029 0)
(-0.702486 -0.028029 0)
(-0.212158 0.0118151 0)
(-0.265085 -0.213388 -6.86519e-21)
(-0.643204 -0.319872 2.98e-21)
(-0.682408 0.130548 4.0496e-21)
(-1.29275 -0.823196 1.21828e-22)
(0.064342 -0.00122092 4.53326e-21)
(0.0585222 0.00341422 2.95578e-21)
(-0.672876 0.109252 -5.63013e-21)
(-1.26667 -0.828257 -1.68656e-22)
(-0.669143 0.366285 1.95402e-21)
(-0.0773031 -0.0814237 1.9848e-21)
(-1.48015 -0.584391 -1.15208e-21)
(-0.412085 0.239059 0)
(-1.12907 -0.41665 7.06322e-22)
(-0.338779 -0.304189 -4.94531e-21)
(-0.344847 0.179777 0)
(-0.998067 -0.395478 4.54126e-21)
(-0.336686 -0.299589 -1.5211e-23)
(-0.58708 0.113974 -5.54169e-21)
(-1.21272 -0.742767 2.84456e-22)
(0.0474359 -0.017373 -2.66185e-21)
(-0.609055 0.108671 0)
(-1.22343 -0.764468 2.84035e-22)
(0.0527204 -0.00941432 2.42989e-21)
(-0.141218 0.0192988 0)
(-0.433165 -0.321843 -7.51834e-21)
(-0.567882 -0.232349 2.76856e-21)
(-0.391702 0.185969 0)
(-1.06352 -0.455079 0)
(-0.2409 -0.229863 7.83746e-22)
(0.060624 -0.00147902 -4.51239e-21)
(-1.33076 -0.913715 2.36867e-21)
(-0.858735 0.157708 0)
(-0.844425 0.274873 6.83168e-22)
(0.0543667 0.00332803 0)
(-1.20903 -0.747891 -2.00833e-21)
(-0.843174 0.259484 -1.63179e-22)
(0.0508188 -0.000738782 0)
(-1.16273 -0.737987 6.02093e-21)
(-0.233584 0.111087 1.79949e-21)
(-0.401313 -0.328058 -7.7126e-22)
(-0.807051 -0.323355 -1.49017e-22)
(-1.13434 -0.666427 2.48299e-22)
(0.0410338 0.0124749 3.67731e-21)
(-0.778604 0.297692 0)
(-0.643356 0.272312 4.8128e-21)
(-0.0208905 -0.0568368 2.35003e-21)
(-1.3816 -0.665824 0)
(0.0395054 0.00524516 -5.49001e-22)
(-1.07614 -0.676386 4.06891e-21)
(-0.780423 0.271517 0)
(-0.309029 -0.0766336 4.65909e-21)
(-0.13721 -0.0994989 4.31497e-21)
(-0.574424 -0.343706 1.2417e-23)
(-0.43568 0.111086 -8.39109e-22)
(-1.0607 -0.573471 -5.12586e-22)
(-0.0488774 -0.0900816 -2.80457e-21)
(-0.840929 -0.633413 4.27087e-21)
(-0.614947 -0.116965 4.90912e-21)
(-0.074448 0.0642664 0)
(0.0658375 -0.0044006 0)
(-1.30067 -0.841512 1.35594e-21)
(-0.883261 0.221786 0)
(-1.19297 -0.809913 0)
(-0.635254 0.0641568 0)
(0.0429183 0.01226 0)
(-0.0102335 -0.0193942 0)
(-0.720675 0.369076 -1.33521e-21)
(-1.48278 -0.630698 -1.39069e-21)
(-0.47643 0.129229 0)
(-1.11435 -0.608832 2.88547e-22)
(-0.0267239 -0.075754 2.73851e-21)
(-0.210294 -0.00770721 0)
(-0.261991 -0.206457 5.91151e-21)
(-0.600944 -0.304334 0)
(-1.33486 -0.834257 3.35289e-21)
(-0.862601 0.241189 1.09916e-21)
(0.0690055 -0.000324355 0)
(0.0474282 -0.0173273 -2.57636e-21)
(-1.38126 -0.759202 -1.48524e-23)
(-0.701354 0.235681 1.58857e-22)
(-0.761163 0.350938 0)
(-0.756642 0.351786 1.04685e-21)
(0.0376421 0.0211766 -1.33101e-21)
(0.0390149 0.024287 -1.61891e-21)
(-1.37649 -0.666347 2.02769e-21)
(-1.3433 -0.66242 -1.66806e-21)
(-0.467502 0.012243 0)
(-0.963496 -0.623463 7.05646e-21)
(0.00856366 -0.0176969 3.10618e-21)
(-1.13373 -0.731948 3.55759e-21)
(-0.567519 0.0565603 0)
(0.0398259 -0.000394269 -3.29474e-21)
(-0.344615 -0.0367946 -3.8596e-21)
(-0.719439 -0.439756 2.21626e-21)
(-0.0715817 -0.0701207 5.15375e-21)
(-1.26056 -0.787906 -3.55697e-21)
(-0.86354 0.260783 9.23299e-22)
(-1.24526 -0.800324 1.84811e-21)
(0.060197 0.000834705 0)
(-0.87724 0.243164 -8.92301e-22)
(0.0597428 -0.00333207 0)
(-0.563784 0.168823 0)
(-1.23576 -0.681488 0)
(0.0106082 -0.0484903 2.95622e-21)
(-0.85371 0.257668 1.6784e-21)
(-0.856501 0.266191 -3.01257e-21)
(-1.3377 -0.811178 -2.3479e-21)
(-1.30523 -0.789908 5.1961e-21)
(0.0668687 0.00299337 3.7869e-21)
(0.0631296 0.00395744 -1.45508e-23)
(-0.555868 0.0357855 0)
(-1.0908 -0.725885 -3.72339e-21)
(0.0292411 0.00733872 4.27293e-21)
(-0.407032 0.0416584 3.69391e-21)
(-0.992787 -0.577197 -3.23585e-21)
(-0.0187367 -0.0629471 0)
(-0.733272 0.372732 0)
(0.012408 0.00541637 0)
(-1.45138 -0.637376 -2.61229e-21)
(-0.457494 0.0354018 2.75854e-21)
(-0.988851 -0.614623 -1.95546e-21)
(0.0100594 -0.0286941 -5.06986e-21)
(-0.359588 -0.011337 1.57407e-21)
(-0.801169 -0.490407 -2.60373e-21)
(-0.0494614 -0.0637653 2.91927e-21)
(-0.747008 0.35905 0)
(0.0304774 0.0194158 0)
(-1.40371 -0.655426 3.49292e-21)
(-0.486366 0.153127 0)
(-1.15615 -0.601673 4.57546e-22)
(-0.0397564 -0.0855813 -2.90663e-21)
(-1.01669 -0.794563 0)
(-0.711953 -0.0863411 0)
(-0.0906734 0.0883983 -1.6445e-22)
(-0.328882 0.200687 -1.88467e-22)
(-0.995111 -0.34243 0)
(-0.456832 -0.398301 5.21017e-21)
(-1.28351 -0.928666 5.02447e-22)
(0.0271071 0.0188365 0)
(-0.76594 0.0719932 0)
(0.010643 0.0155171 -5.25011e-21)
(-0.687934 -0.384945 -7.68711e-21)
(-0.471547 0.218525 8.27779e-22)
(-0.460449 0.0806891 0)
(-1.04634 -0.610602 1.96624e-21)
(-0.00238608 -0.0527491 -2.52822e-21)
(-0.747617 0.348053 2.66306e-21)
(0.0211286 -0.000868933 6.89976e-21)
(-1.45914 -0.674975 0)
(-0.630967 -0.540867 -1.29833e-21)
(-0.938808 -0.272188 -2.34361e-21)
(-0.281932 0.192932 -1.60141e-21)
(-0.595582 0.330364 0)
(0.0239379 0.0326682 -1.89642e-21)
(-1.03693 -0.495976 0)
(-0.0676439 0.0150663 3.25564e-21)
(-0.0729159 0.0329245 -3.32067e-21)
(-0.648244 -0.462191 0)
(-0.500514 -0.134331 3.21238e-21)
(-0.683 -0.496015 -4.71822e-21)
(-0.540695 -0.143428 -2.56528e-21)
(-0.369858 -0.0652817 3.64188e-21)
(-0.678141 -0.427571 3.08339e-21)
(-0.0686489 -0.0519081 0)
(-0.115228 0.0407034 2.96668e-21)
(-0.0926041 0.0208566 0)
(-0.542685 -0.405056 -2.72314e-21)
(-0.583104 -0.201355 2.86397e-21)
(-0.567888 -0.410575 2.74475e-21)
(-0.527509 -0.169298 1.94702e-23)
(-0.430766 0.0687329 2.30879e-22)
(-0.931663 -0.558012 -1.49196e-21)
(-0.0209028 -0.0557362 -3.55672e-21)
(-0.419828 0.0254564 -6.40451e-21)
(-0.93337 -0.570221 3.76337e-23)
(-0.0107981 -0.0429465 0)
(0.053676 -0.00543295 0)
(-1.17642 -0.77038 0)
(-0.869204 0.242457 5.527e-22)
(-0.265841 0.119747 -1.66184e-21)
(-0.85433 -0.356279 0)
(-0.339184 -0.286792 1.4172e-21)
(-0.834349 0.266116 -3.73831e-21)
(-1.37044 -0.806259 -2.07803e-21)
(0.0676055 0.00547019 -2.15866e-21)
(-0.604501 0.144024 0)
(-0.639947 0.161658 2.913e-21)
(-1.25412 -0.739261 -3.55043e-22)
(-1.29353 -0.760461 6.02842e-22)
(0.0472171 -0.0215216 -3.24556e-21)
(0.0536359 -0.0173571 -2.95394e-21)
(-0.253373 0.0983753 0)
(-0.81932 -0.360417 0)
(-0.309118 -0.265267 6.98838e-22)
(-0.438149 0.2274 1.88997e-21)
(-1.14817 -0.466795 0)
(-0.250833 -0.23295 1.64502e-21)
(-0.537779 0.123792 -1.56903e-21)
(-1.17376 -0.686315 0)
(0.0266629 -0.0364286 0)
(-0.193836 -0.0508393 3.51279e-21)
(-0.482546 -0.242472 -1.64505e-21)
(-0.306264 -0.223299 1.62146e-21)
(-0.653536 0.13497 0)
(-1.27936 -0.794224 0)
(0.0610693 -0.00686889 -4.82333e-21)
(-0.186711 0.0202791 0)
(-0.322749 -0.252289 8.41915e-22)
(-0.627014 -0.293137 0)
(-0.538599 0.0557925 -3.59922e-21)
(-1.10007 -0.70932 -2.12405e-21)
(0.0324711 -0.0097285 -4.29584e-22)
(-0.431792 0.209107 1.95455e-21)
(-1.13028 -0.481911 0)
(-0.216222 -0.21054 3.39257e-21)
(-0.18289 -0.0257081 -3.47991e-21)
(-0.1609 -0.0184538 -1.53292e-21)
(-0.526878 -0.258518 1.64982e-21)
(-0.316979 -0.237708 -3.23319e-21)
(-0.51804 -0.240496 0)
(-0.36488 -0.270198 -5.68883e-21)
(-0.118705 0.00491995 -1.50231e-21)
(-0.473828 -0.346462 3.48248e-21)
(-0.100217 0.00823765 9.65234e-22)
(-0.5205 -0.199951 -3.9174e-21)
(-0.550085 -0.393951 -1.73816e-21)
(-0.510475 -0.175156 9.98543e-23)
(-0.32086 0.127055 1.85728e-21)
(-0.355798 0.134161 0)
(-0.932219 -0.426631 2.76479e-21)
(-0.979789 -0.463558 -2.15996e-21)
(-0.231543 -0.212526 -3.21152e-21)
(-0.182169 -0.177193 5.33287e-21)
(-0.0309261 -0.0561254 0)
(-1.42744 -0.651547 2.85747e-22)
(-0.668079 0.308698 -2.71475e-21)
(-0.106449 0.0975123 2.0166e-21)
(-0.710652 -0.111775 3.05058e-21)
(-0.950005 -0.747514 -3.86663e-21)
(-0.0100623 -0.0385144 -2.35574e-21)
(0.00634862 -0.0314372 1.88956e-21)
(-1.44292 -0.673278 -2.47243e-22)
(-1.43102 -0.69334 -2.9216e-22)
(-0.694431 0.316745 6.8805e-21)
(-0.700537 0.299772 -3.5629e-21)
(-0.184147 0.1316 2.98179e-21)
(-0.705224 -0.568359 -2.14179e-21)
(-0.776141 -0.209198 6.67179e-22)
(-0.24408 -0.102275 5.9522e-21)
(-0.276991 -0.181609 0)
(-0.412696 -0.221852 -5.74162e-21)
(-0.666631 0.158679 -1.367e-21)
(-1.30592 -0.789822 -6.79066e-22)
(0.0614649 -0.00983915 0)
(-0.215297 0.0774612 0)
(-0.351686 -0.293805 -6.64962e-22)