/*--------------------------------*- C++ -*----------------------------------*\
  =========                 |
  \\      /  F ield         | OpenFOAM: The Open Source CFD Toolbox
   \\    /   O peration     | Website:  https://openfoam.org
    \\  /    A nd           | Version:  6
     \\/     M anipulation  |
\*---------------------------------------------------------------------------*/
FoamFile
{
    version     2.0;
    format      ascii;
    class       volVectorField;
    location    "0";
    object      U_rec;
}
// * * * * * * * * * * * * * * * * * * * * * * * * * * * * * * * * * * * * * //

dimensions      [0 1 -1 0 0 0 0];

internalField   nonuniform List<vector> 
13046
(
(-0.178554 0.0182974 0)
(-0.737821 -0.39853 -1.24823e-21)
(-0.218045 -0.168728 -2.48624e-21)
(-0.242 -0.0707791 0)
(-0.127345 -0.0991192 -2.5645e-21)
(-0.624913 -0.376795 0)
(-0.258612 -0.0546492 4.5127e-22)
(-0.702838 -0.427601 5.82215e-22)
(-0.0918865 -0.0776201 -2.75997e-21)
(-0.624626 0.239963 1.36315e-21)
(-1.326 -0.726181 0)
(0.0522485 0.0667604 1.36558e-21)
(-0.25136 0.0391183 -1.51985e-21)
(-0.907008 -0.502833 -1.33239e-21)
(-0.110761 -0.102385 1.34546e-21)
(-0.563749 0.273874 -1.82017e-21)
(0.000393562 0.032892 3.0446e-21)
(-1.39388 -0.664433 -1.23905e-21)
(-0.113668 -0.0523711 0)
(-0.449938 -0.300033 -1.33214e-21)
(-0.398794 -0.188264 4.59103e-21)
(-0.574437 0.265418 -7.54646e-22)
(0.0149931 0.0425651 -4.0969e-21)
(-1.38375 -0.679963 0)
(-0.185796 -0.0442265 1.85817e-21)
(-0.59783 -0.335707 -3.30258e-21)
(-0.216192 -0.16377 0)
(-0.251046 0.0656876 -2.76728e-21)
(-0.941948 -0.50646 4.20504e-22)
(-0.129451 -0.114682 -2.30382e-21)
(-0.170755 0.0402845 0)
(-0.767896 -0.392893 0)
(-0.242657 -0.188548 2.53007e-21)
(-0.189826 -0.0663006 -2.15921e-21)
(-0.241447 -0.175593 9.26467e-22)
(-0.516866 -0.291871 5.75018e-21)
(-0.220414 -0.0930877 -3.22114e-21)
(-0.228492 -0.157116 1.50016e-21)
(-0.479345 -0.278254 -2.88886e-21)
(-0.102086 0.0646686 2.26859e-21)
(-0.471563 -0.360785 4.0893e-22)
(-0.685143 -0.294838 -2.12435e-21)
(-0.299899 -0.163347 1.39856e-21)
(-0.243009 -0.147892 2.35139e-21)
(-0.350634 -0.214849 0)
(-0.31751 -0.161609 9.92754e-22)
(-0.189126 -0.114314 -3.63586e-21)
(-0.392372 -0.245184 -4.30263e-22)
(-0.196284 0.00951632 0)
(-0.760467 -0.422075 -8.35311e-23)
(-0.167916 -0.139504 -6.3981e-23)
(-0.719031 -0.557343 1.98515e-21)
(-0.0713546 0.0922882 0)
(-0.664996 -0.215659 -2.40994e-21)
(-0.80567 -0.620741 -2.82128e-21)
(-0.626852 -0.189397 -4.17199e-21)
(-0.0521082 0.0854525 3.26869e-21)
(-1.30079 -0.535177 3.56418e-24)
(-0.406001 0.243077 0)
(-0.213287 -0.166849 1.63265e-21)
(-0.399148 0.0328106 -1.49154e-21)
(-1.09464 -0.68903 4.31054e-22)
(0.0407229 0.0101155 -5.73275e-21)
(0.0386942 0.028567 2.60652e-21)
(-1.35019 -0.744035 4.3933e-22)
(-0.543597 0.190069 -2.32068e-21)
(-0.375425 0.237798 0)
(-1.25221 -0.491824 0)
(-0.274949 -0.227471 0)
(-0.345633 0.221899 -1.02551e-21)
(-1.20533 -0.475041 0)
(-0.297585 -0.248441 1.2357e-21)
(-1.34088 -0.543656 0)
(-0.435778 0.258786 7.17708e-24)
(-0.191624 -0.15134 -4.14893e-23)
(-0.0983947 -0.0331382 0)
(-0.449712 -0.310751 1.437e-21)
(-0.446713 -0.218036 -3.16141e-21)
(-0.117042 -0.0793341 1.77262e-21)
(-0.477443 0.265546 -3.24479e-21)
(-1.37745 -0.588964 0)
(-0.201503 -0.0402243 1.00601e-21)
(-0.637472 -0.36233 0)
(-0.176108 -0.133148 0)
(0.0407636 0.037371 -2.28408e-21)
(-1.36185 -0.743231 5.61308e-22)
(-0.567948 0.20688 1.37147e-21)
(-0.573744 0.123449 -2.40599e-21)
(0.0759519 0.0422992 0)
(-1.31032 -0.826455 2.6952e-22)
(0.0614336 0.0457584 0)
(-0.643683 0.0655757 0)
(-1.27794 -0.911133 -5.92265e-23)
(-0.388552 0.129012 0)
(-0.422429 0.135355 1.33298e-21)
(-1.19469 -0.646312 4.4563e-22)
(-1.23213 -0.68085 -1.79369e-22)
(-0.0353479 -0.0425363 -1.0967e-21)
(-0.00525254 -0.0184062 2.80918e-21)
(0.0776001 0.042414 -1.46314e-22)
(-0.571326 0.101314 2.35227e-21)
(-1.29137 -0.842254 0)
(-0.302578 -0.141149 3.38374e-24)
(-0.160771 -0.103658 1.87661e-21)
(-0.456242 -0.286776 0)
(-0.00740714 0.0502891 0)
(-0.505444 -0.14082 -1.36033e-21)
(-0.784679 -0.565732 0)
(-0.06423 0.0739817 3.80719e-21)
(-0.640933 -0.482983 0)
(-0.630318 -0.232059 -5.06385e-21)
(-0.618582 0.257725 0)
(0.0434898 0.0849622 0)
(-1.14771 -0.645164 2.70296e-21)
(-0.227648 0.0210653 4.18289e-21)
(-0.847112 -0.466727 7.22911e-22)
(-0.123641 -0.107775 2.39997e-21)
(-0.429423 0.180556 1.68606e-21)
(-0.393206 0.155436 -3.16565e-21)
(-1.2756 -0.644587 -3.04018e-22)
(-0.0564518 -0.0479783 1.18986e-21)
(-1.22163 -0.62766 -3.8888e-23)
(-0.0632058 -0.058362 -1.11154e-21)
(-0.624137 0.252105 -1.02507e-21)
(-1.30391 -0.705343 2.58561e-21)
(0.0490245 0.0727804 -5.98799e-22)
(-0.32054 0.103334 0)
(-1.08389 -0.582864 -6.66902e-22)
(-0.0840028 -0.084826 2.69736e-21)
(-0.126599 0.0714072 0)
(-0.412859 -0.319513 -2.10857e-21)
(-0.739684 -0.331525 1.23701e-22)
(0.0591724 0.0466723 0)
(-0.615369 0.0468252 0)
(-1.26518 -0.901617 0)
(-0.486502 0.138172 0)
(-1.28481 -0.743485 4.1925e-22)
(0.0411262 0.0151241 -3.05583e-21)
(-0.193178 0.0565594 0)
(-0.833451 -0.429152 0)
(-0.224548 -0.184273 0)
(-0.340057 -0.0474505 0)
(-0.8602 -0.553446 0)
(-0.001544 -0.0124289 0)
(-0.0521153 0.0752036 0)
(-0.701899 -0.527217 0)
(-0.613488 -0.208612 2.80462e-21)
(-0.0111881 0.0397628 -3.6414e-22)
(-0.487399 -0.14768 -3.10455e-21)
(-0.766481 -0.541924 2.21252e-21)
(-0.415346 0.0523588 3.4558e-21)
(-1.13759 -0.708936 0)
(0.0441165 0.00734354 7.4319e-21)
(-0.0254906 -0.00361541 0)
(-0.393286 -0.127584 3.22282e-21)
(-0.693984 -0.469455 -5.67397e-22)
(-0.950792 -0.708002 0)
(-0.54608 -0.11223 3.16669e-21)
(-1.01962 -0.744078 0)
(-0.519463 -0.0756464 1.8644e-21)
(-0.00175419 0.0669035 0)
(0.0201789 0.0581023 0)
(-0.402699 -0.0857657 4.43707e-22)
(-0.844936 -0.577063 9.70811e-22)
(0.0140231 0.0147082 -1.56871e-21)
(-0.637781 0.224627 -1.38629e-21)
(0.0592737 0.0649903 0)
(-1.3106 -0.748283 2.2965e-21)
(-0.622932 0.259093 -8.57669e-22)
(0.0460084 0.0833613 -2.72466e-22)
(-1.21541 -0.667444 0)
(-0.498693 0.156393 -1.97899e-21)
(-1.30489 -0.740553 0)
(0.0362025 0.0153525 3.46716e-21)
(-0.177215 0.120425 0)
(-0.874847 -0.365171 5.26702e-22)
(-0.433914 -0.348712 1.13449e-21)
(-0.420025 -0.10425 2.80303e-21)
(0.00396834 0.0206638 7.82633e-22)
(-0.79452 -0.540513 0)
(0.0703335 0.0571504 0)
(-1.31775 -0.801736 0)
(-0.643922 0.187188 1.1408e-21)
(-0.147725 0.104086 0)
(-0.812473 -0.337847 -1.26762e-21)
(-0.451942 -0.350084 3.01716e-22)
(-0.0127792 0.0101893 0)
(-0.413222 -0.126325 0)
(-0.708355 -0.487561 0)
(-0.324451 -0.0631096 1.39852e-21)
(-0.806814 -0.520794 0)
(-0.014744 -0.0219069 0)
(-0.977564 -0.558853 3.41609e-23)
(-0.0582481 -0.0660792 -1.67863e-21)
(-0.297237 0.0841908 4.3713e-21)
(-1.03846 -0.560996 0)
(-0.087812 -0.0856412 -3.37919e-21)
(-0.588746 0.169233 -2.44413e-21)
(0.067348 0.0449425 2.16486e-21)
(-1.34067 -0.79534 2.31313e-21)
(0.0711177 0.0452216 2.16795e-21)
(-0.578338 0.0608046 1.44868e-21)
(-1.26641 -0.871643 -1.01288e-21)
(-0.625368 0.102548 -3.82923e-21)
(-1.3001 -0.869829 0)
(0.0759517 0.0455244 -2.11484e-21)
(-0.753851 -0.60419 -9.67517e-23)
(-0.760113 -0.232227 1.06494e-21)
(-0.113414 0.123867 0)
(-0.271756 -0.0131481 -6.38959e-21)
(-0.468722 0.275614 1.65009e-21)
(-0.142389 -0.0993863 -1.06636e-21)
(-1.37988 -0.577818 0)
(-1.30217 -0.8633 0)
(-0.644823 0.124271 -3.46727e-21)
(0.0766891 0.047523 0)
(-0.255173 -0.106685 -4.8412e-21)
(-0.173442 -0.12019 -1.47365e-21)
(-0.503458 -0.304934 4.1549e-21)
(-0.232573 0.0754912 0)
(-0.923589 -0.48223 -6.52186e-23)
(-0.175082 -0.144047 -1.24986e-21)
(0.0641835 0.046912 1.7233e-21)
(-0.590208 0.0465322 0)
(-1.2563 -0.886223 1.16815e-21)
(-0.289646 0.00490682 5.13957e-21)
(-0.955109 -0.560402 2.26717e-21)
(-0.0434072 -0.0553344 0)
(0.057141 0.0724835 0)
(-1.23638 -0.723861 -2.9521e-21)
(-0.654752 0.232317 0)
(-0.0890087 0.110981 0)
(-0.70737 -0.205461 0)
(-0.807658 -0.648716 0)
(-0.593893 0.0887915 3.36147e-21)
(-1.29252 -0.858953 0)
(0.0764903 0.0444124 -2.90395e-23)
(-0.455542 -0.078569 1.20335e-21)
(-0.933572 -0.660205 -6.04579e-22)
(0.0269998 0.0393455 0)
(-0.318068 0.120244 0)
(-1.09489 -0.569916 6.37781e-22)
(-0.111064 -0.100233 2.08586e-21)
(-1.18429 -0.886425 1.21898e-23)
(-0.592046 -0.0257603 -2.51772e-21)
(0.0269744 0.0601621 1.39399e-21)
(-0.542735 -0.0665281 0)
(-1.07057 -0.788817 -4.04251e-22)
(0.0187029 0.0614755 -5.18558e-23)
(0.0561653 0.0703518 -1.9103e-21)
(-1.20577 -0.724407 0)
(-0.665405 0.223634 -8.24198e-22)
(-0.107019 0.0963016 2.07843e-21)
(-0.574719 -0.442917 -1.3574e-21)
(-0.730374 -0.28241 1.90156e-22)
(-0.563883 0.283691 8.40274e-22)
(0.0350983 0.0947768 -2.48217e-21)
(-1.13382 -0.567051 0)
(-0.109266 -0.0646438 -8.99295e-22)
(-0.348537 -0.156736 -3.73162e-21)
(-0.495144 -0.322784 3.97033e-21)
(-0.403486 -0.0336928 1.59443e-21)
(-0.42493 -0.0688729 5.10417e-23)
(-0.982428 -0.658261 -1.56432e-21)
(-0.920614 -0.637514 0)
(0.0278998 0.0277773 1.42582e-21)
(0.0378409 0.0197757 -1.42929e-21)
(-0.0863535 -0.0488 -2.32022e-21)
(-0.500078 0.273078 1.71443e-21)
(-1.40063 -0.602182 2.18838e-21)
(-0.288565 0.119315 0)
(-1.0531 -0.531685 0)
(-0.158669 -0.132885 -2.72903e-21)
(-0.544026 -0.0382384 -6.67307e-22)
(-1.12222 -0.826003 0)
(0.0321706 0.0573037 0)
(-0.459495 0.163345 -1.63464e-21)
(-1.2847 -0.691372 0)
(-0.00260511 -0.0117254 1.19306e-21)
(-0.258424 -0.139723 9.36392e-22)
(-0.359196 -0.207398 1.31961e-21)
(-0.275578 -0.171675 -4.75554e-22)
(-0.478044 -0.0557102 -2.36312e-21)
(-1.01827 -0.722951 0)
(0.0355365 0.0462625 -2.3988e-21)
(-0.296114 0.135718 0)
(-1.07815 -0.527211 8.36118e-22)
(-0.176087 -0.147273 -1.61039e-21)
(-0.284894 0.0316042 0)
(-0.309923 0.0469254 5.23047e-22)
(-0.116216 0.106323 7.5023e-22)
(-0.591929 -0.46322 3.86383e-21)
(-0.7533 -0.279885 -4.46092e-21)
(-0.470247 -0.027709 -2.51393e-21)
(-1.06723 -0.74904 8.41006e-22)
(0.0488122 0.0410438 2.1934e-21)
(-0.485263 0.169274 0)
(0.0157145 0.00390747 -4.28904e-21)
(-1.31111 -0.714545 5.54101e-22)
(-0.0643389 0.0619818 -5.2913e-21)
(-0.603233 -0.456424 0)
(-0.611576 -0.236137 1.63005e-21)
(-0.0181278 0.0777396 -2.94148e-21)
(-0.582825 -0.122345 -1.71324e-21)
(-0.952724 -0.729526 0)
(-0.383232 0.184373 -1.59695e-21)
(-1.23175 -0.581153 -3.57786e-22)
(-0.131309 -0.105486 6.9561e-22)
(-0.0954773 0.104799 2.67398e-22)
(-0.681888 -0.53237 0)
(-0.717504 -0.242369 3.31406e-21)
(-0.41308 0.201507 0)
(-0.433492 0.201209 0)
(-1.27788 -0.601833 1.46537e-23)
(-0.112848 -0.0879947 -1.87046e-21)
(-1.29566 -0.630743 -2.02613e-23)
(-0.0787057 -0.0593742 1.94752e-21)
(0.0673469 0.0551068 -1.63719e-21)
(-1.33123 -0.790583 0)
(-0.625868 0.193891 -1.69706e-21)
(-0.361793 0.147877 1.86996e-21)
(-1.17691 -0.598818 0)
(-0.0956191 -0.0834721 6.99172e-22)
(-0.971843 -0.552841 -9.48508e-21)
(0.029952 0.0864301 2.26253e-21)
(-0.555081 0.254939 1.41614e-21)
(-0.400468 -0.155631 -1.81628e-21)
(-0.0487362 -0.0151674 0)
(-0.602126 -0.405405 0)
(-0.364079 0.0204601 3.55321e-21)
(-1.03993 -0.64627 0)
(0.0260752 -0.00336565 4.48908e-21)
(0.0602936 0.0363057 -1.37366e-21)
(-0.555879 0.160503 5.03017e-21)
(-1.33173 -0.779126 -1.24751e-21)
(-0.835031 -0.649348 0)
(-0.640566 -0.179504 1.50314e-21)
(-0.0545211 0.0929221 -3.70594e-21)
(-1.21098 -0.891395 9.242e-22)
(-0.586822 0.00100969 -1.5373e-21)
(0.0428744 0.0531236 0)
(-0.866152 -0.512723 -2.87919e-21)
(-0.0598349 -0.0618717 0)
(-0.364505 0.0692378 3.76572e-21)
(-1.09548 -0.643116 5.31596e-22)
(-0.00156896 -0.0274419 1.31338e-21)
(-0.853729 -0.526042 1.57035e-21)
(-0.0372877 -0.0467807 -9.30056e-24)
(-0.547609 0.261925 -1.16782e-22)
(-0.0123839 0.0164429 1.43947e-21)
(-1.3953 -0.661341 1.81922e-21)
(-0.73337 -0.609681 0)
(-0.819292 -0.254466 3.042e-22)
(-0.142851 0.13984 0)
(-0.39152 0.0855142 -3.83237e-21)
(-1.15385 -0.670463 -6.47754e-22)
(0.0131253 -0.0144788 -1.53433e-21)
(-0.36603 -0.0566931 0)
(-0.865361 -0.575514 -1.4097e-21)
(0.0115279 0.00213529 0)
(-0.556048 -0.171075 0)
(-0.756049 -0.566873 0)
(-0.0278211 0.0629998 0)
(-0.204178 -0.0161656 -1.3927e-21)
(-0.70885 -0.404567 -1.80607e-21)
(-0.158607 -0.128507 -2.47306e-23)
(-0.03807 0.0882257 3.63518e-21)
(-0.618838 -0.149451 4.20161e-21)
(-0.908249 -0.701476 9.99779e-22)
(-0.603205 0.14593 -2.00214e-21)
(-1.32296 -0.818781 -2.03741e-21)
(0.0751928 0.0466373 -2.1231e-21)
(-1.22117 -0.874971 -5.05437e-22)
(-0.569169 0.0153708 1.55789e-21)
(0.0547947 0.0496597 1.77085e-21)
(-0.287983 0.1977 -3.05622e-21)
(-0.391726 -0.324113 1.77498e-21)
(-1.11129 -0.421794 -1.00075e-21)
(-0.456257 0.240565 9.38875e-22)
(-0.430409 0.225506 -8.56925e-22)
(-1.31262 -0.58721 3.8967e-24)
(-1.34563 -0.599372 0)
(-0.113555 -0.0795146 -6.27612e-22)
(-0.133417 -0.100958 -5.94572e-22)
(0.0336542 0.0901774 -3.06089e-21)
(-1.02301 -0.557809 1.04485e-20)
(-0.56263 0.260606 6.024e-22)
(-0.57096 0.286588 -5.92704e-23)
(0.0348701 0.0929404 3.4378e-21)
(-1.18505 -0.581138 0)
(-0.422905 -0.0163409 -5.66921e-21)
(-1.04488 -0.693336 -2.58966e-22)
(0.0448458 0.0238879 0)
(0.0649257 0.0489893 -4.1529e-21)
(-0.601326 0.185049 1.68681e-21)
(-1.34656 -0.786522 0)
(-0.343176 0.199167 4.6319e-21)
(-0.369229 0.205724 -3.4473e-21)
(-1.18865 -0.510547 6.06524e-22)
(-1.227 -0.536558 1.58264e-22)
(-0.245865 -0.198392 -1.15055e-21)
(-0.201856 -0.160038 -5.8481e-22)
(0.0697899 0.046885 0)
(-1.26815 -0.857091 0)
(-0.688777 0.131398 5.72185e-22)
(-0.52961 0.283659 -9.86663e-22)
(0.0328412 0.0973933 0)
(-1.07284 -0.522779 0)
(-0.415493 -0.216382 5.62987e-23)
(-0.153098 -0.0693158 2.06817e-21)
(-0.360453 -0.245294 9.04399e-22)
(-0.586087 0.266778 -1.54798e-21)
(-1.11451 -0.602723 -3.95313e-21)
(0.0386618 0.0903964 1.64584e-22)
(-0.212409 0.127704 0)
(-0.940182 -0.4104 -2.071e-21)
(-0.353974 -0.285355 -7.4063e-23)
(-0.647885 0.173522 5.05011e-23)
(-1.31508 -0.817552 -4.18273e-21)
(0.0737256 0.0545407 -2.71918e-24)
(-0.851581 -0.539435 -2.70157e-22)
(0.0222728 0.0722325 -1.37138e-21)
(-0.549736 0.208099 -3.83131e-22)
(-0.0819083 0.045297 -1.92635e-21)
(-0.48684 -0.360399 1.35259e-21)
(-0.616086 -0.265526 5.2058e-21)
(-0.327559 -0.13196 0)
(-0.572265 -0.366437 -4.40392e-21)
(-0.0894458 -0.0578879 2.38901e-21)
(-0.610661 0.266424 0)
(0.0429145 0.0739115 1.77094e-21)
(-1.30962 -0.689338 -1.18196e-22)
(-0.342399 -0.124231 0)
(-0.609286 -0.393151 -1.37545e-21)
(-0.0633401 -0.0368175 -3.41014e-21)
(-0.381897 -0.203382 2.01936e-21)
(-0.180875 -0.0928232 -1.09761e-21)
(-0.345958 -0.227798 4.99171e-22)
(-0.0842201 0.112329 1.80418e-21)
(-0.703481 -0.187789 -1.42501e-21)
(-0.878494 -0.710396 1.12279e-21)
(-0.45197 -0.200727 0)
(-0.495162 -0.336788 0)
(-0.075439 -0.014534 3.04506e-22)
(-0.441361 -0.175971 2.87329e-21)
(-0.564667 -0.380182 1.06396e-21)
(-0.0583189 -0.00576471 4.23212e-23)
(-0.26085 0.185431 4.6431e-21)
(-1.05326 -0.393436 -1.47644e-21)
(-0.444749 -0.373429 -1.81864e-21)
(0.0377251 0.0543167 2.64208e-21)
(0.0465992 0.0573591 -2.80604e-21)
(-1.36352 -0.719089 -1.60404e-21)
(-1.35304 -0.732 -1.00471e-21)
(-0.595499 0.249126 0)
(-0.606428 0.237832 -1.39555e-21)
(-0.625255 0.152706 2.46724e-21)
(-1.32102 -0.825683 2.31934e-21)
(0.0759286 0.0491635 2.63879e-21)
(-0.374165 -0.318384 -1.18975e-21)
(-0.317635 0.217514 9.87891e-22)
(-1.161 -0.435002 1.27539e-21)
(-0.119851 0.0930002 -1.89734e-21)
(-0.510614 -0.394386 -1.27413e-21)
(-0.75207 -0.305284 1.55648e-21)
(-0.586739 -0.0900407 0)
(-1.05803 -0.807565 4.18397e-22)
(-0.00679975 0.0735306 5.35994e-23)
(-0.996195 -0.653602 -3.24815e-21)
(0.0391001 0.0631172 -1.34729e-21)
(-0.654372 0.197135 -4.94425e-22)
(0.0680749 0.0451078 0)
(-0.648548 0.0867987 0)
(-1.28371 -0.900302 -1.38368e-21)
(-0.636257 0.248349 1.07012e-21)
(0.0518077 0.0770259 0)
(-1.24842 -0.701171 2.89779e-21)
(0.0170833 0.0720835 -5.05074e-33)
(-0.783489 -0.491509 4.92762e-21)
(-0.502101 0.202122 3.75655e-22)
(-0.802317 -0.438426 -5.55642e-21)
(0.0203256 0.0812889 5.03895e-33)
(-0.469952 0.236662 -3.43185e-22)
(-1.16292 -0.767343 -7.85502e-22)
(-0.468716 0.0305949 0)
(0.0619586 0.0314146 -4.38376e-21)
(-1.18584 -0.79204 1.43882e-21)
(0.060238 0.0505262 -1.42597e-21)
(-0.711678 0.164082 0)
(-0.506287 0.13037 -2.48029e-21)
(-1.28773 -0.766373 -3.27951e-22)
(0.0543123 0.0239728 2.1106e-21)
(-0.565884 0.299417 3.58791e-21)
(0.00148846 0.0505588 9.60822e-22)
(-1.37644 -0.616262 0)
(-0.245893 -0.00551184 1.10576e-21)
(-0.0894156 -0.0823313 -8.42521e-22)
(-0.831733 -0.482089 7.35026e-22)
(-1.27941 -0.875425 -8.12846e-22)
(0.0708066 0.0455148 1.53744e-21)
(-0.678411 0.117837 7.11388e-22)
(-0.602399 -0.109528 -1.71204e-21)
(-0.0202953 0.0804697 -9.78562e-22)
(-1.01669 -0.780319 0)
(-1.14072 -0.822434 0)
(-0.526972 -0.0158546 0)
(0.0466587 0.0511334 0)
(0.00491294 0.0470581 0)
(-0.434696 -0.238904 5.22615e-21)
(-0.280846 0.126001 5.85058e-24)
(-0.974067 -0.581312 -4.11028e-21)
(0.0308968 0.0813425 -1.64118e-21)
(-0.579305 0.240281 -7.07534e-22)
(-0.235353 -0.0237921 -2.87505e-21)
(-0.108379 -0.0942272 2.11989e-21)
(-0.756234 -0.445413 9.2236e-22)
(-1.28084 -0.826952 -4.73563e-21)
(-0.676448 0.159841 -1.1491e-21)
(0.0717344 0.0521162 0)
(0.0658744 0.04554 -1.59671e-21)
(-0.706916 0.135376 0)
(-1.23752 -0.849691 3.43252e-21)
(-0.588328 0.204413 -1.52891e-21)
(0.0521334 0.0467818 4.28489e-21)
(-1.35797 -0.758638 0)
(-0.0480557 -0.0176611 -2.84493e-21)
(-1.38929 -0.641351 -1.03199e-21)
(-0.513012 0.255659 0)
(-0.250761 0.190291 -5.82795e-21)
(-1.03524 -0.37328 1.88192e-21)
(-0.506299 -0.427497 -5.59899e-22)
(-1.2848 -0.558664 -3.61295e-24)
(-0.40582 0.22719 2.03305e-21)
(-0.182845 -0.143032 -1.74422e-21)
(-0.0438541 -0.00494342 -2.51853e-21)
(-0.533192 0.284881 0)
(-1.41278 -0.62118 0)
(-0.230816 0.114759 -9.87345e-22)
(-0.265965 0.132349 0)
(-0.96255 -0.453336 -2.03562e-21)
(-1.03417 -0.487716 2.17731e-21)
(-0.262758 -0.207525 3.43541e-22)
(-0.232987 -0.189453 -3.65978e-22)
(-0.206428 0.11339 9.48261e-22)
(-0.922214 -0.419755 0)
(-0.318179 -0.252331 6.04392e-22)
(-0.336911 0.208266 0)
(-1.18386 -0.49231 -1.00661e-21)
(-0.28098 -0.230322 4.1469e-22)
(-1.19562 -0.850715 9.34794e-23)
(-0.546786 0.0068412 1.68764e-21)
(0.055559 0.0482445 -3.58581e-21)
(-1.30846 -0.853173 0)
(-0.638451 0.140723 3.80137e-21)
(0.0767374 0.0491836 0)
(0.0699609 0.0429584 -1.12094e-21)
(-0.546814 0.0480194 -1.06179e-21)
(-1.2422 -0.847798 1.37281e-22)
(-0.868499 -0.457297 8.06673e-22)
(0.0242311 0.0873187 8.41513e-22)
(-0.491843 0.251223 0)
(-0.123577 0.0447057 1.83384e-21)
(-0.136344 0.0322903 0)
(-0.362209 -0.271244 0)
(-0.694245 -0.329176 5.69084e-21)
(-0.320334 -0.240747 0)
(-0.694602 -0.346857 -3.68302e-21)
(-0.282637 0.179748 0)
(-0.245383 0.160518 0)
(-0.372709 -0.30347 3.06159e-23)
(-1.08778 -0.451217 1.1265e-21)
(-0.333277 -0.267496 2.96525e-21)
(-1.01899 -0.419816 -2.65332e-21)
(-0.846612 -0.563966 0)
(0.024075 0.0655977 1.94028e-21)
(-0.580143 0.195241 0)
(-1.29349 -0.824671 2.36712e-21)
(-0.662958 0.15775 3.86459e-22)
(0.0734791 0.0529095 9.23057e-22)
(-0.146804 0.121775 -3.21734e-21)
(-0.56709 -0.453551 -1.29554e-21)
(-0.816929 -0.30802 4.55107e-21)
(-1.14423 -0.85748 1.31952e-22)
(-0.577326 -0.044599 4.22218e-21)
(0.0209788 0.0629136 0)
(-0.0679443 -0.0371709 3.04235e-21)
(-1.38021 -0.629052 1.09713e-21)
(-0.498019 0.253764 2.2291e-21)
(-1.11172 -0.660764 0)
(-0.639168 0.238179 0)
(0.044129 0.0784635 0)
(-1.14797 -0.698179 0)
(-0.659899 0.225559 8.67632e-22)
(0.0508197 0.0719483 3.20271e-22)
(-0.364128 0.188964 -1.96551e-21)
(-1.20878 -0.555531 2.04938e-22)
(-0.174028 -0.138949 8.6471e-22)
(-0.0500936 0.0503321 -5.05424e-22)
(-0.614473 -0.449984 0)
(-0.566705 -0.212922 -8.90613e-24)
(-0.604969 0.218584 1.78148e-21)
(0.0521912 0.0534158 2.47485e-21)
(-1.35853 -0.751567 1.16689e-21)
(-1.18279 -0.797125 0)
(-0.494771 0.0335759 0)
(0.0655282 0.0385209 3.79889e-21)
(0.0168425 0.0122637 8.29685e-22)
(-1.34027 -0.719531 -1.12745e-21)
(-0.514195 0.193547 5.11472e-21)
(-0.226187 0.155541 0)
(-0.420752 -0.3434 -2.04856e-21)
(-0.98083 -0.396202 1.49235e-21)
(-0.487103 -0.109504 -2.24314e-23)
(-0.878312 -0.629097 8.86578e-22)
(0.00988547 0.0479589 0)
(-0.0965719 0.0724397 1.04824e-23)
(-0.518737 -0.396948 -4.51986e-22)
(-0.684061 -0.2839 -2.038e-21)
(0.0610178 0.0583723 3.20138e-23)
(-1.33673 -0.768907 -3.0894e-21)
(-0.625718 0.211802 1.86509e-21)
(-0.459893 0.185399 -9.47243e-22)
(-1.30422 -0.673498 6.34788e-23)
(-0.0269946 -0.0236021 0)
(-0.0929388 0.0339479 -1.98891e-21)
(-0.43705 -0.320493 3.01236e-21)
(-0.617079 -0.280328 -3.43049e-21)
(-0.546529 0.295369 1.45399e-21)
(-0.0294459 0.0143732 1.08269e-21)
(-1.41163 -0.615821 1.86399e-21)
(-0.186774 0.0741185 -1.20952e-21)
(-0.847968 -0.418732 0)
(-0.264318 -0.212062 0)
(-0.348209 -0.090239 -5.01308e-21)
(-0.734716 -0.480869 7.82879e-22)
(-0.0225934 -0.0164185 0)
(-1.12807 -0.789232 0)
(-0.498113 -0.0119966 3.5901e-21)
(0.0535066 0.0454905 0)
(-0.575535 0.293337 -7.12333e-22)
(0.0282665 0.0828147 -3.5433e-22)
(-1.28086 -0.606409 -4.00136e-21)
(-0.568398 0.300017 1.98359e-21)
(0.0203755 0.0763764 0)
(-1.31053 -0.599257 3.08595e-21)
(0.00245341 0.00667394 7.21562e-22)
(-1.35405 -0.702605 1.0248e-21)
(-0.5148 0.209237 -4.69688e-21)
(-0.531118 -0.1302 -1.58115e-21)
(-0.899246 -0.66383 -9.72834e-22)
(-0.00515275 0.0608681 0)
(0.0300185 0.0920199 3.24661e-22)
(-1.21411 -0.572074 3.73304e-21)
(-0.557468 0.293831 0)
(0.0630226 0.0333566 0)
(-1.31131 -0.786115 9.00695e-22)
(-0.538738 0.139485 -5.86953e-22)
(0.0100081 0.0618829 1.50456e-21)
(-0.653452 -0.438091 -5.04141e-21)
(-0.449056 0.166598 0)
(-0.395288 0.219228 -5.28707e-22)
(-0.694352 -0.353614 0)
(0.0169494 0.075497 1.46479e-21)
(-0.0358794 -0.00110497 -2.84605e-23)
(-1.40316 -0.641689 0)
(-0.532825 0.271434 0)
(0.0617545 0.0666435 0)
(-1.28702 -0.755433 0)
(-0.652835 0.218417 2.28943e-21)
(-0.577916 0.243975 -1.60906e-21)
(-0.561667 0.229913 1.30183e-21)
(0.0261919 0.0412863 -1.32961e-21)
(-1.3827 -0.708339 4.6367e-22)
(0.0246359 0.0329765 -2.18705e-21)
(-1.37738 -0.716218 -5.84541e-22)
(-0.54275 0.122302 1.14143e-21)
(-1.29994 -0.803108 -4.7695e-22)
(0.0700168 0.0361323 0)
(-0.00444356 0.0739459 0)
(-1.09948 -0.847812 0)
(-0.601378 -0.0756733 0)
(-0.152041 -0.00212716 0)
(-0.268314 -0.200551 -4.54424e-21)
(-0.644822 -0.3416 1.96667e-21)
(-0.529502 0.0769979 3.28643e-21)
(-1.25526 -0.82111 -6.98718e-23)
(0.0743734 0.0378006 3.23161e-21)
(0.0715795 0.0397871 2.1503e-21)
(-0.525302 0.0570536 -4.56736e-21)
(-1.23217 -0.825572 9.67525e-23)
(-0.515581 0.288804 1.72253e-21)
(-0.0737005 -0.0331047 1.19058e-21)
(-1.41585 -0.599381 -2.28421e-21)
(-0.29825 0.192319 0)
(-1.11972 -0.45457 3.15797e-22)
(-0.33534 -0.274418 -2.90671e-21)
(-0.240716 0.144453 0)
(-0.994678 -0.431987 2.71825e-21)
(-0.336683 -0.274072 -1.27653e-23)
(-0.449918 0.0647946 -4.3872e-21)
(-1.18781 -0.748535 4.56294e-23)
(0.0562638 0.0184559 -1.86673e-21)
(-0.469793 0.0585699 0)
(-1.19623 -0.76801 5.89665e-23)
(0.0636149 0.0264455 1.73567e-21)
(-0.0892659 0.0144247 0)
(-0.437465 -0.313597 -4.71906e-21)
(-0.559811 -0.259283 1.91941e-21)
(-0.278528 0.14542 0)
(-1.05741 -0.487821 0)
(-0.242206 -0.201242 4.86026e-22)
(0.0663892 0.0436713 -3.3459e-21)
(-1.26936 -0.891089 4.1876e-21)
(-0.68103 0.100535 0)
(-0.676595 0.208987 9.70237e-22)
(0.0503017 0.0656563 0)
(-1.11377 -0.707813 -2.23361e-21)
(-0.677037 0.196738 -9.80562e-23)
(0.0458887 0.061688 0)
(-1.06667 -0.6951 6.61802e-21)
(-0.150504 0.0909671 1.38188e-21)
(-0.402835 -0.309951 -4.71927e-22)
(-0.805316 -0.357491 -1.30595e-22)
(-1.0272 -0.621693 1.94395e-22)
(0.037507 0.0767584 2.52601e-21)
(-0.623738 0.231164 0)
(-0.48893 0.207404 4.05549e-21)
(-0.0215077 -0.0120533 1.5107e-21)
(-1.33897 -0.679676 0)
(0.034413 0.0688378 -3.85853e-22)
(-0.973515 -0.627196 4.27098e-21)
(-0.626978 0.208733 0)
(-0.268949 -0.0956079 3.37631e-21)
(-0.125958 -0.089674 3.00425e-21)
(-0.57896 -0.353095 5.14519e-24)
(-0.320358 0.0711261 -6.52671e-22)
(-1.05213 -0.592239 -2.60623e-22)
(-0.0479807 -0.0593834 -1.88873e-21)
(-0.831561 -0.626248 2.27305e-21)
(-0.56621 -0.158416 3.57432e-21)
(-0.0254122 0.0698513 0)
(0.0648728 0.0506805 0)
(-1.22143 -0.811 1.63303e-21)
(-0.703968 0.160006 0)
(-1.16564 -0.807833 0)
(-0.504349 0.0157872 0)
(0.0619552 0.0425961 0)
(-0.00764316 0.0346134 0)
(-0.561503 0.291004 -1.30361e-21)
(-1.39844 -0.631674 -1.83386e-21)
(-0.352427 0.0849646 0)
(-1.10171 -0.625934 1.61718e-22)
(-0.025274 -0.0426169 1.84467e-21)
(-0.157175 -0.0204306 0)
(-0.264309 -0.195546 3.92103e-21)
(-0.60229 -0.323996 0)
(-1.25539 -0.807454 4.47095e-21)
(-0.685476 0.176564 1.09074e-21)
(0.068326 0.0553646 0)
(0.0482517 0.0296344 -1.69908e-21)
(-1.33241 -0.761746 -6.18204e-23)
(-0.538926 0.17206 1.09667e-22)
(-0.601631 0.276258 0)
(-0.599905 0.277427 1.19717e-21)
(0.0385595 0.0821321 -8.6479e-22)
(0.0400099 0.0865015 -1.04006e-21)
(-1.27265 -0.644877 2.23623e-21)
(-1.23511 -0.636467 -1.83972e-21)
(-0.375214 -0.0265463 0)
(-0.955393 -0.630059 3.64631e-21)
(0.0274419 0.00696116 2.23358e-21)
(-1.1136 -0.735611 1.15893e-21)
(-0.446162 0.0113046 0)
(0.0568432 0.0295599 -2.38237e-21)
(-0.285952 -0.0617897 -2.82608e-21)
(-0.722111 -0.450199 1.33756e-21)
(-0.0592016 -0.0538127 3.59957e-21)
(-1.1704 -0.751827 -4.14978e-21)
(-0.690346 0.195652 1.13968e-21)
(-1.15728 -0.763138 2.11634e-21)
(0.0568475 0.0610405 0)
(-0.702497 0.180208 -1.1014e-21)
(0.0564862 0.0560903 0)
(-0.423112 0.116717 0)
(-1.21153 -0.694507 0)
(0.012269 -0.0101421 1.99971e-21)
(-0.677962 0.191918 1.81782e-21)
(-0.682513 0.20031 -3.32114e-21)
(-1.25374 -0.784073 -2.73916e-21)
(-1.21617 -0.758352 6.25004e-21)
(0.0653422 0.0603699 2.66045e-21)
(0.0605898 0.0633456 -2.34366e-23)
(-0.446471 -0.00921833 0)
(-1.07284 -0.727915 -1.45553e-21)
(0.0509464 0.0337568 3.09666e-21)
(-0.313495 0.00636444 2.79676e-21)
(-0.986637 -0.59164 -1.71699e-21)
(-0.0124474 -0.0350142 0)
(-0.574944 0.294303 0)
(0.0150835 0.0628802 0)
(-1.35408 -0.628476 -2.96512e-21)
(-0.35804 -0.00363223 2.10595e-21)
(-0.98058 -0.623884 -1.00696e-21)
(0.0246967 -0.00204222 -3.57001e-21)
(-0.287798 -0.0393879 1.18308e-21)
(-0.802013 -0.501763 -1.57092e-21)
(-0.0378971 -0.0440629 2.03804e-21)
(-0.589989 0.283383 0)
(0.0321733 0.0797107 0)
(-1.29938 -0.636955 3.98627e-21)
(-0.357876 0.107402 0)
(-1.14149 -0.621312 1.93545e-22)
(-0.0403714 -0.0512544 -1.90466e-21)
(-0.995478 -0.782 0)
(-0.643876 -0.133585 0)
(-0.0439181 0.0921909 -1.27287e-22)
(-0.230542 0.165295 -1.49913e-22)
(-0.990268 -0.383299 0)
(-0.45204 -0.373606 3.01767e-21)
(-1.241 -0.914588 -4.99099e-22)
(0.0455186 0.0499506 0)
(-0.614219 0.020508 0)
(0.00981121 0.0615147 -3.56951e-21)
(-0.594416 -0.337336 -7.31131e-21)
(-0.374581 0.169076 -8.16684e-24)
(-0.346626 0.0406076 0)
(-1.03682 -0.624142 1.03371e-21)
(0.00404615 -0.0226149 -1.73329e-21)
(-0.58454 0.271863 2.48605e-21)
(0.0221525 0.054736 4.36912e-21)
(-1.3732 -0.669548 0)
(-0.620539 -0.518766 -6.87146e-22)
(-0.9287 -0.31715 -1.55341e-21)
(-0.196443 0.163555 -1.26651e-21)
(-0.475011 0.262667 0)
(0.0271359 0.0930031 -1.21569e-21)
(-0.913826 -0.45167 0)
(-0.0269635 0.021836 2.40732e-21)
(-0.0271497 0.0383741 -2.4576e-21)
(-0.649461 -0.459611 0)
(-0.466946 -0.166116 2.28697e-21)
(-0.682262 -0.491727 -2.8538e-21)
(-0.507051 -0.177658 -1.8321e-21)
(-0.319843 -0.0909455 2.66691e-21)
(-0.681144 -0.434598 1.9363e-21)
(-0.0502082 -0.0383408 0)
(-0.0612454 0.0387927 2.21967e-21)
(-0.0471631 0.0229208 0)
(-0.544804 -0.397379 -1.70683e-21)
(-0.567601 -0.232959 2.02926e-21)
(-0.570429 -0.405687 1.72031e-21)
(-0.505644 -0.199188 8.79808e-24)
(-0.32455 0.0313738 1.75663e-22)
(-0.927585 -0.570303 -8.28079e-22)
(-0.0112384 -0.0304532 -2.48821e-21)
(-0.329312 -0.0103589 -4.87193e-21)
(-0.92851 -0.580478 2.00064e-23)
(0.00224466 -0.0183346 0)
(0.048808 0.0555164 0)
(-1.08573 -0.728001 0)
(-0.698033 0.180739 9.39401e-22)
(-0.176259 0.0953962 -1.27669e-21)
(-0.853954 -0.389361 0)
(-0.341647 -0.266482 8.70385e-22)
(-0.659886 0.198833 -3.70722e-21)
(-1.28971 -0.784011 -2.59398e-21)
(0.066454 0.0619455 -1.50965e-21)
(-0.46034 0.092082 0)
(-0.488933 0.107003 2.39075e-21)
(-1.22556 -0.746226 -5.69044e-23)
(-1.25967 -0.765467 -3.17934e-22)
(0.0529486 0.0168956 -2.24082e-21)
(0.0586407 0.0231302 -2.03703e-21)
(-0.16798 0.0760014 0)
(-0.819698 -0.390752 0)
(-0.312569 -0.245907 4.40436e-22)
(-0.317607 0.179497 1.51118e-21)
(-1.13747 -0.500509 0)
(-0.250486 -0.201609 9.90471e-22)
(-0.406202 0.0761391 -1.25015e-21)
(-1.15385 -0.697247 0)
(0.0323143 -0.00108777 0)
(-0.157846 -0.0570659 2.55725e-21)
(-0.47939 -0.259448 -1.10316e-21)
(-0.308221 -0.218221 1.07459e-21)
(-0.504002 0.0815174 0)
(-1.24517 -0.795382 0)
(0.0699617 0.0320653 -3.43747e-21)
(-0.12741 0.00928782 0)
(-0.326953 -0.240411 5.47697e-22)
(-0.626579 -0.317751 0)
(-0.421777 0.0114476 -2.78962e-21)
(-1.0835 -0.714224 -8.68562e-22)
(0.0482389 0.0199633 -3.05951e-22)
(-0.311741 0.16325 1.56162e-21)
(-1.12043 -0.513705 0)
(-0.217267 -0.179495 2.0623e-21)
(-0.139636 -0.0328682 -2.53311e-21)
(-0.11735 -0.0230278 -1.12713e-21)
(-0.52431 -0.277945 1.12845e-21)
(-0.320117 -0.230545 -2.16119e-21)
(-0.512191 -0.262034 0)
(-0.369104 -0.26379 -3.7445e-21)
(-0.0733109 0.00389346 -1.10612e-21)
(-0.478137 -0.340937 2.1661e-21)
(-0.0569391 0.0103765 7.12212e-22)
(-0.506904 -0.226543 -2.77982e-21)
(-0.554164 -0.38942 -1.0996e-21)
(-0.489813 -0.20379 6.81354e-23)
(-0.221461 0.0961993 1.43055e-21)
(-0.249927 0.0994766 0)
(-0.931171 -0.45601 1.64907e-21)
(-0.97719 -0.491101 -1.28721e-21)
(-0.234637 -0.188253 -2.03854e-21)
(-0.185265 -0.150667 3.39754e-21)
(-0.0306559 -0.00924891 0)
(-1.37572 -0.66472 7.09963e-22)
(-0.511371 0.23881 -2.35763e-21)
(-0.0550023 0.0979393 1.55456e-21)
(-0.655466 -0.157826 2.24556e-21)
(-0.932171 -0.734921 -1.7471e-21)
(-0.00965598 0.0106333 -1.47662e-21)
(0.00611881 0.0176124 1.21527e-21)
(-1.38398 -0.681366 -6.15086e-22)
(-1.37385 -0.700323 -9.38067e-22)
(-0.5347 0.245063 6.00643e-21)
(-0.539329 0.229819 -3.12136e-21)
(-0.11397 0.117971 2.32091e-21)
(-0.696258 -0.55283 -1.17271e-21)
(-0.75698 -0.252463 4.38656e-22)
(-0.221131 -0.109495 4.25436e-21)
(-0.274 -0.179958 0)
(-0.409955 -0.232712 -3.95112e-21)
(-0.512276 0.103279 -1.13103e-21)
(-1.26856 -0.791464 3.61831e-22)
(0.0678635 0.0312883 0)
(-0.138445 0.0609687 0)
(-0.355307 -0.277581 -4.19125e-22)
(-0.744853 -0.348798 -1.77006e-21)
(-0.331178 0.167515 0)
(-1.15107 -0.535642 0)
(-0.187595 -0.153321 -1.92046e-21)