/*--------------------------------*- C++ -*----------------------------------*\
  =========                 |
  \\      /  F ield         | OpenFOAM: The Open Source CFD Toolbox
   \\    /   O peration     | Website:  https://openfoam.org
    \\  /    A nd           | Version:  6
     \\/     M anipulation  |
\*---------------------------------------------------------------------------*/
FoamFile
{
    version     2.0;
    format      ascii;
    class       volScalarField;
    location    "0";
    object      p_rgh;
}
// * * * * * * * * * * * * * * * * * * * * * * * * * * * * * * * * * * * * * //

dimensions      [0 2 -2 0 0 0 0];

internalField   nonuniform List<scalar> 
10000
(
70.87
70.2582
69.8988
70.2193
71.2772
73.0385
75.3271
77.9164
80.5459
82.9423
84.8546
86.0869
86.518
86.0982
84.8452
82.8707
80.1554
76.7959
73.2332
69.4462
65.4588
61.6132
58.0168
54.7732
51.9619
49.6173
47.7731
46.4446
45.6187
45.2747
45.3923
45.9272
46.8244
48.0417
49.5187
51.1934
53.0111
54.9182
56.8606
58.7877
60.6573
62.4306
64.0679
65.5431
66.8352
67.9274
68.8059
69.4617
69.8977
70.119
70.129
69.9346
69.5487
68.9911
68.2835
67.4436
66.4872
65.4341
64.3078
63.1264
61.9107
60.6796
59.4433
58.2175
57.0268
55.8919
54.8203
53.8153
52.8773
52.0062
51.2015
50.4606
49.7773
49.1439
48.5531
47.9964
47.4614
46.9339
46.3992
45.8419
45.2429
44.5802
43.8314
42.974
41.9886
40.8622
39.5895
38.1762
36.639
35.0045
33.3071
31.5719
29.8405
27.9926
26.0225
24.0257
21.9628
20.0704
18.7342
18.3633
71.419
70.8686
70.7224
71.1395
72.187
73.8506
75.9771
78.3412
80.6935
82.7879
84.4025
85.3605
85.5492
84.9244
83.5107
81.3316
78.8067
75.5685
71.952
68.245
64.2335
60.4945
57.0488
53.969
51.331
49.1677
47.4992
46.3358
45.6711
45.4755
45.717
46.3586
47.3458
48.6288
50.1484
51.8476
53.673
55.5683
57.4821
59.3701
61.1912
62.9079
64.483
65.8943
67.1245
68.156
68.9766
69.5815
69.974
70.1592
70.1395
69.922
69.5221
68.9593
68.2527
67.4182
66.4708
65.4313
64.3201
63.1621
61.9699
60.7513
59.5227
58.3057
57.1299
56.0062
54.9385
53.9331
52.9899
52.1084
51.2882
50.5276
49.8219
49.163
48.5424
47.9516
47.3794
46.8116
46.2339
45.6318
44.9878
44.2809
43.4898
42.5947
41.5802
40.4375
39.1652
37.7704
36.2725
34.7022
33.0973
31.4883
29.9528
28.1337
26.2222
24.4195
22.4716
20.5807
19.1054
18.4147
71.604
71.0859
71.0266
71.5214
72.5761
74.1748
76.1831
78.388
80.5388
82.3952
83.7489
84.4387
84.3647
83.4875
81.8303
79.447
76.3843
72.9263
69.925
66.606
62.4471
58.6477
55.2454
52.2607
49.7485
47.7319
46.2335
45.2519
44.7674
44.7564
45.1852
46.0039
47.1534
48.5862
50.243
52.0591
53.9812
55.9573
57.9351
59.8689
61.7191
63.4513
65.0329
66.4392
67.6543
68.666
69.4637
70.0444
70.4103
70.5658
70.5176
70.2753
69.8529
69.2689
68.5419
67.6873
66.7214
65.6636
64.5384
63.3653
62.1598
60.9456
59.7157
58.4573
57.2409
56.1124
55.038
54.0137
53.0511
52.1498
51.3075
50.5224
49.7907
49.1054
48.4577
47.8384
47.2363
46.6384
46.0306
45.3981
44.7234
43.9855
43.1645
42.2426
41.2055
40.045
38.7614
37.3653
35.8801
34.3396
32.7802
31.2272
29.6496
28.2168
26.673
24.7485
22.6977
20.5749
18.7298
17.5418
71.4533
70.9284
70.9003
71.4405
72.5144
74.0746
75.9806
78.0255
79.9633
81.5573
82.6092
82.9734
82.5699
81.3771
79.4384
76.8594
73.7503
70.6651
66.3994
62.1569
58.8153
55.1336
51.8396
48.9887
46.6282
44.784
43.4767
42.7121
42.4648
42.7033
43.3899
44.4736
45.892
47.5854
49.4915
51.5459
53.6913
55.8718
58.031
60.1241
62.1166
63.9696
65.6487
67.132
68.4065
69.4642
70.2936
70.8893
71.2576
71.4075
71.3465
71.0839
70.6338
70.0153
69.249
68.353
67.3437
66.2388
65.058
63.8277
62.5766
61.3043
60.0399
58.7759
57.4737
56.2456
55.1461
54.0959
53.0922
52.1522
51.2722
50.4503
49.6841
48.9665
48.2877
47.6386
47.0092
46.3864
45.7545
45.0976
44.3987
43.6379
42.7938
41.847
40.7831
39.5955
38.2868
36.8704
35.3746
33.8457
32.3334
30.8858
29.5555
28.0625
26.4595
24.5804
22.3853
19.9188
17.5592
15.7302
70.8357
70.3995
70.4393
71.0417
72.1568
73.7028
75.5158
77.3849
79.0724
80.3505
81.0344
80.9944
80.1672
78.5461
76.1735
73.1438
69.5407
65.4707
61.1461
57.433
54.2384
50.4255
47.0258
44.2008
41.9278
40.2248
39.1051
38.5676
38.5814
39.1133
40.1215
41.543
43.3134
45.3692
47.6394
50.0525
52.5437
55.0549
57.5294
59.9138
62.1705
64.2604
66.1479
67.8131
69.2439
70.4289
71.3584
72.0313
72.4546
72.639
72.5945
72.3303
71.8603
71.2081
70.3985
69.4489
68.3745
67.1964
65.9373
64.6189
63.2641
61.9117
60.5563
59.2314
57.8812
56.515
55.3064
54.2136
53.1516
52.1469
51.2093
50.3348
49.5191
48.7553
48.0362
47.353
46.693
46.0411
45.3823
44.7014
43.9801
43.1954
42.3236
41.3454
40.2466
39.0187
37.6632
36.197
34.6553
33.0937
31.5616
30.1141
28.6923
27.363
25.8007
23.8604
21.4341
18.556
15.6103
13.0526
69.774
69.514
69.7023
70.4194
71.6157
73.184
74.934
76.6431
78.0762
79.0202
79.3075
78.828
77.5362
75.4515
72.6325
69.188
65.2576
61.0035
56.7685
52.003
47.541
44.0465
40.7495
37.9922
35.8115
34.2304
33.2726
32.9454
33.2179
34.0504
35.4003
37.1998
39.3794
41.8688
44.5854
47.4519
50.3988
53.3574
56.2651
59.0626
61.7043
64.1513
66.3665
68.3221
70.0075
71.4131
72.5272
73.3497
73.8928
74.166
74.1771
73.9412
73.4774
72.8077
71.9576
70.95
69.8032
68.5375
67.1774
65.7503
64.2812
62.7864
61.3134
59.8599
58.4651
56.9803
55.5404
54.3814
53.2661
52.1706
51.1494
50.1989
49.3148
48.4924
47.7228
46.9943
46.2937
45.6067
44.918
44.21
43.4609
42.6458
41.7401
40.7234
39.5783
38.2928
36.8683
35.3267
33.7108
32.0875
30.5088
29.0958
27.5956
26.2106
24.6152
22.5256
19.8051
16.4827
12.9375
9.63491
68.2907
68.2752
68.699
69.6108
70.9493
72.5899
74.3213
75.908
77.1182
77.7518
77.66
76.7567
75.011
72.4587
69.1781
65.2751
60.8881
56.1591
51.2603
46.1452
41.0237
37.4252
34.0352
31.189
28.9673
27.4029
26.5215
26.3291
26.7972
27.8855
29.5494
31.7162
34.3067
37.2477
40.4493
43.8218
47.2901
50.7745
54.1998
57.5036
60.6325
63.5363
66.177
68.5239
70.5579
72.2697
73.6531
74.7037
75.4298
75.8469
75.9672
75.8032
75.3748
74.7107
73.8407
72.7862
71.5659
70.2074
68.7415
67.1946
65.592
63.9573
62.3073
60.7041
59.1491
57.6144
56.0501
54.6056
53.4171
52.2563
51.1219
50.0749
49.1067
48.2095
47.3728
46.5856
45.8356
45.1068
44.3804
43.6362
42.852
42.0014
41.0557
39.9894
38.7824
37.4214
35.9078
34.2654
32.5424
30.8184
29.1504
27.7665
26.2878
24.7336
22.9625
20.6397
17.5735
13.7922
9.6659
5.65108
66.4086
66.6847
67.4066
68.5862
70.1297
71.8935
73.6512
75.1597
76.1939
76.57
76.1578
74.8945
72.77
69.8273
66.1592
61.8804
57.1279
52.0396
46.7707
41.3704
36.4604
31.6565
27.6307
24.5418
22.1474
20.4764
19.5565
19.389
19.9499
21.202
23.098
25.565
28.516
31.8714
35.5397
39.4175
43.416
47.4526
51.4386
55.2971
58.9721
62.4037
65.5383
68.3439
70.8034
72.899
74.617
75.9571
76.9312
77.5502
77.8246
77.7735
77.4221
76.7973
75.9287
74.8437
73.5673
72.1282
70.557
68.8852
67.1453
65.3654
63.5643
61.762
60.033
58.4228
56.6261
54.9561
53.6857
52.4091
51.1613
49.9984
48.9284
47.9394
47.0222
46.1661
45.3565
44.5751
43.8011
43.0134
42.1881
41.2949
40.3001
39.1731
37.8913
36.4403
34.8183
33.0477
31.1797
29.2984
27.4346
26.0206
24.4696
22.7383
20.791
18.2237
14.8114
10.5911
5.93019
1.27194
64.1182
64.7208
65.7716
67.2612
69.0505
70.9688
72.7812
74.2476
75.1525
75.3323
74.6795
73.1496
70.7532
67.544
63.6194
59.0962
54.1134
48.8106
43.3302
37.8146
32.4014
26.5951
22.0149
18.7651
16.1366
14.235
13.1416
12.8648
13.3847
14.6712
16.6774
19.3313
22.5461
26.2313
30.2892
34.6158
39.1051
43.6614
48.1948
52.6153
56.8457
60.8217
64.4865
67.7946
70.7174
73.2386
75.3441
77.0243
78.2869
79.1484
79.6239
79.7295
79.487
78.9289
78.0929
77.0073
75.6952
74.1886
72.5258
70.7431
68.8738
66.9469
64.9862
63.0159
61.0716
59.2182
57.461
55.5945
53.932
52.671
51.3205
50.0099
48.8167
47.7232
46.7152
45.7792
44.8983
44.0539
43.2253
42.3887
41.5153
40.5703
39.5166
38.3203
36.9543
35.3988
33.6475
31.7192
29.6667
27.5619
25.4532
23.4645
22.0972
20.2903
18.1725
15.3615
11.619
6.99519
1.86206
-3.3478
61.389
62.3356
63.7201
65.523
67.5616
69.6375
71.5086
72.9477
73.7583
73.7992
72.9875
71.2973
68.7556
65.4241
61.4014
56.8001
51.754
46.396
40.8498
35.2869
29.7201
22.645
17.4793
14.2213
11.4463
9.25912
7.88638
7.37878
7.72713
8.91224
10.8947
13.5992
16.9434
20.8396
25.1749
29.84
34.7323
39.7412
44.7556
49.6823
54.4394
58.9442
63.1232
66.9293
70.3292
73.2953
75.803
77.8429
79.4257
80.5631
81.2658
81.5527
81.4502
80.9924
80.217
79.1529
77.8281
76.2806
74.5506
72.6749
70.6894
68.6292
66.5234
64.4005
62.2893
60.2477
58.377
56.3412
54.4152
52.9466
51.5162
50.1207
48.8014
47.5995
46.4928
45.4675
44.5077
43.5944
42.7052
41.8128
40.8834
39.879
38.7599
37.4878
36.0289
34.357
32.4638
30.3695
28.1395
25.8515
23.7405
21.2545
19.3898
17.5355
15.2176
12.1499
8.09255
3.10871
-2.42347
-8.07919
58.1867
59.4686
61.1699
63.2563
65.5112
67.7174
69.6308
71.0402
71.7783
71.7301
70.8368
69.0894
66.5286
63.2204
59.2609
54.7523
49.8136
44.5592
39.0776
33.5606
27.6925
21.7815
16.4459
12.0308
8.67284
6.01291
4.2269
3.37252
3.43805
4.39815
6.22451
8.84984
12.183
16.1403
20.6193
25.4998
30.6655
36.0072
41.4097
46.761
51.963
56.9295
61.5809
65.8545
69.7017
73.0911
75.9964
78.4011
80.309
81.7284
82.6719
83.1615
83.2216
82.8839
82.189
81.1716
79.8627
78.3004
76.526
74.5799
72.5035
70.3351
68.105
65.8438
63.5863
61.3599
59.2468
57.2404
55.1036
53.265
51.9174
50.3675
48.9133
47.595
46.3864
45.2699
44.2296
43.2447
42.2898
41.3348
40.3439
39.2755
38.0855
36.7298
35.1674
33.3666
31.3165
29.0411
26.6182
24.1485
22.0042
19.5743
17.0744
14.7487
12.0836
8.70013
4.3257
-0.976617
-6.82959
-12.8195
54.4858
56.0651
58.0425
60.3614
62.7774
65.0641
66.9884
68.3593
69.0397
68.9442
68.0396
66.3314
63.8685
60.7184
56.9715
52.7184
48.0574
43.0799
37.8368
32.4571
26.5643
22.2739
17.0423
11.5058
7.48504
4.36885
2.19047
0.972265
0.708315
1.37958
2.9525
5.37532
8.57556
12.4655
16.9394
21.8868
27.1944
32.7405
38.3985
44.0541
49.604
54.9466
59.9881
64.6572
68.8996
72.6758
75.9479
78.6911
80.9076
82.6053
83.7935
84.49
84.7188
84.5148
83.9213
82.9735
81.7024
80.1478
78.3552
76.3685
74.2309
71.9819
69.6543
67.2831
64.9092
62.5702
60.2947
58.2261
56.0114
53.8197
52.1824
50.6783
49.1664
47.7334
46.4261
45.2212
44.1016
43.0441
42.0208
41.0004
39.9448
38.8085
37.5411
36.092
34.4135
32.4663
30.2301
27.7163
24.9743
22.0445
19.3352
16.9528
14.2216
11.604
8.65713
4.99395
0.346828
-5.20839
-11.2918
-17.5014
50.2721
52.0893
54.2815
56.7651
59.275
61.585
63.4828
64.8048
65.4442
65.3434
64.4928
62.9108
60.6491
57.7739
54.3679
50.5119
46.2867
41.7697
37.0036
32.0777
26.804
22.2399
16.784
11.37
7.30331
4.00653
1.59252
0.0984662
-0.477557
-0.125447
1.14746
3.29454
6.2522
9.9522
14.3003
19.1837
24.488
30.0953
35.8786
41.7152
47.4917
53.0962
58.4302
63.4129
67.9788
72.0771
75.6624
78.7063
81.2052
83.1614
84.5796
85.4761
85.876
85.8152
85.3358
84.4725
83.2579
81.7355
79.9529
77.9553
75.7865
73.4876
71.095
68.6473
66.1862
63.7499
61.3677
59.0894
56.915
54.6468
52.6027
51.1379
49.5013
47.9986
46.6108
45.3326
44.1425
43.0176
41.9293
40.8449
39.7238
38.5157
37.1647
35.6145
33.8121
31.7126
29.2898
26.555
23.5519
20.4425
16.7724
14.0878
11.2547
8.33065
5.07031
1.11832
-3.77724
-9.52857
-15.757
-22.0784
45.5383
47.5228
49.8541
52.4252
54.957
57.233
59.0696
60.336
60.9569
60.8978
60.1653
58.7875
56.815
54.3103
51.3448
47.9893
44.3111
40.3733
36.2143
31.8837
27.3296
22.6503
16.8711
11.6883
7.94061
4.70261
2.18861
0.502823
-0.324736
-0.269432
0.681295
2.50624
5.1607
8.58659
12.7006
17.4007
22.5801
28.1236
33.9016
39.788
45.6676
51.422
56.9449
62.144
66.9455
71.2924
75.1321
78.4282
81.1687
83.3507
84.9775
86.0635
86.6308
86.7136
86.354
85.5879
84.4498
82.9834
81.2367
79.2559
77.0875
74.7744
72.3541
69.866
67.3526
64.8533
62.4019
60.027
57.8324
55.5906
53.2992
51.5103
49.9785
48.4091
46.9519
45.6103
44.3605
43.1778
42.0324
40.8892
39.7036
38.4209
36.9809
35.3229
33.3892
31.1311
28.5217
25.5817
22.3888
19.2779
15.6539
11.9202
8.46117
5.04856
1.39194
-2.87543
-8.00201
-13.8972
-20.1911
-26.5246
40.2897
42.3655
44.7493
47.3234
49.8054
51.9937
53.7406
54.9509
55.5807
55.6131
55.0625
53.9612
52.3528
50.291
47.8351
45.0457
41.9816
38.6875
35.1994
31.5442
27.6889
23.4133
17.6617
12.6875
9.25714
6.15356
3.63558
1.84113
0.819314
0.617062
1.26686
2.76448
5.08274
8.17965
11.9881
16.4194
21.3746
26.7443
32.4026
38.2249
44.095
49.8889
55.4947
60.8141
65.7666
70.2872
74.3146
77.8054
80.7416
83.1154
84.9265
86.1854
86.9104
87.1342
86.8995
86.2432
85.199
83.8099
82.1239
80.1895
78.0558
75.7663
73.3572
70.8678
68.3428
65.8237
63.3461
60.9402
58.6542
56.4746
54.2825
52.0906
50.4618
48.857
47.397
46.0223
44.7378
43.5175
42.3292
41.1351
39.888
38.5297
36.9959
35.2199
33.1351
30.6824
27.8202
24.5389
20.8897
17.1548
13.3944
9.30848
5.43339
1.60379
-2.42521
-6.98883
-12.3114
-18.2936
-24.5763
-30.8305
34.5422
36.6294
38.976
41.4632
43.8198
45.8687
47.5033
48.6631
49.3315
49.507
49.2019
48.4413
47.256
45.6886
43.7855
41.5881
39.1568
36.5295
33.7241
30.7533
27.623
23.8994
18.6611
14.0634
10.8583
7.9287
5.4749
3.64699
2.50548
2.10751
2.49873
3.69039
5.67402
8.4251
11.8923
16
20.6603
25.7747
31.2249
36.8898
42.653
48.3899
53.9852
59.3375
64.3608
68.9818
73.1318
76.7619
79.8491
82.3799
84.3478
85.7599
86.6327
86.9971
86.8933
86.3567
85.4213
84.1303
82.5328
80.6773
78.6128
76.383
74.0241
71.5755
69.0826
66.5873
64.1239
61.7225
59.4159
57.2528
55.1969
52.9348
50.9556
49.4144
47.9137
46.5414
45.2478
44.0124
42.7997
41.5682
40.268
38.8382
37.211
35.3155
33.0802
30.4449
27.3735
23.8636
20.1264
15.1332
11.0813
6.73847
2.41099
-1.8786
-6.31001
-11.1769
-16.675
-22.6967
-28.8996
-34.9928
28.3268
30.3381
32.5536
34.859
37.0124
38.8705
40.3715
41.4912
42.2317
42.5985
42.5948
42.2313
41.5155
40.4648
39.1251
37.5225
35.702
33.7062
31.5559
29.2346
26.8141
23.6319
19.2107
15.2477
12.2438
9.51042
7.18789
5.40566
4.22593
3.70609
3.90035
4.83458
6.51676
8.93606
12.0562
15.8181
20.1478
24.9586
30.1405
35.5785
41.1595
46.7631
52.2729
57.5846
62.6074
67.2634
71.4788
75.1988
78.3954
81.0494
83.149
84.6975
85.7096
86.2134
86.2458
85.8402
85.0302
83.8601
82.3794
80.6354
78.6754
76.5426
74.2749
71.912
69.4979
67.0732
64.6712
62.3224
60.0585
57.9212
55.9304
53.987
51.7415
49.9356
48.4446
47.0993
45.8386
44.6199
43.4071
42.1569
40.8166
39.3218
37.5994
35.5731
33.1636
30.3034
26.9387
23.0632
19.0144
14.5079
9.36151
4.34115
-0.567912
-5.37711
-10.2421
-15.4193
-21.0747
-27.093
-33.154
-39.0137
21.6899
23.5276
25.5124
27.5373
29.4043
31.0175
32.3626
33.4498
34.2946
34.9023
35.2512
35.3203
35.1008
34.5784
33.7783
32.7243
31.4668
30.0377
28.4622
26.7163
24.9803
22.2204
18.7414
15.6143
12.838
10.3605
8.24672
6.59347
5.46081
4.90251
4.97688
5.72102
7.1573
9.28557
12.0842
15.5116
19.5069
23.9944
28.8763
34.0468
39.3983
44.8155
50.1832
55.3963
60.3619
65
69.2336
73.0018
76.2712
79.0189
81.2292
82.9016
84.0467
84.6893
84.8639
84.6026
83.938
82.9133
81.577
79.9764
78.1574
76.1624
74.0293
71.7974
69.5088
67.2018
64.909
62.6606
60.4856
58.4193
56.4948
54.8081
52.6893
50.499
48.9591
47.6412
46.4422
45.2813
44.1013
42.8573
41.4958
39.9486
38.1382
35.9854
33.4111
30.3553
26.7567
22.7445
17.4826
12.6229
7.25444
1.77989
-3.64073
-8.94704
-14.2383
-19.7151
-25.5027
-31.4751
-37.337
-42.8987
14.6936
16.2484
17.8893
19.5284
21.0212
22.3287
23.4908
24.5549
25.5365
26.4217
27.1669
27.7025
27.9798
27.9617
27.6609
27.0768
26.289
25.3271
24.2155
22.9402
21.808
19.3796
16.839
14.6227
12.1362
9.99023
8.16265
6.722
5.72494
5.21631
5.25463
5.88682
7.1516
9.0535
11.5818
14.7131
18.398
22.5717
27.1514
32.0414
37.1411
42.3408
47.5297
52.6053
57.4741
62.0548
66.2682
70.0501
73.3634
76.182
78.4869
80.2733
81.5475
82.3307
82.6557
82.5536
82.0551
81.2013
80.0389
78.6148
76.9745
75.1588
73.2041
71.1485
69.0323
66.892
64.7586
62.6609
60.6258
58.6829
56.8515
55.2573
53.595
51.3766
49.4153
48.1313
47.0022
45.9217
44.8186
43.6142
42.2528
40.6655
38.7696
36.481
33.7155
30.4041
26.4671
22.3443
17.1974
11.3816
5.37577
-0.704091
-6.70438
-12.5426
-18.2751
-24.0495
-29.9485
-35.8363
-41.4478
-46.6548
7.40835
8.56082
9.73495
10.8709
11.8927
12.8333
13.7829
14.8213
15.9709
17.1752
18.3445
19.363
20.1278
20.5617
20.6835
20.4559
20.0178
19.3886
18.596
17.6628
17.0057
14.8847
13.2257
11.8893
9.7664
8.01776
6.54018
5.38455
4.60347
4.2264
4.31175
4.91804
6.10288
7.86038
10.1872
13.0823
16.5063
20.4017
24.7024
29.3223
34.1696
39.1427
44.1362
49.0521
53.7991
58.2949
62.4603
66.2308
69.5672
72.4399
74.8265
76.7189
78.1203
79.0488
79.5351
79.608
79.2963
78.6392
77.6815
76.4687
75.045
73.4494
71.7164
69.8824
67.9862
66.0623
64.1388
62.2414
60.3941
58.6222
56.9438
55.4485
54.1636
52.2318
50.015
48.521
47.4943
46.4956
45.4829
44.3641
43.0371
41.43
39.4629
37.0512
34.1112
30.581
26.5011
21.2466
15.8663
9.77412
3.30472
-3.30784
-9.85458
-16.2089
-22.3714
-28.4278
-34.4118
-40.1761
-45.4897
-50.2911
-0.0810459
0.537917
1.10845
1.61694
2.06242
2.56159
3.27104
4.28521
5.62158
7.18174
8.80554
10.3082
11.5283
12.3436
12.8031
12.7946
12.6107
12.1537
11.4888
10.7326
10.3486
8.59478
7.69988
7.06963
5.36347
4.07673
3.03878
2.25775
1.77945
1.61248
1.82112
2.48613
3.69356
5.39739
7.59976
10.3355
13.5672
17.2372
21.3019
25.6831
30.2958
35.0519
39.85
44.5978
49.2096
53.6043
57.7046
61.4468
64.7909
67.7047
70.1634
72.1567
73.6855
74.7655
75.4245
75.6887
75.5849
75.1504
74.4279
73.4608
72.2912
70.9561
69.4877
67.92
66.2903
64.6307
62.9657
61.3168
59.7042
58.1487
56.6687
55.3131
54.183
52.7355
50.7272
48.8474
47.813
46.9982
46.0623
45.0195
43.7584
42.1585
40.1305
37.5944
34.4807
30.7665
26.6815
21.2227
15.0128
8.31419
1.25653
-5.94201
-13.0586
-19.9359
-26.5239
-32.8479
-38.8913
-44.4954
-49.467
-53.816
-7.68607
-7.74239
-7.92433
-8.18196
-8.41919
-8.43849
-8.00783
-7.01292
-5.46295
-3.51492
-1.41041
0.577814
2.23596
3.39032
4.16114
4.02911
3.66765
3.18123
2.40757
1.75008
1.64924
0.58363
0.536308
0.482077
-0.748143
-1.56134
-2.33148
-2.77737
-2.95346
-2.89582
-2.50763
-1.67795
-0.30978
1.44147
3.59547
6.26089
9.38234
12.8873
16.7722
20.9618
25.3701
29.9323
34.5478
39.1309
43.6052
47.8916
51.9174
55.6204
58.9606
61.9057
64.4298
66.5216
68.1799
69.418
70.2607
70.732
70.8571
70.6706
70.2125
69.5239
68.6443
67.6082
66.4455
65.1875
63.8682
62.517
61.1555
59.8004
58.4662
57.1668
55.9185
54.7304
53.7167
52.7034
51.1225
49.3205
47.9876
47.3126
46.6138
45.6343
44.403
42.8172
40.7511
38.1005
34.769
31.128
26.2332
20.4649
13.8584
6.66566
-0.932634
-8.69191
-16.3626
-23.7488
-30.7461
-37.3161
-43.3899
-48.7969
-53.3846
-57.2381
-15.3086
-16.1994
-17.2876
-18.4587
-19.4975
-20.111
-19.9966
-19.0176
-17.2171
-14.8445
-12.2291
-9.70312
-7.61654
-6.55517
-6.2278
-6.75043
-6.83339
-6.06444
-6.20236
-7.20487
-8.28721
-9.56748
-9.36558
-9.36021
-10.2785
-10.4388
-10.2436
-9.82798
-9.48656
-9.08934
-8.55874
-7.58574
-5.9715
-4.13918
-1.98969
0.714383
3.82419
7.22071
10.9907
15.0461
19.2853
23.6863
28.14
32.5695
36.9133
41.0905
45.0378
48.6955
52.0245
54.9947
57.5799
59.7685
61.5584
62.9609
63.9983
64.6918
65.0652
65.1503
64.9838
64.6037
64.0469
63.3451
62.5255
61.6164
60.6477
59.6449
58.626
57.6034
56.5848
55.5736
54.5806
53.5687
52.6608
51.913
50.8438
49.5883
48.3259
47.4726
46.9804
46.2661
45.1156
43.5082
41.3762
38.6705
35.293
31.3198
26.0606
19.7914
12.696
4.95861
-3.20699
-11.5384
-19.7636
-27.6503
-35.0412
-41.8347
-47.9096
-53.0838
-57.2473
-60.564
-22.8416
-24.7398
-26.9026
-29.1378
-31.1034
-32.3912
-32.6234
-31.6516
-29.5607
-26.719
-23.5062
-20.4144
-18.793
-18.0327
-16.6971
-13.9224
-15.3594
-18.3614
-20.2084
-20.9804
-21.5548
-21.8078
-20.6621
-20.2283
-20.4309
-19.8408
-18.9123
-18.157
-17.99
-18.1152
-17.7894
-15.5923
-13.2253
-11.2451
-9.16446
-6.31936
-3.15301
0.150167
3.87998
7.8673
11.9684
16.2515
20.5694
24.859
29.0867
33.1586
37.0278
40.6383
43.9523
46.945
49.5892
51.8742
53.7976
55.3704
56.6125
57.5421
58.1807
58.558
58.7069
58.6618
58.4566
58.12
57.6757
57.1482
56.5634
55.9416
55.2964
54.6349
53.9564
53.2512
52.5127
51.667
50.8616
50.3339
49.9022
49.3149
48.545
47.7484
47.1833
46.668
45.7451
44.2475
42.134
39.1541
36.1519
31.7583
25.8908
19.0497
11.4175
3.12536
-5.60798
-14.5069
-23.2773
-31.6504
-39.4156
-46.4078
-52.4535
-57.3594
-61.0598
-63.7996
-30.1848
-33.27
-36.6856
-40.1425
-43.1592
-45.2009
-45.8024
-44.8171
-42.381
-38.9568
-35.0354
-32.3365
-31.1837
-25.7946
-24.085
-26.5012
-29.4173
-32.4765
-34.5358
-35.2323
-35.7315
-34.8258
-32.6495
-31.8986
-31.5991
-30.8388
-30.0097
-29.3185
-28.9009
-28.3535
-26.8678
-23.9862
-21.6389
-20.8309
-18.5307
-14.8317
-11.4734
-8.33855
-4.55953
-0.593815
3.36976
7.59218
11.8032
15.9656
20.1006
24.0742
27.8712
31.4373
34.7351
37.7507
40.4539
42.8372
44.8981
46.6466
48.1022
49.2796
50.1977
50.8836
51.3671
51.6787
51.8485
51.9014
51.8571
51.7355
51.5579
51.3395
51.0872
50.8
50.4669
50.0656
49.5286
48.8149
48.1483
47.9374
48.1776
48.4263
48.5342
48.2474
47.7236
47.1399
46.2645
44.791
42.5134
40.2137
36.8964
31.7991
25.4792
18.1839
10.022
1.16823
-8.13742
-17.6025
-26.9098
-35.7548
-43.8737
-51.0388
-57.0243
-61.6266
-64.8264
-66.95
-37.239
-41.7003
-46.5495
-51.3913
-55.583
-58.4506
-59.4346
-58.3985
-55.4906
-51.3183
-47.507
-45.0569
-37.5294
-34.4452
-37.4125
-42.6855
-45.4791
-46.454
-47.0388
-47.5832
-49.0924
-48.0833
-45.7348
-45.1918
-44.6864
-43.8094
-42.8291
-41.7589
-40.6182
-39.2019
-37.3119
-34.9526
-32.8568
-31.2468
-28.2482
-23.9517
-21.5727
-18.7588
-14.3295
-10.3199
-6.53328
-2.2793
1.8303
5.86834
9.94985
13.8323
17.5689
21.1004
24.3844
27.4291
30.1935
32.6794
34.8837
36.814
38.4906
39.9252
41.1342
42.1414
42.9734
43.6572
44.218
44.676
45.0463
45.3441
45.5846
45.7768
45.9191
45.9994
45.9923
45.8593
45.4125
44.8007
44.416
44.7439
45.8446
47.1497
48.201
48.6306
48.5702
48.0914
47.1704
45.6285
43.8096
41.1718
37.5028
31.8898
25.02
17.1989
8.48832
-0.932742
-10.811
-20.8373
-30.6709
-39.9716
-48.4223
-55.7327
-61.626
-65.8887
-68.5509
-70.0195
-43.9085
-49.9428
-56.4098
-62.7992
-68.2894
-72.0488
-73.4212
-72.2598
-68.695
-64.4336
-61.111
-51.2428
-44.4643
-49.9772
-54.5886
-55.6086
-56.865
-58.8446
-60.4675
-61.4029
-63.0687
-61.6664
-59.3576
-58.9672
-58.3365
-57.3916
-56.2708
-54.9536
-53.4451
-51.6738
-49.5963
-47.2317
-44.7824
-42.3087
-39.2688
-35.7234
-32.944
-29.6249
-24.6822
-21.6737
-18.0022
-13.3301
-9.36319
-5.43646
-1.33835
2.4425
6.13786
9.65279
12.9293
16.0194
18.8517
21.4474
23.8039
25.9226
27.8278
29.5274
31.0357
32.3728
33.5613
34.625
35.584
36.4523
37.2396
37.9556
38.6089
39.199
39.7129
40.1233
40.3873
40.3566
40.0352
39.6975
39.8636
41.0883
43.3467
45.8532
47.8419
49.0591
49.5582
49.4028
48.5838
47.1557
45.3628
42.2864
37.6685
31.6498
24.3965
16.0706
6.80925
-3.18328
-13.6354
-24.2186
-34.5684
-44.3082
-53.0682
-60.4954
-66.2634
-70.15
-72.2383
-73.0122
-50.1067
-57.9141
-66.1856
-74.2836
-81.1913
-85.9035
-87.6552
-86.2188
-82.2895
-79.1315
-68.4491
-56.1783
-61.9049
-64.6777
-64.9284
-67.1417
-69.5366
-71.4649
-73.0691
-74.4526
-75.7337
-74.4994
-72.9307
-72.7578
-72.1759
-71.2683
-70.0964
-68.6463
-66.9367
-64.9592
-62.7111
-60.2153
-57.5452
-54.7386
-51.6413
-48.2511
-44.9537
-41.4485
-37.3319
-33.9353
-30.1166
-25.1115
-22.0851
-18.0347
-13.7201
-10.0888
-6.37716
-2.85624
0.417093
3.58515
6.49512
9.21327
11.7357
14.0508
16.1937
18.1651
19.9778
21.6492
23.1963
24.6389
25.9925
27.2641
28.4572
29.574
30.6143
31.5661
32.4006
33.0725
33.4703
33.5186
33.4213
33.6648
34.9322
37.608
41.3685
45.0977
47.9031
49.811
50.8406
50.995
50.285
48.8478
46.6591
43.2647
38.0243
31.4254
23.6693
14.8025
4.97497
-5.59562
-16.6223
-27.7581
-38.613
-48.7742
-57.819
-65.3328
-70.9411
-74.4141
-75.8938
-75.931
-55.7602
-65.5402
-75.8009
-85.7636
-94.1991
-99.9088
-101.933
-100.067
-97.0597
-89.818
-71.1675
-73.5914
-74.9265
-74.3051
-76.3139
-78.3648
-80.3734
-82.5342
-84.5537
-86.8147
-87.3723
-86.4271
-85.791
-85.895
-85.5225
-84.7666
-83.668
-82.2281
-80.4783
-78.4402
-76.1293
-73.5748
-70.8177
-67.8917
-64.7595
-61.414
-57.9964
-54.4519
-50.6275
-46.9264
-43.1248
-38.8852
-35.4505
-31.2854
-27.0696
-23.8663
-19.9345
-16.3799
-13.0873
-9.77199
-6.78311
-3.92332
-1.21282
1.30693
3.70057
5.95056
8.07013
10.0765
11.9784
13.7907
15.524
17.1789
18.7507
20.2319
21.6119
22.8641
23.9416
24.7331
25.1753
25.4494
26.0314
27.6066
30.7072
35.3548
40.7279
45.4492
48.8254
51.2595
52.6884
53.024
52.2951
50.5708
47.9209
44.0265
38.2579
31.1252
22.8299
13.3982
2.98663
-8.17307
-19.7782
-31.4636
-42.8134
-53.3781
-62.6823
-70.2505
-75.6629
-78.6844
-79.5244
-78.7764
-60.8101
-72.7567
-85.1883
-97.1703
-107.247
-113.979
-116.071
-114.392
-111.335
-91.6399
-86.0465
-86.6159
-84.1005
-84.9311
-85.9253
-87.59
-89.7439
-92.15
-94.5036
-97.1943
-97.6208
-97.1793
-97.4116
-97.8665
-97.7967
-97.2985
-96.4003
-95.1153
-93.4829
-91.5396
-89.3114
-86.8327
-84.1387
-81.2612
-78.2004
-74.9617
-71.6085
-68.1399
-64.4986
-60.8271
-57.1013
-53.1819
-49.4715
-45.6087
-41.6967
-38.3211
-34.0292
-30.8983
-27.5505
-23.9201
-20.8891
-17.8295
-14.8931
-12.1664
-9.50323
-6.96628
-4.53945
-2.19998
0.0477021
2.21346
4.30281
6.3085
8.21665
10.0064
11.6607
13.1375
14.2791
15.1298
15.9018
17.0405
19.2351
23.0593
28.6027
35.4406
42.08
47.2395
51.0506
53.8311
55.445
55.7794
54.8361
52.5876
49.3114
44.7653
38.4564
30.7799
21.9038
11.8723
0.85028
-10.9156
-23.1071
-35.3411
-47.1763
-58.1263
-67.663
-75.2519
-80.4295
-82.959
-83.1355
-81.5478
-65.2145
-79.5111
-94.2879
-108.445
-120.299
-128.056
-130.349
-130.189
-117.692
-99.5495
-99.9927
-95.4153
-94.0329
-93.2453
-93.6693
-95.1536
-97.3458
-99.9517
-102.709
-104.791
-105.717
-106.341
-107.335
-108.147
-108.449
-108.304
-107.727
-106.739
-105.382
-103.697
-101.717
-99.4787
-97.0163
-94.3594
-91.5198
-88.5105
-85.3663
-82.0959
-78.6831
-75.1881
-71.6225
-67.9307
-64.2671
-60.5532
-56.7712
-53.1825
-49.3563
-45.9712
-42.4672
-38.5834
-35.7011
-32.3697
-29.1395
-26.2069
-23.2231
-20.3883
-17.6587
-14.9879
-12.4065
-9.90846
-7.49256
-5.17792
-2.98806
-0.955152
0.920533
2.40042
3.67953
5.07292
6.99199
10.124
15.0241
21.7626
30.0718
38.545
45.5398
50.6927
54.7664
57.7389
59.3126
59.4229
58.0944
55.1508
51.004
45.711
38.7708
30.4611
20.9344
10.2497
-1.42089
-13.8178
-26.6088
-39.3932
-51.7055
-63.0222
-72.7632
-80.3371
-85.2353
-87.231
-86.7454
-84.2158
-68.9438
-85.7611
-103.039
-119.518
-133.244
-141.927
-145.326
-144.159
-119.902
-113.289
-108.816
-104.731
-101.459
-99.7349
-99.5784
-100.745
-102.856
-105.567
-108.825
-110.673
-111.712
-113.285
-114.952
-116.224
-116.985
-117.285
-117.141
-116.582
-115.649
-114.386
-112.825
-111.001
-108.946
-106.687
-104.235
-101.605
-98.8174
-95.8806
-92.7936
-89.5853
-86.27
-82.8309
-79.3367
-75.7767
-72.134
-68.5332
-64.8439
-61.2511
-57.6781
-54.0527
-50.7499
-47.0199
-43.709
-40.6119
-37.2518
-34.0983
-31.0495
-28.0299
-25.1272
-22.324
-19.6154
-17.0317
-14.6014
-12.4233
-10.5297
-8.68734
-6.51036
-3.54246
0.847784
7.17291
15.3957
25.2761
35.541
44.267
50.7267
55.9696
60.172
62.8697
64.0026
63.6868
61.9508
58.3939
53.1331
46.9918
39.2968
30.2323
19.9655
8.55868
-3.80969
-16.8702
-30.2784
-43.6188
-56.4012
-68.066
-77.9817
-85.5035
-90.0653
-91.4777
-90.1328
-86.9404
-71.9842
-91.4777
-111.398
-130.362
-146.038
-155.767
-161.117
-150.003
-129.351
-123.672
-117.161
-111.684
-107.129
-104.406
-103.533
-104.254
-106.118
-108.741
-111.775
-113.667
-115.778
-117.925
-120.058
-121.785
-123.034
-123.838
-124.215
-124.195
-123.819
-123.126
-122.144
-120.905
-119.431
-117.741
-115.844
-113.75
-111.469
-109.004
-106.359
-103.547
-100.58
-97.4563
-94.211
-90.851
-87.3732
-83.8423
-80.2218
-76.5818
-72.9376
-69.227
-65.6054
-61.9618
-58.4284
-54.8273
-51.1458
-47.8037
-44.4481
-41.0509
-37.8205
-34.7063
-31.7077
-28.8669
-26.3375
-23.9269
-21.3274
-18.1183
-13.7823
-7.80044
0.215225
10.1744
21.7455
33.7101
43.9581
51.5999
57.7953
63.0281
66.6599
68.6316
69.181
68.3916
66.1778
62.2142
55.748
48.6894
40.084
30.1391
19.0327
6.82591
-6.29706
-20.0595
-34.1071
-48.0113
-61.2584
-73.252
-83.3089
-90.7335
-94.8744
-95.6632
-92.7791
-90.1779
-74.3323
-96.6335
-119.318
-140.915
-158.606
-170.253
-175.519
-154.823
-137.859
-132.179
-124.439
-117.094
-111.137
-107.26
-105.533
-105.661
-107.175
-109.882
-112.676
-114.157
-117.072
-119.822
-122.376
-124.544
-126.29
-127.633
-128.593
-129.198
-129.487
-129.489
-129.227
-128.722
-127.983
-127.022
-125.837
-124.428
-122.796
-120.938
-118.854
-116.548
-114.027
-111.296
-108.374
-105.273
-101.999
-98.5905
-95.0472
-91.4095
-87.705
-83.9111
-80.1111
-76.2763
-72.4312
-68.6581
-64.8755
-61.0492
-57.2688
-53.5962
-50.1093
-46.6429
-43.41
-40.3286
-37.085
-33.4051
-28.8526
-22.8438
-14.9456
-5.05629
6.78769
20.0919
33.5454
45.0389
53.655
60.5285
66.5985
71.0105
73.6866
74.9588
74.9418
73.5605
70.7584
66.3639
58.9936
50.853
41.1426
30.2056
18.1612
5.0758
-8.86139
-23.368
-38.0808
-52.5586
-66.266
-78.5695
-88.7349
-96.0213
-99.6925
-100.081
-95.8806
-92.8554
-75.9974
-101.206
-126.756
-151.104
-170.867
-185.541
-185.761
-160.26
-146.717
-139.016
-129.91
-120.924
-113.495
-108.353
-105.615
-104.958
-105.957
-108.507
-110.244
-112.844
-115.753
-118.869
-121.76
-124.326
-126.544
-128.427
-129.999
-131.283
-132.31
-133.102
-133.668
-134.017
-134.144
-134.045
-133.705
-133.113
-132.259
-131.128
-129.716
-128.019
-126.039
-123.78
-121.255
-118.474
-115.451
-112.213
-108.777
-105.174
-101.435
-97.5649
-93.6154
-89.5949
-85.5266
-81.4587
-77.3549
-73.319
-69.292
-65.1929
-61.3155
-57.5646
-53.6664
-49.3629
-44.1514
-37.7225
-29.7042
-19.704
-7.80906
5.8825
20.7813
35.3923
47.7961
57.1489
64.4335
71.159
76.1968
79.4389
81.3863
82.1488
81.5851
79.5243
75.8353
70.6942
62.8882
53.2466
42.3761
30.4196
17.3617
3.32829
-11.4803
-26.7738
-42.1798
-57.2426
-71.4058
-83.9984
-94.2389
-101.327
-104.471
-104.186
-100.76
-94.9698
-76.9998
-105.174
-133.661
-160.862
-183.025
-200.763
-194.939
-164.197
-154.342
-144.59
-134.006
-123.349
-114.356
-107.818
-103.893
-102.254
-102.631
-104.845
-105.415
-108.671
-111.734
-115.018
-118.137
-121.024
-123.658
-126.052
-128.23
-130.208
-132.011
-133.649
-135.114
-136.4
-137.486
-138.348
-138.957
-139.287
-139.313
-139.012
-138.367
-137.368
-136.012
-134.3
-132.238
-129.839
-127.116
-124.096
-120.801
-117.265
-113.52
-109.587
-105.509
-101.311
-97.0208
-92.6772
-88.277
-83.8582
-79.5515
-75.2353
-70.5427
-65.3207
-59.3538
-52.3781
-43.9338
-33.7042
-21.6461
-7.67889
7.83615
24.043
39.4301
52.3737
62.1336
69.6029
76.7373
82.1776
85.9372
88.5567
90.0668
90.2935
89.0524