/*--------------------------------*- C++ -*----------------------------------*\
  =========                 |
  \\      /  F ield         | OpenFOAM: The Open Source CFD Toolbox
   \\    /   O peration     | Website:  https://openfoam.org
    \\  /    A nd           | Version:  6
     \\/     M anipulation  |
\*---------------------------------------------------------------------------*/
FoamFile
{
    version     2.0;
    format      ascii;
    class       volVectorField;
    location    "0";
    object      U;
}
// * * * * * * * * * * * * * * * * * * * * * * * * * * * * * * * * * * * * * //

dimensions      [0 1 -1 0 0 0 0];

internalField   nonuniform List<vector> 
918
(
(0.985805 0.00394406 0)
(-0.00400741 2.9674 0)
(0.000649943 1.63935 0)
(0.980791 -0.00209127 0)
(-0.00481778 1.6011 -7.16458e-22)
(0.00137217 2.951 -1.36762e-18)
(0.850979 1.1565 5.08219e-19)
(0.489776 0.217949 -5.46173e-21)
(0.999924 -0.000379524 0)
(0.0253333 1.17271 0)
(-0.00833036 1.3343 0)
(0.817459 -0.00666138 0)
(0.00893857 2.93483 0)
(0.00347555 2.79782 0)
(-0.000239359 3.20202 8.05895e-19)
(-0.00619034 1.51061 -1.14263e-20)
(0.58845 0.0884151 3.36238e-19)
(0.200209 1.1546 4.19885e-19)
(0.966269 0.00437417 0)
(0.00212624 1.48099 0)
(0.210877 0.264701 -2.93709e-19)
(1.00147 -0.00537455 0)
(1.00155 -0.00844116 0)
(0.977301 -0.00508502 0)
(0.741534 -0.0129195 0)
(0.0308984 2.6367 0)
(-0.0108702 2.91564 4.54516e-19)
(-0.0118829 1.66644 0)
(-0.0123714 1.76457 0)
(-0.0144766 1.66315 0)
(-0.000378541 1.80814 0)
(0.003911 1.61348 5.60899e-22)
(-0.00798527 1.52095 0)
(-0.019796 2.98959 -4.7859e-23)
(-0.0137575 3.00796 1.07658e-18)
(0.00163419 2.99972 0)
(0.873933 -0.00628082 0)
(0.355249 0.896438 -3.38415e-20)
(0.855895 1.16934 -7.1972e-19)
(0.980937 1.04951 6.72855e-19)
(0.712936 1.25794 -1.17022e-19)
(0.746447 1.19893 6.61631e-19)
(0.523567 0.301354 5.32714e-21)
(0.522609 0.195532 0)
(1.2029 0.549807 0)
(0.48313 0.316241 2.49625e-20)
(0.441591 0.222178 -2.59131e-20)
(0.925169 -0.00390491 0)
(1.00033 -0.000233409 0)
(0.999906 0.000288934 0)
(1.00349 -0.00708262 0)
(1.00069 -0.00110138 0)
(1.00007 -6.70796e-05 0)
(0.0553758 1.56946 -3.54109e-19)
(-0.0101345 1.26293 0)
(0.0333652 1.08361 0)
(-0.0161515 1.36406 0)
(0.0215454 1.24034 0)
(-0.00535057 1.56417 0)
(-0.00740821 1.50707 0)
(0.00493615 1.33654 0)
(-0.0190764 1.53093 0)
(-0.0111789 1.35742 0)
(0.895078 0.00128499 0)
(0.900084 0.00968382 0)
(0.834016 0.00112535 0)
(0.890321 0.014834 0)
(0.802018 -0.00812862 0)
(0.013697 3.0036 4.92762e-19)
(0.0115211 3.00434 0)
(0.0074004 3.00385 0)
(0.0106348 2.99813 5.49835e-24)
(0.00616212 2.96199 -7.41466e-19)
(0.0117894 2.98458 0)
(0.0085092 2.90905 0)
(0.0213176 2.933 9.94033e-25)
(0.00454301 2.82853 0)
(0.0272357 2.91986 0)
(9.34975e-06 2.7464 0)
(0.312258 3.6071 0)
(-0.127778 3.68932 0)
(0.151617 3.29293 -7.46806e-19)
(0.00581783 3.02309 0)
(-0.0103801 1.79043 0)
(-0.00264271 1.63954 1.12701e-20)
(-0.00755227 1.52561 -1.74089e-20)
(0.651233 0.157685 -1.15902e-19)
(0.610288 0.0579225 -1.10993e-19)
(0.613921 0.187278 -3.46381e-19)
(0.564782 0.124299 -2.32622e-19)
(0.290946 1.05789 0)
(0.24128 1.2259 -4.16268e-19)
(0.338226 1.22471 6.88796e-19)
(0.989506 0.00791469 0)
(0.946672 0.00815125 0)
(0.999807 0.000847078 0)
(1.00371 0.00767447 0)
(1.00329 0.00883302 -5.65814e-19)
(0.992847 0.00712379 4.33393e-19)
(-0.0108175 1.59321 0)
(-0.00536938 1.46788 0)
(-0.0127287 1.67389 0)
(-0.0138541 1.62273 0)
(0.00320366 1.49822 0)
(0.239344 0.290803 9.01399e-20)
(0.294941 0.263618 0)
(0.994326 -0.00611902 0)
(0.955481 -0.00546086 0)
(0.866965 0.0183368 0)
(0.832525 0.0388102 0)
(0.779214 -0.00268644 0)
(1.02933 -0.00388637 0)
(0.786479 0.0459326 0)
(0.662234 -0.0225104 4.29944e-19)
(-0.0343734 2.86726 2.55627e-19)
(0.035265 2.91373 0)
(0.0453385 2.89006 0)
(0.00482882 2.70047 0)
(-0.00778565 2.98759 4.223e-19)
(-0.0126331 2.89886 0)
(-0.00984568 2.99266 -1.32777e-18)
(-0.0091827 2.93236 4.57485e-19)
(-0.00818081 1.81378 0)
(-0.00745475 1.80863 0)
(0.000406724 1.6409 -2.08722e-22)
(0.000559349 1.61563 0)
(-0.0105681 1.51246 0)
(0.934805 -0.00326412 0)
(0.867562 -0.00379167 0)
(0.869325 0.0120586 0)
(0.943741 -0.00205878 0)
(0.892616 -0.00502129 0)
(0.483899 1.09639 3.48636e-20)
(0.532146 1.17607 0)
(0.314409 0.814155 1.01351e-21)
(0.254826 0.681325 0)
(0.969108 1.06361 -1.98301e-19)
(1.0866 0.879679 4.04436e-19)
(0.418142 1.28884 0)
(0.616246 1.29093 0)
(0.546365 1.23633 0)
(0.132313 0.0861174 -5.98496e-20)
(0.556355 0.268263 0)
(0.539034 0.166428 6.75981e-20)
(1.04822 0.925256 0)
(1.12262 0.768451 0)
(1.15362 0.703669 -3.55204e-19)
(1.18016 0.611462 0)
(1.23755 0.393107 3.3987e-20)
(0.956184 -0.00441909 0)
(0.962981 -0.00408193 0)
(0.907709 -0.00403968 0)
(0.985284 -0.00660926 0)
(0.977097 -0.00519889 0)
(0.940282 -0.00405252 0)
(0.999791 0.00240508 0)
(1.00092 0.00111466 0)
(1.00003 0.000640651 0)
(0.0521132 1.73496 1.92721e-19)
(0.103302 1.52641 0)
(0.0221696 1.75622 3.06958e-19)
(0.031728 1.59567 -2.57798e-19)
(0.0980562 1.15705 -3.49005e-19)
(-0.00743366 1.17483 0)
(0.129515 1.02736 0)
(0.00440757 1.43469 0)
(0.0140735 1.28576 0)
(-0.0131357 1.69033 -7.62116e-22)
(-0.0119466 1.59232 0)
(-0.00432827 1.67581 -3.5072e-20)
(0.00142139 1.56369 6.79642e-20)
(-0.0102168 1.47592 0)
(0.000742499 1.50313 0)
(0.00532181 1.30888 0)
(-0.0206913 1.55198 0)
(-0.0136709 1.39142 0)
(0.968131 0.0160549 0)
(0.916275 0.00776733 0)
(0.951268 0.00981013 0)
(0.88609 0.00303909 0)
(0.835557 -0.00645057 0)
(0.918998 0.000133033 0)
(0.910661 0.00744733 0)
(0.833928 -0.0039392 0)
(0.00849662 3.06474 -4.18829e-21)
(0.0144152 3.05729 0)
(0.0122511 2.97246 0)
(0.00743795 2.88076 0)
(0.911813 4.01404 0)
(1.21558 3.39017 7.59377e-19)
(0.0806738 3.10518 0)
(-0.0144719 2.92823 0)
(-0.0110459 1.79372 0)
(-0.0118839 1.78984 0)
(-0.0111318 1.79139 0)
(-0.00323429 1.79837 2.55094e-21)
(-0.01052 1.79379 0)
(-0.00452863 1.79128 0)
(-0.00447714 1.54966 2.45561e-22)
(-0.00605314 1.67019 2.26013e-20)
(-0.00648486 1.65599 1.7771e-20)
(-0.00592908 1.5338 0)
(0.684139 0.120546 1.695e-19)
(0.636566 0.0294832 -1.65576e-19)
(0.18197 1.40239 0)
(0.342825 0.818264 -1.6118e-19)
(0.133414 1.48333 -5.11711e-19)
(0.248867 1.25987 5.10806e-19)
(0.91166 0.0113532 0)
(0.969683 0.011311 0)
(0.976348 0.010933 0)
(0.929051 0.00850407 0)
(-0.0199535 1.57075 0)
(-0.0177333 1.58222 0)
(-0.0112738 1.42945 0)
(0.451309 0.330464 2.26899e-19)
(0.373766 0.304674 -2.77095e-19)
(0.391094 0.24873 0)
(1.14579 0.0864346 -5.66699e-21)
(1.13391 0.0410741 0)
(1.06192 0.0345281 0)
(0.977199 0.00497955 0)
(0.686767 0.0754487 0)
(0.715487 0.0348932 -7.01219e-19)
(0.629112 -0.00256759 2.75179e-19)
(0.0111527 2.98089 3.13818e-19)
(-0.0290972 2.86677 3.11298e-20)
(0.00676896 3.05033 -9.03456e-21)
(0.0152139 3.04138 3.45527e-19)
(-0.00969286 3.00013 1.52445e-20)
(-0.00880728 2.95412 -6.2314e-23)
(-0.0149976 3.0129 -2.92308e-19)
(0.0124558 3.02399 2.06125e-19)
(0.0061306 3.03165 -3.30262e-19)
(0.946438 0.00885465 0)
(0.940412 0.00362759 0)
(0.870611 0.00193827 0)
(0.960286 0.0125119 0)
(0.947274 0.0156175 0)
(0.891745 0.00942414 0)
(0.92257 0.00163842 0)
(0.930396 0.0113564 0)
(0.844339 -1.63856e-05 0)
(0.676215 1.41539 2.2176e-19)
(0.70087 1.53106 0)
(0.182196 0.376241 1.10903e-20)
(0.159804 0.495223 8.66798e-20)
(0.216346 0.623861 -4.8524e-20)
(0.18477 0.517729 8.74742e-20)
(0.295275 0.639498 3.61075e-19)
(0.151632 0.136466 1.23541e-19)
(0.597612 0.219746 2.50405e-19)
(0.577217 0.240099 6.1095e-20)
(0.556772 0.14854 1.24375e-19)
(1.22632 0.454412 2.33595e-19)
(1.24559 0.249718 2.42817e-19)
(0.0111582 1.75435 1.18807e-19)
(0.0209957 1.61186 0)
(1.01568 0.028043 0)
(0.984598 0.01978 0)
(0.942015 0.000595383 0)
(0.010952 3.07302 0)
(0.0171182 2.94589 5.79724e-19)
(0.0140868 2.95894 0)
(0.00586318 2.85402 -5.76844e-19)
(0.00766181 3.08785 1.36367e-19)
(0.0107519 3.08003 0)
(0.720714 1.82781 -1.7125e-19)
(1.25944 2.62253 5.66958e-19)
(0.703517 1.99993 -1.14133e-18)
(0.0233217 2.98425 -2.36684e-19)
(0.0419816 3.01113 0)
(-0.0316651 2.88772 0)
(0.0034013 1.65926 -2.73896e-21)
(-0.00281582 1.67417 -4.89314e-20)
(0.00153103 1.55931 -4.29487e-21)
(0.241232 1.28339 4.77351e-19)
(0.307681 0.53262 -3.26693e-19)
(0.068552 1.66508 3.39065e-19)
(0.105742 1.58852 -4.14971e-19)
(0.146438 1.40211 5.10345e-20)
(0.00343896 3.1183 -7.99357e-19)
(0.0170361 3.11755 8.88392e-19)
(-0.00433673 2.98258 3.72828e-19)
(-0.000848231 2.97817 -3.36954e-19)
(-0.0147822 2.88235 -3.79835e-19)
(0.0120505 3.0979 -1.00147e-18)
(0.00589349 3.10228 1.00051e-18)
(0.179926 0.546577 0)
(0.110164 0.454306 -1.79347e-19)
(0.147323 0.149768 7.72074e-20)
(0.304476 0.766696 3.65756e-19)
(0.228572 0.182264 -5.59699e-19)
(1.23091 0.16937 -5.43198e-20)
(1.24048 0.307809 0)
(1.22412 0.11299 9.83375e-20)
(-0.0107389 1.72772 -9.36001e-22)
(-0.000347629 1.73949 0)
(0.00189398 1.60221 0)
(0.334149 1.16483 -1.53274e-19)
(0.36233 1.00272 -3.3073e-19)
(0.242579 0.30254 5.47231e-19)
(1.0051 -0.011044 0)
(1.00675 -0.00739983 1.04222e-19)
(-0.00735205 1.80217 0)
(-0.0135973 1.81022 0)
(1.00175 0.00309697 1.10381e-21)
(1.00292 0.00837396 2.11917e-19)
(-0.00483428 1.8025 -3.39234e-21)
(-0.00406151 1.80088 0)
(0.0476154 3.18027 1.14414e-19)
(0.384789 3.55704 0)
(1.06734 0.685049 5.23781e-20)
(1.01048 0.0104623 -1.46589e-21)
(1.01668 -0.015224 0)
(1.00163 0.000305532 4.98337e-23)
(-0.191377 1.45253 0)
(-0.0349342 2.11611 0)
(-0.0220387 1.78293 0)
(-0.0391551 1.85854 4.82972e-20)
(-0.00397236 1.82794 2.90738e-20)
(1.00312 0.00985409 1.17362e-21)
(1.0468 0.0133315 0)
(1.07961 0.0328104 0)
(-0.0117985 1.7904 0)
(-0.00856208 1.81147 0)
(-0.0188833 1.7961 0)
(0.254027 1.16813 -2.86409e-19)
(1.00828 -0.00907737 0)
(1.01039 -0.0133925 0)
(1.00238 0.000257685 1.30672e-19)
(1.0056 -0.00561111 -1.56555e-19)
(1.00093 -0.000825755 0)
(-0.0134397 1.78956 0)
(-0.0106389 1.79435 0)
(-0.0108654 1.79451 0)
(-0.0160596 1.79875 0)
(-0.0127893 1.79489 0)
(-0.0160402 1.79846 0)
(1.01936 -0.00166621 0)
(1.02365 0.0117332 -1.05535e-21)
(0.764078 1.27894 3.64275e-19)
(1.00284 0.000462202 -1.3049e-19)
(1.00321 0.00387817 1.58699e-19)
(1.00132 0.0019697 0)
(1.01073 0.00961941 1.25909e-19)
(1.0076 0.00960703 -1.59443e-19)
(1.00891 0.0118547 0)
(-0.0069414 1.81244 0)
(-0.00543334 1.8084 8.73509e-21)
(-0.00613955 1.80793 -5.91467e-21)
(1.18456 0.264805 -1.14106e-19)
(1.11955 0.0826174 0)
(0.0593437 3.08585 -3.83095e-19)
(0.0529175 2.86476 -2.93676e-20)
(0.121668 3.20446 4.89328e-19)
(0.130388 3.22081 -3.81982e-20)
(0.149468 3.26408 0)
(0.0255443 3.1375 9.27912e-20)
(0.0725394 3.16189 3.76515e-19)
(0.070134 3.18415 -1.77814e-19)
(0.0313603 3.12536 0)
(0.704355 0.336541 0)
(0.636854 0.400974 0)
(1.06592 0.711374 -1.94954e-19)
(1.03145 0.863367 2.95871e-19)
(1.12262 0.593311 0)
(1.15418 0.548449 0)
(1.01408 0.0100344 -2.36016e-19)
(1.01312 0.00850973 2.94073e-19)
(1.0194 -0.0151966 0)
(1.01223 -0.0223359 0)
(1.0079 0.00140316 0)
(1.01017 0.00221495 0)
(1.00377 0.00322914 0)
(1.00858 0.00760485 0)
(1.00671 0.00527185 0)
(1.00363 0.00492215 0)
(-0.17137 1.48005 0)
(-0.148045 1.54372 0)
(-0.188263 1.40787 0)
(-0.122784 1.35696 0)
(-0.077861 2.1851 0)
(0.0270988 2.19522 -2.02974e-19)
(-0.0277866 2.10843 0)
(-0.0223267 2.02926 1.00561e-19)
(-0.0286097 1.93115 -9.1765e-20)
(-0.0201766 1.78523 0)
(-0.0191507 1.78723 0)
(-0.0329788 1.77196 0)
(-0.0280713 1.74226 0)
(-0.0594284 1.82709 -2.89334e-20)
(-0.0180839 1.83724 4.01468e-20)
(-0.038251 1.85711 4.81028e-20)
(-0.0193014 1.84487 0)
(-0.0030992 1.82884 -6.35344e-20)
(-0.00346206 1.82441 -3.49812e-20)
(-0.0547958 1.82201 2.25405e-20)
(-0.0292857 1.83117 -5.17878e-20)
(-0.0379383 1.84162 -6.14378e-20)
(1.01012 0.0160838 2.31292e-19)
(1.01 0.00554905 -2.85393e-19)
(1.00627 0.0180089 -2.43065e-19)
(0.995233 0.0163762 3.11452e-19)
(1.04151 0.0204322 0)
(1.04173 0.0116797 0)
(1.06247 0.0359395 0)
(1.05162 0.0241361 0)
(1.0576 0.0135636 0)
(1.10315 0.073402 0)
(1.07891 0.0503593 0)
(1.09971 0.0397506 0)
(-0.00926788 1.80364 -1.02042e-21)
(-0.0121224 1.79389 0)
(-0.0101835 1.79707 0)
(-0.00988589 1.81524 1.06038e-20)
(-0.0127186 1.81456 -4.77048e-22)
(-0.0152263 1.78925 1.01168e-20)
(-0.0147908 1.79075 -1.02785e-20)
(-0.0167047 1.79477 0)
(-0.0138478 1.79511 0)
(-0.0135475 1.79509 0)
(-0.019713 1.79574 0)
(-0.0218264 1.79506 0)
(0.434872 1.26438 6.08192e-19)
(0.389205 1.36647 2.1907e-19)
(0.607333 2.45814 -1.14964e-19)
(0.284292 2.45001 3.01847e-19)
(0.535744 2.38974 -1.34633e-19)
(1.01702 -0.0110809 0)
(1.01636 -0.00927579 0)
(1.01708 -0.0137825 0)
(1.00897 -0.000621582 0)
(1.00442 -0.000816615 0)
(1.00697 -0.00420414 0)
(1.0101 -0.00480072 0)
(1.01132 -0.00489707 0)
(1.02202 0.012697 2.24066e-19)
(1.013 0.0159105 -2.87455e-19)
(1.02579 0.00853491 -2.22797e-19)
(1.02325 0.00791293 2.80167e-19)
(0.74405 1.30229 0)
(0.649239 1.37592 4.36878e-19)
(0.856606 1.20655 2.56231e-19)
(0.868366 1.20346 -3.40261e-19)
(1.12765 2.62478 -3.95276e-19)
(0.829725 0.105366 1.68779e-19)
(1.12591 0.0977079 0)
(1.16563 0.171745 9.54064e-20)
(1.15 0.155868 4.13177e-21)
(0.972441 0.132415 0)
(0.108752 3.02642 -5.78947e-20)
(0.108833 2.90153 -4.44956e-19)
(0.0504051 2.3438 3.01605e-19)
(0.181661 0.0738258 -1.31893e-19)
(0.353786 3.45626 -3.2548e-19)
(0.202724 3.34598 0)
(0.231213 3.40849 4.23773e-19)
(0.243192 3.08354 -1.2767e-19)
(0.281122 3.20637 0)
(0.00870102 3.11936 2.0344e-20)
(0.0187228 3.12871 -2.5388e-19)
(0.0179974 3.12445 3.72966e-19)
(0.0385542 3.13787 0)
(0.0366539 3.14958 0)
(1.24847 2.60182 0)
(0.507383 0.820528 -1.30585e-19)
(0.951647 1.03022 -1.45852e-19)
(0.953988 1.06923 0)
(0.811363 0.961234 5.09296e-20)
(1.02174 0.901073 1.77983e-20)
(0.428632 0.458028 -3.26281e-19)
(0.726353 0.321625 -1.71671e-20)
(0.716802 0.295249 1.30149e-19)
(0.634915 0.425151 1.05086e-20)
(0.572833 0.420714 -4.36936e-19)
(0.701748 0.352991 0)
(0.689063 0.438948 2.23459e-19)
(0.694142 0.43754 0)
(0.680304 0.405029 0)
(0.682003 0.356449 0)
(0.722395 0.619773 5.69616e-20)
(1.18306 0.285163 8.43807e-20)
(1.17472 0.421126 0)
(1.17024 0.398246 0)
(0.772686 0.216459 1.95419e-19)
(0.763322 0.521086 -1.07307e-19)
(0.691969 0.496381 1.71054e-19)
(0.890283 0.405212 -1.39477e-19)
(1.01566 0.0117275 1.54959e-19)
(1.01454 0.00749914 -1.59577e-19)
(1.00868 0.008941 0)
(1.01711 -0.00593234 0)
(1.01733 -0.0164518 -1.38592e-19)
(1.00761 -0.0227912 1.37156e-19)
(1.03375 0.00743169 0)
(1.0279 0.0106941 0)
(1.01327 0.00459756 0)
(1.01373 0.0076538 0)
(1.01846 -0.000785467 0)
(1.01559 -0.00216786 0)
(-0.119009 1.59773 0)
(-0.0857094 1.63463 0)
(-0.27484 1.37874 1.27557e-19)
(0.21206 1.22641 1.66076e-19)
(-0.0680543 1.29455 3.48438e-19)
(0.0724465 1.21178 -5.70629e-19)
(-0.184738 1.38255 0)
(-0.385471 1.98211 2.09031e-19)
(-0.371196 1.93048 0)
(0.332381 2.45671 1.96353e-19)
(0.108236 2.54783 1.24364e-19)
(-0.366992 1.92735 -1.83812e-19)
(0.123184 1.13783 1.92327e-19)
(-0.16705 1.34862 -1.52257e-19)
(0.16267 1.16267 5.42733e-19)
(-0.145603 1.92705 0)
(0.0881124 1.99422 -3.9503e-19)
(-0.110459 1.89469 -1.8729e-20)
(-0.0278232 1.94907 0)
(-0.102811 1.9503 8.53126e-20)
(-0.0899464 1.91685 0)
(-0.0223432 2.00603 -1.09485e-19)
(-0.0197114 1.97862 0)
(-0.052956 1.79452 -2.09203e-20)
(-0.0687102 1.80231 0)
(-0.0733522 1.76713 0)
(-0.0579875 1.78309 2.35358e-20)
(-0.0422581 1.87176 -3.49988e-21)
(-0.0327302 1.91607 1.07845e-19)
(-0.0335865 1.89662 7.45579e-22)
(-0.0260462 1.81325 1.85108e-20)
(-0.0338479 1.80812 1.24323e-20)
(-0.02132 1.78765 0)
(-0.0233775 1.7871 0)
(-0.108119 1.84604 4.92382e-20)
(-0.102506 1.76967 3.24278e-20)
(-0.0983748 1.80671 -4.66754e-20)
(-0.146898 1.86797 0)
(-0.0124637 1.80815 -3.52001e-20)
(-0.0123986 1.8146 1.55107e-20)
(-0.0140415 1.81328 -5.18055e-21)
(-0.0199121 1.81418 -2.24403e-20)
(-0.0139421 1.81687 -8.27205e-21)
(-0.0120644 1.82207 4.18242e-20)
(1.02383 0.00638916 -1.48888e-19)
(1.01863 0.0110355 1.51656e-19)
(1.01906 0.00609047 0)
(0.997875 0.0439883 2.17194e-19)
(0.995256 0.0312048 -2.60827e-19)
(0.969129 0.0270577 3.05245e-19)
(0.989644 0.0844457 -2.83914e-20)
(1.02195 0.00254356 0)
(1.03287 0.0100664 1.2362e-19)
(1.02626 0.00470647 -1.20975e-19)
(1.0371 0.0423107 -6.49409e-21)
(1.0408 0.0261793 5.7469e-20)
(1.02639 0.0554384 0)
(1.02048 0.0464204 -2.23659e-20)
(1.01982 0.021929 0)
(1.01844 0.0221583 0)
(1.03436 0.00994981 0)
(1.02879 0.00848802 0)
(1.0274 0.0227542 4.6255e-20)
(1.02874 0.0183588 -1.07048e-19)
(1.02922 0.0281274 -4.54507e-20)
(1.03026 0.0321058 -5.44018e-20)
(1.02188 0.0556327 9.18132e-20)
(1.05495 0.0511634 0)
(1.04593 0.0844172 0)
(-0.0121288 1.80861 -1.40073e-20)
(-0.0124544 1.79773 -1.20989e-21)
(-0.0136311 1.79668 0)
(-0.00834334 1.8091 1.41235e-20)
(-0.00948996 1.80475 2.13828e-21)
(-0.00842757 1.80826 -2.37206e-21)
(-0.0067266 1.82259 3.11529e-20)
(-0.0150472 1.81567 -1.86313e-21)
(-0.0142386 1.816 8.91556e-21)
(-0.0128767 1.81816 -1.66027e-20)
(-0.0110541 1.81789 1.99049e-20)
(-0.0168031 1.79 2.38705e-22)
(-0.0166112 1.79133 1.597e-20)
(0.501582 1.15162 -3.33654e-19)
(0.508411 1.31749 -5.30456e-19)
(0.647257 1.40337 -4.21507e-19)
(0.53194 1.4132 -2.10841e-19)
(0.52347 1.43387 0)
(0.647178 2.41118 7.62331e-20)
(0.686263 2.41301 1.43919e-19)
(0.334866 2.53763 6.32656e-20)
(0.292598 2.65935 -7.37421e-20)
(0.426996 2.61064 1.18679e-19)
(0.539398 2.48711 0)
(0.512734 2.45555 -2.43213e-19)
(0.000765718 2.33811 5.21143e-19)
(0.182794 2.45765 -3.85923e-20)
(0.147229 2.34094 -6.84587e-19)
(0.927265 2.35201 7.79086e-20)
(0.833867 2.35799 0)
(1.0101 -0.000907583 5.10713e-21)
(1.01192 -0.00431997 -4.2828e-21)
(1.01294 -0.00757404 -7.51724e-20)
(1.01336 -0.00932329 7.61954e-20)
(1.01328 -0.00388934 0)
(0.662137 1.28075 0)
(0.642934 1.17194 0)
(0.755156 1.05369 0)
(0.624209 1.1161 0)
(1.1662 2.64289 2.83078e-20)
(1.03674 2.36916 0)
(0.763261 2.25899 -1.27407e-21)
(0.854522 2.47176 0)
(0.903723 2.55723 -1.54331e-20)
(0.892377 2.50869 1.02822e-20)
(0.822668 0.126578 0)
(0.800422 0.154157 5.00665e-20)
(0.898362 0.123839 2.45535e-19)
(0.863902 0.105442 -1.01792e-19)
(0.861478 0.0782621 -2.97546e-19)
(1.02007 0.219514 -1.09285e-19)
(0.942062 0.258448 -7.80002e-21)
(0.897057 0.276379 2.1214e-19)
(0.972971 0.212347 1.53944e-19)
(0.922837 0.163219 -3.00953e-19)
(0.880655 0.181292 4.00879e-20)
(0.90971 0.267381 -7.24414e-20)
(0.884252 0.197693 0)
(0.978025 0.174526 1.41245e-19)
(1.00258 0.168241 0)
(1.00382 0.195594 0)
(1.06673 0.095256 3.42149e-20)
(1.01142 0.151284 -6.61936e-21)
(1.00632 0.222944 -2.3125e-20)
(1.0365 0.184013 0)
(1.01302 0.0217456 1.14222e-19)
(1.01636 0.0405502 1.31602e-19)
(1.01748 0.0263337 -1.1281e-19)
(1.01056 0.0455802 -8.87835e-20)
(1.00066 0.0477314 -1.53516e-19)
(0.975968 0.134717 0)
(0.985567 0.0817016 0)
(0.969481 0.0480133 -1.11175e-19)
(0.928164 0.0592511 4.79178e-20)
(0.995471 0.0811919 1.26271e-19)
(1.01834 0.0933829 -1.11303e-19)
(1.01545 0.132545 1.06808e-19)
(1.00153 0.12093 0)
(1.02825 0.0899373 0)
(1.01521 0.075499 -4.9604e-20)
(1.01383 0.0741388 -9.98466e-20)
(0.554868 1.11439 -8.73979e-20)
(0.607719 1.53989 1.44309e-19)
(1.12026 2.78017 9.9192e-20)
(1.19586 3.13575 -5.83946e-20)
(1.23032 2.75593 4.19341e-19)
(1.28215 2.72881 -2.15249e-19)
(1.24395 2.33993 -1.51748e-20)
(1.17902 3.04194 1.87413e-19)
(1.18889 2.99932 -2.13849e-19)
(1.18311 3.28531 -1.93589e-19)
(1.39676 2.99733 2.32517e-19)
(1.41312 2.92918 0)
(0.525725 0.831801 -4.47618e-21)
(0.243463 1.27274 1.81452e-19)
(0.478473 0.54319 2.11557e-19)
(0.327706 0.320563 2.50203e-19)
(0.563545 0.444694 2.44658e-19)
(0.536882 0.514173 -3.82764e-19)
(0.539297 0.519049 3.18121e-19)
(0.516526 0.482113 -1.27298e-19)
(0.488983 0.431934 2.9639e-19)
(0.778299 0.24781 -1.08222e-19)
(0.74263 0.296475 0)
(0.746671 0.249896 7.99254e-21)
(0.68311 0.526428 1.12814e-19)
(0.645539 0.504126 -4.20177e-19)
(0.61311 0.495435 1.56996e-20)
(0.630116 0.47726 0)
(0.658518 0.737681 7.21307e-20)
(0.738717 0.783451 2.67323e-20)
(0.696588 0.841209 -3.63843e-20)
(0.797848 0.788557 -1.52078e-21)
(0.873587 0.834739 1.39469e-20)
(0.873708 0.839687 -1.43343e-20)
(0.795078 0.635767 -9.9081e-20)
(0.875845 0.698198 1.41662e-21)
(0.935986 0.707338 0)
(0.929217 0.682498 8.09805e-21)
(0.968484 0.305296 2.78095e-20)
(1.07751 0.295479 -2.42706e-20)
(1.00162 0.26498 4.37309e-20)
(0.940796 0.333653 -7.09709e-20)
(0.973435 0.421676 0)
(1.05605 0.388967 0)
(0.874999 0.342858 5.98773e-21)
(0.835029 0.272267 0)
(0.837408 0.261722 1.15112e-19)
(0.894767 0.273214 1.03026e-21)
(0.880827 0.414466 3.80831e-19)
(0.811761 0.490489 9.7742e-20)
(0.831193 0.44308 -1.34842e-19)
(0.787113 0.41951 1.4396e-19)
(0.762498 0.415809 1.04535e-19)
(0.767023 0.412122 -1.01374e-19)
(1.02018 -0.00865779 1.19891e-19)
(1.02296 -0.00922921 0)
(1.01958 -0.0111434 8.11227e-20)
(1.01865 -0.0119187 -1.79858e-19)
(1.03314 -4.58937e-05 8.77354e-20)
(1.02971 0.00783438 -1.85554e-19)
(1.02676 0.0114602 0)
(1.02287 0.0132567 -3.88566e-20)
(1.02332 0.00233365 9.70517e-20)
(1.01957 0.0105245 -4.95672e-20)
(1.02319 0.0114488 3.66594e-20)
(-0.0495614 1.72878 0)
(-0.0769861 1.75599 0)
(-0.0713847 1.67616 0)
(-0.0525122 1.69205 0)
(-0.244145 1.69189 -1.04127e-19)
(-0.245462 1.55978 3.05688e-20)
(-0.332164 1.93759 1.24666e-20)
(-0.412389 1.69817 -9.37471e-20)
(-0.134834 1.77236 -1.58135e-20)
(-0.152067 1.76661 1.0316e-20)
(-0.194558 1.67509 1.69953e-20)
(-0.169736 1.69068 3.35354e-20)
(-0.112719 1.7177 2.78464e-21)
(-0.105479 1.7386 -1.0437e-21)
(-0.143037 2.03087 -8.94235e-20)
(-0.156952 2.09735 0)
(-0.302199 2.14097 1.19376e-20)
(-0.336953 1.97217 3.97645e-21)
(-0.232222 2.29491 2.82651e-20)
(-0.154113 2.45891 0)
(-0.0917888 2.48539 -7.65185e-20)
(-0.018424 2.53782 5.43695e-20)
(-0.288991 2.24148 2.07683e-20)
(-0.303908 2.20624 -4.47975e-20)
(-0.230857 2.32338 0)
(-0.0844256 1.83486 -6.47435e-20)
(-0.0716666 1.84045 -9.50079e-20)
(-0.0734083 1.83246 0)
(-0.076116 1.87601 -2.97085e-21)
(-0.0914275 1.87495 3.4461e-20)
(-0.0243602 1.79596 3.74951e-21)
(-0.0211265 1.79646 -5.72311e-20)
(-0.0238197 1.79918 1.26748e-20)
(-0.028035 1.79805 2.29965e-20)
(-0.0378324 1.79811 0)
(-0.0231656 1.79867 0)
(-0.0271697 1.79154 1.77655e-20)
(-0.0262719 1.79371 -5.59303e-21)
(-0.0262307 1.79592 0)
(-0.0265248 1.7878 1.35237e-20)
(-0.0256802 1.78879 -2.65587e-20)
(1.02996 0.0203244 0)
(1.0345 0.0208062 -1.13429e-20)
(1.03289 0.0187563 -8.49657e-20)
(1.03276 0.0209364 0)
(1.03247 0.0242005 0)
(1.03463 0.0133038 -3.56678e-21)
(1.03418 0.0123622 1.42408e-19)
(1.02996 0.0117017 1.7337e-19)
(1.02858 0.00981015 0)
(1.02335 0.00847747 0)
(1.02666 0.0175799 8.62498e-20)
(1.02172 0.0137646 0)
(1.02293 0.0118108 0)
(-0.0171993 1.80845 0)
(-0.0176954 1.7925 1.199e-21)
(-0.016983 1.80113 7.69657e-21)
(-0.0263636 1.79414 0)
(-0.0206177 1.79422 1.04897e-20)
(-0.0189346 1.79226 -5.33647e-21)
(-0.0233069 1.79196 0)
(0.650716 1.63641 0)
(0.555639 1.34349 7.90315e-19)
(0.522047 1.66114 0)
(0.653757 1.27854 -8.14223e-19)
(0.572456 1.30097 0)
(0.615462 1.24048 3.53357e-19)
(1.01866 2.68588 -2.10511e-21)
(0.951922 2.36608 -9.54815e-20)
(0.8613 2.0961 1.64485e-19)
(0.846232 2.34265 5.90423e-20)
(0.882693 2.4922 0)
(0.897017 2.49897 0)
(0.903566 2.34702 0)
(0.900495 2.30514 -2.19938e-19)
(0.766748 2.49396 2.1131e-20)
(0.862538 2.47699 -9.79651e-21)
(0.852008 2.45571 7.80908e-21)
(0.72148 2.38492 0)
(0.800064 2.36167 0)
(0.773488 2.38862 -1.30901e-19)
(0.830638 2.47578 0)
(0.571514 1.0581 0)
(0.503024 0.902346 2.34258e-20)
(0.513055 0.950728 2.33864e-21)
(0.490312 1.06043 0)
(0.502532 1.00095 -3.62681e-20)
(0.724241 0.864309 1.79482e-20)
(0.755935 0.99316 0)
(0.738993 0.979886 -6.10864e-20)
(0.643072 0.985211 0)
(0.608893 0.921627 0)
(1.13139 2.79491 5.29894e-20)
(1.10596 2.85735 9.64369e-20)
(0.894864 2.40958 -2.1594e-19)
(0.875751 2.39363 3.00005e-20)
(1.09727 2.75874 0)
(1.04958 2.72783 -3.71105e-20)
(1.06466 2.49523 -2.65714e-20)
(0.93891 2.21272 -1.62485e-20)
(0.466529 1.4274 0)
(0.457958 1.10644 7.64517e-20)
(0.519914 1.18887 0)
(0.840595 0.217997 0)
(0.80517 0.171485 0)
(0.777041 0.194117 0)
(0.830905 0.222078 -1.81961e-19)
(0.786283 0.222654 1.14167e-19)
(0.928987 0.0567119 -9.6735e-20)
(0.936826 0.105074 0)
(0.923219 0.109871 4.55706e-20)
(0.885426 0.0733178 1.88181e-19)
(0.886147 0.0630835 -1.15574e-19)
(1.11117 3.37923 -6.65617e-19)
(1.1732 3.30283 0)
(1.13363 3.45326 -1.40833e-18)
(0.671024 3.6006 1.20572e-18)
(1.02014 3.10951 2.95512e-19)
(0.504844 0.834336 1.09621e-19)
(0.493633 0.814625 0)
(0.389388 0.559275 -4.86265e-20)
(0.39896 0.68686 2.13304e-19)
(0.498782 0.543249 -6.81964e-20)
(0.494922 0.558592 7.60143e-20)
(0.629696 0.550719 1.52157e-19)
(0.646755 0.572887 0)
(0.580333 0.625938 0)
(0.555575 0.568798 0)
(0.918543 0.582866 -4.18498e-20)
(0.851308 0.524631 -9.31649e-20)
(0.886396 0.575373 2.21852e-20)
(0.913379 0.483371 -6.50637e-20)
(0.99246 0.455072 0)
(1.01566 0.565906 4.68585e-21)
(0.82902 0.368125 -2.24675e-19)
(0.820819 0.356628 -2.68176e-19)
(0.819162 0.363171 1.74766e-19)
(0.798979 0.336908 -2.06586e-19)
(0.826594 0.291341 -1.52238e-19)
(0.801131 0.295834 1.87022e-19)
(1.03646 0.00163636 -9.11191e-20)
(1.0368 0.00364121 1.87109e-19)
(1.02217 -0.000752627 1.14179e-19)
(1.02712 0.00265825 -1.37637e-19)
(1.03137 0.0181266 0)
(1.03462 0.0131931 -2.24423e-19)
(-0.15273 1.87439 1.98473e-20)
(-0.174388 1.87035 0)
(-0.241977 1.94629 -1.61542e-21)
(-0.292633 1.9697 9.1052e-21)
(-0.297177 1.92471 -2.33989e-20)
(-0.258897 1.91595 0)
(-0.0155582 1.80922 0)
(-0.0232144 1.802 -5.9763e-21)
(-0.0228457 1.7977 5.34555e-21)
(-0.0219038 1.79718 1.33464e-21)
(-0.017587 1.80757 -1.03308e-20)
(-0.0147955 1.8085 6.87308e-21)
(0.530452 1.41467 2.57911e-19)
(0.581305 1.43 -2.73428e-19)
(0.605705 1.29554 3.44949e-19)
(0.717955 1.39519 -1.67035e-20)
(0.639747 1.29522 0)
(0.610887 1.34109 3.97869e-19)
(0.617048 1.36496 -3.92692e-19)
(0.59885 1.27225 -3.44801e-19)
(0.591223 1.28074 0)
(0.556082 1.26444 0)
(0.832171 2.52405 -3.1902e-20)
(0.744345 2.51405 2.86851e-19)
(0.826115 2.51102 -1.94684e-19)
(0.736947 2.52221 -6.84274e-20)
(0.622495 2.71383 -1.13552e-20)
(0.484348 2.7345 -6.25447e-20)
(0.957153 2.33899 -9.3661e-20)
(0.988701 2.38095 0)
(0.87245 2.10478 -1.02588e-19)
(1.02316 2.70851 0)
(1.01451 2.68485 0)
(0.622524 2.3281 2.62785e-19)
(1.10615 3.10014 3.22774e-19)
(0.996419 3.00795 -3.67111e-19)
(0.32889 0.937589 0)
(0.373017 0.847124 -8.0956e-20)
(0.548907 0.754382 -2.455e-20)
(0.400354 2.16967 0)
(0.415235 2.76583 -2.07517e-19)
(0.438131 2.51343 0)
(0.654234 0.691028 -1.50141e-19)
(0.704674 0.668525 2.13456e-19)
(0.703199 0.641648 -2.12596e-19)
(0.603653 0.660179 -2.39739e-20)
(0.674976 0.613635 -1.01661e-19)
(0.980171 2.78492 -2.43876e-19)
(1.013 2.80632 2.29068e-19)
(0.597008 2.28406 -1.39971e-19)
(0.606045 1.75816 6.27706e-20)
(0.717875 1.94337 1.11362e-19)
(0.97663 2.45657 -4.55019e-20)
(0.974732 2.44351 -1.39629e-19)
(0.671329 1.88971 -5.7208e-21)
(0.465928 1.39879 -7.65962e-20)
)
;

boundaryField
{
    wall-4
    {
        type            noSlip;
    }
    velocity-inlet-5
    {
        type            fixedValue;
        value           uniform (1 0 0);
    }
    velocity-inlet-6
    {
        type            fixedValue;
        value           uniform (0 3 0);
    }
    pressure-outlet-7
    {
        type            zeroGradient;
    }
    wall-8
    {
        type            noSlip;
    }
    frontAndBackPlanes
    {
        type            empty;
    }
}

