/*--------------------------------*- C++ -*----------------------------------*\
  =========                 |
  \\      /  F ield         | OpenFOAM: The Open Source CFD Toolbox
   \\    /   O peration     | Website:  https://openfoam.org
    \\  /    A nd           | Version:  6
     \\/     M anipulation  |
\*---------------------------------------------------------------------------*/
FoamFile
{
    version     2.0;
    format      ascii;
    class       volScalarField;
    location    "./ITHACAoutput/Offline/1";
    object      P_rec;
}
// * * * * * * * * * * * * * * * * * * * * * * * * * * * * * * * * * * * * * //

dimensions      [0 2 -2 0 0 0 0];

internalField   nonuniform List<scalar> 
13046
(
1.10317
1.04966
1.10026
1.10936
1.11067
1.06299
1.09224
1.05761
1.11301
0.793495
0.505629
1.09314
1.09436
0.999627
1.09935
0.880955
1.0754
0.577426
1.12459
1.0929
1.09102
0.865098
1.08098
0.569387
1.10749
1.07984
1.09919
1.08044
0.991187
1.09495
1.11279
1.02994
1.0929
1.11391
1.10796
1.08191
1.10976
1.11195
1.09173
1.11174
1.07358
1.02616
1.10185
1.11756
1.10411
1.10631
1.10935
1.09846
1.09256
1.04007
1.10287
1.03098
1.11518
0.982
1.02598
0.968336
1.11847
0.785978
1.03513
1.06159
1.02641
0.942145
1.10985
1.09294
0.711786
0.926892
1.05236
0.8039
1.0554
1.06638
0.831686
1.05553
0.742754
1.01919
1.0613
1.12423
1.09775
1.0766
1.06828
0.982715
0.710852
1.10296
1.0712
1.10044
1.09024
0.66618
0.89621
0.89189
1.1077
0.744628
1.11637
0.826223
0.742341
1.03227
1.01132
0.885687
0.86023
1.09052
1.09506
1.11131
0.89386
0.768971
1.10732
1.11331
1.08978
1.12208
1.00794
1.03176
1.11286
1.05526
1.00947
0.653862
1.09214
0.327531
1.10072
1.0216
1.09779
1.01442
1.03178
0.826148
1.08222
0.868642
1.08323
0.766154
0.458166
1.09183
1.06625
0.930501
1.0955
1.10917
1.07721
1.01902
1.11599
0.848744
0.783419
0.975721
0.81628
1.10046
1.1075
1.01143
1.08899
1.06177
1.02772
1.11101
1.11089
1.04247
1.00994
1.1202
1.02939
1.04813
1.01948
0.912798
1.10863
1.12481
1.06166
1.05932
0.985722
0.967681
0.964774
0.963835
1.1184
1.11906
1.05514
1.01709
1.11534
0.78095
1.09761
0.525476
0.702011
1.09119
0.371135
0.965734
0.78433
1.09681
1.10909
0.965046
1.06836
1.05898
1.11625
1.03106
1.1043
0.583749
0.799017
1.11081
0.988475
1.06532
1.12405
1.04745
1.04817
1.07219
1.03889
1.11061
0.982156
1.10675
1.07417
0.958228
1.09434
0.878682
1.10222
0.687623
1.11458
0.885873
0.796509
0.834469
0.715256
1.11279
1.01884
0.936576
1.1102
1.07962
0.995104
1.06233
0.711774
0.673012
0.822843
1.11264
1.10402
1.11406
1.08821
1.0895
1.0029
1.0902
1.11659
0.870635
0.804193
1.07041
0.992715
1.11018
1.09955
0.44565
0.707278
1.11185
0.937813
1.00398
0.865781
0.755978
1.11233
1.00278
0.990624
1.11964
1.0599
0.926659
1.09312
0.877379
0.888018
1.11563
0.942869
0.942686
1.11679
1.10115
0.434286
0.677772
1.1175
1.05946
0.989749
0.681281
1.08293
0.273643
1.11869
1.09906
1.08441
1.02139
1.02145
0.982031
1.00081
1.1194
1.11312
1.06365
0.963665
0.675161
1.07644
0.949492
1.08535
0.933704
0.914144
1.11833
0.990731
0.815914
1.08967
1.10795
1.09865
1.1157
0.986431
0.967301
1.11821
1.07822
0.931214
1.08225
1.07463
1.07003
1.11889
1.05175
0.970544
0.981645
0.944544
1.11644
0.964187
1.0904
0.787718
1.12327
1.06008
1.01528
1.11958
0.946015
0.978268
1.03798
0.847793
1.07236
1.11542
1.03889
0.971767
1.01964
1.01015
0.816488
1.07223
0.805164
1.07793
1.10051
0.610806
0.823756
1.04291
0.892231
1.08242
0.201714
1.09224
0.567362
1.08544
1.11809
1.06111
1.04296
0.964215
1.10794
1.10066
0.907696
0.728018
1.01297
0.948363
1.11742
0.847702
0.881357
1.11605
1.02094
1.10558
1.03287
0.941389
1.1019
1.01738
1.11221
0.911656
1.07496
0.620963
1.02557
0.911775
1.11147
1.01967
0.917304
1.09944
1.04751
1.0188
1.11647
1.00658
1.02978
1.11903
1.1053
1.04855
1.10581
1.11428
0.950486
0.991442
0.857749
0.696804
1.1056
0.846129
0.886273
1.11658
1.07483
1.05184
0.873069
1.00087
1.01547
0.788347
0.753879
1.06528
1.06705
1.08897
0.227855
0.605719
0.709091
1.08232
0.309498
1.01115
0.964644
1.1112
1.10013
0.866047
0.649092
1.0547
1.04836
0.857792
0.842709
1.06674
1.06666
1.11184
0.608237
0.753198
0.661869
1.0829
0.218906
1.08727
1.12034
1.10145
0.650214
0.278848
1.08921
1.10358
0.960345
1.06752
0.808746
0.6083
1.10758
0.205297
1.09592
0.486446
1.1142
1.07454
1.04455
1.09113
1.08551
1.11426
0.77257
1.08906
0.448876
1.08269
1.07348
1.11475
1.09389
1.11795
1.10619
1.11851
0.917552
0.995696
1.07289
1.08925
1.11891
1.08725
1.06572
1.11868
1.08527
0.889415
1.04809
1.08708
1.09259
0.566861
0.56313
0.844327
0.831722
0.824189
0.666425
1.10622
1.05574
1.07115
0.841927
1.11051
1.0597
0.999868
0.925709
0.940827
1.11397
0.341234
1.10369
0.550816
1.11524
0.816796
0.710495
0.722795
1.09444
0.419319
1.09423
0.159012
0.471084
0.113777
1.0886
0.516768
0.906133
0.978073
1.11068
0.502606
1.11046
0.666245
0.952273
0.804945
1.10296
0.846265
1.0694
0.47737
1.09156
1.10292
1.03727
0.646026
1.11348
0.780333
0.931248
1.11392
0.958612
0.899308
0.934779
1.11791
1.09012
-0.0203632
0.369083
0.233297
1.09517
0.5438
1.10042
1.10915
1.04833
0.587735
0.749455
1.10886
1.11355
0.715671
0.579273
0.866672
1.09341
0.641227
1.07043
0.67921
0.947421
1.09748
0.882234
1.04671
0.804027
1.03242
1.06817
1.06874
0.92634
0.600108
1.0928
1.08523
0.967353
0.942343
1.07832
1.08121
1.09911
0.975296
1.07422
1.06776
0.851597
1.06509
0.869066
0.911376
1.1158
0.656878
0.819444
1.11053
1.11368
0.912829
0.834531
0.135997
1.08846
0.551657
1.11793
1.11303
1.08834
1.03789
1.09488
1.04324
1.08889
1.08381
1.0631
0.89958
1.06383
0.927203
0.244276
1.10038
0.487284
0.608378
0.772563
1.10869
1.10646
1.04476
0.961329
0.903436
0.905293
1.11706
1.06855
0.701854
0.964557
0.335617
0.623388
1.0979
0.381977
0.641816
1.10106
1.05015
0.860595
1.07451
1.12552
1.0569
1.03125
0.848011
1.09389
0.598519
0.887575
0.953365
1.11392
1.09184
0.743078
0.950408
1.0903
1.06124
0.933113
1.00928
1.00612
1.11768
1.11451
1.06635
1.01527
1.09743
0.581254
0.820425
0.992611
0.801508
1.08413
1.11794
1.08223
1.04864
0.899595
1.06708
0.551201
1.09638
1.00754
1.08695
1.07558
1.04691
1.11932
0.916879
0.958062
1.11549
0.767318
1.07762
0.367878
0.792291
1.07474
0.391313
1.08709
0.728085
0.95113
0.989551
1.00827
1.11577
1.07641
0.308054
0.730116
1.10354
0.765911
0.929843
1.09561
0.129516
0.426455
0.490732
0.054262
1.08605
1.07335
0.627575
0.93051
1.10032
0.502707
0.749216
0.878967
0.899441
1.08379
0.601586
1.08546
0.64776
0.916529
0.776739
1.10609
1.12075
0.921777
0.896431
1.11925
1.09761
1.05594
0.929254
0.82017
1.11201
1.11372
0.937909
0.844486
0.946411
1.06513
0.625608
1.08319
0.874275
1.06191
1.09335
0.939188
1.06385
0.985668
0.889742
1.10813
0.972833
0.88077
1.11093
1.12063
1.08018
1.065
1.08297
0.925529
1.0805
1.11607
0.66456
0.772617
0.618089
1.10459
0.398792
0.587702
1.10477
0.387199
1.10774
1.07539
1.00008
0.294924
1.09789
0.573771
0.974177
1.08393
0.757162
1.10046
0.301745
0.539777
1.10877
1.11438
1.07451
1.064
0.962104
1.09993
1.01782
0.990386
1.11744
1.11083
0.535002
0.699576
0.89162
0.953016
1.11547
1.07021
0.87643
0.531593
1.04448
0.940449
1.0997
1.12054
1.10179
1.06507
0.538332
0.726462
1.10874
1.09766
0.73734
0.929629
0.750442
0.721342
1.08373
1.08555
0.399486
0.36035
1.03765
0.996522
1.11617
0.929329
0.991711
1.11111
1.08115
1.05194
1.11585
0.452915
0.65446
0.462709
1.10646
0.649464
1.10864
1.01166
0.877257
1.10119
0.723407
0.68861
0.509558
0.469368
1.10595
1.10497
0.988025
0.95004
1.11739
1.05883
0.987089
1.10615
0.821827
1.07505
0.455767
1.05267
0.984705
1.11373
1.08113
1.03297
1.11238
0.772085
1.07979
0.401279
1.04952
0.914117
1.09293
0.966692
0.910181
1.11555
1.09519
0.914197
1.05523
0.809111
1.11657
0.848013
1.09075
0.0264033
0.407728
1.04303
0.965801
1.10568
0.842266
1.07944
0.519507
1.03745
0.897129
1.10491
0.576898
1.08207
0.138089
1.12087
1.11785
1.05548
1.0491
1.0537
1.04035
1.08452
1.0545
1.11729
1.11577
1.11978
1.06732
1.04886
1.07429
1.04773
1.05434
1.00334
1.11359
1.06118
1.00597
1.11485
1.10811
0.42353
0.601247
1.1049
0.996106
1.07387
0.756525
0.531592
1.10341
0.980586
0.962115
0.864335
0.8312
1.10444
1.10388
1.10025
1.01706
1.08032
1.06641
0.88708
1.06683
1.01161
0.907954
1.10588
1.11646
1.08439
1.09848
0.952046
0.841031
1.11032
1.11597
1.08844
1.05988
1.00617
0.9472
1.11455
1.06542
0.906901
1.06852
1.11546
1.1171
1.07532
1.1007
1.07713
1.09461
1.11999
1.07322
1.12215
1.07106
1.08454
1.05638
1.09351
1.09022
0.982582
0.977112
1.08416
1.08309
1.07532
0.6989
0.95538
1.11393
0.929005
0.985219
1.08037
1.08379
0.664409
0.679313
0.930134
0.925235
1.11245
1.03781
0.950216
1.11403
1.10767
1.09584
0.947491
0.816887
1.10765
1.1151
1.08225
1.02007
1.0585
0.894392
1.07169
0.991606
0.994156
0.745944
1.07447
0.764676
1.07688
0.99221
0.854747
1.09989
0.611299
0.19285
1.08303
1.03256
0.918379
1.10655
1.0993
1.10032
1.04212
0.901787
1.04851
0.920051
0.926484
0.861971
1.11524
1.07239
0.905812
1.06777
1.11234
1.03819
0.943893
1.09736
1.10256
1.05256
1.06469
0.956463
0.951206
1.09548
1.05417
0.929239
0.995005
0.873813
1.10393
1.11803
1.08773
1.06822
0.799608
1.08392
0.47506
1.10977
1.03939
0.925676
1.06453
1.04927
0.903498
0.881349
1.0742
1.08026
1.08326
0.518655
0.831439
0.82524
1.07975
0.477543
0.798634
1.08026
0.447596
0.975732
1.07915
0.741928
1.0783
0.930961
1.0715
0.568505
0.719432
0.98038
0.575568
0.891962
0.309029
0.812286
0.675591
0.509828
0.888299
0.886248
0.473978
0.578588
0.87534
0.698174
0.583469
0.616046
0.661775
0.718343
0.839983
0.743849
0.6539
0.914467
1.06481
0.995545
0.724438
0.90518
0.49051
0.7667
0.567147
0.50514
0.813364
0.717808
0.726623
0.543276
0.734948
0.971137
0.905396
0.641772
0.770559
0.621064
1.07901
0.569333
0.8783
0.937554
0.647993
0.654305
0.587166
0.484568
0.567865
1.00737
0.755052
0.583037
0.626075
0.501409
1.00356
0.83807
0.726978
0.575718
0.863837
0.562124
0.58085
0.999233
0.698436
0.723365
0.843052
0.756511
1.03882
0.908069
0.888688
0.43608
0.48539
0.641171
0.861056
0.471991
0.728155
0.721039
0.53543
0.854384
0.947206
0.66285
0.713932
0.494224
0.562171
0.632891
0.863222
0.635107
0.619289
0.684695
1.0073
0.584201
0.865256
0.990773
0.732938
0.584905
0.241284
0.541552
0.591388
0.582441
0.434416
0.785589
0.920028
0.945941
1.04014
0.571857
0.58986
0.491527
0.594561
0.543985
0.970763
0.929207
0.83922
0.540485
0.489404
0.786554
0.909322
0.661006
0.61907
0.415292
0.65695
0.715373
1.0082
1.02936
0.868389
0.733666
0.64776
0.471948
1.02823
0.516357
0.856734
0.423576
1.00009
0.495321
0.50468
0.551889
0.947036
0.71551
0.386213
0.566148
0.825042
0.579157
0.873166
0.800325
0.596268
0.932415
0.622196
0.559903
0.959268
0.575615
0.665543
0.477637
0.748077
0.637959
0.943963
0.867091
0.655634
0.859768
0.873585
0.981124
0.725512
0.635794
0.590928
0.877754
0.514286
0.766968
0.49718
1.06617
0.656212
0.945039
1.02824
0.747971
1.03324
0.949419
0.981404
0.531608
0.418007
0.471503
0.984442
0.532983
0.510763
0.50698
0.512975
0.670839
0.621812
0.746036
1.02721
0.865223
0.628491
0.849314
0.607046
1.07396
0.469448
0.925076
0.589996
0.398892
1.01085
1.03652
0.583209
0.59226
1.06297
0.773302
0.633733
0.550503
0.86622
0.966928
0.837674
0.580604
0.577526
0.891787
0.734513
0.542215
0.786598
0.515859
0.518418
0.649067
0.894702
0.423125
0.663544
0.924563
0.625495
0.417716
0.646097
0.585585
0.639522
0.801044
0.816112
0.563008
0.50596
0.544116
0.844787
0.833468
0.668035
0.826036
0.628586
0.533095
0.786034
0.627134
0.400907
0.834261
0.957977
0.763132
0.995968
0.966388
1.0815
0.5848
0.371991
0.684471
0.648632
0.630814
0.42975
0.7835
0.999509
0.842966
0.780428
0.573881
0.672004
0.859268
0.732771
0.812843
0.580356
0.680556
0.621436
0.502388
0.561309
0.597621
0.587656
0.524298
0.821771
0.731959
0.653818
0.828183
0.588444
0.676871
0.565345
0.650296
0.630641
0.600469
0.774243
0.441103
0.373489
0.691854
0.467543
0.436089
0.781266
0.475475
0.434896
0.951468
0.832382
0.563278
0.844517
0.511838
0.820434
0.781397
0.520155
0.588359
0.912215
0.691445
0.862963
0.315902
0.552139
0.9505
0.61429
0.556678
0.345706
0.449277
0.414968
0.462135
0.623579
0.834395
0.529595
0.409932
0.54658
0.610352
1.07635
0.583777
0.865421
0.77403
0.489288
0.654783
0.564134
0.493331
0.8057
0.628475
1.00533
0.837059
0.562988
0.635254
0.756006
1.06329
0.8522
0.974728
0.874837
0.629716
0.748974
0.670761
0.538607
0.447055
0.597681
0.616332
0.823184
0.56908
0.474534
0.583056
0.649017
0.580712
0.605017
0.931439
0.634117
0.600347
0.993154
0.928513
0.557401
0.743229
0.966788
0.578139
0.465646
0.63755
0.534863
0.495595
0.956163
0.548584
0.667847
0.970977
0.431198
0.744584
0.570409
0.744877
0.63872
0.589413
0.270875
0.663733
0.471182
0.610779
0.647429
0.649012
0.850852
1.00121
0.579008
0.740491
0.6416
0.550086
0.395815
0.916563
0.798147
0.618349
0.47323
0.770306
0.474236
0.586441
0.575764
0.549737
0.874019
0.987208
0.623264
0.851198
1.04406
0.930228
0.920181
0.979176
0.62957
0.611215
0.49772
1.06329
0.905714
0.948312
0.580095
0.6384
0.407327
0.866881
0.644649
0.579575
0.950166
0.816433
0.525497
0.658281
0.565354
0.582447
0.572874
0.636474
0.652586
0.529327
0.626339
0.455356
0.656663
0.530189
0.812256
0.710054
0.422736
0.973042
0.994295
0.870012
0.601583
0.752398
0.470241
0.889044
0.739913
0.482671
0.966121
0.397936
1.00732
0.451144
0.665881
0.691756
0.870949
0.88949
0.582754
1.03174
0.597258
0.926299
0.662112
0.811653
0.614006
0.570359
0.593692
0.929166
0.689906
1.0569
0.848719
0.447783
0.586704
0.814344
0.418689
0.606043
0.665927
0.523505
1.01119
0.5359
0.515093
0.896285
0.58803
1.00544
1.04611
0.647859
1.05756
1.01646
0.940965
0.955507
0.764789
0.489822
0.562136
0.64499
0.917004
0.653218
0.40024
1.03036
0.528551
0.675715
0.55416
0.979269
1.0702
0.52795
0.931093
0.778752
0.999373
0.662234
0.877202
0.662358
1.03068
1.0528
0.825148
0.560817
0.892288
0.619549
0.732226
0.726911
0.674506
0.783047
0.602123
0.402753
0.502993
0.688762
0.797237
0.742863
0.948532
0.543082
0.645903
0.804216
0.5041
0.988703
0.569984
0.662587
0.969821
0.942835
0.760977
1.0392
0.570086
0.629824
0.877378
0.722616
0.701656
0.666527
0.598222
0.816203
0.842964
0.599505
0.574173
0.758008
0.444548
0.526695
1.00547
1.03768
1.05428
0.680219
1.04946
1.06679
1.01809
0.387308
0.774407
0.777208
1.03694
0.61479
0.577534
0.476204
0.560365
0.372628
1.0279
0.690686
0.707027
0.883267
0.830744
0.615119
0.659949
1.06697
1.02228
0.975562
0.828483
0.611713
0.854722
0.805958
0.617429
0.697625
0.495836
0.551467
0.728962
0.693754
0.614083
1.00059
1.00521
0.397622
0.943917
0.580045
0.585608
0.642119
0.993167
0.656237
0.837854
0.67691
0.977236
0.632402
0.674613
1.04669
0.399162
0.445027
0.567718
0.535192
0.37065
0.194227
0.544181
0.367724
0.70225
0.392853
0.502039
0.696532
0.594829
0.550056
0.622969
0.478754
0.239516
1.01496
0.919586
0.637158
0.47941
0.922766
0.620217
0.577338
1.04971
0.549637
1.04516
0.663488
0.954687
0.673177
0.480677
0.498101
0.741421
0.742955
0.70472
0.487056
0.634677
0.506764
0.533951
0.59748
0.424374
0.486809
1.023
0.566955
0.856915
0.890394
0.617635
0.889376
0.895414
0.478824
0.204796
0.665397
0.446354
0.378312
0.852316
0.871114
0.641428
0.802831
0.622039
1.04638
1.01337
0.674662
0.608367
1.03405
0.958039
0.787058
0.789359
0.628724
1.05082
0.731118
0.394776
0.982229
0.91141
1.00368
0.741987
0.561786
0.639126
0.874882
0.812441
0.118904
1.08412
0.663298
0.567749
0.736753
0.938829
1.03768
1.05494
0.806421
0.702736
0.906263
0.963548
0.966493
0.848199
0.915866
0.492589
0.586876
0.763775
0.499508
0.48253
0.427459
0.658951
0.89932
0.449648
0.731056
0.592487
0.913524
1.05556
0.693079
0.486364
0.417621
0.864987
0.596849
0.557167
0.411031
0.981874
0.765255
0.782798
0.471282
0.774367
0.550547
0.576586
0.864023
0.896407
0.981981
1.06952
0.54514
0.965093
0.396662
0.982545
0.992924
1.0021
0.895858
0.525795
0.525495
0.6508
0.396721
0.721787
0.423196
0.779008
0.477713
0.951371
0.621788
0.40963
0.945154
0.869842
0.681163
0.681445
0.846607
0.984793
0.755558
0.710912
0.402563
0.92048
0.734801
1.01417
0.372363
0.696364
0.98485
0.864076
1.03953
0.858529
0.635767
0.358092
0.408177
0.687757
0.430465
1.02222
0.413983
0.59599
0.677064
0.545058
0.897482
0.374358
0.969792
0.876662
0.78664
0.401384
0.815552
0.549532
0.631457
0.697653
0.677282
0.631336
0.623935
0.901588
0.538821
1.04415
0.619422
0.693163
0.831121
0.864732
1.02306
0.633252
0.678506
0.554319
0.698945
0.60456
1.01264
0.559987
0.716499
0.62589
0.920143
0.585313
0.743185
0.48095
1.05663
0.391506
0.526863
0.608819
0.931641
0.416089
0.412788
0.512729
0.470298
1.00033
0.709945
0.837324
0.956495
0.811009
0.714622
1.0588
0.71617
0.870136
0.811663
0.74225
0.429161
0.755917
0.698417
0.607199
0.759261
0.529313
0.44627
0.748052
0.636094
0.524529
0.902587
0.701321
0.831031
0.692849
1.00358
0.675697
0.676669
0.815659
0.472502
0.553533
0.628008
0.742761
0.76108
0.81401
0.989025
0.85695
0.918626
0.738636
0.96814
1.02764
1.02246
0.741471
0.725593
0.776631
0.494442
1.03757
0.958176
0.92865
0.717106
0.535407
0.438071
0.778474
0.856959
0.569653
0.922793
0.958011
0.798557
0.585608
0.739524
0.607324
0.573304
0.721647
0.597955
0.781834
0.410884
0.781067
0.692076
0.67522
0.377884
0.758645
0.714162
0.844829
0.626306
0.769154
0.994647
1.00784
0.792768
0.667441
0.918595
0.740436
0.558597
0.546274
0.65591
0.459046
0.984813
0.696748
0.754976
0.87954
0.852754
0.806949
0.522344
1.04731
0.816075
0.558702
0.704234
0.727419
0.918255
0.993896
0.820203
0.789173
0.42361
0.527479
0.685029
0.790322
0.713719
0.797135
0.580752
1.003
0.787372
0.882892
0.96921
0.760846
0.565641
0.738205
1.0368
0.61232
0.413102
0.733731
1.04005
0.608126
0.661542
0.90841
0.850012
0.937019
0.703869
0.426703
0.795468
0.479276
0.616667
0.937839
0.701861
0.501201
0.572934
0.602775
0.814931
0.627468
0.596439
0.969096
0.564876
1.05967
0.936643
0.47859
0.359182
0.703698
0.86137
0.961057
0.710815
0.683492
0.561901
0.648673
0.680758
1.06719
0.985543
0.860443
0.6331
0.443824
0.977486
1.05427
1.00278
0.918976
0.980456
0.730106
0.480167
0.393043
0.416335
1.01766
0.722755
0.546867
0.65282
1.05143
0.630341
0.588422
0.45749
0.708928
0.538291
1.03035
0.80282
0.876638
0.983221
0.939831
0.667141
0.833861
0.727718
0.84989
0.605672
0.797736
0.58556
1.01528
0.495341
0.60645
0.53855
0.64637
0.992414
0.629164
0.938507
0.95232
0.985824
0.511272
0.720391
0.679388
0.567374
1.00429
0.737941
0.753262
0.79689
0.338872
0.660628
0.989978
0.83354
1.00629
0.403126
0.520403
0.637339
1.01999
0.581693
0.689806
0.525647
0.51441
0.638036
0.995631
0.66881
0.690084
0.466324
1.02172
1.04375
0.350503
0.984011
0.615732
0.516902
0.529748
0.728508
0.437973
0.808519
0.630743
0.609669
0.657784
0.949667
0.716365
0.932617
0.66318
0.51544
0.655236
0.402704
0.436164
0.701065
0.624802
0.765541
0.522777
0.675569
0.956047
0.79496
0.610539
0.477854
0.973384
0.722383
0.690362
1.06149
0.759195
0.603638
0.608559
0.526873
1.02947
0.608411
0.688552
0.807875
0.458866
0.980708
0.505171
0.965653
0.71556
0.889558
0.529975
0.905187
0.684414
0.47846
0.552649
0.715899
0.983532
0.356582
0.572229
0.635433
1.01962
1.04303
0.554982
0.595937
0.801696
1.00607
0.672852
0.998753
0.962012
0.927897
0.883583
0.773897
0.832956
0.813292
1.0079
0.691875
0.737831
0.553227
0.585679
0.688226
0.53716
1.03349
0.497467
0.991764
0.675614
1.02264
0.586931
1.03818
0.88905
0.936721
1.02447
0.994894
1.05837
0.658311
0.97281
0.715765
0.63059
0.570519
0.526963
1.00624
0.499084
0.807771
0.814447
0.674885
0.804063
0.574789
0.986454
0.749206
0.902861
0.383304
0.564251
0.63561
1.02293
0.564178
0.839607
0.590834
0.637183
0.495332
0.664696
0.622388
0.925048
1.0151
0.45221
0.799318
0.638309
0.593603
0.945886
0.563687
0.582972
1.02629
0.418627
0.756697
0.862174
1.00066
1.05313
0.600677
0.579554
0.460892
0.644485
0.571469
0.635344
0.890645
0.615708
0.479936
0.684967
0.720473
0.616319
0.574773
0.632018
0.726506
0.481241
0.912486
0.892078
0.615401
0.905647
0.473015
0.454009
0.566281
0.40092
1.03712
0.623318
0.622974
0.576018
0.948611
1.00692
0.762953
0.883448
0.588756
0.558161
0.730405
0.623916
0.568869
1.00515
0.774305
0.827935
1.03761
0.91971
0.708116
1.02511
0.451201
0.768364
0.762919
0.820438
0.647087
0.999457
0.617723
0.806621
0.699306
0.618474
0.534614
0.588356
0.889359
0.948997
0.979547
0.731148
0.748483
1.00806
0.912193
0.692128
0.759592
0.502174
0.656332
0.936465
0.446315
0.961391
0.622401
0.972804
1.04497
1.01224
0.615284
0.943762
0.964617
0.424964
1.00354
0.594244
1.01828
0.923333
0.637076
0.513852
0.776076
0.661011
0.63418
0.588822
0.905068
0.620076
1.02835
0.522039
0.603193
0.565655
0.521136
0.624326
0.946999
1.04415
0.51694
0.893973
0.728282
0.811783
0.679099
0.795627
0.998638
0.930865
0.629249
0.988228
0.946079
1.04528
0.515323
0.611865
0.578527
0.889299
1.03326
0.955875
0.689968
1.04188
0.707273
0.4631
0.512626
0.354618
0.695101
0.494806
1.04101
1.0629
0.755263
1.04964
0.937534
0.764611
1.03503
0.504373
0.995672
0.6561
1.00611
0.637347
0.528943
0.889755
0.758961
1.01961
0.996684
1.00257
0.55196
0.555415
0.439234
0.959159
0.92878
0.543828
0.727272
0.929848
0.395378
0.595742
0.546038
0.649522
0.796455
0.641042
0.763795
0.862744
0.736922
0.749421
0.900386
0.630361
0.659711
0.806072
0.739986
0.633946
0.975108
1.00985
0.547253
0.922703
0.381005
0.589098
0.976743
0.904162
0.626375
1.01218
0.502465
0.893427
0.662724
0.66235
0.984927
0.640364
0.904646
0.893843
0.843844
1.06833
0.85684
0.464627
0.830527
0.693382
0.908917
1.06363
0.847104
0.710421
0.570146
0.664158
0.987514
0.493242
0.936339
0.559448
0.783585
0.912433
0.894365
0.730498
0.981939
1.04287
0.64992
0.632074
0.748519
0.54269
0.486039
0.76972
0.897715
0.547758
0.467965
0.570843
0.472552
0.88762
0.70651
0.915773
0.593078
1.00745
0.727439
0.947638
1.03196
0.568612
0.996713
0.64068
0.755304
0.733459
0.965442
0.586055
0.668612
0.741454
0.53867
0.641726
0.518189
0.497741
0.382834
1.0364
1.04497
0.544773
0.601515
0.906534
0.4474
0.570549
0.634731
0.871115
0.893542
0.423216
0.382869
0.9947
0.592542
0.799093
0.584981
0.454656
0.516149
0.758454
0.957069
0.807279
0.447332
1.01071
0.953267
0.55517
0.793549
0.622024
1.03324
0.642006
0.681338
0.479723
0.84873
1.0051
0.813097
0.75601
0.580572
0.701103
0.798153
1.03863
1.05291
0.580197
1.04668
0.589597
0.777504
0.771206
0.690318
0.618449
0.969977
0.65199
0.760868
0.571916
0.583211
0.661424
0.529247
0.8483
1.00784
0.559029
0.601006
0.76313
0.627133
0.568735
0.402682
0.626185
0.95359
0.407331
0.615994
0.876726
0.766979
0.691698
0.848564
0.940058
0.5537
0.547488
0.947323
0.679139
0.539142
0.719633
0.962481
0.833068
0.786687
0.588056
0.567127
0.574991
1.03835
0.952283
1.05004
0.68623
0.862458
0.497901
0.71917
0.958797
0.455826
0.462023
0.894536
0.95684
0.43868
0.610167
0.577639
0.533822
0.574298
1.05094
0.674246
0.606557
0.752552
0.568504
0.878918
0.771722
0.484885
0.614001
0.902471
0.696231
1.04255
0.482212
0.594217
0.829508
0.814316
0.70342
0.794228
0.536575
1.0502
0.975265
0.833292
0.97062
0.565361
0.959766
0.84242
0.822032
1.02383
0.44873
0.61562
1.05611
0.846851
0.436015
0.623591
0.93292
1.05271
0.721511
0.902897
0.584564
0.473841
0.554909
0.436445
0.959055
0.585505
0.745453
1.02296
0.559242
0.552821
0.590548
0.749874
0.600626
0.618529
0.571032
0.508435
0.702736
0.929597
1.02232
0.868714
0.637623
0.61109
0.417696
0.602293
0.826619
0.806071
0.84553
0.884066
0.612668
0.718455
0.928851
0.963647
1.05518
0.985258
1.02872
0.703792
0.497152
0.556749
0.513632
1.03996
0.750309
0.594447
1.02203
0.500753
0.927332
0.872255
0.616715
0.583897
0.614258
0.578557
0.961232
0.668726
0.872889
0.710348
1.01804
0.783066
1.07219
0.545617
0.71793
0.60613
0.373265
0.631976
0.890707
0.528974
0.320853
0.78687
0.999119
0.910742
0.580143
0.489781
0.560134
0.502743
0.586192
0.497561
0.688209
0.523951
0.896948
0.538503
0.595602
0.970501
0.714001
0.822877
0.948332
0.690047
0.74669
0.553052
0.908027
0.670604
0.615049
0.685992
0.524001
0.473921
0.593754
0.584084
0.899132
1.04988
0.970367
0.779417
0.870962
0.444822
1.04536
0.782676
0.887026
0.593215
0.885103
0.624422
0.637941
0.937763
1.00939
0.89883
0.793231
0.634855
1.06253
0.643411
0.930886
1.03326
0.858538
0.66434
0.439955
0.928839
0.773711
0.517004
0.845689
0.76628
1.01371
0.581877
1.0231
1.05663
0.67727
0.545534
1.03145
0.491211
0.52766
0.640582
0.529804
0.620227
0.526324
0.486394
0.707666
0.597788
0.554928
0.610993
0.798818
0.590751
0.570281
0.839738
0.742144
0.446933
1.01082
1.03661
1.03131
0.583669
0.444243
1.07759
0.479698
0.6895
0.573272
0.633329
0.592178
0.891007
0.614545
0.624606
0.468425
0.452969
0.516943
0.6145
0.424502
0.726504
0.770616
0.716732
1.02016
0.74265
0.843013
0.669719
0.949346
0.644922
0.629782
1.0502
0.64716
0.763415
0.492312
0.853785
1.04524
0.678321
0.810809
0.767385
0.623921
0.581339
0.556537
0.527246
0.902402
0.53512
0.675278
0.622479
0.680857
0.558365
0.55765
0.695877
0.660744
0.595917
1.03205
0.699482
0.665152
0.790241
1.01365
0.62865
0.457272
0.916636
0.493359
0.652201
0.579427
0.707926
0.61723
0.648488
0.709287
1.04714
0.968579
0.470248
0.594215
0.447216
0.567204
0.435766
0.531536
0.630575
0.544011
0.643418
0.819477
1.05366
0.626319
0.877179
0.733792
1.03843
0.615943
1.04808
0.820325
0.493151
0.811694
0.881083
0.631501
0.955159
0.578219
0.979278
0.586666
0.367372
0.702505
1.05534
1.03015
0.903051
0.821087
0.863731
0.454561
0.602946
0.864299
1.07164
0.380764
0.713459
0.581417
0.639951
0.674964
0.567182
0.509163
0.592811
0.523084
0.607911
0.654568
0.681185
1.06636
0.951391
0.429621
0.916925
0.548686
0.545392
0.932277
0.580615
0.650763
0.854285
0.428207
0.572315
0.714834
0.971542
0.511133
0.576831
0.640727
0.819375
0.51434
1.01515
0.442837
0.623936
0.648345
0.57758
0.825213
0.82074
1.01687
0.579316
0.894758
0.782876
0.809494
0.576138
0.826165
0.534161
0.503664
0.404949
0.782024
0.707669
0.647413
0.981865
0.713886
0.76115
0.820742
0.556754
0.535766
0.621228
0.796077
0.584274
1.05112
0.488561
0.444498
0.64908
0.62481
0.589239
0.574604
0.878028
0.637966
0.717491
0.503276
0.579779
0.721462
0.51894
1.05168
1.02181
0.513491
0.558244
0.944602
0.738063
0.565165
0.490505
0.569487
0.507207
0.775621
1.00132
0.564016
0.449384
0.818465
0.699031
0.444522
0.511243
0.702379
0.86962
1.04697
0.497202
0.459929
0.797377
0.955217
0.667443
0.772427
0.645822
0.580055
0.628468
0.821544
0.705262
0.583693
0.928477
0.644435
0.416354
0.761331
0.592926
0.93431
1.06842
0.588037
0.619569
0.630525
0.615763
0.49937
0.629257
0.504948
1.02557
0.942388
0.872077
0.637193
0.463038
0.920534
1.04566
0.566624
0.754695
0.618407
0.378783
0.739722
0.627936
0.39126
0.581347
0.816
0.489539
0.449296
0.52398
0.915441
0.473624
0.931741
0.694951
0.58726
0.657064
0.551212
0.935133
0.415529
0.625515
0.671517
0.499128
0.765246
0.866925
0.786774
0.714109
0.910525
0.511803
0.512341
0.994834
0.57904
0.989316
0.802026
0.673733
0.771846
0.973632
0.697751
0.445483
1.01216
0.575539
0.678073
0.965275
0.565773
1.02406
0.570043
0.648116
0.426616
0.638518
0.525087
0.707373
0.528641
0.414844
0.510446
0.517829
0.383961
1.00123
0.516321
0.643966
0.775247
0.710211
1.04921
1.05068
0.610256
0.71024
0.937482
0.599825
1.0034
0.394292
0.65235
0.743016
0.568027
0.948294
0.618243
0.622896
0.608137
0.56055
0.569722
0.424147
0.975616
0.265293
1.00857
0.8783
0.533012
0.454519
0.51846
1.05207
0.873874
0.832889
0.685238
0.764756
0.67138
0.971412
0.909147
0.554375
0.806824
1.02189
0.687802
0.750392
0.818865
0.427663
0.508989
0.919023
0.633684
0.682516
1.02594
0.511042
0.400085
0.574218
0.685458
0.69608
1.03158
0.572788
0.470768
0.567449
0.679523
0.580832
0.991783
0.70319
0.518118
0.625346
0.563487
0.562739
0.632501
0.811564
0.733516
0.545357
0.980386
0.638463
0.926811
0.546879
0.50737
0.646878
0.971705
1.03743
0.928025
0.733613
0.707734
0.92229
1.0244
0.485986
1.00725
0.514438
0.847061
0.827039
0.98501
0.730285
0.973885
1.00883
0.588634
0.577617
0.646075
0.721613
0.510255
0.551101
0.489778
0.894372
0.953954
0.485287
1.0154
0.726181
0.913078
0.689983
0.541601
0.939989
0.916545
0.616781
0.616581
0.523464
1.05755
0.870052
1.07617
0.493192
0.510332
0.658344
0.956048
0.823725
0.958068
0.754628
1.02692
0.581118
0.667379
0.7512
0.599522
0.806722
0.460297
0.931664
0.703705
0.753185
1.00839
0.481829
0.489859
0.410953
0.787153
0.982815
0.608973
0.83953
0.471486
0.466169
0.68915
0.592687
0.569044
0.963888
0.726347
0.562968
0.660002
0.787298
1.00907
0.792427
0.654585
0.976415
0.72828
1.03202
0.744796
0.876387
0.661133
0.480373
1.05143
0.542103
0.769063
0.791455
1.00235
0.859018
0.706891
0.587061
1.06394
0.649619
0.528916
0.903752
1.04712
0.885659
0.835749
0.475002
0.40517
0.765876
0.547633
0.639704
0.740036
0.545207
1.00848
1.0524
1.01038
0.590907
0.633672
0.57089
0.626201
0.840392
0.51169
0.863405
1.02161
0.479358
0.623119
0.570985
0.939732
0.843712
0.634522
0.552986
0.882854
0.5756
0.445345
0.513066
1.06484
0.411519
0.927767
0.811037
0.577464
1.0113
0.773767
1.04118
0.425601
0.622452
0.740314
1.0151
0.628368
1.00118
0.777626
0.412518
0.712967
0.588778
0.636941
0.406085
0.918916
0.625329
0.547544
0.453791
0.714485
0.969671
0.341804
0.597751
0.97965
0.667682
0.966109
0.393545
0.578987
0.577639
0.671634
0.60616
0.471564
0.575212
0.359716
0.648754
0.659105
0.914392
0.75667
0.98326
0.565016
0.6304
0.475597
0.732761
0.352514
0.631823
1.07212
0.69315
0.623732
1.05782
0.537545
0.760949
0.808937
0.450116
0.599864
0.692464
0.775857
1.02284
1.04458
1.04845
0.78636
0.667997
0.679104
0.519053
0.941606
0.844353
0.574295
0.627772
0.616115
0.686045
1.04506
0.664854
1.03916
0.625714
0.817086
0.522148
0.574843
0.459928
0.59408
0.995082
0.622515
0.48402
0.520837
1.05858
0.599674
0.542175
0.539326
0.575259
0.867273
0.749252
0.76375
0.669885
0.874835
0.458705
0.696095
0.720693
0.640144
0.967734
0.979998
0.528833
0.988747
1.01498
0.970458
0.734779
0.648321
0.598905
0.669058
1.02862
0.691377
0.787374
0.982374
1.0521
1.01725
0.975738
0.582472
0.820609
0.709972
0.538299
0.443447
0.664098
0.966964
1.05562
1.02954
0.619505
0.513627
0.508787
0.488222
0.847092
1.04979
0.811966
0.892929
0.912056
0.91161
0.885397
0.569647
0.620678
0.585442
0.521726
0.581558
0.644544
0.496548
0.625342
0.58745
1.00104
0.792712
0.447786
1.03327
0.600324
0.579245
0.676945
0.532971
0.887681
0.881154
0.597345
0.812151
1.04461
1.05275
0.837368
0.86515
0.704673
0.725671
0.669033
0.475511
0.764837
0.766468
0.617266
0.837529
0.803905
0.486755
0.328213
0.609254
1.02752
0.616065
0.862576
0.633124
1.00575
0.667785
0.544706
0.929524
0.843726
0.848324
0.779894
0.499919
0.64315
0.483735
0.841461
0.561156
0.953988
0.631437
0.585405