/*--------------------------------*- C++ -*----------------------------------*\
  =========                 |
  \\      /  F ield         | OpenFOAM: The Open Source CFD Toolbox
   \\    /   O peration     | Website:  https://openfoam.org
    \\  /    A nd           | Version:  6
     \\/     M anipulation  |
\*---------------------------------------------------------------------------*/
FoamFile
{
    version     2.0;
    format      ascii;
    class       volScalarField;
    location    "0";
    object      T;
}
// * * * * * * * * * * * * * * * * * * * * * * * * * * * * * * * * * * * * * //

dimensions      [0 0 0 1 0 0 0];

internalField   nonuniform List<scalar> 
10000
(
299.063
299.089
299.114
299.138
299.161
299.183
299.203
299.222
299.24
299.257
299.273
299.287
299.301
299.314
299.326
299.338
299.348
299.358
299.368
299.377
299.386
299.394
299.401
299.409
299.416
299.422
299.428
299.434
299.44
299.445
299.45
299.454
299.458
299.462
299.465
299.469
299.471
299.474
299.476
299.478
299.48
299.482
299.483
299.484
299.485
299.486
299.486
299.487
299.487
299.487
299.488
299.488
299.488
299.488
299.488
299.488
299.488
299.488
299.488
299.488
299.489
299.489
299.489
299.49
299.49
299.49
299.491
299.492
299.493
299.493
299.494
299.496
299.497
299.499
299.5
299.502
299.505
299.508
299.511
299.515
299.52
299.526
299.533
299.542
299.553
299.566
299.583
299.605
299.632
299.667
299.713
299.772
299.849
299.949
300.077
300.24
300.443
300.689
300.974
301.287
299.063
299.09
299.116
299.14
299.163
299.185
299.206
299.225
299.243
299.26
299.276
299.29
299.304
299.317
299.329
299.34
299.351
299.361
299.37
299.379
299.388
299.396
299.403
299.41
299.417
299.424
299.43
299.436
299.441
299.446
299.451
299.455
299.459
299.463
299.466
299.47
299.472
299.475
299.477
299.479
299.481
299.483
299.484
299.485
299.486
299.487
299.487
299.488
299.488
299.488
299.488
299.489
299.489
299.489
299.489
299.489
299.489
299.489
299.489
299.489
299.489
299.489
299.49
299.49
299.49
299.491
299.492
299.492
299.493
299.494
299.495
299.496
299.497
299.499
299.501
299.503
299.505
299.508
299.511
299.515
299.52
299.525
299.532
299.54
299.551
299.564
299.58
299.6
299.627
299.661
299.704
299.761
299.836
299.933
300.059
300.22
300.424
300.672
300.963
301.283
299.064
299.092
299.118
299.144
299.168
299.191
299.212
299.232
299.251
299.268
299.284
299.299
299.313
299.325
299.337
299.348
299.359
299.368
299.377
299.386
299.394
299.401
299.409
299.415
299.422
299.428
299.434
299.44
299.445
299.45
299.454
299.458
299.462
299.466
299.469
299.472
299.475
299.478
299.48
299.482
299.484
299.485
299.486
299.487
299.488
299.489
299.489
299.49
299.49
299.49
299.49
299.49
299.49
299.49
299.49
299.49
299.49
299.49
299.49
299.491
299.491
299.491
299.491
299.491
299.492
299.492
299.493
299.493
299.494
299.495
299.496
299.497
299.498
299.5
299.501
299.503
299.505
299.508
299.511
299.515
299.519
299.524
299.531
299.539
299.548
299.56
299.576
299.595
299.62
299.652
299.693
299.748
299.82
299.914
300.039
300.2
300.404
300.657
300.953
301.28
299.065
299.095
299.123
299.151
299.176
299.201
299.224
299.245
299.264
299.282
299.299
299.314
299.328
299.341
299.352
299.363
299.373
299.382
299.39
299.398
299.405
299.412
299.419
299.425
299.431
299.437
299.442
299.447
299.452
299.456
299.461
299.464
299.468
299.471
299.475
299.477
299.48
299.482
299.484
299.486
299.488
299.489
299.49
299.491
299.492
299.492
299.493
299.493
299.493
299.493
299.493
299.493
299.493
299.493
299.493
299.493
299.493
299.493
299.493
299.493
299.493
299.493
299.493
299.493
299.494
299.494
299.494
299.495
299.496
299.496
299.497
299.498
299.499
299.501
299.502
299.504
299.506
299.509
299.512
299.515
299.519
299.524
299.53
299.537
299.546
299.557
299.572
299.59
299.613
299.643
299.683
299.736
299.806
299.9
300.023
300.185
300.392
300.647
300.947
301.278
299.066
299.098
299.13
299.159
299.188
299.214
299.239
299.262
299.283
299.302
299.32
299.336
299.35
299.363
299.374
299.385
299.394
299.402
299.41
299.417
299.423
299.429
299.435
299.44
299.445
299.45
299.455
299.459
299.463
299.467
299.47
299.474
299.477
299.48
299.482
299.485
299.487
299.489
299.491
299.492
299.494
299.495
299.496
299.496
299.497
299.497
299.498
299.498
299.498
299.498
299.498
299.498
299.497
299.497
299.497
299.497
299.497
299.496
299.496
299.496
299.496
299.496
299.496
299.496
299.496
299.497
299.497
299.497
299.498
299.499
299.499
299.5
299.501
299.503
299.504
299.506
299.508
299.51
299.512
299.516
299.519
299.524
299.529
299.536
299.544
299.555
299.568
299.585
299.608
299.637
299.676
299.728
299.797
299.89
300.014
300.177
300.386
300.644
300.946
301.278
299.068
299.103
299.137
299.17
299.202
299.231
299.259
299.284
299.307
299.328
299.347
299.363
299.378
299.391
299.403
299.413
299.422
299.43
299.436
299.442
299.447
299.452
299.457
299.461
299.465
299.469
299.472
299.475
299.478
299.481
299.484
299.486
299.489
299.491
299.493
299.495
299.497
299.498
299.499
299.501
299.501
299.502
299.503
299.503
299.504
299.504
299.504
299.504
299.504
299.504
299.503
299.503
299.503
299.502
299.502
299.501
299.501
299.501
299.5
299.5
299.5
299.5
299.5
299.5
299.5
299.5
299.5
299.5
299.501
299.501
299.502
299.503
299.504
299.505
299.506
299.508
299.51
299.512
299.514
299.517
299.52
299.524
299.529
299.536
299.543
299.553
299.566
299.583
299.604
299.633
299.671
299.723
299.792
299.886
300.011
300.176
300.386
300.646
300.948
301.279
299.07
299.108
299.146
299.183
299.218
299.25
299.281
299.309
299.334
299.357
299.377
299.395
299.411
299.425
299.436
299.446
299.455
299.462
299.468
299.473
299.477
299.481
299.484
299.487
299.489
299.492
299.494
299.496
299.498
299.499
299.501
299.502
299.504
299.505
299.506
299.508
299.509
299.509
299.51
299.511
299.511
299.512
299.512
299.512
299.512
299.512
299.512
299.511
299.511
299.51
299.51
299.509
299.509
299.508
299.508
299.507
299.506
299.506
299.505
299.505
299.505
299.504
299.504
299.504
299.504
299.504
299.504
299.504
299.505
299.505
299.506
299.506
299.507
299.508
299.509
299.511
299.512
299.514
299.516
299.519
299.522
299.526
299.53
299.536
299.544
299.553
299.565
299.581
299.602
299.631
299.669
299.721
299.791
299.886
300.013
300.179
300.391
300.651
300.953
301.281
299.071
299.114
299.156
299.197
299.235
299.271
299.305
299.335
299.363
299.388
299.41
299.43
299.447
299.461
299.473
299.483
299.492
299.498
299.504
299.508
299.511
299.513
299.515
299.516
299.518
299.519
299.519
299.52
299.52
299.521
299.521
299.522
299.522
299.522
299.523
299.523
299.523
299.523
299.523
299.523
299.523
299.523
299.523
299.522
299.522
299.521
299.521
299.52
299.519
299.519
299.518
299.517
299.516
299.515
299.514
299.514
299.513
299.512
299.511
299.511
299.51
299.51
299.509
299.509
299.509
299.509
299.509
299.509
299.509
299.509
299.51
299.51
299.511
299.512
299.513
299.514
299.516
299.517
299.519
299.522
299.524
299.528
299.532
299.538
299.545
299.554
299.565
299.581
299.602
299.631
299.669
299.722
299.793
299.89
300.018
300.186
300.399
300.659
300.959
301.284
299.074
299.12
299.166
299.211
299.253
299.293
299.329
299.363
299.394
299.421
299.445
299.466
299.484
299.499
299.512
299.522
299.531
299.537
299.542
299.545
299.547
299.549
299.549
299.549
299.549
299.549
299.548
299.547
299.546
299.546
299.545
299.544
299.543
299.542
299.541
299.541
299.54
299.539
299.538
299.538
299.537
299.536
299.535
299.534
299.533
299.532
299.531
299.53
299.529
299.528
299.527
299.526
299.524
299.523
299.522
299.521
299.52
299.519
299.518
299.518
299.517
299.516
299.516
299.515
299.515
299.514
299.514
299.514
299.514
299.514
299.515
299.515
299.516
299.516
299.517
299.518
299.52
299.521
299.523
299.525
299.528
299.531
299.535
299.54
299.547
299.555
299.567
299.583
299.604
299.632
299.672
299.725
299.798
299.896
300.026
300.196
300.41
300.669
300.966
301.286
299.076
299.127
299.177
299.225
299.271
299.314
299.354
299.391
299.424
299.454
299.48
299.503
299.522
299.538
299.551
299.562
299.57
299.577
299.581
299.584
299.585
299.586
299.585
299.584
299.583
299.581
299.579
299.577
299.575
299.572
299.57
299.568
299.566
299.564
299.562
299.56
299.559
299.557
299.555
299.554
299.552
299.551
299.549
299.547
299.546
299.544
299.543
299.541
299.54
299.538
299.537
299.535
299.534
299.532
299.531
299.53
299.528
299.527
299.526
299.525
299.524
299.523
299.522
299.522
299.521
299.521
299.52
299.52
299.52
299.52
299.52
299.521
299.521
299.522
299.522
299.523
299.524
299.526
299.527
299.529
299.531
299.534
299.538
299.543
299.549
299.558
299.569
299.585
299.606
299.635
299.675
299.73
299.804
299.903
300.035
300.207
300.421
300.68
300.974
301.289
299.078
299.133
299.187
299.239
299.289
299.336
299.379
299.419
299.455
299.487
299.515
299.539
299.559
299.576
299.59
299.602
299.61
299.616
299.621
299.623
299.624
299.623
299.622
299.62
299.617
299.614
299.611
299.608
299.604
299.601
299.597
299.594
299.591
299.588
299.584
299.582
299.579
299.576
299.574
299.571
299.569
299.566
299.564
299.562
299.56
299.558
299.556
299.554
299.552
299.55
299.548
299.546
299.544
299.542
299.541
299.539
299.537
299.536
299.535
299.533
299.532
299.531
299.53
299.529
299.528
299.528
299.527
299.527
299.527
299.527
299.527
299.527
299.527
299.527
299.528
299.529
299.53
299.531
299.532
299.534
299.536
299.539
299.542
299.547
299.553
299.561
299.573
299.588
299.61
299.639
299.68
299.735
299.811
299.912
300.046
300.218
300.434
300.69
300.981
301.292
299.08
299.139
299.197
299.253
299.307
299.357
299.404
299.446
299.485
299.519
299.548
299.574
299.596
299.614
299.629
299.64
299.649
299.655
299.659
299.661
299.662
299.66
299.658
299.655
299.652
299.648
299.643
299.639
299.634
299.63
299.625
299.62
299.616
299.612
299.608
299.604
299.6
299.596
299.593
299.59
299.586
299.583
299.58
299.578
299.575
299.572
299.569
299.567
299.564
299.562
299.56
299.557
299.555
299.553
299.551
299.549
299.547
299.545
299.544
299.542
299.541
299.54
299.538
299.537
299.536
299.536
299.535
299.534
299.534
299.534
299.533
299.533
299.534
299.534
299.534
299.535
299.536
299.537
299.538
299.539
299.541
299.544
299.547
299.552
299.557
299.566
299.577
299.592
299.614
299.644
299.685
299.742
299.819
299.922
300.057
300.231
300.446
300.701
300.989
301.295
299.082
299.145
299.207
299.267
299.324
299.378
299.427
299.473
299.514
299.55
299.581
299.608
299.631
299.65
299.665
299.677
299.686
299.692
299.696
299.698
299.698
299.696
299.694
299.69
299.685
299.68
299.675
299.67
299.664
299.658
299.653
299.647
299.642
299.636
299.631
299.626
299.622
299.617
299.613
299.609
299.605
299.601
299.597
299.594
299.59
299.587
299.584
299.581
299.578
299.575
299.572
299.569
299.567
299.564
299.562
299.56
299.558
299.556
299.554
299.552
299.55
299.549
299.547
299.546
299.545
299.544
299.543
299.542
299.542
299.541
299.541
299.541
299.541
299.541
299.541
299.541
299.542
299.543
299.544
299.545
299.547
299.549
299.552
299.557
299.562
299.57
299.581
299.597
299.619
299.649
299.691
299.749
299.827
299.932
300.069
300.243
300.458
300.712
300.996
301.297
299.084
299.151
299.217
299.28
299.341
299.398
299.451
299.499
299.542
299.58
299.613
299.641
299.665
299.685
299.7
299.712
299.721
299.727
299.731
299.732
299.732
299.73
299.727
299.722
299.717
299.712
299.705
299.699
299.693
299.686
299.679
299.673
299.667
299.661
299.655
299.649
299.643
299.638
299.633
299.628
299.623
299.619
299.615
299.61
299.606
299.603
299.599
299.595
299.592
299.588
299.585
299.582
299.579
299.576
299.574
299.571
299.568
299.566
299.564
299.562
299.56
299.558
299.557
299.555
299.554
299.553
299.552
299.551
299.55
299.549
299.549
299.549
299.548
299.548
299.548
299.549
299.549
299.55
299.551
299.552
299.553
299.555
299.558
299.562
299.568
299.576
299.587
299.602
299.624
299.655
299.698
299.757
299.836
299.942
300.08
300.256
300.47
300.722
301.003
301.3
299.086
299.157
299.226
299.293
299.357
299.418
299.473
299.523
299.569
299.609
299.643
299.673
299.697
299.717
299.733
299.746
299.754
299.76
299.764
299.765
299.764
299.762
299.758
299.753
299.747
299.741
299.734
299.727
299.72
299.712
299.705
299.698
299.691
299.684
299.677
299.671
299.665
299.659
299.653
299.647
299.642
299.637
299.632
299.627
299.623
299.618
299.614
299.61
299.606
299.602
299.598
299.595
299.592
299.588
299.585
299.582
299.58
299.577
299.575
299.572
299.57
299.568
299.566
299.565
299.563
299.562
299.561
299.56
299.559
299.558
299.557
299.557
299.556
299.556
299.556
299.556
299.557
299.557
299.558
299.559
299.56
299.562
299.565
299.569
299.574
299.582
299.593
299.608
299.63
299.662
299.705
299.765
299.846
299.953
300.092
300.268
300.482
300.732
301.01
301.302
299.087
299.162
299.235
299.306
299.373
299.436
299.495
299.548
299.595
299.636
299.672
299.703
299.728
299.748
299.764
299.777
299.785
299.791
299.794
299.795
299.793
299.79
299.786
299.781
299.774
299.767
299.76
299.752
299.745
299.737
299.729
299.721
299.713
299.706
299.699
299.692
299.685
299.678
299.672
299.666
299.66
299.654
299.649
299.644
299.638
299.634
299.629
299.624
299.62
299.616
299.612
299.608
299.604
299.601
299.597
299.594
299.591
299.588
299.586
299.583
299.581
299.578
299.576
299.575
299.573
299.571
299.57
299.569
299.568
299.567
299.566
299.565
299.565
299.565
299.564
299.564
299.565
299.565
299.565
299.566
299.567
299.569
299.572
299.575
299.58
299.588
299.599
299.615
299.637
299.669
299.713
299.773
299.855
299.963
300.103
300.28
300.493
300.741
301.016
301.304
299.089
299.167
299.244
299.318
299.389
299.455
299.516
299.571
299.62
299.663
299.7
299.731
299.757
299.777
299.793
299.805
299.814
299.819
299.821
299.822
299.82
299.816
299.812
299.806
299.799
299.792
299.784
299.776
299.767
299.759
299.751
299.743
299.734
299.727
299.719
299.711
299.704
299.697
299.69
299.684
299.677
299.671
299.665
299.659
299.654
299.649
299.644
299.639
299.634
299.629
299.625
299.621
299.617
299.613
299.609
299.606
299.603
299.6
299.597
299.594
299.591
299.589
299.587
299.585
299.583
299.581
299.58
299.578
299.577
299.576
299.575
299.575
299.574
299.573
299.573
299.573
299.573
299.573
299.573
299.574
299.575
299.576
299.579
299.582
299.587
299.595
299.606
299.621
299.644
299.676
299.721
299.782
299.864
299.974
300.115
300.291
300.504
300.75
301.022
301.306
299.091
299.173
299.253
299.33
299.404
299.473
299.536
299.593
299.644
299.688
299.726
299.758
299.784
299.805
299.82
299.832
299.84
299.844
299.846
299.846
299.844
299.84
299.834
299.828
299.821
299.813
299.805
299.796
299.788
299.779
299.77
299.762
299.753
299.745
299.737
299.729
299.722
299.714
299.707
299.7
299.693
299.687
299.681
299.675
299.669
299.663
299.658
299.653
299.648
299.643
299.638
299.634
299.629
299.625
299.621
299.618
299.614
299.611
299.608
299.605
299.602
299.6
299.597
299.595
299.593
299.591
299.59
299.588
299.587
299.586
299.585
299.584
299.583
299.582
299.582
299.582
299.581
299.581
299.582
299.582
299.583
299.584
299.586
299.59
299.595
299.602
299.613
299.628
299.651
299.684
299.729
299.791
299.874
299.984
300.126
300.302
300.515
300.759
301.027
301.308
299.093
299.178
299.261
299.342
299.418
299.49
299.555
299.615
299.667
299.712
299.751
299.783
299.809
299.83
299.845
299.856
299.863
299.867
299.869
299.867
299.864
299.86
299.854
299.847
299.84
299.832
299.823
299.815
299.806
299.797
299.788
299.779
299.77
299.762
299.754
299.746
299.738
299.73
299.723
299.715
299.708
299.702
299.695
299.689
299.683
299.677
299.671
299.666
299.661
299.656
299.651
299.646
299.642
299.637
299.633
299.629
299.626
299.622
299.619
299.616
299.613
299.61
299.608
299.606
299.604
299.602
299.6
299.598
299.597
299.596
299.594
299.593
299.593
299.592
299.591
299.591
299.59
299.59
299.59
299.59
299.591
299.592
299.594
299.597
299.602
299.609
299.62
299.636
299.659
299.692
299.737
299.8
299.884
299.995
300.137
300.313
300.525
300.767
301.033
301.31
299.094
299.183
299.269
299.353
299.432
299.506
299.574
299.635
299.689
299.735
299.775
299.807
299.833
299.853
299.868
299.878
299.885
299.888
299.888
299.886
299.883
299.878
299.871
299.864
299.856
299.848
299.839
299.83
299.821
299.812
299.803
299.794
299.785
299.777
299.768
299.76
299.752
299.744
299.737
299.729
299.722
299.715
299.709
299.702
299.696
299.69
299.684
299.678
299.673
299.668
299.663
299.658
299.653
299.649
299.645
299.641
299.637
299.633
299.63
299.627
299.624
299.621
299.619
299.616
299.614
299.612
299.61
299.608
299.607
299.606
299.604
299.603
299.602
299.601
299.601
299.6
299.6
299.599
299.599
299.599
299.6
299.601
299.602
299.605
299.61
299.617
299.628
299.644
299.667
299.7
299.746
299.809
299.894
300.005
300.148
300.324
300.535
300.775
301.038
301.312
299.096
299.187
299.277
299.363
299.446
299.522
299.592
299.655
299.71
299.757
299.797
299.829
299.855
299.874
299.889
299.898
299.904
299.906
299.905
299.903
299.899
299.893
299.886
299.879
299.87
299.862
299.853
299.844
299.835
299.825
299.816
299.807
299.799
299.79
299.781
299.773
299.765
299.757
299.75
299.742
299.735
299.728
299.721
299.715
299.708
299.702
299.696
299.69
299.685
299.68
299.674
299.67
299.665
299.66
299.656
299.652
299.648
299.645
299.641
299.638
299.635
299.632
299.629
299.627
299.625
299.622
299.621
299.619
299.617
299.616
299.614
299.613
299.612
299.611
299.61
299.61
299.609
299.608
299.608
299.608
299.608
299.609
299.611
299.614
299.618
299.625
299.636
299.652
299.675
299.709
299.755
299.819
299.904
300.016
300.159
300.335
300.544
300.783
301.043
301.313
299.097
299.192
299.284
299.374
299.458
299.537
299.609
299.673
299.729
299.777
299.817
299.85
299.875
299.894
299.907
299.916
299.92
299.922
299.921
299.917
299.912
299.906
299.899
299.891
299.882
299.873
299.864
299.855
299.846
299.837
299.828
299.819
299.81
299.801
299.793
299.785
299.777
299.769
299.761
299.754
299.746
299.739
299.733
299.726
299.72
299.713
299.707
299.702
299.696
299.691
299.686
299.681
299.676
299.671
299.667
299.663
299.659
299.655
299.652
299.649
299.646
299.643
299.64
299.638
299.635
299.633
299.631
299.629
299.628
299.626
299.625
299.624
299.622
299.621
299.62
299.619
299.619
299.618
299.617
299.617
299.617
299.618
299.619
299.622
299.627
299.634
299.644
299.661
299.684
299.717
299.764
299.828
299.914
300.027
300.169
300.345
300.554
300.791
301.048
301.315
299.099
299.196
299.291
299.383
299.471
299.552
299.625
299.691
299.748
299.797
299.837
299.869
299.893
299.912
299.924
299.932
299.935
299.936
299.934
299.929
299.924
299.917
299.909
299.901
299.892
299.883
299.874
299.865
299.855
299.846
299.837
299.828
299.82
299.811
299.803
299.795
299.787
299.779
299.771
299.764
299.757
299.75
299.743
299.737
299.73
299.724
299.718
299.712
299.707
299.701
299.696
299.691
299.687
299.682
299.678
299.674
299.67
299.666
299.663
299.66
299.656
299.654
299.651
299.648
299.646
299.644
299.642
299.64
299.638
299.637
299.635
299.634
299.633
299.632
299.63
299.629
299.629
299.628
299.627
299.627
299.627
299.627
299.628
299.631
299.635
299.642
299.653
299.669
299.693
299.726
299.774
299.838
299.924
300.037
300.18
300.356
300.563
300.798
301.052
301.317
299.1
299.2
299.298
299.393
299.482
299.565
299.641
299.708
299.766
299.815
299.855
299.886
299.91
299.928
299.939
299.946
299.948
299.948
299.945
299.94
299.933
299.926
299.918
299.909
299.9
299.891
299.882
299.873
299.864
299.855
299.846
299.837
299.828
299.82
299.812
299.804
299.796
299.788
299.781
299.773
299.766
299.76
299.753
299.746
299.74
299.734
299.728
299.723
299.717
299.712
299.707
299.702
299.697
299.693
299.689
299.685
299.681
299.677
299.674
299.67
299.667
299.664
299.662
299.659
299.657
299.655
299.653
299.651
299.649
299.648
299.646
299.645
299.643
299.642
299.641
299.64
299.639
299.638
299.637
299.636
299.636
299.636
299.637
299.64
299.644
299.651
299.662
299.678
299.702
299.736
299.783
299.848
299.935
300.048
300.191
300.366
300.572
300.805
301.057
301.318
299.102
299.204
299.305
299.402
299.493
299.578
299.655
299.723
299.782
299.831
299.871
299.903
299.926
299.942
299.953
299.958
299.96
299.958
299.954
299.949
299.942
299.934
299.926
299.917
299.908
299.898
299.889
299.88
299.871
299.862
299.853
299.844
299.836
299.828
299.82
299.812
299.804
299.797
299.789
299.782
299.775
299.769
299.762
299.756
299.75
299.744
299.738
299.732
299.727
299.722
299.717
299.712
299.708
299.703
299.699
299.695
299.691
299.688
299.685
299.681
299.678
299.676
299.673
299.67
299.668
299.666
299.664
299.662
299.66
299.659
299.657
299.656
299.654
299.653
299.651
299.65
299.649
299.648
299.647
299.646
299.646
299.646
299.647
299.649
299.653
299.66
299.671
299.687
299.711
299.745
299.793
299.858
299.945
300.059
300.202
300.376
300.581
300.812
301.061
301.32
299.103
299.208
299.311
299.41
299.504
299.591
299.669
299.738
299.798
299.847
299.887
299.918
299.94
299.956
299.965
299.97
299.97
299.968
299.963
299.957
299.949
299.941
299.932
299.923
299.914
299.905
299.895
299.886
299.877
299.868
299.86
299.851
299.843
299.835
299.827
299.819
299.812
299.805
299.798
299.791
299.784
299.777
299.771
299.765
299.759
299.753
299.748
299.742
299.737
299.732
299.727
299.723
299.718
299.714
299.71
299.706
299.702
299.699
299.696
299.692
299.69
299.687
299.684
299.682
299.679
299.677
299.675
299.673
299.672
299.67
299.668
299.667
299.665
299.664
299.662
299.661
299.659
299.658
299.657
299.656
299.655
299.655
299.656
299.658
299.663
299.669
299.68
299.697
299.721
299.755
299.803
299.869
299.956
300.069
300.212
300.386
300.59
300.819
301.066
301.321
299.104
299.211
299.317
299.418
299.514
299.602
299.682
299.752
299.812
299.861
299.901
299.931
299.953
299.968
299.976
299.98
299.979
299.976
299.971
299.964
299.956
299.947
299.938
299.929
299.92
299.91
299.901
299.892
299.883
299.875
299.866
299.858
299.85
299.842
299.834
299.827
299.82
299.812
299.806
299.799
299.792
299.786
299.78
299.774
299.768
299.763
299.757
299.752
299.747
299.742
299.737
299.733
299.729
299.725
299.721
299.717
299.713
299.71
299.707
299.704
299.701
299.698
299.696
299.693
299.691
299.689
299.687
299.685
299.683
299.681
299.68
299.678
299.677
299.675
299.673
299.672
299.67
299.669
299.667
299.666
299.666
299.665
299.666
299.668
299.672
299.679
299.69
299.706
299.73
299.765
299.813
299.879
299.967
300.08
300.223
300.396
300.598
300.826
301.07
301.323
299.105
299.215
299.322
299.425
299.523
299.613
299.694
299.765
299.825
299.875
299.914
299.944
299.965
299.979
299.987
299.989
299.988
299.984
299.978
299.97
299.962
299.953
299.944
299.935
299.925
299.916
299.907
299.898
299.889
299.881
299.872
299.864
299.856
299.849
299.841
299.834
299.827
299.82
299.814
299.807
299.801
299.795
299.789
299.783
299.778
299.772
299.767
299.762
299.757
299.752
299.748
299.744
299.74
299.736
299.732
299.728
299.725
299.722
299.718
299.716
299.713
299.71
299.708
299.705
299.703
299.701
299.699
299.697
299.695
299.693
299.692
299.69
299.688
299.687
299.685
299.683
299.681
299.68
299.678
299.677
299.676
299.676
299.676
299.678
299.682
299.689
299.699
299.716
299.74
299.775
299.824
299.89
299.978
300.091
300.233
300.406
300.607
300.832
301.074
301.324
299.106
299.218
299.327
299.433
299.532
299.623
299.705
299.777
299.838
299.888
299.927
299.956
299.977
299.989
299.996
299.998
299.996
299.991
299.985
299.977
299.968
299.959
299.95
299.94
299.931
299.921
299.912
299.904
299.895
299.887
299.879
299.871
299.863
299.856
299.849
299.842
299.835
299.828
299.822
299.816
299.81
299.804
299.798
299.793
299.787
299.782
299.777
299.772
299.768
299.763
299.759
299.755
299.751
299.747
299.743
299.74
299.737
299.733
299.731
299.728
299.725
299.722
299.72
299.718
299.716
299.713
299.711
299.71
299.708
299.706
299.704
299.702
299.7
299.698
299.697
299.695
299.693
299.691
299.689
299.688
299.687
299.686
299.686
299.688
299.692
299.699
299.709
299.726
299.75
299.785
299.834
299.901
299.989
300.102
300.244
300.416
300.616
300.839
301.078
301.326
299.107
299.221
299.332
299.439
299.54
299.633
299.716
299.789
299.85
299.899
299.938
299.967
299.987
299.999
300.005
300.006
300.004
299.998
299.991
299.983
299.974
299.965
299.955
299.946
299.936
299.927
299.918
299.91
299.901
299.893
299.885
299.878
299.87
299.863
299.856
299.849
299.843
299.837
299.83
299.825
299.819
299.813
299.808
299.802
299.797
299.792
299.788
299.783
299.779
299.774
299.77
299.766
299.762
299.759
299.755
299.752
299.749
299.746
299.743
299.74
299.738
299.735
299.733
299.731
299.728
299.726
299.724
299.722
299.72
299.719
299.717
299.715
299.713
299.711
299.709
299.707
299.705
299.702
299.701
299.699
299.697
299.697
299.697
299.698
299.702
299.709
299.719
299.736
299.761
299.796
299.845
299.912
300
300.113
300.255
300.426
300.624
300.846
301.083
301.327
299.108
299.223
299.337
299.446
299.548
299.642
299.726
299.799
299.861
299.91
299.949
299.978
299.997
300.008
300.014
300.014
300.011
300.005
299.998
299.99
299.981
299.971
299.961
299.952
299.943
299.933
299.925
299.916
299.908
299.9
299.892
299.885
299.878
299.871
299.864
299.858
299.852
299.846
299.84
299.834
299.829
299.823
299.818
299.813
299.808
299.803
299.799
299.794
299.79
299.786
299.782
299.778
299.775
299.771
299.768
299.765
299.762
299.759
299.756
299.753
299.751
299.749
299.746
299.744
299.742
299.74
299.738
299.736
299.734
299.732
299.73
299.728
299.726
299.723
299.721
299.719
299.717
299.714
299.712
299.71
299.709
299.708
299.708
299.709
299.712
299.719
299.73
299.747
299.771
299.807
299.856
299.923
300.011
300.124
300.265
300.435
300.633
300.852
301.087
301.328
299.109
299.226
299.341
299.452
299.555
299.651
299.736
299.809
299.871
299.921
299.959
299.987
300.006
300.017
300.022
300.022
300.019
300.013
300.005
299.997
299.987
299.978
299.968
299.959
299.949
299.94
299.932
299.923
299.915
299.907
299.9
299.893
299.886
299.879
299.873
299.867
299.861
299.855
299.85
299.844
299.839
299.834
299.829
299.824
299.82
299.815
299.811
299.807
299.802
299.799
299.795
299.791
299.788
299.784
299.781
299.778
299.775
299.772
299.77
299.767
299.765
299.762
299.76
299.758
299.756
299.754
299.752
299.749
299.747
299.745
299.743
299.741
299.739
299.736
299.734
299.731
299.729
299.726
299.724
299.722
299.72
299.719
299.719
299.72
299.723
299.73
299.74
299.757
299.782
299.817
299.867
299.934
300.022
300.135
300.276
300.445
300.641
300.858
301.091
301.33
299.11
299.229
299.345
299.457
299.562
299.659
299.745
299.819
299.881
299.931
299.969
299.997
300.015
300.026
300.03
300.03
300.026
300.02
300.013
300.004
299.994
299.985
299.975
299.966
299.957
299.948
299.939
299.931
299.923
299.916
299.909
299.902
299.895
299.889
299.883
299.877
299.871
299.866
299.86
299.855
299.85
299.845
299.841
299.836
299.832
299.827
299.823
299.819
299.815
299.812
299.808
299.805
299.801
299.798
299.795
299.792
299.789
299.787
299.784
299.781
299.779
299.777
299.774
299.772
299.77
299.768
299.766
299.764
299.762
299.759
299.757
299.755
299.752
299.75
299.747
299.744
299.742
299.739
299.736
299.734
299.732
299.73
299.73
299.731
299.734
299.74
299.751
299.768
299.793
299.828
299.878
299.945
300.033
300.146
300.287
300.455
300.649
300.865
301.095
301.331
299.111
299.231
299.349
299.463
299.569
299.667
299.753
299.828
299.89
299.94
299.978
300.006
300.024
300.034
300.039
300.038
300.034
300.028
300.02
300.012
300.002
299.993
299.983
299.974
299.965
299.956
299.947
299.94
299.932
299.925
299.918
299.911
299.905
299.899
299.893
299.887
299.882
299.877
299.872
299.867
299.862
299.858
299.853
299.849
299.845
299.841
299.837
299.833
299.829
299.826
299.822
299.819
299.816
299.813
299.81
299.807
299.804
299.801
299.799
299.796
299.794
299.792
299.789
299.787
299.785
299.783
299.781
299.778
299.776
299.774
299.771
299.769
299.766
299.763
299.761
299.758
299.755
299.752
299.749
299.746
299.744
299.742
299.741
299.742
299.745
299.751
299.762
299.779
299.804
299.839
299.889
299.956
300.045
300.157
300.297
300.465
300.657
300.871
301.098
301.332
299.111
299.233
299.353
299.468
299.576
299.674
299.761
299.837
299.899
299.949
299.987
300.015
300.033
300.043
300.047
300.047
300.043
300.037
300.029
300.02
300.01
300.001
299.991
299.982
299.973
299.965
299.957
299.949
299.942
299.935
299.928
299.922
299.916
299.91
299.904
299.899
299.894
299.889
299.884
299.88
299.875
299.871
299.867
299.862
299.858
299.855
299.851
299.847
299.844
299.84
299.837
299.834
299.831
299.828
299.825
299.822
299.819
299.817
299.814
299.812
299.81
299.807
299.805
299.803
299.8
299.798
299.796
299.793
299.791
299.789
299.786
299.783
299.78
299.778
299.775
299.771
299.768
299.765
299.762
299.759
299.756
299.754
299.753
299.754
299.756
299.763
299.773
299.79
299.815
299.851
299.9
299.968
300.056
300.169
300.308
300.474
300.665
300.877
301.102
301.334
299.112
299.236
299.357
299.473
299.582
299.681
299.769
299.845
299.908
299.958
299.996
300.023
300.041
300.052
300.056
300.055
300.052
300.045
300.038
300.029
300.019
300.01
300.001
299.992
299.983
299.975
299.967
299.959
299.952
299.945
299.939
299.933
299.927
299.922
299.917
299.911
299.907
299.902
299.897
299.893
299.889
299.885
299.881
299.877
299.873
299.869
299.866
299.862
299.859
299.856
299.852
299.849
299.846
299.844
299.841
299.838
299.835
299.833
299.83
299.828
299.826
299.823
299.821
299.819
299.816
299.814
299.811
299.809
299.806
299.804
299.801
299.798
299.795
299.792
299.789
299.785
299.782
299.778
299.775
299.772
299.769
299.766
299.765
299.765
299.768
299.774
299.784
299.801
299.826
299.862
299.912
299.979
300.067
300.18
300.318
300.484
300.673
300.883
301.106
301.335
299.113
299.238
299.36
299.478
299.588
299.688
299.777
299.853
299.916
299.967
300.005
300.032
300.05
300.061
300.065
300.065
300.061
300.055
300.047
300.038
300.029
300.02
300.011
300.002
299.993
299.985
299.977
299.97
299.963
299.957
299.951
299.945
299.94
299.934
299.929
299.925
299.92
299.916
299.911
299.907
299.903
299.899
299.896
299.892
299.888
299.885
299.881
299.878
299.875
299.872
299.869
299.866
299.863
299.86
299.857
299.855
299.852
299.849
299.847
299.845
299.842
299.84
299.837
299.835
299.832
299.83
299.827
299.825
299.822
299.819
299.816
299.813
299.81
299.807
299.803
299.8
299.796
299.792
299.788
299.785
299.782
299.779
299.778
299.778
299.78
299.786
299.796
299.812
299.837
299.873
299.923
299.99
300.079
300.191
300.329
300.493
300.681
300.889
301.11
301.336
299.113
299.24
299.364
299.482
299.594
299.695
299.784
299.861
299.925
299.975
300.014
300.041
300.059
300.07
300.074