/*--------------------------------*- C++ -*----------------------------------*\
  =========                 |
  \\      /  F ield         | OpenFOAM: The Open Source CFD Toolbox
   \\    /   O peration     | Website:  https://openfoam.org
    \\  /    A nd           | Version:  6
     \\/     M anipulation  |
\*---------------------------------------------------------------------------*/
FoamFile
{
    version     2.0;
    format      ascii;
    class       volScalarField;
    location    "0";
    object      p;
}
// * * * * * * * * * * * * * * * * * * * * * * * * * * * * * * * * * * * * * //

dimensions      [0 2 -2 0 0 0 0];

internalField   nonuniform List<scalar> 
145945
(
2.11183e-06
2.11155e-06
2.11162e-06
2.11171e-06
2.11191e-06
2.11205e-06
2.11219e-06
2.11227e-06
2.11232e-06
2.11229e-06
2.11224e-06
2.11211e-06
2.112e-06
2.11181e-06
2.11175e-06
2.11164e-06
2.11193e-06
2.11155e-06
2.11147e-06
2.11157e-06
2.11173e-06
2.11195e-06
2.11211e-06
2.11226e-06
2.11234e-06
2.11239e-06
2.11236e-06
2.1123e-06
2.11217e-06
2.11204e-06
2.11184e-06
2.11172e-06
2.11157e-06
2.11165e-06
2.11162e-06
2.11157e-06
2.11168e-06
2.11189e-06
2.11213e-06
2.11231e-06
2.11247e-06
2.11256e-06
2.11261e-06
2.11259e-06
2.11252e-06
2.11238e-06
2.11223e-06
2.11202e-06
2.11185e-06
2.11168e-06
2.11172e-06
2.11171e-06
2.11173e-06
2.11189e-06
2.11214e-06
2.1124e-06
2.11261e-06
2.11277e-06
2.11287e-06
2.11292e-06
2.1129e-06
2.11282e-06
2.11268e-06
2.11251e-06
2.11229e-06
2.11207e-06
2.11186e-06
2.11182e-06
2.11191e-06
2.11195e-06
2.11213e-06
2.1124e-06
2.11267e-06
2.11288e-06
2.11305e-06
2.11316e-06
2.1132e-06
2.11318e-06
2.1131e-06
2.11296e-06
2.11278e-06
2.11255e-06
2.11231e-06
2.11208e-06
2.11202e-06
2.11205e-06
2.11211e-06
2.11231e-06
2.11261e-06
2.11288e-06
2.11311e-06
2.11328e-06
2.11339e-06
2.11343e-06
2.11341e-06
2.11333e-06
2.11319e-06
2.113e-06
2.11276e-06
2.1125e-06
2.11224e-06
2.11216e-06
2.11219e-06
2.11226e-06
2.11247e-06
2.11277e-06
2.11305e-06
2.11328e-06
2.11345e-06
2.11356e-06
2.11361e-06
2.11359e-06
2.1135e-06
2.11336e-06
2.11317e-06
2.11292e-06
2.11266e-06
2.1124e-06
2.11231e-06
2.11227e-06
2.11234e-06
2.11256e-06
2.11287e-06
2.11316e-06
2.11339e-06
2.11356e-06
2.11367e-06
2.11372e-06
2.1137e-06
2.11361e-06
2.11347e-06
2.11327e-06
2.11303e-06
2.11275e-06
2.11248e-06
2.11238e-06
2.11232e-06
2.11239e-06
2.11261e-06
2.11292e-06
2.1132e-06
2.11343e-06
2.11361e-06
2.11372e-06
2.11377e-06
2.11375e-06
2.11366e-06
2.11352e-06
2.11332e-06
2.11308e-06
2.1128e-06
2.11253e-06
2.11243e-06
2.11229e-06
2.11236e-06
2.11258e-06
2.1129e-06
2.11318e-06
2.11341e-06
2.11359e-06
2.1137e-06
2.11375e-06
2.11373e-06
2.11364e-06
2.1135e-06
2.1133e-06
2.11305e-06
2.11278e-06
2.11251e-06
2.11241e-06
2.11224e-06
2.1123e-06
2.11252e-06
2.11282e-06
2.1131e-06
2.11333e-06
2.1135e-06
2.11361e-06
2.11366e-06
2.11364e-06
2.11356e-06
2.11341e-06
2.11322e-06
2.11298e-06
2.11271e-06
2.11244e-06
2.11235e-06
2.11211e-06
2.11217e-06
2.11238e-06
2.11268e-06
2.11296e-06
2.11319e-06
2.11336e-06
2.11347e-06
2.11352e-06
2.1135e-06
2.11341e-06
2.11327e-06
2.11308e-06
2.11283e-06
2.11257e-06
2.11231e-06
2.11222e-06
2.112e-06
2.11204e-06
2.11223e-06
2.11251e-06
2.11278e-06
2.113e-06
2.11317e-06
2.11327e-06
2.11332e-06
2.1133e-06
2.11322e-06
2.11308e-06
2.11289e-06
2.11266e-06
2.11241e-06
2.11217e-06
2.11211e-06
2.11181e-06
2.11184e-06
2.11202e-06
2.11229e-06
2.11255e-06
2.11276e-06
2.11293e-06
2.11303e-06
2.11308e-06
2.11305e-06
2.11298e-06
2.11283e-06
2.11266e-06
2.11243e-06
2.1122e-06
2.11198e-06
2.11192e-06
2.11175e-06
2.11172e-06
2.11185e-06
2.11207e-06
2.11231e-06
2.1125e-06
2.11266e-06
2.11275e-06
2.1128e-06
2.11278e-06
2.11271e-06
2.11257e-06
2.11241e-06
2.1122e-06
2.11202e-06
2.11184e-06
2.11186e-06
2.11164e-06
2.11157e-06
2.11168e-06
2.11186e-06
2.11208e-06
2.11225e-06
2.1124e-06
2.11248e-06
2.11253e-06
2.11251e-06
2.11244e-06
2.11231e-06
2.11217e-06
2.11198e-06
2.11184e-06
2.11168e-06
2.11174e-06
2.11193e-06
2.11166e-06
2.11172e-06
2.11182e-06
2.11202e-06
2.11216e-06
2.11231e-06
2.11239e-06
2.11243e-06
2.11241e-06
2.11235e-06
2.11222e-06
2.11211e-06
2.11192e-06
2.11186e-06
2.11174e-06
2.11203e-06
2.03719e-06
2.03721e-06
2.03755e-06
2.0379e-06
2.0383e-06
2.03863e-06
2.03889e-06
2.03906e-06
2.03913e-06
2.03909e-06
2.03896e-06
2.03872e-06
2.03843e-06
2.03805e-06
2.03773e-06
2.03732e-06
2.03728e-06
2.0372e-06
2.0374e-06
2.03778e-06
2.0382e-06
2.03863e-06
2.03899e-06
2.03927e-06
2.03945e-06
2.03953e-06
2.03948e-06
2.03934e-06
2.03909e-06
2.03877e-06
2.03837e-06
2.03797e-06
2.03753e-06
2.0373e-06
2.03755e-06
2.03778e-06
2.03818e-06
2.03864e-06
2.0391e-06
2.03949e-06
2.03978e-06
2.03997e-06
2.04005e-06
2.04001e-06
2.03986e-06
2.03959e-06
2.03925e-06
2.03882e-06
2.03837e-06
2.03792e-06
2.03765e-06
2.0379e-06
2.0382e-06
2.03864e-06
2.03916e-06
2.03965e-06
2.04005e-06
2.04036e-06
2.04055e-06
2.04064e-06
2.04059e-06
2.04043e-06
2.04016e-06
2.0398e-06
2.03935e-06
2.03885e-06
2.03836e-06
2.038e-06
2.0383e-06
2.03863e-06
2.0391e-06
2.03964e-06
2.04015e-06
2.04057e-06
2.04088e-06
2.04109e-06
2.04117e-06
2.04113e-06
2.04097e-06
2.04068e-06
2.04031e-06
2.03984e-06
2.03932e-06
2.0388e-06
2.0384e-06
2.03863e-06
2.03899e-06
2.03949e-06
2.04005e-06
2.04057e-06
2.041e-06
2.04132e-06
2.04153e-06
2.04161e-06
2.04157e-06
2.0414e-06
2.04112e-06
2.04073e-06
2.04025e-06
2.03971e-06
2.03916e-06
2.03873e-06
2.03889e-06
2.03927e-06
2.03978e-06
2.04036e-06
2.04088e-06
2.04132e-06
2.04165e-06
2.04185e-06
2.04194e-06
2.0419e-06
2.04173e-06
2.04144e-06
2.04105e-06
2.04056e-06
2.04001e-06
2.03944e-06
2.039e-06
2.03906e-06
2.03945e-06
2.03997e-06
2.04055e-06
2.04109e-06
2.04153e-06
2.04185e-06
2.04207e-06
2.04215e-06
2.04211e-06
2.04194e-06
2.04165e-06
2.04125e-06
2.04076e-06
2.0402e-06
2.03962e-06
2.03916e-06
2.03913e-06
2.03952e-06
2.04005e-06
2.04064e-06
2.04117e-06
2.04161e-06
2.04194e-06
2.04215e-06
2.04224e-06
2.0422e-06
2.04203e-06
2.04174e-06
2.04134e-06
2.04085e-06
2.04028e-06
2.0397e-06
2.03924e-06
2.03909e-06
2.03948e-06
2.04001e-06
2.04059e-06
2.04113e-06
2.04157e-06
2.0419e-06
2.04211e-06
2.0422e-06
2.04216e-06
2.04198e-06
2.04169e-06
2.0413e-06
2.0408e-06
2.04024e-06
2.03966e-06
2.0392e-06
2.03896e-06
2.03934e-06
2.03986e-06
2.04043e-06
2.04097e-06
2.0414e-06
2.04173e-06
2.04194e-06
2.04203e-06
2.04198e-06
2.04181e-06
2.04152e-06
2.04113e-06
2.04064e-06
2.04009e-06
2.03951e-06
2.03906e-06
2.03872e-06
2.03909e-06
2.03959e-06
2.04016e-06
2.04069e-06
2.04112e-06
2.04144e-06
2.04165e-06
2.04174e-06
2.04169e-06
2.04152e-06
2.04124e-06
2.04085e-06
2.04036e-06
2.03982e-06
2.03926e-06
2.03882e-06
2.03843e-06
2.03877e-06
2.03925e-06
2.0398e-06
2.04031e-06
2.04073e-06
2.04105e-06
2.04125e-06
2.04134e-06
2.0413e-06
2.04113e-06
2.04085e-06
2.04047e-06
2.03999e-06
2.03947e-06
2.03893e-06
2.03853e-06
2.03805e-06
2.03837e-06
2.03882e-06
2.03935e-06
2.03984e-06
2.04025e-06
2.04056e-06
2.04076e-06
2.04085e-06
2.0408e-06
2.04064e-06
2.04036e-06
2.03999e-06
2.03954e-06
2.03903e-06
2.03853e-06
2.03815e-06
2.03773e-06
2.03797e-06
2.03837e-06
2.03885e-06
2.03932e-06
2.03971e-06
2.04001e-06
2.0402e-06
2.04028e-06
2.04024e-06
2.04009e-06
2.03982e-06
2.03947e-06
2.03903e-06
2.03857e-06
2.03812e-06
2.03782e-06
2.03732e-06
2.03753e-06
2.03792e-06
2.03836e-06
2.0388e-06
2.03916e-06
2.03944e-06
2.03962e-06
2.0397e-06
2.03966e-06
2.03951e-06
2.03926e-06
2.03893e-06
2.03853e-06
2.03812e-06
2.03767e-06
2.03742e-06
2.03728e-06
2.0373e-06
2.03765e-06
2.038e-06
2.0384e-06
2.03873e-06
2.039e-06
2.03916e-06
2.03924e-06
2.0392e-06
2.03906e-06
2.03883e-06
2.03853e-06
2.03815e-06
2.03782e-06
2.03742e-06
2.03737e-06
1.98147e-06
1.98277e-06
1.98401e-06
1.9851e-06
1.98608e-06
1.98682e-06
1.98735e-06
1.98767e-06
1.9878e-06
1.98772e-06
1.98744e-06
1.98694e-06
1.98626e-06
1.98531e-06
1.9842e-06
1.98283e-06
1.98147e-06
1.98277e-06
1.98391e-06
1.98511e-06
1.98621e-06
1.98718e-06
1.98791e-06
1.98845e-06
1.98877e-06
1.9889e-06
1.98882e-06
1.98854e-06
1.98804e-06
1.98735e-06
1.98642e-06
1.9853e-06
1.98397e-06
1.98276e-06
1.98401e-06
1.98511e-06
1.98623e-06
1.9873e-06
1.98823e-06
1.98896e-06
1.98948e-06
1.9898e-06
1.98992e-06
1.98984e-06
1.98957e-06
1.98908e-06
1.9884e-06
1.9875e-06
1.9864e-06
1.98516e-06
1.984e-06
1.9851e-06
1.98621e-06
1.9873e-06
1.98834e-06
1.98925e-06
1.98996e-06
1.99048e-06
1.9908e-06
1.99092e-06
1.99084e-06
1.99056e-06
1.99009e-06
1.98942e-06
1.98854e-06
1.98746e-06
1.98626e-06
1.98509e-06
1.98608e-06
1.98718e-06
1.98823e-06
1.98925e-06
1.99015e-06
1.99085e-06
1.99135e-06
1.99167e-06
1.99179e-06
1.99171e-06
1.99144e-06
1.99097e-06
1.99031e-06
1.98944e-06
1.98839e-06
1.98722e-06
1.98607e-06
1.98682e-06
1.98791e-06
1.98896e-06
1.98996e-06
1.99085e-06
1.99154e-06
1.99204e-06
1.99235e-06
1.99247e-06
1.9924e-06
1.99213e-06
1.99167e-06
1.99101e-06
1.99015e-06
1.98911e-06
1.98796e-06
1.98681e-06
1.98735e-06
1.98845e-06
1.98948e-06
1.99048e-06
1.99135e-06
1.99204e-06
1.99254e-06
1.99285e-06
1.99297e-06
1.99289e-06
1.99263e-06
1.99217e-06
1.99152e-06
1.99067e-06
1.98963e-06
1.9885e-06
1.98735e-06
1.98767e-06
1.98877e-06
1.9898e-06
1.99079e-06
1.99167e-06
1.99235e-06
1.99285e-06
1.99316e-06
1.99327e-06
1.9932e-06
1.99293e-06
1.99248e-06
1.99183e-06
1.99098e-06
1.98995e-06
1.98882e-06
1.98767e-06
1.9878e-06
1.9889e-06
1.98992e-06
1.99092e-06
1.99179e-06
1.99247e-06
1.99297e-06
1.99327e-06
1.99339e-06
1.99332e-06
1.99305e-06
1.9926e-06
1.99195e-06
1.9911e-06
1.99008e-06
1.98895e-06
1.9878e-06
1.98772e-06
1.98882e-06
1.98984e-06
1.99084e-06
1.99171e-06
1.9924e-06
1.99289e-06
1.9932e-06
1.99332e-06
1.99324e-06
1.99298e-06
1.99252e-06
1.99187e-06
1.99103e-06
1.99e-06
1.98886e-06
1.98771e-06
1.98744e-06
1.98854e-06
1.98957e-06
1.99056e-06
1.99144e-06
1.99213e-06
1.99263e-06
1.99293e-06
1.99305e-06
1.99298e-06
1.99271e-06
1.99225e-06
1.9916e-06
1.99075e-06
1.98972e-06
1.98858e-06
1.98743e-06
1.98694e-06
1.98804e-06
1.98908e-06
1.99009e-06
1.99097e-06
1.99167e-06
1.99217e-06
1.99248e-06
1.9926e-06
1.99252e-06
1.99225e-06
1.99179e-06
1.99114e-06
1.99028e-06
1.98924e-06
1.98809e-06
1.98694e-06
1.98626e-06
1.98735e-06
1.9884e-06
1.98942e-06
1.99031e-06
1.99101e-06
1.99152e-06
1.99183e-06
1.99195e-06
1.99187e-06
1.9916e-06
1.99114e-06
1.99048e-06
1.98961e-06
1.98856e-06
1.9874e-06
1.98625e-06
1.98531e-06
1.98642e-06
1.9875e-06
1.98854e-06
1.98945e-06
1.99016e-06
1.99067e-06
1.99098e-06
1.99111e-06
1.99103e-06
1.99075e-06
1.99028e-06
1.98961e-06
1.98873e-06
1.98766e-06
1.98647e-06
1.9853e-06
1.9842e-06
1.9853e-06
1.98641e-06
1.98746e-06
1.98839e-06
1.98911e-06
1.98964e-06
1.98995e-06
1.99008e-06
1.99e-06
1.98972e-06
1.98924e-06
1.98856e-06
1.98766e-06
1.98658e-06
1.98535e-06
1.9842e-06
1.98283e-06
1.98397e-06
1.98516e-06
1.98626e-06
1.98722e-06
1.98796e-06
1.9885e-06
1.98882e-06
1.98895e-06
1.98886e-06
1.98858e-06
1.98809e-06
1.9874e-06
1.98647e-06
1.98535e-06
1.98403e-06
1.98283e-06
1.98147e-06
1.98276e-06
1.984e-06
1.98509e-06
1.98607e-06
1.98681e-06
1.98735e-06
1.98767e-06
1.9878e-06
1.98771e-06
1.98743e-06
1.98694e-06
1.98625e-06
1.9853e-06
1.9842e-06
1.98283e-06
1.98146e-06
1.92756e-06
1.92973e-06
1.9317e-06
1.93355e-06
1.93512e-06
1.93629e-06
1.93713e-06
1.93764e-06
1.93783e-06
1.9377e-06
1.93726e-06
1.93648e-06
1.93539e-06
1.93389e-06
1.93204e-06
1.9299e-06
1.92757e-06
1.92973e-06
1.93155e-06
1.93347e-06
1.93528e-06
1.93682e-06
1.93798e-06
1.9388e-06
1.9393e-06
1.93949e-06
1.93936e-06
1.93893e-06
1.93817e-06
1.93709e-06
1.93562e-06
1.93381e-06
1.9317e-06
1.92975e-06
1.9317e-06
1.93347e-06
1.93531e-06
1.93706e-06
1.93853e-06
1.93965e-06
1.94044e-06
1.94092e-06
1.94111e-06
1.94099e-06
1.94056e-06
1.93983e-06
1.93879e-06
1.93739e-06
1.93564e-06
1.9336e-06
1.93171e-06
1.93355e-06
1.93528e-06
1.93706e-06
1.93875e-06
1.94017e-06
1.94125e-06
1.94202e-06
1.94249e-06
1.94267e-06
1.94255e-06
1.94214e-06
1.94143e-06
1.94042e-06
1.93907e-06
1.93737e-06
1.93541e-06
1.93356e-06
1.93512e-06
1.93682e-06
1.93853e-06
1.94017e-06
1.94156e-06
1.94261e-06
1.94335e-06
1.94381e-06
1.94398e-06
1.94387e-06
1.94347e-06
1.94278e-06
1.9418e-06
1.94049e-06
1.93884e-06
1.93695e-06
1.93514e-06
1.93629e-06
1.93798e-06
1.93965e-06
1.94125e-06
1.94261e-06
1.94364e-06
1.94437e-06
1.94481e-06
1.94498e-06
1.94487e-06
1.94448e-06
1.94381e-06
1.94285e-06
1.94156e-06
1.93995e-06
1.9381e-06
1.93631e-06
1.93713e-06
1.9388e-06
1.94044e-06
1.94202e-06
1.94335e-06
1.94437e-06
1.94509e-06
1.94553e-06
1.9457e-06
1.94559e-06
1.9452e-06
1.94454e-06
1.94359e-06
1.94233e-06
1.94073e-06
1.93893e-06
1.93715e-06
1.93763e-06
1.9393e-06
1.94092e-06
1.94249e-06
1.94381e-06
1.94481e-06
1.94553e-06
1.94596e-06
1.94613e-06
1.94602e-06
1.94564e-06
1.94498e-06
1.94404e-06
1.94279e-06
1.94121e-06
1.93942e-06
1.93765e-06
1.93783e-06
1.93949e-06
1.94111e-06
1.94267e-06
1.94398e-06
1.94498e-06
1.9457e-06
1.94613e-06
1.9463e-06
1.94619e-06
1.94581e-06
1.94515e-06
1.94422e-06
1.94297e-06
1.9414e-06
1.93962e-06
1.93785e-06
1.9377e-06
1.93936e-06
1.94099e-06
1.94255e-06
1.94387e-06
1.94487e-06
1.94559e-06
1.94602e-06
1.94619e-06
1.94608e-06
1.9457e-06
1.94504e-06
1.9441e-06
1.94285e-06
1.94128e-06
1.93949e-06
1.93772e-06
1.93726e-06
1.93893e-06
1.94056e-06
1.94214e-06
1.94347e-06
1.94448e-06
1.9452e-06
1.94564e-06
1.94581e-06
1.9457e-06
1.94532e-06
1.94465e-06
1.94371e-06
1.94245e-06
1.94086e-06
1.93905e-06
1.93727e-06
1.93648e-06
1.93817e-06
1.93983e-06
1.94143e-06
1.94278e-06
1.94381e-06
1.94454e-06
1.94498e-06
1.94515e-06
1.94504e-06
1.94465e-06
1.94398e-06
1.94302e-06
1.94174e-06
1.94013e-06
1.9383e-06
1.9365e-06
1.93539e-06
1.93709e-06
1.93879e-06
1.94042e-06
1.9418e-06
1.94285e-06
1.94359e-06
1.94404e-06
1.94422e-06
1.9441e-06
1.94371e-06
1.94302e-06
1.94204e-06
1.94074e-06
1.93909e-06
1.93722e-06
1.93541e-06
1.93389e-06
1.93562e-06
1.93739e-06
1.93907e-06
1.94049e-06
1.94157e-06
1.94233e-06
1.94279e-06
1.94297e-06
1.94285e-06
1.94245e-06
1.94174e-06
1.94074e-06
1.93939e-06
1.9377e-06
1.93576e-06
1.93391e-06
1.93204e-06
1.93381e-06
1.93564e-06
1.93737e-06
1.93884e-06
1.93995e-06
1.94074e-06
1.94121e-06
1.9414e-06
1.94128e-06
1.94086e-06
1.94013e-06
1.9391e-06
1.9377e-06
1.93596e-06
1.93394e-06
1.93205e-06
1.9299e-06
1.9317e-06
1.9336e-06
1.93541e-06
1.93695e-06
1.93811e-06
1.93893e-06
1.93943e-06
1.93962e-06
1.93949e-06
1.93905e-06
1.9383e-06
1.93722e-06
1.93576e-06
1.93394e-06
1.93184e-06
1.92991e-06
1.92757e-06
1.92975e-06
1.93171e-06
1.93356e-06
1.93514e-06
1.93631e-06
1.93715e-06
1.93765e-06
1.93785e-06
1.93772e-06
1.93727e-06
1.9365e-06
1.93541e-06
1.93391e-06
1.93205e-06
1.92991e-06
1.92757e-06
1.8752e-06
1.8777e-06
1.87991e-06
1.88208e-06
1.88389e-06
1.88526e-06
1.88624e-06
1.88683e-06
1.88706e-06
1.88691e-06
1.88638e-06
1.88548e-06
1.8842e-06
1.88247e-06
1.88028e-06
1.87789e-06
1.8752e-06
1.8777e-06
1.87977e-06
1.88195e-06
1.88407e-06
1.88587e-06
1.88723e-06
1.8882e-06
1.88879e-06
1.88902e-06
1.88887e-06
1.88835e-06
1.88745e-06
1.88618e-06
1.88447e-06
1.88233e-06
1.87994e-06
1.87771e-06
1.87991e-06
1.88196e-06
1.88411e-06
1.88616e-06
1.8879e-06
1.88922e-06
1.89016e-06
1.89073e-06
1.89095e-06
1.89081e-06
1.8903e-06
1.88943e-06
1.8882e-06
1.88654e-06
1.88448e-06
1.88211e-06
1.87992e-06
1.88208e-06
1.88407e-06
1.88616e-06
1.88815e-06
1.88984e-06
1.89112e-06
1.89204e-06
1.8926e-06
1.89281e-06
1.89267e-06
1.89218e-06
1.89134e-06
1.89013e-06
1.88853e-06
1.88652e-06
1.88422e-06
1.88209e-06
1.88389e-06
1.88587e-06
1.88789e-06
1.88984e-06
1.89148e-06
1.89274e-06
1.89363e-06
1.89418e-06
1.89439e-06
1.89425e-06
1.89377e-06
1.89295e-06
1.89177e-06
1.89021e-06
1.88825e-06
1.88602e-06
1.8839e-06
1.88525e-06
1.88723e-06
1.88922e-06
1.89112e-06
1.89274e-06
1.89397e-06
1.89485e-06
1.89539e-06
1.89559e-06
1.89546e-06
1.89499e-06
1.89418e-06
1.89302e-06
1.89149e-06
1.88956e-06
1.88738e-06
1.88527e-06
1.88624e-06
1.8882e-06
1.89016e-06
1.89204e-06
1.89363e-06
1.89485e-06
1.89572e-06
1.89625e-06
1.89645e-06
1.89632e-06
1.89585e-06
1.89506e-06
1.89391e-06
1.8924e-06
1.8905e-06
1.88835e-06
1.88625e-06
1.88683e-06
1.88879e-06
1.89073e-06
1.8926e-06
1.89418e-06
1.89539e-06
1.89625e-06
1.89678e-06
1.89698e-06
1.89685e-06
1.89638e-06
1.89559e-06
1.89446e-06
1.89296e-06
1.89107e-06
1.88894e-06
1.88684e-06
1.88706e-06
1.88902e-06
1.89095e-06
1.89281e-06
1.89439e-06
1.89559e-06
1.89645e-06
1.89698e-06
1.89718e-06
1.89705e-06
1.89659e-06
1.8958e-06
1.89467e-06
1.89317e-06
1.89129e-06
1.88917e-06
1.88707e-06
1.88691e-06
1.88887e-06
1.89081e-06
1.89267e-06
1.89425e-06
1.89546e-06
1.89632e-06
1.89685e-06
1.89705e-06
1.89692e-06
1.89645e-06
1.89566e-06
1.89453e-06
1.89303e-06
1.89115e-06
1.88902e-06
1.88692e-06
1.88638e-06
1.88835e-06
1.8903e-06
1.89218e-06
1.89377e-06
1.89499e-06
1.89585e-06
1.89638e-06
1.89659e-06
1.89645e-06
1.89599e-06
1.89519e-06
1.89405e-06
1.89254e-06
1.89065e-06
1.8885e-06
1.8864e-06
1.88548e-06
1.88745e-06
1.88943e-06
1.89134e-06
1.89295e-06
1.89418e-06
1.89506e-06
1.89559e-06
1.8958e-06
1.89566e-06
1.89519e-06
1.89439e-06
1.89323e-06
1.8917e-06
1.88978e-06
1.8876e-06
1.88549e-06
1.8842e-06
1.88618e-06
1.8882e-06
1.89013e-06
1.89177e-06
1.89302e-06
1.89391e-06
1.89446e-06
1.89467e-06
1.89453e-06
1.89405e-06
1.89323e-06
1.89206e-06
1.8905e-06
1.88855e-06
1.88633e-06
1.88421e-06
1.88247e-06
1.88447e-06
1.88654e-06
1.88853e-06
1.89021e-06
1.89149e-06
1.8924e-06
1.89296e-06
1.89317e-06
1.89303e-06
1.89254e-06
1.8917e-06
1.8905e-06
1.8889e-06
1.88691e-06
1.88462e-06
1.88249e-06
1.88029e-06
1.88234e-06
1.88448e-06
1.88652e-06
1.88825e-06
1.88957e-06
1.8905e-06
1.89107e-06
1.89129e-06
1.89115e-06
1.89065e-06
1.88978e-06
1.88855e-06
1.88691e-06
1.88485e-06
1.88249e-06
1.8803e-06
1.87789e-06
1.87994e-06
1.88211e-06
1.88422e-06
1.88602e-06
1.88738e-06
1.88835e-06
1.88894e-06
1.88917e-06
1.88902e-06
1.8885e-06
1.8876e-06
1.88633e-06
1.88462e-06
1.88249e-06
1.8801e-06
1.8779e-06
1.8752e-06
1.87771e-06
1.87992e-06
1.88209e-06
1.8839e-06
1.88527e-06
1.88625e-06
1.88684e-06
1.88707e-06
1.88692e-06
1.8864e-06
1.88549e-06
1.88421e-06
1.88249e-06
1.88029e-06
1.8779e-06
1.87521e-06
1.82696e-06
1.82956e-06
1.83182e-06
1.83411e-06
1.83598e-06
1.83742e-06
1.83845e-06
1.83907e-06
1.83931e-06
1.83915e-06
1.8386e-06
1.83765e-06
1.8363e-06
1.83451e-06
1.83219e-06
1.82974e-06
1.82696e-06
1.82956e-06
1.83171e-06
1.83397e-06
1.8362e-06
1.83808e-06
1.83952e-06
1.84055e-06
1.84118e-06
1.84142e-06
1.84126e-06
1.84071e-06
1.83975e-06
1.8384e-06
1.8366e-06
1.83434e-06
1.83187e-06
1.82955e-06
1.83182e-06
1.83397e-06
1.83624e-06
1.8384e-06
1.84023e-06
1.84164e-06
1.84264e-06
1.84325e-06
1.84348e-06
1.84333e-06
1.84279e-06
1.84186e-06
1.84054e-06
1.83879e-06
1.83661e-06
1.83411e-06
1.83182e-06
1.83411e-06
1.8362e-06
1.8384e-06
1.8405e-06
1.8423e-06
1.84367e-06
1.84465e-06
1.84525e-06
1.84548e-06
1.84533e-06
1.8448e-06
1.84389e-06
1.8426e-06
1.84089e-06
1.83876e-06
1.83633e-06
1.8341e-06
1.83598e-06
1.83808e-06
1.84023e-06
1.8423e-06
1.84405e-06
1.8454e-06
1.84636e-06
1.84695e-06
1.84717e-06
1.84702e-06
1.84651e-06
1.84562e-06
1.84435e-06
1.84267e-06
1.84059e-06
1.83821e-06
1.83598e-06
1.83742e-06
1.83952e-06
1.84164e-06
1.84367e-06
1.8454e-06
1.84673e-06
1.84768e-06
1.84826e-06
1.84848e-06
1.84833e-06
1.84782e-06
1.84695e-06
1.8457e-06
1.84404e-06
1.84199e-06
1.83965e-06
1.83741e-06
1.83845e-06
1.84055e-06
1.84264e-06
1.84465e-06
1.84636e-06
1.84768e-06
1.84862e-06
1.84919e-06
1.84941e-06
1.84926e-06
1.84876e-06
1.84789e-06
1.84665e-06
1.84502e-06
1.84298e-06
1.84068e-06
1.83844e-06
1.83907e-06
1.84118e-06
1.84325e-06
1.84525e-06
1.84695e-06
1.84826e-06
1.84919e-06
1.84976e-06
1.84997e-06
1.84983e-06
1.84933e-06
1.84847e-06
1.84724e-06
1.84562e-06
1.84359e-06
1.84131e-06
1.83907e-06
1.83931e-06
1.84142e-06
1.84348e-06
1.84548e-06
1.84717e-06
1.84848e-06
1.84941e-06
1.84997e-06
1.85019e-06
1.85005e-06
1.84955e-06
1.84869e-06
1.84746e-06
1.84584e-06
1.84382e-06
1.84155e-06
1.83931e-06
1.83915e-06
1.84126e-06
1.84333e-06
1.84533e-06
1.84702e-06
1.84833e-06
1.84926e-06
1.84983e-06
1.85005e-06
1.8499e-06
1.8494e-06
1.84854e-06
1.84731e-06
1.84569e-06
1.84367e-06
1.84139e-06
1.83915e-06
1.8386e-06
1.84071e-06
1.84279e-06
1.8448e-06
1.84651e-06
1.84782e-06
1.84876e-06
1.84933e-06
1.84955e-06
1.8494e-06
1.8489e-06
1.84803e-06
1.8468e-06
1.84517e-06
1.84313e-06
1.84084e-06
1.8386e-06
1.83765e-06
1.83975e-06
1.84186e-06
1.84389e-06
1.84562e-06
1.84695e-06
1.84789e-06
1.84847e-06
1.84869e-06
1.84854e-06
1.84803e-06
1.84716e-06
1.84591e-06
1.84426e-06
1.84221e-06
1.83988e-06
1.83764e-06
1.8363e-06
1.8384e-06
1.84054e-06
1.8426e-06
1.84435e-06
1.8457e-06
1.84665e-06
1.84724e-06
1.84746e-06
1.84731e-06
1.8468e-06
1.84591e-06
1.84465e-06
1.84298e-06
1.8409e-06
1.83853e-06
1.83629e-06
1.83451e-06
1.8366e-06
1.83879e-06
1.84089e-06
1.84267e-06
1.84405e-06
1.84502e-06
1.84562e-06
1.84584e-06
1.84569e-06
1.84517e-06
1.84426e-06
1.84298e-06
1.84127e-06
1.83915e-06
1.83674e-06
1.83451e-06
1.83219e-06
1.83435e-06
1.83661e-06
1.83876e-06
1.84059e-06
1.84199e-06
1.84299e-06
1.84359e-06
1.84382e-06
1.84367e-06
1.84313e-06
1.84221e-06
1.8409e-06
1.83915e-06
1.83698e-06
1.83449e-06
1.83219e-06
1.82974e-06
1.83187e-06
1.83412e-06
1.83633e-06
1.83821e-06
1.83965e-06
1.84068e-06
1.84131e-06
1.84155e-06
1.84139e-06
1.84084e-06
1.83988e-06
1.83853e-06
1.83674e-06
1.83449e-06
1.83202e-06
1.82974e-06
1.82696e-06
1.82955e-06
1.83182e-06
1.8341e-06
1.83598e-06
1.83741e-06
1.83844e-06
1.83907e-06
1.83931e-06
1.83915e-06
1.8386e-06
1.83764e-06
1.83629e-06
1.83451e-06
1.83218e-06
1.82973e-06
1.82695e-06
1.78267e-06
1.78519e-06
1.78739e-06
1.78965e-06
1.79149e-06
1.79292e-06
1.79395e-06
1.79457e-06
1.79481e-06
1.79465e-06
1.7941e-06
1.79315e-06
1.7918e-06
1.79005e-06
1.78774e-06
1.78536e-06
1.78266e-06
1.78519e-06
1.78729e-06
1.7895e-06
1.79171e-06
1.79358e-06
1.79502e-06
1.79605e-06
1.79668e-06
1.79692e-06
1.79676e-06
1.7962e-06
1.79525e-06
1.79389e-06
1.79211e-06
1.78986e-06
1.78745e-06
1.78518e-06
1.78739e-06
1.7895e-06
1.79175e-06
1.7939e-06
1.79574e-06
1.79715e-06
1.79816e-06
1.79877e-06
1.799e-06
1.79885e-06
1.7983e-06
1.79737e-06
1.79604e-06
1.79429e-06
1.79211e-06
1.78964e-06
1.78738e-06
1.78965e-06
1.79171e-06
1.7939e-06
1.79601e-06
1.79781e-06
1.7992e-06
1.80019e-06
1.8008e-06
1.80103e-06
1.80087e-06
1.80034e-06
1.79942e-06
1.79811e-06
1.79639e-06
1.79426e-06
1.79184e-06
1.78964e-06
1.79149e-06
1.79358e-06
1.79574e-06
1.79781e-06
1.79959e-06
1.80096e-06
1.80193e-06
1.80253e-06
1.80276e-06
1.80261e-06
1.80208e-06
1.80117e-06
1.79989e-06
1.79819e-06
1.79609e-06
1.7937e-06
1.79148e-06
1.79292e-06
1.79502e-06
1.79715e-06
1.7992e-06
1.80096e-06
1.80231e-06
1.80328e-06
1.80387e-06
1.80409e-06
1.80394e-06
1.80342e-06
1.80252e-06
1.80125e-06
1.79958e-06
1.79749e-06
1.79515e-06
1.79291e-06
1.79395e-06
1.79605e-06
1.79815e-06
1.80019e-06
1.80193e-06
1.80328e-06
1.80423e-06
1.80482e-06
1.80504e-06
1.80489e-06
1.80438e-06
1.80349e-06
1.80223e-06
1.80056e-06
1.7985e-06
1.79618e-06
1.79394e-06
1.79457e-06
1.79668e-06
1.79877e-06
1.8008e-06
1.80253e-06
1.80387e-06
1.80482e-06
1.8054e-06
1.80562e-06
1.80548e-06
1.80496e-06
1.80408e-06
1.80282e-06
1.80117e-06
1.79911e-06
1.79681e-06
1.79456e-06
1.79481e-06
1.79692e-06
1.799e-06
1.80103e-06
1.80276e-06
1.80409e-06
1.80504e-06
1.80562e-06
1.80584e-06
1.8057e-06
1.80518e-06
1.8043e-06
1.80305e-06
1.8014e-06
1.79934e-06
1.79704e-06
1.7948e-06
1.79465e-06
1.79676e-06
1.79885e-06
1.80087e-06
1.80261e-06
1.80394e-06
1.80489e-06
1.80548e-06
1.8057e-06
1.80555e-06
1.80503e-06
1.80415e-06
1.8029e-06
1.80124e-06
1.79919e-06
1.79688e-06
1.79464e-06
1.7941e-06
1.7962e-06
1.7983e-06
1.80034e-06
1.80208e-06
1.80342e-06
1.80438e-06
1.80496e-06
1.80518e-06
1.80503e-06
1.80452e-06
1.80363e-06
1.80237e-06
1.80071e-06
1.79865e-06
1.79633e-06
1.79409e-06
1.79315e-06
1.79525e-06
1.79737e-06
1.79942e-06
1.80117e-06
1.80253e-06
1.80349e-06
1.80408e-06
1.8043e-06
1.80415e-06
1.80363e-06
1.80274e-06
1.80147e-06
1.79979e-06
1.79772e-06
1.79537e-06
1.79314e-06
1.7918e-06
1.79389e-06
1.79604e-06
1.79811e-06
1.79989e-06
1.80125e-06
1.80223e-06
1.80282e-06
1.80305e-06
1.8029e-06
1.80237e-06
1.80147e-06
1.80019e-06
1.79849e-06
1.7964e-06
1.79402e-06
1.79179e-06
1.79005e-06
1.79211e-06
1.79429e-06
1.79639e-06
1.79819e-06
1.79958e-06
1.80056e-06
1.80117e-06
1.8014e-06
1.80125e-06
1.80071e-06
1.7998e-06
1.79849e-06
1.79678e-06
1.79465e-06
1.79224e-06
1.79004e-06
1.78774e-06
1.78986e-06
1.79211e-06
1.79426e-06
1.79609e-06
1.7975e-06
1.7985e-06
1.79911e-06
1.79935e-06
1.79919e-06
1.79865e-06
1.79772e-06
1.7964e-06
1.79465e-06
1.79247e-06
1.79e-06
1.78773e-06
1.78536e-06
1.78745e-06
1.78964e-06
1.79184e-06
1.79371e-06
1.79515e-06
1.79618e-06
1.79681e-06
1.79705e-06
1.79688e-06
1.79633e-06
1.79537e-06
1.79402e-06
1.79224e-06
1.79e-06
1.7876e-06
1.78536e-06
1.78266e-06
1.78518e-06
1.78738e-06
1.78964e-06
1.79148e-06
1.79292e-06
1.79394e-06
1.79456e-06
1.7948e-06
1.79464e-06
1.79409e-06
1.79314e-06
1.79179e-06
1.79004e-06
1.78773e-06
1.78535e-06
1.78265e-06
1.7417e-06
1.74403e-06
1.74607e-06
1.74821e-06
1.74993e-06
1.75129e-06
1.75226e-06
1.75285e-06
1.75308e-06
1.75292e-06
1.7524e-06
1.7515e-06
1.75022e-06
1.74859e-06
1.7464e-06
1.74419e-06
1.7417e-06
1.74403e-06
1.74599e-06
1.74805e-06
1.75014e-06
1.7519e-06
1.75328e-06
1.75426e-06
1.75486e-06
1.75509e-06
1.75494e-06
1.7544e-06
1.75349e-06
1.7522e-06
1.75052e-06
1.74839e-06
1.74614e-06
1.74402e-06
1.74607e-06
1.74805e-06
1.75017e-06
1.75222e-06
1.75396e-06
1.75531e-06
1.75628e-06
1.75687e-06
1.75709e-06
1.75694e-06
1.75642e-06
1.75553e-06
1.75426e-06
1.75259e-06
1.75051e-06
1.74819e-06
1.74606e-06
1.74821e-06
1.75014e-06
1.75222e-06
1.75422e-06
1.75595e-06
1.75729e-06
1.75824e-06
1.75883e-06
1.75905e-06
1.7589e-06
1.75838e-06
1.7575e-06
1.75624e-06
1.75459e-06
1.75256e-06
1.75027e-06
1.7482e-06
1.74993e-06
1.7519e-06
1.75396e-06
1.75595e-06
1.75766e-06
1.75898e-06
1.75993e-06
1.76051e-06
1.76073e-06
1.76058e-06
1.76007e-06
1.75919e-06
1.75795e-06
1.75631e-06
1.7543e-06
1.75202e-06
1.74992e-06
1.75129e-06
1.75328e-06
1.75531e-06
1.75728e-06
1.75898e-06
1.76029e-06
1.76123e-06
1.76181e-06
1.76203e-06
1.76188e-06
1.76137e-06
1.7605e-06
1.75927e-06
1.75765e-06
1.75565e-06
1.7534e-06
1.75128e-06
1.75226e-06
1.75426e-06
1.75628e-06
1.75824e-06
1.75993e-06
1.76123e-06
1.76217e-06
1.76274e-06
1.76296e-06
1.76281e-06
1.7623e-06
1.76144e-06
1.76021e-06
1.7586e-06
1.75661e-06
1.75438e-06
1.75225e-06
1.75285e-06
1.75486e-06
1.75687e-06
1.75883e-06
1.76051e-06
1.76181e-06
1.76274e-06
1.76331e-06
1.76353e-06
1.76338e-06
1.76288e-06
1.76202e-06
1.76079e-06
1.75919e-06
1.7572e-06
1.75498e-06
1.75284e-06
1.75307e-06
1.75509e-06
1.75709e-06
1.75905e-06
1.76073e-06
1.76203e-06
1.76296e-06
1.76353e-06
1.76374e-06
1.7636e-06
1.76309e-06
1.76223e-06
1.76101e-06
1.75941e-06
1.75742e-06
1.75521e-06
1.75307e-06
1.75292e-06
1.75493e-06
1.75694e-06
1.7589e-06
1.76058e-06
1.76188e-06
1.76281e-06
1.76338e-06
1.7636e-06
1.76345e-06
1.76295e-06
1.76209e-06
1.76086e-06
1.75926e-06
1.75727e-06
1.75506e-06
1.75291e-06
1.7524e-06
1.7544e-06
1.75642e-06
1.75838e-06
1.76007e-06
1.76137e-06
1.7623e-06
1.76288e-06
1.76309e-06
1.76295e-06
1.76244e-06
1.76158e-06
1.76035e-06
1.75874e-06
1.75675e-06
1.75453e-06
1.75239e-06
1.7515e-06
1.75349e-06
1.75553e-06
1.7575e-06
1.75919e-06
1.7605e-06
1.76144e-06
1.76202e-06
1.76223e-06
1.76209e-06
1.76158e-06
1.76071e-06
1.75948e-06
1.75786e-06
1.75586e-06
1.75361e-06
1.75149e-06
1.75022e-06
1.7522e-06
1.75425e-06
1.75624e-06
1.75795e-06
1.75927e-06
1.76021e-06
1.76079e-06
1.76101e-06
1.76086e-06
1.76035e-06
1.75948e-06
1.75823e-06
1.7566e-06
1.75459e-06
1.75232e-06
1.75021e-06
1.74859e-06
1.75052e-06
1.75259e-06
1.75459e-06
1.75631e-06
1.75765e-06
1.7586e-06
1.75919e-06
1.75941e-06
1.75926e-06
1.75874e-06
1.75786e-06
1.7566e-06
1.75496e-06
1.75293e-06
1.75065e-06
1.74858e-06
1.7464e-06
1.74839e-06
1.75051e-06
1.75256e-06
1.7543e-06
1.75565e-06
1.75661e-06
1.7572e-06
1.75742e-06
1.75727e-06
1.75675e-06
1.75586e-06
1.75459e-06
1.75293e-06
1.75085e-06
1.74852e-06
1.74639e-06
1.74419e-06
1.74614e-06
1.74819e-06
1.75027e-06
1.75203e-06
1.7534e-06
1.75438e-06
1.75498e-06
1.75521e-06
1.75506e-06
1.75453e-06
1.75362e-06
1.75232e-06
1.75065e-06
1.74852e-06
1.74628e-06
1.74419e-06
1.7417e-06
1.74402e-06
1.74606e-06
1.7482e-06
1.74992e-06
1.75128e-06
1.75225e-06
1.75284e-06
1.75307e-06
1.75291e-06
1.75239e-06
1.75149e-06
1.75021e-06
1.74858e-06
1.74639e-06
1.74418e-06
1.74169e-06
1.70364e-06
1.70573e-06
1.70757e-06
1.70952e-06
1.71109e-06
1.71234e-06
1.71322e-06
1.71377e-06
1.71397e-06
1.71383e-06
1.71335e-06
1.71253e-06
1.71135e-06
1.70987e-06
1.70787e-06
1.70587e-06
1.70363e-06
1.70573e-06
1.70751e-06
1.70937e-06
1.71129e-06
1.71289e-06
1.71416e-06
1.71507e-06
1.71562e-06
1.71583e-06
1.71569e-06
1.7152e-06
1.71436e-06
1.71317e-06
1.71163e-06
1.70968e-06
1.70764e-06
1.70572e-06
1.70757e-06
1.70938e-06
1.71131e-06
1.71319e-06
1.71479e-06
1.71604e-06
1.71694e-06
1.71749e-06
1.7177e-06
1.71755e-06
1.71707e-06
1.71624e-06
1.71506e-06
1.71353e-06
1.71162e-06
1.7095e-06
1.70756e-06
1.70953e-06
1.71129e-06
1.71319e-06
1.71504e-06
1.71663e-06
1.71787e-06
1.71876e-06
1.71931e-06
1.71952e-06
1.71938e-06
1.71889e-06
1.71807e-06
1.7169e-06
1.71538e-06
1.7135e-06
1.7114e-06
1.70951e-06
1.71109e-06
1.71289e-06
1.71479e-06
1.71663e-06
1.71822e-06
1.71946e-06
1.72034e-06
1.72088e-06
1.72109e-06
1.72095e-06
1.72047e-06
1.71965e-06
1.71849e-06
1.71697e-06
1.7151e-06
1.713e-06
1.71108e-06
1.71234e-06
1.71416e-06
1.71604e-06
1.71787e-06
1.71945e-06
1.72068e-06
1.72156e-06
1.7221e-06
1.72231e-06
1.72217e-06
1.72169e-06
1.72088e-06
1.71972e-06
1.71821e-06
1.71635e-06
1.71427e-06
1.71233e-06
1.71322e-06
1.71507e-06
1.71694e-06
1.71876e-06
1.72034e-06
1.72156e-06
1.72244e-06
1.72298e-06
1.72318e-06
1.72305e-06
1.72257e-06
1.72176e-06
1.7206e-06
1.7191e-06
1.71724e-06
1.71518e-06
1.71321e-06
1.71377e-06
1.71562e-06
1.71749e-06
1.71931e-06
1.72088e-06
1.7221e-06
1.72298e-06
1.72352e-06
1.72372e-06
1.72358e-06
1.72311e-06
1.7223e-06
1.72115e-06
1.71964e-06
1.71779e-06
1.71573e-06
1.71376e-06
1.71397e-06
1.71583e-06
1.71769e-06
1.71952e-06
1.72109e-06
1.72231e-06
1.72318e-06
1.72372e-06
1.72392e-06
1.72379e-06
1.72331e-06
1.7225e-06
1.72135e-06
1.71985e-06
1.718e-06
1.71594e-06
1.71396e-06
1.71383e-06
1.71569e-06
1.71755e-06
1.71938e-06
1.72095e-06