/*--------------------------------*- C++ -*----------------------------------*\
  =========                 |
  \\      /  F ield         | OpenFOAM: The Open Source CFD Toolbox
   \\    /   O peration     | Website:  https://openfoam.org
    \\  /    A nd           | Version:  6
     \\/     M anipulation  |
\*---------------------------------------------------------------------------*/
FoamFile
{
    version     2.0;
    format      ascii;
    class       volScalarField;
    location    "0";
    object      p;
}
// * * * * * * * * * * * * * * * * * * * * * * * * * * * * * * * * * * * * * //

dimensions      [0 2 -2 0 0 0 0];

internalField   nonuniform List<scalar> 
11644
(
0.114166
0.115173
0.117078
0.119884
0.123612
0.128273
0.133865
0.140378
0.14778
0.156014
0.164983
0.174544
0.184492
0.194557
0.204395
0.213604
0.221736
0.22834
0.233007
0.235426
0.235426
0.233008
0.22834
0.221736
0.213604
0.204396
0.194557
0.184493
0.174545
0.164984
0.156015
0.147781
0.140379
0.133866
0.128273
0.123613
0.119885
0.117079
0.115174
0.114166
0.113005
0.113954
0.115819
0.118602
0.122318
0.126978
0.132588
0.139145
0.146629
0.154996
0.164165
0.174009
0.184333
0.19487
0.205266
0.215087
0.223839
0.231004
0.236101
0.238752
0.238752
0.236101
0.231005
0.22384
0.215088
0.205266
0.194871
0.184334
0.17401
0.164166
0.154996
0.146629
0.139146
0.132589
0.126979
0.122319
0.118603
0.115819
0.113955
0.113006
0.11018
0.111093
0.112918
0.115666
0.119356
0.124009
0.129647
0.136286
0.143936
0.152584
0.162186
0.172653
0.183821
0.195435
0.207124
0.218391
0.228628
0.237155
0.243303
0.246531
0.246531
0.243303
0.237155
0.228629
0.218391
0.207124
0.195436
0.183822
0.172654
0.162187
0.152584
0.143937
0.136287
0.129647
0.12401
0.119357
0.115667
0.112919
0.111094
0.110181
0.105566
0.106448
0.108222
0.110909
0.11454
0.119153
0.124795
0.131517
0.13937
0.148398
0.158623
0.170027
0.182519
0.195885
0.209747
0.223519
0.236408
0.247428
0.255546
0.259865
0.259865
0.255546
0.247429
0.236408
0.22352
0.209747
0.195886
0.18252
0.170028
0.158624
0.148399
0.139371
0.131518
0.124796
0.119154
0.11454
0.11091
0.108222
0.106448
0.105567
0.0992125
0.100047
0.101736
0.104309
0.107811
0.112303
0.117861
0.12458
0.132569
0.14195
0.152848
0.165373
0.179575
0.195357
0.212392
0.229996
0.247126
0.262337
0.273876
0.280127
0.280127
0.273876
0.262338
0.247127
0.229997
0.212393
0.195358
0.179576
0.165374
0.152849
0.141951
0.13257
0.124581
0.117862
0.112304
0.107812
0.10431
0.101737
0.100048
0.0992132
0.0911785
0.0919383
0.0934864
0.0958607
0.0991189
0.103343
0.10864
0.115153
0.123057
0.13257
0.143954
0.157519
0.173585
0.192327
0.213626
0.236889
0.260436
0.282705
0.300139
0.309823
0.309823
0.30014
0.282706
0.260437
0.236891
0.213627
0.192329
0.173587
0.15752
0.143955
0.132571
0.123058
0.115154
0.108641
0.103343
0.0991197
0.0958614
0.0934871
0.091939
0.0911792
0.0815362
0.0821847
0.0835174
0.085577
0.0884289
0.0921687
0.0969287
0.102888
0.110284
0.119429
0.130735
0.144756
0.162269
0.184201
0.210676
0.241759
0.262223
0.294469
0.321254
0.338921
0.342953
0.332221
0.309631
0.28031
0.24176
0.210677
0.184202
0.16227
0.144757
0.130736
0.11943
0.110284
0.102889
0.0969295
0.0921694
0.0884296
0.0855777
0.083518
0.0821853
0.0815369
0.070416
0.0709105
0.07194
0.0735454
0.0757896
0.0787675
0.0826157
0.0875256
0.0937629
0.101694
0.111842
0.125007
0.142296
0.163986
0.192674
0.22767
0.271877
0.319441
0.365295
0.39741
0.404571
0.383867
0.343303
0.295107
0.250217
0.210551
0.179051
0.142297
0.125009
0.111843
0.101694
0.0937637
0.0875264
0.0826164
0.0787682
0.0757902
0.073546
0.0719406
0.0709111
0.0704167
0.0580341
0.0583311
0.0589665
0.0599701
0.0613881
0.063293
0.0657934
0.0690481
0.0732864
0.0788325
0.0861587
0.0960593
0.109901
0.134648
0.163493
0.204233
0.254925
0.323573
0.400411
0.464392
0.486302
0.453679
0.384705
0.308419
0.242682
0.181959
0.148304
0.109902
0.0960605
0.0861597
0.0788334
0.0732872
0.0690488
0.0657941
0.0632937
0.0613887
0.0599707
0.0589671
0.0583317
0.0580346
0.0447019
0.0447651
0.044928
0.0452003
0.0455952
0.0461383
0.0468717
0.0478623
0.0492165
0.0510896
0.0536894
0.0573416
0.0627641
0.0854204
0.105136
0.141954
0.196974
0.289273
0.418576
0.559067
0.619641
0.543663
0.400628
0.276047
0.182732
0.11916
0.0944319
0.0627653
0.0573425
0.0536902
0.0510904
0.0492172
0.0478629
0.0468722
0.0461389
0.0455957
0.0452008
0.0449286
0.0447656
0.0447024
0.030823
0.0306315
0.0302752
0.0297358
0.0289819
0.0279721
0.0266502
0.0249407
0.0227451
0.0199308
0.0162642
0.0112279
0.00392671
0.0171324
0.0132404
0.0293031
0.0555435
0.115807
0.288487
0.617905
0.847351
0.594192
0.281417
0.104585
0.0393753
0.0114462
0.0152155
0.00392739
0.0112285
0.0162648
0.0199313
0.0227456
0.0249412
0.0266507
0.0279725
0.0289823
0.0297363
0.0302757
0.030632
0.0308234
0.0168717
0.0164281
0.0155537
0.0142005
0.0122892
0.00970624
0.0062886
0.00180304
-0.00408062
-0.0118271
-0.0221497
-0.0363767
-0.0569476
-0.0591668
-0.0948435
-0.118656
-0.164661
-0.218674
-0.213507
-0.217626
-0.234222
-0.170733
-0.118813
-0.0755224
-0.0569477
-0.0363766
-0.0221495
-0.0118269
-0.00408034
0.00180335
0.00628893
0.00970658
0.0122896
0.0142009
0.0155541
0.0164285
0.0168721
0.00335305
0.00268586
0.00134953
-0.000728492
-0.00366646
-0.00763608
-0.0128838
-0.0197614
-0.028768
-0.0406048
-0.0562962
-0.0775194
-0.106938
-0.123187
-0.179341
-0.231667
-0.321336
-0.455939
-0.659007
-0.652684
-0.444085
-0.312357
-0.214811
-0.149268
-0.106939
-0.0775199
-0.0562964
-0.0406048
-0.0287679
-0.0197613
-0.0128836
-0.00763585
-0.00366621
-0.00072822
0.00134982
0.00268615
0.00335334
-0.00925226
-0.0100916
-0.0117849
-0.0144182
-0.0181297
-0.0231187
-0.0296671
-0.0381679
-0.0491635
-0.0633967
-0.0819048
-0.10619
-0.138069
-0.161305
-0.217389
-0.270768
-0.344144
-0.424943
-0.486071
-0.483336
-0.415857
-0.331909
-0.249405
-0.188129
-0.13807
-0.106191
-0.0819053
-0.0633969
-0.0491635
-0.0381679
-0.0296671
-0.0231186
-0.0181295
-0.014418
-0.0117847
-0.0100914
-0.00925203
-0.020543
-0.0214898
-0.0234068
-0.0263807
-0.0305482
-0.0361041
-0.0433165
-0.0525471
-0.0642743
-0.0791233
-0.0979122
-0.121675
-0.151255
-0.175227
-0.220575
-0.262519
-0.309551
-0.348917
-0.369695
-0.370252
-0.366977
-0.371168
-0.368183
-0.345063
-0.300268
-0.243954
-0.197639
-0.151256
-0.121676
-0.0979127
-0.0791236
-0.0642745
-0.0525471
-0.0433165
-0.036104
-0.0305481
-0.0263806
-0.0234067
-0.0214897
-0.0205428
-0.0302378
-0.0312263
-0.0332308
-0.0363284
-0.0406381
-0.046326
-0.0536138
-0.0627879
-0.0742064
-0.0883068
-0.105605
-0.126572
-0.151148
-0.173651
-0.206955
-0.237902
-0.267023
-0.286914
-0.298622
-0.302932
-0.303482
-0.302384
-0.29647
-0.282623
-0.260823
-0.222643
-0.190978
-0.151149
-0.126573
-0.105605
-0.0883071
-0.0742066
-0.062788
-0.0536139
-0.046326
-0.0406381
-0.0363283
-0.0332307
-0.0312262
-0.0302377
-0.03819
-0.0391627
-0.0411366
-0.0441733
-0.0483657
-0.0538408
-0.060763
-0.0693345
-0.0797917
-0.0923909
-0.107391
-0.125055
-0.145596
-0.167991
-0.18534
-0.207384
-0.226581
-0.239313
-0.246647
-0.249985
-0.250721
-0.249447
-0.245241
-0.236697
-0.216505
-0.196828
-0.167991
-0.145596
-0.125055
-0.107391
-0.0923912
-0.0797919
-0.0693347
-0.0607631
-0.0538409
-0.0483656
-0.0441732
-0.0411366
-0.0391627
-0.0381899
-0.0443766
-0.0452902
-0.0471442
-0.049983
-0.0538724
-0.0588995
-0.0651724
-0.0728159
-0.0819618
-0.0927255
-0.105167
-0.119241
-0.134648
-0.150278
-0.165635
-0.179587
-0.192695
-0.200411
-0.204897
-0.207043
-0.207558
-0.206682
-0.204028
-0.198814
-0.185185
-0.173143
-0.150278
-0.134648
-0.119241
-0.105167
-0.0927256
-0.0819619
-0.072816
-0.0651725
-0.0588996
-0.0538724
-0.049983
-0.0471441
-0.0452902
-0.0443766
-0.0488733
-0.049699
-0.0513742
-0.0539275
-0.0573996
-0.0618427
-0.0673166
-0.073883
-0.0815928
-0.0904628
-0.100432
-0.111293
-0.122626
-0.133737
-0.145946
-0.154992
-0.164061
-0.168646
-0.171318
-0.1726
-0.172912
-0.172382
-0.170802
-0.167685
-0.158468
-0.150933
-0.133737
-0.122626
-0.111293
-0.100432
-0.090463
-0.0815929
-0.0738831
-0.0673167
-0.0618427
-0.0573997
-0.0539275
-0.0513742
-0.049699
-0.0488733
-0.0518237
-0.0525462
-0.0540113
-0.0562343
-0.0592359
-0.0630405
-0.0676719
-0.0731463
-0.0794607
-0.0865754
-0.0943806
-0.102633
-0.110881
-0.118598
-0.128011
-0.13386
-0.140169
-0.142773
-0.144269
-0.14496
-0.145126
-0.144844
-0.143986
-0.142218
-0.135974
-0.131302
-0.118598
-0.110881
-0.102633
-0.0943806
-0.0865755
-0.0794608
-0.0731463
-0.067672
-0.0630405
-0.0592359
-0.0562343
-0.0540113
-0.0525462
-0.0518237
-0.0534119
-0.0540264
-0.055272
-0.0571539
-0.0596778
-0.0628484
-0.0666646
-0.0711129
-0.0761565
-0.0817219
-0.0876818
-0.0938093
-0.0996115
-0.10412
-0.112286
-0.116066
-0.119674
-0.121374
-0.122133
-0.122524
-0.12273
-0.122766
-0.122505
-0.121677
-0.115957
-0.11489
-0.10412
-0.0996114
-0.0938093
-0.0876818
-0.0817219
-0.0761565
-0.0711129
-0.0666646
-0.0628484
-0.0596778
-0.0571539
-0.055272
-0.0540265
-0.0534119
-0.0538385
-0.0543482
-0.0553805
-0.0569341
-0.0590045
-0.0615833
-0.0646541
-0.0681859
-0.0721249
-0.0763815
-0.0808174
-0.0852294
-0.0893227
-0.0927662
-0.0954682
-0.100868
-0.101683
-0.102077
-0.102174
-0.102215
-0.102294
-0.102399
-0.102431
-0.102208
-0.101511
-0.0954679
-0.092766
-0.0893225
-0.0852294
-0.0808174
-0.0763814
-0.0721249
-0.0681859
-0.0646541
-0.0615834
-0.0590045
-0.0569341
-0.0553806
-0.0543482
-0.0538385
-0.0533038
-0.0537167
-0.0545525
-0.0558055
-0.0574654
-0.0595164
-0.0619339
-0.0646794
-0.0676941
-0.0708888
-0.0741355
-0.0772603
-0.0800418
-0.0822407
-0.0838083
-0.0848289
-0.0847737
-0.0842928
-0.08382
-0.0835442
-0.0835442
-0.0838198
-0.0842925
-0.0847734
-0.0848286
-0.083808
-0.0822405
-0.0800416
-0.0772602
-0.0741354
-0.0708888
-0.067694
-0.0646794
-0.0619339
-0.0595164
-0.0574654
-0.0558055
-0.0545525
-0.0537167
-0.0533038
-0.0519959
-0.0523228
-0.0529842
-0.0539723
-0.055274
-0.0568702
-0.0587336
-0.0608244
-0.0630858
-0.065437
-0.0677663
-0.0699287
-0.0717522
-0.073075
-0.073855
-0.0740429
-0.0737512
-0.0733137
-0.0729343
-0.0727218
-0.0727218
-0.0729341
-0.0733135
-0.0737509
-0.0740426
-0.0738548
-0.0730748
-0.071752
-0.0699286
-0.0677663
-0.065437
-0.0630858
-0.0608244
-0.0587336
-0.0568702
-0.055274
-0.0539723
-0.0529842
-0.0523228
-0.0519959
-0.0500841
-0.0503368
-0.0508481
-0.0516095
-0.0526071
-0.0538218
-0.0552266
-0.0567842
-0.0584434
-0.0601338
-0.0617615
-0.0632089
-0.0643442
-0.0650535
-0.0653005
-0.0650952
-0.0645892
-0.0639936
-0.0634875
-0.0632008
-0.0632007
-0.0634874
-0.0639934
-0.0645889
-0.0650949
-0.0653003
-0.0650533
-0.064344
-0.0632088
-0.0617615
-0.0601338
-0.0584434
-0.0567843
-0.0552266
-0.0538218
-0.0526071
-0.0516095
-0.0508481
-0.0503368
-0.0500842
-0.047716
-0.0479061
-0.0482912
-0.048863
-0.0496084
-0.0505096
-0.0515422
-0.0526734
-0.0538587
-0.0550388
-0.056136
-0.0570551
-0.0576935
-0.0579668
-0.0578493
-0.0573761
-0.0566712
-0.0559164
-0.0552937
-0.0549446
-0.0549446
-0.0552936
-0.0559162
-0.056671
-0.0573759
-0.0578491
-0.0579667
-0.0576934
-0.0570551
-0.056136
-0.0550389
-0.0538588
-0.0526734
-0.0515423
-0.0505097
-0.0496085
-0.048863
-0.0482912
-0.0479062
-0.047716
-0.0450167
-0.0451552
-0.0454362
-0.0458526
-0.0463926
-0.0470408
-0.0477763
-0.0485714
-0.0493891
-0.0501802
-0.0508805
-0.0514123
-0.0516929
-0.051656
-0.0512826
-0.0506141
-0.0497655
-0.0489058
-0.0482118
-0.0478257
-0.0478257
-0.0482117
-0.0489057
-0.0497654
-0.050614
-0.0512825
-0.0516559
-0.0516928
-0.0514123
-0.0508806
-0.0501802
-0.0493892
-0.0485715
-0.0477764
-0.0470408
-0.0463926
-0.0458526
-0.0454363
-0.0451552
-0.0450168
-0.0420908
-0.0421873
-0.042384
-0.0426749
-0.0430503
-0.0434972
-0.0439989
-0.0445326
-0.0450685
-0.0455661
-0.0459727
-0.0462233
-0.046249
-0.0459947
-0.0454446
-0.0446405
-0.0436911
-0.0427566
-0.0420099
-0.0415958
-0.0415958
-0.0420099
-0.0427565
-0.0436911
-0.0446404
-0.0454446
-0.0459947
-0.046249
-0.0462233
-0.0459727
-0.0455662
-0.0450686
-0.0445327
-0.0439989
-0.0434973
-0.0430503
-0.042675
-0.0423841
-0.0421873
-0.0420909
-0.0390241
-0.0390869
-0.0392163
-0.0394074
-0.0396524
-0.0399412
-0.0402608
-0.0405935
-0.0409154
-0.0411938
-0.0413846
-0.0414328
-0.0412785
-0.040873
-0.0402013
-0.0393021
-0.0382782
-0.0372842
-0.0364933
-0.0360548
-0.0360548
-0.0364933
-0.0372842
-0.0382782
-0.0393021
-0.0402013
-0.0408731
-0.0412786
-0.0414329
-0.0413847
-0.0411939
-0.0409155
-0.0405936
-0.0402609
-0.0399413
-0.0396525
-0.0394075
-0.0392164
-0.039087
-0.0390241
-0.0358861
-0.0359224
-0.0359988
-0.0361113
-0.0362542
-0.03642
-0.0365992
-0.0367785
-0.0369393
-0.037055
-0.0370884
-0.0369912
-0.0367096
-0.0361982
-0.0354409
-0.0344727
-0.0333914
-0.0323489
-0.0315206
-0.0310611
-0.0310611
-0.0315206
-0.032349
-0.0333915
-0.0344728
-0.035441
-0.0361983
-0.0367098
-0.0369914
-0.0370885
-0.0370551
-0.0369394
-0.0367786
-0.0365993
-0.0364201
-0.0362542
-0.0361114
-0.0359989
-0.0359225
-0.0358862
-0.0327331
-0.0327489
-0.0327839
-0.0328351
-0.0328986
-0.0329696
-0.0330413
-0.0331044
-0.0331447
-0.0331402
-0.0330588
-0.0328568
-0.0324842
-0.0318966
-0.0310768
-0.0300561
-0.0289289
-0.0278462
-0.0269862
-0.0265088
-0.0265089
-0.0269862
-0.0278463
-0.0289291
-0.0300563
-0.031077
-0.0318968
-0.0324844
-0.032857
-0.033059
-0.0331404
-0.0331448
-0.0331046
-0.0330414
-0.0329697
-0.0328987
-0.0328352
-0.032784
-0.032749
-0.0327332
-0.0296103
-0.0296104
-0.0296134
-0.0296172
-0.0296195
-0.0296178
-0.0296079
-0.0295836
-0.0295339
-0.0294407
-0.029275
-0.0289964
-0.0285565
-0.0279118
-0.0270433
-0.0259803
-0.024815
-0.0236983
-0.0228118
-0.0223195
-0.0223196
-0.0228119
-0.0236985
-0.0248151
-0.0259805
-0.0270436
-0.027912
-0.0285567
-0.0289966
-0.0292752
-0.0294409
-0.0295341
-0.0295837
-0.029608
-0.0296179
-0.0296196
-0.0296172
-0.0296135
-0.0296105
-0.0296104
-0.0265542
-0.0265425
-0.0265209
-0.0264882
-0.0264438
-0.0263867
-0.0263153
-0.0262254
-0.0261087
-0.0259494
-0.0257208
-0.0253841
-0.024892
-0.0242012
-0.0232923
-0.0221932
-0.0209954
-0.0198507
-0.0189427
-0.0184386
-0.0184387
-0.0189428
-0.0198509
-0.0209956
-0.0221934
-0.0232925
-0.0242015
-0.0248923
-0.0253843
-0.025721
-0.0259496
-0.0261089
-0.0262255
-0.0263154
-0.0263868
-0.0264439
-0.0264883
-0.026521
-0.0265426
-0.0265543
-0.0235947
-0.023574
-0.0235337
-0.0234733
-0.0233935
-0.0232947
-0.0231771
-0.0230382
-0.0228713
-0.022662
-0.0223848
-0.0220016
-0.0214662
-0.0207356
-0.0197909
-0.0186603
-0.0174355
-0.0162689
-0.0153451
-0.0148327
-0.0148327
-0.0153452
-0.0162691
-0.0174357
-0.0186605
-0.0197912
-0.0207359
-0.0214665
-0.0220019
-0.022385
-0.0226622
-0.0228715
-0.0230383
-0.0231772
-0.0232948
-0.0233935
-0.0234734
-0.0235338
-0.0235741
-0.0235947
-0.0207563
-0.020729
-0.0206746
-0.0205934
-0.0204871
-0.0203575
-0.0202055
-0.02003
-0.0198251
-0.019577
-0.0192604
-0.018838
-0.0182643
-0.0174976
-0.0165208
-0.0153633
-0.0141177
-0.0129363
-0.0120032
-0.0114865
-0.0114865
-0.0120034
-0.0129365
-0.0141179
-0.0153635
-0.016521
-0.0174979
-0.0182645
-0.0188382
-0.0192606
-0.0195771
-0.0198253
-0.0200301
-0.0202056
-0.0203576
-0.0204872
-0.0205935
-0.0206746
-0.020729
-0.0207564
-0.0180601
-0.0180277
-0.0179629
-0.0178667
-0.0177413
-0.0175892
-0.0174122
-0.0172095
-0.0169755
-0.0166962
-0.0163465
-0.0158895
-0.015281
-0.0144817
-0.0134767
-0.0122982
-0.0110393
-0.00985153
-0.0089166
-0.00839977
-0.00839981
-0.00891671
-0.0098517
-0.0110395
-0.0122984
-0.013477
-0.0144819
-0.0152812
-0.0158898
-0.0163467
-0.0166964
-0.0169756
-0.0172096
-0.0174123
-0.0175893
-0.0177413
-0.0178667
-0.0179629
-0.0180277
-0.0180602
-0.0155242
-0.0154879
-0.0154158
-0.0153092
-0.0151708
-0.0150034
-0.0148089
-0.0145864
-0.01433
-0.0140255
-0.0136474
-0.0131598
-0.0125201
-0.0116923
-0.010665
-0.00947292
-0.00820992
-0.00702522
-0.00609638
-0.00558408
-0.00558412
-0.00609649
-0.00702538
-0.00821012
-0.00947314
-0.0106652
-0.0116925
-0.0125203
-0.0131599
-0.0136476
-0.0140256
-0.0143302
-0.0145865
-0.014809
-0.0150035
-0.0151709
-0.0153093
-0.0154158
-0.0154879
-0.0155242
-0.0131646
-0.0131254
-0.0130487
-0.012936
-0.0127899
-0.0126132
-0.0124075
-0.0121715
-0.0118987
-0.011574
-0.0111723
-0.0106585
-0.00999266
-0.00914243
-0.00810058
-0.00690443
-0.00564781
-0.00447649
-0.00356208
-0.00305898
-0.00305901
-0.00356217
-0.00447664
-0.00564799
-0.00690463
-0.00810079
-0.00914263
-0.00999284
-0.0106586
-0.0111725
-0.0115741
-0.0118987
-0.0121716
-0.0124076
-0.0126133
-0.01279
-0.012936
-0.0130488
-0.0131255
-0.0131646
-0.0109955
-0.0109547
-0.0108758
-0.0107607
-0.0106117
-0.0104312
-0.0102201
-0.00997653
-0.00969286
-0.00935368
-0.00893395
-0.00839996
-0.00771496
-0.00685067
-0.00580408
-0.00461496
-0.00337628
-0.00222908
-0.00133745
-0.000848162
-0.00084819
-0.00133753
-0.0022292
-0.00337644
-0.00461513
-0.00580425
-0.00685084
-0.00771511
-0.0084001
-0.00893406
-0.00935377
-0.00969293
-0.00997659
-0.0102202
-0.0104312
-0.0106118
-0.0107607
-0.0108758
-0.0109547
-0.0109955
-0.00902981
-0.00898829
-0.00890972
-0.00879578
-0.00864836
-0.00846916
-0.00825843
-0.00801315
-0.00772488
-0.00737767
-0.00694691
-0.0064007
-0.00570561
-0.00483769
-0.00379799
-0.00262824
-0.00141963
-0.000307294
0.000553425
0.00102453
0.0010245
0.000553357
-0.000307399
-0.00141976
-0.00262838
-0.00379814
-0.00483782
-0.00570573
-0.00640081
-0.006947
-0.00737774
-0.00772493
-0.00801319
-0.00825846
-0.00846918
-0.00864836
-0.00879578
-0.00890972
-0.00898829
-0.0090298
-0.00727814
-0.00723715
-0.00716117
-0.00705178
-0.00691023
-0.00673747
-0.00653278
-0.00629212
-0.00600615
-0.00565855
-0.00522532
-0.0046766
-0.00398239
-0.00312298
-0.00210307
-0.000965665
0.000200687
0.00126778
0.00209001
0.00253892
0.0025389
0.00208996
0.0012677
0.00020058
-0.000965781
-0.00210319
-0.00312309
-0.00398249
-0.00467669
-0.00522539
-0.0056586
-0.00600619
-0.00629215
-0.0065328
-0.00673747
-0.00691022
-0.00705177
-0.00716115
-0.00723713
-0.00727812
-0.00574874
-0.00570949
-0.00563838
-0.00553678
-0.00540527
-0.00524396
-0.00505117
-0.0048218
-0.00454571
-0.00420635
-0.0037805
-0.0032404
-0.00255938
-0.00172165
-0.000735001
0.000357074
0.00146951
0.00248182
0.00325881
0.00368202
0.00368201
0.00325876
0.00248175
0.00146942
0.000356981
-0.000735093
-0.00172174
-0.00255946
-0.00324046
-0.00378055
-0.00420638
-0.00454574
-0.00482181
-0.00505117
-0.00524396
-0.00540526
-0.00553676
-0.00563835
-0.00570946
-0.00574871
-0.00444652
-0.00441024
-0.00434616
-0.00425543
-0.00413795
-0.00399299
-0.00381793
-0.00360673
-0.00334853
-0.00302667
-0.00261881
-0.0020992
-0.00144429
-0.000641665
0.000298488
0.00133296
0.00238092
0.00333019
0.0040563
0.00445098
0.00445096
0.00405626
0.00333013
0.00238085
0.00133289
0.000298415
-0.000641732
-0.00144434
-0.00209925
-0.00261884
-0.0030267
-0.00334854
-0.00360673
-0.00381792
-0.00399298
-0.00413792
-0.0042554
-0.00434613
-0.00441021
-0.00444648
-0.00337225
-0.00334012
-0.00328509
-0.00320805
-0.00310828
-0.0029843
-0.00283261
-0.00264631
-0.002414
-0.00211898
-0.00173976
-0.0012525
-0.000636304
0.000118421
0.000999887
0.00196594
0.00294058
0.00382023
0.00449123
0.00485531
0.0048553
0.0044912
0.00382019
0.00294052
0.00196588
0.000999829
0.000118368
-0.000636349
-0.00125253
-0.00173979
-0.00211899
-0.002414
-0.00264631
-0.00283259
-0.00298428
-0.00310826
-0.00320802
-0.00328505
-0.00334008
-0.00337221
-0.00252187
-0.00249495
-0.00245074
-0.00238987
-0.00231107
-0.00221218
-0.00208894
-0.00193376
-0.00173475
-0.00147528
-0.00113465
-0.000690629
-0.000124575
0.000571006
0.00138347
0.00227241
0.0031671
0.00397263
0.00458586
0.00491816
0.00491815
0.00458583
0.00397259
0.00316705
0.00227236
0.00138342
0.000570961
-0.000124612
-0.000690657
-0.00113466
-0.00147529
-0.00173475
-0.00193375
-0.00208892
-0.00221215
-0.00231104
-0.00238983
-0.00245071
-0.00249492
-0.00252183
-0.00188602
-0.00186525
-0.0018333
-0.00179056
-0.00173533
-0.00166487
-0.00157428
-0.00145538
-0.00129594
-0.00107938
-0.000785709
-0.000394038
0.000112559
0.000740122
0.00147587
0.00228168
0.00309236
0.00382149
0.00437596
0.00467619
0.00467618
0.00437593
0.00382146
0.00309232
0.00228164
0.00147582
0.000740082
0.000112525
-0.000394065
-0.000785726
-0.00107939
-0.00129594
-0.00145538
-0.00157426
-0.00166485
-0.0017353
-0.00179053
-0.00183326
-0.00186521
-0.00188598
-0.00145001
-0.0014361
-0.00141743
-0.00139417
-0.00136426
-0.0013245
-0.00126948
-0.00119054
-0.00107516
-0.000906874
-0.00066624
-0.000333428
0.000107237
0.000660933
0.00131532
0.002035
0.00276031
0.00341301
0.00390933
0.00417802
0.00417802
0.00390931
0.00341298
0.00276027
0.00203496
0.00131528
0.000660893
0.000107202
-0.000333455
-0.00066626
-0.000906885
-0.00107516
-0.00119053
-0.00126947
-0.00132449
-0.00136424
-0.00139414
-0.0014174
-0.00143607
-0.00144997
-0.00119416
-0.00118757
-0.00118269
-0.00117948
-0.00117562
-0.00116755
-0.00114942
-0.00111221
-0.0010432
-0.000925992
-0.00074162
-0.000471047
-9.9468e-05
0.000377905
0.000949603
0.00158316
0.00222437
0.00280265
0.00324282
0.00348122
0.00348122
0.0032428
0.00280262
0.00222434
0.00158312
0.000949559
0.000377863
-9.95059e-05
-0.000471079
-0.000741645
-0.000926008
-0.0010432
-0.00111221
-0.00114941
-0.00116754
-0.0011756
-0.00117945
-0.00118267
-0.00118754
-0.00119414
-0.00109465
-0.00109552
-0.00110437
-0.00112092
-0.0011427
-0.00116584
-0.00118415
-0.00118833
-0.0011655
-0.00109938
-0.000971371
-0.000763068
-0.000460267
-5.82599e-05
0.000432605
0.000982857
0.0015435
0.00205105
0.00243819
0.00264807
0.00264807
0.00243817
0.00205102
0.00154346
0.000982813
0.000432559
-5.83051e-05
-0.000460309
-0.000763105
-0.000971401
-0.0010994
-0.00116552
-0.00118834
-0.00118415
-0.00116583
-0.00114269
-0.0011209
-0.00110435
-0.0010955
-0.00109463
-0.00112467
-0.00113283
-0.00115472
-0.00118988
-0.00123572
-0.00128813
-0.00134063
-0.00138371
-0.00140442
-0.00138658
-0.00131199
-0.00116278
-0.00092523
-0.000594552
-0.000179897
0.000292179
0.000777574
0.00121934
0.0015573
0.00174081
0.0017408
0.00155728
0.00121931
0.000777535
0.000292134
-0.000179945
-0.0005946
-0.000925275
-0.00116282
-0.00131202
-0.00138661
-0.00140444
-0.00138373
-0.00134064
-0.00128813
-0.00123572
-0.00118987
-0.00115471
-0.00113282
-0.00112465
-0.00125589
-0.00127084
-0.00130454
-0.00135634
-0.00142358
-0.00150195
-0.00158475
-0.00166232
-0.00172168
-0.00174688
-0.00172014
-0.00162416
-0.00144568
-0.00117984
-0.000834652
-0.000433939
-1.7265e-05
0.000364433
0.000657523
0.000816957
0.000816951
0.000657505
0.000364405
-1.73024e-05
-0.000433983
-0.000834699
-0.00117989
-0.00144572
-0.00162421
-0.00172018
-0.00174692
-0.00172171
-0.00166234
-0.00158477
-0.00150195
-0.00142359
-0.00135634
-0.00130454
-0.00127083
-0.00125589
-0.00146006
-0.00148098
-0.00152477
-0.00159056
-0.00167566
-0.00177559
-0.00188349
-0.0019896
-0.00208105
-0.0021422
-0.00215579
-0.00210521
-0.00197775
-0.00176862
-0.00148481
-0.00114765
-0.000792526
-0.000464823
-0.000212168
-7.44487e-05
-7.44542e-05
-0.000212184
-0.000464849
-0.000792561
-0.00114769
-0.00148486
-0.00176866
-0.0019778
-0.00210525
-0.00215583
-0.00214223
-0.00208108
-0.00198963
-0.00188351
-0.0017756
-0.00167567
-0.00159057
-0.00152477
-0.00148099
-0.00146006
-0.00171042
-0.00173627
-0.00178805
-0.00186471
-0.00196353
-0.00207988
-0.00220682
-0.00233457
-0.00245049
-0.00253936
-0.00258465
-0.00257058
-0.00248516
-0.00232381
-0.00209271
-0.00181095
-0.00151005
-0.00123027
-0.00101368
-0.000895372
-0.000895376
-0.00101369
-0.0012303
-0.00151008
-0.00181099
-0.00209275
-0.00232385
-0.0024852
-0.00257062
-0.00258469
-0.0025394
-0.00245052
-0.0023346
-0.00220684
-0.0020799
-0.00196354
-0.00186472
-0.00178806
-0.00173628
-0.00171042
-0.00198296
-0.00201255
-0.00207003
-0.0021542
-0.0022623
-0.00238964
-0.00252919
-0.00267133
-0.00280373
-0.0029118
-0.00297988
-0.00299322
-0.00294073
-0.00281823
-0.00263128
-0.00239693
-0.00214318
-0.00190551
-0.0017208
-0.00161973
-0.00161973
-0.00172081
-0.00190553
-0.0021432
-0.00239696
-0.00263131
-0.00281827
-0.00294077
-0.00299326
-0.00297992
-0.00291184
-0.00280376
-0.00267136
-0.00252922
-0.00238966
-0.00226232
-0.00215421
-0.00207004
-0.00201256
-0.00198297
-0.00225734
-0.0022894
-0.00235026
-0.00243857
-0.00255158
-0.00268452
-0.00283045
-0.00297993
-0.00312112
-0.00324023
-0.00332265
-0.00335484
-0.00332677
-0.00323479
-0.00308401
-0.00288967
-0.00267649
-0.00247551
-0.00231881
-0.00223293
-0.00223294
-0.00231882
-0.00247553
-0.00267651
-0.0028897
-0.00308403
-0.00323482
-0.0033268
-0.00335487
-0.00332269
-0.00324026
-0.00312115
-0.00297995
-0.00283047
-0.00268455
-0.0025516
-0.00243859
-0.00235028
-0.00228942
-0.00225735
-0.00251736
-0.00255066
-0.00261269
-0.002702
-0.00281584
-0.00294947
-0.00309605
-0.00324651
-0.00338964
-0.00351256
-0.0036019
-0.00364543
-0.00363432
-0.00356555
-0.00344391
-0.00328298
-0.00310443
-0.00293522
-0.00280296
-0.00273041
-0.00273041
-0.00280297
-0.00293523
-0.00310444
-0.00328299
-0.00344393
-0.00356558
-0.00363435
-0.00364545
-0.00360193
-0.00351259
-0.00338966
-0.00324654
-0.00309607
-0.00294949
-0.00281586
-0.00270202
-0.00261271
-0.00255068
-0.00251738
-0.00275108
-0.00278448
-0.00284572
-0.00293327
-0.00304441
-0.00317449
-0.00331689
-0.003463
-0.00360234
-0.00372313
-0.0038133
-0.00386204
-0.00386176
-0.00381013
-0.00371165
-0.00357841
-0.00342926
-0.0032874
-0.00317636
-0.00311541
-0.00311541
-0.00317636
-0.0032874
-0.00342927
-0.00357841
-0.00371166
-0.00381014
-0.00386178
-0.00386206
-0.00381332
-0.00372316
-0.00360237
-0.00346302
-0.00331691
-0.00317451
-0.00304443
-0.00293328
-0.00284574
-0.0027845
-0.00275109
-0.00295058
-0.00298311
-0.00304192
-0.00312544
-0.00323103
-0.00335418
-0.00348858
-0.00362619
-0.00375739
-0.00387152
-0.00395791
-0.00400719
-0.004013
-0.00397367
-0.00389347
-0.00378308
-0.0036588
-0.00354035
-0.0034476
-0.00339669
-0.00339669
-0.0034476
-0.00354035
-0.0036588
-0.00378308
-0.00389347
-0.00397367
-0.00401301
-0.0040072
-0.00395792
-0.00387154
-0.0037574
-0.00362621
-0.0034886
-0.00335419
-0.00323104
-0.00312545
-0.00304193
-0.00298312
-0.00295059
-0.0031115
-0.00314237
-0.00319749
-0.00327527
-0.00337319
-0.00348695
-0.00361062
-0.00373682
-0.00385682
-0.00396119
-0.00404062
-0.00408715
-0.0040956
-0.0040649
-0.00399909
-0.00390754
-0.0038042
-0.00370571
-0.00362863
-0.00358635
-0.00358635
-0.00362863
-0.0037057
-0.0038042
-0.00390754
-0.00399909
-0.0040649
-0.00409561
-0.00408716
-0.00404063
-0.0039612
-0.00385683
-0.00373683
-0.00361064
-0.00348696
-0.0033732
-0.00327528
-0.0031975
-0.00314238
-0.00311151
-0.00323247
-0.0032611
-0.00331162
-0.00338251
-0.00347135
-0.00357412
-0.00368537
-0.00379837
-0.00390538
-0.00399815
-0.00406871
-0.00411043
-0.00411918
-0.00409444
-0.00403997
-0.00396394
-0.00387819
-0.0037966
-0.00373285
-0.00369792
-0.00369792
-0.00373285
-0.00379659
-0.00387818
-0.00396394
-0.00403996
-0.00409444
-0.00411918
-0.00411043
-0.00406871
-0.00399816
-0.00390539
-0.00379838
-0.00368538
-0.00357413
-0.00347136
-0.00338252
-0.00331163
-0.0032611
-0.00323247
-0.00331436
-0.00334036
-0.00338577
-0.0034491
-0.00352812
-0.00361911
-0.00371712
-0.00381615
-0.00390941
-0.00398981
-0.00405062
-0.00408643
-0.00409406
-0.00407339
-0.00402791
-0.00396467
-0.00389364
-0.00382628
-0.00377379
-0.00374508
-0.00374508
-0.00377379
-0.00382627
-0.00389363
-0.00396466
-0.0040279
-0.00407338
-0.00409405
-0.00408643
-0.00405062
-0.00398981
-0.00390941
-0.00381615
-0.00371712
-0.00361911
-0.00352812
-0.0034491
-0.00338577
-0.00334037
-0.00331436
-0.0033597
-0.00338288
-0.00342294
-0.0034785
-0.0035475
-0.00362657
-0.00371128
-0.00379636
-0.00387595
-0.00394401
-0.003995
-0.00402455
-0.00403028
-0.0040124
-0.0039741
-0.00392142
-0.00386265
-0.0038072
-0.00376414
-0.00374064
-0.00374064
-0.00376414
-0.00380719
-0.00386264
-0.00392141
-0.00397409
-0.00401239
-0.00403027
-0.00402454
-0.00399499
-0.00394401
-0.00387594
-0.00379636
-0.00371128
-0.00362657
-0.0035475
-0.0034785
-0.00342294
-0.00338288
-0.0033597
-0.00337209
-0.00339239
-0.00342714
-0.00347505
-0.00353428
-0.00360181
-0.00367373
-0.00374547
-0.00381205
-0.00386842
-0.00391005
-0.0039335
-0.00393703
-0.00392111
-0.00388859
-0.0038446
-0.00379601
-0.00375045
-0.00371523
-0.00369605
-0.00369605
-0.00371523
-0.00375044
-0.003796
-0.00384459
-0.00388857
-0.00392109
-0.00393702
-0.00393349
-0.00391004
-0.00386842
-0.00381204
-0.00374547
-0.00367372
-0.0036018
-0.00353428
-0.00347505
-0.00342713
-0.00339239
-0.00337209
-0.00335567
-0.00337317
-0.00340282
-0.00344349
-0.00349352
-0.00355024
-0.00361028
-0.00366972
-0.00372436
-0.00377005
-0.00380314
-0.00382096
-0.00382231
-0.0038078
-0.00377997
-0.00374314
-0.00370293
-0.00366554
-0.00363677
-0.00362115
-0.00362114
-0.00363676
-0.00366553
-0.00370292
-0.00374312
-0.00377995
-0.00380778
-0.0038223
-0.00382095
-0.00380313
-0.00377004
-0.00372435
-0.00366971
-0.00361027
-0.00355023
-0.00349351
-0.00344348
-0.00340281
-0.00337316
-0.00335566
-0.00331477
-0.00332962
-0.00335456
-0.00338856
-0.00343017
-0.00347708
-0.00352639
-0.00357479
-0.00361879
-0.00365502
-0.00368058
-0.00369343
-0.00369279
-0.00367934
-0.00365533
-0.00362437
-0.00359105
-0.00356033
-0.00353682
-0.0035241
-0.0035241
-0.00353682
-0.00356032
-0.00359104
-0.00362436
-0.00365532
-0.00367933
-0.00369277
-0.00369341
-0.00368056
-0.00365501
-0.00361878
-0.00357477
-0.00352637
-0.00347707
-0.00343016
-0.00338855
-0.00335454
-0.00332961
-0.00331476
-0.00325364
-0.00326606
-0.00328673
-0.00331475
-0.00334886
-0.00338707
-0.00342693
-0.00346567
-0.00350044
-0.0035285
-0.0035476
-0.0035562
-0.00355385
-0.00354125
-0.00352036
-0.00349419
-0.00346647
-0.00344116
-0.00342192
-0.00341154
-0.00341154
-0.00342192
-0.00344115
-0.00346646
-0.00349418
-0.00352035
-0.00354123
-0.00355383
-0.00355619
-0.00354758
-0.00352849
-0.00350042
-0.00346566
-0.00342691
-0.00338706
-0.00334885
-0.00331474
-0.00328671
-0.00326604
-0.00325363
-0.00317622
-0.00318647
-0.00320337
-0.00322615
-0.00325373
-0.0032844
-0.00331612
-0.0033466
-0.00337352
-0.0033947
-0.00340838
-0.00341346
-0.00340969
-0.0033978
-0.00337946
-0.00335718
-0.00333398
-0.00331303
-0.0032972
-0.0032887
-0.0032887
-0.0032972
-0.00331302
-0.00333397
-0.00335717
-0.00337945
-0.00339778
-0.00340968
-0.00341345
-0.00340836
-0.00339468
-0.0033735
-0.00334659
-0.0033161
-0.00328439
-0.00325371
-0.00322614
-0.00320335
-0.00318645