/*--------------------------------*- C++ -*----------------------------------*\
  =========                 |
  \\      /  F ield         | OpenFOAM: The Open Source CFD Toolbox
   \\    /   O peration     | Website:  https://openfoam.org
    \\  /    A nd           | Version:  6
     \\/     M anipulation  |
\*---------------------------------------------------------------------------*/
FoamFile
{
    version     2.0;
    format      ascii;
    class       volScalarField;
    location    "0";
    object      p;
}
// * * * * * * * * * * * * * * * * * * * * * * * * * * * * * * * * * * * * * //

dimensions      [0 2 -2 0 0 0 0];

internalField   nonuniform List<scalar> 
13046
(
0.622094
0.611605
0.692586
0.622668
0.676748
0.637431
0.606043
0.639417
0.688434
0.419905
0.517081
0.701126
0.601123
0.606933
0.693278
0.472312
0.704503
0.508525
0.665496
0.661517
0.619562
0.46407
0.704682
0.512433
0.627219
0.63445
0.678816
0.593324
0.599826
0.700216
0.629759
0.600747
0.688345
0.640114
0.674314
0.632345
0.638713
0.673992
0.641119
0.647852
0.686645
0.572762
0.642357
0.66202
0.650527
0.635385
0.657859
0.658943
0.609968
0.615347
0.6936
0.674407
0.666249
0.532743
0.678157
0.516186
0.674131
0.512464
0.57027
0.704897
0.538612
0.622099
0.697646
0.70254
0.556221
0.484907
0.585909
0.509964
0.701387
0.595907
0.513536
0.700163
0.505572
0.561629
0.704584
0.664968
0.671294
0.60641
0.707726
0.534689
0.510559
0.61918
0.635718
0.680548
0.702077
0.548999
0.470585
0.459367
0.701261
0.58675
0.696962
0.422599
0.60466
0.551258
0.535921
0.583257
0.581638
0.700869
0.704906
0.70164
0.45899
0.596778
0.630553
0.663825
0.654735
0.683255
0.537849
0.671417
0.659096
0.682682
0.547351
0.360505
0.697891
0.48076
0.607066
0.61494
0.687968
0.54289
0.552739
0.559218
0.704236
0.57116
0.702902
0.408727
0.504607
0.701501
0.578779
0.582773
0.703908
0.640309
0.688389
0.575881
0.692996
0.434256
0.617065
0.50899
0.581209
0.702613
0.622642
0.597331
0.689449
0.567931
0.649667
0.686592
0.661888
0.67691
0.543924
0.6793
0.550156
0.671698
0.534903
0.611312
0.697277
0.687148
0.580555
0.659371
0.662227
0.507387
0.65474
0.502335
0.684565
0.68882
0.564762
0.647863
0.680959
0.415056
0.700047
0.529471
0.381319
0.698525
0.488631
0.504404
0.571228
0.705198
0.639683
0.548368
0.694456
0.56869
0.67693
0.654004
0.703633
0.548161
0.416436
0.642784
0.558047
0.688952
0.685927
0.570373
0.661
0.578217
0.649325
0.681996
0.606116
0.699102
0.583578
0.593764
0.698649
0.456158
0.700795
0.565557
0.697765
0.454432
0.610855
0.429854
0.595934
0.694305
0.677671
0.507145
0.661211
0.589128
0.539785
0.708165
0.503987
0.579863
0.423272
0.699457
0.628947
0.674114
0.646728
0.603272
0.597722
0.699186
0.697345
0.446577
0.618457
0.580246
0.614224
0.700119
0.699429
0.513609
0.382487
0.666107
0.50356
0.673645
0.44511
0.602643
0.696589
0.530773
0.652099
0.689408
0.57798
0.578522
0.704238
0.639308
0.456124
0.687338
0.488094
0.651927
0.686412
0.697763
0.519196
0.368209
0.658437
0.689318
0.542937
0.383823
0.697648
0.451578
0.666062
0.620707
0.656748
0.537898
0.541932
0.643123
0.650269
0.691627
0.6872
0.704444
0.520878
0.506325
0.591745
0.580603
0.699845
0.483483
0.640106
0.693016
0.52422
0.571374
0.703409
0.650293
0.642284
0.664283
0.515803
0.647982
0.68983
0.594135
0.5679
0.701497
0.583358
0.577052
0.661149
0.687582
0.534427
0.511557
0.639186
0.691743
0.508285
0.703922
0.571856
0.668781
0.678535
0.558991
0.684787
0.499242
0.661512
0.564836
0.551308
0.701578
0.664012
0.678113
0.532013
0.55317
0.543077
0.547625
0.702835
0.54839
0.706141
0.702464
0.551064
0.429859
0.56349
0.572208
0.704045
0.44155
0.697011
0.332693
0.601483
0.669281
0.657179
0.551356
0.624101
0.69592
0.702256
0.472654
0.572405
0.678203
0.503253
0.673753
0.629872
0.453678
0.691689
0.627825
0.69392
0.548916
0.609408
0.699614
0.627866
0.691649
0.488117
0.703679
0.516158
0.683543
0.49815
0.660896
0.538212
0.607245
0.699703
0.561576
0.647257
0.690316
0.541835
0.669421
0.676155
0.619399
0.623565
0.686937
0.67511
0.502693
0.66635
0.445014
0.578658
0.698104
0.630804
0.455693
0.693796
0.610077
0.695913
0.518619
0.542046
0.552317
0.532866
0.526281
0.702516
0.702638
0.696371
0.449022
0.347606
0.396002
0.698955
0.456955
0.528646
0.640177
0.686306
0.700246
0.450642
0.554286
0.585815
0.576794
0.53411
0.534326
0.703055
0.703246
0.693353
0.575659
0.391534
0.374634
0.698193
0.433603
0.625151
0.658287
0.666092
0.362519
0.460868
0.697652
0.627756
0.555581
0.694608
0.418642
0.555661
0.703084
0.46467
0.694052
0.288678
0.652419
0.682394
0.580914
0.606782
0.660426
0.672704
0.418153
0.702575
0.49615
0.598068
0.659811
0.674889
0.632054
0.65824
0.663575
0.675128
0.488779
0.67571
0.596043
0.674226
0.664702
0.604871
0.660871
0.664175
0.620735
0.517793
0.694204
0.706143
0.705834
0.519488
0.523404
0.44545
0.439043
0.428621
0.577711
0.698101
0.701156
0.606467
0.506599
0.647675
0.686036
0.557011
0.481311
0.652819
0.680912
0.506766
0.69361
0.310778
0.698135
0.419208
0.596255
0.387935
0.700139
0.500429
0.693052
0.451765
0.286298
0.424887
0.693737
0.314179
0.626203
0.505781
0.692975
0.554251
0.69238
0.356116
0.495754
0.586909
0.702484
0.458617
0.702562
0.479749
0.599053
0.689084
0.629544
0.582613
0.695783
0.401454
0.487162
0.678826
0.656421
0.63461
0.48473
0.696292
0.691621
0.390776
0.248269
0.462628
0.696507
0.31464
0.609434
0.686824
0.62942
0.568711
0.393399
0.695012
0.695389
0.37629
0.57266
0.455795
0.701524
0.550839
0.705361
0.521906
0.507992
0.631874
0.505934
0.696701
0.524765
0.566711
0.706457
0.705706
0.4986
0.495057
0.612701
0.605645
0.571198
0.565092
0.697421
0.699505
0.622221
0.567306
0.695741
0.595999
0.521661
0.70525
0.632514
0.469002
0.692752
0.572427
0.424187
0.703203
0.694436
0.469611
0.617585
0.422854
0.694674
0.330257
0.645499
0.637993
0.68806
0.588502
0.688817
0.597377
0.613723
0.615032
0.697458
0.531562
0.700642
0.540056
0.475176
0.693008
0.29202
0.570682
0.405218
0.696144
0.648154
0.684564
0.53632
0.644911
0.466444
0.686977
0.705362
0.521476
0.518882
0.49161
0.345352
0.696803
0.506463
0.350375
0.697066
0.575604
0.544204
0.705665
0.672227
0.672683
0.567351
0.445304
0.701661
0.537393
0.625707
0.492367
0.699036
0.705688
0.555658
0.500786
0.623822
0.698082
0.535524
0.535659
0.658007
0.682401
0.65357
0.685633
0.562832
0.701776
0.540065
0.429683
0.527498
0.5597
0.705039
0.652302
0.682573
0.58915
0.484017
0.705177
0.487041
0.61776
0.587523
0.695077
0.588119
0.648984
0.684464
0.636966
0.495319
0.691924
0.418555
0.701507
0.464078
0.431722
0.70215
0.463652
0.706285
0.546004
0.503144
0.521383
0.665461
0.678405
0.700538
0.449919
0.40089
0.701574
0.580268
0.482124
0.692124
0.442041
0.272224
0.301343
0.406065
0.694328
0.706375
0.506025
0.498834
0.700258
0.528567
0.39969
0.465654
0.475556
0.701696
0.523745
0.702827
0.535634
0.47495
0.591007
0.700756
0.690563
0.65265
0.464889
0.640415
0.681489
0.613219
0.479329
0.605557
0.70012
0.699262
0.482738
0.612352
0.512847
0.705324
0.492642
0.610175
0.522681
0.701852
0.619708
0.551773
0.694288
0.512804
0.61477
0.702159
0.504549
0.615365
0.700707
0.655159
0.675229
0.601764
0.605186
0.553436
0.703025
0.695567
0.591501
0.399
0.34079
0.695775
0.517855
0.324611
0.693784
0.522844
0.637214
0.692303
0.567531
0.486367
0.694626
0.326013
0.517934
0.705454
0.547338
0.695004
0.492437
0.307734
0.624898
0.673684
0.644979
0.574132
0.60569
0.697483
0.66801
0.527825
0.676084
0.692978
0.560044
0.371142
0.626323
0.493062
0.696645
0.703585
0.471332
0.49079
0.558053
0.602345
0.703921
0.643391
0.680754
0.617887
0.551198
0.38237
0.697931
0.705159
0.566061
0.484473
0.409822
0.396946
0.699263
0.698911
0.485072
0.476789
0.551061
0.63913
0.693169
0.630632
0.515711
0.689952
0.597171
0.642145
0.689767
0.532476
0.354673
0.538248
0.696831
0.3507
0.695101
0.533967
0.589961
0.705187
0.382941
0.369057
0.542078
0.534659
0.69825
0.695846
0.517203
0.637543
0.69868
0.57118
0.623942
0.695107
0.44493
0.703938
0.478649
0.559885
0.627653
0.69354
0.590975
0.636247
0.686643
0.415524
0.701379
0.476977
0.562823
0.588448
0.699055
0.666092
0.47806
0.678375
0.62945
0.524177
0.696316
0.626165
0.69063
0.436039
0.692717
0.406073
0.265539
0.555275
0.618863
0.697054
0.451706
0.701597
0.502392
0.690204
0.500916
0.646694
0.333871
0.696618
0.422546
0.675132
0.670046
0.66665
0.574252
0.670595
0.564347
0.598236
0.648322
0.681944
0.659078
0.668157
0.676396
0.579048
0.676701
0.574724
0.564805
0.628167
0.697182
0.569507
0.633472
0.695567
0.693805
0.532325
0.331434
0.629313
0.574105
0.691022
0.398464
0.539714
0.700621
0.510718
0.499917
0.604313
0.597119
0.699665
0.698906
0.624726
0.586485
0.692497
0.59306
0.544078
0.700754
0.53292
0.606725
0.703657
0.647862
0.629035
0.670711
0.491991
0.605451
0.700228
0.641414
0.67978
0.610439
0.527887
0.628837
0.698568
0.589181
0.556404
0.701248
0.646859
0.651473
0.618241
0.678585
0.613746
0.677167
0.65878
0.669944
0.668395
0.601331
0.677123
0.582238
0.611993
0.603488
0.580435
0.58603
0.697696
0.696885
0.704872
0.529414
0.508985
0.674073
0.490954
0.668828
0.706636
0.706064
0.525897
0.536022
0.494726
0.48959
0.660526
0.684046
0.517383
0.647869
0.664934
0.641918
0.490552
0.59612
0.701111
0.641468
0.6882
0.583375
0.581684
0.557033
0.702268
0.533551
0.533125
0.527839
0.706861
0.538106
0.705634
0.520167
0.591288
0.701322
0.34758
0.437664
0.697167
0.685961
0.506568
0.65086
0.637954
0.640137
0.691907
0.510048
0.69524
0.514844
0.476956
0.623412
0.695585
0.600756
0.544192
0.700801
0.655494
0.685155
0.52159
0.636789
0.636642
0.689182
0.696958
0.537414
0.536919
0.634534
0.695243
0.523267
0.520937
0.599396
0.702643
0.649189
0.677391
0.609329
0.431063
0.700679
0.501533
0.652588
0.6885
0.514342
0.582907
0.570046
0.564342
0.56077
0.70036
0.705668
0.702199
0.507206
0.441594
0.443019
0.703631
0.487218
0.429939
0.701242
0.489136
0.519834
0.70611
0.53811
0.606005
0.553137
0.699955
0.624166
0.66155
0.690914
0.627245
0.68221
0.536326
0.671016
0.626637
0.641191
0.67715
0.675632
0.637426
0.629615
0.679218
0.657429
0.639487
0.622988
0.662553
0.660823
0.668623
0.660279
0.659268
0.678105
0.702418
0.694869
0.663321
0.68596
0.639947
0.665826
0.621814
0.644047
0.667869
0.665729
0.656221
0.649477
0.66974
0.690117
0.678421
0.630865
0.651979
0.660533
0.694219
0.652402
0.677518
0.677488
0.658693
0.661111
0.661427
0.637731
0.654945
0.694858
0.657015
0.641054
0.668578
0.643355
0.692449
0.671543
0.665921
0.666369
0.676604
0.654946
0.653475
0.69495
0.631626
0.667509
0.671686
0.664643
0.699674
0.678439
0.672594
0.64634
0.652581
0.652494
0.671259
0.648562
0.653714
0.659674
0.647576
0.674042
0.682625
0.660667
0.664115
0.636526
0.642302
0.659044
0.676721
0.658008
0.622072
0.659448
0.694781
0.642422
0.676086
0.694486
0.655221
0.63291
0.494337
0.651212
0.662983
0.632775
0.643843
0.672395
0.679726
0.68034
0.698279
0.639427
0.614464
0.636259
0.647218
0.652807
0.689675
0.681138
0.664877
0.64322
0.653551
0.653358
0.675438
0.661899
0.623516
0.643238
0.65973
0.65844
0.694791
0.693622
0.672405
0.66546
0.653298
0.642385
0.700284
0.601419
0.670057
0.645864
0.692797
0.638207
0.560671
0.616914
0.682296
0.651603
0.630673
0.649085
0.669051
0.634152
0.676527
0.660722
0.648415
0.680542
0.669674
0.638385
0.685961
0.648039
0.663782
0.637364
0.665098
0.631646
0.687222
0.675254
0.659298
0.672871
0.67693
0.690282
0.659366
0.650927
0.647621
0.675365
0.601761
0.644715
0.637793
0.699335
0.661766
0.68512
0.698802
0.662563
0.70166
0.688503
0.689368
0.636945
0.642759
0.640627
0.690822
0.640361
0.635285
0.59214
0.636113
0.66075
0.665764
0.665551
0.699397
0.674131
0.658321
0.678945
0.665239
0.695337
0.555113
0.677608
0.65427
0.645564
0.692926
0.698069
0.652197
0.661776
0.699347
0.66565
0.615856
0.64956
0.671688
0.688654
0.666712
0.639686
0.666881
0.677215
0.66425
0.660895
0.62264
0.584433
0.646271
0.654036
0.657288
0.644233
0.622399
0.680132
0.659056
0.644141
0.66456
0.643923
0.641453
0.668884
0.668737
0.637878
0.635994
0.611966
0.669304
0.656764
0.648038
0.664715
0.669421
0.641875
0.664275
0.65858
0.635983
0.653007
0.685037
0.661535
0.690585
0.689596
0.695294
0.635973
0.633722
0.660567
0.662208
0.640685
0.647335
0.666643
0.690913
0.675635
0.662444
0.637135
0.655019
0.66398
0.662178
0.669868
0.648221
0.664038
0.658831
0.579093
0.642154
0.651404
0.639854
0.655646
0.668159
0.665903
0.661791
0.670343
0.636568
0.658684
0.658137
0.662805
0.651007
0.665783
0.664578
0.639967
0.623856
0.661801
0.63686
0.631832
0.660685
0.567309
0.634171
0.685576
0.665546
0.647068
0.653505
0.645205
0.666188
0.620834
0.578643
0.637382
0.677442
0.660251
0.676321
0.532053
0.633625
0.686985
0.658434
0.618063
0.621982
0.636931
0.640385
0.634123
0.667105
0.6723
0.644615
0.638823
0.653471
0.654402
0.695959
0.606982
0.673647
0.669171
0.566441
0.64998
0.640384
0.643269
0.668012
0.667138
0.691946
0.663381
0.634453
0.659876
0.658082
0.704217
0.668711
0.690132
0.673344
0.658059
0.665775
0.660763
0.651509
0.640016
0.660463
0.628534
0.669009
0.663988
0.642755
0.639249
0.63569
0.636995
0.624664
0.682788
0.640743
0.652673
0.688722
0.682412
0.644033
0.639366
0.690127
0.641682
0.562754
0.659043
0.644286
0.639449
0.688213
0.66028
0.65554
0.685761
0.643244
0.665003
0.649674
0.664748
0.660974
0.655519
0.497158
0.640683
0.644643
0.6424
0.659539
0.657915
0.675138
0.693828
0.633485
0.652722
0.633772
0.601162
0.636146
0.681642
0.661767
0.643846
0.647975
0.666953
0.636613
0.623866
0.633654
0.645464
0.654691
0.694582
0.656202
0.668517
0.702807
0.681645
0.679545
0.691389
0.621884
0.653413
0.639763
0.70115
0.679175
0.68495
0.660208
0.654906
0.646588
0.67137
0.643539
0.604114
0.685034
0.664306
0.604861
0.639268
0.647881
0.639133
0.649049
0.659794
0.661049
0.634527
0.651069
0.638559
0.6504
0.641146
0.66215
0.618988
0.645226
0.688067
0.691644
0.67367
0.669401
0.666484
0.558713
0.673469
0.659843
0.628688
0.688283
0.546061
0.692482
0.652526
0.662797
0.658922
0.671064
0.673103
0.634304
0.696431
0.6313
0.684496
0.664928
0.652014
0.653236
0.622808
0.655721
0.686501
0.654046
0.701788
0.66908
0.638123
0.613123
0.670734
0.55709
0.669165
0.664247
0.640329
0.696193
0.594912
0.590688
0.678237
0.663213
0.692218
0.700006
0.653812
0.703758
0.697365
0.681214
0.685549
0.669357
0.636253
0.653185
0.661515
0.680945
0.654662
0.542499
0.696394
0.646992
0.653046
0.65179
0.690157
0.696738
0.658168
0.681956
0.665684
0.694562
0.639009
0.675875
0.647633
0.69844
0.701054
0.675618
0.65227
0.676686
0.641092
0.629462
0.661978
0.656283
0.66654
0.620343
0.554147
0.639049
0.657925
0.670119
0.661755
0.688405
0.654031
0.640201
0.668842
0.640046
0.690802
0.625255
0.647052
0.685838
0.685025
0.663104
0.698122
0.632268
0.659687
0.677683
0.649006
0.621087
0.660956
0.654255
0.668394
0.674391
0.653819
0.642837
0.663961
0.641798
0.634987
0.693605
0.701038
0.702383
0.622238
0.704141
0.697743
0.696873
0.640477
0.671729
0.667753
0.695926
0.668325
0.62889
0.641776
0.651788
0.536849
0.697711
0.657929
0.656552
0.676386
0.674375
0.660172
0.649823
0.696979
0.698513
0.687301
0.672686
0.652276
0.666639
0.672546
0.66622
0.653574
0.653249
0.655927
0.660592
0.664202
0.649703
0.691058
0.693397
0.636859
0.68242
0.647202
0.636695
0.650314
0.691368
0.660139
0.6711
0.661353
0.686824
0.663399
0.663941
0.70281
0.651484
0.639573
0.636087
0.637505
0.628979
0.487663
0.642884
0.638086
0.665253
0.63736
0.656016
0.663293
0.646713
0.640233
0.650526
0.655481
0.496646
0.697238
0.669151
0.663637
0.638048
0.668642
0.653432
0.628673
0.700056
0.64521
0.702114
0.65668
0.684822
0.619354
0.583294
0.652885
0.660343
0.661991
0.665701
0.584433
0.665767
0.660858
0.640229
0.629927
0.6497
0.653853
0.696363
0.621531
0.670296
0.677855
0.670179
0.647662
0.678096
0.639641
0.487945
0.663487
0.641933
0.629839
0.675114
0.674083
0.661665
0.670345
0.65631
0.703356
0.696936
0.657521
0.655103
0.697621
0.688028
0.670995
0.668959
0.662639
0.703231
0.649788
0.636524
0.689526
0.683625
0.694496
0.664901
0.657496
0.649304
0.674202
0.668463
0.460748
0.693539
0.663146
0.6377
0.659271
0.67444
0.701017
0.697181
0.66891
0.652288
0.678329
0.687732
0.683042
0.675398
0.682694
0.587304
0.638685
0.664291
0.63884
0.589453
0.642105
0.663429
0.677269
0.644683
0.662015
0.62754
0.655337
0.697116
0.656659
0.641272
0.637855
0.639989
0.662054
0.647912
0.648281
0.683057
0.665846
0.666327
0.631685
0.669706
0.651716
0.645556
0.674173
0.675802
0.685592
0.695663
0.641376
0.688235
0.638986
0.691537
0.689315
0.69337
0.680947
0.639224
0.638569
0.659649
0.632263
0.648101
0.647526
0.65347
0.633248
0.678912
0.667848
0.635902
0.68467
0.664316
0.66021
0.664275
0.670671
0.688749
0.668981
0.662326
0.638424
0.683229
0.62412
0.694767
0.632489
0.664678
0.689534
0.67562
0.698887
0.679043
0.665424
0.621746
0.6398
0.662043
0.652768
0.698156
0.624599
0.626585
0.660556
0.663198
0.66225
0.636754
0.680295
0.672103
0.666887
0.558494
0.659311
0.616507
0.631008
0.657462
0.660595
0.656848
0.647655
0.679355
0.636773
0.702862
0.661752
0.617335
0.670929
0.664647
0.694177
0.655143
0.64535
0.637061
0.652296
0.660224
0.693321
0.648915
0.663548
0.664009
0.683205
0.647617
0.663228
0.651933
0.697981
0.633236
0.63613
0.602052
0.682106
0.636677
0.65095
0.640626
0.64601
0.693795
0.661177
0.673786
0.684977
0.673097
0.61203
0.696763
0.632442
0.66926
0.671367
0.655482
0.640082
0.661527
0.653996
0.634476
0.656617
0.605538
0.639095
0.659866
0.609811
0.64716
0.683333
0.645062
0.643486
0.655137
0.694548
0.659847
0.635705
0.670788
0.642087
0.646938
0.663259
0.66002
0.66743
0.665124
0.693878
0.663541
0.678213
0.666274
0.687795
0.697501
0.694915
0.61496
0.65298
0.666152
0.633018
0.700654
0.687112
0.682591
0.659869
0.635523
0.636109
0.666662
0.677504
0.630684
0.682951
0.68482
0.670898
0.639352
0.637259
0.642632
0.617784
0.658175
0.631975
0.665191
0.649462
0.668556
0.64254
0.658084
0.635575
0.667772
0.668611
0.67173
0.658716
0.665586
0.691451
0.696009
0.660678
0.657297
0.677736
0.664324
0.646431
0.654183
0.66396
0.64539
0.693076
0.660867
0.663828
0.673455
0.675087
0.65763
0.603118
0.704843
0.66485
0.659457
0.66327
0.662592
0.677663
0.690414
0.664344
0.668142
0.632706
0.650206
0.655472
0.670262
0.665468
0.658424
0.662779
0.695277
0.668894
0.657739
0.687234
0.665079
0.639814
0.656391
0.702413
0.641325
0.634157
0.656138
0.703763
0.656544
0.662015
0.677827
0.679105
0.683993
0.663068
0.636133
0.667895
0.651211
0.657487
0.683623
0.657386
0.634756
0.631018
0.658254
0.66885
0.648516
0.639565
0.688114
0.662185
0.696303
0.682542
0.635166
0.630825
0.660002
0.67889
0.687621
0.657934
0.65514
0.61291
0.660336
0.655945
0.696174
0.690219
0.6802
0.639789
0.632236
0.68107
0.704494
0.694017
0.679914
0.688302
0.657921
0.657054
0.630256
0.634047
0.693583
0.664415
0.582752
0.64536
0.703398
0.661768
0.638592
0.638326
0.659943
0.653824
0.691088
0.66549
0.673327
0.688766
0.68776
0.652422
0.667761
0.660375
0.664358
0.637721
0.670461
0.655115
0.693704
0.584906
0.666696
0.568453
0.658547
0.691282
0.669527
0.682361
0.689009
0.689504
0.647043
0.661409
0.655816
0.623485
0.693688
0.667249
0.653864
0.665421
0.537859
0.645149
0.682413
0.66933
0.69541
0.632811
0.640722
0.660031
0.694116
0.590136
0.652718
0.657716
0.599699
0.635213
0.683528
0.636109
0.655298
0.63676
0.690325
0.699725
0.538715
0.677841
0.665911
0.647624
0.638113
0.660878
0.655379
0.665164
0.647208
0.663352
0.65728
0.664446
0.657922
0.683394
0.652911
0.634801
0.655079
0.632094
0.640254
0.656679
0.613435
0.657888
0.650747
0.663793
0.685348
0.667265
0.663502
0.579533
0.683555
0.652928
0.65604
0.704998
0.664287
0.663764
0.59473
0.584332
0.695291
0.644188
0.662436
0.669472
0.652072
0.685098
0.580227
0.686728
0.659756
0.678184
0.658657
0.669006
0.660054
0.640346
0.650162
0.659484
0.693311
0.630604
0.640251
0.646244
0.698213
0.700418
0.609875
0.656127
0.66375
0.682012
0.656705
0.693448
0.685136
0.682454
0.679943
0.663285
0.654179
0.63928
0.693577
0.652639
0.662217
0.612524
0.638487
0.649093
0.636651
0.695735
0.59579
0.690169
0.654976
0.694501
0.665044
0.695774
0.676929
0.670428
0.695782
0.692023
0.705469
0.659281
0.686946
0.654215
0.663862
0.64443
0.648785
0.695468
0.596639
0.65919
0.668638
0.659717
0.667337
0.66195
0.688233
0.657144
0.677689
0.635291
0.642209
0.666227
0.688707
0.610959
0.671152
0.64188
0.665251
0.636557
0.658564
0.669039
0.679181
0.695654
0.638379
0.658001
0.660798
0.666274
0.684125
0.619718
0.63662
0.699552
0.631575
0.656686
0.676954
0.692032
0.699215
0.638081
0.646462
0.647227
0.645686
0.624361
0.660796
0.664883
0.662001
0.647744
0.656287
0.661247
0.651229
0.626211
0.647257
0.661287
0.641435
0.678724
0.677062
0.631187
0.678927
0.585822
0.648427
0.604563
0.64881
0.698438
0.664957
0.664338
0.662858
0.683728
0.692507
0.662506
0.679439
0.625896
0.661878
0.658137
0.664565
0.639694
0.694476
0.663604
0.652085
0.699979
0.681707
0.643495
0.694724
0.63484
0.663823
0.662251
0.665949
0.614238
0.690421
0.66021
0.663002
0.663774
0.648197
0.640622
0.647242
0.676151
0.684352
0.688246
0.661672
0.668497
0.694186
0.672379
0.659601
0.654297
0.647865
0.656958
0.682532
0.641381
0.688634
0.66307
0.691296
0.702531
0.694781
0.658771
0.673642
0.686347
0.572824
0.694568
0.600649
0.695255
0.681783
0.660663
0.661035
0.657992
0.659515
0.599506
0.623381
0.663646
0.631422
0.697662
0.63895
0.643481
0.621395
0.635235
0.664431
0.684416
0.704211
0.6381
0.668364
0.66411
0.662543
0.656305
0.661708
0.691769
0.681526
0.660518
0.689659
0.6824
0.701956
0.639449
0.643545
0.631724
0.67974
0.699083
0.684931
0.661629
0.696466
0.660573
0.632365
0.659456
0.630002
0.650592
0.639033
0.703589
0.696675
0.666363
0.705562
0.681565
0.658439
0.696055
0.644473
0.688688
0.655189
0.693765
0.656456
0.63782
0.676991
0.667856
0.695407
0.693153
0.693948
0.635776
0.63218
0.627969
0.685314
0.681953
0.612551
0.653684
0.682889
0.639831
0.656703
0.640489
0.649693
0.667817
0.651033
0.661684
0.65499
0.66402
0.667663
0.675048
0.657678
0.649953
0.665713
0.665652
0.659873
0.6885
0.698127
0.611352
0.680878
0.640042
0.651808
0.691742
0.681901
0.652041
0.694804
0.640776
0.676919
0.654558
0.644855
0.688495
0.65694
0.679645
0.674111
0.674641
0.701717
0.674868
0.647115
0.672441
0.641618
0.678978
0.69597
0.671626
0.658057
0.638989
0.644556
0.688912
0.651363
0.674985
0.634731
0.66091
0.682372
0.677748
0.66028
0.687534
0.697272
0.64939
0.655919
0.667589
0.638922
0.648651
0.661486
0.673668
0.660267
0.643738
0.608072
0.633833
0.675064
0.658127
0.679371
0.643842
0.693627
0.667174
0.688658
0.699106
0.656226
0.691887
0.645333
0.666731
0.652313
0.68523
0.633463
0.658938
0.653607
0.636472
0.655709
0.64413
0.634044
0.639033
0.70118
0.70477
0.663395
0.636773
0.678261
0.635388
0.613332
0.660068
0.674461
0.67517
0.639391
0.638919
0.693211
0.635479
0.66905
0.637751
0.644094
0.658577
0.63529
0.687809
0.666743
0.647303
0.69406
0.687902
0.646563
0.668616
0.660322
0.70119
0.662245
0.655114
0.641355
0.669867
0.697151
0.668874
0.623221
0.642522
0.655183
0.668721
0.696801
0.703113
0.634705
0.697426
0.644695
0.663876
0.66734
0.659054
0.653321
0.686786
0.610149
0.667537
0.629868
0.642019
0.626577
0.640045
0.674344
0.694066
0.644818
0.648336
0.665909
0.652551
0.606162
0.626564
0.648356
0.679102
0.566026
0.64748
0.672745
0.664547
0.661001
0.669182
0.684543
0.589492
0.58801
0.686442
0.661601
0.607069
0.656855
0.684111
0.674239
0.661809
0.630041
0.667117
0.633335
0.697056
0.684657
0.703454
0.658734
0.674123
0.644061
0.665595
0.688603
0.636606
0.646688
0.676364
0.684565
0.641446
0.643891
0.625137
0.59169
0.627733
0.703936
0.654474
0.642004
0.619886
0.638705
0.679225
0.63335
0.646958
0.638782
0.683409
0.65712
0.698501
0.645489
0.658551
0.667822
0.668031
0.655668
0.670785
0.635374
0.699181
0.676861
0.668635
0.687443
0.649967
0.689256
0.666303
0.658363
0.694609
0.634137
0.652909
0.696246
0.666604
0.637398
0.643998
0.676849
0.69655
0.66356
0.679039
0.628316
0.642344
0.6357
0.62651
0.687997
0.648898
0.660924
0.698522
0.660193
0.593962
0.637672
0.663545
0.636637
0.656167
0.641964
0.647862
0.653176
0.680016
0.695873
0.673055
0.634327
0.655773
0.635303
0.658972
0.673384
0.660215
0.663417
0.675373
0.656172
0.659743
0.685477
0.685101
0.699302
0.690497
0.695095
0.659452
0.643646
0.640139
0.638449
0.696564
0.665463
0.645433
0.694593
0.647112
0.684354
0.678876
0.643481
0.63361
0.653432
0.6637
0.684864
0.654966
0.674046
0.663261
0.696296
0.668987
0.699252
0.647709
0.661909
0.648659
0.638038
0.654004
0.683331
0.602268
0.533617
0.660137
0.683693
0.679517
0.658317
0.63865
0.636973
0.651172
0.635274
0.659292
0.660097
0.642375
0.676913
0.664039
0.639765
0.669628
0.652746
0.631821
0.681812
0.649998
0.658203
0.631809
0.674609
0.646189
0.639923
0.654864
0.653834
0.647774
0.63974
0.59294
0.681674
0.701374
0.687969
0.666737
0.677512
0.644273
0.69648
0.666032
0.67091
0.623253
0.676469
0.647402
0.655904
0.682056
0.694753
0.681709
0.663338
0.668218
0.702501
0.646274
0.680948
0.696522
0.672659
0.658948
0.641455
0.683294
0.655243
0.648249
0.67017
0.659604
0.69623
0.645704
0.698603
0.700271
0.661078
0.647839
0.697602
0.638563
0.646872
0.653731
0.641511
0.651886
0.649196
0.645666
0.663542
0.636799
0.636435
0.660645
0.661027
0.648665
0.650975
0.667363
0.661988
0.655626
0.693104
0.698628
0.698377
0.638874
0.652221
0.696774
0.636639
0.663431
0.616926
0.660464
0.618325
0.677181
0.662341
0.661565
0.641517
0.63521
0.650514
0.667949
0.651751
0.659784
0.663881
0.655835
0.694867
0.669968
0.670956
0.649222
0.686379
0.645737
0.663054
0.700363
0.645925
0.651422
0.6403
0.674448
0.702478
0.643228
0.666758
0.655508
0.636518
0.632227
0.660112
0.635603
0.676963
0.646593
0.659188
0.661629
0.660419
0.639299
0.660152
0.661384
0.652537
0.667715
0.694296
0.662159
0.654703
0.65865
0.694668
0.663916
0.635245
0.680263
0.637937
0.66154
0.629218
0.648232
0.652334
0.604154
0.642876
0.701803
0.685824
0.6324
0.665495
0.640715
0.623746
0.635328
0.637224
0.647495
0.643944
0.647081
0.672255
0.707326
0.65789
0.677426
0.66194
0.697398
0.664852
0.705524
0.667023
0.650093
0.671617
0.680969
0.658679
0.683212
0.629717
0.688661
0.657211
0.531101
0.663025
0.705189
0.701733
0.674425
0.673374
0.676122
0.652273
0.654493
0.672211
0.698273
0.545792
0.65702
0.626603
0.647817
0.664171
0.632902
0.636614
0.647658
0.644272
0.63975
0.652416
0.661797
0.701055
0.68621
0.639207
0.683494
0.637615
0.663643
0.683777
0.664176
0.661339
0.671019
0.548741
0.642804
0.664939
0.687792
0.643965
0.649672
0.665107
0.670553
0.636738
0.695507
0.645906
0.666282
0.662913
0.657296
0.671705
0.672352
0.695735
0.629746
0.680008
0.659636
0.670325
0.6387
0.669928
0.65516
0.633502
0.640349
0.657976
0.657462
0.663826
0.689195
0.660797
0.628347
0.672378
0.646191
0.643101
0.662257
0.665702
0.642001
0.706338
0.643415
0.646416
0.645101
0.662434
0.640942
0.615247
0.677234
0.655574
0.660257
0.647014
0.630513
0.656163
0.592795
0.701911
0.689136
0.644115
0.639468
0.689674
0.649012
0.640902
0.635423
0.626489
0.653113
0.661954
0.69204
0.642028
0.651746
0.672155
0.661836
0.645775
0.644085
0.658693
0.676308
0.701564
0.643205
0.631548
0.664334
0.688273
0.655023
0.665583
0.660895
0.631958
0.664865
0.669035
0.655823
0.635223
0.678771
0.66299
0.628169
0.663348
0.643297
0.683252
0.700293
0.642408
0.664244
0.658823
0.663981
0.641643
0.666822
0.654631
0.695538
0.682606
0.674455
0.645403
0.648775
0.679775
0.698367
0.653496
0.66267
0.656894
0.641697
0.658048
0.661617
0.636995
0.576891
0.644874
0.658144
0.645245
0.640891
0.654483
0.65626
0.680164
0.639616
0.641156
0.649108
0.638496
0.682188
0.639446
0.667985
0.659811
0.63569
0.667661
0.668
0.666517
0.659467
0.675968
0.645205
0.644265
0.693167
0.632581
0.691197
0.66629
0.650339
0.656776
0.687729
0.662444
0.638105
0.696907
0.629081
0.656338
0.688476
0.632161
0.700761
0.643905
0.662988
0.569774
0.666012
0.638669
0.666158
0.649822
0.631888
0.653651
0.634296
0.644292
0.693271
0.635717
0.659919
0.668026
0.663048
0.698368
0.700519
0.654893
0.629308
0.684879
0.650375
0.692375
0.649023
0.654035
0.6684
0.656518
0.683617
0.660371
0.664407
0.648423
0.665873
0.617836
0.627206
0.688696
0.495362
0.692143
0.674763
0.646423
0.640355
0.656721
0.701894
0.672536
0.671424
0.664343
0.668292
0.661426
0.689208
0.681794
0.63865
0.669953
0.694755
0.658379
0.661611
0.666181
0.643308
0.642399
0.670671
0.666221
0.65925
0.700527
0.636552
0.649547
0.6664
0.655256
0.654216
0.696252
0.644637
0.650067
0.649264
0.658595
0.643326
0.689968
0.633349
0.661093
0.652326
0.656588
0.636231
0.633861
0.670486
0.631452
0.637652
0.69029
0.658002
0.658999
0.63801
0.63735
0.652507
0.689765
0.700169
0.657102
0.652646
0.655803
0.68445
0.696884
0.647059
0.693386
0.653128
0.670995
0.666922
0.689229
0.656395
0.687125
0.693577
0.636825
0.628302
0.659866
0.654479
0.65883
0.575827
0.595965
0.673943
0.683701
0.640994
0.695555
0.659361
0.675763
0.6619
0.639189
0.684653
0.680975
0.662973
0.632181
0.640283
0.699354
0.67899
0.697713
0.634509
0.657885
0.667575
0.68526
0.671152
0.673896
0.65891
0.695548
0.657422
0.655478
0.660901
0.657161
0.661625
0.580416
0.682819
0.661983
0.664686
0.693788
0.633607
0.641266
0.647456
0.647275
0.689668
0.646516
0.669906
0.584685
0.64796
0.658867
0.646899
0.641876
0.675604
0.638754
0.642157
0.661623
0.665704
0.693862
0.650446
0.659171
0.688637
0.656215
0.695694
0.65586
0.671677
0.65485
0.648854
0.701331
0.637764
0.645756
0.663307
0.692728
0.675164
0.658073
0.625759
0.701738
0.667395
0.659748
0.676637
0.696941
0.676373
0.67009
0.637716
0.633239
0.654868
0.639334
0.664843
0.662889
0.636913
0.695748
0.696296
0.692655
0.668413
0.663155
0.639179
0.656603
0.675927
0.641517
0.672614
0.694332
0.657116
0.662811
0.663235
0.680805
0.668996
0.66265
0.637718
0.674321
0.626566
0.578926
0.651317
0.705329
0.636402
0.68238
0.655969
0.626307
0.684669
0.661218
0.699767
0.538851
0.665291
0.669567
0.69433
0.657166
0.69404
0.660369
0.635189
0.653014
0.658651
0.659159
0.631939
0.681266
0.661685
0.643644
0.633571
0.656362
0.674271
0.627782
0.667304
0.688584
0.642238
0.688364
0.643992
0.6203
0.632814
0.657915
0.643174
0.63976
0.625215
0.626278
0.658517
0.654112
0.677757
0.659918
0.689486
0.63268
0.666794
0.639872
0.647637
0.631591
0.670015
0.700088
0.647432
0.646181
0.707341
0.658723
0.669401
0.674212
0.654771
0.664513
0.665507
0.663179
0.696424
0.696245
0.697492
0.664302
0.647483
0.6472
0.655064
0.690504
0.667164
0.64949
0.617129
0.647578
0.664393
0.699165
0.659505
0.697073
0.646597
0.658487
0.655774
0.632415
0.65361
0.648923
0.690616
0.640016
0.644393
0.643235
0.7036
0.665606
0.642724
0.637624
0.629758
0.678965
0.660436
0.653688
0.644611
0.660269
0.639979