/*--------------------------------*- C++ -*----------------------------------*\
  =========                 |
  \\      /  F ield         | OpenFOAM: The Open Source CFD Toolbox
   \\    /   O peration     | Website:  https://openfoam.org
    \\  /    A nd           | Version:  6
     \\/     M anipulation  |
\*---------------------------------------------------------------------------*/
FoamFile
{
    version     2.0;
    format      ascii;
    class       volVectorField;
    location    "0";
    object      Usup;
}
// * * * * * * * * * * * * * * * * * * * * * * * * * * * * * * * * * * * * * //

dimensions      [0 1 -1 0 0 0 0];

internalField   nonuniform List<vector> 
9000
(
(-0.176809 -0.178691 0)
(-0.288752 -0.101888 0)
(-0.18933 -0.050034 0)
(-0.136932 -0.0254838 0)
(-0.108631 -0.0136292 0)
(-0.0918136 -0.00770958 0)
(-0.0814819 -0.00455344 0)
(-0.0749919 -0.00274579 0)
(-0.0708931 -0.00164858 0)
(-0.0683504 -0.00095587 0)
(-0.0668468 -0.000508872 0)
(-0.0660449 -0.000219867 0)
(-0.0657158 -3.40635e-05 0)
(-0.0656999 8.19738e-05 0)
(-0.065886 0.000151265 0)
(-0.0661957 0.000189914 0)
(-0.0665736 0.000209039 0)
(-0.0669815 0.000216097 0)
(-0.0673932 0.000216174 0)
(-0.0677915 0.000213437 0)
(-0.0681657 0.000209876 0)
(-0.0685099 0.000207731 0)
(-0.0688207 0.000207886 0)
(-0.0690972 0.000211172 0)
(-0.0693401 0.000218577 0)
(-0.0695502 0.000230367 0)
(-0.0697301 0.0002457 0)
(-0.0698819 0.000266228 0)
(-0.0700083 0.00029137 0)
(-0.0701118 0.000322002 0)
(-0.070195 0.000358157 0)
(-0.0702618 0.000399593 0)
(-0.0703148 0.000448198 0)
(-0.0703581 0.000503397 0)
(-0.0703965 0.000566217 0)
(-0.0704354 0.000637755 0)
(-0.0704818 0.000718761 0)
(-0.0705453 0.000810592 0)
(-0.0706384 0.000915313 0)
(-0.0707789 0.00103509 0)
(-0.0709915 0.00117426 0)
(-0.0713133 0.00133757 0)
(-0.0718011 0.00153688 0)
(-0.0725488 0.0017935 0)
(-0.0737247 0.00215919 0)
(-0.0756658 0.00276438 0)
(-0.0790654 0.00398331 0)
(-0.0851828 0.006894 0)
(-0.101404 0.0148623 0)
(-0.149503 0.048237 0)
(-0.244824 -0.367981 0)
(-0.463475 -0.257423 0)
(-0.399772 -0.146984 0)
(-0.333707 -0.0844984 0)
(-0.284999 -0.050013 0)
(-0.251093 -0.030718 0)
(-0.228176 -0.0194486 0)
(-0.212934 -0.0125286 0)
(-0.202982 -0.00809649 0)
(-0.196697 -0.00517288 0)
(-0.192961 -0.00320991 0)
(-0.190993 -0.00188429 0)
(-0.190239 -0.000989937 0)
(-0.190302 -0.000393321 0)
(-0.190897 -2.98952e-06 0)
(-0.191818 0.000246118 0)
(-0.192922 0.000399331 0)
(-0.194105 0.000489762 0)
(-0.195297 0.000539617 0)
(-0.19645 0.00056563 0)
(-0.197536 0.000579066 0)
(-0.198537 0.000588549 0)
(-0.199444 0.000599917 0)
(-0.200254 0.000616913 0)
(-0.200968 0.000642774 0)
(-0.201591 0.000679684 0)
(-0.202127 0.000727583 0)
(-0.202584 0.000789403 0)
(-0.202969 0.000865677 0)
(-0.20329 0.00095885 0)
(-0.203556 0.00106872 0)
(-0.203777 0.00119723 0)
(-0.203963 0.00134697 0)
(-0.204127 0.00151975 0)
(-0.204283 0.00171906 0)
(-0.20445 0.00194826 0)
(-0.204651 0.00221193 0)
(-0.204917 0.00251673 0)
(-0.20529 0.00287142 0)
(-0.205829 0.00328776 0)
(-0.206615 0.00378582 0)
(-0.207773 0.00439356 0)
(-0.209487 0.00516575 0)
(-0.212059 0.00620042 0)
(-0.215998 0.0077053 0)
(-0.222219 0.0101471 0)
(-0.23242 0.0146728 0)
(-0.249827 0.0241214 0)
(-0.284071 0.0456676 0)
(-0.348085 0.106033 0)
(-0.225687 -0.345738 0)
(-0.478925 -0.331247 0)
(-0.493476 -0.23122 0)
(-0.458462 -0.152523 0)
(-0.416467 -0.0998932 0)
(-0.381061 -0.0661352 0)
(-0.354542 -0.0443709 0)
(-0.335822 -0.0300296 0)
(-0.323196 -0.0203626 0)
(-0.315122 -0.0137297 0)
(-0.310368 -0.00912698 0)
(-0.307991 -0.00591775 0)
(-0.307278 -0.00368077 0)
(-0.307699 -0.00213055 0)
(-0.308862 -0.00106833 0)
(-0.31048 -0.000350221 0)
(-0.312345 0.000126644 0)
(-0.31431 0.000436764 0)
(-0.316273 0.000634874 0)
(-0.318165 0.000758984 0)
(-0.319941 0.000838524 0)
(-0.321578 0.000892404 0)
(-0.323063 0.000937216 0)
(-0.32439 0.000982927 0)
(-0.325564 0.00103645 0)
(-0.32659 0.00110341 0)
(-0.327479 0.00118776 0)
(-0.328241 0.00129325 0)
(-0.328888 0.00142337 0)
(-0.329435 0.00158163 0)
(-0.329896 0.00176956 0)
(-0.330288 0.00199286 0)
(-0.330628 0.0022542 0)
(-0.330937 0.00256071 0)
(-0.331243 0.002919 0)
(-0.331576 0.00333781 0)
(-0.331975 0.00382899 0)
(-0.332496 0.00440838 0)
(-0.333209 0.0050985 0)
(-0.334214 0.00593105 0)
(-0.33565 0.00695574 0)
(-0.337721 0.00824904 0)
(-0.340731 0.00994211 0)
(-0.34515 0.0122675 0)
(-0.351733 0.0156692 0)
(-0.36172 0.0210421 0)
(-0.377169 0.0302768 0)
(-0.401357 0.0474018 0)
(-0.440504 0.081049 0)
(-0.497039 0.152249 0)
(-0.191775 -0.284182 0)
(-0.444907 -0.353783 0)
(-0.5202 -0.291549 0)
(-0.526649 -0.214711 0)
(-0.5062 -0.152203 0)
(-0.480928 -0.106795 0)
(-0.458808 -0.0748625 0)
(-0.441899 -0.052486 0)
(-0.430058 -0.0367186 0)
(-0.422463 -0.0255333 0)
(-0.418181 -0.0175622 0)
(-0.416373 -0.0118739 0)
(-0.416341 -0.00782209 0)
(-0.417535 -0.00495215 0)
(-0.419529 -0.00293674 0)
(-0.422003 -0.00153609 0)
(-0.424724 -0.000575909 0)
(-0.427521 7.25098e-05 0)
(-0.430277 0.000505285 0)
(-0.432911 0.000791012 0)
(-0.435374 0.0009817 0)
(-0.437637 0.00111234 0)
(-0.439686 0.00121291 0)
(-0.44152 0.00130209 0)
(-0.443143 0.00139367 0)
(-0.444566 0.00149785 0)
(-0.445802 0.00162337 0)
(-0.446867 0.00177751 0)
(-0.447778 0.0019651 0)
(-0.448556 0.00219278 0)
(-0.44922 0.0024653 0)
(-0.449793 0.00279118 0)
(-0.450302 0.00317751 0)
(-0.450775 0.00363514 0)
(-0.45125 0.00417654 0)
(-0.451771 0.00481912 0)
(-0.452395 0.00558413 0)
(-0.453195 0.00650178 0)
(-0.454272 0.00761367 0)
(-0.455759 0.00898049 0)
(-0.457845 0.0106932 0)
(-0.460795 0.0128934 0)
(-0.464996 0.0158103 0)
(-0.471017 0.0198353 0)
(-0.479709 0.025663 0)
(-0.492345 0.0345697 0)
(-0.510755 0.0489463 0)
(-0.537207 0.0732195 0)
(-0.574129 0.11512 0)
(-0.618341 0.187477 0)
(-0.159788 -0.23367 0)
(-0.397983 -0.349359 0)
(-0.511811 -0.325224 0)
(-0.555961 -0.261275 0)
(-0.562188 -0.197631 0)
(-0.553711 -0.145604 0)
(-0.541742 -0.105939 0)
(-0.531012 -0.0764994 0)
(-0.523104 -0.0548659 0)
(-0.5182 -0.039029 0)
(-0.515927 -0.027462 0)
(-0.515745 -0.0190384 0)
(-0.517117 -0.0129317 0)
(-0.519572 -0.0085337 0)
(-0.522721 -0.00539251 0)
(-0.526264 -0.00317116 0)
(-0.529974 -0.00161917 0)
(-0.533683 -0.000547511 0)
(-0.537276 0.000184379 0)
(-0.540674 0.000680195 0)
(-0.543829 0.00101703 0)
(-0.546716 0.00125156 0)
(-0.549323 0.00142682 0)
(-0.551654 0.00157278 0)
(-0.553719 0.00171224 0)
(-0.555531 0.00186146 0)
(-0.557109 0.00203402 0)
(-0.558473 0.00224122 0)
(-0.559648 0.00249119 0)
(-0.560657 0.00279387 0)
(-0.561528 0.00315893 0)
(-0.562289 0.00359713 0)
(-0.562974 0.00412172 0)
(-0.56362 0.00474811 0)
(-0.564275 0.00549708 0)
(-0.564994 0.00639515 0)
(-0.565848 0.00747713 0)
(-0.566928 0.00879052 0)
(-0.568358 0.0104005 0)
(-0.570297 0.0124023 0)
(-0.572967 0.0149341 0)
(-0.576672 0.0182078 0)
(-0.581833 0.0225543 0)
(-0.589042 0.0285115 0)
(-0.599111 0.036974 0)
(-0.613125 0.049452 0)
(-0.632379 0.0684861 0)
(-0.657921 0.0981753 0)
(-0.689534 0.144342 0)
(-0.721961 0.213515 0)
(-0.133247 -0.194729 0)
(-0.351575 -0.331275 0)
(-0.487069 -0.337661 0)
(-0.560893 -0.290855 0)
(-0.593158 -0.232282 0)
(-0.604054 -0.178487 0)
(-0.605593 -0.134195 0)
(-0.604131 -0.0994699 0)
(-0.602659 -0.072904 0)
(-0.602356 -0.0528554 0)
(-0.603502 -0.0378627 0)
(-0.605967 -0.026734 0)
(-0.609467 -0.0185364 0)
(-0.613689 -0.0125468 0)
(-0.618343 -0.00821021 0)
(-0.62319 -0.00510229 0)
(-0.628044 -0.00289977 0)
(-0.632763 -0.00135605 0)
(-0.637251 -0.000285574 0)
(-0.641445 0.000451508 0)
(-0.645308 0.000959802 0)
(-0.648821 0.00131772 0)
(-0.651984 0.00158219 0)
(-0.654806 0.00179598 0)
(-0.657303 0.00199203 0)
(-0.659497 0.00219346 0)
(-0.66141 0.00241863 0)
(-0.663069 0.00268321 0)
(-0.664504 0.00300167 0)
(-0.665743 0.00338554 0)
(-0.666821 0.00385023 0)
(-0.667771 0.00441061 0)
(-0.668634 0.00508617 0)
(-0.669454 0.00589819 0)
(-0.670288 0.0068769 0)
(-0.6712 0.00805933 0)
(-0.672273 0.00949597 0)
(-0.673613 0.0112534 0)
(-0.675355 0.013423 0)
(-0.677677 0.0161359 0)
(-0.680817 0.019579 0)
(-0.685087 0.0240294 0)
(-0.690905 0.0299079 0)
(-0.698813 0.0378629 0)
(-0.709494 0.048909 0)
(-0.723731 0.0646258 0)
(-0.742217 0.0874137 0)
(-0.764982 0.120652 0)
(-0.790335 0.168218 0)
(-0.812824 0.232628 0)
(-0.112449 -0.1639 0)
(-0.310777 -0.306778 0)
(-0.456542 -0.335198 0)
(-0.55177 -0.305497 0)
(-0.606701 -0.255362 0)
(-0.636834 -0.203503 0)
(-0.653257 -0.157518 0)
(-0.662884 -0.119532 0)
(-0.669595 -0.0893287 0)
(-0.675372 -0.0658582 0)
(-0.681109 -0.0479015 0)
(-0.687114 -0.0343283 0)
(-0.693405 -0.0241774 0)
(-0.699875 -0.0166629 0)
(-0.706375 -0.0111567 0)
(-0.712763 -0.00716599 0)
(-0.718919 -0.0043055 0)
(-0.724752 -0.00227724 0)
(-0.730201 -0.000854051 0)
(-0.735227 0.000138454 0)
(-0.739814 0.000831301 0)
(-0.743961 0.00132291 0)
(-0.747679 0.0016861 0)
(-0.750986 0.00197608 0)
(-0.753908 0.00223472 0)
(-0.756475 0.00249369 0)
(-0.758716 0.00277655 0)
(-0.760662 0.00310417 0)
(-0.762351 0.00349536 0)
(-0.763816 0.00396688 0)
(-0.765096 0.00453792 0)
(-0.766231 0.00522912 0)
(-0.767268 0.00606605 0)
(-0.768257 0.00707813 0)
(-0.769259 0.00830461 0)
(-0.770349 0.00979547 0)
(-0.771616 0.0116158 0)
(-0.773174 0.0138528 0)
(-0.775166 0.0166245 0)
(-0.777774 0.0200956 0)
(-0.781236 0.0244978 0)
(-0.785849 0.0301631 0)
(-0.791988 0.0375791 0)
(-0.800106 0.0474593 0)
(-0.810704 0.0608545 0)
(-0.824238 0.0792813 0)
(-0.840869 0.104822 0)
(-0.859931 0.140028 0)
(-0.879099 0.187177 0)
(-0.893546 0.246452 0)
(-0.0965757 -0.139155 0)
(-0.276824 -0.279882 0)
(-0.425763 -0.322817 0)
(-0.535428 -0.308043 0)
(-0.608782 -0.267564 0)
(-0.656481 -0.220058 0)
(-0.687749 -0.174774 0)
(-0.709214 -0.135457 0)
(-0.725122 -0.103026 0)
(-0.737985 -0.0771097 0)
(-0.74919 -0.0568443 0)
(-0.759448 -0.041257 0)
(-0.769086 -0.0294311 0)
(-0.77822 -0.0205682 0)
(-0.78687 -0.0140038 0)
(-0.795014 -0.0091982 0)
(-0.802622 -0.00571986 0)
(-0.809668 -0.00322962 0)
(-0.816138 -0.00146429 0)
(-0.822033 -0.00022004 0)
(-0.827363 0.000656389 0)
(-0.832149 0.00128328 0)
(-0.836419 0.00174856 0)
(-0.840206 0.00211838 0)
(-0.843545 0.00244357 0)
(-0.846475 0.00276332 0)
(-0.849034 0.00310821 0)
(-0.851259 0.00350282 0)
(-0.853194 0.00397017 0)
(-0.854877 0.00453434 0)
(-0.856352 0.00521743 0)
(-0.857664 0.00604694 0)
(-0.858864 0.00705374 0)
(-0.860008 0.00827679 0)
(-0.861162 0.00976404 0)
(-0.862404 0.0115792 0)
(-0.863828 0.0138016 0)
(-0.86555 0.0165382 0)
(-0.867712 0.0199329 0)
(-0.870493 0.0241791 0)
(-0.874111 0.0295444 0)
(-0.878833 0.036403 0)
(-0.884967 0.0452789 0)
(-0.892852 0.0569077 0)
(-0.902796 0.0723071 0)
(-0.914954 0.0928392 0)
(-0.929085 0.120194 0)
(-0.944117 0.156147 0)
(-0.957613 0.201794 0)
(-0.965608 0.256075 0)
(-0.084572 -0.118976 0)
(-0.249308 -0.252664 0)
(-0.397345 -0.304068 0)
(-0.516151 -0.301243 0)
(-0.603803 -0.270246 0)
(-0.66671 -0.228398 0)
(-0.71188 -0.185563 0)
(-0.745124 -0.146565 0)
(-0.770615 -0.113261 0)
(-0.791116 -0.0859325 0)
(-0.808356 -0.0641159 0)
(-0.823373 -0.047054 0)
(-0.836773 -0.0339322 0)
(-0.848899 -0.0239845 0)
(-0.859945 -0.0165425 0)
(-0.870025 -0.0110445 0)
(-0.879209 -0.00703072 0)
(-0.88755 -0.00413264 0)
(-0.895095 -0.00205971 0)
(-0.901887 -0.000586104 0)
(-0.907974 0.000461419 0)
(-0.913403 0.0012168 0)
(-0.918222 0.00178078 0)
(-0.922479 0.00222934 0)
(-0.926225 0.00262208 0)
(-0.929507 0.00300438 0)
(-0.932372 0.00341293 0)
(-0.934867 0.00387681 0)
(-0.937036 0.0044247 0)
(-0.938926 0.00508409 0)
(-0.940585 0.00588349 0)
(-0.942062 0.0068555 0)
(-0.943411 0.0080382 0)
(-0.944693 0.00947849 0)
(-0.945974 0.0112342 0)
(-0.947335 0.0133801 0)
(-0.94887 0.0160115 0)
(-0.950692 0.0192529 0)
(-0.952937 0.0232687 0)
(-0.955769 0.0282766 0)
(-0.959378 0.0345703 0)
(-0.963984 0.0425485 0)
(-0.96982 0.0527448 0)
(-0.9771 0.0658782 0)
(-0.985953 0.0828846 0)
(-0.996294 0.104922 0)
(-1.00761 0.133283 0)
(-1.01864 0.169092 0)
(-1.02712 0.212629 0)
(-1.02991 0.262255 0)
(-0.0754961 -0.102164 0)
(-0.227294 -0.226103 0)
(-0.372313 -0.281379 0)
(-0.496486 -0.287451 0)
(-0.594866 -0.26497 0)
(-0.670463 -0.229247 0)
(-0.728105 -0.189999 0)
(-0.77251 -0.152618 0)
(-0.807476 -0.119636 0)
(-0.835774 -0.091891 0)
(-0.859318 -0.0693064 0)
(-0.879385 -0.0513657 0)
(-0.896814 -0.0373898 0)
(-0.912154 -0.0266809 0)
(-0.92577 -0.0185942 0)
(-0.937914 -0.0125698 0)
(-0.948765 -0.00813701 0)
(-0.958461 -0.00491215 0)
(-0.967115 -0.00258722 0)
(-0.974825 -0.000921983 0)
(-0.981675 0.000273033 0)
(-0.987744 0.00114134 0)
(-0.993103 0.00179432 0)
(-0.997821 0.00231708 0)
(-1.00196 0.00277468 0)
(-1.00558 0.00321893 0)
(-1.00874 0.00369102 0)
(-1.01149 0.00422549 0)
(-1.01388 0.00485566 0)
(-1.01596 0.00561165 0)
(-1.01779 0.0065296 0)
(-1.01942 0.00764551 0)
(-1.0209 0.00900579 0)
(-1.0223 0.0106645 0)
(-1.02368 0.0126893 0)
(-1.02512 0.015165 0)
(-1.02671 0.0182007 0)
(-1.02857 0.0219351 0)
(-1.03081 0.0265495 0)
(-1.03357 0.0322792 0)
(-1.03701 0.0394332 0)
(-1.0413 0.0484165 0)
(-1.04659 0.0597521 0)
(-1.05297 0.0741122 0)
(-1.06043 0.0923181 0)
(-1.06871 0.115312 0)
(-1.07711 0.14402 0)
(-1.08437 0.17906 0)
(-1.08849 0.220184 0)
(-1.08705 0.265552 0)
(-0.0686061 -0.0878286 0)
(-0.209786 -0.200594 0)
(-0.350875 -0.256356 0)
(-0.477855 -0.268546 0)
(-0.584073 -0.253244 0)
(-0.669979 -0.22354 0)
(-0.738464 -0.188513 0)
(-0.793073 -0.153695 0)
(-0.837042 -0.122025 0)
(-0.872974 -0.0947639 0)
(-0.90283 -0.0721666 0)
(-0.928036 -0.0539536 0)
(-0.949609 -0.039595 0)
(-0.968274 -0.0284828 0)
(-0.984553 -0.0200191 0)
(-0.998831 -0.0136646 0)
(-1.0114 -0.00895519 0)
(-1.02248 -0.00550515 0)
(-1.03226 -0.00300074 0)
(-1.04089 -0.00119294 0)
(-1.0485 0.000114744 0)
(-1.0552 0.00107375 0)
(-1.06108 0.00180121 0)
(-1.06625 0.00238904 0)
(-1.07076 0.00290626 0)
(-1.07471 0.00340884 0)
(-1.07814 0.00394345 0)
(-1.08113 0.00454802 0)
(-1.08373 0.00525873 0)
(-1.08599 0.0061122 0)
(-1.08797 0.00714713 0)
(-1.08973 0.0084063 0)
(-1.09132 0.00994182 0)
(-1.09281 0.0118151 0)
(-1.09426 0.0141022 0)
(-1.09574 0.0168975 0)
(-1.09734 0.0203207 0)
(-1.09916 0.0245223 0)
(-1.10131 0.0296946 0)
(-1.10389 0.0360843 0)
(-1.10702 0.0440041 0)
(-1.11082 0.0538506 0)
(-1.11537 0.0661204 0)
(-1.12065 0.0814175 0)
(-1.12653 0.100437 0)
(-1.13262 0.123907 0)
(-1.13818 0.152448 0)
(-1.14198 0.186297 0)
(-1.14234 0.224891 0)
(-1.13742 0.266391 0)
(-0.063346 -0.075324 0)
(-0.195897 -0.176234 0)
(-0.332854 -0.230029 0)
(-0.460985 -0.245961 0)
(-0.5728 -0.236398 0)
(-0.666914 -0.212262 0)
(-0.7446 -0.181708 0)
(-0.808275 -0.150089 0)
(-0.860532 -0.120512 0)
(-0.903689 -0.0945073 0)
(-0.939648 -0.0725905 0)
(-0.9699 -0.0546884 0)
(-0.995587 -0.0404196 0)
(-1.01758 -0.0292751 0)
(-1.03653 -0.0207189 0)
(-1.05295 -0.0142494 0)
(-1.06724 -0.00942265 0)
(-1.0797 -0.00586376 0)
(-1.0906 -0.00326336 0)
(-1.10013 -0.00137231 0)
(-1.10848 6.39453e-06 0)
(-1.11579 0.00102788 0)
(-1.12219 0.00181139 0)
(-1.12777 0.00245107 0)
(-1.13265 0.0030198 0)
(-1.13689 0.00357622 0)
(-1.14059 0.0041698 0)
(-1.1438 0.00484158 0)
(-1.14658 0.00563103 0)
(-1.14901 0.00657937 0)
(-1.15113 0.00772831 0)
(-1.153 0.00912662 0)
(-1.15468 0.0108309 0)
(-1.15623 0.0129091 0)
(-1.15771 0.0154452 0)
(-1.15919 0.0185409 0)
(-1.16075 0.022324 0)
(-1.16247 0.0269541 0)
(-1.16444 0.0326293 0)
(-1.16674 0.0395991 0)
(-1.16945 0.0481712 0)
(-1.17263 0.0587243 0)
(-1.17628 0.0717137 0)
(-1.18033 0.0876653 0)
(-1.18454 0.107146 0)
(-1.18845 0.130694 0)
(-1.1913 0.158676 0)
(-1.192 0.191062 0)
(-1.18913 0.227116 0)
(-1.18132 0.265104 0)
(-0.0593096 -0.064182 0)
(-0.184902 -0.152972 0)
(-0.317918 -0.203043 0)
(-0.446185 -0.220761 0)
(-0.561915 -0.215553 0)
(-0.662459 -0.196353 0)
(-0.747798 -0.170261 0)
(-0.819337 -0.142227 0)
(-0.879018 -0.115328 0)
(-0.928811 -0.0912188 0)
(-0.970487 -0.0705925 0)
(-1.00554 -0.053539 0)
(-1.03518 -0.0398113 0)
(-1.06039 -0.0289989 0)
(-1.08194 -0.0206374 0)
(-1.10045 -0.0142736 0)
(-1.11641 -0.00949734 0)
(-1.13022 -0.0059542 0)
(-1.1422 -0.00334888 0)
(-1.15261 -0.00144032 0)
(-1.16167 -3.61726e-05 0)
(-1.16956 0.00101498 0)
(-1.17643 0.00183276 0)
(-1.18242 0.00250957 0)
(-1.18763 0.00311937 0)
(-1.19215 0.00372281 0)
(-1.19608 0.00436935 0)
(-1.1995 0.00510417 0)
(-1.20245 0.00596876 0)
(-1.20502 0.00700695 0)
(-1.20725 0.00826458 0)
(-1.20922 0.00979365 0)
(-1.21096 0.0116565 0)
(-1.21254 0.0139254 0)
(-1.21403 0.0166909 0)
(-1.21547 0.0200608 0)
(-1.21694 0.0241678 0)
(-1.21851 0.0291765 0)
(-1.22023 0.0352869 0)
(-1.22216 0.0427442 0)
(-1.22435 0.0518445 0)
(-1.22681 0.06294 0)
(-1.22948 0.0764362 0)
(-1.23221 0.0927782 0)
(-1.23473 0.112412 0)
(-1.23653 0.135709 0)
(-1.23688 0.162844 0)
(-1.23482 0.193601 0)
(-1.22919 0.227168 0)
(-1.21897 0.26196 0)
(-0.056204 -0.0540586 0)
(-0.176228 -0.130689 0)
(-0.3057 -0.175785 0)
(-0.43353 -0.193721 0)
(-0.551945 -0.191623 0)
(-0.657454 -0.176665 0)
(-0.749041 -0.154859 0)
(-0.827252 -0.130611 0)
(-0.893415 -0.106805 0)
(-0.949136 -0.0851023 0)
(-0.996008 -0.066285 0)
(-1.03548 -0.0505591 0)
(-1.06881 -0.0377867 0)
(-1.09704 -0.0276503 0)
(-1.12104 -0.0197606 0)
(-1.14152 -0.0137203 0)
(-1.15907 -0.00916158 0)
(-1.17415 -0.00575957 0)
(-1.18714 -0.00324223 0)
(-1.19837 -0.00138382 0)
(-1.2081 -3.35082e-06 0)
(-1.21653 0.00104323 0)
(-1.22385 0.00187045 0)
(-1.2302 0.00256797 0)
(-1.23571 0.00320765 0)
(-1.24049 0.00384883 0)
(-1.24464 0.00454193 0)
(-1.24823 0.00533359 0)
(-1.25134 0.00626745 0)
(-1.25402 0.00738883 0)
(-1.25636 0.00874608 0)
(-1.25839 0.0103953 0)
(-1.26017 0.0124022 0)
(-1.26176 0.014844 0)
(-1.26322 0.0178142 0)
(-1.26459 0.0214253 0)
(-1.26593 0.025813 0)
(-1.26728 0.0311422 0)
(-1.2687 0.037611 0)
(-1.2702 0.0454563 0)
(-1.27181 0.0549559 0)
(-1.27347 0.0664291 0)
(-1.27511 0.0802295 0)
(-1.27651 0.0967218 0)
(-1.27736 0.116244 0)
(-1.27717 0.139032 0)
(-1.27525 0.165108 0)
(-1.27076 0.194146 0)
(-1.26277 0.225312 0)
(-1.25053 0.257188 0)
(-0.0538193 -0.0446981 0)
(-0.169435 -0.109241 0)
(-0.295854 -0.148476 0)
(-0.422974 -0.165401 0)
(-0.543192 -0.165342 0)
(-0.65248 -0.153948 0)
(-0.749073 -0.136164 0)
(-0.832812 -0.115769 0)
(-0.904487 -0.0953404 0)
(-0.965347 -0.0764388 0)
(-1.0168 -0.0598586 0)
(-1.06021 -0.0458718 0)
(-1.09686 -0.0344223 0)
(-1.12783 -0.0252754 0)
(-1.15406 -0.0181139 0)
(-1.17635 -0.0126018 0)
(-1.19534 -0.00841901 0)
(-1.21158 -0.00527936 0)
(-1.22551 -0.00294072 0)
(-1.23749 -0.0011994 0)
(-1.24781 0.000108653 0)
(-1.25673 0.00111591 0)
(-1.26445 0.00192755 0)
(-1.27113 0.0026277 0)
(-1.27692 0.00328406 0)
(-1.28192 0.00395333 0)
(-1.28626 0.00468605 0)
(-1.29001 0.00552745 0)
(-1.29324 0.00652286 0)
(-1.29603 0.00771857 0)
(-1.29844 0.00916478 0)
(-1.30051 0.0109209 0)
(-1.30232 0.0130542 0)
(-1.30389 0.0156462 0)
(-1.30529 0.0187921 0)
(-1.30655 0.0226063 0)
(-1.30772 0.0272255 0)
(-1.30883 0.0328115 0)
(-1.30989 0.0395574 0)
(-1.31092 0.0476871 0)
(-1.31189 0.0574564 0)
(-1.31274 0.0691492 0)
(-1.31331 0.0830663 0)
(-1.31341 0.0994979 0)
(-1.31267 0.118688 0)
(-1.31063 0.140761 0)
(-1.30667 0.165635 0)
(-1.30006 0.192911 0)
(-1.29007 0.22178 0)
(-1.27614 0.250981 0)
(-0.0520061 -0.0359071 0)
(-0.164191 -0.088481 0)
(-0.288085 -0.121233 0)
(-0.414417 -0.136201 0)
(-0.535818 -0.137294 0)
(-0.647928 -0.128849 0)
(-0.748439 -0.114794 0)
(-0.836636 -0.098237 0)
(-0.912852 -0.0813682 0)
(-0.97802 -0.0655634 0)
(-1.03336 -0.051563 0)
(-1.08016 -0.0396571 0)
(-1.11968 -0.0298462 0)
(-1.15303 -0.0219623 0)
(-1.18122 -0.0157567 0)
(-1.20509 -0.0109566 0)
(-1.22536 -0.00729398 0)
(-1.24262 -0.00452878 0)
(-1.25737 -0.00245339 0)
(-1.27 -0.000891968 0)
(-1.28086 0.000298168 0)
(-1.2902 0.0012325 0)
(-1.29827 0.00200444 0)
(-1.30523 0.00268954 0)
(-1.31125 0.00334915 0)
(-1.31646 0.00403681 0)
(-1.32095 0.00480024 0)
(-1.32483 0.00568363 0)
(-1.32817 0.00673126 0)
(-1.33104 0.00799046 0)
(-1.3335 0.00951367 0)
(-1.3356 0.0113606 0)
(-1.3374 0.0136008 0)
(-1.33894 0.0163171 0)
(-1.34025 0.0196053 0)
(-1.34138 0.0235805 0)
(-1.34235 0.0283779 0)
(-1.34317 0.0341541 0)
(-1.34386 0.0410932 0)
(-1.34438 0.0494036 0)
(-1.3447 0.0593168 0)
(-1.34471 0.0710804 0)
(-1.34425 0.0849445 0)
(-1.34308 0.101134 0)
(-1.34086 0.11981 0)
(-1.33714 0.141013 0)
(-1.33136 0.164585 0)
(-1.32293 0.190096 0)
(-1.31124 0.216776 0)
(-1.29589 0.243513 0)
(-0.0506589 -0.0275356 0)
(-0.160249 -0.068266 0)
(-0.282147 -0.094102 0)
(-0.407741 -0.106402 0)
(-0.529897 -0.107946 0)
(-0.644059 -0.101925 0)
(-0.747538 -0.0913182 0)
(-0.839195 -0.0785407 0)
(-0.919 -0.0653404 0)
(-0.987622 -0.0528469 0)
(-1.04611 -0.0416904 0)
(-1.09569 -0.0321404 0)
(-1.13757 -0.024226 0)
(-1.1729 -0.0178337 0)
(-1.20271 -0.0127779 0)
(-1.2279 -0.00884719 0)
(-1.24924 -0.00583089 0)
(-1.26735 -0.00353748 0)
(-1.28278 -0.00179907 0)
(-1.29596 -0.000473224 0)
(-1.30726 0.000557619 0)
(-1.31696 0.00138876 0)
(-1.32532 0.00209901 0)
(-1.33252 0.0027526 0)
(-1.33873 0.00340328 0)
(-1.34409 0.00409946 0)
(-1.34872 0.00488383 0)
(-1.3527 0.00579938 0)
(-1.35612 0.00688947 0)
(-1.35905 0.00820046 0)
(-1.36154 0.00978612 0)
(-1.36366 0.0117065 0)
(-1.36543 0.0140313 0)
(-1.36691 0.0168434 0)
(-1.36812 0.0202387 0)
(-1.3691 0.024331 0)
(-1.36984 0.0292504 0)
(-1.37036 0.0351486 0)
(-1.37065 0.0421972 0)
(-1.37065 0.0505878 0)
(-1.37031 0.0605255 0)
(-1.3695 0.0722237 0)
(-1.36804 0.0858845 0)
(-1.36568 0.101676 0)
(-1.3621 0.119693 0)
(-1.35687 0.13991 0)
(-1.34951 0.16212 0)
(-1.3395 0.185884 0)
(-1.32639 0.210483 0)
(-1.30986 0.234941 0)
(-0.0497046 -0.0194646 0)
(-0.157433 -0.0484628 0)
(-0.277852 -0.0670912 0)
(-0.40284 -0.0762099 0)
(-0.525457 -0.0776711 0)
(-0.641044 -0.0736595 0)
(-0.74665 -0.0662574 0)
(-0.840837 -0.0571871 0)
(-0.923304 -0.0477166 0)
(-0.994517 -0.038683 0)
(-1.0554 -0.0305654 0)
(-1.10708 -0.0235797 0)
(-1.15078 -0.0177625 0)
(-1.18763 -0.0130417 0)
(-1.2187 -0.00929078 0)
(-1.24491 -0.00635684 0)
(-1.26707 -0.00408918 0)
(-1.28585 -0.00234687 0)
(-1.30181 -0.00100611 0)
(-1.31542 3.82876e-05 0)
(-1.32705 0.00087508 0)
(-1.33703 0.00157723 0)
(-1.34561 0.00220697 0)
(-1.353 0.0028143 0)
(-1.35936 0.00344465 0)
(-1.36485 0.00413892 0)
(-1.36957 0.00493492 0)
(-1.37363 0.00587319 0)
(-1.37711 0.00699511 0)
(-1.38007 0.00834565 0)
(-1.38258 0.00997782 0)
(-1.38468 0.0119521 0)
(-1.38642 0.0143378 0)
(-1.38782 0.0172155 0)
(-1.38892 0.0206812 0)
(-1.38972 0.0248446 0)
(-1.39023 0.0298305 0)
(-1.39044 0.0357825 0)
(-1.39031 0.0428594 0)
(-1.3898 0.0512339 0)
(-1.38881 0.0610866 0)
(-1.38721 0.0725966 0)
(-1.38481 0.0859236 0)
(-1.38136 0.101187 0)
(-1.37655 0.118429 0)
(-1.36998 0.137576 0)
(-1.36125 0.158393 0)
(-1.34991 0.180442 0)
(-1.33561 0.203067 0)
(-1.31813 0.225411 0)
(-0.0490934 -0.0115955 0)
(-0.155619 -0.0289466 0)
(-0.275063 -0.0401803 0)
(-0.399624 -0.0457711 0)
(-0.522503 -0.0467791 0)
(-0.638985 -0.0444773 0)
(-0.745964 -0.0400959 0)
(-0.841806 -0.034666 0)
(-0.926033 -0.0289558 0)
(-0.998973 -0.023479 0)
(-1.06145 -0.0185331 0)
(-1.11456 -0.0142577 0)
(-1.15948 -0.0106806 0)
(-1.19737 -0.0077622 0)
(-1.22929 -0.00542706 0)
(-1.2562 -0.00358377 0)
(-1.27893 -0.00213975 0)
(-1.29816 -0.00100816 0)
(-1.31449 -0.000111133 0)
(-1.32839 0.000617159 0)
(-1.34027 0.00123387 0)
(-1.35044 0.00178771 0)
(-1.35917 0.0023212 0)
(-1.36668 0.00287077 0)
(-1.37315 0.00347104 0)
(-1.37872 0.00415363 0)
(-1.38351 0.00495294 0)
(-1.38762 0.00590399 0)
(-1.39113 0.00704645 0)
(-1.39411 0.00842333 0)
(-1.39661 0.0100859 0)
(-1.39869 0.0120931 0)
(-1.40037 0.0145147 0)
(-1.40168 0.017428 0)
(-1.40265 0.0209263 0)
(-1.40327 0.0251143 0)
(-1.40354 0.0301121 0)
(-1.40343 0.0360519 0)
(-1.4029 0.0430798 0)
(-1.40189 0.0513489 0)
(-1.40028 0.0610164 0)
(-1.39794 0.0722297 0)
(-1.39467 0.0851124 0)
(-1.39023 0.0997419 0)
(-1.38432 0.116119 0)
(-1.3766 0.134138 0)
(-1.36669 0.153548 0)
(-1.35425 0.173929 0)
(-1.33898 0.194682 0)
(-1.32074 0.215055 0)
(-0.0487952 -0.00384265 0)
(-0.154731 -0.00960003 0)
(-0.273692 -0.0133347 0)
(-0.398033 -0.0151974 0)
(-0.52103 -0.0155336 0)
(-0.637945 -0.014761 0)
(-0.745596 -0.0132864 0)
(-0.842257 -0.0114519 0)
(-0.927361 -0.00951511 0)
(-1.00116 -0.00764875 0)
(-1.06445 -0.00595271 0)
(-1.11828 -0.00447415 0)
(-1.16382 -0.00322267 0)
(-1.20223 -0.00218488 0)
(-1.23459 -0.0013337 0)
(-1.26186 -0.000637262 0)
(-1.28487 -6.32572e-05 0)
(-1.30434 0.000420916 0)
(-1.32085 0.00084475 0)
(-1.33491 0.00123461 0)
(-1.34691 0.00161469 0)
(-1.35718 0.00200738 0)
(-1.366 0.00243414 0)
(-1.37358 0.00291743 0)
(-1.3801 0.00347903 0)
(-1.38571 0.00414273 0)
(-1.39053 0.00493666 0)
(-1.39467 0.00589128 0)
(-1.39819 0.00704249 0)
(-1.40116 0.00843193 0)
(-1.40365 0.0101081 0)
(-1.40568 0.0121286 0)
(-1.40729 0.0145595 0)
(-1.40851 0.0174781 0)
(-1.40933 0.0209718 0)
(-1.40977 0.0251402 0)
(-1.4098 0.0300958 0)
(-1.40938 0.0359613 0)
(-1.40847 0.0428677 0)
(-1.40698 0.0509501 0)
(-1.4048 0.0603425 0)
(-1.40178 0.0711656 0)
(-1.39772 0.0835114 0)
(-1.3924 0.0974215 0)
(-1.38554 0.112868 0)
(-1.37682 0.129722 0)
(-1.36594 0.147729 0)
(-1.35259 0.166491 0)
(-1.33655 0.185469 0)
(-1.31772 0.204002 0)
(-0.0487955 0.00387212 0)
(-0.154732 0.00969018 0)
(-0.273693 0.0134883 0)
(-0.398035 0.0154187 0)
(-0.521033 0.0158262 0)
(-0.63795 0.0151297 0)
(-0.745602 0.0137362 0)
(-0.842266 0.0119909 0)
(-0.927372 0.0101506 0)
(-1.00118 0.00838922 0)
(-1.06447 0.00681016 0)
(-1.1183 0.0054631 0)
(-1.16384 0.00435997 0)
(-1.20226 0.00349159 0)
(-1.23462 0.0028351 0)
(-1.2619 0.00236456 0)
(-1.28492 0.00205335 0)
(-1.30439 0.00187732 0)
(-1.32092 0.00181765 0)
(-1.33498 0.00186087 0)
(-1.34699 0.00199682 0)
(-1.35727 0.00222247 0)
(-1.3661 0.00253751 0)
(-1.37368 0.00294851 0)
(-1.38021 0.00346589 0)
(-1.38583 0.0041047 0)
(-1.39065 0.00488507 0)
(-1.39478 0.00583429 0)
(-1.39829 0.006983 0)
(-1.40124 0.00837107 0)
(-1.40369 0.0100445 0)
(-1.40566 0.0120575 0)
(-1.4072 0.0144738 0)
(-1.40831 0.0173674 0)
(-1.409 0.02082 0)
(-1.40925 0.0249261 0)
(-1.40904 0.0297891 0)
(-1.40833 0.0355215 0)
(-1.40706 0.0422401 0)
(-1.40512 0.0500634 0)
(-1.40242 0.0591035 0)
(-1.39878 0.0694568 0)
(-1.39404 0.0811881 0)
(-1.38795 0.0943134 0)
(-1.38027 0.108781 0)
(-1.37073 0.124451 0)
(-1.35905 0.141069 0)
(-1.34498 0.158269 0)
(-1.32836 0.175562 0)
(-1.30911 0.192372 0)
(-0.0490942 0.0116243 0)
(-0.155622 0.0290357 0)
(-0.275068 0.0403334 0)
(-0.399631 0.045991 0)
(-0.522513 0.0470699 0)
(-0.639 0.0448438 0)
(-0.745982 0.0405438 0)
(-0.841831 0.0352022 0)
(-0.926065 0.029588 0)
(-0.999013 0.024216 0)
(-1.0615 0.0193874 0)
(-1.11462 0.0152426 0)
(-1.15956 0.0118134 0)
(-1.19746 0.00906406 0)
(-1.2294 0.0069225 0)
(-1.25633 0.00530292 0)
(-1.27907 0.00412093 0)
(-1.29833 0.00329577 0)
(-1.31468 0.00276159 0)
(-1.32861 0.00246338 0)
(-1.34051 0.0023589 0)
(-1.35071 0.00241891 0)
(-1.35947 0.00262214 0)
(-1.367 0.00295928 0)
(-1.37349 0.00342907 0)
(-1.37907 0.0040376 0)
(-1.38386 0.00479876 0)
(-1.38795 0.00573312 0)
(-1.39143 0.0068688 0)
(-1.39434 0.00824253 0)
(-1.39673 0.0098969 0)
(-1.39865 0.0118826 0)
(-1.4001 0.0142604 0)
(-1.4011 0.0170995 0)
(-1.40165 0.0204768 0)
(-1.40172 0.0244801 0)
(-1.4013 0.029204 0)
(-1.40031 0.0347503 0)
(-1.3987 0.0412222 0)
(-1.39637 0.0487226 0)
(-1.3932 0.0573441 0)
(-1.38903 0.0671609 0)
(-1.38369 0.0782165 0)
(-1.37695 0.0905071 0)
(-1.3686 0.103965 0)
(-1.35839 0.118443 0)
(-1.34608 0.133699 0)
(-1.33147 0.149393 0)
(-1.31443 0.165089 0)
(-1.29493 0.180283 0)
(-0.0497058 0.0194929 0)
(-0.157437 0.0485506 0)
(-0.277859 0.0672429 0)
(-0.402851 0.076428 0)
(-0.525474 0.0779595 0)
(-0.641067 0.0740231 0)
(-0.74668 0.0667021 0)
(-0.840877 0.0577186 0)
(-0.923356 0.0483433 0)
(-0.994583 0.0394143 0)
(-1.05548 0.0314125 0)
(-1.10718 0.0245564 0)
(-1.15089 0.0188861 0)
(-1.18777 0.0143329 0)
(-1.21887 0.0107735 0)
(-1.24511 0.00806161 0)
(-1.2673 0.00605285 0)
(-1.28612 0.00461428 0)
(-1.30212 0.0036321 0)
(-1.31577 0.00301143 0)
(-1.32745 0.00268048 0)
(-1.33748 0.00258315 0)
(-1.3461 0.00267946 0)
(-1.35353 0.0029445 0)
(-1.35992 0.00336556 0)
(-1.36543 0.00394089 0)
(-1.37015 0.00467729 0)
(-1.37419 0.00558955 0)
(-1.37761 0.00670288 0)
(-1.38046 0.00804936 0)
(-1.38279 0.00966865 0)
(-1.38463 0.0116083 0)
(-1.386 0.0139244 0)
(-1.38689 0.0166813 0)
(-1.3873 0.0199515 0)
(-1.38721 0.0238152 0)
(-1.38658 0.0283578 0)
(-1.38535 0.0336711 0)
(-1.38345 0.0398452 0)
(-1.38077 0.0469675 0)
(-1.37719 0.0551139 0)
(-1.37257 0.0643412 0)
(-1.36673 0.0746749 0)
(-1.35947 0.0860948 0)
(-1.35058 0.0985253 0)
(-1.33985 0.111817 0)
(-1.32707 0.125742 0)
(-1.31209 0.139989 0)
(-1.29479 0.154171 0)
(-1.27517 0.167846 0)
(-0.0506607 0.0275635 0)
(-0.160254 0.0683533 0)
(-0.282156 0.0942523 0)
(-0.407757 0.106619 0)
(-0.529919 0.108231 0)
(-0.644091 0.102285 0)
(-0.74758 0.0917572 0)
(-0.83925 0.0790657 0)
(-0.919071 0.0659592 0)
(-0.987711 0.0535691 0)
(-1.04623 0.0425276 0)
(-1.09583 0.0331057 0)
(-1.13773 0.0253363 0)
(-1.1731 0.0191085 0)
(-1.20295 0.0142422 0)
(-1.22818 0.0105306 0)
(-1.24956 0.00776952 0)
(-1.26772 0.00577451 0)
(-1.28321 0.00438762 0)
(-1.29645 0.00347754 0)
(-1.30781 0.00294205 0)
(-1.31758 0.00270302 0)
(-1.32599 0.00270209 0)
(-1.33325 0.0029 0)
(-1.33951 0.0032743 0)
(-1.3449 0.00381502 0)
(-1.34953 0.00452213 0)
(-1.35349 0.0054062 0)
(-1.35683 0.00648839 0)
(-1.35961 0.00779586 0)
(-1.36186 0.00936524 0)
(-1.36362 0.0112408 0)
(-1.3649 0.0134736 0)
(-1.36569 0.0161239 0)
(-1.36597 0.0192581 0)
(-1.36573 0.0229487 0)
(-1.36492 0.027273 0)
(-1.36348 0.032312 0)
(-1.36132 0.038144 0)
(-1.35835 0.0448424 0)
(-1.35444 0.0524691 0)
(-1.34944 0.0610655 0)
(-1.34321 0.0706428 0)
(-1.33554 0.0811701 0)
(-1.32624 0.0925665 0)
(-1.31514 0.104686 0)
(-1.30205 0.117317 0)
(-1.28685 0.130177 0)
(-1.26945 0.142922 0)
(-1.24985 0.15517 0)
(-0.0520078 0.0359344 0)
(-0.164196 0.0885678 0)
(-0.288096 0.12138 0)
(-0.414436 0.136413 0)
(-0.535846 0.137576 0)
(-0.647967 0.129203 0)
(-0.748491 0.115226 0)
(-0.836705 0.0987536 0)
(-0.91294 0.0819764 0)
(-0.978131 0.0662734 0)
(-1.0335 0.0523862 0)
(-1.08033 0.0406069 0)
(-1.11988 0.0309381 0)
(-1.15328 0.023216 0)
(-1.18151 0.0171962 0)
(-1.20543 0.0126109 0)
(-1.22576 0.00919814 0)
(-1.24309 0.00672469 0)
(-1.2579 0.00499188 0)
(-1.27061 0.00383607 0)
(-1.28155 0.00312784 0)
(-1.29097 0.00276864 0)
(-1.29912 0.00268454 0)
(-1.30616 0.00282409 0)