/*--------------------------------*- C++ -*----------------------------------*\
  =========                 |
  \\      /  F ield         | OpenFOAM: The Open Source CFD Toolbox
   \\    /   O peration     | Website:  https://openfoam.org
    \\  /    A nd           | Version:  6
     \\/     M anipulation  |
\*---------------------------------------------------------------------------*/
FoamFile
{
    version     2.0;
    format      ascii;
    class       volScalarField;
    location    "0";
    object      p;
}
// * * * * * * * * * * * * * * * * * * * * * * * * * * * * * * * * * * * * * //

dimensions      [0 2 -2 0 0 0 0];

internalField   nonuniform List<scalar> 
9000
(
116.296
64.6135
50.2839
44.2288
41.0772
39.2746
38.1081
37.2642
36.596
36.027
35.5144
35.0331
34.5681
34.1104
33.6546
33.1976
32.738
32.2749
31.8084
31.3386
30.8658
30.3906
29.9133
29.4345
28.9546
28.474
27.9929
27.5119
27.0311
26.551
26.0718
25.5939
25.1176
24.6435
24.1719
23.7035
23.239
22.7793
22.3255
21.8792
21.4424
21.0179
20.6098
20.224
19.8689
19.5562
19.2913
19.0449
19.0417
17.9879
87.5888
61.3387
50.9249
45.3343
42.05
40.0117
38.6452
37.6528
36.8776
36.2314
35.6629
35.1409
34.646
34.1664
33.6946
33.226
32.7578
32.2887
31.8178
31.345
30.8701
30.3935
29.9153
29.4359
28.9556
28.4747
27.9935
27.5124
27.0316
26.5513
26.072
25.5938
25.1171
24.6423
24.1698
23.7001
23.2338
22.7715
22.3142
21.863
21.4191
20.9843
20.5607
20.1508
19.7568
19.3787
19.0045
18.5861
18.1096
16.5945
70.2042
57.6685
50.7948
45.9243
42.729
40.5963
39.1054
38.0035
37.1413
36.4285
35.8094
35.2493
34.7258
34.2248
33.737
33.2565
32.7797
32.3042
31.8287
31.3525
30.8753
30.397
29.9177
29.4376
28.9568
28.4756
27.9942
27.5129
27.0319
26.5514
26.0718
25.5932
25.1159
24.6403
24.1667
23.6954
23.2269
22.7616
22.3002
21.8431
21.3911
20.9445
20.5036
20.0675
19.6328
19.1896
18.712
18.1318
17.3702
15.9518
60.8053
54.1385
49.6015
45.7041
42.8836
40.8561
39.3657
38.2299
37.3266
36.5754
35.9238
35.3371
34.7926
34.2751
33.7745
33.2843
32.8001
32.319
31.8394
31.3602
30.8808
30.4009
29.9204
29.4395
28.9581
28.4765
27.9948
27.5132
27.0319
26.5512
26.0711
25.592
25.1141
24.6375
24.1626
23.6897
23.2189
22.7505
22.2848
21.822
21.3619
20.904
20.4471
19.9879
19.5196
19.028
18.4841
17.8251
16.9795
15.7341
54.5827
51.0002
48.0452
45.073
42.7126
40.8872
39.4732
38.3559
37.4463
36.6795
36.0102
35.4069
34.8478
34.3181
33.8076
33.3095
32.8191
32.3332
31.8499
31.3679
30.8864
30.405
29.9234
29.4415
28.9595
28.4774
27.9953
27.5134
27.0318
26.5506
26.0701
25.5904
25.1117
24.6341
24.1579
23.6831
23.21
22.7385
22.2686
21.8
21.3322
20.864
20.3927
19.9141
19.4196
18.8943
18.3115
17.6229
16.7755
15.6805
50.1143
48.3363
46.4758
44.2716
42.3543
40.7639
39.4663
38.4012
37.5104
36.7459
36.0712
35.4597
34.8918
34.3538
33.8361
33.3319
32.8364
32.3465
31.86
31.3755
30.8921
30.4091
29.9264
29.4437
28.961
28.4784
27.9958
27.5135
27.0314
26.5498
26.0688
25.5884
25.1089
24.6302
24.1526
23.676
23.2005
22.7259
22.252
21.7781
21.3033
20.8257
20.3424
19.8481
19.3344
18.7872
18.1845
17.4917
16.674
15.7037
46.877
46.1353
45.0143
43.4143
41.8893
40.5353
39.3727
38.3806
37.5264
36.7781
36.1084
35.496
34.9246
34.3821
33.8597
33.3511
32.8518
32.3586
31.8694
31.3827
30.8976
30.4132
29.9294
29.4459
28.9625
28.4793
27.9963
27.5134
27.0309
26.5488
26.0672
25.5862
25.1057
24.626
24.147
23.6686
23.1908
22.7133
22.2356
21.7569
21.2759
20.7905
20.2975
19.7916
19.2649
18.7053
18.096
17.4136
16.6378
15.7702
44.4943
44.3345
43.705
42.5669
41.3741
40.2411
39.2175
38.3091
37.5031
36.781
36.1243
35.5173
34.9469
34.4031
33.8783
33.367
32.865
32.3694
31.878
31.3895
30.9028
30.4172
29.9324
29.448
28.9639
28.4801
27.9966
27.5133
27.0303
26.5477
26.0654
25.5837
25.1024
24.6216
24.1412
23.6612
23.1812
22.701
22.2199
21.737
21.2509
20.7593
20.259
19.7451
19.2107
18.6461
18.039
17.3749
16.6437
15.8593
42.7004
42.8636
42.5594
41.7685
40.8487
39.9126
39.0228
38.2012
37.4496
36.7602
36.1224
35.5254
34.9596
34.4173
33.8922
33.3797
32.8761
32.3787
31.8857
31.3957
30.9076
30.421
29.9352
29.45
28.9653
28.4809
27.9968
27.513
27.0295
26.5464
26.0635
25.581
25.0989
24.617
24.1354
23.6538
23.1719
22.6893
22.2053
21.719
21.2287
20.7324
20.227
19.7083
19.1705
18.6062
18.007
17.3646
16.6758
15.958
41.3219
41.661
41.572
41.0394
40.3395
39.5735
38.8065
38.0698
37.3747
36.7216
36.1063
35.5226
34.9643
34.4256
33.9019
33.3894
32.885
32.3866
31.8924
31.4012
30.9121
30.4244
29.9378
29.4519
28.9665
28.4816
27.997
27.5127
27.0287
26.5449
26.0615
25.5783
25.0953
24.6125
24.1297
23.6467
23.1631
22.6785
22.1921
21.703
21.2096
20.7101
20.2016
19.6806
19.1426
18.5822
17.994
17.3742
16.7234
16.0593
40.245
40.6761
40.7297
40.3881
39.8628
39.2404
38.5831
37.9258
37.2861
36.6705
36.0796
35.5114
34.9624
34.429
33.9079
33.3963
32.892
32.3931
31.8981
31.406
30.916
30.4275
29.9402
29.4536
28.9676
28.4821
27.997
27.5122
27.0277
26.5434
26.0594
25.5755
25.0918
24.6081
24.1242
23.6399
23.1549
22.6686
22.1804
21.6892
21.1937
20.6921
20.1822
19.661
19.1252
18.571
17.9955
17.3974
16.78
16.1589
39.3927
39.8688
40.0169
39.8161
39.4282
38.9251
38.3631
37.778
37.1906
36.6117
36.0459
35.494
34.9554
34.4283
33.9108
33.401
32.8973
32.3983
31.9029
31.4102
30.9195
30.4303
29.9423
29.4551
28.9686
28.4825
27.9969
27.5116
27.0266
26.5419
26.0573
25.5728
25.0884
24.6038
24.119
23.6337
23.1475
22.6599
22.1702
21.6776
21.1808
20.6784
20.1683
19.6485
19.1165
18.5699
18.0074
17.4297
16.8409
16.2547
38.7125
39.2077
39.4187
39.3214
39.041
38.6356
38.1549
37.6336
37.094
36.5497
36.0081
35.4728
34.945
34.4248
33.9113
33.4038
32.9011
32.4024
31.9068
31.4137
30.9225
30.4327
29.9441
29.4564
28.9693
28.4828
27.9967
27.511
27.0255
26.5403
26.0551
25.5701
25.085
24.5998
24.1142
23.628
23.1409
22.6523
22.1616
21.6682
21.1708
20.6684
20.1593
19.642
19.1148
18.5765
18.0268
17.4676
16.9033
16.3454
38.1682
38.6688
38.9217
38.9006
38.7034
38.3768
37.9643
37.498
37.0009
36.4882
35.9693
35.4497
34.9326
34.4193
33.9101
33.4051
32.9037
32.4055
31.9099
31.4166
30.9249
30.4347
29.9456
29.4574
28.9699
28.483
27.9964
27.5102
27.0243
26.5386
26.053
25.5675
25.0818
24.596
24.1098
23.6229
23.135
22.6458
22.1546
21.6607
21.1634
20.6617
20.1543
19.6403
19.1186
18.5887
18.0512
17.5085
16.965
16.4303
37.7344
38.2337
38.5147
38.5492
38.4159
38.1522
37.7955
37.3756
36.9152
36.4302
35.9317
35.4266
34.9194
34.4127
33.9078
33.4053
32.9053
32.4077
31.9124
31.4189
30.927
30.4364
29.9469
29.4582
28.9703
28.4829
27.996
27.5094
27.0231
26.537
26.0509
25.5649
25.0788
24.5925
24.1057
23.6183
23.13
22.6403
22.1489
21.6551
21.1583
20.6578
20.1527
19.6424
19.1264
18.6048
18.0787
17.5506
17.0248
16.5092
37.3936
37.8888
38.1883
38.2633
38.1784
37.9637
37.6516
37.2696
36.8397
36.3784
35.8974
35.405
34.9067
34.406
33.9049
33.4048
32.9062
32.4093
31.9142
31.4206
30.9285
30.4376
29.9478
29.4588
28.9705
28.4827
27.9954
27.5085
27.0218
26.5353
26.0489
25.5625
25.0759
24.5892
24.102
23.6142
23.1256
22.6358
22.1444
21.651
21.1551
20.6562
20.1538
19.6474
19.1372
18.6235
18.1077
17.5924
17.0816
16.5818
37.1332
37.6235
37.9353
38.0391
37.9899
37.8122
37.5345
37.1824
36.7769
36.3346
35.868
35.3862
34.8953
34.3997
33.902
33.404
32.9066
32.4104
31.9155
31.4219
30.9296
30.4385
29.9484
29.4591
28.9704
28.4824
27.9948
27.5075
27.0205
26.5336
26.0469
25.5601
25.0732
24.5861
24.0986
23.6106
23.1218
22.632
22.1409
21.6482
21.1535
20.6564
20.1568
19.6545
19.1498
18.6435
18.137
17.6329
17.1348
16.6481
36.9445
37.4306
37.7502
37.8737
37.8495
37.6983
37.4458
37.1156
36.7283
36.3005
35.8449
35.3712
34.8861
34.3944
33.8994
33.4031
32.9067
32.411
31.9163
31.4227
30.9304
30.439
29.9487
29.4591
28.9702
28.4819
27.994
27.5064
27.0191
26.532
26.0449
25.5578
25.0707
24.5833
24.0956
23.6074
23.1186
22.629
22.1383
21.6464
21.153
20.6579
20.1611
19.6628
19.1634
18.6638
18.1656
17.6713
17.184
16.7082
36.8217
37.3046
37.6289
37.7647
37.7565
37.6224
37.3862
37.0705
36.6953
36.2771
35.829
35.3607
34.8796
34.3907
33.8975
33.4023
32.9066
32.4113
31.9167
31.4232
30.9307
30.4392
29.9486
29.4589
28.9697
28.4812
27.993
27.5052
27.0177
26.5303
26.0429
25.5556
25.0682
24.5806
24.0928
23.6045
23.1158
22.6265
22.1363
21.6453
21.1533
20.6602
20.1663
19.6717
19.1772
18.6838
18.1929
17.707
17.2287
16.7621
36.7611
37.2425
37.5688
37.7106
37.7101
37.5844
37.3563
37.0478
36.6786
36.2653
35.8208
35.3553
34.8762
34.3887
33.8964
33.4018
32.9064
32.4113
31.9168
31.4232
30.9306
30.439
29.9483
29.4584
28.9691
28.4803
27.992
27.5039
27.0162
26.5285
26.041
25.5534
25.0658
24.5781
24.0901
23.6019
23.1133
22.6243
22.1347
21.6447
21.154
20.663
20.1717
19.6807
19.1907
18.7026
18.2182
17.7394
17.2689
16.8098
36.7611
37.2424
37.5688
37.7106
37.7101
37.5844
37.3563
37.0478
36.6786
36.2652
35.8208
35.3553
34.8761
34.3886
33.8963
33.4016
32.9062
32.411
31.9165
31.4228
30.9302
30.4385
29.9477
29.4576
28.9682
28.4793
27.9908
27.5026
27.0146
26.5268
26.039
25.5513
25.0635
24.5756
24.0876
23.5994
23.111
22.6223
22.1334
21.6442
21.155
20.6658
20.177
19.6892
19.2032
18.7199
18.241
17.7684
17.3043
16.8515
36.8216
37.3046
37.6288
37.7647
37.7564
37.6223
37.3861
37.0705
36.6952
36.277
35.8288
35.3605
34.8794
34.3904
33.8971
33.4018
32.906
32.4105
31.9158
31.4221
30.9294
30.4376
29.9468
29.4566
28.9671
28.4781
27.9895
27.5011
27.013
26.525
26.0371
25.5491
25.0612
24.5732
24.0852
23.597
23.1087
22.6204
22.1321
21.6438
21.1558
20.6683
20.1818
19.6969
19.2143
18.7352
18.261
17.7936
17.3348
16.8872
36.9443
37.4305
37.7501
37.8736
37.8494
37.6983
37.4457
37.1155
36.7282
36.3003
35.8447
35.3709
34.8857
34.394
33.8988
33.4023
32.9057
32.4098
31.9148
31.421
30.9282
30.4364
29.9455
29.4554
28.9658
28.4768
27.988
27.4996
27.0113
26.5232
26.0351
25.547
25.0589
24.5708
24.0827
23.5946
23.1065
22.6184
22.1306
21.6431
21.1562
20.6703
20.1858
19.7033
19.2237
18.7482
18.278
17.8148
17.3604
16.9171
37.133
37.6234
37.9352
38.039
37.9898
37.8121
37.5344
37.1822
36.7767
36.3344
35.8677
35.3858
34.8948
34.399
33.9012
33.4029
32.9053
32.4087
31.9134
31.4195
30.9267
30.4349
29.9441
29.4539
28.9644
28.4753
27.9865
27.498
27.0096
26.5213
26.0331
25.5448
25.0566
24.5684
24.0802
23.5921
23.1041
22.6163
22.1289
21.6421
21.1561
20.6715
20.1886
19.7082
19.2311
18.7585
18.2916
17.8319
17.3811
16.9411
37.3934
37.8886
38.1881
38.2632
38.1783
37.9635
37.6514
37.2694
36.8395
36.3781
35.897
35.4045
34.906
34.4051
33.9039
33.4035
32.9046
32.4073
31.9116
31.4175
30.9247
30.4331
29.9423
29.4523
28.9628
28.4737
27.9849
27.4963
27.0078
26.5194
26.031
25.5426
25.0543
24.5659
24.0776
23.5894
23.1014
22.6138
22.1267
21.6404
21.1552
20.6716
20.1901
19.7113
19.2363
18.766
18.3017
17.8448
17.3968
16.9595
37.7342
38.2335
38.5145
38.5491
38.4158
38.1521
37.7953
37.3754
36.9149
36.4299
35.9312
35.426
34.9187
34.4118
33.9066
33.4037
32.9033
32.4053
31.9093
31.4151
30.9224
30.4309
29.9403
29.4504
28.961
28.4719
27.9832
27.4945
27.006
26.5175
26.0289
25.5404
25.0518
24.5633
24.0749
23.5866
23.0986
22.611
22.1241
21.6381
21.1534
20.6705
20.19
19.7126
19.2391
18.7706
18.3082
17.8534
17.4075
16.9722
38.1678
38.6685
38.9215
38.9004
38.7032
38.3767
37.9641
37.4978
37.0007
36.4878
35.9688
35.4491
34.9318
34.4182
33.9087
33.4033
32.9014
32.4027
31.9065
31.4123
30.9197
30.4284
29.938
29.4483
28.9591
28.4701
27.9814
27.4927
27.0041
26.5155
26.0268
25.5381
25.0493
24.5606
24.072
23.5835
23.0953
22.6077
22.1208
21.6349
21.1506
20.6681
20.1883
19.7117
19.2393
18.7721
18.3112
17.8578
17.4134
16.9794
38.7122
39.2074
39.4185
39.3213
39.0408
38.6354
38.1547
37.6333
37.0937
36.5493
36.0076
35.4721
34.9441
34.4236
33.9098
33.4018
32.8986
32.3993
31.9029
31.4089
30.9166
30.4256
29.9355
29.4461
28.957
28.4682
27.9796
27.4909
27.0023
26.5135
26.0247
25.5358
25.0468
24.5578
24.0689
23.5801
23.0917
22.6039
22.1168
21.6309
21.1466
20.6644
20.1848
19.7087
19.2369
18.7704
18.3104
17.8579
17.4144
16.9812
39.3924
39.8685
40.0167
39.8159
39.4281
38.9249
38.3629
37.7778
37.1903
36.6113
36.0453
35.4933
34.9545
34.4271
33.9092
33.3989
32.8946
32.395
31.8987
31.405
30.9131
30.4225
29.9329
29.4437
28.9549
28.4663
27.9777
27.4891
27.0004
26.5115
26.0225
25.5334
25.0441
24.5548
24.0656
23.5765
23.0878
22.5996
22.1122
21.626
21.1415
20.6591
20.1795
19.7035
19.2318
18.7656
18.3059
17.8538
17.4106
16.9777
40.2447
40.6758
40.7295
40.3879
39.8626
39.2402
38.5829
37.9256
37.2858
36.67
36.0791
35.5107
34.9614
34.4277
33.9062
33.3942
32.8892
32.3896
31.8937
31.4005
30.9092
30.4192
29.93
29.4413
28.9528
28.4644
27.9759
27.4873
26.9986
26.5096
26.0204
25.531
25.0414
24.5518
24.0621
23.5726
23.0834
22.5947
22.1068
21.6202
21.1351
20.6523
20.1723
19.696
19.2241
18.7576
18.2977
17.8455
17.4021
16.969
41.3216
41.6607
41.5718
41.0393
40.3393
39.5733
38.8064
38.0696
37.3744
36.7212
36.1058
35.5219
34.9633
34.4243
33.9002
33.3872
32.8822
32.383
31.8878
31.3954
30.9049
30.4156
29.927
29.4387
28.9506
28.4625
27.9741
27.4856
26.9968
26.5077
26.0183
25.5286
25.0387
24.5486
24.0585
23.5684
23.0786
22.5893
22.1007
21.6134
21.1276
20.644
20.1633
19.6862
19.2136
18.7465
18.2859
17.833
17.3889
16.9551
42.7
42.8634
42.5592
41.7683
40.8486
39.9125
39.0226
38.201
37.4493
36.7599
36.122
35.5247
34.9587
34.4161
33.8906
33.3775
32.8732
32.3751
31.881
31.3898
30.9003
30.4118
29.9239
29.4362
28.9485
28.4606
27.9725
27.484
26.9951
26.5059
26.0163
25.5263
25.036
24.5454
24.0547
23.564
23.0735
22.5834
22.094
21.6056
21.1189
20.6343
20.1525
19.6743
19.2005
18.7322
18.2705
17.8164
17.3712
16.9361
44.494
44.3343
43.7048
42.5667
41.374
40.241
39.2174
38.3089
37.5029
36.7807
36.1239
35.5167
34.946
34.4019
33.8768
33.3649
32.8623
32.3658
31.8734
31.3836
30.8953
30.4079
29.9208
29.4337
28.9465
28.4589
27.9709
27.4825
26.9936
26.5042
26.0143
25.524
25.0333
24.5422
24.0509
23.5595
23.0681
22.577
22.0865
21.5971
21.1091
20.6231
20.1399
19.6602
19.1848
18.7149
18.2515
17.7958
17.3489
16.9121
46.8768
46.1351
45.0142
43.4142
41.8892
40.5353
39.3726
38.3805
37.5263
36.7779
36.1081
35.4955
34.9239
34.3811
33.8583
33.3491
32.8492
32.3552
31.8649
31.3769
30.8901
30.4039
29.9177
29.4313
28.9446
28.4573
27.9695
27.4812
26.9922
26.5027
26.0126
25.5219
25.0307
24.539
24.047
23.5547
23.0624
22.5702
22.0785
21.5877
21.0982
20.6106
20.1256
19.6439
19.1666
18.6947
18.2291
17.7712
17.3221
16.8832
50.1141
48.3362
46.4756
44.2716
42.3543
40.7639
39.4663
38.4012
37.5103
36.7458
36.071
35.4593
34.8912
34.353
33.8349
33.3301
32.834
32.3433
31.8557
31.3699
30.8848
30.3999
29.9147
29.4291
28.9429
28.456
27.9684
27.4801
26.9911
26.5014
26.011
25.5199
25.0282
24.5359
24.0431
23.55
23.0566
22.5632
22.0701
21.5776
21.0863
20.5968
20.1096
19.6257
19.146
18.6715
18.2034
17.7428
17.2911
16.8495
54.5825
51
48.0452
45.0729
42.7126
40.8872
39.4732
38.356
37.4463
36.6796
36.0102
35.4067
34.8474
34.3174
33.8066
33.308
32.817
32.3303
31.846
31.3626
30.8795
30.396
29.912
29.4271
28.9414
28.4549
27.9675
27.4793
26.9902
26.5003
26.0096
25.5182
25.0259
24.533
24.0394
23.5452
23.0506
22.5559
22.0612
21.567
21.0736
20.5818
20.0922
19.6057
19.1231
18.6456
18.1744
17.7106
17.2557
16.8111
60.8052
54.1384
49.6014
45.7041
42.8837
40.8562
39.3658
38.23
37.3267
36.5756
35.9239
35.3371
34.7924
34.2747
33.7738
33.2831
32.7983
32.3165
31.8359
31.3554
30.8743
30.3924
29.9095
29.4255
28.9404
28.4542
27.967
27.4788
26.9896
26.4996
26.0086
25.5167
25.0239
24.5302
24.0358
23.5405
23.0447
22.5485
22.052
21.5558
21.0603
20.5659
20.0735
19.5839
19.0981
18.6171
18.1423
17.6749
17.2163
16.768
70.2041
57.6684
50.7948
45.9244
42.7291
40.5965
39.1056
38.0038
37.1416
36.4288
35.8097
35.2495
34.7259
34.2247
33.7366
33.2557
32.7784
32.3021
31.8257
31.3483
30.8695
30.3893
29.9075
29.4243
28.9397
28.4539
27.9668
27.4787
26.9895
26.4992
26.0079
25.5155
25.0222
24.5278
24.0324
23.536
23.0389
22.541
22.0427
21.5443
21.0462
20.549
20.0534
19.5603
19.0707
18.5857
18.1067
17.635
17.1721
16.7195
87.5888
61.3387
50.9249
45.3344
42.0501
40.0119
38.6455
37.6532
36.878
36.2319
35.6634
35.1414
34.6464
34.1667
33.6946
33.2257
32.7571
32.2873
31.8156
31.3416
30.8652
30.3867
29.9061
29.4237
28.9396
28.4541
27.9672
27.479
26.9897
26.4993
26.0076
25.5148
25.0209
24.5257
24.0293
23.5317
23.033
22.5334
22.0329
21.532
21.031
20.5305
20.0312
19.534
19.0399
18.5502
18.0662
17.5893
17.1213
16.6636
116.296
64.6135
50.284
44.2289
41.0774
39.2749
38.1086
37.2647
36.5965
36.0276
35.5151
35.0338
34.5688
34.111
33.655
33.1978
32.7378
32.2742
31.8069
31.336
30.8619
30.3848
29.9053
29.4236
28.9399
28.4546
27.9679
27.4797
26.9903
26.4996
26.0077
25.5145
25.02
24.5241
24.0268
23.5281
23.028
22.5266
22.0241
21.5208
21.0169
20.5132
20.0103
19.5091
19.0106
18.5162
18.0272
17.5452
17.072
16.6093
8.33889
10.3012
10.4129
10.8019
11.0135
11.1652
11.2557
11.3054
11.3229
11.3153
11.2876
11.2434
11.1856
11.1163
11.0374
10.9501
10.8558
10.7554
10.6499
10.5398
10.426
10.3088
10.1889
10.0666
9.94222
9.81618
9.68871
9.56005
9.43041
9.29996
9.16886
9.03724
8.90521
8.77286
8.64027
8.50752
8.37465
8.24171
8.10875
7.97578
7.84283
7.70993
7.57708
7.4443
7.31159
7.17895
7.0464
6.91392
6.78152
6.64919
6.51694
6.38475
6.25264
6.12058
5.98857
5.85662
5.72472
5.59285
5.46103
5.32924
5.19749
5.06576
4.93405
4.80237
4.67071
4.53906
4.40743
4.27581
4.1442
4.0126
3.88101
3.74943
3.61785
3.48627
3.3547
3.22314
3.09157
2.96001
2.82845
2.69689
2.56533
2.43378
2.30222
2.17066
2.03911
1.90755
1.776
1.64444
1.51289
1.38134
1.24978
1.11823
0.986672
0.855117
0.723563
0.592008
0.460454
0.328897
0.19735
0.0657704
10.7788
11.3332
11.0382
11.2031
11.2965
11.3758
11.4191
11.4353
11.4276
11.4005
11.3571
11.3001
11.2316
11.1534
11.0669
10.9734
10.8738
10.7689
10.6596
10.5465
10.4301
10.3108
10.1892
10.0656
9.94018
9.81335
9.68531
9.55625
9.42636
9.29578
9.16465
9.03307
8.90114
8.76894
8.63654
8.50399
8.37135
8.23864
8.10591
7.97317
7.84046
7.70777
7.57513
7.44254
7.31002
7.17755
7.04516
6.91282
6.78056
6.64835
6.51621
6.38412
6.25209
6.12011
5.98817
5.85628
5.72443
5.59261
5.46083
5.32908
5.19735
5.06565
4.93397
4.8023
4.67066
4.53902
4.4074
4.27579
4.14419
4.0126
3.88101
3.74943
3.61785
3.48628
3.35471
3.22315
3.09159
2.96002
2.82846
2.6969
2.56535
2.43379
2.30223
2.17068
2.03912
1.90756
1.77601
1.64445
1.5129
1.38134
1.24979
1.11823
0.986676
0.855121
0.723566
0.59201
0.460455
0.328898
0.197347
0.065776
12.1156
12.0827
11.6068
11.5967
11.5843
11.5933
11.5887
11.5702
11.5364
11.4889
11.4291
11.3588
11.2793
11.1919
11.0977
10.9976
10.8925
10.7831
10.67
10.5536
10.4346
10.3132
10.1899
10.0648
9.93836
9.8107
9.68205
9.55257
9.4224
9.29166
9.16048
9.02893
8.89709
8.76503
8.63281
8.50046
8.36803
8.23556
8.10306
7.97055
7.83806
7.70559
7.57316
7.44077
7.30843
7.17614
7.0439
6.91171
6.77958
6.6475
6.51546
6.38347
6.25153
6.11963
5.98776
5.85593
5.72414
5.59237
5.46063
5.32891
5.19722
5.06554
4.93388
4.80223
4.6706
4.53898
4.40737
4.27577
4.14418
4.01259
3.88101
3.74944
3.61786
3.48629
3.35473
3.22316
3.0916
2.96004
2.82848
2.69692
2.56536
2.4338
2.30225
2.17069
2.03913
1.90757
1.77602
1.64446
1.51291
1.38135
1.24979
1.11824
0.986681
0.855125
0.723569
0.592012
0.460456
0.328899
0.197344
0.0657813
13.031
12.6714
12.1115
11.9685
11.8673
11.8116
11.7607
11.7077
11.6476
11.5793
11.5029
11.419
11.3282
11.2313
11.1292
11.0225
10.9119
10.7978
10.6807
10.5612
10.4394
10.3159
10.1907
10.0643
9.93669
9.80818
9.6789
9.54897
9.4185
9.2876
9.15635
9.02482
8.89306
8.76114
8.62908
8.49693
8.36472
8.23246
8.10019
7.96791
7.83564
7.70339
7.57117
7.43898
7.30682
7.1747
7.04262
6.91059
6.77859
6.64663
6.5147
6.38281
6.25096
6.11914
5.98734
5.85558
5.72384
5.59212
5.46042
5.32874
5.19707
5.06542
4.93379
4.80216
4.67055
4.53894
4.40734
4.27575
4.14417
4.01259
3.88101
3.74944
3.61787
3.4863
3.35474
3.22317
3.09161
2.96005
2.82849
2.69693
2.56537
2.43382
2.30226
2.1707
2.03914
1.90759
1.77603
1.64447
1.51291
1.38136
1.2498
1.11824
0.986686
0.855129
0.723571
0.592014
0.460457
0.328899
0.197341
0.0657865
13.6962
13.1528
12.5546
12.3127
12.1392
12.0261
11.9321
11.8459
11.7598
11.6709
11.5777
11.48
11.3778
11.2715
11.1614
11.048
10.9316
10.8128
10.6918
10.5689
10.4445
10.3187
10.1917
10.0638
9.93513
9.80575
9.67582
9.54543
9.41466
9.28358
9.15225
9.02073
8.88905
8.75725
8.62536
8.4934
8.3614
8.22936
8.09732
7.96527
7.83322
7.70119
7.56917
7.43717
7.3052
7.17326
7.04134
6.90945
6.77758
6.64575
6.51393
6.38215
6.25038
6.11864
5.98692
5.85522
5.72353
5.59186
5.4602
5.32856
5.19693
5.06531
4.93369
4.80209
4.67049
4.5389
4.40731
4.27573
4.14416
4.01258
3.88101
3.74944
3.61788
3.48631
3.35475
3.22319
3.09162
2.96006
2.8285
2.69695
2.56539
2.43383
2.30227
2.17071
2.03915
1.9076
1.77604
1.64448
1.51292
1.38136
1.24981
1.11825
0.98669
0.855132
0.723574
0.592016
0.460458
0.3289
0.197339
0.0657916
14.1851
13.5513
12.9412
12.6276
12.3964
12.2337
12.1003
11.9828
11.8717
11.7625
11.6528
11.5414
11.4278
11.3119
11.1938
11.0736
10.9516
10.828
10.703
10.5769
10.4497
10.3216
10.1928
10.0635
9.93364
9.80338
9.67279
9.54193
9.41084
9.27958
9.14817
9.01665
8.88504
8.75336
8.62163
8.48987
8.35807
8.22626
8.09444
7.96261
7.83079
7.69897
7.56716
7.43536
7.30358
7.1718
7.04005
6.9083
6.77657
6.64486
6.51316
6.38147
6.2498
6.11814
5.98649
5.85485
5.72322
5.5916
5.45999
5.32838
5.19678
5.06519
4.9336
4.80201
4.67043
4.53886
4.40728
4.27571
4.14414
4.01257
3.88101
3.74945
3.61788
3.48632
3.35476
3.2232
3.09164
2.96008
2.82852
2.69696
2.5654
2.43384
2.30228
2.17072
2.03916
1.90761
1.77605
1.64449
1.51293
1.38137
1.24981
1.11825
0.986695
0.855136
0.723577
0.592019
0.460459
0.328901
0.197336
0.0657965
14.5557
13.8856
13.2779
12.9135
12.637
12.4321
12.2635
12.117
11.9821
11.8534
11.7274
11.6026
11.4777
11.3523
11.2262
11.0993
10.9717
10.8433
10.7143
10.5848
10.4549
10.3246
10.194
10.0632
9.93216
9.80102
9.66977
9.53844
9.40704
9.27559
9.1441
9.01258
8.88104
8.74948
8.61791
8.48633
8.35474
8.22315
8.09155
7.95995
7.82835
7.69675
7.56515
7.43354
7.30194
7.17035
7.03875
6.90715
6.77556
6.64397
6.51238
6.3808
6.24922
6.11763
5.98606
5.85448
5.72291
5.59134
5.45977
5.3282
5.19663
5.06506
4.9335
4.80194
4.67037
4.53881
4.40725
4.27569
4.14413
4.01257
3.88101
3.74945
3.61789
3.48633
3.35477
3.22321
3.09165
2.96009
2.82853
2.69697
2.56541
2.43385
2.30229
2.17073
2.03918
1.90762
1.77606
1.6445
1.51294
1.38138
1.24982
1.11826
0.9867
0.85514
0.723581
0.592021
0.46046
0.328902
0.197334
0.0658012
14.8474
14.1701
13.5716
13.1721
12.8602
12.6198
12.4203
12.2472
12.09
11.9426
11.8011
11.663
11.5271
11.3923
11.2583
11.1248
10.9915
10.8584
10.7255
10.5927
10.46
10.3275
10.1951
10.0628
9.93066
9.79865
9.66674
9.53494
9.40323
9.27159
9.14002
9.00851
8.87704
8.7456
8.61419
8.4828
8.35142
8.22004
8.08867
7.9573
7.82592
7.69453
7.56313
7.43173
7.30031
7.16889
7.03745
6.906
6.77455
6.64308
6.5116
6.38012
6.24863
6.11713
5.98562
5.85411
5.7226
5.59107
5.45955
5.32802
5.19648
5.06494
4.9334
4.80186
4.67031
4.53877
4.40722
4.27567
4.14411
4.01256
3.88101
3.74945
3.61789
3.48634
3.35478
3.22322
3.09166
2.9601
2.82855
2.69699
2.56543
2.43387
2.30231
2.17075
2.03919
1.90763
1.77607
1.64451
1.51295
1.38139
1.24983
1.11826
0.986705
0.855144
0.723584
0.592023
0.460462
0.328903
0.197332
0.0658057
15.0845
14.4152
13.8288
13.4052
13.066
12.7962
12.5695
12.3724
12.1946
12.0295
11.873
11.7223
11.5755
11.4317
11.2899
11.1498
11.011
10.8732
10.7364
10.6003
10.465
10.3302
10.196
10.0624
9.92909
9.79621
9.66367
9.53141
9.39939
9.26758
9.13593
9.00443
8.87303
8.74172
8.61047
8.47927
8.3481
8.21694
8.08579
7.95464
7.82348
7.69231
7.56112
7.42991
7.29868
7.16743
7.03616
6.90486
6.77354
6.64219
6.51083
6.37945
6.24804
6.11663
5.98519
5.85375
5.72228
5.59081
5.45933
5.32783
5.19633
5.06482
4.93331
4.80178
4.67025
4.53872
4.40718
4.27564
4.1441
4.01255
3.881
3.74945
3.6179
3.48635
3.35479
3.22323
3.09168
2.96012
2.82856
2.697
2.56544
2.43388
2.30232
2.17076
2.0392
1.90764
1.77608
1.64451
1.51295
1.38139
1.24983
1.11827
0.986709
0.855148
0.723587
0.592025
0.460463
0.328904
0.19733
0.0658099
15.2827
14.6284
14.0547
13.6153
13.255
12.9607
12.7105
12.4919
12.2951
12.1135
11.9428
11.7799
11.6228
11.47
11.3207
11.1742
11.0299
10.8876
10.7469
10.6077
10.4697
10.3328
10.1968
10.0618
9.92741
9.79369
9.66052
9.52782
9.39551
9.26353
9.13182
9.00033
8.86901
8.73783
8.60675
8.47574
8.34478
8.21384
8.08292
7.952
7.82106
7.6901
7.55912
7.42811
7.29706
7.16598
7.03487
6.90372
6.77253
6.64131
6.51006
6.37878
6.24746
6.11613
5.98477
5.85338
5.72198
5.59055
5.45911
5.32766
5.19619
5.0647
4.93321
4.80171
4.6702
4.53868
4.40715
4.27562
4.14409
4.01255
3.881
3.74946
3.61791
3.48635
3.3548
3.22325
3.09169
2.96013
2.82857
2.69701
2.56545
2.43389
2.30233
2.17077
2.03921
1.90765
1.77609
1.64452
1.51296
1.3814
1.24984
1.11828
0.986714
0.855152
0.72359
0.592028
0.460464
0.328905
0.197328
0.0658138
15.4519
14.8154
14.2541
13.8043
13.4278
13.1133
12.8429
12.6052
12.391
12.1941
12.01
11.8355
11.6683
11.507
11.3504
11.1977
11.0481
10.9014
10.757
10.6146
10.474
10.335
10.1974
10.061
9.92556
9.79103
9.65727
9.52414
9.39156
9.25943
9.12767
8.9962
8.86498
8.73393
8.60302
8.47221
8.34146
8.21075
8.08006
7.94936
7.81865
7.68791
7.55713
7.42632
7.29545
7.16455
7.03359
6.90258
6.77153
6.64044
6.50929
6.37811
6.24689
6.11563
5.98434
5.85302
5.72167
5.5903
5.4589
5.32748
5.19604
5.06459
4.93312
4.80163
4.67014
4.53864
4.40712
4.2756
4.14407
4.01254
3.881
3.74946
3.61791
3.48636
3.35481
3.22326
3.0917
2.96014
2.82859
2.69703
2.56547
2.43391
2.30234
2.17078
2.03922
1.90766
1.77609
1.64453
1.51297
1.38141
1.24984
1.11828
0.986719
0.855156
0.723593
0.59203
0.460466
0.328906
0.197326
0.0658175
15.5989
14.9803
14.4305
13.9743
13.5854
13.2543
12.9664
12.7117
12.4818
12.2707
12.0741
11.8886
11.712
11.5425
11.3789
11.2201
11.0655
10.9144
10.7664
10.621
10.478
10.3369
10.1977
10.0599
9.92351
9.78821
9.65388
9.52037
9.38754
9.25527
9.12347
8.99205
8.86092
8.73002
8.59929
8.46868
8.33815
8.20767
8.07721
7.94674
7.81625
7.68573
7.55516
7.42454
7.29386
7.16312
7.03233
6.90147
6.77055
6.63957
6.50854
6.37746
6.24633
6.11515
5.98393
5.85267
5.72137
5.59005
5.45869
5.32731
5.1959
5.06447
4.93303
4.80156
4.67009
4.5386
4.40709
4.27558
4.14406
4.01254
3.881
3.74946
3.61792
3.48637
3.35482
3.22327
3.09172
2.96016
2.8286
2.69704
2.56548
2.43392
2.30236
2.17079
2.03923
1.90767
1.7761
1.64454
1.51298
1.38141
1.24985
1.11829
0.986724
0.85516
0.723596
0.592033
0.460467
0.328907
0.197325
0.0658209
15.7281
15.1265
14.5871
14.1271
13.7286
13.3839
13.081
12.8112
12.5671
12.3431
12.1348
11.939
11.7534
11.5762
11.4058
11.2413
11.0818
10.9265
10.7751
10.6268
10.4814
10.3384
10.1976
10.0586
9.92121
9.78519
9.65033
9.51646
9.38341
9.25104
9.11923
8.98786
8.85684
8.7261
8.59556
8.46516
8.33485
8.2046
8.07437
7.94414
7.81387
7.68357
7.55321
7.42278
7.29229
7.16172
7.03108
6.90037
6.76958
6.63873
6.5078
6.37682
6.24577
6.11467
5.98352
5.85232
5.72108
5.5898
5.45849
5.32714
5.19576
5.06436
4.93294
4.8015
4.67003
4.53856
4.40707
4.27557
4.14405
4.01253
3.881
3.74947
3.61793
3.48638
3.35484
3.22328
3.09173
2.96017
2.82861
2.69705
2.56549
2.43393
2.30237
2.17081
2.03924
1.90768
1.77611
1.64455
1.51299
1.38142
1.24986
1.11829
0.986729
0.855164
0.7236
0.592035
0.460469
0.328908
0.197324
0.0658239
15.8426
15.2565
14.7263
14.2643
13.8584
13.5023
13.1866
12.9036
12.6468
12.4109
12.1918
11.9865
11.7924
11.6077
11.431
11.261
11.0968
10.9377
10.7829
10.6319
10.4842
10.3394
10.197
10.0569
9.91862
9.78193
9.6466
9.51241
9.37917
9.24672
9.11492
8.98362
8.85274
8.72216
8.59182
8.46164
8.33156
8.20155
8.07156
7.94155
7.81152
7.68143
7.55128
7.42105
7.29074
7.16034
7.02986
6.89929
6.76863
6.63789
6.50708
6.37619
6.24523
6.11421
5.98313
5.85199
5.7208
5.58957
5.45829
5.32698
5.19563
5.06426
4.93286
4.80143
4.66999
4.53852
4.40704
4.27555
4.14404
4.01253
3.88101
3.74948
3.61794
3.4864
3.35485
3.2233
3.09174
2.96019
2.82863
2.69707
2.56551
2.43394
2.30238
2.17082
2.03925
1.90769
1.77612
1.64456
1.51299
1.38143
1.24986
1.1183
0.986733
0.855168
0.723603
0.592038
0.460471
0.32891
0.197323
0.0658266
15.9446
15.3722
14.85
14.3872
13.9755
13.6102
13.2834
12.9888
12.7205
12.4738
12.2448
12.0306
11.8286
11.637
11.4543
11.2791
11.1105
10.9476
10.7897
10.6361
10.4863
10.3397
10.196
10.0548
9.9157
9.77841
9.64265
9.50819
9.3748
9.2423
9.11053
8.97934
8.8486
8.71821
8.58808
8.45813
8.32829
8.19852
8.06876
7.939
7.80919
7.67932
7.54937
7.41934
7.28921
7.15898
7.02866
6.89823
6.7677
6.63708
6.50638
6.37558
6.24471
6.11376
5.98274
5.85166
5.72053
5.58934
5.4581
5.32682
5.19551
5.06416
4.93278
4.80137
4.66994
4.53849
4.40702
4.27554
4.14404
4.01253
3.88101
3.74948
3.61795
3.48641
3.35486
3.22331
3.09176
2.9602
2.82864
2.69708
2.56552
2.43396
2.30239
2.17083
2.03926
1.9077
1.77613
1.64457
1.513
1.38144
1.24987
1.1183
0.986738
0.855172
0.723606
0.59204
0.460473
0.328911
0.197323
0.065829
16.0356
15.4751
14.96
14.497
14.0809
13.7078
13.3716
13.0667
12.7882
12.5317
12.2937
12.0712
11.8619
11.6639
11.4755
11.2955
11.1227
10.9563
10.7955
10.6394
10.4876
10.3394
10.1945
10.0523
9.91242
9.77458
9.63846
9.50377
9.37028
9.23777
9.10607
8.975
8.84443
8.71424
8.58433
8.45462
8.32503
8.1955
8.066
7.93647
7.80689
7.67724
7.5475
7.41767
7.28772
7.15766
7.02748
6.8972
6.7668
6.6363
6.50569
6.37499
6.2442
6.11333
5.98238
5.85135
5.72027
5.58912
5.45793
5.32668
5.19539
5.06406
4.9327
4.80132
4.6699
4.53846
4.407
4.27553
4.14403
4.01253
3.88102
3.74949
3.61796
3.48642
3.35487
3.22333
3.09177
2.96022
2.82866
2.6971
2.56553
2.43397
2.30241
2.17084
2.03927
1.90771
1.77614
1.64458
1.51301
1.38144
1.24988
1.11831
0.986743
0.855177
0.72361
0.592043
0.460474
0.328912
0.197322
0.0658311
16.1168
15.5666
15.0575
14.5948
14.1752
13.7956
13.4512
13.1374
12.8498
12.5845
12.3382
12.1082
11.8921
11.688
11.4944
11.3099
11.1333
10.9636
10.8
10.6417
10.4881
10.3385
10.1923
10.0492
9.90873
9.77043
9.634
9.49915
9.3656
9.23312
9.10151
8.97059
8.84022
8.71025
8.58058
8.45112
8.32178
8.19251
8.06326
7.93397
7.80463
7.6752
7.54567
7.41603
7.28626
7.15637
7.02635
6.8962
6.76593
6.63554
6.50503
6.37442
6.24372
6.11291
5.98203
5.85106
5.72002
5.58892
5.45776
5.32654
5.19528
5.06398
4.93264
4.80127
4.66986
4.53844
4.40699
4.27552
4.14403
4.01253
3.88102
3.7495
3.61797
3.48643
3.35489
3.22334
3.09179
2.96023
2.82867
2.69711
2.56555
2.43398
2.30242
2.17085
2.03929
1.90772
1.77615
1.64458
1.51302
1.38145
1.24988
1.11832
0.986748
0.855181
0.723613
0.592046
0.460476
0.328914
0.197322
0.0658329