/*--------------------------------*- C++ -*----------------------------------*\
  =========                 |
  \\      /  F ield         | OpenFOAM: The Open Source CFD Toolbox
   \\    /   O peration     | Website:  https://openfoam.org
    \\  /    A nd           | Version:  6
     \\/     M anipulation  |
\*---------------------------------------------------------------------------*/
FoamFile
{
    version     2.0;
    format      ascii;
    class       volVectorField;
    location    "0";
    object      U;
}
// * * * * * * * * * * * * * * * * * * * * * * * * * * * * * * * * * * * * * //

dimensions      [0 1 -1 0 0 0 0];

internalField   nonuniform List<vector> 
13046
(
(-1.00111 0.233064 0)
(-1.13511 -0.126801 -9.16311e-21)
(-0.724976 -0.107234 -2.32666e-20)
(-1.04813 0.134394 0)
(-0.762284 0.00749045 -2.08059e-20)
(-1.03448 -0.144711 0)
(-1.07984 0.153259 2.77266e-21)
(-1.04661 -0.184161 4.78334e-21)
(-0.721667 0.0269862 -2.31686e-20)
(-1.32926 0.50793 8.47346e-21)
(-1.37642 -0.472333 0)
(-0.135766 -0.0233842 1.62337e-20)
(-1.07602 0.263277 -8.95832e-21)
(-1.15725 -0.192093 -1.42054e-20)
(-0.625633 -0.077323 1.32186e-20)
(-1.22852 0.546743 -1.1572e-20)
(-0.220284 -0.152998 3.88337e-20)
(-1.42459 -0.360023 6.05087e-21)
(-0.855673 0.112327 0)
(-0.915119 -0.14124 -1.07542e-20)
(-1.0805 0.031827 2.87296e-20)
(-1.24806 0.538787 -4.7954e-21)
(-0.201008 -0.124882 -5.18437e-20)
(-1.41202 -0.382006 0)
(-0.992155 0.151855 1.21334e-20)
(-1.06977 -0.0995618 -2.31312e-20)
(-0.788318 -0.0570047 0)
(-1.06441 0.297356 -1.63401e-20)
(-1.18172 -0.191442 4.14473e-21)
(-0.608567 -0.107349 -2.2561e-20)
(-0.983818 0.259129 0)
(-1.16346 -0.112317 0)
(-0.712289 -0.146312 2.36672e-20)
(-0.971652 0.123555 -1.40839e-20)
(-0.824119 -0.0546665 7.61744e-21)
(-1.04661 -0.0724729 4.0372e-20)
(-0.983203 0.0951965 -2.1683e-20)
(-0.84465 -0.0234884 1.16679e-20)
(-1.01737 -0.0728693 -2.11723e-20)
(-0.862892 0.304116 1.63097e-20)
(-0.793942 -0.280872 4.3854e-21)
(-1.23085 -0.0264031 -1.33849e-20)
(-0.979732 0.0246415 9.69789e-21)
(-0.910288 0.0151673 1.72942e-20)
(-0.95077 -0.0422712 0)
(-1.01052 0.0290039 6.01763e-21)
(-0.883478 0.0422066 -2.62946e-20)
(-0.942814 -0.0715101 -3.24628e-21)
(-1.02479 0.226557 0)
(-1.12218 -0.149717 -6.61317e-22)
(-0.696576 -0.0791573 9.95866e-23)
(-0.860429 -0.423229 2.55138e-20)
(-0.743568 0.380867 0)
(-1.31833 0.0403525 -1.55269e-20)
(-0.893313 -0.448981 -3.6244e-20)
(-1.33365 0.0621134 -2.50153e-20)
(-0.699503 0.382928 2.62257e-20)
(-1.40368 -0.182747 -2.86995e-21)
(-1.05449 0.54303 0)
(-0.478755 -0.350623 2.09522e-20)
(-1.23642 0.247255 -8.14067e-21)
(-1.12558 -0.352701 8.54239e-21)
(-0.506189 0.110747 -5.59063e-20)
(-0.275894 -0.0389866 2.98276e-20)
(-1.31087 -0.390109 -4.82011e-21)
(-1.26685 0.429959 -1.34472e-20)
(-1.01675 0.551296 0)
(-1.40677 -0.146352 0)
(-0.52491 -0.396519 0)
(-0.994844 0.53276 -6.90653e-21)
(-1.39247 -0.134345 0)
(-0.550822 -0.394006 1.6394e-20)
(-1.42439 -0.190343 0)
(-1.0749 0.560162 2.69435e-22)
(-0.446077 -0.358305 8.77047e-23)
(-0.857721 0.145629 0)
(-0.890257 -0.163675 1.18415e-20)
(-1.10976 0.0139651 -2.04963e-20)
(-0.37834 -0.294887 2.34362e-20)
(-1.12335 0.556875 -2.04854e-20)
(-1.41972 -0.243246 0)
(-1.0178 0.160061 6.27358e-21)
(-1.06652 -0.121712 0)
(-0.760682 -0.0348725 0)
(-0.243981 -0.0451369 -2.67303e-20)
(-1.33098 -0.405465 -3.61728e-21)
(-1.28095 0.450811 7.98344e-21)
(-1.34862 0.345329 -1.33901e-20)
(-0.291635 0.11619 0)
(-1.22465 -0.472613 -3.90581e-21)
(-0.310273 0.26734 0)
(-1.44702 0.275113 0)
(-1.15712 -0.577339 5.25899e-22)
(-1.15672 0.363193 0)
(-1.18889 0.367547 7.67191e-21)
(-1.24642 -0.280873 1.55837e-20)
(-1.2486 -0.314192 -7.33079e-21)
(-0.459017 -0.0849865 -1.22435e-20)
(-0.420854 -0.0527798 3.12205e-20)
(-0.316983 0.152028 -1.49964e-21)
(-1.35976 0.321926 1.31038e-20)
(-1.19783 -0.489084 0)
(-1.02837 0.0563941 -5.13893e-23)
(-0.849725 0.0417223 1.41155e-20)
(-0.961407 -0.0997272 0)
(-0.689226 0.283479 0)
(-1.26712 0.0890121 -7.92327e-21)
(-0.934772 -0.366847 0)
(-0.775612 0.334699 2.85682e-20)
(-0.850973 -0.356313 0)
(-1.27319 0.0244292 -3.00528e-20)
(-1.33843 0.56675 0)
(-0.0481386 -0.00683805 0)
(-1.37165 -0.548758 -3.9233e-21)
(-1.0587 0.238292 2.47134e-20)
(-1.13611 -0.174085 6.11923e-21)
(-0.656907 -0.0655471 2.36295e-20)
(-1.15261 0.429504 9.92337e-21)
(-1.13785 0.399783 -1.87313e-20)
(-1.30833 -0.275713 -1.29976e-20)
(-0.415107 -0.152121 1.39436e-20)
(-1.27816 -0.262272 7.71551e-21)
(-0.451154 -0.136518 -1.30328e-20)
(-1.32659 0.52997 -6.79852e-21)
(-1.39316 -0.483144 -6.40991e-21)
(-0.113151 -0.0318436 -7.24094e-21)
(-1.1057 0.343886 0)
(-1.22485 -0.234721 -1.05319e-20)
(-0.528302 -0.115644 2.80038e-20)
(-0.893686 0.313625 0)
(-0.76023 -0.265001 -2.12475e-20)
(-1.23008 -0.0513824 6.52903e-22)
(-0.345579 0.282572 0)
(-1.42977 0.254019 0)
(-1.13755 -0.558934 0)
(-1.25167 0.36654 0)
(-1.24833 -0.373344 -2.02772e-20)
(-0.362984 0.00952423 -3.37513e-20)
(-1.00014 0.279696 0)
(-1.18514 -0.127917 0)
(-0.681427 -0.161329 0)
(-1.17649 0.165547 0)
(-1.04264 -0.282879 0)
(-0.644088 0.118711 0)
(-0.749686 0.338559 0)
(-0.875652 -0.377324 0)
(-1.2851 0.0418759 1.61835e-20)
(-0.708401 0.259421 -3.07232e-21)
(-1.24548 0.0867581 -1.73286e-20)
(-0.940016 -0.342738 2.20277e-20)
(-1.23975 0.270487 1.88834e-20)
(-1.15328 -0.35804 0)
(-0.471729 0.0810713 7.28112e-20)
(-0.730397 0.162243 0)
(-1.17194 0.0991301 1.91761e-20)
(-0.966345 -0.263369 -5.47479e-21)
(-0.969301 -0.463097 0)
(-1.33768 0.118033 1.78945e-20)
(-1.00621 -0.468303 0)
(-1.33876 0.149084 1.03648e-20)
(-0.614217 0.346387 0)
(-0.570004 0.319486 0)
(-1.21913 0.136362 2.38971e-21)
(-1.00501 -0.323611 1.12433e-20)
(-0.650025 0.181807 -1.34944e-20)
(-1.3576 0.484775 -8.56632e-21)
(-0.141854 0.00577249 0)
(-1.34412 -0.496037 -8.69676e-21)
(-1.33477 0.553849 -6.00373e-21)
(-0.0682025 -0.0191434 -3.2895e-21)
(-1.39289 -0.52021 0)
(-1.24846 0.389798 -1.10899e-20)
(-1.27083 -0.372645 0)
(-0.338209 -0.0168537 3.83818e-20)
(-0.897589 0.400572 0)
(-1.29871 -0.0618129 4.11057e-21)
(-0.715562 -0.342494 1.25686e-20)
(-1.21552 0.119375 1.57338e-20)
(-0.679766 0.200321 6.38793e-21)
(-0.980353 -0.311763 0)
(-0.169384 0.0633156 0)
(-1.29693 -0.514025 0)
(-1.38372 0.429964 7.04945e-21)
(-0.883447 0.370754 0)
(-1.27716 -0.0474748 -9.06776e-21)
(-0.744746 -0.321506 3.25388e-21)
(-0.714333 0.187823 0)
(-1.19071 0.0974979 0)
(-0.954638 -0.28409 0)
(-1.15386 0.150628 8.07914e-21)
(-1.03026 -0.261982 0)
(-0.669269 0.105438 0)
(-1.15625 -0.238876 -1.11762e-22)
(-0.581433 -0.0361521 -1.60874e-20)
(-1.09916 0.315776 2.58762e-20)
(-1.20259 -0.222041 0)
(-0.557393 -0.0980716 -3.50791e-20)
(-1.33107 0.40392 -1.39502e-20)
(-0.247323 0.0458341 2.41977e-20)
(-1.28197 -0.45408 -1.83289e-20)
(-0.355043 0.230488 2.19905e-20)
(-1.38882 0.273768 7.99832e-21)
(-1.15439 -0.519405 2.01677e-20)
(-1.41461 0.315093 -2.21648e-20)
(-1.19906 -0.53158 0)
(-0.277917 0.195584 -2.15874e-20)
(-0.839824 -0.492978 -1.32606e-21)
(-1.37353 0.0315044 6.87357e-21)
(-0.741621 0.465232 0)
(-1.11265 0.199981 -3.71534e-20)
(-1.10412 0.572526 1.05765e-20)
(-0.396765 -0.321148 -1.43262e-20)
(-1.43314 -0.234074 0)
(-1.22256 -0.541784 0)
(-1.41715 0.348816 -1.97906e-20)
(-0.241574 0.163536 0)
(-1.01801 0.0895731 -3.06302e-20)
(-0.825917 0.0137853 -1.1458e-20)
(-0.996821 -0.103667 3.11338e-20)
(-1.0396 0.305193 0)
(-1.19444 -0.170718 -5.86801e-22)
(-0.636024 -0.135929 -1.32178e-20)
(-0.363514 0.263429 1.67352e-20)
(-1.40645 0.259418 0)
(-1.13618 -0.540913 -2.32561e-20)
(-1.13117 0.218556 2.98246e-20)
(-1.13356 -0.248989 2.59512e-20)
(-0.592035 -0.00699705 0)
(-0.0924538 0.0176573 0)
(-1.33935 -0.541005 6.87249e-21)
(-1.38477 0.510343 0)
(-0.707178 0.448169 0)
(-1.37315 0.0480003 0)
(-0.868926 -0.502045 0)
(-1.38886 0.303744 1.94274e-20)
(-1.18629 -0.511721 0)
(-0.307315 0.187999 -4.05408e-23)
(-1.27837 0.144855 6.87725e-21)
(-1.00286 -0.395914 -8.70126e-21)
(-0.604185 0.249949 0)
(-1.09204 0.364936 0)
(-1.24216 -0.221797 9.8406e-21)
(-0.532162 -0.146532 2.19784e-20)
(-1.06541 -0.561447 -3.02631e-20)
(-1.4191 0.186246 -1.39836e-20)
(-0.457458 0.360868 1.30443e-20)
(-1.36559 0.153613 0)
(-1.01841 -0.498187 -1.22201e-20)
(-0.543421 0.341838 -4.66732e-22)
(-0.0806879 0.0335763 -2.11746e-20)
(-1.31852 -0.560866 0)
(-1.40879 0.499862 -6.42236e-21)
(-0.817975 0.374836 1.50791e-20)
(-0.801578 -0.366565 -1.5279e-20)
(-1.29278 -0.00867265 1.30566e-21)
(-1.24818 0.613144 6.21451e-21)
(-0.0423657 -0.0419757 -3.07512e-20)
(-1.43537 -0.487396 0)
(-0.826593 0.0860978 -6.63307e-21)
(-1.07205 0.0547943 -2.3362e-20)
(-0.94485 -0.143833 3.17363e-20)
(-1.24555 0.184445 8.42081e-21)
(-1.25331 0.153818 1.44041e-22)
(-1.05144 -0.361853 -2.05027e-20)
(-1.01521 -0.369966 0)
(-0.609573 0.216302 1.2271e-20)
(-0.570594 0.178622 -1.28172e-20)
(-0.336063 -0.2683 -3.06704e-20)
(-1.14436 0.558158 1.09021e-20)
(-1.43138 -0.261495 -1.48291e-20)
(-1.06192 0.362057 0)
(-1.24599 -0.189727 0)
(-0.572199 -0.175342 -2.90062e-20)
(-1.37348 0.181734 -3.6953e-21)
(-1.04865 -0.513718 0)
(-0.504402 0.325107 0)
(-1.20188 0.400601 -9.39367e-21)
(-1.2811 -0.322775 0)
(-0.37861 -0.0780365 1.39818e-20)
(-0.954723 0.0407383 6.69638e-21)
(-0.976861 -0.0275209 9.50166e-21)
(-0.909886 -0.0128355 -3.3515e-21)
(-1.30921 0.163885 -1.31883e-20)
(-1.02657 -0.434038 0)
(-0.562125 0.270519 -2.16293e-20)
(-1.0498 0.387853 0)
(-1.26893 -0.184379 1.2047e-20)
(-0.563602 -0.207586 -1.86359e-20)
(-1.11781 0.251404 0)
(-1.13836 0.268397 2.98682e-21)
(-0.811745 0.397084 5.4674e-21)
(-0.795351 -0.392501 4.45883e-20)
(-1.31152 -0.0058974 -3.10187e-20)
(-1.31029 0.190329 -1.36264e-20)
(-1.05636 -0.436834 1.76535e-20)
(-0.521881 0.241724 1.97241e-20)
(-1.22713 0.404544 0)
(-0.347546 -0.0535762 -4.92327e-20)
(-1.28593 -0.347024 -9.71775e-21)
(-0.792784 0.304463 -3.93445e-20)
(-0.84922 -0.333594 0)
(-1.25254 0.0247688 1.01948e-20)
(-0.616148 0.382135 -2.4801e-20)
(-1.35919 0.111483 -1.01261e-20)
(-0.955796 -0.494811 0)
(-1.09305 0.445102 -9.74322e-21)
(-1.32158 -0.219398 -1.02798e-20)
(-0.471482 -0.226143 8.61604e-21)
(-0.769837 0.403693 1.99694e-21)
(-0.834552 -0.426419 0)
(-1.32772 0.0260585 2.15521e-20)
(-1.11323 0.462914 0)
(-1.13805 0.459261 0)
(-1.33837 -0.236723 -6.60214e-21)
(-0.442108 -0.223197 -2.25291e-20)
(-1.33326 -0.264858 9.31941e-21)
(-0.413342 -0.188352 2.38632e-20)
(-0.190182 0.0391627 -1.87648e-20)
(-1.30538 -0.486833 0)
(-1.359 0.436998 -9.93169e-21)
(-1.11054 0.395837 1.1123e-20)
(-1.27229 -0.239989 0)
(-0.485421 -0.158987 7.62059e-21)
(-1.30819 -0.573122 9.85322e-21)
(-0.0134364 -0.004152 2.68609e-20)
(-1.2711 0.598632 1.29249e-20)
(-1.14104 0.0694482 -1.04634e-20)
(-0.776671 0.146094 0)
(-0.942863 -0.218623 0)
(-1.20505 0.235236 1.93306e-20)
(-1.11468 -0.322797 0)
(-0.536288 0.0883572 4.25059e-20)
(-0.280976 0.0263438 -1.54032e-20)
(-1.30389 0.392594 2.86642e-20)
(-1.27226 -0.425588 1.39396e-20)
(-0.896013 -0.47277 0)
(-1.35226 0.0654627 9.22961e-21)
(-0.68294 0.409358 -2.97011e-20)
(-1.09131 -0.556404 -3.62355e-20)
(-1.41541 0.212814 -8.67144e-21)
(-0.420199 0.324603 0)
(-1.10186 -0.224361 -2.65415e-20)
(-0.639627 0.00820231 0)
(-1.18016 0.292307 2.16596e-20)
(-1.17063 -0.298042 9.18748e-21)
(-0.503119 8.22037e-05 1.29941e-20)
(-1.08211 -0.241159 1.56425e-20)
(-0.641445 0.0378546 2.32248e-22)
(-1.21421 0.529888 -7.13712e-22)
(-0.254206 -0.168129 1.82358e-20)
(-1.41034 -0.33742 -8.89546e-21)
(-0.815715 -0.520407 0)
(-1.39313 0.0198851 2.15401e-21)
(-0.759869 0.497281 0)
(-1.20035 0.304804 -2.20963e-20)
(-1.18869 -0.31616 -1.12048e-20)
(-0.469749 0.0122263 -1.60483e-20)
(-1.19914 0.161869 0)
(-1.02771 -0.310283 -1.63314e-20)
(-0.634999 0.148113 0)
(-1.28189 0.0721355 0)
(-0.908171 -0.386947 0)
(-0.713219 0.311993 0)
(-1.02995 0.194795 -8.71471e-21)
(-1.09464 -0.142236 -1.47165e-20)
(-0.722135 -0.0540011 9.11577e-24)
(-0.647952 0.402656 3.08208e-20)
(-1.36205 0.0905154 2.45927e-20)
(-0.93143 -0.491608 1.79961e-20)
(-1.36209 0.371903 -1.19986e-20)
(-1.25095 -0.482976 1.55675e-20)
(-0.2511 0.0931591 -2.28098e-20)
(-1.10521 -0.533268 2.45297e-20)
(-1.39924 0.225349 8.7902e-21)
(-0.410596 0.292718 1.66313e-20)
(-0.942417 0.518965 -2.15918e-20)
(-0.622157 -0.417641 2.43516e-20)
(-1.38286 -0.0951787 -1.39903e-20)
(-1.12278 0.514516 5.91453e-21)
(-1.10452 0.501429 -5.4093e-21)
(-1.37056 -0.226097 -2.07628e-21)
(-1.38692 -0.238867 0)
(-0.400911 -0.263222 -8.23673e-21)
(-0.432231 -0.269331 -7.2562e-21)
(-0.0221383 -0.0134533 -3.63331e-20)
(-1.34996 -0.546867 -1.08698e-20)
(-1.27199 0.595026 3.98572e-21)
(-1.2496 0.605539 -4.13956e-22)
(-0.0595093 -0.058129 4.25974e-20)
(-1.44906 -0.471209 0)
(-1.26605 0.197548 -3.09346e-20)
(-1.07576 -0.378015 -4.55734e-21)
(-0.544324 0.182353 0)
(-0.22142 0.0250888 -4.65717e-20)
(-1.33305 0.423954 9.88679e-21)
(-1.30389 -0.455831 0)
(-1.02453 0.488886 2.98152e-20)
(-1.05214 0.487681 -2.23816e-20)
(-1.35539 -0.162698 1.08445e-20)
(-1.35607 -0.183023 4.18119e-21)
(-0.542522 -0.325977 -1.41001e-20)
(-0.506277 -0.300428 -7.14141e-21)
(-0.188031 0.166676 0)
(-1.2172 -0.579253 0)
(-1.46207 0.353167 3.43452e-21)
(-1.19595 0.629484 -7.20462e-21)
(-0.0303182 -0.0391164 0)
(-1.4329 -0.484493 0)
(-1.05197 -0.00587797 -7.11934e-23)
(-0.901565 0.103002 1.44367e-20)
(-0.888629 -0.0976191 7.19163e-21)
(-1.29243 0.590794 -1.2154e-20)
(-1.39047 -0.535488 5.73974e-21)
(-0.03586 -0.0187598 1.99154e-21)
(-0.942331 0.399235 0)
(-1.29128 -0.0956927 -1.89231e-20)
(-0.671713 -0.309234 -1.0101e-23)
(-1.39323 0.414949 1.96702e-22)
(-1.27896 -0.521876 2.17883e-20)
(-0.191465 0.0854584 2.19155e-23)
(-1.1807 -0.610726 3.07925e-22)
(-0.00588072 0.00807407 -1.54412e-20)
(-1.28491 0.529895 -4.61779e-21)
(-0.850132 0.268198 -1.41274e-20)
(-0.823924 -0.257715 1.34409e-20)
(-1.20581 -0.0103333 3.29689e-20)
(-1.08973 0.0797805 0)
(-0.969135 -0.170358 -3.49432e-20)
(-0.790953 0.0889687 1.92071e-20)
(-1.30391 0.551504 0)
(-0.114605 -0.0532812 2.15624e-20)
(-1.41007 -0.467497 -4.55781e-23)
(-1.11285 0.0883487 0)
(-0.967068 -0.194277 -1.21833e-20)
(-0.767028 0.111162 -2.70534e-20)
(-1.02652 -0.00202769 1.4197e-20)
(-0.90974 0.0769451 -7.72582e-21)
(-0.903387 -0.0742859 3.76593e-21)
(-0.677371 0.469426 1.46765e-20)
(-1.3952 0.0625238 -8.59009e-21)
(-0.892587 -0.538364 2.00619e-20)
(-1.12769 0.0247205 0)
(-0.894648 -0.186686 0)
(-0.830378 0.169249 2.20293e-21)
(-1.14644 0.0548206 1.65685e-20)
(-0.920971 -0.20995 9.64982e-21)
(-0.8035 0.165893 3.16019e-22)
(-0.913621 0.512408 3.28171e-20)
(-1.3793 -0.0776108 -1.39663e-20)
(-0.658852 -0.437522 -2.41077e-20)
(-0.180902 -0.0635909 3.26918e-20)
(-0.172179 -0.04275 -3.32761e-20)
(-1.38598 -0.427812 5.9523e-21)
(-1.37009 -0.445622 4.25521e-21)
(-1.28847 0.513498 0)
(-1.30745 0.50279 -8.67651e-21)
(-1.38708 0.376011 1.48196e-20)
(-1.25494 -0.502023 -1.37028e-20)
(-0.227723 0.111276 2.82243e-20)
(-0.594928 -0.440008 -1.57677e-20)
(-0.954951 0.550461 6.65586e-21)
(-1.40336 -0.103398 1.78172e-20)
(-0.849334 0.358197 -1.37667e-20)
(-0.779861 -0.334232 -1.40669e-20)
(-1.27598 -0.0260806 1.00568e-20)
(-1.39163 0.133647 0)
(-0.996457 -0.534033 1.26446e-20)
(-0.557942 0.391005 4.83145e-22)
(-1.20934 -0.624086 6.41047e-21)
(-0.0339953 0.0416825 -1.44023e-20)
(-1.42985 0.48734 -4.55191e-21)
(-0.28116 0.234605 0)
(-1.44255 0.299606 0)
(-1.17629 -0.572625 9.61749e-21)
(-1.34982 0.53405 7.11051e-21)
(-0.0857882 -0.00734314 0)
(-1.37709 -0.520904 -6.74404e-21)
(-0.000891174 0.00373658 -5.6961e-32)
(-1.13911 -0.601005 -3.88108e-21)
(-1.21915 0.530648 4.33106e-21)
(-1.21529 -0.530834 4.32761e-21)
(-0.0010821 -0.00323978 5.68274e-32)
(-1.14492 0.601551 -3.86285e-21)
(-1.12383 -0.42067 -2.37158e-20)
(-1.3008 0.243987 0)
(-0.46266 0.173684 -4.28537e-20)
(-1.22671 -0.60184 -3.76693e-21)
(-0.112704 0.116636 -1.48249e-20)
(-1.4864 0.405557 0)
(-1.27819 0.357868 -1.38261e-20)
(-1.23625 -0.400793 1.25613e-20)
(-0.349014 0.0419125 2.24681e-20)
(-1.21361 0.589872 2.3267e-20)
(-0.172256 -0.1659 1.30327e-20)
(-1.47779 -0.361825 0)
(-1.08336 0.209077 6.54823e-21)
(-0.665035 -0.0138433 -7.96578e-21)
(-1.10436 -0.198437 6.41164e-21)
(-1.20591 -0.577865 4.88599e-21)
(-0.217262 0.189882 1.57752e-20)
(-1.45517 0.336476 3.95438e-21)
(-1.3873 0.119855 -9.92135e-21)
(-0.587049 0.407132 -8.5114e-21)
(-0.973826 -0.528051 0)
(-1.06787 -0.500672 0)
(-1.36214 0.199421 0)
(-0.479017 0.293255 0)
(0.00193577 4.0236e-05 0)
(-0.753234 -0.37221 -1.8434e-21)
(-0.754172 0.371872 1.84987e-21)
(-1.28162 -0.59785 5.48135e-21)
(-0.0154339 0.00445758 -1.87234e-20)
(-1.31198 0.574689 -5.83068e-21)
(-1.06538 0.187304 -1.70706e-20)
(-0.699319 -0.0147202 1.85748e-20)
(-1.08444 -0.177649 7.4457e-21)
(-1.25061 -0.554514 1.88617e-20)
(-1.43949 0.392891 -7.45993e-21)
(-0.168653 0.123226 0)
(-0.168585 0.168481 -1.64879e-20)
(-1.48464 0.359782 0)
(-1.20752 -0.599034 -1.42833e-20)
(-1.30828 0.44854 -9.19089e-21)
(-0.220349 -0.0139676 4.98967e-20)
(-1.3261 -0.431949 0)
(-0.311914 -0.206004 -3.72957e-20)
(-1.40166 -0.297714 9.71974e-21)
(-1.17796 0.527224 0)
(-0.885255 0.53744 -4.15034e-20)
(-1.39631 -0.0620917 1.7771e-20)
(-0.687053 -0.476785 -7.64366e-21)
(-1.37879 -0.201846 3.05156e-21)
(-1.07108 0.518365 1.28468e-20)
(-0.470745 -0.312154 -2.23952e-20)
(-0.27048 -0.231032 -3.33955e-20)
(-1.17551 0.569875 0)
(-1.44903 -0.301904 0)
(-0.99268 0.367627 -6.40504e-21)
(-1.01502 0.390074 0)
(-1.25659 -0.132588 -1.99439e-20)
(-1.2755 -0.150296 2.13676e-20)
(-0.638435 -0.235673 3.75042e-21)
(-0.601508 -0.24197 -3.99185e-21)
(-0.960333 0.371123 6.14147e-21)
(-1.2647 -0.106753 0)
(-0.671468 -0.266845 7.11273e-21)
(-1.00202 0.512041 0)
(-1.37219 -0.148424 -1.752e-20)
(-0.555758 -0.362273 5.07669e-21)
(-1.09608 -0.512189 -1.22163e-20)
(-1.37957 0.219134 9.28649e-21)
(-0.432885 0.277738 -3.4262e-20)
(-1.23676 -0.533578 0)
(-1.40395 0.369277 2.17805e-20)
(-0.222766 0.136358 0)
(-0.388344 0.220168 -1.11229e-20)
(-1.36566 0.260293 -5.90557e-21)
(-1.14182 -0.494038 -7.89533e-21)
(-1.27149 -0.524874 -5.7126e-22)
(-0.00528034 -0.00770056 9.94803e-21)
(-1.17575 0.609733 0)
(-0.915701 0.268137 1.25139e-20)
(-0.939676 0.251236 0)
(-0.767617 -0.207877 0)
(-1.18746 -0.0601059 4.0365e-20)
(-0.759881 -0.174514 0)
(-1.16611 -0.0776657 -2.57739e-20)
(-0.96706 0.476617 0)
(-0.940362 0.455697 0)
(-0.650514 -0.356397 -5.48353e-23)
(-1.34818 -0.11702 1.11965e-20)
(-0.613489 -0.354887 3.67085e-20)
(-1.33268 -0.0979351 -2.37552e-20)
(-1.1328 -0.626172 0)
(-0.00896717 0.0164114 2.09933e-20)
(-1.34114 0.510669 0)
(-1.25333 -0.542912 -1.1373e-20)
(-1.42253 0.38983 2.39875e-21)
(-0.183013 0.110619 1.00146e-20)
(-0.833921 0.420396 -2.382e-20)
(-0.771653 -0.406281 -1.60937e-20)
(-1.32625 -0.0203299 3.20577e-20)
(-1.04442 -0.545267 2.70027e-20)
(-1.40309 0.171232 2.35093e-20)
(-0.48961 0.364058 0)
(-0.337841 -0.229937 3.98989e-20)
(-1.40041 -0.281507 -1.03342e-20)
(-1.15991 0.527146 1.36972e-20)
(-1.32258 -0.57858 0)
(-1.38389 0.539253 0)
(-0.0423895 0.0151006 0)
(-1.31 -0.579234 0)
(-1.40592 0.513161 6.14577e-21)
(-0.0587186 0.033562 3.59567e-21)
(-1.06494 0.462931 -1.23126e-20)
(-1.3315 -0.198974 6.41278e-21)
(-0.5021 -0.262301 1.05673e-20)
(-0.784027 0.277716 -3.74176e-21)
(-0.871097 -0.315048 0)
(-1.23289 0.0378747 -1.50622e-22)
(-1.31665 0.47052 1.07076e-20)
(-0.19314 -0.0195775 2.90683e-20)
(-1.34768 -0.443303 -4.95514e-21)
(-1.12235 -0.450778 0)
(-1.32609 0.246242 0)
(-0.441713 0.203814 3.68927e-20)
(-0.311197 -0.0733649 9.42143e-21)
(-1.31434 -0.358878 1.65775e-20)
(-1.23432 0.439282 2.96582e-20)
(-0.915229 0.457939 0)
(-0.677057 -0.378952 -2.42018e-20)
(-1.33661 -0.0818961 1.217e-20)
(-1.28171 0.121431 2.28305e-22)
(-0.97224 -0.392797 1.27614e-20)
(-0.643951 0.274954 0)
(-0.839744 0.321244 3.14625e-22)
(-0.80447 -0.310991 -4.60538e-21)
(-1.25121 -0.0146634 -1.31737e-20)
(-0.174904 0.0120411 2.72598e-23)
(-1.33313 -0.478171 1.17058e-20)
(-1.34692 0.462453 1.15224e-20)
(-1.18214 0.431367 -5.55563e-21)
(-1.30962 -0.30528 -4.96833e-21)
(-0.379301 -0.121706 0)
(-0.873901 0.249542 -1.35654e-20)
(-0.814399 -0.22509 2.89375e-20)
(-1.18466 -0.0240983 -2.17939e-20)
(-1.18496 0.585192 9.32079e-21)
(-0.235035 -0.219078 1.4805e-20)
(-1.46706 -0.319364 -6.66867e-21)
(-0.979025 0.311163 -7.724e-21)
(-1.20843 -0.119402 0)
(-0.683046 -0.195688 0)
(-1.15322 0.129422 -2.97008e-20)
(-0.999553 -0.252052 7.55282e-21)
(-0.702866 0.1245 0)
(-1.07606 -0.463294 0)
(-1.33651 0.199793 1.95065e-20)
(-0.488427 0.260503 0)
(-1.23869 0.601394 -4.8295e-21)
(-0.0956473 -0.0953344 -4.57055e-21)
(-1.47519 -0.432147 6.42148e-21)
(-1.22018 0.605631 1.3459e-20)
(-0.11335 -0.120296 0)
(-1.48497 -0.404838 -6.66792e-21)
(-0.308598 -0.10674 8.62131e-21)
(-1.33603 -0.343984 -9.53762e-21)
(-1.22083 0.45915 -2.73363e-20)
(-1.31071 0.105006 -8.9585e-21)
(-0.95677 -0.431744 -1.30061e-20)
(-0.646138 0.323995 0)
(-0.0684094 -0.0788816 4.18578e-21)
(-1.47688 -0.452038 -6.00311e-21)
(-1.21504 0.616063 0)
(-0.313091 0.0521372 0)
(-1.24671 -0.423186 -1.02233e-20)
(-1.30163 0.367922 -3.29547e-21)
(0.00146453 0.00185382 1.67244e-20)
(-0.996526 -0.5885 4.71314e-21)
(-1.13284 0.470838 0)
(-0.999836 0.589339 -4.68941e-21)
(-1.13045 -0.470336 0)
(0.001453 -0.00180247 1.67319e-20)
(-0.277056 -0.206203 -3.70695e-23)
(-1.42592 -0.313399 0)
(-1.18568 0.550955 0)
(-0.122415 0.0262552 0)
(-1.331 -0.521819 0)
(-1.38352 0.480479 1.46901e-20)
(-1.26548 0.501904 -9.683e-21)
(-1.25675 0.484255 7.83213e-21)
(-0.212956 -0.0930139 -1.6415e-20)
(-1.38596 -0.389085 -1.99099e-21)
(-0.23959 -0.0887957 -2.66407e-20)
(-1.36176 -0.381789 3.76509e-21)
(-1.31995 0.345163 6.30913e-21)
(-1.2249 -0.443297 6.91008e-21)
(-0.320187 0.0893062 0)
(-0.527219 0.406636 0)
(-1.00954 -0.562503 0)
(-1.4136 0.144613 0)
(-0.962208 0.200607 0)
(-0.773261 -0.119541 -4.02231e-20)
(-1.12097 -0.0846903 1.4437e-20)
(-1.33591 0.293095 1.77237e-20)
(-1.17333 -0.462226 2.64961e-21)
(-0.368867 0.159481 3.28796e-20)
(-0.397019 0.189602 2.13209e-20)
(-1.34185 0.273429 -2.46759e-20)
(-1.14984 -0.469443 -3.67431e-21)
(-1.15002 0.580719 1.08392e-20)
(-0.304513 -0.272294 1.5948e-20)
(-1.45425 -0.271225 1.54704e-20)
(-0.967718 0.498205 0)
(-1.36613 -0.118872 5.2062e-21)
(-0.599178 -0.376002 -3.59805e-20)
(-0.957812 0.420854 0)
(-1.30772 -0.106166 2.48544e-20)
(-0.646865 -0.321241 2.61359e-23)
(-1.26834 0.281512 -2.39917e-20)
(-1.16273 -0.393079 3.22199e-21)
(-0.437152 0.10398 -1.85824e-20)
(-1.29063 0.275806 0)
(-1.1543 -0.413952 3.07897e-21)
(-0.429237 0.132319 1.71095e-20)
(-0.870325 0.215277 0)
(-0.839333 -0.201018 -4.5606e-20)
(-1.15741 -0.0136218 1.24574e-20)
(-1.00928 0.413439 0)
(-1.29367 -0.150502 0)
(-0.590558 -0.269533 5.42237e-21)
(-0.237353 0.223646 -3.41239e-20)
(-1.17977 -0.591106 -2.68879e-20)
(-1.46849 0.316285 0)
(-1.43969 0.489154 7.64575e-21)
(-0.0593344 0.0507889 0)
(-1.26199 -0.60259 4.73972e-21)
(-1.45136 0.47187 -3.64938e-22)
(-0.050401 0.055325 0)
(-1.23274 -0.612591 -1.33869e-20)
(-0.906344 0.347367 9.36071e-21)
(-0.734664 -0.28077 -5.10388e-21)
(-1.25142 -0.0663592 -3.57655e-22)
(-1.28699 -0.593887 4.88568e-22)
(-0.0270532 0.0158218 2.8587e-20)
(-1.37898 0.54034 0)
(-1.19379 0.459041 2.38315e-20)
(-0.343578 -0.133427 1.80389e-20)
(-1.33544 -0.315523 0)
(-0.0234913 0.0266557 -4.23782e-21)
(-1.22374 -0.622826 -6.52783e-21)
(-1.39423 0.510788 0)
(-1.05242 0.11073 2.12568e-20)
(-0.788456 0.0315426 2.43729e-20)
(-1.00704 -0.138709 1.23689e-22)
(-1.13318 0.298449 -3.7249e-21)
(-1.18121 -0.25361 -3.35663e-21)
(-0.546656 -0.0470592 -1.90499e-20)
(-0.924039 -0.42757 2.97651e-20)
(-1.31014 0.0857795 2.11898e-20)
(-0.681308 0.339804 0)
(-0.135062 0.125465 0)
(-1.2319 -0.590037 -4.84623e-21)
(-1.47357 0.397041 0)
(-1.10314 -0.466972 0)
(-1.33839 0.231226 0)
(-0.454424 0.231117 0)
(-0.205357 -0.179326 0)
(-1.2109 0.575276 -8.4796e-21)
(-1.46082 -0.345426 6.55311e-21)
(-1.15686 0.313706 0)
(-1.18953 -0.282709 1.68963e-21)
(-0.510732 -0.033448 1.8636e-20)
(-0.961845 0.178917 0)
(-0.793028 -0.101232 3.44771e-20)
(-1.09897 -0.0799687 0)
(-1.26305 -0.567967 -1.78201e-20)
(-1.44146 0.422941 7.09702e-21)
(-0.138688 0.101787 0)
(-0.292321 -0.00793979 -1.97766e-20)
(-1.28511 -0.404784 6.40309e-22)
(-1.27708 0.409732 4.41071e-22)
(-1.2903 0.569873 0)
(-1.29072 0.581597 8.39873e-21)
(-0.0921623 -0.059857 -1.06049e-20)
(-0.0737288 -0.0475143 -1.29536e-20)
(-1.43166 -0.465608 -4.23405e-21)
(-1.42814 -0.485079 3.48276e-21)
(-1.21812 0.193931 0)
(-1.05926 -0.33676 4.77941e-20)
(-0.585263 0.14292 2.00813e-20)
(-1.1002 -0.402589 3.33391e-20)
(-1.28571 0.225406 0)
(-0.489588 0.179536 -2.2389e-20)
(-1.10744 0.148251 -1.71306e-20)
(-1.03159 -0.209288 1.25932e-20)
(-0.704952 0.0585922 3.02247e-20)
(-1.26343 -0.596006 1.09765e-20)
(-1.45425 0.457899 8.36201e-21)
(-1.23897 -0.605872 -5.1354e-21)
(-0.0830864 0.0705994 0)
(-1.47444 0.436436 -8.06356e-21)
(-0.0890251 0.0874911 0)
(-1.20452 0.348042 0)
(-1.22426 -0.329881 0)
(-0.430164 -0.0181825 2.10218e-20)
(-1.42779 0.441956 1.23061e-20)
(-1.43659 0.458401 -2.28529e-20)
(-1.28765 -0.559457 7.16491e-21)
(-1.28895 -0.572792 -1.83636e-20)
(-0.118441 0.0728968 2.92475e-20)
(-0.0947067 0.061796 -3.1951e-23)
(-1.28877 0.208225 0)
(-1.07163 -0.414755 -3.15071e-20)
(-0.522842 0.211956 2.89884e-20)
(-1.15748 0.223838 1.58684e-20)
(-1.12379 -0.273729 -2.07044e-20)
(-0.569328 0.0289861 0)
(-1.23154 0.587306 0)
(-0.146676 -0.13452 0)
(-1.47007 -0.391031 6.41223e-21)
(-1.20203 0.214606 1.15673e-20)
(-1.08577 -0.319293 -1.32218e-20)
(-0.568719 0.107957 -3.34569e-20)
(-1.12327 0.175135 6.94711e-21)
(-1.05618 -0.233482 -1.48011e-20)
(-0.668205 0.0559363 1.79428e-20)
(-1.2607 0.582592 0)
(-0.104844 -0.0833965 0)
(-1.45532 -0.443591 -9.02917e-21)
(-1.14253 0.338961 0)
(-1.22301 -0.266277 3.51073e-21)
(-0.489218 -0.0749451 -2.07846e-20)
(-0.950592 -0.550252 0)
(-1.40368 0.103986 0)
(-0.606182 0.444461 -1.09476e-21)
(-0.90123 0.480822 -1.05796e-21)
(-1.35582 -0.070382 0)
(-0.680078 -0.412525 3.73728e-20)
(-1.10719 -0.5764 1.41113e-20)
(-0.377972 0.324946 0)
(-1.43668 0.229214 0)
(0.00194961 -1.98646e-05 -4.02177e-20)
(-0.970321 -0.481635 2.57906e-21)
(-0.972233 0.481915 -2.58844e-21)
(-1.18163 0.259575 0)
(-1.13575 -0.294322 1.27344e-20)
(-0.538194 0.0372847 -1.71643e-20)
(-1.25654 0.548873 1.58289e-20)
(-0.169669 -0.111045 5.52337e-20)
(-1.42993 -0.394213 0)
(-0.750471 -0.501417 -9.7375e-21)
(-1.3966 -0.0210859 -1.17099e-20)
(-0.819773 0.520645 -9.5903e-21)
(-1.12073 0.626336 0)
(-0.00847376 -0.0154409 -1.5023e-20)
(-1.33817 -0.505276 0)
(-0.752888 0.215551 1.87595e-20)
(-0.746477 0.2548 -1.92351e-20)
(-0.917485 -0.283238 0)
(-1.19797 0.0674581 1.40743e-20)
(-0.908791 -0.316826 -2.83376e-20)
(-1.22754 0.0600699 -1.11136e-20)
(-1.1201 0.123061 1.60728e-20)
(-1.00072 -0.211465 1.70899e-20)
(-0.72827 0.0918431 0)
(-0.816952 0.25413 1.62868e-20)
(-0.793631 0.224974 0)
(-0.856904 -0.270292 -1.60577e-20)
(-1.20566 0.0151236 1.24238e-20)
(-0.884125 -0.258117 1.61826e-20)
(-1.18948 0.0364052 1.98606e-22)
(-1.16365 0.248756 1.01297e-21)
(-1.09453 -0.273336 -9.13414e-21)
(-0.60136 0.0560259 -2.22918e-20)
(-1.17306 0.20882 -2.71428e-20)
(-1.08046 -0.2884 2.44633e-22)
(-0.603069 0.0857978 0)
(-0.0659931 0.0768446 0)
(-1.20958 -0.623022 0)
(-1.47805 0.444542 7.97471e-21)
(-0.941151 0.345081 -8.62161e-21)
(-1.24596 -0.0881168 0)
(-0.702692 -0.257795 9.5803e-21)
(-1.39847 0.451013 -2.34725e-20)
(-1.30483 -0.534669 8.6292e-21)
(-0.13315 0.0540663 -1.67189e-20)
(-1.26093 0.312356 0)
(-1.2787 0.327801 1.32907e-20)
(-1.19306 -0.383794 -4.01675e-21)
(-1.20997 -0.399692 1.25537e-20)
(-0.405575 0.069232 -2.32461e-20)
(-0.374384 0.0698544 -2.16982e-20)
(-0.953589 0.312765 0)
(-1.21724 -0.0977403 0)
(-0.710119 -0.219356 4.47516e-21)
(-1.01761 0.460866 1.00834e-20)
(-1.3326 -0.155436 0)
(-0.565167 -0.306197 1.21437e-20)
(-1.22 0.29843 -6.96141e-21)
(-1.17413 -0.344865 0)
(-0.458236 0.0455035 0)
(-0.931105 0.123017 1.73484e-20)
(-1.06105 -0.0381067 -7.94049e-21)
(-0.851445 -0.0881841 9.09292e-21)
(-1.30969 0.299837 0)
(-1.17872 -0.43403 0)
(-0.383578 0.130286 -3.4936e-20)
(-0.93019 0.213076 0)
(-0.79014 -0.154325 5.09223e-21)
(-1.13894 -0.0601605 0)
(-1.2617 0.233116 -1.52919e-20)
(-1.10163 -0.383975 -1.72037e-20)
(-0.512778 0.150468 -2.90033e-21)
(-1.03173 0.431435 1.00835e-20)
(-1.30944 -0.169753 0)
(-0.559114 -0.268733 2.50513e-20)
(-0.92734 0.156065 -1.72035e-20)
(-0.900328 0.164334 -7.79609e-21)
(-1.08863 -0.0464916 7.80458e-21)
(-0.832671 -0.112099 -1.80263e-20)
(-1.10759 -0.0287678 0)
(-0.844243 -0.139645 -3.20026e-20)
(-0.841969 0.194477 -8.048e-21)
(-0.866331 -0.208662 2.11797e-20)
(-0.810701 0.206145 5.19651e-21)
(-1.15109 0.0095746 -1.72486e-20)
(-0.890867 -0.239453 -9.99329e-21)
(-1.17152 0.0329196 3.74379e-22)
(-1.00145 0.340286 9.16384e-21)
(-1.03605 0.336849 0)
(-1.23016 -0.141168 1.50727e-20)
(-1.22567 -0.166511 -1.17863e-20)
(-0.642501 -0.200451 -2.1673e-20)
(-0.612971 -0.171243 3.60897e-20)
(-0.311113 -0.172768 0)
(-1.3775 -0.312109 -5.74683e-21)
(-1.19019 0.500436 -1.42241e-20)
(-0.644092 0.439089 1.32428e-20)
(-1.38733 0.0859927 1.35636e-20)
(-0.927146 -0.52831 -3.1369e-20)
(-0.276485 -0.15027 -1.86677e-20)
(-0.272123 -0.118717 1.49724e-20)
(-1.38164 -0.339686 4.97387e-21)
(-1.36129 -0.355827 8.72436e-21)
(-1.21294 0.508396 3.61251e-20)
(-1.23101 0.486177 -1.87482e-20)
(-0.768015 0.440368 1.76662e-20)
(-0.823894 -0.455555 -1.52999e-20)
(-1.35031 0.0179072 3.1527e-21)
(-0.953151 0.0679917 2.86976e-20)
(-0.883761 -0.0324989 0)
(-1.00416 -0.0361859 -2.80822e-20)
(-1.30355 0.323917 -6.26646e-21)
(-1.20394 -0.428008 -1.4171e-20)
(-0.359707 0.0994219 0)
(-0.922199 0.29294 0)
(-0.744016 -0.23097 -4.26128e-21)
(-1.20881 -0.0684229 -1.31634e-20)
(-1.05217 0.433223 0)
(-1.30891 -0.185312 0)
(-0.534111 -0.249751 -2.33593e-20)
(-1.14683 0.505021 -1.56144e-20)
(-1.15555 0.48128 0)
(-1.37768 -0.270392 3.11997e-21)
(-0.372342 -0.223762 -2.27106e-20)
(-1.35674 -0.277167 -8.54601e-21)
(-0.375491 -0.194219 3.07032e-20)
(-1.23058 0.34525 1.31866e-20)
(-1.22644 -0.351752 1.30443e-20)
(-0.39937 0.00781138 1.26628e-20)
(-1.19496 0.619978 8.98469e-21)
(-1.37906 -0.511722 0)
(-0.019215 -0.0222304 -6.15455e-21)
(-0.780738 -0.491657 1.05746e-20)
(-1.384 -0.00583922 9.58316e-21)
(-0.798302 0.494946 1.04347e-20)
(-0.853713 0.513318 1.07397e-20)
(-0.849784 0.487612 1.1731e-20)
(-0.722882 -0.473661 -1.15876e-20)