/*--------------------------------*- C++ -*----------------------------------*\
  =========                 |
  \\      /  F ield         | OpenFOAM: The Open Source CFD Toolbox
   \\    /   O peration     | Website:  https://openfoam.org
    \\  /    A nd           | Version:  6
     \\/     M anipulation  |
\*---------------------------------------------------------------------------*/
FoamFile
{
    version     2.0;
    format      ascii;
    class       volVectorField;
    location    "0";
    object      U;
}
// * * * * * * * * * * * * * * * * * * * * * * * * * * * * * * * * * * * * * //

dimensions      [0 1 -1 0 0 0 0];

internalField   nonuniform List<vector> 
918
(
(0.985644 0.00380752 0)
(-0.00399577 2.96739 0)
(-0.00922033 1.59028 0)
(0.980693 -0.00203162 0)
(-0.00962832 1.56263 1.67362e-21)
(0.0013577 2.95101 -1.37488e-18)
(0.848254 1.17928 5.03234e-19)
(0.434233 0.174974 -5.44679e-21)
(0.999914 -0.000299149 0)
(0.0666221 0.725113 0)
(-0.0291189 1.13207 0)
(0.771764 -0.00884374 0)
(0.00890669 2.93491 0)
(0.00339858 2.79784 0)
(-0.00119429 3.20176 8.0339e-19)
(-0.00566362 1.45726 -5.35601e-21)
(0.547627 0.0704629 3.42133e-19)
(0.216931 1.13701 4.47467e-19)
(0.965431 0.00388755 0)
(-0.00152102 1.31731 0)
(0.197054 0.246477 -2.96864e-19)
(1.00193 -0.00489854 0)
(1.00172 -0.00830328 0)
(0.977625 -0.00473393 0)
(0.68735 -0.0282847 0)
(0.03068 2.63812 0)
(-0.0107104 2.91595 4.58093e-19)
(-0.0269125 1.61065 0)
(-0.0295449 1.74173 0)
(-0.0302894 1.60512 0)
(-0.00905001 1.83794 0)
(-0.000488601 1.58643 -1.30956e-21)
(-0.00990822 1.47031 0)
(-0.0198088 2.98959 -4.81407e-23)
(-0.0137425 3.00796 1.08221e-18)
(0.00163869 2.99972 0)
(0.876174 -0.00683204 0)
(0.376497 0.922383 -3.22258e-20)
(0.853788 1.1905 -7.36579e-19)
(0.990434 1.04009 6.75119e-19)
(0.716044 1.2739 -1.16273e-19)
(0.72612 1.25222 6.59294e-19)
(0.474451 0.267546 5.31231e-21)
(0.465515 0.156007 0)
(1.17704 0.531563 0)
(0.43849 0.289407 2.48413e-20)
(0.393884 0.198363 -2.57863e-20)
(0.923187 -0.00606189 0)
(1.0003 5.41293e-05 0)
(0.999898 0.000329782 0)
(1.00329 -0.00753486 0)
(1.00088 -0.00102573 0)
(1.00017 8.34492e-06 0)
(0.00548592 1.76891 -1.86364e-19)
(0.0689931 0.866273 0)
(0.110814 0.829307 0)
(0.0141962 0.803573 0)
(0.0171158 0.684178 0)
(0.0368779 1.53283 0)
(-0.0473089 1.22345 0)
(-0.0503734 1.02693 0)
(-0.0274133 1.33175 0)
(-0.0177694 1.20395 0)
(0.851958 -0.00234324 0)
(0.868554 0.0127657 0)
(0.785246 -0.00469145 0)
(0.861122 0.0176932 0)
(0.752287 -0.0112515 0)
(0.0137002 3.00359 4.95675e-19)
(0.0115126 3.00438 0)
(0.00740015 3.00385 0)
(0.0105769 2.99813 5.53452e-24)
(0.00618373 2.96199 -7.4585e-19)
(0.0116706 2.98463 0)
(0.00839317 2.90919 0)
(0.0212342 2.93333 1.00299e-24)
(0.00464231 2.82807 0)
(0.0262326 2.91986 0)
(0.000174438 2.74608 0)
(0.312578 3.60776 0)
(-0.12806 3.6901 0)
(0.15124 3.29373 -7.44485e-19)
(0.00638275 3.02388 0)
(-0.0173939 1.8161 0)
(0.00434373 1.61471 5.28265e-21)
(-0.00451973 1.4649 -6.14549e-21)
(0.601103 0.136868 -1.17519e-19)
(0.55225 0.0304606 -1.1201e-19)
(0.590095 0.175228 -3.53713e-19)
(0.537093 0.103622 -2.37473e-19)
(0.249397 0.914405 0)
(0.308276 1.28556 -4.39281e-19)
(0.374284 1.27086 7.26058e-19)
(0.989022 0.00630431 0)
(0.945205 0.00463892 0)
(0.999816 0.000749607 0)
(1.00381 0.00759202 0)
(1.00351 0.00859152 -5.91983e-19)
(0.992848 0.00737825 4.5315e-19)
(-0.0160552 1.48343 0)
(-0.00402112 1.30311 0)
(-0.0331499 1.61385 0)
(-0.0248132 1.51986 0)
(-0.00421375 1.35833 0)
(0.213187 0.266321 9.11791e-20)
(0.266296 0.237092 0)
(0.994776 -0.00615579 0)
(0.956509 -0.00554968 0)
(0.830933 0.0258667 0)
(0.796179 0.035872 0)
(0.726509 -0.0201005 0)
(1.00755 0.0011081 0)
(0.746948 0.0465621 0)
(0.605664 -0.0207189 4.37937e-19)
(-0.0351978 2.86594 2.61862e-19)
(0.0353867 2.91357 0)
(0.0445983 2.89071 0)
(0.00493359 2.70096 0)
(-0.0076654 2.98819 4.25168e-19)
(-0.0124312 2.89912 0)
(-0.00960899 2.99263 -1.33748e-18)
(-0.00932143 2.93241 4.60838e-19)
(-0.0240323 1.81724 0)
(-0.0188729 1.81353 0)
(0.00219645 1.61223 -3.59925e-23)
(0.00239413 1.58616 0)
(-0.00947716 1.46904 0)
(0.937714 -0.0031432 0)
(0.86035 -0.00795461 0)
(0.870345 0.00828857 0)
(0.950211 -0.00410176 0)
(0.887539 -0.00572032 0)
(0.505497 1.12083 3.22777e-20)
(0.551899 1.19209 0)
(0.33594 0.852471 1.82032e-21)
(0.275926 0.718894 0)
(0.95088 1.07364 -1.97181e-19)
(1.06733 0.866386 3.99544e-19)
(0.478325 1.36122 0)
(0.564857 1.34738 0)
(0.590467 1.26019 0)
(0.0891283 0.138345 -7.31076e-20)
(0.502249 0.247458 0)
(0.482882 0.152716 6.77048e-20)
(1.02966 0.921212 0)
(1.09548 0.759037 0)
(1.12548 0.69421 -3.48795e-19)
(1.15667 0.597601 0)
(1.21267 0.386868 3.24493e-20)
(0.957425 -0.00575483 0)
(0.963665 -0.0074579 0)
(0.902116 -0.00655193 0)
(0.985172 -0.00679975 0)
(0.976257 -0.00689893 0)
(0.939256 -0.00513528 0)
(0.999866 0.00206728 0)
(1.00084 0.00122961 0)
(0.999934 0.00074111 0)
(-0.0247746 2.03235 1.08255e-19)
(0.142857 1.72231 0)
(-0.0778672 2.01378 1.14542e-19)
(-0.00162839 1.80028 -4.62563e-20)
(0.12528 1.13272 -3.71298e-19)
(0.070309 1.005 0)
(0.15762 0.957574 0)
(-0.0271382 0.824574 0)
(-0.0404942 0.74984 0)
(0.0537105 1.71065 6.15116e-22)
(-0.0147725 1.53564 0)
(0.051272 1.71081 3.29435e-20)
(0.00568708 1.53061 -4.60445e-20)
(-0.0542185 0.931154 0)
(-0.0604941 1.08072 0)
(-0.0454567 0.882555 0)
(-0.0201674 1.40878 0)
(-0.0116367 1.24678 0)
(0.940342 0.0164241 0)
(0.876403 0.00109854 0)
(0.923436 0.00846967 0)
(0.846561 -0.00513024 0)
(0.81902 0.0042106 0)
(0.906939 0.0141249 0)
(0.887756 0.0117158 0)
(0.795233 0.000259788 0)
(0.00896588 3.06468 -4.22092e-21)
(0.01461 3.05744 0)
(0.0122401 2.97264 0)
(0.0073667 2.88092 0)
(0.915811 4.01664 0)
(1.22064 3.39427 7.61386e-19)
(0.0811295 3.10585 0)
(-0.0134566 2.92859 0)
(-0.0223019 1.80401 0)
(-0.0225736 1.81095 0)
(-0.0202348 1.80585 0)
(-0.0108488 1.82596 2.81554e-21)
(-0.0163246 1.8249 0)
(-0.013594 1.82269 0)
(-0.00543592 1.49502 -5.2851e-21)
(0.00121035 1.66719 3.71644e-22)
(0.00155733 1.63362 6.31156e-21)
(-0.00860964 1.47229 0)
(0.618071 0.108771 1.72701e-19)
(0.550645 0.00617424 -1.68231e-19)
(0.242122 1.52013 0)
(0.294931 0.647463 -1.40937e-19)
(0.20048 1.61893 -4.82524e-19)
(0.251423 1.15084 4.8237e-19)
(0.90622 0.0073542 0)
(0.96872 0.0100908 0)
(0.976307 0.00873421 0)
(0.926285 0.00667438 0)
(-0.0171639 1.45744 0)
(-0.014806 1.47296 0)
(-0.00598272 1.27392 0)
(0.383583 0.297057 2.28941e-19)
(0.336491 0.273656 -2.79046e-19)
(0.346684 0.221373 0)
(1.12994 0.0874306 -5.6834e-21)
(1.11696 0.0419036 0)
(1.03976 0.0416463 0)
(0.943805 0.0093573 0)
(0.637773 0.0806086 0)
(0.682585 0.0600113 -7.11506e-19)
(0.55929 -0.0108139 2.76943e-19)
(0.0110257 2.98109 3.19092e-19)
(-0.0289103 2.86708 3.22713e-20)
(0.00626983 3.05019 -9.09979e-21)
(0.0155954 3.04119 3.46887e-19)
(-0.00968877 3.00012 1.53532e-20)
(-0.00872091 2.95411 -6.2734e-23)
(-0.014984 3.01286 -2.93987e-19)
(0.0125734 3.02389 2.07851e-19)
(0.00617696 3.03182 -3.32932e-19)
(0.928072 0.00276639 0)
(0.934713 -0.000607774 0)
(0.850059 -0.00649523 0)
(0.958312 0.0108449 0)
(0.944756 0.01218 0)
(0.886843 0.00932818 0)
(0.923799 0.0138256 0)
(0.931222 0.0115247 0)
(0.848692 0.00741264 0)
(0.691775 1.42734 2.21942e-19)
(0.712047 1.54048 0)
(0.186592 0.383075 1.50993e-20)
(0.161346 0.558534 1.19405e-19)
(0.24144 0.672896 -6.80404e-20)
(0.203989 0.562467 1.22164e-19)
(0.283755 0.694939 4.29843e-19)
(0.114015 0.168786 1.35254e-19)
(0.558365 0.21778 2.56671e-19)
(0.529917 0.235507 6.2328e-20)
(0.503549 0.133305 1.28102e-19)
(1.20355 0.445804 2.27956e-19)
(1.22821 0.244394 2.39326e-19)
(-0.00799859 1.9712 1.2163e-20)
(-0.00156958 1.74298 0)
(0.988751 0.03246 0)
(0.953744 0.0218588 0)
(0.900885 0.000734833 0)
(0.0109135 3.0729 0)
(0.0169758 2.94586 5.8428e-19)
(0.0141465 2.95905 0)
(0.00607 2.85424 -5.81105e-19)
(0.0082797 3.08785 1.37386e-19)
(0.0108428 3.08123 0)
(0.73199 1.83597 -1.73007e-19)
(1.26537 2.62793 5.73141e-19)
(0.712696 2.00732 -1.14745e-18)
(0.0230243 2.98295 -2.4262e-19)
(0.0422056 3.01032 0)
(-0.0317096 2.88671 0)
(0.0340615 1.68832 9.25102e-21)
(0.00992337 1.70095 1.05852e-20)
(0.0106823 1.51499 -1.72617e-21)
(0.26151 1.30725 4.58092e-19)
(0.25705 0.437027 -3.13847e-19)
(0.0384891 1.94676 2.79515e-19)
(0.123791 1.80552 -3.67189e-19)
(0.225807 1.51678 6.61145e-20)
(0.00434227 3.11741 -8.11532e-19)
(0.021047 3.11593 8.93347e-19)
(-0.00458378 2.98271 3.77076e-19)
(0.000147696 2.97777 -3.43214e-19)
(-0.0151914 2.88269 -3.84162e-19)
(0.0116321 3.09736 -1.00809e-18)
(0.00548878 3.10434 9.97318e-19)
(0.192974 0.586807 0)
(0.144777 0.554664 -2.40917e-19)
(0.0849025 0.186287 1.06954e-19)
(0.310058 0.800728 4.12686e-19)
(0.171083 0.210911 -6.28098e-19)
(1.21629 0.170161 -5.31967e-20)
(1.22632 0.301588 0)
(1.21218 0.11485 9.70267e-20)
(0.0138247 1.77954 1.16312e-21)
(-0.0333287 1.8737 0)
(-0.0154332 1.63996 0)
(0.306094 1.21012 -1.60449e-19)
(0.324445 1.02436 -3.36896e-19)
(0.212202 0.315649 5.79625e-19)
(1.00558 -0.0104242 0)
(1.00687 -0.00725106 1.08842e-19)
(-0.0250003 1.8051 0)
(-0.0337234 1.81376 0)
(1.00143 0.00326609 1.17696e-21)
(1.0034 0.00891032 2.2176e-19)
(-0.00979984 1.83026 -3.81102e-21)
(-0.00611905 1.82891 0)
(0.0490881 3.17888 1.20392e-19)
(0.383136 3.55321 0)
(1.08533 0.684198 5.11033e-20)
(1.01243 0.0121035 -1.46089e-21)
(1.02034 -0.00981398 0)
(1.00158 2.96787e-05 1.68447e-24)
(0.143897 1.16406 0)
(0.18841 2.64842 0)
(-0.211561 1.43482 0)
(-0.19587 2.33046 -4.64709e-20)
(-0.0937468 2.02098 3.65079e-20)
(1.00724 0.0168991 2.25029e-21)
(1.04589 0.0095712 0)
(1.07542 0.028181 0)
(-0.0238266 1.81509 0)
(-0.0176945 1.85889 0)
(-0.0286461 1.78807 0)
(0.274315 1.45378 -2.98826e-19)
(1.01018 -0.00877408 0)
(1.0092 -0.0148378 0)
(1.00224 0.000358408 1.37029e-19)
(1.00538 -0.00516712 -1.64089e-19)
(1.00121 -0.000973298 0)
(-0.027814 1.80874 0)
(-0.025877 1.80228 0)
(-0.0258645 1.80599 0)
(-0.0288136 1.78928 0)
(-0.0291435 1.7908 0)
(-0.0294151 1.79203 0)
(1.02842 -0.0120465 0)
(1.01839 0.0110852 -6.02926e-22)
(0.760861 1.30619 3.70921e-19)
(1.003 0.000286019 -1.37674e-19)
(1.00321 0.00498908 1.663e-19)
(1.00125 0.0020408 0)
(1.01231 0.0100461 1.3334e-19)
(1.00721 0.00839811 -1.6757e-19)
(1.00851 0.0133963 0)
(-0.0154527 1.85746 0)
(-0.007475 1.84164 5.01131e-21)
(-0.00664122 1.84166 -3.10746e-21)
(1.19372 0.264872 -1.10821e-19)
(1.12772 0.093996 0)
(0.0589518 3.08556 -3.90274e-19)
(0.0526494 2.86566 -2.97699e-20)
(0.12158 3.20417 5.03937e-19)
(0.130402 3.22105 -4.1733e-20)
(0.151221 3.26343 0)
(0.0255215 3.13703 9.51952e-20)
(0.0724268 3.16217 3.83577e-19)
(0.0705385 3.18359 -1.82223e-19)
(0.03077 3.12594 0)
(0.657945 0.333533 0)
(0.626446 0.373059 0)
(1.07794 0.708929 -1.8804e-19)
(1.03881 0.856265 2.85146e-19)
(1.13472 0.602549 0)
(1.16023 0.535795 0)
(1.01513 0.012713 -2.46683e-19)
(1.01396 0.01348 3.08128e-19)
(1.0245 -0.00915906 0)
(1.02307 -0.0107198 0)
(1.00714 0.00283003 0)
(1.00941 0.0030428 0)
(1.00411 0.00171993 0)
(1.00841 0.00638457 0)
(1.00785 0.00540443 0)
(1.00382 0.00475308 0)
(0.157616 1.1765 0)
(0.0773717 0.968575 0)
(0.231057 1.24658 0)
(0.14887 1.27745 0)
(0.173345 2.63036 0)
(0.228741 2.65535 -1.30486e-19)
(0.0889596 2.71924 0)
(0.0934273 2.70616 -2.82317e-20)
(-0.181031 2.67566 1.07682e-19)
(-0.165893 1.47572 0)
(-0.139371 1.52918 0)
(-0.233443 1.3737 0)
(-0.205866 1.24689 0)
(-0.418556 2.08321 6.48364e-20)
(-0.141834 2.11301 1.32871e-20)
(-0.179039 2.30624 -1.9055e-21)
(-0.104115 2.18769 0)
(-0.0866896 2.0166 -7.10995e-20)
(-0.0597907 1.97975 -1.52102e-20)
(-0.432914 2.05759 -6.72248e-20)
(-0.24559 2.05785 -1.71879e-20)
(-0.273865 2.19255 2.44102e-21)
(1.01755 0.0252764 2.41541e-19)
(1.01547 0.0128579 -2.95186e-19)
(1.00809 0.026708 -2.53976e-19)
(0.992081 0.0172437 3.25589e-19)
(1.0458 0.0109748 0)
(1.0315 -0.00803941 0)
(1.06979 0.0399829 0)
(1.05381 0.0204263 0)
(1.05527 0.0138329 0)
(1.10706 0.075916 0)
(1.08327 0.0499552 0)
(1.0953 0.0424542 0)
(-0.0150744 1.83362 -8.42255e-22)
(-0.0237591 1.82648 0)
(-0.0189935 1.82612 0)
(-0.0314058 1.87982 7.17936e-21)
(-0.0296169 1.88651 -2.00402e-22)
(-0.0389917 1.81612 6.29362e-21)
(-0.0328886 1.81212 -6.344e-21)
(-0.0355825 1.79799 0)
(-0.0320943 1.80368 0)
(-0.032212 1.80314 0)
(-0.0370406 1.77765 0)
(-0.0259348 1.75127 0)
(0.365523 1.4848 5.7866e-19)
(0.379417 1.48698 2.3146e-19)
(0.589185 2.43318 -1.07708e-19)
(0.398157 2.51596 2.88478e-19)
(0.337569 2.09237 -2.70778e-20)
(1.02007 -0.00830937 0)
(1.01372 -0.00948983 0)
(1.01468 -0.0146444 0)
(1.00753 -0.000882776 0)
(1.00418 -0.00116559 0)
(1.00641 -0.00391501 0)
(1.00977 -0.00354073 0)
(1.01241 -0.00503199 0)
(1.02067 0.014019 2.34987e-19)
(1.01499 0.0115254 -2.98493e-19)
(1.02147 0.0166796 -2.35858e-19)
(1.01574 0.016052 2.94976e-19)
(0.734479 1.34237 0)
(0.654271 1.39148 4.2299e-19)
(0.836681 1.21826 2.50934e-19)
(0.854526 1.20315 -3.32962e-19)
(1.15756 2.62887 -3.94922e-19)
(0.835618 0.121761 1.7407e-19)
(1.13402 0.103345 0)
(1.16979 0.184615 9.04816e-20)
(1.15372 0.161706 4.14231e-21)
(0.982539 0.124027 0)
(0.107494 3.02438 -5.17664e-20)
(0.106881 2.90108 -4.55823e-19)
(0.0487362 2.34489 3.06603e-19)
(0.174927 0.0491109 -1.36151e-19)
(0.351826 3.45919 -3.23914e-19)
(0.200445 3.34778 0)
(0.232256 3.40722 4.21732e-19)
(0.242197 3.08439 -1.46972e-19)
(0.280423 3.20991 0)
(0.00689163 3.1197 2.06446e-20)
(0.0176445 3.12874 -2.57163e-19)
(0.0164162 3.12445 3.77778e-19)
(0.0376138 3.13829 0)
(0.0359335 3.14923 0)
(1.25639 2.60619 0)
(0.491449 0.841004 -1.39005e-19)
(0.966622 1.04136 -1.45045e-19)
(0.948593 1.06476 0)
(0.797775 0.945854 4.378e-20)
(1.02985 0.89295 2.01726e-20)
(0.445918 0.442327 -3.35765e-19)
(0.704842 0.328243 -1.53937e-20)
(0.690842 0.284061 1.33779e-19)
(0.636002 0.397923 1.06805e-20)
(0.574527 0.397275 -4.42409e-19)
(0.674618 0.35497 0)
(0.708246 0.419683 2.22347e-19)
(0.704456 0.418791 0)
(0.660032 0.374419 0)
(0.634615 0.341725 0)
(0.73723 0.604884 6.50532e-20)
(1.19611 0.283423 8.73787e-20)
(1.17077 0.419789 0)
(1.18969 0.388998 0)
(0.768693 0.203814 2.03258e-19)
(0.80788 0.515288 -1.08243e-19)
(0.741289 0.48342 1.7561e-19)
(0.909637 0.420089 -1.50725e-19)
(1.01814 0.0128275 1.60579e-19)
(1.01632 0.013482 -1.64557e-19)
(1.01465 0.0136613 0)
(1.02985 -0.0111588 0)
(1.02785 -0.00971292 -1.45646e-19)
(1.0252 -0.0129634 1.442e-19)
(1.02714 0.00545219 0)
(1.02581 0.013362 0)
(1.01167 0.00410621 0)
(1.0138 0.00923784 0)
(1.0154 0.00389438 0)
(1.01392 0.00206646 0)
(0.00247773 0.989938 0)
(-0.101319 0.973513 0)
(0.341877 1.31831 3.40589e-19)
(0.275837 1.46825 1.81302e-19)
(0.205604 1.42165 4.07461e-19)
(0.215558 1.42272 -6.42903e-19)
(0.29103 1.40493 0)
(0.330397 1.64046 1.96358e-19)
(0.355258 1.67783 0)
(0.331267 2.03773 3.92546e-20)
(0.332179 2.38452 1.51494e-19)
(0.327491 1.47256 -1.76186e-19)
(0.281449 1.43222 1.40675e-19)
(0.292914 1.38857 -1.13501e-19)
(0.286764 1.36403 2.28011e-19)
(0.251607 1.59965 0)
(0.287865 1.62417 -1.44908e-19)
(-0.198095 2.57181 1.52316e-19)
(-0.141767 2.72264 0)
(0.0403736 2.59708 -2.87488e-19)
(-0.0581882 2.65604 0)
(0.00171457 2.78244 3.08002e-20)
(-0.101266 2.73889 0)
(-0.387761 1.63838 1.20578e-19)
(-0.489837 1.74669 0)
(-0.361489 1.45278 0)
(-0.339753 1.47736 -1.35834e-19)
(-0.236271 2.478 -5.02903e-20)
(-0.184799 2.65848 -1.38278e-19)
(-0.182337 2.57273 -9.06367e-22)
(-0.263772 1.91995 4.8462e-21)
(-0.345336 1.90466 -1.80941e-20)
(-0.113653 1.58731 0)
(-0.0780067 1.62065 0)
(-0.460255 1.85459 -3.52749e-19)
(-0.380434 1.47286 -3.2471e-19)
(-0.441047 1.71507 4.12874e-19)
(-0.235918 1.81664 0)
(-0.0525704 1.85248 -2.32871e-20)
(-0.0499292 1.87632 9.02079e-21)
(-0.0633016 1.8847 -3.15164e-21)
(-0.211874 1.86968 -5.86544e-21)
(-0.0965966 1.93586 -5.6302e-21)
(-0.116204 1.9682 4.05817e-20)
(1.02023 0.0195341 -1.58528e-19)
(1.0212 0.0204927 1.56838e-19)
(1.01482 0.0183927 0)
(1.00196 0.0458057 2.2902e-19)
(0.99271 0.0294335 -2.74282e-19)
(0.968993 0.0294892 3.19252e-19)
(1.00125 0.0825462 -2.96799e-20)
(1.03292 -0.0116111 0)
(1.03436 -0.00516405 1.27457e-19)
(1.02546 -0.0181714 -1.28088e-19)
(1.05437 0.0424987 -6.67522e-21)
(1.0528 0.0344155 6.07076e-20)
(1.05354 0.056071 0)
(1.04265 0.0483502 -2.32457e-20)
(1.03398 0.0318444 0)
(1.02937 0.0225766 0)
(1.03174 0.00869522 0)
(1.02872 0.0120609 0)
(1.04286 0.0299025 4.83375e-20)
(1.04508 0.0212744 -1.11009e-19)
(1.04531 0.033495 -4.78667e-20)
(1.04373 0.0333209 -5.65954e-20)
(1.0549 0.0588798 9.50919e-20)
(1.07554 0.0539297 0)
(1.06848 0.0948727 0)
(-0.0445976 1.85186 -7.69357e-21)
(-0.0262536 1.82918 -8.68517e-22)
(-0.0339348 1.83502 0)
(-0.0248816 1.84958 7.74261e-21)
(-0.0176978 1.83717 1.63386e-21)
(-0.0177595 1.84338 -1.63837e-21)
(-0.0536832 1.96371 1.11954e-20)
(-0.0693261 1.90416 -1.18025e-21)
(-0.0799525 1.91879 6.0615e-21)
(-0.0438257 1.92111 -6.49065e-21)
(-0.0433046 1.93081 8.12001e-21)
(-0.0488528 1.80462 2.89618e-22)
(-0.0523204 1.81868 9.32201e-21)
(0.402197 1.41533 -2.87543e-19)
(0.34191 1.38844 -2.92627e-19)
(0.62705 1.42927 -4.086e-19)
(0.511201 1.49095 -2.22847e-19)
(0.529415 1.47344 0)
(0.593275 2.40614 8.40443e-20)
(0.65922 2.39161 1.50438e-19)
(0.415842 2.49082 5.17474e-20)
(0.406339 2.55256 -1.12901e-19)
(0.508627 2.51976 1.62706e-19)
(0.538735 2.44726 0)
(0.488466 2.48628 -2.29527e-19)
(0.287193 2.54793 3.94435e-19)
(0.35182 2.52465 -4.73972e-20)
(0.299523 2.614 -6.19786e-19)
(0.928797 2.39059 1.34093e-19)
(0.828947 2.38152 0)
(1.01024 0.000908271 5.3328e-21)
(1.01559 -0.00525294 -4.43565e-21)
(1.0159 -0.00452929 -7.79092e-20)
(1.01502 -0.00100755 7.99669e-20)
(1.01228 0.00110861 0)
(0.614765 1.26152 0)
(0.635921 1.16604 0)
(0.742021 1.08952 0)
(0.618604 1.13112 0)
(1.18778 2.64679 3.37319e-20)
(1.0771 2.3843 0)
(0.833677 2.22742 -1.35714e-21)
(0.829546 2.49515 0)
(0.919902 2.57377 2.61898e-20)
(0.951538 2.52142 -1.7308e-20)
(0.842096 0.140884 0)
(0.810751 0.158295 5.05897e-20)
(0.928674 0.130318 2.52205e-19)
(0.864472 0.106113 -1.02141e-19)
(0.847761 0.0744985 -3.08245e-19)
(1.03115 0.210796 -1.12048e-19)
(0.942395 0.267376 -6.47846e-21)
(0.901373 0.301906 2.16596e-19)
(0.975444 0.206347 1.52904e-19)
(0.925739 0.169619 -3.10872e-19)
(0.893047 0.178698 4.19476e-20)
(0.924969 0.281049 -7.25261e-20)
(0.898036 0.191457 0)
(0.970957 0.161442 1.45482e-19)
(1.00872 0.174569 0)
(1.0049 0.185566 0)
(1.0892 0.113205 3.50098e-20)
(1.01727 0.157349 -6.95895e-21)
(1.02326 0.217834 -2.40882e-20)
(1.07452 0.1931 0)
(1.02088 0.0311618 1.19648e-19)
(1.03566 0.0515617 1.3859e-19)
(1.03182 0.0345522 -1.18038e-19)
(1.02955 0.0527623 -9.36025e-20)
(1.01336 0.0536161 -1.61464e-19)
(0.974071 0.126349 0)
(0.975875 0.0764122 0)
(0.967921 0.0456209 -1.15179e-19)
(0.936548 0.0613602 4.98908e-20)
(1.01862 0.083581 1.32261e-19)
(1.03735 0.114059 -1.16686e-19)
(1.02838 0.146351 1.11664e-19)
(1.00571 0.121563 0)
(1.04946 0.0986132 0)
(1.03162 0.0882025 -5.05832e-20)
(1.02896 0.0805345 -1.04621e-19)
(0.570391 1.09794 -7.93138e-20)
(0.603896 1.44755 1.42596e-19)
(1.14047 2.75236 6.83157e-20)
(1.20158 3.12782 -5.51658e-20)
(1.24955 2.75071 4.17939e-19)
(1.29352 2.72718 -2.11968e-19)
(1.26219 2.35119 -1.92008e-20)
(1.18605 3.0308 1.67108e-19)
(1.20323 2.98607 -1.78217e-19)
(1.18973 3.28212 -1.92254e-19)
(1.40355 2.99738 2.30674e-19)
(1.41899 2.93235 0)
(0.517789 0.859741 -5.81353e-21)
(0.24967 1.26991 1.8809e-19)
(0.491179 0.537285 2.1726e-19)
(0.345247 0.314365 2.55956e-19)
(0.579382 0.426278 2.46842e-19)
(0.566679 0.502793 -3.91017e-19)
(0.566979 0.505778 3.27066e-19)
(0.540138 0.461583 -1.3084e-19)
(0.508768 0.403706 2.98388e-19)
(0.778182 0.254813 -1.13436e-19)
(0.737655 0.305353 0)
(0.726023 0.262159 7.39036e-21)
(0.729088 0.499329 1.15869e-19)
(0.690083 0.471492 -4.29081e-19)
(0.655065 0.487248 1.54314e-20)
(0.661497 0.450312 0)
(0.648798 0.736896 7.93415e-20)
(0.745353 0.766297 3.87404e-20)
(0.687087 0.821752 -4.94509e-20)
(0.821525 0.787514 -4.44567e-21)
(0.874773 0.832628 1.24018e-20)
(0.879985 0.842042 -1.27395e-20)
(0.804047 0.637914 -1.10991e-19)
(0.880302 0.688253 4.13764e-21)
(0.94278 0.69856 0)
(0.93361 0.675556 6.25039e-21)
(0.979264 0.312334 3.20921e-20)
(1.1032 0.292103 -2.66276e-20)
(1.01611 0.248434 4.48404e-20)
(0.951607 0.35227 -7.52925e-20)
(0.985253 0.440765 0)
(1.05707 0.399017 0)
(0.877751 0.377133 6.689e-21)
(0.815937 0.29939 0)
(0.849786 0.275668 1.18218e-19)
(0.866475 0.308829 3.24588e-21)
(0.908209 0.430568 4.10819e-19)
(0.854122 0.490883 1.02821e-19)
(0.858515 0.444476 -1.46014e-19)
(0.802008 0.431487 1.55347e-19)
(0.797061 0.424835 1.07126e-19)
(0.771985 0.398373 -1.048e-19)
(1.02646 -0.00410059 1.23872e-19)
(1.01918 -0.00147475 0)
(1.01775 -0.000466801 8.42869e-20)
(1.0224 -0.0013629 -1.89181e-19)
(1.02089 0.00152382 9.1877e-20)
(1.02078 0.00963525 -1.94135e-19)
(1.02209 0.00926656 0)
(1.02021 0.0115 -4.07365e-20)
(1.01619 0.00755743 1.02292e-19)
(1.01649 0.0104127 -5.18297e-20)
(1.01752 0.00927809 3.78246e-20)
(-0.239825 1.21311 0)
(-0.345089 1.3926 0)
(-0.162212 1.07619 0)
(-0.163299 1.06171 0)
(0.152525 1.34185 -8.62482e-19)
(0.243 1.20663 2.91639e-19)
(0.291886 1.66264 1.87234e-19)
(0.33185 1.28551 -1.58204e-19)
(-0.301612 1.47514 5.18115e-19)
(-0.27233 1.49284 -3.90369e-19)
(-0.0109206 1.21696 4.25143e-20)
(-0.0915873 1.20195 5.14107e-19)
(-0.182292 1.19672 6.27414e-20)
(-0.298644 1.31252 5.38114e-20)
(0.131318 2.55546 2.98889e-19)
(0.12759 2.55856 0)
(0.223678 2.17271 -3.17196e-20)
(0.279852 1.82226 -1.05751e-19)
(0.272401 2.09031 1.99776e-20)
(0.248029 2.42016 0)
(0.263672 2.39357 -1.09619e-19)
(0.316986 2.39796 7.94502e-20)
(0.318547 2.03165 7.16966e-20)
(0.214424 2.22918 7.98657e-21)
(0.108553 2.35782 0)
(-0.418063 2.23487 3.83176e-19)
(-0.376573 2.37572 1.86658e-19)
(-0.448948 2.24318 0)
(-0.30278 2.53361 -1.03134e-21)
(-0.290271 2.50193 -1.86199e-19)
(-0.279351 1.62402 -5.99974e-21)
(-0.186188 1.65605 9.34198e-20)
(-0.194581 1.70873 -2.83731e-20)
(-0.298473 1.69604 -2.96053e-20)
(-0.362939 1.64829 0)
(-0.166428 1.71334 0)
(-0.0526286 1.73776 4.49449e-21)
(-0.093041 1.75166 -9.73436e-22)
(-0.12076 1.73161 0)
(-0.0730374 1.67445 1.94052e-21)
(-0.0376816 1.69714 -5.79908e-21)
(1.03227 0.00324943 0)
(1.03743 0.00288773 -1.1904e-20)
(1.04726 0.0180397 -8.67964e-20)
(1.04831 0.018935 0)
(1.04542 0.0170351 0)
(1.0439 0.00371607 -4.47394e-21)
(1.03749 0.00298987 1.47834e-19)
(1.04008 0.0109006 1.77494e-19)
(1.03128 0.0169912 0)
(1.02928 0.0179786 0)
(1.04162 0.0206822 8.88337e-20)
(1.03235 0.0185722 0)
(1.0298 0.0178192 0)
(-0.101137 1.85123 0)
(-0.0690385 1.81447 1.70453e-21)
(-0.0805738 1.84238 5.51398e-21)
(-0.0710872 1.76457 0)
(-0.0856154 1.80146 3.47188e-21)
(-0.0651936 1.79489 -3.56263e-21)
(-0.0604258 1.78458 0)
(0.402488 1.71331 0)
(0.314599 1.31651 4.72532e-19)
(0.249197 1.37868 0)
(0.42609 1.27276 -5.99048e-19)
(0.495201 1.43043 0)
(0.438286 1.39016 2.81026e-19)
(1.02611 2.70997 -2.53501e-21)
(0.950382 2.41752 -1.66673e-19)
(0.888995 2.16628 2.05365e-19)
(0.849133 2.37602 7.5041e-20)
(0.8481 2.53286 0)
(0.912706 2.52583 0)
(0.909324 2.38599 0)
(0.893369 2.36128 -2.63603e-19)
(0.690257 2.52098 1.75373e-20)
(0.804417 2.50451 -4.58158e-21)
(0.816031 2.47893 3.56909e-21)
(0.688736 2.37458 0)
(0.793562 2.37749 0)
(0.754461 2.38574 -1.51137e-19)
(0.773857 2.51313 0)
(0.567076 1.06252 0)
(0.488992 0.904039 -9.99402e-21)
(0.492426 0.959631 2.96917e-22)
(0.481929 1.07913 0)
(0.472244 1.00676 1.90861e-20)
(0.727173 0.870947 1.28014e-20)
(0.752292 1.00156 0)
(0.725439 0.976012 -5.1328e-20)
(0.604846 1.0177 0)
(0.606252 0.936331 0)
(1.15641 2.78033 4.86653e-20)
(1.13127 2.84119 9.14007e-20)
(0.92165 2.37282 -2.11214e-19)
(0.893286 2.34871 3.0036e-20)
(1.12403 2.75592 0)
(1.07555 2.72572 -3.69814e-20)
(1.08737 2.50872 -3.92607e-20)
(0.984073 2.24582 -2.0153e-20)
(0.504517 1.36506 0)
(0.505877 1.0783 6.96406e-20)
(0.558752 1.15706 0)
(0.862348 0.20064 0)
(0.821381 0.166071 0)
(0.770421 0.157332 0)
(0.861682 0.208876 -1.85782e-19)
(0.806502 0.20657 1.17539e-19)
(0.940502 0.055996 -1.03553e-19)
(0.946869 0.103052 0)
(0.921052 0.111206 4.74481e-20)
(0.885804 0.0698715 1.94796e-19)
(0.882675 0.0520075 -1.19323e-19)
(1.11624 3.37922 -6.65187e-19)
(1.17929 3.30195 0)
(1.13703 3.45277 -1.39557e-18)
(0.670896 3.59812 1.1969e-18)
(1.01164 3.1001 2.95055e-19)
(0.498086 0.850745 1.14829e-19)
(0.483819 0.821933 0)
(0.393168 0.562212 -5.04253e-20)
(0.430059 0.695986 2.27002e-19)
(0.512221 0.541825 -6.99042e-20)
(0.510175 0.559162 7.85578e-20)
(0.671177 0.545119 1.55307e-19)
(0.686843 0.557251 0)
(0.620057 0.635918 0)
(0.591097 0.574092 0)
(0.943174 0.594227 -4.01311e-20)
(0.881952 0.524329 -9.80886e-20)
(0.908521 0.56609 2.41943e-20)
(0.953684 0.488986 -6.88201e-20)
(1.00485 0.470066 0)
(1.02208 0.582616 4.21724e-21)
(0.823984 0.39089 -2.38065e-19)
(0.821407 0.385408 -2.78285e-19)
(0.783065 0.378247 1.86506e-19)
(0.77834 0.350375 -2.12646e-19)
(0.81589 0.317718 -1.57831e-19)
(0.781633 0.317457 1.94198e-19)
(1.02621 0.00124997 -9.58916e-20)
(1.02737 -0.000946475 1.96587e-19)
(1.0273 -0.00457699 1.17123e-19)
(1.02882 -0.00618973 -1.43289e-19)
(1.03259 -0.00149738 0)
(1.03212 -0.00132973 -2.3317e-19)
(-0.0777264 1.9753 -9.84927e-20)
(-0.103217 1.82985 0)
(0.24678 1.82569 -6.51085e-19)
(0.263143 1.85063 5.74102e-19)
(0.286364 1.70254 -3.49864e-19)
(0.180302 1.70381 0)
(-0.182089 1.86056 0)
(-0.163783 1.76488 -2.65188e-22)
(-0.119369 1.76971 2.38906e-22)
(-0.104904 1.79813 3.94452e-21)
(-0.119821 1.85631 -6.81672e-21)
(-0.137194 1.85761 4.53883e-21)
(0.50514 1.3735 3.14316e-19)
(0.493349 1.39278 -3.34732e-19)
(0.430303 1.27137 3.16078e-19)
(0.417053 1.30585 -1.94528e-20)
(0.608807 1.29651 0)
(0.547943 1.36135 3.77299e-19)
(0.553908 1.36838 -3.64831e-19)
(0.448324 1.24914 -3.07625e-19)
(0.500125 1.2073 0)
(0.568938 1.19208 0)
(0.656551 2.47695 -2.62372e-20)
(0.663949 2.47887 3.49187e-19)
(0.717929 2.50504 -2.38827e-19)
(0.620934 2.4887 -7.81945e-20)
(0.542691 2.58101 5.92991e-20)
(0.499987 2.53656 -1.78981e-19)
(0.964686 2.38293 -1.12161e-19)
(1.00922 2.41016 0)
(0.910092 2.1563 -1.41611e-19)
(1.04348 2.70562 0)
(1.04352 2.6923 0)
(0.617857 2.32702 2.44552e-19)
(1.10813 3.10636 3.13367e-19)
(0.983101 2.99576 -3.42369e-19)
(0.34 0.937735 0)
(0.376318 0.84667 -8.26485e-20)
(0.543505 0.762795 -2.88664e-20)
(0.392278 2.16975 0)
(0.420473 2.77017 -2.08746e-19)
(0.435526 2.51814 0)
(0.647385 0.68931 -1.65984e-19)
(0.701977 0.661691 2.31832e-19)
(0.714586 0.627013 -2.31028e-19)
(0.64726 0.659421 -2.5187e-20)
(0.704392 0.598738 -1.07011e-19)
(0.97468 2.78646 -2.36777e-19)
(1.0132 2.79886 1.97322e-19)
(0.578397 2.25825 -1.16619e-19)
(0.613181 1.77918 4.84967e-20)
(0.700377 1.90554 4.70575e-20)
(0.977797 2.439 -6.26626e-20)
(0.972929 2.40453 -8.68413e-20)
(0.662935 1.85355 -2.49241e-21)
(0.452084 1.34469 -4.50298e-20)
)
;

boundaryField
{
    wall-4
    {
        type            noSlip;
    }
    velocity-inlet-5
    {
        type            fixedValue;
        value           uniform (1 0 0);
    }
    velocity-inlet-6
    {
        type            fixedValue;
        value           uniform (0 3 0);
    }
    pressure-outlet-7
    {
        type            zeroGradient;
    }
    wall-8
    {
        type            noSlip;
    }
    frontAndBackPlanes
    {
        type            empty;
    }
}

