/*--------------------------------*- C++ -*----------------------------------*\
  =========                 |
  \\      /  F ield         | OpenFOAM: The Open Source CFD Toolbox
   \\    /   O peration     | Website:  https://openfoam.org
    \\  /    A nd           | Version:  6
     \\/     M anipulation  |
\*---------------------------------------------------------------------------*/
FoamFile
{
    version     2.0;
    format      ascii;
    class       volVectorField;
    location    "0";
    object      U;
}
// * * * * * * * * * * * * * * * * * * * * * * * * * * * * * * * * * * * * * //

dimensions      [0 1 -1 0 0 0 0];

internalField   nonuniform List<vector> 
40000
(
(4.23096e-07 -4.23097e-07 0)
(1.74516e-06 -5.32924e-07 0)
(2.79489e-06 -3.48755e-07 0)
(2.98293e-06 -3.19387e-08 0)
(1.92606e-06 3.24483e-07 0)
(-4.84281e-07 6.82556e-07 0)
(-4.23618e-06 1.02236e-06 0)
(-9.25881e-06 1.33432e-06 0)
(-1.54504e-05 1.61471e-06 0)
(-2.26957e-05 1.86278e-06 0)
(-3.08758e-05 2.0794e-06 0)
(-3.98748e-05 2.26635e-06 0)
(-4.95819e-05 2.42588e-06 0)
(-5.98944e-05 2.56044e-06 0)
(-7.07181e-05 2.67252e-06 0)
(-8.19679e-05 2.76457e-06 0)
(-9.35679e-05 2.839e-06 0)
(-0.000105451 2.89808e-06 0)
(-0.000117559 2.94392e-06 0)
(-0.000129841 2.97846e-06 0)
(-0.000142254 3.00347e-06 0)
(-0.000154762 3.0205e-06 0)
(-0.000167333 3.03095e-06 0)
(-0.000179943 3.03601e-06 0)
(-0.00019257 3.03672e-06 0)
(-0.000205198 3.03396e-06 0)
(-0.000217813 3.02845e-06 0)
(-0.000230404 3.02081e-06 0)
(-0.000242962 3.0115e-06 0)
(-0.000255481 3.00093e-06 0)
(-0.000267956 2.98938e-06 0)
(-0.000280382 2.97709e-06 0)
(-0.000292757 2.96422e-06 0)
(-0.000305077 2.95088e-06 0)
(-0.00031734 2.93717e-06 0)
(-0.000329546 2.92313e-06 0)
(-0.000341691 2.90878e-06 0)
(-0.000353775 2.89414e-06 0)
(-0.000365796 2.8792e-06 0)
(-0.000377752 2.86395e-06 0)
(-0.000389643 2.84837e-06 0)
(-0.000401466 2.83243e-06 0)
(-0.00041322 2.81611e-06 0)
(-0.000424903 2.79939e-06 0)
(-0.000436513 2.78224e-06 0)
(-0.000448049 2.76464e-06 0)
(-0.000459508 2.74656e-06 0)
(-0.000470889 2.72797e-06 0)
(-0.000482189 2.70887e-06 0)
(-0.000493405 2.68922e-06 0)
(-0.000504537 2.66902e-06 0)
(-0.00051558 2.64825e-06 0)
(-0.000526533 2.62688e-06 0)
(-0.000537394 2.60491e-06 0)
(-0.000548159 2.58233e-06 0)
(-0.000558827 2.55912e-06 0)
(-0.000569394 2.53526e-06 0)
(-0.000579858 2.51075e-06 0)
(-0.000590215 2.48557e-06 0)
(-0.000600464 2.45971e-06 0)
(-0.000610601 2.43316e-06 0)
(-0.000620624 2.4059e-06 0)
(-0.000630529 2.37793e-06 0)
(-0.000640314 2.34923e-06 0)
(-0.000649975 2.31979e-06 0)
(-0.000659509 2.2896e-06 0)
(-0.000668914 2.25866e-06 0)
(-0.000678186 2.22694e-06 0)
(-0.000687322 2.19445e-06 0)
(-0.000696319 2.16118e-06 0)
(-0.000705174 2.1271e-06 0)
(-0.000713883 2.09223e-06 0)
(-0.000722443 2.05654e-06 0)
(-0.00073085 2.02003e-06 0)
(-0.000739101 1.98268e-06 0)
(-0.000747194 1.94449e-06 0)
(-0.000755124 1.90546e-06 0)
(-0.000762887 1.86557e-06 0)
(-0.000770481 1.82481e-06 0)
(-0.000777902 1.78318e-06 0)
(-0.000785146 1.74067e-06 0)
(-0.00079221 1.69728e-06 0)
(-0.00079909 1.65301e-06 0)
(-0.000805783 1.60784e-06 0)
(-0.000812284 1.56178e-06 0)
(-0.000818591 1.51481e-06 0)
(-0.000824699 1.46694e-06 0)
(-0.000830605 1.41817e-06 0)
(-0.000836305 1.36848e-06 0)
(-0.000841796 1.31788e-06 0)
(-0.000847074 1.26637e-06 0)
(-0.000852134 1.21394e-06 0)
(-0.000856975 1.16059e-06 0)
(-0.000861591 1.10634e-06 0)
(-0.000865979 1.05117e-06 0)
(-0.000870136 9.95091e-07 0)
(-0.000874057 9.38112e-07 0)
(-0.000877739 8.80232e-07 0)
(-0.00088118 8.21459e-07 0)
(-0.000884374 7.61797e-07 0)
(-0.000887318 7.01253e-07 0)
(-0.000890009 6.39834e-07 0)
(-0.000892444 5.7755e-07 0)
(-0.000894619 5.1441e-07 0)
(-0.00089653 4.50424e-07 0)
(-0.000898175 3.85606e-07 0)
(-0.000899549 3.19969e-07 0)
(-0.00090065 2.53528e-07 0)
(-0.000901474 1.863e-07 0)
(-0.000902019 1.18302e-07 0)
(-0.000902282 4.95525e-08 0)
(-0.000902258 -1.99297e-08 0)
(-0.000901947 -9.01242e-08 0)
(-0.000901344 -1.6101e-07 0)
(-0.000900446 -2.32563e-07 0)
(-0.000899253 -3.04761e-07 0)
(-0.00089776 -3.77578e-07 0)
(-0.000895966 -4.50987e-07 0)
(-0.000893868 -5.24961e-07 0)
(-0.000891465 -5.99468e-07 0)
(-0.000888753 -6.74478e-07 0)
(-0.000885732 -7.49959e-07 0)
(-0.000882399 -8.25877e-07 0)
(-0.000878753 -9.02197e-07 0)
(-0.000874792 -9.78883e-07 0)
(-0.000870514 -1.0559e-06 0)
(-0.00086592 -1.13321e-06 0)
(-0.000861007 -1.21077e-06 0)
(-0.000855775 -1.28854e-06 0)
(-0.000850223 -1.36649e-06 0)
(-0.000844351 -1.44457e-06 0)
(-0.000838158 -1.52273e-06 0)
(-0.000831643 -1.60093e-06 0)
(-0.000824808 -1.67913e-06 0)
(-0.000817652 -1.75727e-06 0)
(-0.000810175 -1.83532e-06 0)
(-0.000802378 -1.91323e-06 0)
(-0.000794262 -1.99093e-06 0)
(-0.000785828 -2.0684e-06 0)
(-0.000777076 -2.14557e-06 0)
(-0.000768009 -2.22241e-06 0)
(-0.000758627 -2.29884e-06 0)
(-0.000748933 -2.37484e-06 0)
(-0.000738928 -2.45034e-06 0)
(-0.000728615 -2.52529e-06 0)
(-0.000717996 -2.59965e-06 0)
(-0.000707074 -2.67336e-06 0)
(-0.00069585 -2.74638e-06 0)
(-0.000684329 -2.81864e-06 0)
(-0.000672514 -2.89011e-06 0)
(-0.000660407 -2.96074e-06 0)
(-0.000648013 -3.03047e-06 0)
(-0.000635335 -3.09927e-06 0)
(-0.000622377 -3.16708e-06 0)
(-0.000609143 -3.23386e-06 0)
(-0.000595638 -3.29957e-06 0)
(-0.000581866 -3.36417e-06 0)
(-0.000567832 -3.4276e-06 0)
(-0.00055354 -3.48982e-06 0)
(-0.000538996 -3.55078e-06 0)
(-0.000524206 -3.61042e-06 0)
(-0.000509173 -3.66869e-06 0)
(-0.000493906 -3.72552e-06 0)
(-0.000478409 -3.78082e-06 0)
(-0.00046269 -3.8345e-06 0)
(-0.000446755 -3.88644e-06 0)
(-0.000430611 -3.93649e-06 0)
(-0.000414268 -3.98448e-06 0)
(-0.000397735 -4.03018e-06 0)
(-0.000381021 -4.07333e-06 0)
(-0.000364139 -4.11359e-06 0)
(-0.000347101 -4.15056e-06 0)
(-0.000329921 -4.18376e-06 0)
(-0.000312619 -4.2126e-06 0)
(-0.000295212 -4.23639e-06 0)
(-0.000277724 -4.25432e-06 0)
(-0.000260182 -4.26545e-06 0)
(-0.000242616 -4.26866e-06 0)
(-0.000225062 -4.26271e-06 0)
(-0.000207561 -4.24615e-06 0)
(-0.000190159 -4.21738e-06 0)
(-0.000172912 -4.17459e-06 0)
(-0.000155881 -4.11576e-06 0)
(-0.000139137 -4.03869e-06 0)
(-0.000122757 -3.94095e-06 0)
(-0.000106833 -3.81993e-06 0)
(-9.14625e-05 -3.6728e-06 0)
(-7.67571e-05 -3.49656e-06 0)
(-6.28388e-05 -3.28803e-06 0)
(-4.98413e-05 -3.04392e-06 0)
(-3.79093e-05 -2.76092e-06 0)
(-2.71981e-05 -2.43588e-06 0)
(-1.78701e-05 -2.06622e-06 0)
(-1.00904e-05 -1.65066e-06 0)
(-4.01604e-06 -1.19093e-06 0)
(2.2309e-07 -6.95226e-07 0)
(2.55846e-06 -1.84199e-07 0)
(3.06157e-06 2.98559e-07 0)
(2.15098e-06 6.3512e-07 0)
(5.77111e-07 5.77547e-07 0)
(5.33621e-07 -1.74572e-06 0)
(2.19553e-06 -2.1938e-06 0)
(2.66124e-06 -7.72956e-07 0)
(8.09301e-07 1.60259e-06 0)
(-4.11387e-06 4.39021e-06 0)
(-1.23919e-05 7.27782e-06 0)
(-2.40514e-05 1.00884e-05 0)
(-3.89704e-05 1.27253e-05 0)
(-5.69383e-05 1.51396e-05 0)
(-7.76966e-05 1.73102e-05 0)
(-0.000100966 1.9233e-05 0)
(-0.000126461 2.09143e-05 0)
(-0.000153905 2.23666e-05 0)
(-0.000183034 2.3606e-05 0)
(-0.000213602 2.46506e-05 0)
(-0.000245382 2.55193e-05 0)
(-0.000278171 2.62313e-05 0)
(-0.000311786 2.6805e-05 0)
(-0.000346067 2.7258e-05 0)
(-0.000380871 2.76069e-05 0)
(-0.000416079 2.78668e-05 0)
(-0.000451584 2.80514e-05 0)
(-0.0004873 2.8173e-05 0)
(-0.000523151 2.82423e-05 0)
(-0.000559077 2.82687e-05 0)
(-0.000595026 2.82602e-05 0)
(-0.000630956 2.82236e-05 0)
(-0.000666834 2.81645e-05 0)
(-0.000702633 2.80875e-05 0)
(-0.000738331 2.79964e-05 0)
(-0.00077391 2.78941e-05 0)
(-0.000809356 2.7783e-05 0)
(-0.000844658 2.76647e-05 0)
(-0.000879806 2.75406e-05 0)
(-0.000914793 2.74117e-05 0)
(-0.000949612 2.72785e-05 0)
(-0.000984258 2.71414e-05 0)
(-0.00101872 2.70007e-05 0)
(-0.001053 2.68564e-05 0)
(-0.0010871 2.67085e-05 0)
(-0.00112099 2.6557e-05 0)
(-0.00115469 2.64017e-05 0)
(-0.00118818 2.62425e-05 0)
(-0.00122147 2.60792e-05 0)
(-0.00125453 2.59115e-05 0)
(-0.00128738 2.57394e-05 0)
(-0.00132 2.55627e-05 0)
(-0.00135238 2.5381e-05 0)
(-0.00138452 2.51944e-05 0)
(-0.00141642 2.50027e-05 0)
(-0.00144806 2.48057e-05 0)
(-0.00147944 2.46032e-05 0)
(-0.00151056 2.43952e-05 0)
(-0.0015414 2.41814e-05 0)
(-0.00157196 2.39619e-05 0)
(-0.00160223 2.37365e-05 0)
(-0.0016322 2.35051e-05 0)
(-0.00166187 2.32676e-05 0)
(-0.00169122 2.30238e-05 0)
(-0.00172026 2.27737e-05 0)
(-0.00174896 2.25172e-05 0)
(-0.00177733 2.22542e-05 0)
(-0.00180536 2.19845e-05 0)
(-0.00183303 2.17082e-05 0)
(-0.00186034 2.14251e-05 0)
(-0.00188727 2.11352e-05 0)
(-0.00191383 2.08383e-05 0)
(-0.00194 2.05343e-05 0)
(-0.00196577 2.02233e-05 0)
(-0.00199114 1.99051e-05 0)
(-0.00201609 1.95796e-05 0)
(-0.00204062 1.92468e-05 0)
(-0.00206471 1.89066e-05 0)
(-0.00208836 1.85589e-05 0)
(-0.00211156 1.82037e-05 0)
(-0.0021343 1.78408e-05 0)
(-0.00215657 1.74703e-05 0)
(-0.00217835 1.70921e-05 0)
(-0.00219964 1.6706e-05 0)
(-0.00222044 1.63122e-05 0)
(-0.00224072 1.59104e-05 0)
(-0.00226048 1.55008e-05 0)
(-0.00227972 1.50831e-05 0)
(-0.00229841 1.46575e-05 0)
(-0.00231655 1.42238e-05 0)
(-0.00233414 1.37821e-05 0)
(-0.00235115 1.33323e-05 0)
(-0.00236758 1.28744e-05 0)
(-0.00238342 1.24083e-05 0)
(-0.00239867 1.19342e-05 0)
(-0.0024133 1.14519e-05 0)
(-0.00242731 1.09615e-05 0)
(-0.00244069 1.0463e-05 0)
(-0.00245344 9.95634e-06 0)
(-0.00246553 9.44165e-06 0)
(-0.00247696 8.91893e-06 0)
(-0.00248772 8.38821e-06 0)
(-0.0024978 7.84954e-06 0)
(-0.00250719 7.30298e-06 0)
(-0.00251588 6.74859e-06 0)
(-0.00252386 6.18644e-06 0)
(-0.00253113 5.6166e-06 0)
(-0.00253766 5.03916e-06 0)
(-0.00254346 4.45423e-06 0)
(-0.00254851 3.8619e-06 0)
(-0.00255281 3.26229e-06 0)
(-0.00255634 2.65554e-06 0)
(-0.0025591 2.04177e-06 0)
(-0.00256108 1.42114e-06 0)
(-0.00256227 7.93809e-07 0)
(-0.00256266 1.59935e-07 0)
(-0.00256224 -4.803e-07 0)
(-0.00256101 -1.12671e-06 0)
(-0.00255896 -1.7791e-06 0)
(-0.00255608 -2.43725e-06 0)
(-0.00255237 -3.10095e-06 0)
(-0.00254781 -3.76997e-06 0)
(-0.00254241 -4.44406e-06 0)
(-0.00253615 -5.12297e-06 0)
(-0.00252904 -5.80642e-06 0)
(-0.00252106 -6.49416e-06 0)
(-0.00251221 -7.18587e-06 0)
(-0.00250249 -7.88128e-06 0)
(-0.00249188 -8.58006e-06 0)
(-0.0024804 -9.28189e-06 0)
(-0.00246803 -9.98646e-06 0)
(-0.00245477 -1.06934e-05 0)
(-0.00244062 -1.14024e-05 0)
(-0.00242557 -1.21131e-05 0)
(-0.00240963 -1.28251e-05 0)
(-0.0023928 -1.3538e-05 0)
(-0.00237506 -1.42514e-05 0)
(-0.00235643 -1.4965e-05 0)
(-0.00233691 -1.56784e-05 0)
(-0.00231648 -1.63911e-05 0)
(-0.00229516 -1.71027e-05 0)
(-0.00227295 -1.78128e-05 0)
(-0.00224985 -1.85209e-05 0)
(-0.00222586 -1.92267e-05 0)
(-0.00220098 -1.99296e-05 0)
(-0.00217522 -2.06293e-05 0)
(-0.00214859 -2.13253e-05 0)
(-0.00212108 -2.20171e-05 0)
(-0.00209271 -2.27042e-05 0)
(-0.00206348 -2.33864e-05 0)
(-0.00203339 -2.4063e-05 0)
(-0.00200246 -2.47336e-05 0)
(-0.0019707 -2.53978e-05 0)
(-0.0019381 -2.60552e-05 0)
(-0.00190468 -2.67053e-05 0)
(-0.00187046 -2.73476e-05 0)
(-0.00183543 -2.79818e-05 0)
(-0.00179961 -2.86073e-05 0)
(-0.00176301 -2.92239e-05 0)
(-0.00172564 -2.98311e-05 0)
(-0.00168752 -3.04284e-05 0)
(-0.00164866 -3.10155e-05 0)
(-0.00160906 -3.15918e-05 0)
(-0.00156876 -3.2157e-05 0)
(-0.00152774 -3.27105e-05 0)
(-0.00148605 -3.32518e-05 0)
(-0.00144368 -3.37804e-05 0)
(-0.00140066 -3.42954e-05 0)
(-0.00135701 -3.4796e-05 0)
(-0.00131274 -3.52813e-05 0)
(-0.00126787 -3.57501e-05 0)
(-0.00122243 -3.6201e-05 0)
(-0.00117643 -3.66321e-05 0)
(-0.00112992 -3.70412e-05 0)
(-0.00108291 -3.74259e-05 0)
(-0.00103545 -3.77828e-05 0)
(-0.000987562 -3.81082e-05 0)
(-0.000939298 -3.83974e-05 0)
(-0.000890708 -3.86451e-05 0)
(-0.000841847 -3.88447e-05 0)
(-0.000792784 -3.89888e-05 0)
(-0.000743594 -3.90687e-05 0)
(-0.000694365 -3.90744e-05 0)
(-0.000645199 -3.89946e-05 0)
(-0.000596211 -3.88164e-05 0)
(-0.000547537 -3.85256e-05 0)
(-0.000499326 -3.81061e-05 0)
(-0.00045175 -3.75406e-05 0)
(-0.000405005 -3.68102e-05 0)
(-0.000359307 -3.58943e-05 0)
(-0.000314898 -3.47714e-05 0)
(-0.000272046 -3.34187e-05 0)
(-0.000231047 -3.18128e-05 0)
(-0.000192221 -2.99302e-05 0)
(-0.000155913 -2.77481e-05 0)
(-0.00012249 -2.5246e-05 0)
(-9.23335e-05 -2.24083e-05 0)
(-6.58319e-05 -1.92287e-05 0)
(-4.33605e-05 -1.57176e-05 0)
(-2.5253e-05 -1.19167e-05 0)
(-1.17541e-05 -7.92384e-06 0)
(-2.94196e-06 -3.93937e-06 0)
(1.41381e-06 -3.46125e-07 0)
(2.13358e-06 2.13471e-06 0)
(6.3363e-07 2.15121e-06 0)
(3.50191e-07 -2.79759e-06 0)
(7.75583e-07 -2.65992e-06 0)
(-1.188e-06 1.18863e-06 0)
(-6.8216e-06 7.02036e-06 0)
(-1.69646e-05 1.37815e-05 0)
(-3.19857e-05 2.08189e-05 0)
(-5.19486e-05 2.77315e-05 0)
(-7.67174e-05 3.42812e-05 0)
(-0.000106027 4.03347e-05 0)
(-0.000139534 4.58249e-05 0)
(-0.000176854 5.07279e-05 0)
(-0.000217586 5.50476e-05 0)
(-0.00026133 5.88056e-05 0)
(-0.000307699 6.20352e-05 0)
(-0.000356329 6.47762e-05 0)
(-0.00040688 6.70723e-05 0)
(-0.000459043 6.89684e-05 0)
(-0.000512539 7.05091e-05 0)
(-0.000567117 7.17375e-05 0)
(-0.00062256 7.26943e-05 0)
(-0.000678674 7.34174e-05 0)
(-0.000735296 7.39414e-05 0)
(-0.000792283 7.42973e-05 0)
(-0.000849516 7.45127e-05 0)
(-0.000906894 7.46118e-05 0)
(-0.000964333 7.46152e-05 0)
(-0.00102176 7.45408e-05 0)
(-0.00107913 7.44034e-05 0)
(-0.00113638 7.42153e-05 0)
(-0.00119349 7.39864e-05 0)
(-0.00125041 7.3725e-05 0)
(-0.00130713 7.34372e-05 0)
(-0.00136362 7.3128e-05 0)
(-0.00141987 7.2801e-05 0)
(-0.00147585 7.24591e-05 0)
(-0.00153157 7.2104e-05 0)
(-0.00158701 7.17372e-05 0)
(-0.00164216 7.13593e-05 0)
(-0.001697 7.09708e-05 0)
(-0.00175153 7.05718e-05 0)
(-0.00180575 7.01622e-05 0)
(-0.00185963 6.97419e-05 0)
(-0.00191318 6.93106e-05 0)
(-0.00196638 6.88678e-05 0)
(-0.00201923 6.84132e-05 0)
(-0.00207171 6.79463e-05 0)
(-0.00212382 6.74668e-05 0)
(-0.00217554 6.69743e-05 0)
(-0.00222686 6.64683e-05 0)
(-0.00227778 6.59486e-05 0)
(-0.00232828 6.54147e-05 0)
(-0.00237835 6.48663e-05 0)
(-0.00242798 6.43031e-05 0)
(-0.00247716 6.37249e-05 0)
(-0.00252587 6.31312e-05 0)
(-0.00257411 6.2522e-05 0)
(-0.00262186 6.18968e-05 0)
(-0.00266911 6.12554e-05 0)
(-0.00271585 6.05976e-05 0)
(-0.00276206 5.99232e-05 0)
(-0.00280774 5.92319e-05 0)
(-0.00285286 5.85234e-05 0)
(-0.00289742 5.77976e-05 0)
(-0.0029414 5.70542e-05 0)
(-0.00298479 5.62931e-05 0)
(-0.00302758 5.5514e-05 0)
(-0.00306974 5.47167e-05 0)
(-0.00311128 5.3901e-05 0)
(-0.00315216 5.30668e-05 0)
(-0.00319239 5.22139e-05 0)
(-0.00323194 5.1342e-05 0)
(-0.0032708 5.0451e-05 0)
(-0.00330895 4.95408e-05 0)
(-0.00334639 4.86111e-05 0)
(-0.0033831 4.76618e-05 0)
(-0.00341905 4.66927e-05 0)
(-0.00345424 4.57038e-05 0)
(-0.00348866 4.46948e-05 0)
(-0.00352228 4.36656e-05 0)
(-0.00355509 4.26162e-05 0)
(-0.00358708 4.15464e-05 0)
(-0.00361822 4.0456e-05 0)
(-0.00364852 3.93451e-05 0)
(-0.00367794 3.82136e-05 0)
(-0.00370648 3.70613e-05 0)
(-0.00373411 3.58882e-05 0)
(-0.00376083 3.46943e-05 0)
(-0.00378661 3.34796e-05 0)
(-0.00381145 3.22439e-05 0)
(-0.00383533 3.09874e-05 0)
(-0.00385822 2.97099e-05 0)
(-0.00388012 2.84116e-05 0)
(-0.00390101 2.70925e-05 0)
(-0.00392087 2.57527e-05 0)
(-0.0039397 2.43921e-05 0)
(-0.00395746 2.3011e-05 0)
(-0.00397416 2.16094e-05 0)
(-0.00398976 2.01875e-05 0)
(-0.00400427 1.87454e-05 0)
(-0.00401766 1.72834e-05 0)
(-0.00402991 1.58014e-05 0)
(-0.00404103 1.42999e-05 0)
(-0.00405098 1.27791e-05 0)
(-0.00405975 1.12391e-05 0)
(-0.00406734 9.68037e-06 0)
(-0.00407373 8.10312e-06 0)
(-0.00407889 6.5077e-06 0)
(-0.00408284 4.89449e-06 0)
(-0.00408553 3.26387e-06 0)
(-0.00408698 1.61626e-06 0)
(-0.00408716 -4.79061e-08 0)
(-0.00408605 -1.72816e-06 0)
(-0.00408366 -3.42401e-06 0)
(-0.00407997 -5.13495e-06 0)
(-0.00407496 -6.86042e-06 0)
(-0.00406864 -8.59984e-06 0)
(-0.00406098 -1.03526e-05 0)
(-0.00405197 -1.21181e-05 0)
(-0.00404162 -1.38957e-05 0)
(-0.00402991 -1.56846e-05 0)
(-0.00401683 -1.74842e-05 0)
(-0.00400238 -1.92937e-05 0)
(-0.00398654 -2.11123e-05 0)
(-0.00396932 -2.29393e-05 0)
(-0.0039507 -2.47737e-05 0)
(-0.00393069 -2.66148e-05 0)
(-0.00390927 -2.84618e-05 0)
(-0.00388645 -3.03135e-05 0)
(-0.00386222 -3.21693e-05 0)
(-0.00383657 -3.4028e-05 0)
(-0.00380952 -3.58888e-05 0)
(-0.00378105 -3.77506e-05 0)
(-0.00375117 -3.96124e-05 0)
(-0.00371987 -4.14732e-05 0)
(-0.00368716 -4.33318e-05 0)
(-0.00365305 -4.51874e-05 0)
(-0.00361753 -4.70386e-05 0)
(-0.0035806 -4.88845e-05 0)
(-0.00354228 -5.07239e-05 0)
(-0.00350257 -5.25557e-05 0)
(-0.00346147 -5.43787e-05 0)
(-0.00341899 -5.61919e-05 0)
(-0.00337515 -5.79939e-05 0)
(-0.00332994 -5.97837e-05 0)
(-0.00328338 -6.15602e-05 0)
(-0.00323549 -6.3322e-05 0)
(-0.00318626 -6.50682e-05 0)
(-0.00313572 -6.67975e-05 0)
(-0.00308388 -6.85088e-05 0)
(-0.00303074 -7.0201e-05 0)
(-0.00297634 -7.18729e-05 0)
(-0.00292067 -7.35234e-05 0)
(-0.00286377 -7.51515e-05 0)
(-0.00280564 -7.67559e-05 0)
(-0.00274631 -7.83357e-05 0)
(-0.00268579 -7.98896e-05 0)
(-0.00262411 -8.14166e-05 0)
(-0.00256129 -8.29154e-05 0)
(-0.00249734 -8.43849e-05 0)
(-0.00243229 -8.58236e-05 0)
(-0.00236617 -8.723e-05 0)
(-0.002299 -8.86026e-05 0)
(-0.00223081 -8.99392e-05 0)
(-0.00216162 -9.12377e-05 0)
(-0.00209147 -9.24953e-05 0)
(-0.00202039 -9.37087e-05 0)
(-0.00194842 -9.48739e-05 0)
(-0.00187559 -9.59861e-05 0)
(-0.00180195 -9.70394e-05 0)
(-0.00172756 -9.80267e-05 0)
(-0.00165245 -9.89395e-05 0)
(-0.0015767 -9.97676e-05 0)
(-0.00150038 -0.000100499 0)
(-0.00142357 -0.000101119 0)
(-0.00134636 -0.00010161 0)
(-0.00126885 -0.000101954 0)
(-0.00119118 -0.000102128 0)
(-0.00111348 -0.000102105 0)
(-0.00103591 -0.000101858 0)
(-0.000958653 -0.000101352 0)
(-0.000881927 -0.000100551 0)
(-0.000805966 -9.94161e-05 0)
(-0.000731038 -9.79026e-05 0)
(-0.000657444 -9.59635e-05 0)
(-0.000585518 -9.35489e-05 0)
(-0.000515632 -9.06062e-05 0)
(-0.000448191 -8.70814e-05 0)
(-0.00038364 -8.29203e-05 0)
(-0.000322455 -7.80701e-05 0)
(-0.000265142 -7.24828e-05 0)
(-0.000212233 -6.61191e-05 0)
(-0.000164268 -5.89558e-05 0)
(-0.000121784 -5.09968e-05 0)
(-8.52823e-05 -4.22917e-05 0)
(-5.51896e-05 -3.2966e-05 0)
(-3.17942e-05 -2.32725e-05 0)
(-1.51545e-05 -1.36748e-05 0)
(-4.96049e-06 -4.98064e-06 0)
(-3.36602e-07 1.41737e-06 0)
(2.97955e-07 3.06203e-06 0)
(3.32353e-08 -2.98724e-06 0)
(-1.60752e-06 -8.02894e-07 0)
(-7.04308e-06 6.82876e-06 0)
(-1.75276e-05 1.74917e-05 0)
(-3.37857e-05 2.96468e-05 0)
(-5.61722e-05 4.22853e-05 0)
(-8.47459e-05 5.47512e-05 0)
(-0.000119351 6.66321e-05 0)
(-0.000159686 7.76816e-05 0)
(-0.000205351 8.77647e-05 0)
(-0.000255891 9.68228e-05 0)
(-0.000310823 0.000104849 0)
(-0.000369659 0.000111869 0)
(-0.000431923 0.000117935 0)
(-0.000497156 0.000123111 0)
(-0.000564932 0.000127471 0)
(-0.000634856 0.000131093 0)
(-0.000706568 0.000134054 0)
(-0.000779747 0.000136432 0)
(-0.000854105 0.0001383 0)
(-0.000929391 0.000139726 0)
(-0.00100539 0.000140773 0)
(-0.0010819 0.000141499 0)
(-0.00115877 0.000141955 0)
(-0.00123587 0.000142185 0)
(-0.00131307 0.000142229 0)
(-0.00139029 0.000142119 0)
(-0.00146743 0.000141884 0)
(-0.00154445 0.000141548 0)
(-0.00162127 0.000141129 0)
(-0.00169786 0.000140643 0)
(-0.00177418 0.000140103 0)
(-0.00185021 0.000139518 0)
(-0.0019259 0.000138896 0)
(-0.00200125 0.000138242 0)
(-0.00207623 0.00013756 0)
(-0.00215083 0.000136853 0)
(-0.00222503 0.000136123 0)
(-0.00229882 0.000135371 0)
(-0.00237218 0.000134597 0)
(-0.0024451 0.000133802 0)
(-0.00251757 0.000132985 0)
(-0.00258958 0.000132145 0)
(-0.0026611 0.000131284 0)
(-0.00273214 0.000130398 0)
(-0.00280266 0.000129489 0)
(-0.00287267 0.000128555 0)
(-0.00294215 0.000127596 0)
(-0.00301108 0.000126611 0)
(-0.00307945 0.0001256 0)
(-0.00314724 0.000124561 0)
(-0.00321444 0.000123494 0)
(-0.00328103 0.000122399 0)
(-0.003347 0.000121274 0)
(-0.00341233 0.000120121 0)
(-0.003477 0.000118937 0)
(-0.003541 0.000117724 0)
(-0.00360431 0.000116479 0)
(-0.00366692 0.000115203 0)
(-0.0037288 0.000113896 0)
(-0.00378995 0.000112556 0)
(-0.00385034 0.000111183 0)
(-0.00390995 0.000109778 0)
(-0.00396877 0.00010834 0)
(-0.00402678 0.000106868 0)
(-0.00408396 0.000105361 0)
(-0.00414029 0.000103821 0)
(-0.00419576 0.000102246 0)
(-0.00425034 0.000100635 0)
(-0.00430402 9.89894e-05 0)
(-0.00435678 9.73079e-05 0)
(-0.0044086 9.55905e-05 0)
(-0.00445946 9.38367e-05 0)
(-0.00450933 9.20463e-05 0)
(-0.00455821 9.02191e-05 0)
(-0.00460607 8.83547e-05 0)
(-0.00465289 8.64529e-05 0)
(-0.00469865 8.45135e-05 0)
(-0.00474333 8.25363e-05 0)
(-0.00478692 8.0521e-05 0)
(-0.00482938 7.84675e-05 0)
(-0.00487071 7.63756e-05 0)
(-0.00491088 7.42453e-05 0)
(-0.00494987 7.20762e-05 0)
(-0.00498766 6.98684e-05 0)
(-0.00502423 6.76218e-05 0)
(-0.00505956 6.53362e-05 0)
(-0.00509363 6.30117e-05 0)
(-0.00512642 6.06482e-05 0)
(-0.00515791 5.82458e-05 0)
(-0.00518808 5.58045e-05 0)
(-0.00521691 5.33243e-05 0)
(-0.00524437 5.08054e-05 0)
(-0.00527045 4.82478e-05 0)
(-0.00529513 4.56519e-05 0)
(-0.00531839 4.30177e-05 0)
(-0.00534021 4.03455e-05 0)
(-0.00536056 3.76356e-05 0)
(-0.00537944 3.48882e-05 0)
(-0.00539681 3.21038e-05 0)
(-0.00541267 2.92826e-05 0)
(-0.00542699 2.64252e-05 0)
(-0.00543975 2.3532e-05 0)
(-0.00545094 2.06034e-05 0)
(-0.00546054 1.76401e-05 0)
(-0.00546852 1.46427e-05 0)
(-0.00547488 1.16117e-05 0)
(-0.00547959 8.54798e-06 0)
(-0.00548265 5.45216e-06 0)
(-0.00548403 2.32505e-06 0)
(-0.00548371 -8.32504e-07 0)
(-0.00548169 -4.01963e-06 0)
(-0.00547794 -7.23539e-06 0)
(-0.00547246 -1.04788e-05 0)
(-0.00546522 -1.37488e-05 0)
(-0.00545623 -1.70444e-05 0)
(-0.00544545 -2.03643e-05 0)
(-0.00543289 -2.37075e-05 0)
(-0.00541853 -2.70726e-05 0)
(-0.00540236 -3.04584e-05 0)
(-0.00538437 -3.38635e-05 0)
(-0.00536455 -3.72865e-05 0)
(-0.0053429 -4.0726e-05 0)
(-0.00531939 -4.41804e-05 0)
(-0.00529404 -4.76483e-05 0)
(-0.00526683 -5.11281e-05 0)
(-0.00523775 -5.4618e-05 0)
(-0.00520681 -5.81164e-05 0)
(-0.005174 -6.16216e-05 0)
(-0.00513931 -6.51318e-05 0)
(-0.00510275 -6.86452e-05 0)
(-0.00506431 -7.21598e-05 0)
(-0.005024 -7.56739e-05 0)
(-0.00498182 -7.91855e-05 0)
(-0.00493776 -8.26925e-05 0)
(-0.00489184 -8.6193e-05 0)
(-0.00484405 -8.9685e-05 0)
(-0.00479441 -9.31663e-05 0)
(-0.00474291 -9.6635e-05 0)
(-0.00468957 -0.000100089 0)
(-0.0046344 -0.000103526 0)
(-0.0045774 -0.000106944 0)
(-0.00451859 -0.00011034 0)
(-0.00445798 -0.000113713 0)
(-0.00439559 -0.000117061 0)
(-0.00433142 -0.000120381 0)
(-0.00426549 -0.000123671 0)
(-0.00419782 -0.000126928 0)
(-0.00412843 -0.000130152 0)
(-0.00405733 -0.00013334 0)
(-0.00398456 -0.000136488 0)
(-0.00391012 -0.000139597 0)
(-0.00383404 -0.000142663 0)
(-0.00375634 -0.000145684 0)
(-0.00367705 -0.000148658 0)
(-0.0035962 -0.000151583 0)
(-0.00351381 -0.000154457 0)
(-0.00342991 -0.000157278 0)
(-0.00334452 -0.000160043 0)
(-0.00325769 -0.000162749 0)
(-0.00316944 -0.000165393 0)
(-0.0030798 -0.000167973 0)
(-0.00298882 -0.000170484 0)
(-0.00289653 -0.000172922 0)
(-0.00280298 -0.000175281 0)
(-0.0027082 -0.000177555 0)
(-0.00261226 -0.000179736 0)
(-0.00251519 -0.000181814 0)
(-0.00241707 -0.000183779 0)
(-0.00231796 -0.000185617 0)
(-0.00221793 -0.000187311 0)
(-0.00211706 -0.000188841 0)
(-0.00201547 -0.000190185 0)
(-0.00191324 -0.000191314 0)
(-0.00181052 -0.000192198 0)
(-0.00170745 -0.0001928 0)
(-0.00160418 -0.000193076 0)
(-0.00150091 -0.000192979 0)
(-0.00139785 -0.000192455 0)
(-0.00129525 -0.000191443 0)
(-0.00119338 -0.000189876 0)
(-0.00109255 -0.000187681 0)
(-0.000993126 -0.000184778 0)
(-0.000895484 -0.000181082 0)
(-0.000800062 -0.000176504 0)
(-0.000707334 -0.000170952 0)
(-0.000617818 -0.000164331 0)
(-0.000532074 -0.00015655 0)
(-0.0004507 -0.000147522 0)
(-0.000374321 -0.000137172 0)
(-0.000303587 -0.000125445 0)
(-0.000239149 -0.000112318 0)
(-0.000181641 -9.78225e-05 0)
(-0.000131647 -8.20709e-05 0)
(-8.96512e-05 -6.53066e-05 0)
(-5.59804e-05 -4.79765e-05 0)
(-3.07124e-05 -3.0844e-05 0)
(-1.35759e-05 -1.51537e-05 0)
(-3.89672e-06 -2.91036e-06 0)
(-1.80962e-07 2.56844e-06 0)
(-3.25143e-07 -1.92608e-06 0)
(-4.41783e-06 4.14547e-06 0)
(-1.38658e-05 1.70098e-05 0)
(-2.97973e-05 3.37728e-05 0)
(-5.26912e-05 5.25061e-05 0)
(-8.28065e-05 7.18877e-05 0)
(-0.000120149 9.102e-05 0)
(-0.000164523 0.000109313 0)
(-0.000215585 0.000126397 0)
(-0.00027289 0.000142058 0)
(-0.000335931 0.000156192 0)
(-0.000404167 0.000168772 0)
(-0.000477045 0.000179826 0)
(-0.00055402 0.000189421 0)
(-0.000634565 0.000197646 0)
(-0.000718184 0.000204606 0)
(-0.000804415 0.000210416 0)
(-0.000892835 0.000215192 0)
(-0.000983062 0.00021905 0)
(-0.00107475 0.0002221 0)
(-0.0011676 0.000224448 0)
(-0.00126135 0.000226192 0)
(-0.00135577 0.000227419 0)
(-0.00145065 0.000228209 0)
(-0.00154583 0.000228633 0)
(-0.00164117 0.000228751 0)
(-0.00173655 0.000228617 0)
(-0.00183186 0.000228276 0)
(-0.00192702 0.000227765 0)
(-0.00202196 0.000227114 0)
(-0.00211662 0.00022635 0)
(-0.00221096 0.000225493 0)
(-0.00230493 0.000224558 0)
(-0.0023985 0.000223558 0)
(-0.00249164 0.000222503 0)
(-0.00258433 0.000221399 0)
(-0.00267653 0.000220251 0)
(-0.00276824 0.000219063 0)
(-0.00285943 0.000217836 0)
(-0.00295008 0.000216572 0)
(-0.00304017 0.000215272 0)
(-0.0031297 0.000213934 0)
(-0.00321864 0.00021256 0)
(-0.00330697 0.000211148 0)
(-0.00339468 0.000209697 0)
(-0.00348175 0.000208207 0)
(-0.00356816 0.000206676 0)
(-0.0036539 0.000205104 0)
(-0.00373895 0.00020349 0)
(-0.00382328 0.000201832 0)
(-0.00390688 0.00020013 0)
(-0.00398974 0.000198382 0)
(-0.00407182 0.000196589 0)
(-0.00415312 0.000194749 0)
(-0.00423361 0.000192862 0)
(-0.00431327 0.000190926 0)
(-0.00439208 0.000188942 0)
(-0.00447003 0.000186908 0)
(-0.00454708 0.000184823 0)
(-0.00462322 0.000182688 0)
(-0.00469843 0.000180501 0)
(-0.00477269 0.000178262 0)
(-0.00484597 0.000175971 0)
(-0.00491826 0.000173626 0)
(-0.00498952 0.000171227 0)
(-0.00505975 0.000168773 0)
(-0.00512891 0.000166265 0)
(-0.00519698 0.000163702 0)
(-0.00526395 0.000161082 0)
(-0.00532978 0.000158406 0)
(-0.00539446 0.000155673 0)
(-0.00545796 0.000152883 0)
(-0.00552026 0.000150035 0)
(-0.00558133 0.000147129 0)
(-0.00564115 0.000144164 0)
(-0.0056997 0.000141141 0)
(-0.00575695 0.000138058 0)
(-0.00581288 0.000134915 0)
(-0.00586747 0.000131713 0)
(-0.00592069 0.00012845 0)
(-0.00597251 0.000125126 0)
(-0.00602292 0.000121742 0)
(-0.00607188 0.000118297 0)
(-0.00611938 0.000114791 0)
(-0.00616539 0.000111224 0)
(-0.00620988 0.000107595 0)
(-0.00625283 0.000103905 0)
(-0.00629422 0.000100153 0)
(-0.00633402 9.63401e-05 0)
(-0.0063722 9.24657e-05 0)
(-0.00640875 8.85301e-05 0)
(-0.00644364 8.45333e-05 0)
(-0.00647684 8.04756e-05 0)
(-0.00650833 7.63572e-05 0)
(-0.00653809 7.21784e-05 0)
(-0.00656608 6.79395e-05 0)
(-0.0065923 6.3641e-05 0)
(-0.00661672 5.92833e-05 0)
(-0.0066393 5.48669e-05 0)
(-0.00666004 5.03924e-05 0)
(-0.0066789 4.58604e-05 0)
(-0.00669587 4.12716e-05 0)
(-0.00671092 3.66269e-05 0)
(-0.00672403 3.19269e-05 0)
(-0.00673518 2.71726e-05 0)
(-0.00674435 2.23651e-05 0)
(-0.00675152 1.75053e-05 0)
(-0.00675666 1.25943e-05 0)
(-0.00675977 7.63338e-06 0)
(-0.00676081 2.62376e-06 0)
(-0.00675978 -2.43322e-06 0)
(-0.00675665 -7.53613e-06 0)
(-0.00675141 -1.26835e-05 0)
(-0.00674404 -1.78737e-05 0)
(-0.00673452 -2.31052e-05 0)
(-0.00672283 -2.83762e-05 0)
(-0.00670898 -3.36848e-05 0)
(-0.00669293 -3.90293e-05 0)
(-0.00667468 -4.44075e-05 0)
(-0.00665421 -4.98175e-05 0)
(-0.00663152 -5.52571e-05 0)
(-0.00660659 -6.07241e-05 0)
(-0.00657941 -6.62163e-05 0)
(-0.00654998 -7.17311e-05 0)
(-0.00651828 -7.72663e-05 0)
(-0.00648432 -8.28193e-05 0)
(-0.00644808 -8.83874e-05 0)
(-0.00640956 -9.3968e-05 0)
(-0.00636875 -9.95584e-05 0)
(-0.00632566 -0.000105156 0)
(-0.00628028 -0.000110757 0)
(-0.00623262 -0.00011636 0)
(-0.00618267 -0.00012196 0)
(-0.00613043 -0.000127556 0)
(-0.00607591 -0.000133144 0)
(-0.00601912 -0.00013872 0)
(-0.00596006 -0.000144283 0)
(-0.00589873 -0.000149827 0)
(-0.00583515 -0.000155351 0)
(-0.00576933 -0.00016085 0)
(-0.00570127 -0.000166321 0)
(-0.005631 -0.000171762 0)
(-0.00555851 -0.000177168 0)
(-0.00548384 -0.000182536 0)
(-0.00540699 -0.000187863 0)
(-0.00532799 -0.000193146 0)
(-0.00524685 -0.00019838 0)
(-0.00516359 -0.000203563 0)
(-0.00507824 -0.000208691 0)
(-0.00499081 -0.000213761 0)
(-0.00490134 -0.000218769 0)
(-0.00480985 -0.000223713 0)
(-0.00471637 -0.000228588 0)
(-0.00462093 -0.000233391 0)
(-0.00452355 -0.00023812 0)
(-0.00442427 -0.00024277 0)
(-0.00432312 -0.000247338 0)
(-0.00422014 -0.00025182 0)
(-0.00411536 -0.000256212 0)
(-0.00400882 -0.00026051 0)
(-0.00390056 -0.000264709 0)
(-0.00379063 -0.000268804 0)
(-0.00367907 -0.000272787 0)
(-0.00356592 -0.000276652 0)
(-0.00345125 -0.000280389 0)
(-0.0033351 -0.000283989 0)
(-0.00321754 -0.000287437 0)
(-0.00309863 -0.000290719 0)
(-0.00297845 -0.000293817 0)
(-0.00285708 -0.000296707 0)
(-0.00273462 -0.000299364 0)
(-0.00261117 -0.000301756 0)
(-0.00248686 -0.000303845 0)
(-0.00236181 -0.000305589 0)
(-0.00223618 -0.000306936 0)
(-0.00211015 -0.000307829 0)
(-0.00198392 -0.0003082 0)
(-0.00185773 -0.000307974 0)
(-0.00173183 -0.000307066 0)
(-0.00160652 -0.000305381 0)
(-0.00148213 -0.000302815 0)
(-0.00135904 -0.000299256 0)
(-0.00123767 -0.000294581 0)
(-0.00111848 -0.000288661 0)
(-0.00100198 -0.000281362 0)
(-0.000888738 -0.000272546 0)
(-0.000779354 -0.000262075 0)
(-0.000674478 -0.000249817 0)
(-0.000574798 -0.000235649 0)
(-0.000481029 -0.000219474 0)
(-0.000393905 -0.000201223 0)
(-0.000314156 -0.000180887 0)
(-0.000242486 -0.000158532 0)
(-0.000179539 -0.000134352 0)
(-0.000125856 -0.000108718 0)
(-8.18209e-05 -8.2275e-05 0)
(-4.75876e-05 -5.60637e-05 0)
(-2.30245e-05 -3.16974e-05 0)
(-7.81853e-06 -1.16387e-05 0)
(-6.84273e-07 2.64948e-07 0)
(-6.87753e-07 5.02887e-07 0)
(-7.34851e-06 1.24905e-05 0)
(-2.10152e-05 3.21332e-05 0)
(-4.26424e-05 5.62609e-05 0)
(-7.23894e-05 8.26707e-05 0)
(-0.000110361 0.000109794 0)
(-0.000156469 0.000136527 0)
(-0.00021045 0.000162118 0)
(-0.000271908 0.00018608 0)
(-0.000340353 0.000208116 0)
(-0.000415235 0.000228072 0)
(-0.000495963 0.000245901 0)
(-0.000581936 0.000261626 0)
(-0.000672557 0.000275326 0)
(-0.000767248 0.000287116 0)
(-0.000865458 0.000297134 0)
(-0.000966674 0.000305531 0)
(-0.00107042 0.000312466 0)
(-0.00117627 0.000318094 0)
(-0.00128383 0.00032257 0)
(-0.00139276 0.000326039 0)
(-0.00150276 0.000328637 0)
(-0.00161355 0.000330487 0)
(-0.00172491 0.000331702 0)