/*--------------------------------*- C++ -*----------------------------------*\
  =========                 |
  \\      /  F ield         | OpenFOAM: The Open Source CFD Toolbox
   \\    /   O peration     | Website:  https://openfoam.org
    \\  /    A nd           | Version:  6
     \\/     M anipulation  |
\*---------------------------------------------------------------------------*/
FoamFile
{
    version     2.0;
    format      ascii;
    class       volVectorField;
    location    "0";
    object      U;
}
// * * * * * * * * * * * * * * * * * * * * * * * * * * * * * * * * * * * * * //

dimensions      [0 1 -1 0 0 0 0];

internalField   nonuniform List<vector> 
40000
(
(-9.98551e-08 9.97139e-08 0)
(1.26631e-06 -5.59852e-07 0)
(4.86372e-06 -1.2416e-06 0)
(1.04372e-05 -1.69491e-06 0)
(1.72774e-05 -1.95279e-06 0)
(2.47756e-05 -2.05746e-06 0)
(3.2447e-05 -2.04682e-06 0)
(3.99161e-05 -1.95228e-06 0)
(4.6903e-05 -1.79802e-06 0)
(5.32048e-05 -1.60233e-06 0)
(5.86789e-05 -1.37909e-06 0)
(6.32297e-05 -1.1388e-06 0)
(6.67977e-05 -8.89363e-07 0)
(6.93513e-05 -6.3668e-07 0)
(7.08796e-05 -3.85068e-07 0)
(7.13877e-05 -1.37622e-07 0)
(7.08915e-05 1.03542e-07 0)
(6.94146e-05 3.37091e-07 0)
(6.69853e-05 5.62327e-07 0)
(6.36342e-05 7.79056e-07 0)
(5.93925e-05 9.8748e-07 0)
(5.42904e-05 1.18811e-06 0)
(4.8356e-05 1.38167e-06 0)
(4.16144e-05 1.56907e-06 0)
(3.40872e-05 1.75134e-06 0)
(2.57919e-05 1.92954e-06 0)
(1.6742e-05 2.1048e-06 0)
(6.94637e-06 2.27824e-06 0)
(-3.59016e-06 2.45092e-06 0)
(-1.4867e-05 2.6239e-06 0)
(-2.68876e-05 2.79812e-06 0)
(-3.96588e-05 2.97449e-06 0)
(-5.31911e-05 3.15378e-06 0)
(-6.74978e-05 3.3367e-06 0)
(-8.25947e-05 3.52385e-06 0)
(-9.84999e-05 3.71571e-06 0)
(-0.000115233 3.91267e-06 0)
(-0.000132816 4.11502e-06 0)
(-0.000151269 4.32295e-06 0)
(-0.000170617 4.53655e-06 0)
(-0.000190881 4.75582e-06 0)
(-0.000212083 4.98067e-06 0)
(-0.000234247 5.21095e-06 0)
(-0.000257393 5.44642e-06 0)
(-0.00028154 5.68676e-06 0)
(-0.000306708 5.9316e-06 0)
(-0.000332912 6.18051e-06 0)
(-0.000360168 6.433e-06 0)
(-0.000388488 6.68852e-06 0)
(-0.000417881 6.94649e-06 0)
(-0.000448355 7.20625e-06 0)
(-0.000479914 7.46711e-06 0)
(-0.00051256 7.72835e-06 0)
(-0.000546291 7.98919e-06 0)
(-0.000581102 8.2488e-06 0)
(-0.000616983 8.50631e-06 0)
(-0.000653921 8.76081e-06 0)
(-0.000691901 9.01133e-06 0)
(-0.000730901 9.25689e-06 0)
(-0.000770895 9.49642e-06 0)
(-0.000811854 9.72883e-06 0)
(-0.000853744 9.95297e-06 0)
(-0.000896524 1.01676e-05 0)
(-0.00094015 1.03716e-05 0)
(-0.000984572 1.05637e-05 0)
(-0.00102973 1.07424e-05 0)
(-0.00107558 1.09064e-05 0)
(-0.00112203 1.10545e-05 0)
(-0.00116903 1.1185e-05 0)
(-0.00121649 1.12967e-05 0)
(-0.00126432 1.13879e-05 0)
(-0.00131245 1.14572e-05 0)
(-0.00136076 1.15032e-05 0)
(-0.00140916 1.15243e-05 0)
(-0.00145755 1.15191e-05 0)
(-0.00150579 1.14861e-05 0)
(-0.00155379 1.14238e-05 0)
(-0.0016014 1.13309e-05 0)
(-0.0016485 1.1206e-05 0)
(-0.00169495 1.10478e-05 0)
(-0.0017406 1.08552e-05 0)
(-0.00178533 1.0627e-05 0)
(-0.00182896 1.03621e-05 0)
(-0.00187136 1.00598e-05 0)
(-0.00191236 9.71911e-06 0)
(-0.0019518 9.33945e-06 0)
(-0.00198952 8.92032e-06 0)
(-0.00202537 8.46135e-06 0)
(-0.00205916 7.96238e-06 0)
(-0.00209075 7.4234e-06 0)
(-0.00211997 6.84461e-06 0)
(-0.00214666 6.22642e-06 0)
(-0.00217066 5.56942e-06 0)
(-0.0021918 4.87446e-06 0)
(-0.00220996 4.14259e-06 0)
(-0.00222496 3.37509e-06 0)
(-0.00223669 2.57348e-06 0)
(-0.002245 1.73954e-06 0)
(-0.00224976 8.75255e-07 0)
(-0.00225087 -1.7131e-08 0)
(-0.00224821 -9.35142e-07 0)
(-0.0022417 -1.87607e-06 0)
(-0.00223124 -2.83697e-06 0)
(-0.00221677 -3.81469e-06 0)
(-0.00219823 -4.80588e-06 0)
(-0.00217557 -5.80696e-06 0)
(-0.00214877 -6.8142e-06 0)
(-0.00211781 -7.82368e-06 0)
(-0.0020827 -8.83135e-06 0)
(-0.00204346 -9.83303e-06 0)
(-0.00200012 -1.08244e-05 0)
(-0.00195273 -1.18012e-05 0)
(-0.00190138 -1.27588e-05 0)
(-0.00184614 -1.3693e-05 0)
(-0.00178714 -1.45991e-05 0)
(-0.00172448 -1.54728e-05 0)
(-0.00165833 -1.63098e-05 0)
(-0.00158883 -1.71057e-05 0)
(-0.00151616 -1.78565e-05 0)
(-0.00144053 -1.8558e-05 0)
(-0.00136213 -1.92066e-05 0)
(-0.00128119 -1.97987e-05 0)
(-0.00119794 -2.03308e-05 0)
(-0.00111265 -2.08001e-05 0)
(-0.00102556 -2.12036e-05 0)
(-0.000936959 -2.15391e-05 0)
(-0.000847116 -2.18044e-05 0)
(-0.000756323 -2.19978e-05 0)
(-0.000664875 -2.21181e-05 0)
(-0.000573069 -2.21645e-05 0)
(-0.000481206 -2.21363e-05 0)
(-0.000389589 -2.20337e-05 0)
(-0.00029852 -2.1857e-05 0)
(-0.000208296 -2.16071e-05 0)
(-0.000119213 -2.12852e-05 0)
(-3.15602e-05 -2.08931e-05 0)
(5.43813e-05 -2.04328e-05 0)
(0.000138339 -1.99068e-05 0)
(0.000220051 -1.93181e-05 0)
(0.000299267 -1.86698e-05 0)
(0.000375751 -1.79655e-05 0)
(0.000449281 -1.72092e-05 0)
(0.000519651 -1.64048e-05 0)
(0.000586673 -1.55568e-05 0)
(0.000650175 -1.46697e-05 0)
(0.000710003 -1.37482e-05 0)
(0.000766025 -1.27972e-05 0)
(0.000818125 -1.18216e-05 0)
(0.000866208 -1.08262e-05 0)
(0.0009102 -9.8161e-06 0)
(0.000950044 -8.79609e-06 0)
(0.000985706 -7.77102e-06 0)
(0.00101717 -6.74558e-06 0)
(0.00104443 -5.7243e-06 0)
(0.00106752 -4.71155e-06 0)
(0.00108647 -3.71145e-06 0)
(0.00110133 -2.72792e-06 0)
(0.00111218 -1.76458e-06 0)
(0.00111909 -8.24796e-07 0)
(0.00112216 8.83931e-08 0)
(0.00112151 9.72243e-07 0)
(0.00111725 1.82433e-06 0)
(0.00110952 2.64256e-06 0)
(0.00109844 3.42515e-06 0)
(0.00108417 4.17063e-06 0)
(0.00106686 4.87785e-06 0)
(0.00104666 5.54593e-06 0)
(0.00102373 6.17428e-06 0)
(0.000998238 6.76254e-06 0)
(0.000970342 7.31055e-06 0)
(0.000940208 7.81837e-06 0)
(0.000908002 8.28614e-06 0)
(0.000873889 8.71414e-06 0)
(0.000838033 9.10266e-06 0)
(0.000800598 9.45196e-06 0)
(0.000761749 9.76221e-06 0)
(0.000721651 1.00334e-05 0)
(0.000680468 1.02654e-05 0)
(0.000638369 1.04575e-05 0)
(0.000595526 1.06088e-05 0)
(0.000552117 1.07177e-05 0)
(0.000508327 1.07819e-05 0)
(0.000464353 1.07986e-05 0)
(0.000420405 1.07637e-05 0)
(0.000376713 1.06723e-05 0)
(0.000333525 1.05183e-05 0)
(0.00029112 1.02939e-05 0)
(0.000249805 9.99014e-06 0)
(0.000209928 9.59612e-06 0)
(0.000171878 9.09921e-06 0)
(0.00013609 8.48495e-06 0)
(0.000103055 7.73725e-06 0)
(7.3315e-05 6.83903e-06 0)
(4.74606e-05 5.77388e-06 0)
(2.61131e-05 4.53001e-06 0)
(9.88127e-06 3.10964e-06 0)
(-7.2587e-07 1.54635e-06 0)
(-5.512e-06 -6.41543e-08 0)
(-5.18554e-06 -1.41334e-06 0)
(-1.6592e-06 -1.65901e-06 0)
(5.61662e-07 -1.26851e-06 0)
(5.79975e-06 -5.78912e-06 0)
(1.5709e-05 -1.01613e-05 0)
(2.9693e-05 -1.33278e-05 0)
(4.63054e-05 -1.52208e-05 0)
(6.42843e-05 -1.60138e-05 0)
(8.25516e-05 -1.59215e-05 0)
(0.000100223 -1.51456e-05 0)
(0.000116604 -1.38572e-05 0)
(0.000131167 -1.21959e-05 0)
(0.000143524 -1.02729e-05 0)
(0.000153401 -8.17615e-06 0)
(0.000160615 -5.97411e-06 0)
(0.000165058 -3.71968e-06 0)
(0.000166677 -1.45288e-06 0)
(0.000165463 7.96741e-07 0)
(0.000161439 3.00817e-06 0)
(0.00015465 5.1674e-06 0)
(0.000145156 7.2661e-06 0)
(0.000133027 9.30057e-06 0)
(0.000118335 1.12708e-05 0)
(0.000101151 1.31797e-05 0)
(8.15425e-05 1.50324e-05 0)
(5.95712e-05 1.68357e-05 0)
(3.52891e-05 1.85976e-05 0)
(8.73886e-06 2.03269e-05 0)
(-2.00472e-05 2.20327e-05 0)
(-5.1048e-05 2.37242e-05 0)
(-8.42531e-05 2.54107e-05 0)
(-0.000119663 2.71008e-05 0)
(-0.000157289 2.88029e-05 0)
(-0.00019715 3.05244e-05 0)
(-0.000239277 3.22723e-05 0)
(-0.000283705 3.40525e-05 0)
(-0.000330479 3.58702e-05 0)
(-0.000379647 3.77297e-05 0)
(-0.000431264 3.96342e-05 0)
(-0.000485387 4.15861e-05 0)
(-0.000542075 4.35871e-05 0)
(-0.000601389 4.56377e-05 0)
(-0.00066339 4.77378e-05 0)
(-0.000728139 4.98864e-05 0)
(-0.000795692 5.20818e-05 0)
(-0.000866105 5.43215e-05 0)
(-0.00093943 5.66026e-05 0)
(-0.00101571 5.89212e-05 0)
(-0.001095 6.12731e-05 0)
(-0.00117732 6.36535e-05 0)
(-0.00126271 6.6057e-05 0)
(-0.00135119 6.84777e-05 0)
(-0.00144276 7.09094e-05 0)
(-0.00153745 7.33453e-05 0)
(-0.00163523 7.57781e-05 0)
(-0.00173611 7.82003e-05 0)
(-0.00184004 8.06038e-05 0)
(-0.00194701 8.298e-05 0)
(-0.00205697 8.53202e-05 0)
(-0.00216985 8.7615e-05 0)
(-0.00228558 8.98548e-05 0)
(-0.00240409 9.20293e-05 0)
(-0.00252527 9.41281e-05 0)
(-0.00264901 9.61402e-05 0)
(-0.0027752 9.80544e-05 0)
(-0.00290369 9.98589e-05 0)
(-0.00303432 0.000101542 0)
(-0.00316693 0.000103091 0)
(-0.00330133 0.000104493 0)
(-0.00343732 0.000105736 0)
(-0.00357468 0.000106806 0)
(-0.00371316 0.00010769 0)
(-0.00385253 0.000108374 0)
(-0.00399251 0.000108846 0)
(-0.00413282 0.000109092 0)
(-0.00427314 0.000109099 0)
(-0.00441318 0.000108853 0)
(-0.00455258 0.000108341 0)
(-0.004691 0.000107552 0)
(-0.00482808 0.000106473 0)
(-0.00496343 0.000105092 0)
(-0.00509667 0.0001034 0)
(-0.00522738 0.000101385 0)
(-0.00535515 9.90381e-05 0)
(-0.00547956 9.6352e-05 0)
(-0.00560017 9.3319e-05 0)
(-0.00571653 8.99332e-05 0)
(-0.0058282 8.61899e-05 0)
(-0.00593473 8.20857e-05 0)
(-0.00603565 7.7619e-05 0)
(-0.00613052 7.27894e-05 0)
(-0.00621889 6.75984e-05 0)
(-0.0063003 6.20492e-05 0)
(-0.0063743 5.61468e-05 0)
(-0.00644048 4.98982e-05 0)
(-0.00649839 4.33122e-05 0)
(-0.00654764 3.63997e-05 0)
(-0.00658783 2.91735e-05 0)
(-0.00661858 2.16488e-05 0)
(-0.00663954 1.38425e-05 0)
(-0.00665037 5.77368e-06 0)
(-0.00665078 -2.53644e-06 0)
(-0.00664047 -1.10647e-05 0)
(-0.00661922 -1.97859e-05 0)
(-0.00658679 -2.86731e-05 0)
(-0.00654302 -3.76973e-05 0)
(-0.00648776 -4.6828e-05 0)
(-0.00642092 -5.60329e-05 0)
(-0.00634243 -6.52783e-05 0)
(-0.00625227 -7.45291e-05 0)
(-0.00615047 -8.37491e-05 0)
(-0.00603711 -9.29012e-05 0)
(-0.0059123 -0.000101947 0)
(-0.00577621 -0.000110849 0)
(-0.00562904 -0.000119567 0)
(-0.00547107 -0.000128062 0)
(-0.0053026 -0.000136296 0)
(-0.005124 -0.000144229 0)
(-0.00493565 -0.000151825 0)
(-0.00473802 -0.000159044 0)
(-0.00453159 -0.000165853 0)
(-0.00431691 -0.000172215 0)
(-0.00409456 -0.000178099 0)
(-0.00386514 -0.000183472 0)
(-0.00362932 -0.000188307 0)
(-0.00338777 -0.000192577 0)
(-0.00314123 -0.000196259 0)
(-0.00289043 -0.00019933 0)
(-0.00263614 -0.000201775 0)
(-0.00237915 -0.000203577 0)
(-0.00212027 -0.000204726 0)
(-0.0018603 -0.000205215 0)
(-0.00160008 -0.000205038 0)
(-0.00134042 -0.000204196 0)
(-0.00108216 -0.000202692 0)
(-0.000826098 -0.000200533 0)
(-0.000573058 -0.00019773 0)
(-0.000323826 -0.000194296 0)
(-7.91776e-05 -0.000190251 0)
(0.000160138 -0.000185614 0)
(0.000393399 -0.000180411 0)
(0.000619913 -0.000174669 0)
(0.000839024 -0.000168418 0)
(0.00105012 -0.000161693 0)
(0.00125261 -0.000154527 0)
(0.00144598 -0.000146959 0)
(0.00162973 -0.000139028 0)
(0.00180343 -0.000130775 0)
(0.00196669 -0.000122241 0)
(0.00211918 -0.00011347 0)
(0.00226061 -0.000104504 0)
(0.00239076 -9.53863e-05 0)
(0.00250944 -8.61608e-05 0)
(0.00261655 -7.68695e-05 0)
(0.00271199 -6.75541e-05 0)
(0.00279576 -5.82551e-05 0)
(0.00286787 -4.90115e-05 0)
(0.00292842 -3.98608e-05 0)
(0.00297751 -3.08383e-05 0)
(0.00301531 -2.19772e-05 0)
(0.00304204 -1.33086e-05 0)
(0.00305792 -4.86093e-06 0)
(0.00306325 3.33997e-06 0)
(0.00305832 1.12708e-05 0)
(0.00304348 1.89112e-05 0)
(0.00301909 2.62431e-05 0)
(0.00298553 3.32515e-05 0)
(0.00294322 3.99238e-05 0)
(0.00289257 4.62498e-05 0)
(0.002834 5.22218e-05 0)
(0.00276798 5.78339e-05 0)
(0.00269494 6.30823e-05 0)
(0.00261534 6.79646e-05 0)
(0.00252965 7.24794e-05 0)
(0.00243833 7.66263e-05 0)
(0.00234184 8.04051e-05 0)
(0.00224066 8.38153e-05 0)
(0.00213526 8.68557e-05 0)
(0.00202612 8.95238e-05 0)
(0.00191371 9.18146e-05 0)
(0.00179853 9.37208e-05 0)
(0.00168108 9.5231e-05 0)
(0.0015619 9.63296e-05 0)
(0.00144152 9.69956e-05 0)
(0.00132051 9.72017e-05 0)
(0.00119951 9.69132e-05 0)
(0.00107916 9.60874e-05 0)
(0.000960184 9.46725e-05 0)
(0.000843365 9.26066e-05 0)
(0.000729563 8.98178e-05 0)
(0.000619724 8.62235e-05 0)
(0.000514889 8.17313e-05 0)
(0.000416201 7.62419e-05 0)
(0.000324904 6.96533e-05 0)
(0.00024233 6.1872e-05 0)
(0.000169872 5.2832e-05 0)
(0.00010892 4.25335e-05 0)
(6.07416e-05 3.11171e-05 0)
(2.62649e-05 1.9004e-05 0)
(5.67517e-06 7.15416e-06 0)
(-2.37402e-06 -2.37953e-06 0)
(-1.41468e-06 -5.18584e-06 0)
(1.25018e-06 -4.8833e-06 0)
(1.02139e-05 -1.57149e-05 0)
(2.52865e-05 -2.52122e-05 0)
(4.54721e-05 -3.20448e-05 0)
(6.88043e-05 -3.61175e-05 0)
(9.36656e-05 -3.77385e-05 0)
(0.00011864 -3.73227e-05 0)
(0.000142525 -3.52846e-05 0)
(0.000164343 -3.19956e-05 0)
(0.00018333 -2.77709e-05 0)
(0.000198903 -2.28708e-05 0)
(0.000210639 -1.75068e-05 0)
(0.000218244 -1.18475e-05 0)
(0.000221532 -6.02578e-06 0)
(0.0002204 -1.44046e-07 0)
(0.000214811 5.72066e-06 0)
(0.000204779 1.15124e-05 0)
(0.000190354 1.7193e-05 0)
(0.00017161 2.27384e-05 0)
(0.000148636 2.81367e-05 0)
(0.000121529 3.33855e-05 0)
(9.03862e-05 3.849e-05 0)
(5.53e-05 4.34615e-05 0)
(1.63545e-05 4.83157e-05 0)
(-2.63777e-05 5.30714e-05 0)
(-7.28381e-05 5.77498e-05 0)
(-0.000122983 6.23733e-05 0)
(-0.000176785 6.69646e-05 0)
(-0.000234232 7.15463e-05 0)
(-0.000295328 7.61402e-05 0)
(-0.000360094 8.07668e-05 0)
(-0.000428563 8.54452e-05 0)
(-0.000500781 9.01924e-05 0)
(-0.000576807 9.50235e-05 0)
(-0.00065671 9.99514e-05 0)
(-0.000740566 0.000104987 0)
(-0.000828459 0.000110137 0)
(-0.000920477 0.00011541 0)
(-0.00101671 0.000120807 0)
(-0.00111726 0.000126331 0)
(-0.0012222 0.00013198 0)
(-0.00133164 0.000137751 0)
(-0.00144567 0.000143641 0)
(-0.00156435 0.000149641 0)
(-0.00168778 0.000155743 0)
(-0.00181601 0.000161938 0)
(-0.00194912 0.000168213 0)
(-0.00208714 0.000174555 0)
(-0.00223012 0.000180949 0)
(-0.00237808 0.00018738 0)
(-0.00253104 0.00019383 0)
(-0.00268899 0.00020028 0)
(-0.00285192 0.000206712 0)
(-0.00301979 0.000213104 0)
(-0.00319256 0.000219434 0)
(-0.00337015 0.000225679 0)
(-0.00355248 0.000231815 0)
(-0.00373944 0.000237818 0)
(-0.00393091 0.00024366 0)
(-0.00412674 0.000249314 0)
(-0.00432676 0.000254753 0)
(-0.00453077 0.000259946 0)
(-0.00473856 0.000264864 0)
(-0.0049499 0.000269476 0)
(-0.00516451 0.000273749 0)
(-0.0053821 0.000277651 0)
(-0.00560237 0.000281148 0)
(-0.00582497 0.000284207 0)
(-0.00604954 0.000286793 0)
(-0.00627567 0.000288872 0)
(-0.00650296 0.000290408 0)
(-0.00673096 0.000291368 0)
(-0.00695919 0.000291716 0)
(-0.00718716 0.000291418 0)
(-0.00741435 0.000290441 0)
(-0.00764021 0.000288753 0)
(-0.00786417 0.000286321 0)
(-0.00808564 0.000283116 0)
(-0.008304 0.000279109 0)
(-0.00851862 0.000274273 0)
(-0.00872886 0.000268583 0)
(-0.00893403 0.000262019 0)
(-0.00913347 0.000254559 0)
(-0.00932648 0.000246187 0)
(-0.00951235 0.00023689 0)
(-0.00969038 0.000226658 0)
(-0.00985985 0.000215484 0)
(-0.01002 0.000203367 0)
(-0.0101703 0.000190307 0)
(-0.0103098 0.000176311 0)
(-0.0104379 0.00016139 0)
(-0.0105539 0.000145559 0)
(-0.0106572 0.000128839 0)
(-0.0107471 0.000111254 0)
(-0.010823 9.28354e-05 0)
(-0.0108842 7.36186e-05 0)
(-0.0109302 5.36445e-05 0)
(-0.0109604 3.29589e-05 0)
(-0.0109745 1.16132e-05 0)
(-0.0109718 -1.03364e-05 0)
(-0.010952 -3.28285e-05 0)
(-0.0109147 -5.5797e-05 0)
(-0.0108597 -7.91708e-05 0)
(-0.0107866 -0.000102875 0)
(-0.0106952 -0.000126829 0)
(-0.0105855 -0.00015095 0)
(-0.0104574 -0.000175151 0)
(-0.0103108 -0.000199342 0)
(-0.0101459 -0.000223429 0)
(-0.00996269 -0.000247318 0)
(-0.00976146 -0.00027091 0)
(-0.00954247 -0.000294109 0)
(-0.00930607 -0.000316814 0)
(-0.00905269 -0.000338926 0)
(-0.00878283 -0.000360347 0)
(-0.00849705 -0.000380978 0)
(-0.00819598 -0.000400723 0)
(-0.00788035 -0.000419489 0)
(-0.00755093 -0.000437185 0)
(-0.00720856 -0.000453724 0)
(-0.00685413 -0.000469023 0)
(-0.00648862 -0.000483003 0)
(-0.00611304 -0.000495593 0)
(-0.00572846 -0.000506726 0)
(-0.00533598 -0.000516343 0)
(-0.00493676 -0.00052439 0)
(-0.00453199 -0.000530824 0)
(-0.00412288 -0.000535607 0)
(-0.00371068 -0.000538711 0)
(-0.00329665 -0.000540116 0)
(-0.00288206 -0.000539812 0)
(-0.00246819 -0.000537797 0)
(-0.0020563 -0.000534079 0)
(-0.00164766 -0.000528675 0)
(-0.00124354 -0.000521611 0)
(-0.000845141 -0.000512922 0)
(-0.000453683 -0.000502652 0)
(-7.03269e-05 -0.000490855 0)
(0.0003038 -0.000477591 0)
(0.000667619 -0.000462928 0)
(0.0010201 -0.000446943 0)
(0.00136027 -0.000429719 0)
(0.00168723 -0.000411343 0)
(0.00200012 -0.00039191 0)
(0.00229818 -0.00037152 0)
(0.0025807 -0.000350273 0)
(0.00284705 -0.000328276 0)
(0.00309669 -0.000305637 0)
(0.00332916 -0.000282466 0)
(0.00354406 -0.000258871 0)
(0.00374108 -0.000234962 0)
(0.00392 -0.000210849 0)
(0.00408067 -0.000186637 0)
(0.00422303 -0.000162432 0)
(0.00434708 -0.000138332 0)
(0.0044529 -0.000114436 0)
(0.00454064 -9.0835e-05 0)
(0.00461053 -6.76163e-05 0)
(0.00466286 -4.48611e-05 0)
(0.00469796 -2.26448e-05 0)
(0.00471624 -1.03634e-06 0)
(0.00471815 1.99017e-05 0)
(0.0047042 4.01135e-05 0)
(0.00467492 5.955e-05 0)
(0.0046309 7.81685e-05 0)
(0.00457274 9.5933e-05 0)
(0.00450109 0.000112813 0)
(0.00441661 0.000128785 0)
(0.00431999 0.00014383 0)
(0.00421192 0.000157933 0)
(0.00409313 0.000171083 0)
(0.00396433 0.000183273 0)
(0.00382626 0.000194497 0)
(0.00367967 0.000204749 0)
(0.0035253 0.000214024 0)
(0.00336391 0.000222316 0)
(0.00319628 0.000229612 0)
(0.00302319 0.000235896 0)
(0.00284543 0.000241147 0)
(0.00266383 0.000245332 0)
(0.00247924 0.000248408 0)
(0.00229256 0.000250322 0)
(0.00210472 0.000251002 0)
(0.00191671 0.000250361 0)
(0.00172959 0.000248296 0)
(0.00154451 0.000244678 0)
(0.0013627 0.000239362 0)
(0.0011855 0.00023218 0)
(0.00101437 0.000222943 0)
(0.000850867 0.000211448 0)
(0.000696697 0.000197485 0)
(0.000553662 0.000180854 0)
(0.00042365 0.000161392 0)
(0.000308577 0.000139023 0)
(0.000210287 0.000113849 0)
(0.000130392 8.63012e-05 0)
(7.00022e-05 5.74046e-05 0)
(2.93288e-05 2.92191e-05 0)
(7.21789e-06 5.69211e-06 0)
(-5.97577e-08 -5.4997e-06 0)
(1.71543e-06 -1.05039e-05 0)
(1.34472e-05 -2.97658e-05 0)
(3.22436e-05 -4.54269e-05 0)
(5.66592e-05 -5.64335e-05 0)
(8.42439e-05 -6.28329e-05 0)
(0.000113118 -6.51189e-05 0)
(0.000141654 -6.39332e-05 0)
(0.000168449 -5.99296e-05 0)
(0.000192347 -5.37107e-05 0)
(0.000212422 -4.58031e-05 0)
(0.000227955 -3.66523e-05 0)
(0.000238409 -2.66274e-05 0)
(0.000243402 -1.60285e-05 0)
(0.00024268 -5.09501e-06 0)
(0.000236094 5.98538e-06 0)
(0.000223575 1.70697e-05 0)
(0.000205122 2.80525e-05 0)
(0.000180779 3.88603e-05 0)
(0.000150621 4.94458e-05 0)
(0.000114746 5.97838e-05 0)
(7.32635e-05 6.98667e-05 0)
(2.62836e-05 7.97016e-05 0)
(-2.60873e-05 8.93066e-05 0)
(-8.37524e-05 9.87085e-05 0)
(-0.000146628 0.00010794 0)
(-0.000214649 0.000117039 0)
(-0.000287765 0.000126046 0)
(-0.000365949 0.000135 0)
(-0.000449192 0.000143944 0)
(-0.000537506 0.000152915 0)
(-0.00063092 0.000161953 0)
(-0.000729483 0.00017109 0)
(-0.00083326 0.000180359 0)
(-0.000942328 0.000189786 0)
(-0.00105678 0.000199395 0)
(-0.00117672 0.000209205 0)
(-0.00130225 0.000219231 0)
(-0.00143349 0.000229483 0)
(-0.00157057 0.000239968 0)
(-0.00171359 0.000250685 0)
(-0.00186269 0.000261635 0)
(-0.00201797 0.000272809 0)
(-0.00217955 0.000284199 0)
(-0.00234754 0.00029579 0)
(-0.00252202 0.000307566 0)
(-0.00270308 0.000319505 0)
(-0.0028908 0.000331585 0)
(-0.00308523 0.00034378 0)
(-0.00328641 0.000356061 0)
(-0.00349436 0.000368396 0)
(-0.00370909 0.000380751 0)
(-0.00393058 0.00039309 0)
(-0.00415881 0.000405374 0)
(-0.0043937 0.000417564 0)
(-0.00463517 0.000429615 0)
(-0.00488313 0.000441483 0)
(-0.00513742 0.000453121 0)
(-0.0053979 0.000464479 0)
(-0.00566436 0.000475507 0)
(-0.00593661 0.000486152 0)
(-0.00621437 0.000496359 0)
(-0.00649738 0.000506071 0)
(-0.00678532 0.00051523 0)
(-0.00707784 0.000523776 0)
(-0.00737458 0.000531649 0)
(-0.00767511 0.000538784 0)
(-0.007979 0.00054512 0)
(-0.00828575 0.000550591 0)
(-0.00859487 0.000555133 0)
(-0.00890578 0.00055868 0)
(-0.00921792 0.000561166 0)
(-0.00953066 0.000562527 0)
(-0.00984334 0.000562698 0)
(-0.0101553 0.000561615 0)
(-0.0104658 0.000559217 0)
(-0.010774 0.000555444 0)
(-0.0110793 0.000550238 0)
(-0.0113808 0.000543544 0)
(-0.0116777 0.00053531 0)
(-0.011969 0.000525489 0)
(-0.012254 0.000514036 0)
(-0.0125317 0.000500913 0)
(-0.0128013 0.000486086 0)
(-0.0130617 0.000469527 0)
(-0.013312 0.000451215 0)
(-0.0135514 0.000431133 0)
(-0.0137788 0.000409274 0)
(-0.0139933 0.000385638 0)
(-0.0141939 0.000360231 0)
(-0.0143798 0.000333069 0)
(-0.0145501 0.000304176 0)
(-0.0147037 0.000273585 0)
(-0.0148399 0.000241337 0)
(-0.0149577 0.000207485 0)
(-0.0150565 0.000172089 0)
(-0.0151354 0.000135219 0)
(-0.0151936 9.69553e-05 0)
(-0.0152306 5.73866e-05 0)
(-0.0152456 1.66118e-05 0)
(-0.015238 -2.5261e-05 0)
(-0.0152075 -6.81146e-05 0)
(-0.0151535 -0.000111823 0)
(-0.0150756 -0.000156253 0)
(-0.0149736 -0.000201261 0)
(-0.0148472 -0.000246698 0)
(-0.0146963 -0.000292408 0)
(-0.0145208 -0.000338227 0)
(-0.0143207 -0.000383988 0)
(-0.0140962 -0.000429517 0)
(-0.0138474 -0.000474638 0)
(-0.0135747 -0.000519169 0)
(-0.0132784 -0.000562931 0)
(-0.012959 -0.000605739 0)
(-0.0126172 -0.00064741 0)
(-0.0122535 -0.000687762 0)
(-0.0118687 -0.000726616 0)
(-0.0114637 -0.000763794 0)
(-0.0110395 -0.000799126 0)
(-0.010597 -0.000832445 0)
(-0.0101373 -0.00086359 0)
(-0.00966169 -0.000892411 0)
(-0.00917137 -0.000918765 0)
(-0.00866768 -0.000942519 0)
(-0.00815201 -0.000963552 0)
(-0.00762581 -0.000981755 0)
(-0.00709059 -0.000997032 0)
(-0.00654789 -0.0010093 0)
(-0.00599931 -0.00101849 0)
(-0.00544645 -0.00102456 0)
(-0.00489096 -0.00102745 0)
(-0.00433448 -0.00102717 0)
(-0.00377869 -0.00102369 0)
(-0.00322525 -0.00101704 0)
(-0.0026758 -0.00100724 0)
(-0.00213197 -0.000994341 0)
(-0.00159538 -0.000978406 0)
(-0.0010676 -0.000959514 0)
(-0.000550155 -0.00093776 0)
(-4.4529e-05 -0.000913253 0)
(0.000447856 -0.000886119 0)
(0.00092564 -0.000856493 0)
(0.00138754 -0.000824527 0)
(0.00183233 -0.000790382 0)
(0.0022589 -0.000754228 0)
(0.0026662 -0.000716247 0)
(0.00305328 -0.000676624 0)
(0.0034193 -0.000635555 0)
(0.00376349 -0.000593236 0)
(0.0040852 -0.000549869 0)
(0.00438388 -0.000505656 0)
(0.00465909 -0.000460799 0)
(0.00491049 -0.0004155 0)
(0.00513783 -0.000369957 0)
(0.00534097 -0.000324364 0)
(0.00551988 -0.000278908 0)
(0.00567461 -0.000233771 0)
(0.00580532 -0.000189126 0)
(0.00591225 -0.000145138 0)
(0.00599573 -0.000101962 0)
(0.00605617 -5.97406e-05 0)
(0.00609405 -1.86073e-05 0)
(0.00610993 2.13172e-05 0)
(0.00610443 5.99236e-05 0)
(0.00607823 9.7115e-05 0)
(0.00603206 0.000132806 0)
(0.00596671 0.000166923 0)
(0.00588298 0.000199404 0)
(0.00578175 0.000230197 0)
(0.00566389 0.000259259 0)
(0.00553033 0.000286555 0)
(0.00538201 0.00031206 0)
(0.00521988 0.000335751 0)
(0.00504492 0.00035761 0)
(0.00485812 0.000377621 0)
(0.00466049 0.000395765 0)
(0.00445305 0.000412024 0)
(0.00423685 0.000426369 0)
(0.00401295 0.000438766 0)
(0.00378244 0.000449168 0)
(0.00354644 0.00045751 0)
(0.00330611 0.000463713 0)
(0.00306266 0.000467672 0)
(0.00281737 0.000469259 0)
(0.00257157 0.000468317 0)
(0.00232669 0.000464657 0)
(0.00208425 0.000458057 0)
(0.00184588 0.000448265 0)
(0.00161331 0.000434994 0)
(0.00138843 0.000417931 0)
(0.00117324 0.000396747 0)
(0.000969838 0.000371116 0)
(0.000780462 0.000340743 0)
(0.000607387 0.000305422 0)
(0.000452885 0.000265116 0)
(0.000319109 0.0002201 0)
(0.000207927 0.000171189 0)
(0.00012067 0.000120094 0)
(5.78529e-05 6.99783e-05 0)
(1.92172e-05 2.64163e-05 0)
(1.56977e-06 -6.5221e-07 0)
(1.98741e-06 -1.74305e-05 0)
(1.54091e-05 -4.65042e-05 0)
(3.64252e-05 -6.88378e-05 0)
(6.31835e-05 -8.40321e-05 0)
(9.28177e-05 -9.24797e-05 0)
(0.000123226 -9.49486e-05 0)
(0.000152626 -9.23433e-05 0)
(0.000179487 -8.55754e-05 0)
(0.000202539 -7.54927e-05 0)
(0.000220756 -6.28481e-05 0)
(0.000233329 -4.82893e-05 0)
(0.000239643 -3.23609e-05 0)
(0.000239253 -1.5512e-05 0)
(0.000231853 1.89442e-06 0)
(0.000217255 1.95709e-05 0)
(0.000195365 3.72956e-05 0)
(0.000166162 5.49033e-05 0)
(0.000129678 7.2277e-05 0)
(8.59883e-05 8.93399e-05 0)
(3.51891e-05 0.000106049 0)
(-2.26078e-05 0.00012239 0)
(-8.72868e-05 0.00013837 0)
(-0.000158736 0.000154014 0)
(-0.000236856 0.000169362 0)
(-0.000321558 0.000184463 0)
(-0.000412776 0.000199373 0)
(-0.000510464 0.000214152 0)
(-0.000614596 0.000228864 0)
(-0.000725172 0.000243569 0)
(-0.000842213 0.00025833 0)
(-0.000965763 0.000273202 0)
(-0.00109589 0.000288239 0)
(-0.00123266 0.000303489 0)
(-0.0013762 0.000318994 0)
(-0.0015266 0.000334789 0)
(-0.00168399 0.000350903 0)
(-0.00184851 0.000367359 0)
(-0.0020203 0.000384172 0)
(-0.00219949 0.000401349 0)
(-0.00238625 0.000418893 0)
(-0.0025807 0.000436798 0)
(-0.00278299 0.000455053 0)
(-0.00299324 0.000473641 0)
(-0.00321158 0.000492537 0)
(-0.00343812 0.000511714 0)
(-0.00367294 0.000531138 0)
(-0.00391612 0.000550769 0)
(-0.00416773 0.000570564 0)
(-0.0044278 0.000590475 0)
(-0.00469634 0.00061045 0)
(-0.00497335 0.000630433 0)
(-0.00525879 0.000650362 0)
(-0.0055526 0.000670176 0)
(-0.00585468 0.000689806 0)
(-0.00616492 0.000709181 0)
(-0.00648315 0.000728229 0)
(-0.0068092 0.00074687 0)
(-0.00714283 0.000765024 0)
(-0.0074838 0.000782609 0)
(-0.00783179 0.000799537 0)
(-0.00818649 0.000815718 0)
(-0.00854752 0.000831061 0)
(-0.00891446 0.000845471 0)
(-0.00928686 0.00085885 0)
(-0.00966422 0.000871101 0)
(-0.010046 0.000882122 0)
(-0.0104317 0.00089181 0)
(-0.0108205 0.000900063 0)
(-0.011212 0.000906776 0)
(-0.0116052 0.000911846 0)
(-0.0119996 0.000915169 0)
(-0.0123943 0.000916641 0)
(-0.0127885 0.000916161 0)
(-0.0131813 0.00091363 0)
(-0.0135718 0.00090895 0)
(-0.013959 0.000902029 0)
(-0.0143421 0.000892778 0)
(-0.0147198 0.000881112 0)
(-0.0150913 0.000866952 0)
(-0.0154554 0.000850225 0)
(-0.0158111 0.000830868 0)
(-0.0161572 0.000808822 0)
(-0.0164926 0.000784038 0)
(-0.0168162 0.000756478 0)
(-0.0171268 0.000726111 0)
(-0.0174232 0.000692919 0)
(-0.0177043 0.000656896 0)
(-0.017969 0.000618045 0)
(-0.018216 0.000576385 0)
(-0.0184444 0.000531946 0)
(-0.0186529 0.000484772 0)
(-0.0188405 0.000434922 0)
(-0.0190061 0.000382467 0)
(-0.0191488 0.000327495 0)
(-0.0192675 0.000270108 0)
(-0.0193614 0.000210421 0)
(-0.0194296 0.000148567 0)
(-0.0194713 8.46901e-05 0)
(-0.0194858 1.89518e-05 0)
(-0.0194723 -4.84734e-05 0)
(-0.0194304 -0.000117397 0)
(-0.0193595 -0.000187618 0)
(-0.0192591 -0.000258922 0)
(-0.019129 -0.000331082 0)
(-0.0189689 -0.000403862 0)
(-0.0187787 -0.000477012 0)
(-0.0185583 -0.000550278 0)
(-0.0183078 -0.000623392 0)
(-0.0180274 -0.000696085 0)
(-0.0177173 -0.000768078 0)
(-0.017378 -0.000839089 0)
(-0.0170098 -0.000908835 0)
(-0.0166136 -0.00097703 0)
(-0.0161898 -0.00104339 0)
(-0.0157394 -0.00110763 0)
(-0.0152634 -0.00116947 0)
(-0.0147627 -0.00122864 0)
(-0.0142385 -0.00128487 0)
(-0.013692 -0.0013379 0)
(-0.0131246 -0.00138749 0)
(-0.0125378 -0.00143339 0)
(-0.0119329 -0.0014754 0)
(-0.0113117 -0.00151331 0)
(-0.0106757 -0.00154692 0)
(-0.0100268 -0.00157607 0)
(-0.00936679 -0.00160061 0)
(-0.00869743 -0.00162041 0)
(-0.00802065 -0.00163537 0)
(-0.00733841 -0.0016454 0)
(-0.00665266 -0.00165045 0)
(-0.00596538 -0.00165048 0)
(-0.00527856 -0.00164549 0)
(-0.00459421 -0.00163549 0)
(-0.00391429 -0.00162053 0)
(-0.00324077 -0.00160068 0)
(-0.00257559 -0.00157604 0)
(-0.00192064 -0.00154672 0)
(-0.00127777 -0.00151286 0)
(-0.00064877 -0.00147464 0)
(-3.53697e-05 -0.00143225 0)
(0.000560778 -0.00138589 0)
(0.0011381 -0.0013358 0)
(0.00169511 -0.00128222 0)
(0.00223043 -0.00122541 0)
(0.00274275 -0.00116566 0)
(0.00323091 -0.00110326 0)
(0.00369383 -0.0010385 0)
(0.00413055 -0.000971688 0)
(0.00454025 -0.000903139 0)
(0.0049222 -0.000833168 0)
(0.00527581 -0.000762091 0)
(0.00560061 -0.000690222 0)
(0.00589625 -0.000617874 0)
(0.0061625 -0.000545349 0)
(0.00639926 -0.000472947 0)
(0.00660654 -0.000400953 0)
(0.00678446 -0.000329644 0)
(0.00693325 -0.000259282 0)
(0.00705325 -0.000190115 0)
(0.00714491 -0.000122375 0)
(0.00720875 -5.62772e-05 0)
(0.0072454 7.98103e-06 0)
(0.00725555 7.022e-05 0)
(0.00724 0.000130278 0)
(0.00719958 0.000188013 0)
(0.00713521 0.000243299 0)
(0.00704786 0.000296028 0)
(0.00693854 0.000346107 0)
(0.00680831 0.000393459 0)
(0.00665827 0.00043802 0)
(0.00648956 0.000479736 0)
(0.00630333 0.000518561 0)
(0.00610078 0.000554458 0)
(0.00588312 0.000587388 0)
(0.0056516 0.000617316 0)
(0.00540748 0.000644198 0)
(0.00515205 0.000667985 0)
(0.00488663 0.000688613 0)
(0.00461258 0.000706001 0)
(0.0043313 0.000720045 0)
(0.00404424 0.000730615 0)
(0.0037529 0.000737548 0)
(0.00345887 0.000740646 0)
(0.00316378 0.000739669 0)
(0.00286939 0.000734334 0)
(0.00257756 0.000724315 0)
(0.00229024 0.000709239 0)
(0.00200953 0.000688696 0)
(0.00173764 0.000662246 0)
(0.0014769 0.000629436 0)
(0.00122977 0.000589832 0)
(0.00099878 0.000543067 0)
(0.000786509 0.000488914 0)
(0.000595502 0.000427409 0)
(0.000428177 0.000359027 0)
(0.000286684 0.000284959 0)
(0.000172699 0.000207524 0)
(8.73115e-05 0.000130736 0)
(3.15786e-05 6.12473e-05 0)
(3.1665e-06 1.01133e-05 0)
(2.10435e-06 -2.50511e-05 0)
(1.62416e-05 -6.46426e-05 0)
(3.80611e-05 -9.37715e-05 0)
(6.53931e-05 -0.000112871 0)
(9.50608e-05 -0.000122832 0)
(0.000124781 -0.000124786 0)
(0.000152652 -0.000119947 0)
(0.000177061 -0.000109506 0)
(0.000196668 -9.45685e-05 0)
(0.000210386 -7.6122e-05 0)
(0.000217356 -5.50248e-05 0)
(0.000216917 -3.20062e-05 0)
(0.000208581 -7.67353e-06 0)
(0.000192009 1.74772e-05 0)
(0.000166988 4.30497e-05 0)
(0.0001334 6.87355e-05 0)
(9.121e-05 9.43028e-05 0)
(4.04405e-05 0.000119585 0)
(-1.8843e-05 0.000144473 0)
(-8.65467e-05 0.000168901 0)
(-0.000162562 0.000192848 0)
(-0.000246774 0.000216319 0)
(-0.000339074 0.000239347 0)
(-0.000439363 0.000261986 0)
(-0.000547558 0.000284302 0)
(-0.000663596 0.000306371 0)
(-0.000787437 0.000328279 0)
(-0.000919067 0.00035011 0)
(-0.0010585 0.000371951 0)
(-0.00120576 0.000393886 0)
(-0.00136091 0.000415995 0)
(-0.00152404 0.000438352 0)
(-0.00169525 0.000461023 0)
(-0.00187465 0.000484065 0)
(-0.00206238 0.000507529 0)
(-0.00225859 0.000531454 0)
(-0.00246344 0.000555869 0)
(-0.00267708 0.000580794 0)
(-0.00289969 0.00060624 0)
(-0.00313143 0.000632206 0)
(-0.00337246 0.000658683 0)
(-0.00362293 0.000685652 0)
(-0.00388299 0.000713087 0)
(-0.00415278 0.000740951 0)
(-0.0044324 0.000769201 0)
(-0.00472196 0.000797784 0)
(-0.00502153 0.000826642 0)
(-0.00533117 0.000855709 0)
(-0.00565091 0.000884914 0)
(-0.00598074 0.000914178 0)