/*--------------------------------*- C++ -*----------------------------------*\
  =========                 |
  \\      /  F ield         | OpenFOAM: The Open Source CFD Toolbox
   \\    /   O peration     | Website:  https://openfoam.org
    \\  /    A nd           | Version:  6
     \\/     M anipulation  |
\*---------------------------------------------------------------------------*/
FoamFile
{
    version     2.0;
    format      ascii;
    class       volVectorField;
    location    "0";
    object      U_rec;
}
// * * * * * * * * * * * * * * * * * * * * * * * * * * * * * * * * * * * * * //

dimensions      [0 1 -1 0 0 0 0];

internalField   nonuniform List<vector> 
918
(
(0.984051 -0.00481065 0)
(-0.00350946 2.98332 0)
(-0.0148654 1.69577 0)
(0.976351 0.00756295 0)
(-0.003931 1.65621 5.79882e-17)
(0.000166864 2.9733 -4.30097e-17)
(0.946294 1.43658 7.23737e-19)
(0.470515 0.238155 1.62978e-19)
(0.993982 -0.000299152 0)
(0.0186621 1.52163 0)
(-0.00171017 1.55359 0)
(0.885713 -0.00277195 0)
(0.000217039 2.98546 0)
(0.00499839 2.89398 0)
(0.000779594 2.89878 1.35051e-17)
(-0.00706447 1.62115 3.44156e-17)
(0.642907 0.1319 6.40259e-18)
(0.176325 1.57972 -4.0316e-17)
(0.982169 0.00692038 0)
(0.00531543 1.62252 0)
(-0.0134837 0.0102351 1.79721e-18)
(0.984207 0.00876737 0)
(1.00304 0.0105436 0)
(1.01507 0.000256614 0)
(0.801492 -0.000978863 0)
(0.0180507 2.93259 0)
(-0.00901789 2.94273 -8.90782e-17)
(-0.0124106 1.72254 0)
(0.00203362 1.76504 0)
(-0.00785552 1.71943 0)
(-0.00946838 1.78912 0)
(-0.0112395 1.66787 5.7961e-17)
(-0.00719981 1.62616 0)
(-0.00634663 3.00906 5.57184e-23)
(0.003257 3.02054 -4.55054e-17)
(0.0199468 3.00317 0)
(0.930155 -0.0040304 0)
(0.59545 1.105 -9.32589e-18)
(0.969343 1.44159 -4.79918e-18)
(1.0849 1.27876 2.0533e-17)
(0.822978 1.56762 1.0471e-17)
(0.790841 1.54776 1.15386e-17)
(0.490389 0.308573 1.44469e-19)
(0.522527 0.229006 0)
(1.27548 0.681906 0)
(0.419343 0.32009 4.41654e-19)
(0.399921 0.225118 5.24503e-19)
(0.956544 -0.00257311 0)
(0.996564 0.00235016 0)
(0.99412 0.00363544 0)
(0.990062 0.00178156 0)
(0.981758 0.00861586 0)
(0.995066 0.013426 0)
(0.0346762 1.58322 3.57016e-19)
(0.0105876 1.59134 0)
(0.0235813 1.50136 0)
(0.0031074 1.6248 0)
(0.00780654 1.55521 0)
(-0.00934961 1.65096 0)
(-0.0035693 1.64926 0)
(0.00144563 1.56021 0)
(-0.01287 1.65748 0)
(-0.00668561 1.56453 0)
(0.957905 0.00188682 0)
(0.931449 0.011164 0)
(0.901621 0.00141415 0)
(0.921315 0.0125772 0)
(0.873232 -0.00281464 0)
(-0.022979 3.03985 3.03746e-17)
(0.00269169 2.96927 0)
(-0.0265958 3.00791 0)
(0.0340297 3.03834 1.44914e-25)
(-0.00019018 3.02927 3.16568e-17)
(0.0162338 3.00883 0)
(0.00178253 2.95723 0)
(0.00504598 2.96829 -1.90173e-24)
(0.0038733 2.90157 0)
(0.00298133 2.97484 0)
(0.00693265 2.8826 0)
(0.270284 3.17757 0)
(-0.064811 3.25964 0)
(0.0911076 2.95777 1.14189e-17)
(0.00123863 2.80373 0)
(-0.00334249 1.76554 0)
(-0.00329841 1.68773 3.42927e-17)
(-0.00313356 1.62906 3.43774e-17)
(0.680163 0.170428 -6.87108e-18)
(0.671086 0.0983223 2.50498e-19)
(0.639163 0.205782 1.46608e-17)
(0.612858 0.16556 -1.32147e-17)
(0.224559 1.25902 0)
(0.255918 1.64763 -4.31961e-17)
(0.36816 1.6158 -4.16944e-17)
(0.993549 0.00635291 0)
(0.96901 0.00323544 0)
(0.993331 -0.0063083 0)
(1.00094 0.000653535 0)
(1.00488 0.0144792 1.16953e-16)
(1.00568 0.0153026 1.43768e-16)
(-0.005361 1.68032 0)
(-0.00161388 1.61706 0)
(-0.00694932 1.72199 0)
(-0.0112028 1.69465 0)
(-0.000572368 1.63649 0)
(-0.0384231 0.24972 -1.49415e-18)
(0.173484 0.162666 0)
(1.01483 -0.0154867 0)
(0.983592 -0.00349843 0)
(0.898906 0.0251377 0)
(0.860175 0.0462796 0)
(0.844157 0.00472538 0)
(1.0892 -0.00147893 0)
(0.814333 0.0437234 0)
(0.744959 -0.00558414 3.13975e-17)
(-0.0159676 2.87429 2.77316e-17)
(0.00953043 2.98611 0)
(-0.0486184 3.02655 0)
(0.00623936 2.87254 0)
(-0.00710457 2.98469 -3.00488e-17)
(-0.00481591 2.93085 0)
(-0.0131237 2.98869 -2.78493e-17)
(-0.0133967 2.95317 2.90607e-17)
(0.00433449 1.77955 0)
(0.000233875 1.77934 0)
(0.000674924 1.68848 -1.38916e-20)
(-0.00360315 1.67842 0)
(-0.00149093 1.62357 0)
(0.963934 7.47881e-05 0)
(0.929454 -0.00160855 0)
(0.921834 0.00502381 0)
(0.967083 -0.0012098 0)
(0.938778 -0.00181298 0)
(0.644865 1.22733 -7.56067e-18)
(0.732241 1.27133 0)
(0.535633 1.05938 -1.04278e-18)
(0.492653 0.986926 0)
(1.08427 1.28237 1.91461e-17)
(1.18934 1.0765 6.91417e-19)
(0.467876 1.67346 0)
(0.667273 1.65429 0)
(0.579307 1.6173 0)
(0.297683 0.584305 -6.88903e-18)
(0.541737 0.288917 0)
(0.560889 0.211484 -3.20346e-18)
(1.16047 1.09911 0)
(1.22205 0.898484 0)
(1.24293 0.867315 -6.8397e-19)
(1.26898 0.711192 0)
(1.29516 0.50113 -2.92852e-17)
(0.973433 0.00213747 0)
(0.976474 -0.00416654 0)
(0.946276 -0.00226837 0)
(0.997776 -0.00783196 0)
(0.98819 -0.00805214 0)
(0.969792 -0.00172613 0)
(0.988423 -0.00393977 0)
(0.987221 -0.000110261 0)
(0.994936 -0.0017146 0)
(0.0367362 1.64882 3.22519e-17)
(0.0407907 1.54534 0)
(0.034152 1.67881 2.92922e-19)
(0.0229754 1.61235 3.53051e-19)
(0.0913304 1.59752 -4.14076e-17)
(0.0221029 1.57106 0)
(0.055582 1.51075 0)
(0.00169448 1.66168 0)
(0.0118692 1.56261 0)
(-0.00775234 1.70493 8.45189e-21)
(0.00264845 1.65337 0)
(-0.00840603 1.70278 -3.40262e-17)
(0.00302905 1.65099 -2.46681e-19)
(0.00962079 1.66459 0)
(0.00525558 1.65559 0)
(0.0117056 1.56009 0)
(-0.0121573 1.66737 0)
(-0.00695078 1.58364 0)
(1.00015 0.0182719 0)
(0.976077 0.00646957 0)
(0.984299 0.00914087 0)
(0.948172 0.00261164 0)
(0.906436 -0.00490209 0)
(0.948205 0.00185205 0)
(0.94082 0.0092745 0)
(0.90276 -0.000743178 0)
(0.0105789 3.03777 3.20864e-21)
(0.015327 3.03362 0)
(0.0053084 2.99368 0)
(0.00295371 2.94113 0)
(0.978545 3.6887 0)
(1.3587 2.73984 -2.45819e-18)
(0.00808978 2.87864 0)
(-0.0103458 2.8013 0)
(-0.00592427 1.76872 0)
(-0.00724579 1.7668 0)
(-0.00775331 1.76778 0)
(-0.00537901 1.78024 -7.7229e-17)
(-0.0103755 1.76686 0)
(-0.00318863 1.77284 0)
(0.0022561 1.63527 -6.86753e-17)
(0.00345074 1.69879 -3.44322e-17)
(-0.00604561 1.69506 3.42379e-17)
(-0.000506635 1.63352 0)
(0.711794 0.13635 -1.56724e-17)
(0.703874 0.0687125 -1.48247e-17)
(0.193972 1.37122 0)
(0.276007 1.12368 1.73171e-20)
(0.129884 1.45555 -2.96754e-17)
(0.147072 1.38749 -2.97147e-17)
(0.949502 0.00661908 0)
(0.979707 0.00572201 0)
(0.98465 0.00837052 0)
(0.956494 0.00588345 0)
(-0.01158 1.67428 0)
(-0.00335272 1.67603 0)
(-0.00684055 1.60267 0)
(0.341847 0.319349 1.45964e-18)
(0.206554 0.28603 -2.2824e-18)
(0.309511 0.207624 0)
(1.17941 0.102324 -1.90459e-19)
(1.18459 0.0583535 0)
(1.09349 0.0471149 0)
(1.03184 0.0030067 0)
(0.730102 0.0939068 0)
(0.760686 0.048209 1.89199e-17)
(0.713496 0.0317206 -1.64741e-17)
(-0.0151462 2.9551 -2.98803e-17)
(-0.00750592 2.90371 -5.82887e-17)
(0.00636599 3.02821 -1.17082e-21)
(0.0309251 3.0174 -3.38701e-17)
(-0.0169363 3.00222 -2.9311e-20)
(-0.0117395 2.98078 7.3339e-23)
(-0.0112213 3.02414 -6.05968e-18)
(8.60764e-05 2.98507 -6.57785e-18)
(0.0437427 3.01924 -3.30997e-17)
(0.979023 0.00567359 0)
(0.970956 0.0100937 0)
(0.9385 0.00397639 0)
(0.974564 0.00802513 0)
(0.963419 0.0101354 0)
(0.932675 0.00731654 0)
(0.950507 -0.000911961 0)
(0.955395 0.00651077 0)
(0.908031 -0.00137455 0)
(0.787867 1.44246 4.07562e-19)
(0.868169 1.50572 0)
(0.401558 0.811113 1.76109e-18)
(0.374008 0.868975 1.18315e-19)
(0.437345 0.962208 -1.47558e-17)
(0.425237 0.904627 -1.44951e-17)
(0.388728 0.919382 5.62601e-18)
(0.286672 0.62581 2.0808e-17)
(0.613811 0.233138 -8.09707e-18)
(0.58228 0.258626 -2.58584e-18)
(0.592156 0.188826 6.29469e-18)
(1.29288 0.524916 -2.86776e-17)
(1.29218 0.332079 6.69287e-19)
(0.0149963 1.69847 -3.33001e-17)
(0.00793988 1.63224 0)
(1.04595 0.0308016 0)
(1.01807 0.0198766 0)
(0.998644 0.000462449 0)
(0.0142673 3.0457 0)
(0.0139438 2.97363 -3.04526e-17)
(0.00976685 2.98502 0)
(0.00321609 2.9225 -2.8932e-17)
(0.011811 3.05832 1.68887e-17)
(0.0112387 3.05088 0)
(0.846932 1.73967 -2.7877e-18)
(1.197 2.3172 -1.24703e-17)
(0.935394 1.82505 -1.38613e-17)
(-0.0274976 2.91824 2.94158e-17)
(-0.0259771 2.88001 0)
(-0.0188322 2.83716 0)
(-0.0118102 1.69568 6.81963e-17)
(0.0012841 1.6902 -8.3741e-20)
(-0.0112951 1.63565 6.80931e-17)
(0.249892 1.29512 -1.42416e-17)
(0.296734 0.9551 -1.37477e-17)
(0.0394998 1.60655 -3.08813e-17)
(0.0768578 1.53981 -3.06355e-17)
(0.0658305 1.47976 -6.14895e-17)
(-0.0203051 3.06968 1.19198e-16)
(-0.00758954 3.06685 1.15831e-16)
(0.00626886 2.9855 2.91702e-17)
(-0.0149018 2.97897 -2.85671e-17)
(-0.00158185 2.9327 3.02714e-17)
(0.0170685 3.06269 -1.01141e-16)
(-0.00556048 3.05769 -1.21614e-16)
(0.338833 0.873696 0)
(0.300182 0.825392 -1.10664e-17)
(0.352722 0.640833 -1.46169e-17)
(0.364131 0.999036 3.43084e-17)
(0.320871 0.690064 2.11344e-17)
(1.26911 0.20111 -9.62638e-19)
(1.29515 0.362102 0)
(1.26427 0.176287 3.27165e-19)
(-0.0107508 1.70762 5.1415e-21)
(0.00474846 1.70723 0)
(-0.00239593 1.64293 0)
(0.299554 1.21239 3.18382e-19)
(0.350128 1.12876 -3.45956e-17)
(0.294605 0.81022 -2.77535e-17)
(1.00214 -0.0237136 0)
(1.00211 -0.0141735 1.7665e-17)
(0.00280675 1.77573 0)
(-0.00909476 1.79146 0)
(1.00101 -0.00168721 4.67417e-19)
(1.00125 0.00140182 2.58975e-17)
(0.00124993 1.78022 -7.71771e-17)
(0.00101601 1.77745 0)
(-0.0196846 2.9711 2.83975e-17)
(0.302375 2.99441 0)
(1.09558 0.700106 -2.78241e-17)
(1.0046 0.00743287 8.59944e-17)
(1.01197 -0.00686576 0)
(1.00516 -0.00117729 3.60832e-19)
(-0.103406 1.67059 0)
(-0.0342904 1.86099 0)
(-0.00240149 1.79952 0)
(0.0157063 1.74972 -7.60287e-17)
(-0.00358011 1.75977 7.57192e-17)
(0.988684 0.0110327 8.42864e-17)
(1.03649 0.0214825 0)
(1.06103 0.0327649 0)
(-0.00250227 1.77156 0)
(0.001293 1.77156 0)
(-0.0152846 1.77738 0)
(0.190202 1.52281 -8.38994e-17)
(1.00467 -0.0128749 0)
(1.0072 -0.0148439 0)
(0.995808 0.005381 -1.50002e-17)
(0.997192 -0.00529375 1.94286e-17)
(0.995443 -0.00336984 0)
(-0.00271171 1.76549 0)
(-0.000739328 1.76812 0)
(-0.0017896 1.76351 0)
(-0.00787426 1.7793 0)
(-0.0235746 1.77765 0)
(-0.012623 1.77225 0)
(1.012 0.00453632 0)
(1.01168 0.00596371 8.61686e-17)
(0.834651 1.41466 -2.93353e-18)
(1.00163 -0.00694568 1.53624e-17)
(0.999254 0.00475118 -1.91272e-17)
(1.00242 0.00338408 0)
(1.00105 0.0105629 4.20629e-17)
(1.00601 0.0131945 4.31888e-17)
(1.00489 0.0107263 0)
(0.00310217 1.77458 0)
(0.00530851 1.77269 -3.89433e-17)
(-0.000849968 1.77097 -3.47718e-17)
(1.16115 0.26282 -5.45578e-17)
(1.0989 0.081697 0)
(-0.235657 2.97154 2.50423e-17)
(-0.255168 3.22685 3.92928e-19)
(-0.0366043 3.01692 5.43293e-17)
(-0.0403807 2.96972 3.51991e-17)
(0.0475667 2.94578 0)
(-0.026637 3.02651 1.49585e-17)
(-0.100615 3.12802 2.73234e-17)
(-0.0827466 3.01139 1.5759e-17)
(-0.0602917 3.09704 0)
(0.644906 0.33974 0)
(0.523122 0.38501 0)
(1.07826 0.822856 3.32854e-17)
(1.07278 0.90512 3.41846e-17)
(1.13677 0.637978 0)
(1.15401 0.560308 0)
(1.00738 0.00486513 3.9883e-18)
(1.00347 0.0035004 -2.05508e-18)
(1.01318 -0.00793071 0)
(1.00681 -0.0156384 0)
(0.999925 0.00961303 0)
(1.00585 0.00364568 0)
(1.00465 0.0060488 0)
(1.00223 0.00555509 0)
(1.0037 0.00491388 0)
(0.993541 0.00639308 0)
(-0.0823183 1.68747 0)
(-0.0843809 1.72708 0)
(-0.0718849 1.6464 0)
(-0.0463431 1.6323 0)
(-0.0322324 1.88244 0)
(0.00951134 1.87543 3.45615e-17)
(-0.0173906 1.84709 0)
(-0.0248448 1.80987 3.36806e-17)
(-0.00256061 1.7455 -7.18182e-17)
(-0.0108809 1.79939 0)
(-0.00402058 1.79501 0)
(0.00694867 1.80353 0)
(0.000781791 1.80703 0)
(0.0198346 1.7703 -7.62664e-17)
(-0.0171949 1.74811 -4.86698e-17)
(0.0169909 1.75362 3.8414e-17)
(0.00203129 1.76114 0)
(0.0189128 1.76573 3.13428e-17)
(0.0055544 1.77038 -7.28176e-17)
(-0.00961612 1.78805 -1.16327e-16)
(-0.0102551 1.73645 -4.83182e-17)
(0.01454 1.74308 3.88362e-17)
(0.992073 0.017034 2.61826e-19)
(0.995123 0.0019035 1.47134e-18)
(0.988129 0.0240365 4.64364e-18)
(0.975484 0.0179092 -1.20693e-18)
(1.03081 0.0119402 0)
(1.03226 0.0100792 0)
(1.04449 0.0331673 0)
(1.03793 0.0307365 0)
(1.04238 0.0139538 0)
(1.08613 0.0712284 0)
(1.06436 0.0603921 0)
(1.08167 0.04086 0)
(-0.0126166 1.78014 1.00546e-17)
(-0.000527265 1.75749 0)
(-0.0159628 1.76511 0)
(-0.003855 1.77021 -1.49544e-17)
(-0.00140417 1.77243 1.6883e-20)
(-0.0113695 1.78724 4.4877e-17)
(-0.0231762 1.77581 4.50113e-17)
(-0.0038461 1.76944 0)
(-0.0284975 1.77471 0)
(-0.0138432 1.76772 0)
(-0.00542038 1.78013 0)
(-0.00907741 1.78682 0)
(0.376946 1.54366 -5.82353e-17)
(0.412014 1.58574 4.17005e-17)
(0.381938 1.93362 -3.45727e-19)
(0.197612 1.91384 3.11205e-17)
(0.221862 2.06849 3.75405e-17)
(1.01107 -0.0136923 0)
(1.01164 -0.00715209 0)
(1.01494 -0.0088317 0)
(1.00536 0.00314539 0)
(0.997482 -0.00374426 0)
(0.990077 -0.00125528 0)
(1.00227 -0.000911115 0)
(1.00466 -0.000265326 0)
(1.00875 0.0044552 8.27448e-19)
(1.00516 0.00658589 1.85274e-18)
(1.01186 0.00743246 4.14644e-18)
(1.00714 0.00675065 -1.85529e-18)
(0.76371 1.51219 0)
(0.720356 1.54648 -7.92102e-17)
(0.900942 1.36829 7.08677e-17)
(0.951804 1.29159 6.95196e-17)
(1.00313 2.0941 -2.00465e-17)
(0.819633 0.115286 -1.76729e-17)
(1.111 0.134231 0)
(1.15885 0.189438 -1.00608e-16)
(1.1366 0.138945 -7.38269e-20)
(0.951565 0.143042 0)
(-0.0877609 2.70139 5.62976e-17)
(-0.37759 2.61622 6.54902e-17)
(-0.822948 2.68181 1.00991e-17)
(-0.65351 0.202481 -1.31515e-17)
(0.195382 2.98615 -1.29223e-17)
(0.0421831 2.97674 0)
(0.141156 2.95523 -1.15415e-17)
(0.0202749 2.69802 7.12408e-17)
(0.192647 2.72885 0)
(-0.0227973 3.05368 -1.682e-19)
(-0.0339264 3.07188 -2.59236e-17)
(-0.00545141 3.09514 -2.70976e-17)
(-0.0424264 3.1112 0)
(-0.0475361 3.05143 0)
(1.13625 2.15821 0)
(0.489198 1.05327 4.78195e-17)
(1.01994 1.09764 -3.38996e-17)
(0.99401 1.22747 0)
(0.833296 1.09084 -1.54782e-17)
(1.04144 1.04082 -6.26078e-17)
(0.17281 0.417975 -4.93309e-18)
(0.654318 0.336416 1.22245e-17)
(0.676387 0.298067 1.43937e-17)
(0.461946 0.455566 1.73053e-19)
(0.423719 0.393532 -2.01437e-18)
(0.607961 0.385735 0)
(0.589222 0.481661 1.38591e-17)
(0.612354 0.436764 0)
(0.543903 0.411944 0)
(0.588999 0.356317 0)
(0.676954 0.694231 3.61019e-17)
(1.17013 0.341866 3.42521e-17)
(1.18194 0.461966 0)
(1.17294 0.387447 0)
(0.748725 0.229573 2.24376e-17)
(0.723032 0.626534 3.51454e-17)
(0.607558 0.570391 1.41908e-17)
(0.867481 0.429776 -8.57513e-17)
(1.00264 0.00616355 3.95067e-17)
(1.00251 0.0148941 4.17638e-17)
(0.997863 0.0117042 0)
(1.00752 0.00673341 0)
(1.00503 -0.0164157 -3.85635e-17)
(0.99696 -0.0101911 -4.01002e-17)
(1.01629 0.00107066 0)
(1.00577 0.00468757 0)
(1.00947 0.00044952 0)
(1.00458 0.00343228 0)
(1.01075 -0.00186954 0)
(1.00695 -0.00614977 0)
(-0.056146 1.75581 0)
(-0.0402197 1.76557 0)
(-0.147052 1.60735 -5.3446e-17)
(0.128523 1.5733 -4.04174e-17)
(0.00589707 1.60245 7.85084e-17)
(0.0387507 1.56223 3.62403e-17)
(-0.0864478 1.59609 0)
(-0.151877 1.88966 7.29274e-17)
(-0.190858 1.85316 0)
(0.106183 2.10432 3.80061e-17)
(0.100832 2.07013 -4.43772e-17)
(-0.12245 1.83926 7.20891e-17)
(0.0787221 1.49991 -4.15669e-17)
(-0.0719532 1.57797 -4.20659e-17)
(0.0718354 1.49916 -1.06144e-17)
(-0.0422056 1.88169 0)
(0.0560936 1.88593 -5.27561e-17)
(-0.0413182 1.75194 5.56394e-18)
(-0.00689226 1.75398 0)
(-0.0785133 1.78142 -7.32876e-17)
(-0.0708843 1.74752 0)
(-0.011756 1.79239 3.40323e-17)
(-0.008877 1.76662 0)
(0.0265298 1.78035 5.46933e-17)
(0.0332709 1.78245 0)
(0.0107118 1.79279 0)
(0.0111649 1.80053 5.42945e-17)
(-0.00630983 1.73761 -1.19333e-16)
(0.00940109 1.74472 -6.95911e-17)
(-0.000452979 1.74753 8.26033e-22)
(0.00695247 1.76185 7.83098e-17)
(-0.0144463 1.78505 -3.98643e-17)
(-0.010697 1.79143 0)
(-0.0124972 1.79717 0)
(-0.0218008 1.78929 3.17833e-17)
(-0.0194369 1.79685 2.71256e-17)
(-0.00122962 1.7916 6.01548e-17)
(-0.075968 1.80248 0)
(-4.73575e-05 1.77428 1.03546e-16)
(-0.0101193 1.77051 1.73971e-17)
(0.00377492 1.77518 -1.97149e-17)
(0.0126196 1.77968 7.8547e-17)
(0.0153917 1.73902 -4.04955e-18)
(0.00360963 1.74647 -4.49578e-17)
(1.00405 0.0123111 4.15537e-17)
(0.998042 0.00595784 3.89581e-17)
(0.998969 0.00817759 0)
(0.989505 0.047874 -6.14216e-17)
(0.966278 0.0502899 5.07291e-18)
(0.948735 0.0346357 3.90394e-18)
(0.983708 0.091186 3.8123e-19)
(1.0171 0.0100056 0)
(1.02343 0.0125255 -4.12862e-17)
(1.02136 0.00741196 -3.88422e-17)
(1.02483 0.0390709 2.97685e-18)
(1.02742 0.0353825 -6.75007e-18)
(1.01581 0.0489414 0)
(1.00827 0.0444202 -9.59677e-19)
(1.00268 0.0261281 0)
(0.999872 0.0276064 0)
(1.01661 0.0232697 0)
(1.0053 0.0100562 0)
(1.01042 0.0283373 6.69145e-18)
(1.01052 0.0212377 2.49676e-17)
(1.02356 0.0315804 -8.79485e-18)
(1.01658 0.0310067 7.45175e-18)
(1.01444 0.0656397 3.37715e-17)
(1.03735 0.0601924 0)
(1.02787 0.09099 0)
(0.00123233 1.78251 -5.43768e-17)
(0.0162848 1.76144 -8.75155e-19)
(-0.00555149 1.77188 0)
(0.00834878 1.78065 -5.45676e-17)
(0.00182376 1.78535 9.15324e-18)
(0.00435218 1.77632 -4.07071e-18)
(-0.00212987 1.7708 -7.8026e-17)
(0.00675479 1.76632 -2.07777e-19)
(0.0108068 1.75869 -4.95686e-18)
(-0.00531577 1.76948 3.44097e-17)
(-0.00311555 1.77272 3.44653e-17)
(0.00390905 1.76394 -2.3459e-17)
(-0.00240925 1.77554 -3.90732e-17)
(0.338037 1.40109 2.86183e-17)
(0.269736 1.55921 -6.03535e-18)
(0.67816 1.59974 -8.0731e-17)
(0.541202 1.59912 4.09761e-17)
(0.578094 1.60188 0)
(0.413902 1.93778 -3.11669e-18)
(0.497444 1.91077 2.35812e-19)
(0.251053 1.92009 -7.47061e-18)
(0.197082 2.08584 -3.6811e-17)
(0.266404 2.08561 -2.73435e-17)
(0.350995 1.93701 0)
(0.307352 1.89893 -1.4157e-17)
(0.0506582 1.90961 4.4124e-18)
(0.148258 1.92524 6.29467e-17)
(0.105537 1.87734 2.32059e-18)
(0.752955 1.95366 -3.27765e-17)
(0.661096 1.96964 0)
(1.00852 0.00715349 1.83606e-20)
(1.00791 -0.00504294 8.25733e-20)
(1.00271 -0.0213484 -1.14053e-17)
(1.01436 -0.0104286 -1.24638e-17)
(1.01154 0.000542999 0)
(0.716991 1.43737 0)
(0.645318 1.37717 0)
(0.773103 1.22898 0)
(0.685407 1.30412 0)
(0.984293 2.10985 2.9474e-17)
(0.934276 1.93171 0)
(0.725837 1.87241 -1.07548e-18)
(0.722881 2.06193 0)
(0.762939 2.08375 7.16032e-17)
(0.816322 2.03299 7.05927e-17)
(0.802352 0.152836 0)
(0.787269 0.15796 -1.69144e-19)
(0.877096 0.133975 1.52887e-17)
(0.839261 0.110751 -3.13205e-17)
(0.852932 0.0833446 -7.39074e-18)
(1.01454 0.255619 -3.53382e-17)
(0.895436 0.295455 2.90908e-17)
(0.858857 0.283181 3.1725e-17)
(0.946004 0.22864 1.78848e-17)
(0.886011 0.166619 3.22537e-17)
(0.864917 0.196203 -1.01066e-17)
(0.868997 0.260343 -6.67078e-19)
(0.852607 0.226995 0)
(0.951546 0.20119 2.66017e-17)
(0.989093 0.186845 0)
(0.981603 0.255482 0)
(1.04517 0.123236 -1.03304e-17)
(1.00055 0.186281 3.20133e-17)
(0.990602 0.218704 2.04372e-17)
(1.03111 0.204449 0)
(0.994082 0.0266223 -3.26194e-17)
(1.00243 0.0343935 3.70665e-17)
(1.00494 0.0347953 -3.11408e-17)
(1.00345 0.0543294 3.978e-17)
(0.981387 0.0510734 -6.20747e-17)
(0.943729 0.149075 0)
(0.960353 0.0745092 0)
(0.945296 0.0549524 4.17084e-17)
(0.919253 0.0532291 1.01563e-17)
(0.988592 0.0967082 -3.40417e-17)
(1.01247 0.123563 -3.37573e-17)
(1.00935 0.151819 -3.45272e-18)
(0.978307 0.150219 0)
(1.01473 0.0958245 0)
(1.00904 0.0833755 3.35679e-17)
(0.991333 0.0839738 -3.13543e-17)
(0.54522 1.33885 2.93221e-17)
(0.554235 1.54532 -2.30206e-17)
(0.913925 2.21736 1.68293e-17)
(0.985201 2.47867 -1.68114e-18)
(1.0407 2.19171 -3.54979e-17)
(1.09901 2.23877 7.99403e-18)
(1.09753 1.97378 8.36369e-18)
(1.00932 2.37875 -1.93323e-17)
(1.01134 2.35176 -9.80396e-18)
(1.04965 2.58618 1.48503e-19)
(1.1778 2.45426 9.27849e-19)
(1.24442 2.40611 0)
(0.466026 1.11454 -3.82546e-18)
(-0.18095 1.42223 -1.26508e-17)
(0.0346537 0.594515 -3.79751e-18)
(-0.101453 0.81561 -1.40584e-17)
(0.341963 0.4577 -5.20954e-18)
(0.358775 0.511136 -3.5485e-18)
(0.306954 0.598422 -1.15367e-18)
(0.217323 0.468627 6.49594e-19)
(0.307243 0.387668 -3.19711e-18)
(0.730443 0.27329 2.26461e-17)
(0.684407 0.305212 0)
(0.706949 0.262796 6.26334e-18)
(0.595405 0.57029 -9.83651e-18)
(0.508562 0.5419 5.71214e-18)
(0.424828 0.577309 -5.98787e-18)
(0.490726 0.490609 0)
(0.575747 0.933761 -2.25774e-17)
(0.740044 0.906741 5.22338e-17)
(0.683369 1.03479 4.81873e-17)
(0.77174 0.934761 1.20824e-17)
(0.894364 0.924275 -4.98598e-18)
(0.894353 0.990433 -5.18855e-18)
(0.781388 0.755295 -2.3368e-19)
(0.842212 0.807858 1.16275e-17)
(0.928575 0.855265 0)
(0.926669 0.736265 2.42729e-17)
(0.946534 0.32285 5.37696e-17)
(1.05708 0.321589 -1.672e-17)
(0.995609 0.311371 -4.77347e-17)
(0.902454 0.396548 4.5076e-17)
(0.992218 0.451571 0)
(1.03106 0.420771 0)
(0.810676 0.393539 5.12861e-17)
(0.786076 0.290184 0)
(0.779695 0.287744 -1.24516e-17)
(0.873644 0.313055 6.98523e-17)
(0.825121 0.501357 -7.12764e-17)
(0.751567 0.554033 3.89576e-18)
(0.789456 0.512115 4.05942e-18)
(0.715628 0.467855 2.97974e-18)
(0.698905 0.483494 -3.70312e-18)
(0.662285 0.466298 -3.14079e-18)
(1.01694 0.000738663 -4.2258e-17)
(1.01272 -0.00917954 0)
(1.02011 -0.00201469 1.51115e-17)
(1.00797 0.00604798 -2.39738e-17)
(1.0229 0.00460639 -1.98863e-17)
(1.01296 0.0148094 -6.84031e-18)
(1.00897 0.0108324 0)
(1.00936 0.0036844 1.13539e-17)
(1.01369 0.00844872 4.1622e-18)
(1.00676 0.008776 -5.9448e-18)
(1.01005 0.00404254 1.08369e-17)
(-0.0138441 1.79989 0)
(-0.0104137 1.81337 0)
(-0.0166746 1.77716 0)
(-0.012024 1.78745 0)
(-0.12781 1.77763 -2.55654e-18)
(-0.137982 1.72334 -1.11501e-16)
(-0.181138 1.84902 -3.43863e-17)
(-0.217223 1.78624 -8.71023e-17)
(-0.0643449 1.79667 5.63174e-17)
(-0.05822 1.80821 6.45251e-17)
(-0.101894 1.78412 1.23008e-16)
(-0.0787282 1.7889 5.6665e-17)
(-0.0452341 1.79494 1.00831e-17)
(-0.0368747 1.8137 1.26914e-18)
(-0.0904933 1.81494 -7.27288e-17)
(-0.0729604 1.86579 0)
(-0.151181 1.90805 -4.09676e-17)
(-0.187368 1.8695 -4.42347e-18)
(-0.0399892 1.97691 -1.90759e-17)
(-0.00534853 1.99557 0)
(0.00986262 2.00827 5.29118e-17)
(0.0276181 2.05282 5.21761e-17)
(-0.0841015 1.95546 -6.56875e-17)
(-0.115155 1.93911 -8.35531e-17)
(-0.0803463 1.93132 0)
(-0.0101596 1.75296 3.13269e-17)
(-0.00384254 1.71979 -2.43448e-17)
(0.000360366 1.74446 0)
(-0.00101718 1.74026 2.15336e-17)
(-0.0394102 1.75276 1.879e-17)
(0.000932877 1.79195 9.91047e-18)
(-0.00681559 1.7837 -1.05268e-16)
(-0.0193191 1.78828 -6.70784e-17)
(-0.0198548 1.78259 4.85663e-17)
(0.00352683 1.7838 0)
(0.0116499 1.79092 0)
(-0.00659487 1.7822 -3.93214e-17)
(-0.00431461 1.77177 -3.98359e-18)
(-0.00255312 1.78197 0)
(-0.00987582 1.79125 3.46344e-17)
(-0.00907016 1.78618 -2.37932e-19)
(1.01824 0.0345629 0)
(1.02728 0.0278426 -3.96346e-19)
(1.00954 0.0209873 4.09168e-17)
(1.01816 0.0143269 0)
(1.01677 0.00821673 0)
(1.0196 0.00426039 2.19025e-17)
(1.01445 0.0116983 -4.8475e-17)
(1.00841 0.00795113 -8.61075e-18)
(1.00468 0.00732321 0)
(1.00679 0.00983389 0)
(1.00583 0.0153713 3.4595e-17)
(1.00154 0.0171322 0)
(1.00554 0.0148351 0)
(-0.00244932 1.77863 0)
(0.00138263 1.77413 -4.23389e-17)
(0.0010181 1.76783 4.40291e-17)
(-0.00396737 1.76576 0)
(0.00951077 1.77919 -3.96378e-17)
(-0.00201285 1.76914 -1.96263e-17)
(-0.00694552 1.76309 0)
(0.507238 1.82537 0)
(0.256611 1.62226 1.97732e-17)
(0.281716 1.81589 0)
(0.461116 1.40802 8.95711e-17)
(0.506154 1.41857 0)
(0.479717 1.43268 3.25701e-17)
(0.840823 2.12346 -3.82888e-19)
(0.775819 1.94146 -3.17215e-17)
(0.710517 1.76819 -1.55747e-17)
(0.682376 1.95605 -7.26913e-18)
(0.730476 2.05595 0)
(0.768537 2.02746 0)
(0.710952 1.95046 0)
(0.711342 1.94191 -7.08935e-18)
(0.540599 2.14344 -4.22226e-17)
(0.684157 2.05897 3.33272e-18)
(0.68308 2.09045 3.12647e-18)
(0.506256 1.96019 0)
(0.602968 1.97294 0)
(0.583107 1.95121 -1.73591e-19)
(0.622218 2.08977 0)
(0.609014 1.26037 0)
(0.561312 1.1547 -6.91423e-17)
(0.554419 1.14651 -6.37281e-18)
(0.56147 1.24989 0)
(0.563107 1.20077 -6.69497e-17)
(0.725357 1.05077 -1.15652e-17)
(0.776217 1.18618 0)
(0.788558 1.10863 -2.80112e-17)
(0.67581 1.20397 0)
(0.615585 1.14694 0)
(0.919238 2.18117 1.13782e-17)
(0.900587 2.25478 -1.24106e-17)
(0.736904 1.98345 -3.68784e-17)
(0.731835 1.95647 -4.17386e-18)
(0.903161 2.15019 0)
(0.86267 2.12996 -3.51248e-18)
(0.892606 2.00002 -7.34179e-18)
(0.835399 1.81207 -7.82274e-18)
(0.596231 1.47607 0)
(0.55731 1.33494 3.0007e-17)
(0.589638 1.38782 0)
(0.815462 0.215138 0)
(0.778856 0.189614 0)
(0.761806 0.201084 0)
(0.801552 0.249151 -1.16038e-17)
(0.750396 0.228708 7.26411e-18)
(0.926155 0.0759481 1.07431e-17)
(0.920367 0.116683 0)
(0.893847 0.0930502 3.81194e-19)
(0.859689 0.0759827 -2.54166e-19)
(0.868356 0.0559075 -8.19209e-18)
(1.03729 2.7474 -1.30033e-17)
(0.977322 2.65139 0)
(0.937852 2.82463 -5.02147e-17)
(0.584699 3.03017 -3.51882e-17)
(0.722733 2.54508 9.81993e-18)
(0.449206 1.18568 -2.24346e-17)
(0.52412 1.09711 0)
(0.231521 0.830502 6.29099e-18)
(0.254853 0.929398 4.68523e-17)
(0.186338 0.793465 9.04846e-18)
(0.260749 0.636829 6.47818e-18)
(0.486972 0.634181 -6.51372e-18)
(0.510774 0.686192 0)
(0.453999 0.780205 0)
(0.347727 0.733885 0)
(0.899882 0.687375 1.24598e-17)
(0.82624 0.604959 4.03166e-18)
(0.842604 0.643279 4.34219e-19)
(0.86307 0.529189 1.79097e-17)
(0.977016 0.55355 0)
(0.974046 0.619338 -1.19965e-17)
(0.769003 0.417855 5.35102e-18)
(0.770469 0.367991 1.92236e-17)
(0.716382 0.402384 -2.3773e-19)
(0.720052 0.373385 -1.34892e-18)
(0.764529 0.331247 -1.22427e-17)
(0.747839 0.312079 -1.31621e-17)
(1.02795 0.00166167 -4.38468e-17)
(1.02681 7.9278e-05 -2.60134e-17)
(1.02365 0.00622053 4.31284e-17)
(1.02389 0.00541908 4.49338e-17)
(1.01633 0.0225244 0)
(1.00136 0.0157261 -2.5996e-17)
(-0.0818578 1.80185 2.73338e-17)
(-0.0858678 1.81645 0)
(-0.158703 1.84597 -4.35766e-17)
(-0.174628 1.85237 -6.19907e-17)
(-0.190186 1.84033 -3.48596e-17)
(-0.155271 1.84497 0)
(0.0288224 1.78881 0)
(0.0169501 1.78254 -1.9941e-17)
(0.00293075 1.7662 -2.00163e-17)
(0.000735737 1.77204 -5.02573e-17)
(-0.00564661 1.7779 -1.06205e-17)
(0.0254787 1.78056 -4.12376e-18)
(0.648732 1.4802 -1.1874e-16)
(0.653759 1.55479 -1.25612e-16)
(0.554536 1.44908 7.37751e-17)
(0.618822 1.54904 -4.75544e-18)
(0.686311 1.44909 0)
(0.608638 1.46714 7.38927e-17)
(0.650407 1.47361 7.22836e-17)
(0.585908 1.36861 7.21033e-17)
(0.665812 1.40547 0)
(0.652313 1.41844 0)
(0.524938 2.1591 -4.35074e-17)
(0.486333 2.08026 -6.14316e-17)
(0.548081 2.09091 -6.01932e-17)
(0.419169 2.09097 -2.99565e-18)
(0.343992 2.24088 3.46899e-18)
(0.295627 2.16478 -2.29527e-17)
(0.788606 1.88766 -1.46935e-17)
(0.836089 1.9048 0)
(0.755321 1.74452 1.22144e-19)
(0.861878 2.10061 0)
(0.831452 2.10829 0)
(0.559891 2.02061 -5.96167e-18)
(0.917519 2.47436 -6.64077e-18)
(0.795708 2.47916 2.40807e-18)
(0.168338 1.2422 0)
(0.201054 1.19475 -1.6831e-17)
(0.43382 1.10168 -3.86501e-17)
(0.381401 1.963 0)
(0.368876 2.32955 8.79583e-18)
(0.202176 2.301 0)
(0.60129 0.849203 -1.996e-17)
(0.639607 0.84451 -4.09064e-17)
(0.651946 0.795261 -3.11146e-17)
(0.482446 0.817601 -2.46605e-18)
(0.559754 0.716772 -1.22808e-18)
(0.828026 2.28829 -7.85616e-18)
(0.885557 2.27445 -1.25473e-17)
(0.64629 1.99274 1.52021e-17)
(0.627833 1.6931 2.64442e-17)
(0.663537 1.76369 3.47868e-17)
(0.835297 2.05762 -3.01906e-17)
(0.837106 2.07069 -1.509e-17)
(0.708127 1.73235 1.00876e-18)
(0.539702 1.46734 3.50807e-17)
)
;

boundaryField
{
    wall-4
    {
        type            calculated;
        value           uniform (0 0 0);
    }
    velocity-inlet-5
    {
        type            calculated;
        value           uniform (1 0 0);
    }
    velocity-inlet-6
    {
        type            calculated;
        value           uniform (0 3 0);
    }
    pressure-outlet-7
    {
        type            calculated;
        value           nonuniform List<vector> 8((-0.0148866 1.69592 0) (-0.00399037 1.65605 5.79882e-17) (0.00227853 1.7652 0) (-0.00910359 1.78913 0) (-0.00324782 1.76542 0) (0.000437093 1.77919 0) (-0.00769843 1.76764 0) (-0.00303751 1.77273 0));
    }
    wall-8
    {
        type            calculated;
        value           uniform (0 0 0);
    }
    frontAndBackPlanes
    {
        type            empty;
    }
}

