/*--------------------------------*- C++ -*----------------------------------*\
  =========                 |
  \\      /  F ield         | OpenFOAM: The Open Source CFD Toolbox
   \\    /   O peration     | Website:  https://openfoam.org
    \\  /    A nd           | Version:  6
     \\/     M anipulation  |
\*---------------------------------------------------------------------------*/
FoamFile
{
    version     2.0;
    format      ascii;
    class       volVectorField;
    location    "0";
    object      U;
}
// * * * * * * * * * * * * * * * * * * * * * * * * * * * * * * * * * * * * * //

dimensions      [0 1 -1 0 0 0 0];

internalField   nonuniform List<vector> 
40000
(
(0.000207837 -0.000207856 0)
(-0.000677747 0.000350998 0)
(-0.00358719 0.000987138 0)
(-0.00839395 0.00144428 0)
(-0.0145647 0.00174983 0)
(-0.0216634 0.00194883 0)
(-0.0293886 0.00207903 0)
(-0.037543 0.00216705 0)
(-0.0459999 0.00222892 0)
(-0.0546748 0.00227317 0)
(-0.0635056 0.00230383 0)
(-0.0724404 0.00232247 0)
(-0.0814302 0.00232936 0)
(-0.0904255 0.00232417 0)
(-0.0993751 0.00230631 0)
(-0.108225 0.00227527 0)
(-0.116921 0.0022307 0)
(-0.125404 0.00217249 0)
(-0.13362 0.00210076 0)
(-0.141512 0.00201582 0)
(-0.149024 0.00191816 0)
(-0.156105 0.00180834 0)
(-0.162704 0.00168702 0)
(-0.168773 0.00155489 0)
(-0.174267 0.00141264 0)
(-0.179145 0.00126091 0)
(-0.183365 0.0011003 0)
(-0.186892 0.000931333 0)
(-0.189689 0.000754488 0)
(-0.191721 0.00057013 0)
(-0.192958 0.000378575 0)
(-0.193368 0.000180059 0)
(-0.192922 -2.52483e-05 0)
(-0.191589 -0.000237215 0)
(-0.189341 -0.000455767 0)
(-0.18615 -0.000680866 0)
(-0.181986 -0.000912484 0)
(-0.176823 -0.00115062 0)
(-0.170633 -0.00139527 0)
(-0.163388 -0.00164642 0)
(-0.155059 -0.00190407 0)
(-0.145622 -0.00216817 0)
(-0.135047 -0.00243867 0)
(-0.123309 -0.00271546 0)
(-0.110383 -0.00299844 0)
(-0.0962434 -0.00328743 0)
(-0.0808656 -0.00358224 0)
(-0.0642274 -0.0038826 0)
(-0.0463072 -0.00418824 0)
(-0.0270843 -0.0044988 0)
(-0.0065416 -0.00481387 0)
(0.0153382 -0.00513301 0)
(0.0385692 -0.00545569 0)
(0.063163 -0.00578136 0)
(0.0891294 -0.00610938 0)
(0.116473 -0.00643906 0)
(0.145198 -0.00676964 0)
(0.175303 -0.00710032 0)
(0.206785 -0.00743019 0)
(0.239634 -0.00775831 0)
(0.27384 -0.00808366 0)
(0.309383 -0.00840517 0)
(0.346244 -0.00872168 0)
(0.384394 -0.00903197 0)
(0.423803 -0.00933478 0)
(0.464431 -0.00962877 0)
(0.506236 -0.00991254 0)
(0.54917 -0.0101847 0)
(0.593176 -0.0104436 0)
(0.638195 -0.0106879 0)
(0.684154 -0.010916 0)
(0.730983 -0.0111262 0)
(0.778598 -0.011317 0)
(0.826913 -0.0114868 0)
(0.875833 -0.0116338 0)
(0.925257 -0.0117565 0)
(0.975084 -0.0118533 0)
(1.02519 -0.0119226 0)
(1.07546 -0.0119629 0)
(1.12577 -0.0119727 0)
(1.17598 -0.0119505 0)
(1.22597 -0.011895 0)
(1.27558 -0.011805 0)
(1.32467 -0.0116792 0)
(1.37309 -0.0115167 0)
(1.42068 -0.0113165 0)
(1.46729 -0.0110777 0)
(1.51276 -0.0107999 0)
(1.55692 -0.0104824 0)
(1.59962 -0.010125 0)
(1.64068 -0.00972751 0)
(1.67994 -0.00929 0)
(1.71725 -0.00881274 0)
(1.75244 -0.00829618 0)
(1.78534 -0.00774099 0)
(1.81582 -0.00714807 0)
(1.84371 -0.00651852 0)
(1.86888 -0.0058537 0)
(1.89118 -0.00515518 0)
(1.91049 -0.00442477 0)
(1.92669 -0.00366449 0)
(1.93964 -0.0028766 0)
(1.94926 -0.00206357 0)
(1.95546 -0.00122808 0)
(1.95814 -0.000373044 0)
(1.95725 0.000498465 0)
(1.95272 0.00138318 0)
(1.94451 0.00227767 0)
(1.93259 0.00317832 0)
(1.91696 0.00408144 0)
(1.8976 0.00498318 0)
(1.87455 0.00587964 0)
(1.84782 0.00676675 0)
(1.81748 0.00764054 0)
(1.78358 0.00849693 0)
(1.74622 0.00933183 0)
(1.70548 0.0101413 0)
(1.66148 0.0109212 0)
(1.61435 0.0116679 0)
(1.56424 0.0123775 0)
(1.5113 0.0130465 0)
(1.45571 0.0136714 0)
(1.39765 0.014249 0)
(1.33732 0.0147765 0)
(1.27494 0.0152509 0)
(1.21071 0.0156701 0)
(1.14487 0.0160318 0)
(1.07766 0.0163343 0)
(1.00931 0.0165761 0)
(0.940089 0.0167562 0)
(0.870226 0.0168739 0)
(0.799983 0.016929 0)
(0.729613 0.0169214 0)
(0.659369 0.0168517 0)
(0.589498 0.0167207 0)
(0.520249 0.0165298 0)
(0.451859 0.0162805 0)
(0.384563 0.0159748 0)
(0.318585 0.0156152 0)
(0.254139 0.0152042 0)
(0.191429 0.0147448 0)
(0.130647 0.0142404 0)
(0.0719696 0.0136943 0)
(0.0155617 0.0131102 0)
(-0.0384289 0.0124922 0)
(-0.0898674 0.0118441 0)
(-0.138638 0.0111702 0)
(-0.18464 0.0104746 0)
(-0.227789 0.00976153 0)
(-0.268019 0.00903529 0)
(-0.305279 0.00830003 0)
(-0.339536 0.00755986 0)
(-0.370773 0.00681878 0)
(-0.398989 0.00608063 0)
(-0.424195 0.00534909 0)
(-0.446425 0.00462764 0)
(-0.465717 0.00391952 0)
(-0.482126 0.00322773 0)
(-0.49572 0.00255502 0)
(-0.506576 0.00190383 0)
(-0.514781 0.00127634 0)
(-0.520431 0.000674437 0)
(-0.523628 9.969e-05 0)
(-0.524483 -0.000446602 0)
(-0.523109 -0.000963435 0)
(-0.519627 -0.00145009 0)
(-0.514155 -0.00190609 0)
(-0.506819 -0.00233122 0)
(-0.497742 -0.00272552 0)
(-0.487049 -0.00308918 0)
(-0.474863 -0.0034226 0)
(-0.461307 -0.00372634 0)
(-0.446502 -0.00400106 0)
(-0.430564 -0.00424753 0)
(-0.413611 -0.00446657 0)
(-0.395754 -0.00465902 0)
(-0.377104 -0.00482573 0)
(-0.357767 -0.0049675 0)
(-0.337849 -0.00508503 0)
(-0.317451 -0.00517894 0)
(-0.296673 -0.0052497 0)
(-0.275615 -0.0052976 0)
(-0.254376 -0.00532269 0)
(-0.233055 -0.00532476 0)
(-0.211755 -0.00530329 0)
(-0.190577 -0.00525731 0)
(-0.169633 -0.00518537 0)
(-0.149036 -0.00508534 0)
(-0.128912 -0.00495429 0)
(-0.1094 -0.00478804 0)
(-0.0906537 -0.00458092 0)
(-0.0728533 -0.00432504 0)
(-0.0562103 -0.00400947 0)
(-0.0409786 -0.00361902 0)
(-0.0274693 -0.00313295 0)
(-0.0160632 -0.0025252 0)
(-0.00721335 -0.00176959 0)
(-0.00140267 -0.000853808 0)
(0.00108534 0.00014792 0)
(0.000729292 0.000728317 0)
(-0.00034951 0.000676418 0)
(-0.00459358 0.00459751 0)
(-0.0132118 0.00873065 0)
(-0.0258815 0.0119763 0)
(-0.041553 0.0142907 0)
(-0.0593862 0.0158873 0)
(-0.07876 0.0169901 0)
(-0.0992389 0.0177684 0)
(-0.120523 0.0183307 0)
(-0.142399 0.018739 0)
(-0.1647 0.0190237 0)
(-0.187282 0.0191975 0)
(-0.210005 0.0192623 0)
(-0.232733 0.0192148 0)
(-0.255319 0.0190503 0)
(-0.277613 0.0187638 0)
(-0.299458 0.0183521 0)
(-0.320694 0.0178136 0)
(-0.341159 0.0171485 0)
(-0.360696 0.0163589 0)
(-0.379144 0.0154483 0)
(-0.396353 0.0144214 0)
(-0.412175 0.0132833 0)
(-0.426468 0.0120399 0)
(-0.439099 0.0106968 0)
(-0.449942 0.00925963 0)
(-0.458876 0.0077339 0)
(-0.465787 0.00612414 0)
(-0.470566 0.00443481 0)
(-0.473112 0.00266942 0)
(-0.473323 0.000831118 0)
(-0.471105 -0.00107768 0)
(-0.466364 -0.00305492 0)
(-0.459015 -0.00509915 0)
(-0.448964 -0.0072091 0)
(-0.436128 -0.00938393 0)
(-0.420424 -0.011623 0)
(-0.401763 -0.0139256 0)
(-0.380067 -0.0162912 0)
(-0.355254 -0.0187192 0)
(-0.327243 -0.0212088 0)
(-0.295953 -0.0237592 0)
(-0.261313 -0.0263691 0)
(-0.223243 -0.0290372 0)
(-0.181674 -0.0317616 0)
(-0.136537 -0.0345402 0)
(-0.0877642 -0.0373704 0)
(-0.0352916 -0.0402494 0)
(0.0209335 -0.0431735 0)
(0.0809659 -0.0461391 0)
(0.144844 -0.0491415 0)
(0.212622 -0.052176 0)
(0.284318 -0.0552371 0)
(0.359969 -0.0583188 0)
(0.439578 -0.0614145 0)
(0.523165 -0.0645172 0)
(0.610723 -0.0676191 0)
(0.702236 -0.0707121 0)
(0.797686 -0.0737872 0)
(0.897028 -0.076835 0)
(1.00022 -0.0798453 0)
(1.10718 -0.0828079 0)
(1.21786 -0.0857114 0)
(1.33214 -0.0885441 0)
(1.44994 -0.091294 0)
(1.57112 -0.0939483 0)
(1.69553 -0.0964938 0)
(1.82303 -0.0989172 0)
(1.95344 -0.101205 0)
(2.08656 -0.103342 0)
(2.22219 -0.105314 0)
(2.36011 -0.107108 0)
(2.50005 -0.108708 0)
(2.64175 -0.1101 0)
(2.78495 -0.111269 0)
(2.92932 -0.1122 0)
(3.07456 -0.112881 0)
(3.22032 -0.113297 0)
(3.36626 -0.113434 0)
(3.51201 -0.113281 0)
(3.65719 -0.112825 0)
(3.8014 -0.112054 0)
(3.94423 -0.11096 0)
(4.08526 -0.109531 0)
(4.22407 -0.107761 0)
(4.3602 -0.105641 0)
(4.49323 -0.103167 0)
(4.6227 -0.100334 0)
(4.74814 -0.0971385 0)
(4.86911 -0.0935799 0)
(4.98516 -0.0896584 0)
(5.09583 -0.0853762 0)
(5.20066 -0.0807371 0)
(5.29924 -0.0757468 0)
(5.39111 -0.070413 0)
(5.47588 -0.0647452 0)
(5.55312 -0.058755 0)
(5.62246 -0.0524558 0)
(5.68352 -0.0458631 0)
(5.73597 -0.0389943 0)
(5.77947 -0.0318687 0)
(5.81373 -0.0245076 0)
(5.83848 -0.0169338 0)
(5.85348 -0.00917243 0)
(5.85853 -0.0012498 0)
(5.85344 0.00680602 0)
(5.8381 0.0149655 0)
(5.81239 0.0231978 0)
(5.77627 0.0314708 0)
(5.72971 0.0397515 0)
(5.67272 0.048006 0)
(5.60538 0.0561995 0)
(5.5278 0.0642972 0)
(5.44013 0.0722634 0)
(5.34255 0.080063 0)
(5.2353 0.0876605 0)
(5.11867 0.0950212 0)
(4.99297 0.102111 0)
(4.85858 0.108896 0)
(4.71589 0.115345 0)
(4.56533 0.121426 0)
(4.40739 0.12711 0)
(4.24258 0.13237 0)
(4.07144 0.137181 0)
(3.89455 0.141518 0)
(3.71248 0.145363 0)
(3.52589 0.148696 0)
(3.33541 0.151502 0)
(3.14169 0.153769 0)
(2.94541 0.155488 0)
(2.74724 0.156652 0)
(2.54788 0.15726 0)
(2.34801 0.157311 0)
(2.14832 0.15681 0)
(1.94949 0.155763 0)
(1.75219 0.154182 0)
(1.55707 0.152079 0)
(1.36477 0.149471 0)
(1.1759 0.146379 0)
(0.991058 0.142824 0)
(0.810805 0.138832 0)
(0.635671 0.13443 0)
(0.46615 0.129648 0)
(0.302695 0.124517 0)
(0.145742 0.119071 0)
(-0.00433785 0.113343 0)
(-0.147211 0.107371 0)
(-0.282573 0.101189 0)
(-0.410185 0.0948339 0)
(-0.529837 0.0883433 0)
(-0.64137 0.0817535 0)
(-0.744661 0.0751004 0)
(-0.839643 0.0684193 0)
(-0.926294 0.061744 0)
(-1.00462 0.0551075 0)
(-1.07466 0.0485409 0)
(-1.13652 0.0420736 0)
(-1.19033 0.0357329 0)
(-1.23623 0.029544 0)
(-1.27441 0.0235299 0)
(-1.3051 0.0177111 0)
(-1.32853 0.0121057 0)
(-1.34496 0.00672931 0)
(-1.35469 0.0015951 0)
(-1.358 -0.00328615 0)
(-1.35521 -0.00790618 0)
(-1.34665 -0.0122589 0)
(-1.33263 -0.0163404 0)
(-1.31351 -0.0201487 0)
(-1.2896 -0.0236836 0)
(-1.26126 -0.0269465 0)
(-1.22882 -0.0299403 0)
(-1.19262 -0.0326687 0)
(-1.15298 -0.0351367 0)
(-1.11024 -0.0373492 0)
(-1.06472 -0.0393121 0)
(-1.01673 -0.0410308 0)
(-0.966582 -0.0425107 0)
(-0.914583 -0.0437564 0)
(-0.861032 -0.0447719 0)
(-0.80623 -0.04556 0)
(-0.750471 -0.046122 0)
(-0.694054 -0.0464574 0)
(-0.637275 -0.046564 0)
(-0.580436 -0.0464367 0)
(-0.523849 -0.0460674 0)
(-0.467835 -0.0454441 0)
(-0.412732 -0.0445504 0)
(-0.358898 -0.0433636 0)
(-0.306721 -0.0418528 0)
(-0.256626 -0.0399773 0)
(-0.209087 -0.0376825 0)
(-0.164641 -0.0348965 0)
(-0.123905 -0.0315258 0)
(-0.0875908 -0.0274531 0)
(-0.0565171 -0.02255 0)
(-0.0315832 -0.0167292 0)
(-0.0136667 -0.0100922 0)
(-0.0033514 -0.00334059 0)
(0.000149012 0.00108269 0)
(-0.000983887 0.00358076 0)
(-0.00872376 0.0132144 0)
(-0.0223763 0.0223793 0)
(-0.0413572 0.0296211 0)
(-0.0642684 0.0349198 0)
(-0.090097 0.0386877 0)
(-0.118078 0.0413676 0)
(-0.147649 0.0433037 0)
(-0.178404 0.0447232 0)
(-0.210036 0.045759 0)
(-0.242296 0.0464788 0)
(-0.274963 0.0469099 0)
(-0.307819 0.0470556 0)
(-0.340646 0.0469077 0)
(-0.373216 0.046453 0)
(-0.405291 0.0456792 0)
(-0.436621 0.0445767 0)
(-0.466953 0.0431404 0)
(-0.496033 0.0413704 0)
(-0.5236 0.0392702 0)
(-0.549404 0.0368476 0)
(-0.573196 0.0341133 0)
(-0.594737 0.0310804 0)
(-0.613796 0.0277623 0)
(-0.630155 0.0241729 0)
(-0.643594 0.0203268 0)
(-0.653928 0.0162369 0)
(-0.660953 0.0119162 0)
(-0.664487 0.00737527 0)
(-0.664364 0.00262367 0)
(-0.660409 -0.00233036 0)
(-0.652468 -0.00747889 0)
(-0.640375 -0.0128177 0)
(-0.623981 -0.018341 0)
(-0.603144 -0.0240456 0)
(-0.577716 -0.0299279 0)
(-0.547548 -0.0359858 0)
(-0.512511 -0.0422164 0)
(-0.472467 -0.0486174 0)
(-0.427275 -0.0551861 0)
(-0.376817 -0.0619201 0)
(-0.320956 -0.0688153 0)
(-0.259566 -0.0758683 0)
(-0.192538 -0.0830732 0)
(-0.119749 -0.090425 0)
(-0.0410961 -0.0979169 0)
(0.0435235 -0.105541 0)
(0.134198 -0.113288 0)
(0.231028 -0.121149 0)
(0.334074 -0.129111 0)
(0.44342 -0.137162 0)
(0.559099 -0.145287 0)
(0.681165 -0.153472 0)
(0.809639 -0.161698 0)
(0.944545 -0.169949 0)
(1.08588 -0.178203 0)
(1.23361 -0.186439 0)
(1.38771 -0.194635 0)
(1.54812 -0.202766 0)
(1.71476 -0.210806 0)
(1.88754 -0.218727 0)
(2.06634 -0.226501 0)
(2.251 -0.234098 0)
(2.44136 -0.241486 0)
(2.63723 -0.248633 0)
(2.83838 -0.255505 0)
(3.04458 -0.262066 0)
(3.25554 -0.268281 0)
(3.47096 -0.274113 0)
(3.69051 -0.279526 0)
(3.91384 -0.284482 0)
(4.14055 -0.288943 0)
(4.37023 -0.292871 0)
(4.60244 -0.296228 0)
(4.8367 -0.298978 0)
(5.07252 -0.301084 0)
(5.30935 -0.302509 0)
(5.54667 -0.30322 0)
(5.78388 -0.303184 0)
(6.02039 -0.302368 0)
(6.25559 -0.300744 0)
(6.48882 -0.298283 0)
(6.71943 -0.294962 0)
(6.94675 -0.290758 0)
(7.17009 -0.285651 0)
(7.38873 -0.279627 0)
(7.602 -0.272673 0)
(7.80916 -0.264779 0)
(8.00951 -0.255942 0)
(8.20233 -0.246161 0)
(8.38689 -0.235439 0)
(8.56253 -0.223786 0)
(8.72852 -0.211212 0)
(8.8842 -0.197737 0)
(9.02889 -0.183383 0)
(9.16197 -0.168176 0)
(9.28281 -0.152149 0)
(9.39081 -0.13534 0)
(9.48545 -0.11779 0)
(9.5662 -0.0995459 0)
(9.63255 -0.0806598 0)
(9.68409 -0.0611878 0)
(9.7204 -0.0411906 0)
(9.74115 -0.0207334 0)
(9.74605 0.000114775 0)
(9.73483 0.0212811 0)
(9.70734 0.0426894 0)
(9.66343 0.0642602 0)
(9.60303 0.0859109 0)
(9.52614 0.107557 0)
(9.43282 0.129113 0)
(9.32318 0.15049 0)
(9.19744 0.171598 0)
(9.05581 0.19235 0)
(8.89863 0.212654 0)
(8.72627 0.232423 0)
(8.53919 0.251569 0)
(8.33789 0.270005 0)
(8.12293 0.287649 0)
(7.89497 0.304419 0)
(7.65466 0.320239 0)
(7.40276 0.335035 0)
(7.14007 0.348737 0)
(6.86741 0.361285 0)
(6.58567 0.372618 0)
(6.29576 0.382687 0)
(5.99866 0.391445 0)
(5.69534 0.398854 0)
(5.38682 0.404883 0)
(5.07412 0.40951 0)
(4.7583 0.412719 0)
(4.44041 0.414502 0)
(4.1215 0.41486 0)
(3.80263 0.413803 0)
(3.48484 0.411347 0)
(3.16916 0.407519 0)
(2.85661 0.40235 0)
(2.54817 0.395883 0)
(2.2448 0.388164 0)
(1.94741 0.379251 0)
(1.65687 0.369204 0)
(1.37402 0.358091 0)
(1.09964 0.345987 0)
(0.834449 0.332968 0)
(0.579124 0.319119 0)
(0.334267 0.304524 0)
(0.100425 0.289273 0)
(-0.121923 0.273456 0)
(-0.33236 0.257165 0)
(-0.530533 0.240494 0)
(-0.716176 0.223535 0)
(-0.889058 0.206378 0)
(-1.04905 0.189114 0)
(-1.19606 0.171829 0)
(-1.33007 0.154608 0)
(-1.45114 0.137531 0)
(-1.55934 0.120674 0)
(-1.65487 0.104108 0)
(-1.7379 0.0878995 0)
(-1.80872 0.0721097 0)
(-1.86761 0.0567923 0)
(-1.91493 0.0419968 0)
(-1.95106 0.0277657 0)
(-1.9764 0.0141364 0)
(-1.99141 0.00113849 0)
(-1.99655 -0.0112031 0)
(-1.99229 -0.022869 0)
(-1.97915 -0.0338461 0)
(-1.95762 -0.0441249 0)
(-1.92823 -0.0537027 0)
(-1.8915 -0.0625786 0)
(-1.84796 -0.0707562 0)
(-1.79813 -0.0782423 0)
(-1.74254 -0.0850455 0)
(-1.6817 -0.0911755 0)
(-1.61613 -0.0966444 0)
(-1.54634 -0.101463 0)
(-1.47283 -0.105641 0)
(-1.3961 -0.10919 0)
(-1.31663 -0.112117 0)
(-1.23492 -0.114427 0)
(-1.15146 -0.116123 0)
(-1.06673 -0.117202 0)
(-0.981228 -0.117658 0)
(-0.89545 -0.11748 0)
(-0.809907 -0.116646 0)
(-0.725123 -0.115132 0)
(-0.641637 -0.112898 0)
(-0.560021 -0.109893 0)
(-0.480885 -0.106051 0)
(-0.404873 -0.101283 0)
(-0.332695 -0.0954748 0)
(-0.265128 -0.0884805 0)
(-0.203029 -0.0801174 0)
(-0.147353 -0.0701686 0)
(-0.0991527 -0.0584149 0)
(-0.0595273 -0.0447399 0)
(-0.0295405 -0.0294004 0)
(-0.01018 -0.0136834 0)
(-0.000862771 -0.0014272 0)
(-0.00144098 0.00838279 0)
(-0.0119841 0.0258934 0)
(-0.0296656 0.0413735 0)
(-0.0535972 0.0535248 0)
(-0.0820393 0.0625226 0)
(-0.113854 0.0690379 0)
(-0.1482 0.0737596 0)
(-0.184446 0.0772239 0)
(-0.222125 0.0797871 0)
(-0.260867 0.0816604 0)
(-0.300364 0.082952 0)
(-0.340328 0.0837039 0)
(-0.380479 0.0839182 0)
(-0.420527 0.0835777 0)
(-0.460169 0.0826581 0)
(-0.499087 0.0811334 0)
(-0.536953 0.0789866 0)
(-0.573426 0.0762047 0)
(-0.608162 0.0727866 0)
(-0.640815 0.0687371 0)
(-0.67104 0.0640685 0)
(-0.698504 0.0588003 0)
(-0.722877 0.0529528 0)
(-0.743841 0.0465507 0)
(-0.761093 0.0396198 0)
(-0.774339 0.0321856 0)
(-0.783299 0.0242727 0)
(-0.787698 0.0159035 0)
(-0.787293 0.00709837 0)
(-0.781823 -0.00212358 0)
(-0.771057 -0.0117457 0)
(-0.754764 -0.0217556 0)
(-0.732731 -0.0321411 0)
(-0.704735 -0.0428918 0)
(-0.670566 -0.0540005 0)
(-0.630025 -0.0654601 0)
(-0.582906 -0.0772627 0)
(-0.529024 -0.0894034 0)
(-0.468193 -0.101876 0)
(-0.400208 -0.114674 0)
(-0.324905 -0.12779 0)
(-0.242113 -0.141215 0)
(-0.151656 -0.154942 0)
(-0.0533863 -0.168957 0)
(0.0528674 -0.183249 0)
(0.167231 -0.197803 0)
(0.289839 -0.212602 0)
(0.420816 -0.227628 0)
(0.560265 -0.242858 0)
(0.708287 -0.258269 0)
(0.864947 -0.273835 0)
(1.03032 -0.289526 0)
(1.20443 -0.305312 0)
(1.38732 -0.321157 0)
(1.57898 -0.337024 0)
(1.77939 -0.352875 0)
(1.9885 -0.368666 0)
(2.20625 -0.384349 0)
(2.43252 -0.399881 0)
(2.66719 -0.415205 0)
(2.91012 -0.430272 0)
(3.16109 -0.445024 0)
(3.4199 -0.459401 0)
(3.68628 -0.473343 0)
(3.95996 -0.486788 0)
(4.24059 -0.499668 0)
(4.52781 -0.511919 0)
(4.82124 -0.523471 0)
(5.12043 -0.534254 0)
(5.42489 -0.544198 0)
(5.73414 -0.553233 0)
(6.04759 -0.561287 0)
(6.36468 -0.56829 0)
(6.68478 -0.57417 0)
(7.00722 -0.57886 0)
(7.3313 -0.582291 0)
(7.65631 -0.584397 0)
(7.98148 -0.585117 0)
(8.306 -0.58439 0)
(8.62906 -0.582158 0)
(8.94981 -0.57837 0)
(9.26739 -0.572977 0)
(9.5809 -0.565937 0)
(9.88943 -0.55721 0)
(10.192 -0.546765 0)
(10.4878 -0.534577 0)
(10.7758 -0.520627 0)
(11.0551 -0.504902 0)
(11.3246 -0.487398 0)
(11.5836 -0.46812 0)
(11.831 -0.447077 0)
(12.0659 -0.424292 0)
(12.2874 -0.399791 0)
(12.4947 -0.373614 0)
(12.6868 -0.345805 0)
(12.863 -0.31642 0)
(13.0225 -0.285524 0)
(13.1644 -0.253189 0)
(13.2882 -0.219499 0)
(13.3932 -0.184543 0)
(13.4786 -0.148421 0)
(13.5441 -0.111241 0)
(13.5891 -0.0731178 0)
(13.6132 -0.0341749 0)
(13.616 0.0054571 0)
(13.5973 0.0456426 0)
(13.5568 0.0862381 0)
(13.4944 0.127096 0)
(13.4101 0.168063 0)
(13.3038 0.208983 0)
(13.1757 0.249696 0)
(13.026 0.290039 0)
(12.8549 0.329851 0)
(12.6628 0.368964 0)
(12.4501 0.407217 0)
(12.2173 0.444447 0)
(11.965 0.480493 0)
(11.694 0.515199 0)
(11.4049 0.548414 0)
(11.0986 0.579989 0)
(10.776 0.609786 0)
(10.438 0.637669 0)
(10.0857 0.663515 0)
(9.72019 0.68721 0)
(9.34259 0.708648 0)
(8.9541 0.727735 0)
(8.55595 0.744388 0)
(8.14942 0.758539 0)
(7.73583 0.770131 0)
(7.3165 0.77912 0)
(6.89279 0.785479 0)
(6.46605 0.789193 0)
(6.03766 0.790262 0)
(5.60897 0.788702 0)
(5.18135 0.784543 0)
(4.75613 0.777828 0)
(4.33462 0.768617 0)
(3.91812 0.756984 0)
(3.50786 0.743012 0)
(3.10504 0.726803 0)
(2.71082 0.708465 0)
(2.32629 0.688122 0)
(1.95249 0.665906 0)
(1.59037 0.641958 0)
(1.24085 0.616426 0)
(0.90473 0.589468 0)
(0.58276 0.561244 0)
(0.275612 0.531919 0)
(-0.0161624 0.501662 0)
(-0.292041 0.470642 0)
(-0.551635 0.439029 0)
(-0.794613 0.406991 0)
(-1.02074 0.374692 0)
(-1.22986 0.342295 0)
(-1.4219 0.309956 0)
(-1.59688 0.277824 0)
(-1.75487 0.246043 0)
(-1.89603 0.214747 0)
(-2.02061 0.184061 0)
(-2.12887 0.154102 0)
(-2.22119 0.124974 0)
(-2.29797 0.0967732 0)
(-2.35968 0.0695827 0)
(-2.40681 0.0434754 0)
(-2.43992 0.0185144 0)
(-2.45957 -0.00525037 0)
(-2.4664 -0.0277771 0)
(-2.46103 -0.049035 0)
(-2.44411 -0.0690016 0)
(-2.41632 -0.0876638 0)
(-2.37833 -0.105016 0)
(-2.33083 -0.121058 0)
(-2.27452 -0.135797 0)
(-2.21009 -0.149243 0)
(-2.13821 -0.161409 0)
(-2.0596 -0.172312 0)
(-1.97493 -0.181968 0)
(-1.88489 -0.190392 0)
(-1.79015 -0.197599 0)
(-1.69138 -0.2036 0)
(-1.58927 -0.208403 0)
(-1.48448 -0.21201 0)
(-1.37768 -0.214416 0)
(-1.26954 -0.21561 0)
(-1.16077 -0.215571 0)
(-1.05204 -0.214267 0)
(-0.944069 -0.211653 0)
(-0.837586 -0.207666 0)
(-0.733349 -0.202225 0)
(-0.632148 -0.195223 0)
(-0.534816 -0.18652 0)
(-0.442239 -0.175943 0)
(-0.355368 -0.163271 0)
(-0.275224 -0.148235 0)
(-0.202918 -0.130529 0)
(-0.139644 -0.10985 0)
(-0.0866521 -0.086048 0)
(-0.0452285 -0.0594747 0)
(-0.0169806 -0.0317517 0)
(-0.00180247 -0.00731909 0)
(-0.00175043 0.0145606 0)
(-0.0143464 0.0416165 0)
(-0.0350957 0.0643654 0)
(-0.0628397 0.0820154 0)
(-0.0955204 0.0951295 0)
(-0.131874 0.104719 0)
(-0.170992 0.111749 0)
(-0.212196 0.116956 0)
(-0.254973 0.120828 0)
(-0.298909 0.123653 0)
(-0.343649 0.125573 0)
(-0.388851 0.126644 0)
(-0.434179 0.126862 0)
(-0.479281 0.126198 0)
(-0.523788 0.124608 0)
(-0.567312 0.122052 0)
(-0.609445 0.118499 0)
(-0.649775 0.113928 0)
(-0.687871 0.108332 0)
(-0.723308 0.101719 0)
(-0.755656 0.0941029 0)
(-0.784495 0.0855109 0)
(-0.809409 0.0759745 0)
(-0.830005 0.0655307 0)
(-0.845896 0.054217 0)
(-0.8567 0.0420741 0)
(-0.86206 0.029138 0)
(-0.861633 0.0154456 0)
(-0.855076 0.00102869 0)
(-0.8421 -0.0140826 0)
(-0.822364 -0.0298629 0)
(-0.795593 -0.0462876 0)
(-0.761487 -0.0633393 0)
(-0.719766 -0.0809997 0)
(-0.670166 -0.099254 0)
(-0.612433 -0.118089 0)
(-0.546293 -0.137492 0)
(-0.471509 -0.157453 0)
(-0.387833 -0.177958 0)
(-0.295031 -0.198994 0)
(-0.192888 -0.220548 0)
(-0.081168 -0.242604 0)
(0.0403246 -0.265144 0)
(0.171788 -0.288147 0)
(0.313415 -0.31159 0)
(0.465369 -0.335447 0)
(0.627803 -0.359688 0)
(0.800869 -0.384278 0)
(0.984689 -0.409181 0)
(1.17936 -0.434355 0)
(1.38497 -0.459755 0)
(1.60157 -0.485332 0)
(1.8292 -0.51103 0)
(2.06787 -0.536792 0)
(2.31756 -0.562553 0)
(2.5782 -0.588249 0)
(2.84973 -0.613806 0)
(3.13203 -0.639148 0)
(3.42493 -0.664195 0)
(3.72826 -0.688863 0)
(4.04178 -0.713061 0)
(4.36524 -0.736698 0)
(4.6983 -0.759678 0)
(5.04062 -0.781898 0)
(5.39181 -0.803259 0)
(5.75143 -0.823652 0)
(6.11898 -0.84297 0)
(6.49393 -0.861103 0)
(6.87571 -0.877938 0)
(7.26368 -0.893363 0)
(7.65717 -0.907265 0)
(8.05549 -0.919532 0)
(8.45784 -0.930051 0)
(8.86343 -0.938712 0)
(9.27141 -0.945407 0)
(9.68089 -0.950029 0)
(10.0909 -0.952479 0)
(10.5006 -0.952658 0)
(10.9088 -0.950476 0)
(11.3146 -0.945846 0)
(11.7169 -0.93869 0)
(12.1146 -0.928935 0)
(12.5066 -0.91652 0)
(12.8918 -0.901389 0)
(13.269 -0.883498 0)
(13.637 -0.862812 0)
(13.9949 -0.839309 0)
(14.3412 -0.812976 0)
(14.675 -0.783814 0)
(14.995 -0.751835 0)
(15.3002 -0.717066 0)
(15.5894 -0.679544 0)
(15.8616 -0.639323 0)
(16.1157 -0.596467 0)
(16.3506 -0.551058 0)
(16.5655 -0.503188 0)
(16.7593 -0.452967 0)
(16.9313 -0.400513 0)
(17.0805 -0.345963 0)
(17.2062 -0.289465 0)
(17.3078 -0.231179 0)
(17.3847 -0.17128 0)
(17.4361 -0.109951 0)
(17.4618 -0.0473892 0)
(17.4612 0.0161984 0)
(17.4341 0.0805959 0)
(17.3803 0.145578 0)
(17.2997 0.210912 0)
(17.1922 0.276359 0)
(17.0578 0.341673 0)
(16.8969 0.406606 0)
(16.7095 0.470905 0)
(16.496 0.534316 0)
(16.257 0.596584 0)
(15.9928 0.657456 0)
(15.7043 0.716683 0)
(15.3921 0.774014 0)
(15.0569 0.829212 0)
(14.6999 0.882042 0)
(14.3218 0.932277 0)
(13.9239 0.979701 0)
(13.5073 1.02411 0)
(13.0732 1.06531 0)
(12.6229 1.10313 0)
(12.1578 1.13741 0)
(11.6793 1.168 0)
(11.1888 1.19477 0)
(10.688 1.21762 0)
(10.1782 1.23645 0)
(9.66123 1.25122 0)
(9.13854 1.26185 0)
(8.61181 1.26835 0)
(8.08264 1.27069 0)
(7.55267 1.26891 0)
(7.0235 1.26304 0)
(6.49675 1.25316 0)
(5.97397 1.23935 0)
(5.45671 1.22172 0)
(4.94647 1.20039 0)
(4.44468 1.17553 0)
(3.95274 1.14729 0)
(3.472 1.11586 0)
(3.00369 1.08144 0)
(2.54902 1.04425 0)
(2.10907 1.00452 0)
(1.68488 0.962473 0)
(1.27737 0.918369 0)
(0.887382 0.872459 0)
(0.51564 0.825003 0)
(0.162814 0.776263 0)
(-0.170574 0.726501 0)
(-0.484073 0.675977 0)
(-0.77733 0.624952 0)
(-1.05012 0.573676 0)
(-1.30229 0.522397 0)
(-1.53378 0.471349 0)
(-1.74464 0.42076 0)
(-1.935 0.370843 0)
(-2.10507 0.3218 0)
(-2.25515 0.273816 0)
(-2.38562 0.227063 0)
(-2.4969 0.181697 0)
(-2.58951 0.137855 0)
(-2.66402 0.09566 0)
(-2.72103 0.0552182 0)
(-2.76123 0.0166174 0)
(-2.7853 -0.0200688 0)
(-2.79399 -0.0547818 0)
(-2.78807 -0.0874793 0)
(-2.76832 -0.11813 0)
(-2.73557 -0.146715 0)
(-2.69063 -0.173226 0)
(-2.63434 -0.197666 0)
(-2.56754 -0.22004 0)
(-2.49108 -0.240365 0)
(-2.40581 -0.258655 0)
(-2.31256 -0.27493 0)
(-2.21221 -0.289209 0)
(-2.10558 -0.301508 0)
(-1.99353 -0.311841 0)
(-1.87688 -0.320218 0)
(-1.75651 -0.326637 0)
(-1.63324 -0.331093 0)
(-1.50793 -0.333569 0)
(-1.38144 -0.334033 0)
(-1.25462 -0.332444 0)
(-1.12837 -0.328738 0)
(-1.00358 -0.322832 0)
(-0.88117 -0.314615 0)
(-0.762085 -0.303946 0)
(-0.647312 -0.290642 0)
(-0.537877 -0.274474 0)
(-0.434861 -0.255158 0)
(-0.339412 -0.232351 0)
(-0.252758 -0.205658 0)
(-0.17623 -0.174681 0)
(-0.111247 -0.13918 0)
(-0.0594053 -0.0994365 0)
(-0.0230387 -0.0570478 0)
(-0.00259387 -0.0163529 0)
(-0.00195922 0.0216974 0)
(-0.0160373 0.0595919 0)
(-0.0391076 0.0904127 0)
(-0.0698018 0.114047 0)
(-0.105789 0.131587 0)
(-0.145674 0.144466 0)
(-0.188475 0.153964 0)
(-0.233462 0.161031 0)
(-0.280081 0.166289 0)
(-0.327879 0.170097 0)
(-0.376457 0.172635 0)
(-0.42543 0.173962 0)
(-0.474408 0.174065 0)
(-0.522985 0.172896 0)
(-0.570728 0.170391 0)
(-0.617189 0.166489 0)
(-0.661891 0.161141 0)
(-0.704347 0.154316 0)
(-0.744057 0.146 0)
(-0.780504 0.136197 0)
(-0.813195 0.124927 0)
(-0.84162 0.112223 0)
(-0.865294 0.0981283 0)
(-0.883735 0.0826901 0)
(-0.896463 0.0659636 0)
(-0.903043 0.0479992 0)
(-0.903022 0.0288525 0)
(-0.895993 0.00857244 0)
(-0.88154 -0.0127937 0)
(-0.859273 -0.0352039 0)
(-0.828821 -0.058619 0)
(-0.789805 -0.0830058 0)
(-0.741879 -0.108335 0)
(-0.684703 -0.134578 0)
(-0.617937 -0.161713 0)
(-0.54126 -0.189717 0)
(-0.454366 -0.21857 0)
(-0.35694 -0.248251 0)
(-0.248701 -0.27874 0)
(-0.129364 -0.310015 0)
(0.00135141 -0.342051 0)
(0.143701 -0.374822 0)
(0.297911 -0.408297 0)
(0.464251 -0.442444 0)
(0.6429 -0.477224 0)
(0.834075 -0.512593 0)
(1.03795 -0.548505 0)
(1.25467 -0.584906 0)
(1.48438 -0.621737 0)
(1.72718 -0.658934 0)
(1.98316 -0.696426 0)
(2.25235 -0.734133 0)
(2.53479 -0.771976 0)
(2.83044 -0.809863 0)
(3.13927 -0.847699 0)
(3.46119 -0.885382 0)
(3.79606 -0.922802 0)
(4.14372 -0.959846 0)
(4.50394 -0.996391 0)
(4.87646 -1.03231 0)
(5.26098 -1.06747 0)
(5.65713 -1.10174 0)
(6.06454 -1.13496 0)
(6.4827 -1.167 0)
(6.91115 -1.1977 0)
(7.34927 -1.22691 0)
(7.79648 -1.25446 0)
(8.25209 -1.2802 0)
(8.71537 -1.30396 0)
(9.18557 -1.32559 0)
(9.66181 -1.34492 0)
(10.1432 -1.36178 0)
(10.6289 -1.37602 0)
(11.1177 -1.38748 0)
(11.6088 -1.39601 0)
(12.101 -1.40146 0)
(12.5933 -1.40369 0)
(13.0844 -1.40257 0)
(13.573 -1.39795 0)
(14.0581 -1.38974 0)
(14.5383 -1.37783 0)
(15.0123 -1.36211 0)
(15.4789 -1.34251 0)
(15.9367 -1.31895 0)
(16.3843 -1.29139 0)
(16.8204 -1.25978 0)
(17.2437 -1.2241 0)
(17.6527 -1.18434 0)
(18.0463 -1.14051 0)
(18.4231 -1.09264 0)
(18.7817 -1.04078 0)
(19.1209 -0.984985 0)
(19.4396 -0.925352 0)
(19.7364 -0.86198 0)
(20.0102 -0.794992 0)
(20.2601 -0.724532 0)
(20.4848 -0.650761 0)
(20.6835 -0.573861 0)
(20.8553 -0.49403 0)
(20.9992 -0.411487 0)
(21.1146 -0.326466 0)
(21.2007 -0.239221 0)
(21.2571 -0.150017 0)
(21.2831 -0.059139 0)
(21.2785 0.0331181 0)
(21.2428 0.126444 0)
(21.1759 0.220519 0)
(21.0777 0.315012 0)
(20.9482 0.409583 0)
(20.7875 0.503889 0)
(20.5958 0.597575 0)
(20.3734 0.690287 0)
(20.1208 0.781669 0)
(19.8384 0.871366 0)
(19.527 0.959021 0)
(19.1873 1.04429 0)
(18.8201 1.12681 0)
(18.4264 1.20627 0)
(18.0072 1.28233 0)
(17.5638 1.35467 0)
(17.0972 1.42301 0)
(16.6089 1.48705 0)
(16.1002 1.54652 0)
(15.5726 1.60119 0)
(15.0277 1.65082 0)
(14.467 1.69522 0)
(13.8923 1.7342 0)
(13.3052 1.76762 0)
(12.7074 1.79536 0)
(12.1009 1.81732 0)
(11.4873 1.83343 0)
(10.8685 1.84366 0)
(10.2464 1.848 0)
(9.62286 1.84649 0)
(8.9996 1.83916 0)
(8.37848 1.82613 0)
(7.76131 1.80749 0)
(7.14983 1.7834 0)
(6.54576 1.75404 0)
(5.95076 1.7196 0)
(5.36644 1.68032 0)
(4.79432 1.63645 0)
(4.23589 1.58826 0)
(3.69252 1.53605 0)
(3.1655 1.48014 0)
(2.65605 1.42086 0)
(2.16528 1.35854 0)
(1.69418 1.29354 0)
(1.24366 1.22623 0)
(0.814522 1.15697 0)
(0.407444 1.08612 0)
(0.0230072 1.01406 0)
(-0.338337 0.941152 0)
(-0.676232 0.867747 0)
(-0.990443 0.7942 0)
(-1.28084 0.720845 0)
(-1.54738 0.648009 0)
(-1.79016 0.575998 0)
(-2.00935 0.505104 0)
(-2.20522 0.435597 0)
(-2.37813 0.36773 0)
(-2.52852 0.301731 0)
(-2.65691 0.237807 0)
(-2.7639 0.176144 0)
(-2.85014 0.116901 0)
(-2.91635 0.0602163 0)
(-2.9633 0.00620854 0)
(-2.99181 -0.0450287 0)
(-3.00272 -0.0934195 0)
(-2.99694 -0.138908 0)
(-2.97536 -0.181455 0)
(-2.93894 -0.221036 0)
(-2.88864 -0.257639 0)
(-2.82543 -0.291265 0)
(-2.75028 -0.32192 0)
(-2.66418 -0.34962 0)
(-2.56814 -0.374378 0)
(-2.46315 -0.396216 0)
(-2.35021 -0.415149 0)
(-2.23034 -0.431192 0)
(-2.10451 -0.444351 0)
(-1.97376 -0.454625 0)
(-1.83908 -0.462005 0)
(-1.70149 -0.466469 0)
(-1.562 -0.46798 0)
(-1.42165 -0.466484 0)
(-1.28145 -0.461902 0)
(-1.14247 -0.454141 0)
(-1.00577 -0.443064 0)
(-0.872416 -0.4285 0)
(-0.743535 -0.410234 0)
(-0.62027 -0.387993 0)
(-0.50381 -0.361434 0)
(-0.395415 -0.330143 0)
(-0.296434 -0.293627 0)
(-0.208346 -0.251355 0)
(-0.132789 -0.202894 0)
(-0.071722 -0.148277 0)
(-0.028216 -0.0887468 0)
(-0.00324436 -0.0280767 0)
(-0.00210631 0.0295153 0)
(-0.0172895 0.0792578 0)
(-0.0421627 0.118837 0)
(-0.0752026 0.148885 0)
(-0.11385 0.171112 0)
(-0.15658 0.187441 0)
(-0.202326 0.199501 0)
(-0.250302 0.208475 0)
(-0.299907 0.215124 0)
(-0.350647 0.219883 0)
(-0.402079 0.22296 0)
(-0.453776 0.224419 0)
(-0.5053 0.224231 0)
(-0.556192 0.222326 0)
(-0.605969 0.218615 0)
(-0.654111 0.21301 0)
(-0.700087 0.205445 0)
(-0.743339 0.195871 0)
(-0.783294 0.184266 0)
(-0.81938 0.170629 0)
(-0.851003 0.154984 0)
(-0.877596 0.137368 0)
(-0.898594 0.117835 0)
(-0.91342 0.0964464 0)
(-0.921548 0.0732676 0)
(-0.922436 0.0483707 0)
(-0.915568 0.0218218 0)
(-0.900463 -0.00631156 0)
(-0.876632 -0.0359672 0)
(-0.843604 -0.0670862 0)
(-0.800938 -0.0996185 0)
(-0.748197 -0.133516 0)
(-0.684962 -0.168735 0)
(-0.610816 -0.20524 0)
(-0.525373 -0.242993 0)
(-0.428253 -0.281963 0)
(-0.319087 -0.322117 0)
(-0.197504 -0.363424 0)
(-0.0631804 -0.405851 0)
(0.0842337 -0.449364 0)
(0.245035 -0.493925 0)
(0.419536 -0.539492 0)
(0.608006 -0.586018 0)
(0.810718 -0.633453 0)
(1.0279 -0.681741 0)
(1.25977 -0.730815 0)
(1.50654 -0.780606 0)
(1.76835 -0.831031 0)
(2.04536 -0.88201 0)
(2.33766 -0.933444 0)
(2.64532 -0.985232 0)
(2.96836 -1.03726 0)
(3.3068 -1.08942 0)
(3.66059 -1.14157 0)
(4.02962 -1.19357 0)
(4.41376 -1.24529 0)
(4.81285 -1.29657 0)
(5.22662 -1.34725 0)
(5.6548 -1.39715 0)
(6.09702 -1.4461 0)
(6.55295 -1.49391 0)
(7.02205 -1.5404 0)
(7.50389 -1.58536 0)
(7.99786 -1.62859 0)
(8.5033 -1.66988 0)
(9.01955 -1.70901 0)
(9.5458 -1.74578 0)
(10.0813 -1.77996 0)
(10.6251 -1.81133 0)
(11.1763 -1.83967 0)
(11.734 -1.86477 0)
(12.2969 -1.8864 0)
(12.8641 -1.90436 0)
(13.4343 -1.91843 0)
(14.0063 -1.92842 0)
(14.5789 -1.93413 0)
(15.1508 -1.93538 0)
(15.7205 -1.93198 0)
(16.2867 -1.92379 0)
(16.848 -1.91065 0)
(17.4029 -1.89242 0)
(17.9499 -1.869 0)