/*--------------------------------*- C++ -*----------------------------------*\
  =========                 |
  \\      /  F ield         | OpenFOAM: The Open Source CFD Toolbox
   \\    /   O peration     | Website:  https://openfoam.org
    \\  /    A nd           | Version:  6
     \\/     M anipulation  |
\*---------------------------------------------------------------------------*/
FoamFile
{
    version     2.0;
    format      ascii;
    class       volScalarField;
    location    "0";
    object      p;
}
// * * * * * * * * * * * * * * * * * * * * * * * * * * * * * * * * * * * * * //

dimensions      [0 2 -2 0 0 0 0];

internalField   nonuniform List<scalar> 
145945
(
3.76964e-06
3.76842e-06
3.76738e-06
3.76634e-06
3.76553e-06
3.76488e-06
3.76443e-06
3.76414e-06
3.76402e-06
3.76407e-06
3.7643e-06
3.76469e-06
3.76527e-06
3.76601e-06
3.76701e-06
3.76809e-06
3.7694e-06
3.76842e-06
3.76742e-06
3.76642e-06
3.76543e-06
3.76462e-06
3.76399e-06
3.76354e-06
3.76325e-06
3.76313e-06
3.76319e-06
3.76341e-06
3.76379e-06
3.76436e-06
3.76509e-06
3.76605e-06
3.7671e-06
3.76817e-06
3.76738e-06
3.76642e-06
3.76541e-06
3.76446e-06
3.76367e-06
3.76306e-06
3.76262e-06
3.76235e-06
3.76223e-06
3.76228e-06
3.76249e-06
3.76287e-06
3.76341e-06
3.76413e-06
3.76504e-06
3.76611e-06
3.76713e-06
3.76634e-06
3.76543e-06
3.76446e-06
3.76354e-06
3.76277e-06
3.76218e-06
3.76175e-06
3.76149e-06
3.76137e-06
3.76142e-06
3.76163e-06
3.76199e-06
3.76252e-06
3.76322e-06
3.76409e-06
3.76512e-06
3.7661e-06
3.76553e-06
3.76462e-06
3.76367e-06
3.76277e-06
3.76203e-06
3.76145e-06
3.76103e-06
3.76077e-06
3.76066e-06
3.7607e-06
3.76091e-06
3.76126e-06
3.76177e-06
3.76245e-06
3.76331e-06
3.76432e-06
3.76528e-06
3.76488e-06
3.76399e-06
3.76306e-06
3.76218e-06
3.76145e-06
3.76088e-06
3.76047e-06
3.76022e-06
3.76011e-06
3.76015e-06
3.76035e-06
3.76069e-06
3.76119e-06
3.76186e-06
3.7627e-06
3.76369e-06
3.76464e-06
3.76443e-06
3.76354e-06
3.76262e-06
3.76175e-06
3.76103e-06
3.76047e-06
3.76007e-06
3.75982e-06
3.75971e-06
3.75976e-06
3.75995e-06
3.76029e-06
3.76078e-06
3.76144e-06
3.76226e-06
3.76324e-06
3.76418e-06
3.76414e-06
3.76325e-06
3.76235e-06
3.76149e-06
3.76077e-06
3.76022e-06
3.75982e-06
3.75957e-06
3.75946e-06
3.75951e-06
3.7597e-06
3.76003e-06
3.76052e-06
3.76117e-06
3.76199e-06
3.76295e-06
3.76389e-06
3.76402e-06
3.76314e-06
3.76223e-06
3.76137e-06
3.76066e-06
3.76011e-06
3.75971e-06
3.75946e-06
3.75936e-06
3.7594e-06
3.75959e-06
3.75993e-06
3.76041e-06
3.76106e-06
3.76187e-06
3.76283e-06
3.76377e-06
3.76407e-06
3.76319e-06
3.76228e-06
3.76142e-06
3.7607e-06
3.76015e-06
3.75976e-06
3.75951e-06
3.7594e-06
3.75944e-06
3.75963e-06
3.75997e-06
3.76046e-06
3.76111e-06
3.76192e-06
3.76288e-06
3.76382e-06
3.7643e-06
3.76341e-06
3.76249e-06
3.76163e-06
3.76091e-06
3.76035e-06
3.75995e-06
3.7597e-06
3.75959e-06
3.75963e-06
3.75982e-06
3.76016e-06
3.76065e-06
3.76131e-06
3.76213e-06
3.7631e-06
3.76405e-06
3.76469e-06
3.76379e-06
3.76287e-06
3.76199e-06
3.76126e-06
3.76069e-06
3.76029e-06
3.76003e-06
3.75993e-06
3.75997e-06
3.76016e-06
3.76051e-06
3.76101e-06
3.76167e-06
3.76251e-06
3.76349e-06
3.76444e-06
3.76526e-06
3.76436e-06
3.76341e-06
3.76252e-06
3.76177e-06
3.76119e-06
3.76078e-06
3.76052e-06
3.76041e-06
3.76046e-06
3.76065e-06
3.76101e-06
3.76152e-06
3.7622e-06
3.76305e-06
3.76405e-06
3.76502e-06
3.76601e-06
3.76509e-06
3.76413e-06
3.76322e-06
3.76245e-06
3.76186e-06
3.76144e-06
3.76117e-06
3.76106e-06
3.76111e-06
3.76131e-06
3.76167e-06
3.7622e-06
3.76289e-06
3.76377e-06
3.76479e-06
3.76576e-06
3.767e-06
3.76604e-06
3.76504e-06
3.76409e-06
3.76331e-06
3.7627e-06
3.76226e-06
3.76199e-06
3.76187e-06
3.76192e-06
3.76213e-06
3.76251e-06
3.76305e-06
3.76377e-06
3.76467e-06
3.76573e-06
3.76676e-06
3.76809e-06
3.7671e-06
3.7661e-06
3.76512e-06
3.76432e-06
3.76368e-06
3.76323e-06
3.76295e-06
3.76283e-06
3.76288e-06
3.7631e-06
3.76349e-06
3.76405e-06
3.76479e-06
3.76573e-06
3.76679e-06
3.76784e-06
3.7694e-06
3.76817e-06
3.76713e-06
3.7661e-06
3.76528e-06
3.76464e-06
3.76418e-06
3.76389e-06
3.76377e-06
3.76383e-06
3.76405e-06
3.76444e-06
3.76502e-06
3.76576e-06
3.76676e-06
3.76784e-06
3.76915e-06
3.72208e-06
3.72123e-06
3.72044e-06
3.71965e-06
3.71901e-06
3.7185e-06
3.71815e-06
3.71792e-06
3.71782e-06
3.71786e-06
3.71803e-06
3.71833e-06
3.71876e-06
3.71933e-06
3.72007e-06
3.72089e-06
3.72179e-06
3.72123e-06
3.72054e-06
3.7198e-06
3.71904e-06
3.71841e-06
3.71793e-06
3.71758e-06
3.71735e-06
3.71726e-06
3.71729e-06
3.71746e-06
3.71775e-06
3.71817e-06
3.71872e-06
3.71942e-06
3.7202e-06
3.72095e-06
3.72044e-06
3.7198e-06
3.71907e-06
3.71835e-06
3.71774e-06
3.71728e-06
3.71694e-06
3.71672e-06
3.71663e-06
3.71666e-06
3.71682e-06
3.7171e-06
3.7175e-06
3.71803e-06
3.7187e-06
3.71946e-06
3.72016e-06
3.71965e-06
3.71904e-06
3.71835e-06
3.71766e-06
3.71707e-06
3.71662e-06
3.71629e-06
3.71608e-06
3.71599e-06
3.71602e-06
3.71617e-06
3.71644e-06
3.71683e-06
3.71734e-06
3.71798e-06
3.71871e-06
3.71936e-06
3.71901e-06
3.71841e-06
3.71775e-06
3.71707e-06
3.7165e-06
3.71606e-06
3.71575e-06
3.71554e-06
3.71546e-06
3.71548e-06
3.71563e-06
3.71589e-06
3.71626e-06
3.71676e-06
3.71738e-06
3.71809e-06
3.71872e-06
3.71851e-06
3.71793e-06
3.71728e-06
3.71662e-06
3.71607e-06
3.71564e-06
3.71532e-06
3.71513e-06
3.71504e-06
3.71507e-06
3.71521e-06
3.71546e-06
3.71583e-06
3.71631e-06
3.71691e-06
3.7176e-06
3.71822e-06
3.71815e-06
3.71758e-06
3.71694e-06
3.71629e-06
3.71575e-06
3.71532e-06
3.71502e-06
3.71482e-06
3.71474e-06
3.71476e-06
3.7149e-06
3.71515e-06
3.71551e-06
3.71598e-06
3.71658e-06
3.71725e-06
3.71786e-06
3.71792e-06
3.71735e-06
3.71672e-06
3.71608e-06
3.71554e-06
3.71513e-06
3.71482e-06
3.71463e-06
3.71454e-06
3.71457e-06
3.71471e-06
3.71495e-06
3.71531e-06
3.71578e-06
3.71636e-06
3.71703e-06
3.71763e-06
3.71782e-06
3.71726e-06
3.71663e-06
3.71599e-06
3.71546e-06
3.71504e-06
3.71474e-06
3.71454e-06
3.71446e-06
3.71448e-06
3.71462e-06
3.71487e-06
3.71522e-06
3.71569e-06
3.71627e-06
3.71693e-06
3.71753e-06
3.71786e-06
3.71729e-06
3.71666e-06
3.71602e-06
3.71548e-06
3.71507e-06
3.71476e-06
3.71457e-06
3.71448e-06
3.71451e-06
3.71465e-06
3.71489e-06
3.71525e-06
3.71572e-06
3.7163e-06
3.71697e-06
3.71757e-06
3.71803e-06
3.71746e-06
3.71682e-06
3.71618e-06
3.71563e-06
3.71521e-06
3.7149e-06
3.71471e-06
3.71462e-06
3.71465e-06
3.71479e-06
3.71503e-06
3.71539e-06
3.71587e-06
3.71646e-06
3.71713e-06
3.71774e-06
3.71833e-06
3.71775e-06
3.7171e-06
3.71644e-06
3.71589e-06
3.71546e-06
3.71515e-06
3.71495e-06
3.71487e-06
3.71489e-06
3.71503e-06
3.71529e-06
3.71565e-06
3.71613e-06
3.71673e-06
3.71742e-06
3.71804e-06
3.71876e-06
3.71817e-06
3.7175e-06
3.71683e-06
3.71626e-06
3.71583e-06
3.71551e-06
3.71531e-06
3.71522e-06
3.71525e-06
3.71539e-06
3.71565e-06
3.71602e-06
3.71652e-06
3.71713e-06
3.71784e-06
3.71847e-06
3.71933e-06
3.71872e-06
3.71803e-06
3.71734e-06
3.71676e-06
3.71631e-06
3.71598e-06
3.71578e-06
3.71569e-06
3.71572e-06
3.71587e-06
3.71613e-06
3.71652e-06
3.71703e-06
3.71766e-06
3.71839e-06
3.71904e-06
3.72007e-06
3.71942e-06
3.7187e-06
3.71798e-06
3.71738e-06
3.71691e-06
3.71657e-06
3.71636e-06
3.71627e-06
3.7163e-06
3.71646e-06
3.71673e-06
3.71713e-06
3.71766e-06
3.71833e-06
3.71909e-06
3.71978e-06
3.72089e-06
3.7202e-06
3.71946e-06
3.71871e-06
3.71809e-06
3.7176e-06
3.71725e-06
3.71703e-06
3.71693e-06
3.71697e-06
3.71713e-06
3.71742e-06
3.71784e-06
3.71839e-06
3.71909e-06
3.71987e-06
3.7206e-06
3.72179e-06
3.72095e-06
3.72016e-06
3.71936e-06
3.71872e-06
3.71822e-06
3.71786e-06
3.71763e-06
3.71753e-06
3.71757e-06
3.71774e-06
3.71804e-06
3.71847e-06
3.71904e-06
3.71978e-06
3.7206e-06
3.7215e-06
3.6873e-06
3.68694e-06
3.68661e-06
3.68627e-06
3.68598e-06
3.68574e-06
3.68556e-06
3.68544e-06
3.68539e-06
3.6854e-06
3.68548e-06
3.68563e-06
3.68584e-06
3.68609e-06
3.6864e-06
3.68672e-06
3.68709e-06
3.68694e-06
3.68661e-06
3.68628e-06
3.68593e-06
3.68563e-06
3.68538e-06
3.68519e-06
3.68507e-06
3.68502e-06
3.68503e-06
3.68512e-06
3.68527e-06
3.68548e-06
3.68574e-06
3.68606e-06
3.68639e-06
3.68673e-06
3.68661e-06
3.68628e-06
3.68591e-06
3.68555e-06
3.68524e-06
3.68499e-06
3.6848e-06
3.68467e-06
3.68462e-06
3.68463e-06
3.68472e-06
3.68487e-06
3.68509e-06
3.68536e-06
3.68569e-06
3.68606e-06
3.6864e-06
3.68627e-06
3.68593e-06
3.68555e-06
3.68518e-06
3.68486e-06
3.6846e-06
3.68441e-06
3.68428e-06
3.68422e-06
3.68424e-06
3.68433e-06
3.68449e-06
3.68471e-06
3.68499e-06
3.68532e-06
3.6857e-06
3.68606e-06
3.68598e-06
3.68563e-06
3.68524e-06
3.68486e-06
3.68454e-06
3.68427e-06
3.68408e-06
3.68395e-06
3.68389e-06
3.68391e-06
3.684e-06
3.68415e-06
3.68438e-06
3.68467e-06
3.68501e-06
3.68541e-06
3.68577e-06
3.68574e-06
3.68538e-06
3.68499e-06
3.6846e-06
3.68427e-06
3.68401e-06
3.68381e-06
3.68368e-06
3.68362e-06
3.68364e-06
3.68373e-06
3.68389e-06
3.68411e-06
3.68441e-06
3.68475e-06
3.68516e-06
3.68553e-06
3.68556e-06
3.6852e-06
3.6848e-06
3.68441e-06
3.68408e-06
3.68381e-06
3.68361e-06
3.68348e-06
3.68342e-06
3.68344e-06
3.68353e-06
3.68369e-06
3.68392e-06
3.68421e-06
3.68456e-06
3.68497e-06
3.68535e-06
3.68544e-06
3.68507e-06
3.68467e-06
3.68428e-06
3.68395e-06
3.68368e-06
3.68348e-06
3.68335e-06
3.68329e-06
3.68331e-06
3.6834e-06
3.68356e-06
3.68379e-06
3.68408e-06
3.68444e-06
3.68484e-06
3.68523e-06
3.68539e-06
3.68502e-06
3.68462e-06
3.68422e-06
3.68389e-06
3.68362e-06
3.68342e-06
3.68329e-06
3.68323e-06
3.68325e-06
3.68334e-06
3.6835e-06
3.68373e-06
3.68403e-06
3.68438e-06
3.68479e-06
3.68517e-06
3.6854e-06
3.68503e-06
3.68463e-06
3.68424e-06
3.68391e-06
3.68364e-06
3.68344e-06
3.68331e-06
3.68325e-06
3.68326e-06
3.68336e-06
3.68352e-06
3.68375e-06
3.68404e-06
3.6844e-06
3.6848e-06
3.68519e-06
3.68548e-06
3.68512e-06
3.68472e-06
3.68433e-06
3.684e-06
3.68373e-06
3.68353e-06
3.6834e-06
3.68334e-06
3.68336e-06
3.68345e-06
3.68361e-06
3.68384e-06
3.68413e-06
3.68448e-06
3.68489e-06
3.68527e-06
3.68563e-06
3.68527e-06
3.68487e-06
3.68449e-06
3.68415e-06
3.68389e-06
3.68369e-06
3.68356e-06
3.6835e-06
3.68352e-06
3.68361e-06
3.68377e-06
3.684e-06
3.68429e-06
3.68464e-06
3.68504e-06
3.68542e-06
3.68584e-06
3.68548e-06
3.68509e-06
3.68471e-06
3.68438e-06
3.68411e-06
3.68392e-06
3.68379e-06
3.68373e-06
3.68375e-06
3.68384e-06
3.684e-06
3.68422e-06
3.68451e-06
3.68486e-06
3.68525e-06
3.68563e-06
3.68609e-06
3.68574e-06
3.68536e-06
3.68499e-06
3.68467e-06
3.68441e-06
3.68421e-06
3.68408e-06
3.68403e-06
3.68404e-06
3.68413e-06
3.68429e-06
3.68451e-06
3.6848e-06
3.68513e-06
3.68552e-06
3.68588e-06
3.6864e-06
3.68606e-06
3.68569e-06
3.68532e-06
3.68501e-06
3.68475e-06
3.68456e-06
3.68444e-06
3.68438e-06
3.6844e-06
3.68448e-06
3.68464e-06
3.68486e-06
3.68513e-06
3.68546e-06
3.68583e-06
3.68619e-06
3.68672e-06
3.68639e-06
3.68606e-06
3.68571e-06
3.68541e-06
3.68516e-06
3.68497e-06
3.68485e-06
3.68479e-06
3.6848e-06
3.68489e-06
3.68504e-06
3.68525e-06
3.68552e-06
3.68583e-06
3.68617e-06
3.68651e-06
3.68709e-06
3.68673e-06
3.6864e-06
3.68606e-06
3.68578e-06
3.68553e-06
3.68535e-06
3.68523e-06
3.68517e-06
3.68519e-06
3.68527e-06
3.68542e-06
3.68563e-06
3.68588e-06
3.68619e-06
3.68651e-06
3.68688e-06
3.64615e-06
3.64602e-06
3.64593e-06
3.64584e-06
3.64575e-06
3.64567e-06
3.6456e-06
3.64555e-06
3.64552e-06
3.64552e-06
3.64555e-06
3.6456e-06
3.64567e-06
3.64574e-06
3.64582e-06
3.64588e-06
3.64599e-06
3.64602e-06
3.64588e-06
3.64578e-06
3.64566e-06
3.64556e-06
3.64546e-06
3.64538e-06
3.64533e-06
3.6453e-06
3.6453e-06
3.64533e-06
3.64539e-06
3.64547e-06
3.64556e-06
3.64566e-06
3.64574e-06
3.64586e-06
3.64593e-06
3.64578e-06
3.64564e-06
3.64551e-06
3.64538e-06
3.64527e-06
3.64518e-06
3.64512e-06
3.64509e-06
3.6451e-06
3.64513e-06
3.6452e-06
3.64529e-06
3.6454e-06
3.64552e-06
3.64564e-06
3.64577e-06
3.64584e-06
3.64566e-06
3.64551e-06
3.64535e-06
3.64521e-06
3.64509e-06
3.64499e-06
3.64493e-06
3.64489e-06
3.6449e-06
3.64494e-06
3.64501e-06
3.64512e-06
3.64524e-06
3.64538e-06
3.64553e-06
3.64568e-06
3.64575e-06
3.64556e-06
3.64538e-06
3.64521e-06
3.64506e-06
3.64492e-06
3.64482e-06
3.64475e-06
3.64471e-06
3.64472e-06
3.64477e-06
3.64485e-06
3.64496e-06
3.6451e-06
3.64526e-06
3.64542e-06
3.6456e-06
3.64567e-06
3.64546e-06
3.64527e-06
3.64509e-06
3.64492e-06
3.64478e-06
3.64467e-06
3.6446e-06
3.64456e-06
3.64457e-06
3.64462e-06
3.6447e-06
3.64482e-06
3.64497e-06
3.64514e-06
3.64532e-06
3.64551e-06
3.6456e-06
3.64538e-06
3.64518e-06
3.64499e-06
3.64482e-06
3.64467e-06
3.64456e-06
3.64448e-06
3.64445e-06
3.64445e-06
3.6445e-06
3.64459e-06
3.64472e-06
3.64487e-06
3.64505e-06
3.64524e-06
3.64544e-06
3.64555e-06
3.64533e-06
3.64512e-06
3.64493e-06
3.64475e-06
3.6446e-06
3.64448e-06
3.6444e-06
3.64437e-06
3.64438e-06
3.64443e-06
3.64452e-06
3.64465e-06
3.64481e-06
3.64499e-06
3.64519e-06
3.64539e-06
3.64552e-06
3.6453e-06
3.64509e-06
3.64489e-06
3.64471e-06
3.64456e-06
3.64445e-06
3.64437e-06
3.64433e-06
3.64434e-06
3.64439e-06
3.64448e-06
3.64461e-06
3.64478e-06
3.64496e-06
3.64516e-06
3.64537e-06
3.64552e-06
3.6453e-06
3.6451e-06
3.6449e-06
3.64472e-06
3.64457e-06
3.64445e-06
3.64438e-06
3.64434e-06
3.64435e-06
3.6444e-06
3.64449e-06
3.64462e-06
3.64478e-06
3.64497e-06
3.64517e-06
3.64537e-06
3.64555e-06
3.64533e-06
3.64513e-06
3.64494e-06
3.64477e-06
3.64462e-06
3.6445e-06
3.64443e-06
3.64439e-06
3.6444e-06
3.64445e-06
3.64454e-06
3.64466e-06
3.64482e-06
3.645e-06
3.6452e-06
3.6454e-06
3.6456e-06
3.64539e-06
3.6452e-06
3.64501e-06
3.64485e-06
3.6447e-06
3.64459e-06
3.64452e-06
3.64448e-06
3.64449e-06
3.64454e-06
3.64462e-06
3.64475e-06
3.6449e-06
3.64507e-06
3.64525e-06
3.64544e-06
3.64567e-06
3.64547e-06
3.64529e-06
3.64512e-06
3.64496e-06
3.64482e-06
3.64472e-06
3.64465e-06
3.64461e-06
3.64462e-06
3.64466e-06
3.64475e-06
3.64486e-06
3.645e-06
3.64516e-06
3.64533e-06
3.64551e-06
3.64574e-06
3.64556e-06
3.6454e-06
3.64524e-06
3.6451e-06
3.64497e-06
3.64487e-06
3.64481e-06
3.64478e-06
3.64478e-06
3.64482e-06
3.6449e-06
3.645e-06
3.64513e-06
3.64528e-06
3.64542e-06
3.64558e-06
3.64582e-06
3.64566e-06
3.64552e-06
3.64538e-06
3.64526e-06
3.64514e-06
3.64505e-06
3.64499e-06
3.64496e-06
3.64497e-06
3.645e-06
3.64507e-06
3.64516e-06
3.64528e-06
3.6454e-06
3.64552e-06
3.64566e-06
3.64589e-06
3.64575e-06
3.64564e-06
3.64553e-06
3.64542e-06
3.64532e-06
3.64525e-06
3.64519e-06
3.64516e-06
3.64517e-06
3.6452e-06
3.64525e-06
3.64533e-06
3.64542e-06
3.64552e-06
3.64561e-06
3.64572e-06
3.64599e-06
3.64586e-06
3.64577e-06
3.64568e-06
3.6456e-06
3.64551e-06
3.64544e-06
3.64539e-06
3.64537e-06
3.64537e-06
3.6454e-06
3.64545e-06
3.64551e-06
3.64558e-06
3.64566e-06
3.64572e-06
3.64582e-06
3.60745e-06
3.60744e-06
3.60744e-06
3.60745e-06
3.60746e-06
3.60745e-06
3.60744e-06
3.60742e-06
3.60741e-06
3.60741e-06
3.6074e-06
3.6074e-06
3.6074e-06
3.60739e-06
3.60736e-06
3.60732e-06
3.60731e-06
3.60744e-06
3.60741e-06
3.6074e-06
3.60739e-06
3.60739e-06
3.60737e-06
3.60735e-06
3.60733e-06
3.60732e-06
3.60732e-06
3.60732e-06
3.60732e-06
3.60733e-06
3.60732e-06
3.60731e-06
3.60729e-06
3.60729e-06
3.60744e-06
3.6074e-06
3.60737e-06
3.60734e-06
3.60732e-06
3.60729e-06
3.60726e-06
3.60724e-06
3.60722e-06
3.60722e-06
3.60723e-06
3.60724e-06
3.60725e-06
3.60727e-06
3.60727e-06
3.60728e-06
3.6073e-06
3.60745e-06
3.60739e-06
3.60734e-06
3.60729e-06
3.60725e-06
3.60721e-06
3.60717e-06
3.60715e-06
3.60713e-06
3.60713e-06
3.60714e-06
3.60716e-06
3.60718e-06
3.60721e-06
3.60724e-06
3.60727e-06
3.60731e-06
3.60746e-06
3.60739e-06
3.60732e-06
3.60725e-06
3.60719e-06
3.60714e-06
3.60709e-06
3.60706e-06
3.60704e-06
3.60704e-06
3.60706e-06
3.60709e-06
3.60712e-06
3.60717e-06
3.60721e-06
3.60726e-06
3.60731e-06
3.60745e-06
3.60737e-06
3.60729e-06
3.60721e-06
3.60714e-06
3.60708e-06
3.60703e-06
3.60699e-06
3.60697e-06
3.60697e-06
3.60699e-06
3.60702e-06
3.60707e-06
3.60712e-06
3.60718e-06
3.60724e-06
3.60731e-06
3.60744e-06
3.60735e-06
3.60726e-06
3.60717e-06
3.60709e-06
3.60703e-06
3.60697e-06
3.60693e-06
3.60691e-06
3.60691e-06
3.60693e-06
3.60697e-06
3.60702e-06
3.60708e-06
3.60715e-06
3.60722e-06
3.60729e-06
3.60742e-06
3.60733e-06
3.60724e-06
3.60715e-06
3.60706e-06
3.60699e-06
3.60693e-06
3.60689e-06
3.60687e-06
3.60687e-06
3.60689e-06
3.60693e-06
3.60699e-06
3.60705e-06
3.60713e-06
3.60721e-06
3.60728e-06
3.60741e-06
3.60732e-06
3.60722e-06
3.60713e-06
3.60704e-06
3.60697e-06
3.60691e-06
3.60687e-06
3.60685e-06
3.60685e-06
3.60687e-06
3.60691e-06
3.60697e-06
3.60704e-06
3.60711e-06
3.60719e-06
3.60727e-06
3.60741e-06
3.60732e-06
3.60722e-06
3.60713e-06
3.60704e-06
3.60697e-06
3.60691e-06
3.60687e-06
3.60685e-06
3.60685e-06
3.60687e-06
3.60691e-06
3.60697e-06
3.60704e-06
3.60711e-06
3.60719e-06
3.60727e-06
3.60741e-06
3.60732e-06
3.60723e-06
3.60714e-06
3.60706e-06
3.60699e-06
3.60693e-06
3.60689e-06
3.60687e-06
3.60687e-06
3.60689e-06
3.60693e-06
3.60698e-06
3.60705e-06
3.60712e-06
3.60719e-06
3.60726e-06
3.6074e-06
3.60732e-06
3.60724e-06
3.60716e-06
3.60709e-06
3.60702e-06
3.60697e-06
3.60693e-06
3.60691e-06
3.60691e-06
3.60693e-06
3.60697e-06
3.60701e-06
3.60707e-06
3.60713e-06
3.6072e-06
3.60726e-06
3.6074e-06
3.60733e-06
3.60725e-06
3.60718e-06
3.60712e-06
3.60707e-06
3.60702e-06
3.60699e-06
3.60697e-06
3.60697e-06
3.60698e-06
3.60701e-06
3.60705e-06
3.6071e-06
3.60715e-06
3.6072e-06
3.60726e-06
3.60739e-06
3.60732e-06
3.60727e-06
3.60721e-06
3.60717e-06
3.60712e-06
3.60708e-06
3.60705e-06
3.60704e-06
3.60704e-06
3.60705e-06
3.60707e-06
3.6071e-06
3.60713e-06
3.60716e-06
3.6072e-06
3.60724e-06
3.60736e-06
3.60731e-06
3.60727e-06
3.60724e-06
3.60721e-06
3.60718e-06
3.60715e-06
3.60713e-06
3.60711e-06
3.60711e-06
3.60712e-06
3.60713e-06
3.60715e-06
3.60716e-06
3.60717e-06
3.60718e-06
3.60721e-06
3.60732e-06
3.60729e-06
3.60728e-06
3.60727e-06
3.60726e-06
3.60724e-06
3.60722e-06
3.60721e-06
3.6072e-06
3.60719e-06
3.60719e-06
3.6072e-06
3.6072e-06
3.6072e-06
3.60718e-06
3.60717e-06
3.60718e-06
3.60731e-06
3.60729e-06
3.6073e-06
3.60731e-06
3.60732e-06
3.60731e-06
3.6073e-06
3.60728e-06
3.60727e-06
3.60727e-06
3.60727e-06
3.60726e-06
3.60726e-06
3.60724e-06
3.60721e-06
3.60718e-06
3.60716e-06
3.56872e-06
3.56876e-06
3.56883e-06
3.56891e-06
3.56898e-06
3.56902e-06
3.56905e-06
3.56906e-06
3.56906e-06
3.56905e-06
3.56903e-06
3.569e-06
3.56895e-06
3.56888e-06
3.56879e-06
3.56869e-06
3.56861e-06
3.56876e-06
3.56879e-06
3.56885e-06
3.56891e-06
3.56897e-06
3.56901e-06
3.56903e-06
3.56904e-06
3.56904e-06
3.56903e-06
3.56902e-06
3.56899e-06
3.56894e-06
3.56888e-06
3.5688e-06
3.56871e-06
3.56866e-06
3.56883e-06
3.56885e-06
3.56889e-06
3.56894e-06
3.56898e-06
3.56901e-06
3.56902e-06
3.56903e-06
3.56903e-06
3.56902e-06
3.569e-06
3.56898e-06
3.56895e-06
3.5689e-06
3.56884e-06
3.56877e-06
3.56872e-06
3.56891e-06
3.56891e-06
3.56894e-06
3.56897e-06
3.56899e-06
3.56901e-06
3.56901e-06
3.56901e-06
3.56901e-06
3.569e-06
3.56899e-06
3.56898e-06
3.56896e-06
3.56893e-06
3.56888e-06
3.56883e-06
3.5688e-06
3.56898e-06
3.56897e-06
3.56898e-06
3.56899e-06
3.56901e-06
3.56901e-06
3.56901e-06
3.569e-06
3.569e-06
3.56899e-06
3.56899e-06
3.56898e-06
3.56897e-06
3.56895e-06
3.56892e-06
3.56889e-06
3.56887e-06
3.56902e-06
3.56901e-06
3.56901e-06
3.56901e-06
3.56901e-06
3.569e-06
3.569e-06
3.56899e-06
3.56898e-06
3.56898e-06
3.56897e-06
3.56897e-06
3.56897e-06
3.56896e-06
3.56894e-06
3.56892e-06
3.56892e-06
3.56905e-06
3.56903e-06
3.56902e-06
3.56901e-06
3.56901e-06
3.569e-06
3.56898e-06
3.56897e-06
3.56896e-06
3.56896e-06
3.56896e-06
3.56896e-06
3.56896e-06
3.56896e-06
3.56896e-06
3.56895e-06
3.56895e-06
3.56906e-06
3.56904e-06
3.56903e-06
3.56901e-06
3.569e-06
3.56899e-06
3.56897e-06
3.56896e-06
3.56895e-06
3.56895e-06
3.56895e-06
3.56895e-06
3.56896e-06
3.56896e-06
3.56896e-06
3.56896e-06
3.56896e-06
3.56906e-06
3.56904e-06
3.56903e-06
3.56901e-06
3.569e-06
3.56898e-06
3.56896e-06
3.56895e-06
3.56894e-06
3.56894e-06
3.56894e-06
3.56895e-06
3.56895e-06
3.56896e-06
3.56896e-06
3.56896e-06
3.56896e-06
3.56905e-06
3.56903e-06
3.56902e-06
3.569e-06
3.56899e-06
3.56898e-06
3.56896e-06
3.56895e-06
3.56894e-06
3.56894e-06
3.56894e-06
3.56894e-06
3.56895e-06
3.56895e-06
3.56895e-06
3.56895e-06
3.56895e-06
3.56903e-06
3.56902e-06
3.569e-06
3.56899e-06
3.56899e-06
3.56897e-06
3.56896e-06
3.56895e-06
3.56894e-06
3.56894e-06
3.56894e-06
3.56894e-06
3.56894e-06
3.56894e-06
3.56894e-06
3.56893e-06
3.56893e-06
3.569e-06
3.56899e-06
3.56898e-06
3.56898e-06
3.56898e-06
3.56897e-06
3.56896e-06
3.56895e-06
3.56895e-06
3.56894e-06
3.56894e-06
3.56894e-06
3.56894e-06
3.56893e-06
3.56892e-06
3.5689e-06
3.5689e-06
3.56895e-06
3.56894e-06
3.56895e-06
3.56896e-06
3.56897e-06
3.56897e-06
3.56896e-06
3.56896e-06
3.56895e-06
3.56895e-06
3.56894e-06
3.56894e-06
3.56893e-06
3.56891e-06
3.56889e-06
3.56886e-06
3.56885e-06
3.56888e-06
3.56888e-06
3.5689e-06
3.56893e-06
3.56895e-06
3.56896e-06
3.56896e-06
3.56896e-06
3.56896e-06
3.56895e-06
3.56894e-06
3.56893e-06
3.56891e-06
3.56888e-06
3.56884e-06
3.5688e-06
3.56877e-06
3.56879e-06
3.5688e-06
3.56884e-06
3.56888e-06
3.56892e-06
3.56894e-06
3.56896e-06
3.56896e-06
3.56896e-06
3.56895e-06
3.56894e-06
3.56892e-06
3.56889e-06
3.56884e-06
3.56878e-06
3.56872e-06
3.56868e-06
3.56869e-06
3.56871e-06
3.56877e-06
3.56883e-06
3.56889e-06
3.56893e-06
3.56895e-06
3.56896e-06
3.56896e-06
3.56895e-06
3.56893e-06
3.5689e-06
3.56886e-06
3.5688e-06
3.56872e-06
3.56863e-06
3.56858e-06
3.56861e-06
3.56866e-06
3.56872e-06
3.5688e-06
3.56887e-06
3.56892e-06
3.56895e-06
3.56896e-06
3.56896e-06
3.56895e-06
3.56893e-06
3.5689e-06
3.56885e-06
3.56878e-06
3.56868e-06
3.56858e-06
3.5685e-06
3.53047e-06
3.53053e-06
3.53061e-06
3.5307e-06
3.53078e-06
3.53083e-06
3.53087e-06
3.53089e-06
3.5309e-06
3.53089e-06
3.53087e-06
3.53082e-06
3.53076e-06
3.53068e-06
3.53058e-06
3.53048e-06
3.53039e-06
3.53053e-06
3.53058e-06
3.53065e-06
3.53073e-06
3.53081e-06
3.53086e-06
3.5309e-06
3.53092e-06
3.53092e-06
3.53091e-06
3.53089e-06
3.53085e-06
3.53079e-06
3.53072e-06
3.53062e-06
3.53052e-06
3.53045e-06
3.53061e-06
3.53065e-06
3.53072e-06
3.53078e-06
3.53085e-06
3.53089e-06
3.53092e-06
3.53094e-06
3.53094e-06
3.53094e-06
3.53091e-06
3.53088e-06
3.53083e-06
3.53076e-06
3.53068e-06
3.53059e-06
3.53053e-06
3.5307e-06
3.53073e-06
3.53078e-06
3.53084e-06
3.53089e-06
3.53093e-06
3.53095e-06
3.53097e-06
3.53097e-06
3.53096e-06
3.53094e-06
3.53091e-06
3.53087e-06
3.53082e-06
3.53075e-06
3.53067e-06
3.53061e-06
3.53078e-06
3.53081e-06
3.53085e-06
3.53089e-06
3.53093e-06
3.53096e-06
3.53098e-06
3.53099e-06
3.53099e-06
3.53098e-06
3.53097e-06
3.53094e-06
3.53091e-06
3.53086e-06
3.53081e-06
3.53074e-06
3.53069e-06
3.53083e-06
3.53086e-06
3.53089e-06
3.53093e-06
3.53096e-06
3.53098e-06
3.531e-06
3.531e-06
3.531e-06
3.531e-06
3.53098e-06
3.53096e-06
3.53094e-06
3.5309e-06
3.53085e-06
3.5308e-06
3.53075e-06
3.53087e-06
3.5309e-06
3.53092e-06
3.53095e-06
3.53098e-06
3.531e-06
3.53101e-06
3.53101e-06
3.53101e-06
3.531e-06
3.53099e-06
3.53098e-06
3.53095e-06
3.53092e-06
3.53088e-06
3.53083e-06
3.53079e-06
3.53089e-06
3.53092e-06
3.53094e-06
3.53097e-06
3.53099e-06
3.531e-06
3.53101e-06
3.53101e-06
3.53101e-06
3.531e-06
3.53099e-06
3.53098e-06
3.53096e-06
3.53093e-06
3.53089e-06
3.53085e-06
3.53081e-06
3.5309e-06
3.53092e-06
3.53094e-06
3.53097e-06
3.53099e-06
3.531e-06
3.53101e-06
3.53101e-06
3.53101e-06
3.531e-06
3.53099e-06
3.53098e-06
3.53096e-06
3.53093e-06
3.5309e-06
3.53086e-06
3.53082e-06
3.53089e-06
3.53091e-06
3.53094e-06
3.53096e-06
3.53098e-06
3.531e-06
3.531e-06
3.531e-06
3.531e-06
3.531e-06
3.53099e-06
3.53097e-06
3.53095e-06
3.53093e-06
3.53089e-06
3.53085e-06
3.53081e-06
3.53087e-06
3.53089e-06
3.53091e-06
3.53094e-06
3.53097e-06
3.53098e-06
3.53099e-06
3.53099e-06
3.53099e-06
3.53099e-06
3.53098e-06
3.53096e-06
3.53094e-06
3.53091e-06
3.53087e-06
3.53082e-06
3.53078e-06
3.53082e-06
3.53085e-06
3.53088e-06
3.53091e-06
3.53094e-06
3.53096e-06
3.53098e-06
3.53098e-06
3.53098e-06
3.53097e-06
3.53096e-06
3.53094e-06
3.53092e-06
3.53088e-06
3.53083e-06
3.53078e-06
3.53074e-06
3.53076e-06
3.53079e-06
3.53083e-06
3.53087e-06
3.53091e-06
3.53094e-06
3.53095e-06
3.53096e-06
3.53096e-06
3.53095e-06
3.53094e-06
3.53092e-06
3.53089e-06
3.53084e-06
3.53079e-06
3.53073e-06
3.53068e-06
3.53068e-06
3.53072e-06
3.53076e-06
3.53082e-06
3.53087e-06
3.5309e-06
3.53092e-06
3.53093e-06
3.53093e-06
3.53093e-06
3.53091e-06
3.53088e-06
3.53084e-06
3.53079e-06
3.53072e-06
3.53065e-06
3.5306e-06
3.53058e-06
3.53062e-06
3.53068e-06
3.53075e-06
3.53081e-06
3.53085e-06
3.53088e-06
3.53089e-06
3.5309e-06
3.53089e-06
3.53087e-06
3.53084e-06
3.53079e-06
3.53072e-06
3.53064e-06
3.53056e-06
3.5305e-06
3.53048e-06
3.53052e-06
3.53059e-06
3.53067e-06
3.53074e-06
3.5308e-06
3.53083e-06
3.53085e-06
3.53086e-06
3.53085e-06
3.53082e-06
3.53078e-06
3.53073e-06
3.53065e-06
3.53056e-06
3.53046e-06
3.53039e-06
3.53039e-06
3.53045e-06
3.53053e-06
3.53061e-06
3.53069e-06
3.53075e-06
3.53079e-06
3.53081e-06
3.53082e-06
3.53081e-06
3.53078e-06
3.53074e-06
3.53068e-06
3.5306e-06
3.5305e-06
3.53039e-06
3.53031e-06
3.49249e-06
3.49255e-06
3.49262e-06
3.4927e-06
3.49277e-06
3.49283e-06
3.49287e-06
3.49289e-06
3.4929e-06
3.49289e-06
3.49287e-06
3.49282e-06
3.49277e-06
3.49269e-06
3.4926e-06
3.49251e-06
3.49243e-06
3.49255e-06
3.4926e-06
3.49267e-06
3.49275e-06
3.49282e-06
3.49287e-06
3.49291e-06
3.49293e-06
3.49294e-06
3.49293e-06
3.4929e-06
3.49286e-06
3.49281e-06
3.49274e-06
3.49265e-06
3.49256e-06
3.49249e-06
3.49262e-06
3.49267e-06
3.49273e-06
3.4928e-06
3.49287e-06
3.49292e-06
3.49295e-06
3.49297e-06
3.49298e-06
3.49297e-06
3.49295e-06
3.49291e-06
3.49286e-06
3.49279e-06
3.49271e-06
3.49262e-06
3.49256e-06
3.4927e-06
3.49275e-06
3.4928e-06
3.49287e-06
3.49292e-06
3.49297e-06
3.493e-06
3.49301e-06
3.49302e-06
3.49301e-06
3.49299e-06
3.49296e-06
3.49291e-06
3.49285e-06
3.49278e-06
3.4927e-06
3.49264e-06
3.49277e-06
3.49282e-06
3.49287e-06
3.49292e-06
3.49297e-06
3.49301e-06
3.49304e-06
3.49305e-06
3.49305e-06
3.49305e-06
3.49303e-06
3.493e-06
3.49296e-06
3.49291e-06
3.49284e-06
3.49277e-06
3.49271e-06
3.49283e-06
3.49287e-06
3.49292e-06
3.49297e-06
3.49301e-06
3.49304e-06
3.49306e-06
3.49308e-06
3.49308e-06
3.49307e-06
3.49306e-06
3.49303e-06
3.49299e-06
3.49295e-06
3.49289e-06
3.49282e-06
3.49277e-06
3.49287e-06
3.49291e-06
3.49295e-06
3.493e-06
3.49304e-06
3.49306e-06
3.49308e-06
3.49309e-06
3.4931e-06
3.49309e-06
3.49307e-06
3.49305e-06
3.49302e-06
3.49297e-06
3.49292e-06
3.49286e-06
3.49281e-06
3.49289e-06
3.49293e-06
3.49297e-06
3.49301e-06
3.49305e-06
3.49308e-06
3.49309e-06
3.4931e-06
3.4931e-06
3.4931e-06
3.49308e-06
3.49306e-06
3.49303e-06
3.49299e-06
3.49294e-06
3.49288e-06
3.49283e-06
3.4929e-06
3.49294e-06
3.49298e-06
3.49302e-06
3.49305e-06
3.49308e-06
3.4931e-06
3.4931e-06
3.49311e-06
3.4931e-06
3.49309e-06
3.49306e-06
3.49303e-06
3.49299e-06
3.49294e-06
3.49289e-06
3.49284e-06
3.49289e-06
3.49293e-06
3.49297e-06
3.49301e-06
3.49305e-06
3.49307e-06
3.49309e-06
3.4931e-06
3.4931e-06
3.49309e-06
3.49308e-06
3.49306e-06
3.49303e-06
3.49299e-06
3.49294e-06
3.49288e-06
3.49283e-06
3.49287e-06
3.4929e-06
3.49295e-06
3.49299e-06
3.49303e-06
3.49306e-06
3.49307e-06
3.49308e-06
3.49309e-06
3.49308e-06
3.49306e-06
3.49304e-06
3.49301e-06
3.49297e-06
3.49291e-06
3.49286e-06
3.4928e-06
3.49282e-06
3.49287e-06
3.49291e-06
3.49296e-06
3.493e-06
3.49303e-06
3.49305e-06
3.49306e-06
3.49306e-06
3.49306e-06
3.49304e-06
3.49302e-06
3.49298e-06
3.49294e-06
3.49288e-06
3.49282e-06
3.49276e-06
3.49277e-06
3.49281e-06
3.49286e-06
3.49291e-06
3.49296e-06
3.49299e-06
3.49302e-06
3.49303e-06
3.49303e-06
3.49303e-06
3.49301e-06
3.49298e-06
3.49294e-06
3.49289e-06
3.49283e-06
3.49276e-06
3.49271e-06
3.49269e-06
3.49274e-06
3.49279e-06
3.49285e-06
3.49291e-06
3.49295e-06
3.49298e-06
3.49299e-06
3.49299e-06
3.49299e-06
3.49297e-06
3.49294e-06
3.49289e-06
3.49283e-06
3.49276e-06
3.49269e-06
3.49263e-06
3.4926e-06
3.49265e-06
3.49271e-06
3.49278e-06
3.49284e-06
3.49289e-06
3.49292e-06
3.49294e-06
3.49294e-06
3.49294e-06
3.49291e-06
3.49288e-06
3.49283e-06
3.49276e-06
3.49268e-06
3.4926e-06
3.49254e-06
3.49251e-06
3.49256e-06
3.49262e-06
3.4927e-06
3.49277e-06
3.49282e-06
3.49286e-06
3.49288e-06
3.49289e-06
3.49288e-06
3.49286e-06
3.49282e-06
3.49276e-06
3.49269e-06
3.4926e-06
3.49251e-06
3.49245e-06
3.49243e-06
3.49249e-06
3.49256e-06
3.49264e-06
3.49271e-06
3.49277e-06
3.49281e-06
3.49283e-06
3.49284e-06
3.49283e-06
3.4928e-06
3.49276e-06
3.49271e-06
3.49263e-06
3.49254e-06
3.49245e-06
3.49237e-06
3.4547e-06
3.45475e-06
3.45481e-06
3.45487e-06
3.45493e-06
3.45498e-06
3.45501e-06
3.45503e-06
3.45504e-06
3.45503e-06
3.45501e-06
3.45498e-06
3.45493e-06
3.45487e-06
3.45479e-06
3.45472e-06
3.45466e-06
3.45475e-06
3.4548e-06
3.45485e-06
3.45492e-06
3.45498e-06
3.45502e-06
3.45506e-06
3.45507e-06
3.45508e-06
3.45507e-06
3.45505e-06
3.45502e-06
3.45497e-06
3.45491e-06
3.45484e-06
3.45476e-06
3.4547e-06
3.45481e-06
3.45485e-06
3.45491e-06
3.45497e-06
3.45503e-06
3.45507e-06
3.4551e-06
3.45512e-06
3.45512e-06
3.45511e-06
3.4551e-06
3.45506e-06
3.45502e-06
3.45496e-06
3.45489e-06
3.45482e-06
3.45476e-06
3.45487e-06
3.45492e-06
3.45497e-06
3.45503e-06
3.45508e-06
3.45512e-06
3.45514e-06
3.45516e-06
3.45516e-06
3.45516e-06
3.45514e-06
3.45511e-06
3.45507e-06
3.45501e-06
3.45495e-06
3.45488e-06
3.45483e-06
3.45493e-06
3.45498e-06
3.45503e-06
3.45508e-06
3.45512e-06
3.45516e-06
3.45518e-06
3.4552e-06
3.4552e-06
3.4552e-06
3.45518e-06
3.45515e-06
3.45511e-06
3.45506e-06
3.455e-06
3.45494e-06
3.45489e-06
3.45498e-06
3.45502e-06
3.45507e-06
3.45512e-06
3.45516e-06
3.45519e-06
3.45522e-06
3.45523e-06
3.45523e-06
3.45523e-06
3.45521e-06
3.45518e-06
3.45515e-06
3.4551e-06
3.45505e-06
3.45499e-06
3.45493e-06
3.45501e-06
3.45506e-06
3.4551e-06
3.45514e-06
3.45518e-06
3.45522e-06
3.45524e-06
3.45525e-06
3.45525e-06
3.45525e-06
3.45523e-06
3.45521e-06
3.45517e-06
3.45513e-06
3.45508e-06
3.45502e-06
3.45497e-06
3.45503e-06
3.45507e-06
3.45512e-06
3.45516e-06
3.4552e-06
3.45523e-06
3.45525e-06
3.45526e-06
3.45526e-06
3.45526e-06
3.45524e-06
3.45522e-06
3.45519e-06
3.45514e-06
3.45509e-06
3.45504e-06
3.45499e-06
3.45504e-06
3.45508e-06
3.45512e-06
3.45516e-06
3.4552e-06
3.45523e-06
3.45525e-06
3.45526e-06
3.45526e-06
3.45526e-06
3.45524e-06
3.45522e-06
3.45519e-06
3.45515e-06
3.4551e-06
3.45504e-06
3.45499e-06