/*--------------------------------*- C++ -*----------------------------------*\
  =========                 |
  \\      /  F ield         | OpenFOAM: The Open Source CFD Toolbox
   \\    /   O peration     | Website:  https://openfoam.org
    \\  /    A nd           | Version:  6
     \\/     M anipulation  |
\*---------------------------------------------------------------------------*/
FoamFile
{
    version     2.0;
    format      ascii;
    class       volVectorField;
    location    "0";
    object      U_rec;
}
// * * * * * * * * * * * * * * * * * * * * * * * * * * * * * * * * * * * * * //

dimensions      [0 1 -1 0 0 0 0];

internalField   nonuniform List<vector> 
13046
(
(-0.253488 0.163916 0)
(-0.337028 -0.0299036 -4.86306e-22)
(-0.106983 0.0622934 -1.1589e-21)
(-0.248681 0.120172 0)
(-0.121411 0.0983402 -1.01826e-21)
(-0.275225 -0.0186595 0)
(-0.265854 0.126086 1.33044e-22)
(-0.302059 -0.0437131 2.61903e-22)
(-0.109587 0.106669 -1.171e-21)
(-0.375945 0.191605 1.84275e-22)
(-0.72323 -0.320612 0)
(0.00863197 0.0901052 6.66927e-22)
(-0.297271 0.167747 -4.2357e-22)
(-0.400268 -0.0868204 -6.77418e-22)
(-0.0738052 0.0827062 6.4731e-22)
(-0.366237 0.228504 -3.3598e-22)
(0.0128361 0.0831883 1.5888e-21)
(-0.750077 -0.268054 -5.83318e-23)
(-0.168532 0.128612 0)
(-0.198622 0.0151271 -5.69211e-22)
(-0.254473 0.0686081 1.51841e-21)
(-0.369181 0.221664 -1.25295e-22)
(0.0134028 0.0859035 -2.11644e-21)
(-0.743826 -0.27936 0)
(-0.230239 0.13485 6.0165e-22)
(-0.280014 0.000755973 -1.29623e-21)
(-0.128532 0.070913 0)
(-0.29981 0.181158 -7.22258e-22)
(-0.420158 -0.0922141 2.0421e-22)
(-0.0678594 0.074475 -1.07972e-21)
(-0.255936 0.174541 0)
(-0.353682 -0.0294548 0)
(-0.105521 0.0512848 1.18093e-21)
(-0.214975 0.123898 -6.99052e-22)
(-0.143089 0.068045 3.92982e-22)
(-0.255293 0.0217112 2.23076e-21)
(-0.213688 0.112243 -1.12577e-21)
(-0.150575 0.0780402 6.10738e-22)
(-0.238648 0.0291599 -1.14925e-21)
(-0.223848 0.192229 7.45167e-22)
(-0.172762 -0.0237036 2.16781e-22)
(-0.353006 0.0109406 -6.79827e-22)
(-0.207278 0.0812444 5.05734e-22)
(-0.17794 0.0858918 9.03264e-22)
(-0.19808 0.0565022 0)
(-0.22098 0.0804834 3.24119e-22)
(-0.167667 0.0995825 -1.38408e-21)
(-0.19928 0.0418349 -1.7596e-22)
(-0.262117 0.1573 0)
(-0.339157 -0.0435121 -3.55647e-23)
(-0.0960921 0.0736696 -1.60489e-23)
(-0.276886 -0.117877 1.28399e-21)
(-0.203552 0.212052 0)
(-0.380219 0.0351985 -6.50195e-22)
(-0.318215 -0.148439 -1.83529e-21)
(-0.380458 0.0456908 -9.54684e-22)
(-0.189368 0.207948 1.1881e-21)
(-0.63949 -0.14922 -6.39049e-23)
(-0.340805 0.262704 0)
(-0.0521577 0.0289856 9.19556e-22)
(-0.356641 0.146735 -3.51771e-22)
(-0.484607 -0.19017 3.9976e-22)
(-0.0664725 0.131765 -2.48516e-21)
(-0.00439855 0.0990451 1.25638e-21)
(-0.678366 -0.275516 -8.22165e-23)
(-0.38609 0.198636 -4.06778e-22)
(-0.331319 0.267853 0)
(-0.611194 -0.124433 0)
(-0.0757321 0.00671258 0)
(-0.322955 0.263559 -2.84175e-22)
(-0.583356 -0.109058 0)
(-0.0859483 0.000786303 7.24483e-22)
(-0.670894 -0.164505 0)
(-0.34719 0.265903 3.01434e-23)
(-0.0429672 0.031715 -1.62035e-23)
(-0.177105 0.138887 0)
(-0.191245 0.00820323 6.46111e-22)
(-0.269856 0.0557969 -1.05976e-21)
(-0.0168081 0.0550081 9.86115e-22)
(-0.356688 0.25634 -7.24902e-22)
(-0.701669 -0.199455 0)
(-0.241101 0.1351 3.04705e-22)
(-0.28796 -0.0125813 0)
(-0.118259 0.0823632 0)
(0.000471012 0.0969483 -1.10867e-21)
(-0.698887 -0.287691 -1.57354e-23)
(-0.386901 0.200883 2.33526e-22)
(-0.404978 0.160246 -3.52862e-22)
(-0.0303259 0.120585 0)
(-0.641508 -0.309336 -1.03894e-22)
(-0.0658464 0.142347 0)
(-0.429241 0.119709 0)
(-0.620357 -0.356515 8.65513e-24)
(-0.352722 0.197171 0)
(-0.363292 0.194716 2.79259e-22)
(-0.555794 -0.182289 6.19094e-22)
(-0.579238 -0.204894 -2.89582e-22)
(-0.0310163 0.0908873 -5.3783e-22)
(-0.0256988 0.0985612 1.36995e-21)
(-0.0413423 0.127287 -6.43486e-23)
(-0.408209 0.150137 3.44236e-22)
(-0.625116 -0.312655 0)
(-0.22983 0.0897524 -1.07827e-23)
(-0.155312 0.103059 7.01108e-22)
(-0.215239 0.0238746 0)
(-0.156386 0.180822 0)
(-0.341561 0.073915 -3.26138e-22)
(-0.312558 -0.117478 0)
(-0.200698 0.19894 1.32029e-21)
(-0.240586 -0.080251 0)
(-0.357877 0.0341976 -1.38333e-21)
(-0.332033 0.170289 0)
(0.00999143 0.0742012 0)
(-0.666534 -0.320492 4.97979e-22)
(-0.281074 0.160536 1.16618e-21)
(-0.372039 -0.0667131 3.36843e-22)
(-0.0831324 0.0838845 1.08049e-21)
(-0.359396 0.218656 3.77503e-22)
(-0.351059 0.21088 -7.2261e-22)
(-0.613507 -0.196806 -4.78952e-22)
(-0.0193502 0.0798574 6.09426e-22)
(-0.574829 -0.178151 2.3179e-22)
(-0.027273 0.0805295 -5.694e-22)
(-0.366511 0.192248 -1.08362e-22)
(-0.723443 -0.321305 3.4779e-22)
(0.0113845 0.0868359 -2.93402e-22)
(-0.329432 0.193573 0)
(-0.492187 -0.14034 -4.3747e-22)
(-0.0463984 0.0797297 1.29302e-21)
(-0.23865 0.195217 0)
(-0.149242 -0.00734931 -1.08631e-21)
(-0.365681 -0.00579875 2.60061e-23)
(-0.0742262 0.149401 0)
(-0.425116 0.116985 0)
(-0.603684 -0.339625 0)
(-0.382079 0.184408 0)
(-0.615669 -0.24886 -6.61762e-22)
(-0.0229583 0.109256 -1.44771e-21)
(-0.271838 0.182042 0)
(-0.380778 -0.0498699 0)
(-0.0945626 0.050118 0)
(-0.311797 0.123005 0)
(-0.359789 -0.108771 0)
(-0.10256 0.134904 0)
(-0.192611 0.199994 0)
(-0.26894 -0.101058 0)
(-0.360498 0.0431279 7.5521e-22)
(-0.155705 0.17465 -1.38786e-22)
(-0.332777 0.0755575 -8.03735e-22)
(-0.304023 -0.104141 1.21742e-21)
(-0.364937 0.153965 7.08637e-22)
(-0.512106 -0.207022 0)
(-0.0558686 0.125409 3.22982e-21)
(-0.138389 0.147471 0)
(-0.297321 0.0908238 9.22662e-22)
(-0.280742 -0.0654505 -2.85577e-22)
(-0.39474 -0.192766 0)
(-0.377843 0.0754318 6.72543e-22)
(-0.433959 -0.21521 0)
(-0.381335 0.0894358 3.79911e-22)
(-0.151785 0.191988 0)
(-0.132726 0.181811 0)
(-0.325668 0.10129 1.17645e-22)
(-0.346816 -0.123317 5.71042e-22)
(-0.121456 0.152827 -6.15014e-22)
(-0.38402 0.183989 -1.75368e-22)
(0.00384837 0.0927978 0)
(-0.710894 -0.328943 1.57889e-22)
(-0.345705 0.180752 -1.03237e-22)
(0.0116473 0.0794236 -1.3268e-22)
(-0.696471 -0.321978 0)
(-0.382512 0.191301 -3.58644e-22)
(-0.633724 -0.25332 0)
(-0.015892 0.104467 1.64641e-21)
(-0.264442 0.223025 0)
(-0.424536 -0.0296136 1.71145e-22)
(-0.148562 -0.0253998 6.28532e-22)
(-0.320127 0.0938118 7.22233e-22)
(-0.132473 0.159243 2.92248e-22)
(-0.321535 -0.103881 0)
(-0.00803346 0.101862 0)
(-0.691363 -0.340662 0)
(-0.399624 0.170119 1.14512e-22)
(-0.250562 0.214211 0)
(-0.399736 -0.0138698 -4.31586e-22)
(-0.15871 -0.0238534 1.59609e-22)
(-0.139673 0.154541 0)
(-0.305366 0.0870591 0)
(-0.283254 -0.0762365 0)
(-0.299793 0.116993 3.82169e-22)
(-0.334923 -0.0918552 0)
(-0.107573 0.131183 0)
(-0.430619 -0.116601 -1.2106e-23)
(-0.0637407 0.096325 -7.58346e-22)
(-0.320157 0.185567 1.13818e-21)
(-0.466086 -0.124436 0)
(-0.0543724 0.0826531 -1.62008e-21)
(-0.399466 0.178152 -3.85933e-22)
(-0.0127702 0.107888 9.99018e-22)
(-0.678149 -0.309676 -2.54099e-22)
(-0.0633964 0.142949 9.33999e-22)
(-0.41447 0.130774 2.17759e-22)
(-0.600824 -0.318333 6.45046e-22)
(-0.41974 0.13987 -4.61091e-22)
(-0.641508 -0.340938 0)
(-0.044278 0.1289 -9.02994e-22)
(-0.29235 -0.142752 -6.31616e-23)
(-0.41618 0.0194391 2.66352e-22)
(-0.222061 0.23589 0)
(-0.292076 0.140981 -1.72531e-21)
(-0.353175 0.263286 3.95296e-22)
(-0.0247998 0.0473535 -6.11459e-22)
(-0.704704 -0.191157 0)
(-0.655236 -0.350748 0)
(-0.417432 0.145153 -3.78265e-22)
(-0.0347579 0.120098 0)
(-0.227146 0.105353 -1.59987e-21)
(-0.144071 0.0937715 -5.9928e-22)
(-0.235946 0.0161886 1.68148e-21)
(-0.291673 0.188761 0)
(-0.41612 -0.0776968 -2.96206e-23)
(-0.077184 0.0636547 -6.26629e-22)
(-0.0727587 0.149064 7.20021e-22)
(-0.419078 0.122187 0)
(-0.594752 -0.325771 -7.40345e-22)
(-0.305381 0.148172 1.36104e-21)
(-0.417249 -0.116368 1.27647e-21)
(-0.0694593 0.103764 0)
(0.00435849 0.0854675 0)
(-0.69053 -0.33906 -4.10943e-22)
(-0.371121 0.172775 0)
(-0.207461 0.227773 0)
(-0.406374 0.0305008 0)
(-0.319917 -0.164983 0)
(-0.415051 0.140557 4.0723e-22)
(-0.626621 -0.326078 0)
(-0.0473822 0.131338 -1.49564e-23)
(-0.352479 0.096381 2.8428e-22)
(-0.387836 -0.168255 -4.2755e-22)
(-0.124477 0.167373 0)
(-0.327443 0.203288 0)
(-0.500751 -0.135028 4.09807e-22)
(-0.0468132 0.0716431 1.02702e-21)
(-0.536305 -0.307917 -1.21751e-21)
(-0.420125 0.0941255 -3.76917e-22)
(-0.114284 0.178805 5.61395e-22)
(-0.394076 0.0884622 0)
(-0.46279 -0.24185 -5.43511e-22)
(-0.131246 0.184031 -2.0047e-23)
(0.00138026 0.083375 -8.69812e-22)
(-0.673292 -0.345018 0)
(-0.369986 0.163272 -2.7275e-23)
(-0.227047 0.212777 6.84829e-22)
(-0.210071 -0.0637945 -7.97499e-22)
(-0.383562 0.0109004 5.27991e-23)
(-0.302112 0.18138 1.2055e-22)
(0.0167291 0.0716462 -1.22537e-21)
(-0.67427 -0.282011 0)
(-0.154187 0.120558 -3.30788e-22)
(-0.249617 0.0818803 -1.25077e-21)
(-0.216645 0.0055721 1.74328e-21)
(-0.346068 0.11843 3.21263e-22)
(-0.34281 0.10414 5.64512e-24)
(-0.416925 -0.1688 -1.04866e-21)
(-0.383063 -0.154994 0)
(-0.116157 0.15894 5.58765e-22)
(-0.0967916 0.148001 -5.84566e-22)
(-0.00680923 0.0630781 -1.29057e-21)
(-0.359309 0.252494 3.85952e-22)
(-0.724527 -0.213082 8.25803e-23)
(-0.316035 0.206896 0)
(-0.482247 -0.112387 0)
(-0.0592603 0.0606461 -1.35017e-21)
(-0.401077 0.0973371 -1.10232e-22)
(-0.495891 -0.266721 0)
(-0.11751 0.176796 0)
(-0.370931 0.203215 -3.43404e-22)
(-0.618834 -0.222719 0)
(-0.0160868 0.0946975 5.96041e-22)
(-0.197151 0.0914554 3.68927e-22)
(-0.208726 0.0607232 5.01155e-22)
(-0.177604 0.0745806 -1.83648e-22)
(-0.370374 0.100868 -4.80546e-22)
(-0.433673 -0.204084 0)
(-0.117793 0.169947 -9.57641e-22)
(-0.317741 0.215314 0)
(-0.498425 -0.112444 4.87597e-22)
(-0.059067 0.0525356 -8.42292e-22)
(-0.310576 0.161261 0)
(-0.323181 0.165687 1.31187e-22)
(-0.231084 0.219553 2.47212e-22)
(-0.216811 -0.0739633 2.24125e-21)
(-0.394452 0.00898048 -1.27486e-21)
(-0.375347 0.111374 -4.87406e-22)
(-0.463794 -0.222298 8.33856e-22)
(-0.10148 0.160543 8.71377e-22)
(-0.377476 0.200963 0)
(-0.0126239 0.0986303 -2.11977e-21)
(-0.637951 -0.240391 -2.48483e-22)
(-0.200196 0.190739 -1.81977e-21)
(-0.22698 -0.066285 0)
(-0.346881 0.0360915 4.6058e-22)
(-0.161994 0.201711 -1.0982e-21)
(-0.388506 0.0670845 -3.80789e-22)
(-0.395682 -0.20408 0)
(-0.343306 0.230644 -3.89578e-22)
(-0.586588 -0.1588 -3.54359e-22)
(-0.0344343 0.0592544 3.7372e-22)
(-0.217892 0.220351 9.16841e-23)
(-0.258677 -0.106151 0)
(-0.392198 0.0235761 9.0755e-22)
(-0.351119 0.234568 0)
(-0.357366 0.229154 0)
(-0.617643 -0.17522 -2.09075e-22)
(-0.0266388 0.0633016 -9.84297e-22)
(-0.629986 -0.192536 2.9201e-22)
(-0.0189384 0.0729148 1.03886e-21)
(-0.0057266 0.101601 -7.75301e-22)
(-0.696874 -0.32842 0)
(-0.397496 0.178309 -2.35568e-22)
(-0.341138 0.212359 4.34847e-22)
(-0.548593 -0.159281 0)
(-0.0351994 0.0728707 3.50812e-22)
(-0.577924 -0.286796 -1.99789e-21)
(0.00818846 0.0597175 1.08069e-21)
(-0.278825 0.147521 5.35373e-23)
(-0.28239 0.0801912 -5.7579e-22)
(-0.150335 0.143387 0)
(-0.244155 -0.0348128 0)
(-0.341976 0.145668 8.11611e-22)
(-0.453884 -0.164355 0)
(-0.0695992 0.126242 1.92328e-21)
(-0.0143893 0.107763 -6.50561e-22)
(-0.39512 0.18184 8.13847e-22)
(-0.662095 -0.290926 2.85962e-22)
(-0.332822 -0.163012 0)
(-0.388821 0.0461015 3.25352e-22)
(-0.188746 0.214361 -1.34717e-21)
(-0.557527 -0.316266 -1.3292e-21)
(-0.419855 0.103909 -2.15074e-22)
(-0.0983701 0.166885 0)
(-0.373484 -0.0884931 -1.44055e-21)
(-0.0828674 0.105451 0)
(-0.346864 0.169975 8.25115e-22)
(-0.491229 -0.169935 4.5238e-22)
(-0.0490881 0.107242 5.92382e-22)
(-0.363875 -0.0944796 8.08081e-22)
(-0.0878808 0.113803 1.62131e-23)
(-0.368457 0.230806 -2.26906e-23)
(0.0087533 0.0815406 7.60941e-22)
(-0.736947 -0.256761 8.71495e-23)
(-0.282158 -0.147179 0)
(-0.436673 0.00690353 7.61495e-23)
(-0.235634 0.246009 0)
(-0.356436 0.173987 -8.36399e-22)
(-0.524701 -0.188391 -5.53806e-22)
(-0.0426372 0.110605 -7.17676e-22)
(-0.319656 0.115515 0)
(-0.360356 -0.120942 -8.30809e-22)
(-0.10748 0.142504 0)
(-0.35243 0.0585501 0)
(-0.297022 -0.119107 0)
(-0.174613 0.190361 0)
(-0.255631 0.145491 -4.22284e-22)
(-0.316108 -0.0333326 -7.91112e-22)
(-0.105063 0.081184 1.94353e-23)
(-0.176354 0.210453 1.373e-21)
(-0.391809 0.056506 8.82059e-22)
(-0.371431 -0.189671 8.49998e-22)
(-0.406598 0.165022 -2.46352e-22)
(-0.665201 -0.321547 2.12858e-22)
(-0.0215573 0.113641 -9.52712e-22)
(-0.563282 -0.308052 9.22587e-22)
(-0.414806 0.112989 2.16791e-22)
(-0.0881992 0.159927 7.19909e-22)
(-0.303514 0.261141 -8.86658e-22)
(-0.125324 -0.0259862 1.06411e-21)
(-0.534293 -0.0758654 -4.27935e-22)
(-0.356279 0.247311 2.13331e-22)
(-0.35171 0.24578 -2.05229e-22)
(-0.643979 -0.177462 -6.41236e-23)
(-0.670422 -0.190725 0)
(-0.0198892 0.0592669 -3.45769e-22)
(-0.0275657 0.0545647 -3.17037e-22)
(0.0107894 0.0637729 -1.46062e-21)
(-0.610015 -0.286068 2.19995e-21)
(-0.288038 0.157408 6.73918e-23)
(-0.312823 0.190289 -8.628e-24)
(0.0183822 0.0751609 1.69863e-21)
(-0.70077 -0.284199 0)
(-0.358311 0.124342 -1.22855e-21)
(-0.451258 -0.189719 -2.27316e-22)
(-0.0910044 0.148764 0)
(-0.00712808 0.103395 -1.92229e-21)
(-0.396859 0.182018 2.32628e-22)
(-0.691646 -0.314105 0)
(-0.326707 0.248731 1.19457e-21)
(-0.335061 0.246836 -8.84938e-22)
(-0.568442 -0.122065 3.67919e-22)
(-0.589552 -0.138117 1.37131e-22)
(-0.0681234 0.023589 -6.36697e-22)
(-0.0522968 0.0369942 -3.17748e-22)
(-0.0308894 0.111111 0)
(-0.653313 -0.368765 0)
(-0.416838 0.136217 4.13197e-23)
(-0.278327 0.17425 -1.42487e-22)
(0.0167663 0.0672673 0)
(-0.645824 -0.26244 0)
(-0.243438 0.0561637 -1.22e-23)
(-0.183298 0.121024 7.54953e-22)
(-0.175902 0.0399045 3.82219e-22)
(-0.309813 0.169825 -1.4076e-22)
(-0.655036 -0.302117 -7.28655e-22)
(0.0122963 0.0702844 8.00847e-23)
(-0.281262 0.223261 0)
(-0.44543 -0.052084 -8.04251e-22)
(-0.117298 -0.000517473 -2.3416e-23)
(-0.404827 0.164406 1.51276e-23)
(-0.683786 -0.343463 2.71427e-23)
(-0.014211 0.105776 3.55091e-24)
(-0.501177 -0.287899 -5.13255e-23)
(0.00172866 0.0503115 -6.37658e-22)
(-0.263163 0.113003 5.9179e-23)
(-0.207368 0.180848 -6.49833e-22)
(-0.183607 -0.0205964 6.9778e-22)
(-0.329994 0.0269363 1.67889e-21)
(-0.258272 0.0930445 0)
(-0.242605 -0.0143355 -1.94071e-21)
(-0.141046 0.122287 9.48686e-22)
(-0.360086 0.199662 0)
(0.0144481 0.0856503 8.70694e-22)
(-0.732297 -0.31161 -3.70342e-23)
(-0.268748 0.0941742 0)
(-0.252446 -0.0278914 -6.53634e-22)
(-0.136868 0.13087 -1.33993e-21)
(-0.230175 0.0624752 7.50057e-22)
(-0.182073 0.110395 -4.04682e-22)
(-0.179869 0.0486784 2.04123e-22)
(-0.201364 0.23018 6.61579e-22)
(-0.414369 0.0360276 -2.86813e-22)
(-0.355575 -0.194935 9.58256e-22)
(-0.277921 0.0613898 0)
(-0.20238 -0.00429733 0)
(-0.170183 0.147467 1.07635e-22)
(-0.285849 0.0720681 9.11379e-22)
(-0.228323 -0.0232112 5.17594e-22)
(-0.161763 0.150579 1.51366e-23)
(-0.292935 0.258365 1.36721e-21)
(-0.509272 -0.0605772 -4.94112e-22)
(-0.147649 -0.0453309 -1.07059e-21)
(0.0104694 0.0909746 1.34106e-21)
(0.00826943 0.0923896 -1.36968e-21)
(-0.732983 -0.300372 -1.46656e-22)
(-0.724651 -0.309959 -6.34986e-23)
(-0.376842 0.207563 0)
(-0.380624 0.200376 -1.88553e-22)
(-0.408976 0.162111 3.10977e-22)
(-0.671907 -0.332708 -8.7418e-23)
(-0.0208705 0.113199 1.17808e-21)
(-0.116684 -0.0261601 -6.99871e-22)
(-0.312031 0.269177 2.72616e-22)
(-0.563102 -0.0886578 5.48428e-22)
(-0.235398 0.209406 -6.25425e-22)
(-0.18329 -0.0425011 -7.12923e-22)
(-0.383104 0.00150652 4.82312e-22)
(-0.404664 0.0748256 0)
(-0.455927 -0.251127 5.61757e-22)
(-0.148246 0.197235 2.07572e-23)
(-0.568967 -0.335309 -4.45101e-22)
(-0.00339257 0.0645652 -6.00783e-22)
(-0.327744 0.122623 4.78702e-23)
(-0.0542579 0.134019 0)
(-0.426432 0.127496 0)
(-0.631409 -0.357241 1.19576e-22)
(-0.360453 0.180578 1.11856e-22)
(0.00911867 0.0834519 0)
(-0.70316 -0.329995 4.02936e-22)
(0.00225201 0.0448191 -2.34811e-33)
(-0.463848 -0.26324 1.0399e-21)
(-0.234833 0.104767 -1.83462e-23)
(-0.484145 -0.231037 -1.1822e-21)
(0.0066658 0.0467956 2.3429e-33)
(-0.224375 0.12339 9.72671e-24)
(-0.524533 -0.239857 -1.08449e-21)
(-0.382495 0.137003 0)
(-0.0714416 0.142488 -1.87361e-21)
(-0.638484 -0.36819 1.46729e-22)
(-0.0175467 0.0914376 -6.16541e-22)
(-0.395497 0.133286 0)
(-0.388526 0.177282 -4.49952e-22)
(-0.618916 -0.26403 4.00766e-22)
(-0.0257058 0.113779 9.61939e-22)
(-0.348661 0.229293 6.73172e-22)
(0.018472 0.0804548 5.20551e-22)
(-0.770958 -0.265865 0)
(-0.281753 0.147687 3.16761e-22)
(-0.0878531 0.0977202 -3.76713e-22)
(-0.359709 -0.0717181 3.7587e-22)
(-0.649643 -0.367461 4.19067e-23)
(-0.037924 0.118726 6.61042e-22)
(-0.421647 0.133837 7.95849e-23)
(-0.402151 0.0675807 -3.38817e-22)
(-0.159461 0.204517 -3.72788e-22)
(-0.431063 -0.233613 0)
(-0.508628 -0.266798 0)
(-0.398202 0.107228 0)
(-0.103286 0.167958 0)
(0.00121963 0.0218171 0)
(-0.262735 -0.129507 1.23579e-21)
(-0.124455 0.056471 -6.18117e-23)
(-0.573123 -0.30339 -7.46496e-22)
(0.00545607 0.0598543 -7.62704e-22)
(-0.289745 0.139781 -7.85011e-23)
(-0.268966 0.14071 -8.18158e-22)
(-0.0987976 0.0956106 9.16958e-22)
(-0.328243 -0.0525479 3.88536e-22)
(-0.669295 -0.357904 -1.76416e-22)
(-0.408989 0.150321 -7.80494e-23)
(-0.0195468 0.105209 0)
(-0.0299913 0.107167 -7.0283e-22)
(-0.415132 0.131379 0)
(-0.645289 -0.37434 8.99931e-23)
(-0.390417 0.194 -2.27965e-22)
(-0.000365175 0.0989237 2.06632e-21)
(-0.702564 -0.30223 0)
(0.000169744 0.0748999 -1.55601e-21)
(-0.716445 -0.231089 1.00964e-22)
(-0.365769 0.239287 0)
(-0.286523 0.264399 -1.79032e-21)
(-0.506741 -0.0517616 6.31973e-22)
(-0.174974 -0.068722 -3.38932e-22)
(-0.628138 -0.158685 6.85823e-23)
(-0.343869 0.253248 5.00925e-22)
(-0.0427768 0.0399611 -9.80582e-22)
(0.00636794 0.0725137 -1.37658e-21)
(-0.359958 0.244847 0)
(-0.75339 -0.239531 0)
(-0.291256 0.21189 -2.82935e-22)
(-0.305624 0.218431 0)
(-0.445737 -0.0702256 -9.06882e-22)
(-0.478804 -0.0906178 9.6583e-22)
(-0.0889052 0.0328462 1.76669e-22)
(-0.0758314 0.037125 -1.88716e-22)
(-0.280097 0.214316 2.72112e-22)
(-0.432646 -0.0530085 0)
(-0.107557 0.0154958 3.32094e-22)
(-0.322426 0.256024 0)
(-0.56947 -0.112608 -5.73291e-22)
(-0.0803036 0.0103508 2.31709e-22)
(-0.544999 -0.291566 -4.70548e-22)
(-0.407643 0.113358 2.7394e-22)
(-0.0901119 0.159532 -1.48353e-21)
(-0.662759 -0.346205 0)
(-0.412397 0.15304 4.41217e-22)
(-0.0265827 0.115362 0)
(-0.0675877 0.144374 -4.77122e-22)
(-0.406985 0.13083 -1.47868e-22)
(-0.579355 -0.298475 -2.87829e-22)
(-0.526548 -0.240184 1.82631e-22)
(0.00900974 0.0523191 3.98999e-22)
(-0.240124 0.137724 0)
(-0.231662 0.179908 6.02888e-22)
(-0.235377 0.172947 0)
(-0.139756 0.0168192 0)
(-0.340586 0.000319115 2.02045e-21)
(-0.129643 0.0313299 0)
(-0.334154 -0.00608864 -1.30979e-21)
(-0.305381 0.247359 0)
(-0.291823 0.241112 0)
(-0.119842 -0.012625 2.86367e-23)
(-0.518574 -0.0834754 4.40957e-22)
(-0.103462 -0.000359666 1.68278e-21)
(-0.485949 -0.0645114 -1.00414e-21)
(-0.49426 -0.300502 0)
(-0.000697046 0.0511521 8.72074e-22)
(-0.276081 0.106707 0)
(-0.672759 -0.352384 2.16816e-23)
(-0.409527 0.154506 3.66818e-23)
(-0.0190337 0.106568 4.12989e-22)
(-0.246266 0.228314 -1.06455e-21)
(-0.204775 -0.0718979 -7.70798e-22)
(-0.416016 -0.00668101 1.32073e-21)
(-0.509469 -0.286499 1.10931e-21)
(-0.412709 0.0901178 6.3991e-22)
(-0.122722 0.183399 0)
(-0.00506456 0.0697304 1.66262e-21)
(-0.70627 -0.219617 -1.08212e-22)
(-0.363508 0.243187 4.77842e-22)
(-0.639427 -0.331553 0)
(-0.336292 0.15587 0)
(0.00495961 0.0721958 0)
(-0.649712 -0.342015 0)
(-0.353855 0.154397 6.24124e-23)
(0.00164026 0.0768259 1.47612e-22)
(-0.336016 0.237238 -4.95938e-22)
(-0.576082 -0.143213 2.33887e-22)
(-0.0458356 0.0471982 4.70898e-22)
(-0.187879 0.182836 -1.79643e-22)
(-0.235089 -0.0612524 0)
(-0.333009 0.0480631 -3.28385e-23)
(-0.387298 0.194425 2.65695e-22)
(0.00318937 0.0962921 1.1973e-21)
(-0.715064 -0.309611 7.36479e-23)
(-0.537909 -0.258447 0)
(-0.390763 0.133423 0)
(-0.0726315 0.14705 1.6162e-21)
(-0.00532695 0.0953578 4.06067e-22)
(-0.667435 -0.254524 3.75745e-22)
(-0.379787 0.20704 9.74184e-22)
(-0.283087 0.241411 0)
(-0.139532 -0.0283277 -1.157e-21)
(-0.471999 -0.0523566 5.5069e-22)
(-0.350527 0.0846015 8.8269e-24)
(-0.358714 -0.150414 6.28477e-22)
(-0.142476 0.176454 0)
(-0.221251 0.197053 3.44964e-23)
(-0.189797 -0.0410683 -2.38339e-22)
(-0.35975 0.0147341 -6.32294e-22)
(0.000290458 0.0973333 6.77711e-24)
(-0.709108 -0.324133 -2.10899e-22)
(-0.390383 0.184995 2.36165e-22)
(-0.367599 0.214891 -1.96134e-22)
(-0.634547 -0.217428 -1.50166e-22)
(-0.0132416 0.0869569 0)
(-0.210325 0.17473 -6.54202e-22)
(-0.168288 -0.00207538 1.46232e-21)
(-0.322887 0.0232111 -1.11312e-21)
(-0.355678 0.242034 2.93044e-22)
(0.0116414 0.0749971 6.00416e-22)
(-0.767834 -0.249013 2.10816e-22)
(-0.27031 0.192553 -3.46413e-22)
(-0.392294 -0.0472088 0)
(-0.0994869 0.0367372 0)
(-0.293211 0.105768 -1.4309e-21)
(-0.302465 -0.0711802 3.93556e-22)
(-0.121196 0.137427 0)
(-0.498613 -0.247894 0)
(-0.388595 0.113799 6.93204e-22)
(-0.0964661 0.16201 0)
(-0.330405 0.206137 -1.13789e-22)
(0.0204177 0.0799727 -1.83068e-22)
(-0.741934 -0.28362 -7.4494e-22)
(-0.332705 0.214646 3.26521e-22)
(0.0213303 0.0804836 0)
(-0.755074 -0.274966 5.07141e-22)
(-0.00218786 0.0903025 3.6066e-22)
(-0.6797 -0.249724 -1.11658e-22)
(-0.376558 0.215129 -9.0569e-22)
(-0.365431 0.0724914 -3.14936e-22)
(-0.365715 -0.167867 -6.60864e-22)
(-0.156012 0.187524 0)
(0.0205467 0.0762678 1.67862e-22)
(-0.717731 -0.276214 6.9372e-22)
(-0.3102 0.196961 0)
(-0.0225245 0.113265 0)
(-0.639685 -0.283198 -2.1384e-22)
(-0.394632 0.17512 -9.81448e-23)
(0.000214895 0.0362748 6.92788e-22)
(-0.387132 -0.236283 -9.48898e-22)
(-0.202299 0.0803548 0)
(-0.185452 0.108408 -7.61132e-23)
(-0.421662 -0.185117 0)
(0.00632379 0.0393909 6.88716e-22)
(0.00578435 0.0760613 -5.2014e-25)
(-0.739732 -0.243418 0)
(-0.364235 0.239655 0)
(0.00172927 0.0916959 0)
(-0.700075 -0.339638 0)
(-0.3838 0.175589 2.26554e-22)
(-0.377351 0.21333 -2.77388e-22)
(-0.380054 0.212333 2.24445e-22)
(0.00939194 0.0898379 -6.73885e-22)
(-0.730474 -0.285026 3.19819e-23)
(0.0058702 0.0913685 -1.11034e-21)
(-0.714673 -0.277948 1.58764e-23)
(-0.398608 0.166005 1.95942e-22)
(-0.630426 -0.289585 1.82869e-22)
(-0.0297836 0.118808 0)
(-0.142594 0.197497 0)
(-0.481876 -0.275677 0)
(-0.4148 0.0773679 0)
(-0.231055 0.154793 0)
(-0.12671 0.0513583 -2.02509e-21)
(-0.307373 -0.00229284 7.6479e-22)
(-0.400423 0.146541 5.59638e-22)
(-0.591364 -0.286905 8.75691e-23)
(-0.0510286 0.133319 1.41347e-21)
(-0.0622706 0.14056 9.10148e-22)
(-0.399924 0.138173 -7.74064e-22)
(-0.573003 -0.283194 -1.21863e-22)
(-0.357268 0.253859 3.75068e-22)
(-0.00097733 0.0646381 6.56853e-22)
(-0.748034 -0.222777 -8.42273e-23)
(-0.309478 0.253835 0)
(-0.536432 -0.0887639 1.57433e-22)
(-0.102738 -0.00466513 -1.64921e-21)
(-0.29234 0.230582 0)
(-0.470938 -0.0666155 1.05625e-21)
(-0.108348 0.00133675 4.28347e-24)
(-0.377214 0.154775 -8.98941e-22)
(-0.543138 -0.232785 1.36506e-22)
(-0.0522519 0.1279 -8.25245e-22)
(-0.383655 0.148748 0)
(-0.548588 -0.245629 1.33439e-22)
(-0.0567431 0.132765 7.47423e-22)
(-0.198969 0.163831 0)
(-0.174181 0.00337884 -2.28428e-21)
(-0.303359 0.0340685 6.70201e-22)
(-0.308973 0.22523 0)
(-0.493652 -0.0947821 0)
(-0.0749355 0.0300457 2.58108e-22)
(-0.0470865 0.125733 -1.43005e-21)
(-0.63831 -0.370273 -2.95101e-22)
(-0.427391 0.125887 0)
(-0.359034 0.143227 7.31961e-24)
(-0.00297703 0.0763105 0)
(-0.627883 -0.34876 -2.94249e-22)
(-0.350197 0.130818 -2.12983e-23)
(-0.00502813 0.0718609 0)
(-0.601195 -0.34762 8.92493e-22)
(-0.252482 0.205789 4.20274e-22)
(-0.141433 -0.00518012 -2.49424e-22)
(-0.390518 -0.019907 -5.20258e-23)
(-0.597716 -0.320631 8.92196e-23)
(0.0036308 0.0650825 1.17251e-21)
(-0.316647 0.142275 0)
(-0.371046 0.220271 8.32067e-22)
(-0.00622762 0.0858193 7.67425e-22)
(-0.665184 -0.231349 0)
(-0.0003949 0.0612117 -1.75576e-22)
(-0.561619 -0.325051 7.13924e-22)
(-0.311419 0.125118 0)
(-0.245145 0.109495 1.10759e-21)
(-0.132349 0.105544 1.19192e-21)
(-0.255386 -0.00678384 3.09594e-23)
(-0.329466 0.176818 -1.63784e-22)
(-0.469302 -0.138225 -1.72e-22)
(-0.0539901 0.0954728 -8.79195e-22)
(-0.332593 -0.149673 1.52183e-21)
(-0.366247 0.0604008 8.38238e-22)
(-0.171895 0.195124 0)
(-0.0196269 0.0975602 0)
(-0.650654 -0.368018 1.31415e-22)
(-0.40341 0.138526 0)
(-0.525961 -0.262989 0)
(-0.393368 0.124037 0)
(-0.0827366 0.153595 0)
(0.0152206 0.0798807 0)
(-0.357006 0.233333 -2.45297e-22)
(-0.766894 -0.26153 -2.06895e-22)
(-0.342306 0.179296 0)
(-0.497916 -0.1593 9.58617e-23)
(-0.0464448 0.0999249 8.60532e-22)
(-0.224207 0.146057 0)
(-0.132589 0.0557833 1.74404e-21)
(-0.290814 0.0066306 0)
(-0.66878 -0.360547 1.63704e-22)
(-0.40042 0.150888 7.25508e-23)
(-0.0142194 0.097775 0)
(-0.0106171 0.103804 -8.31971e-22)
(-0.662246 -0.278264 1.08469e-23)
(-0.389209 0.190716 4.33272e-23)
(-0.34413 0.197885 0)
(-0.335693 0.192014 1.49652e-22)
(0.0168527 0.0817642 -4.2706e-22)
(0.0162115 0.0792852 -5.15909e-22)
(-0.728485 -0.302143 3.69855e-22)
(-0.714128 -0.304432 -3.04327e-22)
(-0.334962 0.12534 0)
(-0.405619 -0.150847 2.41216e-21)
(-0.0931619 0.139895 9.13752e-22)
(-0.493131 -0.21866 1.52705e-21)
(-0.372254 0.131117 0)
(-0.0781023 0.144588 -9.82185e-22)
(-0.275441 0.120293 -8.34735e-22)
(-0.30438 -0.05575 6.54164e-22)
(-0.108796 0.117166 1.52473e-21)
(-0.645817 -0.358645 -4.48575e-22)
(-0.378227 0.145042 2.0518e-23)
(-0.633552 -0.363633 2.63222e-22)
(-0.00719103 0.0839197 0)
(-0.382139 0.135909 -2.14521e-23)
(-0.0117923 0.084571 0)
(-0.365242 0.185182 0)
(-0.56481 -0.209435 0)
(-0.0313462 0.105314 9.37767e-22)
(-0.392621 0.15761 1.07452e-22)
(-0.382858 0.154356 -1.90062e-22)
(-0.676592 -0.356036 -2.85202e-22)
(-0.66695 -0.355297 5.84519e-22)
(-0.0076447 0.0932661 1.20808e-21)
(-0.00513847 0.0873627 -4.14521e-24)
(-0.367826 0.123012 0)
(-0.468987 -0.208007 -1.46202e-21)
(-0.0923253 0.154048 1.29125e-21)
(-0.315825 0.146169 7.21941e-22)
(-0.428239 -0.134067 -1.05306e-21)
(-0.0680933 0.112397 0)
(-0.34765 0.221294 0)
(0.0195532 0.0820947 0)
(-0.762363 -0.277718 -4.87833e-22)
(-0.333734 0.136217 5.30837e-22)
(-0.421834 -0.148396 -6.51085e-22)
(-0.0817206 0.131482 -1.5152e-21)
(-0.289507 0.128337 3.35042e-22)
(-0.338407 -0.0818863 -7.64165e-22)
(-0.098169 0.118333 8.51649e-22)
(-0.341497 0.204311 0)
(0.0187066 0.0818611 0)
(-0.742449 -0.29462 6.01359e-22)
(-0.34336 0.190013 0)
(-0.522219 -0.163209 1.4921e-22)
(-0.0385117 0.0914547 -9.14469e-22)
(-0.418517 -0.233036 0)
(-0.410978 0.0571088 0)
(-0.173686 0.215655 -4.72095e-23)
(-0.282652 0.248283 -4.49885e-23)
(-0.480214 -0.0490084 0)
(-0.151872 -0.0422679 1.77344e-21)
(-0.582835 -0.337414 4.95101e-22)
(-0.0896357 0.161277 0)
(-0.42723 0.106306 0)
(0.00242537 0.0317482 -1.66039e-21)
(-0.356536 -0.180202 -1.72786e-21)
(-0.169185 0.0793711 8.60337e-23)
(-0.337766 0.157718 0)
(-0.455429 -0.154137 6.56525e-22)
(-0.0618571 0.115123 -7.81655e-22)
(-0.364035 0.217501 4.33784e-22)
(0.0158175 0.0858778 2.23972e-21)
(-0.75098 -0.285153 0)
(-0.227894 -0.106865 -4.44353e-22)
(-0.46897 -0.0227096 -4.08056e-22)
(-0.261682 0.256407 -4.15596e-22)
(-0.237524 0.148058 0)
(0.0122463 0.0553164 -6.06408e-22)
(-0.555338 -0.232283 0)
(-0.159895 0.163318 8.80612e-22)
(-0.168274 0.174034 -8.99605e-22)
(-0.255204 -0.0637936 0)
(-0.309957 0.0699854 6.64426e-22)
(-0.264887 -0.0798946 -1.56725e-21)
(-0.325809 0.0629446 -5.24996e-22)
(-0.276988 0.107681 7.8845e-22)
(-0.283461 -0.0478748 9.19605e-22)
(-0.121946 0.127285 0)
(-0.19221 0.176487 7.51405e-22)
(-0.174703 0.166622 0)
(-0.207822 -0.0358944 -8.6638e-22)
(-0.322019 0.0415382 6.13896e-22)
(-0.22184 -0.0390844 8.72452e-22)
(-0.307723 0.0570606 8.10099e-24)
(-0.327077 0.156013 4.4131e-23)
(-0.397243 -0.119281 -4.80759e-22)
(-0.0801513 0.118835 -1.063e-21)
(-0.319044 0.137999 -1.2439e-21)
(-0.395927 -0.123947 1.21054e-23)
(-0.0858114 0.126451 0)
(-0.0102465 0.0768746 0)
(-0.603429 -0.35821 0)
(-0.366527 0.126671 -5.13848e-23)
(-0.265791 0.206002 -3.88855e-22)
(-0.404595 -0.035574 0)
(-0.119543 0.0120567 4.55558e-22)
(-0.392932 0.167894 -3.69758e-22)
(-0.690863 -0.347859 -2.06944e-22)
(-0.00413333 0.0957357 -6.914e-22)
(-0.379096 0.165798 0)
(-0.386436 0.168384 4.36624e-22)
(-0.569788 -0.238069 -1.69806e-22)
(-0.594972 -0.255379 4.14699e-22)
(-0.0397085 0.120445 -1.02255e-21)
(-0.034416 0.11936 -9.2944e-22)
(-0.261059 0.1953 0)
(-0.385742 -0.0331998 0)
(-0.114443 0.0232277 2.21626e-22)
(-0.320029 0.240596 4.16956e-22)
(-0.538944 -0.11071 0)
(-0.0725153 0.0254665 5.45314e-22)
(-0.361787 0.166252 -2.59684e-22)
(-0.525079 -0.201761 0)
(-0.0456916 0.117486 0)
(-0.199488 0.127401 8.76364e-22)
(-0.254869 0.0368583 -4.37072e-22)
(-0.157003 0.0498639 4.83683e-22)
(-0.39277 0.153388 0)
(-0.583518 -0.269073 0)
(-0.0473573 0.129516 -1.504e-21)
(-0.221672 0.160903 0)
(-0.139442 0.0340754 2.52292e-22)
(-0.309155 0.00851805 0)
(-0.363335 0.135517 -6.08431e-22)
(-0.476715 -0.204115 -8.11031e-22)
(-0.0771751 0.140521 -1.29375e-22)
(-0.320436 0.230888 4.09119e-22)
(-0.525997 -0.11354 0)
(-0.0639376 0.0359275 1.12441e-21)
(-0.20454 0.139273 -8.68478e-22)
(-0.196908 0.143975 -3.80765e-22)
(-0.272129 0.0279808 4.16219e-22)
(-0.151321 0.042754 -9.42799e-22)
(-0.276747 0.0347515 0)
(-0.162053 0.0276055 -1.70152e-21)
(-0.18416 0.157544 -3.9163e-22)
(-0.191494 -0.00847686 1.04807e-21)
(-0.174421 0.160547 2.51694e-22)
(-0.293863 0.0477564 -8.72983e-22)
(-0.217989 -0.0295399 -5.32841e-22)
(-0.299691 0.0582599 7.6409e-23)
(-0.287411 0.201783 4.09147e-22)
(-0.300042 0.200008 0)
(-0.427317 -0.0685228 7.29014e-22)
(-0.444767 -0.0871209 -5.6465e-22)
(-0.085121 0.0429219 -1.02758e-21)
(-0.0718223 0.0570524 1.71147e-21)
(0.000254785 0.0802279 0)
(-0.701082 -0.236458 -3.58075e-23)
(-0.36926 0.23084 -4.62635e-22)
(-0.183995 0.219021 5.72069e-22)
(-0.405809 0.0498724 4.50156e-22)
(-0.383899 -0.207091 -1.47806e-21)
(0.00513806 0.0840117 -7.74286e-22)
(0.00389749 0.0883621 6.15824e-22)
(-0.71564 -0.253859 3.0208e-23)
(-0.704992 -0.261575 1.00785e-22)
(-0.372098 0.227006 1.15273e-21)
(-0.376797 0.218779 -5.88694e-22)
(-0.225755 0.229817 7.84377e-22)
(-0.26379 -0.116459 -7.32174e-22)
(-0.408378 0.0157134 1.41284e-22)
(-0.19879 0.104326 1.48928e-21)
(-0.166858 0.0694758 0)
(-0.224071 0.0496343 -1.47797e-21)
(-0.39307 0.162155 -1.92775e-22)
(-0.602897 -0.27209 -4.66387e-22)
(-0.0375745 0.123225 0)
(-0.243904 0.188302 0)
(-0.132008 0.0117409 -2.11615e-22)
(-0.360892 -0.0129012 -6.36283e-22)
(-0.327326 0.230011 0)
(-0.541274 -0.126445 0)