/*--------------------------------*- C++ -*----------------------------------*\
  =========                 |
  \\      /  F ield         | OpenFOAM: The Open Source CFD Toolbox
   \\    /   O peration     | Website:  https://openfoam.org
    \\  /    A nd           | Version:  6
     \\/     M anipulation  |
\*---------------------------------------------------------------------------*/
FoamFile
{
    version     2.0;
    format      ascii;
    class       volVectorField;
    location    "0";
    object      U;
}
// * * * * * * * * * * * * * * * * * * * * * * * * * * * * * * * * * * * * * //

dimensions      [0 1 -1 0 0 0 0];

internalField   nonuniform List<vector> 
9000
(
(0.266694 -0.112298 0)
(-0.167743 -0.0248077 0)
(-0.279229 0.00687179 0)
(0.345042 0.000481916 0)
(-0.585703 -0.00428107 0)
(0.127769 0.002272 0)
(-0.0374571 -0.000418775 0)
(-0.074965 0.000593425 0)
(-0.224463 0.000109281 0)
(-0.00905919 5.7801e-05 0)
(-0.0543854 0.00024109 0)
(-0.0623885 0.000153612 0)
(-0.0657693 0.000255126 0)
(-0.0124584 3.63504e-05 0)
(-0.0164023 9.66733e-05 0)
(-0.000843177 6.66315e-05 0)
(-0.0356642 4.99292e-05 0)
(-0.0432438 1.86009e-05 0)
(-0.0594768 2.94926e-05 0)
(-0.0283113 2.67702e-05 0)
(-0.0410755 2.27495e-05 0)
(-0.0624478 2.22296e-05 0)
(-0.0159702 2.19533e-05 0)
(-0.0486533 2.24625e-05 0)
(-0.038947 2.33147e-05 0)
(-0.0291646 2.53104e-05 0)
(-0.0159044 2.79298e-05 0)
(-0.0659914 2.92856e-05 0)
(-0.0576533 3.68812e-05 0)
(-0.0515527 4.19432e-05 0)
(-0.0321323 4.09506e-05 0)
(-0.0437284 4.73735e-05 0)
(-0.0148587 4.63977e-05 0)
(-0.0182025 5.79075e-05 0)
(-0.0579335 6.3946e-05 0)
(-0.0563338 6.48284e-05 0)
(-0.0418719 7.52198e-05 0)
(-0.0389063 8.51563e-05 0)
(-0.0649198 9.62654e-05 0)
(-0.0312036 0.000106838 0)
(-0.0460915 0.000148122 0)
(-0.0354546 0.000180233 0)
(-0.0168996 0.000225739 0)
(-0.0488538 0.000282767 0)
(-0.0548892 0.000566111 0)
(-0.0691484 0.000322496 0)
(-0.0605872 0.000397089 0)
(-0.247929 -0.00128244 0)
(0.0111408 0.0046775 0)
(0.069174 -0.0254856 0)
(-3.11003 0.0614141 0)
(0.33518 0.168023 0)
(0.027665 0.0983726 0)
(-0.308743 -0.0469458 0)
(0.0520739 0.00843277 0)
(-0.183586 0.0236767 0)
(0.298669 0.0364528 0)
(0.242769 -0.019284 0)
(0.162686 0.00222302 0)
(-0.234866 0.00181968 0)
(0.128819 0.00433559 0)
(-0.261976 0.00400135 0)
(0.0748241 0.00184268 0)
(-0.305416 -0.000880113 0)
(-0.232008 0.000251182 0)
(0.0844309 0.000743024 0)
(0.289884 0.000411104 0)
(0.155961 0.000236374 0)
(0.10715 0.000442324 0)
(-0.0471004 0.000381575 0)
(0.222156 0.00025454 0)
(-0.265078 0.000257863 0)
(-0.148102 0.000198822 0)
(0.0216447 0.000215057 0)
(0.211424 0.000223883 0)
(0.0404442 0.000220935 0)
(-0.0227386 0.000238498 0)
(0.674956 0.000252093 0)
(-0.0210188 0.000227863 0)
(0.0666196 0.000249101 0)
(0.102478 0.000248919 0)
(0.225551 0.000268627 0)
(0.105232 0.000253758 0)
(-0.146945 0.000238636 0)
(0.478953 0.000237798 0)
(-0.226279 0.000217158 0)
(-0.422157 0.000479367 0)
(-0.0321941 0.000169921 0)
(-0.375952 0.000503945 0)
(-0.133429 0.000199425 0)
(-0.247956 7.13572e-05 0)
(-0.306827 0.000140265 0)
(-0.142558 -0.00236014 0)
(-0.0318296 -0.00398789 0)
(0.0318016 0.00262596 0)
(-0.0447541 -0.00272362 0)
(0.306029 0.0045031 0)
(0.0208013 -0.00229271 0)
(0.156559 0.0135778 0)
(0.0104778 0.0671717 0)
(0.0694588 0.0551847 0)
(1.59703 0.480798 0)
(-0.140494 0.144227 0)
(0.270792 -0.307145 0)
(0.376787 0.225223 0)
(0.331217 0.0219844 0)
(-0.149471 -0.00483621 0)
(-0.425421 -0.00457524 0)
(-0.0513297 -0.0131046 0)
(0.366634 0.0053018 0)
(0.10092 0.0421418 0)
(0.0278826 0.00127773 0)
(0.0515775 0.00355469 0)
(0.154184 9.37003e-05 0)
(-0.0723901 -0.00106447 0)
(-0.324696 0.0029863 0)
(-0.205087 0.00657875 0)
(-0.11287 0.00312591 0)
(0.144061 0.000952127 0)
(-0.0822962 0.000460796 0)
(0.0326904 0.00104354 0)
(-0.0594393 0.00053422 0)
(-0.0362956 0.000336161 0)
(-0.476979 0.00059432 0)
(0.289826 0.000524468 0)
(-0.0172098 0.000535176 0)
(-0.135162 0.000511916 0)
(-0.251348 0.000550717 0)
(-0.170604 0.000533283 0)
(0.00208623 0.000584106 0)
(0.416712 0.000639501 0)
(-0.192658 0.000557219 0)
(0.316643 0.000563523 0)
(-0.0187889 0.000565309 0)
(-0.10127 0.000871423 0)
(-0.199257 0.000838309 0)
(-0.614685 0.000373926 0)
(0.260387 0.000227073 0)
(-0.0822016 1.19691e-05 0)
(-0.0378125 -0.000113709 0)
(-0.115737 -0.000668166 0)
(-0.0238296 -0.0046812 0)
(-0.0674874 -0.00326441 0)
(0.128562 0.00170424 0)
(-0.0239036 -0.00278901 0)
(-0.478111 0.031927 0)
(0.163958 0.0303082 0)
(0.0837812 0.0286919 0)
(-0.197915 0.0530058 0)
(0.26953 -0.240475 0)
(2.42026 -0.348494 0)
(-2.68004 -0.486728 0)
(-2.58526 0.264373 0)
(-0.126174 -0.218455 0)
(0.0693693 -0.300587 0)
(-0.110488 0.18784 0)
(0.177512 -0.037136 0)
(0.179795 -0.0256647 0)
(-0.302858 -0.00327265 0)
(0.0917452 0.0278051 0)
(0.34977 0.0150912 0)
(0.0617466 0.031401 0)
(0.042537 -0.0380151 0)
(0.249507 0.00495586 0)
(0.247252 0.00575189 0)
(0.22333 0.000977585 0)
(0.219978 0.00238546 0)
(-0.390108 0.00362208 0)
(-0.130968 0.00634814 0)
(-0.153977 0.00104918 0)
(0.178158 0.00145635 0)
(0.0870746 0.000847845 0)
(-0.231363 0.00116631 0)
(0.17687 0.000481168 0)
(-0.23202 0.00117029 0)
(-0.113292 0.000961079 0)
(0.669815 0.00101693 0)
(0.0965414 0.00100416 0)
(0.27111 0.00104527 0)
(0.382025 0.00103226 0)
(0.378199 0.000990347 0)
(-0.184726 0.000997417 0)
(-0.0989278 0.000931645 0)
(0.325939 0.000969995 0)
(0.423817 0.000806732 0)
(-0.283829 0.000502219 0)
(0.396399 -2.91615e-05 0)
(-0.0618837 0.00256364 0)
(0.530009 -0.0029884 0)
(-0.0184174 0.00207846 0)
(0.119186 -0.00177822 0)
(-0.0379656 -0.000431584 0)
(-0.00214714 -0.00427841 0)
(0.0221239 -0.00928601 0)
(0.115343 -0.0106905 0)
(-0.0143005 0.0359866 0)
(0.575358 0.00517052 0)
(-0.418728 -0.0111262 0)
(-0.0952232 -0.0442248 0)
(0.0317066 -0.347297 0)
(-0.385581 -0.0164766 0)
(2.40049 0.0346426 0)
(0.74421 0.248571 0)
(1.15427 0.0296543 0)
(-2.05251 0.490795 0)
(-0.183553 0.025428 0)
(0.0449243 -0.0287001 0)
(-0.174365 -0.0270489 0)
(-0.261962 0.038658 0)
(0.0373739 0.0011405 0)
(0.298864 -0.000542706 0)
(-0.0706863 -0.04319 0)
(0.211551 -0.000378617 0)
(0.0328078 0.0477395 0)
(0.275261 0.0102279 0)
(-0.843249 0.00193959 0)
(0.00429443 0.00706199 0)
(0.588988 0.0056286 0)
(-0.0487555 0.00162276 0)
(0.226659 0.00334387 0)
(-0.119954 0.0044069 0)
(0.0821608 0.00192728 0)
(0.16108 0.00184557 0)
(-0.274544 0.00188562 0)
(0.173341 0.00150191 0)
(0.363265 0.00117359 0)
(0.0488085 0.00166122 0)
(-0.0857962 0.00144728 0)
(-0.103165 0.0021049 0)
(0.330235 0.00157647 0)
(-0.237903 0.00158615 0)
(0.068339 0.0014757 0)
(0.014742 0.00119387 0)
(-0.0456978 0.00139032 0)
(-0.00752936 0.000714275 0)
(-0.552852 -0.000131574 0)
(-0.195973 0.00220894 0)
(-0.0868436 0.0040662 0)
(0.108402 0.00158864 0)
(-0.0364923 0.000471636 0)
(-0.167187 -0.0057734 0)
(0.130725 -0.00679392 0)
(0.154736 -0.0199728 0)
(-0.385698 0.00239417 0)
(0.288541 -0.0128001 0)
(0.098505 -0.0122834 0)
(0.500385 0.0131253 0)
(0.0170928 0.00540056 0)
(0.199708 -0.575185 0)
(-0.259441 0.184119 0)
(0.0386141 0.141197 0)
(1.08367 0.152077 0)
(-0.161904 0.598881 0)
(2.2711 0.10241 0)
(1.08916 -0.459502 0)
(0.84387 0.0907456 0)
(-0.210694 0.393129 0)
(0.0204021 0.0370052 0)
(-0.204928 -0.0370086 0)
(-0.323158 0.00312207 0)
(-0.272003 0.0229645 0)
(-0.0735796 0.0248069 0)
(-0.351513 -0.0210662 0)
(-0.231123 -0.0202075 0)
(0.193115 0.00812548 0)
(-0.0742143 0.0241858 0)
(0.157864 0.00521889 0)
(-0.118331 0.00260374 0)
(0.0297153 0.00606175 0)
(0.0848162 -0.00166924 0)
(-0.371516 0.00299011 0)
(-0.135593 0.000618096 0)
(0.312279 0.00254718 0)
(0.420842 0.00223919 0)
(0.53417 0.00214222 0)
(0.193528 0.00195356 0)
(-0.368602 0.00201668 0)
(0.473427 0.00252675 0)
(-0.0569576 0.00215958 0)
(0.348515 0.00222682 0)
(-0.105011 0.00214132 0)
(-0.139437 0.002227 0)
(-0.415835 0.00208093 0)
(-0.131301 0.00138995 0)
(0.24935 0.00162565 0)
(0.0460814 -0.00122634 0)
(0.125889 -0.00167456 0)
(-0.0215758 0.00065523 0)
(0.194345 -0.00352432 0)
(-0.156319 -0.00580766 0)
(-0.39913 -0.00673983 0)
(-0.0239429 -0.0185337 0)
(0.104277 -0.0213648 0)
(-0.00940605 0.0246378 0)
(0.443049 -0.0033272 0)
(0.207912 -0.0104612 0)
(0.0429166 -0.000199362 0)
(-0.0511481 -0.173708 0)
(-0.143387 -0.363024 0)
(0.382423 -0.231471 0)
(4.65678 0.012799 0)
(4.60835 0.362729 0)
(-3.88369 0.022354 0)
(1.91667 0.112499 0)
(-1.894 0.277737 0)
(0.834252 0.0376437 0)
(-0.575258 0.283097 0)
(1.55254 -0.209866 0)
(-0.68239 0.290367 0)
(0.53843 -0.000253963 0)
(-0.289315 0.0248293 0)
(0.354301 0.00916775 0)
(0.198434 0.0477077 0)
(-0.0386791 -0.0247679 0)
(-0.0797835 0.0390699 0)
(-0.109828 0.00542203 0)
(0.236393 0.00620295 0)
(-0.165335 0.00435876 0)
(0.119072 0.0076102 0)
(-0.0890878 0.00422869 0)
(0.0579449 0.00580798 0)
(-0.24558 0.00314787 0)
(0.369489 0.00412872 0)
(0.427862 0.00305245 0)
(0.286523 0.00316298 0)
(-0.0763331 0.00331278 0)
(0.399395 0.0032205 0)
(-0.258561 0.00253194 0)
(-0.157299 0.00280355 0)
(0.331717 0.00284822 0)
(-0.034372 0.00261531 0)
(0.439216 0.00240572 0)
(0.1543 0.00253192 0)
(-0.168238 0.00194623 0)
(-0.0509695 0.000859026 0)
(0.17552 0.00182327 0)
(-0.169721 0.00116773 0)
(0.0393909 -0.00251394 0)
(-0.402873 -0.00193789 0)
(-0.149932 -0.0016285 0)
(-0.1844 -0.0147236 0)
(0.0983929 -0.00600379 0)
(0.115797 0.00124731 0)
(-0.254151 0.0224026 0)
(-0.0214537 0.000115341 0)
(-0.309297 -0.0320085 0)
(0.0701184 -0.0299459 0)
(1.79745 -0.0599617 0)
(-2.7979 0.493955 0)
(0.927299 -0.221731 0)
(0.0107756 -0.0340996 0)
(-1.63122 0.123927 0)
(0.614094 0.044082 0)
(-2.63229 -0.125343 0)
(-2.20151 0.397294 0)
(-3.77247 0.0435267 0)
(0.23088 -0.149198 0)
(-1.70656 -0.221312 0)
(1.64656 -0.424212 0)
(-1.30689 0.0235729 0)
(1.01344 -0.00400375 0)
(1.48607 -0.0206241 0)
(-1.34984 -0.00762435 0)
(-1.35495 0.00784664 0)
(-0.0949765 0.0251979 0)
(0.233385 -0.0301833 0)
(0.436955 0.00123076 0)
(-0.395102 0.00423138 0)
(-2.38049 0.00867817 0)
(-0.503408 0.00521879 0)
(0.573481 0.0047265 0)
(0.896349 0.00381747 0)
(0.488655 0.00792195 0)
(-0.769672 0.00450074 0)
(0.383493 0.00319674 0)
(-0.957613 0.00394047 0)
(0.704675 0.00391073 0)
(0.327276 0.00343827 0)
(0.941702 0.0038436 0)
(-0.337922 0.00345877 0)
(0.382376 0.0033987 0)
(0.573703 0.00316439 0)
(1.09144 0.00248423 0)
(1.00365 0.0053846 0)
(-0.101274 4.77162e-06 0)
(-0.188714 -0.00124698 0)
(0.552695 -0.000453073 0)
(-0.425564 0.000196563 0)
(0.713433 -0.00401699 0)
(-1.76576 -0.0134831 0)
(0.345285 0.0275072 0)
(0.507804 0.00697187 0)
(-1.80045 -0.0154704 0)
(0.608666 -0.00420354 0)
(-0.965678 -0.0177157 0)
(2.00408 0.0279923 0)
(-1.56515 -0.152808 0)
(-0.255173 0.0953591 0)
(-4.04921 -0.434992 0)
(-0.438172 0.0129992 0)
(0.502161 0.389354 0)
(0.770857 -0.178261 0)
(-0.691024 -0.0953656 0)
(-3.74716 0.0480289 0)
(0.458396 0.0722017 0)
(2.11057 0.237686 0)
(-2.00011 0.276891 0)
(-0.791925 -0.227024 0)
(1.87699 0.342441 0)
(4.50143 -0.223033 0)
(3.48485 0.0250156 0)
(0.521345 0.0360131 0)
(-5.54252 0.0346958 0)
(-1.66178 -0.018729 0)
(0.646808 -0.0196508 0)
(-3.38281 0.00202302 0)
(-7.4734 0.0200828 0)
(1.1691 0.00570401 0)
(0.425994 0.00904427 0)
(-1.28753 0.00617892 0)
(0.664729 0.00122732 0)
(1.21941 0.00477694 0)
(0.872792 0.00472305 0)
(-0.963814 0.00592862 0)
(2.62474 0.00442289 0)
(3.08722 0.00453703 0)
(1.23564 0.00424336 0)
(1.20002 0.00493072 0)
(-0.537683 0.0042671 0)
(0.365502 0.0042154 0)
(-1.73063 0.00363353 0)
(-0.979046 0.0038002 0)
(1.71874 0.00534203 0)
(0.49739 0.000446312 0)
(-0.977525 0.00475117 0)
(1.09014 0.00336776 0)
(-1.65461 0.00163981 0)
(-3.62872 -0.00486924 0)
(1.66083 -0.0271915 0)
(1.11863 -0.0266234 0)
(-3.06733 0.0192324 0)
(-0.998366 -0.0226904 0)
(-0.229506 -0.0307049 0)
(0.230053 -0.023784 0)
(1.89235 -0.0473203 0)
(0.618736 -0.023647 0)
(1.28548 -0.336666 0)
(5.77488 0.228419 0)
(-0.344648 -0.221882 0)
(-2.23894 -0.0734267 0)
(0.793384 0.0634738 0)
(-1.74008 -0.408461 0)
(-1.69064 -0.320003 0)
(-0.648311 -0.069489 0)
(1.3612 0.0811469 0)
(-2.32682 -0.333419 0)
(1.54892 0.121795 0)
(2.21171 -0.283571 0)
(-0.821662 0.372173 0)
(-0.903323 -0.0024359 0)
(4.82561 0.0242642 0)
(4.14401 0.0332618 0)
(-0.173649 -0.00542585 0)
(0.125433 0.0304745 0)
(-0.401961 -0.0144012 0)
(-0.712 -0.023895 0)
(-0.351737 0.0214872 0)
(-0.993683 -0.0469884 0)
(2.562 0.00755779 0)
(-0.25337 0.00363834 0)
(2.27392 0.00952234 0)
(0.172873 0.00662579 0)
(5.41111 0.00163378 0)
(1.63564 0.00665288 0)
(-0.785188 0.00541401 0)
(1.85975 0.00549599 0)
(-1.5471 0.00525736 0)
(-2.16516 0.00489552 0)
(-0.475066 0.00502928 0)
(-0.626543 0.00502771 0)
(0.712745 0.00409992 0)
(1.50238 0.00443769 0)
(4.2074 0.00456151 0)
(-3.68853 0.003712 0)
(0.266484 0.000738732 0)
(1.35301 -0.00520049 0)
(2.62897 0.000543099 0)
(2.74192 -0.00542756 0)
(-1.55158 -0.0190338 0)
(0.154693 0.0341783 0)
(0.398891 0.0168445 0)
(-1.04821 -0.0155605 0)
(-0.487665 0.0103839 0)
(-3.2508 -0.0334029 0)
(-0.924004 -0.0669004 0)
(2.19487 -0.0363379 0)
(1.09369 -0.186686 0)
(1.60554 -0.124096 0)
(0.72882 0.140511 0)
(2.18744 0.169553 0)
(1.7177 0.0302271 0)
(-0.110281 -0.154029 0)
(2.98392 -0.211696 0)
(3.4216 -0.157758 0)
(-2.03848 0.01365 0)
(2.40375 -0.0367932 0)
(0.0733576 -0.0869762 0)
(-0.342833 -0.177176 0)
(0.311205 -0.0375 0)
(-1.28106 0.125291 0)
(1.15458 0.00509412 0)
(-4.48511 -0.00740028 0)
(1.53196 0.0123052 0)
(-0.986218 -0.00254504 0)
(3.66087 -0.0331948 0)
(1.20089 0.000461929 0)
(-4.54342 -0.0141818 0)
(3.34043 0.0170982 0)
(2.49749 0.00351318 0)
(-3.71494 0.00931103 0)
(-0.207955 0.00454707 0)
(2.4047 0.00751198 0)
(3.63082 0.00511178 0)
(-0.836559 0.0056574 0)
(-1.60321 0.00657478 0)
(4.29783 0.00605596 0)
(1.93865 0.00566016 0)
(1.64335 0.00636185 0)
(3.4501 0.00599612 0)
(-3.93369 0.00553448 0)
(2.71469 0.00501231 0)
(0.880797 0.00485179 0)
(-0.695302 0.000699332 0)
(-1.94363 0.00435532 0)
(-1.01955 -0.0026707 0)
(-4.25644 -0.000176981 0)
(0.00578221 -0.00421562 0)
(0.752509 -0.0328434 0)
(1.18738 -0.0405759 0)
(-2.20277 0.0253432 0)
(3.00744 -0.0241099 0)
(-1.47067 0.00250909 0)
(0.297407 -0.0285733 0)
(-2.44654 -0.0226266 0)
(-5.5904 -0.0356025 0)
(-0.554506 -0.247041 0)
(-5.511 -0.000851618 0)
(1.65422 0.109398 0)
(1.39381 0.325819 0)
(-4.6216 0.258601 0)
(-0.278418 0.000229755 0)
(-1.88368 0.453412 0)
(-0.164301 0.254225 0)
(-2.31775 0.164798 0)
(-0.119075 0.0405939 0)
(-2.13986 0.10625 0)
(1.29334 -0.163873 0)
(-0.224062 0.0373818 0)
(-5.94371 -0.0562827 0)
(-2.65589 -0.130248 0)
(1.83572 0.0481172 0)
(-0.587242 0.0112135 0)
(-0.0509815 -0.0101273 0)
(-2.14535 0.0103552 0)
(3.59335 0.0341311 0)
(0.565501 0.0346913 0)
(-0.636429 0.0212532 0)
(0.10148 -0.0201929 0)
(0.445238 0.00699543 0)
(-5.28696 0.00732212 0)
(-1.84805 0.0111555 0)
(0.655639 0.00740271 0)
(-1.6108 0.00374039 0)
(0.744912 0.00406498 0)
(-0.022056 0.00858333 0)
(0.716928 0.00667742 0)
(1.94565 0.00627724 0)
(-2.02555 0.00625305 0)
(0.762647 0.00613155 0)
(2.38842 0.00620051 0)
(1.18343 0.00541083 0)
(-1.35093 0.0058286 0)
(-0.375206 0.00279916 0)
(-0.482766 0.00309314 0)
(1.66549 0.000576171 0)
(-1.86694 -0.000854183 0)
(-4.60702 -0.00124796 0)
(-0.590188 0.00287625 0)
(0.905459 0.0134043 0)
(-0.890314 -0.0154836 0)
(0.00286632 -0.0239389 0)
(1.18318 -0.0616267 0)
(-1.20758 -0.0482668 0)
(-0.739587 -0.0608173 0)
(2.33971 -0.0301696 0)
(2.73241 0.207362 0)
(-0.469686 0.0382746 0)
(-2.29902 -0.0350092 0)
(7.79571 -0.00696466 0)
(2.19135 -0.11372 0)
(-3.97678 0.0277955 0)
(1.47773 -0.334615 0)
(-3.34044 -0.196614 0)
(3.09842 0.141146 0)
(1.79931 0.181816 0)
(5.19708 0.145366 0)
(-2.11518 0.096723 0)
(0.0556502 -0.504697 0)
(2.81052 0.0520254 0)
(-2.59435 -0.0358538 0)
(2.69134 -0.0450962 0)
(-4.15094 -0.000424832 0)
(-0.356038 0.0209662 0)
(-1.79467 0.0354914 0)
(-0.646138 -0.00274846 0)
(-2.53912 -0.00568659 0)
(0.891978 -0.00413787 0)
(-2.84988 0.0332519 0)
(-0.177747 0.00998612 0)
(-0.564213 0.00710362 0)
(0.765277 0.0138411 0)
(-0.610029 0.00685221 0)
(-0.927036 0.0105015 0)
(-0.605606 0.00759049 0)
(-3.73458 0.00702979 0)
(0.161486 0.00739081 0)
(1.68958 0.00744537 0)
(2.28479 0.00706038 0)
(2.73911 0.00700792 0)
(-5.4535 0.00644175 0)
(0.356282 0.00604757 0)
(4.06309 0.00398902 0)
(0.648751 0.00549652 0)
(4.13347 0.00304001 0)
(-0.214144 0.0070946 0)
(1.45597 0.00428243 0)
(-0.762513 -0.00700836 0)
(-2.99211 -0.0230936 0)
(3.87981 -0.0461475 0)
(1.73438 -0.032056 0)
(-2.52394 0.0212962 0)
(3.61206 -0.0343219 0)
(0.225793 -0.0715639 0)
(-6.2628 0.0142952 0)
(-0.00679995 -0.0186333 0)
(2.42052 -0.256335 0)
(0.513164 0.240966 0)
(0.196778 0.0876173 0)
(0.183347 0.331789 0)
(-0.364414 0.179363 0)
(1.75133 -0.00841398 0)
(0.0913132 -0.178893 0)
(3.84834 0.0647619 0)
(3.03569 0.0590023 0)
(3.23815 0.185056 0)
(0.826203 0.0443134 0)
(0.349715 0.0930034 0)
(6.20905 0.327456 0)
(1.97885 0.0624086 0)
(0.941107 -0.159089 0)
(-1.06725 0.00367719 0)
(1.45345 -0.0183272 0)
(-3.01917 0.0145248 0)
(0.910217 0.0230926 0)
(-4.12998 0.0582519 0)
(-2.65843 0.0195844 0)
(-1.25579 -0.045223 0)
(-1.17726 -0.000326109 0)
(2.19648 0.0089028 0)
(2.25399 0.00444157 0)
(0.0102955 0.00428771 0)
(1.29845 0.00637793 0)
(-5.18068 0.0122344 0)
(0.740938 0.0112399 0)
(-0.722078 0.00685459 0)
(2.1705 0.00726804 0)
(1.79233 0.0075717 0)
(-5.17727 0.00805331 0)
(-0.5043 0.00742555 0)
(-1.43402 0.00697496 0)
(-0.198085 0.00673515 0)
(3.18308 0.00741749 0)
(-0.792405 0.000827443 0)
(3.08938 0.00256989 0)
(-1.30869 0.000631616 0)
(0.851709 -0.00322446 0)
(5.81015 0.00548044 0)
(-0.567612 0.00118439 0)
(2.21875 0.0160617 0)
(-0.605135 -0.00909851 0)
(1.45912 -0.0394003 0)
(-0.602654 -0.0387559 0)
(0.839143 0.000880445 0)
(1.74857 -0.0176057 0)
(-3.20474 0.00786991 0)
(0.055876 -0.166515 0)
(-1.95199 -0.348088 0)
(3.85037 0.137472 0)
(-0.611763 0.362536 0)
(2.60204 -0.037911 0)
(-1.90822 -0.0125119 0)
(-1.1593 0.456073 0)
(6.07108 -0.241021 0)
(1.26216 -0.472399 0)
(0.281262 -0.308372 0)
(0.933211 -0.321205 0)
(1.41305 -0.122891 0)
(-2.56979 0.368388 0)
(-2.30791 0.333862 0)
(-1.75163 0.00592559 0)
(3.03244 0.0400227 0)
(2.43036 -0.0088795 0)
(-1.85329 0.00269009 0)
(0.721694 0.0254339 0)
(1.09471 0.0162931 0)
(-5.55068 0.00760172 0)
(-1.00622 -0.0260638 0)
(-1.40145 -0.00895246 0)
(0.379797 0.00752463 0)
(3.6377 0.0106682 0)
(-1.80347 0.00639141 0)
(-5.07402 0.00887789 0)
(3.25998 0.00943956 0)
(2.93971 0.00760532 0)
(-3.3101 0.00605707 0)
(0.0454769 0.00786549 0)
(0.713411 0.00815356 0)
(0.954722 0.00820252 0)
(-0.260859 0.00807857 0)
(4.90571 0.00772399 0)
(2.94664 0.00674803 0)
(2.12463 0.00422287 0)
(-2.107 0.00919398 0)
(3.26642 0.000995662 0)
(-2.0545 0.00103362 0)
(2.12234 -0.00193216 0)
(-4.59196 -0.0369121 0)
(0.802032 0.017907 0)
(1.08428 -0.0117554 0)
(-2.00695 -0.0220473 0)
(-2.08376 0.00639542 0)
(1.00959 -0.0159363 0)
(0.462921 -0.020852 0)
(0.722928 -0.0298736 0)
(3.2779 -0.0494922 0)
(-3.48578 -0.373978 0)
(-0.874336 0.0636177 0)
(-1.8189 0.179347 0)
(0.533157 0.374234 0)
(-0.998529 -0.35358 0)
(2.46386 -0.00642443 0)
(2.04578 -0.0339421 0)
(0.485014 -0.0511336 0)
(-2.12566 -0.0831355 0)
(-0.328966 0.308552 0)
(-3.78784 0.0166803 0)
(1.43968 -0.296812 0)
(1.09526 0.284724 0)
(-0.813789 -0.023571 0)
(0.767914 -0.0414465 0)
(-3.12894 0.00642949 0)
(-2.67678 0.0156893 0)
(-1.79347 0.0425198 0)
(2.55121 -0.0191621 0)
(-3.26013 0.0111745 0)
(-0.563845 0.0136082 0)
(2.90413 0.00465471 0)
(-2.50184 0.0120562 0)
(-1.70486 0.0124144 0)
(-3.20254 0.0126035 0)
(1.41982 0.00954894 0)
(-0.0187552 0.0049174 0)
(2.307 0.00690986 0)
(-1.36838 0.0102279 0)
(3.61355 0.00779653 0)
(-2.92817 0.00804688 0)
(-0.508262 0.00833519 0)
(0.608789 0.00841838 0)
(3.6537 0.00845836 0)
(1.18411 0.00753382 0)
(1.26744 0.00283753 0)
(0.541686 0.00948689 0)
(-4.97961 0.00305174 0)
(2.34666 0.00262636 0)
(3.96194 0.000644459 0)
(0.865486 0.00169717 0)
(-2.39123 0.0499352 0)
(-1.38736 0.0122608 0)
(1.35113 -0.00231582 0)
(0.350953 -0.0162573 0)
(0.0196357 -0.0106298 0)
(4.91051 -0.0201307 0)
(-3.94769 -0.0146762 0)
(-1.69676 -0.055447 0)
(2.18996 -0.0241992 0)
(0.69469 0.0141164 0)
(2.63862 0.0886554 0)
(1.1111 -0.158155 0)
(-3.38016 -0.441756 0)
(1.55743 0.0225298 0)
(-4.2318 0.00978834 0)
(2.50034 -0.0368309 0)
(1.03082 0.262259 0)
(-1.41982 0.0101183 0)
(1.63629 0.00436387 0)
(0.253325 -0.10577 0)
(0.532478 -0.175133 0)
(2.43564 0.0201307 0)
(0.943701 0.0164013 0)
(3.91774 -0.00176406 0)
(-1.36575 0.0476396 0)
(-2.65401 0.0203508 0)
(0.275599 0.00930063 0)
(3.40695 0.00348333 0)
(0.52151 0.014455 0)
(-0.100289 0.026721 0)
(3.89505 0.0110382 0)
(-2.83146 0.0054603 0)
(-4.69127 0.00920293 0)
(-1.75732 0.00467389 0)
(-1.26685 0.0038752 0)
(-2.83847 0.00441632 0)
(-1.91144 0.00737678 0)
(-3.1404 0.00749163 0)
(5.30069 0.0100931 0)
(-0.119587 0.00867606 0)
(0.0815362 0.0089376 0)
(2.63134 0.00906266 0)
(-1.48157 0.00854441 0)
(0.539261 0.00818037 0)
(-1.47592 0.00583586 0)
(-2.7304 0.00648096 0)
(2.82288 0.00265767 0)
(-3.00032 0.00776081 0)
(4.71773 0.00288333 0)
(0.923091 0.00506002 0)
(3.11075 -0.00480226 0)
(-4.76865 -0.0251305 0)
(-2.92578 -0.0269404 0)
(-2.22016 0.00506042 0)
(2.27614 -0.0470785 0)
(-3.31746 -0.0622335 0)
(2.74791 -0.0275572 0)
(-0.773745 -0.0970872 0)
(2.64935 -0.0296587 0)
(-0.744173 -0.10745 0)
(1.22327 -0.00269674 0)
(-2.85829 -0.236111 0)
(-0.87791 -0.398002 0)
(0.819538 0.17788 0)
(1.57476 0.0314802 0)
(1.43414 -0.0419785 0)
(-0.172615 0.0162615 0)
(1.75196 -0.0157629 0)
(3.50342 -0.0197236 0)
(-0.113754 -0.0222429 0)
(5.66152 0.0185223 0)
(3.43905 -0.0063784 0)
(0.0320257 0.0207507 0)
(2.67199 -0.0336515 0)
(-1.13901 0.0296041 0)
(-0.622906 -0.0273369 0)
(-2.57686 0.0218561 0)
(-2.46152 -0.0233289 0)
(3.97467 0.0457335 0)
(1.39933 0.0148742 0)
(0.440832 0.00415085 0)
(4.57333 0.00858114 0)
(0.125165 0.00671257 0)
(1.28511 0.00789353 0)
(-1.9462 0.0100165 0)
(1.569 0.00522921 0)
(-1.18526 0.0102294 0)
(-2.67057 0.00792644 0)
(-4.59249 0.00988162 0)
(0.702562 0.00881418 0)
(-0.166193 0.0089335 0)
(-2.90313 0.00861737 0)
(0.860957 0.00850736 0)
(0.23483 0.00840478 0)
(1.50912 0.0126562 0)
(3.47265 0.0128177 0)
(0.445431 0.00816407 0)
(-0.681246 0.00600405 0)
(1.07529 -0.000295415 0)
(3.31795 0.00157341 0)
(0.0610198 0.0100937 0)
(-7.18174 0.00555903 0)
(4.43637 -0.0275256 0)
(-3.83016 0.0117352 0)
(-1.82259 -0.0218595 0)
(-1.03205 -0.0281625 0)
(-3.27362 -0.00109044 0)
(-1.38348 -0.0241646 0)
(5.82052 0.00580983 0)
(1.13595 0.158278 0)
(0.427031 -0.152447 0)
(0.213548 -0.0959088 0)
(-2.09897 0.0883052 0)
(-6.49693 0.106642 0)
(-1.65911 0.000619595 0)
(-2.11208 0.0444523 0)
(4.34817 0.0249667 0)
(0.13884 0.0281026 0)
(-1.7098 -0.022715 0)
(3.31467 -0.00999703 0)
(2.00876 -0.0285305 0)
(0.546655 -0.019475 0)
(-4.39017 0.0208333 0)
(-3.79789 0.00305347 0)
(-0.479311 0.00620449 0)
(-2.25808 -0.0117829 0)
(-2.39999 -0.0257483 0)
(-1.83097 0.0119652 0)
(-3.23923 0.00380165 0)
(3.89241 0.00535133 0)
(-3.53949 0.00669265 0)
(-2.56955 0.00720714 0)
(-3.06349 0.0084135 0)
(-0.832309 0.00191919 0)
(1.62936 0.00550278 0)
(-1.49893 0.00410386 0)
(-1.45463 0.00697264 0)
(1.81617 0.0148659 0)
(2.72281 0.00817183 0)
(-3.59751 0.00848728 0)
(-4.60871 0.00855686 0)
(-2.03299 0.00890791 0)
(-0.157531 0.00890475 0)
(-0.0262 0.00909408 0)
(1.43282 0.00807839 0)
(2.09605 0.00836524 0)
(-1.54002 0.00302329 0)
(-3.53947 0.00899482 0)
(-0.00498351 0.00294655 0)
(-1.12348 0.0151257 0)
(0.229153 0.00271207 0)
(2.54458 -0.0167126 0)
(-2.66169 -0.00778947 0)
(-0.786851 0.00342431 0)
(-2.12905 -0.0294561 0)
(5.29496 -0.0255625 0)
(2.32931 -0.0289225 0)
(0.635194 0.0336558 0)
(0.768516 -0.00128251 0)
(-1.002 -0.504831 0)
(-1.66641 -0.399645 0)
(-2.35993 -0.333337 0)
(-5.04217 0.144868 0)
(-3.85202 0.153027 0)
(-0.433539 -0.00196763 0)
(-0.441433 -0.00122784 0)
(1.7241 -0.0352001 0)
(6.0294 -0.0201538 0)
(1.05609 0.0260472 0)
(2.73868 0.0283756 0)
(2.23344 -0.0503759 0)
(-0.236422 -0.0162973 0)
(-0.725412 -0.0217594 0)
(-1.26574 -0.0349602 0)
(0.301531 -0.00309059 0)
(0.930833 -0.00293059 0)
(-2.79741 0.00153194 0)
(1.81855 0.00450475 0)
(3.83687 0.00614582 0)
(-1.90077 0.00206533 0)
(-0.654193 0.00450881 0)
(-0.961452 0.00232109 0)
(-1.51527 0.00397154 0)
(-3.24787 0.00495174 0)
(-3.02393 0.00682092 0)
(0.277123 0.00588495 0)
(2.27688 0.0066101 0)
(-2.05669 0.00750525 0)
(3.31633 0.00770026 0)
(-1.60287 0.00822143 0)
(4.54196 0.00838958 0)
(0.123817 0.00885617 0)
(5.18781 0.0089196 0)
(-3.02806 0.00857823 0)
(6.5669 0.00690238 0)
(-3.0987 0.00643569 0)
(-1.39941 0.00755852 0)
(-0.683929 0.00253675 0)
(1.56912 -0.00114492 0)
(-1.62416 -0.00538239 0)
(-5.48702 -0.0336251 0)
(-1.58228 -0.0143839 0)
(3.69451 0.014086 0)
(-2.86996 0.00527442 0)
(-3.10902 -0.0145357 0)
(1.67477 -0.00541156 0)
(4.26556 -0.0556004 0)
(3.42843 -0.0475604 0)
(3.75488 -0.0898722 0)
(1.53845 0.117521 0)
(1.77207 -0.0804392 0)
(4.62169 -0.0773726 0)
(1.50019 0.199193 0)
(-3.71527 -0.0311477 0)
(-0.433538 -0.000540264 0)
(-0.552777 0.00791137 0)
(0.94779 0.0291697 0)
(1.63406 -0.00449415 0)
(0.445101 -0.0181565 0)
(0.596618 -0.0306189 0)
(-3.21609 0.00716996 0)
(1.84719 -0.0039756 0)
(-0.724335 -0.0245052 0)
(-0.123736 0.0115027 0)
(3.44704 -0.000511697 0)
(4.32212 -0.000991623 0)
(0.29177 -0.000692097 0)
(-0.434161 0.00146021 0)
(-0.807525 -0.0028946 0)
(-1.85267 0.000952098 0)
(-4.05698 0.000142386 0)
(-2.04846 0.00252309 0)
(-2.5007 0.0027171 0)
(-2.82589 0.00391645 0)
(3.52347 0.00435989 0)
(3.07651 0.00567545 0)
(1.30415 0.00616625 0)
(-1.12338 0.00709196 0)
(-1.68308 0.00781303 0)
(-1.70757 0.00791041 0)
(-3.0482 0.00847321 0)
(-1.52178 0.00873721 0)
(-2.27348 0.00892015 0)
(-3.9167 0.00812448 0)
(-0.47755 0.00743726 0)
(0.48934 0.00824685 0)
(-1.65399 0.00915628 0)
(1.09804 0.00565352 0)
(-2.80243 -0.000587038 0)
(-0.672611 0.0367165 0)
(-3.86941 -0.0410199 0)
(-2.28291 -0.00390402 0)
(-2.52092 -0.0412292 0)
(0.953627 -0.0444685 0)
(-0.890418 0.00100709 0)
(-3.07262 -0.073152 0)
(-0.199857 -0.0152379 0)
(-1.52981 -0.063471 0)
(1.24708 -0.042523 0)
(-0.475996 0.324438 0)
(-2.71412 -0.0584677 0)
(-0.74169 -0.379412 0)
(-1.54285 0.208067 0)
(2.25277 -0.376944 0)
(-1.77687 0.00859249 0)
(-1.46924 -0.0449183 0)
(1.48876 0.00952888 0)
(-0.771575 0.019665 0)
(-0.258996 0.0582843 0)
(-0.173913 -0.00898653 0)
(-5.9899 0.028529 0)
(1.29582 0.0358368 0)
(-1.79248 -0.00522867 0)
(-0.683196 0.031072 0)
(-0.548521 -0.00725262 0)
(-0.541039 0.029978 0)
(-4.08336 -0.0185087 0)
(-0.979475 -0.00789502 0)
(2.5137 -0.00297995 0)
(0.644969 -0.00755541 0)
(-0.489723 -0.00180781 0)
(-1.45565 -0.000864878 0)
(-0.859889 0.00112312 0)
(1.67123 0.00367735 0)
(3.89282 0.00355139 0)
(2.3981 0.00442549 0)
(-1.42234 0.00543432 0)
(-3.08954 0.00620728 0)
(-1.66831 0.00698366 0)
(-1.24161 0.00798219 0)
(0.357111 0.0079298 0)
(-2.90473 0.00849071 0)
(-4.47109 0.00816442 0)
(0.952792 0.00820383 0)
(-2.65636 0.00642081 0)
(2.88249 0.00823789 0)
(-0.100293 0.00525625 0)
(0.858433 0.00908933 0)
(-0.212602 0.00166451 0)
(2.26132 0.0161812 0)
(-0.832663 -0.00918019 0)
(2.11648 -0.0107908 0)
(-0.550697 -0.0325756 0)
(3.5514 -0.0418435 0)
(-0.559815 -0.00939914 0)
(3.39736 -0.00273348 0)
(-2.20398 -0.04316 0)
(1.35914 -0.0149282 0)
(2.91156 -0.021808 0)
(1.84477 -0.00211076 0)
(-4.11836 0.0458545 0)
(0.857768 -0.0169735 0)
(1.46166 -0.0614465 0)
(-0.388296 0.280145 0)
(1.45262 -0.0333993 0)
(0.387287 -0.00904919 0)
(-0.221084 0.0411667 0)
(1.99965 0.0019069 0)
(2.03264 -0.0233212 0)
(-0.111597 0.0206581 0)
(-1.61763 0.00535353 0)
(-1.73972 0.0333776 0)
(0.617168 -0.0224224 0)
(0.0731381 0.0108018 0)
(1.07228 -0.029484 0)
(0.302453 -0.0492542 0)
(3.01756 -0.0307283 0)
(1.86589 -0.0140172 0)
(-2.61812 0.0196255 0)
(1.49937 0.00278053 0)
(4.47739 -0.00239443 0)
(1.5866 0.000609437 0)
(-0.0335795 -0.00157849 0)
(-2.66175 -0.00101649 0)
(-1.54307 -0.000328897 0)
(-0.578557 0.0034431 0)
(-2.21289 0.00463043 0)
(1.60929 0.00571957 0)
(0.893327 0.0066599 0)
(-1.18088 0.00716658 0)
(1.94033 0.007534 0)
(1.23057 0.00827003 0)
(-1.34437 0.00808772 0)
(-1.5118 0.00818742 0)
(5.22979 0.00943017 0)
(-0.00747142 0.0084408 0)
(-3.71354 0.00574164 0)
(4.10382 0.00620047 0)
(-2.492 -0.000767078 0)
(-3.94133 0.00555564 0)
(-2.27339 0.0131246 0)
(-1.09314 0.0204296 0)
(1.30489 -0.0138745 0)
(4.09199 0.0101176 0)
(-1.9925 -0.0451283 0)
(-0.905623 -0.0105808 0)
(0.360997 -0.034777 0)
(1.1054 -0.00699211 0)
(1.02454 -0.00148945 0)
(0.926859 -0.0429472 0)
(1.50433 -0.0891451 0)
(0.540175 -0.197275 0)
(-0.862828 0.386964 0)
(-1.83243 0.320902 0)
(-4.10823 0.0151994 0)
(-3.2615 -0.0441129 0)
(-2.99082 -0.1684 0)
(-1.41874 -0.145916 0)
(0.721699 0.0143864 0)
(-0.915727 0.586765 0)
(-1.99127 -0.0800929 0)
(-0.641083 0.0387554 0)
(-2.79985 0.00380261 0)
(2.42633 0.00606859 0)
(-4.93278 -0.0605655 0)
(-1.8852 0.00518286 0)
(3.4319 -0.0408432 0)
(-1.30121 0.0338326 0)
(-0.181562 -0.0251115 0)
(0.966436 0.0350002 0)
(0.0014741 -0.0112915 0)
(-0.204347 -0.00147862 0)
(-0.445291 0.00367225 0)
(1.04724 0.00296696 0)
(-1.60736 0.00241701 0)
(-1.65042 0.00685738 0)
(1.37058 0.00366965 0)
(0.923343 0.00506321 0)
(2.70745 0.00639376 0)
(-0.488325 0.00665594 0)
(-1.66742 0.00741426 0)
(0.0673352 0.00783833 0)
(-3.05372 0.008071 0)
(-0.239503 0.00787892 0)
(-0.821667 0.00735673 0)
(-2.07352 0.00580584 0)
(4.88723 0.00591005 0)
(0.391027 0.00660047 0)
(0.669072 0.00383725 0)
(-0.394906 -0.00103904 0)
(-1.72652 0.00318921 0)
(-2.17283 -0.0108157 0)
(4.05918 -0.0171501 0)
(-0.635614 0.00739036 0)
(-2.87719 -0.0104804 0)
(-0.555027 -0.0364899 0)
(-3.74006 0.0283014 0)
(0.387522 0.0164366 0)
(3.73761 -0.0511112 0)
(3.91038 -0.0330811 0)
(-1.5283 0.0198532 0)
(-4.97982 0.290099 0)
(-0.901376 -0.0746723 0)
(-1.45328 0.00114571 0)
(2.47146 -0.0357804 0)
(-0.222374 0.0211154 0)
(2.55429 0.295622 0)
(0.477644 -0.0355229 0)
(-5.13531 0.437557 0)
(2.63731 -0.169679 0)
(-2.18321 -0.123399 0)
(-1.69653 0.126794 0)
(-0.236894 -0.0470544 0)
(-0.91559 0.00256576 0)
(-6.967 -0.0497011 0)
(0.897824 0.0112822 0)
(-1.97833 -0.0257861 0)
(-0.881959 -0.0279525 0)
(-2.57886 0.0320792 0)
(-1.73989 0.0152466 0)
(0.347581 -0.0224544 0)
(0.250229 -0.00524955 0)
(-0.213887 -0.00607571 0)
(-5.77698 -0.000887604 0)
(0.640023 -0.000147357 0)
(1.6 0.00634745 0)
(-0.40081 0.00374097 0)
(0.0584802 0.00489456 0)
(1.47584 0.00569861 0)
(-0.858448 0.00623281 0)
(0.353821 0.00672824 0)
(3.463 0.0073243 0)