/*--------------------------------*- C++ -*----------------------------------*\
  =========                 |
  \\      /  F ield         | OpenFOAM: The Open Source CFD Toolbox
   \\    /   O peration     | Website:  https://openfoam.org
    \\  /    A nd           | Version:  6
     \\/     M anipulation  |
\*---------------------------------------------------------------------------*/
FoamFile
{
    version     2.0;
    format      ascii;
    class       volScalarField;
    location    "./ITHACAoutput/Offline/1";
    object      nut;
}
// * * * * * * * * * * * * * * * * * * * * * * * * * * * * * * * * * * * * * //

dimensions      [0 2 -1 0 0 0 0];

internalField   nonuniform List<scalar> 
115600
(
0.000107221
3.00353e-05
2.64898e-05
2.55833e-05
2.48252e-05
2.35111e-05
2.1635e-05
1.96313e-05
1.78266e-05
1.58981e-05
1.41273e-05
1.28005e-05
1.16895e-05
1.07355e-05
1.00152e-05
9.51888e-06
9.16409e-06
8.97025e-06
8.8664e-06
8.87607e-06
8.86985e-06
8.86261e-06
8.86275e-06
8.81527e-06
8.72162e-06
8.57702e-06
8.44118e-06
8.29681e-06
8.17153e-06
8.04588e-06
7.99205e-06
8.11511e-06
7.90532e-06
7.84197e-06
7.84687e-06
7.87118e-06
7.95592e-06
8.08057e-06
8.25688e-06
8.48843e-06
8.74321e-06
8.99304e-06
9.24816e-06
9.46498e-06
9.63265e-06
9.74284e-06
9.81393e-06
9.8952e-06
9.93688e-06
1.00148e-05
1.01418e-05
1.03602e-05
1.07148e-05
1.14827e-05
1.3508e-05
2.5729e-05
0.00687804
0.00365116
0.0031968
0.00306941
0.00299231
0.0028208
0.00256937
0.0022969
0.0020227
0.00175951
0.00153537
0.00131976
0.00116558
0.00104471
0.000950403
0.000881982
0.000833095
0.000801608
0.000780768
0.000768145
0.000762858
0.000760952
0.000761269
0.00076016
0.000755589
0.000751059
0.000743199
0.000733434
0.00072287
0.000713449
0.000705402
0.000709007
0.000693904
0.000688138
0.00068431
0.000685219
0.000693701
0.000703663
0.000718048
0.000738936
0.000763283
0.00078918
0.000813567
0.000838265
0.000858358
0.000874347
0.000886869
0.000897192
0.000906225
0.000916111
0.000926653
0.000946319
0.00097767
0.00104249
0.00121887
0.00180756
0.0358609
0.0338682
0.0333523
0.033069
0.0327391
0.0314935
0.0300747
0.0277038
0.0252801
0.0225152
0.0199359
0.0175379
0.015582
0.0138925
0.0125607
0.0115457
0.0108366
0.0102931
0.00991365
0.0096282
0.00944897
0.00935239
0.0093203
0.00930634
0.00934051
0.00933191
0.00932798
0.00927638
0.00921722
0.00914121
0.0090656
0.00905415
0.00888857
0.00876008
0.00868534
0.00870394
0.00874259
0.00885047
0.00905024
0.009299
0.00959843
0.00990895
0.0102444
0.010559
0.0108411
0.0110817
0.011287
0.0114297
0.0115234
0.0116333
0.0117444
0.011872
0.0121092
0.0125386
0.0137451
0.016914
0.0721787
0.0852754
0.0900221
0.0910358
0.0907409
0.0893495
0.0867248
0.0829747
0.0781529
0.0729521
0.0673437
0.0621009
0.05724
0.053261
0.0502152
0.0479685
0.0459827
0.0443914
0.0432048
0.0420594
0.0413026
0.0408217
0.0404622
0.0401617
0.0402557
0.0405603
0.0408476
0.041292
0.0413392
0.0413319
0.0413035
0.0413384
0.0408807
0.0404796
0.0401844
0.0401736
0.0401192
0.0404271
0.0408738
0.0413606
0.0421043
0.043014
0.0438392
0.0445919
0.045212
0.0459836
0.0464684
0.0468788
0.0469724
0.0473835
0.0475462
0.0475333
0.0475387
0.0481587
0.0496079
0.0539986
0.0998646
0.132743
0.148195
0.156106
0.156248
0.156219
0.156414
0.150749
0.144336
0.134223
0.128279
0.120448
0.113473
0.107441
0.102724
0.0990596
0.0960969
0.0936618
0.0915423
0.0895236
0.087764
0.0865501
0.0855158
0.0848424
0.0849858
0.0854139
0.0862919
0.0871447
0.0879525
0.0886203
0.0887492
0.0886608
0.0882141
0.0878076
0.0875241
0.087136
0.0873006
0.0873252
0.0878723
0.0886092
0.0896137
0.0907948
0.091707
0.0928841
0.0940916
0.0947383
0.0956166
0.0964159
0.0969641
0.0974103
0.0977658
0.0979947
0.0978522
0.0981586
0.0997078
0.104714
0.118837
0.164258
0.190884
0.206659
0.213662
0.217679
0.217775
0.217689
0.208302
0.201813
0.192856
0.183881
0.174964
0.167566
0.161188
0.157017
0.15312
0.15168
0.148663
0.144241
0.142119
0.139846
0.138613
0.136109
0.136197
0.137794
0.138557
0.139787
0.141892
0.142673
0.143567
0.143927
0.143703
0.144603
0.143515
0.143317
0.143415
0.14239
0.143565
0.143512
0.144829
0.146632
0.148768
0.148756
0.15122
0.151553
0.153391
0.155504
0.153841
0.15585
0.157493
0.156971
0.158261
0.157738
0.158872
0.164985
0.133976
0.181203
0.216541
0.239857
0.254899
0.264727
0.269548
0.270697
0.268305
0.260366
0.252122
0.24437
0.235957
0.229183
0.221799
0.217665
0.212796
0.209432
0.20544
0.2024
0.198163
0.195659
0.192671
0.192201
0.192233
0.189931
0.193351
0.195537
0.199932
0.200688
0.202169
0.203507
0.203492
0.204646
0.203825
0.202235
0.202313
0.203703
0.204139
0.204712
0.205662
0.20707
0.209336
0.209191
0.212451
0.214563
0.215228
0.216726
0.218833
0.220335
0.221599
0.222965
0.224739
0.225344
0.227867
0.232416
0.14781
0.188671
0.226221
0.255789
0.276672
0.292608
0.302701
0.310022
0.310126
0.307864
0.300929
0.2948
0.287547
0.281593
0.275781
0.270616
0.26715
0.265014
0.262401
0.258558
0.253721
0.248901
0.245196
0.244068
0.243152
0.244615
0.246224
0.252143
0.254352
0.257
0.260878
0.26156
0.264512
0.264842
0.264746
0.264753
0.2627
0.264312
0.264574
0.264979
0.268018
0.268436
0.271059
0.272089
0.273955
0.275239
0.27915
0.281935
0.282514
0.285387
0.288048
0.289159
0.29377
0.294224
0.297333
0.301617
0.163812
0.187933
0.223204
0.25516
0.282252
0.301879
0.318171
0.327004
0.3342
0.33709
0.333974
0.329048
0.325467
0.321426
0.317027
0.315422
0.313204
0.312848
0.309268
0.305144
0.302119
0.30089
0.295581
0.293325
0.292824
0.292935
0.297022
0.301848
0.305813
0.312063
0.314822
0.318288
0.320152
0.322132
0.322745
0.322854
0.322438
0.324274
0.325224
0.324447
0.328783
0.32873
0.331472
0.333226
0.336405
0.336816
0.340131
0.343374
0.346254
0.350517
0.352682
0.357223
0.359616
0.363763
0.366743
0.371364
0.187224
0.188224
0.213404
0.242185
0.270486
0.296277
0.316212
0.330938
0.342355
0.349228
0.349292
0.349429
0.350595
0.347617
0.347686
0.346042
0.346823
0.347035
0.346987
0.346016
0.342857
0.338871
0.336451
0.333046
0.334236
0.335755
0.338301
0.343595
0.350424
0.357217
0.363607
0.367869
0.370723
0.372776
0.375704
0.37563
0.377846
0.378643
0.380594
0.382542
0.384514
0.387886
0.386903
0.391107
0.39156
0.395146
0.397294
0.402498
0.407056
0.410195
0.415155
0.417925
0.422877
0.427467
0.430488
0.437334
0.217297
0.190645
0.200449
0.221086
0.246046
0.272344
0.298736
0.31776
0.335898
0.345731
0.353196
0.356668
0.35778
0.360834
0.360888
0.365615
0.367201
0.369551
0.372265
0.372927
0.372543
0.370336
0.367571
0.3669
0.366275
0.368468
0.374143
0.378555
0.385723
0.394546
0.402288
0.410841
0.415395
0.418162
0.421249
0.42493
0.426008
0.427531
0.430553
0.432246
0.434606
0.439039
0.439173
0.442708
0.446918
0.447069
0.451992
0.456815
0.461469
0.465913
0.470794
0.476608
0.480639
0.485208
0.491368
0.494937
0.256813
0.199723
0.191826
0.199976
0.217804
0.24346
0.266943
0.291424
0.311002
0.326957
0.338756
0.346533
0.352972
0.35795
0.36322
0.368519
0.375451
0.380512
0.385136
0.388268
0.388888
0.390892
0.389893
0.388952
0.390845
0.394699
0.399217
0.404589
0.414252
0.425535
0.433572
0.441757
0.448526
0.45626
0.458837
0.46438
0.468292
0.470185
0.473342
0.476146
0.48
0.482705
0.486317
0.489318
0.492354
0.494641
0.501481
0.504798
0.512063
0.515275
0.523402
0.529079
0.534117
0.537591
0.543285
0.548868
0.303629
0.218897
0.192078
0.184969
0.193368
0.207094
0.229984
0.254815
0.276044
0.294932
0.311842
0.325209
0.334281
0.343362
0.35021
0.358902
0.368138
0.37531
0.384461
0.391068
0.396063
0.399621
0.399802
0.402547
0.404716
0.407839
0.415095
0.42218
0.432597
0.442525
0.454606
0.464274
0.474113
0.482408
0.486803
0.495288
0.499799
0.504653
0.509059
0.51139
0.516088
0.519633
0.524326
0.527926
0.532241
0.536454
0.542472
0.547757
0.552847
0.559037
0.566581
0.572914
0.578622
0.583699
0.59151
0.595763
0.367846
0.251215
0.206357
0.184853
0.177173
0.180271
0.194564
0.213234
0.231827
0.254474
0.271142
0.288025
0.300437
0.313228
0.327203
0.33741
0.349541
0.361305
0.371604
0.381747
0.390323
0.39585
0.399407
0.405045
0.408278
0.413635
0.420912
0.428052
0.440796
0.451737
0.464498
0.477674
0.48946
0.498623
0.507595
0.516534
0.524366
0.530205
0.535693
0.539681
0.545483
0.551598
0.557541
0.562252
0.566415
0.572196
0.578087
0.582185
0.589819
0.596148
0.603129
0.610424
0.616667
0.624236
0.629769
0.637005
0.453961
0.304226
0.24074
0.203447
0.182471
0.172182
0.170902
0.180101
0.193231
0.20912
0.227305
0.244606
0.261478
0.276103
0.291304
0.306067
0.319567
0.334743
0.348821
0.361032
0.372709
0.383268
0.389033
0.396647
0.402508
0.41004
0.416772
0.427527
0.440022
0.452311
0.465129
0.478863
0.49297
0.505454
0.517323
0.526459
0.537655
0.545603
0.553016
0.560072
0.565687
0.573614
0.579083
0.584407
0.591892
0.597536
0.604892
0.611163
0.618162
0.626788
0.634035
0.64283
0.649018
0.657219
0.664138
0.668847
0.575912
0.391169
0.305903
0.253367
0.216056
0.19084
0.176041
0.1702
0.172141
0.179639
0.190848
0.204051
0.219897
0.234663
0.250616
0.266406
0.282556
0.298588
0.316262
0.330877
0.34447
0.356492
0.368047
0.378435
0.386481
0.395522
0.40429
0.415983
0.428069
0.442083
0.458303
0.472619
0.489317
0.504556
0.516931
0.530415
0.541652
0.5507
0.561639
0.571603
0.578916
0.587863
0.594657
0.603462
0.609778
0.61874
0.626072
0.632151
0.641011
0.648746
0.657074
0.665149
0.674665
0.683967
0.688841
0.695299
0.752026
0.531512
0.421224
0.350184
0.294795
0.250571
0.221425
0.196365
0.184172
0.178388
0.177235
0.183034
0.19094
0.20061
0.215105
0.228646
0.243061
0.261286
0.27865
0.296028
0.312266
0.326955
0.339747
0.352782
0.363904
0.374033
0.385681
0.396675
0.411025
0.426196
0.442477
0.458774
0.474845
0.492545
0.509382
0.523983
0.536639
0.549651
0.561482
0.571978
0.583526
0.59331
0.603024
0.611834
0.621125
0.629508
0.637133
0.647529
0.654897
0.665619
0.674044
0.683205
0.693967
0.700748
0.709186
0.714722
0.981458
0.736242
0.596223
0.501872
0.427761
0.365696
0.318341
0.276602
0.244743
0.219611
0.203142
0.195277
0.191898
0.19228
0.196798
0.204486
0.215348
0.229933
0.245113
0.261317
0.278222
0.292355
0.309517
0.3221
0.33554
0.347549
0.360952
0.373691
0.388016
0.403203
0.420942
0.437739
0.456873
0.474749
0.491876
0.507603
0.525884
0.539643
0.555283
0.569438
0.582763
0.592756
0.604058
0.614405
0.624344
0.634213
0.644617
0.653921
0.663783
0.673408
0.683572
0.69534
0.704234
0.712718
0.721136
0.727483
1.21136
0.972642
0.816608
0.703177
0.612491
0.537945
0.47127
0.412303
0.363358
0.323502
0.287306
0.262835
0.241918
0.229094
0.221339
0.215522
0.218153
0.222384
0.231847
0.241464
0.255263
0.269268
0.282857
0.296318
0.309736
0.323489
0.3371
0.349347
0.36257
0.379538
0.394806
0.412217
0.432084
0.453109
0.470388
0.490082
0.507828
0.52536
0.542746
0.556912
0.573543
0.587212
0.598486
0.610868
0.623886
0.633296
0.644254
0.655168
0.664978
0.67661
0.686634
0.696883
0.708907
0.717461
0.726765
0.733538
1.38579
1.1935
1.04643
0.925924
0.827385
0.742836
0.667039
0.597578
0.53708
0.482631
0.433825
0.391816
0.354022
0.32566
0.300105
0.28226
0.268945
0.260011
0.256638
0.257619
0.259811
0.267915
0.27837
0.287448
0.298531
0.309363
0.320616
0.333238
0.345382
0.357742
0.374022
0.391916
0.410785
0.428428
0.449882
0.470764
0.488961
0.506973
0.525278
0.54287
0.556868
0.574581
0.588819
0.60295
0.615843
0.626889
0.639783
0.651967
0.662903
0.674619
0.686404
0.699216
0.709705
0.719546
0.728288
0.738179
1.49421
1.36595
1.24258
1.13578
1.03927
0.956349
0.879136
0.807131
0.741422
0.679883
0.624251
0.570217
0.52413
0.480745
0.441786
0.408685
0.380168
0.356859
0.336816
0.324747
0.315445
0.310724
0.3088
0.312945
0.316693
0.321345
0.327303
0.334266
0.344556
0.354981
0.367034
0.380449
0.394559
0.412493
0.432105
0.449916
0.470752
0.491647
0.509436
0.525218
0.544922
0.56051
0.576758
0.592449
0.606204
0.618248
0.632378
0.644623
0.656607
0.670309
0.681194
0.693996
0.707227
0.717335
0.728813
0.736255
1.55382
1.48252
1.39797
1.31304
1.23314
1.1547
1.08275
1.01515
0.95095
0.889152
0.831049
0.77874
0.724932
0.675914
0.629209
0.587434
0.548152
0.510194
0.4783
0.451271
0.427386
0.411289
0.397265
0.387139
0.381401
0.377406
0.37603
0.374522
0.376915
0.381545
0.386817
0.394267
0.405702
0.417882
0.431871
0.447277
0.463373
0.481901
0.50014
0.518894
0.53741
0.55349
0.568792
0.583727
0.598265
0.612644
0.626215
0.638032
0.651964
0.665563
0.676625
0.688891
0.701911
0.714197
0.724854
0.737715
1.58458
1.55493
1.50639
1.44868
1.38774
1.32625
1.26487
1.20633
1.14839
1.0931
1.03737
0.984727
0.935026
0.88719
0.837468
0.792881
0.747728
0.705836
0.665552
0.628714
0.595695
0.565756
0.541801
0.519539
0.501489
0.487806
0.474841
0.464863
0.45804
0.452801
0.448136
0.449755
0.4491
0.454229
0.460965
0.469996
0.481931
0.496347
0.503896
0.522126
0.53817
0.554885
0.570101
0.584972
0.59752
0.611337
0.624551
0.637928
0.650369
0.663141
0.677784
0.689495
0.701418
0.714054
0.725631
0.73828
1.60038
1.5977
1.57813
1.54647
1.49965
1.46399
1.4114
1.38087
1.30932
1.27662
1.22894
1.18222
1.13699
1.09093
1.04649
1.00177
0.958399
0.914435
0.873441
0.831956
0.794901
0.757463
0.724961
0.696738
0.671275
0.648925
0.626877
0.60684
0.590877
0.574012
0.561464
0.551957
0.543114
0.536961
0.535017
0.536408
0.537247
0.543149
0.552226
0.569166
0.572962
0.581236
0.593331
0.604506
0.614997
0.626465
0.639699
0.64882
0.661279
0.673877
0.686096
0.696483
0.710436
0.722505
0.735866
0.749148
1.60898
1.62266
1.62394
1.61379
1.5949
1.56771
1.54373
1.5094
1.48107
1.42022
1.387
1.36443
1.32223
1.28132
1.24158
1.20126
1.16174
1.12132
1.08166
1.04108
1.00314
0.965288
0.9316
0.899775
0.869014
0.839245
0.812542
0.788923
0.764787
0.742472
0.722402
0.702869
0.684255
0.669884
0.658112
0.64634
0.640242
0.634629
0.635908
0.640955
0.63622
0.639499
0.643752
0.649555
0.656651
0.66491
0.672356
0.681447
0.69044
0.70041
0.711022
0.721546
0.734708
0.746503
0.758334
0.771
1.61426
1.63775
1.65303
1.65907
1.65683
1.64766
1.63281
1.6069
1.58325
1.56353
1.52427
1.51525
1.47745
1.45271
1.41697
1.39701
1.34379
1.29919
1.27631
1.24122
1.20601
1.17041
1.13889
1.1041
1.07424
1.04353
1.01504
0.988899
0.960807
0.935769
0.910592
0.886412
0.862699
0.839385
0.818882
0.799481
0.784876
0.770643
0.763349
0.747796
0.741134
0.737854
0.734753
0.732586
0.733764
0.73584
0.739801
0.742577
0.746657
0.754042
0.759976
0.769709
0.777708
0.786909
0.80042
0.812446
1.61799
1.64742
1.67187
1.68945
1.70005
1.70414
1.70246
1.7057
1.67868
1.67088
1.64699
1.63212
1.62003
1.58613
1.55408
1.54132
1.51715
1.48135
1.45896
1.43548
1.3918
1.36537
1.34536
1.3022
1.27468
1.24626
1.21807
1.1916
1.16508
1.13839
1.11252
1.08545
1.05903
1.03201
1.00627
0.981342
0.960081
0.93963
0.927356
0.887914
0.885091
0.871946
0.860789
0.854045
0.847221
0.841974
0.839898
0.836028
0.835337
0.836035
0.839449
0.84305
0.849821
0.856054
0.864558
0.877097
1.62092
1.65422
1.69129
1.71014
1.73016
1.74458
1.75369
1.75794
1.76774
1.75848
1.73967
1.73056
1.72675
1.69637
1.68995
1.66339
1.65789
1.62873
1.61193
1.57374
1.57201
1.53371
1.51483
1.48711
1.4622
1.43689
1.41535
1.38205
1.36889
1.34625
1.30775
1.28249
1.25506
1.22997
1.20196
1.17501
1.14944
1.13018
1.11917
1.06016
1.0533
1.03439
1.01656
1.00388
0.992133
0.97759
0.968642
0.960692
0.955176
0.950938
0.946771
0.945284
0.948033
0.951583
0.958234
0.96726
1.62335
1.6593
1.69362
1.71477
1.75128
1.77341
1.79095
1.80401
1.81294
1.81817
1.82
1.8188
1.80709
1.80611
1.80092
1.78666
1.77366
1.7584
1.7304
1.73541
1.69332
1.68462
1.66156
1.64654
1.63108
1.59305
1.57307
1.57227
1.52117
1.51572
1.49237
1.46773
1.44535
1.41945
1.3894
1.36965
1.3332
1.29621
1.3123
1.26485
1.23403
1.20999
1.19129
1.16985
1.15316
1.13729
1.12195
1.10836
1.09624
1.08786
1.08108
1.07762
1.07398
1.07329
1.07471
1.08009
1.62536
1.66375
1.7002
1.73482
1.76624
1.79399
1.81785
1.83778
1.86058
1.86644
1.8757
1.89161
1.88516
1.8956
1.89115
1.88123
1.85914
1.86106
1.84277
1.84841
1.82122
1.81577
1.7978
1.78473
1.77068
1.75463
1.73903
1.7109
1.69657
1.65414
1.65995
1.63208
1.62913
1.58243
1.56937
1.53216
1.51344
1.48981
1.44791
1.44378
1.41099
1.38083
1.36448
1.33591
1.31183
1.30428
1.28527
1.26884
1.25343
1.24122
1.23028
1.22084
1.21501
1.2089
1.20722
1.21014
1.62696
1.66615
1.70499
1.74206
1.77382
1.80843
1.83692
1.86206
1.88433
1.90403
1.91463
1.92004
1.93928
1.94607
1.9437
1.95186
1.94443
1.94589
1.93447
1.93503
1.91528
1.92677
1.91037
1.90108
1.88619
1.85737
1.87367
1.84873
1.83654
1.79823
1.80161
1.79625
1.764
1.75449
1.71521
1.71115
1.67845
1.66658
1.62441
1.60696
1.57935
1.55256
1.52995
1.50773
1.48466
1.47838
1.45753
1.43098
1.41195
1.391
1.38687
1.365
1.36345
1.34546
1.35852
1.34419
1.62816
1.66828
1.70827
1.74695
1.78377
1.8182
1.84999
1.87944
1.90071
1.9181
1.93818
1.9554
1.98748
1.99161
2.00289
1.99841
2.01308
2.01593
2.01628
2.01229
2.0301
2.00641
2.00498
1.99877
1.98481
1.9688
1.96115
1.96425
1.94957
1.93148
1.92364
1.89756
1.8851
1.87188
1.8544
1.83505
1.8393
1.79265
1.77086
1.7566
1.72251
1.71293
1.69077
1.66961
1.63498
1.6252
1.59689
1.58721
1.57036
1.55236
1.53346
1.5297
1.52075
1.5057
1.47626
1.49511
1.62895
1.66956
1.71072
1.74689
1.78796
1.82418
1.86593
1.8964
1.9187
1.94559
1.97659
1.99715
2.01626
2.02163
2.04597
2.03978
2.05582
2.07307
2.0728
2.06447
2.0758
2.07565
2.0768
2.07173
2.06285
2.05986
2.04037
2.04332
2.0402
2.02513
2.02583
2.01836
1.98639
1.99775
1.9544
1.96989
1.92664
1.91836
1.89537
1.88166
1.85278
1.83853
1.82692
1.79187
1.76872
1.76323
1.74669
1.72533
1.71443
1.68122
1.66162
1.65679
1.64695
1.62845
1.62563
1.63318
1.62933
1.66998
1.71131
1.75081
1.78957
1.83454
1.85229
1.89583
1.92688
1.95144
1.97854
2.00778
2.03082
2.04525
2.0778
2.09259
2.10041
2.11157
2.10271
2.12297
2.10578
2.13559
2.1374
2.11416
2.13013
2.1238
2.12279
2.09972
2.11019
2.10631
2.10151
2.07433
2.06923
2.06138
2.0661
2.03868
2.04175
2.01841
1.99137
1.99279
1.96846
1.95883
1.93007
1.92755
1.8959
1.89382
1.86096
1.84306
1.83423
1.80662
1.79685
1.78386
1.7666
1.76465
1.7578
1.74925
1.62927
1.66958
1.71675
1.74992
1.78878
1.82623
1.86881
1.89807
1.92484
1.96587
1.97698
2.01163
2.03546
2.06235
2.06089
2.0789
2.09972
2.12658
2.13184
2.14177
2.14676
2.16398
2.16464
2.15148
2.17033
2.17802
2.18135
2.16781
2.18566
2.16255
2.16226
2.15711
2.15246
2.14774
2.11617
2.13353
2.11369
2.08049
2.07779
2.07643
2.05441
2.03275
2.03031
1.99981
1.98287
1.99588
1.97488
1.93764
1.93681
1.9113
1.90742
1.89427
1.87168
1.88009
1.85199
1.83897
1.62879
1.6683
1.70802
1.75393
1.78267
1.83053
1.85565
1.89463
1.93211
1.95864
1.98911
2.02691
2.02499
2.04406
2.07674
2.10409
2.12209
2.12793
2.13775
2.16108
2.16173
2.16713
2.17622
2.1826
2.19477
2.20091
2.18277
2.19052
2.20056
2.20744
2.19477
2.2012
2.20121
2.18873
2.18075
2.1843
2.176
2.14776
2.16697
2.14313
2.12193
2.11677
2.10163
2.08834
2.07281
2.05289
2.03356
2.02969
2.01745
2.00569
1.98982
1.97353
1.97638
1.94927
1.92957
1.93695
1.62787
1.66616
1.70467
1.74269
1.78001
1.81629
1.85916
1.87534
1.91039
1.94119
1.98123
1.9916
2.01399
2.06505
2.06692
2.09962
2.10996
2.12765
2.1498
2.15044
2.16326
2.18363
2.18929
2.19824
2.21707
2.21308
2.23153
2.22906
2.21852
2.22378
2.21852
2.22786
2.22226
2.23153
2.23086
2.20347
2.19755
2.19144
2.1947
2.18857
2.17489
2.17326
2.15253
2.14902
2.13068
2.12213
2.11482
2.085
2.091
2.07559
2.06299
2.06121
2.02935
2.03623
2.01778
1.99865
1.6265
1.66312
1.69991
1.73631
1.76221
1.80861
1.83767
1.87498
1.91233
1.94237
1.97773
2.00552
2.03129
2.03508
2.06499
2.08074
2.10266
2.10554
2.12932
2.14817
2.16954
2.18408
2.17813
2.2021
2.20979
2.19852
2.21098
2.21676
2.22215
2.23385
2.24007
2.22575
2.23236
2.2298
2.22276
2.23065
2.22564
2.22417
2.20678
2.22596
2.20117
2.18843
2.17018
2.16743
2.18434
2.17448
2.15866
2.12984
2.12463
2.11299
2.10674
2.1014
2.08098
2.07059
2.06705
2.0605
1.62469
1.65916
1.69373
1.72972
1.76145
1.79423
1.82661
1.86361
1.88904
1.91911
1.95784
1.97923
1.98814
2.01241
2.03794
2.05466
2.08579
2.0903
2.11729
2.13466
2.15093
2.16827
2.17424
2.18441
2.17896
2.18591
2.19431
2.20544
2.21677
2.23219
2.23435
2.24336
2.22904
2.23556
2.23836
2.22519
2.24557
2.22293
2.21596
2.21362
2.20168
2.20645
2.21312
2.1864
2.19095
2.17692
2.1817
2.15783
2.15148
2.14497
2.13856
2.136
2.11599
2.09758
2.0904
2.08393
1.62238
1.65419
1.686
1.71742
1.74829
1.7755
1.80482
1.84396
1.85395
1.88112
1.93051
1.95569
1.97036
1.99221
2.00182
2.02893
2.04879
2.0538
2.07809
2.0928
2.11198
2.12369
2.1316
2.14063
2.14806
2.16549
2.17885
2.18562
2.18369
2.1875
2.21504
2.20139
2.21108
2.22757
2.22105
2.2248
2.20969
2.20763
2.2132
2.217
2.20674
2.21027
2.20792
2.19696
2.17887
2.17932
2.16752
2.18587
2.1641
2.14784
2.14471
2.12619
2.11725
2.10661
2.11529
2.10017
1.61954
1.64815
1.67664
1.70527
1.73225
1.76094
1.79311
1.8079
1.84332
1.85032
1.87011
1.89931
1.92955
1.94412
1.96438
1.98725
2.01339
2.0381
2.04202
2.04576
2.07371
2.08142
2.08889
2.10689
2.1211
2.13492
2.12543
2.1504
2.16095
2.16776
2.16164
2.18478
2.17241
2.18099
2.18072
2.1806
2.18993
2.1852
2.18285
2.19547
2.19075
2.19062
2.19273
2.17291
2.162
2.17252
2.16519
2.16245
2.16264
2.13509
2.14664
2.11602
2.13964
2.11482
2.10084
2.09882
1.61611
1.6409
1.66545
1.68955
1.71369
1.73617
1.76645
1.78836
1.80972
1.81356
1.85811
1.84604
1.87178
1.88633
1.93288
1.9365
1.95051
1.95343
1.98767
2.00155
2.01511
2.02198
2.02938
2.05889
2.05778
2.07734
2.07838
2.09105
2.09357
2.10499
2.12403
2.12805
2.13611
2.12651
2.13812
2.14888
2.13934
2.13868
2.13475
2.14085
2.13279
2.15248
2.16653
2.14936
2.14003
2.14461
2.15336
2.14368
2.14976
2.13666
2.11966
2.10916
2.11136
2.10694
2.09602
2.10088
1.60223
1.63226
1.65218
1.66877
1.69072
1.71115
1.72463
1.75207
1.76471
1.77899
1.79587
1.82373
1.83594
1.83152
1.85992
1.87719
1.88301
1.91706
1.91452
1.91915
1.94756
1.9545
1.96947
1.98804
1.99219
2.00758
2.01382
2.03113
2.01852
2.04468
2.05445
2.04556
2.05765
2.0851
2.08262
2.06785
2.08543
2.08274
2.10012
2.09123
2.11328
2.11051
2.10551
2.09924
2.11571
2.09588
2.10563
2.10185
2.07946
2.0902
2.0918
2.09917
2.07771
2.07303
2.08055
2.07077
1.60706
1.62201
1.6366
1.6508
1.66058
1.67842
1.69371
1.71197
1.72631
1.7354
1.7491
1.7521
1.76575
1.79767
1.79065
1.81033
1.83153
1.8461
1.85095
1.86226
1.87231
1.88647
1.89306
1.91787
1.92225
1.93116
1.94204
1.95016
1.93786
1.96816
1.98051
1.98932
1.99102
1.99898
2.00592
2.0086
2.01945
2.02245
2.01883
2.03156
2.04086
2.03885
2.04406
2.05583
2.05385
2.05999
2.05591
2.04472
2.05514
2.05016
2.06716
2.06476
2.04393
2.05226
2.03233
2.04612
1.60119
1.60999
1.61854
1.62695
1.63529
1.64369
1.65223
1.66759
1.65996
1.66905
1.68705
1.71267
1.71758
1.72266
1.72395
1.73795
1.75624
1.76923
1.76727
1.7695
1.77923
1.79253
1.80128
1.82584
1.81342
1.84552
1.85142
1.87283
1.87268
1.88986
1.90645
1.90391
1.90305
1.91298
1.92437
1.93542
1.93093
1.95338
1.95395
1.95888
1.96173
1.9707
1.97979
1.98099
1.97707
2.00012
2.0012
1.99841
1.99458
1.98573
2.01217
1.99327
1.99175
2.00725
2.01048
2.00433
1.5943
1.59621
1.60606
1.60059
1.61107
1.59662
1.60998
1.60424
1.6253
1.626
1.63297
1.63938
1.63573
1.64263
1.65905
1.67347
1.67306
1.67103
1.69624
1.69744
1.71558
1.71905
1.73467
1.73607
1.74212
1.7562
1.7566
1.76708
1.77467
1.76956
1.8094
1.80103
1.83816
1.82588
1.83577
1.85268
1.86273
1.88101
1.88933
1.8968
1.87904
1.89884
1.90998
1.90304
1.91894
1.93212
1.93892
1.95235
1.94528
1.94013
1.9593
1.96757
1.95898
1.95551
1.97614
1.98691
1.58671
1.5815
1.56739
1.57369
1.56696
1.56996
1.57525
1.56908
1.57706
1.57803
1.58024
1.57481
1.59395
1.5777
1.58301
1.59616
1.59305
1.60618
1.61069
1.61483
1.63237
1.64468
1.64236
1.65916
1.67357
1.68786
1.68013
1.69467
1.69315
1.71162
1.72083
1.7216
1.74396
1.73564
1.75826
1.78615
1.77342
1.79596
1.81637
1.8266
1.81838
1.84278
1.85289
1.85975
1.8557
1.86573
1.88018
1.89029
1.90784
1.90891
1.91131
1.92908
1.93115
1.94309
1.97063
1.97375
1.57965
1.56822
1.55853
1.55041
1.5437
1.53829
1.53116
1.53092
1.53658
1.5343
1.53399
1.52496
1.53646
1.53027
1.54924
1.52148
1.54454
1.54308
1.55651
1.55842
1.57338
1.56373
1.5846
1.59351
1.5996
1.5978
1.61034
1.63413
1.62892
1.65339
1.64866
1.68088
1.66793
1.69082
1.70721
1.70875
1.73282
1.75215
1.74619
1.76345
1.7661
1.78716
1.802
1.8145
1.83003
1.85218
1.83439
1.85979
1.86302
1.89081
1.90232
1.89605
1.91957
1.93166
1.93805
1.97772
1.57537
1.5603
1.5476
1.5369
1.52794
1.52053
1.51449
1.50971
1.50608
1.50349
1.49218
1.5013
1.50337
1.51043
1.50633
1.50957
1.51297
1.5171
1.51852
1.50829
1.52582
1.53989
1.55944
1.54683
1.55921
1.57959
1.59307
1.58859
1.60647
1.62118
1.62416
1.64635
1.64831
1.66269
1.66395
1.68138
1.69313
1.72297
1.73256
1.74286
1.76342
1.77347
1.79023
1.78703
1.81067
1.81971
1.83677
1.85429
1.86681
1.88576
1.8991
1.91577
1.93632
1.95638
1.96451
1.99669
1.57593
1.56132
1.54894
1.53851
1.52981
1.52261
1.51497
1.51227
1.50884
1.50652
1.51498
1.50485
1.50539
1.51658
1.51883
1.50432
1.50871
1.51674
1.52203
1.54528
1.52847
1.54346
1.54013
1.56945
1.57153
1.57819
1.59806
1.6096
1.62707
1.61591
1.62725
1.64266
1.66001
1.67433
1.69237
1.69877
1.7186
1.73869
1.74776
1.76516
1.78005
1.79091
1.81266
1.81079
1.84691
1.85874
1.8561
1.87879
1.89735
1.93663
1.95104
1.9552
1.99019
1.98845
2.00638
2.03873
1.58136
1.57138
1.56289
1.55581
1.55005
1.54496
1.54159
1.53988
1.53805
1.53654
1.5426
1.54762
1.55221
1.54734
1.55137
1.56112
1.55548
1.56886
1.57879
1.58469
1.58005
1.5969
1.61178
1.62347
1.62829
1.64851
1.65688
1.67588
1.68063
1.68547
1.70439
1.71332
1.71676
1.73929
1.76857
1.7649
1.79366
1.80052
1.8172
1.83692
1.84614
1.8734
1.88542
1.90858
1.90824
1.92741
1.93773
1.97183
1.97984
2.00317
2.02006
2.03327
2.05966
2.04961
2.09007
2.11088
1.58933
1.58657
1.58443
1.58299
1.5805
1.58245
1.58628
1.58459
1.5859
1.58921
1.60493
1.58557
1.62251
1.60605
1.60575
1.63358
1.63536
1.6361
1.64741
1.66204
1.6669
1.68424
1.68887
1.70011
1.73022
1.74332
1.75025
1.75985
1.78278
1.79246
1.79846
1.81738
1.84122
1.8629
1.84615
1.88432
1.89716
1.90151
1.92604
1.94761
1.94346
1.97104
1.98516
2.00026
2.01366
2.03569
2.04
2.05161
2.06208
2.09286
2.11103
2.13283
2.1541
2.16124
2.17543
2.2077
1.59753
1.6027
1.60788
1.6161
1.61881
1.617
1.63411
1.63036
1.63836
1.64998
1.65838
1.6612
1.67436
1.70582
1.70585
1.71356
1.72168
1.73112
1.75736
1.77606
1.7801
1.79951
1.81483
1.82033
1.83092
1.85774
1.86931
1.87719
1.8889
1.89452
1.91816
1.9405
1.9628
1.97202
1.99012
1.9913
2.00086
2.02459
2.03465
2.06196
2.05731
2.09797
2.08701
2.12693
2.12457
2.14887
2.15123
2.1652
2.18255
2.18958
2.20803
2.22234
2.24169
2.26312
2.26627
2.27939
1.60499
1.61773
1.63022
1.64255
1.65423
1.65929
1.68242
1.69509
1.70131
1.7317
1.71739
1.76208
1.75481
1.77848
1.79634
1.81006
1.80557
1.83335
1.8513
1.85672
1.88347
1.90379
1.91243
1.9283
1.94431
1.96277
1.98383
1.99713
2.0119
2.02859
2.05087
2.06073
2.08067
2.08841
2.10614
2.11965
2.14574
2.15382
2.16473
2.16817
2.18134
2.19503
2.21398
2.2202
2.22606
2.24036
2.26132
2.2532
2.28191
2.29621
2.30314
2.31012
2.3292
2.34687
2.37082
2.3718
1.61152
1.63402
1.65331
1.66941
1.68146
1.70963
1.72938
1.7535
1.75987
1.77716
1.80056
1.80813
1.83196
1.85989
1.8707
1.89227
1.91536
1.92901
1.9548
1.97412
1.98231
2.01908
2.03484
2.04978
2.07075
2.06932
2.09571
2.10776
2.12254
2.14297
2.15397
2.16375
2.18755
2.2113
2.22466
2.22746
2.23454
2.25157
2.26168
2.27437
2.28931
2.30211
2.31899
2.32812
2.34473
2.34569
2.36782
2.34749
2.38752
2.39666
2.39645
2.41037
2.42776
2.43433
2.45148
2.44289
1.61722
1.64291
1.66838
1.69169
1.71833
1.74105
1.77005
1.78941
1.81281
1.83477
1.85247
1.89213
1.90776
1.93954
1.95472
1.98811
1.99486
2.02527
2.03773
2.07029
2.08363
2.11893
2.1369
2.15664
2.17532
2.20661
2.20721
2.23654
2.24134
2.25747
2.25073
2.27784
2.28126
2.30217
2.31668
2.33827
2.34285
2.34768
2.36192
2.3932
2.38731
2.40294
2.41354
2.41588
2.43739
2.43523
2.45851
2.46199
2.47276
2.46316
2.4702
2.47388
2.48283
2.51453
2.51646
2.52332
1.62221
1.65331
1.67761
1.70721
1.74538
1.78513
1.8148
1.82653
1.85948
1.89298
1.92272
1.95355
1.97256
2.00462
2.02949
2.04738
2.07416
2.10232
2.13331
2.1524
2.16895
2.18948
2.20609
2.24622
2.2515
2.27982
2.30352
2.31792
2.33544
2.34509
2.36122
2.38415
2.37306
2.4117
2.40659
2.4079
2.43335
2.44901
2.45958
2.45804
2.4843
2.47789
2.47651
2.50048
2.50928
2.52817
2.52101
2.53671
2.52643
2.53805
2.54502
2.54608
2.56098
2.55721
2.57194
2.57543
1.62662
1.66253
1.69848
1.73413
1.76277
1.81416
1.84247
1.86562
1.90401
1.95272
1.9743
2.00102
2.04922
2.07195
2.09378
2.12021
2.14003
2.18606
2.20806
2.2287
2.26338
2.28073
2.30485
2.31507
2.34218
2.3467
2.37704
2.40865
2.40315
2.41006
2.42926
2.45172
2.4657
2.47855
2.48058
2.49222
2.5048
2.50967
2.53793
2.53486
2.53908
2.5435
2.55833
2.54861
2.56272
2.56156
2.5715
2.57165
2.58427
2.58553
2.59268
2.58978
2.60614
2.58882
2.60083
2.61401
1.63468
1.67071
1.71102
1.75112
1.78905
1.82349
1.8671
1.91409
1.9407
1.9939
2.02315
2.04561
2.08472
2.10585
2.1567
2.17534
2.2294
2.22745
2.25702
2.30437
2.31446
2.34859
2.36197
2.38638
2.40592
2.41345
2.43771
2.46459
2.46014
2.48613
2.5109
2.50896
2.52415
2.53704
2.54266
2.55224
2.57478
2.56832
2.57876
2.57174
2.58439
2.58834
2.60603
2.6004
2.61206
2.61278
2.61768
2.61845
2.59612
2.60378
2.59741
2.62394
2.61963
2.62429
2.61755
2.62765
1.64373
1.67795
1.72215
1.76617
1.80976
1.8626
1.89344
1.94665
1.97392
2.01377
2.0624
2.09964
2.12552
2.15903
2.19592
2.22491
2.27601
2.29132
2.31595
2.36085
2.37459
2.39243
2.40906
2.43635
2.4471
2.48167
2.5015
2.51934
2.50938
2.52594
2.54592
2.55163
2.5798
2.58005
2.59547
2.58306
2.59825
2.59366
2.62053
2.59365
2.62221
2.63592
2.62237
2.62795
2.61096
2.62871
2.63174
2.63685
2.62872
2.6222
2.62502
2.62455
2.6168
2.62267
2.60227
2.61545
1.63697
1.6872
1.72521
1.77929
1.81843
1.87196
1.91021
1.96071
2.00242
2.0442
2.09199
2.12314
2.16209
2.20638
2.23494
2.26472
2.29997
2.33979
2.35853
2.38102
2.40658
2.44009
2.4633
2.46959
2.49066
2.50791
2.51904
2.54204
2.56795
2.56
2.57444
2.5866
2.58963
2.59971
2.62025
2.6248
2.62144
2.62778
2.62011
2.62395
2.62386
2.63901
2.63822
2.61764
2.62885
2.62625
2.63108
2.62939
2.64272
2.62312
2.61258
2.60584
2.60909
2.59796
2.58046
2.59105
1.63955
1.68979
1.74031
1.79059
1.83849
1.88145
1.94697
1.97674
2.03924
2.07465
2.1329
2.16293
2.19084
2.24788
2.27069
2.30188
2.32629
2.35226
2.38936
2.41714
2.45399
2.46486
2.476
2.48184
2.519
2.52734
2.5646
2.55958
2.5649
2.57152
2.59104
2.58639
2.60975
2.61249
2.59577
2.63529
2.62735
2.64153
2.62682
2.62634
2.62255
2.62105
2.61662
2.61786
2.61752
2.63202
2.60391
2.60863
2.60948
2.6035
2.59286
2.58383
2.55517
2.55121
2.54155
2.53337
1.6417
1.69442