/*--------------------------------*- C++ -*----------------------------------*\
  =========                 |
  \\      /  F ield         | OpenFOAM: The Open Source CFD Toolbox
   \\    /   O peration     | Website:  https://openfoam.org
    \\  /    A nd           | Version:  6
     \\/     M anipulation  |
\*---------------------------------------------------------------------------*/
FoamFile
{
    version     2.0;
    format      ascii;
    class       volScalarField;
    location    "./ITHACAoutput/Offline/1";
    object      p_rgh;
}
// * * * * * * * * * * * * * * * * * * * * * * * * * * * * * * * * * * * * * //

dimensions      [0 2 -2 0 0 0 0];

internalField   nonuniform List<scalar> 
115600
(
-4.51986
-4.53894
-4.53253
-4.53675
-4.53021
-4.51835
-4.53068
-4.53731
-4.51907
-4.5318
-4.51892
-4.52871
-4.52851
-4.52926
-4.52597
-4.52611
-4.5234
-4.52861
-4.52479
-4.51725
-4.5171
-4.51798
-4.53395
-4.52638
-4.52504
-4.51672
-4.53941
-4.51429
-4.52385
-4.51526
-4.51504
-4.52282
-4.52309
-4.53536
-4.52569
-4.51805
-4.521
-4.52939
-4.52606
-4.52511
-4.52953
-4.52521
-4.52997
-4.53602
-4.53199
-4.53306
-4.54127
-4.5273
-4.53956
-4.54794
-4.55351
-4.55122
-4.56863
-4.57862
-4.58632
-4.6092
-4.53106
-4.53164
-4.53054
-4.53
-4.52848
-4.53103
-4.51951
-4.5369
-4.52084
-4.53106
-4.529
-4.5284
-4.52869
-4.52814
-4.52978
-4.51743
-4.52851
-4.52656
-4.52404
-4.5165
-4.53282
-4.51522
-4.5257
-4.52602
-4.52467
-4.51422
-4.53311
-4.5341
-4.52437
-4.51581
-4.53234
-4.52282
-4.52468
-4.53485
-4.52662
-4.51894
-4.51966
-4.53014
-4.5322
-4.52548
-4.53822
-4.52689
-4.52821
-4.5171
-4.53275
-4.53328
-4.53332
-4.5286
-4.54279
-4.54983
-4.54231
-4.55162
-4.56965
-4.5781
-4.60255
-4.60018
-4.53943
-4.53294
-4.53896
-4.53083
-4.53039
-4.5314
-4.52994
-4.5377
-4.53177
-4.518
-4.52022
-4.53048
-4.5299
-4.52814
-4.53071
-4.52909
-4.52851
-4.52461
-4.525
-4.53525
-4.53459
-4.51486
-4.52375
-4.52615
-4.5243
-4.51543
-4.52616
-4.53303
-4.52348
-4.51488
-4.53485
-4.5232
-4.52469
-4.53485
-4.5282
-4.51843
-4.52969
-4.53135
-4.53245
-4.53455
-4.51999
-4.53333
-4.53017
-4.51692
-4.5236
-4.53019
-4.53303
-4.545
-4.53296
-4.54829
-4.55449
-4.55121
-4.56963
-4.57831
-4.59514
-4.59796
-4.52001
-4.53123
-4.53213
-4.51888
-4.53152
-4.52088
-4.5194
-4.5304
-4.53658
-4.53143
-4.52834
-4.53046
-4.52952
-4.51833
-4.52646
-4.52662
-4.52303
-4.52587
-4.52325
-4.51703
-4.53245
-4.51486
-4.52374
-4.52443
-4.52354
-4.51454
-4.52378
-4.53215
-4.52614
-4.51544
-4.53328
-4.52403
-4.5243
-4.53393
-4.52569
-4.51894
-4.52957
-4.52922
-4.53246
-4.51847
-4.52025
-4.53409
-4.52842
-4.53509
-4.53108
-4.53253
-4.54312
-4.52686
-4.54975
-4.53184
-4.5532
-4.56168
-4.55807
-4.58024
-4.58721
-4.6025
-4.52102
-4.53805
-4.53926
-4.52137
-4.53003
-4.53735
-4.5382
-4.53045
-4.51875
-4.52907
-4.52832
-4.52064
-4.52902
-4.51831
-4.51848
-4.53124
-4.52621
-4.52579
-4.52438
-4.51778
-4.51673
-4.51523
-4.52532
-4.52455
-4.52353
-4.51506
-4.5258
-4.53337
-4.52364
-4.53355
-4.5316
-4.52194
-4.52394
-4.53355
-4.52531
-4.51856
-4.52919
-4.53174
-4.53247
-4.51755
-4.52026
-4.52327
-4.51824
-4.5348
-4.53223
-4.53393
-4.53381
-4.54352
-4.53199
-4.55046
-4.53714
-4.55049
-4.56715
-4.56248
-4.59544
-4.60873
-4.52195
-4.52015
-4.5201
-4.53148
-4.53003
-4.52984
-4.53789
-4.53702
-4.53146
-4.52001
-4.52942
-4.53713
-4.52834
-4.52773
-4.52809
-4.52836
-4.52594
-4.52503
-4.51559
-4.52547
-4.51535
-4.51667
-4.52568
-4.52562
-4.5234
-4.53277
-4.52543
-4.53301
-4.52369
-4.5324
-4.53375
-4.51765
-4.52319
-4.5328
-4.52746
-4.5375
-4.52051
-4.52994
-4.53198
-4.51796
-4.52066
-4.52488
-4.51956
-4.5352
-4.53421
-4.53005
-4.53457
-4.52671
-4.54948
-4.54064
-4.55224
-4.55209
-4.56878
-4.58065
-4.59296
-4.59828
-4.5328
-4.53111
-4.52908
-4.52088
-4.53151
-4.53191
-4.53832
-4.52902
-4.53057
-4.52857
-4.53067
-4.52979
-4.53017
-4.52843
-4.52594
-4.52723
-4.52856
-4.52607
-4.52619
-4.53441
-4.52397
-4.52465
-4.53262
-4.52347
-4.5239
-4.53328
-4.52505
-4.53106
-4.52254
-4.53166
-4.5247
-4.53421
-4.53485
-4.52588
-4.5155
-4.53567
-4.52027
-4.52263
-4.52466
-4.53531
-4.52163
-4.5228
-4.51948
-4.53483
-4.53251
-4.53057
-4.53604
-4.52672
-4.54986
-4.53208
-4.53752
-4.55173
-4.56009
-4.57734
-4.59333
-4.60386
-4.53372
-4.52951
-4.53095
-4.53868
-4.53113
-4.53889
-4.53837
-4.51914
-4.51848
-4.53147
-4.52903
-4.52093
-4.53745
-4.52853
-4.51806
-4.52611
-4.52746
-4.52665
-4.53349
-4.51745
-4.53173
-4.52501
-4.53391
-4.52559
-4.52313
-4.53119
-4.52388
-4.522
-4.5321
-4.52436
-4.51437
-4.52478
-4.52755
-4.51869
-4.52641
-4.51953
-4.52988
-4.5116
-4.51523
-4.52588
-4.53031
-4.52541
-4.53171
-4.53371
-4.53138
-4.53266
-4.53201
-4.54567
-4.53111
-4.54175
-4.55438
-4.54972
-4.56872
-4.57846
-4.60086
-4.60173
-4.53056
-4.5209
-4.52145
-4.53094
-4.53148
-4.52013
-4.52019
-4.51934
-4.53066
-4.51937
-4.52857
-4.5197
-4.53048
-4.52727
-4.52953
-4.52836
-4.5282
-4.52884
-4.51779
-4.51783
-4.53476
-4.52502
-4.53102
-4.52521
-4.51525
-4.53056
-4.52356
-4.5159
-4.52441
-4.51494
-4.53451
-4.52459
-4.52447
-4.53421
-4.52705
-4.53533
-4.52048
-4.53085
-4.53127
-4.51888
-4.51986
-4.52366
-4.52006
-4.53555
-4.5326
-4.53479
-4.53389
-4.54321
-4.54849
-4.54757
-4.54422
-4.55115
-4.55161
-4.57916
-4.59855
-4.6055
-4.53219
-4.53875
-4.53195
-4.52977
-4.53784
-4.53198
-4.5299
-4.52924
-4.53071
-4.53595
-4.52921
-4.52897
-4.51795
-4.52798
-4.52774
-4.52796
-4.52821
-4.52743
-4.53604
-4.51749
-4.5252
-4.51596
-4.5249
-4.52408
-4.53114
-4.51576
-4.52378
-4.53301
-4.52347
-4.53117
-4.52396
-4.52645
-4.52515
-4.51615
-4.52731
-4.51912
-4.52775
-4.53244
-4.51589
-4.52524
-4.52188
-4.52438
-4.52001
-4.53656
-4.53239
-4.53343
-4.54245
-4.54511
-4.54055
-4.54869
-4.54497
-4.56036
-4.55821
-4.57743
-4.58824
-4.61074
-4.53295
-4.52127
-4.53155
-4.53198
-4.52938
-4.53761
-4.52014
-4.53063
-4.51937
-4.51848
-4.52905
-4.52816
-4.53041
-4.52695
-4.52672
-4.52684
-4.52748
-4.52726
-4.52626
-4.52328
-4.51607
-4.5322
-4.51616
-4.52593
-4.52309
-4.5325
-4.52392
-4.51469
-4.52441
-4.51549
-4.53217
-4.53335
-4.53536
-4.52462
-4.51637
-4.52865
-4.53768
-4.51335
-4.51674
-4.5265
-4.52038
-4.5233
-4.51931
-4.53271
-4.5154
-4.5319
-4.5415
-4.53483
-4.54145
-4.54141
-4.54334
-4.55021
-4.55772
-4.56763
-4.58666
-4.59747
-4.52119
-4.53073
-4.5308
-4.53121
-4.52085
-4.51855
-4.53815
-4.52896
-4.5292
-4.52972
-4.51924
-4.52048
-4.52732
-4.52841
-4.53019
-4.52793
-4.52859
-4.52838
-4.52739
-4.53486
-4.51707
-4.51522
-4.52415
-4.52173
-4.5242
-4.53284
-4.52264
-4.52212
-4.52478
-4.51623
-4.53291
-4.53476
-4.51459
-4.5251
-4.51684
-4.52703
-4.53643
-4.51306
-4.53334
-4.52568
-4.52144
-4.53239
-4.52069
-4.53533
-4.51525
-4.53284
-4.52364
-4.53832
-4.54162
-4.54213
-4.54254
-4.55987
-4.55566
-4.57526
-4.59489
-4.61207
-4.53157
-4.52992
-4.53045
-4.5301
-4.52971
-4.53836
-4.53072
-4.53047
-4.51907
-4.52106
-4.53073
-4.52991
-4.52888
-4.52862
-4.52816
-4.52791
-4.52858
-4.52708
-4.52741
-4.53488
-4.51722
-4.51523
-4.52558
-4.52331
-4.52418
-4.53414
-4.52356
-4.52291
-4.52607
-4.51635
-4.53303
-4.53475
-4.53386
-4.52562
-4.53597
-4.51843
-4.52962
-4.53022
-4.53285
-4.5264
-4.52848
-4.53397
-4.52093
-4.52742
-4.53404
-4.52427
-4.53333
-4.53862
-4.5319
-4.55137
-4.55368
-4.5505
-4.57423
-4.58066
-4.58961
-4.60839
-4.53177
-4.52137
-4.51946
-4.53158
-4.53124
-4.52104
-4.53764
-4.53779
-4.53732
-4.52056
-4.51843
-4.52907
-4.52887
-4.52824
-4.5294
-4.52754
-4.52746
-4.52437
-4.5263
-4.52559
-4.51611
-4.53221
-4.53211
-4.5252
-4.52184
-4.53207
-4.52281
-4.51558
-4.52373
-4.5337
-4.52238
-4.52622
-4.52533
-4.53413
-4.52628
-4.53605
-4.52082
-4.51409
-4.53412
-4.52678
-4.52702
-4.5349
-4.53869
-4.52676
-4.52326
-4.53926
-4.53195
-4.5359
-4.54122
-4.53925
-4.54355
-4.55699
-4.562
-4.56166
-4.59734
-4.60594
-4.52206
-4.53083
-4.53125
-4.52973
-4.52989
-4.53009
-4.53816
-4.52895
-4.53216
-4.53113
-4.53713
-4.52926
-4.52849
-4.52552
-4.51827
-4.51748
-4.52642
-4.52888
-4.53346
-4.51596
-4.52525
-4.51548
-4.52582
-4.52283
-4.53201
-4.51624
-4.52464
-4.52199
-4.51488
-4.51837
-4.53346
-4.54043
-4.5356
-4.52459
-4.53535
-4.51835
-4.52042
-4.51423
-4.53388
-4.52629
-4.51289
-4.51641
-4.53658
-4.52443
-4.52526
-4.5316
-4.54165
-4.53388
-4.53069
-4.54883
-4.55194
-4.55743
-4.55593
-4.57819
-4.59526
-4.59206
-4.5228
-4.52143
-4.51952
-4.53199
-4.52083
-4.5196
-4.5292
-4.52974
-4.53002
-4.52928
-4.52835
-4.52992
-4.52765
-4.53025
-4.52685
-4.52638
-4.52594
-4.51668
-4.51573
-4.51671
-4.53444
-4.51622
-4.52455
-4.52369
-4.53525
-4.51626
-4.53194
-4.53316
-4.5227
-4.53239
-4.52215
-4.52309
-4.52269
-4.52585
-4.53579
-4.51708
-4.5202
-4.53185
-4.52432
-4.535
-4.51882
-4.53311
-4.52758
-4.52486
-4.53131
-4.52019
-4.54255
-4.52502
-4.54055
-4.54726
-4.55087
-4.55531
-4.56173
-4.56791
-4.58105
-4.59514
-4.532
-4.532
-4.52944
-4.53125
-4.53046
-4.53676
-4.52014
-4.53085
-4.5191
-4.53607
-4.53076
-4.5289
-4.53729
-4.52811
-4.52694
-4.52837
-4.52667
-4.52575
-4.51703
-4.5167
-4.53285
-4.51635
-4.52668
-4.52368
-4.53537
-4.51746
-4.53205
-4.53193
-4.52319
-4.53274
-4.52317
-4.52198
-4.53257
-4.52384
-4.52575
-4.53685
-4.52876
-4.52142
-4.52358
-4.53438
-4.5378
-4.52349
-4.53005
-4.53557
-4.53459
-4.52399
-4.53277
-4.53619
-4.53771
-4.53795
-4.54854
-4.5477
-4.55975
-4.56614
-4.58638
-4.58969
-4.5214
-4.52027
-4.53171
-4.53897
-4.53657
-4.53015
-4.53852
-4.51993
-4.52853
-4.52969
-4.52022
-4.53608
-4.52766
-4.52858
-4.5266
-4.52673
-4.52815
-4.52649
-4.51701
-4.51595
-4.52417
-4.5156
-4.52329
-4.52255
-4.52366
-4.51619
-4.52564
-4.52298
-4.53364
-4.51684
-4.52574
-4.52559
-4.52602
-4.52744
-4.51735
-4.51962
-4.53806
-4.52203
-4.5233
-4.5335
-4.51898
-4.52347
-4.53826
-4.53371
-4.53983
-4.52952
-4.53911
-4.52535
-4.54659
-4.54761
-4.55567
-4.55423
-4.56596
-4.57467
-4.59012
-4.58644
-4.52303
-4.52242
-4.51998
-4.5215
-4.53178
-4.52103
-4.53047
-4.52067
-4.52926
-4.51988
-4.52965
-4.51965
-4.52839
-4.52709
-4.52874
-4.52965
-4.52814
-4.53502
-4.52507
-4.52447
-4.52417
-4.51577
-4.51478
-4.52645
-4.52321
-4.53221
-4.52293
-4.51528
-4.52517
-4.53326
-4.52356
-4.52223
-4.53122
-4.51805
-4.51732
-4.5171
-4.5291
-4.52113
-4.54008
-4.53343
-4.51952
-4.53119
-4.53553
-4.53211
-4.52095
-4.5315
-4.53209
-4.5324
-4.53908
-4.5432
-4.54509
-4.55276
-4.55348
-4.56962
-4.57634
-4.59053
-4.53241
-4.53816
-4.53027
-4.5302
-4.53873
-4.52104
-4.53121
-4.52029
-4.52926
-4.53089
-4.52909
-4.52821
-4.5357
-4.5295
-4.51703
-4.52704
-4.52669
-4.52577
-4.52468
-4.5363
-4.53345
-4.5145
-4.51565
-4.5262
-4.51588
-4.5162
-4.53133
-4.52423
-4.5325
-4.5161
-4.52392
-4.52473
-4.51435
-4.52383
-4.51707
-4.5166
-4.52624
-4.52202
-4.51342
-4.52556
-4.52646
-4.53057
-4.52947
-4.51484
-4.53294
-4.5306
-4.52889
-4.54165
-4.53885
-4.53769
-4.55377
-4.56131
-4.56397
-4.57569
-4.58168
-4.59333
-4.52163
-4.52974
-4.52086
-4.52985
-4.52089
-4.52917
-4.52972
-4.53009
-4.51945
-4.53005
-4.52834
-4.51928
-4.52965
-4.52983
-4.5306
-4.52691
-4.52469
-4.52613
-4.52481
-4.52612
-4.51571
-4.51492
-4.53238
-4.52345
-4.52331
-4.51711
-4.5245
-4.52201
-4.52483
-4.52342
-4.52473
-4.52475
-4.51488
-4.51529
-4.5356
-4.52815
-4.52979
-4.52229
-4.53249
-4.52794
-4.52785
-4.53401
-4.52916
-4.53498
-4.5204
-4.53842
-4.53884
-4.52989
-4.52592
-4.54292
-4.5428
-4.54921
-4.56801
-4.55426
-4.57597
-4.58545
-4.5216
-4.52114
-4.52052
-4.52849
-4.53914
-4.53123
-4.52029
-4.51898
-4.5373
-4.51818
-4.53038
-4.52858
-4.52779
-4.52988
-4.5181
-4.51785
-4.52618
-4.52613
-4.53484
-4.52564
-4.53322
-4.53322
-4.51525
-4.52524
-4.51426
-4.533
-4.53346
-4.52234
-4.52426
-4.5233
-4.52304
-4.53166
-4.52454
-4.53364
-4.52679
-4.51647
-4.51857
-4.5285
-4.52308
-4.53453
-4.5302
-4.52392
-4.51946
-4.53305
-4.53857
-4.52808
-4.52836
-4.54199
-4.54258
-4.53436
-4.5432
-4.53884
-4.56695
-4.5688
-4.5796
-4.59134
-4.53248
-4.52913
-4.52054
-4.53751
-4.53036
-4.52872
-4.53045
-4.52915
-4.52997
-4.53049
-4.53555
-4.53019
-4.51785
-4.52933
-4.52772
-4.52649
-4.52795
-4.51769
-4.51697
-4.52697
-4.52579
-4.51451
-4.51574
-4.53225
-4.52317
-4.51523
-4.53343
-4.52179
-4.53063
-4.52422
-4.52479
-4.5319
-4.5319
-4.52514
-4.52652
-4.52733
-4.52009
-4.528
-4.53255
-4.53442
-4.53743
-4.53155
-4.52802
-4.52264
-4.53155
-4.52736
-4.52931
-4.53116
-4.53588
-4.5409
-4.54017
-4.54334
-4.56319
-4.56686
-4.57506
-4.5868
-4.52115
-4.52153
-4.52094
-4.52163
-4.52132
-4.51805
-4.53068
-4.53947
-4.53099
-4.53816
-4.5207
-4.51859
-4.52915
-4.51934
-4.52698
-4.52877
-4.52631
-4.52761
-4.5259
-4.53518
-4.53409
-4.53286
-4.53112
-4.52449
-4.52483
-4.51664
-4.5312
-4.52286
-4.51417
-4.52258
-4.53194
-4.53358
-4.53285
-4.53456
-4.52544
-4.53372
-4.5371
-4.52134
-4.5216
-4.52638
-4.50934
-4.52176
-4.51654
-4.51349
-4.5204
-4.53761
-4.52723
-4.53022
-4.54129
-4.53999
-4.53875
-4.55904
-4.55899
-4.56032
-4.58293
-4.58701
-4.53166
-4.52033
-4.53039
-4.5295
-4.51882
-4.51856
-4.52923
-4.53117
-4.52957
-4.53853
-4.51963
-4.52907
-4.52766
-4.51985
-4.52587
-4.51836
-4.52617
-4.52724
-4.52558
-4.52449
-4.51538
-4.51498
-4.53253
-4.5241
-4.52382
-4.52309
-4.53032
-4.52174
-4.53253
-4.53414
-4.51637
-4.53507
-4.51553
-4.51573
-4.52703
-4.51688
-4.5366
-4.5299
-4.53079
-4.52618
-4.51794
-4.52225
-4.5349
-4.52322
-4.5379
-4.53314
-4.52554
-4.52731
-4.53033
-4.53792
-4.54618
-4.54097
-4.55625
-4.55718
-4.57956
-4.58219
-4.53163
-4.52989
-4.53921
-4.53222
-4.52864
-4.53088
-4.52082
-4.52837
-4.53245
-4.52949
-4.53803
-4.52908
-4.5289
-4.51805
-4.52904
-4.52742
-4.52618
-4.52649
-4.53624
-4.53478
-4.51555
-4.51663
-4.53251
-4.5138
-4.52397
-4.51499
-4.5245
-4.52412
-4.5327
-4.52355
-4.53246
-4.51482
-4.51778
-4.53508
-4.51604
-4.53426
-4.5175
-4.52184
-4.53063
-4.53365
-4.5253
-4.52107
-4.53485
-4.53228
-4.52744
-4.53558
-4.52698
-4.53736
-4.52264
-4.53691
-4.54208
-4.54552
-4.56327
-4.56123
-4.57087
-4.57454
-4.53808
-4.53165
-4.51979
-4.52011
-4.53043
-4.52959
-4.53799
-4.52965
-4.52843
-4.51905
-4.52708
-4.51926
-4.52915
-4.52701
-4.5294
-4.52584
-4.52649
-4.52354
-4.52607
-4.51608
-4.52428
-4.51737
-4.53128
-4.53239
-4.52533
-4.53137
-4.53168
-4.52277
-4.51529
-4.5232
-4.5249
-4.53169
-4.52231
-4.53333
-4.52482
-4.53463
-4.52759
-4.52818
-4.52036
-4.51641
-4.52644
-4.53079
-4.52581
-4.54118
-4.52783
-4.51538
-4.53548
-4.52773
-4.53685
-4.53539
-4.54267
-4.53519
-4.55819
-4.5567
-4.56595
-4.58444
-4.5312
-4.52222
-4.53048
-4.53151
-4.53043
-4.53644
-4.53044
-4.52966
-4.53084
-4.51941
-4.52757
-4.5283
-4.52815
-4.5347
-4.52849
-4.52715
-4.52835
-4.52415
-4.52521
-4.52301
-4.52388
-4.51659
-4.53102
-4.52467
-4.52311
-4.52153
-4.51461
-4.52275
-4.51317
-4.52507
-4.5144
-4.51612
-4.5329
-4.52363
-4.51491
-4.52426
-4.51904
-4.52042
-4.52046
-4.52486
-4.51895
-4.5309
-4.51689
-4.53606
-4.53534
-4.53387
-4.53151
-4.53378
-4.53435
-4.53131
-4.53951
-4.54867
-4.55717
-4.56071
-4.56568
-4.57664
-4.52137
-4.53101
-4.53888
-4.53041
-4.52065
-4.53682
-4.53067
-4.53808
-4.53241
-4.53727
-4.51851
-4.52906
-4.53701
-4.53027
-4.52793
-4.52705
-4.52779
-4.52585
-4.52445
-4.5153
-4.51497
-4.53419
-4.51554
-4.52169
-4.52243
-4.53315
-4.5307
-4.52487
-4.51454
-4.52446
-4.53284
-4.52479
-4.53214
-4.52569
-4.52493
-4.51629
-4.53594
-4.52014
-4.52859
-4.53234
-4.52317
-4.52806
-4.52527
-4.53763
-4.53436
-4.53345
-4.54036
-4.53328
-4.53621
-4.53703
-4.53842
-4.54687
-4.54084
-4.55332
-4.55881
-4.57834
-4.53031
-4.53063
-4.53125
-4.53043
-4.51852
-4.52914
-4.53173
-4.52034
-4.53008
-4.52882
-4.53156
-4.51924
-4.51835
-4.52966
-4.52904
-4.52634
-4.52583
-4.52566
-4.51797
-4.52673
-4.52351
-4.51585
-4.53151
-4.52333
-4.52298
-4.53277
-4.53087
-4.52428
-4.51356
-4.5231
-4.52279
-4.53394
-4.53204
-4.52317
-4.53264
-4.53541
-4.51807
-4.52673
-4.51939
-4.52365
-4.5346
-4.53047
-4.54055
-4.52978
-4.53373
-4.54186
-4.53758
-4.53943
-4.53165
-4.54515
-4.54348
-4.54225
-4.5454
-4.55765
-4.57465
-4.57855
-4.52062
-4.54045
-4.52964
-4.53119
-4.53001
-4.52111
-4.52931
-4.52033
-4.51989
-4.52993
-4.51905
-4.5294
-4.53659
-4.53734
-4.52941
-4.51678
-4.52578
-4.52592
-4.52456
-4.52574
-4.53348
-4.52381
-4.53291
-4.52511
-4.52173
-4.52417
-4.52268
-4.52202
-4.52214
-4.53129
-4.52457
-4.52426
-4.52547
-4.52466
-4.53218
-4.52526
-4.52739
-4.51153
-4.52949
-4.53101
-4.51505
-4.52777
-4.53315
-4.52596
-4.54139
-4.53223
-4.53784
-4.53869
-4.53206
-4.5431
-4.53028
-4.55618
-4.54955
-4.56009
-4.57022
-4.56076
-4.53216
-4.53049
-4.52236
-4.51995
-4.53002
-4.52111
-4.53079
-4.53818
-4.52943
-4.53686
-4.51941
-4.53709
-4.52944
-4.51789
-4.52829
-4.52733
-4.52809
-4.52825
-4.52572
-4.52661
-4.52728
-4.51564
-4.51604
-4.51576
-4.52442
-4.52355
-4.53171
-4.52985
-4.53292
-4.53141
-4.52322
-4.52307
-4.51483
-4.5324
-4.52538
-4.52456
-4.52532
-4.53675
-4.52913
-4.5226
-4.52335
-4.51889
-4.53234
-4.53591
-4.54055
-4.51963
-4.53592
-4.52689
-4.52786
-4.53178
-4.53546
-4.54349
-4.54567
-4.55369
-4.56635
-4.55859
-4.53177
-4.53165
-4.53016
-4.53195
-4.51986
-4.53204
-4.5381
-4.52961
-4.53004
-4.53003
-4.51852
-4.53745
-4.51927
-4.51789
-4.52597
-4.53644
-4.52725
-4.52627
-4.52547
-4.52388
-4.52363
-4.53486
-4.53446
-4.53377
-4.52306
-4.52483
-4.51521
-4.53075
-4.53146
-4.5317
-4.52196
-4.53082
-4.51509
-4.51555
-4.53444
-4.52355
-4.52494
-4.51893
-4.53822
-4.53069
-4.52228
-4.5187
-4.53205
-4.52718
-4.52974
-4.51837
-4.52567
-4.54379
-4.53595
-4.53767
-4.54904
-4.53785
-4.5388
-4.55574
-4.56112
-4.56866
-4.53059
-4.53049
-4.53906
-4.53126
-4.51856
-4.52074
-4.53811
-4.53854
-4.52751
-4.52877
-4.52981
-4.53586
-4.52869
-4.53664
-4.52866
-4.51858
-4.52724
-4.52695
-4.52806
-4.51593
-4.53483
-4.51663
-4.51573
-4.53325
-4.52468
-4.52406
-4.51498
-4.53172
-4.52387
-4.5157
-4.52249
-4.53216
-4.53245
-4.5232
-4.52419
-4.53226
-4.52463
-4.52813
-4.52857
-4.52171
-4.52247
-4.52857
-4.53074
-4.5347
-4.5308
-4.518
-4.53261
-4.53183
-4.53466
-4.5431
-4.54051
-4.54468
-4.55079
-4.54768
-4.54949
-4.55102
-4.5302
-4.52862
-4.53014
-4.52142
-4.53087
-4.5186
-4.52921
-4.52898
-4.53016
-4.52064
-4.52882
-4.53156
-4.52905
-4.52844
-4.53777
-4.51606
-4.52598
-4.51621
-4.5258
-4.5249
-4.5161
-4.52391
-4.52406
-4.53502
-4.52405
-4.52334
-4.53099
-4.51511
-4.52016
-4.5219
-4.52307
-4.53
-4.52189
-4.52274
-4.52207
-4.52549
-4.51507
-4.53556
-4.52887
-4.51356
-4.52231
-4.53433
-4.53133
-4.51618
-4.52071
-4.53385
-4.53263
-4.52226
-4.53743
-4.53937
-4.5433
-4.54912
-4.53761
-4.55046
-4.5506
-4.55794
-4.53787
-4.53951
-4.53306
-4.53892
-4.53088
-4.52952
-4.52191
-4.52972
-4.52675
-4.53733
-4.519
-4.5303
-4.52859
-4.51876
-4.51739
-4.5339
-4.52499
-4.5273
-4.52661
-4.52562
-4.52314
-4.52317
-4.52242
-4.53049
-4.51386
-4.52279
-4.52254
-4.5316
-4.52139
-4.52342
-4.52329
-4.51313
-4.52194
-4.51309
-4.51423
-4.52687
-4.52604
-4.5258
-4.51812
-4.52028
-4.53286
-4.5246
-4.52988
-4.5323
-4.52891
-4.52506
-4.51935
-4.53506
-4.53569
-4.536
-4.52979
-4.55018
-4.55648
-4.55221
-4.55905
-4.55714
-4.53244
-4.52258
-4.53158
-4.53772
-4.53773
-4.52112
-4.53041
-4.53008
-4.51982
-4.52926
-4.52954
-4.52716
-4.52909
-4.52771
-4.52858
-4.52909
-4.52814
-4.52757
-4.52784
-4.52596
-4.52442
-4.52368
-4.51516
-4.53113
-4.53062
-4.53229
-4.5329
-4.53126
-4.52293
-4.52237
-4.53107
-4.52086
-4.53037
-4.51647
-4.53207
-4.5333
-4.52643
-4.52432
-4.53477
-4.52081
-4.52112
-4.52349
-4.52712
-4.52346
-4.52377
-4.52234
-4.5211
-4.53415
-4.53412
-4.53423
-4.54432
-4.53699
-4.55082
-4.55225
-4.54645
-4.5459
-4.53168
-4.53219
-4.51988
-4.53063
-4.53774
-4.52041
-4.52957
-4.5285
-4.53819
-4.51945
-4.51974
-4.52024
-4.52945
-4.52004
-4.52774
-4.52764
-4.52664
-4.52545
-4.52522
-4.52723
-4.52318
-4.52219
-4.5331
-4.51492
-4.52355
-4.52271
-4.52186
-4.5154
-4.51408
-4.52988
-4.51309
-4.51977
-4.52975
-4.52278
-4.52263
-4.52147
-4.51552
-4.51531
-4.53467
-4.53043
-4.53048
-4.52396
-4.53398
-4.5209
-4.5147
-4.52757
-4.52485
-4.52268
-4.54039
-4.53019
-4.53039
-4.53186
-4.53488
-4.54445
-4.53633
-4.54421
-4.52299
-4.52295
-4.52894
-4.52855
-4.53089
-4.53898
-4.5317
-4.5285
-4.5305
-4.5284
-4.53027
-4.53153
-4.53588
-4.53058
-4.52848
-4.5265
-4.5274
-4.52692
-4.52569
-4.52783
-4.5229
-4.51483
-4.52347
-4.53291
-4.53125
-4.52308
-4.52357
-4.53266
-4.5315
-4.52018
-4.52003
-4.52971
-4.52288
-4.53047
-4.53029
-4.52359
-4.52476
-4.53558
-4.52689
-4.52763
-4.52314
-4.5316
-4.51687
-4.51089
-4.52355
-4.52733
-4.52584
-4.53209
-4.53526
-4.5255
-4.53236
-4.52526
-4.54392
-4.54764
-4.54609
-4.55605
-4.5197
-4.53237
-4.53787
-4.53269
-4.52969
-4.53018
-4.53096
-4.52157
-4.5203
-4.51808
-4.52756
-4.52956
-4.51814
-4.52656
-4.52934
-4.52611
-4.52551
-4.53458
-4.5252
-4.52539
-4.53507
-4.52418
-4.52243
-4.52171
-4.51441
-4.53104
-4.52167
-4.5237
-4.52032
-4.52333
-4.53867
-4.51397
-4.52301
-4.51503
-4.52127
-4.5333
-4.5321
-4.51475
-4.51764
-4.52719
-4.52159
-4.51422
-4.53292
-4.51842
-4.53085
-4.5179
-4.53716
-4.52646
-4.53207
-4.54035
-4.5389
-4.52999
-4.53133
-4.52919
-4.55334
-4.54865
-4.53793
-4.53385
-4.51989
-4.52943
-4.51988
-4.53055
-4.52115
-4.53249
-4.53122
-4.53821
-4.51933
-4.52666
-4.52756
-4.51963
-4.51802
-4.51872
-4.517
-4.52416
-4.52592
-4.53494
-4.52564
-4.52339
-4.53314
-4.53154
-4.52081
-4.53116
-4.52233
-4.52334
-4.53203
-4.53028
-4.52182
-4.52051
-4.51411
-4.51228
-4.52131
-4.52341
-4.52121
-4.53492
-4.51468
-4.52652
-4.51767
-4.51218
-4.52386
-4.53341
-4.52046
-4.52209
-4.51961
-4.5326
-4.52774
-4.52542
-4.51663
-4.53867
-4.53209
-4.54574
-4.524
-4.55349
-4.5306
-4.52985
-4.53787
-4.54038
-4.52907
-4.52149
-4.52881
-4.53112
-4.52889
-4.53052
-4.53861
-4.52916
-4.52997
-4.51938
-4.5266
-4.51908
-4.53283
-4.53438
-4.51469
-4.51402
-4.52559
-4.52495
-4.52457
-4.52179
-4.53302
-4.51304
-4.51216
-4.51241
-4.5197
-4.52145
-4.51373
-4.52145
-4.52949
-4.52276
-4.52096
-4.53274
-4.53003
-4.53208
-4.52492
-4.53586
-4.52791
-4.53483
-4.53082
-4.53204
-4.51773
-4.53031
-4.52365
-4.53007
-4.52496
-4.53054
-4.52016
-4.54222
-4.53917
-4.53523
-4.53122
-4.54119
-4.52989
-4.53022
-4.53112
-4.53774
-4.52001
-4.53008
-4.52968
-4.53904
-4.5187
-4.51987
-4.53559
-4.53647
-4.52015
-4.51816
-4.51931
-4.52653
-4.52931
-4.52629
-4.52589
-4.52578
-4.53234
-4.52331
-4.5223
-4.53266
-4.51565
-4.51458
-4.53155
-4.52957
-4.52122
-4.51935
-4.52196
-4.52124
-4.52253
-4.51047
-4.53295
-4.52085
-4.52996
-4.52422
-4.52428
-4.52236
-4.52549
-4.52722
-4.52928
-4.51496
-4.5245
-4.51682
-4.52215
-4.52491
-4.52943
-4.53637
-4.5385
-4.52592
-4.53211
-4.5263
-4.5346
-4.52674
-4.53789
-4.5304
-4.51964
-4.53219
-4.53271
-4.53216
-4.52968
-4.52033
-4.52924
-4.51911
-4.53702
-4.51776
-4.51864
-4.51982
-4.53728
-4.53495
-4.53661
-4.52695
-4.51605
-4.52735
-4.52367
-4.52217
-4.52292
-4.52207
-4.52397
-4.52213
-4.5298
-4.51432
-4.52159
-4.53862
-4.52234
-4.52944
-4.52121
-4.52118
-4.53033
-4.5141
-4.51943
-4.52076
-4.52244
-4.51363
-4.52573
-4.51767
-4.51873
-4.53006
-4.52168
-4.52597
-4.5218
-4.52955
-4.53305
-4.52067
-4.52449
-4.52941
-4.54113
-4.52406
-4.5358
-4.53995
-4.5315
-4.53132
-4.52982
-4.53787
-4.5322
-4.52983
-4.52936
-4.53097
-4.52157
-4.53659
-4.537
-4.52793
-4.53473
-4.52709
-4.53434
-4.52792
-4.51801
-4.52609
-4.534
-4.52567
-4.52654
-4.52391
-4.53128
-4.52322
-4.53874
-4.52139
-4.53094
-4.52844
-4.5297
-4.53007
-4.5298
-4.52148
-4.52073
-4.51962
-4.52948
-4.5295
-4.52041
-4.52319
-4.52125
-4.52267
-4.5149
-4.52409
-4.51839
-4.51934
-4.52824
-4.53077
-4.51573
-4.53438
-4.52079
-4.52453
-4.52623
-4.52137
-4.53308
-4.53295
-4.52961
-4.51757
-4.53269
-4.53076
-4.54038
-4.53343
-4.52001
-4.5399
-4.53085
-4.52938
-4.52923
-4.52927
-4.5182
-4.52025
-4.53723
-4.51728
-4.53519
-4.51935
-4.52816
-4.5268
-4.53419
-4.51656
-4.51522
-4.52518
-4.5149
-4.51229
-4.52261
-4.52474
-4.52375
-4.52011
-4.53043
-4.51373
-4.52991
-4.52288
-4.52953
-4.52934
-4.52036
-4.53022
-4.53022
-4.52163
-4.51907
-4.52422
-4.52029
-4.52383
-4.51641
-4.52553
-4.51671
-4.52143
-4.52089
-4.52366
-4.52377
-4.51831
-4.52154
-4.52351
-4.53113
-4.52011
-4.51075
-4.52213
-4.53092
-4.53881
-4.53037
-4.53194
-4.52081
-4.53099
-4.53047
-4.52128
-4.53052
-4.51958
-4.5195
-4.52933
-4.53852
-4.53568
-4.51982
-4.51681
-4.52807
-4.51765
-4.51629
-4.53366
-4.53157
-4.51348
-4.52121
-4.53315
-4.52265
-4.52113
-4.52222
-4.53816
-4.53902
-4.5297
-4.52973
-4.52794
-4.51903
-4.52019
-4.51929
-4.52883
-4.51866
-4.52885
-4.53691
-4.52964
-4.51384
-4.53101
-4.52953
-4.52362
-4.52356
-4.5254
-4.50962
-4.5202
-4.51967
-4.52226
-4.5255
-4.52278
-4.5127
-4.52873
-4.52551
-4.53416
-4.52091
-4.52945
-4.53018
-4.52943
-4.53036
-4.53057
-4.5379
-4.51955
-4.5299
-4.52938
-4.51923
-4.51822
-4.51826
-4.52848
-4.52839
-4.5177
-4.51898
-4.52657
-4.52459
-4.51631
-4.5268
-4.53313
-4.53061
-4.51504
-4.51421
-4.52292
-4.52907
-4.52254
-4.51991
-4.52242
-4.53075
-4.51784
-4.52674
-4.51109
-4.52003
-4.51959
-4.52935
-4.52583
-4.51885
-4.51965
-4.5199
-4.53027
-4.51248
-4.52046
-4.52167
-4.52257
-4.52533
-4.52724
-4.53365
-4.52421
-4.52545
-4.5159
-4.51478
-4.5267
-4.52873
-4.51054
-4.52128
-4.53245
-4.53231
-4.53184
-4.53185
-4.53093
-4.52078
-4.52935
-4.53063
-4.52937
-4.53015
-4.52906
-4.51916
-4.51995
-4.51833
-4.52712
-4.51616
-4.51711
-4.53483
-4.51722
-4.53235
-4.53136
-4.51614
-4.52383
-4.53095
-4.51332
-4.52983
-4.52127
-4.52032
-4.51985
-4.52843
-4.52057
-4.52132
-4.51911
-4.51886
-4.51749
-4.51814
-4.52618
-4.528
-4.51725
-4.51723
-4.52703
-4.51867
-4.5274
-4.51893
-4.52724
-4.51909
-4.5107
-4.52002
-4.52682
-4.51708
-4.51626
-4.52259
-4.51652
-4.49885
-4.51752
-4.52128
-4.53037
-4.53055
-4.52129
-4.52092
-4.53148
-4.53113
-4.53708
-4.52083
-4.53835
-4.53732
-4.52892
-4.53701
-4.53756
-4.52652
-4.53546
-4.51826
-4.51537
-4.51855
-4.53208
-4.53238
-4.52419
-4.53179
-4.53055
-4.53104
-4.53034
-4.51223
-4.5135
-4.52926
-4.52877
-4.52704
-4.5122
-4.52918
-4.51159
-4.52737
-4.52612
-4.51568
-4.52658
-4.51047
-4.52508
-4.51058
-4.50834
-4.51671
-4.52763
-4.51652
-4.52539
-4.50817
-4.51462
-4.51474
-4.52869
-4.52009
-4.51681
-4.50363
-4.51513
-4.52243
-4.50424
-4.5221
-4.53999
-4.52167
-4.53147
-4.52036
-4.52994
-4.53187
-4.52985
-4.53793
-4.53064
-4.53799
-4.51998
-4.52944
-4.52739
-4.53468
-4.53509
-4.51622
-4.53542
-4.5344
-4.51407
-4.53235
-4.53211
-4.52988
-4.51353
-4.51395
-4.52858
-4.52861
-4.5119
-4.53053
-4.51945
-4.52021
-4.51776
-4.53514
-4.51631
-4.51847
-4.51772
-4.52446
-4.52632
-4.52443
-4.5167
-4.51753
-4.51566
-4.5232
-4.53143
-4.50595
-4.51354
-4.53074
-4.51964
-4.50823
-4.50689
-4.51273
-4.51622
-4.5108
-4.50319
-4.5088
-4.5089
-4.53069
-4.53085
-4.52997
-4.51914
-4.53035
-4.53664
-4.53788
-4.52134
-4.53792
-4.53832
-4.52049
-4.53512
-4.51925
-4.53581
-4.51848
-4.51851
-4.51678
-4.5338
-4.53303
-4.53349
-4.51659
-4.53141
-4.52274
-4.53206
-4.52101
-4.53009
-4.51908
-4.5192
-4.51946
-4.52075
-4.5273
-4.5271
-4.51919
-4.52556
-4.51723
-4.51778
-4.52761
-4.5261
-4.51495
-4.5152
-4.5242
-4.51479
-4.51433
-4.5121
-4.51214
-4.51041
-4.51764
-4.51701
-4.50494
-4.51855
-4.52176
-4.50962
-4.51122
-4.51063
-4.49543
-4.51454
-4.53195
-4.52143
-4.53085
-4.53072
-4.53108
-4.53184
-4.52181
-4.51845
-4.52009
-4.53756
-4.52084
-4.53716
-4.52006
-4.51842
-4.52787
-4.51959
-4.51698
-4.51855
-4.53391
-4.53106
-4.51434
-4.51481
-4.53193
-4.53231
-4.52213
-4.52029
-4.5198
-4.52223
-4.5211
-4.52856
-4.5265
-4.5279
-4.51761
-4.51627
-4.52505
-4.52649
-4.51637
-4.52468
-4.53172
-4.52371
-4.53294
-4.52001
-4.51025
-4.51899
-4.52632
-4.51502
-4.51529
-4.52786
-4.51876
-4.51444
-4.5
-4.51218
-4.51795
-4.50948
-4.50892
-4.49979
-4.53046
-4.5397
-4.53146
-4.5209
-4.53033
-4.53234
-4.53665
-4.53126
-4.5226
-4.5196
-4.51925
-4.51941
-4.53814
-4.53658
-4.51806
-4.53669
-4.53476
-4.51892
-4.5148
-4.53374
-4.51412
-4.53315
-4.5219
-4.52152
-4.52116
-4.5227
-4.52133
-4.52186
-4.52716
-4.52759
-4.52751
-4.53467
-4.52482
-4.52535
-4.528
-4.51648
-4.53354
-4.52366
-4.5142
-4.53055
-4.52141
-4.51291
-4.51804
-4.50819
-4.52368
-4.52241
-4.51952
-4.51667
-4.50415
-4.51833
-4.50094
-4.51373
-4.50891
-4.49826
-4.49292
-4.50602
-4.53232
-4.53109
-4.53928
-4.53107
-4.53233
-4.52833
-4.52218
-4.53162
-4.5192
-4.53191
-4.51849
-4.52052
-4.51715
-4.52057
-4.53445
-4.53397
-4.53399
-4.53441
-4.52463
-4.51658
-4.51503
-4.53289
-4.52037
-4.52312
-4.52201
-4.52254
-4.52097
-4.52906
-4.52934
-4.52762
-4.53569
-4.52502
-4.52522
-4.51432
-4.52292
-4.51677
-4.52274
-4.51385
-4.52907
-4.52105
-4.51278
-4.51836
-4.51635
-4.50603
-4.52845
-4.50998
-4.50904
-4.52243
-4.51845
-4.5219
-4.52108
-4.51367
-4.49459
-4.50844
-4.48939
-4.48855
-4.53927
-4.52179
-4.52164
-4.53927
-4.53232
-4.53144
-4.52058
-4.52966
-4.53882
-4.51977
-4.53815
-4.536
-4.53569
-4.51943
-4.53499
-4.53249
-4.51763
-4.53494
-4.51607
-4.53257
-4.52303
-4.52246
-4.52265
-4.52302
-4.5217
-4.53139
-4.5295
-4.51146
-4.52682
-4.51833
-4.52626
-4.52495
-4.51764
-4.52429
-4.51609
-4.51567
-4.52292
-4.53104
-4.51049
-4.51893
-4.51712
-4.52538
-4.52327
-4.53159
-4.51076
-4.50744
-4.52155
-4.52591
-4.50367
-4.50572
-4.50871
-4.49805
-4.50589
-4.49985
-4.48941
-4.50379
-4.53122
-4.53085
-4.53233
-4.53767
-4.53044
-4.53145
-4.53927
-4.51972
-4.53088
-4.52045
-4.53671
-4.5203
-4.5292
-4.53644
-4.53534
-4.53535
-4.52668
-4.53529
-4.51658
-4.52439
-4.5233
-4.52448
-4.52224
-4.52316
-4.52848
-4.52161
-4.5112
-4.52792
-4.52795
-4.52878
-4.52771
-4.52709
-4.53427
-4.5317
-4.52432
-4.51581
-4.51352
-4.52796
-4.51155
-4.51005
-4.51065
-4.5182
-4.52431
-4.51163
-4.51805
-4.52341
-4.51123
-4.50646
-4.52078
-4.51175
-4.51243
-4.50196
-4.50559
-4.50272
-4.49034
-4.48902
-4.5316
-4.53927
-4.52178
-4.53157
-4.53073
-4.52093
-4.5295
-4.52946
-4.53717
-4.53737
-4.53683
-4.52996
-4.51892
-4.51819
-4.537
-4.53525
-4.53488
-4.51631
-4.52278
-4.52365
-4.52223
-4.5221
-4.53901
-4.52919
-4.53075
-4.5309
-4.51953
-4.52868
-4.51821
-4.52575
-4.51591
-4.51728
-4.52538
-4.5326
-4.52274
-4.52604
-4.5225
-4.51847
-4.52634
-4.52784
-4.50889
-4.52359
-4.51337
-4.52688
-4.51674
-4.51329
-4.52488
-4.51407
-4.50745
-4.50694
-4.51678
-4.50493
-4.50935
-4.48633
-4.50082
-4.48862
-4.52166
-4.5402
-4.53032
-4.53804
-4.53072
-4.53286
-4.53889
-4.51983
-4.52097
-4.51987
-4.53762
-4.52066
-4.52105
-4.51855
-4.51869
-4.51773
-4.5188
-4.52528
-4.52652
-4.52528
-4.52218
-4.52286
-4.5215
-4.52121
-4.53088
-4.52914
-4.52943
-4.52981
-4.52611
-4.52704
-4.51772
-4.51705
-4.53345
-4.51629
-4.53138
-4.51416
-4.52179
-4.52868
-4.51887
-4.50895
-4.5082
-4.52412
-4.5034
-4.52618
-4.51597
-4.52028