/*--------------------------------*- C++ -*----------------------------------*\
  =========                 |
  \\      /  F ield         | OpenFOAM: The Open Source CFD Toolbox
   \\    /   O peration     | Website:  https://openfoam.org
    \\  /    A nd           | Version:  6
     \\/     M anipulation  |
\*---------------------------------------------------------------------------*/
FoamFile
{
    version     2.0;
    format      ascii;
    class       volScalarField;
    location    "0";
    object      p;
}
// * * * * * * * * * * * * * * * * * * * * * * * * * * * * * * * * * * * * * //

dimensions      [0 2 -2 0 0 0 0];

internalField   nonuniform List<scalar> 
918
(
0.219756
0.983758
0.00744101
0.219503
0.000315037
0.952369
-0.81433
0.400973
0.198173
-0.30893
0.0155707
0.190396
0.803789
0.569655
-1.4928
0.00988864
0.35712
-0.730582
0.197322
0.00627483
0.471581
0.204271
0.207509
0.19943
0.256346
0.545688
0.675779
0.00329158
-0.00320162
-0.00168059
0.00422638
-0.00075783
0.00281394
0.825402
0.871736
0.890463
0.168825
0.0179228
-0.708973
-0.763851
-0.743345
-0.891145
0.388637
0.392468
-0.492781
0.402019
0.416254
0.185058
0.197468
0.198267
0.199642
0.198503
0.199898
0.161482
-0.365924
-0.426946
-0.225453
-0.166282
0.0564064
0.0161839
0.0145806
0.0289248
0.0262552
0.125778
0.187454
0.186312
0.19689
0.205952
0.909258
0.881154
0.903953
0.829109
0.84631
0.777819
0.750077
0.590399
0.613028
0.5543
0.544643
-1.95947
-2.93667
-0.89976
-0.617412
0.00101356
0.0155642
0.0213746
0.345436
0.348619
0.355474
0.368041
0.812772
-0.724756
-0.848783
0.196599
0.19587
0.203687
0.205231
0.201583
0.201033
0.0124071
0.01867
-0.000867405
0.00321423
0.00293285
0.44848
0.447709
0.198781
0.196404
0.21494
0.239125
0.228072
-0.037646
0.267204
0.284184
0.37218
0.540595
0.532756
0.543098
0.649796
0.617674
0.70829
0.732597
0.00928921
0.00260208
0.00833823
0.00581751
0.00795317
0.164006
0.157224
0.179827
0.171081
0.173591
-0.0758814
-0.220873
0.093719
0.11434
-0.611483
-0.660003
-0.784558
-0.78725
-0.883073
0.202072
0.381199
0.382526
-0.505482
-0.428771
-0.564759
-0.367723
-0.433966
0.176998
0.183328
0.17968
0.193182
0.186666
0.189179
0.201445
0.198685
0.200206
0.239179
0.348729
0.0867567
0.0996401
-0.605537
-0.489772
-0.56461
-0.094307
-0.0598265
0.0605016
0.0657603
0.0471163
0.0444025
-0.0292407
0.00834478
-0.0195365
0.0254882
0.0238574
0.118643
0.108425
0.134809
0.140666
0.178814
0.179373
0.181775
0.180682
0.698358
0.721394
0.729547
0.706145
-3.93973
-6.65503
-0.262295
-0.0979034
0.00237995
0.00261126
0.00120823
0.00316915
0.00299552
0.00128306
0.0261851
0.022592
0.0227871
0.0242238
0.332655
0.336135
0.75433
0.754622
0.737632
0.688659
0.18577
0.187534
0.192595
0.189096
0.0228967
0.0202455
0.022002
0.415756
0.432796
0.428343
-0.0755958
-0.164355
0.010779
0.0399692
0.322546
0.300929
0.321265
0.434374
0.4756
0.745468
0.770135
0.757136
0.773252
0.821322
0.841338
0.806743
0.145337
0.152743
0.148581
0.184595
0.181596
0.182832
0.178815
0.178387
0.175811
-0.353166
-0.726694
0.15924
0.164239
0.144743
0.148514
0.290634
0.386238
0.359599
0.371831
0.370427
-0.321224
-0.372225
0.0848844
0.0868196
0.0662973
0.0963708
0.0811093
0.673723
0.637184
0.684327
0.659919
0.623481
0.645484
-0.66034
-2.44437
-1.39456
0.310203
0.104466
0.200952
0.0407598
0.0264044
0.0319542
0.73433
0.780271
0.444693
0.603804
0.564513
0.507587
0.537588
0.590625
0.522174
0.55637
0.590262
0.570147
0.168222
0.157358
0.150724
0.472112
0.536002
-0.19853
-0.262291
-0.299289
0.0684147
0.0758393
0.0831652
0.746276
0.60676
0.694307
0.196639
0.196902
0.0123734
0.0231118
0.200399
0.20061
0.00556346
0.00520612
0.206023
-1.24852
-0.17761
0.189917
0.180573
0.19611
-0.374806
0.150437
0.0154158
0.078039
0.0461929
0.188739
0.136291
0.101082
0.00668647
0.0149876
0.0120106
-0.554374
0.194313
0.192471
0.195665
0.196686
0.197358
0.00804908
0.0103774
0.00735594
0.0108267
0.0108337
0.00784736
0.163918
0.178035
-0.489347
0.19578
0.197956
0.197662
0.191655
0.196565
0.194732
0.0123573
0.00771315
0.00773274
-0.0919965
0.0339107
0.422702
0.525947
0.351823
0.170453
-0.119797
0.343018
0.404611
0.314314
0.467356
0.36534
0.3791
-0.117665
-0.264797
-0.124206
-0.182176
0.187694
0.186283
0.177821
0.175686
0.191305
0.189192
0.193842
0.191292
0.194
0.195144
-0.318057
-0.220484
-0.429241
-0.474865
0.0842798
0.331804
0.0428653
0.0363275
0.101983
0.0191149
0.0254953
0.0117784
0.0116024
0.0339877
0.0453979
0.0681508
0.050279
0.0475437
0.0274096
0.0287932
0.0385498
0.0373944
0.183627
0.180041
0.187532
0.194647
0.143338
0.146337
0.1192
0.133624
0.123563
0.0714903
0.0978798
0.0782242
0.00681985
0.00758877
0.00523227
0.0179497
0.0223125
0.0121746
0.00953307
0.0135684
0.0109648
0.00943991
0.0144565
0.018192
-0.509812
-0.58269
0.658158
0.626352
-0.151042
0.183435
0.188697
0.185295
0.190854
0.193629
0.194252
0.192316
0.188999
0.178937
0.181437
0.176399
0.177168
-0.431138
-0.551199
-0.375452
-0.441391
-0.169744
0.304487
0.0427816
-0.0085224
-0.0208335
0.191258
0.382327
0.336482
0.458547
0.452612
-0.703805
-0.286748
-0.629631
-0.0856486
-0.121382
0.440428
0.488696
0.511071
0.462729
0.412591
-0.355209
0.192873
-0.354382
-0.316517
-0.13766
-0.235199
0.407015
0.346924
0.35441
0.369325
0.394184
0.361037
0.338755
0.339358
0.363464
0.372383
0.179733
-0.0579452
-0.0893851
-0.134803
0.333117
0.215418
0.269076
0.179586
0.182554
0.184943
0.183766
0.168309
0.173675
0.169894
0.175022
0.177782
0.1866
0.187002
0.182713
0.184683
-0.134804
-0.0841145
-0.41013
-0.524743
-0.516334
-0.5474
-0.496748
-0.636318
-0.536896
-0.26045
-0.0101619
-0.650218
-0.51664
-0.580639
-0.476245
-0.463919
-0.428303
0.0475106
0.119733
0.0329742
0.0883123
0.0941009
0.103168
0.0188889
0.0136011
-0.00785271
0.0127032
0.067103
0.064529
0.0758205
0.0344908
0.0289599
0.0215733
0.0208902
-0.0245545
-0.0262931
-0.0147654
-0.0290846
0.0193493
0.0203294
0.0241606
0.0346996
0.0320473
0.0372108
0.175886
0.176987
0.176771
0.190552
0.199761
0.213868
0.187561
0.162577
0.154755
0.155143
0.132565
0.139314
0.137315
0.14887
0.167349
0.174765
0.172086
0.174236
0.161275
0.162568
0.148557
0.152699
0.132972
0.117587
0.10887
0.0157296
0.0095879
0.0119688
0.0126274
0.00909056
0.0103207
0.0341714
0.0290201
0.0332439
0.0264698
0.0264742
0.0163869
0.0156893
-0.437464
-0.358298
-0.51638
-0.528411
-0.604116
0.565572
0.699491
0.516439
0.301027
0.32683
0.52788
0.665078
0.290909
0.420228
0.513413
0.174062
0.486311
0.187893
0.187913
0.185985
0.184843
0.18544
-0.342753
-0.246839
-0.226844
-0.176615
-0.0497332
0.0613052
-0.0541631
-0.135986
-0.00303579
0.0291393
0.302634
0.317432
0.257945
0.284468
0.287017
0.110635
0.187726
0.232888
0.183936
0.24154
0.272634
0.229342
0.265148
0.19565
0.153815
0.148014
0.0956667
0.130494
0.110349
0.0844373
0.177921
0.159125
0.16784
0.160728
0.178687
0.209346
0.205374
0.222275
0.240729
0.167258
0.123647
0.138316
0.162982
0.123649
0.136737
0.153443
-0.15583
-0.257074
-0.0991306
-0.429424
-0.315077
-0.292959
-0.331833
-0.379713
-0.0701902
-0.738002
-0.670044
-1.35919
0.135203
0.5275
0.363687
0.372372
0.390618
0.368397
0.374554
0.39969
0.40967
0.321681
0.337207
0.339699
0.299903
0.331038
0.339482
0.344197
0.162254
0.0897894
0.0685824
0.0303632
-0.103776
-0.0665219
0.109468
0.0481637
-0.0171358
-0.0131683
0.145882
0.0304599
0.0987788
0.139331
0.0883296
0.0284861
0.229017
0.293109
0.277449
0.248705
0.170317
0.187044
0.209985
0.247954
0.27171
0.302049
0.175994
0.180122
0.181286
0.17904
0.175732
0.178805
0.178309
0.180794
0.182373
0.184847
0.18379
-0.0020661
-0.0152504
-0.0569536
-0.0212012
-0.306451
-0.363608
-0.438862
-0.412806
-0.0370339
-0.0715996
-0.212073
-0.116905
-0.0661659
-0.0409534
-0.105384
-0.13924
-0.276333
-0.328094
-0.278703
-0.0310673
0.114312
-0.0224823
-0.390716
-0.282986
-0.123242
0.00599927
0.0526487
0.0437225
0.0352892
0.0343643
0.0238057
0.0214058
0.0184073
0.0209476
0.0211159
0.0199923
0.0207547
0.0206189
0.0219663
0.0206312
0.0207355
0.162929
0.156439
0.157297
0.152319
0.15208
0.16333
0.167762
0.169184
0.173359
0.175398
0.167702
0.171938
0.174354
0.0232634
0.0182388
0.0210051
0.0201838
0.0189734
0.0170781
0.0166583
-0.130921
-0.249069
-0.163621
-0.328962
-0.438091
-0.39762
0.147471
0.112524
0.140916
0.347938
0.21228
0.0982439
0.16727
0.290739
0.00888906
0.172697
0.0171337
0.563906
0.429897
0.583506
0.22633
-0.0956877
0.0497414
0.070033
-0.0881954
0.0117523
0.00174284
-0.111301
-0.0729929
-0.0560481
0.0201569
-0.0816708
-0.115882
-0.371392
-0.204698
-0.0502843
-0.0781844
0.0670787
0.121554
-0.101987
-0.176334
-0.22069
0.290006
0.312245
0.325931
0.292757
0.318609
0.247826
0.2383
0.254134
0.267289
0.259512
-1.01656
-0.634529
-1.78021
-1.16152
-0.717359
0.168391
0.152232
0.390581
0.301869
0.374631
0.359844
0.311003
0.278866
0.289345
0.323451
0.0293164
0.13748
0.0990291
0.122456
0.0488942
-0.0303985
0.260766
0.25746
0.285016
0.310059
0.284158
0.311399
0.171607
0.171669
0.174092
0.171536
0.168979
0.170748
-0.076068
-0.0782388
-0.194823
-0.262743
-0.2781
-0.217172
0.0325863
0.0255024
0.0221339
0.0234638
0.0292131
0.0314113
-0.166356
-0.201531
-0.294408
-0.216546
-0.334115
-0.386343
-0.412126
-0.309498
-0.228223
-0.241391
0.116427
0.371408
0.196388
0.367968
0.175797
0.266487
0.138871
0.117696
0.149934
0.0339042
0.12011
-0.309391
-0.553045
-0.581072
0.439483
0.408095
0.21308
-0.0416058
-0.165287
0.11978
0.196593
0.163442
0.196225
0.243351
0.238895
-0.353822
-0.251748
-0.173034
0.133818
-0.0844126
-0.0646407
-0.0669405
0.0819817
0.0380196
)
;

boundaryField
{
    wall-4
    {
        type            zeroGradient;
    }
    velocity-inlet-5
    {
        type            zeroGradient;
    }
    velocity-inlet-6
    {
        type            zeroGradient;
    }
    pressure-outlet-7
    {
        type            fixedValue;
        value           uniform 0;
    }
    wall-8
    {
        type            zeroGradient;
    }
    frontAndBackPlanes
    {
        type            empty;
    }
}

