/*--------------------------------*- C++ -*----------------------------------*\
  =========                 |
  \\      /  F ield         | OpenFOAM: The Open Source CFD Toolbox
   \\    /   O peration     | Website:  https://openfoam.org
    \\  /    A nd           | Version:  6
     \\/     M anipulation  |
\*---------------------------------------------------------------------------*/
FoamFile
{
    version     2.0;
    format      ascii;
    class       volScalarField;
    location    "0";
    object      p;
}
// * * * * * * * * * * * * * * * * * * * * * * * * * * * * * * * * * * * * * //

dimensions      [0 2 -2 0 0 0 0];

internalField   nonuniform List<scalar> 
145945
(
2.48195e-06
2.4816e-06
2.48157e-06
2.48156e-06
2.48168e-06
2.48175e-06
2.48184e-06
2.48189e-06
2.48192e-06
2.48191e-06
2.48188e-06
2.48181e-06
2.48177e-06
2.48167e-06
2.48171e-06
2.48171e-06
2.48209e-06
2.4816e-06
2.48144e-06
2.48143e-06
2.48148e-06
2.4816e-06
2.48168e-06
2.48178e-06
2.48183e-06
2.48187e-06
2.48186e-06
2.48183e-06
2.48175e-06
2.4817e-06
2.4816e-06
2.48159e-06
2.48157e-06
2.48174e-06
2.48157e-06
2.48143e-06
2.48143e-06
2.48152e-06
2.48165e-06
2.48175e-06
2.48185e-06
2.48191e-06
2.48194e-06
2.48193e-06
2.4819e-06
2.48183e-06
2.48176e-06
2.48165e-06
2.4816e-06
2.48157e-06
2.48171e-06
2.48156e-06
2.48148e-06
2.48152e-06
2.48165e-06
2.48179e-06
2.48191e-06
2.48201e-06
2.48207e-06
2.48211e-06
2.4821e-06
2.48207e-06
2.48199e-06
2.48191e-06
2.48179e-06
2.4817e-06
2.48163e-06
2.48171e-06
2.48168e-06
2.4816e-06
2.48165e-06
2.48179e-06
2.48195e-06
2.48207e-06
2.48217e-06
2.48224e-06
2.48227e-06
2.48227e-06
2.48223e-06
2.48215e-06
2.48206e-06
2.48195e-06
2.48184e-06
2.48176e-06
2.48182e-06
2.48175e-06
2.48168e-06
2.48175e-06
2.48191e-06
2.48207e-06
2.4822e-06
2.4823e-06
2.48237e-06
2.48241e-06
2.4824e-06
2.48236e-06
2.48228e-06
2.48219e-06
2.48207e-06
2.48195e-06
2.48185e-06
2.4819e-06
2.48184e-06
2.48178e-06
2.48185e-06
2.48201e-06
2.48217e-06
2.4823e-06
2.4824e-06
2.48247e-06
2.48251e-06
2.4825e-06
2.48246e-06
2.48239e-06
2.48229e-06
2.48217e-06
2.48205e-06
2.48194e-06
2.48199e-06
2.48189e-06
2.48183e-06
2.48191e-06
2.48207e-06
2.48224e-06
2.48237e-06
2.48247e-06
2.48254e-06
2.48258e-06
2.48257e-06
2.48253e-06
2.48246e-06
2.48236e-06
2.48224e-06
2.48211e-06
2.482e-06
2.48204e-06
2.48192e-06
2.48187e-06
2.48194e-06
2.48211e-06
2.48227e-06
2.48241e-06
2.48251e-06
2.48258e-06
2.48261e-06
2.48261e-06
2.48257e-06
2.48249e-06
2.48239e-06
2.48227e-06
2.48215e-06
2.48203e-06
2.48208e-06
2.48191e-06
2.48186e-06
2.48194e-06
2.4821e-06
2.48227e-06
2.4824e-06
2.4825e-06
2.48257e-06
2.48261e-06
2.4826e-06
2.48256e-06
2.48249e-06
2.48239e-06
2.48226e-06
2.48214e-06
2.48202e-06
2.48206e-06
2.48188e-06
2.48183e-06
2.4819e-06
2.48207e-06
2.48223e-06
2.48236e-06
2.48246e-06
2.48253e-06
2.48257e-06
2.48256e-06
2.48252e-06
2.48244e-06
2.48235e-06
2.48223e-06
2.4821e-06
2.48199e-06
2.48204e-06
2.48181e-06
2.48175e-06
2.48183e-06
2.48199e-06
2.48215e-06
2.48228e-06
2.48239e-06
2.48246e-06
2.48249e-06
2.48249e-06
2.48244e-06
2.48237e-06
2.48227e-06
2.48215e-06
2.48202e-06
2.48192e-06
2.48196e-06
2.48177e-06
2.4817e-06
2.48176e-06
2.48191e-06
2.48206e-06
2.48219e-06
2.48229e-06
2.48236e-06
2.48239e-06
2.48239e-06
2.48235e-06
2.48227e-06
2.48218e-06
2.48206e-06
2.48195e-06
2.48186e-06
2.48192e-06
2.48167e-06
2.4816e-06
2.48165e-06
2.48179e-06
2.48195e-06
2.48207e-06
2.48217e-06
2.48224e-06
2.48227e-06
2.48226e-06
2.48223e-06
2.48215e-06
2.48206e-06
2.48194e-06
2.48184e-06
2.48176e-06
2.48182e-06
2.48171e-06
2.48159e-06
2.4816e-06
2.4817e-06
2.48184e-06
2.48195e-06
2.48205e-06
2.48211e-06
2.48215e-06
2.48214e-06
2.4821e-06
2.48202e-06
2.48195e-06
2.48184e-06
2.48178e-06
2.48173e-06
2.48186e-06
2.48171e-06
2.48157e-06
2.48157e-06
2.48163e-06
2.48176e-06
2.48185e-06
2.48194e-06
2.482e-06
2.48204e-06
2.48202e-06
2.48199e-06
2.48192e-06
2.48186e-06
2.48176e-06
2.48173e-06
2.4817e-06
2.48185e-06
2.48209e-06
2.48174e-06
2.48171e-06
2.48171e-06
2.48183e-06
2.4819e-06
2.48199e-06
2.48204e-06
2.48208e-06
2.48206e-06
2.48204e-06
2.48196e-06
2.48192e-06
2.48182e-06
2.48186e-06
2.48185e-06
2.48222e-06
2.40891e-06
2.40883e-06
2.40903e-06
2.40924e-06
2.4095e-06
2.40973e-06
2.40992e-06
2.41004e-06
2.4101e-06
2.41007e-06
2.40998e-06
2.40981e-06
2.40961e-06
2.40936e-06
2.40917e-06
2.40894e-06
2.409e-06
2.40883e-06
2.40892e-06
2.40916e-06
2.40943e-06
2.40972e-06
2.40997e-06
2.41018e-06
2.41031e-06
2.41037e-06
2.41035e-06
2.41024e-06
2.41007e-06
2.40984e-06
2.40957e-06
2.40932e-06
2.40904e-06
2.40893e-06
2.40903e-06
2.40916e-06
2.40941e-06
2.40972e-06
2.41005e-06
2.41032e-06
2.41054e-06
2.41068e-06
2.41075e-06
2.41072e-06
2.41061e-06
2.41042e-06
2.41018e-06
2.40988e-06
2.40958e-06
2.40929e-06
2.40913e-06
2.40924e-06
2.40943e-06
2.40972e-06
2.41008e-06
2.41043e-06
2.41072e-06
2.41095e-06
2.4111e-06
2.41117e-06
2.41114e-06
2.41102e-06
2.41082e-06
2.41056e-06
2.41024e-06
2.4099e-06
2.40958e-06
2.40934e-06
2.4095e-06
2.40972e-06
2.41005e-06
2.41043e-06
2.41079e-06
2.4111e-06
2.41133e-06
2.41149e-06
2.41156e-06
2.41153e-06
2.41141e-06
2.4112e-06
2.41093e-06
2.4106e-06
2.41024e-06
2.40988e-06
2.40961e-06
2.40973e-06
2.40997e-06
2.41032e-06
2.41072e-06
2.4111e-06
2.41141e-06
2.41166e-06
2.41181e-06
2.41188e-06
2.41185e-06
2.41173e-06
2.41152e-06
2.41124e-06
2.4109e-06
2.41052e-06
2.41013e-06
2.40984e-06
2.40992e-06
2.41018e-06
2.41054e-06
2.41095e-06
2.41133e-06
2.41166e-06
2.4119e-06
2.41206e-06
2.41213e-06
2.4121e-06
2.41198e-06
2.41177e-06
2.41148e-06
2.41113e-06
2.41074e-06
2.41034e-06
2.41004e-06
2.41004e-06
2.41031e-06
2.41068e-06
2.4111e-06
2.41149e-06
2.41181e-06
2.41206e-06
2.41222e-06
2.41229e-06
2.41226e-06
2.41214e-06
2.41193e-06
2.41164e-06
2.41128e-06
2.41088e-06
2.41048e-06
2.41016e-06
2.4101e-06
2.41037e-06
2.41075e-06
2.41117e-06
2.41156e-06
2.41188e-06
2.41213e-06
2.41229e-06
2.41236e-06
2.41233e-06
2.41221e-06
2.41199e-06
2.4117e-06
2.41135e-06
2.41095e-06
2.41054e-06
2.41022e-06
2.41007e-06
2.41035e-06
2.41072e-06
2.41114e-06
2.41153e-06
2.41185e-06
2.4121e-06
2.41226e-06
2.41233e-06
2.4123e-06
2.41218e-06
2.41197e-06
2.41168e-06
2.41132e-06
2.41092e-06
2.41051e-06
2.41019e-06
2.40998e-06
2.41024e-06
2.41061e-06
2.41102e-06
2.41141e-06
2.41173e-06
2.41198e-06
2.41214e-06
2.41221e-06
2.41218e-06
2.41205e-06
2.41184e-06
2.41156e-06
2.4112e-06
2.41081e-06
2.41041e-06
2.4101e-06
2.40981e-06
2.41007e-06
2.41042e-06
2.41082e-06
2.4112e-06
2.41152e-06
2.41177e-06
2.41193e-06
2.41199e-06
2.41197e-06
2.41184e-06
2.41163e-06
2.41135e-06
2.411e-06
2.41062e-06
2.41023e-06
2.40993e-06
2.40961e-06
2.40984e-06
2.41018e-06
2.41056e-06
2.41093e-06
2.41124e-06
2.41148e-06
2.41164e-06
2.41171e-06
2.41168e-06
2.41156e-06
2.41135e-06
2.41107e-06
2.41073e-06
2.41037e-06
2.41e-06
2.40973e-06
2.40936e-06
2.40957e-06
2.40988e-06
2.41024e-06
2.4106e-06
2.4109e-06
2.41113e-06
2.41128e-06
2.41135e-06
2.41132e-06
2.4112e-06
2.411e-06
2.41073e-06
2.41041e-06
2.41006e-06
2.40972e-06
2.40947e-06
2.40917e-06
2.40932e-06
2.40958e-06
2.40991e-06
2.41024e-06
2.41052e-06
2.41074e-06
2.41089e-06
2.41095e-06
2.41092e-06
2.41081e-06
2.41062e-06
2.41037e-06
2.41006e-06
2.40975e-06
2.40946e-06
2.40928e-06
2.40894e-06
2.40905e-06
2.40929e-06
2.40958e-06
2.40988e-06
2.41014e-06
2.41034e-06
2.41048e-06
2.41054e-06
2.41051e-06
2.41041e-06
2.41023e-06
2.41e-06
2.40972e-06
2.40946e-06
2.40917e-06
2.40904e-06
2.409e-06
2.40893e-06
2.40913e-06
2.40935e-06
2.40962e-06
2.40984e-06
2.41004e-06
2.41016e-06
2.41022e-06
2.41019e-06
2.4101e-06
2.40993e-06
2.40973e-06
2.40947e-06
2.40928e-06
2.40904e-06
2.4091e-06
2.35798e-06
2.35901e-06
2.35999e-06
2.36086e-06
2.36164e-06
2.36222e-06
2.36265e-06
2.3629e-06
2.36301e-06
2.36294e-06
2.36272e-06
2.36233e-06
2.36179e-06
2.36103e-06
2.36015e-06
2.35907e-06
2.35798e-06
2.35901e-06
2.35995e-06
2.36089e-06
2.36176e-06
2.36253e-06
2.36312e-06
2.36354e-06
2.3638e-06
2.3639e-06
2.36384e-06
2.36362e-06
2.36323e-06
2.36268e-06
2.36194e-06
2.36105e-06
2.36e-06
2.35902e-06
2.35999e-06
2.3609e-06
2.36178e-06
2.36262e-06
2.36336e-06
2.36394e-06
2.36436e-06
2.36461e-06
2.36471e-06
2.36465e-06
2.36443e-06
2.36405e-06
2.36351e-06
2.36279e-06
2.36192e-06
2.36094e-06
2.36e-06
2.36086e-06
2.36176e-06
2.36262e-06
2.36344e-06
2.36416e-06
2.36473e-06
2.36514e-06
2.36539e-06
2.36549e-06
2.36543e-06
2.36521e-06
2.36484e-06
2.36431e-06
2.3636e-06
2.36275e-06
2.3618e-06
2.36087e-06
2.36164e-06
2.36253e-06
2.36336e-06
2.36416e-06
2.36487e-06
2.36543e-06
2.36584e-06
2.36608e-06
2.36618e-06
2.36612e-06
2.36591e-06
2.36554e-06
2.36501e-06
2.36432e-06
2.36349e-06
2.36257e-06
2.36164e-06
2.36222e-06
2.36312e-06
2.36394e-06
2.36473e-06
2.36543e-06
2.36598e-06
2.36639e-06
2.36663e-06
2.36673e-06
2.36667e-06
2.36646e-06
2.36609e-06
2.36557e-06
2.36489e-06
2.36406e-06
2.36316e-06
2.36223e-06
2.36265e-06
2.36354e-06
2.36436e-06
2.36514e-06
2.36584e-06
2.36639e-06
2.36678e-06
2.36703e-06
2.36712e-06
2.36706e-06
2.36685e-06
2.36649e-06
2.36598e-06
2.3653e-06
2.36448e-06
2.36358e-06
2.36266e-06
2.3629e-06
2.3638e-06
2.36461e-06
2.36539e-06
2.36608e-06
2.36663e-06
2.36703e-06
2.36727e-06
2.36737e-06
2.36731e-06
2.3671e-06
2.36674e-06
2.36622e-06
2.36555e-06
2.36473e-06
2.36384e-06
2.36291e-06
2.36301e-06
2.3639e-06
2.36471e-06
2.36549e-06
2.36618e-06
2.36673e-06
2.36712e-06
2.36737e-06
2.36746e-06
2.3674e-06
2.36719e-06
2.36683e-06
2.36632e-06
2.36565e-06
2.36483e-06
2.36394e-06
2.36301e-06
2.36294e-06
2.36384e-06
2.36465e-06
2.36543e-06
2.36612e-06
2.36667e-06
2.36706e-06
2.36731e-06
2.3674e-06
2.36735e-06
2.36714e-06
2.36677e-06
2.36626e-06
2.36559e-06
2.36477e-06
2.36388e-06
2.36295e-06
2.36272e-06
2.36362e-06
2.36443e-06
2.36521e-06
2.36591e-06
2.36646e-06
2.36685e-06
2.3671e-06
2.36719e-06
2.36714e-06
2.36693e-06
2.36656e-06
2.36605e-06
2.36537e-06
2.36455e-06
2.36365e-06
2.36273e-06
2.36233e-06
2.36323e-06
2.36405e-06
2.36484e-06
2.36554e-06
2.36609e-06
2.36649e-06
2.36674e-06
2.36683e-06
2.36677e-06
2.36656e-06
2.3662e-06
2.36568e-06
2.365e-06
2.36417e-06
2.36327e-06
2.36234e-06
2.36179e-06
2.36268e-06
2.36351e-06
2.36431e-06
2.36501e-06
2.36557e-06
2.36598e-06
2.36623e-06
2.36632e-06
2.36626e-06
2.36605e-06
2.36568e-06
2.36516e-06
2.36447e-06
2.36363e-06
2.36272e-06
2.3618e-06
2.36103e-06
2.36194e-06
2.36279e-06
2.36361e-06
2.36433e-06
2.36489e-06
2.3653e-06
2.36555e-06
2.36565e-06
2.36559e-06
2.36537e-06
2.365e-06
2.36447e-06
2.36377e-06
2.36292e-06
2.36198e-06
2.36104e-06
2.36015e-06
2.36105e-06
2.36192e-06
2.36275e-06
2.36349e-06
2.36406e-06
2.36448e-06
2.36473e-06
2.36483e-06
2.36477e-06
2.36455e-06
2.36417e-06
2.36363e-06
2.36292e-06
2.36205e-06
2.36109e-06
2.36016e-06
2.35907e-06
2.36e-06
2.36094e-06
2.3618e-06
2.36257e-06
2.36316e-06
2.36358e-06
2.36384e-06
2.36394e-06
2.36388e-06
2.36366e-06
2.36327e-06
2.36272e-06
2.36198e-06
2.36109e-06
2.36005e-06
2.35908e-06
2.35798e-06
2.35902e-06
2.36e-06
2.36087e-06
2.36165e-06
2.36223e-06
2.36266e-06
2.36291e-06
2.36301e-06
2.36295e-06
2.36273e-06
2.36234e-06
2.3618e-06
2.36104e-06
2.36016e-06
2.35908e-06
2.35799e-06
2.30613e-06
2.30796e-06
2.30964e-06
2.31122e-06
2.31257e-06
2.31357e-06
2.31428e-06
2.31472e-06
2.31488e-06
2.31478e-06
2.3144e-06
2.31374e-06
2.31282e-06
2.31154e-06
2.30996e-06
2.30813e-06
2.30616e-06
2.30797e-06
2.30951e-06
2.31114e-06
2.31269e-06
2.314e-06
2.31498e-06
2.31568e-06
2.3161e-06
2.31626e-06
2.31616e-06
2.31579e-06
2.31515e-06
2.31424e-06
2.313e-06
2.31146e-06
2.30967e-06
2.30801e-06
2.30964e-06
2.31114e-06
2.3127e-06
2.31419e-06
2.31544e-06
2.31638e-06
2.31705e-06
2.31746e-06
2.31762e-06
2.31752e-06
2.31717e-06
2.31655e-06
2.31568e-06
2.31449e-06
2.31301e-06
2.31129e-06
2.30968e-06
2.31123e-06
2.31269e-06
2.31419e-06
2.31562e-06
2.31683e-06
2.31774e-06
2.31839e-06
2.31878e-06
2.31893e-06
2.31883e-06
2.31849e-06
2.3179e-06
2.31706e-06
2.31592e-06
2.31448e-06
2.31283e-06
2.31127e-06
2.31257e-06
2.314e-06
2.31544e-06
2.31683e-06
2.31799e-06
2.31888e-06
2.31951e-06
2.31989e-06
2.32004e-06
2.31994e-06
2.31961e-06
2.31904e-06
2.31822e-06
2.31712e-06
2.31573e-06
2.31414e-06
2.31261e-06
2.31357e-06
2.31498e-06
2.31638e-06
2.31774e-06
2.31888e-06
2.31974e-06
2.32036e-06
2.32073e-06
2.32088e-06
2.32079e-06
2.32046e-06
2.3199e-06
2.3191e-06
2.31803e-06
2.31667e-06
2.31512e-06
2.31362e-06
2.31428e-06
2.31568e-06
2.31705e-06
2.31838e-06
2.31951e-06
2.32036e-06
2.32096e-06
2.32133e-06
2.32147e-06
2.32138e-06
2.32106e-06
2.32051e-06
2.31972e-06
2.31867e-06
2.31733e-06
2.31582e-06
2.31433e-06
2.31472e-06
2.3161e-06
2.31746e-06
2.31878e-06
2.31989e-06
2.32073e-06
2.32133e-06
2.32169e-06
2.32183e-06
2.32175e-06
2.32143e-06
2.32089e-06
2.3201e-06
2.31906e-06
2.31774e-06
2.31624e-06
2.31476e-06
2.31488e-06
2.31626e-06
2.31762e-06
2.31893e-06
2.32004e-06
2.32088e-06
2.32147e-06
2.32183e-06
2.32197e-06
2.32189e-06
2.32157e-06
2.32103e-06
2.32025e-06
2.31921e-06
2.31789e-06
2.3164e-06
2.31493e-06
2.31478e-06
2.31616e-06
2.31752e-06
2.31883e-06
2.31994e-06
2.32079e-06
2.32138e-06
2.32175e-06
2.32189e-06
2.3218e-06
2.32148e-06
2.32094e-06
2.32016e-06
2.31912e-06
2.3178e-06
2.3163e-06
2.31482e-06
2.3144e-06
2.31579e-06
2.31717e-06
2.31849e-06
2.31961e-06
2.32046e-06
2.32106e-06
2.32143e-06
2.32157e-06
2.32149e-06
2.32117e-06
2.32062e-06
2.31983e-06
2.31878e-06
2.31744e-06
2.31593e-06
2.31445e-06
2.31375e-06
2.31515e-06
2.31655e-06
2.3179e-06
2.31904e-06
2.3199e-06
2.32051e-06
2.32089e-06
2.32103e-06
2.32094e-06
2.32062e-06
2.32006e-06
2.31926e-06
2.31819e-06
2.31683e-06
2.31529e-06
2.31379e-06
2.31282e-06
2.31424e-06
2.31568e-06
2.31706e-06
2.31822e-06
2.3191e-06
2.31972e-06
2.3201e-06
2.32025e-06
2.32016e-06
2.31983e-06
2.31926e-06
2.31844e-06
2.31735e-06
2.31596e-06
2.31438e-06
2.31286e-06
2.31154e-06
2.313e-06
2.31449e-06
2.31592e-06
2.31712e-06
2.31803e-06
2.31867e-06
2.31906e-06
2.31921e-06
2.31912e-06
2.31878e-06
2.31819e-06
2.31735e-06
2.31622e-06
2.31479e-06
2.31315e-06
2.31159e-06
2.30996e-06
2.31146e-06
2.31301e-06
2.31449e-06
2.31573e-06
2.31667e-06
2.31733e-06
2.31774e-06
2.3179e-06
2.3178e-06
2.31745e-06
2.31684e-06
2.31596e-06
2.31479e-06
2.31331e-06
2.31161e-06
2.31e-06
2.30813e-06
2.30967e-06
2.31129e-06
2.31283e-06
2.31414e-06
2.31512e-06
2.31582e-06
2.31624e-06
2.3164e-06
2.3163e-06
2.31593e-06
2.31529e-06
2.31439e-06
2.31315e-06
2.3116e-06
2.30983e-06
2.30818e-06
2.30616e-06
2.30801e-06
2.30968e-06
2.31127e-06
2.31262e-06
2.31362e-06
2.31433e-06
2.31476e-06
2.31493e-06
2.31482e-06
2.31445e-06
2.31379e-06
2.31286e-06
2.31159e-06
2.31e-06
2.30817e-06
2.30619e-06
2.25519e-06
2.25732e-06
2.25921e-06
2.26107e-06
2.26262e-06
2.2638e-06
2.26464e-06
2.26515e-06
2.26534e-06
2.26522e-06
2.26477e-06
2.264e-06
2.2629e-06
2.26143e-06
2.25955e-06
2.2575e-06
2.25521e-06
2.25732e-06
2.25909e-06
2.26096e-06
2.26277e-06
2.26431e-06
2.26547e-06
2.2663e-06
2.26681e-06
2.267e-06
2.26688e-06
2.26644e-06
2.26567e-06
2.26459e-06
2.26313e-06
2.2613e-06
2.25926e-06
2.25735e-06
2.25921e-06
2.26096e-06
2.26279e-06
2.26455e-06
2.26603e-06
2.26716e-06
2.26796e-06
2.26845e-06
2.26864e-06
2.26852e-06
2.26809e-06
2.26735e-06
2.2663e-06
2.26489e-06
2.26313e-06
2.26111e-06
2.25924e-06
2.26107e-06
2.26277e-06
2.26454e-06
2.26624e-06
2.26768e-06
2.26878e-06
2.26956e-06
2.27004e-06
2.27022e-06
2.27011e-06
2.26969e-06
2.26897e-06
2.26795e-06
2.26659e-06
2.26488e-06
2.26292e-06
2.2611e-06
2.26262e-06
2.26431e-06
2.26603e-06
2.26768e-06
2.26908e-06
2.27016e-06
2.27092e-06
2.27138e-06
2.27156e-06
2.27145e-06
2.27104e-06
2.27034e-06
2.26934e-06
2.26802e-06
2.26635e-06
2.26446e-06
2.26265e-06
2.2638e-06
2.26547e-06
2.26716e-06
2.26878e-06
2.27015e-06
2.27121e-06
2.27195e-06
2.27241e-06
2.27259e-06
2.27247e-06
2.27208e-06
2.27139e-06
2.27041e-06
2.26911e-06
2.26748e-06
2.26562e-06
2.26383e-06
2.26464e-06
2.2663e-06
2.26796e-06
2.26956e-06
2.27092e-06
2.27195e-06
2.27269e-06
2.27314e-06
2.27331e-06
2.2732e-06
2.27281e-06
2.27214e-06
2.27117e-06
2.26989e-06
2.26828e-06
2.26645e-06
2.26467e-06
2.26515e-06
2.26681e-06
2.26845e-06
2.27004e-06
2.27138e-06
2.27241e-06
2.27314e-06
2.27359e-06
2.27376e-06
2.27365e-06
2.27326e-06
2.27259e-06
2.27164e-06
2.27037e-06
2.26877e-06
2.26696e-06
2.26518e-06
2.26534e-06
2.267e-06
2.26864e-06
2.27022e-06
2.27156e-06
2.27259e-06
2.27331e-06
2.27376e-06
2.27393e-06
2.27382e-06
2.27344e-06
2.27277e-06
2.27181e-06
2.27055e-06
2.26896e-06
2.26715e-06
2.26538e-06
2.26522e-06
2.26688e-06
2.26852e-06
2.27011e-06
2.27145e-06
2.27247e-06
2.2732e-06
2.27365e-06
2.27382e-06
2.27371e-06
2.27333e-06
2.27266e-06
2.2717e-06
2.27043e-06
2.26884e-06
2.26703e-06
2.26525e-06
2.26477e-06
2.26644e-06
2.26809e-06
2.26969e-06
2.27104e-06
2.27208e-06
2.27281e-06
2.27326e-06
2.27344e-06
2.27333e-06
2.27294e-06
2.27226e-06
2.2713e-06
2.27002e-06
2.26841e-06
2.26659e-06
2.26481e-06
2.264e-06
2.26567e-06
2.26735e-06
2.26897e-06
2.27034e-06
2.27139e-06
2.27214e-06
2.27259e-06
2.27277e-06
2.27266e-06
2.27226e-06
2.27158e-06
2.2706e-06
2.2693e-06
2.26767e-06
2.26582e-06
2.26403e-06
2.2629e-06
2.26459e-06
2.2663e-06
2.26795e-06
2.26935e-06
2.27041e-06
2.27117e-06
2.27164e-06
2.27181e-06
2.2717e-06
2.2713e-06
2.2706e-06
2.26961e-06
2.26828e-06
2.26662e-06
2.26474e-06
2.26293e-06
2.26143e-06
2.26313e-06
2.26489e-06
2.26659e-06
2.26802e-06
2.26911e-06
2.26989e-06
2.27037e-06
2.27055e-06
2.27043e-06
2.27002e-06
2.2693e-06
2.26828e-06
2.26693e-06
2.26522e-06
2.26328e-06
2.26146e-06
2.25955e-06
2.2613e-06
2.26313e-06
2.26488e-06
2.26635e-06
2.26748e-06
2.26828e-06
2.26877e-06
2.26896e-06
2.26884e-06
2.26841e-06
2.26767e-06
2.26663e-06
2.26522e-06
2.26347e-06
2.26146e-06
2.25958e-06
2.2575e-06
2.25926e-06
2.26111e-06
2.26292e-06
2.26446e-06
2.26562e-06
2.26646e-06
2.26696e-06
2.26716e-06
2.26703e-06
2.26659e-06
2.26582e-06
2.26474e-06
2.26328e-06
2.26146e-06
2.25942e-06
2.25753e-06
2.25521e-06
2.25735e-06
2.25924e-06
2.2611e-06
2.26266e-06
2.26383e-06
2.26467e-06
2.26518e-06
2.26538e-06
2.26525e-06
2.26481e-06
2.26403e-06
2.26294e-06
2.26146e-06
2.25958e-06
2.25753e-06
2.25524e-06
2.20805e-06
2.21027e-06
2.21222e-06
2.21418e-06
2.21579e-06
2.21703e-06
2.21791e-06
2.21845e-06
2.21866e-06
2.21852e-06
2.21805e-06
2.21723e-06
2.21607e-06
2.21454e-06
2.21255e-06
2.21044e-06
2.20806e-06
2.21027e-06
2.21212e-06
2.21406e-06
2.21597e-06
2.21759e-06
2.21883e-06
2.21971e-06
2.22025e-06
2.22045e-06
2.22032e-06
2.21985e-06
2.21903e-06
2.21787e-06
2.21633e-06
2.2144e-06
2.21227e-06
2.21028e-06
2.21222e-06
2.21406e-06
2.216e-06
2.21785e-06
2.21943e-06
2.22063e-06
2.22149e-06
2.22202e-06
2.22222e-06
2.22208e-06
2.22162e-06
2.22083e-06
2.2197e-06
2.2182e-06
2.21633e-06
2.2142e-06
2.21223e-06
2.21418e-06
2.21597e-06
2.21785e-06
2.21966e-06
2.22119e-06
2.22237e-06
2.22321e-06
2.22372e-06
2.22392e-06
2.22379e-06
2.22334e-06
2.22257e-06
2.22146e-06
2.22e-06
2.21818e-06
2.2161e-06
2.21419e-06
2.21579e-06
2.21759e-06
2.21943e-06
2.22119e-06
2.22269e-06
2.22385e-06
2.22467e-06
2.22518e-06
2.22537e-06
2.22524e-06
2.2248e-06
2.22404e-06
2.22296e-06
2.22153e-06
2.21974e-06
2.21772e-06
2.2158e-06
2.21703e-06
2.21883e-06
2.22063e-06
2.22237e-06
2.22385e-06
2.22499e-06
2.2258e-06
2.22629e-06
2.22648e-06
2.22636e-06
2.22592e-06
2.22518e-06
2.22411e-06
2.2227e-06
2.22094e-06
2.21895e-06
2.21704e-06
2.21791e-06
2.21971e-06
2.22149e-06
2.22321e-06
2.22467e-06
2.2258e-06
2.2266e-06
2.22709e-06
2.22728e-06
2.22715e-06
2.22672e-06
2.22599e-06
2.22493e-06
2.22354e-06
2.2218e-06
2.21984e-06
2.21792e-06
2.21845e-06
2.22025e-06
2.22202e-06
2.22372e-06
2.22518e-06
2.22629e-06
2.22709e-06
2.22758e-06
2.22776e-06
2.22764e-06
2.22721e-06
2.22648e-06
2.22543e-06
2.22405e-06
2.22232e-06
2.22037e-06
2.21846e-06
2.21865e-06
2.22045e-06
2.22222e-06
2.22392e-06
2.22537e-06
2.22648e-06
2.22728e-06
2.22776e-06
2.22795e-06
2.22783e-06
2.2274e-06
2.22667e-06
2.22563e-06
2.22425e-06
2.22252e-06
2.22058e-06
2.21867e-06
2.21852e-06
2.22032e-06
2.22208e-06
2.22379e-06
2.22524e-06
2.22636e-06
2.22715e-06
2.22764e-06
2.22783e-06
2.22771e-06
2.22728e-06
2.22655e-06
2.2255e-06
2.22412e-06
2.22239e-06
2.22044e-06
2.21853e-06
2.21805e-06
2.21985e-06
2.22162e-06
2.22334e-06
2.2248e-06
2.22593e-06
2.22672e-06
2.22721e-06
2.2274e-06
2.22728e-06
2.22685e-06
2.22611e-06
2.22506e-06
2.22367e-06
2.22193e-06
2.21997e-06
2.21806e-06
2.21723e-06
2.21903e-06
2.22083e-06
2.22257e-06
2.22404e-06
2.22518e-06
2.22599e-06
2.22648e-06
2.22667e-06
2.22655e-06
2.22611e-06
2.22537e-06
2.22431e-06
2.2229e-06
2.22114e-06
2.21916e-06
2.21724e-06
2.21607e-06
2.21787e-06
2.2197e-06
2.22146e-06
2.22296e-06
2.22411e-06
2.22493e-06
2.22544e-06
2.22563e-06
2.2255e-06
2.22506e-06
2.22431e-06
2.22323e-06
2.2218e-06
2.22002e-06
2.218e-06
2.21608e-06
2.21454e-06
2.21633e-06
2.2182e-06
2.22e-06
2.22153e-06
2.2227e-06
2.22354e-06
2.22405e-06
2.22425e-06
2.22412e-06
2.22367e-06
2.2229e-06
2.2218e-06
2.22034e-06
2.21853e-06
2.21646e-06
2.21455e-06
2.21255e-06
2.2144e-06
2.21633e-06
2.21818e-06
2.21974e-06
2.22095e-06
2.2218e-06
2.22232e-06
2.22252e-06
2.22239e-06
2.22193e-06
2.22114e-06
2.22002e-06
2.21853e-06
2.21666e-06
2.21453e-06
2.21256e-06
2.21044e-06
2.21227e-06
2.2142e-06
2.21611e-06
2.21772e-06
2.21895e-06
2.21984e-06
2.22038e-06
2.22058e-06
2.22045e-06
2.21997e-06
2.21916e-06
2.218e-06
2.21646e-06
2.21453e-06
2.21242e-06
2.21045e-06
2.20806e-06
2.21028e-06
2.21223e-06
2.21419e-06
2.2158e-06
2.21704e-06
2.21792e-06
2.21846e-06
2.21867e-06
2.21853e-06
2.21806e-06
2.21724e-06
2.21608e-06
2.21455e-06
2.21256e-06
2.21045e-06
2.20807e-06
2.16425e-06
2.16641e-06
2.16831e-06
2.17026e-06
2.17186e-06
2.1731e-06
2.17398e-06
2.17452e-06
2.17472e-06
2.17459e-06
2.17411e-06
2.1733e-06
2.17214e-06
2.17062e-06
2.16863e-06
2.16657e-06
2.16426e-06
2.16641e-06
2.16823e-06
2.17013e-06
2.17204e-06
2.17365e-06
2.1749e-06
2.17578e-06
2.17633e-06
2.17653e-06
2.1764e-06
2.17592e-06
2.1751e-06
2.17393e-06
2.1724e-06
2.17046e-06
2.16838e-06
2.16642e-06
2.16831e-06
2.17013e-06
2.17206e-06
2.17392e-06
2.1755e-06
2.17672e-06
2.17759e-06
2.17812e-06
2.17832e-06
2.17819e-06
2.17772e-06
2.17692e-06
2.17578e-06
2.17427e-06
2.17239e-06
2.17027e-06
2.16832e-06
2.17026e-06
2.17204e-06
2.17392e-06
2.17574e-06
2.17729e-06
2.17849e-06
2.17934e-06
2.17986e-06
2.18006e-06
2.17993e-06
2.17947e-06
2.17868e-06
2.17756e-06
2.17608e-06
2.17424e-06
2.17217e-06
2.17027e-06
2.17186e-06
2.17365e-06
2.1755e-06
2.17729e-06
2.17882e-06
2.18e-06
2.18084e-06
2.18135e-06
2.18155e-06
2.18142e-06
2.18097e-06
2.18019e-06
2.17909e-06
2.17763e-06
2.17582e-06
2.17378e-06
2.17187e-06
2.1731e-06
2.1749e-06
2.17672e-06
2.17849e-06
2.18e-06
2.18116e-06
2.18199e-06
2.1825e-06
2.18269e-06
2.18257e-06
2.18212e-06
2.18135e-06
2.18026e-06
2.17882e-06
2.17703e-06
2.17502e-06
2.1731e-06
2.17398e-06
2.17578e-06
2.17759e-06
2.17934e-06
2.18084e-06
2.18199e-06
2.18281e-06
2.18332e-06
2.18351e-06
2.18338e-06
2.18294e-06
2.18218e-06
2.1811e-06
2.17967e-06
2.1779e-06
2.17591e-06
2.17399e-06
2.17452e-06
2.17633e-06
2.17812e-06
2.17986e-06
2.18135e-06
2.1825e-06
2.18332e-06
2.18382e-06
2.18401e-06
2.18389e-06
2.18344e-06
2.18269e-06
2.18161e-06
2.1802e-06
2.17843e-06
2.17645e-06
2.17453e-06
2.17472e-06
2.17653e-06
2.17832e-06
2.18006e-06
2.18155e-06
2.18269e-06
2.18351e-06
2.18401e-06
2.1842e-06
2.18408e-06
2.18364e-06
2.18288e-06
2.18181e-06
2.18039e-06
2.17863e-06
2.17666e-06
2.17473e-06
2.17459e-06
2.1764e-06
2.17819e-06
2.17993e-06
2.18142e-06
2.18257e-06
2.18338e-06
2.18389e-06
2.18408e-06
2.18395e-06
2.18351e-06
2.18276e-06
2.18168e-06
2.18026e-06
2.1785e-06
2.17652e-06
2.1746e-06
2.17412e-06
2.17592e-06
2.17772e-06
2.17947e-06
2.18097e-06
2.18212e-06
2.18294e-06
2.18344e-06
2.18364e-06
2.18351e-06
2.18307e-06
2.18231e-06
2.18123e-06
2.1798e-06
2.17803e-06
2.17605e-06
2.17412e-06
2.1733e-06
2.1751e-06
2.17692e-06
2.17868e-06
2.18019e-06
2.18135e-06
2.18218e-06
2.18269e-06
2.18288e-06
2.18276e-06
2.18231e-06
2.18155e-06
2.18046e-06
2.17902e-06
2.17723e-06
2.17522e-06
2.17331e-06
2.17214e-06
2.17393e-06
2.17578e-06
2.17756e-06
2.17909e-06
2.18026e-06
2.1811e-06
2.18161e-06
2.18181e-06
2.18168e-06
2.18123e-06
2.18046e-06
2.17935e-06
2.1779e-06
2.1761e-06
2.17406e-06
2.17214e-06
2.17062e-06
2.1724e-06
2.17427e-06
2.17608e-06
2.17763e-06
2.17882e-06
2.17967e-06
2.1802e-06
2.18039e-06
2.18026e-06
2.17981e-06
2.17902e-06
2.1779e-06
2.17643e-06
2.17459e-06
2.17253e-06
2.17063e-06
2.16863e-06
2.17046e-06
2.17239e-06
2.17424e-06
2.17582e-06
2.17704e-06
2.1779e-06
2.17843e-06
2.17863e-06
2.1785e-06
2.17803e-06
2.17723e-06
2.1761e-06
2.17459e-06
2.17272e-06
2.1706e-06
2.16864e-06
2.16657e-06
2.16838e-06
2.17027e-06
2.17217e-06
2.17378e-06
2.17502e-06
2.17591e-06
2.17645e-06
2.17666e-06
2.17652e-06
2.17605e-06
2.17522e-06
2.17406e-06
2.17253e-06
2.1706e-06
2.16852e-06
2.16658e-06
2.16426e-06
2.16642e-06
2.16832e-06
2.17027e-06
2.17187e-06
2.17311e-06
2.17399e-06
2.17453e-06
2.17473e-06
2.1746e-06
2.17412e-06
2.17331e-06
2.17214e-06
2.17063e-06
2.16864e-06
2.16658e-06
2.16427e-06
2.12325e-06
2.12524e-06
2.12701e-06
2.12886e-06
2.13035e-06
2.13153e-06
2.13237e-06
2.13288e-06
2.13308e-06
2.13295e-06
2.1325e-06
2.13172e-06
2.13062e-06
2.12919e-06
2.12731e-06
2.12539e-06
2.12325e-06
2.12524e-06
2.12694e-06
2.12872e-06
2.13053e-06
2.13205e-06
2.13324e-06
2.13409e-06
2.13461e-06
2.13481e-06
2.13468e-06
2.13422e-06
2.13343e-06
2.13232e-06
2.13087e-06
2.12903e-06
2.12708e-06
2.12525e-06
2.12701e-06
2.12872e-06
2.13054e-06
2.13231e-06
2.13382e-06
2.13499e-06
2.13582e-06
2.13634e-06
2.13653e-06
2.1364e-06
2.13595e-06
2.13518e-06
2.13408e-06
2.13265e-06
2.13085e-06
2.12885e-06
2.12702e-06
2.12886e-06
2.13053e-06
2.13231e-06
2.13404e-06
2.13553e-06
2.13669e-06
2.13751e-06
2.13802e-06
2.13821e-06
2.13809e-06
2.13764e-06
2.13688e-06
2.1358e-06
2.13437e-06
2.13262e-06
2.13065e-06
2.12886e-06
2.13035e-06
2.13205e-06
2.13382e-06
2.13553e-06
2.13701e-06
2.13815e-06
2.13897e-06
2.13947e-06
2.13966e-06
2.13953e-06
2.13909e-06
2.13834e-06
2.13727e-06
2.13586e-06
2.13412e-06
2.13217e-06
2.13036e-06
2.13153e-06
2.13324e-06
2.13499e-06
2.13669e-06
2.13815e-06
2.13928e-06
2.14009e-06
2.14059e-06
2.14078e-06
2.14065e-06
2.14022e-06
2.13947e-06
2.13841e-06
2.13701e-06
2.13529e-06
2.13336e-06
2.13154e-06
2.13237e-06
2.13409e-06
2.13582e-06
2.13751e-06
2.13897e-06
2.14009e-06
2.1409e-06
2.14139e-06
2.14158e-06
2.14145e-06
2.14102e-06
2.14028e-06
2.13922e-06
2.13784e-06
2.13612e-06
2.13421e-06
2.13237e-06
2.13288e-06
2.13461e-06
2.13634e-06
2.13802e-06
2.13947e-06
2.14059e-06
2.14139e-06
2.14188e-06
2.14207e-06
2.14195e-06
2.14151e-06
2.14077e-06
2.13972e-06
2.13834e-06
2.13663e-06
2.13473e-06
2.13289e-06
2.13308e-06
2.13481e-06
2.13653e-06
2.13821e-06
2.13966e-06
2.14078e-06
2.14158e-06
2.14207e-06
2.14226e-06
2.14213e-06
2.1417e-06
2.14096e-06
2.13991e-06
2.13854e-06
2.13683e-06
2.13493e-06
2.13308e-06
2.13295e-06
2.13468e-06
2.1364e-06
2.13809e-06
2.13953e-06
2.14065e-06
2.14145e-06
2.14195e-06
2.14213e-06
2.14201e-06
2.14158e-06
2.14084e-06
2.13979e-06
2.13841e-06
2.1367e-06
2.1348e-06
2.13295e-06
2.1325e-06
2.13422e-06
2.13595e-06
2.13764e-06
2.13909e-06
2.14022e-06
2.14102e-06
2.14151e-06
2.1417e-06
2.14158e-06
2.14114e-06
2.1404e-06
2.13935e-06
2.13796e-06
2.13625e-06
2.13434e-06
2.1325e-06
2.13172e-06
2.13343e-06
2.13518e-06
2.13688e-06
2.13834e-06
2.13947e-06
2.14028e-06
2.14077e-06
2.14096e-06
2.14084e-06
2.1404e-06
2.13966e-06
2.1386e-06
2.1372e-06
2.13548e-06
2.13355e-06
2.13173e-06
2.13062e-06
2.13232e-06
2.13408e-06
2.1358e-06
2.13727e-06
2.13841e-06
2.13922e-06
2.13972e-06
2.13991e-06
2.13979e-06
2.13935e-06
2.1386e-06
2.13753e-06
2.13612e-06
2.13439e-06
2.13244e-06
2.13062e-06
2.12919e-06
2.13087e-06
2.13265e-06
2.13438e-06
2.13586e-06
2.13701e-06
2.13784e-06
2.13834e-06
2.13854e-06
2.13841e-06
2.13796e-06
2.1372e-06
2.13612e-06
2.1347e-06
2.13295e-06
2.13099e-06
2.1292e-06
2.12731e-06
2.12903e-06
2.13085e-06
2.13262e-06
2.13412e-06
2.13529e-06
2.13612e-06
2.13663e-06
2.13683e-06
2.1367e-06
2.13625e-06
2.13548e-06
2.13439e-06
2.13295e-06
2.13116e-06
2.12916e-06
2.12732e-06
2.1254e-06
2.12708e-06
2.12885e-06
2.13065e-06
2.13217e-06
2.13336e-06
2.13421e-06
2.13473e-06
2.13493e-06
2.1348e-06
2.13434e-06
2.13355e-06
2.13244e-06
2.13099e-06
2.12916e-06
2.12721e-06
2.1254e-06
2.12325e-06
2.12525e-06
2.12702e-06
2.12886e-06
2.13036e-06
2.13154e-06
2.13238e-06
2.13289e-06
2.13309e-06
2.13295e-06
2.1325e-06
2.13173e-06
2.13062e-06
2.1292e-06
2.12732e-06
2.1254e-06
2.12326e-06
2.08472e-06
2.08651e-06
2.08811e-06
2.08979e-06
2.09115e-06
2.09223e-06
2.093e-06
2.09347e-06
2.09365e-06
2.09353e-06
2.09312e-06
2.09241e-06
2.09139e-06
2.0901e-06
2.08838e-06
2.08665e-06
2.08472e-06
2.08651e-06
2.08805e-06
2.08967e-06
2.09132e-06
2.09271e-06
2.0938e-06
2.09459e-06
2.09507e-06
2.09525e-06
2.09513e-06
2.09471e-06
2.09398e-06
2.09295e-06
2.09163e-06
2.08994e-06
2.08817e-06
2.08652e-06
2.08811e-06
2.08967e-06
2.09133e-06
2.09295e-06
2.09434e-06
2.09542e-06
2.09619e-06
2.09667e-06
2.09685e-06
2.09673e-06
2.09631e-06
2.0956e-06
2.09458e-06
2.09326e-06
2.09161e-06
2.08978e-06
2.08811e-06
2.08979e-06
2.09132e-06
2.09295e-06
2.09455e-06
2.09593e-06
2.097e-06
2.09777e-06
2.09824e-06
2.09842e-06
2.0983e-06
2.09788e-06
2.09717e-06
2.09617e-06
2.09485e-06
2.09323e-06
2.09142e-06
2.08979e-06
2.09115e-06
2.09271e-06
2.09434e-06
2.09592e-06
2.0973e-06
2.09836e-06
2.09912e-06
2.09959e-06
2.09977e-06
2.09965e-06
2.09924e-06
2.09854e-06
2.09753e-06
2.09623e-06
2.09462e-06
2.09281e-06
2.09116e-06
2.09223e-06
2.0938e-06
2.09542e-06
2.097e-06
2.09836e-06
2.09942e-06
2.10018e-06
2.10065e-06
2.10082e-06
2.10071e-06
2.1003e-06
2.09959e-06
2.0986e-06
2.0973e-06
2.0957e-06
2.09391e-06
2.09224e-06
2.093e-06
2.09459e-06
2.09619e-06
2.09777e-06
2.09912e-06
2.10018e-06
2.10094e-06
2.1014e-06
2.10158e-06
2.10146e-06
2.10105e-06
2.10035e-06
2.09936e-06
2.09807e-06
2.09647e-06
2.09469e-06
2.093e-06
2.09347e-06
2.09507e-06
2.09667e-06
2.09824e-06
2.09959e-06
2.10065e-06
2.1014e-06
2.10187e-06
2.10204e-06
2.10193e-06
2.10152e-06
2.10082e-06
2.09983e-06
2.09854e-06
2.09694e-06
2.09518e-06
2.09348e-06
2.09365e-06
2.09525e-06
2.09685e-06
2.09842e-06
2.09977e-06
2.10082e-06
2.10158e-06
2.10204e-06
2.10222e-06
2.1021e-06
2.10169e-06
2.101e-06
2.10001e-06
2.09872e-06
2.09712e-06
2.09536e-06
2.09366e-06
2.09353e-06
2.09513e-06
2.09673e-06