/*--------------------------------*- C++ -*----------------------------------*\
  =========                 |
  \\      /  F ield         | OpenFOAM: The Open Source CFD Toolbox
   \\    /   O peration     | Website:  https://openfoam.org
    \\  /    A nd           | Version:  6
     \\/     M anipulation  |
\*---------------------------------------------------------------------------*/
FoamFile
{
    version     2.0;
    format      ascii;
    class       volVectorField;
    location    "0";
    object      U;
}
// * * * * * * * * * * * * * * * * * * * * * * * * * * * * * * * * * * * * * //

dimensions      [0 1 -1 0 0 0 0];

internalField   nonuniform List<vector> 
13046
(
(0.638871 0.263534 0)
(0.55897 -0.0192859 5.6368e-21)
(0.283635 -0.0570196 1.27567e-20)
(0.621503 0.189709 0)
(0.321411 0.0194592 1.15314e-20)
(0.47927 -0.046968 0)
(0.666536 0.215034 -1.661e-21)
(0.48992 -0.0722924 -2.88869e-21)
(0.299009 0.0232598 1.27332e-20)
(1.02313 0.493571 -4.88978e-21)
(0.743398 -0.247582 0)
(0.0392397 -0.0821343 -8.53041e-21)
(0.756105 0.316166 1.04805e-20)
(0.571349 -0.0728458 8.90125e-21)
(0.231504 -0.0524015 -7.04217e-21)
(0.991948 0.552142 -2.49482e-21)
(0.0754807 -0.119169 -1.36373e-20)
(0.783455 -0.17547 -4.50327e-21)
(0.427093 0.116192 0)
(0.398116 -0.0555379 6.18065e-21)
(0.574361 0.103324 -1.73428e-20)
(1.0014 0.544091 2.74403e-21)
(0.0665316 -0.110426 2.73165e-20)
(0.773728 -0.190795 -1.48176e-21)
(0.576548 0.189679 -7.04569e-21)
(0.513516 -0.00723886 1.04077e-20)
(0.324671 -0.0192461 0)
(0.76043 0.343498 -1.78111e-22)
(0.58993 -0.0689759 -2.602e-21)
(0.221892 -0.0704232 2.43389e-20)
(0.643027 0.282955 0)
(0.581813 -0.00613437 0)
(0.277112 -0.0785455 -1.29836e-20)
(0.535887 0.157626 2.4666e-20)
(0.348471 -0.00930236 -4.29361e-21)
(0.501646 0.0109531 -1.61393e-20)
(0.52767 0.136878 6.8867e-23)
(0.368044 0.0143101 0)
(0.47975 0.00824109 0)
(0.541169 0.2691 -9.15437e-21)
(0.337665 -0.151464 -1.17554e-20)
(0.676909 0.0749449 8.46197e-21)
(0.483844 0.0757374 -5.67791e-21)
(0.427841 0.056183 5.80258e-21)
(0.439576 0.0208689 0)
(0.514346 0.0889396 -3.58249e-21)
(0.416787 0.0700811 0)
(0.424989 -0.00331891 1.87087e-21)
(0.660857 0.263092 0)
(0.545105 -0.0401775 4.05373e-22)
(0.268629 -0.0434083 -6.27059e-24)
(0.411191 -0.232249 -1.46809e-20)
(0.462945 0.274697 0)
(0.818121 0.147879 1.02427e-20)
(0.43877 -0.248481 2.0901e-20)
(0.859105 0.172104 1.0939e-20)
(0.422098 0.251879 -1.44007e-20)
(0.764926 -0.0495004 2.01748e-21)
(0.882514 0.554459 0)
(0.194593 -0.188847 -1.1204e-20)
(0.923652 0.339983 4.95096e-21)
(0.578032 -0.187967 -5.30062e-21)
(0.190891 0.0211263 2.96583e-20)
(0.0838005 -0.077276 -1.56058e-20)
(0.711829 -0.204473 3.32489e-21)
(1.03026 0.483675 7.8778e-21)
(0.846182 0.548521 0)
(0.77113 -0.0215764 -9.40472e-21)
(0.222422 -0.209659 -3.27259e-21)
(0.817359 0.526638 3.93964e-21)
(0.762013 -0.0109859 1.27452e-20)
(0.23432 -0.208551 4.45241e-21)
(0.780582 -0.0577656 2.08697e-23)
(0.90525 0.572226 -1.47177e-22)
(0.181834 -0.192303 1.35432e-24)
(0.445981 0.140269 0)
(0.382463 -0.0734966 -6.72883e-21)
(0.591956 0.09198 1.23521e-20)
(0.144528 -0.16665 -1.24382e-20)
(0.942863 0.576352 1.17221e-20)
(0.777817 -0.0983791 4.44278e-21)
(0.606758 0.204296 -3.68544e-21)
(0.505932 -0.0247048 3.71639e-21)
(0.310373 -0.00834391 0)
(0.0732674 -0.0825747 1.40112e-20)
(0.72528 -0.212642 0)
(1.03774 0.494322 -4.67328e-21)
(1.07525 0.41625 8.14429e-21)
(0.0916317 -0.0188757 0)
(0.661947 -0.261671 2.58826e-21)
(0.116577 0.0433165 0)
(1.12864 0.350567 0)
(0.621142 -0.328209 -3.47015e-22)
(0.915982 0.430311 9.9862e-21)
(0.949178 0.438246 -1.38821e-20)
(0.652506 -0.133291 -1.02581e-20)
(0.65952 -0.155552 4.81479e-21)
(0.154348 -0.077504 6.41895e-21)
(0.138401 -0.067424 -1.6447e-20)
(0.104679 -0.0014249 7.88318e-22)
(1.07808 0.398335 -7.96915e-21)
(0.645936 -0.273051 0)
(0.545664 0.115912 2.83478e-23)
(0.392273 0.0622371 0)
(0.43312 -0.0217415 0)
(0.365607 0.182194 -2.57866e-20)
(0.808589 0.192626 5.0259e-21)
(0.447055 -0.1987 0)
(0.468876 0.254726 -3.94204e-21)
(0.389431 -0.19437 0)
(0.756885 0.128086 1.92987e-20)
(0.934965 0.466455 0)
(0.0149382 -0.0750153 1.16379e-20)
(0.713453 -0.276844 3.60342e-21)
(0.714501 0.289955 -7.30828e-21)
(0.5547 -0.0600743 -3.772e-21)
(0.248457 -0.0412625 -1.2736e-20)
(0.941015 0.485107 -5.80543e-21)
(0.913142 0.457841 5.41752e-21)
(0.69765 -0.126958 -2.84206e-21)
(0.140459 -0.108897 -7.36046e-21)
(0.673304 -0.118302 2.773e-21)
(0.153417 -0.0995764 6.87668e-21)
(1.00451 0.498103 1.22061e-20)
(0.748687 -0.250844 5.10123e-21)
(0.0336683 -0.0849041 3.82052e-21)
(0.844693 0.397684 0)
(0.626631 -0.101083 6.82196e-21)
(0.184335 -0.0827507 -3.73698e-20)
(0.580495 0.291394 0)
(0.315389 -0.143665 1.18345e-20)
(0.661324 0.0516634 -4.87291e-22)
(0.137629 0.059589 0)
(1.11482 0.34113 0)
(0.611425 -0.318538 0)
(1.00677 0.440715 0)
(0.66864 -0.197663 1.33562e-20)
(0.115731 -0.0497829 1.66505e-20)
(0.680914 0.307612 0)
(0.596039 -0.0201163 0)
(0.260389 -0.091031 0)
(0.786791 0.253712 0)
(0.502392 -0.143419 0)
(0.274135 0.0577911 0)
(0.445187 0.245112 3.64747e-21)
(0.410417 -0.207594 0)
(0.787248 0.148585 -1.03896e-20)
(0.370862 0.169049 2.49972e-20)
(0.785759 0.187979 1.08563e-20)
(0.444343 -0.184222 -1.27627e-20)
(0.946945 0.359451 -1.15115e-20)
(0.597709 -0.192567 0)
(0.169962 0.000554243 -3.85888e-20)
(0.350341 0.112593 0)
(0.71654 0.184239 -2.36553e-20)
(0.443526 -0.131685 -3.28113e-21)
(0.492659 -0.25874 -5.83148e-21)
(0.922074 0.228598 -1.14974e-20)
(0.518855 -0.263072 0)
(0.95396 0.257186 -6.59649e-21)
(0.3305 0.189164 -1.24971e-20)
(0.28649 0.153926 1.20004e-20)
(0.809954 0.230384 -1.49673e-21)
(0.482848 -0.174073 -6.70541e-21)
(0.299636 0.0998897 7.29288e-21)
(1.04426 0.4797 5.00434e-21)
(0.0391581 -0.0734025 -4.43598e-21)
(0.725658 -0.261718 6.38155e-21)
(0.962104 0.480759 3.48027e-21)
(0.0211679 -0.0801779 1.74767e-21)
(0.73479 -0.265507 0)
(1.01136 0.457916 -1.90173e-22)
(0.68327 -0.195349 0)
(0.105803 -0.0625607 -2.01149e-20)
(0.638366 0.366495 0)
(0.713323 0.0480389 -2.70783e-21)
(0.30569 -0.18547 -6.94518e-21)
(0.784055 0.212977 -9.85201e-21)
(0.325777 0.1232 0)
(0.465083 -0.165797 0)
(0.0452828 -0.0532443 0)
(0.698693 -0.278922 0)
(1.07698 0.45065 -4.16724e-21)
(0.604571 0.336323 0)
(0.702177 0.0602887 5.86603e-21)
(0.31841 -0.173721 -1.79703e-21)
(0.34776 0.127505 0)
(0.733154 0.184833 0)
(0.440034 -0.145843 0)
(0.752036 0.231542 -4.90978e-21)
(0.488293 -0.129852 0)
(0.286724 0.0566259 0)
(0.576263 -0.105132 4.44309e-23)
(0.21154 -0.0379659 8.64772e-21)
(0.819035 0.372479 -1.52561e-20)
(0.609238 -0.0928909 0)
(0.197839 -0.071279 3.86057e-20)
(1.06646 0.455102 9.27465e-21)
(0.0728083 -0.0515864 -1.26904e-20)
(0.695848 -0.246695 1.25198e-20)
(0.132109 0.0393579 -1.1594e-20)
(1.08861 0.361018 -4.988e-21)
(0.621002 -0.293772 -1.29722e-20)
(1.11244 0.385281 1.36232e-20)
(0.645957 -0.299442 0)
(0.0921418 0.00827484 1.13853e-20)
(0.414813 -0.270542 6.02681e-21)
(0.86335 0.144378 -4.58617e-21)
(0.499547 0.336233 -1.22141e-20)
(0.743461 0.267865 9.62548e-21)
(0.929879 0.585663 -6.04346e-21)
(0.157012 -0.177786 7.64878e-21)
(0.788603 -0.087473 -2.08432e-23)
(0.657206 -0.303061 0)
(1.11013 0.401827 3.91261e-21)
(0.0740998 -0.0104893 0)
(0.555421 0.140896 1.8151e-20)
(0.36505 0.0361662 0)
(0.458005 -0.0184799 -6.12726e-21)
(0.7373 0.344966 0)
(0.601449 -0.0495993 3.74452e-22)
(0.236614 -0.0836598 -7.16898e-21)
(0.142492 0.0561421 -8.87682e-21)
(1.09741 0.349 0)
(0.611069 -0.306968 1.49422e-20)
(0.778675 0.291501 0)
(0.561483 -0.114049 -1.61319e-20)
(0.219923 -0.0212498 0)
(0.0236931 -0.0711958 0)
(0.711256 -0.283287 -5.46859e-21)
(1.01944 0.465877 0)
(0.458089 0.304099 1.32099e-20)
(0.887286 0.16089 0)
(0.434176 -0.277794 0)
(1.09743 0.382979 -1.19509e-20)
(0.639216 -0.288743 0)
(0.104437 0.01142 3.20482e-23)
(0.880492 0.245261 -1.29289e-20)
(0.499185 -0.218456 -5.09169e-21)
(0.287796 0.126784 1.6764e-20)
(0.839119 0.413891 0)
(0.639095 -0.0888314 -6.3708e-21)
(0.187759 -0.0969674 -3.87911e-21)
(0.5699 -0.32136 1.8656e-20)
(1.07656 0.291171 9.07283e-21)
(0.220279 0.133055 -6.99135e-21)
(0.991632 0.264249 0)
(0.532811 -0.282355 7.36219e-21)
(0.274968 0.155107 2.51166e-22)
(0.0190058 -0.0666117 8.97673e-21)
(0.693256 -0.29522 0)
(1.02072 0.449872 3.83997e-21)
(0.534776 0.30607 -1.71062e-20)
(0.361649 -0.198588 8.63639e-21)
(0.747558 0.0996476 8.49753e-22)
(0.864768 0.488507 -3.65807e-21)
(0.0198107 -0.0813469 9.65594e-22)
(0.744436 -0.236363 0)
(0.393583 0.0887899 -3.79723e-21)
(0.58506 0.123197 1.40429e-20)
(0.417096 -0.0546217 -1.84416e-20)
(0.882535 0.280687 -5.17489e-21)
(0.860543 0.251446 -3.81493e-23)
(0.526405 -0.195817 1.24124e-20)
(0.501517 -0.200753 1.2209e-20)
(0.279852 0.107214 -1.33048e-20)
(0.242867 0.0734098 6.87535e-21)
(0.126813 -0.156911 1.62812e-20)
(0.956543 0.576962 -6.24031e-21)
(0.786853 -0.111043 0)
(0.804808 0.403713 0)
(0.641521 -0.064181 0)
(0.20842 -0.107885 1.54736e-20)
(1.0226 0.287058 2.39182e-21)
(0.553673 -0.292149 0)
(0.241357 0.131003 0)
(0.97634 0.46663 -5.18387e-21)
(0.685157 -0.161123 0)
(0.122203 -0.0821153 -7.32485e-21)
(0.471619 0.0851368 -3.84983e-21)
(0.462898 0.0372625 -5.58037e-21)
(0.417634 0.0352619 1.92616e-21)
(0.935515 0.26831 8.41718e-21)
(0.525175 -0.242872 0)
(0.263803 0.12338 1.15824e-20)
(0.80753 0.422487 0)
(0.659262 -0.0576056 -7.93922e-21)
(0.207802 -0.123209 9.97057e-21)
(0.793054 0.316611 -1.56391e-20)
(0.828966 0.338166 1.25859e-20)
(0.541588 0.321349 1.35175e-20)
(0.364163 -0.212472 -2.50756e-20)
(0.765301 0.103827 1.87851e-20)
(0.960571 0.292752 8.62318e-21)
(0.54566 -0.245152 -1.07918e-20)
(0.229493 0.0942932 -1.05664e-20)
(0.997312 0.470771 1.87736e-20)
(0.109959 -0.0759266 2.58272e-20)
(0.691892 -0.177109 6.63133e-21)
(0.4732 0.238874 5.93364e-21)
(0.38136 -0.179983 0)
(0.732437 0.124215 -6.53125e-21)
(0.346653 0.214544 1.35205e-20)
(0.936185 0.220646 6.64151e-21)
(0.489243 -0.276434 0)
(0.88918 0.486559 1.89367e-21)
(0.701634 -0.0836249 6.97151e-21)
(0.170678 -0.135714 -4.5698e-21)
(0.49972 0.304783 -1.1158e-21)
(0.396088 -0.232942 0)
(0.808844 0.13456 -1.41372e-20)
(0.915325 0.506119 0)
(0.936606 0.506613 0)
(0.716444 -0.0955964 4.52081e-21)
(0.158707 -0.136348 1.18951e-20)
(0.715069 -0.115849 -6.39268e-21)
(0.143691 -0.123615 -1.26314e-20)
(0.0531968 -0.0598377 9.84554e-21)
(0.707431 -0.262579 0)
(1.07013 0.46398 5.85434e-21)
(0.881329 0.447665 0)
(0.665017 -0.101164 3.21541e-21)
(0.168874 -0.106557 -4.04559e-21)
(0.653937 -0.274389 -1.03135e-20)
(0.00650604 -0.0645791 -1.43676e-20)
(0.822025 0.434829 -8.32563e-21)
(0.663 0.151514 1.90879e-20)
(0.380954 0.117489 0)
(0.420323 -0.106305 6.91147e-21)
(0.882331 0.324312 -1.18556e-20)
(0.56253 -0.167534 0)
(0.203816 0.0158306 -2.26497e-20)
(0.0848915 -0.0539382 8.05048e-21)
(1.05192 0.455149 -1.70147e-20)
(0.689151 -0.22996 -9.42537e-21)
(0.446815 -0.262002 7.82645e-21)
(0.881031 0.176831 0)
(0.415887 0.265805 1.63164e-20)
(0.584483 -0.317251 2.27755e-20)
(1.08637 0.311854 5.52564e-21)
(0.188137 0.102139 0)
(0.534206 -0.0976677 8.13813e-21)
(0.246756 -0.00489332 0)
(0.896081 0.370023 -1.29361e-20)
(0.598634 -0.148927 -5.84611e-21)
(0.176302 -0.0329504 -6.92295e-21)
(0.520795 -0.111919 -2.89374e-22)
(0.253021 0.0127387 -6.58526e-23)
(0.993209 0.549931 1.31787e-20)
(0.0868324 -0.12302 -1.91743e-20)
(0.774765 -0.163153 6.61611e-21)
(0.404424 -0.284592 -7.84732e-21)
(0.869547 0.133351 -1.4639e-21)
(0.533026 0.368876 0)
(0.925226 0.387543 1.31852e-20)
(0.616898 -0.161217 7.13685e-21)
(0.161861 -0.0327393 1.69254e-20)
(0.804613 0.251604 0)
(0.49661 -0.161307 4.90844e-21)
(0.277129 0.0742504 0)
(0.809273 0.175381 6.46892e-21)
(0.432136 -0.211943 0)
(0.401676 0.210274 0)
(0.645607 0.237461 5.11371e-21)
(0.524544 -0.038641 8.95164e-21)
(0.285841 -0.0239874 -1.86661e-23)
(0.381229 0.243047 -1.67848e-20)
(0.918138 0.201634 -1.61442e-20)
(0.472872 -0.274666 -2.11894e-20)
(1.08492 0.431196 7.19583e-21)
(0.677555 -0.26619 -1.06547e-20)
(0.0749329 -0.0342942 -1.90589e-22)
(0.592131 -0.303489 -1.54027e-20)
(1.07709 0.324768 -5.60221e-21)
(0.174547 0.0838587 -8.85309e-21)
(0.750194 0.488754 1.22323e-20)
(0.275224 -0.221932 -6.63339e-21)
(0.766953 0.0228077 0)
(0.938082 0.547449 -3.39299e-21)
(0.919425 0.533952 3.11117e-21)
(0.740159 -0.087081 1.43852e-21)
(0.753499 -0.0964326 -6.25548e-21)
(0.148669 -0.153699 4.37224e-21)
(0.160934 -0.155329 3.84767e-21)
(0.0102683 -0.0695651 1.4593e-20)
(0.684572 -0.263011 1.13561e-20)
(0.840248 0.446201 -2.34439e-21)
(0.88525 0.500848 2.40654e-22)
(0.0252341 -0.0875931 0)
(0.762213 -0.229944 0)
(0.918463 0.298927 1.91186e-20)
(0.547602 -0.207854 2.78545e-21)
(0.227798 0.0670015 0)
(0.0638587 -0.0612677 2.44336e-20)
(1.06469 0.465526 -7.33604e-21)
(0.707797 -0.246705 0)
(0.830706 0.500046 -1.71224e-20)
(0.861262 0.509866 1.28281e-20)
(0.728893 -0.0365473 -7.45611e-21)
(0.727519 -0.0534088 -2.85628e-21)
(0.21663 -0.178144 7.57129e-21)
(0.19673 -0.166903 3.8051e-21)
(0.0535805 -0.0178478 0)
(0.647226 -0.321198 0)
(1.11753 0.387107 -2.10012e-21)
(0.806713 0.478674 4.29503e-21)
(0.017538 -0.0771316 -9.08006e-21)
(0.733072 -0.227151 0)
(0.53069 0.0665538 4.20285e-23)
(0.459715 0.120387 -8.26074e-21)
(0.383946 -0.028615 -4.11903e-21)
(0.883611 0.467381 7.30049e-21)
(0.716899 -0.263692 -5.2722e-21)
(0.0141103 -0.0753678 -1.80906e-20)
(0.690778 0.387523 -1.46544e-20)
(0.692306 0.0181673 1.25158e-20)
(0.275606 -0.168932 1.23803e-23)
(1.08515 0.440579 -1.08789e-22)
(0.689538 -0.284919 -1.52707e-20)
(0.0523306 -0.044712 5.01667e-21)
(0.573598 -0.293149 -3.13658e-22)
(-0.000330362 -0.0549532 1.65244e-20)
(0.791868 0.361815 3.06477e-21)
(0.506122 0.235075 7.89885e-21)
(0.351949 -0.136326 5.01681e-22)
(0.664035 0.0880691 -2.07229e-20)
(0.620767 0.150885 0)
(0.43441 -0.0697509 2.04206e-20)
(0.36553 0.0786697 -1.06414e-20)
(0.989745 0.512709 -1.23236e-20)
(0.0366241 -0.0905663 -1.13917e-20)
(0.760904 -0.238249 6.28176e-25)
(0.648262 0.163947 0)
(0.434932 -0.0862153 7.17167e-21)
(0.355576 0.0901293 1.50293e-20)
(0.511294 0.0654196 -8.38374e-21)
(0.45302 0.102148 8.72193e-21)
(0.397745 -0.00951587 -2.17039e-21)
(0.437096 0.301748 8.09466e-21)
(0.926265 0.177881 5.72447e-21)
(0.456163 -0.298681 -1.16843e-20)
(0.615047 0.107772 0)
(0.387073 -0.0875681 0)
(0.429918 0.151579 -1.24063e-21)
(0.652152 0.138581 -1.02142e-20)
(0.406523 -0.10237 -5.55137e-21)
(0.408278 0.141399 -1.76321e-22)
(0.714462 0.46741 -1.86007e-20)
(0.775025 0.0383319 9.61353e-21)
(0.29648 -0.233283 1.31862e-20)
(0.0557324 -0.0926615 -1.71949e-20)
(0.0508506 -0.0864281 1.74709e-20)
(0.756643 -0.219556 -4.4796e-21)
(0.745487 -0.233072 -3.12147e-21)
(1.02172 0.518656 -1.02512e-20)
(1.03153 0.508716 1.54333e-20)
(1.09465 0.428038 -8.89789e-21)
(0.678351 -0.276802 9.51984e-21)
(0.0666751 -0.0309621 0)
(0.265056 -0.231261 -8.54361e-21)
(0.777512 0.520661 -3.79587e-21)
(0.780312 0.0154818 0)
(0.560406 0.308476 0)
(0.340765 -0.181522 7.87903e-21)
(0.718174 0.0802979 -6.46704e-21)
(1.00435 0.2458 0)
(0.52315 -0.302469 -7.61649e-21)
(0.304143 0.190499 -2.59886e-22)
(0.607925 -0.318567 -5.28196e-21)
(0.00330167 -0.057528 0)
(0.938475 0.37766 8.27396e-21)
(0.097847 0.0241456 0)
(1.12647 0.366668 0)
(0.631462 -0.322474 -6.45078e-21)
(0.992278 0.479106 -4.09838e-21)
(0.0242018 -0.0780555 0)
(0.73148 -0.269491 5.36655e-21)
(-0.00042899 -0.0504203 6.12456e-32)
(0.545494 -0.278828 4.78697e-21)
(0.728849 0.346428 -3.05529e-21)
(0.58264 -0.239373 -5.35524e-21)
(0.00405123 -0.0524055 -6.10992e-32)
(0.697642 0.394111 2.72708e-21)
(0.590602 -0.234364 1.47592e-20)
(0.993419 0.343503 0)
(0.179087 0.0400909 2.26534e-20)
(0.639514 -0.325385 2.87479e-21)
(0.0255349 -0.0411693 0)
(1.07957 0.388589 0)
(1.02566 0.433535 8.30258e-21)
(0.664074 -0.215569 -8.28585e-21)
(0.111238 -0.0389865 -1.17906e-20)
(0.955215 0.561612 -1.3216e-20)
(0.0646488 -0.12276 -6.93704e-21)
(0.811 -0.17261 0)
(0.715881 0.269974 -3.90922e-21)
(0.257771 -0.0136668 4.31589e-21)
(0.5331 -0.0789039 -3.92204e-21)
(0.64389 -0.32236 0)
(0.0662759 -0.005044 -8.35949e-21)
(1.1228 0.381371 -2.41175e-21)
(0.981298 0.231321 6.52606e-21)
(0.332307 0.214517 4.61873e-21)
(0.507821 -0.297565 0)
(0.564764 -0.283122 0)
(1.02311 0.302706 0)
(0.215466 0.107262 -8.25917e-21)
(0.000146305 -0.0252026 0)
(0.345373 -0.158498 3.94787e-21)
(0.421043 0.210601 -1.87272e-21)
(0.640006 -0.292032 -5.19377e-21)
(0.00431956 -0.0633146 9.99665e-21)
(0.847542 0.419941 3.63828e-21)
(0.67907 0.242788 1.01263e-20)
(0.277448 -0.00624549 -1.01699e-20)
(0.516646 -0.0655406 -4.54746e-21)
(0.667662 -0.304746 -1.34945e-20)
(1.10166 0.415974 4.49312e-21)
(0.0451473 -0.0346651 0)
(0.0462877 -0.0194565 8.75779e-21)
(1.11757 0.381354 0)
(0.637606 -0.329646 1.01084e-20)
(1.05043 0.487146 5.36222e-21)
(0.064495 -0.0742298 -2.61689e-20)
(0.721838 -0.229193 -1.2806e-20)
(0.110025 -0.134624 1.9685e-20)
(0.768463 -0.13644 -7.02232e-21)
(0.977175 0.555583 0)
(0.691028 0.472866 2.35061e-20)
(0.801564 0.0552249 -1.22481e-20)
(0.31981 -0.253761 1.25406e-20)
(0.745661 -0.0666233 -2.14882e-21)
(0.890993 0.538868 -7.39126e-21)
(0.183177 -0.172508 1.19664e-20)
(0.100074 -0.143961 1.76876e-20)
(0.96848 0.577175 0)
(0.799356 -0.137353 5.12079e-21)
(0.728616 0.381921 3.6834e-21)
(0.768207 0.410709 0)
(0.653297 -0.015668 1.30286e-20)
(0.665898 -0.0305199 -1.39286e-20)
(0.247276 -0.132624 -8.09394e-21)
(0.229898 -0.137357 0)
(0.692429 0.371417 3.62461e-21)
(0.666581 0.0066697 0)
(0.268389 -0.147505 -3.87387e-21)
(0.815602 0.511306 0)
(0.744618 -0.0222116 1.20479e-20)
(0.22996 -0.194175 -2.73082e-21)
(0.584592 -0.291438 7.6476e-21)
(1.05666 0.320118 -5.85828e-21)
(0.184579 0.0830837 1.81973e-20)
(0.666294 -0.295047 0)
(1.10107 0.416495 -1.42991e-21)
(0.0650729 -0.0220733 0)
(0.147989 0.0426021 5.86428e-21)
(1.06489 0.354187 3.66552e-21)
(0.611549 -0.279601 4.99194e-21)
(0.622565 -0.240484 7.31954e-22)
(0.00650462 -0.0581538 -8.67062e-24)
(0.732951 0.418377 0)
(0.574256 0.26314 -7.12046e-21)
(0.586408 0.25622 0)
(0.312496 -0.109657 1.84595e-21)
(0.619036 0.0417337 -2.53003e-20)
(0.305151 -0.0915663 -2.33606e-21)
(0.595655 0.0238752 1.60877e-20)
(0.760373 0.46713 0)
(0.71658 0.43522 2.38675e-21)
(0.275127 -0.193275 -5.95264e-24)
(0.731918 0.00202516 -7.54516e-21)
(0.25698 -0.191229 -1.99237e-20)
(0.72686 0.017511 1.59508e-20)
(0.554713 -0.305138 0)
(-0.00154209 -0.0541391 -1.80341e-20)
(0.827388 0.350671 0)
(0.672721 -0.298246 7.99509e-21)
(1.1009 0.422277 -1.42237e-21)
(0.0500837 -0.0369385 -5.26566e-21)
(0.579246 0.349657 4.4602e-21)
(0.352168 -0.220885 9.03823e-21)
(0.768715 0.0901655 -2.11988e-20)
(0.555707 -0.3111 -1.66074e-20)
(1.04967 0.279258 -1.52312e-20)
(0.243369 0.147745 0)
(0.121456 -0.142754 -2.10528e-20)
(0.766678 -0.124709 7.47156e-21)
(0.966762 0.557098 0)
(0.680697 -0.296235 0)
(0.950488 0.440954 0)
(0.00997351 -0.0686988 0)
(0.67922 -0.300785 0)
(0.984658 0.435327 -6.81565e-21)
(0.0126586 -0.0654299 0)
(0.863993 0.492434 7.10174e-21)
(0.708623 -0.0660971 -4.33099e-21)
(0.188346 -0.150278 -5.63207e-21)
(0.449876 0.215535 2.08798e-21)
(0.391799 -0.167168 0)
(0.72298 0.13612 -6.93373e-21)
(1.04565 0.492443 -6.24786e-21)
(0.056135 -0.0782009 -1.52626e-20)
(0.733291 -0.234838 1.85539e-20)
(0.594266 -0.252135 0)
(1.01656 0.344981 0)
(0.1723 0.0506705 -1.9541e-20)
(0.097403 -0.0864273 -4.93387e-21)
(0.71255 -0.182993 -1.13461e-20)
(1.00955 0.493678 -1.73294e-20)
(0.688794 0.423885 -2.43132e-21)
(0.293512 -0.204535 1.32537e-20)
(0.738552 0.0336253 -8.15035e-21)
(0.858947 0.224483 1.25387e-20)
(0.47803 -0.216124 -7.57778e-21)
(0.327037 0.156285 -1.63682e-20)
(0.528777 0.272909 -1.48244e-22)
(0.349938 -0.168514 2.5803e-21)
(0.704556 0.0888595 8.47411e-21)
(0.0490854 -0.0696959 5.95877e-21)
(0.722941 -0.254768 -8.58714e-21)
(1.05463 0.477206 -6.73061e-21)
(0.967643 0.488808 3.24071e-21)
(0.703252 -0.147164 3.36442e-21)
(0.124774 -0.0996298 0)
(0.518432 0.230366 7.72128e-21)
(0.341881 -0.117087 -1.62618e-20)
(0.635358 0.0724451 1.36714e-20)
(0.962732 0.578502 -5.2856e-21)
(0.08816 -0.140245 -7.87093e-21)
(0.810042 -0.147469 -4.65719e-23)
(0.673134 0.325252 4.45797e-21)
(0.61776 -0.00892212 0)
(0.264291 -0.109938 0)
(0.724025 0.20899 1.82353e-20)
(0.464959 -0.122983 -4.44446e-21)
(0.316105 0.081598 0)
(0.564428 -0.261771 0)
(0.999023 0.3051 -1.2332e-20)
(0.212201 0.0930035 8.64694e-21)
(0.919583 0.526862 0)
(0.0374485 -0.100498 2.43628e-21)
(0.792065 -0.210775 -5.80933e-21)
(0.921402 0.540849 -5.11372e-21)
(0.0449249 -0.107969 -7.78074e-21)
(0.803802 -0.194617 5.60718e-21)
(0.0983898 -0.0988523 -4.50672e-21)
(0.726112 -0.172039 6.71705e-21)
(1.00263 0.507949 1.59501e-20)
(0.881067 0.213625 5.79465e-21)
(0.476195 -0.239819 1.51691e-20)
(0.348127 0.184638 0)
(0.0300362 -0.0936204 -2.23115e-21)
(0.782271 -0.216055 5.43202e-21)
(0.871978 0.511606 0)
(0.0976288 -0.0401571 0)
(0.673014 -0.229924 6.91165e-21)
(1.0466 0.437899 1.96718e-21)
(-0.00221674 -0.0422335 -9.00327e-21)
(0.467535 -0.265536 -5.40449e-21)
(0.649938 0.286311 0)
(0.592112 0.364733 3.22241e-21)
(0.529689 -0.201207 0)
(0.00412712 -0.0438779 -9.01163e-21)
(0.0988566 -0.135372 -3.84742e-24)
(0.784893 -0.145426 8.75104e-22)
(0.977554 0.565985 0)
(0.0318229 -0.0679766 0)
(0.713194 -0.277352 0)
(1.04626 0.466451 -8.67065e-21)
(1.01953 0.522628 5.59038e-21)
(1.02166 0.516714 -4.52244e-21)
(0.0671307 -0.100402 8.62563e-21)
(0.75789 -0.199369 1.47416e-21)
(0.0746328 -0.0973667 0)
(0.744161 -0.195366 0)
(1.05531 0.421256 -3.82237e-21)
(0.660622 -0.243035 -4.57538e-21)
(0.102277 -0.0251169 0)
(0.284877 0.188352 0)
(0.535662 -0.318752 0)
(1.03679 0.256477 0)
(0.579862 0.223455 -9.49786e-21)
(0.311061 -0.0577664 2.23352e-20)
(0.555168 0.00994725 -8.87528e-21)
(1.05141 0.380932 -1.0974e-20)
(0.628532 -0.258336 -1.69709e-21)
(0.129225 0.0128961 -1.729e-20)
(0.146927 0.0318882 -1.12592e-20)
(1.04707 0.364787 1.52664e-20)
(0.614218 -0.263712 2.35467e-21)
(0.956735 0.589383 -6.18676e-21)
(0.11686 -0.158044 -8.46271e-21)
(0.802869 -0.116882 0)
(0.771857 0.48521 0)
(0.745275 0.00143299 -3.58104e-21)
(0.254343 -0.2011 1.95297e-20)
(0.721845 0.414004 0)
(0.702509 0.00845501 -1.64374e-20)
(0.264867 -0.175458 -4.87719e-24)
(0.982084 0.3726 1.46259e-20)
(0.611525 -0.213374 -2.06116e-21)
(0.155468 0.00258835 9.81568e-21)
(1.00049 0.368341 0)
(0.609743 -0.228186 -1.93804e-21)
(0.155592 0.0137467 -9.03246e-21)
(0.494479 0.202182 0)
(0.353512 -0.101059 2.56667e-20)
(0.618531 0.0778099 0)
(0.776228 0.429086 0)
(0.680257 -0.0300128 9.20318e-21)
(0.227789 -0.150681 -2.93232e-21)
(0.0778777 0.011539 1.8105e-20)
(0.630192 -0.331154 1.45516e-20)
(1.13398 0.36809 0)
(1.00213 0.415994 1.47361e-22)
(0.0110043 -0.0602378 -5.54254e-21)
(0.651819 -0.313945 -3.81592e-21)
(0.985739 0.389862 2.03146e-22)
(0.0075198 -0.0573092 0)
(0.628106 -0.31893 1.09396e-20)
(0.615097 0.325531 -5.331e-21)
(0.304634 -0.152498 2.81816e-21)
(0.672085 0.0420117 1.41554e-22)
(0.649986 -0.299017 -1.75391e-22)
(0.00549521 -0.064602 -2.29218e-20)
(0.913281 0.418614 0)
(0.98393 0.509619 -1.3863e-20)
(0.112811 -0.106473 0)
(0.723079 -0.153077 0)
(0.00198975 -0.0594209 9.08762e-21)
(0.611119 -0.312535 5.86979e-21)
(0.902923 0.384405 -6.35859e-21)
(0.60478 0.169087 -1.26144e-20)
(0.345309 0.0417283 -1.35065e-20)
(0.460663 -0.0444222 -5.28397e-23)
(0.844273 0.364934 2.21951e-21)
(0.598345 -0.115651 2.13541e-21)
(0.194115 -0.0495674 8.85867e-21)
(0.453146 -0.236428 -1.73374e-20)
(0.856176 0.192254 -2.07811e-20)
(0.385899 0.212797 0)
(0.0332902 -0.0369964 0)
(0.648534 -0.321169 3.60739e-21)
(1.09389 0.397389 0)
(0.583088 -0.263379 0)
(1.01984 0.33063 0)
(0.185348 0.0680231 0)
(0.0746934 -0.127409 0)
(0.971131 0.564857 4.80655e-21)
(0.804275 -0.164965 -5.09919e-21)
(0.882134 0.384587 0)
(0.610517 -0.13416 -1.06355e-21)
(0.177932 -0.0481348 1.88675e-23)
(0.562972 0.203871 9.17377e-21)
(0.323459 -0.0438255 -1.91704e-20)
(0.540426 0.0116832 0)
(0.670258 -0.308393 1.27671e-20)
(1.08266 0.421429 -4.27055e-21)
(0.0342607 -0.0445893 0)
(0.0887648 -0.0649209 1.03561e-20)
(0.696245 -0.214324 -4.39537e-22)
(1.03481 0.469143 -2.6109e-22)
(0.955304 0.509384 0)
(0.936545 0.502342 -4.87028e-21)
(0.0321954 -0.0914668 -5.58526e-21)
(0.0265651 -0.0872864 6.90266e-21)
(0.766978 -0.233972 3.58336e-21)
(0.758292 -0.242757 -2.94638e-21)
(0.853853 0.28494 0)
(0.524958 -0.177041 -1.45069e-20)
(0.24406 0.0573435 -1.07573e-20)
(0.571573 -0.222748 -2.07214e-20)
(0.964608 0.324822 0)
(0.19518 0.051322 1.19033e-20)
(0.689523 0.215419 1.03299e-20)
(0.481082 -0.0914491 -7.56836e-21)
(0.295962 0.0406713 -1.66033e-20)
(0.658344 -0.316607 -8.38672e-21)
(1.04247 0.41502 -5.25603e-21)
(0.642807 -0.324022 3.99152e-21)
(0.0169565 -0.0557735 5.87004e-21)
(1.05139 0.397314 4.92229e-21)
(0.017901 -0.0505341 0)
(0.953718 0.423049 0)
(0.644411 -0.168319 0)
(0.142439 -0.0516318 -1.10748e-20)
(1.06826 0.43291 -5.39507e-21)
(1.04976 0.428907 1.36473e-20)
(0.682433 -0.301716 -5.49692e-21)
(0.677964 -0.305921 1.3844e-20)
(0.0281825 -0.0544883 -1.54534e-20)
(0.0212366 -0.0585581 7.82377e-24)
(0.944702 0.309406 0)
(0.553362 -0.227582 1.9234e-20)
(0.221563 0.0779857 -1.54229e-20)
(0.808497 0.301582 -9.63915e-21)
(0.558888 -0.133606 1.29004e-20)
(0.212402 -0.00730568 0)
(0.955854 0.550096 0)
(0.0540018 -0.113204 -1.073e-21)
(0.801965 -0.190423 -5.38627e-21)
(0.856833 0.303119 -7.08365e-21)
(0.540525 -0.16505 0)
(0.226755 0.0346054 1.7852e-20)
(0.732367 0.244577 -4.16993e-21)
(0.501375 -0.108765 8.87657e-21)
(0.272567 0.0290936 -9.72778e-21)
(0.943343 0.521293 0)
(0.0379059 -0.0981576 0)
(0.783939 -0.220421 7.42962e-21)
(0.886666 0.405407 0)
(0.632568 -0.123944 -2.26215e-21)
(0.167453 -0.0691382 1.09966e-20)
(0.496288 -0.308468 0)
(0.979058 0.218331 0)
(0.363072 0.247847 5.95225e-22)
(0.685227 0.436382 5.99249e-22)
(0.759509 0.0443539 0)
(0.30282 -0.22079 -1.02908e-20)
(0.594574 -0.327776 -8.90521e-21)
(0.164323 0.0893678 0)
(1.11144 0.321787 0)
(0.000572123 -0.0364336 2.16562e-20)
(0.447936 -0.205391 -5.52886e-21)
(0.554159 0.281825 2.62303e-21)
(0.871547 0.340143 0)
(0.572369 -0.148009 -7.9209e-21)
(0.197255 -0.0088191 0)
(0.992643 0.539277 -9.06135e-21)
(0.0570443 -0.106634 -2.91681e-20)
(0.781329 -0.19749 1.1003e-20)
(0.362349 -0.26994 0)
(0.834048 0.0951813 8.00789e-21)
(0.611614 0.422192 0)
(0.712275 0.434551 0)
(0.00979924 -0.0616215 5.39288e-21)
(0.659987 -0.22581 0)
(0.391381 0.158499 -1.03493e-20)
(0.402894 0.181012 1.05947e-20)
(0.415094 -0.147561 0)
(0.716752 0.15836 -8.75681e-21)
(0.416538 -0.169269 1.64149e-20)
(0.744651 0.157683 7.02802e-21)
(0.682708 0.196267 -9.71384e-21)
(0.459862 -0.0961868 -1.00661e-20)
(0.322522 0.0685385 0)
(0.467152 0.211219 -9.10402e-21)
(0.429288 0.18148 0)
(0.373939 -0.142423 0)
(0.68148 0.111672 0)
(0.389651 -0.133206 9.24731e-21)
(0.680916 0.127775 -4.66289e-23)
(0.84143 0.326427 -6.11409e-22)
(0.53649 -0.132983 5.62678e-21)
(0.234282 0.0139153 1.20107e-20)
(0.814415 0.290455 1.65595e-20)
(0.530029 -0.144402 0)
(0.241776 0.0303248 0)
(0.010803 -0.0522169 0)
(0.619774 -0.328456 0)
(1.02171 0.381441 -4.98859e-21)
(0.654819 0.341078 1.46412e-20)
(0.657089 0.0207795 0)
(0.283276 -0.141171 -5.23334e-21)
(1.06516 0.450458 1.16356e-20)
(0.698421 -0.287818 -6.38867e-21)
(0.0336153 -0.0589243 8.81815e-21)
(0.992092 0.398208 0)
(1.01598 0.411224 -7.98714e-21)
(0.631932 -0.206457 2.56855e-21)
(0.646093 -0.216638 -8.16095e-21)
(0.137108 -0.0180133 1.22297e-20)
(0.123536 -0.0233787 1.13805e-20)
(0.645907 0.317528 0)
(0.631828 0.0111199 0)
(0.281349 -0.121688 -2.46253e-21)
(0.81027 0.473737 -5.75897e-21)
(0.711492 -0.0317247 0)
(0.223095 -0.168527 -6.51815e-21)
(0.939218 0.382267 4.18973e-21)
(0.611064 -0.179824 0)
(0.158914 -0.018322 -1.11699e-20)
(0.498873 0.146243 -9.97723e-21)
(0.525071 0.0408846 -4.82035e-21)
(0.360516 -0.0280319 -5.13605e-21)
(1.03064 0.388095 0)
(0.629388 -0.240131 0)
(0.13305 0.00317121 1.83757e-20)
(0.554019 0.221816 0)
(0.321152 -0.0770593 -2.82876e-21)
(0.578944 0.0339909 0)
(0.938294 0.326149 9.42947e-21)
(0.566372 -0.209319 1.0698e-20)
(0.201822 0.0422912 1.54148e-21)
(0.811976 0.454244 -5.80012e-21)
(0.691684 -0.0440442 -1.04904e-20)
(0.213487 -0.152067 0)
(0.512832 0.171041 9.89095e-21)
(0.493893 0.169222 4.43941e-21)
(0.544886 0.0381399 -4.70491e-21)
(0.346509 -0.0460291 1.01662e-20)
(0.569309 0.0564906 0)
(0.353022 -0.0629001 1.81035e-20)
(0.458256 0.176365 4.51501e-21)
(0.370744 -0.104113 -1.19759e-20)
(0.433391 0.170042 -2.9083e-21)
(0.628024 0.0972845 0)
(0.390529 -0.120854 -5.86696e-21)
(0.662749 0.122594 1.00072e-20)
(0.719979 0.361506 -5.28567e-21)
(0.759471 0.373375 0)
(0.631034 -0.0247821 -9.68604e-21)
(0.625301 -0.0463378 7.56008e-21)
(0.244795 -0.114611 2.34091e-20)
(0.227492 -0.102167 -1.94779e-20)
(0.105611 -0.122423 0)
(0.752119 -0.147469 4.12009e-21)
(0.985607 0.537606 8.19553e-21)
(0.393742 0.263653 -2.00465e-20)
(0.942224 0.199946 -9.03193e-21)
(0.476783 -0.294935 1.83491e-20)
(0.0917313 -0.116139 9.82419e-21)
(0.0870448 -0.105455 0)
(0.756711 -0.165117 -3.56182e-21)
(0.7434 -0.178184 -6.13751e-21)
(0.997281 0.53872 -2.08394e-20)
(1.00923 0.523667 1.08206e-20)
(0.515743 0.330654 0)
(0.396434 -0.248987 9.86269e-21)
(0.825929 0.129831 -2.05433e-21)
(0.48661 0.107781 -2.09551e-20)
(0.392478 0.0151638 0)
(0.479704 0.034154 1.65243e-20)
(1.03558 0.406663 3.7924e-21)
(0.645301 -0.234748 9.21369e-21)
(0.119429 -0.0139194 0)
(0.600554 0.287068 0)
(0.300751 -0.12451 2.34665e-21)
(0.633202 0.0338499 8.21584e-21)
(0.83535 0.462702 0)
(0.690871 -0.0568774 0)
(0.200157 -0.144133 1.56329e-21)
(0.955475 0.541534 0)
(0.958359 0.525343 0)
(0.748852 -0.117767 -2.18924e-21)
(0.132709 -0.139178 1.19879e-20)
(0.73426 -0.124319 5.97155e-21)
(0.130437 -0.127673 -1.62122e-20)
(0.979827 0.423559 -7.90921e-21)
(0.650415 -0.183879 -8.57133e-21)
(0.130543 -0.0450464 -5.32521e-21)
(0.782508 0.451359 -5.51977e-21)
(0.694184 -0.23838 0)
(0.0122825 -0.0692161 6.61421e-21)
(0.377906 -0.267531 0)
(0.83803 0.10925 -6.5392e-21)
(0.574643 0.388833 0)
(0.645492 0.437177 -6.08511e-21)
(0.627961 0.41312 6.54209e-21)
(0.339932 -0.25388 6.42304e-21)
(0.807004 0.0754987 0)
(0.3423 -0.242202 0)
(0.793546 0.0771398 0)
(1.05106 0.337649 1.33528e-20)
(0.595042 -0.280597 -1.73712e-20)
(0.169844 0.0623337 -8.39542e-22)
(0.781231 0.461868 1.18182e-20)
(0.713436 -0.0164708 0)