/*--------------------------------*- C++ -*----------------------------------*\
  =========                 |
  \\      /  F ield         | OpenFOAM: The Open Source CFD Toolbox
   \\    /   O peration     | Website:  https://openfoam.org
    \\  /    A nd           | Version:  6
     \\/     M anipulation  |
\*---------------------------------------------------------------------------*/
FoamFile
{
    version     2.0;
    format      ascii;
    class       volVectorField;
    location    "24627";
    object      U;
}
// * * * * * * * * * * * * * * * * * * * * * * * * * * * * * * * * * * * * * //

dimensions      [0 1 -1 0 0 0 0];

internalField   nonuniform List<vector> 
115600
(
(0.00653181 -0.00184551 0)
(0.00745843 -3.61214e-05 0)
(0.00796522 1.46146e-06 0)
(0.00828596 1.33429e-06 0)
(0.00852962 6.48233e-07 0)
(0.00868716 1.00242e-06 0)
(0.0087588 1.18653e-06 0)
(0.00877076 1.12423e-06 0)
(0.00875008 1.01655e-06 0)
(0.00870547 9.72553e-07 0)
(0.00864593 9.16389e-07 0)
(0.00857789 8.51323e-07 0)
(0.00850591 7.82582e-07 0)
(0.00843317 7.14488e-07 0)
(0.00836171 6.51075e-07 0)
(0.0082928 5.92306e-07 0)
(0.00822724 5.37753e-07 0)
(0.00816553 4.87079e-07 0)
(0.00810799 4.3983e-07 0)
(0.00805479 3.95414e-07 0)
(0.00800604 3.53597e-07 0)
(0.00796175 3.13925e-07 0)
(0.00792192 2.7606e-07 0)
(0.00788652 2.3991e-07 0)
(0.00785548 2.05206e-07 0)
(0.00782875 1.71507e-07 0)
(0.00780624 1.38747e-07 0)
(0.00778789 1.06842e-07 0)
(0.00777364 7.53924e-08 0)
(0.00776344 4.39554e-08 0)
(0.00775725 1.23202e-08 0)
(0.00775511 -2.96903e-08 0)
(0.00775851 -7.60031e-08 0)
(0.00776661 -1.14063e-07 0)
(0.00777925 -1.49686e-07 0)
(0.00779628 -1.85835e-07 0)
(0.00781774 -2.23854e-07 0)
(0.00784379 -2.64789e-07 0)
(0.00787469 -3.09639e-07 0)
(0.00791082 -3.59763e-07 0)
(0.00795272 -4.17172e-07 0)
(0.00800111 -4.83799e-07 0)
(0.00805694 -5.62109e-07 0)
(0.00812143 -6.55654e-07 0)
(0.00819615 -7.69141e-07 0)
(0.00828322 -9.09666e-07 0)
(0.00838535 -1.085e-06 0)
(0.00850649 -1.31488e-06 0)
(0.00865129 -1.60475e-06 0)
(0.00882919 -2.04635e-06 0)
(0.00904591 -2.54473e-06 0)
(0.00933866 -3.76965e-06 0)
(0.0096854 -4.49982e-06 0)
(0.010343 -1.15025e-05 0)
(0.0109435 -1.91827e-05 0)
(0.0149558 -0.000319104 0)
(0.0197127 -0.000382164 0)
(0.0218173 -7.11515e-05 0)
(0.0235909 -4.57845e-05 0)
(0.0246875 -3.06966e-05 0)
(0.0254285 -2.04585e-05 0)
(0.0258897 -9.60287e-06 0)
(0.0261141 -1.25015e-06 0)
(0.0261682 3.82702e-06 0)
(0.02612 6.70434e-06 0)
(0.0260026 8.55474e-06 0)
(0.025841 9.57217e-06 0)
(0.0256535 9.98179e-06 0)
(0.0254531 9.97311e-06 0)
(0.0252488 9.69616e-06 0)
(0.0250468 9.26293e-06 0)
(0.0248511 8.73966e-06 0)
(0.0246641 8.1664e-06 0)
(0.0244877 7.56849e-06 0)
(0.0243229 6.96164e-06 0)
(0.0241704 6.35549e-06 0)
(0.0240304 5.75659e-06 0)
(0.0239032 5.16862e-06 0)
(0.0237888 4.5937e-06 0)
(0.0236871 4.03341e-06 0)
(0.023598 3.48804e-06 0)
(0.0235213 2.957e-06 0)
(0.0234566 2.43981e-06 0)
(0.0234039 1.93566e-06 0)
(0.0233628 1.44238e-06 0)
(0.0233333 9.57339e-07 0)
(0.023315 4.72468e-07 0)
(0.0233083 -1.00565e-07 0)
(0.0233166 -7.12398e-07 0)
(0.0233376 -1.25697e-06 0)
(0.0233709 -1.77142e-06 0)
(0.0234161 -2.2775e-06 0)
(0.023473 -2.79068e-06 0)
(0.0235419 -3.32364e-06 0)
(0.0236233 -3.88864e-06 0)
(0.023718 -4.50119e-06 0)
(0.0238271 -5.18082e-06 0)
(0.0239523 -5.94926e-06 0)
(0.0240957 -6.83358e-06 0)
(0.02426 -7.86986e-06 0)
(0.0244489 -9.10647e-06 0)
(0.0246671 -1.06098e-05 0)
(0.024921 -1.24715e-05 0)
(0.0252196 -1.48345e-05 0)
(0.0255739 -1.78966e-05 0)
(0.0260041 -2.20667e-05 0)
(0.0265277 -2.78365e-05 0)
(0.0272163 -3.70696e-05 0)
(0.0280621 -5.16377e-05 0)
(0.0295149 -8.75258e-05 0)
(0.0311573 -0.000189885 0)
(0.0376747 -0.000633578 0)
(0.0310013 -0.000463722 0)
(0.0342343 -0.000240017 0)
(0.0369922 -0.000164155 0)
(0.0387471 -0.000110888 0)
(0.0399411 -7.44093e-05 0)
(0.0407427 -4.31499e-05 0)
(0.0412316 -1.91384e-05 0)
(0.0414858 -2.76012e-06 0)
(0.0415681 7.74094e-06 0)
(0.0415404 1.46276e-05 0)
(0.0414352 1.90293e-05 0)
(0.041277 2.15936e-05 0)
(0.0410849 2.2814e-05 0)
(0.0408727 2.30998e-05 0)
(0.0406505 2.27647e-05 0)
(0.0404259 2.20147e-05 0)
(0.040204 2.09862e-05 0)
(0.0399888 1.97723e-05 0)
(0.0397833 1.84369e-05 0)
(0.0395896 1.7025e-05 0)
(0.0394092 1.55691e-05 0)
(0.0392432 1.40924e-05 0)
(0.0390924 1.26115e-05 0)
(0.0389572 1.11387e-05 0)
(0.0388379 9.68215e-06 0)
(0.0387347 8.24703e-06 0)
(0.0386475 6.83637e-06 0)
(0.0385762 5.45156e-06 0)
(0.0385208 4.09072e-06 0)
(0.038481 2.74912e-06 0)
(0.0384569 1.40148e-06 0)
(0.0384488 -1.29217e-07 0)
(0.0384596 -1.74323e-06 0)
(0.0384875 -3.22173e-06 0)
(0.038532 -4.62709e-06 0)
(0.0385928 -6.00692e-06 0)
(0.0386697 -7.39714e-06 0)
(0.0387631 -8.82956e-06 0)
(0.0388735 -1.0336e-05 0)
(0.039002 -1.19558e-05 0)
(0.03915 -1.37376e-05 0)
(0.0393195 -1.57366e-05 0)
(0.0395133 -1.80216e-05 0)
(0.0397349 -2.06821e-05 0)
(0.0399889 -2.38372e-05 0)
(0.0402815 -2.76487e-05 0)
(0.0406207 -3.23408e-05 0)
(0.0410176 -3.82495e-05 0)
(0.0414864 -4.58655e-05 0)
(0.042051 -5.60856e-05 0)
(0.0427352 -7.0245e-05 0)
(0.0436162 -9.20354e-05 0)
(0.0447068 -0.000127301 0)
(0.0464461 -0.000204118 0)
(0.0484869 -0.000400239 0)
(0.0545775 -0.000936296 0)
(0.0409267 -0.000925103 0)
(0.0441067 -0.000460156 0)
(0.0470784 -0.000312458 0)
(0.0490547 -0.000213814 0)
(0.0504513 -0.000146199 0)
(0.0514576 -9.19435e-05 0)
(0.0521595 -5.04361e-05 0)
(0.0526274 -2.07211e-05 0)
(0.0529115 -4.3332e-07 0)
(0.0530613 1.32111e-05 0)
(0.0531179 2.23718e-05 0)
(0.0531052 2.83182e-05 0)
(0.053042 3.18556e-05 0)
(0.0529427 3.36437e-05 0)
(0.0528186 3.42008e-05 0)
(0.0526783 3.38825e-05 0)
(0.0525285 3.29349e-05 0)
(0.0523746 3.15331e-05 0)
(0.0522208 2.98037e-05 0)
(0.0520705 2.78399e-05 0)
(0.0519262 2.57119e-05 0)
(0.0517901 2.34729e-05 0)
(0.0516637 2.11626e-05 0)
(0.0515485 1.88121e-05 0)
(0.0514452 1.6444e-05 0)
(0.0513547 1.40749e-05 0)
(0.0512774 1.17163e-05 0)
(0.0512139 9.3756e-06 0)
(0.0511643 7.05424e-06 0)
(0.051129 4.74699e-06 0)
(0.0511082 2.40834e-06 0)
(0.0511027 -1.83206e-07 0)
(0.0511134 -2.89112e-06 0)
(0.0511402 -5.43548e-06 0)
(0.0511832 -7.88898e-06 0)
(0.0512423 -1.03173e-05 0)
(0.0513181 -1.27743e-05 0)
(0.0514111 -1.53116e-05 0)
(0.0515223 -1.79831e-05 0)
(0.051653 -2.08558e-05 0)
(0.051805 -2.40119e-05 0)
(0.0519806 -2.75469e-05 0)
(0.0521831 -3.15789e-05 0)
(0.0524163 -3.62603e-05 0)
(0.0526855 -4.1793e-05 0)
(0.0529973 -4.84484e-05 0)
(0.0533603 -5.66026e-05 0)
(0.0537861 -6.68069e-05 0)
(0.0542897 -7.98797e-05 0)
(0.054895 -9.72337e-05 0)
(0.0556267 -0.000121132 0)
(0.0565559 -0.000157012 0)
(0.0577016 -0.000214834 0)
(0.0594328 -0.000331569 0)
(0.0614191 -0.000606063 0)
(0.0664593 -0.00118738 0)
(0.0502168 -0.00129849 0)
(0.0525605 -0.00065245 0)
(0.0551581 -0.000455759 0)
(0.056975 -0.000318297 0)
(0.0583123 -0.000222689 0)
(0.0593242 -0.000147935 0)
(0.0600794 -9.06948e-05 0)
(0.0606334 -4.86592e-05 0)
(0.061027 -1.86771e-05 0)
(0.0612913 2.24805e-06 0)
(0.0614608 1.66901e-05 0)
(0.0615605 2.6588e-05 0)
(0.0616062 3.31136e-05 0)
(0.0616104 3.71222e-05 0)
(0.061583 3.9293e-05 0)
(0.0615321 4.01039e-05 0)
(0.0614643 3.98948e-05 0)
(0.0613848 3.8915e-05 0)
(0.061298 3.73507e-05 0)
(0.0612076 3.53433e-05 0)
(0.0611165 3.30025e-05 0)
(0.0610271 3.04136e-05 0)
(0.0609414 2.76431e-05 0)
(0.0608612 2.47439e-05 0)
(0.0607877 2.17561e-05 0)
(0.060722 1.87111e-05 0)
(0.0606652 1.56316e-05 0)
(0.060618 1.25337e-05 0)
(0.060581 9.42431e-06 0)
(0.060555 6.29932e-06 0)
(0.0605404 3.09689e-06 0)
(0.0605384 -3.97039e-07 0)
(0.0605491 -4.02792e-06 0)
(0.0605731 -7.51844e-06 0)
(0.0606109 -1.09419e-05 0)
(0.0606634 -1.43723e-05 0)
(0.0607313 -1.78759e-05 0)
(0.0608157 -2.15209e-05 0)
(0.0609179 -2.53817e-05 0)
(0.0610394 -2.95521e-05 0)
(0.0611825 -3.41477e-05 0)
(0.0613499 -3.93043e-05 0)
(0.0615449 -4.51901e-05 0)
(0.0617718 -5.20215e-05 0)
(0.0620359 -6.00827e-05 0)
(0.0623443 -6.97547e-05 0)
(0.0627055 -8.1563e-05 0)
(0.0631313 -9.62675e-05 0)
(0.0636363 -0.000115 0)
(0.0642435 -0.000139648 0)
(0.0649769 -0.000173334 0)
(0.0659003 -0.000222923 0)
(0.0670322 -0.000301865 0)
(0.0686813 -0.000452163 0)
(0.0705182 -0.00078637 0)
(0.0747169 -0.0013946 0)
(0.0592111 -0.00154304 0)
(0.060458 -0.000799367 0)
(0.0623605 -0.00057646 0)
(0.0637678 -0.000411362 0)
(0.0648548 -0.000293892 0)
(0.0657177 -0.00020268 0)
(0.0663939 -0.000132464 0)
(0.0669183 -8.00558e-05 0)
(0.0673185 -4.16471e-05 0)
(0.067616 -1.39628e-05 0)
(0.0678286 5.61514e-06 0)
(0.0679795 1.93721e-05 0)
(0.0680819 2.89313e-05 0)
(0.0681452 3.53308e-05 0)
(0.0681773 3.93668e-05 0)
(0.0681846 4.16095e-05 0)
(0.0681726 4.24727e-05 0)
(0.068146 4.22658e-05 0)
(0.0681086 4.12243e-05 0)
(0.0680638 3.95305e-05 0)
(0.0680142 3.73279e-05 0)
(0.0679622 3.473e-05 0)
(0.06791 3.18266e-05 0)
(0.0678591 2.869e-05 0)
(0.067811 2.53765e-05 0)
(0.0677672 2.19308e-05 0)
(0.0677285 1.8386e-05 0)
(0.0676961 1.47662e-05 0)
(0.0676708 1.10837e-05 0)
(0.0676535 7.33541e-06 0)
(0.067645 3.44794e-06 0)
(0.0676464 -7.64389e-07 0)
(0.0676578 -5.13948e-06 0)
(0.0676801 -9.42998e-06 0)
(0.0677141 -1.3709e-05 0)
(0.0677611 -1.80566e-05 0)
(0.067822 -2.25491e-05 0)
(0.0678982 -2.72695e-05 0)
(0.0679913 -3.23115e-05 0)
(0.0681031 -3.77945e-05 0)
(0.068236 -4.38664e-05 0)
(0.0683929 -5.07034e-05 0)
(0.0685772 -5.85235e-05 0)
(0.0687934 -6.76064e-05 0)
(0.0690469 -7.83187e-05 0)
(0.0693447 -9.11489e-05 0)
(0.0696952 -0.000106769 0)
(0.07011 -0.00012614 0)
(0.0706032 -0.000150696 0)
(0.0711965 -0.000182756 0)
(0.0719129 -0.000226249 0)
(0.0728097 -0.000289178 0)
(0.073903 -0.000388095 0)
(0.075457 -0.000567118 0)
(0.0771412 -0.000949702 0)
(0.0807315 -0.00157483 0)
(0.0678917 -0.00168026 0)
(0.0681175 -0.000890706 0)
(0.0692125 -0.0006593 0)
(0.0700716 -0.000480695 0)
(0.0707825 -0.000350049 0)
(0.0713867 -0.000248085 0)
(0.071887 -0.000168797 0)
(0.0722946 -0.000108785 0)
(0.0726219 -6.3994e-05 0)
(0.0728797 -3.09234e-05 0)
(0.0730777 -6.96063e-06 0)
(0.0732252 1.01695e-05 0)
(0.0733362 2.23815e-05 0)
(0.0734161 3.09633e-05 0)
(0.07347 3.67769e-05 0)
(0.0735027 4.04503e-05 0)
(0.073518 4.24478e-05 0)
(0.0735194 4.31221e-05 0)
(0.0735101 4.27453e-05 0)
(0.0734925 4.15306e-05 0)
(0.0734689 3.96471e-05 0)
(0.0734413 3.72302e-05 0)
(0.0734114 3.4388e-05 0)
(0.0733808 3.1208e-05 0)
(0.0733508 2.77593e-05 0)
(0.0733227 2.40973e-05 0)
(0.0732975 2.02634e-05 0)
(0.0732762 1.62885e-05 0)
(0.0732599 1.21885e-05 0)
(0.0732493 7.96112e-06 0)
(0.0732455 3.52471e-06 0)
(0.0732495 -1.275e-06 0)
(0.0732616 -6.27307e-06 0)
(0.0732826 -1.12576e-05 0)
(0.0733138 -1.63031e-05 0)
(0.0733563 -2.14962e-05 0)
(0.0734113 -2.69234e-05 0)
(0.0734805 -3.26819e-05 0)
(0.0735654 -3.88842e-05 0)
(0.073668 -4.56747e-05 0)
(0.0737909 -5.32334e-05 0)
(0.0739371 -6.17757e-05 0)
(0.07411 -7.15692e-05 0)
(0.074314 -8.29565e-05 0)
(0.0745547 -9.63847e-05 0)
(0.0748387 -0.000112448 0)
(0.0751746 -0.000131962 0)
(0.0755732 -0.00015608 0)
(0.0760483 -0.000186527 0)
(0.0766203 -0.000226018 0)
(0.0773107 -0.000279244 0)
(0.0781721 -0.000355109 0)
(0.079217 -0.000472977 0)
(0.0806776 -0.00067704 0)
(0.0822237 -0.00110012 0)
(0.0853683 -0.00173594 0)
(0.0760948 -0.00173449 0)
(0.0755555 -0.00092679 0)
(0.0758961 -0.000696417 0)
(0.0761703 -0.000517486 0)
(0.0764406 -0.000383246 0)
(0.0767177 -0.000277315 0)
(0.076976 -0.000193789 0)
(0.077205 -0.000129675 0)
(0.0774017 -8.11093e-05 0)
(0.0775658 -4.46384e-05 0)
(0.0776987 -1.76434e-05 0)
(0.077802 1.96263e-06 0)
(0.0778828 1.61268e-05 0)
(0.0779437 2.63786e-05 0)
(0.0779874 3.3603e-05 0)
(0.0780164 3.84512e-05 0)
(0.078033 4.14143e-05 0)
(0.0780395 4.28698e-05 0)
(0.0780377 4.3112e-05 0)
(0.0780293 4.23733e-05 0)
(0.0780159 4.08392e-05 0)
(0.077999 3.86591e-05 0)
(0.0779797 3.59528e-05 0)
(0.0779592 3.28179e-05 0)
(0.0779387 2.93321e-05 0)
(0.077919 2.55574e-05 0)
(0.0779013 2.15409e-05 0)
(0.0778862 1.73172e-05 0)
(0.0778748 1.29045e-05 0)
(0.0778679 8.29978e-06 0)
(0.0778664 3.41589e-06 0)
(0.0778713 -1.87487e-06 0)
(0.0778828 -7.40858e-06 0)
(0.0779021 -1.30061e-05 0)
(0.0779303 -1.8745e-05 0)
(0.0779685 -2.47195e-05 0)
(0.0780181 -3.10275e-05 0)
(0.0780807 -3.77808e-05 0)
(0.078158 -4.51105e-05 0)
(0.0782521 -5.31861e-05 0)
(0.0783655 -6.2219e-05 0)
(0.0785011 -7.24638e-05 0)
(0.0786625 -8.42369e-05 0)
(0.0788542 -9.79426e-05 0)
(0.0790813 -0.000114108 0)
(0.0793505 -0.00013343 0)
(0.0796701 -0.000156863 0)
(0.0800505 -0.000185748 0)
(0.080505 -0.000222087 0)
(0.0810527 -0.000268964 0)
(0.0817141 -0.00033179 0)
(0.0825374 -0.000420183 0)
(0.0835322 -0.000556087 0)
(0.0849064 -0.000782363 0)
(0.0863331 -0.00124033 0)
(0.0891391 -0.00188308 0)
(0.0836429 -0.00172885 0)
(0.0826445 -0.000918354 0)
(0.0824029 -0.000689221 0)
(0.0821496 -0.000518293 0)
(0.0819768 -0.000388583 0)
(0.0818985 -0.000285369 0)
(0.0818773 -0.000202779 0)
(0.0818877 -0.000138493 0)
(0.081914 -8.9158e-05 0)
(0.0819459 -5.16145e-05 0)
(0.0819768 -2.33988e-05 0)
(0.0820029 -2.62515e-06 0)
(0.0820229 1.25582e-05 0)
(0.0820365 2.37331e-05 0)
(0.0820437 3.1779e-05 0)
(0.0820451 3.73407e-05 0)
(0.0820413 4.09119e-05 0)
(0.0820329 4.28756e-05 0)
(0.0820206 4.35328e-05 0)
(0.0820053 4.31223e-05 0)
(0.0819876 4.18358e-05 0)
(0.0819683 3.98282e-05 0)
(0.0819481 3.72238e-05 0)
(0.0819277 3.41246e-05 0)
(0.0819078 3.06113e-05 0)
(0.081889 2.6749e-05 0)
(0.0818721 2.25862e-05 0)
(0.0818577 1.81587e-05 0)
(0.0818466 1.34841e-05 0)
(0.0818394 8.55727e-06 0)
(0.0818369 3.28791e-06 0)
(0.08184 -2.43381e-06 0)
(0.081849 -8.44972e-06 0)
(0.081865 -1.46073e-05 0)
(0.0818891 -2.09888e-05 0)
(0.0819224 -2.76972e-05 0)
(0.0819662 -3.48427e-05 0)
(0.0820221 -4.25529e-05 0)
(0.0820919 -5.09781e-05 0)
(0.0821775 -6.03127e-05 0)
(0.0822815 -7.08002e-05 0)
(0.0824068 -8.27339e-05 0)
(0.0825569 -9.64785e-05 0)
(0.0827361 -0.0001125 0)
(0.0829497 -0.000131403 0)
(0.0832039 -0.000153986 0)
(0.0835068 -0.000181341 0)
(0.0838686 -0.000214987 0)
(0.0843018 -0.000257197 0)
(0.0848248 -0.0003114 0)
(0.0854566 -0.000383689 0)
(0.0862424 -0.000484257 0)
(0.0871891 -0.000637427 0)
(0.0884853 -0.000883792 0)
(0.0898099 -0.00137243 0)
(0.0923482 -0.0020198 0)
(0.0904081 -0.00168237 0)
(0.0892097 -0.000880942 0)
(0.0886185 -0.000646845 0)
(0.0879763 -0.000485553 0)
(0.087421 -0.000364893 0)
(0.0870028 -0.000269555 0)
(0.0866944 -0.000192614 0)
(0.0864678 -0.000132058 0)
(0.0863003 -8.50988e-05 0)
(0.0861746 -4.90044e-05 0)
(0.0860779 -2.1623e-05 0)
(0.0860015 -1.24891e-06 0)
(0.0859372 1.38085e-05 0)
(0.0858811 2.49753e-05 0)
(0.085831 3.30767e-05 0)
(0.0857853 3.87254e-05 0)
(0.0857428 4.23939e-05 0)
(0.0857028 4.44513e-05 0)
(0.0856647 4.51885e-05 0)
(0.0856283 4.48374e-05 0)
(0.0855935 4.35849e-05 0)
(0.0855602 4.1582e-05 0)
(0.0855285 3.89505e-05 0)
(0.0854987 3.57898e-05 0)
(0.0854709 3.21788e-05 0)
(0.0854454 2.81807e-05 0)
(0.0854227 2.38417e-05 0)
(0.0854031 1.91954e-05 0)
(0.0853871 1.42562e-05 0)
(0.0853752 9.01456e-06 0)
(0.085368 3.3801e-06 0)
(0.085366 -2.75005e-06 0)
(0.0853699 -9.22934e-06 0)
(0.0853804 -1.59244e-05 0)
(0.0853985 -2.29238e-05 0)
(0.0854255 -3.03406e-05 0)
(0.0854624 -3.82982e-05 0)
(0.0855108 -4.6941e-05 0)
(0.0855724 -5.64392e-05 0)
(0.0856492 -6.70131e-05 0)
(0.0857436 -7.89384e-05 0)
(0.0858584 -9.25477e-05 0)
(0.0859972 -0.000108254 0)
(0.086164 -0.000126584 0)
(0.086364 -0.00014822 0)
(0.0866033 -0.000174061 0)
(0.0868897 -0.000205333 0)
(0.087233 -0.00024373 0)
(0.0876452 -0.000291787 0)
(0.088144 -0.000353262 0)
(0.0887472 -0.000434897 0)
(0.0894972 -0.000547352 0)
(0.0903988 -0.000717142 0)
(0.0916249 -0.000982001 0)
(0.092862 -0.0014979 0)
(0.0951806 -0.00214842 0)
(0.0963203 -0.00160776 0)
(0.0950903 -0.00082938 0)
(0.0943757 -0.000583234 0)
(0.0935363 -0.000427366 0)
(0.0927207 -0.000315351 0)
(0.0920264 -0.000230052 0)
(0.0914579 -0.000161999 0)
(0.0910002 -0.000108449 0)
(0.0906336 -6.67945e-05 0)
(0.0903388 -3.46475e-05 0)
(0.0900996 -1.01932e-05 0)
(0.0899035 8.1281e-06 0)
(0.0897368 2.17725e-05 0)
(0.0895937 3.18532e-05 0)
(0.0894698 3.91037e-05 0)
(0.0893613 4.4081e-05 0)
(0.0892653 4.72131e-05 0)
(0.0891798 4.88343e-05 0)
(0.0891029 4.92089e-05 0)
(0.0890333 4.85478e-05 0)
(0.08897 4.70215e-05 0)
(0.0889124 4.47681e-05 0)
(0.0888597 4.18983e-05 0)
(0.0888117 3.8503e-05 0)
(0.0887681 3.46533e-05 0)
(0.0887287 3.04058e-05 0)
(0.0886937 2.58004e-05 0)
(0.088663 2.0865e-05 0)
(0.0886369 1.56077e-05 0)
(0.0886156 1.00126e-05 0)
(0.0885995 3.99215e-06 0)
(0.0885889 -2.56098e-06 0)
(0.0885844 -9.51868e-06 0)
(0.0885867 -1.67593e-05 0)
(0.0885966 -2.43797e-05 0)
(0.0886152 -3.25037e-05 0)
(0.0886436 -4.12692e-05 0)
(0.0886831 -5.08382e-05 0)
(0.0887355 -6.14023e-05 0)
(0.0888025 -7.3208e-05 0)
(0.0888866 -8.65644e-05 0)
(0.0889905 -0.000101843 0)
(0.0891175 -0.000119507 0)
(0.0892717 -0.000140143 0)
(0.089458 -0.000164511 0)
(0.0896825 -0.00019361 0)
(0.0899525 -0.000228796 0)
(0.0902776 -0.000271939 0)
(0.0906694 -0.000325828 0)
(0.0911447 -0.000394535 0)
(0.0917205 -0.000485424 0)
(0.0924367 -0.000609541 0)
(0.0932964 -0.000795396 0)
(0.094459 -0.00107754 0)
(0.09562 -0.00161781 0)
(0.097753 -0.0022705 0)
(0.101353 -0.00151351 0)
(0.100178 -0.000774619 0)
(0.099502 -0.000513386 0)
(0.0986615 -0.000356289 0)
(0.0977539 -0.000247947 0)
(0.0968988 -0.000170753 0)
(0.0961391 -0.000112195 0)
(0.0954878 -6.74769e-05 0)
(0.0949392 -3.3316e-05 0)
(0.0944806 -7.22764e-06 0)
(0.0940959 1.25053e-05 0)
(0.0937687 2.72312e-05 0)
(0.0934883 3.80883e-05 0)
(0.0932465 4.59017e-05 0)
(0.0930367 5.1298e-05 0)
(0.0928534 5.47504e-05 0)
(0.0926924 5.6619e-05 0)
(0.09255 5.71843e-05 0)
(0.0924235 5.66674e-05 0)
(0.0923105 5.52447e-05 0)
(0.0922091 5.30588e-05 0)
(0.092118 5.02255e-05 0)
(0.0920358 4.68369e-05 0)
(0.0919617 4.29679e-05 0)
(0.0918949 3.86768e-05 0)
(0.0918348 3.40086e-05 0)
(0.0917812 2.89928e-05 0)
(0.0917337 2.36476e-05 0)
(0.0916922 1.7972e-05 0)
(0.0916569 1.19414e-05 0)
(0.0916277 5.47324e-06 0)
(0.0916047 -1.55226e-06 0)
(0.0915883 -9.03428e-06 0)
(0.0915792 -1.68593e-05 0)
(0.0915782 -2.51316e-05 0)
(0.091586 -3.39873e-05 0)
(0.0916037 -4.35796e-05 0)
(0.0916326 -5.40893e-05 0)
(0.0916741 -6.57301e-05 0)
(0.0917301 -7.87762e-05 0)
(0.0918028 -9.35708e-05 0)
(0.0918948 -0.000110526 0)
(0.0920094 -0.000130154 0)
(0.0921504 -0.000153102 0)
(0.0923227 -0.00018021 0)
(0.0925321 -0.000212574 0)
(0.0927857 -0.000251682 0)
(0.0930928 -0.000299576 0)
(0.0934646 -0.000359295 0)
(0.0939171 -0.000435214 0)
(0.0944667 -0.000535288 0)
(0.095151 -0.000670892 0)
(0.0959716 -0.000872329 0)
(0.0970757 -0.00117081 0)
(0.0981695 -0.00173288 0)
(0.100142 -0.00238711 0)
(0.105516 -0.00140658 0)
(0.10443 -0.000722931 0)
(0.103869 -0.000449286 0)
(0.103169 -0.000286303 0)
(0.102343 -0.000174875 0)
(0.101482 -0.000100106 0)
(0.100648 -4.8147e-05 0)
(0.0998817 -1.15635e-05 0)
(0.0991994 1.46398e-05 0)
(0.0985996 3.36466e-05 0)
(0.0980765 4.74135e-05 0)
(0.0976217 5.722e-05 0)
(0.0972259 6.39714e-05 0)
(0.0968806 6.83521e-05 0)
(0.0965783 7.08737e-05 0)
(0.0963127 7.19095e-05 0)
(0.0960783 7.17372e-05 0)
(0.0958707 7.05692e-05 0)
(0.0956861 6.8571e-05 0)
(0.0955213 6.58733e-05 0)
(0.0953738 6.25809e-05 0)
(0.0952414 5.87786e-05 0)
(0.0951223 5.45325e-05 0)
(0.095015 4.98957e-05 0)
(0.0949183 4.49074e-05 0)
(0.0948313 3.95967e-05 0)
(0.0947532 3.39784e-05 0)
(0.0946834 2.80576e-05 0)
(0.0946216 2.18211e-05 0)
(0.0945674 1.52332e-05 0)
(0.0945209 8.21298e-06 0)
(0.0944817 6.35189e-07 0)
(0.0944497 -7.44165e-06 0)
(0.0944259 -1.59219e-05 0)
(0.0944108 -2.49053e-05 0)
(0.0944051 -3.45428e-05 0)
(0.0944097 -4.50047e-05 0)
(0.0944257 -5.64915e-05 0)
(0.0944545 -6.92401e-05 0)
(0.0944978 -8.35535e-05 0)
(0.0945576 -9.98101e-05 0)
(0.0946365 -0.000118464 0)
(0.0947376 -0.000140076 0)
(0.0948646 -0.000165357 0)
(0.0950222 -0.000195223 0)
(0.095216 -0.000230873 0)
(0.0954529 -0.000273924 0)
(0.095742 -0.000326587 0)
(0.0960939 -0.000392148 0)
(0.0965241 -0.000475278 0)
(0.0970483 -0.000584492 0)
(0.0977019 -0.000731452 0)
(0.0984856 -0.000948037 0)
(0.0995353 -0.00126212 0)
(0.100568 -0.00184366 0)
(0.102398 -0.002499 0)
(0.108854 -0.00129313 0)
(0.107866 -0.00067664 0)
(0.10743 -0.000397266 0)
(0.106924 -0.000228248 0)
(0.106294 -0.000109437 0)
(0.105581 -3.06532e-05 0)
(0.104825 2.07142e-05 0)
(0.10406 5.33994e-05 0)
(0.103323 7.38695e-05 0)
(0.102636 8.65479e-05 0)
(0.102012 9.41121e-05 0)
(0.101452 9.82258e-05 0)
(0.100953 9.99393e-05 0)
(0.10051 9.99427e-05 0)
(0.100116 9.86879e-05 0)
(0.0997664 9.64728e-05 0)
(0.0994552 9.35004e-05 0)
(0.0991775 8.99154e-05 0)
(0.0989293 8.5824e-05 0)
(0.0987069 8.13057e-05 0)
(0.098507 7.6422e-05 0)
(0.0983272 7.12203e-05 0)
(0.0981649 6.57353e-05 0)
(0.0980184 5.99929e-05 0)
(0.0978861 5.40089e-05 0)
(0.0977665 4.77917e-05 0)
(0.0976586 4.13382e-05 0)
(0.0975615 3.46367e-05 0)
(0.0974744 2.7659e-05 0)
(0.0973969 2.03558e-05 0)
(0.0973287 1.26409e-05 0)
(0.0972693 4.39913e-06 0)
(0.0972182 -4.36635e-06 0)
(0.0971763 -1.35993e-05 0)
(0.097144 -2.33807e-05 0)
(0.0971219 -3.38756e-05 0)
(0.0971106 -4.52738e-05 0)
(0.0971113 -5.77964e-05 0)
(0.0971251 -7.17049e-05 0)
(0.0971536 -8.73324e-05 0)
(0.0971988 -0.000105093 0)
(0.097263 -0.000125484 0)
(0.0973492 -0.000149117 0)
(0.0974611 -0.000176766 0)
(0.097603 -0.000209427 0)
(0.0977804 -0.000248396 0)
(0.0980001 -0.000295424 0)
(0.0982707 -0.00035289 0)
(0.0986026 -0.000424323 0)
(0.0990107 -0.000514682 0)
(0.0995099 -0.00063301 0)
(0.100134 -0.000791228 0)
(0.100882 -0.00102256 0)
(0.10188 -0.00135164 0)
(0.102857 -0.00195049 0)
(0.104559 -0.00260671 0)
(0.111442 -0.00117695 0)
(0.110549 -0.000635236 0)
(0.110215 -0.000358148 0)
(0.109885 -0.000186521 0)
(0.109477 -6.08445e-05 0)
(0.108997 2.54112e-05 0)
(0.108433 8.20504e-05 0)
(0.107802 0.000117111 0)
(0.107135 0.00013689 0)
(0.106464 0.000146482 0)
(0.105813 0.000149557 0)
(0.1052 0.000148622 0)
(0.104632 0.000145288 0)
(0.104113 0.000140544 0)
(0.103642 0.000134969 0)
(0.103216 0.000128891 0)
(0.102832 0.000122497 0)
(0.102485 0.000115892 0)
(0.102173 0.000109139 0)
(0.10189 0.000102273 0)
(0.101635 9.5313e-05 0)
(0.101403 8.827e-05 0)
(0.101194 8.11454e-05 0)
(0.101004 7.3935e-05 0)
(0.100831 6.66287e-05 0)
(0.100674 5.92113e-05 0)
(0.100532 5.16589e-05 0)
(0.100403 4.39404e-05 0)
(0.100286 3.60101e-05 0)
(0.100181 2.78028e-05 0)
(0.100088 1.92224e-05 0)
(0.100004 1.01649e-05 0)
(0.0999307 5.92931e-07 0)
(0.0998671 -9.5019e-06 0)
(0.0998143 -2.01957e-05 0)
(0.0997727 -3.16492e-05 0)
(0.0997429 -4.40736e-05 0)
(0.0997256 -5.77133e-05 0)
(0.099722 -7.28553e-05 0)
(0.0997336 -8.98636e-05 0)
(0.0997621 -0.00010919 0)
(0.0998098 -0.000131376 0)
(0.0998795 -0.000157084 0)
(0.0999747 -0.000187154 0)
(0.1001 -0.000222659 0)
(0.10026 -0.000264999 0)
(0.100461 -0.000316054 0)
(0.100713 -0.000378373 0)
(0.101024 -0.000455721 0)
(0.10141 -0.000553344 0)
(0.101884 -0.000680777 0)
(0.102479 -0.000850181 0)
(0.103192 -0.00109588 0)
(0.104141 -0.00143949 0)
(0.105066 -0.00205362 0)
(0.10665 -0.00271059 0)
(0.113364 -0.00106004 0)
(0.112564 -0.000597192 0)
(0.112308 -0.000329815 0)
(0.11211 -0.000159889 0)
(0.111883 -3.08524e-05 0)
(0.111618 6.19617e-05 0)
(0.111285 0.000126072 0)
(0.110876 0.000167702 0)
(0.110397 0.000192014 0)
(0.109864 0.000203643 0)
(0.109299 0.000206425 0)
(0.108724 0.0002034 0)
(0.108158 0.000196824 0)
(0.107615 0.000188253 0)
(0.107103 0.000178684 0)
(0.106627 0.000168705 0)
(0.106187 0.000158644 0)
(0.105782 0.000148666 0)
(0.105412 0.000138848 0)
(0.105073 0.000129215 0)
(0.104764 0.000119764 0)
(0.104481 0.000110481 0)
(0.104223 0.000101338 0)
(0.103987 9.23058e-05 0)
(0.103772 8.33488e-05 0)
(0.103575 7.44284e-05 0)
(0.103395 6.54992e-05 0)
(0.103231 5.65097e-05 0)
(0.103081 4.73952e-05 0)
(0.102946 3.80735e-05 0)
(0.102823 2.84355e-05 0)
(0.102712 1.83773e-05 0)
(0.102613 7.85375e-06 0)
(0.102525 -3.21907e-06 0)
(0.102448 -1.49553e-05 0)
(0.102384 -2.74928e-05 0)
(0.102333 -4.10556e-05 0)
(0.102295 -5.59149e-05 0)
(0.102272 -7.23844e-05 0)
(0.102264 -9.08606e-05 0)
(0.102274 -0.000111834 0)
(0.102303 -0.00013589 0)
(0.102354 -0.000163746 0)
(0.102431 -0.000196305 0)
(0.102538 -0.000234722 0)
(0.102679 -0.000280499 0)
(0.102862 -0.000335648 0)
(0.103093 -0.000402884 0)
(0.103383 -0.000486209 0)
(0.103746 -0.000591146 0)
(0.104195 -0.000727688 0)
(0.10476 -0.000908226 0)
(0.105439 -0.00116793 0)
(0.106339 -0.00152564 0)
(0.107214 -0.00215314 0)
(0.108689 -0.00281086 0)
(0.114716 -0.000947524 0)
(0.114015 -0.000562414 0)
(0.113821 -0.000310055 0)
(0.113716 -0.000144963 0)
(0.113616 -1.59759e-05 0)
(0.113508 8.04079e-05 0)
(0.113367 0.000150083 0)
(0.113172 0.000198263 0)
(0.112916 0.000229191 0)
(0.112596 0.000246574 0)
(0.112216 0.000253583 0)
(0.111788 0.000252951 0)
(0.111327 0.000246983 0)
(0.110848 0.000237534 0)
(0.110368 0.000226006 0)
(0.109896 0.000213393 0)
(0.109442 0.000200356 0)
(0.10901 0.000187303 0)
(0.108605 0.000174464 0)
(0.108226 0.000161954 0)
(0.107874 0.000149812 0)
(0.107548 0.000138037 0)
(0.107246 0.000126602 0)
(0.106968 0.000115466 0)
(0.106711 0.000104578 0)
(0.106474 9.38829e-05 0)
(0.106256 8.33167e-05 0)
(0.106055 7.281e-05 0)
(0.105871 6.22805e-05 0)
(0.105702 5.1629e-05 0)
(0.105548 4.07331e-05 0)
(0.105408 2.94795e-05 0)
(0.10528 1.78219e-05 0)
(0.105166 5.6434e-06 0)
(0.105063 -7.25297e-06 0)
(0.104974 -2.10161e-05 0)
(0.104899 -3.58506e-05 0)
(0.104838 -5.20507e-05 0)
(0.104793 -6.99601e-05 0)
(0.104764 -9.00091e-05 0)
(0.104753 -0.000112729 0)
(0.104761 -0.000138748 0)
(0.104793 -0.00016884 0)
(0.10485 -0.000203975 0)
(0.104936 -0.000245388 0)
(0.105057 -0.000294685 0)
(0.105219 -0.000354007 0)
(0.10543 -0.000426242 0)
(0.105698 -0.000515615 0)
(0.106037 -0.000627929 0)
(0.10646 -0.000773594 0)
(0.106995 -0.000965223 0)
(0.10764 -0.00123856 0)
(0.108491 -0.00161003 0)
(0.109317 -0.00224905 0)
(0.110689 -0.00290762 0)
(0.11564 -0.00084758 0)
(0.115044 -0.000532092 0)
(0.114902 -0.000297199 0)
(0.114861 -0.00013844 0)
(0.114843 -1.16369e-05 0)
(0.114837 8.56229e-05 0)
(0.114822 0.000158025 0)
(0.114781 0.000210356 0)
(0.114702 0.000246488 0)
(0.114578 0.00026964 0)
(0.114402 0.000282429 0)
(0.114173 0.000287026 0)
(0.113894 0.000285275 0)
(0.11357 0.000278754 0)
(0.113212 0.000268802 0)
(0.11283 0.000256526 0)
(0.112435 0.000242809 0)
(0.112037 0.000228327 0)
(0.111645 0.000213565 0)
(0.111264 0.000198851 0)
(0.110898 0.000184387 0)
(0.11055 0.000170281 0)
(0.110222 0.000156574 0)
(0.109913 0.000143265 0)
(0.109623 0.000130322 0)
(0.109353 0.000117693 0)
(0.109102 0.000105312 0)
(0.108868 9.31017e-05 0)
(0.108651 8.09683e-05 0)
(0.10845 6.88006e-05 0)
(0.108264 5.64651e-05 0)
(0.108094 4.38377e-05 0)
(0.107938 3.08587e-05 0)
(0.107796 1.74155e-05 0)
(0.107667 3.25847e-06 0)
(0.107551 -1.18477e-05 0)
(0.10745 -2.8098e-05 0)
(0.107365 -4.57745e-05 0)
(0.107295 -6.52492e-05 0)
(0.107243 -8.69894e-05 0)
(0.107209 -0.000111567 0)
(0.107196 -0.000139658 0)
(0.107206 -0.00017209 0)
(0.107241 -0.000209899 0)
(0.107307 -0.000254407 0)
(0.107406 -0.000307318 0)
(0.107546 -0.000370908 0)
(0.107734 -0.000448232 0)
(0.107979 -0.000543738 0)
(0.108293 -0.0006635 0)
(0.10869 -0.000818303 0)
(0.109194 -0.00102098 0)
(0.109804 -0.00130759 0)
(0.110607 -0.00169248 0)
(0.111384 -0.00234126 0)
(0.112658 -0.00300085 0)
(0.116308 -0.000763956 0)
(0.115807 -0.000506409 0)
(0.115707 -0.000289551 0)
(0.115709 -0.000137664 0)
(0.115741 -1.40933e-05 0)
(0.115797 8.24061e-05 0)
(0.115856 0.000155553 0)
(0.115907 0.00020982 0)
(0.115941 0.000248885 0)
(0.115949 0.000275796 0)
(0.115924 0.000292988 0)
(0.115863 0.000302398 0)
(0.11576 0.000305565 0)
(0.115615 0.000303727 0)
(0.115428 0.000297899 0)
(0.115201 0.000288937 0)
(0.11494 0.000277586 0)
(0.114651 0.0002645 0)
(0.114343 0.000250241 0)
(0.114023 0.000235276 0)
(0.113697 0.000219972 0)
(0.113372 0.000204604 0)
(0.113053 0.00018936 0)
(0.112743 0.000174354 0)
(0.112444 0.000159641 0)
(0.112159 0.000145228 0)
(0.111888 0.000131087 0)
(0.111632 0.000117161 0)
(0.11139 0.000103368 0)
(0.111164 8.95984e-05 0)
(0.110952 7.5718e-05 0)
(0.110755 6.15981e-05 0)
(0.110573 4.71649e-05 0)
(0.110405 3.23042e-05 0)
(0.11025 1.67733e-05 0)
(0.11011 2.57908e-07 0)
(0.109984 -1.75144e-05 0)
(0.109873 -3.68009e-05 0)
(0.109779 -5.79679e-05 0)
(0.109703 -8.15198e-05 0)
(0.109646 -0.000108072 0)
(0.10961 -0.000138348 0)
(0.109597 -0.00017323 0)
(0.109611 -0.000213821 0)
(0.109654 -0.000261527 0)
(0.109731 -0.000318156 0)
(0.109848 -0.000386116 0)
(0.110013 -0.000468627 0)
(0.110233 -0.000570354 0)
(0.110522 -0.000697637 0)
(0.11089 -0.000861588 0)
(0.111363 -0.00107527 0)
(0.111937 -0.00137475 0)
(0.112691 -0.00177274 0)
(0.11342 -0.00242956 0)
(0.114597 -0.00309047 0)
(0.116851 -0.000694877 0)
(0.116427 -0.0004845 0)
(0.116355 -0.000285548 0)
(0.116385 -0.000140761 0)
(0.116449 -2.0908e-05 0)
(0.11654 7.39738e-05 0)
(0.116643 0.000146796 0)
(0.116745 0.000201693 0)
(0.116842 0.000242147 0)
(0.116926 0.000271085 0)
(0.116993 0.000290871 0)
(0.117038 0.000303383 0)
(0.117057 0.000310087 0)
(0.117047 0.000312114 0)
(0.117005 0.000310327 0)
(0.11693 0.000305394 0)
(0.116821 0.000297848 0)
(0.116678 0.000288146 0)
(0.116503 0.000276693 0)
(0.116301 0.000263863 0)
(0.116076 0.000249997 0)
(0.115833 0.000235402 0)
(0.115577 0.000220341 0)
(0.115314 0.000205029 0)
(0.115048 0.000189625 0)
(0.114783 0.000174237 0)
(0.114522 0.000158921 0)
(0.114268 0.000143691 0)
(0.114022 0.000128512 0)
(0.113787 0.000113313 0)
(0.113563 9.7985e-05 0)
(0.11335 8.2413e-05 0)
(0.11315 6.65229e-05 0)
(0.112963 5.01991e-05 0)
(0.112788 3.32176e-05 0)
(0.112628 1.52627e-05 0)
(0.11248 -4.04572e-06 0)
(0.112348 -2.50175e-05 0)
(0.112232 -4.79773e-05 0)
(0.112134 -7.34406e-05 0)
(0.112055 -0.000102068 0)
(0.111996 -0.00013463 0)
(0.111961 -0.000172063 0)
(0.111952 -0.000215538 0)
(0.111973 -0.000266544 0)
(0.112028 -0.000326992 0)
(0.112122 -0.00039942 0)
(0.112263 -0.000487212 0)
(0.112459 -0.000595242 0)
(0.112721 -0.000730108 0)
(0.113061 -0.000903205 0)
(0.113501 -0.00112782 0)
(0.114038 -0.00143976 0)
(0.114743 -0.00185049 0)
(0.115421 -0.00251369 0)
(0.116504 -0.00317625 0)
(0.117346 -0.000637136 0)
(0.11698 -0.000465451 0)
(0.116926 -0.000283966 0)
(0.116973 -0.000146455 0)
(0.117056 -3.05994e-05 0)
(0.117168 6.21987e-05 0)
(0.117295 0.000134136 0)