/*--------------------------------*- C++ -*----------------------------------*\
  =========                 |
  \\      /  F ield         | OpenFOAM: The Open Source CFD Toolbox
   \\    /   O peration     | Website:  https://openfoam.org
    \\  /    A nd           | Version:  6
     \\/     M anipulation  |
\*---------------------------------------------------------------------------*/
FoamFile
{
    version     2.0;
    format      ascii;
    class       volScalarField;
    location    "./ITHACAoutput/POD/1";
    object      P_rec;
}
// * * * * * * * * * * * * * * * * * * * * * * * * * * * * * * * * * * * * * //

dimensions      [0 2 -2 0 0 0 0];

internalField   nonuniform List<scalar> 
9000
(
114.018
61.2499
47.8362
42.0368
39.1204
37.4325
36.2188
35.3186
34.7708
34.2507
33.7732
33.3982
32.9412
32.5129
32.0076
31.5078
31.0314
30.6904
30.3973
30.0041
29.3673
28.8575
28.4967
27.9972
27.6472
27.1723
26.5044
26.2779
25.6972
25.1346
24.8692
24.2731
23.7755
23.4033
22.93
22.537
22.0522
21.6627
21.3449
20.9988
20.3193
19.963
19.6124
19.3425
18.872
18.4281
18.3382
18.3705
17.9565
17.1686
83.2005
58.3069
48.479
43.0001
40.0165
38.0804
36.7769
35.7763
35.0093
34.4596
33.9404
33.3484
32.8977
32.4231
32.1287
31.6249
31.2054
30.6131
30.2234
29.7437
29.4826
28.7629
28.4121
27.9947
27.5317
27
26.5525
26.2953
25.6767
25.2755
24.7425
24.3294
23.8143
23.4473
23.0067
22.6098
22.0706
21.8005
21.1322
20.9104
20.281
19.9825
19.5678
19.0423
19.0104
18.4834
18.2807
17.5965
17.3271
15.9206
66.708
54.7398
48.2927
43.447
40.6592
38.5258
36.9839
36.1291
35.2246
34.6905
34.0921
33.26
33.061
32.4672
32.0176
31.5687
31.142
30.8504
30.198
29.8234
29.3332
28.8956
28.4705
28.0196
27.4379
27.2086
26.5444
26.1181
25.662
25.1305
24.8969
24.3151
23.9872
23.5597
22.9714
22.6113
22.1176
21.6693
21.2436
20.7416
20.3261
19.9715
19.4675
19.074
18.6678
18.2308
17.7475
17.0906
16.5475
15.1157
57.8865
51.44
47.2129
43.3726
40.7204
38.719
37.4413
36.5195
35.5101
34.8195
34.1765
33.6471
33.0566
32.4813
32.2256
31.7239
31.1228
30.7751
30.2459
29.6813
29.3569
28.9088
28.5049
27.9156
27.4928
27.1293
26.5787
26.2999
25.7091
25.4432
24.9162
24.4255
23.9539
23.487
22.9667
22.5979
22.1146
21.7228
21.2917
20.8187
20.276
19.9323
19.5519
19.0689
18.653
18.2309
17.5956
17.1138
16.1691
14.9324
51.7581
48.6096
45.5581
42.8195
40.4462
38.8554
37.7027
36.4995
35.581
35.0212
34.079
33.5537
33.157
32.5276
32.0993
31.7379
31.0887
30.8519
30.3055
29.9808
29.3956
29.017
28.4961
27.9614
27.3887
27.2116
26.6657
26.1562
25.9488
25.2578
24.7676
24.3604
23.8575
23.6047
23.1533
22.4104
22.0968
21.6565
21.2175
20.7512
20.3003
19.8879
19.3564
18.8245
18.3627
17.9628
17.4343
16.8506
16.0357
14.9976
47.6351
45.899
44.0515
41.9484
40.2638
38.9119
37.4957
36.4996
35.6687
34.8387
34.4165
33.8585
33.0998
32.7106
32.3368
31.7123
31.2976
30.8632
30.1846
29.7421
29.3398
28.9596
28.417
28.0039
27.5899
27.2343
26.6519
26.1842
25.8174
25.3015
24.7664
24.2771
23.9956
23.6681
22.8763
22.4923
22.2304
21.5231
21.3749
20.6082
20.3327
19.7696
19.3759
18.8661
18.5607
17.9438
17.3479
16.7635
15.8258
14.8763
44.5481
43.7485
42.7372
41.3975
40.0027
38.6015
37.3329
36.562
35.675
35.0063
34.2831
33.5948
33.2022
32.8327
32.0825
31.763
31.3048
30.6504
30.1065
29.8444
29.2821
28.9734
28.2893
27.9927
27.5336
26.9984
26.6368
26.0055
25.7213
25.3163
24.729
24.4357
23.7851
23.412
22.8941
22.4619
21.9706
21.534
21.1006
20.7303
20.2141
19.7857
19.3711
18.9369
18.3937
17.834
17.2361
16.4357
15.7647
14.9997
42.4246
42.0712
41.4287
40.3713
39.4184
38.2022
37.2345
36.2923
35.4686
34.9687
34.3137
33.7927
33.2335
32.5515
32.2726
31.7408
31.4142
30.6794
29.9999
29.8557
29.237
28.9337
28.6319
27.9312
27.4625
27.0194
26.6182
26.2679
25.713
25.1984
24.7244
24.3688
23.7682
23.4421
22.9465
22.6248
22.1074
21.6121
21.177
20.7306
20.2014
19.6819
19.2355
18.7236
18.2322
17.7919
17.3679
16.539
15.8771
14.9959
40.6723
40.6655
40.3207
39.6635
38.6252
37.844
37.0929
36.4665
35.6963
35.0076
34.3582
33.7629
33.1743
32.7372
32.2855
31.7315
31.2669
30.7831
30.3027
29.7338
29.4709
29.0057
28.5454
27.9077
27.5579
26.8896
26.373
26.0901
25.7282
25.2747
24.8237
24.1455
23.7197
23.2968
23.0689
22.4144
22.0545
21.5955
21.1901
20.5755
20.2375
19.7387
19.2185
18.7915
18.1091
17.8003
17.1105
16.5677
15.9612
15.1111
39.1521
39.435
39.5473
39.0355
38.3433
37.629
36.747
36.0519
35.5739
35.0185
34.2847
33.7858
33.0394
32.888
32.1705
31.8288
31.4376
30.762
30.3275
29.7657
29.3902
28.891
28.3245
28.0545
27.5074
27.2844
26.7775
26.1005
25.8107
25.3334
24.8746
24.3013
23.9378
23.4693
22.8735
22.5232
22.1031
21.7969
21.0537
20.5539
20.2081
19.686
19.1273
18.7457
18.2636
17.7575
17.0596
16.5357
15.8378
15.4388
38.1802
38.6981
38.6323
38.4813
37.6429
37.2673
36.6667
36.0702
35.4123
34.8831
34.3963
33.784
33.1504
32.6923
32.0366
31.8378
31.2577
30.843
30.3935
29.7502
29.3097
28.8746
28.4238
28.1598
27.5911
27.1412
26.5719
26.3966
25.5735
25.2348
24.8693
24.432
23.8513
23.3439
22.8778
22.5065
21.9723
21.6365
21.2054
20.4848
20.2956
19.548
19.2491
18.6834
18.2071
17.7445
17.2668
16.5385
15.9531
15.3767
37.4103
37.9304
38.0749
37.7429
37.5427
36.9319
36.2954
35.8271
35.2555
34.6621
34.2349
33.7013
33.257
32.7759
32.2903
31.6528
31.3256
30.7757
30.3962
29.8804
29.3287
28.8775
28.4832
28.0222
27.5512
27.1904
26.5968
25.9665
25.8147
25.3157
24.8725
24.4797
23.7969
23.3617
22.8575
22.3536
21.9188
21.6105
21.049
20.5205
20.1567
19.7312
19.1525
18.7932
18.1642
17.6717
17.107
16.606
16.0215
15.4553
36.6956
37.1571
37.5144
37.2246
36.949
36.7115
36.1933
35.7202
35.0809
34.7916
34.24
33.6289
33.1251
32.7269
32.184
31.6432
31.4047
30.7088
30.3029
29.9541
29.3739
28.8061
28.4153
28.1046
27.6216
27.118
26.489
26.2648
25.6892
25.0714
24.848
24.2321
23.8907
23.3816
22.9013
22.4119
22.0999
21.6202
21.0292
20.7204
20.2089
19.7413
19.2934
18.7595
18.2273
17.6396
17.183
16.5672
16.1149
15.5134
36.2446
36.8311
36.9031
37.1691
36.8111
36.4254
36.0249
35.3879
35.1244
34.6195
34.2343
33.6855
33.1869
32.7609
32.2947
31.7553
31.2577
30.8657
30.358
29.8866
29.4122
28.7819
28.5741
28.1404
27.5935
27.0255
26.7782
26.0068
25.7033
25.3808
24.8254
24.4566
23.9291
23.3959
22.8973
22.58
22.1311
21.4655
21.052
20.6447
20.1662
19.7544
19.1832
18.8846
18.2751
17.8471
17.1923
16.8159
16.1398
15.7816
35.861
36.2309
36.6274
36.6702
36.4999
36.0349
36.1016
35.4897
35.027
34.6932
34.2461
33.6817
33.0197
32.7586
32.368
31.6515
31.344
30.7121
30.3909
29.8485
29.5309
28.9076
28.5242
28.014
27.4428
27.1353
26.4071
26.0896
25.63
25.2437
24.8514
24.2628
23.8494
23.3737
23.0025
22.5373
22.0621
21.4933
21.0373
20.5187
20.0252
19.6697
19.0986
18.6412
18.2716
17.816
17.2031
16.7351
16.2022
15.6879
35.5159
36.0525
36.259
36.2695
36.2501
36.125
35.727
35.3369
34.9622
34.6633
34.0908
33.5473
33.0947
32.8355
32.2736
31.7889
31.3815
30.6963
30.2868
29.9893
29.3072
28.995
28.4931
27.939
27.4299
26.9999
26.6456
26.2277
25.6885
25.3343
24.8852
24.3119
23.7789
23.3537
22.9334
22.2552
22.0579
21.3823
21.1643
20.6508
20.1967
19.5379
19.15
18.8158
18.0811
17.6662
17.28
16.825
16.2241
15.8683
35.3721
35.5834
35.9986
36.051
36.1908
36.0069
35.6499
35.3794
34.975
34.5423
34.0407
33.6285
33.061
32.5261
32.0418
31.6749
31.2801
30.842
30.3896
29.975
29.4988
28.9516
28.4634
28.003
27.6921
26.9824
26.6775
26.2263
25.7014
25.2385
24.787
24.3902
23.8456
23.4513
22.8666
22.5696
21.9156
21.5266
20.9272
20.6192
20.2695
19.6791
19.2082
18.668
18.151
17.824
17.3383
16.6825
16.1496
15.8395
35.087
35.6219
35.8765
35.9584
35.9075
35.714
35.5539
35.169
35.0597
34.6812
34.0276
33.6177
33.1992
32.8941
32.0484
31.5684
31.1253
30.8073
30.3633
29.946
29.349
29.0312
28.4228
27.8595
27.6362
27.2076
26.7081
26.1644
25.5877
25.1641
24.8465
24.2173
23.7795
23.5573
22.7137
22.4684
22.049
21.582
21.0325
20.5228
20.0778
19.6789
19.1901
18.6688
18.1578
17.8177
17.2962
16.8573
16.5239
15.9466
34.8688
35.4991
35.8098
35.9735
35.7761
35.69
35.361
35.1117
34.8203
34.4873
34.0459
33.7496
33.1591
32.658
32.3194
31.7526
31.2883
30.8719
30.3314
29.9024
29.3695
29.062
28.5196
27.8883
27.5673
27.1478
26.5827
26.0553
25.8089
25.1271
24.8333
24.2589
23.8573
23.3919
23.1029
22.4848
22.0547
21.6797
21.0694
20.3789
20.2595
19.6811
19.2948
18.8028
18.2889
17.8807
17.4941
16.8374
16.3498
15.9487
34.9461
35.3153
35.7455
35.8251
35.9132
35.6338
35.5674
35.38
34.9656
34.4933
34.0828
33.571
33.1643
32.5894
32.2411
31.7429
31.2644
30.6812
30.4014
29.8851
29.2783
29.0805
28.4524
27.7137
27.6592
27.0372
26.7628
26.2333
25.6426
25.2033
24.7284
24.3472
23.8523
23.4043
23.027
22.5136
21.8171
21.5864
21.1029
20.6196
20.3031
19.6568
19.2957
18.6628
18.1241
17.8286
17.2714
16.9081
16.2654
16.0762
34.8152
35.4271
35.8505
35.6781
35.8644
35.5637
35.433
35.0757
34.7951
34.4361
34.0355
33.6728
33.2821
32.6892
32.2769
31.7334
31.3268
30.853
30.4458
29.8955
29.3103
28.9593
28.397
28.0967
27.6335
27.0886
26.6357
26.1852
25.6308
25.246
24.7573
24.2739
23.7932
23.406
23.0754
22.4754
21.9812
21.6174
20.9862
20.7171
20.3181
19.4625
19.1305
18.6971
18.2288
17.8316
17.4178
16.8518
16.4556
16.1236
34.7836
35.3961
35.6995
35.9011
36.0449
35.7215
35.7019
35.2962
34.6914
34.4871
34.1463
33.6218
33.1602
32.5862
32.1783
31.9568
31.1557
30.7511
30.34
29.8523
29.4434
29.0295
28.5018
28.1635
27.5838
26.9486
26.6909
26.0719
25.5463
25.2912
24.6699
24.2436
23.9785
23.2667
22.9648
22.3743
21.8454
21.4789
21.0848
20.5832
19.9927
19.572
19.2065
18.6365
18.1427
17.8403
17.5816
16.899
16.3937
16.2248
35.0724
35.6927
35.8115
35.8968
36.0071
35.8208
35.765
35.284
34.7799
34.5501
34.0877
33.5741
33.1815
32.8402
32.2956
31.626
31.1815
30.827
30.4325
29.8557
29.3582
28.9109
28.4598
28.0242
27.4268
27.1373
26.5293
26.3392
25.754
25.0384
24.7515
24.4069
23.8393
23.3006
22.8565
22.3336
21.8079
21.4946
21.099
20.5517
20.1835
19.8133
19.0449
18.8776
18.3899
17.75
17.3616
16.9474
16.5552
15.9791
35.2157
35.6579
35.9974
36.14
36.189
36.149
35.8325
35.3758
34.8278
34.6131
34.2185
33.7104
33.2065
32.7206
32.1645
31.6983
31.366
30.8193
30.329
29.9083
29.3232
28.9348
28.4069
28.043
27.397
27.175
26.5292
26.14
25.8568
25.2753
24.7489
24.3676
23.7421
23.3395
22.9934
22.3205
21.8982
21.566
21.0472
20.5175
20.0956
19.726
19.1445
18.8226
18.3689
17.7531
17.3554
16.9622
16.5547
16.0223
35.6433
36.0263
36.2967
36.2755
36.341
36.1931
35.8149
35.5352
34.8631
34.6969
34.1213
33.7122
33.2769
32.691
32.3612
31.8126
31.373
30.8862
30.2343
30.089
29.5034
28.9676
28.3845
28.0046
27.5508
27.0599
26.5535
26.0653
25.6262
25.1111
24.7505
24.208
23.8809
23.2861
22.8852
22.4315
21.9824
21.5529
21.0249
20.5556
20.0016
19.6465
19.2007
18.6352
18.3291
17.761
17.5249
16.9321
16.572
16.004
35.8866
36.2359
36.6379
36.5746
36.4674
36.2836
35.9756
35.5759
35.1268
34.5784
34.0106
33.7074
33.0622
32.7392
32.3291
31.7051
31.1332
30.7105
30.3441
29.762
29.3917
28.9705
28.3686
27.9616
27.6033
27.0118
26.6961
26.0575
25.6648
25.0691
24.7603
24.2927
24.041
23.2488
22.8536
22.4473
21.8965
21.5947
21.0754
20.646
20.1773
19.78
19.2065
18.6657
18.3243
17.8301
17.4461
16.8794
16.5516
16.1404
36.4845
36.584
37.0714
36.9956
36.5895
36.5164
36.0288
35.625
35.1891
34.7312
34.2974
33.6761
33.1869
32.8078
32.2615
31.6995
31.529
30.8064
30.3758
29.7957
29.4688
28.8803
28.5657
28.0722
27.7089
27.0659
26.4754
26.1792
25.7919
25.1683
24.6511
24.1886
23.9947
23.4277
22.9132
22.4498
22.0494
21.5075
21.0647
20.7498
19.9649
19.6585
19.2543
18.7094
18.3721
17.8908
17.3412
16.8677
16.6092
16.0904
36.942
37.1773
37.5607
37.4497
37.0438
36.6862
36.0674
35.8029
35.4553
34.6515
34.1942
33.6758
33.278
32.7171
32.068
31.8593
31.2364
30.7416
30.4914
29.7477
29.4846
28.9938
28.4087
28.0776
27.4909
27.2351
26.6694
26.1294
25.7505
25.1348
24.6324
24.2724
23.7195
23.3841
22.8728
22.3811
21.9424
21.4927
21.0209
20.5625
20.2021
19.757
19.1729
18.8458
18.2331
17.8713
17.3934
16.9911
16.4812
16.1805
37.3966
37.9343
38.1918
37.8
37.4645
37.1636
36.511
35.8782
35.2329
34.819
34.3348
33.6029
33.234
32.744
32.2654
31.8431
31.1531
30.8776
30.3988
29.901
29.3844
28.868
28.4393
27.9746
27.6117
27.016
26.6023
26.0886
25.6366
25.2181
24.8671
24.2652
23.9679
23.302
22.9075
22.4193
22.0736
21.5667
20.9995
20.4778
20.0695
19.7009
19.1838
18.7877
18.2718
17.8736
17.3213
17.0097
16.6749
16.0471
38.2385
38.6087
38.7887
38.265
37.9715
37.3343
36.7403
36.0066
35.4498
34.8108
34.2151
33.8929
33.283
32.6317
32.123
31.7309
31.2518
30.8504
30.2806
29.8839
29.2916
28.9721
28.3852
28.0226
27.4452
26.9978
26.5533
26.2603
25.5298
25.3086
24.7846
24.1747
23.8069
23.3924
22.9355
22.5311
22.0129
21.497
20.9029
20.5122
20.2308
19.5836
19.0448
18.7707
18.3625
17.7962
17.2623
17.0196
16.5392
16.1285
39.2888
39.6495
39.5216
39.0344
38.2742
37.7682
36.84
36.1852
35.4525
35.0154
34.2916
33.7425
33.2337
32.629
32.2729
31.693
31.1697
30.8811
30.2164
29.7984
29.4401
28.9262
28.6291
27.9614
27.5524
27.0416
26.5699
26.2229
25.6878
25.0911
24.6745
24.2825
23.6867
23.3682
23.0193
22.589
21.8613
21.3289
20.8624
20.6706
20.1794
19.6176
19.1239
18.5858
18.3265
18.061
17.5343
16.9318
16.513
16.0218
40.719
40.6872
40.5916
39.7666
38.6658
37.9244
37.0546
36.2365
35.5826
34.9412
34.198
33.7109
33.234
32.7144
32.1199
31.7246
31.3289
30.648
30.3058
30.0264
29.4216
29.0023
28.4359
27.977
27.5014
27.1011
26.6412
26.1684
25.6959
25.2174
24.9006
24.2023
23.8324
23.3521
22.789
22.4126
21.9353
21.5277
21.095
20.4827
20.1548
19.7197
19.1272
18.6562
18.2801
17.9404
17.3458
16.9204
16.5848
16.2001
42.2775
42.0125
41.4971
40.5589
39.3101
38.3601
37.3063
36.451
35.4985
34.8404
34.3401
33.8449
33.2145
32.6523
32.1695
31.7318
31.2554
30.8085
30.2408
29.7255
29.5572
28.9293
28.4371
28.0666
27.5155
27.1171
26.5488
26.0111
25.7834
25.0063
24.8409
24.3392
23.7259
23.4518
22.9482
22.3751
22.121
21.5042
20.9596
20.6473
20.0344
19.5918
19.1885
18.7514
18.308
17.9111
17.4391
16.8773
16.6393
15.9378
44.5832
43.9767
42.6468
41.314
39.8782
38.6236
37.4497
36.5574
35.5113
35.0315
34.3142
33.844
33.2758
32.6812
32.4052
31.7339
31.2478
30.8811
30.2691
29.8536
29.4453
28.8048
28.3202
28.0946
27.4467
27.0704
26.7221
26.1736
25.9023
25.0022
24.6644
24.2171
23.922
23.2306
22.87
22.4732
21.9695
21.4984
21.0444
20.4475
20.1326
19.4822
19.061
18.7819
18.317
17.9191
17.3151
16.8712
16.4753
15.9754
47.4639
45.9226
44.1889
42.1172
40.3536
38.5716
37.711
36.4859
35.4449
34.8584
34.3585
33.6568
33.1099
32.5944
32.0944
31.6701
31.081
30.7801
30.2705
29.8549
29.2896
28.8431
28.3463
28.078
27.5034
26.9983
26.5418
26.0498
25.6803
25.3372
24.7621
24.2656
23.9232
23.249
22.8281
22.3364
22.0979
21.5095
20.9292
20.3848
20.0464
19.7487
19.0114
18.6646
18.1978
17.8057
17.1444
16.9423
16.339
16.0101
51.8387
48.3927
45.5789
42.9533
40.5515
38.9202
37.53
36.4332
35.6273
34.9873
34.1056
33.7503
33.046
32.7355
32.1808
31.5838
31.0984
30.5301
30.4377
29.7884
29.4711
28.9618
28.522
28.0565
27.3384
27.0769
26.7301
26.1639
25.6067
25.1446
24.8811
24.1029
23.7311
23.1541
22.9614
22.3685
22.0902
21.5108
21.0239
20.4421
20.0805
19.6189
19.1307
18.7448
18.2267
17.7419
17.2821
16.7054
16.3638
16.0472
57.8493
51.503
47.2524
43.4533
40.7431
38.7694
37.5028
36.3446
35.5886
34.7454
34.2473
33.4507
33.2212
32.5797
32.0475
31.7953
31.166
30.599
30.3976
29.8158
29.5214
28.8328
28.4385
28.0936
27.4666
27.2072
26.6043
26.0767
25.7583
25.3793
24.6903
24.4302
23.842
23.2358
22.7241
22.3691
21.9132
21.5864
20.9447
20.5572
20.0239
19.4959
19.2749
18.4995
18.1268
17.812
17.3004
16.7089
16.3424
15.9784
66.7357
54.801
48.1865
43.7281
40.5745
38.503
37.1192
35.9294
35.3383
34.5286
33.9193
33.5291
32.9349
32.4629
32.0575
31.7528
31.2641
30.8406
30.1655
29.7587
29.3043
28.9201
28.552
27.9891
27.4173
27.0925
26.5759
26.0966
25.6943
25.1486
24.7563
24.187
23.627
23.3743
22.9313
22.4716
21.7645
21.5098
20.9986
20.5303
20.0417
19.4304
19.0937
18.6849
18.0694
17.7636
17.1958
16.7273
16.2549
16.012
83.1483
58.1953
48.4494
43.2092
39.8773
38.1168
36.5781
35.945
35.0571
34.5579
33.8566
33.5316
32.8897
32.294
31.8126
31.5209
31.1196
30.6375
30.3295
29.6721
29.412
28.9445
28.3616
27.9344
27.3967
26.9564
26.5968
26.1559
25.6572
25.2478
24.7413
24.3431
23.9605
23.2547
22.8416
22.4262
21.9072
21.4454
20.8274
20.527
19.8455
19.4027
18.9414
18.5765
17.9684
17.7445
17.1933
16.9434
16.3387
15.7891
114.67
61.3599
47.6705
42.0719
39.1713
37.4158
35.9634
35.2839
34.8329
34.0877
33.7922
33.307
32.9218
32.384
32.0436
31.394
30.9671
30.6274
30.0865
29.9229
29.3082
28.898
28.4326
28.0302
27.428
27.1447
26.6699
26.0484
25.7522
25.0846
24.7492
24.3071
23.7769
23.3703
22.853
22.4372
21.7206
21.5192
20.947
20.5105
20.0028
19.4604
19.1844
18.5481
18.1372
17.5363
17.1709
16.7004
16.1972
15.6842
7.96643
9.76749
9.9131
10.1877
10.5439
10.5355
10.7738
10.763
10.7953
10.654
10.819
10.7793
10.5798
10.478
10.5054
10.4808
10.2416
10.1165
10.1157
9.95219
9.89464
9.8901
9.71455
9.56095
9.40407
9.34297
9.22362
9.07562
8.94592
8.83191
8.69265
8.56498
8.4499
8.32796
8.21001
8.08719
7.9447
7.81494
7.70424
7.56393
7.45127
7.30448
7.18439
7.07195
6.94676
6.82553
6.68768
6.57278
6.45741
6.31945
6.18219
6.06038
5.93812
5.80129
5.69895
5.54737
5.41649
5.31401
5.19837
5.06102
4.93517
4.8016
4.69239
4.56403
4.43775
4.29915
4.18173
4.06644
3.93629
3.82
3.69375
3.56281
3.43796
3.31303
3.18274
3.06266
2.9412
2.83171
2.68157
2.54915
2.43151
2.30177
2.1881
2.0563
1.92853
1.80001
1.67726
1.55513
1.44145
1.3067
1.17172
1.05617
0.922965
0.811399
0.686685
0.561386
0.43697
0.312125
0.187879
0.0625062
10.3169
10.8304
10.5357
10.7686
10.6866
10.9303
10.841
10.7859
10.8381
10.9132
10.801
10.7042
10.6089
10.5825
10.5909
10.2398
10.3839
10.3068
9.95534
9.98863
9.94384
9.77317
9.81195
9.71938
9.34172
9.27317
9.201
9.08667
8.96137
8.82494
8.6986
8.57119
8.44595
8.33342
8.19537
8.0758
7.93996
7.82292
7.70327
7.56863
7.43944
7.31736
7.19422
7.06292
6.93978
6.81237
6.69543
6.56368
6.43981
6.31777
6.18955
6.07018
5.95336
5.82111
5.67815
5.55821
5.43962
5.30098
5.19806
5.05714
4.94136
4.80929
4.68645
4.57483
4.43243
4.29781
4.19223
4.05499
3.93627
3.79796
3.69261
3.57475
3.42718
3.30756
3.16931
3.06543
2.92643
2.80264
2.69742
2.56988
2.4346
2.30377
2.18521
2.05747
1.92855
1.8098
1.67165
1.56083
1.43574
1.31113
1.19792
1.06899
0.946465
0.810666
0.687461
0.562407
0.439009
0.313544
0.18793
0.0625345
11.6364
11.4345
11.0617
10.9789
11.1629
11.0753
11.1542
10.9547
10.8369
11.0617
10.6847
10.7697
10.6454
10.6663
10.6105
10.4351
10.3368
10.2871
10.0564
9.90036
9.93682
9.73942
9.67742
9.62215
9.43466
9.27366
9.17401
9.06552
8.93428
8.7972
8.70545
8.57026
8.45031
8.33117
8.20764
8.07474
7.9301
7.82017
7.69653
7.56946
7.43795
7.30274
7.19349
7.066
6.94513
6.81203
6.69249
6.55279
6.43551
6.31471
6.17923
6.06824
5.94882
5.82093
5.66089
5.55972
5.42066
5.3049
5.18344
5.06439
4.93626
4.81443
4.69003
4.55928
4.43492
4.31438
4.1867
4.04816
3.93626
3.81051
3.68926
3.52391
3.43218
3.30915
3.18492
3.07644
2.91938
2.80522
2.68373
2.56726
2.43405
2.30353
2.18636
2.0738
1.93757
1.8157
1.67045
1.57519
1.42944
1.31114
1.19078
1.0603
0.923206
0.812269
0.685484
0.562323
0.437023
0.313004
0.188706
0.0625642
12.4074
12.1474
11.5171
11.4182
11.3554
11.1794
11.2313
11.1293
11.1737
10.8757
10.8756
10.9213
10.7643
10.8534
10.6159
10.5276
10.369
10.2921
9.95912
10.0083
9.82439
9.71624
9.59229
9.61939
9.41322
9.34471
9.20132
9.02419
8.92778
8.82572
8.71144
8.56881
8.44752
8.31468
8.18721
8.05567
7.93857
7.83767
7.70139
7.57775
7.45502
7.30774
7.19562
7.0648
6.93704
6.82466
6.68221
6.56808
6.42669
6.29611
6.18098
6.0697
5.95469
5.7963
5.70243
5.54542
5.43975
5.30772
5.189
5.05449
4.94426
4.81425
4.67732
4.57969
4.43712
4.30518
4.17051
4.05421
3.9375
3.8011
3.69559
3.58222
3.44966
3.31245
3.19272
3.05849
2.94532
2.7989
2.67704
2.55306
2.44454
2.31758
2.19429
2.09045
1.94921
1.81464
1.67783
1.55639
1.44021
1.30231
1.17948
1.06871
0.945336
0.811853
0.687962
0.561679
0.438494
0.312456
0.18734
0.0624373
13.02
12.4436
11.9572
11.6677
11.4179
11.4847
11.2985
11.2425
11.271
10.8778
10.927
10.9706
10.8969
10.541
10.5599
10.4032
10.4657
10.2453
10.1349
9.97734
10.0211
9.72562
9.53292
9.63994
9.37861
9.24692
9.23947
9.00161
8.96178
8.82456
8.6932
8.57832
8.43224
8.3353
8.2037
8.05
7.93884
7.80993
7.6882
7.57057
7.43749
7.31478
7.19959
7.06677
6.94447
6.81228
6.67941
6.56948
6.42614
6.31541
6.18721
6.05725
5.94083
5.80518
5.68618
5.55613
5.43951
5.32599
5.19173
5.05934
4.94053
4.8059
4.68638
4.55145
4.43799
4.30655
4.17047
4.05553
3.93748
3.80604
3.68255
3.56175
3.43348
3.31802
3.18801
3.06367
2.93024
2.82216
2.69138
2.56577
2.43523
2.31273
2.19299
2.07457
1.94228
1.80983
1.67812
1.56937
1.44014
1.30889
1.21636
1.07299
0.93347
0.81363
0.687045
0.561824
0.438523
0.313773
0.18927
0.0625264
13.5589
12.9329
12.3244
11.9503
12.0261
11.5279
11.7193
11.2074
11.2747
11.1212
10.9859
10.9861
10.8013
10.4137
10.5011
10.2747
10.3386
10.2603
10.2674
9.96598
9.87317
9.71462
9.62134
9.5719
9.49605
9.25903
9.25055
9.06945
8.93377
8.81585
8.66849
8.55764
8.44004
8.32199
8.17906
8.04468
7.93549
7.82202
7.70858
7.54771
7.42834
7.30728
7.19719
7.07213
6.93878
6.8065
6.70283
6.56095
6.43203
6.29752
6.18688
6.05307
5.94675
5.80784
5.68257
5.55296
5.43624
5.31768
5.18783
5.06032
4.92653
4.8211
4.68403
4.56132
4.42404
4.31512
4.17209
4.06091
3.93621
3.80183
3.68506
3.55183
3.43738
3.32957
3.18412
3.05559
2.93896
2.80952
2.69685
2.56567
2.43935
2.31191
2.19152
2.07323
1.94139
1.82154
1.67945
1.57281
1.4469
1.31117
1.1803
1.05774
0.944931
0.812727
0.68641
0.56287
0.437587
0.313607
0.188378
0.0625988
13.9226
13.2188
12.5156
12.2035
12.0744
11.6588
11.756
11.3314
11.3968
11.3666
11.1212
10.9943
11.0566
10.8519
10.616
10.5528
10.6052
10.1241
10.1656
10.0443
10.013
9.85352
9.5783
9.47886
9.49892
9.22036
9.17046
9.0273
8.93476
8.82706
8.68298
8.54941
8.44469
8.32249
8.20153
8.0523
7.94989
7.80075
7.70216
7.5591
7.42738
7.28689
7.18618
7.06557
6.92925
6.79825
6.6923
6.5535
6.44066
6.32349
6.17769
6.06719
5.91188
5.81433
5.69316
5.57068
5.43778
5.31112
5.17114
5.06436
4.91859
4.8058
4.68985
4.56465
4.44231
4.29405
4.18218
4.06505
3.93744
3.813
3.68488
3.56449
3.42425
3.31616
3.17857
3.05561
2.94501
2.81395
2.68217
2.55757
2.4326
2.3253
2.18149
2.08428
1.9436
1.81218
1.68383
1.56738
1.42804
1.30965
1.20049
1.07423
0.933103
0.811594
0.687617
0.561264
0.437454
0.312319
0.186639
0.0626917
14.091
13.5827
12.966
12.574
12.109
12.1546
11.8301
11.4962
11.4831
11.4501
11.2614
11.0961
11.0163
11.063
10.5839
10.6247
10.2857
10.2832
10.1473
10.0959
9.83765
9.93287
9.65254
9.57036
9.36198
9.27593
9.1083
9.09342
8.91741
8.80769
8.67814
8.54389
8.4081
8.30632
8.19258
8.06719
7.92033
7.80017
7.67365
7.54589
7.41284
7.30422
7.18819
7.06442
6.93908
6.80327
6.67559
6.53996
6.44934
6.31105
6.18057
6.0456
5.9352
5.81485
5.67593
5.5656
5.43019
5.29976
5.18896
5.04995
4.9257
4.8115
4.68429
4.55873
4.41393
4.3288
4.18189
4.05882
3.93265
3.80475
3.67747
3.57017
3.44881
3.30557
3.17417
3.06589
2.92716
2.80186
2.68074
2.5582
2.44584
2.30308
2.18151
2.08027
1.95226
1.81536
1.68823
1.56527
1.42108
1.31891
1.18278
1.04841
0.943435
0.810909
0.686111
0.561624
0.4389
0.312185
0.188313
0.0626676
14.3682
13.8267
13.1525
12.6442
12.5655
12.2996
11.7674
11.8023
11.5346
11.4036
11.4164
11.1087
11.0631
10.7097
10.8124
10.5273
10.4255
10.2141
10.2022
9.98588
10.0764
9.83366
9.62718
9.55059
9.37063
9.36267
9.10591
9.04393
8.93062
8.79504
8.67773
8.547
8.4269
8.31068
8.18199
8.05387
7.93088
7.81739
7.68847
7.54749
7.4244
7.29998
7.18248
7.05659
6.91855
6.798
6.6901
6.5543
6.44705
6.31937
6.18179
6.05546
5.92857
5.81098
5.67662
5.55919
5.4309
5.31078
5.18149
5.04317
4.92399
4.8085
4.7037
4.55922
4.44526
4.31462
4.19102
4.05777
3.93615
3.8088
3.67197
3.56624
3.42389
3.30837
3.18455
3.05205
2.92997
2.80716
2.68736
2.56811
2.43021
2.31456
2.17462
2.06378
1.94622
1.80689
1.69408
1.58075
1.43995
1.30615
1.18763
1.07567
0.934785
0.812111
0.687674
0.562706
0.436662
0.311865
0.187786
0.0626192
14.4548
13.9678
13.4963
12.9628
12.6867
12.2609
12.1208
11.8525
11.6691
11.4767
11.1214
11.2425
10.9695
10.9448
10.8485
10.6271
10.5676
10.4971
10.2959
10.0741
9.9692
9.88843
9.66004
9.59844
9.39349
9.28866
9.22671
9.02036
8.93963
8.78185
8.6671
8.54153
8.4347
8.29472
8.18661
8.02729
7.93168
7.81307
7.68473
7.55062
7.42943
7.29613
7.18037
7.05083
6.92228
6.80209
6.66045
6.55489
6.42757
6.31292
6.19197
6.07894
5.93935
5.82766
5.6947
5.55622
5.41513
5.31728
5.18033
5.06084
4.9292
4.81847
4.68226
4.57099
4.41921
4.30777
4.19784
4.0556
3.9374
3.81766
3.68387
3.55635
3.42343
3.31553
3.18309
3.0605
2.9341
2.80328
2.68479
2.55234
2.42487
2.31459
2.18449
2.05307
1.94488
1.78888
1.68864
1.56687
1.44745
1.31262
1.18128
1.05101
0.942234
0.813024
0.686903
0.562626
0.436251
0.311872
0.188027
0.0624867
14.6214
14.056
13.4294
13.0993
12.8125
12.4867
12.0469
12.1006
11.6639
11.5715
11.3573
11.2765
11.0698
10.8298
10.8259
10.6775
10.4474
10.1797
10.1914
10.166
10.0083
9.83831
9.66099
9.51731
9.47345
9.33341
9.14412
9.08612
8.91032
8.79915
8.66612
8.54446
8.41478
8.29916
8.17841
8.05311
7.92439
7.79707
7.67964
7.55488
7.4294
7.30477
7.17325
7.05956
6.92833
6.8129
6.67078
6.54485
6.422
6.29798
6.16759
6.06175
5.92346
5.80788
5.69282
5.55958
5.42775
5.30998
5.18264
5.05022
4.93502
4.81626
4.68803
4.5681
4.43211
4.30963
4.20354
4.05558
3.92387
3.80862
3.68491
3.55659
3.43379
3.31492
3.16081
3.06633
2.93691
2.80942
2.68588
2.54983
2.44428
2.31526
2.18467
2.05352
1.94506
1.80366
1.68865
1.56909
1.4446
1.31558
1.18257
1.06136
0.938463
0.812137
0.686476
0.563609
0.438508
0.312733
0.186606
0.0625079
14.8447
14.2052
13.8574
13.2909
12.9478
12.494
12.4123
11.9942
11.9278
11.6695
11.5129
11.474
11.2585
10.9751
10.7337
10.6096
10.4364
10.2557
10.3122
10.1058
9.97307
9.79207
9.59881
9.48918
9.3591
9.31048
9.12847
9.02036
8.91513
8.78029
8.67255
8.54475
8.41676
8.28615
8.16738
8.0433
7.92918
7.80751
7.64477
7.5539
7.40514
7.30554
7.18113
7.06149
6.93205
6.80111
6.66618
6.55622
6.42792
6.28881
6.176
6.06428
5.9314
5.79757
5.68113
5.5533
5.42419
5.30884
5.19294
5.05043
4.9464
4.80472
4.67851
4.55659
4.44689
4.30481
4.19468
4.0625
3.94117
3.81811
3.68279
3.56658
3.43485
3.30744
3.16641
3.06204
2.93637
2.80741
2.68521
2.55973
2.42898
2.31353
2.19272
2.05478
1.94102
1.81403
1.68814
1.55903
1.44875
1.31349
1.18979
1.04546
0.9429
0.812555
0.687345
0.561345
0.436892
0.312121
0.187281
0.0625493
15.0516
14.3413
14.0196
13.44
13.083
12.7663
12.4455
12.0752
12.0034
11.7616
11.6066
11.3455
11.2585
11.0235
10.6486
10.6928
10.4402
10.4104
10.299
10.0214
10.0637
9.83585
9.68109
9.62877
9.49676
9.34374
9.16448
9.01286
8.91706
8.77699
8.65573
8.53796
8.39358
8.29276
8.15356
8.04654
7.92726
7.80838
7.67333
7.53506
7.4224
7.30245
7.17981
7.03958
6.94272
6.80669
6.66681
6.55724
6.42464
6.3182
6.16866
6.04708
5.92551
5.79252
5.69144
5.56104
5.42082
5.3017
5.17495
5.05235
4.93567
4.82536
4.68986
4.5477
4.42748
4.30913
4.17166
4.06787
3.93903
3.8195
3.68547
3.55489
3.44245
3.30114
3.17111
3.069
2.95071
2.80488
2.68768
2.56944
2.4523
2.29787
2.17767
2.06695
1.95146
1.81069
1.68603
1.55283
1.42065
1.30802
1.17711
1.06583
0.937403
0.811936
0.689223
0.560847
0.438181
0.312751
0.187784
0.0625076
15.0327
14.4774
13.8922
13.7409
13.0833
12.9412
12.5303
12.2147
12.1075
11.6974
11.5605
11.5025
11.2041
10.9751
10.8832
10.7003
10.4773
10.4795
10.204
10.0112
9.98541
9.71
9.79265
9.51375
9.49985
9.18981
9.12437
9.06974
8.89889
8.79838
8.67324
8.54309
8.42055
8.27463
8.15795
8.03701
7.90777
7.79433
7.65429
7.54115
7.42577
7.2914
7.17685
7.0467
6.91987
6.80733
6.67563
6.53542
6.42848
6.29729
6.1905
6.03345
5.94253
5.80328
5.69316
5.56077
5.43072
5.30139
5.18205
5.05091
4.93791
4.8174
4.70021
4.55952
4.43032
4.31263
4.17623
4.04589
3.92922
3.7951
3.68472
3.56433
3.43213
3.29599
3.18284
3.05185
2.92105
2.81004
2.67373
2.57648
2.44316
2.33103
2.17533
2.0605
1.94572
1.81071
1.67803
1.56216
1.42567
1.31343
1.21325
1.04841
0.942537
0.8115
0.686353
0.562327
0.436347
0.313055
0.186328
0.0625431
14.9699
14.5809
14.0176
13.5337
13.0947
12.9205
12.6305
12.3242
12.0034
11.8169
11.5408
11.4796
11.2855
11.0478
10.8757
10.7465
10.5506
10.4998
10.1511
10.073
9.8377
9.76293
9.80474
9.58734
9.4827
9.27808
9.20967
8.99355
8.90896
8.79425
8.64756
8.52221
8.39558
8.28298
8.15671
8.0313
7.91202
7.77144
7.66868
7.5401
7.41893
7.29602
7.16527
7.04095
6.92941
6.79276
6.66672
6.53287
6.41937
6.29833
6.16728
6.06052
5.92961
5.80729
5.69357
5.55049
5.43396
5.30496
5.17119
5.05421
4.95481
4.80405
4.68977
4.56422
4.41783
4.3126
4.17878
4.06431
3.93702
3.80401
3.68614
3.56955
3.42126
3.32786
3.19013
3.07425
2.93827
2.81642
2.68966
2.54831
2.42388
2.30953
2.2016
2.05587
1.94332
1.80469
1.66752
1.55403
1.42012
1.30553
1.18473
1.06935
0.940828
0.811555
0.688571
0.563989
0.435926
0.313087
0.186869
0.0626324
15.26
14.6735
14.4005
13.7653
13.5351
12.9938
12.6678
12.4451
12.1323
11.9692
11.4878
11.519
11.355
11.0644
10.7971
10.807
10.8467
10.4413
10.3018
9.9219
9.84653
9.77116
9.66874
9.5049
9.42684
9.2228
9.12117
9.0484
8.91154
8.7649
8.65816
8.52413
8.40769
8.27727
8.14267
8.02871
7.90874
7.79396
7.65065
7.5498
7.41823
7.29246
7.16142
7.05903
6.91526
6.79253
6.67441
6.54819
6.42214
6.30014
6.17579
6.05511
5.93774
5.79991
5.66062
5.54284
5.42393
5.30533
5.17206
5.05097
4.93896
4.8027
4.66967
4.54879
4.43421
4.31321
4.17617
4.07251
3.94112
3.83499
3.68979
3.56956
3.43182
3.30911
3.18429
3.04778
2.93665
2.8089
2.68724
2.56683
2.42441
2.30965
2.18586
2.05361
1.93354
1.80903
1.66754
1.54986
1.44109
1.31317
1.19135
1.05465
0.941629
0.811933
0.687773
0.562779
0.436608
0.311684
0.185336
0.0625806
15.2774
14.798
14.2433
14.0015
13.3551
13.1206
12.7878
12.406
12.1432
11.937
11.659
11.5702
11.2803
11.1224
10.7582
10.7209
10.4552
10.327
10.3734
10.0387
9.87206
9.78327
9.69168
9.41849
9.43324
9.2518
9.20385
9.04112
8.92092
8.78114
8.64226
8.523
8.38606
8.26942
8.15944
8.01838
7.89622
7.77256
7.6602
7.53041
7.41153
7.28535
7.15919
7.03794
6.90913
6.78108
6.66285
6.53882
6.43277
6.29634
6.18411
6.06415
5.93544
5.80671
5.67233
5.54624
5.42998
5.30627
5.18696
5.05523
4.94137
4.7915
4.6771
4.55332
4.43087
4.29873
4.18959
4.06401
3.93153
3.8022
3.69176
3.56127
3.44272
3.30767
3.19335
3.05925
2.92991
2.79621
2.68548
2.56288
2.44681
2.29707
2.18731
2.05879
1.93382
1.81587
1.67478
1.56458
1.44432
1.31394
1.18966
1.06854
0.936854
0.812141
0.685879
0.560994
0.436909