/*--------------------------------*- C++ -*----------------------------------*\
  =========                 |
  \\      /  F ield         | OpenFOAM: The Open Source CFD Toolbox
   \\    /   O peration     | Website:  https://openfoam.org
    \\  /    A nd           | Version:  6
     \\/     M anipulation  |
\*---------------------------------------------------------------------------*/
FoamFile
{
    version     2.0;
    format      ascii;
    class       volScalarField;
    location    "./ITHACAoutput/Offline/1";
    object      P_rec;
}
// * * * * * * * * * * * * * * * * * * * * * * * * * * * * * * * * * * * * * //

dimensions      [0 2 -2 0 0 0 0];

internalField   nonuniform List<scalar> 
13046
(
1.05703
1.00481
1.05172
1.06333
1.06221
1.01655
1.04724
1.01121
1.06407
0.778464
0.469645
1.0463
1.04977
0.955397
1.05083
0.857532
1.02862
0.541245
1.07643
1.04503
1.04518
0.84314
1.03415
0.533033
1.06127
1.03386
1.05052
1.03681
0.947402
1.04665
1.06626
0.98597
1.04434
1.06676
1.05949
1.03551
1.06249
1.06337
1.04468
1.06452
1.02596
0.984664
1.05443
1.0695
1.05663
1.0596
1.06112
1.05086
1.04727
0.995087
1.05433
0.984308
1.06737
0.94401
0.979552
0.932071
1.07051
0.749227
0.996168
1.0148
0.98798
0.89751
1.06157
1.04554
0.671957
0.898835
1.01136
0.767809
1.00871
1.02399
0.795221
1.0087
0.706727
0.981757
1.01461
1.076
1.0498
1.03177
1.02159
0.94896
0.674101
1.05711
1.02518
1.05177
1.04295
0.627203
0.870823
0.866177
1.06035
0.703207
1.06945
0.805055
0.700551
0.993759
0.974784
0.843489
0.818084
1.04252
1.04715
1.06397
0.867385
0.726939
1.06094
1.06505
1.04227
1.07351
0.969099
0.985034
1.06528
1.00825
0.970309
0.651273
1.04555
0.295434
1.05566
0.977004
1.04917
0.977687
0.993244
0.785639
1.03459
0.827283
1.03543
0.753733
0.423302
1.0451
1.02455
0.887765
1.04728
1.06237
1.02946
0.977263
1.06897
0.824994
0.740927
0.942855
0.774377
1.05275
1.06165
0.967936
1.04052
1.02049
0.981664
1.06243
1.06337
0.995728
0.971234
1.07193
0.989792
1.00133
0.982096
0.868795
1.06065
1.07588
1.01848
1.01221
0.939892
0.932456
0.919275
0.929217
1.07038
1.07114
1.01415
0.970866
1.06732
0.766317
1.05073
0.488654
0.695495
1.04453
0.338092
0.933941
0.743116
1.04921
1.06235
0.925363
1.02092
1.01748
1.06816
0.984555
1.05745
0.545669
0.782647
1.06375
0.948101
1.01779
1.07512
1.00503
1.0011
1.02989
0.992679
1.06208
0.93778
1.0583
1.03157
0.914952
1.04598
0.854957
1.05498
0.647596
1.06731
0.859494
0.753871
0.813122
0.674098
1.06583
0.97253
0.901385
1.06269
1.03637
0.960193
1.01584
0.675627
0.632694
0.803466
1.06583
1.0573
1.06551
1.04108
1.04497
0.95936
1.0419
1.06936
0.844912
0.761322
1.02826
0.947858
1.06164
1.05287
0.410414
0.699144
1.06421
0.903057
0.957835
0.841279
0.714082
1.06513
0.964617
0.944633
1.07139
1.01851
0.884417
1.04512
0.833358
0.859932
1.06842
0.910105
0.897598
1.06913
1.05449
0.399192
0.67209
1.06965
1.01226
0.950622
0.677015
1.03634
0.2433
1.0705
1.05344
1.03694
0.98312
0.982184
0.936532
0.954775
1.07093
1.06494
1.01693
0.932294
0.638786
1.03333
0.907397
1.03731
0.901674
0.869428
1.07066
0.95613
0.774718
1.04193
1.06005
1.05125
1.06757
0.950147
0.921795
1.07024
1.03509
0.889839
1.03433
1.0319
1.02798
1.07098
1.00462
0.931955
0.946073
0.899479
1.06858
0.932004
1.04277
0.746764
1.07503
1.01269
0.974218
1.07157
0.911399
0.932488
0.998709
0.807984
1.0248
1.0677
0.992105
0.933574
0.982078
0.973788
0.777112
1.02484
0.765449
1.03053
1.05352
0.572239
0.804984
1.00301
0.850773
1.03462
0.172798
1.04578
0.572545
1.04127
1.07003
1.01379
1.00324
0.919356
1.0596
1.05329
0.880824
0.687364
0.966757
0.913614
1.06955
0.804086
0.854119
1.0688
0.975552
1.05693
0.993941
0.897524
1.05368
0.971712
1.06367
0.885329
1.02802
0.583973
0.979329
0.877385
1.06408
0.982089
0.873811
1.05124
1.00655
0.97259
1.06799
0.967382
0.98305
1.07084
1.05921
1.00299
1.05715
1.06665
0.915849
0.945556
0.835026
0.656281
1.05838
0.802571
0.858823
1.06924
1.03112
1.00513
0.836605
0.96552
0.978333
0.750094
0.716103
1.01823
1.01991
1.04241
0.198394
0.607796
0.702224
1.03574
0.278239
0.974394
0.919549
1.06326
1.05301
0.843958
0.609944
1.01329
1.008
0.819565
0.804251
1.01964
1.01948
1.06519
0.569084
0.739551
0.659389
1.03643
0.190438
1.04111
1.07229
1.05335
0.648679
0.248205
1.04265
1.05751
0.920213
1.01991
0.791267
0.56949
1.06075
0.176161
1.04945
0.49802
1.06665
1.02687
1.00218
1.04642
1.03831
1.0656
0.759399
1.04237
0.414358
1.03848
1.02628
1.06607
1.04717
1.06984
1.05812
1.07056
0.884276
0.949808
1.02891
1.04149
1.07049
1.04283
1.01824
1.07076
1.04037
0.853175
1.00139
1.04025
1.04574
0.530055
0.526155
0.824495
0.812951
0.804344
0.626514
1.0591
1.00915
1.02803
0.806238
1.06324
1.01235
0.959868
0.893861
0.895767
1.06652
0.308235
1.05728
0.556231
1.06832
0.796832
0.669303
0.71422
1.04778
0.385057
1.04769
0.131308
0.484763
0.0873696
1.04197
0.526954
0.86196
0.944089
1.06294
0.465621
1.06397
0.660664
0.921177
0.762979
1.05531
0.826702
1.02285
0.443567
1.04734
1.05428
0.99196
0.606096
1.06675
0.764216
0.898354
1.0664
0.913279
0.854786
0.902871
1.07013
1.04342
-0.0427681
0.392409
0.203575
1.04876
0.550577
1.05527
1.06049
1.00264
0.549013
0.7362
1.06203
1.06696
0.704886
0.540655
0.843891
1.04623
0.602436
1.02356
0.641793
0.917305
1.0515
0.846945
1.00013
0.766159
0.993583
1.02116
1.02208
0.898933
0.564599
1.04787
1.04118
0.925872
0.901267
1.03042
1.03334
1.0535
0.934178
1.02644
1.02519
0.814118
1.01813
0.825121
0.881728
1.06836
0.617015
0.800506
1.06362
1.06632
0.88402
0.791296
0.108712
1.04184
0.558738
1.07047
1.06612
1.04018
0.994577
1.04663
0.999398
1.04436
1.03919
1.01595
0.861358
1.01662
0.888817
0.213649
1.05392
0.498551
0.569236
0.75682
1.06178
1.05943
0.997776
0.923174
0.858966
0.875428
1.06963
1.02167
0.664382
0.932694
0.303084
0.623343
1.05135
0.348181
0.639962
1.05452
1.00963
0.821101
1.02712
1.07705
1.00946
0.989484
0.827603
1.04683
0.560636
0.843512
0.920896
1.0661
1.04441
0.703009
0.919999
1.04487
1.0142
0.895056
0.970697
0.959889
1.06962
1.06699
1.01887
0.974368
1.05045
0.543374
0.802452
0.957998
0.761028
1.03655
1.07028
1.03428
1.0054
0.874911
1.02054
0.516498
1.05103
0.964806
1.03886
1.03199
1.00021
1.07065
0.872248
0.924875
1.06775
0.755413
1.0311
0.335945
0.778015
1.02825
0.359052
1.03976
0.688637
0.920786
0.95289
0.96217
1.06793
1.02999
0.277502
0.721465
1.05606
0.724528
0.901056
1.04908
0.10246
0.444186
0.503313
0.0303821
1.03953
1.02654
0.591111
0.902529
1.05354
0.466248
0.737519
0.856002
0.874143
1.03672
0.564344
1.03829
0.60952
0.888362
0.734906
1.05862
1.07295
0.876985
0.86661
1.07207
1.0491
1.0109
0.899507
0.777303
1.06449
1.06619
0.907279
0.801142
0.917055
1.0185
0.590244
1.03924
0.836795
1.01489
1.04818
0.899586
1.01635
0.950856
0.846021
1.06009
0.939166
0.837035
1.06309
1.07281
1.03216
1.02078
1.03914
0.885147
1.03281
1.06932
0.624079
0.75616
0.617427
1.05805
0.364218
0.589741
1.05825
0.352989
1.06107
1.02769
0.958883
0.263349
1.05133
0.577845
0.941544
1.03652
0.717526
1.05404
0.269947
0.546356
1.06243
1.06581
1.02763
1.0225
0.918293
1.05161
0.971451
0.952781
1.06947
1.06423
0.497241
0.690858
0.847405
0.92044
1.06781
1.02357
0.853973
0.496705
1.00456
0.896846
1.05144
1.07303
1.05316
1.01957
0.500724
0.716088
1.06209
1.05023
0.696766
0.900947
0.739526
0.713096
1.037
1.03889
0.366053
0.327768
0.997868
0.950829
1.06785
0.884742
0.956343
1.06323
1.0366
1.00538
1.06697
0.41717
0.650354
0.426672
1.05991
0.645949
1.06219
0.975078
0.834523
1.05325
0.713669
0.681849
0.472679
0.433377
1.05925
1.05831
0.952042
0.904927
1.0692
1.01693
0.942241
1.05763
0.804575
1.02851
0.422103
1.01207
0.939371
1.06546
1.03734
0.986968
1.06373
0.759734
1.03321
0.368366
1.00949
0.871369
1.0447
0.921291
0.878327
1.06801
1.04948
0.877035
1.00831
0.766117
1.06958
0.823455
1.04414
0.00253854
0.427671
1.00315
0.921277
1.05725
0.822944
1.0326
0.484055
0.991041
0.862303
1.0581
0.58145
1.03564
0.112008
1.07243
1.06982
1.00826
1.00662
1.00664
0.999451
1.04021
1.00765
1.06866
1.06807
1.07146
1.0198
1.00673
1.02672
1.00556
1.01326
0.957842
1.06504
1.01954
0.960294
1.06642
1.06165
0.388242
0.601536
1.05867
0.954518
1.02598
0.744006
0.494473
1.05663
0.946537
0.93007
0.821237
0.788679
1.05654
1.05615
1.05435
0.97454
1.03235
1.02392
0.84799
1.0195
0.974701
0.86422
1.05781
1.06891
1.03808
1.05013
0.920471
0.797982
1.06271
1.06891
1.04011
1.01522
0.969225
0.902315
1.06645
1.02297
0.866894
1.02106
1.06781
1.06929
1.02979
1.05235
1.03186
1.04639
1.07209
1.02541
1.07381
1.0271
1.03683
1.01367
1.04863
1.04578
0.940274
0.934565
1.03606
1.03487
1.0282
0.660726
0.924821
1.06637
0.895767
0.939509
1.03334
1.03664
0.626487
0.64078
0.901998
0.897371
1.06496
0.991212
0.913852
1.06652
1.05938
1.04875
0.916677
0.774374
1.06006
1.06802
1.03413
0.977436
1.01689
0.854225
1.02419
0.957358
0.959561
0.707639
1.02736
0.725669
1.02959
0.957449
0.812217
1.05202
0.612815
0.164934
1.03655
0.986148
0.88315
1.05951
1.05294
1.05396
0.995541
0.866289
1.00189
0.883793
0.896155
0.818229
1.06776
1.0291
0.866755
1.02051
1.06487
0.991427
0.906873
1.05119
1.05626
1.00562
1.01751
0.9183
0.91263
1.04958
1.00742
0.892347
0.959814
0.830696
1.05598
1.07048
1.0395
1.02354
0.783926
1.03711
0.440078
1.0626
0.99272
0.889322
1.02266
1.00888
0.862658
0.840538
1.02642
1.03257
1.0364
0.48294
0.813311
0.80767
1.03308
0.443149
0.783414
1.03355
0.413461
0.943093
1.03188
0.702935
1.0345
0.891043
1.02407
0.529153
0.676376
0.936038
0.536134
0.848093
0.277155
0.768665
0.634598
0.46822
0.844287
0.842204
0.432312
0.538322
0.831519
0.654863
0.542388
0.575842
0.618846
0.675192
0.796098
0.700367
0.611045
0.87025
1.01843
0.951023
0.681405
0.861278
0.448663
0.72321
0.527172
0.463198
0.769704
0.674564
0.683122
0.501074
0.691624
0.92661
0.861258
0.600873
0.728082
0.578429
1.03238
0.527013
0.834433
0.893234
0.604999
0.611289
0.544687
0.442905
0.525523
0.962642
0.711424
0.541905
0.583384
0.459537
0.958814
0.794258
0.683687
0.533391
0.820035
0.519811
0.538474
0.954662
0.657077
0.680065
0.799214
0.713043
0.993159
0.863901
0.844975
0.394327
0.443502
0.598819
0.817061
0.43012
0.684595
0.678371
0.493243
0.810682
0.902775
0.619937
0.670624
0.452619
0.520714
0.5899
0.819489
0.592075
0.578792
0.641458
0.96266
0.542667
0.821388
0.94635
0.689381
0.544213
0.211061
0.499456
0.548895
0.541796
0.39264
0.742105
0.875795
0.901559
0.9942
0.530557
0.550175
0.449734
0.552983
0.501881
0.926264
0.884937
0.795236
0.498641
0.447458
0.743852
0.865427
0.61792
0.578626
0.373661
0.614013
0.671998
0.96325
0.983332
0.824389
0.690485
0.605455
0.430317
0.9832
0.478391
0.81275
0.381851
0.955442
0.45373
0.467532
0.512759
0.902599
0.671974
0.344518
0.524012
0.781354
0.538143
0.829382
0.757367
0.554272
0.888365
0.57957
0.518454
0.91478
0.533403
0.622495
0.436017
0.704983
0.597087
0.89976
0.823203
0.612589
0.815842
0.829806
0.936749
0.682767
0.593536
0.548992
0.834131
0.476409
0.724567
0.455374
1.01994
0.613287
0.900962
0.983095
0.704515
0.988121
0.905192
0.936939
0.490172
0.376276
0.429864
0.940054
0.491237
0.469219
0.469476
0.471446
0.627802
0.579125
0.702624
0.982135
0.821286
0.585749
0.80562
0.564481
1.02751
0.432986
0.881042
0.547791
0.357241
0.965676
0.990989
0.541036
0.549753
1.01681
0.729775
0.593418
0.508337
0.822223
0.922525
0.794465
0.538927
0.535196
0.848082
0.691506
0.500042
0.743797
0.478132
0.476413
0.60671
0.850408
0.381493
0.622716
0.880331
0.582527
0.376021
0.603162
0.544362
0.598097
0.7574
0.772381
0.521845
0.464333
0.505043
0.800897
0.79022
0.624673
0.782138
0.585878
0.491365
0.742376
0.584459
0.35921
0.790918
0.913464
0.719545
0.951003
0.922177
1.03497
0.543904
0.330323
0.641296
0.605631
0.589564
0.3881
0.739957
0.954422
0.799244
0.736755
0.532216
0.62878
0.815762
0.689345
0.769669
0.538099
0.637503
0.578719
0.46496
0.519808
0.555469
0.546263
0.482213
0.778026
0.688846
0.610765
0.784427
0.548133
0.633729
0.523005
0.607308
0.587574
0.557957
0.730666
0.39948
0.331757
0.648835
0.425886
0.394372
0.737556
0.43862
0.393223
0.907291
0.78846
0.521293
0.801066
0.469909
0.776727
0.738769
0.482515
0.547553
0.868355
0.648188
0.819401
0.283571
0.510903
0.90636
0.571622
0.517224
0.303974
0.407542
0.373199
0.420447
0.580896
0.790641
0.487647
0.368284
0.504331
0.567856
1.0299
0.544309
0.821508
0.730785
0.452379
0.612952
0.522564
0.451435
0.762011
0.585762
0.960278
0.793798
0.521882
0.592482
0.712388
1.01703
0.808874
0.930173
0.830809
0.587107
0.70554
0.627664
0.496388
0.405392
0.555112
0.576298
0.779901
0.526762
0.432625
0.542192
0.60798
0.53987
0.565031
0.88734
0.592646
0.558244
0.948407
0.884567
0.515848
0.70118
0.922381
0.535087
0.429054
0.594811
0.492872
0.453883
0.912009
0.506362
0.62537
0.92648
0.389398
0.701323
0.528642
0.701435
0.595944
0.546972
0.239431
0.62228
0.429317
0.567569
0.604451
0.605961
0.807367
0.956432
0.53829
0.698158
0.60091
0.511568
0.354105
0.872559
0.755191
0.575146
0.431305
0.727068
0.432603
0.54669
0.534715
0.507917
0.830013
0.942847
0.580675
0.807834
0.998372
0.886115
0.876266
0.93473
0.589187
0.568881
0.456038
1.01697
0.861922
0.904216
0.53765
0.595361
0.365681
0.823379
0.603052
0.540246
0.906012
0.773311
0.487352
0.616966
0.523596
0.541513
0.530905
0.593663
0.609526
0.487897
0.584067
0.413611
0.614749
0.488365
0.769246
0.668725
0.381074
0.928472
0.9495
0.826047
0.55911
0.709094
0.433769
0.844898
0.696402
0.441012
0.921679
0.36331
0.962219
0.409381
0.622855
0.649015
0.826901
0.845774
0.54211
0.986238
0.556517
0.882255
0.619114
0.76863
0.571671
0.530512
0.551241
0.885163
0.647486
1.01087
0.804789
0.406101
0.547098
0.770656
0.383463
0.563535
0.622941
0.48194
0.966426
0.497661
0.47712
0.852412
0.545565
0.960412
1.00035
0.604724
1.01145
0.971683
0.896577
0.911365
0.721323
0.448083
0.519805
0.60214
0.872851
0.610649
0.365605
0.984922
0.486495
0.632409
0.511873
0.934682
1.02386
0.485881
0.886994
0.735614
0.954651
0.621002
0.83322
0.619012
0.985432
1.0068
0.781549
0.518564
0.848583
0.578428
0.690447
0.683698
0.631997
0.73978
0.562216
0.367772
0.461321
0.646085
0.75391
0.699993
0.904382
0.500857
0.604352
0.761084
0.462492
0.943938
0.529786
0.619235
0.925316
0.898647
0.717955
0.993611
0.529181
0.586887
0.833526
0.68048
0.660389
0.623467
0.555751
0.772461
0.799199
0.557062
0.532627
0.714818
0.402779
0.485197
0.960768
0.992199
1.0082
0.639137
1.00346
1.0205
0.973205
0.345627
0.730984
0.73384
0.991196
0.572183
0.537251
0.434509
0.518144
0.338443
0.982666
0.647396
0.663652
0.839262
0.787109
0.572509
0.616674
1.02066
0.977413
0.930871
0.785085
0.568696
0.81132
0.762407
0.574771
0.65514
0.45386
0.509203
0.686269
0.650582
0.571976
0.955877
0.960349
0.355918
0.899545
0.538327
0.544128
0.600102
0.948598
0.613406
0.794357
0.633738
0.932476
0.589602
0.631487
1.00095
0.357585
0.403244
0.526648
0.49373
0.328962
0.165622
0.502611
0.326077
0.659048
0.351218
0.460077
0.653355
0.551793
0.508521
0.580846
0.436877
0.209164
0.970181
0.875249
0.594229
0.437685
0.878267
0.577192
0.537131
1.00385
0.508109
0.999571
0.62088
0.910217
0.632322
0.443421
0.456125
0.698666
0.700047
0.661515
0.44949
0.591869
0.464812
0.492521
0.557058
0.382675
0.444874
0.977851
0.526851
0.812957
0.846448
0.575046
0.845142
0.851439
0.437183
0.176068
0.622405
0.40465
0.336604
0.808551
0.827146
0.598473
0.759308
0.579457
1.00077
0.968682
0.631469
0.565836
0.988553
0.913668
0.743536
0.745929
0.585921
1.00492
0.688935
0.353075
0.937516
0.867524
0.958885
0.698868
0.519469
0.597063
0.830885
0.768738
0.092853
1.03751
0.620333
0.526417
0.693287
0.894218
0.991824
1.00884
0.762959
0.660552
0.862341
0.919289
0.921828
0.804395
0.871765
0.455387
0.545531
0.720796
0.457868
0.445615
0.385762
0.616014
0.855233
0.407861
0.688013
0.552115
0.868863
1.00945
0.649771
0.444442
0.375914
0.821106
0.554301
0.515054
0.369405
0.936863
0.721803
0.739185
0.429622
0.730894
0.508444
0.534818
0.820436
0.852271
0.937146
1.02308
0.503737
0.920874
0.354965
0.938067
0.947822
0.957183
0.852015
0.484247
0.483978
0.607761
0.355036
0.679768
0.381473
0.736477
0.436072
0.906963
0.579124
0.367945
0.900997
0.826175
0.638202
0.638416
0.802778
0.94022
0.712139
0.667827
0.360879
0.876508
0.692916
0.969117
0.330692
0.653159
0.9401
0.820235
0.993968
0.814788
0.592953
0.316344
0.366445
0.644657
0.388791
0.977269
0.372243
0.556092
0.634205
0.502903
0.85335
0.332688
0.924794
0.832583
0.743089
0.366494
0.77258
0.510589
0.590941
0.654411
0.634439
0.588319
0.580846
0.857529
0.497208
0.998413
0.57659
0.652067
0.7874
0.821175
0.977735
0.590183
0.635035
0.512893
0.656743
0.561755
0.967407
0.517754
0.673444
0.58312
0.876225
0.542347
0.700045
0.439044
1.01053
0.349822
0.485392
0.569268
0.887644
0.374416
0.371184
0.471197
0.428422
0.955734
0.667007
0.793811
0.912014
0.767643
0.673227
1.01261
0.67454
0.82661
0.768094
0.699734
0.387494
0.713067
0.655016
0.5664
0.716686
0.490548
0.404556
0.704518
0.59595
0.4826
0.85876
0.659529
0.787669
0.649536
0.958841
0.632969
0.635344
0.772155
0.430564
0.511387
0.585207
0.699913
0.717736
0.770257
0.944622
0.813464
0.874372
0.695266
0.923863
0.982394
0.977104
0.699543
0.683237
0.733481
0.452833
0.992016
0.91394
0.884652
0.673716
0.493758
0.396371
0.735275
0.813147
0.528774
0.878847
0.913762
0.754947
0.544419
0.697557
0.565949
0.533537
0.678206
0.557179
0.738194
0.369246
0.737531
0.65043
0.632018
0.336227
0.715424
0.670901
0.801185
0.583623
0.725624
0.949885
0.963171
0.748986
0.624733
0.874311
0.697008
0.516415
0.50407
0.612962
0.417225
0.940494
0.653898
0.711472
0.83549
0.808922
0.76407
0.483746
1.00168
0.772976
0.516425
0.661171
0.684035
0.873948
0.949109
0.777065
0.745686
0.381935
0.485376
0.64174
0.746761
0.670605
0.753278
0.538334
0.958383
0.744147
0.838807
0.924865
0.717429
0.524481
0.695633
0.991578
0.569113
0.371389
0.691245
0.994771
0.565521
0.618528
0.864227
0.806278
0.892979
0.660586
0.384973
0.75182
0.437339
0.574015
0.893545
0.658508
0.459594
0.53183
0.560213
0.771281
0.585449
0.555316
0.924802
0.522569
1.01342
0.892576
0.43693
0.317502
0.661013
0.817707
0.916688
0.667431
0.640188
0.522697
0.605605
0.638246
1.0208
0.941072
0.816679
0.591919
0.402121
0.932362
1.00828
0.958187
0.874852
0.935981
0.687506
0.438313
0.351351
0.374605
0.972326
0.679405
0.508575
0.611004
1.00538
0.587536
0.547191
0.415811
0.665582
0.496137
0.98418
0.759096
0.832981
0.938497
0.895844
0.623871
0.79001
0.684839
0.806532
0.562453
0.754218
0.54319
0.97006
0.457871
0.563906
0.500649
0.603583
0.947663
0.586452
0.89416
0.908267
0.941312
0.469175
0.677484
0.636123
0.527702
0.959328
0.694815
0.710779
0.753207
0.306001
0.618714
0.944611
0.789727
0.961523
0.36142
0.478874
0.594396
0.974595
0.542614
0.647457
0.483538
0.476405
0.597083
0.950133
0.627584
0.646753
0.424588
0.975737
0.998108
0.317092
0.938595
0.57309
0.474802
0.488248
0.685234
0.396302
0.765409
0.589051
0.567059
0.614976
0.904532
0.673027
0.888438
0.620832
0.473912
0.612619
0.360985
0.394385
0.657791
0.584837
0.72285
0.480736
0.632629
0.911844
0.751736
0.567918
0.440669
0.92865
0.678847
0.64775
1.0151
0.716153
0.561077
0.569074
0.489045
0.983891
0.566984
0.645512
0.764194
0.417064
0.936002
0.467706
0.921368
0.672784
0.845606
0.487858
0.861139
0.641288
0.436708
0.510374
0.673159
0.939182
0.314881
0.531113
0.592202
0.974815
0.996905
0.515897
0.553444
0.758675
0.960312
0.630268
0.954172
0.91746
0.88382
0.839769
0.730276
0.789741
0.770188
0.962908
0.64958
0.694863
0.514119
0.544791
0.646281
0.495778
0.987856
0.460213
0.947174
0.633333
0.977256
0.544501
0.992325
0.845048
0.891995
0.979147
0.95007
1.01209
0.615249
0.928133
0.673283
0.587735
0.529361
0.484892
0.961502
0.461737
0.76386
0.770738
0.631788
0.760781
0.532417
0.941639
0.705609
0.859058
0.341629
0.522561
0.592766
0.976977
0.524992
0.795781
0.549752
0.594341
0.453733
0.621843
0.579751
0.880712
0.970088
0.41052
0.755424
0.595398
0.55115
0.901605
0.523854
0.542184
0.981292
0.376918
0.714046
0.818337
0.95589
1.00722
0.559545
0.537609
0.419144
0.60244
0.531611
0.59246
0.846719
0.573043
0.438141
0.641696
0.677601
0.574142
0.535152
0.588821
0.683366
0.439345
0.868314
0.848059
0.574754
0.861796
0.436197
0.412153
0.527138
0.359305
0.991588
0.580634
0.580244
0.533653
0.904443
0.961859
0.719383
0.839792
0.548644
0.515893
0.687772
0.58119
0.527722
0.960257
0.731306
0.784711
0.992083
0.875721
0.666286
0.979645
0.409547
0.724785
0.719345
0.776621
0.606726
0.954343
0.574992
0.762804
0.656217
0.576527
0.493182
0.546361
0.845282
0.904696
0.934861
0.688324
0.705328
0.963229
0.868156
0.64886
0.717125
0.460184
0.613177
0.892161
0.404671
0.917139
0.579553
0.92848
0.998975
0.967207
0.572427
0.899037
0.920239
0.389711
0.958679
0.554794
0.973107
0.87915
0.594083
0.471858
0.733369
0.617886
0.594201
0.548596
0.860824
0.579326
0.983115
0.48036
0.561616
0.526048
0.47963
0.581584
0.90286
0.998608
0.475275
0.850095
0.684976
0.767925
0.636372
0.752736
0.953717
0.886585
0.58634
0.943405
0.901629
0.999711
0.473774
0.568706
0.538121
0.845549
0.987853
0.91152
0.646939
0.996042
0.664456
0.421439
0.470609
0.312934
0.653048
0.452993
0.995694
1.01664
0.712062
1.00378
0.893164
0.720955
0.98936
0.462331
0.950548
0.612927
0.961157
0.594837
0.487431
0.845967
0.715592
0.974399
0.952045
0.95775
0.510673
0.514169
0.397527
0.91488
0.884531
0.505012
0.684975
0.885631
0.35372
0.553225
0.504507
0.606282
0.752844
0.597861
0.720234
0.819005
0.693607
0.70613
0.856189
0.58771
0.617468
0.762337
0.696647
0.591216
0.930492
0.965202
0.508352
0.87848
0.33937
0.546701
0.932345
0.860165
0.58332
0.967141
0.460616
0.849429
0.620439
0.620796
0.940131
0.597803
0.860726
0.850088
0.800202
1.02198
0.813099
0.422825
0.786822
0.651754
0.864826
1.01729
0.803533
0.667741
0.529002
0.622675
0.942688
0.451448
0.891925
0.518299
0.740751
0.868512
0.850409
0.687044
0.93746
0.997109
0.607764
0.589446
0.705198
0.501328
0.444087
0.726121
0.853922
0.505541
0.426131
0.531602
0.430887
0.843523
0.663795
0.871662
0.551589
0.962726
0.684206
0.903578
0.986586
0.526261
0.951856
0.599096
0.711882
0.691139
0.921042
0.545265
0.625928
0.699051
0.497148
0.599053
0.476656
0.45612
0.341186
0.99114
0.999619
0.502621
0.560303
0.862393
0.405672
0.53089
0.591894
0.827219
0.849653
0.38157
0.341209
0.950098
0.55174
0.755605
0.544163
0.412903
0.47412
0.716233
0.912835
0.763893
0.405515
0.965881
0.908977
0.513178
0.749965
0.579258
0.988094
0.599149
0.63887
0.438081
0.804821
0.960578
0.769404
0.713794
0.538851
0.658659
0.754849
0.992948
1.00653
0.539443
1.00083
0.547808
0.733886
0.727679
0.647058
0.57599
0.925594
0.611492
0.717679
0.530761
0.540129
0.620639
0.48779
0.804736
0.962982
0.516978
0.55871
0.719662
0.584567
0.529866
0.36095
0.584215
0.908953
0.372364
0.572868
0.833142
0.72343
0.648769
0.804756
0.896032
0.514874
0.50914
0.90301
0.636165
0.500401
0.677069
0.918072
0.789334
0.742971
0.547542
0.524883
0.534179
0.992664
0.907828
1.00436
0.64334
0.81855
0.456216
0.675982
0.914463
0.414104
0.420184
0.850435
0.912292
0.397007
0.568496
0.537719
0.495603
0.534259
1.00473
0.632017
0.564984
0.710442
0.527382
0.835171
0.729203
0.443165
0.572772
0.858677
0.653707
0.996836
0.440253
0.551704
0.786235
0.77089
0.660044
0.750637
0.495179
1.00432
0.929986
0.789971
0.926243
0.523094
0.915611
0.798443
0.778971
0.978367
0.407018
0.57331
1.0099
0.802863
0.394255
0.580381
0.888673
1.0066
0.678253
0.858798
0.54415
0.432118
0.513645
0.394719
0.914791
0.543334
0.701943
0.978062
0.516961
0.514114
0.54906
0.706857
0.559631
0.575572
0.529689
0.46643
0.660376
0.885255
0.977078
0.82518
0.596522
0.568689
0.376011
0.559742
0.78293
0.76221
0.802226
0.840412
0.570234
0.675087
0.884906
0.919059
1.00912
0.94075
0.983134
0.661047
0.455187
0.515122
0.472107
0.994226
0.707038
0.552501
0.976649
0.458792
0.883245
0.828507
0.575111
0.543467
0.571994
0.53618
0.91668
0.625533
0.828967
0.667209
0.972972
0.73952
1.02586
0.50363
0.67472
0.563106
0.331639
0.589563
0.846983
0.49045
0.288281
0.743116
0.953678
0.866592
0.537701
0.448007
0.518938
0.460716
0.545705
0.455637
0.644965
0.482129
0.85289
0.496404
0.554409
0.925119
0.671707
0.779599
0.903825
0.646614
0.703126
0.511755
0.864128
0.627195
0.574008
0.643546
0.481947
0.432002
0.552435
0.544985
0.855162
1.00391
0.92578
0.73584
0.827126
0.403088
0.999444
0.739597
0.843305
0.553107
0.841276
0.581266
0.595357
0.893418
0.964618
0.855039
0.749527
0.59205
1.01639
0.60174
0.886874
0.987668
0.814676
0.621608
0.398265
0.884885
0.731108
0.475
0.801804
0.723492
0.96889
0.53984
0.978175
1.01059
0.634123
0.503589
0.986029
0.449595
0.48564
0.598111
0.487906
0.578148
0.484386
0.444475
0.664515
0.556881
0.513691
0.568353
0.755006
0.547772
0.528027
0.795897
0.698671
0.405244
0.965733
0.990869
0.985853
0.542655
0.402505
1.03113
0.438061
0.646575
0.533653
0.590407
0.552281
0.84698
0.571907
0.581787
0.426575
0.411311
0.474894
0.571897
0.382831
0.683074
0.727031
0.67328
0.974868
0.699425
0.799582
0.627655
0.905164
0.601635
0.586995
1.00383
0.605214
0.721021
0.450489
0.809953
0.999286
0.634798
0.767532
0.7248
0.580548
0.540683
0.514267
0.485802
0.858331
0.49306
0.632492
0.579672
0.637693
0.517079
0.515373
0.652953
0.617499
0.553463
0.986135
0.656388
0.622716
0.746427
0.968754
0.585919
0.415619
0.872758
0.451734
0.609357
0.539257
0.665976
0.574202
0.608136
0.66751
1.00147
0.923935
0.428594
0.551744
0.405488
0.527416
0.393992
0.490103
0.588822
0.502228
0.601532
0.775816
1.0077
0.583656
0.833329
0.690826
0.992784
0.573288
1.00243
0.776523
0.451273
0.768201
0.837272
0.588501
0.910876
0.538092
0.934613
0.544222
0.333184
0.659237
1.00916
0.985138
0.858807
0.777549
0.820118
0.412764
0.560018
0.820815
1.02534
0.346383
0.670847
0.54144
0.596724
0.631917
0.52608
0.467592
0.550588
0.48131
0.566534
0.611366
0.638288
1.02014
0.907267
0.387856
0.872878
0.507313
0.503245
0.888223
0.538219
0.6079
0.810758
0.39271
0.530285
0.671618
0.9272
0.469295
0.534574
0.597896
0.775665
0.472821
0.970294
0.401067
0.581227
0.605411
0.535156
0.781761
0.777051
0.971942
0.53887
0.851016
0.739149
0.765859
0.535184
0.782813
0.492001
0.462096
0.363217
0.739365
0.664292
0.604489
0.937376
0.670936
0.718734
0.777393
0.514946
0.493869
0.578541
0.75286
0.543387
1.00539
0.446702
0.402702
0.60696
0.581983
0.548193
0.535217
0.834336
0.595354
0.674098
0.461546
0.539762
0.678
0.480665
1.00541
0.975978
0.471834
0.516868
0.900514
0.695852
0.523927
0.448849
0.528993
0.465219
0.731984
0.95631
0.52281
0.407624
0.774792
0.656039
0.40276
0.469431
0.659513
0.825746
1.00089
0.455446
0.418218
0.753653
0.910974
0.624209
0.729089
0.602895
0.539697
0.585708
0.777799
0.661867
0.543032
0.884101
0.601558
0.374641
0.717782
0.551463
0.890026
1.02207
0.54717
0.576873
0.587709
0.573113
0.457803
0.586463
0.463013
0.980192
0.898298
0.828172
0.595457
0.421208
0.876428
0.999884
0.524322
0.711168
0.575479
0.337165
0.696186
0.585035
0.349541
0.542697
0.772924
0.447644
0.407503
0.482201
0.870748
0.431788
0.887686
0.653388
0.545535
0.613782
0.509868
0.890806
0.373817
0.582816
0.628429
0.457539
0.721901
0.823403
0.743136
0.67076
0.866265
0.46992
0.470656
0.950349
0.538437
0.944844
0.758342
0.630384
0.729228
0.929023
0.654751
0.403827
0.967349
0.534978
0.634809
0.921056
0.524786
0.979256
0.528431
0.605235
0.390937
0.595727
0.483607
0.66421
0.486465
0.373154
0.468371
0.476334
0.342356
0.956362
0.474809
0.601169
0.731848
0.667169
1.00333
1.0048
0.567298
0.668709
0.893244
0.556831
0.958388
0.352701
0.609197
0.69967
0.525653
0.903845
0.57541
0.580079
0.566347
0.518329
0.530357
0.382429
0.930983
0.234144
0.963328
0.83442
0.490858
0.412739
0.476377
1.00564
0.830306
0.789146
0.642208
0.72143
0.628233
0.926982
0.865202
0.513067
0.763387
0.97642
0.644526
0.706872
0.77572
0.385963
0.467383
0.874733
0.590871
0.639751
0.981057
0.46941
0.358475
0.531909
0.642868
0.652703
0.985765
0.530924
0.428893
0.525221
0.636822
0.53899
0.946943
0.661718
0.476096
0.582287
0.521167
0.521582
0.591438
0.767983
0.691593
0.504009
0.936032
0.595436
0.881995
0.505517
0.465811
0.604616
0.927436
0.991975
0.883199
0.68999
0.66434
0.878204
0.978886
0.444111
0.962291
0.472369
0.803506
0.783209
0.940204
0.686778
0.929265
0.963863
0.548054
0.538102
0.603276
0.679176
0.468261
0.512683
0.452852
0.850184
0.909592
0.443577
0.97041
0.682807
0.868765
0.646911
0.499871
0.895818
0.87251
0.573955
0.575841
0.481875
1.01155
0.826391
1.02976
0.451589
0.468335
0.61537
0.911603
0.78012
0.913042
0.711923
0.981265
0.538698
0.62479
0.707667
0.556989
0.76288
0.423944
0.887388
0.660663
0.709821
0.963453
0.4402
0.448154
0.369274
0.744499
0.938294
0.567287
0.796035
0.434857
0.424291
0.646404
0.550849
0.52767
0.918872
0.684551
0.521158
0.617114
0.744176
0.964195
0.749704
0.611486
0.931753
0.685744
0.986417
0.701188
0.83232
0.617931
0.438448
1.0051
0.500633
0.72661
0.747771
0.957416
0.815155
0.663587
0.547131
1.0178
0.60673
0.486822
0.859585
1.00118
0.841766
0.791918
0.433387
0.363441
0.722124
0.506296
0.596769
0.696677
0.503876
0.963742
1.00626
0.965167
0.548499
0.590803
0.529809
0.583652
0.796861
0.469725
0.81971
0.976194
0.437507
0.580309
0.528647
0.895571
0.79993
0.591634
0.511682
0.838789
0.535327
0.409453
0.470966
1.01844
0.369863
0.883528
0.768075
0.537461
0.96536
0.730119
0.995071
0.390202
0.579645
0.697031
0.970098
0.585843
0.95643
0.73394
0.370851
0.669472
0.546285
0.594222
0.364407
0.875006
0.582478
0.505886
0.412096
0.671043
0.92449
0.300112
0.555264
0.934962
0.626135
0.921879
0.351927
0.539152
0.536925
0.628436
0.563004
0.429944
0.534956
0.318016
0.605656
0.615912
0.870139
0.713897
0.938535
0.52398
0.587634
0.43398
0.690634
0.310851
0.589082
1.02574
0.651166
0.581621
1.01169
0.49538
0.717498
0.765356
0.408371
0.557333
0.649361
0.732967
0.977621
0.998649
1.00252
0.743405
0.626261
0.63567
0.476978
0.897572
0.801042
0.53226
0.587544
0.574128
0.642929
0.998805
0.621906
0.993042
0.582524
0.774138
0.48004
0.53406
0.41813
0.552017
0.950192
0.581155
0.442262
0.479293
1.01227
0.557148
0.500467
0.497869
0.534632
0.823512
0.706476
0.721264
0.628187
0.831039
0.416926
0.653156
0.677126
0.59884
0.92322
0.935447
0.486695
0.944117
0.969546
0.925978
0.691267
0.605127
0.556607
0.625933
0.983418
0.648256
0.744312
0.937571
1.00607
0.972069
0.931405
0.542568
0.777
0.666989
0.496145
0.401788
0.62132
0.922355
1.00922
0.984321
0.578481
0.471561
0.467072
0.45063
0.803602
1.00364
0.76812
0.848996
0.86794
0.867538
0.84134
0.529703
0.578249
0.543117
0.4802
0.540161
0.601823
0.454953
0.584716
0.547033
0.956481
0.749065
0.406152
0.987052
0.559821
0.537767
0.633977
0.491562
0.843948
0.837186
0.556282
0.769221
0.999102
1.00675
0.793597
0.821211