/*--------------------------------*- C++ -*----------------------------------*\
  =========                 |
  \\      /  F ield         | OpenFOAM: The Open Source CFD Toolbox
   \\    /   O peration     | Website:  https://openfoam.org
    \\  /    A nd           | Version:  6
     \\/     M anipulation  |
\*---------------------------------------------------------------------------*/
FoamFile
{
    version     2.0;
    format      ascii;
    class       volScalarField;
    location    "./ITHACAoutput/Offline/1";
    object      P_rec;
}
// * * * * * * * * * * * * * * * * * * * * * * * * * * * * * * * * * * * * * //

dimensions      [0 2 -2 0 0 0 0];

internalField   nonuniform List<scalar> 
40000
(
0.013072
0.0130718
0.0130706
0.0130681
0.0130646
0.0130602
0.0130552
0.0130497
0.0130441
0.0130384
0.0130328
0.0130273
0.013022
0.013017
0.0130123
0.013008
0.013004
0.0130005
0.0129973
0.0129945
0.0129921
0.0129902
0.0129886
0.0129874
0.0129866
0.0129861
0.012986
0.0129862
0.0129868
0.0129877
0.0129889
0.0129904
0.0129922
0.0129943
0.0129967
0.0129994
0.0130023
0.0130056
0.0130091
0.0130128
0.0130169
0.0130212
0.0130258
0.0130306
0.0130357
0.0130411
0.0130468
0.0130527
0.0130589
0.0130654
0.0130722
0.0130792
0.0130865
0.0130941
0.013102
0.0131101
0.0131185
0.0131273
0.0131362
0.0131455
0.013155
0.0131648
0.0131748
0.0131851
0.0131956
0.0132064
0.0132174
0.0132286
0.0132399
0.0132515
0.0132633
0.0132752
0.0132873
0.0132995
0.0133119
0.0133243
0.0133368
0.0133493
0.013362
0.0133746
0.0133872
0.0133998
0.0134124
0.0134249
0.0134373
0.0134496
0.0134618
0.0134738
0.0134857
0.0134974
0.0135088
0.0135201
0.013531
0.0135417
0.0135522
0.0135623
0.0135721
0.0135815
0.0135907
0.0135994
0.0136078
0.0136158
0.0136235
0.0136307
0.0136375
0.013644
0.01365
0.0136556
0.0136608
0.0136657
0.0136701
0.0136741
0.0136777
0.0136809
0.0136837
0.0136862
0.0136882
0.0136899
0.0136913
0.0136923
0.0136929
0.0136932
0.0136932
0.0136929
0.0136922
0.0136913
0.01369
0.0136884
0.0136865
0.0136843
0.0136819
0.0136791
0.0136761
0.0136727
0.0136691
0.0136652
0.0136609
0.0136564
0.0136516
0.0136464
0.013641
0.0136352
0.0136292
0.0136228
0.013616
0.013609
0.0136016
0.0135939
0.0135858
0.0135775
0.0135688
0.0135597
0.0135504
0.0135407
0.0135308
0.0135205
0.01351
0.0134992
0.0134881
0.0134768
0.0134653
0.0134537
0.0134418
0.0134298
0.0134177
0.0134055
0.0133933
0.013381
0.0133688
0.0133565
0.0133444
0.0133324
0.0133205
0.0133088
0.0132973
0.0132861
0.0132752
0.0132646
0.0132543
0.0132445
0.0132351
0.0132262
0.0132177
0.0132099
0.0132025
0.0131958
0.0131896
0.0131841
0.0131793
0.0131751
0.0131716
0.0131689
0.0131668
0.0131654
0.0131646
0.0131645
0.0131649
0.0131657
0.0131667
0.0131674
0.0130721
0.013072
0.0130709
0.0130686
0.0130654
0.0130614
0.0130568
0.0130519
0.0130467
0.0130415
0.0130363
0.0130311
0.0130262
0.0130215
0.0130171
0.013013
0.0130092
0.0130059
0.0130028
0.0130002
0.0129979
0.012996
0.0129945
0.0129933
0.0129925
0.0129921
0.012992
0.0129922
0.0129927
0.0129936
0.0129947
0.0129962
0.0129979
0.013
0.0130023
0.0130049
0.0130078
0.0130109
0.0130144
0.013018
0.013022
0.0130262
0.0130307
0.0130354
0.0130404
0.0130457
0.0130513
0.0130571
0.0130632
0.0130696
0.0130762
0.0130831
0.0130903
0.0130978
0.0131055
0.0131135
0.0131218
0.0131304
0.0131393
0.0131484
0.0131577
0.0131674
0.0131772
0.0131874
0.0131978
0.0132083
0.0132192
0.0132302
0.0132414
0.0132529
0.0132645
0.0132763
0.0132882
0.0133002
0.0133124
0.0133246
0.013337
0.0133494
0.0133618
0.0133743
0.0133868
0.0133993
0.0134117
0.013424
0.0134363
0.0134485
0.0134605
0.0134724
0.0134841
0.0134957
0.013507
0.0135181
0.013529
0.0135396
0.0135499
0.0135599
0.0135696
0.013579
0.013588
0.0135967
0.013605
0.013613
0.0136205
0.0136277
0.0136345
0.0136408
0.0136468
0.0136524
0.0136576
0.0136623
0.0136667
0.0136707
0.0136742
0.0136774
0.0136802
0.0136826
0.0136846
0.0136863
0.0136876
0.0136886
0.0136892
0.0136895
0.0136895
0.0136891
0.0136884
0.0136874
0.0136861
0.0136845
0.0136826
0.0136804
0.0136779
0.0136751
0.013672
0.0136687
0.013665
0.0136611
0.0136568
0.0136523
0.0136474
0.0136423
0.0136368
0.013631
0.0136249
0.0136185
0.0136118
0.0136047
0.0135974
0.0135897
0.0135816
0.0135733
0.0135646
0.0135556
0.0135463
0.0135367
0.0135268
0.0135166
0.0135061
0.0134954
0.0134844
0.0134733
0.0134619
0.0134503
0.0134386
0.0134267
0.0134148
0.0134027
0.0133907
0.0133785
0.0133665
0.0133544
0.0133425
0.0133306
0.0133189
0.0133075
0.0132962
0.0132852
0.0132744
0.013264
0.013254
0.0132444
0.0132352
0.0132264
0.0132182
0.0132105
0.0132033
0.0131967
0.0131907
0.0131853
0.0131805
0.0131764
0.013173
0.0131702
0.0131681
0.0131667
0.0131659
0.0131656
0.0131659
0.0131665
0.0131674
0.013168
0.0130733
0.013073
0.013072
0.0130698
0.0130669
0.0130633
0.0130593
0.0130548
0.0130502
0.0130454
0.0130407
0.013036
0.0130314
0.0130271
0.013023
0.0130192
0.0130157
0.0130126
0.0130097
0.0130072
0.0130051
0.0130033
0.0130019
0.0130008
0.013
0.0129995
0.0129994
0.0129996
0.0130001
0.013001
0.0130021
0.0130035
0.0130052
0.0130071
0.0130094
0.0130119
0.0130147
0.0130177
0.013021
0.0130246
0.0130284
0.0130325
0.0130369
0.0130415
0.0130464
0.0130515
0.0130569
0.0130626
0.0130686
0.0130748
0.0130813
0.013088
0.0130951
0.0131024
0.01311
0.0131178
0.0131259
0.0131343
0.013143
0.0131519
0.0131611
0.0131705
0.0131802
0.0131902
0.0132003
0.0132107
0.0132214
0.0132322
0.0132433
0.0132545
0.0132659
0.0132775
0.0132892
0.013301
0.013313
0.0133251
0.0133372
0.0133494
0.0133617
0.013374
0.0133863
0.0133986
0.0134108
0.013423
0.0134351
0.0134471
0.013459
0.0134707
0.0134823
0.0134937
0.0135049
0.0135158
0.0135266
0.013537
0.0135472
0.0135571
0.0135667
0.013576
0.0135849
0.0135935
0.0136017
0.0136095
0.013617
0.0136241
0.0136308
0.0136371
0.013643
0.0136485
0.0136536
0.0136583
0.0136626
0.0136665
0.01367
0.0136731
0.0136759
0.0136783
0.0136803
0.0136819
0.0136832
0.0136841
0.0136847
0.0136849
0.0136848
0.0136844
0.0136837
0.0136827
0.0136813
0.0136797
0.0136777
0.0136755
0.013673
0.0136701
0.013667
0.0136636
0.0136599
0.0136559
0.0136517
0.0136471
0.0136422
0.0136371
0.0136316
0.0136258
0.0136197
0.0136133
0.0136065
0.0135995
0.0135921
0.0135844
0.0135764
0.0135681
0.0135594
0.0135505
0.0135412
0.0135317
0.0135218
0.0135117
0.0135013
0.0134907
0.0134799
0.0134688
0.0134575
0.0134461
0.0134345
0.0134228
0.013411
0.0133992
0.0133873
0.0133753
0.0133635
0.0133516
0.0133399
0.0133283
0.0133168
0.0133056
0.0132945
0.0132838
0.0132733
0.0132631
0.0132533
0.0132439
0.013235
0.0132264
0.0132184
0.0132109
0.0132039
0.0131975
0.0131916
0.0131864
0.0131818
0.0131777
0.0131744
0.0131716
0.0131695
0.013168
0.0131671
0.0131668
0.0131669
0.0131674
0.0131682
0.013169
0.0130758
0.0130753
0.013074
0.0130719
0.0130691
0.0130658
0.013062
0.0130578
0.0130535
0.0130492
0.0130448
0.0130404
0.0130362
0.0130322
0.0130284
0.0130249
0.0130216
0.0130186
0.0130159
0.0130136
0.0130116
0.0130099
0.0130085
0.0130075
0.0130068
0.0130063
0.0130062
0.0130064
0.0130069
0.0130077
0.0130088
0.0130101
0.0130118
0.0130137
0.0130158
0.0130183
0.0130209
0.0130239
0.0130271
0.0130306
0.0130343
0.0130383
0.0130425
0.013047
0.0130518
0.0130568
0.013062
0.0130676
0.0130734
0.0130795
0.0130858
0.0130924
0.0130993
0.0131065
0.0131139
0.0131216
0.0131295
0.0131378
0.0131463
0.013155
0.013164
0.0131733
0.0131828
0.0131926
0.0132026
0.0132128
0.0132233
0.0132339
0.0132448
0.0132559
0.0132671
0.0132785
0.01329
0.0133017
0.0133135
0.0133254
0.0133374
0.0133495
0.0133616
0.0133737
0.0133858
0.0133979
0.01341
0.0134221
0.013434
0.0134459
0.0134576
0.0134692
0.0134807
0.013492
0.013503
0.0135139
0.0135245
0.0135349
0.013545
0.0135548
0.0135643
0.0135734
0.0135823
0.0135908
0.0135989
0.0136067
0.0136141
0.0136211
0.0136277
0.0136339
0.0136398
0.0136452
0.0136502
0.0136549
0.0136591
0.013663
0.0136664
0.0136695
0.0136722
0.0136745
0.0136765
0.0136781
0.0136793
0.0136802
0.0136807
0.0136809
0.0136808
0.0136803
0.0136796
0.0136785
0.0136771
0.0136754
0.0136734
0.0136712
0.0136686
0.0136657
0.0136626
0.0136592
0.0136554
0.0136514
0.0136471
0.0136425
0.0136376
0.0136324
0.0136269
0.0136211
0.013615
0.0136086
0.0136019
0.0135948
0.0135874
0.0135798
0.0135717
0.0135634
0.0135548
0.0135459
0.0135367
0.0135272
0.0135174
0.0135073
0.013497
0.0134865
0.0134757
0.0134647
0.0134535
0.0134422
0.0134308
0.0134192
0.0134075
0.0133958
0.013384
0.0133723
0.0133606
0.0133489
0.0133373
0.0133259
0.0133146
0.0133035
0.0132927
0.0132821
0.0132718
0.0132619
0.0132523
0.0132431
0.0132343
0.0132259
0.0132181
0.0132107
0.0132039
0.0131976
0.0131919
0.0131868
0.0131822
0.0131783
0.013175
0.0131723
0.0131702
0.0131687
0.0131677
0.0131673
0.0131674
0.0131679
0.0131689
0.0131698
0.0130794
0.0130785
0.013077
0.0130747
0.0130719
0.0130686
0.0130649
0.0130611
0.013057
0.0130529
0.0130488
0.0130447
0.0130408
0.013037
0.0130335
0.0130301
0.0130271
0.0130243
0.0130218
0.0130196
0.0130177
0.0130161
0.0130148
0.0130138
0.0130131
0.0130128
0.0130127
0.0130128
0.0130133
0.0130141
0.0130151
0.0130164
0.013018
0.0130198
0.0130219
0.0130243
0.0130269
0.0130297
0.0130329
0.0130362
0.0130398
0.0130437
0.0130478
0.0130522
0.0130568
0.0130617
0.0130668
0.0130722
0.0130779
0.0130838
0.01309
0.0130965
0.0131032
0.0131102
0.0131175
0.013125
0.0131328
0.0131409
0.0131492
0.0131578
0.0131667
0.0131758
0.0131852
0.0131948
0.0132046
0.0132147
0.013225
0.0132355
0.0132462
0.0132571
0.0132681
0.0132794
0.0132908
0.0133023
0.0133139
0.0133257
0.0133375
0.0133495
0.0133614
0.0133734
0.0133854
0.0133974
0.0134094
0.0134213
0.0134331
0.0134449
0.0134565
0.013468
0.0134793
0.0134905
0.0135015
0.0135123
0.0135228
0.0135331
0.0135431
0.0135528
0.0135622
0.0135713
0.01358
0.0135885
0.0135965
0.0136042
0.0136116
0.0136185
0.0136251
0.0136312
0.013637
0.0136424
0.0136474
0.013652
0.0136562
0.0136599
0.0136634
0.0136664
0.013669
0.0136713
0.0136732
0.0136747
0.0136759
0.0136767
0.0136772
0.0136773
0.0136772
0.0136767
0.0136759
0.0136747
0.0136733
0.0136716
0.0136696
0.0136672
0.0136646
0.0136617
0.0136586
0.0136551
0.0136513
0.0136473
0.013643
0.0136383
0.0136334
0.0136282
0.0136227
0.0136169
0.0136107
0.0136043
0.0135976
0.0135905
0.0135831
0.0135755
0.0135675
0.0135592
0.0135506
0.0135417
0.0135325
0.013523
0.0135132
0.0135032
0.013493
0.0134825
0.0134718
0.0134609
0.0134498
0.0134385
0.0134271
0.0134157
0.0134041
0.0133925
0.0133808
0.0133692
0.0133576
0.0133461
0.0133347
0.0133234
0.0133122
0.0133013
0.0132906
0.0132802
0.0132701
0.0132603
0.0132508
0.0132418
0.0132332
0.013225
0.0132173
0.0132101
0.0132034
0.0131972
0.0131916
0.0131866
0.0131821
0.0131783
0.013175
0.0131723
0.0131702
0.0131687
0.0131678
0.0131673
0.0131674
0.013168
0.0131691
0.0131702
0.0130839
0.0130826
0.0130806
0.0130781
0.0130751
0.0130718
0.0130682
0.0130645
0.0130606
0.0130566
0.0130527
0.0130489
0.0130452
0.0130417
0.0130383
0.0130352
0.0130323
0.0130297
0.0130273
0.0130253
0.0130235
0.013022
0.0130207
0.0130198
0.0130192
0.0130188
0.0130188
0.013019
0.0130194
0.0130202
0.0130212
0.0130224
0.013024
0.0130257
0.0130277
0.01303
0.0130325
0.0130353
0.0130383
0.0130416
0.0130451
0.0130488
0.0130528
0.0130571
0.0130616
0.0130664
0.0130714
0.0130766
0.0130822
0.0130879
0.013094
0.0131003
0.0131069
0.0131137
0.0131209
0.0131282
0.0131359
0.0131438
0.013152
0.0131604
0.0131691
0.0131781
0.0131873
0.0131967
0.0132064
0.0132163
0.0132265
0.0132368
0.0132474
0.0132581
0.013269
0.0132802
0.0132914
0.0133028
0.0133143
0.0133259
0.0133377
0.0133495
0.0133613
0.0133732
0.013385
0.0133969
0.0134088
0.0134206
0.0134324
0.013444
0.0134556
0.013467
0.0134782
0.0134893
0.0135002
0.0135109
0.0135214
0.0135316
0.0135415
0.0135511
0.0135605
0.0135695
0.0135782
0.0135866
0.0135946
0.0136022
0.0136095
0.0136164
0.0136229
0.013629
0.0136347
0.0136401
0.013645
0.0136495
0.0136536
0.0136574
0.0136607
0.0136637
0.0136663
0.0136685
0.0136703
0.0136718
0.0136729
0.0136737
0.0136741
0.0136742
0.013674
0.0136734
0.0136726
0.0136714
0.0136699
0.0136682
0.0136661
0.0136637
0.0136611
0.0136581
0.0136549
0.0136514
0.0136476
0.0136435
0.0136392
0.0136345
0.0136296
0.0136243
0.0136188
0.013613
0.0136068
0.0136004
0.0135936
0.0135865
0.0135792
0.0135715
0.0135635
0.0135552
0.0135466
0.0135377
0.0135285
0.0135191
0.0135094
0.0134994
0.0134892
0.0134787
0.013468
0.0134571
0.0134461
0.0134349
0.0134236
0.0134122
0.0134007
0.0133892
0.0133776
0.0133661
0.0133546
0.0133432
0.0133318
0.0133207
0.0133097
0.0132989
0.0132883
0.013278
0.013268
0.0132583
0.013249
0.0132401
0.0132316
0.0132236
0.013216
0.0132089
0.0132023
0.0131962
0.0131907
0.0131858
0.0131814
0.0131776
0.0131744
0.0131718
0.0131697
0.0131682
0.0131673
0.0131669
0.013167
0.0131677
0.0131689
0.0131702
0.013089
0.0130872
0.0130847
0.0130818
0.0130787
0.0130753
0.0130717
0.0130679
0.0130642
0.0130604
0.0130566
0.013053
0.0130494
0.0130461
0.0130429
0.0130399
0.0130372
0.0130347
0.0130325
0.0130306
0.0130289
0.0130275
0.0130263
0.0130255
0.0130249
0.0130246
0.0130245
0.0130247
0.0130252
0.0130259
0.0130269
0.0130281
0.0130296
0.0130313
0.0130333
0.0130354
0.0130379
0.0130405
0.0130435
0.0130466
0.01305
0.0130537
0.0130575
0.0130617
0.0130661
0.0130707
0.0130756
0.0130807
0.0130861
0.0130917
0.0130976
0.0131038
0.0131102
0.0131169
0.0131239
0.0131311
0.0131386
0.0131464
0.0131544
0.0131627
0.0131713
0.0131801
0.0131891
0.0131984
0.013208
0.0132178
0.0132278
0.013238
0.0132484
0.013259
0.0132698
0.0132808
0.0132919
0.0133032
0.0133146
0.0133261
0.0133377
0.0133494
0.0133612
0.013373
0.0133848
0.0133966
0.0134084
0.0134201
0.0134318
0.0134433
0.0134548
0.0134662
0.0134774
0.0134884
0.0134992
0.0135099
0.0135203
0.0135304
0.0135403
0.0135499
0.0135592
0.0135682
0.0135768
0.0135851
0.0135931
0.0136007
0.0136079
0.0136148
0.0136212
0.0136273
0.013633
0.0136382
0.0136431
0.0136476
0.0136517
0.0136554
0.0136586
0.0136615
0.0136641
0.0136662
0.013668
0.0136694
0.0136705
0.0136712
0.0136716
0.0136716
0.0136713
0.0136707
0.0136698
0.0136685
0.013667
0.0136652
0.0136631
0.0136607
0.013658
0.013655
0.0136517
0.0136482
0.0136443
0.0136402
0.0136358
0.0136311
0.0136261
0.0136209
0.0136153
0.0136094
0.0136033
0.0135968
0.01359
0.0135829
0.0135756
0.0135679
0.0135599
0.0135516
0.013543
0.0135341
0.0135249
0.0135155
0.0135057
0.0134958
0.0134855
0.0134751
0.0134645
0.0134536
0.0134426
0.0134315
0.0134202
0.0134088
0.0133974
0.0133859
0.0133744
0.013363
0.0133515
0.0133402
0.0133289
0.0133178
0.0133069
0.0132962
0.0132857
0.0132755
0.0132656
0.0132561
0.0132469
0.0132381
0.0132297
0.0132217
0.0132142
0.0132072
0.0132007
0.0131948
0.0131894
0.0131845
0.0131802
0.0131765
0.0131733
0.0131707
0.0131687
0.0131672
0.0131663
0.0131659
0.0131661
0.0131668
0.0131682
0.0131695
0.0130946
0.0130923
0.0130892
0.0130859
0.0130825
0.0130789
0.0130752
0.0130715
0.0130677
0.013064
0.0130604
0.0130569
0.0130535
0.0130502
0.0130472
0.0130444
0.0130418
0.0130395
0.0130374
0.0130356
0.013034
0.0130326
0.0130316
0.0130308
0.0130302
0.01303
0.0130299
0.0130301
0.0130306
0.0130313
0.0130322
0.0130334
0.0130349
0.0130365
0.0130384
0.0130405
0.0130429
0.0130455
0.0130483
0.0130513
0.0130546
0.0130582
0.0130619
0.013066
0.0130702
0.0130747
0.0130794
0.0130844
0.0130897
0.0130952
0.013101
0.013107
0.0131133
0.0131198
0.0131267
0.0131338
0.0131411
0.0131487
0.0131566
0.0131648
0.0131732
0.0131818
0.0131908
0.0131999
0.0132094
0.013219
0.0132289
0.013239
0.0132493
0.0132598
0.0132705
0.0132814
0.0132924
0.0133036
0.0133149
0.0133263
0.0133379
0.0133495
0.0133611
0.0133729
0.0133846
0.0133963
0.0134081
0.0134197
0.0134314
0.0134429
0.0134543
0.0134656
0.0134768
0.0134878
0.0134986
0.0135092
0.0135195
0.0135297
0.0135395
0.0135491
0.0135584
0.0135673
0.0135759
0.0135842
0.0135921
0.0135997
0.0136069
0.0136137
0.0136201
0.0136261
0.0136317
0.013637
0.0136418
0.0136462
0.0136503
0.0136539
0.0136571
0.01366
0.0136625
0.0136645
0.0136663
0.0136676
0.0136686
0.0136693
0.0136696
0.0136695
0.0136692
0.0136685
0.0136675
0.0136662
0.0136646
0.0136627
0.0136606
0.0136581
0.0136553
0.0136523
0.013649
0.0136454
0.0136415
0.0136373
0.0136329
0.0136282
0.0136231
0.0136178
0.0136122
0.0136063
0.0136001
0.0135936
0.0135868
0.0135797
0.0135723
0.0135646
0.0135566
0.0135483
0.0135397
0.0135307
0.0135216
0.0135121
0.0135024
0.0134924
0.0134822
0.0134718
0.0134611
0.0134503
0.0134393
0.0134281
0.0134169
0.0134055
0.0133941
0.0133827
0.0133712
0.0133598
0.0133484
0.0133371
0.0133259
0.0133149
0.013304
0.0132933
0.0132829
0.0132728
0.013263
0.0132535
0.0132444
0.0132356
0.0132273
0.0132195
0.013212
0.0132051
0.0131987
0.0131928
0.0131874
0.0131826
0.0131784
0.0131747
0.0131716
0.013169
0.013167
0.0131656
0.0131647
0.0131644
0.0131646
0.0131654
0.0131669
0.0131683
0.0131004
0.0130976
0.0130939
0.0130902
0.0130865
0.0130827
0.0130789
0.013075
0.0130713
0.0130676
0.013064
0.0130606
0.0130573
0.0130542
0.0130513
0.0130486
0.0130461
0.0130439
0.0130419
0.0130402
0.0130387
0.0130375
0.0130364
0.0130357
0.0130352
0.013035
0.0130349
0.0130352
0.0130356
0.0130363
0.0130372
0.0130384
0.0130398
0.0130413
0.0130432
0.0130452
0.0130475
0.01305
0.0130528
0.0130557
0.0130589
0.0130623
0.013066
0.0130699
0.013074
0.0130784
0.013083
0.0130879
0.013093
0.0130983
0.013104
0.0131099
0.013116
0.0131224
0.0131291
0.0131361
0.0131433
0.0131508
0.0131585
0.0131665
0.0131748
0.0131834
0.0131922
0.0132012
0.0132105
0.0132201
0.0132298
0.0132398
0.0132501
0.0132605
0.0132711
0.0132819
0.0132928
0.0133039
0.0133152
0.0133266
0.013338
0.0133496
0.0133612
0.0133729
0.0133846
0.0133963
0.013408
0.0134196
0.0134312
0.0134427
0.0134541
0.0134654
0.0134766
0.0134876
0.0134983
0.0135089
0.0135193
0.0135294
0.0135392
0.0135488
0.013558
0.013567
0.0135756
0.0135838
0.0135917
0.0135993
0.0136064
0.0136132
0.0136196
0.0136256
0.0136312
0.0136364
0.0136411
0.0136455
0.0136495
0.0136531
0.0136563
0.0136591
0.0136615
0.0136635
0.0136652
0.0136665
0.0136674
0.013668
0.0136682
0.0136681
0.0136677
0.0136669
0.0136659
0.0136645
0.0136629
0.0136609
0.0136586
0.0136561
0.0136533
0.0136502
0.0136468
0.0136431
0.0136392
0.013635
0.0136305
0.0136257
0.0136206
0.0136152
0.0136096
0.0136036
0.0135974
0.0135909
0.013584
0.0135769
0.0135694
0.0135617
0.0135536
0.0135453
0.0135366
0.0135277
0.0135185
0.013509
0.0134992
0.0134892
0.013479
0.0134686
0.0134579
0.0134471
0.0134361
0.0134249
0.0134137
0.0134023
0.0133909
0.0133794
0.013368
0.0133565
0.0133452
0.0133339
0.0133227
0.0133117
0.0133009
0.0132903
0.0132799
0.0132698
0.01326
0.0132506
0.0132415
0.0132328
0.0132246
0.0132168
0.0132094
0.0132026
0.0131962
0.0131904
0.013185
0.0131803
0.0131761
0.0131724
0.0131694
0.0131668
0.0131649
0.0131635
0.0131627
0.0131624
0.0131626
0.0131635
0.013165
0.0131664
0.0131063
0.013103
0.0130987
0.0130946
0.0130905
0.0130865
0.0130825
0.0130785
0.0130747
0.013071
0.0130675
0.0130641
0.0130609
0.0130579
0.013055
0.0130525
0.0130501
0.013048
0.0130461
0.0130444
0.013043
0.0130419
0.0130409
0.0130402
0.0130398
0.0130396
0.0130396
0.0130398
0.0130402
0.0130409
0.0130418
0.0130429
0.0130443
0.0130458
0.0130476
0.0130496
0.0130518
0.0130542
0.0130568
0.0130597
0.0130628
0.0130661
0.0130696
0.0130734
0.0130774
0.0130817
0.0130862
0.0130909
0.0130959
0.0131011
0.0131066
0.0131124
0.0131184
0.0131247
0.0131313
0.0131381
0.0131452
0.0131525
0.0131602
0.0131681
0.0131762
0.0131847
0.0131934
0.0132023
0.0132115
0.013221
0.0132306
0.0132406
0.0132507
0.013261
0.0132716
0.0132823
0.0132932
0.0133043
0.0133155
0.0133268
0.0133383
0.0133498
0.0133614
0.013373
0.0133847
0.0133964
0.0134081
0.0134198
0.0134314
0.0134429
0.0134543
0.0134656
0.0134767
0.0134877
0.0134985
0.0135091
0.0135195
0.0135296
0.0135394
0.013549
0.0135583
0.0135672
0.0135758
0.013584
0.0135919
0.0135995
0.0136066
0.0136134
0.0136198
0.0136257
0.0136313
0.0136364
0.0136412
0.0136455
0.0136495
0.013653
0.0136562
0.0136589
0.0136612
0.0136632
0.0136648
0.013666
0.0136669
0.0136674
0.0136675
0.0136674
0.0136669
0.0136661
0.0136649
0.0136635
0.0136617
0.0136597
0.0136573
0.0136547
0.0136518
0.0136486
0.0136452
0.0136414
0.0136374
0.0136331
0.0136286
0.0136237
0.0136186
0.0136131
0.0136074
0.0136014
0.0135951
0.0135885
0.0135816
0.0135744
0.0135669
0.0135591
0.013551
0.0135426
0.0135339
0.0135249
0.0135157
0.0135061
0.0134963
0.0134863
0.013476
0.0134655
0.0134548
0.013444
0.0134329
0.0134217
0.0134104
0.0133991
0.0133876
0.0133762
0.0133647
0.0133533
0.0133419
0.0133306
0.0133194
0.0133084
0.0132976
0.013287
0.0132766
0.0132665
0.0132568
0.0132474
0.0132383
0.0132297
0.0132214
0.0132137
0.0132063
0.0131995
0.0131932
0.0131874
0.0131821
0.0131774
0.0131732
0.0131696
0.0131666
0.0131641
0.0131622
0.0131608
0.01316
0.0131598
0.0131601
0.0131609
0.0131625
0.013164
0.0131122
0.0131084
0.0131035
0.0130989
0.0130945
0.0130902
0.013086
0.0130819
0.013078
0.0130743
0.0130707
0.0130673
0.0130642
0.0130612
0.0130585
0.013056
0.0130537
0.0130517
0.0130499
0.0130483
0.013047
0.0130459
0.013045
0.0130444
0.0130439
0.0130437
0.0130438
0.013044
0.0130445
0.0130451
0.013046
0.0130471
0.0130484
0.0130499
0.0130516
0.0130535
0.0130556
0.013058
0.0130605
0.0130633
0.0130663
0.0130695
0.0130729
0.0130766
0.0130804
0.0130846
0.013089
0.0130936
0.0130985
0.0131036
0.0131089
0.0131146
0.0131205
0.0131266
0.0131331
0.0131398
0.0131468
0.013154
0.0131615
0.0131693
0.0131774
0.0131857
0.0131943
0.0132032
0.0132123
0.0132217
0.0132313
0.0132412
0.0132513
0.0132616
0.0132721
0.0132828
0.0132936
0.0133047
0.0133159
0.0133272
0.0133386
0.0133501
0.0133617
0.0133734
0.0133851
0.0133968
0.0134085
0.0134202
0.0134318
0.0134434
0.0134548
0.0134661
0.0134773
0.0134884
0.0134992
0.0135098
0.0135202
0.0135304
0.0135402
0.0135498
0.0135591
0.0135681
0.0135767
0.013585
0.0135929
0.0136004
0.0136075
0.0136143
0.0136207
0.0136266
0.0136322
0.0136373
0.013642
0.0136463
0.0136502
0.0136537
0.0136568
0.0136595
0.0136618
0.0136637
0.0136652
0.0136664
0.0136672
0.0136676
0.0136677
0.0136674
0.0136668
0.0136659
0.0136647
0.0136632
0.0136613
0.0136592
0.0136568
0.013654
0.013651
0.0136478
0.0136442
0.0136404
0.0136362
0.0136319
0.0136272
0.0136222
0.013617
0.0136115
0.0136057
0.0135996
0.0135932
0.0135865
0.0135796
0.0135723
0.0135647
0.0135569
0.0135487
0.0135402
0.0135314
0.0135224
0.0135131
0.0135035
0.0134936
0.0134835
0.0134732
0.0134626
0.0134519
0.0134409
0.0134299
0.0134186
0.0134073
0.0133959
0.0133844
0.0133729
0.0133614
0.0133499
0.0133385
0.0133271
0.0133159
0.0133049
0.0132941
0.0132834
0.0132731
0.013263
0.0132532
0.0132438
0.0132348
0.0132261
0.0132179
0.0132102
0.0132029
0.013196
0.0131898
0.013184
0.0131787
0.013174
0.0131699
0.0131663
0.0131633
0.0131608
0.0131589
0.0131576
0.0131568
0.0131566
0.0131569
0.0131579
0.0131594
0.0131609
0.013118
0.0131136
0.0131081
0.0131031
0.0130984
0.0130937
0.0130893
0.0130851
0.0130811
0.0130773
0.0130737
0.0130704
0.0130672
0.0130643
0.0130616
0.0130592
0.013057
0.013055
0.0130533
0.0130518
0.0130505
0.0130495
0.0130487
0.0130481
0.0130477
0.0130475
0.0130475
0.0130478
0.0130482
0.0130489
0.0130497
0.0130508
0.013052
0.0130535
0.0130551
0.013057
0.013059
0.0130613
0.0130638
0.0130664
0.0130693
0.0130724
0.0130758
0.0130793
0.0130831
0.0130871
0.0130914
0.0130959
0.0131006
0.0131056
0.0131109
0.0131164
0.0131222
0.0131282
0.0131346
0.0131412
0.0131481
0.0131552
0.0131626
0.0131703
0.0131783
0.0131866
0.0131951
0.0132039
0.013213
0.0132223
0.0132319
0.0132417
0.0132518
0.013262
0.0132725
0.0132832
0.0132941
0.0133051
0.0133163
0.0133277
0.0133391
0.0133507
0.0133623
0.013374
0.0133858
0.0133975
0.0134093
0.013421
0.0134327
0.0134443
0.0134558
0.0134672
0.0134785
0.0134895
0.0135004
0.0135111
0.0135216
0.0135318
0.0135417
0.0135514
0.0135607
0.0135697
0.0135783
0.0135867
0.0135946
0.0136022
0.0136093
0.0136161
0.0136225
0.0136284
0.0136339
0.0136391
0.0136438
0.0136481
0.0136519
0.0136554
0.0136584
0.013661
0.0136633
0.0136651
0.0136666
0.0136676
0.0136684
0.0136687
0.0136687
0.0136683
0.0136677
0.0136666
0.0136653
0.0136636
0.0136617
0.0136595
0.0136569
0.0136541
0.013651
0.0136476
0.0136439
0.0136399
0.0136357
0.0136312
0.0136264
0.0136214
0.013616
0.0136104
0.0136045
0.0135983
0.0135918
0.013585
0.013578
0.0135706
0.0135629
0.0135549
0.0135467
0.0135381
0.0135293
0.0135201
0.0135107
0.013501
0.0134911
0.0134809
0.0134705
0.0134599
0.013449
0.013438
0.0134268
0.0134156
0.0134041
0.0133926
0.0133811
0.0133695
0.013358
0.0133464
0.0133349
0.0133235
0.0133123
0.0133012
0.0132903
0.0132797
0.0132693
0.0132592
0.0132494
0.0132399
0.0132309
0.0132222
0.013214
0.0132062
0.0131989
0.0131921
0.0131858
0.0131801
0.0131749
0.0131702
0.013166
0.0131625
0.0131595
0.013157
0.0131552
0.0131539
0.0131531
0.0131529
0.0131533
0.0131542
0.0131558
0.0131573
0.0131235
0.0131187
0.0131126
0.0131071
0.013102
0.0130971
0.0130925
0.0130881
0.0130839
0.01308
0.0130764
0.013073
0.0130699
0.013067
0.0130644
0.013062
0.0130598
0.0130579
0.0130563
0.0130548
0.0130536
0.0130526
0.0130519
0.0130513
0.0130509
0.0130508
0.0130508
0.0130511
0.0130515
0.0130522
0.013053
0.013054
0.0130552
0.0130566
0.0130582
0.01306
0.013062
0.0130642
0.0130666
0.0130692
0.013072
0.013075
0.0130782
0.0130816
0.0130853
0.0130892
0.0130934
0.0130978
0.0131024
0.0131073
0.0131125
0.0131179
0.0131236
0.0131295
0.0131358
0.0131423
0.0131491
0.0131561
0.0131635
0.0131711
0.0131791
0.0131873
0.0131957
0.0132045
0.0132135
0.0132228
0.0132324
0.0132422
0.0132522
0.0132625
0.013273
0.0132837
0.0132946
0.0133057
0.013317
0.0133283
0.0133399
0.0133515
0.0133632
0.013375
0.0133868
0.0133986
0.0134105
0.0134223
0.0134341
0.0134457
0.0134574
0.0134688
0.0134802
0.0134914
0.0135023
0.0135131
0.0135237
0.0135339
0.013544
0.0135537
0.0135631
0.0135721
0.0135809
0.0135892
0.0135972
0.0136048
0.013612
0.0136188
0.0136252
0.0136312
0.0136367
0.0136418
0.0136465
0.0136508
0.0136546
0.013658
0.013661
0.0136636
0.0136658
0.0136676
0.0136689
0.0136699
0.0136705
0.0136708
0.0136707
0.0136702
0.0136694
0.0136683
0.0136668
0.0136651
0.013663
0.0136606
0.0136579
0.0136549
0.0136517
0.0136481
0.0136443
0.0136402
0.0136359
0.0136312
0.0136263
0.0136211
0.0136156
0.0136098
0.0136038
0.0135975
0.0135909
0.0135839
0.0135767
0.0135692
0.0135614
0.0135534
0.013545
0.0135363
0.0135273
0.0135181
0.0135086
0.0134988
0.0134887
0.0134784
0.0134679
0.0134572
0.0134462
0.0134351
0.0134239
0.0134125
0.013401
0.0133894
0.0133777
0.0133661
0.0133544
0.0133428
0.0133312
0.0133198
0.0133085
0.0132973
0.0132864
0.0132757
0.0132652
0.013255
0.0132452
0.0132357
0.0132266
0.0132179
0.0132097
0.0132019
0.0131946
0.0131878
0.0131815
0.0131757
0.0131705
0.0131658
0.0131617
0.0131581
0.0131551
0.0131527
0.0131509
0.0131496
0.0131489
0.0131487
0.0131491
0.01315
0.0131517
0.0131532
0.0131286
0.0131234
0.0131168
0.0131109
0.0131053
0.0131002
0.0130953
0.0130907
0.0130864
0.0130824
0.0130788
0.0130753
0.0130722
0.0130693
0.0130667
0.0130644
0.0130623
0.0130604
0.0130588
0.0130574
0.0130563
0.0130553
0.0130546
0.013054
0.0130537
0.0130536
0.0130536
0.0130539
0.0130543
0.013055
0.0130558
0.0130568
0.0130579
0.0130593
0.0130608
0.0130626
0.0130645
0.0130666
0.0130689
0.0130714
0.0130741
0.013077
0.0130802
0.0130835
0.0130871
0.0130909
0.013095
0.0130993
0.0131038
0.0131086
0.0131137
0.013119
0.0131246
0.0131305
0.0131366
0.0131431
0.0131498
0.0131568
0.0131641
0.0131717
0.0131796
0.0131878
0.0131962
0.0132049
0.013214
0.0132233
0.0132328
0.0132427
0.0132528
0.0132631
0.0132736
0.0132844
0.0132953
0.0133065
0.0133178
0.0133293
0.0133409
0.0133526
0.0133644
0.0133763
0.0133882
0.0134002
0.0134121
0.0134241
0.013436
0.0134478
0.0134595
0.0134711
0.0134826
0.0134939
0.013505
0.0135159
0.0135266
0.013537
0.0135471
0.0135569
0.0135664
0.0135755
0.0135843
0.0135928
0.0136008
0.0136085
0.0136158
0.0136226
0.013629
0.013635
0.0136406
0.0136457
0.0136504
0.0136546
0.0136584
0.0136618
0.0136648
0.0136673
0.0136694
0.0136711
0.0136724
0.0136733
0.0136738
0.013674
0.0136737
0.0136732
0.0136722
0.013671
0.0136694
0.0136674
0.0136652
0.0136627
0.0136598
0.0136567
0.0136532
0.0136496
0.0136456
0.0136413
0.0136367
0.0136319
0.0136268
0.0136215
0.0136158
0.0136099
0.0136037
0.0135972
0.0135904
0.0135833
0.0135759
0.0135683
0.0135603
0.0135521
0.0135435
0.0135347
0.0135256
0.0135162
0.0135066
0.0134967
0.0134865
0.0134761
0.0134654
0.0134545
0.0134435
0.0134323
0.0134209
0.0134094
0.0133977
0.013386
0.0133743
0.0133625
0.0133507
0.013339
0.0133274
0.0133158
0.0133044
0.0132932
0.0132821
0.0132713
0.0132608
0.0132506
0.0132407
0.0132311
0.013222
0.0132132
0.013205
0.0131971
0.0131898
0.0131829
0.0131766
0.0131708
0.0131656
0.0131609
0.0131568
0.0131532
0.0131502
0.0131478
0.013146
0.0131448
0.0131441
0.0131439
0.0131444
0.0131453
0.013147
0.0131485
0.0131334
0.0131277
0.0131206
0.0131142
0.0131084
0.0131029
0.0130977
0.013093
0.0130886
0.0130845
0.0130807
0.0130773
0.0130741
0.0130712
0.0130686
0.0130663
0.0130642
0.0130624
0.0130609
0.0130595
0.0130584
0.0130575
0.0130568
0.0130563
0.013056
0.0130559
0.0130559
0.0130562
0.0130566
0.0130572
0.013058
0.013059
0.0130601
0.0130614
0.0130629
0.0130646
0.0130664
0.0130685
0.0130707
0.0130731
0.0130758
0.0130786
0.0130817
0.013085
0.0130884
0.0130922
0.0130961
0.0131003
0.0131048
0.0131095
0.0131145
0.0131197
0.0131253
0.0131311
0.0131372
0.0131435
0.0131502
0.0131572
0.0131645
0.013172
0.0131799
0.0131881
0.0131965
0.0132053
0.0132144
0.0132237
0.0132333
0.0132432
0.0132533
0.0132637
0.0132743
0.0132852
0.0132962
0.0133075
0.0133189
0.0133305
0.0133423
0.0133541
0.013366
0.0133781
0.0133902
0.0134023
0.0134144
0.0134265
0.0134386
0.0134505
0.0134624
0.0134742
0.0134858
0.0134973
0.0135086
0.0135196
0.0135304
0.0135409
0.0135512
0.0135611
0.0135707
0.01358
0.0135889
0.0135975
0.0136056
0.0136133
0.0136207
0.0136276
0.0136341
0.0136401
0.0136457
0.0136508
0.0136555
0.0136597
0.0136635
0.0136669
0.0136698
0.0136723
0.0136743
0.0136759
0.0136772
0.013678
0.0136784
0.0136784
0.013678
0.0136773
0.0136762
0.0136748
0.013673
0.0136709
0.0136685
0.0136658
0.0136627
0.0136594
0.0136558
0.0136519
0.0136477
0.0136432
0.0136384
0.0136334
0.0136281
0.0136225
0.0136166
0.0136105
0.0136041
0.0135974
0.0135904
0.0135831
0.0135755
0.0135677
0.0135596
0.0135511
0.0135424
0.0135334
0.0135241
0.0135146
0.0135047
0.0134947
0.0134843
0.0134737
0.0134629
0.0134519
0.0134407
0.0134293