/*--------------------------------*- C++ -*----------------------------------*\
  =========                 |
  \\      /  F ield         | OpenFOAM: The Open Source CFD Toolbox
   \\    /   O peration     | Website:  https://openfoam.org
    \\  /    A nd           | Version:  6
     \\/     M anipulation  |
\*---------------------------------------------------------------------------*/
FoamFile
{
    version     2.0;
    format      ascii;
    class       volScalarField;
    location    "0";
    object      p;
}
// * * * * * * * * * * * * * * * * * * * * * * * * * * * * * * * * * * * * * //

dimensions      [0 2 -2 0 0 0 0];

internalField   nonuniform List<scalar> 
13046
(
0.32246
0.293686
0.296265
0.336853
0.305997
0.283024
0.32368
0.285677
0.304456
0.180525
-0.173966
0.24572
0.328641
0.237336
0.284951
0.212402
0.240757
-0.0987128
0.32737
0.30317
0.321821
0.2085
0.244227
-0.111219
0.324987
0.315814
0.297087
0.315044
0.245238
0.283346
0.329572
0.269144
0.286043
0.329447
0.310782
0.308074
0.326803
0.315333
0.313834
0.309188
0.279548
0.290289
0.317625
0.329552
0.319969
0.327843
0.314624
0.312418
0.317275
0.284894
0.297142
0.235002
0.291589
0.266848
0.246532
0.260867
0.291611
0.0936306
0.274902
0.245598
0.301182
0.180868
0.278305
0.253036
-0.00163939
0.248403
0.277209
0.114767
0.241225
0.285153
0.134914
0.242538
0.0591202
0.26637
0.245369
0.326601
0.313472
0.312353
0.248169
0.253989
0.0324566
0.324456
0.30504
0.294906
0.249334
-0.0382754
0.230507
0.236287
0.258664
0.0138167
0.255778
0.205904
-0.00176506
0.295403
0.287727
0.151321
0.127228
0.26415
0.265642
0.260733
0.23697
0.0326495
0.333416
0.316059
0.30538
0.301401
0.280451
0.257381
0.298412
0.268403
0.285919
0.10659
0.242401
-0.32146
0.329198
0.25821
0.284207
0.283138
0.291392
0.107034
0.256643
0.143604
0.258661
0.165619
-0.21264
0.24407
0.315656
0.180046
0.277343
0.310847
0.278452
0.282468
0.257934
0.214735
0.038862
0.275667
0.0813624
0.262196
0.326378
0.257198
0.279594
0.315018
0.264005
0.291822
0.291228
0.25241
0.293083
0.302014
0.2978
0.275888
0.300396
0.154646
0.276216
0.31258
0.307533
0.278931
0.209438
0.26729
0.19385
0.266305
0.283255
0.280874
0.319158
0.231325
0.293041
0.174449
0.246837
-0.165572
0.132212
0.24315
-0.28523
0.270327
0.0552175
0.259264
0.309121
0.239038
0.267926
0.319066
0.296297
0.243501
0.25033
-0.117657
0.187925
0.308264
0.257941
0.261942
0.309611
0.297313
0.267347
0.319235
0.268122
0.293845
0.221398
0.289039
0.316419
0.206356
0.275568
0.228526
0.254486
-0.0290157
0.261348
0.234226
0.0512753
0.206299
-0.0133738
0.256081
0.220065
0.244676
0.281401
0.321662
0.256466
0.240834
0.0374531
-0.0520307
0.205446
0.253834
0.32542
0.315512
0.308541
0.31577
0.259655
0.279611
0.261421
0.224413
0.0586542
0.317558
0.22989
0.292621
0.245087
-0.23647
0.13725
0.279938
0.2478
0.2085
0.221189
0.0214596
0.259253
0.283872
0.215412
0.290077
0.305375
0.193722
0.277299
0.11365
0.233788
0.261746
0.25778
0.172432
0.273734
0.245984
-0.244182
0.122544
0.306421
0.269509
0.265712
0.121524
0.239396
-0.365069
0.318606
0.330404
0.29739
0.295936
0.293753
0.214034
0.225679
0.292487
0.284185
0.239293
0.246648
-0.00425097
0.30949
0.214818
0.270656
0.257619
0.140712
0.271332
0.275006
0.0931915
0.258744
0.319597
0.313651
0.327128
0.279375
0.194932
0.282631
0.310427
0.197001
0.268451
0.316928
0.318319
0.306331
0.258248
0.247456
0.279322
0.173922
0.278844
0.2609
0.256288
0.0718188
0.311619
0.267732
0.277001
0.281949
0.25278
0.195926
0.286959
0.134278
0.25287
0.294209
0.239527
0.257008
0.276218
0.27744
0.11208
0.25108
0.0959079
0.254412
0.249779
-0.0930461
0.197855
0.29356
0.1684
0.262368
-0.428201
0.240391
0.0659248
0.328942
0.310013
0.268785
0.309103
0.200656
0.280525
0.256778
0.24014
0.00890443
0.235036
0.250487
0.287809
0.0877013
0.231895
0.26126
0.260684
0.290013
0.296166
0.196232
0.276702
0.244432
0.296299
0.229251
0.242884
-0.0626316
0.230588
0.224725
0.283715
0.289656
0.177459
0.270362
0.30772
0.248028
0.295328
0.283501
0.240508
0.296548
0.329529
0.280508
0.299411
0.278253
0.258998
0.205614
0.216886
-0.0251005
0.255622
0.0962908
0.228905
0.264604
0.2811
0.240973
0.180534
0.265476
0.271199
0.0925065
0.0606551
0.241972
0.246804
0.241106
-0.403824
0.0842651
0.134515
0.239186
-0.339633
0.29396
0.202066
0.278823
0.252659
0.222495
-0.0617087
0.284036
0.286326
0.159358
0.135511
0.25525
0.250088
0.250978
-0.10589
0.167877
0.109087
0.238361
-0.397726
0.31269
0.327627
0.311668
0.105824
-0.357956
0.242179
0.310243
0.23059
0.26024
0.194897
-0.100805
0.251162
-0.412677
0.245434
0.0208751
0.311433
0.279344
0.301161
0.324848
0.310067
0.310007
0.166804
0.243139
-0.220923
0.320248
0.295468
0.307446
0.315302
0.32671
0.317476
0.282052
0.234294
0.210339
0.313433
0.305461
0.317562
0.331386
0.268191
0.312642
0.283997
0.197191
0.240155
0.243835
0.247044
-0.11953
-0.12743
0.200791
0.198414
0.197667
-0.0469791
0.253458
0.249239
0.280649
0.151034
0.302924
0.260198
0.274064
0.25048
0.162112
0.267585
-0.316535
0.245307
0.0558888
0.254614
0.200902
-0.0263033
0.143815
0.244017
-0.248121
0.24655
-0.444113
0.01576
-0.488604
0.243654
0.0427389
0.151901
0.277492
0.27114
-0.189859
0.248388
0.120759
0.263284
0.0721309
0.262472
0.19421
0.235429
-0.179842
0.325371
0.289767
0.28172
-0.0754961
0.252302
0.183019
0.251362
0.269958
0.174053
0.130803
0.257132
0.271953
0.24826
-0.582406
-0.035525
-0.393233
0.242371
0.0500801
0.329404
0.299656
0.281638
-0.118265
0.160923
0.251041
0.249732
0.14585
-0.129722
0.216361
0.249604
-0.0598381
0.242329
-0.00523689
0.241981
0.288733
0.193804
0.242545
0.105501
0.278095
0.252713
0.240499
0.23154
-0.0734
0.311305
0.308611
0.232831
0.213266
0.269335
0.271569
0.310564
0.244148
0.268346
0.290045
0.153163
0.256556
0.113799
0.242085
0.267153
-0.0629053
0.202035
0.253164
0.264311
0.246343
0.0847164
-0.481578
0.242239
0.0612893
0.324244
0.324046
0.289702
0.285282
0.296359
0.290181
0.301444
0.290665
0.256789
0.184796
0.25562
0.222796
-0.396881
0.244311
0.0239409
-0.101679
0.172534
0.25199
0.293533
0.242038
0.249875
0.135932
0.239338
0.266402
0.242638
0.014891
0.249098
-0.318808
0.0941218
0.24481
-0.281555
0.103945
0.245303
0.291543
0.147643
0.259164
0.312669
0.261829
0.288054
0.209002
0.248025
-0.0983598
0.134249
0.264614
0.271443
0.255851
0.0291579
0.257273
0.291436
0.259417
0.231703
0.290263
0.223928
0.290099
0.308317
0.272673
0.282017
0.248113
-0.117181
0.196145
0.273669
0.0847217
0.255243
0.319265
0.286249
0.297897
0.217111
0.236649
-0.113265
0.313215
0.268916
0.282577
0.319823
0.2633
0.305284
0.151269
0.267743
0.273728
0.158595
0.237794
-0.277171
0.169152
0.236617
-0.256575
0.253022
0.0197139
0.255521
0.279901
0.230961
0.285112
0.235966
-0.325305
0.137553
0.259459
0.0362308
0.254395
0.245625
-0.473521
-0.00533573
0.0259021
-0.513704
0.242377
0.243486
-0.0546312
0.236233
0.247023
-0.185993
0.160013
0.220054
0.22991
0.244469
-0.0885826
0.2474
-0.0487131
0.245137
0.046587
0.260655
0.271434
0.150961
0.230793
0.332955
0.29568
0.28882
0.256083
0.0742533
0.265343
0.266784
0.262009
0.0910104
0.238844
0.240097
-0.0488069
0.297177
0.166563
0.25364
0.302963
0.216437
0.253634
0.278075
0.144206
0.271854
0.274651
0.131931
0.271498
0.321341
0.280284
0.307279
0.30708
0.201171
0.27389
0.251944
-0.0635663
0.175865
0.0931451
0.24562
-0.277027
0.0768918
0.247151
-0.28003
0.311021
0.275481
0.267297
-0.350687
0.245036
0.0680668
0.265219
0.253333
0.0461053
0.244454
-0.343258
0.0486014
0.335203
0.310764
0.290436
0.312957
0.218147
0.279523
0.232179
0.276856
0.289285
0.249506
-0.166847
0.138707
0.128267
0.268327
0.271497
0.237455
0.208971
-0.134516
0.302566
0.200221
0.277126
0.334365
0.302148
0.292819
-0.16109
0.151436
0.248793
0.256119
0.0176388
0.250894
0.155708
0.141107
0.240681
0.240573
-0.262613
-0.295082
0.304678
0.228926
0.29057
0.169276
0.28426
0.27383
0.317059
0.27818
0.305462
-0.231343
0.11207
-0.223733
0.24628
0.112407
0.246743
0.290748
0.137597
0.270587
0.148978
0.130229
-0.181723
-0.214724
0.248717
0.24811
0.280385
0.188149
0.282315
0.312573
0.232241
0.284415
0.184711
0.237902
-0.20343
0.31691
0.211789
0.287873
0.322578
0.255271
0.297426
0.161371
0.238
-0.249471
0.306513
0.168264
0.268296
0.190657
0.234828
0.271902
0.293232
0.211641
0.253626
0.0613511
0.256995
0.212884
0.246028
-0.546844
-0.0148753
0.303656
0.208982
0.280344
0.197909
0.241219
-0.153572
0.237463
0.208096
0.285767
0.0638969
0.239145
-0.447385
0.308655
0.302601
0.26697
0.302378
0.267335
0.302739
0.324283
0.27349
0.307637
0.308536
0.312904
0.274602
0.307711
0.292577
0.300795
0.308418
0.239964
0.29409
0.317611
0.241437
0.29433
0.245951
-0.257891
0.0849961
0.312435
0.259728
0.267905
0.164875
-0.161842
0.248308
0.275685
0.268293
0.123487
0.0928827
0.267456
0.263844
0.310343
0.281549
0.276362
0.291989
0.177039
0.254245
0.291223
0.161714
0.275125
0.327423
0.311856
0.301678
0.266481
0.0952159
0.266823
0.325061
0.285943
0.300576
0.29171
0.185687
0.28135
0.293457
0.192557
0.254867
0.325189
0.32297
0.307441
0.306475
0.312718
0.300368
0.317352
0.276408
0.317536
0.314672
0.304644
0.305863
0.314897
0.316219
0.243025
0.23383
0.276297
0.269925
0.244926
0.00246406
0.251525
0.274424
0.246092
0.20259
0.247309
0.248717
-0.0285218
-0.0196706
0.240506
0.240252
0.290067
0.245239
0.247826
0.32749
0.314415
0.31547
0.264429
0.075152
0.264506
0.32129
0.281293
0.273195
0.292924
0.178796
0.255908
0.266995
0.270317
0.0459507
0.249618
0.0592675
0.251055
0.280827
0.118577
0.265556
0.0817714
-0.414141
0.239593
0.232127
0.225967
0.284463
0.285109
0.289048
0.239934
0.211362
0.252943
0.224334
0.254145
0.104764
0.267396
0.29162
0.198616
0.258743
0.294318
0.239314
0.235547
0.289261
0.301105
0.249276
0.267722
0.250167
0.237873
0.288439
0.257214
0.230616
0.283555
0.131433
0.269528
0.323115
0.289214
0.308639
0.178218
0.241696
-0.196281
0.292694
0.242679
0.222785
0.301409
0.296375
0.175815
0.158376
0.256417
0.26188
0.242075
-0.158438
0.194251
0.189236
0.239936
-0.188821
0.176184
0.239841
-0.215108
0.263404
0.250088
0.0375215
0.296522
0.215968
0.262928
-0.139593
-0.0405061
0.180896
-0.133025
0.115244
-0.310566
0.0442407
-0.0645813
-0.219617
0.101491
0.0972522
-0.25575
-0.145317
0.100438
-0.0649486
-0.150472
-0.113287
-0.0855536
-0.045166
0.0551305
-0.0251627
-0.0958605
0.118241
0.234314
0.193275
-0.0312905
0.132463
-0.245629
0.00195253
-0.156686
-0.230123
0.0380992
-0.03304
-0.0432591
-0.197691
-0.0149046
0.169161
0.114543
-0.100514
0.0103796
-0.119954
0.240489
-0.170479
0.0980807
0.142965
-0.106508
-0.095446
-0.151
-0.247199
-0.1713
0.196077
-0.0221214
-0.147045
-0.113903
-0.231638
0.189064
0.0572287
-0.0255039
-0.157844
0.0877098
-0.176322
-0.161244
0.19436
-0.0452042
-0.0268449
0.0608127
-0.007478
0.227732
0.116566
0.105732
-0.286415
-0.236807
-0.109558
0.0769608
-0.25308
-0.0447136
-0.0382332
-0.206604
0.075165
0.148297
-0.0851924
-0.040153
-0.238562
-0.170172
-0.116845
0.0874884
-0.114875
-0.121819
-0.07038
0.20142
-0.15282
0.08801
0.192721
-0.0391194
-0.146777
-0.380713
-0.191168
-0.14568
-0.147342
-0.290797
0.0301534
0.123095
0.156627
0.231561
-0.16272
-0.136004
-0.248305
-0.137359
-0.188179
0.16648
0.12935
0.0544147
-0.198411
-0.23879
0.0236168
0.124344
-0.0863816
-0.121341
-0.300913
-0.0936885
-0.0485014
0.210425
0.219337
0.0811206
-0.0211543
-0.100389
-0.252384
0.215123
-0.17955
0.0733797
-0.297136
0.192952
-0.236407
-0.190404
-0.157593
0.146241
-0.057043
-0.338612
-0.173545
0.0463562
-0.156067
0.0919602
0.0299756
-0.144407
0.142595
-0.114514
-0.17958
0.158025
-0.168704
-0.0787855
-0.252432
-0.00898491
-0.104017
0.152164
0.0865581
-0.0969156
0.0768593
0.0937052
0.176954
-0.034052
-0.113288
-0.149565
0.0958173
-0.178309
0.00941373
-0.239816
0.231319
-0.0905339
0.155042
0.212429
-0.0172767
0.219916
0.158358
0.174324
-0.202912
-0.304253
-0.25458
0.180962
-0.2048
-0.225184
-0.182781
-0.221627
-0.0815648
-0.114885
-0.0122041
0.212972
0.0833085
-0.119792
0.0848591
-0.131161
0.236189
-0.221498
0.133566
-0.144604
-0.31649
0.197865
0.215689
-0.153434
-0.14469
0.230504
0.00628571
-0.0995372
-0.185738
0.0777148
0.166198
0.068781
-0.166127
-0.156738
0.110664
-0.022905
-0.189458
0.0298728
-0.18474
-0.217914
-0.0998498
0.127747
-0.292896
-0.0757925
0.123944
-0.121733
-0.30049
-0.0955261
-0.14355
-0.104111
0.0266854
0.039412
-0.169265
-0.231159
-0.167911
0.0588157
0.061155
-0.0987341
0.0437154
-0.108312
-0.203536
0.010495
-0.118408
-0.321735
0.070503
0.156562
-0.00997509
0.199198
0.1707
0.238722
-0.147608
-0.34747
-0.0696448
-0.0976091
-0.10825
-0.283459
0.0159213
0.193025
0.0740296
0.00586141
-0.177871
-0.0924318
0.0878359
-0.0278517
0.0493975
-0.167312
-0.0667704
-0.122761
-0.197764
-0.172902
-0.14495
-0.151116
-0.205207
0.0438808
-0.0221501
-0.0949849
0.0531484
-0.130931
-0.0799886
-0.171069
-0.0949762
-0.129866
-0.135772
0.00040165
-0.282366
-0.35601
-0.0608836
-0.262318
-0.296501
0.00480508
-0.221452
-0.293578
0.153668
0.0493757
-0.1742
0.0800238
-0.22254
0.0371095
0.0327958
-0.177059
-0.140582
0.123352
-0.0652796
0.0903474
-0.317897
-0.183359
0.157648
-0.129602
-0.157786
-0.381239
-0.280119
-0.312503
-0.270527
-0.118502
0.0514982
-0.207348
-0.31007
-0.189372
-0.134943
0.236858
-0.139978
0.0744986
0.0129815
-0.202067
-0.0855764
-0.175456
-0.239327
0.0295965
-0.10582
0.192253
0.0588724
-0.171875
-0.113155
-0.0191405
0.234128
0.0829216
0.170383
0.0869122
-0.115591
-0.0117164
-0.0821473
-0.198158
-0.275893
-0.143064
-0.103434
0.0544523
-0.16501
-0.258677
-0.143753
-0.090984
-0.149667
-0.114662
0.137066
-0.111541
-0.138898
0.183625
0.142814
-0.174616
-0.0109285
0.167026
-0.179576
-0.228194
-0.109822
-0.204403
-0.237171
0.163354
-0.185497
-0.084766
0.174038
-0.298444
-0.0138264
-0.160996
-0.0151004
-0.107634
-0.152894
-0.371528
-0.0822609
-0.256669
-0.149358
-0.104131
-0.105978
0.0812496
0.192036
-0.149762
-0.018939
-0.0867415
-0.154996
-0.32828
0.12813
0.028
-0.143325
-0.258863
0.0039299
-0.256618
-0.12933
-0.161521
-0.187036
0.109091
0.190166
-0.12265
0.0758153
0.231197
0.133902
0.134112
0.178038
-0.104916
-0.135431
-0.233748
0.231518
0.122617
0.155529
-0.157141
-0.118734
-0.306529
0.0886183
-0.10083
-0.146744
0.155579
0.0440023
-0.171021
-0.0852875
-0.165347
-0.145854
-0.163954
-0.112724
-0.0939898
-0.20678
-0.119479
-0.273431
-0.0856129
-0.208025
0.0425213
-0.031672
-0.29302
0.169059
0.183535
0.0838132
-0.132606
-0.00664611
-0.220198
0.0993083
-0.0266647
-0.256669
0.164731
-0.267657
0.194612
-0.267634
-0.081375
-0.062985
0.0811738
0.105335
-0.14667
0.210647
-0.139428
0.139323
-0.0809717
0.0419874
-0.131577
-0.150938
-0.147582
0.146122
-0.0650593
0.228614
0.062173
-0.279011
-0.13883
0.0381752
-0.250691
-0.128764
-0.0787958
-0.208539
0.200107
-0.168941
-0.190061
0.109224
-0.149365
0.191838
0.222685
-0.109409
0.229097
0.207269
0.141839
0.16094
0.0076286
-0.246994
-0.175845
-0.100739
0.126108
-0.0984833
-0.266374
0.2086
-0.208152
-0.0869353
-0.184496
0.17497
0.235014
-0.195649
0.134788
0.013149
0.191707
-0.0785183
0.0926848
-0.103289
0.211963
0.225418
0.0626138
-0.177052
0.111447
-0.114089
-0.0138104
-0.037426
-0.0773367
0.0153797
-0.121019
-0.265415
-0.231208
-0.0656039
0.0345988
-0.0161388
0.159735
-0.193363
-0.103541
0.0379959
-0.227167
0.181928
-0.155282
-0.103387
0.175539
0.148333
-0.00297806
0.216578
-0.163223
-0.118824
0.0980935
-0.0354373
-0.0402502
-0.0837158
-0.145093
0.0404808
0.0694665
-0.144028
-0.162431
-0.00603482
-0.281564
-0.210804
0.193224
0.229965
0.227337
-0.0634386
0.236016
0.232896
0.204482
-0.331604
0.0203049
0.0139849
0.21621
-0.120165
-0.146914
-0.249641
-0.179157
-0.2915
0.208625
-0.0689088
-0.0589049
0.0973693
0.0626044
-0.125974
-0.105389
0.232242
0.212937
0.169528
0.0605336
-0.141724
0.0752971
0.0422095
-0.122643
-0.0606477
-0.234232
-0.183147
-0.0296622
-0.0556178
-0.131395
0.193717
0.192523
-0.324762
0.14537
-0.152808
-0.160876
-0.104196
0.188685
-0.0909685
0.0629011
-0.0738097
0.172806
-0.113275
-0.071585
0.225073
-0.307598
-0.284769
-0.164538
-0.199994
-0.353639
-0.403596
-0.187995
-0.346883
-0.0466615
-0.32593
-0.222803
-0.0561467
-0.161267
-0.185221
-0.122411
-0.247306
-0.382184
0.208122
0.139494
-0.107075
-0.253678
0.145497
-0.134561
-0.147091
0.22379
-0.177985
0.222755
-0.0876787
0.153191
-0.0633548
-0.214506
-0.23033
-0.0197149
-0.0177966
-0.045585
-0.214336
-0.106316
-0.218856
-0.19811
-0.131841
-0.293385
-0.241656
0.206049
-0.160684
0.0694683
0.104915
-0.118029
0.115301
0.108671
-0.249295
-0.393012
-0.0803858
-0.275204
-0.346754
0.0781033
0.0839773
-0.105269
0.0362924
-0.124461
0.226261
0.205039
-0.0819385
-0.135412
0.213835
0.160919
0.0268621
0.0255008
-0.117561
0.228969
-0.0257817
-0.326927
0.176374
0.133209
0.194147
-0.0156573
-0.174609
-0.108321
0.0866523
0.0327565
-0.454902
0.242168
-0.0830806
-0.170292
-0.0314177
0.157696
0.222944
0.226774
0.0352933
-0.0520022
0.114151
0.163958
0.178887
0.0706452
0.128192
-0.19536
-0.153391
0.00271971
-0.232786
-0.19947
-0.292689
-0.0860962
0.109787
-0.275162
-0.0317893
-0.139815
0.128845
0.226664
-0.0723364
-0.249633
-0.305371
0.0911036
-0.142718
-0.183701
-0.301174
0.184374
-0.000163498
0.0129419
-0.264139
0.0156537
-0.182422
-0.160508
0.0842463
0.105498
0.190577
0.233692
-0.186584
0.166759
-0.324001
0.17968
0.192274
0.193305
0.115576
-0.208569
-0.208067
-0.101033
-0.327546
-0.0317346
-0.297477
0.0149198
-0.256701
0.151848
-0.117336
-0.313158
0.14842
0.0956273
-0.0723972
-0.063109
0.0658802
0.187269
0.000974244
-0.0449917
-0.318314
0.133449
-0.013139
0.21175
-0.347884
-0.0532241
0.177871
0.0849695
0.217011
0.0919342
-0.104451
-0.371519
-0.317078
-0.0634849
-0.281661
0.208108
-0.32258
-0.120676
-0.0742516
-0.184553
0.118408
-0.343411
0.176802
0.0884659
0.0169919
-0.261792
0.0456073
-0.155544
-0.0957161
-0.0660798
-0.0730525
-0.120174
-0.139349
0.112955
-0.204533
0.23554
-0.12804
-0.046665
0.0551153
0.0857175
0.206303
-0.118914
-0.09149
-0.185181
-0.0559235
-0.14339
0.200925
-0.180396
-0.0370843
-0.119461
0.135203
-0.168728
-0.0190199
-0.245053
0.227678
-0.330995
-0.209322
-0.111803
0.142241
-0.307427
-0.29392
-0.218318
-0.258579
0.191329
-0.0460898
0.0692345
0.153207
0.05051
-0.0216048
0.228005
-0.0316181
0.0930756
0.0450361
-0.0179698
-0.292289
-0.00670826
-0.0672769
-0.126169
-0.00312039
-0.180174
-0.279711
-0.021754
-0.0923324
-0.206825
0.128139
-0.0489388
0.0650601
-0.0725416
0.204379
-0.0763061
-0.0719386
0.0455774
-0.262347
-0.189956
-0.118995
-0.0202823
0.000850842
0.0335966
0.187292
0.0816801
0.12362
-0.016583
0.167035
0.209905
0.205641
-0.0013878
-0.0340223
0.0119276
-0.24192
0.219306
0.159488
0.138291
-0.0465164
-0.20949
-0.289406
0.0121947
0.0842096
-0.164012
0.136582
0.157367
0.0320139
-0.148899
-0.011867
-0.12941
-0.152946
-0.0442431
-0.139634
0.0130932
-0.30079
0.0170349
-0.0571045
-0.0806875
-0.34071
-0.00116453
-0.0301906
0.0617527
-0.120465
0.00383841
0.185144
0.199433
0.0151767
-0.0839377
0.125285
-0.022215
-0.184693
-0.187242
-0.0884629
-0.2666
0.186458
-0.0549652
-0.00864769
0.0887208
0.074426
0.0383389
-0.185097
0.232318
0.0453559
-0.17516
-0.0490377
-0.0364448
0.124833
0.179129
0.0479707
0.0207573
-0.304653
-0.206012
-0.0802408
0.0280254
-0.0354725
0.0157813
-0.155063
0.195694
0.0258944
0.114448
0.165194
-0.0050557
-0.165271
-0.0223748
0.219331
-0.151877
-0.31356
-0.0247775
0.22765
-0.135166
-0.0877155
0.114619
0.0836151
0.143024
-0.0503449
-0.301021
0.0256039
-0.251439
-0.127521
0.142522
-0.0608277
-0.235182
-0.171074
-0.138981
0.040137
-0.118409
-0.136978
0.171034
-0.170346
0.228993
0.138748
-0.254344
-0.360627
-0.0520849
0.0934795
0.161993
-0.0532703
-0.0800036
-0.15328
-0.0995646
-0.0725624
0.233864
0.17813
0.0925706
-0.106766
-0.288529
0.186326
0.231323
0.194621
0.125245
0.174002
-0.0286328
-0.24308
-0.332944
-0.312293
0.203943
-0.0329449
-0.161113
-0.0969468
0.229669
-0.118024
-0.149221
-0.26968
-0.049686
-0.192985
0.233993
0.027456
0.0883597
0.173741
0.15701
-0.0961972
0.0479729
-0.0325937
0.0734378
-0.162601
0.0328874
-0.154179
0.19957
-0.203622
-0.134793
-0.163733
-0.101061
0.183155
-0.109155
0.139784
0.167232
0.176363
-0.22673
-0.0366439
-0.0800296
-0.148456
0.192228
-0.0168138
-0.00884365
0.0222189
-0.29683
-0.0928933
0.194992
0.0542728
0.197016
-0.322901
-0.209891
-0.111802
0.205676
-0.138975
-0.0652062
-0.207562
-0.183023
-0.0996983
0.203817
-0.0762366
-0.0740551
-0.266152
0.230421
0.220008
-0.296989
0.192654
-0.119557
-0.224751
-0.205321
-0.0382805
-0.27373
0.0366722
-0.109353
-0.13138
-0.0950228
0.170183
-0.0514363
0.139112
-0.0877552
-0.221617
-0.095545
-0.324496
-0.291181
-0.0662911
-0.0994517
0.000841672
-0.209425
-0.0695945
0.162149
0.0273363
-0.1311
-0.22225
0.172934
-0.0493539
-0.0640323
0.238629
-0.00363287
-0.137351
-0.112621
-0.171428
0.212182
-0.126992
-0.0638029
0.0383577
-0.26483
0.17991
-0.194033
0.167243
-0.0407606
0.106691
-0.203069
0.120827
-0.0738163
-0.251129
-0.188444
-0.0420802
0.18374
-0.365985
-0.158056
-0.128224
0.210542
0.230716
-0.160736
-0.14572
0.0317346
0.214567
-0.0780207
0.190138
0.159273
0.13556
0.106765
0.00377258
0.063395
0.0492706
0.195501
-0.0627314
-0.0219461
-0.160218
-0.143004
-0.0621138
-0.197337
0.212415
-0.187195
0.186911
-0.0725331
0.205428
-0.148298
0.219295
0.102923
0.162596
0.207133
0.184162
0.236629
-0.0944125
0.168605
-0.0430711
-0.113474
-0.157141
-0.207915
0.196969
-0.185867
0.0268918
0.040591
-0.0804118
0.0296122
-0.161873
0.194833
-0.0260362
0.116541
-0.336055
-0.175225
-0.105525
0.238931
-0.151203
0.0604232
-0.137255
-0.104127
-0.238033
-0.0865429
-0.116792
0.130765
0.200899
-0.273578
0.0189292
-0.110813
-0.140683
0.147209
-0.158127
-0.145199
0.215074
-0.310347
-0.0073355
0.0864181
0.179986
0.224397
-0.136051
-0.162158
-0.259243
-0.110367
-0.148297
-0.112976
0.105496
-0.12614
-0.242518
-0.0755633
-0.0358322
-0.126749
-0.138934
-0.129772
-0.03534
-0.253941
0.1194
0.105447
-0.120553
0.117027
-0.208967
-0.275048
-0.154679
-0.309295
0.21551
-0.112564
-0.120581
-0.158197
0.156394
0.194025
-0.00614242
0.109316
-0.13754
-0.175673
-0.0306417
-0.117493
-0.161306
0.195001
0.00800988
0.0604167
0.218126
0.127454
-0.046705
0.207813
-0.278749
-0.00120756
-0.00756552
0.0371246
-0.0847681
0.202494
-0.127926
0.0297837
-0.0519222
-0.126384
-0.197407
-0.154491
0.103096
0.150277
0.171131
-0.025556
-0.0047771
0.206855
0.126699
-0.0661875
-0.00145832
-0.231193
-0.097576
0.136018
-0.276183
0.164023
-0.122081
0.177088
0.234439
0.198685
-0.133993
0.162105
0.160959
-0.234923
0.205209
-0.128556
0.2037
0.130808
-0.109835
-0.213123
0.0109524
-0.0925852
-0.0898291
-0.14367
0.131303
-0.117896
0.209918
-0.214674
-0.137222
-0.150274
-0.215138
-0.120193
0.149655
0.225526
-0.220728
0.111943
-0.02913
0.0304343
-0.0749474
0.029984
0.188082
0.13611
-0.118725
0.180136
0.145942
0.223118
-0.21686
-0.150511
-0.146011
0.110306
0.214926
0.153821
-0.0632395
0.219229
-0.0462479
-0.270358
-0.215151
-0.366052
-0.0554385
-0.242352
0.223472
0.229597
-0.006067
0.240052
0.138803
-0.012394
0.215339
-0.234733
0.201077
-0.0997329
0.194142
-0.11064
-0.206057
0.104904
-0.00104287
0.203684
0.188153
0.19225
-0.18464
-0.186129
-0.295805
0.164779
0.133829
-0.161883
-0.0295532
0.136277
-0.322208
-0.147172
-0.189634
-0.112292
0.0259818
-0.117367
-0.00705616
0.0977545
-0.0229573
-0.00528428
0.107768
-0.115785
-0.0934979
0.0258891
-0.0188413
-0.110374
0.169463
0.20546
-0.161577
0.130596
-0.333509
-0.154235
0.177856
0.120655
-0.13124
0.196774
-0.234834
0.104339
-0.0855139
-0.0794059
0.177171
-0.106351
0.116328
0.10603
0.0718326
0.233326
0.0784422
-0.258837
0.0461165
-0.0578275
0.118328
0.231953
0.0663892
-0.0472871
-0.16247
-0.0767094
0.178949
-0.224936
0.152003
-0.175874
0.0173315
0.128154
0.107307
-0.0328403
0.173197
0.218556
-0.0992095
-0.113474
-0.00794013
-0.190343
-0.244731
-0.00242204
0.10642
-0.184191
-0.261733
-0.149415
-0.261961
0.0993053
-0.0502302
0.123033
-0.143017
0.19475
-0.023235
0.160515
0.225909
-0.16965
0.185294
-0.101194
-0.00402497
-0.0259656
0.167699
-0.147277
-0.0827743
-0.0189537
-0.201296
-0.106897
-0.209934
-0.24025
-0.332593
0.218494
0.232253
-0.187085
-0.140277
0.112756
-0.283741
-0.157869
-0.115625
0.0864967
0.0993612
-0.297679
-0.336302
0.188283
-0.138837
0.0290584
-0.143376
-0.267238
-0.214029
0.00853216
0.160742
0.0263852
-0.278818
0.196367
0.15823
-0.181321
0.0258499
-0.12458
0.227057
-0.1042
-0.0719051
-0.246253
0.0671077
0.206656
0.0395631
0.00546699
-0.160826
-0.0530475
0.031755
0.215751
0.23873
-0.149583
0.220755
-0.151572
0.0073976
0.00872685
-0.066598
-0.126997
0.167408
-0.0823214
0.0027716
-0.176067
-0.173713
-0.0751806
-0.202437
0.0729244
0.195451
-0.183352
-0.146146
-0.000542053
-0.121364
-0.139215
-0.329996
-0.1181
0.167532
-0.251485
-0.14162
0.0970995
-0.000698644
-0.0613118
0.0608861
0.149432
-0.168258
-0.158025
0.150863
-0.0739292
-0.170056
-0.0394748
0.165316
0.0617721
0.00925625
-0.143112
-0.163827
-0.15681
0.217236
0.152983
0.227281
-0.0674182
0.0804129
-0.227725
-0.0332976
0.161987
-0.275344
-0.265152
0.10541
0.157006
-0.282501
-0.132924
-0.142795
-0.173815
-0.146287
0.237583
-0.0739448
-0.137564
0.00535406
-0.162152
0.102493
0.016299
-0.237094
-0.125921
0.127328
-0.056411
0.219039
-0.248576
-0.145455
0.0539675
0.0328938
-0.0656288
0.031012
-0.19945
0.22339
0.199533
0.0577916
0.172658
-0.178189
0.168337
0.0587674
0.0507938
0.208465
-0.282973
-0.128568
0.229108
0.0624111
-0.293702
-0.140626
0.146001
0.22587
-0.035958
0.11413
-0.145955
-0.251483
-0.180855
-0.300665
0.162075
-0.158665
-0.0230175
0.210693
-0.174628
-0.164649
-0.156189
-0.00884747
-0.135524
-0.13282
-0.159852
-0.223345
-0.0537729
0.134036
0.206165
0.0896377
-0.107375
-0.131233
-0.306922
-0.138801
0.047099
0.0238239
0.072123
0.101091
-0.130208
-0.0504929
0.145477
0.160557
0.22649
0.178833
0.211529
-0.053127
-0.238213
-0.183661
-0.219357
0.216548
-0.0097769
-0.151826
0.206889
-0.229977
0.139135
0.101198
-0.125825
-0.140371
-0.128109
-0.156902
0.157772
-0.0916551
0.0876054
-0.0440137
0.203563
0.0201021
0.233911
-0.189868
-0.0421479
-0.150313
-0.341523
-0.116143
0.122847
-0.179342
-0.315854
0.00816963
0.19736
0.119763
-0.158445
-0.246052
-0.175221
-0.228776
-0.138003
-0.227461
-0.0689474
-0.212568
0.10747
-0.190678
-0.139619
0.186897
-0.0431944
0.0624695
0.148797
-0.0796709
-0.0238782
-0.188587
0.122879
-0.0984596
-0.116589
-0.0672615
-0.206148
-0.255755
-0.144915
-0.135137
0.117695
0.226812
0.167426
0.0121473
0.0939249
-0.276056
0.220874
0.0184752
0.105519
-0.135053
0.0977732
-0.136372
-0.110233
0.137607
0.204049
0.121947
0.015827
-0.104026
0.231086
-0.0985484
0.139621
0.214544
0.0758762
-0.0863194
-0.282088
0.14001
0.0100183
-0.216066
0.0610717
0.000742743
0.200697
-0.162674
0.211572
0.227479
-0.0746007
-0.187208
0.212711
-0.240107
-0.208848
-0.109245
-0.21256
-0.118653
-0.201883
-0.245598
-0.0466335
-0.13494
-0.179248
-0.132433
0.0223595
-0.162456
-0.171296
0.0537266
-0.0226056
-0.264153
0.19425
0.231038
0.215514
-0.146674
-0.27564
0.237758
-0.251647
-0.058834
-0.150564
-0.114552
-0.134553
0.104572
-0.12257
-0.125753
-0.264605
-0.276704
-0.214411
-0.119667
-0.288668
-0.0375715
0.00182966
-0.0506886
0.203673
-0.00435341
0.0672536
-0.0827899
0.153931
-0.120436
-0.113237
0.245117
-0.104888
0.00185306
-0.242619
0.0773057
0.227318
-0.0926354
0.038909
0.00385909
-0.14453
-0.150524
-0.178548
-0.208175
0.110521
-0.202976
-0.0747859
-0.126196
-0.0729688
-0.174177
-0.176314
-0.0588792
-0.100304
-0.140921
0.229779
-0.0547676
-0.084983
0.010672
0.201237
-0.110909
-0.272822
0.130324
-0.237969
-0.0925499
-0.142731
-0.043883
-0.136283
-0.0808908
-0.0421558
0.223805
0.16492
-0.264298
-0.141854
-0.277931
-0.150566
-0.296421
-0.202661
-0.110447
-0.190366
-0.104818
0.0508073
0.237353
-0.118777
0.0981593
-0.0247376
0.216511
-0.12579
0.229204
0.0414385
-0.231055
0.0449196
0.108576
-0.118399
0.15911
-0.142447
0.172845
-0.152889
-0.305274
-0.0521195
0.235145
0.229467
0.110485
0.0555537
0.0870751
-0.2692
-0.147566
0.0868026
0.234085
-0.282949
-0.0445651
-0.139255
-0.122285
-0.0703521
-0.17268
-0.225276
-0.153496
-0.207864
-0.134643
-0.107128
-0.0708427
0.232624
0.156694
-0.298115
0.131992
-0.187479
-0.185202
0.140075
-0.155519
-0.0940563
0.0736675
-0.251224
-0.175068
-0.0381822
0.16638
-0.222568
-0.165294
-0.098782
0.0466651
-0.219714
0.203047
-0.279337
-0.11808
-0.0970255
-0.161572
0.0561911
0.0503685
0.202462
-0.148969
0.11835
0.00250725
0.0407968
-0.153394
0.0551924
-0.198183
-0.232693
-0.320127
0.0179304
-0.0553011
-0.0966088
0.181827
-0.0440544
0.00831205
0.0515716
-0.178584
-0.20393
-0.11613
0.0218804
-0.142113
0.237501
-0.240758
-0.279244
-0.109246
-0.123174
-0.140337
-0.141568
0.0979072
-0.11169
-0.0444298
-0.22101
-0.13879
-0.0500056
-0.19351
0.230895
0.219713
-0.214188
-0.17622
0.160316
-0.0190202
-0.166266
-0.245847
-0.161073
-0.217645
-0.00118891
0.19121
-0.165092
-0.269506
0.0494108
-0.0540448
-0.27794
-0.219308
-0.0555393
0.0907301
0.23905
-0.230895
-0.27916
0.0202643
0.161905
-0.0903934
0.00449366
-0.10408
-0.144206
-0.112532
0.045937
-0.0606287
-0.144313
0.132503
-0.100508
-0.314916
-0.00749776
-0.141675
0.138337
0.233013
-0.136745
-0.12339
-0.121137
-0.122558
-0.22963
-0.111917
-0.217718
0.20712
0.144342
0.0884501
-0.108135
-0.261685
0.123343
0.220458
-0.172767
-0.0132705
-0.132163
-0.333332
-0.0306942
-0.117881
-0.334785
-0.125975
0.053897
-0.235818
-0.275303
-0.211763
0.143556
-0.249599
0.132984
-0.0542337
-0.15814
-0.105661
-0.182564
0.13909
-0.307348
-0.112388
-0.0826698
-0.23491
0.00429374
0.0869046
0.0166012
-0.0546556
0.116003
-0.219651
-0.215855
0.188731
-0.149265
0.183117
0.0214738
-0.0918916
0.0076475
0.167934
-0.0540293
-0.279912
0.201917
-0.155349
-0.0812572
0.169636
-0.16844
0.213232
-0.165432
-0.0978639
-0.244489
-0.0958195
-0.208297
-0.0409963
-0.209571
-0.313094
-0.222258
-0.218171
-0.327355
0.191405
-0.218645
-0.10216
0.012202
-0.0448633
0.222196
0.22472
-0.139809
-0.0366308
0.144021
-0.152937
0.192369
-0.314144
-0.105743
-0.0094798
-0.169763
0.14916
-0.131133
-0.121655
-0.129409
-0.171449
-0.143682
-0.309672
0.172182
-0.372555
0.207856
0.0904854
-0.207499
-0.274193
-0.210588
0.239379
0.0932015
0.0569565
-0.059758
0.00770974
-0.0808975
0.169655
0.124383
-0.179585
0.0383315
0.211375
-0.0699013
-0.0172682
0.0487338
-0.291913
-0.21942
0.137455
-0.10671
-0.0702993
0.213568
-0.225968
-0.309803
-0.159059
-0.0706764
-0.0704122
0.226982
-0.168292
-0.256828
-0.173717
-0.0743751
-0.162954
0.181438
-0.0445769
-0.205933
-0.13278
-0.173859
-0.170491
-0.113284
0.0413513