/*--------------------------------*- C++ -*----------------------------------*\
  =========                 |
  \\      /  F ield         | OpenFOAM: The Open Source CFD Toolbox
   \\    /   O peration     | Website:  https://openfoam.org
    \\  /    A nd           | Version:  6
     \\/     M anipulation  |
\*---------------------------------------------------------------------------*/
FoamFile
{
    version     2.0;
    format      ascii;
    class       volScalarField;
    location    "0";
    object      p;
}
// * * * * * * * * * * * * * * * * * * * * * * * * * * * * * * * * * * * * * //

dimensions      [0 2 -2 0 0 0 0];

internalField   nonuniform List<scalar> 
13046
(
0.142074
0.0861789
0.12635
0.154183
0.117291
0.0819577
0.150312
0.0768187
0.123145
0.298186
-0.182092
0.147341
0.162672
0.041772
0.122603
0.24892
0.151558
-0.162305
0.136033
0.103703
0.131597
0.257018
0.154383
-0.167948
0.138506
0.109363
0.111886
0.158281
0.0407087
0.132788
0.153873
0.0751489
0.11258
0.138977
0.117852
0.104161
0.13025
0.121998
0.107742
0.136462
0.110113
0.115932
0.117984
0.130853
0.116462
0.127686
0.113795
0.113203
0.140549
0.0750911
0.130012
0.0674837
0.139189
0.151084
0.0714007
0.163788
0.137139
-0.0431862
0.186979
0.138613
0.210366
-0.00571596
0.127172
0.141381
-0.115971
0.255102
0.18137
-0.0256674
0.130102
0.176673
-0.00896547
0.123129
-0.0676739
0.197801
0.144229
0.138065
0.116632
0.124517
0.157131
0.206591
-0.0989565
0.140384
0.0970294
0.11302
0.14307
-0.135302
0.261271
0.274987
0.139832
-0.104057
0.142239
0.308433
-0.100243
0.20642
0.210828
-0.0298742
-0.0455257
0.132871
0.138871
0.141202
0.270874
-0.0966576
0.137965
0.121552
0.104694
0.129876
0.160179
0.0655802
0.132134
0.0965878
0.143017
0.331904
0.147677
-0.228989
0.164136
0.0590331
0.114238
0.206831
0.198603
-0.0544694
0.139878
-0.0339596
0.134721
0.301777
-0.191796
0.148381
0.179826
-0.00127558
0.135828
0.142482
0.114134
0.103639
0.141966
0.295795
-0.0873489
0.239961
-0.0695702
0.137523
0.162386
0.0626267
0.114125
0.180937
0.0588952
0.121207
0.130751
0.081673
0.160389
0.130811
0.16925
0.0812485
0.225351
-0.0220066
0.131095
0.130448
0.149338
0.0753567
0.0322806
0.200209
0.0144163
0.213654
0.134179
0.135883
0.193034
0.0449316
0.125026
0.302523
0.149203
-0.189679
0.322681
0.14723
-0.21926
0.236423
-0.0801039
0.139845
0.149757
0.0787692
0.116281
0.184591
0.123811
0.057093
0.148718
-0.154478
0.299899
0.144732
0.0942476
0.105365
0.129009
0.144655
0.0668266
0.175124
0.0643579
0.116841
0.0240202
0.132801
0.177136
0.015307
0.12657
0.280935
0.142068
-0.125765
0.140281
0.277734
-0.081499
0.307972
-0.118491
0.143022
0.0662024
0.14694
0.142582
0.170742
0.196212
0.149302
-0.087325
-0.129785
0.309132
0.146527
0.130107
0.124251
0.102757
0.156285
0.0543817
0.128616
0.142646
0.275817
-0.0799723
0.185053
0.0294472
0.134322
0.151142
-0.211156
0.320835
0.139137
0.162941
0.0518801
0.287971
-0.105678
0.142122
0.187998
0.0278056
0.13349
0.181795
0.0031236
0.143762
-0.0376481
0.266326
0.139763
0.227341
0.00355187
0.135251
0.151083
-0.214575
0.333773
0.13798
0.103342
0.120389
0.317752
0.146028
-0.249354
0.125841
0.144119
0.0974907
0.205189
0.18562
0.0227251
0.0343685
0.128666
0.124158
0.144607
0.216801
-0.113606
0.175004
0.0216569
0.131609
0.235128
-0.0183482
0.138196
0.221683
-0.0674293
0.139191
0.122479
0.109302
0.124225
0.21247
0.0129469
0.134617
0.174522
0.0153669
0.130903
0.181207
0.189942
0.142144
0.0933371
0.112264
0.224006
-0.00360121
0.13456
0.22917
0.141998
-0.0810048
0.137843
0.0894881
0.126342
0.13921
0.193424
0.02659
0.193371
-0.0356989
0.132991
0.142916
0.0779526
0.135747
0.199395
0.201889
-0.0519962
0.138759
-0.0594911
0.143823
0.146494
-0.153333
0.288786
0.185169
-0.0187981
0.13739
-0.259421
0.14811
0.343066
0.158487
0.126183
0.0759777
0.201066
0.00789971
0.125151
0.14435
0.262617
-0.113274
0.0632259
0.168338
0.137685
-0.0562767
0.270938
0.141924
0.0528254
0.125359
0.200371
-0.00267247
0.134911
0.0437054
0.126663
0.243922
0.148045
-0.150124
0.0784346
0.129992
0.148112
0.208805
-0.0143182
0.132275
0.17738
0.0471463
0.12966
0.159277
0.0618676
0.13258
0.147015
0.0763139
0.122113
0.138741
0.189264
0.040604
0.289096
-0.131253
0.141675
-0.0560625
0.266508
0.140126
0.165186
0.117441
0.0307342
0.206876
0.200049
-0.0632979
-0.0797353
0.137944
0.139473
0.146147
-0.255718
0.338124
0.307199
0.147995
-0.244634
0.225298
0.0128639
0.123936
0.142493
0.287484
-0.137357
0.176115
0.181426
-0.00884401
-0.0227318
0.139432
0.135501
0.146577
-0.156513
0.341673
0.318734
0.145734
-0.245899
0.115509
0.133616
0.111215
0.334156
-0.23721
0.146044
0.155078
0.0612949
0.112481
0.301099
-0.148899
0.147661
-0.252427
0.149061
0.377194
0.130709
0.104274
0.125217
0.144034
0.107268
0.119651
0.292157
0.152731
-0.202767
0.145228
0.0920133
0.12076
0.116571
0.128771
0.116301
0.141654
0.17201
0.0503634
0.126145
0.111788
0.127266
0.154336
0.0822566
0.126264
0.160016
0.0495442
0.110146
0.151043
0.152957
-0.160841
-0.163355
0.264603
0.273574
0.297822
-0.141355
0.143525
0.13011
0.170276
0.0139054
0.138382
0.0989092
0.114027
0.232268
0.00289773
0.139171
-0.227805
0.151613
0.374234
0.144927
0.308322
-0.115305
0.317796
0.1483
-0.206044
0.146147
-0.260808
0.382733
-0.280504
0.142785
0.36331
-0.0252537
0.242099
0.129607
-0.193061
0.150558
0.361508
0.245138
-0.0770271
0.140097
0.258167
0.148296
-0.188526
0.166068
0.121452
0.0696532
-0.142547
0.146311
0.329445
0.217085
0.139493
0.0152985
-0.0281871
0.238303
0.138126
0.140576
-0.30581
0.394134
-0.243421
0.150211
0.354006
0.163332
0.124117
0.0744479
-0.172331
0.329179
0.147139
0.149102
0.344304
-0.166962
0.272871
0.14611
-0.147046
0.148658
-0.118672
0.221534
0.156693
0.0616539
0.110429
-0.0441507
0.188596
0.145954
0.149716
0.233015
-0.14236
0.158301
0.171551
0.0475583
0.0294557
0.123645
0.131808
0.154208
0.062816
0.120075
0.172596
-0.00286027
0.138331
-0.0461675
0.256942
0.137362
-0.133797
0.298499
0.14818
0.137376
0.269047
-0.0656109
-0.280909
0.142185
0.353024
0.141754
0.142024
0.114647
0.0983852
0.122803
0.0952669
0.164829
0.15694
0.124638
0.0300113
0.125116
0.0537648
-0.254876
0.149461
0.376673
-0.171118
0.317037
0.147671
0.145477
0.0889162
0.107065
-0.0239809
0.251488
0.139065
0.147412
-0.107839
0.215266
-0.228465
0.348741
0.149165
-0.216831
0.347529
0.149706
0.181825
-0.0207133
0.141356
0.135982
0.0798394
0.136269
0.281799
0.145005
-0.155149
-0.0345511
0.239129
0.133946
0.146956
-0.0993267
0.237409
0.151721
0.124223
0.0660465
0.183511
0.0419154
0.131439
0.136658
0.103513
0.11835
0.145802
-0.16437
0.291638
0.214849
-0.0694357
0.141275
0.134276
0.107707
0.114868
0.239188
0.148897
-0.158126
0.151123
0.0709134
0.127635
0.163881
0.063886
0.123858
-0.0169599
0.239946
0.131678
0.286764
0.148773
-0.213279
0.276364
0.149209
-0.209544
0.147518
-0.102082
0.233581
0.191807
0.0493249
0.132869
0.147423
-0.225694
0.293475
0.139494
-0.0925586
0.25963
0.145958
-0.272809
0.38478
0.360867
-0.275316
0.143
0.151021
-0.135835
0.233252
0.149984
-0.192173
0.313825
0.266025
0.256936
0.143739
-0.152406
0.145372
-0.138611
0.262336
-0.0917631
0.140622
0.140835
-0.00781446
0.235309
0.147457
0.111852
0.0906981
0.258966
-0.0716287
0.138965
0.136526
0.25473
-0.0577873
0.22578
0.148259
-0.130806
0.166267
0.0197271
0.127367
0.160839
0.0479692
0.11325
0.224309
-0.0332537
0.133584
0.233748
-0.0398067
0.136379
0.133083
0.0976156
0.122551
0.170708
0.0234839
0.138203
0.148685
-0.145367
0.3196
0.353393
0.151268
-0.22393
0.369761
0.151119
-0.222176
0.143521
0.116745
0.0907609
-0.241723
0.148813
0.360451
0.224498
0.144958
-0.0898387
0.151195
-0.231792
0.368306
0.14758
0.118059
0.0913378
0.195881
0.0132936
0.132413
0.0569672
0.17474
0.134642
0.150402
-0.191012
0.351384
-0.0332192
0.243942
0.13586
0.148087
0.250762
-0.171657
0.192261
0.00107272
0.138198
0.142187
0.112982
0.0955832
-0.179731
0.332591
0.149626
0.144067
-0.106526
0.248706
0.300428
0.30868
0.147193
0.147779
-0.221808
-0.229679
0.191869
0.0309103
0.131402
-0.0132143
0.232601
0.12672
0.146546
0.0690785
0.127032
-0.206272
0.346705
-0.200282
0.151617
0.359719
0.152057
0.21248
-0.0394501
0.142558
0.333271
0.343885
-0.188587
-0.202682
0.149682
0.149103
0.210395
0.00144851
0.135175
0.171832
0.0269174
0.127711
0.265432
0.151591
-0.192079
0.199333
0.0205684
0.128806
0.162442
0.0559239
0.119898
0.288057
0.146689
-0.201069
0.201725
-0.0150362
0.126674
0.0270376
0.201157
0.143155
0.156965
0.0627087
0.116539
-0.0775494
0.14627
0.28284
0.142629
-0.291929
0.38448
0.195688
0.011564
0.127722
0.270965
0.147477
-0.18183
0.0959787
0.0931032
0.151472
0.335157
0.144728
-0.249881
0.126949
0.129752
0.0770771
0.141829
0.0818798
0.157694
0.153899
0.0719321
0.124661
0.132592
0.131514
0.0944056
0.139089
0.100451
0.133446
0.184411
0.0349838
0.132914
0.179553
0.0373381
0.134369
0.152931
-0.218287
0.364659
0.151083
0.0777503
0.111989
0.315222
-0.176988
0.148462
0.23411
0.246732
-0.0486671
-0.0643933
0.134219
0.134338
0.146062
0.0859103
0.120044
0.1727
0.00516917
0.130596
0.210273
-0.0213957
0.138406
0.131383
0.110936
0.108059
0.248856
-0.0609292
0.137603
0.139981
0.108044
0.104943
0.210943
-0.00352978
0.135327
0.16827
0.0107414
0.129437
0.130136
0.130178
0.107503
0.117459
0.117561
0.112915
0.130292
0.0893607
0.133678
0.13297
0.113458
0.132759
0.157513
0.165072
0.051261
0.0399582
0.126187
0.12036
0.143516
-0.109558
0.227043
0.142582
0.191309
0.0392494
0.150175
0.149239
-0.127044
-0.122627
0.236249
0.239945
0.143216
0.0861458
0.134042
0.130146
0.114312
0.113426
0.252663
-0.0720429
0.13802
0.148363
0.111827
0.0893541
0.173731
-0.00128306
0.132738
0.21106
0.213115
-0.0859396
0.1471
-0.0806979
0.143988
0.228552
-0.0529355
0.137223
0.330632
-0.247972
0.146146
0.086611
0.114257
0.14726
0.154034
0.148844
0.101588
0.0803954
0.110612
0.0899334
0.256805
-0.0492158
0.137151
0.167012
0.0212431
0.132918
0.14655
0.0859646
0.112742
0.145807
0.147497
0.104043
0.120603
0.0980347
0.0815982
0.150418
0.115779
0.0847175
0.222381
-0.0411699
0.137225
0.135623
0.105758
0.11568
0.285651
0.149158
-0.20156
0.150636
0.0924341
0.101724
0.178795
0.183193
-0.0024594
-0.0192323
0.125499
0.138983
0.14592
-0.178023
0.277201
0.271262
0.149658
-0.184012
0.283005
0.148159
-0.201697
0.220666
0.14467
-0.092682
0.162494
0.035927
0.131228
-0.181381
-0.152285
0.0710038
-0.177852
-0.00462874
-0.221295
-0.0796485
-0.135414
-0.290991
-0.0164932
-0.0203308
-0.327729
-0.198378
-0.0224328
-0.193061
-0.214314
-0.166372
-0.204086
-0.161771
-0.0671619
-0.153369
-0.208866
0.0040122
0.149695
0.0922484
-0.143256
0.0140311
-0.325195
-0.124938
-0.199955
-0.312766
-0.085516
-0.158979
-0.172282
-0.29153
-0.143394
0.065636
-0.000951915
-0.164185
-0.0870739
-0.230041
0.134362
-0.267384
-0.0235123
0.0223742
-0.231026
-0.221195
-0.259561
-0.319901
-0.270819
0.0970738
-0.149961
-0.210849
-0.235014
-0.311581
0.0899164
-0.0650892
-0.151494
-0.264304
-0.0341683
-0.275801
-0.259968
0.0942739
-0.124994
-0.155648
-0.061067
-0.134871
0.12569
0.00163029
-0.0106123
-0.369929
-0.324587
-0.201016
-0.0434457
-0.338846
-0.173898
-0.137389
-0.300003
-0.0460597
0.0388959
-0.200386
-0.168856
-0.310778
-0.238253
-0.246281
-0.0344062
-0.244453
-0.179263
-0.199839
0.0965006
-0.223531
-0.0341
0.0890855
-0.168103
-0.204332
-0.246202
-0.279302
-0.25578
-0.204929
-0.374789
-0.0951204
0.00990783
0.0327716
0.119958
-0.228077
-0.17647
-0.323039
-0.209571
-0.277534
0.0623011
0.0174128
-0.0684533
-0.274793
-0.330457
-0.0815043
0.00528121
-0.215727
-0.180106
-0.379648
-0.210417
-0.177663
0.0924095
0.101708
-0.0385116
-0.139305
-0.189843
-0.327004
0.121378
-0.192198
-0.0478282
-0.381718
0.0865531
-0.308813
-0.189165
-0.191561
0.0370148
-0.186655
-0.415926
-0.260451
-0.078303
-0.215535
-0.0291752
-0.0755731
-0.225319
0.024729
-0.233371
-0.247351
0.0514851
-0.258853
-0.204644
-0.325583
-0.121569
-0.168842
0.0413151
-0.0349474
-0.223802
-0.0439935
-0.0273339
0.0685421
-0.134407
-0.202626
-0.227725
-0.0200112
-0.191057
-0.0909028
-0.315597
0.14256
-0.209204
0.0384883
0.124167
-0.144319
0.128407
0.0486329
0.0689275
-0.271389
-0.385853
-0.328598
0.0726374
-0.278957
-0.29423
-0.18525
-0.291295
-0.20321
-0.232902
-0.138818
0.124064
-0.0370626
-0.231174
-0.0388112
-0.245199
0.135364
-0.206691
0.0164202
-0.232978
-0.400554
0.102604
0.127207
-0.239257
-0.253825
0.140905
-0.120841
-0.157927
-0.27555
-0.0421549
0.0596712
-0.0446552
-0.238819
-0.264378
-0.00609267
-0.133259
-0.289877
-0.0856464
-0.185467
-0.30306
-0.190516
-0.0205369
-0.37147
-0.147207
0.0110328
-0.2512
-0.381494
-0.22193
-0.209108
-0.177621
-0.0982841
-0.0851013
-0.234013
-0.30165
-0.196424
-0.0631881
-0.0501487
-0.229277
-0.0801248
-0.23068
-0.276347
-0.11568
-0.226986
-0.400504
-0.0532178
0.049861
-0.137379
0.0776655
0.059096
0.137203
-0.207455
-0.426562
-0.194851
-0.225072
-0.175943
-0.362905
-0.108993
0.0961484
-0.0512758
-0.12081
-0.251047
-0.221794
-0.0330314
-0.156937
-0.0634592
-0.258768
-0.189098
-0.234913
-0.193379
-0.242691
-0.230582
-0.218629
-0.299245
-0.0810107
-0.139222
-0.224696
-0.0714806
-0.189514
-0.203891
-0.273625
-0.221851
-0.257629
-0.248731
-0.126132
-0.359563
-0.43213
-0.176467
-0.335706
-0.37099
-0.122058
-0.205206
-0.368903
0.0414067
-0.073859
-0.254543
-0.0454904
-0.303544
-0.0863945
-0.0881553
-0.185938
-0.201201
0.00808691
-0.195016
-0.0281406
-0.22874
-0.245814
0.0442751
-0.240081
-0.195769
-0.458568
-0.356899
-0.397874
-0.342739
-0.238889
-0.0706709
-0.289004
-0.388034
-0.28674
-0.235641
0.138207
-0.176409
-0.0452463
-0.104512
-0.190674
-0.162284
-0.245035
-0.321843
-0.0953753
-0.224352
0.0955801
-0.0492501
-0.234626
-0.226927
-0.147035
0.152401
-0.0339658
0.0671901
-0.0319754
-0.220038
-0.139972
-0.208097
-0.293826
-0.351748
-0.253341
-0.156815
-0.060011
-0.270962
-0.343994
-0.206417
-0.158421
-0.211569
-0.160105
0.0220532
-0.183833
-0.223017
0.0721542
0.0241088
-0.24494
-0.104782
0.0615418
-0.310061
-0.208462
-0.219582
-0.287562
-0.310514
0.0508753
-0.28722
-0.179757
0.0578215
-0.385026
-0.132912
-0.236093
-0.143934
-0.22125
-0.253925
-0.247458
-0.155154
-0.340098
-0.280879
-0.228533
-0.233119
-0.0358578
0.0948594
-0.208142
-0.115904
-0.145568
-0.174125
-0.408616
0.0107969
-0.0776111
-0.274388
-0.349232
-0.111067
-0.329535
-0.173057
-0.223282
-0.262711
-0.0309528
0.0848557
-0.224754
-0.0371319
0.135679
0.0194829
0.0160185
0.0739343
-0.160122
-0.227999
-0.306204
0.145276
0.00540999
0.0417256
-0.26459
-0.245232
-0.388061
-0.0262974
-0.176527
-0.181112
0.0402417
-0.0641717
-0.187257
-0.156773
-0.239574
-0.208624
-0.243623
-0.22871
-0.223628
-0.274069
-0.20915
-0.350945
-0.165255
-0.285432
-0.0640934
-0.123035
-0.373144
0.0648162
0.0842605
-0.0360045
-0.245582
-0.127681
-0.202442
-0.01822
-0.155722
-0.325225
0.0588373
-0.211404
0.0985348
-0.354606
-0.205375
-0.164005
-0.0383491
-0.0114622
-0.205975
0.118363
-0.198298
0.0233271
-0.205866
-0.0634424
-0.224278
-0.194272
-0.24905
0.0300814
-0.160176
0.14661
-0.0594808
-0.354001
-0.180404
-0.085658
-0.208076
-0.242815
-0.201703
-0.278267
0.104281
-0.182362
-0.195428
-0.00939431
-0.259309
0.0951137
0.137162
-0.238319
0.144177
0.107583
0.0314323
0.0487375
-0.119913
-0.319944
-0.27417
-0.217155
0.0117216
-0.1984
-0.211883
0.116254
-0.294799
-0.217202
-0.281401
0.0722465
0.140163
-0.287195
0.0193332
-0.0973451
0.0938017
-0.150458
-0.0261516
-0.234065
0.124362
0.141895
-0.0622626
-0.270836
-0.00495107
-0.180106
-0.106074
-0.155112
-0.173971
-0.0982285
-0.166726
-0.21657
-0.303795
-0.165305
-0.0824358
-0.121898
0.0472324
-0.290937
-0.180866
-0.0731791
-0.298749
0.0819447
-0.20462
-0.234493
0.0557372
0.0355593
-0.111382
0.127652
-0.222866
-0.246782
-0.0236385
-0.128664
-0.117972
-0.208067
-0.244765
-0.0845037
-0.0543471
-0.243736
-0.231938
-0.119449
-0.361952
-0.277697
0.0923683
0.126656
0.14008
-0.139246
0.141095
0.13931
0.111528
-0.414693
-0.10525
-0.105058
0.12282
-0.237142
-0.197404
-0.324214
-0.272145
-0.226316
0.118433
-0.198518
-0.188357
-0.0208595
-0.061859
-0.23574
-0.235621
0.136585
0.112948
0.066387
-0.0556633
-0.271634
-0.0356327
-0.0826368
-0.240612
-0.159504
-0.327262
-0.282343
-0.130921
-0.182793
-0.215451
0.0854926
0.0956583
-0.405049
0.0351106
-0.226658
-0.231486
-0.184454
0.0796698
-0.203747
-0.0530973
-0.203316
0.0702833
-0.233512
-0.200782
0.141298
-0.39191
-0.367606
-0.227158
-0.266636
-0.431471
-0.250468
-0.259764
-0.428489
-0.172977
-0.404955
-0.313673
-0.180864
-0.291443
-0.254391
-0.207683
-0.338205
-0.247416
0.106445
0.00630983
-0.235309
-0.327726
0.00586338
-0.264374
-0.197423
0.137974
-0.248354
0.140605
-0.187867
0.0457942
-0.133897
-0.206791
-0.320735
-0.123077
-0.123408
-0.172579
-0.210225
-0.228338
-0.313847
-0.268631
-0.184048
-0.379284
-0.333911
0.115485
-0.205111
-0.0514497
-0.013501
-0.235355
-0.0259536
-0.00892218
-0.322515
-0.241478
-0.202544
-0.352411
-0.424065
-0.0462848
-0.0354657
-0.231846
-0.0856666
-0.228859
0.143442
0.103488
-0.210301
-0.238238
0.123767
0.0537383
-0.100076
-0.0949554
-0.23867
0.146434
-0.115405
-0.405688
0.0748379
0.0138902
0.0972157
-0.130253
-0.276113
-0.190376
-0.0322601
-0.0915116
-0.261292
0.136308
-0.203586
-0.236152
-0.159385
0.0198232
0.120701
0.133862
-0.0828799
-0.14058
-0.00225071
0.0534387
0.050399
-0.0509562
0.0136178
-0.191307
-0.219364
-0.104641
-0.304636
-0.194525
-0.371663
-0.207004
-0.00755408
-0.357633
-0.141955
-0.191813
-0.0121523
0.132469
-0.201486
-0.332811
-0.383844
-0.0412384
-0.254451
-0.270687
-0.384015
0.0574523
-0.124732
-0.114038
-0.335287
-0.110554
-0.269674
-0.236416
-0.0318183
-0.0109076
0.0629715
0.131872
-0.254624
0.0529802
-0.403953
0.0759027
0.0947598
0.0967652
-0.00462249
-0.277871
-0.277216
-0.228791
-0.404534
-0.119337
-0.38346
-0.0852855
-0.327702
0.0342235
-0.236256
-0.389742
0.0351807
-0.0267197
-0.185592
-0.183724
-0.0578532
0.072355
-0.12787
-0.160867
-0.396542
0.0155496
-0.114925
0.0979702
-0.426398
-0.181563
0.0767522
-0.0365039
0.130328
-0.0310482
-0.226391
-0.447457
-0.399491
-0.184771
-0.365628
0.116438
-0.394923
-0.165707
-0.184871
-0.285173
-0.0118156
-0.423586
0.0439686
-0.0304436
-0.109156
-0.214674
-0.0614875
-0.187621
-0.151778
-0.190879
-0.182646
-0.249421
-0.267617
-0.00357148
-0.273419
0.137007
-0.255068
-0.126961
-0.0682678
-0.0300328
0.105118
-0.248975
-0.222432
-0.251578
-0.143279
-0.271009
0.106437
-0.273484
-0.151461
-0.24058
0.0171579
-0.298216
-0.131483
-0.334568
0.136622
-0.408046
-0.27697
-0.157312
0.0264805
-0.383945
-0.376083
-0.290604
-0.34355
0.0889094
-0.155364
-0.0495169
0.0460982
-0.0686535
-0.117738
0.131843
-0.11694
-0.023763
-0.0778107
-0.116992
-0.369184
-0.111027
-0.19728
-0.187138
-0.0998365
-0.202225
-0.355981
-0.150351
-0.156318
-0.287661
0.00841932
-0.13048
-0.0565647
-0.200577
0.092077
-0.181223
-0.14786
-0.0739072
-0.348525
-0.278322
-0.24096
-0.122934
-0.121001
-0.0918869
0.0820856
-0.0347997
0.00967881
-0.145143
0.0542689
0.11796
0.112406
-0.111539
-0.126879
-0.0997124
-0.311457
0.127567
0.0483328
0.0225862
-0.175751
-0.280056
-0.363959
-0.100814
-0.0375881
-0.222881
0.0198314
0.0438917
-0.0940195
-0.213408
-0.105489
-0.197365
-0.193402
-0.173423
-0.197331
-0.114528
-0.383248
-0.109902
-0.13515
-0.209655
-0.419795
-0.11912
-0.156206
-0.0584826
-0.229508
-0.124537
0.0858026
0.0994918
-0.111194
-0.186548
0.0112696
-0.150721
-0.274635
-0.282259
-0.211151
-0.349765
0.0774246
-0.163204
-0.137392
-0.0296839
-0.0468053
-0.064354
-0.203795
0.144604
-0.0641731
-0.276197
-0.165559
-0.165222
0.0113703
0.0790457
-0.0587372
-0.101757
-0.380214
-0.29657
-0.20964
-0.0989159
-0.154541
-0.110371
-0.262973
0.0966662
-0.0886249
-0.0270218
0.0571001
-0.129406
-0.231606
-0.116985
0.132815
-0.282894
-0.390182
-0.116238
0.141473
-0.242013
-0.21161
-0.000223171
-0.0390562
0.0269463
-0.179539
-0.378298
-0.10041
-0.343466
-0.236109
0.031758
-0.190451
-0.304555
-0.23193
-0.245326
-0.08461
-0.199771
-0.199994
0.0583188
-0.275044
0.130736
0.0235336
-0.325852
-0.4393
-0.152348
-0.0270107
0.0547182
-0.182226
-0.209765
-0.184056
-0.229767
-0.167042
0.134237
0.0712724
-0.0294212
-0.173889
-0.362608
0.0510261
0.149765
0.092525
0.00941023
0.0627291
-0.124139
-0.333367
-0.409556
-0.389599
0.0997588
-0.161047
-0.186447
-0.177673
0.143945
-0.237801
-0.213605
-0.344449
-0.17964
-0.285581
0.0967995
-0.0983997
-0.0253412
0.0718996
0.0400989
-0.226315
-0.0748021
-0.13536
-0.0409784
-0.293516
-0.0904523
-0.251749
0.104845
-0.200511
-0.24863
-0.174387
-0.211302
0.0832174
-0.231637
0.029329
0.0510421
0.0721308
-0.318811
-0.144096
-0.209743
-0.192231
0.0957539
-0.133502
-0.110235
-0.103944
-0.218219
-0.176292
0.0600845
-0.069532
0.10062
-0.400183
-0.28068
-0.237552
0.112055
-0.17664
-0.156276
-0.305803
-0.194355
-0.163342
0.0643843
-0.148048
-0.203812
-0.341781
0.0903646
0.133888
-0.224094
0.0494409
-0.235792
-0.318245
-0.274368
-0.158243
-0.358735
-0.0706923
-0.183516
-0.245199
-0.202772
0.0153019
-0.176665
0.0256724
-0.178029
-0.290447
-0.196248
-0.401023
-0.372136
-0.191269
-0.14424
-0.0977703
-0.297523
-0.187005
0.0464505
-0.0861147
-0.245178
-0.21121
0.0513748
-0.179214
-0.163152
0.151902
-0.112102
-0.250084
-0.15827
-0.179379
0.119579
-0.19565
-0.182238
-0.0878468
-0.353147
0.0605949
-0.195399
0.0532607
-0.144422
-0.0128293
-0.30143
-0.00219977
-0.19761
-0.326533
-0.284902
-0.142386
0.0767371
-0.446223
-0.224175
-0.258859
0.113514
0.124309
-0.189526
-0.248827
-0.0747647
0.0698983
-0.174767
0.087784
0.0531393
0.0201857
-0.0136155
-0.123814
-0.0540066
-0.0628795
0.100072
-0.153645
-0.128144
-0.190129
-0.204098
-0.143369
-0.264741
0.119132
-0.192152
0.0762849
-0.159717
0.112062
-0.257899
0.125641
-0.0157133
0.015399
0.115539
0.0852999
0.150009
-0.221312
0.065102
-0.138601
-0.23975
-0.226528
-0.296444
0.0997576
-0.191463
-0.0988401
-0.0847972
-0.202507
-0.0822242
-0.268109
0.0713527
-0.154096
0.000223931
-0.41457
-0.248131
-0.231265
0.0887549
-0.181747
-0.0627807
-0.201167
-0.227248
-0.308884
-0.196487
-0.236305
0.0184849
0.107629
-0.348109
-0.107201
-0.233779
-0.252035
0.0363175
-0.200197
-0.20628
0.119493
-0.384946
-0.110066
-0.0351645
0.0805856
0.136783
-0.20168
-0.242272
-0.338708
-0.196896
-0.195198
-0.235196
-0.0150536
-0.23939
-0.321958
-0.205194
-0.141992
-0.212363
-0.185471
-0.260356
-0.148173
-0.336319
0.00473548
-0.0127475
-0.177822
0.000532008
-0.200436
-0.364622
-0.185247
-0.39258
0.127996
-0.228711
-0.240197
-0.264168
0.0394385
0.0980583
-0.134745
-0.00936775
-0.187865
-0.279324
-0.129772
-0.235837
-0.225706
0.0991559
-0.0980163
-0.0547623
0.129955
0.00970741
-0.133528
0.114375
-0.353662
-0.128621
-0.135512
-0.0866989
-0.145814
0.0798049
-0.242957
-0.0960292
-0.171453
-0.20622
-0.267537
-0.23579
-0.0144799
0.0398869
0.0685278
-0.130834
-0.123038
0.0986563
0.00486996
-0.195678
-0.0965788
-0.318516
-0.228018
0.0252428
-0.352576
0.0539407
-0.249946
0.0692987
0.129516
0.10424
-0.261191
0.0225604
0.0529541
-0.201807
0.0878116
-0.170417
0.111091
0.0173875
-0.23907
-0.309234
-0.0885367
-0.222255
-0.14461
-0.193579
-0.00641002
-0.178887
0.119689
-0.286549
-0.208053
-0.191022
-0.282514
-0.24033
0.036439
0.139604
-0.292246
-0.00989713
-0.153566
-0.0943532
-0.177073
-0.0768842
0.0901748
0.0239721
-0.246159
0.079908
0.0369915
0.139929
-0.287342
-0.281152
-0.20093
-0.00876215
0.121851
0.0447205
-0.179681
0.126041
-0.152684
-0.34257
-0.311073
-0.44528
-0.138671
-0.320664
0.138493
0.132029
-0.122306
0.146636
0.0283056
-0.1398
0.122978
-0.32367
0.0741707
-0.230065
0.0980096
-0.206559
-0.274834
-0.0120492
-0.125634
0.11107
0.0878171
0.0952095
-0.249676
-0.247705
-0.367623
0.0478055
0.0217021
-0.188847
-0.120068
0.0238485
-0.401754
-0.252023
-0.258168
-0.242806
-0.0997129
-0.248029
-0.134622
-0.0373116
-0.145043
-0.127547
-0.0082213
-0.221535
-0.184163
-0.09879
-0.144462
-0.222261
0.0660999
0.108514
-0.188747
0.0172176
-0.413399
-0.251329
0.0729058
0.0039884
-0.259857
0.102096
-0.312472
-0.0141154
-0.173058
-0.150179
0.0760409
-0.204065
-0.00230806
-0.00873188
-0.0500891
0.146542
-0.0434411
-0.341132
-0.0762121
-0.141862
0.0021719
0.132905
-0.0499161
-0.146167
-0.227914
-0.146716
0.0783718
-0.303569
0.0218919
-0.237372
-0.0870736
0.00993207
-0.011635
-0.162362
0.0633924
0.127292
-0.186683
-0.217404
-0.132556
-0.258689
-0.334113
-0.13065
-0.00710157
-0.285415
-0.342742
-0.181357
-0.333942
-0.0181425
-0.152281
0.00670989
-0.213485
0.0959049
-0.146922
0.0457158
0.121509
-0.270913
0.08671
-0.173519
-0.130194
-0.119856
0.0509784
-0.205588
-0.188393
-0.113006
-0.269864
-0.2135
-0.282874
-0.310311
-0.41221
0.133436
0.14896
-0.288804
-0.207638
-0.00240636
-0.358384
-0.196134
-0.233343
-0.0337694
-0.0166945
-0.374737
-0.416837
0.0879319
-0.197841
-0.0925516
-0.206555
-0.346578
-0.311067
-0.0996367
0.0501162
-0.08717
-0.365687
0.0988414
0.0493117
-0.263613
-0.0997604
-0.240658
0.126736
-0.224385
-0.167411
-0.319757
-0.0554894
0.0999853
-0.0860414
-0.095317
-0.23518
-0.147187
-0.0835367
0.124194
0.135464
-0.208432
0.128976
-0.227713
-0.120776
-0.119022
-0.195459
-0.225353
0.0542209
-0.156019
-0.11378
-0.237329
-0.304642
-0.14194
-0.272691
-0.0452603
0.0993292
-0.268099
-0.237896
-0.126955
-0.221994
-0.16793
-0.404601
-0.198823
0.0350792
-0.210524
-0.27241
-0.0181032
-0.128535
-0.17315
-0.0604293
0.0337352
-0.194834
-0.174619
0.0421314
-0.190161
-0.193175
-0.137957
0.0475754
-0.0620718
-0.117055
-0.196916
-0.269248
-0.214971
0.12702
0.0453081
0.146655
-0.176615
-0.0404661
-0.301659
-0.155135
0.0542309
-0.349911
-0.350216
-0.0116958
0.0504593
-0.359035
-0.207169
-0.188588
-0.189552
-0.195887
0.135386
-0.158559
-0.208426
-0.0940636
-0.227235
-0.0163671
-0.09017
-0.313779
-0.191448
0.00738531
-0.150986
0.131148
-0.33614
-0.252561
-0.0558666
-0.081647
-0.194673
-0.0955526
-0.265585
0.135578
0.041674
-0.0531901
0.0577436
-0.272635
0.0557719
-0.063842
-0.0577194
0.115214
-0.356804
-0.219285
0.132772
-0.0600435
-0.371818
-0.271312
0.0214395
0.130305
-0.15924
-0.0017262
-0.19766
-0.327317
-0.244304
-0.372755
0.0527056
-0.245813
-0.151502
0.114952
-0.276027
-0.190744
-0.225633
-0.119754
-0.19676
-0.261729
-0.226306
-0.310716
-0.147009
0.0222168
0.114694
-0.0249748
-0.174167
-0.225954
-0.383356
-0.246831
-0.0756224
-0.101821
-0.0424637
-0.0144881
-0.226511
-0.178717
0.0277024
0.0549118
0.138307
0.0748265
0.118289
-0.153737
-0.323407
-0.254532
-0.290906
0.123846
-0.127892
-0.23115
0.114272
-0.315359
0.02452
-0.0196302
-0.19921
-0.195941
-0.217114
-0.264488
0.0515319
-0.219836
-0.0327152
-0.163161
0.111125
-0.106993
0.143677
-0.272166
-0.162277
-0.279895
-0.42179
-0.211233
0.00120529
-0.197071
-0.227877
-0.118254
0.0685166
0.00496005
-0.263955
-0.320507
-0.239203
-0.320206
-0.195103
-0.320871
-0.198763
-0.289963
-0.0103247
-0.290863
-0.203466
0.0315998
-0.134456
-0.0654977
0.040247
-0.20969
-0.152617
-0.25003
0.00376686
-0.229111
-0.180037
-0.158913
-0.297251
-0.344548
-0.211349
-0.170449
-4.96868e-05
0.14292
0.0633979
-0.115259
-0.0277181
-0.35516
0.126877
-0.0939639
-0.0126271
-0.180678
-0.0203024
-0.266802
-0.211767
0.0270896
0.0981414
0.00176814
-0.110028
-0.228806
0.146865
-0.17273
0.0227168
0.123524
-0.0462271
-0.190384
-0.359193
0.0229021
-0.0896032
-0.301416
-0.060726
-0.10178
0.10517
-0.247196
0.114679
0.14119
-0.202007
-0.26831
0.122766
-0.311926
-0.294367
-0.205863
-0.289894
-0.20103
-0.282931
-0.330596
-0.167835
-0.196077
-0.244467
-0.244312
-0.104213
-0.292278
-0.264843
-0.0698916
-0.151765
-0.348063
0.0982843
0.120619
0.119386
-0.208891
-0.361901
0.141458
-0.324039
-0.172585
-0.191184
-0.241005
-0.177228
-0.0134275
-0.235423
-0.248957
-0.346033
-0.351067
-0.304358
-0.235979
-0.373492
-0.16684
-0.126026
-0.180341
0.110105
-0.126616
-0.046197
-0.16865
0.0420265
-0.251247
-0.232343
0.128667
-0.187515
-0.100996
-0.320546
-0.0455863
0.13531
-0.223976
-0.0714389
-0.0908555
-0.276561
-0.206954
-0.281387
-0.275906
-0.00723761
-0.28958
-0.181542
-0.24947
-0.199872
-0.239021
-0.279049
-0.169411
-0.230685
-0.252638
0.103888
-0.173112
-0.178641
-0.115757
0.0941642
-0.227422
-0.34698
0.0129309
-0.310044
-0.207534
-0.193592
-0.131117
-0.266084
-0.143287
-0.125332
0.139811
0.060377
-0.336157
-0.252766
-0.356132
-0.195126
-0.374792
-0.270336
-0.185102
-0.266427
-0.185481
-0.074264
0.150029
-0.225686
-0.0216376
-0.134006
0.127403
-0.241685
0.143545
-0.0828132
-0.314804
-0.0756266
-0.0123874
-0.247917
0.0420639
-0.193632
0.070194
-0.256868
-0.232275
-0.18116
0.146952
0.130235
-0.00528276
-0.0661833
-0.0313228
-0.358307
-0.276803
-0.0284171
0.1429
-0.221408
-0.142978
-0.186157
-0.252933
-0.193727
-0.233623
-0.295497
-0.242891
-0.283732
-0.20304
-0.237208
-0.183489
0.146822
0.0423373
-0.379077
0.0163012
-0.25353
-0.286732
0.0232387
-0.263245
-0.209852
-0.0402817
-0.210092
-0.258685
-0.162608
0.0576992
-0.299062
-0.257145
-0.219765
-0.0782555
-0.28984
0.108834
-0.362504
-0.23891
-0.219984
-0.266278
-0.0606104
-0.0747454
0.100045
-0.20174
-0.000820994
-0.124009
-0.085312
-0.217877
-0.0588526
-0.294517
-0.302017
-0.403894
-0.0868923
-0.185752
-0.221362
0.0681611
-0.152062
-0.0946396
-0.0643239
-0.253822
-0.281192
-0.230461
-0.0885203
-0.208249
0.152123
-0.321851
-0.364679
-0.198665
-0.24874
-0.20512
-0.17705
-0.0204043
-0.215031
-0.1737
-0.296727
-0.189996
-0.178774
-0.204651
0.138878
0.0877511
-0.286975
-0.24231
0.0471664
-0.109582
-0.231641
-0.317196
-0.212756
-0.306721
-0.127866
0.0942031
-0.232819
-0.355812
-0.0760264
-0.167546
-0.360793
-0.295873
-0.160583
-0.0304906
0.130085
-0.307987
-0.351831
-0.105338
0.0514282
-0.220706
-0.112939
-0.226591
-0.198965
-0.232208
-0.0791365
-0.190048
-0.20467
0.020578
-0.221613
-0.388502
-0.135416
-0.211537
0.0273285
0.144969
-0.201566
-0.241017
-0.237578
-0.237454
-0.303054
-0.237001
-0.304442
0.115294
0.0311126
-0.0328599
-0.184357
-0.346762
0.00665435
0.131657
-0.269556
-0.141348
-0.260348
-0.414127
-0.159348
-0.245907
-0.4177
-0.155467
-0.066582
-0.32825
-0.358415
-0.28816
-0.0104885
-0.340059
0.0193238
-0.134483
-0.233288
-0.236351
-0.248519
0.0281676
-0.387665
-0.232586
-0.206527
-0.306146
-0.116829
-0.0278368
-0.109953
-0.183098
0.00121317
-0.299308
-0.289022
0.0838946
-0.207039
0.0764745
-0.103258
-0.222441
-0.0905622
0.0642023
-0.168683
-0.354984
0.107064
-0.209971
-0.21162
0.0587841
-0.228382
0.118526
-0.236327
-0.218629
-0.210888
-0.21416
-0.278008
-0.165009
-0.304475
-0.388737
-0.317876
-0.286315
-0.409294
0.0943275
-0.287626
-0.215176
-0.109245
-0.159587
0.132254
0.139909
-0.269369
-0.123294
0.0329392
-0.282916
0.0956118
-0.397438