/*--------------------------------*- C++ -*----------------------------------*\
  =========                 |
  \\      /  F ield         | OpenFOAM: The Open Source CFD Toolbox
   \\    /   O peration     | Website:  https://openfoam.org
    \\  /    A nd           | Version:  6
     \\/     M anipulation  |
\*---------------------------------------------------------------------------*/
FoamFile
{
    version     2.0;
    format      ascii;
    class       volScalarField;
    location    "0";
    object      P_rec;
}
// * * * * * * * * * * * * * * * * * * * * * * * * * * * * * * * * * * * * * //

dimensions      [0 2 -2 0 0 0 0];

internalField   nonuniform List<scalar> 
13046
(
0.827034
0.781861
0.770825
0.839187
0.793275
0.771415
0.829882
0.767235
0.78767
0.692443
0.271907
0.733035
0.835899
0.724687
0.762126
0.726404
0.714185
0.347828
0.822861
0.785903
0.820748
0.721565
0.720771
0.336266
0.829576
0.80247
0.777139
0.823962
0.72545
0.755874
0.833237
0.7642
0.759781
0.829534
0.794504
0.80019
0.825987
0.800893
0.804588
0.81144
0.744437
0.787155
0.812414
0.819861
0.811799
0.8257
0.806746
0.799602
0.823482
0.769445
0.773009
0.696912
0.792622
0.765708
0.697894
0.764338
0.791407
0.564729
0.787294
0.704633
0.812216
0.647587
0.766108
0.734507
0.451737
0.762558
0.788247
0.588006
0.699028
0.794916
0.614147
0.700287
0.524497
0.779125
0.703767
0.821679
0.789265
0.813865
0.710251
0.76859
0.486591
0.829965
0.790246
0.77656
0.730653
0.411064
0.744257
0.748891
0.751441
0.462173
0.75996
0.713026
0.442334
0.807812
0.801035
0.619724
0.591563
0.738786
0.742392
0.755328
0.749168
0.479157
0.832649
0.808188
0.791055
0.796214
0.789567
0.714421
0.7995
0.728326
0.787176
0.609178
0.734761
0.129518
0.836224
0.745959
0.762773
0.796542
0.804249
0.573299
0.726648
0.611685
0.729638
0.676566
0.234572
0.731522
0.825727
0.664013
0.749436
0.814521
0.744763
0.776851
0.761621
0.722252
0.478499
0.789772
0.542019
0.745685
0.832044
0.747678
0.751928
0.82619
0.73058
0.7799
0.793101
0.715001
0.793017
0.79776
0.80689
0.733787
0.812028
0.621773
0.764435
0.803044
0.814453
0.751153
0.663141
0.773447
0.645571
0.773412
0.782257
0.779407
0.825437
0.70579
0.788396
0.683093
0.737497
0.279432
0.638455
0.733327
0.163629
0.784909
0.515868
0.740624
0.812693
0.734502
0.727928
0.825024
0.792802
0.71762
0.744055
0.327994
0.699127
0.811332
0.753749
0.726441
0.800644
0.804285
0.736972
0.828788
0.740571
0.782707
0.702757
0.767924
0.826321
0.689004
0.749635
0.742062
0.74408
0.419143
0.760412
0.744101
0.497024
0.71556
0.425592
0.757175
0.678678
0.738948
0.785222
0.830059
0.772471
0.702183
0.492653
0.391336
0.71583
0.754449
0.825597
0.802751
0.796449
0.824052
0.741081
0.75043
0.761987
0.733235
0.499602
0.828009
0.709109
0.772669
0.739638
0.211662
0.641546
0.783398
0.743361
0.665912
0.731155
0.462467
0.757377
0.790778
0.675614
0.78459
0.816238
0.668336
0.747315
0.558933
0.738375
0.766133
0.764095
0.622796
0.774352
0.742942
0.200833
0.624675
0.807099
0.726941
0.767518
0.622933
0.726348
0.0928603
0.812613
0.830639
0.781274
0.806828
0.802193
0.677305
0.690005
0.78484
0.776528
0.703649
0.761814
0.451703
0.8192
0.693913
0.739222
0.763369
0.595391
0.771549
0.788659
0.553072
0.734191
0.813586
0.808252
0.816187
0.787427
0.652366
0.7793
0.819601
0.680811
0.734807
0.826931
0.828223
0.806605
0.715727
0.749144
0.787967
0.63297
0.774914
0.775156
0.733571
0.524872
0.809649
0.732263
0.778984
0.781903
0.755895
0.650543
0.798321
0.604877
0.718279
0.795556
0.701848
0.754141
0.788829
0.791217
0.575489
0.716646
0.559819
0.722089
0.740193
0.351964
0.710056
0.805565
0.637641
0.731063
0.0386163
0.73531
0.557138
0.830269
0.806337
0.748086
0.819596
0.671187
0.766572
0.743423
0.753773
0.456796
0.683668
0.754389
0.788757
0.53356
0.737846
0.764271
0.736985
0.771003
0.808993
0.662345
0.756762
0.725371
0.781492
0.743303
0.714697
0.386459
0.684275
0.717615
0.787401
0.803706
0.639146
0.750582
0.816543
0.71522
0.785257
0.786207
0.704289
0.794773
0.833754
0.76861
0.779621
0.78057
0.759605
0.661011
0.728307
0.419158
0.748757
0.536858
0.737665
0.765485
0.789825
0.700116
0.659401
0.779199
0.783822
0.555523
0.522292
0.706485
0.7105
0.733428
0.0575141
0.579927
0.638194
0.724584
0.11797
0.80634
0.662351
0.77252
0.742094
0.735694
0.387814
0.794362
0.797597
0.632102
0.611207
0.71494
0.712096
0.75539
0.331474
0.673375
0.610507
0.725319
0.0594855
0.810295
0.822883
0.794688
0.607698
0.0974188
0.732981
0.815352
0.723226
0.723152
0.706546
0.344417
0.746857
0.0423624
0.744985
0.508369
0.812454
0.748791
0.800395
0.830237
0.787284
0.799911
0.676234
0.728414
0.227406
0.826357
0.771063
0.798042
0.812223
0.820686
0.802898
0.784592
0.732615
0.659991
0.817719
0.779074
0.812339
0.830921
0.749273
0.811331
0.791438
0.678606
0.697919
0.724799
0.731328
0.32932
0.321938
0.715209
0.711843
0.708245
0.39209
0.748038
0.703728
0.789739
0.632186
0.805564
0.724081
0.770005
0.751907
0.61446
0.771202
0.128825
0.748894
0.548425
0.757718
0.708551
0.416785
0.651769
0.73493
0.199872
0.74524
0.0148301
0.501138
-0.0177364
0.738159
0.528826
0.607095
0.789887
0.764476
0.245229
0.754121
0.621202
0.777053
0.527134
0.748237
0.708207
0.708458
0.266725
0.833694
0.770171
0.75775
0.363006
0.756067
0.690451
0.751701
0.773238
0.629362
0.584869
0.764454
0.770338
0.745029
-0.0967682
0.442772
0.0618611
0.739618
0.54278
0.836019
0.78204
0.765008
0.317042
0.66677
0.751409
0.755145
0.648211
0.305626
0.729072
0.734245
0.385025
0.710745
0.445946
0.756955
0.795391
0.678952
0.696788
0.575433
0.790116
0.712665
0.707678
0.747301
0.379751
0.818112
0.816527
0.720519
0.697141
0.735221
0.735593
0.816621
0.733559
0.732312
0.79968
0.631297
0.713059
0.558516
0.750784
0.766711
0.38165
0.712743
0.750647
0.762486
0.756371
0.532517
-0.00666496
0.735704
0.549351
0.825486
0.826495
0.759574
0.783973
0.767578
0.785392
0.808933
0.798235
0.716577
0.673949
0.713914
0.705093
0.0618277
0.747115
0.508326
0.334435
0.679117
0.750589
0.797086
0.70354
0.741413
0.582576
0.74385
0.769557
0.709089
0.469274
0.763656
0.131593
0.593191
0.741838
0.163918
0.605221
0.743526
0.802656
0.622408
0.721481
0.809949
0.730629
0.791333
0.722263
0.733679
0.349639
0.586294
0.776364
0.765014
0.733592
0.48474
0.771771
0.797979
0.71692
0.715489
0.795058
0.687097
0.787202
0.80943
0.736114
0.781007
0.737142
0.329095
0.708368
0.787726
0.546326
0.727561
0.81953
0.757159
0.796971
0.73316
0.705081
0.336495
0.820124
0.755588
0.750848
0.825723
0.741795
0.795971
0.606033
0.777312
0.771228
0.66937
0.717891
0.172798
0.681229
0.714203
0.19265
0.728243
0.476308
0.770331
0.784781
0.686765
0.784276
0.7172
0.125856
0.646877
0.747582
0.489646
0.768141
0.746049
-0.00696049
0.474264
0.512487
-0.0470915
0.735464
0.712193
0.399176
0.7517
0.740505
0.258882
0.667268
0.734253
0.744005
0.723031
0.362338
0.725622
0.401319
0.758079
0.494341
0.750742
0.77375
0.5971
0.733977
0.834352
0.773165
0.783952
0.767859
0.525941
0.759334
0.762262
0.773253
0.545346
0.754517
0.704282
0.407098
0.805354
0.653508
0.710879
0.809264
0.703934
0.716396
0.791411
0.600075
0.758712
0.787497
0.586924
0.761418
0.821306
0.756526
0.805502
0.814997
0.686493
0.734821
0.756937
0.372526
0.68117
0.590115
0.747258
0.168236
0.572893
0.750343
0.160663
0.81477
0.739729
0.761595
0.100262
0.743784
0.561995
0.779536
0.725773
0.50614
0.74584
0.105363
0.540583
0.836427
0.800216
0.778611
0.823636
0.688142
0.75689
0.691738
0.779539
0.78871
0.754196
0.269298
0.640612
0.584544
0.777927
0.76799
0.709098
0.723673
0.313825
0.814605
0.666842
0.753721
0.834221
0.780398
0.789758
0.279054
0.6573
0.749564
0.739288
0.47009
0.765412
0.663105
0.646728
0.725175
0.727076
0.187629
0.156676
0.814778
0.694878
0.780609
0.628253
0.795698
0.767183
0.822832
0.757204
0.790226
0.210728
0.612046
0.216952
0.747925
0.612103
0.751147
0.804273
0.601981
0.750389
0.654899
0.633328
0.258897
0.226356
0.747442
0.747817
0.791399
0.645331
0.774537
0.82191
0.702101
0.766471
0.698012
0.714085
0.245318
0.825796
0.686285
0.777279
0.829392
0.73782
0.784049
0.673738
0.719088
0.198149
0.817574
0.644456
0.743794
0.63646
0.735351
0.775367
0.79901
0.699791
0.709398
0.497842
0.76184
0.718768
0.742894
-0.0695771
0.465002
0.815473
0.68001
0.763193
0.710576
0.719181
0.293933
0.69185
0.698477
0.790907
0.560155
0.728267
0.00804297
0.803739
0.800421
0.738314
0.806014
0.733735
0.807177
0.829236
0.752828
0.797228
0.808689
0.809171
0.743925
0.807885
0.758366
0.806451
0.819079
0.712049
0.778405
0.826778
0.711385
0.780794
0.751365
0.183586
0.579877
0.817453
0.751319
0.734275
0.673411
0.28175
0.743559
0.788994
0.782019
0.579799
0.548688
0.753426
0.751114
0.816607
0.768325
0.744171
0.801173
0.654751
0.715828
0.804326
0.623929
0.758326
0.826156
0.805409
0.784623
0.779302
0.549429
0.758328
0.827686
0.762365
0.794366
0.803001
0.647411
0.77188
0.803317
0.668291
0.718297
0.823814
0.82159
0.803823
0.7847
0.810152
0.77764
0.816259
0.752789
0.813317
0.81385
0.771184
0.811766
0.821891
0.824004
0.730155
0.719461
0.743272
0.739117
0.715227
0.458898
0.766536
0.777737
0.745072
0.652872
0.719914
0.723584
0.423832
0.433003
0.755579
0.755159
0.792631
0.700659
0.74459
0.824564
0.801799
0.808142
0.777382
0.530503
0.754485
0.823919
0.749204
0.768878
0.80365
0.653009
0.720417
0.7813
0.784388
0.508463
0.7159
0.521812
0.718772
0.794376
0.578214
0.747629
0.580958
0.0408836
0.728393
0.688683
0.717328
0.789285
0.790935
0.79435
0.695015
0.698129
0.705792
0.715065
0.763626
0.555741
0.765453
0.800178
0.676662
0.719138
0.797097
0.696892
0.731623
0.795041
0.80583
0.710675
0.724554
0.737616
0.730722
0.794227
0.711863
0.719107
0.796914
0.591846
0.753256
0.823607
0.765456
0.804679
0.688248
0.723882
0.249835
0.796005
0.696947
0.717649
0.811761
0.807799
0.654582
0.631856
0.72291
0.728361
0.722575
0.290212
0.707203
0.702776
0.718076
0.260973
0.68784
0.720141
0.231732
0.77822
0.720317
0.497185
0.804908
0.69633
0.725171
0.263107
0.399517
0.624415
0.267744
0.560084
0.110748
0.491511
0.355887
0.204322
0.554829
0.552311
0.173549
0.263335
0.545773
0.397321
0.263368
0.300852
0.361381
0.401459
0.513991
0.435356
0.34919
0.57372
0.705331
0.641444
0.40492
0.575036
0.189541
0.455614
0.256661
0.205011
0.490558
0.41463
0.422333
0.242647
0.434965
0.621966
0.568314
0.316556
0.432673
0.321539
0.728296
0.268092
0.545983
0.582993
0.353659
0.361945
0.294693
0.181951
0.269579
0.647357
0.443799
0.265578
0.339496
0.200658
0.642905
0.513881
0.423185
0.286646
0.53502
0.264807
0.277981
0.643798
0.375349
0.424048
0.517507
0.446906
0.679924
0.570638
0.538393
0.150379
0.196237
0.320135
0.53374
0.182381
0.422642
0.389887
0.235448
0.52028
0.601913
0.359529
0.415449
0.188365
0.247901
0.346059
0.530482
0.348033
0.297198
0.389184
0.647705
0.265484
0.539128
0.638115
0.427202
0.265255
0.0634982
0.241639
0.300128
0.263736
0.147647
0.472946
0.578133
0.593425
0.683951
0.25401
0.280816
0.186544
0.277457
0.244204
0.619787
0.584426
0.514954
0.230487
0.201044
0.446198
0.558044
0.370551
0.296996
0.128985
0.355439
0.413343
0.651732
0.672897
0.53788
0.419056
0.3256
0.174152
0.66603
0.231223
0.530372
0.139819
0.639395
0.189299
0.243331
0.250224
0.600799
0.411805
0.09998
0.258921
0.49738
0.26051
0.537517
0.456106
0.280456
0.578848
0.335638
0.242147
0.611821
0.266872
0.373255
0.175411
0.424364
0.312483
0.600166
0.538735
0.361762
0.532335
0.537419
0.623293
0.396139
0.314512
0.274815
0.52966
0.230762
0.433183
0.192775
0.70854
0.35716
0.591703
0.669346
0.439107
0.67135
0.605901
0.624683
0.218474
0.133003
0.173092
0.626454
0.222681
0.201107
0.230093
0.203203
0.370169
0.331851
0.438724
0.668492
0.537692
0.326916
0.526338
0.316354
0.721169
0.212995
0.571316
0.283278
0.11861
0.657475
0.680062
0.275507
0.299702
0.705982
0.4606
0.320935
0.248679
0.535193
0.617088
0.492466
0.259601
0.288586
0.544151
0.410608
0.252885
0.47022
0.237659
0.217907
0.328182
0.562782
0.136225
0.345206
0.579504
0.340522
0.133109
0.357338
0.268228
0.311767
0.484351
0.496944
0.245748
0.197678
0.244417
0.517403
0.491846
0.372214
0.504058
0.343157
0.223952
0.471244
0.324134
0.115082
0.4991
0.610989
0.452447
0.640797
0.614802
0.727533
0.265674
0.0899777
0.385985
0.359752
0.306062
0.144342
0.467136
0.650991
0.52034
0.467488
0.249954
0.374614
0.515885
0.430286
0.473845
0.268776
0.380583
0.32385
0.227641
0.246138
0.283546
0.267272
0.231819
0.499985
0.415823
0.365325
0.507575
0.27128
0.376888
0.271628
0.360198
0.339048
0.310415
0.46126
0.146385
0.0868845
0.382266
0.167654
0.141
0.467556
0.208725
0.139984
0.601164
0.50941
0.253498
0.510683
0.210765
0.492751
0.470256
0.247637
0.269289
0.56041
0.395603
0.521761
0.111277
0.236758
0.601645
0.316438
0.252381
0.063761
0.154429
0.129813
0.162029
0.335746
0.508518
0.224928
0.122315
0.251246
0.302966
0.722446
0.27978
0.531901
0.448994
0.226796
0.331119
0.247161
0.195031
0.487852
0.338733
0.651055
0.490434
0.244783
0.334729
0.445683
0.702685
0.506575
0.623742
0.543139
0.323068
0.444477
0.374606
0.242853
0.153766
0.304056
0.304828
0.483107
0.280023
0.180508
0.264979
0.323883
0.260799
0.295121
0.586448
0.306355
0.286851
0.63144
0.576402
0.244278
0.412418
0.617998
0.295216
0.202852
0.333451
0.229255
0.191926
0.606374
0.258219
0.344668
0.614905
0.14526
0.429101
0.260802
0.440341
0.337997
0.28761
0.0788326
0.334259
0.178941
0.324709
0.352989
0.356498
0.511321
0.646191
0.261672
0.401615
0.323699
0.260018
0.111003
0.574226
0.455416
0.330197
0.183663
0.442952
0.172472
0.277655
0.255514
0.239484
0.543035
0.634247
0.316201
0.505249
0.6838
0.582247
0.567907
0.627505
0.312937
0.297494
0.194638
0.703362
0.555749
0.595524
0.288147
0.345328
0.125963
0.519039
0.316823
0.275661
0.594611
0.472933
0.237884
0.330184
0.255247
0.264122
0.261974
0.336965
0.363
0.215841
0.308707
0.160239
0.331906
0.221221
0.46841
0.397075
0.137195
0.622654
0.639576
0.539258
0.314599
0.437052
0.212617
0.555635
0.435197
0.177312
0.616676
0.163041
0.65368
0.167341
0.370063
0.369498
0.539051
0.538492
0.263318
0.674867
0.275136
0.584984
0.369585
0.472543
0.300293
0.259746
0.291476
0.588015
0.360193
0.697869
0.520932
0.152884
0.27787
0.495135
0.174784
0.318929
0.369996
0.214801
0.652547
0.249213
0.230822
0.55484
0.296952
0.650574
0.688311
0.355127
0.694969
0.655478
0.595927
0.602894
0.458038
0.185133
0.264383
0.346381
0.578067
0.335452
0.165267
0.672628
0.227491
0.379937
0.25591
0.628118
0.717755
0.237089
0.583399
0.446009
0.644915
0.335557
0.546656
0.367846
0.670461
0.692811
0.504336
0.260082
0.543595
0.297111
0.4123
0.410857
0.350608
0.45277
0.291754
0.162213
0.197735
0.365944
0.468857
0.413034
0.604363
0.247977
0.315069
0.464414
0.198364
0.636968
0.256636
0.367797
0.614737
0.596761
0.428239
0.68182
0.252165
0.342588
0.545578
0.384881
0.387469
0.369732
0.29375
0.497423
0.521202
0.293521
0.257268
0.432488
0.15394
0.214442
0.643692
0.678993
0.692461
0.360872
0.690586
0.712165
0.658452
0.106966
0.462277
0.455186
0.683117
0.327519
0.263476
0.178459
0.257654
0.143734
0.666097
0.393597
0.403597
0.551262
0.507063
0.316218
0.364737
0.712257
0.661026
0.625356
0.492318
0.326019
0.507361
0.48653
0.328672
0.365669
0.206877
0.257306
0.39692
0.396132
0.295745
0.640584
0.648181
0.113005
0.598526
0.2664
0.261462
0.317722
0.63347
0.351078
0.500136
0.384042
0.628787
0.340148
0.383247
0.685269
0.120167
0.1535
0.250104
0.222798
0.0860588
0.0394971
0.232148
0.0891814
0.403084
0.107172
0.21303
0.39578
0.310283
0.236138
0.303629
0.192957
0.0621889
0.654561
0.575975
0.351022
0.179105
0.582909
0.332819
0.26252
0.691255
0.239335
0.684269
0.345042
0.607522
0.36003
0.207172
0.207761
0.407512
0.412993
0.405742
0.209482
0.346044
0.220926
0.220659
0.27988
0.142431
0.198848
0.66409
0.254613
0.527613
0.553478
0.331466
0.561329
0.558356
0.178296
0.0462749
0.36835
0.15496
0.0936733
0.527004
0.539718
0.352661
0.480438
0.31601
0.685538
0.652367
0.377995
0.304353
0.677661
0.611666
0.474232
0.467045
0.337458
0.690854
0.395
0.11056
0.631357
0.57145
0.64805
0.421073
0.267396
0.314931
0.542612
0.491616
-0.00511275
0.733532
0.364579
0.249013
0.428272
0.594182
0.675711
0.700539
0.477133
0.369158
0.560086
0.610984
0.61629
0.523994
0.57824
0.220868
0.265659
0.430958
0.194801
0.212193
0.139549
0.361219
0.56277
0.160031
0.406932
0.273183
0.577075
0.701141
0.393331
0.188117
0.129664
0.539552
0.305166
0.250243
0.129069
0.629323
0.451496
0.47063
0.168438
0.463175
0.24892
0.261151
0.519904
0.561048
0.630486
0.71545
0.231591
0.608223
0.11364
0.629711
0.64943
0.649301
0.557444
0.215407
0.214808
0.360701
0.109178
0.38751
0.140658
0.439368
0.174319
0.595409
0.333885
0.121751
0.596147
0.526077
0.371334
0.380905
0.519385
0.628691
0.450883
0.397205
0.11725
0.576434
0.416824
0.656424
0.0893725
0.400544
0.633326
0.535875
0.681258
0.535137
0.346117
0.073865
0.123324
0.385427
0.149185
0.662287
0.119462
0.286441
0.36478
0.256691
0.556225
0.0942489
0.619597
0.54538
0.46942
0.161985
0.47263
0.250451
0.315349
0.391181
0.364595
0.343499
0.331351
0.56531
0.223445
0.68675
0.333853
0.381272
0.506715
0.517976
0.660432
0.34526
0.381011
0.236405
0.366121
0.31981
0.660851
0.256438
0.401671
0.336777
0.573023
0.30236
0.420549
0.192517
0.70166
0.105666
0.214376
0.312006
0.579051
0.12666
0.132239
0.203837
0.178859
0.640554
0.38995
0.503444
0.608126
0.482366
0.411005
0.703811
0.391526
0.52226
0.489202
0.404946
0.139086
0.421327
0.399222
0.285644
0.420994
0.235417
0.153129
0.440832
0.330821
0.222984
0.564423
0.369495
0.500816
0.390495
0.645897
0.35858
0.346912
0.486653
0.179011
0.247133
0.338753
0.40931
0.444333
0.490787
0.634299
0.511768
0.578314
0.434412
0.60997
0.665467
0.667693
0.434293
0.388987
0.444559
0.187745
0.674791
0.606656
0.581638
0.416012
0.219674
0.144582
0.44704
0.53432
0.252045
0.576891
0.600371
0.485175
0.265762
0.411654
0.285965
0.261724
0.419151
0.275871
0.470386
0.129914
0.469941
0.361352
0.379982
0.0951725
0.437322
0.416528
0.507683
0.323599
0.460623
0.64036
0.648485
0.477771
0.35124
0.579812
0.436903
0.252381
0.250068
0.362146
0.168726
0.629864
0.37893
0.448229
0.545665
0.528019
0.465612
0.231252
0.686558
0.471175
0.265975
0.393301
0.424547
0.57983
0.636643
0.47541
0.467597
0.129907
0.230667
0.386284
0.479439
0.404631
0.479967
0.290341
0.645751
0.456842
0.548359
0.614781
0.445615
0.247719
0.40263
0.674568
0.323085
0.123807
0.399108
0.680174
0.307873
0.365957
0.569745
0.529806
0.586665
0.406695
0.135944
0.481579
0.191278
0.316233
0.594814
0.403232
0.193629
0.249592
0.30453
0.49258
0.305578
0.276235
0.612325
0.274259
0.705491
0.584197
0.176313
0.0786687
0.37815
0.530022
0.612675
0.409291
0.386153
0.259752
0.360333
0.356015
0.714326
0.626491
0.539198
0.307792
0.146671
0.629367
0.693563
0.642829
0.576656
0.619442
0.397206
0.194575
0.104982
0.126323
0.655884
0.421936
0.266198
0.323399
0.690355
0.336506
0.267097
0.160405
0.410489
0.242868
0.684101
0.48638
0.527557
0.630086
0.592052
0.371887
0.507742
0.400213
0.503384
0.315944
0.478302
0.282558
0.660149
0.218048
0.316415
0.269342
0.341384
0.638203
0.343775
0.594024
0.603915
0.627204
0.215485
0.396826
0.383419
0.258902
0.649633
0.419902
0.413453
0.481015
0.127391
0.329097
0.64094
0.510431
0.649897
0.115064
0.211688
0.347251
0.667511
0.29013
0.360146
0.236066
0.229132
0.314214
0.649636
0.341013
0.392041
0.16717
0.67683
0.685502
0.132057
0.63945
0.32642
0.218469
0.217534
0.414158
0.156406
0.465658
0.307631
0.316587
0.347467
0.616518
0.407606
0.588992
0.338997
0.204261
0.339581
0.114494
0.146414
0.393983
0.32012
0.426398
0.225327
0.372156
0.600834
0.460726
0.318095
0.204284
0.616878
0.417788
0.365222
0.701817
0.428633
0.311349
0.316317
0.250972
0.676287
0.28755
0.381723
0.493065
0.173585
0.624035
0.230258
0.608425
0.389261
0.556154
0.239839
0.557298
0.380255
0.179498
0.252477
0.387301
0.629645
0.0770072
0.253767
0.344074
0.659513
0.684588
0.253666
0.295212
0.459665
0.663517
0.352102
0.63983
0.614069
0.581299
0.548211
0.463776
0.493838
0.487389
0.652981
0.360875
0.411009
0.251867
0.267722
0.357154
0.22287
0.677785
0.221927
0.631964
0.349834
0.667596
0.297983
0.686911
0.555535
0.59879
0.667971
0.640653
0.698008
0.363645
0.624076
0.382904
0.344166
0.251624
0.228002
0.649106
0.223386
0.490095
0.495453
0.374392
0.466298
0.28324
0.633834
0.439554
0.553549
0.100227
0.248562
0.349577
0.683446
0.262675
0.515764
0.272875
0.34877
0.189362
0.355419
0.335435
0.585477
0.65797
0.157573
0.483096
0.346269
0.304545
0.598592
0.25465
0.264294
0.664864
0.126725
0.417341
0.537514
0.638343
0.695511
0.278116
0.265008
0.170225
0.315447
0.260054
0.343047
0.543748
0.321242
0.186293
0.387158
0.396282
0.299846
0.2647
0.341754
0.40706
0.183826
0.573306
0.557917
0.293638
0.557896
0.206264
0.167188
0.264625
0.121286
0.67838
0.33073
0.332791
0.284656
0.593872
0.652833
0.453264
0.53981
0.27339
0.268244
0.395488
0.333375
0.252292
0.650508
0.437916
0.491013
0.675287
0.572365
0.373018
0.67078
0.152734
0.458682
0.453147
0.497592
0.338283
0.645118
0.323544
0.490188
0.392325
0.297216
0.221625
0.272735
0.556892
0.601515
0.627144
0.402838
0.429845
0.650897
0.562538
0.395772
0.421192
0.206683
0.366514
0.59067
0.152653
0.610741
0.337996
0.623081
0.68628
0.656324
0.329657
0.60057
0.61192
0.17847
0.646123
0.29533
0.662887
0.582727
0.350591
0.227373
0.436411
0.369373
0.338466
0.271112
0.567343
0.296513
0.666379
0.212899
0.281577
0.258554
0.210176
0.334393
0.595053
0.681409
0.207855
0.546125
0.421584
0.492296
0.358298
0.454019
0.645284
0.588971
0.342398
0.636622
0.600978
0.685745
0.206501
0.323669
0.262829
0.54715
0.669911
0.605913
0.38134
0.687863
0.385685
0.161945
0.225537
0.0744185
0.364265
0.192131
0.679225
0.707447
0.432836
0.691866
0.593584
0.452413
0.681578
0.20681
0.643454
0.364737
0.651152
0.323395
0.216892
0.544143
0.445215
0.663835
0.640083
0.647418
0.234433
0.236478
0.141321
0.603295
0.586742
0.246891
0.391809
0.58803
0.111891
0.296605
0.232981
0.357377
0.479375
0.351148
0.452902
0.529292
0.425505
0.43709
0.564031
0.325064
0.332576
0.486344
0.431438
0.332721
0.62412
0.654141
0.24908
0.583049
0.0999796
0.283752
0.626538
0.569469
0.336902
0.655444
0.19888
0.55629
0.338772
0.336252
0.633649
0.327921
0.561685
0.541751
0.513163
0.708484
0.524105
0.174071
0.503718
0.359995
0.569853
0.711008
0.507091
0.382144
0.250926
0.338561
0.635772
0.200266
0.588674
0.242529
0.442546
0.570213
0.557456
0.427962
0.620865
0.686942
0.325517
0.324564
0.436725
0.227696
0.193801
0.457428
0.545234
0.257815
0.17411
0.268092
0.17047
0.554607
0.378874
0.574596
0.273475
0.646443
0.420592
0.600942
0.67447
0.271876
0.642201
0.315217
0.446148
0.395452
0.608396
0.266135
0.352444
0.404408
0.223502
0.3325
0.210468
0.189964
0.101366
0.676607
0.685881
0.256828
0.27628
0.567652
0.151634
0.259331
0.338109
0.538625
0.545705
0.133416
0.100984
0.639406
0.272844
0.473614
0.265268
0.163926
0.228031
0.434618
0.608102
0.469343
0.160897
0.64899
0.607591
0.247693
0.476819
0.32793
0.674269
0.346743
0.355469
0.179335
0.523441
0.648115
0.494826
0.441914
0.262128
0.371532
0.465608
0.682316
0.694941
0.261648
0.690552
0.270802
0.464856
0.462246
0.393072
0.307799
0.610527
0.343423
0.438292
0.247523
0.300614
0.34284
0.217483
0.509987
0.650752
0.248966
0.287661
0.451673
0.315906
0.274813
0.111185
0.304212
0.604924
0.167202
0.329411
0.527718
0.457627
0.37771
0.515782
0.587592
0.259267
0.264797
0.602358
0.37187
0.243181
0.386318
0.605877
0.51408
0.471549
0.269321
0.279934
0.256972
0.683316
0.606659
0.689983
0.371499
0.534651
0.197535
0.411421
0.611741
0.158849
0.172063
0.559711
0.6115
0.147882
0.287432
0.266271
0.247128
0.261321
0.692578
0.34846
0.282712
0.441732
0.250662
0.541277
0.448533
0.189197
0.289903
0.561095
0.369812
0.684678
0.189791
0.297714
0.485131
0.476865
0.400937
0.4808
0.222424
0.692426
0.638301
0.489221
0.613126
0.260849
0.608713
0.518166
0.478845
0.671194
0.152261
0.301578
0.704745
0.521409
0.144354
0.33329
0.582128
0.69918
0.414015
0.566986
0.26677
0.177711
0.23841
0.138495
0.610618
0.273402
0.438979
0.661354
0.267043
0.259533
0.265724
0.422692
0.278577
0.332359
0.255294
0.212424
0.37024
0.588403
0.666277
0.521544
0.30996
0.302123
0.127656
0.304659
0.503182
0.486913
0.500269
0.534929
0.304049
0.41362
0.58172
0.61582
0.697477
0.629803
0.675824
0.378898
0.198898
0.240335
0.203642
0.684138
0.432739
0.275098
0.668413
0.204965
0.586726
0.539876
0.292864
0.267307
0.300288
0.288369
0.612915
0.371851
0.540579
0.400841
0.661048
0.470504
0.714576
0.239667
0.406941
0.320032
0.0922154
0.315721
0.554351
0.236445
0.113974
0.471723
0.647
0.572958
0.285254
0.187138
0.242133
0.211113
0.268847
0.211859
0.392662
0.217175
0.560471
0.251442
0.274792
0.633989
0.379561
0.503508
0.604061
0.390188
0.439335
0.235047
0.556994
0.373834
0.294137
0.35955
0.228664
0.184306
0.272293
0.292103
0.566205
0.690586
0.621468
0.468455
0.541603
0.155665
0.690761
0.44756
0.537558
0.278763
0.542696
0.335086
0.32615
0.592533
0.649755
0.558937
0.476723
0.349472
0.701986
0.318143
0.576749
0.67927
0.528414
0.350745
0.148941
0.577237
0.43357
0.218347
0.518891
0.427195
0.654087
0.267281
0.661311
0.698064
0.381444
0.24006
0.675595
0.187104
0.225572
0.323512
0.220449
0.3029
0.226036
0.191473
0.399811
0.276862
0.237928
0.315307
0.48376
0.307744
0.264901
0.511211
0.437495
0.164106
0.653948
0.680455
0.669183
0.264995
0.160453
0.723732
0.177373
0.378819
0.262931
0.344997
0.280279
0.55743
0.320495
0.335456
0.173056
0.154792
0.221605
0.326955
0.14355
0.423508
0.460888
0.413988
0.665028
0.43303
0.500527
0.339057
0.601318
0.352162
0.337819
0.697713
0.318726
0.423423
0.191546
0.528795
0.684197
0.381132
0.472566
0.428789
0.333852
0.262984
0.265114
0.214431
0.563175
0.231905
0.361578
0.333472
0.383612
0.242673
0.266289
0.380208
0.367353
0.307335
0.680393
0.390833
0.342244
0.474773
0.650293
0.334535
0.15823
0.565022
0.188989
0.351132
0.265272
0.374246
0.330717
0.3472
0.376991
0.687458
0.620309
0.167569
0.303975
0.154548
0.257944
0.142976
0.218741
0.307416
0.234322
0.316627
0.500509
0.6932
0.321889
0.545629
0.408219
0.681919
0.325184
0.685285
0.500151
0.199725
0.484546
0.551234
0.34467
0.599039
0.264487
0.627786
0.288824
0.136717
0.404714
0.694587
0.673556
0.566976
0.494943
0.522412
0.170165
0.318834
0.51714
0.715812
0.148125
0.382307
0.269234
0.348785
0.378356
0.246346
0.200632
0.279819
0.218382
0.283607
0.361088
0.369776
0.708015
0.599244
0.140338
0.579461
0.232591
0.25729
0.583804
0.290922
0.350928
0.51066
0.181637
0.257282
0.410171
0.615252
0.207406
0.269761
0.349245
0.501173
0.204223
0.655696
0.155938
0.335646
0.355779
0.281766
0.491478
0.503781
0.652877
0.262677
0.550537
0.46689
0.491149
0.256584
0.487167
0.240982
0.194946
0.121744
0.441573
0.407332
0.35685
0.623721
0.392524
0.439949
0.483621
0.246241
0.226853
0.327298
0.458082
0.263841
0.691835
0.19164
0.157957
0.318161
0.337898
0.270524
0.270195
0.53518
0.326286
0.416574
0.204285
0.265939
0.416243
0.228727
0.691631
0.670959
0.209537
0.242537
0.602479
0.401975
0.248472
0.184965
0.254249
0.21555
0.461507
0.649116
0.246707
0.16482
0.500568
0.385786
0.156576
0.208279
0.380815
0.541418
0.691236
0.197257
0.158182
0.480761
0.609287
0.374215
0.447618
0.350726
0.263707
0.338467
0.50153
0.404903
0.264556
0.587882
0.350697
0.123242
0.452783
0.274117
0.591298
0.709671
0.268979
0.32867
0.333003
0.323689
0.193827
0.343846
0.213217
0.669335
0.58885
0.540895
0.311385
0.174435
0.573348
0.688899
0.266003
0.447462
0.332498
0.0989137
0.433507
0.342469
0.108366
0.307491
0.485296
0.203949
0.160333
0.216155
0.587968
0.188886
0.577392
0.364382
0.265446
0.363637
0.236032
0.592636
0.128541
0.338311
0.372484
0.191989
0.447104
0.518364
0.474353
0.409713
0.572171
0.210561
0.208706
0.635854
0.26132
0.630163
0.482113
0.377116
0.432923
0.62268
0.386039
0.15088
0.654999
0.258365
0.383611
0.613324
0.248302
0.662662
0.2547
0.352367
0.177022
0.346058
0.213445
0.404516
0.23256
0.123202
0.220439
0.206676
0.104105
0.647332
0.205884
0.342035
0.456228
0.395261
0.692085
0.69193
0.325789
0.386958
0.594725
0.315897
0.650177
0.115106
0.359786
0.438
0.2729
0.603406
0.332117
0.338178
0.289327
0.272541
0.265659
0.128843
0.626141
0.0761841
0.652644
0.539348
0.232052
0.160363
0.229487
0.695384
0.525401
0.508626
0.383465
0.447887
0.379697
0.620641
0.568513
0.238072
0.477259
0.661928
0.391142
0.443192
0.475528
0.140433
0.203483
0.573294
0.346955
0.36434
0.664305
0.202529
0.120748
0.286268
0.360151
0.396533
0.676688
0.256894
0.182755
0.261907
0.359608
0.262266
0.638399
0.37695
0.231724
0.335681
0.267529
0.245114
0.30457
0.488221
0.408219
0.230655
0.623572
0.350231
0.594718
0.231767
0.198883
0.324474
0.615824
0.677524
0.588658
0.428176
0.404392
0.58445
0.66725
0.19244
0.651032
0.222563
0.505067
0.502454
0.635542
0.42366
0.621328
0.645003
0.269611
0.268025
0.342711
0.387394
0.222571
0.270968
0.218619
0.560497
0.602251
0.185521
0.657709
0.417713
0.575932
0.38345
0.228027
0.594745
0.574386
0.332108
0.295342
0.214106
0.699794
0.534353
0.720047
0.186699
0.221837
0.37172
0.609357
0.496681
0.620978
0.416745
0.671938
0.283558
0.347665
0.443575
0.29967
0.487713
0.198853
0.589085
0.389724
0.438221
0.651843
0.177229
0.188882
0.130165
0.452163
0.626998
0.289202
0.496212
0.205612
0.177749
0.368412
0.275257
0.251871
0.618322
0.39778
0.246632
0.3577
0.450693
0.651466
0.455087
0.364466
0.626454
0.393869
0.677578
0.43685
0.5435
0.368687
0.18966
0.693297
0.22793
0.433793
0.472769
0.647083
0.530145
0.402387
0.276148
0.704415
0.357846
0.239812
0.565493
0.69297
0.547185
0.5128
0.172601
0.117
0.454411
0.232365
0.354047
0.42812
0.229658
0.649373
0.700541
0.658507
0.30291
0.345731
0.252106
0.316821
0.510078
0.208767
0.519701
0.668521
0.19471
0.336675
0.281329
0.585553
0.510304
0.346562
0.237058
0.551214
0.259295
0.190524
0.220179
0.703496
0.122306
0.585177
0.469161
0.265663
0.659999
0.46051
0.689345
0.183744
0.3379
0.433183
0.655047
0.318297
0.645686
0.463039
0.122786
0.410197
0.293708
0.33189
0.115827
0.566981
0.338572
0.235847
0.155058
0.412311
0.62506
0.0634352
0.310379
0.628142
0.337609
0.611837
0.11169
0.267525
0.259913
0.378241
0.319245
0.171426
0.259825
0.0763557
0.359688
0.365991
0.576364
0.420763
0.631174
0.246701
0.343219
0.175053
0.398182
0.0731322
0.347331
0.714077
0.358696
0.300737
0.697979
0.246845
0.456736
0.49351
0.167543
0.308139
0.393029
0.437791
0.666167
0.691069
0.692873
0.447314
0.339699
0.380954
0.227363
0.602524
0.498396
0.264903
0.314139
0.294678
0.387819
0.693186
0.359447
0.688942
0.337423
0.476176
0.232
0.256952
0.175446
0.279929
0.643056
0.296235
0.186685
0.213199
0.697539
0.311201
0.231109
0.225068
0.257856
0.537654
0.414174