/*--------------------------------*- C++ -*----------------------------------*\
  =========                 |
  \\      /  F ield         | OpenFOAM: The Open Source CFD Toolbox
   \\    /   O peration     | Website:  https://openfoam.org
    \\  /    A nd           | Version:  6
     \\/     M anipulation  |
\*---------------------------------------------------------------------------*/
FoamFile
{
    version     2.0;
    format      ascii;
    class       volVectorField;
    location    "0";
    object      U;
}
// * * * * * * * * * * * * * * * * * * * * * * * * * * * * * * * * * * * * * //

dimensions      [0 1 -1 0 0 0 0];

internalField   nonuniform List<vector> 
13046
(
(-0.568271 0.301722 0)
(-0.516161 0.0764689 -5.97053e-21)
(-0.295525 0.118625 -1.33297e-20)
(-0.564366 0.240887 0)
(-0.352672 0.17503 -1.19518e-20)
(-0.446989 0.0763861 0)
(-0.590386 0.250975 1.73099e-21)
(-0.448526 0.0528695 3.06902e-21)
(-0.336422 0.183878 -1.3186e-20)
(-0.737898 0.36925 6.05496e-21)
(-0.722905 -0.214098 0)
(-0.0742247 0.0904094 9.02773e-21)
(-0.629307 0.314041 -5.49496e-21)
(-0.516316 0.0275237 -9.58905e-21)
(-0.261313 0.131624 7.36002e-21)
(-0.71347 0.422323 -7.81126e-21)
(-0.0780596 0.0583548 2.16817e-20)
(-0.750436 -0.143778 5.17315e-21)
(-0.439207 0.233371 0)
(-0.382312 0.0933571 -6.47828e-21)
(-0.536844 0.17719 1.81196e-20)
(-0.719993 0.413157 -3.33993e-21)
(-0.076748 0.066242 -2.89475e-20)
(-0.742119 -0.157927 0)
(-0.536971 0.255576 7.29204e-21)
(-0.483737 0.0996411 -1.45869e-20)
(-0.342369 0.141581 0)
(-0.629122 0.33445 -1.00834e-20)
(-0.533874 0.0230826 2.79777e-21)
(-0.243153 0.116471 -1.27114e-20)
(-0.567878 0.316654 0)
(-0.534322 0.0800923 0)
(-0.280124 0.101023 1.35711e-20)
(-0.51209 0.238059 -8.46742e-21)
(-0.363062 0.14321 4.4764e-21)
(-0.477709 0.118921 2.54046e-20)
(-0.506962 0.222141 -1.30477e-20)
(-0.38337 0.159144 6.8126e-21)
(-0.461152 0.12335 -1.30855e-20)
(-0.506674 0.339002 9.44214e-21)
(-0.292923 0.0299378 2.52593e-21)
(-0.607817 0.12354 -8.98895e-21)
(-0.474535 0.180737 5.90647e-21)
(-0.43392 0.178735 1.01716e-20)
(-0.435855 0.14539 0)
(-0.496599 0.182132 3.71291e-21)
(-0.428125 0.193845 -1.55737e-20)
(-0.418206 0.127601 -1.95196e-21)
(-0.581715 0.294645 0)
(-0.501198 0.0608424 -4.30388e-22)
(-0.29093 0.131139 1.88203e-23)
(-0.327883 -0.0503832 1.57912e-20)
(-0.453608 0.370712 0)
(-0.691565 0.150369 -1.1032e-20)
(-0.351794 -0.0717995 -2.24936e-20)
(-0.712561 0.162519 -1.76261e-20)
(-0.427487 0.364774 1.48749e-20)
(-0.698758 -0.0135002 -2.24916e-21)
(-0.662586 0.468032 0)
(-0.146336 0.0127942 1.1895e-20)
(-0.718872 0.287881 -5.21184e-21)
(-0.503637 -0.0691952 5.78695e-21)
(-0.256342 0.207713 -3.08761e-20)
(-0.126146 0.115187 1.64275e-20)
(-0.661306 -0.142668 -3.75165e-21)
(-0.747665 0.37041 -8.99967e-21)
(-0.645415 0.476081 0)
(-0.698988 0.00917589 0)
(-0.162546 -0.005084 0)
(-0.632894 0.46761 -4.14308e-21)
(-0.688045 0.0215927 0)
(-0.173916 -0.00443956 9.4767e-21)
(-0.717182 -0.0259693 0)
(-0.671825 0.474553 1.21354e-22)
(-0.134112 0.00884237 8.62224e-24)
(-0.452652 0.250595 0)
(-0.364737 0.0819635 7.05125e-21)
(-0.549427 0.164478 -1.29389e-20)
(-0.113081 0.0277572 1.32142e-20)
(-0.689853 0.462117 -1.29957e-20)
(-0.722874 -0.0640028 0)
(-0.554334 0.258736 3.81566e-21)
(-0.472687 0.0859972 0)
(-0.334332 0.152957 0)
(-0.112293 0.106791 -1.47838e-20)
(-0.681273 -0.158391 -2.93707e-21)
(-0.749211 0.375236 5.36793e-21)
(-0.782175 0.311334 -9.43379e-21)
(-0.163514 0.179375 0)
(-0.606698 -0.179288 -2.91186e-21)
(-0.19662 0.243637 0)
(-0.819749 0.250303 0)
(-0.567304 -0.232098 3.93201e-22)
(-0.699457 0.36257 0)
(-0.7156 0.359802 4.92856e-21)
(-0.587164 -0.050383 1.13024e-20)
(-0.593821 -0.0723296 -5.3095e-21)
(-0.186479 0.118982 -6.74323e-21)
(-0.178527 0.129083 1.72569e-20)
(-0.181088 0.197519 -8.25492e-22)
(-0.787667 0.297043 9.22958e-21)
(-0.588031 -0.183301 0)
(-0.518562 0.196955 -3.28998e-23)
(-0.410531 0.194482 8.20077e-21)
(-0.419011 0.110404 0)
(-0.395381 0.312709 0)
(-0.679328 0.191992 -5.38964e-21)
(-0.370437 -0.0351298 0)
(-0.46052 0.348648 1.63561e-20)
(-0.318744 -0.0160648 0)
(-0.656383 0.14843 -2.06453e-20)
(-0.684958 0.350626 0)
(-0.0395345 0.064899 0)
(-0.71662 -0.264141 -4.30707e-21)
(-0.608947 0.301061 1.51864e-20)
(-0.503728 0.0428198 4.0322e-21)
(-0.277525 0.138091 1.32842e-20)
(-0.703642 0.397403 6.24514e-21)
(-0.693535 0.38407 -1.17464e-20)
(-0.635587 -0.0610764 -9.58103e-21)
(-0.153328 0.0882109 7.75194e-21)
(-0.609364 -0.045317 5.83904e-21)
(-0.170824 0.0971592 -7.24384e-21)
(-0.725808 0.373171 -5.14249e-21)
(-0.733836 -0.223854 -5.97867e-21)
(-0.063046 0.080476 -4.05037e-21)
(-0.666784 0.356669 0)
(-0.563562 -0.0145509 -7.43954e-21)
(-0.20919 0.111361 1.56194e-20)
(-0.528817 0.345903 0)
(-0.277826 0.0404277 -1.25158e-20)
(-0.597559 0.107018 5.40071e-22)
(-0.215838 0.257354 0)
(-0.814496 0.245966 0)
(-0.551121 -0.213223 0)
(-0.744701 0.3465 0)
(-0.6058 -0.114601 -1.48736e-20)
(-0.171019 0.14732 -1.85647e-20)
(-0.587424 0.329067 0)
(-0.545136 0.064248 0)
(-0.263657 0.0939181 0)
(-0.657411 0.251221 0)
(-0.438662 -0.00726427 0)
(-0.326106 0.22392 0)
(-0.445621 0.348575 0)
(-0.333215 -0.0304513 0)
(-0.672435 0.158375 1.11172e-20)
(-0.399745 0.301474 -1.72145e-21)
(-0.666754 0.194499 -1.15017e-20)
(-0.3734 -0.0215187 1.36228e-20)
(-0.727801 0.299222 1.24889e-20)
(-0.524971 -0.0814494 0)
(-0.23614 0.191641 4.02154e-20)
(-0.385723 0.253029 0)
(-0.624623 0.210265 1.23412e-20)
(-0.391322 0.0197731 -3.42711e-21)
(-0.404255 -0.0970013 0)
(-0.737756 0.195512 1.24927e-20)
(-0.432421 -0.110896 0)
(-0.750292 0.212678 7.17753e-21)
(-0.368218 0.334137 0)
(-0.33798 0.313831 0)
(-0.673608 0.2253 1.57509e-21)
(-0.412595 -0.0263457 7.20503e-21)
(-0.349803 0.256705 -7.54771e-21)
(-0.752946 0.356521 -6.21759e-21)
(-0.0824036 0.103446 0)
(-0.704084 -0.223888 -7.38493e-21)
(-0.700928 0.361527 -4.66745e-21)
(-0.0463445 0.0689003 -1.85416e-21)
(-0.73227 -0.248412 0)
(-0.743838 0.357727 -7.37579e-21)
(-0.62324 -0.11901 0)
(-0.155456 0.133805 2.1119e-20)
(-0.553935 0.394641 0)
(-0.63676 0.0891417 2.93237e-21)
(-0.250084 0.0090353 7.37216e-21)
(-0.661125 0.215203 1.04469e-20)
(-0.368883 0.270005 3.5996e-21)
(-0.396219 -0.0131061 0)
(-0.104184 0.134475 0)
(-0.668285 -0.227125 0)
(-0.775975 0.33176 5.29215e-21)
(-0.537385 0.378011 0)
(-0.627203 0.102433 -6.29157e-21)
(-0.264871 0.0166899 1.90114e-21)
(-0.384425 0.265406 0)
(-0.634863 0.205195 0)
(-0.381796 0.0072575 0)
(-0.639354 0.242068 5.14035e-21)
(-0.430242 0.0066412 0)
(-0.335994 0.2191 0)
(-0.514889 -0.000258462 -5.16365e-23)
(-0.252022 0.148337 -9.00759e-21)
(-0.656633 0.342525 1.595e-20)
(-0.547486 -0.00165102 0)
(-0.225568 0.120395 -1.95715e-20)
(-0.771187 0.340795 -9.61567e-21)
(-0.132726 0.142796 1.33636e-20)
(-0.649965 -0.180807 -1.42281e-20)
(-0.211206 0.237058 1.21473e-20)
(-0.798728 0.267171 5.69774e-21)
(-0.557382 -0.189906 1.45539e-20)
(-0.80631 0.279973 -1.61708e-20)
(-0.595824 -0.21498 0)
(-0.17072 0.208212 -1.19446e-20)
(-0.321883 -0.0806569 -8.1186e-22)
(-0.720952 0.134806 4.99295e-21)
(-0.469616 0.415763 0)
(-0.629006 0.274641 -2.33158e-20)
(-0.681932 0.472434 6.58974e-21)
(-0.117039 0.0183274 -8.14269e-21)
(-0.73215 -0.0559293 0)
(-0.614315 -0.228721 0)
(-0.80208 0.290825 -1.47729e-20)
(-0.150588 0.187826 0)
(-0.525122 0.216753 -1.88059e-20)
(-0.386514 0.178399 -6.68736e-21)
(-0.438899 0.106014 1.92868e-20)
(-0.615977 0.342703 0)
(-0.54623 0.0378993 -4.02788e-22)
(-0.24667 0.104669 -7.48813e-21)
(-0.220994 0.252748 9.28181e-21)
(-0.805884 0.255435 0)
(-0.547296 -0.199142 -1.67652e-20)
(-0.647025 0.285504 1.87057e-20)
(-0.500094 -0.00298095 1.74057e-20)
(-0.265533 0.162569 0)
(-0.0647584 0.0938165 0)
(-0.701815 -0.255611 6.4336e-21)
(-0.739909 0.345509 0)
(-0.445893 0.401254 0)
(-0.730942 0.144806 0)
(-0.340806 -0.0934425 0)
(-0.799262 0.281555 1.41917e-20)
(-0.582709 -0.198252 0)
(-0.182964 0.210892 -1.21419e-23)
(-0.711617 0.220442 4.63989e-21)
(-0.417973 -0.0684503 -5.57865e-21)
(-0.341025 0.284818 0)
(-0.661836 0.370727 0)
(-0.576604 -0.00873077 6.94386e-21)
(-0.201294 0.0977207 1.2321e-20)
(-0.492427 -0.186886 -2.07082e-20)
(-0.805677 0.215405 -1.02821e-20)
(-0.284744 0.314019 7.2979e-21)
(-0.768391 0.210381 0)
(-0.44669 -0.132768 -8.08168e-21)
(-0.328097 0.31962 -2.61192e-22)
(-0.0626826 0.0969749 -1.1871e-20)
(-0.685947 -0.268683 0)
(-0.742192 0.331407 -5.54664e-21)
(-0.497174 0.37469 8.71518e-21)
(-0.292741 -0.0118462 -9.19746e-21)
(-0.654446 0.126131 9.17035e-22)
(-0.634549 0.372591 5.07555e-21)
(-0.0276634 0.0427152 -1.74295e-20)
(-0.752043 -0.230747 0)
(-0.414821 0.217901 -3.88116e-21)
(-0.544378 0.191741 -1.46386e-20)
(-0.396751 0.0877236 1.94083e-20)
(-0.70631 0.248936 5.60088e-21)
(-0.699432 0.230452 3.07555e-23)
(-0.449423 -0.0599639 -1.34296e-20)
(-0.424349 -0.0542045 0)
(-0.33462 0.268512 6.86117e-21)
(-0.304744 0.245521 -7.13514e-21)
(-0.101263 0.033491 -1.72915e-20)
(-0.694756 0.456182 6.85841e-21)
(-0.736383 -0.0785352 -1.25821e-20)
(-0.644541 0.373064 0)
(-0.580121 0.0128135 0)
(-0.21102 0.087177 -1.62412e-20)
(-0.779784 0.222707 -2.67628e-21)
(-0.471115 -0.150816 0)
(-0.303562 0.305425 0)
(-0.724769 0.374158 -6.03785e-21)
(-0.62322 -0.0879189 0)
(-0.15656 0.114551 7.72328e-21)
(-0.466805 0.191386 3.99263e-21)
(-0.454865 0.153215 5.82719e-21)
(-0.422675 0.163373 -1.99524e-21)
(-0.737742 0.226503 -9.16897e-21)
(-0.441099 -0.0966919 0)
(-0.322537 0.289239 -1.20167e-20)
(-0.643009 0.386914 0)
(-0.596606 0.0133175 8.66969e-21)
(-0.20119 0.0732058 -1.05056e-20)
(-0.651017 0.305046 0)
(-0.667828 0.312914 1.8705e-21)
(-0.499161 0.386542 3.16638e-21)
(-0.28974 -0.0236618 2.67125e-20)
(-0.665846 0.124303 -2.20719e-20)
(-0.746534 0.240857 -9.46017e-21)
(-0.463645 -0.10833 1.17804e-20)
(-0.295878 0.269585 1.09668e-20)
(-0.7353 0.371394 0)
(-0.149174 0.120342 -2.71772e-20)
(-0.632083 -0.105684 -7.44035e-21)
(-0.465007 0.333923 -2.25693e-20)
(-0.31964 -0.00267279 0)
(-0.641073 0.151799 6.97931e-21)
(-0.377389 0.353216 -1.39851e-20)
(-0.747278 0.185554 -7.22771e-21)
(-0.398755 -0.11049 0)
(-0.676003 0.414012 -6.0199e-21)
(-0.638054 -0.0249648 -7.69876e-21)
(-0.159619 0.0623045 4.82884e-21)
(-0.474445 0.386328 1.14713e-21)
(-0.313098 -0.046179 0)
(-0.688643 0.140097 1.51943e-20)
(-0.687143 0.421239 0)
(-0.697922 0.414245 0)
(-0.654014 -0.0394986 -5.02257e-21)
(-0.148402 0.062048 -1.2554e-20)
(-0.65388 -0.0567524 7.10665e-21)
(-0.143886 0.0733295 1.33511e-20)
(-0.108469 0.128444 -1.04036e-20)
(-0.67418 -0.209518 0)
(-0.770702 0.343939 -7.0417e-21)
(-0.678765 0.385611 6.94972e-21)
(-0.601589 -0.028678 0)
(-0.178879 0.0898148 4.25322e-21)
(-0.666371 -0.271532 1.24654e-20)
(-0.0207902 0.0447456 1.52509e-20)
(-0.608524 0.326396 1.30426e-20)
(-0.593828 0.194689 -6.72715e-21)
(-0.408174 0.2485 0)
(-0.37972 0.0461674 0)
(-0.698777 0.28529 1.2618e-20)
(-0.490821 -0.048008 0)
(-0.265509 0.199735 2.35606e-20)
(-0.142764 0.141437 -8.47054e-21)
(-0.764527 0.34513 1.96292e-20)
(-0.637281 -0.159383 1.06378e-20)
(-0.355901 -0.0850242 0)
(-0.724795 0.161203 6.57022e-21)
(-0.421849 0.377349 -1.68534e-20)
(-0.511956 -0.192429 -2.54355e-20)
(-0.806869 0.229271 -6.3478e-21)
(-0.259712 0.290592 0)
(-0.47855 0.0183911 -1.73911e-20)
(-0.29004 0.171193 0)
(-0.69921 0.321023 1.38891e-20)
(-0.530705 -0.0465719 6.38795e-21)
(-0.228088 0.158549 7.20063e-21)
(-0.463829 0.0110958 1.02384e-20)
(-0.301545 0.185568 7.78092e-23)
(-0.715572 0.423493 -4.70743e-22)
(-0.0882706 0.0593476 1.01664e-20)
(-0.734988 -0.127359 -7.59949e-21)
(-0.310285 -0.0901533 0)
(-0.728181 0.124096 1.60461e-21)
(-0.487241 0.434957 0)
(-0.712324 0.326659 -1.41486e-20)
(-0.547315 -0.0620094 -7.80169e-21)
(-0.215406 0.161141 -8.85363e-21)
(-0.668127 0.243761 0)
(-0.429027 -0.0211654 -1.04723e-20)
(-0.3306 0.237712 0)
(-0.681913 0.176356 0)
(-0.354041 -0.0410195 0)
(-0.418758 0.330309 0)
(-0.574707 0.276711 -5.29402e-21)
(-0.484509 0.0695777 -9.51372e-21)
(-0.312409 0.144896 4.01737e-23)
(-0.399791 0.368861 1.73626e-20)
(-0.740848 0.173232 1.76517e-20)
(-0.380923 -0.102441 1.14859e-20)
(-0.784534 0.319627 -8.65322e-21)
(-0.630921 -0.1953 1.21243e-20)
(-0.14308 0.162226 -1.26111e-20)
(-0.520268 -0.183316 1.71771e-20)
(-0.800741 0.241539 6.43453e-21)
(-0.24902 0.274489 9.23088e-21)
(-0.601835 0.461784 -1.27861e-20)
(-0.204063 -0.0170281 1.42534e-20)
(-0.684093 0.0500059 -1.07449e-20)
(-0.691488 0.443978 3.71776e-21)
(-0.684562 0.440823 -3.3495e-21)
(-0.678771 -0.0405524 -1.60263e-21)
(-0.694598 -0.0529984 0)
(-0.126538 0.0425977 -4.63252e-21)
(-0.137383 0.042979 -4.0655e-21)
(-0.0241261 0.0445445 -2.06375e-20)
(-0.696004 -0.259158 -1.37289e-20)
(-0.62065 0.338176 3.20127e-21)
(-0.647548 0.382097 -3.20598e-22)
(-0.0321146 0.0435916 2.41171e-20)
(-0.766309 -0.22232 0)
(-0.723439 0.256431 -2.0559e-20)
(-0.469231 -0.0751813 -3.04046e-21)
(-0.292357 0.244496 0)
(-0.119066 0.129632 -2.57303e-20)
(-0.767528 0.347471 7.00049e-21)
(-0.666942 -0.187703 0)
(-0.644199 0.443031 1.81579e-20)
(-0.658343 0.440364 -1.36278e-20)
(-0.66097 0.008802 8.2382e-21)
(-0.661511 -0.0056267 3.15365e-21)
(-0.173919 0.0234836 -8.02911e-21)
(-0.161954 0.0337751 -4.02423e-21)
(-0.128064 0.177352 0)
(-0.61571 -0.259253 0)
(-0.80595 0.276331 2.66532e-21)
(-0.595658 0.367108 -5.96055e-21)
(-0.0216346 0.0340225 0)
(-0.744604 -0.225059 0)
(-0.505586 0.157996 -5.3935e-23)
(-0.461512 0.226842 8.52919e-21)
(-0.381664 0.118032 4.30622e-21)
(-0.64997 0.353869 -1.0638e-20)
(-0.723911 -0.255664 6.3011e-21)
(-0.0306817 0.0518943 1.12936e-21)
(-0.581734 0.395719 0)
(-0.62324 0.0685214 -1.35659e-20)
(-0.231884 0.0269406 2.15823e-24)
(-0.782837 0.323141 7.31453e-23)
(-0.656442 -0.227876 1.75356e-20)
(-0.117055 0.14627 4.36327e-24)
(-0.586252 -0.292059 3.77839e-22)
(-0.0197472 0.0456254 -8.7825e-21)
(-0.587838 0.264536 -5.19184e-21)
(-0.487595 0.318473 -8.15016e-21)
(-0.310777 0.0391392 7.97989e-21)
(-0.597917 0.138223 2.19516e-20)
(-0.567115 0.207256 0)
(-0.405131 0.0704553 -2.15111e-20)
(-0.393636 0.2172 1.10191e-20)
(-0.714802 0.385876 0)
(-0.0584034 0.0718432 1.20848e-20)
(-0.747164 -0.213606 4.56385e-24)
(-0.583469 0.209676 0)
(-0.397553 0.0565366 -7.59615e-21)
(-0.387602 0.228568 -1.55603e-20)
(-0.491841 0.162735 8.75671e-21)
(-0.455843 0.212237 -4.53373e-21)
(-0.397448 0.130444 2.2644e-21)
(-0.431117 0.407403 8.37372e-21)
(-0.751056 0.151073 -6.3185e-21)
(-0.361114 -0.116392 1.26993e-20)
(-0.564493 0.169785 0)
(-0.359327 0.0686757 0)
(-0.441379 0.262583 1.27788e-21)
(-0.586873 0.185827 1.06495e-20)
(-0.368219 0.0548475 5.86724e-21)
(-0.427069 0.262012 1.81858e-22)
(-0.584542 0.456933 1.94083e-20)
(-0.686517 0.0621907 -1.0579e-20)
(-0.220439 -0.0288459 -1.40648e-20)
(-0.0820538 0.0856307 1.82228e-20)
(-0.084073 0.092408 -1.84783e-20)
(-0.727626 -0.18194 5.17677e-21)
(-0.71688 -0.193967 3.59439e-21)
(-0.734946 0.391192 0)
(-0.742243 0.381325 -6.1995e-21)
(-0.789988 0.314952 1.06291e-20)
(-0.636666 -0.209584 -1.08993e-20)
(-0.135262 0.164971 1.55987e-20)
(-0.191985 -0.0247477 -9.13493e-21)
(-0.612701 0.477744 3.9919e-21)
(-0.697661 0.0400859 1.37058e-20)
(-0.513642 0.368478 -7.9586e-21)
(-0.281236 0.00562195 -8.38159e-21)
(-0.636378 0.116262 6.9148e-21)
(-0.778016 0.192794 0)
(-0.435064 -0.145596 8.35928e-21)
(-0.34657 0.34656 2.70299e-22)
(-0.612283 -0.304862 6.26484e-21)
(-0.0433692 0.0801369 -8.17728e-21)
(-0.691543 0.272975 -4.46882e-21)
(-0.178109 0.224826 0)
(-0.816046 0.262354 0)
(-0.581891 -0.234414 7.36228e-21)
(-0.720728 0.358522 5.37116e-21)
(-0.0567999 0.0811911 0)
(-0.723712 -0.24608 -6.31346e-21)
(-0.0139704 0.0358115 -3.24642e-32)
(-0.559433 -0.280628 -5.81983e-21)
(-0.540889 0.252721 5.26418e-21)
(-0.599215 -0.241855 6.51424e-21)
(-0.0108132 0.0284955 3.23896e-32)
(-0.517583 0.293169 -4.6801e-21)
(-0.51479 -0.115399 -1.62367e-20)
(-0.755225 0.275124 0)
(-0.251341 0.229408 -2.36385e-20)
(-0.625178 -0.285107 -3.37702e-21)
(-0.0894518 0.138578 -8.34604e-21)
(-0.783022 0.277374 0)
(-0.755853 0.336697 -9.24191e-21)
(-0.60207 -0.131097 9.23983e-21)
(-0.172433 0.158462 1.2351e-20)
(-0.687113 0.429097 1.58512e-20)
(-0.0570043 0.0409327 7.38191e-21)
(-0.790519 -0.154441 0)
(-0.61314 0.283225 4.09311e-21)
(-0.295302 0.161505 -4.50269e-21)
(-0.482231 0.0345223 4.18651e-21)
(-0.606655 -0.252199 3.80665e-21)
(-0.143656 0.193295 8.7934e-21)
(-0.81035 0.272179 2.91779e-21)
(-0.768647 0.18473 -7.17054e-21)
(-0.365647 0.360013 -4.78571e-21)
(-0.417238 -0.134115 0)
(-0.484102 -0.14853 0)
(-0.77737 0.235138 0)
(-0.283864 0.28715 0)
(-0.00285387 0.0109264 0)
(-0.35579 -0.161376 -4.85676e-21)
(-0.311783 0.151713 3.89873e-21)
(-0.650978 -0.28767 6.23068e-21)
(-0.0246942 0.0515228 -1.06057e-20)
(-0.627898 0.311769 -5.44818e-21)
(-0.594576 0.271429 -1.05278e-20)
(-0.312724 0.162963 1.05822e-20)
(-0.471917 0.0504537 4.83223e-21)
(-0.639178 -0.249814 1.56324e-20)
(-0.794593 0.300357 -5.85796e-21)
(-0.113402 0.156694 0)
(-0.119687 0.173542 -9.24704e-21)
(-0.806679 0.270334 0)
(-0.611528 -0.272796 -1.16969e-20)
(-0.756911 0.366085 -6.39863e-21)
(-0.109072 0.114144 2.76044e-20)
(-0.681904 -0.176072 0)
(-0.101725 0.0541124 -2.08942e-20)
(-0.719806 -0.097043 7.9528e-21)
(-0.708783 0.43507 0)
(-0.570619 0.468742 -2.44172e-20)
(-0.702986 0.070958 1.34819e-20)
(-0.235678 -0.048003 -4.47521e-21)
(-0.68171 -0.023297 2.396e-21)
(-0.669914 0.453589 7.90334e-21)
(-0.146637 0.0283544 -1.26976e-20)
(-0.0832082 0.0377878 -1.87771e-20)
(-0.698024 0.447603 0)
(-0.759399 -0.10936 0)
(-0.604439 0.378294 -3.81692e-21)
(-0.623095 0.390393 0)
(-0.592164 0.0502008 -1.41205e-20)
(-0.602619 0.0343549 1.50929e-20)
(-0.226274 0.0609852 2.13246e-21)
(-0.210367 0.0591049 -2.27367e-21)
(-0.585523 0.380737 3.66281e-21)
(-0.603377 0.0661338 0)
(-0.236469 0.046113 4.0997e-21)
(-0.634466 0.455876 0)
(-0.673708 0.0175952 -1.33094e-20)
(-0.177116 0.00884476 2.89717e-21)
(-0.509621 -0.168079 -8.49326e-21)
(-0.79109 0.242754 6.60261e-21)
(-0.25805 0.271383 -1.90098e-20)
(-0.625039 -0.225139 0)
(-0.794878 0.303195 1.61522e-20)
(-0.137876 0.174544 0)
(-0.225516 0.237773 -6.124e-21)
(-0.788774 0.267188 -4.24444e-21)
(-0.542953 -0.170246 -5.55726e-21)
(-0.638769 -0.242124 -8.9393e-22)
(-0.0127684 0.0307035 5.65674e-21)
(-0.544139 0.314814 0)
(-0.527873 0.321322 7.32195e-21)
(-0.536716 0.311702 0)
(-0.291843 0.0685329 0)
(-0.566642 0.110657 2.69073e-20)
(-0.295481 0.0851302 0)
(-0.548762 0.102303 -1.7081e-20)
(-0.610275 0.438706 0)
(-0.59071 0.426899 0)
(-0.217789 0.00673175 3.23254e-23)
(-0.658083 0.0433203 8.24345e-21)
(-0.20253 0.0105394 2.11369e-20)
(-0.651493 0.0579436 -1.73951e-20)
(-0.564953 -0.302211 0)
(-0.0246126 0.0540529 1.19522e-20)
(-0.612925 0.252905 0)
(-0.641114 -0.241217 -9.20092e-21)
(-0.793834 0.306185 1.78516e-21)
(-0.118083 0.154968 5.55163e-21)
(-0.519189 0.401585 -1.37649e-20)
(-0.276677 -0.0272918 -9.64546e-21)
(-0.670555 0.11093 2.29328e-20)
(-0.473929 -0.169722 1.84124e-20)
(-0.794716 0.211092 1.72008e-20)
(-0.302659 0.321585 0)
(-0.107816 0.0485182 2.23425e-20)
(-0.715019 -0.0847218 -8.46194e-21)
(-0.703875 0.440248 8.71179e-21)
(-0.683757 -0.282031 0)
(-0.69738 0.327325 0)
(-0.0417287 0.0730962 0)
(-0.677698 -0.280055 0)
(-0.720606 0.321292 4.94036e-21)
(-0.0529851 0.0878664 2.01938e-21)
(-0.662622 0.425547 -7.52874e-21)
(-0.644189 -0.0111833 4.78545e-21)
(-0.165272 0.0490642 5.95646e-21)
(-0.451324 0.318939 -2.14173e-21)
(-0.332392 0.00592667 0)
(-0.633523 0.163612 -8.37295e-23)
(-0.752429 0.368815 7.45568e-21)
(-0.0974627 0.105869 1.61287e-20)
(-0.699413 -0.188326 -4.18675e-21)
(-0.518892 -0.133664 0)
(-0.767142 0.27071 0)
(-0.246465 0.240275 2.03736e-20)
(-0.131099 0.107461 5.19195e-21)
(-0.658194 -0.120043 1.27517e-20)
(-0.736738 0.383607 1.94906e-20)
(-0.57601 0.427347 0)
(-0.229372 -0.00469755 -1.4102e-20)
(-0.658324 0.0688316 8.87357e-21)
(-0.702458 0.206447 8.89057e-23)
(-0.396653 -0.0577719 8.18892e-21)
(-0.369193 0.302507 0)
(-0.497816 0.346831 1.23316e-22)
(-0.295923 0.0137002 -2.73356e-21)
(-0.625979 0.128593 -9.06167e-21)
(-0.0967091 0.113864 7.06137e-24)
(-0.693346 -0.208483 9.93741e-21)
(-0.759521 0.355058 8.36275e-21)
(-0.716672 0.392572 -3.56864e-21)
(-0.642919 -0.0815139 -3.74234e-21)
(-0.145824 0.0966267 0)
(-0.49615 0.309525 -7.94076e-21)
(-0.311732 0.0566311 1.71327e-20)
(-0.578875 0.133128 -1.44649e-20)
(-0.692617 0.44575 6.18317e-21)
(-0.071826 0.0351662 8.37891e-21)
(-0.777123 -0.124741 -6.02249e-21)
(-0.580889 0.346098 -4.63021e-21)
(-0.564014 0.0664766 0)
(-0.25419 0.0769592 0)
(-0.625679 0.228355 -1.9115e-20)
(-0.410947 0.0200573 4.7257e-21)
(-0.359387 0.232673 0)
(-0.483198 -0.129376 0)
(-0.764691 0.24278 1.35223e-20)
(-0.281503 0.273124 0)
(-0.667164 0.401618 -3.4847e-21)
(-0.0405825 0.0442958 -2.59255e-21)
(-0.787222 -0.199069 6.91108e-21)
(-0.666963 0.413143 9.62532e-21)
(-0.0424422 0.0404635 0)
(-0.795344 -0.182728 -6.59767e-21)
(-0.122392 0.0935147 4.75964e-21)
(-0.673293 -0.114725 -7.59757e-21)
(-0.730192 0.395807 -1.78862e-20)
(-0.717238 0.192319 -6.34718e-21)
(-0.390799 -0.0763184 -8.21474e-21)
(-0.381842 0.325667 0)
(-0.0314112 0.0378462 2.37524e-21)
(-0.784896 -0.209627 -6.46124e-21)
(-0.637677 0.392031 0)
(-0.160692 0.156872 0)
(-0.615572 -0.150313 -7.80056e-21)
(-0.764535 0.334241 -2.24229e-21)
(-0.0105043 0.0288901 9.53874e-21)
(-0.480734 -0.268438 6.53864e-21)
(-0.482245 0.205822 0)
(-0.440172 0.269596 -5.27344e-21)
(-0.546938 -0.20484 0)
(-0.00658977 0.019305 9.55781e-21)
(-0.0894595 0.0485072 1.70607e-23)
(-0.742632 -0.112098 0)
(-0.705596 0.438732 0)
(-0.0782731 0.107072 0)
(-0.694885 -0.241223 0)
(-0.755809 0.344931 1.12125e-20)
(-0.733105 0.396915 -6.54518e-21)
(-0.736712 0.39414 5.29516e-21)
(-0.0893872 0.0814813 -9.13487e-21)
(-0.721809 -0.158472 -1.69651e-21)
(-0.1004 0.0887746 -1.47746e-20)
(-0.702319 -0.147982 3.05385e-21)
(-0.772498 0.320021 4.32257e-21)
(-0.602104 -0.158395 5.14641e-21)
(-0.170817 0.172824 0)
(-0.331571 0.349651 0)
(-0.450043 -0.166201 0)
(-0.793428 0.195112 0)
(-0.535608 0.2838 0)
(-0.316793 0.11183 -2.33064e-20)
(-0.51744 0.102548 9.39877e-21)
(-0.777835 0.290486 1.23216e-20)
(-0.562101 -0.157206 1.89054e-21)
(-0.205508 0.20973 1.80796e-20)
(-0.22384 0.226637 1.17605e-20)
(-0.778316 0.278805 -1.71323e-20)
(-0.544387 -0.154672 -2.6238e-21)
(-0.691309 0.461279 6.95589e-21)
(-0.0896151 0.0278347 8.98855e-21)
(-0.758089 -0.0898157 1.31431e-20)
(-0.614069 0.450143 0)
(-0.669804 0.0387312 3.95386e-21)
(-0.195266 0.00204694 -2.07166e-20)
(-0.595997 0.408478 0)
(-0.63242 0.0569784 1.78175e-20)
(-0.21946 0.0227196 3.14952e-23)
(-0.744815 0.300812 -1.58655e-20)
(-0.539932 -0.105695 2.27675e-21)
(-0.224743 0.196127 -1.0244e-20)
(-0.754912 0.292892 0)
(-0.537653 -0.118582 2.13824e-21)
(-0.227804 0.207182 9.43208e-21)
(-0.482922 0.290896 0)
(-0.328141 0.067488 -2.70506e-20)
(-0.566905 0.142399 8.10313e-21)
(-0.624723 0.402685 0)
(-0.615792 0.0298549 0)
(-0.201392 0.0468007 3.09855e-21)
(-0.15701 0.211776 -1.90434e-20)
(-0.589885 -0.254661 -2.0764e-20)
(-0.819081 0.260537 0)
(-0.732865 0.302935 6.75034e-21)
(-0.0566437 0.0956825 0)
(-0.649872 -0.291821 4.5142e-21)
(-0.722612 0.282066 -1.11908e-22)
(-0.0534669 0.0936825 0)
(-0.628139 -0.298966 -1.29634e-20)
(-0.545449 0.365119 5.5029e-21)
(-0.263439 0.035827 -2.98081e-21)
(-0.606284 0.0951559 -1.21205e-22)
(-0.657422 -0.289835 1.86128e-22)
(-0.0343411 0.0651898 1.62219e-20)
(-0.672762 0.309211 0)
(-0.720736 0.402642 1.53625e-20)
(-0.129268 0.0875552 9.98627e-21)
(-0.666904 -0.0947846 0)
(-0.0349429 0.0683484 -2.40863e-21)
(-0.618355 -0.303202 -7.01449e-21)
(-0.666685 0.280094 0)
(-0.555065 0.226763 1.30599e-20)
(-0.373863 0.189176 1.39955e-20)
(-0.432532 0.0846454 6.94525e-23)
(-0.672505 0.3302 -2.33331e-21)
(-0.534456 -0.0163946 -2.32127e-21)
(-0.233725 0.141482 -1.05757e-20)
(-0.368593 -0.0662156 1.87005e-20)
(-0.706842 0.179329 1.48567e-20)
(-0.406499 0.339618 0)
(-0.0999611 0.148189 0)
(-0.629017 -0.274877 -4.22793e-21)
(-0.791191 0.284082 0)
(-0.505833 -0.13958 0)
(-0.771044 0.258588 0)
(-0.258948 0.254728 0)
(-0.0675308 0.0444883 0)
(-0.697909 0.43246 -5.81576e-21)
(-0.776144 -0.14115 5.90171e-21)
(-0.689845 0.33531 0)
(-0.54442 -0.0362809 1.15038e-21)
(-0.221381 0.14492 1.03463e-20)
(-0.52671 0.270803 0)
(-0.332003 0.121087 1.99978e-20)
(-0.506606 0.108829 0)
(-0.649111 -0.261865 -1.47921e-20)
(-0.782951 0.30477 5.56323e-21)
(-0.0981199 0.140417 0)
(-0.139614 0.129734 -1.09057e-20)
(-0.64331 -0.14556 4.96402e-22)
(-0.753642 0.35895 1.73026e-22)
(-0.692651 0.385429 0)
(-0.681908 0.380265 6.52996e-21)
(-0.0469138 0.059645 -5.95009e-21)
(-0.041684 0.0576293 -7.32381e-21)
(-0.760405 -0.217212 -4.24258e-21)
(-0.756318 -0.228802 3.48836e-21)
(-0.690665 0.258823 0)
(-0.452764 -0.04349 3.13558e-20)
(-0.303858 0.230117 1.1166e-20)
(-0.493513 -0.0984843 2.2782e-20)
(-0.742251 0.266371 0)
(-0.265198 0.235696 -1.23732e-20)
(-0.604334 0.244637 -1.07753e-20)
(-0.43477 0.0387072 8.06644e-21)
(-0.338375 0.199124 1.71849e-20)
(-0.650184 -0.286042 9.84502e-21)
(-0.758521 0.300742 7.22707e-21)
(-0.633708 -0.291106 -4.69603e-21)
(-0.070457 0.112534 0)
(-0.765243 0.285369 -6.98081e-21)
(-0.0755787 0.120204 0)
(-0.72096 0.346728 0)
(-0.577362 -0.0783906 0)
(-0.191744 0.144529 1.1586e-20)
(-0.772419 0.315559 9.91317e-21)
(-0.761664 0.313028 -1.85074e-20)
(-0.664787 -0.26146 6.45795e-21)
(-0.666358 -0.27284 -1.61824e-20)
(-0.0854505 0.124802 1.63309e-20)
(-0.0740997 0.113012 1.07186e-24)
(-0.736494 0.256581 0)
(-0.473428 -0.0938222 -2.09849e-20)
(-0.288109 0.255915 1.60494e-20)
(-0.662838 0.284888 1.01545e-20)
(-0.493294 -0.0194682 -1.39627e-20)
(-0.265075 0.176475 0)
(-0.688494 0.41886 0)
(-0.0530475 0.0466423 0)
(-0.785231 -0.172533 6.33804e-21)
(-0.688563 0.272865 7.46504e-21)
(-0.469612 -0.0378281 -8.7118e-21)
(-0.287181 0.212353 -1.85541e-20)
(-0.625754 0.257774 4.34777e-21)
(-0.44744 0.0194129 -9.45651e-21)
(-0.320445 0.196009 1.00877e-20)
(-0.683904 0.395953 0)
(-0.0471607 0.0530347 0)
(-0.775629 -0.204538 -8.7285e-21)
(-0.687731 0.350729 0)
(-0.566774 -0.0351529 2.47211e-21)
(-0.202332 0.125784 -1.15166e-20)
(-0.404104 -0.138922 0)
(-0.771843 0.173778 0)
(-0.384179 0.382418 -6.17855e-22)
(-0.571741 0.4393 -6.22944e-22)
(-0.672844 0.0726294 0)
(-0.230994 -0.0192587 2.19423e-20)
(-0.529275 -0.212156 9.97431e-21)
(-0.238237 0.283221 0)
(-0.81722 0.231561 0)
(-0.0059818 0.0187504 -2.29618e-20)
(-0.463104 -0.210965 6.7975e-21)
(-0.411819 0.206276 -5.45755e-21)
(-0.690739 0.302563 0)
(-0.503808 -0.0356775 8.57777e-21)
(-0.253267 0.177944 -9.50605e-21)
(-0.713952 0.408701 1.08789e-20)
(-0.0674705 0.0640625 3.09187e-20)
(-0.75619 -0.169678 0)
(-0.271655 -0.0688501 -5.87027e-21)
(-0.715445 0.0980763 -8.79353e-21)
(-0.529106 0.454354 -5.55121e-21)
(-0.530556 0.331607 0)
(-0.0129217 0.0270473 -8.60692e-21)
(-0.676261 -0.227774 0)
(-0.415243 0.282798 1.06663e-20)
(-0.421975 0.302111 -1.09258e-20)
(-0.359593 0.0133295 0)
(-0.626811 0.185601 9.2604e-21)
(-0.353035 -0.00329402 -1.75182e-20)
(-0.644334 0.178128 -7.45696e-21)
(-0.602102 0.228703 1.01357e-20)
(-0.414713 0.0421971 1.06621e-20)
(-0.362112 0.217952 0)
(-0.464006 0.308879 9.39477e-21)
(-0.440332 0.291246 0)
(-0.326317 0.0294232 -9.6927e-21)
(-0.608429 0.153856 8.30774e-21)
(-0.343013 0.0314948 9.76466e-21)
(-0.60697 0.169217 6.47242e-23)
(-0.676741 0.298976 6.44879e-22)
(-0.47275 -0.0105221 -6.06181e-21)
(-0.287709 0.191344 -1.24639e-20)
(-0.667836 0.274194 -1.74547e-20)
(-0.464175 -0.0168278 1.60849e-22)
(-0.297279 0.205387 0)
(-0.0638463 0.108841 0)
(-0.615963 -0.302566 0)
(-0.746589 0.273003 7.55039e-21)
(-0.567244 0.365809 -5.0749e-21)
(-0.595532 0.0809582 0)
(-0.252035 0.0487529 5.52498e-21)
(-0.768894 0.33089 -1.78192e-20)
(-0.676028 -0.2454 7.42941e-21)
(-0.0879597 0.122041 -9.31871e-21)
(-0.74505 0.317517 0)
(-0.754794 0.321914 8.89831e-21)
(-0.563116 -0.108346 -2.8365e-21)
(-0.579996 -0.123845 9.0952e-21)
(-0.202518 0.177532 -1.28002e-20)
(-0.189338 0.173618 -1.19289e-20)
(-0.565779 0.348121 0)
(-0.575985 0.0802536 0)
(-0.261269 0.0651441 2.59335e-21)
(-0.636779 0.428651 6.03844e-21)
(-0.644122 0.0184451 0)
(-0.185348 0.032088 6.90772e-21)
(-0.721017 0.317734 -4.54998e-21)
(-0.540265 -0.0763063 0)
(-0.219367 0.174652 0)
(-0.488267 0.238848 1.02936e-20)
(-0.498971 0.137362 -5.03658e-21)
(-0.365033 0.12442 5.37319e-21)
(-0.766392 0.300462 0)
(-0.561611 -0.139083 0)
(-0.206188 0.19965 -1.92213e-20)
(-0.519609 0.290811 0)
(-0.314661 0.0935825 2.96092e-21)
(-0.537147 0.115128 0)
(-0.7293 0.27443 -1.01287e-20)
(-0.490095 -0.0846657 -1.16851e-20)
(-0.269656 0.226305 -1.60069e-21)
(-0.640926 0.41222 6.09853e-21)
(-0.626792 0.0134568 0)
(-0.187512 0.0469153 1.41909e-20)
(-0.496656 0.257126 -1.02062e-20)
(-0.484168 0.262026 -4.57365e-21)
(-0.51322 0.129795 4.93548e-21)
(-0.347504 0.112818 -1.06135e-20)
(-0.53204 0.138904 0)
(-0.3451 0.0972382 -1.89708e-20)
(-0.460506 0.27819 -4.6525e-21)
(-0.341194 0.0595481 1.26383e-20)
(-0.443515 0.28156 2.99636e-21)
(-0.573413 0.156324 -1.12065e-20)
(-0.350429 0.0425377 -6.05858e-21)
(-0.595593 0.17072 1.91827e-22)
(-0.602893 0.362456 5.48887e-21)
(-0.623452 0.360277 0)
(-0.573343 0.0491098 1.0442e-20)
(-0.566545 0.0330641 -8.14828e-21)
(-0.235012 0.0762359 -1.23006e-20)
(-0.228777 0.0896732 2.04687e-20)
(-0.108592 0.0674488 0)
(-0.701545 -0.101134 -4.67343e-21)
(-0.715748 0.420598 -9.26384e-21)
(-0.405272 0.386311 7.47971e-21)
(-0.755237 0.166311 9.96499e-21)
(-0.383422 -0.119971 -1.99489e-20)
(-0.100167 0.0706427 -1.04064e-20)
(-0.105951 0.0827494 8.31755e-21)
(-0.711193 -0.120889 4.0397e-21)
(-0.6968 -0.129078 6.94124e-21)
(-0.721076 0.41658 2.37309e-20)
(-0.730184 0.403419 -1.23593e-20)
(-0.481078 0.405033 1.01511e-20)
(-0.309178 -0.0591618 -9.25084e-21)
(-0.70116 0.13184 2.1869e-21)
(-0.479034 0.20746 1.73051e-20)
(-0.400666 0.153204 0)
(-0.46572 0.14481 -1.72485e-20)
(-0.765179 0.313508 -4.28541e-21)
(-0.58068 -0.140938 -1.02686e-20)
(-0.189594 0.183442 0)
(-0.541482 0.335535 0)
(-0.276581 0.0584289 -2.47227e-21)
(-0.57725 0.0995633 -8.73539e-21)
(-0.652118 0.41167 0)
(-0.626354 0.00255151 0)
(-0.179987 0.0547096 -1.32237e-20)
(-0.701086 0.433797 -9.92899e-21)
(-0.705284 0.421508 0)
(-0.692244 -0.0704095 2.45718e-21)
(-0.12209 0.0553343 -1.26706e-20)
(-0.676426 -0.0713586 -6.70274e-21)
(-0.12876 0.0673846 1.71374e-20)
(-0.733944 0.340577 8.62504e-21)
(-0.584041 -0.0953005 9.52317e-21)