/*--------------------------------*- C++ -*----------------------------------*\
  =========                 |
  \\      /  F ield         | OpenFOAM: The Open Source CFD Toolbox
   \\    /   O peration     | Website:  https://openfoam.org
    \\  /    A nd           | Version:  6
     \\/     M anipulation  |
\*---------------------------------------------------------------------------*/
FoamFile
{
    version     2.0;
    format      ascii;
    class       volScalarField;
    location    "0";
    object      p;
}
// * * * * * * * * * * * * * * * * * * * * * * * * * * * * * * * * * * * * * //

dimensions      [0 2 -2 0 0 0 0];

internalField   nonuniform List<scalar> 
13046
(
0.213593
0.185302
0.217509
0.21662
0.218194
0.187213
0.205996
0.189325
0.222009
0.131623
-0.0213552
0.200161
0.212322
0.156713
0.21385
0.155393
0.196358
0.00321492
0.226334
0.206614
0.204109
0.151621
0.199138
-0.00086659
0.213527
0.203204
0.212695
0.206096
0.159942
0.215366
0.220896
0.170098
0.210355
0.218164
0.217521
0.19931
0.214878
0.219658
0.205012
0.220021
0.20344
0.175543
0.209696
0.222619
0.212556
0.21262
0.214992
0.210387
0.207658
0.182577
0.219066
0.174787
0.221436
0.158057
0.181608
0.152688
0.224213
0.0781004
0.198799
0.194361
0.185043
0.136611
0.216958
0.204412
0.0490946
0.165108
0.203255
0.0857933
0.189653
0.207839
0.0940956
0.189696
0.0633185
0.194867
0.194226
0.22697
0.21526
0.195596
0.198921
0.18353
0.0540457
0.211083
0.198022
0.212836
0.202585
0.0338266
0.156288
0.149728
0.210334
0.0616524
0.212281
0.127336
0.0589182
0.193153
0.186317
0.114983
0.105182
0.208006
0.210848
0.212722
0.147495
0.0704994
0.214714
0.218499
0.205116
0.2269
0.166501
0.185728
0.220344
0.195037
0.169672
0.0959593
0.197477
-0.0809188
0.213432
0.168439
0.211338
0.189947
0.193415
0.092194
0.204436
0.109672
0.204924
0.125013
-0.037253
0.199029
0.205937
0.126166
0.214292
0.219013
0.204001
0.172373
0.213072
0.131272
0.0767777
0.176378
0.0860448
0.209765
0.219233
0.163456
0.20791
0.193758
0.182061
0.218994
0.21821
0.184764
0.17342
0.225342
0.177431
0.194047
0.186314
0.122633
0.215811
0.228662
0.188294
0.191975
0.15945
0.156891
0.150399
0.156951
0.222268
0.222132
0.193771
0.165255
0.219877
0.126166
0.202039
-0.0181966
0.109343
0.197583
-0.0665705
0.174619
0.0745422
0.208523
0.221973
0.145302
0.200382
0.193424
0.220187
0.172616
0.205971
0.00543878
0.128349
0.220856
0.156427
0.195534
0.227979
0.181181
0.186934
0.197539
0.183164
0.217801
0.149808
0.219226
0.205932
0.140095
0.211629
0.150157
0.206537
0.0409128
0.21396
0.143198
0.0805335
0.131145
0.0527461
0.210108
0.168224
0.143614
0.2186
0.203764
0.185854
0.193796
0.0556617
0.0349778
0.131594
0.209434
0.21097
0.220911
0.203782
0.209372
0.165742
0.212401
0.215438
0.136119
0.0848503
0.201114
0.155904
0.221887
0.201285
-0.0472273
0.10718
0.218904
0.145168
0.161755
0.138148
0.0671332
0.212105
0.16961
0.159651
0.223902
0.202741
0.132335
0.214338
0.110897
0.138842
0.215091
0.151702
0.140175
0.219086
0.202105
-0.0479637
0.098611
0.224626
0.198415
0.157516
0.110098
0.193669
-0.104686
0.221873
0.209841
0.201323
0.179902
0.17667
0.156391
0.163766
0.223864
0.218191
0.192798
0.179046
0.0388694
0.207623
0.141091
0.208336
0.151763
0.122814
0.21934
0.180957
0.0892787
0.206888
0.213342
0.206779
0.221246
0.166117
0.149001
0.221568
0.210117
0.130495
0.207038
0.203001
0.202953
0.226577
0.191776
0.147067
0.167048
0.137595
0.219869
0.172058
0.20655
0.081706
0.227669
0.193443
0.166461
0.223217
0.148265
0.152534
0.197465
0.101332
0.199844
0.222744
0.178194
0.152536
0.191395
0.189179
0.0923479
0.199666
0.0863404
0.203148
0.204879
0.0140764
0.134656
0.196076
0.120254
0.206814
-0.128476
0.195838
0.0780344
0.203776
0.221573
0.187
0.190979
0.145614
0.216773
0.208223
0.156483
0.0565815
0.176359
0.146187
0.223394
0.0983167
0.138639
0.215185
0.174352
0.217847
0.188282
0.140349
0.215404
0.165958
0.220888
0.164588
0.196847
0.0181287
0.17437
0.132296
0.22118
0.184051
0.132191
0.212581
0.187963
0.173829
0.222966
0.168419
0.176452
0.223919
0.214447
0.182175
0.217875
0.219541
0.151625
0.158306
0.141118
0.044157
0.208111
0.103293
0.137944
0.216481
0.208425
0.186754
0.115075
0.187934
0.191259
0.0812091
0.0674783
0.193861
0.196484
0.195403
-0.117753
0.0881474
0.116615
0.193898
-0.0956868
0.178722
0.149723
0.21586
0.204801
0.148767
0.0266434
0.202638
0.201734
0.109031
0.0985318
0.199506
0.197144
0.207077
0.0143979
0.112886
0.104454
0.19249
-0.117019
0.200575
0.222904
0.213412
0.0987132
-0.0977926
0.195918
0.219029
0.142511
0.197495
0.130004
0.0126496
0.206831
-0.112924
0.199542
0.051333
0.220499
0.201692
0.183018
0.204208
0.2081
0.220199
0.128073
0.198665
-0.0441317
0.199817
0.200897
0.220615
0.204159
0.221317
0.215632
0.223208
0.136627
0.163168
0.193504
0.21184
0.223086
0.204909
0.188297
0.221386
0.211718
0.121975
0.18525
0.200148
0.202522
-0.0017437
-0.00398776
0.143116
0.14031
0.130551
0.0360159
0.207775
0.192476
0.20913
0.0998439
0.219521
0.193085
0.164483
0.147358
0.134781
0.216481
-0.073067
0.201587
0.0640638
0.211464
0.125905
0.0477516
0.113153
0.199116
-0.0514551
0.198836
-0.125399
0.0514693
-0.150511
0.195811
0.0694261
0.124929
0.169254
0.214801
-0.0200733
0.205038
0.0915456
0.16774
0.0840001
0.210986
0.149538
0.191451
-0.0314644
0.208163
0.215731
0.184247
0.0267048
0.208761
0.11895
0.147471
0.217155
0.140722
0.11793
0.152806
0.219515
0.197863
-0.187511
0.0281309
-0.108007
0.197975
0.0664676
0.21187
0.219256
0.183941
0.00770221
0.111365
0.20671
0.207797
0.101208
0.00480668
0.147545
0.203526
0.0263501
0.196459
0.0420326
0.172156
0.21704
0.118339
0.186513
0.0846747
0.197612
0.199984
0.194428
0.169904
0.0109042
0.213868
0.212561
0.147315
0.137127
0.204842
0.207469
0.21637
0.151627
0.203048
0.208281
0.103522
0.199946
0.110497
0.145391
0.216695
0.0295482
0.1311
0.209455
0.214031
0.150454
0.0951035
-0.151095
0.194677
0.0793171
0.223487
0.220569
0.210385
0.175884
0.214455
0.180405
0.215439
0.210453
0.196638
0.117578
0.197209
0.137614
-0.109136
0.199763
0.051836
0.0133918
0.117137
0.207367
0.21878
0.182718
0.14941
0.121615
0.141699
0.216978
0.196179
0.0492085
0.177118
-0.077796
0.0871305
0.199696
-0.0615722
0.0899739
0.200915
0.201982
0.105435
0.203689
0.227727
0.188809
0.174006
0.144701
0.201974
0.00970016
0.117894
0.1601
0.217497
0.206534
0.0610068
0.171428
0.21276
0.197786
0.140759
0.172658
0.165174
0.222197
0.222101
0.199367
0.169584
0.202825
0.00284926
0.136155
0.182823
0.0836425
0.204643
0.22297
0.205848
0.18277
0.162359
0.192148
-0.00492464
0.21325
0.168001
0.211033
0.198049
0.180877
0.223695
0.127536
0.16025
0.217905
0.12925
0.193101
-0.068988
0.136005
0.192173
-0.0623454
0.204421
0.0555925
0.172726
0.165027
0.170194
0.22067
0.191626
-0.0884714
0.118555
0.209276
0.0688015
0.162713
0.198607
-0.139773
0.0411495
0.0608174
-0.159452
0.194814
0.197116
0.0196261
0.170046
0.202695
-0.0250594
0.117805
0.155438
0.159389
0.198268
0.010389
0.200656
0.0274806
0.155763
0.0751792
0.210937
0.221326
0.130238
0.135692
0.223099
0.212209
0.183096
0.157693
0.0888353
0.214305
0.215208
0.159366
0.096762
0.176144
0.1933
0.0192108
0.214146
0.1086
0.196188
0.215472
0.135746
0.194138
0.171806
0.120263
0.216155
0.168535
0.114987
0.216561
0.22333
0.200259
0.190314
0.213094
0.129538
0.209617
0.210503
0.0309084
0.113106
0.0822535
0.202306
-0.0596834
0.0732138
0.203022
-0.0573792
0.219308
0.20402
0.162984
-0.0898957
0.199653
0.0743377
0.17947
0.203747
0.0656135
0.200578
-0.0847015
0.0619884
0.214932
0.219646
0.193162
0.201811
0.148803
0.214776
0.171652
0.163543
0.222108
0.205909
-0.012151
0.100093
0.114829
0.161312
0.217656
0.192873
0.156565
-0.0126973
0.193696
0.140958
0.21629
0.223152
0.215225
0.186625
-0.0109964
0.10778
0.205504
0.207716
0.0584842
0.16361
0.124823
0.117224
0.195548
0.195507
-0.0614801
-0.0746204
0.186
0.162234
0.222145
0.132851
0.173111
0.214929
0.199769
0.186685
0.224003
-0.0400817
0.0900693
-0.0353942
0.203613
0.0893151
0.203958
0.185519
0.110854
0.214377
0.108718
0.100289
-0.0197686
-0.0331588
0.204581
0.203437
0.168517
0.143353
0.222158
0.194751
0.159832
0.217364
0.142781
0.193896
-0.0401542
0.195028
0.151024
0.219813
0.20236
0.173126
0.219714
0.12821
0.193655
-0.0553303
0.199063
0.122647
0.209135
0.151244
0.136877
0.219478
0.216309
0.12907
0.193331
0.0865482
0.213839
0.128578
0.1973
-0.17132
0.0388019
0.190769
0.147899
0.216273
0.147044
0.195943
-0.0179173
0.180885
0.124244
0.218839
0.079371
0.193173
-0.132041
0.224984
0.222505
0.188712
0.183956
0.190073
0.182166
0.202853
0.186464
0.223137
0.221234
0.224761
0.196887
0.186554
0.205752
0.182747
0.194036
0.164729
0.222744
0.196275
0.166884
0.223141
0.20372
-0.0497495
0.0756758
0.217815
0.160283
0.200847
0.11763
-0.0128464
0.204128
0.172936
0.169316
0.108891
0.0947364
0.212755
0.210849
0.213985
0.173691
0.206193
0.206144
0.117918
0.198159
0.182455
0.125508
0.216915
0.219934
0.20061
0.210644
0.164618
0.0972116
0.214241
0.220755
0.206023
0.188732
0.17732
0.139762
0.220507
0.203996
0.127169
0.199299
0.21953
0.22072
0.195086
0.21576
0.196684
0.211521
0.222451
0.195987
0.226131
0.194567
0.212071
0.186683
0.213757
0.21186
0.153948
0.150502
0.209192
0.206261
0.198012
0.0460903
0.175151
0.219051
0.143661
0.157359
0.200542
0.202018
0.0334302
0.0387668
0.168256
0.165569
0.22147
0.183068
0.145847
0.217591
0.21529
0.206733
0.165349
0.0872107
0.212555
0.22282
0.206344
0.168775
0.202116
0.121557
0.200638
0.186119
0.185993
0.0618688
0.200278
0.0690725
0.201242
0.179179
0.103471
0.211147
0.0877167
-0.119609
0.193941
0.176881
0.133844
0.218386
0.216093
0.217455
0.183557
0.127188
0.191802
0.133955
0.153215
0.104589
0.216141
0.207365
0.127228
0.200151
0.222188
0.181088
0.140033
0.214358
0.219025
0.188314
0.20104
0.150304
0.143513
0.215231
0.194266
0.138224
0.178521
0.111026
0.213998
0.221634
0.20627
0.192607
0.135052
0.196954
-0.0344077
0.221955
0.183714
0.132675
0.204954
0.200139
0.120979
0.113327
0.200659
0.206293
0.196966
-0.0182783
0.142832
0.143041
0.195356
-0.032945
0.135679
0.195116
-0.0423849
0.180529
0.201362
0.0607852
0.209249
0.136845
0.202086
0.00583972
0.0108086
0.137073
0.00860636
0.0886546
-0.0555571
0.0467239
0.0340511
-0.0562824
0.0794388
0.0770074
-0.0764026
-0.00346379
0.0785449
-0.0203608
-0.0135755
0.0137143
-0.0223192
0.00293554
0.0499408
0.00191956
-0.0232746
0.0916329
0.189703
0.145598
0.0167941
0.0987894
-0.0785178
0.0191003
-0.00754939
-0.0727862
0.0413834
0.00216965
-0.00901679
-0.0646394
0.0102433
0.128715
0.0890325
0.0149307
0.0634105
-0.0344954
0.190525
-0.0516759
0.0776058
0.123969
-0.0423691
-0.0358977
-0.0542905
-0.0732295
-0.0554223
0.150432
0.0030341
-0.0116472
-0.047702
-0.0705108
0.144944
0.0514585
0.00582581
-0.0590299
0.0714912
-0.0583876
-0.0476271
0.14648
0.0420283
0.00311807
0.0535655
0.0138718
0.177442
0.0904948
0.103241
-0.104196
-0.0805068
-0.0111762
0.0638802
-0.0878589
-0.0102087
0.0250269
-0.070214
0.0668647
0.113329
-0.0189741
-0.00582887
-0.0673611
-0.0275749
-0.0487699
0.0739117
-0.0473657
0.00646186
-0.0232174
0.152767
-0.0188033
0.0696794
0.144412
-0.00687999
-0.00741374
-0.0948106
-0.0546515
-0.0528392
-0.00735767
-0.106975
0.0393517
0.0950846
0.132201
0.179885
-0.0214221
0.00390374
-0.0761466
-0.0102575
-0.0536814
0.126513
0.0995605
0.0490762
-0.0500378
-0.0881409
0.0683038
0.112234
-0.0308523
0.00599411
-0.103362
-0.0262691
-0.013256
0.162896
0.172674
0.0666071
0.0167598
-0.00308864
-0.0758963
0.166666
-0.00870357
0.0613622
-0.109773
0.148807
-0.0655124
-0.0185193
-0.0020978
0.111753
-0.0173267
-0.124157
-0.0448239
0.0470329
-0.0154241
0.0756435
0.0665434
-0.022828
0.12036
-0.046353
-0.0333221
0.120607
-0.0453803
-0.0247836
-0.0750076
0.030211
0.0125663
0.114719
0.0695245
-0.0372607
0.063629
0.0775679
0.134528
0.0258217
-0.0106987
-0.0240035
0.0911825
-0.00705712
0.0646293
-0.071543
0.186163
-0.0257645
0.123978
0.165128
0.00748239
0.170609
0.11874
0.132571
-0.0450524
-0.111626
-0.0767757
0.137773
-0.0515146
-0.058604
-0.00870801
-0.056491
-0.0235117
-0.0411519
0.0128064
0.165201
0.0676841
-0.0361052
0.0709194
-0.0493933
0.18788
-0.0318209
0.116398
-0.027979
-0.118761
0.153668
0.170088
-0.0316519
-0.0505704
0.184868
0.0213636
0.019403
-0.0532811
0.0644073
0.125407
0.0864127
-0.0305638
-0.0597505
0.0988363
0.023834
-0.070237
0.0735111
-0.0133281
-0.0682757
-0.0051222
0.120364
-0.0998121
0.0286688
0.095614
-0.0512944
-0.107365
-0.0353539
-0.0108128
0.00717792
0.0323079
0.0400051
-0.0237604
-0.0637614
-0.00751591
0.0522391
0.0866046
-0.0406515
0.0423955
-0.043938
-0.0507651
0.022751
-0.0322829
-0.116839
0.0930545
0.119632
0.0105244
0.157026
0.127743
0.190373
-0.00988543
-0.128963
-0.0210527
-0.0383934
0.0077658
-0.0950571
0.0288443
0.149399
0.062524
0.0196881
-0.0345664
-0.0355897
0.0993971
0.000503906
0.0681984
-0.0438569
-0.0144335
-0.0394333
-0.0195865
-0.0299
-0.0265027
-0.0173236
-0.0683899
0.0427704
0.0172644
-0.0374922
0.0485594
0.00427563
-0.0257387
-0.0594332
-0.0352888
-0.0595989
-0.0510074
0.0167286
-0.0922708
-0.133543
-0.00476068
-0.0808002
-0.102304
0.0188543
-0.0304987
-0.0988323
0.115993
0.045979
-0.0389359
0.0980917
-0.0677094
0.0404108
0.0743615
-0.01019
-0.00525028
0.107969
-0.0205895
0.0849942
-0.062576
-0.031797
0.119059
-0.0417554
-0.00446621
-0.146949
-0.0941517
-0.119883
-0.0850301
-0.0499647
0.0479841
-0.0588557
-0.108404
-0.0641065
-0.0339927
0.189198
0.0023111
0.0624781
0.037491
-0.0212432
0.0142466
-0.0322064
-0.0769319
0.0341516
-0.0357648
0.148594
0.0797105
-0.0245582
-0.0349818
0.00485302
0.18977
0.0933264
0.129767
0.0703827
-0.0261529
0.00951632
-0.0281496
-0.0676747
-0.0896527
-0.0510851
0.0191558
0.069136
-0.0625665
-0.090999
-0.00743048
0.0189809
-0.0104312
0.015067
0.103116
0.00315755
-0.0217194
0.144268
0.118493
-0.0309865
0.0554839
0.126193
-0.0837756
-0.0335865
-0.0282607
-0.0582428
-0.0691215
0.12353
-0.0691752
0.000346313
0.140148
-0.115832
0.0192704
-0.0278894
0.00831223
-0.0306512
-0.0452366
-0.0946645
0.0206864
-0.0875605
-0.0684628
-0.0396328
-0.0432578
0.0808481
0.146778
-0.00934102
0.0439918
0.0260651
0.000991193
-0.12259
0.0984318
0.0626004
-0.0650708
-0.0979807
0.0340809
-0.0776756
0.00866254
-0.019234
-0.0435395
0.112028
0.142697
-0.0285607
0.085859
0.180214
0.103957
0.115682
0.134095
0.0162715
-0.0269473
-0.0665352
0.187134
0.106764
0.122692
-0.0569607
-0.0485113
-0.111317
0.0920194
0.00740379
-0.000619177
0.125007
0.0694744
-0.00501713
0.0199042
-0.0298333
-0.00903343
-0.0329313
-0.0368896
-0.0350383
-0.0467174
-0.0151321
-0.0908329
0.0129819
-0.0554372
0.0731525
0.0471855
-0.101201
0.128734
0.140816
0.0682913
-0.052357
0.0217241
-0.0304128
0.0787
0.000584757
-0.0772937
0.124929
-0.0478487
0.150714
-0.0975825
-0.0252463
0.0077826
0.0664669
0.101758
-0.00748402
0.165369
-0.00455141
0.105039
-0.0251629
0.0785669
-0.0246246
-0.00384422
-0.0421347
0.110311
0.0133965
0.18418
0.054295
-0.0912129
0.00286312
0.0396061
-0.0385014
-0.0510093
-0.022685
-0.0498771
0.152957
-0.00631273
-0.0155713
0.0874509
-0.0555009
0.148256
0.177261
-0.0447281
0.184968
0.15847
0.108494
0.125006
0.0232766
-0.0744825
-0.0564812
-0.0297897
0.0965671
-0.0116599
-0.0457435
0.163346
-0.0637873
-0.0333825
-0.0602063
0.133328
0.188281
-0.0618971
0.103214
0.0452927
0.146212
0.0248379
0.0741277
-0.0430747
0.165925
0.181473
0.0577143
-0.0528734
0.10145
0.00610056
0.0563188
0.00546363
0.00407091
0.0418779
0.0116424
-0.045422
-0.0656167
0.00736104
0.0509902
0.0326457
0.119108
-0.0666191
0.00541938
0.0624059
-0.0608195
0.139313
-0.00802161
-0.0438125
0.141347
0.112041
0.0382868
0.171272
-0.0182822
-0.0508538
0.0773174
0.0371743
0.0451532
-0.0268092
-0.0393571
0.0406345
0.0581293
-0.0381693
-0.0244603
0.0298834
-0.0982566
-0.049956
0.148152
0.177677
0.182575
0.0332756
0.186199
0.186356
0.157275
-0.12681
0.0344019
0.0358102
0.170447
-0.0461384
-0.00450255
-0.0751548
-0.053267
-0.0559798
0.163571
-0.0226816
-0.0151522
0.0770186
0.0571247
-0.0379054
-0.0436372
0.185273
0.162861
0.129737
0.0689142
-0.0621672
0.0866763
0.0468751
-0.0488977
0.0144769
-0.0869756
-0.0619804
0.0292913
-0.0120367
-0.0182685
0.149688
0.148177
-0.120087
0.110758
-0.0218611
-0.0246894
0.00104927
0.145796
-0.0194206
0.068298
-0.0247169
0.132312
-0.0435831
-0.0223592
0.17971
-0.110202
-0.100703
-0.020013
-0.0435738
-0.131773
-0.100805
-0.0387666
-0.130271
-0.00594188
-0.116351
-0.0767736
-0.0119527
-0.0734172
-0.0366813
-0.0132002
-0.0940541
-0.0939805
0.159585
0.125281
-0.0433663
-0.0797185
0.13001
-0.0584606
-0.00404231
0.178691
-0.0324628
0.177357
-0.00546341
0.11693
0.0353174
-0.0254224
-0.0808628
0.0340786
0.0308491
-0.00629089
-0.0268023
-0.0409606
-0.0826827
-0.0426136
0.00248798
-0.110175
-0.090245
0.160304
-0.0106486
0.0589919
0.0838905
-0.0477445
0.113057
0.0856544
-0.0738985
-0.0967574
-0.0225774
-0.0900836
-0.129
0.0639272
0.0684913
-0.0428861
0.0447276
-0.0318536
0.179638
0.156052
-0.0294156
-0.0365003
0.168362
0.121666
0.0345669
0.0409343
-0.0469387
0.183307
0.0437211
-0.119983
0.135099
0.102976
0.148811
0.0235155
-0.059878
-0.00242284
0.0702035
0.0363087
-0.123059
0.192455
-0.0227246
-0.0267656
0.000374225
0.135167
0.176775
0.180675
0.0477114
0.0265647
0.0925481
0.123695
0.145226
0.0601312
0.0978345
-0.0144554
-0.0179294
0.0431691
-0.0649966
-0.0145168
-0.100795
-0.024527
0.0859128
-0.0960928
0.0174899
-0.00115605
0.119695
0.180039
-0.024841
-0.083889
-0.107804
0.101416
-0.0527437
-0.0503921
-0.105595
0.148549
0.0199533
0.024413
-0.0815541
0.0291194
-0.0489233
-0.0272479
0.0819817
0.0827914
0.151179
0.185114
-0.0356831
0.129081
-0.119478
0.13542
0.148927
0.14907
0.0913123
-0.0497575
-0.0488369
-0.0411979
-0.117968
0.0422627
-0.113091
0.0641866
-0.077117
0.127731
-0.0470594
-0.110165
0.112346
0.10321
-0.00966385
-0.00938412
0.0568398
0.14708
0.0181758
0.00478773
-0.114457
0.102611
0.0556041
0.163563
-0.128414
-0.0123934
0.136419
0.0688404
0.171663
0.0738463
-0.0385524
-0.141885
-0.1194
-0.0115286
-0.0997956
0.160383
-0.113662
0.0131639
-0.00711289
-0.0677866
0.114414
-0.128836
0.14495
0.0714517
0.0280834
-0.0412646
0.0763729
-3.86593e-05
0.0220813
-0.0172411
-0.0051976
-0.050732
-0.0631441
0.0875328
-0.0483794
0.184127
-0.0569322
0.0412156
0.0512663
0.0959335
0.161613
-0.0508229
-0.0375465
-0.0343221
0.0247152
-0.0623238
0.156425
-0.053207
0.0106288
-0.0497773
0.107482
-0.0777041
0.0223163
-0.0880592
0.181838
-0.119643
-0.0488821
0.0157715
0.117537
-0.10682
-0.0997454
-0.0552702
-0.0904935
0.145767
0.0103907
0.0700337
0.116909
0.0594398
0.0522431
0.180991
0.0475746
0.0988245
0.0488173
0.0405939
-0.0986768
0.0403408
-0.0229061
0.00246354
0.0503796
-0.0125308
-0.0929936
0.00297111
0.0224532
-0.057411
0.100665
0.0352269
0.0896265
-0.0242616
0.157932
-0.00334149
0.0261095
0.0528947
-0.0945241
-0.0557609
-0.0503895
0.0329438
0.0256542
0.0378801
0.140066
0.0952042
0.0953898
0.0093884
0.129861
0.164262
0.160677
0.0598149
0.035008
0.0436666
-0.0686816
0.173101
0.120577
0.107176
-0.0102742
-0.0524495
-0.0969749
0.0418976
0.0680117
-0.0185649
0.107002
0.125204
0.0360366
-0.0129076
0.0558907
-0.00477712
-0.004841
-0.00939743
-0.00496347
0.0243375
-0.108184
0.0274623
0.0321435
-0.0289181
-0.124994
0.0286636
0.00320735
0.061888
-0.0339541
0.0180387
0.141811
0.151938
0.024822
-0.00571604
0.0968299
0.00365199
-0.0536753
-0.0596454
-0.0279245
-0.0922617
0.139361
0.00678615
0.0118084
0.0716235
0.0617448
0.0748399
-0.0140088
0.18275
0.0722205
-0.0603938
0.00148628
-0.00419207
0.0963689
0.137229
0.0745517
0.0353723
-0.10454
-0.0661533
-0.0291727
0.0334143
0.00814355
0.0248672
-0.0574709
0.148328
0.0500371
0.113581
0.12496
0.0183472
-0.0214897
0.038864
0.171943
-0.0698474
-0.111505
0.0394513
0.177612
-0.0406811
-0.0295547
0.0891362
0.0681043
0.110227
-0.0108071
-0.105846
0.0319048
-0.0961227
-0.0378531
0.108789
-0.0189788
-0.0649922
-0.0235789
-0.043511
0.0416648
-0.00849056
-0.00565105
0.133868
-0.0634691
0.181435
0.108466
-0.0765531
-0.135383
0.0155265
0.0809692
0.122227
-0.0140624
-0.029079
-0.00170132
-0.0390601
0.00800282
0.18573
0.135801
0.0724927
0.00891877
-0.0959344
0.150582
0.186038
0.148202
0.0961573
0.136411
0.0338545
-0.0895768
-0.120615
-0.111956
0.161495
0.000866138
-0.00572352
0.00602865
0.184152
-0.0456083
-0.0135101
-0.0852043
-0.0129699
-0.060569
0.179614
0.0323906
0.0857559
0.13294
0.121688
-0.0382735
0.0453991
0.0232546
0.0893653
-0.0774596
0.0416284
-0.0421652
0.155116
-0.0221443
-0.0543737
-0.00739537
-0.0235321
0.140409
-0.0450706
0.107093
0.126708
0.134745
-0.0806496
0.0178488
-0.0295191
-0.000685935
0.148406
0.02154
0.047802
0.0291547
-0.0527027
0.0074307
0.1553
0.0493009
0.150531
-0.117135
-0.0501786
-0.0463281
0.160783
0.00184767
0.0165022
-0.0789277
-0.0104312
0.015549
0.160776
0.0250036
-0.0261996
-0.0853946
0.177978
0.1744
-0.0545122
0.153423
-0.0420466
-0.0791351
-0.0473107
0.00172296
-0.0971748
0.0645163
0.00244924
-0.0479431
-0.0181657
0.141362
-0.00900154
0.105712
0.00236003
-0.056399
-0.0111443
-0.11764
-0.104037
-0.0185467
0.0218256
0.0509896
-0.0655922
-0.0107411
0.129604
0.0513631
-0.0481145
-0.0287596
0.140518
-0.0133314
0.00996341
0.191808
0.0366723
-0.0509939
0.0146521
-0.00661174
0.166978
-0.0034076
-0.00894336
0.0391398
-0.0996964
0.143163
-0.0173606
0.132166
0.0194669
0.0828358
-0.0758517
0.11458
-0.01792
-0.0772544
-0.0616455
0.0212349
0.137406
-0.141796
-0.0176821
-0.0565029
0.160832
0.181899
-0.00488918
-0.043015
0.0632466
0.166515
0.0028266
0.144159
0.121761
0.105163
0.0863013
0.0181055
0.0879977
0.0841453
0.151151
0.0180416
0.0270153
-0.00438641
-0.00746485
0.0256321
-0.041127
0.166893
-0.00967604
0.144885
0.0144431
0.160617
-0.0565217
0.173314
0.0802678
0.138273
0.162118
0.141568
0.190143
-0.0354317
0.128981
0.0263562
-0.0477942
-0.0171269
-0.0655402
0.150256
-0.00920279
0.0317161
0.0410066
-0.0241251
0.052978
-0.0595065
0.153988
0.000849811
0.100889
-0.122993
-0.0342579
-0.0431222
0.180359
-0.000369567
0.0535354
-0.00553555
-0.0402213
-0.066471
-0.0148716
-0.0486506
0.100567
0.155377
-0.0881164
0.0267197
-0.0439708
-0.0528655
0.111707
-0.00732314
-0.00739077
0.166117
-0.108375
0.0447783
0.0688877
0.137777
0.179094
-0.00595445
-0.0323601
-0.0839281
-0.00636815
-0.00236955
-0.0445199
0.107473
-0.0435387
-0.0746228
-0.0268931
0.0197192
-0.0163728
0.00398404
-0.0572735
0.0124181
-0.0857755
0.0921448
0.0820722
0.00597724
0.0972552
-0.019135
-0.104453
-0.00383465
-0.11193
0.17044
-0.0363007
-0.0482798
-0.0560002
0.127462
0.150093
0.0133702
0.0960063
0.000834911
-0.0657135
0.030811
-0.0445574
-0.019537
0.149834
0.0464582
0.0878649
0.172427
0.0997776
0.0358699
0.162718
-0.0903528
0.0156852
0.0118706
0.0386066
0.0265654
0.159561
-0.047243
0.0338563
-0.00271367
-0.0119538
-0.0422887
-0.0288397
0.0810582
0.113775
0.130923
0.0275269
0.0278227
0.160431
0.116524
-0.0212269
0.0543379
-0.0782472
-0.0390098
0.104284
-0.0893501
0.123756
-0.0525773
0.131947
0.183488
0.153905
-0.06101
0.137665
0.122208
-0.0266694
0.159567
0.00765287
0.158577
0.100079
-0.0458509
-0.0805307
0.0572182
-0.0347516
0.0245239
-0.00278376
0.122369
0.00710259
0.16429
-0.0557623
-0.0113546
-0.00174652
-0.0524097
-0.0490868
0.115284
0.178574
-0.0591643
0.109569
0.00464043
0.034166
0.000412364
0.0648599
0.144923
0.104158
-0.0515859
0.138305
0.111603
0.17701
-0.0541026
-0.0693951
-0.00463678
0.0922211
0.169147
0.116444
-0.00716342
0.173269
0.0136601
-0.0851155
-0.0809657
-0.138938
0.0279582
-0.0756092
0.175496
0.182175
0.0269692
0.188876
0.106394
0.00871557
0.169814
-0.0817357
0.158781
-0.0404922
0.150087
-0.016179
-0.0474893
0.091108
0.0213633
0.158613
0.143119
0.147516
-0.0330657
-0.03347
-0.0989248
0.13239
0.102439
-0.00291654
0.0389922
0.103854
-0.116606
-0.0467738
-0.0395
-0.047584
0.0332519
-0.0501837
0.0119083
0.106028
0.00984206
0.0220284
0.0844311
-0.0284562
0.000258939
0.031768
0.00977785
-0.0302105
0.129442
0.155177
-0.0036666
0.100091
-0.120798
-0.0422635
0.133217
0.0923958
-0.0590515
0.151993
-0.0711216
0.0819976
0.0059097
0.0215401
0.135836
-0.0150068
0.0917609
0.100737
0.0655461
0.189116
0.0681283
-0.0867585
0.0448178
0.0305512
0.0914459
0.184124
0.0686509
0.0194097
-0.0192932
0.0232676
0.137275
-0.0660564
0.130933
-0.0262651
0.0576225
0.0994624
0.0835021
-0.00265767
0.134621
0.172874
-0.00148355
-0.024509
0.018282
-0.0372294
-0.0854909
0.0144497
0.0994331
-0.0669872
-0.0886575
-0.000821443
-0.0813408
0.0787689
0.0158009
0.0941581
-0.0133294
0.148972
0.0108356
0.120694
0.174997
-0.0562771
0.142489
0.00855201
0.0175955
0.0406601
0.135112
-0.00878388
-0.00731573
0.0430115
-0.0456449
-0.0229774
-0.0510589
-0.0684377
-0.120347
0.171262
0.181096
-0.0722644
-0.00904994
0.0878552
-0.0949623
-0.00657652
-0.0418225
0.0705323
0.0854372
-0.101047
-0.123224
0.142719
-0.00417613
0.0412321
-0.00744636
-0.0880203
-0.0812786
0.0653993
0.120828
0.0474415
-0.103724
0.151131
0.119453
-0.0446323
0.0342241
-0.0465079
0.173624
-0.0358444
0.00816817
-0.0701653
0.0571813
0.155764
0.0398216
0.064272
-0.0270988
0.0215997
0.0521724
0.170307
0.188234
-0.00941133
0.174897
-0.0226819
0.0208579
0.0226039
-0.0209048
-0.0270632
0.133011
0.0252107
0.0327218
-0.0278556
-0.0809149
0.0298161
-0.0452198
0.0724179
0.150247
-0.0478065
-0.0325354
0.0186886
-0.0257526
0.00787419
-0.119439
-0.00715303
0.139317
-0.0344932
-0.0639708
0.0971605
0.0158123
-0.000837829
0.0549273
0.119048
-0.01104
-0.00232448
0.114411
-0.013353
-0.00750311
0.0261359
0.134455
0.0539249
0.0215536
-0.00407592
-0.0627241
-0.013709
0.171858
0.116913
0.181287
-0.00243764
0.0658961
-0.0628092
0.00596805
0.122127
-0.0901917
-0.09416
0.0827922
0.12
-0.093436
-0.0113743
0.000153181
-0.00961303
-0.00205714
0.187241
0.0149588
-0.0120549
0.064224
-0.0186573
0.0881046
0.0690422
-0.0697015
-0.00117555
0.102311
0.0179643
0.174078
-0.0871109
-0.0478358
0.0722796
0.0496636
-0.0212448
0.0369779
-0.042328
0.178091
0.156864
0.0732156
0.136699
-0.0539602
0.128421
0.0520571
0.0796497
0.163421
-0.0937679
-0.0213597
0.181994
0.0542274
-0.103482
-0.0633949
0.126622
0.179033
0.00205828
0.0885934
-0.00487358
-0.0773075
-0.0306771
-0.102997
0.121425
-0.0364296
0.0028062
0.161905
-0.060643
-0.00798332
-0.021131
0.0323996
-0.00422374
-0.0584185
-0.0201948
-0.0726414
0.0219092
0.102977
0.160923
0.0900343
0.00942133
-0.0267311
-0.10669
-0.0447683
0.0453961
0.0299558
0.0894114
0.0952256
-0.0272091
-0.0122427
0.114024
0.122707
0.181219
0.135179
0.166181
0.0137135
-0.079035
-0.0374385
-0.0555876
0.170876
0.0225874
-0.0263928
0.162017
-0.0744846
0.105067
0.0832357
-0.00621278
-0.00187639
-0.0194779
-0.0589012
0.120536
-0.0358778
0.0708593
0.00166178
0.157801
0.0305124
0.188278
-0.0489831
0.000577932
-0.0699705
-0.124759
-0.0177385
0.0982289
-0.0116965
-0.0621656
0.0206858
0.156413
0.0923453
-0.0542224
-0.0739622
-0.0273913
-0.0809312
-0.00106508
-0.0854357
-0.0225494
-0.0583015
0.0838173
-0.0727738
-0.00774664
0.149351
0.0301003
0.0884192
0.113644
-0.0300139
0.00190314
-0.035208
0.112564
-0.0408064
0.00558395
0.0134049
-0.0653989
-0.0936495
-0.0127351
0.00436281
0.0899623
0.181669
0.127787
0.0240585
0.0750472
-0.0929834
0.174689
0.0496307
0.104709
0.00308607
0.0829594
-0.060464
-0.0200156
0.105378
0.156767
0.0965473
0.0254559
-0.0419808
0.186378
0.00895077
0.117183
0.169078
0.0636231
-0.00944696
-0.0938321
0.113081
0.0592376
-0.0670515
0.0538117
0.0480017
0.153958
-0.0352997
0.162943
0.182598
-0.0239344
-0.0463196
0.167231
-0.0680474
-0.0626893
-0.015169
-0.0592813
-0.00866449
-0.0549991
-0.0833412
-0.00143261
-0.00285941
-0.0296533
-0.04591
0.0290044
-0.0744966
-0.048431
0.0489042
0.00285254
-0.0897091
0.150322
0.178848
0.169439
-0.00973704
-0.101807
0.190789
-0.0750913
-0.000351034
-0.00263345
-0.0486865
0.00429239
0.081727
-0.0393314
-0.055701
-0.0906989
-0.0891765
-0.0695241
-0.0449495
-0.105517
-0.00547986
0.0172308
-0.0135218
0.158861
0.024289
0.0752884
0.0107347
0.116076
-0.0525102
-0.0418553
0.189655
-0.000639601
0.0562678
-0.0759964
0.0639054
0.181376
-0.0381399
0.0599178
0.0563719
-0.0670908
-0.00995605
-0.0653653
-0.0477284
0.0860529
-0.0606298
-0.00457068
-0.0546695
-0.0234208
-0.0271437
-0.0633691
0.00143206
-0.0404965
-0.0557861
0.177057
-0.0040144
0.00230393
0.0219613
0.15493
-0.0360695
-0.0869465
0.110913
-0.0672174
-0.0228934
-0.00128572
0.0351425
-0.061172
0.0275645
0.0395926
0.17797
0.126042
-0.0817367
-0.0527153
-0.0929115
-0.00253786
-0.105277
-0.0445632
0.00128506
-0.0441057
0.000214381
0.048295
0.189163
-0.0301996
0.0783807
0.0240697
0.17145
-0.0487534
0.181881
0.0412916
-0.0725493
0.0523996
0.0850111
-0.0488784
0.12981
-0.000599678
0.13228
-0.0486494
-0.0651241
-0.0116443
0.188135
0.175422
0.0861824
0.0574604
0.0809671
-0.102827
-0.0652318
0.0894465
0.188336
-0.0524626
0.0231688
0.00208609
-0.0532256
-0.0178078
-0.0245445
-0.0593022
-0.0353863
-0.0539777
-0.00828445
-0.0442482
-0.0071819
0.187631
0.120087
-0.107868
0.100032
-0.0355201
-0.0700802
0.107965
-0.0589844
-0.0246868
0.0771279
-0.041865
-0.0427213
-1.10385e-05
0.126503
-0.0630195
-0.0438312
-0.0337
0.0442695
-0.0553727
0.155545
-0.099208
-0.0487739
-0.0344038
-0.055014
0.063557
0.0463298
0.156976
-0.0065041
0.0999538
0.0173407
0.0423126
-0.0132095
0.0675414
-0.0675164
-0.0629746
-0.123964
0.060424
-0.0156589
-0.0356871
0.142284
0.0123293
0.0655714
0.0640939
-0.0374548
-0.0541463
-0.0368368
0.0500685
-0.00672895
0.18721
-0.0760771
-0.101888
-0.0066425
-0.0554532
-0.00875342
0.00409081
0.0859235
-0.0224821
-0.00853479
-0.0618579
0.00218268
-0.0126303
-0.0189562
0.184721
0.169434
-0.0542288
-0.0296391
0.119716
0.0481558
-0.0226825
-0.0709918
-0.0133448
-0.0707615
0.0155929
0.14768
-0.0216838
-0.0966832
0.046805
0.0018911
-0.0977473
-0.0602118
0.0077621
0.0723502
0.186066
-0.0669185
-0.0906252
0.0281468
0.120709
-0.0351589
0.0310103
-0.0372971
-0.00316551
-0.0425792
0.0438936
-0.0191568
-0.00625688
0.101754
-0.0352251
-0.109963
0.0119529
-0.0131704
0.10593
0.1883
-0.00376857
-0.048284
-0.0441564
-0.0431217
-0.0622149
-0.0476595
-0.0683637
0.162124
0.114072
0.0707953
0.00181617
-0.0922817
0.0972842
0.174931
-0.0528366
0.00848735
-0.0588539
-0.12109
-0.00191207
-0.0501823
-0.128631
0.00891495
0.0847824
-0.0894895
-0.0969754
-0.0562212
0.127199
-0.0941427
0.108476
0.0346233
-0.0244776
-0.0445104
-0.0325994
0.10642
-0.110596
-0.0444889
-0.0266264
-0.0648991
0.0282757
0.0943999
0.0266788
-0.0143721
0.0900163
-0.063437
-0.056154
0.143228
-0.00824847
0.139721
0.0293294
-0.0363474
0.0564203
0.128109
0.000983823