/*--------------------------------*- C++ -*----------------------------------*\
  =========                 |
  \\      /  F ield         | OpenFOAM: The Open Source CFD Toolbox
   \\    /   O peration     | Website:  https://openfoam.org
    \\  /    A nd           | Version:  6
     \\/     M anipulation  |
\*---------------------------------------------------------------------------*/
FoamFile
{
    version     2.0;
    format      ascii;
    class       volScalarField;
    location    "./ITHACAoutput/Offline/1";
    object      P_rec;
}
// * * * * * * * * * * * * * * * * * * * * * * * * * * * * * * * * * * * * * //

dimensions      [0 2 -2 0 0 0 0];

internalField   nonuniform List<scalar> 
40000
(
0.0162076
0.0162078
0.0162073
0.0162058
0.0162033
0.0161999
0.0161958
0.016191
0.0161858
0.0161802
0.0161744
0.0161685
0.0161624
0.0161564
0.0161505
0.0161445
0.0161387
0.016133
0.0161275
0.0161221
0.0161169
0.0161118
0.0161069
0.0161021
0.0160975
0.016093
0.0160887
0.0160844
0.0160803
0.0160763
0.0160724
0.0160685
0.0160648
0.0160611
0.0160575
0.016054
0.0160506
0.0160473
0.016044
0.0160408
0.0160377
0.0160348
0.0160319
0.0160291
0.0160265
0.016024
0.0160217
0.0160195
0.0160175
0.0160157
0.0160141
0.0160126
0.0160115
0.0160106
0.0160099
0.0160095
0.0160093
0.0160095
0.01601
0.0160107
0.0160118
0.0160133
0.016015
0.0160171
0.0160196
0.0160224
0.0160255
0.0160291
0.016033
0.0160372
0.0160418
0.0160467
0.016052
0.0160576
0.0160635
0.0160698
0.0160764
0.0160832
0.0160903
0.0160977
0.0161053
0.0161132
0.0161212
0.0161294
0.0161377
0.0161462
0.0161547
0.0161633
0.0161719
0.0161805
0.016189
0.0161974
0.0162057
0.0162138
0.0162216
0.0162292
0.0162365
0.0162434
0.0162499
0.0162559
0.0162614
0.0162663
0.0162706
0.0162742
0.0162771
0.0162792
0.0162804
0.0162808
0.0162802
0.0162787
0.0162761
0.0162725
0.0162677
0.0162618
0.0162547
0.0162463
0.0162367
0.0162258
0.0162135
0.0162
0.0161851
0.0161688
0.0161512
0.0161322
0.0161119
0.0160902
0.0160672
0.0160428
0.0160172
0.0159903
0.0159622
0.0159328
0.0159024
0.0158708
0.0158382
0.0158046
0.0157701
0.0157347
0.0156985
0.0156615
0.015624
0.0155858
0.0155471
0.015508
0.0154686
0.0154288
0.0153889
0.0153488
0.0153087
0.0152686
0.0152287
0.0151889
0.0151494
0.0151102
0.0150714
0.0150331
0.0149952
0.014958
0.0149214
0.0148856
0.0148504
0.0148161
0.0147826
0.0147501
0.0147185
0.0146878
0.0146582
0.0146296
0.0146021
0.0145756
0.0145503
0.0145262
0.0145033
0.0144815
0.014461
0.0144418
0.0144237
0.014407
0.0143916
0.0143774
0.0143646
0.0143531
0.0143429
0.0143341
0.0143267
0.0143205
0.0143158
0.0143123
0.0143101
0.0143092
0.0143094
0.0143108
0.0143132
0.0143164
0.0143202
0.0143245
0.0143287
0.0143325
0.0143353
0.0143365
0.0162074
0.0162076
0.0162072
0.0162058
0.0162034
0.0162003
0.0161964
0.016192
0.0161871
0.0161819
0.0161765
0.0161708
0.0161651
0.0161594
0.0161536
0.0161479
0.0161423
0.0161368
0.0161314
0.0161262
0.0161211
0.0161161
0.0161112
0.0161065
0.0161019
0.0160975
0.0160931
0.0160889
0.0160847
0.0160807
0.0160768
0.0160729
0.0160691
0.0160654
0.0160618
0.0160583
0.0160548
0.0160514
0.0160481
0.0160449
0.0160418
0.0160388
0.0160359
0.0160331
0.0160304
0.0160279
0.0160255
0.0160233
0.0160213
0.0160195
0.0160178
0.0160164
0.0160152
0.0160142
0.0160135
0.0160131
0.0160129
0.0160131
0.0160135
0.0160142
0.0160153
0.0160167
0.0160184
0.0160204
0.0160228
0.0160256
0.0160286
0.0160321
0.0160359
0.01604
0.0160445
0.0160494
0.0160545
0.01606
0.0160659
0.016072
0.0160784
0.0160851
0.0160921
0.0160993
0.0161067
0.0161144
0.0161222
0.0161302
0.0161383
0.0161465
0.0161548
0.0161631
0.0161714
0.0161797
0.0161879
0.0161961
0.016204
0.0162119
0.0162194
0.0162266
0.0162336
0.0162401
0.0162462
0.0162519
0.016257
0.0162616
0.0162655
0.0162687
0.0162713
0.016273
0.0162739
0.0162739
0.016273
0.0162711
0.0162683
0.0162643
0.0162592
0.016253
0.0162456
0.0162369
0.0162271
0.016216
0.0162035
0.0161898
0.0161748
0.0161584
0.0161407
0.0161216
0.0161012
0.0160795
0.0160565
0.0160321
0.0160066
0.0159798
0.0159518
0.0159226
0.0158923
0.0158609
0.0158286
0.0157952
0.015761
0.0157259
0.01569
0.0156534
0.0156162
0.0155784
0.0155402
0.0155015
0.0154625
0.0154232
0.0153837
0.0153441
0.0153044
0.0152649
0.0152254
0.0151861
0.015147
0.0151083
0.01507
0.0150321
0.0149948
0.0149581
0.014922
0.0148865
0.0148519
0.014818
0.0147849
0.0147528
0.0147215
0.0146912
0.014662
0.0146337
0.0146065
0.0145804
0.0145554
0.0145316
0.0145089
0.0144874
0.0144671
0.0144481
0.0144302
0.0144136
0.0143983
0.0143843
0.0143715
0.0143601
0.0143499
0.0143411
0.0143336
0.0143273
0.0143224
0.0143187
0.0143162
0.014315
0.0143149
0.0143158
0.0143176
0.0143203
0.0143235
0.0143271
0.0143308
0.0143341
0.0143365
0.0143378
0.0162078
0.016208
0.0162076
0.0162062
0.016204
0.0162011
0.0161976
0.0161936
0.0161891
0.0161842
0.0161792
0.016174
0.0161686
0.0161631
0.0161577
0.0161523
0.0161469
0.0161417
0.0161364
0.0161313
0.0161264
0.0161215
0.0161167
0.0161121
0.0161075
0.0161031
0.0160988
0.0160945
0.0160904
0.0160863
0.0160824
0.0160785
0.0160747
0.0160709
0.0160673
0.0160637
0.0160602
0.0160567
0.0160534
0.0160501
0.0160469
0.0160439
0.0160409
0.0160381
0.0160354
0.0160328
0.0160304
0.0160282
0.0160261
0.0160242
0.0160225
0.016021
0.0160198
0.0160188
0.0160181
0.0160176
0.0160174
0.0160175
0.0160178
0.0160185
0.0160195
0.0160208
0.0160225
0.0160244
0.0160268
0.0160294
0.0160324
0.0160358
0.0160395
0.0160435
0.0160479
0.0160526
0.0160577
0.016063
0.0160687
0.0160746
0.0160809
0.0160874
0.0160941
0.0161011
0.0161084
0.0161158
0.0161234
0.0161311
0.0161389
0.0161469
0.0161548
0.0161629
0.0161709
0.0161788
0.0161867
0.0161945
0.0162021
0.0162095
0.0162166
0.0162235
0.01623
0.0162362
0.0162419
0.0162471
0.0162518
0.0162559
0.0162594
0.0162622
0.0162643
0.0162656
0.0162661
0.0162657
0.0162643
0.016262
0.0162587
0.0162544
0.0162489
0.0162423
0.0162346
0.0162257
0.0162155
0.0162041
0.0161915
0.0161775
0.0161623
0.0161457
0.0161279
0.0161087
0.0160882
0.0160665
0.0160435
0.0160192
0.0159937
0.0159669
0.0159391
0.0159101
0.01588
0.0158488
0.0158167
0.0157837
0.0157497
0.015715
0.0156795
0.0156434
0.0156066
0.0155692
0.0155315
0.0154933
0.0154548
0.015416
0.015377
0.015338
0.0152989
0.0152599
0.015221
0.0151823
0.0151438
0.0151057
0.015068
0.0150307
0.0149939
0.0149577
0.0149222
0.0148873
0.0148532
0.0148198
0.0147873
0.0147556
0.0147249
0.0146951
0.0146662
0.0146384
0.0146116
0.0145859
0.0145613
0.0145378
0.0145155
0.0144943
0.0144743
0.0144554
0.0144378
0.0144214
0.0144063
0.0143924
0.0143797
0.0143683
0.0143582
0.0143493
0.0143416
0.0143353
0.0143301
0.0143262
0.0143234
0.0143218
0.0143212
0.0143216
0.0143229
0.0143249
0.0143275
0.0143305
0.0143336
0.0143365
0.014339
0.0143405
0.0162093
0.0162094
0.0162089
0.0162076
0.0162054
0.0162027
0.0161993
0.0161955
0.0161913
0.0161868
0.016182
0.016177
0.016172
0.0161668
0.0161616
0.0161564
0.0161513
0.0161462
0.0161411
0.0161362
0.0161313
0.0161266
0.0161219
0.0161173
0.0161128
0.0161084
0.0161041
0.0160998
0.0160957
0.0160916
0.0160877
0.0160837
0.0160799
0.0160761
0.0160724
0.0160688
0.0160652
0.0160617
0.0160583
0.016055
0.0160517
0.0160486
0.0160456
0.0160427
0.01604
0.0160373
0.0160349
0.0160326
0.0160305
0.0160285
0.0160268
0.0160253
0.016024
0.0160229
0.0160221
0.0160216
0.0160213
0.0160214
0.0160217
0.0160223
0.0160232
0.0160245
0.0160261
0.0160279
0.0160302
0.0160328
0.0160357
0.016039
0.0160426
0.0160465
0.0160508
0.0160554
0.0160603
0.0160655
0.0160711
0.0160769
0.016083
0.0160893
0.0160959
0.0161027
0.0161098
0.016117
0.0161244
0.0161319
0.0161395
0.0161472
0.0161549
0.0161627
0.0161704
0.0161781
0.0161857
0.0161932
0.0162004
0.0162075
0.0162144
0.0162209
0.0162271
0.0162329
0.0162382
0.0162431
0.0162474
0.0162512
0.0162543
0.0162567
0.0162585
0.0162594
0.0162595
0.0162587
0.016257
0.0162544
0.0162508
0.0162461
0.0162403
0.0162335
0.0162254
0.0162162
0.0162058
0.0161942
0.0161813
0.0161671
0.0161517
0.016135
0.016117
0.0160977
0.0160772
0.0160554
0.0160323
0.0160081
0.0159826
0.0159559
0.0159281
0.0158992
0.0158693
0.0158383
0.0158064
0.0157736
0.0157399
0.0157054
0.0156702
0.0156344
0.0155979
0.015561
0.0155235
0.0154857
0.0154476
0.0154093
0.0153708
0.0153322
0.0152936
0.015255
0.0152166
0.0151783
0.0151404
0.0151028
0.0150655
0.0150287
0.0149924
0.0149567
0.0149217
0.0148872
0.0148536
0.0148207
0.0147886
0.0147574
0.014727
0.0146976
0.0146692
0.0146418
0.0146154
0.01459
0.0145657
0.0145425
0.0145205
0.0144995
0.0144798
0.0144612
0.0144437
0.0144275
0.0144125
0.0143987
0.0143861
0.0143748
0.0143646
0.0143557
0.014348
0.0143415
0.0143362
0.0143321
0.014329
0.0143271
0.0143262
0.0143262
0.0143271
0.0143287
0.014331
0.0143336
0.0143365
0.0143394
0.0143423
0.0143443
0.0162119
0.0162118
0.0162111
0.0162096
0.0162075
0.0162048
0.0162015
0.0161979
0.0161938
0.0161895
0.016185
0.0161802
0.0161754
0.0161705
0.0161655
0.0161605
0.0161555
0.0161506
0.0161457
0.0161409
0.0161362
0.0161315
0.0161269
0.0161224
0.0161179
0.0161136
0.0161093
0.016105
0.0161009
0.0160968
0.0160928
0.0160889
0.016085
0.0160812
0.0160774
0.0160737
0.0160701
0.0160666
0.0160631
0.0160597
0.0160564
0.0160532
0.0160502
0.0160472
0.0160444
0.0160417
0.0160392
0.0160368
0.0160346
0.0160326
0.0160308
0.0160292
0.0160279
0.0160268
0.0160259
0.0160253
0.016025
0.0160249
0.0160252
0.0160257
0.0160266
0.0160278
0.0160293
0.0160311
0.0160333
0.0160358
0.0160386
0.0160418
0.0160453
0.0160492
0.0160533
0.0160578
0.0160626
0.0160677
0.0160731
0.0160788
0.0160848
0.016091
0.0160975
0.0161041
0.016111
0.016118
0.0161252
0.0161326
0.01614
0.0161475
0.016155
0.0161625
0.0161701
0.0161775
0.0161848
0.016192
0.0161991
0.0162059
0.0162124
0.0162187
0.0162246
0.01623
0.0162351
0.0162397
0.0162437
0.0162471
0.0162499
0.016252
0.0162534
0.016254
0.0162538
0.0162528
0.0162508
0.0162479
0.0162439
0.016239
0.0162329
0.0162258
0.0162175
0.016208
0.0161974
0.0161855
0.0161724
0.0161581
0.0161425
0.0161256
0.0161076
0.0160882
0.0160675
0.0160457
0.0160226
0.0159983
0.0159728
0.0159461
0.0159184
0.0158895
0.0158597
0.0158288
0.015797
0.0157644
0.0157309
0.0156966
0.0156616
0.015626
0.0155898
0.0155532
0.015516
0.0154786
0.0154408
0.0154028
0.0153646
0.0153264
0.0152882
0.01525
0.015212
0.0151742
0.0151366
0.0150994
0.0150626
0.0150262
0.0149903
0.0149551
0.0149204
0.0148864
0.0148531
0.0148206
0.014789
0.0147581
0.0147282
0.0146992
0.0146711
0.014644
0.0146179
0.0145929
0.0145689
0.014546
0.0145242
0.0145036
0.014484
0.0144656
0.0144484
0.0144323
0.0144174
0.0144037
0.0143912
0.0143799
0.0143698
0.0143609
0.0143531
0.0143465
0.0143411
0.0143367
0.0143335
0.0143313
0.0143302
0.0143299
0.0143305
0.0143319
0.0143339
0.0143365
0.0143394
0.0143425
0.0143459
0.0143486
0.0162154
0.016215
0.016214
0.0162124
0.0162102
0.0162074
0.0162042
0.0162006
0.0161967
0.0161925
0.0161881
0.0161836
0.0161789
0.0161742
0.0161694
0.0161646
0.0161598
0.016155
0.0161502
0.0161455
0.0161409
0.0161363
0.0161318
0.0161273
0.016123
0.0161186
0.0161144
0.0161102
0.016106
0.0161019
0.0160979
0.0160939
0.01609
0.0160861
0.0160823
0.0160786
0.0160749
0.0160713
0.0160678
0.0160643
0.016061
0.0160577
0.0160546
0.0160515
0.0160486
0.0160459
0.0160433
0.0160409
0.0160386
0.0160365
0.0160346
0.016033
0.0160316
0.0160304
0.0160295
0.0160288
0.0160284
0.0160283
0.0160284
0.0160289
0.0160297
0.0160308
0.0160322
0.016034
0.0160361
0.0160385
0.0160413
0.0160444
0.0160478
0.0160516
0.0160556
0.01606
0.0160647
0.0160698
0.0160751
0.0160806
0.0160865
0.0160926
0.0160989
0.0161054
0.0161121
0.0161191
0.0161261
0.0161333
0.0161405
0.0161478
0.0161551
0.0161625
0.0161698
0.016177
0.0161842
0.0161912
0.016198
0.0162045
0.0162108
0.0162168
0.0162225
0.0162277
0.0162325
0.0162368
0.0162405
0.0162437
0.0162462
0.016248
0.0162492
0.0162495
0.016249
0.0162477
0.0162454
0.0162422
0.016238
0.0162328
0.0162265
0.0162191
0.0162106
0.0162009
0.0161901
0.016178
0.0161648
0.0161503
0.0161345
0.0161175
0.0160993
0.0160798
0.016059
0.0160371
0.0160139
0.0159895
0.0159641
0.0159374
0.0159097
0.0158808
0.015851
0.0158202
0.0157885
0.015756
0.0157226
0.0156885
0.0156537
0.0156182
0.0155822
0.0155458
0.0155089
0.0154716
0.0154341
0.0153964
0.0153585
0.0153206
0.0152827
0.0152449
0.0152072
0.0151697
0.0151325
0.0150956
0.0150592
0.0150232
0.0149877
0.0149528
0.0149185
0.0148848
0.014852
0.0148198
0.0147885
0.014758
0.0147284
0.0146997
0.014672
0.0146452
0.0146194
0.0145947
0.014571
0.0145484
0.0145268
0.0145064
0.0144871
0.0144689
0.0144518
0.0144359
0.0144211
0.0144075
0.0143951
0.0143838
0.0143737
0.0143648
0.014357
0.0143503
0.0143448
0.0143403
0.0143369
0.0143346
0.0143332
0.0143328
0.0143332
0.0143345
0.0143364
0.0143389
0.014342
0.0143455
0.0143496
0.0143529
0.0162196
0.0162189
0.0162176
0.0162157
0.0162133
0.0162105
0.0162073
0.0162037
0.0161998
0.0161957
0.0161915
0.016187
0.0161825
0.0161779
0.0161733
0.0161686
0.0161639
0.0161593
0.0161547
0.0161501
0.0161456
0.0161411
0.0161366
0.0161322
0.0161279
0.0161236
0.0161194
0.0161152
0.016111
0.0161069
0.0161029
0.0160989
0.0160949
0.016091
0.0160872
0.0160834
0.0160796
0.016076
0.0160724
0.0160688
0.0160654
0.0160621
0.0160589
0.0160557
0.0160528
0.0160499
0.0160472
0.0160447
0.0160424
0.0160402
0.0160383
0.0160365
0.016035
0.0160338
0.0160328
0.016032
0.0160315
0.0160313
0.0160314
0.0160318
0.0160326
0.0160336
0.0160349
0.0160366
0.0160387
0.016041
0.0160437
0.0160467
0.01605
0.0160537
0.0160577
0.016062
0.0160667
0.0160716
0.0160768
0.0160823
0.016088
0.016094
0.0161002
0.0161066
0.0161132
0.01612
0.0161269
0.0161339
0.016141
0.0161482
0.0161554
0.0161626
0.0161697
0.0161768
0.0161837
0.0161905
0.0161971
0.0162035
0.0162096
0.0162154
0.0162208
0.0162258
0.0162304
0.0162344
0.016238
0.0162409
0.0162432
0.0162448
0.0162457
0.0162458
0.0162451
0.0162435
0.016241
0.0162376
0.0162332
0.0162277
0.0162212
0.0162136
0.0162049
0.016195
0.016184
0.0161717
0.0161583
0.0161436
0.0161277
0.0161106
0.0160922
0.0160726
0.0160517
0.0160297
0.0160064
0.015982
0.0159564
0.0159297
0.0159019
0.0158731
0.0158433
0.0158125
0.0157809
0.0157484
0.015715
0.015681
0.0156463
0.015611
0.0155751
0.0155388
0.015502
0.015465
0.0154276
0.0153901
0.0153525
0.0153148
0.0152771
0.0152396
0.0152021
0.0151649
0.015128
0.0150914
0.0150553
0.0150196
0.0149844
0.0149498
0.0149158
0.0148825
0.01485
0.0148181
0.0147871
0.014757
0.0147276
0.0146993
0.0146718
0.0146454
0.0146199
0.0145954
0.014572
0.0145496
0.0145283
0.014508
0.0144889
0.0144709
0.014454
0.0144382
0.0144236
0.0144101
0.0143977
0.0143865
0.0143764
0.0143675
0.0143596
0.0143529
0.0143473
0.0143427
0.0143393
0.0143368
0.0143353
0.0143348
0.0143351
0.0143363
0.0143382
0.0143409
0.0143442
0.0143481
0.0143528
0.0143568
0.0162246
0.0162235
0.0162218
0.0162196
0.016217
0.016214
0.0162106
0.016207
0.0162032
0.0161991
0.0161949
0.0161906
0.0161862
0.0161817
0.0161772
0.0161726
0.0161681
0.0161636
0.0161591
0.0161546
0.0161501
0.0161457
0.0161413
0.016137
0.0161327
0.0161284
0.0161242
0.0161201
0.0161159
0.0161118
0.0161077
0.0161037
0.0160997
0.0160958
0.0160919
0.016088
0.0160842
0.0160805
0.0160768
0.0160732
0.0160697
0.0160663
0.016063
0.0160598
0.0160567
0.0160538
0.016051
0.0160484
0.016046
0.0160437
0.0160417
0.0160398
0.0160382
0.0160369
0.0160358
0.016035
0.0160344
0.0160341
0.0160342
0.0160345
0.0160351
0.0160361
0.0160374
0.016039
0.0160409
0.0160432
0.0160458
0.0160488
0.0160521
0.0160557
0.0160596
0.0160638
0.0160684
0.0160732
0.0160784
0.0160838
0.0160894
0.0160953
0.0161014
0.0161078
0.0161143
0.0161209
0.0161277
0.0161346
0.0161416
0.0161487
0.0161558
0.0161628
0.0161698
0.0161767
0.0161835
0.0161902
0.0161966
0.0162028
0.0162088
0.0162144
0.0162196
0.0162245
0.0162288
0.0162327
0.0162361
0.0162388
0.0162409
0.0162423
0.016243
0.0162429
0.016242
0.0162402
0.0162375
0.0162339
0.0162293
0.0162237
0.016217
0.0162092
0.0162003
0.0161902
0.016179
0.0161666
0.016153
0.0161382
0.0161221
0.0161048
0.0160863
0.0160665
0.0160456
0.0160234
0.016
0.0159755
0.0159498
0.0159231
0.0158952
0.0158664
0.0158365
0.0158057
0.015774
0.0157415
0.0157082
0.0156742
0.0156395
0.0156042
0.0155684
0.0155322
0.0154956
0.0154586
0.0154214
0.015384
0.0153465
0.015309
0.0152715
0.0152341
0.0151969
0.0151599
0.0151232
0.0150868
0.0150509
0.0150154
0.0149805
0.0149462
0.0149125
0.0148794
0.0148471
0.0148156
0.0147849
0.014755
0.014726
0.0146978
0.0146707
0.0146444
0.0146192
0.014595
0.0145718
0.0145496
0.0145285
0.0145085
0.0144896
0.0144717
0.014455
0.0144393
0.0144248
0.0144114
0.0143991
0.014388
0.0143779
0.014369
0.0143611
0.0143544
0.0143487
0.0143441
0.0143405
0.014338
0.0143364
0.0143358
0.0143361
0.0143373
0.0143393
0.0143422
0.0143458
0.0143501
0.0143555
0.0143601
0.0162301
0.0162286
0.0162264
0.0162238
0.016221
0.0162178
0.0162143
0.0162106
0.0162067
0.0162027
0.0161985
0.0161942
0.0161899
0.0161855
0.0161811
0.0161766
0.0161722
0.0161678
0.0161634
0.016159
0.0161546
0.0161503
0.016146
0.0161417
0.0161374
0.0161332
0.016129
0.0161248
0.0161207
0.0161166
0.0161125
0.0161084
0.0161044
0.0161004
0.0160965
0.0160925
0.0160887
0.0160849
0.0160811
0.0160774
0.0160738
0.0160703
0.0160669
0.0160637
0.0160605
0.0160575
0.0160546
0.0160519
0.0160493
0.016047
0.0160449
0.016043
0.0160413
0.0160398
0.0160386
0.0160377
0.0160371
0.0160367
0.0160367
0.0160369
0.0160375
0.0160384
0.0160396
0.0160411
0.016043
0.0160452
0.0160478
0.0160507
0.0160539
0.0160574
0.0160613
0.0160655
0.01607
0.0160747
0.0160798
0.0160851
0.0160907
0.0160965
0.0161026
0.0161089
0.0161153
0.0161219
0.0161286
0.0161354
0.0161423
0.0161493
0.0161563
0.0161632
0.0161701
0.0161769
0.0161836
0.0161901
0.0161964
0.0162025
0.0162083
0.0162138
0.0162189
0.0162236
0.0162278
0.0162316
0.0162347
0.0162373
0.0162393
0.0162406
0.0162411
0.0162408
0.0162398
0.0162378
0.016235
0.0162312
0.0162264
0.0162206
0.0162138
0.0162058
0.0161967
0.0161865
0.0161751
0.0161626
0.0161488
0.0161338
0.0161176
0.0161002
0.0160815
0.0160616
0.0160405
0.0160182
0.0159948
0.0159701
0.0159443
0.0159175
0.0158895
0.0158606
0.0158306
0.0157997
0.015768
0.0157354
0.0157021
0.015668
0.0156333
0.015598
0.0155622
0.015526
0.0154894
0.0154524
0.0154153
0.015378
0.0153405
0.0153031
0.0152657
0.0152284
0.0151913
0.0151545
0.0151179
0.0150818
0.015046
0.0150107
0.014976
0.0149419
0.0149084
0.0148756
0.0148435
0.0148122
0.0147817
0.014752
0.0147233
0.0146954
0.0146684
0.0146425
0.0146174
0.0145934
0.0145705
0.0145485
0.0145276
0.0145078
0.014489
0.0144713
0.0144547
0.0144392
0.0144248
0.0144115
0.0143993
0.0143882
0.0143782
0.0143692
0.0143614
0.0143546
0.0143489
0.0143443
0.0143407
0.0143381
0.0143365
0.0143359
0.0143362
0.0143374
0.0143396
0.0143427
0.0143466
0.0143514
0.0143574
0.0143626
0.0162361
0.0162341
0.0162314
0.0162285
0.0162253
0.0162219
0.0162182
0.0162144
0.0162105
0.0162064
0.0162022
0.016198
0.0161936
0.0161893
0.016185
0.0161806
0.0161763
0.0161719
0.0161676
0.0161633
0.016159
0.0161547
0.0161505
0.0161462
0.016142
0.0161378
0.0161336
0.0161295
0.0161253
0.0161212
0.0161171
0.016113
0.016109
0.0161049
0.0161009
0.0160969
0.016093
0.0160891
0.0160853
0.0160815
0.0160778
0.0160742
0.0160707
0.0160673
0.0160641
0.0160609
0.016058
0.0160552
0.0160525
0.0160501
0.0160479
0.0160458
0.016044
0.0160425
0.0160412
0.0160402
0.0160395
0.0160391
0.0160389
0.0160391
0.0160396
0.0160404
0.0160416
0.0160431
0.0160449
0.016047
0.0160495
0.0160524
0.0160555
0.016059
0.0160628
0.016067
0.0160714
0.0160762
0.0160812
0.0160865
0.016092
0.0160978
0.0161038
0.01611
0.0161164
0.0161229
0.0161296
0.0161363
0.0161432
0.01615
0.0161569
0.0161638
0.0161706
0.0161774
0.016184
0.0161904
0.0161966
0.0162026
0.0162083
0.0162137
0.0162187
0.0162233
0.0162274
0.016231
0.0162341
0.0162365
0.0162384
0.0162395
0.0162399
0.0162395
0.0162383
0.0162363
0.0162333
0.0162294
0.0162245
0.0162185
0.0162115
0.0162034
0.0161942
0.0161839
0.0161724
0.0161597
0.0161458
0.0161306
0.0161143
0.0160967
0.0160779
0.0160579
0.0160366
0.0160142
0.0159906
0.0159658
0.0159399
0.0159129
0.0158848
0.0158557
0.0158256
0.0157946
0.0157627
0.01573
0.0156966
0.0156624
0.0156277
0.0155923
0.0155564
0.0155201
0.0154835
0.0154465
0.0154093
0.015372
0.0153346
0.0152972
0.0152599
0.0152226
0.0151856
0.0151488
0.0151124
0.0150763
0.0150406
0.0150055
0.0149709
0.0149369
0.0149036
0.014871
0.0148391
0.0148079
0.0147776
0.0147482
0.0147196
0.0146919
0.0146652
0.0146394
0.0146146
0.0145908
0.014568
0.0145462
0.0145255
0.0145058
0.0144872
0.0144697
0.0144532
0.0144379
0.0144236
0.0144103
0.0143982
0.0143872
0.0143772
0.0143683
0.0143604
0.0143537
0.014348
0.0143433
0.0143397
0.0143371
0.0143355
0.0143349
0.0143353
0.0143367
0.014339
0.0143423
0.0143465
0.0143517
0.0143583
0.014364
0.0162424
0.01624
0.0162367
0.0162334
0.0162298
0.0162261
0.0162223
0.0162184
0.0162143
0.0162102
0.0162059
0.0162017
0.0161974
0.0161931
0.0161888
0.0161845
0.0161803
0.016176
0.0161717
0.0161675
0.0161632
0.016159
0.0161548
0.0161506
0.0161465
0.0161423
0.0161381
0.016134
0.0161298
0.0161257
0.0161216
0.0161174
0.0161133
0.0161092
0.0161052
0.0161011
0.0160971
0.0160931
0.0160892
0.0160854
0.0160816
0.0160779
0.0160743
0.0160708
0.0160674
0.0160642
0.0160612
0.0160582
0.0160555
0.016053
0.0160506
0.0160485
0.0160466
0.016045
0.0160436
0.0160425
0.0160417
0.0160412
0.016041
0.0160411
0.0160415
0.0160423
0.0160434
0.0160449
0.0160466
0.0160487
0.0160511
0.0160539
0.0160571
0.0160605
0.0160643
0.0160684
0.0160728
0.0160775
0.0160825
0.0160878
0.0160933
0.016099
0.016105
0.0161112
0.0161175
0.016124
0.0161307
0.0161374
0.0161442
0.016151
0.0161578
0.0161647
0.0161714
0.0161781
0.0161846
0.016191
0.0161972
0.0162031
0.0162087
0.016214
0.0162189
0.0162234
0.0162275
0.016231
0.016234
0.0162364
0.0162381
0.0162391
0.0162394
0.016239
0.0162377
0.0162355
0.0162324
0.0162284
0.0162234
0.0162174
0.0162102
0.0162021
0.0161927
0.0161823
0.0161706
0.0161578
0.0161438
0.0161285
0.016112
0.0160943
0.0160753
0.0160552
0.0160338
0.0160112
0.0159874
0.0159624
0.0159363
0.0159092
0.0158809
0.0158517
0.0158214
0.0157903
0.0157582
0.0157254
0.0156918
0.0156575
0.0156225
0.0155871
0.0155511
0.0155147
0.0154779
0.0154408
0.0154036
0.0153662
0.0153287
0.0152913
0.0152539
0.0152166
0.0151796
0.0151428
0.0151064
0.0150703
0.0150348
0.0149997
0.0149652
0.0149313
0.0148981
0.0148656
0.0148338
0.0148028
0.0147727
0.0147434
0.0147149
0.0146874
0.0146609
0.0146353
0.0146106
0.014587
0.0145644
0.0145428
0.0145222
0.0145027
0.0144843
0.0144669
0.0144505
0.0144353
0.0144211
0.0144079
0.0143959
0.0143849
0.014375
0.0143661
0.0143583
0.0143516
0.0143459
0.0143412
0.0143376
0.014335
0.0143334
0.0143329
0.0143334
0.0143349
0.0143374
0.0143409
0.0143454
0.014351
0.0143582
0.0143643
0.0162489
0.016246
0.0162422
0.0162384
0.0162346
0.0162306
0.0162265
0.0162224
0.0162182
0.0162139
0.0162097
0.0162054
0.0162012
0.0161969
0.0161926
0.0161884
0.0161841
0.0161799
0.0161757
0.0161715
0.0161674
0.0161632
0.0161591
0.0161549
0.0161508
0.0161466
0.0161425
0.0161383
0.0161342
0.01613
0.0161258
0.0161217
0.0161176
0.0161134
0.0161093
0.0161052
0.0161011
0.016097
0.016093
0.0160891
0.0160852
0.0160814
0.0160777
0.0160741
0.0160706
0.0160673
0.0160641
0.0160611
0.0160583
0.0160556
0.0160532
0.016051
0.016049
0.0160473
0.0160458
0.0160446
0.0160438
0.0160432
0.0160429
0.0160429
0.0160433
0.016044
0.016045
0.0160464
0.0160482
0.0160502
0.0160527
0.0160554
0.0160585
0.0160619
0.0160657
0.0160698
0.0160742
0.0160789
0.0160838
0.0160891
0.0160946
0.0161003
0.0161063
0.0161125
0.0161188
0.0161253
0.0161319
0.0161386
0.0161453
0.0161521
0.016159
0.0161657
0.0161725
0.0161791
0.0161856
0.0161919
0.0161981
0.0162039
0.0162095
0.0162148
0.0162196
0.0162241
0.0162281
0.0162316
0.0162345
0.0162368
0.0162384
0.0162394
0.0162397
0.0162392
0.0162378
0.0162355
0.0162324
0.0162283
0.0162232
0.016217
0.0162099
0.0162016
0.0161922
0.0161816
0.0161699
0.0161569
0.0161427
0.0161274
0.0161107
0.0160929
0.0160738
0.0160534
0.0160319
0.0160091
0.0159852
0.01596
0.0159338
0.0159064
0.015878
0.0158485
0.0158181
0.0157867
0.0157544
0.0157214
0.0156876
0.0156531
0.015618
0.0155823
0.0155461
0.0155095
0.0154726
0.0154354
0.0153979
0.0153604
0.0153228
0.0152852
0.0152478
0.0152104
0.0151733
0.0151365
0.0151
0.015064
0.0150284
0.0149933
0.0149589
0.014925
0.0148919
0.0148594
0.0148277
0.0147969
0.0147668
0.0147376
0.0147093
0.0146819
0.0146555
0.0146301
0.0146056
0.0145821
0.0145596
0.0145382
0.0145178
0.0144984
0.0144801
0.0144628
0.0144466
0.0144314
0.0144173
0.0144043
0.0143923
0.0143814
0.0143715
0.0143627
0.014355
0.0143482
0.0143426
0.0143379
0.0143344
0.0143318
0.0143303
0.0143298
0.0143304
0.014332
0.0143347
0.0143384
0.0143432
0.0143492
0.0143569
0.0143634
0.0162555
0.0162522
0.0162478
0.0162436
0.0162394
0.0162351
0.0162308
0.0162265
0.0162221
0.0162178
0.0162134
0.0162091
0.0162049
0.0162006
0.0161963
0.0161921
0.0161879
0.0161838
0.0161796
0.0161755
0.0161713
0.0161672
0.0161631
0.016159
0.0161549
0.0161508
0.0161466
0.0161425
0.0161383
0.0161341
0.0161299
0.0161258
0.0161216
0.0161173
0.0161132
0.016109
0.0161048
0.0161007
0.0160966
0.0160926
0.0160886
0.0160847
0.0160809
0.0160772
0.0160736
0.0160702
0.0160669
0.0160638
0.0160608
0.0160581
0.0160555
0.0160532
0.0160512
0.0160493
0.0160478
0.0160466
0.0160456
0.0160449
0.0160446
0.0160446
0.0160449
0.0160456
0.0160466
0.0160479
0.0160496
0.0160517
0.0160541
0.0160568
0.0160599
0.0160633
0.0160671
0.0160711
0.0160755
0.0160802
0.0160852
0.0160905
0.0160959
0.0161017
0.0161077
0.0161138
0.0161201
0.0161266
0.0161332
0.0161399
0.0161467
0.0161535
0.0161603
0.0161671
0.0161738
0.0161804
0.0161869
0.0161932
0.0161993
0.0162051
0.0162107
0.0162159
0.0162208
0.0162252
0.0162291
0.0162326
0.0162355
0.0162378
0.0162394
0.0162403
0.0162406
0.01624
0.0162386
0.0162363
0.0162331
0.0162289
0.0162238
0.0162176
0.0162103
0.016202
0.0161925
0.0161818
0.01617
0.0161569
0.0161427
0.0161272
0.0161104
0.0160924
0.0160732
0.0160527
0.016031
0.016008
0.0159839
0.0159585
0.015932
0.0159045
0.0158758
0.0158461
0.0158155
0.0157838
0.0157514
0.0157181
0.015684
0.0156493
0.0156139
0.0155779
0.0155415
0.0155047
0.0154675
0.0154301
0.0153925
0.0153547
0.0153169
0.0152792
0.0152415
0.015204
0.0151668
0.0151299
0.0150933
0.0150572
0.0150215
0.0149864
0.0149519
0.0149181
0.0148849
0.0148525
0.0148208
0.01479
0.01476
0.0147309
0.0147027
0.0146754
0.0146491
0.0146238
0.0145994
0.0145761
0.0145537
0.0145324
0.0145121
0.0144929
0.0144747
0.0144575
0.0144414
0.0144264
0.0144124
0.0143994
0.0143875
0.0143767
0.0143669
0.0143581
0.0143504
0.0143437
0.014338
0.0143335
0.0143299
0.0143274
0.0143259
0.0143256
0.0143262
0.014328
0.0143308
0.0143348
0.0143399
0.0143463
0.0143543
0.0143612
0.0162622
0.0162584
0.0162535
0.0162489
0.0162443
0.0162396
0.0162351
0.0162305
0.016226
0.0162216
0.0162171
0.0162128
0.0162084
0.0162042
0.0161999
0.0161957
0.0161916
0.0161874
0.0161833
0.0161792
0.0161751
0.016171
0.016167
0.0161629
0.0161588
0.0161547
0.0161506
0.0161464
0.0161422
0.016138
0.0161338
0.0161296
0.0161253
0.0161211
0.0161168
0.0161126
0.0161084
0.0161041
0.0161
0.0160958
0.0160918
0.0160878
0.0160839
0.0160801
0.0160764
0.0160728
0.0160694
0.0160662
0.0160632
0.0160603
0.0160577
0.0160553
0.0160531
0.0160513
0.0160496
0.0160483
0.0160473
0.0160466
0.0160462
0.0160461
0.0160464
0.016047
0.016048
0.0160493
0.016051
0.016053
0.0160554
0.0160582
0.0160612
0.0160647
0.0160684
0.0160725
0.0160769
0.0160816
0.0160866
0.0160919
0.0160974
0.0161032
0.0161091
0.0161153
0.0161217
0.0161281
0.0161347
0.0161415
0.0161482
0.016155
0.0161618
0.0161686
0.0161753
0.0161819
0.0161884
0.0161947
0.0162008
0.0162067
0.0162122
0.0162174
0.0162222
0.0162267
0.0162306
0.016234
0.0162369
0.0162392
0.0162408
0.0162417
0.0162419
0.0162413
0.0162399
0.0162376
0.0162344
0.0162302
0.016225
0.0162188
0.0162115
0.0162031
0.0161935
0.0161828
0.0161709
0.0161578
0.0161434
0.0161278
0.0161109
0.0160928
0.0160734
0.0160527
0.0160309
0.0160077
0.0159834
0.0159579
0.0159312
0.0159033
0.0158745
0.0158445
0.0158136
0.0157817
0.0157489
0.0157153
0.015681
0.0156459
0.0156102
0.015574
0.0155373
0.0155002
0.0154627
0.015425
0.0153871
0.0153491
0.0153111
0.015273
0.0152352
0.0151975
0.0151601
0.0151229
0.0150862
0.0150499
0.0150142
0.014979
0.0149444
0.0149105
0.0148773
0.0148448
0.0148132
0.0147823
0.0147524
0.0147233
0.0146951
0.0146679
0.0146417
0.0146164
0.0145922
0.0145689
0.0145467
0.0145255
0.0145053
0.0144861
0.0144681
0.014451
0.014435
0.0144201
0.0144062
0.0143933
0.0143815
0.0143707
0.0143609
0.0143522
0.0143446
0.0143379
0.0143323
0.0143278
0.0143243
0.0143218
0.0143204
0.0143201
0.0143209
0.0143227
0.0143258
0.0143299
0.0143353
0.014342
0.0143504
0.0143576
0.0162689
0.0162646
0.0162592
0.0162541
0.0162491
0.0162441
0.0162393
0.0162345
0.0162298
0.0162253
0.0162207
0.0162163
0.0162119
0.0162076
0.0162034
0.0161992
0.016195
0.0161909
0.0161868
0.0161828
0.0161787
0.0161747
0.0161706
0.0161666
0.0161625
0.0161584
0.0161542
0.0161501
0.0161459
0.0161417
0.0161375
0.0161332
0.0161289
0.0161246
0.0161202
0.0161159
0.0161116
0.0161073
0.0161031
0.0160988
0.0160947
0.0160906
0.0160866
0.0160827
0.0160789
0.0160753
0.0160718
0.0160684
0.0160653
0.0160624
0.0160596
0.0160572
0.0160549
0.016053
0.0160513
0.0160499
0.0160488
0.0160481
0.0160476
0.0160475
0.0160478
0.0160484
0.0160493
0.0160506
0.0160523
0.0160543
0.0160567
0.0160595
0.0160626
0.016066
0.0160698
0.0160739
0.0160783
0.0160831
0.0160881
0.0160934
0.0160989
0.0161047
0.0161107
0.0161169
0.0161233
0.0161298
0.0161364
0.0161431
0.0161499
0.0161567
0.0161635
0.0161703
0.0161771
0.0161837
0.0161902
0.0161965
0.0162026
0.0162084
0.016214
0.0162192
0.016224
0.0162284
0.0162324
0.0162358
0.0162387
0.016241
0.0162426
0.0162435
0.0162438
0.0162431
0.0162417
0.0162394
0.0162362
0.016232
0.0162268
0.0162205
0.0162132
0.0162048
0.0161952
0.0161844
0.0161724
0.0161593
0.0161448
0.0161291
0.0161121
0.0160939
0.0160744
0.0160536
0.0160315
0.0160082
0.0159836
0.0159579
0.015931
0.0159029
0.0158738
0.0158435
0.0158123
0.0157801
0.0157471
0.0157131
0.0156784
0.0156431
0.0156071
0.0155705
0.0155334
0.0154959
0.0154582
0.0154201
0.0153819
0.0153435
0.0153052
0.0152669
0.0152287
0.0151907
0.0151531
0.0151157
0.0150788
0.0150423
0.0150063
0.014971
0.0149363
0.0149022
0.0148689
0.0148364
0.0148046
0.0147738