/*--------------------------------*- C++ -*----------------------------------*\
  =========                 |
  \\      /  F ield         | OpenFOAM: The Open Source CFD Toolbox
   \\    /   O peration     | Website:  https://openfoam.org
    \\  /    A nd           | Version:  6
     \\/     M anipulation  |
\*---------------------------------------------------------------------------*/
FoamFile
{
    version     2.0;
    format      ascii;
    class       volScalarField;
    location    "0";
    object      p;
}
// * * * * * * * * * * * * * * * * * * * * * * * * * * * * * * * * * * * * * //

dimensions      [0 2 -2 0 0 0 0];

internalField   nonuniform List<scalar> 
40000
(
0.00964456
0.00964421
0.00964298
0.0096408
0.00963792
0.00963457
0.00963095
0.00962721
0.00962352
0.00961996
0.00961665
0.00961364
0.009611
0.00960877
0.00960699
0.00960567
0.00960484
0.00960451
0.00960469
0.00960538
0.00960658
0.0096083
0.00961052
0.00961325
0.00961648
0.0096202
0.00962441
0.00962909
0.00963425
0.00963988
0.00964597
0.00965251
0.00965949
0.00966692
0.00967479
0.00968308
0.0096918
0.00970094
0.0097105
0.00972047
0.00973086
0.00974165
0.00975284
0.00976444
0.00977643
0.00978883
0.00980162
0.0098148
0.00982837
0.00984234
0.0098567
0.00987144
0.00988657
0.00990209
0.00991799
0.00993428
0.00995094
0.00996799
0.00998541
0.0100032
0.0100214
0.0100399
0.0100589
0.0100781
0.0100978
0.0101178
0.0101382
0.0101589
0.01018
0.0102014
0.0102232
0.0102453
0.0102678
0.0102905
0.0103136
0.010337
0.0103608
0.0103848
0.0104091
0.0104337
0.0104586
0.0104838
0.0105092
0.0105349
0.0105608
0.0105869
0.0106133
0.0106399
0.0106666
0.0106936
0.0107207
0.010748
0.0107754
0.0108029
0.0108306
0.0108583
0.0108861
0.010914
0.0109419
0.0109699
0.0109979
0.0110258
0.0110537
0.0110816
0.0111094
0.0111371
0.0111647
0.0111922
0.0112195
0.0112466
0.0112736
0.0113003
0.0113268
0.011353
0.011379
0.0114047
0.01143
0.011455
0.0114796
0.0115039
0.0115277
0.0115511
0.0115741
0.0115966
0.0116186
0.0116401
0.0116611
0.0116815
0.0117014
0.0117208
0.0117395
0.0117577
0.0117752
0.0117921
0.0118084
0.011824
0.011839
0.0118533
0.011867
0.0118799
0.0118922
0.0119038
0.0119147
0.0119249
0.0119344
0.0119432
0.0119513
0.0119588
0.0119655
0.0119715
0.0119769
0.0119816
0.0119857
0.011989
0.0119918
0.0119939
0.0119954
0.0119962
0.0119965
0.0119962
0.0119953
0.0119939
0.0119919
0.0119895
0.0119865
0.0119831
0.0119792
0.0119749
0.0119701
0.011965
0.0119596
0.0119538
0.0119477
0.0119413
0.0119347
0.0119278
0.0119208
0.0119136
0.0119063
0.0118989
0.0118915
0.011884
0.0118766
0.0118693
0.011862
0.011855
0.0118481
0.0118416
0.0118354
0.0118295
0.0118241
0.0118193
0.011815
0.0118114
0.0118086
0.0118065
0.0118052
0.0118048
0.011805
0.0118054
0.00964491
0.00964456
0.00964345
0.00964151
0.00963894
0.00963594
0.0096327
0.00962935
0.00962602
0.00962282
0.00961984
0.00961714
0.00961478
0.0096128
0.00961124
0.00961013
0.00960948
0.00960931
0.00960963
0.00961044
0.00961174
0.00961355
0.00961584
0.00961864
0.00962191
0.00962568
0.00962992
0.00963463
0.00963981
0.00964545
0.00965154
0.00965808
0.00966507
0.00967249
0.00968034
0.00968863
0.00969733
0.00970646
0.009716
0.00972595
0.00973631
0.00974708
0.00975825
0.00976982
0.00978179
0.00979415
0.00980691
0.00982006
0.0098336
0.00984754
0.00986186
0.00987656
0.00989166
0.00990713
0.00992299
0.00993923
0.00995585
0.00997285
0.00999023
0.010008
0.0100261
0.0100446
0.0100635
0.0100827
0.0101023
0.0101222
0.0101425
0.0101632
0.0101842
0.0102055
0.0102272
0.0102493
0.0102716
0.0102943
0.0103173
0.0103407
0.0103643
0.0103882
0.0104124
0.0104369
0.0104617
0.0104868
0.0105121
0.0105376
0.0105634
0.0105894
0.0106157
0.0106421
0.0106687
0.0106955
0.0107225
0.0107496
0.0107769
0.0108043
0.0108318
0.0108594
0.010887
0.0109147
0.0109425
0.0109703
0.0109981
0.0110258
0.0110536
0.0110813
0.0111089
0.0111364
0.0111638
0.0111911
0.0112182
0.0112452
0.011272
0.0112985
0.0113248
0.0113509
0.0113766
0.0114021
0.0114273
0.0114521
0.0114765
0.0115006
0.0115242
0.0115475
0.0115703
0.0115926
0.0116144
0.0116358
0.0116566
0.0116769
0.0116967
0.0117159
0.0117345
0.0117525
0.0117699
0.0117867
0.0118028
0.0118183
0.0118332
0.0118474
0.0118609
0.0118738
0.011886
0.0118975
0.0119083
0.0119184
0.0119279
0.0119366
0.0119447
0.0119521
0.0119588
0.0119648
0.0119701
0.0119748
0.0119789
0.0119823
0.011985
0.0119871
0.0119886
0.0119895
0.0119898
0.0119896
0.0119888
0.0119874
0.0119855
0.0119832
0.0119803
0.011977
0.0119732
0.011969
0.0119644
0.0119595
0.0119542
0.0119485
0.0119426
0.0119364
0.01193
0.0119233
0.0119165
0.0119096
0.0119025
0.0118954
0.0118882
0.011881
0.0118739
0.0118668
0.0118599
0.0118531
0.0118466
0.0118403
0.0118344
0.0118288
0.0118237
0.0118191
0.0118151
0.0118117
0.011809
0.011807
0.0118057
0.0118052
0.0118054
0.0118059
0.00964614
0.00964567
0.00964456
0.00964277
0.00964049
0.00963786
0.00963501
0.00963208
0.00962917
0.00962638
0.00962378
0.00962144
0.00961942
0.00961775
0.00961646
0.0096156
0.00961517
0.0096152
0.00961569
0.00961665
0.00961809
0.00962001
0.0096224
0.00962527
0.00962862
0.00963244
0.00963673
0.00964147
0.00964668
0.00965234
0.00965844
0.00966499
0.00967198
0.00967939
0.00968724
0.00969551
0.0097042
0.00971331
0.00972283
0.00973275
0.00974309
0.00975383
0.00976497
0.0097765
0.00978844
0.00980076
0.00981349
0.0098266
0.0098401
0.00985399
0.00986826
0.00988292
0.00989797
0.00991339
0.0099292
0.00994538
0.00996195
0.00997889
0.0099962
0.0100139
0.0100319
0.0100504
0.0100691
0.0100883
0.0101078
0.0101277
0.0101479
0.0101685
0.0101894
0.0102106
0.0102322
0.0102542
0.0102764
0.010299
0.0103219
0.0103451
0.0103686
0.0103924
0.0104165
0.0104409
0.0104655
0.0104904
0.0105156
0.010541
0.0105666
0.0105925
0.0106186
0.0106448
0.0106713
0.0106979
0.0107247
0.0107517
0.0107788
0.010806
0.0108333
0.0108606
0.0108881
0.0109156
0.0109432
0.0109708
0.0109983
0.0110259
0.0110534
0.0110809
0.0111083
0.0111356
0.0111628
0.0111898
0.0112168
0.0112435
0.01127
0.0112963
0.0113224
0.0113483
0.0113738
0.011399
0.011424
0.0114486
0.0114728
0.0114966
0.0115201
0.0115431
0.0115657
0.0115878
0.0116094
0.0116306
0.0116512
0.0116713
0.0116909
0.0117099
0.0117283
0.0117461
0.0117634
0.01178
0.011796
0.0118113
0.0118261
0.0118401
0.0118535
0.0118663
0.0118783
0.0118897
0.0119005
0.0119105
0.0119199
0.0119285
0.0119365
0.0119439
0.0119505
0.0119565
0.0119618
0.0119665
0.0119705
0.0119739
0.0119766
0.0119788
0.0119803
0.0119813
0.0119816
0.0119814
0.0119807
0.0119794
0.0119776
0.0119753
0.0119726
0.0119694
0.0119657
0.0119617
0.0119573
0.0119525
0.0119474
0.0119419
0.0119362
0.0119302
0.011924
0.0119177
0.0119111
0.0119044
0.0118976
0.0118908
0.0118839
0.0118771
0.0118703
0.0118635
0.011857
0.0118506
0.0118444
0.0118385
0.0118329
0.0118277
0.0118229
0.0118186
0.0118148
0.0118116
0.0118091
0.0118072
0.011806
0.0118054
0.0118056
0.0118061
0.00964833
0.00964762
0.00964633
0.00964454
0.00964237
0.00963993
0.00963733
0.00963468
0.00963207
0.00962958
0.00962728
0.00962523
0.00962347
0.00962205
0.009621
0.00962035
0.00962012
0.00962033
0.00962097
0.00962208
0.00962364
0.00962567
0.00962816
0.00963111
0.00963453
0.0096384
0.00964274
0.00964752
0.00965276
0.00965844
0.00966456
0.00967112
0.00967811
0.00968553
0.00969338
0.00970164
0.00971032
0.00971941
0.00972891
0.00973882
0.00974913
0.00975984
0.00977096
0.00978247
0.00979437
0.00980666
0.00981935
0.00983243
0.00984589
0.00985974
0.00987397
0.00988859
0.00990359
0.00991897
0.00993472
0.00995086
0.00996737
0.00998425
0.0100015
0.0100191
0.0100371
0.0100555
0.0100742
0.0100933
0.0101127
0.0101325
0.0101527
0.0101731
0.010194
0.0102152
0.0102367
0.0102585
0.0102807
0.0103031
0.0103259
0.010349
0.0103724
0.0103961
0.0104201
0.0104444
0.0104689
0.0104937
0.0105187
0.010544
0.0105695
0.0105952
0.0106211
0.0106473
0.0106736
0.0107001
0.0107267
0.0107535
0.0107804
0.0108074
0.0108346
0.0108618
0.0108891
0.0109164
0.0109438
0.0109712
0.0109986
0.011026
0.0110533
0.0110806
0.0111078
0.0111349
0.0111619
0.0111888
0.0112155
0.011242
0.0112684
0.0112945
0.0113204
0.011346
0.0113714
0.0113964
0.0114212
0.0114456
0.0114696
0.0114932
0.0115165
0.0115393
0.0115617
0.0115837
0.0116051
0.0116261
0.0116466
0.0116665
0.0116859
0.0117047
0.011723
0.0117407
0.0117578
0.0117742
0.0117901
0.0118053
0.0118199
0.0118338
0.0118471
0.0118598
0.0118717
0.011883
0.0118937
0.0119036
0.0119129
0.0119215
0.0119294
0.0119367
0.0119433
0.0119492
0.0119545
0.0119592
0.0119632
0.0119665
0.0119693
0.0119714
0.011973
0.0119739
0.0119743
0.0119742
0.0119735
0.0119722
0.0119705
0.0119683
0.0119656
0.0119625
0.011959
0.0119551
0.0119508
0.0119461
0.0119412
0.0119359
0.0119303
0.0119246
0.0119186
0.0119124
0.011906
0.0118996
0.011893
0.0118864
0.0118798
0.0118732
0.0118667
0.0118603
0.011854
0.0118479
0.011842
0.0118363
0.011831
0.0118261
0.0118215
0.0118175
0.0118139
0.0118109
0.0118084
0.0118066
0.0118054
0.0118049
0.0118051
0.0118056
0.00965123
0.0096502
0.00964861
0.0096467
0.00964451
0.00964215
0.00963969
0.00963723
0.00963483
0.00963256
0.00963049
0.00962867
0.00962714
0.00962594
0.0096251
0.00962464
0.00962458
0.00962495
0.00962574
0.00962698
0.00962866
0.00963079
0.00963338
0.00963641
0.0096399
0.00964384
0.00964822
0.00965305
0.00965832
0.00966403
0.00967017
0.00967675
0.00968375
0.00969117
0.00969902
0.00970727
0.00971595
0.00972503
0.00973452
0.00974441
0.0097547
0.00976539
0.00977648
0.00978796
0.00979984
0.0098121
0.00982475
0.0098378
0.00985122
0.00986503
0.00987923
0.0098938
0.00990876
0.00992409
0.0099398
0.00995588
0.00997234
0.00998917
0.0100064
0.0100239
0.0100419
0.0100602
0.0100788
0.0100978
0.0101172
0.0101369
0.010157
0.0101774
0.0101982
0.0102193
0.0102407
0.0102624
0.0102845
0.0103069
0.0103296
0.0103526
0.0103759
0.0103995
0.0104234
0.0104475
0.0104719
0.0104966
0.0105215
0.0105467
0.010572
0.0105976
0.0106234
0.0106494
0.0106756
0.010702
0.0107285
0.0107551
0.0107819
0.0108088
0.0108358
0.0108628
0.01089
0.0109171
0.0109444
0.0109716
0.0109988
0.011026
0.0110532
0.0110803
0.0111074
0.0111343
0.0111612
0.0111879
0.0112144
0.0112408
0.0112669
0.0112929
0.0113186
0.0113441
0.0113692
0.0113941
0.0114187
0.0114429
0.0114668
0.0114902
0.0115133
0.011536
0.0115582
0.01158
0.0116013
0.0116221
0.0116424
0.0116622
0.0116815
0.0117001
0.0117183
0.0117358
0.0117528
0.0117691
0.0117848
0.0117999
0.0118144
0.0118282
0.0118414
0.0118539
0.0118658
0.011877
0.0118875
0.0118974
0.0119066
0.0119151
0.011923
0.0119302
0.0119368
0.0119427
0.0119479
0.0119525
0.0119565
0.0119598
0.0119626
0.0119647
0.0119662
0.0119672
0.0119676
0.0119675
0.0119668
0.0119656
0.0119639
0.0119618
0.0119592
0.0119561
0.0119527
0.0119489
0.0119447
0.0119401
0.0119353
0.0119301
0.0119247
0.0119191
0.0119133
0.0119073
0.0119011
0.0118948
0.0118885
0.0118821
0.0118757
0.0118694
0.0118631
0.0118569
0.0118508
0.0118449
0.0118393
0.0118339
0.0118288
0.0118241
0.0118198
0.0118159
0.0118124
0.0118095
0.0118072
0.0118054
0.0118042
0.0118037
0.0118039
0.0118044
0.00965462
0.00965321
0.00965125
0.00964912
0.00964684
0.00964447
0.00964207
0.00963971
0.00963745
0.00963535
0.00963347
0.00963183
0.00963049
0.00962947
0.00962881
0.00962852
0.00962862
0.00962913
0.00963007
0.00963143
0.00963322
0.00963546
0.00963813
0.00964125
0.00964481
0.00964881
0.00965324
0.00965812
0.00966343
0.00966917
0.00967533
0.00968193
0.00968894
0.00969637
0.00970422
0.00971248
0.00972114
0.00973022
0.00973969
0.00974957
0.00975985
0.00977052
0.00978158
0.00979304
0.00980489
0.00981713
0.00982975
0.00984276
0.00985615
0.00986993
0.00988408
0.00989862
0.00991353
0.00992882
0.00994448
0.00996052
0.00997693
0.00999371
0.0100109
0.0100284
0.0100462
0.0100645
0.0100831
0.010102
0.0101213
0.010141
0.010161
0.0101813
0.010202
0.010223
0.0102444
0.010266
0.010288
0.0103103
0.0103329
0.0103559
0.0103791
0.0104026
0.0104263
0.0104504
0.0104747
0.0104992
0.010524
0.0105491
0.0105744
0.0105998
0.0106255
0.0106514
0.0106775
0.0107037
0.0107301
0.0107566
0.0107832
0.01081
0.0108368
0.0108638
0.0108908
0.0109178
0.0109449
0.010972
0.0109991
0.0110261
0.0110532
0.0110801
0.011107
0.0111338
0.0111605
0.011187
0.0112134
0.0112396
0.0112656
0.0112914
0.011317
0.0113423
0.0113673
0.0113921
0.0114165
0.0114405
0.0114642
0.0114876
0.0115105
0.011533
0.0115551
0.0115767
0.0115979
0.0116186
0.0116387
0.0116584
0.0116775
0.0116961
0.011714
0.0117315
0.0117483
0.0117645
0.0117801
0.0117951
0.0118095
0.0118232
0.0118363
0.0118487
0.0118605
0.0118716
0.011882
0.0118918
0.0119009
0.0119094
0.0119172
0.0119243
0.0119308
0.0119366
0.0119418
0.0119464
0.0119503
0.0119536
0.0119563
0.0119584
0.01196
0.0119609
0.0119613
0.0119612
0.0119606
0.0119594
0.0119577
0.0119556
0.0119531
0.0119501
0.0119467
0.011943
0.0119388
0.0119344
0.0119296
0.0119246
0.0119193
0.0119138
0.0119081
0.0119023
0.0118963
0.0118902
0.011884
0.0118778
0.0118716
0.0118654
0.0118593
0.0118533
0.0118475
0.0118418
0.0118363
0.0118312
0.0118263
0.0118217
0.0118175
0.0118138
0.0118105
0.0118076
0.0118053
0.0118036
0.0118024
0.0118018
0.0118019
0.0118024
0.0096583
0.00965649
0.0096541
0.0096517
0.00964926
0.00964681
0.0096444
0.00964208
0.00963991
0.00963793
0.00963617
0.00963468
0.00963349
0.00963263
0.00963211
0.00963197
0.00963222
0.00963286
0.00963392
0.0096354
0.0096373
0.00963963
0.0096424
0.00964559
0.00964922
0.00965328
0.00965777
0.0096627
0.00966804
0.00967382
0.00968001
0.00968663
0.00969366
0.0097011
0.00970895
0.00971721
0.00972588
0.00973494
0.00974441
0.00975428
0.00976454
0.00977519
0.00978624
0.00979767
0.0098095
0.00982171
0.0098343
0.00984728
0.00986064
0.00987438
0.0098885
0.00990299
0.00991787
0.00993311
0.00994873
0.00996472
0.00998109
0.00999782
0.0100149
0.0100324
0.0100502
0.0100684
0.0100869
0.0101058
0.010125
0.0101446
0.0101646
0.0101848
0.0102055
0.0102264
0.0102477
0.0102693
0.0102912
0.0103134
0.0103359
0.0103588
0.0103819
0.0104053
0.010429
0.0104529
0.0104771
0.0105016
0.0105263
0.0105513
0.0105764
0.0106018
0.0106274
0.0106531
0.0106791
0.0107052
0.0107315
0.0107579
0.0107844
0.010811
0.0108378
0.0108646
0.0108915
0.0109184
0.0109453
0.0109723
0.0109992
0.0110262
0.0110531
0.0110799
0.0111067
0.0111333
0.0111599
0.0111863
0.0112126
0.0112386
0.0112645
0.0112902
0.0113156
0.0113408
0.0113657
0.0113903
0.0114145
0.0114385
0.011462
0.0114852
0.011508
0.0115304
0.0115524
0.0115739
0.0115949
0.0116155
0.0116355
0.011655
0.011674
0.0116924
0.0117103
0.0117276
0.0117443
0.0117604
0.0117759
0.0117908
0.0118051
0.0118187
0.0118317
0.011844
0.0118557
0.0118667
0.011877
0.0118867
0.0118958
0.0119042
0.0119119
0.011919
0.0119254
0.0119311
0.0119363
0.0119408
0.0119447
0.0119479
0.0119506
0.0119527
0.0119542
0.0119551
0.0119555
0.0119554
0.0119547
0.0119536
0.011952
0.0119499
0.0119473
0.0119444
0.011941
0.0119373
0.0119333
0.0119289
0.0119242
0.0119193
0.0119141
0.0119087
0.0119031
0.0118973
0.0118915
0.0118855
0.0118795
0.0118734
0.0118674
0.0118614
0.0118554
0.0118496
0.0118439
0.0118384
0.0118331
0.0118281
0.0118234
0.0118189
0.0118149
0.0118112
0.011808
0.0118052
0.0118029
0.0118011
0.0117999
0.0117993
0.0117993
0.0117996
0.00966211
0.00965989
0.00965703
0.00965432
0.00965168
0.0096491
0.00964663
0.00964431
0.00964217
0.00964025
0.00963859
0.00963721
0.00963613
0.00963539
0.00963501
0.00963499
0.00963536
0.00963613
0.0096373
0.00963889
0.00964089
0.00964331
0.00964616
0.00964943
0.00965313
0.00965725
0.0096618
0.00966677
0.00967216
0.00967797
0.00968419
0.00969083
0.00969787
0.00970533
0.00971319
0.00972146
0.00973012
0.00973919
0.00974865
0.00975851
0.00976875
0.00977939
0.00979042
0.00980184
0.00981364
0.00982582
0.00983839
0.00985134
0.00986466
0.00987837
0.00989246
0.00990692
0.00992175
0.00993696
0.00995254
0.00996848
0.0099848
0.0100015
0.0100185
0.0100359
0.0100537
0.0100718
0.0100903
0.0101092
0.0101283
0.0101479
0.0101677
0.010188
0.0102085
0.0102294
0.0102506
0.0102721
0.0102939
0.0103161
0.0103385
0.0103613
0.0103843
0.0104077
0.0104313
0.0104551
0.0104793
0.0105036
0.0105283
0.0105531
0.0105782
0.0106035
0.010629
0.0106546
0.0106805
0.0107065
0.0107327
0.010759
0.0107854
0.0108119
0.0108386
0.0108653
0.010892
0.0109188
0.0109457
0.0109725
0.0109994
0.0110262
0.011053
0.0110797
0.0111064
0.0111329
0.0111593
0.0111856
0.0112118
0.0112377
0.0112635
0.0112891
0.0113144
0.0113394
0.0113642
0.0113887
0.0114128
0.0114366
0.0114601
0.0114832
0.0115059
0.0115282
0.01155
0.0115714
0.0115923
0.0116127
0.0116327
0.0116521
0.011671
0.0116893
0.011707
0.0117242
0.0117408
0.0117569
0.0117723
0.011787
0.0118012
0.0118147
0.0118276
0.0118398
0.0118514
0.0118623
0.0118726
0.0118822
0.0118912
0.0118995
0.0119071
0.0119141
0.0119205
0.0119262
0.0119313
0.0119357
0.0119395
0.0119428
0.0119454
0.0119474
0.0119489
0.0119498
0.0119502
0.01195
0.0119493
0.0119482
0.0119465
0.0119444
0.0119419
0.011939
0.0119357
0.011932
0.011928
0.0119236
0.011919
0.0119141
0.011909
0.0119037
0.0118982
0.0118925
0.0118868
0.0118809
0.011875
0.0118691
0.0118631
0.0118573
0.0118514
0.0118458
0.0118402
0.0118348
0.0118297
0.0118248
0.0118201
0.0118158
0.0118119
0.0118083
0.0118051
0.0118023
0.0118
0.0117982
0.0117969
0.0117961
0.011796
0.0117961
0.00966589
0.00966326
0.00965994
0.0096569
0.00965401
0.00965127
0.0096487
0.00964633
0.00964419
0.0096423
0.0096407
0.00963939
0.00963841
0.00963777
0.00963749
0.00963758
0.00963806
0.00963893
0.0096402
0.00964189
0.00964398
0.00964649
0.00964942
0.00965276
0.00965653
0.00966071
0.00966531
0.00967033
0.00967576
0.0096816
0.00968786
0.00969452
0.00970158
0.00970906
0.00971693
0.0097252
0.00973387
0.00974293
0.00975239
0.00976224
0.00977248
0.0097831
0.00979411
0.00980551
0.00981729
0.00982945
0.00984199
0.00985491
0.00986821
0.00988189
0.00989594
0.00991036
0.00992516
0.00994033
0.00995587
0.00997178
0.00998805
0.0100047
0.0100217
0.0100391
0.0100568
0.0100749
0.0100933
0.0101121
0.0101312
0.0101507
0.0101705
0.0101906
0.0102111
0.0102319
0.0102531
0.0102745
0.0102963
0.0103184
0.0103408
0.0103635
0.0103864
0.0104097
0.0104332
0.010457
0.0104811
0.0105054
0.0105299
0.0105547
0.0105797
0.0106049
0.0106303
0.0106559
0.0106816
0.0107076
0.0107336
0.0107599
0.0107862
0.0108126
0.0108392
0.0108658
0.0108925
0.0109192
0.0109459
0.0109727
0.0109994
0.0110262
0.0110529
0.0110795
0.0111061
0.0111325
0.0111588
0.011185
0.0112111
0.0112369
0.0112626
0.0112881
0.0113133
0.0113382
0.0113629
0.0113873
0.0114113
0.0114351
0.0114584
0.0114814
0.011504
0.0115262
0.0115479
0.0115692
0.01159
0.0116104
0.0116302
0.0116495
0.0116683
0.0116865
0.0117042
0.0117213
0.0117378
0.0117537
0.011769
0.0117837
0.0117978
0.0118112
0.011824
0.0118362
0.0118477
0.0118585
0.0118687
0.0118782
0.0118871
0.0118953
0.0119029
0.0119098
0.0119161
0.0119217
0.0119267
0.0119311
0.0119349
0.011938
0.0119406
0.0119426
0.011944
0.0119449
0.0119452
0.011945
0.0119443
0.0119431
0.0119414
0.0119393
0.0119368
0.0119339
0.0119306
0.0119269
0.0119229
0.0119186
0.011914
0.0119091
0.0119041
0.0118988
0.0118934
0.0118878
0.0118821
0.0118763
0.0118705
0.0118646
0.0118588
0.011853
0.0118473
0.0118417
0.0118363
0.011831
0.011826
0.0118211
0.0118166
0.0118124
0.0118084
0.0118049
0.0118017
0.0117989
0.0117966
0.0117947
0.0117933
0.0117924
0.0117921
0.011792
0.00966953
0.0096665
0.00966272
0.00965933
0.00965619
0.00965326
0.00965056
0.00964811
0.00964594
0.00964405
0.00964247
0.00964121
0.00964029
0.00963973
0.00963954
0.00963972
0.00964029
0.00964125
0.00964262
0.00964439
0.00964657
0.00964916
0.00965216
0.00965557
0.0096594
0.00966364
0.0096683
0.00967336
0.00967883
0.00968471
0.00969099
0.00969768
0.00970477
0.00971226
0.00972014
0.00972842
0.00973709
0.00974616
0.00975561
0.00976546
0.00977569
0.0097863
0.0097973
0.00980868
0.00982044
0.00983258
0.0098451
0.00985799
0.00987126
0.00988491
0.00989893
0.00991332
0.00992809
0.00994322
0.00995872
0.00997459
0.00999082
0.0100074
0.0100244
0.0100417
0.0100594
0.0100774
0.0100958
0.0101145
0.0101336
0.010153
0.0101728
0.0101929
0.0102133
0.0102341
0.0102552
0.0102766
0.0102983
0.0103203
0.0103426
0.0103652
0.0103881
0.0104113
0.0104348
0.0104585
0.0104825
0.0105067
0.0105312
0.0105559
0.0105808
0.010606
0.0106313
0.0106568
0.0106825
0.0107084
0.0107344
0.0107605
0.0107868
0.0108131
0.0108396
0.0108661
0.0108927
0.0109194
0.0109461
0.0109728
0.0109994
0.0110261
0.0110527
0.0110793
0.0111057
0.0111321
0.0111584
0.0111845
0.0112104
0.0112362
0.0112618
0.0112872
0.0113123
0.0113372
0.0113618
0.0113861
0.0114101
0.0114337
0.011457
0.0114799
0.0115024
0.0115245
0.0115462
0.0115674
0.0115881
0.0116084
0.0116281
0.0116474
0.0116661
0.0116842
0.0117018
0.0117188
0.0117352
0.0117511
0.0117663
0.0117809
0.0117949
0.0118082
0.0118209
0.011833
0.0118444
0.0118551
0.0118652
0.0118747
0.0118835
0.0118916
0.0118991
0.0119059
0.0119121
0.0119177
0.0119226
0.0119269
0.0119306
0.0119337
0.0119362
0.0119382
0.0119395
0.0119403
0.0119406
0.0119403
0.0119396
0.0119384
0.0119367
0.0119345
0.011932
0.011929
0.0119257
0.011922
0.011918
0.0119137
0.0119091
0.0119043
0.0118993
0.011894
0.0118886
0.0118831
0.0118774
0.0118717
0.0118659
0.0118602
0.0118544
0.0118487
0.0118431
0.0118376
0.0118322
0.011827
0.011822
0.0118173
0.0118128
0.0118086
0.0118047
0.0118011
0.011798
0.0117952
0.0117928
0.0117908
0.0117893
0.0117882
0.0117876
0.0117874
0.00967293
0.0096695
0.00966527
0.00966154
0.00965813
0.00965499
0.00965215
0.0096496
0.00964736
0.00964545
0.00964387
0.00964264
0.00964177
0.00964126
0.00964114
0.00964139
0.00964204
0.00964308
0.00964453
0.00964638
0.00964863
0.00965129
0.00965437
0.00965785
0.00966174
0.00966603
0.00967074
0.00967584
0.00968136
0.00968727
0.00969359
0.0097003
0.00970741
0.00971491
0.00972281
0.0097311
0.00973978
0.00974885
0.0097583
0.00976814
0.00977836
0.00978897
0.00979995
0.00981132
0.00982306
0.00983518
0.00984768
0.00986055
0.0098738
0.00988742
0.00990141
0.00991577
0.0099305
0.0099456
0.00996107
0.0099769
0.0099931
0.0100097
0.0100266
0.0100438
0.0100615
0.0100795
0.0100978
0.0101165
0.0101355
0.0101549
0.0101746
0.0101947
0.010215
0.0102358
0.0102568
0.0102781
0.0102998
0.0103218
0.010344
0.0103666
0.0103894
0.0104126
0.010436
0.0104597
0.0104836
0.0105078
0.0105322
0.0105568
0.0105817
0.0106068
0.010632
0.0106575
0.0106831
0.0107089
0.0107349
0.0107609
0.0107871
0.0108135
0.0108399
0.0108663
0.0108929
0.0109195
0.0109461
0.0109727
0.0109993
0.0110259
0.0110525
0.011079
0.0111054
0.0111317
0.0111579
0.0111839
0.0112098
0.0112356
0.0112611
0.0112864
0.0113115
0.0113363
0.0113608
0.0113851
0.011409
0.0114326
0.0114558
0.0114786
0.0115011
0.0115231
0.0115447
0.0115658
0.0115865
0.0116067
0.0116264
0.0116455
0.0116642
0.0116822
0.0116998
0.0117167
0.011733
0.0117488
0.0117639
0.0117785
0.0117924
0.0118056
0.0118182
0.0118302
0.0118415
0.0118522
0.0118622
0.0118716
0.0118803
0.0118884
0.0118958
0.0119025
0.0119086
0.0119141
0.011919
0.0119232
0.0119268
0.0119298
0.0119322
0.0119341
0.0119354
0.0119361
0.0119363
0.011936
0.0119352
0.0119339
0.0119322
0.01193
0.0119274
0.0119244
0.0119211
0.0119174
0.0119133
0.011909
0.0119044
0.0118996
0.0118945
0.0118893
0.0118839
0.0118784
0.0118728
0.0118671
0.0118614
0.0118556
0.0118499
0.0118442
0.0118387
0.0118332
0.0118279
0.0118227
0.0118178
0.0118131
0.0118086
0.0118044
0.0118006
0.011797
0.0117938
0.011791
0.0117885
0.0117864
0.0117848
0.0117835
0.0117827
0.0117823
0.00967599
0.00967219
0.00966753
0.00966346
0.00965977
0.00965642
0.00965341
0.00965075
0.00964843
0.00964648
0.00964488
0.00964366
0.00964281
0.00964235
0.00964227
0.00964258
0.00964329
0.00964441
0.00964592
0.00964784
0.00965016
0.00965289
0.00965603
0.00965957
0.00966352
0.00966786
0.00967262
0.00967777
0.00968332
0.00968927
0.00969562
0.00970236
0.00970949
0.00971701
0.00972492
0.00973322
0.00974191
0.00975098
0.00976044
0.00977027
0.00978049
0.00979108
0.00980206
0.00981341
0.00982514
0.00983724
0.00984972
0.00986257
0.00987579
0.00988939
0.00990335
0.00991768
0.00993239
0.00994745
0.00996289
0.00997869
0.00999485
0.0100114
0.0100283
0.0100455
0.0100631
0.010081
0.0100993
0.010118
0.010137
0.0101563
0.010176
0.010196
0.0102163
0.010237
0.010258
0.0102793
0.0103009
0.0103228
0.010345
0.0103675
0.0103903
0.0104134
0.0104368
0.0104604
0.0104843
0.0105084
0.0105328
0.0105574
0.0105822
0.0106072
0.0106324
0.0106579
0.0106834
0.0107092
0.0107351
0.0107611
0.0107873
0.0108135
0.0108399
0.0108663
0.0108928
0.0109194
0.0109459
0.0109725
0.0109991
0.0110256
0.0110521
0.0110786
0.011105
0.0111312
0.0111574
0.0111834
0.0112093
0.0112349
0.0112604
0.0112857
0.0113107
0.0113355
0.01136
0.0113842
0.0114081
0.0114316
0.0114548
0.0114776
0.0115
0.0115219
0.0115435
0.0115646
0.0115852
0.0116053
0.0116249
0.011644
0.0116626
0.0116806
0.0116981
0.0117149
0.0117312
0.0117469
0.011762
0.0117764
0.0117903
0.0118034
0.011816
0.0118279
0.0118391
0.0118497
0.0118597
0.0118689
0.0118776
0.0118855
0.0118928
0.0118995
0.0119055
0.0119109
0.0119157
0.0119198
0.0119233
0.0119263
0.0119286
0.0119304
0.0119316
0.0119322
0.0119324
0.011932
0.0119311
0.0119298
0.0119279
0.0119257
0.011923
0.01192
0.0119166
0.0119128
0.0119088
0.0119044
0.0118998
0.0118949
0.0118899
0.0118846
0.0118792
0.0118737
0.0118681
0.0118624
0.0118567
0.011851
0.0118453
0.0118397
0.0118341
0.0118287
0.0118234
0.0118183
0.0118134
0.0118087
0.0118042
0.0118
0.0117961
0.0117925
0.0117893
0.0117864
0.0117838
0.0117817
0.0117799
0.0117784
0.0117774
0.0117768
0.00967864
0.00967449
0.00966941
0.00966501
0.00966106
0.00965748
0.0096543
0.00965151
0.00964911
0.00964709
0.00964546
0.00964423
0.00964339
0.00964295
0.00964291
0.00964327
0.00964404
0.00964521
0.00964678
0.00964876
0.00965115
0.00965394
0.00965713
0.00966073
0.00966473
0.00966912
0.00967392
0.00967912
0.00968471
0.00969069
0.00969707
0.00970383
0.00971099
0.00971853
0.00972646
0.00973477
0.00974346
0.00975254
0.00976199
0.00977183
0.00978204
0.00979263
0.00980359
0.00981493
0.00982665
0.00983874
0.00985119
0.00986403
0.00987723
0.0098908
0.00990474
0.00991905
0.00993372
0.00994876
0.00996417
0.00997993
0.00999606
0.0100126
0.0100294
0.0100466
0.0100642
0.0100821
0.0101003
0.0101189
0.0101379
0.0101572
0.0101768
0.0101968
0.0102171
0.0102377
0.0102587
0.0102799
0.0103015
0.0103234
0.0103456
0.010368
0.0103908
0.0104138
0.0104372
0.0104607
0.0104846
0.0105087
0.010533
0.0105576
0.0105823
0.0106073
0.0106325
0.0106579
0.0106834
0.0107092
0.010735
0.010761
0.0107871
0.0108134
0.0108397
0.0108661
0.0108926
0.0109191
0.0109456
0.0109722
0.0109987
0.0110252
0.0110517
0.0110781
0.0111045
0.0111307
0.0111569
0.0111829
0.0112087
0.0112344
0.0112598
0.0112851
0.0113101
0.0113348
0.0113593
0.0113834
0.0114073
0.0114308
0.0114539
0.0114767
0.011499
0.011521
0.0115425
0.0115636
0.0115841
0.0116042
0.0116238
0.0116428
0.0116614
0.0116793
0.0116967
0.0117135
0.0117298
0.0117454
0.0117604
0.0117748
0.0117885
0.0118016
0.0118141
0.0118259
0.0118371
0.0118476
0.0118575
0.0118667
0.0118752
0.0118831
0.0118903
0.0118969
0.0119028
0.0119081
0.0119128
0.0119168
0.0119202
0.0119231
0.0119253
0.011927
0.0119281
0.0119287
0.0119287
0.0119282
0.0119273
0.0119258
0.0119239
0.0119216
0.0119189
0.0119158
0.0119123
0.0119085
0.0119044
0.0119
0.0118953
0.0118904
0.0118853
0.01188
0.0118746
0.011869
0.0118634
0.0118577
0.011852
0.0118463
0.0118406
0.011835
0.0118294
0.011824
0.0118187
0.0118136
0.0118087
0.011804
0.0117995
0.0117953
0.0117914
0.0117877
0.0117844
0.0117815
0.0117788
0.0117765
0.0117746
0.011773
0.0117717
0.0117708
0.00968082
0.00967633
0.00967086
0.00966614
0.00966192
0.00965813
0.00965477
0.00965184
0.00964934
0.00964725
0.00964558
0.00964433
0.00964349
0.00964306
0.00964305
0.00964344
0.00964425
0.00964546
0.00964709
0.00964912
0.00965156
0.00965441
0.00965765
0.0096613
0.00966535
0.0096698
0.00967464
0.00967987
0.0096855
0.00969152
0.00969792
0.00970471
0.00971189
0.00971945
0.00972739
0.00973571
0.00974442
0.0097535
0.00976296
0.00977279
0.009783
0.00979358
0.00980454
0.00981587
0.00982757
0.00983965
0.00985209
0.0098649
0.00987809
0.00989164
0.00990555
0.00991984
0.00993449
0.0099495
0.00996488
0.00998062
0.00999672
0.0100132
0.01003
0.0100472
0.0100647
0.0100826
0.0101008
0.0101194
0.0101383
0.0101576
0.0101772
0.0101971
0.0102174
0.0102379
0.0102589
0.0102801
0.0103016
0.0103235
0.0103456
0.0103681
0.0103908
0.0104138
0.0104371
0.0104607
0.0104845
0.0105085
0.0105328
0.0105574
0.0105821
0.0106071
0.0106322
0.0106576
0.0106831
0.0107088
0.0107347
0.0107606
0.0107867
0.010813
0.0108393
0.0108657
0.0108921
0.0109186
0.0109451
0.0109717
0.0109982
0.0110247
0.0110512
0.0110776
0.0111039
0.0111302
0.0111563
0.0111823
0.0112081
0.0112338
0.0112592
0.0112845
0.0113095
0.0113342
0.0113586
0.0113828
0.0114066
0.0114301
0.0114532
0.011476
0.0114983
0.0115203
0.0115417
0.0115628
0.0115833
0.0116034
0.0116229
0.0116419
0.0116604
0.0116783
0.0116957
0.0117125
0.0117286
0.0117442
0.0117591
0.0117735
0.0117872
0.0118002
0.0118126
0.0118243
0.0118354
0.0118459
0.0118556
0.0118647
0.0118732
0.011881
0.0118881
0.0118946
0.0119004
0.0119056
0.0119102
0.0119141
0.0119174
0.0119202
0.0119223
0.0119239
0.0119249
0.0119253
0.0119253
0.0119247
0.0119236
0.0119221
0.0119201
0.0119177
0.0119149
0.0119117
0.0119081
0.0119042
0.0119
0.0118956
0.0118908
0.0118859
0.0118807
0.0118754
0.0118699
0.0118644
0.0118587
0.011853
0.0118472
0.0118415
0.0118358
0.0118301
0.0118246
0.0118191
0.0118138
0.0118087
0.0118037
0.011799
0.0117945
0.0117903
0.0117863
0.0117826
0.0117793
0.0117762
0.0117734
0.011771
0.0117689
0.0117671
0.0117656
0.0117646
0.00968246
0.00967766
0.00967182
0.00966679
0.00966231
0.0096583
0.00965477
0.00965171
0.0096491
0.00964693
0.00964521
0.00964393
0.00964307
0.00964265
0.00964265
0.00964307
0.00964391
0.00964516
0.00964683
0.00964891
0.0096514
0.00965429
0.00965758
0.00966128
0.00966537
0.00966986
0.00967474
0.00968001
0.00968568
0.00969172
0.00969816
0.00970497
0.00971217
0.00971975
0.00972771
0.00973604
0.00974476
0.00975384
0.0097633
0.00977314
0.00978335
0.00979393
0.00980488
0.0098162
0.00982789
0.00983995
0.00985238
0.00986518
0.00987834
0.00989188
0.00990577
0.00992004
0.00993467
0.00994966
0.00996501
0.00998073
0.0099968
0.0100132
0.01003
0.0100472
0.0100647
0.0100825
0.0101007
0.0101193
0.0101382
0.0101574
0.010177
0.0101969
0.0102171
0.0102377
0.0102586
0.0102798
0.0103013
0.0103231
0.0103452
0.0103676