/*--------------------------------*- C++ -*----------------------------------*\
  =========                 |
  \\      /  F ield         | OpenFOAM: The Open Source CFD Toolbox
   \\    /   O peration     | Website:  https://openfoam.org
    \\  /    A nd           | Version:  6
     \\/     M anipulation  |
\*---------------------------------------------------------------------------*/
FoamFile
{
    version     2.0;
    format      ascii;
    class       volScalarField;
    location    "0";
    object      p;
}
// * * * * * * * * * * * * * * * * * * * * * * * * * * * * * * * * * * * * * //

dimensions      [0 2 -2 0 0 0 0];

internalField   nonuniform List<scalar> 
10000
(
0
1.09494e-06
1.58675e-06
1.09401e-06
-7.36486e-07
-4.17284e-06
-9.39251e-06
-1.64749e-05
-2.53949e-05
-3.60273e-05
-4.81599e-05
-6.1514e-05
-7.5768e-05
-9.05817e-05
-0.000105618
-0.000120563
-0.000135136
-0.000149114
-0.000162285
-0.00017447
-0.000185564
-0.000195513
-0.0002043
-0.000211937
-0.000218458
-0.000223915
-0.000228369
-0.000231894
-0.000234564
-0.000236457
-0.000237651
-0.000238222
-0.000238243
-0.000237783
-0.000236905
-0.000235669
-0.000234129
-0.000232334
-0.00023033
-0.000228155
-0.000225846
-0.000223434
-0.000220947
-0.000218409
-0.000215843
-0.000213267
-0.000210698
-0.000208149
-0.000205635
-0.000203164
-0.000200746
-0.00019839
-0.000196102
-0.000193887
-0.000191751
-0.000189696
-0.000187727
-0.000185846
-0.000184055
-0.000182355
-0.000180749
-0.000179238
-0.000177822
-0.000176503
-0.000175282
-0.00017416
-0.000173138
-0.000172217
-0.000171399
-0.000170685
-0.00017008
-0.000169587
-0.000169213
-0.000168965
-0.000168854
-0.000168893
-0.000169098
-0.000169492
-0.000170101
-0.00017096
-0.000172113
-0.000173614
-0.000175531
-0.000177946
-0.000180958
-0.000184683
-0.000189253
-0.000194816
-0.000201526
-0.000209541
-0.000219001
-0.000230019
-0.000242648
-0.000256855
-0.000272396
-0.000288722
-0.000304845
-0.000319157
-0.000328921
-0.000331109
-0.00984441
-0.00984296
-0.00984224
-0.00984252
-0.00984406
-0.00984713
-0.0098519
-0.00985846
-0.00986677
-0.00987674
-0.00988815
-0.00990073
-0.00991419
-0.00992819
-0.00994241
-0.00995655
-0.00997033
-0.00998353
-0.009996
-0.0100076
-0.010018
-0.0100274
-0.0100357
-0.0100429
-0.010049
-0.010054
-0.0100582
-0.0100614
-0.0100638
-0.0100655
-0.0100665
-0.0100669
-0.0100668
-0.0100663
-0.0100653
-0.0100641
-0.0100625
-0.0100607
-0.0100586
-0.0100565
-0.0100542
-0.0100518
-0.0100493
-0.0100468
-0.0100442
-0.0100417
-0.0100391
-0.0100366
-0.0100341
-0.0100317
-0.0100293
-0.0100269
-0.0100246
-0.0100224
-0.0100203
-0.0100182
-0.0100163
-0.0100144
-0.0100126
-0.0100109
-0.0100093
-0.0100077
-0.0100063
-0.010005
-0.0100038
-0.0100026
-0.0100016
-0.0100006
-0.0099998
-0.00999907
-0.00999844
-0.00999793
-0.00999753
-0.00999726
-0.00999713
-0.00999714
-0.00999732
-0.00999768
-0.00999825
-0.00999906
-0.0100001
-0.0100016
-0.0100033
-0.0100056
-0.0100084
-0.0100118
-0.0100159
-0.0100208
-0.0100266
-0.0100335
-0.0100414
-0.0100503
-0.0100602
-0.010071
-0.0100821
-0.0100932
-0.0101033
-0.0101113
-0.0101152
-0.0101131
-0.0196882
-0.0196863
-0.0196852
-0.0196851
-0.0196862
-0.0196889
-0.0196933
-0.0196994
-0.0197072
-0.0197167
-0.0197276
-0.0197397
-0.0197526
-0.019766
-0.0197797
-0.0197932
-0.0198064
-0.0198189
-0.0198307
-0.0198417
-0.0198516
-0.0198605
-0.0198682
-0.0198749
-0.0198805
-0.0198852
-0.0198889
-0.0198918
-0.0198939
-0.0198953
-0.0198961
-0.0198963
-0.019896
-0.0198953
-0.0198942
-0.0198928
-0.0198911
-0.0198892
-0.0198872
-0.019885
-0.0198826
-0.0198802
-0.0198777
-0.0198752
-0.0198726
-0.0198701
-0.0198676
-0.019865
-0.0198625
-0.0198601
-0.0198577
-0.0198554
-0.0198531
-0.0198509
-0.0198488
-0.0198467
-0.0198447
-0.0198428
-0.019841
-0.0198393
-0.0198377
-0.0198362
-0.0198347
-0.0198334
-0.0198321
-0.019831
-0.0198299
-0.0198289
-0.0198281
-0.0198273
-0.0198267
-0.0198261
-0.0198257
-0.0198254
-0.0198252
-0.0198252
-0.0198253
-0.0198256
-0.0198261
-0.0198269
-0.0198279
-0.0198291
-0.0198308
-0.0198328
-0.0198353
-0.0198383
-0.0198419
-0.0198461
-0.0198511
-0.0198568
-0.0198633
-0.0198704
-0.0198779
-0.0198857
-0.0198932
-0.0199001
-0.0199056
-0.0199091
-0.0199092
-0.0199049
-0.0295312
-0.0295288
-0.0295273
-0.0295268
-0.0295276
-0.0295299
-0.0295339
-0.0295397
-0.0295473
-0.0295565
-0.0295671
-0.0295789
-0.0295915
-0.0296046
-0.0296178
-0.0296309
-0.0296436
-0.0296556
-0.0296668
-0.0296772
-0.0296866
-0.0296948
-0.029702
-0.0297081
-0.0297133
-0.0297174
-0.0297207
-0.0297231
-0.0297249
-0.0297259
-0.0297263
-0.0297262
-0.0297257
-0.0297247
-0.0297235
-0.0297219
-0.0297201
-0.0297181
-0.0297159
-0.0297136
-0.0297112
-0.0297087
-0.0297062
-0.0297036
-0.029701
-0.0296985
-0.0296959
-0.0296934
-0.0296909
-0.0296885
-0.0296861
-0.0296837
-0.0296814
-0.0296792
-0.0296771
-0.029675
-0.0296731
-0.0296712
-0.0296694
-0.0296676
-0.029666
-0.0296644
-0.029663
-0.0296616
-0.0296603
-0.0296592
-0.0296581
-0.0296571
-0.0296562
-0.0296554
-0.0296548
-0.0296542
-0.0296537
-0.0296534
-0.0296532
-0.0296531
-0.0296532
-0.0296534
-0.0296538
-0.0296544
-0.0296553
-0.0296564
-0.0296578
-0.0296596
-0.0296617
-0.0296643
-0.0296674
-0.029671
-0.0296752
-0.0296799
-0.029685
-0.0296905
-0.0296961
-0.0297014
-0.0297062
-0.02971
-0.0297122
-0.0297127
-0.0297106
-0.0297051
-0.0393733
-0.0393707
-0.0393688
-0.0393681
-0.0393685
-0.0393706
-0.0393744
-0.03938
-0.0393874
-0.0393965
-0.039407
-0.0394186
-0.039431
-0.0394438
-0.0394568
-0.0394695
-0.0394818
-0.0394934
-0.0395041
-0.0395139
-0.0395226
-0.0395303
-0.0395369
-0.0395425
-0.039547
-0.0395506
-0.0395534
-0.0395553
-0.0395566
-0.0395572
-0.0395572
-0.0395567
-0.0395559
-0.0395546
-0.0395531
-0.0395513
-0.0395492
-0.0395471
-0.0395447
-0.0395423
-0.0395398
-0.0395372
-0.0395346
-0.039532
-0.0395294
-0.0395268
-0.0395242
-0.0395217
-0.0395191
-0.0395167
-0.0395143
-0.0395119
-0.0395097
-0.0395074
-0.0395053
-0.0395032
-0.0395012
-0.0394993
-0.0394975
-0.0394958
-0.0394941
-0.0394926
-0.0394911
-0.0394897
-0.0394884
-0.0394872
-0.0394861
-0.0394851
-0.0394842
-0.0394834
-0.0394827
-0.0394821
-0.0394816
-0.0394812
-0.0394809
-0.0394808
-0.0394808
-0.0394809
-0.0394813
-0.0394818
-0.0394825
-0.0394834
-0.0394846
-0.0394861
-0.0394879
-0.0394901
-0.0394927
-0.0394957
-0.0394991
-0.0395029
-0.0395069
-0.0395111
-0.039515
-0.0395185
-0.0395212
-0.0395227
-0.0395227
-0.0395212
-0.0395177
-0.0395119
-0.0492147
-0.0492118
-0.0492098
-0.0492088
-0.049209
-0.0492109
-0.0492146
-0.0492202
-0.0492276
-0.0492367
-0.0492472
-0.0492587
-0.0492711
-0.0492838
-0.0492965
-0.049309
-0.0493209
-0.0493321
-0.0493423
-0.0493515
-0.0493597
-0.0493668
-0.0493727
-0.0493777
-0.0493816
-0.0493846
-0.0493868
-0.0493882
-0.0493889
-0.049389
-0.0493886
-0.0493877
-0.0493865
-0.0493849
-0.049383
-0.0493809
-0.0493786
-0.0493762
-0.0493737
-0.0493711
-0.0493684
-0.0493657
-0.049363
-0.0493603
-0.0493577
-0.049355
-0.0493524
-0.0493498
-0.0493472
-0.0493448
-0.0493423
-0.04934
-0.0493377
-0.0493355
-0.0493333
-0.0493312
-0.0493292
-0.0493273
-0.0493255
-0.0493237
-0.0493221
-0.0493205
-0.049319
-0.0493176
-0.0493163
-0.0493151
-0.049314
-0.0493129
-0.049312
-0.0493112
-0.0493104
-0.0493098
-0.0493092
-0.0493088
-0.0493085
-0.0493083
-0.0493082
-0.0493083
-0.0493085
-0.0493089
-0.0493094
-0.0493102
-0.0493111
-0.0493124
-0.0493139
-0.0493157
-0.0493178
-0.0493202
-0.049323
-0.049326
-0.049329
-0.0493321
-0.0493348
-0.0493368
-0.0493379
-0.0493378
-0.0493363
-0.0493336
-0.0493295
-0.0493238
-0.0590554
-0.0590524
-0.0590502
-0.059049
-0.0590492
-0.059051
-0.0590547
-0.0590603
-0.0590678
-0.059077
-0.0590876
-0.0590992
-0.0591115
-0.0591241
-0.0591367
-0.0591489
-0.0591605
-0.0591713
-0.0591811
-0.0591898
-0.0591973
-0.0592038
-0.0592091
-0.0592134
-0.0592167
-0.0592191
-0.0592207
-0.0592215
-0.0592217
-0.0592213
-0.0592203
-0.059219
-0.0592173
-0.0592153
-0.0592131
-0.0592107
-0.0592081
-0.0592054
-0.0592027
-0.0591999
-0.0591971
-0.0591942
-0.0591914
-0.0591886
-0.0591858
-0.0591831
-0.0591804
-0.0591777
-0.0591752
-0.0591726
-0.0591702
-0.0591678
-0.0591655
-0.0591633
-0.0591611
-0.059159
-0.059157
-0.0591551
-0.0591532
-0.0591515
-0.0591498
-0.0591482
-0.0591467
-0.0591453
-0.059144
-0.0591427
-0.0591416
-0.0591405
-0.0591396
-0.0591387
-0.0591379
-0.0591373
-0.0591367
-0.0591362
-0.0591358
-0.0591355
-0.0591354
-0.0591354
-0.0591355
-0.0591357
-0.0591361
-0.0591367
-0.0591374
-0.0591384
-0.0591396
-0.059141
-0.0591427
-0.0591446
-0.0591468
-0.059149
-0.0591513
-0.0591534
-0.0591551
-0.0591561
-0.0591561
-0.0591549
-0.0591525
-0.0591491
-0.0591448
-0.0591393
-0.0688955
-0.0688924
-0.0688901
-0.0688888
-0.068889
-0.0688909
-0.0688946
-0.0689004
-0.0689081
-0.0689175
-0.0689282
-0.0689399
-0.0689522
-0.0689648
-0.0689772
-0.0689891
-0.0690004
-0.0690108
-0.0690201
-0.0690283
-0.0690353
-0.0690411
-0.0690458
-0.0690494
-0.0690521
-0.0690538
-0.0690548
-0.069055
-0.0690546
-0.0690537
-0.0690522
-0.0690504
-0.0690483
-0.0690459
-0.0690433
-0.0690405
-0.0690376
-0.0690347
-0.0690317
-0.0690286
-0.0690256
-0.0690226
-0.0690196
-0.0690167
-0.0690138
-0.0690109
-0.0690082
-0.0690055
-0.0690028
-0.0690003
-0.0689978
-0.0689954
-0.0689931
-0.0689908
-0.0689886
-0.0689865
-0.0689845
-0.0689826
-0.0689807
-0.068979
-0.0689773
-0.0689757
-0.0689742
-0.0689727
-0.0689714
-0.0689701
-0.068969
-0.0689679
-0.0689669
-0.068966
-0.0689652
-0.0689645
-0.0689638
-0.0689633
-0.0689629
-0.0689625
-0.0689623
-0.0689622
-0.0689622
-0.0689623
-0.0689625
-0.0689629
-0.0689634
-0.0689641
-0.068965
-0.0689661
-0.0689674
-0.0689689
-0.0689705
-0.0689722
-0.0689738
-0.0689752
-0.0689761
-0.0689763
-0.0689755
-0.0689735
-0.0689706
-0.0689668
-0.0689626
-0.0689575
-0.078735
-0.0787318
-0.0787295
-0.0787282
-0.0787284
-0.0787304
-0.0787344
-0.0787404
-0.0787483
-0.0787579
-0.0787688
-0.0787807
-0.078793
-0.0788055
-0.0788177
-0.0788293
-0.0788402
-0.0788501
-0.0788589
-0.0788666
-0.078873
-0.0788782
-0.0788822
-0.0788852
-0.0788872
-0.0788884
-0.0788887
-0.0788883
-0.0788874
-0.0788859
-0.078884
-0.0788817
-0.0788791
-0.0788763
-0.0788733
-0.0788702
-0.078867
-0.0788637
-0.0788605
-0.0788572
-0.078854
-0.0788508
-0.0788476
-0.0788445
-0.0788415
-0.0788386
-0.0788357
-0.0788329
-0.0788302
-0.0788276
-0.0788251
-0.0788227
-0.0788203
-0.078818
-0.0788159
-0.0788137
-0.0788117
-0.0788098
-0.0788079
-0.0788062
-0.0788045
-0.0788028
-0.0788013
-0.0787999
-0.0787985
-0.0787972
-0.0787961
-0.078795
-0.0787939
-0.078793
-0.0787922
-0.0787914
-0.0787907
-0.0787901
-0.0787896
-0.0787892
-0.0787889
-0.0787887
-0.0787886
-0.0787885
-0.0787886
-0.0787888
-0.0787892
-0.0787897
-0.0787903
-0.078791
-0.0787919
-0.078793
-0.0787941
-0.0787953
-0.0787963
-0.0787971
-0.0787974
-0.078797
-0.0787957
-0.0787933
-0.0787901
-0.0787863
-0.0787822
-0.0787776
-0.0885739
-0.0885706
-0.0885683
-0.088567
-0.0885674
-0.0885695
-0.0885738
-0.0885801
-0.0885883
-0.0885982
-0.0886093
-0.0886213
-0.0886336
-0.0886459
-0.0886579
-0.0886692
-0.0886797
-0.0886891
-0.0886973
-0.0887044
-0.0887102
-0.0887147
-0.0887181
-0.0887205
-0.0887219
-0.0887224
-0.0887221
-0.0887212
-0.0887197
-0.0887177
-0.0887153
-0.0887126
-0.0887096
-0.0887064
-0.088703
-0.0886996
-0.0886961
-0.0886925
-0.088689
-0.0886855
-0.088682
-0.0886787
-0.0886753
-0.0886721
-0.088669
-0.0886659
-0.088663
-0.0886601
-0.0886573
-0.0886547
-0.0886521
-0.0886496
-0.0886472
-0.0886449
-0.0886427
-0.0886406
-0.0886386
-0.0886366
-0.0886348
-0.088633
-0.0886313
-0.0886297
-0.0886282
-0.0886267
-0.0886253
-0.0886241
-0.0886228
-0.0886217
-0.0886207
-0.0886197
-0.0886188
-0.088618
-0.0886173
-0.0886167
-0.0886161
-0.0886156
-0.0886152
-0.0886149
-0.0886147
-0.0886145
-0.0886145
-0.0886145
-0.0886147
-0.0886149
-0.0886153
-0.0886157
-0.0886163
-0.088617
-0.0886177
-0.0886184
-0.088619
-0.0886193
-0.0886191
-0.0886183
-0.0886166
-0.088614
-0.0886107
-0.0886069
-0.0886031
-0.088599
-0.0984121
-0.0984088
-0.0984065
-0.0984053
-0.0984058
-0.0984083
-0.0984128
-0.0984195
-0.0984281
-0.0984382
-0.0984495
-0.0984615
-0.0984738
-0.098486
-0.0984977
-0.0985086
-0.0985185
-0.0985274
-0.098535
-0.0985414
-0.0985465
-0.0985505
-0.0985532
-0.0985549
-0.0985557
-0.0985556
-0.0985548
-0.0985533
-0.0985513
-0.0985489
-0.098546
-0.0985429
-0.0985395
-0.0985359
-0.0985322
-0.0985285
-0.0985247
-0.0985209
-0.0985171
-0.0985134
-0.0985097
-0.0985062
-0.0985027
-0.0984993
-0.098496
-0.0984929
-0.0984898
-0.0984869
-0.0984841
-0.0984813
-0.0984787
-0.0984762
-0.0984738
-0.0984715
-0.0984693
-0.0984671
-0.0984651
-0.0984631
-0.0984613
-0.0984595
-0.0984578
-0.0984562
-0.0984546
-0.0984532
-0.0984518
-0.0984505
-0.0984493
-0.0984481
-0.0984471
-0.0984461
-0.0984452
-0.0984443
-0.0984436
-0.0984429
-0.0984422
-0.0984417
-0.0984412
-0.0984408
-0.0984405
-0.0984402
-0.09844
-0.0984399
-0.0984399
-0.0984399
-0.09844
-0.0984402
-0.0984405
-0.0984409
-0.0984412
-0.0984416
-0.0984418
-0.0984417
-0.0984411
-0.0984399
-0.098438
-0.0984353
-0.098432
-0.0984284
-0.0984249
-0.0984212
-0.10825
-0.108246
-0.108244
-0.108243
-0.108244
-0.108247
-0.108251
-0.108258
-0.108267
-0.108278
-0.108289
-0.108301
-0.108313
-0.108325
-0.108337
-0.108347
-0.108356
-0.108365
-0.108372
-0.108377
-0.108382
-0.108385
-0.108387
-0.108388
-0.108388
-0.108388
-0.108386
-0.108384
-0.108382
-0.108379
-0.108376
-0.108372
-0.108369
-0.108365
-0.108361
-0.108357
-0.108353
-0.108349
-0.108345
-0.108341
-0.108337
-0.108333
-0.10833
-0.108326
-0.108323
-0.108319
-0.108316
-0.108313
-0.10831
-0.108308
-0.108305
-0.108302
-0.1083
-0.108298
-0.108295
-0.108293
-0.108291
-0.108289
-0.108287
-0.108286
-0.108284
-0.108282
-0.108281
-0.108279
-0.108278
-0.108277
-0.108275
-0.108274
-0.108273
-0.108272
-0.108271
-0.10827
-0.108269
-0.108269
-0.108268
-0.108267
-0.108267
-0.108266
-0.108266
-0.108266
-0.108265
-0.108265
-0.108265
-0.108265
-0.108265
-0.108265
-0.108265
-0.108265
-0.108265
-0.108265
-0.108265
-0.108264
-0.108263
-0.108262
-0.10826
-0.108257
-0.108254
-0.108251
-0.108247
-0.108244
-0.118087
-0.118083
-0.118081
-0.11808
-0.118081
-0.118084
-0.118089
-0.118097
-0.118106
-0.118117
-0.118128
-0.11814
-0.118152
-0.118164
-0.118175
-0.118185
-0.118193
-0.118201
-0.118207
-0.118212
-0.118216
-0.118218
-0.11822
-0.11822
-0.11822
-0.118219
-0.118217
-0.118214
-0.118212
-0.118208
-0.118205
-0.118201
-0.118197
-0.118193
-0.118189
-0.118184
-0.11818
-0.118176
-0.118172
-0.118168
-0.118164
-0.11816
-0.118156
-0.118152
-0.118149
-0.118146
-0.118142
-0.118139
-0.118136
-0.118133
-0.118131
-0.118128
-0.118126
-0.118123
-0.118121
-0.118119
-0.118117
-0.118115
-0.118113
-0.118111
-0.11811
-0.118108
-0.118106
-0.118105
-0.118104
-0.118102
-0.118101
-0.1181
-0.118099
-0.118098
-0.118097
-0.118096
-0.118095
-0.118094
-0.118094
-0.118093
-0.118092
-0.118092
-0.118091
-0.118091
-0.11809
-0.11809
-0.11809
-0.118089
-0.118089
-0.118089
-0.118089
-0.118088
-0.118088
-0.118088
-0.118087
-0.118087
-0.118086
-0.118084
-0.118082
-0.118079
-0.118076
-0.118073
-0.11807
-0.118067
-0.127922
-0.127919
-0.127917
-0.127916
-0.127918
-0.127921
-0.127927
-0.127935
-0.127944
-0.127955
-0.127966
-0.127978
-0.12799
-0.128001
-0.128011
-0.128021
-0.128029
-0.128035
-0.128041
-0.128045
-0.128048
-0.12805
-0.128051
-0.128051
-0.12805
-0.128048
-0.128046
-0.128043
-0.12804
-0.128036
-0.128032
-0.128028
-0.128024
-0.12802
-0.128015
-0.128011
-0.128007
-0.128002
-0.127998
-0.127994
-0.12799
-0.127986
-0.127982
-0.127978
-0.127975
-0.127971
-0.127968
-0.127965
-0.127962
-0.127959
-0.127956
-0.127954
-0.127951
-0.127949
-0.127946
-0.127944
-0.127942
-0.12794
-0.127938
-0.127937
-0.127935
-0.127933
-0.127932
-0.12793
-0.127929
-0.127928
-0.127926
-0.127925
-0.127924
-0.127923
-0.127922
-0.127921
-0.12792
-0.127919
-0.127919
-0.127918
-0.127917
-0.127917
-0.127916
-0.127915
-0.127915
-0.127914
-0.127914
-0.127914
-0.127913
-0.127913
-0.127912
-0.127912
-0.127912
-0.127911
-0.12791
-0.12791
-0.127908
-0.127907
-0.127904
-0.127902
-0.127899
-0.127896
-0.127893
-0.12789
-0.137758
-0.137754
-0.137752
-0.137752
-0.137753
-0.137757
-0.137763
-0.137771
-0.137781
-0.137792
-0.137804
-0.137815
-0.137826
-0.137837
-0.137847
-0.137855
-0.137862
-0.137868
-0.137873
-0.137877
-0.137879
-0.13788
-0.13788
-0.13788
-0.137878
-0.137876
-0.137873
-0.13787
-0.137867
-0.137863
-0.137859
-0.137855
-0.13785
-0.137846
-0.137841
-0.137837
-0.137832
-0.137828
-0.137823
-0.137819
-0.137815
-0.137811
-0.137807
-0.137803
-0.1378
-0.137796
-0.137793
-0.13779
-0.137787
-0.137784
-0.137781
-0.137778
-0.137776
-0.137774
-0.137771
-0.137769
-0.137767
-0.137765
-0.137763
-0.137762
-0.13776
-0.137758
-0.137757
-0.137755
-0.137754
-0.137753
-0.137751
-0.13775
-0.137749
-0.137748
-0.137747
-0.137746
-0.137745
-0.137744
-0.137743
-0.137743
-0.137742
-0.137741
-0.137741
-0.13774
-0.137739
-0.137739
-0.137738
-0.137738
-0.137737
-0.137737
-0.137736
-0.137736
-0.137735
-0.137734
-0.137733
-0.137732
-0.137731
-0.137729
-0.137727
-0.137724
-0.137722
-0.137719
-0.137716
-0.137714
-0.147592
-0.147588
-0.147586
-0.147586
-0.147588
-0.147592
-0.147599
-0.147607
-0.147617
-0.147628
-0.147639
-0.147651
-0.147661
-0.147671
-0.14768
-0.147688
-0.147694
-0.1477
-0.147703
-0.147706
-0.147708
-0.147708
-0.147708
-0.147707
-0.147705
-0.147703
-0.1477
-0.147696
-0.147692
-0.147688
-0.147684
-0.14768
-0.147675
-0.147671
-0.147666
-0.147662
-0.147657
-0.147653
-0.147648
-0.147644
-0.14764
-0.147636
-0.147632
-0.147628
-0.147624
-0.147621
-0.147617
-0.147614
-0.147611
-0.147608
-0.147606
-0.147603
-0.1476
-0.147598
-0.147596
-0.147594
-0.147592
-0.14759
-0.147588
-0.147586
-0.147584
-0.147583
-0.147581
-0.14758
-0.147579
-0.147577
-0.147576
-0.147575
-0.147574
-0.147573
-0.147572
-0.147571
-0.14757
-0.147569
-0.147568
-0.147567
-0.147566
-0.147566
-0.147565
-0.147564
-0.147564
-0.147563
-0.147562
-0.147562
-0.147561
-0.14756
-0.14756
-0.147559
-0.147558
-0.147558
-0.147557
-0.147555
-0.147554
-0.147552
-0.14755
-0.147547
-0.147545
-0.147542
-0.14754
-0.147537
-0.157425
-0.157421
-0.15742
-0.15742
-0.157422
-0.157426
-0.157433
-0.157442
-0.157452
-0.157463
-0.157474
-0.157484
-0.157495
-0.157504
-0.157512
-0.157519
-0.157525
-0.157529
-0.157532
-0.157534
-0.157535
-0.157535
-0.157534
-0.157532
-0.15753
-0.157527
-0.157524
-0.157521
-0.157517
-0.157513
-0.157508
-0.157504
-0.157499
-0.157495
-0.15749
-0.157486
-0.157481
-0.157476
-0.157472
-0.157468
-0.157464
-0.15746
-0.157456
-0.157452
-0.157448
-0.157445
-0.157441
-0.157438
-0.157435
-0.157432
-0.15743
-0.157427
-0.157424
-0.157422
-0.15742
-0.157418
-0.157416
-0.157414
-0.157412
-0.15741
-0.157409
-0.157407
-0.157406
-0.157404
-0.157403
-0.157402
-0.1574
-0.157399
-0.157398
-0.157397
-0.157396
-0.157395
-0.157394
-0.157393
-0.157392
-0.157391
-0.157391
-0.15739
-0.157389
-0.157388
-0.157388
-0.157387
-0.157386
-0.157386
-0.157385
-0.157384
-0.157383
-0.157383
-0.157382
-0.157381
-0.15738
-0.157378
-0.157377
-0.157375
-0.157373
-0.15737
-0.157368
-0.157365
-0.157363
-0.157361
-0.167257
-0.167253
-0.167252
-0.167252
-0.167255
-0.167259
-0.167266
-0.167275
-0.167285
-0.167296
-0.167306
-0.167317
-0.167326
-0.167335
-0.167342
-0.167348
-0.167353
-0.167356
-0.167358
-0.16736
-0.16736
-0.167359
-0.167358
-0.167356
-0.167354
-0.167351
-0.167347
-0.167344
-0.16734
-0.167335
-0.167331
-0.167327
-0.167322
-0.167318
-0.167313
-0.167309
-0.167304
-0.1673
-0.167295
-0.167291
-0.167287
-0.167283
-0.167279
-0.167275
-0.167272
-0.167268
-0.167265
-0.167262
-0.167259
-0.167256
-0.167253
-0.167251
-0.167248
-0.167246
-0.167244
-0.167242
-0.16724
-0.167238
-0.167236
-0.167234
-0.167232
-0.167231
-0.167229
-0.167228
-0.167227
-0.167225
-0.167224
-0.167223
-0.167222
-0.167221
-0.16722
-0.167219
-0.167218
-0.167217
-0.167216
-0.167215
-0.167215
-0.167214
-0.167213
-0.167212
-0.167212
-0.167211
-0.16721
-0.167209
-0.167209
-0.167208
-0.167207
-0.167206
-0.167205
-0.167204
-0.167203
-0.167201
-0.1672
-0.167198
-0.167196
-0.167193
-0.167191
-0.167189
-0.167187
-0.167185
-0.177087
-0.177084
-0.177083
-0.177083
-0.177086
-0.177091
-0.177098
-0.177107
-0.177117
-0.177127
-0.177137
-0.177147
-0.177156
-0.177163
-0.17717
-0.177175
-0.177179
-0.177181
-0.177183
-0.177184
-0.177183
-0.177182
-0.177181
-0.177179
-0.177176
-0.177173
-0.177169
-0.177165
-0.177161
-0.177157
-0.177153
-0.177149
-0.177144
-0.17714
-0.177135
-0.177131
-0.177126
-0.177122
-0.177118
-0.177114
-0.17711
-0.177106
-0.177102
-0.177098
-0.177095
-0.177091
-0.177088
-0.177085
-0.177082
-0.177079
-0.177076
-0.177074
-0.177071
-0.177069
-0.177067
-0.177065
-0.177063
-0.177061
-0.177059
-0.177058
-0.177056
-0.177054
-0.177053
-0.177052
-0.17705
-0.177049
-0.177048
-0.177047
-0.177046
-0.177045
-0.177044
-0.177043
-0.177042
-0.177041
-0.17704
-0.177039
-0.177038
-0.177037
-0.177037
-0.177036
-0.177035
-0.177034
-0.177034
-0.177033
-0.177032
-0.177031
-0.17703
-0.177029
-0.177028
-0.177027
-0.177026
-0.177025
-0.177023
-0.177021
-0.177019
-0.177016
-0.177014
-0.177012
-0.17701
-0.177008
-0.186917
-0.186914
-0.186913
-0.186913
-0.186916
-0.186922
-0.186929
-0.186937
-0.186947
-0.186957
-0.186966
-0.186975
-0.186983
-0.18699
-0.186996
-0.187
-0.187003
-0.187005
-0.187006
-0.187006
-0.187005
-0.187004
-0.187002
-0.186999
-0.186997
-0.186993
-0.18699
-0.186986
-0.186982
-0.186978
-0.186974
-0.186969
-0.186965
-0.186961
-0.186956
-0.186952
-0.186948
-0.186944
-0.18694
-0.186936
-0.186932
-0.186928
-0.186924
-0.186921
-0.186917
-0.186914
-0.186911
-0.186908
-0.186905
-0.186902
-0.186899
-0.186897
-0.186894
-0.186892
-0.18689
-0.186888
-0.186886
-0.186884
-0.186882
-0.186881
-0.186879
-0.186878
-0.186876
-0.186875
-0.186874
-0.186872
-0.186871
-0.18687
-0.186869
-0.186868
-0.186867
-0.186866
-0.186865
-0.186864
-0.186863
-0.186862
-0.186862
-0.186861
-0.18686
-0.186859
-0.186859
-0.186858
-0.186857
-0.186856
-0.186855
-0.186855
-0.186854
-0.186853
-0.186852
-0.186851
-0.186849
-0.186848
-0.186846
-0.186844
-0.186842
-0.18684
-0.186837
-0.186835
-0.186833
-0.186832
-0.196745
-0.196742
-0.196741
-0.196742
-0.196745
-0.196751
-0.196758
-0.196766
-0.196775
-0.196785
-0.196793
-0.196802
-0.196809
-0.196815
-0.196819
-0.196823
-0.196825
-0.196826
-0.196827
-0.196826
-0.196825
-0.196824
-0.196822
-0.196819
-0.196816
-0.196813
-0.196809
-0.196806
-0.196802
-0.196798
-0.196794
-0.19679
-0.196785
-0.196781
-0.196777
-0.196773
-0.196769
-0.196765
-0.196761
-0.196757
-0.196753
-0.19675
-0.196746
-0.196742
-0.196739
-0.196736
-0.196733
-0.19673
-0.196727
-0.196724
-0.196722
-0.196719
-0.196717
-0.196715
-0.196713
-0.196711
-0.196709
-0.196707
-0.196705
-0.196704
-0.196702
-0.196701
-0.196699
-0.196698
-0.196697
-0.196695
-0.196694
-0.196693
-0.196692
-0.196691
-0.19669
-0.196689
-0.196688
-0.196687
-0.196686
-0.196686
-0.196685
-0.196684
-0.196683
-0.196683
-0.196682
-0.196681
-0.19668
-0.19668
-0.196679
-0.196678
-0.196677
-0.196676
-0.196675
-0.196674
-0.196672
-0.196671
-0.196669
-0.196667
-0.196665
-0.196663
-0.19666
-0.196658
-0.196657
-0.196655
-0.206572
-0.206569
-0.206568
-0.20657
-0.206573
-0.206578
-0.206585
-0.206593
-0.206602
-0.206611
-0.206619
-0.206626
-0.206632
-0.206637
-0.206641
-0.206644
-0.206646
-0.206646
-0.206646
-0.206645
-0.206644
-0.206642
-0.20664
-0.206637
-0.206634
-0.206631
-0.206628
-0.206624
-0.206621
-0.206617
-0.206613
-0.206609
-0.206605
-0.206601
-0.206597
-0.206593
-0.206589
-0.206585
-0.206582
-0.206578
-0.206574
-0.206571
-0.206567
-0.206564
-0.206561
-0.206558
-0.206555
-0.206552
-0.206549
-0.206546
-0.206544
-0.206542
-0.206539
-0.206537
-0.206535
-0.206533
-0.206531
-0.20653
-0.206528
-0.206526
-0.206525
-0.206523
-0.206522
-0.206521
-0.206519
-0.206518
-0.206517
-0.206516
-0.206515
-0.206514
-0.206513
-0.206512
-0.206511
-0.20651
-0.206509
-0.206509
-0.206508
-0.206507
-0.206506
-0.206506
-0.206505
-0.206504
-0.206503
-0.206503
-0.206502
-0.206501
-0.2065
-0.206499
-0.206498
-0.206497
-0.206495
-0.206494
-0.206492
-0.20649
-0.206488
-0.206486
-0.206483
-0.206481
-0.20648
-0.206478
-0.216397
-0.216395
-0.216394
-0.216396
-0.216399
-0.216404
-0.216411
-0.216419
-0.216427
-0.216435
-0.216442
-0.216449
-0.216454
-0.216458
-0.216462
-0.216464
-0.216465
-0.216465
-0.216464
-0.216463
-0.216462
-0.21646
-0.216457
-0.216455
-0.216452
-0.216449
-0.216446
-0.216442
-0.216439
-0.216435
-0.216431
-0.216428
-0.216424
-0.21642
-0.216416
-0.216413
-0.216409
-0.216405
-0.216402
-0.216398
-0.216395
-0.216391
-0.216388
-0.216385
-0.216382
-0.216379
-0.216376
-0.216373
-0.216371
-0.216368
-0.216366
-0.216364
-0.216361
-0.216359
-0.216357
-0.216355
-0.216354
-0.216352
-0.21635
-0.216349
-0.216347
-0.216346
-0.216344
-0.216343
-0.216342
-0.216341
-0.21634
-0.216338
-0.216337
-0.216336
-0.216335
-0.216335
-0.216334
-0.216333
-0.216332
-0.216331
-0.21633
-0.21633
-0.216329
-0.216328
-0.216328
-0.216327
-0.216326
-0.216325
-0.216325
-0.216324
-0.216323
-0.216322
-0.216321
-0.21632
-0.216318
-0.216317
-0.216315
-0.216313
-0.216311
-0.216308
-0.216306
-0.216304
-0.216303
-0.216301
-0.226222
-0.22622
-0.226219
-0.22622
-0.226224
-0.226229
-0.226235
-0.226243
-0.22625
-0.226258
-0.226264
-0.22627
-0.226274
-0.226278
-0.22628
-0.226282
-0.226282
-0.226282
-0.226281
-0.22628
-0.226278
-0.226276
-0.226274
-0.226271
-0.226269
-0.226266
-0.226263
-0.226259
-0.226256
-0.226253
-0.226249
-0.226246
-0.226242
-0.226239
-0.226235
-0.226232
-0.226228
-0.226225
-0.226222
-0.226218
-0.226215
-0.226212
-0.226209
-0.226206
-0.226203
-0.2262
-0.226197
-0.226195
-0.226192
-0.22619
-0.226187
-0.226185
-0.226183
-0.226181
-0.226179
-0.226177
-0.226176
-0.226174
-0.226172
-0.226171
-0.226169
-0.226168
-0.226167
-0.226165
-0.226164
-0.226163
-0.226162
-0.226161
-0.22616
-0.226159
-0.226158
-0.226157
-0.226156
-0.226155
-0.226154
-0.226154
-0.226153
-0.226152
-0.226151
-0.226151
-0.22615
-0.226149
-0.226149
-0.226148
-0.226147
-0.226147
-0.226146
-0.226145
-0.226144
-0.226142
-0.226141
-0.226139
-0.226138
-0.226136
-0.226133
-0.226131
-0.226129
-0.226127
-0.226126
-0.226124
-0.236045
-0.236043
-0.236042
-0.236044
-0.236047
-0.236052
-0.236058
-0.236065
-0.236072
-0.236079
-0.236084
-0.236089
-0.236093
-0.236096
-0.236098
-0.236099
-0.236099
-0.236098
-0.236097
-0.236096
-0.236094
-0.236092
-0.23609
-0.236087
-0.236085
-0.236082
-0.236079
-0.236076
-0.236073
-0.23607
-0.236067
-0.236064
-0.23606
-0.236057
-0.236054
-0.236051
-0.236047
-0.236044
-0.236041
-0.236038
-0.236035
-0.236032
-0.236029
-0.236026
-0.236023
-0.236021
-0.236018
-0.236016
-0.236013
-0.236011
-0.236009
-0.236007
-0.236004
-0.236003
-0.236001
-0.235999
-0.235997
-0.235996
-0.235994
-0.235993
-0.235991
-0.23599
-0.235988
-0.235987
-0.235986
-0.235985
-0.235984
-0.235983
-0.235982
-0.235981
-0.23598
-0.235979
-0.235978
-0.235977
-0.235976
-0.235976
-0.235975
-0.235974
-0.235974
-0.235973
-0.235972
-0.235972
-0.235971
-0.23597
-0.23597
-0.235969
-0.235968
-0.235967
-0.235966
-0.235965
-0.235964
-0.235962
-0.23596
-0.235958
-0.235956
-0.235954
-0.235952
-0.23595
-0.235948
-0.235947
-0.245867
-0.245865
-0.245865
-0.245866
-0.245869
-0.245874
-0.24588
-0.245886
-0.245892
-0.245898
-0.245903
-0.245907
-0.24591
-0.245913
-0.245914
-0.245914
-0.245914
-0.245913
-0.245912
-0.245911
-0.245909
-0.245907
-0.245905
-0.245903
-0.2459
-0.245898
-0.245895
-0.245893
-0.24589
-0.245887
-0.245884
-0.245881
-0.245878
-0.245875
-0.245872
-0.245869
-0.245866
-0.245863
-0.24586
-0.245857
-0.245854
-0.245851
-0.245849
-0.245846
-0.245844
-0.245841
-0.245839
-0.245836
-0.245834
-0.245832
-0.24583
-0.245828
-0.245826
-0.245824
-0.245822
-0.24582
-0.245819
-0.245817
-0.245816
-0.245814
-0.245813
-0.245811
-0.24581
-0.245809
-0.245808
-0.245807
-0.245806
-0.245805
-0.245804
-0.245803
-0.245802
-0.245801
-0.2458
-0.245799
-0.245798
-0.245798
-0.245797
-0.245796
-0.245796
-0.245795
-0.245794
-0.245794
-0.245793
-0.245793
-0.245792
-0.245791
-0.24579
-0.245789
-0.245788
-0.245787
-0.245786
-0.245784
-0.245782
-0.24578
-0.245778
-0.245776
-0.245774
-0.245772
-0.245771
-0.245769
-0.255687
-0.255686
-0.255686
-0.255687
-0.25569
-0.255695
-0.2557
-0.255706
-0.255711
-0.255716
-0.255721
-0.255724
-0.255727
-0.255728
-0.255729
-0.255729
-0.255729
-0.255728
-0.255727
-0.255725
-0.255724
-0.255722
-0.25572
-0.255718
-0.255716
-0.255714
-0.255711
-0.255709
-0.255706
-0.255703
-0.255701
-0.255698
-0.255695
-0.255692
-0.25569
-0.255687
-0.255684
-0.255681
-0.255679
-0.255676
-0.255673
-0.255671
-0.255668
-0.255666
-0.255663
-0.255661
-0.255659
-0.255657
-0.255654
-0.255652
-0.25565
-0.255648
-0.255647
-0.255645
-0.255643
-0.255641
-0.25564
-0.255638
-0.255637
-0.255635
-0.255634
-0.255633
-0.255632
-0.25563
-0.255629
-0.255628
-0.255627
-0.255626
-0.255625
-0.255624
-0.255623
-0.255622
-0.255621
-0.255621
-0.25562
-0.255619
-0.255618
-0.255618
-0.255617
-0.255617
-0.255616
-0.255615
-0.255615
-0.255614
-0.255614
-0.255613
-0.255612
-0.255611
-0.25561
-0.255609
-0.255608
-0.255606
-0.255604
-0.255602
-0.2556
-0.255598
-0.255596
-0.255594
-0.255593
-0.255592
-0.265507
-0.265506
-0.265506
-0.265507
-0.26551
-0.265514
-0.265519
-0.265524
-0.265529
-0.265533
-0.265537
-0.26554
-0.265542
-0.265543
-0.265543
-0.265543
-0.265542
-0.265542
-0.265541
-0.265539
-0.265538
-0.265536
-0.265535
-0.265533
-0.265531
-0.265529
-0.265527
-0.265524
-0.265522
-0.26552
-0.265517
-0.265515
-0.265512
-0.26551
-0.265507
-0.265505
-0.265502
-0.2655
-0.265497
-0.265495
-0.265492
-0.26549
-0.265488
-0.265485
-0.265483
-0.265481
-0.265479
-0.265477
-0.265475
-0.265473
-0.265471
-0.265469
-0.265467
-0.265465
-0.265464
-0.265462
-0.265461
-0.265459
-0.265458
-0.265456
-0.265455
-0.265454
-0.265453
-0.265451
-0.26545
-0.265449
-0.265448
-0.265447
-0.265446
-0.265445
-0.265444
-0.265443
-0.265443
-0.265442
-0.265441
-0.26544
-0.26544
-0.265439
-0.265438
-0.265438
-0.265437
-0.265437
-0.265436
-0.265436
-0.265435
-0.265435
-0.265434
-0.265433
-0.265432
-0.265431
-0.265429
-0.265428
-0.265426
-0.265424
-0.265422
-0.26542
-0.265418
-0.265416
-0.265415
-0.265414
-0.275326
-0.275324
-0.275324
-0.275326
-0.275328
-0.275332
-0.275337
-0.275341
-0.275345
-0.275349
-0.275352
-0.275355
-0.275356
-0.275357
-0.275357
-0.275357
-0.275356
-0.275355
-0.275354
-0.275353
-0.275352
-0.275351
-0.275349
-0.275348
-0.275346
-0.275344
-0.275342
-0.27534