/*--------------------------------*- C++ -*----------------------------------*\
  =========                 |
  \\      /  F ield         | OpenFOAM: The Open Source CFD Toolbox
   \\    /   O peration     | Website:  https://openfoam.org
    \\  /    A nd           | Version:  6
     \\/     M anipulation  |
\*---------------------------------------------------------------------------*/
FoamFile
{
    version     2.0;
    format      ascii;
    class       volScalarField;
    location    "0";
    object      p;
}
// * * * * * * * * * * * * * * * * * * * * * * * * * * * * * * * * * * * * * //

dimensions      [0 2 -2 0 0 0 0];

internalField   nonuniform List<scalar> 
13046
(
0.504926
0.490399
0.550098
0.503357
0.538922
0.507182
0.492043
0.509443
0.547276
0.396847
0.39899
0.562168
0.492994
0.482326
0.551177
0.430798
0.563672
0.396219
0.531884
0.526973
0.498005
0.424937
0.564003
0.398287
0.506314
0.507555
0.539729
0.489239
0.479261
0.556468
0.511207
0.479864
0.546788
0.514477
0.536741
0.505506
0.512655
0.536252
0.511983
0.52389
0.546048
0.463736
0.51392
0.528654
0.519673
0.509513
0.525325
0.524578
0.496979
0.492678
0.551167
0.53546
0.537894
0.436696
0.540168
0.426786
0.54348
0.408679
0.487318
0.561972
0.452575
0.492252
0.5558
0.561212
0.435542
0.431165
0.496439
0.40814
0.559071
0.501419
0.411623
0.557695
0.401904
0.483559
0.562548
0.532292
0.535334
0.488538
0.565383
0.467286
0.405595
0.501177
0.507501
0.540947
0.561511
0.42855
0.423477
0.40968
0.561171
0.459706
0.560747
0.381478
0.474053
0.466994
0.457681
0.462181
0.460218
0.558112
0.561279
0.561782
0.407118
0.468397
0.507058
0.529862
0.521317
0.547243
0.44314
0.534131
0.532221
0.543273
0.447651
0.363833
0.561451
0.364985
0.495904
0.489255
0.546974
0.465281
0.469466
0.442676
0.561112
0.453209
0.559478
0.391315
0.387802
0.562737
0.482795
0.46215
0.55969
0.519373
0.547301
0.464927
0.558132
0.387137
0.485575
0.441501
0.457638
0.560428
0.50753
0.47682
0.547949
0.467722
0.516962
0.54752
0.533859
0.537829
0.446617
0.54398
0.452147
0.535357
0.452095
0.483002
0.555922
0.547351
0.472408
0.524502
0.525894
0.424369
0.519753
0.422699
0.549761
0.552652
0.464823
0.513277
0.544097
0.391639
0.561833
0.408177
0.37641
0.561323
0.372381
0.4401
0.448949
0.562311
0.521747
0.442683
0.552491
0.466221
0.541296
0.51838
0.564088
0.425127
0.38891
0.522451
0.45066
0.547211
0.547206
0.465234
0.525205
0.474013
0.516219
0.543979
0.481813
0.555813
0.484245
0.471576
0.555519
0.411857
0.560896
0.441713
0.55977
0.401172
0.480376
0.389118
0.466681
0.55842
0.538255
0.418734
0.536715
0.483385
0.470842
0.565068
0.40123
0.452508
0.387407
0.56167
0.505913
0.536767
0.515594
0.495386
0.478551
0.555265
0.560385
0.394442
0.487102
0.478362
0.488426
0.556606
0.562328
0.393029
0.372942
0.539677
0.417618
0.534593
0.397428
0.472966
0.559339
0.441461
0.517516
0.551562
0.483034
0.461618
0.560424
0.505601
0.39584
0.553969
0.414056
0.516957
0.551892
0.561716
0.397243
0.363322
0.532426
0.548617
0.442278
0.382012
0.5607
0.340172
0.531958
0.499883
0.522728
0.449078
0.449331
0.510002
0.515917
0.552066
0.549222
0.562597
0.460382
0.399499
0.490949
0.463472
0.556581
0.412672
0.506022
0.55605
0.452405
0.45119
0.560883
0.519451
0.513271
0.529543
0.432696
0.513941
0.552448
0.493793
0.452995
0.557846
0.481325
0.478283
0.535182
0.546811
0.435011
0.431818
0.50616
0.553705
0.442833
0.561655
0.451041
0.537776
0.539391
0.453847
0.550861
0.417736
0.524858
0.479431
0.43839
0.55866
0.537009
0.538571
0.434766
0.473155
0.466843
0.435155
0.560097
0.434766
0.562602
0.563009
0.428061
0.397388
0.475353
0.455699
0.560255
0.330314
0.561294
0.349468
0.487051
0.535018
0.521597
0.460504
0.494438
0.554246
0.561566
0.420766
0.448647
0.540088
0.418291
0.544033
0.496991
0.396071
0.55664
0.500047
0.551618
0.461505
0.484241
0.557194
0.498635
0.550228
0.439642
0.562612
0.403428
0.544109
0.410904
0.537937
0.455478
0.481779
0.557571
0.463003
0.514557
0.550374
0.445122
0.531235
0.542879
0.502357
0.497215
0.546105
0.544808
0.419529
0.529111
0.402506
0.451917
0.559848
0.498305
0.397959
0.557794
0.508518
0.553916
0.419042
0.469868
0.474715
0.42364
0.416846
0.560233
0.560236
0.560534
0.336933
0.358838
0.38919
0.561381
0.345048
0.444238
0.507434
0.549041
0.560619
0.410298
0.431619
0.493077
0.488241
0.42875
0.426204
0.560225
0.559855
0.558968
0.447539
0.368808
0.377729
0.5613
0.326609
0.501052
0.526658
0.530646
0.367519
0.348323
0.561008
0.514429
0.446333
0.551888
0.38885
0.431611
0.563773
0.349992
0.560271
0.320525
0.525806
0.541922
0.469989
0.490778
0.526444
0.536681
0.398063
0.563443
0.380661
0.484889
0.525105
0.538505
0.50602
0.526083
0.528966
0.546239
0.407642
0.537343
0.481835
0.536625
0.532248
0.48879
0.524004
0.531498
0.514312
0.41997
0.552494
0.565044
0.565033
0.403045
0.4056
0.411899
0.407076
0.392359
0.450737
0.560661
0.55928
0.507926
0.408413
0.52506
0.544919
0.451911
0.408613
0.517383
0.549105
0.386092
0.560482
0.328822
0.561424
0.3811
0.466392
0.378774
0.562306
0.383051
0.559202
0.338895
0.320802
0.315258
0.558936
0.34011
0.495248
0.431903
0.554371
0.427864
0.559343
0.35043
0.432433
0.461973
0.560889
0.426419
0.562762
0.370973
0.489728
0.548242
0.502816
0.454225
0.560311
0.373473
0.411003
0.547684
0.520401
0.501272
0.414831
0.557783
0.557708
0.286147
0.299973
0.349161
0.561531
0.336379
0.495773
0.546464
0.502032
0.441224
0.371611
0.559952
0.56126
0.35913
0.444415
0.414025
0.561633
0.429335
0.563214
0.41091
0.4503
0.52153
0.411943
0.554871
0.418379
0.483573
0.563331
0.564223
0.448493
0.387638
0.504071
0.500762
0.457698
0.452564
0.554206
0.556788
0.509943
0.455929
0.553021
0.499972
0.419479
0.56212
0.499803
0.40614
0.556436
0.446109
0.389198
0.563953
0.556971
0.409999
0.486656
0.313152
0.559197
0.350283
0.521312
0.51617
0.546768
0.473293
0.54775
0.479934
0.509006
0.508432
0.555115
0.427004
0.557633
0.436854
0.357736
0.559925
0.320569
0.4431
0.378481
0.560318
0.527533
0.543705
0.436635
0.510623
0.401181
0.553318
0.563076
0.411555
0.456701
0.373355
0.352813
0.561117
0.386727
0.354067
0.561463
0.486065
0.434333
0.561987
0.538993
0.534042
0.460354
0.409586
0.561872
0.417327
0.49438
0.422878
0.558915
0.563236
0.436782
0.440544
0.513523
0.555816
0.434968
0.443666
0.522044
0.546804
0.528127
0.545084
0.456588
0.56239
0.418457
0.399447
0.456112
0.442179
0.561918
0.525354
0.542303
0.474983
0.440927
0.564153
0.379854
0.505079
0.472071
0.552616
0.479084
0.515153
0.545133
0.503676
0.422267
0.554371
0.402752
0.562806
0.354542
0.411282
0.563065
0.355208
0.563584
0.429208
0.443531
0.433567
0.529182
0.545179
0.56253
0.342083
0.392859
0.560549
0.455418
0.425196
0.55889
0.329925
0.312096
0.333452
0.302121
0.559532
0.564542
0.396474
0.446877
0.562375
0.4068
0.381973
0.424677
0.428884
0.561428
0.407348
0.561902
0.4183
0.418847
0.464452
0.560515
0.556064
0.517356
0.397787
0.51663
0.541707
0.490119
0.41831
0.476536
0.559968
0.559287
0.418912
0.482222
0.457474
0.563895
0.387119
0.50804
0.419948
0.558828
0.510432
0.442948
0.551814
0.437953
0.486182
0.560064
0.432609
0.486304
0.559483
0.526251
0.535883
0.483792
0.501634
0.444052
0.559996
0.561113
0.461601
0.369363
0.346196
0.56125
0.395097
0.335904
0.560399
0.399562
0.51824
0.550375
0.458155
0.368093
0.560222
0.34131
0.452248
0.562723
0.431238
0.561139
0.373898
0.32862
0.50366
0.536701
0.512927
0.477712
0.482509
0.555353
0.53069
0.436173
0.543645
0.559281
0.432771
0.358824
0.494328
0.422567
0.557393
0.563102
0.432861
0.381302
0.468047
0.479569
0.560037
0.517815
0.54122
0.493584
0.426042
0.367133
0.561829
0.563062
0.443938
0.428801
0.395132
0.387666
0.561263
0.561329
0.36997
0.36243
0.457651
0.50787
0.552708
0.49898
0.437335
0.551898
0.485652
0.511199
0.54859
0.408511
0.35254
0.413814
0.561886
0.349381
0.560892
0.454972
0.466944
0.561632
0.369292
0.36189
0.417961
0.410803
0.561748
0.560575
0.436033
0.505485
0.557683
0.471751
0.496381
0.553493
0.41757
0.563962
0.368841
0.464993
0.497515
0.552366
0.482904
0.504849
0.546645
0.399506
0.562609
0.365805
0.473129
0.466008
0.556292
0.529798
0.403127
0.548393
0.518286
0.425223
0.554555
0.494026
0.557134
0.385756
0.558634
0.29969
0.310707
0.46381
0.491041
0.554893
0.419127
0.56194
0.388701
0.549575
0.410344
0.529814
0.352566
0.5609
0.317889
0.540254
0.537558
0.529192
0.467261
0.533127
0.460739
0.48605
0.515197
0.54332
0.529963
0.535767
0.537398
0.469867
0.538895
0.467091
0.469182
0.499885
0.554632
0.470286
0.504084
0.553783
0.560792
0.407619
0.338013
0.513352
0.461511
0.548972
0.379287
0.416737
0.562715
0.438867
0.433512
0.477349
0.470434
0.558457
0.558287
0.509165
0.472273
0.550189
0.496142
0.435985
0.557691
0.45169
0.480776
0.560413
0.51978
0.503294
0.533332
0.42647
0.477158
0.559576
0.517404
0.539896
0.489127
0.44458
0.498359
0.557175
0.492247
0.445636
0.557651
0.519684
0.522933
0.495521
0.539604
0.492833
0.538183
0.528523
0.531756
0.535521
0.484611
0.539943
0.472297
0.502594
0.497157
0.465015
0.46773
0.554585
0.553572
0.56257
0.416059
0.44977
0.54513
0.411066
0.53183
0.564358
0.56397
0.412316
0.420064
0.441614
0.436958
0.535801
0.544478
0.425015
0.51864
0.529643
0.512743
0.427409
0.46901
0.560027
0.519681
0.547056
0.468831
0.487978
0.445088
0.558568
0.464216
0.462612
0.417243
0.563771
0.425207
0.562711
0.446914
0.467215
0.559303
0.359933
0.329553
0.561152
0.545586
0.415718
0.531408
0.524223
0.524691
0.550883
0.416281
0.553974
0.420785
0.413002
0.491774
0.557481
0.500187
0.438009
0.557976
0.532996
0.544666
0.425774
0.52075
0.520774
0.547787
0.554954
0.437501
0.435852
0.520822
0.554001
0.426735
0.445712
0.473868
0.560107
0.522068
0.538152
0.489181
0.406063
0.561875
0.385727
0.532173
0.548067
0.420046
0.48795
0.480622
0.449187
0.446582
0.556826
0.561404
0.562376
0.391871
0.412071
0.41517
0.563624
0.3759
0.407157
0.562258
0.375956
0.454801
0.56315
0.424194
0.502125
0.445202
0.55693
0.493538
0.534342
0.558979
0.496759
0.555161
0.411836
0.544819
0.494802
0.512467
0.549523
0.54781
0.508769
0.499138
0.552603
0.531872
0.509827
0.491683
0.536418
0.53407
0.541722
0.534705
0.532654
0.549219
0.562984
0.56271
0.536263
0.558817
0.511549
0.540189
0.491115
0.515761
0.541539
0.540238
0.530663
0.521683
0.544408
0.558714
0.550169
0.499679
0.519766
0.533877
0.558149
0.52489
0.55065
0.542468
0.532943
0.53554
0.534684
0.509083
0.527575
0.560785
0.531158
0.511559
0.542688
0.514962
0.558508
0.544756
0.540428
0.53942
0.549904
0.527583
0.525944
0.562411
0.499516
0.542224
0.544799
0.53908
0.559785
0.550024
0.53992
0.51828
0.524728
0.523941
0.544113
0.520565
0.528177
0.530644
0.519846
0.546719
0.552799
0.534302
0.538766
0.507884
0.513134
0.533629
0.549697
0.532619
0.490432
0.534182
0.560338
0.513228
0.549481
0.562756
0.529652
0.502693
0.374849
0.523155
0.536362
0.502606
0.515811
0.546658
0.550552
0.545287
0.557857
0.509975
0.483306
0.507524
0.518116
0.524766
0.558168
0.551536
0.538153
0.514401
0.525866
0.521117
0.542633
0.53666
0.491812
0.515126
0.533414
0.533121
0.55796
0.553123
0.544983
0.539076
0.524531
0.513961
0.563592
0.470969
0.543139
0.517944
0.557971
0.509598
0.433282
0.485965
0.552201
0.526117
0.502466
0.520869
0.542617
0.504195
0.549191
0.529335
0.519696
0.547704
0.543677
0.509014
0.555281
0.519985
0.538323
0.508846
0.537886
0.500493
0.557991
0.548454
0.533827
0.545849
0.549543
0.55817
0.530697
0.522314
0.518684
0.545143
0.471201
0.512001
0.509185
0.56183
0.535711
0.553586
0.562765
0.536955
0.564461
0.559104
0.557455
0.507884
0.514604
0.512158
0.558245
0.511573
0.506308
0.462522
0.507211
0.534805
0.539791
0.539976
0.563613
0.547086
0.531576
0.552725
0.538878
0.559099
0.427412
0.544404
0.526118
0.517712
0.558321
0.561705
0.523863
0.535112
0.561972
0.539978
0.48439
0.521645
0.544223
0.558076
0.534919
0.510345
0.53999
0.547059
0.536761
0.533664
0.490097
0.455267
0.518067
0.525448
0.522296
0.516119
0.490322
0.550681
0.533675
0.516011
0.539122
0.514581
0.511405
0.542672
0.542465
0.50842
0.50708
0.481064
0.542338
0.523436
0.522718
0.538239
0.543703
0.512981
0.538223
0.531699
0.507809
0.518798
0.554321
0.535694
0.553695
0.559176
0.559086
0.506059
0.505646
0.534893
0.536749
0.510552
0.51924
0.54067
0.557246
0.549672
0.536528
0.50763
0.529419
0.530145
0.536828
0.540967
0.52006
0.538211
0.532319
0.449785
0.513075
0.522766
0.510353
0.527981
0.541975
0.539351
0.536439
0.544251
0.506396
0.532873
0.531009
0.537368
0.525489
0.53937
0.53855
0.511811
0.495578
0.535302
0.508328
0.503317
0.534803
0.438543
0.50582
0.555745
0.538934
0.51847
0.519137
0.516855
0.539578
0.488925
0.449507
0.507519
0.545829
0.534891
0.547747
0.407232
0.503986
0.557284
0.531769
0.48701
0.4938
0.508554
0.512446
0.505454
0.541145
0.545341
0.516252
0.51067
0.526028
0.526971
0.559702
0.475836
0.545983
0.542091
0.438617
0.520476
0.511104
0.515063
0.541757
0.541217
0.557661
0.531506
0.504737
0.533307
0.532292
0.564312
0.536893
0.558493
0.545762
0.530734
0.540276
0.535199
0.523969
0.511708
0.533802
0.498066
0.540148
0.537089
0.514718
0.509596
0.504957
0.50717
0.494315
0.554032
0.510699
0.524043
0.552802
0.550682
0.515051
0.506865
0.559351
0.516382
0.434383
0.53217
0.515904
0.510829
0.558176
0.533104
0.527085
0.550865
0.515321
0.538658
0.520881
0.539372
0.534407
0.528072
0.376661
0.509881
0.516574
0.517283
0.533824
0.532344
0.546652
0.560525
0.503407
0.522179
0.503055
0.471131
0.508013
0.55335
0.531246
0.518639
0.520203
0.539469
0.508055
0.493317
0.503706
0.516607
0.519675
0.563087
0.528741
0.537726
0.563048
0.552348
0.547357
0.560159
0.49047
0.525096
0.511054
0.562357
0.548373
0.553635
0.533465
0.529313
0.518547
0.54024
0.513688
0.472878
0.552796
0.533831
0.474645
0.508441
0.519131
0.509502
0.520379
0.533405
0.535891
0.505346
0.522743
0.510202
0.520967
0.512552
0.530608
0.486788
0.517142
0.556737
0.558586
0.546371
0.542998
0.540279
0.430769
0.545614
0.534392
0.499665
0.557533
0.420223
0.558125
0.524693
0.537147
0.530829
0.543492
0.540554
0.504192
0.56042
0.50089
0.556224
0.539337
0.518608
0.525029
0.492166
0.528393
0.558164
0.525275
0.563041
0.54202
0.509675
0.481805
0.544235
0.430059
0.542871
0.538545
0.511417
0.562237
0.464899
0.460496
0.55009
0.53656
0.557987
0.562521
0.528431
0.56391
0.562096
0.551609
0.554364
0.543876
0.507514
0.525806
0.535251
0.552455
0.52685
0.416989
0.560259
0.51887
0.527707
0.524325
0.558537
0.560538
0.530425
0.55286
0.537463
0.561621
0.508193
0.548486
0.522352
0.561787
0.562232
0.549637
0.524535
0.545965
0.511151
0.496946
0.535258
0.527918
0.538809
0.489471
0.42707
0.510294
0.529803
0.542963
0.533563
0.55935
0.526557
0.510003
0.539633
0.511315
0.558281
0.494471
0.521873
0.550693
0.555894
0.534696
0.561685
0.502236
0.534196
0.550716
0.518235
0.488995
0.535297
0.526798
0.542245
0.548121
0.526393
0.513604
0.53665
0.513617
0.505765
0.559049
0.561859
0.563025
0.490003
0.563344
0.560828
0.562073
0.512521
0.546071
0.541073
0.559615
0.542243
0.498538
0.513258
0.523942
0.411224
0.560862
0.532555
0.531211
0.54886
0.548203
0.53349
0.524405
0.56014
0.562365
0.555308
0.544667
0.526869
0.535063
0.546592
0.540129
0.524859
0.525629
0.528587
0.531656
0.538827
0.520945
0.555709
0.559711
0.508731
0.552779
0.518329
0.507063
0.520914
0.556908
0.533602
0.54293
0.536107
0.554751
0.537386
0.538681
0.563655
0.523757
0.511327
0.506438
0.508289
0.500828
0.369128
0.514031
0.510179
0.539816
0.509324
0.528216
0.537622
0.52136
0.511153
0.521833
0.52777
0.376748
0.561816
0.533839
0.538164
0.50938
0.532542
0.528002
0.498234
0.562295
0.516379
0.563829
0.528786
0.554212
0.487514
0.453469
0.525065
0.531463
0.533787
0.540244
0.454232
0.539967
0.533356
0.511378
0.499462
0.521852
0.526182
0.560677
0.49076
0.54307
0.550107
0.544074
0.51271
0.550292
0.511087
0.370441
0.537695
0.513651
0.501587
0.548886
0.546641
0.536151
0.543903
0.529093
0.564695
0.562159
0.532158
0.527876
0.561603
0.557853
0.545415
0.542432
0.536692
0.563849
0.518768
0.508326
0.557408
0.555565
0.561227
0.537938
0.530267
0.5201
0.546589
0.542004
0.347095
0.55811
0.537198
0.50821
0.533725
0.538301
0.560677
0.560479
0.541635
0.522311
0.549296
0.557212
0.547272
0.548532
0.554435
0.457726
0.509019
0.535859
0.510108
0.459765
0.513876
0.537549
0.549467
0.516537
0.534332
0.496824
0.519497
0.56024
0.531063
0.513031
0.509631
0.505497
0.535555
0.519667
0.520388
0.545755
0.539886
0.540525
0.502949
0.544081
0.523561
0.516708
0.5449
0.547636
0.549366
0.558771
0.512306
0.556265
0.510815
0.560116
0.556295
0.560073
0.55326
0.51023
0.509606
0.534142
0.504053
0.517102
0.519638
0.52123
0.504507
0.543889
0.541807
0.507613
0.55512
0.530023
0.53348
0.538454
0.544222
0.553833
0.543724
0.535754
0.510188
0.55473
0.491455
0.557559
0.5044
0.539319
0.557226
0.548841
0.561908
0.55277
0.539659
0.493421
0.511699
0.536172
0.52482
0.562927
0.495958
0.496199
0.533602
0.53595
0.527189
0.50868
0.543067
0.544547
0.541026
0.430922
0.527238
0.48573
0.500358
0.531615
0.533577
0.531432
0.522216
0.551358
0.507452
0.562887
0.53616
0.485172
0.544494
0.531285
0.555712
0.529903
0.520145
0.507658
0.522286
0.534521
0.558731
0.521202
0.536854
0.538054
0.553852
0.522203
0.535885
0.524128
0.560978
0.505008
0.506997
0.471232
0.550555
0.508382
0.523085
0.511984
0.51793
0.560449
0.533896
0.546263
0.554095
0.546097
0.480234
0.559813
0.500036
0.536631
0.545038
0.525773
0.511812
0.532582
0.528645
0.504227
0.526219
0.474426
0.510699
0.534333
0.477977
0.518773
0.555499
0.514247
0.509806
0.529585
0.558735
0.53223
0.504315
0.543718
0.514087
0.518798
0.537356
0.531228
0.541219
0.539016
0.562416
0.530078
0.549469
0.541007
0.555349
0.560176
0.559417
0.48286
0.522708
0.538055
0.504099
0.561433
0.556891
0.553335
0.53438
0.50629
0.507614
0.538774
0.550974
0.500523
0.553788
0.55233
0.54501
0.509749
0.504711
0.513037
0.486811
0.532712
0.501541
0.539615
0.521477
0.542876
0.511581
0.532748
0.5075
0.540984
0.543308
0.544169
0.531778
0.54015
0.5586
0.562185
0.534751
0.529669
0.549163
0.538762
0.518464
0.526608
0.538218
0.517258
0.561522
0.53369
0.538455
0.545614
0.548244
0.525239
0.47195
0.564975
0.533806
0.532218
0.53678
0.536999
0.548823
0.556954
0.533019
0.541727
0.504398
0.522389
0.529905
0.544718
0.539369
0.532391
0.53603
0.562238
0.541283
0.522681
0.556068
0.539096
0.510474
0.526493
0.565054
0.516117
0.505806
0.526004
0.565938
0.529642
0.536292
0.549197
0.552793
0.554294
0.537677
0.507767
0.542019
0.523564
0.530674
0.554243
0.532002
0.505803
0.500793
0.531292
0.542661
0.519469
0.509768
0.555322
0.535171
0.559341
0.552431
0.506473
0.502727
0.531531
0.551877
0.557369
0.532467
0.529669
0.482295
0.535074
0.527307
0.559475
0.557623
0.553765
0.509552
0.503725
0.543692
0.564404
0.560207
0.551602
0.554158
0.528526
0.529289
0.502016
0.505689
0.55518
0.538967
0.452581
0.51572
0.563142
0.535655
0.508816
0.509868
0.534755
0.526106
0.551225
0.539532
0.542936
0.556191
0.558081
0.527011
0.540887
0.532116
0.531666
0.512536
0.544318
0.527502
0.558641
0.4552
0.540194
0.440833
0.531797
0.558604
0.543771
0.552622
0.559084
0.556864
0.519325
0.533784
0.530543
0.492693
0.559849
0.540516
0.523357
0.539443
0.413367
0.515389
0.544542
0.542915
0.561921
0.504558
0.511959
0.534428
0.558782
0.459311
0.523501
0.530374
0.46913
0.504525
0.545197
0.504808
0.52986
0.508239
0.551081
0.562499
0.413166
0.540065
0.539825
0.519771
0.509098
0.534398
0.527447
0.534956
0.517666
0.536901
0.530121
0.527862
0.532106
0.554551
0.524184
0.505782
0.527434
0.503737
0.512041
0.530725
0.482441
0.527514
0.522699
0.537646
0.55257
0.539163
0.537063
0.449652
0.547248
0.527578
0.527859
0.564101
0.536138
0.537221
0.464269
0.454938
0.559579
0.51467
0.536191
0.543677
0.52422
0.549201
0.450465
0.553644
0.531715
0.550915
0.531249
0.534474
0.534213
0.511741
0.522598
0.530892
0.562321
0.502515
0.510863
0.520924
0.563018
0.559452
0.479045
0.528889
0.533565
0.543615
0.528441
0.560372
0.554232
0.553278
0.552563
0.537644
0.520528
0.505362
0.559653
0.523326
0.53425
0.481827
0.508773
0.518868
0.507485
0.559248
0.46552
0.555397
0.525756
0.558831
0.538415
0.559523
0.549488
0.534452
0.560166
0.558832
0.564246
0.533792
0.555195
0.524921
0.538323
0.515374
0.520836
0.561969
0.466399
0.533175
0.5426
0.53377
0.538493
0.53501
0.552252
0.531359
0.547342
0.507158
0.513154
0.540701
0.55017
0.480277
0.5446
0.512385
0.539561
0.507788
0.531647
0.54304
0.550021
0.561059
0.509912
0.532007
0.534969
0.539787
0.554501
0.488747
0.50676
0.562966
0.503117
0.52691
0.55034
0.557916
0.561961
0.508266
0.517724
0.518988
0.516587
0.493452
0.53494
0.530221
0.53552
0.51944
0.531006
0.53352
0.522632
0.495514
0.521946
0.534169
0.513191
0.550196
0.549526
0.500455
0.549321
0.45592
0.520633
0.473554
0.520952
0.561436
0.538869
0.538318
0.535935
0.550795
0.558252
0.536943
0.550372
0.495073
0.534848
0.528798
0.538494
0.510262
0.560753
0.534622
0.518264
0.56112
0.552815
0.512015
0.55891
0.506473
0.538076
0.536566
0.539343
0.482539
0.553062
0.533825
0.537078
0.537647
0.519102
0.51174
0.518497
0.548541
0.554592
0.555989
0.533656
0.541998
0.558118
0.538131
0.534174
0.523002
0.519844
0.531692
0.552678
0.513104
0.558491
0.537567
0.560763
0.561828
0.560486
0.533234
0.537278
0.555559
0.444563
0.557909
0.469493
0.560367
0.553061
0.535285
0.533581
0.527275
0.534078
0.469179
0.492312
0.528388
0.50059
0.56053
0.510073
0.513991
0.490705
0.506095
0.538417
0.554045
0.564945
0.50919
0.534402
0.538371
0.536227
0.52855
0.531303
0.558326
0.552477
0.535041
0.556837
0.552139
0.564417
0.510626
0.51829
0.501399
0.551301
0.560326
0.554684
0.535194
0.55995
0.533063
0.503751
0.532017
0.501933
0.520579
0.510558
0.565799
0.559578
0.539369
0.565121
0.551777
0.532545
0.560068
0.516557
0.551192
0.52996
0.56013
0.528361
0.508786
0.547856
0.541948
0.560264
0.560459
0.560527
0.506306
0.502344
0.499303
0.551841
0.552799
0.481902
0.523224
0.553908
0.511734
0.529591
0.511355
0.524385
0.54188
0.525764
0.536037
0.520477
0.537926
0.541721
0.546694
0.530585
0.521121
0.539318
0.539978
0.533302
0.556767
0.564901
0.480698
0.552228
0.511997
0.524232
0.560883
0.554147
0.526608
0.559987
0.512134
0.549209
0.525528
0.514609
0.555875
0.529015
0.551362
0.541928
0.547713
0.562834
0.547799
0.518936
0.545419
0.510467
0.550801
0.559326
0.543156
0.529428
0.509529
0.514272
0.556047
0.523015
0.539719
0.505024
0.530685
0.554101
0.550239
0.534961
0.553586
0.560694
0.520702
0.528745
0.541813
0.509841
0.520802
0.53594
0.541651
0.533097
0.515429
0.477098
0.505133
0.547243
0.529896
0.551223
0.514587
0.559202
0.541458
0.559417
0.560487
0.528966
0.558535
0.515415
0.541081
0.521706
0.550796
0.503342
0.531476
0.523333
0.507283
0.528712
0.51556
0.505118
0.510966
0.564413
0.566637
0.536233
0.506769
0.549704
0.506818
0.48197
0.533772
0.547299
0.545873
0.511179
0.510839
0.560742
0.505418
0.542365
0.507943
0.515851
0.531178
0.502041
0.55793
0.538227
0.519398
0.559014
0.558195
0.51826
0.542684
0.533988
0.563595
0.536272
0.526572
0.51287
0.543265
0.563529
0.542892
0.490359
0.513448
0.526194
0.540985
0.56028
0.561249
0.504698
0.560721
0.51564
0.538348
0.541782
0.533681
0.525721
0.552945
0.477944
0.540668
0.499591
0.516809
0.494864
0.5112
0.546246
0.560166
0.516516
0.520298
0.540207
0.52512
0.475596
0.498093
0.519303
0.543203
0.437667
0.52226
0.541174
0.53891
0.534098
0.542057
0.553553
0.458532
0.458563
0.556571
0.5351
0.476306
0.527769
0.549468
0.548015
0.535788
0.499609
0.540173
0.503288
0.560649
0.554394
0.564943
0.531656
0.547137
0.515466
0.53964
0.558528
0.508023
0.518638
0.548484
0.553842
0.513137
0.51456
0.494584
0.461318
0.497092
0.562242
0.525031
0.512297
0.487628
0.509281
0.551509
0.499826
0.518576
0.508688
0.555111
0.528347
0.561434
0.517601
0.531753
0.53755
0.539606
0.53003
0.545043
0.506089
0.561859
0.540148
0.5386
0.553671
0.522211
0.558706
0.539604
0.526047
0.559167
0.505555
0.524627
0.559758
0.5399
0.509014
0.518675
0.542184
0.55977
0.53767
0.550925
0.497771
0.513919
0.506138
0.497822
0.558041
0.520552
0.535324
0.562597
0.532919
0.46271
0.507874
0.536018
0.506531
0.530709
0.512728
0.519913
0.523873
0.550777
0.560559
0.542577
0.503473
0.527802
0.507015
0.532197
0.546576
0.534085
0.530719
0.544649
0.528269
0.533945
0.556034
0.553968
0.561592
0.558637
0.559201
0.53118
0.51551
0.51094
0.509727
0.560104
0.538908
0.516406
0.559225
0.51904
0.556029
0.551754
0.513957
0.503446
0.525031
0.536928
0.553831
0.529527
0.546902
0.537037
0.56146
0.543364
0.561736
0.519262
0.535662
0.523381
0.51008
0.525913
0.555782
0.471536
0.408997
0.534111
0.545412
0.551122
0.531355
0.509904
0.507425
0.52342
0.505213
0.531704
0.534701
0.513792
0.549174
0.536805
0.509981
0.532707
0.522882
0.498592
0.551474
0.524575
0.532713
0.501993
0.54135
0.520872
0.510015
0.525941
0.525936
0.519961
0.510089
0.462193
0.554178
0.562433
0.556594
0.541061
0.550754
0.516047
0.55981
0.537685
0.537778
0.492496
0.548161
0.52205
0.528392
0.552113
0.559217
0.553576
0.537275
0.542625
0.563638
0.516556
0.548568
0.560482
0.545854
0.531484
0.513149
0.552655
0.523893
0.52007
0.543216
0.529786
0.561903
0.517254
0.562383
0.562314
0.535656
0.519458
0.561955
0.509886
0.518622
0.525731
0.51263
0.523088
0.520929
0.51753
0.537514
0.506777
0.506996
0.534032
0.535277
0.523325
0.523114
0.540778
0.536583
0.527617
0.558337
0.55909
0.559635
0.509185
0.524284
0.56035
0.508021
0.536841
0.485686
0.534943
0.487373
0.549641
0.536007
0.535738
0.513211
0.506785
0.522658
0.54185
0.52388
0.534416
0.538274
0.530463
0.559619
0.544213
0.541686
0.519632
0.55684
0.52044
0.537032
0.559176
0.516455
0.519813
0.511821
0.547983
0.561908
0.518087
0.537933
0.52424
0.511454
0.502044
0.532995
0.50649
0.549071
0.518453
0.53207
0.535853
0.534936
0.509932
0.533053
0.534224
0.527198
0.541122
0.554222
0.535893
0.526229
0.532662
0.557866
0.53778
0.506802
0.54896
0.509269
0.535206
0.498824
0.517754
0.527052
0.473184
0.511431
0.564043
0.554345
0.503738
0.538888
0.512436
0.492933
0.50695
0.50812
0.51801
0.515306
0.517699
0.546247
0.566426
0.530908
0.550264
0.534317
0.560823
0.53854
0.565823
0.540697
0.521967
0.544742
0.554056
0.533224
0.549357
0.499212
0.556786
0.530097
0.405996
0.5376
0.564395
0.565129
0.54603
0.546744
0.54766
0.52449
0.529023
0.541593
0.561408
0.419511
0.52813
0.49602
0.522517
0.538513
0.502933
0.507744
0.519528
0.515723
0.509942
0.526998
0.534974
0.562865
0.5558
0.511008
0.555414
0.508271
0.536475
0.554545
0.537359
0.535078
0.541725
0.42238
0.514315
0.539241
0.556407
0.515268
0.521755
0.539324
0.544482
0.507879
0.560581
0.517834
0.540357
0.537166
0.530281
0.543975
0.546358
0.558849
0.499348
0.550875
0.533553
0.544489
0.509061
0.541283
0.527677
0.504564
0.512355
0.527296
0.532263
0.538261
0.554845
0.533262
0.495633
0.544117
0.517335
0.514274
0.536077
0.536748
0.512506
0.5663
0.515209
0.518473
0.515992
0.536714
0.511412
0.484547
0.548481
0.528129
0.534819
0.518488
0.500024
0.530489
0.461816
0.560605
0.549615
0.515466
0.51014
0.56096
0.517715
0.511557
0.506621
0.495935
0.525282
0.535929
0.55823
0.512869
0.523887
0.546159
0.535115
0.517697
0.515547
0.530988
0.549537
0.560645
0.51482
0.502792
0.538222
0.558695
0.529772
0.538535
0.53504
0.501617
0.538917
0.542959
0.530372
0.505178
0.549389
0.537115
0.499681
0.53767
0.514031
0.553804
0.562081
0.512907
0.538077
0.53241
0.53772
0.513126
0.541139
0.526583
0.559693
0.551638
0.547591
0.515796
0.520711
0.550973
0.561444
0.525891
0.537038
0.531401
0.51374
0.532459
0.536131
0.508969
0.448592
0.511157
0.530505
0.51713
0.512331
0.518861
0.528544
0.548975
0.508275
0.511938
0.523907
0.509202
0.552709
0.511302
0.542084
0.534057
0.506945
0.54133
0.535629
0.540658
0.53369
0.547264
0.516787
0.515594
0.560218
0.502361
0.558168
0.539841
0.525021
0.525819
0.556065
0.535876
0.509735
0.56305
0.498685
0.531024
0.557719
0.502184
0.565541
0.514783
0.537052
0.441048
0.540131
0.509759
0.540507
0.522254
0.503552
0.526192
0.505232
0.516393
0.559864
0.506745
0.533409
0.541684
0.536302
0.561144
0.562523
0.529515
0.496806
0.555656
0.525037
0.558704
0.521209
0.528668
0.542911
0.529416
0.55335
0.534762
0.538828
0.519294
0.538786
0.487337
0.498719
0.557201
0.374936
0.554294
0.546949
0.518567
0.511881
0.529317
0.559919
0.541496
0.545097
0.538459
0.541998
0.536009
0.558363
0.553699
0.509325
0.542663
0.555548
0.533038
0.536044
0.535997
0.515068
0.513727
0.535493
0.540614
0.531529
0.564892
0.50757
0.521711
0.539621
0.527088
0.528773
0.55595
0.515734
0.522265
0.521299
0.53068
0.514395
0.556881
0.501247
0.533648
0.526806
0.529322
0.506679
0.50301
0.544118
0.498613
0.508389
0.557835
0.532583
0.52286
0.508735
0.508636
0.523663
0.558012
0.562437
0.520911
0.52718
0.530144
0.556205
0.557693
0.51891
0.559197
0.525492
0.542067
0.540171
0.556913
0.530701
0.555131
0.556494
0.506852
0.497646
0.533256
0.524931
0.531209
0.446488
0.465747
0.545889
0.553511
0.512389
0.560886
0.533573
0.547044
0.535666
0.510228
0.555676
0.55254
0.537369
0.501545
0.511379
0.56197
0.551508
0.560789
0.505765
0.530255
0.542298
0.555016
0.544495
0.53731
0.529317
0.55592
0.530223
0.5276
0.535418
0.53013
0.535352
0.451213
0.553387
0.535219
0.538509
0.559771
0.504908
0.512658
0.519541
0.514137
0.557839
0.517213
0.540672
0.455113
0.520116
0.531154
0.517881
0.512645
0.538909
0.506444
0.513202
0.535354
0.536753
0.55787
0.517539
0.53377
0.556747
0.526611
0.559566
0.530229
0.544096
0.529612
0.520972
0.560327
0.508533
0.513077
0.536981
0.558743
0.547898
0.532378
0.495397
0.563317
0.541651
0.532287
0.548144
0.560294
0.548661
0.543594
0.50928
0.504958
0.529108
0.510212
0.539544
0.536998
0.507668
0.56064
0.559687
0.558046
0.541767
0.537531
0.509715
0.528974
0.548922
0.51322
0.543981
0.558923
0.529398
0.537163
0.536361
0.547254
0.541903
0.537046
0.508379
0.546782
0.495912
0.449815
0.523751
0.5646
0.508215
0.553041
0.52343
0.495804
0.544835
0.535254
0.559059
0.413156
0.539701
0.543914
0.559225
0.529606
0.560804
0.534319
0.506979
0.52753
0.531851
0.53216
0.503695
0.550738
0.536108
0.514822
0.504949
0.530836
0.537044
0.499751
0.540966
0.556502
0.51194
0.557509
0.515995
0.489562
0.502684
0.532645
0.517915
0.511322
0.494575
0.498113
0.533187
0.528845
0.549109
0.530463
0.557041
0.502773
0.541049
0.511428
0.516234
0.503583
0.544384
0.562145
0.517197
0.517547
0.566337
0.531343
0.543873
0.548424
0.526949
0.537875
0.539895
0.534
0.560927
0.55965
0.560447
0.535161
0.517397
0.521855
0.527433
0.562216
0.536197
0.521109
0.485425
0.518511
0.538835
0.557966
0.53304
0.556742
0.521399
0.525927
0.528358
0.502297
0.5258
0.520373
0.557613
0.510074
0.515897
0.514582
0.563132
0.539262
0.513813
0.508481
0.499436
0.552222
0.531081
0.522181
0.514552
0.525538
0.511443
0.532147
0.525826