/*--------------------------------*- C++ -*----------------------------------*\
  =========                 |
  \\      /  F ield         | OpenFOAM: The Open Source CFD Toolbox
   \\    /   O peration     | Website:  https://openfoam.org
    \\  /    A nd           | Version:  6
     \\/     M anipulation  |
\*---------------------------------------------------------------------------*/
FoamFile
{
    version     2.0;
    format      ascii;
    class       volVectorField;
    location    "0";
    object      uRec;
}
// * * * * * * * * * * * * * * * * * * * * * * * * * * * * * * * * * * * * * //

dimensions      [0 1 -1 0 0 0 0];

internalField   nonuniform List<vector> 
10000
(
(1.0985e-05 1.30841e-05 0)
(6.58516e-05 -1.79627e-06 0)
(0.000164178 -1.54816e-05 0)
(0.000317801 -2.54281e-05 0)
(0.000516651 -3.27046e-05 0)
(0.000748929 -3.75702e-05 0)
(0.00100187 -3.97832e-05 0)
(0.00126174 -3.91244e-05 0)
(0.00151581 -3.58205e-05 0)
(0.00175335 -3.04442e-05 0)
(0.00196613 -2.38335e-05 0)
(0.00214846 -1.68365e-05 0)
(0.00229731 -1.01193e-05 0)
(0.00241214 -4.19313e-06 0)
(0.00249436 5.44549e-07 0)
(0.00254861 3.61927e-06 0)
(0.00257307 3.26424e-06 0)
(0.00259601 1.1914e-05 0)
(0.00256628 1.7992e-05 0)
(0.00252898 1.34046e-05 0)
(0.00248017 1.3297e-05 0)
(0.0024213 1.35959e-05 0)
(0.00235394 1.36542e-05 0)
(0.00227995 1.35357e-05 0)
(0.00220154 1.30595e-05 0)
(0.00212012 1.24322e-05 0)
(0.00203753 1.1768e-05 0)
(0.00195528 1.09214e-05 0)
(0.00187386 1.01022e-05 0)
(0.0017943 9.44874e-06 0)
(0.00171754 8.71053e-06 0)
(0.00164333 7.9277e-06 0)
(0.00157181 7.39394e-06 0)
(0.00150375 6.9624e-06 0)
(0.00143896 6.3824e-06 0)
(0.00137686 5.83219e-06 0)
(0.00131766 5.53203e-06 0)
(0.0012617 5.29916e-06 0)
(0.00120856 4.89628e-06 0)
(0.00115769 4.49339e-06 0)
(0.00110928 4.29847e-06 0)
(0.00106359 4.17275e-06 0)
(0.00102025 3.92436e-06 0)
(0.000978836 3.61541e-06 0)
(0.000939432 3.4092e-06 0)
(0.000902259 3.30916e-06 0)
(0.000867227 3.16381e-06 0)
(0.000834005 2.92613e-06 0)
(0.000802512 2.71184e-06 0)
(0.000772967 2.58529e-06 0)
(0.000745468 2.48292e-06 0)
(0.000719857 2.32687e-06 0)
(0.000695956 2.10699e-06 0)
(0.000673784 1.89121e-06 0)
(0.000653527 1.73633e-06 0)
(0.000635287 1.60235e-06 0)
(0.000619002 1.42752e-06 0)
(0.000604498 1.21096e-06 0)
(0.000591758 9.2537e-07 0)
(0.000581184 8.45917e-07 0)
(0.000571751 1.01398e-06 0)
(0.000563609 9.79364e-07 0)
(0.000556369 8.48642e-07 0)
(0.000549579 7.7993e-07 0)
(0.00054357 5.80682e-07 0)
(0.000538749 3.09886e-07 0)
(0.000535644 1.03743e-07 0)
(0.000534154 -4.41137e-08 0)
(0.000533989 -1.42584e-07 0)
(0.000534863 -2.25493e-07 0)
(0.00053656 -3.04345e-07 0)
(0.000538967 -3.58574e-07 0)
(0.000542067 -3.74156e-07 0)
(0.000545884 -3.88768e-07 0)
(0.00055045 -4.57581e-07 0)
(0.00055585 -5.83352e-07 0)
(0.000562347 -7.56035e-07 0)
(0.00057039 -1.01994e-06 0)
(0.000580556 -1.42561e-06 0)
(0.000593572 -1.98694e-06 0)
(0.000610397 -2.7378e-06 0)
(0.000632213 -3.76056e-06 0)
(0.000660383 -5.13665e-06 0)
(0.000696476 -6.91613e-06 0)
(0.000742257 -9.15098e-06 0)
(0.000799485 -1.18802e-05 0)
(0.00086962 -1.50694e-05 0)
(0.000953522 -1.86027e-05 0)
(0.00105104 -2.22879e-05 0)
(0.00116032 -2.58103e-05 0)
(0.00127711 -2.86588e-05 0)
(0.00139392 -3.00836e-05 0)
(0.00149954 -2.91459e-05 0)
(0.00157685 -2.38932e-05 0)
(0.00160361 -1.27859e-05 0)
(0.00154788 7.0619e-06 0)
(0.00137239 3.8497e-05 0)
(0.00104526 7.96992e-05 0)
(0.000580953 0.000116744 0)
(0.000116746 0.000110188 0)
(1.43012e-05 -2.31092e-05 0)
(0.00015657 -0.000136118 0)
(0.000421001 -0.0002455 0)
(0.000796216 -0.000337848 0)
(0.00126373 -0.000410232 0)
(0.00180022 -0.000460076 0)
(0.00238047 -0.000485925 0)
(0.00297832 -0.000487984 0)
(0.00356947 -0.000468463 0)
(0.00413329 -0.000431106 0)
(0.00465328 -0.000380666 0)
(0.00511721 -0.000322017 0)
(0.00551694 -0.000259623 0)
(0.00584813 -0.00019746 0)
(0.0061098 -0.00013898 0)
(0.00630259 -8.6883e-05 0)
(0.00643854 -4.50495e-05 0)
(0.00648746 -6.02263e-06 0)
(0.00655955 4.27621e-05 0)
(0.00650852 7.98214e-05 0)
(0.00644803 9.91081e-05 0)
(0.00635214 0.000117535 0)
(0.00622694 0.000132714 0)
(0.00607748 0.000144431 0)
(0.00590925 0.000152543 0)
(0.00572693 0.000157145 0)
(0.00553484 0.00015897 0)
(0.00533721 0.000158511 0)
(0.00513698 0.000156126 0)
(0.00493674 0.000152383 0)
(0.00473902 0.000147732 0)
(0.00454532 0.000142396 0)
(0.00435659 0.000136665 0)
(0.004174 0.000130782 0)
(0.00399823 0.000124851 0)
(0.00382935 0.000118988 0)
(0.00366755 0.000113307 0)
(0.00351296 0.000107858 0)
(0.00336543 0.00010257 0)
(0.00322469 9.7506e-05 0)
(0.00309062 9.27476e-05 0)
(0.00296311 8.81911e-05 0)
(0.00284177 8.37464e-05 0)
(0.00272631 7.94783e-05 0)
(0.00261671 7.54144e-05 0)
(0.00251289 7.14886e-05 0)
(0.00241462 6.76018e-05 0)
(0.00232164 6.37346e-05 0)
(0.00223392 5.99838e-05 0)
(0.00215157 5.63611e-05 0)
(0.00207457 5.27369e-05 0)
(0.0020027 4.90476e-05 0)
(0.00193584 4.53423e-05 0)
(0.00187407 4.16879e-05 0)
(0.00181754 3.80852e-05 0)
(0.00176624 3.44536e-05 0)
(0.00171999 3.07132e-05 0)
(0.00167866 2.68641e-05 0)
(0.00164276 2.31271e-05 0)
(0.00161113 1.96806e-05 0)
(0.00158575 1.67561e-05 0)
(0.00156497 1.53435e-05 0)
(0.00154474 1.42028e-05 0)
(0.00152737 1.24841e-05 0)
(0.00151145 1.06122e-05 0)
(0.00149751 7.83607e-06 0)
(0.00148766 4.68602e-06 0)
(0.00148185 1.89914e-06 0)
(0.0014796 -4.64803e-07 0)
(0.00148031 -2.42301e-06 0)
(0.00148356 -4.0511e-06 0)
(0.00148905 -5.44382e-06 0)
(0.00149657 -6.70911e-06 0)
(0.00150606 -8.01739e-06 0)
(0.0015176 -9.58984e-06 0)
(0.00153148 -1.1617e-05 0)
(0.00154819 -1.42674e-05 0)
(0.00156858 -1.7798e-05 0)
(0.00159388 -2.25505e-05 0)
(0.00162561 -2.88674e-05 0)
(0.0016656 -3.71186e-05 0)
(0.00171611 -4.7736e-05 0)
(0.00177971 -6.11261e-05 0)
(0.00185919 -7.75389e-05 0)
(0.0019574 -9.70071e-05 0)
(0.00207694 -0.000119232 0)
(0.00221947 -0.00014333 0)
(0.00238497 -0.000167633 0)
(0.00257088 -0.000189532 0)
(0.00277093 -0.000205259 0)
(0.00297372 -0.0002096 0)
(0.00316112 -0.000195741 0)
(0.00330796 -0.000155219 0)
(0.00337552 -7.94043e-05 0)
(0.00332807 4.66435e-05 0)
(0.00309876 0.000235328 0)
(0.0026375 0.000481184 0)
(0.00191471 0.000738553 0)
(0.000998425 0.000872457 0)
(0.000152295 0.000596135 0)
(1.62803e-05 -0.00012555 0)
(0.000220972 -0.000393075 0)
(0.000597876 -0.000642307 0)
(0.00111981 -0.000855594 0)
(0.00175948 -0.00102378 0)
(0.00248591 -0.00114014 0)
(0.00326727 -0.00120242 0)
(0.00407256 -0.00121264 0)
(0.00487372 -0.00117626 0)
(0.00564673 -0.00110107 0)
(0.00637207 -0.000996048 0)
(0.00703477 -0.000870332 0)
(0.00762392 -0.000732466 0)
(0.0081323 -0.000590121 0)
(0.00855608 -0.000449932 0)
(0.00889379 -0.000317313 0)
(0.00914641 -0.000195594 0)
(0.00932467 -9.30468e-05 0)
(0.00940459 1.4574e-05 0)
(0.00946247 0.000108176 0)
(0.00944064 0.000167589 0)
(0.00937018 0.000229058 0)
(0.00924836 0.000282754 0)
(0.00908505 0.0003256 0)
(0.00888749 0.000358305 0)
(0.00866235 0.000381423 0)
(0.00841625 0.000395956 0)
(0.00815471 0.000403493 0)
(0.00788235 0.000405231 0)
(0.00760407 0.0004021 0)
(0.0073239 0.000395253 0)
(0.00704433 0.000385649 0)
(0.00676793 0.000373931 0)
(0.00649746 0.000360808 0)
(0.00623426 0.000346912 0)
(0.0059789 0.000332576 0)
(0.0057325 0.000318016 0)
(0.00549599 0.000303632 0)
(0.00526932 0.000289656 0)
(0.00505222 0.000276042 0)
(0.00484483 0.000262768 0)
(0.00464734 0.000249962 0)
(0.0044594 0.000237679 0)
(0.00428046 0.000225851 0)
(0.00411036 0.000214319 0)
(0.00394915 0.000203008 0)
(0.00379664 0.000191984 0)
(0.00365246 0.000181239 0)
(0.00351643 0.000170664 0)
(0.00338857 0.000160171 0)
(0.00326886 0.000149714 0)
(0.0031572 0.000139311 0)
(0.0030534 0.000129009 0)
(0.0029574 0.000118791 0)
(0.00286927 0.000108581 0)
(0.00278898 9.83252e-05 0)
(0.00271635 8.8011e-05 0)
(0.00265125 7.76447e-05 0)
(0.00259325 6.74186e-05 0)
(0.00254377 5.75138e-05 0)
(0.00250074 4.82297e-05 0)
(0.00246403 4.06577e-05 0)
(0.00244048 3.68046e-05 0)
(0.00241391 3.40237e-05 0)
(0.00239179 2.99374e-05 0)
(0.0023699 2.39883e-05 0)
(0.00235127 1.59412e-05 0)
(0.00233921 8.01182e-06 0)
(0.00233264 1.30963e-06 0)
(0.0023308 -4.31429e-06 0)
(0.00233302 -9.03147e-06 0)
(0.0023388 -1.31521e-05 0)
(0.00234782 -1.70068e-05 0)
(0.00235987 -2.09235e-05 0)
(0.00237499 -2.53108e-05 0)
(0.00239349 -3.06545e-05 0)
(0.00241599 -3.74445e-05 0)
(0.00244339 -4.62276e-05 0)
(0.00247706 -5.76979e-05 0)
(0.00251872 -7.26491e-05 0)
(0.00257043 -9.18792e-05 0)
(0.00263463 -0.000116159 0)
(0.00271403 -0.000146143 0)
(0.00281144 -0.000182142 0)
(0.00292952 -0.000223864 0)
(0.0030703 -0.000270145 0)
(0.00323451 -0.000318534 0)
(0.00342057 -0.000364813 0)
(0.00362354 -0.00040258 0)
(0.00383384 -0.000422873 0)
(0.00403564 -0.000413788 0)
(0.00420534 -0.000360216 0)
(0.00430959 -0.000244095 0)
(0.00430807 -4.57471e-05 0)
(0.00413763 0.000259517 0)
(0.00374838 0.000683906 0)
(0.00309358 0.00119885 0)
(0.00216793 0.00169108 0)
(0.00108078 0.00187837 0)
(0.000142899 0.00120199 0)
(1.74784e-05 -0.000253091 0)
(0.000261354 -0.000722385 0)
(0.000710277 -0.00114263 0)
(0.0013257 -0.00149833 0)
(0.00207308 -0.00177689 0)
(0.00291568 -0.00196939 0)
(0.00381748 -0.00207401 0)
(0.00474532 -0.00209552 0)
(0.00567014 -0.00204356 0)
(0.00656752 -0.00193059 0)
(0.00741767 -0.00177003 0)
(0.00820534 -0.00157517 0)
(0.00891913 -0.00135842 0)
(0.009551 -0.00113073 0)
(0.010096 -0.000901664 0)
(0.0105514 -0.000679269 0)
(0.0109179 -0.000469877 0)
(0.0111982 -0.000277824 0)
(0.0113757 -0.000115054 0)
(0.0115695 4.14288e-05 0)
(0.0115685 0.000198368 0)
(0.0115456 0.000315613 0)
(0.0114589 0.000419628 0)
(0.0113195 0.00050609 0)
(0.0111357 0.000575259 0)
(0.0109131 0.00062846 0)
(0.0106586 0.000666883 0)
(0.0103791 0.000692223 0)
(0.0100795 0.000706421 0)
(0.00976529 0.000711104 0)
(0.00944205 0.000707815 0)
(0.00911366 0.000698148 0)
(0.00878363 0.000683488 0)
(0.00845563 0.000664984 0)
(0.00813227 0.000643692 0)
(0.0078153 0.000620559 0)
(0.00750668 0.000596316 0)
(0.007208 0.000571521 0)
(0.00691984 0.000546603 0)
(0.00664256 0.00052189 0)
(0.00637686 0.000497612 0)
(0.00612314 0.000473954 0)
(0.00588113 0.000450939 0)
(0.00565045 0.000428498 0)
(0.00543113 0.000406612 0)
(0.00522328 0.000385283 0)
(0.00502666 0.000364472 0)
(0.00484076 0.000344062 0)
(0.00466536 0.000323909 0)
(0.00450053 0.000303949 0)
(0.00434623 0.000284198 0)
(0.00420225 0.000264647 0)
(0.00406832 0.000245246 0)
(0.0039443 0.000225934 0)
(0.00383021 0.000206691 0)
(0.00372603 0.000187562 0)
(0.00363151 0.000168592 0)
(0.00354634 0.000149782 0)
(0.00347032 0.000131019 0)
(0.00340278 0.00011251 0)
(0.00334526 9.48013e-05 0)
(0.00329786 7.82099e-05 0)
(0.00325399 6.49083e-05 0)
(0.00323173 5.8615e-05 0)
(0.00320519 5.51903e-05 0)
(0.0031805 4.8388e-05 0)
(0.0031536 3.55898e-05 0)
(0.00313267 2.06791e-05 0)
(0.00311965 7.78142e-06 0)
(0.00311266 -2.99717e-06 0)
(0.00311094 -1.21601e-05 0)
(0.0031138 -2.01796e-05 0)
(0.00312083 -2.76166e-05 0)
(0.00313171 -3.50523e-05 0)
(0.00314631 -4.3116e-05 0)
(0.00316483 -5.255e-05 0)
(0.00318783 -6.41926e-05 0)
(0.00321612 -7.89575e-05 0)
(0.00325085 -9.78869e-05 0)
(0.00329358 -0.000122155 0)
(0.00334617 -0.000152937 0)
(0.00341071 -0.000191266 0)
(0.00348946 -0.000237908 0)
(0.00358468 -0.000293057 0)
(0.00369826 -0.000355901 0)
(0.00383129 -0.000424116 0)
(0.00398334 -0.000493299 0)
(0.00415146 -0.000556264 0)
(0.00432908 -0.000602352 0)
(0.00450464 -0.000616842 0)
(0.00466019 -0.000580526 0)
(0.00476957 -0.00046946 0)
(0.00479725 -0.000256243 0)
(0.0046989 9.22752e-05 0)
(0.00441902 0.000602906 0)
(0.00391093 0.00127701 0)
(0.00314474 0.00205558 0)
(0.00213793 0.00274859 0)
(0.00102286 0.00292657 0)
(0.000120283 0.00179169 0)
(1.75166e-05 -0.000394454 0)
(0.00028484 -0.00109455 0)
(0.000779696 -0.00170709 0)
(0.00145474 -0.00221844 0)
(0.00226913 -0.00261436 0)
(0.00318153 -0.00288607 0)
(0.00415287 -0.00303396 0)
(0.0051487 -0.00306694 0)
(0.00613991 -0.00299963 0)
(0.00710283 -0.00284945 0)
(0.00801874 -0.00263455 0)
(0.00887327 -0.00237223 0)
(0.00965589 -0.0020785 0)
(0.0103591 -0.00176728 0)
(0.0109779 -0.0014505 0)
(0.0115094 -0.00113842 0)
(0.0119524 -0.000838979 0)
(0.0123043 -0.0005601 0)
(0.0125806 -0.000314496 0)
(0.0127033 -6.61298e-05 0)
(0.0128822 0.000153471 0)
(0.0129278 0.000338657 0)
(0.012914 0.00050509 0)
(0.0128313 0.000646881 0)
(0.0126929 0.000763738 0)
(0.0125061 0.000857418 0)
(0.012278 0.000929791 0)
(0.0120155 0.000982802 0)
(0.0117243 0.00101856 0)
(0.0114105 0.00103927 0)
(0.01108 0.00104709 0)
(0.010737 0.001044 0)
(0.0103861 0.00103184 0)
(0.0100317 0.00101237 0)
(0.00967739 0.000987268 0)
(0.00932563 0.00095791 0)
(0.00897921 0.00092543 0)
(0.00864064 0.00089084 0)
(0.0083114 0.000855026 0)
(0.00799251 0.00081869 0)
(0.00768518 0.000782285 0)
(0.00739037 0.000746121 0)
(0.00710828 0.000710459 0)
(0.00683889 0.000675473 0)
(0.00658248 0.000641216 0)
(0.00633929 0.000607676 0)
(0.00610911 0.000574793 0)
(0.00589153 0.000542469 0)
(0.00568634 0.000510617 0)
(0.0054936 0.000479193 0)
(0.00531323 0.000448165 0)
(0.0051449 0.00041745 0)
(0.00498824 0.000386979 0)
(0.00484306 0.000356744 0)
(0.00470937 0.000326778 0)
(0.00458708 0.000297144 0)
(0.00447583 0.000267898 0)
(0.00437515 0.000239073 0)
(0.00428475 0.000210658 0)
(0.00420428 0.000182544 0)
(0.00413323 0.000154902 0)
(0.00407178 0.000128838 0)
(0.00402357 0.000104842 0)
(0.00397686 8.55319e-05 0)
(0.00395747 7.79951e-05 0)
(0.00393625 7.49481e-05 0)
(0.00390995 6.37571e-05 0)
(0.00387851 4.25884e-05 0)
(0.00385716 2.13218e-05 0)
(0.00384293 4.22165e-06 0)
(0.00383467 -1.03149e-05 0)
(0.00383171 -2.3064e-05 0)
(0.00383344 -3.4758e-05 0)
(0.00383945 -4.62438e-05 0)
(0.00384947 -5.83892e-05 0)
(0.00386351 -7.21626e-05 0)
(0.0038819 -8.87012e-05 0)
(0.00390523 -0.000109269 0)
(0.00393433 -0.00013522 0)
(0.00397035 -0.000167995 0)
(0.00401473 -0.000209024 0)
(0.00406901 -0.000259533 0)
(0.00413474 -0.00032029 0)
(0.00421342 -0.000391219 0)
(0.0043061 -0.00047085 0)
(0.00441295 -0.000555619 0)
(0.00453258 -0.000639077 0)
(0.0046611 -0.000710991 0)
(0.0047911 -0.000756407 0)
(0.00491029 -0.000754897 0)
(0.00500024 -0.000680065 0)
(0.00503428 -0.000499441 0)
(0.00497873 -0.00017582 0)
(0.00478651 0.000331377 0)
(0.00441547 0.00104658 0)
(0.00382668 0.00195816 0)
(0.00300549 0.00296957 0)
(0.00198733 0.00381315 0)
(0.000914411 0.00392575 0)
(9.595e-05 0.00232052 0)
(1.70652e-05 -0.000544245 0)
(0.000299177 -0.00149383 0)
(0.000824647 -0.00231309 0)
(0.00153871 -0.00298818 0)
(0.00239461 -0.00350398 0)
(0.00334716 -0.00385362 0)
(0.00435498 -0.0040419 0)
(0.00538289 -0.00408334 0)
(0.0064023 -0.00399837 0)
(0.00739067 -0.00380985 0)
(0.00833082 -0.00354079 0)
(0.00920997 -0.00321258 0)
(0.0100191 -0.00284448 0)
(0.0107522 -0.00245323 0)
(0.0114053 -0.00205272 0)
(0.0119764 -0.00165464 0)
(0.0124651 -0.0012683 0)
(0.0128706 -0.000901289 0)
(0.0131976 -0.00055888 0)
(0.0134406 -0.000265913 0)
(0.0136347 1.51941e-06 0)
(0.0137223 0.000282638 0)
(0.0137634 0.000522963 0)
(0.0137361 0.000728513 0)
(0.0136513 0.000901138 0)
(0.0135144 0.00104331 0)
(0.013331 0.00115735 0)
(0.0131076 0.00124572 0)
(0.0128493 0.0013109 0)
(0.0125618 0.00135531 0)
(0.0122509 0.00138141 0)
(0.0119213 0.00139165 0)
(0.0115774 0.0013884 0)
(0.0112241 0.0013738 0)
(0.0108655 0.00134987 0)
(0.0105044 0.00131843 0)
(0.0101445 0.00128114 0)
(0.00978878 0.00123949 0)
(0.00943953 0.00119474 0)
(0.00909839 0.00114789 0)
(0.00876722 0.00109979 0)
(0.00844762 0.00105111 0)
(0.00814042 0.00100238 0)
(0.00784604 0.000953966 0)
(0.00756507 0.000906111 0)
(0.00729807 0.000858911 0)
(0.00704513 0.000812401 0)
(0.00680597 0.000766615 0)
(0.0065805 0.000721524 0)
(0.00636881 0.000677058 0)
(0.00617075 0.000633171 0)
(0.00598593 0.000589803 0)
(0.00581398 0.000546905 0)
(0.00565467 0.000504491 0)
(0.00550787 0.000462616 0)
(0.00537338 0.000421349 0)
(0.00525078 0.000380764 0)
(0.00513951 0.000340928 0)
(0.00503915 0.000301904 0)
(0.0049493 0.00026376 0)
(0.00486951 0.000226568 0)
(0.00479941 0.000190278 0)
(0.00473751 0.000156186 0)
(0.00469148 0.000125181 0)
(0.00464353 9.99835e-05 0)
(0.00463473 9.43485e-05 0)
(0.00461546 9.1398e-05 0)
(0.0045868 7.27924e-05 0)
(0.00455227 4.48439e-05 0)
(0.00452991 1.94423e-05 0)
(0.00451326 -1.08764e-06 0)
(0.00450218 -1.90002e-05 0)
(0.004496 -3.52598e-05 0)
(0.00449413 -5.09038e-05 0)
(0.00449616 -6.70511e-05 0)
(0.00450189 -8.4908e-05 0)
(0.00451134 -0.000105842 0)
(0.00452482 -0.00013137 0)
(0.00454283 -0.000163086 0)
(0.00456606 -0.000202626 0)
(0.00459538 -0.000251582 0)
(0.0046317 -0.000311282 0)
(0.00467593 -0.000382418 0)
(0.00472878 -0.000464577 0)
(0.00479055 -0.000555595 0)
(0.00486067 -0.000650709 0)
(0.0049371 -0.000741519 0)
(0.00501549 -0.000814844 0)
(0.00508815 -0.0008516 0)
(0.0051428 -0.000825921 0)
(0.00516144 -0.000704627 0)
(0.00511851 -0.000447173 0)
(0.0049805 -8.40599e-06 0)
(0.0047104 0.000654081 0)
(0.00426952 0.00156219 0)
(0.00362991 0.00268757 0)
(0.00278958 0.00389393 0)
(0.00179712 0.00483911 0)
(0.000796508 0.00484358 0)
(7.43491e-05 0.00277932 0)
(1.69265e-05 -0.000699704 0)
(0.000309986 -0.00191156 0)
(0.000857238 -0.00294672 0)
(0.00159742 -0.00378927 0)
(0.00247817 -0.00442374 0)
(0.0034509 -0.00484704 0)
(0.00447264 -0.00507024 0)
(0.0055081 -0.00511483 0)
(0.00652953 -0.00500793 0)
(0.00751571 -0.00477833 0)
(0.00845118 -0.00445405 0)
(0.00932506 -0.00406074 0)
(0.01013 -0.00362072 0)
(0.0108617 -0.00315332 0)
(0.0115179 -0.00267451 0)
(0.0120975 -0.00219719 0)
(0.0126008 -0.00173199 0)
(0.0130282 -0.00128779 0)
(0.0133812 -0.000871375 0)
(0.0136609 -0.000494458 0)
(0.0138544 -0.000135998 0)
(0.0140151 0.000192091 0)
(0.01411 0.000492845 0)
(0.0141398 0.000756926 0)
(0.0141108 0.000984434 0)
(0.0140284 0.00117698 0)
(0.0138976 0.00133622 0)
(0.0137241 0.00146436 0)
(0.0135122 0.0015639 0)
(0.0132671 0.00163744 0)
(0.0129941 0.00168764 0)
(0.0126974 0.00171717 0)
(0.0123813 0.00172862 0)
(0.0120505 0.00172446 0)
(0.0117091 0.00170702 0)
(0.0113604 0.00167849 0)
(0.0110081 0.00164088 0)
(0.0106558 0.001596 0)
(0.0103061 0.00154549 0)
(0.00996124 0.00149072 0)
(0.00962366 0.00143291 0)
(0.0092955 0.00137311 0)
(0.00897808 0.00131216 0)
(0.00867239 0.00125064 0)
(0.00837947 0.00118903 0)
(0.00810025 0.00112773 0)
(0.00783519 0.00106697 0)
(0.00758432 0.0010069 0)
(0.00734767 0.000947576 0)
(0.00712543 0.000889017 0)
(0.00691757 0.000831237 0)
(0.00672374 0.000774238 0)
(0.00654349 0.000718014 0)
(0.00637654 0.000662598 0)
(0.00622273 0.000608062 0)
(0.00608176 0.000554492 0)
(0.00595306 0.000501982 0)
(0.00583599 0.000450649 0)
(0.00573008 0.000400637 0)
(0.0056349 0.000352091 0)
(0.0055499 0.000305138 0)
(0.00547442 0.000259831 0)
(0.00540791 0.000215762 0)
(0.00534812 0.000174548 0)
(0.00530633 0.000136816 0)
(0.00525311 0.000107363 0)
(0.00526501 0.000107985 0)
(0.00523844 0.000105289 0)
(0.00520511 7.71753e-05 0)
(0.00517223 4.44786e-05 0)
(0.00514785 1.72508e-05 0)
(0.00512766 -5.90529e-06 0)
(0.00511205 -2.66674e-05 0)
(0.00510035 -4.62271e-05 0)
(0.00509199 -6.59346e-05 0)
(0.0050866 -8.72251e-05 0)
(0.00508397 -0.000111628 0)
(0.00508409 -0.000140804 0)
(0.00508712 -0.00017653 0)
(0.0050933 -0.000220604 0)
(0.00510296 -0.000274695 0)
(0.00511646 -0.000340114 0)
(0.00513407 -0.000417445 0)
(0.00515588 -0.000505977 0)
(0.00518157 -0.000602906 0)
(0.00521003 -0.000702339 0)
(0.00523888 -0.000794086 0)
(0.00526367 -0.000862299 0)
(0.00527687 -0.000884144 0)
(0.00526666 -0.000828858 0)
(0.00521614 -0.000657202 0)
(0.0051003 -0.000321548 0)
(0.00489136 0.000231586 0)
(0.00455582 0.00104217 0)
(0.0040631 0.00212692 0)
(0.00339357 0.00343889 0)
(0.00255543 0.00480218 0)
(0.00160629 0.0058056 0)
(0.000687021 0.00567143 0)
(5.69009e-05 0.00317139 0)
(1.73654e-05 -0.000860264 0)
(0.000320119 -0.00234397 0)
(0.000883771 -0.00360003 0)
(0.00164111 -0.00460966 0)
(0.00253466 -0.00535842 0)
(0.00351303 -0.00584879 0)
(0.00453245 -0.00609968 0)
(0.00555795 -0.00614067 0)
(0.00656282 -0.00600629 0)
(0.00752737 -0.00573176 0)
(0.00843778 -0.00535018 0)
(0.00928523 -0.00489149 0)
(0.0100644 -0.0043813 0)
(0.0107725 -0.0038411 0)
(0.0114091 -0.00328861 0)
(0.0119747 -0.00273781 0)
(0.0124705 -0.00219968 0)
(0.0128976 -0.00168311 0)
(0.0132564 -0.00119513 0)
(0.0135519 -0.000743865 0)
(0.0137658 -0.000340231 0)
(0.0139402 2.90874e-05 0)
(0.0140818 0.000399939 0)
(0.0141571 0.000728657 0)
(0.0141764 0.00101274 0)
(0.0141447 0.00125637 0)
(0.0140659 0.00146175 0)
(0.0139448 0.00163123 0)
(0.0137847 0.00176748 0)
(0.0135899 0.00187324 0)
(0.0133648 0.00195129 0)
(0.0131128 0.00200434 0)
(0.0128378 0.00203504 0)
(0.0125442 0.00204606 0)
(0.0122358 0.00203994 0)
(0.0119156 0.00201903 0)
(0.0115876 0.00198559 0)
(0.0112553 0.00194171 0)
(0.0109217 0.00188927 0)
(0.0105891 0.00183 0)
(0.0102606 0.00176545 0)
(0.00993853 0.00169693 0)
(0.00962475 0.0016256 0)
(0.0093206 0.0015524 0)
(0.00902764 0.00147807 0)
(0.00874728 0.00140325 0)
(0.00848028 0.00132846 0)
(0.00822693 0.00125404 0)
(0.00798759 0.00118022 0)
(0.00776268 0.00110717 0)
(0.00755228 0.00103502 0)
(0.0073561 0.000963897 0)
(0.00717379 0.000893878 0)
(0.00700506 0.00082504 0)
(0.00684966 0.000757471 0)
(0.00670723 0.000691293 0)
(0.00657715 0.000626665 0)
(0.00645873 0.000563762 0)
(0.00635137 0.00050276 0)
(0.00625456 0.000443842 0)
(0.00616771 0.000387184 0)
(0.00609011 0.000332921 0)
(0.00602087 0.000281029 0)
(0.00595893 0.00023087 0)
(0.00590331 0.000184765 0)
(0.00586409 0.000141064 0)
(0.00581051 0.000115822 0)
(0.00583619 0.00012195 0)
(0.00580405 0.000112298 0)
(0.00576432 7.7508e-05 0)
(0.00573303 4.35831e-05 0)
(0.00570469 1.63096e-05 0)
(0.00567948 -7.9753e-06 0)
(0.00565725 -3.06717e-05 0)
(0.00563737 -5.30917e-05 0)
(0.00561936 -7.67731e-05 0)
(0.00560286 -0.000103359 0)
(0.00558759 -0.000134606 0)
(0.00557336 -0.000172377 0)
(0.00556006 -0.000218546 0)
(0.00554761 -0.000274809 0)
(0.00553584 -0.000342429 0)
(0.0055245 -0.000421862 0)
(0.00551315 -0.000512126 0)
(0.00550105 -0.000609869 0)
(0.00548675 -0.00070818 0)
(0.00546768 -0.000795237 0)
(0.00543945 -0.000852723 0)
(0.00539483 -0.000854225 0)
(0.00532255 -0.000764061 0)
(0.00520661 -0.000536193 0)
(0.00502557 -0.000116293 0)
(0.00476205 0.000535945 0)
(0.00437257 0.00148241 0)
(0.00384108 0.00272482 0)
(0.0031555 0.00419599 0)
(0.0023315 0.00568118 0)
(0.00143218 0.00670649 0)
(0.000592511 0.00641317 0)
(4.35151e-05 0.00350556 0)
(1.82074e-05 -0.0010259 0)
(0.000330223 -0.00278871 0)
(0.000906446 -0.00426729 0)
(0.00167369 -0.00544036 0)
(0.00257031 -0.00629649 0)
(0.00354296 -0.00684558 0)
(0.00454761 -0.00711576 0)
(0.00554998 -0.0071456 0)
(0.00652449 -0.00697752 0)
(0.00745315 -0.00665348 0)
(0.00832391 -0.00621201 0)
(0.00912976 -0.00568714 0)
(0.00986745 -0.00510791 0)
(0.0105363 -0.00449806 0)
(0.0111374 -0.0038766 0)
(0.0116729 -0.00325842 0)
(0.0121455 -0.00265476 0)
(0.0125577 -0.00207408 0)
(0.0129111 -0.00152275 0)
(0.0132098 -0.00100557 0)
(0.0134496 -0.000531445 0)
(0.0136241 -0.000127774 0)
(0.0137862 0.000275872 0)
(0.0138909 0.000660956 0)
(0.013943 0.000995982 0)
(0.0139524 0.00128686 0)
(0.0139199 0.00153593 0)
(0.0138485 0.00174554 0)
(0.0137401 0.00191843 0)
(0.0135975 0.00205729 0)
(0.0134242 0.00216487 0)
(0.0132227 0.0022439 0)
(0.012996 0.00229696 0)
(0.0127483 0.00232667 0)
(0.0124825 0.00233565 0)
(0.0122018 0.00232634 0)
(0.0119095 0.00230106 0)
(0.0116094 0.00226212 0)
(0.0113043 0.00221163 0)
(0.0109967 0.0021515 0)
(0.0106896 0.00208349 0)
(0.0103858 0.00200923 0)
(0.0100874 0.00193012 0)
(0.00979613 0.00184741 0)
(0.00951376 0.00176217 0)
(0.00924209 0.00167528 0)
(0.00898227 0.0015875 0)
(0.00873493 0.00149947 0)
(0.00850064 0.00141162 0)
(0.00828007 0.00132434 0)
(0.00807358 0.00123795 0)
(0.00788105 0.00115273 0)
(0.00770214 0.00106888 0)
(0.00753659 0.000986563 0)
(0.00738421 0.000905931 0)
(0.00724466 0.000827205 0)
(0.00711727 0.000750607 0)
(0.00700123 0.000676328 0)
(0.00689591 0.000604575 0)
(0.00680075 0.000535601 0)
(0.00671513 0.000469645 0)
(0.00663826 0.000406867 0)
(0.00656923 0.000347308 0)
(0.00650718 0.000290747 0)
(0.00644979 0.000236449 0)
(0.00640343 0.000187575 0)
(0.00635702 0.000139003 0)
(0.00633727 0.000126561 0)
(0.00634113 0.00013611 0)
(0.00630644 0.00011609 0)
(0.00626281 8.00343e-05 0)
(0.00622779 4.78932e-05 0)
(0.00619324 2.08846e-05 0)
(0.00616057 -3.89696e-06 0)
(0.00612914 -2.78555e-05 0)
(0.00609824 -5.25895e-05 0)
(0.00606737 -7.9841e-05 0)
(0.00603606 -0.000111416 0)
(0.00600387 -0.000149167 0)
(0.00597038 -0.000194955 0)
(0.00593517 -0.000250488 0)
(0.0058977 -0.000316997 0)
(0.00585726 -0.000394782 0)
(0.00581303 -0.000482596 0)
(0.00576398 -0.000576645 0)
(0.00570852 -0.000669216 0)
(0.00564408 -0.000747109 0)
(0.00556666 -0.000789899 0)
(0.00546992 -0.000768169 0)
(0.0053446 -0.000642471 0)
(0.00517448 -0.000364706 0)
(0.00495064 0.000113021 0)
(0.00461687 0.00088901 0)
(0.00418528 0.00196316 0)
(0.00362562 0.00334471 0)
(0.00293351 0.00494934 0)
(0.00212992 0.00652558 0)
(0.00128091 0.00754326 0)
(0.000514097 0.00707792 0)
(3.35697e-05 0.0037918 0)
(1.92686e-05 -0.00119667 0)
(0.000339843 -0.00324351 0)
(0.000924994 -0.0049434 0)
(0.00169556 -0.00627371 0)
(0.0025868 -0.00722842 0)
(0.00354424 -0.00782678 0)
(0.00452402 -0.00810719 0)
(0.00549283 -0.00811789 0)
(0.00642641 -0.00790962 0)
(0.00730835 -0.00753119 0)
(0.00812855 -0.00702686 0)
(0.00888185 -0.00643494 0)
(0.00956692 -0.0057876 0)
(0.0101851 -0.0051109 0)
(0.0107394 -0.00442515 0)
(0.0112335 -0.00374585 0)
(0.0116715 -0.00308443 0)
(0.0120573 -0.00244918 0)
(0.0123941 -0.0018463 0)
(0.0126871 -0.00127961 0)
(0.0129294 -0.000760543 0)
(0.0131484 -0.000303443 0)
(0.0132778 0.000138225 0)
(0.0134078 0.000574855 0)
(0.0134799 0.00095094 0)
(0.0135232 0.00128006 0)
(0.0135315 0.0015661 0)
(0.0135055 0.00181139 0)
(0.0134458 0.00201835 0)
(0.0133539 0.00218923 0)
(0.0132321 0.00232636 0)
(0.0130821 0.00243221 0)
(0.0129064 0.00250923 0)
(0.0127081 0.00255984 0)
(0.0124901 0.0025865 0)
(0.0122548 0.00259171 0)
(0.0120053 0.00257784 0)
(0.0117452 0.0025472 0)
(0.011477 0.00250203 0)
(0.0112031 0.0024444 0)
(0.0109266 0.00237624 0)
(0.0106504 0.00229934 0)
(0.0103766 0.00221536 0)
(0.0101071 0.00212576 0)
(0.00984398 0.0020319 0)
(0.00958932 0.00193493 0)
(0.0093445 0.00183587 0)
(0.00911038 0.00173558 0)
(0.00888783 0.0016348 0)
(0.00867781 0.00153419 0)
(0.00848087 0.00143427 0)
(0.00829705 0.00133547 0)
(0.00812616 0.00123818 0)
(0.00796804 0.00114273 0)
(0.00782259 0.0010494 0)
(0.00768949 0.000958482 0)
(0.00756805 0.000870262 0)
(0.00745746 0.000785014 0)
(0.00735705 0.000703011 0)
(0.00726624 0.000624526 0)
(0.00718429 0.000549818 0)
(0.0071104 0.000479098 0)
(0.00704358 0.000412473 0)
(0.00698272 0.000349857 0)
(0.00692706 0.000290557 0)
(0.00687155 0.000234258 0)
(0.0068334 0.000182386 0)
(0.00676439 0.000139881 0)
(0.00679069 0.000145206 0)
(0.00676474 0.000149366 0)
(0.00672608 0.000120313 0)
(0.00668495 8.67405e-05 0)
(0.00664491 5.86902e-05 0)
(0.0066036 3.34748e-05 0)
(0.00656186 9.42962e-06 0)
(0.00651899 -1.48867e-05 0)
(0.00647445 -4.11784e-05 0)
(0.00642773 -7.1245e-05 0)
(0.00637824 -0.000106908 0)
(0.00632529 -0.000149968 0)
(0.00626819 -0.000202084 0)
(0.00620615 -0.000264447 0)
(0.00613815 -0.000337237 0)
(0.00606305 -0.000418954 0)
(0.00597957 -0.000505428 0)
(0.00588602 -0.000588342 0)
(0.00577986 -0.000653395 0)
(0.00565727 -0.00067837 0)
(0.00551238 -0.000631205 0)
(0.00533616 -0.000468452 0)
(0.00511635 -0.000134797 0)
(0.00482435 0.000443577 0)
(0.00446214 0.0012931 0)
(0.0040005 0.00247386 0)
(0.00342481 0.0039762 0)
(0.00273395 0.00569207 0)
(0.00195403 0.00733372 0)
(0.0011529 0.00832071 0)
(0.000450407 0.00767622 0)
(2.63098e-05 0.00403935 0)
(2.04487e-05 -0.00137238 0)
(0.000348152 -0.00370582 0)
(0.000938136 -0.00562318 0)
(0.00170572 -0.00710255 0)
(0.00258388 -0.00814582 0)
(0.00351787 -0.00878339 0)
(0.00446435 -0.00906477 0)
(0.00539111 -0.00904824 0)
(0.00627541 -0.00879319 0)
(0.00710242 -0.00835555 0)
(0.00786384 -0.00778535 0)
(0.00855653 -0.00712541 0)
(0.00918106 -0.00641102 0)
(0.0097407 -0.00567029 0)
(0.0102402 -0.00492475 0)
(0.010685 -0.00419036 0)
(0.0110803 -0.00347841 0)
(0.0114308 -0.00279684 0)
(0.0117413 -0.0021517 0)
(0.0120135 -0.00154786 0)
(0.0122518 -0.000993159 0)
(0.0124905 -0.000469765 0)
(0.012567 1.15597e-05 0)
(0.0127312 0.000470151 0)
(0.0128294 0.000874748 0)
(0.012909 0.00123508 0)
(0.0129572 0.0015534 0)
(0.012974 0.00183109 0)
(0.0129595 0.00206969 0)
(0.0129148 0.00227099 0)
(0.0128418 0.00243688 0)
(0.0127416 0.0025694 0)
(0.0126159 0.00267075 0)
(0.0124674 0.00274322 0)
(0.0122984 0.0027891 0)
(0.0121108 0.00281077 0)
(0.0119074 0.00281057 0)
(0.0116913 0.00279082 0)
(0.0114648 0.00275375 0)
(0.0112301 0.00270151 0)
(0.0109901 0.00263612 0)
(0.0107477 0.00255952 0)
(0.0105049 0.00247351 0)
(0.0102638 0.00237975 0)
(0.0100266 0.00227979 0)
(0.00979531 0.00217501 0)
(0.00957161 0.0020667 0)
(0.00935659 0.001956 0)
(0.00915134 0.00184391 0)
(0.00895698 0.00173132 0)
(0.00877424 0.001619 0)
(0.00860338 0.00150761 0)
(0.0084444 0.00139774 0)
(0.00829725 0.0012899 0)
(0.00816188 0.00118453 0)
(0.00803809 0.00108202 0)
(0.00792525 0.000982793 0)
(0.00782255 0.000887217 0)
(0.00772931 0.000795617 0)
(0.00764492 0.000708293 0)
(0.00756866 0.000625551 0)
(0.00749968 0.000547682 0)
(0.00743699 0.000474888 0)
(0.00737951 0.000407208 0)
(0.00732616 0.000344444 0)
(0.0072761 0.000285359 0)
(0.00722511 0.000230671 0)
(0.00718676 0.000176357 0)
(0.00712961 0.000150175 0)
(0.00715853 0.000167387 0)
(0.00712066 0.000161894 0)
(0.00707248 0.000132031 0)
(0.00702791 0.000103062 0)
(0.00697984 7.92288e-05 0)
(0.00692947 5.69926e-05 0)
(0.00687641 3.4867e-05 0)
(0.00681995 1.13272e-05 0)
(0.00675952 -1.53417e-05 0)
(0.00669445 -4.69014e-05 0)
(0.00662393 -8.50556e-05 0)
(0.00654705 -0.000131341 0)
(0.0064628 -0.000186854 0)
(0.00637002 -0.000251692 0)
(0.00626733 -0.000324162 0)
(0.0061532 -0.000399762 0)
(0.00602588 -0.000469648 0)
(0.0058829 -0.000518598 0)
(0.00572065 -0.000522774 0)
(0.00553367 -0.000447617 0)
(0.00531371 -0.00024609 0)
(0.00504771 0.000140605 0)
(0.00472285 0.000776057 0)
(0.00432667 0.00171753 0)
(0.00383813 0.00300246 0)
(0.00324853 0.00461272 0)