/*--------------------------------*- C++ -*----------------------------------*\
  =========                 |
  \\      /  F ield         | OpenFOAM: The Open Source CFD Toolbox
   \\    /   O peration     | Website:  https://openfoam.org
    \\  /    A nd           | Version:  6
     \\/     M anipulation  |
\*---------------------------------------------------------------------------*/
FoamFile
{
    version     2.0;
    format      ascii;
    class       volVectorField;
    location    "0";
    object      U;
}
// * * * * * * * * * * * * * * * * * * * * * * * * * * * * * * * * * * * * * //

dimensions      [0 1 -1 0 0 0 0];

internalField   nonuniform List<vector> 
13046
(
(-0.664693 0.317627 0)
(-0.724219 -0.194784 -9.46793e-21)
(-0.164351 -0.089232 -1.99146e-20)
(-0.599934 0.191322 0)
(-0.1561 0.00831655 -1.83195e-20)
(-0.589277 -0.20418 0)
(-0.678265 0.22808 2.80233e-21)
(-0.668159 -0.259239 4.77411e-21)
(-0.12332 0.0223961 -1.9948e-20)
(-1.54065 0.72738 7.11482e-21)
(-1.58507 -0.682647 0)
(0.0917357 0.0030012 1.24463e-20)
(-0.877621 0.392373 -8.84883e-21)
(-0.896104 -0.309904 -1.45072e-20)
(-0.0651703 -0.0496361 1.06503e-20)
(-1.47198 0.818271 -9.79818e-21)
(0.0512805 -0.00963598 2.98422e-20)
(-1.6319 -0.56131 5.68858e-21)
(-0.301359 0.120232 0)
(-0.402788 -0.166508 -1.00686e-20)
(-0.535217 0.0445451 2.93599e-20)
(-1.48876 0.806666 -3.92943e-21)
(0.0656757 -0.00357391 -3.98664e-20)
(-1.62313 -0.587377 0)
(-0.535351 0.204469 1.16468e-20)
(-0.58067 -0.143668 -2.32341e-20)
(-0.191586 -0.056904 0)
(-0.895571 0.43646 -1.59738e-20)
(-0.936836 -0.308255 4.26768e-21)
(-0.0708277 -0.0688039 -1.86685e-20)
(-0.686911 0.347607 0)
(-0.761587 -0.176451 0)
(-0.180714 -0.11542 2.02698e-20)
(-0.463685 0.157232 -1.35272e-20)
(-0.225169 -0.0551137 6.89993e-21)
(-0.515124 -0.101128 4.05021e-20)
(-0.445243 0.124504 -2.08474e-20)
(-0.236955 -0.025384 1.05632e-20)
(-0.473431 -0.0966074 -2.0752e-20)
(-0.549855 0.337518 1.44876e-20)
(-0.418532 -0.280071 3.65781e-21)
(-0.772951 -0.0445679 -1.43934e-20)
(-0.39383 0.0287592 9.43853e-21)
(-0.308461 0.0164287 1.59646e-20)
(-0.3638 -0.0506445 0)
(-0.436863 0.0412123 6.02428e-21)
(-0.282891 0.0458917 -2.45511e-20)
(-0.375449 -0.0883907 -3.05968e-21)
(-0.696944 0.310924 0)
(-0.738858 -0.226224 -6.74171e-22)
(-0.122538 -0.0628215 -7.27049e-23)
(-0.702507 -0.480805 2.26448e-20)
(-0.471757 0.34833 0)
(-0.940762 0.0720123 -1.72701e-20)
(-0.79879 -0.540959 -3.22914e-20)
(-0.999083 0.113012 -2.75387e-20)
(-0.414686 0.315663 2.19451e-20)
(-1.39556 -0.324842 -3.06364e-21)
(-1.2199 0.789488 0)
(-0.171898 -0.16493 1.65496e-20)
(-1.1665 0.419249 -8.37561e-21)
(-1.12496 -0.550332 8.23381e-21)
(-0.00963483 0.052353 -4.45577e-20)
(0.0848045 -0.00533622 2.29368e-20)
(-1.50582 -0.629873 -4.61966e-21)
(-1.47601 0.685333 -1.2415e-20)
(-1.15354 0.7759 0)
(-1.32785 -0.264129 0)
(-0.240135 -0.21892 0)
(-1.0956 0.736524 -6.1694e-21)
(-1.26877 -0.241369 0)
(-0.261973 -0.233284 1.32355e-20)
(-1.45862 -0.340592 0)
(-1.27191 0.822492 2.00258e-22)
(-0.152035 -0.156266 -6.24965e-23)
(-0.337743 0.152907 0)
(-0.396102 -0.187361 1.08311e-20)
(-0.573555 0.0169103 -2.09103e-20)
(-0.0700055 -0.0942729 1.82081e-20)
(-1.34684 0.83986 -1.81622e-20)
(-1.53141 -0.414739 0)
(-0.584943 0.22222 6.13668e-21)
(-0.609996 -0.175161 0)
(-0.160172 -0.0321892 0)
(0.0883561 -0.00351879 -2.05609e-20)
(-1.54171 -0.642197 -3.36245e-21)
(-1.50788 0.709244 7.33632e-21)
(-1.52931 0.565968 -1.31002e-20)
(0.0626188 0.0214862 0)
(-1.44341 -0.742475 -3.61844e-21)
(-0.0284923 0.0586678 0)
(-1.61708 0.455784 0)
(-1.40696 -0.867565 4.5396e-22)
(-1.20758 0.58035 0)
(-1.27211 0.59356 7.39636e-21)
(-1.2507 -0.473706 1.58885e-20)
(-1.30454 -0.522002 -7.41955e-21)
(0.0209429 -0.0355149 -9.51713e-21)
(0.0441 -0.0185305 2.45116e-20)
(0.04117 0.0322998 -1.15917e-21)
(-1.51908 0.534533 1.28211e-20)
(-1.41302 -0.762234 0)
(-0.477262 0.0792993 -3.26579e-23)
(-0.247671 0.0433884 1.27609e-20)
(-0.425082 -0.128234 0)
(-0.289703 0.226553 0)
(-0.904957 0.157336 -8.59082e-21)
(-0.767177 -0.4619 0)
(-0.456824 0.320225 2.47906e-20)
(-0.60853 -0.396962 0)
(-0.845573 0.0413919 -3.2882e-20)
(-1.44833 0.70204 0)
(0.0718799 0.00421591 0)
(-1.47539 -0.67951 -2.66728e-21)
(-0.795234 0.350758 2.44434e-20)
(-0.827575 -0.273097 6.2245e-21)
(-0.0838044 -0.0436229 1.96186e-20)
(-1.28482 0.676985 9.42451e-21)
(-1.21883 0.628172 -1.78315e-20)
(-1.36471 -0.470504 -1.34082e-20)
(0.00782408 -0.0532622 1.09458e-20)
(-1.28508 -0.446043 7.94713e-21)
(0.000789769 -0.0547526 -1.02244e-20)
(-1.52527 0.74022 -5.30359e-21)
(-1.58479 -0.676214 -5.16967e-21)
(0.0879376 0.0058146 -5.56983e-21)
(-1.06625 0.52395 0)
(-1.10763 -0.393698 -1.09012e-20)
(-0.0228955 -0.0606081 2.2626e-20)
(-0.614433 0.368132 0)
(-0.35547 -0.246126 -1.83655e-20)
(-0.791462 -0.0866343 8.33446e-22)
(-0.0478982 0.0757529 0)
(-1.57043 0.432765 0)
(-1.3775 -0.845347 0)
(-1.38662 0.602033 0)
(-1.38685 -0.612242 -1.9677e-20)
(0.0695385 0.00320312 -2.6139e-20)
(-0.761132 0.384859 0)
(-0.827121 -0.211684 0)
(-0.159512 -0.122015 0)
(-0.884782 0.275778 0)
(-0.841771 -0.408517 0)
(-0.1027 0.0788181 0)
(-0.425266 0.308782 0)
(-0.677868 -0.44044 0)
(-0.883978 0.0748113 1.77237e-20)
(-0.283653 0.210324 -2.55543e-21)
(-0.865903 0.151858 -1.85568e-20)
(-0.741695 -0.434265 2.02494e-20)
(-1.22308 0.452849 1.92873e-20)
(-1.18018 -0.569889 0)
(0.0145845 0.0361105 5.78992e-20)
(-0.21379 0.136511 0)
(-0.749303 0.160207 2.00483e-20)
(-0.656001 -0.339448 -5.20304e-21)
(-0.96341 -0.619188 0)
(-1.11106 0.214158 1.95311e-20)
(-1.04354 -0.652083 0)
(-1.17834 0.265609 1.12099e-20)
(-0.277645 0.235469 0)
(-0.212122 0.193103 0)
(-0.913992 0.229426 2.5555e-21)
(-0.828891 -0.450686 1.06919e-20)
(-0.163162 0.12988 -1.11262e-20)
(-1.57015 0.703389 -7.29573e-21)
(0.0936689 0.000576321 0)
(-1.55444 -0.713355 -7.33941e-21)
(-1.4811 0.719187 -4.45586e-21)
(0.078482 0.00762572 -2.55533e-21)
(-1.53187 -0.676214 0)
(-1.40909 0.634114 -1.05881e-20)
(-1.42042 -0.610445 0)
(0.0748071 -0.00312147 2.97152e-20)
(-0.742239 0.479269 0)
(-0.928428 -0.10902 4.52573e-21)
(-0.387829 -0.294272 1.06207e-20)
(-0.863475 0.200192 1.68448e-20)
(-0.200039 0.156728 5.37788e-21)
(-0.772625 -0.417319 0)
(0.0879087 0.00085342 0)
(-1.52708 -0.760122 0)
(-1.60143 0.645727 6.01729e-21)
(-0.676937 0.435411 0)
(-0.873632 -0.0823057 -9.87006e-21)
(-0.404449 -0.287099 2.77314e-21)
(-0.221474 0.155347 0)
(-0.775886 0.157501 0)
(-0.673523 -0.362229 0)
(-0.820876 0.240205 8.32326e-21)
(-0.7793 -0.373199 0)
(-0.115375 0.074489 0)
(-0.977834 -0.379111 -3.63911e-23)
(-0.0274363 -0.0224446 -1.32502e-20)
(-1.00983 0.482164 2.52911e-20)
(-1.04995 -0.369446 0)
(-0.0322433 -0.0537829 -2.83539e-20)
(-1.54269 0.641493 -1.30581e-20)
(0.0875958 0.0059638 1.86154e-20)
(-1.50837 -0.711948 -1.65987e-20)
(-0.0138211 0.0634919 1.69864e-20)
(-1.51877 0.464438 8.17383e-21)
(-1.37204 -0.799463 1.81095e-20)
(-1.60016 0.516287 -2.15685e-20)
(-1.44477 -0.812866 0)
(0.0279061 0.0329968 -1.67014e-20)
(-0.74942 -0.542729 -1.15091e-21)
(-1.03079 0.0586783 7.68802e-21)
(-0.555799 0.430553 0)
(-0.825149 0.306639 -3.74692e-20)
(-1.32685 0.85423 9.40171e-21)
(-0.101293 -0.112746 -1.12075e-20)
(-1.53329 -0.400613 0)
(-1.46648 -0.818286 0)
(-1.61962 0.553951 -1.84248e-20)
(0.045769 0.0183494 0)
(-0.487373 0.122102 -3.0409e-20)
(-0.215713 0.0117156 -1.03729e-20)
(-0.475575 -0.135532 3.04569e-20)
(-0.860754 0.442846 0)
(-0.919479 -0.276301 -6.1938e-22)
(-0.110964 -0.0945133 -1.08878e-20)
(-0.0402126 0.0766839 1.30397e-20)
(-1.52837 0.444399 0)
(-1.35985 -0.821542 -2.08828e-20)
(-0.892462 0.344113 2.99807e-20)
(-0.951849 -0.388404 2.61146e-20)
(-0.0310782 -0.00532085 0)
(0.086497 -0.00290724 0)
(-1.51099 -0.726173 5.28552e-21)
(-1.55585 0.690459 0)
(-0.492027 0.384906 0)
(-1.05422 0.0886476 0)
(-0.807952 -0.582931 0)
(-1.55655 0.507886 1.89065e-20)
(-1.4192 -0.788606 0)
(0.0242547 0.0385006 -5.40912e-23)
(-1.04034 0.247893 7.39553e-21)
(-0.936695 -0.549856 -8.03628e-21)
(-0.179683 0.160863 0)
(-1.06408 0.551794 0)
(-1.12077 -0.373779 1.02053e-20)
(-0.0451064 -0.077582 1.78031e-20)
(-1.25424 -0.821201 -2.708e-20)
(-1.44399 0.332197 -1.50052e-20)
(-0.160715 0.160571 1.02854e-20)
(-1.2544 0.278613 0)
(-1.1063 -0.703343 -1.10087e-20)
(-0.210046 0.19282 -3.74214e-22)
(0.0808666 -0.00829215 -1.64063e-20)
(-1.48057 -0.739102 0)
(-1.56482 0.667658 -4.51339e-21)
(-0.571043 0.391164 1.32809e-20)
(-0.539632 -0.370938 -1.33098e-20)
(-0.873131 -0.0146902 1.43629e-21)
(-1.34832 0.744433 4.30031e-21)
(0.0611086 0.0224861 -2.4001e-20)
(-1.50928 -0.595421 0)
(-0.250647 0.0866069 -6.07533e-21)
(-0.539825 0.0788087 -2.3703e-20)
(-0.448426 -0.178232 3.01577e-20)
(-1.06243 0.313002 8.70341e-21)
(-1.00906 0.26247 3.55724e-23)
(-0.988912 -0.530024 -1.96658e-20)
(-0.919174 -0.519302 0)
(-0.151409 0.137835 1.0115e-20)
(-0.0909788 0.101264 -1.04566e-20)
(-0.0392119 -0.0699557 -2.383e-20)
(-1.38328 0.845051 9.75613e-21)
(-1.57987 -0.439494 -1.47655e-20)
(-1.00332 0.536305 0)
(-1.07034 -0.324498 0)
(-0.091083 -0.103196 -2.33986e-20)
(-1.32747 0.321709 -3.99501e-21)
(-1.17123 -0.744766 0)
(-0.166364 0.164817 0)
(-1.34284 0.646824 -9.0508e-21)
(-1.38295 -0.537976 0)
(0.0526778 -0.0226775 1.08134e-20)
(-0.367664 0.0502515 6.31089e-21)
(-0.391486 -0.030697 9.26921e-21)
(-0.307286 -0.014665 -3.15313e-21)
(-1.15037 0.286791 -1.4291e-20)
(-1.03882 -0.619242 0)
(-0.161155 0.159005 -1.73564e-20)
(-1.01963 0.566723 0)
(-1.10224 -0.315766 1.27495e-20)
(-0.109474 -0.12032 -1.49944e-20)
(-0.93423 0.388149 0)
(-1.0047 0.423164 2.96925e-21)
(-0.591963 0.412481 4.79171e-21)
(-0.561806 -0.395104 3.86014e-20)
(-0.903484 -0.0078412 -3.43621e-20)
(-1.20885 0.330844 -1.45543e-20)
(-1.09788 -0.642387 1.66404e-20)
(-0.110269 0.12642 1.58398e-20)
(-1.3856 0.6555 0)
(0.0666499 -0.0137679 -3.82011e-20)
(-1.4263 -0.573548 -9.50022e-21)
(-0.4526 0.298488 -3.42884e-20)
(-0.563774 -0.367985 0)
(-0.808707 0.0405311 1.11137e-20)
(-0.316252 0.266199 -2.03738e-20)
(-1.13391 0.199022 -1.12416e-20)
(-0.969151 -0.64965 0)
(-1.19452 0.67528 -9.11428e-21)
(-1.29727 -0.381524 -1.09046e-20)
(-0.06806 -0.0994309 6.77992e-21)
(-0.532368 0.390337 1.72583e-21)
(-0.66302 -0.462159 0)
(-0.943534 0.0464921 2.3877e-20)
(-1.2499 0.710714 0)
(-1.28861 0.714398 0)
(-1.36407 -0.41096 -6.83855e-21)
(-0.050886 -0.0893934 -1.76336e-20)
(-1.39444 -0.453113 9.6803e-21)
(-0.0156269 -0.0659701 1.87259e-20)
(0.092392 0.00194077 -1.43936e-20)
(-1.5342 -0.733453 0)
(-1.58151 0.668264 -8.89481e-21)
(-1.15615 0.609368 1.0611e-20)
(-1.22447 -0.408488 0)
(-0.0291917 -0.0723025 6.07839e-21)
(-1.32884 -0.643126 5.78477e-21)
(0.0483893 0.00459577 2.10005e-20)
(-1.29898 0.670255 7.90621e-21)
(-0.661263 0.109426 -1.09764e-20)
(-0.249552 0.136987 0)
(-0.555037 -0.275009 0)
(-1.08606 0.392942 2.0044e-20)
(-1.05528 -0.498341 0)
(-0.0173401 0.0425878 3.42687e-20)
(0.0851004 0.00462315 -1.18276e-20)
(-1.4999 0.636129 2.69835e-20)
(-1.47818 -0.677973 1.29789e-20)
(-0.834979 -0.572614 0)
(-1.03608 0.119687 1.01627e-20)
(-0.41566 0.333345 -2.48653e-20)
(-1.29239 -0.826784 -3.24625e-20)
(-1.47915 0.372396 -9.05956e-21)
(-0.11316 0.124611 0)
(-0.847688 -0.339611 -2.66081e-20)
(-0.0603717 0.00467711 0)
(-1.13769 0.474131 2.15448e-20)
(-1.12166 -0.480605 9.21251e-21)
(0.0169432 -0.0022305 1.0441e-20)
(-0.834156 -0.36153 1.55563e-20)
(-0.0658639 0.0257559 -1.14258e-23)
(-1.45891 0.808182 -6.29213e-22)
(0.0414884 -0.0198602 1.40497e-20)
(-1.60793 -0.540534 -8.36811e-21)
(-0.729644 -0.556388 0)
(-1.05863 0.0367619 2.42203e-21)
(-0.61626 0.476857 0)
(-1.19743 0.50445 -2.19746e-20)
(-1.19721 -0.51321 -1.12271e-20)
(0.0318613 0.00360232 -1.26661e-20)
(-0.912545 0.268897 0)
(-0.851138 -0.439378 -1.55278e-20)
(-0.118919 0.0979527 0)
(-0.908882 0.124406 0)
(-0.737189 -0.473687 0)
(-0.356926 0.262754 0)
(-0.662631 0.270643 -8.49623e-21)
(-0.683638 -0.214594 -1.48268e-20)
(-0.130872 -0.0416149 1.50636e-23)
(-0.368297 0.304211 2.5251e-20)
(-1.10027 0.163868 2.72522e-20)
(-0.91848 -0.624996 1.59797e-20)
(-1.56982 0.599016 -1.10937e-20)
(-1.48228 -0.746652 1.39908e-20)
(0.0758443 0.0118536 -1.76065e-20)
(-1.3038 -0.802585 2.20463e-20)
(-1.46433 0.394461 9.18642e-21)
(-0.0816489 0.107067 1.31042e-20)
(-0.969524 0.668572 -1.90982e-20)
(-0.361337 -0.296847 1.9928e-20)
(-1.16385 -0.173142 -1.54468e-20)
(-1.31998 0.787594 5.31293e-21)
(-1.2752 0.759873 -4.92387e-21)
(-1.41443 -0.394902 -2.1762e-21)
(-1.46937 -0.415781 0)
(-0.0592064 -0.0902569 -6.44357e-21)
(-0.0776574 -0.105544 -5.71815e-21)
(0.0553133 0.010822 -2.84436e-20)
(-1.38511 -0.628661 -6.37646e-21)
(-1.32116 0.681547 2.93665e-21)
(-1.37292 0.759765 -3.05594e-22)
(0.0646983 0.0242027 3.31997e-20)
(-1.54898 -0.592762 0)
(-1.1353 0.345349 -3.23187e-20)
(-1.06454 -0.567825 -4.32235e-21)
(-0.0753217 0.0983502 0)
(0.0919243 0.00315084 -3.58501e-20)
(-1.55742 0.66304 8.85519e-21)
(-1.53181 -0.70825 0)
(-1.10063 0.694998 2.71719e-20)
(-1.15815 0.713841 -2.03008e-20)
(-1.24291 -0.288529 1.18336e-20)
(-1.29159 -0.322514 4.47015e-21)
(-0.196148 -0.182691 -1.12752e-20)
(-0.148747 -0.150294 -5.65528e-21)
(0.0449214 0.0022907 0)
(-1.45448 -0.841238 0)
(-1.66748 0.536929 3.11191e-21)
(-1.26355 0.734399 -5.04677e-21)
(0.0541638 0.0268327 0)
(-1.47225 -0.569878 0)
(-0.488267 -0.00725319 -2.46009e-23)
(-0.345755 0.115697 1.34786e-20)
(-0.325396 -0.111286 6.70333e-21)
(-1.37716 0.708515 -8.03967e-21)
(-1.46767 -0.647843 3.90184e-21)
(0.0640598 0.0118568 1.5575e-21)
(-0.827807 0.511675 0)
(-0.967932 -0.166073 -2.05936e-20)
(-0.300311 -0.239062 -8.54754e-23)
(-1.60637 0.628932 2.41841e-22)
(-1.51222 -0.77597 1.86377e-20)
(0.0816435 0.00319843 1.49243e-23)
(-1.17938 -0.656302 1.83728e-22)
(0.0383651 -0.0124584 -1.21208e-20)
(-1.2655 0.570819 -2.44882e-21)
(-0.479773 0.290114 -1.25107e-20)
(-0.432781 -0.26837 1.1811e-20)
(-0.724827 -0.0151793 3.52526e-20)
(-0.591674 0.120605 0)
(-0.524378 -0.218508 -3.34484e-20)
(-0.211157 0.0799222 1.68801e-20)
(-1.50383 0.766433 0)
(0.0831515 0.00908631 1.66257e-20)
(-1.5982 -0.656683 -1.78539e-22)
(-0.635796 0.136831 0)
(-0.563193 -0.24914 -1.16501e-20)
(-0.201476 0.0993656 -2.39003e-20)
(-0.453422 -0.00213982 1.39811e-20)
(-0.333851 0.0867487 -7.13608e-21)
(-0.32605 -0.0852494 3.54957e-21)
(-0.469854 0.379833 1.21983e-20)
(-1.11813 0.118013 -9.57208e-21)
(-0.889023 -0.648038 1.75905e-20)
(-0.604202 0.040096 0)
(-0.441782 -0.214364 0)
(-0.319117 0.172624 1.98644e-21)
(-0.651737 0.0869371 1.73745e-20)
(-0.515965 -0.256102 8.90395e-21)
(-0.290943 0.167627 2.80836e-22)
(-0.907811 0.634308 2.90073e-20)
(-1.11195 -0.139572 -1.56175e-20)
(-0.417126 -0.339764 -1.96497e-20)
(0.0855945 0.000818221 2.51182e-20)
(0.0911587 0.00155184 -2.54924e-20)
(-1.60226 -0.646354 5.24788e-21)
(-1.5876 -0.666406 3.73655e-21)
(-1.52025 0.763349 0)
(-1.53652 0.748701 -7.2859e-21)
(-1.59742 0.596936 1.37974e-20)
(-1.49522 -0.766497 -1.19004e-20)
(0.0750492 0.0104464 2.18274e-20)
(-0.347228 -0.297531 -1.27326e-20)
(-1.02786 0.721574 5.94086e-21)
(-1.22356 -0.189203 1.96802e-20)
(-0.60381 0.394948 -1.21275e-20)
(-0.467439 -0.324102 -1.21873e-20)
(-0.850892 -0.0440774 1.097e-20)
(-1.27082 0.244234 0)
(-1.09482 -0.733832 1.1394e-20)
(-0.269122 0.233678 3.86643e-22)
(-1.282 -0.731561 4.49426e-21)
(0.0560544 -0.0265418 -1.12921e-20)
(-1.47515 0.575553 -2.95793e-21)
(0.000125243 0.041218 0)
(-1.62846 0.487785 0)
(-1.42435 -0.860519 8.17072e-21)
(-1.51691 0.712195 5.55078e-21)
(0.0849424 0.00278582 0)
(-1.54299 -0.699205 -5.18967e-21)
(0.0308826 -0.007591 -4.50843e-32)
(-1.11718 -0.626468 -1.90676e-21)
(-1.17971 0.556354 2.11376e-21)
(-1.17618 -0.556659 2.10978e-21)
(0.0311758 0.00708495 4.49764e-32)
(-1.12227 0.627847 -1.89785e-21)
(-1.21682 -0.652861 -2.24896e-20)
(-1.29969 0.424449 0)
(-0.0240687 0.0731718 -3.37023e-20)
(-1.41384 -0.812412 -2.77449e-21)
(0.0579807 -0.0196501 -1.15285e-20)
(-1.65066 0.560855 0)
(-1.42043 0.591201 -1.36045e-20)
(-1.39482 -0.647632 1.21251e-20)
(0.0697572 0.0109687 1.74607e-20)
(-1.44562 0.84589 1.90603e-20)
(0.0429266 0.00383604 1.0092e-20)
(-1.6747 -0.536199 0)
(-0.782624 0.316319 6.60473e-21)
(-0.0779272 -0.0111085 -6.69406e-21)
(-0.808524 -0.302448 6.43597e-21)
(-1.45122 -0.851674 4.11112e-21)
(0.0329943 0.0137644 1.21827e-20)
(-1.65902 0.522534 3.76683e-21)
(-1.22119 0.217501 -1.09818e-20)
(-0.309176 0.264193 -6.91259e-21)
(-1.04571 -0.706774 0)
(-1.19445 -0.736416 0)
(-1.33651 0.349474 0)
(-0.121871 0.13797 0)
(0.00852264 0.000176193 0)
(-0.697863 -0.35925 -2.12895e-22)
(-0.697245 0.358133 2.12572e-22)
(-1.31382 -0.672143 3.48489e-21)
(0.0504215 -0.00385609 -1.4627e-20)
(-1.33629 0.649287 -3.74442e-21)
(-0.711468 0.274013 -1.69247e-20)
(-0.103599 -0.010092 1.59372e-20)
(-0.726889 -0.265329 7.56442e-21)
(-1.48211 -0.803748 1.53157e-20)
(-1.64674 0.590445 -6.34626e-21)
(0.0676674 -0.00206984 0)
(0.0428963 -0.00420142 -1.27598e-20)
(-1.68154 0.534324 0)
(-1.43251 -0.849766 -1.14861e-20)
(-1.53603 0.700458 -8.13934e-21)
(0.0928307 0.000119672 3.83963e-20)
(-1.55093 -0.67271 0)
(0.00663344 -0.0434684 -2.8805e-20)
(-1.56699 -0.493598 9.72314e-21)
(-1.41085 0.810863 0)
(-0.875662 0.64162 -3.64509e-20)
(-1.11437 -0.112756 1.98858e-20)
(-0.486562 -0.393523 -6.24819e-21)
(-1.37453 -0.355571 3.2576e-21)
(-1.224 0.764806 1.172e-20)
(-0.133138 -0.141728 -1.76638e-20)
(0.00272384 -0.0364025 -2.58043e-20)
(-1.42692 0.855697 0)
(-1.63894 -0.489519 0)
(-0.875595 0.502168 -5.93732e-21)
(-0.951282 0.547197 0)
(-0.972582 -0.226044 -2.14157e-20)
(-1.05254 -0.263333 2.29214e-20)
(-0.198485 -0.163911 3.082e-21)
(-0.168814 -0.155569 -3.28424e-21)
(-0.816822 0.486998 5.69476e-21)
(-0.939378 -0.184162 0)
(-0.258293 -0.203286 5.87327e-21)
(-1.08232 0.712229 0)
(-1.24194 -0.265142 -1.91248e-20)
(-0.238716 -0.213089 4.07125e-21)
(-1.26715 -0.769907 -1.11737e-20)
(-1.41749 0.384147 9.72052e-21)
(-0.0841541 0.109053 -2.6829e-20)
(-1.47799 -0.807274 0)
(-1.61121 0.579655 2.02342e-20)
(0.0617589 0.0116896 0)
(-0.0212653 0.0694958 -8.65965e-21)
(-1.457 0.448649 -5.93726e-21)
(-1.33211 -0.763305 -7.23275e-21)
(-1.24645 -0.561592 -2.60531e-22)
(0.0374027 0.0124694 7.81482e-21)
(-1.17123 0.654567 0)
(-0.582454 0.32462 1.14471e-20)
(-0.591145 0.311527 0)
(-0.29988 -0.189328 0)
(-0.72834 -0.0947298 4.27531e-20)
(-0.256776 -0.157481 0)
(-0.710864 -0.121635 -2.72183e-20)
(-0.972397 0.637434 0)
(-0.889421 0.584063 0)
(-0.329216 -0.266682 1.73629e-23)
(-1.1295 -0.210971 1.23153e-20)
(-0.289566 -0.238822 2.98586e-20)
(-1.05644 -0.174371 -2.62452e-20)
(-1.14519 -0.679547 0)
(0.0412253 -0.0219326 1.65324e-20)
(-1.32517 0.556091 0)
(-1.48718 -0.794058 -9.62539e-21)
(-1.636 0.597609 2.09611e-21)
(0.071314 0.00140009 7.68905e-21)
(-0.659917 0.454403 -2.07166e-20)
(-0.537263 -0.394177 -1.383e-20)
(-0.937058 -0.0363683 3.55458e-20)
(-1.20128 -0.785806 2.4237e-20)
(-1.37899 0.307996 2.52708e-20)
(-0.186088 0.180331 0)
(-0.0136363 -0.0584252 3.08016e-20)
(-1.54403 -0.471994 -1.03369e-20)
(-1.38725 0.810452 1.23641e-20)
(-1.42338 -0.708079 0)
(-1.47923 0.66351 0)
(0.0686237 -0.00662222 0)
(-1.43881 -0.733261 0)
(-1.51992 0.648717 4.69223e-21)
(0.073697 -0.0121584 2.78727e-21)
(-1.15178 0.685652 -1.13383e-20)
(-1.26905 -0.347731 6.75164e-21)
(-0.114626 -0.128191 8.36358e-21)
(-0.405647 0.267527 -3.25445e-21)
(-0.574523 -0.353789 0)
(-0.781774 0.0640304 -1.57319e-22)
(-1.54654 0.715843 9.4837e-21)
(0.0937325 0.000890875 2.22824e-20)
(-1.57334 -0.677877 -4.34965e-21)
(-1.24674 -0.693741 0)
(-1.34563 0.427608 0)
(-0.0295982 0.0819759 2.90755e-20)
(0.0710838 -0.0143081 7.29791e-21)
(-1.48105 -0.588841 1.61187e-20)
(-1.42982 0.700996 2.75212e-20)
(-0.845168 0.567163 0)
(-0.381709 -0.302381 -2.00667e-20)
(-1.02879 -0.145783 1.35047e-20)
(-0.999071 0.210897 1.93429e-22)
(-0.873742 -0.524729 1.17845e-20)
(-0.240306 0.196805 0)
(-0.540268 0.344393 1.18635e-22)
(-0.471678 -0.317146 -4.02851e-21)
(-0.803079 -0.0234623 -1.43708e-20)
(0.0944496 0.00126359 -1.82804e-24)
(-1.55742 -0.714504 9.86455e-21)
(-1.56899 0.693221 9.80722e-21)
(-1.3382 0.686217 -5.19071e-21)
(-1.41115 -0.513933 -5.04297e-21)
(0.0346868 -0.0361281 0)
(-0.487958 0.280841 -1.2414e-20)
(-0.37853 -0.227113 2.57142e-20)
(-0.695975 -0.0376118 -2.32531e-20)
(-1.43441 0.865347 7.80515e-21)
(0.0140781 -0.0220594 1.14456e-20)
(-1.66751 -0.50204 -6.13459e-21)
(-0.75894 0.413728 -7.24684e-21)
(-0.848839 -0.196164 0)
(-0.197958 -0.152102 0)
(-0.766074 0.20283 -3.10403e-20)
(-0.700911 -0.339374 7.17787e-21)
(-0.157125 0.101753 0)
(-1.17481 -0.690283 0)
(-1.28893 0.352891 2.08262e-20)
(-0.0979232 0.124905 0)
(-1.41312 0.798395 -3.70798e-21)
(0.0636656 0.0220555 -3.55087e-21)
(-1.62575 -0.58228 4.78941e-21)
(-1.41044 0.819424 1.03458e-20)
(0.056229 0.0206225 0)
(-1.64889 -0.558701 -5.47258e-21)
(0.060755 -0.0206886 6.58828e-21)
(-1.50335 -0.566882 -9.24003e-21)
(-1.42782 0.725518 -2.53429e-20)
(-1.03289 0.18911 -9.78468e-21)
(-0.900019 -0.569973 -1.18017e-20)
(-0.289723 0.229673 0)
(0.059928 0.0283254 3.25313e-21)
(-1.58644 -0.575792 -4.48146e-21)
(-1.34781 0.777634 0)
(0.0756769 0.0111799 0)
(-1.43677 -0.679705 -9.51808e-21)
(-1.47475 0.603049 -3.15976e-21)
(0.0224395 -0.0111473 1.3268e-20)
(-0.958001 -0.592746 2.53348e-21)
(-1.07136 0.477978 0)
(-0.95943 0.593103 -2.49362e-21)
(-1.06979 -0.478699 0)
(0.0227732 0.0108088 1.32721e-20)
(0.0155329 -0.0327045 -1.60912e-23)
(-1.612 -0.509746 0)
(-1.43071 0.835485 0)
(0.0905736 -0.00203716 0)
(-1.53624 -0.735397 0)
(-1.58223 0.683808 1.21426e-20)
(-1.50605 0.764317 -8.50574e-21)
(-1.4908 0.749434 6.88041e-21)
(0.0782869 -0.00464022 -1.26038e-20)
(-1.60085 -0.610143 -1.78914e-21)
(0.0778694 -0.00793813 -2.0491e-20)
(-1.57106 -0.607846 3.50151e-21)
(-1.48012 0.572952 6.21771e-21)
(-1.42079 -0.704297 6.40571e-21)
(0.0650425 0.0191038 0)
(-0.252596 0.228614 0)
(-1.14673 -0.781062 0)
(-1.3396 0.265218 0)
(-0.560002 0.259764 0)
(-0.215631 -0.10728 -3.53872e-20)
(-0.644684 -0.131001 1.49133e-20)
(-1.44384 0.496506 1.81565e-20)
(-1.35063 -0.725177 2.45074e-21)
(0.0224649 0.0462582 2.55047e-20)
(-0.00477684 0.0628192 1.65993e-20)
(-1.42448 0.467565 -2.52773e-20)
(-1.31622 -0.731224 -3.39615e-21)
(-1.40197 0.872423 9.46165e-21)
(-0.0307335 -0.0586542 1.23442e-20)
(-1.62613 -0.449662 1.54033e-20)
(-1.00003 0.665118 0)
(-1.16872 -0.215018 5.6933e-21)
(-0.296036 -0.248751 -2.92695e-20)
(-0.888424 0.554464 0)
(-1.0236 -0.188704 2.70407e-20)
(-0.284599 -0.235361 -4.16755e-23)
(-1.29489 0.477108 -2.45107e-20)
(-1.24779 -0.622511 3.11345e-21)
(0.0235189 0.039245 -1.46723e-20)
(-1.32882 0.46991 0)
(-1.26168 -0.650323 2.9267e-21)
(0.0125014 0.0488906 1.345e-20)
(-0.436514 0.241446 0)
(-0.379497 -0.210555 -4.06573e-20)
(-0.648667 -0.0197914 1.30423e-20)
(-0.976001 0.577189 0)
(-1.08246 -0.262085 0)
(-0.180794 -0.170175 4.43426e-21)
(0.0121334 0.0242693 -2.63749e-20)
(-1.42757 -0.869017 -2.26625e-20)
(-1.66679 0.49922 0)
(-1.55121 0.621462 5.42583e-21)
(0.06853 -0.0193743 0)
(-1.38627 -0.754197 3.39341e-21)
(-1.53609 0.584002 -5.24359e-22)
(0.0616882 -0.0255928 0)
(-1.34044 -0.751762 -9.45564e-21)
(-0.681498 0.417822 8.53291e-21)
(-0.347481 -0.244931 -4.32874e-21)
(-0.845975 -0.11257 -2.97046e-22)
(-1.34831 -0.692643 4.53562e-22)
(0.059365 -0.0105811 2.23908e-20)
(-1.43499 0.637587 0)
(-1.3866 0.725694 2.20534e-20)
(0.0399747 -0.0326715 1.39331e-20)
(-1.47158 -0.529002 0)
(0.0532545 -0.0206018 -3.32672e-21)
(-1.2771 -0.715393 -4.30697e-21)
(-1.42538 0.590623 0)
(-0.567324 0.158209 2.11384e-20)
(-0.183845 0.0327541 2.14566e-20)
(-0.540304 -0.187639 4.34501e-23)
(-1.0445 0.46798 -3.70323e-21)
(-1.06661 -0.413744 -3.43409e-21)
(-0.00979968 -0.0272499 -1.53227e-20)
(-0.824325 -0.536905 2.68701e-20)
(-0.988661 0.151434 2.33247e-20)
(-0.34819 0.266196 0)
(0.0592092 -0.012828 0)
(-1.43778 -0.817595 -3.71358e-21)
(-1.6583 0.568784 0)
(-1.22478 -0.710297 0)
(-1.34426 0.401709 0)
(-0.0586228 0.0989791 0)
(0.0378122 -0.00788301 0)
(-1.45511 0.844721 -6.83356e-21)
(-1.66692 -0.532177 6.03302e-21)
(-1.12024 0.501743 0)
(-1.12999 -0.456383 1.73688e-21)
(0.0106356 -0.0185195 1.49764e-20)
(-0.523481 0.230355 0)
(-0.219934 -0.0933644 3.03928e-20)
(-0.603532 -0.11876 0)
(-1.47673 -0.800992 -1.44618e-20)
(-1.63305 0.60709 6.04076e-21)
(0.0719024 -0.009145 0)
(0.0849941 -0.000803755 -1.52287e-20)
(-1.47489 -0.651407 6.05673e-22)
(-1.47039 0.660013 5.20917e-22)
(-1.46478 0.764779 0)
(-1.44131 0.757062 6.23097e-21)
(0.0760181 0.0152561 -8.18923e-21)
(0.0740472 0.0158367 -1.00748e-20)
(-1.5911 -0.626985 -3.20851e-21)
(-1.56667 -0.634937 2.63969e-21)
(-1.01306 0.324657 0)
(-0.956058 -0.494111 4.60091e-20)
(-0.0787993 0.0822667 1.63496e-20)
(-1.15302 -0.615113 3.15489e-20)
(-1.23531 0.388997 0)
(-0.0411329 0.0818395 -1.78079e-20)
(-0.713111 0.222974 -1.7482e-20)
(-0.686792 -0.290093 1.23152e-20)
(-0.118853 0.0474597 2.60056e-20)
(-1.42489 -0.78084 8.28436e-21)
(-1.60141 0.610646 6.3544e-21)
(-1.40232 -0.795068 -3.83202e-21)
(0.0702558 -0.0182553 0)
(-1.61717 0.582253 -6.1233e-21)
(0.0627422 -0.0219963 0)
(-1.27007 0.568183 0)
(-1.2776 -0.542855 0)
(0.0471462 -0.00611054 1.65546e-20)
(-1.61923 0.626192 9.81129e-21)
(-1.60497 0.62646 -1.80274e-20)
(-1.49167 -0.779583 5.42106e-21)
(-1.4698 -0.770578 -1.43627e-20)
(0.07906 -0.00933932 2.25743e-20)
(0.0770996 -0.0124169 -5.57542e-24)
(-1.18447 0.363081 0)
(-1.10358 -0.613198 -2.96189e-20)
(-0.0817559 0.109114 2.31105e-20)
(-0.944282 0.358366 1.63446e-20)
(-0.987557 -0.426984 -2.07391e-20)
(-0.0197936 0.0130965 0)
(-1.45143 0.828661 0)
(0.0564422 0.0108668 0)
(-1.66044 -0.565451 5.26267e-21)
(-1.02895 0.356688 1.20297e-20)
(-0.984774 -0.478607 -1.28036e-20)
(-0.0476093 0.0591287 -2.70512e-20)
(-0.794923 0.266664 7.01317e-21)
(-0.77432 -0.34087 -1.44612e-20)
(-0.0897679 0.0415206 1.50495e-20)
(-1.4417 0.786019 0)
(0.0711013 0.0173451 0)
(-1.62299 -0.60785 -7.32107e-21)
(-1.14284 0.53588 0)
(-1.17863 -0.443 3.57824e-21)
(0.0116265 -0.0354431 -1.65063e-20)
(-1.02274 -0.716147 0)
(-1.21302 0.193292 0)
(-0.362497 0.305256 -8.9223e-22)
(-0.848671 0.586225 -9.37235e-22)
(-1.05011 -0.127042 0)
(-0.419415 -0.334366 3.08042e-20)
(-1.33926 -0.861664 1.25564e-20)
(-0.0915222 0.105046 0)
(-1.5455 0.396242 0)
(0.0165847 -2.41418e-05 -3.19054e-20)
(-0.915113 -0.477008 2.97829e-22)
(-0.914972 0.476059 -2.97476e-22)
(-1.07734 0.42208 0)
(-1.0496 -0.464454 1.26974e-20)
(-0.00384945 0.016911 -1.37794e-20)
(-1.48908 0.803487 1.30993e-20)
(0.0697556 0.00342243 4.25903e-20)
(-1.63972 -0.591167 0)
(-0.608634 -0.473999 -8.2542e-21)
(-1.06906 -0.0386943 -1.31771e-20)
(-0.744949 0.558482 -8.24631e-21)
(-1.12649 0.676006 0)
(0.0405668 0.0220574 -1.18546e-20)
(-1.31892 -0.547584 0)
(-0.293469 0.193015 1.61506e-20)
(-0.327353 0.223131 -1.65149e-20)
(-0.608966 -0.345681 0)
(-0.754847 0.109948 1.49511e-20)
(-0.646684 -0.385706 -2.60729e-20)
(-0.802407 0.102411 -1.19775e-20)
(-0.696166 0.18808 1.64517e-20)
(-0.642025 -0.284982 1.63605e-20)
(-0.156387 0.0799956 0)
(-0.416546 0.259318 1.43741e-20)
(-0.347137 0.218844 0)
(-0.49584 -0.298599 -1.45488e-20)
(-0.725453 0.02601 1.33752e-20)
(-0.522395 -0.296613 1.4662e-20)
(-0.707435 0.0599773 7.63599e-23)
(-1.0173 0.400028 1.03207e-21)
(-0.9196 -0.411952 -9.08796e-21)
(-0.0453219 0.0322132 -1.8446e-20)
(-0.947975 0.337899 -2.80851e-20)
(-0.921715 -0.429405 2.39079e-22)
(-0.0579635 0.0508647 0)
(0.0581437 -0.0282664 0)
(-1.33809 -0.781338 0)
(-1.58557 0.566885 5.52234e-21)
(-0.74568 0.441192 -7.86531e-21)
(-0.873842 -0.150561 0)
(-0.281261 -0.208095 8.02648e-21)
(-1.60292 0.652704 -1.95979e-20)
(-1.52128 -0.762594 6.92654e-21)
(0.0873462 -0.00338555 -1.28708e-20)
(-1.33025 0.523746 0)
(-1.38653 0.54913 1.30714e-20)
(-1.29928 -0.61663 -3.88362e-21)
(-1.35025 -0.643555 1.18989e-20)
(0.0471252 0.023523 -1.82153e-20)
(0.0571898 0.0206278 -1.68514e-20)
(-0.716211 0.405047 0)
(-0.831197 -0.160837 0)
(-0.248324 -0.182117 3.82142e-21)
(-1.05405 0.651655 9.1308e-21)
(-1.17882 -0.274775 0)
(-0.196371 -0.180182 9.70767e-21)
(-1.21812 0.494684 -6.97542e-21)
(-1.20185 -0.551656 0)
(0.0317689 0.0182364 0)
(-0.408406 0.148871 1.63309e-20)
(-0.513237 -0.054422 -8.01344e-21)
(-0.273813 -0.0942845 8.22995e-21)
(-1.4025 0.508219 0)
(-1.33246 -0.68736 0)
(0.0323184 0.0393961 -2.71263e-20)
(-0.52568 0.261916 0)
(-0.267799 -0.145738 4.46795e-21)
(-0.648544 -0.0939585 0)
(-1.18487 0.393538 -1.59517e-20)
(-1.1135 -0.58862 -1.6576e-20)
(-0.0371941 0.073337 -2.31108e-21)
(-1.04592 0.620036 9.27846e-21)
(-1.15526 -0.294476 0)
(-0.156794 -0.156536 2.00588e-20)
(-0.438003 0.185901 -1.61889e-20)
(-0.414314 0.187695 -7.1924e-21)
(-0.557218 -0.0682005 7.90279e-21)
(-0.273103 -0.116085 -1.6315e-20)
(-0.574771 -0.0421339 0)
(-0.314771 -0.149552 -2.90111e-20)
(-0.376014 0.207788 -7.19465e-21)
(-0.422898 -0.230319 1.90258e-20)
(-0.343342 0.202703 4.62651e-21)
(-0.63872 0.0160157 -1.80893e-20)
(-0.501885 -0.277242 -9.20317e-21)
(-0.678483 0.0542778 3.34667e-22)
(-0.848604 0.468749 8.59747e-21)
(-0.915109 0.487215 0)
(-0.934872 -0.235699 1.5994e-20)
(-0.980951 -0.27867 -1.2502e-20)
(-0.168207 -0.140295 -1.78874e-20)
(-0.118507 -0.109734 2.97482e-20)
(0.0276401 -0.0349615 0)
(-1.53975 -0.518917 -5.60986e-21)
(-1.41564 0.778414 -1.27546e-20)
(-0.400108 0.329056 1.08467e-20)
(-1.14345 0.15932 1.51075e-20)
(-0.948591 -0.666927 -2.78052e-20)
(0.0470879 -0.0221454 -1.43746e-20)
(0.0632384 -0.0164167 1.15075e-20)
(-1.56872 -0.553369 4.85779e-21)
(-1.55043 -0.575861 8.45638e-21)
(-1.44689 0.784612 3.23287e-20)
(-1.45989 0.758664 -1.67792e-20)
(-0.569052 0.424711 1.51711e-20)
(-0.682075 -0.488371 -1.31794e-20)
(-0.979367 0.0338355 3.47926e-21)
(-0.383862 0.0863107 2.76657e-20)
(-0.281579 -0.0370667 0)
(-0.431993 -0.047138 -2.75018e-20)
(-1.42608 0.542588 -6.17631e-21)
(-1.36806 -0.68238 -1.34494e-20)
(0.0517852 0.0272761 0)
(-0.637847 0.359287 0)
(-0.292642 -0.204218 -3.64074e-21)
(-0.774544 -0.113611 -1.38683e-20)
(-1.08814 0.634356 0)
(-1.19237 -0.322252 0)
(-0.125369 -0.134998 -1.86585e-20)
(-1.35053 0.779456 -1.40905e-20)
(-1.3448 0.75036 0)
(-1.48781 -0.462178 3.17994e-21)
(-0.0210853 -0.0665892 -1.76413e-20)
(-1.46146 -0.47289 -8.65892e-21)
(-0.00384833 -0.0579039 2.38883e-20)
(-1.32172 0.569009 1.30988e-20)
(-1.32207 -0.575985 1.27607e-20)
(0.0584802 0.00255961 9.89949e-21)
(-1.22954 0.695665 5.84079e-21)
(-1.39332 -0.579872 0)
(0.0500795 0.0204129 -4.84296e-21)