/*--------------------------------*- C++ -*----------------------------------*\
  =========                 |
  \\      /  F ield         | OpenFOAM: The Open Source CFD Toolbox
   \\    /   O peration     | Website:  https://openfoam.org
    \\  /    A nd           | Version:  6
     \\/     M anipulation  |
\*---------------------------------------------------------------------------*/
FoamFile
{
    version     2.0;
    format      ascii;
    class       volScalarField;
    location    "0";
    object      p;
}
// * * * * * * * * * * * * * * * * * * * * * * * * * * * * * * * * * * * * * //

dimensions      [0 2 -2 0 0 0 0];

internalField   nonuniform List<scalar> 
13046
(
1.46347
1.33914
1.65952
1.42604
1.6257
1.429
1.39278
1.42443
1.65634
1.02982
0.967772
1.88129
1.40281
1.31566
1.70314
1.18848
1.86271
0.960657
1.57541
1.52822
1.39221
1.155
1.86864
0.970059
1.46883
1.4084
1.6103
1.4032
1.2893
1.71649
1.48562
1.30643
1.65707
1.48781
1.58912
1.42004
1.47605
1.58054
1.44831
1.57115
1.61916
1.23964
1.47531
1.53456
1.49968
1.45223
1.54404
1.50913
1.43285
1.34887
1.66967
1.57348
1.65183
1.13766
1.56218
1.11398
1.67463
1.01848
1.42836
1.77451
1.23618
1.35159
1.76179
1.84255
1.12083
1.17996
1.46804
1.01607
1.75151
1.48566
1.03314
1.73862
0.991358
1.41388
1.7851
1.5754
1.55395
1.3605
1.81602
1.34635
0.9961
1.44481
1.40925
1.62511
1.85195
1.09074
1.1496
1.07754
1.84112
1.22276
1.83342
0.951833
1.2978
1.32006
1.28177
1.2197
1.21332
1.77948
1.79855
1.83853
1.06494
1.2594
1.43792
1.57094
1.49291
1.67905
1.18768
1.5265
1.62215
1.58945
1.18588
0.835657
1.89304
0.79699
1.41883
1.34
1.6808
1.32296
1.33855
1.14443
1.79899
1.18195
1.78302
0.997886
0.919967
1.88965
1.37085
1.23823
1.75633
1.54965
1.63777
1.24025
1.81783
0.976925
1.33374
1.21258
1.21154
1.81948
1.47447
1.28621
1.67378
1.29693
1.43965
1.69397
1.64046
1.57118
1.17575
1.66961
1.22068
1.52675
1.23515
1.31934
1.7749
1.65949
1.30068
1.49546
1.50116
1.10894
1.47101
1.10668
1.71881
1.73945
1.25735
1.461
1.69181
0.996153
1.88417
1.01454
0.911154
1.88913
0.840952
1.21035
1.17847
1.82914
1.55627
1.15718
1.66602
1.26191
1.67408
1.4839
1.88141
1.07961
0.989137
1.56372
1.18507
1.64589
1.6628
1.27176
1.50208
1.31845
1.44648
1.67633
1.31409
1.73054
1.38057
1.26881
1.73681
1.09257
1.85334
1.14875
1.82256
1.03346
1.31151
0.988055
1.25217
1.84026
1.58988
1.06589
1.65171
1.3587
1.3688
1.81385
0.978893
1.2028
0.977762
1.86122
1.4442
1.59064
1.46549
1.43344
1.28023
1.70678
1.82084
1.00644
1.33679
1.34519
1.33879
1.72904
1.8972
0.949218
0.895493
1.66757
1.06459
1.57067
1.02256
1.27551
1.83261
1.17594
1.46541
1.72037
1.38351
1.21742
1.75677
1.42041
1.00213
1.77858
1.07347
1.46305
1.74712
1.89269
0.953871
0.842763
1.60679
1.6199
1.16491
0.891129
1.88526
0.697941
1.58671
1.40245
1.50413
1.21716
1.21008
1.42646
1.45605
1.71843
1.72577
1.82072
1.32078
0.977736
1.41884
1.22204
1.73528
1.06246
1.42942
1.77014
1.26655
1.1756
1.80979
1.49825
1.47551
1.53612
1.14332
1.44878
1.74045
1.43158
1.19038
1.7394
1.36301
1.34656
1.6148
1.62008
1.13771
1.14054
1.41818
1.75567
1.23084
1.82245
1.16938
1.62444
1.58239
1.20996
1.71974
1.07724
1.50844
1.38617
1.12552
1.77183
1.64072
1.59236
1.12665
1.36543
1.33506
1.1063
1.78617
1.11044
1.80259
1.87473
1.09299
1.03126
1.36332
1.18782
1.77184
0.611745
1.89824
0.670103
1.33911
1.62094
1.50473
1.26745
1.36084
1.74556
1.84567
1.13025
1.17141
1.56114
1.08358
1.68026
1.38728
1.00363
1.79486
1.3748
1.70025
1.29121
1.3044
1.76115
1.38778
1.69874
1.22556
1.84798
0.991084
1.60848
1.03846
1.64801
1.27124
1.29155
1.77407
1.26837
1.44351
1.70501
1.17598
1.54153
1.66844
1.4389
1.37727
1.65276
1.69978
1.07868
1.5308
1.04898
1.18961
1.8486
1.37794
1.02041
1.79944
1.52185
1.70648
1.05341
1.35662
1.37555
1.06435
1.04197
1.79886
1.78705
1.88931
0.653976
0.748731
0.942648
1.88779
0.739595
1.20071
1.41196
1.739
1.8582
1.08402
1.11007
1.45003
1.42736
1.08545
1.08315
1.75052
1.76415
1.85955
1.17486
0.894833
0.866937
1.89147
0.611519
1.4122
1.5415
1.54674
0.832759
0.716234
1.88917
1.52502
1.16714
1.68446
0.991525
1.11365
1.88058
0.640761
1.88251
0.520704
1.57774
1.5993
1.26663
1.38223
1.49552
1.60872
1.01884
1.8926
0.896264
1.35574
1.49379
1.62283
1.43638
1.53399
1.53675
1.68937
1.03482
1.56409
1.33677
1.55405
1.58586
1.33874
1.52412
1.60609
1.54449
1.05835
1.6896
1.88202
1.88474
0.990488
1.00274
1.10506
1.07517
1.00778
1.17862
1.85641
1.72301
1.51476
1.02275
1.58275
1.62581
1.1895
1.04338
1.47862
1.73858
0.865171
1.88766
0.63304
1.84484
0.950618
1.26352
0.933837
1.89316
0.895147
1.87368
0.556165
0.472092
0.475637
1.87391
0.555734
1.36104
1.15723
1.77764
1.08013
1.87497
0.796012
1.17446
1.22523
1.82492
1.1647
1.86688
0.862175
1.39183
1.68301
1.37692
1.20552
1.85618
0.920607
1.04878
1.72543
1.49628
1.40546
1.07463
1.77899
1.85743
0.209854
0.209027
0.675063
1.89659
0.631123
1.41161
1.66582
1.39134
1.14301
0.908669
1.86766
1.87104
0.846395
1.16041
1.10532
1.85872
1.09029
1.83355
1.01542
1.27753
1.56884
1.03451
1.68544
1.05211
1.40828
1.78177
1.84508
1.26952
0.934055
1.47751
1.46352
1.2076
1.18524
1.7026
1.72144
1.50565
1.19976
1.68718
1.47431
1.05961
1.74776
1.38679
1.05083
1.78961
1.17339
0.985439
1.86968
1.80666
1.06792
1.33458
0.511511
1.88
0.634596
1.53748
1.51458
1.63231
1.28273
1.63812
1.30699
1.50693
1.51859
1.69933
1.09587
1.71848
1.12007
0.711322
1.88508
0.509357
1.15485
0.940333
1.86764
1.59831
1.6291
1.12629
1.4407
1.02334
1.76638
1.82464
1.01973
1.30376
0.824686
0.767604
1.8922
0.891859
0.794306
1.89348
1.41207
1.11378
1.76968
1.63108
1.56273
1.23477
1.08716
1.86854
1.04858
1.35951
1.12095
1.79251
1.83941
1.12364
1.21964
1.5384
1.68894
1.11407
1.17785
1.49229
1.70113
1.58936
1.6133
1.2152
1.8762
1.05616
1.04136
1.28675
1.14129
1.81243
1.56296
1.60444
1.28906
1.23842
1.85552
0.901513
1.48133
1.26115
1.68079
1.32429
1.46371
1.66679
1.40748
1.10889
1.76756
1.04348
1.88459
0.779843
1.08918
1.88143
0.79284
1.83966
1.09371
1.23552
1.14225
1.51307
1.69999
1.88746
0.717832
0.99222
1.83478
1.20365
1.14429
1.87316
0.501945
0.353264
0.500854
0.353194
1.87404
1.84777
0.969491
1.26074
1.88886
1.00532
0.945143
1.15743
1.17499
1.85908
1.00944
1.85216
1.04924
1.11707
1.23472
1.83305
1.75783
1.46923
1.00903
1.50092
1.6236
1.3515
1.10458
1.29368
1.81891
1.81016
1.10224
1.32148
1.30582
1.83234
0.935102
1.50461
1.06958
1.72563
1.5132
1.14788
1.6953
1.19083
1.31643
1.79383
1.16366
1.3233
1.79678
1.56554
1.58358
1.32055
1.46748
1.15702
1.72942
1.8559
1.2418
0.901838
0.746695
1.8931
0.939649
0.695523
1.88366
0.93538
1.54227
1.65529
1.21435
0.780721
1.88719
0.678114
1.27121
1.82605
1.10214
1.8906
0.793815
0.615003
1.42321
1.61084
1.45653
1.35151
1.29607
1.74322
1.53353
1.14504
1.68421
1.87289
1.11097
0.83876
1.37357
1.10867
1.78778
1.85994
1.19817
0.904668
1.31789
1.28144
1.76535
1.50057
1.61291
1.37242
1.08519
0.884371
1.88305
1.84634
1.15497
1.16713
0.997468
0.953805
1.88192
1.88769
0.848135
0.808839
1.2501
1.41488
1.72805
1.3801
1.17485
1.75998
1.3626
1.43567
1.6649
1.00088
0.793321
1.02189
1.89155
0.778663
1.88623
1.26434
1.24322
1.79949
0.890226
0.84627
1.04407
1.00837
1.88344
1.88316
1.16488
1.4038
1.7632
1.31322
1.35581
1.72974
1.12205
1.87872
0.852507
1.27426
1.38347
1.73295
1.34871
1.41535
1.68054
1.042
1.88511
0.825555
1.33733
1.24448
1.76276
1.52048
1.02331
1.71987
1.55427
1.08539
1.68299
1.36731
1.80946
0.968265
1.86812
0.312322
0.312188
1.29211
1.34021
1.74591
1.13101
1.86706
0.930685
1.64665
1.03524
1.60847
0.703742
1.8828
0.499238
1.64005
1.64304
1.53088
1.26882
1.54252
1.24201
1.35433
1.46228
1.64998
1.60113
1.61357
1.57503
1.26689
1.55956
1.27592
1.31177
1.37931
1.72167
1.30017
1.39637
1.72192
1.8881
0.990732
0.707308
1.52017
1.22248
1.66711
0.940845
1.04397
1.8854
1.19817
1.17663
1.28222
1.25953
1.79866
1.81004
1.50476
1.25634
1.66644
1.45925
1.11616
1.73876
1.24524
1.29686
1.78546
1.51679
1.40868
1.57064
1.13943
1.29219
1.81311
1.52142
1.61255
1.3381
1.20038
1.37562
1.76682
1.44257
1.14882
1.74066
1.51897
1.5403
1.3815
1.59028
1.36614
1.58173
1.582
1.56066
1.60647
1.32557
1.55944
1.29809
1.46662
1.44191
1.23657
1.24501
1.70057
1.71238
1.83334
1.04273
1.2694
1.70306
1.04822
1.5378
1.84991
1.85077
1.02735
1.05714
1.23369
1.21165
1.63853
1.60578
1.09423
1.50111
1.54947
1.45745
1.14597
1.26067
1.82025
1.53478
1.64357
1.25939
1.42362
1.14857
1.75223
1.3279
1.31887
1.04917
1.81765
1.0782
1.81441
1.23464
1.24233
1.8021
0.771749
0.590607
1.88576
1.62898
1.05387
1.62127
1.58769
1.58654
1.6617
1.05088
1.66099
1.07291
1.07549
1.35998
1.79746
1.47782
1.12166
1.72743
1.61895
1.62343
1.09506
1.57552
1.56024
1.64943
1.66957
1.12514
1.13052
1.57219
1.66641
1.09152
1.22517
1.27089
1.79822
1.54152
1.59375
1.34254
1.06228
1.87877
0.917518
1.61388
1.63526
1.07399
1.41486
1.38409
1.17056
1.15858
1.74989
1.77319
1.87321
0.944039
1.10136
1.11475
1.88013
0.882952
1.07585
1.87841
0.875806
1.28697
1.8264
1.07394
1.48237
1.14956
1.71758
1.3276
1.41466
1.66809
1.34415
1.54837
0.85216
1.44785
1.38393
1.27602
1.5429
1.53946
1.21743
1.3613
1.52408
1.26396
1.39108
1.35972
1.29662
1.38878
1.4607
1.32322
1.31539
1.58761
1.86213
1.70396
1.42384
1.55509
1.2299
1.36801
1.32767
1.23823
1.44594
1.32654
1.26918
1.25704
1.30851
1.68622
1.57271
1.40519
1.48787
1.28873
1.86104
1.27645
1.53375
1.60296
1.23305
1.2303
1.24244
1.23515
1.26059
1.73023
1.31583
1.38536
1.22184
1.24183
1.72906
1.4562
1.33154
1.23402
1.51157
1.25362
1.28701
1.71307
1.40396
1.29792
1.46742
1.35291
1.7323
1.5751
1.57415
1.13715
1.19219
1.40485
1.48969
1.17922
1.27078
1.47154
1.24656
1.52129
1.64356
1.31467
1.27503
1.25861
1.35839
1.15959
1.5271
1.16041
1.37504
1.23736
1.69865
1.38339
1.49765
1.68487
1.27739
1.37919
0.714919
1.26559
1.24072
1.37543
1.13727
1.41132
1.59913
1.60572
1.71437
1.37407
1.32405
1.24253
1.39251
1.2676
1.68719
1.61769
1.45042
1.30939
1.18615
1.49674
1.58701
1.21394
1.37661
1.12473
1.29456
1.27725
1.67361
1.69475
1.5076
1.40201
1.41721
1.21278
1.75922
1.2221
1.4813
1.12272
1.69109
1.26169
1.10233
1.29526
1.64476
1.25117
1.08255
1.31036
1.47335
1.37331
1.5372
1.5239
1.37268
1.60914
1.23094
1.36033
1.66559
1.31552
1.24586
1.22952
1.45424
1.40509
1.6292
1.50576
1.2316
1.49104
1.54234
1.67552
1.46803
1.40508
1.37137
1.57502
1.21907
1.45911
1.24882
1.87507
1.28787
1.62624
1.78477
1.34144
1.7677
1.63529
1.68506
1.32316
1.11711
1.21254
1.67309
1.30684
1.28613
1.19175
1.29117
1.28925
1.24404
1.34653
1.77933
1.49842
1.28856
1.49123
1.24268
1.86367
1.07378
1.60071
1.33022
1.09107
1.76673
1.82249
1.32691
1.24711
1.86992
1.37586
1.34156
1.27573
1.50559
1.67194
1.5447
1.37742
1.23491
1.582
1.44826
1.2202
1.37076
1.1844
1.24742
1.41188
1.49141
1.1346
1.36871
1.61115
1.15032
1.12068
1.22115
1.39159
1.43105
1.39411
1.41526
1.36547
1.27382
1.27753
1.4698
1.51092
1.18579
1.43187
1.21916
1.3033
1.36565
1.30288
1.10047
1.48431
1.66225
1.32823
1.65495
1.65028
1.87423
1.38339
1.06097
1.27179
1.20767
1.42148
1.13973
1.40671
1.73719
1.47664
1.35294
1.38024
1.20315
1.53252
1.29272
1.53467
1.32609
1.29934
1.27101
1.16243
1.35875
1.36138
1.38965
1.22232
1.43716
1.41132
1.18412
1.44058
1.38458
1.27422
1.24088
1.22186
1.18209
1.24186
1.34923
1.17118
1.06427
1.35605
1.20914
1.15494
1.3537
1.11677
1.15878
1.63596
1.44143
1.32742
1.48401
1.2494
1.46128
1.35454
1.16183
1.39002
1.59565
1.23213
1.55818
0.860914
1.34375
1.63181
1.2701
1.30288
1.02328
1.17287
1.11258
1.20022
1.2246
1.4597
1.27612
1.11816
1.2394
1.32156
1.87186
1.29771
1.51154
1.46449
1.11324
1.43593
1.36054
1.22438
1.40065
1.24874
1.75548
1.54031
1.36255
1.28523
1.31561
1.86078
1.55203
1.6968
1.52051
1.3267
1.31689
1.25459
1.23553
1.17221
1.24739
1.36457
1.53578
1.229
1.19005
1.38642
1.41444
1.38566
1.34971
1.60933
1.42741
1.36391
1.67053
1.61009
1.35086
1.43953
1.67486
1.07273
1.09941
1.30974
1.28345
1.24938
1.63846
1.22421
1.42327
1.63933
1.12784
1.40518
1.34632
1.318
1.29224
1.28418
0.761658
1.43918
1.18608
1.1058
1.24001
1.21076
1.55026
1.73353
1.37094
1.491
1.39542
1.24818
1.09174
1.58928
1.52424
1.12041
1.17381
1.46556
1.22248
1.33967
1.3754
1.32266
1.4814
1.68093
1.32447
1.55408
1.76529
1.6121
1.60258
1.68314
1.3633
1.35725
1.24976
1.86542
1.59465
1.62749
1.23793
1.20605
1.10369
1.56505
1.4345
1.29004
1.63174
1.53337
1.23673
1.43135
1.34101
1.3869
1.34037
1.27752
1.20629
1.31929
1.38845
1.18111
1.44021
1.29649
1.52864
1.35079
1.13155
1.68898
1.73491
1.51303
1.23534
1.40535
1.08272
1.5376
1.2916
1.23473
1.67269
0.983245
1.75986
1.15032
1.26623
1.42617
1.51277
1.57689
1.38166
1.81566
1.38666
1.60033
1.25088
1.49261
1.36096
1.33477
1.29135
1.60187
1.4571
1.85881
1.47552
1.17407
1.31996
1.41658
1.03284
1.23596
1.27417
1.29985
1.74186
1.22535
1.20482
1.56778
1.23941
1.75696
1.84055
1.19661
1.8541
1.72285
1.63353
1.63335
1.35125
1.24304
1.25632
1.28335
1.58863
1.39017
0.983923
1.81199
1.25681
1.20241
1.254
1.69918
1.86776
1.22792
1.61202
1.49562
1.7325
1.42678
1.52151
1.17623
1.79227
1.85119
1.46778
1.2723
1.58382
1.41533
1.39195
1.38572
1.43242
1.48413
1.34147
1.01081
1.26118
1.42877
1.49161
1.47769
1.62812
1.23554
1.43526
1.53013
1.26879
1.71946
1.3407
1.18015
1.63394
1.62763
1.48985
1.83092
1.36305
1.18081
1.52776
1.47907
1.36137
1.26405
1.3023
1.41642
1.46105
1.31158
1.37245
1.45543
1.15891
1.31053
1.71331
1.7328
1.84823
1.37167
1.77806
1.86825
1.75493
1.0748
1.40674
1.44682
1.8191
1.23434
1.35607
1.21453
1.27997
0.950688
1.78674
1.23335
1.27704
1.53334
1.47593
1.28241
1.17944
1.86607
1.72555
1.69492
1.52989
1.12368
1.55146
1.44722
1.23274
1.4633
1.19168
1.23793
1.4796
1.28014
1.38687
1.67932
1.74965
1.09504
1.63671
1.36601
1.39044
1.42797
1.67727
1.32521
1.53054
1.22721
1.69334
1.24126
1.22807
1.82328
1.09685
1.15741
1.3675
1.3219
1.06166
0.629656
1.33412
1.05195
1.29792
1.09566
1.20061
1.2991
1.09832
1.34191
1.3972
1.17427
0.714522
1.71607
1.55232
1.18415
1.21763
1.54133
1.13651
1.35833
1.84909
1.33728
1.83005
1.39997
1.65791
1.35198
1.14893
1.19829
1.48714
1.47486
1.2921
1.16158
1.2285
1.19624
1.33076
1.37586
1.12153
1.1838
1.78165
1.33125
1.48851
1.5534
1.23202
1.46276
1.5566
1.22505
0.649101
1.27875
1.16683
1.06911
1.4883
1.51451
1.20698
1.45626
1.31751
1.82329
1.71688
1.24275
1.30479
1.82058
1.65754
1.39929
1.45336
1.23139
1.83075
1.47911
1.08942
1.70893
1.58256
1.7441
1.43599
1.24196
1.42427
1.5222
1.41507
0.489676
1.86399
1.28776
1.37064
1.32137
1.56906
1.75762
1.8516
1.48477
1.47306
1.58349
1.65306
1.61212
1.47096
1.5873
1.16375
1.39059
1.49405
1.25793
1.15895
1.13867
1.28308
1.56309
1.16193
1.43782
1.37389
1.50104
1.85063
1.23141
1.21398
1.12475
1.43831
1.23997
1.30035
1.11416
1.62226
1.38555
1.36219
1.21818
1.38774
1.27998
1.36628
1.55891
1.55248
1.62591
1.85949
1.34233
1.64967
1.08937
1.69211
1.71772
1.74661
1.56581
1.30638
1.30874
1.19738
1.09855
1.4699
1.11866
1.49653
1.22822
1.61412
1.23201
1.11434
1.6284
1.5349
1.3508
1.31094
1.48221
1.65219
1.34116
1.38232
1.10211
1.59712
1.37026
1.68445
1.06333
1.26224
1.71536
1.50365
1.82919
1.49501
1.23672
1.04025
1.10444
1.31033
1.12906
1.76547
1.1244
1.35222
1.36917
1.22116
1.52736
1.05987
1.60455
1.51734
1.40765
1.00997
1.52053
1.28922
1.38173
1.30732
1.37402
1.16275
1.17436
1.56448
1.3296
1.7475
1.17004
1.34577
1.46384
1.54437
1.72058
1.16505
1.19522
1.35573
1.46968
1.1361
1.76877
1.28314
1.39882
1.22119
1.60154
1.09209
1.43741
1.18253
1.85634
1.08962
1.31351
1.27366
1.61381
1.1257
1.1156
1.2925
1.181
1.71254
1.41921
1.52589
1.66131
1.50228
1.31341
1.85364
1.40981
1.55927
1.46097
1.49374
1.1447
1.49577
1.2306
1.39457
1.499
1.24513
1.16713
1.30654
1.30845
1.26497
1.57563
1.4563
1.45227
1.26743
1.67908
1.39513
1.4278
1.49015
1.18419
1.28897
1.21786
1.48237
1.41432
1.43635
1.69432
1.53657
1.59402
1.329
1.65223
1.76924
1.79226
1.3283
1.48511
1.49292
1.25646
1.77808
1.64764
1.60423
1.25993
1.32408
1.15721
1.48835
1.47998
1.35791
1.59961
1.64125
1.39205
1.39038
1.42844
1.40661
1.32953
1.26769
1.38803
1.36085
1.10923
1.37497
1.44722
1.23159
1.07052
1.4411
1.30862
1.52152
1.29703
1.34478
1.72726
1.72306
1.369
1.38778
1.5892
1.29433
1.29229
1.24784
1.25737
1.17125
1.67536
1.40992
1.32751
1.52889
1.47889
1.51178
1.23061
1.78593
1.53694
1.2376
1.36863
1.27673
1.5884
1.73509
1.53575
1.4394
1.14278
1.2393
1.21899
1.38181
1.3703
1.3799
1.23566
1.7196
1.49671
1.49756
1.66185
1.39299
1.3738
1.48868
1.79897
1.12305
1.11891
1.48588
1.7833
1.28231
1.25867
1.57683
1.47231
1.61819
1.25605
1.13755
1.38459
1.17573
1.28501
1.62548
1.23807
1.26644
1.37655
1.27162
1.44516
1.40997
1.39718
1.65023
1.23135
1.85065
1.62038
1.22573
1.04226
1.44387
1.53215
1.66019
1.26581
1.21419
1.2969
1.18425
1.43562
1.85867
1.68574
1.48257
1.42154
1.17157
1.60365
1.83395
1.70542
1.59819
1.6659
1.48189
1.17804
1.09408
1.12324
1.71077
1.29106
1.18863
1.44031
1.82079
1.24356
1.39363
1.19252
1.25793
1.24197
1.65028
1.39158
1.5714
1.71186
1.62116
1.19028
1.45357
1.45667
1.54244
1.11473
1.43979
1.29431
1.77705
1.16754
1.23824
1.14071
1.31926
1.72871
1.21599
1.62928
1.62837
1.68798
1.2176
1.44177
1.2248
1.32869
1.7564
1.42272
1.49773
1.38488
0.902276
1.44649
1.61479
1.44899
1.73868
1.1051
1.29997
1.20999
1.78477
1.23383
1.45508
1.21043
1.21848
1.41034
1.60979
1.42442
1.222
1.20272
1.63849
1.83814
0.923592
1.58782
1.24124
1.22766
1.31751
1.37051
1.13954
1.53128
1.42362
1.24932
1.34523
1.52145
1.3245
1.61553
1.42971
1.29627
1.38054
1.10349
1.14595
1.30358
1.31965
1.5041
1.24198
1.32649
1.63217
1.50517
1.24459
1.14602
1.63092
1.26683
1.43867
1.82974
1.4817
1.24364
1.24834
1.18203
1.80665
1.40901
1.33722
1.39939
1.15715
1.63874
1.1647
1.64473
1.45222
1.5433
1.21514
1.56066
1.30179
1.21633
1.25901
1.46043
1.68788
1.034
1.38209
1.14512
1.73346
1.74284
1.28721
1.28252
1.52597
1.6037
1.41924
1.71089
1.66961
1.60704
1.55129
1.34158
1.49845
1.43239
1.75873
1.46178
1.46005
1.29053
1.38701
1.46032
1.33189
1.81459
1.18839
1.67141
1.44669
1.79392
1.2334
1.81843
1.54347
1.54223
1.7987
1.73657
1.82278
1.23766
1.68717
1.47439
1.19524
1.38888
1.24853
1.73521
1.18819
1.39211
1.42323
1.2835
1.51298
1.23688
1.63936
1.30635
1.5889
1.0763
1.35441
1.20502
1.61757
1.29332
1.45875
1.39536
1.22552
1.25813
1.34537
1.2278
1.59923
1.77006
1.17768
1.37832
1.22847
1.2389
1.63794
1.31908
1.38376
1.74522
1.1298
1.50139
1.49084
1.75415
1.85722
1.40124
1.35498
1.18117
1.43284
1.33818
1.23168
1.54594
1.25639
1.20775
1.24174
1.44648
1.3836
1.34599
1.14192
1.41233
1.20673
1.58313
1.547
1.39287
1.58779
1.13779
1.15436
1.28304
1.09633
1.82262
1.26025
1.23236
1.23963
1.62476
1.75717
1.33645
1.5762
1.35982
1.22767
1.48605
1.2388
1.37159
1.74909
1.50524
1.48743
1.78532
1.60224
1.45871
1.79679
1.18775
1.3351
1.33039
1.42878
1.32822
1.65434
1.24709
1.39022
1.34505
1.40471
1.32981
1.36275
1.54135
1.63917
1.70474
1.46813
1.4346
1.68353
1.57418
1.23074
1.49565
1.21639
1.17805
1.62895
1.17382
1.65395
1.16582
1.6639
1.74963
1.77078
1.16468
1.56434
1.66208
1.05891
1.67372
1.27395
1.78107
1.60045
1.17637
1.20126
1.50819
1.1943
1.2682
1.3598
1.52354
1.39796
1.77525
1.29366
1.40367
1.32236
1.30112
1.22946
1.62888
1.80593
1.28751
1.55843
1.3411
1.40644
1.41321
1.523
1.74189
1.61498
1.18287
1.72015
1.63876
1.83635
1.29281
1.11888
1.36418
1.57287
1.76573
1.65257
1.34776
1.82879
1.43236
1.20565
1.20093
1.0355
1.46398
1.23772
1.80661
1.85829
1.44276
1.77069
1.62506
1.32993
1.8164
1.21916
1.64106
1.18701
1.75961
1.36725
1.3161
1.57606
1.39451
1.78535
1.72093
1.74229
1.35431
1.35425
1.16574
1.63357
1.61122
1.27564
1.48455
1.61198
1.09327
1.27165
1.33432
1.16513
1.40939
1.15546
1.34512
1.48745
1.37019
1.39452
1.55845
1.31666
1.43544
1.40444
1.35392
1.2969
1.69659
1.72864
1.27922
1.60016
1.07369
1.30377
1.67902
1.56376
1.16501
1.76909
1.24856
1.55566
1.43305
1.4401
1.71191
1.3641
1.57883
1.58324
1.51212
1.87514
1.51958
1.17914
1.45638
1.45013
1.57571
1.85321
1.53586
1.45857
1.38041
1.43806
1.71699
1.21852
1.57931
1.35554
1.51696
1.58646
1.55618
1.28154
1.66672
1.83488
1.42635
1.33332
1.38467
1.3427
1.19648
1.35417
1.58439
1.22394
1.18747
1.29286
1.21728
1.53831
1.45319
1.59136
1.39617
1.72009
1.35703
1.62652
1.71833
1.2544
1.74016
1.43182
1.36258
1.4872
1.63692
1.38168
1.38801
1.48906
1.33117
1.34064
1.29625
1.26203
1.07613
1.80693
1.79202
1.2197
1.40483
1.57545
1.17116
1.32143
1.2577
1.52176
1.57749
1.13826
1.07475
1.71271
1.38837
1.46373
1.39007
1.17173
1.20378
1.41285
1.6462
1.50692
1.14781
1.72846
1.64779
1.30912
1.4116
1.24606
1.7314
1.2599
1.44102
1.23031
1.46877
1.69586
1.41874
1.36675
1.37488
1.46193
1.5019
1.82742
1.76389
1.37686
1.84156
1.38285
1.36674
1.35617
1.24965
1.34495
1.65196
1.31642
1.45235
1.37585
1.07619
1.37994
1.31998
1.53803
1.74878
1.31456
1.34883
1.37167
1.34983
1.26921
1.10742
1.41257
1.59399
1.02269
1.12302
1.57175
1.33983
1.38226
1.49965
1.62246
1.23597
1.20925
1.64351
1.33449
1.26308
1.47739
1.63174
1.44034
1.36524
1.37505
1.22827
1.36881
1.82579
1.65293
1.83945
1.3844
1.49538
1.24725
1.35548
1.65793
1.18462
1.17134
1.55224
1.65814
1.15709
1.40745
1.34473
1.21803
1.34888
1.76471
1.44528
1.40803
1.35263
1.37397
1.55679
1.40901
1.21984
1.41161
1.58284
1.4518
1.83718
1.19216
1.26285
1.54243
1.50766
1.24464
1.39985
1.32858
1.85147
1.56272
1.54447
1.64829
1.2857
1.64183
1.45489
1.51933
1.79318
1.17386
1.36638
1.84453
1.46409
1.14735
1.12923
1.59084
1.84296
1.34334
1.56502
1.36783
1.2057
1.35267
1.16017
1.64874
1.33891
1.3007
1.74183
1.23513
1.23969
1.39733
1.46836
1.39967
1.1486
1.37134
1.22565
1.46944
1.61071
1.79024
1.56755
1.41646
1.33542
1.12845
1.26962
1.44485
1.39682
1.53669
1.57854
1.33418
1.26997
1.60946
1.6697
1.85838
1.69376
1.80262
1.4411
1.2234
1.35199
1.29578
1.82777
1.41687
1.38038
1.79148
1.22068
1.60283
1.53772
1.41392
1.37461
1.36839
1.2358
1.66872
1.23223
1.5213
1.35975
1.7785
1.39036
1.88292
1.29884
1.35992
1.13097
1.06531
1.37835
1.56766
1.24287
0.86635
1.36294
1.63025
1.57915
1.24957
1.23523
1.36383
1.20317
1.38113
1.18922
1.22464
1.2835
1.55928
1.2158
1.39849
1.54417
1.4769
1.40052
1.638
1.21821
1.30413
1.34881
1.58315
1.187
1.40686
1.44558
1.23586
1.1761
1.39661
1.24158
1.55489
1.83233
1.68468
1.36041
1.51861
1.15835
1.83414
1.50636
1.56833
1.35583
1.56365
1.13334
1.35586
1.62821
1.69484
1.57298
1.37998
1.20882
1.86967
1.43297
1.61122
1.81475
1.50165
1.37308
1.15879
1.61282
1.50246
1.24227
1.47023
1.50702
1.75072
1.34833
1.73775
1.86105
1.25263
1.29975
1.81372
1.24922
1.26169
1.38467
1.29428
1.39724
1.26515
1.2047
1.34712
1.39617
1.35597
1.25821
1.37788
1.09914
1.29703
1.47479
1.2994
1.15165
1.76983
1.71392
1.7534
1.38702
1.14381
1.87695
1.2294
1.37148
1.3266
1.19801
1.33921
1.5456
1.26307
1.20616
1.19025
1.18844
1.22847
1.23687
1.12215
1.28403
1.34055
1.26384
1.78811
1.39144
1.54702
1.45219
1.63486
1.15473
1.24335
1.71811
1.43516
1.49109
1.23062
1.48373
1.7862
1.18919
1.52171
1.49951
1.11563
1.37456
1.22988
1.31604
1.5707
1.27021
1.38024
1.20849
1.26049
1.35872
1.23117
1.39057
1.18089
1.2355
1.67308
1.34969
1.42427
1.36721
1.70474
1.26331
1.19582
1.60166
1.25245
1.30283
1.35912
1.46773
1.1447
1.29165
1.45281
1.8424
1.67905
1.21793
1.24098
1.16931
1.32898
1.14896
1.32207
1.42337
1.31754
1.43119
1.43963
1.8072
1.31188
1.52658
1.4546
1.82762
1.23925
1.81244
1.42121
1.21433
1.48498
1.53208
1.15426
1.62691
1.35743
1.7046
1.26695
0.941639
1.26094
1.81889
1.72549
1.55899
1.48816
1.55651
1.15134
1.11978
1.56502
1.87859
0.969935
1.46755
1.35138
1.15116
1.27998
1.37097
1.28219
1.3446
1.28187
1.4096
1.17576
1.36337
1.87562
1.63342
1.13746
1.58241
1.34885
1.22071
1.61454
1.23243
1.29468
1.55088
1.02974
1.34235
1.33094
1.6674
1.26469
1.31024
1.25014
1.42353
1.29499
1.73441
1.14815
1.22592
1.24432
1.25179
1.51802
1.42173
1.71982
1.36375
1.58178
1.36026
1.42993
1.38302
1.5328
1.22744
1.27501
1.09575
1.51161
1.2597
1.23267
1.6579
1.42471
1.38972
1.52753
1.33199
1.3031
1.26436
1.50994
1.39862
1.79479
1.21862
1.14765
1.43565
1.19132
1.39399
1.31232
1.56514
1.35194
1.26623
1.24735
1.36125
1.26762
1.21864
1.79319
1.64938
1.27503
1.35725
1.62327
1.47715
1.37036
1.24828
1.34549
1.21503
1.35012
1.74536
1.37502
1.15176
1.42996
1.38033
1.15425
1.2646
1.42053
1.50859
1.73184
1.24063
1.19854
1.38476
1.64118
1.19841
1.44943
1.25035
1.3671
1.23704
1.43051
1.24232
1.38283
1.60293
1.25376
1.12888
1.32384
1.39256
1.62254
1.87625
1.39887
1.23783
1.25925
1.25072
1.26688
1.20109
1.21633
1.80023
1.62226
1.51876
1.42842
1.16917
1.60689
1.84173
1.27165
1.31366
1.15605
1.07065
1.29002
1.17198
1.08045
1.17211
1.45462
1.18317
1.15951
1.29047
1.47895
1.16986
1.61502
1.43942
1.38703
1.1794
1.34973
1.62003
1.12121
1.22922
1.27253
1.26744
1.42386
1.55802
1.36529
1.26327
1.57425
1.25439
1.27179
1.69453
1.37036
1.68309
1.39947
1.19734
1.50429
1.69154
1.37362
1.17235
1.75101
1.36136
1.2058
1.64632
1.35738
1.75771
1.36475
1.26415
1.0542
1.26809
1.31282
1.32646
1.22948
1.12693
1.20139
1.29931
1.0776
1.74215
1.2966
1.3019
1.42984
1.39121
1.84837
1.84885
1.13055
1.3971
1.62387
1.11053
1.75393
1.08994
1.19416
1.34629
1.24618
1.64359
1.17502
1.16833
1.40058
1.22662
1.3145
1.14225
1.69535
0.759112
1.66938
1.54898
1.25416
1.17722
1.20678
1.7488
1.56993
1.46404
1.32033
1.42542
1.2032
1.67772
1.58078
1.35697
1.49077
1.70091
1.23428
1.31379
1.53777
1.13728
1.27786
1.56109
1.21455
1.40328
1.76082
1.27969
1.0949
1.23097
1.43318
1.22928
1.68764
1.35721
1.17175
1.29791
1.40919
1.3708
1.7288
1.41503
1.20491
1.14209
1.24939
1.36379
1.41402
1.45865
1.40627
1.34154
1.66435
1.18125
1.50316
1.3448
1.28321
1.41813
1.65816
1.8029
1.51457
1.27439
1.2504
1.59391
1.69528
1.20528
1.75667
1.21167
1.54136
1.44077
1.71127
1.27925
1.694
1.70106
1.39045
1.35198
1.30968
1.47925
1.20037
1.17679
1.17742
1.54473
1.65385
1.22682
1.76703
1.32367
1.57437
1.3311
1.32229
1.62349
1.58798
1.15211
1.39421
1.30066
1.86415
1.54795
1.8815
1.25783
1.20209
1.20823
1.65863
1.48047
1.55346
1.5006
1.68428
1.26194
1.40688
1.31733
1.27913
1.39779
1.11614
1.61985
1.37633
1.39253
1.75711
1.23807
1.23657
1.1039
1.46875
1.69714
1.4023
1.54094
1.14052
1.16946
1.41701
1.38246
1.37429
1.58015
1.43394
1.35176
1.31015
1.5096
1.68941
1.48418
1.18263
1.69727
1.48392
1.81105
1.29605
1.52225
1.19414
1.1858
1.78023
1.33503
1.46711
1.381
1.74999
1.49728
1.29098
1.34974
1.87453
1.27121
1.21438
1.56904
1.83842
1.55196
1.45151
1.22797
1.10682
1.32498
1.34914
1.19345
1.36128
1.34393
1.70004
1.83982
1.7634
1.23503
1.20863
1.37875
1.33825
1.51951
1.24999
1.54789
1.78879
1.17662
1.18889
1.23109
1.61264
1.50231
1.20425
1.35326
1.52899
1.35646
1.09287
1.2088
1.85389
1.12203
1.61307
1.50932
1.34718
1.63206
1.3456
1.70018
1.00577
1.1633
1.36767
1.76257
1.34541
1.73101
1.3518
1.12323
1.25023
1.25264
1.3153
1.11495
1.60657
1.18864
1.33363
1.18644
1.25384
1.57472
1.01645
1.23435
1.7055
1.44206
1.6533
1.09316
1.33704
1.3693
1.21469
1.10482
1.21865
1.35131
1.04565
1.1803
1.19804
1.58113
1.49832
1.7123
1.36113
1.21901
1.22419
1.47006
1.03399
1.20851
1.8809
1.46537
1.40362
1.81027
1.22025
1.32701
1.43019
1.14852
1.23755
1.30489
1.51311
1.78971
1.83057
1.84378
1.52025
1.44863
1.1993
1.21562
1.61102
1.54941
1.33504
1.34409
1.40136
1.29099
1.70524
1.3119
1.68
1.13185
1.51288
1.21034
1.36595
1.15691
1.3629
1.73423
1.41935
1.22046
1.29834
1.83782
1.23283
1.32117
1.33379
1.36214
1.52367
1.49283
1.49394
1.44852
1.51844
1.18537
1.3951
1.25842
1.42673
1.67648
1.69834
1.215
1.71843
1.67216
1.68122
1.28197
1.16581
1.34125
1.23074
1.74603
1.31005
1.51543
1.70453
1.847
1.78398
1.67475
1.36329
1.44046
1.40659
1.22312
1.17435
1.36807
1.67723
1.81062
1.8021
1.40884
1.21504
1.27553
1.16343
1.496
1.77931
1.41267
1.5454
1.58272
1.58678
1.54001
1.33572
1.35532
1.31574
1.30217
1.38571
1.32831
1.2636
1.39379
1.37322
1.7047
1.37814
1.18097
1.66594
1.3832
1.37774
1.33669
1.32442
1.56438
1.52971
1.39681
1.48811
1.81377
1.85051
1.44817
1.50373
1.46532
1.3119
1.23337
1.22161
1.44845
1.33286
1.38038
1.49045
1.41594
1.22656
0.867449
1.37335
1.74195
1.41307
1.50113
1.22054
1.6187
1.33518
1.34003
1.60948
1.52099
1.55354
1.50341
1.20479
1.42587
1.24251
1.52529
1.3528
1.58914
1.21213
1.39047
1.38844
1.1983
1.44274
1.85754
1.17273
1.50677
1.39681
1.29645
1.43658
1.17681
1.682
1.7107
1.2145
1.79901
1.17503
1.7031
1.61204
1.57705
1.3775
1.65049
1.30429
1.5203
1.43942
1.0827
1.37682
1.28126
1.80457
1.49445
1.21206
1.2879
1.39791
1.21518
1.54048
1.2115
1.4994
1.84468
1.37333
1.81517
1.51251
1.42417
1.19099
1.65407
1.36848
1.66963
0.835339
1.27334
1.49662
1.59728
1.31109
1.54677
1.274
1.45001
1.52893
1.49791
1.37831
1.54916
1.49594
1.66003
1.13535
1.22428
1.08383
1.40074
1.51588
1.41178
0.962267
1.35925
1.69541
1.39142
1.40726
1.72111
1.45539
1.56879
1.22459
1.45786
1.32985
1.68659
1.81238
1.48888
1.26797
1.24017
1.29479
1.45839
1.38174
1.64016
1.20399
1.22125
1.24557
1.12768
1.51552
1.74541
1.23522
1.26346
1.34408
1.288
1.62187
1.21534
1.27437
1.8793
1.50314
1.39924
1.54029
1.67275
1.34159
1.25132
1.28004
1.29754
1.37326
1.14479
1.00887
1.43275
1.23029
1.68803
1.18961
1.5268
1.67319
1.31687
1.33282
1.42049
1.3735
1.17688
1.10932
1.33406
1.41319
1.3375
1.64393
1.65794
1.2416
1.706
1.25056
1.6764
1.54494
1.16171
1.53681
1.31373
1.34615
1.77276
1.77729
1.76568
1.1758
1.6287
1.23599
1.60034
1.62185
1.48855
1.52203
1.30964
1.25919
1.47691
1.73144
1.12435
1.18423
1.47044
1.41433
1.56701
1.23307
1.54721
1.38717
1.77535
1.56852
1.58006
1.58177
1.84233
1.44513
1.42047
1.72477
1.16728
1.72738
1.56251
1.4931
1.45204
1.75858
1.23991
1.24075
1.38522
1.18763
1.3468
1.29005
1.3026
1.74616
1.19077
1.58235
1.22501
1.32798
1.70213
1.52075
1.24276
0.982277
1.74439
0.979263
1.40783
1.11193
1.78696
1.7507
1.4159
1.8052
1.47248
1.36847
1.60624
1.45238
1.30819
1.54115
1.42388
1.39772
1.49919
1.04236
1.28189
1.26646
1.50519
1.26543
1.13171
1.36051
1.23642
1.22249
1.38669
1.3805
1.59465
1.50065
1.40798
1.18856
1.43638
1.34181
1.33671
1.23349
1.35374
1.54165
1.3949
1.28933
1.22389
1.39147
1.58231
1.5781
1.44973
1.35377
1.23538
1.26152
1.57873
1.7127
1.82112
1.69767
1.29695
1.46302
1.65907
1.12933
1.58395
1.51245
1.58447
1.31459
1.26988
1.11117
1.4525
1.52055
1.37116
1.42432
1.3997
1.20405
1.8122
1.39787
1.45668
1.65806
1.3389
1.76019
1.544
1.3184
1.40956
1.34525
1.12453
1.20745
1.45841
1.13589
1.78244
1.17603
1.66344
1.29805
1.80401
1.52039
1.57839
1.55821
1.36427
1.58712
1.5674
1.44995
1.31602
1.66754
1.65059
1.46926
1.52204
1.55218
1.81519
1.47306
1.36579
1.4787
1.80368
1.32416
1.43195
1.72165
1.64339
1.33344
1.54865
1.46988
1.30484
1.41802
1.35459
1.48175
1.21157
1.40192
1.7006
1.26437
1.56063