/*--------------------------------*- C++ -*----------------------------------*\
  =========                 |
  \\      /  F ield         | OpenFOAM: The Open Source CFD Toolbox
   \\    /   O peration     | Website:  https://openfoam.org
    \\  /    A nd           | Version:  6
     \\/     M anipulation  |
\*---------------------------------------------------------------------------*/
FoamFile
{
    version     2.0;
    format      ascii;
    class       volVectorField;
    location    "0";
    object      U;
}
// * * * * * * * * * * * * * * * * * * * * * * * * * * * * * * * * * * * * * //

dimensions      [0 1 -1 0 0 0 0];

internalField   nonuniform List<vector> 
13046
(
(-0.504137 0.26352 0)
(-0.474084 0.0544479 -5.62494e-21)
(-0.264024 0.104685 -1.25124e-20)
(-0.501326 0.208377 0)
(-0.313429 0.154292 -1.12302e-20)
(-0.409422 0.0567148 0)
(-0.524575 0.217251 1.63792e-21)
(-0.414775 0.0339102 2.88705e-21)
(-0.298905 0.162986 -1.23846e-20)
(-0.657415 0.328547 5.95749e-21)
(-0.71955 -0.232513 0)
(-0.0683711 0.0928568 8.49409e-21)
(-0.558204 0.273854 -5.20862e-21)
(-0.484855 0.00646825 -9.0204e-21)
(-0.232578 0.11883 6.90657e-21)
(-0.632637 0.375226 -7.62938e-21)
(-0.0697803 0.0638716 2.039e-20)
(-0.743716 -0.164656 4.84748e-21)
(-0.389921 0.204511 0)
(-0.346395 0.0760243 -6.08925e-21)
(-0.479783 0.149885 1.70982e-20)
(-0.638874 0.366886 -3.2824e-21)
(-0.0689081 0.0709391 -2.72271e-20)
(-0.736365 -0.17836 0)
(-0.476793 0.222365 6.87891e-21)
(-0.439493 0.0778515 -1.37332e-20)
(-0.305277 0.123633 0)
(-0.557882 0.292254 -9.59275e-21)
(-0.502123 0.00181723 2.63273e-21)
(-0.216621 0.105761 -1.19332e-20)
(-0.503489 0.277111 0)
(-0.491163 0.0574861 0)
(-0.251144 0.0890915 1.27391e-20)
(-0.454799 0.20693 -7.98839e-21)
(-0.323927 0.124115 4.20535e-21)
(-0.431413 0.0965292 2.39175e-20)
(-0.45053 0.192458 -1.22913e-20)
(-0.34152 0.13811 6.40084e-21)
(-0.415718 0.101288 -1.23098e-20)
(-0.449873 0.297841 8.91608e-21)
(-0.270544 0.020672 2.37292e-21)
(-0.550338 0.0980556 -8.4949e-21)
(-0.423134 0.154952 5.56189e-21)
(-0.386342 0.154392 9.56619e-21)
(-0.390109 0.123236 0)
(-0.442759 0.155699 3.50198e-21)
(-0.380602 0.168567 -1.465e-20)
(-0.375625 0.10698 -1.83498e-21)
(-0.516198 0.256848 0)
(-0.462481 0.0399075 -4.05188e-22)
(-0.259199 0.116425 1.76832e-23)
(-0.315689 -0.0588258 1.48368e-20)
(-0.403926 0.326927 0)
(-0.622392 0.1233 -1.04643e-20)
(-0.341808 -0.0813288 -2.11344e-20)
(-0.639746 0.134533 -1.67693e-20)
(-0.381548 0.322213 1.4037e-20)
(-0.672639 -0.0370777 -2.11894e-21)
(-0.584258 0.411591 0)
(-0.13404 0.017299 1.11746e-20)
(-0.639158 0.250521 -4.96738e-21)
(-0.491934 -0.0882637 5.43633e-21)
(-0.229438 0.188565 -2.90087e-20)
(-0.11373 0.112314 1.54409e-20)
(-0.656694 -0.164309 -3.51851e-21)
(-0.663697 0.326903 -8.73844e-21)
(-0.568923 0.418003 0)
(-0.666248 -0.0144995 0)
(-0.150611 -0.000708946 0)
(-0.558146 0.410516 -3.95808e-21)
(-0.652183 -0.00193265 0)
(-0.161393 -0.00124916 8.90342e-21)
(-0.693909 -0.0498871 0)
(-0.592184 0.417671 1.06058e-22)
(-0.122707 0.0146942 5.18226e-24)
(-0.401943 0.219776 0)
(-0.331086 0.0660702 6.62508e-21)
(-0.492016 0.137724 -1.22037e-20)
(-0.101961 0.0337592 1.24201e-20)
(-0.608967 0.407408 -1.2574e-20)
(-0.706646 -0.0869256 0)
(-0.492136 0.224856 3.60711e-21)
(-0.431726 0.064979 0)
(-0.297615 0.134509 0)
(-0.101533 0.10565 -1.3906e-20)
(-0.677436 -0.179686 -2.75109e-21)
(-0.665303 0.331701 5.21725e-21)
(-0.696336 0.273229 -9.15627e-21)
(-0.149288 0.168055 0)
(-0.606311 -0.199662 -2.7304e-21)
(-0.1813 0.224746 0)
(-0.732083 0.217586 0)
(-0.57114 -0.250567 3.68273e-22)
(-0.619917 0.317943 0)
(-0.634593 0.315836 4.73766e-21)
(-0.570516 -0.0724384 1.06264e-20)
(-0.581065 -0.0941435 -4.99047e-21)
(-0.166187 0.111973 -6.33244e-21)
(-0.159289 0.121613 1.62077e-20)
(-0.165398 0.183589 -7.76542e-22)
(-0.701738 0.259849 8.95766e-21)
(-0.588073 -0.203293 0)
(-0.461853 0.16884 -2.71803e-23)
(-0.364806 0.169841 7.71242e-21)
(-0.378371 0.0905854 0)
(-0.352691 0.276945 0)
(-0.60742 0.162226 -5.12511e-21)
(-0.355275 -0.0474421 0)
(-0.409833 0.30714 1.54277e-20)
(-0.301978 -0.0252807 0)
(-0.590717 0.1214 -1.95729e-20)
(-0.612725 0.31337 0)
(-0.037603 0.0706209 0)
(-0.708897 -0.275824 -3.99815e-21)
(-0.540127 0.262422 1.43928e-20)
(-0.469946 0.0219982 3.79419e-21)
(-0.246957 0.123864 1.24739e-20)
(-0.622844 0.349456 5.99346e-21)
(-0.614081 0.337227 -1.12605e-20)
(-0.620178 -0.0837956 -9.00994e-21)
(-0.136809 0.0861079 7.28042e-21)
(-0.591407 -0.0677091 5.49004e-21)
(-0.152306 0.0929975 -6.803e-21)
(-0.647005 0.332597 -5.10395e-21)
(-0.729412 -0.241063 -5.57391e-21)
(-0.0582583 0.0843071 -3.81247e-21)
(-0.590903 0.312198 0)
(-0.539075 -0.0363795 -6.99958e-21)
(-0.186355 0.103262 1.46628e-20)
(-0.469245 0.303588 0)
(-0.254958 0.0318133 -1.1754e-20)
(-0.543739 0.0823507 5.15907e-22)
(-0.197983 0.235813 0)
(-0.727072 0.213303 0)
(-0.554452 -0.231584 0)
(-0.661313 0.304352 0)
(-0.599011 -0.136136 -1.39611e-20)
(-0.153589 0.138808 -1.74421e-20)
(-0.520733 0.28803 0)
(-0.504063 0.041594 0)
(-0.236383 0.0836203 0)
(-0.584781 0.217016 0)
(-0.41706 -0.0243711 0)
(-0.290455 0.200015 0)
(-0.396856 0.307578 0)
(-0.318342 -0.0402282 0)
(-0.604186 0.130737 1.0544e-20)
(-0.356304 0.266882 -1.61868e-21)
(-0.595998 0.164528 -1.09155e-20)
(-0.355945 -0.0343561 1.28027e-20)
(-0.646919 0.260887 1.19731e-20)
(-0.514178 -0.101174 0)
(-0.211657 0.175212 3.77854e-20)
(-0.34308 0.223958 0)
(-0.556975 0.179429 1.16877e-20)
(-0.366159 0.00460777 -3.22009e-21)
(-0.397204 -0.109612 0)
(-0.659717 0.165487 1.19121e-20)
(-0.426715 -0.125 0)
(-0.670074 0.181382 6.85836e-21)
(-0.329957 0.296927 0)
(-0.30359 0.280042 0)
(-0.600136 0.193121 1.4954e-21)
(-0.394587 -0.0416257 6.76946e-21)
(-0.312122 0.228632 -7.09713e-21)
(-0.67113 0.316592 -6.11655e-21)
(-0.076303 0.104349 0)
(-0.701816 -0.242101 -6.89799e-21)
(-0.626152 0.323098 -4.65109e-21)
(-0.0434937 0.0742101 -1.74637e-21)
(-0.725688 -0.262366 0)
(-0.660257 0.314654 -7.1351e-21)
(-0.616628 -0.140673 0)
(-0.139616 0.127382 1.98421e-20)
(-0.490929 0.346314 0)
(-0.58399 0.0645319 2.77298e-21)
(-0.232471 0.00439162 6.92408e-21)
(-0.589424 0.183917 9.91384e-21)
(-0.328768 0.239784 3.38707e-21)
(-0.377195 -0.0276865 0)
(-0.0966878 0.131112 0)
(-0.668214 -0.24612 0)
(-0.691808 0.293353 5.21648e-21)
(-0.476538 0.331882 0)
(-0.572558 0.0775644 -5.94484e-21)
(-0.245912 0.0105591 1.78501e-21)
(-0.342163 0.234941 0)
(-0.566361 0.174746 0)
(-0.359064 -0.00702674 0)
(-0.568695 0.208769 4.8732e-21)
(-0.405968 -0.0104129 0)
(-0.299047 0.195246 0)
(-0.489536 -0.0206598 -4.87534e-23)
(-0.224157 0.134655 -8.45631e-21)
(-0.582102 0.29958 1.51705e-20)
(-0.521456 -0.0232937 0)
(-0.200884 0.110662 -1.83733e-20)
(-0.686127 0.300481 -9.3518e-21)
(-0.121112 0.137055 1.25716e-20)
(-0.648698 -0.201613 -1.33253e-20)
(-0.192929 0.217553 1.144e-20)
(-0.712276 0.232516 5.5068e-21)
(-0.558686 -0.208968 1.36524e-20)
(-0.719158 0.244901 -1.57356e-20)
(-0.598282 -0.234431 0)
(-0.157341 0.194099 -1.12544e-20)
(-0.3137 -0.0868546 -7.6267e-22)
(-0.651101 0.108695 4.7435e-21)
(-0.417718 0.366136 0)
(-0.55853 0.238487 -2.21259e-20)
(-0.601746 0.416591 6.3558e-21)
(-0.106097 0.0248742 -7.65195e-21)
(-0.714059 -0.0790101 0)
(-0.616542 -0.248033 0)
(-0.715706 0.254999 -1.44617e-20)
(-0.139414 0.177001 0)
(-0.466971 0.187012 -1.77389e-20)
(-0.343585 0.155851 -6.28348e-21)
(-0.397253 0.0856581 1.81414e-20)
(-0.54606 0.299894 0)
(-0.510968 0.0159418 -3.79407e-22)
(-0.220336 0.0946646 -7.02839e-21)
(-0.202077 0.231238 8.74653e-21)
(-0.719099 0.221573 0)
(-0.549443 -0.217628 -1.57261e-20)
(-0.574539 0.248301 1.77598e-20)
(-0.475563 -0.0227974 1.63696e-20)
(-0.236174 0.14701 0)
(-0.0610478 0.0964465 0)
(-0.698443 -0.271022 5.99139e-21)
(-0.660975 0.307358 0)
(-0.397387 0.353932 0)
(-0.657998 0.118238 0)
(-0.333538 -0.101047 0)
(-0.71242 0.245825 1.38112e-20)
(-0.584254 -0.217795 0)
(-0.167815 0.19553 -7.00588e-24)
(-0.634725 0.188574 4.41877e-21)
(-0.406504 -0.0830089 -5.24041e-21)
(-0.305269 0.253931 0)
(-0.586193 0.32485 0)
(-0.550715 -0.0308512 6.53396e-21)
(-0.179587 0.0912464 1.1567e-20)
(-0.493974 -0.203062 -1.94445e-20)
(-0.719893 0.184699 -9.89959e-21)
(-0.258422 0.282836 6.88632e-21)
(-0.686436 0.17947 0)
(-0.443497 -0.147241 -7.59021e-21)
(-0.295387 0.285674 -2.46321e-22)
(-0.0596804 0.0993694 -1.11915e-20)
(-0.682927 -0.283118 0)
(-0.66344 0.294319 -5.56834e-21)
(-0.44165 0.32944 8.23427e-21)
(-0.276297 -0.0189507 -8.64055e-21)
(-0.592503 0.100133 8.686e-22)
(-0.567113 0.33447 5.08742e-21)
(-0.02558 0.0502223 -1.64174e-20)
(-0.740147 -0.241196 0)
(-0.368386 0.191178 -3.65036e-21)
(-0.485308 0.16343 -1.38093e-20)
(-0.360509 0.0699304 1.82444e-20)
(-0.628765 0.214744 5.35886e-21)
(-0.623397 0.197746 3.18432e-23)
(-0.436435 -0.0765652 -1.26198e-20)
(-0.410547 -0.0695058 0)
(-0.299171 0.23954 6.45151e-21)
(-0.272746 0.220181 -6.70729e-21)
(-0.0909507 0.0398021 -1.62526e-20)
(-0.613618 0.403097 6.62148e-21)
(-0.723146 -0.101112 -1.18159e-20)
(-0.570762 0.326989 0)
(-0.549579 -0.00985041 0)
(-0.18885 0.0809184 -1.52471e-20)
(-0.696342 0.190917 -2.57105e-21)
(-0.469284 -0.166471 0)
(-0.274049 0.274111 0)
(-0.642431 0.329008 -5.80507e-21)
(-0.612529 -0.110048 0)
(-0.139887 0.109877 7.2594e-21)
(-0.415595 0.165065 3.75466e-21)
(-0.407009 0.129977 5.48355e-21)
(-0.376876 0.140451 -1.87631e-21)
(-0.65811 0.194281 -8.76059e-21)
(-0.433437 -0.111856 0)
(-0.289529 0.258662 -1.13087e-20)
(-0.569167 0.339337 0)
(-0.565466 -0.00943483 8.16176e-21)
(-0.180565 0.0685828 -9.86333e-21)
(-0.577755 0.265865 0)
(-0.592687 0.272952 1.78102e-21)
(-0.443252 0.339934 2.99545e-21)
(-0.275091 -0.0299753 2.50897e-20)
(-0.603286 0.0984375 -2.09113e-20)
(-0.665437 0.207441 -9.06705e-21)
(-0.457055 -0.124647 1.10664e-20)
(-0.266197 0.242276 1.03213e-20)
(-0.652105 0.326844 0)
(-0.133573 0.115548 -2.55373e-20)
(-0.623955 -0.127661 -6.98407e-21)
(-0.413575 0.29409 -2.1292e-20)
(-0.300509 -0.0124735 0)
(-0.576838 0.124461 6.61089e-21)
(-0.338096 0.313516 -1.31941e-20)
(-0.669023 0.156311 -6.88316e-21)
(-0.393142 -0.122169 0)
(-0.597567 0.36384 -5.76385e-21)
(-0.615341 -0.048011 -7.2508e-21)
(-0.143262 0.0617296 4.53553e-21)
(-0.421908 0.340202 1.0837e-21)
(-0.300842 -0.0533301 0)
(-0.621565 0.113398 1.44039e-20)
(-0.607354 0.3705 0)
(-0.617343 0.364517 0)
(-0.634477 -0.0626159 -4.72494e-21)
(-0.133012 0.062446 -1.17902e-20)
(-0.637658 -0.0796212 6.68608e-21)
(-0.128541 0.0731104 1.25406e-20)
(-0.0998544 0.125559 -9.7908e-21)
(-0.673369 -0.229281 0)
(-0.686444 0.304139 -6.89387e-21)
(-0.600871 0.338296 6.65502e-21)
(-0.57962 -0.0511295 0)
(-0.159679 0.0856239 3.9931e-21)
(-0.654869 -0.2772 1.15405e-20)
(-0.0202491 0.051512 1.43744e-20)
(-0.545294 0.291602 1.32457e-20)
(-0.529812 0.165424 -6.35575e-21)
(-0.362652 0.219328 0)
(-0.351006 0.0307676 0)
(-0.620963 0.248003 1.2046e-20)
(-0.475672 -0.066729 0)
(-0.237114 0.180753 2.21303e-20)
(-0.129497 0.135159 -7.96291e-21)
(-0.67952 0.303798 1.90682e-20)
(-0.634566 -0.180524 9.97211e-21)
(-0.347679 -0.0943431 0)
(-0.650849 0.133527 6.2542e-21)
(-0.376659 0.333359 -1.59051e-20)
(-0.513817 -0.209497 -2.38738e-20)
(-0.72052 0.197489 -6.12959e-21)
(-0.236381 0.26305 0)
(-0.450592 -0.00102055 -1.63586e-20)
(-0.257803 0.153622 0)
(-0.620648 0.280352 1.32851e-20)
(-0.513793 -0.0669271 6.00657e-21)
(-0.203397 0.145458 6.7626e-21)
(-0.437511 -0.00757915 9.62669e-21)
(-0.268117 0.166208 7.087e-23)
(-0.633774 0.37543 -4.56922e-22)
(-0.0789025 0.0641824 9.55474e-21)
(-0.727476 -0.14899 -7.1215e-21)
(-0.302716 -0.095126 0)
(-0.659798 0.0982766 1.52436e-21)
(-0.432887 0.382613 0)
(-0.632379 0.285674 -1.35305e-20)
(-0.533577 -0.0826016 -7.33541e-21)
(-0.192321 0.148575 -8.31628e-21)
(-0.594738 0.209971 0)
(-0.409877 -0.0373999 -9.83903e-21)
(-0.294755 0.212183 0)
(-0.610941 0.147464 0)
(-0.339814 -0.0519994 0)
(-0.373279 0.292056 0)
(-0.510044 0.240736 -5.00301e-21)
(-0.445604 0.0486056 -8.95203e-21)
(-0.278099 0.128194 3.60813e-23)
(-0.357567 0.326703 1.63759e-20)
(-0.664257 0.144865 1.68382e-20)
(-0.374566 -0.112954 1.07912e-20)
(-0.698604 0.281109 -8.45107e-21)
(-0.631011 -0.215533 1.1353e-20)
(-0.131278 0.154021 -1.18765e-20)
(-0.52143 -0.200942 1.61229e-20)
(-0.714593 0.208678 6.21289e-21)
(-0.226695 0.249093 8.69702e-21)
(-0.531356 0.40512 -1.21793e-20)
(-0.191747 -0.0157782 1.33885e-20)
(-0.639492 0.0262022 -1.01549e-20)
(-0.610666 0.391178 3.5873e-21)
(-0.604509 0.387856 -3.2185e-21)
(-0.659003 -0.0638835 -1.50855e-21)
(-0.677486 -0.0763431 0)
(-0.1138 0.0463902 -4.35268e-21)
(-0.123752 0.0458385 -3.81895e-21)
(-0.0230948 0.0515174 -1.94511e-20)
(-0.684176 -0.266431 -1.27092e-20)
(-0.555765 0.302928 3.19578e-21)
(-0.578263 0.342882 -3.19394e-22)
(-0.0294107 0.0512303 2.27152e-20)
(-0.755408 -0.234285 0)
(-0.64404 0.221726 -1.9627e-20)
(-0.458482 -0.092447 -2.85598e-21)
(-0.262081 0.220078 0)
(-0.108846 0.125965 -2.42063e-20)
(-0.682855 0.306959 6.85264e-21)
(-0.665524 -0.2083 0)
(-0.56891 0.388834 1.73741e-20)
(-0.581371 0.386838 -1.30461e-20)
(-0.628525 -0.0146519 7.77748e-21)
(-0.633496 -0.0289432 2.97153e-21)
(-0.158986 0.0247868 -7.5408e-21)
(-0.147097 0.0352683 -3.7789e-21)
(-0.120187 0.168999 0)
(-0.618607 -0.27725 0)
(-0.719849 0.24237 2.62097e-21)
(-0.532952 0.330091 -5.97491e-21)
(-0.0198769 0.0418423 0)
(-0.730171 -0.23337 0)
(-0.45282 0.132779 -4.59589e-23)
(-0.409822 0.197887 8.02616e-21)
(-0.34292 0.0994381 4.0479e-21)
(-0.581599 0.317008 -1.07182e-20)
(-0.713807 -0.265705 5.84943e-21)
(-0.0290789 0.0585652 1.06401e-21)
(-0.51514 0.34717 0)
(-0.576499 0.04455 -1.28002e-20)
(-0.213172 0.0228656 2.52885e-24)
(-0.698329 0.285188 6.26765e-23)
(-0.656892 -0.247069 1.64004e-20)
(-0.108526 0.141355 2.0731e-24)
(-0.576305 -0.295259 3.50105e-22)
(-0.0201151 0.051954 -8.28468e-21)
(-0.52745 0.234722 -5.31351e-21)
(-0.43297 0.279957 -7.68569e-21)
(-0.286484 0.0282176 7.49362e-21)
(-0.539195 0.112247 2.07387e-20)
(-0.505065 0.177357 0)
(-0.370855 0.0529284 -2.0223e-20)
(-0.349629 0.191224 1.03604e-20)
(-0.636763 0.344318 0)
(-0.0535191 0.0766465 1.1376e-20)
(-0.741905 -0.23083 4.92735e-25)
(-0.519697 0.179417 0)
(-0.366348 0.0397834 -7.13834e-21)
(-0.344249 0.201708 -1.46317e-20)
(-0.439943 0.137578 8.24399e-21)
(-0.404986 0.184622 -4.26612e-21)
(-0.356371 0.110457 2.1287e-21)
(-0.384749 0.359753 7.91643e-21)
(-0.675673 0.124129 -6.03098e-21)
(-0.356016 -0.124727 1.19335e-20)
(-0.505395 0.14268 0)
(-0.32821 0.0535462 0)
(-0.391935 0.230762 1.20384e-21)
(-0.524501 0.157145 1.00605e-20)
(-0.339333 0.0396863 5.51312e-21)
(-0.379283 0.230988 1.71161e-22)
(-0.516477 0.400714 1.84783e-20)
(-0.636976 0.0383544 -1.00186e-20)
(-0.208414 -0.0284983 -1.32109e-20)
(-0.0743447 0.0881936 1.71408e-20)
(-0.076675 0.0941877 -1.73844e-20)
(-0.723524 -0.202002 4.83877e-21)
(-0.713495 -0.213626 3.36048e-21)
(-0.653287 0.347652 0)
(-0.660259 0.338483 -6.09958e-21)
(-0.703945 0.27727 1.0369e-20)
(-0.637572 -0.229479 -1.01977e-20)
(-0.124693 0.157003 1.46908e-20)
(-0.18059 -0.0219632 -8.58286e-21)
(-0.540439 0.418949 3.81426e-21)
(-0.655513 0.0162416 1.29547e-20)
(-0.455996 0.323753 -7.51909e-21)
(-0.262823 -0.0014142 -7.87151e-21)
(-0.577587 0.0908844 6.54192e-21)
(-0.695888 0.163417 0)
(-0.433102 -0.158793 7.85109e-21)
(-0.311823 0.308921 2.54895e-22)
(-0.607372 -0.313461 5.82683e-21)
(-0.0430677 0.0845582 -7.72146e-21)
(-0.619939 0.241099 -4.52221e-21)
(-0.164674 0.20877 0)
(-0.728586 0.228795 0)
(-0.585373 -0.253116 6.89268e-21)
(-0.643623 0.319837 5.3298e-21)
(-0.0532091 0.0851855 0)
(-0.71892 -0.261505 -5.87958e-21)
(-0.0144065 0.0421233 -3.06195e-32)
(-0.548117 -0.281621 -5.37777e-21)
(-0.485265 0.224194 5.40431e-21)
(-0.584654 -0.24319 6.01853e-21)
(-0.0106157 0.0350533 3.05494e-32)
(-0.463984 0.261531 -4.80357e-21)
(-0.50905 -0.134139 -1.52474e-20)
(-0.672337 0.23902 0)
(-0.226478 0.20857 -2.22322e-20)
(-0.626208 -0.300348 -3.14766e-21)
(-0.0856358 0.136294 -7.87981e-21)
(-0.700342 0.243948 0)
(-0.671679 0.295466 -8.91276e-21)
(-0.597044 -0.152262 8.67124e-21)
(-0.155452 0.148777 1.16106e-20)
(-0.609706 0.382812 1.55626e-20)
(-0.0507567 0.0489949 6.94573e-21)
(-0.782297 -0.173482 0)
(-0.544252 0.246215 3.87532e-21)
(-0.262496 0.144543 -4.22827e-21)
(-0.450942 0.0145874 3.93976e-21)
(-0.609933 -0.270633 3.56262e-21)
(-0.134107 0.182512 8.29432e-21)
(-0.723761 0.238345 2.8492e-21)
(-0.688102 0.155904 -6.85152e-21)
(-0.328214 0.320045 -4.51407e-21)
(-0.414339 -0.146244 0)
(-0.482053 -0.16493 0)
(-0.693637 0.202501 0)
(-0.256543 0.258524 0)
(-0.0029745 0.0150266 0)
(-0.344881 -0.15871 -4.47103e-21)
(-0.280542 0.134947 4.07677e-21)
(-0.641119 -0.293694 5.77872e-21)
(-0.0244218 0.0579332 -1.00016e-20)
(-0.56299 0.277621 -5.50643e-21)
(-0.527885 0.235807 -9.97042e-21)
(-0.278012 0.144983 9.93712e-21)
(-0.437576 0.0304954 4.54736e-21)
(-0.640855 -0.267929 1.46042e-20)
(-0.70935 0.264439 -5.78811e-21)
(-0.106289 0.15098 0)
(-0.113031 0.166309 -8.72705e-21)
(-0.72093 0.236872 0)
(-0.614468 -0.28999 -1.09303e-20)
(-0.672731 0.323685 -6.2563e-21)
(-0.0992084 0.112445 2.59672e-20)
(-0.679438 -0.196877 0)
(-0.0909292 0.0585348 -1.9637e-20)
(-0.709386 -0.119433 7.47122e-21)
(-0.626894 0.384573 0)
(-0.504367 0.41093 -2.32234e-20)
(-0.649718 0.0467698 1.27699e-20)
(-0.225036 -0.0477777 -4.20354e-21)
(-0.657417 -0.0467307 2.25745e-21)
(-0.591305 0.398662 7.58152e-21)
(-0.133179 0.0315767 -1.19283e-20)
(-0.074324 0.0448899 -1.76528e-20)
(-0.617391 0.396821 0)
(-0.749666 -0.131128 0)
(-0.535264 0.331665 -3.62164e-21)
(-0.551526 0.342367 0)
(-0.552037 0.0269625 -1.33141e-20)
(-0.566216 0.0110068 1.42288e-20)
(-0.204775 0.055288 2.00219e-21)
(-0.190113 0.0547646 -2.13484e-21)
(-0.518674 0.333894 3.47585e-21)
(-0.55865 0.0424147 0)
(-0.215539 0.0405909 3.84887e-21)
(-0.560069 0.400084 0)
(-0.638561 -0.00597126 -1.25645e-20)
(-0.163213 0.0108785 2.72134e-21)
(-0.509318 -0.185572 -7.97181e-21)
(-0.705734 0.209634 6.36234e-21)
(-0.234338 0.245847 -1.79106e-20)
(-0.626775 -0.244506 0)
(-0.708932 0.266459 1.5812e-20)
(-0.127653 0.165411 0)
(-0.205175 0.217422 -5.75996e-21)
(-0.703084 0.23223 -4.11292e-21)
(-0.542662 -0.189201 -5.21496e-21)
(-0.624039 -0.24471 -8.25019e-22)
(-0.0123036 0.0375687 5.33194e-21)
(-0.487613 0.281539 0)
(-0.468254 0.281788 6.90918e-21)
(-0.476146 0.272992 0)
(-0.264928 0.0576671 0)
(-0.515244 0.086294 2.53833e-20)
(-0.26659 0.0731049 0)
(-0.499868 0.0787048 -1.61144e-20)
(-0.539418 0.384899 0)
(-0.522621 0.374471 0)
(-0.20204 0.00514519 3.18327e-23)
(-0.616641 0.0193881 7.78728e-21)
(-0.187293 0.0102477 1.98507e-20)
(-0.605531 0.0341245 -1.64435e-20)
(-0.557108 -0.306174 0)
(-0.0252038 0.060055 1.12845e-20)
(-0.549934 0.223378 0)
(-0.642526 -0.259731 -8.60282e-21)
(-0.708281 0.269514 1.75715e-21)
(-0.110235 0.149108 5.22952e-21)
(-0.460589 0.3529 -1.30241e-20)
(-0.262756 -0.032193 -9.05841e-21)
(-0.609909 0.0854776 2.17242e-20)
(-0.474049 -0.185123 1.72894e-20)
(-0.710134 0.180491 1.65485e-20)
(-0.273836 0.288565 0)
(-0.0965309 0.0530624 2.09978e-20)
(-0.7027 -0.107344 -7.94973e-21)
(-0.622191 0.38873 8.41956e-21)
(-0.677421 -0.29286 0)
(-0.62426 0.291454 0)
(-0.0403895 0.0780534 0)
(-0.67336 -0.292639 0)
(-0.645019 0.285583 4.92129e-21)
(-0.0510151 0.0913899 1.90367e-21)
(-0.585645 0.373651 -7.20476e-21)
(-0.617686 -0.0343266 4.50544e-21)
(-0.149159 0.0490586 5.59341e-21)
(-0.401323 0.281095 -2.018e-21)
(-0.311985 -0.00497875 0)
(-0.56882 0.135791 -7.26634e-23)
(-0.669278 0.326862 7.28987e-21)
(-0.0889347 0.105707 1.51748e-20)
(-0.696867 -0.208622 -3.91415e-21)
(-0.515158 -0.152219 0)
(-0.683387 0.235093 0)
(-0.222719 0.218393 1.91659e-20)
(-0.117523 0.105027 4.87896e-21)
(-0.651245 -0.142075 1.19667e-20)
(-0.653402 0.338232 1.88729e-20)
(-0.509758 0.374837 0)
(-0.21435 -0.00662877 -1.32448e-20)
(-0.608575 0.0446905 8.39362e-21)
(-0.627229 0.175552 7.72393e-23)
(-0.384424 -0.071149 7.69234e-21)
(-0.329973 0.268822 0)
(-0.442238 0.304908 1.08754e-22)
(-0.275578 0.00496295 -2.56729e-21)
(-0.566108 0.102679 -8.57268e-21)
(-0.0889401 0.113019 8.49124e-24)
(-0.691639 -0.227995 9.28202e-21)
(-0.676478 0.314721 8.22699e-21)
(-0.634801 0.345532 -3.4425e-21)
(-0.630949 -0.104044 -3.51685e-21)
(-0.13014 0.0942884 0)
(-0.440397 0.271812 -7.49317e-21)
(-0.284977 0.0449924 1.60864e-20)
(-0.522755 0.107678 -1.36641e-20)
(-0.61321 0.39611 6.04791e-21)
(-0.0640374 0.0431591 7.88016e-21)
(-0.768116 -0.145634 -5.63874e-21)
(-0.514968 0.303136 -4.39211e-21)
(-0.520879 0.0436209 0)
(-0.229024 0.068165 0)
(-0.556992 0.19617 -1.81053e-20)
(-0.385303 0.00381397 4.44029e-21)
(-0.319585 0.206483 0)
(-0.479186 -0.146241 0)
(-0.681813 0.209475 1.29578e-20)
(-0.254034 0.24607 0)
(-0.594368 0.359864 -3.4512e-21)
(-0.0366167 0.052118 -2.44083e-21)
(-0.777794 -0.214283 6.43053e-21)
(-0.593498 0.370037 9.52795e-21)
(-0.0379614 0.0487074 0)
(-0.785962 -0.198978 -6.15438e-21)
(-0.109518 0.0929563 4.47394e-21)
(-0.665564 -0.136955 -7.12722e-21)
(-0.647156 0.349365 -1.73105e-20)
(-0.641381 0.162421 -6.05885e-21)
(-0.381128 -0.0887099 -7.71853e-21)
(-0.341584 0.288989 0)
(-0.028398 0.0460775 2.23629e-21)
(-0.773234 -0.222241 -6.01238e-21)
(-0.569201 0.352138 0)
(-0.14553 0.14803 0)
(-0.61247 -0.17144 -7.31242e-21)
(-0.679695 0.293693 -2.17313e-21)
(-0.0111707 0.0348085 8.99885e-21)
(-0.470092 -0.267257 6.05269e-21)
(-0.432979 0.181969 0)
(-0.395021 0.240585 -5.39275e-21)
(-0.531157 -0.204415 0)
(-0.00628289 0.0252738 9.01401e-21)
(-0.0799238 0.05426 1.55699e-23)
(-0.733427 -0.134085 0)
(-0.624461 0.388659 0)
(-0.0731935 0.107753 0)
(-0.693051 -0.258494 0)
(-0.674381 0.306214 1.10857e-20)
(-0.650748 0.35215 -6.38495e-21)
(-0.653575 0.348997 5.16874e-21)
(-0.0805411 0.0841329 -8.59157e-21)
(-0.716984 -0.179583 -1.58683e-21)
(-0.0903288 0.0900244 -1.38893e-20)
(-0.697363 -0.169458 2.8605e-21)
(-0.687189 0.280668 4.17979e-21)
(-0.59997 -0.17905 4.82587e-21)
(-0.155096 0.161836 0)
(-0.299056 0.3122 0)
(-0.449858 -0.179964 0)
(-0.709795 0.165647 0)
(-0.475223 0.247989 0)
(-0.283814 0.0971655 -2.18842e-20)
(-0.47073 0.0796385 8.85479e-21)
(-0.692654 0.253547 1.18845e-20)
(-0.560272 -0.176929 1.77349e-21)
(-0.186587 0.193133 1.70025e-20)
(-0.203037 0.207441 1.10683e-20)
(-0.693388 0.242717 -1.6522e-20)
(-0.542517 -0.173926 -2.46122e-21)
(-0.610645 0.408278 6.75228e-21)
(-0.0803753 0.035419 8.4508e-21)
(-0.746245 -0.112068 1.23437e-20)
(-0.542408 0.394989 0)
(-0.629064 0.0148991 3.73288e-21)
(-0.181237 0.00285038 -1.94561e-20)
(-0.527399 0.358315 0)
(-0.588011 0.0330245 1.68109e-20)
(-0.201834 0.020023 3.1285e-23)
(-0.662394 0.262439 -1.52088e-20)
(-0.532293 -0.125484 2.1381e-21)
(-0.202055 0.179839 -9.62605e-21)
(-0.671707 0.255261 0)
(-0.531861 -0.138045 2.0079e-21)
(-0.205282 0.189678 8.86913e-21)
(-0.428641 0.255384 0)
(-0.29911 0.0542991 -2.53984e-20)
(-0.510431 0.116778 7.64343e-21)
(-0.55275 0.353166 0)
(-0.579303 0.00668992 0)
(-0.182583 0.043918 2.90978e-21)
(-0.146463 0.198541 -1.79683e-20)
(-0.593891 -0.272884 -1.94376e-20)
(-0.731786 0.227317 0)
(-0.656042 0.268133 6.77773e-21)
(-0.0549814 0.0984773 0)
(-0.646635 -0.303827 4.19957e-21)
(-0.647185 0.249178 -8.59259e-23)
(-0.0523957 0.0967599 0)
(-0.624774 -0.309851 -1.20583e-20)
(-0.483731 0.320314 5.20767e-21)
(-0.24215 0.0287293 -2.79874e-21)
(-0.554395 0.070734 -1.12825e-22)
(-0.649784 -0.298216 1.77783e-22)
(-0.0337861 0.0707911 1.53002e-20)
(-0.60263 0.274888 0)
(-0.638273 0.35504 1.48423e-20)
(-0.115432 0.0871229 9.38271e-21)
(-0.656724 -0.117404 0)
(-0.0348848 0.0736517 -2.27327e-21)
(-0.611739 -0.310535 -6.51145e-21)
(-0.597736 0.248012 0)
(-0.493433 0.195529 1.23208e-20)
(-0.332115 0.166419 1.31508e-20)
(-0.394867 0.0652722 6.45686e-23)
(-0.596657 0.288507 -2.2218e-21)
(-0.512084 -0.0373245 -2.18453e-21)
(-0.208031 0.129631 -9.93075e-21)
(-0.357711 -0.0772577 1.75711e-20)
(-0.633126 0.150246 1.4131e-20)
(-0.363002 0.300621 0)
(-0.0949042 0.14435 0)
(-0.630589 -0.29126 -3.94342e-21)
(-0.707197 0.249836 0)
(-0.502588 -0.157478 0)
(-0.687217 0.22393 0)
(-0.234102 0.23079 0)
(-0.0601909 0.0518138 0)
(-0.618649 0.384872 -5.72125e-21)
(-0.768379 -0.161465 5.52543e-21)
(-0.612103 0.293114 0)
(-0.525657 -0.0569666 1.08348e-21)
(-0.197068 0.133423 9.71452e-21)
(-0.467477 0.236323 0)
(-0.297004 0.105011 1.8779e-20)
(-0.459675 0.0860662 0)
(-0.649956 -0.278994 -1.38185e-20)
(-0.699601 0.268885 5.49565e-21)
(-0.0925599 0.137234 0)
(-0.126031 0.124748 -1.0249e-20)
(-0.639079 -0.167039 4.65374e-22)
(-0.669426 0.316198 1.48839e-22)
(-0.61755 0.344781 0)
(-0.608674 0.340439 6.50721e-21)
(-0.0430134 0.0658773 -5.60136e-21)
(-0.0384861 0.0640871 -6.89728e-21)
(-0.753267 -0.232605 -3.94714e-21)
(-0.748389 -0.2429 3.24549e-21)
(-0.614546 0.223662 0)
(-0.43692 -0.0604407 2.94674e-20)
(-0.271417 0.206426 1.04951e-20)
(-0.486131 -0.116611 2.1395e-20)
(-0.660639 0.230986 0)
(-0.238521 0.213293 -1.16336e-20)
(-0.537237 0.211318 -1.01951e-20)
(-0.404306 0.0208226 7.5816e-21)
(-0.300618 0.176776 1.61409e-20)
(-0.64887 -0.300006 9.17328e-21)
(-0.678534 0.265775 7.22241e-21)
(-0.633218 -0.305008 -4.37245e-21)
(-0.0677633 0.113334 0)
(-0.684754 0.251529 -6.97801e-21)
(-0.0728261 0.120208 0)
(-0.639816 0.303783 0)
(-0.565467 -0.0997234 0)
(-0.171276 0.134954 1.0882e-20)
(-0.689908 0.279148 9.85103e-21)
(-0.680812 0.277174 -1.84067e-20)
(-0.664596 -0.278115 6.01685e-21)
(-0.66513 -0.288021 -1.50889e-20)
(-0.0807758 0.123564 1.53905e-20)
(-0.0706557 0.113509 1.78091e-24)
(-0.656069 0.221771 0)
(-0.465465 -0.110647 -1.97137e-20)
(-0.258679 0.230313 1.50898e-20)
(-0.588871 0.247565 9.65431e-21)
(-0.472297 -0.0388179 -1.31296e-20)
(-0.236083 0.159661 0)
(-0.611697 0.373992 0)
(-0.0474614 0.0541696 0)
(-0.777401 -0.190675 5.91188e-21)
(-0.612113 0.236653 7.10177e-21)
(-0.453093 -0.0555645 -8.18721e-21)
(-0.256278 0.191141 -1.74281e-20)
(-0.556087 0.223092 4.12332e-21)
(-0.420102 0.00125722 -8.8876e-21)
(-0.284901 0.174902 9.47462e-21)
(-0.609481 0.354316 0)
(-0.042838 0.0599732 0)
(-0.767789 -0.220653 -8.13904e-21)
(-0.609657 0.307252 0)
(-0.547713 -0.0567329 2.32427e-21)
(-0.18017 0.117065 -1.08145e-20)
(-0.401553 -0.149829 0)
(-0.69214 0.145505 0)
(-0.344389 0.339171 -5.83364e-22)
(-0.505769 0.3854 -5.92077e-22)
(-0.6215 0.0483935 0)
(-0.217599 -0.020535 2.06123e-20)
(-0.532729 -0.229731 9.36162e-21)
(-0.217929 0.257761 0)
(-0.729946 0.199837 0)
(-0.00614392 0.0240799 -2.16597e-20)
(-0.450428 -0.209139 6.25713e-21)
(-0.36971 0.18321 -5.70695e-21)
(-0.613327 0.263635 0)
(-0.485873 -0.0552603 8.06536e-21)
(-0.225788 0.161636 -8.9274e-21)
(-0.634132 0.363796 1.06673e-20)
(-0.0607495 0.0693623 2.90878e-20)
(-0.7504 -0.189277 0)
(-0.262639 -0.0710124 -5.51456e-21)
(-0.653974 0.0729841 -8.35059e-21)
(-0.468743 0.398803 -5.26065e-21)
(-0.475734 0.297763 0)
(-0.0120764 0.0342363 -8.11042e-21)
(-0.659851 -0.231241 0)
(-0.369378 0.249725 1.00418e-20)
(-0.37569 0.266825 -1.0285e-20)
(-0.336818 9.95076e-05 0)
(-0.560358 0.156494 8.76452e-21)
(-0.333232 -0.0155736 -1.64637e-20)
(-0.576708 0.149553 -7.06184e-21)
(-0.53575 0.19669 9.5919e-21)
(-0.38505 0.0251005 1.00199e-20)
(-0.321715 0.193007 0)
(-0.412297 0.271912 8.85864e-21)
(-0.391394 0.256639 0)
(-0.302702 0.0178915 -9.10547e-21)
(-0.546771 0.126939 7.85978e-21)
(-0.318147 0.018694 9.17316e-21)
(-0.543843 0.14147 5.55886e-23)
(-0.600848 0.260383 6.13544e-22)
(-0.450617 -0.0290489 -5.70112e-21)
(-0.256079 0.172041 -1.17036e-20)
(-0.593608 0.237771 -1.66045e-20)
(-0.443744 -0.0347519 1.51186e-22)
(-0.264769 0.184408 0)
(-0.0623243 0.110419 0)
(-0.614465 -0.314392 0)
(-0.668497 0.240337 7.60991e-21)
(-0.502718 0.32083 -4.80379e-21)
(-0.547877 0.0570493 0)
(-0.229863 0.0419339 5.18686e-21)
(-0.686172 0.293046 -1.76005e-20)
(-0.675503 -0.263088 6.93325e-21)
(-0.0824418 0.120759 -8.77942e-21)
(-0.662184 0.277748 0)
(-0.670926 0.281979 8.58371e-21)
(-0.555901 -0.128753 -2.6639e-21)
(-0.57458 -0.144535 8.53335e-21)
(-0.182062 0.164176 -1.20274e-20)
(-0.170664 0.161432 -1.12133e-20)
(-0.501623 0.305158 0)
(-0.529338 0.0567773 0)
(-0.236675 0.0566102 2.43492e-21)
(-0.562756 0.376109 5.75517e-21)
(-0.609758 -0.0050248 0)
(-0.169026 0.0318031 6.48742e-21)
(-0.64056 0.277515 -4.36438e-21)
(-0.528602 -0.0963495 0)
(-0.196252 0.160497 0)
(-0.433576 0.208197 9.70101e-21)
(-0.448719 0.113398 -4.74047e-21)
(-0.327046 0.106314 5.04674e-21)
(-0.682018 0.262449 0)
(-0.558055 -0.159077 0)
(-0.186514 0.18401 -1.80757e-20)
(-0.461011 0.254575 0)
(-0.283558 0.0800257 2.78034e-21)
(-0.486871 0.0912238 0)
(-0.64897 0.237928 -9.6772e-21)
(-0.479976 -0.102959 -1.09772e-20)
(-0.241861 0.204731 -1.50415e-21)
(-0.566778 0.361625 5.81922e-21)
(-0.593885 -0.00957625 0)
(-0.169749 0.0452491 1.33239e-20)
(-0.440944 0.224577 -9.61766e-21)
(-0.429818 0.229338 -4.31056e-21)
(-0.462606 0.105936 4.64946e-21)
(-0.311874 0.0961919 -9.96988e-21)
(-0.478532 0.114138 0)
(-0.311228 0.0814811 -1.78216e-20)
(-0.408859 0.244532 -4.38155e-21)
(-0.312135 0.0459452 1.18667e-20)
(-0.394052 0.247967 2.82141e-21)
(-0.514561 0.129865 -1.05886e-20)
(-0.32344 0.0289315 -5.69216e-21)
(-0.533573 0.142908 1.69713e-22)
(-0.53417 0.317562 5.20493e-21)
(-0.552293 0.315634 0)
(-0.534133 0.0263595 9.83961e-21)
(-0.53191 0.0105667 -7.67783e-21)
(-0.211528 0.0688385 -1.15469e-20)
(-0.204906 0.0819452 1.92126e-20)
(-0.0970001 0.0701764 0)
(-0.691909 -0.123602 -4.38472e-21)
(-0.633411 0.371698 -8.98925e-21)
(-0.362472 0.34199 7.06128e-21)
(-0.677906 0.138434 9.50961e-21)
(-0.378848 -0.129907 -1.87435e-20)
(-0.0895346 0.0736369 -9.78244e-21)
(-0.0949261 0.0842492 7.82186e-21)
(-0.703552 -0.142933 3.79018e-21)
(-0.690096 -0.15099 6.5116e-21)
(-0.638722 0.368704 2.3055e-20)
(-0.647226 0.35674 -1.2012e-20)
(-0.427713 0.356412 9.59905e-21)
(-0.298576 -0.0652866 -8.69036e-21)
(-0.633985 0.105614 2.06623e-21)
(-0.425867 0.179679 1.63014e-20)
(-0.357592 0.131825 0)
(-0.417644 0.121523 -1.62366e-20)
(-0.680624 0.274497 -4.14303e-21)
(-0.577136 -0.16137 -9.63433e-21)
(-0.171476 0.170296 0)
(-0.480234 0.294257 0)
(-0.251546 0.0490938 -2.32127e-21)
(-0.526692 0.0753837 -8.2357e-21)
(-0.576659 0.36127 0)
(-0.596691 -0.0204703 0)
(-0.162353 0.0530511 -1.24155e-20)
(-0.619747 0.382468 -9.59605e-21)
(-0.623744 0.371506 0)
(-0.678042 -0.0934303 2.30942e-21)
(-0.109309 0.0582706 -1.19034e-20)
(-0.662723 -0.0943231 -6.29764e-21)
(-0.115056 0.0687839 1.60996e-20)