/*--------------------------------*- C++ -*----------------------------------*\
  =========                 |
  \\      /  F ield         | OpenFOAM: The Open Source CFD Toolbox
   \\    /   O peration     | Website:  https://openfoam.org
    \\  /    A nd           | Version:  6
     \\/     M anipulation  |
\*---------------------------------------------------------------------------*/
FoamFile
{
    version     2.0;
    format      ascii;
    class       volScalarField;
    location    "0";
    object      P_rec;
}
// * * * * * * * * * * * * * * * * * * * * * * * * * * * * * * * * * * * * * //

dimensions      [0 2 -2 0 0 0 0];

internalField   nonuniform List<scalar> 
918
(
0.621627
0.279344
0.125233
0.647847
-0.00217592
0.151166
-0.772694
0.550017
0.656854
-0.148572
0.0333948
0.505683
-0.0372318
-0.0268306
-1.16094
0.0236412
0.621272
-0.733681
0.462301
0.0275298
-0.166496
0.65102
0.572949
0.456375
0.551125
-0.123451
0.0646829
-0.0426455
-0.0649587
-0.0492256
-0.001079
0.0587707
0.0122001
0.116386
0.121875
0.175579
0.470974
0.233452
-0.639809
-0.687062
-0.68332
-0.858244
0.56213
0.577309
-0.243276
0.527107
0.497828
0.472156
0.631966
0.660541
0.57928
0.633507
0.666188
0.251032
-0.199152
-0.265388
-0.101674
-0.100628
0.0693128
0.0261657
0.0114046
0.0661672
0.0534056
0.420828
0.496519
0.492305
0.51782
0.515675
0.240068
0.20346
0.256336
-0.0419463
0.116336
-0.0562814
0.0716856
-0.0210089
0.0172884
-0.0419573
-0.0593883
-1.41506
-2.1613
-0.699665
-0.578205
0.00486906
0.0245039
0.0336276
0.611436
0.613116
0.607361
0.616863
0.711959
-0.66569
-0.844585
0.496227
0.496672
0.639583
0.585739
0.51945
0.443344
0.0242795
0.020765
0.0125509
0.0450758
0.0353966
0.0693577
0.206961
0.434105
0.471207
0.515166
0.542041
0.528948
0.254184
0.591206
0.58718
-0.118401
0.0356859
-0.115311
-0.0277944
0.0786197
0.0469181
0.149488
0.184911
-0.0694617
-0.0118612
0.0424908
0.00438462
0.031887
0.469862
0.459645
0.485635
0.474056
0.479278
0.135301
0.0435555
0.303358
0.337336
-0.508184
-0.544021
-0.759552
-0.773651
-0.890137
0.517798
0.583322
0.59891
-0.361528
-0.221209
-0.392754
-0.132486
-0.175995
0.476527
0.468144
0.468747
0.476573
0.480972
0.481684
0.641183
0.633148
0.674684
0.260873
0.34386
0.238309
0.191465
-0.476965
-0.363076
-0.46059
-0.0713842
-0.0249938
0.0565227
0.0909658
0.106892
0.0777712
-0.0191528
0.00696956
-0.008935
0.022413
0.0213253
0.424441
0.408658
0.422574
0.432252
0.488986
0.487765
0.494838
0.496382
0.162213
0.149382
0.101619
0.0779066
-2.94485
-5.08891
-0.394554
-0.311289
-0.00317745
-0.0161982
-0.00596312
-0.0941779
-0.0181897
-0.0475378
0.0697057
0.0401437
0.0362916
0.0559111
0.610321
0.624191
0.702135
0.72682
0.634398
0.631321
0.49471
0.505366
0.499399
0.502145
0.0344423
0.0222297
0.0372041
0.458548
0.333642
0.394719
0.220788
0.125452
0.301557
0.342131
0.613403
0.596497
0.618113
-0.127596
-0.044914
0.301217
0.020551
0.279892
0.0848421
0.049988
0.107238
0.0086102
0.437478
0.454971
0.451935
0.480464
0.489708
0.488922
0.491214
0.482764
0.48672
-0.117306
-0.408176
0.43919
0.432933
0.374832
0.420235
0.579065
0.62587
0.607639
0.594383
0.605115
-0.0275396
-0.0632264
0.140866
0.130661
0.372422
0.387799
0.377868
0.0749184
0.0351494
0.0726401
0.0601277
0.0368707
0.0887939
-0.385273
-1.72854
-0.979458
-0.141232
-0.210536
-0.189676
0.0359926
0.106817
0.071127
0.695899
0.746696
0.392514
0.557027
0.508551
-0.175364
-0.0881524
0.0217448
-0.107357
-0.0517665
0.0294981
-0.0196566
0.442844
0.413535
0.436692
0.64163
0.702607
0.0879346
0.022994
-0.0167928
0.112541
0.102932
0.10241
0.732979
0.699029
0.730288
0.444436
0.430307
-0.066341
-0.00529071
0.554919
0.58546
-0.0712976
-0.0302157
-0.115952
-0.732852
0.0842582
0.499763
0.453955
0.515407
-0.200981
0.140378
-0.00258323
0.0115869
-0.0397417
0.474541
0.398743
0.368191
-0.0688777
0.00556794
-0.00707967
-0.444821
0.510455
0.492472
0.498819
0.512048
0.526102
-0.00676205
-0.0161619
0.0326614
-0.0379708
0.0473386
0.0446232
0.48042
0.46938
-0.431834
0.492542
0.51987
0.517846
0.53323
0.534128
0.519948
-0.0155736
0.0349384
0.0423764
0.1887
0.293349
-0.0384711
-0.126922
0.00692652
-0.124939
-0.302318
-0.0633426
-0.0674947
-0.0610473
-0.0675607
0.570004
0.529892
0.174166
-0.016791
0.157112
0.124422
0.496323
0.516127
0.486195
0.4997
0.520295
0.462455
0.53683
0.500693
0.496372
0.545942
-0.158765
-0.0687701
-0.143737
-0.271754
0.21828
0.33721
0.120474
0.209425
0.0743133
-0.0180574
0.0475372
-0.030673
-0.00438188
-0.0148638
0.105943
0.0338048
0.139198
0.0212715
0.115715
-0.0540396
0.149204
-0.010774
0.456551
0.478904
0.475777
0.52059
0.433222
0.454547
0.432344
0.428816
0.450917
0.379572
0.398489
0.399299
0.0157432
0.0163114
0.0507199
0.021548
0.0483651
-0.0303529
-0.0243697
-0.0247732
-0.00378992
-0.0512206
-0.0140061
-0.00336431
-0.360214
-0.525752
0.625003
0.533505
-0.0142569
0.464368
0.514924
0.48533
0.528102
0.53814
0.5739
0.534572
0.510237
0.476635
0.494699
0.475464
0.495949
-0.342688
-0.411152
-0.266255
-0.308059
0.151062
0.593012
0.349057
0.294726
0.287644
0.451223
0.396131
0.11541
-0.257815
-0.400549
-0.477127
-0.364314
-0.509365
-0.05323
0.00973621
-0.120378
-0.048692
0.0306627
-0.0307565
-0.0350137
-0.0856631
0.479849
-0.14893
-0.130031
0.103736
0.0153612
0.239116
0.570171
0.579927
0.506877
0.479796
0.555203
0.526699
0.52657
0.557377
0.563094
0.473267
0.236333
0.226911
0.158106
0.581314
0.495318
0.530133
0.412204
0.519768
0.524431
0.500635
0.489243
0.531616
0.489583
0.484102
0.45875
0.45042
0.495244
0.498814
0.465021
-0.031616
-0.0432939
-0.154925
-0.350968
-0.217908
-0.312706
-0.193461
-0.109529
-0.197047
-0.0312941
0.187256
-0.114636
-0.283622
-0.145792
-0.240132
0.00913837
-0.0616354
0.0827043
0.107214
0.0797052
0.0988833
0.160941
0.137655
0.0233212
0.0269707
0.0641551
-0.0166442
0.12283
0.0719623
0.143295
0.0617573
0.120037
0.0725061
0.0302705
-0.0407194
0.08184
0.0220252
-0.0436378
0.0319167
0.0174413
-0.0808363
-0.0783681
0.192508
0.0532651
0.504018
0.484718
0.487055
0.507108
0.543863
0.533717
0.475433
0.478978
0.511667
0.477118
0.445552
0.425459
0.412701
0.448637
0.460026
0.45561
0.500696
0.490899
0.461527
0.484167
0.426903
0.447529
0.396392
0.419875
0.4504
-0.106089
0.0292637
-0.0363564
-0.0445926
0.0159355
0.0594224
0.122511
0.0318754
0.127108
0.0977073
0.062829
0.0371004
0.0651499
-0.223418
-0.118606
-0.343903
-0.432284
-0.526684
0.5986
0.681836
0.557501
0.396591
0.451084
0.555048
0.659575
0.37994
0.411397
0.509739
0.424646
0.618074
0.49881
0.482299
0.504608
0.52916
0.501431
-0.183272
-0.041477
0.000105256
0.114998
0.2142
0.274824
0.134021
0.0979716
0.186946
0.208711
0.572773
0.593981
0.560931
0.595212
0.590104
0.384472
0.480464
0.507362
0.508102
0.506957
0.529139
0.541388
0.534093
0.458768
0.457736
0.463671
0.422961
0.446938
0.418006
0.418987
0.474406
0.451271
0.451519
0.465165
0.517351
0.489479
0.522574
0.57148
0.546953
0.443342
0.425562
0.45198
0.461454
0.440572
0.439532
0.431746
0.136156
0.158921
0.0908512
-0.079407
0.0421522
-0.0223824
-0.0707281
-0.054515
0.0797589
-0.387448
-0.330691
-0.840672
0.357664
0.45507
0.217214
-0.0804229
0.458105
0.502051
0.486567
0.374395
0.381621
0.564119
0.585169
0.594929
0.520651
0.51153
0.533852
0.51615
0.476054
0.340371
0.26538
0.318568
0.156207
0.219651
0.374568
0.315382
0.275053
0.309481
0.396949
0.30236
0.32711
0.403636
0.362754
0.358361
0.482182
0.527725
0.547236
0.486124
0.394493
0.459756
0.443776
0.492048
0.534402
0.53649
0.500905
0.480174
0.491559
0.482386
0.469237
0.488767
0.454356
0.506124
0.512109
0.520816
0.514592
-0.0329336
-0.0115712
0.004719
-0.0389161
-0.122144
-0.167356
-0.176193
-0.173124
0.0444775
0.00880376
-0.112519
-0.046237
0.0664725
0.0088033
0.0168427
0.0242603
-0.0481679
-0.110625
0.116727
0.279296
0.276228
0.216849
0.087591
0.108851
0.219811
0.000246633
0.122144
0.0677852
0.0214306
0.00744288
0.018356
0.122422
0.0464706
0.0911195
0.0315207
-0.130843
0.0494684
0.108339
-0.0554638
0.00863961
0.0451939
0.463242
0.469228
0.453184
0.432796
0.4401
0.437522
0.474879
0.504692
0.504695
0.503496
0.512281
0.492025
0.498219
0.0161767
0.150449
0.183312
0.102006
0.055634
-0.00652014
-0.0280409
0.108531
-0.0346428
0.0150367
-0.143044
-0.259004
-0.196116
0.34119
0.382716
0.375073
0.579093
0.437113
0.34153
0.438555
0.565069
0.269132
0.359141
0.245816
0.604933
0.552421
0.651203
0.422445
0.0539182
0.150853
0.301225
0.00717503
0.0164076
0.140239
0.160899
0.164161
0.150283
0.230519
0.20796
0.17914
0.0706226
0.107235
0.26152
0.241753
0.321904
0.374171
0.0749805
0.100956
0.0455919
0.548913
0.574162
0.596622
0.569223
0.589534
0.530984
0.526652
0.561597
0.590908
0.579323
-0.699131
-0.446649
-1.24656
-0.537366
-0.250947
0.474918
0.187193
0.857495
0.673419
0.528999
0.546591
0.546337
0.504887
0.566001
0.565298
0.309655
0.404652
0.343133
0.385341
0.294788
0.221974
0.528966
0.513894
0.542052
0.560864
0.516548
0.559995
0.414433
0.4611
0.440671
0.478638
0.505776
0.527613
0.0230919
-0.0430494
-0.0243312
-0.0376624
-0.0514112
-0.0724992
-0.0484704
-0.0140127
0.192147
0.125726
0.0590467
0.121234
0.0147232
0.00902961
-0.0997809
-0.0229239
-0.116032
-0.248753
-0.228158
-0.195701
-0.103745
-0.0235483
0.35059
0.493338
0.405284
0.534129
0.378258
0.517847
0.371524
0.378551
0.402558
0.2993
0.33954
0.0285524
-0.288436
-0.171689
0.948124
1.03804
0.655559
0.389315
0.147412
0.475953
0.500209
0.427639
0.445701
0.532535
0.489791
-0.0863771
0.00909186
-0.0590032
-0.00844049
0.147454
0.0822248
0.0865262
0.0747767
0.0832495
)
;

boundaryField
{
    wall-4
    {
        type            calculated;
        value           nonuniform List<scalar> 
100
(
0.621627
0.279344
0.125233
0.647847
0.151166
-0.772694
0.550017
-0.148572
0.0333948
0.505683
-0.0372318
-0.0268306
-1.16094
0.621272
-0.733681
0.462301
0.0275298
-0.166496
0.456375
0.551125
-0.123451
0.0646829
-0.0426455
0.116386
0.470974
-0.687062
-0.858244
0.577309
-0.243276
0.497828
0.472156
-0.265388
-0.100628
0.0114046
0.0534056
0.420828
0.492305
0.515675
0.116336
0.0716856
0.0172884
-0.0593883
-2.1613
-0.578205
0.613116
0.616863
-0.844585
0.496672
0.443344
0.020765
0.0353966
0.206961
0.471207
0.528948
0.254184
0.58718
-0.118401
-0.0277944
0.0469181
0.184911
0.459645
0.485635
0.479278
-0.544021
-0.890137
0.59891
-0.392754
-0.175995
0.468747
0.481684
-0.46059
-0.0249938
-0.008935
0.0213253
0.408658
0.432252
0.488986
0.496382
0.0779066
-0.311289
0.624191
0.49471
0.502145
0.0372041
0.394719
0.125452
0.342131
0.618113
-0.044914
0.0848421
0.451935
0.488922
0.48672
0.605115
-0.0632264
0.377868
0.0601277
-0.189676
-0.0517665
-0.0167928
)
;
    }
    velocity-inlet-5
    {
        type            calculated;
        value           nonuniform List<scalar> 8(0.621627 0.647847 0.656854 0.65102 0.660541 0.666188 0.639583 0.674684);
    }
    velocity-inlet-6
    {
        type            calculated;
        value           nonuniform List<scalar> 4(0.279344 0.151166 0.175579 0.256336);
    }
    pressure-outlet-7
    {
        type            calculated;
        value           uniform 0;
    }
    wall-8
    {
        type            calculated;
        value           nonuniform List<scalar> 
34
(
-0.00217592
0.0236412
0.0122001
0.233452
0.251032
0.0693128
0.0336276
0.711959
0.031887
0.0435555
0.337336
0.517798
0.34386
0.191465
0.0909658
0.0777712
-5.08891
0.0697057
0.0559111
0.72682
0.631321
-0.408176
0.43919
0.420235
0.62587
0.130661
-0.979458
0.071127
0.746696
0.508551
0.436692
0.702607
0.10241
0.730288
)
;
    }
    frontAndBackPlanes
    {
        type            empty;
    }
}

