/*--------------------------------*- C++ -*----------------------------------*\
  =========                 |
  \\      /  F ield         | OpenFOAM: The Open Source CFD Toolbox
   \\    /   O peration     | Website:  https://openfoam.org
    \\  /    A nd           | Version:  6
     \\/     M anipulation  |
\*---------------------------------------------------------------------------*/
FoamFile
{
    version     2.0;
    format      ascii;
    class       volScalarField;
    location    "0";
    object      p;
}
// * * * * * * * * * * * * * * * * * * * * * * * * * * * * * * * * * * * * * //

dimensions      [0 2 -2 0 0 0 0];

internalField   nonuniform List<scalar> 
918
(
0.595379
0.572507
-0.0139942
0.565583
0.00363547
0.534806
-0.767284
0.401876
0.585615
-0.146651
-0.00113452
0.480869
0.417936
0.147402
-1.27776
0.0268641
0.563114
-0.850274
0.439775
0.013988
0.269384
0.615657
0.571621
0.462784
0.514652
0.188682
0.263576
-0.02018
0.00450398
-0.0153417
0.00665751
0.0157734
0.0278475
0.406388
0.454063
0.476742
0.469156
0.191602
-0.526778
-0.564936
-0.598562
-0.919406
0.435206
0.461847
-0.207004
0.359765
0.326863
0.479099
0.570312
0.580358
0.579325
0.594029
0.606291
0.260441
-0.184764
-0.242384
-0.113017
-0.0986693
0.0842606
-0.0175168
-0.0185758
0.0031648
-0.0155679
0.438145
0.475414
0.467174
0.487421
0.480787
0.496465
0.463659
0.486567
0.433105
0.437798
0.367667
0.299677
0.126211
0.125782
0.124453
0.0853152
-1.50973
-2.00525
-0.935751
-0.758902
0.007563
0.0162539
0.0344593
0.5626
0.570395
0.548621
0.55534
0.622013
-0.755328
-1.03167
0.516598
0.495735
0.585511
0.559557
0.460503
0.488427
-0.00504377
-0.00308719
0.00158276
0.0218003
-0.0157845
0.146015
0.170424
0.397071
0.44464
0.47779
0.487128
0.481598
0.261419
0.521837
0.527996
-0.0226735
0.116983
0.155576
0.187079
0.209996
0.172296
0.306266
0.312254
0.0131069
0.0115892
0.0251772
0.0139977
0.0111675
0.462596
0.45263
0.486481
0.467806
0.484864
0.0891372
-0.077747
0.286847
0.426488
-0.356988
-0.352132
-0.827777
-0.774472
-0.980072
0.710512
0.475155
0.50283
-0.177669
-0.152256
-0.257818
-0.0738149
-0.128118
0.504123
0.479476
0.488274
0.466243
0.477745
0.480475
0.589469
0.583179
0.587009
0.247879
0.320558
0.241792
0.182807
-0.503793
-0.288045
-0.504706
-0.0694277
-0.0616765
0.0661358
0.0854174
0.0894676
0.0425762
-0.0569549
-0.013344
-0.0207256
0.00318419
0.00348172
0.443368
0.415824
0.428395
0.437971
0.477426
0.468977
0.464713
0.472109
0.291804
0.345451
0.348721
0.310298
-2.50219
-4.17402
-0.568418
-0.438029
0.0201093
0.009457
0.00347772
-0.013117
0.00166937
-0.00577168
0.0554156
0.0679044
0.0186784
0.0399462
0.554263
0.563154
0.615309
0.667778
0.555456
0.562213
0.482511
0.490224
0.490873
0.490251
-0.00640995
-0.0131071
-0.012809
0.280686
0.186701
0.23395
0.239416
0.144751
0.296049
0.335729
0.5487
0.549054
0.56208
0.0436875
0.0528269
0.33642
0.377276
0.309184
0.341042
0.399913
0.423833
0.40672
0.43585
0.454204
0.446721
0.481937
0.480231
0.483131
0.486607
0.473511
0.476874
-0.164379
-0.383875
0.648276
0.591567
0.491456
0.562274
0.683731
0.714041
0.542195
0.508785
0.531825
-0.0343629
-0.055639
0.172257
0.144252
0.379376
0.388081
0.381877
0.270534
0.124267
0.223752
0.211597
0.164123
0.24124
-0.323726
-1.38384
-0.743157
-0.101419
-0.314666
-0.175788
0.0333577
0.0690144
0.0511515
0.641465
0.677735
0.358783
0.472997
0.455025
0.128248
0.0983868
0.200525
0.131374
0.131051
0.188576
0.109306
0.668774
0.658998
0.695987
0.682198
0.708991
0.0934373
0.0596218
0.0215706
0.108416
0.115215
0.117822
0.656968
0.688011
0.713426
0.403525
0.476637
0.0190607
0.0140319
0.545203
0.523799
-0.00638971
0.0151882
-0.316199
-1.15135
0.18158
0.491415
0.476456
0.517622
-0.139905
0.197404
-0.0155414
0.0695417
0.0488889
0.464574
0.428961
0.391847
0.00725131
0.0183142
-0.0359835
-0.345226
0.492818
0.480892
0.510987
0.515408
0.55307
-0.0061815
0.00784924
0.0279349
-0.0402175
0.00175081
0.0252448
0.471459
0.461191
-0.208331
0.496433
0.506721
0.53619
0.497154
0.517421
0.533276
0.00394103
0.0263721
0.0296895
0.182268
0.322885
-0.0384038
0.202119
-0.311782
-0.377938
-0.510202
-0.129567
-0.0180571
-0.181806
0.0868223
0.456543
0.358523
0.235374
0.0514914
0.194846
0.133358
0.482355
0.494681
0.462228
0.501028
0.496966
0.481476
0.504873
0.486443
0.49361
0.510818
-0.0644791
-0.100067
-0.125023
-0.184726
0.243948
0.33781
0.156641
0.212727
0.121158
-0.0230202
0.01341
-0.0123353
-0.0158162
0.0326158
0.0711351
0.0200408
0.0922304
0.0209728
0.0510584
0.0102019
0.0275109
-0.0118513
0.449306
0.455137
0.455296
0.486298
0.447754
0.444939
0.429947
0.419818
0.453853
0.391581
0.380646
0.399615
0.0214453
0.0179686
0.013346
0.048138
0.0231286
-0.0271631
-0.0429819
-0.0666987
-0.0385035
-0.0299336
-0.0197678
-0.009936
-0.272176
-0.4375
0.572111
0.503131
0.256788
0.502827
0.505877
0.489688
0.482366
0.518245
0.536899
0.526349
0.47897
0.474104
0.483556
0.458169
0.480707
-0.143091
-0.283239
-0.0606126
-0.168903
0.170867
0.524051
0.327234
0.329531
0.314564
0.420441
-0.785686
-0.546385
0.163117
0.207879
-0.854658
-0.633007
-0.805797
-0.616618
-0.476518
0.0452331
0.0842849
0.0834358
0.0777508
-0.0209967
-0.0924922
0.52981
-0.0313742
0.00427113
0.263998
0.142397
-0.0411124
0.490533
0.507935
0.321542
0.279177
0.420353
0.403865
0.415949
0.398914
0.422745
0.432159
0.209358
0.271044
0.21901
0.522776
0.446045
0.453182
0.412727
0.509604
0.504437
0.500226
0.498544
0.508271
0.483671
0.487853
0.47904
0.458976
0.489898
0.474795
0.467624
-0.0754928
-0.0544962
-0.157075
-0.233177
-0.178016
-0.263862
-0.139812
0.0573241
-0.0522242
0.180581
0.271384
0.083603
-0.166768
-0.060989
-0.0678721
0.128726
0.0720116
0.0695831
0.143196
0.13544
0.091881
0.193391
0.178665
0.0399096
0.0571668
0.00709552
0.00380949
0.0914067
0.0847809
0.104381
0.0440182
0.0559275
0.00711872
0.0079007
0.0464592
0.0619909
0.0746486
0.0257733
-0.0106772
0.00839063
-0.00137147
0.00660995
0.0827055
0.0267389
0.476278
0.473612
0.472837
0.463237
0.48173
0.4952
0.430931
0.453404
0.470242
0.459125
0.431977
0.42452
0.422057
0.443967
0.444667
0.448473
0.485817
0.476237
0.449817
0.457147
0.4198
0.437193
0.387121
0.390671
0.420194
-0.00866973
-0.013329
-0.0174651
-0.00189666
-0.00237305
0.0130551
0.0493097
0.0450097
0.0790734
0.0455339
0.0665133
-0.0541316
-0.0122161
-0.10118
0.00619666
-0.249796
-0.291028
-0.381664
0.557663
0.607061
0.491007
0.404488
0.455871
0.510171
0.537946
0.361433
0.420127
0.418678
0.622429
0.626008
0.444475
0.435707
0.494572
0.475339
0.471061
0.0038236
0.167296
0.19528
0.304742
0.325422
0.33074
0.352926
0.345452
0.455613
0.420923
0.512147
0.526223
0.49892
0.524128
0.547027
0.359382
0.45177
0.499755
0.464021
0.457824
0.468127
0.463102
0.451043
0.437936
0.445173
0.436665
0.377042
0.416451
0.406929
0.420136
0.446375
0.440976
0.444089
0.434978
0.481117
0.461846
0.467426
0.498976
0.486195
0.406429
0.385698
0.40145
0.413054
0.413125
0.396092
0.399857
0.392868
0.504191
0.324953
-0.0455615
0.0433694
-0.117386
-0.105364
-0.0404752
0.186893
-0.237226
-0.281812
-0.661189
0.594835
-0.959932
-0.360529
-0.552797
0.235155
0.232322
0.148001
0.0793257
0.175072
0.499519
0.515627
0.52242
0.403239
0.386377
0.29913
0.342593
0.540452
0.508301
0.529504
0.463219
0.318047
0.368523
0.4319
0.408647
0.334675
0.343204
0.378498
0.287627
0.304164
0.405205
0.401999
0.393405
0.458307
0.496625
0.494052
0.482726
0.397117
0.434536
0.417969
0.45436
0.466541
0.453462
0.495998
0.469515
0.459156
0.466365
0.478325
0.481781
0.46135
0.494629
0.498711
0.528537
0.506901
-0.00495251
0.0128358
-0.0251497
-0.032747
0.034809
-0.00648313
-0.134081
-0.151624
0.0419232
0.00748182
-0.0239961
-0.0612051
-0.00232782
0.0271119
0.096206
0.129982
0.126381
0.0646984
0.211736
0.298031
0.327881
0.266739
0.173951
0.177818
0.221945
0.0438894
0.0605034
0.0452083
0.0615269
0.053425
-0.0411234
-0.0267446
-0.0263609
0.038377
0.0153496
-0.0477593
-0.00220472
0.000552955
-0.0207323
-0.0049824
-0.00289413
0.454592
0.421403
0.383309
0.361575
0.387041
0.398893
0.460317
0.464508
0.486162
0.480658
0.472709
0.466435
0.483825
-0.0192787
-0.0020346
-0.0222317
0.0219294
0.00856106
-0.0307025
-2.82554e-05
0.276695
0.119209
0.21493
0.0444249
-0.165071
-0.0836604
0.486572
0.584433
0.612281
0.59235
0.542594
0.547727
0.598894
0.621965
0.409379
0.500357
0.424123
0.602653
0.588965
0.62723
0.507283
0.369068
0.561808
0.670315
0.389604
0.384886
0.464802
0.306161
0.333447
0.391492
0.566912
0.372209
0.363783
0.435929
0.385386
0.412186
0.450316
0.428344
0.50119
0.303862
0.301222
0.211931
0.487484
0.513758
0.540451
0.508217
0.526771
0.494326
0.498297
0.505403
0.531005
0.519186
-0.427719
-0.199482
-1.10741
-1.03046
-0.483421
0.513124
0.630159
0.0252275
0.333321
-0.101271
0.122142
0.323466
0.374618
0.378228
0.292881
0.393868
0.445958
0.448597
0.390804
0.318967
0.267915
0.488061
0.498158
0.469983
0.485829
0.492606
0.492584
0.438634
0.473672
0.449334
0.481009
0.483215
0.486228
0.102708
0.0664766
0.101417
0.0609748
0.00990764
0.0650621
-0.0454709
-0.0757346
-0.000888194
0.0286535
0.00947429
0.0353051
0.30701
0.294307
0.0902266
0.210498
0.0520192
-0.070876
-0.0874877
0.0449915
0.177734
0.175757
0.426122
0.525753
0.4585
0.490716
0.412282
0.460672
0.563218
0.513781
0.568343
0.507725
0.513265
0.194023
-0.106218
-0.156326
-0.615919
-0.0956296
0.260766
0.140289
-0.171878
-0.399356
0.485174
0.474373
0.424474
0.41973
0.398521
0.107828
0.156666
0.460803
0.703012
0.448362
0.358614
0.372708
0.479568
0.437002
)
;

boundaryField
{
    wall-4
    {
        type            zeroGradient;
    }
    velocity-inlet-5
    {
        type            zeroGradient;
    }
    velocity-inlet-6
    {
        type            zeroGradient;
    }
    pressure-outlet-7
    {
        type            fixedValue;
        value           uniform 0;
    }
    wall-8
    {
        type            zeroGradient;
    }
    frontAndBackPlanes
    {
        type            empty;
    }
}

