/*--------------------------------*- C++ -*----------------------------------*\
  =========                 |
  \\      /  F ield         | OpenFOAM: The Open Source CFD Toolbox
   \\    /   O peration     | Website:  https://openfoam.org
    \\  /    A nd           | Version:  6
     \\/     M anipulation  |
\*---------------------------------------------------------------------------*/
FoamFile
{
    version     2.0;
    format      ascii;
    class       volVectorField;
    location    "0";
    object      U;
}
// * * * * * * * * * * * * * * * * * * * * * * * * * * * * * * * * * * * * * //

dimensions      [0 1 -1 0 0 0 0];

internalField   nonuniform List<vector> 
13046
(
(-0.249302 0.141845 0)
(-0.398737 -0.0870389 4.87411e-22)
(-0.121768 0.0358559 7.75116e-22)
(-0.25234 0.0924395 0)
(-0.12423 0.0749437 7.43495e-22)
(-0.328079 -0.0705389 0)
(-0.269489 0.0992753 -1.47237e-22)
(-0.36533 -0.100584 -2.25414e-22)
(-0.110001 0.0854676 7.48402e-22)
(-0.401113 0.190624 -1.19217e-21)
(-0.865953 -0.411559 0)
(0.0112569 0.0932921 -6.78472e-22)
(-0.294835 0.146819 4.55325e-22)
(-0.485881 -0.154 9.6331e-22)
(-0.0796067 0.0632824 -4.02853e-22)
(-0.384592 0.225107 1.31469e-21)
(0.0103059 0.0831771 -1.61556e-21)
(-0.896718 -0.356133 -1.29571e-21)
(-0.166457 0.105127 0)
(-0.234537 -0.0268319 4.04425e-22)
(-0.275113 0.0315982 -1.36664e-21)
(-0.388505 0.218606 6.16399e-22)
(0.0124511 0.0867646 2.17107e-21)
(-0.890302 -0.368238 0)
(-0.229641 0.109379 -5.2367e-22)
(-0.325916 -0.0486123 9.81507e-22)
(-0.140177 0.0428674 0)
(-0.296566 0.161418 9.40466e-22)
(-0.509159 -0.160577 -2.73072e-22)
(-0.0764835 0.0549286 7.60758e-22)
(-0.250629 0.153611 0)
(-0.417958 -0.0866876 0)
(-0.124456 0.023923 -7.89179e-22)
(-0.216251 0.0974157 6.08347e-22)
(-0.156213 0.0379124 -2.70005e-22)
(-0.291897 -0.0232234 -1.74162e-21)
(-0.218168 0.0838438 8.69404e-22)
(-0.161193 0.0486288 -3.92875e-22)
(-0.271851 -0.0140091 8.64681e-22)
(-0.215353 0.173797 -6.907e-22)
(-0.219974 -0.0668068 -1.46747e-22)
(-0.402509 -0.0381494 8.48718e-22)
(-0.220602 0.0480679 -4.03606e-22)
(-0.187486 0.0551646 -6.08507e-22)
(-0.218445 0.0200613 0)
(-0.235073 0.0467612 -2.52101e-22)
(-0.172616 0.0718093 9.43955e-22)
(-0.225209 0.00335575 1.16574e-22)
(-0.258664 0.134826 0)
(-0.405266 -0.102175 3.42943e-23)
(-0.10575 0.0497157 -2.06254e-23)
(-0.354499 -0.180247 -1.11725e-21)
(-0.194261 0.196514 0)
(-0.425133 -0.0065582 1.38186e-21)
(-0.40533 -0.217818 1.59138e-21)
(-0.420102 0.00681686 2.32506e-21)
(-0.179872 0.193178 -1.04494e-21)
(-0.768308 -0.227362 4.08737e-22)
(-0.346009 0.251596 0)
(-0.0778587 0.00921668 -8.08369e-22)
(-0.363099 0.126282 5.36339e-22)
(-0.599896 -0.273659 -5.873e-22)
(-0.0597635 0.121104 2.03702e-21)
(-0.00192813 0.0969004 -1.16052e-21)
(-0.822648 -0.369525 7.10115e-22)
(-0.401118 0.189636 1.39729e-21)
(-0.334631 0.256127 0)
(-0.732146 -0.198262 0)
(-0.10814 -0.0191315 0)
(-0.324615 0.250852 4.01855e-22)
(-0.698028 -0.180863 0)
(-0.120557 -0.027255 -6.59338e-22)
(-0.804988 -0.243839 0)
(-0.354343 0.255954 2.99423e-23)
(-0.066627 0.0135177 -2.28788e-23)
(-0.172985 0.116379 0)
(-0.228461 -0.0339425 -3.92907e-22)
(-0.295045 0.0157281 1.00856e-21)
(-0.0321526 0.0439996 -9.46835e-22)
(-0.366676 0.248098 1.71447e-21)
(-0.84273 -0.282298 0)
(-0.241083 0.109739 -2.95771e-22)
(-0.339891 -0.0642196 0)
(-0.126335 0.0570352 0)
(0.00280455 0.0962339 1.08279e-21)
(-0.844688 -0.381706 6.43628e-22)
(-0.404266 0.193692 -8.53331e-22)
(-0.422263 0.148956 1.60686e-21)
(-0.0242212 0.117649 0)
(-0.783913 -0.408873 4.74249e-22)
(-0.0593412 0.138799 0)
(-0.453185 0.107153 0)
(-0.76143 -0.462322 -7.09675e-23)
(-0.35615 0.181562 0)
(-0.368847 0.179869 -6.18557e-22)
(-0.678765 -0.266076 -1.50207e-21)
(-0.707817 -0.2919 7.05385e-22)
(-0.0331931 0.0800778 4.41007e-22)
(-0.0253398 0.089918 -1.1403e-21)
(-0.0347432 0.123501 5.80354e-23)
(-0.425118 0.13763 -1.57178e-21)
(-0.765896 -0.413136 0)
(-0.241531 0.0571983 -1.07506e-23)
(-0.158532 0.0768161 -5.18834e-22)
(-0.248668 -0.0183576 0)
(-0.146802 0.165382 0)
(-0.368073 0.0398167 6.40986e-22)
(-0.395593 -0.182888 0)
(-0.191167 0.182312 -1.1354e-21)
(-0.308329 -0.135521 0)
(-0.399713 -0.00878806 2.26782e-21)
(-0.36261 0.175876 0)
(0.0120862 0.0792047 0)
(-0.79155 -0.401344 1.84274e-21)
(-0.278622 0.138467 -1.26715e-21)
(-0.449967 -0.129802 -3.20256e-22)
(-0.0893059 0.0632629 -8.59595e-22)
(-0.365613 0.205856 -7.29294e-22)
(-0.35491 0.196453 1.33985e-21)
(-0.745074 -0.282269 1.36242e-21)
(-0.0253584 0.0702772 -5.18296e-22)
(-0.699801 -0.261119 -9.38263e-22)
(-0.0330983 0.0692428 4.84209e-22)
(-0.392865 0.192936 1.15794e-21)
(-0.863851 -0.410057 1.95766e-21)
(0.0136785 0.0907442 3.136e-22)
(-0.329047 0.176073 0)
(-0.599875 -0.217234 9.1936e-22)
(-0.0523433 0.0641658 -9.60593e-22)
(-0.230615 0.176581 0)
(-0.190044 -0.045989 7.40661e-22)
(-0.422206 -0.0586317 -8.75299e-23)
(-0.0670746 0.144556 0)
(-0.447031 0.102372 0)
(-0.743015 -0.444053 0)
(-0.392161 0.171187 0)
(-0.752328 -0.341455 2.20413e-21)
(-0.0190045 0.103755 1.27135e-21)
(-0.266535 0.161682 0)
(-0.453024 -0.111062 0)
(-0.112663 0.0240262 0)
(-0.319256 0.0961455 0)
(-0.446524 -0.176795 0)
(-0.0963406 0.118986 0)
(-0.182921 0.183965 0)
(-0.34379 -0.161073 0)
(-0.399863 0.00238113 -1.20764e-21)
(-0.146381 0.158567 1.15174e-22)
(-0.357728 0.0405222 1.1739e-21)
(-0.38418 -0.167623 -8.26892e-22)
(-0.371317 0.134964 -1.57588e-21)
(-0.632109 -0.293141 0)
(-0.0496911 0.115725 -2.66087e-21)
(-0.131505 0.129319 0)
(-0.313877 0.0579157 -1.13023e-21)
(-0.348683 -0.123418 2.46581e-22)
(-0.497493 -0.272648 0)
(-0.405462 0.0444538 -1.64751e-21)
(-0.544213 -0.299657 0)
(-0.403538 0.0619697 -9.58127e-22)
(-0.14219 0.179028 0)
(-0.123278 0.169973 0)
(-0.339825 0.0718768 -1.49336e-22)
(-0.434127 -0.191755 -5.75345e-22)
(-0.113045 0.13762 4.98032e-22)
(-0.409946 0.182285 1.25198e-21)
(0.00715226 0.0956012 0)
(-0.852649 -0.421926 1.94683e-21)
(-0.37479 0.184579 1.08494e-21)
(0.013808 0.0843884 1.4787e-22)
(-0.827989 -0.405784 0)
(-0.393563 0.179318 1.07708e-21)
(-0.772407 -0.346119 0)
(-0.0128017 0.0997414 -1.44771e-21)
(-0.257634 0.20619 0)
(-0.496299 -0.0871382 -3.7166e-22)
(-0.194864 -0.0653685 -4.43196e-22)
(-0.337619 0.0629356 -1.0772e-21)
(-0.123891 0.143365 -2.4053e-22)
(-0.403158 -0.168156 0)
(-0.00367204 0.103242 0)
(-0.835268 -0.438526 0)
(-0.424773 0.165691 -1.13923e-21)
(-0.242838 0.196909 0)
(-0.464031 -0.0681765 6.84109e-22)
(-0.20613 -0.0644944 -1.18274e-22)
(-0.131751 0.137147 0)
(-0.323559 0.0544018 0)
(-0.354267 -0.13537 0)
(-0.307054 0.0892261 -4.66812e-22)
(-0.414694 -0.156462 0)
(-0.101965 0.114143 0)
(-0.52701 -0.189052 -1.15956e-23)
(-0.0650884 0.0800366 5.45496e-22)
(-0.318917 0.166968 -1.48615e-21)
(-0.568215 -0.198549 0)
(-0.0599121 0.0663101 1.20384e-21)
(-0.418305 0.169912 1.60553e-21)
(-0.00798564 0.106914 -9.89884e-22)
(-0.823339 -0.407472 2.76133e-21)
(-0.0561779 0.137798 -8.83451e-22)
(-0.432716 0.115849 -9.44519e-22)
(-0.739461 -0.420184 -2.10412e-21)
(-0.441686 0.129131 3.04689e-21)
(-0.784533 -0.443798 0)
(-0.037955 0.126385 8.92662e-22)
(-0.374468 -0.20903 5.96201e-23)
(-0.472208 -0.0245503 -6.81293e-22)
(-0.214014 0.22128 0)
(-0.293551 0.116818 2.10806e-21)
(-0.362542 0.255157 -7.99509e-22)
(-0.043247 0.0343916 5.78043e-22)
(-0.844917 -0.273581 0)
(-0.798551 -0.453372 0)
(-0.441378 0.136571 2.97176e-21)
(-0.0291007 0.118925 0)
(-0.234031 0.0755125 1.32762e-21)
(-0.149315 0.0672181 3.85744e-22)
(-0.273616 -0.0285784 -1.29449e-21)
(-0.287606 0.169192 0)
(-0.501056 -0.144352 3.99815e-23)
(-0.09058 0.0416104 4.59452e-22)
(-0.0654508 0.143564 -6.66248e-22)
(-0.438636 0.106817 0)
(-0.732685 -0.428722 2.42382e-21)
(-0.306837 0.124944 -1.72487e-21)
(-0.51185 -0.188119 -1.66057e-21)
(-0.0688821 0.0875852 0)
(0.00739169 0.0894533 0)
(-0.825201 -0.428472 -2.15933e-21)
(-0.400966 0.174317 0)
(-0.198958 0.213569 0)
(-0.455741 -0.0103247 0)
(-0.407744 -0.236293 0)
(-0.434084 0.128083 -2.67512e-21)
(-0.768407 -0.427547 0)
(-0.0407011 0.127724 -2.03789e-23)
(-0.369942 0.0680855 -5.46623e-22)
(-0.487407 -0.244486 4.61371e-22)
(-0.115163 0.153994 0)
(-0.326886 0.186304 0)
(-0.608804 -0.211533 -8.55568e-22)
(-0.0561397 0.0552856 -7.48444e-22)
(-0.665833 -0.408326 2.37693e-21)
(-0.443609 0.0725186 1.72055e-21)
(-0.106043 0.170529 -5.4271e-22)
(-0.417112 0.0621336 0)
(-0.578969 -0.330959 7.94226e-22)
(-0.12207 0.173161 1.92312e-23)
(0.00441795 0.0873487 9.35753e-22)
(-0.805774 -0.433741 0)
(-0.401636 0.165585 1.51268e-21)
(-0.218265 0.196067 -6.41233e-22)
(-0.271378 -0.114069 5.57567e-22)
(-0.437118 -0.0376858 -1.15438e-22)
(-0.329669 0.188588 -1.22968e-21)
(0.0181787 0.0769035 1.4213e-21)
(-0.796065 -0.355158 0)
(-0.152775 0.0971424 2.49355e-22)
(-0.2648 0.0475143 1.05832e-21)
(-0.256943 -0.0389973 -1.18975e-21)
(-0.356539 0.0935893 -6.91034e-22)
(-0.357324 0.0765054 8.38564e-24)
(-0.520527 -0.246922 1.13157e-21)
(-0.480124 -0.229664 0)
(-0.107375 0.145103 -4.52688e-22)
(-0.0885113 0.135314 4.62285e-22)
(-0.0189 0.0551731 1.23922e-21)
(-0.371356 0.245441 -8.77097e-22)
(-0.869001 -0.297018 3.04667e-21)
(-0.314 0.189518 0)
(-0.583271 -0.185502 0)
(-0.0734083 0.0411972 9.90442e-22)
(-0.421826 0.0738136 4.22833e-22)
(-0.617848 -0.360445 0)
(-0.108738 0.167101 0)
(-0.37912 0.190471 7.58373e-22)
(-0.753585 -0.311524 0)
(-0.0163747 0.087788 -5.36513e-22)
(-0.206806 0.0604114 -2.24939e-22)
(-0.229077 0.0243221 -3.96954e-22)
(-0.190854 0.042276 1.12929e-22)
(-0.387784 0.0747554 1.23526e-21)
(-0.543136 -0.286989 0)
(-0.108528 0.158171 8.20633e-22)
(-0.316028 0.198758 0)
(-0.601702 -0.185738 -1.12707e-21)
(-0.0760505 0.0323224 6.84768e-22)
(-0.310254 0.139728 0)
(-0.323641 0.145196 -1.81546e-22)
(-0.222642 0.203232 -2.38285e-22)
(-0.280684 -0.125964 -1.71072e-21)
(-0.450462 -0.0395933 2.80801e-21)
(-0.389813 0.0878118 1.30586e-21)
(-0.578638 -0.308788 -1.13731e-21)
(-0.0925856 0.149949 -7.53321e-22)
(-0.387452 0.189084 0)
(-0.0114336 0.0932639 1.85315e-21)
(-0.776658 -0.331447 1.27258e-21)
(-0.190923 0.173449 1.57444e-21)
(-0.289614 -0.119313 0)
(-0.386975 -0.00725928 -7.72823e-22)
(-0.152633 0.188832 1.00353e-21)
(-0.420361 0.0353207 9.8141e-22)
(-0.499039 -0.285721 0)
(-0.346708 0.217045 6.45489e-22)
(-0.710144 -0.239006 1.15866e-21)
(-0.0488892 0.0445974 -3.3076e-22)
(-0.208991 0.204682 -8.20252e-23)
(-0.332484 -0.165416 0)
(-0.443546 -0.0211996 -1.86894e-21)
(-0.356399 0.22211 0)
(-0.363948 0.217259 0)
(-0.747468 -0.257813 7.99346e-22)
(-0.0394946 0.0505669 8.39403e-22)
(-0.763105 -0.277563 -1.13904e-21)
(-0.028003 0.062794 -9.0483e-22)
(-0.00144502 0.102624 7.76111e-22)
(-0.841412 -0.425791 0)
(-0.420528 0.173397 1.3145e-21)
(-0.343011 0.197128 -7.74181e-22)
(-0.667051 -0.239621 0)
(-0.0441363 0.0591384 -2.62525e-22)
(-0.685752 -0.356927 -6.28142e-21)
(0.0096493 0.0640882 -1.25222e-21)
(-0.308955 0.156949 -3.90672e-21)
(-0.300968 0.0450159 5.05507e-22)
(-0.144238 0.123668 0)
(-0.300566 -0.086419 0)
(-0.346664 0.124064 -1.40257e-21)
(-0.562182 -0.243434 0)
(-0.063517 0.114082 -1.51949e-21)
(-0.00980866 0.105453 5.95985e-22)
(-0.410836 0.171882 -3.20227e-21)
(-0.80568 -0.3872 -1.904e-21)
(-0.423397 -0.235197 0)
(-0.429741 0.00831505 -9.18988e-22)
(-0.179446 0.200082 1.18439e-21)
(-0.690188 -0.418097 3.26724e-21)
(-0.441147 0.0847541 1.10317e-21)
(-0.0904566 0.159577 0)
(-0.457072 -0.154846 1.38164e-21)
(-0.0825727 0.0875916 0)
(-0.349479 0.151184 -1.6293e-21)
(-0.604125 -0.250763 -6.6571e-22)
(-0.0464997 0.0952745 -4.54422e-22)
(-0.447283 -0.161311 -8.65149e-22)
(-0.0853716 0.0965066 1.29531e-23)
(-0.384852 0.225627 7.18579e-23)
(0.00502687 0.079873 -7.28166e-22)
(-0.883757 -0.344952 1.90466e-21)
(-0.36227 -0.213597 0)
(-0.499606 -0.0397686 -2.37103e-22)
(-0.228642 0.231685 0)
(-0.360538 0.156231 1.65827e-21)
(-0.644966 -0.272275 8.1277e-22)
(-0.039278 0.100263 5.69669e-22)
(-0.32947 0.0882127 0)
(-0.449099 -0.190454 8.36007e-22)
(-0.100096 0.127265 0)
(-0.384791 0.02161 0)
(-0.377563 -0.183902 0)
(-0.164907 0.174799 0)
(-0.254186 0.121568 4.0972e-22)
(-0.37679 -0.0895272 7.38626e-22)
(-0.112678 0.0571176 1.85366e-23)
(-0.166989 0.197045 -1.2332e-21)
(-0.429041 0.0218706 -2.48798e-21)
(-0.469911 -0.267726 -9.62127e-22)
(-0.426602 0.156038 1.66208e-21)
(-0.809321 -0.420715 -2.36335e-21)
(-0.016013 0.11233 9.32692e-22)
(-0.69695 -0.408714 -2.16717e-21)
(-0.43376 0.094613 -1.11787e-21)
(-0.0802973 0.152841 -6.60966e-22)
(-0.301989 0.247109 1.18558e-21)
(-0.169697 -0.0619053 -1.04158e-21)
(-0.635454 -0.141693 1.75115e-21)
(-0.364793 0.237456 -4.68343e-22)
(-0.358352 0.23469 3.85464e-22)
(-0.777174 -0.25953 2.62395e-22)
(-0.807967 -0.274112 0)
(-0.0340973 0.0480055 3.32532e-22)
(-0.0435935 0.0410688 2.74265e-22)
(0.0124301 0.068539 1.69998e-21)
(-0.722035 -0.357168 6.91658e-21)
(-0.317617 0.165775 -7.57061e-22)
(-0.33948 0.196155 7.2384e-23)
(0.0196601 0.0803966 -1.95951e-21)
(-0.827098 -0.3593 0)
(-0.368993 0.100727 2.45493e-21)
(-0.562218 -0.271782 2.77201e-22)
(-0.0827111 0.137235 0)
(-0.00284092 0.103465 1.90613e-21)
(-0.417346 0.175192 -1.3061e-21)
(-0.837339 -0.411128 0)
(-0.327793 0.235119 -1.88576e-21)
(-0.337799 0.233808 1.43404e-21)
(-0.682832 -0.196442 -1.27763e-21)
(-0.70987 -0.21493 -4.89162e-22)
(-0.0960877 0.000211231 5.27695e-22)
(-0.0754656 0.0174172 2.64573e-22)
(-0.026034 0.111441 0)
(-0.794162 -0.470673 0)
(-0.446164 0.130169 -5.94076e-22)
(-0.304762 0.182562 1.44459e-21)
(0.0180852 0.0723352 0)
(-0.761053 -0.330707 0)
(-0.267124 0.0173656 -7.44784e-24)
(-0.183624 0.0956005 -5.21624e-22)
(-0.20088 0.00286604 -2.61151e-22)
(-0.339305 0.176748 2.84845e-21)
(-0.776238 -0.378548 -2.69558e-21)
(0.0140678 0.0754362 -9.18076e-23)
(-0.275818 0.206353 0)
(-0.526492 -0.114266 1.70202e-21)
(-0.154621 -0.0340004 -3.01156e-23)
(-0.429781 0.159141 2.12386e-23)
(-0.827461 -0.442605 -3.89783e-21)
(-0.00944069 0.106586 5.86603e-24)
(-0.598767 -0.355613 -1.76908e-22)
(0.00287469 0.0536452 7.11542e-22)
(-0.295336 0.122478 1.74561e-21)
(-0.199008 0.161965 5.81574e-22)
(-0.231145 -0.0644993 -4.7565e-22)
(-0.371952 -0.0188162 -2.02364e-21)
(-0.270516 0.0603953 0)
(-0.292262 -0.0633434 1.32325e-21)
(-0.138827 0.100256 -6.78445e-22)
(-0.385402 0.200879 0)
(0.0161757 0.0895872 -9.41711e-22)
(-0.872397 -0.399446 -5.73455e-23)
(-0.281853 0.061949 0)
(-0.307958 -0.0790446 5.16115e-22)
(-0.132812 0.11043 9.61268e-22)
(-0.251002 0.0252025 -6.08712e-22)
(-0.185115 0.0833491 2.69471e-22)
(-0.202137 0.0124408 -1.35238e-22)
(-0.192969 0.216732 -6.10443e-22)
(-0.46223 -0.00295829 9.50257e-22)
(-0.451031 -0.272952 -1.02075e-21)
(-0.303153 0.0225661 0)
(-0.245936 -0.0485815 0)
(-0.16465 0.12642 -8.39309e-23)
(-0.309024 0.035176 -7.99997e-22)
(-0.280686 -0.0720193 -3.62281e-22)
(-0.155539 0.130706 -1.19648e-23)
(-0.29016 0.244102 -1.76427e-21)
(-0.602331 -0.123143 1.60085e-21)
(-0.197518 -0.0863345 1.00822e-21)
(0.0118975 0.0927383 -1.3658e-21)
(0.0104835 0.0943553 1.38127e-21)
(-0.878617 -0.392276 -1.43033e-21)
(-0.869774 -0.402288 -9.23471e-22)
(-0.398106 0.204708 0)
(-0.402838 0.197478 1.22054e-21)
(-0.431322 0.154385 -2.01092e-21)
(-0.816447 -0.432557 2.30445e-21)
(-0.0154198 0.112538 -1.15167e-21)
(-0.159514 -0.0613162 6.35512e-22)
(-0.312188 0.256101 -3.87413e-22)
(-0.670573 -0.156329 -2.23405e-21)
(-0.226829 0.192122 5.85478e-22)
(-0.237032 -0.0878552 5.21379e-22)
(-0.439694 -0.0493152 -7.3341e-22)
(-0.433602 0.0463966 0)
(-0.57106 -0.341439 -8.21702e-22)
(-0.139233 0.186146 -1.98949e-23)
(-0.681812 -0.415275 -2.20095e-21)
(-0.0013559 0.0681983 6.63215e-22)
(-0.364573 0.128673 1.39774e-21)
(-0.0481342 0.131301 0)
(-0.450585 0.116601 0)
(-0.773071 -0.462612 -1.41831e-21)
(-0.389273 0.182836 -1.20834e-21)
(0.0116593 0.0879002 0)
(-0.838521 -0.417541 2.11934e-21)
(0.00320729 0.0478085 2.65994e-33)
(-0.554203 -0.325835 3.17725e-21)
(-0.265262 0.115235 -1.7629e-21)
(-0.575163 -0.288025 -3.58328e-21)
(0.0077201 0.0501546 -2.6538e-33)
(-0.251446 0.134962 1.55711e-21)
(-0.649295 -0.330524 1.71943e-21)
(-0.393377 0.117373 0)
(-0.0634967 0.133915 1.615e-21)
(-0.771268 -0.463214 1.01322e-21)
(-0.0139623 0.0938461 6.6807e-22)
(-0.430382 0.132497 0)
(-0.400066 0.164255 1.32326e-21)
(-0.756735 -0.358417 -1.38698e-21)
(-0.020732 0.108852 -8.54561e-22)
(-0.36918 0.229319 -2.75629e-21)
(0.0157364 0.0821649 -5.81328e-22)
(-0.914928 -0.348682 0)
(-0.2815 0.123927 -3.44476e-22)
(-0.0898895 0.0782164 2.8004e-22)
(-0.437799 -0.135384 -2.91079e-22)
(-0.791414 -0.470987 -7.71505e-22)
(-0.0326798 0.118123 -6.75173e-22)
(-0.449207 0.12621 -5.66726e-22)
(-0.434884 0.0371752 1.04844e-21)
(-0.150363 0.192672 3.46854e-22)
(-0.541531 -0.320584 0)
(-0.632555 -0.360852 0)
(-0.416057 0.0854167 0)
(-0.0946891 0.15876 0)
(0.0015334 0.0228563 0)
(-0.313625 -0.161107 3.33179e-21)
(-0.141705 0.0651656 -1.55082e-21)
(-0.682056 -0.376181 -2.72469e-21)
(0.00697744 0.0641021 8.61315e-22)
(-0.321509 0.148781 1.50568e-21)
(-0.269317 0.11588 8.68795e-22)
(-0.101787 0.0743101 -6.23895e-22)
(-0.396583 -0.112223 -3.96875e-22)
(-0.810682 -0.457232 -3.83214e-21)
(-0.437375 0.145881 1.36973e-21)
(-0.0148527 0.106241 0)
(-0.0255328 0.107912 7.10543e-22)
(-0.446914 0.126793 0)
(-0.783439 -0.475423 2.77102e-21)
(-0.4098 0.187705 1.15183e-21)
(0.00284204 0.099097 -2.03076e-21)
(-0.848948 -0.397362 0)
(-0.00726311 0.0698424 1.50948e-21)
(-0.861224 -0.318015 -1.67565e-21)
(-0.378707 0.232121 0)
(-0.283441 0.250622 2.10328e-21)
(-0.596739 -0.112368 -2.04121e-21)
(-0.231482 -0.11531 3.19878e-22)
(-0.756216 -0.238419 -4.35354e-22)
(-0.34884 0.241659 -8.70256e-22)
(-0.0645509 0.0223259 8.62697e-22)
(-0.00127655 0.0689104 1.38292e-21)
(-0.375287 0.240258 0)
(-0.900449 -0.324683 0)
(-0.286544 0.194246 3.2199e-22)
(-0.302322 0.201489 0)
(-0.532192 -0.135904 1.65162e-21)
(-0.574822 -0.160316 -1.76491e-21)
(-0.114735 0.00641898 -1.31756e-22)
(-0.0992663 0.0128993 1.40493e-22)
(-0.274321 0.19667 -3.09174e-22)
(-0.512596 -0.115541 0)
(-0.139719 -0.0152345 -2.65211e-22)
(-0.323335 0.242801 0)
(-0.682095 -0.185694 2.09033e-21)
(-0.112622 -0.016071 -1.87248e-22)
(-0.675462 -0.389495 1.04589e-21)
(-0.425227 0.0938961 -1.04765e-21)
(-0.0819592 0.151779 1.36333e-21)
(-0.806299 -0.448315 0)
(-0.435964 0.14521 -3.21498e-21)
(-0.0212145 0.114611 0)
(-0.0599976 0.138215 4.29431e-22)
(-0.422898 0.114258 7.38267e-22)
(-0.714871 -0.397688 7.23878e-22)
(-0.623235 -0.299275 5.22031e-22)
(0.0102607 0.056227 -4.70185e-22)
(-0.267525 0.14849 0)
(-0.224482 0.1599 -5.08379e-22)
(-0.228988 0.152058 0)
(-0.172578 -0.018137 0)
(-0.393255 -0.051288 -2.52847e-21)
(-0.156708 -0.00121824 0)
(-0.387872 -0.059022 1.55533e-21)
(-0.303245 0.232589 0)
(-0.287918 0.225616 0)
(-0.160809 -0.0471588 3.18738e-23)
(-0.61802 -0.151425 -1.13511e-21)
(-0.140618 -0.0310055 -1.38923e-21)
(-0.576062 -0.128728 2.28468e-21)
(-0.59134 -0.370586 0)
(0.000616303 0.0542292 -9.78416e-22)
(-0.310675 0.115847 0)
(-0.815093 -0.451781 2.10404e-21)
(-0.436034 0.148984 -3.83158e-22)
(-0.0142125 0.107317 -4.18931e-22)
(-0.238675 0.21224 1.048e-21)
(-0.266404 -0.122436 6.68423e-22)
(-0.479495 -0.0586386 -2.93272e-21)
(-0.634305 -0.38338 -2.06663e-21)
(-0.436491 0.066465 -2.84199e-21)
(-0.114168 0.174175 0)
(-0.014616 0.0627766 -1.61399e-21)
(-0.849308 -0.305655 1.78279e-21)
(-0.375123 0.23526 -1.14744e-21)
(-0.762135 -0.412997 0)
(-0.369339 0.161457 0)
(0.00716501 0.0768568 0)
(-0.776586 -0.427734 0)
(-0.387022 0.158361 -1.22082e-21)
(0.00425884 0.0811183 -1.59685e-22)
(-0.338234 0.223627 7.8331e-22)
(-0.695331 -0.221229 -6.98375e-22)
(-0.0652461 0.029366 -3.91583e-22)
(-0.178785 0.165386 1.3971e-22)
(-0.298102 -0.11428 0)
(-0.368344 0.00701249 -3.24255e-23)
(-0.408817 0.189966 -1.34213e-21)
(0.00614177 0.0975584 -1.20655e-21)
(-0.861369 -0.403861 1.07531e-21)
(-0.665604 -0.352064 0)
(-0.403495 0.114577 0)
(-0.0646437 0.139008 -1.39557e-21)
(-0.00471098 0.0915593 -3.53509e-22)
(-0.809419 -0.346631 -2.25937e-21)
(-0.392252 0.19726 -2.81165e-21)
(-0.278391 0.225912 0)
(-0.185812 -0.0669482 8.95451e-22)
(-0.556625 -0.114144 -1.10874e-21)
(-0.373499 0.0534093 1.68652e-24)
(-0.452259 -0.22266 -6.7706e-22)
(-0.132835 0.162297 0)
(-0.212444 0.179291 3.10006e-23)
(-0.243136 -0.0875182 1.63048e-22)
(-0.408628 -0.0335235 9.60842e-22)
(0.00391721 0.0991086 3.85235e-24)
(-0.853768 -0.419672 -2.61963e-21)
(-0.41409 0.181295 -1.68407e-21)
(-0.375847 0.203037 4.68543e-22)
(-0.770585 -0.305475 5.95949e-22)
(-0.0164176 0.0796758 0)
(-0.202621 0.154889 5.51396e-22)
(-0.20902 -0.0423383 -1.07621e-21)
(-0.365685 -0.0235968 1.31864e-21)
(-0.372776 0.239264 -9.87459e-22)
(0.0054325 0.0732587 -6.39339e-22)
(-0.914774 -0.333059 1.75574e-21)
(-0.264271 0.173169 3.90281e-22)
(-0.46504 -0.107985 0)
(-0.123064 0.00865925 0)
(-0.304633 0.0760819 1.75037e-21)
(-0.374169 -0.131068 -3.40067e-22)
(-0.115229 0.119496 0)
(-0.62061 -0.338891 0)
(-0.403969 0.0917728 -1.86494e-21)
(-0.0877479 0.152532 0)
(-0.354977 0.209826 7.08261e-22)
(0.0206997 0.0845245 2.07005e-22)
(-0.877243 -0.363009 -2.86649e-21)
(-0.355733 0.21754 -1.92424e-21)
(0.0206606 0.0844325 0)
(-0.892767 -0.35451 2.38606e-21)
(-0.00327479 0.086507 -3.38447e-22)
(-0.822638 -0.340773 1.54412e-21)
(-0.389251 0.205894 2.54426e-21)
(-0.39257 0.0395688 8.91063e-22)
(-0.462443 -0.243203 6.13814e-22)
(-0.14627 0.173716 0)
(0.0211844 0.0813677 -1.89854e-22)
(-0.846056 -0.351313 2.67657e-21)
(-0.335218 0.202472 0)
(-0.0173169 0.109779 0)
(-0.780811 -0.379567 1.38952e-21)
(-0.408885 0.163559 3.51319e-22)
(0.00088792 0.0382964 -7.84412e-22)
(-0.463776 -0.292706 -3.22347e-21)
(-0.231013 0.090975 0)
(-0.20851 0.120419 1.59437e-21)
(-0.501038 -0.232363 0)
(0.00714986 0.0420984 -7.86079e-22)
(-0.000717959 0.0727456 -9.65844e-25)
(-0.886178 -0.330386 0)
(-0.379166 0.234311 0)
(0.00514532 0.0948187 0)
(-0.840118 -0.432583 0)
(-0.411817 0.174633 -2.49957e-21)
(-0.396559 0.208785 1.08639e-21)
(-0.39721 0.20616 -8.7945e-22)
(0.00983363 0.0903805 6.80611e-22)
(-0.877604 -0.376231 4.41164e-22)
(0.00638761 0.0907708 1.06448e-21)
(-0.861349 -0.370153 -6.69482e-22)
(-0.413087 0.153732 -6.62374e-22)
(-0.771047 -0.387101 -8.38643e-22)
(-0.0238212 0.114951 0)
(-0.133923 0.187177 0)
(-0.601736 -0.370534 0)
(-0.443491 0.0506083 0)
(-0.226836 0.131941 0)
(-0.145786 0.0213582 1.38726e-21)
(-0.356862 -0.0535689 -7.6742e-22)
(-0.414236 0.131375 -1.87115e-21)
(-0.72747 -0.384469 -2.6524e-22)
(-0.0438572 0.127674 -1.25732e-21)
(-0.0547171 0.134104 -8.38747e-22)
(-0.414065 0.121747 2.60006e-21)
(-0.706574 -0.380399 3.67892e-22)
(-0.370924 0.248439 -9.66617e-22)
(-0.0120272 0.058277 -6.65056e-22)
(-0.894321 -0.306467 -3.18306e-21)
(-0.308257 0.239586 0)
(-0.63975 -0.157567 -6.3744e-22)
(-0.140684 -0.0357024 1.3617e-21)
(-0.288095 0.214256 0)
(-0.558928 -0.131502 -2.2347e-21)
(-0.144497 -0.0306313 3.36005e-24)
(-0.385362 0.137046 2.0011e-21)
(-0.669694 -0.323189 -2.75543e-22)
(-0.0454932 0.119664 6.7385e-22)
(-0.393447 0.131044 0)
(-0.676803 -0.337455 -2.44543e-22)
(-0.0494453 0.125019 -6.42171e-22)
(-0.192129 0.143297 0)
(-0.213392 -0.0370549 1.73951e-21)
(-0.340133 -0.0103567 -6.51277e-22)
(-0.306413 0.208978 0)
(-0.592041 -0.16472 0)
(-0.10025 0.00519954 -1.89475e-22)
(-0.041641 0.12424 1.46267e-21)
(-0.779221 -0.475025 4.08751e-21)
(-0.45484 0.117226 0)
(-0.393855 0.147115 -1.88666e-21)
(-0.000273915 0.0801773 0)
(-0.751769 -0.435032 -1.53331e-21)
(-0.386659 0.13521 -4.37972e-23)
(-0.00256888 0.0755631 0)
(-0.72128 -0.432182 4.49388e-21)
(-0.244847 0.187745 -4.32672e-22)
(-0.182235 -0.0421599 1.85189e-22)
(-0.454891 -0.0758473 -6.42005e-23)
(-0.712444 -0.397507 1.1505e-22)
(0.00555825 0.0694304 -1.31521e-21)
(-0.350736 0.149511 0)
(-0.381687 0.210156 -2.06365e-21)
(-0.00954352 0.080224 -6.91237e-22)
(-0.805429 -0.320584 0)
(0.00136656 0.0650002 1.96107e-22)
(-0.671801 -0.402248 2.84622e-21)
(-0.346961 0.132337 0)
(-0.252124 0.0799929 -9.28298e-22)
(-0.134124 0.0819285 -8.70713e-22)
(-0.303318 -0.055924 3.30451e-23)
(-0.329576 0.157545 2.26519e-22)
(-0.574998 -0.214764 2.29945e-22)
(-0.0552814 0.0808298 6.47801e-22)
(-0.421938 -0.220458 -1.35956e-21)
(-0.39872 0.024759 -1.90197e-21)
(-0.162218 0.180586 0)
(-0.0156339 0.0994588 0)
(-0.786812 -0.465314 1.18242e-21)
(-0.43608 0.136171 0)
(-0.652027 -0.356892 0)
(-0.40765 0.104282 0)
(-0.0744957 0.1452 0)
(0.0115584 0.0801225 0)
(-0.375946 0.231514 1.03168e-21)
(-0.913286 -0.346453 -1.72143e-21)
(-0.343903 0.161206 0)
(-0.610392 -0.239295 -9.67858e-23)
(-0.0460157 0.0871395 -6.33431e-22)
(-0.221378 0.122281 0)
(-0.150116 0.0254529 -1.18492e-21)
(-0.335765 -0.0424702 0)
(-0.807585 -0.457898 3.62382e-21)
(-0.430851 0.148569 -1.29957e-21)
(-0.0100982 0.099836 0)
(-0.00703883 0.101077 7.71082e-22)
(-0.804961 -0.373511 -9.36234e-23)
(-0.403535 0.180765 5.47163e-23)
(-0.370366 0.200905 0)
(-0.362932 0.196324 -1.51552e-21)
(0.0183077 0.086452 4.66576e-22)
(0.0178562 0.0843179 5.92691e-22)
(-0.864385 -0.38482 1.6012e-21)
(-0.846431 -0.385783 -1.3168e-21)
(-0.343212 0.100596 0)
(-0.505076 -0.226755 -2.7009e-21)
(-0.0856997 0.126361 -7.22814e-22)
(-0.612164 -0.30554 -2.38302e-21)
(-0.382685 0.109952 0)
(-0.0699757 0.135042 8.29472e-22)
(-0.281228 0.092949 9.14793e-22)
(-0.371851 -0.113973 -6.33037e-22)
(-0.106417 0.0974869 -9.7545e-22)
(-0.77592 -0.449507 -2.99023e-21)
(-0.412331 0.146623 -1.94938e-21)
(-0.762896 -0.455336 1.50649e-21)
(-0.00402823 0.0872887 0)
(-0.417464 0.136904 1.88493e-21)
(-0.00866049 0.0876464 0)
(-0.370964 0.169662 0)
(-0.691705 -0.296882 0)
(-0.0290024 0.0966248 -7.45433e-22)
(-0.423096 0.156218 -2.44065e-21)
(-0.415229 0.154864 4.59999e-21)
(-0.814918 -0.451064 -1.95449e-21)
(-0.801344 -0.447255 4.66358e-21)
(-0.00386818 0.0960044 -1.26656e-21)
(-0.00172588 0.0907651 -5.45362e-24)
(-0.379878 0.100248 0)
(-0.583776 -0.29343 2.03568e-21)
(-0.0836842 0.143246 -1.07097e-21)
(-0.318713 0.123216 -9.94486e-22)
(-0.528114 -0.20841 1.30149e-21)
(-0.0649744 0.0978311 0)
(-0.369606 0.222114 0)
(0.0182973 0.0849573 0)
(-0.904777 -0.360839 -2.29173e-21)
(-0.339682 0.112951 -7.3664e-22)
(-0.523461 -0.224395 7.82356e-22)
(-0.0750343 0.11823 1.19512e-21)
(-0.2936 0.102547 -3.74207e-22)
(-0.415849 -0.145527 7.42245e-22)
(-0.0949856 0.10038 -6.20419e-22)
(-0.366263 0.207012 0)
(0.0194037 0.0862945 0)
(-0.880269 -0.377154 3.03471e-21)
(-0.345127 0.172996 0)
(-0.638503 -0.243731 -2.97972e-22)
(-0.0404399 0.0790454 7.59354e-22)
(-0.526938 -0.319742 0)
(-0.449258 0.0240665 0)
(-0.164845 0.203427 4.62296e-23)
(-0.278415 0.233216 5.41222e-23)
(-0.565471 -0.109841 0)
(-0.20201 -0.0838198 -1.45269e-21)
(-0.719477 -0.442552 -1.32653e-21)
(-0.0822438 0.15511 0)
(-0.449779 0.0895466 0)
(0.00298616 0.0336024 1.88776e-21)
(-0.426079 -0.224924 -4.6608e-21)
(-0.192409 0.0902461 2.17028e-21)
(-0.340475 0.137196 0)
(-0.561928 -0.231854 -7.84423e-22)
(-0.0579011 0.102142 5.99732e-22)
(-0.385312 0.216098 -1.93672e-21)
(0.0155024 0.0879913 -2.36201e-21)
(-0.896681 -0.372515 0)
(-0.296279 -0.163218 4.34288e-22)
(-0.545237 -0.0767933 1.32421e-21)
(-0.25643 0.24199 4.45933e-22)
(-0.262671 0.158248 0)
(0.0135331 0.0595899 7.11443e-22)
(-0.655691 -0.2919 0)
(-0.151416 0.14556 -7.02961e-22)
(-0.15909 0.157079 7.21382e-22)
(-0.320325 -0.119156 0)
(-0.334503 0.033791 -9.07449e-22)
(-0.335076 -0.137868 1.0655e-21)
(-0.353985 0.0253185 7.62835e-22)
(-0.286661 0.0780533 -8.61012e-22)
(-0.347308 -0.103605 -7.24513e-22)
(-0.117951 0.107693 0)
(-0.18353 0.157929 -6.70136e-22)
(-0.166537 0.14786 0)
(-0.261792 -0.083851 5.71217e-22)
(-0.358134 -0.00114743 -8.03968e-22)
(-0.277663 -0.0886611 -5.75523e-22)
(-0.337176 0.0178753 7.96321e-24)
(-0.329068 0.134797 -6.5194e-23)
(-0.490606 -0.19061 5.18923e-22)
(-0.0760954 0.103357 7.46029e-22)
(-0.323607 0.11396 1.71953e-21)
(-0.490348 -0.195703 -1.4345e-23)
(-0.0803359 0.111444 0)
(-0.00757919 0.0801033 0)
(-0.725616 -0.445808 0)
(-0.403492 0.129564 -2.26912e-21)
(-0.259088 0.187787 3.9948e-22)
(-0.475854 -0.0945528 0)
(-0.153392 -0.0205644 -3.50359e-22)
(-0.420754 0.165663 3.92724e-21)
(-0.831934 -0.443441 -2.03641e-21)
(-0.000282298 0.0982379 7.16324e-22)
(-0.387579 0.149875 0)
(-0.396806 0.153817 -1.27551e-21)
(-0.700333 -0.32923 3.4347e-22)
(-0.72976 -0.348794 -1.31352e-21)
(-0.0338582 0.113248 8.50451e-22)
(-0.0286079 0.113419 8.25079e-22)
(-0.254294 0.176147 0)
(-0.45386 -0.0915497 0)
(-0.143567 -0.00805194 -1.56507e-22)
(-0.319699 0.225989 -5.71226e-22)
(-0.646899 -0.183324 0)
(-0.100198 0.00133489 -4.57909e-22)
(-0.366872 0.148459 5.68868e-22)
(-0.646357 -0.287704 0)
(-0.0407886 0.107795 0)
(-0.199001 0.102118 -6.88369e-22)
(-0.285814 -0.00570842 3.56379e-22)
(-0.177221 0.0160478 -3.08418e-22)
(-0.404602 0.137837 0)
(-0.717724 -0.36444 0)
(-0.0403893 0.12335 1.33605e-21)
(-0.216 0.139095 0)
(-0.16568 0.000792459 -1.8312e-22)
(-0.35505 -0.0410696 0)
(-0.371961 0.114007 1.20826e-21)
(-0.591721 -0.289246 1.18506e-21)
(-0.0696186 0.129833 1.03574e-22)
(-0.319596 0.215596 -6.03797e-22)
(-0.632869 -0.18667 0)
(-0.0871664 0.0136287 -9.40517e-22)
(-0.201883 0.115391 6.82182e-22)
(-0.192882 0.121138 3.11335e-22)
(-0.307437 -0.0168251 -3.67407e-22)
(-0.174005 0.0085892 6.24714e-22)
(-0.309759 -0.00913638 0)
(-0.190795 -0.00938493 1.09768e-21)
(-0.177216 0.137023 3.04498e-22)
(-0.234919 -0.0519447 -8.48739e-22)
(-0.167165 0.141062 -1.95654e-22)
(-0.324582 0.00641086 9.78524e-22)
(-0.270789 -0.0780429 3.73941e-22)
(-0.32776 0.0187073 7.88604e-23)
(-0.282409 0.183238 -4.62006e-22)
(-0.296432 0.181615 0)
(-0.510918 -0.133595 -1.10584e-21)
(-0.535574 -0.155519 8.66782e-22)
(-0.106668 0.0176971 7.54432e-22)
(-0.087862 0.0352796 -1.25537e-21)
(-0.00490173 0.0757353 0)
(-0.84497 -0.325124 1.01111e-21)
(-0.381981 0.222865 1.34686e-21)
(-0.175097 0.205997 -5.5908e-22)
(-0.446954 0.0141668 -1.49824e-21)
(-0.485191 -0.288406 1.65684e-21)
(0.0020089 0.0814851 7.56283e-22)
(0.00266888 0.086218 -6.14829e-22)
(-0.861325 -0.3439 -8.74415e-22)
(-0.850312 -0.352654 -1.41137e-21)
(-0.386859 0.220279 -3.55158e-21)
(-0.391751 0.211565 1.87406e-21)
(-0.217419 0.214605 -7.64911e-22)
(-0.339521 -0.17749 6.53085e-22)
(-0.46408 -0.0303901 -2.49072e-22)
(-0.204461 0.0753337 -1.16145e-21)
(-0.181208 0.0374208 0)
(-0.249077 0.010547 1.18898e-21)
(-0.405292 0.148008 6.56133e-22)
(-0.73949 -0.367785 1.4861e-21)
(-0.031189 0.117918 0)
(-0.236572 0.168876 0)
(-0.165373 -0.0230891 1.49209e-22)
(-0.419272 -0.0667099 8.41196e-22)