/*--------------------------------*- C++ -*----------------------------------*\
  =========                 |
  \\      /  F ield         | OpenFOAM: The Open Source CFD Toolbox
   \\    /   O peration     | Website:  https://openfoam.org
    \\  /    A nd           | Version:  6
     \\/     M anipulation  |
\*---------------------------------------------------------------------------*/
FoamFile
{
    version     2.0;
    format      ascii;
    class       volScalarField;
    location    "20619";
    object      k;
}
// * * * * * * * * * * * * * * * * * * * * * * * * * * * * * * * * * * * * * //

dimensions      [0 2 -2 0 0 0 0];

internalField   nonuniform List<scalar> 
115600
(
2.80235e-06
1.70354e-06
1.72573e-06
1.74824e-06
1.7135e-06
1.62803e-06
1.52045e-06
1.41086e-06
1.31289e-06
1.2243e-06
1.14358e-06
1.06967e-06
1.00203e-06
9.40569e-07
8.85453e-07
8.36848e-07
7.9475e-07
7.58891e-07
7.28749e-07
7.03601e-07
6.8263e-07
6.6502e-07
6.50053e-07
6.37168e-07
6.25991e-07
6.16324e-07
6.08107e-07
6.01364e-07
5.96148e-07
5.92494e-07
5.90387e-07
5.89753e-07
5.90481e-07
5.92885e-07
5.96488e-07
6.01007e-07
6.06245e-07
6.12058e-07
6.18343e-07
6.25034e-07
6.32083e-07
6.39454e-07
6.47115e-07
6.55031e-07
6.63167e-07
6.71491e-07
6.7999e-07
6.88679e-07
6.97625e-07
7.0701e-07
7.17209e-07
7.29227e-07
7.45368e-07
7.74506e-07
8.57369e-07
1.28838e-06
2.70646e-05
2.81668e-05
3.04789e-05
3.1679e-05
3.15231e-05
3.03294e-05
2.8616e-05
2.67697e-05
2.50406e-05
2.34646e-05
2.20183e-05
2.06775e-05
1.94294e-05
1.82734e-05
1.72174e-05
1.62719e-05
1.54444e-05
1.47362e-05
1.41416e-05
1.3649e-05
1.32429e-05
1.29063e-05
1.26233e-05
1.2381e-05
1.21702e-05
1.1986e-05
1.18268e-05
1.16935e-05
1.15881e-05
1.15122e-05
1.14667e-05
1.14508e-05
1.1463e-05
1.15071e-05
1.15753e-05
1.16621e-05
1.17632e-05
1.18755e-05
1.19968e-05
1.21256e-05
1.22611e-05
1.24027e-05
1.25498e-05
1.2702e-05
1.28585e-05
1.30188e-05
1.31823e-05
1.33492e-05
1.35201e-05
1.36977e-05
1.3888e-05
1.4106e-05
1.43893e-05
1.48647e-05
1.60737e-05
2.00097e-05
5.55701e-05
7.39659e-05
8.56214e-05
9.17122e-05
9.34214e-05
9.21264e-05
8.91541e-05
8.54672e-05
8.16439e-05
7.79807e-05
7.44978e-05
7.11545e-05
6.79177e-05
6.4789e-05
6.18063e-05
5.90289e-05
5.65164e-05
5.43116e-05
5.24311e-05
5.08636e-05
4.95753e-05
4.85181e-05
4.76403e-05
4.6895e-05
4.6247e-05
4.56752e-05
4.51728e-05
4.4743e-05
4.43952e-05
4.41396e-05
4.39832e-05
4.39279e-05
4.39704e-05
4.41141e-05
4.43398e-05
4.46299e-05
4.49689e-05
4.53443e-05
4.57473e-05
4.61725e-05
4.66166e-05
4.70778e-05
4.75547e-05
4.80455e-05
4.8548e-05
4.90599e-05
4.95787e-05
5.01029e-05
5.06327e-05
5.11719e-05
5.17326e-05
5.23443e-05
5.30899e-05
5.42023e-05
5.66745e-05
6.23795e-05
7.10679e-05
0.000103391
0.00012258
0.000132786
0.000136843
0.000136988
0.00013494
0.000131857
0.000128431
0.000124967
0.000121584
0.000118262
0.00011496
0.000111668
0.000108421
0.000105292
0.000102372
9.97409e-05
9.74554e-05
9.55336e-05
9.39572e-05
9.26791e-05
9.16368e-05
9.07664e-05
9.00152e-05
8.9349e-05
8.87542e-05
8.82345e-05
8.78055e-05
8.74862e-05
8.7293e-05
8.72341e-05
8.7309e-05
8.75101e-05
8.78204e-05
8.82171e-05
8.86779e-05
8.91842e-05
8.97224e-05
9.02838e-05
9.0864e-05
9.14605e-05
9.20718e-05
9.26961e-05
9.33304e-05
9.39712e-05
9.46143e-05
9.52554e-05
9.58918e-05
9.65223e-05
9.71522e-05
9.77954e-05
9.85066e-05
9.93968e-05
0.000101104
0.000104077
7.55381e-05
0.00011523
0.000138806
0.000151522
0.000157124
0.000158349
0.000157133
0.000154735
0.000151899
0.000148968
0.000146037
0.000143119
0.000140187
0.000137233
0.00013429
0.000131429
0.00012874
0.000126307
0.000124191
0.000122418
0.000120979
0.00011983
0.000118912
0.000118161
0.000117522
0.000116959
0.000116454
0.000116011
0.000115643
0.000115371
0.000115213
0.000115179
0.000115272
0.000115478
0.000115784
0.00011617
0.000116614
0.000117099
0.000117611
0.000118141
0.000118686
0.000119244
0.000119812
0.00012039
0.000120975
0.000121563
0.000122149
0.000122727
0.000123292
0.000123839
0.000124366
0.000124869
0.000125364
0.000125852
0.000126621
0.000127566
7.36382e-05
0.000116325
0.000142805
0.000157579
0.000164603
0.000166864
0.000166439
0.000164661
0.000162318
0.000159804
0.000157233
0.000154615
0.000151946
0.000149229
0.000146505
0.000143847
0.000141344
0.000139079
0.000137113
0.00013547
0.000134143
0.000133092
0.000132261
0.000131589
0.000131024
0.000130529
0.000130088
0.000129703
0.000129386
0.000129156
0.000129031
0.000129021
0.000129126
0.000129336
0.000129636
0.000130008
0.000130433
0.000130893
0.000131378
0.000131878
0.000132391
0.000132914
0.000133446
0.000133985
0.000134528
0.000135071
0.000135609
0.000136135
0.000136643
0.000137124
0.000137572
0.000137975
0.000138324
0.000138568
0.000138821
0.000138872
6.82979e-05
0.000110317
0.000138573
0.000155375
0.0001641
0.000167699
0.000168305
0.000167316
0.000165573
0.000163515
0.000161316
0.000158999
0.000156575
0.000154065
0.000151522
0.000149027
0.000146668
0.000144529
0.000142669
0.000141114
0.000139856
0.00013886
0.000138073
0.000137438
0.000136907
0.000136446
0.000136039
0.000135688
0.000135405
0.000135206
0.000135107
0.000135117
0.000135236
0.000135453
0.000135754
0.000136122
0.000136539
0.00013699
0.000137463
0.000137952
0.000138453
0.000138964
0.000139482
0.000140007
0.000140534
0.000141059
0.000141576
0.000142078
0.000142558
0.000143007
0.000143415
0.000143764
0.000144035
0.000144155
0.000144158
0.000143859
6.15214e-05
9.96274e-05
0.000128119
0.000146718
0.000157445
0.000162805
0.000164838
0.000164966
0.000164079
0.000162675
0.000160985
0.000159086
0.000156998
0.000154767
0.000152459
0.000150164
0.000147974
0.000145976
0.000144228
0.000142759
0.000141565
0.000140614
0.000139861
0.000139254
0.000138747
0.000138312
0.000137933
0.000137612
0.000137359
0.00013719
0.000137117
0.000137149
0.000137283
0.000137512
0.00013782
0.000138192
0.000138611
0.000139064
0.00013954
0.000140032
0.000140537
0.000141051
0.000141574
0.000142102
0.000142631
0.000143158
0.000143674
0.000144174
0.00014465
0.000145091
0.000145485
0.000145815
0.000146053
0.00014612
0.000146016
0.000145604
5.46341e-05
8.65275e-05
0.000113215
0.000132781
0.00014548
0.000152908
0.000156764
0.000158389
0.000158693
0.000158226
0.000157279
0.000155985
0.000154398
0.000152586
0.000150632
0.000148635
0.000146693
0.000144896
0.000143309
0.000141963
0.000140863
0.000139984
0.000139286
0.000138725
0.00013826
0.000137866
0.000137529
0.000137249
0.000137037
0.000136906
0.000136867
0.000136927
0.000137085
0.000137332
0.000137655
0.00013804
0.000138471
0.000138935
0.000139423
0.000139929
0.000140449
0.000140979
0.000141517
0.000142061
0.000142606
0.000143146
0.000143676
0.000144188
0.000144674
0.000145123
0.000145524
0.000145856
0.00014609
0.000146146
0.000146009
0.000145587
4.83047e-05
7.31215e-05
9.59839e-05
0.000115019
0.000129064
0.000138503
0.000144401
0.00014784
0.000149665
0.000150442
0.000150511
0.000150055
0.000149176
0.000147967
0.000146528
0.000144967
0.00014339
0.000141892
0.000140546
0.000139393
0.000138445
0.000137687
0.000137089
0.000136614
0.000136229
0.000135908
0.000135642
0.00013543
0.00013528
0.000135206
0.000135217
0.000135319
0.000135513
0.00013579
0.000136139
0.000136547
0.000137
0.000137486
0.000137997
0.000138527
0.00013907
0.000139625
0.000140189
0.000140757
0.000141325
0.000141889
0.000142442
0.000142976
0.000143483
0.000143953
0.000144372
0.000144721
0.000144968
0.000145037
0.000144907
0.00014452
4.27454e-05
6.0957e-05
7.87483e-05
9.54639e-05
0.000109566
0.000120394
0.000128178
0.000133533
0.000137097
0.000139376
0.000140719
0.000141339
0.000141393
0.000140995
0.000140257
0.000139296
0.000138227
0.000137154
0.000136156
0.000135287
0.000134571
0.000134006
0.000133572
0.000133241
0.000132985
0.000132784
0.00013263
0.000132521
0.000132466
0.000132476
0.000132561
0.000132727
0.000132974
0.000133299
0.00013369
0.000134135
0.000134623
0.000135144
0.00013569
0.000136253
0.000136831
0.00013742
0.000138017
0.000138618
0.000139218
0.000139813
0.000140396
0.00014096
0.000141497
0.000141995
0.000142442
0.000142818
0.00014309
0.000143187
0.000143086
0.000142754
3.79937e-05
5.08195e-05
6.3481e-05
7.65212e-05
8.90354e-05
0.000100015
0.000108986
0.000115964
0.00012123
0.000125109
0.00012789
0.0001298
0.000130999
0.000131614
0.000131768
0.000131584
0.000131183
0.000130676
0.000130153
0.000129681
0.000129296
0.00012901
0.000128818
0.0001287
0.000128636
0.000128613
0.00012862
0.000128661
0.00012874
0.000128871
0.000129061
0.000129319
0.000129647
0.000130041
0.000130495
0.000130997
0.000131538
0.000132109
0.000132702
0.000133313
0.000133937
0.00013457
0.000135209
0.000135852
0.000136493
0.000137127
0.000137748
0.000138349
0.000138922
0.000139456
0.000139938
0.000140348
0.000140654
0.000140788
0.000140728
0.000140461
3.40573e-05
4.28582e-05
5.12766e-05
6.03256e-05
6.99486e-05
7.95378e-05
8.84313e-05
9.61902e-05
0.000102689
0.00010799
0.000112218
0.000115508
0.000117988
0.000119775
0.000120987
0.000121744
0.000122169
0.000122376
0.000122464
0.000122511
0.000122568
0.000122662
0.0001228
0.000122975
0.000123177
0.000123395
0.000123624
0.000123867
0.00012413
0.000124424
0.00012476
0.000125145
0.000125584
0.000126077
0.000126619
0.000127201
0.000127816
0.000128457
0.000129116
0.000129789
0.000130473
0.000131163
0.000131857
0.000132551
0.000133242
0.000133924
0.000134592
0.000135238
0.000135854
0.000136431
0.000136955
0.000137405
0.000137753
0.000137931
0.000137921
0.000137722
3.09184e-05
3.68618e-05
4.22544e-05
4.79919e-05
5.44234e-05
6.14973e-05
6.88517e-05
7.61041e-05
8.29016e-05
8.90165e-05
9.4342e-05
9.88545e-05
0.000102581
0.000105581
0.000107936
0.000109747
0.000111122
0.000112174
0.000113001
0.00011369
0.000114303
0.000114881
0.000115444
0.000115999
0.000116543
0.000117074
0.000117591
0.000118095
0.000118596
0.000119104
0.000119631
0.000120186
0.000120774
0.000121399
0.00012206
0.000122752
0.000123466
0.000124199
0.000124945
0.0001257
0.00012646
0.000127222
0.000127985
0.000128744
0.000129497
0.000130237
0.000130961
0.00013166
0.000132329
0.000132956
0.000133529
0.000134028
0.000134422
0.000134651
0.000134697
0.000134569
2.85191e-05
3.24994e-05
3.5937e-05
3.94298e-05
4.33228e-05
4.77814e-05
5.28514e-05
5.84132e-05
6.42441e-05
7.00811e-05
7.568e-05
8.08516e-05
8.54746e-05
8.94935e-05
9.29084e-05
9.57627e-05
9.81287e-05
0.000100094
0.000101749
0.000103176
0.000104443
0.000105599
0.000106678
0.000107696
0.000108661
0.000109577
0.000110447
0.000111276
0.000112072
0.000112849
0.000113617
0.000114387
0.000115168
0.000115965
0.00011678
0.000117612
0.000118456
0.000119309
0.000120166
0.000121024
0.000121881
0.000122734
0.000123582
0.000124421
0.000125249
0.000126061
0.000126852
0.000127616
0.000128347
0.000129033
0.000129664
0.000130218
0.000130667
0.000130953
0.000131061
0.000131006
2.6786e-05
2.94635e-05
3.1713e-05
3.38776e-05
3.61762e-05
3.87685e-05
4.17968e-05
4.5331e-05
4.93719e-05
5.38424e-05
5.85949e-05
6.34383e-05
6.81764e-05
7.26444e-05
7.67308e-05
8.03833e-05
8.36002e-05
8.64165e-05
8.88877e-05
9.10768e-05
9.30434e-05
9.48371e-05
9.64949e-05
9.80413e-05
9.94915e-05
0.000100854
0.000102137
0.000103348
0.000104496
0.000105594
0.000106654
0.000107688
0.000108706
0.000109717
0.000110724
0.000111731
0.000112737
0.000113739
0.000114734
0.000115721
0.000116698
0.000117663
0.000118616
0.000119553
0.000120472
0.00012137
0.000122243
0.000123084
0.000123888
0.000124644
0.000125342
0.00012596
0.000126472
0.000126823
0.000126999
0.000127021
2.56346e-05
2.7485e-05
2.90398e-05
3.04767e-05
3.19136e-05
3.34496e-05
3.51839e-05
3.72047e-05
3.95884e-05
4.23863e-05
4.56073e-05
4.92046e-05
5.30764e-05
5.70828e-05
6.10763e-05
6.49306e-05
6.85593e-05
7.19188e-05
7.50022e-05
7.78271e-05
8.04233e-05
8.28233e-05
8.50563e-05
8.71446e-05
8.91041e-05
9.09458e-05
9.26784e-05
9.43102e-05
9.58512e-05
9.73126e-05
9.8707e-05
0.000100047
0.000101344
0.000102608
0.000103846
0.000105063
0.000106261
0.000107443
0.000108606
0.000109748
0.000110869
0.000111969
0.000113047
0.000114101
0.00011513
0.000116131
0.0001171
0.000118033
0.000118923
0.000119762
0.000120537
0.00012123
0.000121814
0.00012224
0.000122491
0.000122595
2.4937e-05
2.62816e-05
2.74384e-05
2.84894e-05
2.94951e-05
3.05082e-05
3.15805e-05
3.2766e-05
3.41231e-05
3.57123e-05
3.75886e-05
3.97909e-05
4.23297e-05
4.51778e-05
4.82719e-05
5.15238e-05
5.48386e-05
5.81324e-05
6.13428e-05
6.44319e-05
6.7382e-05
7.01895e-05
7.28578e-05
7.53926e-05
7.77992e-05
8.0082e-05
8.22449e-05
8.42927e-05
8.62316e-05
8.80704e-05
8.98194e-05
9.14898e-05
9.30928e-05
9.46387e-05
9.6136e-05
9.75915e-05
9.90103e-05
0.000100396
0.00010175
0.000103072
0.000104362
0.000105618
0.000106843
0.000108034
0.000109191
0.000110312
0.000111395
0.000112434
0.000113425
0.000114358
0.000115224
0.000116003
0.00011667
0.000117178
0.000117515
0.000117707
2.45397e-05
2.55804e-05
2.65096e-05
2.73566e-05
2.81517e-05
2.89215e-05
2.96911e-05
3.04888e-05
3.13464e-05
3.23006e-05
3.33917e-05
3.46605e-05
3.61438e-05
3.78681e-05
3.9843e-05
4.2058e-05
4.44832e-05
4.7075e-05
4.97835e-05
5.25605e-05
5.53641e-05
5.81607e-05
6.09244e-05
6.3635e-05
6.62767e-05
6.88368e-05
7.13055e-05
7.36762e-05
7.59462e-05
7.81161e-05
8.01899e-05
8.21741e-05
8.40765e-05
8.59055e-05
8.7669e-05
8.93738e-05
9.10258e-05
9.26296e-05
9.41885e-05
9.5705e-05
9.71796e-05
9.86102e-05
9.99977e-05
0.000101342
0.000102644
0.000103901
0.000105111
0.00010627
0.000107375
0.000108416
0.000109384
0.00011026
0.000111021
0.000111624
0.000112055
0.000112344
2.4321e-05
2.518e-05
2.59786e-05
2.67171e-05
2.74096e-05
2.80687e-05
2.87068e-05
2.93387e-05
2.99813e-05
3.06542e-05
3.138e-05
3.21832e-05
3.30898e-05
3.41252e-05
3.53121e-05
3.66679e-05
3.82027e-05
3.99181e-05
4.18076e-05
4.38572e-05
4.60478e-05
4.83564e-05
5.07576e-05
5.32246e-05
5.57302e-05
5.82476e-05
6.07522e-05
6.32225e-05
6.56412e-05
6.79957e-05
7.02786e-05
7.24865e-05
7.46196e-05
7.66802e-05
7.86722e-05
8.05996e-05
8.24667e-05
8.4277e-05
8.60337e-05
8.77394e-05
8.93963e-05
9.10045e-05
9.25609e-05
9.40659e-05
9.55194e-05
9.69205e-05
9.82675e-05
9.95572e-05
0.000100785
0.000101944
0.000103023
0.000104007
0.000104871
0.000105578
0.000106113
0.000106506
2.42074e-05
2.49598e-05
2.56844e-05
2.63663e-05
2.70105e-05
2.76215e-05
2.82057e-05
2.87713e-05
2.93277e-05
2.9886e-05
3.0459e-05
3.10604e-05
3.1705e-05
3.24084e-05
3.3186e-05
3.40533e-05
3.50243e-05
3.61117e-05
3.73263e-05
3.86761e-05
4.01662e-05
4.17981e-05
4.35687e-05
4.54701e-05
4.74888e-05
4.96065e-05
5.18012e-05
5.40486e-05
5.63247e-05
5.86073e-05
6.08777e-05
6.31211e-05
6.5327e-05
6.74885e-05
6.96014e-05
7.16636e-05
7.36744e-05
7.56337e-05
7.75419e-05
7.93996e-05
8.12074e-05
8.2966e-05
8.46745e-05
8.63275e-05
8.79247e-05
8.94647e-05
9.09456e-05
9.23643e-05
9.37163e-05
9.49947e-05
9.61892e-05
9.72841e-05
9.82573e-05
9.90738e-05
9.97204e-05
0.000100225
2.41584e-05
2.48527e-05
2.55388e-05
2.61946e-05
2.68196e-05
2.7414e-05
2.79808e-05
2.85248e-05
2.90517e-05
2.95684e-05
3.00826e-05
3.06026e-05
3.11373e-05
3.16956e-05
3.22868e-05
3.29203e-05
3.36057e-05
3.43529e-05
3.51719e-05
3.6073e-05
3.70664e-05
3.8162e-05
3.93685e-05
4.06924e-05
4.21369e-05
4.3701e-05
4.53788e-05
4.71598e-05
4.90295e-05
5.09709e-05
5.2966e-05
5.49971e-05
5.70482e-05
5.91057e-05
6.11582e-05
6.31965e-05
6.52134e-05
6.72032e-05
6.91614e-05
7.10844e-05
7.29694e-05
7.48139e-05
7.66165e-05
7.83736e-05
8.00779e-05
8.17268e-05
8.33172e-05
8.48453e-05
8.63059e-05
8.76917e-05
8.89924e-05
9.01925e-05
9.12711e-05
9.21963e-05
9.29547e-05
9.35721e-05
2.41502e-05
2.48201e-05
2.5492e-05
2.61413e-05
2.67647e-05
2.73599e-05
2.79282e-05
2.84723e-05
2.89959e-05
2.95036e-05
3.00007e-05
3.04926e-05
3.09848e-05
3.14832e-05
3.19934e-05
3.25213e-05
3.30729e-05
3.36543e-05
3.42722e-05
3.4934e-05
3.56475e-05
3.64213e-05
3.72642e-05
3.8185e-05
3.91917e-05
4.02908e-05
4.14868e-05
4.27809e-05
4.41715e-05
4.56536e-05
4.72198e-05
4.88604e-05
5.05643e-05
5.23202e-05
5.41169e-05
5.59435e-05
5.77899e-05
5.96469e-05
6.1506e-05
6.33597e-05
6.52012e-05
6.70245e-05
6.88244e-05
7.05968e-05
7.23344e-05
7.40282e-05
7.56732e-05
7.72635e-05
7.87925e-05
8.02519e-05
8.16304e-05
8.29126e-05
8.40781e-05
8.50978e-05
8.5958e-05
8.66815e-05
2.4168e-05
2.48371e-05
2.55126e-05
2.61696e-05
2.68035e-05
2.74108e-05
2.79914e-05
2.85472e-05
2.90808e-05
2.95955e-05
3.00951e-05
3.05833e-05
3.10641e-05
3.15414e-05
3.20191e-05
3.2501e-05
3.29911e-05
3.34934e-05
3.40123e-05
3.45526e-05
3.51196e-05
3.57191e-05
3.63576e-05
3.70416e-05
3.77781e-05
3.85735e-05
3.94341e-05
4.03648e-05
4.13692e-05
4.24496e-05
4.36062e-05
4.48378e-05
4.61415e-05
4.7513e-05
4.89471e-05
5.04375e-05
5.19773e-05
5.35591e-05
5.51753e-05
5.68179e-05
5.84791e-05
6.01511e-05
6.18264e-05
6.34984e-05
6.51616e-05
6.68037e-05
6.84164e-05
6.99917e-05
7.15207e-05
7.29932e-05
7.4397e-05
7.57159e-05
7.69299e-05
7.80117e-05
7.89474e-05
7.97557e-05
2.42011e-05
2.48861e-05
2.55786e-05
2.62544e-05
2.69079e-05
2.75353e-05
2.81357e-05
2.87105e-05
2.92618e-05
2.9792e-05
3.03041e-05
3.08009e-05
3.12853e-05
3.17604e-05
3.22287e-05
3.26932e-05
3.31567e-05
3.36219e-05
3.40919e-05
3.45701e-05
3.50601e-05
3.55658e-05
3.60917e-05
3.66424e-05
3.72226e-05
3.78374e-05
3.84915e-05
3.91896e-05
3.99359e-05
4.0734e-05
4.15869e-05
4.24969e-05
4.34652e-05
4.44927e-05
4.5579e-05
4.67231e-05
4.7923e-05
4.9176e-05
5.04781e-05
5.18248e-05
5.32108e-05
5.46299e-05
5.60757e-05
5.75414e-05
5.90208e-05
6.05068e-05
6.19875e-05
6.34536e-05
6.48949e-05
6.63001e-05
6.76559e-05
6.89455e-05
7.01492e-05
7.12416e-05
7.22082e-05
7.30631e-05
2.42425e-05
2.49537e-05
2.56728e-05
2.63756e-05
2.70562e-05
2.771e-05
2.83359e-05
2.89351e-05
2.95091e-05
3.00602e-05
3.05906e-05
3.11028e-05
3.1599e-05
3.20816e-05
3.25526e-05
3.30143e-05
3.34687e-05
3.3918e-05
3.43646e-05
3.48108e-05
3.52594e-05
3.57132e-05
3.61753e-05
3.66491e-05
3.71378e-05
3.76451e-05
3.81745e-05
3.87293e-05
3.93131e-05
3.9929e-05
4.05799e-05
4.12687e-05
4.19979e-05
4.27696e-05
4.35858e-05
4.44479e-05
4.53569e-05
4.63131e-05
4.73161e-05
4.83648e-05
4.94572e-05
5.05906e-05
5.17611e-05
5.29645e-05
5.41959e-05
5.54511e-05
5.67213e-05
5.79978e-05
5.92708e-05
6.05293e-05
6.17603e-05
6.29477e-05
6.40728e-05
6.51124e-05
6.60522e-05
6.69018e-05
2.42869e-05
2.50299e-05
2.57813e-05
2.65168e-05
2.72297e-05
2.7915e-05
2.85711e-05
2.91989e-05
2.97997e-05
3.03754e-05
3.09282e-05
3.146e-05
3.19728e-05
3.24686e-05
3.2949e-05
3.34158e-05
3.38708e-05
3.43157e-05
3.47524e-05
3.51828e-05
3.5609e-05
3.60332e-05
3.64579e-05
3.68854e-05
3.73182e-05
3.77591e-05
3.82106e-05
3.86752e-05
3.91555e-05
3.96541e-05
4.01733e-05
4.07156e-05
4.12834e-05
4.18788e-05
4.25042e-05
4.31615e-05
4.38526e-05
4.45791e-05
4.53422e-05
4.61427e-05
4.69806e-05
4.78556e-05
4.87664e-05
4.97113e-05
5.06875e-05
5.16929e-05
5.27228e-05
5.37709e-05
5.48298e-05
5.58903e-05
5.69414e-05
5.79692e-05
5.89574e-05
5.9886e-05
6.07419e-05
6.1532e-05
2.4331e-05
2.51071e-05
2.58928e-05
2.66637e-05
2.74122e-05
2.81323e-05
2.88221e-05
2.94818e-05
3.01126e-05
3.07161e-05
3.12942e-05
3.18487e-05
3.23814e-05
3.28939e-05
3.33879e-05
3.38648e-05
3.4326e-05
3.47732e-05
3.52078e-05
3.56316e-05
3.60463e-05
3.64536e-05
3.68556e-05
3.72541e-05
3.76513e-05
3.80491e-05
3.84496e-05
3.88548e-05
3.92667e-05
3.96872e-05
4.01184e-05
4.05621e-05
4.10204e-05
4.14952e-05
4.19885e-05
4.25021e-05
4.30381e-05
4.3598e-05
4.41835e-05
4.4796e-05
4.54364e-05
4.61054e-05
4.68031e-05
4.75292e-05
4.82827e-05
4.90627e-05
4.98674e-05
5.0693e-05
5.15346e-05
5.23857e-05
5.3238e-05
5.40806e-05
5.49006e-05
5.5682e-05
5.6414e-05
5.71028e-05
2.4372e-05
2.51796e-05
2.59987e-05
2.68048e-05
2.75893e-05
2.83456e-05
2.9071e-05
2.97648e-05
3.04278e-05
3.10613e-05
3.1667e-05
3.22466e-05
3.28016e-05
3.33336e-05
3.3844e-05
3.43341e-05
3.48053e-05
3.5259e-05
3.56965e-05
3.61194e-05
3.65291e-05
3.69272e-05
3.73155e-05
3.76956e-05
3.80691e-05
3.84379e-05
3.88036e-05
3.91678e-05
3.95323e-05
3.98986e-05
4.02684e-05
4.06434e-05
4.10251e-05
4.14153e-05
4.18155e-05
4.22275e-05
4.26529e-05
4.30932e-05
4.355e-05
4.40246e-05
4.45183e-05
4.50319e-05
4.55661e-05
4.61213e-05
4.66974e-05
4.7294e-05
4.79107e-05
4.85455e-05
4.91954e-05
4.98561e-05
5.05216e-05
5.11842e-05
5.18342e-05
5.24594e-05
5.30521e-05
5.36192e-05
2.4408e-05
2.52432e-05
2.60922e-05
2.69306e-05
2.77492e-05
2.85406e-05
2.93012e-05
3.00295e-05
3.07256e-05
3.13905e-05
3.20254e-05
3.26316e-05
3.32107e-05
3.37641e-05
3.42929e-05
3.47986e-05
3.52824e-05
3.57455e-05
3.61893e-05
3.6615e-05
3.70242e-05
3.74183e-05
3.77987e-05
3.8167e-05
3.85247e-05
3.88734e-05
3.92145e-05
3.95495e-05
3.98799e-05
4.02071e-05
4.05326e-05
4.08576e-05
4.11838e-05
4.15125e-05
4.18451e-05
4.21831e-05
4.2528e-05
4.28809e-05
4.32434e-05
4.36166e-05
4.40016e-05
4.43995e-05
4.48109e-05
4.52364e-05
4.56764e-05
4.61306e-05
4.65992e-05
4.70811e-05
4.75745e-05
4.80765e-05
4.85831e-05
4.90885e-05
4.95859e-05
5.00664e-05
5.0525e-05
5.09696e-05
2.44377e-05
2.52951e-05
2.61684e-05
2.7034e-05
2.78822e-05
2.87051e-05
2.94982e-05
3.02595e-05
3.09879e-05
3.16838e-05
3.2348e-05
3.29815e-05
3.35856e-05
3.41615e-05
3.47102e-05
3.52331e-05
3.57313e-05
3.6206e-05
3.66584e-05
3.70898e-05
3.75016e-05
3.78952e-05
3.82719e-05
3.86333e-05
3.89806e-05
3.93154e-05
3.9639e-05
3.99528e-05
4.02581e-05
4.05563e-05
4.08486e-05
4.11364e-05
4.1421e-05
4.17037e-05
4.19857e-05
4.22683e-05
4.25528e-05
4.28403e-05
4.31321e-05
4.34292e-05
4.37326e-05
4.40433e-05
4.43619e-05
4.46891e-05
4.50252e-05
4.53702e-05
4.57244e-05
4.60871e-05
4.64571e-05
4.68325e-05
4.72104e-05
4.75865e-05
4.7956e-05
4.83124e-05
4.86528e-05
4.89865e-05
2.44606e-05
2.53333e-05
2.62239e-05
2.71097e-05
2.7981e-05
2.88295e-05
2.96502e-05
3.04403e-05
3.11979e-05
3.19226e-05
3.26147e-05
3.32747e-05
3.39034e-05
3.45018e-05
3.50709e-05
3.56118e-05
3.61255e-05
3.66132e-05
3.7076e-05
3.75151e-05
3.7932e-05
3.83278e-05
3.8704e-05
3.9062e-05
3.9403e-05
3.97285e-05
4.00398e-05
4.03382e-05
4.06251e-05
4.09016e-05
4.1169e-05
4.14285e-05
4.16814e-05
4.19289e-05
4.21721e-05
4.24123e-05
4.26506e-05
4.2888e-05
4.31256e-05
4.33644e-05
4.36053e-05
4.38492e-05
4.40967e-05
4.43484e-05
4.46046e-05
4.48654e-05
4.51311e-05
4.54011e-05
4.56747e-05
4.59504e-05
4.62261e-05
4.64986e-05
4.67642e-05
4.70184e-05
4.72597e-05
4.74985e-05
2.44758e-05
2.53563e-05
2.62562e-05
2.7154e-05
2.80402e-05
2.89065e-05
2.97475e-05
3.056e-05
3.13414e-05
3.20905e-05
3.28069e-05
3.34906e-05
3.4142e-05
3.47617e-05
3.53504e-05
3.5909e-05
3.64384e-05
3.69396e-05
3.74137e-05
3.7862e-05
3.82856e-05
3.86858e-05
3.90639e-05
3.94213e-05
3.97593e-05
4.00793e-05
4.03825e-05
4.06702e-05
4.09436e-05
4.12041e-05
4.14529e-05
4.1691e-05
4.19197e-05
4.21402e-05
4.23536e-05
4.2561e-05
4.27634e-05
4.2962e-05
4.31575e-05
4.33511e-05
4.35435e-05
4.37355e-05
4.39277e-05
4.41206e-05
4.43145e-05
4.45097e-05
4.47062e-05
4.49037e-05
4.51017e-05
4.5299e-05
4.54938e-05
4.56838e-05
4.58661e-05
4.60375e-05
4.61975e-05
4.63573e-05
2.44828e-05
2.53628e-05
2.62632e-05
2.71639e-05
2.80556e-05
2.89305e-05
2.9783e-05
3.06094e-05
3.14069e-05
3.21737e-05
3.29087e-05
3.36113e-05
3.42814e-05
3.49192e-05
3.55252e-05
3.60998e-05
3.66438e-05
3.71581e-05
3.76436e-05
3.81014e-05
3.85327e-05
3.89386e-05
3.93205e-05
3.96796e-05
4.00172e-05
4.03346e-05
4.06331e-05
4.09139e-05
4.11783e-05
4.14276e-05
4.16628e-05
4.18851e-05
4.20958e-05
4.22959e-05
4.24865e-05
4.26687e-05
4.28436e-05
4.3012e-05
4.31749e-05
4.33333e-05
4.34878e-05
4.36393e-05
4.37882e-05
4.3935e-05
4.408e-05
4.42236e-05
4.43658e-05
4.45063e-05
4.46447e-05
4.478e-05
4.49107e-05
4.5035e-05
4.51507e-05
4.52553e-05
4.53492e-05
4.54443e-05
2.44811e-05
2.53522e-05
2.62438e-05
2.71375e-05
2.80247e-05
2.88979e-05
2.97515e-05
3.05817e-05
3.13858e-05
3.21615e-05
3.2907e-05
3.36215e-05
3.43043e-05
3.49551e-05
3.5574e-05
3.61613e-05
3.67173e-05
3.72428e-05
3.77385e-05
3.82053e-05
3.86442e-05
3.90564e-05
3.9443e-05
3.98053e-05
4.01444e-05
4.04617e-05
4.07583e-05
4.10355e-05
4.12945e-05
4.15365e-05
4.17626e-05
4.19741e-05
4.21719e-05
4.23572e-05
4.25311e-05
4.26946e-05
4.28487e-05
4.29944e-05
4.31324e-05
4.32638e-05
4.33891e-05
4.35091e-05
4.36243e-05
4.37352e-05
4.38421e-05
4.39453e-05
4.40448e-05
4.41405e-05
4.42319e-05
4.43182e-05
4.43981e-05
4.44702e-05
4.45327e-05
4.45837e-05
4.46244e-05
4.46669e-05
2.44706e-05
2.53237e-05
2.6197e-05
2.70737e-05
2.79455e-05
2.88058e-05
2.96493e-05
3.04722e-05
3.12718e-05
3.20457e-05
3.2792e-05
3.35093e-05
3.41966e-05
3.48532e-05
3.54789e-05
3.60735e-05
3.66372e-05
3.71704e-05
3.76735e-05
3.81474e-05
3.85928e-05
3.90107e-05
3.94022e-05
3.97683e-05
4.01101e-05
4.04289e-05
4.07259e-05
4.10021e-05
4.12587e-05
4.14969e-05
4.17178e-05
4.19225e-05
4.2112e-05
4.22876e-05
4.245e-05
4.26005e-05
4.27399e-05
4.28691e-05
4.2989e-05
4.31004e-05
4.3204e-05
4.33003e-05
4.339e-05
4.34735e-05
4.35512e-05
4.36233e-05
4.36899e-05
4.37508e-05
4.38056e-05
4.38536e-05
4.38938e-05
4.39247e-05
4.39452e-05
4.39538e-05
4.3952e-05
4.39523e-05
2.44512e-05
2.52772e-05
2.61223e-05
2.69713e-05
2.78169e-05
2.86527e-05
2.94742e-05
3.02779e-05
3.10609e-05
3.18212e-05
3.25569e-05
3.32663e-05
3.39481e-05
3.46015e-05
3.52258e-05
3.58206e-05
3.63858e-05
3.69214e-05
3.74277e-05
3.79053e-05
3.83545e-05
3.87763e-05
3.91715e-05
3.9541e-05
3.98858e-05
4.0207e-05
4.05056e-05
4.07826e-05
4.10392e-05
4.12765e-05
4.14954e-05
4.16969e-05
4.18823e-05
4.20524e-05
4.22082e-05
4.23506e-05
4.24807e-05
4.25992e-05
4.2707e-05
4.28047e-05
4.28931e-05
4.29728e-05
4.30442e-05
4.3108e-05
4.31644e-05
4.32136e-05
4.32556e-05
4.32905e-05
4.33177e-05
4.33367e-05
4.33465e-05
4.3346e-05
4.33342e-05
4.331e-05
4.32753e-05
4.32426e-05
2.44226e-05
2.52123e-05
2.60192e-05
2.683e-05
2.76379e-05
2.84377e-05
2.9225e-05
2.99969e-05
3.07509e-05
3.1485e-05
3.21977e-05
3.28873e-05
3.35524e-05
3.41919e-05
3.48051e-05
3.53913e-05
3.59502e-05
3.64813e-05
3.69849e-05
3.74611e-05
3.79101e-05
3.83326e-05
3.87291e-05
3.91003e-05
3.94472e-05
3.97705e-05
4.00711e-05
4.035e-05
4.06081e-05
4.08464e-05
4.10658e-05
4.12673e-05
4.14518e-05
4.16202e-05
4.17735e-05
4.19125e-05
4.20381e-05
4.21511e-05
4.22521e-05
4.2342e-05
4.24213e-05
4.24906e-05
4.25505e-05
4.26014e-05
4.26437e-05
4.26774e-05
4.27027e-05
4.27194e-05
4.27272e-05
4.27255e-05
4.27135e-05
4.26903e-05
4.2655e-05
4.26069e-05
4.2548e-05
4.24908e-05
2.43848e-05
2.51287e-05
2.58874e-05
2.66491e-05
2.74082e-05
2.81601e-05
2.89011e-05
2.96288e-05
3.03411e-05
3.10364e-05
3.17133e-05
3.23706e-05
3.3007e-05
3.36212e-05
3.42125e-05
3.47801e-05
3.53233e-05
3.58417e-05
3.63351e-05
3.68034e-05
3.72466e-05
3.76651e-05
3.80591e-05
3.84292e-05
3.87759e-05
3.90998e-05
3.94018e-05
3.96824e-05
3.99426e-05
4.01831e-05
4.04047e-05
4.06082e-05
4.07945e-05
4.09644e-05
4.11187e-05
4.12581e-05
4.13835e-05
4.14955e-05
4.15948e-05
4.1682e-05
4.17579e-05
4.18228e-05
4.18774e-05
4.19219e-05
4.19567e-05
4.19819e-05
4.19975e-05
4.20035e-05
4.19995e-05
4.1985e-05
4.19593e-05
4.19216e-05
4.18711e-05
4.18074e-05
4.17328e-05
4.16594e-05
2.43376e-05
2.50261e-05
2.57264e-05
2.64284e-05
2.71276e-05
2.782e-05
2.85029e-05
2.91742e-05
2.98325e-05
3.04766e-05
3.11055e-05
3.17181e-05
3.23136e-05
3.28908e-05
3.34489e-05
3.3987e-05
3.45046e-05
3.5001e-05
3.54757e-05
3.59285e-05
3.63591e-05
3.67676e-05
3.71541e-05
3.75187e-05
3.78618e-05
3.81837e-05
3.84851e-05
3.87663e-05
3.90279e-05
3.92707e-05
3.94951e-05
3.9702e-05
3.98918e-05
4.00654e-05
4.02235e-05
4.03665e-05
4.04952e-05
4.06102e-05
4.07122e-05
4.08017e-05
4.08791e-05
4.09451e-05
4.1e-05
4.10441e-05
4.10777e-05
4.11009e-05
4.11138e-05
4.11161e-05
4.11077e-05
4.10879e-05
4.10562e-05
4.10119e-05
4.09545e-05
4.08836e-05
4.08016e-05
4.072e-05
2.42806e-05
2.49041e-05
2.55358e-05
2.61677e-05
2.67961e-05
2.74181e-05
2.80317e-05
2.86354e-05
2.92283e-05
2.98097e-05
3.0379e-05
3.09355e-05
3.14786e-05
3.20075e-05
3.25214e-05
3.30196e-05
3.35014e-05
3.39661e-05
3.44131e-05
3.4842e-05
3.52524e-05
3.56441e-05
3.60168e-05
3.63705e-05
3.67054e-05
3.70215e-05
3.73191e-05
3.75985e-05
3.786e-05
3.81039e-05
3.83308e-05
3.85412e-05
3.87354e-05
3.8914e-05
3.90776e-05
3.92266e-05
3.93615e-05
3.94829e-05
3.95912e-05
3.9687e-05
3.97706e-05
3.98425e-05
3.9903e-05
3.99522e-05
3.99906e-05
4.0018e-05
4.00346e-05
4.00401e-05
4.00342e-05
4.00166e-05
3.99866e-05
3.99437e-05
3.98875e-05
3.98177e-05
3.97369e-05
3.96556e-05
2.42138e-05
2.47623e-05
2.53155e-05
2.58672e-05
2.64148e-05
2.69564e-05
2.74906e-05
2.80167e-05
2.85344e-05
2.90432e-05
2.9543e-05
3.00334e-05
3.05142e-05
3.09849e-05
3.14448e-05
3.18933e-05
3.23298e-05
3.27536e-05
3.31641e-05
3.35607e-05
3.3943e-05
3.43104e-05
3.46627e-05
3.49995e-05
3.53208e-05
3.56262e-05
3.5916e-05
3.61901e-05
3.64486e-05
3.66917e-05
3.69196e-05
3.71325e-05
3.73309e-05
3.75149e-05
3.76849e-05
3.78413e-05
3.79845e-05
3.81147e-05
3.82324e-05
3.83379e-05
3.84316e-05
3.85136e-05
3.85843e-05
3.86439e-05
3.86924e-05
3.873e-05
3.87564e-05
3.87717e-05
3.87754e-05
3.87672e-05
3.87465e-05
3.8713e-05
3.86662e-05
3.86062e-05
3.85354e-05
3.84632e-05
2.41371e-05
2.46008e-05
2.50661e-05
2.55285e-05
2.59865e-05
2.64392e-05
2.6886e-05
2.73266e-05
2.77612e-05
2.81899e-05
2.86126e-05
2.90295e-05
2.94403e-05
2.9845e-05
3.02429e-05
3.06338e-05
3.10171e-05
3.13921e-05
3.17583e-05
3.21151e-05
3.24618e-05
3.2798e-05
3.31231e-05
3.34367e-05
3.37385e-05
3.40281e-05
3.43053e-05
3.45699e-05
3.48219e-05
3.50611e-05
3.52877e-05
3.55015e-05
3.57028e-05
3.58916e-05
3.60682e-05
3.62326e-05
3.63851e-05
3.65259e-05
3.66552e-05
3.67731e-05
3.688e-05
3.6976e-05
3.70611e-05
3.71356e-05
3.71994e-05
3.72525e-05
3.72948e-05
3.73262e-05
3.73462e-05
3.73547e-05
3.7351e-05
3.73349e-05
3.73061e-05
3.72648e-05
3.72132e-05
3.71594e-05
2.40505e-05
2.44204e-05
2.47896e-05
2.51554e-05
2.55174e-05
2.58754e-05
2.62295e-05
2.65798e-05
2.69269e-05
2.72709e-05
2.76123e-05
2.79512e-05
2.82876e-05
2.86214e-05
2.89525e-05
2.92805e-05
2.96051e-05
2.99256e-05
3.02416e-05
3.05526e-05
3.08578e-05
3.11567e-05
3.14489e-05
3.17336e-05
3.20105e-05
3.22791e-05
3.2539e-05
3.27899e-05
3.30315e-05
3.32635e-05
3.34858e-05
3.36982e-05
3.39006e-05
3.4093e-05
3.42754e-05
3.44478e-05
3.46101e-05
3.47624e-05
3.49048e-05
3.50374e-05
3.51601e-05
3.52731e-05
3.53763e-05
3.54699e-05
3.55536e-05
3.56275e-05
3.56914e-05
3.5745e-05
3.57881e-05
3.58204e-05
3.58415e-05
3.5851e-05
3.58489e-05
3.58355e-05
3.58127e-05
3.57869e-05
2.39555e-05
2.42244e-05