/*--------------------------------*- C++ -*----------------------------------*\
  =========                 |
  \\      /  F ield         | OpenFOAM: The Open Source CFD Toolbox
   \\    /   O peration     | Website:  https://openfoam.org
    \\  /    A nd           | Version:  6
     \\/     M anipulation  |
\*---------------------------------------------------------------------------*/
FoamFile
{
    version     2.0;
    format      ascii;
    class       volVectorField;
    location    "0";
    object      U;
}
// * * * * * * * * * * * * * * * * * * * * * * * * * * * * * * * * * * * * * //

dimensions      [0 1 -1 0 0 0 0];

internalField   nonuniform List<vector> 
11644
(
(-0.260724 -0.00336115 0)
(-0.260332 -0.00908182 0)
(-0.260184 -0.0139218 0)
(-0.260143 -0.0188954 0)
(-0.260165 -0.0238829 0)
(-0.260248 -0.0287912 0)
(-0.2604 -0.033526 0)
(-0.260643 -0.0379719 0)
(-0.261 -0.0419818 0)
(-0.261499 -0.0453722 0)
(-0.262163 -0.0479238 0)
(-0.263008 -0.0493909 0)
(-0.26403 -0.0495206 0)
(-0.265202 -0.0480831 0)
(-0.266469 -0.0449094 0)
(-0.267749 -0.0399289 0)
(-0.268942 -0.0332015 0)
(-0.269938 -0.0249339 0)
(-0.27065 -0.0154684 0)
(-0.27102 -0.0052468 9.38056e-27)
(-0.271021 0.00523285 -9.38056e-27)
(-0.270651 0.015455 0)
(-0.269939 0.0249216 0)
(-0.268943 0.0331907 0)
(-0.267751 0.0399199 0)
(-0.26647 0.0449022 0)
(-0.265203 0.0480777 0)
(-0.264031 0.0495168 0)
(-0.263009 0.0493886 0)
(-0.262164 0.0479227 0)
(-0.2615 0.045372 0)
(-0.261001 0.0419823 0)
(-0.260643 0.0379728 0)
(-0.260401 0.0335272 0)
(-0.260248 0.0287924 0)
(-0.260165 0.0238841 0)
(-0.260142 0.0188964 0)
(-0.260184 0.0139225 0)
(-0.260332 0.0090823 0)
(-0.260724 0.00336131 0)
(-0.255938 -0.00274895 0)
(-0.255415 -0.00800675 0)
(-0.255193 -0.0130271 0)
(-0.25514 -0.0179667 0)
(-0.255223 -0.0228574 0)
(-0.255456 -0.0276738 0)
(-0.255883 -0.0323567 0)
(-0.256567 -0.0368134 0)
(-0.257587 -0.040913 0)
(-0.259029 -0.0444801 0)
(-0.260975 -0.0472914 0)
(-0.26348 -0.049081 0)
(-0.266545 -0.0495587 0)
(-0.270094 -0.0484456 0)
(-0.273956 -0.045522 0)
(-0.277881 -0.0406736 0)
(-0.281545 -0.0339359 0)
(-0.284594 -0.0255312 0)
(-0.286755 -0.0158491 0)
(-0.287869 -0.00537669 -3.78667e-26)
(-0.28787 0.00536177 3.78667e-26)
(-0.286756 0.0158349 0)
(-0.284597 0.0255183 0)
(-0.281549 0.0339248 0)
(-0.277885 0.0406645 0)
(-0.27396 0.0455151 0)
(-0.270098 0.0484407 0)
(-0.266549 0.0495555 0)
(-0.263482 0.0490793 0)
(-0.260977 0.0472909 0)
(-0.259031 0.0444804 0)
(-0.257588 0.040914 0)
(-0.256568 0.0368147 0)
(-0.255884 0.0323581 0)
(-0.255456 0.0276753 0)
(-0.255223 0.0228588 0)
(-0.25514 0.0179678 0)
(-0.255192 0.013028 0)
(-0.255415 0.00800729 0)
(-0.255937 0.00274913 0)
(-0.244267 -0.00241547 0)
(-0.244065 -0.00715214 0)
(-0.243946 -0.0118684 0)
(-0.243926 -0.0165533 0)
(-0.244038 -0.0212388 0)
(-0.244339 -0.0259255 0)
(-0.244913 -0.0305889 0)
(-0.245873 -0.0351729 0)
(-0.247363 -0.0395794 0)
(-0.249548 -0.0436528 0)
(-0.252602 -0.047164 0)
(-0.256668 -0.0497998 0)
(-0.261802 -0.0511721 0)
(-0.267897 -0.0508684 0)
(-0.274655 -0.0485322 0)
(-0.281652 -0.0439181 0)
(-0.288284 -0.0369593 0)
(-0.293746 -0.027917 0)
(-0.297548 -0.0173473 0)
(-0.299481 -0.00588474 -7.54234e-26)
(-0.299483 0.0058675 7.54234e-26)
(-0.297552 0.0173311 0)
(-0.293752 0.0279026 0)
(-0.288291 0.0369473 0)
(-0.281659 0.0439087 0)
(-0.274662 0.0485255 0)
(-0.267903 0.0508641 0)
(-0.261808 0.0511698 0)
(-0.256673 0.0497991 0)
(-0.252605 0.0471646 0)
(-0.249551 0.0436541 0)
(-0.247364 0.0395812 0)
(-0.245874 0.035175 0)
(-0.244913 0.030591 0)
(-0.244339 0.0259275 0)
(-0.244037 0.0212405 0)
(-0.243925 0.0165547 0)
(-0.243945 0.0118694 0)
(-0.244064 0.00715279 0)
(-0.244265 0.00241569 0)
(-0.237487 -0.00216613 0)
(-0.237332 -0.00642088 0)
(-0.237207 -0.0107491 0)
(-0.237132 -0.0151246 0)
(-0.237157 -0.0195971 0)
(-0.237358 -0.0241988 0)
(-0.237852 -0.0289514 0)
(-0.238796 -0.0338561 0)
(-0.240404 -0.0388764 0)
(-0.242948 -0.0439086 0)
(-0.246757 -0.0487392 0)
(-0.25217 -0.0529896 0)
(-0.259434 -0.0560811 0)
(-0.268476 -0.0573088 0)
(-0.278752 -0.0560668 0)
(-0.289776 -0.0518513 0)
(-0.300718 -0.0441864 0)
(-0.309397 -0.0334244 0)
(-0.315169 -0.0207052 0)
(-0.318017 -0.00700536 0)
(-0.318019 0.00698394 0)
(-0.315175 0.0206854 0)
(-0.309406 0.0334074 0)
(-0.300729 0.044173 0)
(-0.289787 0.0518418 0)
(-0.278764 0.0560609 0)
(-0.268486 0.057306 0)
(-0.259442 0.0560807 0)
(-0.252176 0.0529908 0)
(-0.246761 0.0487415 0)
(-0.242951 0.0439116 0)
(-0.240406 0.0388795 0)
(-0.238797 0.0338593 0)
(-0.237852 0.0289544 0)
(-0.237358 0.0242014 0)
(-0.237155 0.0195993 0)
(-0.237131 0.0151264 0)
(-0.237205 0.0107503 0)
(-0.23733 0.00642167 0)
(-0.237485 0.0021664 0)
(-0.231526 -0.00190958 0)
(-0.231326 -0.00564529 0)
(-0.231096 -0.00951532 0)
(-0.230845 -0.013505 0)
(-0.230617 -0.0176992 0)
(-0.23049 -0.0221757 0)
(-0.230583 -0.0270222 0)
(-0.231078 -0.0323305 0)
(-0.232241 -0.0381808 0)
(-0.234461 -0.0446046 0)
(-0.238287 -0.0515052 0)
(-0.244459 -0.0585044 0)
(-0.253812 -0.0647032 0)
(-0.266654 -0.0686599 0)
(-0.281213 -0.0694934 0)
(-0.29767 -0.066603 0)
(-0.317448 -0.0576234 0)
(-0.330457 -0.0430228 0)
(-0.33823 -0.0262386 0)
(-0.341868 -0.00879917 -1.50669e-25)
(-0.341872 0.00877065 1.50669e-25)
(-0.338241 0.0262128 0)
(-0.330472 0.0430018 0)
(-0.317466 0.0576082 0)
(-0.297688 0.0665936 0)
(-0.28123 0.0694892 0)
(-0.266668 0.0686598 0)
(-0.253823 0.0647057 0)
(-0.244467 0.0585086 0)
(-0.238293 0.0515102 0)
(-0.234464 0.0446098 0)
(-0.232243 0.0381858 0)
(-0.231079 0.0323351 0)
(-0.230582 0.0270263 0)
(-0.230488 0.0221792 0)
(-0.230615 0.017702 0)
(-0.230843 0.0135072 0)
(-0.231094 0.00951688 0)
(-0.231324 0.00564623 0)
(-0.231524 0.00190989 0)
(-0.226209 -0.00160714 0)
(-0.225924 -0.00472491 0)
(-0.225513 -0.00801906 0)
(-0.224972 -0.0114869 0)
(-0.224324 -0.0152501 0)
(-0.223618 -0.0194365 0)
(-0.222942 -0.0242115 0)
(-0.222445 -0.0297886 0)
(-0.222375 -0.036437 0)
(-0.223156 -0.0444735 0)
(-0.225524 -0.0542022 0)
(-0.230803 -0.0656771 0)
(-0.24152 -0.0777816 0)
(-0.261854 -0.0863284 0)
(-0.280173 -0.0905699 0)
(-0.298271 -0.0943527 0)
(-0.317795 -0.0830191 0)
(-0.331541 -0.0573325 0)
(-0.340035 -0.0335001 0)
(-0.343988 -0.0110297 -3.03114e-25)
(-0.343995 0.010989 3.03114e-25)
(-0.340053 0.0334645 0)
(-0.331566 0.0573056 0)
(-0.317823 0.083002 0)
(-0.2983 0.0943448 0)
(-0.280198 0.0905696 0)
(-0.261873 0.0863332 0)
(-0.241533 0.0777891 0)
(-0.230812 0.0656857 0)
(-0.225529 0.054211 0)
(-0.223159 0.0444817 0)
(-0.222376 0.0364443 0)
(-0.222445 0.0297949 0)
(-0.22294 0.0242168 0)
(-0.223615 0.0194409 0)
(-0.224321 0.0152536 0)
(-0.224969 0.0114895 0)
(-0.22551 0.00802088 0)
(-0.225921 0.00472597 0)
(-0.226205 0.00160749 0)
(-0.221712 -0.00123583 0)
(-0.221323 -0.00359222 0)
(-0.220688 -0.00614434 0)
(-0.219781 -0.00888995 0)
(-0.218591 -0.0119732 0)
(-0.217109 -0.0155556 0)
(-0.215346 -0.019863 0)
(-0.213332 -0.0252201 0)
(-0.211153 -0.0321052 0)
(-0.208999 -0.0412466 0)
(-0.20727 -0.0538152 0)
(-0.206809 -0.0719163 0)
(-0.209634 -0.0986591 0)
(-0.229991 -0.112953 0)
(-0.249345 -0.111198 0)
(-0.274368 -0.10719 0)
(-0.278987 -0.110348 0)
(-0.294075 -0.0739242 0)
(-0.307421 -0.0459086 0)
(-0.316078 -0.0191617 -3.7298e-20)
(-0.320391 0.00648161 0)
(-0.320625 0.0325746 3.35535e-19)
(-0.316125 0.0600319 0)
(-0.307752 0.088764 0)
(-0.274409 0.10719 0)
(-0.249378 0.111207 0)
(-0.230015 0.112967 0)
(-0.209649 0.0986747 0)
(-0.206818 0.0719315 0)
(-0.207274 0.0538288 0)
(-0.209 0.0412584 0)
(-0.211152 0.0321151 0)
(-0.21333 0.0252282 0)
(-0.215342 0.0198695 0)
(-0.217106 0.0155607 0)
(-0.218586 0.0119771 0)
(-0.219777 0.00889285 0)
(-0.220684 0.00614632 0)
(-0.221319 0.00359337 0)
(-0.221707 0.00123622 0)
(-0.218247 -0.000786314 0)
(-0.217759 -0.00221888 0)
(-0.216899 -0.00383752 0)
(-0.21562 -0.00562111 0)
(-0.213865 -0.0077079 0)
(-0.211556 -0.0102531 0)
(-0.208589 -0.0134815 0)
(-0.204825 -0.0177284 0)
(-0.200074 -0.0235028 0)
(-0.194073 -0.0315922 0)
(-0.186446 -0.0432435 0)
(-0.176586 -0.0606483 0)
(-0.163328 -0.0882233 0)
(-0.152156 -0.15826 0)
(-0.161488 -0.133022 0)
(-0.20043 -0.147208 0)
(-0.282627 -0.120837 0)
(-0.316627 -0.093908 0)
(-0.331528 -0.0572322 0)
(-0.336783 -0.0232329 3.6988e-20)
(-0.337544 0.00755266 0)
(-0.334981 0.039621 -3.69892e-20)
(-0.325793 0.075532 0)
(-0.302822 0.110032 0)
(-0.270601 0.137524 0)
(-0.207799 0.141602 0)
(-0.186898 0.126591 0)
(-0.163341 0.0882513 0)
(-0.176591 0.0606719 0)
(-0.186446 0.0432627 0)
(-0.194071 0.0316075 0)
(-0.200069 0.0235149 0)
(-0.20482 0.0177378 0)
(-0.208583 0.0134887 0)
(-0.21155 0.0102586 0)
(-0.213859 0.00771204 0)
(-0.215614 0.00562409 0)
(-0.216894 0.00383954 0)
(-0.217754 0.00222006 0)
(-0.218242 0.000786688 0)
(-0.216035 -0.000265602 0)
(-0.215475 -0.000627124 0)
(-0.214441 -0.00113502 0)
(-0.212867 -0.00172901 0)
(-0.210658 -0.00250915 0)
(-0.207672 -0.00357758 0)
(-0.203704 -0.00508518 0)
(-0.198459 -0.00725862 0)
(-0.191504 -0.0104388 0)
(-0.182196 -0.015134 0)
(-0.169553 -0.022091 0)
(-0.152016 -0.0326047 0)
(-0.127009 -0.0511825 0)
(-0.108389 -0.134627 0)
(-0.0787248 -0.139931 0)
(-0.0726506 -0.207325 0)
(-0.0972405 -0.21647 0)
(-0.165383 -0.141318 0)
(-0.198497 -0.0792378 5.89125e-20)
(-0.218074 -0.0332491 0)
(-0.226901 0.00468597 -2.96832e-20)
(-0.224469 0.0440877 0)
(-0.211458 0.0933717 -4.68761e-19)
(-0.181689 0.160772 0)
(-0.11144 0.232292 0)
(-0.0643113 0.185446 0)
(-0.0936985 0.112016 0)
(-0.127011 0.0512256 0)
(-0.152011 0.0326372 0)
(-0.169545 0.022115 0)
(-0.182188 0.0151519 0)
(-0.191495 0.010452 0)
(-0.19845 0.0072684 0)
(-0.203696 0.00509243 0)
(-0.207664 0.00358293 0)
(-0.210651 0.00251304 0)
(-0.21286 0.00173177 0)
(-0.214434 0.00113686 0)
(-0.215468 0.000628173 0)
(-0.216028 0.000265966 0)
(-0.215255 0.000302671 0)
(-0.214672 0.00110864 0)
(-0.213562 0.00183093 0)
(-0.211849 0.00258269 0)
(-0.209419 0.00332549 0)
(-0.206094 0.00404261 0)
(-0.201616 0.00470508 0)
(-0.195613 0.00526665 0)
(-0.187539 0.00566098 0)
(-0.176595 0.00580569 0)
(-0.16159 0.00563615 0)
(-0.140725 0.00489556 0)
(-0.111151 -0.00119378 0)
(-0.0775547 -0.0806855 0)
(-0.0176794 -0.0429027 0)
(0.0742571 -0.181586 0)
(0.15916 -0.287558 0)
(0.15794 -0.15765 0)
(0.107371 -0.106715 2.36611e-19)
(0.0291626 -0.0638615 0)
(-0.0146999 0.00498961 3.63609e-19)
(0.0378518 0.0709501 4.82878e-19)
(0.11523 0.111213 -2.36416e-19)
(0.159789 0.167977 0)
(0.15148 0.181742 0)
(0.0272098 0.0693303 0)
(-0.0513886 0.0380923 0)
(-0.11113 0.00124816 0)
(-0.140704 -0.00485865 0)
(-0.161571 -0.0056112 0)
(-0.176578 -0.00578855 0)
(-0.187524 -0.00564896 0)
(-0.1956 -0.00525818 0)
(-0.201605 -0.00469902 0)
(-0.206084 -0.00403827 0)
(-0.20941 -0.00332239 0)
(-0.211841 -0.00258056 0)
(-0.213554 -0.00182953 0)
(-0.214664 -0.00110783 0)
(-0.215247 -0.000302426 0)
(-0.216011 0.000882214 0)
(-0.215467 0.0028744 0)
(-0.214404 0.00485562 0)
(-0.212754 0.00699373 0)
(-0.210405 0.00931917 0)
(-0.207182 0.0119075 0)
(-0.202836 0.014858 0)
(-0.19701 0.0183092 0)
(-0.189199 0.0224641 0)
(-0.178691 0.0276383 0)
(-0.164476 0.0343644 0)
(-0.145133 0.0432941 0)
(-0.118509 0.0496758 0)
(-0.0816236 -0.0149295 0)
(-0.0289645 0.0567385 0)
(0.0431517 -0.0549824 0)
(0.0705881 -0.166528 5.69075e-20)
(0.129877 -0.15908 -2.2149e-19)
(0.0155505 0.0180253 -6.31355e-19)
(0.0538153 -0.0387818 -1.03558e-17)
(0.0263003 0.0022284 0)
(0.0544496 0.0362033 -2.57409e-18)
(0.0252011 -0.00541103 6.68959e-19)
(0.119097 0.155736 1.09344e-19)
(0.091321 0.044393 -2.41729e-20)
(0.00533578 -0.044455 0)
(-0.0575935 -0.0439833 0)
(-0.118455 -0.0496292 0)
(-0.145092 -0.0432648 0)
(-0.164445 -0.0343462 0)
(-0.178667 -0.0276266 0)
(-0.18918 -0.0224564 0)
(-0.196994 -0.0183039 0)
(-0.202822 -0.0148545 0)
(-0.207171 -0.011905 0)
(-0.210394 -0.00931749 0)
(-0.212745 -0.00699258 0)
(-0.214396 -0.00485489 0)
(-0.215459 -0.002874 0)
(-0.216003 -0.000882064 0)
(-0.218303 0.00143146 0)
(-0.21786 0.00454034 0)
(-0.216971 0.00770646 0)
(-0.215587 0.0111423 0)
(-0.21362 0.0149379 0)
(-0.210934 0.0192434 0)
(-0.207334 0.0242563 0)
(-0.202555 0.0302456 0)
(-0.196242 0.0375885 0)
(-0.187927 0.0468252 0)
(-0.177014 0.0587616 0)
(-0.162755 0.0743725 0)
(-0.144037 0.0888054 0)
(-0.112589 0.0395149 0)
(-0.0751759 0.124524 0)
(-0.0171644 0.038216 0)
(0.0197653 -0.0529868 5.41135e-20)
(-0.0293229 -0.0148256 -3.15263e-19)
(0.169628 -0.092045 1.07339e-17)
(0.185781 0.089683 -2.34435e-18)
(0.0513375 0.024448 -4.65234e-20)
(0.0341734 -0.0567699 0)
(-0.0510912 -0.120604 0)
(-0.0950838 -0.104198 0)
(-0.14396 -0.0887957 0)
(-0.162702 -0.074367 0)
(-0.176976 -0.0587587 0)
(-0.187899 -0.0468236 0)
(-0.19622 -0.0375877 0)
(-0.202538 -0.0302453 0)
(-0.20732 -0.0242563 0)
(-0.210922 -0.0192434 0)
(-0.21361 -0.014938 0)
(-0.215578 -0.0111425 0)
(-0.216962 -0.00770656 0)
(-0.217852 -0.00454039 0)
(-0.218295 -0.0014315 0)
(-0.222022 0.00191172 0)
(-0.22173 0.00598683 0)
(-0.22112 0.0101713 0)
(-0.220167 0.0147037 0)
(-0.218823 0.0197133 0)
(-0.217005 0.0253935 0)
(-0.2146 0.0319915 0)
(-0.21146 0.0398298 0)
(-0.207405 0.0493353 0)
(-0.202227 0.061069 0)
(-0.195682 0.0757666 0)
(-0.187456 0.0941537 0)
(-0.176811 0.111211 0)
(-0.153792 0.07284 0)
(-0.12878 0.151597 0)
(-0.0842469 0.0900442 0)
(-0.0412351 0.0590987 0)
(-0.0485886 -0.0159625 -2.66272e-19)
(0.0302211 0.00478033 -2.18198e-17)
(0.0537611 -0.0118608 9.0908e-18)
(-0.0574949 0.0238387 0)
(-0.0322599 -0.121734 0)
(-0.111751 -0.150878 0)
(-0.142092 -0.1336 0)
(-0.176743 -0.111248 0)
(-0.187408 -0.0941767 0)
(-0.195647 -0.0757813 0)
(-0.2022 -0.0610788 0)
(-0.207385 -0.0493422 0)
(-0.211443 -0.0398348 0)
(-0.214586 -0.0319951 0)
(-0.216994 -0.0253962 0)
(-0.218813 -0.0197153 0)
(-0.220158 -0.0147051 0)
(-0.221111 -0.0101722 0)
(-0.221722 -0.0059874 0)
(-0.222014 -0.00191187 0)
(-0.226963 0.0022939 0)
(-0.226854 0.00712556 0)
(-0.226588 0.0120965 0)
(-0.226171 0.0174502 0)
(-0.225592 0.0233321 0)
(-0.224826 0.0299465 0)
(-0.223839 0.0375458 0)
(-0.222592 0.0464444 0)
(-0.221044 0.0570304 0)
(-0.219137 0.069758 0)
(-0.216738 0.0851071 0)
(-0.213418 0.103283 0)
(-0.20778 0.119295 0)
(-0.190293 0.0864495 0)
(-0.167127 0.147194 0)
(-0.12598 0.0963465 0)
(-0.0837423 0.0887511 0)
(0.0228985 0.121158 -2.64959e-22)
(0.0675181 0.0417499 0)
(0.0617086 -0.0370567 -9.96665e-19)
(0.0129211 -0.118472 0)
(-0.0760158 -0.119258 0)
(-0.149073 -0.143971 0)
(-0.180235 -0.137493 0)
(-0.207744 -0.119354 0)
(-0.213388 -0.103322 0)
(-0.216713 -0.085133 0)
(-0.219117 -0.0697758 0)
(-0.221027 -0.057043 0)
(-0.222579 -0.0464535 0)
(-0.223827 -0.0375525 0)
(-0.224816 -0.0299514 0)
(-0.225583 -0.0233357 0)
(-0.226163 -0.0174528 0)
(-0.226581 -0.0120982 0)
(-0.226846 -0.00712653 0)
(-0.226955 -0.00229424 0)
(-0.232856 0.00256202 0)
(-0.232939 0.00790989 0)
(-0.233043 0.0134041 0)
(-0.233195 0.0192737 0)
(-0.233419 0.0256591 0)
(-0.23374 0.0327489 0)
(-0.234189 0.0407681 0)
(-0.234804 0.049985 0)
(-0.235624 0.06071 0)
(-0.236626 0.0732682 0)
(-0.237543 0.0879203 0)
(-0.237386 0.104517 0)
(-0.233325 0.118441 0)
(-0.217337 0.0898663 0)
(-0.188198 0.138433 0)
(-0.129731 0.0953143 0)
(-0.0675216 0.0853698 0)
(0.0177997 0.0634002 4.37203e-20)
(0.0569223 0.0564309 -7.84653e-22)
(0.0562609 0.0223494 8.28202e-20)
(0.0409498 -0.00038923 2.97341e-20)
(0.0547006 -0.0302897 1.32369e-18)
(0.0556368 -0.0567038 6.92874e-19)
(0.00773482 -0.0667928 -4.37171e-20)
(-0.0639866 -0.108194 0)
(-0.160292 -0.13667 0)
(-0.205767 -0.132663 0)
(-0.233319 -0.118494 0)
(-0.237376 -0.104556 0)
(-0.237531 -0.0879484 0)
(-0.236615 -0.0732887 0)
(-0.235614 -0.0607251 0)
(-0.234795 -0.0499962 0)
(-0.23418 -0.0407766 0)
(-0.233732 -0.0327552 0)
(-0.233411 -0.0256638 0)
(-0.233188 -0.019277 0)
(-0.233037 -0.0134064 0)
(-0.232933 -0.00791122 0)
(-0.23285 -0.00256243 0)
(-0.239403 0.0027136 0)
(-0.239668 0.00833539 0)
(-0.240126 0.0140912 0)
(-0.240817 0.0201802 0)
(-0.241792 0.0267216 0)
(-0.24311 0.0338683 0)
(-0.244847 0.041794 0)
(-0.24709 0.050696 0)
(-0.249922 0.0607931 0)
(-0.253333 0.0723175 0)
(-0.256994 0.0855209 0)
(-0.259743 0.100667 0)
(-0.258303 0.115084 0)
(-0.233789 0.0864466 0)
(-0.222688 0.126405 0)
(-0.20554 0.118423 0)
(-0.189736 0.0753049 0)
(-0.135593 0.0070776 0)
(-0.0359398 -0.0107819 -4.00484e-20)
(0.0258703 -0.006407 1.60027e-19)
(0.0420542 0.00101711 0)
(0.0147365 0.00831685 0)
(-0.0585358 0.00968378 7.20882e-19)
(-0.160807 -0.0188983 0)
(-0.158917 -0.0840313 0)
(-0.213992 -0.143793 0)
(-0.225928 -0.11879 0)
(-0.258314 -0.115122 0)
(-0.259746 -0.100698 0)
(-0.256993 -0.0855453 0)
(-0.25333 -0.0723366 0)
(-0.249917 -0.060808 0)
(-0.247085 -0.0507075 0)
(-0.244841 -0.0418028 0)
(-0.243105 -0.033875 0)
(-0.241787 -0.0267267 0)
(-0.240812 -0.020184 0)
(-0.240121 -0.0140938 0)
(-0.239663 -0.00833684 0)
(-0.239398 -0.00271412 0)
(-0.246306 0.00275761 0)
(-0.246729 0.00843285 0)
(-0.247494 0.0142165 0)
(-0.248649 0.0202681 0)
(-0.250255 0.0266746 0)
(-0.252388 0.0335386 0)
(-0.255137 0.0409614 0)
(-0.258602 0.0490335 0)
(-0.262861 0.0578142 0)
(-0.267877 0.0672974 0)
(-0.2733 0.0773807 0)
(-0.278109 0.0879848 0)
(-0.280129 0.0984352 0)
(-0.278452 0.0791149 0)
(-0.259393 0.0388236 0)
(-0.234672 0.0512899 0)
(-0.192153 0.0179629 0)
(-0.103561 0.00844155 0)
(-0.0279669 -0.00120825 0)
(0.0215543 -0.00235237 0)
(0.0356508 0.000466264 -9.90407e-21)
(0.0122364 0.00269693 3.17552e-19)
(-0.0450434 -0.000206628 0)
(-0.124876 -0.0124746 0)
(-0.218228 -0.0359535 0)
(-0.247028 -0.0585832 0)
(-0.278479 -0.0791375 0)
(-0.280145 -0.098459 0)
(-0.278119 -0.0880066 0)
(-0.273305 -0.0773994 0)
(-0.267878 -0.067313 0)
(-0.26286 -0.0578271 0)
(-0.258601 -0.0490439 0)
(-0.255135 -0.0409697 0)
(-0.252385 -0.0335451 0)
(-0.250252 -0.0266796 0)
(-0.248645 -0.0202717 0)
(-0.247491 -0.014219 0)
(-0.246725 -0.00843435 0)
(-0.246303 -0.00275805 0)
(-0.253301 0.002711 0)
(-0.253847 0.00825711 0)
(-0.254857 0.0138802 0)
(-0.256373 0.0196974 0)
(-0.258454 0.0257607 0)
(-0.261167 0.0321194 0)
(-0.264579 0.0387977 0)
(-0.26874 0.0457676 0)
(-0.273619 0.0528971 0)
(-0.27898 0.0598508 0)
(-0.284131 0.0659156 0)
(-0.287575 0.0697101 0)
(-0.286797 0.068691 0)
(-0.278361 0.0573437 0)
(-0.2558 0.0255366 0)
(-0.206385 0.0259715 0)
(-0.154949 0.0107752 0)
(-0.0836192 0.0112224 0)
(-0.019594 0.00236477 0)
(0.0222933 -0.000308312 0)
(0.0343086 0.000142356 0)
(0.014399 0.000102791 0)
(-0.033992 -0.00384896 0)
(-0.101657 -0.0147308 0)
(-0.176185 -0.0211308 0)
(-0.232918 -0.0355511 0)
(-0.278385 -0.0573542 0)
(-0.286814 -0.0687047 0)
(-0.287587 -0.0697241 0)
(-0.284139 -0.0659287 0)
(-0.278984 -0.0598626 0)
(-0.273622 -0.0529073 0)
(-0.268741 -0.0457763 0)
(-0.264579 -0.0388048 0)
(-0.261166 -0.0321252 0)
(-0.258452 -0.0257652 0)
(-0.256371 -0.0197008 0)
(-0.254855 -0.0138825 0)
(-0.253845 -0.00825845 0)
(-0.253298 -0.00271149 0)
(-0.260166 0.00259432 0)
(-0.260802 0.00787332 0)
(-0.261989 0.0131993 0)
(-0.263759 0.0186512 0)
(-0.266157 0.0242518 0)
(-0.269223 0.0300098 0)
(-0.272972 0.0358958 0)
(-0.277352 0.0418098 0)
(-0.28215 0.0475246 0)
(-0.286798 0.0525932 0)
(-0.290059 0.0562202 0)
(-0.289582 0.0571367 0)
(-0.281513 0.053666 0)
(-0.260671 0.0455105 0)
(-0.234504 0.0158496 0)
(-0.182455 0.0208251 0)
(-0.130828 0.00623547 0)
(-0.0663128 0.012701 0)
(-0.0104003 0.00419019 0)
(0.0256332 0.000671302 0)
(0.0359225 -1.40771e-05 0)
(0.0188711 -0.00115309 0)
(-0.0228584 -0.00576854 0)
(-0.082327 -0.0157526 0)
(-0.151543 -0.0182343 0)
(-0.210523 -0.0289282 0)
(-0.26069 -0.0455146 0)
(-0.281528 -0.0536733 0)
(-0.289594 -0.0571451 0)
(-0.290068 -0.0562288 0)
(-0.286804 -0.0526014 0)
(-0.282154 -0.0475321 0)
(-0.277355 -0.0418165 0)
(-0.272973 -0.0359015 0)
(-0.269223 -0.0300145 0)
(-0.266157 -0.0242556 0)
(-0.263759 -0.018654 0)
(-0.261988 -0.0132014 0)
(-0.260801 -0.00787456 0)
(-0.260164 -0.00259468 0)
(-0.266733 0.00242764 0)
(-0.267427 0.00734383 0)
(-0.268732 0.0122829 0)
(-0.270665 0.0172931 0)
(-0.273251 0.0223786 0)
(-0.276496 0.0275257 0)
(-0.280355 0.0326831 0)
(-0.284673 0.0377357 0)
(-0.289056 0.0424632 0)
(-0.292661 0.0464858 0)
(-0.293867 0.0492168 0)
(-0.289893 0.0498665 0)
(-0.27658 0.0475772 0)
(-0.248853 0.0429726 0)
(-0.217588 0.0146908 0)
(-0.162528 0.0250384 0)
(-0.109062 0.00820556 0)
(-0.048271 0.0151736 0)
(0.000236706 0.00446802 0)
(0.0301369 0.000342527 0)
(0.0385434 4.31968e-05 0)
(0.0245871 -0.000851763 0)
(-0.0103067 -0.00646353 0)
(-0.0628153 -0.0189118 0)
(-0.13022 -0.0238744 0)
(-0.191909 -0.0310341 0)
(-0.248868 -0.0429732 0)
(-0.276593 -0.0475803 0)
(-0.289904 -0.0498709 0)
(-0.293876 -0.049222 0)
(-0.292667 -0.0464912 0)
(-0.289061 -0.0424684 0)
(-0.284677 -0.0377406 0)
(-0.280358 -0.0326874 0)
(-0.276497 -0.0275294 0)
(-0.273252 -0.0223816 0)
(-0.270665 -0.0172955 0)
(-0.268732 -0.0122846 0)
(-0.267427 -0.0073448 0)
(-0.266732 -0.00242801 0)
(-0.27288 0.00222783 0)
(-0.273607 0.00671989 0)
(-0.274982 0.0112173 0)
(-0.277008 0.015745 0)
(-0.27969 0.020297 0)
(-0.283004 0.0248507 0)
(-0.286856 0.0293538 0)
(-0.291011 0.0337095 0)
(-0.294962 0.0377579 0)
(-0.297727 0.0412722 0)
(-0.297582 0.0440058 0)
(-0.291817 0.0458585 0)
(-0.276736 0.0472559 0)
(-0.24807 0.0499957 0)
(-0.204637 0.0233313 0)
(-0.154975 0.0416842 0)
(-0.0777854 0.0282022 0)
(-0.020051 0.0145732 0)
(0.0130031 -0.00186933 0)
(0.0325403 -0.00383715 0)
(0.0380093 0.000675133 8.64188e-30)
(0.0288718 0.0042472 0)
(0.00592647 -0.000532663 0)
(-0.0311609 -0.0221658 0)
(-0.122039 -0.0524634 0)
(-0.179749 -0.0411908 0)
(-0.248082 -0.0499938 0)
(-0.276746 -0.0472562 0)
(-0.291826 -0.0458602 0)
(-0.297589 -0.0440085 0)
(-0.297733 -0.0412753 0)
(-0.294967 -0.0377612 0)
(-0.291015 -0.0337128 0)
(-0.286859 -0.0293569 0)
(-0.283006 -0.0248534 0)
(-0.279692 -0.0202993 0)
(-0.277009 -0.0157468 0)
(-0.274982 -0.0112186 0)
(-0.273608 -0.0067207 0)
(-0.27288 -0.00222805 0)
(-0.278525 0.00200797 0)
(-0.279266 0.00604035 0)
(-0.280673 0.0100652 0)
(-0.28274 0.0140892 0)
(-0.285454 0.0180997 0)
(-0.288767 0.0220689 0)
(-0.292551 0.0259464 0)
(-0.296524 0.029652 0)
(-0.300131 0.0330738 0)
(-0.302385 0.0360931 0)
(-0.301701 0.0386783 0)
(-0.295858 0.0411243 0)
(-0.282316 0.0445681 0)
(-0.259141 0.0512778 0)
(-0.229248 0.0439266 0)
(-0.184557 0.0161655 0)
(-0.161596 0.0302769 0)
(-0.126451 0.00661404 0)
(-0.0879292 -0.00437111 0)
(-0.0625906 -0.00400544 0)
(-0.0572613 0.00147934 -2.73254e-30)
(-0.0731949 0.00523575 0)
(-0.106475 0.000608761 0)
(-0.14646 -0.0174531 0)
(-0.167541 -0.0354194 0)
(-0.229256 -0.0439216 0)
(-0.259149 -0.0512747 0)
(-0.282324 -0.0445668 0)
(-0.295865 -0.0411243 0)
(-0.301708 -0.0386792 0)
(-0.302391 -0.0360946 0)
(-0.300136 -0.0330757 0)
(-0.296528 -0.0296541 0)
(-0.292554 -0.0259484 0)
(-0.28877 -0.0220708 0)
(-0.285456 -0.0181013 0)
(-0.282741 -0.0140905 0)
(-0.280675 -0.0100662 0)
(-0.279267 -0.0060409 0)
(-0.278527 -0.0020082 0)
(-0.283618 0.00177825 0)
(-0.284357 0.00533493 0)
(-0.285766 0.00887358 0)
(-0.287831 0.0123852 0)
(-0.290524 0.0158502 0)
(-0.293776 0.0192329 0)
(-0.297433 0.0224763 0)
(-0.301181 0.0254959 0)
(-0.304446 0.0281785 0)
(-0.306276 0.0304005 0)
(-0.305258 0.0320866 0)
(-0.299624 0.0333242 0)
(-0.287723 0.0344903 0)
(-0.269113 0.0362249 0)
(-0.245966 0.0372473 0)
(-0.212831 0.0265623 0)
(-0.175508 0.00873414 0)
(-0.138525 -0.00111166 0)
(-0.10824 -0.00399816 0)
(-0.0912268 -0.00193077 5.81054e-30)
(-0.0912274 0.00193985 -5.81054e-30)
(-0.108242 0.00400684 0)
(-0.138528 0.00111964 0)
(-0.175512 -0.00872708 0)
(-0.212835 -0.0265561 0)
(-0.245972 -0.0372422 0)
(-0.26912 -0.0362214 0)
(-0.287729 -0.0344881 0)
(-0.29963 -0.0333232 0)
(-0.305264 -0.0320864 0)
(-0.306281 -0.0304009 0)
(-0.304451 -0.0281793 0)
(-0.301185 -0.025497 0)
(-0.297437 -0.0224775 0)
(-0.293779 -0.019234 0)
(-0.290526 -0.0158513 0)
(-0.287833 -0.0123861 0)
(-0.285768 -0.0088742 0)
(-0.284358 -0.00533535 0)
(-0.28362 -0.00177835 0)
(-0.288132 0.00154704 0)
(-0.288855 0.00462814 0)
(-0.290242 0.00768196 0)
(-0.292266 0.0106856 0)
(-0.294887 0.0136113 0)
(-0.298015 0.0164126 0)
(-0.301467 0.0190199 0)
(-0.304897 0.0213321 0)
(-0.307704 0.0232132 0)
(-0.308939 0.0245016 0)
(-0.307267 0.0250432 0)
(-0.30109 0.0247463 0)
(-0.288944 0.0236122 0)
(-0.27022 0.0216297 0)
(-0.246002 0.0183805 0)
(-0.218334 0.0119254 0)
(-0.183516 0.00410279 0)
(-0.148951 -0.000879204 0)
(-0.121396 -0.00235833 0)
(-0.106162 -0.00112199 7.24777e-31)
(-0.106162 0.00112916 -7.24777e-31)
(-0.121397 0.00236526 0)
(-0.148953 0.00088569 0)
(-0.183519 -0.00409692 0)
(-0.218338 -0.0119202 0)
(-0.246006 -0.0183761 0)
(-0.270225 -0.0216263 0)
(-0.288949 -0.0236098 0)
(-0.301095 -0.0247447 0)
(-0.307272 -0.0250423 0)
(-0.308943 -0.0245014 0)
(-0.307708 -0.0232134 0)
(-0.304901 -0.0213325 0)
(-0.301471 -0.0190204 0)
(-0.298018 -0.0164132 0)
(-0.294889 -0.0136118 0)
(-0.292268 -0.0106861 0)
(-0.290244 -0.00768235 0)
(-0.288857 -0.00462836 0)
(-0.288134 -0.00154714 0)
(-0.292063 0.0013216 0)
(-0.292761 0.00394139 0)
(-0.294101 0.00652596 0)
(-0.29605 0.00904042 0)
(-0.29855 0.011449 0)
(-0.30149 0.0136951 0)
(-0.304655 0.0156968 0)
(-0.307658 0.0173391 0)
(-0.309864 0.0184709 0)
(-0.310306 0.0189149 0)
(-0.307673 0.0184993 0)
(-0.300439 0.0171121 0)
(-0.287201 0.0147547 0)
(-0.267231 0.0115502 0)
(-0.241019 0.00769878 0)
(-0.210354 0.00341089 0)
(-0.177022 -0.000413453 0)
(-0.145721 -0.00254909 0)
(-0.121423 -0.00262421 0)
(-0.108159 -0.00107697 0)
(-0.10816 0.00108274 0)
(-0.121424 0.00262982 0)
(-0.145722 0.00255441 0)
(-0.177024 0.000418364 0)
(-0.210357 -0.0034065 0)
(-0.241022 -0.00769499 0)
(-0.267234 -0.0115471 0)
(-0.287204 -0.0147523 0)
(-0.300443 -0.0171103 0)
(-0.307677 -0.018498 0)
(-0.31031 -0.0189141 0)
(-0.309868 -0.0184705 0)
(-0.307662 -0.017339 0)
(-0.304658 -0.0156969 0)
(-0.301493 -0.0136953 0)
(-0.298553 -0.0114492 0)
(-0.296052 -0.00904063 0)
(-0.294103 -0.00652613 0)
(-0.292763 -0.00394154 0)
(-0.292065 -0.00132165 0)
(-0.295427 0.00110803 0)
(-0.29609 0.00329281 0)
(-0.297365 0.00543622 0)
(-0.299209 0.00749394 0)
(-0.301548 0.0094239 0)
(-0.304246 0.0111622 0)
(-0.307054 0.0126197 0)
(-0.309548 0.013676 0)
(-0.311057 0.0141806 0)
(-0.310601 0.0139675 0)
(-0.3069 0.0128934 0)
(-0.298517 0.010898 0)
(-0.284187 0.00807214 0)
(-0.263309 0.00469698 0)
(-0.236438 0.00122758 0)
(-0.205497 -0.00180543 0)
(-0.173462 -0.00382769 0)
(-0.144309 -0.00437891 0)
(-0.1221 -0.00340064 0)
(-0.110095 -0.0012745 0)
(-0.110095 0.00127921 0)
(-0.1221 0.00340525 0)
(-0.14431 0.00438333 0)
(-0.173463 0.00383182 0)
(-0.205499 0.0018092 0)
(-0.23644 -0.00122426 0)
(-0.263311 -0.00469413 0)
(-0.28419 -0.00806981 0)
(-0.29852 -0.0108962 0)
(-0.306903 -0.012892 0)
(-0.310604 -0.0139665 0)
(-0.31106 -0.0141799 0)
(-0.309551 -0.0136756 0)
(-0.307056 -0.0126195 0)
(-0.304249 -0.0111621 0)
(-0.301551 -0.00942387 0)
(-0.299212 -0.00749395 0)
(-0.297368 -0.00543625 0)
(-0.296092 -0.00329285 0)
(-0.295429 -0.00110806 0)
(-0.298255 0.000910999 0)
(-0.298876 0.00269613 0)
(-0.300073 0.00443593 0)
(-0.30179 0.00607947 0)
(-0.303938 0.00758075 0)
(-0.306355 0.00887227 0)
(-0.308763 0.00986303 0)
(-0.310704 0.0104358 0)
(-0.311483 0.0104519 0)
(-0.310121 0.00977162 0)
(-0.305395 0.00829521 0)
(-0.29599 0.00602385 0)
(-0.280826 0.00312159 0)
(-0.259502 -5.60643e-05 0)
(-0.232732 -0.00300274 0)
(-0.202508 -0.00518888 0)
(-0.171868 -0.00619399 0)
(-0.144444 -0.0058083 0)
(-0.123787 -0.00411472 0)
(-0.112692 -0.0014845 1.41785e-30)
(-0.112692 0.00148841 -1.41785e-30)
(-0.123787 0.00411856 0)
(-0.144445 0.00581201 0)
(-0.171869 0.0061975 0)
(-0.202509 0.00519213 0)
(-0.232734 0.00300568 0)
(-0.259504 5.86552e-05 0)
(-0.280828 -0.00311938 0)
(-0.295993 -0.00602202 0)
(-0.305398 -0.00829374 0)
(-0.310124 -0.00977047 0)
(-0.311486 -0.010451 0)
(-0.310707 -0.0104351 0)
(-0.308765 -0.00986259 0)
(-0.306357 -0.00887198 0)
(-0.30394 -0.00758056 0)
(-0.301793 -0.00607934 0)
(-0.300075 -0.00443586 0)
(-0.298879 -0.0026961 0)
(-0.298257 -0.000910998 0)
(-0.30059 0.000733495 0)
(-0.301166 0.00216003 0)
(-0.302274 0.00353945 0)
(-0.303851 0.00481684 0)
(-0.305789 0.00594457 0)
(-0.307906 0.00685469 0)
(-0.309895 0.00745874 0)
(-0.311276 0.00764773 0)
(-0.311339 0.00730064 0)
(-0.309128 0.00630759 0)
(-0.303491 0.0046113 0)
(-0.293254 0.00226199 0)
(-0.277525 -0.000533387 0)
(-0.256096 -0.00340018 0)
(-0.229797 -0.00585248 0)
(-0.200603 -0.00741813 0)
(-0.171406 -0.00776757 0)
(-0.145543 -0.00679171 0)
(-0.126198 -0.00462943 0)
(-0.115851 -0.00164145 0)
(-0.115851 0.00164474 0)
(-0.126198 0.00463268 0)
(-0.145543 0.00679487 0)
(-0.171407 0.00777059 0)
(-0.200603 0.00742096 0)
(-0.229798 0.00585509 0)
(-0.256098 0.00340253 0)
(-0.277527 0.000535454 0)
(-0.293256 -0.00226022 0)
(-0.303494 -0.00460982 0)
(-0.30913 -0.00630639 0)
(-0.311341 -0.00729968 0)
(-0.311278 -0.00764698 0)
(-0.309898 -0.00745817 0)
(-0.307908 -0.00685427 0)
(-0.305791 -0.00594427 0)
(-0.303853 -0.00481662 0)
(-0.302276 -0.00353931 0)
(-0.301168 -0.00215995 0)
(-0.300592 -0.000733474 0)
(-0.302481 0.000576881 0)
(-0.303011 0.0016882 0)
(-0.304026 0.00275246 0)
(-0.305455 0.00371292 0)
(-0.307177 0.00452209 0)
(-0.308988 0.00511382 0)
(-0.310561 0.00540483 0)
(-0.311398 0.00529691 0)
(-0.31079 0.0046879 0)
(-0.307814 0.00349612 0)
(-0.301402 0.00169944 0)
(-0.290519 -0.000617674 0)
(-0.274448 -0.00322828 0)
(-0.25314 -0.00576565 0)
(-0.227498 -0.00778498 0)
(-0.199439 -0.00887516 0)
(-0.171674 -0.00876912 0)
(-0.147263 -0.00740725 0)
(-0.129097 -0.00494855 0)
(-0.119408 -0.00173835 0)
(-0.119408 0.00174115 0)
(-0.129097 0.00495132 0)
(-0.147263 0.00740996 0)
(-0.171674 0.00877173 0)
(-0.19944 0.00887765 0)
(-0.227499 0.00778731 0)
(-0.253141 0.00576778 0)
(-0.274449 0.00323019 0)
(-0.290521 0.000619355 0)
(-0.301404 -0.001698 0)
(-0.307816 -0.0034949 0)
(-0.310792 -0.0046869 0)
(-0.3114 -0.0052961 0)
(-0.310563 -0.00540419 0)
(-0.30899 -0.00511332 0)
(-0.307179 -0.00452171 0)
(-0.305458 -0.00371264 0)
(-0.304028 -0.00275227 0)
(-0.303013 -0.00168809 0)
(-0.302484 -0.000576847 0)
(-0.303983 0.00044112 0)
(-0.304465 0.00128013 0)
(-0.305387 0.00207346 0)
(-0.306668 0.00276412 0)
(-0.308174 0.00330598 0)
(-0.309685 0.00363606 0)
(-0.310857 0.00367751 0)
(-0.311182 0.00334356 0)
(-0.309961 0.00255004 0)
(-0.306313 0.00123968 0)
(-0.299258 -0.000582349 0)
(-0.287892 -0.00280941 0)
(-0.271649 -0.00520875 0)
(-0.25061 -0.00743324 0)