/*--------------------------------*- C++ -*----------------------------------*\
  =========                 |
  \\      /  F ield         | OpenFOAM: The Open Source CFD Toolbox
   \\    /   O peration     | Website:  https://openfoam.org
    \\  /    A nd           | Version:  6
     \\/     M anipulation  |
\*---------------------------------------------------------------------------*/
FoamFile
{
    version     2.0;
    format      ascii;
    class       volVectorField;
    location    "0";
    object      U;
}
// * * * * * * * * * * * * * * * * * * * * * * * * * * * * * * * * * * * * * //

dimensions      [0 1 -1 0 0 0 0];

internalField   nonuniform List<vector> 
11644
(
(1.00008 -0.000273906 0)
(1.00002 -0.00080819 0)
(1.00002 -0.00132884 0)
(1.00002 -0.00185634 0)
(1.00002 -0.00239594 0)
(1.00002 -0.00294096 0)
(1.00002 -0.00348412 0)
(1.00003 -0.00401701 0)
(1.00003 -0.00452653 0)
(1.00003 -0.00499279 0)
(1.00003 -0.00538826 0)
(1.00003 -0.00567747 0)
(1.00003 -0.00581823 0)
(1.00002 -0.005767 0)
(0.999994 -0.00548876 0)
(0.999946 -0.00496521 0)
(0.999882 -0.0041963 0)
(0.999818 -0.00319831 0)
(0.99977 -0.00200725 0)
(0.999744 -0.000684714 5.25758e-30)
(0.999744 0.000684702 -5.25758e-30)
(0.99977 0.00200724 0)
(0.999818 0.0031983 0)
(0.999882 0.0041963 0)
(0.999946 0.00496521 0)
(0.999994 0.00548877 0)
(1.00002 0.00576701 0)
(1.00003 0.00581824 0)
(1.00003 0.00567749 0)
(1.00003 0.00538827 0)
(1.00003 0.0049928 0)
(1.00003 0.00452655 0)
(1.00003 0.00401703 0)
(1.00002 0.00348413 0)
(1.00002 0.00294097 0)
(1.00002 0.00239595 0)
(1.00002 0.00185635 0)
(1.00002 0.00132885 0)
(1.00002 0.000808193 0)
(1.00008 0.000273907 0)
(1.00178 -0.000764735 0)
(1.00173 -0.0022268 0)
(1.00177 -0.0036177 0)
(1.0018 -0.00506361 0)
(1.00181 -0.00658321 0)
(1.00181 -0.00813988 0)
(1.0018 -0.00970175 0)
(1.00176 -0.0112424 0)
(1.00167 -0.0127259 0)
(1.00152 -0.0140993 0)
(1.00129 -0.015291 0)
(1.00094 -0.0162113 0)
(1.00046 -0.0167541 0)
(0.999862 -0.0167975 0)
(0.999187 -0.0162087 0)
(0.998492 -0.014866 0)
(0.997829 -0.0127028 0)
(0.99724 -0.0097484 0)
(0.996784 -0.0061384 0)
(0.99653 -0.0020964 -2.15709e-29)
(0.99653 0.00209639 2.15709e-29)
(0.996784 0.00613839 0)
(0.99724 0.0097484 0)
(0.997829 0.0127028 0)
(0.998492 0.014866 0)
(0.999187 0.0162087 0)
(0.999862 0.0167975 0)
(1.00046 0.0167541 0)
(1.00094 0.0162114 0)
(1.00129 0.0152911 0)
(1.00152 0.0140993 0)
(1.00167 0.0127259 0)
(1.00176 0.0112425 0)
(1.0018 0.0097018 0)
(1.00181 0.00813992 0)
(1.00181 0.00658325 0)
(1.0018 0.00506363 0)
(1.00177 0.00361772 0)
(1.00173 0.00222681 0)
(1.00178 0.000764739 0)
(1.00258 -0.00109427 0)
(1.0027 -0.00322731 0)
(1.00295 -0.00534062 0)
(1.00314 -0.00759654 0)
(1.00326 -0.00999409 0)
(1.00332 -0.0124758 0)
(1.00331 -0.0149995 0)
(1.00323 -0.0175292 0)
(1.00303 -0.0200132 0)
(1.00266 -0.0223713 0)
(1.00207 -0.0244856 0)
(1.00121 -0.0261934 0)
(1.00003 -0.0272863 0)
(0.998511 -0.0275296 0)
(0.996612 -0.0266997 0)
(0.994394 -0.0246176 0)
(0.992048 -0.0211716 0)
(0.989881 -0.0163638 0)
(0.988221 -0.0103677 0)
(0.987323 -0.00355326 -4.42489e-29)
(0.987323 0.00355328 4.42489e-29)
(0.988221 0.0103677 0)
(0.989881 0.0163639 0)
(0.992048 0.0211716 0)
(0.994394 0.0246177 0)
(0.996612 0.0266998 0)
(0.998511 0.0275298 0)
(1.00003 0.0272864 0)
(1.00121 0.0261935 0)
(1.00207 0.0244858 0)
(1.00266 0.0223714 0)
(1.00303 0.0200133 0)
(1.00323 0.0175293 0)
(1.00331 0.0149996 0)
(1.00332 0.0124759 0)
(1.00326 0.00999415 0)
(1.00314 0.00759658 0)
(1.00295 0.00534065 0)
(1.0027 0.00322733 0)
(1.00258 0.00109428 0)
(1.00555 -0.00146119 0)
(1.00579 -0.00440333 0)
(1.00624 -0.00744768 0)
(1.00665 -0.0106855 0)
(1.00695 -0.0140994 0)
(1.00714 -0.0176443 0)
(1.00722 -0.021286 0)
(1.00715 -0.0249864 0)
(1.00686 -0.0286858 0)
(1.00627 -0.032287 0)
(1.00523 -0.0356397 0)
(1.00358 -0.0385273 0)
(1.00118 -0.0406556 0)
(0.997977 -0.0416428 0)
(0.99406 -0.041031 0)
(0.989665 -0.038373 0)
(0.985113 -0.0333813 0)
(0.980864 -0.026015 0)
(0.977502 -0.0165706 0)
(0.975632 -0.00569421 0)
(0.975632 0.00569423 0)
(0.977502 0.0165707 0)
(0.980864 0.0260151 0)
(0.985113 0.0333814 0)
(0.989665 0.0383731 0)
(0.99406 0.0410312 0)
(0.997977 0.041643 0)
(1.00118 0.0406558 0)
(1.00358 0.0385275 0)
(1.00523 0.0356399 0)
(1.00627 0.0322871 0)
(1.00686 0.028686 0)
(1.00715 0.0249866 0)
(1.00722 0.0212861 0)
(1.00714 0.0176444 0)
(1.00695 0.0140995 0)
(1.00665 0.0106856 0)
(1.00624 0.00744772 0)
(1.00579 0.00440336 0)
(1.00555 0.0014612 0)
(1.01129 -0.00207402 0)
(1.01155 -0.00627166 0)
(1.01216 -0.0106039 0)
(1.01279 -0.0151193 0)
(1.01332 -0.0198275 0)
(1.01371 -0.0247234 0)
(1.01394 -0.0297956 0)
(1.01394 -0.0350163 0)
(1.01362 -0.0403285 0)
(1.0128 -0.0456246 0)
(1.01126 -0.0507124 0)
(1.00875 -0.0552844 0)
(1.00503 -0.0588991 0)
(0.999896 -0.0609827 0)
(0.993212 -0.060855 0)
(0.985119 -0.0577855 0)
(0.976303 -0.0510443 0)
(0.967739 -0.0403407 0)
(0.960917 -0.0259655 0)
(0.957116 -0.00897116 -9.71699e-29)
(0.957116 0.00897105 9.71699e-29)
(0.960917 0.0259655 0)
(0.967739 0.0403406 0)
(0.976302 0.0510444 0)
(0.985119 0.0577856 0)
(0.993212 0.0608552 0)
(0.999896 0.0609829 0)
(1.00503 0.0588993 0)
(1.00875 0.0552846 0)
(1.01126 0.0507126 0)
(1.0128 0.0456248 0)
(1.01362 0.0403287 0)
(1.01394 0.0350164 0)
(1.01394 0.0297958 0)
(1.01371 0.0247235 0)
(1.01332 0.0198276 0)
(1.0128 0.0151194 0)
(1.01216 0.0106039 0)
(1.01155 0.00627169 0)
(1.01129 0.00207403 0)
(1.01816 -0.00278834 0)
(1.0185 -0.00840302 0)
(1.01928 -0.014121 0)
(1.02015 -0.0199949 0)
(1.02096 -0.026075 0)
(1.02164 -0.0324017 0)
(1.02215 -0.0389973 0)
(1.02239 -0.0458598 0)
(1.02222 -0.0529602 0)
(1.02136 -0.0602231 0)
(1.01948 -0.0674775 0)
(1.01609 -0.0743879 0)
(1.01063 -0.0803896 0)
(1.00251 -0.084661 0)
(0.991576 -0.0860202 0)
(0.97806 -0.0830125 0)
(0.962722 -0.0748609 0)
(0.947631 -0.0603133 0)
(0.935174 -0.0393623 0)
(0.928 -0.0137075 -2.1092e-28)
(0.928 0.0137071 2.1092e-28)
(0.935174 0.039362 0)
(0.94763 0.0603131 0)
(0.962722 0.0748608 0)
(0.97806 0.0830125 0)
(0.991575 0.0860203 0)
(1.00251 0.0846612 0)
(1.01063 0.0803898 0)
(1.01609 0.074388 0)
(1.01948 0.0674777 0)
(1.02136 0.0602233 0)
(1.02222 0.0529603 0)
(1.02239 0.0458599 0)
(1.02215 0.0389974 0)
(1.02164 0.0324018 0)
(1.02096 0.0260751 0)
(1.02015 0.019995 0)
(1.01928 0.014121 0)
(1.0185 0.00840304 0)
(1.01816 0.00278835 0)
(1.02628 -0.00331438 0)
(1.02677 -0.00998492 0)
(1.02772 -0.016758 0)
(1.02885 -0.0236847 0)
(1.02999 -0.0308477 0)
(1.03107 -0.0383371 0)
(1.03203 -0.0462293 0)
(1.03273 -0.0545802 0)
(1.03294 -0.0634335 0)
(1.03234 -0.0728201 0)
(1.03038 -0.0826999 0)
(1.02628 -0.0928415 0)
(1.01906 -0.102592 0)
(1.00768 -0.110755 0)
(0.992041 -0.116037 0)
(0.971285 -0.116774 0)
(0.956535 -0.10234 0)
(0.932594 -0.0880231 0)
(0.911146 -0.0628863 0)
(0.896591 -0.0287031 -2.79103e-23)
(0.893283 0.0102396 0)
(0.902322 0.0474937 2.5583e-22)
(0.920779 0.077368 0)
(0.943742 0.0974128 0)
(0.971285 0.116774 0)
(0.992041 0.116037 0)
(1.00768 0.110755 0)
(1.01906 0.102592 0)
(1.02628 0.0928417 0)
(1.03038 0.0827 0)
(1.03234 0.0728202 0)
(1.03294 0.0634335 0)
(1.03273 0.0545803 0)
(1.03203 0.0462293 0)
(1.03107 0.0383372 0)
(1.02999 0.0308478 0)
(1.02885 0.0236847 0)
(1.02772 0.0167581 0)
(1.02677 0.00998493 0)
(1.02628 0.00331439 0)
(1.03571 -0.00349807 0)
(1.03637 -0.0105531 0)
(1.0375 -0.0177423 0)
(1.03891 -0.0251144 0)
(1.04047 -0.032781 0)
(1.04212 -0.0408814 0)
(1.04377 -0.0495587 0)
(1.04529 -0.0589494 0)
(1.04641 -0.0691952 0)
(1.04676 -0.0804882 0)
(1.04574 -0.0930466 0)
(1.0424 -0.106918 0)
(1.03549 -0.121773 0)
(1.02136 -0.128607 0)
(1.00434 -0.140135 0)
(0.978983 -0.148614 0)
(0.944205 -0.147816 0)
(0.903318 -0.133508 0)
(0.862185 -0.100491 0)
(0.832631 -0.0477213 3.14961e-23)
(0.825982 0.0162806 0)
(0.845168 0.0763098 -3.14969e-23)
(0.88212 0.119654 0)
(0.924481 0.142526 0)
(0.962041 0.150257 0)
(0.992219 0.145125 0)
(1.01333 0.134521 0)
(1.03549 0.121773 0)
(1.0424 0.106918 0)
(1.04574 0.0930467 0)
(1.04676 0.0804882 0)
(1.04641 0.0691952 0)
(1.04529 0.0589494 0)
(1.04377 0.0495587 0)
(1.04212 0.0408814 0)
(1.04047 0.032781 0)
(1.03891 0.0251144 0)
(1.0375 0.0177423 0)
(1.03637 0.0105531 0)
(1.03571 0.00349807 0)
(1.04535 -0.00332825 0)
(1.04617 -0.0100529 0)
(1.04752 -0.01694 0)
(1.04928 -0.0240513 0)
(1.05138 -0.0315224 0)
(1.0538 -0.0395313 0)
(1.05647 -0.0482865 0)
(1.05928 -0.058021 0)
(1.06202 -0.0690037 0)
(1.06434 -0.081642 0)
(1.06574 -0.0966023 0)
(1.06531 -0.114644 0)
(1.0614 -0.136208 0)
(1.04515 -0.151713 0)
(1.02713 -0.175406 0)
(0.994808 -0.200198 0)
(0.949892 -0.206625 0)
(0.885754 -0.205338 0)
(0.810077 -0.171735 5.38757e-23)
(0.745464 -0.094623 0)
(0.72378 0.0143719 -3.13345e-23)
(0.758363 0.118214 0)
(0.828664 0.184342 -4.08441e-22)
(0.90304 0.208244 0)
(0.962936 0.20415 0)
(1.01314 0.188061 0)
(1.03768 0.163014 0)
(1.0614 0.136209 0)
(1.06531 0.114644 0)
(1.06574 0.0966024 0)
(1.06434 0.081642 0)
(1.06202 0.0690037 0)
(1.05928 0.058021 0)
(1.05647 0.0482865 0)
(1.0538 0.0395312 0)
(1.05138 0.0315224 0)
(1.04928 0.0240513 0)
(1.04752 0.01694 0)
(1.04617 0.0100529 0)
(1.04535 0.00332825 0)
(1.05401 -0.00285754 0)
(1.05502 -0.00863973 0)
(1.05663 -0.0145954 0)
(1.05881 -0.020802 0)
(1.06157 -0.0274085 0)
(1.06493 -0.0346153 0)
(1.06888 -0.0426809 0)
(1.07342 -0.0519332 0)
(1.07847 -0.062778 0)
(1.08389 -0.0758149 0)
(1.08953 -0.0921036 0)
(1.09491 -0.113206 0)
(1.09883 -0.14089 0)
(1.08541 -0.167928 0)
(1.07511 -0.207591 0)
(1.04217 -0.246468 0)
(0.987222 -0.288863 0)
(0.891381 -0.327295 0)
(0.743666 -0.317023 2.40646e-22)
(0.581552 -0.202731 0)
(0.512129 0.0148589 5.21629e-22)
(0.599345 0.223831 6.00466e-22)
(0.764479 0.322949 -2.26105e-22)
(0.906282 0.324082 0)
(1.00454 0.285035 0)
(1.06395 0.232165 0)
(1.08203 0.185847 0)
(1.09883 0.140891 0)
(1.09491 0.113206 0)
(1.08953 0.0921036 0)
(1.08389 0.0758149 0)
(1.07847 0.062778 0)
(1.07342 0.0519332 0)
(1.06888 0.0426809 0)
(1.06493 0.0346152 0)
(1.06157 0.0274084 0)
(1.05881 0.020802 0)
(1.05663 0.0145954 0)
(1.05502 0.00863971 0)
(1.05401 0.00285754 0)
(1.061 -0.00215814 0)
(1.06219 -0.00653336 0)
(1.06408 -0.0110697 0)
(1.06671 -0.0158456 0)
(1.07017 -0.0210044 0)
(1.07453 -0.0267437 0)
(1.07991 -0.0333344 0)
(1.08645 -0.0411507 0)
(1.09433 -0.0506792 0)
(1.10377 -0.0625909 0)
(1.11516 -0.0780381 0)
(1.12892 -0.0989771 0)
(1.1452 -0.12852 0)
(1.14215 -0.166421 0)
(1.15268 -0.218678 0)
(1.13617 -0.286298 0)
(1.09405 -0.37609 1.17786e-23)
(0.976597 -0.486895 -8.64729e-23)
(0.696952 -0.526359 -4.55195e-22)
(0.267714 -0.336322 -1.54406e-20)
(0.0710005 0.0103942 0)
(0.292469 0.35641 -3.40825e-21)
(0.720819 0.528866 4.80785e-22)
(0.998778 0.473897 2.88088e-23)
(1.11448 0.358189 -3.89292e-24)
(1.1541 0.254583 0)
(1.14849 0.189065 0)
(1.14521 0.128521 0)
(1.12892 0.0989772 0)
(1.11516 0.0780381 0)
(1.10377 0.0625908 0)
(1.09433 0.0506791 0)
(1.08645 0.0411506 0)
(1.07991 0.0333343 0)
(1.07453 0.0267436 0)
(1.07017 0.0210043 0)
(1.06671 0.0158455 0)
(1.06408 0.0110696 0)
(1.06219 0.00653333 0)
(1.061 0.00215813 0)
(1.06586 -0.00130086 0)
(1.06719 -0.003945 0)
(1.06932 -0.00670663 0)
(1.07236 -0.00964199 0)
(1.07644 -0.0128615 0)
(1.08172 -0.0165228 0)
(1.08846 -0.0208494 0)
(1.09696 -0.0261673 0)
(1.10769 -0.0329106 0)
(1.12131 -0.0416256 0)
(1.13878 -0.0531578 0)
(1.16144 -0.069085 0)
(1.19108 -0.0927441 0)
(1.20479 -0.134189 0)
(1.24354 -0.18193 0)
(1.26013 -0.256298 0)
(1.24709 -0.345731 -1.9303e-23)
(1.07626 -0.403185 2.09665e-22)
(0.330295 -0.171809 -7.47515e-21)
(0.409052 0.206656 1.75646e-21)
(1.10746 0.394932 3.33527e-23)
(1.26322 0.320414 0)
(1.26284 0.215304 0)
(1.22383 0.154441 0)
(1.19108 0.0927441 0)
(1.16144 0.0690848 0)
(1.13878 0.0531576 0)
(1.12131 0.0416254 0)
(1.10769 0.0329104 0)
(1.09696 0.0261671 0)
(1.08846 0.0208493 0)
(1.08172 0.0165227 0)
(1.07644 0.0128614 0)
(1.07236 0.00964191 0)
(1.06932 0.00670658 0)
(1.06719 0.00394497 0)
(1.06586 0.00130085 0)
(1.06823 -0.000349079 0)
(1.06964 -0.00106338 0)
(1.07191 -0.00181775 0)
(1.0752 -0.0026231 0)
(1.07967 -0.00352804 0)
(1.08558 -0.00460873 0)
(1.09324 -0.00597862 0)
(1.10313 -0.00781351 0)
(1.11592 -0.0103461 0)
(1.13256 -0.013811 0)
(1.15438 -0.0184821 0)
(1.18319 -0.0250108 0)
(1.22142 -0.0355795 0)
(1.25114 -0.0684874 0)
(1.30506 -0.0906134 0)
(1.33486 -0.130471 0)
(1.28397 -0.141836 0)
(0.930418 -0.0650032 3.98194e-22)
(0.0148393 0.00278249 4.63492e-20)
(0.0467859 -0.00759474 -1.89285e-20)
(0.968678 0.0734837 0)
(1.30819 0.132926 0)
(1.32902 0.103574 0)
(1.27772 0.0778632 0)
(1.22142 0.0355786 0)
(1.18319 0.0250101 0)
(1.15438 0.0184815 0)
(1.13256 0.0138106 0)
(1.11592 0.0103458 0)
(1.10313 0.00781325 0)
(1.09324 0.00597841 0)
(1.08558 0.00460858 0)
(1.07967 0.00352792 0)
(1.0752 0.00262301 0)
(1.07191 0.00181769 0)
(1.06964 0.00106335 0)
(1.06823 0.000349067 0)
(1.06791 0.000634089 0)
(1.06931 0.00191967 0)
(1.07157 0.00326648 0)
(1.07485 0.00472241 0)
(1.07936 0.00631874 0)
(1.08536 0.00808522 0)
(1.09322 0.0100529 0)
(1.10346 0.0122485 0)
(1.11679 0.0147168 0)
(1.13422 0.0176052 0)
(1.15709 0.02122 0)
(1.18707 0.0258558 0)
(1.22598 0.0310122 0)
(1.26357 0.0151906 0)
(1.31104 0.0238069 0)
(1.32283 0.0256629 0)
(1.20712 0.0602079 0)
(0.786943 0.118063 6.9351e-24)
(0.212601 0.078277 0)
(0.2444 -0.0850444 1.58634e-21)
(0.856987 -0.113421 0)
(1.24531 -0.0586721 0)
(1.32404 -0.0320634 0)
(1.28851 -0.0191991 0)
(1.22598 -0.0310138 0)
(1.18707 -0.0258569 0)
(1.15709 -0.0212208 0)
(1.13422 -0.0176058 0)
(1.11679 -0.0147172 0)
(1.10346 -0.0122488 0)
(1.09322 -0.0100531 0)
(1.08536 -0.0080854 0)
(1.07936 -0.00631887 0)
(1.07485 -0.00472251 0)
(1.07157 -0.00326654 0)
(1.06931 -0.0019197 0)
(1.06791 -0.000634101 0)
(1.06489 0.00158388 0)
(1.06618 0.00480473 0)
(1.06824 0.00819435 0)
(1.07122 0.0118598 0)
(1.07532 0.0159127 0)
(1.0808 0.0204881 0)
(1.08799 0.0257569 0)
(1.09735 0.0319367 0)
(1.10948 0.0393289 0)
(1.12522 0.0484063 0)
(1.14561 0.0598888 0)
(1.17179 0.0746915 0)
(1.20463 0.0936721 0)
(1.24178 0.0959512 0)
(1.2731 0.127239 0)
(1.2655 0.153775 0)
(1.13564 0.192609 0)
(0.790341 0.20818 -4.40381e-23)
(0.351248 0.142222 3.43898e-24)
(0.0629081 0.0437755 -8.37968e-23)
(-0.0120217 -0.000799973 -2.91446e-23)
(0.086118 -0.0538664 -1.28714e-21)
(0.402162 -0.154516 -7.31442e-22)
(0.843439 -0.210187 4.40389e-23)
(1.17387 -0.190613 0)
(1.27397 -0.147991 0)
(1.25999 -0.110386 0)
(1.20463 -0.0936736 0)
(1.17179 -0.0746926 0)
(1.1456 -0.0598895 0)
(1.12522 -0.0484068 0)
(1.10948 -0.0393292 0)
(1.09735 -0.031937 0)
(1.08799 -0.0257571 0)
(1.0808 -0.0204883 0)
(1.07532 -0.0159128 0)
(1.07122 -0.0118599 0)
(1.06824 -0.0081944 0)
(1.06618 -0.00480476 0)
(1.06489 -0.00158389 0)
(1.05935 0.00243849 0)
(1.06041 0.00740036 0)
(1.06209 0.0126253 0)
(1.06449 0.018267 0)
(1.06779 0.0245004 0)
(1.07219 0.0315409 0)
(1.07793 0.0396592 0)
(1.08534 0.0491994 0)
(1.09484 0.0606211 0)
(1.10696 0.0745781 0)
(1.12232 0.0919717 0)
(1.14154 0.113954 0)
(1.16478 0.142456 0)
(1.19639 0.159488 0)
(1.2117 0.202509 0)
(1.17942 0.25538 0)
(1.07139 0.285584 0)
(0.807251 0.287867 0)
(0.468067 0.222284 2.36785e-23)
(0.195209 0.108968 -8.14747e-23)
(0.109864 -0.0156106 0)
(0.249419 -0.139433 0)
(0.552588 -0.244731 -4.30868e-22)
(0.884679 -0.293277 0)
(1.11619 -0.277203 0)
(1.20559 -0.2283 0)
(1.20703 -0.179557 0)
(1.16478 -0.142456 0)
(1.14153 -0.113955 0)
(1.12232 -0.0919721 0)
(1.10696 -0.0745784 0)
(1.09484 -0.0606214 0)
(1.08534 -0.0491996 0)
(1.07793 -0.0396593 0)
(1.07219 -0.031541 0)
(1.06779 -0.0245005 0)
(1.06449 -0.018267 0)
(1.06209 -0.0126253 0)
(1.06041 -0.00740039 0)
(1.05935 -0.0024385 0)
(1.05161 0.00314797 0)
(1.05238 0.00955193 0)
(1.05352 0.0162856 0)
(1.05515 0.0235304 0)
(1.05736 0.0314987 0)
(1.06028 0.0404506 0)
(1.06406 0.0507069 0)
(1.06889 0.0626649 0)
(1.07499 0.0768344 0)
(1.08256 0.0939142 0)
(1.09179 0.114823 0)
(1.10273 0.140586 0)
(1.11481 0.172513 0)
(1.12478 0.214667 0)
(1.14158 0.246654 0)
(1.11173 0.296398 0)
(1.03158 0.327806 0)
(0.84802 0.327395 0)
(0.599821 0.263834 0)
(0.382717 0.138515 0)
(0.310645 -0.0204125 9.67278e-25)
(0.427393 -0.174387 -6.00699e-23)
(0.66355 -0.286151 0)
(0.902432 -0.332655 0)
(1.07233 -0.31831 0)
(1.13339 -0.271686 0)
(1.12478 -0.214667 0)
(1.11481 -0.172513 0)
(1.10273 -0.140586 0)
(1.09178 -0.114822 0)
(1.08256 -0.0939142 0)
(1.07499 -0.0768345 0)
(1.06889 -0.062665 0)
(1.06406 -0.050707 0)
(1.06028 -0.0404506 0)
(1.05736 -0.0314988 0)
(1.05515 -0.0235305 0)
(1.05352 -0.0162856 0)
(1.05238 -0.00955194 0)
(1.05161 -0.00314798 0)
(1.04215 0.00368109 0)
(1.04256 0.0111634 0)
(1.0431 0.0190087 0)
(1.04383 0.0274066 0)
(1.0448 0.0365807 0)
(1.04606 0.0468012 0)
(1.04768 0.058394 0)
(1.04971 0.0717475 0)
(1.0522 0.0873278 0)
(1.05515 0.105728 0)
(1.0584 0.127685 0)
(1.06166 0.153892 0)
(1.06437 0.184866 0)
(1.06509 0.223093 0)
(1.07567 0.256976 0)
(1.05342 0.298647 0)
(1.00284 0.326889 0)
(0.888106 0.322149 0)
(0.73 0.26126 0)
(0.585861 0.139216 0)
(0.536762 -0.0206372 0)
(0.615987 -0.174657 0)
(0.771232 -0.282487 0)
(0.922047 -0.327808 0)
(1.02822 -0.316074 0)
(1.06846 -0.278159 0)
(1.06509 -0.223092 0)
(1.06437 -0.184865 0)
(1.06166 -0.153892 0)
(1.0584 -0.127685 0)
(1.05515 -0.105728 0)
(1.0522 -0.0873277 0)
(1.04971 -0.0717475 0)
(1.04768 -0.058394 0)
(1.04606 -0.0468012 0)
(1.0448 -0.0365807 0)
(1.04383 -0.0274066 0)
(1.0431 -0.0190087 0)
(1.04255 -0.0111634 0)
(1.04215 -0.00368109 0)
(1.03147 0.00402533 0)
(1.03151 0.0121971 0)
(1.03143 0.0207315 0)
(1.03124 0.0298094 0)
(1.03096 0.0396432 0)
(1.03057 0.0504843 0)
(1.03005 0.062627 0)
(1.02939 0.0764091 0)
(1.02852 0.0922036 0)
(1.02736 0.110425 0)
(1.02571 0.13153 0)
(1.02326 0.155843 0)
(1.01982 0.183216 0)
(1.0156 0.214374 0)
(1.02252 0.244182 0)
(1.01032 0.273811 0)
(0.98608 0.294214 0)
(0.929695 0.283698 0)
(0.849715 0.22759 0)
(0.774035 0.120974 0)
(0.747696 -0.0179316 0)
(0.790059 -0.151797 0)
(0.87088 -0.246499 0)
(0.946481 -0.289995 0)
(0.998199 -0.284822 0)
(1.01808 -0.259595 0)
(1.0156 -0.214372 0)
(1.01982 -0.183215 0)
(1.02326 -0.155843 0)
(1.02571 -0.13153 0)
(1.02736 -0.110425 0)
(1.02852 -0.0922034 0)
(1.02939 -0.0764091 0)
(1.03005 -0.062627 0)
(1.03057 -0.0504843 0)
(1.03096 -0.0396432 0)
(1.03124 -0.0298094 0)
(1.03143 -0.0207315 0)
(1.03151 -0.0121971 0)
(1.03147 -0.00402533 0)
(1.02011 0.00418536 0)
(1.01979 0.0126683 0)
(1.01912 0.0214849 0)
(1.01808 0.0307945 0)
(1.01664 0.0407824 0)
(1.01474 0.0516611 0)
(1.01233 0.0636703 0)
(1.00933 0.0770707 0)
(1.00568 0.0921234 0)
(1.00133 0.109054 0)
(0.996259 0.128011 0)
(0.990524 0.148908 0)
(0.984644 0.171063 0)
(0.980178 0.193813 0)
(0.986104 0.21705 0)
(0.985534 0.233725 0)
(0.983306 0.244482 0)
(0.97245 0.228344 0)
(0.952048 0.179048 0)
(0.92921 0.0939826 0)
(0.920656 -0.0138848 0)
(0.934272 -0.118192 0)
(0.95788 -0.194843 0)
(0.976075 -0.235116 0)
(0.98497 -0.238113 0)
(0.985814 -0.22617 0)
(0.980179 -0.193812 0)
(0.984645 -0.171062 0)
(0.990524 -0.148908 0)
(0.996259 -0.12801 0)
(1.00133 -0.109054 0)
(1.00568 -0.0921233 0)
(1.00933 -0.0770706 0)
(1.01233 -0.0636702 0)
(1.01474 -0.0516611 0)
(1.01664 -0.0407824 0)
(1.01808 -0.0307945 0)
(1.01912 -0.0214849 0)
(1.01979 -0.0126683 0)
(1.02011 -0.00418536 0)
(1.00856 0.00417979 0)
(1.00794 0.0126355 0)
(1.00675 0.0213754 0)
(1.00497 0.0305296 0)
(1.00254 0.0402465 0)
(0.999385 0.0506894 0)
(0.995429 0.0620311 0)
(0.990607 0.0744415 0)
(0.984897 0.0880593 0)
(0.978393 0.102933 0)
(0.97139 0.118936 0)
(0.964553 0.135627 0)
(0.959245 0.151973 0)
(0.957997 0.166299 0)
(0.966028 0.18256 0)
(0.977688 0.188089 0)
(0.993107 0.189921 0)
(1.01456 0.170156 0)
(1.03388 0.129006 0)
(1.04538 0.066321 0)
(1.04828 -0.00972345 2.35226e-33)
(1.04328 -0.0836984 0)
(1.02951 -0.141403 0)
(1.00898 -0.176936 0)
(0.986713 -0.186979 0)
(0.970582 -0.186145 0)
(0.957998 -0.166299 0)
(0.959246 -0.151972 0)
(0.964553 -0.135627 0)
(0.971391 -0.118936 0)
(0.978393 -0.102933 0)
(0.984897 -0.0880593 0)
(0.990607 -0.0744415 0)
(0.995429 -0.062031 0)
(0.999385 -0.0506894 0)
(1.00254 -0.0402465 0)
(1.00497 -0.0305296 0)
(1.00675 -0.0213754 0)
(1.00794 -0.0126355 0)
(1.00856 -0.00417979 0)
(0.997244 0.00403584 0)
(0.99637 0.0121832 0)
(0.994767 0.0205534 0)
(0.992398 0.0292431 0)
(0.989197 0.0383589 0)
(0.985087 0.0480102 0)
(0.98 0.0582982 0)
(0.973913 0.0692978 0)
(0.966913 0.0810222 0)
(0.959302 0.0933562 0)
(0.951773 0.105961 0)
(0.945642 0.118143 0)
(0.943157 0.128677 0)
(0.947792 0.135838 0)
(0.963813 0.13712 0)
(0.982959 0.142991 0)
(1.01961 0.131095 0)
(1.0641 0.109339 0)
(1.10679 0.0766587 0)
(1.1356 0.0348334 0)
(1.14171 -0.0117944 -5.6846e-34)
(1.12326 -0.0567403 0)
(1.08592 -0.0943312 0)
(1.04084 -0.121662 0)
(0.999313 -0.137857 0)
(0.963815 -0.13712 0)
(0.947793 -0.135838 0)
(0.943158 -0.128677 0)
(0.945643 -0.118143 0)
(0.951773 -0.105961 0)
(0.959302 -0.0933562 0)
(0.966913 -0.0810221 0)
(0.973913 -0.0692978 0)
(0.98 -0.0582981 0)
(0.985087 -0.0480102 0)
(0.989197 -0.0383589 0)
(0.992398 -0.0292431 0)
(0.994767 -0.0205534 0)
(0.99637 -0.0121832 0)
(0.997244 -0.00403584 0)
(0.986504 0.00378508 0)
(0.985442 0.011409 0)
(0.983534 0.0191901 0)
(0.980741 0.0271915 0)
(0.977002 0.0354776 0)
(0.972254 0.044104 0)
(0.966467 0.0531032 0)
(0.959696 0.0624621 0)
(0.952171 0.0720815 0)
(0.944456 0.081711 0)
(0.937654 0.0908692 0)
(0.933657 0.0987663 0)
(0.935354 0.104215 0)
(0.946603 0.105699 0)
(0.971319 0.101717 0)
(1.01109 0.091756 0)
(1.06279 0.0767033 0)
(1.11945 0.0573401 0)
(1.16887 0.0353228 0)
(1.19789 0.0119214 8.86062e-34)
(1.19789 -0.0119202 -8.86062e-34)
(1.16887 -0.0353218 0)
(1.11945 -0.0573394 0)
(1.0628 -0.0767029 0)
(1.0111 -0.0917558 0)
(0.97132 -0.101717 0)
(0.946604 -0.105699 0)
(0.935355 -0.104215 0)
(0.933657 -0.0987663 0)
(0.937654 -0.0908692 0)
(0.944456 -0.081711 0)
(0.952171 -0.0720815 0)
(0.959696 -0.0624621 0)
(0.966467 -0.0531032 0)
(0.972254 -0.044104 0)
(0.977002 -0.0354776 0)
(0.980741 -0.0271915 0)
(0.983534 -0.0191901 0)
(0.985442 -0.011409 0)
(0.986504 -0.00378508 0)
(0.976582 0.00346015 0)
(0.975398 0.0104132 0)
(0.973294 0.0174606 0)
(0.970239 0.0246347 0)
(0.966188 0.0319615 0)
(0.961107 0.039449 0)
(0.955025 0.0470707 0)
(0.948095 0.0547421 0)
(0.940713 0.062283 0)
(0.933697 0.0693607 0)
(0.928507 0.075437 0)
(0.927442 0.0797643 0)
(0.933682 0.0814257 0)
(0.950956 0.0794348 0)
(0.982385 0.0731228 0)
(1.02829 0.0627893 0)
(1.0844 0.0496741 0)
(1.14303 0.0351183 0)
(1.19265 0.0205988 0)
(1.22132 0.00674907 9.46164e-35)
(1.22132 -0.00674839 -9.46164e-35)
(1.19265 -0.0205982 0)
(1.14304 -0.0351178 0)
(1.08441 -0.0496737 0)
(1.02829 -0.062789 0)
(0.982386 -0.0731227 0)
(0.950957 -0.0794347 0)
(0.933682 -0.0814256 0)
(0.927442 -0.0797643 0)
(0.928507 -0.075437 0)
(0.933697 -0.0693608 0)
(0.940713 -0.062283 0)
(0.948095 -0.0547422 0)
(0.955025 -0.0470707 0)
(0.961107 -0.039449 0)
(0.966187 -0.0319616 0)
(0.970239 -0.0246347 0)
(0.973294 -0.0174606 0)
(0.975398 -0.0104132 0)
(0.976582 -0.00346016 0)
(0.967635 0.00309151 0)
(0.966388 0.00928869 0)
(0.964187 0.0155254 0)
(0.961014 0.0218076 0)
(0.956848 0.0281296 0)
(0.951698 0.0344614 0)
(0.94566 0.0407317 0)
(0.938996 0.0468057 0)
(0.932261 0.0524549 0)
(0.926484 0.057319 0)
(0.923369 0.060879 0)
(0.925419 0.0625017 0)
(0.935804 0.0615803 0)
(0.957808 0.0576761 0)
(0.993642 0.0507193 0)
(1.04266 0.0413469 0)
(1.10024 0.030786 0)
(1.15839 0.0203711 0)
(1.20638 0.0112259 0)
(1.23369 0.00353341 0)
(1.23369 -0.00353318 0)
(1.20638 -0.0112257 0)
(1.15839 -0.0203708 0)
(1.10025 -0.0307858 0)
(1.04267 -0.0413468 0)
(0.993643 -0.0507192 0)
(0.95781 -0.057676 0)
(0.935805 -0.0615803 0)
(0.925419 -0.0625017 0)
(0.92337 -0.060879 0)
(0.926485 -0.0573191 0)
(0.932261 -0.0524549 0)
(0.938996 -0.0468057 0)
(0.94566 -0.0407317 0)
(0.951698 -0.0344614 0)
(0.956848 -0.0281296 0)
(0.961014 -0.0218076 0)
(0.964187 -0.0155254 0)
(0.966388 -0.00928869 0)
(0.967635 -0.00309151 0)
(0.959741 0.00270531 0)
(0.958481 0.00811502 0)
(0.956265 0.0135198 0)
(0.953094 0.0189052 0)
(0.948974 0.0242418 0)
(0.943962 0.0294723 0)
(0.938227 0.0344962 0)
(0.932138 0.0391501 0)
(0.926392 0.0431853 0)
(0.922176 0.0462511 0)
(0.921323 0.0478934 0)
(0.926362 0.047619 0)
(0.940277 0.045063 0)
(0.965833 0.0401652 0)
(1.00445 0.0332662 0)
(1.05484 0.0251982 0)
(1.11217 0.0170972 0)
(1.16857 0.010085 0)
(1.2142 0.00490006 0)
(1.23982 0.0014052 0)
(1.23982 -0.0014053 0)
(1.2142 -0.00490014 0)
(1.16857 -0.0100851 0)
(1.11217 -0.0170972 0)
(1.05484 -0.0251982 0)
(1.00446 -0.0332662 0)
(0.965835 -0.0401652 0)
(0.940278 -0.0450631 0)
(0.926363 -0.047619 0)
(0.921324 -0.0478935 0)
(0.922176 -0.0462512 0)
(0.926392 -0.0431854 0)
(0.932138 -0.0391501 0)
(0.938227 -0.0344963 0)
(0.943962 -0.0294723 0)
(0.948974 -0.0242418 0)
(0.953093 -0.0189053 0)
(0.956265 -0.0135198 0)
(0.958481 -0.00811504 0)
(0.959741 -0.00270532 0)
(0.952915 0.00232229 0)
(0.951679 0.00695464 0)
(0.949511 0.0115489 0)
(0.946431 0.016076 0)
(0.942476 0.0204903 0)
(0.937751 0.0247179 0)
(0.932495 0.028643 0)
(0.927174 0.0320919 0)
(0.9226 0.0348188 0)
(0.920071 0.0365032 0)
(0.921464 0.0367719 0)
(0.929216 0.0352709 0)
(0.94602 0.0318156 0)
(0.974145 0.0265576 0)
(1.01441 0.0200482 0)
(1.06507 0.0132103 0)
(1.12122 0.00711413 0)
(1.17528 0.00269837 0)
(1.21829 0.000412784 0)
(1.2422 -9.36923e-05 1.40741e-34)
(1.2422 9.33885e-05 -1.40741e-34)
(1.2183 -0.00041306 0)
(1.17528 -0.0026986 0)
(1.12122 -0.00711432 0)
(1.06507 -0.0132104 0)
(1.01441 -0.0200483 0)
(0.974147 -0.0265577 0)
(0.946021 -0.0318156 0)
(0.929216 -0.0352709 0)
(0.921464 -0.036772 0)
(0.920071 -0.0365033 0)
(0.9226 -0.0348189 0)
(0.927174 -0.032092 0)
(0.932495 -0.028643 0)
(0.937751 -0.0247179 0)
(0.942476 -0.0204903 0)
(0.946431 -0.016076 0)
(0.949511 -0.0115489 0)
(0.951679 -0.00695465 0)
(0.952914 -0.00232229 0)
(0.947119 0.00195723 0)
(0.945935 0.00585166 0)
(0.94386 0.00968509 0)
(0.940933 0.0134189 0)
(0.937222 0.0169976 0)
(0.932876 0.0203385 0)
(0.9282 0.0233205 0)
(0.923739 0.0257723 0)
(0.920394 0.0274648 0)
(0.919525 0.0281185 0)
(0.923001 0.0274382 0)
(0.9331 0.0251886 0)
(0.952177 0.0213208 0)
(0.982024 0.0161058 0)
(1.02297 0.0101789 0)
(1.07298 0.00447239 0)
(1.12721 -1.46516e-05 0)
(1.17852 -0.00249216 0)
(1.21881 -0.00270478 0)
(1.24102 -0.00112872 0)
(1.24102 0.0011283 0)
(1.21881 0.00270439 0)
(1.17852 0.00249181 0)
(1.12721 1.43632e-05 0)
(1.07298 -0.00447261 0)
(1.02297 -0.0101791 0)
(0.982025 -0.0161059 0)
(0.952178 -0.0213209 0)
(0.9331 -0.0251887 0)
(0.923001 -0.0274383 0)
(0.919525 -0.0281186 0)
(0.920394 -0.0274649 0)
(0.923738 -0.0257724 0)
(0.928199 -0.0233205 0)
(0.932876 -0.0203386 0)
(0.937221 -0.0169977 0)
(0.940933 -0.0134189 0)
(0.94386 -0.00968511 0)
(0.945935 -0.00585167 0)
(0.947119 -0.00195723 0)
(0.942287 0.00161959 0)
(0.941173 0.00483387 0)
(0.93922 0.00797272 0)
(0.936485 0.0109917 0)
(0.933064 0.0138301 0)
(0.92915 0.0164018 0)
(0.925101 0.0185863 0)
(0.921528 0.0202215 0)
(0.919393 0.0211017 0)
(0.920085 0.0209912 0)
(0.925421 0.0196649 0)
(0.937498 0.0169818 0)
(0.958333 0.0129908 0)
(0.989267 0.008033 0)
(1.03021 0.00277005 0)
(1.07892 -0.00189899 0)
(1.13072 -0.00506239 0)
(1.17899 -0.00606929 0)
(1.2165 -0.00480692 0)
(1.23704 -0.00181785 0)
(1.23704 0.00181737 0)
(1.2165 0.00480647 0)
(1.17899 0.00606888 0)
(1.13072 0.00506205 0)
(1.07892 0.00189873 0)
(1.03021 -0.00277024 0)
(0.989269 -0.00803314 0)
(0.958334 -0.0129909 0)
(0.937498 -0.0169819 0)
(0.925421 -0.019665 0)
(0.920085 -0.0209913 0)
(0.919393 -0.0211018 0)
(0.921528 -0.0202216 0)
(0.925101 -0.0185863 0)
(0.92915 -0.0164018 0)
(0.933064 -0.0138302 0)
(0.936485 -0.0109918 0)
(0.93922 -0.00797274 0)
(0.941173 -0.00483388 0)
(0.942287 -0.0016196 0)
(0.938334 0.00131469 0)
(0.937299 0.00391656 0)
(0.935485 0.00643509 0)
(0.932964 0.00882286 0)
(0.92986 0.011017 0)
(0.926401 0.0129314 0)
(0.922994 0.0144501 0)
(0.9203 0.0154234 0)
(0.91932 0.0156709 0)
(0.921441 0.0150001 0)
(0.928406 0.0132481 0)
(0.942122 0.0103498 0)
(0.964291 0.00642403 0)
(0.995859 0.00185026 0)
(1.03638 -0.00271936 0)
(1.08346 -0.00644797 0)
(1.13264 -0.00852593 0)
(1.17787 -0.00842989 0)
(1.21267 -0.00614894 0)
(1.23162 -0.00224915 0)
(1.23162 0.00224864 0)
(1.21267 0.00614846 0)
(1.17787 0.00842946 0)
(1.13264 0.00852557 0)
(1.08346 0.00644769 0)
(1.03638 0.00271915 0)
(0.99586 -0.00185041 0)
(0.964292 -0.00642414 0)
(0.942122 -0.0103499 0)
(0.928406 -0.0132482 0)
(0.921442 -0.0150002 0)
(0.91932 -0.015671 0)
(0.9203 -0.0154235 0)
(0.922994 -0.0144502 0)
(0.926401 -0.0129314 0)
(0.929859 -0.011017 0)
(0.932964 -0.00882289 0)
(0.935485 -0.00643511 0)
(0.937298 -0.00391657 0)
(0.938333 -0.0013147 0)
(0.935163 0.00104477 0)
(0.934212 0.00310584 0)
(0.932546 0.00508054 0)
(0.930249 0.00692035 0)
(0.927471 0.0085625 0)
(0.924473 0.00992329 0)
(0.9217 0.0108935 0)
(0.919851 0.0113374 0)
(0.919945 0.0111001 0)
(0.92335 0.0100289 0)
(0.931711 0.00801578 0)
(0.946747 0.00505701 0)
(0.969874 0.00132279 0)
(1.0017 -0.00279078 0)
(1.04151 -0.00666512 0)
(1.08682 -0.00954829 0)
(1.13339 -0.0107449 0)
(1.17571 -0.00984536 0)
(1.20801 -0.00690601 0)
(1.22551 -0.00248318 0)
(1.22551 0.00248268 0)
(1.20801 0.00690554 0)
(1.17571 0.00984494 0)
(1.1334 0.0107445 0)
(1.08682 0.00954801 0)
(1.04151 0.00666492 0)
(1.00171 0.00279063 0)
(0.969875 -0.0013229 0)
(0.946747 -0.0050571 0)
(0.931711 -0.00801586 0)
(0.92335 -0.010029 0)
(0.919945 -0.0111001 0)
(0.919851 -0.0113375 0)
(0.9217 -0.0108936 0)
(0.924473 -0.00992334 0)
(0.92747 -0.00856254 0)
(0.930249 -0.00692038 0)
(0.932545 -0.00508056 0)
(0.934212 -0.00310585 0)
(0.935163 -0.00104477 0)
(0.932678 0.000809794 0)
(0.931812 0.00240116 0)
(0.930294 0.00390653 0)
(0.928223 0.00527768 0)
(0.925769 0.00645341 0)
(0.923223 0.00735392 0)
(0.92106 0.00787796 0)
(0.920005 0.00790448 0)
(0.921081 0.00730279 0)
(0.925614 0.00595625 0)
(0.935146 0.00380246 0)
(0.951208 0.000886338 0)
(0.974962 -0.0025864 0)
(1.00674 -0.00621741 0)
(1.04561 -0.0094339 0)
(1.08908 -0.0115772 0)
(1.13313 -0.0120669 0)
(1.17274 -0.0105931 0)
(1.20276 -0.0072553 0)
(1.21895 -0.00258063 0)
(1.21895 0.00258015 0)
(1.20276 0.00725485 0)
(1.17274 0.0105927 0)
(1.13313 0.0120666 0)
(1.08908 0.0115769 0)
(1.04562 0.00943371 0)
(1.00674 0.00621728 0)
(0.974963 0.0025863 0)
(0.951209 -0.000886417 0)