/*--------------------------------*- C++ -*----------------------------------*\
  =========                 |
  \\      /  F ield         | OpenFOAM: The Open Source CFD Toolbox
   \\    /   O peration     | Website:  https://openfoam.org
    \\  /    A nd           | Version:  6
     \\/     M anipulation  |
\*---------------------------------------------------------------------------*/
FoamFile
{
    version     2.0;
    format      ascii;
    class       volVectorField;
    location    "0";
    object      U;
}
// * * * * * * * * * * * * * * * * * * * * * * * * * * * * * * * * * * * * * //

dimensions      [0 1 -1 0 0 0 0];

internalField   nonuniform List<vector> 
13046
(
(-0.391887 0.141459 0)
(-0.693615 -0.302609 -4.5373e-21)
(-0.165194 -0.169691 -9.18444e-21)
(-0.370094 0.0369745 0)
(-0.0983181 -0.0877955 -8.66427e-21)
(-0.575668 -0.30649 0)
(-0.424129 0.0667732 1.38391e-21)
(-0.65787 -0.35714 2.24971e-21)
(-0.0644797 -0.0732409 -9.35329e-21)
(-1.2177 0.546617 3.09983e-21)
(-1.466 -0.702369 0)
(0.0841475 -0.0164439 5.42543e-21)
(-0.560586 0.200741 -4.39678e-21)
(-0.872957 -0.408934 -6.57993e-21)
(-0.0603074 -0.121262 4.85173e-21)
(-1.13856 0.605843 -4.40309e-21)
(0.0305327 -0.0365874 1.29061e-20)
(-1.51634 -0.601904 1.38151e-21)
(-0.154291 -0.00752748 0)
(-0.397554 -0.260476 -4.77004e-21)
(-0.408925 -0.089862 1.44715e-20)
(-1.15479 0.596374 -1.73179e-21)
(0.0464481 -0.0293021 -1.72514e-20)
(-1.50791 -0.624329 0)
(-0.311896 0.050903 5.70049e-21)
(-0.549837 -0.253345 -1.12498e-20)
(-0.168585 -0.14936 0)
(-0.576615 0.238031 -7.89567e-21)
(-0.910063 -0.406249 1.95607e-21)
(-0.0774857 -0.136549 -8.52485e-21)
(-0.405345 0.167376 0)
(-0.725653 -0.287799 0)
(-0.189625 -0.191665 9.34696e-21)
(-0.272655 0.0143201 -6.62281e-21)
(-0.195614 -0.151731 3.25844e-21)
(-0.473159 -0.213531 1.96083e-20)
(-0.27604 -0.013669 -1.01831e-20)
(-0.190411 -0.127843 5.03306e-21)
(-0.43459 -0.207571 -9.99372e-21)
(-0.299028 0.160482 6.89151e-21)
(-0.431234 -0.353184 1.64421e-21)
(-0.67138 -0.168547 -7.02642e-21)
(-0.293511 -0.094791 4.58797e-21)
(-0.225204 -0.0987274 7.68663e-21)
(-0.312681 -0.159921 0)
(-0.321608 -0.0845037 2.99672e-21)
(-0.184074 -0.070284 -1.18506e-20)
(-0.34538 -0.193184 -1.46627e-21)
(-0.418708 0.135609 0)
(-0.715905 -0.329937 -3.19613e-22)
(-0.11658 -0.143303 -8.26704e-23)
(-0.702756 -0.54647 9.94169e-21)
(-0.246685 0.170567 0)
(-0.737873 -0.0628986 -8.26918e-21)
(-0.795114 -0.605525 -1.41786e-20)
(-0.753438 -0.028499 -1.33052e-20)
(-0.20559 0.14589 1.0135e-20)
(-1.32218 -0.408814 -1.20048e-21)
(-0.878453 0.536664 0)
(-0.189545 -0.209255 7.19673e-21)
(-0.808216 0.235486 -4.19728e-21)
(-1.09542 -0.625629 3.48998e-21)
(0.0553336 -0.026458 -2.02243e-20)
(0.079025 -0.0409246 1.01035e-20)
(-1.42353 -0.681036 -1.50678e-21)
(-1.11544 0.481233 -5.89805e-21)
(-0.819348 0.518596 0)
(-1.25718 -0.355625 0)
(-0.25503 -0.265074 0)
(-0.766156 0.484418 -2.91397e-21)
(-1.20098 -0.336601 0)
(-0.276555 -0.281998 5.74229e-21)
(-1.37748 -0.420493 0)
(-0.929204 0.567127 7.13107e-23)
(-0.169523 -0.197635 -5.85381e-23)
(-0.166395 0.0173525 0)
(-0.397191 -0.277272 5.10717e-21)
(-0.451962 -0.115305 -1.0247e-20)
(-0.090933 -0.132358 7.85811e-21)
(-1.00195 0.591152 -8.53719e-21)
(-1.44053 -0.482346 0)
(-0.347063 0.0641822 3.02708e-21)
(-0.588628 -0.281726 0)
(-0.131583 -0.123675 0)
(0.0799905 -0.0352251 -9.00243e-21)
(-1.45051 -0.686672 -9.28571e-22)
(-1.15248 0.507323 3.46845e-21)
(-1.15653 0.384499 -6.24144e-21)
(0.0998508 -0.0278211 0)
(-1.37466 -0.786393 -1.2209e-21)
(0.0513426 -0.0149622 0)
(-1.24025 0.300699 0)
(-1.3448 -0.898076 1.32987e-22)
(-0.850493 0.366995 0)
(-0.910046 0.383466 3.60771e-21)
(-1.20379 -0.554374 6.53672e-21)
(-1.25257 -0.596286 -3.03129e-21)
(0.0126582 -0.0888784 -4.22668e-21)
(0.0405107 -0.0700987 1.09041e-20)
(0.0932674 -0.0241409 -5.17119e-22)
(-1.14432 0.355148 6.1073e-21)
(-1.34963 -0.805574 0)
(-0.332378 -0.0546676 -1.34563e-23)
(-0.15339 -0.069041 6.11169e-21)
(-0.405541 -0.231596 0)
(-0.106899 0.0826998 0)
(-0.65096 0.0096386 -4.21772e-21)
(-0.763989 -0.535401 0)
(-0.231078 0.148759 1.16914e-20)
(-0.61408 -0.468133 0)
(-0.673436 -0.0916478 -1.60922e-20)
(-1.16995 0.548013 0)
(0.0659379 -0.0028137 0)
(-1.33171 -0.6664 9.13639e-22)
(-0.494259 0.168125 1.21357e-20)
(-0.807657 -0.374694 2.91405e-21)
(-0.0740681 -0.12011 8.96251e-21)
(-0.926921 0.451357 4.59549e-21)
(-0.863375 0.406662 -8.69845e-21)
(-1.30287 -0.546931 -5.47266e-21)
(-0.0119899 -0.0990869 4.82947e-21)
(-1.23336 -0.527802 3.09908e-21)
(-0.0164602 -0.104733 -4.51109e-21)
(-1.21131 0.561912 -2.09348e-21)
(-1.45743 -0.689449 -1.89743e-22)
(0.0786183 -0.010885 -2.41982e-21)
(-0.723654 0.312025 0)
(-1.071 -0.483804 -4.73435e-21)
(-0.0334247 -0.119665 1.02122e-20)
(-0.349867 0.183458 0)
(-0.370213 -0.317635 -8.34758e-21)
(-0.712385 -0.20631 4.05369e-22)
(0.041718 -0.00617098 0)
(-1.1876 0.275385 0)
(-1.32218 -0.882527 0)
(-1.01783 0.399694 0)
(-1.32592 -0.675048 -7.39615e-21)
(0.08053 -0.0455882 -1.16036e-20)
(-0.464766 0.197547 0)
(-0.79295 -0.32102 0)
(-0.171454 -0.194 0)
(-0.583945 0.108171 0)
(-0.832026 -0.494285 0)
(-0.00550205 -0.0203924 0)
(-0.207724 0.141494 0)
(-0.679705 -0.510635 0)
(-0.685016 -0.0622983 8.7153e-21)
(-0.104199 0.0700726 -1.18727e-21)
(-0.620854 0.00181846 -9.22486e-21)
(-0.740378 -0.50991 9.2277e-21)
(-0.859012 0.264246 9.54162e-21)
(-1.14477 -0.643336 0)
(0.0664039 -0.0351357 2.62373e-20)
(-0.0700216 0.015589 0)
(-0.515737 0.00699009 9.92906e-21)
(-0.655503 -0.424487 -2.39451e-21)
(-0.949921 -0.682963 0)
(-0.795976 0.0619678 9.52816e-21)
(-1.02436 -0.71448 0)
(-0.836605 0.107422 5.49335e-21)
(-0.103511 0.090279 0)
(-0.0568437 0.0628457 0)
(-0.620562 0.0691022 1.28255e-21)
(-0.821062 -0.530703 4.78786e-21)
(-0.0277792 0.0166541 -5.15083e-21)
(-1.24014 0.525709 -3.17811e-21)
(0.0918072 -0.0201579 0)
(-1.44217 -0.730311 -1.25963e-21)
(-1.19063 0.557365 -1.63242e-21)
(0.0707133 -0.00288968 -1.10821e-21)
(-1.39186 -0.673563 0)
(-1.04165 0.428283 -5.1304e-21)
(-1.35351 -0.671139 0)
(0.0772434 -0.047486 1.31835e-20)
(-0.457821 0.269561 0)
(-0.848773 -0.226942 2.1178e-21)
(-0.401902 -0.357533 4.7501e-21)
(-0.593464 0.0444112 8.36307e-21)
(-0.0510889 0.0340192 2.51017e-21)
(-0.768049 -0.498075 0)
(0.100612 -0.0273867 0)
(-1.42852 -0.781532 0)
(-1.25587 0.472464 2.55977e-21)
(-0.402022 0.236004 0)
(-0.788137 -0.202667 -4.70515e-21)
(-0.417743 -0.353563 1.24821e-21)
(-0.0685963 0.030716 0)
(-0.539139 0.00822676 0)
(-0.673386 -0.444906 0)
(-0.536476 0.0784446 4.13622e-21)
(-0.772721 -0.461352 0)
(-0.0178154 -0.0252171 0)
(-0.953417 -0.471101 1.03901e-23)
(-0.0127657 -0.0927785 -6.07312e-21)
(-0.67323 0.277966 1.24886e-20)
(-1.01871 -0.46297 0)
(-0.0370951 -0.116662 -1.27941e-20)
(-1.18156 0.452374 -6.17206e-21)
(0.10104 -0.0307209 8.20057e-21)
(-1.42471 -0.752451 -4.85331e-21)
(0.0658474 -0.0107467 7.55093e-21)
(-1.13786 0.296193 3.91677e-21)
(-1.31728 -0.842722 6.27357e-21)
(-1.22681 0.351926 -9.96559e-21)
(-1.37438 -0.846601 0)
(0.0853046 -0.0246532 -7.41259e-21)
(-0.747557 -0.602141 -5.00004e-22)
(-0.827277 -0.0709891 3.65812e-21)
(-0.319917 0.230594 0)
(-0.525076 0.132727 -1.85943e-20)
(-0.985167 0.603655 4.4375e-21)
(-0.120013 -0.150962 -4.83456e-21)
(-1.4412 -0.468378 0)
(-1.38782 -0.845729 0)
(-1.25692 0.386369 -8.34999e-21)
(0.0920703 -0.0292931 0)
(-0.314094 -0.0180924 -1.49971e-20)
(-0.148247 -0.0933791 -4.94353e-21)
(-0.453235 -0.240655 1.46064e-20)
(-0.546856 0.244429 0)
(-0.88927 -0.377738 -2.86659e-22)
(-0.122916 -0.163001 -4.90859e-21)
(0.0493728 -0.00459922 5.82126e-21)
(-1.14577 0.278394 0)
(-1.3071 -0.862361 -7.2322e-21)
(-0.577673 0.164658 1.48634e-20)
(-0.930242 -0.478759 1.17366e-20)
(-0.00333213 -0.0799508 0)
(0.0859211 -0.0172865 0)
(-1.38797 -0.727314 -4.18816e-23)
(-1.24695 0.526965 0)
(-0.270419 0.196549 0)
(-0.816393 -0.0434126 0)
(-0.803533 -0.642481 0)
(-1.17833 0.335951 8.73916e-21)
(-1.35534 -0.828498 0)
(0.0850107 -0.0217784 -4.32007e-23)
(-0.721869 0.0888178 3.64399e-21)
(-0.92362 -0.621242 -3.49677e-21)
(-0.0325519 0.0403243 0)
(-0.723097 0.335784 0)
(-1.08171 -0.465074 4.44228e-21)
(-0.0615788 -0.134983 8.02233e-21)
(-1.21771 -0.867687 -1.03294e-20)
(-1.06426 0.179625 -7.16769e-21)
(-0.0313328 0.0430524 4.58366e-21)
(-0.900061 0.122821 0)
(-1.08304 -0.762046 -4.4762e-21)
(-0.0581496 0.0628545 -1.68667e-22)
(0.083644 -0.0214718 -7.18048e-21)
(-1.35833 -0.735631 0)
(-1.25822 0.510303 -1.31457e-21)
(-0.32016 0.201105 6.28358e-21)
(-0.547726 -0.438283 -5.95058e-21)
(-0.738403 -0.141521 6.84646e-22)
(-1.08458 0.584436 1.37023e-21)
(0.0507995 0.0153198 -1.0374e-20)
(-1.34615 -0.583928 0)
(-0.127697 -0.0313468 -2.92332e-21)
(-0.38517 -0.0582688 -1.16895e-20)
(-0.442588 -0.274821 1.42959e-20)
(-0.7258 0.142476 4.31342e-21)
(-0.692374 0.0983771 3.19162e-23)
(-0.971927 -0.605715 -8.66367e-21)
(-0.9066 -0.593576 0)
(-0.0159725 0.0240681 4.68215e-21)
(0.0181991 0.00180688 -4.80793e-21)
(-0.0603264 -0.105473 -1.02859e-20)
(-1.04043 0.60416 4.59497e-21)
(-1.48141 -0.502084 -4.28501e-21)
(-0.66979 0.322671 0)
(-1.03222 -0.421396 0)
(-0.109614 -0.162602 -1.05238e-20)
(-0.959037 0.161097 -1.92699e-21)
(-1.1418 -0.799613 0)
(-0.0287046 0.0455671 0)
(-0.978242 0.431793 -4.41855e-21)
(-1.32061 -0.607419 0)
(0.0425932 -0.0683836 4.74915e-21)
(-0.259054 -0.0747394 3.05236e-21)
(-0.327878 -0.144729 4.47763e-21)
(-0.244829 -0.125068 -1.52927e-21)
(-0.807483 0.125538 -6.99361e-21)
(-1.01927 -0.685865 0)
(-0.0205714 0.0404043 -7.90827e-21)
(-0.686451 0.347331 0)
(-1.05976 -0.41243 5.56965e-21)
(-0.130055 -0.177589 -6.65169e-21)
(-0.608513 0.199847 0)
(-0.667665 0.229838 1.47313e-21)
(-0.338312 0.21736 2.25676e-21)
(-0.5687 -0.460398 1.71944e-20)
(-0.764321 -0.134343 -1.62988e-20)
(-0.851122 0.163226 -7.15397e-21)
(-1.07318 -0.707709 6.99737e-21)
(0.0117378 0.0211901 7.21643e-21)
(-1.02014 0.444139 0)
(0.0593248 -0.057256 -1.68558e-20)
(-1.35847 -0.637416 -3.34381e-21)
(-0.226179 0.132387 -1.62002e-20)
(-0.570854 -0.440576 0)
(-0.64665 -0.0963591 5.39898e-21)
(-0.134552 0.111575 -9.31169e-21)
(-0.82234 0.0510093 -5.43187e-21)
(-0.955305 -0.71007 0)
(-0.84565 0.443074 -4.41814e-21)
(-1.24082 -0.467344 -4.52876e-21)
(-0.0906702 -0.148016 2.96665e-21)
(-0.294575 0.201187 8.10513e-22)
(-0.665115 -0.526447 0)
(-0.76375 -0.0873007 1.14419e-20)
(-0.897682 0.476391 0)
(-0.93381 0.482934 0)
(-1.30043 -0.491913 -2.68001e-21)
(-0.0738037 -0.135153 -7.74719e-21)
(-1.32752 -0.528899 3.79276e-21)
(-0.0379786 -0.11023 8.2025e-21)
(0.10038 -0.0268361 -6.30287e-21)
(-1.43729 -0.76098 0)
(-1.23286 0.486252 -4.06066e-21)
(-0.806336 0.386824 5.17882e-21)
(-1.17752 -0.494165 0)
(-0.0485459 -0.124723 2.71846e-21)
(-1.17269 -0.606045 -4.62371e-21)
(0.0440842 0.00419385 9.10683e-21)
(-1.05034 0.528978 1.041e-21)
(-0.470583 -0.0344419 -5.47531e-21)
(-0.0985435 0.0135144 0)
(-0.55671 -0.36287 0)
(-0.737684 0.210035 1.0014e-20)
(-1.03085 -0.578443 0)
(0.0441986 -0.0358247 1.56461e-20)
(0.0963792 -0.0348948 -5.22012e-21)
(-1.13282 0.439861 1.28055e-20)
(-1.40153 -0.725948 4.19589e-21)
(-0.82934 -0.635403 0)
(-0.780373 -0.0185668 4.87084e-21)
(-0.208309 0.15819 -1.14874e-20)
(-1.25015 -0.871126 -1.18024e-20)
(-1.09562 0.214904 -4.29611e-21)
(0.00160805 0.0213063 0)
(-0.832318 -0.433538 -1.23139e-20)
(-0.0230598 -0.0769642 0)
(-0.783895 0.276408 1.05758e-20)
(-1.08964 -0.562392 3.95908e-21)
(0.0385265 -0.0670829 4.73927e-21)
(-0.820723 -0.453324 7.12527e-21)
(-0.0105585 -0.059936 -3.5405e-23)
(-1.11741 0.58866 -2.93157e-22)
(0.0198738 -0.0498633 6.09865e-21)
(-1.50102 -0.588652 -2.03248e-21)
(-0.728595 -0.612893 0)
(-0.870381 -0.091181 1.12863e-21)
(-0.370605 0.264855 0)
(-0.837383 0.306233 -1.07774e-20)
(-1.15911 -0.59151 -4.82353e-21)
(0.0524104 -0.0591628 -5.68716e-21)
(-0.609988 0.102068 0)
(-0.840908 -0.521529 -6.95245e-21)
(-0.00702099 -0.00519366 0)
(-0.673245 -0.0199384 0)
(-0.735645 -0.544151 0)
(-0.156113 0.108715 0)
(-0.396777 0.101926 -4.18853e-21)
(-0.662796 -0.319578 -6.99405e-21)
(-0.111016 -0.127043 -1.21234e-23)
(-0.174081 0.138705 1.15365e-20)
(-0.812123 0.0203361 1.31545e-20)
(-0.908084 -0.686027 6.74437e-21)
(-1.20348 0.417815 -5.03082e-21)
(-1.40331 -0.783694 4.02597e-21)
(0.103095 -0.0292089 -7.76645e-21)
(-1.26011 -0.849198 8.10388e-21)
(-1.08171 0.232409 4.35471e-21)
(0.0248928 0.011619 5.89437e-21)
(-0.656789 0.423275 -8.94668e-21)
(-0.373126 -0.349638 8.61779e-21)
(-1.09255 -0.276973 -6.66936e-21)
(-0.969984 0.545923 2.51478e-21)
(-0.925462 0.517002 -2.34858e-21)
(-1.34342 -0.473723 -8.52771e-22)
(-1.39078 -0.490232 0)
(-0.081498 -0.130839 -2.79158e-21)
(-0.100068 -0.148823 -2.50744e-21)
(0.0491813 0.00838837 -1.23379e-20)
(-1.22729 -0.599661 5.09469e-21)
(-1.06802 0.5377 1.05808e-21)
(-1.10241 0.593997 -1.1207e-22)
(0.05248 0.0143831 1.43515e-20)
(-1.39015 -0.587764 0)
(-0.785194 0.172365 -1.60011e-20)
(-1.04219 -0.641156 -1.84362e-21)
(0.0286766 0.00125921 0)
(0.0994269 -0.0288566 -1.57823e-20)
(-1.20123 0.474806 4.04064e-21)
(-1.44089 -0.745543 0)
(-0.766781 0.45138 1.29853e-20)
(-0.816924 0.470978 -9.66128e-21)
(-1.1834 -0.381745 5.04655e-21)
(-1.23106 -0.411996 1.86377e-21)
(-0.215341 -0.233101 -4.96037e-21)
(-0.169407 -0.198761 -2.48364e-21)
(0.0858877 -0.0373105 0)
(-1.36869 -0.855343 0)
(-1.31728 0.385939 1.34054e-21)
(-1.01797 0.578527 -1.60856e-21)
(0.0447606 0.0214713 0)
(-1.29927 -0.550511 0)
(-0.398866 -0.130821 2.2919e-23)
(-0.194826 -0.0137171 6.53849e-21)
(-0.309318 -0.208469 3.18486e-21)
(-1.1128 0.556148 -2.11272e-21)
(-1.31342 -0.630161 -1.33639e-21)
(0.0568762 0.00649991 6.74881e-22)
(-0.527041 0.297242 0)
(-0.90841 -0.277702 -9.4339e-21)
(-0.317539 -0.300617 -8.62061e-23)
(-1.26013 0.4557 1.54385e-22)
(-1.41886 -0.79878 4.28644e-21)
(0.102008 -0.0289928 8.27783e-24)
(-1.03502 -0.607654 -1.25926e-22)
(0.0376665 -0.00976224 -5.28193e-21)
(-1.02685 0.447279 1.66682e-22)
(-0.245143 0.124742 -5.95006e-21)
(-0.443953 -0.34578 5.38836e-21)
(-0.611352 -0.142703 1.723e-20)
(-0.401404 -0.024297 0)
(-0.521419 -0.313707 -1.58693e-20)
(-0.0994941 -0.0338834 7.96742e-21)
(-1.19208 0.583689 0)
(0.070748 -0.0076403 7.21209e-21)
(-1.46744 -0.670423 -1.77316e-22)
(-0.431645 -0.00942063 0)
(-0.562262 -0.341935 -5.42668e-21)
(-0.0815724 -0.0156597 -1.131e-20)
(-0.365228 -0.124458 6.77503e-21)
(-0.20266 -0.0382834 -3.45503e-21)
(-0.298545 -0.186315 1.70108e-21)
(-0.256646 0.191949 5.56988e-21)
(-0.853098 -0.0176033 -4.55806e-21)
(-0.880922 -0.704636 7.41698e-21)
(-0.468847 -0.0919758 0)
(-0.446132 -0.302651 0)
(-0.146491 0.0344948 9.53275e-22)
(-0.485528 -0.0556305 8.66566e-21)
(-0.519173 -0.343525 4.13036e-21)
(-0.124354 0.0345021 1.34097e-22)
(-0.604434 0.392757 1.35976e-20)
(-1.03189 -0.246439 -7.0218e-21)
(-0.427576 -0.394394 -8.57052e-21)
(0.0716108 -0.0231665 1.08967e-20)
(0.080907 -0.0219631 -1.11258e-20)
(-1.48859 -0.676843 9.30513e-22)
(-1.47625 -0.694872 7.54935e-22)
(-1.18499 0.566877 0)
(-1.20042 0.553411 -3.17408e-21)
(-1.23428 0.423685 6.28241e-21)
(-1.41124 -0.798167 -2.98313e-21)
(0.102696 -0.0296041 9.63163e-21)
(-0.358807 -0.34757 -5.52128e-21)
(-0.709161 0.466054 2.80128e-21)
(-1.14972 -0.2899 8.49926e-21)
(-0.344727 0.204776 -5.73678e-21)
(-0.478441 -0.392213 -5.4641e-21)
(-0.74139 -0.168183 5.31052e-21)
(-0.921149 0.0962531 0)
(-1.07265 -0.788812 4.63324e-21)
(-0.105214 0.0896899 1.74222e-22)
(-1.15712 -0.70138 -6.04056e-22)
(0.0619167 -0.0307439 -4.94041e-21)
(-1.20344 0.446919 -5.24658e-22)
(0.0679423 -0.0227162 0)
(-1.25615 0.330123 0)
(-1.35678 -0.888078 2.1766e-21)
(-1.21609 0.546921 2.18919e-21)
(0.0792715 -0.0104135 0)
(-1.41152 -0.701503 4.11042e-23)
(0.0294624 -0.00328892 -1.96806e-32)
(-0.969414 -0.569056 2.86038e-21)
(-0.950934 0.434672 -4.02756e-22)
(-1.01057 -0.506296 -3.23916e-21)
(0.0280427 0.0104141 1.96337e-32)
(-0.90206 0.493509 3.37766e-22)
(-1.18041 -0.71727 -9.2256e-21)
(-0.927757 0.245709 0)
(0.0597109 -0.00897699 -1.5185e-20)
(-1.31247 -0.809386 -2.85665e-23)
(0.0824108 -0.0427674 -5.06409e-21)
(-1.32931 0.420543 0)
(-1.04894 0.392127 -6.61358e-21)
(-1.3332 -0.705517 4.50838e-21)
(0.0895766 -0.0388224 7.78473e-21)
(-1.13275 0.639795 8.38005e-21)
(0.0236193 -0.0191518 4.31979e-21)
(-1.53711 -0.566212 0)
(-0.489533 0.138888 3.26819e-21)
(-0.047959 -0.0931668 -3.07679e-21)
(-0.793123 -0.399991 3.00283e-21)
(-1.37141 -0.870156 1.01198e-21)
(0.0824085 -0.0338052 5.3745e-21)
(-1.30272 0.369326 1.74236e-21)
(-0.888219 0.071771 -5.29356e-21)
(-0.133874 0.110195 -3.13613e-21)
(-1.02741 -0.763328 0)
(-1.16202 -0.791761 0)
(-0.964441 0.186374 0)
(0.00229975 0.0291904 0)
(0.00780978 0.00577074 0)
(-0.576755 -0.304631 3.74905e-21)
(-0.550235 0.27403 -1.33594e-21)
(-1.165 -0.635184 -1.63409e-21)
(0.0478591 -0.00420909 -6.3694e-21)
(-1.08447 0.509838 -8.06547e-22)
(-0.438802 0.104682 -8.39669e-21)
(-0.0683335 -0.0969502 7.42801e-21)
(-0.712528 -0.365643 3.57415e-21)
(-1.38967 -0.819513 2.61114e-21)
(-1.30018 0.430093 -2.57218e-21)
(0.0953551 -0.0344759 0)
(0.0822477 -0.0412557 -5.61021e-21)
(-1.33771 0.388363 0)
(-1.3441 -0.856813 -1.98469e-21)
(-1.18179 0.504215 -3.70683e-21)
(0.0893282 -0.0297353 1.6818e-20)
(-1.45596 -0.711384 0)
(-0.0159455 -0.0781383 -1.24418e-20)
(-1.47114 -0.552308 3.12075e-21)
(-1.06366 0.578914 0)
(-0.58047 0.39567 -1.70891e-20)
(-1.01929 -0.222351 8.94484e-21)
(-0.494057 -0.446991 -2.70385e-21)
(-1.30529 -0.438337 1.27676e-21)
(-0.879684 0.514686 5.60484e-21)
(-0.153547 -0.186635 -7.68444e-21)
(-0.0184452 -0.06721 -1.11175e-20)
(-1.09183 0.625361 0)
(-1.52529 -0.54014 0)
(-0.562665 0.291491 -2.87082e-21)
(-0.629108 0.328922 0)
(-0.929707 -0.332005 -9.76802e-21)
(-1.00851 -0.36603 1.04528e-20)
(-0.218107 -0.226666 1.38201e-21)
(-0.189361 -0.214611 -1.47236e-21)
(-0.515178 0.278229 2.7551e-21)
(-0.888093 -0.294108 0)
(-0.276608 -0.267115 2.6043e-21)
(-0.752823 0.463139 0)
(-1.17788 -0.359357 -8.16722e-21)
(-0.255313 -0.263276 1.78628e-21)
(-1.22743 -0.820662 -4.23462e-21)
(-1.03688 0.219508 4.6989e-21)
(0.0249492 0.0128998 -1.20242e-20)
(-1.39644 -0.834076 0)
(-1.25056 0.409617 9.1858e-21)
(0.0977684 -0.0302841 0)
(0.0628728 -0.00804065 -3.8853e-21)
(-1.07648 0.277095 -2.82054e-21)
(-1.28318 -0.812699 -2.69269e-21)
(-1.08023 -0.517381 4.85355e-22)
(0.0329363 0.0139749 3.39398e-21)
(-0.943048 0.517001 0)
(-0.323383 0.149165 5.53395e-21)
(-0.332278 0.13837 0)
(-0.31306 -0.265816 0)
(-0.661589 -0.214519 2.05456e-20)
(-0.267809 -0.23583 0)
(-0.656577 -0.238307 -1.31229e-20)
(-0.655277 0.399653 0)
(-0.583978 0.354737 0)
(-0.34444 -0.323831 2.12944e-23)
(-1.06768 -0.314629 5.56212e-21)
(-0.305451 -0.2932 1.31105e-20)
(-0.992112 -0.281642 -1.20141e-20)
(-1.01415 -0.631188 0)
(0.0423837 -0.0200033 7.22707e-21)
(-1.07668 0.432902 0)
(-1.39673 -0.812538 -2.07724e-21)
(-1.28452 0.431175 9.04135e-22)
(0.0983847 -0.0317637 3.38358e-21)
(-0.395301 0.250204 -9.71402e-21)
(-0.544934 -0.45672 -6.09639e-21)
(-0.814017 -0.159987 1.67989e-20)
(-1.17008 -0.836339 9.34423e-21)
(-1.00632 0.154606 1.20797e-20)
(-0.0468743 0.0553208 0)
(-0.0362667 -0.0948354 1.33054e-20)
(-1.45228 -0.534306 -3.31818e-21)
(-1.03913 0.574276 5.86893e-21)
(-1.28661 -0.690245 0)
(-1.19858 0.517123 0)
(0.0672485 -0.0125817 0)
(-1.31076 -0.7212 0)
(-1.23233 0.502253 1.67833e-21)
(0.0760692 -0.0211866 1.21779e-21)
(-0.809286 0.446702 -5.45855e-21)
(-1.21203 -0.436412 2.79376e-21)
(-0.136747 -0.177963 3.67257e-21)
(-0.190228 0.110093 -1.54636e-21)
(-0.580469 -0.429182 0)
(-0.610866 -0.0751713 -8.231e-23)
(-1.20232 0.523625 4.31913e-21)
(0.0881935 -0.0255323 9.73802e-21)
(-1.46991 -0.710775 -8.78735e-22)
(-1.2073 -0.752949 0)
(-0.970787 0.251854 0)
(0.0584114 -0.00266458 1.31078e-20)
(0.0591059 -0.052581 3.22402e-21)
(-1.40299 -0.646634 5.54264e-21)
(-1.06867 0.486183 1.31937e-20)
(-0.547166 0.338938 0)
(-0.39505 -0.360398 -8.87011e-21)
(-0.954845 -0.255625 6.26206e-21)
(-0.702332 0.0554327 8.78583e-23)
(-0.864882 -0.596259 5.12728e-21)
(-0.0733403 0.0640146 0)
(-0.293061 0.165919 4.56449e-23)
(-0.482782 -0.38872 -1.83013e-21)
(-0.682954 -0.150888 -6.95528e-21)
(0.0950105 -0.0240368 9.55377e-24)
(-1.4529 -0.739728 1.69414e-21)
(-1.22913 0.510492 4.27432e-21)
(-0.978482 0.464437 -2.50649e-21)
(-1.34391 -0.583989 -1.93775e-21)
(0.0171694 -0.0796678 0)
(-0.252849 0.116783 -6.00154e-21)
(-0.389819 -0.306354 1.18238e-20)
(-0.600699 -0.16325 -1.13696e-20)
(-1.10879 0.641043 3.52178e-21)
(-0.00635241 -0.0501286 4.9012e-21)
(-1.54363 -0.545105 -1.11638e-21)
(-0.464256 0.219349 -3.52472e-21)
(-0.808406 -0.305039 0)
(-0.2145 -0.222015 0)
(-0.508816 0.0449476 -1.53844e-20)
(-0.697272 -0.427511 3.30369e-21)
(-0.0408905 -0.00786099 0)
(-1.14427 -0.75097 0)
(-0.920986 0.187384 1.02279e-20)
(0.0193365 0.021291 0)
(-1.1256 0.61657 -1.49713e-21)
(0.0481658 0.00694418 -1.52698e-21)
(-1.47311 -0.591055 -9.85778e-22)
(-1.11968 0.63049 4.20733e-21)
(0.039469 0.00313987 0)
(-1.49787 -0.573378 2.74496e-23)
(0.0436791 -0.0574009 2.87979e-21)
(-1.42097 -0.625287 -2.92184e-21)
(-1.06989 0.508094 -1.21468e-20)
(-0.739884 0.0374246 -4.7498e-21)
(-0.890776 -0.637203 -5.16193e-21)
(-0.110052 0.085942 0)
(0.0462059 0.0165228 1.39889e-21)
(-1.42398 -0.573332 9.12728e-22)
(-1.08075 0.606778 0)
(0.0964694 -0.0343732 0)
(-1.36864 -0.731707 -3.08706e-21)
(-1.10437 0.408373 -1.51536e-21)
(0.0213734 -0.00548138 5.80027e-21)
(-0.821541 -0.525031 -2.71108e-21)
(-0.857492 0.368451 0)
(-0.766563 0.462034 4.5186e-23)
(-0.901655 -0.424116 0)
(0.0204565 0.0150051 5.78639e-21)
(-0.00650168 -0.0641725 -2.23038e-23)
(-1.50507 -0.561483 0)
(-1.09209 0.605913 0)
(0.0924871 -0.0212424 0)
(-1.42283 -0.746704 0)
(-1.25723 0.513429 4.96362e-21)
(-1.164 0.560388 -3.93011e-21)
(-1.14113 0.541038 3.17924e-21)
(0.0618087 -0.0317915 -5.47297e-21)
(-1.49392 -0.651402 -3.76585e-22)
(0.0622684 -0.0380209 -8.93493e-21)
(-1.47342 -0.653721 9.66887e-22)
(-1.10636 0.383238 3.00868e-21)
(-1.35558 -0.754131 2.16142e-21)
(0.0977647 -0.0307995 0)
(-0.0960155 0.0857442 0)
(-1.12077 -0.831598 0)
(-0.977856 0.117345 0)
(-0.315725 0.0972987 0)
(-0.214896 -0.191346 -1.65081e-20)
(-0.601753 -0.245465 7.14817e-21)
(-1.06613 0.316221 8.8646e-21)
(-1.29743 -0.777535 9.00254e-22)
(0.0848525 -0.019695 1.14133e-20)
(0.0718768 -0.0115996 7.43216e-21)
(-1.04597 0.289496 -1.23334e-20)
(-1.26846 -0.784689 -1.24735e-21)
(-1.06479 0.63211 4.41322e-21)
(-0.0509221 -0.0916591 5.31151e-21)
(-1.51668 -0.506628 4.47208e-21)
(-0.680851 0.422473 0)
(-1.10386 -0.316374 2.43936e-21)
(-0.310898 -0.301747 -1.28522e-20)
(-0.579607 0.332399 0)
(-0.965748 -0.297796 1.23851e-20)
(-0.302058 -0.293917 -3.96869e-23)
(-0.925179 0.288967 -1.21201e-20)
(-1.20641 -0.688836 1.24286e-21)
(0.0766712 -0.0295202 -6.62464e-21)
(-0.955506 0.284601 0)
(-1.21916 -0.713651 1.17414e-21)
(0.0759929 -0.0222351 6.05856e-21)
(-0.219091 0.08636 0)
(-0.38801 -0.293937 -1.86866e-20)
(-0.547711 -0.14688 6.37395e-21)
(-0.652168 0.352277 0)
(-1.03456 -0.363121 0)
(-0.201699 -0.227361 1.97769e-21)
(0.0712771 -0.0313291 -1.16313e-20)
(-1.35393 -0.887807 -5.78647e-21)
(-1.30428 0.347169 0)
(-1.25861 0.479104 1.53673e-21)
(0.0754592 -0.0290793 0)
(-1.26643 -0.737685 -2.86574e-22)
(-1.2508 0.45204 -3.62838e-22)
(0.0700374 -0.0336487 0)
(-1.22056 -0.731156 1.10749e-21)
(-0.404016 0.221652 4.09642e-21)
(-0.363172 -0.313631 -1.94577e-21)
(-0.774737 -0.229563 -2.03842e-22)
(-1.20796 -0.664531 3.19979e-22)
(0.0585448 -0.0133932 9.75541e-21)
(-1.16495 0.499114 0)
(-1.02809 0.502414 1.06132e-20)
(0.020255 -0.0718961 6.10949e-21)
(-1.3944 -0.593664 0)
(0.0555485 -0.0223534 -1.45255e-21)
(-1.14424 -0.680104 1.42912e-21)
(-1.16013 0.460971 0)
(-0.362319 0.00847327 1.04314e-20)
(-0.10796 -0.0709432 1.01493e-20)
(-0.528471 -0.289459 8.94329e-24)
(-0.703736 0.267551 -1.8377e-21)
(-1.03674 -0.502757 -1.52029e-21)
(-0.00127447 -0.0927725 -6.93993e-21)
(-0.819054 -0.60424 1.1777e-20)
(-0.723946 0.00373294 1.13115e-20)
(-0.152864 0.11137 0)
(0.0866431 -0.0402274 0)
(-1.34042 -0.8206 -2.72554e-22)
(-1.32716 0.421607 0)
(-1.18822 -0.768314 0)
(-0.969194 0.22892 0)
(0.0424326 0.00713231 0)
(0.0173786 -0.0336011 0)
(-1.13161 0.630781 -2.97756e-21)
(-1.53955 -0.570098 1.09543e-21)
(-0.769942 0.297608 0)
(-1.09546 -0.539926 7.88732e-22)
(0.0196302 -0.0815776 6.7794e-21)
(-0.294279 0.0730101 0)
(-0.212056 -0.181548 1.41906e-20)
(-0.559519 -0.233116 0)
(-1.37598 -0.808914 -2.46509e-21)
(-1.30214 0.450446 2.44613e-21)
(0.0933215 -0.0348641 0)
(0.0875163 -0.0394467 -6.69579e-21)
(-1.39842 -0.702399 1.94269e-22)
(-1.10642 0.45709 3.20944e-22)
(-1.16858 0.589563 0)
(-1.15562 0.587327 2.2799e-21)
(0.0627822 0.00128987 -3.54894e-21)
(0.0623727 0.00431138 -4.35296e-21)
(-1.44943 -0.634133 3.30873e-22)
(-1.42038 -0.635758 -2.72207e-22)
(-0.683869 0.149393 0)
(-0.939662 -0.572962 2.02814e-20)
(0.0189341 -0.0122087 7.51445e-21)
(-1.12269 -0.683492 1.29734e-20)
(-0.869515 0.213603 0)
(0.0496436 -0.00511604 -8.09597e-21)
(-0.454496 0.0634108 -8.64933e-21)
(-0.679679 -0.384429 5.68842e-21)
(-0.0436846 -0.0506484 1.21969e-20)
(-1.31203 -0.772728 2.39016e-22)
(-1.2919 0.465339 2.06754e-21)
(-1.29377 -0.786483 2.84484e-23)
(0.0824685 -0.0333398 0)
(-1.30753 0.441642 -1.99428e-21)
(0.0802277 -0.0387956 0)
(-0.905896 0.359725 0)
(-1.22939 -0.615887 0)
(0.0550655 -0.0611438 7.42837e-21)
(-1.29152 0.469105 3.68031e-21)
(-1.28894 0.475265 -6.63441e-21)
(-1.384 -0.785718 1.45912e-22)
(-1.35641 -0.769377 -1.11784e-21)
(0.0925371 -0.0304712 9.90006e-21)
(0.0875267 -0.0292157 -1.423e-23)
(-0.828418 0.18893 0)
(-1.07761 -0.681024 -1.2425e-20)
(0.0278081 0.00961966 1.04955e-20)
(-0.619878 0.176441 8.14979e-21)
(-0.966338 -0.51418 -9.2526e-21)
(0.0205715 -0.0627394 0)
(-1.14228 0.629855 0)
(0.038023 -0.00977191 0)
(-1.52058 -0.589297 -2.63855e-23)
(-0.691469 0.177397 6.02524e-21)
(-0.965356 -0.559996 -5.64801e-21)
(0.0312509 -0.0269681 -1.23761e-20)
(-0.508144 0.0991665 3.48624e-21)
(-0.765045 -0.433591 -6.68086e-21)
(-0.0196235 -0.0505008 6.99384e-21)
(-1.14909 0.603939 0)
(0.0557158 0.00175494 0)
(-1.47854 -0.619149 -4.32181e-23)
(-0.790937 0.32788 0)
(-1.13932 -0.528095 1.53377e-21)
(0.00799989 -0.0927725 -7.37917e-21)
(-1.00642 -0.770565 0)
(-0.894769 0.0494598 0)
(-0.176251 0.137862 -4.03456e-22)
(-0.552268 0.353573 -4.40635e-22)
(-0.967945 -0.238081 0)
(-0.430806 -0.390754 1.35987e-20)
(-1.29067 -0.899293 4.46371e-21)
(0.0125218 0.00903918 0)
(-1.16133 0.241578 0)
(0.0152826 0.00552498 -1.3929e-20)
(-0.770182 -0.415048 -5.24452e-21)
(-0.727884 0.367016 1.86951e-21)
(-0.729368 0.231975 0)
(-1.02415 -0.548357 5.64848e-21)
(0.0361673 -0.0559785 -6.25432e-21)
(-1.16449 0.600863 5.87389e-21)
(0.0515208 -0.0194542 1.84179e-20)
(-1.51456 -0.622491 0)
(-0.612052 -0.529596 -3.56384e-21)
(-0.93418 -0.158821 -6.09023e-21)
(-0.474141 0.327954 -3.81742e-21)
(-0.908708 0.534188 0)
(0.0346793 0.0218689 -5.11881e-21)
(-1.14188 -0.507013 0)
(-0.11381 0.0568241 7.6093e-21)
(-0.135051 0.0788022 -7.76906e-21)
(-0.612295 -0.426564 0)
(-0.550549 -0.0340459 7.345e-21)
(-0.650023 -0.463092 -1.18904e-20)
(-0.594074 -0.0394025 -5.87057e-21)
(-0.456763 0.0329863 8.15128e-21)
(-0.6381 -0.377615 7.62983e-21)
(-0.0545461 -0.0270799 0)
(-0.199316 0.103174 6.84104e-21)
(-0.151861 0.0732411 0)
(-0.504356 -0.377047 -6.70207e-21)
(-0.584571 -0.106695 6.56103e-21)
(-0.528961 -0.37799 6.75477e-21)
(-0.544591 -0.0759598 3.07366e-23)
(-0.677757 0.212295 5.11712e-22)
(-0.902663 -0.499126 -4.10115e-21)
(0.0123522 -0.0510559 -8.53797e-21)
(-0.62596 0.158976 -1.40484e-20)
(-0.905596 -0.514494 1.06478e-22)
(0.0150454 -0.0372285 0)
(0.0725148 -0.0405551 0)
(-1.22746 -0.763045 0)
(-1.28874 0.434122 1.30565e-21)
(-0.45481 0.241228 -3.78001e-21)
(-0.818129 -0.264508 0)
(-0.298431 -0.275313 3.59993e-21)
(-1.27088 0.485557 -8.13226e-21)
(-1.41521 -0.775482 8.54496e-22)
(0.0962965 -0.0259781 -5.64272e-21)
(-0.959335 0.32968 0)
(-1.01353 0.355271 6.36201e-21)
(-1.25148 -0.682257 -1.55056e-21)
(-1.29597 -0.704807 4.40735e-21)
(0.0825169 -0.0367247 -8.16728e-21)
(0.0890666 -0.0354462 -7.51195e-21)
(-0.429714 0.212803 0)
(-0.781332 -0.273248 0)
(-0.264972 -0.252594 1.73748e-21)
(-0.722987 0.414547 4.34291e-21)
(-1.12419 -0.372054 0)
(-0.216312 -0.232996 4.27458e-21)
(-0.856551 0.297947 -3.43766e-21)
(-1.16293 -0.625701 0)
(0.0646011 -0.0467495 0)
(-0.229242 0.0110721 7.95409e-21)
(-0.447432 -0.173717 -3.86429e-21)
(-0.257364 -0.189701 3.86517e-21)
(-1.02658 0.321957 0)
(-1.28141 -0.744657 0)
(0.0867718 -0.0244758 -1.21407e-20)
(-0.286748 0.10015 0)
(-0.274078 -0.22873 2.06633e-21)
(-0.589538 -0.213397 0)
(-0.825732 0.211388 -7.91508e-21)
(-1.08554 -0.659429 -7.02574e-21)
(0.0475567 -0.0128483 -1.05315e-21)
(-0.713392 0.389676 4.45017e-21)
(-1.10551 -0.390393 0)
(-0.178109 -0.210817 8.82223e-21)
(-0.238006 0.0406837 -7.88155e-21)
(-0.215947 0.0432922 -3.48124e-21)
(-0.491791 -0.186696 3.83574e-21)
(-0.267117 -0.207326 -7.6851e-21)
(-0.490354 -0.164499 0)
(-0.315673 -0.2391 -1.35996e-20)
(-0.177845 0.0622583 -3.44854e-21)
(-0.429681 -0.314883 8.73366e-21)
(-0.152585 0.0596708 2.21519e-21)
(-0.51372 -0.113719 -8.89198e-21)
(-0.50825 -0.360644 -4.26943e-21)
(-0.523067 -0.0831762 1.78578e-22)
(-0.538822 0.264341 4.17557e-21)
(-0.593046 0.281417 0)
(-0.896551 -0.340849 7.37951e-21)
(-0.946739 -0.380319 -5.76771e-21)
(-0.186357 -0.205673 -8.06134e-21)
(-0.135256 -0.173534 1.34033e-20)
(0.0055088 -0.0704398 0)
(-1.44976 -0.578511 -1.71686e-21)
(-1.06364 0.552166 -6.01898e-21)
(-0.201978 0.155915 4.92399e-21)
(-0.852391 0.017604 7.18836e-21)
(-0.936787 -0.724202 -1.17352e-20)
(0.0259939 -0.0546294 -6.23504e-21)
(0.0444885 -0.0492264 5.0025e-21)
(-1.47211 -0.605898 1.48657e-21)
(-1.45788 -0.62796 2.67381e-21)
(-1.09892 0.563902 1.52171e-20)
(-1.10753 0.541754 -7.88423e-21)
(-0.326678 0.226117 7.062e-21)
(-0.683616 -0.550147 -5.76448e-21)
(-0.800912 -0.0960752 1.65826e-21)
(-0.246694 -0.0424831 1.35061e-20)
(-0.23516 -0.141635 0)
(-0.374386 -0.162487 -1.33106e-20)
(-1.05102 0.353014 -2.98619e-21)
(-1.3112 -0.738503 -4.98093e-21)
(0.0924457 -0.0295808 0)
(-0.366578 0.176474 0)
(-0.307745 -0.277102 -1.655e-21)
(-0.711238 -0.231285 -6.62685e-21)
(-0.750209 0.403242 0)
(-1.14225 -0.415527 0)
(-0.147324 -0.187983 -8.20889e-21)
(-0.999294 0.542313 -6.68889e-21)
(-0.989879 0.518076 0)
(-1.40594 -0.531252 1.13616e-21)
(-0.0441524 -0.105972 -7.69578e-21)