/*--------------------------------*- C++ -*----------------------------------*\
  =========                 |
  \\      /  F ield         | OpenFOAM: The Open Source CFD Toolbox
   \\    /   O peration     | Website:  https://openfoam.org
    \\  /    A nd           | Version:  6
     \\/     M anipulation  |
\*---------------------------------------------------------------------------*/
FoamFile
{
    version     2.0;
    format      ascii;
    class       volScalarField;
    location    "0";
    object      p;
}
// * * * * * * * * * * * * * * * * * * * * * * * * * * * * * * * * * * * * * //

dimensions      [0 2 -2 0 0 0 0];

internalField   nonuniform List<scalar> 
40000
(
0.00913177
0.00913141
0.00913019
0.00912805
0.00912525
0.00912201
0.00911853
0.00911498
0.00911148
0.00910815
0.00910507
0.00910231
0.00909994
0.00909798
0.00909648
0.00909545
0.00909492
0.00909489
0.00909537
0.00909637
0.00909789
0.00909993
0.00910248
0.00910554
0.00910911
0.00911317
0.00911773
0.00912278
0.00912831
0.00913431
0.00914078
0.00914771
0.00915509
0.00916293
0.00917121
0.00917994
0.00918909
0.00919868
0.0092087
0.00921914
0.00923
0.00924128
0.00925297
0.00926507
0.00927758
0.0092905
0.00930383
0.00931756
0.00933169
0.00934622
0.00936115
0.00937647
0.00939219
0.00940831
0.00942482
0.00944171
0.009459
0.00947667
0.00949473
0.00951317
0.009532
0.0095512
0.00957078
0.00959073
0.00961105
0.00963174
0.00965279
0.0096742
0.00969597
0.0097181
0.00974056
0.00976338
0.00978653
0.00981001
0.00983382
0.00985795
0.00988239
0.00990714
0.00993219
0.00995753
0.00998316
0.0100091
0.0100352
0.0100616
0.0100883
0.0101152
0.0101424
0.0101697
0.0101972
0.010225
0.0102529
0.010281
0.0103092
0.0103376
0.0103661
0.0103947
0.0104234
0.0104521
0.0104809
0.0105098
0.0105387
0.0105676
0.0105965
0.0106254
0.0106542
0.0106829
0.0107116
0.0107401
0.0107686
0.0107969
0.010825
0.0108529
0.0108807
0.0109082
0.0109355
0.0109625
0.0109892
0.0110156
0.0110417
0.0110674
0.0110928
0.0111177
0.0111423
0.0111665
0.0111902
0.0112134
0.0112362
0.0112584
0.0112802
0.0113014
0.0113221
0.0113422
0.0113617
0.0113807
0.011399
0.0114168
0.0114339
0.0114504
0.0114662
0.0114814
0.011496
0.0115098
0.011523
0.0115356
0.0115474
0.0115586
0.011569
0.0115788
0.011588
0.0115964
0.0116042
0.0116112
0.0116176
0.0116234
0.0116285
0.0116329
0.0116367
0.0116399
0.0116424
0.0116443
0.0116456
0.0116464
0.0116465
0.0116461
0.0116452
0.0116437
0.0116418
0.0116393
0.0116364
0.011633
0.0116292
0.011625
0.0116204
0.0116154
0.0116102
0.0116046
0.0115987
0.0115926
0.0115863
0.0115798
0.0115732
0.0115665
0.0115597
0.0115529
0.0115461
0.0115393
0.0115327
0.0115263
0.0115202
0.0115143
0.0115088
0.0115038
0.0114992
0.0114954
0.0114922
0.0114897
0.0114881
0.0114874
0.0114874
0.0114878
0.00913213
0.00913177
0.00913067
0.00912876
0.00912627
0.00912338
0.00912028
0.0091171
0.00911396
0.00911097
0.00910821
0.00910575
0.00910365
0.00910193
0.00910065
0.00909982
0.00909946
0.00909958
0.0091002
0.00910131
0.00910293
0.00910505
0.00910767
0.00911079
0.00911441
0.00911851
0.0091231
0.00912817
0.00913372
0.00913973
0.0091462
0.00915314
0.00916052
0.00916835
0.00917663
0.00918534
0.00919448
0.00920405
0.00921405
0.00922447
0.00923531
0.00924657
0.00925823
0.00927031
0.0092828
0.00929569
0.00930898
0.00932268
0.00933678
0.00935128
0.00936617
0.00938146
0.00939715
0.00941322
0.00942969
0.00944655
0.00946379
0.00948142
0.00949943
0.00951782
0.00953659
0.00955574
0.00957527
0.00959516
0.00961542
0.00963605
0.00965704
0.00967839
0.00970009
0.00972214
0.00974453
0.00976727
0.00979034
0.00981374
0.00983746
0.00986151
0.00988586
0.00991051
0.00993547
0.00996071
0.00998623
0.010012
0.0100381
0.0100644
0.0100909
0.0101177
0.0101447
0.010172
0.0101994
0.010227
0.0102548
0.0102827
0.0103108
0.010339
0.0103674
0.0103958
0.0104244
0.010453
0.0104817
0.0105104
0.0105391
0.0105678
0.0105966
0.0106253
0.0106539
0.0106825
0.010711
0.0107394
0.0107676
0.0107958
0.0108237
0.0108515
0.010879
0.0109064
0.0109335
0.0109603
0.0109868
0.0110131
0.011039
0.0110645
0.0110897
0.0111145
0.0111389
0.0111629
0.0111865
0.0112095
0.0112321
0.0112542
0.0112758
0.0112969
0.0113174
0.0113374
0.0113568
0.0113756
0.0113939
0.0114115
0.0114285
0.0114448
0.0114606
0.0114756
0.0114901
0.0115039
0.011517
0.0115294
0.0115412
0.0115523
0.0115627
0.0115724
0.0115815
0.0115899
0.0115976
0.0116046
0.011611
0.0116168
0.0116218
0.0116263
0.0116301
0.0116332
0.0116358
0.0116377
0.0116391
0.0116399
0.0116401
0.0116397
0.0116389
0.0116375
0.0116356
0.0116332
0.0116304
0.0116272
0.0116235
0.0116194
0.011615
0.0116102
0.0116051
0.0115997
0.011594
0.0115882
0.0115821
0.0115758
0.0115694
0.011563
0.0115564
0.0115499
0.0115434
0.011537
0.0115307
0.0115246
0.0115187
0.0115132
0.011508
0.0115032
0.011499
0.0114953
0.0114923
0.01149
0.0114885
0.0114877
0.0114877
0.0114881
0.00913336
0.00913287
0.00913177
0.00913003
0.00912782
0.00912529
0.00912257
0.0091198
0.00911707
0.00911447
0.00911209
0.00910998
0.00910819
0.00910677
0.00910575
0.00910516
0.00910501
0.00910532
0.0091061
0.00910737
0.00910911
0.00911134
0.00911406
0.00911725
0.00912093
0.00912509
0.00912973
0.00913483
0.0091404
0.00914643
0.00915292
0.00915985
0.00916724
0.00917507
0.00918333
0.00919203
0.00920116
0.00921071
0.00922069
0.00923109
0.0092419
0.00925312
0.00926476
0.00927681
0.00928926
0.00930212
0.00931538
0.00932904
0.0093431
0.00935755
0.0093724
0.00938765
0.00940329
0.00941931
0.00943573
0.00945253
0.00946972
0.00948729
0.00950524
0.00952358
0.00954228
0.00956137
0.00958082
0.00960064
0.00962083
0.00964138
0.00966229
0.00968355
0.00970517
0.00972713
0.00974943
0.00977207
0.00979505
0.00981834
0.00984196
0.0098659
0.00989014
0.00991468
0.00993951
0.00996463
0.00999002
0.0100157
0.0100416
0.0100678
0.0100942
0.0101208
0.0101477
0.0101748
0.010202
0.0102295
0.0102571
0.0102849
0.0103128
0.0103409
0.010369
0.0103973
0.0104257
0.0104541
0.0104826
0.0105111
0.0105396
0.0105682
0.0105967
0.0106252
0.0106536
0.010682
0.0107103
0.0107385
0.0107665
0.0107944
0.0108222
0.0108497
0.0108771
0.0109042
0.0109311
0.0109577
0.010984
0.01101
0.0110357
0.011061
0.011086
0.0111106
0.0111348
0.0111586
0.0111819
0.0112048
0.0112272
0.0112491
0.0112706
0.0112914
0.0113118
0.0113316
0.0113508
0.0113695
0.0113875
0.011405
0.0114218
0.0114381
0.0114536
0.0114686
0.0114829
0.0114966
0.0115096
0.0115219
0.0115336
0.0115446
0.0115549
0.0115645
0.0115735
0.0115819
0.0115895
0.0115965
0.0116029
0.0116086
0.0116136
0.0116181
0.0116218
0.011625
0.0116276
0.0116296
0.011631
0.0116318
0.0116321
0.0116318
0.011631
0.0116297
0.0116279
0.0116257
0.011623
0.0116199
0.0116164
0.0116125
0.0116082
0.0116036
0.0115987
0.0115935
0.0115881
0.0115825
0.0115767
0.0115707
0.0115646
0.0115585
0.0115523
0.0115461
0.0115399
0.0115339
0.0115279
0.0115222
0.0115167
0.0115115
0.0115067
0.0115023
0.0114983
0.0114949
0.0114921
0.01149
0.0114885
0.0114878
0.0114878
0.0114881
0.00913551
0.00913478
0.0091335
0.00913176
0.00912965
0.00912731
0.00912484
0.00912234
0.0091199
0.0091176
0.0091155
0.00911366
0.00911214
0.00911096
0.00911017
0.00910978
0.00910982
0.0091103
0.00911124
0.00911263
0.0091145
0.00911683
0.00911964
0.00912291
0.00912666
0.00913087
0.00913555
0.00914069
0.00914629
0.00915234
0.00915885
0.00916579
0.00917318
0.00918101
0.00918927
0.00919796
0.00920708
0.00921662
0.00922658
0.00923696
0.00924775
0.00925895
0.00927056
0.00928258
0.00929501
0.00930783
0.00932106
0.00933468
0.00934871
0.00936312
0.00937793
0.00939314
0.00940873
0.00942471
0.00944108
0.00945784
0.00947498
0.0094925
0.00951039
0.00952867
0.00954732
0.00956634
0.00958573
0.00960549
0.00962561
0.00964609
0.00966692
0.00968811
0.00970965
0.00973153
0.00975375
0.00977631
0.00979919
0.0098224
0.00984592
0.00986976
0.0098939
0.00991834
0.00994306
0.00996807
0.00999336
0.0100189
0.0100447
0.0100708
0.0100971
0.0101236
0.0101503
0.0101772
0.0102044
0.0102317
0.0102591
0.0102868
0.0103146
0.0103425
0.0103705
0.0103986
0.0104268
0.010455
0.0104834
0.0105117
0.0105401
0.0105685
0.0105968
0.0106251
0.0106534
0.0106816
0.0107097
0.0107377
0.0107656
0.0107933
0.0108208
0.0108482
0.0108754
0.0109023
0.010929
0.0109554
0.0109816
0.0110074
0.0110329
0.0110581
0.0110829
0.0111073
0.0111313
0.0111549
0.0111781
0.0112008
0.011223
0.0112448
0.011266
0.0112868
0.0113069
0.0113266
0.0113457
0.0113642
0.0113821
0.0113994
0.0114161
0.0114322
0.0114477
0.0114625
0.0114767
0.0114903
0.0115031
0.0115154
0.0115269
0.0115379
0.0115481
0.0115577
0.0115666
0.0115749
0.0115825
0.0115895
0.0115958
0.0116014
0.0116065
0.0116109
0.0116146
0.0116178
0.0116204
0.0116224
0.0116238
0.0116246
0.011625
0.0116247
0.011624
0.0116228
0.0116211
0.0116189
0.0116163
0.0116133
0.0116099
0.0116062
0.011602
0.0115976
0.0115929
0.0115879
0.0115827
0.0115773
0.0115717
0.0115659
0.0115601
0.0115542
0.0115483
0.0115424
0.0115365
0.0115307
0.0115251
0.0115196
0.0115144
0.0115095
0.011505
0.0115008
0.0114971
0.0114939
0.0114912
0.0114892
0.0114877
0.011487
0.011487
0.0114874
0.00913833
0.00913729
0.00913571
0.00913384
0.00913173
0.00912947
0.00912713
0.00912481
0.00912257
0.00912049
0.00911862
0.00911701
0.0091157
0.00911473
0.00911413
0.00911393
0.00911414
0.00911477
0.00911585
0.00911737
0.00911935
0.00912178
0.00912468
0.00912803
0.00913184
0.00913612
0.00914084
0.00914602
0.00915166
0.00915773
0.00916426
0.00917122
0.00917862
0.00918645
0.00919471
0.0092034
0.00921251
0.00922204
0.00923198
0.00924234
0.00925312
0.0092643
0.00927589
0.00928788
0.00930028
0.00931307
0.00932627
0.00933986
0.00935385
0.00936823
0.009383
0.00939817
0.00941372
0.00942966
0.00944599
0.0094627
0.00947979
0.00949725
0.0095151
0.00953332
0.00955192
0.00957088
0.00959021
0.00960991
0.00962996
0.00965038
0.00967115
0.00969226
0.00971373
0.00973554
0.00975768
0.00978015
0.00980296
0.00982608
0.00984952
0.00987326
0.00989731
0.00992165
0.00994628
0.00997119
0.00999637
0.0100218
0.0100475
0.0100735
0.0100996
0.010126
0.0101526
0.0101795
0.0102065
0.0102336
0.010261
0.0102885
0.0103161
0.0103439
0.0103718
0.0103998
0.0104278
0.0104559
0.0104841
0.0105123
0.0105405
0.0105687
0.0105969
0.0106251
0.0106532
0.0106813
0.0107092
0.010737
0.0107648
0.0107923
0.0108197
0.0108469
0.0108739
0.0109007
0.0109272
0.0109535
0.0109795
0.0110051
0.0110305
0.0110555
0.0110801
0.0111044
0.0111282
0.0111517
0.0111747
0.0111973
0.0112193
0.0112409
0.011262
0.0112826
0.0113027
0.0113222
0.0113411
0.0113595
0.0113773
0.0113945
0.011411
0.011427
0.0114424
0.0114571
0.0114712
0.0114846
0.0114974
0.0115095
0.011521
0.0115318
0.011542
0.0115515
0.0115604
0.0115686
0.0115761
0.011583
0.0115893
0.0115949
0.0115999
0.0116043
0.011608
0.0116112
0.0116138
0.0116158
0.0116172
0.0116181
0.0116184
0.0116182
0.0116175
0.0116164
0.0116147
0.0116126
0.0116101
0.0116072
0.0116039
0.0116002
0.0115962
0.0115919
0.0115874
0.0115825
0.0115775
0.0115722
0.0115668
0.0115613
0.0115557
0.01155
0.0115443
0.0115386
0.011533
0.0115274
0.0115221
0.0115169
0.0115119
0.0115072
0.0115029
0.0114989
0.0114953
0.0114923
0.0114897
0.0114877
0.0114863
0.0114855
0.0114855
0.0114858
0.0091416
0.00914019
0.00913824
0.00913617
0.00913396
0.00913169
0.00912941
0.00912719
0.0091251
0.00912317
0.00912148
0.00912005
0.00911892
0.00911813
0.0091177
0.00911766
0.00911802
0.0091188
0.00912001
0.00912165
0.00912373
0.00912627
0.00912925
0.00913268
0.00913656
0.00914089
0.00914567
0.00915089
0.00915656
0.00916266
0.00916921
0.00917619
0.0091836
0.00919144
0.0091997
0.00920839
0.00921749
0.00922701
0.00923695
0.0092473
0.00925805
0.00926922
0.00928079
0.00929276
0.00930513
0.0093179
0.00933106
0.00934462
0.00935858
0.00937293
0.00938767
0.00940279
0.00941831
0.00943421
0.00945049
0.00946715
0.0094842
0.00950162
0.00951941
0.00953758
0.00955613
0.00957504
0.00959431
0.00961395
0.00963394
0.0096543
0.009675
0.00969605
0.00971745
0.00973918
0.00976125
0.00978365
0.00980638
0.00982942
0.00985278
0.00987644
0.0099004
0.00992466
0.0099492
0.00997402
0.0099991
0.0100245
0.01005
0.0100759
0.010102
0.0101283
0.0101548
0.0101815
0.0102084
0.0102354
0.0102627
0.01029
0.0103176
0.0103452
0.010373
0.0104008
0.0104287
0.0104567
0.0104848
0.0105128
0.0105409
0.010569
0.0105971
0.0106251
0.0106531
0.010681
0.0107088
0.0107365
0.010764
0.0107915
0.0108187
0.0108458
0.0108726
0.0108993
0.0109256
0.0109518
0.0109776
0.0110031
0.0110283
0.0110532
0.0110777
0.0111018
0.0111255
0.0111488
0.0111717
0.0111941
0.0112161
0.0112375
0.0112585
0.0112789
0.0112988
0.0113182
0.011337
0.0113553
0.0113729
0.01139
0.0114065
0.0114224
0.0114376
0.0114522
0.0114662
0.0114795
0.0114922
0.0115043
0.0115157
0.0115264
0.0115365
0.0115459
0.0115547
0.0115628
0.0115703
0.0115772
0.0115834
0.011589
0.0115939
0.0115982
0.011602
0.0116051
0.0116077
0.0116096
0.0116111
0.0116119
0.0116123
0.0116121
0.0116114
0.0116103
0.0116087
0.0116067
0.0116042
0.0116014
0.0115981
0.0115946
0.0115907
0.0115865
0.011582
0.0115773
0.0115724
0.0115673
0.0115621
0.0115567
0.0115513
0.0115458
0.0115402
0.0115348
0.0115293
0.011524
0.0115188
0.0115138
0.0115091
0.0115046
0.0115004
0.0114965
0.0114931
0.0114901
0.0114876
0.0114856
0.0114842
0.0114834
0.0114832
0.0114834
0.00914513
0.00914333
0.00914096
0.00913862
0.00913626
0.00913391
0.00913163
0.00912945
0.00912744
0.00912563
0.00912406
0.00912277
0.00912179
0.00912114
0.00912086
0.00912096
0.00912146
0.00912237
0.00912369
0.00912545
0.00912763
0.00913026
0.00913332
0.00913683
0.00914077
0.00914516
0.00914999
0.00915526
0.00916096
0.0091671
0.00917367
0.00918067
0.0091881
0.00919595
0.00920422
0.0092129
0.00922201
0.00923152
0.00924145
0.00925179
0.00926253
0.00927368
0.00928523
0.00929717
0.00930952
0.00932227
0.00933541
0.00934894
0.00936287
0.00937718
0.00939188
0.00940698
0.00942245
0.00943831
0.00945455
0.00947118
0.00948818
0.00950555
0.0095233
0.00954143
0.00955992
0.00957877
0.009598
0.00961758
0.00963752
0.00965781
0.00967845
0.00969944
0.00972078
0.00974245
0.00976445
0.00978678
0.00980944
0.00983241
0.00985569
0.00987927
0.00990316
0.00992733
0.00995179
0.00997653
0.0100015
0.0100268
0.0100523
0.010078
0.010104
0.0101302
0.0101566
0.0101832
0.01021
0.010237
0.0102641
0.0102914
0.0103188
0.0103464
0.010374
0.0104017
0.0104296
0.0104574
0.0104854
0.0105133
0.0105413
0.0105692
0.0105972
0.0106251
0.0106529
0.0106807
0.0107084
0.010736
0.0107634
0.0107907
0.0108178
0.0108448
0.0108715
0.010898
0.0109243
0.0109502
0.010976
0.0110014
0.0110264
0.0110512
0.0110755
0.0110995
0.0111231
0.0111463
0.0111691
0.0111913
0.0112132
0.0112345
0.0112554
0.0112757
0.0112955
0.0113147
0.0113334
0.0113516
0.0113691
0.0113861
0.0114025
0.0114182
0.0114334
0.0114479
0.0114618
0.011475
0.0114876
0.0114996
0.0115109
0.0115215
0.0115315
0.0115409
0.0115496
0.0115577
0.0115651
0.0115719
0.011578
0.0115835
0.0115884
0.0115927
0.0115964
0.0115995
0.011602
0.011604
0.0116054
0.0116063
0.0116066
0.0116064
0.0116058
0.0116047
0.0116031
0.0116011
0.0115987
0.0115959
0.0115927
0.0115892
0.0115854
0.0115813
0.0115769
0.0115723
0.0115675
0.0115625
0.0115574
0.0115522
0.0115469
0.0115415
0.0115362
0.0115308
0.0115256
0.0115204
0.0115154
0.0115106
0.011506
0.0115016
0.0114975
0.0114938
0.0114905
0.0114875
0.011485
0.011483
0.0114815
0.0114806
0.0114803
0.0114803
0.00914875
0.00914655
0.00914374
0.0091411
0.00913854
0.00913607
0.00913372
0.00913155
0.00912957
0.00912782
0.00912634
0.00912515
0.00912429
0.00912376
0.00912361
0.00912383
0.00912444
0.00912546
0.0091269
0.00912875
0.00913103
0.00913375
0.00913689
0.00914047
0.00914448
0.00914893
0.00915381
0.00915912
0.00916486
0.00917103
0.00917763
0.00918465
0.00919209
0.00919996
0.00920823
0.00921693
0.00922603
0.00923554
0.00924547
0.00925579
0.00926652
0.00927766
0.00928919
0.00930112
0.00931344
0.00932617
0.00933928
0.00935279
0.00936668
0.00938097
0.00939564
0.0094107
0.00942614
0.00944196
0.00945817
0.00947475
0.00949171
0.00950904
0.00952675
0.00954483
0.00956327
0.00958208
0.00960125
0.00962078
0.00964067
0.00966091
0.00968149
0.00970243
0.0097237
0.00974531
0.00976725
0.00978952
0.00981211
0.00983501
0.00985823
0.00988174
0.00990556
0.00992966
0.00995404
0.0099787
0.0100036
0.0100288
0.0100542
0.0100799
0.0101058
0.0101319
0.0101582
0.0101848
0.0102115
0.0102383
0.0102654
0.0102926
0.0103199
0.0103473
0.0103749
0.0104025
0.0104302
0.010458
0.0104858
0.0105137
0.0105416
0.0105694
0.0105973
0.0106251
0.0106528
0.0106805
0.0107081
0.0107355
0.0107629
0.0107901
0.0108171
0.0108439
0.0108705
0.0108969
0.0109231
0.0109489
0.0109745
0.0109998
0.0110248
0.0110494
0.0110737
0.0110976
0.0111211
0.0111441
0.0111668
0.011189
0.0112107
0.0112319
0.0112527
0.0112729
0.0112926
0.0113117
0.0113303
0.0113484
0.0113658
0.0113827
0.0113989
0.0114146
0.0114296
0.0114441
0.0114578
0.011471
0.0114835
0.0114954
0.0115066
0.0115172
0.0115271
0.0115364
0.011545
0.011553
0.0115603
0.0115671
0.0115731
0.0115786
0.0115834
0.0115877
0.0115913
0.0115944
0.0115969
0.0115988
0.0116002
0.011601
0.0116013
0.0116011
0.0116005
0.0115994
0.0115978
0.0115958
0.0115934
0.0115906
0.0115875
0.0115841
0.0115803
0.0115763
0.011572
0.0115674
0.0115627
0.0115578
0.0115528
0.0115477
0.0115425
0.0115373
0.011532
0.0115268
0.0115217
0.0115167
0.0115118
0.0115071
0.0115026
0.0114983
0.0114944
0.0114907
0.0114874
0.0114845
0.011482
0.0114799
0.0114783
0.0114772
0.0114767
0.0114766
0.00915232
0.00914972
0.00914647
0.0091435
0.00914072
0.00913809
0.00913565
0.00913342
0.00913144
0.00912973
0.0091283
0.00912719
0.00912641
0.00912598
0.00912592
0.00912625
0.00912696
0.00912809
0.00912962
0.00913156
0.00913393
0.00913673
0.00913995
0.0091436
0.00914767
0.00915218
0.00915711
0.00916246
0.00916824
0.00917445
0.00918107
0.00918812
0.00919558
0.00920345
0.00921174
0.00922044
0.00922955
0.00923906
0.00924898
0.0092593
0.00927002
0.00928114
0.00929266
0.00930457
0.00931688
0.00932958
0.00934267
0.00935615
0.00937002
0.00938428
0.00939892
0.00941395
0.00942935
0.00944514
0.00946131
0.00947786
0.00949478
0.00951207
0.00952974
0.00954777
0.00956617
0.00958493
0.00960406
0.00962354
0.00964338
0.00966357
0.0096841
0.00970498
0.0097262
0.00974776
0.00976964
0.00979185
0.00981438
0.00983723
0.00986038
0.00988384
0.00990759
0.00993162
0.00995594
0.00998053
0.0100054
0.0100305
0.0100559
0.0100815
0.0101073
0.0101333
0.0101596
0.010186
0.0102126
0.0102395
0.0102664
0.0102935
0.0103208
0.0103481
0.0103756
0.0104032
0.0104308
0.0104585
0.0104862
0.010514
0.0105418
0.0105696
0.0105973
0.010625
0.0106527
0.0106803
0.0107078
0.0107351
0.0107624
0.0107895
0.0108164
0.0108431
0.0108697
0.010896
0.010922
0.0109478
0.0109733
0.0109985
0.0110234
0.0110479
0.0110721
0.0110959
0.0111193
0.0111423
0.0111648
0.0111869
0.0112085
0.0112297
0.0112503
0.0112705
0.0112901
0.0113091
0.0113276
0.0113456
0.0113629
0.0113797
0.0113959
0.0114115
0.0114264
0.0114407
0.0114544
0.0114675
0.0114799
0.0114917
0.0115028
0.0115133
0.0115232
0.0115324
0.0115409
0.0115488
0.0115561
0.0115628
0.0115688
0.0115742
0.0115789
0.0115831
0.0115867
0.0115897
0.0115921
0.011594
0.0115953
0.0115961
0.0115964
0.0115962
0.0115956
0.0115944
0.0115928
0.0115908
0.0115885
0.0115857
0.0115826
0.0115792
0.0115754
0.0115714
0.0115672
0.0115627
0.011558
0.0115532
0.0115483
0.0115432
0.0115381
0.011533
0.0115279
0.0115228
0.0115177
0.0115128
0.011508
0.0115034
0.011499
0.0114948
0.0114908
0.0114872
0.0114839
0.011481
0.0114785
0.0114763
0.0114746
0.0114734
0.0114726
0.0114722
0.00915573
0.00915274
0.00914904
0.00914575
0.00914272
0.00913991
0.00913734
0.00913505
0.00913303
0.00913131
0.00912991
0.00912885
0.00912813
0.00912778
0.0091278
0.00912821
0.00912902
0.00913023
0.00913184
0.00913387
0.00913632
0.00913919
0.00914248
0.0091462
0.00915033
0.00915489
0.00915987
0.00916527
0.00917109
0.00917733
0.00918398
0.00919105
0.00919853
0.00920642
0.00921472
0.00922343
0.00923254
0.00924205
0.00925197
0.00926228
0.009273
0.00928411
0.00929561
0.00930751
0.0093198
0.00933248
0.00934555
0.00935901
0.00937286
0.00938709
0.0094017
0.0094167
0.00943208
0.00944783
0.00946397
0.00948048
0.00949736
0.00951462
0.00953225
0.00955024
0.0095686
0.00958732
0.00960641
0.00962585
0.00964564
0.00966578
0.00968627
0.0097071
0.00972827
0.00974978
0.00977161
0.00979377
0.00981625
0.00983904
0.00986214
0.00988554
0.00990923
0.00993321
0.00995747
0.00998201
0.0100068
0.0100319
0.0100572
0.0100827
0.0101085
0.0101344
0.0101606
0.010187
0.0102136
0.0102403
0.0102672
0.0102942
0.0103214
0.0103487
0.0103761
0.0104036
0.0104312
0.0104588
0.0104865
0.0105142
0.0105419
0.0105696
0.0105973
0.0106249
0.0106525
0.01068
0.0107075
0.0107348
0.0107619
0.010789
0.0108158
0.0108425
0.0108689
0.0108952
0.0109212
0.0109469
0.0109723
0.0109974
0.0110222
0.0110467
0.0110708
0.0110945
0.0111178
0.0111407
0.0111632
0.0111852
0.0112068
0.0112278
0.0112484
0.0112684
0.011288
0.0113069
0.0113254
0.0113432
0.0113605
0.0113772
0.0113933
0.0114088
0.0114236
0.0114379
0.0114515
0.0114645
0.0114768
0.0114885
0.0114996
0.01151
0.0115197
0.0115288
0.0115373
0.0115451
0.0115523
0.0115589
0.0115648
0.0115702
0.0115749
0.011579
0.0115825
0.0115854
0.0115878
0.0115896
0.0115909
0.0115917
0.0115919
0.0115917
0.0115909
0.0115898
0.0115882
0.0115862
0.0115838
0.011581
0.0115779
0.0115744
0.0115707
0.0115667
0.0115625
0.0115581
0.0115535
0.0115487
0.0115438
0.0115388
0.0115338
0.0115287
0.0115236
0.0115186
0.0115136
0.0115088
0.011504
0.0114995
0.0114951
0.0114909
0.011487
0.0114834
0.0114801
0.0114772
0.0114745
0.0114723
0.0114705
0.011469
0.011468
0.0114674
0.00915887
0.00915551
0.00915138
0.00914776
0.00914447
0.00914146
0.00913876
0.00913636
0.00913429
0.00913255
0.00913116
0.00913012
0.00912944
0.00912914
0.00912923
0.00912971
0.00913059
0.00913187
0.00913356
0.00913567
0.00913819
0.00914113
0.00914449
0.00914826
0.00915245
0.00915706
0.00916209
0.00916754
0.00917339
0.00917967
0.00918635
0.00919344
0.00920094
0.00920885
0.00921716
0.00922588
0.00923499
0.00924451
0.00925442
0.00926474
0.00927544
0.00928654
0.00929804
0.00930992
0.0093222
0.00933486
0.00934791
0.00936135
0.00937518
0.00938938
0.00940397
0.00941894
0.00943429
0.00945002
0.00946612
0.0094826
0.00949945
0.00951668
0.00953427
0.00955223
0.00957055
0.00958923
0.00960828
0.00962768
0.00964743
0.00966753
0.00968798
0.00970877
0.00972989
0.00975135
0.00977314
0.00979526
0.00981769
0.00984043
0.00986348
0.00988683
0.00991048
0.00993441
0.00995862
0.00998311
0.0100079
0.0100329
0.0100581
0.0100836
0.0101093
0.0101352
0.0101614
0.0101877
0.0102142
0.0102409
0.0102677
0.0102947
0.0103219
0.0103491
0.0103764
0.0104039
0.0104314
0.010459
0.0104866
0.0105142
0.0105419
0.0105696
0.0105972
0.0106248
0.0106523
0.0106798
0.0107071
0.0107344
0.0107615
0.0107885
0.0108153
0.0108419
0.0108683
0.0108945
0.0109204
0.0109461
0.0109714
0.0109965
0.0110213
0.0110457
0.0110697
0.0110934
0.0111166
0.0111394
0.0111618
0.0111838
0.0112053
0.0112263
0.0112468
0.0112668
0.0112862
0.0113051
0.0113235
0.0113413
0.0113585
0.0113751
0.0113911
0.0114065
0.0114213
0.0114355
0.011449
0.0114619
0.0114741
0.0114858
0.0114967
0.011507
0.0115167
0.0115258
0.0115341
0.0115419
0.011549
0.0115555
0.0115613
0.0115666
0.0115712
0.0115752
0.0115787
0.0115815
0.0115838
0.0115856
0.0115868
0.0115875
0.0115877
0.0115874
0.0115866
0.0115854
0.0115838
0.0115817
0.0115793
0.0115765
0.0115734
0.0115699
0.0115662
0.0115622
0.011558
0.0115535
0.0115489
0.0115442
0.0115393
0.0115344
0.0115294
0.0115243
0.0115193
0.0115143
0.0115094
0.0115046
0.0114999
0.0114953
0.011491
0.0114869
0.011483
0.0114793
0.011476
0.011473
0.0114703
0.0114679
0.0114659
0.0114642
0.0114629
0.0114621
0.00916166
0.00915795
0.00915341
0.00914946
0.00914591
0.0091427
0.00913984
0.00913733
0.00913519
0.00913341
0.009132
0.00913096
0.00913031
0.00913005
0.00913018
0.00913072
0.00913166
0.00913301
0.00913477
0.00913694
0.00913952
0.00914253
0.00914594
0.00914977
0.00915402
0.00915868
0.00916375
0.00916924
0.00917513
0.00918144
0.00918815
0.00919527
0.00920279
0.00921071
0.00921904
0.00922777
0.00923689
0.00924641
0.00925632
0.00926663
0.00927734
0.00928843
0.00929992
0.00931179
0.00932405
0.0093367
0.00934974
0.00936315
0.00937696
0.00939114
0.00940571
0.00942065
0.00943598
0.00945168
0.00946775
0.0094842
0.00950103
0.00951822
0.00953578
0.0095537
0.00957199
0.00959064
0.00960965
0.00962901
0.00964873
0.00966879
0.00968921
0.00970996
0.00973105
0.00975247
0.00977422
0.00979629
0.00981868
0.00984139
0.0098644
0.00988771
0.00991132
0.00993521
0.00995938
0.00998382
0.0100085
0.0100335
0.0100587
0.0100841
0.0101098
0.0101357
0.0101618
0.0101881
0.0102146
0.0102412
0.010268
0.010295
0.010322
0.0103492
0.0103766
0.010404
0.0104314
0.010459
0.0104866
0.0105142
0.0105418
0.0105694
0.010597
0.0106246
0.0106521
0.0106795
0.0107068
0.010734
0.0107611
0.0107881
0.0108148
0.0108414
0.0108678
0.0108939
0.0109198
0.0109454
0.0109707
0.0109958
0.0110205
0.0110448
0.0110688
0.0110924
0.0111156
0.0111384
0.0111608
0.0111827
0.0112041
0.0112251
0.0112455
0.0112654
0.0112848
0.0113037
0.011322
0.0113397
0.0113568
0.0113734
0.0113893
0.0114046
0.0114194
0.0114334
0.0114469
0.0114597
0.0114719
0.0114834
0.0114943
0.0115045
0.0115141
0.0115231
0.0115314
0.011539
0.0115461
0.0115525
0.0115582
0.0115634
0.0115679
0.0115719
0.0115752
0.011578
0.0115802
0.0115819
0.011583
0.0115837
0.0115838
0.0115834
0.0115826
0.0115813
0.0115796
0.0115775
0.011575
0.0115722
0.011569
0.0115655
0.0115618
0.0115578
0.0115535
0.0115491
0.0115445
0.0115397
0.0115349
0.0115299
0.0115249
0.0115199
0.0115149
0.0115099
0.011505
0.0115002
0.0114955
0.011491
0.0114867
0.0114825
0.0114786
0.0114749
0.0114715
0.0114684
0.0114656
0.0114631
0.011461
0.0114591
0.0114576
0.0114565
0.00916404
0.00915999
0.00915505
0.00915079
0.00914698
0.00914356
0.00914054
0.00913791
0.00913568
0.00913384
0.0091324
0.00913136
0.00913072
0.00913048
0.00913065
0.00913123
0.00913222
0.00913362
0.00913544
0.00913767
0.00914031
0.00914337
0.00914684
0.00915072
0.00915502
0.00915973
0.00916484
0.00917037
0.0091763
0.00918263
0.00918937
0.00919652
0.00920406
0.009212
0.00922034
0.00922908
0.00923821
0.00924773
0.00925765
0.00926796
0.00927866
0.00928975
0.00930123
0.00931309
0.00932534
0.00933798
0.009351
0.0093644
0.00937818
0.00939235
0.00940689
0.00942182
0.00943712
0.00945279
0.00946884
0.00948527
0.00950206
0.00951923
0.00953676
0.00955465
0.00957291
0.00959153
0.00961051
0.00962984
0.00964953
0.00966956
0.00968994
0.00971066
0.00973172
0.00975311
0.00977482
0.00979686
0.00981922
0.00984189
0.00986487
0.00988815
0.00991172
0.00993558
0.00995972
0.00998413
0.0100088
0.0100337
0.0100589
0.0100843
0.01011
0.0101358
0.0101619
0.0101882
0.0102146
0.0102412
0.010268
0.0102949
0.010322
0.0103492
0.0103765
0.0104038
0.0104313
0.0104588
0.0104864
0.0105139
0.0105415
0.0105691
0.0105967
0.0106243
0.0106517
0.0106791
0.0107065
0.0107337
0.0107607
0.0107876
0.0108144
0.0108409
0.0108673
0.0108934
0.0109193
0.0109449
0.0109702
0.0109952
0.0110198
0.0110442
0.0110681
0.0110917
0.0111149
0.0111377
0.01116
0.0111818
0.0112032
0.0112241
0.0112445
0.0112644
0.0112838
0.0113026
0.0113208
0.0113385
0.0113555
0.011372
0.0113879
0.0114032
0.0114178
0.0114318
0.0114452
0.0114579
0.01147
0.0114815
0.0114923
0.0115024
0.011512
0.0115208
0.011529
0.0115366
0.0115435
0.0115498
0.0115555
0.0115605
0.011565
0.0115688
0.0115721
0.0115748
0.0115769
0.0115785
0.0115796
0.0115801
0.0115801
0.0115797
0.0115788
0.0115774
0.0115756
0.0115735
0.0115709
0.011568
0.0115648
0.0115613
0.0115575
0.0115534
0.0115492
0.0115447
0.0115401
0.0115353
0.0115304
0.0115254
0.0115204
0.0115154
0.0115104
0.0115054
0.0115005
0.0114957
0.011491
0.0114865
0.0114821
0.0114779
0.011474
0.0114703
0.0114668
0.0114636
0.0114607
0.0114581
0.0114557
0.0114537
0.0114518
0.0114506
0.00916593
0.00916156
0.00915625
0.00915168
0.00914762
0.009144
0.00914081
0.00913805
0.00913573
0.00913382
0.00913234
0.00913128
0.00913064
0.00913041
0.0091306
0.00913122
0.00913225
0.00913369
0.00913556
0.00913784
0.00914053
0.00914364
0.00914716
0.00915109
0.00915543
0.00916018
0.00916534
0.0091709
0.00917687
0.00918323
0.00919
0.00919717
0.00920473
0.00921269
0.00922105
0.00922979
0.00923893
0.00924846
0.00925839
0.0092687
0.00927939
0.00929048
0.00930195
0.00931381
0.00932605
0.00933867
0.00935168
0.00936507
0.00937883
0.00939298
0.00940751
0.00942241
0.00943769
0.00945335
0.00946938
0.00948578
0.00950255
0.00951969
0.00953719
0.00955507
0.0095733
0.00959189
0.00961085
0.00963015
0.00964981
0.00966982
0.00969017
0.00971086
0.00973189
0.00975325
0.00977494
0.00979696
0.00981929
0.00984194
0.00986489
0.00988814
0.00991169
0.00993553
0.00995964
0.00998403
0.0100087
0.0100336
0.0100588
0.0100841
0.0101098
0.0101356
0.0101617
0.0101879
0.0102143
0.0102409
0.0102677
0.0102946
0.0103217
0.0103488
0.0103761
0.0104035
0.0104309
0.0104584
0.010486
0.0105136
0.0105412
0.0105688
0.0105963
0.0106239
0.0106513
0.0106787
0.010706
0.0107332
0.0107603
0.0107872
0.010814
0.0108405
0.0108668
0.010893
0.0109188
0.0109444
0.0109697
0.0109947
0.0110194
0.0110437
0.0110676
0.0110912
0.0111144
0.0111371
0.0111594
0.0111812
0.0112026
0.0112235
0.0112438
0.0112637
0.011283
0.0113018
0.0113199
0.0113376
0.0113546
0.011371
0.0113868
0.011402
0.0114166
0.0114306
0.0114439
0.0114565
0.0114686
0.0114799
0.0114907
0.0115007
0.0115101
0.0115189
0.011527
0.0115345
0.0115413
0.0115475
0.0115531
0.011558
0.0115624
0.0115661
0.0115693
0.0115719
0.0115739
0.0115754
0.0115763
0.0115768
0.0115767
0.0115762
0.0115752
0.0115737
0.0115719
0.0115696
0.011567
0.011564
0.0115607
0.0115571
0.0115533
0.0115492
0.0115448
0.0115403
0.0115356
0.0115308
0.0115259
0.0115209
0.0115159
0.0115108
0.0115058
0.0115008
0.0114959
0.011491
0.0114863
0.0114817
0.0114773
0.0114731
0.0114691
0.0114653
0.0114618
0.0114585
0.0114555
0.0114527
0.0114502
0.0114479
0.0114459
0.0114444
0.00916729
0.00916263
0.00915696
0.0091521
0.0091478
0.00914397
0.00914061
0.00913773
0.0091353
0.00913332
0.00913179
0.0091307
0.00913004
0.00912982
0.00913003
0.00913066
0.00913172
0.0091332
0.00913511
0.00913743
0.00914017
0.00914332
0.00914689
0.00915086
0.00915525
0.00916004
0.00916523
0.00917083
0.00917683
0.00918322
0.00919002
0.00919721
0.00920479
0.00921277
0.00922114
0.0092299
0.00923905
0.00924859
0.00925851
0.00926882
0.00927952
0.0092906
0.00930207
0.00931392