/*--------------------------------*- C++ -*----------------------------------*\
  =========                 |
  \\      /  F ield         | OpenFOAM: The Open Source CFD Toolbox
   \\    /   O peration     | Website:  https://openfoam.org
    \\  /    A nd           | Version:  6
     \\/     M anipulation  |
\*---------------------------------------------------------------------------*/
FoamFile
{
    version     2.0;
    format      ascii;
    class       volScalarField;
    location    "0";
    object      p;
}
// * * * * * * * * * * * * * * * * * * * * * * * * * * * * * * * * * * * * * //

dimensions      [0 2 -2 0 0 0 0];

internalField   nonuniform List<scalar> 
918
(
0.222624
0.986258
0.00758047
0.222406
0.000237675
0.954859
-0.822272
0.403365
0.201064
-0.317621
0.0146112
0.193135
0.806431
0.571747
-1.49076
0.00970593
0.359638
-0.7217
0.200231
0.00605423
0.473868
0.20714
0.210377
0.20229
0.25916
0.547586
0.678306
0.00335452
-0.00310752
-0.00172678
0.00424415
-0.000887426
0.00287059
0.827913
0.874215
0.892932
0.171512
0.0203287
-0.698391
-0.7591
-0.739199
-0.877583
0.390802
0.394697
-0.489573
0.404229
0.418523
0.187925
0.200365
0.201169
0.202511
0.201389
0.202784
0.139556
-0.37217
-0.42691
-0.23825
-0.178138
0.0555757
0.0150218
0.0134746
0.0280185
0.0255186
0.128515
0.190214
0.189326
0.199545
0.208665
0.911749
0.883673
0.906465
0.83159
0.84876
0.780514
0.752714
0.592698
0.615702
0.557072
0.54672
-1.95762
-2.93475
-0.897666
-0.615313
0.000969093
0.0153777
0.021288
0.347846
0.351135
0.358166
0.370475
0.802906
-0.717909
-0.843694
0.199517
0.198765
0.206596
0.208133
0.204488
0.203932
0.0120474
0.0181307
-0.00107684
0.00276951
0.00243849
0.450915
0.449973
0.201627
0.199261
0.217686
0.241931
0.230673
-0.035191
0.269795
0.286875
0.374545
0.54149
0.534782
0.544595
0.652256
0.620663
0.710649
0.735143
0.00962127
0.00271901
0.00824904
0.00565267
0.00763208
0.166783
0.160062
0.182884
0.17394
0.176525
-0.0738825
-0.219048
0.0966355
0.117589
-0.607338
-0.656341
-0.780785
-0.776477
-0.873056
0.20472
0.38362
0.384506
-0.50249
-0.425593
-0.561509
-0.364725
-0.430984
0.17993
0.1862
0.18254
0.196072
0.189492
0.192059
0.204355
0.201594
0.203112
0.209818
0.327462
0.0806065
0.0897281
-0.593782
-0.482288
-0.553213
-0.103925
-0.0657287
0.0594357
0.063307
0.0453811
0.043679
-0.0348595
0.0059402
-0.0241745
0.0252039
0.0232515
0.121349
0.111304
0.137475
0.143314
0.181595
0.182288
0.185005
0.18369
0.700765
0.723915
0.732106
0.708541
-3.93806
-6.65362
-0.260397
-0.0960574
0.00265807
0.002635
0.00132914
0.00324369
0.00294523
0.0012625
0.0258695
0.0216702
0.0221066
0.0233996
0.335183
0.338571
0.747487
0.752119
0.735514
0.690529
0.188642
0.190436
0.19549
0.192021
0.0226115
0.01975
0.0215229
0.418246
0.434968
0.43056
-0.0733785
-0.161961
0.0132141
0.0424235
0.325288
0.303605
0.323856
0.437265
0.478932
0.748219
0.77268
0.75989
0.775812
0.823842
0.843776
0.809158
0.148104
0.155436
0.151315
0.187496
0.18462
0.185871
0.181672
0.18141
0.178825
-0.351387
-0.725184
0.162997
0.168043
0.148575
0.152238
0.292105
0.387369
0.362134
0.374116
0.373097
-0.318572
-0.369619
0.0712133
0.0760988
0.068736
0.0994015
0.0837466
0.676409
0.639566
0.686715
0.662239
0.625851
0.647707
-0.659247
-2.44344
-1.39372
0.312625
0.106789
0.203737
0.0402118
0.0263337
0.0310804
0.733343
0.778338
0.426409
0.600109
0.554907
0.510812
0.540158
0.594082
0.525408
0.559402
0.593595
0.572088
0.171528
0.16088
0.154075
0.474019
0.538448
-0.195977
-0.259901
-0.296723
0.0636964
0.0670932
0.0761665
0.745845
0.609144
0.695052
0.199457
0.199767
0.0124621
0.0232124
0.203313
0.203522
0.00550643
0.00488472
0.208189
-1.24674
-0.175074
0.192804
0.183349
0.199007
-0.380054
0.106504
0.0137126
0.0817883
0.0473717
0.191458
0.138859
0.10434
0.00649928
0.0145944
0.01175
-0.548852
0.197135
0.195338
0.198561
0.199581
0.20024
0.00775236
0.0103414
0.00733095
0.00999183
0.01066
0.00814109
0.166646
0.181211
-0.487422
0.198679
0.200868
0.200572
0.194535
0.199485
0.197673
0.0129506
0.00741
0.00773685
-0.0895344
0.0366
0.424697
0.527954
0.354202
0.172683
-0.11805
0.345085
0.406452
0.316371
0.46947
0.367992
0.381539
-0.114805
-0.261524
-0.121707
-0.17955
0.19056
0.189203
0.180702
0.178654
0.194249
0.192125
0.196759
0.194165
0.196878
0.198045
-0.333111
-0.233557
-0.435096
-0.469666
0.0580003
0.308689
0.00728271
0.0263891
0.0980119
0.0176959
0.0246939
0.00904223
0.00914993
0.032879
0.0459547
0.0689141
0.0494066
0.0486609
0.0274658
0.0270584
0.0379947
0.0352408
0.186359
0.182835
0.190268
0.197489
0.145935
0.149008
0.121981
0.136294
0.125973
0.0743714
0.100267
0.0805084
0.0066738
0.00739045
0.00512382
0.0175844
0.0223669
0.0117906
0.00911559
0.0130014
0.0107164
0.00920653
0.0139469
0.017581
-0.502998
-0.576694
0.656373
0.637197
-0.124909
0.186172
0.191598
0.1881
0.193815
0.196554
0.19717
0.195214
0.191848
0.181996
0.184402
0.179532
0.180212
-0.431121
-0.551108
-0.372913
-0.437843
-0.168062
0.307156
0.0454367
-0.0059804
-0.0182913
0.193812
0.383915
0.33861
0.46064
0.454889
-0.702415
-0.285012
-0.627612
-0.0841602
-0.119681
0.442942
0.490775
0.511975
0.464645
0.414703
-0.353567
0.195475
-0.351704
-0.313198
-0.134254
-0.232084
0.409616
0.349517
0.356766
0.371932
0.39663
0.363432
0.341526
0.341353
0.366098
0.374697
0.182655
-0.0559081
-0.0867769
-0.132522
0.336048
0.218092
0.271592
0.182576
0.185454
0.187877
0.186566
0.171085
0.176617
0.172779
0.177682
0.18053
0.189528
0.189897
0.185518
0.187527
-0.145282
-0.0931702
-0.419522
-0.512154
-0.504751
-0.534979
-0.484095
-0.646962
-0.573381
-0.226524
-0.0131484
-0.626308
-0.491264
-0.550967
-0.442532
-0.431599
-0.38549
0.0253238
0.111556
0.00121231
0.0642722
0.0741843
0.0828481
0.0153947
0.00933571
-0.0149907
0.00908446
0.0682224
0.0623607
0.0729731
0.0341418
0.0280299
0.020429
0.0202243
-0.035097
-0.03803
-0.0241112
-0.0456276
0.0190171
0.0201471
0.0238453
0.0348356
0.0325514
0.0370644
0.178751
0.179583
0.179554
0.193153
0.202691
0.216783
0.190154
0.165419
0.157566
0.157783
0.135282
0.142081
0.13983
0.151644
0.170144
0.177789
0.174702
0.176951
0.163984
0.16528
0.151421
0.155537
0.135443
0.119819
0.111605
0.0154272
0.00945353
0.0117779
0.0123311
0.0088891
0.0100125
0.0340138
0.0292018
0.0331993
0.0270698
0.0256601
0.0159078
0.0153438
-0.428741
-0.344028
-0.511002
-0.522771
-0.595406
0.569261
0.700395
0.523026
0.295935
0.330171
0.525206
0.663492
0.273391
0.431244
0.506024
0.177898
0.488696
0.190722
0.190759
0.188843
0.18772
0.188242
-0.341022
-0.244827
-0.223273
-0.174132
-0.0477855
0.0638706
-0.0526053
-0.141779
-0.00660969
0.0251349
0.30513
0.319861
0.260634
0.287244
0.290073
0.113364
0.190048
0.23541
0.186261
0.244496
0.275536
0.231711
0.268196
0.198274
0.156226
0.150399
0.0981001
0.133174
0.113116
0.0869735
0.18042
0.161858
0.170529
0.163618
0.181237
0.212025
0.20807
0.224859
0.243435
0.169928
0.126323
0.140998
0.165563
0.126421
0.13952
0.156264
-0.152761
-0.253523
-0.0922185
-0.427861
-0.312619
-0.290212
-0.329425
-0.375483
-0.0644932
-0.736459
-0.668795
-1.35797
0.137829
0.529839
0.366018
0.374711
0.392937
0.370865
0.377059
0.402209
0.411998
0.324472
0.339513
0.342236
0.302781
0.334081
0.341856
0.346767
0.165133
0.0926279
0.071854
0.0332638
-0.100525
-0.0632358
0.112553
0.0511627
-0.0140013
-0.0101846
0.148347
0.032878
0.101475
0.142086
0.0909434
0.0311056
0.231706
0.295816
0.280082
0.251298
0.172953
0.189563
0.212617
0.25078
0.274157
0.30421
0.178926
0.182977
0.184154
0.181788
0.178644
0.181554
0.181018
0.183805
0.185217
0.187744
0.186783
-0.00672539
-0.0221599
-0.0640247
-0.0269993
-0.325034
-0.390521
-0.476569
-0.445751
-0.0505365
-0.0878507
-0.229184
-0.131307
-0.0764366
-0.0508416
-0.151164
-0.183797
-0.288801
-0.355628
-0.272728
-0.0100556
0.119681
-0.036775
-0.375949
-0.255057
-0.0894262
-0.00402039
0.0500904
0.0410475
0.0300404
0.0227289
0.0224052
0.0196897
0.0163853
0.0192028
0.0190184
0.0184738
0.0201566
0.0197637
0.0211512
0.0197794
0.0201058
0.165902
0.159354
0.159967
0.155049
0.154813
0.166005
0.170491
0.171975
0.176033
0.178058
0.17052
0.17485
0.177077
0.0225772
0.0178344
0.0208606
0.0193163
0.0179196
0.0163461
0.0160589
-0.138488
-0.241063
-0.155651
-0.323108
-0.434334
-0.391701
0.146051
0.115246
0.144389
0.350526
0.213068
0.100642
0.171747
0.293141
-0.00327375
0.170018
0.0093399
0.562702
0.433825
0.586311
0.234195
-0.0932791
0.0531099
0.0732047
-0.0853627
0.0161129
0.00445124
-0.107403
-0.0696732
-0.0535884
0.0227827
-0.0795599
-0.112569
-0.370357
-0.202564
-0.0479851
-0.0754006
0.0697328
0.124817
-0.101001
-0.17364
-0.218892
0.292999
0.314875
0.328398
0.295093
0.321165
0.250734
0.241212
0.256866
0.270299
0.262402
-1.01485
-0.632588
-1.77828
-1.15892
-0.716168
0.170213
0.15462
0.392706
0.304377
0.376912
0.362228
0.31346
0.281651
0.291664
0.325743
0.0318034
0.140132
0.101732
0.125066
0.0518774
-0.027482
0.263653
0.260169
0.287599
0.312538
0.286801
0.313897
0.174564
0.17457
0.176956
0.174266
0.171923
0.173647
-0.104284
-0.108057
-0.224926
-0.29425
-0.325282
-0.2618
0.0313099
0.0241595
0.0212519
0.0224691
0.0281539
0.0307395
-0.169548
-0.206203
-0.292896
-0.221447
-0.331498
-0.384197
-0.407908
-0.307278
-0.227089
-0.240247
0.116191
0.372502
0.202351
0.375938
0.183473
0.27814
0.141942
0.12047
0.153227
0.0350163
0.119485
-0.305195
-0.549269
-0.576837
0.44123
0.409607
0.214216
-0.0394548
-0.165906
0.120076
0.199152
0.165745
0.198789
0.245768
0.241508
-0.351589
-0.250973
-0.169921
0.136914
-0.0770273
-0.0608742
-0.0589136
0.0862103
0.0441647
)
;

boundaryField
{
    wall-4
    {
        type            zeroGradient;
    }
    velocity-inlet-5
    {
        type            zeroGradient;
    }
    velocity-inlet-6
    {
        type            zeroGradient;
    }
    pressure-outlet-7
    {
        type            fixedValue;
        value           uniform 0;
    }
    wall-8
    {
        type            zeroGradient;
    }
    frontAndBackPlanes
    {
        type            empty;
    }
}

