/*--------------------------------*- C++ -*----------------------------------*\
  =========                 |
  \\      /  F ield         | OpenFOAM: The Open Source CFD Toolbox
   \\    /   O peration     | Website:  https://openfoam.org
    \\  /    A nd           | Version:  6
     \\/     M anipulation  |
\*---------------------------------------------------------------------------*/
FoamFile
{
    version     2.0;
    format      ascii;
    class       volVectorField;
    location    "0";
    object      U_rec;
}
// * * * * * * * * * * * * * * * * * * * * * * * * * * * * * * * * * * * * * //

dimensions      [0 1 -1 0 0 0 0];

internalField   nonuniform List<vector> 
918
(
(0.987806 -0.00216276 0)
(-0.00968286 2.98955 0)
(-0.00649768 1.71976 0)
(0.981396 0.00393906 0)
(-0.00941503 1.68147 5.48163e-17)
(0.00486842 2.9812 -2.74995e-17)
(0.957324 1.41685 3.43445e-18)
(0.486541 0.265318 2.35475e-19)
(0.99817 0.000430306 0)
(0.0433752 1.67472 0)
(-0.00666122 1.6504 0)
(0.911557 7.06105e-05 0)
(-0.000760809 2.98405 0)
(0.0045245 2.88629 0)
(0.00466117 2.91535 1.6755e-17)
(-0.00446455 1.66015 3.29027e-17)
(0.659597 0.148291 -1.77968e-20)
(0.203259 1.88344 -3.57619e-17)
(0.984826 0.0107853 0)
(0.00442245 1.6663 0)
(0.0217 0.0462312 5.35884e-18)
(0.991614 0.00872613 0)
(1.00568 0.00899967 0)
(1.01102 -0.000968788 0)
(0.83645 -0.0145581 0)
(0.018529 2.91129 0)
(-0.00768632 2.9405 -8.88059e-17)
(-0.00615872 1.73492 0)
(0.00441526 1.76745 0)
(-0.00866011 1.74343 0)
(-0.0111854 1.79053 0)
(-0.00933813 1.69915 5.4599e-17)
(-0.00506367 1.66018 0)
(0.00489335 3.00933 5.53311e-22)
(0.00509108 3.02232 -5.33973e-17)
(0.0194988 3.00904 0)
(0.945596 -0.000915393 0)
(0.495329 1.05147 -1.09526e-17)
(0.941916 1.45022 -9.80482e-18)
(1.07459 1.2402 2.36892e-17)
(0.799888 1.6075 9.26001e-18)
(0.806154 1.56986 1.41392e-17)
(0.515897 0.322656 5.64527e-20)
(0.549048 0.238348 0)
(1.26347 0.670339 0)
(0.436132 0.331632 5.97494e-20)
(0.429288 0.242464 8.6432e-19)
(0.951425 -0.00213094 0)
(0.99674 0.00242565 0)
(0.998095 0.00297131 0)
(0.992663 0.00361609 0)
(0.983933 0.00730256 0)
(0.998824 0.0116402 0)
(0.0131646 1.56935 3.93456e-18)
(0.0394308 1.766 0)
(0.0680997 1.70924 0)
(0.0144363 1.74772 0)
(0.00879998 1.64598 0)
(-0.00928466 1.6604 0)
(-0.00863261 1.70558 0)
(-0.00739873 1.64861 0)
(-0.0118166 1.71517 0)
(-0.00542386 1.6591 0)
(0.976613 0.0112676 0)
(0.94735 0.00886918 0)
(0.924994 -0.0029405 0)
(0.937255 0.0140463 0)
(0.893014 0.0144628 0)
(-0.0173514 3.04301 2.39057e-17)
(-0.00233452 2.97632 0)
(-0.0265073 3.02104 0)
(0.0276748 3.03748 -5.62587e-23)
(-0.00096731 3.02391 3.71688e-17)
(0.0176348 3.00949 0)
(0.00404878 2.95403 0)
(0.0046582 2.96489 -1.377e-23)
(0.00411182 2.89503 0)
(0.00933099 2.97042 0)
(0.00796761 2.8711 0)
(0.283412 3.21239 0)
(-0.0670732 3.29016 0)
(0.100851 2.97863 7.08094e-18)
(-0.00224422 2.81492 0)
(0.00303516 1.75287 0)
(-0.00343011 1.70639 3.19242e-17)
(-0.00308137 1.66431 3.29708e-17)
(0.701357 0.174552 -4.36483e-18)
(0.694379 0.100402 2.31506e-18)
(0.670124 0.206478 2.00907e-17)
(0.650341 0.166425 -8.46686e-18)
(0.201606 1.38123 0)
(0.281774 1.94124 -4.28243e-17)
(0.429545 1.85537 -3.59898e-17)
(0.995341 0.00728181 0)
(0.971454 0.00931946 0)
(0.997475 -0.00550183 0)
(1.0019 0.00142419 0)
(1.00322 0.0150134 1.36794e-16)
(1.00319 0.0113398 1.1516e-16)
(-0.00163075 1.71191 0)
(0.0043697 1.6696 0)
(-0.00514548 1.74672 0)
(-0.0105162 1.71918 0)
(-0.00232268 1.67452 0)
(0.0161535 0.265361 -2.54801e-18)
(0.199453 0.189161 0)
(1.01065 -0.0130259 0)
(0.985181 0.00149994 0)
(0.907687 0.0329053 0)
(0.87853 0.0319954 0)
(0.865201 0.00575196 0)
(1.10133 0.00969032 0)
(0.841583 0.0219281 0)
(0.789732 0.00857573 1.96292e-17)
(-0.0181569 2.87598 2.10861e-17)
(0.00965764 2.9796 0)
(-0.0439431 3.01748 0)
(0.00531129 2.85881 0)
(-0.00661133 2.98501 -3.30034e-17)
(-0.00333076 2.9294 0)
(-0.0117477 2.9885 -1.2075e-17)
(-0.0130725 2.95118 2.25849e-17)
(0.00492584 1.7699 0)
(0.00455376 1.76365 0)
(0.00396122 1.70765 -2.3926e-21)
(-0.000272493 1.70556 0)
(0.00409462 1.65803 0)
(0.974675 0.00556015 0)
(0.951285 0.00690297 0)
(0.934588 -0.00811601 0)
(0.974544 -0.00326287 0)
(0.944291 -0.00470438 0)
(0.553442 1.20282 -4.47062e-18)
(0.682887 1.2845 0)
(0.395544 0.938436 -1.28615e-18)
(0.435257 0.774201 0)
(1.05429 1.26781 1.67092e-17)
(1.16158 1.04239 3.61794e-18)
(0.44203 1.8773 0)
(0.62863 1.75326 0)
(0.633362 1.72054 0)
(0.404611 0.682008 -5.28305e-18)
(0.569551 0.297168 0)
(0.585962 0.232081 -4.1149e-18)
(1.13716 1.07604 0)
(1.20583 0.873406 0)
(1.22344 0.843734 -3.78085e-18)
(1.27209 0.690927 0)
(1.29803 0.504268 -2.76505e-17)
(0.974548 0.00513187 0)
(0.970832 -0.00364444 0)
(0.945043 0.00323695 0)
(0.998703 -0.00520237 0)
(0.981925 -0.00514321 0)
(0.970831 0.000720191 0)
(0.990896 -0.0031722 0)
(0.988148 -0.000702029 0)
(0.998831 -0.00184617 0)
(0.0201929 1.59244 2.85568e-17)
(0.0275099 1.54324 0)
(0.0189014 1.62525 -3.19863e-18)
(0.0135504 1.60027 3.5779e-18)
(0.116207 1.89441 -4.09652e-17)
(0.0527579 1.81914 0)
(0.112527 1.80184 0)
(-0.001589 1.72625 0)
(0.00254187 1.63396 0)
(-0.00758984 1.70313 2.55519e-20)
(0.000484768 1.66697 0)
(-0.007626 1.70284 -3.11291e-17)
(0.00415676 1.66246 -2.1332e-18)
(-0.00201319 1.71848 0)
(-0.00496714 1.71201 0)
(0.00127777 1.64105 0)
(-0.00628543 1.72039 0)
(0.000911287 1.66448 0)
(1.01483 0.0177583 0)
(0.995388 0.000362494 0)
(0.996455 0.0106794 0)
(0.969498 0.00476039 0)
(0.932092 0.000571462 0)
(0.961415 0.00902776 0)
(0.956302 0.00452789 0)
(0.927205 0.00263127 0)
(0.0103424 3.04075 4.72401e-20)
(0.0154109 3.03567 0)
(0.00790048 2.99188 0)
(0.00446135 2.93552 0)
(0.998349 3.72833 0)
(1.36553 2.80174 -1.20054e-18)
(0.0120549 2.89132 0)
(-0.013361 2.80949 0)
(0.00465592 1.75512 0)
(0.00571074 1.74658 0)
(0.00221348 1.74834 0)
(-0.00597854 1.77921 -7.2986e-17)
(0.000118028 1.7588 0)
(-0.00286494 1.77195 0)
(0.00387628 1.65796 -6.48481e-17)
(0.00523244 1.70518 -3.31704e-17)
(-0.00401156 1.70328 3.17447e-17)
(0.00157817 1.65832 0)
(0.72718 0.131577 -1.81154e-17)
(0.71495 0.0688972 -1.07334e-17)
(0.188523 1.3806 0)
(0.263967 1.31248 7.51339e-19)
(0.133339 1.44348 -2.55464e-17)
(0.125506 1.43301 -3.04822e-17)
(0.936365 0.00666688 0)
(0.9787 0.0100956 0)
(0.986503 0.0165076 0)
(0.954739 0.0165171 0)
(0.00164611 1.72039 0)
(0.00583279 1.71637 0)
(0.0052506 1.67102 0)
(0.353975 0.3328 -1.8811e-18)
(0.238544 0.308949 1.63591e-18)
(0.334119 0.214641 0)
(1.19731 0.100492 -6.07018e-19)
(1.19895 0.050167 0)
(1.10373 0.0539275 0)
(1.04083 0.00330368 0)
(0.752791 0.105516 0)
(0.788687 0.0758026 3.37778e-17)
(0.744274 0.05923 -2.14584e-17)
(-0.0127581 2.9592 -3.29045e-17)
(-0.00800986 2.90369 -5.50717e-17)
(0.0073854 3.03094 9.07209e-20)
(0.0327556 3.01911 -3.54679e-17)
(-0.0162075 3.00145 -1.89165e-19)
(-0.0129579 2.97916 7.22111e-22)
(-0.0118851 3.02798 -2.86447e-18)
(-0.000853927 2.99062 -8.18833e-18)
(0.0480148 3.02136 -2.78063e-17)
(0.994844 0.00426807 0)
(0.987314 0.011632 0)
(0.962923 0.00509706 0)
(0.968333 0.00944368 0)
(0.964743 -0.00211591 0)
(0.929609 0.00179602 0)
(0.96493 -0.00118017 0)
(0.963431 -0.00313077 0)
(0.93303 -0.0079921 0)
(0.767748 1.46425 3.48787e-18)
(0.864053 1.53793 0)
(0.33874 0.44098 1.23112e-18)
(0.417241 0.729927 -3.5482e-18)
(0.397683 0.775331 -1.17452e-17)
(0.381953 0.558402 -1.79817e-17)
(0.437339 0.991589 -6.73213e-19)
(0.40713 0.862373 1.8565e-17)
(0.653513 0.239876 -1.18676e-17)
(0.610262 0.278346 -3.54011e-18)
(0.621973 0.206188 3.88506e-18)
(1.2986 0.517054 -2.38128e-17)
(1.30437 0.326291 4.15154e-18)
(0.0115197 1.65722 -3.29717e-17)
(0.00866298 1.63607 0)
(1.05281 0.0273513 0)
(1.02667 0.0134334 0)
(1.00874 -0.000600304 0)
(0.0137233 3.04804 0)
(0.0131344 2.97051 -3.52738e-17)
(0.0101934 2.98207 0)
(0.00376207 2.91594 -2.07674e-17)
(0.0111975 3.06085 1.4354e-17)
(0.0110027 3.05437 0)
(0.852681 1.77467 -3.52199e-18)
(1.22146 2.3598 -8.67159e-18)
(0.938048 1.86413 -1.59819e-17)
(-0.0243161 2.92488 3.24706e-17)
(-0.0220031 2.88977 0)
(-0.0207137 2.84185 0)
(-0.00841637 1.6985 6.43932e-17)
(0.00271581 1.69514 1.4757e-18)
(-0.0080476 1.64964 6.42972e-17)
(0.250372 1.32491 -1.58491e-17)
(0.322313 1.25754 -1.13661e-17)
(0.0349602 1.55943 -3.12496e-17)
(0.0761975 1.50284 -2.65658e-17)
(0.0609738 1.49785 -5.80739e-17)
(-0.0220252 3.07462 1.22737e-16)
(-0.00867207 3.07086 9.71251e-17)
(0.00488324 2.98622 2.29484e-17)
(-0.00998857 2.98073 -2.2308e-17)
(-0.000525842 2.93102 3.31996e-17)
(0.0167468 3.06669 -8.35869e-17)
(-0.00525843 3.06021 -1.26925e-16)
(0.491997 0.890196 0)
(0.477175 0.790392 -3.4393e-18)
(0.367109 0.501376 -1.68133e-17)
(0.41809 1.09767 2.92525e-17)
(0.411568 1.03042 2.47953e-17)
(1.27921 0.206131 -2.59032e-18)
(1.31184 0.36015 0)
(1.27748 0.1833 2.10029e-18)
(-0.00705489 1.70165 2.46734e-20)
(0.00517678 1.68465 0)
(-0.000524685 1.66078 0)
(0.300928 1.25549 1.17642e-18)
(0.355931 1.17655 -3.07317e-17)
(0.371687 1.16688 -2.97643e-17)
(1.00201 -0.0229192 0)
(0.999465 -0.00922836 1.1681e-17)
(0.00116522 1.7718 0)
(-0.00940563 1.78796 0)
(1.00292 -0.00125947 4.46487e-19)
(1.00443 0.00231014 1.45509e-17)
(0.000396792 1.77639 -7.26378e-17)
(-0.00118876 1.77791 0)
(-0.0164119 2.98606 2.23229e-17)
(0.314162 3.0241 0)
(1.11279 0.711459 -2.46679e-17)
(1.0006 0.0061466 8.11696e-17)
(1.00234 -0.0046271 0)
(1.00538 -0.00300112 3.40998e-19)
(0.0159535 1.86162 0)
(0.0126907 1.66725 0)
(-0.00125375 1.79895 0)
(0.0215654 1.73708 -7.29724e-17)
(-0.000547635 1.75258 7.0644e-17)
(0.987329 0.0165366 7.95578e-17)
(1.03342 0.0154867 0)
(1.05773 0.0311893 0)
(0.0127508 1.75645 0)
(0.0113274 1.75651 0)
(-0.00717435 1.77526 0)
(0.131688 1.87939 -8.12235e-17)
(1.00782 -0.0173669 0)
(1.00689 -0.0204717 0)
(0.998763 0.00244332 -2.04715e-17)
(0.994172 -0.00491264 2.59039e-17)
(0.997047 -0.00463072 0)
(0.00596446 1.75368 0)
(0.00296259 1.76827 0)
(0.00710486 1.75377 0)
(-0.00201627 1.77844 0)
(-0.0178343 1.7761 0)
(-0.00809389 1.77342 0)
(1.01407 0.0054511 0)
(1.0085 0.00448521 8.13348e-17)
(0.770555 1.33245 -1.77999e-19)
(0.999553 -0.00593493 2.08126e-17)
(0.997606 0.00270943 -2.56397e-17)
(1.0026 0.00277942 0)
(0.997553 0.00989009 3.35558e-17)
(1.00625 0.0096246 4.82664e-17)
(1.00135 0.00421456 0)
(0.0124029 1.76333 0)
(0.00589216 1.76785 -3.71582e-17)
(0.00207723 1.76325 -3.25008e-17)
(1.14085 0.25699 -6.02443e-17)
(1.08792 0.0851113 0)
(-0.211202 2.9853 2.98369e-17)
(-0.234859 3.20217 7.68117e-19)
(-0.0241044 3.03679 4.24015e-17)
(-0.0291419 2.99025 3.58022e-17)
(0.0495655 2.96393 0)
(-0.024012 3.03634 1.21011e-17)
(-0.0848342 3.13431 1.98915e-17)
(-0.0738672 3.02562 1.86544e-17)
(-0.0514861 3.10148 0)
(0.646345 0.345773 0)
(0.512559 0.38723 0)
(1.08121 0.820977 2.66167e-17)
(1.06069 0.875529 3.85182e-17)
(1.12865 0.621165 0)
(1.14221 0.568791 0)
(1.00398 0.00516194 1.54035e-17)
(1.00359 0.00510781 -1.63954e-17)
(1.00621 -0.00223708 0)
(1.00737 -0.00318122 0)
(1.00895 0.00244358 0)
(1.01009 0.0102742 0)
(1.00786 0.00247744 0)
(1.00622 0.0106227 0)
(1.00338 0.00575931 0)
(0.994427 0.00498888 0)
(0.0238104 1.85751 0)
(0.00140086 1.86134 0)
(0.0487967 1.8729 0)
(0.0271099 1.88511 0)
(0.0126171 1.6544 0)
(0.0103491 1.65461 3.42806e-17)
(0.0294044 1.67106 0)
(0.0218557 1.6707 3.04354e-17)
(0.0326995 1.69729 -6.58125e-17)
(-0.00784213 1.80231 0)
(0.000775408 1.79785 0)
(0.00619256 1.80736 0)
(-0.00272474 1.82474 0)
(0.0330676 1.76756 -7.09112e-17)
(-0.014692 1.74239 -4.70682e-17)
(0.0209571 1.74525 3.48767e-17)
(0.0028725 1.75437 0)
(0.0222833 1.7569 3.14924e-17)
(0.00952087 1.76136 -6.75556e-17)
(-0.000676591 1.78542 -1.1059e-16)
(-0.00381647 1.73438 -4.41447e-17)
(0.0208444 1.74205 3.83265e-17)
(0.991794 0.0173854 -1.01563e-17)
(0.997659 0.00314544 1.454e-17)
(0.987132 0.029752 1.45702e-17)
(0.973471 0.0208521 -1.37525e-17)
(1.03052 0.00827762 0)
(1.0351 0.00560016 0)
(1.04561 0.0318613 0)
(1.0332 0.0178546 0)
(1.04572 0.0140985 0)
(1.07978 0.0655549 0)
(1.0634 0.0574753 0)
(1.08161 0.0408838 0)
(0.00115036 1.7707 9.52758e-18)
(0.0164626 1.74167 0)
(-0.00432841 1.75307 0)
(0.00292713 1.75696 -1.44892e-17)
(0.00595551 1.75945 3.19189e-20)
(-0.00179733 1.77936 4.19058e-17)
(-0.0127981 1.76991 4.28986e-17)
(0.00125901 1.7702 0)
(-0.0257395 1.77442 0)
(-0.00908833 1.76753 0)
(0.00194227 1.7786 0)
(-0.00172412 1.78399 0)
(0.239583 1.85211 -5.07077e-17)
(0.277463 1.80426 4.08341e-17)
(0.301067 1.5101 2.9237e-19)
(0.1447 1.58104 2.73648e-17)
(0.167903 1.78188 3.4602e-17)
(1.00208 -0.0153807 0)
(1.00461 -0.0161714 0)
(1.00174 -0.0185385 0)
(1.01175 -0.00381105 0)
(0.997961 -0.00802403 0)
(0.988549 -0.00533981 0)
(0.999864 -0.0117061 0)
(0.995696 -0.00849479 0)
(1.00855 0.00101167 -1.03168e-17)
(1.01271 -0.00162676 1.57965e-17)
(1.00747 0.00804776 1.48147e-17)
(1.00314 0.00669717 -1.53397e-17)
(0.715855 1.43974 0)
(0.641311 1.48947 -7.14138e-17)
(0.847143 1.28615 6.96241e-17)
(0.908755 1.22583 6.1883e-17)
(0.988508 2.20508 -2.75747e-17)
(0.815607 0.123257 -2.05927e-17)
(1.09784 0.12858 0)
(1.15262 0.19292 -8.77162e-17)
(1.14462 0.138063 2.40253e-19)
(0.953113 0.135985 0)
(-0.0766427 2.72594 4.82072e-17)
(-0.346161 2.6371 6.9888e-17)
(-0.759277 2.66795 4.85594e-18)
(-0.586644 0.234934 -1.03719e-17)
(0.219903 3.00623 -1.48043e-17)
(0.0597143 2.99537 0)
(0.145639 2.97788 -7.41046e-18)
(0.030304 2.72009 7.87105e-17)
(0.195922 2.74511 0)
(-0.0203398 3.06195 -4.93474e-19)
(-0.0318408 3.07365 -2.07362e-17)
(-0.00460005 3.10089 -3.10045e-17)
(-0.033179 3.11504 0)
(-0.0449144 3.05953 0)
(1.17272 2.22252 0)
(0.555575 1.0711 4.8079e-17)
(1.01202 1.05914 -3.429e-17)
(0.9685 1.16221 0)
(0.842027 1.0454 -1.28645e-17)
(1.04399 1.00432 -5.91039e-17)
(0.188162 0.416176 2.79084e-19)
(0.659892 0.348247 1.15436e-17)
(0.692034 0.314864 1.11917e-17)
(0.463465 0.453688 1.65732e-21)
(0.43589 0.400839 4.50181e-18)
(0.607877 0.388948 0)
(0.59124 0.473261 9.05373e-18)
(0.608476 0.431074 0)
(0.533418 0.421945 0)
(0.586186 0.362603 0)
(0.70174 0.66874 3.08375e-17)
(1.15161 0.326947 3.94544e-17)
(1.1675 0.455425 0)
(1.17879 0.386311 0)
(0.76393 0.232291 1.74715e-17)
(0.735349 0.639545 3.55771e-17)
(0.624637 0.56181 8.88163e-18)
(0.866281 0.433922 -7.52366e-17)
(1.00918 -0.00215043 2.97589e-17)
(1.00536 0.0111236 4.71155e-17)
(1.00677 0.0070181 0)
(1.01038 0.0153657 0)
(1.00255 -0.000980351 -2.91411e-17)
(1.0039 0.00257562 -4.50266e-17)
(1.00651 -0.000838365 0)
(0.999255 0.00179437 0)
(1.01333 0.00522651 0)
(1.01026 0.00381787 0)
(1.01666 0.00421754 0)
(1.01319 0.000311804 0)
(0.0128661 1.8547 0)
(0.0112105 1.84667 0)
(0.0319904 1.84843 -4.8334e-17)
(0.105302 1.89258 -3.69283e-17)
(0.0643327 1.90091 7.6697e-17)
(0.0512764 1.90063 2.99443e-17)
(0.0504569 1.84585 0)
(0.0577109 1.77425 7.09541e-17)
(0.032726 1.76704 0)
(0.132061 1.77126 3.70386e-17)
(0.166419 1.67795 -4.46654e-17)
(0.0651243 1.79451 6.61157e-17)
(0.110315 1.83107 -3.81021e-17)
(0.0652159 1.83864 -4.05732e-17)
(0.0905842 1.80248 -7.23256e-18)
(0.0853969 1.77982 0)
(0.119359 1.77274 -5.18445e-17)
(0.0350077 1.72147 5.98958e-18)
(0.0338196 1.68522 0)
(0.0238128 1.69542 -7.11606e-17)
(0.0233058 1.69465 0)
(0.0339794 1.67357 3.3584e-17)
(0.028492 1.67867 0)
(0.0293469 1.7653 5.29422e-17)
(0.0492153 1.77467 0)
(0.0270303 1.79188 0)
(0.0164774 1.78665 4.96983e-17)
(0.00417748 1.72201 -1.12641e-16)
(0.0354284 1.70902 -6.80238e-17)
(0.0113174 1.72249 -1.59499e-20)
(0.00450779 1.75294 7.31379e-17)
(-0.0119989 1.77937 -3.80498e-17)
(-0.00288731 1.79321 0)
(-0.00717455 1.79785 0)
(0.0365588 1.76763 2.78742e-17)
(0.0275178 1.79803 2.35513e-17)
(0.0352438 1.77962 5.9351e-17)
(0.0315681 1.7688 0)
(0.00208959 1.75317 9.90591e-17)
(-0.00510644 1.75541 1.58128e-17)
(0.0056842 1.76179 -1.84149e-17)
(0.00952172 1.76779 7.50053e-17)
(0.0147335 1.73321 -3.51799e-18)
(0.00487405 1.74076 -4.37891e-17)
(0.99858 0.0113847 4.64525e-17)
(0.997435 0.00196265 2.97172e-17)
(0.99641 0.00457896 0)
(0.985923 0.0624283 -6.7151e-17)
(0.963931 0.0438528 1.47503e-17)
(0.946239 0.0299098 -7.23683e-18)
(0.983807 0.102248 1.59878e-18)
(1.02057 0.00920764 0)
(1.02542 0.0155279 -4.58818e-17)
(1.02835 0.00822045 -2.97091e-17)
(1.02229 0.0379143 3.21427e-18)
(1.02308 0.0273163 -9.82468e-18)
(1.00091 0.0357847 0)
(0.989078 0.0337563 2.83106e-19)
(0.995014 0.0252874 0)
(0.995194 0.0277858 0)
(1.00641 0.0176522 0)
(0.99976 0.00825817 0)
(0.996558 0.026467 3.83325e-18)
(0.998946 0.0228113 2.90282e-17)
(1.01665 0.0374699 -5.60548e-18)
(0.99712 0.0281727 9.93851e-18)
(0.998105 0.0538008 2.61656e-17)
(1.03168 0.052864 0)
(1.03152 0.091859 0)
(0.00731734 1.76021 -5.06956e-17)
(0.0268211 1.74029 -7.75085e-19)
(0.00287925 1.75418 0)
(0.0152543 1.76621 -5.20946e-17)
(0.0144322 1.77059 8.54797e-18)
(0.0139197 1.76193 -3.74078e-18)
(0.00204817 1.76013 -7.46162e-17)
(0.00941209 1.75587 -1.33799e-19)
(0.00976173 1.75158 -4.97216e-18)
(-0.00359309 1.75672 3.29817e-17)
(0.00103923 1.76161 3.18877e-17)
(0.00704027 1.76781 -2.21521e-17)
(0.000423999 1.76859 -3.75295e-17)
(0.148402 1.75604 2.47495e-17)
(0.13354 1.79106 -8.63858e-18)
(0.575261 1.58853 -7.93303e-17)
(0.387418 1.7426 3.72233e-17)
(0.466843 1.66236 0)
(0.336017 1.50655 -3.70631e-18)
(0.383087 1.44753 -6.84231e-19)
(0.202418 1.55721 -7.07492e-18)
(0.202526 1.6011 -3.12615e-17)
(0.269118 1.62147 -2.82823e-17)
(0.283973 1.52705 0)
(0.217243 1.54569 -1.1791e-17)
(0.0638607 1.62866 6.47467e-21)
(0.118231 1.60478 5.94436e-17)
(0.0528341 1.61538 7.34959e-18)
(0.729961 1.69689 -3.51103e-17)
(0.546968 1.51443 0)
(1.0182 -0.00397047 -2.31631e-19)
(1.00115 -0.0110989 2.87004e-19)
(1.00326 -0.01179 -7.02042e-18)
(1.02437 -0.00312291 -1.55489e-17)
(1.02303 -0.00188279 0)
(0.600583 1.23142 0)
(0.625603 1.14415 0)
(0.741359 1.18221 0)
(0.709981 1.05468 0)
(0.977159 2.24637 2.77864e-17)
(0.87567 2.02776 0)
(0.607026 2.26865 -1.06516e-18)
(0.445072 2.082 0)
(0.542724 2.16547 7.14308e-17)
(0.617695 2.17149 6.4137e-17)
(0.813315 0.152206 0)
(0.800003 0.156168 -1.15948e-18)
(0.876579 0.131873 7.82867e-18)
(0.827185 0.119862 -2.72351e-17)
(0.836483 0.0931663 3.50705e-19)
(1.00296 0.240305 -2.45123e-17)
(0.880804 0.312574 2.74679e-17)
(0.847136 0.289628 2.39404e-17)
(0.928182 0.212037 1.1388e-17)
(0.888779 0.162948 3.94839e-17)
(0.880458 0.178031 -1.06327e-17)
(0.892344 0.243473 1.8346e-18)
(0.868773 0.209953 0)
(0.94607 0.181713 2.05202e-17)
(0.981161 0.175919 0)
(0.966528 0.232082 0)
(1.0367 0.128477 -1.24989e-17)
(0.995803 0.181051 3.02283e-17)
(0.989711 0.213786 2.07605e-17)
(1.05105 0.209421 0)
(0.99318 0.0284957 -3.61669e-17)
(0.99684 0.0301016 2.81852e-17)
(1.00016 0.0350299 -2.41451e-17)
(1.00855 0.050157 4.20757e-17)
(0.988863 0.0576444 -5.20558e-17)
(0.921399 0.132847 0)
(0.94806 0.0796317 0)
(0.938276 0.0486315 4.3156e-17)
(0.913754 0.053516 8.16314e-18)
(1.00264 0.108429 -3.82175e-17)
(1.00358 0.141337 -2.41348e-17)
(1.00697 0.158099 -9.9284e-18)
(0.986759 0.158778 0)
(1.00976 0.0982164 0)
(1.00447 0.0877163 3.48408e-17)
(0.998265 0.0910487 -2.45377e-17)
(0.718692 1.45176 2.53458e-17)
(0.767324 1.83051 -1.94203e-17)
(0.98184 2.35526 1.92251e-17)
(1.04784 2.57201 -2.43582e-18)
(1.05366 2.31379 -2.48066e-17)
(1.13823 2.32427 4.53833e-18)
(1.0936 2.03885 7.91575e-18)
(1.06456 2.49128 -1.45038e-17)
(1.05266 2.48858 -1.47923e-17)
(1.10675 2.65855 -1.5738e-18)
(1.22615 2.52054 2.62816e-18)
(1.29198 2.45398 0)
(0.525229 1.11817 -3.25722e-18)
(-0.186016 1.43233 -1.42354e-17)
(0.0432737 0.617822 -6.72765e-18)
(-0.114407 0.813482 -1.69307e-17)
(0.359282 0.453607 -8.56575e-18)
(0.371412 0.505043 2.82845e-18)
(0.319156 0.589922 -6.15807e-18)
(0.230173 0.485525 2.46213e-18)
(0.334111 0.384748 -7.10953e-18)
(0.743555 0.268681 2.35297e-17)
(0.700502 0.305334 0)
(0.727021 0.270897 5.91548e-18)
(0.596433 0.563402 -1.14234e-17)
(0.523083 0.534586 1.31816e-17)
(0.426979 0.587618 -5.65568e-18)
(0.502906 0.482169 0)
(0.594903 0.925602 -2.39212e-17)
(0.771437 0.858321 4.5612e-17)
(0.708742 1.0217 4.96205e-17)
(0.800338 0.866743 1.29801e-17)
(0.919972 0.902611 -4.09748e-18)
(0.914712 0.941823 -5.52243e-18)
(0.774549 0.745005 5.1584e-18)
(0.834173 0.788106 9.49676e-18)
(0.936402 0.823853 0)
(0.936685 0.724354 2.50915e-17)
(0.935586 0.325953 4.88038e-17)
(1.06243 0.314077 -1.95473e-17)
(0.985195 0.28774 -4.84799e-17)
(0.9024 0.398094 4.6219e-17)
(0.980997 0.453122 0)
(1.02134 0.426409 0)
(0.772887 0.401656 4.84271e-17)
(0.792381 0.289167 0)
(0.787844 0.28712 -1.43443e-17)
(0.830154 0.315978 6.59501e-17)
(0.828053 0.495776 -8.32672e-17)
(0.767187 0.560457 -4.79558e-19)
(0.790964 0.507414 7.77886e-18)
(0.712438 0.471 -1.40667e-18)
(0.699718 0.488061 -5.79557e-18)
(0.643988 0.468687 -7.5906e-19)
(1.01794 0.0151402 -4.59066e-17)
(1.01473 0.0023645 0)
(1.02197 0.0114907 1.02348e-17)
(1.00904 0.0195377 -1.35541e-17)
(1.01705 0.0101286 -2.31768e-17)
(1.01023 0.013513 2.86273e-18)
(1.00346 0.0069993 0)
(1.00694 -0.00223517 1.26192e-17)
(1.01641 0.00641431 -8.53971e-19)
(1.01087 0.00342141 -3.17008e-18)
(1.01186 0.00304905 8.44073e-18)
(-0.00831823 1.8223 0)
(0.0114727 1.81579 0)
(0.0197167 1.83612 0)
(0.000104205 1.83096 0)
(0.0369862 1.83271 -6.24376e-18)
(0.0270692 1.84574 -1.0403e-16)
(0.0224246 1.77764 -3.13921e-17)
(0.023078 1.84782 -8.33121e-17)
(0.0217116 1.80148 5.55819e-17)
(0.0369085 1.81834 5.90409e-17)
(0.0333907 1.83914 1.16088e-16)
(0.0274241 1.83847 5.57701e-17)
(0.0180577 1.82241 9.83233e-18)
(0.00994314 1.82964 1.48428e-18)
(0.026841 1.69394 -6.64537e-17)
(0.0400033 1.70037 0)
(0.0267215 1.72541 -3.96193e-17)
(0.0209242 1.76828 -5.12679e-18)
(0.0893285 1.71224 -1.72219e-17)
(0.0742654 1.63644 0)
(0.0839178 1.63764 5.31864e-17)
(0.107277 1.6585 4.69413e-17)
(0.065645 1.71596 -5.98547e-17)
(0.0472605 1.72098 -7.99224e-17)
(0.0195954 1.64234 0)
(0.0315593 1.74834 3.1899e-17)
(0.0219604 1.71886 -2.04064e-17)
(0.0270095 1.74553 0)
(0.0380648 1.72232 2.03336e-17)
(0.0244951 1.72868 1.6577e-17)
(0.00199192 1.78011 9.14735e-18)
(-0.00344717 1.77683 -9.61614e-17)
(-0.0124775 1.77339 -6.41701e-17)
(-0.017175 1.7672 4.4755e-17)
(0.00354364 1.7625 0)
(0.0162022 1.77961 0)
(0.00498343 1.78062 -3.79679e-17)
(0.00286757 1.76948 -3.48824e-18)
(0.00656136 1.77623 0)
(-0.00272492 1.79129 3.19796e-17)
(0.000833049 1.78435 1.11929e-18)
(1.01058 0.027901 0)
(1.01374 0.0254457 2.643e-19)
(0.997905 0.0182618 4.30846e-17)
(1.01177 0.0187614 0)
(1.00877 0.0124554 0)
(1.00628 0.00136506 2.0682e-17)
(1.0065 0.00860247 -5.30073e-17)
(1.00108 0.00425785 -1.69711e-17)
(1.00044 0.00418107 0)
(1.00675 0.00776976 0)
(0.999707 0.0137137 2.82154e-17)
(0.997709 0.0147183 0)
(1.00575 0.0113427 0)
(-0.00686165 1.76056 0)
(0.0021169 1.76592 -3.99815e-17)
(0.00355934 1.75011 4.12402e-17)
(0.00395313 1.76518 0)
(0.00844619 1.77501 -3.7864e-17)
(2.25054e-06 1.77205 -1.82788e-17)
(-0.00200572 1.76857 0)
(0.198678 1.97381 0)
(0.0750911 1.82223 2.36302e-17)
(0.108482 1.84037 0)
(0.109549 1.75557 7.82903e-17)
(0.237578 1.59024 0)
(0.189843 1.72568 3.35002e-17)
(0.788162 2.15749 -2.59341e-19)
(0.743289 1.76683 -2.48451e-17)
(0.764879 1.71952 -2.13815e-17)
(0.581661 1.55866 -7.95897e-18)
(0.520236 1.89927 0)
(0.574388 1.9757 0)
(0.69475 1.65621 0)
(0.66544 1.53677 -2.80549e-18)
(0.300338 2.00606 -3.702e-17)
(0.439552 1.90316 3.80504e-18)
(0.38412 2.06803 2.40873e-18)
(0.430468 1.47666 0)
(0.50216 1.49635 0)
(0.481517 1.45151 8.87369e-19)
(0.42509 1.77252 0)
(0.784238 1.06497 0)
(0.691794 1.13492 -6.04895e-17)
(0.674932 1.06882 -5.72723e-18)
(0.748082 1.10771 0)
(0.73246 1.19201 -7.04261e-17)
(0.745648 1.04817 -9.40623e-18)
(0.792957 1.13971 0)
(0.795612 1.07113 -2.90786e-17)
(0.758288 1.13811 0)
(0.687269 1.09241 0)
(0.915404 2.38787 1.37646e-17)
(0.939557 2.43425 -9.38097e-18)
(0.798657 2.23805 -3.88659e-17)
(0.751226 2.23081 -2.76011e-18)
(0.886473 2.31677 0)
(0.81105 2.31515 -4.83913e-18)
(0.839716 2.11541 -4.54329e-18)
(0.796151 1.91745 -7.38368e-18)
(0.454864 1.96334 0)
(0.519512 1.36146 3.03135e-17)
(0.532972 1.34514 0)
(0.829654 0.201664 0)
(0.795597 0.192688 0)
(0.769562 0.200526 0)
(0.825483 0.241323 -6.81054e-18)
(0.771883 0.2269 4.56361e-18)
(0.918202 0.0774077 1.31269e-17)
(0.901676 0.118476 0)
(0.873066 0.100486 -8.68986e-19)
(0.855522 0.0795093 -5.12955e-18)
(0.870721 0.0535983 -4.62003e-18)
(1.08322 2.79215 -1.51539e-17)
(1.03917 2.70044 0)
(0.981712 2.86378 -5.21667e-17)
(0.627551 3.06485 -2.8825e-17)
(0.778555 2.5934 1.21457e-17)
(0.520418 1.24966 -2.49111e-17)
(0.619022 1.15162 0)
(0.256112 0.843313 6.67792e-18)
(0.278199 0.968009 3.9266e-17)
(0.200347 0.798147 9.69564e-18)
(0.273672 0.636307 4.8977e-18)
(0.490647 0.606381 -8.91711e-18)
(0.528846 0.65198 0)
(0.479066 0.77872 0)
(0.363678 0.741047 0)
(0.91567 0.669772 9.99634e-18)
(0.837359 0.600198 7.78731e-18)
(0.843647 0.633083 -3.27054e-18)
(0.859969 0.527701 2.01642e-17)
(0.966493 0.550554 0)
(0.949836 0.599767 -1.01925e-17)
(0.748462 0.429504 1.04953e-17)
(0.758986 0.381062 2.51877e-17)
(0.686485 0.420221 -4.37631e-18)
(0.687881 0.400075 2.6579e-18)
(0.766022 0.344535 -8.28496e-18)
(0.729488 0.334782 -1.64376e-17)
(1.01788 0.00573016 -3.66977e-17)
(1.01633 0.000497251 -3.42675e-17)
(1.02318 0.0157266 3.48969e-17)
(1.01967 0.0151949 4.94601e-17)
(1.00568 0.0230647 0)
(0.99653 0.00942512 -1.30889e-17)
(0.0484495 1.76425 2.53312e-17)
(0.0450922 1.78433 0)
(0.0278524 1.76567 -4.49335e-17)
(0.0213159 1.76364 -5.49866e-17)
(0.016534 1.77963 -3.48665e-17)
(0.0296909 1.79261 0)
(0.0254671 1.77742 0)
(0.0150116 1.77066 -1.85392e-17)
(0.00326365 1.75838 -1.91292e-17)
(-0.00129459 1.7661 -4.74509e-17)
(-0.00816801 1.76336 -9.58668e-18)
(0.0226595 1.7677 -4.1337e-18)
(0.340441 1.89756 -1.06401e-16)
(0.235617 1.91346 -1.24458e-16)
(0.158495 1.75073 7.3321e-17)
(0.149237 1.94482 -4.7473e-18)
(0.494047 1.31108 0)
(0.312639 1.53155 7.33507e-17)
(0.396541 1.39257 6.46772e-17)
(0.200613 1.52325 6.44666e-17)
(0.312735 1.52527 0)
(0.430007 1.31022 0)
(0.291891 1.94091 -4.5361e-17)
(0.346103 1.67682 -6.34872e-17)
(0.389545 1.74455 -5.30193e-17)
(0.312979 1.64608 -2.17686e-18)
(0.243556 1.81818 1.95649e-18)
(0.256642 1.6351 -1.84633e-17)
(0.757859 1.86898 -1.00447e-17)
(0.793865 1.97467 0)
(0.778694 1.81611 4.46295e-18)
(0.819255 2.24352 0)
(0.786027 2.21184 0)
(0.618417 1.9731 -2.30679e-18)
(0.987552 2.51987 -2.90677e-18)
(0.869364 2.49232 -1.15801e-18)
(0.159996 1.22747 0)
(0.207254 1.1747 -1.42484e-17)
(0.511769 1.13458 -3.40551e-17)
(0.372348 1.88326 0)
(0.373639 2.33542 6.24275e-18)
(0.201846 2.28364 0)
(0.638575 0.844103 -1.3191e-17)
(0.667481 0.820067 -4.67834e-17)
(0.684525 0.757639 -2.12689e-17)
(0.517736 0.800827 -1.6488e-18)
(0.584892 0.692223 1.71327e-18)
(0.920587 2.31644 -9.95648e-18)
(0.972939 2.32637 -7.43844e-18)
(0.696334 1.94152 8.85597e-18)
(0.74507 1.67595 2.84629e-17)
(0.866338 1.83089 3.80672e-17)
(0.95354 2.11792 -2.806e-17)
(0.923914 2.15259 -1.86828e-17)
(0.811778 1.71224 6.43102e-19)
(0.764809 1.48852 3.09539e-17)
)
;

boundaryField
{
    wall-4
    {
        type            calculated;
        value           uniform (0 0 0);
    }
    velocity-inlet-5
    {
        type            calculated;
        value           uniform (1 0 0);
    }
    velocity-inlet-6
    {
        type            calculated;
        value           uniform (0 3 0);
    }
    pressure-outlet-7
    {
        type            calculated;
        value           nonuniform List<vector> 8((-0.00640434 1.71996 0) (-0.00946262 1.68125 5.48163e-17) (0.00476304 1.76751 0) (-0.0108037 1.79036 0) (0.00316942 1.75261 0) (0.00478652 1.76336 0) (0.00227433 1.74807 0) (-0.00265686 1.77168 0));
    }
    wall-8
    {
        type            calculated;
        value           uniform (0 0 0);
    }
    frontAndBackPlanes
    {
        type            empty;
    }
}

