/*--------------------------------*- C++ -*----------------------------------*\
  =========                 |
  \\      /  F ield         | OpenFOAM: The Open Source CFD Toolbox
   \\    /   O peration     | Website:  https://openfoam.org
    \\  /    A nd           | Version:  6
     \\/     M anipulation  |
\*---------------------------------------------------------------------------*/
FoamFile
{
    version     2.0;
    format      ascii;
    class       volScalarField;
    location    "0";
    object      P_rec;
}
// * * * * * * * * * * * * * * * * * * * * * * * * * * * * * * * * * * * * * //

dimensions      [0 2 -2 0 0 0 0];

internalField   nonuniform List<scalar> 
13046
(
0.733336
0.748036
0.842378
0.745059
0.82091
0.782623
0.717932
0.783902
0.833855
0.283749
0.631029
0.832942
0.690599
0.748533
0.838707
0.370924
0.844953
0.612312
0.805562
0.808602
0.752085
0.358538
0.843464
0.618258
0.75147
0.777775
0.824858
0.672996
0.733647
0.847126
0.739279
0.739118
0.838192
0.770938
0.821482
0.773708
0.770704
0.821286
0.784847
0.763851
0.837987
0.695367
0.779983
0.805896
0.793599
0.772404
0.797359
0.806888
0.713756
0.752396
0.842236
0.827471
0.78214
0.63262
0.82811
0.603229
0.791749
0.622289
0.574212
0.856025
0.587785
0.765053
0.834995
0.839323
0.678093
0.430114
0.605413
0.61889
0.853777
0.629526
0.625107
0.853005
0.611257
0.549618
0.854819
0.800869
0.820084
0.734676
0.855193
0.49745
0.608593
0.737676
0.78098
0.826305
0.837574
0.666507
0.398102
0.410337
0.829749
0.715909
0.812403
0.368051
0.740436
0.58
0.549947
0.714447
0.710708
0.843105
0.846232
0.82772
0.421002
0.72721
0.763037
0.804713
0.802029
0.812182
0.625242
0.819672
0.776473
0.834797
0.65517
0.163298
0.825077
0.592673
0.707267
0.759038
0.83341
0.54703
0.57499
0.682884
0.847691
0.698486
0.846952
0.257533
0.618164
0.833031
0.632729
0.717691
0.849769
0.750528
0.839767
0.701071
0.808656
0.397036
0.75127
0.497351
0.712595
0.839194
0.724562
0.734683
0.837311
0.659978
0.796504
0.824214
0.781877
0.829676
0.646078
0.810434
0.647952
0.821212
0.573848
0.751648
0.834557
0.827863
0.688175
0.806799
0.810408
0.573055
0.800235
0.557845
0.807886
0.813118
0.658117
0.798821
0.816476
0.28397
0.829019
0.64408
0.199809
0.828505
0.600119
0.481344
0.699687
0.842518
0.736156
0.666374
0.846317
0.67005
0.811073
0.806939
0.829338
0.669692
0.305227
0.747692
0.678636
0.841848
0.823031
0.671982
0.809096
0.679476
0.79828
0.820284
0.745852
0.844692
0.650854
0.732095
0.843853
0.384208
0.831498
0.689902
0.819524
0.427044
0.74543
0.367155
0.72357
0.813841
0.832785
0.595343
0.766983
0.681815
0.506785
0.856951
0.600731
0.70868
0.343064
0.819483
0.757834
0.81941
0.793176
0.692106
0.731521
0.847294
0.815708
0.420852
0.752416
0.665505
0.754476
0.844783
0.824699
0.629324
0.219741
0.775547
0.584787
0.827596
0.400798
0.73085
0.818897
0.601345
0.798354
0.81926
0.629724
0.705272
0.850909
0.781927
0.463879
0.802762
0.531501
0.797932
0.80649
0.820453
0.633961
0.198162
0.772714
0.841139
0.652063
0.181933
0.830567
0.560147
0.806908
0.751926
0.804086
0.60424
0.617402
0.789937
0.797791
0.826074
0.820479
0.851353
0.464023
0.611291
0.658877
0.711467
0.846835
0.510668
0.786233
0.814536
0.519339
0.695966
0.843592
0.789952
0.782352
0.811269
0.573847
0.794252
0.817202
0.656011
0.697267
0.84984
0.66649
0.649042
0.771151
0.84002
0.639632
0.557984
0.783565
0.820416
0.488346
0.842018
0.693812
0.791959
0.829826
0.670916
0.803367
0.560519
0.810776
0.585275
0.672413
0.849078
0.775124
0.832443
0.633413
0.559288
0.540769
0.664055
0.848842
0.666513
0.850959
0.830459
0.671291
0.327393
0.599148
0.696811
0.849329
0.555675
0.821565
0.100325
0.72404
0.806282
0.806448
0.611798
0.767476
0.834864
0.834818
0.421214
0.695115
0.827705
0.581392
0.78812
0.770033
0.447939
0.808578
0.770466
0.837838
0.596848
0.744655
0.840099
0.772338
0.835026
0.404291
0.845842
0.622153
0.837667
0.585624
0.759018
0.573698
0.742228
0.838289
0.647239
0.793434
0.828101
0.635339
0.820656
0.801713
0.732562
0.765901
0.833955
0.789848
0.573562
0.817817
0.374923
0.702235
0.825206
0.76709
0.449889
0.812911
0.663414
0.850285
0.626996
0.519908
0.547356
0.644498
0.638326
0.849548
0.850407
0.824165
0.559829
0.124938
0.20484
0.833382
0.565238
0.585671
0.786219
0.817622
0.831607
0.364951
0.677487
0.621198
0.599798
0.645066
0.651814
0.853543
0.853375
0.809327
0.699606
0.280797
0.162316
0.831142
0.539946
0.760796
0.796244
0.813447
0.155109
0.571951
0.827183
0.715753
0.680049
0.846532
0.315541
0.679634
0.827053
0.572189
0.814263
0.0398823
0.774377
0.835139
0.704901
0.730785
0.809464
0.812629
0.268309
0.835873
0.606319
0.716306
0.809912
0.81325
0.769617
0.797596
0.810173
0.784796
0.560041
0.827215
0.718863
0.826176
0.797885
0.731545
0.811865
0.799932
0.686797
0.624046
0.848746
0.840727
0.838855
0.632905
0.638475
0.333207
0.325102
0.344674
0.698746
0.821884
0.854431
0.64852
0.6132
0.758895
0.838965
0.673938
0.526868
0.801254
0.796503
0.621335
0.80899
0.0976516
0.814816
0.353117
0.728121
0.220049
0.828879
0.61466
0.814932
0.55619
0.0257752
0.530931
0.819652
0.0580678
0.766953
0.532334
0.822634
0.672002
0.806133
0.201214
0.477331
0.716326
0.836664
0.325245
0.84434
0.579993
0.699965
0.832767
0.771437
0.709291
0.811793
0.305634
0.540097
0.79306
0.807563
0.778038
0.505711
0.821128
0.815385
0.487343
-0.0528458
0.573644
0.818553
0.0820616
0.721004
0.832245
0.773242
0.687283
0.275338
0.813609
0.808104
0.254165
0.694988
0.37203
0.834386
0.666885
0.849246
0.628585
0.450729
0.703987
0.606961
0.851339
0.635471
0.57395
0.855522
0.850881
0.413151
0.598972
0.694836
0.677516
0.699178
0.690698
0.847804
0.848446
0.711857
0.692826
0.846332
0.636365
0.630025
0.856426
0.770818
0.475858
0.814156
0.699353
0.338614
0.825192
0.818303
0.459684
0.753973
0.534825
0.82201
0.0844954
0.76397
0.753848
0.839604
0.717722
0.839869
0.729752
0.675064
0.687945
0.850241
0.648948
0.852431
0.654304
0.590088
0.809465
0.0496912
0.688467
0.299161
0.816761
0.749771
0.838327
0.643813
0.788875
0.488722
0.803511
0.850322
0.628226
0.472448
0.605844
0.144104
0.820262
0.621611
0.161149
0.818589
0.60442
0.662452
0.854231
0.801658
0.824426
0.680878
0.342815
0.834421
0.65576
0.765239
0.506341
0.82779
0.844362
0.676436
0.461658
0.705128
0.850864
0.644881
0.61562
0.80766
0.810249
0.769659
0.837719
0.679862
0.831787
0.658738
0.316428
0.516954
0.682068
0.847083
0.775728
0.834267
0.716272
0.37974
0.849353
0.588311
0.714129
0.718089
0.844706
0.695618
0.798875
0.826249
0.780844
0.526057
0.818735
0.248739
0.838899
0.56897
0.270468
0.841591
0.566479
0.846592
0.664642
0.458601
0.600716
0.814588
0.80247
0.836804
0.554224
0.214705
0.834403
0.709563
0.445757
0.811497
0.548495
-0.0018479
0.0344942
0.503271
0.820663
0.85025
0.613506
0.421836
0.826544
0.645145
0.257243
0.36759
0.396353
0.83956
0.638408
0.841115
0.650364
0.442489
0.718844
0.831023
0.806916
0.79808
0.495873
0.762615
0.829904
0.751936
0.464742
0.740131
0.82858
0.826771
0.478429
0.751313
0.437766
0.852136
0.596945
0.663387
0.635449
0.85396
0.697715
0.67459
0.845636
0.534591
0.750229
0.836512
0.519645
0.751473
0.832706
0.784144
0.825924
0.734288
0.670886
0.673979
0.852488
0.80764
0.717517
0.312947
0.151856
0.813687
0.63436
0.126342
0.810027
0.636153
0.741959
0.84386
0.689506
0.598448
0.816266
0.108218
0.488345
0.847363
0.666516
0.812322
0.606054
0.0860293
0.752784
0.817205
0.792689
0.63913
0.740856
0.840686
0.819141
0.614797
0.798608
0.808351
0.678429
0.231338
0.76904
0.510883
0.824318
0.846087
0.356801
0.59302
0.60808
0.734526
0.847219
0.769633
0.829442
0.757875
0.671672
0.245889
0.816221
0.84018
0.689645
0.43946
0.241861
0.217176
0.833776
0.831855
0.593278
0.585888
0.62398
0.783945
0.830146
0.773717
0.553265
0.820491
0.703976
0.787697
0.833862
0.650183
0.18559
0.657292
0.813961
0.182127
0.810142
0.553561
0.72129
0.845061
0.238874
0.208648
0.659919
0.650809
0.819439
0.816531
0.562409
0.779958
0.831109
0.648644
0.764611
0.836117
0.302602
0.843488
0.582506
0.630458
0.773614
0.833143
0.691437
0.784871
0.828361
0.251138
0.837393
0.584311
0.605395
0.725233
0.842861
0.814356
0.53236
0.789212
0.707171
0.632363
0.84936
0.760642
0.802908
0.412238
0.815857
0.505834
-0.0239199
0.615588
0.760381
0.837479
0.327443
0.840262
0.609629
0.845246
0.59561
0.733605
0.0960931
0.826108
0.523451
0.807441
0.798923
0.818283
0.682756
0.822679
0.673592
0.709979
0.796728
0.823476
0.785633
0.798146
0.827921
0.698734
0.827626
0.688752
0.634347
0.769359
0.839649
0.650478
0.775905
0.836323
0.806928
0.649203
0.146091
0.728881
0.702267
0.84203
0.264967
0.658952
0.824858
0.520082
0.493017
0.737871
0.730257
0.834422
0.832252
0.728095
0.716256
0.842579
0.640781
0.661859
0.851389
0.564718
0.741112
0.842202
0.78038
0.768169
0.818098
0.488111
0.740607
0.830651
0.763628
0.829152
0.748043
0.573912
0.770407
0.833315
0.641723
0.677337
0.850436
0.775514
0.781524
0.754824
0.828183
0.748487
0.82747
0.79058
0.819899
0.800657
0.730845
0.8284
0.700095
0.698057
0.684399
0.710223
0.721161
0.846995
0.845052
0.847651
0.643257
0.457278
0.785275
0.558775
0.819333
0.848117
0.84574
0.637094
0.650495
0.427631
0.425148
0.766989
0.837364
0.61236
0.785639
0.810822
0.784122
0.475996
0.729591
0.83314
0.753841
0.838303
0.711408
0.625898
0.679574
0.850938
0.506018
0.512132
0.640925
0.852454
0.65483
0.850033
0.525925
0.722483
0.839004
0.123052
0.541663
0.827175
0.8412
0.601701
0.745172
0.720561
0.727711
0.846788
0.611122
0.84858
0.614977
0.47961
0.763316
0.820094
0.658604
0.659588
0.851968
0.756947
0.838816
0.623328
0.730174
0.727978
0.843526
0.849431
0.646649
0.647316
0.719976
0.848371
0.627654
0.535643
0.732866
0.839781
0.776989
0.826857
0.744942
0.291015
0.836107
0.608976
0.747485
0.841438
0.613799
0.630798
0.604508
0.692545
0.684524
0.847782
0.852783
0.838772
0.618419
0.314119
0.305541
0.841989
0.595706
0.281497
0.838141
0.595461
0.485535
0.849319
0.654579
0.673735
0.671699
0.850927
0.741922
0.829275
0.856654
0.744493
0.85771
0.635085
0.849488
0.756854
0.785072
0.856274
0.855527
0.784392
0.754822
0.855974
0.842374
0.773097
0.748055
0.836026
0.833423
0.852113
0.845395
0.829464
0.855526
0.846422
0.861202
0.829241
0.860829
0.790895
0.847867
0.747957
0.796595
0.84828
0.844075
0.844048
0.807596
0.850653
0.859707
0.855956
0.761353
0.792691
0.827009
0.825513
0.811843
0.854673
0.833764
0.839114
0.841379
0.827859
0.784628
0.816238
0.858901
0.845186
0.775238
0.843302
0.793771
0.857609
0.853975
0.845066
0.830202
0.854046
0.816039
0.813735
0.860888
0.763118
0.848694
0.854005
0.846927
0.856986
0.855952
0.826974
0.798685
0.805248
0.805397
0.853395
0.801641
0.842745
0.813474
0.806273
0.848245
0.855573
0.832032
0.847336
0.781446
0.781754
0.842086
0.850664
0.841609
0.749884
0.843533
0.858
0.781786
0.856087
0.861204
0.843734
0.76231
0.599992
0.805098
0.829901
0.761493
0.796797
0.849606
0.856474
0.835305
0.854742
0.776369
0.73939
0.785885
0.78584
0.806863
0.859801
0.856727
0.849976
0.791027
0.809299
0.794927
0.831311
0.843554
0.751395
0.791928
0.833627
0.844286
0.852466
0.850708
0.853831
0.836635
0.803792
0.788522
0.859946
0.717181
0.852658
0.797673
0.855602
0.782404
0.680025
0.735767
0.855652
0.841261
0.783038
0.802617
0.848141
0.768547
0.85129
0.808906
0.795914
0.839124
0.84205
0.778581
0.857019
0.803742
0.84281
0.783215
0.829583
0.76196
0.8598
0.855203
0.840361
0.854386
0.850657
0.856752
0.815354
0.80152
0.79434
0.83593
0.715993
0.782762
0.786861
0.83974
0.835753
0.847251
0.858161
0.845861
0.860499
0.860523
0.857699
0.777191
0.79523
0.786981
0.856551
0.786474
0.778833
0.706947
0.778945
0.837655
0.837197
0.84648
0.859227
0.855108
0.827798
0.854929
0.834722
0.82892
0.672977
0.835681
0.806839
0.796732
0.852358
0.85122
0.804554
0.828236
0.841026
0.84808
0.742622
0.804741
0.853527
0.858937
0.81473
0.783215
0.830969
0.83844
0.827608
0.821202
0.760517
0.70544
0.79996
0.806425
0.800612
0.792797
0.750756
0.856404
0.841793
0.794939
0.842855
0.778722
0.776964
0.852612
0.852407
0.772884
0.781624
0.732988
0.852351
0.803108
0.837635
0.849952
0.844031
0.788037
0.849671
0.825239
0.787721
0.794214
0.856438
0.847788
0.84745
0.858028
0.825415
0.767819
0.785891
0.841889
0.843254
0.774633
0.795627
0.846946
0.853152
0.853976
0.848555
0.779823
0.841232
0.81011
0.846931
0.825651
0.803272
0.839857
0.828757
0.699715
0.782185
0.802288
0.778027
0.811776
0.851002
0.835122
0.845017
0.852551
0.758915
0.83934
0.820874
0.842369
0.836579
0.833877
0.849693
0.787093
0.778079
0.832948
0.78396
0.782988
0.847462
0.687663
0.783428
0.8565
0.85048
0.796122
0.795769
0.79702
0.847205
0.755578
0.696679
0.76701
0.837743
0.844918
0.839419
0.63688
0.771457
0.856721
0.827219
0.739717
0.777498
0.787285
0.794251
0.782476
0.841722
0.854463
0.795558
0.788489
0.813574
0.815396
0.828914
0.731875
0.854846
0.83726
0.685823
0.791071
0.782058
0.795068
0.852103
0.838481
0.853525
0.81559
0.769382
0.830702
0.845767
0.849692
0.817366
0.859004
0.854242
0.821219
0.849558
0.841474
0.811174
0.788221
0.828772
0.753361
0.827484
0.827949
0.796888
0.769167
0.767068
0.767015
0.74944
0.85679
0.777579
0.802385
0.850956
0.841825
0.784627
0.775495
0.860337
0.83028
0.681468
0.82675
0.79584
0.786818
0.856734
0.821775
0.809887
0.844545
0.798141
0.838062
0.793567
0.848374
0.830947
0.817543
0.611614
0.775435
0.797309
0.83253
0.838713
0.84058
0.837202
0.85909
0.763221
0.795543
0.76147
0.720921
0.789016
0.855089
0.812961
0.8334
0.804188
0.834946
0.783147
0.746141
0.768152
0.792323
0.796904
0.860989
0.818824
0.822669
0.858438
0.854111
0.837088
0.860342
0.749561
0.808806
0.786669
0.844603
0.839065
0.849401
0.826096
0.837198
0.797017
0.826634
0.781409
0.728526
0.847371
0.817682
0.720815
0.772622
0.792156
0.770057
0.797299
0.832278
0.842507
0.77507
0.802814
0.788657
0.792206
0.788825
0.810572
0.749557
0.794416
0.857325
0.856842
0.854509
0.837555
0.840867
0.677359
0.853548
0.84641
0.776717
0.858795
0.661094
0.85343
0.804434
0.840635
0.817872
0.853126
0.828405
0.76242
0.849916
0.761468
0.857681
0.842627
0.796185
0.808155
0.747014
0.817321
0.857878
0.804144
0.848267
0.85233
0.786987
0.736567
0.853938
0.670015
0.838269
0.840537
0.78329
0.860032
0.714892
0.710823
0.851272
0.829904
0.853874
0.85005
0.838318
0.850962
0.859801
0.85532
0.851132
0.850662
0.784708
0.813922
0.833948
0.857418
0.812991
0.65601
0.851031
0.801168
0.840494
0.811764
0.858362
0.832388
0.813534
0.854739
0.826972
0.859719
0.770893
0.855737
0.837268
0.857076
0.848686
0.851598
0.810271
0.835567
0.773211
0.762954
0.836533
0.810146
0.832925
0.744666
0.667613
0.785732
0.815559
0.836659
0.81895
0.859749
0.814001
0.77732
0.824701
0.784459
0.857006
0.751421
0.836746
0.843141
0.857626
0.822174
0.849689
0.765016
0.841066
0.855008
0.789335
0.753566
0.839721
0.815729
0.852074
0.855331
0.814144
0.783312
0.831132
0.793393
0.777475
0.858182
0.858057
0.850338
0.752583
0.858086
0.836487
0.859657
0.79317
0.848
0.839722
0.845868
0.839116
0.755524
0.789187
0.809031
0.650083
0.856439
0.843365
0.841306
0.855722
0.851123
0.826646
0.838136
0.835311
0.859781
0.855816
0.835922
0.837524
0.820872
0.849168
0.838878
0.804304
0.809687
0.816337
0.814205
0.843951
0.798808
0.853422
0.856923
0.789096
0.856112
0.789811
0.776487
0.795313
0.854003
0.828811
0.837139
0.844327
0.854961
0.838769
0.845398
0.855241
0.799635
0.791654
0.770008
0.778829
0.781876
0.584486
0.784356
0.789908
0.8444
0.787321
0.810605
0.84274
0.833722
0.781491
0.798955
0.810447
0.603393
0.858832
0.819002
0.844131
0.787344
0.815716
0.838423
0.754184
0.848612
0.785568
0.854822
0.814902
0.856895
0.748486
0.702107
0.808239
0.814105
0.820699
0.845508
0.705459
0.841642
0.81689
0.779413
0.757545
0.801411
0.809475
0.856111
0.749101
0.8529
0.854095
0.841552
0.794016
0.854704
0.786107
0.585231
0.839426
0.790785
0.783123
0.854182
0.854804
0.842099
0.845759
0.820101
0.856374
0.859769
0.840902
0.817855
0.850812
0.859379
0.850853
0.841928
0.838731
0.854147
0.790627
0.788941
0.856696
0.853758
0.858203
0.832103
0.819425
0.795353
0.854906
0.852049
0.55189
0.821231
0.837942
0.775864
0.843547
0.82439
0.856807
0.840393
0.840466
0.796262
0.849781
0.857246
0.837405
0.856428
0.858495
0.703552
0.776506
0.821796
0.784586
0.70178
0.792009
0.837871
0.855113
0.79638
0.827701
0.754363
0.804708
0.840328
0.843114
0.794538
0.788785
0.785588
0.830655
0.801532
0.796617
0.839354
0.845969
0.850746
0.779453
0.84908
0.805025
0.789135
0.837963
0.85502
0.841531
0.831806
0.78031
0.852635
0.791206
0.859786
0.852337
0.856274
0.853083
0.781985
0.780526
0.842477
0.783797
0.787019
0.800094
0.796168
0.780187
0.837762
0.840848
0.786659
0.856285
0.811479
0.830448
0.837955
0.851711
0.848327
0.85042
0.832938
0.789806
0.854559
0.756632
0.853697
0.784593
0.846332
0.856068
0.855018
0.851878
0.855932
0.840574
0.777271
0.793046
0.838127
0.8024
0.85965
0.777051
0.749317
0.826786
0.822916
0.811102
0.789179
0.834356
0.853187
0.847945
0.669637
0.806213
0.733862
0.758412
0.838396
0.825754
0.840473
0.83354
0.856958
0.780743
0.858831
0.842088
0.747874
0.851101
0.81498
0.854797
0.839697
0.83661
0.776324
0.797106
0.840916
0.852067
0.805687
0.832089
0.840411
0.850075
0.833656
0.831021
0.806269
0.841035
0.784962
0.777743
0.726737
0.843599
0.786755
0.79806
0.782738
0.799505
0.858946
0.825413
0.840715
0.857108
0.839258
0.741298
0.838112
0.765607
0.819924
0.847464
0.802438
0.789135
0.816192
0.841954
0.764199
0.803779
0.726776
0.7888
0.846458
0.734211
0.797433
0.85251
0.78261
0.786306
0.840148
0.853925
0.821389
0.768742
0.842651
0.797425
0.802312
0.840724
0.816412
0.842023
0.848017
0.86066
0.811693
0.854897
0.847208
0.852323
0.857083
0.851057
0.746231
0.798144
0.828256
0.778829
0.857389
0.857199
0.852488
0.845856
0.780496
0.78603
0.830757
0.857297
0.763459
0.851548
0.848903
0.853349
0.774225
0.772213
0.77924
0.742829
0.844897
0.763229
0.849918
0.799248
0.850924
0.779105
0.842005
0.787079
0.837437
0.848066
0.844246
0.826079
0.84967
0.857108
0.860106
0.847562
0.818306
0.854354
0.849066
0.802159
0.812111
0.84014
0.797492
0.858963
0.823658
0.84803
0.854254
0.856148
0.803405
0.723903
0.859952
0.815053
0.820675
0.834497
0.847618
0.854695
0.85564
0.81525
0.844399
0.782485
0.806101
0.842123
0.852541
0.837125
0.846334
0.828441
0.860755
0.832074
0.80144
0.856939
0.844015
0.77381
0.805581
0.859308
0.831054
0.785853
0.803898
0.860922
0.822516
0.840408
0.855718
0.857711
0.853121
0.84647
0.787627
0.851622
0.807552
0.824587
0.857516
0.84389
0.780229
0.766282
0.82433
0.849381
0.794924
0.773175
0.851121
0.825475
0.83678
0.851736
0.78249
0.783819
0.817088
0.849213
0.858826
0.843878
0.842019
0.735233
0.843295
0.809685
0.833507
0.856933
0.858962
0.773032
0.781863
0.834838
0.85428
0.858624
0.855368
0.851504
0.808874
0.810765
0.782208
0.786203
0.854094
0.846817
0.702132
0.78627
0.854219
0.8372
0.774096
0.786125
0.845274
0.810588
0.845223
0.850343
0.836375
0.856154
0.852607
0.839909
0.851708
0.820057
0.813835
0.828946
0.847051
0.814365
0.852246
0.705006
0.837035
0.690693
0.826593
0.856873
0.844721
0.856523
0.854698
0.857225
0.804999
0.823249
0.84149
0.744792
0.85622
0.835884
0.797802
0.850415
0.642224
0.787018
0.837386
0.852211
0.859809
0.784992
0.782648
0.840357
0.850246
0.713734
0.801529
0.81726
0.716026
0.766105
0.837564
0.768687
0.842343
0.786037
0.842761
0.851118
0.646385
0.831618
0.836019
0.805048
0.779711
0.838421
0.80486
0.819711
0.787197
0.833175
0.824319
0.812598
0.839829
0.857394
0.803998
0.777805
0.815134
0.784638
0.792659
0.839134
0.73987
0.806805
0.805039
0.834745
0.846634
0.829733
0.833845
0.699398
0.841641
0.841839
0.811365
0.853274
0.825271
0.832939
0.7198
0.703582
0.847873
0.780945
0.83559
0.852652
0.805783
0.844332
0.699037
0.849039
0.817625
0.855841
0.818035
0.820834
0.837583
0.789214
0.809782
0.815802
0.860262
0.785089
0.773574
0.835314
0.86037
0.855611
0.731739
0.819342
0.816859
0.835281
0.81252
0.859073
0.855777
0.854239
0.852831
0.848976
0.797712
0.781378
0.855697
0.799786
0.82339
0.733686
0.76963
0.790112
0.775828
0.847219
0.707919
0.852403
0.802866
0.85024
0.831619
0.844293
0.855706
0.817641
0.852195
0.856857
0.854847
0.84027
0.855954
0.803778
0.84287
0.77662
0.803803
0.860057
0.709329
0.846683
0.851427
0.838706
0.83099
0.826552
0.844398
0.845093
0.840909
0.78713
0.785716
0.844304
0.84025
0.733254
0.853389
0.774232
0.84194
0.781544
0.826465
0.842304
0.855361
0.857061
0.787205
0.846336
0.839347
0.832989
0.857112
0.744639
0.765832
0.85982
0.78289
0.805205
0.856814
0.856405
0.845498
0.771385
0.794331
0.796491
0.791433
0.747071
0.83849
0.815608
0.832153
0.796906
0.841325
0.821636
0.801289
0.745609
0.835732
0.831052
0.794531
0.856112
0.855696
0.760381
0.846309
0.699416
0.802941
0.72788
0.79816
0.851906
0.834535
0.838797
0.826547
0.843565
0.854311
0.84754
0.841733
0.750858
0.824354
0.809418
0.837955
0.774378
0.857945
0.820271
0.795339
0.856842
0.852888
0.77983
0.849076
0.782739
0.849233
0.848079
0.850762
0.741382
0.846757
0.833031
0.848812
0.837239
0.793701
0.780022
0.795573
0.855292
0.857323
0.85613
0.818873
0.836406
0.854379
0.825643
0.844691
0.79777
0.802912
0.842233
0.857045
0.788958
0.85839
0.843208
0.860483
0.857108
0.855398
0.840153
0.823705
0.857095
0.679609
0.852272
0.724844
0.854072
0.857439
0.843101
0.817923
0.806018
0.843336
0.726209
0.749937
0.809946
0.760643
0.857125
0.78456
0.78314
0.743553
0.777968
0.839606
0.85356
0.858618
0.783944
0.819404
0.843256
0.848849
0.815684
0.810565
0.855477
0.856322
0.84157
0.855542
0.8559
0.854305
0.782181
0.832718
0.757919
0.847173
0.857251
0.857222
0.833769
0.84468
0.821026
0.780313
0.816711
0.78348
0.792945
0.789162
0.859358
0.83635
0.835367
0.859911
0.856117
0.84611
0.846984
0.800846
0.844216
0.840728
0.855642
0.814916
0.779583
0.843901
0.844959
0.854042
0.859093
0.858177
0.773279
0.770538
0.778288
0.845298
0.857342
0.730869
0.797693
0.857848
0.790727
0.821884
0.782367
0.837787
0.849584
0.838215
0.846921
0.796927
0.841515
0.842099
0.854236
0.823021
0.798496
0.850573
0.844966
0.828075
0.857156
0.862165
0.731012
0.856468
0.790482
0.811401
0.860801
0.858441
0.83751
0.856349
0.791025
0.854789
0.803889
0.781973
0.85512
0.816308
0.852382
0.831794
0.8478
0.842597
0.850037
0.798143
0.854488
0.776389
0.855791
0.83431
0.839607
0.81348
0.772657
0.780931
0.855044
0.80023
0.827468
0.770737
0.810701
0.853673
0.854649
0.846141
0.85215
0.846379
0.796949
0.818883
0.843871
0.777019
0.803126
0.846735
0.833611
0.821114
0.7959
0.731418
0.781658
0.854687
0.814369
0.855313
0.78192
0.858454
0.842792
0.857307
0.857011
0.818179
0.85627
0.783345
0.846949
0.795785
0.844977
0.76434
0.820177
0.799114
0.778513
0.819899
0.785822
0.78004
0.789654
0.85781
0.861006
0.823994
0.770992
0.856087
0.785847
0.737746
0.835013
0.853535
0.84591
0.788198
0.789968
0.859733
0.765802
0.843581
0.766938
0.793935
0.816364
0.76869
0.858538
0.834244
0.800945
0.858239
0.859525
0.796677
0.849289
0.83415
0.859547
0.836887
0.807552
0.786381
0.852516
0.859125
0.851814
0.759297
0.785737
0.804801
0.833449
0.847321
0.856142
0.764574
0.844905
0.788284
0.848145
0.850252
0.843023
0.811814
0.84904
0.735734
0.834883
0.766759
0.830871
0.755285
0.780158
0.841642
0.857671
0.796301
0.803325
0.847077
0.813094
0.725683
0.779535
0.79341
0.832101
0.674239
0.835282
0.827797
0.84934
0.828015
0.849013
0.848371
0.712507
0.709061
0.85913
0.833699
0.727091
0.807668
0.84308
0.855633
0.848351
0.758281
0.829569
0.764724
0.84769
0.856667
0.85473
0.824594
0.855072
0.790096
0.840623
0.859721
0.786383
0.799795
0.855161
0.856191
0.79015
0.784896
0.748828
0.711564
0.751113
0.857363
0.801824
0.781944
0.754936
0.772082
0.848711
0.77019
0.79428
0.773409
0.850131
0.809291
0.848563
0.800363
0.82403
0.824466
0.836857
0.842856
0.851606
0.775368
0.846693
0.825845
0.826316
0.848382
0.808201
0.855657
0.850685
0.804804
0.849177
0.784135
0.806756
0.837816
0.850556
0.789573
0.833542
0.830818
0.840144
0.841486
0.856792
0.756104
0.790595
0.773397
0.777925
0.859258
0.801925
0.847127
0.86027
0.821665
0.715719
0.777021
0.824944
0.769123
0.83951
0.779023
0.801948
0.800763
0.855377
0.853851
0.83119
0.766877
0.813233
0.785642
0.825149
0.855361
0.847204
0.811206
0.834973
0.814365
0.845584
0.851556
0.85576
0.844812
0.85871
0.847791
0.818006
0.79738
0.782913
0.780557
0.846003
0.837808
0.792675
0.850303
0.80034
0.858185
0.851122
0.783016
0.759611
0.805965
0.828699
0.855891
0.839501
0.85357
0.837016
0.856385
0.849899
0.837371
0.797871
0.837987
0.834745
0.788569
0.809665
0.850357
0.722779
0.639776
0.847421
0.841069
0.856621
0.822886
0.787682
0.773294
0.807611
0.761327
0.814709
0.844907
0.790644
0.855103
0.823319
0.774319
0.820503
0.798053
0.771959
0.855224
0.839474
0.845346
0.771243
0.82956
0.836765
0.771985
0.806396
0.80845
0.802976
0.776495
0.717189
0.85855
0.85188
0.857339
0.850403
0.855056
0.794402
0.843123
0.824647
0.82327
0.749484
0.848342
0.835447
0.816981
0.856764
0.856231
0.850544
0.849133
0.84518
0.846963
0.785306
0.840981
0.848873
0.85285
0.822095
0.7905
0.847224
0.799788
0.801748
0.85295
0.810563
0.859251
0.795751
0.859854
0.84556
0.842487
0.796845
0.852042
0.78393
0.799922
0.810321
0.791189
0.799175
0.799178
0.799208
0.838664
0.767682
0.772831
0.830209
0.847549
0.834426
0.80774
0.849898
0.847513
0.804381
0.853535
0.855295
0.856947
0.77108
0.804185
0.829577
0.783196
0.830772
0.739721
0.841008
0.743663
0.855826
0.830585
0.840628
0.794181
0.783192
0.805388
0.838309
0.802233
0.845474
0.849104
0.843256
0.852034
0.842226
0.831801
0.793075
0.857776
0.835467
0.837367
0.854761
0.789952
0.792136
0.790764
0.854759
0.85642
0.835553
0.827983
0.801366
0.829845
0.762294
0.822319
0.776419
0.854325
0.800228
0.822941
0.839791
0.84208
0.776341
0.82213
0.827864
0.839769
0.835498
0.850888
0.835736
0.807281
0.846571
0.855922
0.834795
0.782936
0.84071
0.783422
0.832079
0.753813
0.787125
0.837383
0.731956
0.779107
0.852745
0.855644
0.779909
0.832475
0.790424
0.746243
0.787886
0.777545
0.788512
0.789637
0.79013
0.852458
0.859259
0.823124
0.854438
0.823581
0.848688
0.836984
0.858778
0.851249
0.80106
0.843333
0.856191
0.84194
0.842946
0.753364
0.856401
0.820591
0.64853
0.846003
0.855525
0.860125
0.853718
0.845758
0.841856
0.806143
0.838088
0.828734
0.835024
0.658688
0.809701
0.750058
0.836407
0.841144
0.768044
0.780525
0.801651
0.791007
0.776782
0.839342
0.829615
0.842825
0.853831
0.791796
0.858662
0.77649
0.823783
0.854047
0.82996
0.832851
0.834202
0.665824
0.793316
0.842689
0.856529
0.792802
0.805736
0.839364
0.853191
0.779094
0.859593
0.797704
0.840993
0.840218
0.821287
0.838304
0.854458
0.857412
0.757491
0.843652
0.847046
0.850797
0.769334
0.831343
0.813386
0.777864
0.794504
0.803892
0.843338
0.84163
0.850371
0.824944
0.764295
0.835254
0.791806
0.791847
0.831531
0.827988
0.770416
0.860251
0.794203
0.79927
0.791663
0.842077
0.773704
0.737063
0.844134
0.817575
0.845751
0.794079
0.75239
0.843761
0.714279
0.853792
0.845841
0.788537
0.778086
0.860266
0.789602
0.776727
0.781569
0.756076
0.806873
0.848178
0.854665
0.776059
0.803124
0.85345
0.830319
0.797155
0.791823
0.821432
0.855621
0.856782
0.790827
0.780974
0.84994
0.859988
0.841129
0.837396
0.837789
0.757256
0.839025
0.851917
0.843266
0.763044
0.854899
0.838599
0.779651
0.848856
0.781625
0.857739
0.840727
0.771007
0.837438
0.833343
0.834103
0.784999
0.844381
0.806973
0.851731
0.849779
0.853894
0.78617
0.801528
0.853491
0.847499
0.812851
0.848353
0.839569
0.791805
0.845419
0.842534
0.790516
0.700829
0.784527
0.81328
0.797233
0.787684
0.799912
0.810257
0.846726
0.774146
0.783673
0.837453
0.776768
0.856839
0.790813
0.841639
0.839192
0.780226
0.841465
0.820371
0.851019
0.845216
0.854332
0.794974
0.789617
0.858639
0.760775
0.856918
0.850877
0.838981
0.803459
0.857267
0.831532
0.786268
0.86013
0.758468
0.842717
0.856249
0.766161
0.861281
0.785392
0.837632
0.682521
0.837016
0.7797
0.84247
0.809169
0.782694
0.812215
0.776599
0.793918
0.857042
0.778187
0.829531
0.842768
0.832165
0.845762
0.849163
0.838645
0.761442
0.858685
0.835798
0.854256
0.797783
0.839329
0.847408
0.819509
0.856686
0.84096
0.843931
0.790836
0.8278
0.738946
0.778535
0.856926
0.605809
0.849407
0.849928
0.803294
0.791131
0.814567
0.855479
0.829641
0.851793
0.837596
0.841073
0.84516
0.859005
0.854603
0.776047
0.839876
0.853118
0.84324
0.847402
0.819459
0.793356
0.785592
0.821149
0.843068
0.820559
0.861056
0.782073
0.798933
0.830423
0.811257
0.841938
0.852632
0.790807
0.804813
0.805101
0.818567
0.788453
0.854948
0.766354
0.817318
0.837954
0.818088
0.771257
0.766499
0.847707
0.766054
0.776247
0.855355
0.841469
0.80642
0.776798
0.780575
0.80243
0.855104
0.856185
0.809953
0.842355
0.843078
0.85943
0.853637
0.798642
0.856347
0.810041
0.837473
0.851282
0.855516
0.844205
0.856419
0.853917
0.763084
0.745462
0.828951
0.802508
0.815059
0.697918
0.705248
0.853729
0.855797
0.788442
0.857207
0.842619
0.853949
0.836578
0.785024
0.857588
0.855435
0.843013
0.762761
0.783822
0.843808
0.848379
0.832451
0.779709
0.814299
0.848045
0.856629
0.846968
0.82239
0.8089
0.852228
0.820555
0.813146
0.84673
0.821696
0.848354
0.693528
0.857514
0.832515
0.842055
0.856385
0.77994
0.788278
0.79912
0.786719
0.858078
0.787702
0.834697
0.697282
0.802015
0.819177
0.791053
0.778775
0.828384
0.773314
0.787602
0.832783
0.824967
0.854174
0.792217
0.843256
0.857116
0.80556
0.847656
0.844259
0.853056
0.840676
0.80374
0.853987
0.778798
0.785133
0.849114
0.855752
0.855899
0.841891
0.749818
0.845447
0.840547
0.817856
0.855054
0.843273
0.851992
0.85292
0.78338
0.786055
0.844302
0.776916
0.844165
0.842959
0.774837
0.857259
0.839425
0.85194
0.834996
0.841895
0.771966
0.817547
0.844278
0.794317
0.843916
0.8498
0.809799
0.842229
0.827372
0.838685
0.847542
0.842232
0.77522
0.854461
0.753339
0.688313
0.810323
0.851044
0.786184
0.857585
0.800907
0.75063
0.840092
0.847824
0.853967
0.655892
0.844732
0.845381
0.856255
0.817086
0.859357
0.847455
0.785265
0.841933
0.824504
0.825798
0.782734
0.845365
0.841617
0.786262
0.782881
0.843816
0.828121
0.782178
0.834989
0.856302
0.778417
0.856461
0.792805
0.745743
0.762503
0.842485
0.832477
0.785536
0.752762
0.780014
0.842357
0.83986
0.855092
0.812157
0.85667
0.767431
0.842969
0.785506
0.787375
0.784407
0.845779
0.838063
0.788461
0.794986
0.858154
0.818617
0.852353
0.85251
0.806461
0.834296
0.84197
0.815946
0.85478
0.84279
0.844337
0.817363
0.785888
0.837623
0.81215
0.860825
0.819722
0.798786
0.743675
0.794047
0.84226
0.853895
0.832881
0.852487
0.835238
0.801042
0.814155
0.763207
0.80709
0.798048
0.854545
0.775539
0.792837
0.785309
0.851198
0.834689
0.787661
0.778297
0.759968
0.853818
0.814077
0.796415
0.782411