/*--------------------------------*- C++ -*----------------------------------*\
  =========                 |
  \\      /  F ield         | OpenFOAM: The Open Source CFD Toolbox
   \\    /   O peration     | Website:  https://openfoam.org
    \\  /    A nd           | Version:  6
     \\/     M anipulation  |
\*---------------------------------------------------------------------------*/
FoamFile
{
    version     2.0;
    format      ascii;
    class       volVectorField;
    location    "./ITHACAoutput/Offline/1";
    object      U_rec;
}
// * * * * * * * * * * * * * * * * * * * * * * * * * * * * * * * * * * * * * //

dimensions      [0 1 -1 0 0 0 0];

internalField   nonuniform List<vector> 
13046
(
(0.470337 0.245197 0)
(0.395995 0.0168879 4.04046e-21)
(0.168237 -0.0187137 8.89854e-21)
(0.44275 0.184127 0)
(0.193861 0.0440772 8.09977e-21)
(0.332233 -0.00706157 0)
(0.482612 0.20461 -1.18761e-21)
(0.34395 -0.0273428 -2.05989e-21)
(0.17572 0.046072 8.92679e-21)
(0.80141 0.410409 -3.55992e-21)
(0.543182 -0.165656 0)
(-0.00902526 -0.0480083 -5.83222e-21)
(0.576218 0.287291 7.48057e-21)
(0.412737 -0.0277675 6.38487e-21)
(0.124316 -0.0161909 -4.87759e-21)
(0.788042 0.468547 -1.78931e-21)
(0.0161632 -0.0676774 -9.28941e-21)
(0.584011 -0.111424 -3.36544e-21)
(0.281568 0.123555 0)
(0.264013 -0.0149454 4.36573e-21)
(0.397077 0.114366 -1.24145e-20)
(0.793894 0.460081 1.99381e-21)
(0.00946166 -0.0624454 1.86144e-20)
(0.574753 -0.12337 -1.11603e-21)
(0.408361 0.184828 -5.00344e-21)
(0.356169 0.0259179 7.43093e-21)
(0.198808 0.012599 0)
(0.584259 0.310281 -1.30727e-22)
(0.428023 -0.0239936 -1.86917e-21)
(0.118326 -0.0309288 1.68948e-20)
(0.477834 0.261401 0)
(0.414179 0.0270295 0)
(0.164627 -0.0360264 -9.05772e-21)
(0.371185 0.158338 1.75368e-20)
(0.217869 0.0216875 -3.0233e-21)
(0.343956 0.0403943 -1.1526e-20)
(0.361814 0.141814 4.68396e-23)
(0.232536 0.0410477 0)
(0.326111 0.0382588 0)
(0.397305 0.248385 -6.43714e-21)
(0.220867 -0.0959779 -8.18271e-21)
(0.480668 0.0911156 6.10165e-21)
(0.324747 0.0922945 -4.03906e-21)
(0.279677 0.0760833 4.12024e-21)
(0.291246 0.0482671 0)
(0.349113 0.103234 -2.56075e-21)
(0.270401 0.0868459 0)
(0.281807 0.0282983 1.32506e-21)
(0.48872 0.243759 0)
(0.386713 -0.000181506 2.90332e-22)
(0.154659 -0.00786615 1.02669e-23)
(0.286392 -0.162666 -1.021e-20)
(0.339971 0.248564 0)
(0.59103 0.146986 7.4285e-21)
(0.309991 -0.175456 1.45474e-20)
(0.626399 0.166018 7.90928e-21)
(0.305802 0.226836 -1.00501e-20)
(0.573405 -0.0116537 1.4843e-21)
(0.709324 0.485798 0)
(0.108321 -0.122341 -7.64044e-21)
(0.71618 0.304579 3.55255e-21)
(0.423465 -0.122565 -3.77181e-21)
(0.0929744 0.0358625 2.05413e-20)
(0.0153069 -0.0428398 -1.07003e-20)
(0.528771 -0.134054 2.43348e-21)
(0.820172 0.417246 5.68072e-21)
(0.679785 0.481406 0)
(0.575464 0.00992775 -6.91455e-21)
(0.131683 -0.139437 -2.23111e-21)
(0.654505 0.463614 2.78733e-21)
(0.566141 0.0193228 9.37049e-21)
(0.140919 -0.139443 3.03484e-21)
(0.587164 -0.0196879 1.5475e-23)
(0.72892 0.499557 -9.90632e-23)
(0.0989056 -0.123962 6.99085e-24)
(0.29965 0.142723 0)
(0.252428 -0.0300419 -4.73886e-21)
(0.411289 0.105536 8.83507e-21)
(0.0686218 -0.103107 -8.45786e-21)
(0.75803 0.499814 8.38857e-21)
(0.585511 -0.0516434 3.28542e-21)
(0.433962 0.196264 -2.62484e-21)
(0.352451 0.0116249 2.65705e-21)
(0.186509 0.0211946 0)
(0.00901516 -0.0469017 9.5952e-21)
(0.53837 -0.140234 0)
(0.824954 0.423768 -3.37149e-21)
(0.851555 0.359671 5.90562e-21)
(0.0224078 -0.00536106 0)
(0.48814 -0.179456 1.87015e-21)
(0.0530649 0.0333452 0)
(0.888267 0.302353 0)
(0.454597 -0.23243 -2.4897e-22)
(0.725147 0.380917 7.1517e-21)
(0.752901 0.386381 -9.94219e-21)
(0.483795 -0.07699 -7.42992e-21)
(0.48964 -0.0947981 3.48414e-21)
(0.0653421 -0.0394136 4.4109e-21)
(0.0529483 -0.0325333 -1.13138e-20)
(0.0331049 0.00720682 5.43408e-22)
(0.852738 0.344839 -5.77808e-21)
(0.475723 -0.188671 0)
(0.374813 0.124835 1.87584e-23)
(0.250669 0.0799192 0)
(0.290415 0.0133725 0)
(0.246315 0.171058 -1.80442e-20)
(0.588899 0.183971 3.62612e-21)
(0.315203 -0.133557 0)
(0.33947 0.233574 -2.75464e-21)
(0.266648 -0.131365 0)
(0.542159 0.132143 1.39377e-20)
(0.709397 0.369983 0)
(-0.0148664 -0.0419124 7.97483e-21)
(0.502921 -0.181097 2.84311e-21)
(0.536331 0.266201 -5.21035e-21)
(0.397816 -0.0171882 -2.70087e-21)
(0.137533 -0.00672566 -8.84957e-21)
(0.750623 0.425905 -4.149e-21)
(0.725491 0.404091 3.87253e-21)
(0.520499 -0.0721953 -2.07333e-21)
(0.0577964 -0.0629654 -5.05034e-21)
(0.50053 -0.0650139 2.00628e-21)
(0.0666742 -0.0558642 4.71814e-21)
(0.782726 0.410744 8.95607e-21)
(0.544555 -0.167268 3.87988e-21)
(-0.0105914 -0.0486551 2.60986e-21)
(0.662469 0.354358 0)
(0.460762 -0.0509319 4.92743e-21)
(0.0888516 -0.0417717 -2.5838e-20)
(0.43235 0.267417 0)
(0.201634 -0.0897617 8.23586e-21)
(0.4707 0.072755 -3.64259e-22)
(0.0689508 0.0483757 0)
(0.876442 0.296511 0)
(0.448377 -0.226219 0)
(0.799609 0.38521 0)
(0.49599 -0.128925 9.65348e-21)
(0.0358516 -0.0218592 1.14456e-20)
(0.514535 0.28216 0)
(0.427559 0.0152269 0)
(0.151236 -0.0467201 0)
(0.585868 0.236142 0)
(0.359575 -0.0865887 0)
(0.158177 0.070466 0)
(0.319828 0.224823 2.54895e-21)
(0.284714 -0.142427 0)
(0.567059 0.148277 -7.50421e-21)
(0.248207 0.161234 1.74879e-20)
(0.57041 0.181396 7.81418e-21)
(0.312183 -0.121543 -8.95589e-21)
(0.740378 0.319915 -8.28526e-21)
(0.439371 -0.126439 0)
(0.0764419 0.0192826 -2.67175e-20)
(0.222445 0.117508 0)
(0.51557 0.17928 -1.699e-20)
(0.308934 -0.0772514 -2.30897e-21)
(0.354751 -0.183073 -4.08388e-21)
(0.688013 0.210796 -8.30341e-21)
(0.376313 -0.186195 0)
(0.721646 0.233559 -4.76494e-21)
(0.225049 0.171105 -8.68449e-21)
(0.186343 0.140406 8.34089e-21)
(0.599236 0.215414 -1.07872e-21)
(0.343887 -0.113492 -4.73825e-21)
(0.183835 0.104181 5.08091e-21)
(0.817354 0.399606 3.65282e-21)
(-0.00976957 -0.0442873 -3.03823e-21)
(0.530074 -0.175449 4.74732e-21)
(0.738006 0.387552 2.57721e-21)
(-0.0138288 -0.0447961 1.19564e-21)
(0.525112 -0.175538 0)
(0.8047 0.398739 -1.2469e-22)
(0.507496 -0.126924 0)
(0.0293197 -0.031247 -1.38268e-20)
(0.491632 0.329576 0)
(0.513918 0.0686368 -1.96513e-21)
(0.196372 -0.123696 -4.79901e-21)
(0.573115 0.201429 -7.08938e-21)
(0.205977 0.124179 0)
(0.329007 -0.106766 0)
(-0.00659851 -0.0334893 0)
(0.510378 -0.190052 0)
(0.846435 0.378824 -3.05089e-21)
(0.459262 0.30458 0)
(0.50326 0.0787885 4.24538e-21)
(0.206284 -0.114355 -1.2455e-21)
(0.222456 0.12894 0)
(0.528818 0.178958 0)
(0.306905 -0.0892373 0)
(0.554817 0.217669 -3.51606e-21)
(0.34684 -0.0756123 0)
(0.167729 0.0707475 0)
(0.419294 -0.0537616 2.52141e-23)
(0.107554 -0.00595368 6.0084e-21)
(0.637314 0.333992 -1.08828e-20)
(0.446084 -0.0442738 0)
(0.0986725 -0.032399 2.67021e-20)
(0.845555 0.389643 6.7128e-21)
(0.0081835 -0.0284117 -8.71068e-21)
(0.513669 -0.166902 9.1247e-21)
(0.0585512 0.0369544 -7.99123e-21)
(0.857466 0.314492 -3.61659e-21)
(0.456397 -0.206557 -9.25732e-21)
(0.877521 0.331266 9.90506e-21)
(0.473495 -0.209111 0)
(0.0285219 0.00897015 7.84463e-21)
(0.291673 -0.193746 4.15951e-21)
(0.625687 0.142886 -3.33299e-21)
(0.378925 0.297995 -8.51968e-21)
(0.554959 0.247279 6.88428e-21)
(0.748689 0.508384 -4.31177e-21)
(0.0793161 -0.111459 5.19874e-21)
(0.594387 -0.042348 -1.54564e-23)
(0.480456 -0.210581 0)
(0.87496 0.342287 2.86091e-21)
(0.0151892 -0.00588215 0)
(0.384097 0.144873 1.29551e-20)
(0.228964 0.0583816 0)
(0.310983 0.0166336 -4.35304e-21)
(0.56503 0.313045 0)
(0.435842 -0.00789025 2.70042e-22)
(0.131589 -0.0415309 -4.98296e-21)
(0.06969 0.0487185 -6.13028e-21)
(0.862842 0.303897 0)
(0.44879 -0.217069 1.06602e-20)
(0.587873 0.267148 0)
(0.407461 -0.0611175 -1.15406e-20)
(0.11361 0.00734687 0)
(-0.0155952 -0.0442561 0)
(0.511606 -0.189327 -4.15972e-21)
(0.787256 0.379789 0)
(0.342683 0.269516 9.21687e-21)
(0.646525 0.155852 0)
(0.30795 -0.199881 0)
(0.866775 0.33138 -8.69188e-21)
(0.469705 -0.201697 0)
(0.0359953 0.0143129 2.82465e-23)
(0.659262 0.225472 -9.33602e-21)
(0.35863 -0.149697 -3.6015e-21)
(0.18002 0.122301 1.1676e-20)
(0.659437 0.368753 0)
(0.470658 -0.0405291 -4.6017e-21)
(0.0930213 -0.0529196 -2.67707e-21)
(0.418114 -0.231826 1.31213e-20)
(0.835333 0.258434 6.58843e-21)
(0.139018 0.112929 -4.83606e-21)
(0.755641 0.238716 0)
(0.38815 -0.201877 5.15766e-21)
(0.179637 0.138537 1.74061e-22)
(-0.0166862 -0.0434671 6.16768e-21)
(0.494661 -0.197687 0)
(0.784082 0.364446 2.88225e-21)
(0.399779 0.277222 -1.20287e-20)
(0.243749 -0.134728 5.99537e-21)
(0.535033 0.109681 6.15027e-22)
(0.654045 0.384634 -2.74446e-21)
(-0.00935202 -0.0380991 6.61149e-22)
(0.523405 -0.15152 0)
(0.25321 0.100853 -2.67299e-21)
(0.406269 0.130479 1.00459e-20)
(0.280141 -0.013919 -1.30515e-20)
(0.669768 0.255111 -3.71049e-21)
(0.644431 0.231264 -1.90828e-23)
(0.381006 -0.130106 8.795e-21)
(0.36022 -0.13452 8.60625e-21)
(0.169868 0.107308 -9.26881e-21)
(0.137419 0.0788479 4.78113e-21)
(0.0551756 -0.0952137 1.10712e-20)
(0.767964 0.498243 -4.45695e-21)
(0.592059 -0.0619792 0)
(0.629865 0.361683 0)
(0.471173 -0.0204983 0)
(0.110545 -0.0612988 1.0677e-20)
(0.787551 0.256177 1.73622e-21)
(0.404842 -0.209123 0)
(0.15121 0.116754 0)
(0.777546 0.408706 -3.72102e-21)
(0.510246 -0.0996216 0)
(0.0419086 -0.0439839 -5.01944e-21)
(0.314734 0.099798 -2.73079e-21)
(0.309386 0.0616696 -3.96989e-21)
(0.272262 0.0592003 1.36621e-21)
(0.710074 0.243391 6.08217e-21)
(0.380741 -0.169686 0)
(0.162637 0.116628 8.03598e-21)
(0.634979 0.377185 0)
(0.485366 -0.0151575 -5.75932e-21)
(0.11149 -0.0732765 6.8608e-21)
(0.606108 0.287738 -1.11686e-20)
(0.639081 0.305216 8.9895e-21)
(0.408013 0.289521 9.50635e-21)
(0.24663 -0.145955 -1.73884e-20)
(0.548954 0.112683 1.36256e-20)
(0.737063 0.262772 6.2367e-21)
(0.39753 -0.1709 -7.63594e-21)
(0.13289 0.0916906 -7.33159e-21)
(0.794285 0.410719 1.34747e-20)
(0.032954 -0.040372 1.77185e-20)
(0.514906 -0.112199 4.84235e-21)
(0.340249 0.221306 4.17162e-21)
(0.258934 -0.118989 0)
(0.522866 0.12949 -4.71409e-21)
(0.242623 0.191316 9.4094e-21)
(0.69756 0.203301 4.81489e-21)
(0.352397 -0.197514 0)
(0.709021 0.429337 1.34858e-21)
(0.52288 -0.0373826 5.09093e-21)
(0.0837803 -0.0829371 -3.1275e-21)
(0.373337 0.274328 -7.82937e-22)
(0.274045 -0.163132 0)
(0.582615 0.136372 -1.02427e-20)
(0.731688 0.444938 0)
(0.748675 0.443937 0)
(0.535559 -0.0470631 3.30849e-21)
(0.0747719 -0.0833351 8.14568e-21)
(0.534739 -0.0630499 -4.68107e-21)
(0.0621725 -0.073625 -8.64331e-21)
(-0.00295407 -0.0360084 6.7477e-21)
(0.519608 -0.17782 0)
(0.843856 0.39189 4.25583e-21)
(0.698383 0.396409 0)
(0.493124 -0.0507248 2.33516e-21)
(0.0792954 -0.0608589 -2.78627e-21)
(0.444035 -0.172653 -8.33797e-21)
(-0.011588 -0.0321056 -9.84661e-21)
(0.607207 0.331071 -6.45592e-21)
(0.469341 0.153285 1.37139e-20)
(0.246687 0.1232 0)
(0.287468 -0.0570455 4.87508e-21)
(0.67958 0.292459 -8.52896e-21)
(0.410319 -0.105781 0)
(0.102195 0.0333184 -1.57174e-20)
(0.0155379 -0.0280683 5.52372e-21)
(0.835686 0.392637 -1.23014e-20)
(0.510097 -0.154246 -6.85393e-21)
(0.317464 -0.186426 5.44846e-21)
(0.644432 0.169158 0)
(0.302667 0.237045 1.13889e-20)
(0.42891 -0.22739 1.61215e-20)
(0.847897 0.274365 4.01394e-21)
(0.110629 0.086673 0)
(0.383761 -0.0476519 5.82152e-21)
(0.134449 0.0214813 0)
(0.700558 0.330647 -9.25067e-21)
(0.439991 -0.0898882 -4.20146e-21)
(0.0800688 -0.0046372 -4.78656e-21)
(0.372865 -0.0599718 -2.06189e-22)
(0.139196 0.0355807 -3.36805e-23)
(0.791712 0.470324 9.51224e-21)
(0.0232486 -0.0709855 -1.30616e-20)
(0.579167 -0.102203 4.94385e-21)
(0.283747 -0.204784 -5.41758e-21)
(0.630789 0.133367 -1.06674e-21)
(0.410042 0.325202 0)
(0.726423 0.345141 9.42447e-21)
(0.455197 -0.0998599 5.13017e-21)
(0.0692787 -0.00571528 1.16866e-20)
(0.599146 0.233029 0)
(0.355171 -0.101498 3.45925e-21)
(0.162684 0.0830311 0)
(0.587025 0.169106 4.67708e-21)
(0.302805 -0.145262 0)
(0.280698 0.194716 0)
(0.47107 0.222765 3.64011e-21)
(0.36946 0.000272719 6.39429e-21)
(0.167134 0.00842017 -1.0428e-23)
(0.273445 0.216514 -1.16817e-20)
(0.678394 0.188505 -1.17123e-20)
(0.339142 -0.19673 -1.47481e-20)
(0.858538 0.369728 5.23356e-21)
(0.499092 -0.182146 -7.7679e-21)
(0.0109324 -0.0180692 -1.3097e-22)
(0.434755 -0.215896 -1.09054e-20)
(0.84225 0.285575 -4.06916e-21)
(0.0961441 0.0732209 -6.12382e-21)
(0.596705 0.43208 8.61619e-21)
(0.174981 -0.151917 -4.54364e-21)
(0.563723 0.0465075 0)
(0.752827 0.477714 -2.42365e-21)
(0.737279 0.467543 2.21598e-21)
(0.554875 -0.0412861 1.05621e-21)
(0.565987 -0.0491783 -4.62706e-21)
(0.0696631 -0.0949516 2.98101e-21)
(0.078769 -0.0969595 2.63337e-21)
(-0.0118348 -0.0337226 1.00066e-20)
(0.470828 -0.166527 9.1792e-21)
(0.6252 0.344274 -1.73637e-21)
(0.675194 0.399592 1.78656e-22)
(-0.00794337 -0.0417995 0)
(0.542992 -0.148317 0)
(0.703166 0.270637 1.37297e-20)
(0.398691 -0.140068 1.97384e-21)
(0.125789 0.0723622 0)
(0.00274363 -0.0351929 1.67689e-20)
(0.84301 0.396645 -5.32851e-21)
(0.52197 -0.166879 0)
(0.662728 0.441574 -1.21553e-20)
(0.688206 0.449395 9.10338e-21)
(0.54136 0.000170761 -5.46368e-21)
(0.542424 -0.013496 -2.08874e-21)
(0.123853 -0.116012 5.1827e-21)
(0.107326 -0.106755 2.60393e-21)
(0.00472778 -0.0165197 0)
(0.46853 -0.222091 0)
(0.874115 0.326074 -1.54032e-21)
(0.604887 0.371504 3.22282e-21)
(-0.00843645 -0.0327262 -6.20022e-21)
(0.50907 -0.142473 0)
(0.363036 0.0851792 2.8302e-23)
(0.307316 0.127601 -5.85358e-21)
(0.249464 0.0069591 -2.90905e-21)
(0.665859 0.366794 5.5285e-21)
(0.500997 -0.169999 -4.15972e-21)
(-0.0128195 -0.0383408 -1.23964e-20)
(0.536562 0.348095 -1.03623e-20)
(0.502031 0.0450516 9.08334e-21)
(0.170423 -0.110188 2.20701e-23)
(0.85368 0.371274 -7.11619e-23)
(0.504133 -0.194557 -1.11953e-20)
(-0.00230531 -0.0283481 3.44656e-21)
(0.378898 -0.183138 -2.53083e-22)
(-0.0120831 -0.0307805 1.13738e-20)
(0.57507 0.270016 2.41508e-21)
(0.362706 0.220166 5.55149e-21)
(0.232143 -0.083136 3.50629e-22)
(0.469237 0.10196 -1.4929e-20)
(0.436601 0.152891 0)
(0.296626 -0.0258069 1.44693e-20)
(0.230308 0.0916646 -7.47693e-21)
(0.771812 0.422398 -9.04373e-21)
(-0.0078709 -0.0503306 -7.78211e-21)
(0.554912 -0.157401 -6.38675e-24)
(0.459289 0.163202 0)
(0.298862 -0.0395387 5.08052e-21)
(0.22302 0.10047 1.05668e-20)
(0.347269 0.0842365 -5.97161e-21)
(0.30051 0.113051 6.18164e-21)
(0.259316 0.0228876 -1.53719e-21)
(0.326465 0.264793 5.63424e-21)
(0.680436 0.169137 4.15949e-21)
(0.326788 -0.216061 -8.10062e-21)
(0.429761 0.118637 0)
(0.258256 -0.0414451 0)
(0.287413 0.151412 -8.7496e-22)
(0.459365 0.142843 -7.34294e-21)
(0.275963 -0.0542491 -3.90581e-21)
(0.270036 0.143314 -1.24068e-22)
(0.565871 0.413494 -1.3103e-20)
(0.566439 0.0589016 7.03234e-21)
(0.192615 -0.161664 9.02899e-21)
(0.000547131 -0.0530343 -1.17381e-20)
(-0.00313995 -0.0498706 1.1947e-20)
(0.558904 -0.144462 -3.35856e-21)
(0.549206 -0.1552 -2.32263e-21)
(0.807088 0.436815 -7.44694e-21)
(0.81362 0.427476 1.12166e-20)
(0.863732 0.36508 -6.46642e-21)
(0.497835 -0.189708 6.96517e-21)
(0.00665385 -0.0180501 0)
(0.167458 -0.158127 -5.83773e-21)
(0.621843 0.457988 -2.68585e-21)
(0.57667 0.0396085 0)
(0.420556 0.280598 0)
(0.225313 -0.121122 5.46854e-21)
(0.513072 0.0947139 -4.67638e-21)
(0.761541 0.223365 0)
(0.380949 -0.218571 -5.33553e-21)
(0.209434 0.166717 -1.80084e-22)
(0.414758 -0.206769 -4.0577e-21)
(-0.0174884 -0.0410305 0)
(0.696767 0.292714 6.38432e-21)
(0.0368515 0.0184058 0)
(0.887123 0.314475 0)
(0.461712 -0.226524 -4.64967e-21)
(0.766188 0.389743 -3.00829e-21)
(-0.0145026 -0.0458435 0)
(0.525999 -0.179408 4.08214e-21)
(-0.00947889 -0.0255306 4.22109e-32)
(0.355635 -0.17042 3.99251e-21)
(0.523685 0.254618 -2.44671e-21)
(0.382143 -0.144707 -4.46817e-21)
(-0.00743229 -0.0218528 -4.21106e-32)
(0.504155 0.28979 2.18364e-21)
(0.433938 -0.160733 1.04944e-20)
(0.77514 0.305552 0)
(0.0878922 0.047057 1.5661e-20)
(0.454237 -0.220622 2.15638e-21)
(-0.0109137 -0.0354159 0)
(0.830311 0.317959 0)
(0.813911 0.377927 5.97834e-21)
(0.492004 -0.143132 -5.98942e-21)
(0.0330469 -0.0150979 -8.11838e-21)
(0.753742 0.469481 -9.5814e-21)
(0.0125535 -0.0662091 -4.71349e-21)
(0.601135 -0.109712 0)
(0.532803 0.24969 -2.79075e-21)
(0.143446 0.0150829 3.0052e-21)
(0.381186 -0.0322086 -2.80294e-21)
(0.46788 -0.224159 0)
(0.0134486 -0.0062616 -5.76048e-21)
(0.881304 0.32328 -1.75722e-21)
(0.737364 0.211692 4.73842e-21)
(0.233778 0.188186 3.2089e-21)
(0.368477 -0.214879 0)
(0.413423 -0.201147 0)
(0.791693 0.269031 0)
(0.12718 0.0974517 -5.72081e-21)
(-0.00234179 -0.00852816 0)
(0.215665 -0.0917883 3.49741e-21)
(0.294874 0.147462 -1.62169e-21)
(0.434227 -0.185395 -4.12401e-21)
(-0.0134634 -0.0345007 6.86341e-21)
(0.625819 0.320079 2.79891e-21)
(0.498511 0.227453 7.22107e-21)
(0.159003 0.0220324 -7.11156e-21)
(0.365766 -0.021683 -3.25291e-21)
(0.484289 -0.209154 -9.9476e-21)
(0.861615 0.348665 3.30918e-21)
(-0.00344228 -0.0258733 0)
(0.0015046 -0.0200607 6.03929e-21)
(0.86978 0.318507 0)
(0.458745 -0.226661 7.41024e-21)
(0.832549 0.415223 3.88675e-21)
(0.00342768 -0.0426159 -1.79253e-20)
(0.533714 -0.152883 -9.47635e-21)
(0.0401942 -0.0798124 1.34015e-20)
(0.576594 -0.0809828 -5.20825e-21)
(0.782297 0.479167 0)
(0.547386 0.416701 1.6554e-20)
(0.584922 0.0717557 -8.96276e-21)
(0.212885 -0.178049 8.5803e-21)
(0.558512 -0.0245112 -1.58146e-21)
(0.714833 0.472297 -5.25999e-21)
(0.0974667 -0.110144 8.15904e-21)
(0.0355233 -0.0839075 1.2021e-20)
(0.774317 0.493152 0)
(0.599635 -0.0828258 3.85968e-21)
(0.565282 0.343781 2.60726e-21)
(0.601837 0.367718 0)
(0.475422 0.0186426 9.44093e-21)
(0.48781 0.00638713 -1.00892e-20)
(0.144545 -0.080724 -5.59875e-21)
(0.130551 -0.0845147 0)
(0.534817 0.335085 2.56316e-21)
(0.48281 0.0365397 0)
(0.162904 -0.0928317 -2.66909e-21)
(0.651477 0.45067 0)
(0.552559 0.0116087 8.8251e-21)
(0.135989 -0.128393 -1.86805e-21)
(0.428958 -0.206885 5.42253e-21)
(0.824343 0.282616 -4.24721e-21)
(0.102165 0.0751306 1.25771e-20)
(0.48759 -0.203502 0)
(0.867911 0.354011 -1.04726e-21)
(0.00767547 -0.0133229 0)
(0.0689943 0.0423701 4.04895e-21)
(0.836993 0.310528 2.66057e-21)
(0.449511 -0.196059 3.55045e-21)
(0.415705 -0.147387 6.13071e-22)
(-0.00803469 -0.0241347 -6.94203e-24)
(0.534328 0.312684 0)
(0.420386 0.244453 -5.0328e-21)
(0.428512 0.238937 0)
(0.197046 -0.0611208 1.2892e-21)
(0.437945 0.065512 -1.82051e-20)
(0.189283 -0.0463773 -1.6311e-21)
(0.420781 0.0515477 1.15719e-20)
(0.602106 0.414448 0)
(0.563352 0.38773 1.68009e-21)
(0.172071 -0.129849 -3.79824e-24)
(0.538168 0.0311124 -5.50128e-21)
(0.15728 -0.127273 -1.36577e-20)
(0.530687 0.0438952 1.16277e-20)
(0.367954 -0.192142 0)
(-0.0138646 -0.0339342 -1.24337e-20)
(0.600651 0.262137 0)
(0.490372 -0.204614 5.86439e-21)
(0.863827 0.35604 -1.03992e-21)
(-0.00166706 -0.025318 -3.61766e-21)
(0.443189 0.313876 3.13339e-21)
(0.237015 -0.153183 6.25468e-21)
(0.552744 0.101246 -1.53826e-20)
(0.407022 -0.224274 -1.16776e-20)
(0.809322 0.249537 -1.10526e-20)
(0.15722 0.127562 0)
(0.0489967 -0.0859031 -1.43318e-20)
(0.575967 -0.0715345 5.54229e-21)
(0.77516 0.482224 0)
(0.475674 -0.194747 0)
(0.716883 0.348033 0)
(-0.0167849 -0.041804 0)
(0.477916 -0.199321 0)
(0.748287 0.347078 -5.09148e-21)
(-0.0177172 -0.0429843 0)
(0.688864 0.434383 5.05047e-21)
(0.527497 -0.0229488 -3.16008e-21)
(0.0989267 -0.0940304 -3.85436e-21)
(0.316835 0.202175 1.4676e-21)
(0.267248 -0.108056 0)
(0.515324 0.139567 -4.99713e-21)
(0.826284 0.416604 -4.5288e-21)
(-0.00109809 -0.0454285 -1.04445e-20)
(0.540797 -0.156956 1.37454e-20)
(0.436719 -0.174633 0)
(0.794156 0.305241 0)
(0.0847237 0.0534238 -1.35155e-20)
(0.0249781 -0.0480174 -3.38667e-21)
(0.530831 -0.116827 -8.29054e-21)
(0.805053 0.427473 -1.24698e-20)
(0.539613 0.377571 -1.71141e-21)
(0.187958 -0.139065 9.11649e-21)
(0.537021 0.0566034 -5.94096e-21)
(0.635305 0.208869 9.05921e-21)
(0.34127 -0.148274 -5.32666e-21)
(0.214741 0.147825 -1.14003e-20)
(0.389172 0.250775 -1.03022e-22)
(0.232177 -0.110126 1.79691e-21)
(0.501641 0.101865 6.12776e-21)
(-0.00510239 -0.0415946 4.0759e-21)
(0.530755 -0.171318 -6.38764e-21)
(0.830221 0.401585 -4.91295e-21)
(0.772278 0.427407 2.32379e-21)
(0.524909 -0.0883793 2.45426e-21)
(0.045458 -0.0564797 0)
(0.370776 0.216971 5.45796e-21)
(0.222342 -0.06705 -1.13768e-20)
(0.447623 0.0900385 9.84609e-21)
(0.767026 0.490549 -3.81463e-21)
(0.0280399 -0.0796155 -5.34131e-21)
(0.606147 -0.0908855 -1.84187e-23)
(0.511199 0.296439 3.1605e-21)
(0.444007 0.0247734 0)
(0.156533 -0.0622762 0)
(0.525773 0.198763 1.30942e-20)
(0.326852 -0.0700784 -3.14043e-21)
(0.192254 0.0922058 0)
(0.412884 -0.184041 0)
(0.772194 0.272516 -8.91503e-21)
(0.120578 0.0880289 5.99072e-21)
(0.712391 0.428571 0)
(-0.00311239 -0.0502125 1.66009e-21)
(0.574682 -0.136348 -4.55768e-21)
(0.718019 0.44309 -3.73468e-21)
(0.0014507 -0.0543241 -5.2918e-21)
(0.587389 -0.125052 4.32156e-21)
(0.0268539 -0.0563007 -3.08489e-21)
(0.541821 -0.108394 4.94543e-21)
(0.800367 0.439638 1.14691e-20)
(0.652144 0.199739 4.18601e-21)
(0.34023 -0.167617 1.06119e-20)
(0.237271 0.169387 0)
(-0.00511394 -0.0435893 -1.52048e-21)
(0.560407 -0.137927 4.26201e-21)
(0.668447 0.409873 0)
(0.0240886 -0.0176409 0)
(0.498095 -0.154524 5.02509e-21)
(0.830927 0.379558 1.42084e-21)
(-0.00757652 -0.0211135 -6.21444e-21)
(0.29879 -0.158473 -4.46106e-21)
(0.460212 0.205878 0)
(0.424004 0.263001 2.56032e-21)
(0.341451 -0.117968 0)
(-0.00497291 -0.0151171 -6.20985e-21)
(0.0330027 -0.078989 6.02416e-24)
(0.588388 -0.0882833 6.54852e-22)
(0.781509 0.4846 0)
(-0.0130585 -0.0424821 0)
(0.517591 -0.186845 0)
(0.814915 0.386078 -6.37546e-21)
(0.809057 0.444322 4.03818e-21)
(0.812872 0.441924 -3.26689e-21)
(0.00752398 -0.0575824 5.88844e-21)
(0.56267 -0.130323 1.10017e-21)
(0.0114449 -0.0558416 0)
(0.553462 -0.126996 0)
(0.836423 0.365663 -2.76398e-21)
(0.488076 -0.16472 -3.30524e-21)
(0.0283291 -0.00756613 0)
(0.195186 0.161873 0)
(0.391618 -0.23085 0)
(0.79175 0.231443 0)
(0.416992 0.212426 -6.7561e-21)
(0.190841 -0.0184954 1.56503e-20)
(0.388879 0.039919 -6.36122e-21)
(0.829426 0.332944 -7.94942e-21)
(0.463013 -0.178357 -1.2128e-21)
(0.0505074 0.0211899 -1.19239e-20)
(0.0654051 0.0362313 -7.77224e-21)
(0.823251 0.31975 1.10546e-20)
(0.452 -0.1833 1.68298e-21)
(0.76736 0.505833 -4.43776e-21)
(0.0488464 -0.0942477 -5.74915e-21)
(0.604083 -0.0671413 0)
(0.613669 0.429361 0)
(0.54937 0.0303182 -2.62125e-21)
(0.156175 -0.13476 1.33877e-20)
(0.5653 0.370368 0)
(0.512333 0.0368157 -1.1929e-20)
(0.162 -0.115379 9.84313e-24)
(0.771405 0.329847 1.05254e-20)
(0.450574 -0.142339 -1.47892e-21)
(0.0663261 0.0187237 6.78807e-21)
(0.785655 0.32543 0)
(0.449042 -0.154833 -1.38223e-21)
(0.0679924 0.0261445 -6.24221e-21)
(0.346573 0.193785 0)
(0.230733 -0.0537433 1.79635e-20)
(0.433484 0.0945143 0)
(0.610919 0.38265 0)
(0.499547 0.00663067 6.69192e-21)
(0.129831 -0.0949395 -2.01927e-21)
(0.023722 0.00520691 1.24787e-20)
(0.458497 -0.231177 1.04973e-20)
(0.890306 0.312744 0)
(0.759448 0.331058 1.1087e-22)
(-0.0177517 -0.0426735 -3.81082e-21)
(0.457237 -0.20805 -2.91109e-21)
(0.741024 0.30761 1.3564e-22)
(-0.0177494 -0.0424703 0)
(0.43504 -0.210506 8.38352e-21)
(0.465567 0.295776 -3.76144e-21)
(0.193369 -0.0969284 1.95317e-21)
(0.481168 0.0649826 9.30469e-23)
(0.4461 -0.193692 -9.14924e-23)
(-0.0159928 -0.0391646 -1.5758e-20)
(0.679764 0.324507 0)
(0.786196 0.443023 -9.94832e-21)
(0.0376985 -0.0613661 0)
(0.540395 -0.0932999 0)
(-0.016443 -0.0389239 6.25333e-21)
(0.414408 -0.201192 4.60882e-21)
(0.667111 0.295328 -4.92191e-21)
(0.425611 0.167347 -9.0056e-21)
(0.212894 0.0624186 -9.48674e-21)
(0.316416 -0.00510111 -3.1382e-23)
(0.65677 0.327567 1.5866e-21)
(0.43832 -0.0623432 1.53603e-21)
(0.0942756 -0.01618 6.12756e-21)
(0.321237 -0.165401 -1.21039e-20)
(0.62721 0.182117 -1.50279e-20)
(0.270725 0.194435 0)
(-0.00769063 -0.0312146 0)
(0.464816 -0.219121 2.68949e-21)
(0.847353 0.32857 0)
(0.427814 -0.184488 0)
(0.794351 0.292553 0)
(0.0974724 0.0670019 0)
(0.0179772 -0.0711103 0)
(0.770407 0.476599 3.49014e-21)
(0.599136 -0.104176 -3.85511e-21)
(0.691063 0.343093 0)
(0.449506 -0.0769916 -7.63625e-22)
(0.0819197 -0.0160101 1.01568e-23)
(0.399529 0.196186 6.5254e-21)
(0.19989 -0.00689878 -1.34381e-20)
(0.376312 0.0412494 0)
(0.483172 -0.210169 9.41484e-21)
(0.842116 0.349081 -3.14363e-21)
(-0.00951838 -0.0333701 0)
(0.0179098 -0.0345014 7.09731e-21)
(0.516608 -0.141402 -3.21144e-22)
(0.823318 0.405274 -1.80295e-22)
(0.739203 0.415572 0)
(0.72003 0.405482 -3.60739e-21)
(-0.00790893 -0.0484835 -3.82023e-21)
(-0.00989047 -0.045668 4.71661e-21)
(0.555568 -0.153599 2.76955e-21)
(0.544706 -0.158872 -2.27705e-21)
(0.646466 0.259417 0)
(0.379181 -0.113735 -1.02804e-20)
(0.136192 0.0673691 -7.47813e-21)
(0.41857 -0.151828 -1.47283e-20)
(0.747423 0.290502 0)
(0.100453 0.0572169 8.24762e-21)
(0.500351 0.204364 7.39548e-21)
(0.338145 -0.0432867 -5.38051e-21)
(0.173591 0.0597354 -1.16387e-20)
(0.466486 -0.212611 -6.2985e-21)
(0.79797 0.33567 -3.93846e-21)
(0.453952 -0.218172 3.01278e-21)
(-0.0163598 -0.0412625 4.03625e-21)
(0.803727 0.321408 3.68981e-21)
(-0.0149225 -0.0400155 0)
(0.754504 0.373057 0)
(0.477485 -0.105204 0)
(0.0550989 -0.020755 -7.63792e-21)
(0.829313 0.357517 -4.00495e-21)
(0.808764 0.35029 1.01216e-20)
(0.491314 -0.205052 -4.13723e-21)
(0.484436 -0.206491 1.03694e-20)
(-0.0133333 -0.0382788 -1.06181e-20)
(-0.0157947 -0.041177 9.2429e-24)
(0.725655 0.277782 0)
(0.403792 -0.155414 1.36019e-20)
(0.123215 0.0794168 -1.06908e-20)
(0.612873 0.274682 -6.9226e-21)
(0.406221 -0.077658 9.2308e-21)
(0.107573 0.0171734 0)
(0.75073 0.456743 0)
(0.00527279 -0.0601523 -7.29992e-22)
(0.590905 -0.122749 -4.15007e-21)
(0.652929 0.274872 -5.09307e-21)
(0.391978 -0.103868 0)
(0.120802 0.0492736 1.23934e-20)
(0.540866 0.227634 -2.98612e-21)
(0.356525 -0.0579306 6.30844e-21)
(0.154787 0.0493239 -6.79078e-21)
(0.732855 0.426513 0)
(-0.00455085 -0.0510334 0)
(0.570358 -0.143775 5.70438e-21)
(0.698161 0.360701 0)
(0.467299 -0.0696049 -1.63075e-21)
(0.0747695 -0.0324077 7.57925e-21)
(0.359572 -0.223315 0)
(0.731544 0.20134 0)
(0.262841 0.215731 4.1325e-22)
(0.538381 0.387488 4.2191e-22)
(0.552614 0.0644498 0)
(0.196777 -0.151907 -7.05917e-21)
(0.436034 -0.234022 -6.30369e-21)
(0.0931998 0.0724357 0)
(0.870936 0.281017 0)
(-0.00459112 -0.0142858 1.49357e-20)
(0.284088 -0.120336 -4.89734e-21)
(0.391874 0.200763 2.27094e-21)
(0.674152 0.305833 0)
(0.418133 -0.0896971 -5.66422e-21)
(0.0960009 0.0148627 0)
(0.783292 0.452382 -6.57304e-21)
(0.00416957 -0.0592944 -1.98863e-20)
(0.577532 -0.12859 8.30305e-21)
(0.248752 -0.192231 0)
(0.604984 0.10305 5.84471e-21)
(0.478967 0.372077 0)
(0.523115 0.327452 0)
(-0.00760295 -0.0232765 3.68747e-21)
(0.44381 -0.136207 0)
(0.261281 0.155028 -7.25345e-21)
(0.274948 0.172496 7.42131e-21)
(0.285961 -0.0913797 0)
(0.512448 0.157559 -6.2979e-21)
(0.288067 -0.109737 1.15182e-20)
(0.534744 0.157095 5.06599e-21)
(0.491152 0.188818 -6.9592e-21)
(0.320671 -0.0477752 -7.13168e-21)
(0.195824 0.0826499 0)
(0.328636 0.199957 -6.39791e-21)
(0.293091 0.175054 0)
(0.250837 -0.0879297 0)
(0.48207 0.120739 0)
(0.263809 -0.079695 6.5054e-21)
(0.48185 0.133629 -2.17089e-23)
(0.646272 0.294975 -4.38178e-22)
(0.38718 -0.0771377 4.01644e-21)
(0.12487 0.0349093 8.36937e-21)
(0.615508 0.265294 1.19036e-20)
(0.382371 -0.086699 0)
(0.131578 0.047567 0)
(-0.016469 -0.0418482 0)
(0.431905 -0.218596 0)
(0.772603 0.303781 -3.79928e-21)
(0.49957 0.309606 1.03437e-20)
(0.47266 0.0479275 0)
(0.174723 -0.0877063 -3.62053e-21)
(0.831774 0.374644 8.53994e-21)
(0.507016 -0.195408 -4.76095e-21)
(-0.0121437 -0.0383403 6.05533e-21)
(0.783044 0.350613 0)
(0.804041 0.360318 -5.75442e-21)
(0.466902 -0.136458 1.84279e-21)
(0.477926 -0.144478 -5.87135e-21)
(0.0518782 0.00248703 8.43731e-21)
(0.0421796 -0.00300201 7.83572e-21)
(0.488111 0.29032 0)
(0.452793 0.0408744 0)
(0.171647 -0.0719711 -1.71151e-21)
(0.643362 0.419879 -4.07146e-21)
(0.526271 0.00434419 0)
(0.127919 -0.108862 -4.46351e-21)
(0.737044 0.339019 3.01054e-21)
(0.450343 -0.114876 0)
(0.06746 0.00486507 -7.71883e-21)
(0.341142 0.148977 -7.07749e-21)
(0.360254 0.064549 -3.43833e-21)
(0.229638 0.00665076 -3.61348e-21)
(0.813081 0.340177 0)
(0.464233 -0.163643 0)
(0.0513642 0.015634 1.26752e-20)
(0.396893 0.210695 0)
(0.201334 -0.0342989 -1.97906e-21)
(0.405621 0.0594677 0)
(0.725519 0.291693 6.78834e-21)
(0.414058 -0.140301 7.61604e-21)
(0.103632 0.0519663 1.06855e-21)
(0.642835 0.403715 -4.11112e-21)
(0.510929 -0.00476831 -7.63077e-21)
(0.118635 -0.096154 0)
(0.355369 0.168945 7.01543e-21)
(0.3408 0.166978 3.13921e-21)
(0.376691 0.0626162 -3.36475e-21)
(0.21966 -0.00830643 7.15482e-21)
(0.394705 0.07746 0)
(0.226896 -0.0222082 1.27279e-20)
(0.314621 0.172309 3.18093e-21)
(0.245442 -0.0559342 -8.38996e-21)
(0.294188 0.166091 -2.04759e-21)
(0.440124 0.110006 0)
(0.263512 -0.0691973 -4.12857e-21)
(0.467678 0.129917 7.18503e-21)
(0.554807 0.326673 -3.74555e-21)
(0.588165 0.336741 0)
(0.457729 0.0118183 -6.99569e-21)
(0.456023 -0.00595235 5.45871e-21)
(0.14093 -0.0661341 1.61953e-20)
(0.125637 -0.0563465 -1.34827e-20)
(0.0350755 -0.0718253 0)
(0.563313 -0.0892578 3.04835e-21)
(0.788437 0.464572 5.88838e-21)
(0.287613 0.232005 -1.39419e-20)
(0.697489 0.186958 -6.56018e-21)
(0.343142 -0.212859 1.27517e-20)
(0.0249637 -0.0672591 6.69719e-21)
(0.0202149 -0.0606171 0)
(0.565735 -0.103058 -2.63465e-21)
(0.554693 -0.113421 -4.51759e-21)
(0.796274 0.462867 -1.49962e-20)
(0.805069 0.450174 7.79019e-21)
(0.390301 0.294926 0)
(0.275253 -0.175916 6.81607e-21)
(0.596278 0.132213 -1.48706e-21)
(0.327498 0.118368 -1.48985e-20)
(0.252722 0.042421 0)
(0.323658 0.0590719 1.17615e-20)
(0.819285 0.355172 2.74089e-21)
(0.476716 -0.158857 6.62981e-21)
(0.0404238 0.0025635 0)
(0.446895 0.264322 0)
(0.18788 -0.0736367 1.63118e-21)
(0.450502 0.0587024 5.90359e-21)
(0.662633 0.410422 0)
(0.511863 -0.0152308 0)
(0.107498 -0.0897926 1.07321e-21)
(0.766064 0.471197 0)
(0.767277 0.458016 0)
(0.561946 -0.0653948 -1.61051e-21)
(0.0561551 -0.084105 8.1839e-21)
(0.550135 -0.0703992 4.38889e-21)
(0.0529522 -0.0762115 -1.10743e-20)
(0.776168 0.372505 -5.68088e-21)
(0.481941 -0.118067 -6.19311e-21)
(0.0463379 -0.0171294 -3.67081e-21)
(0.580939 0.345834 -4.19981e-21)
(0.47483 -0.147952 0)
(-0.00934754 -0.0294641 4.53276e-21)
(0.261314 -0.190986 0)
(0.606551 0.114673 -4.76963e-21)
(0.445498 0.343859 0)
(0.507214 0.386538 -4.28241e-21)