/*--------------------------------*- C++ -*----------------------------------*\
  =========                 |
  \\      /  F ield         | OpenFOAM: The Open Source CFD Toolbox
   \\    /   O peration     | Website:  https://openfoam.org
    \\  /    A nd           | Version:  6
     \\/     M anipulation  |
\*---------------------------------------------------------------------------*/
FoamFile
{
    version     2.0;
    format      ascii;
    class       volScalarField;
    location    "0";
    object      p;
}
// * * * * * * * * * * * * * * * * * * * * * * * * * * * * * * * * * * * * * //

dimensions      [0 2 -2 0 0 0 0];

internalField   nonuniform List<scalar> 
13046
(
0.450349
0.435895
0.485098
0.449239
0.476176
0.448286
0.439294
0.450885
0.483219
0.366207
0.342849
0.49307
0.441501
0.425591
0.485326
0.393881
0.493864
0.342493
0.471738
0.466176
0.443435
0.389258
0.494352
0.343592
0.450785
0.451127
0.47648
0.43826
0.424469
0.48979
0.456009
0.425142
0.481711
0.457679
0.474697
0.448626
0.455871
0.474471
0.454282
0.465538
0.481079
0.413979
0.456188
0.469198
0.460984
0.45306
0.465468
0.464472
0.443655
0.437445
0.486098
0.469852
0.476376
0.391184
0.475397
0.383088
0.481119
0.359899
0.438671
0.492503
0.407986
0.432092
0.488978
0.492337
0.378447
0.39279
0.445753
0.360258
0.48979
0.449626
0.363793
0.488679
0.352914
0.435902
0.493184
0.472393
0.474156
0.435081
0.4957
0.42294
0.355474
0.446648
0.450367
0.477279
0.492532
0.371258
0.386765
0.374081
0.492634
0.399169
0.492745
0.34953
0.410805
0.420974
0.413464
0.406154
0.403734
0.490153
0.492835
0.493199
0.371424
0.40705
0.451646
0.469305
0.461484
0.484084
0.397115
0.470827
0.471988
0.478536
0.400979
0.341447
0.492819
0.310602
0.443415
0.43243
0.481766
0.420178
0.423129
0.388378
0.492329
0.39867
0.490968
0.362234
0.33238
0.493449
0.434058
0.406498
0.492121
0.462051
0.481921
0.414499
0.490817
0.353754
0.421916
0.400384
0.399683
0.491926
0.453157
0.422201
0.482354
0.419472
0.456718
0.483044
0.472796
0.472889
0.400922
0.481153
0.405415
0.472835
0.408219
0.423199
0.4889
0.483934
0.422065
0.46314
0.461674
0.382226
0.456045
0.381317
0.485344
0.487415
0.417511
0.450953
0.480128
0.361841
0.492741
0.349849
0.351153
0.49267
0.317438
0.399589
0.39148
0.493335
0.464854
0.393754
0.485843
0.418222
0.47807
0.455753
0.494621
0.366331
0.358532
0.464878
0.401334
0.480793
0.4839
0.415708
0.463114
0.424623
0.455753
0.480104
0.424861
0.489439
0.434614
0.41564
0.488523
0.376706
0.492192
0.382775
0.491821
0.36577
0.417787
0.356559
0.404219
0.490628
0.471597
0.375885
0.475716
0.432914
0.425701
0.494631
0.352195
0.391133
0.355874
0.492827
0.45027
0.474983
0.45689
0.443114
0.424653
0.488473
0.492554
0.359689
0.42381
0.428887
0.430847
0.490329
0.493148
0.335149
0.347419
0.477933
0.375404
0.46806
0.363228
0.41049
0.491469
0.397029
0.454702
0.486667
0.433985
0.407799
0.492873
0.441126
0.359786
0.487806
0.374303
0.452847
0.486618
0.49304
0.338666
0.339632
0.472935
0.483059
0.395106
0.357441
0.492159
0.287897
0.471225
0.445583
0.462161
0.404199
0.403765
0.448313
0.453656
0.486974
0.484187
0.492848
0.417486
0.348811
0.440131
0.409944
0.489179
0.373717
0.442033
0.48959
0.409453
0.394956
0.492311
0.460821
0.455196
0.469596
0.390098
0.451014
0.487001
0.442811
0.400227
0.490142
0.431518
0.429428
0.47545
0.480813
0.388027
0.38999
0.443528
0.487723
0.401542
0.492846
0.394348
0.47691
0.474907
0.404996
0.486459
0.376137
0.459954
0.431565
0.385973
0.490101
0.476029
0.472589
0.388903
0.426507
0.421628
0.382742
0.49124
0.381706
0.493421
0.493724
0.369205
0.365398
0.427765
0.40189
0.49185
0.279081
0.492502
0.332056
0.435264
0.473374
0.459521
0.414573
0.434609
0.487807
0.492796
0.383777
0.389801
0.474958
0.37586
0.481654
0.432849
0.360431
0.489759
0.442262
0.486015
0.415522
0.426595
0.490111
0.439599
0.485125
0.400869
0.493181
0.349657
0.477336
0.368355
0.47731
0.410587
0.423912
0.490163
0.415445
0.453748
0.485529
0.399057
0.466722
0.480263
0.448344
0.440265
0.481868
0.481494
0.377855
0.463859
0.368667
0.391041
0.491617
0.434691
0.361897
0.490793
0.454571
0.485355
0.372462
0.424477
0.428142
0.372451
0.365439
0.490848
0.491191
0.492208
0.284878
0.339233
0.362875
0.492482
0.292015
0.400555
0.445764
0.483744
0.491919
0.37597
0.373196
0.442526
0.438899
0.379606
0.375904
0.491632
0.490795
0.491141
0.385282
0.341097
0.354311
0.492425
0.27716
0.445154
0.467498
0.469733
0.34521
0.296054
0.492582
0.459029
0.396146
0.484614
0.358028
0.37222
0.494246
0.297353
0.492876
0.308823
0.466836
0.477349
0.419547
0.437802
0.466448
0.47492
0.368157
0.493844
0.325544
0.432823
0.464493
0.476331
0.449372
0.466884
0.468648
0.483552
0.36667
0.47119
0.429635
0.47468
0.472001
0.4367
0.461245
0.470593
0.459098
0.374049
0.484209
0.49494
0.495103
0.347648
0.349412
0.378103
0.374266
0.360201
0.389611
0.492325
0.490689
0.454705
0.362022
0.466546
0.47886
0.403556
0.369705
0.452426
0.4843
0.328981
0.492642
0.312636
0.493072
0.349714
0.403442
0.352315
0.493236
0.327458
0.492345
0.28778
0.309969
0.265751
0.491773
0.326208
0.43379
0.390836
0.48771
0.366527
0.491602
0.327308
0.392763
0.403104
0.492444
0.391275
0.493058
0.318909
0.438078
0.483283
0.445834
0.391958
0.492183
0.34432
0.371213
0.483364
0.455249
0.43776
0.375771
0.490887
0.491802
0.240987
0.29602
0.296707
0.493039
0.320766
0.442956
0.482257
0.44458
0.379298
0.343817
0.491936
0.492985
0.333175
0.3819
0.37905
0.492702
0.371318
0.493417
0.358282
0.408991
0.465238
0.367253
0.486537
0.368399
0.435524
0.494115
0.494336
0.408351
0.336454
0.450605
0.448215
0.405845
0.400886
0.487073
0.489643
0.455199
0.405043
0.486118
0.44846
0.371434
0.493376
0.436317
0.368758
0.489699
0.385405
0.357668
0.494573
0.48968
0.372938
0.424118
0.263389
0.491533
0.333977
0.463949
0.459703
0.482059
0.420959
0.483298
0.426848
0.455365
0.454007
0.487356
0.378287
0.489388
0.389175
0.3032
0.492303
0.308107
0.381012
0.34943
0.49208
0.468768
0.476879
0.390092
0.446096
0.363839
0.48753
0.493317
0.359446
0.414147
0.317641
0.33245
0.492785
0.329982
0.332442
0.492939
0.437093
0.383213
0.493235
0.477547
0.469888
0.41089
0.375842
0.492771
0.360173
0.432479
0.383116
0.491549
0.494046
0.380701
0.400363
0.458107
0.488258
0.388196
0.398834
0.458593
0.482809
0.46908
0.479953
0.407679
0.493198
0.360357
0.367559
0.412734
0.387245
0.492932
0.466784
0.478058
0.423199
0.402468
0.494049
0.328668
0.450831
0.4198
0.486603
0.42849
0.454051
0.481455
0.440642
0.382121
0.488144
0.372813
0.493414
0.302678
0.379614
0.493432
0.30358
0.494189
0.374145
0.403043
0.390186
0.465348
0.48158
0.493189
0.291303
0.365225
0.491987
0.396367
0.387109
0.492012
0.279371
0.303677
0.321421
0.256085
0.49218
0.494658
0.344362
0.406759
0.493262
0.348351
0.354071
0.388528
0.39156
0.49228
0.352096
0.492773
0.362643
0.381448
0.404356
0.492134
0.490342
0.452386
0.360169
0.460144
0.477942
0.434614
0.380377
0.415226
0.491912
0.491419
0.380567
0.420472
0.415634
0.494083
0.336806
0.454846
0.37176
0.490293
0.455831
0.392902
0.484144
0.396087
0.426142
0.492308
0.391763
0.425709
0.491822
0.467192
0.47201
0.430778
0.449303
0.39341
0.492654
0.492815
0.398003
0.340241
0.326001
0.492835
0.336184
0.317737
0.492749
0.340569
0.461512
0.484339
0.408117
0.312478
0.492423
0.323914
0.410056
0.493536
0.376635
0.493122
0.318397
0.313242
0.44908
0.474603
0.45335
0.429167
0.426123
0.488741
0.466236
0.391768
0.480624
0.491412
0.37071
0.333945
0.431787
0.382955
0.490244
0.493379
0.396037
0.329011
0.421224
0.423166
0.492474
0.460997
0.477979
0.437542
0.365619
0.340713
0.493055
0.493832
0.386123
0.390489
0.366499
0.360764
0.49244
0.492464
0.315093
0.308166
0.411456
0.447386
0.487162
0.437354
0.395128
0.485844
0.433764
0.451975
0.484419
0.348784
0.330124
0.353847
0.493257
0.327239
0.492546
0.411078
0.40966
0.493337
0.343119
0.337698
0.358212
0.351179
0.493111
0.492386
0.393406
0.443847
0.49101
0.42335
0.438096
0.487469
0.384206
0.49409
0.316427
0.418275
0.437437
0.486496
0.4322
0.44503
0.482287
0.369531
0.493185
0.313319
0.425924
0.409557
0.48884
0.464531
0.363722
0.484439
0.462279
0.378787
0.486982
0.429819
0.489989
0.351907
0.491998
0.253068
0.303998
0.417142
0.43235
0.488311
0.384772
0.492731
0.334496
0.482042
0.36671
0.471331
0.335038
0.492719
0.270567
0.478196
0.475784
0.466077
0.417645
0.469744
0.412505
0.434385
0.454761
0.48014
0.469899
0.47495
0.473437
0.420034
0.476247
0.417172
0.421426
0.441223
0.4888
0.422303
0.444866
0.488152
0.492664
0.347324
0.318616
0.457605
0.410304
0.482595
0.351222
0.357762
0.493618
0.397333
0.393264
0.417927
0.410889
0.490792
0.490446
0.453821
0.420734
0.4841
0.444755
0.385953
0.489291
0.407748
0.422297
0.492621
0.46187
0.447034
0.471194
0.387167
0.416559
0.491582
0.460276
0.475783
0.434812
0.401113
0.437602
0.490345
0.441334
0.394635
0.489144
0.461927
0.464451
0.440334
0.476903
0.438551
0.475316
0.468732
0.468384
0.474863
0.432032
0.477906
0.421626
0.449318
0.444947
0.412394
0.413931
0.487884
0.48651
0.49299
0.362561
0.408458
0.481866
0.370457
0.466357
0.494607
0.494368
0.358446
0.365115
0.40204
0.398019
0.475311
0.47839
0.380757
0.460646
0.468888
0.454932
0.388378
0.408943
0.491817
0.462742
0.48186
0.41672
0.438019
0.393539
0.489968
0.420134
0.418564
0.365113
0.494209
0.372191
0.493421
0.404403
0.409261
0.491292
0.340225
0.279851
0.492847
0.478302
0.372113
0.472133
0.466775
0.467165
0.483164
0.371775
0.486735
0.376095
0.375071
0.429046
0.490256
0.44779
0.388865
0.489902
0.473433
0.47788
0.380306
0.463281
0.464065
0.480714
0.488156
0.39114
0.388665
0.463895
0.486892
0.381319
0.403146
0.415294
0.492119
0.463866
0.474581
0.435311
0.374495
0.492727
0.330278
0.473061
0.481155
0.375026
0.438075
0.432407
0.396215
0.393737
0.488507
0.492751
0.493076
0.337061
0.378869
0.381888
0.493845
0.322966
0.375563
0.493013
0.32204
0.412286
0.493697
0.370616
0.449154
0.395516
0.489164
0.425575
0.466341
0.490115
0.428463
0.488107
0.352851
0.478279
0.427294
0.443118
0.482123
0.480382
0.439673
0.430265
0.485693
0.466027
0.439843
0.423654
0.469649
0.466283
0.47475
0.468604
0.465333
0.48133
0.49341
0.493826
0.468501
0.492264
0.442298
0.474073
0.4229
0.446745
0.474652
0.474375
0.465067
0.452899
0.479193
0.490009
0.482585
0.430671
0.451175
0.466455
0.491085
0.456566
0.483397
0.473561
0.466634
0.469755
0.467234
0.439719
0.459375
0.491097
0.465045
0.442042
0.476321
0.44592
0.488628
0.477756
0.474655
0.471729
0.482917
0.459365
0.457547
0.4933
0.431868
0.476983
0.4777
0.473027
0.490159
0.482499
0.471229
0.4498
0.456526
0.454434
0.47746
0.452219
0.462616
0.4614
0.450989
0.478972
0.484847
0.467397
0.473493
0.438348
0.443552
0.46824
0.482336
0.467392
0.42148
0.46888
0.491021
0.443581
0.48283
0.49425
0.464068
0.433257
0.319091
0.454762
0.469093
0.433304
0.44727
0.480829
0.482465
0.47682
0.488716
0.440278
0.415628
0.437902
0.448843
0.456339
0.48915
0.483094
0.47191
0.444806
0.45742
0.452507
0.474088
0.47147
0.422662
0.446572
0.466519
0.467391
0.489183
0.483984
0.477865
0.472045
0.455239
0.444823
0.493521
0.404846
0.476656
0.449549
0.488457
0.439948
0.371254
0.418332
0.484073
0.46066
0.434091
0.451824
0.475211
0.434822
0.481479
0.460175
0.450353
0.479011
0.477188
0.438945
0.486926
0.450834
0.47296
0.439434
0.470098
0.43126
0.48995
0.481501
0.467896
0.478951
0.481831
0.48889
0.461795
0.452911
0.449192
0.476429
0.405225
0.444045
0.439816
0.49265
0.469057
0.485034
0.492985
0.470837
0.494376
0.491186
0.488168
0.438114
0.446152
0.443032
0.489041
0.441942
0.436644
0.397684
0.437542
0.468234
0.47338
0.474155
0.493848
0.480281
0.464065
0.486494
0.471771
0.491342
0.365012
0.475586
0.457838
0.449403
0.489602
0.492318
0.455317
0.467828
0.492919
0.473741
0.417242
0.453215
0.476987
0.489391
0.466283
0.44004
0.472226
0.478679
0.468561
0.465611
0.425105
0.390878
0.449083
0.456176
0.456135
0.44754
0.422736
0.482123
0.468466
0.447658
0.473639
0.444944
0.441673
0.476065
0.47592
0.438707
0.437382
0.413778
0.475206
0.455287
0.457572
0.471956
0.477702
0.443372
0.471861
0.464009
0.43945
0.451439
0.486108
0.4696
0.485033
0.490646
0.491211
0.436565
0.437471
0.469
0.471323
0.441134
0.450932
0.474172
0.48932
0.483261
0.47053
0.436927
0.463465
0.461965
0.471465
0.472582
0.450656
0.471987
0.465251
0.385425
0.443314
0.453453
0.440533
0.459898
0.475279
0.471965
0.471174
0.477842
0.437135
0.4666
0.463182
0.471837
0.459546
0.472194
0.472074
0.44262
0.427304
0.468093
0.439132
0.434437
0.468865
0.374907
0.436846
0.487115
0.472596
0.44934
0.452063
0.447803
0.47202
0.42453
0.385771
0.438073
0.477118
0.469578
0.479736
0.347943
0.434587
0.488993
0.464499
0.419322
0.425837
0.439677
0.443889
0.436306
0.474548
0.477755
0.447116
0.44206
0.457926
0.458583
0.491702
0.408821
0.477954
0.474293
0.376013
0.451525
0.441187
0.446168
0.475154
0.475023
0.488772
0.462601
0.4351
0.465912
0.466327
0.494286
0.46845
0.48953
0.478579
0.462705
0.474684
0.46923
0.455725
0.442918
0.466489
0.43051
0.471777
0.469425
0.445921
0.440089
0.436093
0.437423
0.427016
0.485723
0.440889
0.454988
0.483172
0.482161
0.445467
0.438946
0.490638
0.451518
0.371085
0.464549
0.446667
0.441405
0.489855
0.46503
0.457848
0.482048
0.446601
0.471742
0.451753
0.473853
0.467134
0.459898
0.320368
0.440573
0.448042
0.452749
0.467587
0.466458
0.478691
0.491338
0.434243
0.452839
0.435258
0.405596
0.439572
0.485424
0.4622
0.4538
0.451508
0.47129
0.438683
0.425671
0.434017
0.447009
0.453311
0.494499
0.460659
0.469124
0.493159
0.483835
0.478723
0.491434
0.422536
0.455881
0.441776
0.492822
0.479872
0.485086
0.466049
0.463338
0.450273
0.471583
0.444024
0.405804
0.483928
0.464996
0.40843
0.439227
0.450034
0.439994
0.451137
0.466147
0.47072
0.435659
0.453614
0.441328
0.451853
0.443014
0.46174
0.420665
0.448739
0.488109
0.489313
0.479135
0.47595
0.473421
0.368173
0.478656
0.468928
0.430481
0.488882
0.359452
0.489309
0.456411
0.471142
0.462138
0.476359
0.471734
0.43465
0.491116
0.431407
0.488457
0.47375
0.450476
0.455965
0.423817
0.460287
0.490604
0.45575
0.493225
0.474985
0.44073
0.414047
0.477403
0.36817
0.475904
0.472469
0.441893
0.492612
0.399472
0.394925
0.482027
0.469102
0.488932
0.492997
0.46292
0.493625
0.49243
0.483611
0.48587
0.478386
0.438002
0.457818
0.468414
0.484802
0.457969
0.356631
0.490722
0.450042
0.46244
0.456109
0.489739
0.492464
0.462527
0.484304
0.469054
0.492408
0.439376
0.481373
0.457314
0.49178
0.49231
0.483266
0.456155
0.477523
0.441826
0.430358
0.46769
0.458666
0.470635
0.421952
0.365232
0.44076
0.461004
0.475358
0.464913
0.491518
0.45832
0.439943
0.470856
0.441788
0.489542
0.425896
0.456869
0.481996
0.487653
0.465942
0.492223
0.432895
0.468572
0.483597
0.448705
0.422771
0.469255
0.458626
0.47587
0.481635
0.458021
0.443851
0.468729
0.444954
0.436102
0.489197
0.49236
0.49303
0.422595
0.493563
0.492377
0.492288
0.444313
0.480039
0.47392
0.491076
0.475739
0.429838
0.444333
0.455157
0.350945
0.490677
0.467182
0.465328
0.481608
0.481444
0.46599
0.45895
0.491743
0.492642
0.48682
0.476736
0.46161
0.466363
0.480107
0.473446
0.455241
0.457156
0.460676
0.462476
0.473253
0.45146
0.486403
0.490219
0.44041
0.484736
0.449101
0.436668
0.451352
0.487599
0.466295
0.474894
0.470947
0.48672
0.470719
0.473642
0.493385
0.455427
0.442572
0.436899
0.438634
0.432513
0.314691
0.444336
0.442158
0.474196
0.440771
0.46007
0.471499
0.456274
0.441482
0.452475
0.459215
0.321141
0.492313
0.466342
0.472734
0.440144
0.465329
0.462565
0.429344
0.492696
0.44703
0.493572
0.460006
0.485882
0.420947
0.3887
0.45672
0.462365
0.465086
0.474641
0.389152
0.473945
0.465039
0.441403
0.430654
0.453414
0.457681
0.490928
0.422328
0.475942
0.482535
0.477459
0.446988
0.482732
0.441883
0.316135
0.47152
0.445116
0.433357
0.482163
0.479266
0.470533
0.477012
0.460982
0.49451
0.492511
0.466481
0.459905
0.492253
0.489553
0.47945
0.475446
0.470158
0.493853
0.449687
0.440028
0.488757
0.488152
0.491911
0.470252
0.462336
0.450541
0.479181
0.474974
0.295592
0.491119
0.470707
0.438262
0.467644
0.47071
0.490605
0.491978
0.473884
0.452731
0.480793
0.488424
0.47928
0.481636
0.48683
0.3933
0.439059
0.467325
0.440686
0.394941
0.445427
0.471079
0.481956
0.447965
0.465939
0.427701
0.452933
0.491721
0.465189
0.444014
0.441205
0.439854
0.468399
0.450488
0.452101
0.477327
0.47336
0.474478
0.43368
0.478178
0.455114
0.447127
0.47643
0.480329
0.481268
0.490876
0.442451
0.487186
0.442575
0.491221
0.489279
0.49123
0.485648
0.440512
0.439931
0.468618
0.435584
0.448169
0.451212
0.452465
0.435189
0.474922
0.475223
0.439158
0.486587
0.461913
0.466044
0.47241
0.477261
0.485116
0.478282
0.46844
0.441778
0.486677
0.425108
0.488525
0.436173
0.474039
0.488514
0.481871
0.492174
0.486593
0.473609
0.425358
0.44317
0.469959
0.456689
0.493044
0.42722
0.428608
0.465732
0.468007
0.459809
0.440623
0.474895
0.477639
0.474325
0.368954
0.458631
0.418331
0.432649
0.464935
0.465739
0.466013
0.456307
0.483735
0.437296
0.493465
0.470293
0.418968
0.477637
0.462792
0.485635
0.46471
0.455266
0.437663
0.45273
0.468539
0.490267
0.45262
0.469474
0.471608
0.48568
0.457037
0.468006
0.455764
0.492278
0.436666
0.437214
0.405781
0.481965
0.439751
0.455027
0.442121
0.449317
0.490849
0.46577
0.478712
0.48557
0.478742
0.415479
0.4914
0.432475
0.468044
0.478303
0.45649
0.44316
0.46363
0.463346
0.435028
0.457245
0.407706
0.441958
0.468568
0.411536
0.449981
0.488255
0.445322
0.443398
0.463491
0.489768
0.463681
0.435232
0.476183
0.445318
0.449576
0.470953
0.462281
0.474317
0.472133
0.493349
0.46172
0.481818
0.475421
0.486121
0.490016
0.490462
0.41805
0.453235
0.46964
0.434686
0.4911
0.488163
0.485136
0.468828
0.436022
0.438851
0.470376
0.484593
0.431345
0.485758
0.483152
0.478979
0.440084
0.437104
0.443491
0.418502
0.46719
0.432007
0.473847
0.453171
0.476961
0.442673
0.467294
0.439224
0.473331
0.47793
0.476007
0.464085
0.474423
0.489515
0.492656
0.468959
0.461364
0.481866
0.473127
0.449501
0.458492
0.472302
0.448748
0.492697
0.465642
0.472886
0.478158
0.481389
0.456712
0.405465
0.494803
0.46476
0.464319
0.469604
0.471173
0.48162
0.48739
0.464114
0.474641
0.435471
0.454033
0.464071
0.479024
0.472753
0.466572
0.468583
0.492886
0.473316
0.455974
0.48705
0.472248
0.440605
0.457407
0.494675
0.451116
0.437255
0.456962
0.496023
0.462096
0.470146
0.481498
0.486727
0.485645
0.47245
0.439113
0.475984
0.454948
0.463247
0.486251
0.466638
0.436258
0.430658
0.463746
0.475737
0.449887
0.440329
0.486374
0.467302
0.491212
0.483485
0.437191
0.434748
0.462701
0.485013
0.488891
0.466835
0.464132
0.415038
0.46992
0.458235
0.491644
0.488162
0.487661
0.440089
0.434731
0.475882
0.49419
0.490684
0.483518
0.484554
0.459478
0.460835
0.433523
0.437049
0.48535
0.473662
0.388015
0.445856
0.493003
0.468755
0.438992
0.440838
0.469543
0.45805
0.483699
0.473389
0.473927
0.487243
0.490142
0.461583
0.473716
0.463501
0.463002
0.447436
0.477712
0.459243
0.489613
0.390205
0.472748
0.378625
0.464392
0.489451
0.477709
0.484462
0.491186
0.487382
0.450604
0.465401
0.465195
0.424472
0.490634
0.472964
0.454027
0.473223
0.354124
0.445433
0.476662
0.476282
0.492566
0.436049
0.442342
0.468537
0.490285
0.393935
0.454209
0.461988
0.403098
0.435642
0.477671
0.435842
0.464374
0.439087
0.483841
0.492787
0.353169
0.472801
0.473487
0.450758
0.439285
0.467042
0.459197
0.465968
0.448226
0.469637
0.462219
0.461825
0.465453
0.486449
0.454893
0.436022
0.459012
0.435271
0.443427
0.463992
0.416225
0.458471
0.454114
0.470913
0.48384
0.470876
0.469981
0.3848
0.478291
0.462099
0.458984
0.49432
0.467617
0.469915
0.39951
0.390913
0.491042
0.445218
0.469193
0.477761
0.455672
0.480336
0.385936
0.484616
0.463029
0.483733
0.462884
0.466327
0.467616
0.442736
0.454092
0.46196
0.493347
0.434522
0.441034
0.455768
0.493425
0.489923
0.411769
0.461066
0.464661
0.476676
0.459629
0.490839
0.485958
0.485035
0.48523
0.471933
0.452653
0.439112
0.490514
0.453825
0.465874
0.414469
0.439348
0.449565
0.437705
0.490358
0.400091
0.486074
0.456656
0.489878
0.471139
0.491501
0.482174
0.467826
0.490877
0.489604
0.49415
0.467837
0.486922
0.455593
0.472584
0.445177
0.452164
0.492551
0.401037
0.467606
0.476223
0.467327
0.469782
0.46726
0.484065
0.465366
0.478799
0.438952
0.443323
0.475023
0.483742
0.413266
0.477871
0.443029
0.473706
0.438254
0.464047
0.476455
0.482675
0.491522
0.441136
0.466504
0.468737
0.472573
0.486049
0.420699
0.437354
0.493112
0.434471
0.457621
0.483738
0.487428
0.492527
0.438633
0.448132
0.450559
0.446345
0.424968
0.468602
0.461995
0.468445
0.450942
0.465433
0.465118
0.453493
0.427067
0.456813
0.466426
0.444136
0.482492
0.48223
0.431308
0.480804
0.391463
0.451964
0.406471
0.452705
0.49172
0.47229
0.471657
0.468343
0.482084
0.489324
0.471091
0.482336
0.426303
0.46696
0.459346
0.471939
0.440675
0.491595
0.465688
0.450697
0.490816
0.484238
0.44268
0.49018
0.437224
0.472212
0.470641
0.472489
0.416
0.484516
0.466847
0.471349
0.470904
0.449393
0.441783
0.448982
0.481501
0.486237
0.487111
0.465009
0.474626
0.489226
0.46978
0.468793
0.454011
0.45107
0.466637
0.48416
0.444128
0.489865
0.471971
0.492394
0.492253
0.491145
0.46744
0.469927
0.486679
0.381512
0.488927
0.403447
0.4912
0.485219
0.469963
0.465292
0.458391
0.468645
0.404681
0.423366
0.461451
0.43137
0.490334
0.440446
0.444218
0.422735
0.436488
0.471756
0.485339
0.494453
0.439436
0.466113
0.472243
0.470071
0.459882
0.462452
0.489413
0.484662
0.469367
0.488195
0.484162
0.494403
0.440933
0.45324
0.432401
0.483296
0.48994
0.486002
0.468033
0.491381
0.464751
0.434518
0.463718
0.433934
0.451453
0.441201
0.495443
0.491172
0.47155
0.495547
0.483781
0.466468
0.491442
0.447669
0.482873
0.464801
0.490891
0.459691
0.439043
0.479499
0.475231
0.490998
0.491084
0.491267
0.436386
0.432405
0.430386
0.483045
0.484844
0.414814
0.453976
0.485961
0.443383
0.461766
0.441594
0.459247
0.475444
0.460701
0.469989
0.453706
0.471304
0.475277
0.479445
0.462771
0.451432
0.472553
0.47368
0.466029
0.487976
0.495775
0.413626
0.484607
0.443804
0.455848
0.492298
0.48685
0.460984
0.490462
0.442715
0.481498
0.456259
0.445691
0.487354
0.460662
0.483204
0.472942
0.480329
0.493264
0.480253
0.450453
0.477455
0.441113
0.483122
0.49149
0.474803
0.460417
0.439615
0.445439
0.487463
0.454673
0.471848
0.435431
0.461631
0.486235
0.482558
0.469621
0.483951
0.491636
0.451236
0.460874
0.475273
0.439919
0.452192
0.469857
0.472624
0.465215
0.446613
0.409986
0.435803
0.48012
0.460882
0.483265
0.444898
0.489411
0.475336
0.491429
0.491252
0.460915
0.489338
0.445971
0.475106
0.452326
0.481803
0.433862
0.462895
0.45418
0.437262
0.460745
0.445739
0.435454
0.44283
0.494384
0.496802
0.468056
0.436778
0.481832
0.437869
0.413677
0.466769
0.479888
0.477035
0.442477
0.442562
0.491572
0.436059
0.474862
0.438341
0.447465
0.462828
0.435068
0.489477
0.469331
0.450869
0.489096
0.489947
0.449271
0.476308
0.467102
0.494137
0.469669
0.457324
0.443715
0.476726
0.494656
0.476502
0.424874
0.443586
0.457119
0.472927
0.49117
0.491626
0.435265
0.491706
0.445861
0.472333
0.476088
0.468273
0.457191
0.483562
0.411314
0.47308
0.429203
0.452141
0.42722
0.44135
0.478163
0.490736
0.447156
0.451234
0.474
0.456657
0.40974
0.429459
0.449766
0.475279
0.375207
0.457345
0.472509
0.473049
0.466344
0.474203
0.484961
0.392371
0.394229
0.488255
0.467772
0.409429
0.458341
0.480521
0.48173
0.469641
0.430455
0.472489
0.433892
0.491733
0.486281
0.494815
0.46381
0.48018
0.446468
0.473187
0.490126
0.438985
0.450004
0.481162
0.485961
0.444507
0.4447
0.426267
0.395727
0.428412
0.492471
0.455924
0.442236
0.422725
0.439629
0.484076
0.433291
0.449844
0.439045
0.48751
0.459466
0.491979
0.44915
0.464204
0.468668
0.470831
0.464041
0.479132
0.43638
0.49246
0.473961
0.469814
0.484661
0.453322
0.490399
0.47336
0.457531
0.490689
0.43662
0.455683
0.491919
0.473576
0.440245
0.453529
0.473858
0.491537
0.471289
0.483472
0.428714
0.445159
0.436449
0.428893
0.489602
0.451219
0.469542
0.492699
0.465066
0.396359
0.437497
0.467865
0.436931
0.4652
0.443256
0.45144
0.454372
0.483197
0.491264
0.473957
0.433951
0.459359
0.438417
0.464629
0.479084
0.46804
0.462181
0.475912
0.45987
0.467609
0.488008
0.485778
0.492334
0.489482
0.490731
0.462392
0.44659
0.440926
0.439869
0.491156
0.471817
0.4464
0.490524
0.450504
0.488282
0.484779
0.444172
0.434326
0.456106
0.469315
0.485513
0.463692
0.479586
0.470196
0.491954
0.477353
0.492599
0.450164
0.468673
0.458112
0.44185
0.456831
0.48871
0.404992
0.349816
0.468093
0.477117
0.483521
0.463704
0.440573
0.4375
0.455044
0.435972
0.463364
0.469311
0.444335
0.481615
0.468699
0.440395
0.466549
0.453457
0.433494
0.483831
0.45917
0.467077
0.432204
0.472787
0.455763
0.440917
0.456862
0.457564
0.451431
0.440277
0.396863
0.487027
0.492695
0.488118
0.475174
0.483789
0.447608
0.491261
0.469145
0.469162
0.424159
0.479876
0.456847
0.45998
0.483817
0.489936
0.485998
0.470958
0.476915
0.493747
0.44721
0.47973
0.491686
0.478644
0.463243
0.444505
0.484042
0.454958
0.451337
0.476135
0.460617
0.492123
0.447845
0.492501
0.492864
0.47003
0.450559
0.492643
0.440371
0.449608
0.456735
0.442723
0.453994
0.452374
0.448736
0.470772
0.437344
0.437254
0.46669
0.469721
0.458244
0.45429
0.473459
0.471001
0.459525
0.488977
0.490091
0.489552
0.439702
0.455789
0.492224
0.43868
0.469438
0.41739
0.469187
0.419474
0.482351
0.469174
0.46924
0.444236
0.437608
0.454353
0.475368
0.455601
0.468867
0.472509
0.464932
0.490541
0.478122
0.473216
0.449809
0.488428
0.455342
0.470554
0.490613
0.446408
0.450773
0.442644
0.481354
0.491761
0.453447
0.469476
0.455384
0.447011
0.432646
0.465009
0.436761
0.481235
0.449461
0.464146
0.469429
0.469148
0.44026
0.465196
0.466258
0.461947
0.473734
0.485803
0.468924
0.457162
0.466889
0.487807
0.471067
0.437583
0.480345
0.439866
0.46831
0.430112
0.448585
0.461805
0.40807
0.442636
0.494074
0.486175
0.434418
0.47155
0.443694
0.424666
0.438133
0.438371
0.448555
0.445928
0.44783
0.479934
0.496258
0.463114
0.483279
0.465988
0.491589
0.471578
0.495308
0.474292
0.453586
0.477399
0.487385
0.467835
0.480454
0.43046
0.487998
0.462269
0.345667
0.472206
0.494364
0.496206
0.47903
0.479705
0.479436
0.455932
0.463614
0.47295
0.492625
0.358422
0.458973
0.427621
0.457415
0.472674
0.432959
0.438146
0.450287
0.44662
0.439996
0.461518
0.467179
0.493431
0.487186
0.44234
0.488011
0.438357
0.468412
0.486097
0.469858
0.468357
0.473221
0.361049
0.444486
0.473054
0.487158
0.445909
0.452961
0.473227
0.478182
0.438153
0.490997
0.449483
0.473831
0.471174
0.462507
0.476197
0.480155
0.48864
0.430343
0.482919
0.467249
0.478122
0.439257
0.472974
0.459599
0.435022
0.443862
0.45835
0.4668
0.472465
0.485791
0.465058
0.429633
0.475777
0.447967
0.44451
0.469453
0.467908
0.44253
0.496326
0.446541
0.450048
0.445647
0.470608
0.441807
0.417301
0.480212
0.459653
0.469378
0.449611
0.431161
0.464512
0.395422
0.490606
0.481409
0.446258
0.440415
0.49335
0.448879
0.441748
0.437083
0.427119
0.457218
0.469531
0.489553
0.442919
0.45556
0.479929
0.467639
0.449196
0.446451
0.462589
0.482706
0.491504
0.445945
0.433337
0.471947
0.490601
0.464632
0.470835
0.468655
0.432518
0.472582
0.476513
0.464905
0.435714
0.482034
0.470749
0.431011
0.471821
0.444471
0.485686
0.49278
0.443193
0.471232
0.465184
0.470886
0.443391
0.475255
0.458414
0.490433
0.482758
0.480373
0.446107
0.45224
0.482348
0.492123
0.457524
0.471274
0.465859
0.445562
0.466773
0.470637
0.440593
0.386213
0.444209
0.462032
0.44861
0.442884
0.453354
0.460065
0.479891
0.439491
0.44185
0.458865
0.439475
0.484857
0.442801
0.475809
0.467734
0.437379
0.474318
0.466905
0.474692
0.467333
0.479944
0.447821
0.446379
0.490806
0.433126
0.488786
0.472801
0.459757
0.456926
0.487358
0.468562
0.4408
0.493543
0.429599
0.465781
0.48928
0.432848
0.495524
0.445137
0.470545
0.378033
0.474056
0.439911
0.474479
0.453711
0.434827
0.457844
0.435618
0.448118
0.490804
0.437094
0.466226
0.474732
0.468697
0.491896
0.49286
0.464246
0.429328
0.487635
0.459922
0.489858
0.452918
0.463216
0.477288
0.461587
0.48536
0.468762
0.473019
0.449884
0.47087
0.419955
0.42989
0.488707
0.318539
0.485491
0.478966
0.449719
0.443044
0.461274
0.490507
0.472809
0.478254
0.472264
0.475283
0.47073
0.489615
0.485948
0.43947
0.474953
0.485884
0.467705
0.470296
0.467222
0.446649
0.444303
0.467688
0.474815
0.463164
0.494835
0.437943
0.453425
0.47197
0.458041
0.463269
0.487012
0.445987
0.453718
0.452576
0.461912
0.444436
0.488001
0.43325
0.465732
0.461156
0.461232
0.437055
0.43324
0.477103
0.431302
0.438641
0.488883
0.467202
0.456793
0.438913
0.438948
0.454313
0.489109
0.49249
0.454157
0.461932
0.464106
0.488644
0.488518
0.450497
0.489839
0.457249
0.473455
0.473123
0.488618
0.464731
0.486175
0.486425
0.437371
0.429176
0.465929
0.455639
0.463023
0.382561
0.400477
0.478999
0.484645
0.443359
0.491325
0.467011
0.480091
0.46869
0.440256
0.487468
0.48457
0.471574
0.432551
0.441674
0.492559
0.483932
0.492119
0.436242
0.461972
0.477104
0.48675
0.477249
0.470881
0.460153
0.487051
0.462256
0.458848
0.469693
0.462341
0.469177
0.387187
0.485282
0.467571
0.471603
0.490389
0.435476
0.443479
0.451234
0.446241
0.488497
0.44773
0.471754
0.390661
0.451711
0.462537
0.448316
0.442911
0.471493
0.438477
0.443318
0.468438
0.467997
0.488939
0.449368
0.468407
0.488194
0.457318
0.490827
0.464573
0.476917
0.464435
0.452378
0.490788
0.43872
0.444857
0.470085
0.489459
0.480409
0.466067
0.427397
0.493518
0.475924
0.464208
0.48047
0.491726
0.480753
0.476944
0.439746
0.436413
0.463558
0.440346
0.474321
0.470146
0.437885
0.491439
0.491755
0.489607
0.474309
0.471668
0.439887
0.460611
0.481853
0.443889
0.475071
0.490345
0.461315
0.471056
0.468729
0.478539
0.474002
0.471174
0.438643
0.479829
0.42687
0.386094
0.455109
0.494528
0.439535
0.484805
0.454929
0.42743
0.476589
0.469028
0.490584
0.352266
0.473893
0.477998
0.48937
0.461191
0.491574
0.468024
0.438305
0.462058
0.464346
0.464413
0.435004
0.481903
0.470168
0.445273
0.435789
0.465257
0.469757
0.43192
0.474128
0.487754
0.442544
0.488582
0.447715
0.421333
0.433461
0.46741
0.452993
0.442003
0.425734
0.429958
0.468021
0.463516
0.481803
0.461545
0.488189
0.433215
0.474881
0.442103
0.447561
0.435594
0.478544
0.493034
0.447445
0.447625
0.496403
0.46317
0.478499
0.482516
0.458663
0.470192
0.473979
0.465056
0.491516
0.491299
0.49154
0.466332
0.448238
0.456669
0.459154
0.495165
0.467567
0.452209
0.417815
0.448721
0.472963
0.489357
0.465637
0.488591
0.456542
0.457591
0.460262
0.433043
0.457334
0.45116
0.48903
0.440264
0.447027
0.444934
0.493143
0.472315
0.444114
0.438586
0.430271
0.48536
0.461964
0.453371
0.444965
0.457925
0.442419
0.464188
0.460343
0.438467
0.488432