/*--------------------------------*- C++ -*----------------------------------*\
  =========                 |
  \\      /  F ield         | OpenFOAM: The Open Source CFD Toolbox
   \\    /   O peration     | Website:  https://openfoam.org
    \\  /    A nd           | Version:  6
     \\/     M anipulation  |
\*---------------------------------------------------------------------------*/
FoamFile
{
    version     2.0;
    format      ascii;
    class       volVectorField;
    location    "0";
    object      U;
}
// * * * * * * * * * * * * * * * * * * * * * * * * * * * * * * * * * * * * * //

dimensions      [0 1 -1 0 0 0 0];

internalField   nonuniform List<vector> 
13046
(
(-0.296534 0.172408 0)
(-0.351424 -0.018919 -4.38812e-21)
(-0.135091 0.0670935 -9.60176e-21)
(-0.293885 0.127255 0)
(-0.158127 0.103235 -8.66895e-21)
(-0.291883 -0.00823955 0)
(-0.311608 0.13331 1.29452e-21)
(-0.313671 -0.03237 2.23897e-21)
(-0.146369 0.112174 -9.54435e-21)
(-0.412378 0.204628 5.12785e-21)
(-0.707846 -0.298318 0)
(-0.00999051 0.0931364 6.48624e-21)
(-0.338699 0.176653 -4.1333e-21)
(-0.403494 -0.0714318 -6.97372e-21)
(-0.104505 0.0864186 5.28182e-21)
(-0.399708 0.241867 -6.48292e-21)
(-0.00540694 0.0818619 1.55511e-20)
(-0.731599 -0.244508 3.64818e-21)
(-0.21048 0.135341 0)
(-0.221135 0.0226382 -4.70826e-21)
(-0.292937 0.0760883 1.3431e-20)
(-0.403354 0.235027 -2.81671e-21)
(-0.00508705 0.085334 -2.07771e-20)
(-0.725816 -0.255978 0)
(-0.274972 0.14165 5.39e-21)
(-0.300918 0.00983264 -1.07053e-20)
(-0.160557 0.0764307 0)
(-0.339947 0.1906 -7.67406e-21)
(-0.421996 -0.0771539 2.04004e-21)
(-0.0961196 0.0780565 -9.14476e-21)
(-0.297168 0.183389 0)
(-0.36762 -0.0178121 0)
(-0.13138 0.0556149 9.7764e-21)
(-0.25906 0.130689 -6.26106e-21)
(-0.175344 0.0735079 3.24518e-21)
(-0.281402 0.0298307 1.86399e-20)
(-0.257285 0.118667 -9.59616e-21)
(-0.184935 0.0836442 4.94787e-21)
(-0.26556 0.0366465 -9.56226e-21)
(-0.261925 0.202753 6.98093e-21)
(-0.187214 -0.015762 1.81791e-21)
(-0.380323 0.0202352 -6.70166e-21)
(-0.245648 0.0876926 4.33539e-21)
(-0.215586 0.091922 7.42423e-21)
(-0.230525 0.0626155 0)
(-0.260018 0.0864227 2.74839e-21)
(-0.207436 0.105438 -1.13806e-20)
(-0.227625 0.0485438 -1.4216e-21)
(-0.305519 0.16568 0)
(-0.350932 -0.0319865 -3.15217e-22)
(-0.126232 0.0782455 6.47815e-24)
(-0.279332 -0.104545 1.13508e-20)
(-0.236238 0.22528 0)
(-0.418283 0.0441053 -8.32474e-21)
(-0.316745 -0.1332 -1.61748e-20)
(-0.423149 0.0543281 -1.34459e-20)
(-0.221505 0.222161 1.09293e-20)
(-0.625266 -0.128721 -1.64026e-21)
(-0.371501 0.276499 0)
(-0.067794 0.0286738 8.5122e-21)
(-0.399492 0.154851 -3.99511e-21)
(-0.475117 -0.169407 4.16481e-21)
(-0.100577 0.139687 -2.22377e-20)
(-0.0287351 0.102386 1.17865e-20)
(-0.659616 -0.250732 -2.66528e-21)
(-0.421773 0.209422 -7.30489e-21)
(-0.361447 0.282037 0)
(-0.600533 -0.10504 0)
(-0.0896417 0.00750831 0)
(-0.353279 0.277548 -3.179e-21)
(-0.575969 -0.0908004 0)
(-0.0996877 0.00241919 6.78123e-21)
(-0.654316 -0.142732 0)
(-0.377332 0.28005 6.72836e-23)
(-0.0585246 0.0307611 -1.08701e-23)
(-0.219491 0.14648 0)
(-0.212291 0.0157399 5.1154e-21)
(-0.307008 0.0635078 -9.56683e-21)
(-0.0339347 0.0530928 9.46218e-21)
(-0.38804 0.270154 -1.03915e-20)
(-0.683012 -0.177038 0)
(-0.286208 0.142049 2.84303e-21)
(-0.305356 -0.00278386 0)
(-0.151528 0.0875431 0)
(-0.0225671 0.099906 -1.06286e-20)
(-0.679648 -0.263245 -2.06949e-21)
(-0.422468 0.211771 4.37053e-21)
(-0.44354 0.169429 -7.66902e-21)
(-0.0571386 0.12977 0)
(-0.622185 -0.283971 -2.06429e-21)
(-0.0904703 0.157961 0)
(-0.469549 0.127971 0)
(-0.59937 -0.330333 2.75799e-22)
(-0.389539 0.207093 0)
(-0.400315 0.204685 3.87665e-21)
(-0.543762 -0.160902 8.17384e-21)
(-0.565421 -0.182756 -3.83252e-21)
(-0.058721 0.0940279 -4.8311e-21)
(-0.0535078 0.10219 1.23795e-20)
(-0.0689127 0.137872 -5.9461e-22)
(-0.447684 0.159216 7.50171e-21)
(-0.605903 -0.287453 0)
(-0.271124 0.0961161 -1.24237e-23)
(-0.194857 0.108852 5.97812e-21)
(-0.240078 0.0316356 0)
(-0.192632 0.192505 0)
(-0.387036 0.0810668 -4.10287e-21)
(-0.313769 -0.103506 0)
(-0.236323 0.210997 1.20313e-20)
(-0.246991 -0.0688087 0)
(-0.394338 0.0424845 -1.5575e-20)
(-0.372481 0.186312 0)
(-0.00274531 0.0768271 0)
(-0.662325 -0.305847 -2.89788e-21)
(-0.323616 0.168804 1.14173e-20)
(-0.378226 -0.0527709 2.94513e-21)
(-0.114564 0.0879284 9.56506e-21)
(-0.394131 0.229731 4.88127e-21)
(-0.3867 0.221471 -9.1501e-21)
(-0.598502 -0.174376 -6.9382e-21)
(-0.0433655 0.0813234 5.55526e-21)
(-0.562062 -0.156843 4.2196e-21)
(-0.0525476 0.0826448 -5.19012e-21)
(-0.403475 0.206018 -4.48222e-21)
(-0.70982 -0.300154 -4.09966e-21)
(-0.00571263 0.0890583 -2.91272e-21)
(-0.367221 0.203992 0)
(-0.486637 -0.12157 -5.40557e-21)
(-0.0740054 0.0824902 1.12156e-20)
(-0.276472 0.205699 0)
(-0.16597 -0.000584576 -9.00975e-21)
(-0.387841 0.00442457 4.22855e-22)
(-0.10014 0.165201 0)
(-0.466425 0.124813 0)
(-0.582875 -0.313337 0)
(-0.419449 0.194346 0)
(-0.599156 -0.224705 -1.06345e-20)
(-0.0512978 0.114445 -1.33182e-20)
(-0.311657 0.190973 0)
(-0.390868 -0.036547 0)
(-0.120229 0.0542178 0)
(-0.358 0.129925 0)
(-0.360863 -0.0932231 0)
(-0.140469 0.14247 0)
(-0.227618 0.212207 0)
(-0.272835 -0.0879212 0)
(-0.399517 0.0512523 8.40448e-21)
(-0.193194 0.185551 -1.24884e-21)
(-0.377853 0.082945 -8.70532e-21)
(-0.306559 -0.0905927 9.84941e-21)
(-0.40614 0.16267 9.76197e-21)
(-0.501175 -0.184872 0)
(-0.0888917 0.132531 2.89643e-20)
(-0.178144 0.155536 0)
(-0.342937 0.0982775 9.26357e-21)
(-0.289259 -0.0537111 -2.47924e-21)
(-0.387969 -0.173957 0)
(-0.4248 0.0834015 9.60484e-21)
(-0.424426 -0.194911 0)
(-0.428344 0.0972872 5.55514e-21)
(-0.183798 0.206191 0)
(-0.164596 0.195607 0)
(-0.372203 0.108831 1.19451e-21)
(-0.347728 -0.107004 5.20052e-21)
(-0.159055 0.161568 -5.47084e-21)
(-0.421548 0.19621 -5.26926e-21)
(-0.0156326 0.0975326 0)
(-0.694696 -0.307116 -5.11128e-21)
(-0.384225 0.195608 -4.12549e-21)
(-0.00259613 0.0815452 -1.33756e-21)
(-0.688395 -0.304336 0)
(-0.419253 0.201621 -5.92284e-21)
(-0.616776 -0.229147 0)
(-0.0427568 0.108703 1.51497e-20)
(-0.298299 0.235494 0)
(-0.440441 -0.0172106 2.18563e-21)
(-0.161687 -0.0191413 5.29634e-21)
(-0.36628 0.101266 7.90437e-21)
(-0.170661 0.168305 2.62025e-21)
(-0.324445 -0.0890413 0)
(-0.0293046 0.109468 0)
(-0.673593 -0.317318 0)
(-0.437622 0.180976 4.51873e-21)
(-0.285603 0.225969 0)
(-0.419441 -0.00259898 -4.67998e-21)
(-0.172091 -0.0170538 1.36533e-21)
(-0.178806 0.163246 0)
(-0.350932 0.0941515 0)
(-0.29025 -0.0640838 0)
(-0.345954 0.123907 3.87269e-21)
(-0.338847 -0.0772528 0)
(-0.146001 0.138107 0)
(-0.429311 -0.0997662 -3.66936e-23)
(-0.0956384 0.100577 -6.48248e-21)
(-0.359116 0.195211 1.21283e-20)
(-0.462513 -0.106545 0)
(-0.0832424 0.085855 -1.40554e-20)
(-0.436301 0.188519 -7.85683e-21)
(-0.0376426 0.114414 9.615e-21)
(-0.658686 -0.284433 -1.00082e-20)
(-0.0911219 0.156366 8.77767e-21)
(-0.455444 0.139159 4.5724e-21)
(-0.581476 -0.292656 1.03184e-20)
(-0.459076 0.148103 -1.32597e-20)
(-0.620867 -0.315118 0)
(-0.0697024 0.141917 -8.6445e-21)
(-0.291749 -0.128824 -5.82079e-22)
(-0.451458 0.0294181 3.79088e-21)
(-0.251773 0.251233 0)
(-0.336819 0.148817 -1.76119e-20)
(-0.383958 0.277235 5.21504e-21)
(-0.0408086 0.0453 -5.82366e-21)
(-0.686146 -0.16959 0)
(-0.635479 -0.325395 0)
(-0.45619 0.154697 -1.23432e-20)
(-0.0587559 0.132091 0)
(-0.27078 0.111878 -1.39121e-20)
(-0.181172 0.0993804 -4.85772e-21)
(-0.259439 0.0240166 1.40794e-20)
(-0.331426 0.198021 0)
(-0.419923 -0.0635207 -2.95442e-22)
(-0.103604 0.0675443 -5.37409e-21)
(-0.0998721 0.163822 6.71234e-21)
(-0.460813 0.13061 0)
(-0.574868 -0.300131 -1.1884e-20)
(-0.349357 0.156109 1.41497e-20)
(-0.416397 -0.0999919 1.26395e-20)
(-0.102806 0.108568 0)
(-0.0122986 0.0907448 0)
(-0.678562 -0.32042 4.37857e-21)
(-0.410191 0.186023 0)
(-0.237215 0.243105 0)
(-0.44615 0.0395721 0)
(-0.317195 -0.149238 0)
(-0.454902 0.148921 1.16419e-20)
(-0.606296 -0.300469 0)
(-0.0741173 0.143571 -2.1018e-24)
(-0.399673 0.10404 3.55092e-21)
(-0.383427 -0.150297 -4.01158e-21)
(-0.159347 0.178689 0)
(-0.364466 0.213919 0)
(-0.495043 -0.116491 5.04901e-21)
(-0.0726143 0.0743008 8.84418e-21)
(-0.518427 -0.282471 -1.47594e-20)
(-0.464365 0.101862 -8.15871e-21)
(-0.141469 0.195484 5.32073e-21)
(-0.440544 0.0961125 0)
(-0.450571 -0.219887 -5.77952e-21)
(-0.161723 0.198812 -1.90591e-22)
(-0.0145052 0.0898223 -8.5893e-21)
(-0.662167 -0.327392 0)
(-0.410101 0.176008 -5.03468e-21)
(-0.261383 0.225503 6.45319e-21)
(-0.218316 -0.05444 -6.61995e-21)
(-0.41305 0.0204569 6.87552e-22)
(-0.341293 0.199961 4.57809e-21)
(0.00567586 0.0703866 -1.25781e-20)
(-0.674091 -0.26787 0)
(-0.195181 0.126752 -2.83126e-21)
(-0.290839 0.088749 -1.08384e-20)
(-0.237542 0.0139215 1.41158e-20)
(-0.391923 0.126116 4.3498e-21)
(-0.389849 0.111914 2.89431e-23)
(-0.41126 -0.149719 -9.69898e-21)
(-0.379918 -0.137724 0)
(-0.152248 0.169257 4.97282e-21)
(-0.132572 0.157564 -5.16164e-21)
(-0.0241968 0.0608599 -1.23831e-20)
(-0.390507 0.266071 5.44908e-21)
(-0.704896 -0.18998 -8.99296e-21)
(-0.352943 0.217101 0)
(-0.479261 -0.0950877 0)
(-0.0837972 0.0634698 -1.16538e-20)
(-0.446478 0.105722 -2.10827e-21)
(-0.481909 -0.243268 0)
(-0.147176 0.191443 0)
(-0.406972 0.213645 -4.75248e-21)
(-0.602741 -0.199543 0)
(-0.0422488 0.0975579 5.54465e-21)
(-0.236585 0.0978225 2.9164e-21)
(-0.242374 0.0668472 4.2635e-21)
(-0.212664 0.0803876 -1.45741e-21)
(-0.416865 0.108696 -7.09501e-21)
(-0.425248 -0.183778 0)
(-0.151043 0.182342 -8.71156e-21)
(-0.353432 0.226216 0)
(-0.494825 -0.0951361 6.32355e-21)
(-0.0818945 0.0549405 -7.52793e-21)
(-0.352877 0.169816 0)
(-0.364725 0.174598 1.42822e-21)
(-0.264219 0.232825 2.3532e-21)
(-0.223804 -0.0644054 1.91938e-20)
(-0.423661 0.0187398 -1.65696e-20)
(-0.420782 0.119393 -7.39571e-21)
(-0.453559 -0.200613 8.46933e-21)
(-0.134371 0.172379 7.95299e-21)
(-0.413705 0.211227 0)
(-0.0385577 0.102078 -1.95011e-20)
(-0.620575 -0.216677 -5.31671e-21)
(-0.236907 0.201915 -1.66159e-20)
(-0.235867 -0.0558688 0)
(-0.383181 0.0449898 5.24261e-21)
(-0.19241 0.216795 -1.02452e-20)
(-0.435061 0.0754975 -5.53312e-21)
(-0.388314 -0.18498 0)
(-0.376935 0.242129 -4.66705e-21)
(-0.574188 -0.138129 -5.61701e-21)
(-0.0558836 0.0603391 3.45828e-21)
(-0.250024 0.233895 8.47843e-22)
(-0.262242 -0.0940942 0)
(-0.426729 0.0333894 1.14363e-20)
(-0.384438 0.24614 0)
(-0.391236 0.24072 0)
(-0.602783 -0.153669 -3.63939e-21)
(-0.047829 0.0640779 -8.98832e-21)
(-0.614307 -0.170488 5.15224e-21)
(-0.0410646 0.0736512 9.56228e-21)
(-0.0279784 0.107994 -7.4833e-21)
(-0.67843 -0.304571 0)
(-0.434854 0.189293 -5.87743e-21)
(-0.376987 0.223023 5.39581e-21)
(-0.538236 -0.139338 0)
(-0.0597838 0.0749265 3.04972e-21)
(-0.585586 -0.280193 8.27584e-21)
(-6.95275e-05 0.061197 1.10285e-20)
(-0.323564 0.166918 1.23372e-20)
(-0.325101 0.0873363 -5.01608e-21)
(-0.191185 0.150596 0)
(-0.257538 -0.0243384 0)
(-0.385294 0.153474 9.73053e-21)
(-0.447038 -0.145149 0)
(-0.104349 0.133274 1.6973e-20)
(-0.0403333 0.113544 -6.07965e-21)
(-0.432239 0.191957 1.59786e-20)
(-0.643071 -0.265924 7.53144e-21)
(-0.329607 -0.147022 0)
(-0.431923 0.054323 5.01893e-21)
(-0.21983 0.229477 -1.2387e-20)
(-0.539045 -0.290431 -1.80833e-20)
(-0.463245 0.112078 -5.08161e-21)
(-0.125421 0.182921 0)
(-0.376641 -0.0740572 -1.2669e-20)
(-0.117509 0.110623 0)
(-0.38702 0.178833 1.07587e-20)
(-0.482751 -0.149966 4.62917e-21)
(-0.0809857 0.112333 5.18114e-21)
(-0.367326 -0.0793948 7.43523e-21)
(-0.12392 0.119272 4.44209e-23)
(-0.401543 0.243789 -3.84071e-22)
(-0.0103531 0.0803377 7.28128e-21)
(-0.717781 -0.232758 -5.36086e-21)
(-0.28172 -0.133847 0)
(-0.468398 0.0179107 1.21708e-21)
(-0.264586 0.262138 0)
(-0.396169 0.182547 -1.09509e-20)
(-0.513355 -0.167304 -5.6519e-21)
(-0.073993 0.116113 -6.36159e-21)
(-0.366354 0.123039 0)
(-0.360872 -0.105036 -7.55791e-21)
(-0.144921 0.150773 0)
(-0.395645 0.0666794 0)
(-0.299282 -0.104928 0)
(-0.209682 0.202312 0)
(-0.300069 0.153382 -3.93936e-21)
(-0.330119 -0.0219902 -6.94796e-21)
(-0.137455 0.0857034 2.26358e-23)
(-0.206766 0.225572 1.27053e-20)
(-0.436767 0.0650009 1.35867e-20)
(-0.365583 -0.17146 8.2328e-21)
(-0.444519 0.174348 -7.17454e-21)
(-0.645255 -0.296586 8.51652e-21)
(-0.0468815 0.122228 -9.10735e-21)
(-0.544672 -0.282633 1.22194e-20)
(-0.457927 0.120824 5.14963e-21)
(-0.116291 0.175033 6.70231e-21)
(-0.333925 0.27529 -9.71173e-21)
(-0.136496 -0.0217783 1.01896e-20)
(-0.534605 -0.0599376 -7.97025e-21)
(-0.388215 0.259891 2.94767e-21)
(-0.383849 0.258274 -2.62222e-21)
(-0.627599 -0.155545 -1.16474e-21)
(-0.652635 -0.168095 0)
(-0.0388374 0.0585038 -3.31662e-21)
(-0.0466748 0.0544346 -2.91351e-21)
(0.00129334 0.0643807 -1.49294e-20)
(-0.614988 -0.277043 -9.11144e-21)
(-0.33101 0.176174 2.84099e-21)
(-0.350668 0.207712 -2.83181e-22)
(0.00629469 0.073431 1.73977e-20)
(-0.696891 -0.268462 0)
(-0.40339 0.131763 -1.5851e-20)
(-0.442677 -0.169066 -2.18833e-21)
(-0.12613 0.158661 0)
(-0.0307344 0.109 -1.85141e-20)
(-0.433406 0.192675 5.8399e-21)
(-0.672628 -0.288929 0)
(-0.358743 0.261676 1.40265e-20)
(-0.367348 0.25947 -1.05395e-20)
(-0.560353 -0.103634 6.08097e-21)
(-0.578621 -0.118706 2.30569e-21)
(-0.0849096 0.0251897 -5.74789e-21)
(-0.0703131 0.037852 -2.87896e-21)
(-0.052106 0.124218 0)
(-0.634093 -0.345149 0)
(-0.455981 0.144885 2.26026e-21)
(-0.317726 0.195334 -5.37808e-21)
(0.00704062 0.0648521 0)
(-0.651058 -0.250967 0)
(-0.278322 0.0631658 -2.24846e-23)
(-0.225746 0.127535 6.24361e-21)
(-0.203346 0.0462254 3.13185e-21)
(-0.350395 0.187686 -9.7769e-21)
(-0.654811 -0.288777 4.23944e-21)
(0.00108708 0.0710802 8.15968e-22)
(-0.315496 0.235111 0)
(-0.454417 -0.0383383 -1.00119e-20)
(-0.133475 0.00422655 -5.84224e-24)
(-0.442796 0.175282 3.32888e-23)
(-0.665501 -0.319786 1.22154e-20)
(-0.036616 0.114427 -5.52308e-25)
(-0.512131 -0.285992 2.52756e-22)
(-0.0052506 0.0541341 -6.37187e-21)
(-0.31081 0.130985 -5.04262e-21)
(-0.247006 0.190639 -5.9964e-21)
(-0.19843 -0.012362 5.7477e-21)
(-0.361154 0.0353979 1.63417e-20)
(-0.302181 0.0996717 0)
(-0.259006 -0.005107 -1.56537e-20)
(-0.18145 0.128884 8.01652e-21)
(-0.39661 0.214153 0)
(-0.00199086 0.0866791 8.69478e-21)
(-0.718971 -0.290532 -5.75489e-24)
(-0.313227 0.100738 0)
(-0.266173 -0.017914 -5.50887e-21)
(-0.177234 0.137808 -1.13282e-20)
(-0.265785 0.0691441 6.42094e-21)
(-0.223607 0.116609 -3.31782e-21)
(-0.209343 0.0547355 1.64919e-21)
(-0.230047 0.246836 6.1832e-21)
(-0.456501 0.0452034 -4.87523e-21)
(-0.349722 -0.177663 9.10448e-21)
(-0.316083 0.0682107 0)
(-0.220199 0.0037327 0)
(-0.212246 0.155617 9.37883e-22)
(-0.32609 0.0795619 7.93755e-21)
(-0.242951 -0.013314 4.24841e-21)
(-0.203167 0.158179 1.32886e-22)
(-0.323409 0.272787 1.47218e-20)
(-0.514854 -0.0460153 -7.92554e-21)
(-0.157216 -0.0396949 -1.006e-20)
(-0.00905146 0.0926225 1.30799e-20)
(-0.0115668 0.0948749 -1.32738e-20)
(-0.715813 -0.277202 3.60376e-21)
(-0.707639 -0.286781 2.50418e-21)
(-0.412269 0.220366 0)
(-0.416677 0.213166 -5.24988e-21)
(-0.447368 0.171067 8.78103e-21)
(-0.651986 -0.30797 -7.61495e-21)
(-0.0450893 0.122909 1.1273e-20)
(-0.127558 -0.0229429 -6.53897e-21)
(-0.341826 0.284127 3.0645e-21)
(-0.560367 -0.0716009 1.01704e-20)
(-0.270561 0.221051 -5.89226e-21)
(-0.194573 -0.0340936 -6.02413e-21)
(-0.408554 0.0116164 5.1738e-21)
(-0.451123 0.0827618 0)
(-0.443566 -0.228946 5.97874e-21)
(-0.176982 0.213223 1.97182e-22)
(-0.567747 -0.326394 4.23823e-21)
(-0.0149324 0.0726213 -5.95011e-21)
(-0.372794 0.136285 -4.17573e-21)
(-0.0784829 0.148726 0)
(-0.46621 0.136032 0)
(-0.610909 -0.331553 5.14462e-21)
(-0.398366 0.194842 4.67751e-21)
(-0.00670792 0.0868545 0)
(-0.692322 -0.310813 -4.29955e-21)
(-0.00329275 0.0473094 -2.3605e-32)
(-0.478835 -0.26481 -3.85183e-21)
(-0.28388 0.123951 5.17394e-21)
(-0.502312 -0.230938 4.30714e-21)
(0.00130824 0.0468457 2.35507e-32)
(-0.270607 0.146194 -4.59704e-21)
(-0.51094 -0.216688 -1.16517e-20)
(-0.425117 0.144869 0)
(-0.104109 0.1527 -1.70601e-20)
(-0.623939 -0.34911 -2.308e-21)
(-0.0349665 0.103429 -6.06966e-21)
(-0.436114 0.142998 0)
(-0.426537 0.187029 -7.35252e-21)
(-0.601702 -0.239752 6.59707e-21)
(-0.0541697 0.120075 8.88355e-21)
(-0.381565 0.244335 1.32818e-20)
(0.00290046 0.0772256 5.3013e-21)
(-0.755307 -0.243568 0)
(-0.326087 0.155582 3.06966e-21)
(-0.122008 0.102659 -3.24654e-21)
(-0.365259 -0.0580539 3.06069e-21)
(-0.629631 -0.342814 2.65504e-21)
(-0.06019 0.132506 6.37548e-21)
(-0.460556 0.142621 2.41634e-21)
(-0.448613 0.075927 -5.54948e-21)
(-0.188335 0.220561 -3.49904e-21)
(-0.420442 -0.212555 0)
(-0.494378 -0.243263 0)
(-0.442904 0.115519 0)
(-0.133292 0.181917 0)
(-0.000312794 0.021685 0)
(-0.286307 -0.137876 -3.18199e-21)
(-0.164927 0.0750314 4.08265e-21)
(-0.578988 -0.296738 4.17411e-21)
(-0.00337415 0.0628767 -7.67968e-21)
(-0.334946 0.15797 -5.06749e-21)
(-0.313643 0.148406 -7.89813e-21)
(-0.133461 0.100502 7.64455e-21)
(-0.338264 -0.0399097 3.53071e-21)
(-0.650711 -0.334946 1.08061e-20)
(-0.448199 0.15983 -5.04739e-21)
(-0.0405443 0.11625 0)
(-0.0500006 0.121037 -6.71395e-21)
(-0.455075 0.140062 0)
(-0.626961 -0.352314 -8.08856e-21)
(-0.426644 0.204815 -5.3121e-21)
(-0.0230638 0.103026 1.98518e-20)
(-0.683312 -0.277756 0)
(-0.0189968 0.0736578 -1.49574e-20)
(-0.697189 -0.207603 5.69933e-21)
(-0.398422 0.25214 0)
(-0.31621 0.280077 -1.84616e-20)
(-0.516046 -0.0375619 1.01068e-20)
(-0.182081 -0.062081 -3.19804e-21)
(-0.614024 -0.137982 1.74773e-21)
(-0.375517 0.266718 6.15499e-21)
(-0.0602089 0.0399065 -9.08447e-21)
(-0.0108472 0.0696057 -1.34511e-20)
(-0.391524 0.259046 0)
(-0.734072 -0.215679 0)
(-0.327441 0.222607 -2.87274e-21)
(-0.340782 0.229599 0)
(-0.450028 -0.0557315 -1.03898e-20)
(-0.478782 -0.0743023 1.10994e-20)
(-0.109516 0.0364179 1.5306e-21)
(-0.096707 0.0401232 -1.63225e-21)
(-0.315836 0.225335 2.75818e-21)
(-0.441034 -0.0395586 0)
(-0.126092 0.0199288 2.93634e-21)
(-0.353656 0.269932 0)
(-0.562911 -0.0947507 -9.81929e-21)
(-0.0953245 0.0120327 2.07499e-21)
(-0.527865 -0.266787 -6.05213e-21)
(-0.451184 0.121353 5.25113e-21)
(-0.119368 0.173711 -1.37877e-20)
(-0.643497 -0.321313 0)
(-0.451073 0.162775 1.35003e-20)
(-0.0499847 0.126236 0)
(-0.0968725 0.156986 -4.41475e-21)
(-0.448543 0.139018 -3.43442e-21)
(-0.561211 -0.273186 -3.95517e-21)
(-0.541162 -0.237765 -5.8656e-22)
(0.0026954 0.0518229 4.09669e-21)
(-0.28532 0.159401 0)
(-0.272068 0.189504 5.4104e-21)
(-0.27686 0.182059 0)
(-0.160068 0.0225468 0)
(-0.363106 0.010164 1.98842e-20)
(-0.152565 0.0367119 0)
(-0.354783 0.00394624 -1.26295e-20)
(-0.337288 0.260677 0)
(-0.324349 0.254057 0)
(-0.133588 -0.00788411 2.94609e-23)
(-0.518716 -0.0673722 6.11435e-21)
(-0.118033 0.00280512 1.51322e-20)
(-0.490878 -0.0500465 -1.29536e-20)
(-0.501962 -0.299175 0)
(-0.00855848 0.0568645 8.70055e-21)
(-0.325023 0.123296 0)
(-0.653657 -0.329279 -6.39443e-21)
(-0.448528 0.164073 1.51827e-21)
(-0.0409118 0.116747 4.0021e-21)
(-0.278508 0.241577 -1.0228e-20)
(-0.212297 -0.0625093 -6.91582e-21)
(-0.440289 0.00441594 1.72037e-20)
(-0.49341 -0.262179 1.31315e-20)
(-0.457878 0.0978492 1.36125e-20)
(-0.150833 0.199655 0)
(-0.0240421 0.0683955 1.59926e-20)
(-0.687241 -0.196572 -6.06468e-21)
(-0.395833 0.256008 6.94878e-21)
(-0.635535 -0.318246 0)
(-0.378386 0.170671 0)
(-0.00752502 0.0768894 0)
(-0.642479 -0.326621 0)
(-0.394702 0.168093 4.36964e-21)
(-0.0125267 0.0832398 1.46044e-21)
(-0.36928 0.249618 -5.82174e-21)
(-0.565761 -0.123727 3.48529e-21)
(-0.065687 0.0482548 4.26159e-21)
(-0.225727 0.193336 -1.57037e-21)
(-0.244269 -0.0508411 0)
(-0.37122 0.0565446 -4.61623e-23)
(-0.423377 0.206102 6.18973e-21)
(-0.0183004 0.0999423 1.15915e-20)
(-0.696812 -0.285582 -2.91639e-21)
(-0.523106 -0.234875 0)
(-0.433638 0.141444 0)
(-0.104167 0.15844 1.47194e-20)
(-0.0296284 0.097863 3.7262e-21)
(-0.649443 -0.23036 9.09691e-21)
(-0.415233 0.218502 1.56813e-20)
(-0.315379 0.254856 0)
(-0.151425 -0.0226679 -1.01105e-20)
(-0.480899 -0.0388644 6.63341e-21)
(-0.397521 0.0923773 4.23066e-23)
(-0.356376 -0.133656 5.88815e-21)
(-0.177542 0.188025 0)
(-0.258124 0.208263 6.74196e-23)
(-0.201741 -0.0322638 -1.96882e-21)
(-0.389307 0.0240653 -6.77904e-21)
(-0.0209047 0.102372 7.41416e-24)
(-0.691493 -0.300835 6.87744e-21)
(-0.427262 0.196527 7.08772e-21)
(-0.402543 0.225889 -2.83528e-21)
(-0.61803 -0.194359 -2.6957e-21)
(-0.0376065 0.0887435 0)
(-0.25096 0.184009 -5.86815e-21)
(-0.185947 0.00504253 1.23449e-20)
(-0.352037 0.0318441 -1.07619e-20)
(-0.387391 0.256843 5.11331e-21)
(-0.00476575 0.0714784 6.00472e-21)
(-0.74929 -0.225549 -4.22824e-21)
(-0.309142 0.202363 -3.48487e-21)
(-0.402787 -0.0346872 0)
(-0.122229 0.0412237 0)
(-0.339302 0.113187 -1.43561e-20)
(-0.309825 -0.0583358 3.41886e-21)
(-0.160373 0.144468 0)
(-0.485323 -0.224914 0)
(-0.433181 0.121337 1.05629e-20)
(-0.128237 0.174718 0)
(-0.365749 0.222955 -3.00781e-21)
(0.00666756 0.0774442 -1.86581e-21)
(-0.732702 -0.264481 4.69889e-21)
(-0.366771 0.231359 8.2877e-21)
(0.00736212 0.0771862 0)
(-0.744295 -0.254806 -4.53677e-21)
(-0.0252627 0.0917879 3.41096e-21)
(-0.661458 -0.225574 -5.40428e-21)
(-0.411243 0.226823 -1.4364e-20)
(-0.411682 0.0803649 -4.89757e-21)
(-0.361537 -0.150349 -5.91119e-21)
(-0.189587 0.200716 0)
(0.00842287 0.0731781 1.7096e-21)
(-0.713234 -0.259889 -4.39465e-21)
(-0.346313 0.215088 0)
(-0.0499746 0.119913 0)
(-0.621413 -0.258188 -5.52255e-21)
(-0.432272 0.185059 -1.81198e-21)
(-0.0038805 0.0388812 6.94792e-21)
(-0.405369 -0.243089 4.36461e-21)
(-0.252809 0.0990785 0)
(-0.229747 0.133973 -5.11025e-21)
(-0.44581 -0.188113 0)
(0.00238171 0.038196 6.94917e-21)
(-0.0125612 0.0739982 7.46342e-24)
(-0.720691 -0.219598 0)
(-0.396366 0.253603 0)
(-0.0168621 0.0975279 0)
(-0.684767 -0.318436 0)
(-0.422169 0.187812 9.67174e-21)
(-0.411719 0.225668 -5.39496e-21)
(-0.41458 0.224294 4.36483e-21)
(-0.0109781 0.0907145 -6.55466e-21)
(-0.711904 -0.260537 -1.18571e-21)
(-0.0156072 0.092747 -1.05977e-20)
(-0.69551 -0.253377 2.15194e-21)
(-0.437222 0.17535 3.47235e-21)
(-0.611862 -0.264764 3.64914e-21)
(-0.0577605 0.12691 0)
(-0.170141 0.214617 0)
(-0.467223 -0.252761 0)
(-0.461125 0.0851077 0)
(-0.274203 0.162671 0)
(-0.154118 0.0563185 -1.68337e-20)
(-0.32845 0.00764036 6.90797e-21)
(-0.440859 0.155283 9.82256e-21)
(-0.573998 -0.261991 1.34393e-21)
(-0.080508 0.143711 1.30186e-20)
(-0.0923562 0.151826 8.49373e-21)
(-0.441371 0.14695 -1.36493e-20)
(-0.556256 -0.258434 -1.86466e-21)
(-0.388053 0.268354 5.61555e-21)
(-0.0176035 0.0614821 6.44004e-21)
(-0.728382 -0.199045 9.39711e-21)
(-0.340687 0.267539 0)
(-0.534948 -0.0723316 2.91634e-21)
(-0.116393 -0.00175773 -1.4832e-20)
(-0.325792 0.242557 0)
(-0.476139 -0.0516381 1.31465e-20)
(-0.124512 0.00556489 2.28613e-23)
(-0.418234 0.163189 -1.23968e-20)
(-0.529409 -0.210139 1.63368e-21)
(-0.0842575 0.135955 -7.37473e-21)
(-0.425037 0.157233 0)
(-0.534194 -0.222317 1.53284e-21)
(-0.0884503 0.141788 6.80218e-21)
(-0.24063 0.172359 0)
(-0.193226 0.0106952 -1.94879e-20)
(-0.335027 0.0422293 5.99499e-21)
(-0.343354 0.237103 0)
(-0.492956 -0.0784501 0)
(-0.0945731 0.0327326 2.22355e-21)
(-0.0695674 0.141042 -1.38198e-20)
(-0.617616 -0.345718 -1.44941e-20)
(-0.467096 0.134446 0)
(-0.40111 0.155789 6.13494e-21)
(-0.01714 0.0844025 0)
(-0.620073 -0.3347 3.05412e-21)
(-0.393255 0.142846 -2.12267e-23)
(-0.0182587 0.0807097 0)
(-0.595249 -0.334813 -8.7689e-21)
(-0.288983 0.216958 4.10277e-21)
(-0.157458 0.000921375 -2.13976e-21)
(-0.408514 -0.00875325 -9.13133e-23)
(-0.598471 -0.311207 1.36791e-22)
(-0.0071658 0.0699179 1.17593e-20)
(-0.361088 0.157704 0)
(-0.405387 0.231947 1.22617e-20)
(-0.029252 0.0869062 7.15506e-21)
(-0.64755 -0.207577 0)
(-0.0106301 0.0676163 -1.75036e-21)
(-0.563656 -0.317951 -4.71333e-21)
(-0.357446 0.140109 0)
(-0.289687 0.116567 9.66731e-21)
(-0.170539 0.110848 1.01519e-20)
(-0.273819 0.00286005 4.89682e-23)
(-0.369252 0.186262 -1.78197e-21)
(-0.463957 -0.119756 -1.69151e-21)
(-0.0850476 0.0997164 -7.60458e-21)
(-0.331166 -0.133559 1.34564e-20)
(-0.410875 0.0689694 1.13263e-20)
(-0.205322 0.208269 0)
(-0.0384031 0.10953 0)
(-0.63419 -0.347262 -2.89419e-21)
(-0.443273 0.1481 0)
(-0.511567 -0.239081 0)
(-0.436836 0.132408 0)
(-0.113932 0.165723 0)
(-0.00145515 0.077129 0)
(-0.389535 0.247779 -4.90194e-21)
(-0.749248 -0.238266 4.14289e-21)
(-0.381638 0.188745 0)
(-0.489744 -0.140206 8.42658e-22)
(-0.0769701 0.104343 7.43668e-21)
(-0.268035 0.153709 0)
(-0.161337 0.0609175 1.44522e-20)
(-0.313828 0.0158746 0)
(-0.652423 -0.339025 -1.02232e-20)
(-0.439654 0.161534 4.78899e-21)
(-0.0335906 0.108081 0)
(-0.03624 0.108294 -7.82107e-21)
(-0.643857 -0.253687 3.51773e-22)
(-0.425771 0.201399 8.81193e-23)
(-0.380881 0.21288 0)
(-0.373185 0.20789 5.77237e-21)
(0.00210335 0.0816415 -4.28259e-21)
(0.00242344 0.0793992 -5.27951e-21)
(-0.71778 -0.282966 -2.87524e-21)
(-0.706025 -0.286414 2.36422e-21)
(-0.380803 0.133496 0)
(-0.402109 -0.132964 2.26532e-20)
(-0.129412 0.14837 8.07201e-21)
(-0.481635 -0.196597 1.63234e-20)
(-0.415808 0.138831 0)
(-0.111545 0.154806 -8.92464e-21)
(-0.321701 0.127523 -8.05897e-21)
(-0.313937 -0.043891 5.84839e-21)
(-0.146454 0.12307 1.24393e-20)
(-0.634337 -0.341702 6.71507e-21)
(-0.419443 0.156264 6.46697e-21)
(-0.62187 -0.346429 -3.19177e-21)
(-0.0231228 0.0931485 0)
(-0.423403 0.146847 -6.25292e-21)
(-0.0277949 0.0950539 0)
(-0.4034 0.195171 0)
(-0.551569 -0.187258 0)
(-0.0607093 0.109818 8.3207e-21)
(-0.43189 0.168478 8.70238e-21)
(-0.422871 0.165458 -1.62938e-20)
(-0.661254 -0.33511 4.39944e-21)
(-0.653789 -0.336433 -1.10778e-20)
(-0.0260268 0.101988 1.18031e-20)
(-0.0221055 0.0956617 1.01953e-24)
(-0.413071 0.131005 0)
(-0.458875 -0.18719 -1.50553e-20)
(-0.12602 0.16508 1.15906e-20)
(-0.36046 0.154359 7.72803e-21)
(-0.424812 -0.116421 -1.01318e-20)
(-0.102413 0.118089 0)
(-0.381602 0.236578 0)
(0.0041676 0.0794929 0)
(-0.748221 -0.255996 4.35704e-21)
(-0.378386 0.144423 5.69428e-21)
(-0.417759 -0.130157 -6.29328e-21)
(-0.117535 0.138913 -1.33711e-20)
(-0.335354 0.13614 3.27781e-21)
(-0.343882 -0.0676083 -6.8542e-21)
(-0.135461 0.12407 7.28705e-21)
(-0.376951 0.220197 0)
(0.00383826 0.0804638 0)
(-0.731349 -0.27469 -5.99751e-21)
(-0.380931 0.199751 0)
(-0.512665 -0.142906 1.78954e-21)
(-0.0673171 0.094863 -8.26516e-21)
(-0.408033 -0.21276 0)
(-0.456961 0.0657758 0)
(-0.201775 0.23273 -4.53261e-22)
(-0.313955 0.262484 -4.70126e-22)
(-0.490044 -0.0352917 0)
(-0.162083 -0.0363072 1.57281e-20)
(-0.562517 -0.31105 7.08361e-21)
(-0.115305 0.178374 0)
(-0.469787 0.114216 0)
(-0.000516691 0.0320897 -1.67062e-20)
(-0.379549 -0.18705 4.45243e-21)
(-0.215313 0.100747 -5.71517e-21)
(-0.379885 0.166161 0)
(-0.449411 -0.13518 6.22206e-21)
(-0.0956688 0.120982 -6.83829e-21)
(-0.398274 0.231398 9.11695e-21)
(-0.00178982 0.0852294 2.2214e-20)
(-0.734432 -0.261927 0)
(-0.231203 -0.0970215 -4.2016e-21)
(-0.489837 -0.00988805 -6.65761e-21)
(-0.290874 0.272409 -4.14186e-21)
(-0.279389 0.171387 0)
(0.00529059 0.0532335 -6.23026e-21)
(-0.570152 -0.22836 0)
(-0.199328 0.172366 7.78971e-21)
(-0.206484 0.184293 -7.97496e-21)
(-0.264219 -0.0524682 0)
(-0.352731 0.0773464 6.93413e-21)
(-0.271514 -0.0675785 -1.26751e-20)
(-0.367978 0.0704188 -5.59744e-21)
(-0.322672 0.114827 7.58756e-21)
(-0.294326 -0.0363855 7.73364e-21)
(-0.161195 0.133628 0)
(-0.231631 0.18606 6.90998e-21)
(-0.214884 0.175899 0)
(-0.220624 -0.0264919 -7.00594e-21)
(-0.357449 0.049581 6.21615e-21)
(-0.234082 -0.0294631 7.05831e-21)
(-0.346913 0.0643127 3.16731e-23)
(-0.369984 0.164286 4.9148e-22)
(-0.396611 -0.102983 -4.40472e-21)
(-0.115751 0.124961 -8.98863e-21)
(-0.3642 0.146047 -1.33122e-20)
(-0.394636 -0.107457 1.16382e-22)
(-0.122101 0.133319 0)
(-0.0244655 0.0874044 0)
(-0.594843 -0.344634 0)
(-0.409346 0.137789 6.96332e-21)
(-0.30248 0.216651 -3.7874e-21)
(-0.41748 -0.0231483 0)
(-0.138132 0.0171559 3.96411e-21)
(-0.431367 0.179164 -1.5321e-20)
(-0.674346 -0.325931 5.11386e-21)
(-0.0235141 0.103068 -6.72654e-21)
(-0.418655 0.174714 0)
(-0.425351 0.177431 7.08661e-21)
(-0.554781 -0.214811 -2.03586e-21)
(-0.578551 -0.231326 6.48087e-21)
(-0.0704421 0.127464 -9.20327e-21)
(-0.0641904 0.126503 -8.57772e-21)
(-0.299552 0.205127 0)
(-0.399352 -0.0215205 0)
(-0.135233 0.0284806 1.86562e-21)
(-0.352936 0.253108 4.60425e-21)
(-0.533785 -0.09298 0)
(-0.0902532 0.0275682 4.94518e-21)
(-0.402142 0.175302 -3.55995e-21)
(-0.513724 -0.180318 0)
(-0.0774044 0.123729 0)
(-0.24301 0.133977 7.57857e-21)
(-0.285197 0.0445371 -3.69031e-21)
(-0.186042 0.0558438 3.89026e-21)
(-0.433081 0.162262 0)
(-0.567054 -0.244724 0)
(-0.0775992 0.138748 -1.38423e-20)
(-0.264137 0.169058 0)
(-0.163567 0.0397942 2.13638e-21)
(-0.333262 0.0179242 0)
(-0.407125 0.143925 -7.8305e-21)
(-0.467126 -0.182917 -8.40892e-21)
(-0.111372 0.149657 -1.15262e-21)
(-0.354463 0.242526 4.6713e-21)
(-0.520902 -0.0962428 0)
(-0.083619 0.0381495 1.0154e-20)
(-0.248249 0.146585 -7.51119e-21)
(-0.240129 0.151564 -3.36485e-21)
(-0.301007 0.0359413 3.62956e-21)
(-0.178269 0.0487628 -7.68948e-21)
(-0.308216 0.0425336 0)
(-0.186141 0.0342747 -1.37408e-20)
(-0.225691 0.165631 -3.40982e-21)
(-0.209136 -0.000353092 9.10432e-21)
(-0.21554 0.169446 2.19426e-21)
(-0.329392 0.0551455 -8.34348e-21)
(-0.231708 -0.0203067 -4.38445e-21)
(-0.33862 0.0657015 1.136e-22)
(-0.324926 0.211985 4.12619e-21)
(-0.3379 0.209719 0)
(-0.432596 -0.0544483 7.66683e-21)
(-0.446102 -0.0716766 -5.98174e-21)
(-0.107864 0.046538 -8.83049e-21)
(-0.0965146 0.0602818 1.46897e-20)
(-0.0203731 0.0797831 0)
(-0.682391 -0.212542 -3.32628e-21)
(-0.40252 0.243189 -7.48915e-21)
(-0.213049 0.23527 5.48864e-21)
(-0.450262 0.0588022 7.68274e-21)
(-0.376413 -0.188301 -1.43026e-20)
(-0.0152869 0.083693 -7.45886e-21)
(-0.0176339 0.0890259 5.97147e-21)
(-0.696768 -0.229667 2.8755e-21)
(-0.686096 -0.237391 4.93787e-21)
(-0.405632 0.239719 1.92698e-20)
(-0.411139 0.230938 -1.00507e-20)
(-0.256792 0.244466 7.52064e-21)
(-0.265926 -0.104223 -6.63582e-21)
(-0.441518 0.0256417 1.62417e-21)
(-0.24044 0.110249 1.27255e-20)
(-0.200485 0.0752137 0)
(-0.25557 0.056505 -1.26387e-20)
(-0.432347 0.171323 -3.4397e-21)
(-0.585912 -0.247614 -7.31801e-21)
(-0.0669243 0.131415 0)
(-0.282843 0.198197 0)
(-0.151783 0.0173902 -1.77866e-21)
(-0.380501 -0.00206675 -6.43188e-21)
(-0.361465 0.24159 0)
(-0.533904 -0.108194 0)
(-0.0745385 0.0470347 -9.45911e-21)