/*--------------------------------*- C++ -*----------------------------------*\
  =========                 |
  \\      /  F ield         | OpenFOAM: The Open Source CFD Toolbox
   \\    /   O peration     | Website:  https://openfoam.org
    \\  /    A nd           | Version:  6
     \\/     M anipulation  |
\*---------------------------------------------------------------------------*/
FoamFile
{
    version     2.0;
    format      ascii;
    class       volScalarField;
    location    "0";
    object      p;
}
// * * * * * * * * * * * * * * * * * * * * * * * * * * * * * * * * * * * * * //

dimensions      [0 2 -2 0 0 0 0];

internalField   nonuniform List<scalar> 
13046
(
0.740275
0.727492
0.744822
0.762835
0.749943
0.729014
0.739282
0.733428
0.75254
0.307834
0.176504
0.663881
0.732957
0.66899
0.727567
0.413409
0.660632
0.260716
0.76667
0.755011
0.755091
0.39773
0.663588
0.248879
0.747228
0.757406
0.748841
0.707073
0.674218
0.725205
0.749107
0.694942
0.734732
0.763669
0.761164
0.750637
0.765545
0.766942
0.76131
0.72614
0.726438
0.688531
0.762414
0.777295
0.765956
0.765744
0.761341
0.762194
0.728471
0.72112
0.743807
0.677486
0.706636
0.626561
0.689942
0.601551
0.70795
0.45726
0.610001
0.671981
0.651313
0.617927
0.70911
0.67693
0.392246
0.49448
0.629237
0.47121
0.668347
0.649846
0.493446
0.672015
0.417135
0.587988
0.669913
0.765478
0.765683
0.736994
0.670204
0.544587
0.399977
0.744069
0.748258
0.744283
0.672121
0.347917
0.451998
0.46483
0.678186
0.421669
0.665968
0.394964
0.404187
0.63734
0.612494
0.569131
0.544577
0.697215
0.696731
0.678992
0.473505
0.446464
0.76739
0.760435
0.756286
0.731006
0.645143
0.706374
0.714554
0.713634
0.657137
0.123163
0.658271
-0.017884
0.737655
0.692106
0.728665
0.605722
0.631226
0.508991
0.686936
0.553635
0.691158
0.269469
0.12418
0.661506
0.688784
0.599695
0.715265
0.72405
0.724221
0.685406
0.667678
0.427646
0.454237
0.568119
0.494908
0.688536
0.737389
0.680896
0.726195
0.693915
0.711468
0.728345
0.704987
0.696219
0.659045
0.728952
0.668302
0.724774
0.63902
0.586089
0.703463
0.75382
0.712834
0.731171
0.65109
0.594536
0.634535
0.585831
0.701118
0.698558
0.700119
0.676403
0.71821
0.300148
0.663931
0.195274
0.183394
0.659798
0.0302921
0.55193
0.461927
0.685462
0.717609
0.62377
0.709636
0.706127
0.722086
0.689504
0.666684
0.253732
0.32954
0.720701
0.648065
0.705405
0.74919
0.696228
0.71909
0.708251
0.71543
0.730585
0.654879
0.728047
0.698129
0.630859
0.71515
0.43739
0.674449
0.365167
0.675854
0.471805
0.468981
0.39626
0.39091
0.667981
0.657504
0.57772
0.689629
0.717837
0.555359
0.66213
0.398616
0.341355
0.37702
0.665806
0.760558
0.764237
0.757193
0.713667
0.68583
0.723143
0.674377
0.456307
0.478949
0.701122
0.667718
0.732168
0.660244
0.104271
0.204807
0.689889
0.575053
0.6462
0.44018
0.43447
0.674006
0.639056
0.660365
0.715285
0.672964
0.610401
0.713467
0.541259
0.488296
0.669469
0.558401
0.608875
0.687302
0.660457
0.0950476
0.168521
0.724798
0.714117
0.639957
0.15492
0.656405
-0.0805498
0.758313
0.758537
0.747977
0.647389
0.65869
0.656365
0.671475
0.722455
0.711227
0.661482
0.51624
0.357168
0.691197
0.629504
0.709237
0.552759
0.573729
0.685949
0.580473
0.502489
0.687895
0.767404
0.759516
0.777112
0.614509
0.636079
0.702737
0.690946
0.60384
0.706375
0.703148
0.698599
0.724749
0.702057
0.617049
0.606359
0.612289
0.698562
0.544668
0.683636
0.479542
0.737855
0.716137
0.668993
0.698494
0.576263
0.635702
0.630093
0.529301
0.684696
0.708216
0.681091
0.621203
0.603452
0.594851
0.504508
0.680648
0.490606
0.683122
0.668003
0.285618
0.360961
0.645076
0.579654
0.696213
-0.165056
0.655102
0.0178574
0.744482
0.741764
0.719851
0.671139
0.639379
0.713476
0.678417
0.477482
0.411615
0.676775
0.5759
0.702126
0.512402
0.479403
0.671155
0.702924
0.732408
0.645779
0.628711
0.710521
0.687705
0.735238
0.456104
0.664576
0.305664
0.666892
0.551102
0.690332
0.626362
0.607282
0.703494
0.687246
0.69583
0.728772
0.654079
0.686496
0.719272
0.751301
0.720759
0.746743
0.689251
0.582569
0.644408
0.417791
0.375414
0.673714
0.522854
0.477223
0.677105
0.656543
0.671631
0.53772
0.571723
0.593051
0.47385
0.436807
0.66799
0.67417
0.657074
-0.132008
0.0619805
0.19036
0.655997
-0.0435236
0.629119
0.641722
0.702147
0.671764
0.416119
0.32239
0.642219
0.636505
0.537836
0.515948
0.68576
0.680225
0.660719
0.27599
0.286261
0.125651
0.654605
-0.136339
0.749708
0.769541
0.763394
0.113394
-0.0720839
0.658471
0.713936
0.621611
0.701166
0.346902
0.277822
0.666582
-0.144194
0.658903
-0.086481
0.733793
0.727922
0.706267
0.741538
0.760883
0.754461
0.278412
0.660177
0.114116
0.732798
0.747015
0.749959
0.756362
0.771834
0.768691
0.694498
0.545998
0.647575
0.728884
0.757411
0.756696
0.751355
0.718844
0.742419
0.669615
0.5507
0.672366
0.663338
0.665546
0.241907
0.234796
0.370788
0.359993
0.372614
0.347469
0.67059
0.678461
0.650039
0.500416
0.716338
0.704155
0.658725
0.542407
0.596129
0.676383
-0.0043246
0.656692
0.00282977
0.6658
0.378773
0.375183
0.213256
0.660481
0.0806379
0.66111
-0.191665
-0.108047
-0.25219
0.660351
-0.0483754
0.585027
0.584954
0.692281
0.169092
0.657962
0.166348
0.540287
0.486994
0.687101
0.36028
0.653646
0.15183
0.727958
0.733447
0.722903
0.314033
0.66264
0.323781
0.555353
0.679164
0.608898
0.563576
0.550806
0.689357
0.665227
-0.391888
-0.239349
-0.11918
0.655834
-0.014381
0.741859
0.744166
0.723632
0.262277
0.275922
0.664309
0.659496
0.238866
0.246567
0.415348
0.670353
0.32441
0.664645
0.367868
0.50148
0.683051
0.535787
0.675283
0.481415
0.613914
0.680342
0.660859
0.466139
0.277307
0.707778
0.696217
0.638863
0.616665
0.710353
0.710564
0.71164
0.645532
0.7102
0.657658
0.522331
0.68709
0.543778
0.511011
0.681043
0.32654
0.369554
0.66778
0.679404
0.506519
0.508672
-0.237073
0.659122
-0.0031387
0.749305
0.745736
0.738841
0.702321
0.744755
0.712798
0.688218
0.676161
0.692281
0.558478
0.690618
0.598291
-0.113582
0.656821
-0.0781231
0.284828
0.309839
0.666052
0.70118
0.682235
0.617337
0.56738
0.511088
0.676424
0.665717
0.388695
0.523862
-0.0110606
0.0889282
0.659262
0.0405122
0.114727
0.659198
0.644671
0.53841
0.690753
0.742257
0.711398
0.685651
0.385886
0.667981
0.27319
0.566163
0.559869
0.693523
0.680909
0.426407
0.524248
0.683709
0.695472
0.602781
0.650664
0.668581
0.711846
0.726845
0.719159
0.673993
0.666748
0.25407
0.351288
0.577601
0.486766
0.684018
0.745576
0.736258
0.712394
0.427243
0.655673
0.229167
0.716125
0.685058
0.726787
0.726268
0.71232
0.743635
0.585885
0.570995
0.691605
0.256941
0.654968
0.0284934
0.288109
0.653689
0.0541603
0.677895
0.410713
0.520661
0.620411
0.674355
0.701836
0.652449
-0.0369419
0.206121
0.681818
0.444039
0.510128
0.659799
-0.229742
-0.160539
-0.086557
-0.305101
0.658441
0.664747
0.30592
0.476759
0.662953
0.169
0.259852
0.418555
0.449453
0.666151
0.278048
0.669901
0.329909
0.495944
0.460374
0.681818
0.684808
0.583978
0.503655
0.761931
0.74594
0.722375
0.524486
0.495351
0.6848
0.68549
0.539451
0.51505
0.490737
0.660867
0.300241
0.677482
0.533636
0.686519
0.696914
0.604058
0.69224
0.592059
0.575434
0.700214
0.57913
0.562289
0.695949
0.751047
0.731696
0.730205
0.691279
0.597464
0.711444
0.661284
0.332974
0.320616
0.0944665
0.658212
0.0542761
0.0532862
0.659235
0.0481214
0.721873
0.719876
0.666329
-0.0534723
0.659219
0.0275478
0.550713
0.679855
0.439559
0.656842
-0.044917
-0.0148227
0.766638
0.755691
0.738595
0.685636
0.649512
0.71649
0.675574
0.629512
0.707014
0.659537
0.20153
0.212878
0.559418
0.566065
0.689775
0.656784
0.400222
0.20957
0.66018
0.630618
0.71318
0.769129
0.754146
0.729037
0.204427
0.239798
0.661299
0.67983
0.419185
0.503634
0.246526
0.208537
0.658612
0.657767
0.0604377
0.0167278
0.670797
0.673234
0.721277
0.605147
0.606282
0.696329
0.730816
0.727262
0.750742
0.113498
0.144347
0.123202
0.658597
0.139583
0.657027
0.617544
0.559949
0.700702
0.231058
0.185517
0.176506
0.134041
0.662531
0.661579
0.611466
0.628547
0.708475
0.697277
0.671581
0.721848
0.330361
0.655416
0.124196
0.68968
0.652488
0.718723
0.727014
0.700153
0.73775
0.262957
0.655798
0.0665096
0.664125
0.589215
0.704016
0.626776
0.529953
0.680263
0.687725
0.572642
0.689221
0.482148
0.664191
0.434192
0.662079
-0.33984
-0.189627
0.664684
0.645531
0.715864
0.362968
0.660896
0.194585
0.671728
0.542
0.687047
0.0175118
0.654951
-0.21354
0.741277
0.727125
0.717038
0.704242
0.715594
0.687865
0.737464
0.723337
0.748374
0.731527
0.745448
0.723772
0.708628
0.744
0.699602
0.681591
0.683479
0.731875
0.700369
0.686103
0.72936
0.656328
0.0813019
0.0783167
0.72015
0.664042
0.711872
0.271806
0.19892
0.663785
0.581082
0.554884
0.549109
0.512416
0.694449
0.688635
0.716539
0.694792
0.721275
0.661102
0.562897
0.687548
0.624099
0.592821
0.705644
0.764075
0.753224
0.753874
0.550704
0.518658
0.688382
0.749443
0.736469
0.730241
0.630056
0.624861
0.70822
0.663591
0.588223
0.689276
0.761196
0.758034
0.742003
0.758592
0.744278
0.752921
0.747493
0.727918
0.752007
0.733099
0.756569
0.709781
0.713008
0.711365
0.6566
0.650814
0.718988
0.712192
0.669316
0.38149
0.516341
0.682995
0.555229
0.639831
0.669953
0.671823
0.347914
0.362556
0.483783
0.48204
0.700023
0.685135
0.593963
0.7685
0.765485
0.761185
0.540757
0.493585
0.686789
0.740441
0.729298
0.686012
0.656253
0.576359
0.689513
0.564055
0.571473
0.426235
0.675224
0.446625
0.678084
0.591143
0.539219
0.693849
0.0617639
-0.158502
0.655676
0.667595
0.562127
0.688073
0.682501
0.68739
0.674058
0.553799
0.6885
0.573749
0.529703
0.532055
0.683172
0.667351
0.583349
0.692536
0.704807
0.678676
0.589868
0.688124
0.703151
0.687358
0.707297
0.61907
0.611433
0.683574
0.693058
0.587498
0.599181
0.556852
0.698189
0.752577
0.741065
0.73646
0.311724
0.660271
0.146322
0.699558
0.68061
0.57137
0.669244
0.650987
0.579291
0.56228
0.692252
0.69529
0.661885
0.190856
0.348485
0.337702
0.65829
0.145018
0.303913
0.658254
0.11694
0.547544
0.676015
0.424635
0.678191
0.608189
0.699072
0.243181
0.36963
0.59347
0.250882
0.528228
-0.00363013
0.457206
0.331414
0.181494
0.514473
0.510206
0.145996
0.244619
0.513716
0.348208
0.245892
0.275805
0.3257
0.365935
0.468404
0.388233
0.314383
0.53107
0.65121
0.604752
0.378862
0.545293
0.157894
0.415139
0.22941
0.174177
0.451076
0.379701
0.370318
0.208844
0.398364
0.581255
0.527441
0.293784
0.417438
0.28972
0.659963
0.236611
0.511288
0.560244
0.305792
0.317076
0.258394
0.154534
0.236386
0.607842
0.391439
0.249513
0.297697
0.172022
0.600832
0.470436
0.387287
0.251191
0.500771
0.23134
0.246201
0.605821
0.354311
0.386439
0.473997
0.405788
0.647037
0.529431
0.5192
0.118361
0.1687
0.295965
0.490165
0.152041
0.368926
0.368865
0.199843
0.487817
0.560925
0.325453
0.373132
0.16273
0.228938
0.296302
0.500367
0.298307
0.269434
0.342941
0.614482
0.246729
0.501285
0.604369
0.374497
0.246209
-0.0972785
0.214205
0.263962
0.245455
0.114048
0.443074
0.535824
0.575019
0.65511
0.235002
0.247545
0.154109
0.262676
0.217461
0.578579
0.542006
0.467844
0.204029
0.167512
0.433172
0.538818
0.326803
0.269528
0.102799
0.317244
0.364896
0.629224
0.644838
0.494252
0.390197
0.304546
0.149963
0.6276
0.188885
0.486664
0.10785
0.606513
0.164964
0.169082
0.222293
0.558833
0.356609
0.0648464
0.231335
0.459602
0.238829
0.504842
0.439499
0.258653
0.556921
0.29666
0.219376
0.570435
0.236722
0.333779
0.149337
0.401223
0.290328
0.564566
0.499783
0.31582
0.490047
0.506564
0.589341
0.373164
0.291602
0.252856
0.507771
0.189877
0.417448
0.16277
0.647232
0.320723
0.568369
0.623739
0.395878
0.632486
0.570639
0.586332
0.19654
0.100173
0.147615
0.593462
0.196898
0.175004
0.18078
0.178635
0.330284
0.296175
0.400845
0.62416
0.496453
0.290118
0.497996
0.279187
0.654213
0.130912
0.547983
0.260557
0.0884323
0.61092
0.628671
0.251308
0.264805
0.646413
0.419562
0.290627
0.219903
0.490862
0.578373
0.480388
0.234331
0.25247
0.522912
0.386855
0.218451
0.445172
0.17879
0.186863
0.305497
0.55521
0.110753
0.319702
0.536648
0.291391
0.103791
0.317069
0.253883
0.294598
0.439991
0.452759
0.227847
0.169701
0.210307
0.472078
0.473998
0.314849
0.457159
0.303511
0.197948
0.423939
0.290973
0.0820452
0.48788
0.569026
0.403525
0.619428
0.583098
0.656801
0.246891
0.0564508
0.342884
0.315163
0.288739
0.120413
0.428851
0.605818
0.487482
0.419371
0.222684
0.320925
0.503465
0.385629
0.45985
0.238677
0.345189
0.287267
0.162982
0.226753
0.259517
0.247093
0.201518
0.457259
0.388926
0.318256
0.466544
0.260664
0.332307
0.237208
0.31772
0.282954
0.274384
0.413802
0.120717
0.0472166
0.349893
0.139715
0.106076
0.418376
0.133275
0.109127
0.56609
0.462776
0.229116
0.498164
0.18148
0.450161
0.448449
0.187846
0.253705
0.536108
0.348141
0.502381
-0.0082999
0.213515
0.570141
0.280103
0.224567
0.0223662
0.122943
0.092637
0.131338
0.292968
0.464617
0.196453
0.0934539
0.217874
0.272856
0.654438
0.24127
0.487538
0.424282
0.153616
0.315272
0.224322
0.164917
0.442933
0.305334
0.60502
0.469382
0.22445
0.297201
0.394428
0.650168
0.495494
0.582503
0.499996
0.292924
0.401677
0.330467
0.208764
0.126945
0.266631
0.283214
0.465254
0.243879
0.146241
0.25137
0.304479
0.245208
0.271639
0.549774
0.287182
0.265191
0.599293
0.556465
0.2255
0.394293
0.579119
0.233699
0.124124
0.29981
0.199727
0.164875
0.57574
0.222643
0.321539
0.590288
0.106929
0.397755
0.240834
0.398352
0.302697
0.255003
-0.0780675
0.316139
0.147911
0.264178
0.30812
0.306795
0.492907
0.603621
0.24357
0.386621
0.305763
0.217748
0.0758669
0.540926
0.436671
0.270159
0.147172
0.4148
0.145158
0.255636
0.234064
0.215148
0.533803
0.601951
0.285481
0.486988
0.64884
0.546465
0.547968
0.589853
0.285148
0.27059
0.167875
0.648295
0.535381
0.568249
0.252025
0.293932
0.0979016
0.50056
0.298936
0.233691
0.56904
0.453498
0.199056
0.312292
0.2362
0.24961
0.23916
0.298041
0.319216
0.192326
0.285589
0.129791
0.316059
0.194584
0.452134
0.370201
0.111015
0.581284
0.59568
0.49694
0.277564
0.405331
0.131768
0.512404
0.386924
0.143856
0.576908
0.0632406
0.60743
0.137805
0.33086
0.344933
0.494329
0.518679
0.246563
0.624559
0.253712
0.552071
0.331388
0.453459
0.274437
0.23458
0.260378
0.558753
0.340777
0.643057
0.475428
0.123661
0.244653
0.451372
0.0880569
0.281594
0.333227
0.191883
0.61135
0.200799
0.176563
0.521871
0.260222
0.604526
0.636507
0.303728
0.645388
0.619753
0.554511
0.573414
0.420951
0.155001
0.231575
0.310098
0.53887
0.308951
0.0660704
0.622194
0.196875
0.326581
0.222646
0.587036
0.651567
0.210597
0.547523
0.422924
0.603342
0.318696
0.505731
0.310306
0.623517
0.640188
0.475725
0.229453
0.523894
0.282231
0.390497
0.373892
0.329242
0.425979
0.264892
0.0705262
0.170335
0.341753
0.445884
0.392351
0.572181
0.213936
0.296223
0.448096
0.174045
0.594054
0.233478
0.310252
0.592893
0.560913
0.406215
0.630057
0.231309
0.293995
0.511219
0.368971
0.358713
0.328615
0.262559
0.45389
0.482802
0.26357
0.237178
0.404435
0.122538
0.188532
0.605383
0.648332
0.643832
0.334307
0.654949
0.649772
0.615602
0.0731599
0.433207
0.425763
0.631664
0.290704
0.242505
0.152767
0.227168
0.035587
0.620827
0.34451
0.354559
0.51039
0.475718
0.28361
0.308092
0.649554
0.626215
0.581936
0.471846
0.271497
0.486486
0.455266
0.288411
0.345861
0.172316
0.224458
0.37771
0.357273
0.272396
0.608387
0.60434
0.0793752
0.557982
0.24824
0.238188
0.298211
0.602553
0.319201
0.4743
0.339465
0.585261
0.298216
0.341614
0.639191
0.0973523
0.119363
0.231587
0.199138
0.0499852
-0.134518
0.212608
0.0575889
0.366078
0.0778585
0.183344
0.356294
0.251981
0.214567
0.281561
0.158967
-0.0978445
0.62126
0.561763
0.305813
0.148562
0.571211
0.278665
0.241981
0.638142
0.222199
0.63528
0.319837
0.565646
0.332316
0.144661
0.175708
0.388115
0.390898
0.367307
0.14744
0.305479
0.188102
0.201884
0.258377
0.111877
0.164779
0.617746
0.226331
0.482682
0.517742
0.292895
0.54127
0.521435
0.152616
-0.123197
0.331522
0.128062
0.056785
0.491489
0.497066
0.307346
0.448752
0.283976
0.639443
0.617481
0.331151
0.272721
0.627089
0.573162
0.440198
0.437573
0.294086
0.643596
0.378198
0.0769083
0.588623
0.545962
0.60582
0.394939
0.233455
0.294539
0.499701
0.446059
-0.2143
0.660452
0.328518
0.227653
0.381922
0.582283
0.642719
0.643243
0.446974
0.351794
0.526551
0.57629
0.599946
0.483749
0.540919
0.164251
0.244318
0.411698
0.168559
0.158859
0.11108
0.325566
0.522827
0.129328
0.377877
0.250295
0.556467
0.643321
0.341069
0.154799
0.0982844
0.51393
0.267217
0.221242
0.103468
0.607097
0.412632
0.426448
0.137199
0.428778
0.222714
0.241118
0.495938
0.518451
0.61198
0.652928
0.212668
0.579881
0.080119
0.591539
0.605129
0.605358
0.528452
0.191646
0.191986
0.31186
0.0757928
0.371267
0.107805
0.421475
0.144529
0.56841
0.293875
0.0900932
0.560941
0.512405
0.337923
0.34857
0.479253
0.603309
0.4144
0.365895
0.0853915
0.546285
0.394194
0.630025
0.0558962
0.3599
0.590159
0.498073
0.629829
0.505018
0.307334
0.0317684
0.0875119
0.348353
0.123242
0.619276
0.0796181
0.265312
0.335516
0.2234
0.539734
0.0607865
0.601412
0.501622
0.430199
0.0742622
0.455327
0.222882
0.295304
0.346508
0.336515
0.292944
0.273612
0.525849
0.195542
0.654389
0.284619
0.35211
0.468191
0.499616
0.622895
0.294353
0.322228
0.213562
0.347714
0.269399
0.613986
0.225865
0.373468
0.292175
0.547939
0.244373
0.391159
0.160831
0.643785
0.0724165
0.190132
0.271688
0.555329
0.0957675
0.11058
0.182705
0.14637
0.603263
0.363527
0.481121
0.565629
0.462224
0.382946
0.645582
0.370382
0.506452
0.457708
0.388464
0.11095
0.401461
0.346305
0.267595
0.402978
0.194722
0.123329
0.391811
0.298488
0.196914
0.540839
0.352111
0.482598
0.340597
0.620386
0.332274
0.326348
0.457577
0.142791
0.215356
0.292794
0.387672
0.413042
0.447078
0.599224
0.495876
0.536501
0.396751
0.580236
0.622863
0.619158
0.408721
0.370892
0.421936
0.158686
0.634479
0.571894
0.550775
0.366985
0.191039
0.11326
0.422627
0.497375
0.230163
0.549128
0.570645
0.445393
0.247916
0.393189
0.268596
0.231387
0.369283
0.253423
0.426723
0.103822
0.430283
0.342772
0.332517
0.0631936
0.410193
0.382517
0.474249
0.288994
0.417367
0.597091
0.611191
0.428762
0.324244
0.538237
0.391245
0.220857
0.219569
0.323511
0.137999
0.598801
0.354306
0.404894
0.501773
0.487524
0.447175
0.18815
0.647662
0.45564
0.232851
0.361943
0.377016
0.537704
0.591462
0.458034
0.433303
0.0981691
0.199915
0.333176
0.441284
0.375986
0.429406
0.254197
0.607064
0.436553
0.539043
0.57734
0.40767
0.232257
0.383404
0.631161
0.26159
0.0896968
0.380269
0.639987
0.273888
0.324481
0.527468
0.496726
0.555743
0.363018
0.102347
0.439017
0.154942
0.281838
0.555106
0.352674
0.165396
0.224658
0.269999
0.453297
0.284313
0.259131
0.584418
0.238355
0.647373
0.551378
0.14709
0.0432572
0.355242
0.506012
0.574202
0.360115
0.333464
0.225735
0.313745
0.333528
0.652453
0.590453
0.505631
0.289749
0.113861
0.612352
0.646541
0.606655
0.538172
0.587877
0.377532
0.163056
0.0703107
0.0911122
0.621213
0.380298
0.211501
0.304541
0.646146
0.293396
0.247726
0.132836
0.363832
0.213371
0.665967
0.440941
0.499963
0.586072
0.569784
0.317275
0.461256
0.375743
0.485748
0.25084
0.445598
0.253074
0.612751
0.157503
0.275541
0.202671
0.30862
0.595215
0.30269
0.552407
0.580006
0.588309
0.17951
0.372378
0.333351
0.23639
0.604536
0.394215
0.397898
0.43565
0.018801
0.309232
0.622024
0.467633
0.60839
0.0805079
0.190675
0.300676
0.619434
0.240649
0.339548
0.199941
0.185438
0.294811
0.633021
0.320882
0.339439
0.136523
0.662464
0.633138
0.0237805
0.62258
0.291188
0.181731
0.19457
0.373473
0.13137
0.446011
0.290832
0.278949
0.314208
0.603134
0.361304
0.551814
0.317243
0.178403
0.312072
0.0787935
0.113031
0.346354
0.286761
0.407631
0.196042
0.341454
0.576103
0.437764
0.279278
0.135609
0.592061
0.364339
0.343056
0.657153
0.405722
0.272779
0.270612
0.194531
0.626592
0.271425
0.347512
0.451849
0.140831
0.598023
0.168372
0.581018
0.367372
0.519736
0.204467
0.5387
0.338533
0.151504
0.218575
0.365442
0.59581
0.0382602
0.239128
0.285245
0.622556
0.65336
0.217311
0.262555
0.440591
0.646735
0.328702
0.60201
0.571755
0.548169
0.519616
0.417337
0.477736
0.464286
0.607525
0.341901
0.38707
0.218284
0.251779
0.339575
0.2016
0.627565
0.175315
0.601427
0.331616
0.619189
0.26126
0.635361
0.51598
0.590938
0.620047
0.596397
0.654878
0.31834
0.581004
0.362753
0.299076
0.241224
0.197576
0.608382
0.17729
0.44055
0.453972
0.331547
0.439818
0.247048
0.614904
0.387523
0.528892
0.067728
0.225648
0.306932
0.673253
0.227634
0.473753
0.259106
0.307863
0.16297
0.323102
0.294508
0.543541
0.612588
0.128955
0.432583
0.301189
0.269164
0.559721
0.22702
0.249155
0.627947
0.0923905
0.400125
0.499603
0.592253
0.638858
0.260445
0.240779
0.144681
0.293095
0.238195
0.298889
0.52289
0.284092
0.161222
0.337804
0.372868
0.277478
0.246324
0.283664
0.375005
0.150364
0.532215
0.518453
0.271601
0.529352
0.147841
0.130912
0.223681
0.0954696
0.628615
0.298168
0.29078
0.250704
0.570729
0.606519
0.407459
0.521648
0.250569
0.23283
0.376272
0.293642
0.235608
0.606815
0.416977
0.474992
0.632151
0.540303
0.355709
0.62208
0.123691
0.412277
0.405972
0.450474
0.306514
0.624091
0.282641
0.443383
0.359608
0.275995
0.202516
0.248736
0.516126
0.5627
0.583476
0.382949
0.406556
0.622412
0.543566
0.347211
0.404398
0.174145
0.315838
0.548598
0.126787
0.576332
0.290722
0.589168
0.656229
0.610827
0.27868
0.587956
0.573178
0.107047
0.623324
0.253888
0.616054
0.543512
0.303253
0.194032
0.41772
0.320715
0.297888
0.245
0.555294
0.275348
0.622377
0.186504
0.262271
0.233433
0.184414
0.291258
0.562127
0.639426
0.180395
0.528625
0.383423
0.443921
0.333214
0.438788
0.600422
0.548835
0.294025
0.592531
0.558524
0.635541
0.183762
0.262876
0.245095
0.522815
0.629589
0.566205
0.347696
0.634952
0.362448
0.131325
0.191956
0.0379552
0.346922
0.160741
0.635508
0.647663
0.404977
0.658434
0.551445
0.401155
0.629933
0.170897
0.62411
0.313663
0.606273
0.296207
0.193823
0.517168
0.411605
0.616179
0.599826
0.604027
0.213257
0.21063
0.106044
0.579588
0.546467
0.2146
0.37479
0.54892
0.0817724
0.261433
0.210117
0.301184
0.439253
0.296081
0.40636
0.519506
0.389184
0.406895
0.520748
0.293042
0.31121
0.439243
0.393959
0.2996
0.581735
0.616654
0.215289
0.543388
0.0705943
0.252833
0.589747
0.53342
0.281791
0.60904
0.168271
0.517318
0.318907
0.318977
0.589589
0.300838
0.529135
0.518792
0.484501
0.650047
0.491348
0.145543
0.459205
0.343214
0.531161
0.650318
0.477995
0.359722
0.234716
0.321238
0.591385
0.178614
0.572866
0.220418
0.425507
0.540911
0.520282
0.380746
0.586652
0.633248
0.304792
0.294879
0.404678
0.208748
0.161046
0.411203
0.518829
0.223848
0.142444
0.229967
0.139655
0.512335
0.357665
0.535995
0.256271
0.606567
0.389143
0.573103
0.643921
0.238346
0.597573
0.298009
0.408966
0.379014
0.583281
0.246256
0.3258
0.386185
0.198416
0.301907
0.191285
0.160546
0.0714443
0.629819
0.644492
0.221057
0.256858
0.5256
0.118898
0.225525
0.295447
0.49951
0.511699
0.10557
0.0679561
0.599871
0.254897
0.441401
0.251588
0.136509
0.193269
0.418392
0.573069
0.437273
0.126617
0.608277
0.570551
0.222447
0.439057
0.28618
0.64264
0.307307
0.334228
0.155821
0.480472
0.619606
0.452965
0.414723
0.240164
0.3525
0.442689
0.630413
0.662326
0.244146
0.636019
0.24992
0.421145
0.422135
0.346632
0.280182
0.581509
0.312486
0.413825
0.219865
0.239641
0.319034
0.197641
0.484884
0.60711
0.220933
0.25956
0.412556
0.286319
0.2377
0.0727941
0.284364
0.589886
0.08671
0.271774
0.509522
0.412797
0.348689
0.473786
0.562275
0.207724
0.212748
0.563233
0.336963
0.204999
0.367166
0.581394
0.475067
0.422761
0.248077
0.244939
0.237011
0.631594
0.565469
0.639954
0.34199
0.493586
0.174291
0.378717
0.57424
0.127218
0.139853
0.518417
0.569496
0.120635
0.267458
0.243578
0.196218
0.24183
0.659861
0.329587
0.261797
0.414159
0.234833
0.51497
0.427673
0.165863
0.27075
0.540088
0.349543
0.633154
0.156822
0.263626
0.464102
0.443973
0.347825
0.444453
0.199218
0.63804
0.632379
0.468195
0.587255
0.228385
0.580788
0.472181
0.461566
0.622512
0.119402
0.276985
0.646536
0.475839
0.109853
0.27282
0.564174
0.643143
0.37637
0.526986
0.244314
0.151283
0.216476
0.101276
0.574271
0.246172
0.390523
0.622838
0.233456
0.210614
0.24271
0.40086
0.259474
0.280199
0.238379
0.181963
0.351361
0.546798
0.618523
0.501285
0.288475
0.275408
0.0962238
0.270478
0.460208
0.437423
0.484773
0.51319
0.276749
0.362872
0.558248
0.573021
0.642138
0.590727
0.626226
0.354373
0.166617
0.216683
0.181387
0.631661
0.401661
0.25071
0.620377
0.174942
0.551819
0.513878
0.273978
0.25101
0.277067
0.252308
0.570244
0.3214
0.500674
0.367481
0.615414
0.433487
0.650103
0.214074
0.369573
0.262813
0.0626315
0.290306
0.535658
0.193204
-0.00479277
0.421715
0.622913
0.532586
0.250354
0.156297
0.221826
0.17743
0.254035
0.179223
0.344487
0.190169
0.520507
0.2172
0.256978
0.620291
0.361314
0.481963
0.561401
0.33392
0.389723
0.208371
0.537676
0.315168
0.278826
0.338004
0.199932
0.149963
0.252703
0.244042
0.530583
0.641788
0.579714
0.425624
0.507068
0.127731
0.637211
0.428363
0.519915
0.251985
0.51027
0.277012
0.297607
0.550196
0.618442
0.534639
0.429242
0.308265
0.646524
0.301298
0.553305
0.628548
0.48905
0.322247
0.121191
0.552892
0.417002
0.188823
0.474302
0.408527
0.612077
0.241322
0.624269
0.642799
0.338302
0.216412
0.625469
0.161255
0.195877
0.297495
0.190261
0.284619
0.202184
0.159282
0.36524
0.259698
0.21837
0.277556
0.436031
0.250696
0.235079
0.467094
0.39097
0.140729
0.607116
0.652936
0.631093
0.249021
0.129691
0.654941
0.149958
0.351543
0.233166
0.298061
0.250841
0.517598
0.287563
0.286272
0.139583
0.125624
0.191434
0.291076
0.116391
0.375938
0.415376
0.362894
0.616898
0.407762
0.478236
0.320366
0.56633
0.293103
0.298046
0.672379
0.297503
0.408586
0.160517
0.490621
0.645248
0.321169
0.448962
0.409755
0.269186
0.241937
0.229785
0.191166
0.523573
0.202007
0.334192
0.285834
0.339851
0.223625
0.231998
0.350873
0.313178
0.269033
0.656999
0.356547
0.320893
0.424278
0.616575
0.299902
0.129403
0.543391
0.163425
0.318032
0.246212
0.358767
0.27689
0.31056
0.359258
0.636998
0.577357
0.137208
0.26793
0.125557
0.235069
0.107152
0.196636
0.290048
0.211757
0.297083
0.464074
0.654373
0.29034
0.510954
0.384615
0.630383
0.284908
0.643714
0.454847
0.173588
0.4571
0.521481
0.294775
0.574203
0.246477
0.585126
0.25551
0.0193023
0.3612
0.653234
0.644066
0.523491
0.468011
0.499175
0.136602
0.265504
0.498518
0.650104
0.0458132
0.362113
0.247715
0.291189
0.341789
0.223248
0.175307
0.251698
0.194518
0.263347
0.306283
0.339351
0.64819
0.569339
0.106089
0.5447
0.211057
0.222906
0.552928
0.25374
0.316669
0.484866
0.0893194
0.228711
0.374276
0.578623
0.180346
0.240631
0.312837
0.460012
0.180618
0.614419
0.125333
0.293479
0.314991
0.247034
0.467603
0.463752
0.616514
0.241807
0.530879
0.416033
0.454166
0.242687
0.466033
0.208926
0.167639
0.0847379
0.42535
0.358313
0.315702
0.596663
0.365264
0.419442
0.462759
0.223413
0.198826
0.29426
0.431727
0.254077
0.652763
0.163166
0.125871
0.294898
0.28922
0.255949
0.239546
0.510138
0.296534
0.369053
0.181575
0.249635
0.363501
0.176204
0.650606
0.64806
0.1874
0.2222
0.572759
0.385199
0.231397
0.155487
0.229606
0.188062
0.41228
0.603773
0.233099
0.135814
0.462749
0.356323
0.126639
0.183505
0.353148
0.503871
0.662659
0.171929
0.122824
0.4337
0.574249
0.323057
0.415932
0.307842
0.246657
0.298842
0.459373
0.352885
0.249241
0.545281
0.311154
0.0875291
0.406028
0.257311
0.550927
0.649616
0.258976
0.287616
0.289709
0.287954
0.171952
0.300413
0.187565
0.620241
0.556799
0.501673
0.292417
0.143353
0.536291
0.63465
0.234337
0.40024
0.280714
0.0709541
0.382876
0.294957
0.0699352
0.248978
0.469874
0.170705
0.129339
0.19058
0.574884
0.156529
0.545495
0.345755
0.242829
0.307864
0.215795
0.55172
0.0967404
0.299051
0.329587
0.166027
0.41636
0.499666
0.430081
0.358723
0.52893
0.18389
0.18592
0.600835
0.243399
0.595565
0.434785
0.321693
0.413761
0.580165
0.356554
0.122715
0.613196
0.236313
0.332248
0.581913
0.226583
0.624773
0.234773
0.313757
0.099644
0.315319
0.191763
0.371352
0.19723
0.089838
0.184743
0.181506
0.0771523
0.603413
0.18135
0.308057
0.424373
0.365778
0.637321
0.63902
0.273314
0.365282
0.556537
0.260258
0.604891
0.0906232
0.307448
0.403444
0.238498
0.561673
0.281416
0.291087
0.271759
0.237102
0.237401
0.0926946
0.584438
-0.0804303
0.629249
0.503228
0.198453
0.12918
0.196576
0.664617
0.505162
0.470269
0.35178
0.41955
0.332414
0.581719
0.537146
0.21859
0.450002
0.631821
0.343514
0.396248
0.458707
0.111969
0.181904
0.558603
0.305452
0.338061
0.625178
0.174736
0.0950361
0.250086
0.33646
0.343112
0.652416
0.233953
0.148957
0.232139
0.33362
0.239174
0.593872
0.355486
0.201177
0.280454
0.234108
0.226479
0.282412
0.454154
0.387229
0.20982
0.593035
0.301017
0.579333
0.210742
0.175171
0.303453
0.586201
0.63133
0.563176
0.374209
0.351282
0.548562
0.642569
0.164257
0.605708
0.189754
0.476305
0.455588
0.592179
0.371129
0.577645
0.612582
0.256414
0.253216
0.309155
0.368401
0.190356
0.211595
0.172532
0.517274
0.562586
0.158337
0.612773
0.370847
0.532897
0.347004
0.200608
0.558718
0.538723
0.284303
0.273169
0.190344
0.641506
0.510697
0.652456
0.159557
0.189398
0.331229
0.568568
0.463615
0.612819
0.399679
0.647873
0.249772
0.322839
0.396626
0.266477
0.438572
0.133399
0.54844
0.356764
0.401349
0.607096
0.148572
0.162
0.0993947
0.436513
0.586645
0.271019
0.468197
0.145472
0.145257
0.343362
0.255307
0.235062
0.602493
0.37948
0.223079
0.324357
0.428446
0.621676
0.437829
0.315014
0.583897
0.374581
0.627339
0.384572
0.499321
0.31736
0.156169
0.655026
0.204697
0.416473
0.423545
0.601589
0.488167
0.354223
0.253798
0.645907
0.328258
0.20719
0.522664
0.638398
0.511238
0.469633
0.147062
0.080932
0.401377
0.214093
0.31206
0.387287
0.209574
0.618481
0.644378
0.611909
0.265479
0.30103
0.23714
0.287746
0.488736
0.175613
0.484958
0.620248
0.166062
0.288059
0.245452
0.563682
0.470609
0.300616
0.217207
0.509188
0.236117
0.125052
0.183162
0.65421
0.0923515
0.54417
0.452489
0.24358
0.637673
0.411068
0.668279
0.0859493
0.291523
0.404075
0.610101
0.290958
0.603966
0.412695
0.0919686
0.35607
0.258465
0.299174
0.0828391
0.54178
0.290468
0.215367
0.122823
0.360518
0.606899
0.0255325
0.274997
0.585042
0.31983
0.578866
0.0849737
0.238765
0.241378
0.329936
0.258651
0.14675
0.234627
0.0387533
0.311313
0.314204
0.534445
0.401604
0.587707
0.224511
0.300872
0.150487
0.381258
0.0386601
0.30704
0.651497
0.341181
0.276892
0.659554
0.212206
0.416525
0.461779
0.138619
0.26545
0.359022
0.421652
0.619061
0.637605
0.637819
0.432426
0.323103
0.322939
0.194904
0.575934
0.482112
0.242298
0.28363
0.271971
0.351328
0.669002
0.320707
0.668885
0.279409
0.464747
0.198539
0.237539
0.143064
0.257039
0.599146