/*--------------------------------*- C++ -*----------------------------------*\
  =========                 |
  \\      /  F ield         | OpenFOAM: The Open Source CFD Toolbox
   \\    /   O peration     | Website:  https://openfoam.org
    \\  /    A nd           | Version:  6
     \\/     M anipulation  |
\*---------------------------------------------------------------------------*/
FoamFile
{
    version     2.0;
    format      ascii;
    class       volVectorField;
    location    "0";
    object      U;
}
// * * * * * * * * * * * * * * * * * * * * * * * * * * * * * * * * * * * * * //

dimensions      [0 1 -1 0 0 0 0];

internalField   nonuniform List<vector> 
13046
(
(-0.489801 0.206078 0)
(-0.677604 -0.256603 -5.42741e-21)
(-0.148708 -0.146784 -1.10958e-20)
(-0.447092 0.0941605 0)
(-0.105482 -0.0601477 -1.03535e-20)
(-0.555597 -0.265203 0)
(-0.512283 0.127505 1.6247e-21)
(-0.636063 -0.316313 2.71293e-21)
(-0.0729178 -0.0472063 -1.12051e-20)
(-1.35901 0.626443 3.30588e-21)
(-1.50305 -0.689507 0)
(0.091274 -0.0303524 6.56903e-21)
(-0.68055 0.274806 -5.13437e-21)
(-0.85368 -0.364632 -8.03844e-21)
(-0.0487774 -0.104674 5.85475e-21)
(-1.28459 0.700117 -4.81441e-21)
(0.0441535 -0.0444807 1.57101e-20)
(-1.54677 -0.578536 2.16154e-21)
(-0.197221 0.0331913 0)
(-0.377698 -0.226178 -5.73029e-21)
(-0.437372 -0.03875 1.70785e-20)
(-1.30101 0.68981 -1.85537e-21)
(0.0589087 -0.0383665 -2.09862e-20)
(-1.53907 -0.602824 0)
(-0.386798 0.105973 6.72147e-21)
(-0.536087 -0.209255 -1.34134e-20)
(-0.16044 -0.121174 0)
(-0.697908 0.315236 -9.17829e-21)
(-0.891709 -0.36156 2.38006e-21)
(-0.0615842 -0.121291 -1.02983e-20)
(-0.50751 0.233692 0)
(-0.711053 -0.240032 0)
(-0.169746 -0.16974 1.12927e-20)
(-0.332939 0.064453 -7.80825e-21)
(-0.18924 -0.120837 3.91153e-21)
(-0.465153 -0.169714 2.33761e-20)
(-0.326185 0.0351825 -1.20526e-20)
(-0.190713 -0.0949348 6.0166e-21)
(-0.426141 -0.165088 -1.19421e-20)
(-0.386576 0.221063 8.14089e-21)
(-0.406419 -0.327841 2.00123e-21)
(-0.683567 -0.116463 -8.29548e-21)
(-0.31327 -0.0507975 5.44906e-21)
(-0.239437 -0.0597279 9.14986e-21)
(-0.311843 -0.120752 0)
(-0.347145 -0.0386777 3.52362e-21)
(-0.205619 -0.03214 -1.41002e-20)
(-0.335685 -0.155314 -1.75339e-21)
(-0.519211 0.200611 0)
(-0.697076 -0.285294 -3.84287e-22)
(-0.103807 -0.121449 -8.46587e-23)
(-0.682609 -0.520634 1.22542e-20)
(-0.321877 0.227798 0)
(-0.795124 -0.00582967 -9.75162e-21)
(-0.776782 -0.578973 -1.74782e-20)
(-0.831373 0.0313611 -1.55352e-20)
(-0.273611 0.197834 1.20208e-20)
(-1.32077 -0.366257 -1.53024e-21)
(-1.01948 0.643057 0)
(-0.169704 -0.20216 8.79858e-21)
(-0.950373 0.311746 -4.85444e-21)
(-1.08359 -0.58996 4.377e-21)
(0.0411029 -0.0133144 -2.42885e-20)
(0.087616 -0.0460702 1.22276e-20)
(-1.43774 -0.653397 -2.08153e-21)
(-1.27021 0.570518 -6.57832e-21)
(-0.955101 0.625021 0)
(-1.25254 -0.310439 0)
(-0.235182 -0.255587 0)
(-0.897836 0.587202 -3.39001e-21)
(-1.19455 -0.290085 0)
(-0.256286 -0.27083 7.04027e-21)
(-1.3805 -0.379845 0)
(-1.07291 0.675698 1.07274e-22)
(-0.150359 -0.192302 -6.15419e-23)
(-0.219727 0.0608121 0)
(-0.375239 -0.244721 6.14455e-21)
(-0.477427 -0.0638918 -1.21212e-20)
(-0.0725729 -0.130769 9.60109e-21)
(-1.14892 0.698895 -9.65518e-21)
(-1.45147 -0.446698 0)
(-0.428363 0.121884 3.55464e-21)
(-0.570889 -0.238352 0)
(-0.126537 -0.0970596 0)
(0.0890857 -0.0423838 -1.09032e-20)
(-1.47005 -0.661919 -1.37398e-21)
(-1.30628 0.596331 3.8585e-21)
(-1.31541 0.463905 -6.96284e-21)
(0.0940436 -0.0297643 0)
(-1.38558 -0.762727 -1.6658e-21)
(0.0334503 -0.00976775 0)
(-1.4006 0.369305 0)
(-1.35662 -0.881498 1.91193e-22)
(-0.995238 0.455608 0)
(-1.0586 0.471895 4.11983e-21)
(-1.19635 -0.514759 8.26938e-21)
(-1.24863 -0.559045 -3.8465e-21)
(0.0257347 -0.0830267 -5.12023e-21)
(0.0507763 -0.0663243 1.32159e-20)
(0.0828858 -0.0235687 -6.20618e-22)
(-1.30304 0.433416 6.81376e-21)
(-1.35857 -0.782432 0)
(-0.370718 -0.00557976 -2.13967e-23)
(-0.173775 -0.0333663 7.2708e-21)
(-0.390549 -0.193032 0)
(-0.164777 0.124272 0)
(-0.735037 0.070197 -4.91861e-21)
(-0.743383 -0.504702 0)
(-0.307078 0.204325 1.38446e-20)
(-0.591165 -0.440953 0)
(-0.717158 -0.0360702 -1.88582e-20)
(-1.28803 0.613588 0)
(0.0710445 -0.0223511 0)
(-1.38382 -0.668547 3.41883e-22)
(-0.605969 0.237923 1.41756e-20)
(-0.787421 -0.330267 3.52104e-21)
(-0.063809 -0.101146 1.0821e-20)
(-1.07507 0.546815 5.26962e-21)
(-1.00823 0.499032 -9.99881e-21)
(-1.30172 -0.508394 -6.9326e-21)
(0.00518974 -0.0959058 5.87498e-21)
(-1.22705 -0.487333 3.98754e-21)
(0.000354566 -0.0994259 -5.48755e-21)
(-1.34842 0.640465 -2.1311e-21)
(-1.49895 -0.679564 -1.05135e-21)
(0.0858966 -0.0259881 -2.92878e-21)
(-0.858615 0.397173 0)
(-1.05716 -0.440991 -5.86763e-21)
(-0.0177565 -0.109326 1.23673e-20)
(-0.444019 0.24854 0)
(-0.345497 -0.294119 -1.01498e-20)
(-0.71436 -0.15527 4.6855e-22)
(0.0203268 0.00286988 0)
(-1.34874 0.344684 0)
(-1.33022 -0.863106 0)
(-1.17212 0.486486 0)
(-1.32883 -0.642899 -9.68434e-21)
(0.0842302 -0.0450319 -1.40257e-20)
(-0.574296 0.26756 0)
(-0.776993 -0.273292 0)
(-0.150959 -0.174143 0)
(-0.694277 0.17497 0)
(-0.810982 -0.456904 0)
(-0.0305345 0.0035218 0)
(-0.279929 0.194463 0)
(-0.658085 -0.483166 0)
(-0.741474 -0.00492525 1.01873e-20)
(-0.161055 0.110339 -1.41451e-21)
(-0.701083 0.0630131 -1.07524e-20)
(-0.718409 -0.478607 1.12518e-20)
(-1.00548 0.342718 1.09339e-20)
(-1.13541 -0.608079 0)
(0.0566332 -0.0250344 3.15106e-20)
(-0.112844 0.0496977 0)
(-0.59187 0.0674286 1.16449e-20)
(-0.631839 -0.389578 -2.91264e-21)
(-0.93531 -0.654834 0)
(-0.91056 0.126063 1.10505e-20)
(-1.01215 -0.686043 0)
(-0.966232 0.173993 6.34764e-21)
(-0.156949 0.129792 0)
(-0.102832 0.0953432 0)
(-0.72612 0.133755 1.49155e-21)
(-0.800449 -0.496345 5.88238e-21)
(-0.0676157 0.0456532 -6.14286e-21)
(-1.3842 0.604337 -3.39019e-21)
(0.0973028 -0.0340315 0)
(-1.47679 -0.718599 -2.34805e-21)
(-1.31569 0.627518 -1.60857e-21)
(0.0767101 -0.0208972 -1.34214e-21)
(-1.4413 -0.67101 0)
(-1.19638 0.516994 -5.76726e-21)
(-1.3591 -0.639522 0)
(0.0837026 -0.0485545 1.59372e-20)
(-0.56156 0.346089 0)
(-0.848417 -0.174726 2.5281e-21)
(-0.378234 -0.337178 5.79648e-21)
(-0.686855 0.107218 9.75041e-21)
(-0.0961598 0.0673872 2.98593e-21)
(-0.746471 -0.464234 0)
(0.101886 -0.0386507 0)
(-1.45614 -0.767671 0)
(-1.4062 0.549209 2.70432e-21)
(-0.500965 0.30754 0)
(-0.791223 -0.150334 -5.60064e-21)
(-0.393764 -0.331598 1.52119e-21)
(-0.115048 0.0659638 0)
(-0.616396 0.0673808 0)
(-0.650043 -0.410803 0)
(-0.638694 0.141879 4.83178e-21)
(-0.750254 -0.423593 0)
(-0.0426597 -0.000197908 0)
(-0.935509 -0.428758 -4.02078e-24)
(-0.00638585 -0.0785556 -7.31867e-21)
(-0.80436 0.359355 1.4523e-20)
(-1.00268 -0.419485 0)
(-0.0230732 -0.104681 -1.54965e-20)
(-1.33727 0.535523 -6.84962e-21)
(0.102603 -0.0372966 9.89354e-21)
(-1.44255 -0.730079 -7.01357e-21)
(0.0469664 -0.00383064 9.04533e-21)
(-1.29776 0.369629 4.41687e-21)
(-1.32313 -0.820201 8.45847e-21)
(-1.38636 0.424606 -1.10569e-20)
(-1.38893 -0.828147 0)
(0.0736296 -0.0249423 -8.87858e-21)
(-0.729929 -0.578944 -6.17123e-22)
(-0.882558 -0.0146517 4.29881e-21)
(-0.399681 0.297246 0)
(-0.635831 0.200003 -2.16846e-20)
(-1.13062 0.712367 5.06254e-21)
(-0.101915 -0.148546 -5.91553e-21)
(-1.45174 -0.43231 0)
(-1.40658 -0.830069 0)
(-1.41335 0.460448 -9.05746e-21)
(0.0836975 -0.033607 0)
(-0.365468 0.0327238 -1.76885e-20)
(-0.15794 -0.0607148 -5.90916e-21)
(-0.438285 -0.200168 1.74824e-20)
(-0.665393 0.32096 0)
(-0.871695 -0.331779 -3.47028e-22)
(-0.103911 -0.14638 -5.96335e-21)
(0.027663 0.00475084 6.95483e-21)
(-1.30584 0.350835 0)
(-1.31292 -0.841102 -9.75174e-21)
(-0.696035 0.235087 1.73172e-20)
(-0.911813 -0.437524 1.44018e-20)
(-0.00195812 -0.0644721 0)
(0.0904857 -0.0343917 0)
(-1.42966 -0.722831 8.71711e-22)
(-1.38086 0.598525 0)
(-0.343289 0.256839 0)
(-0.888894 0.0135532 0)
(-0.786869 -0.618498 0)
(-1.33877 0.41134 9.69454e-21)
(-1.3657 -0.807163 0)
(0.0721459 -0.0203234 -5.0423e-23)
(-0.839552 0.154046 4.23813e-21)
(-0.906738 -0.58954 -4.33645e-21)
(-0.076432 0.0705199 0)
(-0.857518 0.422801 0)
(-1.06819 -0.421453 5.5006e-21)
(-0.0432201 -0.12477 9.72514e-21)
(-1.21621 -0.84517 -1.34011e-20)
(-1.21815 0.246051 -8.17014e-21)
(-0.0663831 0.067344 5.46366e-21)
(-1.03713 0.189237 0)
(-1.0735 -0.734989 -5.67469e-21)
(-0.102417 0.0944102 -2.00687e-22)
(0.087282 -0.0393783 -8.64286e-21)
(-1.40049 -0.733444 0)
(-1.39053 0.579124 -1.156e-21)
(-0.40742 0.265894 7.4239e-21)
(-0.524797 -0.41379 -7.28171e-21)
(-0.763477 -0.08718 8.09868e-22)
(-1.19559 0.651669 1.25483e-21)
(0.0563926 -0.00293524 -1.25811e-20)
(-1.40671 -0.585691 0)
(-0.160804 0.00519893 -3.47497e-21)
(-0.426764 -0.0066345 -1.37979e-20)
(-0.422027 -0.238449 1.71851e-20)
(-0.854293 0.212287 4.94985e-21)
(-0.809638 0.165353 2.47631e-23)
(-0.955531 -0.571263 -1.07096e-20)
(-0.888721 -0.560439 0)
(-0.0556762 0.0518492 5.58418e-21)
(-0.011822 0.0235751 -5.74955e-21)
(-0.0429593 -0.106092 -1.25671e-20)
(-1.18819 0.709541 5.22709e-21)
(-1.4977 -0.468551 -6.15494e-21)
(-0.799637 0.407573 0)
(-1.01748 -0.376061 0)
(-0.0890741 -0.150254 -1.27604e-20)
(-1.10528 0.229616 -2.2045e-21)
(-1.13519 -0.773664 0)
(-0.0675351 0.0719665 0)
(-1.13029 0.523546 -5.04394e-21)
(-1.32207 -0.571937 0)
(0.0546826 -0.0672392 5.76406e-21)
(-0.283091 -0.0310824 3.63571e-21)
(-0.331638 -0.103385 5.33795e-21)
(-0.25017 -0.0873564 -1.81857e-21)
(-0.938765 0.192756 -8.0829e-21)
(-1.00605 -0.655461 0)
(-0.0616107 0.0684971 -9.43809e-21)
(-0.81677 0.434774 0)
(-1.04617 -0.366676 6.8679e-21)
(-0.108526 -0.165599 -8.10545e-21)
(-0.732801 0.273702 0)
(-0.798345 0.306802 1.70883e-21)
(-0.426721 0.284348 2.66425e-21)
(-0.546563 -0.436491 2.1056e-20)
(-0.790806 -0.0797145 -1.93092e-20)
(-0.991194 0.233315 -8.21185e-21)
(-1.06206 -0.677161 8.79411e-21)
(-0.0225134 0.0435267 8.61044e-21)
(-1.17358 0.535045 0)
(0.069703 -0.0579744 -2.04404e-20)
(-1.36369 -0.604262 -4.48557e-21)
(-0.302726 0.186016 -1.91746e-20)
(-0.546997 -0.413018 0)
(-0.686174 -0.0398167 6.35597e-21)
(-0.190551 0.154927 -1.10691e-20)
(-0.93446 0.113473 -6.32772e-21)
(-0.941681 -0.683463 0)
(-0.987676 0.539559 -5.09634e-21)
(-1.23449 -0.424841 -5.67914e-21)
(-0.0701783 -0.141201 3.62178e-21)
(-0.375598 0.264081 9.58565e-22)
(-0.644689 -0.50181 0)
(-0.8091 -0.0301397 1.3507e-20)
(-1.0429 0.575085 0)
(-1.08128 0.581246 0)
(-1.29821 -0.451146 -3.44098e-21)
(-0.0539234 -0.130258 -9.43803e-21)
(-1.32802 -0.490158 4.86734e-21)
(-0.0194659 -0.107125 1.00035e-20)
(0.103193 -0.0373305 -7.60498e-21)
(-1.46326 -0.744251 0)
(-1.38454 0.566879 -4.41609e-21)
(-0.946938 0.478335 5.96688e-21)
(-1.16805 -0.452214 0)
(-0.0299055 -0.117276 3.29848e-21)
(-1.23063 -0.618471 -3.05571e-21)
(0.0474069 -0.0164733 1.10087e-20)
(-1.15071 0.586302 2.47375e-22)
(-0.526825 0.0216782 -6.42939e-21)
(-0.144035 0.050299 0)
(-0.532659 -0.32856 0)
(-0.873817 0.284769 1.15539e-20)
(-1.01591 -0.541038 0)
(0.0315234 -0.0216949 1.8779e-20)
(0.0989913 -0.0395086 -6.31009e-21)
(-1.28964 0.525614 1.4257e-20)
(-1.41458 -0.700111 5.82098e-21)
(-0.812392 -0.609342 0)
(-0.862928 0.0401378 5.68582e-21)
(-0.275211 0.212059 -1.36234e-20)
(-1.25112 -0.849095 -1.56054e-20)
(-1.25311 0.283374 -4.86293e-21)
(-0.0283875 0.0396529 0)
(-0.811578 -0.391956 -1.49548e-20)
(-0.0245172 -0.0579963 0)
(-0.924593 0.357197 1.21974e-20)
(-1.07664 -0.523393 4.93923e-21)
(0.0405834 -0.0574088 5.70896e-21)
(-0.79971 -0.412899 8.68548e-21)
(-0.0191734 -0.0398069 -3.65824e-23)
(-1.26618 0.685621 -3.25782e-22)
(0.0346616 -0.0557572 7.42889e-21)
(-1.52585 -0.562013 -3.17983e-21)
(-0.711306 -0.59118 0)
(-0.917516 -0.0350462 1.33334e-21)
(-0.455012 0.337134 0)
(-0.982227 0.388511 -1.24342e-20)
(-1.14954 -0.553616 -6.0186e-21)
(0.0542816 -0.0512569 -6.86625e-21)
(-0.720816 0.168851 0)
(-0.820631 -0.485497 -8.54236e-21)
(-0.0378381 0.0197256 0)
(-0.747754 0.0396911 0)
(-0.714874 -0.515336 0)
(-0.221114 0.155029 0)
(-0.49108 0.164231 -4.9188e-21)
(-0.643967 -0.275575 -8.42704e-21)
(-0.103293 -0.103242 8.98302e-25)
(-0.235331 0.187473 1.37189e-20)
(-0.91155 0.0812714 1.52829e-20)
(-0.8932 -0.66005 8.42482e-21)
(-1.36118 0.497671 -5.5208e-21)
(-1.42012 -0.763076 5.85747e-21)
(0.100419 -0.034726 -9.35088e-21)
(-1.26113 -0.825859 1.06735e-20)
(-1.239 0.302727 4.93003e-21)
(-0.00255914 0.0270937 7.03396e-21)
(-0.777358 0.519474 -1.04766e-20)
(-0.352657 -0.334983 1.05904e-20)
(-1.08631 -0.227948 -8.15136e-21)
(-1.11755 0.649823 2.86149e-21)
(-1.07107 0.619972 -2.69687e-21)
(-1.34395 -0.433636 -1.09258e-21)
(-1.39575 -0.451941 0)
(-0.0622906 -0.128287 -3.41394e-21)
(-0.0801 -0.144423 -3.05868e-21)
(0.0532582 -0.0116775 -1.49146e-20)
(-1.28601 -0.608748 3.36724e-21)
(-1.17169 0.596698 1.01289e-21)
(-1.21766 0.664716 -1.10608e-22)
(0.0591142 -0.00276547 1.74053e-20)
(-1.44835 -0.586477 0)
(-0.92134 0.244163 -1.84621e-20)
(-1.02849 -0.607394 -2.30539e-21)
(0.000474788 0.0212834 0)
(0.102662 -0.037282 -1.90515e-20)
(-1.35571 0.557917 4.39522e-21)
(-1.46234 -0.724591 0)
(-0.899955 0.550451 1.50349e-20)
(-0.955074 0.571402 -1.11815e-20)
(-1.17506 -0.336365 6.23485e-21)
(-1.22433 -0.36785 2.33019e-21)
(-0.193638 -0.22251 -6.04001e-21)
(-0.148067 -0.190087 -3.03049e-21)
(0.0796655 -0.0455086 0)
(-1.39321 -0.845699 0)
(-1.46938 0.453401 1.42994e-21)
(-1.11947 0.642265 -1.47291e-21)
(0.0494112 0.00334355 0)
(-1.3642 -0.555756 0)
(-0.411739 -0.083998 3.65749e-24)
(-0.238555 0.0291159 7.75565e-21)
(-0.295178 -0.174509 3.82101e-21)
(-1.22354 0.619989 -1.7049e-21)
(-1.37009 -0.634557 -5.00095e-22)
(0.0616894 -0.0130041 8.17257e-22)
(-0.639355 0.377943 0)
(-0.899688 -0.227262 -1.13839e-20)
(-0.293676 -0.282677 -8.88525e-23)
(-1.41083 0.53227 1.85375e-22)
(-1.44417 -0.784589 6.88365e-21)
(0.101175 -0.0389378 1.31507e-23)
(-1.08806 -0.624611 -7.93932e-23)
(0.040644 -0.0308915 -6.36373e-21)
(-1.12072 0.496792 5.94067e-22)
(-0.325455 0.18001 -7.04144e-21)
(-0.41909 -0.318302 6.54974e-21)
(-0.629871 -0.0900826 2.03527e-20)
(-0.458954 0.0306811 0)
(-0.498713 -0.276471 -1.9076e-20)
(-0.128423 -0.00013336 9.51477e-21)
(-1.32823 0.66409 0)
(0.078923 -0.022388 8.7403e-21)
(-1.5103 -0.66001 -1.89971e-22)
(-0.495219 0.0465919 0)
(-0.538727 -0.305149 -6.57306e-21)
(-0.1142 0.0178323 -1.34961e-20)
(-0.378257 -0.0789144 8.06455e-21)
(-0.237594 0.00340867 -4.09904e-21)
(-0.288903 -0.15096 2.03416e-21)
(-0.325712 0.250518 6.60508e-21)
(-0.939245 0.0412267 -5.3015e-21)
(-0.866388 -0.681082 9.25711e-21)
(-0.500007 -0.04011 0)
(-0.422639 -0.270084 0)
(-0.200523 0.0782743 1.12966e-21)
(-0.530206 0.000277897 1.01744e-20)
(-0.495228 -0.310362 5.0032e-21)
(-0.176185 0.0756435 1.59138e-22)
(-0.71925 0.485497 1.59326e-20)
(-1.02911 -0.19664 -8.44231e-21)
(-0.407046 -0.377787 -1.04779e-20)
(0.0815801 -0.0341326 1.32357e-20)
(0.0894318 -0.0335298 -1.3471e-20)
(-1.52063 -0.658389 1.70102e-21)
(-1.50771 -0.677611 1.29065e-21)
(-1.33158 0.653946 0)
(-1.34728 0.639774 -3.38519e-21)
(-1.39091 0.500509 6.92079e-21)
(-1.43156 -0.780062 -4.60508e-21)
(0.0998283 -0.0362147 1.16072e-20)
(-0.339153 -0.334306 -6.76904e-21)
(-0.834172 0.5679 3.2597e-21)
(-1.14444 -0.24169 1.03877e-20)
(-0.435999 0.270882 -6.77829e-21)
(-0.454629 -0.368536 -6.67668e-21)
(-0.75541 -0.114936 6.27353e-21)
(-1.05472 0.159928 0)
(-1.06361 -0.763727 5.87358e-21)
(-0.153664 0.126846 2.07598e-22)
(-1.20258 -0.710972 2.35909e-22)
(0.064752 -0.052014 -5.92958e-21)
(-1.31565 0.501234 -2.90722e-22)
(0.0536495 -0.0212328 0)
(-1.41549 0.399944 0)
(-1.37099 -0.872476 3.26267e-21)
(-1.34663 0.618979 2.22936e-21)
(0.0850147 -0.0275294 0)
(-1.4566 -0.696621 -8.55513e-22)
(0.0320986 -0.0234515 -2.37246e-32)
(-1.02357 -0.589308 2.19032e-21)
(-1.03882 0.482522 -8.92143e-22)
(-1.07177 -0.524076 -2.48767e-21)
(0.0299966 -0.00881385 2.36676e-32)
(-0.987089 0.545592 7.69321e-22)
(-1.17401 -0.686083 -1.16982e-20)
(-1.07803 0.321358 0)
(0.0387027 0.00370228 -1.81982e-20)
(-1.34632 -0.807571 -4.90902e-22)
(0.080969 -0.0577681 -6.06308e-21)
(-1.46829 0.482949 0)
(-1.20482 0.477781 -7.49071e-21)
(-1.33762 -0.675485 5.9281e-21)
(0.0899678 -0.0386515 9.38179e-21)
(-1.27056 0.731363 9.04899e-21)
(0.0358335 -0.0288826 5.27085e-21)
(-1.57983 -0.548022 0)
(-0.596983 0.206869 3.82655e-21)
(-0.045876 -0.0730505 -3.70968e-21)
(-0.771961 -0.357407 3.63986e-21)
(-1.39268 -0.858604 1.57107e-21)
(0.0736334 -0.0389417 6.43202e-21)
(-1.45717 0.43756 1.90349e-21)
(-1.01193 0.134288 -6.13384e-21)
(-0.186993 0.152245 -3.73276e-21)
(-1.01662 -0.738063 0)
(-1.15629 -0.765062 0)
(-1.11342 0.255935 0)
(-0.0319008 0.0514028 0)
(0.00848647 -0.00631893 0)
(-0.619498 -0.323727 3.27091e-21)
(-0.602592 0.304599 -1.90223e-21)
(-1.21988 -0.647465 -8.38733e-22)
(0.0513114 -0.0254028 -7.68028e-21)
(-1.18636 0.566823 -5.46237e-22)
(-0.536257 0.168406 -9.81867e-21)
(-0.0676209 -0.0740419 8.92356e-21)
(-0.691323 -0.322968 4.30081e-21)
(-1.41673 -0.808781 4.88045e-21)
(-1.4507 0.501497 -2.68631e-21)
(0.0926555 -0.0451097 0)
(0.0767651 -0.0509634 -6.71585e-21)
(-1.48674 0.453478 0)
(-1.37099 -0.850299 -3.6618e-21)
(-1.33529 0.590878 -4.04952e-21)
(0.0963466 -0.0384939 2.03592e-20)
(-1.47872 -0.689427 0)
(0.000774639 -0.0806009 -1.51934e-20)
(-1.48802 -0.520567 4.32072e-21)
(-1.21318 0.680453 0)
(-0.691191 0.489115 -2.00521e-20)
(-1.02236 -0.171565 1.07533e-20)
(-0.474638 -0.429974 -3.32301e-21)
(-1.3033 -0.396556 1.62746e-21)
(-1.02156 0.619537 6.45453e-21)
(-0.133101 -0.180023 -9.39279e-21)
(-0.00287956 -0.0714217 -1.35699e-20)
(-1.23818 0.727149 0)
(-1.55176 -0.512141 0)
(-0.681176 0.372309 -3.36226e-21)
(-0.753182 0.41423 0)
(-0.915441 -0.283717 -1.18502e-20)
(-0.99461 -0.318371 1.26805e-20)
(-0.194717 -0.210313 1.68123e-21)
(-0.166435 -0.200475 -1.79131e-21)
(-0.627759 0.356819 3.22604e-21)
(-0.876825 -0.244675 0)
(-0.252639 -0.249003 3.18333e-21)
(-0.883887 0.564085 0)
(-1.17049 -0.313355 -1.00789e-20)
(-0.234188 -0.251843 2.18207e-21)
(-1.22582 -0.795606 -5.52025e-21)
(-1.19214 0.290401 5.33926e-21)
(-0.0037085 0.0293769 -1.43576e-20)
(-1.41609 -0.818198 0)
(-1.40629 0.484898 9.97503e-21)
(0.0923794 -0.0365331 0)
(0.0422662 0.000985937 -4.65566e-21)
(-1.23431 0.351324 -3.161e-21)
(-1.28531 -0.787664 -3.53422e-21)
(-1.1421 -0.532703 3.80847e-22)
(0.0353687 -0.00545997 4.10171e-21)
(-1.03255 0.571223 0)
(-0.414921 0.210854 6.5275e-21)
(-0.423778 0.199686 0)
(-0.289276 -0.241152 0)
(-0.659543 -0.164105 2.44751e-20)
(-0.245396 -0.211335 0)
(-0.649799 -0.189164 -1.56217e-20)
(-0.777919 0.493155 0)
(-0.699379 0.442531 0)
(-0.321753 -0.307656 1.99951e-23)
(-1.05883 -0.265965 6.72493e-21)
(-0.283264 -0.27892 1.60399e-20)
(-0.984291 -0.232111 -1.44528e-20)
(-1.06218 -0.647644 0)
(0.0456028 -0.0415264 8.68266e-21)
(-1.17496 0.482728 0)
(-1.42207 -0.800343 -3.43942e-21)
(-1.43711 0.505162 9.65058e-22)
(0.0958219 -0.0416749 4.06852e-21)
(-0.48908 0.322051 -1.1474e-20)
(-0.523001 -0.434642 -7.48779e-21)
(-0.832535 -0.105794 1.99152e-20)
(-1.1656 -0.812272 1.2078e-20)
(-1.15487 0.220901 1.3787e-20)
(-0.0857871 0.0834489 0)
(-0.0187306 -0.0957087 1.6247e-20)
(-1.46604 -0.500869 -4.59394e-21)
(-1.18838 0.67728 6.64424e-21)
(-1.33609 -0.694492 0)
(-1.31679 0.579574 0)
(0.0713309 -0.0329343 0)
(-1.35626 -0.722974 0)
(-1.35481 0.565331 1.65206e-21)
(0.0795345 -0.0407591 1.46705e-21)
(-0.947523 0.545088 -6.30782e-21)
(-1.20466 -0.392651 3.51402e-21)
(-0.11534 -0.169426 4.48177e-21)
(-0.262282 0.159973 -1.83027e-21)
(-0.556562 -0.400208 0)
(-0.655256 -0.0181876 -1.09124e-22)
(-1.3524 0.608686 4.71841e-21)
(0.0955404 -0.0359883 1.17834e-20)
(-1.4973 -0.691566 -1.50236e-21)
(-1.2033 -0.723769 0)
(-1.1231 0.326746 0)
(0.0360996 0.010232 1.57008e-20)
(0.0706014 -0.0556395 3.90611e-21)
(-1.41362 -0.615908 7.50084e-21)
(-1.22248 0.579352 1.48213e-20)
(-0.658298 0.424993 0)
(-0.372593 -0.342916 -1.0847e-20)
(-0.950806 -0.20532 7.4977e-21)
(-0.808263 0.119303 1.20619e-22)
(-0.84655 -0.565454 6.35884e-21)
(-0.124886 0.0999111 0)
(-0.378974 0.226342 6.34929e-23)
(-0.458295 -0.363264 -2.22741e-21)
(-0.702883 -0.0972232 -8.21741e-21)
(0.100086 -0.035727 -1.26651e-26)
(-1.48235 -0.723905 3.15625e-21)
(-1.37753 0.591477 4.55864e-21)
(-1.129 0.559247 -2.84314e-21)
(-1.34674 -0.547977 -2.50994e-21)
(0.0324094 -0.0786719 0)
(-0.333459 0.17226 -7.07897e-21)
(-0.365368 -0.278983 1.43406e-20)
(-0.611669 -0.111533 -1.34351e-20)
(-1.25179 0.740518 3.8612e-21)
(0.00809002 -0.0560904 5.98626e-21)
(-1.57664 -0.520663 -2.00447e-21)
(-0.57308 0.291688 -4.1257e-21)
(-0.794277 -0.256954 0)
(-0.19175 -0.202317 0)
(-0.597079 0.106467 -1.80315e-20)
(-0.674185 -0.390685 4.01835e-21)
(-0.0728912 0.0217278 0)
(-1.13667 -0.722036 0)
(-1.06749 0.25763 1.17443e-20)
(-0.0128917 0.0420409 0)
(-1.25063 0.695696 -1.54721e-21)
(0.0569154 -0.00757881 -1.85673e-21)
(-1.52657 -0.583202 -3.96465e-23)
(-1.24687 0.713209 4.36565e-21)
(0.0491579 -0.0098819 0)
(-1.54963 -0.562712 -9.13928e-22)
(0.0572073 -0.0606162 3.49294e-21)
(-1.43303 -0.594125 -4.08197e-21)
(-1.22282 0.602662 -1.36641e-20)
(-0.843183 0.100889 -5.49353e-21)
(-0.873578 -0.608148 -6.38018e-21)
(-0.166049 0.125755 0)
(0.0535387 0.000703049 1.7009e-21)
(-1.48318 -0.57073 2.84209e-23)
(-1.19515 0.679708 0)
(0.0961502 -0.0365409 0)
(-1.37725 -0.704278 -4.2776e-21)
(-1.26161 0.492931 -1.69651e-21)
(0.0238921 -0.0239883 6.98415e-21)
(-0.87087 -0.548709 -1.9608e-21)
(-0.937317 0.410519 0)
(-0.83891 0.511102 4.76842e-22)
(-0.96327 -0.443581 0)
(0.0213723 -0.00192655 6.98078e-21)
(0.00931712 -0.0684593 -2.04029e-23)
(-1.52842 -0.533014 0)
(-1.23951 0.706991 0)
(0.0967053 -0.0362084 0)
(-1.459 -0.737746 0)
(-1.39881 0.588621 5.16268e-21)
(-1.3135 0.650774 -4.32041e-21)
(-1.29285 0.632817 3.49492e-21)
(0.0734096 -0.0405298 -6.64793e-21)
(-1.52092 -0.62824 -6.30593e-22)
(0.0739445 -0.0452665 -1.08563e-20)
(-1.49531 -0.62821 1.43069e-21)
(-1.26433 0.465601 3.38809e-21)
(-1.36367 -0.727774 2.94894e-21)
(0.0935373 -0.0317486 0)
(-0.141222 0.121412 0)
(-1.11429 -0.807888 0)
(-1.11862 0.181476 0)
(-0.40057 0.155049 0)
(-0.197561 -0.165364 -1.98897e-20)
(-0.591607 -0.198447 8.54964e-21)
(-1.22348 0.39398 1.00253e-20)
(-1.30025 -0.750731 1.18826e-21)
(0.0710564 -0.0146623 1.36986e-20)
(0.053451 -0.00326926 8.90024e-21)
(-1.20263 0.366043 -1.39519e-20)
(-1.26894 -0.757731 -1.64653e-21)
(-1.21154 0.737971 4.94663e-21)
(-0.0345853 -0.0937402 6.4865e-21)
(-1.53931 -0.475781 6.42267e-21)
(-0.805038 0.518571 0)
(-1.09593 -0.268205 3.0028e-21)
(-0.289519 -0.287901 -1.57239e-20)
(-0.696455 0.417594 0)
(-0.956063 -0.247869 1.49461e-20)
(-0.278557 -0.277658 -4.6463e-23)
(-1.07557 0.368294 -1.38913e-20)
(-1.20096 -0.656009 1.59286e-21)
(0.0662037 -0.0214737 -7.96051e-21)
(-1.10791 0.363094 0)
(-1.21508 -0.682329 1.50148e-21)
(0.0618431 -0.0138455 7.26663e-21)
(-0.292028 0.137992 0)
(-0.364172 -0.264738 -2.26715e-20)
(-0.562302 -0.0955921 7.55489e-21)
(-0.777437 0.440705 0)
(-1.02179 -0.315688 0)
(-0.178636 -0.213654 2.40834e-21)
(0.0600132 -0.033672 -1.39128e-20)
(-1.37273 -0.876241 -8.8367e-21)
(-1.46061 0.414864 0)
(-1.38301 0.540689 1.33253e-21)
(0.0781009 -0.0486883 0)
(-1.30904 -0.741327 3.29957e-22)
(-1.37098 0.508973 -4.33769e-22)
(0.0724372 -0.0538973 0)
(-1.26367 -0.736793 -6.42708e-22)
(-0.504297 0.292283 4.8196e-21)
(-0.338582 -0.291595 -2.37214e-21)
(-0.772434 -0.178578 -2.24319e-22)
(-1.25957 -0.67316 3.57757e-22)
(0.0623026 -0.0346295 1.17578e-20)
(-1.27651 0.557267 0)
(-1.18009 0.598912 1.19971e-20)
(0.0357171 -0.0730763 7.42333e-21)
(-1.40261 -0.559857 0)
(0.0588229 -0.0439464 -1.74689e-21)
(-1.19281 -0.691606 5.19258e-22)
(-1.26844 0.515099 0)
(-0.427527 0.0639701 1.23e-20)
(-0.122067 -0.0402404 1.21277e-20)
(-0.508492 -0.249334 1.87446e-23)
(-0.837196 0.347922 -2.13155e-21)
(-1.02129 -0.460991 -1.87592e-21)
(0.00687448 -0.0810919 -8.37842e-21)
(-0.800406 -0.576034 1.45392e-20)
(-0.812411 0.0654168 1.3209e-20)
(-0.215346 0.156765 0)
(0.0842589 -0.0533977 0)
(-1.37168 -0.815946 -8.69724e-22)
(-1.47061 0.48672 0)
(-1.18333 -0.740026 0)
(-1.12095 0.3024 0)
(0.0157674 0.0228472 0)
(0.030809 -0.0416645 0)
(-1.27398 0.72577 -3.18964e-21)
(-1.57596 -0.548185 1.97054e-21)
(-0.909133 0.3808 0)
(-1.08278 -0.499728 9.65189e-22)
(0.0267259 -0.0719241 8.18569e-21)
(-0.372145 0.128556 0)
(-0.197269 -0.153906 1.70928e-20)
(-0.550585 -0.186883 0)
(-1.40755 -0.801877 -4.60775e-21)
(-1.44605 0.519878 2.55568e-21)
(0.0922591 -0.0482565 0)
(0.0932936 -0.0436962 -8.11516e-21)
(-1.41024 -0.674904 2.70332e-22)
(-1.26178 0.545533 3.90006e-22)
(-1.29742 0.666257 0)
(-1.27867 0.66079 2.24991e-21)
(0.0707935 -0.0145457 -4.30312e-21)
(0.0694337 -0.0127347 -5.28099e-21)
(-1.49847 -0.626986 -2.66955e-22)
(-1.47228 -0.631675 2.19623e-22)
(-0.808745 0.220376 0)
(-0.922055 -0.537076 2.50663e-20)
(-0.0069003 0.00827307 8.98715e-21)
(-1.11312 -0.650941 1.64335e-20)
(-1.01529 0.287183 0)
(0.026117 0.0101836 -9.69109e-21)
(-0.544264 0.124032 -1.01516e-20)
(-0.656985 -0.344831 6.91204e-21)
(-0.0590763 -0.0244759 1.46106e-20)
(-1.35084 -0.77281 1.61742e-21)
(-1.42493 0.529176 1.94752e-21)
(-1.33091 -0.787043 -6.29325e-22)
(0.0839529 -0.0510428 0)
(-1.44067 0.503386 -1.87772e-21)
(0.0804766 -0.056068 0)
(-1.05485 0.447067 0)
(-1.22445 -0.579545 0)
(0.0609674 -0.0565146 8.9703e-21)
(-1.43391 0.538699 3.69637e-21)
(-1.42576 0.541971 -6.61448e-21)
(-1.41871 -0.7794 1.05452e-21)
(-1.39453 -0.766392 -3.42438e-21)
(0.0935564 -0.0453642 1.19108e-20)
(0.0893693 -0.045951 -1.07937e-23)
(-0.967895 0.261662 0)
(-1.06647 -0.648898 -1.5626e-20)
(-0.00231253 0.0298113 1.25638e-20)
(-0.742922 0.248676 9.46993e-21)
(-0.948484 -0.474127 -1.1387e-20)
(0.0165733 -0.0478744 0)
(-1.27811 0.717854 0)
(0.0491301 -0.0212357 0)
(-1.5655 -0.57409 8.78645e-22)
(-0.821123 0.250128 6.98617e-21)
(-0.948348 -0.522676 -6.97936e-21)
(0.012261 -0.00945577 -1.48465e-20)
(-0.611935 0.163634 4.07228e-21)
(-0.742835 -0.393749 -8.11664e-21)
(-0.0335717 -0.0276344 8.38012e-21)
(-1.27667 0.683452 0)
(0.064746 -0.012873 0)
(-1.5279 -0.61008 -1.29188e-21)
(-0.931801 0.413142 0)
(-1.12811 -0.487089 1.9119e-21)
(0.0198187 -0.0848031 -8.94301e-21)
(-0.995432 -0.746529 0)
(-1.00974 0.111679 0)
(-0.233602 0.185547 -4.79738e-22)
(-0.66283 0.441397 -5.17235e-22)
(-0.966876 -0.187229 0)
(-0.409096 -0.373447 1.65611e-20)
(-1.29584 -0.879942 5.95015e-21)
(-0.0135346 0.0236162 0)
(-1.32125 0.309509 0)
(0.0165441 -0.0103377 -1.6788e-20)
(-0.822432 -0.436947 -4.57552e-21)
(-0.796691 0.407637 2.6619e-21)
(-0.865756 0.308945 0)
(-1.00856 -0.509256 6.95989e-21)
(0.0317804 -0.043121 -7.53406e-21)
(-1.30697 0.690521 6.35662e-21)
(0.0630321 -0.0302348 2.23966e-20)
(-1.55173 -0.603802 0)
(-0.593563 -0.509872 -4.39683e-21)
(-0.955443 -0.104748 -7.22293e-21)
(-0.571519 0.41123 -4.50744e-21)
(-0.994819 0.589725 0)
(0.0373197 0.00328211 -6.20523e-21)
(-1.20829 -0.520941 0)
(-0.170855 0.0975013 9.03887e-21)
(-0.197253 0.122203 -9.23003e-21)
(-0.58833 -0.39446 0)
(-0.611879 0.0234669 8.63759e-21)
(-0.626429 -0.432272 -1.44938e-20)
(-0.656763 0.0182321 -6.90073e-21)
(-0.53699 0.0923337 9.56303e-21)
(-0.61494 -0.339658 9.23608e-21)
(-0.0803977 0.00269782 0)
(-0.272123 0.153718 8.08839e-21)
(-0.215398 0.118893 0)
(-0.479708 -0.347986 -8.13363e-21)
(-0.615729 -0.0525669 7.72615e-21)
(-0.504468 -0.347059 8.1973e-21)
(-0.586492 -0.0215823 3.64115e-23)
(-0.80913 0.287538 5.94692e-22)
(-0.883357 -0.459721 -5.02869e-21)
(0.0020719 -0.033142 -1.02369e-20)
(-0.747509 0.230268 -1.62995e-20)
(-0.886546 -0.476179 1.31134e-22)
(-0.00126284 -0.0179599 0)
(0.0737108 -0.0595948 0)
(-1.26657 -0.767678 0)
(-1.41486 0.491893 1.00287e-21)
(-0.561736 0.315 -4.4456e-21)
(-0.809311 -0.214382 0)
(-0.274198 -0.255139 4.3877e-21)
(-1.41556 0.559574 -8.5051e-21)
(-1.44793 -0.765809 1.92244e-21)
(0.0986121 -0.0397608 -6.79179e-21)
(-1.11183 0.411985 0)
(-1.1686 0.438328 7.20217e-21)
(-1.24877 -0.649363 -1.98706e-21)
(-1.29692 -0.673656 5.80191e-21)
(0.0780156 -0.0319025 -9.84043e-21)
(0.085516 -0.0327651 -9.05307e-21)
(-0.534388 0.283344 0)
(-0.770893 -0.224116 0)
(-0.241212 -0.231629 2.1105e-21)
(-0.853516 0.509776 5.06755e-21)
(-1.11384 -0.325491 0)
(-0.193877 -0.221258 5.20045e-21)
(-1.00231 0.379799 -3.93622e-21)
(-1.15458 -0.589478 0)
(0.0616343 -0.0387576 0)
(-0.284916 0.0579593 9.40222e-21)
(-0.449438 -0.127575 -4.61684e-21)
(-0.244515 -0.157783 4.65459e-21)
(-1.18244 0.401831 0)
(-1.28218 -0.715612 0)
(0.0755062 -0.0195749 -1.45714e-20)
(-0.369247 0.156471 0)
(-0.253032 -0.201919 2.49906e-21)
(-0.585858 -0.164401 0)
(-0.967766 0.286707 -9.12099e-21)
(-1.0739 -0.625861 -8.81229e-21)
(0.026275 0.0026146 -1.26249e-21)
(-0.844029 0.482038 5.17657e-21)
(-1.09389 -0.34438 0)
(-0.155652 -0.199106 1.07777e-20)
(-0.302995 0.0901364 -9.3178e-21)
(-0.280468 0.0914885 -4.11544e-21)
(-0.492743 -0.139871 4.5643e-21)
(-0.250288 -0.177053 -9.23925e-21)
(-0.499054 -0.116062 0)
(-0.295403 -0.208536 -1.63906e-20)
(-0.24256 0.109388 -4.08485e-21)
(-0.405815 -0.284212 1.06048e-20)
(-0.214163 0.104497 2.62398e-21)
(-0.53964 -0.0621144 -1.04803e-20)
(-0.483638 -0.329123 -5.17097e-21)
(-0.562134 -0.0284841 2.28435e-22)
(-0.655546 0.34238 4.89019e-21)
(-0.716215 0.361647 0)
(-0.881152 -0.293254 8.93234e-21)
(-0.930214 -0.333824 -6.9802e-21)
(-0.163911 -0.188738 -9.79521e-21)
(-0.114502 -0.158613 1.62898e-20)
(0.0216661 -0.0730297 0)
(-1.46419 -0.546488 -2.42651e-21)
(-1.21479 0.651002 -6.7374e-21)
(-0.264582 0.207367 5.85428e-21)
(-0.952849 0.0785675 8.36312e-21)
(-0.923363 -0.699703 -1.46554e-20)
(0.0407764 -0.0594195 -7.59219e-21)
(0.0580576 -0.0544176 6.07868e-21)
(-1.49125 -0.577003 2.10102e-21)
(-1.47576 -0.599466 3.73545e-21)
(-1.24943 0.660824 1.69808e-20)
(-1.25957 0.636897 -8.78782e-21)
(-0.409586 0.292971 8.3531e-21)
(-0.664081 -0.526492 -7.09642e-21)
(-0.844798 -0.0398342 1.97893e-21)
(-0.283349 0.0022474 1.59923e-20)
(-0.234309 -0.106524 0)
(-0.374704 -0.119572 -1.58521e-20)
(-1.20779 0.434641 -3.36394e-21)
(-1.31442 -0.709614 -6.55733e-21)
(0.0857212 -0.0273265 0)
(-0.463808 0.241686 0)
(-0.283556 -0.253909 -2.01048e-21)
(-0.706985 -0.18112 -7.91609e-21)
(-0.884347 0.496907 0)
(-1.13152 -0.370417 0)
(-0.125364 -0.177677 -1.00268e-20)
(-1.14827 0.644604 -7.57224e-21)
(-1.13967 0.617978 0)
(-1.4139 -0.495034 1.50824e-21)
(-0.0257985 -0.105059 -9.38108e-21)
(-1.39084 -0.506795 -4.09325e-21)
(-0.00866012 -0.0974464 1.27138e-20)
(-1.10555 0.452224 7.34591e-21)