/*--------------------------------*- C++ -*----------------------------------*\
  =========                 |
  \\      /  F ield         | OpenFOAM: The Open Source CFD Toolbox
   \\    /   O peration     | Website:  https://openfoam.org
    \\  /    A nd           | Version:  6
     \\/     M anipulation  |
\*---------------------------------------------------------------------------*/
FoamFile
{
    version     2.0;
    format      ascii;
    class       volVectorField;
    location    "0";
    object      U;
}
// * * * * * * * * * * * * * * * * * * * * * * * * * * * * * * * * * * * * * //

dimensions      [0 1 -1 0 0 0 0];

internalField   nonuniform List<vector> 
918
(
(0.985652 0.00381428 0)
(-0.00400814 2.9674 0)
(-0.00686971 1.60115 0)
(0.980702 -0.00203864 0)
(-0.00904246 1.56701 1.38522e-21)
(0.00135787 2.95101 -1.39555e-18)
(0.85302 1.17637 4.97555e-19)
(0.444602 0.182356 -5.6644e-21)
(0.999912 -0.000297343 0)
(0.0514674 0.736162 0)
(-0.017244 1.19608 0)
(0.779069 -0.0085505 0)
(0.00899633 2.9347 0)
(0.00424901 2.79732 0)
(-0.00101948 3.20131 7.95183e-19)
(-0.00679911 1.47247 -6.80852e-21)
(0.560287 0.0751689 3.56597e-19)
(0.210832 1.12097 4.422e-19)
(0.965463 0.00385285 0)
(-0.00358091 1.34156 0)
(0.200746 0.251366 -3.05566e-19)
(1.0019 -0.00492182 0)
(1.00172 -0.00830467 0)
(0.97758 -0.00476048 0)
(0.696829 -0.0257344 0)
(0.0304339 2.63749 0)
(-0.0105232 2.91563 4.66149e-19)
(-0.0245169 1.62264 0)
(-0.0256289 1.74688 0)
(-0.0274046 1.61808 0)
(-0.00821806 1.83273 0)
(-0.000630734 1.58987 -1.08397e-21)
(-0.0109796 1.47746 0)
(-0.019751 2.98961 -4.89495e-23)
(-0.0137446 3.00794 1.09834e-18)
(0.00163179 2.9997 0)
(0.875908 -0.00676734 0)
(0.375071 0.921988 -2.51371e-20)
(0.85735 1.19079 -7.24739e-19)
(0.994356 1.0437 6.6551e-19)
(0.717577 1.27387 -1.14812e-19)
(0.730918 1.24685 6.50649e-19)
(0.48264 0.270226 5.52457e-21)
(0.47332 0.160146 0)
(1.17987 0.534125 0)
(0.448244 0.297353 2.58414e-20)
(0.400267 0.20313 -2.68244e-20)
(0.922842 -0.00625062 0)
(1.00031 4.66439e-05 0)
(0.999895 0.000336841 0)
(1.00326 -0.00758997 0)
(1.0009 -0.00104768 0)
(1.00018 -3.64809e-06 0)
(0.00384936 1.74269 -2.09939e-19)
(0.0633735 0.862613 0)
(0.112102 0.809659 0)
(0.00103781 0.828331 0)
(0.00165054 0.740574 0)
(0.0242823 1.55879 0)
(-0.030928 1.31212 0)
(-0.0387449 1.12199 0)
(-0.0179799 1.39659 0)
(-0.0115989 1.24068 0)
(0.857973 -0.00111166 0)
(0.872712 0.0128125 0)
(0.791919 -0.0046619 0)
(0.865841 0.0169023 0)
(0.760478 -0.00986262 0)
(0.0136951 3.00361 5.03384e-19)
(0.0115037 3.00452 0)
(0.00735598 3.00383 0)
(0.0106721 2.9982 5.62509e-24)
(0.00616758 2.96195 -7.5745e-19)
(0.0117635 2.98444 0)
(0.00840375 2.90906 0)
(0.0219395 2.93284 1.02318e-24)
(0.00453229 2.82751 0)
(0.0271983 2.91944 0)
(-0.000967676 2.74686 0)
(0.312484 3.60701 0)
(-0.127904 3.6896 0)
(0.151207 3.29293 -7.36879e-19)
(0.00648984 3.02268 0)
(-0.015147 1.81144 0)
(0.00195467 1.61983 6.7154e-21)
(-0.00364978 1.47802 -9.49859e-21)
(0.610979 0.13941 -1.22473e-19)
(0.56486 0.033906 -1.17528e-19)
(0.598108 0.180383 -3.69675e-19)
(0.53961 0.107709 -2.47049e-19)
(0.259421 0.923262 0)
(0.311218 1.27221 -4.36418e-19)
(0.375374 1.26657 7.20893e-19)
(0.989082 0.00634351 0)
(0.945413 0.00483862 0)
(0.999816 0.000753748 0)
(1.00381 0.00759475 0)
(1.00348 0.00861942 -6.39869e-19)
(0.992855 0.00736992 4.89814e-19)
(-0.0187041 1.49927 0)
(-0.00590895 1.32566 0)
(-0.0311489 1.62505 0)
(-0.0246273 1.53786 0)
(-0.00416652 1.38449 0)
(0.220657 0.27267 9.39568e-20)
(0.274128 0.243481 0)
(0.994793 -0.00614337 0)
(0.956455 -0.00556502 0)
(0.836911 0.0252007 0)
(0.802068 0.0352502 0)
(0.734642 -0.0188812 0)
(1.01272 -0.000280414 0)
(0.75428 0.0465952 0)
(0.617637 -0.0171737 4.61752e-19)
(-0.0345388 2.86818 2.70951e-19)
(0.0354645 2.91401 0)
(0.0449968 2.89005 0)
(0.00572096 2.70052 0)
(-0.00816833 2.98777 4.34231e-19)
(-0.0125629 2.89886 0)
(-0.0098339 2.99278 -1.36308e-18)
(-0.00927278 2.93252 4.69106e-19)
(-0.0208749 1.81593 0)
(-0.0159934 1.81155 0)
(-0.000368785 1.62026 -1.10169e-22)
(0.000336559 1.5911 0)
(-0.0105251 1.47865 0)
(0.936713 -0.00318445 0)
(0.860149 -0.0078552 0)
(0.871589 0.00791018 0)
(0.950056 -0.00408223 0)
(0.888668 -0.00546647 0)
(0.504378 1.12046 2.36802e-20)
(0.551422 1.19149 0)
(0.333676 0.85157 2.78111e-21)
(0.27454 0.717874 0)
(0.954507 1.07564 -1.93994e-19)
(1.07 0.869094 3.92136e-19)
(0.475774 1.35742 0)
(0.570523 1.34206 0)
(0.587627 1.26017 0)
(0.0914874 0.130854 -7.60762e-20)
(0.509096 0.248861 0)
(0.491177 0.155021 7.0413e-20)
(1.0326 0.922633 0)
(1.09895 0.76068 0)
(1.12918 0.695514 -3.40987e-19)
(1.15919 0.599317 0)
(1.21545 0.387392 3.24066e-20)
(0.957652 -0.00508798 0)
(0.963262 -0.00711669 0)
(0.902838 -0.00585502 0)
(0.985098 -0.00667821 0)
(0.976569 -0.00694345 0)
(0.93935 -0.00501554 0)
(0.999839 0.00209754 0)
(1.00084 0.00123519 0)
(0.999939 0.000735245 0)
(-0.052755 1.99246 1.15345e-19)
(0.132718 1.68625 0)
(-0.0240622 1.96078 1.62816e-19)
(0.0307035 1.74312 -9.10727e-20)
(0.111827 1.12375 -3.66934e-19)
(0.0824675 1.00144 0)
(0.152535 0.948679 0)
(-0.0545447 0.902472 0)
(-0.0495356 0.84904 0)
(0.0533062 1.72358 -2.3401e-22)
(0.00659811 1.54278 0)
(0.0239741 1.72585 3.77509e-21)
(-0.00373933 1.55841 2.96139e-21)
(-0.0562238 1.0487 0)
(-0.0519015 1.19801 0)
(-0.0401726 0.997941 0)
(-0.0141479 1.45115 0)
(-0.00793033 1.27134 0)
(0.944803 0.016411 0)
(0.883094 0.00208645 0)
(0.926297 0.00958722 0)
(0.85049 -0.003212 0)
(0.817816 0.00351549 0)
(0.90667 0.0124777 0)
(0.890031 0.00856846 0)
(0.797823 -0.00159168 0)
(0.0087172 3.06514 -4.29717e-21)
(0.0136065 3.05728 0)
(0.0121057 2.97255 0)
(0.00734149 2.88123 0)
(0.91498 4.01554 0)
(1.21968 3.39295 7.58817e-19)
(0.0810744 3.10506 0)
(-0.0140027 2.92777 0)
(-0.0191824 1.80167 0)
(-0.019537 1.80612 0)
(-0.0172455 1.80277 0)
(-0.0104902 1.82124 2.17991e-21)
(-0.0142549 1.81982 0)
(-0.0119028 1.81793 0)
(-0.00752068 1.49771 -2.14602e-21)
(-0.00122772 1.66218 7.37874e-21)
(0.00256606 1.63592 9.71389e-21)
(-0.00591507 1.47776 0)
(0.627198 0.106872 1.80581e-19)
(0.560518 0.00862236 -1.75969e-19)
(0.235992 1.5215 0)
(0.305064 0.657597 -1.46593e-19)
(0.20003 1.62149 -5.13021e-19)
(0.242535 1.15156 5.12724e-19)
(0.906587 0.00757554 0)
(0.96873 0.0101439 0)
(0.976339 0.0089634 0)
(0.926658 0.00713697 0)
(-0.0140501 1.48067 0)
(-0.016011 1.48821 0)
(-0.005285 1.29351 0)
(0.394006 0.302683 2.37726e-19)
(0.346231 0.278295 -2.89084e-19)
(0.356697 0.225915 0)
(1.13346 0.0866018 -4.67686e-21)
(1.12039 0.0415776 0)
(1.04473 0.0413745 0)
(0.948895 0.00944947 0)
(0.644959 0.0791129 0)
(0.687338 0.0577636 -7.49904e-19)
(0.568525 -0.0116564 2.91491e-19)
(0.0110828 2.98157 3.29252e-19)
(-0.0282487 2.86705 3.20366e-20)
(0.00680029 3.04997 -9.26994e-21)
(0.0156166 3.04124 3.52956e-19)
(-0.0094927 3.00005 1.56388e-20)
(-0.00886537 2.95408 -6.38324e-23)
(-0.0151017 3.01277 -2.98849e-19)
(0.0127863 3.02359 2.11517e-19)
(0.00616376 3.03206 -3.39285e-19)
(0.928083 0.00391084 0)
(0.934294 -0.000654893 0)
(0.850262 -0.00602634 0)
(0.958359 0.011384 0)
(0.944894 0.0116646 0)
(0.887487 0.00967815 0)
(0.923404 0.0135211 0)
(0.932349 0.0121656 0)
(0.848358 0.00849188 0)
(0.691633 1.42597 2.12446e-19)
(0.711475 1.53896 0)
(0.188447 0.383034 1.59975e-20)
(0.157743 0.552632 1.27034e-19)
(0.238999 0.670462 -7.38135e-20)
(0.202625 0.560301 1.33825e-19)
(0.285169 0.685592 4.46001e-19)
(0.114445 0.162801 1.39525e-19)
(0.561329 0.217791 2.66785e-19)
(0.536524 0.236119 6.51368e-20)
(0.510267 0.135212 1.33232e-19)
(1.20641 0.446629 2.21003e-19)
(1.22993 0.245403 2.31382e-19)
(-0.00716582 1.90589 2.61563e-20)
(-0.00858603 1.65353 0)
(0.993085 0.0319752 0)
(0.958143 0.0215256 0)
(0.907728 0.00120264 0)
(0.0115155 3.07278 0)
(0.0173777 2.94639 5.95867e-19)
(0.0139491 2.95923 0)
(0.00590555 2.85413 -5.92589e-19)
(0.00860941 3.08945 1.40623e-19)
(0.0101947 3.08046 0)
(0.731188 1.8339 -1.70537e-19)
(1.26407 2.62645 5.65319e-19)
(0.711413 2.00541 -1.13989e-18)
(0.0229441 2.98423 -2.51093e-19)
(0.0415117 3.01011 0)
(-0.0323718 2.88649 0)
(0.0111371 1.69255 2.70028e-21)
(-0.00078593 1.69234 -1.1142e-20)
(-0.0012509 1.53081 -3.57192e-21)
(0.261391 1.29929 4.69031e-19)
(0.263487 0.435776 -3.20695e-19)
(0.00592431 1.94105 3.07184e-19)
(0.11328 1.82928 -3.91823e-19)
(0.198316 1.50479 6.2525e-20)
(0.00811675 3.11708 -7.66911e-19)
(0.0141473 3.11831 8.59156e-19)
(-0.00453082 2.98181 3.88155e-19)
(-0.00101329 2.97767 -3.53234e-19)
(-0.0157065 2.88211 -3.95452e-19)
(0.0120118 3.09643 -1.03251e-18)
(0.00422831 3.10309 1.04935e-18)
(0.190274 0.576797 0)
(0.136803 0.542031 -2.53031e-19)
(0.0908447 0.180106 1.12101e-19)
(0.308611 0.78883 4.24502e-19)
(0.1746 0.205571 -6.46486e-19)
(1.21869 0.16965 -4.94355e-20)
(1.22784 0.302431 0)
(1.21429 0.113852 9.3018e-20)
(0.0420484 1.74596 6.71674e-22)
(-0.000775129 1.80108 0)
(0.0183375 1.58893 0)
(0.299796 1.20131 -1.65229e-19)
(0.325055 1.01695 -3.45267e-19)
(0.217917 0.313728 5.95086e-19)
(1.0057 -0.0104307 0)
(1.00684 -0.00714901 1.17972e-19)
(-0.0221358 1.80455 0)
(-0.0319762 1.81323 0)
(1.00144 0.00327187 1.17601e-21)
(1.00333 0.00886961 2.39918e-19)
(-0.0106809 1.82492 -2.90375e-21)
(-0.00931045 1.82353 0)
(0.0479285 3.1788 1.27442e-19)
(0.383074 3.55276 0)
(1.08331 0.684134 4.68502e-20)
(1.01209 0.0122464 -1.43468e-21)
(1.02032 -0.00941075 0)
(1.00157 4.15494e-05 4.40546e-24)
(0.092828 1.11251 0)
(0.165873 2.6988 0)
(-0.16492 1.54219 0)
(-0.13055 2.15835 2.76405e-20)
(-0.0730304 1.95663 3.45484e-20)
(1.00632 0.0158998 1.98167e-21)
(1.04569 0.0124034 0)
(1.07389 0.0276482 0)
(-0.0212 1.80973 0)
(-0.00989696 1.84334 0)
(-0.0255405 1.79502 0)
(0.303521 1.44971 -2.96035e-19)
(1.01005 -0.00895802 0)
(1.009 -0.0148234 0)
(1.00223 0.000357019 1.48399e-19)
(1.00533 -0.00512058 -1.7778e-19)
(1.00122 -0.00102577 0)
(-0.0242866 1.80512 0)
(-0.0234342 1.80149 0)
(-0.0227467 1.80404 0)
(-0.0262947 1.79471 0)
(-0.0289978 1.7928 0)
(-0.0295348 1.79556 0)
(1.02659 -0.0127968 0)
(1.01805 0.0115001 -6.38406e-22)
(0.764298 1.30487 3.64954e-19)
(1.00307 0.000280893 -1.49089e-19)
(1.00322 0.00489066 1.79895e-19)
(1.00127 0.00205232 0)
(1.01231 0.0100912 1.44871e-19)
(1.0072 0.00853557 -1.81433e-19)
(1.00866 0.0131407 0)
(-0.009207 1.8427 0)
(-0.00893085 1.83324 6.00793e-21)
(-0.00609946 1.8325 -4.23404e-21)
(1.19202 0.262607 -9.04165e-20)
(1.12676 0.0949791 0)
(0.0582902 3.08631 -4.00058e-19)
(0.0524298 2.86572 -3.04539e-20)
(0.121521 3.20456 5.16885e-19)
(0.130144 3.221 -4.63004e-20)
(0.151332 3.26352 0)
(0.0238224 3.13719 9.83862e-20)
(0.0713948 3.16183 3.93426e-19)
(0.0692943 3.18362 -1.8816e-19)
(0.030156 3.12526 0)
(0.661947 0.337357 0)
(0.63358 0.377725 0)
(1.07632 0.708026 -1.75205e-19)
(1.03649 0.8561 2.68786e-19)
(1.13463 0.603677 0)
(1.16224 0.538593 0)
(1.01495 0.012742 -2.68634e-19)
(1.01369 0.0133246 3.35535e-19)
(1.02442 -0.008405 0)
(1.02264 -0.0115978 0)
(1.00715 0.0028491 0)
(1.00947 0.00291127 0)
(1.00408 0.00190944 0)
(1.00821 0.00642309 0)
(1.00781 0.00539015 0)
(1.00384 0.00483327 0)
(0.100085 1.11737 0)
(-0.00485375 0.934977 0)
(0.227666 1.1742 0)
(0.152263 1.21558 0)
(0.15459 2.67783 0)
(0.214575 2.68516 -1.38565e-19)
(0.0727247 2.78829 0)
(0.00483213 2.74008 -5.72919e-21)
(-0.18326 2.57583 7.3765e-20)
(-0.130438 1.57008 0)
(-0.105234 1.61148 0)
(-0.196773 1.48273 0)
(-0.184276 1.37544 0)
(-0.350427 2.01541 3.00237e-20)
(-0.101556 2.01482 2.32079e-20)
(-0.120212 2.14689 1.99499e-20)
(-0.0730171 2.07214 0)
(-0.0687309 1.95497 -6.91372e-20)
(-0.0535942 1.93145 -1.96715e-20)
(-0.338855 1.98248 -3.42817e-20)
(-0.168979 1.97114 -3.0017e-20)
(-0.18606 2.06793 -2.55776e-20)
(1.0163 0.0242653 2.63176e-19)
(1.01557 0.010802 -3.22994e-19)
(1.00735 0.025059 -2.75307e-19)
(0.991685 0.0140636 3.51908e-19)
(1.04538 0.0140719 0)
(1.03094 -0.00449494 0)
(1.06859 0.0391772 0)
(1.05361 0.0231981 0)
(1.05631 0.0152036 0)
(1.10549 0.0765593 0)
(1.08285 0.0506535 0)
(1.09615 0.0422164 0)
(-0.0133247 1.82713 -7.48161e-22)
(-0.0210606 1.82011 0)
(-0.0166228 1.82075 0)
(-0.0169048 1.8564 7.75088e-21)
(-0.0175283 1.85962 -2.75959e-22)
(-0.0288071 1.81427 6.61905e-21)
(-0.0286033 1.80911 -6.65979e-21)
(-0.0296929 1.80172 0)
(-0.02883 1.80398 0)
(-0.0292741 1.80349 0)
(-0.0284887 1.78941 0)
(-0.0198033 1.77161 0)
(0.368998 1.48448 5.6782e-19)
(0.372049 1.48435 2.25478e-19)
(0.59203 2.42261 -1.09254e-19)
(0.393519 2.52032 2.96972e-19)
(0.350235 2.07342 -1.55391e-20)
(1.02011 -0.00806772 0)
(1.01348 -0.00937481 0)
(1.01544 -0.014826 0)
(1.00745 -0.000886379 0)
(1.00418 -0.00116153 0)
(1.0064 -0.00376538 0)
(1.0098 -0.00397668 0)
(1.01264 -0.00524116 0)
(1.02082 0.0139205 2.5762e-19)
(1.01423 0.0107276 -3.26287e-19)
(1.02156 0.0171357 -2.58818e-19)
(1.01618 0.016925 3.23668e-19)
(0.73591 1.34144 0)
(0.655175 1.38904 4.11681e-19)
(0.839317 1.21776 2.43626e-19)
(0.852184 1.20475 -3.23228e-19)
(1.15838 2.62778 -3.68863e-19)
(0.836582 0.124858 1.82851e-19)
(1.13306 0.102722 0)
(1.16888 0.182789 7.3932e-20)
(1.153 0.159505 3.40826e-21)
(0.979719 0.123716 0)
(0.108889 3.02554 -4.55443e-20)
(0.107406 2.90173 -4.69028e-19)
(0.0493388 2.34491 3.14814e-19)
(0.176127 0.0552963 -1.39657e-19)
(0.352326 3.45889 -3.18508e-19)
(0.201652 3.34788 0)
(0.232612 3.4063 4.14694e-19)
(0.243224 3.08574 -1.61208e-19)
(0.279776 3.20983 0)
(0.00865552 3.11928 2.13281e-20)
(0.0203248 3.12836 -2.61828e-19)
(0.0185652 3.12413 3.84645e-19)
(0.0375942 3.13732 0)
(0.0353062 3.14952 0)
(1.25523 2.60431 0)
(0.490126 0.840153 -1.45245e-19)
(0.963883 1.04297 -1.39037e-19)
(0.946506 1.06468 0)
(0.79757 0.946842 3.92115e-20)
(1.02857 0.894163 2.01351e-20)
(0.443186 0.449666 -3.46272e-19)
(0.705175 0.330023 -1.56438e-20)
(0.693487 0.281554 1.40001e-19)
(0.640552 0.402929 1.11021e-20)
(0.580457 0.404911 -4.5912e-19)
(0.680312 0.353137 0)
(0.710985 0.419637 2.33947e-19)
(0.707713 0.41852 0)
(0.667645 0.372218 0)
(0.642313 0.3387 0)
(0.728309 0.606839 7.37009e-20)
(1.19452 0.283275 7.04736e-20)
(1.16915 0.418 0)
(1.18544 0.388809 0)
(0.766065 0.212297 2.12354e-19)
(0.799223 0.51324 -1.15896e-19)
(0.738044 0.479936 1.88544e-19)
(0.909386 0.417224 -1.64128e-19)
(1.01844 0.0120767 1.75399e-19)
(1.01625 0.0130228 -1.79242e-19)
(1.01435 0.0129528 0)
(1.02788 -0.0125741 0)
(1.0269 -0.0108187 -1.59999e-19)
(1.02357 -0.0149165 1.58434e-19)
(1.02809 0.00527263 0)
(1.02624 0.0138598 0)
(1.01181 0.00444038 0)
(1.01382 0.00912376 0)
(1.01561 0.00393305 0)
(1.01378 0.00211169 0)
(-0.121712 1.03968 0)
(-0.159778 1.04407 0)
(0.324641 1.21322 3.64557e-19)
(0.292747 1.46585 1.80142e-19)
(0.21843 1.36404 4.04507e-19)
(0.213454 1.38035 -6.40669e-19)
(0.335793 1.34022 0)
(0.406983 1.66563 2.46344e-19)
(0.3874 1.74288 0)
(0.35397 2.02251 2.25294e-20)
(0.351331 2.38842 1.3571e-19)
(0.438706 1.46211 -2.19593e-19)
(0.332478 1.43634 1.37545e-19)
(0.359627 1.33565 -1.12243e-19)
(0.346051 1.3732 2.09429e-19)
(0.33799 1.64414 0)
(0.342037 1.63535 -1.27065e-19)
(-0.327894 2.44765 1.28788e-19)
(-0.17786 2.65634 0)
(-0.0702385 2.60046 -2.30476e-19)
(-0.180055 2.59718 0)
(-0.112222 2.7397 4.54366e-21)
(-0.136373 2.70076 0)
(-0.317433 1.69581 6.44436e-20)
(-0.420146 1.78449 0)
(-0.336381 1.54351 0)
(-0.293632 1.56474 -7.26048e-20)
(-0.197938 2.30325 -6.06221e-20)
(-0.177671 2.53287 -9.54593e-20)
(-0.144773 2.38767 -5.3079e-22)
(-0.182755 1.87685 1.08035e-20)
(-0.23946 1.86577 -6.45942e-21)
(-0.0835319 1.65736 0)
(-0.0534185 1.68373 0)
(-0.490548 1.88248 -2.23358e-19)
(-0.401195 1.56556 -2.17065e-19)
(-0.425506 1.76662 2.71231e-19)
(-0.39994 1.82187 0)
(-0.032778 1.84158 -2.64859e-20)
(-0.032959 1.85796 1.07838e-20)
(-0.043913 1.86506 -3.71134e-21)
(-0.148367 1.84376 -1.30671e-20)
(-0.0786156 1.89686 -6.98355e-21)
(-0.0898893 1.91712 4.17903e-20)
(1.02095 0.0186216 -1.72511e-19)
(1.02278 0.0177993 1.71599e-19)
(1.01696 0.0166927 0)
(1.00132 0.0441367 2.48887e-19)
(0.993103 0.0299631 -2.95601e-19)
(0.970016 0.029556 3.42496e-19)
(0.999122 0.0811768 -3.25121e-20)
(1.02982 -0.0128456 0)
(1.03302 -0.00238515 1.41353e-19)
(1.02363 -0.0169593 -1.42907e-19)
(1.05241 0.0405353 -7.54538e-21)
(1.05117 0.0344192 6.79891e-20)
(1.05133 0.0549354 0)
(1.04013 0.0469076 -2.58408e-20)
(1.03196 0.0316148 0)
(1.02765 0.0221496 0)
(1.03353 0.00853671 0)
(1.02992 0.012252 0)
(1.04025 0.0298069 5.35908e-20)
(1.04322 0.0218392 -1.22612e-19)
(1.04336 0.0340005 -5.35611e-20)
(1.04157 0.0335513 -6.27439e-20)
(1.04999 0.0589566 1.07921e-19)
(1.07332 0.0547061 0)
(1.06344 0.0946653 0)
(-0.027731 1.84039 -8.66356e-21)
(-0.021196 1.82302 -8.56704e-22)
(-0.0245342 1.82612 0)
(-0.0158418 1.83833 8.72135e-21)
(-0.0154856 1.82989 1.54199e-21)
(-0.0141629 1.83471 -1.59275e-21)
(-0.0491409 1.92047 1.54468e-20)
(-0.0521382 1.87839 -1.42409e-21)
(-0.0659506 1.88702 7.15863e-21)
(-0.0341379 1.88662 -8.46571e-21)
(-0.0367781 1.8928 1.04786e-20)
(-0.0337155 1.80935 2.84847e-22)
(-0.0364471 1.81789 1.16909e-20)
(0.405752 1.42261 -2.80171e-19)
(0.36614 1.40832 -2.73709e-19)
(0.63193 1.42459 -3.97817e-19)
(0.510954 1.48264 -2.17075e-19)
(0.530721 1.46911 0)
(0.594626 2.39289 8.89142e-20)
(0.65991 2.37925 1.53903e-19)
(0.421786 2.48555 6.1187e-20)
(0.415596 2.54733 -9.31102e-20)
(0.524448 2.51297 1.75375e-19)
(0.549046 2.43453 0)
(0.500618 2.47725 -2.42198e-19)
(0.303142 2.5694 4.21359e-19)
(0.376032 2.52041 -4.28787e-20)
(0.312795 2.61932 -6.60153e-19)
(0.925224 2.38925 1.39307e-19)
(0.825631 2.37359 0)
(1.01027 0.000884394 5.79362e-21)
(1.01529 -0.00520244 -4.8286e-21)
(1.01541 -0.0043134 -8.48919e-20)
(1.01482 -0.000906097 8.72971e-20)
(1.01278 0.000914944 0)
(0.616607 1.25826 0)
(0.642107 1.15967 0)
(0.742555 1.09195 0)
(0.624322 1.12938 0)
(1.18772 2.64683 3.2713e-20)
(1.07645 2.38371 0)
(0.841988 2.23953 -1.3333e-21)
(0.825257 2.50172 0)
(0.918614 2.58202 2.32885e-20)
(0.952506 2.5298 -1.53728e-20)
(0.839514 0.141475 0)
(0.811347 0.155453 5.29997e-20)
(0.927838 0.130954 2.67323e-19)
(0.864558 0.107005 -1.06916e-19)
(0.849231 0.0774108 -3.25549e-19)
(1.0291 0.209162 -1.33545e-19)
(0.944619 0.268776 -6.86807e-21)
(0.8942 0.30205 2.3189e-19)
(0.975351 0.206461 1.67251e-19)
(0.924811 0.169924 -3.32787e-19)
(0.894678 0.178033 4.45994e-20)
(0.921054 0.278309 -7.91237e-20)
(0.897123 0.190793 0)
(0.971009 0.16394 1.56681e-19)
(1.00646 0.173145 0)
(1.00447 0.184399 0)
(1.08715 0.112024 4.13634e-20)
(1.01478 0.154293 -6.95014e-21)
(1.02017 0.216351 -2.77062e-20)
(1.06957 0.188885 0)
(1.01947 0.0298023 1.30817e-19)
(1.0334 0.0492279 1.53198e-19)
(1.02929 0.0343785 -1.29203e-19)
(1.02651 0.0501285 -1.03307e-19)
(1.01044 0.0511453 -1.75397e-19)
(0.975755 0.125407 0)
(0.976071 0.0756482 0)
(0.969063 0.0457616 -1.23288e-19)
(0.936784 0.0605144 5.30358e-20)
(1.01402 0.0822515 1.46059e-19)
(1.0328 0.113038 -1.34715e-19)
(1.02401 0.143932 1.27811e-19)
(1.00149 0.122188 0)
(1.04611 0.0976821 0)
(1.02851 0.0856853 -5.77751e-20)
(1.02655 0.0797488 -1.15823e-19)
(0.580276 1.09505 -7.22399e-20)
(0.608065 1.43639 1.37978e-19)
(1.14276 2.75008 5.3923e-20)
(1.20114 3.12681 -5.27942e-20)
(1.24979 2.74901 3.94668e-19)
(1.29312 2.72504 -2.01886e-19)
(1.26164 2.34896 -1.94729e-20)
(1.18558 3.02912 1.55037e-19)
(1.20347 2.98448 -1.58978e-19)
(1.18924 3.28119 -1.88559e-19)
(1.40323 2.99571 2.26858e-19)
(1.41824 2.92937 0)
(0.513925 0.857301 -6.76393e-21)
(0.248703 1.27226 1.90848e-19)
(0.488854 0.541092 2.24433e-19)
(0.342704 0.318263 2.63068e-19)
(0.582225 0.430951 2.55981e-19)
(0.56215 0.506293 -4.06323e-19)
(0.561356 0.508937 3.39187e-19)
(0.53861 0.465701 -1.3523e-19)
(0.51241 0.40816 3.08974e-19)
(0.77363 0.264516 -1.18893e-19)
(0.737241 0.297243 0)
(0.727132 0.263822 7.2659e-21)
(0.722724 0.502613 1.22581e-19)
(0.688995 0.471335 -4.52511e-19)
(0.651497 0.495196 1.55144e-20)
(0.661936 0.457318 0)
(0.647604 0.739127 8.56628e-20)
(0.742272 0.76596 4.69951e-20)
(0.689562 0.825961 -5.90584e-20)
(0.820163 0.790708 -8.51818e-21)
(0.87364 0.833598 1.08395e-20)
(0.878162 0.843183 -1.11358e-20)
(0.79742 0.637057 -1.25686e-19)
(0.879694 0.691606 7.92684e-21)
(0.942096 0.69801 0)
(0.930676 0.671375 2.86642e-22)
(0.979421 0.316519 3.57768e-20)
(1.10054 0.292384 -1.75193e-20)
(1.01452 0.248981 5.34957e-20)
(0.951831 0.353589 -8.3272e-20)
(0.986154 0.440368 0)
(1.05394 0.404017 0)
(0.881347 0.371205 7.23639e-21)
(0.813282 0.301753 0)
(0.844011 0.279929 1.2394e-19)
(0.869367 0.307638 1.91756e-21)
(0.907442 0.425139 4.49197e-19)
(0.853192 0.486267 1.13347e-19)
(0.859017 0.43815 -1.55502e-19)
(0.803529 0.426542 1.65391e-19)
(0.798791 0.419778 1.13069e-19)
(0.777975 0.395859 -1.10602e-19)
(1.02547 -0.00596167 1.35766e-19)
(1.01913 -0.00289419 0)
(1.01749 -0.00142545 9.20367e-20)
(1.02264 -0.00279703 -2.0685e-19)
(1.02136 4.21419e-05 1.00283e-19)
(1.02126 0.00903273 -2.13121e-19)
(1.02281 0.00908177 0)
(1.02059 0.0114668 -4.43651e-20)
(1.0165 0.00690023 1.11351e-19)
(1.01652 0.0101452 -5.64218e-20)
(1.01758 0.00883991 4.11955e-20)
(-0.244219 1.32256 0)
(-0.353789 1.47949 0)
(-0.210824 1.16434 0)
(-0.190033 1.18327 0)
(-0.0875114 1.37376 -8.85709e-19)
(0.148112 1.17773 3.0456e-19)
(0.220041 1.71856 2.25328e-19)
(0.255731 1.28499 -1.65545e-19)
(-0.385367 1.54652 3.47659e-19)
(-0.380603 1.53934 -2.65945e-19)
(-0.212331 1.27104 8.41019e-20)
(-0.234034 1.28484 4.39269e-19)
(-0.269139 1.30313 5.07486e-20)
(-0.356317 1.42753 3.84194e-20)
(-0.00343639 2.60771 2.46465e-19)
(0.117923 2.63447 0)
(0.217112 2.24474 -3.42698e-20)
(0.261751 1.84611 -1.1615e-19)
(0.347495 2.10378 2.37439e-20)
(0.241038 2.44589 0)
(0.245415 2.42108 -1.41837e-19)
(0.373292 2.3915 9.57639e-20)
(0.354429 2.07133 7.19045e-20)
(0.227911 2.28744 1.29135e-20)
(0.114528 2.43248 0)
(-0.426586 2.14127 2.29246e-19)
(-0.353659 2.23107 5.15018e-20)
(-0.410975 2.12688 0)
(-0.345302 2.38709 4.90122e-21)
(-0.391543 2.35654 -1.11278e-19)
(-0.205114 1.68361 -1.65104e-21)
(-0.139145 1.70723 2.78159e-20)
(-0.142639 1.74451 -1.21038e-20)
(-0.219113 1.74039 -4.72081e-21)
(-0.28127 1.71635 0)
(-0.117932 1.74809 0)
(-0.0338535 1.7667 9.18522e-21)
(-0.0631444 1.77488 -2.54477e-21)
(-0.0849307 1.76074 0)
(-0.0481304 1.72451 6.48723e-21)
(-0.025288 1.73884 -1.37281e-20)
(1.0305 0.00504561 0)
(1.03863 0.00699149 -1.32723e-20)
(1.04617 0.0201091 -9.63391e-20)
(1.04641 0.0211845 0)
(1.04431 0.0200786 0)
(1.04449 0.00560175 -4.43509e-21)
(1.03886 0.00411059 1.63621e-19)
(1.0407 0.0117442 1.95878e-19)
(1.03232 0.0166229 0)
(1.02934 0.0163323 0)
(1.04074 0.020699 9.81554e-20)
(1.03082 0.0169667 0)
(1.0296 0.0161351 0)
(-0.0740302 1.84048 0)
(-0.0470867 1.81451 1.81101e-21)
(-0.0551841 1.83258 5.82073e-21)
(-0.0474748 1.78408 0)
(-0.0579633 1.80788 5.53255e-21)
(-0.0438437 1.80302 -4.14602e-21)
(-0.0426372 1.79589 0)
(0.377535 1.71965 0)
(0.300449 1.33701 4.46608e-19)
(0.257438 1.38586 0)
(0.419349 1.28987 -5.66307e-19)
(0.495425 1.4313 0)
(0.433288 1.41479 2.7199e-19)
(1.02448 2.71541 -2.63217e-21)
(0.946008 2.41969 -1.7316e-19)
(0.884854 2.16433 2.16012e-19)
(0.847909 2.37044 8.12581e-20)
(0.843577 2.53747 0)
(0.910908 2.5312 0)
(0.908005 2.38326 0)
(0.889077 2.35614 -2.73791e-19)
(0.680371 2.52298 2.07002e-21)
(0.801959 2.50973 -6.70566e-21)
(0.811333 2.48446 5.22853e-21)
(0.684682 2.36423 0)
(0.791663 2.36778 0)
(0.753987 2.37402 -1.55056e-19)
(0.766025 2.51477 0)
(0.573082 1.0613 0)
(0.487379 0.903332 -2.43009e-20)
(0.491658 0.958752 -5.29915e-22)
(0.486608 1.0793 0)
(0.472141 1.00786 4.18672e-20)
(0.728184 0.875384 9.33367e-21)
(0.754853 1.00374 0)
(0.726583 0.976681 -4.47516e-20)
(0.600425 1.01767 0)
(0.604714 0.937469 0)
(1.15768 2.78029 4.09997e-20)
(1.13362 2.84105 8.68257e-20)
(0.928056 2.3747 -2.03354e-19)
(0.898587 2.3492 2.84522e-20)
(1.12527 2.75765 0)
(1.07551 2.72824 -3.49492e-20)
(1.08612 2.50976 -4.57264e-20)
(0.982191 2.24471 -2.02487e-20)
(0.510821 1.37103 0)
(0.515005 1.07099 6.34393e-20)
(0.560764 1.14816 0)
(0.864128 0.198724 0)
(0.817257 0.1585 0)
(0.771535 0.156946 0)
(0.859686 0.209443 -1.94655e-19)
(0.802949 0.209988 1.22875e-19)
(0.939341 0.0567696 -1.09726e-19)
(0.944642 0.10393 0)
(0.923239 0.112407 5.02929e-20)
(0.884554 0.0718375 2.06597e-19)
(0.883539 0.0521905 -1.26804e-19)
(1.11497 3.37814 -6.58158e-19)
(1.17846 3.30165 0)
(1.13563 3.45083 -1.38386e-18)
(0.669662 3.59666 1.1863e-18)
(1.00934 3.10592 2.8878e-19)
(0.495102 0.84922 1.24115e-19)
(0.480387 0.821588 0)
(0.389625 0.561719 -5.1803e-20)
(0.42233 0.694746 2.37169e-19)
(0.507672 0.542856 -7.22845e-20)
(0.504639 0.561766 8.07377e-20)
(0.662597 0.551249 1.62251e-19)
(0.676482 0.562804 0)
(0.61051 0.637694 0)
(0.582904 0.577439 0)
(0.939835 0.58986 -3.55276e-20)
(0.8737 0.518988 -1.08292e-19)
(0.902612 0.564357 3.4156e-20)
(0.948227 0.482818 -7.73226e-20)
(1.00107 0.466783 0)
(1.02121 0.580074 1.27942e-21)
(0.825922 0.383419 -2.50963e-19)
(0.823468 0.379317 -2.94769e-19)
(0.787231 0.373961 1.96605e-19)
(0.779463 0.344664 -2.22145e-19)
(0.81688 0.315605 -1.65744e-19)
(0.784036 0.312381 2.03614e-19)
(1.02735 -0.000737616 -1.05215e-19)
(1.02886 -0.00282994 2.15993e-19)
(1.02636 -0.00678819 1.28942e-19)
(1.02775 -0.00852214 -1.57672e-19)
(1.03281 0.000131986 0)
(1.03317 -0.000157134 -2.58156e-19)
(-0.318152 2.01191 -7.95109e-20)
(-0.33197 1.81261 0)
(-0.0168981 1.86581 -6.45885e-19)
(0.13709 1.86753 5.70197e-19)
(0.156197 1.69336 -4.13713e-19)
(-0.109259 1.69962 0)
(-0.130796 1.83671 0)
(-0.112524 1.77846 -2.33884e-21)
(-0.0803265 1.78378 2.10417e-21)
(-0.0718102 1.80335 3.08257e-21)
(-0.0877185 1.84203 -7.61188e-21)
(-0.0987707 1.83996 5.58344e-21)
(0.50217 1.38706 3.01968e-19)
(0.478204 1.40297 -3.21585e-19)
(0.428486 1.28072 2.84959e-19)
(0.404818 1.31848 -1.85038e-20)
(0.613207 1.29709 0)
(0.554337 1.37127 3.59047e-19)
(0.564691 1.35707 -3.47147e-19)
(0.444324 1.25292 -2.79844e-19)
(0.491224 1.20614 0)
(0.564392 1.18038 0)
(0.638813 2.47463 -3.09842e-21)
(0.661228 2.47461 3.85956e-19)
(0.708617 2.49696 -2.63942e-19)
(0.613897 2.47872 -8.26681e-20)
(0.541208 2.57211 7.24913e-20)
(0.513083 2.52747 -2.03634e-19)
(0.961133 2.38509 -1.18063e-19)
(1.00651 2.41165 0)
(0.906735 2.15471 -1.50703e-19)
(1.04324 2.70869 0)
(1.04333 2.69738 0)
(0.615053 2.32688 2.34812e-19)
(1.10823 3.11415 3.0453e-19)
(0.98096 2.99853 -3.31139e-19)
(0.338371 0.939618 0)
(0.372737 0.846072 -8.63075e-20)
(0.539595 0.76261 -3.56963e-20)
(0.387101 2.16652 0)
(0.420148 2.77295 -2.04649e-19)
(0.433536 2.51809 0)
(0.641723 0.69241 -1.79906e-19)
(0.697659 0.666344 2.52299e-19)
(0.706692 0.628869 -2.51062e-19)
(0.636643 0.66615 -2.68977e-20)
(0.696254 0.605802 -1.14439e-19)
(0.973589 2.78846 -2.30095e-19)
(1.01463 2.80191 1.81979e-19)
(0.573933 2.2512 -9.9831e-20)
(0.613768 1.78599 3.73747e-20)
(0.697176 1.89941 2.37659e-20)
(0.977057 2.43885 -6.83393e-20)
(0.972876 2.40035 -6.6524e-20)
(0.654962 1.84305 -1.19518e-21)
(0.4491 1.33856 -3.33076e-20)
)
;

boundaryField
{
    wall-4
    {
        type            noSlip;
    }
    velocity-inlet-5
    {
        type            fixedValue;
        value           uniform (1 0 0);
    }
    velocity-inlet-6
    {
        type            fixedValue;
        value           uniform (0 3 0);
    }
    pressure-outlet-7
    {
        type            zeroGradient;
    }
    wall-8
    {
        type            noSlip;
    }
    frontAndBackPlanes
    {
        type            empty;
    }
}

