/*--------------------------------*- C++ -*----------------------------------*\
  =========                 |
  \\      /  F ield         | OpenFOAM: The Open Source CFD Toolbox
   \\    /   O peration     | Website:  https://openfoam.org
    \\  /    A nd           | Version:  6
     \\/     M anipulation  |
\*---------------------------------------------------------------------------*/
FoamFile
{
    version     2.0;
    format      ascii;
    class       volVectorField;
    location    "0";
    object      U_rec;
}
// * * * * * * * * * * * * * * * * * * * * * * * * * * * * * * * * * * * * * //

dimensions      [0 1 -1 0 0 0 0];

internalField   nonuniform List<vector> 
40000
(
(4.5579e-07 -4.55896e-07 0)
(2.77467e-06 -9.40431e-07 0)
(5.96191e-06 -1.08477e-06 0)
(9.1775e-06 -9.48506e-07 0)
(1.15839e-05 -6.60028e-07 0)
(1.27234e-05 -2.86727e-07 0)
(1.23468e-05 1.27378e-07 0)
(1.03344e-05 5.53651e-07 0)
(6.65625e-06 9.74198e-07 0)
(1.34135e-06 1.37793e-06 0)
(-5.5432e-06 1.75815e-06 0)
(-1.39071e-05 2.11116e-06 0)
(-2.36469e-05 2.43523e-06 0)
(-3.46519e-05 2.73e-06 0)
(-4.68103e-05 2.996e-06 0)
(-6.00125e-05 3.23434e-06 0)
(-7.41519e-05 3.44655e-06 0)
(-8.91287e-05 3.63436e-06 0)
(-0.000104849 3.79967e-06 0)
(-0.000121224 3.94441e-06 0)
(-0.000138177 4.07049e-06 0)
(-0.000155633 4.17979e-06 0)
(-0.000173528 4.27411e-06 0)
(-0.000191803 4.35514e-06 0)
(-0.000210405 4.42448e-06 0)
(-0.00022929 4.48359e-06 0)
(-0.000248417 4.53382e-06 0)
(-0.00026775 4.57639e-06 0)
(-0.000287259 4.61239e-06 0)
(-0.000306917 4.6428e-06 0)
(-0.000326702 4.66847e-06 0)
(-0.000346595 4.69015e-06 0)
(-0.000366579 4.70847e-06 0)
(-0.00038664 4.72398e-06 0)
(-0.000406767 4.73712e-06 0)
(-0.000426948 4.74827e-06 0)
(-0.000447175 4.75771e-06 0)
(-0.000467441 4.76567e-06 0)
(-0.000487737 4.7723e-06 0)
(-0.00050806 4.77771e-06 0)
(-0.0005284 4.78196e-06 0)
(-0.000548755 4.78506e-06 0)
(-0.000569116 4.78699e-06 0)
(-0.000589479 4.78769e-06 0)
(-0.000609838 4.78707e-06 0)
(-0.000630185 4.78502e-06 0)
(-0.000650514 4.78141e-06 0)
(-0.000670817 4.7761e-06 0)
(-0.000691087 4.76891e-06 0)
(-0.000711313 4.75967e-06 0)
(-0.000731487 4.7482e-06 0)
(-0.000751598 4.7343e-06 0)
(-0.000771635 4.71777e-06 0)
(-0.000791586 4.69839e-06 0)
(-0.000811438 4.67596e-06 0)
(-0.000831178 4.65026e-06 0)
(-0.00085079 4.62106e-06 0)
(-0.000870259 4.58815e-06 0)
(-0.000889569 4.55133e-06 0)
(-0.000908703 4.51034e-06 0)
(-0.000927642 4.465e-06 0)
(-0.000946368 4.41508e-06 0)
(-0.00096486 4.36037e-06 0)
(-0.000983098 4.30066e-06 0)
(-0.00100106 4.23575e-06 0)
(-0.00101873 4.16545e-06 0)
(-0.00103607 4.08957e-06 0)
(-0.00105307 4.00793e-06 0)
(-0.0010697 3.92035e-06 0)
(-0.00108593 3.82669e-06 0)
(-0.00110175 3.72675e-06 0)
(-0.00111712 3.62044e-06 0)
(-0.00113201 3.50762e-06 0)
(-0.00114641 3.38816e-06 0)
(-0.00116028 3.262e-06 0)
(-0.00117359 3.12904e-06 0)
(-0.00118631 2.98917e-06 0)
(-0.00119843 2.84241e-06 0)
(-0.0012099 2.68867e-06 0)
(-0.0012207 2.52796e-06 0)
(-0.00123081 2.36031e-06 0)
(-0.00124019 2.18574e-06 0)
(-0.00124881 2.0043e-06 0)
(-0.00125666 1.81605e-06 0)
(-0.00126369 1.62111e-06 0)
(-0.00126988 1.41958e-06 0)
(-0.00127521 1.21166e-06 0)
(-0.00127965 9.97429e-07 0)
(-0.00128318 7.77156e-07 0)
(-0.00128577 5.5105e-07 0)
(-0.0012874 3.19352e-07 0)
(-0.00128805 8.23562e-08 0)
(-0.0012877 -1.59648e-07 0)
(-0.00128632 -4.06316e-07 0)
(-0.0012839 -6.57292e-07 0)
(-0.00128043 -9.12189e-07 0)
(-0.00127589 -1.17058e-06 0)
(-0.00127027 -1.43204e-06 0)
(-0.00126355 -1.69609e-06 0)
(-0.00125572 -1.96224e-06 0)
(-0.00124679 -2.22996e-06 0)
(-0.00123675 -2.49873e-06 0)
(-0.00122559 -2.76795e-06 0)
(-0.00121331 -3.03706e-06 0)
(-0.00119992 -3.30543e-06 0)
(-0.00118543 -3.57244e-06 0)
(-0.00116983 -3.83744e-06 0)
(-0.00115314 -4.09977e-06 0)
(-0.00113538 -4.35876e-06 0)
(-0.00111655 -4.61371e-06 0)
(-0.00109668 -4.86394e-06 0)
(-0.00107579 -5.10874e-06 0)
(-0.0010539 -5.3474e-06 0)
(-0.00103104 -5.57922e-06 0)
(-0.00100725 -5.80349e-06 0)
(-0.000982547 -6.01952e-06 0)
(-0.00095697 -6.2266e-06 0)
(-0.000930563 -6.4241e-06 0)
(-0.000903368 -6.61129e-06 0)
(-0.000875422 -6.78757e-06 0)
(-0.000846773 -6.95231e-06 0)
(-0.000817472 -7.10491e-06 0)
(-0.000787569 -7.24482e-06 0)
(-0.00075712 -7.3715e-06 0)
(-0.000726173 -7.48445e-06 0)
(-0.000694794 -7.5832e-06 0)
(-0.000663036 -7.66737e-06 0)
(-0.000630961 -7.73652e-06 0)
(-0.000598632 -7.79041e-06 0)
(-0.00056611 -7.82875e-06 0)
(-0.000533461 -7.85131e-06 0)
(-0.000500748 -7.85789e-06 0)
(-0.000468039 -7.84844e-06 0)
(-0.000435397 -7.8229e-06 0)
(-0.00040289 -7.7813e-06 0)
(-0.000370581 -7.72368e-06 0)
(-0.000338537 -7.65016e-06 0)
(-0.000306822 -7.56098e-06 0)
(-0.000275499 -7.45632e-06 0)
(-0.000244633 -7.33654e-06 0)
(-0.000214282 -7.20195e-06 0)
(-0.000184508 -7.05296e-06 0)
(-0.000155368 -6.89012e-06 0)
(-0.000126918 -6.71387e-06 0)
(-9.92132e-05 -6.52477e-06 0)
(-7.23039e-05 -6.32343e-06 0)
(-4.62394e-05 -6.11049e-06 0)
(-2.10669e-05 -5.88664e-06 0)
(3.17027e-06 -5.65256e-06 0)
(2.6432e-05 -5.409e-06 0)
(4.868e-05 -5.15672e-06 0)
(6.9878e-05 -4.89647e-06 0)
(8.99961e-05 -4.62905e-06 0)
(0.000109005 -4.35525e-06 0)
(0.00012688 -4.07587e-06 0)
(0.000143598 -3.79172e-06 0)
(0.000159142 -3.50358e-06 0)
(0.000173495 -3.21226e-06 0)
(0.000186644 -2.91853e-06 0)
(0.000198582 -2.62318e-06 0)
(0.0002093 -2.32695e-06 0)
(0.000218798 -2.03058e-06 0)
(0.000227074 -1.7348e-06 0)
(0.000234132 -1.44033e-06 0)
(0.000239978 -1.14783e-06 0)
(0.00024462 -8.57997e-07 0)
(0.00024807 -5.71478e-07 0)
(0.000250342 -2.88916e-07 0)
(0.000251453 -1.09506e-08 0)
(0.000251423 2.61795e-07 0)
(0.000250274 5.28688e-07 0)
(0.000248032 7.89095e-07 0)
(0.000244723 1.04236e-06 0)
(0.00024038 1.28781e-06 0)
(0.000235034 1.52474e-06 0)
(0.000228725 1.75238e-06 0)
(0.000221491 1.96992e-06 0)
(0.000213377 2.17645e-06 0)
(0.000204431 2.37097e-06 0)
(0.000194704 2.55237e-06 0)
(0.000184257 2.71936e-06 0)
(0.00017315 2.87049e-06 0)
(0.000161455 3.00409e-06 0)
(0.000149248 3.11823e-06 0)
(0.000136616 3.21064e-06 0)
(0.000123655 3.27869e-06 0)
(0.000110471 3.31927e-06 0)
(9.71851e-05 3.3287e-06 0)
(8.39341e-05 3.3026e-06 0)
(7.08722e-05 3.23573e-06 0)
(5.81757e-05 3.12183e-06 0)
(4.60447e-05 2.95348e-06 0)
(3.47082e-05 2.72195e-06 0)
(2.44251e-05 2.41749e-06 0)
(1.54836e-05 2.03008e-06 0)
(8.19308e-06 1.55225e-06 0)
(2.8598e-06 9.84787e-07 0)
(-2.76907e-07 3.46912e-07 0)
(-1.23549e-06 -2.7365e-07 0)
(-5.42961e-07 -5.4306e-07 0)
(9.43706e-07 -2.77793e-06 0)
(5.74586e-06 -5.7335e-06 0)
(1.16167e-05 -6.37479e-06 0)
(1.68988e-05 -5.23193e-06 0)
(1.99169e-05 -2.91278e-06 0)
(1.96506e-05 1.21487e-07 0)
(1.54819e-05 3.54556e-06 0)
(7.07512e-06 7.13411e-06 0)
(-5.69504e-06 1.07331e-05 0)
(-2.28036e-05 1.42393e-05 0)
(-4.41204e-05 1.7585e-05 0)
(-6.94468e-05 2.07287e-05 0)
(-9.85392e-05 2.36466e-05 0)
(-0.000131129 2.63279e-05 0)
(-0.000166937 2.87712e-05 0)
(-0.000205681 3.09811e-05 0)
(-0.000247086 3.29668e-05 0)
(-0.000290886 3.47404e-05 0)
(-0.00033683 3.63157e-05 0)
(-0.000384683 3.77078e-05 0)
(-0.000434227 3.89318e-05 0)
(-0.000485262 4.00031e-05 0)
(-0.000537606 4.09368e-05 0)
(-0.000591093 4.1747e-05 0)
(-0.000645577 4.24475e-05 0)
(-0.000700925 4.3051e-05 0)
(-0.00075702 4.35691e-05 0)
(-0.000813758 4.40128e-05 0)
(-0.00087105 4.43917e-05 0)
(-0.000928816 4.47145e-05 0)
(-0.000986986 4.49891e-05 0)
(-0.0010455 4.52221e-05 0)
(-0.00110431 4.54196e-05 0)
(-0.00116337 4.55865e-05 0)
(-0.00122264 4.5727e-05 0)
(-0.00128208 4.58447e-05 0)
(-0.00134167 4.59423e-05 0)
(-0.00140137 4.6022e-05 0)
(-0.00146117 4.60854e-05 0)
(-0.00152103 4.61337e-05 0)
(-0.00158095 4.61674e-05 0)
(-0.0016409 4.6187e-05 0)
(-0.00170085 4.61922e-05 0)
(-0.00176078 4.61826e-05 0)
(-0.00182068 4.61577e-05 0)
(-0.00188053 4.61164e-05 0)
(-0.00194029 4.60578e-05 0)
(-0.00199995 4.59803e-05 0)
(-0.00205947 4.58829e-05 0)
(-0.00211883 4.57637e-05 0)
(-0.002178 4.56213e-05 0)
(-0.00223695 4.54538e-05 0)
(-0.00229563 4.52594e-05 0)
(-0.00235402 4.50364e-05 0)
(-0.00241208 4.47829e-05 0)
(-0.00246975 4.44968e-05 0)
(-0.002527 4.41762e-05 0)
(-0.00258379 4.38194e-05 0)
(-0.00264005 4.34242e-05 0)
(-0.00269575 4.29888e-05 0)
(-0.00275083 4.25112e-05 0)
(-0.00280523 4.19895e-05 0)
(-0.0028589 4.1422e-05 0)
(-0.00291177 4.08067e-05 0)
(-0.00296377 4.01421e-05 0)
(-0.00301486 3.94264e-05 0)
(-0.00306495 3.86578e-05 0)
(-0.00311399 3.78351e-05 0)
(-0.00316189 3.69567e-05 0)
(-0.0032086 3.60212e-05 0)
(-0.00325403 3.50277e-05 0)
(-0.00329811 3.39745e-05 0)
(-0.00334077 3.28609e-05 0)
(-0.00338192 3.16861e-05 0)
(-0.00342149 3.04494e-05 0)
(-0.00345941 2.91501e-05 0)
(-0.00349558 2.77875e-05 0)
(-0.00352994 2.63617e-05 0)
(-0.0035624 2.48728e-05 0)
(-0.00359288 2.33203e-05 0)
(-0.0036213 2.17049e-05 0)
(-0.00364759 2.0027e-05 0)
(-0.00367167 1.8287e-05 0)
(-0.00369346 1.64863e-05 0)
(-0.00371289 1.46253e-05 0)
(-0.00372988 1.27061e-05 0)
(-0.00374435 1.07295e-05 0)
(-0.00375625 8.69745e-06 0)
(-0.00376551 6.61217e-06 0)
(-0.00377205 4.47562e-06 0)
(-0.00377583 2.29041e-06 0)
(-0.00377678 5.90413e-08 0)
(-0.00377484 -2.21543e-06 0)
(-0.00376997 -4.52983e-06 0)
(-0.00376212 -6.88084e-06 0)
(-0.00375125 -9.26479e-06 0)
(-0.00373732 -1.16778e-05 0)
(-0.00372031 -1.41158e-05 0)
(-0.00370018 -1.65744e-05 0)
(-0.00367691 -1.90492e-05 0)
(-0.00365049 -2.15352e-05 0)
(-0.00362091 -2.40277e-05 0)
(-0.00358816 -2.65214e-05 0)
(-0.00355227 -2.90109e-05 0)
(-0.00351322 -3.14908e-05 0)
(-0.00347104 -3.39554e-05 0)
(-0.00342576 -3.63988e-05 0)
(-0.00337741 -3.88152e-05 0)
(-0.00332602 -4.11985e-05 0)
(-0.00327165 -4.35425e-05 0)
(-0.00321435 -4.5841e-05 0)
(-0.00315419 -4.80879e-05 0)
(-0.00309122 -5.02767e-05 0)
(-0.00302554 -5.24013e-05 0)
(-0.00295723 -5.44555e-05 0)
(-0.00288637 -5.6433e-05 0)
(-0.00281309 -5.83279e-05 0)
(-0.00273747 -6.01339e-05 0)
(-0.00265964 -6.18454e-05 0)
(-0.00257971 -6.34568e-05 0)
(-0.00249784 -6.49625e-05 0)
(-0.00241413 -6.63575e-05 0)
(-0.00232875 -6.76365e-05 0)
(-0.00224182 -6.87949e-05 0)
(-0.00215353 -6.9829e-05 0)
(-0.00206401 -7.07335e-05 0)
(-0.00197344 -7.15062e-05 0)
(-0.00188197 -7.21428e-05 0)
(-0.0017898 -7.26413e-05 0)
(-0.00169708 -7.29988e-05 0)
(-0.00160399 -7.32138e-05 0)
(-0.00151072 -7.32841e-05 0)
(-0.00141745 -7.32099e-05 0)
(-0.00132435 -7.29899e-05 0)
(-0.00123162 -7.26248e-05 0)
(-0.00113942 -7.21145e-05 0)
(-0.00104795 -7.14607e-05 0)
(-0.000957376 -7.06648e-05 0)
(-0.000867879 -6.97287e-05 0)
(-0.000779633 -6.86554e-05 0)
(-0.000692808 -6.74481e-05 0)
(-0.000607571 -6.611e-05 0)
(-0.000524079 -6.46453e-05 0)
(-0.000442494 -6.30584e-05 0)
(-0.000362963 -6.1354e-05 0)
(-0.000285631 -5.95378e-05 0)
(-0.000210636 -5.76148e-05 0)
(-0.000138109 -5.55913e-05 0)
(-6.81732e-05 -5.34736e-05 0)
(-9.44268e-07 -5.12677e-05 0)
(6.34696e-05 -4.89804e-05 0)
(0.000124971 -4.66186e-05 0)
(0.000183467 -4.41889e-05 0)
(0.000238877 -4.16987e-05 0)
(0.000291124 -3.9155e-05 0)
(0.00034015 -3.65649e-05 0)
(0.000385894 -3.39355e-05 0)
(0.000428307 -3.12741e-05 0)
(0.000467356 -2.85874e-05 0)
(0.000503008 -2.58828e-05 0)
(0.000535247 -2.31669e-05 0)
(0.000564057 -2.04467e-05 0)
(0.000589434 -1.77287e-05 0)
(0.000611386 -1.50195e-05 0)
(0.000629922 -1.23255e-05 0)
(0.000645069 -9.65317e-06 0)
(0.000656848 -7.00862e-06 0)
(0.000665305 -4.39801e-06 0)
(0.000670477 -1.82748e-06 0)
(0.000672425 6.96918e-07 0)
(0.000671203 3.16895e-06 0)
(0.000666883 5.58243e-06 0)
(0.000659544 7.93091e-06 0)
(0.000649271 1.02077e-05 0)
(0.000636156 1.24057e-05 0)
(0.000620306 1.45176e-05 0)
(0.000601835 1.65351e-05 0)
(0.000580871 1.84495e-05 0)
(0.000557547 2.0251e-05 0)
(0.000532018 2.19291e-05 0)
(0.000504447 2.34713e-05 0)
(0.000475016 2.48642e-05 0)
(0.000443926 2.60922e-05 0)
(0.000411398 2.71377e-05 0)
(0.000377674 2.79804e-05 0)
(0.000343028 2.85972e-05 0)
(0.000307759 2.89611e-05 0)
(0.000272202 2.90412e-05 0)
(0.000236733 2.88019e-05 0)
(0.000201769 2.82019e-05 0)
(0.000167778 2.71941e-05 0)
(0.000135281 2.57259e-05 0)
(0.000104853 2.37402e-05 0)
(7.71271e-05 2.11809e-05 0)
(5.27741e-05 1.80036e-05 0)
(3.24767e-05 1.42006e-05 0)
(1.68587e-05 9.85044e-06 0)
(6.3528e-06 5.21382e-06 0)
(9.54388e-07 9.59122e-07 0)
(-2.74463e-07 -1.2366e-06 0)
(1.09479e-06 -5.98344e-06 0)
(6.41762e-06 -1.16166e-05 0)
(1.21461e-05 -1.20952e-05 0)
(1.62154e-05 -8.78019e-06 0)
(1.65668e-05 -2.87088e-06 0)
(1.18859e-05 4.69696e-06 0)
(1.32707e-06 1.32243e-05 0)
(-1.56015e-05 2.22004e-05 0)
(-3.91122e-05 3.12587e-05 0)
(-6.92053e-05 4.01424e-05 0)
(-0.000105728 4.86756e-05 0)
(-0.000148417 5.6744e-05 0)
(-0.000196939 6.4278e-05 0)
(-0.000250915 7.12411e-05 0)
(-0.000309939 7.76211e-05 0)
(-0.000373601 8.34226e-05 0)
(-0.000441489 8.86631e-05 0)
(-0.000513207 9.3368e-05 0)
(-0.000588373 9.75687e-05 0)
(-0.000666627 0.0001013 0)
(-0.000747632 0.000104598 0)
(-0.00083108 0.0001075 0)
(-0.000916684 0.000110043 0)
(-0.00100418 0.000112262 0)
(-0.00109334 0.00011419 0)
(-0.00118396 0.000115861 0)
(-0.00127583 0.000117304 0)
(-0.0013688 0.000118545 0)
(-0.00146271 0.000119611 0)
(-0.00155743 0.000120523 0)
(-0.00165285 0.000121302 0)
(-0.00174887 0.000121964 0)
(-0.0018454 0.000122526 0)
(-0.00194236 0.000123001 0)
(-0.00203968 0.000123399 0)
(-0.0021373 0.000123731 0)
(-0.00223516 0.000124002 0)
(-0.00233323 0.00012422 0)
(-0.00243145 0.000124389 0)
(-0.00252977 0.000124511 0)
(-0.00262816 0.00012459 0)
(-0.00272658 0.000124625 0)
(-0.002825 0.000124616 0)
(-0.00292337 0.000124563 0)
(-0.00302165 0.000124465 0)
(-0.0031198 0.000124318 0)
(-0.00321779 0.00012412 0)
(-0.00331556 0.000123869 0)
(-0.00341307 0.000123559 0)
(-0.00351026 0.000123189 0)
(-0.00360709 0.000122752 0)
(-0.0037035 0.000122246 0)
(-0.00379943 0.000121664 0)
(-0.00389482 0.000121003 0)
(-0.0039896 0.000120258 0)
(-0.00408369 0.000119423 0)
(-0.00417704 0.000118495 0)
(-0.00426955 0.000117467 0)
(-0.00436115 0.000116335 0)
(-0.00445175 0.000115094 0)
(-0.00454127 0.000113739 0)
(-0.00462961 0.000112266 0)
(-0.00471668 0.000110669 0)
(-0.00480238 0.000108945 0)
(-0.0048866 0.000107088 0)
(-0.00496925 0.000105094 0)
(-0.00505021 0.000102961 0)
(-0.00512938 0.000100683 0)
(-0.00520663 9.82574e-05 0)
(-0.00528187 9.56808e-05 0)
(-0.00535496 9.29498e-05 0)
(-0.00542578 9.00625e-05 0)
(-0.00549423 8.70164e-05 0)
(-0.00556017 8.38088e-05 0)
(-0.00562348 8.04387e-05 0)
(-0.00568403 7.69047e-05 0)
(-0.00574171 7.32068e-05 0)
(-0.00579638 6.93429e-05 0)
(-0.00584792 6.53142e-05 0)
(-0.00589622 6.11213e-05 0)
(-0.00594112 5.67647e-05 0)
(-0.00598253 5.2247e-05 0)
(-0.00602032 4.75689e-05 0)
(-0.00605438 4.27337e-05 0)
(-0.00608457 3.77444e-05 0)
(-0.0061108 3.26051e-05 0)
(-0.00613295 2.7319e-05 0)
(-0.00615093 2.18924e-05 0)
(-0.0061646 1.63296e-05 0)
(-0.0061739 1.06368e-05 0)
(-0.00617871 4.82136e-06 0)
(-0.00617897 -1.11039e-06 0)
(-0.00617459 -7.15012e-06 0)
(-0.00616548 -1.32896e-05 0)
(-0.0061516 -1.95198e-05 0)
(-0.00613284 -2.58308e-05 0)
(-0.00610921 -3.22126e-05 0)
(-0.00608063 -3.86548e-05 0)
(-0.00604707 -4.51452e-05 0)
(-0.00600849 -5.16725e-05 0)
(-0.00596488 -5.82241e-05 0)
(-0.00591624 -6.47871e-05 0)
(-0.00586258 -7.13481e-05 0)
(-0.00580388 -7.78931e-05 0)
(-0.00574019 -8.4408e-05 0)
(-0.00567152 -9.08781e-05 0)
(-0.00559794 -9.72882e-05 0)
(-0.00551948 -0.000103623 0)
(-0.00543622 -0.000109867 0)
(-0.00534824 -0.000116005 0)
(-0.00525562 -0.00012202 0)
(-0.00515848 -0.000127897 0)
(-0.00505692 -0.00013362 0)
(-0.00495109 -0.000139171 0)
(-0.00484108 -0.000144536 0)
(-0.00472709 -0.000149699 0)
(-0.00460926 -0.000154645 0)
(-0.00448776 -0.000159357 0)
(-0.00436277 -0.000163821 0)
(-0.00423449 -0.000168023 0)
(-0.00410314 -0.000171949 0)
(-0.00396891 -0.000175586 0)
(-0.00383204 -0.000178921 0)
(-0.00369276 -0.000181942 0)
(-0.00355131 -0.000184638 0)
(-0.00340795 -0.000186999 0)
(-0.00326292 -0.000189016 0)
(-0.00311649 -0.000190681 0)
(-0.00296893 -0.000191986 0)
(-0.00282051 -0.000192926 0)
(-0.00267151 -0.000193497 0)
(-0.00252222 -0.000193692 0)
(-0.00237291 -0.000193513 0)
(-0.00222386 -0.000192955 0)
(-0.00207536 -0.000192021 0)
(-0.0019277 -0.000190711 0)
(-0.00178116 -0.000189029 0)
(-0.00163601 -0.000186978 0)
(-0.00149254 -0.000184564 0)
(-0.001351 -0.000181792 0)
(-0.00121169 -0.000178673 0)
(-0.00107484 -0.000175213 0)
(-0.000940714 -0.000171424 0)
(-0.00080956 -0.000167316 0)
(-0.000681611 -0.000162903 0)
(-0.000557099 -0.000158196 0)
(-0.000436237 -0.000153211 0)
(-0.000319234 -0.000147963 0)
(-0.000206285 -0.000142466 0)
(-9.75735e-05 -0.000136738 0)
(6.7285e-06 -0.000130794 0)
(0.000106464 -0.000124654 0)
(0.000201481 -0.000118333 0)
(0.000291657 -0.000111851 0)
(0.000376864 -0.000105225 0)
(0.000456997 -9.8474e-05 0)
(0.000531973 -9.16161e-05 0)
(0.000601703 -8.46697e-05 0)
(0.000666127 -7.76532e-05 0)
(0.000725192 -7.05846e-05 0)
(0.00077887 -6.3482e-05 0)
(0.000827123 -5.63629e-05 0)
(0.000869952 -4.9245e-05 0)
(0.000907359 -4.21454e-05 0)
(0.000939357 -3.50812e-05 0)
(0.000965973 -2.80692e-05 0)
(0.000987254 -2.11259e-05 0)
(0.00100326 -1.42678e-05 0)
(0.00101404 -7.51148e-06 0)
(0.0010197 -8.73181e-07 0)
(0.00102032 5.63028e-06 0)
(0.00101601 1.19819e-05 0)
(0.00100688 1.81643e-05 0)
(0.000993089 2.41592e-05 0)
(0.00097477 2.99475e-05 0)
(0.000952096 3.55088e-05 0)
(0.00092524 4.08211e-05 0)
(0.000894413 4.58609e-05 0)
(0.000859831 5.06019e-05 0)
(0.000821736 5.50153e-05 0)
(0.000780387 5.90692e-05 0)
(0.000736084 6.27275e-05 0)
(0.00068914 6.59502e-05 0)
(0.000639909 6.86917e-05 0)
(0.000588778 7.09e-05 0)
(0.000536173 7.25175e-05 0)
(0.000482565 7.34768e-05 0)
(0.000428479 7.37031e-05 0)
(0.000374488 7.31109e-05 0)
(0.000321229 7.16044e-05 0)
(0.000269403 6.90778e-05 0)
(0.000219776 6.54171e-05 0)
(0.000173178 6.05068e-05 0)
(0.000130497 5.42433e-05 0)
(9.26499e-05 4.65636e-05 0)
(6.05359e-05 3.74984e-05 0)
(3.49455e-05 2.72704e-05 0)
(1.6429e-05 1.64607e-05 0)
(5.19107e-06 6.3506e-06 0)
(3.43071e-07 -2.857e-07 0)
(9.65933e-07 -9.23523e-06 0)
(5.29517e-06 -1.69271e-05 0)
(8.84058e-06 -1.61636e-05 0)
(9.32325e-06 -9.28616e-06 0)
(4.56065e-06 1.85285e-06 0)
(-6.88525e-06 1.57977e-05 0)
(-2.59676e-05 3.14243e-05 0)
(-5.32599e-05 4.78828e-05 0)
(-8.90247e-05 6.45421e-05 0)
(-0.00013328 8.09452e-05 0)
(-0.000185857 9.67695e-05 0)
(-0.000246454 0.000111798 0)
(-0.000314672 0.000125893 0)
(-0.000390053 0.000138975 0)
(-0.000472099 0.000151012 0)
(-0.000560298 0.000162002 0)
(-0.000654136 0.000171971 0)
(-0.000753106 0.000180956 0)
(-0.000856723 0.000189012 0)
(-0.00096452 0.000196195 0)
(-0.00107606 0.000202571 0)
(-0.00119095 0.000208204 0)
(-0.0013088 0.000213161 0)
(-0.00142927 0.000217504 0)
(-0.00155205 0.000221295 0)
(-0.00167685 0.000224593 0)
(-0.00180343 0.000227452 0)
(-0.00193155 0.000229922 0)
(-0.00206101 0.00023205 0)
(-0.00219162 0.000233877 0)
(-0.00232323 0.000235441 0)
(-0.0024557 0.000236775 0)
(-0.00258889 0.000237906 0)
(-0.0027227 0.000238861 0)
(-0.00285703 0.000239661 0)
(-0.00299178 0.000240321 0)
(-0.00312688 0.000240859 0)
(-0.00326225 0.000241283 0)
(-0.00339783 0.000241604 0)
(-0.00353354 0.000241827 0)
(-0.00366933 0.000241956 0)
(-0.00380515 0.000241994 0)
(-0.00394092 0.000241939 0)
(-0.0040766 0.000241791 0)
(-0.00421212 0.000241548 0)
(-0.00434742 0.000241204 0)
(-0.00448243 0.000240755 0)
(-0.0046171 0.000240196 0)
(-0.00475135 0.000239519 0)
(-0.0048851 0.000238718 0)
(-0.00501829 0.000237785 0)
(-0.00515083 0.000236711 0)
(-0.00528263 0.000235488 0)
(-0.00541361 0.000234107 0)
(-0.00554367 0.00023256 0)
(-0.00567271 0.000230836 0)
(-0.00580064 0.000228928 0)
(-0.00592733 0.000226826 0)
(-0.00605268 0.00022452 0)
(-0.00617658 0.000222002 0)
(-0.00629889 0.000219262 0)
(-0.00641949 0.000216292 0)
(-0.00653825 0.000213084 0)
(-0.00665504 0.000209628 0)
(-0.00676971 0.000205918 0)
(-0.00688212 0.000201945 0)
(-0.00699214 0.000197702 0)
(-0.00709959 0.000193183 0)
(-0.00720434 0.000188382 0)
(-0.00730623 0.000183292 0)
(-0.00740509 0.000177908 0)
(-0.00750078 0.000172225 0)
(-0.00759311 0.00016624 0)
(-0.00768194 0.00015995 0)
(-0.00776709 0.000153352 0)
(-0.0078484 0.000146443 0)
(-0.00792572 0.000139224 0)
(-0.00799885 0.000131693 0)
(-0.00806765 0.000123853 0)
(-0.00813194 0.000115703 0)
(-0.00819159 0.000107247 0)
(-0.0082464 9.84874e-05 0)
(-0.00829622 8.94296e-05 0)
(-0.00834093 8.00789e-05 0)
(-0.00838036 7.04417e-05 0)
(-0.00841433 6.05249e-05 0)
(-0.00844274 5.03375e-05 0)
(-0.00846543 3.98894e-05 0)
(-0.0084823 2.91911e-05 0)
(-0.00849318 1.82534e-05 0)
(-0.00849799 7.09081e-06 0)
(-0.00849661 -4.28367e-06 0)
(-0.00848895 -1.58543e-05 0)
(-0.00847488 -2.76059e-05 0)
(-0.00845437 -3.95202e-05 0)
(-0.00842728 -5.15788e-05 0)
(-0.0083936 -6.37632e-05 0)
(-0.00835329 -7.60517e-05 0)
(-0.00830624 -8.84235e-05 0)
(-0.00825246 -0.000100856 0)
(-0.00819196 -0.000113326 0)
(-0.00812469 -0.000125808 0)
(-0.00805067 -0.000138278 0)
(-0.00796993 -0.00015071 0)
(-0.00788251 -0.000163076 0)
(-0.00778844 -0.00017535 0)
(-0.00768781 -0.000187503 0)
(-0.0075807 -0.000199507 0)
(-0.00746716 -0.000211332 0)
(-0.00734736 -0.00022295 0)
(-0.00722138 -0.00023433 0)
(-0.00708937 -0.000245443 0)
(-0.00695151 -0.000256259 0)
(-0.00680794 -0.000266749 0)
(-0.00665886 -0.000276882 0)
(-0.00650449 -0.00028663 0)
(-0.00634503 -0.000295964 0)
(-0.00618069 -0.000304855 0)
(-0.00601174 -0.000313277 0)
(-0.00583844 -0.000321202 0)
(-0.00566105 -0.000328606 0)
(-0.00547987 -0.000335463 0)
(-0.0052952 -0.000341751 0)
(-0.00510732 -0.000347447 0)
(-0.00491658 -0.000352531 0)
(-0.0047233 -0.000356985 0)
(-0.00452781 -0.000360792 0)
(-0.00433048 -0.000363936 0)
(-0.00413164 -0.000366406 0)
(-0.00393166 -0.000368189 0)
(-0.0037309 -0.000369276 0)
(-0.00352975 -0.000369662 0)
(-0.00332856 -0.000369342 0)
(-0.0031277 -0.000368314 0)
(-0.00292757 -0.000366577 0)
(-0.00272852 -0.000364136 0)
(-0.00253093 -0.000360994 0)
(-0.00233517 -0.00035716 0)
(-0.00214159 -0.000352644 0)
(-0.00195057 -0.000347457 0)
(-0.00176246 -0.000341613 0)
(-0.00157758 -0.000335131 0)
(-0.00139629 -0.000328027 0)
(-0.0012189 -0.000320323 0)
(-0.00104573 -0.000312042 0)
(-0.000877079 -0.000303207 0)
(-0.000713239 -0.000293846 0)
(-0.000554482 -0.000283985 0)
(-0.000401072 -0.000273653 0)
(-0.000253254 -0.000262881 0)
(-0.000111256 -0.0002517 0)
(2.47065e-05 -0.000240142 0)
(0.000154438 -0.000228239 0)
(0.000277759 -0.000216026 0)
(0.000394504 -0.000203536 0)
(0.000504533 -0.000190803 0)
(0.000607716 -0.000177861 0)
(0.000703948 -0.000164745 0)
(0.000793128 -0.00015149 0)
(0.000875198 -0.000138129 0)
(0.000950095 -0.000124695 0)
(0.00101778 -0.000111224 0)
(0.00107824 -9.77464e-05 0)
(0.00113147 -8.42967e-05 0)
(0.00117749 -7.0907e-05 0)
(0.00121633 -5.76093e-05 0)
(0.00124805 -4.44353e-05 0)
(0.0012727 -3.14169e-05 0)
(0.00129039 -1.85858e-05 0)
(0.00130121 -5.97405e-06 0)
(0.00130528 6.38623e-06 0)
(0.00130276 1.84619e-05 0)
(0.00129379 3.02185e-05 0)
(0.00127855 4.16213e-05 0)
(0.00125725 5.26326e-05 0)
(0.0012301 6.32126e-05 0)
(0.00119735 7.33188e-05 0)
(0.00115927 8.29062e-05 0)
(0.00111615 9.19233e-05 0)
(0.00106832 0.000100316 0)
(0.00101612 0.000108024 0)
(0.000959959 0.000114977 0)
(0.000900247 0.000121103 0)
(0.000837462 0.000126315 0)
(0.000772111 0.00013052 0)
(0.000704763 0.00013361 0)
(0.00063603 0.000135466 0)
(0.000566596 0.000135956 0)
(0.0004972 0.000134931 0)
(0.000428654 0.000132229 0)
(0.00036184 0.000127674 0)
(0.000297709 0.000121084 0)
(0.000237276 0.000112285 0)
(0.000181605 0.000101132 0)
(0.000131779 8.75598e-05 0)
(8.88496e-05 7.16638e-05 0)
(5.37451e-05 5.38344e-05 0)
(2.71901e-05 3.4966e-05 0)
(9.80061e-06 1.68291e-05 0)
(9.75881e-07 2.8308e-06 0)
(6.80495e-07 -1.16852e-05 0)
(2.95022e-06 -1.99495e-05 0)
(2.81106e-06 -1.64488e-05 0)
(-2.08838e-06 -4.46223e-06 0)
(-1.38579e-05 1.35081e-05 0)
(-3.39384e-05 3.54886e-05 0)
(-6.32979e-05 5.99258e-05 0)
(-0.000102525 8.56162e-05 0)
(-0.000151891 0.000111645 0)
(-0.000211407 0.000137331 0)
(-0.000280887 0.000162185 0)
(-0.000359993 0.000185866 0)
(-0.000448277 0.00020815 0)
(-0.000545219 0.000228907 0)
(-0.000650251 0.00024807 0)
(-0.00076278 0.000265629 0)
(-0.000882209 0.00028161 0)
(-0.00100794 0.000296065 0)
(-0.00113942 0.000309068 0)
(-0.00127608 0.000320705 0)
(-0.0014174 0.000331069 0)
(-0.00156291 0.000340259 0)
(-0.00171213 0.000348374 0)
(-0.00186467 0.00035551 0)
(-0.00202014 0.000361761 0)
(-0.00217818 0.000367219 0)
(-0.00233849 0.000371966 0)
(-0.00250078 0.000376082 0)
(-0.00266479 0.000379638 0)
(-0.0028303 0.000382699 0)
(-0.0029971 0.000385325 0)
(-0.00316501 0.000387566 0)
(-0.00333387 0.00038947 0)
(-0.00350352 0.000391074 0)
(-0.00367385 0.000392413 0)
(-0.00384473 0.000393516 0)
(-0.00401604 0.000394403 0)
(-0.0041877 0.000395095 0)
(-0.0043596 0.000395605 0)
(-0.00453167 0.000395943 0)
(-0.00470381 0.000396116 0)
(-0.00487595 0.000396127 0)
(-0.005048 0.000395976 0)
(-0.00521988 0.000395662 0)
(-0.00539151 0.000395181 0)
(-0.0055628 0.000394527 0)
(-0.00573368 0.000393691 0)
(-0.00590405 0.000392665 0)
(-0.00607381 0.000391439 0)
(-0.00624288 0.000390002 0)
(-0.00641114 0.00038834 0)
(-0.00657849 0.000386443 0)
(-0.00674483 0.000384295 0)
(-0.00691002 0.000381884 0)
(-0.00707396 0.000379195 0)
(-0.00723651 0.000376214 0)
(-0.00739754 0.000372928 0)
(-0.00755691 0.000369321 0)
(-0.00771447 0.000365379 0)
(-0.00787008 0.000361088 0)
(-0.00802358 0.000356433 0)
(-0.0081748 0.000351404 0)
(-0.0083236 0.000345985 0)
(-0.00846978 0.000340163 0)
(-0.00861319 0.000333927 0)
(-0.00875363 0.000327265 0)
(-0.00889093 0.000320166 0)
(-0.00902488 0.00031262 0)
(-0.00915533 0.000304618 0)
(-0.00928206 0.000296149 0)
(-0.00940488 0.00028721 0)
(-0.00952358 0.00027779 0)
(-0.00963798 0.000267886 0)
(-0.00974786 0.000257492 0)
(-0.00985303 0.000246605 0)
(-0.00995329 0.000235225 0)
(-0.0100484 0.000223349 0)
(-0.0101382 0.000210976 0)
(-0.0102226 0.000198113 0)
(-0.0103011 0.000184759 0)
(-0.0103738 0.00017092 0)
(-0.0104404 0.000156604 0)
(-0.0105007 0.000141817 0)
(-0.0105545 0.000126568 0)
(-0.0106016 0.00011087 0)
(-0.0106419 9.47338e-05 0)
(-0.0106752 7.81747e-05 0)
(-0.0107014 6.12093e-05 0)
(-0.0107203 4.3854e-05 0)
(-0.0107317 2.6129e-05 0)
(-0.0107355 8.05464e-06 0)
(-0.0107315 -1.03447e-05 0)
(-0.0107198 -2.90459e-05 0)
(-0.0107001 -4.8022e-05 0)
(-0.0106724 -6.72452e-05 0)
(-0.0106365 -8.6686e-05 0)
(-0.0105925 -0.000106314 0)
(-0.0105402 -0.000126094 0)
(-0.0104797 -0.000145994 0)
(-0.0104109 -0.000165976 0)
(-0.0103337 -0.000186005 0)
(-0.0102481 -0.000206041 0)
(-0.0101543 -0.000226044 0)
(-0.0100523 -0.000245973 0)
(-0.00994197 -0.000265785 0)
(-0.00982353 -0.000285437 0)
(-0.00969703 -0.000304886 0)
(-0.00956257 -0.000324085 0)
(-0.00942027 -0.000342989 0)
(-0.00927027 -0.000361552 0)
(-0.00911271 -0.000379727 0)
(-0.00894781 -0.000397468 0)
(-0.00877577 -0.000414727 0)
(-0.00859674 -0.000431459 0)
(-0.00841103 -0.000447617 0)
(-0.00821879 -0.000463156 0)
(-0.00802036 -0.000478029 0)
(-0.00781602 -0.000492194 0)
(-0.00760605 -0.000505607 0)
(-0.0073908 -0.000518227 0)
(-0.00717056 -0.000530015 0)
(-0.00694571 -0.000540931 0)
(-0.00671658 -0.00055094 0)
(-0.00648359 -0.000560007 0)
(-0.00624709 -0.000568102 0)
(-0.0060075 -0.000575194 0)
(-0.00576526 -0.000581258 0)
(-0.00552072 -0.00058627 0)
(-0.00527438 -0.000590213 0)
(-0.00502663 -0.000593062 0)
(-0.00477794 -0.000594812 0)
(-0.00452873 -0.000595445 0)
(-0.00427949 -0.000594961 0)
(-0.00403064 -0.000593352 0)
(-0.00378266 -0.000590622 0)
(-0.00353596 -0.000586772 0)
(-0.00329103 -0.000581812 0)
(-0.00304831 -0.000575753 0)
(-0.00280823 -0.000568612 0)
(-0.00257123 -0.000560403 0)
(-0.00233773 -0.000551152 0)
(-0.00210815 -0.000540885 0)
(-0.00188291 -0.000529631 0)
(-0.00166239 -0.000517421 0)
(-0.00144698 -0.000504289 0)
(-0.00123705 -0.000490277 0)
(-0.00103294 -0.000475423 0)
(-0.000834999 -0.000459771 0)
(-0.000643545 -0.000443363 0)
(-0.000458878 -0.000426251 0)
(-0.000281283 -0.00040848 0)
(-0.000111022 -0.000390103 0)
(5.1663e-05 -0.000371169 0)
(0.000206545 -0.000351732 0)
(0.000353417 -0.000331845 0)
(0.000492108 -0.000311562 0)
(0.000622452 -0.000290936 0)
(0.000744312 -0.000270022 0)
(0.00085757 -0.000248875 0)
(0.000962134 -0.000227549 0)
(0.00105793 -0.000206097 0)
(0.0011449 -0.000184571 0)
(0.00122302 -0.000163028 0)
(0.0012923 -0.000141517 0)
(0.00135272 -0.000120091 0)
(0.00140434 -9.88031e-05 0)
(0.00144721 -7.77036e-05 0)
(0.0014814 -5.68438e-05 0)
(0.00150703 -3.6276e-05 0)
(0.00152422 -1.6052e-05 0)
(0.00153311 3.77566e-06 0)
(0.00153386 2.31523e-05 0)
(0.00152669 4.20226e-05 0)
(0.00151179 6.03284e-05 0)
(0.00148941 7.80089e-05 0)
(0.00145983 9.49992e-05 0)
(0.00142334 0.000111231 0)
(0.00138027 0.000126628 0)
(0.00133098 0.000141111 0)
(0.00127587 0.000154591 0)
(0.00121537 0.000166971 0)
(0.00114997 0.000178144 0)
(0.00108018 0.00018799 0)
(0.00100656 0.000196378 0)
(0.000929754 0.000203161 0)
(0.000850429 0.000208177 0)
(0.00076933 0.000211245 0)
(0.000687264 0.000212166 0)
(0.00060511 0.000210724 0)
(0.000523817 0.000206684 0)
(0.000444407 0.000199799 0)
(0.000367971 0.00018982 0)
(0.00029566 0.000176518 0)
(0.00022867 0.000159714 0)
(0.000168213 0.00013935 0)
(0.000115475 0.000115583 0)
(7.15436e-05 8.89375e-05 0)
(3.7383e-05 6.05303e-05 0)
(1.41254e-05 3.23981e-05 0)
(1.53767e-06 8.12819e-06 0)
(3.01022e-07 -1.28467e-05 0)
(-1.92856e-07 -1.95797e-05 0)
(-5.09467e-06 -1.14991e-05 0)
(-1.67209e-05 7.3187e-06 0)
(-3.6958e-05 3.3775e-05 0)
(-6.71529e-05 6.54079e-05 0)
(-0.000108216 0.000100253 0)
(-0.000160694 0.000136759 0)
(-0.000224823 0.000173726 0)
(-0.000300586 0.000210245 0)
(-0.000387763 0.000245646 0)
(-0.000485978 0.000279457 0)
(-0.000594739 0.000311358 0)
(-0.00071347 0.000341154 0)
(-0.000841545 0.000368744 0)
(-0.000978312 0.000394098 0)
(-0.0011231 0.000417241 0)
(-0.00127526 0.000438238 0)
(-0.00143413 0.000457184 0)
(-0.0015991 0.000474191 0)
(-0.00176957 0.000489386 0)
(-0.001945 0.000502901 0)
(-0.00212486 0.000514872 0)
(-0.00230867 0.000525432 0)
(-0.00249599 0.000534713 0)
(-0.00268641 0.00054284 0)
(-0.00287956 0.00054993 0)
(-0.00307512 0.000556094 0)
(-0.00327277 0.000561434 0)
(-0.00347224 0.000566041 0)
(-0.00367329 0.000569999 0)
(-0.00387569 0.000573382 0)
(-0.00407926 0.000576254 0)
(-0.0042838 0.000578672 0)
(-0.00448915 0.000580685 0)
(-0.00469516 0.000582333 0)