/*--------------------------------*- C++ -*----------------------------------*\
  =========                 |
  \\      /  F ield         | OpenFOAM: The Open Source CFD Toolbox
   \\    /   O peration     | Website:  https://openfoam.org
    \\  /    A nd           | Version:  6
     \\/     M anipulation  |
\*---------------------------------------------------------------------------*/
FoamFile
{
    version     2.0;
    format      ascii;
    class       volVectorField;
    location    "0";
    object      U;
}
// * * * * * * * * * * * * * * * * * * * * * * * * * * * * * * * * * * * * * //

dimensions      [0 1 -1 0 0 0 0];

internalField   nonuniform List<vector> 
11644
(
(1.00014 -0.000350971 0)
(1.00006 -0.00102868 0)
(1.00006 -0.00167347 0)
(1.00006 -0.00231669 0)
(1.00006 -0.00296829 0)
(1.00006 -0.00362328 0)
(1.00006 -0.00427326 0)
(1.00006 -0.0049065 0)
(1.00006 -0.00550628 0)
(1.00005 -0.0060495 0)
(1.00004 -0.00650576 0)
(1.00003 -0.00683731 0)
(1.00002 -0.00700018 0)
(0.999993 -0.00694745 0)
(0.999965 -0.00663475 0)
(0.999932 -0.00602819 0)
(0.999898 -0.00511365 0)
(0.999866 -0.00390567 0)
(0.999841 -0.00245284 0)
(0.999828 -0.000836778 4.67066e-30)
(0.999828 0.000836682 -4.67066e-30)
(0.999841 0.00245275 0)
(0.999866 0.00390558 0)
(0.999898 0.00511357 0)
(0.999932 0.00602813 0)
(0.999965 0.0066347 0)
(0.999993 0.00694741 0)
(1.00002 0.00700015 0)
(1.00003 0.00683729 0)
(1.00004 0.00650575 0)
(1.00005 0.00604949 0)
(1.00006 0.00550628 0)
(1.00006 0.0049065 0)
(1.00006 0.00427326 0)
(1.00006 0.00362329 0)
(1.00006 0.00296829 0)
(1.00006 0.0023167 0)
(1.00006 0.00167348 0)
(1.00006 0.00102869 0)
(1.00014 0.000350972 0)
(1.00195 -0.00101351 0)
(1.00181 -0.00301377 0)
(1.0018 -0.00497487 0)
(1.00182 -0.00693369 0)
(1.00183 -0.00890484 0)
(1.00183 -0.0108816 0)
(1.0018 -0.0128442 0)
(1.00174 -0.0147602 0)
(1.00162 -0.0165806 0)
(1.00143 -0.0182368 0)
(1.00115 -0.0196377 0)
(1.00074 -0.0206689 0)
(1.00021 -0.0211958 0)
(0.999545 -0.0210731 0)
(0.99876 -0.0201615 0)
(0.997898 -0.0183517 0)
(0.997026 -0.015594 0)
(0.996239 -0.0119275 0)
(0.995637 -0.00749866 0)
(0.995309 -0.00255956 -1.92197e-29)
(0.995309 0.00255927 1.92197e-29)
(0.995637 0.00749838 0)
(0.996239 0.0119273 0)
(0.997026 0.0155938 0)
(0.997898 0.0183515 0)
(0.99876 0.0201614 0)
(0.999545 0.021073 0)
(1.00021 0.0211957 0)
(1.00074 0.0206688 0)
(1.00115 0.0196377 0)
(1.00143 0.0182368 0)
(1.00162 0.0165806 0)
(1.00174 0.0147602 0)
(1.0018 0.0128442 0)
(1.00183 0.0108816 0)
(1.00183 0.00890485 0)
(1.00182 0.0069337 0)
(1.0018 0.00497488 0)
(1.00181 0.00301377 0)
(1.00195 0.00101352 0)
(1.00552 -0.00165758 0)
(1.00534 -0.00495877 0)
(1.00532 -0.00824109 0)
(1.00535 -0.0115326 0)
(1.00538 -0.0148482 0)
(1.00538 -0.0181823 0)
(1.00531 -0.0215091 0)
(1.00513 -0.0247805 0)
(1.0048 -0.0279202 0)
(1.00425 -0.0308175 0)
(1.00342 -0.0333208 0)
(1.00226 -0.0352341 0)
(1.0007 -0.0363193 0)
(0.998734 -0.0363097 0)
(0.996408 -0.0349388 0)
(0.993834 -0.0319838 0)
(0.991217 -0.0273214 0)
(0.988836 -0.020991 0)
(0.987008 -0.0132401 0)
(0.986011 -0.00452722 -3.9657e-29)
(0.986011 0.00452671 3.9657e-29)
(0.987008 0.0132396 0)
(0.988836 0.0209905 0)
(0.991217 0.027321 0)
(0.993834 0.0319834 0)
(0.996407 0.0349385 0)
(0.998734 0.0363095 0)
(1.0007 0.0363192 0)
(1.00226 0.0352341 0)
(1.00342 0.0333208 0)
(1.00425 0.0308175 0)
(1.0048 0.0279202 0)
(1.00513 0.0247805 0)
(1.00531 0.0215091 0)
(1.00538 0.0181823 0)
(1.00538 0.0148482 0)
(1.00535 0.0115326 0)
(1.00532 0.00824111 0)
(1.00534 0.00495878 0)
(1.00552 0.00165758 0)
(1.01089 -0.00229223 0)
(1.0107 -0.00687645 0)
(1.01068 -0.0114708 0)
(1.01075 -0.016102 0)
(1.01083 -0.0207898 0)
(1.01086 -0.0255346 0)
(1.01076 -0.0303124 0)
(1.01046 -0.0350684 0)
(1.00986 -0.0397086 0)
(1.00883 -0.0440885 0)
(1.00725 -0.048 0)
(1.00497 -0.0511595 0)
(1.00187 -0.0532032 0)
(0.997891 -0.053701 0)
(0.993103 -0.0521953 0)
(0.987733 -0.0482669 0)
(0.982183 -0.0416317 0)
(0.977065 -0.0322559 0)
(0.973086 -0.0204718 0)
(0.970899 -0.00702283 0)
(0.970899 0.00702208 0)
(0.973085 0.020471 0)
(0.977065 0.0322553 0)
(0.982183 0.0416312 0)
(0.987733 0.0482664 0)
(0.993103 0.0521949 0)
(0.99789 0.0537008 0)
(1.00187 0.0532031 0)
(1.00497 0.0511594 0)
(1.00725 0.048 0)
(1.00883 0.0440885 0)
(1.00986 0.0397086 0)
(1.01046 0.0350684 0)
(1.01076 0.0303124 0)
(1.01086 0.0255347 0)
(1.01083 0.0207899 0)
(1.01075 0.016102 0)
(1.01068 0.0114708 0)
(1.0107 0.00687646 0)
(1.01089 0.00229224 0)
(1.01799 -0.00291047 0)
(1.01781 -0.0087453 0)
(1.01785 -0.014627 0)
(1.01802 -0.0205919 0)
(1.01821 -0.0266727 0)
(1.01833 -0.032885 0)
(1.01829 -0.0392183 0)
(1.01794 -0.0456267 0)
(1.01712 -0.0520162 0)
(1.01561 -0.0582279 0)
(1.01317 -0.0640154 0)
(1.00953 -0.0690153 0)
(1.00442 -0.0727185 0)
(0.997682 -0.0744668 0)
(0.989344 -0.0734873 0)
(0.979713 -0.0690143 0)
(0.969567 -0.0603922 0)
(0.959887 -0.0473691 0)
(0.952233 -0.0303431 0)
(0.94798 -0.0104608 -8.99017e-29)
(0.94798 0.0104598 8.99017e-29)
(0.952233 0.0303421 0)
(0.959887 0.0473682 0)
(0.969567 0.0603915 0)
(0.979713 0.0690137 0)
(0.989343 0.0734868 0)
(0.997681 0.0744665 0)
(1.00442 0.0727183 0)
(1.00953 0.0690152 0)
(1.01317 0.0640154 0)
(1.01561 0.0582279 0)
(1.01712 0.0520162 0)
(1.01794 0.0456268 0)
(1.01829 0.0392184 0)
(1.01833 0.0328851 0)
(1.01821 0.0266728 0)
(1.01802 0.0205919 0)
(1.01785 0.014627 0)
(1.01781 0.00874532 0)
(1.01799 0.00291048 0)
(1.02673 -0.00349689 0)
(1.02662 -0.0105205 0)
(1.02678 -0.017637 0)
(1.02712 -0.024902 0)
(1.02754 -0.0323714 0)
(1.02791 -0.0400882 0)
(1.02808 -0.0480725 0)
(1.02787 -0.0563093 0)
(1.02702 -0.0647336 0)
(1.02521 -0.0732077 0)
(1.02205 -0.0814864 0)
(1.01706 -0.0891569 0)
(1.00969 -0.0955508 0)
(0.999475 -0.0996756 0)
(0.986313 -0.100348 0)
(0.970622 -0.0961493 0)
(0.953285 -0.086167 0)
(0.936397 -0.0692144 0)
(0.922719 -0.0450551 0)
(0.914922 -0.0156692 -1.98701e-28)
(0.914922 0.0156677 1.98701e-28)
(0.922719 0.0450538 0)
(0.936397 0.0692132 0)
(0.953285 0.086166 0)
(0.970621 0.0961486 0)
(0.986312 0.100347 0)
(0.999474 0.0996753 0)
(1.00969 0.0955507 0)
(1.01706 0.0891569 0)
(1.02205 0.0814864 0)
(1.02521 0.0732077 0)
(1.02702 0.0647337 0)
(1.02787 0.0563094 0)
(1.02808 0.0480726 0)
(1.02791 0.0400883 0)
(1.02754 0.0323715 0)
(1.02712 0.0249021 0)
(1.02678 0.0176371 0)
(1.02662 0.0105206 0)
(1.02673 0.0034969 0)
(1.03701 -0.00402983 0)
(1.03702 -0.0121374 0)
(1.03738 -0.0203922 0)
(1.03802 -0.0288769 0)
(1.03882 -0.0376804 0)
(1.03964 -0.046887 0)
(1.0403 -0.0565667 0)
(1.04055 -0.066764 0)
(1.04005 -0.0774837 0)
(1.03837 -0.0886682 0)
(1.0349 -0.100163 0)
(1.02885 -0.111648 0)
(1.01923 -0.122434 0)
(1.00485 -0.131487 0)
(0.985892 -0.136756 0)
(0.961581 -0.136411 0)
(0.945118 -0.118323 0)
(0.918254 -0.10093 0)
(0.89464 -0.0717224 0)
(0.87882 -0.0327288 -2.59938e-23)
(0.875253 0.0113918 0)
(0.885065 0.0537256 2.39045e-22)
(0.905258 0.0881368 0)
(0.930784 0.111874 0)
(0.96158 0.13641 0)
(0.985892 0.136756 0)
(1.00484 0.131486 0)
(1.01923 0.122434 0)
(1.02885 0.111648 0)
(1.0349 0.100163 0)
(1.03837 0.0886684 0)
(1.04005 0.0774839 0)
(1.04055 0.0667642 0)
(1.0403 0.0565668 0)
(1.03964 0.0468871 0)
(1.03882 0.0376805 0)
(1.03802 0.028877 0)
(1.03738 0.0203923 0)
(1.03702 0.0121375 0)
(1.03701 0.00402984 0)
(1.04867 -0.00448238 0)
(1.04884 -0.0135143 0)
(1.0495 -0.0227519 0)
(1.05058 -0.0323089 0)
(1.05197 -0.0423146 0)
(1.05351 -0.0529056 0)
(1.05502 -0.0642199 0)
(1.0562 -0.0763911 0)
(1.05667 -0.0895419 0)
(1.05588 -0.103775 0)
(1.0531 -0.119152 0)
(1.0473 -0.135593 0)
(1.03718 -0.152625 0)
(1.01977 -0.156879 0)
(0.998368 -0.169098 0)
(0.968245 -0.176277 0)
(0.928423 -0.172393 0)
(0.882958 -0.153324 0)
(0.838142 -0.114035 0)
(0.806385 -0.0537763 2.98187e-23)
(0.799284 0.0182998 0)
(0.819814 0.0862051 -2.98195e-23)
(0.859762 0.136496 0)
(0.906346 0.164896 0)
(0.948811 0.176613 0)
(0.983935 0.173684 0)
(1.0096 0.163658 0)
(1.03718 0.152625 0)
(1.0473 0.135593 0)
(1.0531 0.119152 0)
(1.05588 0.103775 0)
(1.05667 0.0895422 0)
(1.0562 0.0763914 0)
(1.05502 0.0642201 0)
(1.05351 0.0529058 0)
(1.05197 0.0423148 0)
(1.05058 0.0323091 0)
(1.0495 0.022752 0)
(1.04884 0.0135144 0)
(1.04867 0.0044824 0)
(1.06143 -0.00482487 0)
(1.06184 -0.0145598 0)
(1.06289 -0.0245553 0)
(1.06456 -0.0349553 0)
(1.06675 -0.0459292 0)
(1.06933 -0.0576693 0)
(1.0721 -0.0703902 0)
(1.0748 -0.0843323 0)
(1.07703 -0.099768 0)
(1.07825 -0.117015 0)
(1.07765 -0.136456 0)
(1.07409 -0.158479 0)
(1.06579 -0.183199 0)
(1.04486 -0.195092 0)
(1.0204 -0.219473 0)
(0.980528 -0.242413 0)
(0.929481 -0.243096 0)
(0.858064 -0.235047 0)
(0.776339 -0.19223 4.77364e-23)
(0.707979 -0.104427 0)
(0.685285 0.0156501 -2.80219e-23)
(0.721574 0.130577 0)
(0.796265 0.207227 -3.60616e-22)
(0.877098 0.239875 0)
(0.94441 0.241938 0)
(1.00277 0.231438 0)
(1.03433 0.207285 0)
(1.06579 0.183199 0)
(1.07409 0.15848 0)
(1.07765 0.136457 0)
(1.07825 0.117015 0)
(1.07703 0.0997683 0)
(1.0748 0.0843327 0)
(1.0721 0.0703905 0)
(1.06933 0.0576695 0)
(1.06675 0.0459294 0)
(1.06456 0.0349554 0)
(1.06289 0.0245554 0)
(1.06184 0.0145598 0)
(1.06143 0.00482489 0)
(1.07497 -0.00502915 0)
(1.07566 -0.0151864 0)
(1.07719 -0.0256458 0)
(1.07959 -0.0365727 0)
(1.08277 -0.0481677 0)
(1.08667 -0.0606679 0)
(1.09112 -0.0743538 0)
(1.09592 -0.0895624 0)
(1.10077 -0.106708 0)
(1.10522 -0.126317 0)
(1.1086 -0.149089 0)
(1.10994 -0.175983 0)
(1.10764 -0.208298 0)
(1.08713 -0.231381 0)
(1.06704 -0.271886 0)
(1.02445 -0.304983 0)
(0.958248 -0.339207 0)
(0.849907 -0.364065 0)
(0.693373 -0.335671 1.88774e-22)
(0.529756 -0.207097 0)
(0.461538 0.0149918 4.14139e-22)
(0.547397 0.22942 4.75413e-22)
(0.714911 0.343879 -1.76762e-22)
(0.86627 0.362889 0)
(0.977141 0.338156 0)
(1.05004 0.295165 0)
(1.07916 0.250513 0)
(1.10764 0.208299 0)
(1.10994 0.175984 0)
(1.1086 0.14909 0)
(1.10522 0.126317 0)
(1.10077 0.106709 0)
(1.09592 0.0895629 0)
(1.09112 0.0743541 0)
(1.08667 0.0606682 0)
(1.08277 0.0481679 0)
(1.07959 0.0365729 0)
(1.07719 0.025646 0)
(1.07566 0.0151865 0)
(1.07497 0.00502917 0)
(1.08888 -0.00507434 0)
(1.08987 -0.0153284 0)
(1.09195 -0.0259028 0)
(1.09514 -0.0369689 0)
(1.09946 -0.0487386 0)
(1.10485 -0.0614679 0)
(1.11126 -0.075468 0)
(1.1186 -0.0911258 0)
(1.12672 -0.108934 0)
(1.1354 -0.129529 0)
(1.14432 -0.153761 0)
(1.15303 -0.182892 0)
(1.16067 -0.219183 0)
(1.14678 -0.253416 0)
(1.14095 -0.305276 0)
(1.10602 -0.361554 0)
(1.03861 -0.428639 6.46622e-24)
(0.890276 -0.493514 -6.43709e-23)
(0.6072 -0.482691 -3.41024e-22)
(0.223108 -0.286319 -1.1568e-20)
(0.0578154 0.00862495 0)
(0.244305 0.304415 -2.56645e-21)
(0.63008 0.487874 3.58028e-22)
(0.915779 0.487481 2.04777e-23)
(1.06227 0.416456 -2.1149e-24)
(1.13125 0.337248 0)
(1.14576 0.277143 0)
(1.16067 0.219184 0)
(1.15303 0.182893 0)
(1.14432 0.153762 0)
(1.1354 0.12953 0)
(1.12672 0.108935 0)
(1.1186 0.0911262 0)
(1.11126 0.0754684 0)
(1.10485 0.0614683 0)
(1.09946 0.0487388 0)
(1.09515 0.0369691 0)
(1.09195 0.025903 0)
(1.08987 0.0153285 0)
(1.08888 0.00507437 0)
(1.10269 -0.00495276 0)
(1.104 -0.0149607 0)
(1.10662 -0.0252773 0)
(1.11063 -0.0360606 0)
(1.11608 -0.0475071 0)
(1.12299 -0.0598548 0)
(1.13141 -0.0733923 0)
(1.14137 -0.088477 0)
(1.15292 -0.105559 0)
(1.16611 -0.125192 0)
(1.18101 -0.148037 0)
(1.19754 -0.17497 0)
(1.21506 -0.207675 0)
(1.21185 -0.245697 0)
(1.21921 -0.288488 0)
(1.19471 -0.338991 0)
(1.11939 -0.378669 -1.75197e-23)
(0.897347 -0.364876 1.33854e-22)
(0.257765 -0.135071 -4.13058e-21)
(0.320206 0.163402 9.9086e-22)
(0.927296 0.362747 2.35915e-23)
(1.14421 0.365391 0)
(1.21435 0.311902 0)
(1.21749 0.265564 0)
(1.21507 0.207676 0)
(1.19754 0.174971 0)
(1.18101 0.148038 0)
(1.16611 0.125193 0)
(1.15292 0.10556 0)
(1.14137 0.0884775 0)
(1.13141 0.0733927 0)
(1.12299 0.0598552 0)
(1.11608 0.0475074 0)
(1.11063 0.0360608 0)
(1.10662 0.0252775 0)
(1.104 0.0149608 0)
(1.10269 0.00495279 0)
(1.11596 -0.00467346 0)
(1.11756 -0.0141103 0)
(1.12067 -0.0238143 0)
(1.12541 -0.0339117 0)
(1.13186 -0.0445577 0)
(1.14012 -0.0559357 0)
(1.15029 -0.0682595 0)
(1.16249 -0.0817774 0)
(1.1769 -0.0967717 0)
(1.1937 -0.113518 0)
(1.21296 -0.132182 0)
(1.23416 -0.152703 0)
(1.2549 -0.174691 0)
(1.25798 -0.204244 0)
(1.2556 -0.217229 0)
(1.21034 -0.225008 0)
(1.06608 -0.1843 0)
(0.70718 -0.0697637 2.59854e-22)
(0.011051 0.00207145 3.01261e-20)
(0.0348094 -0.00563863 -1.23131e-20)
(0.739562 0.0790547 0)
(1.10249 0.188059 0)
(1.23639 0.216523 0)
(1.26091 0.211557 0)
(1.2549 0.174693 0)
(1.23416 0.152705 0)
(1.21296 0.132183 0)
(1.1937 0.113519 0)
(1.1769 0.0967723 0)
(1.16249 0.0817779 0)
(1.15029 0.0682598 0)
(1.14012 0.055936 0)
(1.13187 0.0445579 0)
(1.12541 0.0339119 0)
(1.12067 0.0238144 0)
(1.11756 0.0141103 0)
(1.11596 0.00467349 0)
(1.12826 -0.00426241 0)
(1.1301 -0.0128572 0)
(1.13361 -0.0216557 0)
(1.13892 -0.0307409 0)
(1.14614 -0.040211 0)
(1.15538 -0.0501748 0)
(1.16678 -0.0607437 0)
(1.18049 -0.0720203 0)
(1.19663 -0.0840629 0)
(1.21524 -0.0967904 0)
(1.23581 -0.109786 0)
(1.25637 -0.121995 0)
(1.27116 -0.130983 0)
(1.26975 -0.145223 0)
(1.23544 -0.129489 0)
(1.14499 -0.101701 0)
(0.932244 -0.0331309 0)
(0.545396 0.0515743 4.05171e-24)
(0.144748 0.0525539 0)
(0.165859 -0.0560275 1.12561e-21)
(0.600084 -0.043602 0)
(0.980913 0.0440871 0)
(1.1899 0.110804 0)
(1.2598 0.139681 0)
(1.27116 0.130984 0)
(1.25637 0.121996 0)
(1.23582 0.109786 0)
(1.21524 0.096791 0)
(1.19663 0.0840634 0)
(1.18049 0.0720207 0)
(1.16678 0.0607441 0)
(1.15538 0.050175 0)
(1.14614 0.0402113 0)
(1.13892 0.0307411 0)
(1.13361 0.0216558 0)
(1.1301 0.0128573 0)
(1.12826 0.00426244 0)
(1.13929 -0.00375751 0)
(1.1413 -0.0113189 0)
(1.14507 -0.0190102 0)
(1.15074 -0.026869 0)
(1.15842 -0.0349337 0)
(1.16822 -0.0432355 0)
(1.18024 -0.0517831 0)
(1.19455 -0.0605337 0)
(1.21109 -0.0693299 0)
(1.22943 -0.0777653 0)
(1.24807 -0.0849506 0)
(1.26308 -0.0891727 0)
(1.26551 -0.0870963 0)
(1.25247 -0.0877507 0)
(1.18432 -0.0573771 0)
(1.05939 -0.019518 0)
(0.829214 0.0349733 0)
(0.501092 0.0752465 -3.7555e-23)
(0.201904 0.0625562 -2.7379e-24)
(0.0375399 0.021636 -7.89711e-23)
(-0.000920206 -0.00045481 -2.65718e-23)
(0.0498892 -0.0262244 -1.23065e-21)
(0.233229 -0.0668485 -6.41952e-22)
(0.543306 -0.0728234 3.75555e-23)
(0.879242 -0.0264634 0)
(1.11843 0.0337298 0)
(1.22734 0.0748476 0)
(1.26551 0.0870964 0)
(1.26308 0.0891729 0)
(1.24807 0.0849509 0)
(1.22943 0.0777656 0)
(1.21109 0.0693302 0)
(1.19455 0.060534 0)
(1.18024 0.0517834 0)
(1.16822 0.0432358 0)
(1.15842 0.0349339 0)
(1.15074 0.0268692 0)
(1.14507 0.0190103 0)
(1.1413 0.0113189 0)
(1.13929 0.00375753 0)
(1.14882 -0.00320096 0)
(1.15093 -0.00962558 0)
(1.15484 -0.016108 0)
(1.16067 -0.0226458 0)
(1.16851 -0.029225 0)
(1.17845 -0.0358116 0)
(1.1905 -0.0423303 0)
(1.2046 -0.0486262 0)
(1.2204 -0.0543868 0)
(1.23687 -0.0590034 0)
(1.25152 -0.0613599 0)
(1.25889 -0.0594932 0)
(1.24832 -0.0494999 0)
(1.22027 -0.0414651 0)
(1.12831 -0.00846128 0)
(0.95444 0.0365737 0)
(0.748197 0.0676031 0)
(0.472513 0.0847147 0)
(0.233375 0.0694495 3.27285e-23)
(0.0850277 0.0342624 -1.33721e-22)
(0.0445671 -0.00489529 0)
(0.112112 -0.0438627 0)
(0.286137 -0.075892 -5.87045e-22)
(0.540735 -0.0835077 0)
(0.814529 -0.0592385 0)
(1.05248 -0.0131032 0)
(1.18416 0.026552 0)
(1.24832 0.0494996 0)
(1.25889 0.0594932 0)
(1.25152 0.06136 0)
(1.23687 0.0590036 0)
(1.2204 0.054387 0)
(1.2046 0.0486264 0)
(1.1905 0.0423305 0)
(1.17845 0.0358117 0)
(1.16851 0.0292252 0)
(1.16067 0.0226459 0)
(1.15484 0.0161081 0)
(1.15093 0.00962563 0)
(1.14882 0.00320098 0)
(1.15679 -0.00263199 0)
(1.15892 -0.00789773 0)
(1.16285 -0.0131588 0)
(1.16866 -0.0183816 0)
(1.17641 -0.0235122 0)
(1.18614 -0.0284667 0)
(1.19777 -0.033108 0)
(1.21104 -0.0371998 0)
(1.22527 -0.0403231 0)
(1.23882 -0.0417307 0)
(1.24822 -0.040137 0)
(1.24658 -0.0334989 0)
(1.22149 -0.0192043 0)
(1.15268 0.00584448 0)
(1.07506 0.0240777 0)
(0.903955 0.0588741 0)
(0.712947 0.0799326 0)
(0.475788 0.0867266 0)
(0.270511 0.0701994 0)
(0.138467 0.0362303 0)
(0.101015 -0.0052997 6.89194e-24)
(0.16311 -0.0458042 -2.24714e-22)
(0.316242 -0.0763379 0)
(0.534076 -0.0871994 0)
(0.796496 -0.0731478 0)
(0.997946 -0.0419109 0)
(1.15267 -0.00584525 0)
(1.22149 0.0192039 0)
(1.24658 0.0334988 0)
(1.24822 0.040137 0)
(1.23882 0.0417308 0)
(1.22527 0.0403232 0)
(1.21104 0.0371999 0)
(1.19777 0.0331081 0)
(1.18614 0.0284669 0)
(1.17642 0.0235123 0)
(1.16866 0.0183816 0)
(1.16285 0.0131589 0)
(1.15892 0.00789776 0)
(1.15679 0.002632 0)
(1.16319 -0.00208226 0)
(1.16529 -0.00623176 0)
(1.16914 -0.0103276 0)
(1.1748 -0.0143144 0)
(1.18228 -0.0181106 0)
(1.19155 -0.0215985 0)
(1.20242 -0.0245983 0)
(1.21443 -0.0268216 0)
(1.22653 -0.0277896 0)
(1.23654 -0.0267116 0)
(1.24018 -0.0223502 0)
(1.22983 -0.0130118 0)
(1.19349 0.00297206 0)
(1.11638 0.026255 0)
(1.03203 0.0436249 0)
(0.867803 0.0695729 0)
(0.693933 0.0839601 0)
(0.485163 0.0847457 0)
(0.306457 0.0670255 0)
(0.190698 0.0346037 0)
(0.15758 -0.00507327 0)
(0.212407 -0.0437062 0)
(0.346312 -0.0730758 0)
(0.536041 -0.0862816 0)
(0.769881 -0.0794021 0)
(0.956145 -0.0571766 0)
(1.11638 -0.0262557 0)
(1.19349 -0.00297253 0)
(1.22983 0.0130116 0)
(1.24018 0.0223501 0)
(1.23654 0.0267116 0)
(1.22654 0.0277897 0)
(1.21443 0.0268216 0)
(1.20242 0.0245984 0)
(1.19155 0.0215985 0)
(1.18228 0.0181107 0)
(1.1748 0.0143144 0)
(1.16915 0.0103276 0)
(1.16529 0.00623179 0)
(1.16319 0.00208227 0)
(1.16813 -0.00157443 0)
(1.17016 -0.0046961 0)
(1.17387 -0.0077292 0)
(1.17927 -0.0106053 0)
(1.18635 -0.013226 0)
(1.19498 -0.0154528 0)
(1.20488 -0.0170814 0)
(1.21536 -0.0177958 0)
(1.22505 -0.0170986 0)
(1.2313 -0.0142261 0)
(1.22935 -0.00809776 0)
(1.21151 0.00256462 0)
(1.16708 0.0186922 0)
(1.08489 0.0398531 0)
(0.998192 0.0549912 0)
(0.842219 0.0741029 0)
(0.683702 0.0834946 0)
(0.498349 0.0805586 0)
(0.341281 0.0623888 0)
(0.239663 0.0319743 0)
(0.210553 -0.00468164 0)
(0.258732 -0.0404274 0)
(0.376261 -0.0682653 0)
(0.543258 -0.0827266 0)
(0.752736 -0.0806529 0)
(0.924847 -0.0652014 0)
(1.08489 -0.0398537 0)
(1.16708 -0.0186927 0)
(1.21151 -0.00256491 0)
(1.22935 0.00809761 0)
(1.2313 0.014226 0)
(1.22505 0.0170986 0)
(1.21536 0.0177959 0)
(1.20488 0.0170815 0)
(1.19498 0.0154529 0)
(1.18635 0.013226 0)
(1.17927 0.0106053 0)
(1.17387 0.00772923 0)
(1.17016 0.00469612 0)
(1.16813 0.00157444 0)
(1.17175 -0.00112244 0)
(1.17368 -0.00333223 0)
(1.1772 -0.00543133 0)
(1.18229 -0.0073446 0)
(1.18888 -0.00896517 0)
(1.19679 -0.0101435 0)
(1.20558 -0.0106625 0)
(1.2144 -0.0101958 0)
(1.22157 -0.00825181 0)
(1.22412 -0.00412636 0)
(1.21706 0.00307487 0)
(1.19302 0.0142333 0)
(1.14269 0.0297 0)
(1.05759 0.0484449 0)
(0.971744 0.0612199 0)
(0.824685 0.0750819 0)
(0.679526 0.0807573 0)
(0.513676 0.0754392 0)
(0.374505 0.0574169 0)
(0.284772 0.0291964 0)
(0.259087 -0.0042671 0)
(0.301602 -0.0369632 0)
(0.405435 -0.0630304 0)
(0.55365 -0.0779712 0)
(0.742569 -0.0792024 0)
(0.90182 -0.0688314 0)
(1.05759 -0.0484454 0)
(1.14269 -0.0297004 0)
(1.19302 -0.0142336 0)
(1.21706 -0.00307505 0)
(1.22412 0.00412627 0)
(1.22157 0.00825178 0)
(1.2144 0.0101958 0)
(1.20558 0.0106625 0)
(1.19679 0.0101435 0)
(1.18888 0.0089652 0)
(1.18229 0.00734463 0)
(1.1772 0.00543135 0)
(1.17368 0.00333224 0)
(1.17175 0.00112245 0)
(1.17421 -0.000732763 0)
(1.17602 -0.00215884 0)
(1.17933 -0.00346239 0)
(1.18408 -0.004566 0)
(1.19015 -0.00535974 0)
(1.19727 -0.00568966 0)
(1.20491 -0.00533474 0)
(1.21203 -0.00397125 0)
(1.21671 -0.00113337 0)
(1.21577 0.00380007 0)
(1.20422 0.0115212 0)
(1.17525 0.0225157 0)
(1.12116 0.0366112 0)
(1.03614 0.0532207 0)
(0.950939 0.0641053 0)
(0.813569 0.0735433 0)
(0.679077 0.0771072 0)
(0.529863 0.0701991 0)
(0.405664 0.0526664 0)
(0.325968 0.0266009 0)
(0.303273 -0.00387177 -3.18924e-33)
(0.341136 -0.0336988 0)
(0.433617 -0.0579614 0)
(0.566223 -0.0729257 0)
(0.737754 -0.0761379 0)
(0.88611 -0.0695863 0)
(1.03614 -0.0532211 0)
(1.12116 -0.0366115 0)
(1.17525 -0.022516 0)
(1.20422 -0.0115214 0)
(1.21577 -0.00380017 0)
(1.21671 0.00113332 0)
(1.21203 0.00397124 0)
(1.20492 0.00533474 0)
(1.19727 0.00568968 0)
(1.19015 0.00535976 0)
(1.18408 0.00456602 0)
(1.17933 0.0034624 0)
(1.17602 0.00215885 0)
(1.17421 0.000732766 0)
(1.17569 -0.00040619 0)
(1.17738 -0.00117747 0)
(1.18047 -0.00182192 0)
(1.18486 -0.00226258 0)
(1.19039 -0.00238989 0)
(1.19673 -0.00204996 0)
(1.20321 -0.00102392 0)
(1.20863 0.000999811 0)
(1.21094 0.00444768 0)
(1.20681 0.00984611 0)
(1.19143 0.0177105 0)
(1.1586 0.0282786 0)
(1.10193 0.0411348 0)
(1.01692 0.0549434 0)
(0.902247 0.0669476 0)
(0.803409 0.0718692 0)
(0.665163 0.0716876 0)
(0.533279 0.0628703 0)
(0.427366 0.0451601 0)
(0.362984 0.0206927 0)
(0.349746 -0.0069525 9.07073e-34)
(0.389636 -0.0335216 0)
(0.476683 -0.054989 0)
(0.597973 -0.0684238 0)
(0.735826 -0.0725865 0)
(0.902244 -0.0669478 0)
(1.01692 -0.0549437 0)
(1.10192 -0.0411351 0)
(1.1586 -0.0282788 0)
(1.19142 -0.0177107 0)
(1.20681 -0.00984622 0)
(1.21094 -0.00444774 0)
(1.20864 -0.000999833 0)
(1.20321 0.00102392 0)
(1.19673 0.00204997 0)
(1.19039 0.0023899 0)
(1.18486 0.00226259 0)
(1.18047 0.00182193 0)
(1.17738 0.00117747 0)
(1.17569 0.000406192 0)
(1.17637 -0.000139562 0)
(1.17793 -0.000377782 0)
(1.1808 -0.00048991 0)
(1.18484 -0.00040071 0)
(1.18984 -2.83572e-06 0)
(1.19539 0.000854941 0)
(1.20073 0.00238552 0)
(1.20454 0.00488309 0)
(1.20462 0.00872984 0)
(1.19766 0.0143603 0)
(1.17905 0.0221388 0)
(1.14327 0.0321163 0)
(1.085 0.0437126 0)
(1.00107 0.0554859 0)
(0.892605 0.0648192 0)
(0.768828 0.0684401 0)
(0.642964 0.0649123 0)
(0.529905 0.0537657 0)
(0.44446 0.0355813 0)
(0.39849 0.0124523 -1.64872e-33)
(0.398489 -0.0124515 1.64872e-33)
(0.444457 -0.0355806 0)
(0.529902 -0.0537651 0)
(0.64296 -0.064912 0)
(0.768824 -0.0684401 0)
(0.892602 -0.0648193 0)
(1.00106 -0.0554861 0)
(1.085 -0.0437128 0)
(1.14326 -0.0321165 0)
(1.17905 -0.022139 0)
(1.19766 -0.0143604 0)
(1.20462 -0.0087299 0)
(1.20454 -0.00488312 0)
(1.20073 -0.00238553 0)
(1.19539 -0.000854939 0)
(1.18984 2.8422e-06 0)
(1.18484 0.000400717 0)
(1.1808 0.000489917 0)
(1.17793 0.000377787 0)
(1.17637 0.000139564 0)
(1.17639 7.27354e-05 0)
(1.17784 0.000257785 0)
(1.18049 0.000565299 0)
(1.18419 0.00106841 0)
(1.18867 0.00187153 0)
(1.19346 0.00312183 0)
(1.1977 0.00502385 0)
(1.19997 0.00785135 0)
(1.19801 0.0119412 0)
(1.18854 0.0176429 0)
(1.16725 0.0251929 0)
(1.12925 0.0344986 0)
(1.07021 0.0448809 0)
(0.988092 0.0548969 0)
(0.885109 0.062265 0)
(0.769395 0.0645487 0)
(0.653081 0.0604418 0)
(0.549641 0.0495746 0)
(0.472046 0.0325982 0)
(0.430474 0.0113727 -1.83365e-34)
(0.430473 -0.0113719 1.83365e-34)
(0.472044 -0.0325974 0)
(0.549639 -0.049574 0)
(0.653078 -0.0604414 0)
(0.769392 -0.0645485 0)
(0.885106 -0.0622651 0)
(0.988089 -0.054897 0)
(1.07021 -0.0448811 0)
(1.12925 -0.0344988 0)
(1.16725 -0.0251931 0)
(1.18854 -0.017643 0)
(1.19801 -0.0119412 0)
(1.19997 -0.00785138 0)
(1.1977 -0.00502386 0)
(1.19346 -0.00312184 0)
(1.18867 -0.00187153 0)
(1.18419 -0.0010684 0)
(1.18049 -0.000565295 0)
(1.17784 -0.000257783 0)
(1.17639 -7.27344e-05 0)
(1.17591 0.000237561 0)
(1.17724 0.000750374 0)
(1.17968 0.00138071 0)
(1.18305 0.00219976 0)
(1.18703 0.00330893 0)
(1.19108 0.00485056 0)
(1.19428 0.00701924 0)
(1.19511 0.0100666 0)
(1.19128 0.0142851 0)
(1.17962 0.0199482 0)
(1.15612 0.0271874 0)
(1.1165 0.0358046 0)
(1.0573 0.0450693 0)
(0.977391 0.0536069 0)
(0.879534 0.0594724 0)
(0.771232 0.0607403 0)
(0.663373 0.0562594 0)
(0.56813 0.0457517 0)
(0.497044 0.0299095 0)
(0.459069 0.0104042 0)
(0.459069 -0.0104033 0)
(0.497043 -0.0299087 0)
(0.568128 -0.0457511 0)
(0.66337 -0.056259 0)
(0.771229 -0.0607401 0)
(0.879531 -0.0594723 0)
(0.977389 -0.053607 0)
(1.0573 -0.0450695 0)
(1.1165 -0.0358047 0)
(1.15612 -0.0271875 0)
(1.17962 -0.0199482 0)
(1.19128 -0.0142851 0)
(1.19511 -0.0100667 0)
(1.19428 -0.00701926 0)
(1.19109 -0.00485057 0)
(1.18703 -0.00330893 0)
(1.18305 -0.00219976 0)
(1.17968 -0.00138071 0)
(1.17724 -0.000750373 0)
(1.17592 -0.00023756 0)
(1.17505 0.000362144 0)
(1.17627 0.00112208 0)
(1.1785 0.00199435 0)
(1.18155 0.00304868 0)
(1.18505 0.00438361 0)
(1.1884 0.00613627 0)
(1.19059 0.00849033 0)
(1.19007 0.0116746 0)
(1.18456 0.0159392 0)
(1.17098 0.0214909 0)
(1.14568 0.0283769 0)
(1.10495 0.0363243 0)
(1.04603 0.0445862 0)
(0.968512 0.0518872 0)
(0.875454 0.0565651 0)
(0.773841 0.0570383 0)
(0.673529 0.0523273 0)
(0.585513 0.0422478 0)
(0.520109 0.0274858 0)
(0.485259 0.00953821 0)
(0.485258 -0.00953734 0)
(0.520108 -0.027485 0)
(0.58551 -0.0422471 0)
(0.673527 -0.0523268 0)
(0.773838 -0.057038 0)
(0.875452 -0.056565 0)
(0.96851 -0.0518872 0)
(1.04603 -0.0445863 0)
(1.10495 -0.0363244 0)
(1.14568 -0.028377 0)
(1.17098 -0.0214909 0)
(1.18456 -0.0159392 0)
(1.19007 -0.0116747 0)
(1.19059 -0.00849035 0)
(1.1884 -0.00613629 0)
(1.18505 -0.00438361 0)
(1.18155 -0.00304868 0)
(1.17851 -0.00199436 0)
(1.17627 -0.00112208 0)
(1.17505 -0.000362144 0)
(1.17389 0.000453521 0)
(1.17501 0.00139426 0)
(1.17705 0.00244262 0)
(1.17979 0.0036673 0)
(1.18282 0.00516431 0)
(1.18549 0.00706537 0)
(1.18673 0.00954262 0)
(1.18496 0.0128021 0)
(1.17792 0.0170543 0)
(1.1627 0.0224482 0)
(1.13595 0.028964 0)
(1.09448 0.0362782 0)
(1.03617 0.0436513 0)
(0.961116 0.0499156 0)
(0.872553 0.0536393 0)
(0.777013 0.0535008 0)
(0.683479 0.0486817 0)
(0.601887 0.0390699 0)
(0.541494 0.0253188 0)
(0.509385 0.00876925 -2.63868e-34)
(0.509384 -0.00876837 2.63868e-34)
(0.541493 -0.025318 0)
(0.601885 -0.0390692 0)
(0.683476 -0.0486812 0)
(0.77701 -0.0535004 0)
(0.87255 -0.0536392 0)
(0.961114 -0.0499155 0)
(1.03616 -0.0436513 0)
(1.09447 -0.0362783 0)
(1.13595 -0.0289641 0)
(1.1627 -0.0224483 0)
(1.17792 -0.0170544 0)
(1.18496 -0.0128022 0)
(1.18673 -0.00954265 0)
(1.18549 -0.00706539 0)
(1.18282 -0.00516432 0)
(1.17979 -0.00366731 0)
(1.17705 -0.00244263 0)
(1.17501 -0.00139426 0)
(1.17389 -0.000453522 0)
(1.17253 0.000518193 0)
(1.17355 0.00158659 0)
(1.1754 0.00275868 0)
(1.17784 0.00410265 0)
(1.18042 0.00571223 0)
(1.18243 0.00771359 0)
(1.18278 0.0102671 0)
(1.17985 0.0135564 0)
(1.17143 0.0177556 0)
(1.15479 0.0229639 0)
(1.12688 0.0291088 0)
(1.08499 0.0358351 0)
(1.0275 0.0424256 0)
(0.954941 0.0478181 0)
(0.870587 0.0507707 0)
(0.780583 0.0501667 0)
(0.693148 0.0453267 0)
(0.617284 0.0361925 0)
(0.561326 0.0233768 0)
(0.531634 0.00808351 0)
(0.531633 -0.00808262 0)
(0.561325 -0.023376 0)
(0.617282 -0.0361919 0)
(0.693145 -0.0453262 0)
(0.780581 -0.0501664 0)
(0.870585 -0.0507705 0)
(0.954939 -0.0478181 0)
(1.0275 -0.0424256 0)
(1.08499 -0.0358352 0)
(1.12688 -0.0291089 0)
(1.15479 -0.022964 0)
(1.17143 -0.0177556 0)
(1.17985 -0.0135565 0)
(1.18278 -0.0102671 0)
(1.18243 -0.00771362 0)
(1.18042 -0.00571225 0)
(1.17784 -0.00410266 0)
(1.17541 -0.00275869 0)
(1.17355 -0.0015866 0)
(1.17253 -0.000518195 0)
(1.17102 0.000561947 0)
(1.17195 0.00171649 0)
(1.17362 0.00297175 0)
(1.17576 0.00439575 0)
(1.1779 0.00608017 0)
(1.17929 0.00814551 0)
(1.17878 0.0107402 0)
(1.17477 0.0140264 0)
(1.16513 0.018145 0)
(1.14726 0.0231528 0)
(1.11845 0.0289366 0)
(1.07638 0.0351231 0)
(1.01988 0.0410262 0)
(0.949776 0.0456826 0)
(0.869364 0.0480079 0)
(0.784417 0.0470513 0)
(0.702483 0.0422493 0)
(0.631744 0.0335853 0)
(0.579735 0.0216304 0)
(0.552187 0.00746911 0)
(0.552187 -0.00746823 0)
(0.579734 -0.0216296 0)
(0.631743 -0.0335846 0)
(0.702481 -0.0422487 0)
(0.784415 -0.0470509 0)
(0.869362 -0.0480077 0)
(0.949774 -0.0456825 0)
(1.01988 -0.0410263 0)
(1.07638 -0.0351232 0)
(1.11845 -0.0289367 0)
(1.14726 -0.0231529 0)
(1.16513 -0.0181451 0)
(1.17477 -0.0140265 0)
(1.17878 -0.0107402 0)
(1.17929 -0.00814555 0)
(1.1779 -0.0060802 0)
(1.17577 -0.00439578 0)
(1.17362 -0.00297176 0)
(1.17195 -0.0017165 0)
(1.17103 -0.00056195 0)
(1.16943 0.000589787 0)
(1.17026 0.00179898 0)
(1.17175 0.00310684 0)
(1.17361 0.00458149 0)
(1.17531 0.00631264 0)
(1.17609 0.00841504 0)
(1.17478 0.0110252 0)
(1.16977 0.0142849 0)
(1.15902 0.0183048 0)
(1.14011 0.0231059 0)
(1.11061 0.0285441 0)
(1.06856 0.0342381 0)
(1.01316 0.0395373 0)
(0.945453 0.0435685 0)
(0.868729 0.0453801 0)
(0.788415 0.0441575 0)
(0.711461 0.0394331 0)
(0.645328 0.0312226 0)
(0.596852 0.0200573 0)
(0.571219 0.00691725 0)
(0.571218 -0.00691641 0)
(0.596851 -0.0200566 0)
(0.645327 -0.0312219 0)
(0.711459 -0.0394326 0)
(0.788413 -0.0441571 0)
(0.868728 -0.0453799 0)
(0.945451 -0.0435684 0)
(1.01315 -0.0395373 0)
(1.06855 -0.0342382 0)
(1.11061 -0.0285442 0)
(1.14011 -0.023106 0)
(1.15902 -0.0183049 0)
(1.16977 -0.014285 0)
(1.17478 -0.0110253 0)
(1.17609 -0.0084151 0)
(1.17531 -0.00631268 0)
(1.17361 -0.00458153 0)
(1.17175 -0.00310687 0)
(1.17026 -0.001799 0)
(1.16943 -0.000589792 0)
(1.16777 0.000605943 0)
(1.16852 0.00184673 0)
(1.16983 0.00318495 0)
(1.1714 0.00468895 0)
(1.17268 0.00644646 0)
(1.17287 0.00856641 0)
(1.17079 0.0111736 0)
(1.16487 0.0143902 0)
(1.15313 0.0183002 0)
(1.13334 0.0228944 0)
(1.10332 0.0280054 0)
(1.06144 0.0332514 0)
(1.0072 0.038019 0)
(0.941835 0.0415162 0)
(0.868564 0.0429044 0)
(0.792504 0.041482 0)
(0.720073 0.0368611 0)
(0.658097 0.0290819 0)
(0.612796 0.018639 0)
(0.58888 0.00642084 0)
(0.58888 -0.00642005 0)
(0.612795 -0.0186383 0)
(0.658095 -0.0290813 0)
(0.720072 -0.0368606 0)
(0.792502 -0.0414817 0)
(0.868563 -0.0429042 0)
(0.941834 -0.0415161 0)
(1.0072 -0.038019 0)
(1.06143 -0.0332515 0)
(1.10332 -0.0280056 0)
(1.13334 -0.0228945 0)
(1.15313 -0.0183004 0)
(1.16487 -0.0143904 0)
(1.1708 -0.0111737 0)
(1.17287 -0.0085665 0)
(1.17268 -0.00644652 0)
(1.1714 -0.004689 0)
(1.16983 -0.00318498 0)
(1.16852 -0.00184675 0)
(1.16777 -0.000605949 0)
(1.16609 0.000613923 0)
(1.16674 0.00187022 0)
(1.16788 0.00322335 0)
(1.16917 0.00474191 0)
(1.17004 0.00651159 0)
(1.16966 0.0086354 0)
(1.16685 0.0112266 0)
(1.16008 0.0143892 0)
(1.14746 0.018183 0)
(1.12692 0.0225738 0)
(1.09653 0.0273773 0)
(1.05494 0.032216 0)
(1.00192 0.036514 0)
(0.938812 0.0395523 0)
(0.868776 0.0405891 0)
(0.796632 0.0390175 0)
(0.728324 0.0345157 0)
(0.670111 0.0271426 0)
(0.627675 0.0173593 0)
(0.605306 0.00597378 0)
(0.605306 -0.0059731 0)
(0.627675 -0.0173587 0)
(0.67011 -0.0271421 0)
(0.728322 -0.0345153 0)
(0.79663 -0.0390172 0)
(0.868775 -0.040589 0)
(0.938811 -0.0395523 0)
(1.00192 -0.0365141 0)
(1.05494 -0.0322161 0)