/*--------------------------------*- C++ -*----------------------------------*\
  =========                 |
  \\      /  F ield         | OpenFOAM: The Open Source CFD Toolbox
   \\    /   O peration     | Website:  https://openfoam.org
    \\  /    A nd           | Version:  6
     \\/     M anipulation  |
\*---------------------------------------------------------------------------*/
FoamFile
{
    version     2.0;
    format      ascii;
    class       volScalarField;
    location    "0";
    object      p;
}
// * * * * * * * * * * * * * * * * * * * * * * * * * * * * * * * * * * * * * //

dimensions      [0 2 -2 0 0 0 0];

internalField   nonuniform List<scalar> 
13046
(
0.150021
0.133528
0.163237
0.153667
0.160143
0.136114
0.143862
0.139002
0.164602
0.0762512
-0.0257815
0.150212
0.147239
0.111929
0.159721
0.0959042
0.149661
-0.00790457
0.164126
0.152427
0.14552
0.0929694
0.151186
-0.0108805
0.150572
0.148458
0.157827
0.141788
0.114902
0.162424
0.155706
0.120399
0.157505
0.155998
0.160572
0.144137
0.153771
0.161839
0.148945
0.156098
0.154427
0.122218
0.151243
0.162892
0.154518
0.152458
0.156024
0.154426
0.144756
0.132137
0.164238
0.133189
0.158007
0.105941
0.140582
0.0999564
0.1612
0.0474962
0.133092
0.150033
0.123174
0.100955
0.160633
0.153699
0.030956
0.104099
0.137292
0.05301
0.146387
0.141427
0.0589876
0.146235
0.0362019
0.12971
0.150005
0.1647
0.1607
0.13795
0.15333
0.119724
0.0306786
0.148135
0.144829
0.15762
0.152517
0.0190136
0.0967414
0.0921015
0.155964
0.0438424
0.154953
0.0747223
0.0441827
0.128766
0.122874
0.0816741
0.0744208
0.156671
0.158881
0.157341
0.0905573
0.0516468
0.153654
0.158921
0.150614
0.165257
0.110499
0.142112
0.157222
0.149314
0.115227
0.0480213
0.147551
-0.0754591
0.148461
0.121358
0.157261
0.125435
0.128699
0.0626052
0.155266
0.076684
0.155227
0.0708655
-0.039357
0.149543
0.14046
0.0876367
0.161822
0.154518
0.154559
0.120517
0.155192
0.0781593
0.0594272
0.114036
0.0604263
0.156993
0.153564
0.116009
0.155854
0.131698
0.13706
0.161271
0.155612
0.140953
0.118139
0.163709
0.119662
0.148415
0.123872
0.0895816
0.159736
0.167833
0.12962
0.14339
0.122705
0.102036
0.115768
0.101526
0.16098
0.161476
0.13312
0.122848
0.15964
0.0724107
0.150773
-0.0221894
0.058516
0.147929
-0.063543
0.112299
0.0506568
0.156737
0.156142
0.0980957
0.153222
0.133133
0.159315
0.128701
0.153383
-0.00231234
0.0740145
0.155612
0.107094
0.148507
0.167048
0.123634
0.139991
0.135481
0.136963
0.159794
0.10753
0.163927
0.140703
0.0993434
0.159075
0.0919522
0.153883
0.0261791
0.156917
0.087748
0.060701
0.0774361
0.0392072
0.153844
0.12934
0.0941289
0.15491
0.14071
0.121257
0.149814
0.0312959
0.0236393
0.0773531
0.153944
0.150213
0.16236
0.148775
0.144618
0.119105
0.160371
0.15773
0.0822075
0.0652486
0.137793
0.112898
0.165835
0.149762
-0.0462062
0.057262
0.155725
0.0948429
0.124448
0.0832443
0.0504083
0.155854
0.112697
0.120947
0.163467
0.137829
0.0934357
0.16241
0.0864478
0.0856702
0.15547
0.096844
0.108327
0.158763
0.149867
-0.0458975
0.0504798
0.160087
0.152271
0.105953
0.0600302
0.145402
-0.0974466
0.161019
0.14949
0.148277
0.119906
0.11826
0.117891
0.123357
0.164097
0.15976
0.148218
0.11556
0.0185443
0.142085
0.099806
0.157676
0.0967613
0.0936298
0.159485
0.11794
0.0621288
0.156217
0.154474
0.149082
0.162177
0.109001
0.113471
0.161408
0.143987
0.0901378
0.157276
0.139076
0.138541
0.161649
0.147029
0.097415
0.109332
0.104149
0.160538
0.110458
0.155844
0.0571692
0.163733
0.146539
0.113312
0.16131
0.0956128
0.117153
0.132282
0.0685173
0.152267
0.158632
0.135772
0.102015
0.126954
0.124735
0.0621951
0.152353
0.0574616
0.154959
0.153004
0.00461941
0.0790682
0.131375
0.0846015
0.157091
-0.117294
0.145734
0.0353413
0.143925
0.160064
0.138181
0.128419
0.107362
0.160659
0.155604
0.0973903
0.038672
0.13716
0.0942212
0.160439
0.0759087
0.08524
0.156224
0.128143
0.162224
0.125518
0.103091
0.1611
0.120911
0.163392
0.103524
0.150022
0.00403957
0.135078
0.0851483
0.156775
0.121447
0.0973732
0.159138
0.127737
0.130248
0.163944
0.113587
0.133783
0.161521
0.150928
0.131638
0.161938
0.15738
0.0988706
0.121896
0.0849433
0.0303509
0.154186
0.0803258
0.0842196
0.157978
0.143008
0.143634
0.075446
0.123442
0.126625
0.052575
0.0416011
0.148405
0.150412
0.145826
-0.107902
0.0427852
0.0651026
0.145877
-0.0900379
0.118247
0.113334
0.157867
0.152674
0.0906451
0.0141025
0.137257
0.135907
0.0728055
0.0643437
0.153327
0.151121
0.151344
0.00845087
0.0622447
0.055357
0.144795
-0.108322
0.143336
0.16142
0.157474
0.050446
-0.0907638
0.146654
0.152864
0.0970208
0.150372
0.0753558
0.00397243
0.153554
-0.10174
0.147792
0.0136713
0.157075
0.152185
0.127818
0.143189
0.15498
0.161114
0.0738794
0.149574
-0.0457301
0.139322
0.149661
0.16125
0.146406
0.160624
0.158591
0.159797
0.0869864
0.127003
0.13517
0.158807
0.161704
0.145386
0.138917
0.159065
0.146241
0.0803696
0.142651
0.151538
0.152664
-0.0109382
-0.0123719
0.0855217
0.0834153
0.0763486
0.0246589
0.153904
0.149185
0.143247
0.0625772
0.155127
0.146825
0.113096
0.0941413
0.104135
0.155659
-0.0659678
0.148347
0.0234067
0.15473
0.0733292
0.0348962
0.0614628
0.149011
-0.0506397
0.147277
-0.112975
0.0143279
-0.136318
0.145539
0.0289903
0.0944152
0.109578
0.157891
-0.0196693
0.149943
0.0451332
0.107082
0.060003
0.157561
0.090922
0.146204
-0.0372515
0.144298
0.16052
0.136054
0.0183872
0.152739
0.0670947
0.0947011
0.155812
0.108359
0.0894669
0.097364
0.160315
0.146642
-0.169435
-0.0031857
-0.0982024
0.147133
0.0254169
0.148168
0.162557
0.134456
0.00267664
0.0608758
0.152093
0.15209
0.0531026
0.000973342
0.0897924
0.152654
0.0139317
0.15028
0.02268
0.109875
0.150907
0.076256
0.144555
0.0536607
0.132184
0.15399
0.149337
0.107678
-0.00376516
0.148229
0.146639
0.10246
0.0950019
0.155463
0.157861
0.150675
0.105244
0.154409
0.142017
0.0669409
0.154434
0.0853221
0.0904822
0.158125
0.0184963
0.0769029
0.154893
0.156724
0.0939885
0.0721305
-0.137377
0.144828
0.0368078
0.158925
0.156334
0.158537
0.12318
0.161441
0.12773
0.148704
0.145176
0.150898
0.0769392
0.151557
0.0937909
-0.0981986
0.147048
0.0148665
0.00701286
0.0655558
0.152838
0.154243
0.139361
0.100972
0.0946349
0.0883664
0.156864
0.150324
0.0278719
0.114092
-0.0719145
0.0413181
0.148243
-0.0574538
0.0434029
0.148939
0.136239
0.0704877
0.156088
0.164073
0.141993
0.11933
0.0870746
0.151556
-0.000304376
0.0891568
0.102145
0.160371
0.156054
0.0396803
0.109538
0.147646
0.15226
0.0956444
0.115686
0.125091
0.161058
0.158049
0.151611
0.116693
0.151727
-0.00513278
0.080114
0.119293
0.0566349
0.155236
0.159189
0.154837
0.128131
0.101275
0.147586
-0.0163679
0.148582
0.119334
0.159645
0.137378
0.133667
0.16379
0.0970127
0.10304
0.159105
0.0744291
0.146519
-0.0679651
0.0798968
0.146232
-0.062826
0.154985
0.0345933
0.110503
0.109208
0.130811
0.159326
0.145357
-0.0842993
0.0657077
0.155923
0.0481059
0.102659
0.146598
-0.125706
0.00727841
0.0220074
-0.144427
0.145309
0.151022
0.00385001
0.107863
0.150878
-0.027494
0.0657493
0.0957721
0.0992434
0.149935
-0.00133091
0.151699
0.0129166
0.0972903
0.0545453
0.156756
0.160335
0.101451
0.0840291
0.158862
0.15787
0.130657
0.0995163
0.0656421
0.158182
0.158394
0.101131
0.0718907
0.11306
0.148858
0.00227415
0.147405
0.0696348
0.151155
0.149397
0.0923933
0.147796
0.111334
0.0895603
0.160957
0.108775
0.0857788
0.160502
0.159671
0.149157
0.134661
0.14699
0.0882518
0.160392
0.153687
0.022596
0.0628589
0.0377489
0.149146
-0.0549546
0.0303099
0.149399
-0.0520662
0.154338
0.155128
0.112941
-0.0817598
0.147801
0.0316026
0.11625
0.154734
0.0420139
0.14819
-0.0767332
0.021742
0.152828
0.160643
0.140891
0.137329
0.108719
0.160916
0.131156
0.108948
0.159859
0.15056
-0.0132665
0.0520666
0.086292
0.103708
0.159493
0.147466
0.0966056
-0.0219148
0.129994
0.102858
0.162801
0.159496
0.160022
0.133106
-0.0137942
0.0577889
0.151462
0.156034
0.0389822
0.103023
0.0712355
0.0652459
0.147206
0.146895
-0.0603232
-0.0712977
0.125322
0.121381
0.163593
0.100175
0.113275
0.157539
0.138919
0.137429
0.165803
-0.0381101
0.0438665
-0.0336074
0.15012
0.0433867
0.149665
0.122362
0.0793514
0.161011
0.0584285
0.0517385
-0.0215419
-0.0324876
0.151247
0.150171
0.110261
0.108347
0.163649
0.132778
0.118275
0.161795
0.0853781
0.147702
-0.0443443
0.132586
0.110981
0.161941
0.140226
0.126702
0.16187
0.0731977
0.146808
-0.0558732
0.134174
0.0868462
0.157074
0.118324
0.0861399
0.1575
0.150633
0.0853304
0.149062
0.0680185
0.155094
0.0765743
0.146328
-0.154606
0.00524527
0.128104
0.108759
0.160963
0.0890147
0.148517
-0.0247976
0.1401
0.0795952
0.153661
0.0353025
0.145087
-0.12052
0.163175
0.160287
0.141364
0.126826
0.14382
0.124996
0.141757
0.137432
0.163626
0.15821
0.1626
0.148331
0.130217
0.155749
0.125783
0.131228
0.121455
0.16548
0.134056
0.123819
0.16527
0.149332
-0.0453204
0.0327449
0.152419
0.11191
0.152019
0.0653977
-0.0168487
0.151686
0.111918
0.108599
0.0802535
0.0690442
0.158403
0.156794
0.149437
0.123577
0.155945
0.140439
0.0796841
0.151667
0.120506
0.0918815
0.162095
0.157786
0.144498
0.155403
0.105107
0.0717251
0.158573
0.156638
0.153466
0.134963
0.117236
0.104457
0.162821
0.138614
0.0878644
0.152155
0.157337
0.158299
0.139286
0.160633
0.140112
0.15764
0.159463
0.145761
0.163853
0.137625
0.160444
0.129199
0.148342
0.146188
0.108166
0.106327
0.158527
0.155723
0.151
0.025873
0.112256
0.156712
0.0923977
0.122331
0.152818
0.153461
0.0162671
0.0212587
0.106519
0.104316
0.157321
0.141191
0.0960681
0.156747
0.157828
0.149773
0.10543
0.0631824
0.157731
0.15774
0.155664
0.118066
0.136743
0.0837968
0.153056
0.121745
0.121727
0.0372211
0.153355
0.0436384
0.153621
0.116853
0.0746506
0.158007
0.0416444
-0.109657
0.145677
0.1365
0.0870958
0.153747
0.15088
0.152366
0.141916
0.0830759
0.148685
0.087971
0.0966604
0.0792364
0.158166
0.14195
0.0867997
0.153447
0.157257
0.139011
0.0921405
0.149911
0.153663
0.144044
0.154714
0.102324
0.096337
0.150356
0.150151
0.092116
0.116625
0.0807782
0.159898
0.15822
0.153719
0.1373
0.0794641
0.148558
-0.0375173
0.156789
0.141765
0.0863183
0.139079
0.134753
0.0833331
0.0778962
0.152404
0.157193
0.149
-0.0247274
0.0853342
0.0854414
0.148439
-0.0379857
0.0795592
0.147736
-0.0448352
0.116949
0.153459
0.0375783
0.143923
0.0944026
0.154445
0.0115886
0.0137799
0.112339
0.0142234
0.0748839
-0.0471407
0.0415391
0.0311191
-0.0379769
0.0662537
0.0640654
-0.0544497
0.00440641
0.0669093
-0.0130592
-0.00344922
0.0161926
-0.013124
0.00691728
0.0424725
0.00476339
-0.013787
0.0752897
0.14536
0.118161
0.0189924
0.0829832
-0.0566891
0.0190474
-1.72225e-05
-0.0521531
0.036668
0.00642605
-0.00431544
-0.0461807
0.0126015
0.104126
0.0736194
0.0176053
0.0555539
-0.0223122
0.142615
-0.0357467
0.0658469
0.100777
-0.0304753
-0.0249462
-0.0388319
-0.0518972
-0.0390053
0.120989
0.00502094
-0.00179992
-0.0344479
-0.0500353
0.116298
0.044
0.00917673
-0.0427851
0.06104
-0.0413888
-0.0325203
0.118547
0.0376238
0.00687359
0.045606
0.0148823
0.139248
0.0746667
0.0863211
-0.0772842
-0.058041
-0.00274412
0.0535803
-0.0641694
-0.00550342
0.0261152
-0.0508808
0.057658
0.0923696
-0.0103453
-0.000717862
-0.0469761
-0.014831
-0.0351314
0.0635834
-0.034024
0.0101155
-0.0148269
0.123317
-0.00787977
0.0590003
0.117751
-0.0027585
0.00125662
-0.0838351
-0.0374773
-0.03771
0.00141531
-0.0796349
0.0362941
0.0780009
0.107604
0.140604
-0.00991036
0.0074667
-0.0549585
-0.000694049
-0.0366239
0.102368
0.0814358
0.0415087
-0.0335788
-0.0651257
0.0594954
0.0932689
-0.0205201
0.00997243
-0.0754651
-0.0166105
-0.00732382
0.130793
0.13451
0.0557217
0.0186186
0.00403906
-0.0535597
0.132869
-0.00292821
0.0516101
-0.0817199
0.120132
-0.0453421
-0.0176762
0.00421185
0.0908895
-0.0112423
-0.0929249
-0.0297874
0.0414014
-0.0055107
0.0646179
0.0585379
-0.0116146
0.0995373
-0.0331114
-0.0197689
0.0978041
-0.0305095
-0.0154647
-0.0530456
0.0299617
0.016024
0.094594
0.0587995
-0.0260458
0.0536308
0.0664053
0.109983
0.0265372
-0.00211379
-0.0125751
0.0778088
-0.00143843
0.0555907
-0.0509764
0.141985
-0.0159927
0.102956
0.130557
0.00950049
0.135587
0.0976993
0.10787
-0.0288715
-0.0831568
-0.0544361
0.112507
-0.0346457
-0.0401382
-0.00427159
-0.0382499
-0.0145736
-0.028313
0.014398
0.131004
0.0569409
-0.0241689
0.0613431
-0.0351257
0.141369
-0.0285086
0.0960221
-0.0158631
-0.0884698
0.121162
0.132626
-0.0189873
-0.0356782
0.141467
0.0207853
0.0188681
-0.0366023
0.0539056
0.102265
0.0742963
-0.0179462
-0.0434627
0.0838363
0.0248887
-0.0513638
0.0571793
-0.00960231
-0.0486582
0.00217627
0.0964413
-0.0725678
0.0265365
0.0783441
-0.0370717
-0.0792224
-0.0238902
-0.000920669
0.0127825
0.0289461
0.0349624
-0.0115105
-0.0444965
-0.000941627
0.0443285
0.0723642
-0.0297189
0.0363338
-0.0310798
-0.0341319
0.0210778
-0.0206709
-0.086995
0.0766782
0.0968857
0.0113418
0.125931
0.105363
0.142446
-0.000682643
-0.0965344
-0.0130294
-0.0267368
0.0131832
-0.0687422
0.0269594
0.118335
0.0542175
0.0185498
-0.0213126
-0.0251228
0.0829023
0.0039897
0.0608944
-0.0292402
-0.00685839
-0.026914
-0.0153441
-0.0166908
-0.0147889
-0.0068443
-0.0489084
0.037308
0.019321
-0.0259129
0.0420704
0.0117171
-0.0168679
-0.0425089
-0.0240781
-0.0448779
-0.03634
0.0164094
-0.066531
-0.100842
0.00114772
-0.0579053
-0.0757769
0.0177375
-0.025503
-0.0724441
0.0957813
0.0391699
-0.0246486
0.0802896
-0.0479922
0.0355044
0.0580241
-0.00817841
0.00342149
0.0901179
-0.0127842
0.0736032
-0.0537738
-0.018643
0.0986871
-0.0287085
0.00231109
-0.111611
-0.0689368
-0.090341
-0.0616311
-0.0363262
0.0412434
-0.0408667
-0.0797105
-0.0459008
-0.0215449
0.142395
0.0049706
0.0524999
0.0355492
-0.0184394
0.0183059
-0.0189875
-0.0552782
0.0302943
-0.0237751
0.117509
0.0679631
-0.0124672
-0.0233931
0.00658419
0.145977
0.0798198
0.104825
0.0587105
-0.0153631
0.0113119
-0.0186796
-0.0487923
-0.0647536
-0.0363816
0.021643
0.0612051
-0.0456426
-0.0670113
0.00198018
0.0215397
-0.000624945
0.0178251
0.085499
0.00933925
-0.0107596
0.115866
0.0988884
-0.0174884
0.0481997
0.102711
-0.0638605
-0.0284755
-0.0175603
-0.0404421
-0.0487094
0.102257
-0.0506279
0.0064754
0.113658
-0.0874697
0.0202348
-0.0151889
0.0104234
-0.0196554
-0.0308167
-0.0839714
0.0228642
-0.0639235
-0.0518527
-0.0279024
-0.031215
0.0704127
0.117597
-0.000161284
0.0415254
0.0269752
0.00404644
-0.0918822
0.082378
0.0555416
-0.0491236
-0.0731464
0.0324213
-0.0553189
0.0131168
-0.00844972
-0.0282227
0.0899194
0.11677
-0.0173759
0.0736733
0.141481
0.0863126
0.0964368
0.109183
0.0175247
-0.0154706
-0.0466109
0.143474
0.0899963
0.10158
-0.0409564
-0.0355793
-0.0821583
0.0784071
0.0128563
0.00233309
0.103264
0.0608378
0.000479183
0.0222918
-0.0168291
0.000582081
-0.0197663
-0.025091
-0.0238313
-0.030381
-0.00572562
-0.0661942
0.0173617
-0.0378139
0.06361
0.0391235
-0.0738673
0.104082
0.112614
0.0572902
-0.0378696
0.0221626
-0.0268652
0.065151
0.0036198
-0.0559109
0.101633
-0.0410359
0.119086
-0.0719923
-0.0158554
0.0120938
0.0554153
0.0851876
0.00157059
0.129001
0.00314173
0.0875834
-0.0156354
0.0656861
-0.0135197
0.00318552
-0.0281562
0.0922734
0.0172572
0.141748
0.0458754
-0.0663005
0.00662883
0.0347035
-0.0321813
-0.036757
-0.0135594
-0.0329324
0.122757
-0.00262871
-0.0103665
0.0737821
-0.0399425
0.117339
0.137592
-0.0323491
0.143163
0.127316
0.0885834
0.103188
0.0228224
-0.0532903
-0.0398046
-0.0191698
0.079793
-0.00342792
-0.040027
0.12745
-0.0450696
-0.023488
-0.042782
0.107738
0.142479
-0.0433557
0.0857072
0.041874
0.117478
0.0263857
0.0620153
-0.031609
0.130672
0.140012
0.0509794
-0.0366035
0.0858204
0.0122399
0.0473099
0.00866282
0.00962289
0.0387062
0.0144777
-0.0380132
-0.0459192
0.011831
0.0464427
0.0322545
0.0986029
-0.0479845
0.0112008
0.0560561
-0.0417148
0.111685
0.000182714
-0.032264
0.114672
0.0925962
0.0364677
0.133419
-0.00759326
-0.0370054
0.0655849
0.036041
0.0377012
-0.0172699
-0.0259878
0.035537
0.0499581
-0.0248223
-0.0125491
0.0290931
-0.0722882
-0.033337
0.119227
0.1403
0.141416
0.0295778
0.145355
0.141679
0.125597
-0.0952327
0.0325586
0.0335533
0.13204
-0.0326628
0.00326843
-0.0532812
-0.0368286
-0.0487527
0.1291
-0.0146565
-0.00891063
0.0642805
0.0501848
-0.0251199
-0.0318625
0.140526
0.130412
0.104126
0.0608413
-0.0460601
0.0736087
0.0421272
-0.0352096
0.0181628
-0.0643474
-0.0442239
0.0297179
-0.00527861
-0.0082161
0.120325
0.118407
-0.0896771
0.0905212
-0.0103298
-0.0130119
0.00741702
0.118066
-0.0103539
0.0596402
-0.0157934
0.105981
-0.0309209
-0.0135664
0.140212
-0.0805919
-0.074505
-0.00863796
-0.028016
-0.0989782
-0.0889914
-0.0236897
-0.0974115
-0.000220712
-0.0859589
-0.0555353
-0.00531532
-0.0553549
-0.0223284
-0.00398898
-0.0700947
-0.0828662
0.128357
0.10124
-0.0306188
-0.0574768
0.104386
-0.0431182
0.00372107
0.138233
-0.0184813
0.13848
0.00162118
0.094824
0.030856
-0.0188157
-0.0590228
0.033482
0.0306355
-0.000686601
-0.0199477
-0.0287073
-0.0611291
-0.0264852
0.0085579
-0.0820185
-0.0668976
0.126665
-0.00262233
0.0496212
0.0705847
-0.0342465
0.088548
0.0717631
-0.0522264
-0.0854487
-0.0134591
-0.0651833
-0.0970129
0.0549499
0.0573807
-0.0304465
0.0403027
-0.0201115
0.14051
0.125835
-0.0198345
-0.0238057
0.131512
0.0993145
0.0319723
0.0375899
-0.0337351
0.142367
0.040769
-0.0896141
0.108511
0.0870053
0.119319
0.0242987
-0.0427431
0.00462893
0.0586473
0.0319365
-0.109354
0.143435
-0.0135043
-0.0144187
0.00364801
0.108854
0.138585
0.138487
0.0428379
0.0277348
0.0776991
0.101754
0.11728
0.0512211
0.0810953
-0.0094598
-0.00745682
0.0406437
-0.0452756
-0.00882638
-0.073825
-0.0148569
0.07145
-0.070552
0.0191902
0.00552928
0.0937498
0.13771
-0.0166302
-0.0611893
-0.0796855
0.0788423
-0.0378702
-0.0342972
-0.0774256
0.118199
0.019831
0.0227752
-0.0589228
0.0276527
-0.0328274
-0.0147538
0.0705029
0.068443
0.121502
0.139709
-0.0211284
0.106369
-0.089316
0.110113
0.118165
0.118924
0.0773884
-0.0329135
-0.0320319
-0.0292851
-0.0877944
0.0397716
-0.084608
0.0561386
-0.0552324
0.103329
-0.033751
-0.0815202
0.0929231
0.0853181
-0.00284707
-0.00249757
0.048753
0.119068
0.0188137
0.00886985
-0.0850193
0.0861188
0.0459073
0.130715
-0.0960227
-0.00564058
0.109409
0.0584478
0.133712
0.0633821
-0.0265258
-0.107763
-0.0896762
-0.00478266
-0.0731229
0.127831
-0.0853385
0.0169054
-0.000255584
-0.0493335
0.0922004
-0.0965552
0.115514
0.059447
0.0262405
-0.0339711
0.0656407
0.00590783
0.0236942
-0.0101172
0.00139084
-0.0368128
-0.0477476
0.0727369
-0.0322895
0.144612
-0.0420292
0.0342645
0.0445072
0.0799087
0.127327
-0.0370261
-0.0275825
-0.0206069
0.0261121
-0.045752
0.123226
-0.0367351
0.0138543
-0.0362741
0.0904595
-0.0587335
0.0228955
-0.0646725
0.13932
-0.0891359
-0.0322273
0.0141397
0.0977689
-0.07877
-0.0722898
-0.0368165
-0.0664442
0.118024
0.013938
0.0614688
0.0946556
0.0534979
0.0414381
0.138084
0.0414947
0.083222
0.0435517
0.0388933
-0.0720359
0.0383392
-0.015303
0.00905558
0.0461103
-0.00582337
-0.0678334
0.00536739
0.0201342
-0.0394708
0.085479
0.0342523
0.0722507
-0.0162142
0.127444
0.00315839
0.026489
0.0471069
-0.070087
-0.0388819
-0.0368927
0.0322147
0.0253413
0.033426
0.114374
0.0794632
0.0783701
0.0118505
0.106597
0.129731
0.125867
0.0470956
0.0341747
0.0406297
-0.0485058
0.135907
0.0993509
0.0894642
-0.00489383
-0.0356682
-0.0711359
0.0390494
0.0578378
-0.00796162
0.0897234
0.10286
0.0324284
-0.0029866
0.0482575
0.00335733
0.00147832
-0.00435447
0.00265392
0.0227438
-0.0795606
0.0257372
0.0316139
-0.0194778
-0.093182
0.0283311
0.00745666
0.0537224
-0.0221655
0.0178694
0.113686
0.122637
0.0223779
0.00112451
0.0795546
0.00640756
-0.0371724
-0.0419781
-0.0179338
-0.0675613
0.114291
0.0113006
0.0130282
0.0595817
0.052391
0.0641133
-0.00730299
0.143405
0.0633499
-0.0431401
0.00623888
9.11344e-05
0.0789506
0.109366
0.0647306
0.0325973
-0.0770035
-0.047069
-0.0200907
0.030619
0.0118245
0.0221325
-0.0414538
0.119824
0.0459609
0.0915003
0.102133
0.0187684
-0.00937631
0.0370171
0.13606
-0.0531727
-0.0829254
0.0374546
0.140437
-0.0274925
-0.0195678
0.0734122
0.0584709
0.0918502
-0.00467002
-0.0784397
0.028801
-0.0718789
-0.0252987
0.0891556
-0.0119169
-0.0454965
-0.0123526
-0.0298314
0.0369345
-0.000195204
0.00273909
0.109797
-0.04619
0.138134
0.0901902
-0.0547253
-0.101817
0.018444
0.0699383
0.0998419
-0.00801139
-0.0200045
0.00349557
-0.0271704
0.0125538
0.140698
0.110546
0.0617533
0.0140092
-0.0704414
0.11972
0.144283
0.11985
0.0798067
0.110853
0.0332093
-0.0661513
-0.0900299
-0.0834398
0.127506
0.00459532
-0.0047382
0.011647
0.142914
-0.032619
-0.0036882
-0.0613371
-0.00681768
-0.0425836
0.14018
0.0288198
0.0728072
0.106427
0.101961
-0.0274225
0.0388256
0.0242544
0.0754191
-0.0596815
0.0377304
-0.0279275
0.12199
-0.0161685
-0.0397702
-0.00830777
-0.0137553
0.112656
-0.0321803
0.0874035
0.105583
0.109243
-0.0592588
0.020085
-0.0202244
0.00606768
0.117949
0.0228221
0.0445268
0.0263112
-0.0449933
0.0126239
0.122724
0.0424413
0.120805
-0.0873518
-0.0328445
-0.0333779
0.125918
0.00153685
0.019556
-0.0584239
-0.00458081
0.0188232
0.126794
0.0256953
-0.0177815
-0.0619377
0.139617
0.135523
-0.0468247
0.120737
-0.0290204
-0.0580052
-0.0308297
0.00523061
-0.0710232
0.0570614
0.00899495
-0.0339401
-0.00952661
0.110817
-0.00376114
0.0873718
0.00816372
-0.0383472
-0.00319415
-0.0879422
-0.077109
-0.0115827
0.0204638
0.0465097
-0.0463923
-0.00336878
0.106643
0.0466925
-0.0342761
-0.0221711
0.112831
-0.00796324
0.0141616
0.148051
0.0350874
-0.0365356
0.0118977
-0.00460128
0.130191
0.00457974
-0.00234648
0.0346766
-0.0741373
0.115012
-0.013405
0.108365
0.021665
0.0695988
-0.0558118
0.09352
-0.0103135
-0.0552429
-0.0438893
0.0229796
0.112644
-0.107467
-0.0062836
-0.0422278
0.128999
0.141805
0.000618691
-0.0291156
0.0561169
0.13033
0.00834806
0.116688
0.0984472
0.0875847
0.0735334
0.0175119
0.073143
0.0672722
0.120132
0.0209271
0.0273287
0.00154195
0.00158655
0.0269205
-0.0256679
0.129565
-0.00415909
0.11714
0.018094
0.125695
-0.0409666
0.134024
0.0670665
0.110768
0.127375
0.113029
0.147132
-0.0244854
0.103655
0.0273432
-0.0343998
-0.00519207
-0.0465147
0.120783
-0.00371125
0.0276237
0.0361096
-0.0154457
0.0474156
-0.0429884
0.12402
0.00336403
0.0850191
-0.0917241
-0.0206185
-0.0305037
0.141682
0.00422321
0.0458504
0.00322441
-0.0281118
-0.046398
-0.0068147
-0.0351677
0.0822198
0.12338
-0.0638347
0.0235554
-0.0315014
-0.0378216
0.0916936
2.82109e-05
0.00184069
0.132502
-0.0804415
0.0421469
0.0583868
0.109594
0.137949
0.00253943
-0.019409
-0.0602438
0.00146753
0.0047826
-0.0318476
0.0875712
-0.0303198
-0.0529066
-0.0181159
0.0216943
-0.00663962
0.0103011
-0.0427482
0.0147106
-0.0627281
0.0760242
0.0685002
0.0111522
0.0819161
-0.013117
-0.0783535
0.000214764
-0.0824519
0.133089
-0.0239543
-0.0347748
-0.0398818
0.105016
0.118772
0.013906
0.0822929
0.00715424
-0.0479309
0.0309354
-0.0315469
-0.00805886
0.119516
0.0430267
0.0725552
0.135139
0.0837047
0.0345961
0.127047
-0.0654929
0.0156762
0.012597
0.0334202
0.0238298
0.127405
-0.033738
0.0297532
0.00275098
-0.00291511
-0.0262952
-0.0165922
0.0674175
0.0933152
0.105021
0.0283045
0.028135
0.128763
0.0955473
-0.0134007
0.048939
-0.0568256
-0.0275983
0.0851491
-0.0643522
0.10191
-0.0382071
0.108206
0.143573
0.122152
-0.0454644
0.110288
0.0998432
-0.0202155
0.128424
0.00778733
0.125219
0.0825468
-0.0328122
-0.0594889
0.0512432
-0.0239372
0.0198706
0.0037315
0.0986215
0.0121104
0.129633
-0.0380381
-0.00212004
0.00484168
-0.0352412
-0.0355776
0.095364
0.140321
-0.0408414
0.0902182
0.00789301
0.0297174
0.00621348
0.0577619
0.115348
0.0854825
-0.0376773
0.110442
0.0905815
0.138207
-0.0361588
-0.0526656
0.00366121
0.0787283
0.133148
0.0951692
-0.000901166
0.133823
0.0169504
-0.061612
-0.0597986
-0.104766
0.0288015
-0.0543397
0.13847
0.138455
0.0268663
0.148054
0.0867187
0.00958125
0.131887
-0.0599183
0.126673
-0.0288795
0.119521
-0.00711509
-0.0309973
0.0773335
0.0216671
0.124935
0.115546
0.11798
-0.0193173
-0.0202637
-0.0731262
0.108569
0.08411
0.00298616
0.0373189
0.0854713
-0.0864413
-0.0324449
-0.02475
-0.0349499
0.0301779
-0.036854
0.012623
0.0861868
0.0121312
0.0226234
0.0695615
-0.0174757
0.00682631
0.0281119
0.0120564
-0.0190657
0.104295
0.125229
0.00208846
0.0824147
-0.0896575
-0.0281993
0.108657
0.0770963
-0.0442009
0.120211
-0.050737
0.0686046
0.0111745
0.0237262
0.108554
-0.00622176
0.0772687
0.0843383
0.0571129
0.144515
0.0586816
-0.0629269
0.0387558
0.0306384
0.0759886
0.139702
0.0594595
0.0215542
-0.00774485
0.0250566
0.109535
-0.0457461
0.106082
-0.0140832
0.051997
0.083733
0.0700876
0.00121961
0.109128
0.133722
0.00549917
-0.0140747
0.0194426
-0.0222626
-0.0626404
0.0146706
0.0829621
-0.0486364
-0.0647988
0.00311311
-0.0587064
0.0653691
0.0188556
0.0781806
-0.00331993
0.119649
0.0136322
0.100555
0.138424
-0.0397612
0.113597
0.0137077
0.0182475
0.038661
0.11005
4.12347e-05
1.8659e-06
0.0403805
-0.0297855
-0.0129533
-0.0332762
-0.0483541
-0.0893992
0.134958
0.142748
-0.0533533
-0.000101878
0.0725011
-0.0697503
-0.00054697
-0.029552
0.0596058
0.072001
-0.0738034
-0.0922491
0.115335
0.00389883
0.0375275
0.001974
-0.0636735
-0.0601409
0.0547223
0.0995238
0.0424564
-0.0773511
0.120952
0.0980053
-0.0292642
0.0312567
-0.0332945
0.138239
-0.0243553
0.0129082
-0.0489877
0.0485335
0.12667
0.0351103
0.0508898
-0.0148462
0.0237718
0.0473312
0.13212
0.146047
-0.0001187
0.134936
-0.0112672
0.0200369
0.0218493
-0.0130788
-0.0158285
0.108538
0.021865
0.0317951
-0.0159565
-0.0616045
0.0282178
-0.0287111
0.0630123
0.120026
-0.0320308
-0.0200397
0.0188804
-0.0149366
0.00987995
-0.0896436
0.00105384
0.112438
-0.0275181
-0.048017
0.0822597
0.0159755
0.00472298
0.0469978
0.0991388
-0.00795988
-0.00098446
0.0935514
-0.00590904
-0.00156841
0.0273006
0.109404
0.0465484
0.0199021
0.00353195
-0.0458324
-0.0038413
0.13349
0.0950231
0.141196
0.00337403
0.0556145
-0.0432627
0.00961277
0.0999221
-0.0658484
-0.0693433
0.0686997
0.097061
-0.0678288
-0.00219159
0.00670029
-0.00577533
0.00542471
0.145814
0.0183567
-0.00287613
0.0504635
-0.00719039
0.0752236
0.0561628
-0.0487347
0.00594681
0.0870961
0.0207134
0.13526
-0.0638741
-0.0332383
0.0629843
0.0440804
-0.0139448
0.0336008
-0.0269061
0.137564
0.124665
0.0637418
0.111688
-0.037573
0.106346
0.0440191
0.0678728
0.127768
-0.0688348
-0.0108539
0.138933
0.0457694
-0.0767503
-0.047809
0.103399
0.137111
0.00593233
0.0734274
0.0027211
-0.0550855
-0.0175785
-0.0765941
0.0997719
-0.023055
0.00537791
0.129362
-0.0434177
-0.00477086
-0.0101848
0.0319086
0.00364156
-0.0431421
-0.00873019
-0.0520729
0.0240107
0.0841952
0.126725
0.0769257
0.0137824
-0.0154461
-0.0787344
-0.0307809
0.0393823
0.0262903
0.0756401
0.0808076
-0.0158333
-0.00656301
0.095811
0.0990036
0.139332
0.109732
0.129394
0.0168022
-0.0572613
-0.0232032
-0.037192
0.132301
0.0228728
-0.014685
0.127043
-0.053457
0.0872793
0.0713762
0.00203461
0.00602582
-0.00919187
-0.0426447
0.0973581
-0.0253909
0.059731
0.00610451
0.125092
0.0284722
0.142823
-0.0326861
0.00474573
-0.0529818
-0.0926691
-0.00806055
0.0841698
-0.0055804
-0.0532502
0.0190349
0.123041
0.0762745
-0.0384404
-0.0530503
-0.0147119
-0.0592534
0.0068741
-0.063208
-0.014332
-0.0401435
0.069806
-0.05361
0.00102099
0.117038
0.0304512
0.0693786
0.0920558
-0.0212893
0.00445919
-0.0218132
0.0932792
-0.0300149
0.0117547
0.0169431
-0.0461392
-0.0693613
-0.00313716
0.00389198
0.0752389
0.140725
0.103153
0.0226634
0.0637898
-0.0677043
0.134585
0.0458253
0.0873082
0.00817405
0.0703758
-0.0452014
-0.0102718
0.0858929
0.126071
0.0820854
0.02313
-0.0295479
0.143324
0.0140781
0.0971804
0.131667
0.0542171
-0.00196491
-0.0682234
0.094655
0.0527931
-0.0475475
0.0456635
0.0443779
0.123306
-0.0218309
0.130242
0.140596
-0.0151304
-0.0303746
0.131008
-0.0475639
-0.044049
-0.006118
-0.0413509
-0.000120868
-0.0372901
-0.0607108
0.00354418
0.00502354
-0.0163903
-0.0322381
0.0257962
-0.056209
-0.0328424
0.0419609
0.00562993
-0.0648087
0.118606
0.140593
0.133431
-0.000199529
-0.0755118
0.143631
-0.053328
0.00534432
0.00320408
-0.0352502
0.0084051
0.0681678
-0.0264185
-0.0414395
-0.0665914
-0.0646118
-0.0495879
-0.0316119
-0.0778312
-0.00107918
0.0169782
-0.0077696
0.124739
0.0250147
0.0654305
0.0152895
0.0958652
-0.0391411
-0.0293269
0.147613
0.0060993
0.0506819
-0.0546525
0.0545108
0.141363
-0.0281992
0.053178
0.05026
-0.0513384
-0.000988683
-0.0475073
-0.0311514
0.0716802
-0.042451
0.00200076
-0.0403621
-0.0148652
-0.0144184
-0.0457559
0.00650905
-0.0291244
-0.0407209
0.138645
0.00150737
0.0082342
0.0199004
0.123892
-0.0239954
-0.0628154
0.09293
-0.0469185
-0.0133196
0.00608541
0.0346078
-0.0455653
0.0225992
0.0372234
0.138629
0.101435
-0.0589248
-0.0377149
-0.0676715
0.00455712
-0.0782916
-0.0285179
0.00796822
-0.0284295
0.0069341
0.0425008
0.14783
-0.0188293
0.0663342
0.0251059
0.133362
-0.0350704
0.142676
0.0357802
-0.0514104
0.0469192
0.0722474
-0.0351217
0.106173
0.00678835
0.106461
-0.0336808
-0.0569441
-0.00532922
0.146122
0.140341
0.0708548
0.0509786
0.0699293
-0.0768708
-0.0483817
0.0766076
0.142785
-0.0445983
0.0248246
0.00840152
-0.0395229
-0.00966885
-0.0128205
-0.0406215
-0.0223158
-0.0363642
0.000272145
-0.0320898
-0.000421188
0.143394
0.0995671
-0.0802267
0.083284
-0.0213389
-0.0513755
0.0901475
-0.0429603
-0.0148798
0.0664555
-0.036482
-0.0280234
0.00451226
0.10353
-0.0439455
-0.0291479
-0.0223746
0.0386733
-0.0372208
0.124291
-0.0730748
-0.035242
-0.0233777
-0.0390011
0.0561316
0.0404499
0.125313
0.0017097
0.0851414
0.0163428
0.0377544
-0.00254657
0.0595612
-0.0484736
-0.0437381
-0.0935131
0.0542133
-0.00926022
-0.0243961
0.115663
0.0153388
0.0531703
0.0570025
-0.0231801
-0.037056
-0.0244437
0.0451396
0.0031527
0.146677
-0.0543971
-0.0754889
0.00123562
-0.0411161
0.000713533
0.0083185
0.0735892
-0.0124022
-0.00340266
-0.0424474
0.00924459
-0.00718623
-0.0128707
0.142841
0.132437
-0.03632
-0.0165935
0.0995623
0.0440531
-0.0106129
-0.0503842
-0.00419215
-0.0503474
0.0152572
0.117138
-0.00928178
-0.071125
0.0411486
0.00680908
-0.0717886
-0.0414333
0.0116671
0.0612369
0.145367
-0.0467299
-0.0665756
0.0252699
0.0993794
-0.0246708
0.0294828
-0.0258851
0.00494317
-0.0299335
0.0382608
-0.012236
0.00271625
0.0829877
-0.0239015
-0.081844
0.0127388
-0.00320276
0.086777
0.14356
0.0053967
-0.0347121
-0.0314575
-0.0298684
-0.0423976
-0.034349
-0.048174
0.126936
0.0943565
0.0598041
0.00827356
-0.0677609
0.0809678
0.135289
-0.0366741
0.0099563
-0.0436072
-0.0896672
0.00138879
-0.0362915
-0.0973119
0.0047369
0.0694843
-0.0664793
-0.0713264
-0.0382955
0.0995156