/*--------------------------------*- C++ -*----------------------------------*\
  =========                 |
  \\      /  F ield         | OpenFOAM: The Open Source CFD Toolbox
   \\    /   O peration     | Website:  https://openfoam.org
    \\  /    A nd           | Version:  6
     \\/     M anipulation  |
\*---------------------------------------------------------------------------*/
FoamFile
{
    version     2.0;
    format      ascii;
    class       volVectorField;
    location    "0";
    object      U;
}
// * * * * * * * * * * * * * * * * * * * * * * * * * * * * * * * * * * * * * //

dimensions      [0 1 -1 0 0 0 0];

internalField   nonuniform List<vector> 
13046
(
(0.602487 0.3212 0)
(0.521714 0.0732876 4.79106e-21)
(0.280193 0.0816443 1.07783e-20)
(0.592292 0.254611 0)
(0.33841 0.14899 9.66243e-21)
(0.446743 0.0626427 0)
(0.624898 0.269198 -1.38146e-21)
(0.447986 0.0387777 -2.46668e-21)
(0.319701 0.155373 1.06867e-20)
(0.811131 0.406466 -4.219e-21)
(0.65184 -0.180555 0)
(0.0497357 0.0350016 -7.19527e-21)
(0.682028 0.344375 8.63405e-21)
(0.516264 0.0226785 7.65845e-21)
(0.239948 0.0896814 -5.94979e-21)
(0.793623 0.468879 -2.06481e-21)
(0.0621197 0.00529007 -1.15324e-20)
(0.69294 -0.116629 -4.04164e-21)
(0.439501 0.225006 0)
(0.376768 0.0695325 5.22932e-21)
(0.553282 0.18215 -1.4557e-20)
(0.799702 0.459059 2.34717e-21)
(0.0585813 0.0128132 2.30882e-20)
(0.682544 -0.129917 -1.3398e-21)
(0.558982 0.265622 -5.86429e-21)
(0.488012 0.0924807 8.80916e-21)
(0.329227 0.112489 0)
(0.683428 0.367166 -1.51826e-22)
(0.533943 0.0212579 -2.23577e-21)
(0.22282 0.0722253 2.05689e-20)
(0.604455 0.337764 0)
(0.541734 0.0795989 0)
(0.265703 0.0618056 -1.09729e-20)
(0.52744 0.242722 2.05543e-20)
(0.352277 0.118208 -3.62065e-21)
(0.481874 0.11149 -1.36713e-20)
(0.52015 0.224857 7.79229e-23)
(0.374661 0.137881 0)
(0.463389 0.113657 0)
(0.529439 0.34967 -7.56263e-21)
(0.288431 -0.00960919 -1.00148e-20)
(0.631105 0.134388 7.16293e-21)
(0.479616 0.175545 -4.76443e-21)
(0.432384 0.167035 4.86766e-21)
(0.434676 0.132407 0)
(0.505876 0.18121 -2.99266e-21)
(0.425468 0.181975 0)
(0.415346 0.111542 1.57927e-21)
(0.618658 0.315659 0)
(0.50453 0.0554578 3.45519e-22)
(0.273104 0.0945495 -5.67157e-24)
(0.327831 -0.087411 -1.26238e-20)
(0.467704 0.371907 0)
(0.736089 0.171718 8.68488e-21)
(0.350109 -0.105115 1.798e-20)
(0.763779 0.186777 9.24076e-21)
(0.435251 0.358863 -1.19081e-20)
(0.688545 0.00240561 1.76589e-21)
(0.743108 0.521358 0)
(0.144071 -0.0421421 -9.52426e-21)
(0.791197 0.325648 4.0808e-21)
(0.491186 -0.0769094 -4.60602e-21)
(0.22808 0.164266 2.48444e-20)
(0.0976583 0.0584564 -1.31465e-20)
(0.618379 -0.124663 2.95055e-21)
(0.834181 0.416836 6.59969e-21)
(0.722114 0.527964 0)
(0.697762 0.0248568 -8.20624e-21)
(0.163304 -0.0597265 -2.78659e-21)
(0.705641 0.5165 3.21957e-21)
(0.690984 0.0362314 1.11211e-20)
(0.174466 -0.0582951 3.78915e-21)
(0.701463 -0.00814788 1.83976e-23)
(0.754924 0.529562 -1.23424e-22)
(0.132111 -0.0464853 -3.87217e-24)
(0.45621 0.245078 0)
(0.358326 0.0550295 -5.70122e-21)
(0.566959 0.169683 1.0386e-20)
(0.106506 -0.0269118 -1.05563e-20)
(0.77461 0.517403 9.68547e-21)
(0.694507 -0.0444256 3.92148e-21)
(0.580981 0.272304 -3.05564e-21)
(0.475404 0.0772754 3.15653e-21)
(0.319516 0.12363 0)
(0.0847826 0.0498143 1.18033e-20)
(0.631979 -0.136456 0)
(0.834744 0.421104 -3.92092e-21)
(0.869509 0.35301 6.90061e-21)
(0.129545 0.121759 0)
(0.563787 -0.165062 2.29406e-21)
(0.165378 0.18541 0)
(0.907002 0.28634 0)
(0.519709 -0.218229 -3.08626e-22)
(0.777024 0.407415 8.2447e-21)
(0.796364 0.405362 -1.14656e-20)
(0.572524 -0.0459465 -8.95954e-21)
(0.574206 -0.0666269 4.20845e-21)
(0.161192 0.0667891 5.41632e-21)
(0.151134 0.0761484 -1.38657e-20)
(0.147068 0.140707 6.60549e-22)
(0.874673 0.337957 -6.75155e-21)
(0.547299 -0.171234 0)
(0.532805 0.200373 3.31687e-23)
(0.404889 0.17924 0)
(0.416473 0.0935759 0)
(0.391503 0.29926 -2.14312e-20)
(0.727245 0.216055 4.21998e-21)
(0.368534 -0.0638002 0)
(0.47334 0.350628 -3.26265e-21)
(0.318129 -0.0529723 0)
(0.692907 0.166472 1.62995e-20)
(0.735491 0.375793 0)
(0.0219696 0.0168791 9.80998e-21)
(0.629947 -0.219907 3.35292e-21)
(0.654831 0.327634 -6.03852e-21)
(0.504901 0.0367311 -3.23514e-21)
(0.257396 0.0989543 -1.07092e-20)
(0.786128 0.446679 -4.77921e-21)
(0.77218 0.431029 4.46071e-21)
(0.615242 -0.0505017 -2.49619e-21)
(0.132571 0.033636 -6.22284e-21)
(0.594499 -0.0381145 2.42608e-21)
(0.149043 0.0439582 5.81451e-21)
(0.794479 0.408496 1.07104e-20)
(0.658516 -0.187514 4.65619e-21)
(0.0408913 0.0269875 3.22348e-21)
(0.734834 0.396865 0)
(0.557533 -0.0132529 5.90819e-21)
(0.186433 0.0621874 -3.15171e-20)
(0.557964 0.361801 0)
(0.271725 -0.000981661 1.00783e-20)
(0.616756 0.115734 -4.15461e-22)
(0.186238 0.202422 0)
(0.902026 0.282694 0)
(0.509197 -0.204907 0)
(0.829883 0.391841 0)
(0.576191 -0.105865 1.1754e-20)
(0.139911 0.0925824 1.40156e-20)
(0.630552 0.354117 0)
(0.551568 0.0643659 0)
(0.248249 0.0515691 0)
(0.708564 0.278633 0)
(0.435296 -0.0248044 0)
(0.306652 0.193056 0)
(0.455075 0.346824 3.01901e-21)
(0.332806 -0.0660424 0)
(0.714185 0.178999 -8.7706e-21)
(0.395747 0.287385 2.07809e-20)
(0.711984 0.217341 9.08744e-21)
(0.371278 -0.0501388 -1.09415e-20)
(0.804029 0.338625 -9.57178e-21)
(0.509624 -0.0857406 0)
(0.205996 0.144851 -3.2344e-20)
(0.376711 0.234942 0)
(0.662338 0.229242 -1.97687e-20)
(0.388462 -0.00476556 -2.79454e-21)
(0.397458 -0.121808 -5.04214e-21)
(0.801058 0.225044 -9.68568e-21)
(0.421982 -0.13059 0)
(0.819387 0.244773 -5.5374e-21)
(0.361514 0.313593 -1.03823e-20)
(0.324482 0.285757 9.96966e-21)
(0.726074 0.251641 -1.24788e-21)
(0.409005 -0.0486522 -5.76915e-21)
(0.334295 0.231059 6.08003e-21)
(0.827616 0.393753 4.33135e-21)
(0.0554775 0.0461297 -3.73366e-21)
(0.634256 -0.190298 5.77226e-21)
(0.758191 0.390298 3.10563e-21)
(0.0274214 0.0191299 1.47352e-21)
(0.648555 -0.207127 0)
(0.829842 0.404056 -1.42439e-22)
(0.590769 -0.107728 0)
(0.125303 0.0783003 -1.69356e-20)
(0.595616 0.41966 0)
(0.657389 0.101229 -2.31507e-21)
(0.247702 -0.0373732 -5.92375e-21)
(0.709032 0.239521 -8.25071e-21)
(0.357245 0.24936 0)
(0.393697 -0.037964 0)
(0.0730739 0.0742501 0)
(0.604219 -0.197816 0)
(0.855937 0.369628 -3.64854e-21)
(0.572845 0.398582 0)
(0.649265 0.114384 4.99888e-21)
(0.262021 -0.0276995 -1.52977e-21)
(0.375575 0.248522 0)
(0.674439 0.225163 0)
(0.379276 -0.018169 0)
(0.685439 0.266115 -4.0827e-21)
(0.427537 -0.0115933 0)
(0.317728 0.190116 0)
(0.511207 -0.00588448 3.89061e-23)
(0.227916 0.105052 7.27497e-21)
(0.720152 0.37996 -1.25577e-20)
(0.543338 -0.00240555 0)
(0.202831 0.0731564 3.25499e-20)
(0.857257 0.383492 7.84666e-21)
(0.10046 0.0840777 -1.0667e-20)
(0.599877 -0.160545 1.11763e-20)
(0.179535 0.182941 -9.69382e-21)
(0.885647 0.305794 -4.22392e-21)
(0.519741 -0.18286 -1.14642e-20)
(0.893484 0.318278 1.16773e-20)
(0.546253 -0.198255 0)
(0.137006 0.148637 9.51638e-21)
(0.322523 -0.120068 5.18163e-21)
(0.768403 0.157499 -3.9021e-21)
(0.492511 0.423312 -1.00631e-20)
(0.67665 0.30093 7.98223e-21)
(0.766015 0.528047 -4.96877e-21)
(0.113228 -0.0364887 6.50542e-21)
(0.706077 -0.0357379 -1.83729e-23)
(0.559175 -0.206784 0)
(0.88704 0.32872 3.408e-21)
(0.116569 0.126579 0)
(0.541729 0.22231 1.5147e-20)
(0.377515 0.158501 0)
(0.438417 0.0923538 -5.19881e-21)
(0.667565 0.374273 0)
(0.548941 0.0377079 3.21607e-22)
(0.229175 0.0600192 -6.06897e-21)
(0.190883 0.199442 -7.4074e-21)
(0.892744 0.293489 0)
(0.509349 -0.192884 1.32046e-20)
(0.70019 0.315163 0)
(0.496249 -0.0106505 -1.38997e-20)
(0.241292 0.121161 0)
(0.0400134 0.0380431 0)
(0.623423 -0.215947 -5.01203e-21)
(0.804657 0.376962 0)
(0.461696 0.401799 1.0885e-20)
(0.783711 0.169051 0)
(0.339796 -0.129363 0)
(0.887013 0.321315 -1.02472e-20)
(0.53937 -0.185486 0)
(0.149357 0.153469 2.64288e-23)
(0.77241 0.249965 -1.08338e-20)
(0.412053 -0.0897057 -4.39786e-21)
(0.325604 0.258159 1.39508e-20)
(0.729989 0.412083 0)
(0.571367 -0.00552101 -5.51421e-21)
(0.181196 0.0477014 -3.28523e-21)
(0.465492 -0.192985 1.63538e-20)
(0.888941 0.249981 7.71166e-21)
(0.264707 0.272405 -5.81238e-21)
(0.841866 0.243379 0)
(0.432494 -0.149845 6.41e-21)
(0.313893 0.288683 2.08538e-22)
(0.0378591 0.0405358 7.53849e-21)
(0.60623 -0.227548 0)
(0.80459 0.36155 3.55961e-21)
(0.52191 0.386188 -1.40895e-20)
(0.292416 -0.0530594 7.38689e-21)
(0.68605 0.142309 7.22399e-22)
(0.67953 0.395791 -3.31733e-21)
(0.0162049 0.00233571 8.13887e-22)
(0.662166 -0.18958 0)
(0.410065 0.204435 -3.17507e-21)
(0.563656 0.198781 1.17793e-20)
(0.392612 0.0664006 -1.56612e-20)
(0.77031 0.281416 -4.31482e-21)
(0.758472 0.25995 -2.0448e-23)
(0.442059 -0.075644 1.07281e-20)
(0.418869 -0.0744019 1.05379e-20)
(0.317359 0.240295 -1.10896e-20)
(0.282195 0.21116 5.74566e-21)
(0.0932232 -0.0207245 1.38152e-20)
(0.779637 0.510188 -5.14429e-21)
(0.700453 -0.0576311 0)
(0.708355 0.412234 0)
(0.579137 0.0165832 0)
(0.193998 0.0376997 1.30824e-20)
(0.857904 0.25724 2.02374e-21)
(0.452173 -0.162789 0)
(0.284721 0.268794 0)
(0.809158 0.421925 -4.31981e-21)
(0.597571 -0.0779513 0)
(0.130073 0.0597756 -6.1816e-21)
(0.471019 0.18596 -3.23634e-21)
(0.456406 0.143636 -4.70223e-21)
(0.419726 0.149273 1.61749e-21)
(0.806092 0.258822 7.07316e-21)
(0.4312 -0.114714 0)
(0.304602 0.25822 9.64651e-21)
(0.708352 0.427584 0)
(0.595881 0.0187064 -6.88013e-21)
(0.18643 0.0227337 8.44745e-21)
(0.707876 0.336862 -1.29148e-20)
(0.730147 0.347817 1.03953e-20)
(0.526113 0.399276 1.11371e-20)
(0.290253 -0.0654911 -2.14414e-20)
(0.699078 0.141533 1.59885e-20)
(0.819388 0.275509 7.23805e-21)
(0.450592 -0.121713 -9.37287e-21)
(0.273091 0.232962 -8.80047e-21)
(0.820912 0.419119 1.55943e-20)
(0.121424 0.0647907 2.17846e-20)
(0.601315 -0.0937377 5.86305e-21)
(0.477757 0.335364 4.90143e-21)
(0.317616 -0.0391263 0)
(0.674546 0.168268 -5.52013e-21)
(0.374445 0.335443 1.11906e-20)
(0.811135 0.214528 5.61824e-21)
(0.391533 -0.136419 0)
(0.754205 0.462661 1.55384e-21)
(0.626883 -0.0145349 6.07818e-21)
(0.145719 0.00847104 -3.87127e-21)
(0.495094 0.393241 -9.18904e-22)
(0.313726 -0.0858201 0)
(0.72994 0.160562 -1.19805e-20)
(0.768565 0.47196 0)
(0.780804 0.46508 0)
(0.637819 -0.0273673 3.96377e-21)
(0.134362 0.00722628 1.0072e-20)
(0.63307 -0.0443187 -5.60635e-21)
(0.126799 0.0184798 -1.07041e-20)
(0.0777537 0.0690175 8.29151e-21)
(0.613347 -0.182185 0)
(0.852562 0.3839 5.01347e-21)
(0.753659 0.43118 0)
(0.591491 -0.0219973 2.80085e-21)
(0.159177 0.0375162 -3.4228e-21)
(0.57811 -0.2253 -9.69725e-21)
(0.00984657 0.0058205 -1.2101e-20)
(0.642667 0.344498 -8.05183e-21)
(0.623606 0.208805 1.59799e-20)
(0.402927 0.234671 0)
(0.376158 0.0204179 5.89779e-21)
(0.766067 0.321194 -9.82044e-21)
(0.481756 -0.0574116 0)
(0.238441 0.158101 -1.89815e-20)
(0.110819 0.0839322 6.77712e-21)
(0.851657 0.38984 -1.43468e-20)
(0.594047 -0.142785 -8.37164e-21)
(0.353922 -0.117787 6.75947e-21)
(0.778506 0.186246 0)
(0.429602 0.371799 1.34919e-20)
(0.480909 -0.193989 2.00513e-20)
(0.891864 0.265039 4.71009e-21)
(0.235383 0.24401 0)
(0.476798 0.00825062 6.97923e-21)
(0.268131 0.134194 0)
(0.77097 0.360631 -1.07179e-20)
(0.520399 -0.0494394 -5.08521e-21)
(0.200052 0.111306 -5.83268e-21)
(0.461324 -0.00175461 -2.48671e-22)
(0.279614 0.150644 -6.52991e-23)
(0.798767 0.472458 1.10726e-20)
(0.0720848 0.00552857 -1.62267e-20)
(0.684667 -0.102881 5.93676e-21)
(0.311673 -0.131035 -6.74979e-21)
(0.77385 0.146487 -1.25128e-21)
(0.516332 0.44744 0)
(0.787828 0.368356 1.09201e-20)
(0.53321 -0.0628858 6.21066e-21)
(0.186438 0.111935 1.4237e-20)
(0.72084 0.271691 0)
(0.424984 -0.040073 4.21989e-21)
(0.311892 0.208298 0)
(0.728556 0.199297 5.44891e-21)
(0.35246 -0.0730237 0)
(0.4212 0.321599 0)
(0.60847 0.295073 4.24025e-21)
(0.487081 0.0617408 7.64144e-21)
(0.295229 0.111734 -3.7241e-23)
(0.402323 0.356966 -1.39027e-20)
(0.800995 0.200645 -1.36539e-20)
(0.376045 -0.13184 -1.8321e-20)
(0.871073 0.361102 6.1754e-21)
(0.580765 -0.175394 -9.5234e-21)
(0.109378 0.102844 -1.59943e-22)
(0.489532 -0.183711 -1.35519e-20)
(0.885536 0.278551 -4.77483e-21)
(0.222231 0.226501 -7.37508e-21)
(0.66481 0.5036 1.00111e-20)
(0.206618 -0.0694447 -5.66697e-21)
(0.697928 0.0651762 0)
(0.776028 0.497614 -2.79521e-21)
(0.767486 0.49367 2.55437e-21)
(0.661023 -0.0257604 1.26297e-21)
(0.671354 -0.0364956 -5.52282e-21)
(0.116492 -0.0125051 3.70628e-21)
(0.127517 -0.0121301 3.25977e-21)
(0.0123162 0.00509343 1.22816e-20)
(0.606903 -0.214339 1.06764e-20)
(0.658118 0.357137 -2.11403e-21)
(0.696957 0.408279 2.14172e-22)
(0.0199682 0.00176639 0)
(0.678544 -0.182316 0)
(0.792471 0.291111 1.59439e-20)
(0.45908 -0.0885869 2.42182e-21)
(0.268194 0.20698 0)
(0.0879499 0.0710265 2.0539e-20)
(0.852192 0.389836 -6.27108e-21)
(0.612582 -0.164715 0)
(0.716705 0.490703 -1.40374e-20)
(0.734662 0.490001 1.05139e-20)
(0.660261 0.0214259 -6.47794e-21)
(0.655577 0.00686778 -2.48753e-21)
(0.169218 -0.0302144 6.43766e-21)
(0.155131 -0.0203855 3.22928e-21)
(0.0948956 0.113428 0)
(0.55198 -0.229916 0)
(0.88627 0.310758 -1.8468e-21)
(0.633472 0.386353 3.8956e-21)
(0.0125275 -0.00183433 -7.66256e-21)
(0.653303 -0.184035 0)
(0.515257 0.156951 5.0604e-23)
(0.465845 0.222198 -6.90282e-21)
(0.374652 0.0954775 -3.47899e-21)
(0.694375 0.376336 6.7871e-21)
(0.634972 -0.211845 -4.9059e-21)
(0.0166568 0.00874158 -1.52487e-20)
(0.631312 0.426406 -1.20204e-20)
(0.63743 0.0783636 1.07604e-20)
(0.226868 -0.0212271 8.54593e-24)
(0.863524 0.360956 -7.6761e-23)
(0.594523 -0.19977 -1.37335e-20)
(0.0844251 0.085352 4.20867e-21)
(0.503152 -0.24296 -2.94947e-22)
(0.00809788 0.00727299 1.39004e-20)
(0.616586 0.280317 3.08456e-21)
(0.503799 0.324118 6.5443e-21)
(0.305969 0.00261232 4.27154e-22)
(0.621669 0.148946 -1.75182e-20)
(0.592001 0.21859 0)
(0.402171 0.0501032 1.73582e-20)
(0.385217 0.199536 -8.90371e-21)
(0.782936 0.421579 -1.07852e-20)
(0.0386885 0.0199707 -9.6147e-21)
(0.671338 -0.177762 -4.2807e-24)
(0.612252 0.223852 0)
(0.394757 0.035019 6.11838e-21)
(0.378312 0.211027 1.25735e-20)
(0.499487 0.159881 -7.06159e-21)
(0.458657 0.205952 7.28769e-21)
(0.391731 0.110999 -1.83206e-21)
(0.444405 0.403959 6.68613e-21)
(0.808963 0.177209 4.87022e-21)
(0.357499 -0.149336 -1.00994e-20)
(0.58531 0.178086 0)
(0.354167 0.0411839 0)
(0.443168 0.256911 -1.0308e-21)
(0.61425 0.198639 -8.55549e-21)
(0.364388 0.0271587 -4.72851e-21)
(0.425968 0.25277 -1.46709e-22)
(0.641986 0.494408 -1.5222e-20)
(0.70609 0.077848 8.28998e-21)
(0.223612 -0.0798924 1.12487e-20)
(0.0591414 0.0302966 -1.453e-20)
(0.0592157 0.0364354 1.47332e-20)
(0.664427 -0.152439 -4.04417e-21)
(0.653065 -0.163939 -2.81171e-21)
(0.813915 0.433559 -8.77923e-21)
(0.820877 0.423108 1.32452e-20)
(0.875154 0.354809 -7.61649e-21)
(0.581453 -0.186908 8.545e-21)
(0.101782 0.104386 0)
(0.195515 -0.0779202 -7.28814e-21)
(0.680475 0.523774 -3.10171e-21)
(0.708471 0.0559829 0)
(0.54169 0.383045 0)
(0.279425 -0.0366864 6.73339e-21)
(0.663304 0.129951 -5.48683e-21)
(0.851532 0.224321 0)
(0.420854 -0.16508 -6.63036e-21)
(0.338081 0.319794 -2.15802e-22)
(0.529815 -0.256073 -4.88623e-21)
(0.0226269 0.0282242 0)
(0.735224 0.294373 8.09366e-21)
(0.145363 0.164843 0)
(0.902621 0.298832 0)
(0.531229 -0.217067 -5.76611e-21)
(0.783338 0.389443 -3.61915e-21)
(0.0347632 0.0280426 0)
(0.643341 -0.206422 4.91842e-21)
(0.00514299 0.00282792 5.15078e-32)
(0.479211 -0.232858 4.55864e-21)
(0.564485 0.266617 -3.1155e-21)
(0.515445 -0.19966 -5.10022e-21)
(0.00463237 -0.000847241 -5.13874e-32)
(0.540822 0.30664 2.77579e-21)
(0.495391 -0.120449 1.28965e-20)
(0.834569 0.314015 0)
(0.222161 0.183664 1.8954e-20)
(0.550652 -0.245896 2.63177e-21)
(0.0595106 0.0754208 0)
(0.85101 0.307056 0)
(0.841837 0.381496 6.93073e-21)
(0.569909 -0.121545 -7.29941e-21)
(0.140211 0.103314 -9.89843e-21)
(0.759313 0.471325 -1.12047e-20)
(0.0458883 -0.00770465 -5.87445e-21)
(0.721502 -0.123048 0)
(0.657321 0.308567 -3.25968e-21)
(0.274809 0.124944 3.63281e-21)
(0.481798 0.025087 -3.36256e-21)
(0.546789 -0.226445 0)
(0.110186 0.130015 -6.98677e-21)
(0.893215 0.307305 -2.0804e-21)
(0.838379 0.214883 5.51882e-21)
(0.361615 0.338628 3.82675e-21)
(0.406103 -0.157391 0)
(0.463779 -0.157889 0)
(0.856586 0.270682 0)
(0.261158 0.247241 -6.88591e-21)
(0.000883273 -0.00344516 0)
(0.304164 -0.134762 3.83318e-21)
(0.321033 0.158004 -2.14148e-21)
(0.5638 -0.239387 -4.85598e-21)
(0.0114522 0.00971702 8.40962e-21)
(0.663222 0.330698 3.44289e-21)
(0.632669 0.292323 8.39219e-21)
(0.293995 0.129723 -8.55694e-21)
(0.472339 0.0397854 -3.87841e-21)
(0.573493 -0.219098 -1.22169e-20)
(0.873563 0.336017 3.99052e-21)
(0.0809301 0.0937933 0)
(0.0871264 0.108639 7.3354e-21)
(0.883986 0.30326 0)
(0.544314 -0.239984 9.13922e-21)
(0.841506 0.410412 4.56502e-21)
(0.0803867 0.0564623 -2.20368e-20)
(0.627735 -0.152131 -1.15087e-20)
(0.0880171 -0.000407988 1.66932e-20)
(0.680307 -0.0761914 -6.2338e-21)
(0.793976 0.487293 0)
(0.625225 0.504504 1.92276e-20)
(0.727498 0.0883707 -1.05637e-20)
(0.24009 -0.0981937 1.07265e-20)
(0.669822 -0.00848469 -1.88123e-21)
(0.750372 0.506295 -6.06082e-21)
(0.140594 -0.0266416 1.01682e-20)
(0.0731736 -0.0147638 1.49891e-20)
(0.780409 0.498455 0)
(0.710245 -0.0845688 4.5991e-21)
(0.658102 0.411553 3.02471e-21)
(0.683279 0.428037 0)
(0.599503 0.0562446 1.12172e-20)
(0.6068 0.0409864 -1.199e-20)
(0.215653 0.0131774 -6.86092e-21)
(0.199093 0.00926974 0)
(0.633975 0.410787 2.95947e-21)
(0.614896 0.0738138 0)
(0.228681 -0.0011141 -3.2951e-21)
(0.705893 0.503603 0)
(0.675738 0.0312399 1.04626e-20)
(0.175378 -0.0447796 -2.32279e-21)
(0.483085 -0.171137 6.71306e-21)
(0.87434 0.279641 -4.95005e-21)
(0.231627 0.225457 1.51782e-20)
(0.568868 -0.202026 0)
(0.879206 0.341604 -1.24494e-21)
(0.104131 0.113412 0)
(0.194639 0.186372 4.9052e-21)
(0.874227 0.306164 3.11677e-21)
(0.511175 -0.167181 4.39004e-21)
(0.55234 -0.199876 6.98005e-22)
(0.00591817 -0.000526776 6.36592e-26)
(0.570319 0.329554 0)
(0.554447 0.335355 -5.8881e-21)
(0.564139 0.326349 0)
(0.282856 0.0301323 1.56433e-21)
(0.581367 0.115796 -2.14943e-20)
(0.284431 0.0475611 -1.97936e-21)
(0.56034 0.104562 1.36541e-20)
(0.672956 0.479992 0)
(0.645984 0.462977 1.95823e-21)
(0.216416 -0.0436851 -2.29642e-23)
(0.667589 0.0558946 -6.50414e-21)
(0.200658 -0.0413391 -1.69561e-20)
(0.66588 0.0702395 1.37255e-20)
(0.484909 -0.251512 0)
(0.0104508 0.0120215 -1.51471e-20)
(0.643883 0.269663 0)
(0.578323 -0.212071 7.19947e-21)
(0.874747 0.343541 -1.23964e-21)
(0.085244 0.0930111 -4.41914e-21)
(0.552823 0.419195 3.66957e-21)
(0.277668 -0.0717022 7.7308e-21)
(0.7021 0.127782 -1.8065e-20)
(0.452047 -0.180347 -1.45494e-20)
(0.874953 0.245128 -1.29261e-20)
(0.285385 0.284604 0)
(0.0956012 -0.00621662 -1.78508e-20)
(0.680246 -0.0649787 6.63311e-21)
(0.789295 0.493439 0)
(0.598197 -0.236426 0)
(0.746724 0.351899 0)
(0.0223963 0.0228571 0)
(0.594479 -0.236019 0)
(0.775246 0.347462 -6.24197e-21)
(0.03023 0.0335497 0)
(0.738138 0.474041 5.81809e-21)
(0.636997 -0.000231334 -3.78161e-21)
(0.15485 -0.00460403 -4.77988e-21)
(0.459844 0.317035 1.72737e-21)
(0.330059 -0.0285768 0)
(0.667247 0.180412 -5.83819e-21)
(0.833857 0.411049 -5.31911e-21)
(0.0699913 0.0485943 -1.28612e-20)
(0.639555 -0.161061 1.6682e-20)
(0.496327 -0.137089 0)
(0.848122 0.309568 0)
(0.217135 0.19391 -1.63369e-20)
(0.104716 0.0513525 -4.16039e-21)
(0.62105 -0.104121 -1.00414e-20)
(0.823099 0.431883 -1.44472e-20)
(0.627352 0.460335 -1.99468e-21)
(0.229429 -0.0541782 1.13095e-20)
(0.676916 0.082433 -7.00207e-21)
(0.75909 0.234166 1.05147e-20)
(0.39254 -0.0831589 -6.54053e-21)
(0.359757 0.281862 -1.36105e-20)
(0.519447 0.35612 -1.23431e-22)
(0.293029 -0.0259592 2.20036e-21)
(0.653102 0.141712 7.1905e-21)
(0.0679878 0.0556178 5.01864e-21)
(0.629529 -0.179027 -7.76715e-21)
(0.83872 0.394678 -5.82561e-21)
(0.801076 0.44188 2.6828e-21)
(0.616939 -0.0694222 2.95487e-21)
(0.122774 0.0415072 0)
(0.513554 0.31645 6.38567e-21)
(0.305154 0.0207902 -1.38179e-20)
(0.59833 0.140936 1.15517e-20)
(0.771463 0.494057 -4.43663e-21)
(0.0623226 -0.0158043 -6.67595e-21)
(0.72052 -0.0972042 -2.08353e-23)
(0.62364 0.371925 3.672e-21)
(0.57262 0.0694275 0)
(0.241629 0.0332401 0)
(0.666498 0.24959 1.52155e-20)
(0.408518 -0.00119402 -3.79898e-21)
(0.345262 0.209505 0)
(0.465633 -0.139294 0)
(0.842041 0.278672 -1.03478e-20)
(0.257188 0.233281 7.20798e-21)
(0.726304 0.433667 0)
(0.0280105 -0.000366537 2.06034e-21)
(0.704913 -0.161916 -5.36528e-21)
(0.729005 0.447653 -4.41963e-21)
(0.0312492 -0.00441206 -6.58695e-21)
(0.715951 -0.147256 5.1262e-21)
(0.0986561 0.0376622 -3.8038e-21)
(0.635458 -0.0975356 5.96562e-21)
(0.816456 0.444852 1.32809e-20)
(0.775244 0.220046 4.8965e-21)
(0.386139 -0.103084 1.3096e-20)
(0.376718 0.307274 0)
(0.0207597 -0.00286934 -1.8874e-21)
(0.697701 -0.170272 5.01684e-21)
(0.687845 0.418941 0)
(0.127938 0.100331 0)
(0.577343 -0.137534 6.13916e-21)
(0.851549 0.378309 1.65261e-21)
(0.00322793 0.000628405 -7.56754e-21)
(0.409674 -0.222915 -5.13061e-21)
(0.499914 0.216754 0)
(0.457264 0.280548 3.20125e-21)
(0.469201 -0.16856 0)
(0.00302376 -0.00350322 -7.58278e-21)
(0.0766022 -0.00499884 -1.22565e-23)
(0.69557 -0.0881599 7.82585e-22)
(0.788901 0.489473 0)
(0.0510658 0.0492362 0)
(0.622275 -0.205597 0)
(0.827597 0.379975 -7.6486e-21)
(0.815429 0.442134 4.71449e-21)
(0.821433 0.440914 -3.81406e-21)
(0.0671332 0.0261971 7.28672e-21)
(0.665498 -0.132588 1.3267e-21)
(0.0767076 0.0328547 0)
(0.651801 -0.12504 0)
(0.859535 0.363227 -3.21263e-21)
(0.564031 -0.146686 -4.0543e-21)
(0.137436 0.116406 0)
(0.321081 0.319562 0)
(0.431737 -0.181884 0)
(0.870445 0.227573 0)
(0.560413 0.296189 -7.87163e-21)
(0.303875 0.0781012 1.88449e-20)
(0.525234 0.100175 -7.54214e-21)
(0.863382 0.331249 -9.22445e-21)
(0.530036 -0.151966 -1.49334e-21)
(0.172624 0.156661 -1.44831e-20)
(0.192307 0.175827 -9.40822e-21)
(0.862807 0.318577 1.28278e-20)
(0.515156 -0.152632 2.07257e-21)
(0.774872 0.514613 -5.1282e-21)
(0.0827248 -0.0251573 -7.17376e-21)
(0.715113 -0.0665373 0)
(0.679271 0.49333 0)
(0.678553 0.0522358 -3.10613e-21)
(0.194841 -0.0504636 1.66195e-20)
(0.651068 0.443285 0)
(0.644671 0.0673937 -1.4133e-20)
(0.214874 -0.0270596 -1.52292e-23)
(0.824625 0.341686 1.21608e-20)
(0.519573 -0.106763 -1.80581e-21)
(0.193511 0.147025 8.23391e-21)
(0.836081 0.333475 0)
(0.515288 -0.119663 -1.69594e-21)
(0.196572 0.158091 -7.56457e-21)
(0.495617 0.294208 0)
(0.321248 0.0342975 2.18096e-20)
(0.585717 0.149198 0)
(0.686936 0.442158 0)
(0.619855 0.037699 7.95383e-21)
(0.191865 -0.00381357 -2.49125e-21)
(0.123965 0.148709 1.51249e-20)
(0.532458 -0.230813 1.30255e-20)
(0.903289 0.29553 0)
(0.787987 0.329154 1.36728e-22)
(0.0325677 0.0395066 -4.65187e-21)
(0.56861 -0.246711 -3.52003e-21)
(0.773871 0.306193 1.38011e-22)
(0.0300121 0.0380009 0)
(0.546603 -0.252652 1.01092e-20)
(0.581314 0.386107 -4.38765e-21)
(0.257962 -0.00794157 2.39865e-21)
(0.624235 0.104484 1.1019e-22)
(0.571058 -0.242145 -1.47276e-22)
(0.0171575 0.0179031 -1.92819e-20)
(0.715306 0.330871 0)
(0.806668 0.452767 -1.14917e-20)
(0.107539 0.0320341 0)
(0.634775 -0.0793464 0)
(0.0170227 0.0202657 7.64097e-21)
(0.534342 -0.253691 5.47038e-21)
(0.706389 0.300261 -6.25542e-21)
(0.579566 0.23811 -1.05185e-20)
(0.362532 0.167306 -1.13151e-20)
(0.43141 0.0688316 -5.84403e-23)
(0.738137 0.367809 1.83162e-21)
(0.528049 -0.0193402 1.84931e-21)
(0.208733 0.0948608 7.46264e-21)
(0.365807 -0.0967637 -1.49407e-20)
(0.76 0.204809 -1.75395e-20)
(0.407499 0.327756 0)
(0.0688533 0.0848228 0)
(0.557656 -0.238623 3.29725e-21)
(0.863902 0.316043 0)
(0.484221 -0.14499 0)
(0.85168 0.296279 0)
(0.231315 0.21038 0)
(0.0553909 -0.00637945 0)
(0.77503 0.478083 4.08579e-21)
(0.714145 -0.112454 -4.59689e-21)
(0.760748 0.375788 0)
(0.534739 -0.0378126 -9.17967e-22)
(0.194923 0.0967133 1.61364e-23)
(0.548074 0.280725 7.60138e-21)
(0.319671 0.0899671 -1.61727e-20)
(0.513691 0.104992 0)
(0.578321 -0.227052 1.1562e-20)
(0.856508 0.338154 -3.79052e-21)
(0.0670064 0.0779337 0)
(0.109082 0.0728296 8.73033e-21)
(0.60248 -0.129328 -3.90415e-22)
(0.840216 0.404871 -1.84942e-22)
(0.753938 0.417821 0)
(0.738452 0.409845 -4.34578e-21)
(0.0303875 0.011366 -4.70972e-21)
(0.025836 0.0106333 5.8232e-21)
(0.679413 -0.179324 3.30119e-21)
(0.672052 -0.189007 -2.71417e-21)
(0.751355 0.290859 0)
(0.446213 -0.0587226 -1.25501e-20)
(0.281193 0.195377 -8.99079e-21)
(0.478243 -0.107058 -1.80991e-20)
(0.818035 0.303545 0)
(0.237639 0.193351 9.94455e-21)
(0.641497 0.264208 8.6014e-21)
(0.43333 0.0224916 -6.47896e-21)
(0.321257 0.171817 -1.39288e-20)
(0.571849 -0.244049 -7.67499e-21)
(0.821073 0.329664 -4.85084e-21)
(0.556275 -0.249316 3.65847e-21)
(0.0433374 0.0530664 4.92751e-21)
(0.827955 0.313604 4.54495e-21)
(0.047618 0.0593829 0)
(0.80117 0.391417 0)
(0.558238 -0.0746187 0)
(0.16259 0.092521 -9.31904e-21)
(0.844171 0.348712 -4.87958e-21)
(0.827898 0.343779 1.23056e-20)
(0.591508 -0.22512 -5.03906e-21)
(0.589481 -0.233167 1.26344e-20)
(0.0560835 0.0641489 -1.29785e-20)
(0.0465334 0.053762 1.91542e-24)
(0.80821 0.292534 0)
(0.460603 -0.106449 1.66939e-20)
(0.264055 0.217922 -1.28936e-20)
(0.719619 0.316683 -7.99936e-21)
(0.487917 -0.0280261 1.11502e-20)
(0.239345 0.134989 0)
(0.758099 0.458488 0)
(0.0401591 -0.00164435 -9.07679e-22)
(0.712445 -0.13934 -4.92381e-21)
(0.751371 0.306328 -5.87451e-21)
(0.462511 -0.0509685 0)
(0.262533 0.174662 1.49529e-20)
(0.670323 0.281697 -3.45541e-21)
(0.445404 0.00425527 7.59568e-21)
(0.300385 0.164493 -8.15182e-21)
(0.745811 0.429348 0)
(0.0319793 0.00574486 0)
(0.695719 -0.167512 6.79558e-21)
(0.761018 0.392776 0)
(0.556085 -0.0338414 -1.96516e-21)
(0.177005 0.0755425 9.262e-21)
(0.394088 -0.164385 0)
(0.839232 0.203299 0)
(0.385813 0.365989 4.92499e-22)
(0.62365 0.472524 4.90837e-22)
(0.693831 0.0874968 0)
(0.232805 -0.0688426 -8.78273e-21)
(0.491246 -0.208001 -7.85152e-21)
(0.212131 0.231769 0)
(0.903921 0.267377 0)
(0.00207385 -0.00255304 1.82126e-20)
(0.394498 -0.173074 -5.36779e-21)
(0.425177 0.21392 2.99882e-21)
(0.757918 0.339201 0)
(0.495967 -0.0428344 -6.85117e-21)
(0.226078 0.134478 0)
(0.789699 0.451248 -7.71177e-21)
(0.0499057 0.0118764 -2.46422e-20)
(0.690027 -0.13931 9.96938e-21)
(0.275255 -0.114948 0)
(0.750823 0.118115 6.8614e-21)
(0.571347 0.47883 0)
(0.556815 0.345459 0)
(0.00658991 -0.00280746 4.561e-21)
(0.587337 -0.186429 0)
(0.413091 0.272064 -8.5959e-21)
(0.422447 0.292836 8.8023e-21)
(0.356873 -0.0156947 0)
(0.662584 0.20335 -7.35683e-21)
(0.350884 -0.0342558 1.40707e-20)
(0.683102 0.197121 5.91835e-21)
(0.637196 0.246885 -8.09029e-21)
(0.412627 0.0225453 -8.58796e-21)
(0.348404 0.19537 0)
(0.474005 0.309158 -7.54378e-21)
(0.443775 0.286487 0)
(0.322613 -0.00515436 0)
(0.636214 0.166979 0)
(0.33957 0.000324605 7.87338e-21)
(0.636146 0.18297 -5.25972e-23)
(0.739557 0.333666 -5.06556e-22)
(0.468439 -0.0225125 4.84792e-21)
(0.263929 0.153849 1.0075e-20)
(0.724596 0.305344 1.37391e-20)
(0.459363 -0.0306365 0)
(0.274246 0.169398 0)
(0.0380885 0.049703 0)
(0.536888 -0.257451 0)
(0.802778 0.298569 -4.75362e-21)
(0.609203 0.391155 1.2041e-20)
(0.609274 0.0882282 0)
(0.244274 0.00366719 -4.44603e-21)
(0.843481 0.366312 1.02236e-20)
(0.60614 -0.21132 -5.80284e-21)
(0.0585847 0.0623569 7.41021e-21)
(0.827191 0.360304 0)
(0.839411 0.365416 -6.67122e-21)
(0.539628 -0.105796 2.24978e-21)
(0.551769 -0.118114 -7.18877e-21)
(0.170657 0.12597 1.02776e-20)
(0.156844 0.120129 9.55832e-21)
(0.6047 0.371369 0)
(0.587861 0.0851551 0)
(0.251221 0.0217044 -2.09038e-21)
(0.705608 0.473309 -4.72078e-21)
(0.645924 0.0294128 0)
(0.179009 -0.0206853 -5.53961e-21)
(0.797225 0.359135 3.48004e-21)
(0.524406 -0.0779788 0)
(0.189279 0.126093 -9.39526e-21)
(0.498497 0.239526 -8.30311e-21)
(0.506845 0.134229 -4.0598e-21)
(0.355721 0.0991701 -4.348e-21)
(0.850822 0.342173 0)
(0.532717 -0.135174 0)
(0.17353 0.147197 1.53976e-20)
(0.541028 0.300787 0)
(0.303833 0.0590901 -2.39105e-21)
(0.548761 0.116583 0)
(0.802103 0.311391 7.84001e-21)
(0.477376 -0.0938386 9.3008e-21)
(0.242428 0.184611 1.28955e-21)
(0.708712 0.455646 -4.75303e-21)
(0.627253 0.0225741 -9.06813e-21)
(0.177869 -0.00525819 0)
(0.509745 0.260412 8.23274e-21)
(0.494943 0.263193 3.68598e-21)
(0.52265 0.128166 -3.97257e-21)
(0.337511 0.0844678 8.58696e-21)
(0.545125 0.140451 0)
(0.336285 0.0680937 1.53346e-20)
(0.467309 0.276467 3.75254e-21)
(0.335355 0.0284843 -1.0182e-20)
(0.446883 0.275992 -2.41668e-21)
(0.594958 0.165013 0)
(0.346287 0.012222 -4.99381e-21)
(0.622481 0.182972 8.42478e-21)
(0.653937 0.394021 -4.35388e-21)
(0.68008 0.395112 0)
(0.579389 0.052765 -8.32252e-21)
(0.56914 0.0353776 6.49368e-21)
(0.22182 0.0300122 1.98336e-20)
(0.212669 0.0426495 -1.64994e-20)
(0.0911924 0.0124929 0)
(0.663274 -0.0818932 3.66418e-21)
(0.801661 0.471638 6.8218e-21)
(0.41105 0.375509 -1.65706e-20)
(0.817293 0.194075 -7.68217e-21)
(0.3772 -0.149329 1.58664e-20)
(0.0813932 0.0157681 8.31301e-21)
(0.0839361 0.027208 0)
(0.666427 -0.099316 -3.16703e-21)
(0.652302 -0.108247 -5.44979e-21)
(0.806026 0.466095 -1.74009e-20)
(0.815711 0.452218 9.04608e-21)
(0.505433 0.41456 0)
(0.31037 -0.099766 8.45222e-21)
(0.743115 0.152755 -1.74226e-21)
(0.486067 0.20493 -1.75179e-20)
(0.394506 0.134773 0)
(0.468911 0.136921 1.39134e-20)
(0.85079 0.356274 3.18564e-21)
(0.548991 -0.134162 8.1156e-21)
(0.156548 0.129354 0)
(0.573106 0.353041 0)
(0.267702 0.0174743 1.99265e-21)
(0.592078 0.105349 6.98088e-21)
(0.722946 0.456747 0)
(0.623494 0.0115752 0)
(0.168719 0.00207857 1.32602e-21)
(0.786211 0.486622 0)
(0.790379 0.47332 0)
(0.664074 -0.0536657 -1.93058e-21)
(0.108515 0.000251381 1.01503e-20)
(0.649315 -0.0561578 5.26855e-21)
(0.11236 0.0122036 -1.37304e-20)
(0.816593 0.385178 -6.56414e-21)
(0.560616 -0.0902003 -7.53191e-21)
(0.154652 0.0983369 -4.4758e-21)
(0.613364 0.361604 -5.16624e-21)
(0.617449 -0.19485 0)
(0.010098 -0.000305232 5.57825e-21)
(0.290105 -0.114119 0)
(0.752851 0.130745 -5.60398e-21)
(0.546388 0.456708 0)
(0.595443 0.483418 -4.97046e-21)
(0.584357 0.46559 5.38063e-21)
(0.258046 -0.0994499 5.49502e-21)
(0.731223 0.105652 0)
(0.262766 -0.0893246 0)
(0.720886 0.110827 0)
(0.868785 0.295133 1.12804e-20)
(0.494555 -0.163654 -1.52569e-20)
(0.216894 0.205557 -7.00657e-22)
(0.687652 0.470648 9.6844e-21)
(0.649886 0.0426984 0)
(0.191361 -0.0262532 5.72269e-21)
(0.53956 0.430988 0)
(0.289431 -0.0920588 -1.96478e-20)