/*--------------------------------*- C++ -*----------------------------------*\
  =========                 |
  \\      /  F ield         | OpenFOAM: The Open Source CFD Toolbox
   \\    /   O peration     | Website:  https://openfoam.org
    \\  /    A nd           | Version:  6
     \\/     M anipulation  |
\*---------------------------------------------------------------------------*/
FoamFile
{
    version     2.0;
    format      ascii;
    class       volVectorField;
    location    "0";
    object      U;
}
// * * * * * * * * * * * * * * * * * * * * * * * * * * * * * * * * * * * * * //

dimensions      [0 1 -1 0 0 0 0];

internalField   nonuniform List<vector> 
13046
(
(-0.562485 0.297925 0)
(-0.512382 0.0744152 -5.93933e-21)
(-0.293003 0.117289 -1.32567e-20)
(-0.558724 0.237676 0)
(-0.349437 0.173007 -1.18872e-20)
(-0.443698 0.074545 0)
(-0.584458 0.247644 1.72267e-21)
(-0.445549 0.0511211 3.0526e-21)
(-0.333361 0.181848 -1.31144e-20)
(-0.730577 0.365533 6.04927e-21)
(-0.722591 -0.215711 0)
(-0.0739763 0.0907696 8.98148e-21)
(-0.622791 0.310058 -5.46955e-21)
(-0.513442 0.0256216 -9.53784e-21)
(-0.259085 0.130405 7.31983e-21)
(-0.706008 0.417888 -7.79843e-21)
(-0.0775994 0.0588982 2.15693e-20)
(-0.749751 -0.145594 5.14408e-21)
(-0.434968 0.230522 0)
(-0.379269 0.0917117 -6.44328e-21)
(-0.531781 0.174527 1.80275e-20)
(-0.712516 0.408817 -3.33646e-21)
(-0.0763296 0.0667271 -2.87979e-20)
(-0.741533 -0.159705 0)
(-0.531618 0.252282 7.25501e-21)
(-0.479827 0.0975745 -1.45098e-20)
(-0.33932 0.139842 0)
(-0.622578 0.330267 -1.00404e-20)
(-0.530954 0.0211647 2.78289e-21)
(-0.241123 0.115456 -1.26422e-20)
(-0.562048 0.312723 0)
(-0.530423 0.0779849 0)
(-0.277824 0.0998849 1.34968e-20)
(-0.507036 0.234977 -8.42448e-21)
(-0.359805 0.141356 4.45206e-21)
(-0.473644 0.116776 2.52703e-20)
(-0.501998 0.219207 -1.29796e-20)
(-0.379855 0.157092 6.77561e-21)
(-0.457187 0.121229 -1.30155e-20)
(-0.50159 0.334926 9.39561e-21)
(-0.291116 0.0291061 2.51234e-21)
(-0.602603 0.121126 -8.94444e-21)
(-0.47006 0.178209 5.87543e-21)
(-0.429839 0.176347 1.01172e-20)
(-0.431917 0.143236 0)
(-0.491877 0.17954 3.6939e-21)
(-0.424062 0.191358 -1.54906e-20)
(-0.414555 0.125609 -1.94142e-21)
(-0.575792 0.290895 0)
(-0.497723 0.0589044 -4.28113e-22)
(-0.288406 0.129724 1.88093e-23)
(-0.326873 -0.0510599 1.57062e-20)
(-0.44919 0.366447 0)
(-0.685244 0.147805 -1.09813e-20)
(-0.350948 -0.072555 -2.23725e-20)
(-0.705903 0.159864 -1.75501e-20)
(-0.423446 0.360666 1.48015e-20)
(-0.696191 -0.0155723 -2.23748e-21)
(-0.655198 0.462463 0)
(-0.14549 0.0132034 1.18316e-20)
(-0.711522 0.284254 -5.19046e-21)
(-0.502513 -0.0708213 5.75553e-21)
(-0.254291 0.205951 -3.07116e-20)
(-0.125387 0.11501 1.63415e-20)
(-0.660783 -0.144526 -3.73081e-21)
(-0.739876 0.366271 -8.97951e-21)
(-0.638194 0.470332 0)
(-0.695817 0.00708085 0)
(-0.161708 -0.00467959 0)
(-0.62585 0.461953 -4.12741e-21)
(-0.684603 0.0194995 0)
(-0.173023 -0.00413795 9.42616e-21)
(-0.71487 -0.0280666 0)
(-0.664312 0.468954 1.1988e-22)
(-0.133343 0.00937107 8.3983e-24)
(-0.448263 0.247552 0)
(-0.361907 0.0804642 7.01294e-21)
(-0.544314 0.161882 -1.28726e-20)
(-0.112361 0.0282991 1.31447e-20)
(-0.682255 0.456775 -1.29626e-20)
(-0.721227 -0.0660001 0)
(-0.548775 0.255378 3.79703e-21)
(-0.469068 0.0840186 0)
(-0.331331 0.151165 0)
(-0.111669 0.106781 -1.47075e-20)
(-0.680834 -0.160225 -2.92047e-21)
(-0.741447 0.371122 5.35643e-21)
(-0.774259 0.307753 -9.41187e-21)
(-0.162595 0.178486 0)
(-0.606574 -0.181006 -2.89567e-21)
(-0.195551 0.242134 0)
(-0.811724 0.247286 0)
(-0.567577 -0.233616 3.90989e-22)
(-0.692049 0.358191 0)
(-0.708059 0.355515 4.91259e-21)
(-0.585534 -0.0523018 1.12417e-20)
(-0.592544 -0.0742135 -5.28085e-21)
(-0.185036 0.118355 -6.70718e-21)
(-0.177182 0.128427 1.71646e-20)
(-0.180037 0.196393 -8.21234e-22)
(-0.779748 0.293547 9.20809e-21)
(-0.587947 -0.184976 0)
(-0.513557 0.194192 -3.23485e-23)
(-0.406651 0.192061 8.157e-21)
(-0.415517 0.108506 0)
(-0.391731 0.309251 0)
(-0.672781 0.189128 -5.36619e-21)
(-0.369132 -0.0361734 0)
(-0.456037 0.344581 1.6274e-20)
(-0.317361 -0.0168455 0)
(-0.650406 0.145858 -2.05493e-20)
(-0.678537 0.347347 0)
(-0.0395407 0.065578 0)
(-0.716018 -0.265215 -4.2795e-21)
(-0.602677 0.29723 1.51159e-20)
(-0.500669 0.0409189 4.01072e-21)
(-0.275122 0.136727 1.32122e-20)
(-0.696086 0.39271 6.224e-21)
(-0.686116 0.379468 -1.17053e-20)
(-0.634045 -0.0630516 -9.5297e-21)
(-0.152201 0.0880389 7.71047e-21)
(-0.6076 -0.0472706 5.80771e-21)
(-0.169526 0.096791 -7.20507e-21)
(-0.71867 0.369492 -5.14202e-21)
(-0.733448 -0.225373 -5.94262e-21)
(-0.0628699 0.0809565 -4.02978e-21)
(-0.659743 0.352275 0)
(-0.561249 -0.0164779 -7.39997e-21)
(-0.207508 0.110609 1.55347e-20)
(-0.523445 0.341703 0)
(-0.276003 0.0396456 -1.24477e-20)
(-0.592667 0.104697 5.37916e-22)
(-0.214537 0.255575 0)
(-0.806475 0.242931 0)
(-0.551342 -0.214722 0)
(-0.736956 0.342444 0)
(-0.605072 -0.11644 -1.47919e-20)
(-0.169837 0.146608 -1.84665e-20)
(-0.581343 0.324984 0)
(-0.541399 0.0621581 0)
(-0.261523 0.0929423 0)
(-0.650791 0.247871 0)
(-0.436731 -0.00877047 0)
(-0.32322 0.22163 0)
(-0.441329 0.344577 0)
(-0.331974 -0.0312657 0)
(-0.666216 0.155742 1.10659e-20)
(-0.396036 0.29812 -1.71235e-21)
(-0.660321 0.191607 -1.14495e-20)
(-0.371898 -0.022622 1.35493e-20)
(-0.720324 0.295504 1.24448e-20)
(-0.523915 -0.0831277 0)
(-0.234319 0.190149 4.00016e-20)
(-0.382135 0.250195 0)
(-0.618509 0.207257 1.22827e-20)
(-0.389149 0.0184112 -3.4085e-21)
(-0.403617 -0.0980114 0)
(-0.730609 0.192652 1.24416e-20)
(-0.431879 -0.112032 0)
(-0.742934 0.209694 7.14966e-21)
(-0.364962 0.330616 0)
(-0.335118 0.310674 0)
(-0.66691 0.222174 1.56799e-21)
(-0.411004 -0.0276628 7.16594e-21)
(-0.346694 0.25401 -7.50788e-21)
(-0.745504 0.352876 -6.21158e-21)
(-0.0821445 0.103691 0)
(-0.703865 -0.22548 -7.3416e-21)
(-0.694237 0.358111 -4.66886e-21)
(-0.0462934 0.0695267 -1.84484e-21)
(-0.731744 -0.24967 0)
(-0.736068 0.353588 -7.35646e-21)
(-0.622526 -0.120864 0)
(-0.15441 0.133286 2.10073e-20)
(-0.548153 0.389846 0)
(-0.631902 0.0868605 2.91806e-21)
(-0.248715 0.00863983 7.33233e-21)
(-0.654605 0.212166 1.03994e-20)
(-0.365529 0.267084 3.58078e-21)
(-0.394559 -0.0143742 0)
(-0.103821 0.134362 0)
(-0.668241 -0.228763 0)
(-0.768291 0.328241 5.28794e-21)
(-0.531843 0.373436 0)
(-0.622198 0.10011 -6.26036e-21)
(-0.263376 0.0161542 1.8908e-21)
(-0.380865 0.26244 0)
(-0.628663 0.202233 0)
(-0.379839 0.00598839 0)
(-0.632935 0.238803 5.11653e-21)
(-0.428092 0.00512423 0)
(-0.332985 0.216802 0)
(-0.512549 -0.00207075 -5.13968e-23)
(-0.249887 0.147046 -8.95863e-21)
(-0.649743 0.338279 1.58817e-20)
(-0.545051 -0.00357424 0)
(-0.223718 0.119484 -1.94654e-20)
(-0.763345 0.337016 -9.59546e-21)
(-0.132036 0.142413 1.32948e-20)
(-0.649768 -0.182583 -1.41476e-20)
(-0.209897 0.235425 1.20861e-20)
(-0.790775 0.263922 5.68205e-21)
(-0.557414 -0.191478 1.44738e-20)
(-0.798317 0.276724 -1.61371e-20)
(-0.595971 -0.216607 0)
(-0.169852 0.20713 -1.18849e-20)
(-0.321214 -0.0811086 -8.0749e-22)
(-0.714537 0.132363 4.97074e-21)
(-0.464917 0.410944 0)
(-0.62259 0.271075 -2.32103e-20)
(-0.67439 0.466977 6.57096e-21)
(-0.11632 0.0189156 -8.09967e-21)
(-0.730325 -0.0579425 0)
(-0.614454 -0.23035 0)
(-0.794179 0.287524 -1.47509e-20)
(-0.149914 0.187059 0)
(-0.519981 0.21382 -1.87098e-20)
(-0.382909 0.176191 -6.65108e-21)
(-0.435285 0.10407 1.91834e-20)
(-0.609561 0.338449 0)
(-0.542989 0.0359029 -4.00678e-22)
(-0.244641 0.103724 -7.44729e-21)
(-0.219611 0.25094 9.23547e-21)
(-0.797908 0.252266 0)
(-0.547407 -0.200655 -1.66728e-20)
(-0.640398 0.281837 1.86219e-20)
(-0.497842 -0.00473922 1.73124e-20)
(-0.263261 0.161096 0)
(-0.0646709 0.0942458 0)
(-0.701547 -0.256981 6.39426e-21)
(-0.732809 0.342095 0)
(-0.441546 0.396689 0)
(-0.724252 0.142312 0)
(-0.340199 -0.0940075 0)
(-0.791273 0.278214 1.41623e-20)
(-0.582765 -0.199882 0)
(-0.181947 0.209661 -1.15859e-23)
(-0.704582 0.217372 4.62038e-21)
(-0.41694 -0.0696634 -5.54841e-21)
(-0.338072 0.281891 0)
(-0.654808 0.366189 0)
(-0.574154 -0.0106893 6.90699e-21)
(-0.199703 0.0971209 1.22543e-20)
(-0.492493 -0.188168 -2.0596e-20)
(-0.797801 0.212529 -1.02498e-20)
(-0.282625 0.31125 7.26234e-21)
(-0.76087 0.207449 0)
(-0.446358 -0.133921 -8.03796e-21)
(-0.325383 0.316484 -2.59899e-22)
(-0.062647 0.097406 -1.18125e-20)
(-0.685722 -0.269974 0)
(-0.73513 0.328102 -5.5521e-21)
(-0.492173 0.370233 8.67278e-21)
(-0.291414 -0.0124426 -9.14782e-21)
(-0.648788 0.123681 9.12699e-22)
(-0.62857 0.369244 5.07996e-21)
(-0.0276241 0.0434893 -1.73419e-20)
(-0.75109 -0.231715 0)
(-0.410872 0.215271 -3.86044e-21)
(-0.539127 0.188969 -1.45639e-20)
(-0.393654 0.0860406 1.93035e-20)
(-0.699198 0.245622 5.57997e-21)
(-0.692479 0.227287 3.0927e-23)
(-0.448229 -0.0613707 -1.33569e-20)
(-0.423108 -0.0554986 0)
(-0.331715 0.26576 6.82496e-21)
(-0.30219 0.243138 -7.09737e-21)
(-0.100615 0.0340644 -1.72006e-20)
(-0.687155 0.451035 6.83947e-21)
(-0.735026 -0.0804986 -1.25136e-20)
(-0.637698 0.368492 0)
(-0.577254 0.010785 0)
(-0.20937 0.0865951 -1.61532e-20)
(-0.772119 0.219698 -2.66729e-21)
(-0.470892 -0.152067 0)
(-0.301163 0.302574 0)
(-0.717091 0.369773 -6.0184e-21)
(-0.622122 -0.0898272 0)
(-0.155437 0.114163 7.68274e-21)
(-0.46236 0.188797 3.97118e-21)
(-0.450717 0.150951 5.7962e-21)
(-0.418758 0.161131 -1.98452e-21)
(-0.730437 0.223416 -9.13329e-21)
(-0.44038 -0.0979349 0)
(-0.319838 0.286381 -1.19546e-20)
(-0.636142 0.382194 0)
(-0.59367 0.0112827 8.62396e-21)
(-0.199667 0.0727779 -1.04488e-20)
(-0.644292 0.301176 0)
(-0.660908 0.308974 1.86266e-21)
(-0.494103 0.381957 3.15139e-21)
(-0.288564 -0.0241775 2.65679e-20)
(-0.660121 0.121872 -2.1968e-20)
(-0.73908 0.237655 -9.42628e-21)
(-0.463005 -0.109671 1.17165e-20)
(-0.293513 0.267065 1.09102e-20)
(-0.727552 0.367091 0)
(-0.148146 0.11996 -2.70337e-20)
(-0.631222 -0.107573 -7.3995e-21)
(-0.460464 0.330009 -2.24564e-20)
(-0.318062 -0.0035209 0)
(-0.63524 0.149189 6.94629e-21)
(-0.374004 0.34946 -1.3916e-20)
(-0.740109 0.182781 -7.19724e-21)
(-0.398246 -0.111405 0)
(-0.668651 0.409062 -5.9982e-21)
(-0.635837 -0.02699 -7.65851e-21)
(-0.158478 0.0622569 4.80302e-21)
(-0.469725 0.381818 1.14156e-21)
(-0.312098 -0.0467454 0)
(-0.682504 0.137579 1.51236e-20)
(-0.679658 0.416247 0)
(-0.690374 0.409374 0)
(-0.652078 -0.0415209 -4.99585e-21)
(-0.147347 0.0620943 -1.24868e-20)
(-0.652253 -0.0587434 7.06889e-21)
(-0.142848 0.0733247 1.32799e-20)
(-0.108019 0.12835 -1.03505e-20)
(-0.674056 -0.21122 0)
(-0.762983 0.340261 -7.03147e-21)
(-0.671496 0.380943 6.92466e-21)
(-0.599466 -0.03065 0)
(-0.177512 0.0894355 4.23025e-21)
(-0.665475 -0.272099 1.23827e-20)
(-0.0208485 0.0455048 1.51753e-20)
(-0.602973 0.323378 1.30699e-20)
(-0.588075 0.191835 -6.69367e-21)
(-0.404304 0.245638 0)
(-0.377268 0.0447556 0)
(-0.691613 0.281651 1.25681e-20)
(-0.489401 -0.0496206 0)
(-0.263323 0.197967 2.34343e-20)
(-0.141937 0.140976 -8.42632e-21)
(-0.756659 0.341213 1.95857e-20)
(-0.636938 -0.161186 1.05784e-20)
(-0.3552 -0.0857499 0)
(-0.718028 0.158584 6.54226e-21)
(-0.417866 0.373117 -1.67704e-20)
(-0.512046 -0.193798 -2.52968e-20)
(-0.798937 0.226295 -6.32968e-21)
(-0.257891 0.288188 0)
(-0.476025 0.0166445 -1.7298e-20)
(-0.287493 0.169511 0)
(-0.691939 0.317037 1.38372e-20)
(-0.529093 -0.0483379 6.35366e-21)
(-0.226256 0.157344 7.16195e-21)
(-0.461465 0.00942663 1.01833e-20)
(-0.298885 0.183712 7.72842e-23)
(-0.707973 0.418911 -4.69675e-22)
(-0.0877272 0.0598211 1.0113e-20)
(-0.734205 -0.129238 -7.55683e-21)
(-0.309675 -0.0904914 0)
(-0.721884 0.121694 1.59747e-21)
(-0.482274 0.429865 0)
(-0.704916 0.322656 -1.40954e-20)
(-0.545975 -0.063786 -7.75977e-21)
(-0.21372 0.160002 -8.80637e-21)
(-0.661435 0.240463 0)
(-0.42732 -0.0225782 -1.04155e-20)
(-0.327684 0.235269 0)
(-0.675447 0.173591 0)
(-0.352834 -0.0419335 0)
(-0.414807 0.326599 0)
(-0.568882 0.273144 -5.26801e-21)
(-0.481044 0.0676261 -9.46303e-21)
(-0.309643 0.14328 3.97772e-23)
(-0.396105 0.364843 1.72764e-20)
(-0.733832 0.170548 1.75802e-20)
(-0.380362 -0.103257 1.14242e-20)
(-0.776628 0.31603 -8.63844e-21)
(-0.630851 -0.197019 1.20556e-20)
(-0.142372 0.161642 -1.25475e-20)
(-0.520293 -0.184744 1.70834e-20)
(-0.79282 0.238451 6.41612e-21)
(-0.247313 0.272279 9.18446e-21)
(-0.595221 0.456166 -1.27341e-20)
(-0.203157 -0.016884 1.4177e-20)
(-0.679882 0.0478594 -1.0692e-20)
(-0.683896 0.438809 3.70729e-21)
(-0.677036 0.435614 -3.33866e-21)
(-0.6768 -0.0425924 -1.59418e-21)
(-0.692871 -0.0550356 0)
(-0.125695 0.0429472 -4.60795e-21)
(-0.136463 0.0432441 -4.0438e-21)
(-0.0241579 0.0453076 -2.05352e-20)
(-0.695074 -0.259861 -1.36378e-20)
(-0.61494 0.335114 3.2028e-21)
(-0.641376 0.378627 -3.20689e-22)
(-0.0320393 0.0443649 2.39957e-20)
(-0.765424 -0.223413 0)
(-0.716141 0.253074 -2.04777e-20)
(-0.468216 -0.0766346 -3.02394e-21)
(-0.289966 0.242225 0)
(-0.118488 0.129438 -2.55979e-20)
(-0.759736 0.343692 6.99025e-21)
(-0.666742 -0.189469 0)
(-0.637129 0.437656 1.80916e-20)
(-0.65111 0.435068 -1.35787e-20)
(-0.657856 0.00671663 8.19685e-21)
(-0.658796 -0.0076882 3.1373e-21)
(-0.17285 0.0236097 -7.98602e-21)
(-0.160907 0.0339149 -4.0026e-21)
(-0.127658 0.176865 0)
(-0.615939 -0.260788 0)
(-0.798127 0.273249 2.66251e-21)
(-0.590132 0.363885 -5.96577e-21)
(-0.0215995 0.03481 0)
(-0.743444 -0.225846 0)
(-0.500939 0.155545 -5.31883e-23)
(-0.457031 0.223981 8.48398e-21)
(-0.378395 0.116243 4.28298e-21)
(-0.643918 0.350643 -1.06523e-20)
(-0.723115 -0.256599 6.2608e-21)
(-0.0306895 0.0526307 1.1237e-21)
(-0.575586 0.390893 0)
(-0.618914 0.0663211 -1.3497e-20)
(-0.230453 0.0265823 2.26355e-24)
(-0.775123 0.319659 7.21704e-23)
(-0.656439 -0.229525 1.74347e-20)
(-0.116612 0.146025 4.12107e-24)
(-0.585496 -0.292419 3.7536e-22)
(-0.0198745 0.0463757 -8.73964e-21)
(-0.582554 0.261943 -5.20652e-21)
(-0.482755 0.314663 -8.10893e-21)
(-0.308789 0.0381458 7.93642e-21)
(-0.592613 0.135743 2.18423e-20)
(-0.561572 0.204322 0)
(-0.402178 0.0688159 -2.1395e-20)
(-0.389931 0.214652 1.09603e-20)
(-0.707727 0.382102 0)
(-0.0582087 0.0723903 1.20235e-20)
(-0.746703 -0.215126 4.18667e-24)
(-0.57775 0.20671 0)
(-0.394865 0.0549844 -7.55492e-21)
(-0.38396 0.225937 -1.54773e-20)
(-0.487291 0.160283 8.71047e-21)
(-0.451445 0.209512 -4.5097e-21)
(-0.393962 0.12851 2.25217e-21)
(-0.426972 0.402843 8.33398e-21)
(-0.744139 0.148546 -6.29323e-21)
(-0.360675 -0.117005 1.26314e-20)
(-0.559213 0.167153 0)
(-0.356708 0.0672595 0)
(-0.437113 0.259444 1.27127e-21)
(-0.581273 0.183037 1.05964e-20)
(-0.365769 0.05345 5.83544e-21)
(-0.422969 0.258958 1.80903e-22)
(-0.578174 0.451365 1.93284e-20)
(-0.681873 0.0600276 -1.05289e-20)
(-0.21954 -0.0287717 -1.39893e-20)
(-0.0816577 0.0859644 1.81288e-20)
(-0.0837086 0.0926859 -1.83835e-20)
(-0.727207 -0.183685 5.14662e-21)
(-0.716531 -0.195677 3.57354e-21)
(-0.727453 0.387146 0)
(-0.734732 0.377354 -6.19367e-21)
(-0.782097 0.311461 1.06098e-20)
(-0.636683 -0.211278 -1.08369e-20)
(-0.134651 0.164437 1.552e-20)
(-0.19116 -0.0244684 -9.08625e-21)
(-0.605894 0.471918 3.97687e-21)
(-0.693653 0.0379493 1.36385e-20)
(-0.508434 0.364055 -7.91984e-21)
(-0.279763 0.00501597 -8.33613e-21)
(-0.631009 0.113876 6.88128e-21)
(-0.770481 0.190025 0)
(-0.434848 -0.146623 8.31407e-21)
(-0.343622 0.343072 2.68959e-22)
(-0.611947 -0.305682 6.22594e-21)
(-0.0435097 0.0807889 -8.13819e-21)
(-0.685221 0.270185 -4.47653e-21)
(-0.177218 0.22359 0)
(-0.808043 0.259265 0)
(-0.582137 -0.235965 7.32066e-21)
(-0.713796 0.355061 5.37057e-21)
(-0.0567091 0.0817151 0)
(-0.723323 -0.247455 -6.27486e-21)
(-0.0140816 0.0365346 -3.23048e-32)
(-0.558556 -0.280795 -5.78019e-21)
(-0.536035 0.250242 5.28063e-21)
(-0.598058 -0.242044 6.46979e-21)
(-0.0108568 0.0292056 3.22307e-32)
(-0.51291 0.290434 -4.69462e-21)
(-0.514194 -0.116963 -1.61482e-20)
(-0.747577 0.271657 0)
(-0.24946 0.227536 -2.35155e-20)
(-0.625295 -0.28645 -3.35671e-21)
(-0.0893641 0.138667 -8.30608e-21)
(-0.775595 0.274394 0)
(-0.748048 0.332746 -9.21475e-21)
(-0.601508 -0.132897 9.18895e-21)
(-0.171289 0.157659 1.22863e-20)
(-0.680022 0.424799 1.58337e-20)
(-0.0566798 0.0416863 7.34398e-21)
(-0.789749 -0.156113 0)
(-0.60688 0.279562 4.07365e-21)
(-0.292697 0.159876 -4.47827e-21)
(-0.479415 0.03271 4.16424e-21)
(-0.606904 -0.253756 3.78502e-21)
(-0.143107 0.192577 8.7505e-21)
(-0.802464 0.269094 2.91274e-21)
(-0.761261 0.182013 -7.14265e-21)
(-0.362426 0.356273 -4.76203e-21)
(-0.416951 -0.135052 0)
(-0.483853 -0.149854 0)
(-0.769671 0.232045 0)
(-0.281691 0.284562 0)
(-0.00288119 0.0113691 0)
(-0.354914 -0.16119 -4.82196e-21)
(-0.309078 0.150258 3.91781e-21)
(-0.650223 -0.28827 6.19036e-21)
(-0.0247893 0.0522746 -1.05537e-20)
(-0.622198 0.308799 -5.4571e-21)
(-0.588548 0.267903 -1.04781e-20)
(-0.309933 0.161226 1.05246e-20)
(-0.468857 0.0486203 4.80651e-21)
(-0.639302 -0.251373 1.55412e-20)
(-0.786845 0.297091 -5.85456e-21)
(-0.113065 0.156423 0)
(-0.119376 0.173183 -9.20245e-21)
(-0.798917 0.267315 0)
(-0.611777 -0.274272 -1.1629e-20)
(-0.749147 0.362108 -6.38863e-21)
(-0.108522 0.114109 2.7462e-20)
(-0.681605 -0.177864 0)
(-0.101059 0.0545332 -2.07843e-20)
(-0.718724 -0.0989861 7.90972e-21)
(-0.701134 0.430197 0)
(-0.564423 0.463031 -2.43144e-20)
(-0.698005 0.068758 1.34182e-20)
(-0.234876 -0.0479258 -4.45123e-21)
(-0.679321 -0.0253556 2.38358e-21)
(-0.662513 0.448168 7.87647e-21)
(-0.145712 0.0286501 -1.263e-20)
(-0.0826817 0.0384376 -1.86789e-20)
(-0.69052 0.442745 0)
(-0.758403 -0.111254 0)
(-0.598054 0.373655 -3.79979e-21)
(-0.616454 0.385618 0)
(-0.588446 0.0480824 -1.40479e-20)
(-0.599213 0.0322462 1.5015e-20)
(-0.224639 0.0604575 2.1209e-21)
(-0.208854 0.0587058 -2.26135e-21)
(-0.579371 0.376076 3.64642e-21)
(-0.599249 0.0639542 0)
(-0.234859 0.0456104 4.07745e-21)
(-0.62747 0.450344 0)
(-0.670345 0.0154957 -1.32425e-20)
(-0.176118 0.00904009 2.88166e-21)
(-0.509517 -0.1695 -8.44681e-21)
(-0.783237 0.239626 6.58244e-21)
(-0.256225 0.26913 -1.89144e-20)
(-0.625136 -0.22678 0)
(-0.787012 0.299811 1.6128e-20)
(-0.137285 0.173922 0)
(-0.224028 0.236026 -6.09225e-21)
(-0.78088 0.263886 -4.23384e-21)
(-0.542841 -0.171809 -5.52676e-21)
(-0.637598 -0.24242 -8.87751e-22)
(-0.012801 0.0314365 5.62867e-21)
(-0.539204 0.31194 0)
(-0.522525 0.317394 7.28519e-21)
(-0.531283 0.307855 0)
(-0.289677 0.0675153 0)
(-0.562001 0.108354 2.67698e-20)
(-0.293155 0.0839926 0)
(-0.54436 0.100077 -1.69938e-20)
(-0.60365 0.433362 0)
(-0.584379 0.421692 0)
(-0.216603 0.00661208 3.2277e-23)
(-0.654177 0.0411598 8.20246e-21)
(-0.201402 0.0105301 2.10232e-20)
(-0.6472 0.0557752 -1.73096e-20)
(-0.564374 -0.302639 0)
(-0.0247761 0.0548027 1.18948e-20)
(-0.607403 0.25033 0)
(-0.641203 -0.242806 -9.1478e-21)
(-0.786034 0.302829 1.78349e-21)
(-0.117693 0.154662 5.52384e-21)
(-0.513839 0.396786 -1.37001e-20)
(-0.275575 -0.0276761 -9.59326e-21)
(-0.664983 0.108556 2.28245e-20)
(-0.473875 -0.17094 1.83126e-20)
(-0.78695 0.208213 1.71455e-20)
(-0.300301 0.318602 0)
(-0.107104 0.0489432 2.22249e-20)
(-0.71375 -0.086687 -8.41612e-21)
(-0.696228 0.435251 8.68855e-21)
(-0.683282 -0.283033 0)
(-0.690895 0.324174 0)
(-0.0417871 0.073742 0)
(-0.677382 -0.281198 0)
(-0.713876 0.318143 4.94152e-21)
(-0.0530141 0.0884075 2.00941e-21)
(-0.655405 0.420412 -7.50131e-21)
(-0.641625 -0.0132277 4.76029e-21)
(-0.164135 0.0490668 5.92446e-21)
(-0.446942 0.315223 -2.13075e-21)
(-0.330693 0.00496922 0)
(-0.62766 0.160944 -8.26459e-23)
(-0.744794 0.364914 7.44403e-21)
(-0.0970163 0.10598 1.6046e-20)
(-0.699124 -0.190083 -4.16245e-21)
(-0.518476 -0.135202 0)
(-0.759421 0.26731 0)
(-0.244676 0.238327 2.0268e-20)
(-0.130239 0.107301 5.16457e-21)
(-0.657445 -0.121939 1.26814e-20)
(-0.728983 0.379248 1.94417e-20)
(-0.569862 0.422137 0)
(-0.22823 -0.00483961 -1.40261e-20)
(-0.653696 0.066623 8.83041e-21)
(-0.695586 0.203476 8.78121e-23)
(-0.395575 -0.0588865 8.14452e-21)
(-0.365886 0.299286 0)
(-0.492844 0.342689 1.22e-22)
(-0.294276 0.0129324 -2.71871e-21)
(-0.620537 0.126137 -9.01771e-21)
(-0.0963237 0.113942 7.26682e-24)
(-0.693151 -0.210174 9.87908e-21)
(-0.751928 0.351342 8.35468e-21)
(-0.709026 0.387995 -3.55838e-21)
(-0.641694 -0.0834634 -3.72211e-21)
(-0.144777 0.0964454 0)
(-0.491206 0.305788 -7.90091e-21)
(-0.309544 0.055553 1.7039e-20)
(-0.57382 0.130698 -1.43928e-20)
(-0.685268 0.441046 6.17414e-21)
(-0.0713827 0.0358953 8.33546e-21)
(-0.776221 -0.126565 -5.98824e-21)
(-0.574872 0.341823 -4.60926e-21)
(-0.560075 0.0643661 0)
(-0.252229 0.0761336 0)
(-0.619461 0.225204 -1.90247e-20)
(-0.408707 0.0185981 4.70005e-21)
(-0.356091 0.230129 0)
(-0.482774 -0.130755 0)
(-0.757067 0.239605 1.34736e-20)
(-0.27934 0.270664 0)
(-0.660605 0.397857 -3.4838e-21)
(-0.0404247 0.0450612 -2.57941e-21)
(-0.786425 -0.20043 6.86818e-21)
(-0.660316 0.40923 9.62243e-21)
(-0.0422432 0.041248 0)
(-0.794532 -0.184174 -6.55814e-21)
(-0.121584 0.0935156 4.73477e-21)
(-0.672468 -0.116642 -7.55551e-21)
(-0.722457 0.391341 -1.78405e-20)
(-0.710303 0.189462 -6.32189e-21)
(-0.389946 -0.0773259 -8.17045e-21)
(-0.378406 0.32217 0)
(-0.0313088 0.0386476 2.3632e-21)
(-0.783936 -0.210775 -6.42117e-21)
(-0.631565 0.388487 0)
(-0.159703 0.156169 0)
(-0.615191 -0.152108 -7.75699e-21)
(-0.756681 0.330387 -2.2368e-21)
(-0.0106195 0.029566 9.4921e-21)
(-0.479909 -0.268413 6.49515e-21)
(-0.477952 0.203744 0)
(-0.436252 0.267092 -5.288e-21)
(-0.545668 -0.204866 0)
(-0.00660099 0.0199357 9.5108e-21)
(-0.0888919 0.0490472 1.69168e-23)
(-0.741681 -0.114009 0)
(-0.698046 0.433936 0)
(-0.0780924 0.10732 0)
(-0.694721 -0.242738 0)
(-0.748434 0.341424 1.12069e-20)
(-0.725503 0.392716 -6.53404e-21)
(-0.72901 0.389868 5.28615e-21)
(-0.088902 0.0817998 -9.08765e-21)
(-0.721296 -0.160303 -1.68672e-21)
(-0.0998218 0.0889624 -1.46974e-20)
(-0.701777 -0.149837 3.03658e-21)
(-0.76461 0.316287 4.31095e-21)
(-0.601815 -0.160142 5.11782e-21)
(-0.169776 0.171936 0)
(-0.32883 0.346218 0)
(-0.449975 -0.167269 0)
(-0.785753 0.192344 0)
(-0.530215 0.280242 0)
(-0.314111 0.110423 -2.3179e-20)
(-0.513271 0.10038 9.34966e-21)
(-0.769971 0.286982 1.22853e-20)
(-0.561845 -0.158852 1.8801e-21)
(-0.204169 0.208317 1.79857e-20)
(-0.222322 0.224975 1.17003e-20)
(-0.770484 0.27538 -1.70816e-20)
(-0.544132 -0.15627 -2.6093e-21)
(-0.683771 0.45617 6.94051e-21)
(-0.089049 0.0285165 8.94159e-21)
(-0.756877 -0.0917529 1.30716e-20)
(-0.60735 0.44467 0)
(-0.665948 0.0365875 3.93405e-21)
(-0.194238 0.0021387 -2.06052e-20)
(-0.589631 0.40349 0)
(-0.628284 0.0547949 1.77269e-20)
(-0.21813 0.022489 3.15499e-23)
(-0.737192 0.297111 -1.58092e-20)
(-0.539152 -0.107368 2.26433e-21)
(-0.223082 0.194677 -1.01897e-20)
(-0.747221 0.289278 0)
(-0.537042 -0.120216 2.12658e-21)
(-0.226148 0.205632 9.38283e-21)
(-0.478145 0.287378 0)
(-0.325744 0.0662561 -2.69027e-20)
(-0.561839 0.139939 8.06162e-21)
(-0.618025 0.397763 0)
(-0.612366 0.0277683 0)
(-0.2 0.0465388 3.08183e-21)
(-0.156369 0.210843 -1.89511e-20)
(-0.590195 -0.256188 -2.06465e-20)
(-0.811127 0.257504 0)
(-0.726027 0.299866 6.757e-21)
(-0.056702 0.0961846 0)
(-0.649654 -0.292916 4.48627e-21)
(-0.715919 0.279175 -1.09454e-22)
(-0.0535644 0.0942242 0)
(-0.627921 -0.29997 -1.2883e-20)
(-0.539836 0.360669 5.47686e-21)
(-0.261761 0.0351868 -2.9646e-21)
(-0.601544 0.0928763 -1.20401e-22)
(-0.656852 -0.290636 1.85451e-22)
(-0.034443 0.0658973 1.61426e-20)
(-0.666573 0.306212 0)
(-0.713037 0.398033 1.53207e-20)
(-0.128374 0.0875531 9.93347e-21)
(-0.665844 -0.0967409 0)
(-0.0350843 0.0690538 -2.397e-21)
(-0.617877 -0.303917 -6.96969e-21)
(-0.660612 0.277292 0)
(-0.549568 0.223684 1.29934e-20)
(-0.370382 0.186947 1.39199e-20)
(-0.429256 0.0828212 6.90137e-23)
(-0.665498 0.326088 -2.32355e-21)
(-0.532357 -0.0182389 -2.30896e-21)
(-0.231793 0.140377 -1.05187e-20)
(-0.367657 -0.0671104 1.85997e-20)
(-0.700109 0.176555 1.47923e-20)
(-0.402729 0.335866 0)
(-0.0997805 0.148125 0)
(-0.629163 -0.276305 -4.20274e-21)
(-0.783613 0.281008 0)
(-0.505468 -0.14105 0)
(-0.763323 0.255287 0)
(-0.257043 0.252584 0)
(-0.0671291 0.0451757 0)
(-0.690607 0.427992 -5.81054e-21)
(-0.775381 -0.142925 5.86813e-21)
(-0.682643 0.331163 0)
(-0.542633 -0.0380868 1.14435e-21)
(-0.219579 0.143861 1.02905e-20)
(-0.521444 0.26738 0)
(-0.329133 0.119537 1.98886e-20)
(-0.502437 0.106665 0)
(-0.649183 -0.263355 -1.47057e-20)
(-0.775414 0.301537 5.55989e-21)
(-0.0979029 0.140383 0)
(-0.138761 0.129372 -1.08483e-20)
(-0.642823 -0.147397 4.9363e-22)
(-0.745834 0.354881 1.70718e-22)
(-0.685887 0.381773 0)
(-0.675346 0.376713 6.53195e-21)
(-0.0467783 0.0603085 -5.91989e-21)
(-0.0415937 0.0583227 -7.28689e-21)
(-0.759806 -0.218587 -4.21626e-21)
(-0.755671 -0.230072 3.46673e-21)
(-0.683691 0.255399 0)
(-0.45132 -0.0449455 3.11864e-20)
(-0.301273 0.227879 1.11068e-20)
(-0.492782 -0.100001 2.26579e-20)
(-0.734731 0.262966 0)
(-0.263146 0.233654 -1.23085e-20)
(-0.598278 0.241355 -1.07233e-20)
(-0.43209 0.0370731 8.02278e-21)
(-0.335292 0.196954 1.70917e-20)
(-0.650112 -0.28729 9.78544e-21)
(-0.751359 0.297636 7.23081e-21)
(-0.633708 -0.292346 -4.66731e-21)
(-0.0704496 0.112867 0)
(-0.75804 0.282366 -6.98458e-21)
(-0.0755678 0.120485 0)
(-0.713419 0.342544 0)
(-0.576173 -0.0802258 0)
(-0.190294 0.143682 1.15241e-20)
(-0.764962 0.312283 9.91302e-21)
(-0.754397 0.309827 -1.85086e-20)
(-0.664777 -0.262918 6.41882e-21)
(-0.666278 -0.274186 -1.60853e-20)
(-0.0853009 0.124926 1.62499e-20)
(-0.0740401 0.113297 1.14118e-24)
(-0.7291 0.25323 0)
(-0.472659 -0.0952221 -2.08713e-20)
(-0.285782 0.25355 1.59652e-20)
(-0.656064 0.28122 1.01102e-20)
(-0.491355 -0.0211662 -1.38878e-20)
(-0.262839 0.174892 0)
(-0.681488 0.414729 0)
(-0.052778 0.0473653 0)
(-0.784519 -0.174131 6.30004e-21)
(-0.681545 0.269333 7.43296e-21)
(-0.468092 -0.0393592 -8.66472e-21)
(-0.284752 0.210356 -1.84546e-20)
(-0.61943 0.25436 4.32782e-21)
(-0.445008 0.0177806 -9.40527e-21)
(-0.317579 0.193974 1.00331e-20)
(-0.677188 0.392189 0)
(-0.0469904 0.0537384 0)
(-0.774958 -0.205973 -8.67593e-21)
(-0.680477 0.346455 0)
(-0.56494 -0.0370388 2.45882e-21)
(-0.20072 0.124987 -1.14546e-20)
(-0.403855 -0.139748 0)
(-0.764534 0.171121 0)
(-0.380702 0.378352 -6.14858e-22)
(-0.565605 0.433959 -6.20275e-22)
(-0.668063 0.0704131 0)
(-0.229978 -0.019333 2.18246e-20)
(-0.529507 -0.213572 9.91993e-21)
(-0.236691 0.281063 0)
(-0.809214 0.228612 0)
(-0.00602997 0.0193322 -2.28493e-20)
(-0.462096 -0.21087 6.74874e-21)
(-0.408162 0.204275 -5.48428e-21)
(-0.6836 0.298747 0)
(-0.502129 -0.0373808 8.53166e-21)
(-0.251174 0.176423 -9.45495e-21)
(-0.706635 0.404533 1.08651e-20)
(-0.0671348 0.0646088 3.07596e-20)
(-0.755629 -0.171391 0)
(-0.270956 -0.0689624 -5.83877e-21)
(-0.709749 0.0957679 -8.75408e-21)
(-0.523512 0.448902 -5.52597e-21)
(-0.525773 0.32869 0)
(-0.0129246 0.0277872 -8.56392e-21)
(-0.674944 -0.228146 0)
(-0.411311 0.279562 1.06109e-20)
(-0.417983 0.298667 -1.08689e-20)
(-0.357662 0.0121513 0)
(-0.620802 0.182782 9.21594e-21)
(-0.35136 -0.0043651 -1.74237e-20)
(-0.638202 0.175374 -7.42153e-21)
(-0.596122 0.225559 1.0087e-20)
(-0.41213 0.0406323 1.06043e-20)
(-0.358765 0.215519 0)
(-0.459468 0.305235 9.34717e-21)
(-0.436091 0.287842 0)
(-0.324362 0.0283847 -9.64005e-21)
(-0.602861 0.151273 8.26748e-21)
(-0.34093 0.0303353 9.71162e-21)
(-0.601279 0.166536 6.38575e-23)
(-0.669759 0.295183 6.42119e-22)
(-0.470736 -0.0121545 -6.02935e-21)
(-0.28522 0.18951 -1.23963e-20)
(-0.661043 0.270623 -1.73797e-20)
(-0.462318 -0.0183985 1.59981e-22)
(-0.294701 0.203394 0)
(-0.06392 0.109271 0)
(-0.615896 -0.303642 0)
(-0.739636 0.270121 7.56042e-21)
(-0.561344 0.361334 -5.051e-21)
(-0.591164 0.0787418 0)
(-0.250306 0.0481286 5.49491e-21)
(-0.761389 0.327458 -1.78086e-20)
(-0.67597 -0.246942 7.38533e-21)
(-0.08775 0.12213 -9.27221e-21)
(-0.737372 0.313684 0)
(-0.747022 0.318083 8.87238e-21)
(-0.562363 -0.110078 -2.82104e-21)
(-0.579403 -0.125599 9.04498e-21)
(-0.201064 0.176363 -1.27324e-20)
(-0.188042 0.172577 -1.18664e-20)
(-0.55994 0.343845 0)
(-0.57173 0.078071 0)
(-0.259338 0.0643513 2.57923e-21)
(-0.629849 0.423435 6.0141e-21)
(-0.640854 0.0163474 0)
(-0.184163 0.0320688 6.87062e-21)
(-0.713569 0.313821 -4.53418e-21)
(-0.53912 -0.0780216 0)
(-0.217676 0.173371 0)
(-0.483478 0.235813 1.02405e-20)
(-0.494542 0.13505 -5.00981e-21)
(-0.361861 0.122673 5.34386e-21)
(-0.758593 0.296834 0)
(-0.561196 -0.140761 0)
(-0.204791 0.198305 -1.91214e-20)
(-0.514393 0.287212 0)
(-0.312128 0.0922928 2.94476e-21)
(-0.532647 0.112855 0)
(-0.7219 0.270896 -1.00894e-20)
(-0.489122 -0.086208 -1.16217e-20)
(-0.267511 0.224318 -1.59221e-21)
(-0.634 0.407196 6.07458e-21)
(-0.623668 0.0113989 0)
(-0.186219 0.0467667 1.41143e-20)
(-0.491758 0.2539 -1.01535e-20)
(-0.479404 0.258787 -4.55013e-21)
(-0.508736 0.127503 4.90966e-21)
(-0.34455 0.111222 -1.05557e-20)
(-0.527281 0.136518 0)
(-0.342289 0.0957376 -1.88676e-20)
(-0.456003 0.274864 -4.62833e-21)
(-0.338774 0.0582848 1.25692e-20)
(-0.439232 0.278252 2.98076e-21)
(-0.568137 0.153769 -1.11509e-20)
(-0.348161 0.0412934 -6.02568e-21)
(-0.590015 0.168029 1.89687e-22)
(-0.596573 0.35799 5.46386e-21)
(-0.616887 0.355841 0)
(-0.569728 0.0470323 1.03876e-20)
(-0.563334 0.0310281 -8.10586e-21)
(-0.233214 0.0755428 -1.22337e-20)
(-0.226965 0.0889469 2.03571e-20)
(-0.107872 0.067726 0)
(-0.700537 -0.10308 -4.64761e-21)
(-0.708061 0.415884 -9.24274e-21)
(-0.401503 0.3821 7.44328e-21)
(-0.748147 0.163687 9.92495e-21)
(-0.383012 -0.120722 -1.98418e-20)
(-0.0995291 0.0709558 -1.0352e-20)
(-0.105291 0.0829404 8.27439e-21)
(-0.710384 -0.122796 4.01738e-21)
(-0.696081 -0.130971 6.90282e-21)
(-0.713411 0.411999 2.36795e-20)
(-0.722469 0.398958 -1.2333e-20)
(-0.47625 0.400286 1.01028e-20)
(-0.308318 -0.0596262 -9.20105e-21)
(-0.694998 0.129379 2.17603e-21)
(-0.474399 0.204718 1.72148e-20)
(-0.397017 0.15112 0)
(-0.461532 0.142551 -1.71573e-20)
(-0.757356 0.309787 -4.27381e-21)
(-0.580261 -0.142661 -1.02119e-20)
(-0.188341 0.182331 0)
(-0.535949 0.331432 0)
(-0.274589 0.0575632 -2.45881e-21)
(-0.572664 0.0972928 -8.69034e-21)
(-0.645063 0.406673 0)
(-0.62352 0.000504769 0)
(-0.178717 0.0545604 -1.31524e-20)
(-0.693462 0.428794 -9.90252e-21)
(-0.697647 0.416635 0)
(-0.690796 -0.0724108 2.44394e-21)
(-0.121257 0.0556139 -1.26033e-20)
(-0.675029 -0.0733532 -6.66644e-21)
(-0.127859 0.0675305 1.70464e-20)
(-0.726292 0.336513 8.59631e-21)