/*--------------------------------*- C++ -*----------------------------------*\
  =========                 |
  \\      /  F ield         | OpenFOAM: The Open Source CFD Toolbox
   \\    /   O peration     | Website:  https://openfoam.org
    \\  /    A nd           | Version:  6
     \\/     M anipulation  |
\*---------------------------------------------------------------------------*/
FoamFile
{
    version     2.0;
    format      ascii;
    class       volScalarField;
    location    "0";
    object      p;
}
// * * * * * * * * * * * * * * * * * * * * * * * * * * * * * * * * * * * * * //

dimensions      [0 2 -2 0 0 0 0];

internalField   nonuniform List<scalar> 
918
(
0.207962
1.01144
0.00355737
0.208325
0.00121033
0.981029
-0.816467
0.414937
0.186355
-0.131914
0.0296974
0.177768
0.831773
0.597816
-1.41919
0.0169641
0.359126
-0.655392
0.183375
0.00912303
0.507263
0.192608
0.196005
0.188596
0.237012
0.580816
0.704678
-0.00164017
-0.00436541
-0.00320475
0.000537696
0.00183106
0.0140521
0.854181
0.900424
0.918813
0.156125
0.0528867
-0.687077
-0.756148
-0.716981
-0.819809
0.398791
0.401397
-0.513579
0.413024
0.423792
0.178346
0.186291
0.186694
0.18817
0.186384
0.188116
0.285915
-0.128209
-0.189914
-0.0767406
-0.0534314
0.0963969
0.0294567
0.0198402
0.0275446
0.0286236
0.117927
0.174546
0.173601
0.180898
0.194949
0.936948
0.908844
0.931391
0.857202
0.874396
0.806146
0.778685
0.61733
0.639
0.58181
0.569465
-1.8733
-2.81846
-0.839187
-0.571823
3.36781e-05
0.0230131
0.0347899
0.339082
0.341348
0.353487
0.364266
0.750371
-0.590954
-0.74427
0.183244
0.181918
0.191884
0.193929
0.189373
0.190156
0.0160416
0.0188987
0.00125429
0.00996465
0.00799744
0.47436
0.468584
0.188726
0.183347
0.202493
0.22513
0.209386
-0.0470959
0.256409
0.290027
0.393155
0.566559
0.563166
0.572159
0.679029
0.645357
0.736785
0.761516
0.00537134
5.33823e-06
0.0226706
0.0169578
0.0199887
0.15687
0.149657
0.167406
0.160138
0.161784
0.0215874
-0.114382
0.0623473
-0.0266963
-0.607735
-0.667791
-0.637914
-0.671907
-0.783782
0.378231
0.385733
0.388476
-0.521914
-0.429956
-0.585173
-0.393213
-0.452114
0.16096
0.170501
0.165042
0.177652
0.178772
0.177267
0.189683
0.187348
0.188905
0.315218
0.387304
0.247156
0.226687
-0.396682
-0.239629
-0.38167
-0.0229491
-0.0170459
0.103424
0.109129
0.0841076
0.0714353
-0.00277654
0.0129269
0.00590407
0.0296285
0.0365557
0.105157
0.096537
0.127327
0.132278
0.167826
0.165611
0.170078
0.164968
0.726903
0.7503
0.758229
0.734808
-3.78873
-6.46216
-0.228627
-0.0689236
0.00285833
0.00160958
0.00122074
0.00241662
0.0037009
0.00286039
0.0466255
0.0462387
0.0396994
0.0440848
0.324593
0.323757
0.762774
0.820923
0.678607
0.662246
0.171647
0.174475
0.179875
0.173104
0.0289865
0.0226329
0.0241927
0.426217
0.448578
0.445122
-0.0928137
-0.176385
0.00273135
0.0261633
0.310727
0.290739
0.30976
0.459225
0.49996
0.773685
0.797672
0.785669
0.80171
0.850094
0.870176
0.834717
0.1375
0.142912
0.140773
0.17438
0.169122
0.169288
0.164291
0.166696
0.166891
-0.243748
-0.626175
-0.329217
-0.367136
-0.165648
-0.267859
0.500862
0.642465
0.363336
0.377612
0.382084
-0.327814
-0.388437
0.197978
0.174807
0.056078
0.0851673
0.0710254
0.70468
0.663258
0.714042
0.688655
0.649954
0.676296
-0.571177
-2.31198
-1.29646
0.329568
0.124043
0.221399
0.0679478
0.0532275
0.0633607
0.813469
0.853138
0.424005
0.567098
0.530122
0.530131
0.560767
0.618897
0.546957
0.584263
0.619138
0.59812
0.212365
-0.198603
0.0300005
0.717528
0.781721
-0.198683
-0.278526
-0.308892
0.121879
0.149776
0.138756
0.818882
0.79422
0.84511
0.184709
0.185924
0.0107853
0.0150233
0.188899
0.187921
0.00770149
0.00993365
0.215763
-1.18103
-0.214645
0.183139
0.167039
0.185473
-0.0580863
0.271656
0.0306847
0.0956272
0.0637612
0.172619
0.127335
0.0878585
0.00532284
0.02741
0.019408
-0.314345
0.178322
0.174581
0.183822
0.185837
0.185337
0.00660134
0.01004
0.00677849
0.0159181
0.0108927
0.0117196
0.157078
0.16399
-0.477617
0.185135
0.186607
0.186673
0.183662
0.185291
0.18484
0.020664
0.0104564
0.0204115
-0.0771562
0.0347562
0.443548
0.563185
0.354325
0.177371
-0.0916858
0.361797
0.425292
0.329009
0.492965
0.364076
0.396654
-0.158697
-0.267079
-0.116781
-0.178781
0.176503
0.176266
0.165124
0.159469
0.174657
0.174652
0.181232
0.179276
0.183376
0.183117
-0.0253325
-0.0416974
-0.0790869
-0.147125
0.301393
0.381174
0.225014
0.226318
0.142067
0.0328231
0.0283566
0.0308691
0.0257767
0.0709272
0.0693456
0.0796145
0.078119
0.0542607
0.0528901
0.0693923
0.0663976
0.0740645
0.169
0.16909
0.171195
0.177859
0.131953
0.137509
0.105797
0.125639
0.108601
0.0603831
0.0852471
0.0656193
0.0102793
0.0100717
0.00720152
0.0335638
0.0360053
0.0160089
0.012353
0.0158074
0.011857
0.0110861
0.0232537
0.0264595
-0.281229
-0.429971
0.748073
0.599415
0.365754
0.172242
0.178173
0.175575
0.175014
0.179677
0.183077
0.181133
0.179378
0.165598
0.168206
0.164814
0.162834
-0.476817
-0.523954
-0.383021
-0.442562
-0.115841
0.29418
0.0408519
-0.0226261
-0.0394597
0.172622
0.35186
0.336938
0.503831
0.493132
-0.629974
-0.243055
-0.563273
-0.0640988
-0.0599101
0.466324
0.51533
0.536833
0.48857
0.43549
-0.290832
0.227541
-0.375216
-0.339981
-0.167393
-0.247135
0.426899
0.347705
0.356556
0.386673
0.403872
0.35499
0.338303
0.33107
0.372228
0.375505
0.174673
-0.0476701
-0.103036
-0.149058
0.331519
0.204957
0.265222
0.173167
0.168746
0.17254
0.171547
0.158553
0.163905
0.161681
0.163877
0.166364
0.174314
0.17065
0.169442
0.174894
-0.0235845
-0.014111
-0.0526297
-0.228856
-0.18648
-0.258904
-0.117822
0.129865
0.106124
0.343836
0.396721
0.0712063
-0.115173
-0.0741283
-0.0103462
0.168263
0.158799
0.11988
0.156664
0.182243
0.153842
0.201956
0.18543
0.0512745
0.0641106
0.0385356
0.0391727
0.10152
0.113337
0.119907
0.0565928
0.055513
0.0357834
0.0310182
0.085674
0.0546404
0.0717485
0.0745564
0.0286239
0.0341331
0.0371482
0.049512
0.045528
0.0502418
0.164938
0.166152
0.165805
0.182155
0.190494
0.204088
0.176127
0.150363
0.141496
0.142603
0.127616
0.135088
0.135768
0.143292
0.156414
0.163292
0.161875
0.164058
0.149916
0.150942
0.139468
0.143744
0.123081
0.102452
0.0899419
0.0210525
0.0157235
0.0181009
0.0162324
0.0135891
0.0125638
0.0494694
0.040137
0.0440892
0.0402195
0.0467651
0.0213793
0.02257
-0.147485
-0.0201238
-0.443313
-0.374096
-0.489865
0.718986
0.75747
0.593297
0.503359
0.533825
0.643122
0.679341
0.41608
0.513324
0.503924
0.293562
0.760909
0.174217
0.175815
0.171433
0.17013
0.173963
-0.440068
-0.399459
-0.271959
-0.219363
-0.113116
-0.0247617
-0.584894
0.0392011
0.148452
0.0104494
0.285653
0.301542
0.250309
0.275857
0.272582
0.106054
0.171578
0.228298
0.175261
0.230071
0.254073
0.210724
0.246199
0.180097
0.137338
0.137988
0.0865736
0.114197
0.0918668
0.0608945
0.162867
0.145546
0.154368
0.145847
0.165767
0.192168
0.188923
0.205375
0.22684
0.154444
0.115737
0.128129
0.14823
0.109402
0.121308
0.137846
-0.594087
-0.645429
-0.262876
-0.420688
-0.271735
-0.260145
-0.257477
-0.423162
-0.100636
-0.666814
-0.582971
-1.23267
0.190186
0.501547
0.380742
0.374557
0.403931
0.389018
0.395301
0.415393
0.423353
0.323563
0.342168
0.343179
0.300077
0.329018
0.360755
0.357429
0.174966
0.0450894
0.0322823
-0.010348
-0.123831
-0.0975207
0.107728
0.0325656
-0.0318749
-0.0465652
0.130334
0.0325334
0.102564
0.128551
0.0841812
0.0190123
0.22974
0.286698
0.281613
0.262036
0.166933
0.179216
0.21115
0.255054
0.277731
0.304337
0.162286
0.168327
0.170389
0.166503
0.163704
0.166534
0.168996
0.169293
0.167095
0.166938
0.169061
0.0224186
0.0339725
-0.00437171
0.00314368
0.0291205
0.00496985
0.0627554
0.0137693
0.048136
0.0480496
0.0227619
-0.000721953
0.0120202
0.0372944
0.176257
0.202858
0.191016
0.139057
0.251124
0.375762
0.423394
0.36438
0.213869
0.236561
0.291126
0.0934681
0.0936682
0.0862774
0.101963
0.104173
0.0437503
0.043027
0.0442251
0.0478039
0.0498766
0.0381806
0.0286109
0.028194
0.0325623
0.0321859
0.0321844
0.154138
0.147283
0.145602
0.138555
0.13835
0.153038
0.154241
0.158503
0.162825
0.163612
0.155741
0.160492
0.162616
0.0363683
0.030437
0.0338245
0.0291841
0.0304509
0.0240732
0.024092
0.0955803
0.0607574
0.18618
-0.0738577
-0.280841
-0.148512
0.0222909
0.119682
-0.17029
0.607537
0.405709
0.189199
0.30396
0.526608
0.281759
0.541203
0.400523
0.717217
0.675961
0.747314
0.590941
-0.197436
0.0850179
0.104084
-0.251968
-0.011752
-0.0403264
-0.167503
-0.112011
-0.128926
-0.00748283
-0.304688
-0.422457
-0.77367
-0.696871
-0.267635
-0.306914
-0.192238
-0.303381
-0.70163
-0.770259
-0.660161
0.281251
0.297689
0.316495
0.290348
0.313141
0.233178
0.227862
0.247073
0.25144
0.244309
-0.894147
-0.513705
-1.67366
-1.1027
-0.563665
0.266465
0.25526
0.434347
0.329921
0.402319
0.38701
0.335684
0.297533
0.313361
0.350386
0.0130314
0.126768
0.0887862
0.120602
0.052905
-0.016139
0.264513
0.250717
0.293121
0.317554
0.270184
0.312203
0.161051
0.161352
0.158128
0.157262
0.1547
0.154688
0.107498
0.0797351
0.128902
0.108875
0.0724527
0.0571643
0.0424256
0.0400984
0.0381439
0.036911
0.0375923
0.0415089
-0.405848
-0.153983
-0.177851
-0.0796075
-0.431488
-0.327105
-0.378013
-0.328704
-0.384344
-0.482797
0.418973
0.64591
0.544357
0.656585
0.472924
0.532757
-0.276247
-0.421759
-0.430809
-0.283899
-0.131543
-0.0899503
-0.438132
-0.400209
0.453552
0.46576
0.320688
0.0977564
-0.0272897
0.179084
0.202533
0.152434
0.192807
0.259142
0.253935
-0.259638
-0.237044
0.0372416
0.300638
-0.178208
-0.0994222
-0.150205
0.136938
0.0934405
)
;

boundaryField
{
    wall-4
    {
        type            zeroGradient;
    }
    velocity-inlet-5
    {
        type            zeroGradient;
    }
    velocity-inlet-6
    {
        type            zeroGradient;
    }
    pressure-outlet-7
    {
        type            fixedValue;
        value           uniform 0;
    }
    wall-8
    {
        type            zeroGradient;
    }
    frontAndBackPlanes
    {
        type            empty;
    }
}

