/*--------------------------------*- C++ -*----------------------------------*\
  =========                 |
  \\      /  F ield         | OpenFOAM: The Open Source CFD Toolbox
   \\    /   O peration     | Website:  https://openfoam.org
    \\  /    A nd           | Version:  6
     \\/     M anipulation  |
\*---------------------------------------------------------------------------*/
FoamFile
{
    version     2.0;
    format      ascii;
    class       volScalarField;
    location    "0";
    object      p;
}
// * * * * * * * * * * * * * * * * * * * * * * * * * * * * * * * * * * * * * //

dimensions      [0 2 -2 0 0 0 0];

internalField   nonuniform List<scalar> 
145945
(
2.08588e-06
2.0856e-06
2.08567e-06
2.08578e-06
2.08598e-06
2.08613e-06
2.08627e-06
2.08635e-06
2.0864e-06
2.08637e-06
2.08632e-06
2.08618e-06
2.08607e-06
2.08588e-06
2.08581e-06
2.08569e-06
2.08598e-06
2.0856e-06
2.08553e-06
2.08563e-06
2.0858e-06
2.08603e-06
2.08619e-06
2.08634e-06
2.08643e-06
2.08648e-06
2.08646e-06
2.08639e-06
2.08625e-06
2.08612e-06
2.08592e-06
2.08579e-06
2.08563e-06
2.08571e-06
2.08567e-06
2.08563e-06
2.08576e-06
2.08597e-06
2.08622e-06
2.0864e-06
2.08657e-06
2.08666e-06
2.08671e-06
2.08669e-06
2.08661e-06
2.08647e-06
2.08632e-06
2.0861e-06
2.08592e-06
2.08575e-06
2.08578e-06
2.08578e-06
2.0858e-06
2.08597e-06
2.08623e-06
2.0865e-06
2.08671e-06
2.08688e-06
2.08698e-06
2.08703e-06
2.08701e-06
2.08693e-06
2.08678e-06
2.08661e-06
2.08638e-06
2.08615e-06
2.08593e-06
2.08589e-06
2.08598e-06
2.08603e-06
2.08622e-06
2.0865e-06
2.08678e-06
2.087e-06
2.08717e-06
2.08728e-06
2.08733e-06
2.0873e-06
2.08722e-06
2.08707e-06
2.08689e-06
2.08665e-06
2.0864e-06
2.08616e-06
2.08609e-06
2.08613e-06
2.08619e-06
2.0864e-06
2.08671e-06
2.087e-06
2.08723e-06
2.0874e-06
2.08751e-06
2.08756e-06
2.08754e-06
2.08746e-06
2.08731e-06
2.08711e-06
2.08686e-06
2.08659e-06
2.08633e-06
2.08624e-06
2.08627e-06
2.08634e-06
2.08657e-06
2.08688e-06
2.08717e-06
2.0874e-06
2.08758e-06
2.08769e-06
2.08774e-06
2.08772e-06
2.08763e-06
2.08748e-06
2.08728e-06
2.08703e-06
2.08676e-06
2.08648e-06
2.08639e-06
2.08635e-06
2.08643e-06
2.08666e-06
2.08698e-06
2.08728e-06
2.08751e-06
2.08769e-06
2.0878e-06
2.08785e-06
2.08783e-06
2.08774e-06
2.08759e-06
2.08739e-06
2.08714e-06
2.08686e-06
2.08657e-06
2.08647e-06
2.0864e-06
2.08648e-06
2.08671e-06
2.08703e-06
2.08733e-06
2.08756e-06
2.08774e-06
2.08785e-06
2.0879e-06
2.08788e-06
2.0878e-06
2.08764e-06
2.08744e-06
2.08719e-06
2.08691e-06
2.08662e-06
2.08651e-06
2.08637e-06
2.08646e-06
2.08669e-06
2.08701e-06
2.0873e-06
2.08754e-06
2.08772e-06
2.08783e-06
2.08788e-06
2.08786e-06
2.08777e-06
2.08762e-06
2.08742e-06
2.08717e-06
2.08688e-06
2.0866e-06
2.08649e-06
2.08632e-06
2.08639e-06
2.08661e-06
2.08693e-06
2.08722e-06
2.08746e-06
2.08763e-06
2.08774e-06
2.0878e-06
2.08777e-06
2.08769e-06
2.08754e-06
2.08734e-06
2.08709e-06
2.08681e-06
2.08653e-06
2.08643e-06
2.08618e-06
2.08625e-06
2.08647e-06
2.08678e-06
2.08707e-06
2.08731e-06
2.08748e-06
2.08759e-06
2.08764e-06
2.08762e-06
2.08754e-06
2.08739e-06
2.08719e-06
2.08694e-06
2.08667e-06
2.08639e-06
2.0863e-06
2.08607e-06
2.08612e-06
2.08632e-06
2.08661e-06
2.08689e-06
2.08711e-06
2.08728e-06
2.08739e-06
2.08744e-06
2.08742e-06
2.08734e-06
2.08719e-06
2.087e-06
2.08676e-06
2.0865e-06
2.08625e-06
2.08618e-06
2.08588e-06
2.08592e-06
2.0861e-06
2.08638e-06
2.08665e-06
2.08686e-06
2.08703e-06
2.08714e-06
2.08719e-06
2.08717e-06
2.08709e-06
2.08694e-06
2.08676e-06
2.08652e-06
2.08628e-06
2.08605e-06
2.08599e-06
2.08581e-06
2.08579e-06
2.08592e-06
2.08615e-06
2.0864e-06
2.0866e-06
2.08676e-06
2.08686e-06
2.08691e-06
2.08688e-06
2.08681e-06
2.08667e-06
2.0865e-06
2.08628e-06
2.08609e-06
2.0859e-06
2.08592e-06
2.08569e-06
2.08563e-06
2.08575e-06
2.08593e-06
2.08616e-06
2.08633e-06
2.08648e-06
2.08657e-06
2.08662e-06
2.0866e-06
2.08653e-06
2.08639e-06
2.08625e-06
2.08605e-06
2.0859e-06
2.08574e-06
2.08579e-06
2.08598e-06
2.08571e-06
2.08578e-06
2.08589e-06
2.08609e-06
2.08624e-06
2.08639e-06
2.08647e-06
2.08652e-06
2.08649e-06
2.08643e-06
2.0863e-06
2.08618e-06
2.08599e-06
2.08592e-06
2.08579e-06
2.08608e-06
2.01115e-06
2.01117e-06
2.01153e-06
2.01189e-06
2.0123e-06
2.01263e-06
2.0129e-06
2.01307e-06
2.01314e-06
2.0131e-06
2.01296e-06
2.01272e-06
2.01242e-06
2.01204e-06
2.0117e-06
2.01129e-06
2.01124e-06
2.01117e-06
2.01137e-06
2.01176e-06
2.01219e-06
2.01263e-06
2.013e-06
2.01328e-06
2.01346e-06
2.01354e-06
2.0135e-06
2.01335e-06
2.0131e-06
2.01277e-06
2.01236e-06
2.01195e-06
2.0115e-06
2.01126e-06
2.01153e-06
2.01176e-06
2.01217e-06
2.01265e-06
2.01312e-06
2.0135e-06
2.01381e-06
2.014e-06
2.01408e-06
2.01404e-06
2.01388e-06
2.01361e-06
2.01326e-06
2.01283e-06
2.01237e-06
2.01191e-06
2.01163e-06
2.01189e-06
2.01219e-06
2.01265e-06
2.01317e-06
2.01367e-06
2.01408e-06
2.01439e-06
2.01459e-06
2.01468e-06
2.01463e-06
2.01447e-06
2.01419e-06
2.01382e-06
2.01336e-06
2.01286e-06
2.01235e-06
2.01199e-06
2.0123e-06
2.01263e-06
2.01312e-06
2.01367e-06
2.01418e-06
2.01461e-06
2.01493e-06
2.01514e-06
2.01522e-06
2.01518e-06
2.01501e-06
2.01473e-06
2.01434e-06
2.01386e-06
2.01334e-06
2.0128e-06
2.0124e-06
2.01263e-06
2.013e-06
2.0135e-06
2.01408e-06
2.01461e-06
2.01504e-06
2.01537e-06
2.01558e-06
2.01567e-06
2.01563e-06
2.01545e-06
2.01516e-06
2.01477e-06
2.01428e-06
2.01373e-06
2.01316e-06
2.01273e-06
2.0129e-06
2.01328e-06
2.01381e-06
2.01439e-06
2.01493e-06
2.01537e-06
2.0157e-06
2.01592e-06
2.01601e-06
2.01596e-06
2.01579e-06
2.01549e-06
2.0151e-06
2.0146e-06
2.01404e-06
2.01345e-06
2.013e-06
2.01307e-06
2.01346e-06
2.014e-06
2.01459e-06
2.01514e-06
2.01558e-06
2.01592e-06
2.01613e-06
2.01622e-06
2.01618e-06
2.016e-06
2.01571e-06
2.0153e-06
2.0148e-06
2.01423e-06
2.01364e-06
2.01317e-06
2.01314e-06
2.01354e-06
2.01408e-06
2.01468e-06
2.01522e-06
2.01567e-06
2.01601e-06
2.01622e-06
2.01631e-06
2.01627e-06
2.01609e-06
2.0158e-06
2.01539e-06
2.01489e-06
2.01431e-06
2.01372e-06
2.01325e-06
2.0131e-06
2.0135e-06
2.01404e-06
2.01463e-06
2.01518e-06
2.01563e-06
2.01596e-06
2.01618e-06
2.01627e-06
2.01622e-06
2.01605e-06
2.01575e-06
2.01535e-06
2.01484e-06
2.01427e-06
2.01368e-06
2.01321e-06
2.01296e-06
2.01335e-06
2.01388e-06
2.01447e-06
2.01501e-06
2.01545e-06
2.01579e-06
2.016e-06
2.01609e-06
2.01605e-06
2.01587e-06
2.01558e-06
2.01518e-06
2.01468e-06
2.01411e-06
2.01353e-06
2.01307e-06
2.01272e-06
2.0131e-06
2.01361e-06
2.01419e-06
2.01473e-06
2.01516e-06
2.01549e-06
2.01571e-06
2.0158e-06
2.01575e-06
2.01558e-06
2.01529e-06
2.01489e-06
2.0144e-06
2.01384e-06
2.01327e-06
2.01283e-06
2.01242e-06
2.01277e-06
2.01326e-06
2.01382e-06
2.01434e-06
2.01477e-06
2.0151e-06
2.0153e-06
2.01539e-06
2.01535e-06
2.01518e-06
2.01489e-06
2.0145e-06
2.01402e-06
2.01348e-06
2.01294e-06
2.01252e-06
2.01204e-06
2.01236e-06
2.01283e-06
2.01336e-06
2.01387e-06
2.01428e-06
2.0146e-06
2.0148e-06
2.01489e-06
2.01484e-06
2.01468e-06
2.0144e-06
2.01402e-06
2.01355e-06
2.01304e-06
2.01252e-06
2.01214e-06
2.01171e-06
2.01195e-06
2.01237e-06
2.01286e-06
2.01334e-06
2.01373e-06
2.01404e-06
2.01423e-06
2.01431e-06
2.01427e-06
2.01411e-06
2.01384e-06
2.01348e-06
2.01304e-06
2.01257e-06
2.0121e-06
2.0118e-06
2.01129e-06
2.0115e-06
2.01191e-06
2.01235e-06
2.0128e-06
2.01317e-06
2.01345e-06
2.01364e-06
2.01372e-06
2.01368e-06
2.01353e-06
2.01327e-06
2.01294e-06
2.01252e-06
2.0121e-06
2.01164e-06
2.01138e-06
2.01124e-06
2.01126e-06
2.01163e-06
2.01199e-06
2.0124e-06
2.01273e-06
2.013e-06
2.01317e-06
2.01325e-06
2.01321e-06
2.01307e-06
2.01283e-06
2.01252e-06
2.01214e-06
2.0118e-06
2.01138e-06
2.01133e-06
1.95512e-06
1.95643e-06
1.95769e-06
1.95879e-06
1.95979e-06
1.96053e-06
1.96108e-06
1.9614e-06
1.96153e-06
1.96145e-06
1.96116e-06
1.96066e-06
1.95997e-06
1.959e-06
1.95788e-06
1.9565e-06
1.95511e-06
1.95643e-06
1.95759e-06
1.9588e-06
1.95992e-06
1.9609e-06
1.96165e-06
1.96219e-06
1.96252e-06
1.96264e-06
1.96256e-06
1.96228e-06
1.96178e-06
1.96108e-06
1.96013e-06
1.959e-06
1.95765e-06
1.95643e-06
1.95769e-06
1.9588e-06
1.95994e-06
1.96102e-06
1.96197e-06
1.9627e-06
1.96324e-06
1.96356e-06
1.96369e-06
1.9636e-06
1.96332e-06
1.96283e-06
1.96214e-06
1.96122e-06
1.96012e-06
1.95885e-06
1.95768e-06
1.95879e-06
1.95992e-06
1.96102e-06
1.96208e-06
1.963e-06
1.96373e-06
1.96425e-06
1.96457e-06
1.96469e-06
1.96461e-06
1.96433e-06
1.96385e-06
1.96317e-06
1.96228e-06
1.96119e-06
1.95997e-06
1.95879e-06
1.95979e-06
1.9609e-06
1.96197e-06
1.963e-06
1.96391e-06
1.96462e-06
1.96514e-06
1.96545e-06
1.96557e-06
1.96549e-06
1.96522e-06
1.96475e-06
1.96408e-06
1.9632e-06
1.96213e-06
1.96095e-06
1.95978e-06
1.96053e-06
1.96165e-06
1.9627e-06
1.96373e-06
1.96462e-06
1.96533e-06
1.96583e-06
1.96615e-06
1.96627e-06
1.96619e-06
1.96592e-06
1.96545e-06
1.96479e-06
1.96392e-06
1.96286e-06
1.96169e-06
1.96053e-06
1.96108e-06
1.96219e-06
1.96323e-06
1.96425e-06
1.96514e-06
1.96583e-06
1.96634e-06
1.96665e-06
1.96677e-06
1.9667e-06
1.96642e-06
1.96596e-06
1.9653e-06
1.96444e-06
1.96339e-06
1.96224e-06
1.96107e-06
1.9614e-06
1.96252e-06
1.96356e-06
1.96457e-06
1.96545e-06
1.96615e-06
1.96665e-06
1.96696e-06
1.96708e-06
1.96701e-06
1.96674e-06
1.96627e-06
1.96562e-06
1.96476e-06
1.96372e-06
1.96256e-06
1.9614e-06
1.96153e-06
1.96264e-06
1.96368e-06
1.96469e-06
1.96557e-06
1.96627e-06
1.96677e-06
1.96708e-06
1.9672e-06
1.96713e-06
1.96686e-06
1.96639e-06
1.96574e-06
1.96488e-06
1.96384e-06
1.96269e-06
1.96153e-06
1.96145e-06
1.96256e-06
1.9636e-06
1.96461e-06
1.96549e-06
1.96619e-06
1.9667e-06
1.96701e-06
1.96713e-06
1.96705e-06
1.96678e-06
1.96632e-06
1.96566e-06
1.9648e-06
1.96376e-06
1.96261e-06
1.96144e-06
1.96116e-06
1.96228e-06
1.96332e-06
1.96433e-06
1.96522e-06
1.96592e-06
1.96642e-06
1.96674e-06
1.96686e-06
1.96678e-06
1.96651e-06
1.96604e-06
1.96539e-06
1.96453e-06
1.96348e-06
1.96232e-06
1.96116e-06
1.96066e-06
1.96178e-06
1.96283e-06
1.96385e-06
1.96475e-06
1.96545e-06
1.96596e-06
1.96627e-06
1.96639e-06
1.96632e-06
1.96604e-06
1.96558e-06
1.96491e-06
1.96405e-06
1.96299e-06
1.96182e-06
1.96066e-06
1.95997e-06
1.96108e-06
1.96214e-06
1.96317e-06
1.96408e-06
1.96479e-06
1.9653e-06
1.96562e-06
1.96574e-06
1.96566e-06
1.96539e-06
1.96491e-06
1.96425e-06
1.96337e-06
1.9623e-06
1.96112e-06
1.95996e-06
1.959e-06
1.96013e-06
1.96122e-06
1.96228e-06
1.9632e-06
1.96392e-06
1.96444e-06
1.96476e-06
1.96488e-06
1.9648e-06
1.96453e-06
1.96405e-06
1.96337e-06
1.96248e-06
1.96139e-06
1.96018e-06
1.959e-06
1.95788e-06
1.959e-06
1.96012e-06
1.96119e-06
1.96213e-06
1.96286e-06
1.96339e-06
1.96372e-06
1.96384e-06
1.96376e-06
1.96348e-06
1.96299e-06
1.9623e-06
1.96139e-06
1.96029e-06
1.95904e-06
1.95788e-06
1.9565e-06
1.95765e-06
1.95885e-06
1.95997e-06
1.96095e-06
1.96169e-06
1.96224e-06
1.96256e-06
1.96269e-06
1.96261e-06
1.96232e-06
1.96182e-06
1.96112e-06
1.96018e-06
1.95904e-06
1.95771e-06
1.95649e-06
1.95511e-06
1.95643e-06
1.95768e-06
1.95879e-06
1.95978e-06
1.96053e-06
1.96107e-06
1.9614e-06
1.96153e-06
1.96144e-06
1.96116e-06
1.96066e-06
1.95996e-06
1.959e-06
1.95788e-06
1.95649e-06
1.9551e-06
1.90108e-06
1.90328e-06
1.90526e-06
1.90712e-06
1.90871e-06
1.9099e-06
1.91074e-06
1.91125e-06
1.91145e-06
1.91132e-06
1.91087e-06
1.91009e-06
1.90899e-06
1.90747e-06
1.9056e-06
1.90344e-06
1.90109e-06
1.90328e-06
1.90511e-06
1.90705e-06
1.90888e-06
1.91043e-06
1.9116e-06
1.91243e-06
1.91293e-06
1.91313e-06
1.913e-06
1.91256e-06
1.91179e-06
1.9107e-06
1.90922e-06
1.90739e-06
1.90526e-06
1.90329e-06
1.90526e-06
1.90705e-06
1.90891e-06
1.91067e-06
1.91216e-06
1.91329e-06
1.91409e-06
1.91458e-06
1.91477e-06
1.91464e-06
1.91422e-06
1.91348e-06
1.91242e-06
1.91101e-06
1.90924e-06
1.90718e-06
1.90527e-06
1.90712e-06
1.90888e-06
1.91067e-06
1.91238e-06
1.91382e-06
1.91491e-06
1.91569e-06
1.91616e-06
1.91634e-06
1.91622e-06
1.91581e-06
1.9151e-06
1.91407e-06
1.91271e-06
1.91099e-06
1.90901e-06
1.90714e-06
1.90871e-06
1.91043e-06
1.91216e-06
1.91382e-06
1.91522e-06
1.91628e-06
1.91704e-06
1.91749e-06
1.91767e-06
1.91756e-06
1.91715e-06
1.91646e-06
1.91547e-06
1.91414e-06
1.91247e-06
1.91056e-06
1.90873e-06
1.9099e-06
1.9116e-06
1.91329e-06
1.91491e-06
1.91628e-06
1.91732e-06
1.91806e-06
1.91851e-06
1.91869e-06
1.91857e-06
1.91818e-06
1.9175e-06
1.91652e-06
1.91523e-06
1.91359e-06
1.91173e-06
1.90991e-06
1.91074e-06
1.91243e-06
1.91409e-06
1.91569e-06
1.91704e-06
1.91806e-06
1.91879e-06
1.91923e-06
1.9194e-06
1.91929e-06
1.9189e-06
1.91823e-06
1.91727e-06
1.916e-06
1.91439e-06
1.91256e-06
1.91076e-06
1.91125e-06
1.91293e-06
1.91458e-06
1.91616e-06
1.91749e-06
1.91851e-06
1.91923e-06
1.91968e-06
1.91984e-06
1.91973e-06
1.91935e-06
1.91868e-06
1.91773e-06
1.91647e-06
1.91487e-06
1.91306e-06
1.91127e-06
1.91145e-06
1.91313e-06
1.91476e-06
1.91634e-06
1.91767e-06
1.91869e-06
1.9194e-06
1.91984e-06
1.92001e-06
1.9199e-06
1.91952e-06
1.91886e-06
1.91791e-06
1.91665e-06
1.91506e-06
1.91326e-06
1.91147e-06
1.91132e-06
1.913e-06
1.91464e-06
1.91622e-06
1.91756e-06
1.91857e-06
1.91929e-06
1.91973e-06
1.9199e-06
1.91979e-06
1.91941e-06
1.91874e-06
1.91779e-06
1.91653e-06
1.91493e-06
1.91313e-06
1.91134e-06
1.91087e-06
1.91256e-06
1.91422e-06
1.91581e-06
1.91715e-06
1.91818e-06
1.9189e-06
1.91935e-06
1.91952e-06
1.91941e-06
1.91902e-06
1.91835e-06
1.91739e-06
1.91612e-06
1.91451e-06
1.91269e-06
1.91089e-06
1.91009e-06
1.91179e-06
1.91348e-06
1.91509e-06
1.91646e-06
1.9175e-06
1.91823e-06
1.91868e-06
1.91886e-06
1.91874e-06
1.91835e-06
1.91767e-06
1.9167e-06
1.91541e-06
1.91378e-06
1.91192e-06
1.91011e-06
1.90899e-06
1.9107e-06
1.91242e-06
1.91407e-06
1.91547e-06
1.91652e-06
1.91727e-06
1.91773e-06
1.91791e-06
1.91779e-06
1.91739e-06
1.9167e-06
1.91571e-06
1.91439e-06
1.91273e-06
1.91083e-06
1.909e-06
1.90747e-06
1.90922e-06
1.91101e-06
1.91271e-06
1.91414e-06
1.91523e-06
1.916e-06
1.91647e-06
1.91665e-06
1.91653e-06
1.91612e-06
1.91541e-06
1.91439e-06
1.91303e-06
1.91132e-06
1.90935e-06
1.90749e-06
1.9056e-06
1.90739e-06
1.90924e-06
1.91099e-06
1.91247e-06
1.91359e-06
1.91439e-06
1.91487e-06
1.91506e-06
1.91494e-06
1.91451e-06
1.91378e-06
1.91273e-06
1.91132e-06
1.90956e-06
1.90752e-06
1.90561e-06
1.90344e-06
1.90526e-06
1.90718e-06
1.90901e-06
1.91056e-06
1.91173e-06
1.91256e-06
1.91306e-06
1.91326e-06
1.91313e-06
1.91269e-06
1.91192e-06
1.91083e-06
1.90935e-06
1.90752e-06
1.9054e-06
1.90345e-06
1.90108e-06
1.90329e-06
1.90527e-06
1.90714e-06
1.90873e-06
1.90991e-06
1.91076e-06
1.91127e-06
1.91147e-06
1.91134e-06
1.91089e-06
1.91011e-06
1.909e-06
1.90749e-06
1.90561e-06
1.90345e-06
1.90109e-06
1.84864e-06
1.85116e-06
1.85339e-06
1.85558e-06
1.85741e-06
1.85879e-06
1.85978e-06
1.86038e-06
1.86061e-06
1.86046e-06
1.85993e-06
1.85901e-06
1.85772e-06
1.85598e-06
1.85377e-06
1.85135e-06
1.84864e-06
1.85116e-06
1.85325e-06
1.85546e-06
1.8576e-06
1.85941e-06
1.86079e-06
1.86177e-06
1.86236e-06
1.86259e-06
1.86244e-06
1.86192e-06
1.86101e-06
1.85972e-06
1.858e-06
1.85584e-06
1.85342e-06
1.85117e-06
1.85339e-06
1.85546e-06
1.85764e-06
1.8597e-06
1.86146e-06
1.86279e-06
1.86374e-06
1.86432e-06
1.86454e-06
1.8644e-06
1.86389e-06
1.86301e-06
1.86176e-06
1.86009e-06
1.85801e-06
1.85561e-06
1.8534e-06
1.85558e-06
1.8576e-06
1.8597e-06
1.86171e-06
1.86342e-06
1.86472e-06
1.86564e-06
1.86621e-06
1.86642e-06
1.86628e-06
1.86579e-06
1.86493e-06
1.86372e-06
1.86209e-06
1.86007e-06
1.85775e-06
1.85559e-06
1.85741e-06
1.85941e-06
1.86146e-06
1.86342e-06
1.86508e-06
1.86635e-06
1.86725e-06
1.8678e-06
1.86801e-06
1.86788e-06
1.86739e-06
1.86656e-06
1.86537e-06
1.86379e-06
1.86181e-06
1.85956e-06
1.85742e-06
1.85879e-06
1.86079e-06
1.86279e-06
1.86472e-06
1.86635e-06
1.8676e-06
1.86849e-06
1.86903e-06
1.86923e-06
1.8691e-06
1.86862e-06
1.86781e-06
1.86664e-06
1.86509e-06
1.86314e-06
1.86093e-06
1.8588e-06
1.85978e-06
1.86177e-06
1.86374e-06
1.86564e-06
1.86725e-06
1.86849e-06
1.86936e-06
1.8699e-06
1.8701e-06
1.86997e-06
1.8695e-06
1.86869e-06
1.86754e-06
1.86601e-06
1.86409e-06
1.86192e-06
1.85979e-06
1.86038e-06
1.86236e-06
1.86432e-06
1.86621e-06
1.8678e-06
1.86903e-06
1.8699e-06
1.87043e-06
1.87063e-06
1.8705e-06
1.87003e-06
1.86923e-06
1.86809e-06
1.86657e-06
1.86467e-06
1.86251e-06
1.86039e-06
1.86061e-06
1.86259e-06
1.86454e-06
1.86642e-06
1.86801e-06
1.86923e-06
1.8701e-06
1.87063e-06
1.87083e-06
1.8707e-06
1.87024e-06
1.86944e-06
1.8683e-06
1.86678e-06
1.86489e-06
1.86274e-06
1.86062e-06
1.86046e-06
1.86244e-06
1.8644e-06
1.86628e-06
1.86788e-06
1.8691e-06
1.86997e-06
1.8705e-06
1.8707e-06
1.87057e-06
1.8701e-06
1.8693e-06
1.86816e-06
1.86664e-06
1.86474e-06
1.86259e-06
1.86047e-06
1.85993e-06
1.86192e-06
1.86389e-06
1.86579e-06
1.86739e-06
1.86862e-06
1.8695e-06
1.87003e-06
1.87024e-06
1.8701e-06
1.86963e-06
1.86883e-06
1.86768e-06
1.86615e-06
1.86423e-06
1.86207e-06
1.85994e-06
1.85901e-06
1.86101e-06
1.86301e-06
1.86493e-06
1.86656e-06
1.86781e-06
1.86869e-06
1.86923e-06
1.86944e-06
1.8693e-06
1.86883e-06
1.86801e-06
1.86685e-06
1.8653e-06
1.86336e-06
1.86116e-06
1.85903e-06
1.85772e-06
1.85972e-06
1.86176e-06
1.86372e-06
1.86537e-06
1.86664e-06
1.86754e-06
1.86809e-06
1.8683e-06
1.86816e-06
1.86768e-06
1.86685e-06
1.86566e-06
1.86409e-06
1.86212e-06
1.85987e-06
1.85773e-06
1.85598e-06
1.858e-06
1.86009e-06
1.86209e-06
1.86379e-06
1.86509e-06
1.86601e-06
1.86657e-06
1.86678e-06
1.86664e-06
1.86615e-06
1.8653e-06
1.86409e-06
1.86247e-06
1.86046e-06
1.85815e-06
1.85599e-06
1.85377e-06
1.85584e-06
1.85801e-06
1.86007e-06
1.86182e-06
1.86314e-06
1.86409e-06
1.86467e-06
1.86489e-06
1.86474e-06
1.86424e-06
1.86336e-06
1.86212e-06
1.86046e-06
1.85838e-06
1.856e-06
1.85378e-06
1.85135e-06
1.85342e-06
1.85561e-06
1.85775e-06
1.85956e-06
1.86093e-06
1.86192e-06
1.86251e-06
1.86274e-06
1.86259e-06
1.86207e-06
1.86116e-06
1.85987e-06
1.85815e-06
1.856e-06
1.85358e-06
1.85136e-06
1.84864e-06
1.85117e-06
1.8534e-06
1.85559e-06
1.85742e-06
1.8588e-06
1.85979e-06
1.86039e-06
1.86062e-06
1.86047e-06
1.85994e-06
1.85903e-06
1.85773e-06
1.85599e-06
1.85378e-06
1.85136e-06
1.84864e-06
1.80034e-06
1.80296e-06
1.80524e-06
1.80755e-06
1.80945e-06
1.8109e-06
1.81194e-06
1.81257e-06
1.81281e-06
1.81265e-06
1.81209e-06
1.81113e-06
1.80977e-06
1.80796e-06
1.80562e-06
1.80314e-06
1.80033e-06
1.80296e-06
1.80513e-06
1.80741e-06
1.80966e-06
1.81156e-06
1.81302e-06
1.81406e-06
1.81469e-06
1.81493e-06
1.81477e-06
1.81421e-06
1.81325e-06
1.81188e-06
1.81007e-06
1.80779e-06
1.80529e-06
1.80295e-06
1.80525e-06
1.80741e-06
1.8097e-06
1.81189e-06
1.81374e-06
1.81516e-06
1.81617e-06
1.81678e-06
1.81702e-06
1.81686e-06
1.81632e-06
1.81538e-06
1.81405e-06
1.81228e-06
1.81008e-06
1.80756e-06
1.80524e-06
1.80755e-06
1.80966e-06
1.81189e-06
1.81401e-06
1.81582e-06
1.81721e-06
1.8182e-06
1.8188e-06
1.81903e-06
1.81888e-06
1.81835e-06
1.81743e-06
1.81613e-06
1.8144e-06
1.81225e-06
1.8098e-06
1.80755e-06
1.80945e-06
1.81156e-06
1.81374e-06
1.81582e-06
1.81759e-06
1.81896e-06
1.81993e-06
1.82052e-06
1.82075e-06
1.8206e-06
1.82007e-06
1.81917e-06
1.81789e-06
1.8162e-06
1.81409e-06
1.8117e-06
1.80944e-06
1.8109e-06
1.81302e-06
1.81516e-06
1.81721e-06
1.81896e-06
1.8203e-06
1.82126e-06
1.82184e-06
1.82206e-06
1.82192e-06
1.8214e-06
1.82052e-06
1.81925e-06
1.81759e-06
1.81551e-06
1.81315e-06
1.81089e-06
1.81194e-06
1.81406e-06
1.81617e-06
1.8182e-06
1.81993e-06
1.82126e-06
1.8222e-06
1.82278e-06
1.823e-06
1.82285e-06
1.82234e-06
1.82147e-06
1.82022e-06
1.81857e-06
1.81651e-06
1.81419e-06
1.81193e-06
1.81257e-06
1.81469e-06
1.81678e-06
1.8188e-06
1.82052e-06
1.82184e-06
1.82278e-06
1.82336e-06
1.82357e-06
1.82343e-06
1.82292e-06
1.82205e-06
1.82081e-06
1.81917e-06
1.81713e-06
1.81482e-06
1.81256e-06
1.81281e-06
1.81493e-06
1.81702e-06
1.81903e-06
1.82075e-06
1.82206e-06
1.823e-06
1.82357e-06
1.82379e-06
1.82365e-06
1.82314e-06
1.82227e-06
1.82104e-06
1.8194e-06
1.81736e-06
1.81506e-06
1.8128e-06
1.81265e-06
1.81477e-06
1.81686e-06
1.81888e-06
1.8206e-06
1.82192e-06
1.82285e-06
1.82343e-06
1.82365e-06
1.8235e-06
1.823e-06
1.82213e-06
1.82089e-06
1.81925e-06
1.81721e-06
1.8149e-06
1.81264e-06
1.81209e-06
1.81421e-06
1.81632e-06
1.81835e-06
1.82007e-06
1.8214e-06
1.82234e-06
1.82292e-06
1.82314e-06
1.823e-06
1.82249e-06
1.82161e-06
1.82037e-06
1.81872e-06
1.81666e-06
1.81435e-06
1.81208e-06
1.81113e-06
1.81325e-06
1.81538e-06
1.81743e-06
1.81917e-06
1.82052e-06
1.82147e-06
1.82205e-06
1.82227e-06
1.82213e-06
1.82161e-06
1.82073e-06
1.81947e-06
1.81781e-06
1.81573e-06
1.81338e-06
1.81112e-06
1.80977e-06
1.81188e-06
1.81405e-06
1.81613e-06
1.81789e-06
1.81925e-06
1.82022e-06
1.82081e-06
1.82104e-06
1.82089e-06
1.82037e-06
1.81947e-06
1.81819e-06
1.81651e-06
1.81441e-06
1.81202e-06
1.80976e-06
1.80796e-06
1.81007e-06
1.81228e-06
1.8144e-06
1.8162e-06
1.81759e-06
1.81857e-06
1.81917e-06
1.8194e-06
1.81925e-06
1.81872e-06
1.81781e-06
1.81651e-06
1.81479e-06
1.81265e-06
1.81021e-06
1.80795e-06
1.80562e-06
1.80779e-06
1.81008e-06
1.81225e-06
1.8141e-06
1.81551e-06
1.81652e-06
1.81713e-06
1.81736e-06
1.81721e-06
1.81667e-06
1.81573e-06
1.81441e-06
1.81265e-06
1.81045e-06
1.80794e-06
1.80561e-06
1.80314e-06
1.80529e-06
1.80756e-06
1.8098e-06
1.8117e-06
1.81315e-06
1.81419e-06
1.81482e-06
1.81506e-06
1.8149e-06
1.81435e-06
1.81338e-06
1.81202e-06
1.81021e-06
1.80794e-06
1.80545e-06
1.80314e-06
1.80033e-06
1.80295e-06
1.80524e-06
1.80754e-06
1.80944e-06
1.81089e-06
1.81193e-06
1.81256e-06
1.8128e-06
1.81264e-06
1.81208e-06
1.81112e-06
1.80976e-06
1.80795e-06
1.80561e-06
1.80314e-06
1.80032e-06
1.75603e-06
1.75857e-06
1.76079e-06
1.76307e-06
1.76493e-06
1.76638e-06
1.76741e-06
1.76804e-06
1.76828e-06
1.76811e-06
1.76756e-06
1.7666e-06
1.76525e-06
1.76348e-06
1.76114e-06
1.75874e-06
1.75602e-06
1.75857e-06
1.76069e-06
1.76292e-06
1.76515e-06
1.76704e-06
1.76849e-06
1.76953e-06
1.77017e-06
1.77041e-06
1.77024e-06
1.76968e-06
1.76872e-06
1.76735e-06
1.76556e-06
1.76329e-06
1.76085e-06
1.75856e-06
1.76079e-06
1.76292e-06
1.76519e-06
1.76737e-06
1.76922e-06
1.77064e-06
1.77166e-06
1.77228e-06
1.77251e-06
1.77236e-06
1.77181e-06
1.77086e-06
1.76953e-06
1.76776e-06
1.76555e-06
1.76306e-06
1.76078e-06
1.76307e-06
1.76515e-06
1.76737e-06
1.76949e-06
1.77131e-06
1.77271e-06
1.77371e-06
1.77433e-06
1.77456e-06
1.7744e-06
1.77386e-06
1.77293e-06
1.77162e-06
1.76988e-06
1.76773e-06
1.76529e-06
1.76307e-06
1.76493e-06
1.76704e-06
1.76922e-06
1.77131e-06
1.7731e-06
1.77449e-06
1.77547e-06
1.77607e-06
1.7763e-06
1.77615e-06
1.77562e-06
1.7747e-06
1.77341e-06
1.77169e-06
1.76957e-06
1.76716e-06
1.76492e-06
1.76638e-06
1.76849e-06
1.77064e-06
1.77271e-06
1.77449e-06
1.77585e-06
1.77683e-06
1.77742e-06
1.77765e-06
1.7775e-06
1.77697e-06
1.77607e-06
1.77478e-06
1.77309e-06
1.77099e-06
1.76862e-06
1.76637e-06
1.76741e-06
1.76953e-06
1.77166e-06
1.77371e-06
1.77547e-06
1.77683e-06
1.77779e-06
1.77839e-06
1.77861e-06
1.77846e-06
1.77794e-06
1.77704e-06
1.77577e-06
1.77409e-06
1.772e-06
1.76966e-06
1.7674e-06
1.76804e-06
1.77017e-06
1.77228e-06
1.77433e-06
1.77607e-06
1.77742e-06
1.77839e-06
1.77898e-06
1.7792e-06
1.77905e-06
1.77853e-06
1.77764e-06
1.77637e-06
1.7747e-06
1.77262e-06
1.77029e-06
1.76803e-06
1.76828e-06
1.77041e-06
1.77251e-06
1.77456e-06
1.7763e-06
1.77765e-06
1.77861e-06
1.7792e-06
1.77942e-06
1.77927e-06
1.77875e-06
1.77786e-06
1.7766e-06
1.77493e-06
1.77286e-06
1.77054e-06
1.76827e-06
1.76811e-06
1.77024e-06
1.77235e-06
1.7744e-06
1.77615e-06
1.7775e-06
1.77846e-06
1.77905e-06
1.77927e-06
1.77912e-06
1.7786e-06
1.77771e-06
1.77644e-06
1.77478e-06
1.7727e-06
1.77037e-06
1.7681e-06
1.76756e-06
1.76968e-06
1.77181e-06
1.77386e-06
1.77562e-06
1.77697e-06
1.77794e-06
1.77853e-06
1.77875e-06
1.7786e-06
1.77808e-06
1.77719e-06
1.77591e-06
1.77424e-06
1.77215e-06
1.76981e-06
1.76755e-06
1.7666e-06
1.76872e-06
1.77086e-06
1.77293e-06
1.7747e-06
1.77607e-06
1.77704e-06
1.77764e-06
1.77786e-06
1.77771e-06
1.77719e-06
1.77628e-06
1.775e-06
1.77331e-06
1.77121e-06
1.76885e-06
1.76659e-06
1.76525e-06
1.76735e-06
1.76953e-06
1.77162e-06
1.77341e-06
1.77478e-06
1.77577e-06
1.77637e-06
1.7766e-06
1.77644e-06
1.77591e-06
1.775e-06
1.77371e-06
1.772e-06
1.76988e-06
1.76748e-06
1.76524e-06
1.76348e-06
1.76556e-06
1.76776e-06
1.76988e-06
1.77169e-06
1.77309e-06
1.77409e-06
1.7747e-06
1.77493e-06
1.77478e-06
1.77424e-06
1.77331e-06
1.772e-06
1.77026e-06
1.76812e-06
1.76569e-06
1.76347e-06
1.76114e-06
1.76329e-06
1.76555e-06
1.76773e-06
1.76957e-06
1.77099e-06
1.772e-06
1.77262e-06
1.77286e-06
1.7727e-06
1.77215e-06
1.77121e-06
1.76988e-06
1.76812e-06
1.76592e-06
1.76343e-06
1.76114e-06
1.75874e-06
1.76085e-06
1.76306e-06
1.76529e-06
1.76716e-06
1.76862e-06
1.76966e-06
1.77029e-06
1.77054e-06
1.77037e-06
1.76981e-06
1.76885e-06
1.76748e-06
1.76569e-06
1.76343e-06
1.761e-06
1.75874e-06
1.75602e-06
1.75856e-06
1.76078e-06
1.76306e-06
1.76492e-06
1.76637e-06
1.7674e-06
1.76803e-06
1.76827e-06
1.7681e-06
1.76755e-06
1.76659e-06
1.76523e-06
1.76347e-06
1.76113e-06
1.75874e-06
1.75601e-06
1.71508e-06
1.71743e-06
1.71949e-06
1.72164e-06
1.72338e-06
1.72475e-06
1.72573e-06
1.72633e-06
1.72655e-06
1.7264e-06
1.72587e-06
1.72497e-06
1.72368e-06
1.72202e-06
1.71982e-06
1.71759e-06
1.71507e-06
1.71743e-06
1.71941e-06
1.72149e-06
1.7236e-06
1.72537e-06
1.72676e-06
1.72775e-06
1.72836e-06
1.72859e-06
1.72843e-06
1.7279e-06
1.72698e-06
1.72567e-06
1.72398e-06
1.72183e-06
1.71955e-06
1.71742e-06
1.71949e-06
1.72149e-06
1.72362e-06
1.72569e-06
1.72745e-06
1.72881e-06
1.72979e-06
1.73038e-06
1.73061e-06
1.73046e-06
1.72993e-06
1.72903e-06
1.72775e-06
1.72607e-06
1.72397e-06
1.72162e-06
1.71948e-06
1.72164e-06
1.7236e-06
1.72569e-06
1.72771e-06
1.72946e-06
1.7308e-06
1.73177e-06
1.73236e-06
1.73258e-06
1.73243e-06
1.73191e-06
1.73102e-06
1.72975e-06
1.72808e-06
1.72603e-06
1.72372e-06
1.72163e-06
1.72338e-06
1.72537e-06
1.72745e-06
1.72945e-06
1.73118e-06
1.73252e-06
1.73347e-06
1.73406e-06
1.73428e-06
1.73413e-06
1.73361e-06
1.73273e-06
1.73147e-06
1.72982e-06
1.72779e-06
1.72549e-06
1.72337e-06
1.72475e-06
1.72676e-06
1.72881e-06
1.7308e-06
1.73252e-06
1.73384e-06
1.73479e-06
1.73537e-06
1.73559e-06
1.73544e-06
1.73493e-06
1.73405e-06
1.7328e-06
1.73117e-06
1.72915e-06
1.72688e-06
1.72474e-06
1.72573e-06
1.72775e-06
1.72979e-06
1.73177e-06
1.73347e-06
1.73479e-06
1.73573e-06
1.73631e-06
1.73653e-06
1.73638e-06
1.73587e-06
1.735e-06
1.73376e-06
1.73213e-06
1.73012e-06
1.72787e-06
1.72572e-06
1.72632e-06
1.72836e-06
1.73038e-06
1.73236e-06
1.73406e-06
1.73537e-06
1.73631e-06
1.73688e-06
1.7371e-06
1.73696e-06
1.73645e-06
1.73558e-06
1.73434e-06
1.73272e-06
1.73072e-06
1.72848e-06
1.72631e-06
1.72655e-06
1.72859e-06
1.73061e-06
1.73258e-06
1.73428e-06
1.73559e-06
1.73653e-06
1.7371e-06
1.73732e-06
1.73717e-06
1.73667e-06
1.7358e-06
1.73456e-06
1.73295e-06
1.73094e-06
1.72871e-06
1.72654e-06
1.7264e-06
1.72843e-06
1.73046e-06
1.73243e-06
1.73413e-06
1.73544e-06
1.73638e-06
1.73696e-06
1.73717e-06
1.73703e-06
1.73652e-06
1.73565e-06
1.73442e-06
1.7328e-06
1.73079e-06
1.72855e-06
1.72639e-06
1.72587e-06
1.72789e-06
1.72993e-06
1.73191e-06
1.73361e-06
1.73493e-06
1.73587e-06
1.73645e-06
1.73667e-06
1.73652e-06
1.73601e-06
1.73514e-06
1.7339e-06
1.73227e-06
1.73026e-06
1.72802e-06
1.72586e-06
1.72497e-06
1.72698e-06
1.72903e-06
1.73102e-06
1.73273e-06
1.73405e-06
1.735e-06
1.73558e-06
1.7358e-06
1.73565e-06
1.73514e-06
1.73426e-06
1.73301e-06
1.73138e-06
1.72936e-06
1.7271e-06
1.72496e-06
1.72368e-06
1.72567e-06
1.72774e-06
1.72975e-06
1.73147e-06
1.7328e-06
1.73376e-06
1.73434e-06
1.73456e-06
1.73442e-06
1.7339e-06
1.73301e-06
1.73176e-06
1.73011e-06
1.72808e-06
1.72579e-06
1.72367e-06
1.72202e-06
1.72398e-06
1.72607e-06
1.72808e-06
1.72982e-06
1.73117e-06
1.73213e-06
1.73272e-06
1.73295e-06
1.7328e-06
1.73227e-06
1.73138e-06
1.73011e-06
1.72845e-06
1.72641e-06
1.7241e-06
1.72201e-06
1.71982e-06
1.72183e-06
1.72397e-06
1.72603e-06
1.72779e-06
1.72915e-06
1.73012e-06
1.73072e-06
1.73094e-06
1.73079e-06
1.73026e-06
1.72936e-06
1.72808e-06
1.72641e-06
1.72431e-06
1.72196e-06
1.71981e-06
1.71759e-06
1.71955e-06
1.72162e-06
1.72372e-06
1.72549e-06
1.72688e-06
1.72787e-06
1.72848e-06
1.72871e-06
1.72855e-06
1.72802e-06
1.7271e-06
1.72579e-06
1.7241e-06
1.72196e-06
1.71969e-06
1.71758e-06
1.71507e-06
1.71742e-06
1.71948e-06
1.72163e-06
1.72337e-06
1.72474e-06
1.72572e-06
1.72631e-06
1.72654e-06
1.72639e-06
1.72586e-06
1.72496e-06
1.72367e-06
1.72201e-06
1.71981e-06
1.71758e-06
1.71506e-06
1.67706e-06
1.67917e-06
1.68103e-06
1.683e-06
1.68458e-06
1.68584e-06
1.68673e-06
1.68728e-06
1.68749e-06
1.68735e-06
1.68686e-06
1.68603e-06
1.68484e-06
1.68335e-06
1.68133e-06
1.67931e-06
1.67705e-06
1.67917e-06
1.68096e-06
1.68285e-06
1.68478e-06
1.6864e-06
1.68768e-06
1.68859e-06
1.68915e-06
1.68937e-06
1.68922e-06
1.68873e-06
1.68788e-06
1.68667e-06
1.68513e-06
1.68315e-06
1.68109e-06
1.67916e-06
1.68103e-06
1.68285e-06
1.6848e-06
1.6867e-06
1.68832e-06
1.68958e-06
1.69048e-06
1.69103e-06
1.69124e-06
1.6911e-06
1.69061e-06
1.68978e-06
1.68859e-06
1.68704e-06
1.68511e-06
1.68297e-06
1.68102e-06
1.683e-06
1.68478e-06
1.6867e-06
1.68856e-06
1.69017e-06
1.69143e-06
1.69232e-06
1.69287e-06
1.69308e-06
1.69294e-06
1.69246e-06
1.69162e-06
1.69044e-06
1.6889e-06
1.68701e-06
1.68489e-06
1.68299e-06
1.68458e-06
1.6864e-06
1.68832e-06
1.69017e-06
1.69178e-06
1.69302e-06
1.69391e-06
1.69446e-06
1.69467e-06
1.69453e-06
1.69404e-06
1.69322e-06
1.69205e-06
1.69051e-06
1.68863e-06
1.68651e-06
1.68457e-06
1.68584e-06
1.68768e-06
1.68958e-06
1.69142e-06
1.69302e-06
1.69426e-06
1.69515e-06
1.69569e-06
1.6959e-06
1.69576e-06
1.69528e-06
1.69446e-06
1.69329e-06
1.69176e-06
1.68989e-06
1.68779e-06
1.68582e-06
1.68673e-06
1.68859e-06
1.69048e-06
1.69232e-06
1.69391e-06
1.69515e-06
1.69603e-06
1.69658e-06
1.69678e-06
1.69664e-06
1.69616e-06
1.69534e-06
1.69418e-06
1.69266e-06
1.69079e-06
1.6887e-06
1.68672e-06
1.68728e-06
1.68915e-06
1.69103e-06
1.69287e-06
1.69446e-06
1.69569e-06
1.69658e-06
1.69712e-06
1.69733e-06
1.69719e-06
1.69671e-06
1.69589e-06
1.69473e-06
1.69321e-06
1.69134e-06
1.68926e-06
1.68727e-06
1.68749e-06
1.68937e-06
1.69124e-06
1.69308e-06
1.69467e-06
1.6959e-06
1.69678e-06
1.69733e-06
1.69753e-06
1.69739e-06
1.69691e-06
1.6961e-06
1.69494e-06
1.69342e-06
1.69155e-06
1.68948e-06
1.68748e-06
1.68735e-06
1.68922e-06
1.6911e-06
1.69294e-06