/*--------------------------------*- C++ -*----------------------------------*\
  =========                 |
  \\      /  F ield         | OpenFOAM: The Open Source CFD Toolbox
   \\    /   O peration     | Website:  https://openfoam.org
    \\  /    A nd           | Version:  6
     \\/     M anipulation  |
\*---------------------------------------------------------------------------*/
FoamFile
{
    version     2.0;
    format      ascii;
    class       volVectorField;
    location    "0";
    object      U;
}
// * * * * * * * * * * * * * * * * * * * * * * * * * * * * * * * * * * * * * //

dimensions      [0 1 -1 0 0 0 0];

internalField   nonuniform List<vector> 
40000
(
(1.78032e-07 -1.78186e-07 0)
(2.04735e-06 -7.6055e-07 0)
(5.49571e-06 -1.18156e-06 0)
(9.96483e-06 -1.34288e-06 0)
(1.46659e-05 -1.32687e-06 0)
(1.90555e-05 -1.18958e-06 0)
(2.27612e-05 -9.73135e-07 0)
(2.55336e-05 -7.08445e-07 0)
(2.72173e-05 -4.17014e-07 0)
(2.77265e-05 -1.13748e-07 0)
(2.70261e-05 1.90835e-07 0)
(2.51175e-05 4.89252e-07 0)
(2.20284e-05 7.76289e-07 0)
(1.78046e-05 1.04849e-06 0)
(1.25043e-05 1.30375e-06 0)
(6.19348e-06 1.54089e-06 0)
(-1.05728e-06 1.75948e-06 0)
(-9.17596e-06 1.9596e-06 0)
(-1.80911e-05 2.14177e-06 0)
(-2.77333e-05 2.30685e-06 0)
(-3.80367e-05 2.45593e-06 0)
(-4.89397e-05 2.59029e-06 0)
(-6.03854e-05 2.71127e-06 0)
(-7.23223e-05 2.82031e-06 0)
(-8.47046e-05 2.91884e-06 0)
(-9.74919e-05 3.00829e-06 0)
(-0.000110649 3.09006e-06 0)
(-0.000124148 3.16549e-06 0)
(-0.000137963 3.23588e-06 0)
(-0.000152076 3.30241e-06 0)
(-0.000166472 3.36618e-06 0)
(-0.000181142 3.42822e-06 0)
(-0.000196077 3.48943e-06 0)
(-0.000211277 3.55064e-06 0)
(-0.000226741 3.61258e-06 0)
(-0.000242472 3.67585e-06 0)
(-0.000258477 3.74099e-06 0)
(-0.000274761 3.80844e-06 0)
(-0.000291335 3.87854e-06 0)
(-0.00030821 3.95156e-06 0)
(-0.000325395 4.02767e-06 0)
(-0.000342904 4.107e-06 0)
(-0.000360748 4.18957e-06 0)
(-0.000378941 4.27535e-06 0)
(-0.000397493 4.36424e-06 0)
(-0.000416417 4.45609e-06 0)
(-0.000435724 4.55068e-06 0)
(-0.000455423 4.64776e-06 0)
(-0.000475523 4.74699e-06 0)
(-0.000496032 4.84803e-06 0)
(-0.000516955 4.95046e-06 0)
(-0.000538296 5.05384e-06 0)
(-0.000560058 5.15767e-06 0)
(-0.000582239 5.26144e-06 0)
(-0.000604839 5.36458e-06 0)
(-0.000627852 5.46651e-06 0)
(-0.000651271 5.56659e-06 0)
(-0.000675087 5.66418e-06 0)
(-0.000699286 5.75859e-06 0)
(-0.000723854 5.84912e-06 0)
(-0.000748772 5.93504e-06 0)
(-0.000774018 6.01559e-06 0)
(-0.000799568 6.09001e-06 0)
(-0.000825394 6.15749e-06 0)
(-0.000851465 6.21724e-06 0)
(-0.000877745 6.26843e-06 0)
(-0.000904198 6.31024e-06 0)
(-0.000930782 6.34182e-06 0)
(-0.000957451 6.36232e-06 0)
(-0.000984157 6.37089e-06 0)
(-0.00101085 6.36669e-06 0)
(-0.00103747 6.34888e-06 0)
(-0.00106396 6.3166e-06 0)
(-0.00109027 6.26905e-06 0)
(-0.00111631 6.20541e-06 0)
(-0.00114203 6.12489e-06 0)
(-0.00116736 6.02673e-06 0)
(-0.00119221 5.91021e-06 0)
(-0.00121651 5.77462e-06 0)
(-0.00124018 5.61931e-06 0)
(-0.00126314 5.4437e-06 0)
(-0.0012853 5.24721e-06 0)
(-0.00130657 5.02938e-06 0)
(-0.00132688 4.78978e-06 0)
(-0.00134611 4.52806e-06 0)
(-0.00136419 4.24397e-06 0)
(-0.00138102 3.93733e-06 0)
(-0.00139651 3.60805e-06 0)
(-0.00141057 3.25616e-06 0)
(-0.0014231 2.88179e-06 0)
(-0.00143402 2.48517e-06 0)
(-0.00144323 2.06667e-06 0)
(-0.00145064 1.62677e-06 0)
(-0.00145618 1.16607e-06 0)
(-0.00145975 6.85331e-07 0)
(-0.00146127 1.85423e-07 0)
(-0.00146069 -3.32635e-07 0)
(-0.00145791 -8.67685e-07 0)
(-0.00145288 -1.41843e-06 0)
(-0.00144554 -1.98344e-06 0)
(-0.00143583 -2.56113e-06 0)
(-0.00142371 -3.14979e-06 0)
(-0.00140913 -3.74759e-06 0)
(-0.00139207 -4.35256e-06 0)
(-0.0013725 -4.9626e-06 0)
(-0.00135041 -5.57552e-06 0)
(-0.0013258 -6.18901e-06 0)
(-0.00129866 -6.80068e-06 0)
(-0.00126901 -7.40806e-06 0)
(-0.00123687 -8.00859e-06 0)
(-0.00120229 -8.59968e-06 0)
(-0.0011653 -9.17869e-06 0)
(-0.00112596 -9.74295e-06 0)
(-0.00108433 -1.02898e-05 0)
(-0.00104051 -1.08166e-05 0)
(-0.000994565 -1.13206e-05 0)
(-0.000946604 -1.17994e-05 0)
(-0.000896734 -1.22504e-05 0)
(-0.000845074 -1.26712e-05 0)
(-0.000791751 -1.30594e-05 0)
(-0.000736904 -1.34129e-05 0)
(-0.000680679 -1.37296e-05 0)
(-0.000623229 -1.40076e-05 0)
(-0.000564714 -1.42452e-05 0)
(-0.000505304 -1.44408e-05 0)
(-0.000445171 -1.45932e-05 0)
(-0.000384493 -1.47012e-05 0)
(-0.000323453 -1.47641e-05 0)
(-0.000262236 -1.4781e-05 0)
(-0.000201028 -1.47518e-05 0)
(-0.000140018 -1.46762e-05 0)
(-7.93947e-05 -1.45544e-05 0)
(-1.93449e-05 -1.43868e-05 0)
(3.99461e-05 -1.4174e-05 0)
(9.8296e-05 -1.3917e-05 0)
(0.000155527 -1.36168e-05 0)
(0.000211465 -1.3275e-05 0)
(0.000265944 -1.2893e-05 0)
(0.000318802 -1.24728e-05 0)
(0.000369888 -1.20164e-05 0)
(0.000419057 -1.15259e-05 0)
(0.000466174 -1.10039e-05 0)
(0.000511114 -1.04528e-05 0)
(0.000553762 -9.87538e-06 0)
(0.000594014 -9.27431e-06 0)
(0.000631777 -8.6525e-06 0)
(0.000666971 -8.01285e-06 0)
(0.000699525 -7.35834e-06 0)
(0.000729382 -6.69192e-06 0)
(0.000756497 -6.01657e-06 0)
(0.000780837 -5.33522e-06 0)
(0.000802379 -4.65074e-06 0)
(0.000821113 -3.96595e-06 0)
(0.000837039 -3.28356e-06 0)
(0.000850171 -2.60617e-06 0)
(0.000860529 -1.93627e-06 0)
(0.000868145 -1.27619e-06 0)
(0.000873062 -6.28126e-07 0)
(0.000875328 5.90449e-09 0)
(0.000875003 6.24043e-07 0)
(0.000872151 1.22461e-06 0)
(0.000866845 1.8061e-06 0)
(0.000859163 2.36719e-06 0)
(0.000849189 2.90673e-06 0)
(0.000837011 3.42373e-06 0)
(0.000822721 3.91739e-06 0)
(0.000806415 4.38703e-06 0)
(0.000788191 4.83212e-06 0)
(0.000768151 5.25224e-06 0)
(0.000746396 5.64708e-06 0)
(0.000723032 6.01639e-06 0)
(0.000698165 6.35997e-06 0)
(0.0006719 6.67764e-06 0)
(0.000644348 6.96919e-06 0)
(0.000615617 7.23435e-06 0)
(0.000585818 7.47274e-06 0)
(0.000555067 7.68384e-06 0)
(0.00052348 7.8669e-06 0)
(0.000491178 8.02092e-06 0)
(0.000458286 8.14457e-06 0)
(0.000424938 8.2361e-06 0)
(0.000391275 8.29329e-06 0)
(0.000357448 8.31337e-06 0)
(0.00032362 8.2929e-06 0)
(0.00028997 8.22769e-06 0)
(0.000256696 8.1127e-06 0)
(0.000224016 7.94191e-06 0)
(0.000192173 7.70823e-06 0)
(0.000161439 7.40338e-06 0)
(0.00013212 7.01782e-06 0)
(0.000104556 6.54075e-06 0)
(7.91255e-05 5.96023e-06 0)
(5.62481e-05 5.26372e-06 0)
(3.63769e-05 4.4393e-06 0)
(1.99862e-05 3.47864e-06 0)
(7.538e-06 2.38424e-06 0)
(-5.84246e-07 1.18251e-06 0)
(-4.23869e-06 -5.26756e-08 0)
(-3.97719e-06 -1.08483e-06 0)
(-1.27071e-06 -1.27065e-06 0)
(7.62911e-07 -2.05015e-06 0)
(5.86934e-06 -5.85705e-06 0)
(1.39026e-05 -8.41247e-06 0)
(2.37129e-05 -9.44235e-06 0)
(3.37093e-05 -9.22359e-06 0)
(4.27304e-05 -8.08244e-06 0)
(4.99174e-05 -6.29624e-06 0)
(5.46561e-05 -4.08389e-06 0)
(5.65374e-05 -1.61192e-06 0)
(5.53147e-05 9.95315e-07 0)
(5.08665e-05 3.64569e-06 0)
(4.31672e-05 6.27149e-06 0)
(3.22628e-05 8.82371e-06 0)
(1.82515e-05 1.12678e-05 0)
(1.26875e-06 1.35808e-05 0)
(-1.85251e-05 1.57482e-05 0)
(-4.09543e-05 1.77629e-05 0)
(-6.58353e-05 1.96227e-05 0)
(-9.29832e-05 2.13297e-05 0)
(-0.000122216 2.28895e-05 0)
(-0.000153359 2.43097e-05 0)
(-0.000186246 2.56e-05 0)
(-0.000220725 2.67712e-05 0)
(-0.000256654 2.78348e-05 0)
(-0.000293906 2.88029e-05 0)
(-0.000332369 2.96875e-05 0)
(-0.000371946 3.05005e-05 0)
(-0.000412553 3.12536e-05 0)
(-0.00045412 3.19578e-05 0)
(-0.00049659 3.26237e-05 0)
(-0.000539919 3.32611e-05 0)
(-0.000584076 3.3879e-05 0)
(-0.000629038 3.44856e-05 0)
(-0.000674794 3.50883e-05 0)
(-0.000721339 3.56937e-05 0)
(-0.000768679 3.63073e-05 0)
(-0.000816825 3.69342e-05 0)
(-0.000865793 3.75783e-05 0)
(-0.000915604 3.8243e-05 0)
(-0.000966283 3.89306e-05 0)
(-0.00101786 3.9643e-05 0)
(-0.00107036 4.03812e-05 0)
(-0.00112382 4.11457e-05 0)
(-0.00117826 4.19363e-05 0)
(-0.00123372 4.27522e-05 0)
(-0.00129022 4.35919e-05 0)
(-0.0013478 4.44537e-05 0)
(-0.00140648 4.53352e-05 0)
(-0.00146627 4.62335e-05 0)
(-0.00152719 4.71453e-05 0)
(-0.00158926 4.80668e-05 0)
(-0.00165249 4.89941e-05 0)
(-0.00171687 4.99226e-05 0)
(-0.00178241 5.08474e-05 0)
(-0.00184909 5.17635e-05 0)
(-0.0019169 5.26653e-05 0)
(-0.0019858 5.3547e-05 0)
(-0.00205578 5.44026e-05 0)
(-0.00212679 5.52259e-05 0)
(-0.00219879 5.60101e-05 0)
(-0.00227171 5.67487e-05 0)
(-0.0023455 5.74345e-05 0)
(-0.00242007 5.80605e-05 0)
(-0.00249536 5.86193e-05 0)
(-0.00257125 5.91035e-05 0)
(-0.00264766 5.95054e-05 0)
(-0.00272448 5.98176e-05 0)
(-0.00280157 6.00321e-05 0)
(-0.00287881 6.01414e-05 0)
(-0.00295606 6.01375e-05 0)
(-0.00303318 6.00128e-05 0)
(-0.00310999 5.97597e-05 0)
(-0.00318633 5.93705e-05 0)
(-0.00326202 5.88379e-05 0)
(-0.00333687 5.81545e-05 0)
(-0.00341069 5.73134e-05 0)
(-0.00348327 5.63079e-05 0)
(-0.00355439 5.51315e-05 0)
(-0.00362384 5.37781e-05 0)
(-0.00369139 5.22422e-05 0)
(-0.0037568 5.05186e-05 0)
(-0.00381983 4.86027e-05 0)
(-0.00388024 4.64904e-05 0)
(-0.00393777 4.41785e-05 0)
(-0.00399218 4.16641e-05 0)
(-0.0040432 3.89455e-05 0)
(-0.00409058 3.60216e-05 0)
(-0.00413406 3.2892e-05 0)
(-0.00417338 2.95577e-05 0)
(-0.00420829 2.60202e-05 0)
(-0.00423854 2.22824e-05 0)
(-0.00426387 1.8348e-05 0)
(-0.00428405 1.4222e-05 0)
(-0.00429884 9.91046e-06 0)
(-0.00430801 5.42063e-06 0)
(-0.00431135 7.60994e-07 0)
(-0.00430867 -4.05876e-06 0)
(-0.00429975 -9.02773e-06 0)
(-0.00428444 -1.41338e-05 0)
(-0.00426256 -1.93635e-05 0)
(-0.00423399 -2.47025e-05 0)
(-0.00419859 -3.01349e-05 0)
(-0.00415626 -3.56439e-05 0)
(-0.00410693 -4.12117e-05 0)
(-0.00405053 -4.68192e-05 0)
(-0.00398703 -5.24467e-05 0)
(-0.00391643 -5.80733e-05 0)
(-0.00383874 -6.36776e-05 0)
(-0.00375402 -6.92373e-05 0)
(-0.00366232 -7.47299e-05 0)
(-0.00356376 -8.01321e-05 0)
(-0.00345847 -8.54205e-05 0)
(-0.0033466 -9.05714e-05 0)
(-0.00322835 -9.55613e-05 0)
(-0.00310393 -0.000100367 0)
(-0.0029736 -0.000104964 0)
(-0.00283762 -0.000109331 0)
(-0.0026963 -0.000113446 0)
(-0.00254997 -0.000117287 0)
(-0.00239899 -0.000120833 0)
(-0.00224373 -0.000124066 0)
(-0.0020846 -0.000126967 0)
(-0.00192203 -0.00012952 0)
(-0.00175645 -0.00013171 0)
(-0.00158833 -0.000133523 0)
(-0.00141814 -0.000134948 0)
(-0.00124638 -0.000135974 0)
(-0.00107354 -0.000136595 0)
(-0.000900134 -0.000136804 0)
(-0.000726677 -0.000136599 0)
(-0.000553687 -0.000135977 0)
(-0.000381681 -0.00013494 0)
(-0.000211174 -0.000133492 0)
(-4.26779e-05 -0.000131637 0)
(0.000123305 -0.000129383 0)
(0.000286282 -0.00012674 0)
(0.000445775 -0.000123719 0)
(0.000601318 -0.000120336 0)
(0.000752467 -0.000116604 0)
(0.000898795 -0.000112543 0)
(0.0010399 -0.000108171 0)
(0.0011754 -0.000103509 0)
(0.00130494 -9.85782e-05 0)
(0.0014282 -9.3403e-05 0)
(0.00154489 -8.8007e-05 0)
(0.00165472 -8.24152e-05 0)
(0.00175748 -7.66532e-05 0)
(0.00185295 -7.0747e-05 0)
(0.00194097 -6.47228e-05 0)
(0.00202139 -5.86067e-05 0)
(0.0020941 -5.24247e-05 0)
(0.00215904 -4.62026e-05 0)
(0.00221615 -3.99653e-05 0)
(0.00226542 -3.37372e-05 0)
(0.00230688 -2.75419e-05 0)
(0.00234056 -2.14019e-05 0)
(0.00236655 -1.53386e-05 0)
(0.00238493 -9.37198e-06 0)
(0.00239583 -3.52094e-06 0)
(0.00239941 2.19715e-06 0)
(0.00239582 7.76637e-06 0)
(0.00238526 1.31723e-05 0)
(0.00236794 1.84019e-05 0)
(0.00234406 2.34438e-05 0)
(0.00231388 2.82878e-05 0)
(0.00227764 3.29254e-05 0)
(0.0022356 3.7349e-05 0)
(0.00218803 4.15524e-05 0)
(0.00213521 4.55303e-05 0)
(0.00207742 4.92782e-05 0)
(0.00201495 5.27922e-05 0)
(0.00194811 5.60688e-05 0)
(0.00187719 5.91046e-05 0)
(0.0018025 6.18958e-05 0)
(0.00172437 6.44384e-05 0)
(0.0016431 6.67271e-05 0)
(0.00155904 6.87555e-05 0)
(0.00147251 7.05154e-05 0)
(0.00138388 7.19963e-05 0)
(0.00129351 7.31848e-05 0)
(0.00120179 7.40645e-05 0)
(0.00110914 7.46148e-05 0)
(0.00101598 7.48107e-05 0)
(0.000922798 7.46222e-05 0)
(0.0008301 7.40133e-05 0)
(0.000738446 7.29419e-05 0)
(0.000648448 7.1359e-05 0)
(0.000560778 6.92086e-05 0)
(0.000476176 6.64274e-05 0)
(0.000395452 6.2946e-05 0)
(0.000319493 5.869e-05 0)
(0.000249262 5.35847e-05 0)
(0.000185784 4.7562e-05 0)
(0.000130127 4.05763e-05 0)
(8.33513e-05 3.26327e-05 0)
(4.64164e-05 2.38441e-05 0)
(2.00192e-05 1.45376e-05 0)
(4.28245e-06 5.4508e-06 0)
(-1.84621e-06 -1.84458e-06 0)
(-1.08677e-06 -3.97857e-06 0)
(1.19145e-06 -5.5184e-06 0)
(8.46771e-06 -1.39075e-05 0)
(1.90704e-05 -1.89958e-05 0)
(3.14387e-05 -2.07893e-05 0)
(4.35222e-05 -1.98554e-05 0)
(5.38317e-05 -1.68354e-05 0)
(6.12241e-05 -1.23021e-05 0)
(6.48478e-05 -6.72998e-06 0)
(6.41116e-05 -4.96809e-07 0)
(5.86413e-05 6.10329e-06 0)
(4.8237e-05 1.2845e-05 0)
(3.28373e-05 1.95581e-05 0)
(1.24875e-05 2.61163e-05 0)
(-1.26861e-05 3.24283e-05 0)
(-4.24979e-05 3.84307e-05 0)
(-7.67211e-05 4.40825e-05 0)
(-0.000115102 4.93603e-05 0)
(-0.000157372 5.42551e-05 0)
(-0.000203257 5.87689e-05 0)
(-0.000252484 6.29124e-05 0)
(-0.00030479 6.67027e-05 0)
(-0.000359923 7.0162e-05 0)
(-0.000417647 7.33162e-05 0)
(-0.000477746 7.61932e-05 0)
(-0.000540022 7.88224e-05 0)
(-0.0006043 8.12337e-05 0)
(-0.000670425 8.3457e-05 0)
(-0.000738265 8.55215e-05 0)
(-0.000807708 8.74553e-05 0)
(-0.000878661 8.9285e-05 0)
(-0.000951052 9.10357e-05 0)
(-0.00102482 9.27305e-05 0)
(-0.00109994 9.43905e-05 0)
(-0.00117638 9.60349e-05 0)
(-0.00125413 9.76805e-05 0)
(-0.00133319 9.93422e-05 0)
(-0.00141357 0.000101033 0)
(-0.0014953 0.000102763 0)
(-0.0015784 0.00010454 0)
(-0.00166292 0.000106373 0)
(-0.00174888 0.000108265 0)
(-0.00183633 0.000110219 0)
(-0.00192531 0.000112236 0)
(-0.00201587 0.000114317 0)
(-0.00210805 0.000116459 0)
(-0.00220189 0.000118659 0)
(-0.00229743 0.000120911 0)
(-0.00239469 0.00012321 0)
(-0.00249373 0.000125548 0)
(-0.00259454 0.000127917 0)
(-0.00269715 0.000130307 0)
(-0.00280157 0.000132706 0)
(-0.00290779 0.000135104 0)
(-0.00301581 0.000137488 0)
(-0.0031256 0.000139844 0)
(-0.00323714 0.000142157 0)
(-0.00335037 0.000144413 0)
(-0.00346525 0.000146595 0)
(-0.00358171 0.000148687 0)
(-0.00369967 0.000150671 0)
(-0.00381903 0.00015253 0)
(-0.00393968 0.000154245 0)
(-0.00406151 0.000155797 0)
(-0.00418437 0.000157167 0)
(-0.00430812 0.000158336 0)
(-0.00443259 0.000159284 0)
(-0.00455759 0.00015999 0)
(-0.00468293 0.000160434 0)
(-0.0048084 0.000160596 0)
(-0.00493376 0.000160456 0)
(-0.00505878 0.000159993 0)
(-0.00518318 0.000159189 0)
(-0.00530671 0.000158022 0)
(-0.00542906 0.000156474 0)
(-0.00554995 0.000154526 0)
(-0.00566904 0.00015216 0)
(-0.00578602 0.000149359 0)
(-0.00590053 0.000146106 0)
(-0.00601223 0.000142387 0)
(-0.00612074 0.000138187 0)
(-0.00622571 0.000133493 0)
(-0.00632674 0.000128293 0)
(-0.00642343 0.000122579 0)
(-0.00651541 0.000116342 0)
(-0.00660226 0.000109575 0)
(-0.00668358 0.000102275 0)
(-0.00675896 9.44396e-05 0)
(-0.006828 8.60691e-05 0)
(-0.00689029 7.71664e-05 0)
(-0.00694543 6.77367e-05 0)
(-0.00699304 5.77882e-05 0)
(-0.00703272 4.73317e-05 0)
(-0.00706409 3.63809e-05 0)
(-0.0070868 2.49525e-05 0)
(-0.00710049 1.30662e-05 0)
(-0.00710483 7.44772e-07 0)
(-0.0070995 -1.19858e-05 0)
(-0.00708423 -2.50965e-05 0)
(-0.00705873 -3.85551e-05 0)
(-0.00702276 -5.23266e-05 0)
(-0.00697612 -6.63726e-05 0)
(-0.00691861 -8.0652e-05 0)
(-0.00685008 -9.51208e-05 0)
(-0.00677043 -0.000109732 0)
(-0.00667956 -0.000124438 0)
(-0.00657744 -0.000139185 0)
(-0.00646405 -0.00015392 0)
(-0.00633945 -0.000168589 0)
(-0.00620371 -0.000183133 0)
(-0.00605695 -0.000197495 0)
(-0.00589933 -0.000211615 0)
(-0.00573108 -0.000225433 0)
(-0.00555244 -0.000238887 0)
(-0.00536373 -0.000251919 0)
(-0.00516528 -0.000264468 0)
(-0.00495748 -0.000276474 0)
(-0.00474077 -0.00028788 0)
(-0.00451562 -0.000298629 0)
(-0.00428256 -0.000308667 0)
(-0.00404213 -0.000317943 0)
(-0.00379493 -0.000326406 0)
(-0.00354159 -0.000334011 0)
(-0.00328277 -0.000340716 0)
(-0.00301915 -0.000346482 0)
(-0.00275146 -0.000351274 0)
(-0.00248044 -0.000355065 0)
(-0.00220685 -0.000357827 0)
(-0.00193147 -0.000359542 0)
(-0.00165509 -0.000360195 0)
(-0.0013785 -0.000359777 0)
(-0.00110252 -0.000358285 0)
(-0.000827952 -0.000355719 0)
(-0.000555595 -0.000352089 0)
(-0.000286247 -0.000347407 0)
(-2.06938e-05 -0.000341691 0)
(0.000240296 -0.000334968 0)
(0.000495972 -0.000327265 0)
(0.000745607 -0.000318617 0)
(0.0009885 -0.000309064 0)
(0.00122398 -0.000298651 0)
(0.00145141 -0.000287424 0)
(0.0016702 -0.000275437 0)
(0.00187977 -0.000262745 0)
(0.00207961 -0.000249406 0)
(0.00226924 -0.000235482 0)
(0.00244824 -0.000221036 0)
(0.00261621 -0.000206133 0)
(0.00277283 -0.000190838 0)
(0.0029178 -0.00017522 0)
(0.0030509 -0.000159344 0)
(0.00317193 -0.000143277 0)
(0.00328075 -0.000127086 0)
(0.00337728 -0.000110834 0)
(0.00346148 -9.45853e-05 0)
(0.00353334 -7.84002e-05 0)
(0.00359293 -6.23374e-05 0)
(0.00364034 -4.64527e-05 0)
(0.00367569 -3.0799e-05 0)
(0.00369917 -1.54259e-05 0)
(0.00371099 -3.7941e-07 0)
(0.00371139 1.42978e-05 0)
(0.00370066 2.85669e-05 0)
(0.00367909 4.23926e-05 0)
(0.00364703 5.57433e-05 0)
(0.00360483 6.8591e-05 0)
(0.00355288 8.0911e-05 0)
(0.00349156 9.26816e-05 0)
(0.00342131 0.000103884 0)
(0.00334255 0.000114503 0)
(0.00325573 0.000124523 0)
(0.00316131 0.000133931 0)
(0.00305976 0.000142717 0)
(0.00295156 0.000150868 0)
(0.0028372 0.000158372 0)
(0.00271719 0.000165216 0)
(0.00259204 0.000171383 0)
(0.0024623 0.000176855 0)
(0.0023285 0.000181608 0)
(0.00219123 0.000185613 0)
(0.00205109 0.000188834 0)
(0.00190869 0.000191228 0)
(0.00176472 0.000192741 0)
(0.00161986 0.00019331 0)
(0.00147489 0.00019286 0)
(0.00133062 0.000191301 0)
(0.00118794 0.000188532 0)
(0.00104779 0.000184435 0)
(0.00091123 0.00017888 0)
(0.000779378 0.000171722 0)
(0.000653457 0.000162808 0)
(0.00053478 0.000151981 0)
(0.000424738 0.000139096 0)
(0.000324785 0.000124034 0)
(0.000236386 0.000106751 0)
(0.000160948 8.73345e-05 0)
(9.96906e-05 6.61257e-05 0)
(5.3443e-05 4.39198e-05 0)
(2.23411e-05 2.23007e-05 0)
(5.46926e-06 4.29163e-06 0)
(-5.40298e-08 -4.24011e-06 0)
(1.36446e-06 -1.00365e-05 0)
(9.55629e-06 -2.37796e-05 0)
(2.09642e-05 -3.13869e-05 0)
(3.36896e-05 -3.35019e-05 0)
(4.53737e-05 -3.11018e-05 0)
(5.43341e-05 -2.51935e-05 0)
(5.92689e-05 -1.66861e-05 0)
(5.91888e-05 -6.35173e-06 0)
(5.33911e-05 5.17713e-06 0)
(4.14179e-05 1.73944e-05 0)
(2.30148e-05 2.99026e-05 0)
(-1.90728e-06 4.23949e-05 0)
(-3.33061e-05 5.46391e-05 0)
(-7.10376e-05 6.6464e-05 0)
(-0.000114881 7.77481e-05 0)
(-0.00016456 8.84103e-05 0)
(-0.000219763 9.84022e-05 0)
(-0.000280154 0.000107702 0)
(-0.000345389 0.000116308 0)
(-0.000415123 0.000124236 0)
(-0.000489018 0.000131514 0)
(-0.000566752 0.000138181 0)
(-0.000648021 0.000144281 0)
(-0.000732542 0.000149863 0)
(-0.00082006 0.000154981 0)
(-0.000910342 0.000159689 0)
(-0.00100319 0.000164041 0)
(-0.00109841 0.000168091 0)
(-0.00119587 0.000171889 0)
(-0.00129544 0.000175486 0)
(-0.00139702 0.000178927 0)
(-0.00150053 0.000182255 0)
(-0.00160591 0.000185511 0)
(-0.00171314 0.000188729 0)
(-0.00182218 0.000191941 0)
(-0.00193305 0.000195176 0)
(-0.00204574 0.000198457 0)
(-0.00216028 0.000201804 0)
(-0.00227671 0.000205233 0)
(-0.00239506 0.000208758 0)
(-0.00251539 0.000212386 0)
(-0.00263773 0.000216125 0)
(-0.00276215 0.000219976 0)
(-0.00288869 0.000223939 0)
(-0.00301741 0.00022801 0)
(-0.00314836 0.000232182 0)
(-0.00328158 0.000236447 0)
(-0.00341711 0.000240793 0)
(-0.00355498 0.000245205 0)
(-0.00369522 0.000249668 0)
(-0.00383785 0.000254164 0)
(-0.00398287 0.000258671 0)
(-0.00413027 0.000263167 0)
(-0.00428003 0.000267628 0)
(-0.00443212 0.000272028 0)
(-0.00458649 0.00027634 0)
(-0.00474307 0.000280534 0)
(-0.0049018 0.00028458 0)
(-0.00506257 0.000288446 0)
(-0.00522526 0.0002921 0)
(-0.00538976 0.000295507 0)
(-0.00555589 0.000298632 0)
(-0.0057235 0.00030144 0)
(-0.0058924 0.000303893 0)
(-0.00606237 0.000305954 0)
(-0.00623318 0.000307586 0)
(-0.00640459 0.00030875 0)
(-0.00657631 0.000309408 0)
(-0.00674807 0.000309522 0)
(-0.00691954 0.000309053 0)
(-0.0070904 0.000307963 0)
(-0.00726028 0.000306215 0)
(-0.00742882 0.000303772 0)
(-0.00759563 0.000300598 0)
(-0.00776029 0.000296657 0)
(-0.00792237 0.000291917 0)
(-0.00808143 0.000286346 0)
(-0.00823701 0.000279912 0)
(-0.00838863 0.000272588 0)
(-0.00853579 0.000264349 0)
(-0.008678 0.00025517 0)
(-0.00881475 0.000245031 0)
(-0.0089455 0.000233915 0)
(-0.00906973 0.000221807 0)
(-0.0091869 0.000208698 0)
(-0.00929648 0.000194581 0)
(-0.00939792 0.000179452 0)
(-0.00949069 0.000163316 0)
(-0.00957425 0.000146177 0)
(-0.00964807 0.000128048 0)
(-0.00971163 0.000108945 0)
(-0.00976443 8.88905e-05 0)
(-0.00980596 6.7911e-05 0)
(-0.00983576 4.60397e-05 0)
(-0.00985337 2.33149e-05 0)
(-0.00985835 -2.19136e-07 0)
(-0.00985029 -2.45125e-05 0)
(-0.00982883 -4.95095e-05 0)
(-0.0097936 -7.51487e-05 0)
(-0.00974431 -0.000101363 0)
(-0.00968068 -0.00012808 0)
(-0.00960247 -0.000155222 0)
(-0.0095095 -0.000182705 0)
(-0.00940162 -0.000210441 0)
(-0.00927873 -0.000238339 0)
(-0.00914079 -0.000266302 0)
(-0.00898781 -0.000294228 0)
(-0.00881985 -0.000322014 0)
(-0.00863701 -0.000349554 0)
(-0.00843948 -0.000376739 0)
(-0.00822748 -0.000403457 0)
(-0.00800129 -0.000429597 0)
(-0.00776126 -0.000455046 0)
(-0.00750779 -0.000479693 0)
(-0.00724135 -0.000503426 0)
(-0.00696245 -0.000526135 0)
(-0.00667167 -0.000547713 0)
(-0.00636963 -0.000568055 0)
(-0.00605702 -0.000587061 0)
(-0.00573456 -0.000604635 0)
(-0.00540304 -0.000620686 0)
(-0.00506328 -0.000635128 0)
(-0.00471616 -0.000647884 0)
(-0.00436257 -0.000658882 0)
(-0.00400345 -0.000668059 0)
(-0.00363979 -0.00067536 0)
(-0.00327257 -0.000680737 0)
(-0.00290282 -0.000684155 0)
(-0.00253157 -0.000685586 0)
(-0.00215987 -0.000685012 0)
(-0.00178879 -0.000682426 0)
(-0.00141937 -0.000677831 0)
(-0.00105268 -0.000671239 0)
(-0.000689754 -0.000662675 0)
(-0.000331633 -0.000652172 0)
(2.0671e-05 -0.000639775 0)
(0.000366166 -0.000625535 0)
(0.000703891 -0.000609517 0)
(0.00103292 -0.000591792 0)
(0.00135235 -0.00057244 0)
(0.00166135 -0.000551549 0)
(0.00195911 -0.000529215 0)
(0.00224487 -0.00050554 0)
(0.00251794 -0.00048063 0)
(0.00277767 -0.000454599 0)
(0.00302347 -0.000427562 0)
(0.00325482 -0.000399641 0)
(0.00347126 -0.000370956 0)
(0.00367238 -0.000341632 0)
(0.00385785 -0.000311792 0)
(0.00402739 -0.000281561 0)
(0.0041808 -0.000251061 0)
(0.00431794 -0.000220414 0)
(0.00443871 -0.000189736 0)
(0.0045431 -0.000159143 0)
(0.00463115 -0.000128744 0)
(0.00470296 -9.86466e-05 0)
(0.00475867 -6.89495e-05 0)
(0.0047985 -3.97477e-05 0)
(0.00482269 -1.11296e-05 0)
(0.00483155 1.68228e-05 0)
(0.00482543 4.40341e-05 0)
(0.00480471 7.04353e-05 0)
(0.00476982 9.59642e-05 0)
(0.00472121 0.000120565 0)
(0.00465938 0.000144187 0)
(0.00458483 0.000166788 0)
(0.00449812 0.000188327 0)
(0.00439981 0.00020877 0)
(0.00429049 0.000228087 0)
(0.00417077 0.000246249 0)
(0.00404127 0.00026323 0)
(0.00390263 0.000279003 0)
(0.00375552 0.000293543 0)
(0.00360062 0.000306818 0)
(0.00343862 0.000318797 0)
(0.00327026 0.000329439 0)
(0.00309627 0.000338697 0)
(0.00291744 0.000346515 0)
(0.00273458 0.000352824 0)
(0.00254855 0.000357541 0)
(0.00236023 0.000360568 0)
(0.00217059 0.000361787 0)
(0.00198065 0.000361063 0)
(0.00179149 0.000358237 0)
(0.00160429 0.000353129 0)
(0.00142029 0.000345536 0)
(0.00124084 0.000335233 0)
(0.00106741 0.000321982 0)
(0.00090152 0.000305533 0)
(0.000744821 0.000285642 0)
(0.000599019 0.000262097 0)
(0.000465867 0.000234752 0)
(0.000347102 0.000203597 0)
(0.000244364 0.000168862 0)
(0.000159067 0.000131189 0)
(9.22055e-05 9.19073e-05 0)
(4.41401e-05 5.34495e-05 0)
(1.46294e-05 2.00906e-05 0)
(1.18871e-06 -5.65983e-07 0)
(1.36027e-06 -1.48193e-05 0)
(9.3818e-06 -3.38752e-05 0)
(2.00744e-05 -4.35096e-05 0)
(3.12961e-05 -4.51769e-05 0)
(4.05135e-05 -4.03671e-05 0)
(4.59328e-05 -3.04971e-05 0)
(4.61697e-05 -1.68349e-05 0)
(4.01681e-05 -4.67719e-07 0)
(2.71695e-05 1.76989e-05 0)
(6.67403e-06 3.69269e-05 0)
(-2.16001e-05 5.66259e-05 0)
(-5.77541e-05 7.63323e-05 0)
(-0.000101743 9.56893e-05 0)
(-0.000153405 0.00011443 0)
(-0.000212492 0.000132361 0)
(-0.000278688 0.000149351 0)
(-0.000351633 0.000165319 0)
(-0.00043094 0.000180224 0)
(-0.000516207 0.000194058 0)
(-0.000607029 0.000206842 0)
(-0.000703011 0.000218614 0)
(-0.000803769 0.000229429 0)
(-0.000908944 0.000239355 0)
(-0.0010182 0.000248466 0)
(-0.00113122 0.000256843 0)
(-0.00124774 0.000264569 0)
(-0.0013675 0.000271726 0)
(-0.00149029 0.000278399 0)
(-0.00161593 0.000284667 0)
(-0.00174426 0.000290606 0)
(-0.00187515 0.00029629 0)
(-0.00200851 0.000301786 0)
(-0.00214427 0.000307156 0)
(-0.00228238 0.000312455 0)
(-0.0024228 0.000317735 0)
(-0.00256554 0.00032304 0)
(-0.00271059 0.000328407 0)
(-0.00285798 0.000333868 0)
(-0.00300775 0.00033945 0)
(-0.00315994 0.000345173 0)
(-0.0033146 0.000351051 0)
(-0.00347178 0.000357093 0)
(-0.00363154 0.000363305 0)
(-0.00379394 0.000369684 0)
(-0.00395905 0.000376224 0)
(-0.00412691 0.000382917 0)
(-0.00429757 0.000389747 0)
(-0.00447108 0.000396695 0)
(-0.00464747 0.00040374 0)
(-0.00482676 0.000410855 0)
(-0.00500897 0.00041801 0)
(-0.00519409 0.000425173 0)
(-0.00538212 0.000432307 0)
(-0.00557302 0.000439374 0)
(-0.00576674 0.000446331 0)
(-0.00596322 0.000453135 0)
(-0.00616237 0.000459738 0)
(-0.00636408 0.000466092 0)
(-0.00656824 0.000472144 0)
(-0.00677469 0.000477844 0)
(-0.00698326 0.000483134 0)
(-0.00719376 0.000487959 0)
(-0.00740597 0.000492262 0)
(-0.00761965 0.000495982 0)
(-0.00783454 0.00049906 0)
(-0.00805033 0.000501436 0)
(-0.00826671 0.000503048 0)
(-0.00848334 0.000503835 0)
(-0.00869985 0.000503735 0)
(-0.00891584 0.000502688 0)
(-0.00913091 0.000500632 0)
(-0.0093446 0.000497507 0)
(-0.00955645 0.000493256 0)
(-0.00976596 0.000487821 0)
(-0.00997263 0.000481148 0)
(-0.0101759 0.000473182 0)
(-0.0103753 0.000463874 0)
(-0.0105701 0.000453177 0)
(-0.0107599 0.000441047 0)
(-0.0109439 0.000427443 0)
(-0.0111216 0.000412331 0)
(-0.0112923 0.000395677 0)
(-0.0114555 0.000377458 0)
(-0.0116104 0.000357651 0)
(-0.0117563 0.000336242 0)
(-0.0118927 0.000313223 0)
(-0.0120188 0.000288592 0)
(-0.012134 0.000262354 0)
(-0.0122377 0.000234522 0)
(-0.0123292 0.000205116 0)
(-0.0124079 0.000174165 0)
(-0.0124731 0.000141706 0)
(-0.0125243 0.000107784 0)
(-0.0125608 7.24537e-05 0)
(-0.0125822 3.57778e-05 0)
(-0.0125879 -2.17135e-06 0)
(-0.0125775 -4.13128e-05 0)
(-0.0125504 -8.15565e-05 0)
(-0.0125062 -0.000122803 0)
(-0.0124447 -0.000164946 0)
(-0.0123654 -0.000207867 0)
(-0.0122682 -0.000251443 0)
(-0.0121527 -0.000295541 0)
(-0.0120189 -0.000340021 0)
(-0.0118665 -0.000384737 0)
(-0.0116956 -0.000429534 0)
(-0.0115062 -0.000474254 0)
(-0.0112984 -0.000518733 0)
(-0.0110723 -0.000562803 0)
(-0.0108281 -0.000606291 0)
(-0.0105662 -0.000649023 0)
(-0.0102868 -0.000690823 0)
(-0.00999044 -0.000731515 0)
(-0.00967755 -0.000770923 0)
(-0.00934871 -0.000808871 0)
(-0.00900457 -0.000845188 0)
(-0.00864581 -0.000879706 0)
(-0.00827319 -0.000912261 0)
(-0.00788755 -0.000942696 0)
(-0.00748976 -0.00097086 0)
(-0.00708078 -0.00099661 0)
(-0.00666159 -0.00101981 0)
(-0.00623326 -0.00104035 0)
(-0.00579686 -0.0010581 0)
(-0.00535354 -0.00107297 0)
(-0.00490447 -0.00108488 0)
(-0.00445085 -0.00109374 0)
(-0.00399391 -0.00109951 0)
(-0.00353491 -0.00110213 0)
(-0.00307511 -0.00110158 0)
(-0.00261579 -0.00109785 0)
(-0.00215822 -0.00109093 0)
(-0.00170369 -0.00108085 0)
(-0.00125347 -0.00106765 0)
(-0.000808798 -0.00105137 0)
(-0.000370917 -0.00103207 0)
(5.89703e-05 -0.00100985 0)
(0.000479691 -0.000984802 0)
(0.00089011 -0.000957028 0)
(0.00128914 -0.000926657 0)
(0.00167573 -0.000893823 0)
(0.0020489 -0.000858675 0)
(0.00240772 -0.00082137 0)
(0.00275132 -0.000782074 0)
(0.00307889 -0.000740963 0)
(0.00338969 -0.000698218 0)
(0.00368308 -0.000654026 0)
(0.00395844 -0.000608578 0)
(0.00421528 -0.000562067 0)
(0.00445314 -0.000514688 0)
(0.00467167 -0.000466635 0)
(0.00487058 -0.000418103 0)
(0.00504965 -0.000369282 0)
(0.00520877 -0.000320358 0)
(0.00534786 -0.000271514 0)
(0.00546693 -0.000222926 0)
(0.00556609 -0.000174761 0)
(0.00564547 -0.000127181 0)
(0.00570529 -8.0338e-05 0)
(0.00574583 -3.4375e-05 0)
(0.00576743 1.05746e-05 0)
(0.00577048 5.43874e-05 0)
(0.00575543 9.69501e-05 0)
(0.00572278 0.000138159 0)
(0.00567305 0.000177921 0)
(0.00560682 0.000216152 0)
(0.00552472 0.000252775 0)
(0.0054274 0.000287725 0)
(0.00531552 0.000320938 0)
(0.00518982 0.000352362 0)
(0.00505101 0.000381944 0)
(0.00489988 0.000409638 0)
(0.0047372 0.000435394 0)
(0.00456379 0.000459166 0)
(0.0043805 0.0004809 0)
(0.00418819 0.000500538 0)
(0.00398775 0.000518013 0)
(0.00378012 0.000533246 0)
(0.00356627 0.000546146 0)
(0.0033472 0.0005566 0)
(0.00312397 0.00056448 0)
(0.00289771 0.00056963 0)
(0.00266957 0.000571871 0)
(0.00244083 0.000570995 0)
(0.00221279 0.000566764 0)
(0.00198688 0.000558908 0)
(0.00176461 0.000547132 0)
(0.00154758 0.000531111 0)
(0.0013375 0.000510508 0)
(0.00113618 0.000484978 0)
(0.000945493 0.0004542 0)
(0.000767399 0.000417905 0)
(0.000603872 0.000375942 0)
(0.000456859 0.000328362 0)
(0.000328203 0.000275555 0)
(0.000219531 0.000218463 0)
(0.000132098 0.000158886 0)
(6.66964e-05 9.99216e-05 0)
(2.40804e-05 4.66782e-05 0)
(2.40748e-06 7.6258e-06 0)
(1.23046e-06 -1.93113e-05 0)
(8.23431e-06 -4.29856e-05 0)
(1.69526e-05 -5.37861e-05 0)
(2.51003e-05 -5.39999e-05 0)
(3.00994e-05 -4.56823e-05 0)
(3.01138e-05 -3.06928e-05 0)
(2.37337e-05 -1.06735e-05 0)
(9.88678e-06 1.29643e-05 0)
(-1.21966e-05 3.90342e-05 0)
(-4.30231e-05 6.65572e-05 0)
(-8.28759e-05 9.47399e-05 0)
(-0.00013185 0.000122951 0)
(-0.000189888 0.000150699 0)
(-0.000256807 0.000177609 0)
(-0.000332329 0.00020341 0)
(-0.000416104 0.00022791 0)
(-0.000507733 0.000250991 0)
(-0.000606782 0.000272588 0)
(-0.000712804 0.000292686 0)
(-0.000825345 0.000311305 0)
(-0.000943958 0.000328497 0)
(-0.00106821 0.000344334 0)
(-0.0011977 0.000358908 0)
(-0.00133204 0.000372321 0)
(-0.00147087 0.000384685 0)
(-0.00161389 0.000396114 0)
(-0.00176079 0.000406726 0)
(-0.00191135 0.000416636 0)
(-0.00206534 0.000425958 0)
(-0.00222258 0.0004348 0)
(-0.00238292 0.000443264 0)
(-0.00254625 0.000451447 0)
(-0.00271249 0.000459436 0)
(-0.00288156 0.000467313 0)
(-0.00305344 0.000475148 0)
(-0.0032281 0.000483005 0)
(-0.00340556 0.000490939 0)
(-0.00358584 0.000498996 0)
(-0.00376896 0.000507212 0)
(-0.00395498 0.000515618 0)
(-0.00414394 0.000524234 0)
(-0.00433591 0.000533074 0)
(-0.00453095 0.000542144 0)