/*--------------------------------*- C++ -*----------------------------------*\
  =========                 |
  \\      /  F ield         | OpenFOAM: The Open Source CFD Toolbox
   \\    /   O peration     | Website:  https://openfoam.org
    \\  /    A nd           | Version:  6
     \\/     M anipulation  |
\*---------------------------------------------------------------------------*/
FoamFile
{
    version     2.0;
    format      ascii;
    class       volScalarField;
    location    "0";
    object      P_rec;
}
// * * * * * * * * * * * * * * * * * * * * * * * * * * * * * * * * * * * * * //

dimensions      [0 2 -2 0 0 0 0];

internalField   nonuniform List<scalar> 
13046
(
1.21472
1.10676
1.25888
1.19943
1.26504
1.14946
1.17151
1.14279
1.277
0.642857
0.753103
1.26092
1.18253
1.0666
1.26972
0.804655
1.24974
0.758879
1.26851
1.20796
1.16514
0.775627
1.25553
0.762048
1.21484
1.15517
1.24614
1.16594
1.05141
1.26684
1.23357
1.08302
1.25134
1.22731
1.24759
1.16375
1.21867
1.25048
1.18264
1.26522
1.21505
1.05326
1.20609
1.24033
1.21264
1.20077
1.23967
1.20963
1.19006
1.10448
1.26493
1.16311
1.29442
0.984484
1.15377
0.958302
1.3025
0.847769
1.10627
1.23401
1.0431
1.04526
1.29419
1.26995
0.865908
0.878212
1.14651
0.85082
1.22389
1.17405
0.869833
1.22271
0.818753
1.0766
1.23396
1.26945
1.2188
1.13904
1.24451
1.00238
0.807377
1.20176
1.14941
1.25309
1.26556
0.837671
0.828065
0.815491
1.28528
0.911243
1.29146
0.713998
0.932345
1.07218
1.03162
0.970492
0.957523
1.27018
1.27673
1.2899
0.82168
0.930467
1.19708
1.2521
1.1956
1.30478
1.01457
1.15334
1.28212
1.18738
1.01907
0.407086
1.25331
0.663211
1.19321
1.08879
1.26417
1.04653
1.07705
0.917146
1.26166
0.949532
1.26269
0.595815
0.727223
1.25814
1.13536
1.00167
1.27384
1.25511
1.22396
1.04954
1.29243
0.755527
0.955578
0.959927
0.938443
1.28069
1.22355
1.06256
1.25064
1.10131
1.12386
1.28623
1.28491
1.17161
1.01553
1.29905
1.04411
1.16318
1.03161
1.01913
1.29219
1.29832
1.10736
1.16512
1.1111
0.950471
1.08886
0.943065
1.30693
1.30732
1.08313
1.12372
1.2944
0.627534
1.26583
0.768177
0.485852
1.25444
0.683083
0.94413
0.915778
1.27701
1.26114
0.98437
1.22113
1.08995
1.29361
1.14116
1.27405
0.813595
0.654802
1.26558
1.01022
1.21533
1.29926
1.08416
1.16045
1.12029
1.13351
1.28205
1.05563
1.28329
1.14928
1.02651
1.27008
0.790415
1.27662
0.866814
1.29462
0.810638
0.957707
0.724059
0.904698
1.28596
1.15718
0.924515
1.29014
1.14388
1.0264
1.23718
0.800502
0.878367
0.697353
1.28497
1.20048
1.25754
1.18457
1.18986
1.05432
1.2597
1.29626
0.79115
0.965701
1.12806
1.06993
1.28753
1.26344
0.729496
0.504622
1.29455
0.921367
1.14237
0.778746
0.926747
1.28913
1.00613
1.10634
1.3051
1.13162
0.989426
1.26963
1.02306
0.825734
1.29873
0.910171
1.07344
1.30315
1.26396
0.729324
0.455293
1.28815
1.20051
0.99842
0.448802
1.24656
0.617834
1.26492
1.17557
1.19226
1.03128
1.0349
1.08958
1.11077
1.30431
1.29482
1.2393
0.959766
0.794124
1.1679
1.00221
1.25856
0.89554
1.04947
1.30663
0.99805
0.923455
1.26979
1.22173
1.20155
1.23845
0.97755
1.08541
1.30568
1.17379
0.982374
1.25543
1.14274
1.13039
1.29193
1.19452
0.976843
0.968763
1.06325
1.30335
0.950204
1.27012
0.909379
1.295
1.19177
1.03699
1.30895
0.924697
1.10854
1.10017
0.917137
1.24973
1.29282
1.17422
0.9758
1.06704
1.04353
0.895558
1.2496
0.895322
1.25704
1.27124
0.82244
0.699411
1.10355
0.960549
1.26105
0.594827
1.25125
0.257731
1.1404
1.27876
1.17253
1.07186
1.06018
1.28994
1.27789
0.845625
0.88634
1.1448
0.929242
1.30203
1.00055
0.812397
1.29875
1.10041
1.27808
1.06597
1.02684
1.28239
1.10258
1.28629
0.859876
1.25069
0.782862
1.16398
0.898153
1.28996
1.04114
1.01042
1.27999
1.07897
1.11966
1.29588
1.01382
1.15569
1.30047
1.20552
1.12159
1.26507
1.29948
0.93074
1.12227
0.761482
0.878426
1.27962
0.996801
0.818257
1.29868
1.20056
1.21287
0.89369
1.03035
1.0623
0.866465
0.846515
1.24184
1.2434
1.2495
0.605176
0.321648
0.498462
1.24754
0.632708
1.01123
1.07319
1.29255
1.27331
0.765604
0.84273
1.1485
1.12824
0.901418
0.89797
1.23765
1.24054
1.27826
0.844325
0.588834
0.41522
1.24423
0.586198
1.16774
1.25166
1.22456
0.393911
0.631491
1.25029
1.24262
0.987042
1.2278
0.67191
0.831114
1.27715
0.609301
1.25413
0.125553
1.26932
1.21187
1.0782
1.1616
1.18764
1.26737
0.610631
1.25718
0.712174
1.14512
1.17898
1.27359
1.18305
1.24532
1.22618
1.30677
0.89203
1.13277
1.12668
1.21225
1.27018
1.14229
1.18353
1.27718
1.22542
0.900839
1.20589
1.25901
1.26448
0.774888
0.779133
0.732927
0.710982
0.705674
0.86329
1.27745
1.21721
1.19163
0.866848
1.27109
1.20439
1.01658
0.889098
1.07541
1.29953
0.69114
1.26054
0.24092
1.28935
0.695976
0.909122
0.521983
1.25814
0.711032
1.25277
0.582233
0.089144
0.547309
1.24862
0.163517
1.02491
0.958503
1.29306
0.783769
1.27096
0.442522
0.921112
0.936613
1.28306
0.739981
1.24103
0.698416
1.17087
1.27015
1.10929
0.86674
1.28241
0.632752
0.901277
1.3001
1.09145
1.03597
0.895931
1.30672
1.24996
0.473424
-0.102753
0.619723
1.25337
0.221133
1.18819
1.27291
1.12338
0.824632
0.582716
1.2748
1.27725
0.531735
0.829856
0.776576
1.26774
0.828634
1.24781
0.810646
0.929672
1.25148
0.885934
1.20152
0.867552
1.09931
1.24301
1.24348
0.886954
0.757648
1.2106
1.19514
1.0069
0.984265
1.2444
1.24969
1.22951
1.00742
1.23569
1.17559
0.887857
1.23423
1.01096
0.85879
1.29901
0.864766
0.691954
1.28345
1.29446
0.854992
0.980576
0.557245
1.24841
0.226363
1.26046
1.24426
1.23625
1.07937
1.24438
1.09164
1.2154
1.21579
1.22358
0.926708
1.22887
0.947149
0.635866
1.25707
0.129617
0.832608
0.626837
1.27661
1.27146
1.1911
0.96741
1.04262
0.854675
1.30207
1.24594
0.818576
0.96328
0.676653
0.355364
1.25821
0.70472
0.387256
1.26092
1.12798
0.917385
1.24981
1.29923
1.18551
1.05877
0.738708
1.26558
0.805546
1.01624
0.921006
1.2987
1.27067
0.877577
0.923584
1.23359
1.21903
0.945668
1.01503
1.12463
1.30165
1.27535
1.20699
1.03741
1.26744
0.80144
0.69092
1.00397
0.906077
1.26414
1.2673
1.22155
1.08963
0.836528
1.24046
0.731366
1.21472
1.0504
1.24771
1.12912
1.1472
1.29232
1.04537
0.928498
1.3016
0.596507
1.24433
0.655736
0.641915
1.24278
0.660406
1.26578
0.861917
0.926513
0.982544
1.12795
1.29971
1.24101
0.624814
0.533495
1.28204
0.915073
0.87991
1.25326
0.567281
0.00761383
0.115272
0.508147
1.24543
1.24906
0.779828
0.894411
1.26687
0.762269
0.571888
0.793946
0.833206
1.25691
0.791222
1.26082
0.817686
0.860663
0.925903
1.28458
1.31025
1.06176
0.846131
1.24265
1.24614
1.1177
0.87999
0.964525
1.2938
1.29676
0.893232
0.985117
0.925293
1.23976
0.763761
1.20596
0.903444
1.22722
1.22518
0.967641
1.22624
0.977345
1.00473
1.2915
0.953377
1.00208
1.2944
1.26957
1.21485
1.11587
1.19424
0.963976
1.24934
1.28496
0.878574
0.629021
0.357692
1.26409
0.719029
0.30559
1.26326
0.71658
1.25318
1.22697
1.02697
0.65705
1.2569
0.273322
0.970477
1.26309
0.874391
1.25777
0.666682
0.220019
1.19804
1.26638
1.1683
1.12469
1.03485
1.27673
1.14201
0.988865
1.30142
1.27434
0.799299
0.499879
1.02297
0.920039
1.30171
1.24307
0.793243
0.728027
1.0902
1.01907
1.28072
1.24356
1.24813
1.13292
0.79728
0.536733
1.27313
1.27591
0.886156
0.883969
0.571471
0.520553
1.25061
1.25063
0.684273
0.66613
1.06155
1.09507
1.2981
1.04368
0.981105
1.29349
1.14981
1.14295
1.28392
0.749686
0.41982
0.759648
1.26705
0.409099
1.26899
1.02814
0.974902
1.2837
0.529546
0.473358
0.777047
0.755286
1.27049
1.26733
0.979827
1.06305
1.30528
1.10838
1.0704
1.28396
0.69578
1.24568
0.694697
1.08535
1.07975
1.29575
1.14432
1.12215
1.2837
0.603052
1.24582
0.680265
1.10002
0.995009
1.27248
1.10061
0.874484
1.30206
1.24295
0.925043
1.21157
0.972844
1.29436
0.762299
1.24979
0.502702
-0.0326559
1.07952
1.05373
1.28614
0.730283
1.25098
0.738112
1.18416
0.891479
1.27279
0.272893
1.24209
0.549375
1.29116
1.29009
1.17537
1.08439
1.17412
1.0643
1.14802
1.15455
1.28322
1.27686
1.28306
1.19781
1.0807
1.19907
1.08283
1.10097
1.08963
1.29208
1.10496
1.09621
1.29402
1.26656
0.738936
0.333804
1.24116
1.0289
1.23133
0.58385
0.784856
1.26975
0.969403
0.935586
0.981254
0.959554
1.28586
1.28401
1.22932
1.05419
1.23739
1.16831
0.929156
1.23757
1.02411
1.00867
1.28937
1.24103
1.16345
1.23184
0.917978
0.9736
1.2921
1.2475
1.23317
1.11692
1.00852
1.05273
1.30035
1.16323
0.950988
1.24107
1.24319
1.25345
1.14493
1.23837
1.14176
1.22866
1.272
1.20145
1.28166
1.12128
1.2075
1.09738
1.2067
1.19361
1.02653
1.0271
1.25044
1.25362
1.25272
0.83127
0.937496
1.29947
0.902431
1.11774
1.25717
1.26094
0.813471
0.830316
0.891355
0.88165
1.28937
1.17512
0.943854
1.22909
1.23535
1.19089
0.909662
0.953992
1.28886
1.25637
1.23306
1.05756
1.14567
0.94648
1.246
1.00948
1.01245
0.848504
1.2524
0.867277
1.25538
0.991416
0.963789
1.28103
0.332767
0.58002
1.24391
1.17672
0.911141
1.27796
1.25957
1.26085
1.19296
0.902155
1.19874
0.920032
0.878333
1.00268
1.29912
1.185
0.938251
1.23561
1.28539
1.18288
0.944289
1.25225
1.25439
1.20171
1.21746
0.964954
0.963664
1.2491
1.20512
0.932858
0.995026
0.983345
1.2863
1.25657
1.22592
1.12509
0.658364
1.25351
0.721335
1.28011
1.18542
0.924358
1.14896
1.11842
0.960911
0.945574
1.24958
1.25868
1.25351
0.745851
0.707065
0.700142
1.24966
0.71411
0.654368
1.249
0.70272
0.974524
1.25775
0.858256
1.19462
0.963229
1.23788
0.858848
0.967348
1.12767
0.863115
1.06627
0.689281
1.01684
0.913734
0.862748
1.06499
1.06388
0.846071
0.871667
1.05408
0.950554
0.886274
0.882804
0.939914
0.965461
1.03241
0.974337
0.935644
1.08356
1.23601
1.14685
0.9703
1.07685
0.854095
0.989676
0.8636
0.863685
1.01537
0.966174
0.963308
0.882111
0.976154
1.13145
1.07747
0.902353
0.979741
0.921439
1.23896
0.895521
1.05544
1.09324
0.928946
0.933204
0.908489
0.85018
0.89643
1.15818
0.978678
0.888647
0.92766
0.861658
1.15492
1.03244
0.970775
0.907979
1.04735
0.893867
0.900784
1.15027
0.927522
0.969098
1.03552
0.983617
1.19596
1.07974
1.05781
0.836235
0.861031
0.92658
1.04721
0.852904
0.96295
0.966381
0.877583
1.03953
1.10902
0.940309
0.962545
0.851904
0.884101
0.918208
1.04562
0.918921
0.884603
0.944742
1.15284
0.892376
1.04889
1.14063
0.966231
0.879693
0.642101
0.884196
0.911075
0.87795
0.833419
1.00404
1.08833
1.09887
1.19647
0.884272
0.866465
0.852387
0.900616
0.885997
1.12977
1.09486
1.03103
0.877996
0.863216
0.986479
1.07093
0.934694
0.884811
0.824381
0.936874
0.959126
1.15387
1.18675
1.05155
0.975388
0.930322
0.84762
1.18195
0.822293
1.04359
0.829907
1.14749
0.853094
0.792004
0.848528
1.10908
0.955169
0.804074
0.893315
1.02078
0.882259
1.05089
1.00155
0.904964
1.08846
0.927501
0.879468
1.12006
0.895855
0.940466
0.845797
0.982167
0.90025
1.10497
1.04954
0.931675
1.04602
1.05152
1.12895
0.969279
0.922423
0.902648
1.05264
0.820475
0.970456
0.855742
1.23007
0.937158
1.09838
1.18705
0.978554
1.18864
1.10984
1.13204
0.866251
0.826609
0.846295
1.1312
0.872003
0.858108
0.81276
0.859037
0.942098
0.92417
0.979847
1.18504
1.04992
0.923847
1.0403
0.918429
1.23415
0.772993
1.08319
0.907522
0.819172
1.17138
1.19916
0.903744
0.910808
1.22642
0.992695
0.886186
0.886641
1.04981
1.12325
1.02352
0.889901
0.908666
1.06119
0.975687
0.890164
0.966872
0.815406
0.870636
0.931704
1.04695
0.828618
0.903143
1.09044
0.915081
0.827017
0.931259
0.892443
0.911106
1.01006
1.01801
0.877565
0.857568
0.844382
1.03508
1.0166
0.928824
1.023
0.928588
0.873979
0.999252
0.923744
0.814029
1.0111
1.11935
0.985382
1.14323
1.11617
1.24023
0.883823
0.799935
0.948082
0.930682
0.90771
0.834056
0.999393
1.16223
1.03423
0.995633
0.883501
0.93376
1.03321
0.970079
1.0139
0.896457
0.948967
0.921146
0.805648
0.883117
0.908102
0.89138
0.878591
1.01987
0.974246
0.93048
1.02482
0.877931
0.943334
0.897367
0.931781
0.91466
0.916302
0.992746
0.831369
0.794484
0.954255
0.842034
0.826461
0.995122
0.786697
0.826288
1.10513
1.0272
0.891
1.01761
0.867985
1.01758
0.959253
0.809421
0.88453
1.07445
0.947773
1.04408
0.693286
0.872602
1.10454
0.918083
0.853206
0.781502
0.835089
0.82214
0.838796
0.925546
1.03028
0.874182
0.819066
0.886832
0.91402
1.23625
0.85944
1.04884
0.995996
0.791497
0.929761
0.883906
0.857597
1.01197
0.928167
1.16452
1.02418
0.874989
0.927096
0.979861
1.23511
1.03151
1.13379
1.05617
0.92499
0.980506
0.940502
0.882365
0.836065
0.912279
0.887815
1.01851
0.903385
0.849088
0.883549
0.909104
0.880496
0.880921
1.09098
0.909574
0.910306
1.14047
1.08535
0.883748
0.954772
1.12531
0.880798
0.778635
0.928521
0.875723
0.856456
1.10899
0.892055
0.939882
1.12039
0.831463
0.980373
0.895022
0.977763
0.929527
0.906188
0.661443
0.922098
0.849817
0.897417
0.929345
0.927623
1.03751
1.15731
0.877977
0.964216
0.90502
0.839025
0.811906
1.08031
1.00223
0.90172
0.852089
0.993825
0.844269
0.870278
0.879395
0.883785
1.03488
1.13663
0.921875
1.03308
1.20491
1.09017
1.07938
1.13322
0.889552
0.91473
0.857871
1.23156
1.07041
1.10139
0.904681
0.920402
0.824423
1.04354
0.916336
0.854131
1.10295
1.01334
0.828576
0.917363
0.891932
0.884126
0.896595
0.927083
0.930044
0.863945
0.919231
0.838613
0.93052
0.871154
1.00874
0.92113
0.829368
1.13094
1.15149
1.05223
0.920223
0.984331
0.77692
1.06568
0.972319
0.844259
1.12395
0.740487
1.16735
0.846667
0.940602
0.953877
1.0527
1.05829
0.878087
1.19261
0.883476
1.08858
0.939983
1.00274
0.915564
0.863763
0.90779
1.09058
0.946404
1.22589
1.03774
0.83535
0.862415
1.01856
0.754301
0.921529
0.941824
0.867641
1.1637
0.828983
0.818236
1.06541
0.90989
1.16417
1.21114
0.923206
1.22612
1.16507
1.10368
1.10672
0.990971
0.852022
0.89328
0.932535
1.08538
0.932455
0.736955
1.19077
0.875403
0.935398
0.888805
1.13654
1.23254
0.88406
1.08976
0.997258
1.15506
0.917617
1.05817
0.925662
1.19069
1.22136
1.02499
0.892716
1.06157
0.902459
0.942154
0.970514
0.943128
1.00034
0.875637
0.74655
0.858907
0.9518
1.0083
0.97703
1.10574
0.885387
0.912471
1.00971
0.859229
1.14739
0.866262
0.925434
1.11834
1.101
0.986891
1.20107
0.875274
0.919059
1.05502
0.952519
0.924034
0.939396
0.909643
1.01774
1.0351
0.908921
0.889734
0.986435
0.836587
0.864834
1.15464
1.19218
1.22188
0.911372
1.21655
1.2294
1.17191
0.811339
0.997537
0.99765
1.19993
0.92376
0.872627
0.850269
0.891598
0.722966
1.18676
0.946168
0.952785
1.06202
1.02696
0.91875
0.925172
1.22891
1.17078
1.13531
1.02489
0.903298
1.03501
1.01322
0.923155
0.948071
0.865016
0.890272
0.96968
0.953107
0.913181
1.14674
1.16047
0.813125
1.10554
0.896668
0.887197
0.925648
1.13987
0.936869
1.02935
0.942096
1.13791
0.926872
0.942865
1.21372
0.82214
0.833816
0.877727
0.869898
0.79595
0.613419
0.876756
0.800829
0.958631
0.810057
0.870506
0.955385
0.891823
0.877845
0.91684
0.860688
0.643792
1.16348
1.07372
0.924902
0.849265
1.07513
0.907855
0.871182
1.21504
0.881319
1.21023
0.93899
1.11637
0.90694
0.799042
0.866484
0.974485
0.977918
0.959468
0.803698
0.929181
0.87598
0.868321
0.882471
0.833387
0.861988
1.18164
0.864087
1.0432
1.06436
0.926705
1.04152
1.06777
0.848879
0.618054
0.941493
0.83763
0.800746
1.03894
1.05332
0.927288
1.01166
0.920308
1.21182
1.16002
0.939166
0.913889
1.19579
1.118
1.00271
1.00392
0.92433
1.22046
0.960008
0.812531
1.14132
1.07641
1.15906
0.978961
0.895429
0.923324
1.05603
1.0155
0.564634
1.24281
0.940886
0.881378
0.970078
1.08945
1.20091
1.21802
1.01287
0.950067
1.07202
1.11515
1.11391
1.04021
1.08512
0.804797
0.890112
0.98867
0.857068
0.798624
0.829597
0.938594
1.07134
0.840518
0.973397
0.877337
1.06412
1.21851
0.94602
0.853317
0.822434
1.02378
0.912492
0.888048
0.825199
1.12905
0.989557
0.998416
0.84049
0.996091
0.888759
0.89324
1.04469
1.07108
1.12685
1.22985
0.875072
1.11379
0.81489
1.13573
1.15835
1.16081
1.06587
0.867377
0.866236
0.928995
0.809467
0.953355
0.831351
0.985359
0.844063
1.10367
0.926098
0.818075
1.10068
1.04035
0.948901
0.949607
1.0345
1.13113
0.985483
0.963103
0.816976
1.08227
0.9365
1.16072
0.799106
0.954436
1.14355
1.04769
1.20287
1.04551
0.92921
0.787252
0.819653
0.950952
0.838323
1.17693
0.812556
0.877423
0.946736
0.89306
1.05646
0.803631
1.1181
1.05696
1
0.747127
1.008
0.846348
0.897872
0.951156
0.947231
0.916521
0.908195
1.07413
0.871767
1.20449
0.91573
0.914604
1.02662
1.03926
1.17723
0.916723
0.932936
0.876074
0.949792
0.905025
1.17449
0.888994
0.966719
0.924273
1.08125
0.888221
0.979918
0.85847
1.22037
0.808388
0.864796
0.86527
1.08907
0.820834
0.828172
0.861043
0.850137
1.149
0.962161
1.03037
1.11773
1.01577
0.917599
1.22043
0.936952
1.04369
1.01647
0.968736
0.828615
0.982644
0.947587
0.89003
0.979814
0.834297
0.835747
0.976328
0.879334
0.874817
1.07114
0.942
1.00475
0.94648
1.14958
0.946163
0.920388
1.01824
0.847992
0.885481
0.924432
0.976553
0.988854
1.01353
1.13759
1.03361
1.08643
0.975417
1.11665
1.18594
1.18369
0.932283
0.960932
0.996328
0.850832
1.19961
1.11137
1.08709
0.960368
0.868823
0.830524
0.99751
1.04591
0.87404
1.08336
1.10915
1.00952
0.888542
0.951291
0.901243
0.861814
0.961942
0.885535
0.997289
0.827818
0.998837
0.935914
0.939461
0.8035
0.9879
0.967685
1.0326
0.923422
0.990127
1.1505
1.15725
1.00169
0.941443
1.08655
0.975063
0.886858
0.887475
0.936931
0.845096
1.1312
0.955773
0.982069
1.05885
1.04288
1.00421
0.82978
1.2109
1.0113
0.895872
0.960559
0.966859
1.08774
1.14957
1.01549
1.00291
0.820374
0.877001
0.940998
1.00479
0.965822
1.00349
0.9069
1.1538
1.00282
1.04149
1.12072
0.986377
0.878928
0.971761
1.19564
0.897312
0.818404
0.970256
1.20023
0.914351
0.938064
1.07974
1.04234
1.09246
0.956282
0.825395
1.00634
0.857057
0.918361
1.10178
0.951271
0.85497
0.876804
0.913629
1.01586
0.917692
0.893202
1.11823
0.900028
1.22126
1.09223
0.846323
0.792838
0.959823
1.0463
1.11864
0.95657
0.940414
0.853056
0.927168
0.946855
1.22863
1.13407
1.04871
0.907042
0.829228
1.12358
1.22526
1.15055
1.08336
1.12833
0.969361
0.862106
0.806521
0.819521
1.17342
0.966773
0.821816
0.921679
1.22219
0.924798
0.8897
0.839138
0.956715
0.884579
1.1779
1.00901
1.05225
1.14127
1.09566
0.93047
1.02797
0.971115
1.0303
0.892138
1.00859
0.904586
1.17523
0.806321
0.920113
0.813578
0.932413
1.14878
0.928974
1.10252
1.10373
1.13611
0.867276
0.96749
0.939617
0.860524
1.16322
0.978334
0.970397
1.00557
0.705444
0.924999
1.13568
1.02776
1.16059
0.812966
0.865313
0.924536
1.18262
0.843916
0.946753
0.880923
0.821206
0.905027
1.13969
0.918364
0.943884
0.841875
1.16784
1.20757
0.712279
1.1263
0.922147
0.868488
0.867233
0.970118
0.84334
1.01049
0.916443
0.918364
0.937337
1.09044
0.960019
1.09477
0.936592
0.859315
0.934415
0.812835
0.831985
0.952427
0.88254
0.984228
0.875646
0.946998
1.10679
1.00496
0.918889
0.795954
1.12227
0.959182
0.949801
1.23527
0.987465
0.916265
0.860192
0.818124
1.19229
0.903482
0.952209
1.01348
0.849804
1.12715
0.8053
1.11471
0.96354
1.06392
0.88321
1.06605
0.94612
0.850489
0.886463
0.964727
1.13234
0.791908
0.881595
0.911265
1.16957
1.20714
0.847545
0.909196
1.00591
1.14689
0.944442
1.14774
1.12236
1.08873
1.05945
0.992252
1.01186
0.995457
1.166
0.946465
0.976599
0.848254
0.885465
0.941993
0.86793
1.19532
0.807446
1.13786
0.944164
1.18389
0.911178
1.20293
1.06437
1.0834
1.18497
1.15306
1.2317
0.932968
1.13335
0.958288
0.92336
0.882362
0.875854
1.15942
0.809639
1.00991
1.01636
0.943658
1.01091
0.903793
1.13272
0.975728
1.06832
0.806296
0.885728
0.927888
1.16169
0.852712
1.03241
0.891607
0.929515
0.853064
0.940755
0.92683
1.09325
1.1726
0.837895
1.005
0.926985
0.914019
1.105
0.859472
0.881167
1.17901
0.819148
0.97569
1.04816
1.15353
1.21665
0.892017
0.895923
0.847599
0.918818
0.863326
0.925823
1.05548
0.920589
0.856439
0.942445
0.967415
0.916097
0.863167
0.91022
0.971416
0.851474
1.08195
1.06635
0.890947
1.07103
0.793578
0.843926
0.848885
0.822123
1.19981
0.924665
0.923566
0.904802
1.101
1.16633
0.985099
1.05718
0.873475
0.897103
0.967764
0.924709
0.881699
1.16295
0.993198
1.0095
1.20066
1.08097
0.940919
1.18694
0.832837
0.989583
0.985503
1.01968
0.890563
1.14736
0.920181
1.01045
0.957898
0.913207
0.869234
0.900275
1.06641
1.10733
1.13783
0.971324
0.983244
1.15568
1.07172
0.947724
0.97754
0.864828
0.928295
1.10053
0.835969
1.11497
0.917337
1.12544
1.20721
1.17026
0.91197
1.09248
1.11874
0.762433
1.14975
0.857756
1.17778
1.08991
0.922655
0.879013
0.989236
0.931948
0.875969
0.872872
1.05972
0.892776
1.1871
0.86666
0.901818
0.859582
0.862691
0.924244
1.1012
1.208
0.863828
1.05772
0.970834
1.01387
0.945237
0.998905
1.15749
1.09598
0.919718
1.14765
1.10942
1.20929
0.862659
0.898414
0.874037
1.06118
1.19265
1.11276
0.952987
1.20509
0.960422
0.837216
0.877495
0.790166
0.946825
0.854816
1.20159
1.22386
0.986003
1.21471
1.10208
0.984748
1.19811
0.862437
1.14233
0.927375
1.16375
0.929411
0.867061
1.06126
0.987444
1.17962
1.14906
1.15888
0.872819
0.872754
0.825199
1.10927
1.09477
0.842679
0.962865
1.095
0.814275
0.909504
0.876759
0.920417
1.00612
0.917029
0.985604
1.0272
0.976131
0.983121
1.07386
0.925334
0.930084
1.01129
0.976592
0.926688
1.13396
1.16115
0.844144
1.08998
0.807942
0.903851
1.13092
1.0759
0.912217
1.1707
0.860387
1.06594
0.938308
0.927872
1.14408
0.93123
1.07099
1.06239
1.03438
1.23558
1.0416
0.848791
1.02732
0.931585
1.07764
1.22559
1.03476
0.961352
0.880189
0.927649
1.14664
0.865894
1.08841
0.875193
0.993447
1.07695
1.06574
0.967524
1.12918
1.20537
0.926056
0.924933
0.982155
0.87097
0.857282
0.98803
1.06498
0.891761
0.848166
0.853439
0.842503
1.06536
0.957906
1.08105
0.89659
1.15742
0.972243
1.102
1.18534
0.897352
1.15471
0.918343
0.985112
0.96261
1.11487
0.8817
0.941495
0.968385
0.869864
0.927609
0.86597
0.852715
0.80823
1.19687
1.20654
0.892983
0.891306
1.07801
0.833994
0.857294
0.926457
1.05135
1.06362
0.825017
0.807639
1.1475
0.885826
1.00845
0.882008
0.842718
0.877186
0.956118
1.11184
1.01231
0.841016
1.1625
1.11274
0.886377
1.00523
0.922146
1.18352
0.929989
0.944736
0.850009
1.0374
1.15017
1.01563
0.952291
0.892268
0.95334
1.00798
1.20071
1.221
0.879265
1.209
0.897884
0.993382
0.992861
0.94745
0.916992
1.1194
0.886072
0.98897
0.876016
0.883677
0.906606
0.867057
1.03623
1.16261
0.885729
0.906056
0.98813
0.919862
0.849326
0.808905
0.916417
1.10251
0.752585
0.902903
1.05041
0.988933
0.953565
1.03495
1.09483
0.832412
0.830132
1.11008
0.947714
0.838236
0.961459
1.11248
1.03033
0.998742
0.878711
0.90504
0.87748
1.20159
1.11459
1.21653
0.950432
1.04766
0.861037
0.967826
1.11747
0.838173
0.846976
1.06941
1.11971
0.833916
0.904498
0.868116
0.824672
0.867541
1.21745
0.943847
0.901804
0.947643
0.879322
1.05606
0.966041
0.85764
0.900028
1.0701
0.954398
1.20594
0.854594
0.909315
1.02301
1.01638
0.950615
1.00675
0.867735
1.21409
1.11214
1.02551
1.11929
0.891757
1.11153
1.03353
1.01056
1.18648
0.833456
0.916781
1.21994
1.0359
0.830326
0.903974
1.0871
1.21568
0.96735
1.07583
0.875815
0.849731
0.874969
0.823304
1.11439
0.900773
0.975623
1.17431
0.896775
0.834037
0.890801
0.980979
0.891598
0.910109
0.886282
0.86732
0.951101
1.09606
1.18253
1.04612
0.90389
0.917272
0.820539
0.912746
1.02638
1.00885
1.02584
1.05621
0.917834
0.960445
1.08754
1.12434
1.22044
1.13655
1.19186
0.960011
0.859393
0.880935
0.85983
1.20177
0.983864
0.901359
1.18391
0.86392
1.09066
1.05251
0.906253
0.877502
0.916818
0.90642
1.12186
0.934608
1.05228
0.962997
1.17617
0.9997
1.2356
0.883451
0.965548
0.899941
0.802489
0.923411
1.06308
0.831369
0.698186
0.998133
1.14575
1.08137
0.903331
0.853789
0.876802
0.866985
0.879515
0.871139
0.945767
0.869856
1.06921
0.891149
0.893532
1.10795
0.955468
0.991356
1.11163
0.941195
0.974857
0.872559
1.07002
0.929067
0.90014
0.948611
0.877435
0.85252
0.89312
0.848291
1.07242
1.21928
1.1305
0.996577
1.05193
0.839037
1.20791
0.996901
1.05516
0.875864
1.0586
0.906448
0.927349
1.10199
1.15606
1.06708
1.00281
0.929619
1.22978
0.920586
1.08758
1.19657
1.04276
0.941606
0.834443
1.08657
0.98408
0.871923
1.03627
0.985082
1.16631
0.894959
1.17408
1.22192
0.943211
0.883535
1.19301
0.852964
0.874718
0.926772
0.8728
0.918556
0.877035
0.856547
0.96118
0.889312
0.873897
0.917706
1.00513
0.891625
0.894786
1.02912
0.974302
0.847279
1.16891
1.19139
1.19072
0.886031
0.843727
1.2387
0.846999
0.953675
0.859294
0.922341
0.870876
1.06633
0.919784
0.921073
0.846317
0.834343
0.872404
0.92352
0.835138
0.965253
0.990495
0.957938
1.18075
0.981362
1.0319
0.933275
1.10531
0.915638
0.925964
1.21011
0.920983
0.971903
0.855679
1.04141
1.21353
0.931724
1.0139
0.984346
0.900375
0.878316
0.894932
0.863967
1.07166
0.877423
0.94578
0.919669
0.944846
0.878788
0.895402
0.956211
0.927461
0.916818
1.18123
0.957363
0.938497
0.999781
1.16015
0.926412
0.836103
1.07762
0.853368
0.93575
0.871874
0.946259
0.907368
0.885651
0.942986
1.21171
1.1292
0.840101
0.914071
0.836689
0.86169
0.828407
0.866886
0.917474
0.879147
0.92071
1.02081
1.22303
0.923178
1.05591
0.973249
1.20131
0.922397
1.21325
1.02
0.862955
1.01659
1.05907
0.917039
1.10596
0.870836
1.13736
0.905479
0.720532
0.955493
1.22667
1.18035
1.07576
1.0221
1.04535
0.848156
0.900649
1.04236
1.23399
0.732608
0.960384
0.870775
0.914501
0.946064
0.876048
0.858502
0.902277
0.87139
0.89863
0.924012
0.949005
1.23253
1.10353
0.828281
1.0842
0.873942
0.893126
1.09013
0.908299
0.934999
1.03804
0.75433
0.889334
0.964639
1.12163
0.867161
0.897354
0.931538
1.02047
0.859569
1.16845
0.838681
0.92489
0.933007
0.9015
1.02375
1.02201
1.16644
0.874544
1.0638
0.995205
1.01386
0.880068
1.02204
0.882402
0.854142
0.818902
0.988254
0.9538
0.932119
1.1288
0.964569
0.955905
1.02073
0.887063
0.876744
0.922211
1.0059
0.88383
1.21745
0.856078
0.839398
0.919577
0.920354
0.889247
0.859637
1.05372
0.926495
0.961081
0.86587
0.87046
0.960286
0.821065
1.22305
1.16781
0.866896
0.879637
1.10332
0.962557
0.881789
0.850551
0.869561
0.870868
0.992178
1.16168
0.879841
0.845009
1.02038
0.957552
0.839015
0.866722
0.958294
1.05139
1.20716
0.859277
0.835392
1.00604
1.11193
0.9328
0.994155
0.929914
0.874026
0.926495
1.02054
0.952259
0.878852
1.09554
0.931631
0.815759
0.985306
0.896476
1.09964
1.23454
0.886603
0.922804
0.924021
0.921324
0.856641
0.925835
0.871466
1.18683
1.09673
1.05128
0.916874
0.849226
1.08249
1.20907
0.895231
0.981554
0.91129
0.807819
0.971263
0.91909
0.809933
0.837505
0.994798
0.86703
0.840797
0.868268
1.06043
0.8591
1.08933
0.932689
0.892829
0.924066
0.875474
1.1003
0.822279
0.927345
0.941179
0.853426
0.991176
1.04197
1.001
0.957696
1.08105
0.867762
0.867068
1.14195
0.875815
1.13668
1.0087
0.9328
0.986292
1.13236
0.957072
0.833751
1.16632
0.873104
0.938492
1.11555
0.874515
1.17458
0.889444
0.933052
0.765936
0.932175
0.864958
0.962164
0.876323
0.816782
0.871758
0.859844
0.811358
1.15893
0.860174
0.931265
0.996377
0.963221
1.21246
1.21656
0.904928
0.930269
1.10123
0.896863
1.1627
0.818837
0.925436
0.980039
0.897392
1.11176
0.915081
0.91834
0.909215
0.901512
0.858976
0.817906
1.13486
0.654526
1.15729
1.05457
0.876059
0.840776
0.877243
1.21812
1.04862
1.0275
0.951637
0.991871
0.938499
1.1268
1.07585
0.876174
1.01348
1.17485
0.945126
0.978718
1.01476
0.83077
0.862719
1.07458
0.927784
0.949908
1.17777
0.860566
0.822288
0.906839
0.946385
0.946344
1.18314
0.891635
0.852881
0.893043
0.947716
0.892822
1.14991
0.931373
0.880658
0.909206
0.895316
0.876162
0.900667
1.01547
0.943867
0.872283
1.12716
0.922289
1.07294
0.873332
0.857229
0.929476
1.12035
1.20074
1.07676
0.965654
0.952833
1.08926
1.17589
0.85824
1.16484
0.87292
1.03514
1.02369
1.14519
0.965112
1.13203
1.15798
0.880894
0.863887
0.932382
0.960835
0.875641
0.821111
0.802698
1.06986
1.11025
0.853627
1.17213
0.965828
1.08367
0.952506
0.87415
1.09886
1.08129
0.91311
0.894293
0.867473
1.22097
1.04944
1.23784
0.850367
0.874929
0.937918
1.11609
1.02199
1.10016
0.978427
1.1773
0.903423
0.939733
0.978568
0.910854
1.01032
0.785005
1.09802
0.959458
0.983493
1.16486
0.845381
0.855076
0.826444
0.982529
1.13523
0.90773
1.03051
0.79171
0.849671
0.951527
0.901905
0.884666
1.10878
0.946557
0.885192
0.938932
1.00168
1.15791
0.989463
0.928763
1.13635
0.966109
1.19441
0.972918
1.0559
0.92975
0.855835
1.22252
0.872609
0.973336
1.00125
1.1606
1.04642
0.95536
0.873304
1.23076
0.939209
0.883873
1.07591
1.21043
1.05915
1.03033
0.844245
0.81419
0.984278
0.873233
0.926776
0.974893
0.870796
1.15654
1.21621
1.17204
0.915409
0.925315
0.879742
0.923284
1.03249
0.862712
1.04378
1.18383
0.861708
0.919499
0.903357
1.09412
1.03183
0.925045
0.87497
1.06152
0.869743
0.775501
0.870785
1.2375
0.817889
1.09469
1.00307
0.869607
1.15854
0.991071
1.1967
0.745063
0.918009
0.980194
1.17044
0.923957
1.15614
0.992761
0.817616
0.954771
0.906952
0.92867
0.812648
1.0796
0.919428
0.879514
0.834771
0.957044
1.113
0.7834
0.91667
1.13831
0.92348
1.11552
0.815222
0.866567
0.876555
0.937103
0.895015
0.844896
0.869914
0.789855
0.925966
0.928468
1.08435
0.982619
1.14216
0.874751
0.927314
0.846659
0.959584
0.790035
0.928913
1.23687
0.939786
0.912304
1.22816
0.886481
0.989059
1.01654
0.848252
0.915517
0.954664
0.991086
1.18282
1.20774
1.21222
0.996105
0.931635
0.934004
0.876232
1.10075
1.0278
0.89679
0.883674
0.911871
0.951111
1.20261
0.939615
1.18963
0.907026
1.00454
0.878207
0.875887
0.851215
0.904313
1.15378
0.90326
0.855715
0.867107
1.23116
0.916086
0.877781
0.87057
0.874278
1.04982
0.979544
0.978204
0.926061
1.04169
0.842187
0.956556
0.957791
0.909153
1.12632
1.13623
0.881552
1.14626
1.1638
1.12779
0.968752
0.920982
0.907145
0.938418
1.18421
0.952274
1
1.14258
1.21485
1.17668
1.13005
0.870856
1.02295
0.962989
0.88674
0.829566
0.941287
1.12702
1.22894
1.18975
0.8961
0.872858
0.860317
0.806214
1.02226
1.21831
1.01206
1.06831
1.08239
1.07816
1.0629
0.864225
0.91967
0.90109
0.864553
0.891844
0.931615
0.852597
0.896181
0.879514
1.14884
1.00412
0.833542
1.18366
0.886193
0.894579
0.946456
0.866476
1.05496
1.05911
0.890078
0.999166
1.20948
1.21598
1.03245
1.04801
0.947537
0.966175
0.937996
0.842969
0.99154
0.986655
0.891743
1.03007
1.0097
0.855475
0.694024
0.882143
1.18286
0.906171
1.04794
0.926701
1.14952
0.94247
0.869882
1.09152
1.03349
1.0327
0.996389
0.867177
0.912946
0.845472
1.03283
0.872077
1.10376
0.929434
0.893395
1.00178
0.848172
0.923608
1.22286
0.860154
1.04981
0.894637
0.874836
0.913867
0.925662
1.12663
1.14215
0.927302
1.18885
0.832784
1.14518
1.0967
1.06837
0.887882
1.11251
0.861293
1.05953
1.02169
0.776305
0.930624
0.857115
1.19229
1.04665
0.837548
0.869256
0.95319
0.889798
1.04355
0.88573
0.99053
1.22999
0.875714
1.20068
0.993587
1.01557
0.840217
1.11727
0.889184
1.13176
0.679736
0.872415
1.0268
1.08123
0.970866
1.0433
0.87596
0.929729
1.06179
1.0303
0.883406
1.06644
1.03447
1.12777
0.789855
0.929689
0.80079
0.976284
1.05387
0.976239
0.728047
0.895417
1.16085
1.00261
0.912495
1.14782
0.941632
1.05557
0.82225
0.935758
0.878441
1.13847
1.19256
1.04283
0.949888
0.928608
0.849242
1.03272
0.87793
1.10757
0.818152
0.946279