/*--------------------------------*- C++ -*----------------------------------*\
  =========                 |
  \\      /  F ield         | OpenFOAM: The Open Source CFD Toolbox
   \\    /   O peration     | Website:  https://openfoam.org
    \\  /    A nd           | Version:  6
     \\/     M anipulation  |
\*---------------------------------------------------------------------------*/
FoamFile
{
    version     2.0;
    format      ascii;
    class       volVectorField;
    location    "23363";
    object      U;
}
// * * * * * * * * * * * * * * * * * * * * * * * * * * * * * * * * * * * * * //

dimensions      [0 1 -1 0 0 0 0];

internalField   nonuniform List<vector> 
115600
(
(0.00653181 -0.00184551 0)
(0.00745841 -3.61211e-05 0)
(0.0079652 1.46145e-06 0)
(0.00828593 1.33425e-06 0)
(0.00852957 6.48285e-07 0)
(0.0086871 1.00258e-06 0)
(0.00875872 1.18665e-06 0)
(0.00877066 1.12436e-06 0)
(0.00874995 1.0168e-06 0)
(0.00870531 9.72882e-07 0)
(0.00864574 9.16727e-07 0)
(0.00857766 8.51645e-07 0)
(0.00850564 7.82955e-07 0)
(0.00843285 7.14988e-07 0)
(0.00836133 6.51663e-07 0)
(0.00829235 5.93005e-07 0)
(0.0082267 5.38671e-07 0)
(0.00816488 4.8822e-07 0)
(0.00810721 4.4117e-07 0)
(0.00805386 3.97066e-07 0)
(0.00800493 3.55513e-07 0)
(0.00796043 3.16219e-07 0)
(0.00792036 2.78875e-07 0)
(0.00788466 2.43193e-07 0)
(0.00785328 2.08981e-07 0)
(0.00782613 1.76046e-07 0)
(0.00780314 1.44177e-07 0)
(0.00778422 1.13194e-07 0)
(0.00776929 8.2905e-08 0)
(0.00775828 5.30098e-08 0)
(0.00775114 2.35124e-08 0)
(0.00774776 -1.31978e-08 0)
(0.00774932 -5.57108e-08 0)
(0.00775548 -9.30031e-08 0)
(0.00776591 -1.25831e-07 0)
(0.00778041 -1.57952e-07 0)
(0.0077989 -1.91046e-07 0)
(0.00782146 -2.25956e-07 0)
(0.00784822 -2.63636e-07 0)
(0.00787945 -3.05067e-07 0)
(0.00791551 -3.51611e-07 0)
(0.00795693 -4.05162e-07 0)
(0.0080044 -4.67718e-07 0)
(0.00805886 -5.41966e-07 0)
(0.00812151 -6.31505e-07 0)
(0.00819398 -7.41944e-07 0)
(0.00827836 -8.79349e-07 0)
(0.00837775 -1.05907e-06 0)
(0.00849577 -1.28566e-06 0)
(0.00863981 -1.62995e-06 0)
(0.00881448 -2.0207e-06 0)
(0.00904877 -2.97382e-06 0)
(0.00932688 -3.57077e-06 0)
(0.00984768 -9.03702e-06 0)
(0.0103407 -1.60483e-05 0)
(0.0135332 -0.00028275 0)
(0.0197127 -0.000382163 0)
(0.0218172 -7.11502e-05 0)
(0.0235909 -4.5784e-05 0)
(0.0246874 -3.0696e-05 0)
(0.0254284 -2.04573e-05 0)
(0.0258896 -9.60094e-06 0)
(0.0261139 -1.24793e-06 0)
(0.0261679 3.82948e-06 0)
(0.0261197 6.70733e-06 0)
(0.0260022 8.55819e-06 0)
(0.0258406 9.57601e-06 0)
(0.025653 9.98597e-06 0)
(0.0254524 9.97797e-06 0)
(0.025248 9.70205e-06 0)
(0.0250459 9.27003e-06 0)
(0.02485 8.7482e-06 0)
(0.0246629 8.17686e-06 0)
(0.0244862 7.5811e-06 0)
(0.0243211 6.9766e-06 0)
(0.0241682 6.37332e-06 0)
(0.0240278 5.77757e-06 0)
(0.0239001 5.1934e-06 0)
(0.0237851 4.62317e-06 0)
(0.0236828 4.06811e-06 0)
(0.0235928 3.52882e-06 0)
(0.0235151 3.0053e-06 0)
(0.0234493 2.49709e-06 0)
(0.0233952 2.00337e-06 0)
(0.0233525 1.52285e-06 0)
(0.023321 1.05331e-06 0)
(0.0233005 5.92523e-07 0)
(0.0232908 7.11441e-08 0)
(0.0232945 -5.00258e-07 0)
(0.0233109 -1.02779e-06 0)
(0.0233389 -1.51145e-06 0)
(0.023378 -1.97578e-06 0)
(0.0234277 -2.43678e-06 0)
(0.0234883 -2.90605e-06 0)
(0.0235598 -3.39468e-06 0)
(0.0236427 -3.91438e-06 0)
(0.023738 -4.48e-06 0)
(0.0238465 -5.1106e-06 0)
(0.02397 -5.82833e-06 0)
(0.0241104 -6.66148e-06 0)
(0.0242707 -7.64796e-06 0)
(0.0244543 -8.84028e-06 0)
(0.0246663 -1.0311e-05 0)
(0.0249137 -1.21729e-05 0)
(0.0252051 -1.45834e-05 0)
(0.0255565 -1.78657e-05 0)
(0.0259819 -2.24191e-05 0)
(0.0265378 -2.97237e-05 0)
(0.0272213 -4.13932e-05 0)
(0.028387 -7.02931e-05 0)
(0.0297439 -0.000155813 0)
(0.035025 -0.000544504 0)
(0.0310013 -0.00046372 0)
(0.0342343 -0.000240015 0)
(0.0369922 -0.000164154 0)
(0.038747 -0.000110887 0)
(0.039941 -7.44062e-05 0)
(0.0407425 -4.31451e-05 0)
(0.0412314 -1.91324e-05 0)
(0.0414855 -2.75332e-06 0)
(0.0415677 7.74864e-06 0)
(0.04154 1.46364e-05 0)
(0.0414346 1.90393e-05 0)
(0.0412764 2.16047e-05 0)
(0.041084 2.2827e-05 0)
(0.0408717 2.31153e-05 0)
(0.0406494 2.27834e-05 0)
(0.0404244 2.20372e-05 0)
(0.0402023 2.10135e-05 0)
(0.0399868 1.9805e-05 0)
(0.0397808 1.84758e-05 0)
(0.0395866 1.70712e-05 0)
(0.0394056 1.56236e-05 0)
(0.039239 1.41568e-05 0)
(0.0390873 1.26876e-05 0)
(0.0389512 1.12284e-05 0)
(0.0388308 9.78794e-06 0)
(0.0387262 8.37204e-06 0)
(0.0386375 6.98438e-06 0)
(0.0385643 5.62678e-06 0)
(0.0385067 4.29898e-06 0)
(0.0384643 2.99786e-06 0)
(0.038437 1.71342e-06 0)
(0.0384248 3.0286e-07 0)
(0.03843 -1.21192e-06 0)
(0.0384518 -2.63622e-06 0)
(0.0384894 -3.96034e-06 0)
(0.038542 -5.23284e-06 0)
(0.0386094 -6.48971e-06 0)
(0.0386916 -7.75981e-06 0)
(0.0387889 -9.0714e-06 0)
(0.0389018 -1.04548e-05 0)
(0.0390312 -1.19476e-05 0)
(0.0391787 -1.35976e-05 0)
(0.0393462 -1.54609e-05 0)
(0.0395363 -1.76086e-05 0)
(0.0397525 -2.01349e-05 0)
(0.0399996 -2.31681e-05 0)
(0.0402839 -2.68867e-05 0)
(0.040614 -3.15578e-05 0)
(0.041001 -3.75736e-05 0)
(0.041464 -4.56501e-05 0)
(0.042022 -5.68745e-05 0)
(0.0427365 -7.42179e-05 0)
(0.0436215 -0.00010264 0)
(0.0450261 -0.000165136 0)
(0.0467146 -0.000329342 0)
(0.0516585 -0.000789753 0)
(0.0409267 -0.0009251 0)
(0.0441067 -0.000460152 0)
(0.0470783 -0.000312455 0)
(0.0490546 -0.00021381 0)
(0.0504512 -0.000146194 0)
(0.0514575 -9.19352e-05 0)
(0.0521592 -5.04255e-05 0)
(0.052627 -2.07088e-05 0)
(0.0529111 -4.19619e-07 0)
(0.0530608 1.32264e-05 0)
(0.0531173 2.23893e-05 0)
(0.0531045 2.83381e-05 0)
(0.053041 3.18789e-05 0)
(0.0529416 3.36715e-05 0)
(0.0528172 3.42344e-05 0)
(0.0526766 3.3923e-05 0)
(0.0525265 3.29838e-05 0)
(0.0523722 3.15917e-05 0)
(0.052218 2.98734e-05 0)
(0.052067 2.79227e-05 0)
(0.0519221 2.58098e-05 0)
(0.0517852 2.35884e-05 0)
(0.0516579 2.12993e-05 0)
(0.0515415 1.89734e-05 0)
(0.051437 1.66344e-05 0)
(0.0513449 1.43e-05 0)
(0.0512658 1.19828e-05 0)
(0.0512001 9.69128e-06 0)
(0.0511479 7.4296e-06 0)
(0.0511095 5.19586e-06 0)
(0.051085 2.97077e-06 0)
(0.0510748 5.67265e-07 0)
(0.0510799 -1.97931e-06 0)
(0.0511001 -4.41216e-06 0)
(0.0511353 -6.71475e-06 0)
(0.0511855 -8.9501e-06 0)
(0.0512507 -1.11701e-05 0)
(0.0513312 -1.34205e-05 0)
(0.0514276 -1.57481e-05 0)
(0.0515408 -1.82047e-05 0)
(0.0516721 -2.08546e-05 0)
(0.0518231 -2.37788e-05 0)
(0.0519962 -2.70738e-05 0)
(0.0521943 -3.08614e-05 0)
(0.0524215 -3.53014e-05 0)
(0.0526829 -4.06101e-05 0)
(0.0529852 -4.70873e-05 0)
(0.0533376 -5.51733e-05 0)
(0.0537518 -6.55239e-05 0)
(0.0542468 -7.92727e-05 0)
(0.0548427 -9.82672e-05 0)
(0.0555958 -0.000126914 0)
(0.0565249 -0.000173651 0)
(0.0579233 -0.000269004 0)
(0.059558 -0.000498573 0)
(0.0636139 -0.000990941 0)
(0.0502168 -0.00129848 0)
(0.0525605 -0.000652445 0)
(0.055158 -0.000455754 0)
(0.0569749 -0.000318291 0)
(0.0583122 -0.000222681 0)
(0.059324 -0.000147923 0)
(0.0600792 -9.06795e-05 0)
(0.0606331 -4.86412e-05 0)
(0.0610266 -1.86567e-05 0)
(0.0612907 2.27077e-06 0)
(0.0614601 1.6716e-05 0)
(0.0615597 2.66177e-05 0)
(0.0616052 3.31486e-05 0)
(0.0616092 3.71639e-05 0)
(0.0615815 3.93434e-05 0)
(0.0615304 4.01644e-05 0)
(0.0614622 3.99676e-05 0)
(0.0613822 3.90022e-05 0)
(0.061295 3.74544e-05 0)
(0.061204 3.54665e-05 0)
(0.0611121 3.31483e-05 0)
(0.0610219 3.05859e-05 0)
(0.0609352 2.78469e-05 0)
(0.0608538 2.49846e-05 0)
(0.0607789 2.20406e-05 0)
(0.0607116 1.90476e-05 0)
(0.0606528 1.60301e-05 0)
(0.0606032 1.30059e-05 0)
(0.0605635 9.98588e-06 0)
(0.0605341 6.97127e-06 0)
(0.0605156 3.93616e-06 0)
(0.0605086 6.87022e-07 0)
(0.0605136 -2.72719e-06 0)
(0.0605308 -6.03747e-06 0)
(0.0605608 -9.22953e-06 0)
(0.0606039 -1.23714e-05 0)
(0.0606607 -1.55244e-05 0)
(0.0607321 -1.87471e-05 0)
(0.0608187 -2.21031e-05 0)
(0.060922 -2.56644e-05 0)
(0.0610434 -2.95211e-05 0)
(0.061185 -3.37876e-05 0)
(0.0613493 -3.86008e-05 0)
(0.0615396 -4.41336e-05 0)
(0.06176 -5.06117e-05 0)
(0.062016 -5.8339e-05 0)
(0.0623144 -6.77348e-05 0)
(0.0626643 -7.94069e-05 0)
(0.0630775 -9.42643e-05 0)
(0.063572 -0.000113824 0)
(0.0641675 -0.000140637 0)
(0.0649147 -0.000180289 0)
(0.0658314 -0.000244136 0)
(0.0671621 -0.000366946 0)
(0.0686668 -0.000645243 0)
(0.072018 -0.00115531 0)
(0.0592111 -0.00154304 0)
(0.060458 -0.000799361 0)
(0.0623605 -0.000576454 0)
(0.0637677 -0.000411354 0)
(0.0648547 -0.00029388 0)
(0.0657175 -0.000202664 0)
(0.0663937 -0.000132444 0)
(0.066918 -8.00321e-05 0)
(0.0673181 -4.16196e-05 0)
(0.0676154 -1.39319e-05 0)
(0.0678279 5.65021e-06 0)
(0.0679787 1.94124e-05 0)
(0.0680809 2.8979e-05 0)
(0.068144 3.53876e-05 0)
(0.0681758 3.94355e-05 0)
(0.0681828 4.16918e-05 0)
(0.0681705 4.25714e-05 0)
(0.0681434 4.23837e-05 0)
(0.0681055 4.13645e-05 0)
(0.06806 3.9697e-05 0)
(0.0680097 3.75251e-05 0)
(0.0679569 3.49632e-05 0)
(0.0679036 3.21026e-05 0)
(0.0678515 2.90163e-05 0)
(0.0678021 2.57624e-05 0)
(0.0677565 2.23873e-05 0)
(0.0677158 1.89268e-05 0)
(0.067681 1.54073e-05 0)
(0.0676529 1.18461e-05 0)
(0.0676321 8.24764e-06 0)
(0.0676196 4.58251e-06 0)
(0.0676159 6.6676e-07 0)
(0.0676217 -3.43814e-06 0)
(0.0676372 -7.47318e-06 0)
(0.0676634 -1.14333e-05 0)
(0.0677009 -1.53895e-05 0)
(0.0677507 -1.94098e-05 0)
(0.0678137 -2.35638e-05 0)
(0.0678912 -2.79301e-05 0)
(0.0679845 -3.25997e-05 0)
(0.0680955 -3.76877e-05 0)
(0.0682263 -4.3341e-05 0)
(0.0683797 -4.97364e-05 0)
(0.068559 -5.70974e-05 0)
(0.0687686 -6.57153e-05 0)
(0.0690137 -7.598e-05 0)
(0.0693013 -8.84283e-05 0)
(0.0696403 -0.000103829 0)
(0.070042 -0.000123336 0)
(0.0705236 -0.000148817 0)
(0.0711038 -0.000183481 0)
(0.0718284 -0.000233856 0)
(0.0727127 -0.000313862 0)
(0.0739654 -0.000460063 0)
(0.0753405 -0.000777149 0)
(0.0781878 -0.00129737 0)
(0.0678917 -0.00168025 0)
(0.0681175 -0.000890698 0)
(0.0692125 -0.000659292 0)
(0.0700715 -0.000480684 0)
(0.0707823 -0.000350034 0)
(0.0713866 -0.000248066 0)
(0.0718867 -0.000168773 0)
(0.0722943 -0.000108755 0)
(0.0726215 -6.39595e-05 0)
(0.0728792 -3.0884e-05 0)
(0.073077 -6.91574e-06 0)
(0.0732244 1.02208e-05 0)
(0.0733352 2.24425e-05 0)
(0.0734149 3.1036e-05 0)
(0.0734686 3.68646e-05 0)
(0.0735009 4.05552e-05 0)
(0.0735158 4.25734e-05 0)
(0.0735169 4.3272e-05 0)
(0.073507 4.29236e-05 0)
(0.0734888 4.17422e-05 0)
(0.0734644 3.98979e-05 0)
(0.073436 3.7527e-05 0)
(0.0734051 3.47393e-05 0)
(0.0733733 3.16235e-05 0)
(0.0733419 2.82511e-05 0)
(0.073312 2.46793e-05 0)
(0.0732848 2.0953e-05 0)
(0.0732612 1.7106e-05 0)
(0.073242 1.31607e-05 0)
(0.073228 9.12403e-06 0)
(0.0732202 4.96506e-06 0)
(0.0732192 5.1283e-07 0)
(0.0732257 -4.16032e-06 0)
(0.0732402 -8.811e-06 0)
(0.0732635 -1.34465e-05 0)
(0.0732967 -1.8141e-05 0)
(0.0733407 -2.29695e-05 0)
(0.0733968 -2.80122e-05 0)
(0.0734662 -3.33618e-05 0)
(0.0735506 -3.91278e-05 0)
(0.0736518 -4.54498e-05 0)
(0.0737722 -5.25062e-05 0)
(0.0739145 -6.05135e-05 0)
(0.0740821 -6.97448e-05 0)
(0.0742794 -8.0556e-05 0)
(0.0745116 -9.34216e-05 0)
(0.0747854 -0.000108993 0)
(0.0751096 -0.000128195 0)
(0.075495 -0.000152414 0)
(0.0759579 -0.000183843 0)
(0.0765158 -0.000226311 0)
(0.0772106 -0.000287097 0)
(0.0780547 -0.000382417 0)
(0.0792303 -0.000548947 0)
(0.0804888 -0.000898007 0)
(0.0829695 -0.00142376 0)
(0.0760948 -0.00173448 0)
(0.0755555 -0.00092678 0)
(0.0758961 -0.000696407 0)
(0.0761702 -0.000517473 0)
(0.0764405 -0.000383228 0)
(0.0767175 -0.000277292 0)
(0.0769757 -0.000193759 0)
(0.0772047 -0.00012964 0)
(0.0774013 -8.10677e-05 0)
(0.0775653 -4.45905e-05 0)
(0.077698 -1.75883e-05 0)
(0.0778012 2.02564e-06 0)
(0.0778818 1.62011e-05 0)
(0.0779425 2.64675e-05 0)
(0.0779859 3.371e-05 0)
(0.0780146 3.85793e-05 0)
(0.0780309 4.15674e-05 0)
(0.078037 4.30524e-05 0)
(0.0780347 4.3329e-05 0)
(0.0780257 4.26309e-05 0)
(0.0780116 4.11446e-05 0)
(0.0779938 3.90206e-05 0)
(0.0779735 3.6381e-05 0)
(0.0779518 3.33246e-05 0)
(0.0779299 2.99319e-05 0)
(0.0779086 2.62675e-05 0)
(0.0778888 2.23824e-05 0)
(0.0778714 1.83151e-05 0)
(0.0778573 1.4091e-05 0)
(0.077847 9.71837e-06 0)
(0.0778415 5.16545e-06 0)
(0.0778416 2.73566e-07 0)
(0.0778477 -4.87767e-06 0)
(0.0778605 -1.00616e-05 0)
(0.077881 -1.5298e-05 0)
(0.0779101 -2.0665e-05 0)
(0.0779489 -2.62456e-05 0)
(0.0779987 -3.21307e-05 0)
(0.0780609 -3.84277e-05 0)
(0.0781371 -4.52643e-05 0)
(0.0782292 -5.2804e-05 0)
(0.0783396 -6.12566e-05 0)
(0.0784711 -7.08774e-05 0)
(0.0786272 -8.19886e-05 0)
(0.0788119 -9.50095e-05 0)
(0.0790305 -0.000110497 0)
(0.0792896 -0.000129214 0)
(0.0795975 -0.000152236 0)
(0.0799647 -0.000181175 0)
(0.0804067 -0.000218523 0)
(0.0809397 -0.000268694 0)
(0.0816025 -0.000339567 0)
(0.0824048 -0.000449432 0)
(0.0835088 -0.000633928 0)
(0.0846662 -0.00101013 0)
(0.0868697 -0.00153871 0)
(0.0836429 -0.00172885 0)
(0.0826445 -0.000918344 0)
(0.0824028 -0.000689208 0)
(0.0821495 -0.000518277 0)
(0.0819766 -0.000388562 0)
(0.0818983 -0.000285342 0)
(0.081877 -0.000202745 0)
(0.0818874 -0.000138452 0)
(0.0819136 -8.91093e-05 0)
(0.0819453 -5.15581e-05 0)
(0.0819761 -2.33335e-05 0)
(0.0820021 -2.55031e-06 0)
(0.0820219 1.26464e-05 0)
(0.0820353 2.38386e-05 0)
(0.0820423 3.19058e-05 0)
(0.0820434 3.74923e-05 0)
(0.0820392 4.10928e-05 0)
(0.0820304 4.30911e-05 0)
(0.0820176 4.37889e-05 0)
(0.0820017 4.34264e-05 0)
(0.0819833 4.21964e-05 0)
(0.0819632 4.02551e-05 0)
(0.081942 3.77297e-05 0)
(0.0819205 3.47234e-05 0)
(0.0818992 3.13204e-05 0)
(0.0818788 2.75886e-05 0)
(0.08186 2.35813e-05 0)
(0.0818433 1.93388e-05 0)
(0.0818294 1.48871e-05 0)
(0.081819 1.02337e-05 0)
(0.0818127 5.34579e-06 0)
(0.0818112 7.56454e-08 0)
(0.0818149 -5.49582e-06 0)
(0.0818246 -1.11599e-05 0)
(0.0818411 -1.69457e-05 0)
(0.0818655 -2.29371e-05 0)
(0.0818989 -2.92255e-05 0)
(0.0819423 -3.59139e-05 0)
(0.0819973 -4.31246e-05 0)
(0.0820655 -5.10041e-05 0)
(0.0821488 -5.97399e-05 0)
(0.0822495 -6.9573e-05 0)
(0.0823705 -8.07973e-05 0)
(0.0825151 -9.37834e-05 0)
(0.0826873 -0.000109013 0)
(0.0828924 -0.000127124 0)
(0.0831365 -0.00014899 0)
(0.0834279 -0.000175829 0)
(0.0837765 -0.000209471 0)
(0.0841971 -0.000252692 0)
(0.0847049 -0.000310457 0)
(0.0853361 -0.000391129 0)
(0.0860978 -0.00051488 0)
(0.0871368 -0.000715547 0)
(0.0882075 -0.0011153 0)
(0.0901925 -0.00164511 0)
(0.0904081 -0.00168237 0)
(0.0892097 -0.00088093 0)
(0.0886184 -0.000646829 0)
(0.0879763 -0.000485533 0)
(0.0874209 -0.000364868 0)
(0.0870026 -0.000269523 0)
(0.0866942 -0.000192575 0)
(0.0864675 -0.000132011 0)
(0.0862999 -8.50431e-05 0)
(0.0861741 -4.89397e-05 0)
(0.0860773 -2.1548e-05 0)
(0.0860008 -1.16213e-06 0)
(0.0859363 1.39113e-05 0)
(0.08588 2.50979e-05 0)
(0.0858297 3.32235e-05 0)
(0.0857836 3.89007e-05 0)
(0.0857408 4.2603e-05 0)
(0.0857003 4.47001e-05 0)
(0.0856618 4.54841e-05 0)
(0.0856248 4.51883e-05 0)
(0.0855893 4.4001e-05 0)
(0.0855552 4.20748e-05 0)
(0.0855226 3.95344e-05 0)
(0.0854916 3.64812e-05 0)
(0.0854625 3.29977e-05 0)
(0.0854355 2.91504e-05 0)
(0.0854109 2.49913e-05 0)
(0.0853891 2.05587e-05 0)
(0.0853704 1.58766e-05 0)
(0.0853553 1.09498e-05 0)
(0.0853444 5.7428e-06 0)
(0.0853382 1.18879e-07 0)
(0.0853368 -5.84814e-06 0)
(0.0853411 -1.19701e-05 0)
(0.085352 -1.82807e-05 0)
(0.0853703 -2.48705e-05 0)
(0.085397 -3.18407e-05 0)
(0.0854333 -3.93073e-05 0)
(0.0854805 -4.74085e-05 0)
(0.0855403 -5.63101e-05 0)
(0.0856146 -6.62243e-05 0)
(0.0857056 -7.74233e-05 0)
(0.085816 -9.02398e-05 0)
(0.0859491 -0.000105093 0)
(0.086109 -0.000122526 0)
(0.0863006 -0.000143257 0)
(0.0865299 -0.000168265 0)
(0.0868049 -0.000198913 0)
(0.0871351 -0.000237241 0)
(0.0875346 -0.000286291 0)
(0.088018 -0.000351551 0)
(0.0886187 -0.000441781 0)
(0.0893423 -0.000578857 0)
(0.0903224 -0.000794331 0)
(0.0913185 -0.00121478 0)
(0.0931249 -0.00174487 0)
(0.0963203 -0.00160776 0)
(0.0950903 -0.000829366 0)
(0.0943757 -0.000583215 0)
(0.0935362 -0.000427343 0)
(0.0927206 -0.000315322 0)
(0.0920262 -0.000230016 0)
(0.0914576 -0.000161956 0)
(0.0909999 -0.000108396 0)
(0.0906332 -6.67319e-05 0)
(0.0903384 -3.45748e-05 0)
(0.090099 -1.01085e-05 0)
(0.0899028 8.22723e-06 0)
(0.0897359 2.18903e-05 0)
(0.0895926 3.19931e-05 0)
(0.0894684 3.92709e-05 0)
(0.0893596 4.42803e-05 0)
(0.0892633 4.74505e-05 0)
(0.0891774 4.91167e-05 0)
(0.0891 4.95443e-05 0)
(0.0890299 4.89459e-05 0)
(0.088966 4.74936e-05 0)
(0.0889075 4.53272e-05 0)
(0.0888539 4.25608e-05 0)
(0.0888048 3.92875e-05 0)
(0.0887599 3.55826e-05 0)
(0.088719 3.15064e-05 0)
(0.0886821 2.71052e-05 0)
(0.0886493 2.24123e-05 0)
(0.0886206 1.74465e-05 0)
(0.0885963 1.22071e-05 0)
(0.0885766 6.65491e-06 0)
(0.088562 6.65129e-07 0)
(0.0885523 -5.70581e-06 0)
(0.0885486 -1.22947e-05 0)
(0.0885514 -1.9133e-05 0)
(0.0885616 -2.63196e-05 0)
(0.08858 -3.39671e-05 0)
(0.0886077 -4.22049e-05 0)
(0.0886461 -5.11886e-05 0)
(0.0886967 -6.1104e-05 0)
(0.0887612 -7.21886e-05 0)
(0.0888419 -8.47467e-05 0)
(0.0889413 -9.91499e-05 0)
(0.0890628 -0.000115866 0)
(0.0892101 -0.000135499 0)
(0.0893882 -0.000158848 0)
(0.0896028 -0.000186997 0)
(0.0898616 -0.000221449 0)
(0.0901738 -0.000264448 0)
(0.0905528 -0.000319293 0)
(0.0910125 -0.00039197 0)
(0.0915844 -0.000491562 0)
(0.0922723 -0.000641481 0)
(0.0931988 -0.000870711 0)
(0.0941297 -0.00130946 0)
(0.0957856 -0.00183925 0)
(0.101353 -0.0015135 0)
(0.100178 -0.000774604 0)
(0.099502 -0.000513365 0)
(0.0986614 -0.000356263 0)
(0.0977538 -0.000247914 0)
(0.0968986 -0.000170713 0)
(0.0961388 -0.000112146 0)
(0.0954875 -6.74186e-05 0)
(0.0949388 -3.32468e-05 0)
(0.0944801 -7.14687e-06 0)
(0.0940953 1.26003e-05 0)
(0.0937679 2.73431e-05 0)
(0.0934874 3.82211e-05 0)
(0.0932454 4.60593e-05 0)
(0.0930353 5.14859e-05 0)
(0.0928518 5.4974e-05 0)
(0.0926904 5.68852e-05 0)
(0.0925477 5.75007e-05 0)
(0.0924207 5.70429e-05 0)
(0.0923071 5.56903e-05 0)
(0.0922051 5.35873e-05 0)
(0.0921132 5.08513e-05 0)
(0.0920302 4.75784e-05 0)
(0.091955 4.38462e-05 0)
(0.0918869 3.97173e-05 0)
(0.0918253 3.52408e-05 0)
(0.0917699 3.04535e-05 0)
(0.0917203 2.53797e-05 0)
(0.0916764 2.003e-05 0)
(0.091638 1.43959e-05 0)
(0.0916054 8.43237e-06 0)
(0.0915785 2.02898e-06 0)
(0.0915572 -4.78643e-06 0)
(0.0915422 -1.18813e-05 0)
(0.0915342 -1.92777e-05 0)
(0.0915338 -2.7085e-05 0)
(0.0915419 -3.54277e-05 0)
(0.0915593 -4.44506e-05 0)
(0.0915872 -5.43269e-05 0)
(0.0916271 -6.52636e-05 0)
(0.0916808 -7.75245e-05 0)
(0.0917502 -9.14467e-05 0)
(0.0918379 -0.000107442 0)
(0.0919471 -0.000126025 0)
(0.0920815 -0.000147865 0)
(0.0922457 -0.000173837 0)
(0.0924454 -0.000205133 0)
(0.0926881 -0.000243391 0)
(0.0929825 -0.000291059 0)
(0.0933415 -0.000351679 0)
(0.0937783 -0.00043171 0)
(0.0943226 -0.000540511 0)
(0.0949769 -0.000702848 0)
(0.095854 -0.000945013 0)
(0.0967272 -0.00139998 0)
(0.0982531 -0.00192912 0)
(0.105516 -0.00140657 0)
(0.10443 -0.000722915 0)
(0.103869 -0.000449263 0)
(0.103169 -0.000286273 0)
(0.102343 -0.000174838 0)
(0.101482 -0.000100061 0)
(0.100648 -4.80938e-05 0)
(0.0998814 -1.14998e-05 0)
(0.0991991 1.47158e-05 0)
(0.0985991 3.37361e-05 0)
(0.098076 4.75194e-05 0)
(0.097621 5.73449e-05 0)
(0.0972251 6.41195e-05 0)
(0.0968795 6.85277e-05 0)
(0.096577 7.10826e-05 0)
(0.0963111 7.21578e-05 0)
(0.0960764 7.20325e-05 0)
(0.0958684 7.092e-05 0)
(0.0956834 6.89871e-05 0)
(0.0955181 6.63669e-05 0)
(0.0953699 6.31663e-05 0)
(0.0952368 5.94718e-05 0)
(0.0951167 5.53539e-05 0)
(0.0950084 5.08684e-05 0)
(0.0949105 4.60598e-05 0)
(0.094822 4.09614e-05 0)
(0.0947422 3.55961e-05 0)
(0.0946704 2.99758e-05 0)
(0.0946061 2.40997e-05 0)
(0.094549 1.79488e-05 0)
(0.094499 1.14704e-05 0)
(0.094456 4.56968e-06 0)
(0.0944194 -2.76076e-06 0)
(0.0943899 -1.04274e-05 0)
(0.0943681 -1.84401e-05 0)
(0.0943544 -2.6917e-05 0)
(0.0943495 -3.59967e-05 0)
(0.0943543 -4.58398e-05 0)
(0.0943698 -5.66387e-05 0)
(0.0943974 -6.86224e-05 0)
(0.0944387 -8.20819e-05 0)
(0.0944955 -9.73882e-05 0)
(0.0945705 -0.000114993 0)
(0.0946664 -0.000135462 0)
(0.0947871 -0.000159525 0)
(0.0949368 -0.000188137 0)
(0.0951213 -0.000222596 0)
(0.0953475 -0.000264675 0)
(0.0956241 -0.00031702 0)
(0.0959633 -0.000383413 0)
(0.0963778 -0.000470756 0)
(0.0968955 -0.000588643 0)
(0.0975179 -0.00076302 0)
(0.0983486 -0.00101747 0)
(0.0991696 -0.00148678 0)
(0.100581 -0.00201511 0)
(0.108854 -0.00129313 0)
(0.107866 -0.000676623 0)
(0.10743 -0.000397242 0)
(0.106923 -0.000228215 0)
(0.106294 -0.000109396 0)
(0.105581 -3.06043e-05 0)
(0.104825 2.07723e-05 0)
(0.10406 5.34688e-05 0)
(0.103322 7.39528e-05 0)
(0.102636 8.66465e-05 0)
(0.102012 9.4229e-05 0)
(0.101452 9.83637e-05 0)
(0.100952 0.000100103 0)
(0.100509 0.000100137 0)
(0.100115 9.89182e-05 0)
(0.0997649 9.67462e-05 0)
(0.0994533 9.38252e-05 0)
(0.0991753 9.03011e-05 0)
(0.0989266 8.62813e-05 0)
(0.0987036 8.1848e-05 0)
(0.0985032 7.70649e-05 0)
(0.0983226 7.19817e-05 0)
(0.0981595 6.66373e-05 0)
(0.098012 6.10611e-05 0)
(0.0978784 5.52743e-05 0)
(0.0977574 4.92903e-05 0)
(0.0976478 4.31143e-05 0)
(0.0975486 3.67426e-05 0)
(0.0974592 3.01599e-05 0)
(0.0973789 2.33344e-05 0)
(0.0973073 1.62032e-05 0)
(0.0972442 8.68198e-06 0)
(0.0971888 7.40547e-07 0)
(0.0971413 -7.58198e-06 0)
(0.0971024 -1.62983e-05 0)
(0.0970724 -2.55198e-05 0)
(0.0970519 -3.54017e-05 0)
(0.0970417 -4.61226e-05 0)
(0.0970425 -5.78948e-05 0)
(0.0970557 -7.09704e-05 0)
(0.0970827 -8.56687e-05 0)
(0.0971254 -0.000102396 0)
(0.0971861 -0.000121644 0)
(0.0972676 -0.000144031 0)
(0.0973734 -0.000170347 0)
(0.0975079 -0.000201631 0)
(0.0976764 -0.000239282 0)
(0.0978856 -0.00028521 0)
(0.0981441 -0.000342255 0)
(0.0984634 -0.000414432 0)
(0.0988558 -0.00050906 0)
(0.0993474 -0.000635943 0)
(0.0999389 -0.000822011 0)
(0.100726 -0.00108821 0)
(0.101499 -0.00157018 0)
(0.102807 -0.00209764 0)
(0.111442 -0.00117694 0)
(0.110549 -0.000635218 0)
(0.110215 -0.000358122 0)
(0.109885 -0.000186486 0)
(0.109477 -6.08007e-05 0)
(0.108997 2.54643e-05 0)
(0.108432 8.21139e-05 0)
(0.107802 0.000117187 0)
(0.107135 0.000136981 0)
(0.106464 0.00014659 0)
(0.105813 0.000149685 0)
(0.105199 0.000148773 0)
(0.104632 0.000145467 0)
(0.104112 0.000140756 0)
(0.103641 0.000135221 0)
(0.103215 0.00012919 0)
(0.10283 0.000122852 0)
(0.102483 0.000116313 0)
(0.10217 0.000109638 0)
(0.101887 0.000102864 0)
(0.101631 9.60144e-05 0)
(0.101399 8.91007e-05 0)
(0.101188 8.21292e-05 0)
(0.100997 7.51001e-05 0)
(0.100823 6.80087e-05 0)
(0.100665 6.08455e-05 0)
(0.100521 5.35954e-05 0)
(0.10039 4.62361e-05 0)
(0.100271 3.87357e-05 0)
(0.100164 3.10469e-05 0)
(0.100067 2.30952e-05 0)
(0.0999795 1.47955e-05 0)
(0.0999018 6.11838e-06 0)
(0.099833 -2.96066e-06 0)
(0.0997738 -1.24885e-05 0)
(0.0997245 -2.25551e-05 0)
(0.0996856 -3.33279e-05 0)
(0.0996576 -4.50059e-05 0)
(0.0996413 -5.78232e-05 0)
(0.0996379 -7.20557e-05 0)
(0.0996486 -8.8052e-05 0)
(0.0996752 -0.000106254 0)
(0.09972 -0.000127197 0)
(0.0997855 -0.000151549 0)
(0.0998752 -0.000180166 0)
(0.0999932 -0.000214165 0)
(0.100145 -0.000255052 0)
(0.100336 -0.000304873 0)
(0.100576 -0.000366655 0)
(0.100875 -0.000444643 0)
(0.101245 -0.000546545 0)
(0.101711 -0.000682354 0)
(0.102272 -0.000879788 0)
(0.103016 -0.00115731 0)
(0.103744 -0.00165036 0)
(0.104958 -0.00217699 0)
(0.113364 -0.00106003 0)
(0.112564 -0.000597173 0)
(0.112308 -0.000329787 0)
(0.11211 -0.000159852 0)
(0.111883 -3.08056e-05 0)
(0.111618 6.20189e-05 0)
(0.111285 0.000126141 0)
(0.110876 0.000167784 0)
(0.110397 0.000192113 0)
(0.109863 0.000203761 0)
(0.109298 0.000206564 0)
(0.108723 0.000203565 0)
(0.108157 0.000197019 0)
(0.107614 0.000188485 0)
(0.107102 0.000178958 0)
(0.106625 0.000169031 0)
(0.106185 0.00015903 0)
(0.10578 0.000149124 0)
(0.105409 0.00013939 0)
(0.10507 0.000129857 0)
(0.10476 0.000120525 0)
(0.104477 0.000111382 0)
(0.104218 0.000102405 0)
(0.103981 9.35691e-05 0)
(0.103764 8.4845e-05 0)
(0.103566 7.62001e-05 0)
(0.103385 6.75983e-05 0)
(0.103219 5.89977e-05 0)
(0.103067 5.03483e-05 0)
(0.102928 4.15861e-05 0)
(0.102802 3.26234e-05 0)
(0.102688 2.3367e-05 0)
(0.102584 1.37887e-05 0)
(0.102492 3.83297e-06 0)
(0.102409 -6.61368e-06 0)
(0.102337 -1.76481e-05 0)
(0.102277 -2.94244e-05 0)
(0.102229 -4.21606e-05 0)
(0.102193 -5.61151e-05 0)
(0.10217 -7.1589e-05 0)
(0.102163 -8.89613e-05 0)
(0.102171 -0.000108711 0)
(0.102198 -0.000131417 0)
(0.102246 -0.0001578 0)
(0.102318 -0.000188779 0)
(0.102418 -0.000225554 0)
(0.102552 -0.000269736 0)
(0.102725 -0.000323505 0)
(0.102945 -0.000390076 0)
(0.103223 -0.000473917 0)
(0.10357 -0.000583094 0)
(0.104009 -0.000727776 0)
(0.10454 -0.000936266 0)
(0.105243 -0.00122475 0)
(0.105927 -0.0017274 0)
(0.107054 -0.00225335 0)
(0.114716 -0.000947514 0)
(0.114015 -0.000562395 0)
(0.113821 -0.000310026 0)
(0.113716 -0.000144924 0)
(0.113616 -1.59263e-05 0)
(0.113508 8.0469e-05 0)
(0.113366 0.000150157 0)
(0.113172 0.000198353 0)
(0.112916 0.000229298 0)
(0.112595 0.000246702 0)
(0.112216 0.000253734 0)
(0.111787 0.00025313 0)
(0.111326 0.000247195 0)
(0.110848 0.000237785 0)
(0.110366 0.000226304 0)
(0.109894 0.000213746 0)
(0.10944 0.000200774 0)
(0.109008 0.000187798 0)
(0.108602 0.00017505 0)
(0.108223 0.000162648 0)
(0.10787 0.000150634 0)
(0.107543 0.00013901 0)
(0.107241 0.000127754 0)
(0.106961 0.00011683 0)
(0.106703 0.000106193 0)
(0.106465 9.57943e-05 0)
(0.106246 8.55809e-05 0)
(0.106043 7.54934e-05 0)
(0.105857 6.54643e-05 0)
(0.105685 5.5414e-05 0)
(0.105528 4.52408e-05 0)
(0.105384 3.48407e-05 0)
(0.105252 2.41742e-05 0)
(0.105133 1.31864e-05 0)
(0.105025 1.71386e-06 0)
(0.104929 -1.04065e-05 0)
(0.104845 -2.33183e-05 0)
(0.104773 -3.7234e-05 0)
(0.104716 -5.24362e-05 0)
(0.104672 -6.92541e-05 0)
(0.104644 -8.80979e-05 0)
(0.104632 -0.000109485 0)
(0.10464 -0.00013404 0)
(0.104668 -0.000162533 0)
(0.104721 -0.000195953 0)
(0.104802 -0.00023558 0)
(0.104916 -0.00028313 0)
(0.105069 -0.000340918 0)
(0.105268 -0.000412342 0)
(0.105524 -0.000502089 0)
(0.105848 -0.000618552 0)
(0.106261 -0.000772067 0)
(0.106761 -0.000991311 0)
(0.107422 -0.00129045 0)
(0.108065 -0.00180131 0)
(0.109108 -0.00232677 0)
(0.11564 -0.00084757 0)
(0.115044 -0.000532072 0)
(0.114902 -0.000297168 0)
(0.114861 -0.000138398 0)
(0.114843 -1.15848e-05 0)
(0.114837 8.56875e-05 0)
(0.114822 0.000158104 0)
(0.114781 0.000210451 0)
(0.114702 0.000246602 0)
(0.114578 0.000269777 0)
(0.114402 0.000282592 0)
(0.114173 0.000287219 0)
(0.113893 0.000285504 0)
(0.113569 0.000279025 0)
(0.113211 0.000269124 0)
(0.112828 0.000256906 0)
(0.112433 0.00024326 0)
(0.112035 0.00022886 0)
(0.111643 0.000214196 0)
(0.111261 0.000199598 0)
(0.110895 0.000185271 0)
(0.110546 0.000171327 0)
(0.110217 0.000157812 0)
(0.109907 0.000144731 0)
(0.109616 0.000132056 0)
(0.109345 0.000119746 0)
(0.109091 0.000107744 0)
(0.108856 9.59835e-05 0)
(0.108636 8.43866e-05 0)
(0.108433 7.2862e-05 0)
(0.108245 6.12975e-05 0)
(0.10807 4.95789e-05 0)
(0.10791 3.76512e-05 0)
(0.107763 2.54545e-05 0)
(0.107629 1.28212e-05 0)
(0.107506 -4.79987e-07 0)
(0.107397 -1.46478e-05 0)
(0.107301 -2.98774e-05 0)
(0.10722 -4.64522e-05 0)
(0.107153 -6.47296e-05 0)
(0.107103 -8.51541e-05 0)
(0.10707 -0.000108283 0)
(0.107056 -0.000134784 0)
(0.107064 -0.000165483 0)
(0.107096 -0.000201435 0)
(0.107156 -0.000244002 0)
(0.107249 -0.000295006 0)
(0.107381 -0.000356897 0)
(0.107558 -0.000433248 0)
(0.107792 -0.000528964 0)
(0.108091 -0.000652728 0)
(0.108476 -0.000815041 0)
(0.108946 -0.00104474 0)
(0.109565 -0.00135425 0)
(0.110166 -0.00187198 0)
(0.11113 -0.00239726 0)
(0.116308 -0.000763946 0)
(0.115807 -0.000506388 0)
(0.115707 -0.00028952 0)
(0.115709 -0.000137621 0)
(0.115741 -1.40389e-05 0)
(0.115796 8.24738e-05 0)
(0.115856 0.000155636 0)
(0.115907 0.00020992 0)
(0.11594 0.000249007 0)
(0.115948 0.000275941 0)
(0.115924 0.000293161 0)
(0.115862 0.000302604 0)
(0.11576 0.00030581 0)
(0.115614 0.000304019 0)
(0.115427 0.000298244 0)
(0.1152 0.000289346 0)
(0.114938 0.00027807 0)
(0.11465 0.000265073 0)
(0.114341 0.000250919 0)
(0.11402 0.000236077 0)
(0.113694 0.00022092 0)
(0.113368 0.000205726 0)
(0.113048 0.000190687 0)
(0.112737 0.000175924 0)
(0.112437 0.000161498 0)
(0.11215 0.000147426 0)
(0.111878 0.00013369 0)
(0.11162 0.000120245 0)
(0.111376 0.000107025 0)
(0.111147 9.39406e-05 0)
(0.110933 8.08802e-05 0)
(0.110732 6.77262e-05 0)
(0.110546 5.44114e-05 0)
(0.110372 4.08649e-05 0)
(0.110213 2.69257e-05 0)
(0.110066 1.23505e-05 0)
(0.109932 -3.14605e-06 0)
(0.109811 -1.98031e-05 0)
(0.109706 -3.7878e-05 0)
(0.109616 -5.77337e-05 0)
(0.109542 -7.98519e-05 0)
(0.109487 -0.000104831 0)
(0.109451 -0.000133384 0)
(0.109437 -0.000166392 0)
(0.109447 -0.000204975 0)
(0.109486 -0.00025058 0)
(0.109557 -0.000305132 0)
(0.109667 -0.000371215 0)
(0.109822 -0.000452574 0)
(0.110031 -0.000554325 0)
(0.110305 -0.000685404 0)
(0.110662 -0.000856477 0)
(0.111099 -0.00109632 0)
(0.111677 -0.00141594 0)
(0.112235 -0.00193927 0)
(0.113122 -0.00246473 0)
(0.116851 -0.000694867 0)
(0.116426 -0.000484479 0)
(0.116355 -0.000285516 0)
(0.116385 -0.000140716 0)
(0.116449 -2.08513e-05 0)
(0.11654 7.40444e-05 0)
(0.116642 0.000146883 0)
(0.116745 0.000201798 0)
(0.116842 0.000242274 0)
(0.116926 0.000271237 0)
(0.116992 0.000291053 0)
(0.117037 0.000303601 0)
(0.117056 0.000310347 0)
(0.117046 0.000312423 0)
(0.117005 0.000310695 0)
(0.116929 0.00030583 0)
(0.116819 0.000298365 0)
(0.116676 0.000288758 0)
(0.116501 0.000277418 0)
(0.116299 0.00026472 0)
(0.116073 0.00025101 0)
(0.115829 0.0002366 0)
(0.115573 0.000221759 0)
(0.115308 0.000206705 0)
(0.115041 0.000191608 0)
(0.114775 0.000176583 0)
(0.114512 0.000161699 0)
(0.114256 0.00014698 0)
(0.114009 0.000132411 0)
(0.113771 0.000117941 0)
(0.113544 0.000103482 0)
(0.113328 8.89343e-05 0)
(0.113124 7.42325e-05 0)
(0.112931 5.93022e-05 0)
(0.112752 4.39852e-05 0)
(0.112584 2.8055e-05 0)
(0.11243 1.12075e-05 0)
(0.112288 -6.90938e-06 0)
(0.11216 -2.65734e-05 0)
(0.112049 -4.81071e-05 0)
(0.111953 -7.2017e-05 0)
(0.111876 -9.89446e-05 0)
(0.111818 -0.000129648 0)
(0.111783 -0.000165062 0)
(0.111772 -0.000206372 0)
(0.111789 -0.000255108 0)
(0.111838 -0.000313301 0)
(0.111926 -0.000383664 0)
(0.112057 -0.000470108 0)
(0.112243 -0.000577953 0)
(0.11249 -0.000716352 0)
(0.112818 -0.00089613 0)
(0.113223 -0.00114579 0)
(0.113757 -0.00147524 0)
(0.114273 -0.00200294 0)
(0.115085 -0.00252901 0)
(0.117346 -0.000637125 0)
(0.11698 -0.000465429 0)
(0.116926 -0.000283933 0)
(0.116973 -0.000146409 0)
(0.117056 -3.05406e-05 0)
(0.117168 6.22722e-05 0)
(0.117295 0.000134226 0)