/*--------------------------------*- C++ -*----------------------------------*\
  =========                 |
  \\      /  F ield         | OpenFOAM: The Open Source CFD Toolbox
   \\    /   O peration     | Website:  https://openfoam.org
    \\  /    A nd           | Version:  6
     \\/     M anipulation  |
\*---------------------------------------------------------------------------*/
FoamFile
{
    version     2.0;
    format      ascii;
    class       volVectorField;
    location    "0.038";
    object      U;
}
// * * * * * * * * * * * * * * * * * * * * * * * * * * * * * * * * * * * * * //

dimensions      [0 1 -1 0 0 0 0];

internalField   nonuniform List<vector> 
16000
(
(0.0419483 -0.000484169 -0.0001282)
(0.0427807 -0.000438452 -1.1453e-05)
(0.0435588 -0.000446304 1.55036e-05)
(0.0442829 -0.000459417 8.22514e-06)
(0.0450428 -0.00044977 -1.19306e-06)
(0.0458201 -0.000419691 -1.35226e-05)
(0.0465837 -0.000377398 -2.72903e-05)
(0.0473102 -0.000331377 -3.87324e-05)
(0.0479822 -0.00028874 -4.50761e-05)
(0.0485891 -0.00025367 -4.57166e-05)
(0.0491273 -0.000227184 -4.14941e-05)
(0.0495992 -0.000208367 -3.39634e-05)
(0.0500116 -0.000195743 -2.47853e-05)
(0.0503746 -0.000188194 -1.53436e-05)
(0.0507004 -0.000185345 -6.57893e-06)
(0.0510023 -0.000187487 1.08193e-06)
(0.0512933 -0.000195224 7.73987e-06)
(0.0515849 -0.000209236 1.38326e-05)
(0.0518874 -0.000230108 1.98855e-05)
(0.0522107 -0.000258236 2.62858e-05)
(0.0525646 -0.00029378 3.31625e-05)
(0.0529593 -0.000336736 4.05008e-05)
(0.0534052 -0.000387155 4.8356e-05)
(0.0539128 -0.000445463 5.69107e-05)
(0.0544929 -0.000512612 6.63623e-05)
(0.0551583 -0.000589994 7.68312e-05)
(0.0559238 -0.000679347 8.84226e-05)
(0.0568063 -0.00078292 0.00010142)
(0.0578251 -0.000903748 0.000116445)
(0.0590017 -0.00104579 0.000134379)
(0.0603616 -0.00121395 0.000156054)
(0.061936 -0.00141426 0.000182055)
(0.0637645 -0.00165422 0.000212944)
(0.0658968 -0.00194338 0.000249708)
(0.0683936 -0.00229418 0.000294055)
(0.0713298 -0.0027233 0.000348378)
(0.0747987 -0.00325394 0.000415713)
(0.0789203 -0.00391904 0.000499967)
(0.083852 -0.00476583 0.000606523)
(0.0898032 -0.00586339 0.000743408)
(0.0970558 -0.0073148 0.000924227)
(0.105995 -0.0092764 0.00117466)
(0.117126 -0.0119738 0.00153403)
(0.13114 -0.0157418 0.00205837)
(0.148974 -0.0210769 0.00283103)
(0.171906 -0.0287264 0.00399488)
(0.201613 -0.0398454 0.00586232)
(0.240155 -0.0562592 0.00931371)
(0.291898 -0.0825771 0.0158304)
(0.354984 -0.159895 0.024452)
(0.0983643 -0.00128758 -0.000342317)
(0.0993191 -0.00133529 -0.000185763)
(0.10026 -0.00146509 -0.000153764)
(0.101134 -0.00160174 -0.000158804)
(0.10205 -0.00168347 -0.000152452)
(0.102978 -0.00168279 -0.000142102)
(0.103883 -0.00160156 -0.000132204)
(0.104743 -0.00146121 -0.000122953)
(0.105538 -0.00129271 -0.000114331)
(0.10626 -0.00112615 -0.000105754)
(0.106906 -0.000983704 -9.55623e-05)
(0.107476 -0.000877644 -8.25276e-05)
(0.107976 -0.000811807 -6.67035e-05)
(0.108416 -0.000784639 -4.93211e-05)
(0.10881 -0.000792067 -3.20377e-05)
(0.109175 -0.000829324 -1.60117e-05)
(0.109529 -0.000891953 -1.48938e-06)
(0.109886 -0.000977166 1.15153e-05)
(0.110261 -0.00108467 2.27567e-05)
(0.110665 -0.00121639 3.20302e-05)
(0.111113 -0.0013755 3.95486e-05)
(0.111615 -0.0015655 4.60731e-05)
(0.112185 -0.00178999 5.27721e-05)
(0.112834 -0.00205328 6.07796e-05)
(0.113573 -0.00236068 7.06871e-05)
(0.114418 -0.00271814 8.2481e-05)
(0.115383 -0.00313182 9.58947e-05)
(0.116491 -0.00360877 0.00011076)
(0.117764 -0.0041588 0.000127255)
(0.119228 -0.00479629 0.00014611)
(0.120911 -0.00554072 0.00016837)
(0.122849 -0.00641613 0.000194609)
(0.125082 -0.00745086 0.000224666)
(0.127663 -0.00867931 0.000258492)
(0.130655 -0.0101457 0.000297459)
(0.13413 -0.0119072 0.000344383)
(0.138168 -0.0140393 0.000402044)
(0.142865 -0.0166409 0.000472123)
(0.148331 -0.0198428 0.000555367)
(0.154697 -0.0238219 0.000652507)
(0.162114 -0.0288192 0.000762983)
(0.170736 -0.0351554 0.000882195)
(0.180746 -0.0432683 0.00100129)
(0.192303 -0.0537443 0.00111374)
(0.205558 -0.0673815 0.00121285)
(0.220602 -0.0852367 0.00130574)
(0.237404 -0.108927 0.00143503)
(0.255131 -0.141178 0.0017923)
(0.27183 -0.185991 0.00243521)
(0.280039 -0.252399 0.003033)
(0.145132 -0.00114344 -0.000293973)
(0.145848 -0.00119588 -0.000191406)
(0.1466 -0.0013456 -0.000192038)
(0.147325 -0.00152566 -0.000197931)
(0.148076 -0.0016887 -0.000187482)
(0.148824 -0.00179919 -0.000175676)
(0.14955 -0.00183479 -0.000163699)
(0.150238 -0.00179109 -0.00014906)
(0.150874 -0.00168287 -0.000132012)
(0.151449 -0.0015393 -0.000114019)
(0.151961 -0.00139482 -9.61094e-05)
(0.152413 -0.00127974 -7.85763e-05)
(0.152812 -0.00121433 -6.12407e-05)
(0.153166 -0.00120747 -4.39938e-05)
(0.153486 -0.001259 -2.7342e-05)
(0.153782 -0.00136431 -1.2142e-05)
(0.15407 -0.00151752 1.50361e-06)
(0.154363 -0.00171353 1.38966e-05)
(0.154671 -0.00194907 2.57121e-05)
(0.155007 -0.00222253 3.7592e-05)
(0.155379 -0.00253442 4.94799e-05)
(0.155797 -0.00288857 6.08643e-05)
(0.156272 -0.00329274 7.15375e-05)
(0.156815 -0.0037582 8.19181e-05)
(0.157434 -0.00429815 9.27273e-05)
(0.158141 -0.0049259 0.000104738)
(0.158946 -0.00565446 0.000118771)
(0.159861 -0.0064979 0.000135574)
(0.1609 -0.00747344 0.000155679)
(0.162083 -0.00860317 0.000179455)
(0.16343 -0.00991546 0.000207181)
(0.164964 -0.0114451 0.000239034)
(0.16671 -0.0132327 0.00027516)
(0.168697 -0.0153251 0.000315851)
(0.170953 -0.0177801 0.000361222)
(0.173508 -0.0206712 0.000411034)
(0.176392 -0.0240904 0.000465285)
(0.17963 -0.0281502 0.000524185)
(0.183239 -0.0329837 0.000587616)
(0.187227 -0.0387553 0.000652793)
(0.191598 -0.0456686 0.000713629)
(0.196318 -0.0539757 0.000763767)
(0.201324 -0.0639974 0.000800282)
(0.206549 -0.0760619 0.000827945)
(0.21171 -0.0909077 0.000855574)
(0.216329 -0.109225 0.000907652)
(0.219499 -0.132025 0.000979453)
(0.220066 -0.160178 0.000956764)
(0.215952 -0.194786 0.000735035)
(0.204199 -0.235491 0.000311423)
(0.173152 -0.000782899 -0.000293411)
(0.173792 -0.000828036 -0.00021549)
(0.174504 -0.000943784 -0.000235661)
(0.175213 -0.00109025 -0.000243047)
(0.175942 -0.00124035 -0.000227798)
(0.176645 -0.00137095 -0.000210987)
(0.1773 -0.00146357 -0.000193615)
(0.177895 -0.00150788 -0.000171585)
(0.178416 -0.00150577 -0.000144848)
(0.178858 -0.00147183 -0.000116369)
(0.179226 -0.00142894 -8.93296e-05)
(0.179533 -0.00140164 -6.56272e-05)
(0.179795 -0.00141051 -4.5781e-05)
(0.180025 -0.00146889 -2.93953e-05)
(0.180232 -0.00158221 -1.56415e-05)
(0.180426 -0.0017502 -4.88451e-06)
(0.180615 -0.00197101 3.64836e-06)
(0.180806 -0.00224413 1.14935e-05)
(0.181002 -0.00257095 1.87317e-05)
(0.181212 -0.00295428 2.55597e-05)
(0.181439 -0.003397 3.24837e-05)
(0.181692 -0.00390186 3.98025e-05)
(0.181978 -0.004473 4.75759e-05)
(0.182305 -0.00511784 5.5697e-05)
(0.182679 -0.00584787 6.38996e-05)
(0.183108 -0.00667801 7.20602e-05)
(0.183597 -0.00762646 8.04735e-05)
(0.184147 -0.00871528 8.96017e-05)
(0.184764 -0.00997064 9.98295e-05)
(0.185449 -0.0114218 0.000111464)
(0.186209 -0.0131003 0.0001245)
(0.187049 -0.0150412 0.000138498)
(0.187976 -0.0172846 0.000153065)
(0.188995 -0.0198774 0.000168198)
(0.190107 -0.0228746 0.000183893)
(0.191312 -0.0263414 0.000199493)
(0.192603 -0.0303544 0.000213314)
(0.193964 -0.0350032 0.000223667)
(0.195391 -0.0403877 0.000230915)
(0.196842 -0.046656 0.000234172)
(0.198241 -0.0539422 0.000240912)
(0.199501 -0.0624323 0.000249753)
(0.200457 -0.0723377 0.000261635)
(0.200831 -0.0839787 0.000261445)
(0.200327 -0.0974233 0.000236615)
(0.198484 -0.113008 0.000152188)
(0.194651 -0.130804 1.94488e-05)
(0.187984 -0.150773 -0.000170738)
(0.17738 -0.172576 -0.00040255)
(0.161494 -0.195416 -0.000697817)
(0.18529 -0.000299179 -0.000290478)
(0.185909 -0.000332723 -0.000219994)
(0.186617 -0.000406389 -0.000249736)
(0.187338 -0.000499303 -0.000260359)
(0.188079 -0.000601683 -0.000245411)
(0.188787 -0.000706073 -0.000228944)
(0.189434 -0.000807099 -0.000211816)
(0.190002 -0.000901874 -0.000188532)
(0.190478 -0.000990798 -0.000158313)
(0.190855 -0.00107769 -0.000124691)
(0.191139 -0.00116895 -9.22311e-05)
(0.191348 -0.00127238 -6.42893e-05)
(0.191505 -0.00139602 -4.23569e-05)
(0.191628 -0.00154705 -2.63753e-05)
(0.19173 -0.00173106 -1.52881e-05)
(0.19182 -0.00195186 -8.01118e-06)
(0.191904 -0.00221324 -3.53743e-06)
(0.191983 -0.00251996 -6.14765e-07)
(0.192058 -0.00287764 1.45133e-06)
(0.19213 -0.00329303 2.93555e-06)
(0.1922 -0.00377381 3.97117e-06)
(0.192268 -0.00432787 4.62649e-06)
(0.192339 -0.00496325 5.05084e-06)
(0.192415 -0.00568879 5.48551e-06)
(0.192503 -0.00651443 6.18349e-06)
(0.192604 -0.00745133 7.45938e-06)
(0.192722 -0.00851302 9.6549e-06)
(0.192854 -0.00971725 1.27318e-05)
(0.192997 -0.011087 1.61206e-05)
(0.193147 -0.0126501 1.92242e-05)
(0.193299 -0.0144381 2.17149e-05)
(0.19345 -0.0164857 2.33498e-05)
(0.193594 -0.0188318 2.39774e-05)
(0.193722 -0.0215207 2.37726e-05)
(0.193821 -0.0246015 2.30975e-05)
(0.19387 -0.0281273 2.20094e-05)
(0.193841 -0.0321563 2.00974e-05)
(0.193696 -0.0367547 1.60774e-05)
(0.193377 -0.0420048 6.38871e-06)
(0.192823 -0.0479662 -9.94043e-06)
(0.191946 -0.0547364 -4.02091e-05)
(0.190621 -0.0623876 -8.37583e-05)
(0.188694 -0.070987 -0.000147356)
(0.185947 -0.0805835 -0.000232643)
(0.182113 -0.0911827 -0.000341868)
(0.17685 -0.102728 -0.000472433)
(0.169734 -0.115083 -0.000642669)
(0.160277 -0.127958 -0.000859572)
(0.147942 -0.140877 -0.00113659)
(0.132233 -0.153104 -0.00148478)
(0.185148 0.000204112 -0.000292358)
(0.185768 0.000180828 -0.000221854)
(0.186478 0.000150982 -0.000251419)
(0.187198 0.000120146 -0.000261967)
(0.187935 8.20361e-05 -0.000247029)
(0.188635 2.78864e-05 -0.000230639)
(0.189269 -5.31528e-05 -0.000213723)
(0.189821 -0.000171008 -0.000190908)
(0.190276 -0.000329627 -0.00016148)
(0.190627 -0.000524221 -0.00012901)
(0.190878 -0.000743462 -9.7977e-05)
(0.191046 -0.000974865 -7.15124e-05)
(0.191154 -0.00120989 -5.09019e-05)
(0.191218 -0.00144634 -3.59937e-05)
(0.191253 -0.00168784 -2.58751e-05)
(0.191266 -0.00194164 -1.9471e-05)
(0.191262 -0.00221684 -1.57835e-05)
(0.191242 -0.00252316 -1.39458e-05)
(0.191206 -0.00287007 -1.33888e-05)
(0.191153 -0.00326664 -1.38003e-05)
(0.191081 -0.0037219 -1.5e-05)
(0.190989 -0.00424546 -1.68322e-05)
(0.190874 -0.00484815 -1.92263e-05)
(0.190735 -0.00554213 -2.23541e-05)
(0.19057 -0.00633992 -2.64383e-05)
(0.190378 -0.00725319 -3.14004e-05)
(0.190156 -0.00829325 -3.68763e-05)
(0.189898 -0.00947253 -4.27163e-05)
(0.189599 -0.0108064 -4.92633e-05)
(0.18925 -0.0123147 -5.69239e-05)
(0.188841 -0.0140229 -6.59982e-05)
(0.18836 -0.0159612 -7.69963e-05)
(0.187791 -0.0181631 -9.06193e-05)
(0.187115 -0.020664 -0.000107445)
(0.186305 -0.0235003 -0.000127914)
(0.185329 -0.0267097 -0.000152595)
(0.184148 -0.0303298 -0.000182377)
(0.182716 -0.0343971 -0.000218615)
(0.180977 -0.0389472 -0.000262901)
(0.178864 -0.0440107 -0.000316809)
(0.176297 -0.0496103 -0.00038135)
(0.173176 -0.0557585 -0.000459947)
(0.16938 -0.0624454 -0.000554809)
(0.164766 -0.0696298 -0.000668111)
(0.159161 -0.0772183 -0.000801096)
(0.152372 -0.0850537 -0.000954567)
(0.144176 -0.0928811 -0.00112855)
(0.134335 -0.100325 -0.00131983)
(0.122596 -0.106873 -0.00151985)
(0.108702 -0.111889 -0.00171451)
(0.172734 0.000695378 -0.000298547)
(0.173378 0.000690293 -0.000221358)
(0.174091 0.000714052 -0.000242133)
(0.174792 0.000749997 -0.000250412)
(0.175503 0.000774441 -0.000236214)
(0.176178 0.000763241 -0.000220505)
(0.176792 0.000693582 -0.000204703)
(0.177333 0.000550173 -0.000185384)
(0.177786 0.000332652 -0.000162665)
(0.178145 5.7144e-05 -0.000138828)
(0.178411 -0.000250148 -0.00011603)
(0.178594 -0.000563074 -9.56423e-05)
(0.178704 -0.000863622 -7.83486e-05)
(0.178754 -0.00114499 -6.43703e-05)
(0.178755 -0.00141016 -5.35958e-05)
(0.178713 -0.00166824 -4.57561e-05)
(0.178633 -0.00193101 -4.05522e-05)
(0.17852 -0.00221051 -3.76634e-05)
(0.178374 -0.0025178 -3.67899e-05)
(0.178195 -0.00286279 -3.76951e-05)
(0.17798 -0.0032546 -4.0222e-05)
(0.177728 -0.00370227 -4.42701e-05)
(0.177433 -0.00421518 -4.9882e-05)
(0.177091 -0.00480317 -5.72634e-05)
(0.176696 -0.00547691 -6.64529e-05)
(0.176241 -0.00624802 -7.712e-05)
(0.175719 -0.00712896 -8.88569e-05)
(0.175119 -0.00813231 -0.000101625)
(0.17443 -0.00927047 -0.000115752)
(0.173641 -0.0105567 -0.000131616)
(0.172737 -0.0120067 -0.000149835)
(0.171699 -0.0136384 -0.000171417)
(0.170505 -0.0154721 -0.000197234)
(0.169131 -0.0175293 -0.000227761)
(0.167543 -0.0198328 -0.000263485)
(0.165709 -0.0224062 -0.000305206)
(0.163587 -0.025271 -0.000353963)
(0.161134 -0.0284452 -0.000410921)
(0.158301 -0.0319404 -0.000477295)
(0.155033 -0.0357601 -0.000554333)
(0.151268 -0.0398973 -0.00064335)
(0.14694 -0.0443296 -0.000745595)
(0.141973 -0.0490125 -0.000861851)
(0.136288 -0.0538709 -0.000992229)
(0.129801 -0.0587876 -0.00113571)
(0.12243 -0.0635919 -0.00128951)
(0.114105 -0.0680426 -0.0014486)
(0.104778 -0.0718054 -0.00160074)
(0.0944323 -0.0744422 -0.00171353)
(0.0830659 -0.0754027 -0.00172649)
(0.144484 0.00107001 -0.000300052)
(0.1452 0.00108612 -0.000199216)
(0.145949 0.00116628 -0.000201208)
(0.146658 0.00126007 -0.000208344)
(0.14738 0.00132349 -0.000199073)
(0.148083 0.0013223 -0.000188442)
(0.148742 0.00123503 -0.000178339)
(0.149342 0.00105778 -0.000167118)
(0.149867 0.000805249 -0.000154958)
(0.150304 0.000504957 -0.000142494)
(0.150649 0.000187457 -0.000129774)
(0.150901 -0.000122463 -0.000116579)
(0.151065 -0.000410314 -0.000103075)
(0.151145 -0.000671952 -8.99744e-05)
(0.15115 -0.000910992 -7.81765e-05)
(0.151087 -0.00113553 -6.84443e-05)
(0.150964 -0.00135548 -6.12262e-05)
(0.150787 -0.00158068 -5.66514e-05)
(0.150558 -0.0018202 -5.46514e-05)
(0.150278 -0.00208217 -5.50449e-05)
(0.149947 -0.00237389 -5.76374e-05)
(0.149561 -0.00270227 -6.22682e-05)
(0.149115 -0.00307405 -6.88797e-05)
(0.148603 -0.00349657 -7.75629e-05)
(0.148017 -0.00397865 -8.84483e-05)
(0.147348 -0.00453059 -0.00010161)
(0.146584 -0.00516289 -0.000117107)
(0.145713 -0.00588465 -0.00013503)
(0.14472 -0.00670325 -0.000155417)
(0.143587 -0.00762524 -0.00017819)
(0.142295 -0.00865732 -0.000203462)
(0.140819 -0.00980746 -0.000231738)
(0.139136 -0.0110859 -0.000263627)
(0.137216 -0.0125052 -0.000299753)
(0.135029 -0.0140783 -0.000340987)
(0.132542 -0.0158173 -0.000388392)
(0.12972 -0.0177317 -0.000442885)
(0.126526 -0.0198266 -0.000505063)
(0.122919 -0.022102 -0.000575292)
(0.118856 -0.0245507 -0.000653843)
(0.114294 -0.0271568 -0.000740775)
(0.109189 -0.0298925 -0.000835682)
(0.103497 -0.0327136 -0.000937245)
(0.097174 -0.0355536 -0.00104314)
(0.0901775 -0.0383189 -0.00115101)
(0.082482 -0.0408852 -0.00126114)
(0.0741234 -0.0430976 -0.00138224)
(0.0652414 -0.0447817 -0.00152078)
(0.0562414 -0.0458474 -0.00162045)
(0.0477433 -0.0461492 -0.00153583)
(0.0975689 0.00123018 -0.000340778)
(0.0985086 0.00125758 -0.000188447)
(0.0994278 0.00134649 -0.000159602)
(0.10027 0.00143187 -0.000166727)
(0.101135 0.00145723 -0.000162766)
(0.101994 0.00139904 -0.000155473)
(0.10281 0.00126029 -0.000148476)
(0.103558 0.00106039 -0.000141804)
(0.104216 0.000825882 -0.000135177)
(0.104772 0.000581721 -0.000127867)
(0.105218 0.000346209 -0.000118969)
(0.105554 0.000129654 -0.000108228)
(0.105781 -6.44864e-05 -9.62189e-05)
(0.105905 -0.000237518 -8.40081e-05)
(0.105935 -0.000393463 -7.27009e-05)
(0.105882 -0.000537904 -6.31227e-05)
(0.105753 -0.000676414 -5.58638e-05)
(0.105556 -0.000814182 -5.09722e-05)
(0.105295 -0.000956247 -4.84158e-05)
(0.104972 -0.00110722 -4.80245e-05)
(0.104586 -0.00127125 -4.96027e-05)
(0.104136 -0.00145224 -5.29886e-05)
(0.103615 -0.00165398 -5.81177e-05)
(0.103019 -0.00188054 -6.50826e-05)
(0.102338 -0.00213661 -7.40754e-05)
(0.101562 -0.00242736 -8.52599e-05)
(0.100681 -0.00275792 -9.8723e-05)
(0.0996787 -0.00313284 -0.000114408)
(0.098539 -0.00355563 -0.000132016)
(0.0972423 -0.00402874 -0.000151189)
(0.0957661 -0.00455387 -0.000171941)
(0.094087 -0.00513281 -0.000194819)
(0.0921803 -0.00576812 -0.000220665)
(0.0900204 -0.00646278 -0.000250473)
(0.0875802 -0.0072192 -0.000285338)
(0.0848312 -0.0080382 -0.000326301)
(0.0817432 -0.00891817 -0.000374248)
(0.0782836 -0.00985405 -0.000430025)
(0.0744185 -0.0108363 -0.000494649)
(0.070113 -0.0118493 -0.000569445)
(0.065333 -0.0128697 -0.000656065)
(0.0600462 -0.0138625 -0.000756561)
(0.0542238 -0.0147764 -0.000873556)
(0.0478449 -0.0155376 -0.00101053)
(0.0409124 -0.0160513 -0.00117807)
(0.0335041 -0.016234 -0.00140241)
(0.0258475 -0.0161119 -0.00172315)
(0.0183793 -0.0160406 -0.00216089)
(0.0114755 -0.016992 -0.00256973)
(0.0057483 -0.0209072 -0.00252899)
(0.0412744 0.000467017 -0.000127413)
(0.0420854 0.00041789 -1.47451e-05)
(0.0428389 0.000417814 9.14431e-06)
(0.0435324 0.000421675 2.87874e-07)
(0.0442487 0.000402851 -9.94899e-06)
(0.0449672 0.000363411 -2.26607e-05)
(0.045656 0.000310392 -3.67814e-05)
(0.0462908 0.000251147 -4.92201e-05)
(0.0468532 0.000191954 -5.77392e-05)
(0.047331 0.0001367 -6.17031e-05)
(0.0477181 8.68385e-05 -6.15879e-05)
(0.0480136 4.22539e-05 -5.84878e-05)
(0.0482207 2.14357e-06 -5.36914e-05)
(0.0483451 -3.44587e-05 -4.83976e-05)
(0.0483931 -6.87438e-05 -4.31907e-05)
(0.048374 -0.000100123 -3.93568e-05)
(0.0482933 -0.000131683 -3.67897e-05)
(0.0481567 -0.000162884 -3.53446e-05)
(0.0479684 -0.00019444 -3.52554e-05)
(0.0477302 -0.000227293 -3.63929e-05)
(0.0474426 -0.000262207 -3.86405e-05)
(0.0471044 -0.000299891 -4.19179e-05)
(0.0467129 -0.000341024 -4.61985e-05)
(0.0462644 -0.000386302 -5.15289e-05)
(0.0457537 -0.000436522 -5.80079e-05)
(0.0451746 -0.000492586 -6.57545e-05)
(0.0445196 -0.000555357 -7.48464e-05)
(0.0437795 -0.000625444 -8.51735e-05)
(0.0429434 -0.000703039 -9.63827e-05)
(0.0419986 -0.000788008 -0.00010807)
(0.0409313 -0.000880055 -0.000120046)
(0.0397276 -0.000978762 -0.000132387)
(0.0383742 -0.00108352 -0.000145259)
(0.0368587 -0.0011933 -0.000158739)
(0.0351692 -0.00130641 -0.000172706)
(0.0332947 -0.00142034 -0.00018677)
(0.0312249 -0.00153158 -0.000200233)
(0.0289512 -0.00163536 -0.000212065)
(0.026467 -0.00172511 -0.00022086)
(0.0237698 -0.0017919 -0.000224731)
(0.0208631 -0.00182356 -0.000221143)
(0.0177596 -0.0018041 -0.00020697)
(0.0144876 -0.00171492 -0.000179781)
(0.0111016 -0.00154338 -0.000141727)
(0.00769386 -0.00131072 -0.000100891)
(0.00440941 -0.00113834 -7.9005e-05)
(0.00143581 -0.00136939 -0.000141263)
(-0.00145994 -0.00279991 -0.000378383)
(-0.00643987 -0.0074582 -0.000545007)
(-0.0156437 -0.0200136 -8.33892e-05)
(0.0945462 -0.00122912 -0.000586324)
(0.0961225 -0.00110685 -0.000481949)
(0.0977339 -0.00110186 -0.000423187)
(0.0992845 -0.0011156 -0.000414813)
(0.100902 -0.00108546 -0.000415307)
(0.102537 -0.00101303 -0.000418893)
(0.104123 -0.000912387 -0.000424131)
(0.105609 -0.000799749 -0.000423863)
(0.106957 -0.000690762 -0.000410153)
(0.108151 -0.0005963 -0.00038027)
(0.10919 -0.000520585 -0.000335707)
(0.110087 -0.000463312 -0.000280898)
(0.110862 -0.000422244 -0.000221787)
(0.111542 -0.000395064 -0.000164279)
(0.112154 -0.000380434 -0.000112932)
(0.112727 -0.000378264 -7.00641e-05)
(0.113286 -0.000389217 -3.55612e-05)
(0.113854 -0.000414171 -7.76245e-06)
(0.114451 -0.000453765 1.54467e-05)
(0.115095 -0.000508256 3.58654e-05)
(0.115804 -0.000577579 5.46322e-05)
(0.116599 -0.00066147 7.25476e-05)
(0.1175 -0.000759893 9.05966e-05)
(0.118526 -0.000873692 0.000109845)
(0.119701 -0.0010049 0.000130863)
(0.121049 -0.0011564 0.000153489)
(0.1226 -0.00133152 0.000177333)
(0.124386 -0.00153428 0.000202724)
(0.126446 -0.0017701 0.00023139)
(0.128821 -0.0020464 0.000266056)
(0.131561 -0.00237272 0.000308897)
(0.134729 -0.00276091 0.000360351)
(0.138399 -0.00322528 0.000419949)
(0.142668 -0.00378335 0.000488429)
(0.147649 -0.00445722 0.000568942)
(0.153483 -0.00527641 0.00066654)
(0.160342 -0.00628214 0.000787172)
(0.168442 -0.00753268 0.000936608)
(0.178064 -0.00911041 0.00112098)
(0.18957 -0.0111333 0.00134941)
(0.203444 -0.0137737 0.00163824)
(0.220316 -0.0172871 0.00202132)
(0.241097 -0.0220732 0.00257081)
(0.26695 -0.0287157 0.00341361)
(0.29938 -0.0380545 0.00473725)
(0.340432 -0.0513432 0.00684641)
(0.392912 -0.0704639 0.0103954)
(0.460653 -0.0982689 0.0168798)
(0.550042 -0.136978 0.0299646)
(0.667222 -0.247843 0.0570151)
(0.259163 -0.00336259 -0.00137318)
(0.260583 -0.00341369 -0.001289)
(0.262225 -0.00368015 -0.00128364)
(0.263824 -0.00399565 -0.00127187)
(0.265504 -0.0042223 -0.00120318)
(0.26722 -0.00427257 -0.00109332)
(0.268918 -0.00411966 -0.00096892)
(0.270552 -0.00379287 -0.000847232)
(0.272076 -0.00336084 -0.000739686)
(0.273462 -0.00290318 -0.0006484)
(0.274698 -0.00248559 -0.000564352)
(0.275785 -0.00214925 -0.000477387)
(0.276734 -0.00191186 -0.000383507)
(0.277571 -0.00177446 -0.000286076)
(0.278326 -0.00172872 -0.000192228)
(0.279037 -0.00176175 -0.000107275)
(0.279739 -0.00185895 -3.19241e-05)
(0.280463 -0.00200863 3.46239e-05)
(0.281237 -0.00220575 9.16964e-05)
(0.282087 -0.00245261 0.000137933)
(0.283034 -0.00275611 0.000173635)
(0.284103 -0.00312391 0.000202131)
(0.285314 -0.0035628 0.000229312)
(0.28669 -0.00408024 0.000261294)
(0.288256 -0.00468624 0.000301704)
(0.290042 -0.00539306 0.000351021)
(0.292083 -0.0062133 0.000408152)
(0.294422 -0.00716001 0.000472299)
(0.297105 -0.00824988 0.000544213)
(0.300187 -0.00950791 0.000627064)
(0.303727 -0.0109703 0.000725426)
(0.307797 -0.0126836 0.000841791)
(0.312481 -0.0147021 0.000974951)
(0.317884 -0.0170893 0.00112341)
(0.324127 -0.0199243 0.00129058)
(0.331358 -0.0233111 0.00148638)
(0.339751 -0.0273865 0.00172616)
(0.349491 -0.0323253 0.0020231)
(0.360798 -0.038356 0.00238399)
(0.373926 -0.0457836 0.00281691)
(0.389165 -0.0550201 0.00333588)
(0.406817 -0.0666159 0.00395603)
(0.427132 -0.0812913 0.00468385)
(0.450336 -0.100001 0.00552178)
(0.476592 -0.12403 0.00650775)
(0.505847 -0.155062 0.00773759)
(0.537565 -0.195177 0.00944089)
(0.570877 -0.247245 0.0121815)
(0.604782 -0.316666 0.0173881)
(0.633154 -0.418099 0.0262135)
(0.396623 -0.0030072 -0.00144831)
(0.39737 -0.00306405 -0.00148869)
(0.398363 -0.00332821 -0.00164968)
(0.399383 -0.00368544 -0.00170289)
(0.400421 -0.00406143 -0.00165445)
(0.401442 -0.00437255 -0.00154526)
(0.402438 -0.00453847 -0.00139205)
(0.403403 -0.00451222 -0.00120702)
(0.404321 -0.0042981 -0.00101127)
(0.405177 -0.00394834 -0.000825935)
(0.405965 -0.00354328 -0.000663121)
(0.406683 -0.00316524 -0.000524259)
(0.407338 -0.00287863 -0.000403861)
(0.40794 -0.00272078 -0.000295725)
(0.408501 -0.0027027 -0.000198152)
(0.409042 -0.00281811 -0.000112981)
(0.409583 -0.00305219 -3.9304e-05)
(0.410147 -0.00338974 2.53001e-05)
(0.410757 -0.0038198 8.48003e-05)
(0.411435 -0.00433458 0.000142912)
(0.412203 -0.00492933 0.000199431)
(0.413079 -0.00560527 0.000251354)
(0.414085 -0.00637274 0.000297094)
(0.41524 -0.00725197 0.000338528)
(0.416562 -0.00827037 0.000379635)
(0.41807 -0.00945713 0.000424827)
(0.419784 -0.0108396 0.000478422)
(0.421726 -0.0124452 0.0005441)
(0.423927 -0.0143051 0.00062421)
(0.426426 -0.0164586 0.000719922)
(0.429269 -0.0189567 0.000831889)
(0.432509 -0.0218642 0.000960591)
(0.4362 -0.0252571 0.00110687)
(0.440405 -0.0292214 0.00127295)
(0.445187 -0.03386 0.00146237)
(0.450607 -0.0393031 0.00167859)
(0.456716 -0.0457154 0.00192136)
(0.463579 -0.053302 0.00219063)
(0.471244 -0.0623095 0.00248979)
(0.479736 -0.0730343 0.00282077)
(0.489025 -0.0858197 0.00318267)
(0.498965 -0.101057 0.00356525)
(0.509456 -0.119281 0.00394257)
(0.520251 -0.141115 0.00431065)
(0.530899 -0.167385 0.00468724)
(0.540998 -0.198703 0.00525435)
(0.549495 -0.237434 0.00604789)
(0.554491 -0.285953 0.00714886)
(0.550901 -0.346932 0.00798168)
(0.535283 -0.419381 0.0073994)
(0.478734 -0.00202319 -0.00151441)
(0.479267 -0.00206172 -0.00160705)
(0.480077 -0.0022392 -0.00186088)
(0.480969 -0.00249771 -0.00196165)
(0.481859 -0.002803 -0.00193628)
(0.482681 -0.00311078 -0.00184172)
(0.483416 -0.00336747 -0.00168806)
(0.484056 -0.00352598 -0.00147465)
(0.484594 -0.00356435 -0.00121878)
(0.485033 -0.00349556 -0.000953125)
(0.485394 -0.00336215 -0.000709829)
(0.485703 -0.00322099 -0.000507928)
(0.48599 -0.00312747 -0.000351046)
(0.486273 -0.00312459 -0.000232426)
(0.486562 -0.00323724 -0.000141953)
(0.486864 -0.00347076 -7.62254e-05)
(0.487183 -0.00382098 -2.82634e-05)
(0.487526 -0.00428582 1.24867e-05)
(0.487895 -0.00486554 4.86977e-05)
(0.488297 -0.00556463 8.24595e-05)
(0.488741 -0.00638895 0.000116719)
(0.489242 -0.00734243 0.000152605)
(0.489815 -0.00842817 0.000189591)
(0.49048 -0.00965334 0.000226499)
(0.491251 -0.0110337 0.0002622)
(0.492145 -0.0125937 0.000296896)
(0.49317 -0.0143659 0.000332932)
(0.494332 -0.0163924 0.00037339)
(0.495636 -0.018725 0.000420429)
(0.497088 -0.0214237 0.000475151)
(0.498696 -0.0245516 0.000537252)
(0.500473 -0.0281755 0.000605127)
(0.502431 -0.0323689 0.000678349)
(0.504579 -0.0372166 0.000759446)
(0.506925 -0.0428181 0.000851645)
(0.509467 -0.0492912 0.000954796)
(0.512193 -0.0567757 0.0010636)
(0.515075 -0.0654356 0.00116888)
(0.518068 -0.0754589 0.00126455)
(0.521099 -0.0870664 0.0013467)
(0.524088 -0.100474 0.00143628)
(0.527 -0.116097 0.0015128)
(0.529505 -0.134264 0.00162458)
(0.531226 -0.155406 0.00177737)
(0.531624 -0.179969 0.00194663)
(0.529652 -0.208858 0.00197471)
(0.52425 -0.241734 0.00189362)
(0.513886 -0.278763 0.00152484)
(0.496545 -0.319417 0.000804432)
(0.469535 -0.362348 -0.000322429)
(0.514317 -0.000740932 -0.00153672)
(0.514795 -0.000768809 -0.00164488)
(0.515566 -0.000873235 -0.00193905)
(0.516454 -0.00102487 -0.00206639)
(0.517343 -0.00121117 -0.00205839)
(0.518149 -0.00141795 -0.00198065)
(0.51884 -0.00162901 -0.0018406)
(0.519396 -0.00183031 -0.00162801)
(0.519802 -0.0020151 -0.00135333)
(0.520061 -0.00218625 -0.00105119)
(0.5202 -0.00235439 -0.000763364)
(0.520263 -0.0025346 -0.000520877)
(0.520294 -0.00274365 -0.000336399)
(0.520325 -0.002998 -0.000207082)
(0.520372 -0.00331187 -0.000121588)
(0.52044 -0.00369469 -6.80677e-05)
(0.520528 -0.00415469 -3.66745e-05)
(0.520631 -0.00470171 -1.76655e-05)
(0.520744 -0.00534609 -5.17552e-06)
(0.52086 -0.00610076 3.43641e-06)
(0.520976 -0.00698163 9.63403e-06)
(0.521091 -0.00800582 1.40472e-05)
(0.521206 -0.00918973 1.72541e-05)
(0.521326 -0.0105495 2.03646e-05)
(0.521462 -0.0121022 2.5051e-05)
(0.521625 -0.0138663 3.3525e-05)
(0.521823 -0.015863 4.77478e-05)
(0.52206 -0.0181209 6.72277e-05)
(0.522333 -0.0206798 8.83284e-05)
(0.522635 -0.0235912 0.000107074)
(0.522956 -0.0269163 0.000121283)
(0.523281 -0.0307228 0.000130252)
(0.523598 -0.0350864 0.000134856)
(0.523889 -0.0400932 0.000138017)
(0.524133 -0.04584 0.000143255)
(0.524294 -0.0524319 0.000151868)
(0.524326 -0.0599807 0.000161515)
(0.524167 -0.0686079 0.000167653)
(0.523728 -0.0784512 0.000163569)
(0.522894 -0.0896619 0.000142487)
(0.521483 -0.102454 7.54982e-05)
(0.519236 -0.116927 -1.86279e-05)
(0.515883 -0.133254 -0.000172477)
(0.511028 -0.151558 -0.000400789)
(0.504171 -0.171885 -0.000712963)
(0.494644 -0.194189 -0.00113039)
(0.481615 -0.218275 -0.00167686)
(0.464109 -0.243702 -0.0023851)
(0.440986 -0.269693 -0.00331801)
(0.411106 -0.294963 -0.00455081)
(0.514057 0.00058313 -0.00154296)
(0.514535 0.00055946 -0.001652)
(0.515309 0.000520572 -0.00194678)
(0.516196 0.000478425 -0.00207399)
(0.517079 0.000429936 -0.00206563)
(0.517875 0.000364603 -0.00198752)
(0.518549 0.000260258 -0.00184787)
(0.519082 8.70418e-05 -0.00163756)
(0.519456 -0.000179349 -0.00136761)
(0.519673 -0.000543777 -0.00107198)
(0.519755 -0.000988122 -0.000791251)
(0.519741 -0.00148079 -0.000555572)
(0.519672 -0.00199122 -0.000376932)
(0.519582 -0.00250107 -0.0002521)
(0.519487 -0.00300776 -0.000170375)
(0.519393 -0.00352123 -0.000120016)
(0.519298 -0.00405904 -9.1102e-05)
(0.519198 -0.00464251 -7.59542e-05)
(0.519084 -0.00529298 -6.96477e-05)
(0.518949 -0.00603057 -6.95367e-05)
(0.518786 -0.00687452 -7.41563e-05)
(0.518586 -0.00784428 -8.24456e-05)
(0.518343 -0.00896095 -9.37473e-05)
(0.518048 -0.010249 -0.000108283)
(0.517696 -0.0117356 -0.000126288)
(0.517281 -0.0134474 -0.000146478)
(0.516798 -0.0154077 -0.000166462)
(0.516239 -0.0176384 -0.000185478)
(0.515595 -0.0201629 -0.000205805)
(0.514854 -0.0230122 -0.000230429)
(0.513998 -0.0262299 -0.000261479)
(0.513004 -0.0298734 -0.000301114)
(0.511841 -0.034012 -0.00035136)
(0.510468 -0.0387212 -0.000413101)
(0.508834 -0.0440795 -0.000486612)
(0.506871 -0.0501668 -0.00057324)
(0.504498 -0.0570623 -0.000676627)
(0.501619 -0.064844 -0.000802819)
(0.498122 -0.0735877 -0.000959731)
(0.493871 -0.0833648 -0.00115449)
(0.488698 -0.0942378 -0.00139522)
(0.482393 -0.106254 -0.00168959)
(0.47471 -0.119426 -0.00204625)
(0.465345 -0.133719 -0.00247523)
(0.453943 -0.149013 -0.00298395)
(0.440086 -0.16508 -0.00357698)
(0.423303 -0.181503 -0.0042543)
(0.403078 -0.197639 -0.00500545)
(0.378866 -0.21254 -0.00579741)
(0.350126 -0.224924 -0.00655422)
(0.477965 0.00187055 -0.0015304)
(0.478496 0.00186195 -0.00162653)
(0.479304 0.00190902 -0.00188371)
(0.480182 0.00199102 -0.00198593)
(0.481042 0.00208279 -0.00196103)
(0.481816 0.00214318 -0.00186668)
(0.482483 0.00211291 -0.00171628)
(0.483032 0.00193217 -0.00151395)
(0.483451 0.00156748 -0.00127872)
(0.483736 0.00102954 -0.00103953)
(0.483899 0.000368824 -0.000821236)
(0.483955 -0.000346472 -0.000636996)
(0.483924 -0.00105588 -0.000490295)
(0.483823 -0.001723 -0.000378967)
(0.483665 -0.00233846 -0.000297694)
(0.483458 -0.00291377 -0.000240527)
(0.483206 -0.00347215 -0.0002024)
(0.482908 -0.00404086 -0.000179303)
(0.482562 -0.00464628 -0.000168189)
(0.482161 -0.00531189 -0.000166897)
(0.481698 -0.00605847 -0.000174001)
(0.481164 -0.00690568 -0.000188675)
(0.480547 -0.00787325 -0.000210958)
(0.479834 -0.00898152 -0.000241615)
(0.479011 -0.0102526 -0.000280458)
(0.478058 -0.0117108 -0.000325224)
(0.476956 -0.0133829 -0.000373171)
(0.475683 -0.0152954 -0.000423742)
(0.474219 -0.0174732 -0.000478764)
(0.472541 -0.0199414 -0.000540498)
(0.470622 -0.0227288 -0.000611798)
(0.468427 -0.0258704 -0.000696919)
(0.46591 -0.0294075 -0.000799393)
(0.463015 -0.033386 -0.00092061)
(0.459673 -0.037855 -0.00106188)
(0.455804 -0.0428661 -0.00122645)
(0.451316 -0.0484704 -0.0014192)
(0.446107 -0.0547138 -0.00164557)
(0.440065 -0.0616326 -0.00191112)