/*--------------------------------*- C++ -*----------------------------------*\
  =========                 |
  \\      /  F ield         | OpenFOAM: The Open Source CFD Toolbox
   \\    /   O peration     | Website:  https://openfoam.org
    \\  /    A nd           | Version:  6
     \\/     M anipulation  |
\*---------------------------------------------------------------------------*/
FoamFile
{
    version     2.0;
    format      ascii;
    class       volScalarField;
    location    "0";
    object      p;
}
// * * * * * * * * * * * * * * * * * * * * * * * * * * * * * * * * * * * * * //

dimensions      [0 2 -2 0 0 0 0];

internalField   nonuniform List<scalar> 
145945
(
3.20625e-06
3.20545e-06
3.20491e-06
3.2044e-06
3.20408e-06
3.20381e-06
3.20366e-06
3.20356e-06
3.20354e-06
3.20357e-06
3.20368e-06
3.20384e-06
3.20411e-06
3.20443e-06
3.20498e-06
3.20552e-06
3.20639e-06
3.20545e-06
3.20486e-06
3.20435e-06
3.20387e-06
3.20353e-06
3.20327e-06
3.20311e-06
3.20301e-06
3.20299e-06
3.20302e-06
3.20313e-06
3.2033e-06
3.20357e-06
3.20391e-06
3.20442e-06
3.20495e-06
3.2056e-06
3.20491e-06
3.20435e-06
3.20381e-06
3.20336e-06
3.20303e-06
3.20278e-06
3.20262e-06
3.20252e-06
3.2025e-06
3.20254e-06
3.20265e-06
3.20281e-06
3.20308e-06
3.20341e-06
3.20389e-06
3.20445e-06
3.20507e-06
3.2044e-06
3.20387e-06
3.20336e-06
3.20295e-06
3.20262e-06
3.20237e-06
3.20221e-06
3.20212e-06
3.20209e-06
3.20213e-06
3.20224e-06
3.20241e-06
3.20267e-06
3.20301e-06
3.20345e-06
3.20398e-06
3.20456e-06
3.20408e-06
3.20353e-06
3.20303e-06
3.20262e-06
3.20229e-06
3.20205e-06
3.20188e-06
3.20179e-06
3.20177e-06
3.20181e-06
3.20191e-06
3.20209e-06
3.20235e-06
3.20269e-06
3.20312e-06
3.20366e-06
3.20424e-06
3.20381e-06
3.20327e-06
3.20278e-06
3.20237e-06
3.20205e-06
3.20181e-06
3.20164e-06
3.20155e-06
3.20152e-06
3.20156e-06
3.20167e-06
3.20185e-06
3.2021e-06
3.20244e-06
3.20288e-06
3.2034e-06
3.20398e-06
3.20366e-06
3.20311e-06
3.20262e-06
3.20221e-06
3.20188e-06
3.20164e-06
3.20148e-06
3.20138e-06
3.20136e-06
3.2014e-06
3.20151e-06
3.20169e-06
3.20194e-06
3.20229e-06
3.20272e-06
3.20324e-06
3.20383e-06
3.20356e-06
3.20301e-06
3.20252e-06
3.20212e-06
3.20179e-06
3.20155e-06
3.20138e-06
3.20129e-06
3.20126e-06
3.2013e-06
3.20141e-06
3.20159e-06
3.20185e-06
3.20219e-06
3.20263e-06
3.20314e-06
3.20373e-06
3.20354e-06
3.20299e-06
3.2025e-06
3.20209e-06
3.20177e-06
3.20152e-06
3.20136e-06
3.20126e-06
3.20124e-06
3.20128e-06
3.20139e-06
3.20157e-06
3.20183e-06
3.20217e-06
3.2026e-06
3.20312e-06
3.20371e-06
3.20357e-06
3.20302e-06
3.20254e-06
3.20213e-06
3.20181e-06
3.20156e-06
3.2014e-06
3.2013e-06
3.20128e-06
3.20132e-06
3.20143e-06
3.20161e-06
3.20187e-06
3.20221e-06
3.20264e-06
3.20315e-06
3.20374e-06
3.20368e-06
3.20313e-06
3.20265e-06
3.20224e-06
3.20191e-06
3.20167e-06
3.20151e-06
3.20141e-06
3.20139e-06
3.20143e-06
3.20154e-06
3.20172e-06
3.20197e-06
3.20231e-06
3.20275e-06
3.20326e-06
3.20385e-06
3.20384e-06
3.2033e-06
3.20281e-06
3.20241e-06
3.20209e-06
3.20185e-06
3.20169e-06
3.20159e-06
3.20157e-06
3.20161e-06
3.20172e-06
3.20189e-06
3.20215e-06
3.20249e-06
3.20291e-06
3.20343e-06
3.20401e-06
3.20411e-06
3.20357e-06
3.20308e-06
3.20267e-06
3.20235e-06
3.2021e-06
3.20194e-06
3.20185e-06
3.20183e-06
3.20187e-06
3.20197e-06
3.20215e-06
3.2024e-06
3.20274e-06
3.20317e-06
3.2037e-06
3.20428e-06
3.20443e-06
3.20391e-06
3.20341e-06
3.20301e-06
3.20269e-06
3.20244e-06
3.20229e-06
3.20219e-06
3.20217e-06
3.20221e-06
3.20231e-06
3.20249e-06
3.20274e-06
3.20307e-06
3.20351e-06
3.20403e-06
3.20459e-06
3.20498e-06
3.20442e-06
3.20389e-06
3.20345e-06
3.20312e-06
3.20288e-06
3.20272e-06
3.20263e-06
3.2026e-06
3.20264e-06
3.20275e-06
3.20291e-06
3.20317e-06
3.20351e-06
3.20397e-06
3.20452e-06
3.20513e-06
3.20552e-06
3.20495e-06
3.20445e-06
3.20398e-06
3.20366e-06
3.2034e-06
3.20324e-06
3.20314e-06
3.20312e-06
3.20315e-06
3.20326e-06
3.20343e-06
3.2037e-06
3.20403e-06
3.20452e-06
3.20504e-06
3.20567e-06
3.20639e-06
3.2056e-06
3.20507e-06
3.20456e-06
3.20424e-06
3.20398e-06
3.20383e-06
3.20373e-06
3.20371e-06
3.20374e-06
3.20385e-06
3.20401e-06
3.20428e-06
3.2046e-06
3.20513e-06
3.20567e-06
3.20654e-06
3.13976e-06
3.13928e-06
3.13896e-06
3.13865e-06
3.13846e-06
3.13833e-06
3.13826e-06
3.13822e-06
3.13821e-06
3.13823e-06
3.13828e-06
3.13835e-06
3.13849e-06
3.13866e-06
3.13897e-06
3.1393e-06
3.13982e-06
3.13928e-06
3.13897e-06
3.1387e-06
3.13844e-06
3.13827e-06
3.13815e-06
3.13808e-06
3.13805e-06
3.13804e-06
3.13806e-06
3.1381e-06
3.13817e-06
3.13829e-06
3.13845e-06
3.13871e-06
3.139e-06
3.13934e-06
3.13896e-06
3.1387e-06
3.13844e-06
3.13822e-06
3.13807e-06
3.13797e-06
3.13792e-06
3.13789e-06
3.13789e-06
3.13791e-06
3.13794e-06
3.138e-06
3.1381e-06
3.13824e-06
3.13847e-06
3.13874e-06
3.13903e-06
3.13865e-06
3.13844e-06
3.13822e-06
3.13803e-06
3.1379e-06
3.13782e-06
3.13777e-06
3.13775e-06
3.13775e-06
3.13776e-06
3.1378e-06
3.13785e-06
3.13794e-06
3.13806e-06
3.13825e-06
3.13849e-06
3.13872e-06
3.13846e-06
3.13827e-06
3.13807e-06
3.1379e-06
3.13778e-06
3.13771e-06
3.13767e-06
3.13765e-06
3.13765e-06
3.13766e-06
3.13769e-06
3.13774e-06
3.13782e-06
3.13794e-06
3.13811e-06
3.13833e-06
3.13854e-06
3.13833e-06
3.13815e-06
3.13797e-06
3.13782e-06
3.13771e-06
3.13764e-06
3.13761e-06
3.13759e-06
3.13759e-06
3.13761e-06
3.13763e-06
3.13768e-06
3.13775e-06
3.13786e-06
3.13802e-06
3.13822e-06
3.13841e-06
3.13826e-06
3.13808e-06
3.13792e-06
3.13777e-06
3.13767e-06
3.13761e-06
3.13757e-06
3.13756e-06
3.13756e-06
3.13757e-06
3.1376e-06
3.13765e-06
3.13772e-06
3.13782e-06
3.13797e-06
3.13816e-06
3.13834e-06
3.13822e-06
3.13805e-06
3.13789e-06
3.13775e-06
3.13765e-06
3.13759e-06
3.13756e-06
3.13755e-06
3.13755e-06
3.13756e-06
3.13759e-06
3.13763e-06
3.1377e-06
3.1378e-06
3.13794e-06
3.13812e-06
3.1383e-06
3.13821e-06
3.13804e-06
3.13789e-06
3.13775e-06
3.13765e-06
3.13759e-06
3.13756e-06
3.13755e-06
3.13755e-06
3.13756e-06
3.13759e-06
3.13763e-06
3.1377e-06
3.1378e-06
3.13794e-06
3.13812e-06
3.13829e-06
3.13823e-06
3.13806e-06
3.13791e-06
3.13776e-06
3.13766e-06
3.13761e-06
3.13757e-06
3.13756e-06
3.13756e-06
3.13758e-06
3.1376e-06
3.13765e-06
3.13771e-06
3.13781e-06
3.13796e-06
3.13813e-06
3.13831e-06
3.13828e-06
3.1381e-06
3.13794e-06
3.1378e-06
3.1377e-06
3.13763e-06
3.1376e-06
3.13759e-06
3.13759e-06
3.1376e-06
3.13763e-06
3.13768e-06
3.13774e-06
3.13784e-06
3.13799e-06
3.13818e-06
3.13835e-06
3.13835e-06
3.13817e-06
3.138e-06
3.13785e-06
3.13774e-06
3.13768e-06
3.13765e-06
3.13763e-06
3.13763e-06
3.13765e-06
3.13768e-06
3.13772e-06
3.13779e-06
3.13789e-06
3.13805e-06
3.13824e-06
3.13843e-06
3.13849e-06
3.13829e-06
3.1381e-06
3.13794e-06
3.13782e-06
3.13775e-06
3.13772e-06
3.1377e-06
3.1377e-06
3.13771e-06
3.13774e-06
3.13779e-06
3.13787e-06
3.13798e-06
3.13814e-06
3.13836e-06
3.13856e-06
3.13866e-06
3.13845e-06
3.13824e-06
3.13806e-06
3.13794e-06
3.13786e-06
3.13782e-06
3.1378e-06
3.1378e-06
3.13781e-06
3.13784e-06
3.13789e-06
3.13798e-06
3.13809e-06
3.13828e-06
3.13851e-06
3.13873e-06
3.13897e-06
3.13871e-06
3.13847e-06
3.13825e-06
3.13811e-06
3.13802e-06
3.13797e-06
3.13794e-06
3.13794e-06
3.13796e-06
3.13799e-06
3.13805e-06
3.13814e-06
3.13828e-06
3.13849e-06
3.13876e-06
3.13904e-06
3.1393e-06
3.139e-06
3.13874e-06
3.13849e-06
3.13833e-06
3.13822e-06
3.13816e-06
3.13812e-06
3.13812e-06
3.13813e-06
3.13818e-06
3.13824e-06
3.13836e-06
3.13851e-06
3.13876e-06
3.13904e-06
3.13936e-06
3.13982e-06
3.13934e-06
3.13903e-06
3.13872e-06
3.13854e-06
3.13841e-06
3.13834e-06
3.1383e-06
3.13829e-06
3.13831e-06
3.13835e-06
3.13843e-06
3.13856e-06
3.13873e-06
3.13904e-06
3.13936e-06
3.13988e-06
3.09823e-06
3.09863e-06
3.09898e-06
3.09927e-06
3.09955e-06
3.09974e-06
3.09989e-06
3.09997e-06
3.1e-06
3.09999e-06
3.09992e-06
3.09979e-06
3.09962e-06
3.09935e-06
3.09904e-06
3.09864e-06
3.09825e-06
3.09863e-06
3.09899e-06
3.09933e-06
3.09961e-06
3.09988e-06
3.10006e-06
3.1002e-06
3.10028e-06
3.10032e-06
3.1003e-06
3.10023e-06
3.10011e-06
3.09994e-06
3.09969e-06
3.09938e-06
3.09901e-06
3.09865e-06
3.09898e-06
3.09933e-06
3.09961e-06
3.09987e-06
3.10011e-06
3.1003e-06
3.10043e-06
3.1005e-06
3.10053e-06
3.10052e-06
3.10046e-06
3.10034e-06
3.10018e-06
3.09994e-06
3.09966e-06
3.09933e-06
3.099e-06
3.09927e-06
3.09961e-06
3.09987e-06
3.10012e-06
3.10034e-06
3.10051e-06
3.10064e-06
3.10071e-06
3.10074e-06
3.10072e-06
3.10067e-06
3.10056e-06
3.1004e-06
3.10018e-06
3.09991e-06
3.09962e-06
3.09929e-06
3.09955e-06
3.09988e-06
3.10011e-06
3.10034e-06
3.10055e-06
3.10071e-06
3.10083e-06
3.1009e-06
3.10093e-06
3.10091e-06
3.10086e-06
3.10076e-06
3.10061e-06
3.1004e-06
3.10014e-06
3.09988e-06
3.09957e-06
3.09974e-06
3.10006e-06
3.1003e-06
3.10051e-06
3.10071e-06
3.10087e-06
3.10098e-06
3.10105e-06
3.10108e-06
3.10107e-06
3.10101e-06
3.10092e-06
3.10077e-06
3.10057e-06
3.10032e-06
3.10007e-06
3.09976e-06
3.09989e-06
3.1002e-06
3.10043e-06
3.10064e-06
3.10083e-06
3.10098e-06
3.10109e-06
3.10116e-06
3.10119e-06
3.10117e-06
3.10112e-06
3.10103e-06
3.10089e-06
3.10069e-06
3.10045e-06
3.1002e-06
3.0999e-06
3.09997e-06
3.10028e-06
3.1005e-06
3.10071e-06
3.1009e-06
3.10105e-06
3.10116e-06
3.10123e-06
3.10125e-06
3.10124e-06
3.10119e-06
3.1011e-06
3.10096e-06
3.10077e-06
3.10053e-06
3.10028e-06
3.09999e-06
3.1e-06
3.10032e-06
3.10053e-06
3.10074e-06
3.10093e-06
3.10108e-06
3.10119e-06
3.10125e-06
3.10128e-06
3.10127e-06
3.10122e-06
3.10112e-06
3.10099e-06
3.1008e-06
3.10056e-06
3.10032e-06
3.10002e-06
3.09999e-06
3.1003e-06
3.10052e-06
3.10072e-06
3.10091e-06
3.10107e-06
3.10117e-06
3.10124e-06
3.10127e-06
3.10125e-06
3.1012e-06
3.10111e-06
3.10097e-06
3.10078e-06
3.10054e-06
3.1003e-06
3.1e-06
3.09992e-06
3.10024e-06
3.10046e-06
3.10067e-06
3.10086e-06
3.10101e-06
3.10112e-06
3.10119e-06
3.10122e-06
3.1012e-06
3.10115e-06
3.10106e-06
3.10092e-06
3.10073e-06
3.10048e-06
3.10024e-06
3.09994e-06
3.09979e-06
3.10011e-06
3.10034e-06
3.10056e-06
3.10076e-06
3.10092e-06
3.10103e-06
3.1011e-06
3.10112e-06
3.10111e-06
3.10106e-06
3.10096e-06
3.10082e-06
3.10062e-06
3.10037e-06
3.10011e-06
3.09981e-06
3.09962e-06
3.09994e-06
3.10018e-06
3.1004e-06
3.10061e-06
3.10077e-06
3.10089e-06
3.10096e-06
3.10099e-06
3.10097e-06
3.10092e-06
3.10082e-06
3.10067e-06
3.10046e-06
3.10021e-06
3.09994e-06
3.09963e-06
3.09935e-06
3.09969e-06
3.09994e-06
3.10018e-06
3.1004e-06
3.10057e-06
3.10069e-06
3.10077e-06
3.1008e-06
3.10078e-06
3.10073e-06
3.10062e-06
3.10046e-06
3.10025e-06
3.09998e-06
3.09969e-06
3.09937e-06
3.09904e-06
3.09938e-06
3.09966e-06
3.09991e-06
3.10015e-06
3.10032e-06
3.10045e-06
3.10053e-06
3.10056e-06
3.10054e-06
3.10048e-06
3.10037e-06
3.10021e-06
3.09998e-06
3.0997e-06
3.09939e-06
3.09906e-06
3.09865e-06
3.09901e-06
3.09933e-06
3.09962e-06
3.09988e-06
3.10007e-06
3.1002e-06
3.10028e-06
3.10032e-06
3.1003e-06
3.10024e-06
3.10011e-06
3.09994e-06
3.09969e-06
3.09939e-06
3.09902e-06
3.09866e-06
3.09825e-06
3.09865e-06
3.099e-06
3.09929e-06
3.09957e-06
3.09976e-06
3.0999e-06
3.09999e-06
3.10002e-06
3.1e-06
3.09994e-06
3.09981e-06
3.09963e-06
3.09937e-06
3.09906e-06
3.09866e-06
3.09826e-06
3.05035e-06
3.05132e-06
3.05223e-06
3.05311e-06
3.05384e-06
3.05438e-06
3.05476e-06
3.05499e-06
3.05508e-06
3.05503e-06
3.05484e-06
3.05449e-06
3.054e-06
3.05332e-06
3.05246e-06
3.05146e-06
3.05041e-06
3.05132e-06
3.05213e-06
3.053e-06
3.05384e-06
3.05454e-06
3.05505e-06
3.05541e-06
3.05563e-06
3.05572e-06
3.05567e-06
3.05549e-06
3.05516e-06
3.05469e-06
3.05405e-06
3.05323e-06
3.05227e-06
3.05139e-06
3.05223e-06
3.053e-06
3.05382e-06
3.0546e-06
3.05526e-06
3.05574e-06
3.05608e-06
3.05629e-06
3.05637e-06
3.05632e-06
3.05615e-06
3.05585e-06
3.05541e-06
3.05481e-06
3.05404e-06
3.05314e-06
3.0523e-06
3.05311e-06
3.05384e-06
3.0546e-06
3.05534e-06
3.05596e-06
3.05641e-06
3.05673e-06
3.05693e-06
3.05701e-06
3.05697e-06
3.0568e-06
3.05652e-06
3.05611e-06
3.05554e-06
3.05482e-06
3.05397e-06
3.05318e-06
3.05384e-06
3.05454e-06
3.05526e-06
3.05596e-06
3.05654e-06
3.05697e-06
3.05728e-06
3.05746e-06
3.05754e-06
3.0575e-06
3.05735e-06
3.05708e-06
3.05669e-06
3.05615e-06
3.05546e-06
3.05467e-06
3.05392e-06
3.05438e-06
3.05505e-06
3.05574e-06
3.05641e-06
3.05697e-06
3.05739e-06
3.05768e-06
3.05786e-06
3.05793e-06
3.0579e-06
3.05775e-06
3.05749e-06
3.05712e-06
3.05661e-06
3.05594e-06
3.05518e-06
3.05445e-06
3.05476e-06
3.05541e-06
3.05608e-06
3.05673e-06
3.05728e-06
3.05768e-06
3.05797e-06
3.05814e-06
3.05821e-06
3.05818e-06
3.05803e-06
3.05778e-06
3.05742e-06
3.05693e-06
3.05628e-06
3.05555e-06
3.05484e-06
3.05499e-06
3.05563e-06
3.05629e-06
3.05693e-06
3.05746e-06
3.05786e-06
3.05814e-06
3.05831e-06
3.05838e-06
3.05835e-06
3.05821e-06
3.05796e-06
3.0576e-06
3.05712e-06
3.05649e-06
3.05577e-06
3.05507e-06
3.05508e-06
3.05572e-06
3.05637e-06
3.05701e-06
3.05754e-06
3.05793e-06
3.05821e-06
3.05838e-06
3.05845e-06
3.05842e-06
3.05828e-06
3.05803e-06
3.05768e-06
3.0572e-06
3.05657e-06
3.05585e-06
3.05516e-06
3.05503e-06
3.05567e-06
3.05632e-06
3.05697e-06
3.0575e-06
3.0579e-06
3.05818e-06
3.05835e-06
3.05842e-06
3.05838e-06
3.05824e-06
3.058e-06
3.05764e-06
3.05716e-06
3.05653e-06
3.0558e-06
3.05511e-06
3.05484e-06
3.05549e-06
3.05615e-06
3.0568e-06
3.05735e-06
3.05775e-06
3.05803e-06
3.05821e-06
3.05828e-06
3.05824e-06
3.0581e-06
3.05785e-06
3.05749e-06
3.057e-06
3.05635e-06
3.05562e-06
3.05491e-06
3.05449e-06
3.05516e-06
3.05585e-06
3.05652e-06
3.05708e-06
3.05749e-06
3.05778e-06
3.05796e-06
3.05803e-06
3.058e-06
3.05785e-06
3.05759e-06
3.05722e-06
3.05671e-06
3.05605e-06
3.0553e-06
3.05457e-06
3.054e-06
3.05469e-06
3.05541e-06
3.05611e-06
3.05669e-06
3.05712e-06
3.05742e-06
3.0576e-06
3.05768e-06
3.05764e-06
3.05749e-06
3.05722e-06
3.05683e-06
3.0563e-06
3.05562e-06
3.05483e-06
3.05408e-06
3.05332e-06
3.05405e-06
3.05481e-06
3.05555e-06
3.05616e-06
3.05661e-06
3.05693e-06
3.05712e-06
3.0572e-06
3.05716e-06
3.057e-06
3.05671e-06
3.0563e-06
3.05575e-06
3.05502e-06
3.05419e-06
3.0534e-06
3.05246e-06
3.05323e-06
3.05404e-06
3.05482e-06
3.05547e-06
3.05595e-06
3.05628e-06
3.05649e-06
3.05657e-06
3.05653e-06
3.05636e-06
3.05605e-06
3.05562e-06
3.05502e-06
3.05426e-06
3.05336e-06
3.05253e-06
3.05147e-06
3.05227e-06
3.05314e-06
3.05397e-06
3.05467e-06
3.05518e-06
3.05555e-06
3.05577e-06
3.05586e-06
3.05581e-06
3.05562e-06
3.0553e-06
3.05483e-06
3.05419e-06
3.05336e-06
3.05242e-06
3.05153e-06
3.05041e-06
3.05139e-06
3.0523e-06
3.05318e-06
3.05392e-06
3.05446e-06
3.05484e-06
3.05507e-06
3.05516e-06
3.05511e-06
3.05492e-06
3.05457e-06
3.05408e-06
3.0534e-06
3.05253e-06
3.05153e-06
3.05048e-06
3.00356e-06
3.00475e-06
3.00583e-06
3.00689e-06
3.00777e-06
3.00843e-06
3.00891e-06
3.0092e-06
3.00931e-06
3.00924e-06
3.00899e-06
3.00856e-06
3.00795e-06
3.00711e-06
3.00604e-06
3.00487e-06
3.00359e-06
3.00475e-06
3.00575e-06
3.0068e-06
3.00782e-06
3.00868e-06
3.00933e-06
3.0098e-06
3.01008e-06
3.01019e-06
3.01012e-06
3.00988e-06
3.00946e-06
3.00886e-06
3.00805e-06
3.00702e-06
3.00587e-06
3.00479e-06
3.00583e-06
3.0068e-06
3.00781e-06
3.00879e-06
3.00961e-06
3.01023e-06
3.01068e-06
3.01095e-06
3.01105e-06
3.01099e-06
3.01076e-06
3.01036e-06
3.00978e-06
3.009e-06
3.00802e-06
3.00691e-06
3.00586e-06
3.00689e-06
3.00782e-06
3.00879e-06
3.00972e-06
3.0105e-06
3.0111e-06
3.01153e-06
3.01179e-06
3.01189e-06
3.01183e-06
3.01161e-06
3.01122e-06
3.01067e-06
3.00993e-06
3.00899e-06
3.00793e-06
3.00693e-06
3.00777e-06
3.00868e-06
3.00961e-06
3.0105e-06
3.01126e-06
3.01183e-06
3.01224e-06
3.01249e-06
3.01259e-06
3.01253e-06
3.01232e-06
3.01195e-06
3.01142e-06
3.01071e-06
3.00981e-06
3.00879e-06
3.00781e-06
3.00843e-06
3.00933e-06
3.01023e-06
3.0111e-06
3.01183e-06
3.01239e-06
3.01279e-06
3.01303e-06
3.01313e-06
3.01307e-06
3.01287e-06
3.01251e-06
3.012e-06
3.01131e-06
3.01043e-06
3.00944e-06
3.00848e-06
3.00891e-06
3.0098e-06
3.01068e-06
3.01153e-06
3.01224e-06
3.01279e-06
3.01318e-06
3.01342e-06
3.01351e-06
3.01345e-06
3.01325e-06
3.01291e-06
3.0124e-06
3.01173e-06
3.01087e-06
3.0099e-06
3.00895e-06
3.0092e-06
3.01008e-06
3.01095e-06
3.01179e-06
3.01249e-06
3.01303e-06
3.01342e-06
3.01365e-06
3.01374e-06
3.01369e-06
3.01349e-06
3.01315e-06
3.01265e-06
3.01199e-06
3.01114e-06
3.01019e-06
3.00924e-06
3.00931e-06
3.01019e-06
3.01105e-06
3.01189e-06
3.01259e-06
3.01313e-06
3.01351e-06
3.01374e-06
3.01383e-06
3.01378e-06
3.01358e-06
3.01324e-06
3.01275e-06
3.01209e-06
3.01125e-06
3.0103e-06
3.00935e-06
3.00924e-06
3.01012e-06
3.01099e-06
3.01183e-06
3.01253e-06
3.01307e-06
3.01346e-06
3.01369e-06
3.01378e-06
3.01373e-06
3.01353e-06
3.01319e-06
3.01269e-06
3.01203e-06
3.01119e-06
3.01023e-06
3.00928e-06
3.00899e-06
3.00988e-06
3.01076e-06
3.01161e-06
3.01232e-06
3.01287e-06
3.01325e-06
3.01349e-06
3.01359e-06
3.01353e-06
3.01333e-06
3.01298e-06
3.01248e-06
3.01181e-06
3.01096e-06
3.00999e-06
3.00904e-06
3.00856e-06
3.00946e-06
3.01036e-06
3.01122e-06
3.01195e-06
3.01251e-06
3.01291e-06
3.01315e-06
3.01324e-06
3.01319e-06
3.01298e-06
3.01263e-06
3.01211e-06
3.01143e-06
3.01056e-06
3.00957e-06
3.0086e-06
3.00795e-06
3.00886e-06
3.00978e-06
3.01067e-06
3.01142e-06
3.012e-06
3.0124e-06
3.01265e-06
3.01275e-06
3.01269e-06
3.01248e-06
3.01211e-06
3.01159e-06
3.01088e-06
3.00998e-06
3.00897e-06
3.00799e-06
3.00711e-06
3.00805e-06
3.00901e-06
3.00993e-06
3.01071e-06
3.01131e-06
3.01173e-06
3.01199e-06
3.01209e-06
3.01203e-06
3.01181e-06
3.01143e-06
3.01088e-06
3.01015e-06
3.00921e-06
3.00815e-06
3.00716e-06
3.00605e-06
3.00702e-06
3.00803e-06
3.009e-06
3.00982e-06
3.01044e-06
3.01088e-06
3.01115e-06
3.01125e-06
3.01119e-06
3.01096e-06
3.01056e-06
3.00999e-06
3.00922e-06
3.00824e-06
3.00713e-06
3.00608e-06
3.00488e-06
3.00587e-06
3.00691e-06
3.00793e-06
3.00879e-06
3.00944e-06
3.00991e-06
3.01019e-06
3.0103e-06
3.01023e-06
3.00999e-06
3.00957e-06
3.00897e-06
3.00816e-06
3.00713e-06
3.00598e-06
3.00491e-06
3.00359e-06
3.00479e-06
3.00587e-06
3.00693e-06
3.00781e-06
3.00848e-06
3.00895e-06
3.00924e-06
3.00936e-06
3.00929e-06
3.00904e-06
3.00861e-06
3.00799e-06
3.00716e-06
3.00608e-06
3.00491e-06
3.00363e-06
2.9597e-06
2.96099e-06
2.96214e-06
2.96331e-06
2.96427e-06
2.965e-06
2.96552e-06
2.96584e-06
2.96596e-06
2.96589e-06
2.96561e-06
2.96513e-06
2.96445e-06
2.96354e-06
2.96236e-06
2.9611e-06
2.95972e-06
2.96099e-06
2.96207e-06
2.96321e-06
2.96434e-06
2.96529e-06
2.96602e-06
2.96653e-06
2.96685e-06
2.96697e-06
2.96689e-06
2.96662e-06
2.96615e-06
2.96547e-06
2.96457e-06
2.96343e-06
2.96218e-06
2.96101e-06
2.96214e-06
2.96321e-06
2.96433e-06
2.96541e-06
2.96633e-06
2.96703e-06
2.96753e-06
2.96784e-06
2.96795e-06
2.96788e-06
2.96762e-06
2.96716e-06
2.96651e-06
2.96564e-06
2.96454e-06
2.96331e-06
2.96216e-06
2.96331e-06
2.96434e-06
2.96541e-06
2.96645e-06
2.96734e-06
2.96802e-06
2.9685e-06
2.9688e-06
2.96891e-06
2.96884e-06
2.96858e-06
2.96814e-06
2.96751e-06
2.96667e-06
2.96562e-06
2.96443e-06
2.96333e-06
2.96427e-06
2.96529e-06
2.96633e-06
2.96734e-06
2.9682e-06
2.96886e-06
2.96933e-06
2.96961e-06
2.96972e-06
2.96965e-06
2.96941e-06
2.96898e-06
2.96837e-06
2.96756e-06
2.96653e-06
2.96538e-06
2.96429e-06
2.965e-06
2.96602e-06
2.96703e-06
2.96802e-06
2.96886e-06
2.9695e-06
2.96996e-06
2.97024e-06
2.97035e-06
2.97028e-06
2.97004e-06
2.96962e-06
2.96902e-06
2.96823e-06
2.96723e-06
2.96611e-06
2.96503e-06
2.96552e-06
2.96653e-06
2.96753e-06
2.9685e-06
2.96933e-06
2.96996e-06
2.97041e-06
2.97068e-06
2.97079e-06
2.97072e-06
2.97049e-06
2.97008e-06
2.96949e-06
2.96871e-06
2.96773e-06
2.96662e-06
2.96555e-06
2.96584e-06
2.96685e-06
2.96784e-06
2.9688e-06
2.96961e-06
2.97024e-06
2.97068e-06
2.97096e-06
2.97106e-06
2.971e-06
2.97076e-06
2.97036e-06
2.96978e-06
2.969e-06
2.96803e-06
2.96694e-06
2.96587e-06
2.96596e-06
2.96697e-06
2.96795e-06
2.96891e-06
2.96972e-06
2.97035e-06
2.97079e-06
2.97106e-06
2.97117e-06
2.9711e-06
2.97087e-06
2.97047e-06
2.96989e-06
2.96912e-06
2.96815e-06
2.96706e-06
2.96599e-06
2.96589e-06
2.96689e-06
2.96788e-06
2.96884e-06
2.96965e-06
2.97028e-06
2.97072e-06
2.971e-06
2.9711e-06
2.97104e-06
2.9708e-06
2.9704e-06
2.96982e-06
2.96905e-06
2.96808e-06
2.96699e-06
2.96591e-06
2.96561e-06
2.96662e-06
2.96762e-06
2.96858e-06
2.96941e-06
2.97004e-06
2.97049e-06
2.97076e-06
2.97087e-06
2.9708e-06
2.97057e-06
2.97016e-06
2.96957e-06
2.96879e-06
2.96782e-06
2.96671e-06
2.96564e-06
2.96513e-06
2.96615e-06
2.96716e-06
2.96814e-06
2.96898e-06
2.96962e-06
2.97008e-06
2.97036e-06
2.97047e-06
2.9704e-06
2.97016e-06
2.96975e-06
2.96915e-06
2.96836e-06
2.96736e-06
2.96624e-06
2.96516e-06
2.96445e-06
2.96547e-06
2.96651e-06
2.96751e-06
2.96837e-06
2.96903e-06
2.96949e-06
2.96978e-06
2.96989e-06
2.96982e-06
2.96957e-06
2.96915e-06
2.96854e-06
2.96773e-06
2.96671e-06
2.96556e-06
2.96447e-06
2.96354e-06
2.96457e-06
2.96564e-06
2.96668e-06
2.96756e-06
2.96823e-06
2.96871e-06
2.96901e-06
2.96912e-06
2.96905e-06
2.9688e-06
2.96836e-06
2.96773e-06
2.9669e-06
2.96585e-06
2.96467e-06
2.96357e-06
2.96236e-06
2.96343e-06
2.96454e-06
2.96562e-06
2.96654e-06
2.96724e-06
2.96773e-06
2.96803e-06
2.96815e-06
2.96808e-06
2.96782e-06
2.96736e-06
2.96671e-06
2.96585e-06
2.96476e-06
2.96353e-06
2.96238e-06
2.9611e-06
2.96218e-06
2.96331e-06
2.96443e-06
2.96538e-06
2.96611e-06
2.96663e-06
2.96694e-06
2.96706e-06
2.96699e-06
2.96671e-06
2.96624e-06
2.96557e-06
2.96467e-06
2.96353e-06
2.96229e-06
2.96113e-06
2.95972e-06
2.96101e-06
2.96217e-06
2.96333e-06
2.96429e-06
2.96503e-06
2.96555e-06
2.96587e-06
2.96599e-06
2.96591e-06
2.96564e-06
2.96516e-06
2.96447e-06
2.96357e-06
2.96238e-06
2.96113e-06
2.95974e-06
2.91779e-06
2.91906e-06
2.92021e-06
2.92139e-06
2.92236e-06
2.92312e-06
2.92365e-06
2.92398e-06
2.92411e-06
2.92403e-06
2.92374e-06
2.92325e-06
2.92255e-06
2.92163e-06
2.92043e-06
2.91917e-06
2.91781e-06
2.91906e-06
2.92014e-06
2.92128e-06
2.92243e-06
2.9234e-06
2.92415e-06
2.92468e-06
2.92501e-06
2.92513e-06
2.92505e-06
2.92477e-06
2.92428e-06
2.92358e-06
2.92266e-06
2.9215e-06
2.92025e-06
2.91908e-06
2.92021e-06
2.92128e-06
2.92241e-06
2.92352e-06
2.92447e-06
2.9252e-06
2.92572e-06
2.92603e-06
2.92616e-06
2.92608e-06
2.9258e-06
2.92533e-06
2.92465e-06
2.92375e-06
2.92263e-06
2.92138e-06
2.92023e-06
2.92139e-06
2.92243e-06
2.92352e-06
2.92459e-06
2.92551e-06
2.92622e-06
2.92673e-06
2.92704e-06
2.92716e-06
2.92709e-06
2.92682e-06
2.92635e-06
2.92569e-06
2.92482e-06
2.92373e-06
2.92252e-06
2.92141e-06
2.92236e-06
2.9234e-06
2.92447e-06
2.92551e-06
2.92641e-06
2.92711e-06
2.9276e-06
2.9279e-06
2.92802e-06
2.92795e-06
2.92768e-06
2.92723e-06
2.92659e-06
2.92574e-06
2.92468e-06
2.92349e-06
2.92238e-06
2.92312e-06
2.92415e-06
2.9252e-06
2.92622e-06
2.92711e-06
2.92779e-06
2.92827e-06
2.92857e-06
2.92868e-06
2.92861e-06
2.92835e-06
2.92791e-06
2.92728e-06
2.92645e-06
2.9254e-06
2.92424e-06
2.92314e-06
2.92365e-06
2.92468e-06
2.92572e-06
2.92673e-06
2.9276e-06
2.92827e-06
2.92875e-06
2.92904e-06
2.92915e-06
2.92908e-06
2.92883e-06
2.9284e-06
2.92777e-06
2.92695e-06
2.92592e-06
2.92477e-06
2.92367e-06
2.92398e-06
2.92501e-06
2.92603e-06
2.92704e-06
2.9279e-06
2.92857e-06
2.92904e-06
2.92933e-06
2.92944e-06
2.92938e-06
2.92912e-06
2.92869e-06
2.92807e-06
2.92726e-06
2.92624e-06
2.9251e-06
2.924e-06
2.92411e-06
2.92514e-06
2.92616e-06
2.92716e-06
2.92802e-06
2.92868e-06
2.92915e-06
2.92944e-06
2.92956e-06
2.92949e-06
2.92924e-06
2.92881e-06
2.92819e-06
2.92738e-06
2.92636e-06
2.92523e-06
2.92413e-06
2.92403e-06
2.92506e-06
2.92608e-06
2.92709e-06
2.92795e-06
2.92861e-06
2.92908e-06
2.92938e-06
2.92949e-06
2.92942e-06
2.92917e-06
2.92874e-06
2.92812e-06
2.9273e-06
2.92628e-06
2.92515e-06
2.92405e-06
2.92374e-06
2.92477e-06
2.9258e-06
2.92682e-06
2.92769e-06
2.92835e-06
2.92883e-06
2.92912e-06
2.92924e-06
2.92917e-06
2.92891e-06
2.92848e-06
2.92786e-06
2.92704e-06
2.92601e-06
2.92486e-06
2.92376e-06
2.92325e-06
2.92428e-06
2.92533e-06
2.92636e-06
2.92724e-06
2.92791e-06
2.9284e-06
2.92869e-06
2.92881e-06
2.92874e-06
2.92848e-06
2.92804e-06
2.92741e-06
2.92658e-06
2.92554e-06
2.92437e-06
2.92327e-06
2.92255e-06
2.92358e-06
2.92465e-06
2.92569e-06
2.92659e-06
2.92728e-06
2.92777e-06
2.92808e-06
2.92819e-06
2.92812e-06
2.92786e-06
2.92741e-06
2.92677e-06
2.92592e-06
2.92486e-06
2.92368e-06
2.92257e-06
2.92163e-06
2.92266e-06
2.92375e-06
2.92482e-06
2.92574e-06
2.92645e-06
2.92695e-06
2.92726e-06
2.92738e-06
2.9273e-06
2.92704e-06
2.92658e-06
2.92592e-06
2.92505e-06
2.92397e-06
2.92276e-06
2.92165e-06
2.92043e-06
2.9215e-06
2.92263e-06
2.92374e-06
2.92468e-06
2.92541e-06
2.92592e-06
2.92624e-06
2.92636e-06
2.92629e-06
2.92601e-06
2.92554e-06
2.92486e-06
2.92397e-06
2.92285e-06
2.9216e-06
2.92045e-06
2.91917e-06
2.92025e-06
2.92138e-06
2.92252e-06
2.92349e-06
2.92424e-06
2.92478e-06
2.9251e-06
2.92523e-06
2.92515e-06
2.92487e-06
2.92438e-06
2.92368e-06
2.92276e-06
2.9216e-06
2.92035e-06
2.91919e-06
2.91781e-06
2.91908e-06
2.92023e-06
2.92141e-06
2.92239e-06
2.92314e-06
2.92368e-06
2.92401e-06
2.92413e-06
2.92405e-06
2.92377e-06
2.92327e-06
2.92257e-06
2.92165e-06
2.92045e-06
2.91919e-06
2.91783e-06
2.87767e-06
2.87884e-06
2.87992e-06
2.88103e-06
2.88195e-06
2.88267e-06
2.88319e-06
2.8835e-06
2.88362e-06
2.88354e-06
2.88327e-06
2.8828e-06
2.88212e-06
2.88125e-06
2.88011e-06
2.87894e-06
2.87768e-06
2.87884e-06
2.87985e-06
2.88092e-06
2.88201e-06
2.88293e-06
2.88366e-06
2.88417e-06
2.88449e-06
2.88461e-06
2.88453e-06
2.88426e-06
2.88378e-06
2.88311e-06
2.88223e-06
2.88112e-06
2.87994e-06
2.87885e-06
2.87992e-06
2.88092e-06
2.88199e-06
2.88305e-06
2.88396e-06
2.88467e-06
2.88517e-06
2.88548e-06
2.8856e-06
2.88552e-06
2.88525e-06
2.88479e-06
2.88413e-06
2.88327e-06
2.88219e-06
2.88101e-06
2.87993e-06
2.88103e-06
2.88201e-06
2.88305e-06
2.88408e-06
2.88497e-06
2.88566e-06
2.88616e-06
2.88646e-06
2.88658e-06
2.8865e-06
2.88624e-06
2.88579e-06
2.88514e-06
2.8843e-06
2.88325e-06
2.88209e-06
2.88104e-06
2.88195e-06
2.88293e-06
2.88396e-06
2.88497e-06
2.88585e-06
2.88652e-06
2.88701e-06
2.88731e-06
2.88742e-06
2.88735e-06
2.88709e-06
2.88665e-06
2.88601e-06
2.88518e-06
2.88416e-06
2.88302e-06
2.88196e-06
2.88267e-06
2.88366e-06
2.88467e-06
2.88566e-06
2.88652e-06
2.88719e-06
2.88767e-06
2.88796e-06
2.88808e-06
2.88801e-06
2.88775e-06
2.88731e-06
2.88669e-06
2.88587e-06
2.88486e-06
2.88374e-06
2.88269e-06
2.88319e-06
2.88417e-06
2.88517e-06
2.88616e-06
2.88701e-06
2.88767e-06
2.88814e-06
2.88843e-06
2.88854e-06
2.88847e-06
2.88822e-06
2.88779e-06
2.88717e-06
2.88637e-06
2.88536e-06
2.88425e-06
2.8832e-06
2.8835e-06
2.88449e-06
2.88548e-06
2.88646e-06
2.88731e-06
2.88796e-06
2.88843e-06
2.88872e-06
2.88883e-06
2.88876e-06
2.88851e-06
2.88808e-06
2.88747e-06
2.88667e-06
2.88567e-06
2.88457e-06
2.88352e-06
2.88362e-06
2.88461e-06
2.8856e-06
2.88658e-06
2.88742e-06
2.88808e-06
2.88855e-06
2.88883e-06
2.88894e-06
2.88888e-06
2.88863e-06
2.8882e-06
2.88759e-06
2.88679e-06
2.88579e-06
2.88469e-06
2.88364e-06
2.88355e-06
2.88453e-06
2.88552e-06
2.8865e-06
2.88735e-06
2.88801e-06
2.88848e-06
2.88876e-06
2.88888e-06
2.88881e-06
2.88856e-06
2.88813e-06
2.88751e-06
2.88671e-06
2.88572e-06
2.88461e-06
2.88356e-06
2.88327e-06
2.88426e-06
2.88525e-06
2.88624e-06
2.88709e-06
2.88775e-06
2.88822e-06
2.88851e-06
2.88863e-06
2.88856e-06
2.8883e-06
2.88787e-06
2.88726e-06
2.88645e-06
2.88545e-06
2.88434e-06
2.88328e-06
2.8828e-06
2.88378e-06
2.88479e-06
2.88579e-06
2.88665e-06
2.88731e-06
2.88779e-06
2.88809e-06
2.8882e-06
2.88813e-06
2.88787e-06
2.88744e-06
2.88681e-06
2.886e-06
2.88499e-06
2.88387e-06
2.88281e-06
2.88213e-06
2.88311e-06
2.88413e-06
2.88514e-06
2.88602e-06
2.88669e-06
2.88718e-06
2.88747e-06
2.88759e-06
2.88752e-06
2.88726e-06
2.88681e-06
2.88618e-06
2.88536e-06
2.88433e-06
2.88319e-06
2.88214e-06
2.88126e-06
2.88223e-06
2.88327e-06
2.8843e-06
2.88519e-06
2.88587e-06
2.88637e-06
2.88667e-06
2.88679e-06
2.88671e-06
2.88645e-06
2.886e-06
2.88536e-06
2.88451e-06
2.88347e-06
2.88231e-06
2.88127e-06
2.88012e-06
2.88112e-06
2.88219e-06
2.88325e-06
2.88416e-06
2.88486e-06
2.88537e-06
2.88568e-06
2.88579e-06
2.88572e-06
2.88545e-06
2.88499e-06
2.88433e-06
2.88347e-06
2.88239e-06
2.88121e-06
2.88013e-06
2.87894e-06
2.87995e-06
2.88101e-06
2.88209e-06
2.88302e-06
2.88374e-06
2.88426e-06
2.88457e-06
2.88469e-06
2.88462e-06
2.88434e-06
2.88387e-06
2.88319e-06
2.88231e-06
2.88121e-06
2.88004e-06
2.87896e-06
2.87768e-06
2.87886e-06
2.87993e-06
2.88104e-06
2.88197e-06
2.88269e-06
2.8832e-06
2.88352e-06
2.88364e-06
2.88356e-06
2.88329e-06
2.88281e-06
2.88214e-06
2.88127e-06
2.88013e-06
2.87896e-06
2.87769e-06
2.83915e-06
2.8402e-06
2.84117e-06
2.84219e-06
2.84303e-06
2.84369e-06
2.84416e-06
2.84445e-06
2.84457e-06
2.84449e-06
2.84424e-06
2.8438e-06
2.84318e-06
2.84239e-06
2.84135e-06
2.84028e-06
2.83916e-06
2.8402e-06
2.84111e-06
2.84208e-06
2.84307e-06
2.84392e-06
2.84459e-06
2.84507e-06
2.84536e-06
2.84547e-06
2.8454e-06
2.84514e-06
2.84471e-06
2.84408e-06
2.84327e-06
2.84226e-06
2.84119e-06
2.84021e-06
2.84117e-06
2.84208e-06
2.84305e-06
2.84403e-06
2.84487e-06
2.84552e-06
2.84599e-06
2.84628e-06
2.84639e-06
2.84632e-06
2.84607e-06
2.84564e-06
2.84502e-06
2.84423e-06
2.84323e-06
2.84215e-06
2.84117e-06
2.84219e-06
2.84307e-06
2.84403e-06
2.84498e-06
2.8458e-06
2.84645e-06
2.84691e-06
2.84719e-06
2.8473e-06
2.84723e-06
2.84699e-06
2.84656e-06
2.84596e-06
2.84517e-06
2.8442e-06
2.84314e-06
2.84219e-06
2.84303e-06
2.84392e-06
2.84487e-06
2.8458e-06
2.84662e-06
2.84725e-06
2.84771e-06
2.84799e-06
2.8481e-06
2.84803e-06
2.84778e-06
2.84736e-06
2.84677e-06
2.846e-06
2.84504e-06
2.84399e-06
2.84303e-06
2.84369e-06
2.84459e-06
2.84552e-06
2.84645e-06
2.84725e-06
2.84788e-06
2.84833e-06
2.84861e-06
2.84871e-06
2.84865e-06
2.84841e-06
2.84799e-06
2.84741e-06
2.84664e-06
2.8457e-06
2.84466e-06
2.8437e-06
2.84416e-06
2.84507e-06
2.84599e-06
2.84691e-06
2.84771e-06
2.84833e-06
2.84878e-06
2.84905e-06
2.84916e-06
2.84909e-06
2.84885e-06
2.84844e-06
2.84786e-06
2.8471e-06
2.84617e-06
2.84514e-06
2.84417e-06
2.84445e-06
2.84536e-06
2.84628e-06
2.84719e-06
2.84799e-06
2.84861e-06
2.84905e-06
2.84933e-06
2.84943e-06
2.84937e-06
2.84913e-06
2.84872e-06
2.84814e-06
2.84739e-06
2.84645e-06
2.84543e-06
2.84446e-06
2.84457e-06
2.84547e-06
2.84639e-06
2.8473e-06
2.8481e-06
2.84872e-06
2.84916e-06
2.84943e-06
2.84954e-06
2.84947e-06
2.84923e-06
2.84883e-06
2.84825e-06
2.8475e-06
2.84657e-06