/*--------------------------------*- C++ -*----------------------------------*\
  =========                 |
  \\      /  F ield         | OpenFOAM: The Open Source CFD Toolbox
   \\    /   O peration     | Website:  https://openfoam.org
    \\  /    A nd           | Version:  6
     \\/     M anipulation  |
\*---------------------------------------------------------------------------*/
FoamFile
{
    version     2.0;
    format      ascii;
    class       volVectorField;
    location    "0";
    object      U;
}
// * * * * * * * * * * * * * * * * * * * * * * * * * * * * * * * * * * * * * //

dimensions      [0 1 -1 0 0 0 0];

internalField   nonuniform List<vector> 
40000
(
(0.000872587 -0.000872629 0)
(0.00144423 -0.000229526 0)
(-0.00126389 0.000938777 0)
(-0.00787888 0.00202563 0)
(-0.0180789 0.00291332 0)
(-0.0312085 0.00359579 0)
(-0.0465893 0.00409446 0)
(-0.0636116 0.00444013 0)
(-0.0817617 0.00466339 0)
(-0.100622 0.00479086 0)
(-0.119862 0.00484442 0)
(-0.13922 0.00484142 0)
(-0.158495 0.00479533 0)
(-0.17753 0.00471642 0)
(-0.196204 0.00461242 0)
(-0.214422 0.00448906 0)
(-0.232109 0.00435048 0)
(-0.249205 0.00419963 0)
(-0.265658 0.00403854 0)
(-0.281429 0.00386864 0)
(-0.296475 0.00369088 0)
(-0.310766 0.00350588 0)
(-0.324268 0.00331405 0)
(-0.336951 0.00311568 0)
(-0.348785 0.00291095 0)
(-0.359743 0.00270002 0)
(-0.369796 0.00248302 0)
(-0.378919 0.00226008 0)
(-0.387084 0.00203135 0)
(-0.394265 0.00179695 0)
(-0.400439 0.00155705 0)
(-0.405581 0.00131179 0)
(-0.409668 0.00106136 0)
(-0.412675 0.000805901 0)
(-0.414583 0.00054559 0)
(-0.41537 0.000280591 0)
(-0.415017 1.10514e-05 0)
(-0.413503 -0.000262877 0)
(-0.410809 -0.000541038 0)
(-0.40692 -0.000823291 0)
(-0.401815 -0.0011095 0)
(-0.395481 -0.00139951 0)
(-0.3879 -0.00169317 0)
(-0.379059 -0.00199034 0)
(-0.368944 -0.00229085 0)
(-0.357541 -0.00259451 0)
(-0.34484 -0.00290112 0)
(-0.330827 -0.00321048 0)
(-0.315496 -0.00352234 0)
(-0.298837 -0.00383639 0)
(-0.280843 -0.00415235 0)
(-0.261509 -0.00446987 0)
(-0.240832 -0.00478853 0)
(-0.21881 -0.0051079 0)
(-0.195444 -0.00542749 0)
(-0.170738 -0.00574675 0)
(-0.144697 -0.0060651 0)
(-0.117329 -0.00638187 0)
(-0.0886467 -0.00669635 0)
(-0.0586635 -0.00700777 0)
(-0.0273989 -0.00731533 0)
(0.00512641 -0.0076181 0)
(0.0388839 -0.00791521 0)
(0.0738483 -0.00820562 0)
(0.109979 -0.0084883 0)
(0.147244 -0.00876218 0)
(0.185594 -0.00902615 0)
(0.224987 -0.00927904 0)
(0.265366 -0.00951965 0)
(0.306675 -0.00974681 0)
(0.348847 -0.00995925 0)
(0.39182 -0.0101557 0)
(0.43552 -0.010335 0)
(0.479856 -0.0104958 0)
(0.524767 -0.010637 0)
(0.570149 -0.0107573 0)
(0.615919 -0.0108554 0)
(0.661969 -0.0109304 0)
(0.708205 -0.010981 0)
(0.754521 -0.0110061 0)
(0.80081 -0.0110049 0)
(0.846947 -0.0109763 0)
(0.892822 -0.0109196 0)
(0.938323 -0.0108338 0)
(0.983313 -0.0107185 0)
(1.02768 -0.0105729 0)
(1.07128 -0.0103966 0)
(1.11401 -0.0101892 0)
(1.15572 -0.00995051 0)
(1.1963 -0.00968038 0)
(1.23561 -0.00937881 0)
(1.27352 -0.00904594 0)
(1.30991 -0.00868203 0)
(1.34465 -0.00828752 0)
(1.37763 -0.00786294 0)
(1.40871 -0.00740902 0)
(1.43779 -0.00692659 0)
(1.46476 -0.00641666 0)
(1.4895 -0.00588036 0)
(1.51192 -0.00531901 0)
(1.53192 -0.00473402 0)
(1.54941 -0.00412699 0)
(1.56431 -0.00349963 0)
(1.57654 -0.0028538 0)
(1.58604 -0.0021915 0)
(1.59276 -0.00151484 0)
(1.59663 -0.000826046 0)
(1.59763 -0.000127472 0)
(1.59571 0.000578429 0)
(1.59086 0.0012891 0)
(1.58309 0.00200196 0)
(1.57237 0.00271429 0)
(1.55872 0.00342329 0)
(1.54218 0.00412623 0)
(1.52276 0.00482023 0)
(1.50053 0.00550244 0)
(1.47553 0.00617005 0)
(1.44783 0.00682016 0)
(1.41753 0.00745003 0)
(1.38468 0.00805687 0)
(1.34942 0.00863808 0)
(1.31183 0.00919096 0)
(1.27206 0.00971311 0)
(1.23023 0.0102022 0)
(1.18647 0.0106559 0)
(1.14094 0.0110723 0)
(1.09378 0.0114495 0)
(1.04517 0.0117857 0)
(0.995267 0.0120797 0)
(0.944249 0.01233 0)
(0.892292 0.0125358 0)
(0.839584 0.0126962 0)
(0.786302 0.0128108 0)
(0.732633 0.0128794 0)
(0.678761 0.012902 0)
(0.624874 0.0128789 0)
(0.571154 0.0128107 0)
(0.517783 0.0126983 0)
(0.464935 0.0125428 0)
(0.412783 0.0123455 0)
(0.361495 0.0121081 0)
(0.311227 0.0118323 0)
(0.262135 0.0115204 0)
(0.214359 0.0111744 0)
(0.168035 0.0107969 0)
(0.123286 0.0103903 0)
(0.0802286 0.00995758 0)
(0.0389644 0.0095014 0)
(-0.000415116 0.00902467 0)
(-0.0378286 0.00853042 0)
(-0.0732091 0.00802164 0)
(-0.106498 0.00750133 0)
(-0.137653 0.0069725 0)
(-0.166641 0.00643811 0)
(-0.193438 0.00590104 0)
(-0.218041 0.00536411 0)
(-0.240446 0.00483001 0)
(-0.260669 0.0043013 0)
(-0.27873 0.00378039 0)
(-0.294663 0.00326955 0)
(-0.308506 0.00277084 0)
(-0.320314 0.00228615 0)
(-0.330135 0.00181714 0)
(-0.338039 0.00136529 0)
(-0.344092 0.000931813 0)
(-0.34837 0.000517727 0)
(-0.350946 0.000123797 0)
(-0.351907 -0.000249443 0)
(-0.351331 -0.000601723 0)
(-0.349303 -0.000932973 0)
(-0.345906 -0.00124341 0)
(-0.341224 -0.00153347 0)
(-0.335337 -0.00180381 0)
(-0.328324 -0.00205529 0)
(-0.320259 -0.00228901 0)
(-0.311215 -0.0025062 0)
(-0.301255 -0.00270825 0)
(-0.290441 -0.00289667 0)
(-0.278828 -0.00307297 0)
(-0.266465 -0.00323868 0)
(-0.253397 -0.00339516 0)
(-0.239663 -0.00354358 0)
(-0.225301 -0.00368469 0)
(-0.210345 -0.00381869 0)
(-0.194833 -0.00394499 0)
(-0.178807 -0.00406191 0)
(-0.16232 -0.00416646 0)
(-0.145439 -0.00425378 0)
(-0.128257 -0.00431681 0)
(-0.1109 -0.00434559 0)
(-0.0935371 -0.00432682 0)
(-0.0763973 -0.00424305 0)
(-0.0597817 -0.00407216 0)
(-0.0440784 -0.00378708 0)
(-0.0297751 -0.00335638 0)
(-0.0174598 -0.0027479 0)
(-0.00779718 -0.00193793 0)
(-0.00144305 -0.000928133 0)
(0.00124364 0.00017628 0)
(0.00080405 0.000803504 0)
(0.000230576 -0.0014455 0)
(-0.00349765 0.00350114 0)
(-0.0151181 0.0113836 0)
(-0.0356459 0.0192158 0)
(-0.0643541 0.0259774 0)
(-0.0999669 0.0313958 0)
(-0.14106 0.0355008 0)
(-0.186272 0.0384448 0)
(-0.234395 0.0404144 0)
(-0.284409 0.0415905 0)
(-0.335473 0.0421325 0)
(-0.386905 0.0421741 0)
(-0.438157 0.0418232 0)
(-0.488796 0.041165 0)
(-0.538475 0.0402651 0)
(-0.586916 0.0391736 0)
(-0.633893 0.0379275 0)
(-0.679222 0.0365541 0)
(-0.722743 0.0350729 0)
(-0.764323 0.0334976 0)
(-0.803839 0.0318379 0)
(-0.841184 0.0301005 0)
(-0.876253 0.02829 0)
(-0.90895 0.0264097 0)
(-0.93918 0.0244621 0)
(-0.966855 0.0224489 0)
(-0.991888 0.0203722 0)
(-1.01419 0.0182334 0)
(-1.03369 0.0160341 0)
(-1.05029 0.0137761 0)
(-1.06393 0.0114613 0)
(-1.07452 0.00909118 0)
(-1.08199 0.0066679 0)
(-1.08628 0.00419338 0)
(-1.08732 0.00166945 0)
(-1.08504 -0.000901898 0)
(-1.07938 -0.00351862 0)
(-1.07029 -0.00617884 0)
(-1.0577 -0.0088807 0)
(-1.04157 -0.0116221 0)
(-1.02184 -0.0144012 0)
(-0.99847 -0.0172159 0)
(-0.971413 -0.0200641 0)
(-0.940634 -0.0229437 0)
(-0.906088 -0.0258523 0)
(-0.867742 -0.0287876 0)
(-0.825576 -0.0317468 0)
(-0.779555 -0.0347269 0)
(-0.729675 -0.037725 0)
(-0.67589 -0.0407376 0)
(-0.618218 -0.0437609 0)
(-0.556636 -0.0467907 0)
(-0.491158 -0.0498226 0)
(-0.42178 -0.0528516 0)
(-0.348519 -0.0558722 0)
(-0.271403 -0.0588787 0)
(-0.190463 -0.0618648 0)
(-0.105732 -0.0648238 0)
(-0.0172656 -0.0677481 0)
(0.07488 -0.0706301 0)
(0.170638 -0.0734616 0)
(0.269915 -0.076234 0)
(0.372634 -0.0789383 0)
(0.47868 -0.0815647 0)
(0.587942 -0.0841036 0)
(0.700287 -0.0865444 0)
(0.815573 -0.0888768 0)
(0.933638 -0.09109 0)
(1.05432 -0.0931733 0)
(1.17743 -0.0951153 0)
(1.30276 -0.096905 0)
(1.43012 -0.0985311 0)
(1.55926 -0.0999828 0)
(1.68995 -0.101249 0)
(1.82195 -0.102319 0)
(1.95497 -0.103182 0)
(2.08875 -0.103828 0)
(2.223 -0.104248 0)
(2.35741 -0.104432 0)
(2.49166 -0.104372 0)
(2.62545 -0.104059 0)
(2.75845 -0.103487 0)
(2.89031 -0.102649 0)
(3.02069 -0.101539 0)
(3.14924 -0.100153 0)
(3.27562 -0.0984869 0)
(3.39946 -0.0965379 0)
(3.5204 -0.0943042 0)
(3.63809 -0.0917852 0)
(3.75218 -0.0889814 0)
(3.86231 -0.0858947 0)
(3.96812 -0.0825278 0)
(4.06928 -0.0788849 0)
(4.16545 -0.0749713 0)
(4.2563 -0.0707937 0)
(4.34152 -0.0663598 0)
(4.4208 -0.061679 0)
(4.49384 -0.0567613 0)
(4.56036 -0.0516186 0)
(4.62011 -0.0462636 0)
(4.67285 -0.0407103 0)
(4.71834 -0.0349739 0)
(4.75638 -0.0290706 0)
(4.78679 -0.0230179 0)
(4.80941 -0.0168343 0)
(4.82409 -0.0105388 0)
(4.83073 -0.00415203 0)
(4.82924 0.00230506 0)
(4.81956 0.00881061 0)
(4.80167 0.015342 0)
(4.77554 0.0218762 0)
(4.74121 0.0283896 0)
(4.69872 0.034858 0)
(4.64818 0.0412574 0)
(4.58967 0.0475634 0)
(4.52335 0.0537513 0)
(4.44939 0.059797 0)
(4.36798 0.0656763 0)
(4.27935 0.0713654 0)
(4.18376 0.0768412 0)
(4.08149 0.0820814 0)
(3.97286 0.0870636 0)
(3.85819 0.0917677 0)
(3.73784 0.0961731 0)
(3.61221 0.100262 0)
(3.48168 0.104017 0)
(3.34669 0.107423 0)
(3.20767 0.110465 0)
(3.06509 0.113132 0)
(2.91939 0.115413 0)
(2.77108 0.1173 0)
(2.62063 0.118786 0)
(2.46854 0.119867 0)
(2.31532 0.120542 0)
(2.16145 0.12081 0)
(2.00744 0.120674 0)
(1.85379 0.120139 0)
(1.70098 0.119211 0)
(1.54949 0.1179 0)
(1.39979 0.116216 0)
(1.25233 0.114174 0)
(1.10754 0.111789 0)
(0.965842 0.109077 0)
(0.827635 0.106058 0)
(0.693291 0.102751 0)
(0.563147 0.0991788 0)
(0.437534 0.0953642 0)
(0.316745 0.091331 0)
(0.201034 0.0871041 0)
(0.0906468 0.0827088 0)
(-0.0142301 0.0781709 0)
(-0.113409 0.0735167 0)
(-0.206764 0.0687718 0)
(-0.294183 0.0639624 0)
(-0.375586 0.0591135 0)
(-0.450924 0.05425 0)
(-0.520191 0.0493958 0)
(-0.583395 0.0445738 0)
(-0.640575 0.0398058 0)
(-0.691801 0.0351123 0)
(-0.73717 0.0305123 0)
(-0.776791 0.0260231 0)
(-0.810792 0.0216606 0)
(-0.839347 0.0174387 0)
(-0.862614 0.0133693 0)
(-0.880785 0.00946267 0)
(-0.894061 0.00572673 0)
(-0.902646 0.00216743 0)
(-0.906755 -0.00121119 0)
(-0.90661 -0.00440755 0)
(-0.902439 -0.00742175 0)
(-0.894455 -0.0102563 0)
(-0.882882 -0.0129153 0)
(-0.867932 -0.015405 0)
(-0.849812 -0.0177333 0)
(-0.828719 -0.0199095 0)
(-0.80484 -0.0219438 0)
(-0.778351 -0.0238475 0)
(-0.749409 -0.0256321 0)
(-0.718168 -0.0273086 0)
(-0.684764 -0.0288867 0)
(-0.649328 -0.0303738 0)
(-0.611985 -0.0317741 0)
(-0.572857 -0.0330866 0)
(-0.532073 -0.0343031 0)
(-0.489782 -0.0354069 0)
(-0.446162 -0.0363691 0)
(-0.40143 -0.0371468 0)
(-0.355867 -0.0376787 0)
(-0.309843 -0.0378823 0)
(-0.26383 -0.0376506 0)
(-0.21844 -0.0368487 0)
(-0.174448 -0.0353141 0)
(-0.132813 -0.0328605 0)
(-0.0946856 -0.0292931 0)
(-0.0613883 -0.0244465 0)
(-0.034324 -0.0182684 0)
(-0.0147822 -0.0109908 0)
(-0.00356568 -0.00355201 0)
(0.000174164 0.00123972 0)
(-0.000935848 0.00125692 0)
(-0.0113735 0.0151185 0)
(-0.0334302 0.0334398 0)
(-0.0678391 0.0514221 0)
(-0.113317 0.0671303 0)
(-0.168242 0.0799279 0)
(-0.230796 0.0897922 0)
(-0.299182 0.0969859 0)
(-0.37176 0.101878 0)
(-0.447099 0.104851 0)
(-0.523988 0.106258 0)
(-0.601422 0.106404 0)
(-0.678579 0.105543 0)
(-0.754786 0.10388 0)
(-0.8295 0.101575 0)
(-0.902274 0.0987536 0)
(-0.972738 0.095509 0)
(-1.04059 0.0919114 0)
(-1.10555 0.0880118 0)
(-1.1674 0.083847 0)
(-1.22594 0.0794432 0)
(-1.28096 0.0748187 0)
(-1.33229 0.0699869 0)
(-1.37977 0.0649579 0)
(-1.42323 0.0597379 0)
(-1.46252 0.0543332 0)
(-1.49749 0.0487495 0)
(-1.52799 0.0429916 0)
(-1.55388 0.0370642 0)
(-1.57503 0.030972 0)
(-1.5913 0.0247208 0)
(-1.60255 0.0183165 0)
(-1.60868 0.0117632 0)
(-1.60956 0.00506763 0)
(-1.60508 -0.0017643 0)
(-1.59512 -0.00872708 0)
(-1.5796 -0.0158143 0)
(-1.5584 -0.023021 0)
(-1.53143 -0.0303395 0)
(-1.49862 -0.0377646 0)
(-1.45988 -0.0452895 0)
(-1.41514 -0.0529083 0)
(-1.36432 -0.0606144 0)
(-1.30737 -0.0683993 0)
(-1.24423 -0.0762575 0)
(-1.17485 -0.0841804 0)
(-1.09919 -0.0921598 0)
(-1.01723 -0.100186 0)
(-0.928926 -0.10825 0)
(-0.834277 -0.11634 0)
(-0.733263 -0.124446 0)
(-0.625918 -0.132556 0)
(-0.512226 -0.140656 0)
(-0.392236 -0.148731 0)
(-0.265983 -0.156766 0)
(-0.133528 -0.164744 0)
(0.00506982 -0.172648 0)
(0.149724 -0.180457 0)
(0.300325 -0.188153 0)
(0.456765 -0.195713 0)
(0.618899 -0.203115 0)
(0.786572 -0.210335 0)
(0.959624 -0.217348 0)
(1.13785 -0.22413 0)
(1.32104 -0.230652 0)
(1.50895 -0.236889 0)
(1.70133 -0.242812 0)
(1.8979 -0.248393 0)
(2.09837 -0.253604 0)
(2.3024 -0.258415 0)
(2.50967 -0.262798 0)
(2.7198 -0.266724 0)
(2.9324 -0.270165 0)
(3.14708 -0.273093 0)
(3.3634 -0.275482 0)
(3.58093 -0.277305 0)
(3.79919 -0.278538 0)
(4.01771 -0.279156 0)
(4.236 -0.279138 0)
(4.45355 -0.278463 0)
(4.66981 -0.277112 0)
(4.88429 -0.27507 0)
(5.09644 -0.272321 0)
(5.30567 -0.268854 0)
(5.51145 -0.264658 0)
(5.71321 -0.259727 0)
(5.9104 -0.254056 0)
(6.10248 -0.247644 0)
(6.28884 -0.240493 0)
(6.46897 -0.232605 0)
(6.64227 -0.223989 0)
(6.80828 -0.214656 0)
(6.96643 -0.204618 0)
(7.1162 -0.193892 0)
(7.25711 -0.182499 0)
(7.38867 -0.17046 0)
(7.51045 -0.157803 0)
(7.62198 -0.144556 0)
(7.7229 -0.130751 0)
(7.8128 -0.116424 0)
(7.89131 -0.101612 0)
(7.95816 -0.0863558 0)
(8.013 -0.0706986 0)
(8.05563 -0.0546863 0)
(8.0858 -0.0383672 0)
(8.10334 -0.021791 0)
(8.1081 -0.0050106 0)
(8.09998 0.0119201 0)
(8.07892 0.0289446 0)
(8.04491 0.0460063 0)
(7.99792 0.0630464 0)
(7.93809 0.0800054 0)
(7.8655 0.0968227 0)
(7.78028 0.113439 0)
(7.68265 0.129791 0)
(7.57283 0.14582 0)
(7.45109 0.161465 0)
(7.3178 0.176666 0)
(7.17327 0.191365 0)
(7.01796 0.205505 0)
(6.85227 0.21903 0)
(6.67672 0.231887 0)
(6.49181 0.244024 0)
(6.2981 0.255393 0)
(6.09618 0.26595 0)
(5.88667 0.275652 0)
(5.6702 0.284461 0)
(5.44747 0.292342 0)
(5.21916 0.299266 0)
(4.98598 0.305208 0)
(4.74866 0.310147 0)
(4.50796 0.314066 0)
(4.26462 0.316955 0)
(4.0194 0.31881 0)
(3.77305 0.31963 0)
(3.52635 0.319422 0)
(3.28003 0.318195 0)
(3.03486 0.315966 0)
(2.79156 0.312759 0)
(2.55085 0.308598 0)
(2.31341 0.303517 0)
(2.07993 0.297552 0)
(1.85105 0.290745 0)
(1.62737 0.283142 0)
(1.40948 0.274793 0)
(1.19794 0.265751 0)
(0.993243 0.256072 0)
(0.795854 0.245817 0)
(0.606195 0.235045 0)
(0.424646 0.223821 0)
(0.251542 0.212208 0)
(0.087168 0.200272 0)
(-0.0682335 0.188079 0)
(-0.214482 0.175692 0)
(-0.351406 0.163177 0)
(-0.478942 0.150597 0)
(-0.597007 0.138011 0)
(-0.705606 0.12548 0)
(-0.804774 0.113059 0)
(-0.894589 0.100803 0)
(-0.975157 0.0887589 0)
(-1.04663 0.0769742 0)
(-1.10921 0.0654903 0)
(-1.16308 0.0543449 0)
(-1.20851 0.0435701 0)
(-1.24576 0.0331942 0)
(-1.27512 0.0232398 0)
(-1.2969 0.0137243 0)
(-1.31141 0.00466028 0)
(-1.31897 -0.00394531 0)
(-1.31993 -0.0120906 0)
(-1.31462 -0.0197791 0)
(-1.30338 -0.0270186 0)
(-1.28653 -0.0338223 0)
(-1.26438 -0.0402079 0)
(-1.23727 -0.0461955 0)
(-1.20547 -0.051808 0)
(-1.16927 -0.0570715 0)
(-1.12894 -0.0620119 0)
(-1.08471 -0.0666527 0)
(-1.03683 -0.0710162 0)
(-0.985525 -0.0751175 0)
(-0.931005 -0.0789623 0)
(-0.8735 -0.0825458 0)
(-0.813241 -0.0858426 0)
(-0.750488 -0.088808 0)
(-0.685554 -0.0913688 0)
(-0.618806 -0.0934159 0)
(-0.550705 -0.0947997 0)
(-0.481837 -0.0953218 0)
(-0.41293 -0.0947303 0)
(-0.344896 -0.0927166 0)
(-0.278859 -0.0889195 0)
(-0.216168 -0.0829428 0)
(-0.158395 -0.0743965 0)
(-0.10729 -0.0629848 0)
(-0.0646481 -0.0486772 0)
(-0.0321155 -0.0320203 0)
(-0.0110591 -0.0147885 0)
(-0.000939765 -0.00147008 0)
(-0.0020214 0.00786329 0)
(-0.019208 0.0356447 0)
(-0.0514296 0.0678537 0)
(-0.0987975 0.0987743 0)
(-0.159229 0.125811 0)
(-0.23074 0.148007 0)
(-0.311233 0.16528 0)
(-0.398633 0.177999 0)
(-0.491024 0.186724 0)
(-0.586707 0.192063 0)
(-0.684215 0.194597 0)
(-0.782311 0.194836 0)
(-0.879958 0.193218 0)
(-0.976297 0.190098 0)
(-1.07062 0.185763 0)
(-1.16233 0.180435 0)
(-1.25093 0.174283 0)
(-1.336 0.167439 0)
(-1.41717 0.159996 0)
(-1.49411 0.152023 0)
(-1.56655 0.143573 0)
(-1.63418 0.134678 0)
(-1.69678 0.125368 0)
(-1.7541 0.115659 0)
(-1.8059 0.105568 0)
(-1.85196 0.0951072 0)
(-1.89207 0.0842872 0)
(-1.92602 0.0731181 0)
(-1.95361 0.0616086 0)
(-1.97464 0.0497724 0)
(-1.98892 0.0376181 0)
(-1.99627 0.0251576 0)
(-1.9965 0.0124027 0)
(-1.98948 -0.000635087 0)
(-1.97501 -0.0139428 0)
(-1.95295 -0.0275082 0)
(-1.92317 -0.0413179 0)
(-1.88552 -0.0553597 0)
(-1.83987 -0.0696199 0)
(-1.78612 -0.0840858 0)
(-1.72415 -0.098742 0)
(-1.65386 -0.113576 0)
(-1.57516 -0.128571 0)
(-1.48797 -0.143713 0)
(-1.39224 -0.158986 0)
(-1.28789 -0.174372 0)
(-1.17489 -0.189853 0)
(-1.0532 -0.205409 0)
(-0.922813 -0.22102 0)
(-0.783704 -0.236662 0)
(-0.635897 -0.252312 0)
(-0.479417 -0.267944 0)
(-0.314299 -0.28353 0)
(-0.14062 -0.29904 0)
(0.041552 -0.314443 0)
(0.232115 -0.329704 0)
(0.430941 -0.344787 0)
(0.637899 -0.359654 0)
(0.852808 -0.374264 0)
(1.07549 -0.388575 0)
(1.30572 -0.402543 0)
(1.54325 -0.41612 0)
(1.78782 -0.429259 0)
(2.03914 -0.441911 0)
(2.29687 -0.454023 0)
(2.56068 -0.465544 0)
(2.83015 -0.476421 0)
(3.10491 -0.486601 0)
(3.3845 -0.496029 0)
(3.66845 -0.504651 0)
(3.95629 -0.512413 0)
(4.24747 -0.519264 0)
(4.54144 -0.525149 0)
(4.83763 -0.53002 0)
(5.13545 -0.533827 0)
(5.43426 -0.536524 0)
(5.73343 -0.538065 0)
(6.03229 -0.53841 0)
(6.33015 -0.53752 0)
(6.6263 -0.535359 0)
(6.92005 -0.531897 0)
(7.21067 -0.527106 0)
(7.49742 -0.520964 0)
(7.77957 -0.513452 0)
(8.05636 -0.504556 0)
(8.32706 -0.494268 0)
(8.59091 -0.482584 0)
(8.84718 -0.469507 0)
(9.09513 -0.455045 0)
(9.33407 -0.439209 0)
(9.56321 -0.422019 0)
(9.78197 -0.4035 0)
(9.98964 -0.383681 0)
(10.1855 -0.362598 0)
(10.369 -0.340294 0)
(10.5395 -0.316815 0)
(10.6965 -0.292214 0)
(10.8395 -0.266549 0)
(10.9678 -0.239883 0)
(11.0811 -0.212285 0)
(11.1789 -0.183829 0)
(11.2609 -0.154592 0)
(11.3267 -0.124658 0)
(11.3761 -0.0941118 0)
(11.4088 -0.0630454 0)
(11.4245 -0.0315527 0)
(11.4232 0.000268574 0)
(11.4048 0.0323174 0)
(11.3691 0.0644913 0)
(11.3164 0.0966849 0)
(11.2465 0.12879 0)
(11.1596 0.1607 0)
(11.056 0.192304 0)
(10.9357 0.223492 0)
(10.7992 0.254154 0)
(10.6467 0.284181 0)
(10.4786 0.313464 0)
(10.2954 0.341897 0)
(10.0975 0.369374 0)
(9.88558 0.395794 0)
(9.66011 0.421058 0)
(9.42177 0.445068 0)
(9.17123 0.467736 0)
(8.90919 0.488975 0)
(8.63644 0.508704 0)
(8.35378 0.52685 0)
(8.06201 0.543343 0)
(7.76202 0.558123 0)
(7.45469 0.571138 0)
(7.14093 0.582339 0)
(6.82167 0.591692 0)
(6.49787 0.599164 0)
(6.17048 0.604743 0)
(5.84047 0.608413 0)
(5.50882 0.610175 0)
(5.1765 0.610037 0)
(4.84447 0.60802 0)
(4.51368 0.604151 0)
(4.18508 0.598468 0)
(3.8596 0.59102 0)
(3.53812 0.581858 0)
(3.22151 0.571055 0)
(2.91063 0.558676 0)
(2.60626 0.544808 0)
(2.30918 0.529538 0)
(2.0201 0.512959 0)
(1.73968 0.495174 0)
(1.46858 0.476289 0)
(1.20733 0.456414 0)
(0.956477 0.435663 0)
(0.716459 0.414152 0)
(0.487695 0.392001 0)
(0.270521 0.369326 0)
(0.0652243 0.346248 0)
(-0.127976 0.322883 0)
(-0.30891 0.29935 0)
(-0.477473 0.27576 0)
(-0.633611 0.252222 0)
(-0.777334 0.228842 0)
(-0.908705 0.20572 0)
(-1.02783 0.182949 0)
(-1.13487 0.160617 0)
(-1.23004 0.138802 0)
(-1.31358 0.117578 0)
(-1.38576 0.0970086 0)
(-1.44693 0.0771479 0)
(-1.49741 0.0580421 0)
(-1.53759 0.0397271 0)
(-1.56787 0.0222311 0)
(-1.58864 0.00557096 0)
(-1.60033 -0.0102461 0)
(-1.60337 -0.0252216 0)
(-1.59819 -0.0393658 0)
(-1.5852 -0.0526986 0)
(-1.56484 -0.0652457 0)
(-1.5375 -0.0770424 0)
(-1.50357 -0.0881257 0)
(-1.46345 -0.0985385 0)
(-1.41747 -0.108322 0)
(-1.36599 -0.117517 0)
(-1.30935 -0.126157 0)
(-1.24785 -0.134265 0)
(-1.18183 -0.141848 0)
(-1.11158 -0.14889 0)
(-1.03747 -0.155343 0)
(-0.959873 -0.161123 0)
(-0.87921 -0.166092 0)
(-0.795999 -0.170059 0)
(-0.710861 -0.172755 0)
(-0.624556 -0.173836 0)
(-0.538014 -0.17287 0)
(-0.452371 -0.169339 0)
(-0.368994 -0.16265 0)
(-0.289489 -0.15217 0)
(-0.215695 -0.137301 0)
(-0.149631 -0.117616 0)
(-0.0933686 -0.0931068 0)
(-0.0489139 -0.0645861 0)
(-0.0184162 -0.0344117 0)
(-0.00196471 -0.00788467 0)
(-0.00291013 0.0180581 0)
(-0.0259933 0.0643726 0)
(-0.0672111 0.113376 0)
(-0.125979 0.159236 0)
(-0.199321 0.199102 0)
(-0.284831 0.231878 0)
(-0.380144 0.25749 0)
(-0.482967 0.276434 0)
(-0.591191 0.289472 0)
(-0.702936 0.297442 0)
(-0.81656 0.301162 0)
(-0.930659 0.301366 0)
(-1.04404 0.298687 0)
(-1.15569 0.293652 0)
(-1.26478 0.286683 0)
(-1.37059 0.278119 0)
(-1.4725 0.268219 0)
(-1.56999 0.257181 0)
(-1.6626 0.245152 0)
(-1.74991 0.232242 0)
(-1.83155 0.21853 0)
(-1.90717 0.204075 0)
(-1.97642 0.188919 0)
(-2.039 0.173094 0)
(-2.09462 0.156625 0)
(-2.14297 0.139532 0)
(-2.18378 0.121837 0)
(-2.21676 0.103554 0)
(-2.24167 0.0847025 0)
(-2.25825 0.0653003 0)
(-2.26622 0.0453677 0)
(-2.26539 0.0249218 0)
(-2.2555 0.00398482 0)
(-2.23634 -0.0174229 0)
(-2.20772 -0.03928 0)
(-2.16941 -0.0615633 0)
(-2.12126 -0.0842496 0)
(-2.06307 -0.107317 0)
(-1.99471 -0.130742 0)
(-1.91601 -0.154497 0)
(-1.82685 -0.17856 0)
(-1.7271 -0.202904 0)
(-1.61667 -0.227502 0)
(-1.49544 -0.252325 0)
(-1.36337 -0.277345 0)
(-1.22038 -0.302529 0)
(-1.06644 -0.327845 0)
(-0.901508 -0.353257 0)
(-0.725597 -0.378729 0)
(-0.538711 -0.40422 0)
(-0.340891 -0.429687 0)
(-0.132191 -0.455086 0)
(0.0873101 -0.480368 0)
(0.317482 -0.50548 0)
(0.558235 -0.53037 0)
(0.809388 -0.554978 0)
(1.07074 -0.579243 0)
(1.34211 -0.603101 0)
(1.62322 -0.626483 0)
(1.91381 -0.649319 0)
(2.21357 -0.671535 0)
(2.52215 -0.693054 0)
(2.83917 -0.713799 0)
(3.16422 -0.733688 0)
(3.49686 -0.752635 0)
(3.83661 -0.770561 0)
(4.18293 -0.787379 0)
(4.53528 -0.803002 0)
(4.89309 -0.817345 0)
(5.25573 -0.830321 0)
(5.62251 -0.84185 0)
(5.99279 -0.851846 0)
(6.36584 -0.860232 0)
(6.74089 -0.866926 0)
(7.11719 -0.871856 0)
(7.49394 -0.87495 0)
(7.87027 -0.876145 0)
(8.24538 -0.875374 0)
(8.61843 -0.872586 0)
(8.98846 -0.86773 0)
(9.35462 -0.860761 0)
(9.71604 -0.851644 0)
(10.0718 -0.840349 0)
(10.4209 -0.826853 0)
(10.7625 -0.811143 0)
(11.0958 -0.793212 0)
(11.4197 -0.773064 0)
(11.7335 -0.750709 0)
(12.0361 -0.726167 0)
(12.3268 -0.699467 0)
(12.6048 -0.670646 0)
(12.8691 -0.63975 0)
(13.1191 -0.606835 0)
(13.354 -0.571964 0)
(13.573 -0.535211 0)
(13.7755 -0.496656 0)
(13.961 -0.456389 0)
(14.1285 -0.414506 0)
(14.2778 -0.371113 0)
(14.4082 -0.326323 0)
(14.5194 -0.280254 0)
(14.6109 -0.233033 0)
(14.6824 -0.184793 0)
(14.7336 -0.135671 0)
(14.7642 -0.0858126 0)
(14.774 -0.035365 0)
(14.763 0.0155175 0)
(14.7311 0.0666793 0)
(14.6782 0.117959 0)
(14.6045 0.169193 0)
(14.5101 0.220217 0)
(14.3951 0.270864 0)
(14.2599 0.320966 0)
(14.1046 0.370356 0)
(13.9297 0.418864 0)
(13.7357 0.46633 0)
(13.5229 0.512581 0)
(13.292 0.557461 0)
(13.0435 0.600811 0)
(12.7781 0.642477 0)
(12.4965 0.68231 0)
(12.1996 0.720164 0)
(11.888 0.755905 0)
(11.5626 0.789403 0)
(11.2244 0.820541 0)
(10.8742 0.8492 0)
(10.5132 0.875281 0)
(10.1422 0.898692 0)
(9.76227 0.919351 0)
(9.37457 0.937192 0)
(8.98014 0.952154 0)
(8.5801 0.964198 0)
(8.17557 0.973292 0)
(7.76768 0.979419 0)
(7.35758 0.982574 0)
(6.94639 0.982775 0)
(6.53527 0.980042 0)
(6.12533 0.974422 0)
(5.71768 0.965966 0)
(5.3134 0.954743 0)
(4.91358 0.940836 0)
(4.51923 0.924344 0)
(4.13136 0.905373 0)
(3.75095 0.884046 0)
(3.3789 0.860496 0)
(3.01609 0.834862 0)
(2.66333 0.807298 0)
(2.3214 0.777965 0)
(1.991 0.747029 0)
(1.67279 0.714666 0)
(1.36733 0.681053 0)
(1.07515 0.646367 0)
(0.796709 0.610795 0)
(0.53236 0.574519 0)
(0.282443 0.537722 0)
(0.0471986 0.500584 0)
(-0.173199 0.463282 0)
(-0.378664 0.425987 0)
(-0.569125 0.388865 0)
(-0.744626 0.352074 0)
(-0.905252 0.315763 0)
(-1.05113 0.280071 0)
(-1.18248 0.245128 0)
(-1.29955 0.211052 0)
(-1.40263 0.177944 0)
(-1.49209 0.145899 0)
(-1.56828 0.114993 0)
(-1.63165 0.0852906 0)
(-1.68261 0.0568388 0)
(-1.72166 0.0296718 0)
(-1.74926 0.00380852 0)
(-1.76592 -0.0207471 0)
(-1.77214 -0.0440038 0)
(-1.76842 -0.0659855 0)
(-1.75525 -0.0867263 0)
(-1.73313 -0.106271 0)
(-1.70255 -0.124674 0)
(-1.66395 -0.141991 0)
(-1.61779 -0.158281 0)
(-1.56451 -0.1736 0)
(-1.50452 -0.187993 0)
(-1.43824 -0.201489 0)
(-1.3661 -0.214093 0)
(-1.28848 -0.225774 0)
(-1.20585 -0.236457 0)
(-1.11869 -0.246006 0)
(-1.02755 -0.254216 0)
(-0.933071 -0.260791 0)
(-0.835996 -0.265338 0)
(-0.737227 -0.267351 0)
(-0.637853 -0.266201 0)
(-0.539168 -0.261149 0)
(-0.442703 -0.251359 0)
(-0.350237 -0.235955 0)
(-0.263792 -0.214122 0)
(-0.185589 -0.18528 0)
(-0.11796 -0.149373 0)
(-0.0633157 -0.107304 0)
(-0.0246639 -0.0616187 0)
(-0.00279073 -0.0176532 0)
(-0.00359741 0.0311983 0)
(-0.0314676 0.10006 0)
(-0.0801645 0.168435 0)
(-0.148473 0.230892 0)
(-0.232564 0.284687 0)
(-0.329583 0.328793 0)
(-0.436883 0.36326 0)
(-0.551973 0.388763 0)
(-0.672586 0.406286 0)
(-0.796705 0.416912 0)
(-0.922566 0.421699 0)
(-1.04864 0.421611 0)
(-1.17362 0.417485 0)
(-1.29639 0.410022 0)
(-1.416 0.399797 0)
(-1.53164 0.387264 0)
(-1.64258 0.37278 0)
(-1.74823 0.356621 0)
(-1.84802 0.33899 0)
(-1.94146 0.320041 0)
(-2.0281 0.299887 0)
(-2.10749 0.278613 0)
(-2.17925 0.256278 0)
(-2.24298 0.232931 0)
(-2.2983 0.20861 0)
(-2.34487 0.183345 0)
(-2.38233 0.157165 0)
(-2.41033 0.130098 0)
(-2.42856 0.102172 0)
(-2.43671 0.0734132 0)
(-2.43444 0.043852 0)
(-2.42151 0.0135192 0)
(-2.39759 -0.0175527 0)
(-2.36244 -0.0493303 0)
(-2.3158 -0.0817808 0)
(-2.25743 -0.114868 0)
(-2.18713 -0.148556 0)
(-2.10466 -0.182806 0)
(-2.00985 -0.217579 0)
(-1.90253 -0.252838 0)
(-1.78253 -0.288539 0)
(-1.64972 -0.324642 0)
(-1.504 -0.361102 0)
(-1.34525 -0.397874 0)
(-1.17341 -0.434909 0)
(-0.988409 -0.472155 0)
(-0.790229 -0.509561 0)
(-0.578858 -0.547069 0)
(-0.354316 -0.58462 0)
(-0.11665 -0.622151 0)
(0.134082 -0.659595 0)
(0.397762 -0.696877 0)
(0.674271 -0.733923 0)
(0.963445 -0.770655 0)
(1.2651 -0.806987 0)
(1.57898 -0.84283 0)
(1.90485 -0.878091 0)
(2.24238 -0.912669 0)
(2.59126 -0.946466 0)
(2.9511 -0.979371 0)
(3.32148 -1.01128 0)
(3.70194 -1.04207 0)
(4.092 -1.07163 0)
(4.49112 -1.09984 0)
(4.89867 -1.12658 0)
(5.31407 -1.15172 0)
(5.7367 -1.17515 0)
(6.16575 -1.19674 0)
(6.60054 -1.21636 0)
(7.04032 -1.23391 0)
(7.48418 -1.24924 0)
(7.93131 -1.26226 0)
(8.38085 -1.27285 0)
(8.83185 -1.2809 0)
(9.28339 -1.28631 0)
(9.73445 -1.28898 0)
(10.1841 -1.28883 0)
(10.6312 -1.28578 0)
(11.0749 -1.27974 0)
(11.5139 -1.27067 0)
(11.9474 -1.2585 0)
(12.3742 -1.2432 0)
(12.7932 -1.22473 0)
(13.2035 -1.20307 0)
(13.6038 -1.17821 0)
(13.9933 -1.15016 0)
(14.3709 -1.11893 0)
(14.7354 -1.08454 0)
(15.0861 -1.04704 0)
(15.4218 -1.00647 0)
(15.7417 -0.962916 0)
(16.0448 -0.916439 0)
(16.3303 -0.867131 0)
(16.5974 -0.815097 0)
(16.8453 -0.760446 0)
(17.0733 -0.703305 0)
(17.2806 -0.64381 0)
(17.4667 -0.582106 0)
(17.631 -0.51835 0)
(17.7728 -0.452708 0)
(17.892 -0.385356 0)
(17.9879 -0.316476 0)
(18.0602 -0.246261 0)
(18.1088 -0.17491 0)
(18.1334 -0.102626 0)
(18.1338 -0.0296241 0)
(18.11 0.043882 0)
(18.0619 0.11767 0)
(17.9898 0.191516 0)
(17.8935 0.265192 0)
(17.7734 0.338467 0)
(17.6296 0.411113 0)
(17.4626 0.482894 0)
(17.2727 0.553581 0)
(17.0604 0.622948 0)
(16.8262 0.690762 0)
(16.5707 0.756801 0)
(16.2944 0.820842 0)
(15.9982 0.882673 0)
(15.6827 0.942081 0)
(15.3488 0.998866 0)
(14.9973 1.05283 0)
(14.6292 1.1038 0)
(14.2455 1.15158 0)
(13.8471 1.19603 0)
(13.435 1.23697 0)
(13.0104 1.27428 0)
(12.5744 1.30783 0)
(12.1282 1.33752 0)
(11.673 1.36323 0)
(11.2099 1.38491 0)
(10.7401 1.40247 0)
(10.265 1.4159 0)
(9.78588 1.42515 0)
(9.30387 1.43022 0)
(8.82029 1.43113 0)
(8.33641 1.4279 0)
(7.85349 1.4206 0)
(7.37277 1.4093 0)
(6.89547 1.39407 0)
(6.42279 1.37505 0)
(5.95591 1.35234 0)
(5.49595 1.32611 0)
(5.04403 1.2965 0)
(4.60118 1.26371 0)
(4.16843 1.22791 0)
(3.7467 1.18933 0)
(3.33691 1.14818 0)
(2.93989 1.10468 0)
(2.5564 1.05908 0)
(2.18715 1.01162 0)
(1.83276 0.962551 0)
(1.4938 0.912124 0)
(1.17074 0.860598 0)
(0.863991 0.80823 0)
(0.573883 0.75527 0)
(0.300683 0.701969 0)
(0.0445525 0.648569 0)
(-0.194389 0.595306 0)
(-0.416125 0.542407 0)
(-0.620686 0.490085 0)
(-0.808191 0.438544 0)
(-0.978803 0.38797 0)
(-1.13277 0.338537 0)
(-1.27037 0.290398 0)
(-1.39198 0.243692 0)
(-1.49795 0.198535 0)
(-1.58875 0.155027 0)
(-1.66484 0.113245 0)
(-1.72672 0.0732462 0)
(-1.77493 0.0350677 0)
(-1.80999 -0.00127543 0)
(-1.83248 -0.0357859 0)
(-1.84296 -0.0684872 0)
(-1.84198 -0.0994164 0)
(-1.83011 -0.128627 0)
(-1.8079 -0.156185 0)
(-1.77589 -0.182159 0)
(-1.73462 -0.206625 0)
(-1.6846 -0.229651 0)
(-1.62632 -0.25129 0)
(-1.5603 -0.271576 0)
(-1.48704 -0.290508 0)
(-1.40704 -0.308037 0)
(-1.32085 -0.324057 0)
(-1.22904 -0.338381 0)
(-1.13228 -0.350719 0)
(-1.0313 -0.36068 0)
(-0.926968 -0.367732 0)
(-0.820283 -0.371198 0)
(-0.71245 -0.370256 0)
(-0.604877 -0.363938 0)
(-0.499212 -0.351163 0)
(-0.397356 -0.330803 0)
(-0.301471 -0.301806 0)
(-0.213961 -0.263387 0)
(-0.137416 -0.215336 0)
(-0.0746659 -0.158436 0)
(-0.0295253 -0.0950711 0)
(-0.0034102 -0.0301076 0)
(-0.00410581 0.0466226 0)
(-0.0356698 0.141327 0)
(-0.0902872 0.231282 0)
(-0.166233 0.311735 0)
(-0.258936 0.380306 0)
(-0.365112 0.436231 0)
(-0.481829 0.479802 0)
(-0.606396 0.511944 0)
(-0.736403 0.5339 0)
(-0.869721 0.547015 0)
(-1.00449 0.552596 0)
(-1.13908 0.551841 0)
(-1.27211 0.545792 0)
(-1.40237 0.535332 0)
(-1.52882 0.521183 0)
(-1.65056 0.503926 0)
(-1.76681 0.484017 0)
(-1.87687 0.461808 0)
(-1.98011 0.437566 0)
(-2.07595 0.411489 0)
(-2.16385 0.383728 0)
(-2.24332 0.354394 0)
(-2.31387 0.323567 0)
(-2.37505 0.291313 0)
(-2.42643 0.257684 0)
(-2.46755 0.222723 0)
(-2.49802 0.186472 0)
(-2.51742 0.148968 0)
(-2.52538 0.110251 0)
(-2.52151 0.0703624 0)
(-2.50545 0.0293451 0)
(-2.47685 -0.0127574 0)
(-2.43538 -0.0558979 0)
(-2.38072 -0.100027 0)
(-2.31259 -0.145096 0)
(-2.2307 -0.19105 0)
(-2.13479 -0.237836 0)
(-2.02462 -0.285397 0)
(-1.89999 -0.333676 0)
(-1.76069 -0.382615 0)
(-1.60655 -0.432151 0)
(-1.43743 -0.482218 0)
(-1.25319 -0.532751 0)
(-1.05376 -0.58368 0)
(-0.839043 -0.63494 0)
(-0.609012 -0.686443 0)
(-0.363649 -0.738119 0)
(-0.102981 -0.789875 0)
(0.17296 -0.841628 0)
(0.464076 -0.893284 0)
(0.770254 -0.944741 0)
(1.09134 -0.995899 0)
(1.42714 -1.04664 0)
(1.77744 -1.09686 0)
(2.14195 -1.14643 0)
(2.52036 -1.19522 0)
(2.91235 -1.2431 0)
(3.31747 -1.28993 0)
(3.73531 -1.33556 0)
(4.16533 -1.37985 0)
(4.60706 -1.42264 0)
(5.05987 -1.46378 0)
(5.52319 -1.5031 0)
(5.99627 -1.54045 0)
(6.47841 -1.57564 0)
(6.96885 -1.60853 0)
(7.46675 -1.63893 0)
(7.97127 -1.66669 0)
(8.48149 -1.69165 0)
(8.99645 -1.71363 0)
(9.51521 -1.73249 0)
(10.0367 -1.74808 0)
(10.5598 -1.76025 0)
(11.0836 -1.76885 0)
(11.6069 -1.77377 0)
(12.1284 -1.77488 0)
(12.6472 -1.77207 0)
(13.1619 -1.76525 0)
(13.6714 -1.75434 0)
(14.1745 -1.73925 0)
(14.67 -1.71993 0)
(15.1567 -1.69633 0)
(15.6333 -1.66844 0)
(16.0988 -1.63623 0)
(16.5518 -1.59971 0)