/*--------------------------------*- C++ -*----------------------------------*\
  =========                 |
  \\      /  F ield         | OpenFOAM: The Open Source CFD Toolbox
   \\    /   O peration     | Website:  https://openfoam.org
    \\  /    A nd           | Version:  6
     \\/     M anipulation  |
\*---------------------------------------------------------------------------*/
FoamFile
{
    version     2.0;
    format      ascii;
    class       volVectorField;
    location    "0";
    object      U_rec;
}
// * * * * * * * * * * * * * * * * * * * * * * * * * * * * * * * * * * * * * //

dimensions      [0 1 -1 0 0 0 0];

internalField   nonuniform List<vector> 
918
(
(0.984146 -0.00476319 0)
(-0.00384737 2.98366 0)
(-0.0148569 1.69624 0)
(0.976418 0.0075462 0)
(-0.00416661 1.65676 5.79139e-17)
(0.000430098 2.97374 -4.23312e-17)
(0.945953 1.43562 8.52192e-19)
(0.470947 0.238506 1.66604e-19)
(0.994123 -0.000284193 0)
(0.0195737 1.52662 0)
(-0.00189269 1.55525 0)
(0.88619 -0.00277599 0)
(2.74487e-05 2.9855 0)
(0.00499002 2.89378 0)
(0.000691046 2.89918 1.36754e-17)
(-0.00703742 1.62168 3.43889e-17)
(0.643077 0.132122 6.10907e-18)
(0.177406 1.58299 -4.01543e-17)
(0.982137 0.00697854 0)
(0.00545912 1.62363 0)
(-0.0122838 0.0107838 1.9679e-18)
(0.984299 0.00875629 0)
(1.00294 0.0104821 0)
(1.01508 0.000261003 0)
(0.801926 -0.000976761 0)
(0.0179732 2.93218 0)
(-0.00901331 2.94259 -8.91818e-17)
(-0.0121743 1.72287 0)
(0.00199718 1.76507 0)
(-0.00803204 1.71972 0)
(-0.00931468 1.78898 0)
(-0.0111083 1.66844 5.78776e-17)
(-0.00717011 1.62673 0)
(-0.0056906 3.00904 7.93478e-23)
(0.00337878 3.0206 -4.59383e-17)
(0.0199434 3.00345 0)
(0.930279 -0.00405516 0)
(0.595353 1.10526 -9.41368e-18)
(0.968868 1.4407 -5.0413e-18)
(1.08446 1.27789 2.07077e-17)
(0.82258 1.56654 1.04274e-17)
(0.78998 1.54707 1.16766e-17)
(0.49095 0.308746 1.40509e-19)
(0.523003 0.229226 0)
(1.27556 0.681921 0)
(0.419713 0.32023 4.24218e-19)
(0.400619 0.22552 5.41205e-19)
(0.956503 -0.00254546 0)
(0.996494 0.00236774 0)
(0.994261 0.00362269 0)
(0.990008 0.00178035 0)
(0.981674 0.00866451 0)
(0.995212 0.0134162 0)
(0.0342232 1.58308 5.24957e-19)
(0.0111785 1.59764 0)
(0.0244379 1.50818 0)
(0.00393033 1.62985 0)
(0.00853716 1.55906 0)
(-0.00919794 1.65121 0)
(-0.00380484 1.65027 0)
(0.00121101 1.5616 0)
(-0.0129688 1.65856 0)
(-0.00678587 1.56639 0)
(0.958345 0.00197557 0)
(0.931728 0.0110739 0)
(0.902085 0.00140418 0)
(0.921661 0.0124488 0)
(0.873735 -0.00272789 0)
(-0.0227314 3.04008 3.01082e-17)
(0.00233573 2.96959 0)
(-0.0266441 3.00859 0)
(0.0336711 3.03828 -2.52989e-24)
(-0.0002432 3.02903 3.19592e-17)
(0.0161789 3.00892 0)
(0.00177574 2.95725 0)
(0.00497797 2.96819 -2.46621e-24)
(0.0039062 2.90138 0)
(0.00323658 2.97474 0)
(0.00709034 2.8823 0)
(0.270352 3.17815 0)
(-0.0649289 3.26006 0)
(0.0911662 2.95823 1.12296e-17)
(0.00119623 2.80398 0)
(-0.00301543 1.76516 0)
(-0.00329152 1.68784 3.42256e-17)
(-0.00302932 1.62937 3.43557e-17)
(0.680576 0.17036 -6.76214e-18)
(0.671264 0.0982642 3.47835e-19)
(0.639458 0.20587 1.49348e-17)
(0.613417 0.165672 -1.30085e-17)
(0.224415 1.26205 0)
(0.254768 1.64948 -4.32339e-17)
(0.368703 1.61613 -4.14804e-17)
(0.993553 0.00633991 0)
(0.969035 0.00326286 0)
(0.99346 -0.0063134 0)
(1.0009 0.000631881 0)
(1.00488 0.0145283 1.18033e-16)
(1.00574 0.0152858 1.4261e-16)
(-0.00513215 1.68129 0)
(-0.00142302 1.61853 0)
(-0.0067563 1.72244 0)
(-0.0110983 1.69529 0)
(-0.000515777 1.63738 0)
(-0.0370272 0.249752 -1.54592e-18)
(0.174002 0.163191 0)
(1.0148 -0.0154596 0)
(0.983556 -0.00348561 0)
(0.899216 0.0252723 0)
(0.86044 0.0462461 0)
(0.84452 0.00504211 0)
(1.08932 -0.00132134 0)
(0.814707 0.0433022 0)
(0.745499 -0.00602148 3.08853e-17)
(-0.0160171 2.87439 2.74531e-17)
(0.00943149 2.98587 0)
(-0.0486158 3.02628 0)
(0.006195 2.87224 0)
(-0.00714513 2.98463 -3.02279e-17)
(-0.00471912 2.93073 0)
(-0.0131878 2.98861 -2.71391e-17)
(-0.0135305 2.953 2.87922e-17)
(0.00440447 1.77954 0)
(0.000264107 1.77936 0)
(0.000700743 1.68872 -1.33632e-20)
(-0.00358516 1.67892 0)
(-0.00137612 1.62409 0)
(0.964027 0.000116645 0)
(0.929677 -0.0014843 0)
(0.921774 0.00485938 0)
(0.967015 -0.00120297 0)
(0.938665 -0.00176717 0)
(0.645103 1.22717 -7.42619e-18)
(0.732233 1.27104 0)
(0.535236 1.05986 -1.05529e-18)
(0.491882 0.987733 0)
(1.08386 1.28164 1.90562e-17)
(1.18923 1.076 8.29606e-19)
(0.466335 1.67305 0)
(0.666387 1.65313 0)
(0.578601 1.61674 0)
(0.297338 0.579608 -6.81959e-18)
(0.542303 0.289359 0)
(0.561593 0.211975 -3.25047e-18)
(1.16036 1.09865 0)
(1.22207 0.898127 0)
(1.24299 0.867076 -8.29698e-19)
(1.26928 0.711101 0)
(1.2954 0.501358 -2.92462e-17)
(0.973347 0.00218529 0)
(0.976394 -0.00418636 0)
(0.946258 -0.00225797 0)
(0.997793 -0.0077963 0)
(0.988189 -0.00799363 0)
(0.969818 -0.00168836 0)
(0.98834 -0.00393713 0)
(0.987136 -0.000126682 0)
(0.995088 -0.00170799 0)
(0.0363574 1.64714 3.21201e-17)
(0.0406266 1.54554 0)
(0.0338167 1.67761 1.29743e-19)
(0.0227876 1.6124 5.04699e-19)
(0.0903842 1.60198 -4.14398e-17)
(0.0220173 1.57772 0)
(0.055202 1.51667 0)
(0.00208602 1.66502 0)
(0.0122268 1.56463 0)
(-0.00762693 1.70447 9.26659e-21)
(0.00291088 1.65319 0)
(-0.00826374 1.70273 -3.39339e-17)
(0.0030892 1.65144 -3.35669e-19)
(0.00998273 1.66649 0)
(0.00511232 1.65677 0)
(0.0118108 1.56154 0)
(-0.0122025 1.66854 0)
(-0.00697243 1.58552 0)
(1.00041 0.0183331 0)
(0.976449 0.00653935 0)
(0.984586 0.00910778 0)
(0.948623 0.00261638 0)
(0.906913 -0.00496255 0)
(0.948453 0.00185856 0)
(0.941105 0.00935351 0)
(0.903202 -0.000596076 0)
(0.0106471 3.03784 5.30036e-21)
(0.0154087 3.03362 0)
(0.00536288 2.9937 0)
(0.00299377 2.94104 0)
(0.978515 3.6892 0)
(1.35804 2.74079 -2.40324e-18)
(0.00818051 2.87894 0)
(-0.0104221 2.8015 0)
(-0.0058732 1.76895 0)
(-0.00708713 1.76655 0)
(-0.00754404 1.76764 0)
(-0.00525842 1.77994 -7.71292e-17)
(-0.0101395 1.76651 0)
(-0.00278153 1.77249 0)
(0.00232252 1.63557 -6.85839e-17)
(0.00345651 1.69884 -3.44173e-17)
(-0.00603003 1.69509 3.41647e-17)
(-0.000564479 1.63383 0)
(0.712063 0.136584 -1.58074e-17)
(0.70455 0.0691313 -1.46516e-17)
(0.194864 1.36896 0)
(0.275862 1.12738 5.16518e-20)
(0.130751 1.45401 -2.952e-17)
(0.146848 1.38937 -2.97886e-17)
(0.949494 0.00669302 0)
(0.979763 0.00582804 0)
(0.984681 0.00838325 0)
(0.956543 0.00595089 0)
(-0.0115878 1.67552 0)
(-0.00310571 1.6772 0)
(-0.006689 1.60434 0)
(0.342335 0.319717 1.30392e-18)
(0.207224 0.286252 -2.10027e-18)
(0.309693 0.207806 0)
(1.1796 0.102369 -2.10196e-19)
(1.18477 0.0582492 0)
(1.09363 0.0471257 0)
(1.03198 0.00282968 0)
(0.730722 0.0942189 0)
(0.761393 0.048127 1.96416e-17)
(0.714356 0.0321847 -1.67291e-17)
(-0.0150184 2.95519 -3.00628e-17)
(-0.00738581 2.90375 -5.82127e-17)
(0.00647348 3.02817 3.1836e-21)
(0.0310734 3.01723 -3.39904e-17)
(-0.0170017 3.00211 -3.69252e-20)
(-0.0119196 2.98068 1.04189e-22)
(-0.011323 3.02431 -5.9162e-18)
(-0.000110623 2.98515 -6.6626e-18)
(0.0440224 3.01918 -3.28924e-17)
(0.979321 0.00568146 0)
(0.97116 0.0101789 0)
(0.9389 0.00408091 0)
(0.97457 0.00809978 0)
(0.963297 0.0101676 0)
(0.932385 0.00743045 0)
(0.950664 -0.00108535 0)
(0.955346 0.00627932 0)
(0.908225 -0.00161581 0)
(0.787846 1.44193 5.52948e-19)
(0.867975 1.50534 0)
(0.401399 0.808326 1.7394e-18)
(0.372814 0.867609 -4.1362e-20)
(0.436125 0.96213 -1.46394e-17)
(0.425288 0.904702 -1.46649e-17)
(0.390275 0.917336 5.32305e-18)
(0.286746 0.623046 2.07274e-17)
(0.614436 0.233148 -8.28486e-18)
(0.582916 0.258753 -2.63406e-18)
(0.592718 0.188846 6.1894e-18)
(1.29305 0.524986 -2.84866e-17)
(1.29246 0.331944 8.32925e-19)
(0.014471 1.69762 -3.33273e-17)
(0.00745318 1.63186 0)
(1.04615 0.0307177 0)
(1.01837 0.0197954 0)
(0.998915 0.000391346 0)
(0.0143317 3.04576 0)
(0.0138872 2.97355 -3.07209e-17)
(0.00976736 2.98499 0)
(0.00325332 2.92234 -2.85831e-17)
(0.0118595 3.0584 1.67908e-17)
(0.0112983 3.051 0)
(0.846501 1.73939 -2.82576e-18)
(1.19674 2.3175 -1.23079e-17)
(0.934682 1.82504 -1.39776e-17)
(-0.0274385 2.91837 2.9599e-17)
(-0.0258827 2.88023 0)
(-0.0189163 2.83731 0)
(-0.0120215 1.69588 6.81053e-17)
(0.00129495 1.6902 -1.05276e-20)
(-0.011489 1.63598 6.80025e-17)
(0.250648 1.29351 -1.4335e-17)
(0.297137 0.959965 -1.36538e-17)
(0.039435 1.60498 -3.09381e-17)
(0.0768601 1.53805 -3.04839e-17)
(0.0657016 1.4806 -6.14083e-17)
(-0.0204492 3.06979 1.19522e-16)
(-0.00767353 3.06696 1.15096e-16)
(0.00621895 2.98547 2.89137e-17)
(-0.0146063 2.97898 -2.83082e-17)
(-0.00145833 2.93264 3.04497e-17)
(0.0171103 3.06284 -1.00442e-16)
(-0.00550985 3.05776 -1.22025e-16)
(0.339991 0.871506 0)
(0.299291 0.823515 -1.07296e-17)
(0.352318 0.635893 -1.47367e-17)
(0.365488 0.997955 3.41093e-17)
(0.322426 0.690747 2.13424e-17)
(1.26925 0.201123 -1.04016e-18)
(1.29541 0.36217 0)
(1.26445 0.176373 4.10542e-19)
(-0.0106072 1.70659 6.06323e-21)
(0.00426821 1.70603 0)
(-0.00252397 1.64239 0)
(0.299763 1.2101 3.59137e-19)
(0.350164 1.12714 -3.44571e-17)
(0.295867 0.8138 -2.78877e-17)
(1.00213 -0.0236408 0)
(1.00219 -0.0141742 1.7407e-17)
(0.00283729 1.77585 0)
(-0.00902412 1.79162 0)
(1.00111 -0.00164407 4.67087e-19)
(1.00128 0.00141712 2.53984e-17)
(0.00126414 1.77988 -7.70631e-17)
(0.00114925 1.77727 0)
(-0.0196515 2.97128 2.81473e-17)
(0.302313 2.99501 0)
(1.09563 0.699971 -2.7712e-17)
(1.00462 0.00737883 8.58785e-17)
(1.01181 -0.00695242 0)
(1.00523 -0.00114897 3.60352e-19)
(-0.101402 1.67752 0)
(-0.0321199 1.85367 0)
(-0.00218072 1.80006 0)
(0.0166854 1.74855 -7.59829e-17)
(-0.00331729 1.75924 7.55781e-17)
(0.988725 0.0110066 8.41728e-17)
(1.03654 0.0215996 0)
(1.06107 0.0327657 0)
(-0.00243917 1.77152 0)
(0.0014673 1.77128 0)
(-0.0150913 1.77737 0)
(0.185035 1.52508 -8.38843e-17)
(1.0047 -0.0127951 0)
(1.0073 -0.01486 0)
(0.995871 0.00535335 -1.52762e-17)
(0.997258 -0.00531092 1.97575e-17)
(0.995546 -0.00337915 0)
(-0.00284864 1.76548 0)
(-0.000537222 1.7683 0)
(-0.00169765 1.76354 0)
(-0.00768634 1.77942 0)
(-0.0232557 1.77764 0)
(-0.0124113 1.77239 0)
(1.01198 0.00484405 0)
(1.01174 0.00581764 8.60524e-17)
(0.834093 1.41395 -2.80731e-18)
(1.00164 -0.00691415 1.56379e-17)
(0.999301 0.00473531 -1.94573e-17)
(1.00253 0.00339804 0)
(1.00099 0.0105483 4.17178e-17)
(1.00602 0.0131543 4.34826e-17)
(1.00498 0.0107118 0)
(0.00324732 1.77434 0)
(0.00535187 1.77232 -3.89097e-17)
(-0.000672896 1.77074 -3.47098e-17)
(1.16096 0.263046 -5.48947e-17)
(1.09878 0.0816882 0)
(-0.235109 2.97179 2.53019e-17)
(-0.254685 3.22606 4.11223e-19)
(-0.0362729 3.01717 5.38361e-17)
(-0.0402677 2.96993 3.52736e-17)
(0.0476751 2.94622 0)
(-0.0266464 3.02657 1.48427e-17)
(-0.100168 3.12799 2.70081e-17)
(-0.0826291 3.01153 1.59168e-17)
(-0.0601316 3.09705 0)
(0.645173 0.3401 0)
(0.522782 0.385012 0)
(1.07845 0.822913 3.30157e-17)
(1.07258 0.905401 3.44316e-17)
(1.1364 0.637838 0)
(1.15359 0.560426 0)
(1.00735 0.00479003 4.52915e-18)
(1.0034 0.00345372 -2.73051e-18)
(1.01295 -0.0080259 0)
(1.00668 -0.0157156 0)
(1.00004 0.00949205 0)
(1.00588 0.00364578 0)
(1.00462 0.00602124 0)
(1.00226 0.00549853 0)
(1.00372 0.00488184 0)
(0.993554 0.00641961 0)
(-0.0801897 1.69406 0)
(-0.0821934 1.73338 0)
(-0.0709612 1.65369 0)
(-0.0474469 1.63893 0)
(-0.0302186 1.87368 0)
(0.0101895 1.86639 3.45927e-17)
(-0.0153256 1.83997 0)
(-0.0233582 1.80415 3.35716e-17)
(-0.00201351 1.74273 -7.16287e-17)
(-0.0108193 1.79992 0)
(-0.00399067 1.79535 0)
(0.0075046 1.80453 0)
(0.00129245 1.80869 0)
(0.0210254 1.76982 -7.6113e-17)
(-0.0168064 1.7473 -4.86574e-17)
(0.0178926 1.75258 3.82971e-17)
(0.00252477 1.7603 0)
(0.0192003 1.76523 3.13907e-17)
(0.00565175 1.77001 -7.2664e-17)
(-0.00852643 1.78768 -1.16207e-16)
(-0.00951889 1.73591 -4.81841e-17)
(0.0155032 1.74253 3.88625e-17)
(0.992074 0.0169946 -2.26754e-19)
(0.995097 0.00177249 2.0863e-18)
(0.988174 0.0240523 5.11534e-18)
(0.975455 0.0180206 -1.79665e-18)
(1.03075 0.0118591 0)
(1.03238 0.01016 0)
(1.04451 0.0330836 0)
(1.03785 0.0306995 0)
(1.04246 0.0138543 0)
(1.08607 0.0710668 0)
(1.0643 0.060303 0)
(1.08178 0.0408786 0)
(-0.012461 1.77978 1.00428e-17)
(-0.000315117 1.75729 0)
(-0.016026 1.76475 0)
(-0.0037927 1.76993 -1.49519e-17)
(-0.00130541 1.7722 1.76152e-20)
(-0.0112316 1.78723 4.47951e-17)
(-0.022956 1.77581 4.49702e-17)
(-0.00367356 1.76952 0)
(-0.0285177 1.77478 0)
(-0.0136936 1.76788 0)
(-0.00520643 1.78014 0)
(-0.00888085 1.78706 0)
(0.371586 1.54287 -5.7949e-17)
(0.409537 1.58359 4.17151e-17)
(0.379001 1.92677 -3.16257e-19)
(0.196118 1.90344 3.0984e-17)
(0.211036 2.0712 3.7448e-17)
(1.01094 -0.0138468 0)
(1.01167 -0.00722978 0)
(1.01493 -0.00890341 0)
(1.00537 0.00307129 0)
(0.997471 -0.0036825 0)
(0.990038 -0.00121207 0)
(1.00231 -0.00091897 0)
(1.00463 -0.000269337 0)
(1.00882 0.0043245 3.05689e-19)
(1.00536 0.00646873 2.50933e-18)
(1.0119 0.00729423 4.65242e-18)
(1.00715 0.00665416 -2.49052e-18)
(0.763763 1.51111 0)
(0.719584 1.5449 -7.8944e-17)
(0.900755 1.36757 7.09007e-17)
(0.951965 1.29088 6.92499e-17)
(1.00349 2.09402 -2.04193e-17)
(0.819269 0.115308 -1.78328e-17)
(1.11082 0.134162 0)
(1.15895 0.18961 -1.00132e-16)
(1.13664 0.138816 -5.9208e-20)
(0.951547 0.14323 0)
(-0.087586 2.70183 5.59888e-17)
(-0.376873 2.61659 6.57831e-17)
(-0.821289 2.68197 9.86415e-18)
(-0.65188 0.203761 -1.30371e-17)
(0.195463 2.9869 -1.30283e-17)
(0.0426453 2.97716 0)
(0.141435 2.95601 -1.13607e-17)
(0.0201929 2.69869 7.1687e-17)
(0.192531 2.72967 0)
(-0.0227384 3.05386 -1.83835e-19)
(-0.033944 3.07176 -2.57117e-17)
(-0.0055201 3.09526 -2.73183e-17)
(-0.0421617 3.1112 0)
(-0.0475996 3.05149 0)
(1.13603 2.15852 0)
(0.489235 1.05333 4.7894e-17)
(1.02002 1.09756 -3.39612e-17)
(0.994335 1.22735 0)
(0.834006 1.09035 -1.53757e-17)
(1.04134 1.04049 -6.25239e-17)
(0.173121 0.41738 -4.69272e-18)
(0.654597 0.336583 1.22082e-17)
(0.676926 0.297965 1.42618e-17)
(0.461668 0.455727 1.6519e-19)
(0.423389 0.393766 -1.70957e-18)
(0.608172 0.386116 0)
(0.588709 0.481766 1.3651e-17)
(0.611963 0.437125 0)
(0.543766 0.412119 0)
(0.589138 0.356655 0)
(0.676938 0.694553 3.59013e-17)
(1.16981 0.341653 3.45399e-17)
(1.18181 0.461854 0)
(1.17291 0.38742 0)
(0.749152 0.229458 2.2233e-17)
(0.723286 0.626739 3.52109e-17)
(0.607453 0.570579 1.39598e-17)
(0.86695 0.430016 -8.5368e-17)
(1.00267 0.0062092 3.91002e-17)
(1.00243 0.0149466 4.20686e-17)
(0.997923 0.011856 0)
(1.00751 0.00703174 0)
(1.00489 -0.0163242 -3.81709e-17)
(0.996877 -0.00995519 -4.03829e-17)
(1.01621 0.00113122 0)
(1.00578 0.00455274 0)
(1.00956 0.000444686 0)
(1.00468 0.00355051 0)
(1.0109 -0.00184548 0)
(1.00707 -0.00618598 0)
(-0.053876 1.76078 0)
(-0.038096 1.76987 0)
(-0.146474 1.61624 -5.32742e-17)
(0.12292 1.57688 -4.03047e-17)
(0.00314634 1.60939 7.85251e-17)
(0.034388 1.56771 3.59896e-17)
(-0.0894883 1.60346 0)
(-0.150439 1.88834 7.29283e-17)
(-0.187439 1.85326 0)
(0.096509 2.105 3.80136e-17)
(0.0959998 2.06565 -4.44512e-17)
(-0.124932 1.84182 7.19015e-17)
(0.0704736 1.50659 -4.1456e-17)
(-0.076384 1.58515 -4.20512e-17)
(0.0611962 1.50496 -1.04599e-17)
(-0.0492351 1.88435 0)
(0.0465436 1.88873 -5.27873e-17)
(-0.0387301 1.74965 5.5909e-18)
(-0.00645141 1.75033 0)
(-0.0755377 1.77678 -7.32816e-17)
(-0.0683533 1.74431 0)
(-0.0107369 1.7871 3.40549e-17)
(-0.00841865 1.76264 0)
(0.0277961 1.7806 5.46814e-17)
(0.0351803 1.78246 0)
(0.012503 1.79395 0)
(0.0124271 1.80143 5.41484e-17)
(-0.00551461 1.73604 -1.19172e-16)
(0.0101224 1.74237 -6.96067e-17)
(0.000328901 1.74567 4.02335e-23)
(0.00745915 1.76147 7.81675e-17)
(-0.0136433 1.78493 -3.98305e-17)
(-0.0105398 1.79165 0)
(-0.0126396 1.79741 0)
(-0.019136 1.78829 3.1641e-17)
(-0.0169174 1.79782 2.69931e-17)
(0.00108176 1.79137 6.01939e-17)
(-0.0722396 1.80143 0)
(-8.45838e-06 1.77387 1.03469e-16)
(-0.0100662 1.77032 1.73448e-17)
(0.00382635 1.77506 -1.96791e-17)
(0.0130554 1.77946 7.84819e-17)
(0.0155524 1.73861 -4.02976e-18)
(0.00378982 1.74617 -4.49612e-17)
(1.004 0.0122614 4.1837e-17)
(0.997918 0.00593419 3.85745e-17)
(0.998902 0.00819005 0)
(0.989462 0.0479029 -6.17694e-17)
(0.966225 0.0502891 5.53334e-18)
(0.948691 0.0347479 3.38617e-18)
(0.983694 0.0913951 4.38864e-19)
(1.01712 0.0102502 0)
(1.02351 0.0125744 -4.15547e-17)
(1.02156 0.00753311 -3.84636e-17)
(1.02474 0.0391565 2.99182e-18)
(1.02728 0.0353312 -6.90308e-18)
(1.01545 0.0488145 0)
(1.00795 0.0444073 -9.02629e-19)
(1.00245 0.026063 0)
(0.999866 0.0274387 0)
(1.01642 0.0233121 0)
(1.0052 0.00999749 0)
(1.01025 0.0282534 6.56589e-18)
(1.01041 0.0211733 2.51902e-17)
(1.02343 0.0316783 -8.65648e-18)
(1.01638 0.0311687 7.57805e-18)
(1.01414 0.0654305 3.34581e-17)
(1.03721 0.0600281 0)
(1.02774 0.0909684 0)
(0.00143217 1.78224 -5.42736e-17)
(0.0162825 1.76105 -8.71557e-19)
(-0.00549203 1.77174 0)
(0.00848291 1.78048 -5.45219e-17)
(0.00184001 1.78513 9.13655e-18)
(0.00454907 1.77602 -4.06044e-18)
(-0.00204255 1.77045 -7.79664e-17)
(0.00699582 1.76615 -2.04554e-19)
(0.0109807 1.75843 -4.964e-18)
(-0.00542726 1.7692 3.4387e-17)
(-0.00315193 1.77248 3.43884e-17)
(0.0040541 1.7639 -2.34279e-17)
(-0.00244833 1.77524 -3.90512e-17)
(0.329394 1.4005 2.84681e-17)
(0.258008 1.56302 -6.18037e-18)
(0.677836 1.59688 -8.07709e-17)
(0.539531 1.59518 4.08511e-17)
(0.577373 1.59901 0)
(0.411375 1.9326 -3.14898e-18)
(0.496471 1.90395 1.92664e-19)
(0.249233 1.90983 -7.46078e-18)
(0.195113 2.07836 -3.65928e-17)
(0.261978 2.08037 -2.7426e-17)
(0.349266 1.92922 0)
(0.304692 1.88978 -1.40644e-17)
(0.0507909 1.89927 4.21141e-18)
(0.147503 1.91453 6.28627e-17)
(0.104607 1.86645 2.56013e-18)
(0.752911 1.95674 -3.29369e-17)
(0.661075 1.96998 0)
(1.00847 0.0069428 6.65346e-21)
(1.00783 -0.00526063 9.22701e-20)
(1.00258 -0.02156 -1.12141e-17)
(1.01442 -0.010633 -1.26246e-17)
(1.01174 0.000391335 0)
(0.719026 1.43505 0)
(0.647388 1.37664 0)
(0.773533 1.22906 0)
(0.686339 1.30511 0)
(0.984477 2.11003 2.9435e-17)
(0.934711 1.93155 0)
(0.730712 1.87209 -1.07622e-18)
(0.723258 2.06566 0)
(0.76619 2.08617 7.1692e-17)
(0.819641 2.03494 7.03773e-17)
(0.802201 0.153207 0)
(0.787182 0.158176 -2.1585e-19)
(0.876663 0.133932 1.49583e-17)
(0.839023 0.110621 -3.1169e-17)
(0.853031 0.0832531 -7.0368e-18)
(1.0143 0.25562 -3.48756e-17)
(0.895164 0.295073 2.9052e-17)
(0.859227 0.282967 3.13999e-17)
(0.945877 0.228126 1.76033e-17)
(0.885618 0.166757 3.26343e-17)
(0.864674 0.196244 -1.01442e-17)
(0.869518 0.25995 -5.50648e-19)
(0.852858 0.226881 0)
(0.951655 0.200995 2.63505e-17)
(0.989071 0.187143 0)
(0.981585 0.255488 0)
(1.04469 0.123153 -1.04453e-17)
(1.0006 0.186516 3.19707e-17)
(0.990481 0.218942 2.04785e-17)
(1.03102 0.204702 0)
(0.994002 0.0266726 -3.28277e-17)
(1.00221 0.0343505 3.66975e-17)
(1.00477 0.0348208 -3.08527e-17)
(1.00331 0.0542013 3.99387e-17)
(0.981327 0.0511709 -6.16844e-17)
(0.94343 0.149241 0)
(0.960562 0.0747789 0)
(0.945255 0.0548374 4.18298e-17)
(0.919154 0.0531747 1.00758e-17)
(0.988671 0.0967098 -3.42813e-17)
(1.0123 0.123542 -3.33492e-17)
(1.00936 0.152053 -3.76077e-18)
(0.978567 0.150398 0)
(1.01452 0.0955691 0)
(1.00893 0.0832444 3.36706e-17)
(0.991282 0.0838504 -3.10748e-17)
(0.546416 1.33978 2.91827e-17)
(0.554108 1.54358 -2.28899e-17)
(0.913406 2.21767 1.69587e-17)
(0.985039 2.47936 -1.71833e-18)
(1.04079 2.19187 -3.50452e-17)
(1.09907 2.23909 7.84285e-18)
(1.09778 1.97407 8.35277e-18)
(1.00905 2.37913 -1.91336e-17)
(1.01138 2.35206 -1.00451e-17)
(1.04969 2.58706 6.81346e-20)
(1.17779 2.45495 1.00894e-18)
(1.24449 2.40669 0)
(0.465894 1.11473 -3.80374e-18)
(-0.181133 1.42215 -1.27423e-17)
(0.0347482 0.594225 -3.94123e-18)
(-0.101531 0.815378 -1.42128e-17)
(0.341929 0.457795 -5.3747e-18)
(0.358777 0.511195 -3.25165e-18)
(0.30701 0.598126 -1.39195e-18)
(0.217669 0.468244 7.36154e-19)
(0.307494 0.387585 -3.38613e-18)
(0.730705 0.273299 2.27168e-17)
(0.684694 0.305195 0)
(0.707181 0.263004 6.25507e-18)
(0.595251 0.570398 -9.9239e-18)
(0.508335 0.541797 6.07092e-18)
(0.424818 0.577242 -5.98003e-18)
(0.490498 0.490402 0)
(0.57614 0.933442 -2.26696e-17)
(0.740305 0.906536 5.19914e-17)
(0.68351 1.03355 4.83151e-17)
(0.77145 0.934964 1.21397e-17)
(0.894523 0.924043 -4.95079e-18)
(0.894495 0.990307 -5.21079e-18)
(0.781331 0.755118 1.88638e-20)
(0.842038 0.808096 1.15427e-17)
(0.928442 0.855273 0)
(0.926748 0.736332 2.43422e-17)
(0.946221 0.322536 5.36057e-17)
(1.05701 0.321099 -1.68739e-17)
(0.995522 0.311001 -4.78309e-17)
(0.902208 0.396354 4.51874e-17)
(0.992 0.451677 0)
(1.03112 0.420542 0)
(0.809751 0.393979 5.1218e-17)
(0.786357 0.290171 0)
(0.779836 0.287419 -1.25565e-17)
(0.873716 0.312664 6.97589e-17)
(0.824792 0.501598 -7.1931e-17)
(0.751516 0.554012 3.69545e-18)
(0.789177 0.512354 4.23973e-18)
(0.715029 0.467963 2.77717e-18)
(0.698203 0.483933 -3.80632e-18)
(0.661392 0.466965 -3.03288e-18)
(1.01694 0.00109949 -4.24833e-17)
(1.01295 -0.00899647 0)
(1.0203 -0.00194607 1.49021e-17)
(1.00796 0.00613801 -2.35158e-17)
(1.02299 0.00469542 -2.00663e-17)
(1.01309 0.0147867 -6.39385e-18)
(1.00902 0.0107805 0)
(1.00938 0.0036079 1.14279e-17)
(1.0139 0.0084765 3.93234e-18)
(1.0069 0.00879054 -5.82235e-18)
(1.01014 0.0040928 1.07384e-17)
(-0.0125184 1.80203 0)
(-0.00834762 1.81489 0)
(-0.0146283 1.78054 0)
(-0.0106843 1.79039 0)
(-0.123576 1.78006 -2.73231e-18)
(-0.134075 1.72807 -1.11294e-16)
(-0.177256 1.84876 -3.42903e-17)
(-0.212391 1.78815 -8.70369e-17)
(-0.0608892 1.79737 5.63548e-17)
(-0.0548594 1.80926 6.43509e-17)
(-0.0981176 1.78701 1.22841e-16)
(-0.0750708 1.79201 5.66954e-17)
(-0.0424877 1.7975 1.00842e-17)
(-0.034194 1.81571 1.28081e-18)
(-0.0869679 1.80947 -7.25281e-17)
(-0.0692268 1.85925 0)
(-0.146472 1.902 -4.09567e-17)
(-0.182504 1.86773 -4.46197e-18)
(-0.0423943 1.97382 -1.9013e-17)
(-0.00488268 1.98621 0)
(0.00864661 2.00024 5.29958e-17)
(0.0250582 2.04628 5.19953e-17)
(-0.08329 1.95052 -6.54986e-17)
(-0.112047 1.93325 -8.34901e-17)
(-0.0775213 1.9224 0)
(-0.00806175 1.75199 3.13936e-17)
(-0.00231 1.71893 -2.41916e-17)
(0.00198027 1.74364 0)
(0.000743638 1.73853 2.15049e-17)
(-0.0368959 1.75077 1.87104e-17)
(0.00139097 1.79227 9.88732e-18)
(-0.00671647 1.78381 -1.04975e-16)
(-0.0191115 1.78805 -6.70285e-17)
(-0.0192682 1.78271 4.84497e-17)
(0.00442792 1.78386 0)
(0.0116783 1.79081 0)
(-0.00624551 1.7823 -3.93086e-17)
(-0.00426419 1.77155 -3.96542e-18)
(-0.00248653 1.7819 0)
(-0.0100307 1.79146 3.45542e-17)
(-0.00889897 1.78642 -1.7432e-19)
(1.01819 0.0345574 0)
(1.02708 0.0278947 -3.65864e-19)
(1.00935 0.0208614 4.1071e-17)
(1.01796 0.0142813 0)
(1.01661 0.00821274 0)
(1.0194 0.00414366 2.18734e-17)
(1.01429 0.0116624 -4.87496e-17)
(1.00828 0.0078873 -9.01408e-18)
(1.00449 0.00723435 0)
(1.00673 0.00979577 0)
(1.0057 0.015297 3.43401e-17)
(1.00148 0.0171076 0)
(1.00549 0.0147879 0)
(-0.00252266 1.77839 0)
(0.00147386 1.77403 -4.22827e-17)
(0.00116592 1.76756 4.39547e-17)
(-0.00372915 1.7656 0)
(0.00957127 1.77895 -3.96057e-17)
(-0.0018059 1.76903 -1.95882e-17)
(-0.00678514 1.76305 0)
(0.502957 1.83742 0)
(0.243612 1.62865 2.00076e-17)
(0.271713 1.82857 0)
(0.453779 1.40639 8.91264e-17)
(0.502638 1.41194 0)
(0.473065 1.42947 3.26675e-17)
(0.842704 2.12686 -3.77448e-19)
(0.775745 1.94562 -3.14283e-17)
(0.709511 1.77112 -1.5859e-17)
(0.682927 1.95771 -7.31346e-18)
(0.732529 2.05974 0)
(0.770715 2.03018 0)
(0.710852 1.95313 0)
(0.711758 1.94363 -6.88811e-18)
(0.536216 2.14839 -4.20215e-17)
(0.683663 2.06425 3.36207e-18)
(0.683138 2.09462 3.09449e-18)
(0.504448 1.95766 0)
(0.60269 1.97293 0)
(0.582535 1.94825 -1.22477e-19)
(0.620036 2.09369 0)
(0.60874 1.26136 0)
(0.560733 1.15409 -6.88289e-17)
(0.554158 1.1467 -6.35084e-18)
(0.560858 1.25059 0)
(0.562077 1.20181 -6.71927e-17)
(0.725645 1.05012 -1.14793e-17)
(0.77654 1.18564 0)
(0.788668 1.10791 -2.80966e-17)
(0.675248 1.20433 0)
(0.615517 1.14671 0)
(0.919795 2.18141 1.15001e-17)
(0.900904 2.25493 -1.22907e-17)
(0.738285 1.98187 -3.70054e-17)
(0.734291 1.95572 -4.11545e-18)
(0.903958 2.15099 0)
(0.864423 2.13109 -3.57617e-18)
(0.892662 2.00061 -7.22634e-18)
(0.834969 1.8118 -7.81263e-18)
(0.602909 1.47709 0)
(0.561994 1.33529 3.00515e-17)
(0.593687 1.38707 0)
(0.815306 0.215009 0)
(0.778984 0.189714 0)
(0.761962 0.201177 0)
(0.801577 0.248711 -1.13936e-17)
(0.750643 0.228411 7.1465e-18)
(0.926028 0.0758186 1.0869e-17)
(0.920242 0.1166 0)
(0.893298 0.0929586 3.22994e-19)
(0.859688 0.0757625 -4.83505e-19)
(0.86853 0.0558702 -8.03492e-18)
(1.0371 2.74809 -1.31216e-17)
(0.977381 2.65237 0)
(0.937845 2.8255 -5.0371e-17)
(0.58455 3.0309 -3.49353e-17)
(0.72305 2.54568 9.94443e-18)
(0.44983 1.18482 -2.25833e-17)
(0.52357 1.09667 0)
(0.231555 0.830302 6.31765e-18)
(0.254978 0.929354 4.65549e-17)
(0.186194 0.793055 9.09086e-18)
(0.260561 0.636664 6.4117e-18)
(0.486598 0.633829 -6.63562e-18)
(0.510525 0.686086 0)
(0.453849 0.779965 0)
(0.347266 0.733579 0)
(0.89968 0.687217 1.23605e-17)
(0.826297 0.605021 4.213e-18)
(0.842747 0.643238 2.61245e-19)
(0.862951 0.529329 1.80386e-17)
(0.976973 0.55368 0)
(0.973511 0.619362 -1.19273e-17)
(0.768408 0.417972 5.60003e-18)
(0.770124 0.367994 1.95283e-17)
(0.715945 0.402963 -4.32752e-19)
(0.719964 0.373484 -1.16219e-18)
(0.764758 0.331057 -1.20724e-17)
(0.748259 0.311987 -1.33331e-17)
(1.02797 0.00182626 -4.35676e-17)
(1.0268 0.000284624 -2.64344e-17)
(1.0237 0.00656187 4.27979e-17)
(1.02395 0.00569341 4.52038e-17)
(1.01624 0.0226202 0)
(1.00125 0.0157813 -2.54243e-17)
(-0.0776482 1.80041 2.72751e-17)
(-0.0816947 1.81568 0)
(-0.153433 1.84375 -4.36955e-17)
(-0.169427 1.85066 -6.17423e-17)
(-0.18558 1.83982 -3.49041e-17)
(-0.150653 1.84429 0)
(0.0292948 1.78868 0)
(0.0170049 1.78238 -1.99008e-17)
(0.00304641 1.76578 -2.00004e-17)
(0.000727586 1.77173 -5.01902e-17)
(-0.0055508 1.7776 -1.05855e-17)
(0.0258029 1.78023 -4.12955e-18)
(0.654964 1.48248 -1.18306e-16)
(0.656912 1.559 -1.25727e-16)
(0.551027 1.44797 7.3859e-17)
(0.616207 1.55595 -4.76213e-18)
(0.688654 1.44491 0)
(0.607727 1.46032 7.39669e-17)
(0.650375 1.46829 7.20151e-17)
(0.584908 1.36119 7.18276e-17)
(0.670228 1.40041 0)
(0.656918 1.41562 0)
(0.517611 2.1637 -4.36673e-17)
(0.481769 2.08192 -6.16229e-17)
(0.544625 2.09386 -5.99237e-17)
(0.414574 2.09202 -2.96057e-18)
(0.335608 2.24128 3.39916e-18)
(0.290318 2.16208 -2.27654e-17)
(0.788231 1.89019 -1.44996e-17)
(0.835945 1.90592 0)
(0.754229 1.74556 3.11719e-19)
(0.86307 2.10219 0)
(0.832992 2.11035 0)
(0.5601 2.02107 -5.79514e-18)
(0.917373 2.47551 -6.47335e-18)
(0.795372 2.47969 2.24114e-18)
(0.168559 1.24173 0)
(0.200874 1.19436 -1.67297e-17)
(0.433744 1.10091 -3.84822e-17)
(0.381945 1.96316 0)
(0.369269 2.33056 8.68534e-18)
(0.201996 2.30147 0)
(0.601616 0.848994 -1.96676e-17)
(0.640108 0.84458 -4.1235e-17)
(0.652162 0.795087 -3.06926e-17)
(0.48241 0.817302 -2.43078e-18)
(0.559518 0.7167 -1.09129e-18)
(0.827289 2.28916 -7.96545e-18)
(0.885411 2.27561 -1.23267e-17)
(0.646065 1.99251 1.49204e-17)
(0.627807 1.69435 2.65748e-17)
(0.661672 1.76361 3.4976e-17)
(0.834345 2.05848 -3.01315e-17)
(0.836491 2.07168 -1.5272e-17)
(0.706826 1.73284 9.93144e-19)
(0.537864 1.4677 3.49377e-17)
)
;

boundaryField
{
    wall-4
    {
        type            calculated;
        value           uniform (0 0 0);
    }
    velocity-inlet-5
    {
        type            calculated;
        value           uniform (1 0 0);
    }
    velocity-inlet-6
    {
        type            calculated;
        value           uniform (0 3 0);
    }
    pressure-outlet-7
    {
        type            calculated;
        value           nonuniform List<vector> 8((-0.0148902 1.69639 0) (-0.00422565 1.6566 5.79139e-17) (0.00223583 1.76523 0) (-0.00894014 1.78899 0) (-0.00292243 1.76503 0) (0.000470299 1.77921 0) (-0.00748916 1.7675 0) (-0.00263383 1.77238 0));
    }
    wall-8
    {
        type            calculated;
        value           uniform (0 0 0);
    }
    frontAndBackPlanes
    {
        type            empty;
    }
}

