/*--------------------------------*- C++ -*----------------------------------*\
  =========                 |
  \\      /  F ield         | OpenFOAM: The Open Source CFD Toolbox
   \\    /   O peration     | Website:  https://openfoam.org
    \\  /    A nd           | Version:  6
     \\/     M anipulation  |
\*---------------------------------------------------------------------------*/
FoamFile
{
    version     2.0;
    format      ascii;
    class       volScalarField;
    location    "0";
    object      P_rec;
}
// * * * * * * * * * * * * * * * * * * * * * * * * * * * * * * * * * * * * * //

dimensions      [0 2 -2 0 0 0 0];

internalField   nonuniform List<scalar> 
13046
(
0.390112
0.382699
0.403453
0.395679
0.400751
0.385572
0.387353
0.387085
0.402679
0.310729
0.189433
0.400303
0.385709
0.363347
0.400262
0.328028
0.401208
0.210315
0.403261
0.398051
0.391594
0.325553
0.401716
0.207498
0.393394
0.395476
0.398873
0.38091
0.363168
0.402601
0.392841
0.371992
0.399683
0.397555
0.402137
0.391641
0.396211
0.402605
0.39525
0.392108
0.400533
0.371911
0.395197
0.404421
0.399397
0.397049
0.397676
0.399327
0.386107
0.380545
0.40394
0.387353
0.390787
0.353404
0.392849
0.348574
0.393422
0.284034
0.363228
0.40199
0.364686
0.350761
0.399036
0.399339
0.264067
0.339646
0.366542
0.291306
0.400289
0.370721
0.300617
0.399435
0.268387
0.358897
0.402828
0.402536
0.404631
0.386058
0.40429
0.35077
0.258503
0.390997
0.392302
0.39849
0.399223
0.247542
0.332076
0.331204
0.398151
0.2821
0.394575
0.314534
0.287769
0.365664
0.360568
0.326975
0.31773
0.398932
0.400502
0.397952
0.330952
0.292476
0.397669
0.399946
0.396399
0.398782
0.35916
0.390441
0.392173
0.398632
0.364531
0.280803
0.400608
0.125357
0.38801
0.372835
0.398341
0.360264
0.364587
0.303287
0.399753
0.319999
0.398819
0.305052
0.171488
0.400797
0.377002
0.33696
0.402432
0.390481
0.400477
0.369699
0.394209
0.318743
0.305235
0.351772
0.30307
0.399355
0.390336
0.367021
0.398295
0.377537
0.385365
0.398964
0.391206
0.392634
0.365929
0.398705
0.369098
0.397312
0.364363
0.338651
0.399473
0.403132
0.376703
0.391275
0.376002
0.348533
0.36845
0.347328
0.394693
0.395793
0.377834
0.375932
0.39751
0.307054
0.399567
0.196421
0.291286
0.400885
0.140105
0.349486
0.289802
0.399809
0.388126
0.347611
0.40082
0.378583
0.396905
0.381744
0.399148
0.221953
0.311506
0.38898
0.356486
0.396776
0.401714
0.370745
0.388266
0.381251
0.386838
0.398293
0.358183
0.403224
0.378462
0.349546
0.400013
0.32921
0.398739
0.258885
0.395965
0.328699
0.30569
0.316876
0.277126
0.395879
0.386777
0.339918
0.386527
0.383062
0.352411
0.402862
0.258256
0.258865
0.316378
0.396547
0.393652
0.402459
0.395524
0.383264
0.367635
0.401224
0.395633
0.323929
0.311303
0.380405
0.363163
0.403924
0.39965
0.167148
0.291541
0.387896
0.340361
0.381667
0.323413
0.290723
0.396638
0.358191
0.372253
0.398036
0.37454
0.33955
0.403783
0.340353
0.32793
0.391933
0.341743
0.36195
0.393723
0.399354
0.166136
0.284841
0.392764
0.400335
0.356294
0.288477
0.401302
0.0994073
0.401187
0.394784
0.395196
0.364705
0.363659
0.369149
0.374494
0.399384
0.397383
0.401034
0.346078
0.244883
0.378238
0.348012
0.400193
0.339656
0.347888
0.394398
0.354421
0.302048
0.399565
0.397181
0.394481
0.404212
0.353908
0.366014
0.396565
0.378555
0.338458
0.40082
0.380091
0.378189
0.392638
0.396813
0.346974
0.353177
0.35597
0.396801
0.347679
0.399296
0.293993
0.396783
0.395214
0.362309
0.393521
0.340858
0.372356
0.365462
0.310461
0.398756
0.390227
0.390199
0.34894
0.360318
0.358958
0.300348
0.399247
0.295109
0.400704
0.399109
0.230522
0.316135
0.367659
0.328509
0.400127
0.077334
0.399854
0.264886
0.389774
0.398834
0.387376
0.37015
0.357557
0.399198
0.399329
0.33513
0.273389
0.389856
0.342567
0.392485
0.327251
0.327048
0.393097
0.376605
0.400852
0.366554
0.350467
0.400483
0.371686
0.401897
0.335203
0.400877
0.226222
0.392838
0.330723
0.386437
0.362207
0.343416
0.399101
0.372994
0.379556
0.400426
0.360614
0.385555
0.395358
0.39154
0.381119
0.401996
0.390472
0.344525
0.378055
0.322997
0.264421
0.398088
0.328462
0.327232
0.395189
0.373458
0.398044
0.318136
0.354738
0.358369
0.288784
0.2753
0.398787
0.399749
0.400697
0.0863912
0.272338
0.294038
0.401611
0.109638
0.363026
0.365132
0.396463
0.398975
0.326796
0.243351
0.369282
0.367623
0.314062
0.305982
0.402047
0.400039
0.395806
0.238064
0.299538
0.284212
0.402004
0.082751
0.39027
0.4014
0.401074
0.281499
0.10627
0.401267
0.385376
0.346709
0.397777
0.313472
0.231532
0.398468
0.0883068
0.400594
0.245793
0.39394
0.398688
0.376973
0.389839
0.401154
0.400078
0.30673
0.401347
0.164792
0.385966
0.396433
0.399453
0.392532
0.401216
0.401887
0.390389
0.332696
0.383671
0.383939
0.403473
0.399416
0.39121
0.388152
0.398127
0.376588
0.324459
0.397323
0.400653
0.401025
0.208926
0.208047
0.3205
0.318759
0.314752
0.256064
0.397847
0.403145
0.372348
0.304598
0.38945
0.395965
0.362182
0.338054
0.360891
0.390389
0.138537
0.398432
0.257463
0.39521
0.312933
0.274787
0.295565
0.400456
0.158273
0.400813
0.0722972
0.244615
0.0482018
0.400586
0.255827
0.343989
0.352378
0.396881
0.199943
0.396643
0.281024
0.345882
0.301202
0.399383
0.321079
0.401689
0.171622
0.386413
0.400048
0.384514
0.252087
0.395648
0.305454
0.338385
0.389635
0.366343
0.341316
0.340138
0.395783
0.40108
0.00370899
0.226073
0.0954886
0.400306
0.257944
0.390222
0.402109
0.384304
0.228602
0.297965
0.397358
0.396154
0.29029
0.228621
0.325667
0.399158
0.240318
0.400583
0.248594
0.342452
0.379931
0.320755
0.399606
0.291662
0.363314
0.4029
0.402581
0.338176
0.216255
0.383111
0.380685
0.35138
0.343189
0.399903
0.401741
0.385129
0.354304
0.399559
0.372597
0.309162
0.403686
0.334736
0.333516
0.395305
0.251315
0.315944
0.397564
0.395918
0.335356
0.319224
0.0513559
0.400221
0.263335
0.395186
0.394047
0.401926
0.373499
0.403974
0.377669
0.37912
0.37803
0.40058
0.324352
0.400541
0.339627
0.100056
0.398489
0.24606
0.234361
0.302898
0.397757
0.386413
0.392091
0.348025
0.349182
0.331487
0.392382
0.400637
0.256087
0.346201
0.130951
0.274433
0.399985
0.149672
0.277904
0.399354
0.36905
0.313329
0.402158
0.397935
0.391047
0.367883
0.322259
0.399501
0.223482
0.337637
0.344916
0.397938
0.400748
0.274482
0.345286
0.380276
0.401805
0.341683
0.361224
0.377509
0.39601
0.392704
0.398773
0.366172
0.399363
0.217919
0.315843
0.354755
0.295174
0.399757
0.395953
0.399839
0.377446
0.331839
0.402227
0.198435
0.386261
0.368353
0.402262
0.382165
0.384289
0.401188
0.348314
0.346591
0.396149
0.305107
0.402373
0.133392
0.310182
0.402588
0.140099
0.400836
0.267734
0.345367
0.356395
0.383768
0.394116
0.402424
0.112064
0.296615
0.398788
0.287121
0.340794
0.399631
0.0602406
0.236521
0.250293
0.0327772
0.40132
0.402298
0.227036
0.339377
0.399415
0.189857
0.300794
0.32889
0.3333
0.399758
0.221406
0.399939
0.239271
0.336774
0.293981
0.398595
0.393439
0.35688
0.328118
0.397277
0.400013
0.380791
0.34009
0.310124
0.3979
0.397266
0.342237
0.319415
0.342657
0.402715
0.224943
0.377286
0.314823
0.401362
0.381546
0.340313
0.39635
0.353338
0.335123
0.399662
0.350766
0.332004
0.399061
0.39731
0.394996
0.383137
0.380118
0.335845
0.40443
0.394895
0.259596
0.302014
0.271938
0.398428
0.155445
0.264914
0.398698
0.155391
0.389218
0.401035
0.362191
0.117586
0.399914
0.263731
0.350597
0.400509
0.277563
0.399168
0.123774
0.255442
0.395557
0.40082
0.389916
0.376405
0.356862
0.401073
0.38454
0.355804
0.393602
0.396546
0.209732
0.288141
0.337124
0.34596
0.396835
0.401621
0.32726
0.191818
0.369773
0.349104
0.402102
0.398257
0.401354
0.383145
0.208838
0.29474
0.397469
0.399818
0.274401
0.340292
0.301909
0.295944
0.400992
0.40103
0.14533
0.131906
0.369757
0.371947
0.400411
0.351315
0.356207
0.396244
0.382854
0.385736
0.403036
0.176975
0.279116
0.182858
0.398071
0.278807
0.397146
0.361296
0.324538
0.40141
0.294531
0.286756
0.197011
0.182449
0.398472
0.398683
0.354819
0.358906
0.399274
0.375467
0.36727
0.400416
0.316446
0.402282
0.163804
0.374483
0.363013
0.400154
0.383351
0.378085
0.400397
0.305485
0.401512
0.147943
0.371072
0.33524
0.39887
0.374997
0.331272
0.389905
0.381189
0.331978
0.400326
0.316946
0.392565
0.318065
0.400732
0.0213344
0.234085
0.369953
0.358378
0.399795
0.320682
0.400866
0.18974
0.396741
0.325048
0.383236
0.265432
0.402067
0.0612273
0.39877
0.396188
0.390674
0.373787
0.393783
0.373491
0.386185
0.386239
0.40161
0.395105
0.398634
0.395796
0.378739
0.401339
0.375228
0.372996
0.370476
0.402906
0.377234
0.373027
0.402472
0.397259
0.168183
0.267413
0.387468
0.36165
0.397622
0.301811
0.203112
0.398987
0.352182
0.348149
0.324816
0.31235
0.398829
0.39823
0.387002
0.372381
0.399803
0.372785
0.323703
0.399657
0.361576
0.337878
0.40103
0.398476
0.39101
0.398393
0.345859
0.316972
0.398409
0.395435
0.397227
0.383681
0.360615
0.354966
0.399834
0.372708
0.332485
0.398666
0.397049
0.397432
0.387517
0.402644
0.387939
0.400827
0.397629
0.39266
0.400285
0.385659
0.405342
0.378923
0.384441
0.382424
0.357449
0.356358
0.401173
0.398392
0.399859
0.255371
0.345187
0.389149
0.338062
0.379289
0.401478
0.400883
0.242868
0.249618
0.339845
0.338643
0.388679
0.395082
0.34342
0.399198
0.400345
0.395436
0.345031
0.306527
0.398655
0.393191
0.399687
0.36795
0.370975
0.327786
0.399191
0.353953
0.354748
0.270908
0.401636
0.27917
0.40063
0.355475
0.318629
0.399431
0.272134
0.0774508
0.402048
0.393289
0.332838
0.384333
0.381034
0.383298
0.397254
0.328421
0.401009
0.334393
0.338584
0.328593
0.396019
0.37464
0.331607
0.401325
0.387744
0.392572
0.339698
0.38314
0.385939
0.396254
0.402972
0.348348
0.34445
0.382082
0.401757
0.338615
0.356583
0.325747
0.400021
0.396815
0.397694
0.385998
0.311396
0.40072
0.173967
0.386429
0.395381
0.333578
0.37333
0.369532
0.329473
0.322026
0.397474
0.401078
0.400543
0.190455
0.318061
0.317299
0.401815
0.173157
0.311174
0.401317
0.163279
0.350533
0.400567
0.271258
0.377704
0.340077
0.401185
0.26091
0.357395
0.413791
0.264762
0.412208
0.145732
0.393477
0.285516
0.279768
0.406823
0.404935
0.271417
0.27015
0.409012
0.367979
0.284064
0.269417
0.35658
0.36091
0.396043
0.378104
0.347742
0.406878
0.403292
0.418931
0.359811
0.418077
0.279905
0.385284
0.261014
0.288014
0.391015
0.375582
0.373733
0.305535
0.385163
0.414762
0.40781
0.282877
0.329237
0.340851
0.400531
0.315434
0.406777
0.382077
0.356527
0.361122
0.335147
0.273585
0.31926
0.413642
0.377854
0.286696
0.35849
0.285058
0.411623
0.398157
0.377951
0.335349
0.404649
0.318125
0.318875
0.41819
0.294443
0.381314
0.398626
0.382845
0.405132
0.407887
0.374725
0.278303
0.294985
0.32057
0.400988
0.288129
0.37236
0.341599
0.30278
0.396358
0.410928
0.352767
0.377448
0.273232
0.287144
0.358144
0.401411
0.358191
0.268351
0.368648
0.413214
0.291088
0.40668
0.419791
0.374214
0.275661
0.109595
0.303884
0.338407
0.275213
0.27604
0.392008
0.407865
0.386126
0.402823
0.284096
0.257186
0.274213
0.297832
0.305946
0.414021
0.408335
0.394926
0.288882
0.298713
0.334229
0.38162
0.365671
0.269884
0.268754
0.352434
0.373407
0.405599
0.396745
0.401414
0.369494
0.320626
0.275964
0.412402
0.231281
0.400258
0.27573
0.408721
0.274393
0.203384
0.250933
0.410027
0.368904
0.253662
0.305192
0.39222
0.278634
0.402088
0.347964
0.304903
0.391199
0.357057
0.282238
0.412233
0.307737
0.365807
0.271707
0.364443
0.283059
0.416026
0.405059
0.360214
0.40193
0.401767
0.41256
0.344509
0.316661
0.301838
0.384928
0.230699
0.32037
0.277164
0.403768
0.355558
0.402695
0.412651
0.379909
0.412681
0.417513
0.412972
0.276953
0.271183
0.274253
0.412189
0.284094
0.273314
0.223039
0.274432
0.359392
0.352593
0.38143
0.413961
0.403754
0.341096
0.406047
0.346191
0.401323
0.19019
0.385681
0.314903
0.270648
0.409537
0.409055
0.310559
0.336961
0.404672
0.386201
0.267277
0.305212
0.400342
0.415323
0.360202
0.288961
0.336523
0.390094
0.359179
0.320449
0.307191
0.221097
0.293618
0.323266
0.354985
0.271189
0.27834
0.407307
0.357082
0.27167
0.36275
0.290361
0.296948
0.392389
0.394732
0.280352
0.274183
0.245915
0.396788
0.345365
0.358318
0.393246
0.360685
0.285222
0.387373
0.338866
0.261228
0.33956
0.411506
0.382425
0.399347
0.416223
0.40009
0.280226
0.254233
0.36613
0.362649
0.293692
0.27565
0.386376
0.411082
0.403733
0.386052
0.283476
0.3615
0.356128
0.379634
0.370587
0.307568
0.36443
0.342155
0.213424
0.287128
0.309971
0.287907
0.307811
0.394731
0.367797
0.364914
0.398055
0.277595
0.361512
0.324043
0.36244
0.350674
0.344421
0.385449
0.268927
0.245953
0.357983
0.270108
0.262175
0.385052
0.199124
0.263364
0.412718
0.394495
0.298708
0.342127
0.289622
0.389204
0.306163
0.216845
0.281565
0.388702
0.3707
0.390201
0.14396
0.275614
0.414107
0.339006
0.254012
0.240233
0.269406
0.269932
0.266744
0.356052
0.39675
0.291895
0.264017
0.313205
0.325936
0.401579
0.25004
0.400029
0.375573
0.20376
0.312238
0.285946
0.285118
0.392523
0.355562
0.409691
0.357711
0.276633
0.345465
0.379135
0.404251
0.365235
0.413989
0.402499
0.335072
0.384553
0.36369
0.309072
0.270981
0.337731
0.277065
0.373041
0.332175
0.283123
0.283011
0.290439
0.279675
0.271428
0.411999
0.295527
0.311235
0.400825
0.396073
0.288703
0.310822
0.416112
0.33645
0.193764
0.341918
0.292885
0.277517
0.414502
0.321921
0.329763
0.396612
0.276267
0.372271
0.299141
0.383129
0.346697
0.323931
0.117666
0.29851
0.283554
0.344872
0.356645
0.358407
0.386778
0.414919
0.276284
0.329201
0.286378
0.239361
0.261089
0.409985
0.352351
0.34644
0.290079
0.370642
0.270632
0.265966
0.277466
0.292197
0.347971
0.419669
0.331175
0.369408
0.407439
0.407913
0.389493
0.417221
0.271789
0.31807
0.277948
0.403119
0.391664
0.404726
0.332483
0.353022
0.27216
0.374448
0.301326
0.245404
0.401172
0.359437
0.236555
0.295898
0.297187
0.283157
0.301563
0.347374
0.363474
0.274254
0.31696
0.272018
0.313391
0.285846
0.351573
0.286921
0.27276
0.413275
0.412344
0.402664
0.348485
0.376303
0.193076
0.404018
0.379152
0.26479
0.414533
0.172606
0.410013
0.287943
0.362776
0.341452
0.400536
0.376225
0.27644
0.407895
0.276307
0.414227
0.364805
0.335668
0.31874
0.261734
0.325205
0.415685
0.329264
0.404901
0.397265
0.26894
0.254371
0.395025
0.181803
0.350111
0.36305
0.280406
0.41564
0.231565
0.223033
0.403689
0.337593
0.409922
0.40725
0.356445
0.404071
0.413768
0.40979
0.407277
0.389125
0.273433
0.316439
0.351433
0.410692
0.33101
0.169042
0.407902
0.296959
0.362873
0.31262
0.414567
0.403458
0.310611
0.409231
0.364807
0.416113
0.296041
0.405219
0.357265
0.410395
0.404001
0.399576
0.312029
0.38682
0.291782
0.300015
0.365074
0.331817
0.370912
0.265404
0.176642
0.277757
0.338986
0.379379
0.352583
0.418147
0.312657
0.297228
0.366684
0.277636
0.413284
0.264585
0.357093
0.395627
0.413903
0.357337
0.408177
0.274697
0.356837
0.406928
0.320596
0.286933
0.361568
0.323863
0.395009
0.403155
0.323007
0.289798
0.365969
0.274534
0.274831
0.411302
0.408145
0.404103
0.281964
0.405909
0.403612
0.414346
0.264386
0.388887
0.378492
0.406128
0.353073
0.270085
0.27691
0.310225
0.158116
0.408755
0.368613
0.368753
0.405863
0.398693
0.339202
0.357058
0.402795
0.412972
0.411136
0.382317
0.349483
0.365876
0.393488
0.352316
0.330671
0.30045
0.31715
0.344257
0.37152
0.310104
0.405978
0.412769
0.261947
0.411045
0.297814
0.28463
0.311586
0.407608
0.348434
0.383301
0.368778
0.411195
0.354048
0.370048
0.406515
0.274558
0.272835
0.278868
0.278173
0.249542
0.0959521
0.285956
0.258093
0.373276
0.259897
0.302669
0.369331
0.342686
0.283827
0.31242
0.297933
0.110319
0.412773
0.369859
0.361636
0.274398
0.367249
0.35153
0.268896
0.406101
0.289072
0.408082
0.334482
0.411287
0.278967
0.211296
0.299096
0.34662
0.353344
0.374498
0.213284
0.358617
0.310066
0.280172
0.274377
0.279715
0.298431
0.410718
0.260857
0.39878
0.405538
0.355612
0.346274
0.406656
0.274471
0.100103
0.361476
0.273265
0.251905
0.404144
0.402574
0.360063
0.388359
0.332547
0.408687
0.414512
0.363831
0.328515
0.409152
0.415444
0.392786
0.383035
0.353478
0.406191
0.322481
0.260865
0.412789
0.410908
0.414881
0.365696
0.321787
0.311205
0.402819
0.392532
0.0680684
0.399939
0.359142
0.282037
0.375338
0.376138
0.40298
0.404602
0.382074
0.323411
0.401401
0.413809
0.390627
0.40257
0.412373
0.217189
0.285792
0.358103
0.276561
0.215372
0.270656
0.358735
0.40717
0.278538
0.356884
0.269818
0.35492
0.40427
0.366993
0.282458
0.265498
0.335219
0.339986
0.302169
0.273527
0.389348
0.382463
0.389386
0.265839
0.389031
0.305352
0.29578
0.386058
0.405627
0.394913
0.400796
0.282616
0.408146
0.263587
0.416814
0.41187
0.413626
0.407582
0.27921
0.278373
0.361313
0.256593
0.318509
0.277876
0.332912
0.267974
0.386569
0.355202
0.261712
0.412133
0.357649
0.352957
0.363641
0.398983
0.402067
0.388307
0.361078
0.263198
0.410375
0.295247
0.405755
0.252977
0.37402
0.412292
0.404603
0.408181
0.408244
0.3581
0.241832
0.267097
0.363612
0.282457
0.414314
0.251485
0.270217
0.349129
0.32293
0.359881
0.257913
0.384464
0.40225
0.387665
0.178278
0.347598
0.250217
0.282194
0.363353
0.348379
0.35608
0.346474
0.408803
0.27817
0.407897
0.355658
0.28182
0.396405
0.35983
0.402272
0.356127
0.359287
0.279199
0.322831
0.351037
0.410111
0.307856
0.361809
0.354692
0.405648
0.341054
0.363035
0.294451
0.40464
0.256637
0.275581
0.252562
0.397173
0.262982
0.276024
0.278546
0.284993
0.41422
0.353148
0.38896
0.410875
0.385314
0.283512
0.403067
0.298632
0.367032
0.391791
0.336495
0.268179
0.350857
0.367894
0.281709
0.338604
0.237701
0.270497
0.379912
0.262387
0.293239
0.409465
0.311442
0.332412
0.364499
0.407727
0.34271
0.294979
0.386395
0.282921
0.301741
0.355202
0.347887
0.378722
0.390312
0.419031
0.356382
0.407835
0.382069
0.406721
0.407885
0.408585
0.291575
0.328136
0.36587
0.269812
0.405809
0.413519
0.408097
0.374698
0.277378
0.26586
0.368316
0.406945
0.273207
0.407377
0.401907
0.395043
0.285262
0.307972
0.293459
0.256953
0.374416
0.277246
0.389308
0.275229
0.39065
0.306573
0.365177
0.256493
0.373296
0.379517
0.389817
0.338994
0.387894
0.413271
0.415693
0.387209
0.338643
0.408232
0.381901
0.303385
0.311919
0.360884
0.281373
0.417661
0.350185
0.384134
0.402262
0.403229
0.34277
0.234109
0.408935
0.357095
0.322663
0.361743
0.377779
0.407868
0.409903
0.356484
0.384261
0.260269
0.302385
0.364736
0.394371
0.367695
0.386013
0.334979
0.41714
0.372875
0.352602
0.41235
0.379779
0.282286
0.336696
0.411886
0.342807
0.260995
0.334249
0.413113
0.333311
0.361226
0.40686
0.407754
0.408667
0.374689
0.265192
0.392414
0.294934
0.336859
0.412133
0.370696
0.272115
0.273079
0.333755
0.392741
0.309093
0.286689
0.405773
0.328621
0.402442
0.405628
0.270233
0.249744
0.342221
0.401517
0.415035
0.371755
0.365025
0.251062
0.362822
0.331688
0.402408
0.411793
0.410402
0.292705
0.262947
0.386391
0.405407
0.41359
0.409297
0.403537
0.338971
0.29881
0.254101
0.261659
0.400933
0.378172
0.223774
0.306532
0.404152
0.351465
0.284654
0.270282
0.37443
0.308955
0.39769
0.391569
0.383057
0.410974
0.411289
0.360317
0.394273
0.349347
0.357995
0.339007
0.389516
0.320487
0.408886
0.216232
0.347107
0.217047
0.343911
0.413017
0.360994
0.410115
0.414522
0.411365
0.297572
0.352576
0.365131
0.260768
0.412242
0.368777
0.333535
0.390506
0.153627
0.307702
0.388638
0.39718
0.415945
0.258561
0.280043
0.357063
0.408465
0.236505
0.325783
0.313144
0.229222
0.287618
0.389703
0.293945
0.366616
0.271075
0.396673
0.408037
0.154599
0.384267
0.35041
0.297912
0.278252
0.367139
0.286231
0.359967
0.304046
0.344405
0.342168
0.368754
0.367515
0.412492
0.323765
0.273245
0.333594
0.257673
0.27192
0.363677
0.265003
0.34185
0.299989
0.358789
0.400833
0.370433
0.345124
0.206688
0.39099
0.371215
0.336149
0.404174
0.359962
0.3428
0.247382
0.222644
0.407599
0.295315
0.360237
0.396057
0.289773
0.395448
0.213472
0.402868
0.346457
0.408494
0.314462
0.368785
0.361148
0.276478
0.309937
0.343237
0.419073
0.250017
0.283659
0.350569
0.415009
0.401947
0.24624
0.327598
0.356708
0.39
0.333693
0.414786
0.411217
0.40874
0.40605
0.386732
0.341691
0.323852
0.412368
0.325112
0.354964
0.248409
0.283086
0.315429
0.276905
0.405642
0.222686
0.405413
0.32486
0.407575
0.339528
0.406031
0.407174
0.372657
0.409112
0.412274
0.404024
0.36051
0.411594
0.332541
0.359205
0.286917
0.299604
0.416036
0.224174
0.388667
0.39479
0.360449
0.369935
0.331396
0.398272
0.377223
0.392609
0.257486
0.289357
0.361949
0.398642
0.249688
0.398955
0.288384
0.359631
0.272959
0.346363
0.356854
0.408899
0.412806
0.270297
0.386841
0.355632
0.342607
0.412156
0.257845
0.27985
0.41234
0.259024
0.340844
0.406853
0.409094
0.40597
0.285889
0.2998
0.28149
0.308889
0.262566
0.354386
0.361176
0.344423
0.285174
0.36585
0.351284
0.313294
0.264017
0.350669
0.359933
0.281411
0.408272
0.407441
0.278716
0.398374
0.21089
0.285665
0.244046
0.272931
0.40767
0.350263
0.352763
0.332121
0.397017
0.410615
0.383813
0.394934
0.267651
0.326566
0.339601
0.352444
0.283211
0.414059
0.357024
0.338376
0.405998
0.406865
0.309116
0.407166
0.266032
0.385621
0.383546
0.392057
0.268865
0.398311
0.345115
0.39107
0.364344
0.306351
0.280633
0.302449
0.406488
0.412625
0.411077
0.350869
0.372471
0.407521
0.374442
0.37017
0.332699
0.293755
0.362567
0.409429
0.271441
0.415431
0.357992
0.418802
0.404728
0.412081
0.353113
0.375916
0.412319
0.192033
0.404997
0.246905
0.411093
0.411096
0.360519
0.31225
0.342707
0.363781
0.257577
0.264817
0.361747
0.279417
0.408418
0.280176
0.294791
0.25921
0.274455
0.353564
0.408597
0.408398
0.27829
0.36735
0.375016
0.390148
0.338215
0.351601
0.411764
0.410703
0.357342
0.411461
0.409974
0.409759
0.277935
0.344294
0.272685
0.4004
0.405666
0.412202
0.358365
0.405734
0.349197
0.265402
0.310732
0.248437
0.319424
0.27912
0.411874
0.402138
0.370116
0.408607
0.409604
0.380475
0.407381
0.291877
0.396007
0.360873
0.412676
0.328503
0.277907
0.394954
0.381472
0.4106
0.415328
0.414268
0.27704
0.273569
0.2582
0.398841
0.410701
0.246117
0.328182
0.411944
0.263395
0.329671
0.283348
0.355804
0.390659
0.355312
0.382847
0.346807
0.373756
0.378356
0.405118
0.336896
0.318465
0.390217
0.378591
0.34386
0.41243
0.419857
0.246094
0.410568
0.260789
0.318285
0.418471
0.412078
0.351426
0.411286
0.281469
0.406041
0.323318
0.304767
0.41099
0.331081
0.405662
0.379411
0.396229
0.402903
0.398871
0.283323
0.395438
0.305004
0.408568
0.402465
0.385223
0.34022
0.281736
0.304669
0.410827
0.291336
0.378828
0.276421
0.349167
0.409148
0.407101
0.378081
0.404317
0.406512
0.316205
0.334018
0.379547
0.279541
0.291755
0.383853
0.381046
0.321616
0.280489
0.248007
0.268108
0.40486
0.341489
0.409257
0.293251
0.412054
0.375817
0.416326
0.407477
0.321636
0.411839
0.302096
0.383276
0.327469
0.396923
0.277161
0.340971
0.332002
0.277827
0.336875
0.282857
0.270998
0.260379
0.412298
0.413561
0.323765
0.28434
0.406862
0.26685
0.250926
0.349493
0.402762
0.394695
0.266374
0.260105
0.416218
0.280299
0.384558
0.281412
0.277786
0.311106
0.30905
0.415508
0.372375
0.282588
0.41084
0.41599
0.298562
0.390368
0.34688
0.412492
0.354305
0.330763
0.275408
0.399571
0.41715
0.395084
0.299858
0.292599
0.331572
0.374849
0.406389
0.402587
0.2773
0.40585
0.296653
0.386947
0.388874
0.368787
0.324505
0.401129
0.265441
0.372063
0.27218
0.338419
0.282418
0.279722
0.389071
0.413422
0.298047
0.312399
0.383931
0.327107
0.246286
0.252212
0.308032
0.384193
0.183618
0.348312
0.376095
0.386071
0.352985
0.394195
0.403605
0.22864
0.229971
0.413827
0.355949
0.240664
0.337
0.394493
0.401912
0.386188
0.272725
0.333927
0.27561
0.407166
0.411829
0.408748
0.348511
0.403214
0.282204
0.371393
0.416107
0.269049
0.283908
0.406231
0.411482
0.271005
0.297697
0.265293
0.227536
0.266666
0.403839
0.323094
0.293389
0.297871
0.28153
0.401199
0.310106
0.283987
0.288705
0.406575
0.334607
0.406491
0.288486
0.332784
0.36713
0.376036
0.367936
0.393885
0.275715
0.406038
0.384877
0.369892
0.401924
0.310144
0.413619
0.396342
0.347001
0.408197
0.265742
0.317994
0.404198
0.396959
0.268336
0.346682
0.38151
0.404059
0.371793
0.408679
0.270167
0.277945
0.277612
0.256906
0.41607
0.307533
0.379998
0.41338
0.323541
0.231746
0.285413
0.360395
0.283258
0.352833
0.287257
0.294925
0.327955
0.409297
0.410556
0.379496
0.286483
0.323325
0.262338
0.33511
0.39689
0.388013
0.355943
0.384211
0.324713
0.372612
0.408688
0.411063
0.404655
0.414887
0.407109
0.343038
0.287483
0.284918
0.276577
0.406032
0.372276
0.299992
0.408571
0.291755
0.414325
0.404355
0.297449
0.275383
0.317121
0.334841
0.410718
0.360666
0.403106
0.365542
0.412519
0.390574
0.403138
0.297226
0.366647
0.346046
0.25772
0.323633
0.407773
0.23494
0.147036
0.385356
0.390488
0.40906
0.328822
0.276035
0.278803
0.299178
0.277462
0.30611
0.36984
0.286208
0.406878
0.322212
0.286881
0.377128
0.326909
0.321932
0.410038
0.363165
0.378675
0.273535
0.378939
0.357686
0.290132
0.329513
0.303987
0.289477
0.287776
0.239843
0.412252
0.405213
0.412921
0.389402
0.406604
0.276172
0.404833
0.364304
0.370959
0.266252
0.398526
0.348992
0.331998
0.409441
0.409774
0.406361
0.387937
0.362769
0.404722
0.30456
0.39306
0.408101
0.400779
0.34127
0.271443
0.401744
0.336588
0.295416
0.397708
0.346308
0.414532
0.301794
0.41249
0.404937
0.366413
0.297143
0.410464
0.274434
0.295443
0.325964
0.285777
0.312679
0.29604
0.287365
0.366829
0.282712
0.27815
0.341117
0.389066
0.3432
0.310952
0.394739
0.380955
0.287592
0.409079
0.405031
0.405279
0.283366
0.285655
0.401986
0.271622
0.356454
0.254943
0.357434
0.261352
0.407325
0.344288
0.353941
0.278623
0.266667
0.299938
0.352442
0.281034
0.376433
0.386493
0.372011
0.409276
0.379092
0.377751
0.314937
0.414296
0.352341
0.352886
0.403738
0.307857
0.329283
0.280167
0.403687
0.403706
0.358443
0.369585
0.33621
0.343795
0.27486
0.323926
0.275017
0.406524
0.297327
0.345446
0.353302
0.366222
0.28172
0.324238
0.352638
0.359651
0.344487
0.400543
0.362147
0.327556
0.385307
0.406657
0.350585
0.267284
0.393404
0.274712
0.351441
0.26982
0.317263
0.350853
0.263148
0.309066
0.40848
0.41117
0.266325
0.341437
0.272517
0.261377
0.266541
0.27703
0.304731
0.290093
0.308143
0.397776
0.407531
0.336734
0.406015
0.355581
0.407122
0.3493
0.408362
0.39416
0.291779
0.387306
0.410217
0.357535
0.394941
0.269557
0.412299
0.327553
0.154021
0.373863
0.404856
0.415268
0.405305
0.391996
0.391453
0.289397
0.348668
0.376902
0.403356
0.166477
0.337386
0.266946
0.352742
0.365365
0.274592
0.274854
0.309196
0.287482
0.290067
0.357686
0.352412
0.404366
0.410321
0.269801
0.413838
0.278947
0.323886
0.409628
0.336067
0.351969
0.380756
0.178792
0.297027
0.372869
0.411784
0.285047
0.310433
0.358063
0.397365
0.275089
0.413324
0.279013
0.355557
0.359204
0.32669
0.383769
0.399369
0.407421
0.271075
0.398133
0.383677
0.39486
0.281211
0.376362
0.311135
0.271119
0.26808
0.343476
0.37175
0.361155
0.403952
0.35248
0.305128
0.379427
0.293649
0.288284
0.346887
0.365735
0.284961
0.409748
0.284048
0.280838
0.30943
0.356417
0.287365
0.255017
0.394879
0.332631
0.375134
0.287035
0.269701
0.37168
0.224029
0.401276
0.396086
0.283799
0.282667
0.419385
0.322344
0.283836
0.271282
0.267084
0.300439
0.383936
0.41126
0.284372
0.286257
0.398289
0.356731
0.278741
0.285506
0.34683
0.40626
0.404794
0.282945
0.263658
0.389324
0.417488
0.362958
0.373743
0.355536
0.272517
0.354726
0.396157
0.369929
0.277714
0.408498
0.356784
0.25548
0.384257
0.293334
0.411262
0.403011
0.286423
0.350573
0.346648
0.347528
0.27802
0.360553
0.299654
0.40843
0.403364
0.404224
0.303593
0.286001
0.406358
0.406799
0.315471
0.382863
0.353065
0.262048
0.377163
0.358301
0.261767
0.232576
0.329628
0.303005
0.279339
0.284173
0.355922
0.297214
0.398213
0.302882
0.291353
0.35712
0.280421
0.410821
0.266967
0.357251
0.361008
0.272869
0.378711
0.3664
0.390204
0.371539
0.406128
0.288403
0.284136
0.414399
0.274429
0.411807
0.389383
0.360639
0.339677
0.4123
0.358124
0.268402
0.416422
0.270634
0.365929
0.413765
0.274444
0.416524
0.290992
0.35628
0.190539
0.356158
0.277866
0.372195
0.304992
0.258595
0.305401
0.273105
0.265236
0.41344
0.274361
0.346927
0.381344
0.360036
0.405528
0.406088
0.350975
0.294402
0.413575
0.346175
0.411381
0.271443
0.358136
0.382979
0.323219
0.411099
0.354198
0.358476
0.303109
0.330352
0.256703
0.255892
0.41334
0.113732
0.400113
0.399231
0.299804
0.273314
0.309956
0.401924
0.377832
0.397543
0.363878
0.379264
0.367693
0.415472
0.409295
0.280487
0.382273
0.400547
0.368311
0.3814
0.362741
0.271872
0.280316
0.371432
0.360389
0.342968
0.415407
0.275461
0.273444
0.336107
0.334715
0.366995
0.400932
0.295212
0.290823
0.308033
0.340065
0.29469
0.410767
0.29713
0.313243
0.351136
0.320697
0.278827
0.285206
0.391161
0.301059
0.278802
0.411521
0.358473
0.36043
0.279317
0.275244
0.319233
0.411579
0.408805
0.359071
0.373407
0.368726
0.414801
0.402876
0.287812
0.411747
0.304081
0.382143
0.39312
0.412417
0.373462
0.410586
0.403199
0.279596
0.26586
0.346299
0.332334
0.308574
0.221367
0.220799
0.404784
0.410353
0.277384
0.412737
0.371836
0.406737
0.360963
0.283563
0.413873
0.409388
0.356072
0.280633
0.280426
0.405272
0.401108
0.402011
0.271034
0.307598
0.370279
0.412494
0.391857
0.378782
0.343707
0.401433
0.326049
0.333839
0.381126
0.330775
0.388791
0.204833
0.410666
0.35838
0.376501
0.412415
0.268813
0.278119
0.274913
0.326185
0.413599
0.300444
0.377736
0.209117
0.287515
0.343142
0.299824
0.286334
0.381006
0.306798
0.290311
0.353421
0.362834
0.407245
0.331261
0.362739
0.412596
0.335683
0.406753
0.376462
0.401468
0.361498
0.291184
0.402107
0.279305
0.322172
0.386045
0.411097
0.401968
0.36835
0.268295
0.404896
0.361547
0.314693
0.405698
0.405408
0.402802
0.397886
0.271459
0.259528
0.379584
0.280634
0.363398
0.374995
0.277927
0.411561
0.404297
0.409513
0.343244
0.358514
0.281987
0.330219
0.394592
0.287014
0.389268
0.408163
0.2988
0.356489
0.332087
0.390366
0.392399
0.358762
0.279646
0.40471
0.266474
0.200252
0.303159
0.403708
0.261994
0.410004
0.341762
0.266578
0.388406
0.383612
0.403536
0.172157
0.358981
0.380997
0.410354
0.330767
0.415282
0.383428
0.261227
0.369361
0.332242
0.340637
0.257228
0.398319
0.356535
0.288034
0.265357
0.371647
0.379984
0.244864
0.345907
0.411845
0.302945
0.413115
0.265911
0.261095
0.275271
0.365352
0.343227
0.272921
0.265461
0.245602
0.36141
0.360113
0.407883
0.346625
0.411922
0.274847
0.359133
0.273793
0.319485
0.249295
0.363367
0.402847
0.314984
0.308761
0.407245
0.316553
0.389703
0.397959
0.289746
0.342347
0.369596
0.354748
0.410818
0.404895
0.405052
0.358208
0.308966
0.359781
0.306855
0.421676
0.36598
0.304268
0.266627
0.305745
0.368246
0.402558
0.352122
0.403054
0.349806
0.344983
0.309935
0.274854
0.291497
0.306532
0.411784
0.292367
0.281413
0.282862
0.402878
0.3452
0.286995
0.278714
0.271532
0.405957