/*--------------------------------*- C++ -*----------------------------------*\
  =========                 |
  \\      /  F ield         | OpenFOAM: The Open Source CFD Toolbox
   \\    /   O peration     | Website:  https://openfoam.org
    \\  /    A nd           | Version:  6
     \\/     M anipulation  |
\*---------------------------------------------------------------------------*/
FoamFile
{
    version     2.0;
    format      ascii;
    class       volVectorField;
    location    "0";
    object      U;
}
// * * * * * * * * * * * * * * * * * * * * * * * * * * * * * * * * * * * * * //

dimensions      [0 1 -1 0 0 0 0];

internalField   nonuniform List<vector> 
13046
(
(0.455605 0.152867 0)
(0.577966 -0.170388 3.34971e-21)
(0.20984 -0.11413 7.47927e-21)
(0.445194 0.0720984 0)
(0.197213 -0.0428075 6.85491e-21)
(0.491489 -0.182566 0)
(0.486283 0.0942609 -1.00708e-21)
(0.536544 -0.217226 -1.70682e-21)
(0.171355 -0.0324334 7.52419e-21)
(0.934093 0.406469 -2.43976e-21)
(1.01828 -0.440288 0)
(-0.0239088 -0.0317636 -4.62543e-21)
(0.572031 0.195029 6.33194e-21)
(0.672731 -0.241404 5.01535e-21)
(0.136647 -0.0852033 -4.05906e-21)
(0.884812 0.456459 -1.40098e-21)
(0.013328 -0.0601463 -7.39686e-21)
(1.06357 -0.364877 -1.62774e-21)
(0.268574 0.0323536 0)
(0.372105 -0.162585 3.70279e-21)
(0.447832 -0.0220215 -1.0564e-20)
(0.895988 0.448094 1.38377e-21)
(0.00258122 -0.0523748 1.48127e-20)
(1.05511 -0.381737 -4.67847e-22)
(0.400293 0.0820848 -4.27473e-21)
(0.490736 -0.142043 6.29642e-21)
(0.230644 -0.089904 0)
(0.579188 0.223827 -1.4382e-22)
(0.697362 -0.238418 -1.47841e-21)
(0.139273 -0.100263 1.40726e-20)
(0.460845 0.173524 0)
(0.602015 -0.158552 0)
(0.21827 -0.134 -7.61208e-21)
(0.367519 0.0532025 1.49995e-20)
(0.254232 -0.0883451 -2.5643e-21)
(0.449646 -0.115502 -9.75917e-21)
(0.366852 0.0312018 3.89028e-23)
(0.260539 -0.0674241 0)
(0.422492 -0.113199 0)
(0.370928 0.174611 -5.39419e-21)
(0.363683 -0.24719 -6.82899e-21)
(0.609104 -0.0730316 5.01886e-21)
(0.357988 -0.0313494 -3.44592e-21)
(0.302676 -0.0387248 3.52351e-21)
(0.348522 -0.0835935 0)
(0.383404 -0.0227984 -2.20304e-21)
(0.278816 -0.0182086 0)
(0.357696 -0.109197 1.12962e-21)
(0.476652 0.148495 0)
(0.58431 -0.191366 2.3937e-22)
(0.180194 -0.0947765 3.40756e-23)
(0.531824 -0.377688 -8.24312e-21)
(0.312195 0.191094 0)
(0.691132 0.00107542 5.83194e-21)
(0.588431 -0.412803 1.17382e-20)
(0.712523 0.0253769 6.2904e-21)
(0.277211 0.17322 -8.23797e-21)
(0.958913 -0.22877 9.61404e-22)
(0.739241 0.440883 0)
(0.177007 -0.18553 -6.19494e-21)
(0.744635 0.210816 2.98654e-21)
(0.789168 -0.391083 -2.84606e-21)
(0.0659625 0.000724312 1.68121e-20)
(-0.000110211 -0.044239 -8.59077e-21)
(0.994123 -0.416915 1.43723e-21)
(0.900324 0.374056 4.35356e-21)
(0.70107 0.434421 0)
(0.926552 -0.194308 -4.58724e-21)
(0.223051 -0.224369 -1.80123e-21)
(0.668607 0.412594 2.25841e-21)
(0.895312 -0.181533 6.21652e-21)
(0.239563 -0.233103 2.45076e-21)
(0.992267 -0.237408 9.22187e-24)
(0.767964 0.459606 -8.67871e-23)
(0.160754 -0.180293 3.35904e-23)
(0.281018 0.054168 0)
(0.365093 -0.177846 -4.02857e-21)
(0.474933 -0.0389259 7.4871e-21)
(0.103954 -0.133861 -6.79048e-21)
(0.811726 0.46634 6.50788e-21)
(1.02491 -0.281108 1.98317e-21)
(0.427515 0.0925306 -2.23964e-21)
(0.507219 -0.162478 2.2442e-21)
(0.206941 -0.072008 0)
(-0.00609889 -0.0430551 7.65987e-21)
(1.01115 -0.422052 0)
(0.916761 0.389166 -2.5653e-21)
(0.941634 0.302878 4.46884e-21)
(-0.0014463 -0.00983353 0)
(0.951181 -0.491515 1.1619e-21)
(0.0323179 0.026267 0)
(1.00422 0.23917 0)
(0.917749 -0.573035 -1.44059e-22)
(0.750795 0.308745 5.85978e-21)
(0.788413 0.317324 -8.11197e-21)
(0.867546 -0.33191 -5.26177e-21)
(0.894818 -0.360372 2.45946e-21)
(0.0644093 -0.0739622 3.58847e-21)
(0.0443179 -0.0587428 -9.22302e-21)
(0.00830876 -0.000371558 4.35591e-22)
(0.940174 0.281896 -4.3724e-21)
(0.933114 -0.506375 0)
(0.400812 0.00119518 1.91738e-23)
(0.254177 -0.0193505 0)
(0.389921 -0.135275 0)
(0.213823 0.113811 -1.50185e-20)
(0.646523 0.0521074 2.95065e-21)
(0.576372 -0.356601 0)
(0.309869 0.169812 -2.27999e-21)
(0.477555 -0.322609 0)
(0.639462 -0.0185782 1.13125e-20)
(0.874176 0.400475 0)
(-0.0260905 -0.0231557 6.26163e-21)
(0.93251 -0.431662 4.59279e-22)
(0.528838 0.170929 -4.43348e-21)
(0.633909 -0.220411 -2.20039e-21)
(0.151174 -0.080717 -7.358e-21)
(0.788119 0.367637 -3.38225e-21)
(0.75261 0.338283 3.15669e-21)
(0.931537 -0.324763 -1.36985e-21)
(0.0670891 -0.0919684 -4.10948e-21)
(0.888576 -0.313045 1.41206e-21)
(0.0761167 -0.0918559 3.83895e-21)
(0.921657 0.415341 5.69594e-21)
(1.01453 -0.434948 1.28435e-21)
(-0.024424 -0.0303238 2.06276e-21)
(0.67131 0.275196 0)
(0.791338 -0.287056 3.66198e-21)
(0.100383 -0.0946416 -2.13738e-20)
(0.408505 0.191776 0)
(0.323743 -0.22589 6.87709e-21)
(0.62276 -0.0991997 -2.66567e-22)
(0.0459587 0.0365947 0)
(0.977763 0.224219 0)
(0.905015 -0.563115 0)
(0.855988 0.321798 0)
(0.933101 -0.413989 6.4226e-21)
(0.0165486 -0.0358889 9.24527e-21)
(0.500105 0.196185 0)
(0.639771 -0.179565 0)
(0.201797 -0.139602 0)
(0.602499 0.123444 0)
(0.629901 -0.31176 0)
(0.132619 0.0127413 0)
(0.289595 0.164807 2.10975e-21)
(0.519522 -0.349131 0)
(0.655712 0.0022703 -6.1096e-21)
(0.215996 0.101245 1.45504e-20)
(0.624566 0.047454 6.50273e-21)
(0.562046 -0.337967 -7.41755e-21)
(0.773278 0.231143 -6.75843e-21)
(0.820555 -0.400791 0)
(0.0510475 -0.0116234 -2.18382e-20)
(0.195432 0.0488932 0)
(0.550292 0.0509991 -1.432e-20)
(0.518853 -0.274146 -1.92326e-21)
(0.686348 -0.452561 -3.22779e-21)
(0.751066 0.0870773 -6.62422e-21)
(0.73267 -0.468396 0)
(0.778121 0.118287 -3.81993e-21)
(0.194658 0.126227 -7.07178e-21)
(0.155699 0.100573 6.79255e-21)
(0.629951 0.0948662 -9.06203e-22)
(0.617878 -0.343158 -3.80982e-21)
(0.152953 0.0490745 4.20115e-21)
(0.953943 0.391088 2.4864e-21)
(-0.0261953 -0.0294061 -2.40667e-21)
(1.00043 -0.458874 2.07137e-21)
(0.893872 0.409029 1.50648e-21)
(-0.026106 -0.0248018 9.41058e-22)
(0.97302 -0.4317 0)
(0.865788 0.341258 -1.31254e-22)
(0.951806 -0.410308 0)
(0.0123977 -0.0423076 -1.11671e-20)
(0.474031 0.261661 0)
(0.705713 -0.110422 -1.51683e-21)
(0.33521 -0.263239 -3.97275e-21)
(0.609532 0.0771652 -5.8926e-21)
(0.174553 0.0658642 0)
(0.584993 -0.324312 0)
(-0.0249872 -0.0233662 0)
(0.984428 -0.491891 0)
(0.977965 0.355923 -2.01351e-21)
(0.437634 0.235115 0)
(0.673118 -0.0946939 3.37963e-21)
(0.348923 -0.256648 -1.03332e-21)
(0.192709 0.063167 0)
(0.567303 0.0510297 0)
(0.526949 -0.289976 0)
(0.569203 0.102446 -2.97256e-21)
(0.594137 -0.290432 0)
(0.144194 0.00834053 0)
(0.716045 -0.283468 2.30682e-23)
(0.105611 -0.0629979 5.00567e-21)
(0.641426 0.250526 -9.16125e-21)
(0.758964 -0.274387 0)
(0.10916 -0.0887324 2.20853e-20)
(0.944765 0.348143 5.05388e-21)
(-0.0127131 -0.0257237 -6.9423e-21)
(0.986508 -0.467587 5.12885e-21)
(0.0334643 0.0242864 -6.35942e-21)
(0.945079 0.241158 -2.76147e-21)
(0.908502 -0.533901 -5.96688e-21)
(0.988652 0.275969 7.19269e-21)
(0.941723 -0.535259 0)
(0.00610522 0.00571318 6.23044e-21)
(0.556115 -0.421975 3.31246e-21)
(0.748361 -0.00442427 -2.56746e-21)
(0.356085 0.245309 -6.91668e-21)
(0.556911 0.143251 5.83621e-21)
(0.799096 0.476968 -3.3918e-21)
(0.124047 -0.148612 4.18377e-21)
(1.02841 -0.269763 -9.21276e-24)
(0.950563 -0.534786 0)
(0.99844 0.297031 1.97963e-21)
(-0.00527814 -0.00448525 0)
(0.395643 0.0288854 1.10902e-20)
(0.239626 -0.0409482 0)
(0.422949 -0.139107 -3.66182e-21)
(0.556649 0.22924 0)
(0.690127 -0.21738 2.13214e-22)
(0.167224 -0.119641 -4.16632e-21)
(0.0452067 0.0347591 -4.88753e-21)
(0.953399 0.227964 0)
(0.899347 -0.54928 6.87509e-21)
(0.592305 0.166041 0)
(0.699507 -0.291056 -9.07397e-21)
(0.105827 -0.0495215 0)
(-0.030058 -0.0270439 0)
(0.963831 -0.464844 -1.28547e-21)
(0.945884 0.387782 0)
(0.318109 0.218886 7.48324e-21)
(0.751587 0.0141894 0)
(0.591908 -0.444382 0)
(0.962761 0.267491 -6.3097e-21)
(0.931956 -0.524014 0)
(0.0120012 0.00729749 4.04497e-23)
(0.700852 0.107477 -7.61411e-21)
(0.675237 -0.405078 -2.83968e-21)
(0.147822 0.0751381 9.61389e-21)
(0.667702 0.293356 0)
(0.800325 -0.272962 -3.4276e-21)
(0.114518 -0.108757 -2.22379e-21)
(0.843213 -0.562833 9.23925e-21)
(0.917617 0.162214 4.99423e-21)
(0.114154 0.0885238 -3.83928e-21)
(0.818813 0.127223 0)
(0.766205 -0.498895 3.84649e-21)
(0.150523 0.103021 1.39997e-22)
(-0.030354 -0.0271042 4.84567e-21)
(0.940051 -0.473226 0)
(0.952127 0.374918 1.42091e-21)
(0.373951 0.212107 -1.00143e-20)
(0.433078 -0.309788 4.94354e-21)
(0.665893 -0.0521402 4.84127e-22)
(0.80342 0.425139 -1.46171e-21)
(-0.0192988 -0.0177346 5.19058e-22)
(0.950469 -0.375205 0)
(0.242385 0.0108741 -2.26859e-21)
(0.440695 0.00072073 8.5703e-21)
(0.401691 -0.169349 -1.10453e-20)
(0.699095 0.146082 -3.04285e-21)
(0.679506 0.114818 -3.38407e-23)
(0.709088 -0.386661 6.93305e-21)
(0.667614 -0.384001 6.79509e-21)
(0.13797 0.0582061 -7.65289e-21)
(0.106463 0.0347066 3.94613e-21)
(0.0802672 -0.114765 8.88851e-21)
(0.831671 0.470567 -3.48753e-21)
(1.04877 -0.29445 0)
(0.63172 0.286118 0)
(0.775469 -0.243133 0)
(0.146852 -0.128387 8.83434e-21)
(0.853345 0.152557 1.33779e-21)
(0.802358 -0.519665 0)
(0.123275 0.0862804 0)
(0.824809 0.348724 -2.90581e-21)
(0.936811 -0.366922 0)
(0.0346032 -0.0632328 -4.04578e-21)
(0.336779 -0.0172638 -2.34247e-21)
(0.365434 -0.0705077 -3.37517e-21)
(0.30742 -0.059928 1.1728e-21)
(0.756933 0.131528 4.86198e-21)
(0.73245 -0.445793 0)
(0.13114 0.0766198 6.54798e-21)
(0.638404 0.305283 0)
(0.795039 -0.235919 -4.23635e-21)
(0.155902 -0.142633 5.62767e-21)
(0.608551 0.192675 -9.41587e-21)
(0.646577 0.213151 7.58302e-21)
(0.383453 0.226546 7.92488e-21)
(0.44485 -0.326735 -1.42951e-20)
(0.684435 -0.0475636 1.06117e-20)
(0.782544 0.157632 4.98492e-21)
(0.767101 -0.456237 -5.7877e-21)
(0.101978 0.0565742 -5.9724e-21)
(0.850433 0.354687 1.07031e-20)
(0.0212416 -0.0538109 1.43317e-20)
(0.956946 -0.38673 3.01907e-21)
(0.310838 0.154225 3.49149e-21)
(0.452252 -0.302853 0)
(0.61814 -0.0218761 -3.81579e-21)
(0.213951 0.147043 7.64818e-21)
(0.768991 0.0787924 3.77781e-21)
(0.687607 -0.473412 0)
(0.733099 0.369467 1.10188e-21)
(0.900086 -0.270503 3.5366e-21)
(0.118312 -0.130649 -2.54054e-21)
(0.347417 0.215907 -6.47818e-22)
(0.506823 -0.368273 0)
(0.699659 -0.0151364 -8.08122e-21)
(0.764061 0.390317 0)
(0.787517 0.391004 0)
(0.93538 -0.285941 2.20064e-21)
(0.10395 -0.123347 6.62101e-21)
(0.949475 -0.311089 -3.10637e-21)
(0.0799414 -0.104222 -7.01804e-21)
(-0.0220855 -0.0266315 5.35253e-21)
(0.994098 -0.476132 0)
(0.96502 0.366456 3.05587e-21)
(0.716865 0.327788 0)
(0.856955 -0.29083 1.67362e-21)
(0.098505 -0.106259 -2.29445e-21)
(0.824308 -0.397445 -4.06829e-22)
(-0.0192929 -0.0178971 -7.70695e-21)
(0.77335 0.382685 -2.38538e-21)
(0.509924 0.0202718 1.16018e-20)
(0.222059 0.0475 0)
(0.460178 -0.233849 4.03989e-21)
(0.699378 0.194916 -7.09097e-21)
(0.751098 -0.360281 0)
(0.0770608 -0.00817529 -1.29365e-20)
(-0.00519226 -0.0301441 4.43422e-21)
(0.919288 0.343172 -9.34921e-21)
(0.974441 -0.449401 -4.09275e-21)
(0.609087 -0.433 4.29997e-21)
(0.732733 0.0315582 0)
(0.274818 0.1858 9.33603e-21)
(0.86372 -0.56082 1.08787e-20)
(0.932118 0.18566 3.01266e-21)
(0.0859717 0.0658982 0)
(0.640451 -0.263304 4.76146e-21)
(0.127685 -0.0428238 0)
(0.720169 0.243887 -7.61218e-21)
(0.792939 -0.343928 -3.15201e-21)
(0.0655092 -0.044673 -3.94656e-21)
(0.630066 -0.278552 -1.64925e-22)
(0.125464 -0.0268413 -1.55668e-23)
(0.878158 0.448914 7.01481e-21)
(0.0239088 -0.0693685 -1.04456e-20)
(1.05395 -0.354822 2.39288e-21)
(0.542258 -0.433521 -4.31068e-21)
(0.770487 -0.0178818 -7.98062e-22)
(0.390982 0.273217 0)
(0.753067 0.262839 7.75568e-21)
(0.833948 -0.362128 3.84443e-21)
(0.0519737 -0.0390178 9.5652e-21)
(0.621555 0.118675 0)
(0.632838 -0.332424 2.79067e-21)
(0.134118 0.0277773 0)
(0.657641 0.0314479 3.77066e-21)
(0.5565 -0.366861 0)
(0.249418 0.137071 0)
(0.462393 0.122224 3.10451e-21)
(0.551086 -0.185829 5.27581e-21)
(0.18612 -0.0792587 -1.02968e-23)
(0.245357 0.169981 -9.49122e-21)
(0.75921 0.0579642 -9.14423e-21)
(0.658302 -0.462043 -1.15476e-20)
(0.963043 0.323132 3.73168e-21)
(0.969174 -0.490727 -4.32475e-21)
(-0.0113121 -0.0166507 -1.04447e-22)
(0.871353 -0.543691 -7.41588e-21)
(0.921452 0.198699 -3.05356e-21)
(0.070219 0.053119 -4.91819e-21)
(0.598086 0.376761 7.0006e-21)
(0.307453 -0.274714 -3.65678e-21)
(0.841235 -0.142127 0)
(0.799162 0.435692 -1.90586e-21)
(0.774889 0.419603 1.77699e-21)
(0.963799 -0.273846 6.94497e-22)
(0.99256 -0.284519 -2.79035e-21)
(0.101853 -0.127806 2.40205e-21)
(0.117089 -0.13856 2.14263e-21)
(-0.0207461 -0.0173036 7.82889e-21)
(0.865514 -0.391135 4.48056e-22)
(0.788105 0.390412 -1.00319e-21)
(0.819549 0.433302 1.04748e-22)
(-0.0182843 -0.0203357 0)
(0.982113 -0.37545 0)
(0.736905 0.165661 1.12797e-20)
(0.751287 -0.408076 1.50878e-21)
(0.094846 0.0334402 0)
(-0.016821 -0.0289016 1.33654e-20)
(0.95002 0.362294 -3.85075e-21)
(0.997955 -0.463619 0)
(0.676197 0.384687 -9.88789e-21)
(0.708408 0.394357 7.37404e-21)
(0.877183 -0.212656 -3.82251e-21)
(0.902169 -0.232833 -1.4461e-21)
(0.200779 -0.194421 4.23463e-21)
(0.168565 -0.171176 2.12437e-21)
(-0.012082 -0.0109132 0)
(0.93241 -0.543897 0)
(1.02565 0.29308 -1.01893e-21)
(0.750297 0.419339 1.71645e-21)
(-0.017401 -0.0136052 -4.86016e-21)
(0.919865 -0.353489 0)
(0.42599 -0.0546803 1.16153e-23)
(0.301218 0.0285861 -5.00857e-21)
(0.323336 -0.125693 -2.4751e-21)
(0.826231 0.405301 2.62522e-21)
(0.922581 -0.407448 -6.71886e-22)
(-0.0229396 -0.0195289 -9.7337e-21)
(0.524318 0.278636 -8.66939e-21)
(0.727998 -0.144937 6.89205e-21)
(0.279457 -0.226944 4.69904e-23)
(0.985169 0.343472 -9.4491e-23)
(0.976805 -0.502652 -5.58358e-21)
(-0.0215102 -0.0200177 2.72473e-21)
(0.722416 -0.404993 -2.18413e-23)
(-0.0176975 -0.0218937 8.88536e-21)
(0.753717 0.31968 6.26118e-22)
(0.33483 0.144854 4.66293e-21)
(0.376216 -0.237218 2.9343e-22)
(0.576423 -0.0557398 -1.23428e-20)
(0.461739 0.0267723 0)
(0.44721 -0.19471 1.22297e-20)
(0.217128 0.00739776 -6.31125e-21)
(0.905748 0.430657 -5.81782e-21)
(-0.0206918 -0.0315191 -6.14814e-21)
(1.0248 -0.420102 6.2695e-23)
(0.486036 0.0377159 0)
(0.468426 -0.215019 4.22907e-21)
(0.204084 0.0221206 8.93217e-21)
(0.4025 -0.0513791 -5.07512e-21)
(0.30253 0.00896514 5.28997e-21)
(0.324229 -0.107583 -1.3105e-21)
(0.302597 0.217865 4.5552e-21)
(0.7821 0.0318056 3.17541e-21)
(0.638442 -0.482523 -6.32229e-21)
(0.491616 -0.0225725 0)
(0.391177 -0.196178 0)
(0.264404 0.0684529 -7.41775e-22)
(0.512887 0.00535487 -6.2443e-21)
(0.436132 -0.222575 -3.27541e-21)
(0.245058 0.0663599 -1.04946e-22)
(0.562268 0.357207 -1.06568e-20)
(0.81359 -0.122648 5.08539e-21)
(0.344306 -0.30273 7.32002e-21)
(-0.0122632 -0.0405768 -9.3241e-21)
(-0.0176212 -0.0369745 9.48516e-21)
(1.03841 -0.417713 -1.44858e-21)
(1.02742 -0.432127 -1.06618e-21)
(0.919307 0.424988 -5.22821e-21)
(0.930732 0.414222 7.81366e-21)
(0.979885 0.325064 -4.64279e-21)
(0.971113 -0.500771 3.61602e-21)
(-0.0148604 -0.0145663 0)
(0.295163 -0.277168 -4.73268e-21)
(0.629413 0.406519 -2.17669e-21)
(0.874414 -0.150731 0)
(0.395745 0.212326 0)
(0.389062 -0.279583 4.51942e-21)
(0.656526 -0.0713718 -3.77424e-21)
(0.834615 0.108215 0)
(0.757646 -0.521193 -3.98031e-21)
(0.182443 0.13059 -1.4483e-22)
(0.800418 -0.463009 -1.04471e-21)
(-0.0261202 -0.0298848 0)
(0.895847 0.322766 2.2164e-21)
(0.0165754 0.0142372 0)
(1.00814 0.258675 0)
(0.926811 -0.563969 -2.54348e-21)
(0.919604 0.402848 -1.86617e-21)
(-0.0279642 -0.0270209 0)
(0.982634 -0.446845 1.26154e-21)
(-0.0142071 -0.0180406 3.30309e-32)
(0.677704 -0.378621 -8.19189e-23)
(0.69242 0.308355 -5.74971e-22)
(0.711813 -0.33233 1.12903e-22)
(-0.0126652 -0.0122183 -3.29523e-32)
(0.656393 0.352103 5.26088e-22)
(0.835253 -0.45364 7.70616e-21)
(0.822527 0.214177 0)
(0.0583499 0.0204724 1.26831e-20)
(0.895333 -0.520161 7.34412e-22)
(-0.0238528 -0.0246737 0)
(1.01292 0.3112 0)
(0.877118 0.314526 4.73769e-21)
(0.93472 -0.435553 -3.95198e-21)
(0.0110908 -0.026967 -6.5573e-21)
(0.862018 0.474879 -6.71708e-21)
(0.010372 -0.0522156 -3.7234e-21)
(1.08157 -0.34551 0)
(0.530083 0.148305 -2.37291e-21)
(0.144109 -0.0555471 2.5102e-21)
(0.61928 -0.239648 -2.30212e-21)
(0.934343 -0.552544 0)
(-0.00440083 -0.00348829 -4.52649e-21)
(1.02336 0.28288 -1.26442e-21)
(0.813467 0.0918542 3.67862e-21)
(0.206654 0.148842 2.59217e-21)
(0.729901 -0.50786 0)
(0.816543 -0.51103 0)
(0.854039 0.170376 0)
(0.0987542 0.0687675 -4.61537e-21)
(-0.0038028 -0.00671853 0)
(0.406246 -0.202003 -6.80319e-22)
(0.396559 0.191264 8.37362e-23)
(0.815103 -0.41934 -5.52051e-22)
(-0.0211824 -0.0211545 5.3715e-21)
(0.801219 0.367842 1.20396e-21)
(0.495451 0.123377 6.15295e-21)
(0.162922 -0.0557398 -5.99143e-21)
(0.573112 -0.218223 -2.67506e-21)
(0.950712 -0.519835 -4.44997e-21)
(1.00955 0.323504 2.06729e-21)
(-0.0210732 -0.0176084 0)
(-0.0136891 -0.0135278 4.72293e-21)
(1.0344 0.292315 0)
(0.914286 -0.546459 3.37952e-21)
(0.934405 0.384343 2.80904e-21)
(-0.0137138 -0.0358634 -1.42998e-20)
(1.01081 -0.439915 -4.69447e-21)
(0.051642 -0.0903148 1.07376e-20)
(1.03805 -0.327766 -2.94572e-21)
(0.851282 0.449012 0)
(0.542379 0.363054 1.34787e-20)
(0.816159 -0.105501 -6.48049e-21)
(0.388548 -0.338225 6.93259e-21)
(0.945566 -0.249379 -1.02348e-21)
(0.744658 0.423272 -4.24601e-21)
(0.153867 -0.166469 6.61615e-21)
(0.0470853 -0.087919 9.60217e-21)
(0.855035 0.476827 0)
(1.07442 -0.320948 1.73539e-21)
(0.555906 0.269308 2.18382e-21)
(0.59886 0.295743 0)
(0.726621 -0.182939 7.22993e-21)
(0.770004 -0.204018 -7.7312e-21)
(0.21737 -0.173238 -4.64774e-21)
(0.19509 -0.168463 0)
(0.521443 0.2619 2.13026e-21)
(0.709722 -0.156777 0)
(0.255847 -0.20061 -2.19557e-21)
(0.663478 0.39621 0)
(0.878821 -0.196377 6.17128e-21)
(0.226973 -0.217181 -1.52715e-21)
(0.853696 -0.52629 3.76501e-21)
(0.89514 0.191445 -3.28689e-21)
(0.0750357 0.0523382 1.00647e-20)
(0.958634 -0.52444 0)
(0.990267 0.313492 -7.13828e-22)
(-0.0126051 -0.0104267 0)
(0.0422002 0.0256714 3.25871e-21)
(0.911385 0.230377 2.00077e-21)
(0.889602 -0.51521 2.41858e-21)
(0.764672 -0.339787 -3.94667e-23)
(-0.0144544 -0.0119432 -3.81932e-24)
(0.68788 0.371742 0)
(0.396926 0.162462 -4.26406e-21)
(0.407188 0.152986 0)
(0.294052 -0.185425 1.08714e-21)
(0.583663 -0.106242 -1.4906e-20)
(0.268457 -0.162657 -1.37569e-21)
(0.572718 -0.123675 9.53011e-21)
(0.602518 0.354102 0)
(0.556719 0.324804 1.38175e-21)
(0.292697 -0.249088 -1.72198e-23)
(0.819441 -0.167649 -4.06723e-21)
(0.26484 -0.232186 -1.11684e-20)
(0.779783 -0.146715 8.71778e-21)
(0.706518 -0.42101 0)
(-0.0198974 -0.0260345 -9.69589e-21)
(0.791322 0.307654 0)
(0.958519 -0.514722 2.85172e-21)
(1.00232 0.325669 -6.95688e-22)
(-0.0202913 -0.0176706 -2.86009e-21)
(0.422329 0.251917 2.59333e-21)
(0.427979 -0.328692 5.09924e-21)
(0.708298 -0.0645917 -1.1924e-20)
(0.815976 -0.544937 -8.29143e-21)
(0.884398 0.146693 -8.40652e-21)
(0.131118 0.098998 0)
(0.066789 -0.103071 -1.14827e-20)
(1.02835 -0.314822 3.13342e-21)
(0.837408 0.44881 0)
(0.895548 -0.450364 0)
(0.894406 0.377299 0)
(-0.0274568 -0.0251527 0)
(0.908244 -0.467328 0)
(0.92624 0.367788 -2.68176e-21)
(-0.0295546 -0.027067 0)
(0.707792 0.3753 4.1232e-21)
(0.8872 -0.248936 -2.19923e-21)
(0.148788 -0.152993 -3.1444e-21)
(0.286407 0.134608 1.23013e-21)
(0.461652 -0.291844 0)
(0.598022 -0.00717821 -4.1104e-21)
(0.939396 0.394762 -3.27294e-21)
(-0.0174248 -0.0349378 -8.29047e-21)
(1.02054 -0.440959 6.71049e-21)
(0.849303 -0.477395 0)
(0.84981 0.216742 0)
(0.0556297 0.0291819 -1.09402e-20)
(0.0145688 -0.0553024 -2.73821e-21)
(0.985721 -0.392257 -5.08376e-21)
(0.872822 0.381031 -9.72756e-21)
(0.529736 0.315042 -1.40755e-21)
(0.326643 -0.27276 7.49034e-21)
(0.764941 -0.128846 -4.51308e-21)
(0.68575 0.0841293 7.36443e-21)
(0.638485 -0.392781 -4.20392e-21)
(0.182316 0.0973336 -9.38128e-21)
(0.362268 0.180416 -8.21477e-23)
(0.394877 -0.272378 1.49771e-21)
(0.624739 -0.0599959 4.94419e-21)
(-0.022698 -0.0297397 3.23445e-21)
(1.00715 -0.462008 -2.78744e-21)
(0.955182 0.382976 -3.34433e-21)
(0.819827 0.372873 1.84956e-21)
(0.954162 -0.34972 1.62178e-21)
(0.0462211 -0.0768791 0)
(0.344455 0.137251 4.62408e-21)
(0.344711 -0.209274 -9.52623e-21)
(0.560691 -0.0705587 8.15759e-21)
(0.857417 0.482927 -2.76727e-21)
(0.0353571 -0.0767086 -4.23991e-21)
(1.08644 -0.326471 -1.39567e-22)
(0.495286 0.214937 2.66008e-21)
(0.654582 -0.167738 0)
(0.223913 -0.161924 0)
(0.548171 0.078364 1.10239e-20)
(0.548304 -0.271645 -2.59133e-21)
(0.16763 0.0255256 0)
(0.80773 -0.482684 0)
(0.825893 0.172607 -7.12597e-21)
(0.0904897 0.0578673 4.8339e-21)
(0.843582 0.451638 0)
(-0.0120427 -0.0290181 1.30625e-21)
(1.03774 -0.37044 -9.09754e-22)
(0.841305 0.46295 -2.42192e-21)
(-0.00546148 -0.0341598 -4.16583e-21)
(1.05614 -0.356102 1.26731e-21)
(0.0210062 -0.0634435 -2.48647e-21)
(0.999137 -0.377571 2.82801e-21)
(0.868877 0.39718 8.96556e-21)
(0.712224 0.0711318 3.29588e-21)
(0.649884 -0.422491 8.43842e-21)
(0.205919 0.120319 0)
(-0.0141655 -0.0216716 -1.19653e-21)
(1.00703 -0.362467 8.54304e-22)
(0.804289 0.442795 0)
(0.00168939 -0.0240604 0)
(0.953801 -0.452854 3.00607e-21)
(0.907179 0.322414 1.09637e-21)
(-0.0109496 -0.0170746 -4.85784e-21)
(0.573939 -0.350568 -1.62832e-22)
(0.619207 0.256529 0)
(0.55531 0.327356 7.98962e-22)
(0.634138 -0.274966 0)
(-0.00894436 -0.00769341 -4.85844e-21)
(0.0414114 -0.0826611 6.39504e-24)
(1.05998 -0.334567 3.20658e-22)
(0.860861 0.463335 0)
(-0.0290042 -0.0272282 0)
(0.983647 -0.472437 0)
(0.962537 0.380926 -4.0489e-21)
(0.90984 0.42417 2.98785e-21)
(0.903385 0.413559 -2.41706e-21)
(-0.0028884 -0.0489654 4.68357e-21)
(1.04298 -0.398877 5.07031e-22)
(0.000885303 -0.051421 0)
(1.02899 -0.399061 0)
(0.913264 0.304454 -2.15345e-21)
(0.942564 -0.469029 -2.05523e-21)
(0.00409176 -0.0153656 0)
(0.16962 0.12905 0)
(0.785249 -0.547593 0)
(0.870245 0.121325 0)
(0.400137 0.118828 -5.78315e-21)
(0.246113 -0.126523 1.32215e-20)
(0.531657 -0.131988 -5.27563e-21)
(0.899292 0.258791 -6.23409e-21)
(0.903571 -0.488841 -8.11605e-22)
(0.0237015 0.00649812 -9.59775e-21)
(0.0378986 0.0184553 -6.23456e-21)
(0.890775 0.240131 8.67088e-21)
(0.884738 -0.495484 1.12539e-21)
(0.839074 0.48617 -3.38762e-21)
(0.0705266 -0.107466 -4.59074e-21)
(1.07151 -0.297867 0)
(0.617108 0.371771 0)
(0.841487 -0.168245 -1.83284e-21)
(0.266278 -0.240625 1.0948e-20)
(0.557852 0.303364 0)
(0.759621 -0.157771 -9.04943e-21)
(0.266795 -0.226083 1.51748e-23)
(0.814206 0.245953 8.58441e-21)
(0.855136 -0.429773 -1.0486e-21)
(0.0394789 -0.00643124 5.53385e-21)
(0.834595 0.241371 0)
(0.860762 -0.448111 -9.9389e-22)
(0.039987 0.00292515 -5.06256e-21)
(0.321512 0.11159 0)
(0.348838 -0.19665 1.50226e-20)
(0.52971 -0.0604961 0)
(0.610526 0.31361 0)
(0.787805 -0.202127 4.97036e-21)
(0.199931 -0.180639 -1.66844e-21)
(0.00593318 0.00508894 9.79633e-21)
(0.921501 -0.565269 5.64577e-21)
(1.03039 0.267133 0)
(0.945885 0.349378 5.4886e-23)
(-0.0291445 -0.028525 -2.98281e-21)
(0.876015 -0.480154 -8.14169e-22)
(0.936553 0.328908 1.91492e-22)
(-0.0277827 -0.0299498 0)
(0.841444 -0.47856 2.22154e-21)
(0.444141 0.222118 -3.15517e-21)
(0.314871 -0.226953 1.62061e-21)
(0.65629 -0.113576 1.473e-22)
(0.842419 -0.438025 -1.9195e-22)
(-0.0251159 -0.024931 -1.23244e-20)
(0.864221 0.361978 0)
(0.844457 0.396772 -7.8622e-21)
(0.0382965 -0.0751183 0)
(0.985619 -0.355772 0)
(-0.0243766 -0.0274982 4.8883e-21)
(0.794039 -0.449172 8.17494e-22)
(0.859948 0.332369 -1.61297e-21)
(0.436416 0.0504616 -7.70716e-21)
(0.212434 -0.0260812 -8.0295e-21)
(0.461098 -0.173155 -3.46223e-23)
(0.66609 0.240751 1.33422e-21)
(0.764913 -0.301929 1.18009e-21)
(0.0916034 -0.0665102 5.0654e-21)
(0.606236 -0.40649 -9.71244e-21)
(0.697425 0.0477033 -1.20071e-20)
(0.240236 0.141897 0)
(-0.0222033 -0.021299 0)
(0.915473 -0.525178 1.01047e-21)
(1.01814 0.313846 0)
(0.836017 -0.490201 0)
(0.85185 0.200418 0)
(0.0684615 0.041421 0)
(0.0182275 -0.0620499 0)
(0.870277 0.472568 2.41636e-21)
(1.0817 -0.345266 -1.62574e-21)
(0.707702 0.259982 0)
(0.799837 -0.326537 -6.04588e-22)
(0.0739946 -0.0589229 -6.69771e-24)
(0.385426 0.0995074 5.58681e-21)
(0.250422 -0.116321 -1.13584e-20)
(0.505989 -0.125333 0)
(0.942713 -0.514597 4.20646e-21)
(1.00175 0.335379 -1.96442e-21)
(-0.0253906 -0.0223014 0)
(-0.000396256 -0.0380471 5.70046e-21)
(0.976587 -0.431412 -1.88626e-22)
(0.900528 0.356772 -2.17684e-22)
(0.879405 0.433311 0)
(0.866146 0.430054 -2.10894e-21)
(-0.0196381 -0.0277007 -3.0034e-21)
(-0.0215401 -0.0245708 3.71721e-21)
(1.0169 -0.400876 6.94716e-22)
(0.997079 -0.40422 -5.71348e-22)
(0.669745 0.151697 0)
(0.692279 -0.362445 -8.06081e-21)
(0.107238 0.019645 -6.17071e-21)
(0.801032 -0.433975 -1.08464e-20)
(0.788041 0.193479 0)
(0.0703027 0.0259962 6.72362e-21)
(0.509273 0.0916635 6.26864e-21)
(0.544595 -0.237803 -4.39904e-21)
(0.160387 -0.0133679 -9.8115e-21)
(0.902206 -0.498534 -2.16613e-21)
(0.978285 0.34194 -2.04186e-21)
(0.886258 -0.508007 9.64239e-22)
(-0.0290413 -0.0276353 3.15943e-21)
(0.990267 0.324465 1.91524e-21)
(-0.0268485 -0.0276787 0)
(0.790129 0.299542 0)
(0.878387 -0.375356 0)
(0.0407818 -0.0472017 -6.24628e-21)
(0.988823 0.349223 -2.28529e-21)
(0.979308 0.351411 5.83259e-21)
(0.950732 -0.500703 -1.41643e-21)
(0.933433 -0.493606 3.87643e-21)
(-0.0286839 -0.025057 -8.35607e-21)
(-0.029837 -0.0266281 9.65514e-24)
(0.765637 0.17598 0)
(0.771288 -0.435091 1.03106e-20)
(0.0917875 0.0434636 -8.71713e-21)
(0.622175 0.173697 -5.82254e-21)
(0.716717 -0.315834 7.2118e-21)
(0.0916557 -0.033758 0)
(0.866641 0.465836 0)
(-0.000593212 -0.0430943 -5.76299e-22)
(1.06878 -0.362947 -1.21759e-21)
(0.671924 0.171944 -4.28418e-21)
(0.711222 -0.350896 0)
(0.0938133 0.00304598 1.02157e-20)
(0.547612 0.118279 -2.5335e-21)
(0.595088 -0.268311 5.16236e-21)
(0.138834 -0.0161809 -5.6774e-21)
(0.865711 0.443517 0)
(-0.0146776 -0.0303733 0)
(1.038 -0.388151 1.74649e-21)
(0.716025 0.282667 0)
(0.828682 -0.316759 -1.20536e-21)
(0.0734265 -0.0733302 6.20796e-21)
(0.714833 -0.516268 0)
(0.817355 0.0766527 0)
(0.237209 0.174663 3.32933e-22)
(0.529634 0.327625 3.45376e-22)
(0.778369 -0.116793 0)
(0.348912 -0.295246 -5.74968e-21)
(0.88422 -0.575769 -4.18183e-21)
(0.0703375 0.056043 0)
(0.968026 0.201277 0)
(-0.00732473 -0.0102078 1.16803e-20)
(0.537759 -0.270545 9.5286e-22)
(0.523155 0.254002 -1.17281e-22)
(0.689874 0.212435 0)
(0.751165 -0.337841 -4.42291e-21)
(0.0773395 -0.0295639 0)
(0.895179 0.448335 -4.63772e-21)
(-0.00425934 -0.0451642 -1.57803e-20)
(1.05962 -0.382894 3.34064e-21)
(0.46643 -0.38654 0)
(0.78714 -0.0622845 4.33069e-21)
(0.465834 0.318048 0)
(0.665613 0.385036 0)
(-0.0146396 -0.00910261 2.88629e-21)
(0.808597 -0.327857 0)
(0.230748 0.08699 -6.0699e-21)
(0.243472 0.107913 6.20506e-21)
(0.486725 -0.281697 0)
(0.567194 0.0210569 -5.23272e-21)
(0.505819 -0.308803 9.54145e-21)
(0.597758 0.0176214 4.16652e-21)
(0.509204 0.0694777 -5.90042e-21)
(0.516229 -0.236331 -5.9357e-21)
(0.177242 0.00911767 0)
(0.299241 0.127118 -5.37321e-21)
(0.263813 0.101738 0)
(0.415778 -0.255333 0)
(0.57035 -0.030092 0)
(0.434524 -0.252074 5.51474e-21)
(0.551595 -0.00937375 -3.21381e-23)
(0.657127 0.19942 -3.67104e-22)
(0.677306 -0.308844 3.19345e-21)
(0.106113 -0.0200626 6.98262e-21)
(0.628426 0.160599 1.00141e-20)
(0.676813 -0.320928 0)
(0.108382 -0.00582576 0)
(-0.0266703 -0.0302418 0)
(0.842773 -0.497826 0)
(0.969515 0.316332 -1.62938e-21)
(0.481727 0.234251 8.67554e-21)
(0.672356 -0.137809 0)
(0.273561 -0.202402 -2.99804e-21)
(0.978062 0.362148 5.52588e-21)
(0.974604 -0.490859 -1.93036e-21)
(-0.0287083 -0.0251042 4.77074e-21)
(0.829836 0.274072 0)
(0.860531 0.289659 -4.55992e-21)
(0.88421 -0.422655 1.30741e-21)
(0.910574 -0.436599 -3.90697e-21)
(0.0273682 -0.018446 6.86e-21)
(0.0178617 -0.0188973 6.32859e-21)
(0.469349 0.210967 0)
(0.645707 -0.145332 0)
(0.256272 -0.182659 -1.42886e-21)
(0.651168 0.358424 -3.34028e-21)
(0.842412 -0.206778 0)
(0.204516 -0.190606 -3.64622e-21)
(0.767689 0.255692 2.45437e-21)
(0.834484 -0.385812 0)
(0.0456618 -0.0259796 -6.3201e-21)
(0.332631 0.0491945 -6.04351e-21)
(0.446479 -0.0852886 -2.91711e-21)
(0.288507 -0.115372 -3.06237e-21)
(0.874085 0.264695 0)
(0.896944 -0.465919 0)
(0.0244003 -0.00111973 1.02062e-20)
(0.376024 0.121876 0)
(0.27893 -0.153427 -1.6644e-21)
(0.534336 -0.107954 0)
(0.759653 0.193702 5.57624e-21)
(0.78023 -0.4165 5.73783e-21)
(0.0747205 0.016829 8.75094e-22)
(0.649257 0.338411 -3.37932e-21)
(0.827031 -0.219783 -5.66357e-21)
(0.181405 -0.172036 0)
(0.341068 0.0735268 5.98931e-21)
(0.322725 0.0758205 2.6705e-21)
(0.475275 -0.0930143 -2.83885e-21)
(0.286733 -0.130992 6.06748e-21)
(0.483983 -0.0759208 0)
(0.312946 -0.153916 1.07824e-20)
(0.288799 0.0912847 2.69264e-21)
(0.376833 -0.20851 -6.99502e-21)
(0.266907 0.0897869 -1.73228e-21)
(0.517575 -0.0376582 0)
(0.424012 -0.238249 -3.53501e-21)
(0.534915 -0.0141117 5.98822e-21)
(0.544038 0.24789 -3.15133e-21)
(0.582619 0.257415 0)
(0.703019 -0.190367 -5.47278e-21)
(0.727067 -0.21738 4.27212e-21)
(0.201059 -0.154956 1.34394e-20)
(0.168438 -0.132512 -1.11794e-20)
(0.0402097 -0.0809137 0)
(1.02222 -0.344823 1.68791e-21)
(0.856225 0.429595 4.52685e-21)
(0.261629 0.187315 -1.12701e-20)
(0.786417 0.0557948 -5.00738e-21)
(0.673601 -0.489102 9.93403e-21)
(0.0241773 -0.0692255 5.35901e-21)
(0.0143941 -0.0615362 0)
(1.03417 -0.364058 -1.46014e-21)
(1.02242 -0.380568 -2.58561e-21)
(0.874766 0.433742 -1.14492e-20)
(0.884633 0.417282 5.92878e-21)
(0.366565 0.238274 0)
(0.51602 -0.386699 5.51997e-21)
(0.723041 -0.020897 -1.18362e-21)
(0.336961 0.00719077 -1.27408e-20)
(0.292153 -0.0750859 0)
(0.393826 -0.0810464 1.00018e-20)
(0.884131 0.285954 2.13618e-21)
(0.917158 -0.459756 4.4111e-21)
(0.0148995 -0.0108286 0)
(0.424734 0.184373 0)
(0.286215 -0.196917 1.3614e-21)
(0.612419 -0.117308 4.8238e-21)
(0.673605 0.345975 0)
(0.846067 -0.236348 0)
(0.160082 -0.156373 8.76379e-22)
(0.81854 0.429705 0)
(0.817244 0.412312 0)
(0.999554 -0.311443 -9.87607e-22)
(0.0765627 -0.107976 6.61148e-21)
(0.984362 -0.320531 2.69023e-21)
(0.0676623 -0.0990274 -8.95391e-21)
(0.820206 0.301665 -4.60396e-21)
(0.899838 -0.395148 -4.18891e-21)
(0.027744 -0.0378511 -2.98658e-21)
(0.731422 0.3972 -1.86807e-21)
(0.864997 -0.356211 0)
(-0.0177035 -0.0129297 3.55167e-21)
(0.491005 -0.395347 0)
(0.76568 -0.045289 -3.52405e-21)
(0.428443 0.289453 0)
(0.496368 0.331237 -3.4814e-21)
(0.475967 0.308854 3.77192e-21)