/*--------------------------------*- C++ -*----------------------------------*\
  =========                 |
  \\      /  F ield         | OpenFOAM: The Open Source CFD Toolbox
   \\    /   O peration     | Website:  https://openfoam.org
    \\  /    A nd           | Version:  6
     \\/     M anipulation  |
\*---------------------------------------------------------------------------*/
FoamFile
{
    version     2.0;
    format      ascii;
    class       volScalarField;
    location    "0";
    object      p;
}
// * * * * * * * * * * * * * * * * * * * * * * * * * * * * * * * * * * * * * //

dimensions      [0 2 -2 0 0 0 0];

internalField   nonuniform List<scalar> 
13046
(
0.508936
0.480396
0.487606
0.525204
0.498227
0.473266
0.508685
0.476144
0.497823
0.262024
-0.0283103
0.429175
0.511726
0.421228
0.475134
0.323613
0.422947
0.0515273
0.519505
0.495974
0.510862
0.314828
0.426636
0.0393077
0.511925
0.505707
0.490354
0.493551
0.428503
0.472422
0.517024
0.45261
0.47726
0.52021
0.504254
0.498745
0.519188
0.509485
0.506281
0.495001
0.468408
0.465457
0.510614
0.52343
0.512774
0.518852
0.508552
0.505268
0.501443
0.472142
0.488192
0.421211
0.476672
0.427188
0.432768
0.415066
0.477597
0.2502
0.435619
0.427943
0.463989
0.364302
0.466684
0.437693
0.162946
0.375556
0.443781
0.269249
0.423535
0.45604
0.290762
0.425542
0.21289
0.422454
0.427294
0.518979
0.506035
0.498342
0.42971
0.398892
0.188676
0.510748
0.494992
0.487576
0.433663
0.122859
0.34818
0.355025
0.44369
0.183779
0.439346
0.307228
0.167557
0.456447
0.442946
0.327859
0.302979
0.450859
0.451998
0.44571
0.358101
0.204941
0.523629
0.509193
0.498129
0.491693
0.445191
0.445992
0.484007
0.455974
0.451696
0.141688
0.425781
-0.19506
0.512593
0.443472
0.475105
0.438259
0.452304
0.277101
0.441708
0.317352
0.444448
0.237791
-0.0726456
0.427288
0.488757
0.358408
0.465316
0.495446
0.467176
0.458785
0.44147
0.324681
0.212062
0.419167
0.254548
0.448073
0.51069
0.439196
0.469994
0.486385
0.452673
0.482468
0.475541
0.439208
0.457275
0.490878
0.464928
0.464768
0.459214
0.335691
0.46327
0.505424
0.48781
0.470078
0.394534
0.417957
0.378346
0.414423
0.469389
0.466729
0.491014
0.418636
0.480176
0.254264
0.430415
-0.0157614
0.182621
0.426505
-0.154029
0.410435
0.225572
0.444671
0.493196
0.407408
0.454685
0.492619
0.48402
0.431411
0.433998
0.0366726
0.273644
0.493132
0.428768
0.449359
0.502189
0.474723
0.457949
0.493818
0.457096
0.48454
0.40535
0.478429
0.491573
0.386908
0.464306
0.340818
0.439056
0.135296
0.445776
0.354575
0.225367
0.30845
0.154907
0.439817
0.404314
0.394754
0.464908
0.500101
0.405003
0.421823
0.191457
0.111697
0.301895
0.437116
0.516394
0.509198
0.500918
0.495855
0.442276
0.468735
0.445746
0.341812
0.233832
0.491322
0.415398
0.482513
0.42847
-0.0950583
0.193157
0.46412
0.396059
0.392642
0.334567
0.193412
0.443624
0.445755
0.401996
0.477808
0.475698
0.371278
0.464275
0.292397
0.35754
0.444683
0.398708
0.355104
0.458436
0.429549
-0.10329
0.168773
0.493419
0.4569
0.431906
0.164502
0.422466
-0.246393
0.51052
0.518039
0.489499
0.457105
0.459958
0.399763
0.412797
0.481678
0.472201
0.421111
0.38437
0.14864
0.48432
0.392196
0.457978
0.398267
0.321813
0.456045
0.423349
0.265358
0.444351
0.513622
0.506608
0.521316
0.43407
0.37968
0.468853
0.485508
0.371472
0.455307
0.491994
0.492068
0.493799
0.445264
0.411307
0.431622
0.357415
0.464623
0.400978
0.441516
0.242815
0.50068
0.456714
0.449888
0.467962
0.401543
0.380291
0.449377
0.302812
0.437665
0.479188
0.425512
0.418657
0.432847
0.430976
0.278999
0.435186
0.263205
0.438545
0.43379
0.0641381
0.292304
0.458241
0.343296
0.448235
-0.317703
0.423545
0.0721419
0.512161
0.499346
0.459637
0.476106
0.385248
0.469242
0.441475
0.362842
0.176996
0.420518
0.398907
0.473556
0.26503
0.354266
0.444661
0.448372
0.480805
0.458455
0.378669
0.46463
0.432176
0.486729
0.35042
0.425526
0.0917911
0.414523
0.371499
0.467218
0.447464
0.358378
0.458234
0.479617
0.436547
0.484885
0.449571
0.427957
0.48403
0.517385
0.468861
0.491446
0.46219
0.407264
0.389808
0.324976
0.141421
0.440318
0.274244
0.351176
0.448989
0.454612
0.424208
0.33695
0.415823
0.426574
0.255132
0.220586
0.424856
0.429985
0.424511
-0.290032
0.102377
0.187155
0.421957
-0.21638
0.449027
0.38646
0.46573
0.43682
0.329342
0.0982178
0.451561
0.451789
0.322895
0.299104
0.438784
0.433748
0.434174
0.0529883
0.242479
0.14504
0.421204
-0.288193
0.50253
0.520549
0.505151
0.137429
-0.238655
0.425495
0.49301
0.400738
0.447019
0.284751
0.0566785
0.434831
-0.299679
0.429082
-0.000356541
0.499077
0.468983
0.47928
0.509078
0.501879
0.503359
0.242007
0.425861
-0.0817097
0.502915
0.486986
0.500229
0.506654
0.520536
0.511207
0.467554
0.376737
0.394103
0.496896
0.497324
0.510332
0.516285
0.458997
0.501711
0.460904
0.352784
0.423614
0.426747
0.43007
0.0309543
0.0233293
0.299547
0.293498
0.295216
0.117359
0.438133
0.431944
0.452667
0.303947
0.487673
0.447591
0.443692
0.386888
0.343975
0.450636
-0.186187
0.428723
0.0588122
0.438246
0.298466
0.140966
0.201597
0.427344
-0.111511
0.430479
-0.337255
-0.0127141
-0.388272
0.427687
0.029398
0.33307
0.423271
0.457158
-0.040494
0.431654
0.165607
0.400427
0.24553
0.448188
0.292946
0.417187
-0.0412234
0.506087
0.480914
0.469532
0.086637
0.435666
0.266726
0.392415
0.453196
0.356431
0.311652
0.39768
0.457398
0.432887
-0.499035
-0.100824
-0.278278
0.425527
0.0487325
0.513133
0.4914
0.470115
0.0398575
0.234247
0.435119
0.433239
0.209522
0.0268756
0.324891
0.433655
0.10019
0.424522
0.151766
0.375122
0.469197
0.345159
0.425739
0.266698
0.438646
0.435604
0.422231
0.356618
0.0741327
0.491375
0.48552
0.408254
0.387025
0.45677
0.45852
0.491899
0.418286
0.455699
0.461576
0.313373
0.439919
0.293271
0.372317
0.451751
0.0991076
0.29717
0.436878
0.448802
0.374751
0.261557
-0.378403
0.426073
0.0602585
0.513361
0.51185
0.480287
0.466811
0.486893
0.47362
0.479459
0.466647
0.441402
0.347477
0.440364
0.387237
-0.277997
0.427939
0.00489538
0.0589869
0.254792
0.436084
0.476723
0.427824
0.412215
0.316385
0.369062
0.450103
0.424855
0.172678
0.387932
-0.19054
0.119052
0.428277
-0.147497
0.135693
0.428777
0.457753
0.315153
0.443513
0.502467
0.451323
0.463388
0.309832
0.43192
0.0563003
0.314657
0.406513
0.457986
0.44033
0.195606
0.392126
0.469777
0.443997
0.394879
0.45367
0.410576
0.476839
0.49487
0.461117
0.454924
0.43201
0.0369992
0.288213
0.422041
0.254219
0.440125
0.508353
0.476871
0.4792
0.333098
0.418115
0.0305746
0.494644
0.448946
0.47152
0.50094
0.453164
0.496703
0.332986
0.41116
0.459337
0.229895
0.420081
-0.149817
0.249106
0.418582
-0.127075
0.437016
0.183755
0.390118
0.434782
0.417026
0.470434
0.418203
-0.205114
0.196203
0.444638
0.206473
0.384027
0.429612
-0.369819
-0.0482571
0.00302953
-0.423859
0.426094
0.425632
0.0967819
0.363143
0.430544
-0.0386364
0.229138
0.330193
0.347429
0.42802
0.0645401
0.43111
0.109505
0.371777
0.219262
0.445892
0.456737
0.332212
0.360033
0.522954
0.487997
0.475648
0.389185
0.249885
0.450589
0.452044
0.39819
0.267994
0.370573
0.421691
0.0982636
0.473215
0.326477
0.437677
0.482158
0.38475
0.439552
0.427516
0.324699
0.459433
0.420673
0.31188
0.458013
0.511186
0.471673
0.491622
0.483364
0.372322
0.460149
0.43543
0.101482
0.25995
0.120208
0.42917
-0.139196
0.0930245
0.43088
-0.143322
0.495287
0.463647
0.441758
-0.226527
0.428768
0.0771295
0.407319
0.43754
0.211719
0.427863
-0.218494
0.047012
0.52502
0.503759
0.481561
0.483895
0.400938
0.468073
0.41839
0.435919
0.475059
0.432814
-0.013648
0.195434
0.30842
0.411017
0.456794
0.419369
0.317297
0.00947835
0.468548
0.38215
0.465196
0.526459
0.495331
0.480841
-0.00910505
0.214785
0.432294
0.440934
0.18538
0.380129
0.222583
0.19805
0.423749
0.423615
-0.128372
-0.16543
0.472038
0.415779
0.479231
0.351818
0.435429
0.460233
0.501346
0.468792
0.498133
-0.0879545
0.151865
-0.0793534
0.429789
0.150009
0.429831
0.44631
0.315228
0.457151
0.210045
0.180029
-0.0329525
-0.0698013
0.432332
0.431824
0.435051
0.372537
0.470018
0.488184
0.417854
0.474081
0.275132
0.419726
-0.06685
0.487719
0.397352
0.476155
0.503859
0.443706
0.488789
0.23405
0.420588
-0.117946
0.473328
0.34644
0.456076
0.37362
0.371774
0.455399
0.47299
0.370606
0.438094
0.236887
0.439815
0.324995
0.430251
-0.457457
-0.0665408
0.469881
0.39307
0.469416
0.295226
0.424016
-0.00826429
0.421058
0.357065
0.468009
0.0714331
0.422242
-0.348377
0.499168
0.49032
0.456808
0.480601
0.456194
0.474367
0.508055
0.464105
0.499572
0.495812
0.503759
0.464299
0.484783
0.483277
0.477741
0.479201
0.427312
0.484129
0.492056
0.429017
0.483767
0.429347
-0.116647
0.107758
0.495629
0.435409
0.456122
0.236647
-0.0120095
0.431979
0.422492
0.408442
0.301683
0.268325
0.454202
0.44999
0.492452
0.460828
0.46512
0.463137
0.343632
0.438723
0.448281
0.342796
0.462415
0.519217
0.502514
0.495078
0.405444
0.272061
0.452461
0.513242
0.477483
0.486443
0.449742
0.369782
0.46874
0.464658
0.362916
0.439791
0.517182
0.51455
0.495948
0.499394
0.500377
0.492859
0.506848
0.467758
0.508939
0.497973
0.495758
0.484948
0.495356
0.495856
0.421292
0.412742
0.464642
0.458443
0.428111
0.162103
0.38671
0.457797
0.387982
0.386192
0.430248
0.432108
0.12946
0.140369
0.367576
0.366323
0.474134
0.430561
0.402956
0.519952
0.508513
0.507753
0.401076
0.249928
0.450041
0.508265
0.47123
0.452658
0.461969
0.349419
0.440813
0.414113
0.418508
0.206929
0.4327
0.223051
0.434794
0.430284
0.295055
0.451934
0.101222
-0.306741
0.422717
0.416008
0.376258
0.467
0.465844
0.469849
0.423559
0.363456
0.437162
0.379842
0.388338
0.283142
0.452127
0.464707
0.365411
0.443222
0.479064
0.424604
0.392842
0.469347
0.483046
0.434472
0.453571
0.41301
0.402531
0.467828
0.441745
0.388897
0.43462
0.309837
0.456321
0.51271
0.481179
0.494522
0.262489
0.424663
-0.053904
0.476479
0.42753
0.377701
0.472153
0.462751
0.348415
0.33058
0.442446
0.447282
0.425199
-0.0130884
0.287224
0.280581
0.422286
-0.0497365
0.258914
0.422536
-0.077056
0.405491
0.433752
0.20072
0.471361
0.385841
0.448263
0.0230093
0.13746
0.360592
0.0301577
0.295284
-0.181834
0.223931
0.102753
-0.0461505
0.281642
0.277394
-0.0818505
0.0212313
0.280508
0.114643
0.0199366
0.0517782
0.0930192
0.133356
0.235237
0.154637
0.0822126
0.298465
0.415563
0.373216
0.146656
0.312482
-0.0708198
0.181666
0.0079372
-0.0549214
0.217824
0.14632
0.136652
-0.0214076
0.164761
0.349339
0.294769
0.0674435
0.183732
0.0578303
0.424604
0.00605405
0.278182
0.321577
0.0725789
0.0837516
0.0266772
-0.0733427
0.00554749
0.375897
0.157856
0.0235231
0.0648204
-0.056764
0.368987
0.237281
0.153901
0.0196767
0.267652
0.000521323
0.0154547
0.374315
0.123664
0.152806
0.240873
0.172258
0.4077
0.296794
0.283262
-0.110859
-0.0609423
0.0659257
0.257136
-0.0773933
0.135241
0.137866
-0.0303599
0.254678
0.328653
0.0930767
0.139514
-0.065017
0.00199857
0.0626553
0.267191
0.0646492
0.0442515
0.109264
0.380878
0.0194502
0.268148
0.372538
0.14083
0.0215551
-0.261272
-0.0154544
0.0321159
0.0208835
-0.115216
0.209719
0.303291
0.335472
0.412431
0.00856595
0.0264051
-0.0740968
0.0351706
-0.012329
0.346634
0.309544
0.23462
-0.0242782
-0.0625353
0.197876
0.302358
0.0931475
0.0444857
-0.125892
0.084734
0.131231
0.390112
0.400664
0.26128
0.157478
0.0747308
-0.0781649
0.394534
-0.0240312
0.253576
-0.121479
0.372346
-0.0628172
-0.0405773
0.00358263
0.326546
0.122892
-0.163706
0.00185197
0.226229
0.0135377
0.271717
0.205658
0.0298818
0.321136
0.0640029
-0.00753866
0.338303
0.00695228
0.10044
-0.0785737
0.168938
0.0640676
0.332314
0.266695
0.0823868
0.256997
0.273438
0.356745
0.142173
0.0618273
0.0243986
0.274138
-0.0229947
0.182103
-0.0655353
0.413158
0.0880362
0.334159
0.392151
0.162383
0.399286
0.338484
0.354327
-0.0305244
-0.128854
-0.0804445
0.360557
-0.0310856
-0.0522786
-0.0298264
-0.0487036
0.0973123
0.063577
0.167387
0.392672
0.263446
0.0581245
0.264729
0.0469646
0.419534
-0.0745592
0.311847
0.0309134
-0.140849
0.378229
0.396184
0.0218668
0.0330313
0.4123
0.186075
0.0650364
-0.0099177
0.257869
0.346421
0.245225
0.00667782
0.0208545
0.289128
0.154793
-0.0124648
0.203585
-0.0319217
-0.042482
0.0755375
0.307178
-0.117913
0.0909972
0.304129
0.0577453
-0.125168
0.0836895
0.0275412
0.0670171
0.206643
0.219441
0.00162451
-0.0578365
-0.00746173
0.238931
0.236616
0.0810723
0.223868
0.0705172
-0.0298981
0.190489
0.0592376
-0.146667
0.246528
0.33685
0.169983
0.378986
0.350596
0.422346
0.0217163
-0.172311
0.109593
0.0817059
0.0620461
-0.108356
0.195524
0.373389
0.254086
0.185881
-0.00505791
0.0872578
0.264473
0.151966
0.22687
0.00857439
0.112156
0.0552136
-0.0462915
-0.000443265
0.0301383
0.0203657
-0.0287861
0.223903
0.156299
0.0845794
0.233215
0.0364296
0.0991343
0.00607999
0.0842958
0.0494752
0.0422634
0.180332
-0.107743
-0.181214
0.117449
-0.0882751
-0.122105
0.184865
-0.0728201
-0.119135
0.333649
0.229531
0.000351297
0.256261
-0.0474839
0.216902
0.206366
-0.0244564
0.0285441
0.301665
0.11444
0.269058
-0.188039
-0.0124939
0.337561
0.048219
0.00467779
-0.206222
-0.105483
-0.136776
-0.0965507
0.06016
0.231478
-0.0324618
-0.135149
-0.012715
0.0418907
0.420105
0.0209385
0.254564
0.191519
-0.0533176
0.0870617
-0.00292844
-0.064148
0.209583
0.0726846
0.372501
0.235089
-0.00145983
0.0649781
0.160842
0.414853
0.259719
0.350576
0.267078
0.0616072
0.168087
0.0971085
-0.0216592
-0.101374
0.0347562
0.0600259
0.232172
0.0124418
-0.083119
0.0258639
0.077783
0.0197806
0.0496526
0.317181
0.0597081
0.0359905
0.362954
0.321555
-0.00184665
0.160501
0.347196
-4.15691e-05
-0.0807433
0.0679438
-0.0293673
-0.0631663
0.343177
-0.00840068
0.0910848
0.353031
-0.122605
0.164946
0.0127524
0.164709
0.070486
0.02404
-0.248078
0.0881906
-0.0812662
0.0303375
0.0749304
0.0733479
0.259734
0.372141
0.0188154
0.155048
0.0803859
0.00207562
-0.153022
0.308129
0.203935
0.036356
-0.0827348
0.182259
-0.0827391
0.0342958
0.00841209
-0.0130482
0.287378
0.369996
0.054361
0.252872
0.411095
0.313864
0.312544
0.358123
0.0603632
0.0404689
-0.0599543
0.412931
0.30119
0.334673
0.0204244
0.0605414
-0.131119
0.266097
0.0709808
0.0135777
0.33469
0.22042
-0.0146169
0.0846774
0.00824824
0.023987
0.0104739
0.0656101
0.0855359
-0.0345844
0.0557978
-0.0987184
0.087456
-0.0338156
0.218205
0.136765
-0.117833
0.34934
0.363778
0.263965
0.0454389
0.172341
-0.0732422
0.279569
0.153257
-0.0834832
0.344961
-0.128926
0.374928
-0.0917628
0.0976839
0.11373
0.261356
0.283011
0.0217836
0.391375
0.0288202
0.319427
0.0981489
0.216614
0.044299
0.0132992
0.0293683
0.326086
0.110247
0.409136
0.242305
-0.10457
0.0233515
0.218118
-0.108725
0.0493691
0.100151
-0.0354931
0.379978
-0.0132779
-0.0356457
0.28891
0.0284033
0.372097
0.403191
0.0701107
0.409772
0.386719
0.322173
0.340177
0.187414
-0.0730041
0.000870904
0.0776268
0.30631
0.0780411
-0.127437
0.389183
-0.0326101
0.092833
-0.00791565
0.355233
0.417784
-0.019441
0.314835
0.19069
0.371858
0.0910406
0.272835
0.0765122
0.391648
0.405851
0.242355
-0.000790675
0.289708
0.0559501
0.156191
0.141216
0.098607
0.193528
0.0426567
-0.12433
-0.0574839
0.110822
0.213123
0.160689
0.339827
-0.0166783
0.0680297
0.215342
-0.0536399
0.362196
0.0106535
0.0764292
0.354616
0.328531
0.174163
0.397234
0.00611007
0.0605013
0.2781
0.137827
0.127497
0.0954012
0.0316989
0.220534
0.249542
0.0327147
0.00997566
0.172071
-0.106371
-0.0384059
0.372826
0.409785
0.40817
0.104087
0.416168
0.41533
0.384225
-0.156029
0.199826
0.192866
0.397413
0.0582072
0.0194939
-0.0753747
-0.00299421
-0.154707
0.388333
0.110817
0.12086
0.277536
0.242372
0.0517722
0.0743491
0.414867
0.392316
0.349778
0.238951
0.037806
0.252038
0.221902
0.0558195
0.114923
-0.0578696
-0.00631701
0.146473
0.123794
0.0432344
0.372972
0.372694
-0.14951
0.325686
0.0204175
0.0109896
0.0694697
0.368022
0.0870533
0.24144
0.10579
0.353087
0.0654034
0.10797
0.404853
-0.131949
-0.109564
0.00574269
-0.0277221
-0.178637
-0.28936
-0.0149517
-0.171446
0.132689
-0.15087
-0.0466252
0.123047
0.0182664
-0.0126349
0.0522653
-0.0710497
-0.262602
0.387508
0.318237
0.0722881
-0.0795096
0.325043
0.0449802
0.0190763
0.404477
-0.00515235
0.402416
0.0888802
0.33344
0.103072
-0.0631688
-0.0542105
0.156595
0.159195
0.133839
-0.0618008
0.0725079
-0.0422865
-0.0254413
0.0348022
-0.117587
-0.0653391
0.385955
0.00443457
0.249613
0.284878
0.0603714
0.293904
0.288652
-0.0753293
-0.278836
0.0985132
-0.100442
-0.171785
0.258161
0.264115
0.0739632
0.215633
0.0527151
0.405915
0.384523
0.0975718
0.0416136
0.394458
0.341129
0.206632
0.204556
0.0611945
0.408941
0.147168
-0.151814
0.356666
0.312908
0.374309
0.162515
0.00243796
0.0656019
0.266788
0.21276
-0.351494
0.426302
0.0956594
0.00112918
0.148345
0.337374
0.40336
0.408733
0.214128
0.121799
0.293665
0.343934
0.358317
0.250662
0.308359
-0.0440582
0.0178084
0.179693
-0.0591686
-0.0487205
-0.11764
0.0926709
0.290041
-0.0997727
0.145903
0.0266562
0.308557
0.408674
0.107412
-0.0743454
-0.13038
0.268297
0.0352166
-0.0082635
-0.125679
0.364289
0.179312
0.192926
-0.0904929
0.195309
-0.00684021
0.0130113
0.262736
0.285707
0.370283
0.416976
-0.0143041
0.346281
-0.14874
0.359817
0.372724
0.373623
0.295373
-0.0356564
-0.0352666
0.0783616
-0.152712
0.140635
-0.121669
0.188862
-0.0831243
0.330484
0.0612001
-0.138365
0.328445
0.272574
0.105709
0.115682
0.245977
0.366381
0.180751
0.133398
-0.143269
0.313376
0.157052
0.391419
-0.1728
0.126322
0.358179
0.264997
0.397287
0.27182
0.0743657
-0.196664
-0.141601
0.115399
-0.10603
0.387837
-0.14835
0.0435005
0.103536
-0.00753316
0.296444
-0.168102
0.357007
0.268692
0.196718
-0.120753
0.220809
0.0049007
0.0707786
0.113209
0.104633
0.0593146
0.0400648
0.293131
-0.0317214
0.415499
0.0511956
0.120706
0.23496
0.262353
0.385899
0.0606411
0.0884076
-0.0132304
0.117885
0.0359145
0.381376
-0.00429272
0.141107
0.059288
0.314675
0.0107214
0.158962
-0.0689958
0.409461
-0.156107
-0.036878
0.0490552
0.321058
-0.132675
-0.118492
-0.0449771
-0.0829814
0.371166
0.131559
0.248095
0.333423
0.229249
0.147184
0.410329
0.138079
0.270094
0.224512
0.157001
-0.117525
0.169779
0.112569
0.0423574
0.17149
-0.0214029
-0.105066
0.158178
0.0715947
-0.0319347
0.307754
0.122586
0.240523
0.107035
0.383713
0.100838
0.0976988
0.224616
-0.0866742
-0.0143225
0.059828
0.156058
0.179963
0.213659
0.367369
0.258144
0.30392
0.16313
0.346505
0.389447
0.386157
0.169932
0.140131
0.189611
-0.0687295
0.398933
0.339528
0.317904
0.133315
-0.0364632
-0.114945
0.190201
0.264282
0.00509559
0.316099
0.336628
0.211944
0.0217635
0.159203
0.0418365
0.010465
0.135613
0.0286538
0.193131
-0.125293
0.196839
0.113768
0.0988878
-0.165564
0.177442
0.149164
0.24116
0.0572286
0.183756
0.365382
0.379205
0.195286
0.0930074
0.305648
0.157633
-0.00896014
-0.0108066
0.0904633
-0.091165
0.3663
0.122506
0.17125
0.268884
0.254464
0.212996
-0.0271456
0.411766
0.221758
0.00187145
0.129399
0.143383
0.305136
0.359254
0.224144
0.200116
-0.130134
-0.0300017
0.0995
0.207856
0.143206
0.195932
0.022553
0.375582
0.203981
0.292987
0.345125
0.174374
0.0058255
0.152483
0.398798
0.0277847
-0.138766
0.149685
0.406866
0.0423197
0.0913227
0.294828
0.263571
0.322789
0.129361
-0.126183
0.205565
-0.0751506
0.0501153
0.322782
0.118974
-0.0620013
-0.0010647
0.0384951
0.219944
0.0555203
0.0332205
0.35029
0.00700929
0.411601
0.318429
-0.0806332
-0.185472
0.124294
0.272932
0.342193
0.126471
0.0997571
0.0074277
0.0800211
0.103127
0.416963
0.357979
0.272534
0.0632031
-0.114254
0.366868
0.411268
0.374215
0.305519
0.353341
0.146698
-0.0668905
-0.158153
-0.137427
0.383602
0.146725
-0.00546555
0.0758466
0.409804
0.0606232
0.0214963
-0.0953472
0.130102
-0.0167601
0.416854
0.207516
0.266657
0.353942
0.336543
0.0835421
0.228052
0.144261
0.249766
0.0170445
0.212364
0.0224273
0.379929
-0.0514665
0.0433333
-0.0109265
0.0767246
0.36343
0.0696877
0.320044
0.346809
0.356194
-0.0505572
0.140652
0.0996516
0.0152951
0.372521
0.161605
0.1657
0.202215
-0.164584
0.0801618
0.375998
0.234363
0.377029
-0.14803
-0.0367974
0.0673625
0.386242
0.0197593
0.109478
-0.0307584
-0.0275312
0.0687536
0.385344
0.0929898
0.10573
-0.0917526
0.413129
0.400416
-0.162718
0.374206
0.0587576
-0.0484378
-0.0326382
0.140601
-0.098005
0.213263
0.0630272
0.046739
0.0825334
0.351963
0.127972
0.319346
0.0873336
-0.0488288
0.0811167
-0.149673
-0.115922
0.113038
0.0632623
0.175887
-0.0336321
0.108862
0.341134
0.20523
0.0470455
-0.0715743
0.352263
0.130599
0.112141
0.419461
0.17373
0.0406777
0.0476224
-0.0180614
0.393057
0.0445025
0.114809
0.218402
-0.0888428
0.359166
-0.0420906
0.346388
0.135961
0.286803
-0.0262475
0.298647
0.105325
-0.0767475
-0.0119329
0.134282
0.363867
-0.190644
0.0128038
0.0514748
0.390003
0.41164
-0.00060431
0.0313969
0.207987
0.396986
0.0980817
0.370035
0.339585
0.315451
0.28656
0.183779
0.238842
0.223472
0.37579
0.111796
0.155276
0.00029713
0.0264753
0.110498
-0.0252674
0.3933
-0.0345827
0.366205
0.101993
0.385928
0.0294609
0.400747
0.283105
0.343029
0.387473
0.364413
0.417124
0.0849016
0.348876
0.132007
0.0657105
0.0143853
-0.0321292
0.376951
-0.0328787
0.207105
0.220585
0.0985375
0.207394
0.0155867
0.374423
0.153926
0.295206
-0.160967
-0.00207975
0.0736114
0.422195
0.00919621
0.240529
0.0331397
0.0747912
-0.0646195
0.0912146
0.0617866
0.311051
0.381014
-0.0992149
0.199109
0.0681225
0.0372047
0.327438
0.00584712
0.0239464
0.394462
-0.135834
0.168093
0.266521
0.360021
0.405471
0.0342184
0.0121057
-0.0841435
0.0636979
0.0162723
0.06589
0.28286
0.0519344
-0.0675346
0.104106
0.141278
0.0481304
0.0249195
0.0499006
0.14277
-0.0787032
0.299614
0.285618
0.0468706
0.296168
-0.0588686
-0.0989649
0.00508481
-0.133729
0.395736
0.0657375
0.0580315
0.0192521
0.335234
0.374309
0.173824
0.288142
0.027865
0.00158942
0.145062
0.061012
0.00945195
0.375168
0.184931
0.235673
0.397626
0.307368
0.125018
0.388448
-0.104487
0.178741
0.172389
0.217193
0.0797031
0.382556
0.0503158
0.209946
0.126799
0.0473955
-0.0247618
0.0199094
0.283313
0.330474
0.351355
0.15132
0.173793
0.386049
0.30461
0.113532
0.172394
-0.0554387
0.0820896
0.316215
-0.101596
0.34412
0.0572259
0.35713
0.415214
0.378949
0.0452484
0.342062
0.341071
-0.0913226
0.384806
0.0319846
0.38398
0.311024
0.0696223
-0.036465
0.185785
0.0870318
0.0722998
0.0219481
0.310032
0.0499275
0.38947
-0.0412038
0.0349295
0.0129697
-0.0426031
0.0584633
0.329347
0.405028
-0.0472754
0.289488
0.150166
0.210559
0.101878
0.20579
0.368382
0.316405
0.0605599
0.360394
0.326208
0.403153
-0.0437121
0.0291125
0.0212498
0.289625
0.394423
0.334031
0.115176
0.400612
0.130875
-0.0965125
-0.0385199
-0.190835
0.117587
-0.0677808
0.402947
0.412168
0.172368
0.419963
0.319064
0.167605
0.39639
-0.0588572
0.381291
0.0799201
0.374485
0.0656802
-0.0333706
0.284006
0.178297
0.383995
0.36826
0.372443
-0.0131754
-0.0153088
-0.121811
0.343767
0.314048
-0.00234317
0.144237
0.3165
-0.147029
0.0301245
-0.01703
0.0674216
0.205812
0.0623117
0.172814
0.27518
0.156123
0.173801
0.288017
0.0615911
0.0813026
0.205904
0.160582
0.0675628
0.349715
0.385294
-0.00189777
0.310876
-0.158255
0.022254
0.357973
0.300734
0.0481993
0.376937
-0.0602562
0.28446
0.0892716
0.0915082
0.357416
0.0701461
0.296165
0.283915
0.251323
0.414973
0.258179
-0.0835108
0.226057
0.113343
0.29848
0.41486
0.245097
0.128815
0.00842101
0.0939132
0.359183
-0.0500512
0.330866
-0.00538072
0.193068
0.307966
0.287383
0.147045
0.352564
0.399658
0.0752723
0.0636299
0.171373
-0.018214
-0.0687526
0.177566
0.284372
-0.00714201
-0.0865195
0.0109474
-0.0881515
0.279518
0.126305
0.303299
0.029064
0.374378
0.155942
0.340401
0.405546
0.00735329
0.365549
0.0704585
0.175547
0.147884
0.346705
0.0214161
0.0943584
0.155165
-0.0287451
0.0704153
-0.0364738
-0.0669514
-0.157374
0.398159
0.411444
-0.00997956
0.0302741
0.292945
-0.109308
0.00472147
0.0628625
0.266517
0.278743
-0.122916
-0.160968
0.36833
0.0299388
0.208311
0.0260514
-0.0922286
-0.0373137
0.180673
0.34084
0.204707
-0.102965
0.375985
0.338443
-0.006519
0.205624
0.0537563
0.406514
0.0744912
0.103735
-0.0722008
0.247287
0.386164
0.219564
0.17635
0.0122892
0.122056
0.210017
0.39669
0.420055
0.0192287
0.402082
0.0217969
0.187453
0.188581
0.113008
0.0494802
0.346623
0.0830845
0.181186
-0.00593164
0.0058608
0.0915645
-0.029682
0.251837
0.375534
-0.00831347
0.0295552
0.179104
0.0553597
0.0195371
-0.155446
0.0556564
0.347029
-0.109507
0.0379996
0.274694
0.179225
0.116584
0.240692
0.328616
-0.0105263
-0.0025629
0.33105
0.104468
-0.0113028
0.136119
0.344261
0.241811
0.189293
0.024166
0.0135651
0.0121292
0.398115
0.33328
0.40707
0.11017
0.260542
-0.0537004
0.145686
0.342191
-0.100965
-0.0895161
0.285636
0.337294
-0.107795
0.0396716
0.0218438
-0.0182769
0.0192483
0.418506
0.100252
0.0344542
0.176269
0.00862661
0.281969
0.188867
-0.0625332
0.0443798
0.306814
0.119115
0.399679
-0.0727828
0.0320613
0.23105
0.211343
0.114169
0.210913
-0.0274994
0.404376
0.381715
0.235112
0.351817
-0.00192421
0.347976
0.23898
0.226054
0.389173
-0.108694
0.0470592
0.41155
0.242646
-0.118772
0.0390479
0.324524
0.40798
0.143212
0.294311
0.020819
-0.0770188
-0.00969594
-0.126618
0.342181
0.0166391
0.156902
0.390145
0.00244377
-0.00703658
0.0155789
0.168715
0.0339316
0.0466042
0.0117601
-0.0476261
0.120946
0.314344
0.386431
0.267476
0.0617956
0.0450255
-0.132203
0.0388064
0.227036
0.203988
0.248321
0.279268
0.0462112
0.129285
0.324983
0.340848
0.407775
0.358929
0.392402
0.12338
-0.0627371
-0.0107919
-0.0461874
0.397696
0.168927
0.0221364
0.387392
-0.0544401
0.319298
0.280775
0.0463565
0.0270546
0.0473228
0.0206918
0.338042
0.087839
0.267678
0.134697
0.383692
0.19995
0.416104
-0.0149352
0.136696
0.0291531
-0.166253
0.0599074
0.302342
-0.0217919
-0.185171
0.188235
0.3781
0.299974
0.0189442
-0.0718423
-0.00434208
-0.0525876
0.0297821
-0.0510163
0.110781
-0.0382464
0.287689
-0.0136894
0.030871
0.369107
0.130954
0.238055
0.329096
0.10018
0.156076
-0.0175958
0.300742
0.0813781
0.0530069
0.107894
-0.0300432
-0.0797855
0.0261718
0.0236349
0.297807
0.407076
0.347685
0.192089
0.273974
-0.10101
0.40246
0.195935
0.282941
0.0296886
0.277319
0.0432658
0.0665942
0.31782
0.383363
0.30142
0.195824
0.0750299
0.412096
0.073481
0.318271
0.395339
0.255907
0.0908741
-0.10731
0.319192
0.184265
-0.0405614
0.241176
0.176653
0.380594
0.0121321
0.390965
0.40858
0.10481
-0.0124466
0.393271
-0.0664686
-0.0334628
0.0669345
-0.0381979
0.0556629
-0.0268241
-0.0700589
0.132271
0.0342948
-0.00802579
0.0455264
0.202533
0.0170165
0.00485995
0.233819
0.157296
-0.0885408
0.374497
0.411532
0.395117
0.0233379
-0.099812
0.420884
-0.0778645
0.119263
0.0122833
0.0646699
0.0290859
0.28477
0.0554466
0.0531821
-0.0893983
-0.102493
-0.0384243
0.0586427
-0.112964
0.142259
0.181801
0.12918
0.384146
0.174675
0.245226
0.0909287
0.333998
0.0593119
0.0653403
0.427076
0.068561
0.175748
-0.0680007
0.257425
0.407618
0.087311
0.216464
0.177989
0.0352881
0.0176416
-0.00136557
-0.035825
0.290752
-0.0274823
0.102583
0.0527389
0.106405
-0.00278765
0.000856308
0.118895
0.0794257
0.0370237
0.411305
0.123847
0.0906044
0.190789
0.38078
0.0674342
-0.0986778
0.308974
-0.0643384
0.0856848
0.0233244
0.128662
0.0432124
0.0828818
0.129025
0.404041
0.345194
-0.0905678
0.0360094
-0.103064
0.0136415
-0.121492
-0.0303335
0.0621447
-0.0164463
0.0684282
0.230708
0.417273
0.0587245
0.278009
0.152673
0.397179
0.0525066
0.408826
0.221537
-0.0556333
0.224053
0.28844
0.0611186
0.337933
0.0235467
0.353148
0.024301
-0.1693
0.127554
0.41564
0.408724
0.290769
0.234874
0.266003
-0.0931536
0.0318756
0.264472
0.416425
-0.145016
0.131142
0.0256628
0.0574176
0.108666
-0.00246706
-0.0521445
0.0219575
-0.0337143
0.0365194
0.072559
0.107179
0.414107
0.336376
-0.122857
0.312085
-0.0156337
-0.00811286
0.320029
0.0221039
0.0842521
0.251847
-0.108849
-0.000372917
0.141025
0.346319
-0.0480929
0.0106119
0.0799552
0.226672
-0.0467672
0.382586
-0.103845
0.0606235
0.0819168
0.0157207
0.234768
0.230395
0.381874
0.0181605
0.29732
0.182545
0.220709
0.016753
0.23316
-0.0215851
-0.0596996
-0.144515
0.192913
0.124535
0.0824704
0.361053
0.133436
0.180364
0.229908
-0.00472883
-0.0296143
0.0620052
0.199435
0.0280218
0.416816
-0.065733
-0.103539
0.0651299
0.0559281
0.0299745
0.0198848
0.27694
0.0653166
0.13538
-0.0466745
0.0268822
0.12986
-0.0376555
0.411463
0.401427
-0.0404399
-0.00445465
0.340366
0.153739
0.00498252
-0.0722155
0.00606069
-0.0417048
0.178791
0.371511
0.00642913
-0.0937025
0.229364
0.124058
-0.1025
-0.0449062
0.121617
0.270818
0.420067
-0.0564586
-0.105111
0.200293
0.34206
0.0893104
0.183186
0.0748162
0.0228884
0.0660871
0.226006
0.119198
0.0242894
0.312801
0.0782584
-0.140568
0.17245
0.0302339
0.318563
0.414877
0.0331646
0.0550531
0.0572425
0.0556438
-0.055931
0.0671513
-0.0419683
0.387518
0.323636
0.268596
0.0643477
-0.0860241
0.303529
0.40137
0.00378909
0.166653
0.0471881
-0.15799
0.149239
0.0614512
-0.159236
0.0302844
0.228979
-0.0594453
-0.0998353
-0.0376861
0.324251
-0.0734053
0.312133
0.116211
0.0148745
0.0740822
-0.0108275
0.31935
-0.132136
0.0662565
0.0964177
-0.0615744
0.183341
0.263902
0.196596
0.125119
0.296275
-0.0448546
-0.0419953
0.368454
0.0188755
0.362768
0.201447
0.087916
0.182082
0.348187
0.124186
-0.105508
0.381912
0.0122822
0.0984959
0.349303
0.0012333
0.392819
0.00734004
0.0808845
-0.09982
0.0826795
-0.0355261
0.138142
-0.0331335
-0.138494
-0.0456919
-0.0455964
-0.15191
0.371646
-0.0458807
0.0758957
0.19133
0.133379
0.403364
0.405309
0.0396591
0.132717
0.324226
0.0265644
0.372737
-0.138577
0.0738062
0.170029
0.00736958
0.32942
0.0480448
0.0576234
0.0437457
0.00584835
0.0180479
-0.135391
0.352495
-0.249944
0.388019
0.270281
-0.0315093
-0.0993753
-0.0339442
0.421024
0.270902
0.236954
0.118954
0.186617
0.0987376
0.349855
0.304293
-0.00798328
0.217125
0.39154
0.109813
0.162633
0.225468
-0.116799
-0.0458395
0.316089
0.0722885
0.106727
0.393133
-0.0527263
-0.134199
0.0184972
0.105549
0.109403
0.408136
0.00559588
-0.0808096
0.00217303
0.102445
0.0107839
0.361679
0.124788
-0.0293009
0.0467801
0.00313401
0.000288225
0.0558977
0.220904
0.152457
-0.016847
0.35971
0.0674609
0.329553
-0.0159546
-0.0524338
0.0738231
0.353111
0.398421
0.315847
0.140507
0.117631
0.316054
0.40089
-0.0648246
0.373877
-0.0404708
0.243466
0.222346
0.360155
0.137495
0.345495
0.376067
0.0315889
0.0318114
0.0770513
0.137719
-0.0399567
-0.00575187
-0.0360906
0.284493
0.330329
-0.0696969
0.381203
0.137436
0.300266
0.114232
-0.0272761
0.326274
0.306046
0.0507903
0.04844
-0.037145
0.407913
0.277505
0.418432
-0.0680564
-0.0408778
0.0976049
0.336421
0.230446
0.363516
0.167921
0.404524
0.0185783
0.0919852
0.162988