/*--------------------------------*- C++ -*----------------------------------*\
  =========                 |
  \\      /  F ield         | OpenFOAM: The Open Source CFD Toolbox
   \\    /   O peration     | Website:  https://openfoam.org
    \\  /    A nd           | Version:  6
     \\/     M anipulation  |
\*---------------------------------------------------------------------------*/
FoamFile
{
    version     2.0;
    format      ascii;
    class       volScalarField;
    location    "24151";
    object      nut;
}
// * * * * * * * * * * * * * * * * * * * * * * * * * * * * * * * * * * * * * //

dimensions      [0 2 -1 0 0 0 0];

internalField   nonuniform List<scalar> 
115600
(
8.13144e-10
2.31277e-10
2.06641e-10
1.99622e-10
1.89627e-10
1.74518e-10
1.57767e-10
1.42225e-10
1.29365e-10
1.18908e-10
1.10452e-10
1.0347e-10
9.7478e-11
9.21147e-11
8.71786e-11
8.26083e-11
7.84324e-11
7.47134e-11
7.15042e-11
6.88235e-11
6.66489e-11
6.49213e-11
6.35571e-11
6.24639e-11
6.15575e-11
6.07747e-11
6.00808e-11
5.94692e-11
5.89539e-11
5.85586e-11
5.83063e-11
5.82106e-11
5.82818e-11
5.85551e-11
5.8962e-11
5.94624e-11
6.00237e-11
6.06217e-11
6.12413e-11
6.18761e-11
6.2526e-11
6.3194e-11
6.3884e-11
6.45987e-11
6.5339e-11
6.61049e-11
6.6897e-11
6.77186e-11
6.85779e-11
6.94967e-11
7.0518e-11
7.1766e-11
7.35099e-11
7.68991e-11
8.72376e-11
1.50299e-10
5.05755e-08
2.74452e-08
2.51855e-08
2.48153e-08
2.37093e-08
2.15333e-08
1.88752e-08
1.63332e-08
1.42279e-08
1.25795e-08
1.13209e-08
1.03518e-08
9.57622e-09
8.91911e-09
8.33228e-09
7.79323e-09
7.29824e-09
6.85328e-09
6.46621e-09
6.1419e-09
5.88028e-09
5.67628e-09
5.52093e-09
5.40304e-09
5.31119e-09
5.23564e-09
5.16968e-09
5.11028e-09
5.05769e-09
5.01434e-09
4.98351e-09
4.96804e-09
4.97023e-09
4.99432e-09
5.03473e-09
5.08737e-09
5.14836e-09
5.21435e-09
5.28292e-09
5.3527e-09
5.42331e-09
5.495e-09
5.56835e-09
5.64392e-09
5.72208e-09
5.80303e-09
5.88692e-09
5.97399e-09
6.06496e-09
6.16166e-09
6.2681e-09
6.39489e-09
6.56846e-09
6.88511e-09
7.77693e-09
1.12332e-08
2.61831e-07
2.5137e-07
2.59647e-07
2.66053e-07
2.62545e-07
2.47959e-07
2.26078e-07
2.01722e-07
1.78897e-07
1.59578e-07
1.44139e-07
1.32087e-07
1.22538e-07
1.14565e-07
1.07436e-07
1.00726e-07
9.43095e-08
8.82721e-08
8.27946e-08
7.80499e-08
7.41416e-08
7.10805e-08
6.87901e-08
6.71296e-08
6.5926e-08
6.50092e-08
6.42436e-08
6.35483e-08
6.29013e-08
6.23295e-08
6.18873e-08
6.1634e-08
6.16202e-08
6.19044e-08
6.24464e-08
6.31956e-08
6.40924e-08
6.50778e-08
6.61035e-08
6.71375e-08
6.81655e-08
6.91872e-08
7.02109e-08
7.12467e-08
7.23028e-08
7.33832e-08
7.44887e-08
7.56194e-08
7.67776e-08
7.79746e-08
7.92427e-08
8.06671e-08
8.24955e-08
8.54881e-08
9.30514e-08
1.13638e-07
5.26022e-07
6.31402e-07
6.92644e-07
7.22291e-07
7.24681e-07
7.02826e-07
6.63854e-07
6.16683e-07
5.69179e-07
5.26672e-07
4.91385e-07
4.63338e-07
4.41215e-07
4.23056e-07
4.06971e-07
3.91607e-07
3.76343e-07
3.61225e-07
3.4674e-07
3.33549e-07
3.22242e-07
3.13179e-07
3.06411e-07
3.01691e-07
2.98557e-07
2.96453e-07
2.94866e-07
2.93435e-07
2.92004e-07
2.90615e-07
2.89446e-07
2.88736e-07
2.88706e-07
2.89535e-07
2.91205e-07
2.93583e-07
2.96469e-07
2.99648e-07
3.02927e-07
3.06172e-07
3.09311e-07
3.12333e-07
3.15262e-07
3.18136e-07
3.20988e-07
3.23833e-07
3.26675e-07
3.29504e-07
3.32309e-07
3.35088e-07
3.37871e-07
3.40762e-07
3.44142e-07
3.49124e-07
3.61115e-07
3.91626e-07
7.29784e-07
9.78096e-07
1.13137e-06
1.21252e-06
1.24084e-06
1.22728e-06
1.18361e-06
1.12293e-06
1.05743e-06
9.95889e-07
9.43231e-07
9.00586e-07
8.66729e-07
8.39081e-07
8.14838e-07
7.91807e-07
7.68822e-07
7.45766e-07
7.233e-07
7.02473e-07
6.84335e-07
6.69633e-07
6.58632e-07
6.5108e-07
6.46302e-07
6.43398e-07
6.41477e-07
6.3986e-07
6.38197e-07
6.36485e-07
6.34985e-07
6.34091e-07
6.34202e-07
6.356e-07
6.38343e-07
6.42259e-07
6.47042e-07
6.52333e-07
6.57802e-07
6.63203e-07
6.68402e-07
6.73363e-07
6.78122e-07
6.8274e-07
6.87276e-07
6.91762e-07
6.96207e-07
7.00596e-07
7.04903e-07
7.0911e-07
7.13224e-07
7.17337e-07
7.21819e-07
7.27906e-07
7.41588e-07
7.76949e-07
8.73692e-07
1.21693e-06
1.46448e-06
1.61523e-06
1.69077e-06
1.70708e-06
1.67969e-06
1.62484e-06
1.55763e-06
1.49015e-06
1.42977e-06
1.37951e-06
1.33885e-06
1.3052e-06
1.27537e-06
1.24671e-06
1.2177e-06
1.18815e-06
1.15891e-06
1.13139e-06
1.10708e-06
1.08712e-06
1.07201e-06
1.06157e-06
1.05499e-06
1.0511e-06
1.04872e-06
1.04689e-06
1.04508e-06
1.04326e-06
1.04171e-06
1.04097e-06
1.04157e-06
1.04385e-06
1.04794e-06
1.05363e-06
1.06056e-06
1.06823e-06
1.0762e-06
1.08413e-06
1.09182e-06
1.09923e-06
1.10638e-06
1.11336e-06
1.12023e-06
1.12706e-06
1.13384e-06
1.14056e-06
1.14719e-06
1.1537e-06
1.16009e-06
1.16645e-06
1.1732e-06
1.18166e-06
1.19827e-06
1.23704e-06
9.87007e-07
1.34853e-06
1.65971e-06
1.8755e-06
2.00636e-06
2.0667e-06
2.07258e-06
2.04143e-06
1.98991e-06
1.93191e-06
1.87706e-06
1.82996e-06
1.79132e-06
1.75906e-06
1.73007e-06
1.70152e-06
1.67174e-06
1.64047e-06
1.60869e-06
1.57811e-06
1.55061e-06
1.52771e-06
1.51023e-06
1.49812e-06
1.49061e-06
1.4864e-06
1.48413e-06
1.48268e-06
1.48139e-06
1.48017e-06
1.47933e-06
1.47948e-06
1.48122e-06
1.48495e-06
1.49081e-06
1.49863e-06
1.50798e-06
1.51831e-06
1.52909e-06
1.53992e-06
1.55056e-06
1.56093e-06
1.57107e-06
1.58106e-06
1.59098e-06
1.60087e-06
1.61076e-06
1.62063e-06
1.63044e-06
1.64016e-06
1.64981e-06
1.65948e-06
1.66962e-06
1.68161e-06
1.70204e-06
1.74282e-06
1.1004e-06
1.40146e-06
1.73064e-06
1.99181e-06
2.17372e-06
2.2825e-06
2.33082e-06
2.33481e-06
2.31117e-06
2.27463e-06
2.23615e-06
2.20204e-06
2.17407e-06
2.1511e-06
2.13036e-06
2.10904e-06
2.08528e-06
2.05869e-06
2.03023e-06
2.0018e-06
1.97558e-06
1.95347e-06
1.93664e-06
1.92534e-06
1.91893e-06
1.91618e-06
1.91567e-06
1.91615e-06
1.91689e-06
1.91772e-06
1.91895e-06
1.9212e-06
1.92513e-06
1.93117e-06
1.93953e-06
1.95007e-06
1.96235e-06
1.97582e-06
1.9899e-06
2.00415e-06
2.01829e-06
2.03223e-06
2.04598e-06
2.05963e-06
2.07325e-06
2.0869e-06
2.10058e-06
2.11429e-06
2.128e-06
2.14168e-06
2.15536e-06
2.16914e-06
2.18352e-06
2.19975e-06
2.22434e-06
2.26645e-06
1.23933e-06
1.4111e-06
1.70575e-06
1.98241e-06
2.20212e-06
2.35609e-06
2.44943e-06
2.49438e-06
2.50593e-06
2.49859e-06
2.48409e-06
2.47001e-06
2.4594e-06
2.4521e-06
2.44593e-06
2.43817e-06
2.42676e-06
2.41105e-06
2.39184e-06
2.37103e-06
2.35099e-06
2.33395e-06
2.32149e-06
2.31422e-06
2.31177e-06
2.31306e-06
2.31671e-06
2.32142e-06
2.32637e-06
2.33128e-06
2.33643e-06
2.34244e-06
2.35e-06
2.35962e-06
2.37156e-06
2.38576e-06
2.40182e-06
2.41921e-06
2.43733e-06
2.45573e-06
2.4741e-06
2.49231e-06
2.51037e-06
2.52834e-06
2.54631e-06
2.56432e-06
2.5824e-06
2.60054e-06
2.61873e-06
2.63694e-06
2.65523e-06
2.67367e-06
2.69278e-06
2.71359e-06
2.7423e-06
2.78551e-06
1.42009e-06
1.41329e-06
1.62191e-06
1.87532e-06
2.11057e-06
2.29937e-06
2.4348e-06
2.52212e-06
2.57257e-06
2.59915e-06
2.61355e-06
2.62426e-06
2.63556e-06
2.64846e-06
2.66145e-06
2.67201e-06
2.67792e-06
2.67819e-06
2.67332e-06
2.66506e-06
2.65582e-06
2.6481e-06
2.64381e-06
2.64397e-06
2.64857e-06
2.65676e-06
2.66727e-06
2.67878e-06
2.69038e-06
2.7017e-06
2.71294e-06
2.72468e-06
2.73766e-06
2.75245e-06
2.7694e-06
2.78853e-06
2.80953e-06
2.8319e-06
2.85506e-06
2.87855e-06
2.90203e-06
2.92536e-06
2.94851e-06
2.97154e-06
2.99454e-06
3.01757e-06
3.04064e-06
3.06378e-06
3.08697e-06
3.11022e-06
3.13356e-06
3.15707e-06
3.18122e-06
3.20677e-06
3.23941e-06
3.28376e-06
1.65118e-06
1.4392e-06
1.52281e-06
1.70972e-06
1.92797e-06
2.13211e-06
2.29996e-06
2.42624e-06
2.51588e-06
2.57852e-06
2.62481e-06
2.66337e-06
2.69966e-06
2.73576e-06
2.77095e-06
2.80306e-06
2.82982e-06
2.84993e-06
2.86347e-06
2.87188e-06
2.8775e-06
2.88291e-06
2.89032e-06
2.90113e-06
2.91571e-06
2.93353e-06
2.95347e-06
2.97427e-06
2.99495e-06
3.01503e-06
3.03461e-06
3.05422e-06
3.07459e-06
3.09637e-06
3.11999e-06
3.14556e-06
3.17288e-06
3.20149e-06
3.23088e-06
3.26055e-06
3.29017e-06
3.31957e-06
3.34872e-06
3.37766e-06
3.40647e-06
3.43522e-06
3.46395e-06
3.49269e-06
3.52144e-06
3.55021e-06
3.57904e-06
3.60798e-06
3.63742e-06
3.66782e-06
3.70429e-06
3.74996e-06
1.94251e-06
1.51417e-06
1.45413e-06
1.53756e-06
1.69849e-06
1.88683e-06
2.06733e-06
2.22168e-06
2.34562e-06
2.44318e-06
2.52215e-06
2.59034e-06
2.65358e-06
2.71473e-06
2.77395e-06
2.8296e-06
2.87953e-06
2.92217e-06
2.95717e-06
2.98557e-06
3.00942e-06
3.03126e-06
3.05346e-06
3.07776e-06
3.10491e-06
3.13474e-06
3.16638e-06
3.19867e-06
3.23063e-06
3.26168e-06
3.29178e-06
3.32137e-06
3.35116e-06
3.38184e-06
3.41388e-06
3.44751e-06
3.48262e-06
3.51885e-06
3.55572e-06
3.59277e-06
3.62965e-06
3.66619e-06
3.70233e-06
3.73811e-06
3.77361e-06
3.8089e-06
3.84403e-06
3.87904e-06
3.91396e-06
3.9488e-06
3.98359e-06
4.01833e-06
4.05332e-06
4.08875e-06
4.12905e-06
4.17636e-06
2.31554e-06
1.66204e-06
1.45685e-06
1.41774e-06
1.48455e-06
1.61668e-06
1.77661e-06
1.93623e-06
2.08085e-06
2.2065e-06
2.31545e-06
2.41274e-06
2.50321e-06
2.58999e-06
2.67391e-06
2.75395e-06
2.82822e-06
2.895e-06
2.95355e-06
3.00438e-06
3.04913e-06
3.09011e-06
3.12974e-06
3.16995e-06
3.21187e-06
3.25572e-06
3.30094e-06
3.34658e-06
3.39168e-06
3.4356e-06
3.47817e-06
3.51972e-06
3.56085e-06
3.60227e-06
3.64447e-06
3.68777e-06
3.73217e-06
3.7774e-06
3.82304e-06
3.86869e-06
3.914e-06
3.95878e-06
4.00297e-06
4.04659e-06
4.08971e-06
4.13241e-06
4.17476e-06
4.21679e-06
4.25856e-06
4.30006e-06
4.34131e-06
4.38228e-06
4.42316e-06
4.46384e-06
4.50813e-06
4.55749e-06
2.80435e-06
1.91288e-06
1.56695e-06
1.40466e-06
1.35833e-06
1.3978e-06
1.49486e-06
1.6233e-06
1.76204e-06
1.89821e-06
2.02655e-06
2.14688e-06
2.26126e-06
2.37173e-06
2.47913e-06
2.58281e-06
2.68115e-06
2.77239e-06
2.85538e-06
2.93007e-06
2.99756e-06
3.05974e-06
3.11887e-06
3.17697e-06
3.23547e-06
3.29497e-06
3.35528e-06
3.41572e-06
3.47543e-06
3.53377e-06
3.59045e-06
3.64564e-06
3.69982e-06
3.75363e-06
3.80762e-06
3.86212e-06
3.91722e-06
3.97277e-06
4.02843e-06
4.08385e-06
4.13872e-06
4.19283e-06
4.24612e-06
4.29859e-06
4.3503e-06
4.40133e-06
4.45174e-06
4.50159e-06
4.5509e-06
4.59971e-06
4.64799e-06
4.69567e-06
4.74281e-06
4.78907e-06
4.83764e-06
4.88958e-06
3.45937e-06
2.31797e-06
1.83039e-06
1.54944e-06
1.38774e-06
1.31658e-06
1.3176e-06
1.37344e-06
1.46594e-06
1.57928e-06
1.70223e-06
1.82845e-06
1.95521e-06
2.08162e-06
2.20709e-06
2.3305e-06
2.45011e-06
2.56393e-06
2.6704e-06
2.76883e-06
2.8596e-06
2.94402e-06
3.02395e-06
3.10133e-06
3.17772e-06
3.25406e-06
3.33053e-06
3.40678e-06
3.48214e-06
3.556e-06
3.62799e-06
3.69812e-06
3.76673e-06
3.83435e-06
3.9015e-06
3.96853e-06
4.03561e-06
4.10266e-06
4.16947e-06
4.23574e-06
4.3012e-06
4.36566e-06
4.42902e-06
4.4913e-06
4.55253e-06
4.61277e-06
4.67208e-06
4.73052e-06
4.78812e-06
4.84487e-06
4.90077e-06
4.95566e-06
5.0095e-06
5.06174e-06
5.115e-06
5.1701e-06
4.38499e-06
2.98067e-06
2.33358e-06
1.92624e-06
1.64565e-06
1.45692e-06
1.34509e-06
1.29868e-06
1.30554e-06
1.35342e-06
1.43124e-06
1.53e-06
1.64308e-06
1.76584e-06
1.89482e-06
2.02707e-06
2.15969e-06
2.2899e-06
2.41535e-06
2.53447e-06
2.6467e-06
2.7525e-06
2.85307e-06
2.94997e-06
3.04471e-06
3.13837e-06
3.23145e-06
3.32392e-06
3.41537e-06
3.50526e-06
3.59321e-06
3.67907e-06
3.76302e-06
3.84543e-06
3.92676e-06
4.00737e-06
4.08744e-06
4.16699e-06
4.24587e-06
4.32389e-06
4.4008e-06
4.47645e-06
4.55073e-06
4.62364e-06
4.69519e-06
4.76543e-06
4.83441e-06
4.90217e-06
4.96872e-06
5.03406e-06
5.09814e-06
5.16074e-06
5.22174e-06
5.28039e-06
5.33884e-06
5.39777e-06
5.73336e-06
4.05474e-06
3.20994e-06
2.64964e-06
2.23376e-06
1.91497e-06
1.67557e-06
1.50684e-06
1.40063e-06
1.34812e-06
1.34058e-06
1.37006e-06
1.42971e-06
1.51367e-06
1.61667e-06
1.73382e-06
1.86041e-06
1.99203e-06
2.12482e-06
2.25576e-06
2.3829e-06
2.5054e-06
2.62342e-06
2.73772e-06
2.84938e-06
2.95936e-06
3.06829e-06
3.17636e-06
3.28337e-06
3.38892e-06
3.49261e-06
3.59421e-06
3.6937e-06
3.79128e-06
3.88727e-06
3.98199e-06
4.07565e-06
4.1683e-06
4.25988e-06
4.35023e-06
4.43918e-06
4.52661e-06
4.6124e-06
4.69654e-06
4.77902e-06
4.85988e-06
4.93912e-06
5.01678e-06
5.09286e-06
5.16731e-06
5.24006e-06
5.31085e-06
5.37943e-06
5.44495e-06
5.5091e-06
5.57254e-06
7.47861e-06
5.60192e-06
4.54416e-06
3.81105e-06
3.24648e-06
2.78745e-06
2.40975e-06
2.10377e-06
1.86403e-06
1.68527e-06
1.56148e-06
1.48634e-06
1.45383e-06
1.45857e-06
1.49562e-06
1.56015e-06
1.64709e-06
1.75115e-06
1.8671e-06
1.9902e-06
2.11659e-06
2.24361e-06
2.36969e-06
2.49428e-06
2.61744e-06
2.73956e-06
2.86099e-06
2.98188e-06
3.1021e-06
3.2213e-06
3.33909e-06
3.4551e-06
3.56913e-06
3.6812e-06
3.79142e-06
3.90001e-06
4.00713e-06
4.11286e-06
4.21717e-06
4.31995e-06
4.42108e-06
4.52044e-06
4.61794e-06
4.71353e-06
4.80721e-06
4.89897e-06
4.98881e-06
5.07672e-06
5.16267e-06
5.24659e-06
5.32835e-06
5.40766e-06
5.48417e-06
5.55694e-06
5.62729e-06
5.69591e-06
9.22369e-06
7.40792e-06
6.22165e-06
5.35095e-06
4.65968e-06
4.07898e-06
3.57932e-06
3.14709e-06
2.77627e-06
2.46386e-06
2.20742e-06
2.00416e-06
1.85071e-06
1.74341e-06
1.67845e-06
1.65192e-06
1.65965e-06
1.69712e-06
1.75936e-06
1.84125e-06
1.93783e-06
2.04477e-06
2.15865e-06
2.27706e-06
2.39849e-06
2.52206e-06
2.64729e-06
2.7738e-06
2.90116e-06
3.02887e-06
3.15634e-06
3.28303e-06
3.40851e-06
3.53249e-06
3.65487e-06
3.77563e-06
3.89483e-06
4.01247e-06
4.12856e-06
4.24298e-06
4.35561e-06
4.46634e-06
4.57507e-06
4.68176e-06
4.78634e-06
4.8888e-06
4.9891e-06
5.08718e-06
5.18298e-06
5.27639e-06
5.36723e-06
5.45515e-06
5.53974e-06
5.61999e-06
5.69694e-06
5.77128e-06
1.05508e-05
9.09244e-06
7.95363e-06
7.04633e-06
6.2949e-06
5.64539e-06
5.07095e-06
4.55641e-06
4.09371e-06
3.67899e-06
3.31062e-06
2.98802e-06
2.71098e-06
2.47917e-06
2.29193e-06
2.14802e-06
2.04546e-06
1.98151e-06
1.95269e-06
1.9549e-06
1.98373e-06
2.03468e-06
2.10358e-06
2.1868e-06
2.28135e-06
2.38496e-06
2.49586e-06
2.61264e-06
2.73412e-06
2.85918e-06
2.98678e-06
3.11594e-06
3.24582e-06
3.37573e-06
3.50517e-06
3.63381e-06
3.76141e-06
3.88782e-06
4.01292e-06
4.13658e-06
4.25864e-06
4.37892e-06
4.4973e-06
4.61366e-06
4.72794e-06
4.84004e-06
4.94989e-06
5.05738e-06
5.1624e-06
5.26477e-06
5.36427e-06
5.46048e-06
5.55294e-06
5.6406e-06
5.72429e-06
5.8047e-06
1.13761e-05
1.03995e-05
9.47068e-06
8.6481e-06
7.92467e-06
7.27589e-06
6.68646e-06
6.14538e-06
5.64536e-06
5.18191e-06
4.75263e-06
4.35655e-06
3.99379e-06
3.66525e-06
3.37228e-06
3.11632e-06
2.89851e-06
2.71927e-06
2.57809e-06
2.47345e-06
2.40294e-06
2.3635e-06
2.35176e-06
2.36431e-06
2.39796e-06
2.44983e-06
2.51739e-06
2.5984e-06
2.69084e-06
2.79283e-06
2.90261e-06
3.01854e-06
3.13913e-06
3.26307e-06
3.38926e-06
3.51685e-06
3.64515e-06
3.77363e-06
3.90191e-06
4.02963e-06
4.15654e-06
4.28236e-06
4.40684e-06
4.52975e-06
4.65092e-06
4.7702e-06
4.88743e-06
5.00242e-06
5.11499e-06
5.22488e-06
5.33179e-06
5.43526e-06
5.53475e-06
5.62923e-06
5.71935e-06
5.80579e-06
1.18298e-05
1.12871e-05
1.06427e-05
9.99402e-06
9.37679e-06
8.79472e-06
8.24705e-06
7.73082e-06
7.24271e-06
6.7799e-06
6.34034e-06
5.92279e-06
5.52683e-06
5.15283e-06
4.8019e-06
4.47572e-06
4.1763e-06
3.90572e-06
3.66577e-06
3.45769e-06
3.28193e-06
3.13819e-06
3.0254e-06
2.942e-06
2.88606e-06
2.85555e-06
2.84837e-06
2.86244e-06
2.8957e-06
2.94606e-06
3.0114e-06
3.08962e-06
3.17867e-06
3.27662e-06
3.3817e-06
3.4924e-06
3.6074e-06
3.72562e-06
3.84618e-06
3.96835e-06
4.09154e-06
4.21526e-06
4.33904e-06
4.46247e-06
4.58518e-06
4.70687e-06
4.82722e-06
4.94595e-06
5.06272e-06
5.17718e-06
5.28894e-06
5.39745e-06
5.50212e-06
5.60192e-06
5.69738e-06
5.78914e-06
1.20641e-05
1.18384e-05
1.14685e-05
1.10287e-05
1.05652e-05
1.00975e-05
9.63591e-06
9.18541e-06
8.74776e-06
8.32326e-06
7.91157e-06
7.51229e-06
7.12518e-06
6.75037e-06
6.38846e-06
6.0405e-06
5.70796e-06
5.39264e-06
5.09647e-06
4.82142e-06
4.56925e-06
4.34143e-06
4.13901e-06
3.9626e-06
3.81241e-06
3.6883e-06
3.5898e-06
3.5162e-06
3.46649e-06
3.43941e-06
3.43344e-06
3.44683e-06
3.47766e-06
3.52393e-06
3.5836e-06
3.65474e-06
3.73557e-06
3.82448e-06
3.92006e-06
4.02109e-06
4.12651e-06
4.23544e-06
4.3471e-06
4.46073e-06
4.57574e-06
4.69156e-06
4.80764e-06
4.92347e-06
5.03855e-06
5.15234e-06
5.2643e-06
5.37379e-06
5.48013e-06
5.58232e-06
5.68079e-06
5.77606e-06
1.21844e-05
1.2164e-05
1.20148e-05
1.17735e-05
1.14764e-05
1.1146e-05
1.07972e-05
1.04398e-05
1.00795e-05
9.71982e-06
9.36251e-06
9.00861e-06
8.65874e-06
8.31344e-06
7.9733e-06
7.63909e-06
7.31182e-06
6.99267e-06
6.68304e-06
6.38446e-06
6.09854e-06
5.8269e-06
5.57112e-06
5.33271e-06
5.11303e-06
4.91332e-06
4.73463e-06
4.5778e-06
4.4434e-06
4.33164e-06
4.24238e-06
4.1751e-06
4.1289e-06
4.10256e-06
4.09461e-06
4.10344e-06
4.1274e-06
4.16482e-06
4.21413e-06
4.27384e-06
4.3426e-06
4.41915e-06
4.50236e-06
4.59121e-06
4.68469e-06
4.78203e-06
4.88238e-06
4.98494e-06
5.08894e-06
5.19364e-06
5.29828e-06
5.40207e-06
5.50425e-06
5.60379e-06
5.70104e-06
5.79636e-06
1.22499e-05
1.23542e-05
1.23636e-05
1.22861e-05
1.21423e-05
1.19498e-05
1.17221e-05
1.14704e-05
1.12025e-05
1.09236e-05
1.06374e-05
1.03462e-05
1.00516e-05
9.75485e-06
9.45698e-06
9.15885e-06
8.86135e-06
8.56538e-06
8.27195e-06
7.98212e-06
7.69706e-06
7.418e-06
7.14626e-06
6.88325e-06
6.63042e-06
6.38928e-06
6.16137e-06
5.9482e-06
5.75121e-06
5.57166e-06
5.41059e-06
5.26873e-06
5.14647e-06
5.04384e-06
4.96052e-06
4.8959e-06
4.84914e-06
4.81924e-06
4.80507e-06
4.80547e-06
4.81923e-06
4.84515e-06
4.88207e-06
4.9288e-06
4.98415e-06
5.04724e-06
5.11703e-06
5.19249e-06
5.27262e-06
5.35646e-06
5.44306e-06
5.53145e-06
5.62079e-06
5.71001e-06
5.7994e-06
5.88911e-06
1.22901e-05
1.24688e-05
1.2585e-05
1.26308e-05
1.26139e-05
1.25444e-05
1.24317e-05
1.22857e-05
1.2114e-05
1.19223e-05
1.17151e-05
1.14957e-05
1.12665e-05
1.10293e-05
1.07856e-05
1.05366e-05
1.02832e-05
1.00264e-05
9.76703e-06
9.50592e-06
9.24392e-06
8.98196e-06
8.72102e-06
8.46218e-06
8.20663e-06
7.95565e-06
7.71064e-06
7.47308e-06
7.2445e-06
7.02641e-06
6.82024e-06
6.62734e-06
6.44883e-06
6.28563e-06
6.13839e-06
6.00753e-06
5.89322e-06
5.79541e-06
5.71385e-06
5.64816e-06
5.59778e-06
5.56207e-06
5.54026e-06
5.5315e-06
5.53476e-06
5.54919e-06
5.57391e-06
5.60794e-06
5.65028e-06
5.69991e-06
5.75582e-06
5.81699e-06
5.88255e-06
5.95148e-06
6.02401e-06
6.10018e-06
1.23185e-05
1.25427e-05
1.27285e-05
1.28621e-05
1.29429e-05
1.29745e-05
1.29621e-05
1.29125e-05
1.2832e-05
1.27258e-05
1.25983e-05
1.24531e-05
1.22928e-05
1.21198e-05
1.19359e-05
1.17424e-05
1.15406e-05
1.13315e-05
1.11159e-05
1.08947e-05
1.06685e-05
1.04381e-05
1.02043e-05
9.96787e-06
9.72977e-06
9.49102e-06
9.25273e-06
9.01613e-06
8.78249e-06
8.55316e-06
8.32952e-06
8.11291e-06
7.90461e-06
7.70583e-06
7.51765e-06
7.34102e-06
7.17676e-06
7.02552e-06
6.88783e-06
6.76406e-06
6.65442e-06
6.559e-06
6.47771e-06
6.41033e-06
6.35645e-06
6.31536e-06
6.28666e-06
6.26977e-06
6.264e-06
6.26859e-06
6.28276e-06
6.30567e-06
6.33665e-06
6.37487e-06
6.42066e-06
6.47412e-06
1.23408e-05
1.25944e-05
1.28255e-05
1.30197e-05
1.31722e-05
1.32823e-05
1.33519e-05
1.33846e-05
1.33849e-05
1.33569e-05
1.33042e-05
1.32301e-05
1.31373e-05
1.30282e-05
1.29048e-05
1.27685e-05
1.26208e-05
1.24627e-05
1.22952e-05
1.2119e-05
1.1935e-05
1.17436e-05
1.15458e-05
1.1342e-05
1.11332e-05
1.092e-05
1.07034e-05
1.04844e-05
1.02639e-05
1.00431e-05
9.82311e-06
9.60501e-06
9.38999e-06
9.17918e-06
8.9737e-06
8.77459e-06
8.58287e-06
8.39951e-06
8.2254e-06
8.06135e-06
7.9081e-06
7.76627e-06
7.63638e-06
7.5188e-06
7.41378e-06
7.32103e-06
7.24052e-06
7.17224e-06
7.11608e-06
7.07178e-06
7.03903e-06
7.01745e-06
7.00681e-06
7.00672e-06
7.0178e-06
7.04056e-06
1.23593e-05
1.2633e-05
1.28942e-05
1.31295e-05
1.33332e-05
1.3502e-05
1.36356e-05
1.37352e-05
1.38034e-05
1.38429e-05
1.38565e-05
1.3847e-05
1.38167e-05
1.37677e-05
1.37019e-05
1.3621e-05
1.35262e-05
1.34188e-05
1.32998e-05
1.31699e-05
1.30299e-05
1.28805e-05
1.27223e-05
1.2556e-05
1.23823e-05
1.22017e-05
1.20151e-05
1.18232e-05
1.16269e-05
1.14269e-05
1.12242e-05
1.10198e-05
1.08144e-05
1.06091e-05
1.04049e-05
1.02027e-05
1.00034e-05
9.80811e-06
9.61771e-06
9.43318e-06
9.25542e-06
9.08535e-06
8.92377e-06
8.77147e-06
8.62927e-06
8.49689e-06
8.37485e-06
8.26361e-06
8.16355e-06
8.07494e-06
7.99803e-06
7.93302e-06
7.88022e-06
7.83983e-06
7.81296e-06
7.80085e-06
1.23746e-05
1.26628e-05
1.29443e-05
1.32076e-05
1.34469e-05
1.36584e-05
1.38402e-05
1.39921e-05
1.4115e-05
1.42106e-05
1.42807e-05
1.43271e-05
1.43519e-05
1.43569e-05
1.43437e-05
1.43137e-05
1.42684e-05
1.42088e-05
1.4136e-05
1.40508e-05
1.39539e-05
1.38461e-05
1.37281e-05
1.36003e-05
1.34635e-05
1.33183e-05
1.31652e-05
1.3005e-05
1.28384e-05
1.26659e-05
1.24883e-05
1.23064e-05
1.21209e-05
1.19325e-05
1.1742e-05
1.15502e-05
1.1358e-05
1.11662e-05
1.09757e-05
1.07874e-05
1.06022e-05
1.04211e-05
1.02449e-05
1.00746e-05
9.91121e-06
9.75461e-06
9.60554e-06
9.46473e-06
9.33289e-06
9.21069e-06
9.09879e-06
8.99787e-06
8.90876e-06
8.83221e-06
8.76984e-06
8.72382e-06
1.23868e-05
1.26853e-05
1.29807e-05
1.32628e-05
1.35268e-05
1.37685e-05
1.39856e-05
1.4177e-05
1.43426e-05
1.4483e-05
1.45992e-05
1.46925e-05
1.47642e-05
1.48158e-05
1.48486e-05
1.48639e-05
1.4863e-05
1.48468e-05
1.48163e-05
1.47724e-05
1.47158e-05
1.46473e-05
1.45675e-05
1.4477e-05
1.43764e-05
1.42663e-05
1.41473e-05
1.40199e-05
1.38848e-05
1.37425e-05
1.35935e-05
1.34386e-05
1.32782e-05
1.3113e-05
1.29436e-05
1.27706e-05
1.25948e-05
1.24168e-05
1.22374e-05
1.20574e-05
1.18775e-05
1.16988e-05
1.15219e-05
1.13479e-05
1.11776e-05
1.10112e-05
1.08494e-05
1.06931e-05
1.0543e-05
1.04001e-05
1.02653e-05
1.01395e-05
1.00238e-05
9.91944e-06
9.82841e-06
9.75384e-06
1.23959e-05
1.27014e-05
1.30057e-05
1.33001e-05
1.35804e-05
1.38429e-05
1.4085e-05
1.43053e-05
1.45031e-05
1.46781e-05
1.48309e-05
1.4962e-05
1.50723e-05
1.51629e-05
1.52347e-05
1.52889e-05
1.53265e-05
1.53483e-05
1.53554e-05
1.53484e-05
1.53282e-05
1.52954e-05
1.52507e-05
1.51946e-05
1.51279e-05
1.5051e-05
1.49645e-05
1.48689e-05
1.47648e-05
1.46526e-05
1.4533e-05
1.44062e-05
1.4273e-05
1.41337e-05
1.39888e-05
1.3839e-05
1.36847e-05
1.35264e-05
1.33649e-05
1.32008e-05
1.30348e-05
1.28675e-05
1.26999e-05
1.25327e-05
1.23664e-05
1.22015e-05
1.20387e-05
1.18788e-05
1.17226e-05
1.1571e-05
1.1425e-05
1.12856e-05
1.11541e-05
1.10318e-05
1.0921e-05
1.08257e-05
1.24019e-05
1.2711e-05
1.30203e-05
1.33219e-05
1.36123e-05
1.38881e-05
1.4147e-05
1.43875e-05
1.46084e-05
1.48092e-05
1.49898e-05
1.51503e-05
1.52914e-05
1.54135e-05
1.55174e-05
1.5604e-05
1.5674e-05
1.57283e-05
1.57676e-05
1.57928e-05
1.58043e-05
1.58031e-05
1.57896e-05
1.57645e-05
1.57283e-05
1.56816e-05
1.5625e-05
1.55589e-05
1.54838e-05
1.54003e-05
1.53087e-05
1.52095e-05
1.51032e-05
1.49901e-05
1.48706e-05
1.47453e-05
1.46146e-05
1.44789e-05
1.43387e-05
1.41946e-05
1.40471e-05
1.38969e-05
1.37446e-05
1.35909e-05
1.34359e-05
1.32805e-05
1.31252e-05
1.29706e-05
1.28176e-05
1.26669e-05
1.25194e-05
1.23762e-05
1.22385e-05
1.21076e-05
1.19858e-05
1.18778e-05
1.24048e-05
1.27144e-05
1.30249e-05
1.33294e-05
1.36247e-05
1.39079e-05
1.41769e-05
1.44302e-05
1.46666e-05
1.48854e-05
1.50861e-05
1.52686e-05
1.5433e-05
1.55796e-05
1.5709e-05
1.58217e-05
1.59183e-05
1.59994e-05
1.60657e-05
1.6118e-05
1.61567e-05
1.61826e-05
1.61962e-05
1.61981e-05
1.61889e-05
1.6169e-05
1.6139e-05
1.60994e-05
1.60507e-05
1.59933e-05
1.59277e-05
1.58541e-05
1.57732e-05
1.56851e-05
1.55903e-05
1.54892e-05
1.53821e-05
1.52694e-05
1.51516e-05
1.5029e-05
1.49022e-05
1.47717e-05
1.4638e-05
1.45013e-05
1.43622e-05
1.42211e-05
1.40786e-05
1.39354e-05
1.37918e-05
1.36488e-05
1.3507e-05
1.33673e-05
1.32309e-05
1.30991e-05
1.29739e-05
1.28605e-05
1.24044e-05
1.27112e-05
1.30195e-05
1.33229e-05
1.36185e-05
1.3904e-05
1.41774e-05
1.44373e-05
1.46827e-05
1.49127e-05
1.51266e-05
1.53242e-05
1.55053e-05
1.56701e-05
1.58186e-05
1.59514e-05
1.60689e-05
1.61715e-05
1.62598e-05
1.63344e-05
1.63957e-05
1.64444e-05
1.6481e-05
1.6506e-05
1.65199e-05
1.65233e-05
1.65167e-05
1.65004e-05
1.6475e-05
1.6441e-05
1.63986e-05
1.63483e-05
1.62905e-05
1.62255e-05
1.61536e-05
1.60752e-05
1.59906e-05
1.59002e-05
1.58042e-05
1.57032e-05
1.55974e-05
1.54872e-05
1.5373e-05
1.52551e-05
1.51338e-05
1.50097e-05
1.48831e-05
1.47545e-05
1.46243e-05
1.44932e-05
1.43618e-05
1.42307e-05
1.4101e-05
1.39738e-05
1.3851e-05
1.3738e-05
1.24007e-05
1.27016e-05
1.3004e-05
1.33024e-05
1.35943e-05
1.38774e-05
1.41501e-05
1.44111e-05
1.46596e-05
1.48947e-05
1.51157e-05
1.53221e-05
1.55138e-05
1.56906e-05
1.58526e-05
1.6e-05
1.6133e-05
1.6252e-05
1.63574e-05
1.64497e-05
1.65292e-05
1.65966e-05
1.66522e-05
1.66965e-05
1.67301e-05
1.67533e-05
1.67667e-05
1.67706e-05
1.67656e-05
1.6752e-05
1.67302e-05
1.67006e-05
1.66635e-05
1.66192e-05
1.65681e-05
1.65106e-05
1.64468e-05
1.6377e-05
1.63017e-05
1.6221e-05
1.61354e-05
1.6045e-05
1.59502e-05
1.58512e-05
1.57483e-05
1.5642e-05
1.55325e-05
1.54201e-05
1.53053e-05
1.51885e-05
1.50701e-05
1.49508e-05
1.48312e-05
1.47124e-05
1.45961e-05
1.44878e-05
1.23937e-05
1.26853e-05
1.29783e-05
1.3268e-05
1.35519e-05
1.38282e-05
1.40954e-05
1.43525e-05
1.45987e-05
1.48333e-05
1.50557e-05
1.52653e-05
1.54618e-05
1.56451e-05
1.58151e-05
1.59717e-05
1.61152e-05
1.62458e-05
1.63637e-05
1.64693e-05
1.6563e-05
1.66451e-05
1.6716e-05
1.67761e-05
1.68259e-05
1.68657e-05
1.6896e-05
1.69172e-05
1.69297e-05
1.69339e-05
1.693e-05
1.69185e-05
1.68998e-05
1.6874e-05
1.68416e-05
1.68028e-05
1.67578e-05
1.6707e-05
1.66506e-05
1.65888e-05
1.6522e-05
1.64502e-05
1.63739e-05
1.62932e-05
1.62084e-05
1.61197e-05
1.60274e-05
1.59317e-05
1.58329e-05
1.57314e-05
1.56274e-05
1.55215e-05
1.54141e-05
1.5306e-05
1.5199e-05
1.50983e-05
1.23833e-05
1.26621e-05
1.29421e-05
1.32191e-05
1.34909e-05
1.3756e-05
1.40132e-05
1.42615e-05
1.45004e-05
1.47293e-05
1.49477e-05
1.51551e-05
1.53511e-05
1.55356e-05
1.57084e-05
1.58694e-05
1.60186e-05
1.61561e-05
1.62822e-05
1.63971e-05
1.65009e-05
1.6594e-05
1.66766e-05
1.67492e-05
1.68121e-05
1.68655e-05
1.69099e-05
1.69457e-05
1.69731e-05
1.69924e-05
1.70042e-05
1.70086e-05
1.70059e-05
1.69966e-05
1.69807e-05
1.69587e-05
1.69307e-05
1.6897e-05
1.68578e-05
1.68133e-05
1.67638e-05
1.67095e-05
1.66505e-05
1.65871e-05
1.65194e-05
1.64477e-05
1.63721e-05
1.62928e-05
1.62101e-05
1.6124e-05
1.60349e-05
1.59431e-05
1.58489e-05
1.5753e-05
1.5657e-05
1.55659e-05
1.23695e-05
1.26319e-05
1.2895e-05
1.31552e-05
1.34107e-05
1.36603e-05
1.39028e-05
1.41377e-05
1.43644e-05
1.45826e-05
1.47919e-05
1.4992e-05
1.51824e-05
1.53631e-05
1.55338e-05
1.56944e-05
1.58447e-05
1.59849e-05
1.6115e-05
1.62351e-05
1.63453e-05
1.64459e-05
1.65371e-05
1.6619e-05
1.66919e-05
1.67562e-05
1.68121e-05
1.68599e-05
1.68998e-05
1.69322e-05
1.69574e-05
1.69756e-05
1.69871e-05
1.69923e-05
1.69912e-05
1.69842e-05
1.69715e-05
1.69533e-05
1.69298e-05
1.69012e-05
1.68677e-05
1.68295e-05
1.67867e-05
1.67395e-05
1.6688e-05
1.66324e-05
1.65729e-05
1.65095e-05
1.64424e-05
1.63716e-05
1.62975e-05
1.622e-05
1.61396e-05
1.60567e-05
1.59728e-05
1.58927e-05
1.23519e-05
1.25941e-05
1.28363e-05
1.30755e-05
1.33104e-05
1.35398e-05
1.37631e-05
1.39798e-05
1.41897e-05
1.43924e-05
1.45879e-05
1.47758e-05
1.49559e-05
1.51281e-05
1.5292e-05
1.54477e-05
1.55948e-05
1.57335e-05
1.58636e-05
1.59852e-05
1.60983e-05
1.6203e-05
1.62995e-05
1.63877e-05
1.6468e-05
1.65405e-05
1.66054e-05
1.66629e-05
1.67133e-05
1.67567e-05
1.67934e-05
1.68236e-05
1.68477e-05
1.68657e-05
1.68779e-05
1.68845e-05
1.68856e-05
1.68816e-05
1.68726e-05
1.68586e-05
1.684e-05
1.68168e-05
1.67892e-05
1.67573e-05
1.67213e-05
1.66811e-05
1.6637e-05
1.6589e-05
1.65371e-05
1.64815e-05
1.64222e-05
1.63593e-05
1.6293e-05
1.62238e-05
1.61529e-05
1.60848e-05
1.23303e-05
1.25481e-05
1.2765e-05
1.29788e-05
1.31884e-05
1.33931e-05
1.35926e-05
1.37866e-05
1.39751e-05
1.41578e-05
1.43349e-05
1.45062e-05
1.46715e-05
1.48308e-05
1.49837e-05
1.51302e-05
1.52701e-05
1.54033e-05
1.55297e-05
1.56492e-05
1.57618e-05
1.58674e-05
1.59661e-05
1.60579e-05
1.61429e-05
1.62212e-05
1.62928e-05
1.63579e-05
1.64167e-05
1.64693e-05
1.65158e-05
1.65565e-05
1.65915e-05
1.6621e-05
1.66452e-05
1.66642e-05
1.66782e-05
1.66874e-05
1.66918e-05
1.66917e-05
1.66871e-05
1.66782e-05
1.66651e-05
1.66479e-05
1.66267e-05
1.66016e-05
1.65725e-05
1.65396e-05
1.65028e-05
1.64623e-05
1.64179e-05
1.63698e-05
1.63182e-05
1.62633e-05
1.62063e-05
1.61513e-05
1.23042e-05
1.24929e-05
1.26798e-05
1.28633e-05
1.3043e-05
1.32184e-05
1.33896e-05
1.35565e-05
1.37193e-05
1.38779e-05
1.40326e-05
1.41832e-05
1.43298e-05
1.44721e-05
1.46102e-05
1.47438e-05
1.48728e-05
1.49969e-05
1.51161e-05
1.52302e-05
1.5339e-05
1.54426e-05
1.55407e-05
1.56333e-05
1.57205e-05
1.58021e-05
1.58783e-05
1.59491e-05
1.60144e-05
1.60745e-05
1.61293e-05
1.61791e-05
1.62238e-05
1.62637e-05
1.62988e-05
1.63293e-05
1.63553e-05
1.63769e-05
1.63941e-05
1.64072e-05
1.64162e-05
1.64212e-05
1.64223e-05
1.64196e-05
1.6413e-05
1.64027e-05
1.63887e-05
1.6371e-05
1.63495e-05
1.63243e-05
1.62953e-05
1.62627e-05
1.62264e-05
1.61869e-05
1.6145e-05
1.61045e-05
1.22729e-05
1.24271e-05
1.25788e-05
1.27272e-05
1.28722e-05
1.30139e-05
1.31526e-05
1.32885e-05
1.34218e-05
1.35528e-05
1.36815e-05
1.38081e-05
1.39326e-05
1.40548e-05
1.41748e-05
1.42922e-05
1.4407e-05
1.4519e-05
1.46279e-05
1.47336e-05
1.48358e-05
1.49345e-05
1.50294e-05
1.51204e-05
1.52074e-05
1.52902e-05
1.5369e-05
1.54434e-05
1.55137e-05
1.55797e-05
1.56414e-05
1.5699e-05
1.57524e-05
1.58017e-05
1.58469e-05
1.58882e-05
1.59256e-05
1.59591e-05
1.59889e-05
1.60149e-05
1.60373e-05
1.60562e-05
1.60715e-05
1.60833e-05
1.60916e-05
1.60965e-05
1.60979e-05
1.60959e-05
1.60903e-05
1.60812e-05
1.60685e-05
1.60523e-05
1.60327e-05
1.60098e-05
1.59847e-05
1.59603e-05
1.22353e-05
1.23491e-05
1.24602e-05
1.25685e-05
1.26744e-05
1.27786e-05
1.28813e-05
1.29831e-05
1.30842e-05
1.31848e-05
1.32852e-05
1.33853e-05
1.34853e-05
1.3585e-05
1.36844e-05
1.37833e-05
1.38815e-05
1.39788e-05
1.40749e-05
1.41697e-05
1.42629e-05
1.43543e-05
1.44437e-05
1.45308e-05
1.46155e-05
1.46976e-05
1.4777e-05
1.48535e-05
1.49271e-05
1.49976e-05
1.5065e-05
1.51292e-05
1.51903e-05
1.52482e-05
1.5303e-05
1.53546e-05
1.5403e-05
1.54483e-05
1.54905e-05
1.55296e-05
1.55656e-05
1.55985e-05
1.56284e-05
1.56553e-05
1.56791e-05
1.56999e-05
1.57176e-05
1.57322e-05
1.57436e-05
1.57518e-05
1.57567e-05
1.57585e-05
1.57571e-05
1.57528e-05
1.57464e-05
1.57402e-05
1.21906e-05