/*--------------------------------*- C++ -*----------------------------------*\
  =========                 |
  \\      /  F ield         | OpenFOAM: The Open Source CFD Toolbox
   \\    /   O peration     | Website:  https://openfoam.org
    \\  /    A nd           | Version:  6
     \\/     M anipulation  |
\*---------------------------------------------------------------------------*/
FoamFile
{
    version     2.0;
    format      ascii;
    class       volScalarField;
    location    "./ITHACAoutput/Offline/1";
    object      P_rec;
}
// * * * * * * * * * * * * * * * * * * * * * * * * * * * * * * * * * * * * * //

dimensions      [0 2 -2 0 0 0 0];

internalField   nonuniform List<scalar> 
40000
(
0.0167283
0.0167291
0.0167297
0.0167296
0.0167286
0.0167266
0.0167236
0.0167196
0.0167147
0.0167091
0.0167027
0.0166956
0.0166879
0.0166798
0.0166711
0.016662
0.0166525
0.0166427
0.0166325
0.0166221
0.0166113
0.0166003
0.016589
0.0165775
0.0165657
0.0165537
0.0165415
0.016529
0.0165163
0.0165034
0.0164902
0.0164768
0.0164632
0.0164493
0.0164352
0.0164209
0.0164064
0.0163916
0.0163767
0.0163616
0.0163462
0.0163307
0.0163151
0.0162993
0.0162833
0.0162673
0.0162512
0.016235
0.0162187
0.0162025
0.0161862
0.01617
0.0161538
0.0161377
0.0161217
0.0161059
0.0160902
0.0160747
0.0160595
0.0160445
0.0160299
0.0160156
0.0160016
0.0159881
0.0159751
0.0159625
0.0159505
0.015939
0.0159281
0.0159178
0.0159083
0.0158994
0.0158913
0.0158839
0.0158773
0.0158716
0.0158668
0.0158628
0.0158597
0.0158576
0.0158564
0.0158561
0.0158569
0.0158586
0.0158613
0.0158649
0.0158695
0.0158751
0.0158815
0.0158889
0.0158972
0.0159063
0.0159162
0.0159268
0.0159381
0.01595
0.0159625
0.0159754
0.0159888
0.0160024
0.0160162
0.0160302
0.0160441
0.0160579
0.0160715
0.0160848
0.0160975
0.0161097
0.0161211
0.0161317
0.0161413
0.0161497
0.0161569
0.0161627
0.016167
0.0161696
0.0161705
0.0161695
0.0161666
0.0161615
0.0161543
0.0161448
0.0161329
0.0161187
0.016102
0.0160828
0.016061
0.0160367
0.0160099
0.0159805
0.0159486
0.0159141
0.0158772
0.0158379
0.0157962
0.0157523
0.0157062
0.0156581
0.015608
0.0155561
0.0155025
0.0154473
0.0153908
0.015333
0.015274
0.0152142
0.0151535
0.0150923
0.0150306
0.0149686
0.0149065
0.0148444
0.0147825
0.014721
0.01466
0.0145997
0.01454
0.0144814
0.0144237
0.0143672
0.014312
0.0142581
0.0142057
0.0141548
0.0141055
0.0140578
0.0140119
0.0139678
0.0139256
0.0138852
0.0138467
0.0138101
0.0137755
0.0137429
0.0137122
0.0136836
0.0136569
0.0136323
0.0136097
0.013589
0.0135704
0.0135538
0.0135393
0.0135267
0.0135161
0.0135075
0.0135008
0.0134961
0.0134933
0.0134923
0.013493
0.0134953
0.0134991
0.0135041
0.0135101
0.0135166
0.0135231
0.0135289
0.0135331
0.0135349
0.0167276
0.0167283
0.0167289
0.0167287
0.0167276
0.0167256
0.0167227
0.0167189
0.0167142
0.0167087
0.0167026
0.0166958
0.0166884
0.0166805
0.0166721
0.0166632
0.016654
0.0166444
0.0166345
0.0166243
0.0166137
0.0166029
0.0165918
0.0165805
0.0165689
0.0165571
0.016545
0.0165327
0.0165202
0.0165074
0.0164944
0.0164811
0.0164676
0.0164539
0.01644
0.0164258
0.0164115
0.0163969
0.0163821
0.0163671
0.016352
0.0163367
0.0163212
0.0163056
0.0162899
0.016274
0.0162581
0.0162421
0.0162261
0.01621
0.016194
0.0161779
0.016162
0.0161461
0.0161303
0.0161146
0.0160992
0.0160839
0.0160688
0.0160541
0.0160396
0.0160254
0.0160117
0.0159983
0.0159854
0.0159729
0.0159609
0.0159495
0.0159387
0.0159285
0.0159189
0.01591
0.0159019
0.0158944
0.0158878
0.015882
0.015877
0.0158728
0.0158696
0.0158672
0.0158657
0.0158652
0.0158656
0.015867
0.0158692
0.0158725
0.0158766
0.0158817
0.0158876
0.0158944
0.0159021
0.0159106
0.0159198
0.0159297
0.0159403
0.0159515
0.0159632
0.0159753
0.0159878
0.0160006
0.0160136
0.0160266
0.0160397
0.0160526
0.0160653
0.0160777
0.0160895
0.0161008
0.0161113
0.016121
0.0161297
0.0161373
0.0161436
0.0161486
0.0161521
0.016154
0.0161542
0.0161525
0.0161489
0.0161432
0.0161355
0.0161255
0.0161132
0.0160986
0.0160815
0.0160621
0.0160401
0.0160157
0.0159888
0.0159593
0.0159274
0.0158931
0.0158563
0.0158173
0.0157759
0.0157323
0.0156867
0.015639
0.0155895
0.0155381
0.0154852
0.0154307
0.0153748
0.0153178
0.0152596
0.0152006
0.0151408
0.0150805
0.0150196
0.0149586
0.0148974
0.0148363
0.0147754
0.0147148
0.0146547
0.0145953
0.0145366
0.0144789
0.0144221
0.0143665
0.0143121
0.0142591
0.0142074
0.0141573
0.0141088
0.0140619
0.0140167
0.0139732
0.0139316
0.0138918
0.0138538
0.0138178
0.0137836
0.0137514
0.0137212
0.0136929
0.0136665
0.0136422
0.0136198
0.0135993
0.0135808
0.0135643
0.0135498
0.0135371
0.0135265
0.0135177
0.0135108
0.0135057
0.0135025
0.013501
0.0135012
0.0135028
0.0135059
0.01351
0.0135151
0.0135206
0.0135262
0.0135312
0.0135349
0.0135368
0.0167269
0.0167277
0.0167283
0.016728
0.0167269
0.0167249
0.0167221
0.0167184
0.016714
0.0167088
0.0167029
0.0166964
0.0166893
0.0166817
0.0166736
0.0166651
0.0166562
0.0166469
0.0166372
0.0166273
0.016617
0.0166065
0.0165956
0.0165845
0.0165731
0.0165615
0.0165497
0.0165376
0.0165252
0.0165126
0.0164998
0.0164868
0.0164735
0.01646
0.0164462
0.0164323
0.0164181
0.0164038
0.0163892
0.0163745
0.0163595
0.0163445
0.0163292
0.0163138
0.0162984
0.0162828
0.0162671
0.0162513
0.0162356
0.0162198
0.016204
0.0161882
0.0161725
0.0161568
0.0161413
0.0161259
0.0161106
0.0160956
0.0160807
0.0160662
0.0160519
0.0160379
0.0160243
0.0160111
0.0159983
0.0159859
0.0159741
0.0159627
0.0159519
0.0159417
0.0159322
0.0159233
0.015915
0.0159075
0.0159008
0.0158948
0.0158896
0.0158852
0.0158817
0.015879
0.0158772
0.0158763
0.0158763
0.0158772
0.0158789
0.0158816
0.0158852
0.0158896
0.0158949
0.015901
0.0159079
0.0159156
0.015924
0.0159331
0.0159427
0.015953
0.0159637
0.0159749
0.0159864
0.0159981
0.0160101
0.0160221
0.016034
0.0160459
0.0160575
0.0160687
0.0160795
0.0160896
0.0160991
0.0161077
0.0161154
0.0161219
0.0161273
0.0161313
0.0161339
0.0161349
0.0161342
0.0161317
0.0161273
0.0161209
0.0161125
0.0161019
0.0160891
0.016074
0.0160566
0.0160368
0.0160146
0.01599
0.0159629
0.0159335
0.0159016
0.0158674
0.0158308
0.015792
0.015751
0.0157078
0.0156626
0.0156155
0.0155666
0.0155159
0.0154637
0.01541
0.015355
0.0152988
0.0152416
0.0151835
0.0151248
0.0150654
0.0150057
0.0149457
0.0148856
0.0148256
0.0147658
0.0147064
0.0146475
0.0145892
0.0145316
0.014475
0.0144193
0.0143648
0.0143115
0.0142594
0.0142088
0.0141597
0.014112
0.014066
0.0140217
0.0139791
0.0139382
0.0138991
0.0138618
0.0138264
0.0137929
0.0137612
0.0137315
0.0137036
0.0136777
0.0136537
0.0136315
0.0136113
0.013593
0.0135766
0.0135621
0.0135494
0.0135386
0.0135297
0.0135225
0.0135171
0.0135134
0.0135113
0.0135108
0.0135117
0.0135138
0.0135171
0.0135211
0.0135257
0.0135305
0.0135349
0.0135386
0.013541
0.016727
0.0167279
0.0167286
0.0167283
0.0167272
0.0167252
0.0167224
0.0167189
0.0167145
0.0167095
0.0167039
0.0166976
0.0166908
0.0166834
0.0166756
0.0166673
0.0166587
0.0166496
0.0166402
0.0166305
0.0166205
0.0166102
0.0165995
0.0165886
0.0165775
0.0165661
0.0165544
0.0165425
0.0165303
0.0165179
0.0165053
0.0164924
0.0164793
0.016466
0.0164525
0.0164387
0.0164247
0.0164106
0.0163962
0.0163816
0.0163669
0.016352
0.016337
0.0163218
0.0163066
0.0162912
0.0162757
0.0162602
0.0162446
0.0162291
0.0162135
0.0161979
0.0161824
0.016167
0.0161516
0.0161364
0.0161213
0.0161065
0.0160918
0.0160774
0.0160633
0.0160494
0.016036
0.0160228
0.0160101
0.0159978
0.015986
0.0159747
0.0159639
0.0159537
0.0159441
0.0159352
0.0159268
0.0159192
0.0159123
0.0159061
0.0159007
0.0158961
0.0158923
0.0158893
0.0158872
0.0158859
0.0158855
0.0158859
0.0158872
0.0158893
0.0158924
0.0158962
0.0159009
0.0159063
0.0159126
0.0159195
0.0159272
0.0159355
0.0159444
0.0159538
0.0159637
0.015974
0.0159846
0.0159955
0.0160065
0.0160176
0.0160286
0.0160395
0.0160502
0.0160605
0.0160704
0.0160796
0.0160882
0.0160959
0.0161026
0.0161083
0.0161129
0.0161161
0.0161179
0.0161181
0.0161167
0.0161135
0.0161085
0.0161016
0.0160926
0.0160815
0.0160683
0.0160528
0.016035
0.016015
0.0159925
0.0159677
0.0159406
0.0159111
0.0158792
0.015845
0.0158086
0.01577
0.0157292
0.0156863
0.0156415
0.0155948
0.0155463
0.0154962
0.0154445
0.0153914
0.015337
0.0152816
0.0152251
0.0151678
0.0151098
0.0150513
0.0149925
0.0149334
0.0148742
0.0148151
0.0147563
0.0146978
0.0146398
0.0145824
0.0145258
0.0144701
0.0144154
0.0143618
0.0143093
0.0142582
0.0142084
0.0141601
0.0141134
0.0140681
0.0140246
0.0139827
0.0139425
0.0139041
0.0138675
0.0138327
0.0137997
0.0137685
0.0137393
0.0137118
0.0136862
0.0136626
0.0136407
0.0136207
0.0136026
0.0135863
0.0135718
0.0135591
0.0135483
0.0135391
0.0135318
0.013526
0.013522
0.0135195
0.0135184
0.0135188
0.0135203
0.0135229
0.0135264
0.0135305
0.0135349
0.0135394
0.0135437
0.0135468
0.016728
0.016729
0.0167297
0.0167294
0.0167282
0.0167263
0.0167236
0.01672
0.0167158
0.016711
0.0167055
0.0166994
0.0166927
0.0166856
0.016678
0.01667
0.0166615
0.0166527
0.0166435
0.016634
0.0166242
0.0166141
0.0166037
0.016593
0.0165821
0.0165708
0.0165594
0.0165476
0.0165357
0.0165234
0.016511
0.0164983
0.0164854
0.0164722
0.0164589
0.0164453
0.0164315
0.0164175
0.0164033
0.0163889
0.0163744
0.0163597
0.0163449
0.0163299
0.0163148
0.0162996
0.0162844
0.016269
0.0162537
0.0162383
0.0162229
0.0162075
0.0161922
0.0161769
0.0161617
0.0161467
0.0161318
0.016117
0.0161025
0.0160882
0.0160742
0.0160605
0.0160471
0.016034
0.0160214
0.0160091
0.0159973
0.015986
0.0159752
0.015965
0.0159553
0.0159462
0.0159377
0.01593
0.0159229
0.0159165
0.0159108
0.015906
0.0159019
0.0158986
0.0158961
0.0158944
0.0158935
0.0158935
0.0158943
0.015896
0.0158985
0.0159017
0.0159058
0.0159107
0.0159162
0.0159225
0.0159295
0.0159371
0.0159452
0.0159539
0.015963
0.0159726
0.0159824
0.0159924
0.0160026
0.0160129
0.0160231
0.0160332
0.0160431
0.0160525
0.0160616
0.01607
0.0160778
0.0160847
0.0160907
0.0160957
0.0160995
0.016102
0.0161031
0.0161027
0.0161007
0.016097
0.0160915
0.016084
0.0160746
0.0160631
0.0160494
0.0160336
0.0160155
0.0159952
0.0159726
0.0159476
0.0159203
0.0158907
0.0158589
0.0158247
0.0157884
0.0157499
0.0157093
0.0156666
0.0156221
0.0155757
0.0155275
0.0154778
0.0154265
0.015374
0.0153201
0.0152652
0.0152093
0.0151527
0.0150953
0.0150375
0.0149794
0.014921
0.0148626
0.0148043
0.0147462
0.0146885
0.0146314
0.0145748
0.014519
0.0144642
0.0144103
0.0143575
0.0143058
0.0142555
0.0142065
0.014159
0.014113
0.0140685
0.0140256
0.0139844
0.0139449
0.0139071
0.0138711
0.0138369
0.0138044
0.0137738
0.013745
0.0137179
0.0136928
0.0136694
0.0136478
0.0136281
0.0136101
0.0135939
0.0135795
0.0135669
0.0135559
0.0135467
0.0135392
0.0135332
0.0135288
0.013526
0.0135246
0.0135245
0.0135256
0.0135278
0.013531
0.0135349
0.0135393
0.0135441
0.0135492
0.0135533
0.0167301
0.0167311
0.0167317
0.0167314
0.0167302
0.0167282
0.0167254
0.016722
0.0167178
0.016713
0.0167076
0.0167017
0.0166952
0.0166883
0.0166808
0.016673
0.0166648
0.0166562
0.0166472
0.0166379
0.0166283
0.0166183
0.0166081
0.0165976
0.0165869
0.0165759
0.0165646
0.016553
0.0165412
0.0165292
0.0165169
0.0165044
0.0164916
0.0164787
0.0164655
0.016452
0.0164384
0.0164246
0.0164106
0.0163964
0.016382
0.0163675
0.0163528
0.016338
0.0163231
0.0163081
0.016293
0.0162779
0.0162627
0.0162474
0.0162322
0.016217
0.0162018
0.0161867
0.0161716
0.0161567
0.0161419
0.0161273
0.0161129
0.0160987
0.0160848
0.0160711
0.0160577
0.0160447
0.0160321
0.0160198
0.016008
0.0159967
0.0159858
0.0159754
0.0159657
0.0159564
0.0159478
0.0159399
0.0159326
0.015926
0.01592
0.0159149
0.0159105
0.0159068
0.0159039
0.0159018
0.0159006
0.0159001
0.0159004
0.0159016
0.0159035
0.0159062
0.0159097
0.015914
0.0159189
0.0159246
0.0159309
0.0159378
0.0159453
0.0159532
0.0159616
0.0159705
0.0159795
0.0159889
0.0159983
0.0160079
0.0160174
0.0160267
0.0160358
0.0160446
0.0160529
0.0160606
0.0160677
0.016074
0.0160793
0.0160837
0.0160868
0.0160887
0.0160893
0.0160883
0.0160858
0.0160816
0.0160756
0.0160677
0.0160579
0.016046
0.016032
0.0160159
0.0159975
0.015977
0.0159541
0.015929
0.0159017
0.015872
0.0158401
0.0158059
0.0157696
0.0157312
0.0156907
0.0156482
0.0156038
0.0155577
0.0155098
0.0154604
0.0154095
0.0153573
0.0153038
0.0152494
0.015194
0.0151378
0.015081
0.0150238
0.0149662
0.0149085
0.0148507
0.014793
0.0147356
0.0146786
0.0146221
0.0145663
0.0145113
0.0144571
0.0144039
0.0143519
0.014301
0.0142514
0.0142031
0.0141563
0.014111
0.0140672
0.014025
0.0139844
0.0139455
0.0139084
0.0138729
0.0138392
0.0138073
0.0137771
0.0137487
0.0137222
0.0136973
0.0136743
0.013653
0.0136335
0.0136157
0.0135997
0.0135854
0.0135728
0.0135618
0.0135525
0.0135449
0.0135387
0.0135342
0.013531
0.0135294
0.013529
0.0135298
0.0135318
0.0135348
0.0135387
0.0135433
0.0135486
0.0135548
0.0135598
0.0167333
0.0167341
0.0167346
0.0167341
0.0167328
0.0167308
0.016728
0.0167245
0.0167204
0.0167157
0.0167104
0.0167045
0.0166982
0.0166914
0.0166841
0.0166764
0.0166684
0.0166599
0.0166511
0.016642
0.0166326
0.0166229
0.0166128
0.0166025
0.0165919
0.0165811
0.01657
0.0165586
0.016547
0.0165351
0.016523
0.0165107
0.0164981
0.0164853
0.0164722
0.016459
0.0164455
0.0164318
0.016418
0.016404
0.0163898
0.0163754
0.0163609
0.0163463
0.0163315
0.0163166
0.0163017
0.0162867
0.0162716
0.0162565
0.0162414
0.0162263
0.0162113
0.0161963
0.0161813
0.0161665
0.0161518
0.0161373
0.0161229
0.0161088
0.0160949
0.0160813
0.0160679
0.0160549
0.0160422
0.0160299
0.016018
0.0160066
0.0159956
0.0159851
0.0159752
0.0159658
0.015957
0.0159488
0.0159413
0.0159344
0.0159282
0.0159227
0.0159179
0.0159139
0.0159106
0.0159081
0.0159064
0.0159055
0.0159053
0.015906
0.0159074
0.0159095
0.0159125
0.0159161
0.0159205
0.0159255
0.0159312
0.0159375
0.0159443
0.0159516
0.0159594
0.0159675
0.0159759
0.0159846
0.0159934
0.0160023
0.0160111
0.0160198
0.0160283
0.0160364
0.0160441
0.0160512
0.0160577
0.0160634
0.0160682
0.016072
0.0160746
0.016076
0.0160761
0.0160747
0.0160717
0.0160671
0.0160607
0.0160524
0.0160422
0.0160301
0.0160158
0.0159994
0.0159808
0.0159601
0.0159371
0.0159118
0.0158843
0.0158546
0.0158226
0.0157885
0.0157522
0.0157138
0.0156733
0.015631
0.0155867
0.0155407
0.015493
0.0154438
0.0153932
0.0153412
0.0152881
0.0152339
0.0151789
0.0151232
0.0150668
0.01501
0.0149529
0.0148956
0.0148384
0.0147813
0.0147244
0.014668
0.0146121
0.0145569
0.0145024
0.0144489
0.0143964
0.0143449
0.0142947
0.0142458
0.0141982
0.014152
0.0141073
0.0140641
0.0140226
0.0139826
0.0139443
0.0139077
0.0138728
0.0138397
0.0138082
0.0137785
0.0137506
0.0137244
0.0137
0.0136773
0.0136563
0.013637
0.0136195
0.0136036
0.0135894
0.0135768
0.0135659
0.0135566
0.0135488
0.0135426
0.0135379
0.0135346
0.0135327
0.0135322
0.0135329
0.0135348
0.0135378
0.0135418
0.0135467
0.0135526
0.0135598
0.0135657
0.0167374
0.0167381
0.0167384
0.0167378
0.0167363
0.0167341
0.0167313
0.0167278
0.0167236
0.0167189
0.0167137
0.0167079
0.0167016
0.0166949
0.0166878
0.0166803
0.0166723
0.0166641
0.0166554
0.0166465
0.0166372
0.0166277
0.0166178
0.0166077
0.0165973
0.0165866
0.0165756
0.0165644
0.016553
0.0165413
0.0165293
0.0165171
0.0165047
0.016492
0.0164791
0.016466
0.0164527
0.0164392
0.0164255
0.0164116
0.0163976
0.0163833
0.016369
0.0163545
0.0163398
0.0163251
0.0163103
0.0162954
0.0162805
0.0162655
0.0162505
0.0162355
0.0162205
0.0162056
0.0161908
0.016176
0.0161614
0.0161469
0.0161326
0.0161184
0.0161045
0.0160909
0.0160775
0.0160644
0.0160517
0.0160393
0.0160273
0.0160157
0.0160046
0.015994
0.0159838
0.0159742
0.0159652
0.0159568
0.0159489
0.0159417
0.0159352
0.0159293
0.0159242
0.0159198
0.0159161
0.0159132
0.015911
0.0159096
0.0159089
0.015909
0.0159099
0.0159115
0.0159139
0.015917
0.0159208
0.0159252
0.0159303
0.015936
0.0159422
0.0159489
0.015956
0.0159636
0.0159714
0.0159794
0.0159876
0.0159959
0.0160042
0.0160123
0.0160202
0.0160278
0.0160349
0.0160415
0.0160475
0.0160527
0.016057
0.0160603
0.0160625
0.0160635
0.0160632
0.0160614
0.0160581
0.0160531
0.0160464
0.0160379
0.0160274
0.016015
0.0160005
0.0159839
0.0159651
0.0159442
0.0159211
0.0158957
0.0158681
0.0158382
0.0158062
0.015772
0.0157357
0.0156973
0.0156569
0.0156146
0.0155704
0.0155245
0.0154769
0.0154279
0.0153774
0.0153256
0.0152727
0.0152188
0.015164
0.0151086
0.0150525
0.0149961
0.0149393
0.0148825
0.0148256
0.0147689
0.0147125
0.0146566
0.0146012
0.0145464
0.0144925
0.0144396
0.0143876
0.0143367
0.014287
0.0142387
0.0141917
0.0141461
0.0141019
0.0140594
0.0140184
0.013979
0.0139413
0.0139052
0.0138709
0.0138382
0.0138072
0.013778
0.0137505
0.0137247
0.0137007
0.0136783
0.0136576
0.0136386
0.0136213
0.0136056
0.0135915
0.0135791
0.0135682
0.0135589
0.0135511
0.0135448
0.01354
0.0135366
0.0135346
0.013534
0.0135346
0.0135365
0.0135396
0.0135439
0.0135492
0.0135557
0.0135638
0.0135707
0.0167426
0.016743
0.016743
0.0167421
0.0167405
0.0167382
0.0167352
0.0167316
0.0167274
0.0167227
0.0167175
0.0167117
0.0167055
0.0166989
0.0166919
0.0166844
0.0166767
0.0166685
0.01666
0.0166512
0.0166421
0.0166327
0.016623
0.0166131
0.0166028
0.0165923
0.0165815
0.0165705
0.0165592
0.0165476
0.0165358
0.0165238
0.0165115
0.0164989
0.0164862
0.0164732
0.0164601
0.0164467
0.0164331
0.0164193
0.0164054
0.0163913
0.0163771
0.0163627
0.0163481
0.0163335
0.0163188
0.016304
0.0162892
0.0162743
0.0162593
0.0162444
0.0162295
0.0162146
0.0161998
0.0161851
0.0161705
0.016156
0.0161417
0.0161275
0.0161136
0.0160999
0.0160864
0.0160732
0.0160604
0.0160479
0.0160357
0.016024
0.0160127
0.0160018
0.0159915
0.0159816
0.0159723
0.0159635
0.0159554
0.0159478
0.015941
0.0159347
0.0159292
0.0159243
0.0159202
0.0159168
0.0159141
0.0159122
0.0159111
0.0159107
0.015911
0.0159121
0.0159139
0.0159164
0.0159196
0.0159235
0.015928
0.0159331
0.0159387
0.0159448
0.0159514
0.0159584
0.0159656
0.0159731
0.0159808
0.0159885
0.0159962
0.0160039
0.0160113
0.0160184
0.0160251
0.0160312
0.0160368
0.0160416
0.0160455
0.0160485
0.0160503
0.016051
0.0160503
0.0160482
0.0160446
0.0160394
0.0160324
0.0160237
0.016013
0.0160004
0.0159857
0.0159689
0.01595
0.015929
0.0159057
0.0158802
0.0158525
0.0158227
0.0157906
0.0157563
0.01572
0.0156815
0.0156411
0.0155988
0.0155547
0.0155088
0.0154613
0.0154123
0.015362
0.0153103
0.0152576
0.0152038
0.0151492
0.015094
0.0150381
0.0149819
0.0149254
0.0148688
0.0148123
0.014756
0.0146999
0.0146443
0.0145893
0.014535
0.0144816
0.014429
0.0143775
0.0143272
0.014278
0.0142301
0.0141836
0.0141386
0.014095
0.0140529
0.0140125
0.0139736
0.0139364
0.0139009
0.013867
0.0138348
0.0138043
0.0137756
0.0137485
0.0137231
0.0136994
0.0136774
0.013657
0.0136383
0.0136212
0.0136057
0.0135918
0.0135795
0.0135687
0.0135594
0.0135516
0.0135453
0.0135405
0.0135371
0.013535
0.0135344
0.013535
0.013537
0.0135402
0.0135448
0.0135505
0.0135577
0.0135667
0.0135743
0.0167486
0.0167488
0.0167484
0.0167473
0.0167454
0.0167429
0.0167398
0.0167361
0.0167318
0.016727
0.0167217
0.016716
0.0167099
0.0167033
0.0166963
0.016689
0.0166813
0.0166733
0.0166649
0.0166563
0.0166473
0.0166381
0.0166285
0.0166187
0.0166086
0.0165982
0.0165876
0.0165767
0.0165655
0.0165541
0.0165424
0.0165305
0.0165184
0.016506
0.0164934
0.0164805
0.0164675
0.0164542
0.0164408
0.0164271
0.0164133
0.0163993
0.0163851
0.0163708
0.0163564
0.0163419
0.0163272
0.0163125
0.0162977
0.0162828
0.016268
0.0162531
0.0162382
0.0162233
0.0162085
0.0161938
0.0161792
0.0161646
0.0161502
0.016136
0.016122
0.0161082
0.0160946
0.0160813
0.0160683
0.0160556
0.0160433
0.0160313
0.0160197
0.0160086
0.015998
0.0159878
0.0159782
0.0159691
0.0159605
0.0159526
0.0159453
0.0159387
0.0159327
0.0159273
0.0159227
0.0159188
0.0159157
0.0159132
0.0159115
0.0159106
0.0159104
0.0159109
0.0159122
0.0159141
0.0159168
0.0159201
0.015924
0.0159285
0.0159336
0.0159392
0.0159452
0.0159517
0.0159584
0.0159654
0.0159726
0.0159798
0.0159871
0.0159943
0.0160013
0.016008
0.0160143
0.0160201
0.0160252
0.0160297
0.0160333
0.016036
0.0160376
0.016038
0.0160371
0.0160348
0.016031
0.0160255
0.0160184
0.0160095
0.0159986
0.0159859
0.0159711
0.0159542
0.0159352
0.0159141
0.0158907
0.0158652
0.0158374
0.0158075
0.0157753
0.015741
0.0157046
0.0156662
0.0156258
0.0155835
0.0155393
0.0154935
0.015446
0.015397
0.0153467
0.0152951
0.0152424
0.0151888
0.0151343
0.0150792
0.0150235
0.0149674
0.0149111
0.0148548
0.0147984
0.0147423
0.0146866
0.0146313
0.0145766
0.0145226
0.0144695
0.0144173
0.0143662
0.0143163
0.0142675
0.0142201
0.0141741
0.0141295
0.0140864
0.0140448
0.0140048
0.0139665
0.0139297
0.0138947
0.0138613
0.0138296
0.0137996
0.0137712
0.0137446
0.0137196
0.0136963
0.0136746
0.0136545
0.0136361
0.0136192
0.0136039
0.0135902
0.013578
0.0135673
0.0135582
0.0135504
0.0135442
0.0135393
0.0135359
0.0135339
0.0135332
0.013534
0.0135361
0.0135395
0.0135443
0.0135505
0.0135582
0.013568
0.0135764
0.0167556
0.0167553
0.0167546
0.0167531
0.016751
0.0167482
0.0167449
0.0167411
0.0167367
0.0167318
0.0167265
0.0167207
0.0167146
0.0167081
0.0167012
0.0166939
0.0166863
0.0166784
0.0166701
0.0166616
0.0166528
0.0166436
0.0166342
0.0166245
0.0166146
0.0166043
0.0165938
0.016583
0.016572
0.0165608
0.0165492
0.0165374
0.0165254
0.0165131
0.0165006
0.0164879
0.016475
0.0164618
0.0164484
0.0164349
0.0164211
0.0164072
0.0163931
0.0163789
0.0163645
0.0163501
0.0163355
0.0163208
0.016306
0.0162912
0.0162763
0.0162614
0.0162465
0.0162317
0.0162168
0.016202
0.0161873
0.0161727
0.0161582
0.0161439
0.0161297
0.0161157
0.016102
0.0160885
0.0160753
0.0160623
0.0160497
0.0160375
0.0160257
0.0160142
0.0160032
0.0159927
0.0159827
0.0159732
0.0159643
0.0159559
0.0159481
0.015941
0.0159345
0.0159287
0.0159236
0.0159191
0.0159154
0.0159124
0.0159102
0.0159087
0.0159079
0.0159078
0.0159085
0.0159099
0.015912
0.0159147
0.0159181
0.0159221
0.0159266
0.0159317
0.0159372
0.0159431
0.0159494
0.0159559
0.0159626
0.0159695
0.0159763
0.0159831
0.0159897
0.0159961
0.0160021
0.0160076
0.0160125
0.0160167
0.01602
0.0160225
0.0160239
0.0160241
0.016023
0.0160206
0.0160166
0.0160111
0.0160039
0.0159948
0.0159839
0.0159711
0.0159563
0.0159393
0.0159203
0.0158991
0.0158757
0.0158501
0.0158223
0.0157924
0.0157602
0.0157259
0.0156895
0.015651
0.0156106
0.0155682
0.0155241
0.0154782
0.0154307
0.0153818
0.0153314
0.0152799
0.0152272
0.0151736
0.0151192
0.0150641
0.0150085
0.0149525
0.0148963
0.0148401
0.0147839
0.014728
0.0146724
0.0146173
0.0145629
0.0145092
0.0144564
0.0144045
0.0143537
0.0143041
0.0142557
0.0142087
0.014163
0.0141189
0.0140762
0.014035
0.0139955
0.0139576
0.0139213
0.0138867
0.0138538
0.0138225
0.0137929
0.013765
0.0137388
0.0137142
0.0136912
0.0136699
0.0136501
0.013632
0.0136154
0.0136003
0.0135868
0.0135748
0.0135642
0.0135551
0.0135475
0.0135413
0.0135365
0.0135331
0.0135312
0.0135306
0.0135314
0.0135336
0.0135373
0.0135424
0.013549
0.0135572
0.0135677
0.0135767
0.0167633
0.0167626
0.0167615
0.0167596
0.0167572
0.0167541
0.0167506
0.0167466
0.016742
0.0167371
0.0167317
0.0167259
0.0167197
0.0167132
0.0167063
0.0166991
0.0166916
0.0166837
0.0166756
0.0166672
0.0166584
0.0166494
0.0166401
0.0166306
0.0166207
0.0166106
0.0166002
0.0165896
0.0165787
0.0165675
0.0165561
0.0165444
0.0165325
0.0165204
0.016508
0.0164953
0.0164825
0.0164694
0.0164561
0.0164426
0.0164289
0.0164151
0.0164011
0.0163869
0.0163725
0.0163581
0.0163435
0.0163288
0.016314
0.0162992
0.0162843
0.0162694
0.0162544
0.0162395
0.0162245
0.0162097
0.0161949
0.0161801
0.0161655
0.016151
0.0161366
0.0161224
0.0161085
0.0160947
0.0160812
0.016068
0.0160551
0.0160425
0.0160303
0.0160185
0.0160071
0.0159962
0.0159857
0.0159758
0.0159663
0.0159575
0.0159492
0.0159416
0.0159345
0.0159282
0.0159225
0.0159175
0.0159132
0.0159096
0.0159067
0.0159046
0.0159033
0.0159026
0.0159027
0.0159035
0.015905
0.0159071
0.01591
0.0159134
0.0159174
0.0159219
0.015927
0.0159324
0.0159382
0.0159443
0.0159506
0.0159571
0.0159635
0.01597
0.0159763
0.0159824
0.0159881
0.0159933
0.015998
0.016002
0.0160052
0.0160075
0.0160088
0.0160089
0.0160078
0.0160052
0.0160012
0.0159956
0.0159884
0.0159794
0.0159684
0.0159556
0.0159408
0.0159239
0.0159048
0.0158837
0.0158603
0.0158347
0.0158069
0.015777
0.0157448
0.0157105
0.0156741
0.0156356
0.0155952
0.0155528
0.0155087
0.0154628
0.0154153
0.0153663
0.015316
0.0152644
0.0152117
0.0151581
0.0151037
0.0150486
0.014993
0.0149371
0.014881
0.0148248
0.0147687
0.0147129
0.0146575
0.0146025
0.0145483
0.0144948
0.0144421
0.0143905
0.01434
0.0142907
0.0142426
0.0141959
0.0141506
0.0141067
0.0140644
0.0140237
0.0139846
0.0139471
0.0139112
0.013877
0.0138445
0.0138136
0.0137845
0.013757
0.0137311
0.0137069
0.0136843
0.0136633
0.0136438
0.013626
0.0136097
0.0135948
0.0135815
0.0135697
0.0135593
0.0135504
0.0135428
0.0135367
0.013532
0.0135287
0.0135268
0.0135263
0.0135273
0.0135296
0.0135335
0.0135389
0.0135458
0.0135545
0.0135656
0.0135751
0.0167717
0.0167706
0.016769
0.0167667
0.0167639
0.0167606
0.0167568
0.0167525
0.0167478
0.0167427
0.0167373
0.0167314
0.0167252
0.0167187
0.0167118
0.0167046
0.0166972
0.0166894
0.0166813
0.0166729
0.0166643
0.0166554
0.0166462
0.0166368
0.0166271
0.0166171
0.0166068
0.0165963
0.0165855
0.0165744
0.0165631
0.0165515
0.0165397
0.0165276
0.0165153
0.0165028
0.01649
0.016477
0.0164637
0.0164503
0.0164367
0.0164228
0.0164088
0.0163947
0.0163803
0.0163659
0.0163513
0.0163366
0.0163218
0.0163069
0.0162919
0.0162769
0.0162618
0.0162468
0.0162317
0.0162167
0.0162017
0.0161868
0.0161719
0.0161572
0.0161426
0.0161282
0.0161139
0.0160998
0.016086
0.0160724
0.0160592
0.0160462
0.0160336
0.0160213
0.0160095
0.015998
0.0159871
0.0159766
0.0159666
0.0159572
0.0159484
0.0159401
0.0159325
0.0159255
0.0159192
0.0159135
0.0159086
0.0159044
0.0159009
0.0158982
0.0158961
0.0158949
0.0158943
0.0158945
0.0158954
0.015897
0.0158992
0.0159021
0.0159056
0.0159096
0.0159141
0.0159191
0.0159245
0.0159301
0.0159361
0.0159421
0.0159483
0.0159544
0.0159605
0.0159663
0.0159718
0.0159769
0.0159814
0.0159853
0.0159884
0.0159906
0.0159918
0.0159919
0.0159907
0.0159882
0.0159843
0.0159787
0.0159715
0.0159625
0.0159517
0.015939
0.0159242
0.0159074
0.0158884
0.0158673
0.0158441
0.0158186
0.0157909
0.0157609
0.0157289
0.0156946
0.0156582
0.0156198
0.0155794
0.015537
0.0154929
0.015447
0.0153995
0.0153505
0.0153001
0.0152485
0.0151958
0.0151422
0.0150878
0.0150327
0.0149771
0.0149211
0.014865
0.0148089
0.0147528
0.0146971
0.0146417
0.0145869
0.0145327
0.0144793
0.0144268
0.0143754
0.0143251
0.014276
0.0142281
0.0141817
0.0141367
0.0140932
0.0140512
0.0140108
0.013972
0.0139349
0.0138994
0.0138656
0.0138335
0.013803
0.0137742
0.0137471
0.0137216
0.0136978
0.0136755
0.0136548
0.0136357
0.0136182
0.0136021
0.0135876
0.0135745
0.0135628
0.0135526
0.0135438
0.0135364
0.0135304
0.0135258
0.0135226
0.0135208
0.0135204
0.0135215
0.013524
0.013528
0.0135337
0.0135409
0.01355
0.0135616
0.0135715
0.0167807
0.0167793
0.016777
0.0167743
0.0167712
0.0167675
0.0167634
0.016759
0.0167541
0.0167488
0.0167432
0.0167373
0.016731
0.0167245
0.0167176
0.0167104
0.016703
0.0166952
0.0166872
0.016679
0.0166704
0.0166616
0.0166525
0.0166431
0.0166335
0.0166236
0.0166135
0.016603
0.0165924
0.0165814
0.0165702
0.0165587
0.0165469
0.0165349
0.0165227
0.0165102
0.0164975
0.0164845
0.0164713
0.0164579
0.0164443
0.0164304
0.0164164
0.0164022
0.0163879
0.0163734
0.0163587
0.016344
0.0163291
0.0163141
0.016299
0.0162839
0.0162687
0.0162534
0.0162382
0.016223
0.0162078
0.0161926
0.0161775
0.0161625
0.0161476
0.0161328
0.0161182
0.0161037
0.0160895
0.0160755
0.0160618
0.0160484
0.0160352
0.0160225
0.0160101
0.0159981
0.0159865
0.0159755
0.0159649
0.0159548
0.0159453
0.0159364
0.0159281
0.0159204
0.0159134
0.0159071
0.0159015
0.0158966
0.0158924
0.0158889
0.0158862
0.0158843
0.0158831
0.0158826
0.0158829
0.0158838
0.0158855
0.0158878
0.0158907
0.0158942
0.0158982
0.0159027
0.0159077
0.0159129
0.0159185
0.0159242
0.0159301
0.015936
0.0159418
0.0159474
0.0159527
0.0159577
0.0159621
0.0159659
0.015969
0.0159712
0.0159724
0.0159725
0.0159714
0.015969
0.0159652
0.0159597
0.0159527
0.0159438
0.0159332
0.0159206
0.015906
0.0158893
0.0158706
0.0158497
0.0158265
0.0158012
0.0157736
0.0157439
0.0157119
0.0156778
0.0156415
0.0156032
0.0155628
0.0155205
0.0154764
0.0154305
0.0153831
0.0153341
0.0152837
0.0152321
0.0151794
0.0151257
0.0150712
0.0150161
0.0149605
0.0149045
0.0148484
0.0147922
0.0147362
0.0146804
0.0146251
0.0145703
0.0145162
0.0144629
0.0144105
0.0143592
0.014309
0.0142601
0.0142125
0.0141662
0.0141215
0.0140782
0.0140365
0.0139964
0.013958
0.0139212
0.013886
0.0138526
0.0138208
0.0137907
0.0137623
0.0137355
0.0137104
0.0136869
0.013665
0.0136446
0.0136258
0.0136086
0.0135928
0.0135785
0.0135656
0.0135542
0.0135441
0.0135355
0.0135283
0.0135224
0.0135179
0.0135148
0.0135131
0.0135128
0.013514
0.0135166
0.0135209
0.0135267
0.0135342
0.0135436
0.0135555
0.0135657
0.0167903
0.0167884
0.0167856
0.0167825
0.0167789
0.0167749
0.0167705
0.0167657
0.0167606
0.0167552
0.0167495
0.0167434
0.0167371
0.0167305
0.0167236
0.0167164
0.016709
0.0167013
0.0166934
0.0166852
0.0166767
0.0166679
0.0166589
0.0166497
0.0166401
0.0166303
0.0166202
0.0166099
0.0165993
0.0165884
0.0165773
0.0165658
0.0165541
0.0165422
0.01653
0.0165175
0.0165048
0.0164919
0.0164787
0.0164653
0.0164517
0.0164378
0.0164238
0.0164095
0.0163951
0.0163805
0.0163658
0.0163509
0.0163359
0.0163208
0.0163055
0.0162902
0.0162748
0.0162594
0.0162439
0.0162284
0.0162129
0.0161975
0.016182
0.0161667
0.0161514
0.0161362
0.0161212
0.0161063
0.0160916
0.0160771
0.0160628
0.0160488
0.0160351
0.0160218
0.0160087
0.0159961
0.0159839
0.0159721
0.0159609
0.0159501
0.0159399
0.0159302
0.0159211
0.0159127
0.0159049
0.0158978
0.0158914
0.0158858
0.0158808
0.0158766
0.0158732
0.0158705
0.0158686
0.0158674
0.015867
0.0158673
0.0158683
0.01587
0.0158723
0.0158753
0.0158788
0.0158828
0.0158873
0.0158922
0.0158974
0.0159028
0.0159084
0.015914
0.0159196
0.015925
0.0159302
0.0159351
0.0159395
0.0159433
0.0159464
0.0159486
0.0159499
0.0159502
0.0159492
0.015947
0.0159433
0.0159381
0.0159313
0.0159227
0.0159123
0.0159
0.0158857
0.0158693
0.0158508
0.0158301
0.0158073
0.0157822
0.0157549
0.0157253
0.0156936
0.0156596
0.0156235
0.0155853
0.0155451
0.015503
0.015459
0.0154132
0.0153658
0.0153168
0.0152665
0.0152149
0.0151622
0.0151085
0.015054
0.0149989
0.0149432
0.0148872
0.0148311
0.0147749
0.0147188
0.014663
0.0146077
0.0145529
0.0144988
0.0144455
0.0143933
0.014342
0.0142919
0.0142431
0.0141956
0.0141496