/*--------------------------------*- C++ -*----------------------------------*\
  =========                 |
  \\      /  F ield         | OpenFOAM: The Open Source CFD Toolbox
   \\    /   O peration     | Website:  https://openfoam.org
    \\  /    A nd           | Version:  6
     \\/     M anipulation  |
\*---------------------------------------------------------------------------*/
FoamFile
{
    version     2.0;
    format      ascii;
    class       volVectorField;
    location    "0";
    object      U_rec;
}
// * * * * * * * * * * * * * * * * * * * * * * * * * * * * * * * * * * * * * //

dimensions      [0 1 -1 0 0 0 0];

internalField   nonuniform List<vector> 
918
(
(0.983617 -0.00501576 0)
(-0.00215089 2.98209 0)
(-0.0147281 1.69354 0)
(0.976101 0.00756961 0)
(-0.00289625 1.65356 5.84617e-17)
(-0.000977893 2.97159 -4.55826e-17)
(0.947922 1.44136 2.6644e-19)
(0.468214 0.236438 1.50662e-19)
(0.993354 -0.000327954 0)
(0.0143209 1.49529 0)
(-0.000776952 1.54587 0)
(0.88347 -0.00279218 0)
(0.00105094 2.98564 0)
(0.00501978 2.89513 0)
(0.00114252 2.89658 1.29433e-17)
(-0.00718043 1.6188 3.46348e-17)
(0.642103 0.130948 7.47033e-18)
(0.170974 1.56651 -4.10375e-17)
(0.982347 0.00656344 0)
(0.00447361 1.61667 0)
(-0.0200577 0.00694245 1.19666e-18)
(0.983866 0.00885516 0)
(1.0036 0.0108815 0)
(1.01509 0.000193697 0)
(0.799429 -0.00119671 0)
(0.01842 2.93506 0)
(-0.00887042 2.94337 -8.90296e-17)
(-0.0137271 1.72085 0)
(0.00217696 1.76483 0)
(-0.00732264 1.71797 0)
(-0.0102906 1.79002 0)
(-0.0118435 1.66524 5.84665e-17)
(-0.00731869 1.6234 0)
(-0.00896404 3.00941 -2.82903e-23)
(0.00289272 3.02042 -4.41267e-17)
(0.0200937 3.00224 0)
(0.929709 -0.00391404 0)
(0.595993 1.10516 -9.0465e-18)
(0.971474 1.44626 -3.95078e-18)
(1.08694 1.28289 1.99816e-17)
(0.824649 1.57328 1.06645e-17)
(0.794665 1.55173 1.10859e-17)
(0.487501 0.307557 1.59081e-19)
(0.520058 0.227729 0)
(1.27483 0.681687 0)
(0.417276 0.319433 5.05303e-19)
(0.39629 0.223034 4.66954e-19)
(0.956714 -0.00272661 0)
(0.996956 0.00227935 0)
(0.993491 0.00368141 0)
(0.990459 0.00187937 0)
(0.982177 0.00839226 0)
(0.994397 0.0134743 0)
(0.0370383 1.58479 -2.35255e-19)
(0.00823985 1.55862 0)
(0.0203678 1.46716 0)
(-0.000995863 1.59763 0)
(0.0038164 1.53445 0)
(-0.0100798 1.65018 0)
(-0.00235009 1.64421 0)
(0.00237974 1.55354 0)
(-0.0123253 1.65223 0)
(-0.00615454 1.55556 0)
(0.955801 0.00155814 0)
(0.930015 0.0115767 0)
(0.899269 0.0013918 0)
(0.919636 0.0132212 0)
(0.870698 -0.00309774 0)
(-0.02416 3.03901 3.14329e-17)
(0.00426997 2.96787 0)
(-0.026612 3.00529 0)
(0.0355077 3.03905 9.68785e-24)
(-0.000211992 3.03057 3.06932e-17)
(0.0166733 3.0087 0)
(0.00200954 2.95722 0)
(0.0052455 2.96877 1.04356e-25)
(0.00374222 2.90249 0)
(0.00190319 2.97539 0)
(0.00611784 2.88427 0)
(0.270014 3.17447 0)
(-0.0641623 3.25728 0)
(0.0907752 2.95528 1.21377e-17)
(0.00145121 2.80222 0)
(-0.00470369 1.76733 0)
(-0.00336076 1.68722 3.46554e-17)
(-0.00358668 1.62763 3.45786e-17)
(0.678126 0.170668 -7.28357e-18)
(0.670237 0.098444 -9.50799e-20)
(0.637829 0.205361 1.37383e-17)
(0.610198 0.164926 -1.39958e-17)
(0.224763 1.24477 0)
(0.261975 1.64172 -4.32159e-17)
(0.365831 1.61615 -4.26085e-17)
(0.993601 0.00636156 0)
(0.968963 0.00311973 0)
(0.99274 -0.00627348 0)
(1.00121 0.000767791 0)
(1.00483 0.0141839 1.13525e-16)
(1.00545 0.0153429 1.48409e-16)
(-0.0065185 1.67533 0)
(-0.00256113 1.60953 0)
(-0.00791372 1.71981 0)
(-0.0118987 1.69139 0)
(-0.000915578 1.63196 0)
(-0.0453441 0.249297 -1.31539e-18)
(0.170668 0.159894 0)
(1.015 -0.0156548 0)
(0.983806 -0.00353929 0)
(0.897282 0.0246289 0)
(0.858804 0.0463467 0)
(0.842288 0.00310565 0)
(1.08861 -0.00209665 0)
(0.812521 0.0455184 0)
(0.74249 -0.00335538 3.33337e-17)
(-0.015997 2.874 2.88258e-17)
(0.0097046 2.98736 0)
(-0.0490383 3.02818 0)
(0.0063502 2.87432 0)
(-0.00677189 2.985 -2.95182e-17)
(-0.00508834 2.93159 0)
(-0.0126395 2.98904 -3.04802e-17)
(-0.0126918 2.95401 3.01217e-17)
(0.00388409 1.77948 0)
(3.40403e-05 1.77911 0)
(0.000613578 1.68739 -1.58232e-20)
(-0.00378604 1.6761 0)
(-0.0020374 1.62117 0)
(0.963546 -0.000104908 0)
(0.928469 -0.00216971 0)
(0.9223 0.00569922 0)
(0.967512 -0.0012846 0)
(0.939358 -0.00203859 0)
(0.644401 1.2294 -8.06723e-18)
(0.732928 1.27371 0)
(0.536782 1.05842 -1.0019e-18)
(0.496365 0.984087 0)
(1.08601 1.28608 1.9536e-17)
(1.18947 1.07885 1.99706e-19)
(0.475301 1.67742 0)
(0.670709 1.66077 0)
(0.583656 1.62037 0)
(0.299549 0.607161 -7.16168e-18)
(0.538737 0.286658 0)
(0.557295 0.209204 -3.04769e-18)
(1.1609 1.10132 0)
(1.22181 0.900126 0)
(1.24241 0.868445 -1.65701e-19)
(1.26759 0.711489 0)
(1.29391 0.500261 -2.95297e-17)
(0.973851 0.00192695 0)
(0.976819 -0.00408586 0)
(0.946378 -0.00226488 0)
(0.997717 -0.00800229 0)
(0.988166 -0.00833344 0)
(0.969714 -0.00191112 0)
(0.988889 -0.00393564 0)
(0.987666 -3.26724e-05 0)
(0.994247 -0.00175983 0)
(0.038066 1.65789 3.28352e-17)
(0.0414329 1.54485 0)
(0.0358278 1.68524 8.70538e-19)
(0.0237012 1.61208 -1.8188e-19)
(0.0961852 1.57833 -4.14414e-17)
(0.0240751 1.53909 0)
(0.0584312 1.48357 0)
(-0.000667895 1.643 0)
(0.00985417 1.55119 0)
(-0.00824049 1.70778 5.58447e-21)
(0.00153483 1.65482 0)
(-0.00915513 1.70353 -3.44768e-17)
(0.002451 1.64887 6.89302e-20)
(0.007515 1.65367 0)
(0.00547622 1.64923 0)
(0.01066 1.55242 0)
(-0.0118136 1.66172 0)
(-0.00679995 1.57452 0)
(0.998831 0.0179689 0)
(0.974272 0.00605817 0)
(0.982818 0.00934339 0)
(0.945932 0.00254703 0)
(0.904178 -0.00449763 0)
(0.946984 0.00193924 0)
(0.939433 0.00884233 0)
(0.900588 -0.00142304 0)
(0.0102173 3.03755 -4.24181e-21)
(0.0149773 3.03367 0)
(0.00524814 2.99356 0)
(0.00287855 2.94147 0)
(0.979061 3.68655 0)
(1.36208 2.73485 -2.66564e-18)
(0.00756054 2.8769 0)
(-0.0100036 2.80012 0)
(-0.00615056 1.76774 0)
(-0.00784782 1.76798 0)
(-0.00863069 1.76835 0)
(-0.00591598 1.78182 -7.78626e-17)
(-0.011182 1.76863 0)
(-0.00502704 1.77469 0)
(0.00202354 1.63374 -6.92483e-17)
(0.00343362 1.69849 -3.46094e-17)
(-0.0059889 1.69483 3.46218e-17)
(-0.000302193 1.63193 0)
(0.710161 0.134992 -1.52484e-17)
(0.700138 0.0666022 -1.54941e-17)
(0.189639 1.38369 0)
(0.276442 1.10619 -1.03738e-19)
(0.125298 1.46451 -3.0334e-17)
(0.147374 1.37821 -2.95602e-17)
(0.949422 0.00626397 0)
(0.979449 0.00525979 0)
(0.984528 0.00834355 0)
(0.956296 0.0056013 0)
(-0.0114038 1.66815 0)
(-0.0044781 1.67009 0)
(-0.00736077 1.59425 0)
(0.338878 0.317443 2.01914e-18)
(0.202981 0.284788 -2.93893e-18)
(0.308322 0.206399 0)
(1.17857 0.102118 -1.20834e-19)
(1.18379 0.0587962 0)
(1.09274 0.0471611 0)
(1.03109 0.00387548 0)
(0.726984 0.0925777 0)
(0.757323 0.0489739 1.64197e-17)
(0.70927 0.0296655 -1.56257e-17)
(-0.0159597 2.95472 -2.93357e-17)
(-0.00820817 2.90379 -5.87695e-17)
(0.00594123 3.02849 -1.67075e-20)
(0.0305085 3.0183 -3.35627e-17)
(-0.016594 3.00265 -2.25475e-21)
(-0.0110037 2.98133 -3.64274e-23)
(-0.0108151 3.02369 -6.59302e-18)
(0.00122893 2.98498 -6.29985e-18)
(0.0430101 3.01983 -3.39572e-17)
(0.977548 0.00558174 0)
(0.970013 0.00967246 0)
(0.936613 0.00340739 0)
(0.974449 0.00770062 0)
(0.964001 0.00985082 0)
(0.933997 0.00674882 0)
(0.949857 -5.67402e-06 0)
(0.955691 0.007577 0)
(0.90733 -0.000199007 0)
(0.788711 1.44551 -1.10492e-19)
(0.870073 1.50778 0)
(0.402053 0.821064 1.84442e-18)
(0.379195 0.874872 6.84529e-19)
(0.442634 0.962391 -1.52226e-17)
(0.425465 0.903387 -1.39442e-17)
(0.381969 0.929713 6.72809e-18)
(0.286703 0.640623 2.11695e-17)
(0.610768 0.23305 -7.45793e-18)
(0.579083 0.258184 -2.42353e-18)
(0.589378 0.188765 6.69205e-18)
(1.29211 0.524629 -2.94619e-17)
(1.29085 0.332651 8.78263e-20)
(0.0174622 1.70231 -3.33246e-17)
(0.01031 1.6333 0)
(1.04484 0.0311881 0)
(1.01651 0.0202609 0)
(0.997225 0.000811165 0)
(0.013917 3.04543 0)
(0.0141735 2.97388 -2.96054e-17)
(0.00982157 2.98509 0)
(0.00310305 2.92318 -3.02801e-17)
(0.0114739 3.05787 1.7299e-17)
(0.0108718 3.05036 0)
(0.849662 1.7411 -2.66146e-18)
(1.19831 2.3157 -1.30967e-17)
(0.939474 1.82515 -1.3492e-17)
(-0.0280152 2.91751 2.88665e-17)
(-0.026573 2.87874 0)
(-0.0185554 2.83643 0)
(-0.0109528 1.69476 6.87659e-17)
(0.00149674 1.6901 -3.44315e-19)
(-0.0102501 1.63374 6.86609e-17)
(0.246087 1.30321 -1.39642e-17)
(0.294883 0.933119 -1.41295e-17)
(0.039422 1.61536 -3.07916e-17)
(0.0764955 1.55007 -3.12845e-17)
(0.0663348 1.4759 -6.20003e-17)
(-0.0198947 3.0691 1.1847e-16)
(-0.00750331 3.06621 1.18871e-16)
(0.00652547 2.98574 3.01896e-17)
(-0.0162044 2.97908 -2.95933e-17)
(-0.00198288 2.93326 2.97447e-17)
(0.016794 3.06193 -1.03998e-16)
(-0.00597016 3.0572 -1.20586e-16)
(0.334775 0.883807 0)
(0.305771 0.834686 -1.2305e-17)
(0.353598 0.6623 -1.42432e-17)
(0.358285 1.00495 3.51395e-17)
(0.313511 0.689904 2.04718e-17)
(1.26843 0.201147 -6.89817e-19)
(1.29397 0.361799 0)
(1.26346 0.176043 3.09489e-20)
(-0.0108007 1.71283 1.88582e-21)
(0.00767852 1.71274 0)
(-0.00119298 1.64541 0)
(0.297877 1.22359 1.75469e-19)
(0.349619 1.13662 -3.52117e-17)
(0.288985 0.796072 -2.73785e-17)
(1.00217 -0.0239785 0)
(1.00177 -0.0140722 1.86475e-17)
(0.00251445 1.77517 0)
(-0.00962288 1.7908 0)
(1.00067 -0.00187463 4.70262e-19)
(1.0012 0.00134785 2.77677e-17)
(0.00111457 1.78196 -7.78609e-17)
(0.000334557 1.77846 0)
(-0.0202076 2.96975 2.93931e-17)
(0.302467 2.99081 0)
(1.09567 0.700578 -2.83239e-17)
(1.00452 0.00769219 8.6717e-17)
(1.01266 -0.00641212 0)
(1.0049 -0.00131483 3.63847e-19)
(-0.111225 1.63476 0)
(-0.0443648 1.9003 0)
(-0.00413305 1.79599 0)
(0.0109049 1.75623 -7.64658e-17)
(-0.00516041 1.76275 7.64944e-17)
(0.988462 0.011187 8.49945e-17)
(1.03618 0.0209687 0)
(1.06072 0.0326531 0)
(-0.00276182 1.77194 0)
(0.000611204 1.77289 0)
(-0.0162816 1.77739 0)
(0.215279 1.5178 -8.4254e-17)
(1.00465 -0.0132585 0)
(1.00674 -0.0148092 0)
(0.995549 0.00551314 -1.40715e-17)
(0.996795 -0.00520765 1.8327e-17)
(0.995091 -0.00340335 0)
(-0.00213989 1.76569 0)
(-0.00176688 1.76735 0)
(-0.00227316 1.76354 0)
(-0.00888157 1.77876 0)
(-0.0252341 1.77764 0)
(-0.0137732 1.77152 0)
(1.01205 0.00298172 0)
(1.01124 0.00669999 8.68926e-17)
(0.837145 1.4181 -3.39529e-18)
(1.0016 -0.00711821 1.44366e-17)
(0.999004 0.00477936 -1.802e-17)
(1.00206 0.00333084 0)
(1.00126 0.0106588 4.34433e-17)
(1.00603 0.0134283 4.22976e-17)
(1.00451 0.0108079 0)
(0.00253252 1.77574 0)
(0.00509367 1.77451 -3.92033e-17)
(-0.00164989 1.77207 -3.51178e-17)
(1.16185 0.261431 -5.35537e-17)
(1.09933 0.081809 0)
(-0.239116 2.9699 2.42062e-17)
(-0.258115 3.23125 3.29042e-19)
(-0.0383632 3.01523 5.62869e-17)
(-0.0411163 2.96826 3.5059e-17)
(0.0468955 2.94341 0)
(-0.0268034 3.02594 1.54257e-17)
(-0.102973 3.12811 2.85445e-17)
(-0.0836995 3.01039 1.5252e-17)
(-0.0613589 3.09687 0)
(0.643241 0.338054 0)
(0.524454 0.384941 0)
(1.07739 0.82295 3.4367e-17)
(1.07359 0.903735 3.34258e-17)
(1.13871 0.63842 0)
(1.15602 0.559654 0)
(1.00742 0.00522604 2.07602e-18)
(1.00374 0.00383251 3.43134e-19)
(1.01422 -0.00745312 0)
(1.0075 -0.0151027 0)
(0.999503 0.010136 0)
(1.00575 0.00372153 0)
(1.00485 0.00618993 0)
(1.0021 0.00588288 0)
(1.00366 0.00503442 0)
(0.993501 0.0062452 0)
(-0.0913068 1.65314 0)
(-0.0945533 1.69289 0)
(-0.0727327 1.60947 0)
(-0.0376676 1.60013 0)
(-0.0411168 1.92848 0)
(0.0066699 1.92318 3.45772e-17)
(-0.0279975 1.88565 0)
(-0.0332513 1.84157 3.41884e-17)
(-0.00509939 1.76122 -7.27508e-17)
(-0.0116437 1.79614 0)
(-0.00425533 1.79283 0)
(0.00338229 1.79748 0)
(-0.00261972 1.79747 0)
(0.0130025 1.7733 -7.70873e-17)
(-0.0195777 1.75258 -4.88892e-17)
(0.0124125 1.75949 3.89688e-17)
(-0.00085127 1.76599 0)
(0.017393 1.76853 3.12853e-17)
(0.00501776 1.77247 -7.36267e-17)
(-0.0157965 1.79041 -1.17172e-16)
(-0.0144337 1.73941 -4.89694e-17)
(0.0093395 1.74633 3.88821e-17)
(0.992075 0.0173357 2.00341e-18)
(0.995256 0.00264868 -7.13788e-19)
(0.987831 0.0240628 2.98016e-18)
(0.975552 0.0174253 8.88483e-19)
(1.0311 0.0123737 0)
(1.03157 0.00960869 0)
(1.04437 0.0336264 0)
(1.03821 0.0307964 0)
(1.04195 0.0144257 0)
(1.08643 0.0719687 0)
(1.06465 0.060921 0)
(1.08107 0.0407925 0)
(-0.0132055 1.7819 1.01329e-17)
(-0.0015709 1.75872 0)
(-0.0156266 1.76696 0)
(-0.00396466 1.77151 -1.5017e-17)
(-0.00167243 1.7736 1.4335e-20)
(-0.0120408 1.78749 4.53307e-17)
(-0.0243548 1.77592 4.53197e-17)
(-0.00483603 1.76913 0)
(-0.0286653 1.77445 0)
(-0.0145927 1.76701 0)
(-0.00648931 1.78008 0)
(-0.0100461 1.78567 0)
(0.400705 1.55286 -5.94683e-17)
(0.422035 1.59885 4.17973e-17)
(0.396625 1.96151 -4.50952e-19)
(0.206181 1.96289 3.17172e-17)
(0.274363 2.04967 3.80046e-17)
(1.01167 -0.0129308 0)
(1.01146 -0.00681543 0)
(1.01492 -0.00856891 0)
(1.00531 0.0034557 0)
(0.997572 -0.00403645 0)
(0.990313 -0.00148631 0)
(1.00216 -0.00103016 0)
(1.00473 -0.000397157 0)
(1.00832 0.00509395 2.68907e-18)
(1.00424 0.00700088 -4.79515e-19)
(1.01157 0.00817672 2.35871e-18)
(1.00695 0.00729822 4.01138e-19)
(0.763223 1.51702 0)
(0.723856 1.55277 -8.04465e-17)
(0.901432 1.37162 7.10038e-17)
(0.95074 1.29448 7.07324e-17)
(1.00207 2.09405 -1.87894e-17)
(0.821338 0.115585 -1.71676e-17)
(1.1117 0.134515 0)
(1.15833 0.188805 -1.02666e-16)
(1.13644 0.139626 -1.26205e-19)
(0.951665 0.141961 0)
(-0.0892664 2.69812 5.76009e-17)
(-0.382496 2.61309 6.46805e-17)
(-0.83284 2.68188 1.09741e-17)
(-0.663948 0.19717 -1.36072e-17)
(0.194784 2.98207 -1.25892e-17)
(0.0401334 2.9744 0)
(0.139708 2.95138 -1.22301e-17)
(0.0201173 2.69421 6.99034e-17)
(0.193277 2.72417 0)
(-0.0231856 3.05269 -1.1296e-19)
(-0.0340872 3.07216 -2.67733e-17)
(-0.00524061 3.0946 -2.64066e-17)
(-0.0437629 3.11112 0)
(-0.0476549 3.05085 0)
(1.13748 2.15638 0)
(0.48918 1.05346 4.77272e-17)
(1.01981 1.09792 -3.38014e-17)
(0.992422 1.22765 0)
(0.829942 1.09269 -1.58992e-17)
(1.04218 1.04206 -6.31321e-17)
(0.170608 0.420676 -5.80744e-18)
(0.65269 0.335957 1.23264e-17)
(0.673671 0.29861 1.4915e-17)
(0.462945 0.454791 2.01669e-19)
(0.425245 0.392301 -3.10646e-18)
(0.606593 0.383883 0)
(0.591721 0.480985 1.46498e-17)
(0.614202 0.434767 0)
(0.544297 0.410814 0)
(0.587919 0.354385 0)
(0.676996 0.692506 3.69461e-17)
(1.17159 0.342683 3.33497e-17)
(1.18243 0.462636 0)
(1.17312 0.387446 0)
(0.746633 0.230316 2.32465e-17)
(0.722032 0.625765 3.50384e-17)
(0.608366 0.569356 1.50642e-17)
(0.870188 0.428683 -8.74249e-17)
(1.0025 0.00580885 4.10969e-17)
(1.00289 0.0147009 4.08288e-17)
(0.997656 0.0109393 0)
(1.00763 0.00533606 0)
(1.00571 -0.0166573 -4.01005e-17)
(0.997499 -0.0111254 -3.92378e-17)
(1.01653 0.000766508 0)
(1.00561 0.00536533 0)
(1.00904 0.000499791 0)
(1.00412 0.00290657 0)
(1.01005 -0.00184444 0)
(1.0064 -0.00587747 0)
(-0.0675679 1.72867 0)
(-0.0510654 1.74167 0)
(-0.144308 1.56218 -5.42466e-17)
(0.156713 1.56063 -4.09637e-17)
(0.0232398 1.57036 7.87339e-17)
(0.0621868 1.53945 3.72608e-17)
(-0.0647012 1.56032 0)
(-0.15082 1.89376 7.31961e-17)
(-0.20164 1.84997 0)
(0.157068 2.09506 3.81167e-17)
(0.12929 2.08694 -4.42762e-17)
(-0.100244 1.82217 7.30087e-17)
(0.123025 1.47205 -4.21108e-17)
(-0.0432542 1.54355 -4.22703e-17)
(0.127629 1.47613 -1.12043e-17)
(0.000595014 1.86592 0)
(0.108715 1.86888 -5.28351e-17)
(-0.0552814 1.76525 5.48885e-18)
(-0.00971432 1.77456 0)
(-0.0944082 1.80705 -7.35765e-17)
(-0.0843858 1.76615 0)
(-0.017998 1.82166 3.4076e-17)
(-0.0120009 1.78888 0)
(0.0192345 1.77882 5.49326e-17)
(0.0226485 1.78263 0)
(0.000837877 1.78628 0)
(0.00382212 1.79534 5.50101e-17)
(-0.0103578 1.74639 -1.20336e-16)
(0.00613649 1.75827 -6.97872e-17)
(-0.00404481 1.75798 3.62062e-21)
(0.00388835 1.76384 7.90984e-17)
(-0.0189786 1.7858 -4.01286e-17)
(-0.0114971 1.79009 0)
(-0.0119193 1.79593 0)
(-0.036472 1.79459 3.24029e-17)
(-0.0331134 1.79178 2.7694e-17)
(-0.013633 1.79286 6.02337e-17)
(-0.0958299 1.80707 0)
(-6.07798e-05 1.77618 1.04193e-16)
(-0.0103201 1.77138 1.76459e-17)
(0.00347073 1.77585 -1.99133e-17)
(0.0101026 1.78079 7.90615e-17)
(0.0145607 1.74119 -4.13462e-18)
(0.00256922 1.74817 -4.51076e-17)
(1.00422 0.0126384 4.0694e-17)
(0.998628 0.00597757 4.04642e-17)
(0.999221 0.00811147 0)
(0.989724 0.0478375 -6.04046e-17)
(0.966499 0.050274 3.45171e-18)
(0.948978 0.0340446 5.76202e-18)
(0.983828 0.0903509 1.77335e-19)
(1.01701 0.0086981 0)
(1.02299 0.0122965 -4.04791e-17)
(1.02034 0.00672114 -4.03305e-17)
(1.02541 0.0385604 2.93422e-18)
(1.02815 0.0356539 -6.22928e-18)
(1.01765 0.0494148 0)
(1.00983 0.0443968 -1.16628e-18)
(1.00375 0.0265201 0)
(0.999897 0.0283773 0)
(1.01738 0.023001 0)
(1.0057 0.0103187 0)
(1.0111 0.0287532 7.16286e-18)
(1.01107 0.0215655 2.42644e-17)
(1.02426 0.0312547 -9.31926e-18)
(1.01749 0.0302089 7.02866e-18)
(1.01595 0.0665745 3.50093e-17)
(1.03804 0.0609926 0)
(1.02857 0.0911709 0)
(0.000481384 1.78392 -5.49403e-17)
(0.016309 1.76331 -8.91139e-19)
(-0.00582881 1.77255 0)
(0.00777653 1.78154 -5.49266e-17)
(0.00169162 1.78651 9.24564e-18)
(0.00341636 1.77782 -4.12191e-18)
(-0.00265715 1.77269 -7.85193e-17)
(0.00556316 1.76727 -2.20002e-19)
(0.00988969 1.76021 -4.94928e-18)
(-0.00466167 1.77084 3.46144e-17)
(-0.00292441 1.77398 3.4863e-17)
(0.0030723 1.76424 -2.36546e-17)
(-0.00232507 1.77711 -3.92922e-17)
(0.377048 1.41081 2.92595e-17)
(0.325071 1.54445 -5.53177e-18)
(0.679017 1.61246 -8.08772e-17)
(0.547209 1.61947 4.15701e-17)
(0.580889 1.61577 0)
(0.425259 1.95766 -3.01382e-18)
(0.501169 1.93721 3.89261e-19)
(0.260972 1.96667 -7.53286e-18)
(0.209523 2.11635 -3.77175e-17)
(0.291123 2.1054 -2.71497e-17)
(0.359597 1.96967 0)
(0.320879 1.93984 -1.45359e-17)
(0.0520756 1.96147 5.13993e-18)
(0.153207 1.97634 6.3473e-17)
(0.110089 1.93221 1.47975e-18)
(0.753337 1.93876 -3.23183e-17)
(0.65957 1.96376 0)
(1.00885 0.0081195 6.01204e-20)
(1.00817 -0.00424385 4.83388e-20)
(1.0033 -0.0202311 -1.21272e-17)
(1.01421 -0.00930264 -1.19358e-17)
(1.01071 0.00127588 0)
(0.707757 1.44584 0)
(0.637278 1.37746 0)
(0.770835 1.22946 0)
(0.681958 1.29878 0)
(0.983762 2.10908 2.97186e-17)
(0.932377 1.93263 0)
(0.705144 1.87715 -1.07677e-18)
(0.717189 2.04577 0)
(0.745963 2.07387 7.15421e-17)
(0.80011 2.02539 7.16153e-17)
(0.803172 0.151157 0)
(0.787786 0.156708 -3.53317e-21)
(0.879334 0.134372 1.65207e-17)
(0.840191 0.111564 -3.19725e-17)
(0.852283 0.0837946 -8.67739e-18)
(1.01566 0.255403 -3.71132e-17)
(0.896554 0.297602 2.93339e-17)
(0.85695 0.284549 3.29968e-17)
(0.946482 0.230787 1.89514e-17)
(0.887808 0.166068 3.10149e-17)
(0.866302 0.195751 -1.00088e-17)
(0.866689 0.262137 -1.08392e-18)
(0.851542 0.227257 0)
(0.950861 0.202034 2.75918e-17)
(0.989177 0.185435 0)
(0.981658 0.255108 0)
(1.0475 0.123782 -9.9581e-18)
(1.00027 0.185152 3.22802e-17)
(0.99125 0.217453 2.03636e-17)
(1.03198 0.20328 0)
(0.994413 0.0264368 -3.19947e-17)
(1.00351 0.0345698 3.85143e-17)
(1.0058 0.0347293 -3.2279e-17)
(1.00422 0.0548926 3.93578e-17)
(0.981771 0.0506032 -6.36881e-17)
(0.944923 0.148132 0)
(0.959188 0.0732543 0)
(0.945454 0.0554181 4.14263e-17)
(0.919776 0.0534559 1.04796e-17)
(0.988376 0.0968296 -3.33108e-17)
(1.01331 0.123984 -3.53327e-17)
(1.00933 0.150829 -2.36817e-18)
(0.977066 0.149471 0)
(1.01578 0.0971237 0)
(1.00965 0.0840802 3.33228e-17)
(0.99166 0.0846383 -3.24626e-17)
(0.544411 1.33409 2.99231e-17)
(0.558856 1.55081 -2.35672e-17)
(0.917407 2.21491 1.64285e-17)
(0.985874 2.47467 -1.55431e-18)
(1.04053 2.19046 -3.72426e-17)
(1.09899 2.23681 8.56174e-18)
(1.0969 1.97227 8.4328e-18)
(1.01068 2.37598 -2.01111e-17)
(1.01155 2.34971 -8.97853e-18)
(1.04952 2.58127 4.36644e-19)
(1.17776 2.45077 6.40734e-19)
(1.24411 2.40318 0)
(0.466721 1.11377 -3.91654e-18)
(-0.180262 1.42171 -1.23698e-17)
(0.0327591 0.596291 -3.29908e-18)
(-0.101704 0.817584 -1.35585e-17)
(0.34201 0.457115 -4.64034e-18)
(0.358534 0.510812 -4.6183e-18)
(0.306316 0.600056 -3.08918e-19)
(0.215058 0.470447 3.43649e-19)
(0.305973 0.387606 -2.53582e-18)
(0.729037 0.27347 2.2476e-17)
(0.683109 0.305038 0)
(0.70578 0.261816 6.31529e-18)
(0.596175 0.569747 -9.56083e-18)
(0.509855 0.542116 4.45554e-18)
(0.424816 0.57799 -6.03732e-18)
(0.491893 0.491534 0)
(0.57378 0.935409 -2.233e-17)
(0.739047 0.906939 5.32853e-17)
(0.682662 1.04071 4.79056e-17)
(0.773513 0.933417 1.19214e-17)
(0.893792 0.92525 -5.12942e-18)
(0.893985 0.990929 -5.12784e-18)
(0.781477 0.756341 -1.1337e-18)
(0.842904 0.80694 1.19713e-17)
(0.929225 0.855256 0)
(0.926298 0.735772 2.41134e-17)
(0.948016 0.324464 5.45468e-17)
(1.0576 0.323859 -1.6232e-17)
(0.995957 0.312854 -4.75642e-17)
(0.903698 0.397686 4.48416e-17)
(0.993329 0.451282 0)
(1.0307 0.422163 0)
(0.814779 0.391671 5.17134e-17)
(0.784618 0.290345 0)
(0.778985 0.289525 -1.21231e-17)
(0.87278 0.315308 7.04362e-17)
(0.82682 0.500266 -6.92016e-17)
(0.752156 0.554097 4.62327e-18)
(0.791072 0.510741 3.43171e-18)
(0.718554 0.467457 3.71191e-18)
(0.702599 0.481459 -3.34902e-18)
(0.666549 0.462898 -3.53609e-18)
(1.017 -0.000928563 -4.16079e-17)
(1.01161 -0.0099194 0)
(1.01922 -0.00216774 1.59112e-17)
(1.00813 0.00578226 -2.56914e-17)
(1.02228 0.00421122 -1.93168e-17)
(1.01225 0.0148717 -8.45529e-18)
(1.00861 0.0110605 0)
(1.00921 0.00403422 1.11313e-17)
(1.01262 0.00827614 4.99576e-18)
(1.00614 0.00865448 -6.40218e-18)
(1.00962 0.00379434 1.12266e-17)
(-0.0214761 1.78777 0)
(-0.0218959 1.80479 0)
(-0.0274832 1.75842 0)
(-0.0194868 1.77109 0)
(-0.148452 1.76416 -1.94778e-18)
(-0.155595 1.69869 -1.12637e-16)
(-0.196765 1.84785 -3.48487e-17)
(-0.236589 1.77558 -8.76508e-17)
(-0.0825047 1.79255 5.63885e-17)
(-0.0758867 1.80221 6.53763e-17)
(-0.120872 1.76829 1.24046e-16)
(-0.0972684 1.77204 5.67636e-17)
(-0.0598093 1.78076 1.01157e-17)
(-0.0513249 1.80282 1.23229e-18)
(-0.108529 1.84402 -7.37016e-17)
(-0.0911389 1.9002 0)
(-0.171707 1.93758 -4.11568e-17)
(-0.208488 1.87649 -4.30522e-18)
(-0.0203428 1.9881 -1.93663e-17)
(-0.00311344 2.0394 0)
(0.0200093 2.04465 5.28074e-17)
(0.0455869 2.08048 5.30044e-17)
(-0.081251 1.97699 -6.65897e-17)
(-0.12564 1.96717 -8.40823e-17)
(-0.0915524 1.97523 0)
(-0.0218856 1.759 3.12035e-17)
(-0.0122128 1.72513 -2.49772e-17)
(-0.0086995 1.74928 0)
(-0.0103985 1.75074 2.17132e-17)
(-0.052999 1.76443 1.91405e-17)
(-0.00199103 1.79004 1.00286e-17)
(-0.00772164 1.78279 -1.06692e-16)
(-0.0206173 1.78912 -6.74976e-17)
(-0.0234407 1.78182 4.91564e-17)
(-0.00199494 1.78326 0)
(0.0113575 1.79135 0)
(-0.00805292 1.78169 -3.95088e-17)
(-0.00448753 1.7728 -4.06269e-18)
(-0.00285945 1.78222 0)
(-0.00902417 1.79029 3.50448e-17)
(-0.00956401 1.78498 -4.65396e-19)
(1.01845 0.0344206 0)
(1.02814 0.02746 -5.06343e-19)
(1.01036 0.0216825 4.05148e-17)
(1.01919 0.0146308 0)
(1.01748 0.0082292 0)
(1.02042 0.00479419 2.20852e-17)
(1.01525 0.011816 -4.76714e-17)
(1.00904 0.00825137 -7.20494e-18)
(1.0055 0.00774756 0)
(1.0071 0.0100609 0)
(1.00653 0.0157385 3.56274e-17)
(1.00181 0.0172017 0)
(1.00578 0.0150581 0)
(-0.00223908 1.77975 0)
(0.000941891 1.77479 -4.26915e-17)
(0.000459347 1.76915 4.44528e-17)
(-0.00501139 1.76663 0)
(0.00922392 1.78067 -3.9895e-17)
(-0.003125 1.76984 -1.98328e-17)
(-0.00783835 1.76345 0)
(0.519263 1.77001 0)
(0.315827 1.59334 1.89918e-17)
(0.326444 1.75072 0)
(0.488608 1.42123 9.14975e-17)
(0.518998 1.4527 0)
(0.506499 1.45349 3.23326e-17)
(0.8318 2.10925 -4.03735e-19)
(0.775992 1.92312 -3.28866e-17)
(0.716182 1.75668 -1.46188e-17)
(0.678324 1.94516 -7.13691e-18)
(0.717597 2.03866 0)
(0.756393 2.01601 0)
(0.711544 1.937 0)
(0.70918 1.93127 -7.83368e-18)
(0.557263 2.1198 -4.30957e-17)
(0.681891 2.03519 3.23912e-18)
(0.678052 2.07224 3.25247e-18)
(0.513839 1.96619 0)
(0.602822 1.96806 0)
(0.58424 1.95931 -3.55602e-19)
(0.628094 2.06943 0)
(0.612004 1.2555 0)
(0.56381 1.15818 -7.05083e-17)
(0.555338 1.14545 -6.47408e-18)
(0.566929 1.24738 0)
(0.567959 1.19781 -6.63226e-17)
(0.723871 1.05433 -1.19128e-17)
(0.774912 1.18929 0)
(0.788137 1.11189 -2.78073e-17)
(0.678776 1.20296 0)
(0.615588 1.1485 0)
(0.917483 2.17983 1.09852e-17)
(0.900155 2.25375 -1.28812e-17)
(0.733902 1.99036 -3.65615e-17)
(0.724462 1.96021 -4.39621e-18)
(0.900324 2.14699 0)
(0.855185 2.12594 -3.29909e-18)
(0.892221 1.99812 -7.77859e-18)
(0.837276 1.81438 -7.88676e-18)
(0.566659 1.47388 0)
(0.538487 1.33196 2.99576e-17)
(0.572925 1.38851 0)
(0.816477 0.215375 0)
(0.778381 0.18891 0)
(0.761019 0.200369 0)
(0.801709 0.251187 -1.2394e-17)
(0.749344 0.230142 7.70907e-18)
(0.926798 0.0766445 1.03331e-17)
(0.920837 0.117121 0)
(0.896317 0.0936182 5.89852e-19)
(0.85962 0.0770987 5.61849e-19)
(0.86751 0.0559678 -8.78135e-18)
(1.03842 2.74372 -1.26253e-17)
(0.976952 2.64636 0)
(0.937696 2.81996 -4.98335e-17)
(0.585528 3.02618 -3.62205e-17)
(0.721222 2.54264 9.41011e-18)
(0.446867 1.18928 -2.19866e-17)
(0.52589 1.1002 0)
(0.232021 0.83181 6.21866e-18)
(0.254692 0.930179 4.80796e-17)
(0.18666 0.796698 8.92984e-18)
(0.261144 0.637887 6.73838e-18)
(0.48845 0.635952 -6.10331e-18)
(0.511816 0.686799 0)
(0.455295 0.781692 0)
(0.349842 0.735813 0)
(0.901199 0.687971 1.28585e-17)
(0.826138 0.604566 3.40041e-18)
(0.842088 0.64332 1.05188e-18)
(0.863753 0.528334 1.75151e-17)
(0.976915 0.553092 0)
(0.976363 0.61913 -1.2286e-17)
(0.771567 0.4175 4.48351e-18)
(0.771986 0.368184 1.82081e-17)
(0.717894 0.39984 4.55687e-19)
(0.719849 0.373255 -2.01848e-18)
(0.763388 0.332309 -1.28935e-17)
(0.74555 0.31266 -1.26007e-17)
(1.02769 0.000913042 -4.49996e-17)
(1.02673 -0.000926413 -2.46069e-17)
(1.02347 0.00450424 4.44605e-17)
(1.02358 0.00396549 4.41342e-17)
(1.01674 0.0219516 0)
(1.00185 0.0153854 -2.8125e-17)
(-0.104406 1.80919 2.76413e-17)
(-0.107682 1.8194 0)
(-0.184996 1.85577 -4.33198e-17)
(-0.199353 1.85892 -6.30896e-17)
(-0.211083 1.8404 -3.48322e-17)
(-0.177982 1.84648 0)
(0.0262624 1.78956 0)
(0.0164767 1.78309 -2.01563e-17)
(0.0022427 1.76824 -2.01447e-17)
(0.000619748 1.7738 -5.06774e-17)
(-0.00652213 1.77936 -1.07834e-17)
(0.0236197 1.78219 -4.11797e-18)
(0.61612 1.47344 -1.20721e-16)
(0.631527 1.53775 -1.25647e-16)
(0.563691 1.4578 7.37334e-17)
(0.620418 1.52095 -4.74803e-18)
(0.674432 1.46676 0)
(0.609145 1.50001 7.38899e-17)
(0.647926 1.49702 7.35044e-17)
(0.584988 1.40406 7.33528e-17)
(0.640742 1.42886 0)
(0.630074 1.4276 0)
(0.55492 2.13615 -4.30868e-17)
(0.505249 2.06882 -6.09693e-17)
(0.560757 2.07401 -6.13708e-17)
(0.439307 2.08099 -3.13069e-18)
(0.383392 2.23438 3.73042e-18)
(0.322586 2.17043 -2.37019e-17)
(0.789838 1.87815 -1.54363e-17)
(0.836438 1.90136 0)
(0.760576 1.742 -5.49122e-19)
(0.85658 2.09478 0)
(0.82503 2.10029 0)
(0.55888 2.01833 -6.57759e-18)
(0.918407 2.46987 -7.26266e-18)
(0.797203 2.47702 3.01339e-18)
(0.167794 1.24415 0)
(0.202349 1.19642 -1.7252e-17)
(0.434671 1.10547 -3.93869e-17)
(0.378916 1.96186 0)
(0.368244 2.32478 9.22219e-18)
(0.203113 2.29821 0)
(0.599988 0.850042 -2.10737e-17)
(0.637161 0.844074 -3.98828e-17)
(0.650971 0.796052 -3.27297e-17)
(0.483138 0.819009 -2.60047e-18)
(0.560909 0.717202 -1.71943e-18)
(0.83146 2.28451 -7.49383e-18)
(0.886553 2.26882 -1.33806e-17)
(0.64669 1.99241 1.62629e-17)
(0.627188 1.68756 2.60728e-17)
(0.672496 1.76246 3.42354e-17)
(0.839489 2.05378 -3.05097e-17)
(0.840547 2.06491 -1.44948e-17)
(0.712116 1.72864 1.06816e-18)
(0.548088 1.46454 3.57167e-17)
)
;

boundaryField
{
    wall-4
    {
        type            calculated;
        value           uniform (0 0 0);
    }
    velocity-inlet-5
    {
        type            calculated;
        value           uniform (1 0 0);
    }
    velocity-inlet-6
    {
        type            calculated;
        value           uniform (0 3 0);
    }
    pressure-outlet-7
    {
        type            calculated;
        value           nonuniform List<vector> 8((-0.0146959 1.69372 0) (-0.00296092 1.65338 5.84617e-17) (0.00246031 1.76497 0) (-0.00994505 1.79001 0) (-0.00459864 1.76722 0) (0.000234414 1.77896 0) (-0.00857485 1.76822 0) (-0.00485327 1.77457 0));
    }
    wall-8
    {
        type            calculated;
        value           uniform (0 0 0);
    }
    frontAndBackPlanes
    {
        type            empty;
    }
}

