/*--------------------------------*- C++ -*----------------------------------*\
  =========                 |
  \\      /  F ield         | OpenFOAM: The Open Source CFD Toolbox
   \\    /   O peration     | Website:  https://openfoam.org
    \\  /    A nd           | Version:  6
     \\/     M anipulation  |
\*---------------------------------------------------------------------------*/
FoamFile
{
    version     2.0;
    format      ascii;
    class       volVectorField;
    location    "23486";
    object      U;
}
// * * * * * * * * * * * * * * * * * * * * * * * * * * * * * * * * * * * * * //

dimensions      [0 1 -1 0 0 0 0];

internalField   nonuniform List<vector> 
115600
(
(0.00653181 -0.00184551 0)
(0.00745841 -3.6121e-05 0)
(0.00796518 1.46169e-06 0)
(0.0082859 1.33447e-06 0)
(0.00852953 6.48479e-07 0)
(0.00868704 1.00272e-06 0)
(0.00875865 1.18672e-06 0)
(0.00877057 1.12443e-06 0)
(0.00874985 1.01691e-06 0)
(0.00870519 9.73038e-07 0)
(0.0086456 9.16966e-07 0)
(0.00857748 8.51951e-07 0)
(0.00850542 7.83338e-07 0)
(0.00843258 7.15466e-07 0)
(0.00836102 6.52234e-07 0)
(0.00829197 5.93679e-07 0)
(0.00822624 5.39472e-07 0)
(0.00816434 4.8916e-07 0)
(0.00810656 4.42272e-07 0)
(0.00805309 3.98375e-07 0)
(0.00800401 3.57085e-07 0)
(0.00795934 3.18077e-07 0)
(0.00791906 2.81073e-07 0)
(0.00788312 2.45827e-07 0)
(0.00785144 2.12122e-07 0)
(0.00782395 1.79769e-07 0)
(0.00780055 1.48601e-07 0)
(0.00778115 1.18463e-07 0)
(0.00776564 8.91893e-08 0)
(0.00775395 6.05428e-08 0)
(0.00774599 3.24682e-08 0)
(0.00774166 3.44103e-10 0)
(0.00774162 -3.82813e-08 0)
(0.00774614 -7.47589e-08 0)
(0.00775467 -1.05393e-07 0)
(0.00776699 -1.34188e-07 0)
(0.00778295 -1.63055e-07 0)
(0.00780253 -1.92929e-07 0)
(0.00782577 -2.24518e-07 0)
(0.00785284 -2.58699e-07 0)
(0.00788397 -2.96412e-07 0)
(0.00791949 -3.38928e-07 0)
(0.00795991 -3.88126e-07 0)
(0.0080059 -4.46181e-07 0)
(0.00805836 -5.15737e-07 0)
(0.00811851 -6.01085e-07 0)
(0.00818795 -7.07002e-07 0)
(0.00826903 -8.45228e-07 0)
(0.00836456 -1.01979e-06 0)
(0.0084802 -1.28419e-06 0)
(0.00861974 -1.58878e-06 0)
(0.00880528 -2.31994e-06 0)
(0.0090267 -2.82222e-06 0)
(0.00943449 -7.04234e-06 0)
(0.00984214 -1.36308e-05 0)
(0.0123709 -0.000252557 0)
(0.0197127 -0.000382163 0)
(0.0218172 -7.11492e-05 0)
(0.0235908 -4.57819e-05 0)
(0.0246873 -3.06939e-05 0)
(0.0254283 -2.04553e-05 0)
(0.0258895 -9.59931e-06 0)
(0.0261138 -1.2466e-06 0)
(0.0261677 3.83077e-06 0)
(0.0261195 6.70894e-06 0)
(0.0260019 8.56036e-06 0)
(0.0258403 9.57894e-06 0)
(0.0256526 9.98967e-06 0)
(0.0254519 9.98247e-06 0)
(0.0252474 9.70744e-06 0)
(0.0250452 9.27644e-06 0)
(0.0248491 8.75576e-06 0)
(0.0246618 8.18577e-06 0)
(0.0244849 7.59157e-06 0)
(0.0243196 6.98893e-06 0)
(0.0241664 6.3879e-06 0)
(0.0240256 5.79488e-06 0)
(0.0238975 5.21392e-06 0)
(0.023782 4.64748e-06 0)
(0.0236791 4.09697e-06 0)
(0.0235884 3.56303e-06 0)
(0.0235099 3.04581e-06 0)
(0.0234431 2.54507e-06 0)
(0.0233879 2.06028e-06 0)
(0.0233438 1.59047e-06 0)
(0.0233107 1.13406e-06 0)
(0.0232882 6.89077e-07 0)
(0.0232762 2.12386e-07 0)
(0.0232761 -3.18293e-07 0)
(0.0232885 -8.30385e-07 0)
(0.0233119 -1.28815e-06 0)
(0.0233457 -1.71773e-06 0)
(0.0233894 -2.1348e-06 0)
(0.0234428 -2.55064e-06 0)
(0.0235059 -2.97464e-06 0)
(0.0235789 -3.41677e-06 0)
(0.0236623 -3.88806e-06 0)
(0.0237568 -4.40261e-06 0)
(0.0238634 -4.97931e-06 0)
(0.0239837 -5.64111e-06 0)
(0.0241197 -6.41723e-06 0)
(0.0242742 -7.34849e-06 0)
(0.0244508 -8.49166e-06 0)
(0.024655 -9.93493e-06 0)
(0.0248934 -1.18026e-05 0)
(0.0251784 -1.4348e-05 0)
(0.0255212 -1.78979e-05 0)
(0.0259657 -2.3616e-05 0)
(0.0265138 -3.29233e-05 0)
(0.0274392 -5.61318e-05 0)
(0.0285611 -0.000128045 0)
(0.0328096 -0.000469848 0)
(0.0310013 -0.00046372 0)
(0.0342343 -0.000240012 0)
(0.0369921 -0.000164149 0)
(0.0387469 -0.000110882 0)
(0.0399408 -7.44015e-05 0)
(0.0407423 -4.31409e-05 0)
(0.0412312 -1.91285e-05 0)
(0.0414853 -2.7494e-06 0)
(0.0415674 7.75321e-06 0)
(0.0415396 1.46423e-05 0)
(0.0414341 1.9047e-05 0)
(0.0412758 2.16143e-05 0)
(0.0410834 2.28387e-05 0)
(0.0408708 2.31293e-05 0)
(0.0406484 2.28e-05 0)
(0.0404232 2.20569e-05 0)
(0.0402008 2.10367e-05 0)
(0.039985 1.98323e-05 0)
(0.0397788 1.8508e-05 0)
(0.0395841 1.71092e-05 0)
(0.0394027 1.56687e-05 0)
(0.0392354 1.42101e-05 0)
(0.0390831 1.27509e-05 0)
(0.0389462 1.13034e-05 0)
(0.0388249 9.87677e-06 0)
(0.0387192 8.47719e-06 0)
(0.038629 7.10887e-06 0)
(0.0385543 5.77429e-06 0)
(0.0384948 4.47414e-06 0)
(0.0384502 3.20685e-06 0)
(0.0384203 1.96557e-06 0)
(0.0384048 6.58788e-07 0)
(0.0384052 -7.56934e-07 0)
(0.0384218 -2.13218e-06 0)
(0.0384533 -3.38754e-06 0)
(0.038499 -4.57033e-06 0)
(0.0385583 -5.71512e-06 0)
(0.038631 -6.8488e-06 0)
(0.038717 -7.99553e-06 0)
(0.0388166 -9.18094e-06 0)
(0.0389304 -1.04336e-05 0)
(0.0390592 -1.17894e-05 0)
(0.0392044 -1.32955e-05 0)
(0.0393678 -1.50095e-05 0)
(0.0395521 -1.7005e-05 0)
(0.0397607 -1.93824e-05 0)
(0.0399985 -2.22819e-05 0)
(0.040272 -2.59135e-05 0)
(0.0405899 -3.05882e-05 0)
(0.040967 -3.68727e-05 0)
(0.0414186 -4.56518e-05 0)
(0.0419925 -5.93013e-05 0)
(0.0427044 -8.20572e-05 0)
(0.0438264 -0.000132724 0)
(0.0452192 -0.000270536 0)
(0.0491924 -0.000666485 0)
(0.0409267 -0.0009251 0)
(0.0441067 -0.000460148 0)
(0.0470783 -0.000312448 0)
(0.0490545 -0.000213802 0)
(0.0504511 -0.000146186 0)
(0.0514573 -9.1928e-05 0)
(0.052159 -5.04183e-05 0)
(0.0526268 -2.07012e-05 0)
(0.0529107 -4.10837e-07 0)
(0.0530604 1.32372e-05 0)
(0.0531168 2.24032e-05 0)
(0.0531038 2.83552e-05 0)
(0.0530403 3.18997e-05 0)
(0.0529406 3.36964e-05 0)
(0.0528161 3.42641e-05 0)
(0.0526752 3.39581e-05 0)
(0.0525248 3.30253e-05 0)
(0.0523702 3.16407e-05 0)
(0.0522155 2.99313e-05 0)
(0.0520642 2.79912e-05 0)
(0.0519186 2.5891e-05 0)
(0.0517811 2.36846e-05 0)
(0.051653 2.14133e-05 0)
(0.0515357 1.91086e-05 0)
(0.05143 1.67946e-05 0)
(0.0513366 1.44896e-05 0)
(0.051256 1.22074e-05 0)
(0.0511884 9.95743e-06 0)
(0.0511341 7.74561e-06 0)
(0.0510931 5.57289e-06 0)
(0.0510655 3.42732e-06 0)
(0.0510515 1.18708e-06 0)
(0.0510517 -1.19856e-06 0)
(0.0510662 -3.53207e-06 0)
(0.0510948 -5.7068e-06 0)
(0.0511373 -7.78037e-06 0)
(0.0511934 -9.80099e-06 0)
(0.0512633 -1.18097e-05 0)
(0.0513472 -1.38462e-05 0)
(0.0514456 -1.59536e-05 0)
(0.0515592 -1.8181e-05 0)
(0.0516893 -2.05899e-05 0)
(0.0518375 -2.32602e-05 0)
(0.0520059 -2.62905e-05 0)
(0.0521975 -2.98062e-05 0)
(0.0524161 -3.39771e-05 0)
(0.052667 -3.90392e-05 0)
(0.052957 -4.53398e-05 0)
(0.0532954 -5.33996e-05 0)
(0.0536969 -6.41208e-05 0)
(0.0541776 -7.90052e-05 0)
(0.0547815 -0.000101607 0)
(0.0555272 -0.000139079 0)
(0.0566433 -0.000216614 0)
(0.0579801 -0.000408575 0)
(0.0611996 -0.000825247 0)
(0.0502168 -0.00129848 0)
(0.0525605 -0.00065244 0)
(0.055158 -0.000455745 0)
(0.0569748 -0.000318281 0)
(0.0583121 -0.00022267 0)
(0.0593239 -0.000147913 0)
(0.060079 -9.06687e-05 0)
(0.0606328 -4.86292e-05 0)
(0.0610262 -1.86426e-05 0)
(0.0612903 2.28771e-06 0)
(0.0614596 1.67368e-05 0)
(0.061559 2.66433e-05 0)
(0.0616044 3.31794e-05 0)
(0.0616082 3.72008e-05 0)
(0.0615803 3.93875e-05 0)
(0.0615289 4.02167e-05 0)
(0.0614604 4.00296e-05 0)
(0.0613801 3.90754e-05 0)
(0.0612924 3.7541e-05 0)
(0.0612009 3.55689e-05 0)
(0.0611084 3.32697e-05 0)
(0.0610175 3.07299e-05 0)
(0.06093 2.80176e-05 0)
(0.0608475 2.51869e-05 0)
(0.0607714 2.22804e-05 0)
(0.0607027 1.93315e-05 0)
(0.0606422 1.63663e-05 0)
(0.0605907 1.34045e-05 0)
(0.0605486 1.04591e-05 0)
(0.0605164 7.53585e-06 0)
(0.0604946 4.61998e-06 0)
(0.0604835 1.58488e-06 0)
(0.0604836 -1.61292e-06 0)
(0.0604951 -4.76512e-06 0)
(0.0605183 -7.76138e-06 0)
(0.0605534 -1.06609e-05 0)
(0.0606008 -1.35184e-05 0)
(0.060661 -1.63849e-05 0)
(0.0607346 -1.93128e-05 0)
(0.0608223 -2.23617e-05 0)
(0.0609252 -2.56002e-05 0)
(0.0610449 -2.91148e-05 0)
(0.0611831 -3.30182e-05 0)
(0.0613423 -3.74497e-05 0)
(0.0615257 -4.25868e-05 0)
(0.0617372 -4.86681e-05 0)
(0.0619821 -5.6024e-05 0)
(0.0622676 -6.51344e-05 0)
(0.0626026 -7.67217e-05 0)
(0.0630014 -9.19962e-05 0)
(0.0634797 -0.000113028 0)
(0.064077 -0.00014434 0)
(0.0648106 -0.000195508 0)
(0.0658702 -0.0002953 0)
(0.0670915 -0.000526549 0)
(0.0697213 -0.000953236 0)
(0.0592111 -0.00154304 0)
(0.060458 -0.000799354 0)
(0.0623604 -0.000576443 0)
(0.0637677 -0.000411341 0)
(0.0648546 -0.000293867 0)
(0.0657174 -0.000202651 0)
(0.0663935 -0.000132429 0)
(0.0669177 -8.00152e-05 0)
(0.0673177 -4.15996e-05 0)
(0.067615 -1.3908e-05 0)
(0.0678273 5.67885e-06 0)
(0.067978 1.94468e-05 0)
(0.0680801 2.90207e-05 0)
(0.068143 3.54375e-05 0)
(0.0681745 3.9495e-05 0)
(0.0681813 4.17626e-05 0)
(0.0681686 4.26553e-05 0)
(0.0681412 4.2483e-05 0)
(0.0681029 4.14821e-05 0)
(0.0680569 3.98362e-05 0)
(0.0680059 3.76901e-05 0)
(0.0679524 3.51589e-05 0)
(0.0678982 3.23345e-05 0)
(0.0678451 2.92911e-05 0)
(0.0677944 2.60881e-05 0)
(0.0677474 2.2773e-05 0)
(0.067705 1.93836e-05 0)
(0.0676682 1.59488e-05 0)
(0.0676376 1.24892e-05 0)
(0.067614 9.01465e-06 0)
(0.067598 5.50999e-06 0)
(0.0675903 1.85519e-06 0)
(0.0675912 -1.98025e-06 0)
(0.067601 -5.79397e-06 0)
(0.0676204 -9.48459e-06 0)
(0.0676499 -1.31113e-05 0)
(0.0676901 -1.6733e-05 0)
(0.0677419 -2.04083e-05 0)
(0.0678061 -2.42009e-05 0)
(0.0678837 -2.81849e-05 0)
(0.0679761 -3.24478e-05 0)
(0.0680848 -3.71001e-05 0)
(0.0682118 -4.22862e-05 0)
(0.0683598 -4.81855e-05 0)
(0.068532 -5.5027e-05 0)
(0.0687324 -6.3117e-05 0)
(0.0689664 -7.28784e-05 0)
(0.0692408 -8.49191e-05 0)
(0.0695645 -0.000100155 0)
(0.0699511 -0.00012008 0)
(0.0704152 -0.000147295 0)
(0.0709929 -0.000187099 0)
(0.0716989 -0.000251161 0)
(0.0726942 -0.000369778 0)
(0.0738044 -0.000631576 0)
(0.0760192 -0.00106287 0)
(0.0678917 -0.00168025 0)
(0.0681175 -0.000890691 0)
(0.0692125 -0.000659279 0)
(0.0700715 -0.00048067 0)
(0.0707822 -0.000350018 0)
(0.0713864 -0.000248048 0)
(0.0718865 -0.000168754 0)
(0.072294 -0.000108733 0)
(0.0726212 -6.39334e-05 0)
(0.0728787 -3.08528e-05 0)
(0.0730764 -6.87876e-06 0)
(0.0732237 1.02647e-05 0)
(0.0733344 2.24953e-05 0)
(0.0734138 3.10992e-05 0)
(0.0734673 3.69402e-05 0)
(0.0734994 4.06452e-05 0)
(0.073514 4.26801e-05 0)
(0.0735147 4.33984e-05 0)
(0.0735044 4.30734e-05 0)
(0.0734856 4.19197e-05 0)
(0.0734607 4.01083e-05 0)
(0.0734315 3.77765e-05 0)
(0.0733997 3.5035e-05 0)
(0.0733669 3.1974e-05 0)
(0.0733343 2.86664e-05 0)
(0.073303 2.51713e-05 0)
(0.0732741 2.15359e-05 0)
(0.0732484 1.77971e-05 0)
(0.0732268 1.39814e-05 0)
(0.07321 1.01026e-05 0)
(0.0731987 6.14587e-06 0)
(0.0731937 2.00076e-06 0)
(0.0731954 -2.34973e-06 0)
(0.0732042 -6.71371e-06 0)
(0.0732208 -1.10029e-05 0)
(0.0732461 -1.52773e-05 0)
(0.0732807 -1.95997e-05 0)
(0.0733257 -2.40362e-05 0)
(0.073382 -2.8661e-05 0)
(0.0734508 -3.35622e-05 0)
(0.0735336 -3.88451e-05 0)
(0.073632 -4.46439e-05 0)
(0.0737483 -5.11337e-05 0)
(0.073885 -5.85335e-05 0)
(0.0740453 -6.71226e-05 0)
(0.0742334 -7.72737e-05 0)
(0.0744544 -8.95e-05 0)
(0.0747151 -0.000104533 0)
(0.075024 -0.000123475 0)
(0.0753939 -0.000148081 0)
(0.0758387 -0.000181448 0)
(0.0763911 -0.000229503 0)
(0.0770634 -0.000305755 0)
(0.0779953 -0.000440652 0)
(0.0790067 -0.000727132 0)
(0.0809229 -0.00115977 0)
(0.0760948 -0.00173448 0)
(0.0755554 -0.000926771 0)
(0.0758961 -0.000696393 0)
(0.0761701 -0.000517456 0)
(0.0764404 -0.000383209 0)
(0.0767174 -0.000277271 0)
(0.0769755 -0.000193736 0)
(0.0772044 -0.000129613 0)
(0.077401 -8.10356e-05 0)
(0.0775649 -4.4552e-05 0)
(0.0776975 -1.75426e-05 0)
(0.0778005 2.07938e-06 0)
(0.0778809 1.62653e-05 0)
(0.0779415 2.65445e-05 0)
(0.0779847 3.38021e-05 0)
(0.0780131 3.86888e-05 0)
(0.0780291 4.16975e-05 0)
(0.0780348 4.32066e-05 0)
(0.0780321 4.35118e-05 0)
(0.0780226 4.28476e-05 0)
(0.0780079 4.14015e-05 0)
(0.0779894 3.93251e-05 0)
(0.0779682 3.67419e-05 0)
(0.0779455 3.37524e-05 0)
(0.0779224 3.04389e-05 0)
(0.0778997 2.68682e-05 0)
(0.0778782 2.30942e-05 0)
(0.0778589 1.9159e-05 0)
(0.0778423 1.50932e-05 0)
(0.0778293 1.09129e-05 0)
(0.0778205 6.60402e-06 0)
(0.0778165 2.06544e-06 0)
(0.077818 -2.70938e-06 0)
(0.0778253 -7.54039e-06 0)
(0.0778392 -1.23522e-05 0)
(0.0778606 -1.72066e-05 0)
(0.0778902 -2.21715e-05 0)
(0.0779292 -2.73206e-05 0)
(0.0779784 -3.27387e-05 0)
(0.0780394 -3.85281e-05 0)
(0.0781134 -4.48114e-05 0)
(0.0782024 -5.17459e-05 0)
(0.0783084 -5.95373e-05 0)
(0.0784341 -6.84429e-05 0)
(0.0785827 -7.87916e-05 0)
(0.0787583 -9.10209e-05 0)
(0.0789658 -0.000105732 0)
(0.0792119 -0.000123775 0)
(0.0795047 -0.000146433 0)
(0.0798562 -0.0001757 0)
(0.0802797 -0.000215144 0)
(0.0808052 -0.000271192 0)
(0.0814426 -0.000358988 0)
(0.0823154 -0.000508197 0)
(0.0832414 -0.000815241 0)
(0.0849333 -0.00124742 0)
(0.0836429 -0.00172884 0)
(0.0826445 -0.000918333 0)
(0.0824028 -0.000689193 0)
(0.0821495 -0.000518258 0)
(0.0819765 -0.00038854 0)
(0.0818982 -0.000285317 0)
(0.0818768 -0.000202717 0)
(0.0818872 -0.00013842 0)
(0.0819133 -8.9071e-05 0)
(0.0819449 -5.15124e-05 0)
(0.0819756 -2.32792e-05 0)
(0.0820015 -2.4866e-06 0)
(0.0820211 1.27221e-05 0)
(0.0820343 2.39297e-05 0)
(0.0820411 3.20146e-05 0)
(0.082042 3.76218e-05 0)
(0.0820375 4.12466e-05 0)
(0.0820283 4.32735e-05 0)
(0.0820151 4.40051e-05 0)
(0.0819987 4.36827e-05 0)
(0.0819797 4.25002e-05 0)
(0.0819589 4.06153e-05 0)
(0.0819369 3.81565e-05 0)
(0.0819144 3.52293e-05 0)
(0.0818919 3.192e-05 0)
(0.0818701 2.82991e-05 0)
(0.0818496 2.44233e-05 0)
(0.081831 2.03372e-05 0)
(0.0818148 1.60727e-05 0)
(0.0818017 1.16464e-05 0)
(0.0817921 7.04391e-06 0)
(0.0817867 2.1734e-06 0)
(0.0817859 -2.96725e-06 0)
(0.0817902 -8.2116e-06 0)
(0.0818004 -1.34939e-05 0)
(0.0818173 -1.88792e-05 0)
(0.0818417 -2.44412e-05 0)
(0.0818745 -3.02624e-05 0)
(0.081917 -3.64389e-05 0)
(0.0819703 -4.30871e-05 0)
(0.082036 -5.03475e-05 0)
(0.0821159 -5.84002e-05 0)
(0.082212 -6.7481e-05 0)
(0.0823271 -7.78855e-05 0)
(0.0824642 -8.99912e-05 0)
(0.0826273 -0.000104299 0)
(0.0828214 -0.000121497 0)
(0.0830527 -0.000142549 0)
(0.0833291 -0.000168911 0)
(0.0836621 -0.000202805 0)
(0.084064 -0.000248238 0)
(0.0845629 -0.000312045 0)
(0.0851663 -0.000410826 0)
(0.0859851 -0.000572839 0)
(0.0868379 -0.000897423 0)
(0.0883539 -0.00132814 0)
(0.0904081 -0.00168236 0)
(0.0892096 -0.000880918 0)
(0.0886184 -0.000646812 0)
(0.0879762 -0.000485512 0)
(0.0874208 -0.000364843 0)
(0.0870025 -0.000269495 0)
(0.086694 -0.000192542 0)
(0.0864672 -0.000131974 0)
(0.0862996 -8.49986e-05 0)
(0.0861737 -4.8887e-05 0)
(0.0860767 -2.14855e-05 0)
(0.0860002 -1.08841e-06 0)
(0.0859355 1.39992e-05 0)
(0.085879 2.52033e-05 0)
(0.0858285 3.33494e-05 0)
(0.0857822 3.90503e-05 0)
(0.0857391 4.27807e-05 0)
(0.0856983 4.49109e-05 0)
(0.0856593 4.5734e-05 0)
(0.0856219 4.54846e-05 0)
(0.0855858 4.43521e-05 0)
(0.085551 4.2491e-05 0)
(0.0855176 4.00276e-05 0)
(0.0854857 3.70658e-05 0)
(0.0854554 3.36905e-05 0)
(0.085427 2.99714e-05 0)
(0.0854008 2.59643e-05 0)
(0.0853771 2.17125e-05 0)
(0.0853562 1.72467e-05 0)
(0.0853385 1.25816e-05 0)
(0.0853244 7.70116e-06 0)
(0.0853144 2.52317e-06 0)
(0.0853086 -2.9582e-06 0)
(0.0853078 -8.59303e-06 0)
(0.0853124 -1.43203e-05 0)
(0.0853234 -2.02098e-05 0)
(0.0853414 -2.63424e-05 0)
(0.0853674 -3.28099e-05 0)
(0.0854024 -3.97207e-05 0)
(0.0854478 -4.7206e-05 0)
(0.0855049 -5.54246e-05 0)
(0.0855756 -6.45798e-05 0)
(0.0856619 -7.49376e-05 0)
(0.0857664 -8.68317e-05 0)
(0.0858921 -0.000100688 0)
(0.086043 -0.00011707 0)
(0.0862237 -0.000136749 0)
(0.0864404 -0.000160803 0)
(0.0867006 -0.000190854 0)
(0.0870153 -0.00022934 0)
(0.0873962 -0.000280682 0)
(0.0878693 -0.000352047 0)
(0.0884406 -0.000461332 0)
(0.0892103 -0.000634993 0)
(0.0899998 -0.000974754 0)
(0.0913728 -0.00140349 0)
(0.0963203 -0.00160775 0)
(0.0950902 -0.000829353 0)
(0.0943756 -0.000583197 0)
(0.0935361 -0.00042732 0)
(0.0927205 -0.000315294 0)
(0.0920261 -0.000229984 0)
(0.0914574 -0.000161918 0)
(0.0909997 -0.000108353 0)
(0.0906329 -6.66812e-05 0)
(0.090338 -3.45151e-05 0)
(0.0900985 -1.00379e-05 0)
(0.0899022 8.31128e-06 0)
(0.0897351 2.19908e-05 0)
(0.0895917 3.21132e-05 0)
(0.0894673 3.94141e-05 0)
(0.0893582 4.44504e-05 0)
(0.0892617 4.76524e-05 0)
(0.0891754 4.93561e-05 0)
(0.0890976 4.98281e-05 0)
(0.089027 4.92823e-05 0)
(0.0889625 4.78923e-05 0)
(0.0889034 4.57997e-05 0)
(0.088849 4.31208e-05 0)
(0.088799 3.99512e-05 0)
(0.088753 3.63691e-05 0)
(0.0887108 3.24384e-05 0)
(0.0886723 2.82098e-05 0)
(0.0886376 2.37222e-05 0)
(0.0886068 1.90017e-05 0)
(0.0885799 1.40588e-05 0)
(0.0885571 8.87394e-06 0)
(0.0885389 3.37558e-06 0)
(0.088525 -2.45452e-06 0)
(0.0885162 -8.48741e-06 0)
(0.088513 -1.46617e-05 0)
(0.088516 -2.10533e-05 0)
(0.088526 -2.77511e-05 0)
(0.0885437 -3.48576e-05 0)
(0.0885703 -4.24939e-05 0)
(0.0886068 -5.08072e-05 0)
(0.0886546 -5.99753e-05 0)
(0.0887156 -7.02251e-05 0)
(0.0887916 -8.18534e-05 0)
(0.0888852 -9.5232e-05 0)
(0.0889993 -0.000110835 0)
(0.0891378 -0.000129288 0)
(0.0893052 -0.000151446 0)
(0.0895074 -0.000178497 0)
(0.0897517 -0.000212226 0)
(0.0900485 -0.000255275 0)
(0.0904089 -0.000312457 0)
(0.0908574 -0.000391215 0)
(0.0913983 -0.000510588 0)
(0.0921232 -0.000694996 0)
(0.0928573 -0.00104799 0)
(0.0941102 -0.00147448 0)
(0.101353 -0.00151349 0)
(0.100178 -0.00077459 0)
(0.0995019 -0.000513345 0)
(0.0986614 -0.000356238 0)
(0.0977537 -0.000247883 0)
(0.0968985 -0.000170677 0)
(0.0961387 -0.000112104 0)
(0.0954873 -6.73699e-05 0)
(0.0949385 -3.319e-05 0)
(0.0944797 -7.08018e-06 0)
(0.0940948 1.26796e-05 0)
(0.0937673 2.74379e-05 0)
(0.0934866 3.83343e-05 0)
(0.0932444 4.61942e-05 0)
(0.0930342 5.16465e-05 0)
(0.0928504 5.51648e-05 0)
(0.0926888 5.71116e-05 0)
(0.0925457 5.7769e-05 0)
(0.0924183 5.7361e-05 0)
(0.0923043 5.60673e-05 0)
(0.0922018 5.4034e-05 0)
(0.0921092 5.13807e-05 0)
(0.0920254 4.82056e-05 0)
(0.0919492 4.45895e-05 0)
(0.0918801 4.0598e-05 0)
(0.0918173 3.62845e-05 0)
(0.0917603 3.16904e-05 0)
(0.0917089 2.68465e-05 0)
(0.0916629 2.17713e-05 0)
(0.091622 1.64683e-05 0)
(0.0915864 1.09126e-05 0)
(0.091556 5.04322e-06 0)
(0.0915307 -1.175e-06 0)
(0.0915108 -7.64107e-06 0)
(0.0914969 -1.42925e-05 0)
(0.0914896 -2.12094e-05 0)
(0.0914894 -2.849e-05 0)
(0.091497 -3.62483e-05 0)
(0.0915134 -4.46196e-05 0)
(0.0915396 -5.37677e-05 0)
(0.0915771 -6.38902e-05 0)
(0.0916273 -7.52385e-05 0)
(0.0916922 -8.81408e-05 0)
(0.0917743 -0.000103007 0)
(0.0918764 -0.000120361 0)
(0.0920021 -0.000140889 0)
(0.0921559 -0.00016553 0)
(0.0923435 -0.000195579 0)
(0.0925719 -0.000232982 0)
(0.0928511 -0.000280576 0)
(0.0931916 -0.000343546 0)
(0.0936163 -0.00042956 0)
(0.0941285 -0.000558656 0)
(0.0948118 -0.000753101 0)
(0.0954967 -0.00111766 0)
(0.0966461 -0.0015418 0)
(0.105516 -0.00140656 0)
(0.10443 -0.0007229 0)
(0.103869 -0.000449242 0)
(0.103169 -0.000286246 0)
(0.102343 -0.000174805 0)
(0.101482 -0.000100021 0)
(0.100648 -4.80472e-05 0)
(0.0998812 -1.14457e-05 0)
(0.0991988 1.47791e-05 0)
(0.0985987 3.38105e-05 0)
(0.0980755 4.7608e-05 0)
(0.0976204 5.74504e-05 0)
(0.0972243 6.42453e-05 0)
(0.0968786 6.86776e-05 0)
(0.0965759 7.12609e-05 0)
(0.0963098 7.23696e-05 0)
(0.0960748 7.22837e-05 0)
(0.0958665 7.12177e-05 0)
(0.095681 6.934e-05 0)
(0.0955153 6.67849e-05 0)
(0.0953666 6.36615e-05 0)
(0.0952328 6.00586e-05 0)
(0.095112 5.60489e-05 0)
(0.0950028 5.1692e-05 0)
(0.0949038 4.70356e-05 0)
(0.0948141 4.21176e-05 0)
(0.0947328 3.69663e-05 0)
(0.0946592 3.16005e-05 0)
(0.0945929 2.60282e-05 0)
(0.0945334 2.02431e-05 0)
(0.0944805 1.42129e-05 0)
(0.094434 7.88126e-06 0)
(0.0943938 1.20801e-06 0)
(0.0943594 -5.74777e-06 0)
(0.0943318 -1.29363e-05 0)
(0.0943113 -2.04275e-05 0)
(0.0942984 -2.83318e-05 0)
(0.0942937 -3.67765e-05 0)
(0.094298 -4.59117e-05 0)
(0.0943122 -5.59192e-05 0)
(0.0943376 -6.70171e-05 0)
(0.0943758 -7.94822e-05 0)
(0.0944284 -9.3675e-05 0)
(0.094498 -0.000110045 0)
(0.0945872 -0.000129164 0)
(0.0946995 -0.000151781 0)
(0.0948392 -0.000178918 0)
(0.0950118 -0.000211978 0)
(0.0952241 -0.000253061 0)
(0.0954857 -0.000305196 0)
(0.0958065 -0.000373914 0)
(0.0962081 -0.000467077 0)
(0.0966928 -0.000605568 0)
(0.097337 -0.000809483 0)
(0.0979772 -0.00118415 0)
(0.0990354 -0.00160596 0)
(0.108854 -0.00129312 0)
(0.107866 -0.000676607 0)
(0.10743 -0.000397219 0)
(0.106923 -0.000228186 0)
(0.106294 -0.00010936 0)
(0.10558 -3.05608e-05 0)
(0.104824 2.08234e-05 0)
(0.104059 5.35285e-05 0)
(0.103322 7.4023e-05 0)
(0.102636 8.67293e-05 0)
(0.102011 9.43272e-05 0)
(0.101451 9.84804e-05 0)
(0.100952 0.000100242 0)
(0.100508 0.000100302 0)
(0.100114 9.91146e-05 0)
(0.0997635 9.69793e-05 0)
(0.0994517 9.41016e-05 0)
(0.0991733 9.06286e-05 0)
(0.0989243 8.66693e-05 0)
(0.0987009 8.23077e-05 0)
(0.0984999 7.76093e-05 0)
(0.0983187 7.26265e-05 0)
(0.0981549 6.7401e-05 0)
(0.0980065 6.19658e-05 0)
(0.0978719 5.63461e-05 0)
(0.0977496 5.05602e-05 0)
(0.0976386 4.46191e-05 0)
(0.0975377 3.85267e-05 0)
(0.0974463 3.22772e-05 0)
(0.0973636 2.58521e-05 0)
(0.0972892 1.92095e-05 0)
(0.0972227 1.22896e-05 0)
(0.0971637 5.06266e-06 0)
(0.0971116 -2.46228e-06 0)
(0.0970671 -1.02704e-05 0)
(0.0970305 -1.84104e-05 0)
(0.0970022 -2.70028e-05 0)
(0.0969826 -3.61902e-05 0)
(0.0969724 -4.61389e-05 0)
(0.0969726 -5.70494e-05 0)
(0.0969841 -6.91614e-05 0)
(0.0970085 -8.2778e-05 0)
(0.0970475 -9.82928e-05 0)
(0.0971032 -0.000116196 0)
(0.0971783 -0.000137107 0)
(0.0972762 -0.000161841 0)
(0.097401 -0.000191499 0)
(0.097558 -0.000227593 0)
(0.0977538 -0.000272374 0)
(0.0979974 -0.000329059 0)
(0.0982986 -0.0004035 0)
(0.0986773 -0.000503728 0)
(0.0991352 -0.000651317 0)
(0.099742 -0.00086424 0)
(0.100341 -0.00124769 0)
(0.101317 -0.00166727 0)
(0.111442 -0.00117693 0)
(0.110549 -0.000635201 0)
(0.110215 -0.000358097 0)
(0.109885 -0.000186454 0)
(0.109477 -6.07618e-05 0)
(0.108997 2.55112e-05 0)
(0.108432 8.21696e-05 0)
(0.107802 0.000117253 0)
(0.107135 0.000137058 0)
(0.106463 0.000146681 0)
(0.105812 0.000149793 0)
(0.105199 0.000148901 0)
(0.104631 0.000145619 0)
(0.104111 0.000140937 0)
(0.10364 0.000135436 0)
(0.103214 0.000129445 0)
(0.102829 0.000123154 0)
(0.102481 0.000116671 0)
(0.102168 0.000110062 0)
(0.101884 0.000103366 0)
(0.101628 9.66086e-05 0)
(0.101395 8.98044e-05 0)
(0.101184 8.29625e-05 0)
(0.100992 7.6087e-05 0)
(0.100817 6.91777e-05 0)
(0.100658 6.22303e-05 0)
(0.100512 5.52363e-05 0)
(0.10038 4.81813e-05 0)
(0.100259 4.10437e-05 0)
(0.100149 3.37904e-05 0)
(0.100049 2.63676e-05 0)
(0.0999584 1.87079e-05 0)
(0.099877 1.07867e-05 0)
(0.0998042 2.58815e-06 0)
(0.0997394 -5.92874e-06 0)
(0.0996837 -1.48169e-05 0)
(0.099637 -2.41865e-05 0)
(0.0995999 -3.41949e-05 0)
(0.0995729 -4.50274e-05 0)
(0.0995567 -5.69041e-05 0)
(0.0995523 -7.00874e-05 0)
(0.099561 -8.49075e-05 0)
(0.0995845 -0.000101792 0)
(0.0996248 -0.000121273 0)
(0.0996845 -0.00014402 0)
(0.0997667 -0.00017091 0)
(0.0998756 -0.000203128 0)
(0.100016 -0.000242293 0)
(0.100195 -0.000290805 0)
(0.10042 -0.00035206 0)
(0.100701 -0.000432212 0)
(0.101057 -0.00053944 0)
(0.101488 -0.000695851 0)
(0.102059 -0.000917405 0)
(0.102619 -0.00130845 0)
(0.10352 -0.00172597 0)
(0.113364 -0.00106002 0)
(0.112564 -0.000597155 0)
(0.112308 -0.000329762 0)
(0.11211 -0.000159819 0)
(0.111883 -3.07643e-05 0)
(0.111618 6.20691e-05 0)
(0.111285 0.000126202 0)
(0.110876 0.000167856 0)
(0.110397 0.000192198 0)
(0.109863 0.000203861 0)
(0.109298 0.000206683 0)
(0.108722 0.000203705 0)
(0.108156 0.000197185 0)
(0.107613 0.000188681 0)
(0.107101 0.000179192 0)
(0.106624 0.000169308 0)
(0.106183 0.000159358 0)
(0.105778 0.000149512 0)
(0.105407 0.00013985 0)
(0.105067 0.000130402 0)
(0.104757 0.00012117 0)
(0.104473 0.000112145 0)
(0.104213 0.000103309 0)
(0.103976 9.46396e-05 0)
(0.103758 8.61127e-05 0)
(0.103559 7.77017e-05 0)
(0.103376 6.93772e-05 0)
(0.103208 6.11062e-05 0)
(0.103054 5.28496e-05 0)
(0.102913 4.45581e-05 0)
(0.102785 3.6165e-05 0)
(0.102667 2.75924e-05 0)
(0.10256 1.88082e-05 0)
(0.102463 9.79723e-06 0)
(0.102375 4.72099e-07 0)
(0.102297 -9.27063e-06 0)
(0.10223 -1.95294e-05 0)
(0.102172 -3.04597e-05 0)
(0.102126 -4.22663e-05 0)
(0.102091 -5.51919e-05 0)
(0.102069 -6.95221e-05 0)
(0.10206 -8.56155e-05 0)
(0.102066 -0.000103935 0)
(0.102089 -0.000125054 0)
(0.102132 -0.000149694 0)
(0.102197 -0.000178797 0)
(0.102288 -0.000213628 0)
(0.102411 -0.000255914 0)
(0.102571 -0.000308201 0)
(0.102777 -0.000374061 0)
(0.103038 -0.000459925 0)
(0.10337 -0.000574104 0)
(0.103775 -0.000739078 0)
(0.10431 -0.000968947 0)
(0.104833 -0.00136648 0)
(0.105664 -0.00178217 0)
(0.114716 -0.000947504 0)
(0.114015 -0.000562376 0)
(0.113821 -0.000309999 0)
(0.113716 -0.000144889 0)
(0.113616 -1.58827e-05 0)
(0.113508 8.05225e-05 0)
(0.113366 0.000150222 0)
(0.113172 0.00019843 0)
(0.112916 0.00022939 0)
(0.112595 0.000246811 0)
(0.112215 0.000253863 0)
(0.111787 0.000253282 0)
(0.111325 0.000247375 0)
(0.110847 0.000237999 0)
(0.110365 0.000226557 0)
(0.109893 0.000214046 0)
(0.109438 0.000201129 0)
(0.109007 0.000188218 0)
(0.1086 0.000175548 0)
(0.10822 0.000163236 0)
(0.107867 0.000151331 0)
(0.10754 0.000139835 0)
(0.107236 0.00012873 0)
(0.106956 0.000117985 0)
(0.106697 0.000107561 0)
(0.106458 9.74145e-05 0)
(0.106237 8.75001e-05 0)
(0.106033 7.77676e-05 0)
(0.105844 6.81617e-05 0)
(0.105671 5.86176e-05 0)
(0.105511 4.90551e-05 0)
(0.105363 3.93851e-05 0)
(0.105228 2.95626e-05 0)
(0.105105 1.95681e-05 0)
(0.104992 9.30375e-06 0)
(0.10489 -1.39288e-06 0)
(0.104798 -1.26568e-05 0)
(0.104718 -2.46295e-05 0)
(0.10465 -3.75199e-05 0)
(0.104594 -5.15945e-05 0)
(0.104552 -6.71646e-05 0)
(0.104523 -8.4618e-05 0)
(0.10451 -0.000104454 0)
(0.104514 -0.000127288 0)
(0.104538 -0.000153895 0)
(0.104585 -0.000185279 0)
(0.104658 -0.000222791 0)
(0.104762 -0.000268262 0)
(0.104903 -0.00032438 0)
(0.105088 -0.000394893 0)
(0.105327 -0.000486477 0)
(0.105636 -0.000607569 0)
(0.106013 -0.00078086 0)
(0.106513 -0.00101878 0)
(0.106999 -0.00142176 0)
(0.107765 -0.00183593 0)
(0.11564 -0.00084756 0)
(0.115044 -0.000532052 0)
(0.114902 -0.000297141 0)
(0.114861 -0.000138362 0)
(0.114843 -1.15389e-05 0)
(0.114837 8.5744e-05 0)
(0.114822 0.000158172 0)
(0.11478 0.000210534 0)
(0.114702 0.000246701 0)
(0.114578 0.000269894 0)
(0.114401 0.00028273 0)
(0.114172 0.000287384 0)
(0.113892 0.000285699 0)
(0.113568 0.000279256 0)
(0.11321 0.000269397 0)
(0.112827 0.00025723 0)
(0.112432 0.000243642 0)
(0.112034 0.000229313 0)
(0.111641 0.000214732 0)
(0.111258 0.000200232 0)
(0.110892 0.000186021 0)
(0.110542 0.000172214 0)
(0.110212 0.000158862 0)
(0.109901 0.000145973 0)
(0.10961 0.000133527 0)
(0.109337 0.000121487 0)
(0.109083 0.000109806 0)
(0.108845 9.84263e-05 0)
(0.108624 8.72831e-05 0)
(0.108419 7.63008e-05 0)
(0.108228 6.53885e-05 0)
(0.10805 5.44476e-05 0)
(0.107886 4.34195e-05 0)
(0.107735 3.22716e-05 0)
(0.107596 2.09071e-05 0)
(0.107468 9.14633e-06 0)
(0.107352 -3.21699e-06 0)
(0.107248 -1.63526e-05 0)
(0.107156 -3.04514e-05 0)
(0.107078 -4.57894e-05 0)
(0.107013 -6.27056e-05 0)
(0.106963 -8.16191e-05 0)
(0.106929 -0.000103066 0)
(0.106913 -0.000127707 0)
(0.106917 -0.000156366 0)
(0.106943 -0.000190115 0)
(0.106996 -0.000230387 0)
(0.10708 -0.000279118 0)
(0.107201 -0.000339136 0)
(0.107365 -0.000414357 0)
(0.107582 -0.000511678 0)
(0.107865 -0.000639653 0)
(0.108215 -0.00082102 0)
(0.108679 -0.00106675 0)
(0.109129 -0.00147421 0)
(0.109832 -0.00188723 0)
(0.116308 -0.000763936 0)
(0.115807 -0.000506368 0)
(0.115706 -0.000289491 0)
(0.115709 -0.000137583 0)
(0.115741 -1.3991e-05 0)
(0.115796 8.25329e-05 0)
(0.115856 0.000155708 0)
(0.115907 0.000210007 0)
(0.11594 0.000249111 0)
(0.115948 0.000276065 0)
(0.115924 0.000293309 0)
(0.115862 0.00030278 0)
(0.115759 0.000306019 0)
(0.115614 0.000304266 0)
(0.115426 0.000298538 0)
(0.115198 0.000289694 0)
(0.114937 0.000278482 0)
(0.114648 0.00026556 0)
(0.114339 0.000251494 0)
(0.114018 0.000236757 0)
(0.113691 0.000221724 0)
(0.113365 0.000206677 0)
(0.113044 0.000191812 0)
(0.112732 0.000177255 0)
(0.112431 0.000163073 0)
(0.112143 0.00014929 0)
(0.111869 0.000135897 0)
(0.11161 0.000122859 0)
(0.111365 0.000110124 0)
(0.111133 9.76182e-05 0)
(0.110916 8.52521e-05 0)
(0.110713 7.29243e-05 0)
(0.110523 6.05673e-05 0)
(0.110345 4.81353e-05 0)
(0.11018 3.5526e-05 0)
(0.110028 2.25671e-05 0)
(0.109888 9.02792e-06 0)
(0.109759 -5.34849e-06 0)
(0.109644 -2.07719e-05 0)
(0.109542 -3.74931e-05 0)
(0.109454 -5.58667e-05 0)
(0.109382 -7.63461e-05 0)
(0.109327 -9.95066e-05 0)
(0.109289 -0.000126051 0)
(0.109272 -0.000156858 0)
(0.109278 -0.000193064 0)
(0.10931 -0.000236183 0)
(0.109373 -0.000288258 0)
(0.109472 -0.00035225 0)
(0.109614 -0.000432238 0)
(0.109807 -0.000535315 0)
(0.110065 -0.000670143 0)
(0.110387 -0.000859343 0)
(0.110814 -0.00111267 0)
(0.111228 -0.00152369 0)
(0.111869 -0.00193598 0)
(0.116851 -0.000694856 0)
(0.116426 -0.000484459 0)
(0.116355 -0.000285486 0)
(0.116385 -0.000140677 0)
(0.116449 -2.08015e-05 0)
(0.11654 7.41061e-05 0)
(0.116642 0.000146958 0)
(0.116745 0.000201889 0)
(0.116842 0.000242384 0)
(0.116925 0.000271368 0)
(0.116992 0.000291209 0)
(0.117037 0.000303786 0)
(0.117056 0.000310568 0)
(0.117046 0.000312686 0)
(0.117004 0.000311007 0)
(0.116928 0.0003062 0)
(0.116818 0.000298804 0)
(0.116674 0.000289278 0)
(0.116499 0.000278033 0)
(0.116297 0.000265447 0)
(0.11607 0.00025187 0)
(0.115826 0.000237617 0)
(0.115569 0.000222961 0)
(0.115304 0.000208127 0)
(0.115036 0.000193289 0)
(0.114768 0.000178573 0)
(0.114504 0.000164054 0)
(0.114247 0.000149769 0)
(0.113998 0.000135716 0)
(0.113757 0.000121861 0)
(0.113528 0.000108139 0)
(0.113309 9.44669e-05 0)
(0.113101 8.07824e-05 0)
(0.112905 6.7037e-05 0)
(0.11272 5.31261e-05 0)
(0.112547 3.88801e-05 0)
(0.112386 2.40832e-05 0)
(0.112237 8.44629e-06 0)
(0.1121 -8.34455e-06 0)
(0.111977 -2.65435e-05 0)
(0.111868 -4.64734e-05 0)
(0.111774 -6.86143e-05 0)
(0.111697 -9.35825e-05 0)
(0.111639 -0.000122125 0)
(0.111601 -0.000155171 0)
(0.111586 -0.000193923 0)
(0.111597 -0.000239977 0)
(0.111639 -0.000295477 0)
(0.111716 -0.000363516 0)
(0.111835 -0.000448329 0)
(0.112005 -0.000557172 0)
(0.112236 -0.000698814 0)
(0.112529 -0.000895597 0)
(0.112919 -0.0011563 0)
(0.113297 -0.00157001 0)
(0.113878 -0.00198206 0)
(0.117346 -0.000637114 0)
(0.11698 -0.000465408 0)
(0.116926 -0.000283902 0)
(0.116973 -0.000146368 0)
(0.117056 -3.04888e-05 0)
(0.117168 6.23364e-05 0)