/*--------------------------------*- C++ -*----------------------------------*\
  =========                 |
  \\      /  F ield         | OpenFOAM: The Open Source CFD Toolbox
   \\    /   O peration     | Website:  https://openfoam.org
    \\  /    A nd           | Version:  6
     \\/     M anipulation  |
\*---------------------------------------------------------------------------*/
FoamFile
{
    version     2.0;
    format      ascii;
    class       volVectorField;
    location    "./ITHACAoutput/Offline/1";
    object      U_rec;
}
// * * * * * * * * * * * * * * * * * * * * * * * * * * * * * * * * * * * * * //

dimensions      [0 1 -1 0 0 0 0];

internalField   nonuniform List<vector> 
13046
(
(-0.526489 0.228111 0)
(-0.674968 -0.239738 -5.87425e-21)
(-0.146353 -0.135867 -1.20798e-20)
(-0.476268 0.114443 0)
(-0.112441 -0.048055 -1.12206e-20)
(-0.5511 -0.249568 0)
(-0.544753 0.148826 1.74772e-21)
(-0.630701 -0.300928 2.94474e-21)
(-0.0805278 -0.0354295 -1.21603e-20)
(-1.41314 0.655585 3.53141e-21)
(-1.52291 -0.688059 0)
(0.0905317 -0.0285132 7.20687e-21)
(-0.724058 0.29938 -5.51403e-21)
(-0.849364 -0.348668 -8.76861e-21)
(-0.0487141 -0.0955518 6.38499e-21)
(-1.33854 0.73148 -5.15295e-21)
(0.0460714 -0.0414758 1.72802e-20)
(-1.56427 -0.573076 2.54756e-21)
(-0.216431 0.0489709 0)
(-0.373602 -0.212339 -6.21396e-21)
(-0.451033 -0.0199279 1.83964e-20)
(-1.35522 0.721252 -1.98287e-21)
(0.0603813 -0.0356474 -2.30779e-20)
(-1.5568 -0.598008 0)
(-0.415689 0.125528 7.24348e-21)
(-0.534426 -0.192814 -1.44966e-20)
(-0.161463 -0.108847 0)
(-0.742445 0.340413 -9.85191e-21)
(-0.887874 -0.345637 2.59229e-21)
(-0.0596302 -0.112484 -1.12256e-20)
(-0.545966 0.255981 0)
(-0.70901 -0.222552 0)
(-0.165975 -0.15907 1.22947e-20)
(-0.357309 0.0827153 -8.41434e-21)
(-0.190913 -0.107861 4.24222e-21)
(-0.465782 -0.153263 2.52624e-20)
(-0.347247 0.0531253 -1.29989e-20)
(-0.194927 -0.0813884 6.51514e-21)
(-0.426679 -0.149015 -1.29165e-20)
(-0.421825 0.242119 8.80406e-21)
(-0.399998 -0.315951 2.19077e-21)
(-0.691832 -0.0970481 -8.94724e-21)
(-0.324154 -0.0341564 5.88247e-21)
(-0.248605 -0.0445324 9.89058e-21)
(-0.315371 -0.105627 0)
(-0.359936 -0.0215779 3.79014e-21)
(-0.217451 -0.0171828 -1.52368e-20)
(-0.335752 -0.140554 -1.89769e-21)
(-0.556474 0.222722 0)
(-0.693146 -0.268973 -4.16629e-22)
(-0.103064 -0.110868 -8.2458e-23)
(-0.677759 -0.508648 1.34712e-20)
(-0.354689 0.248704 0)
(-0.817633 0.0158009 -1.05311e-20)
(-0.772563 -0.567073 -1.92129e-20)
(-0.859842 0.0539139 -1.67387e-20)
(-0.304279 0.217818 1.30635e-20)
(-1.32527 -0.351948 -1.69742e-21)
(-1.07106 0.675602 0)
(-0.165446 -0.194976 9.68572e-21)
(-0.999881 0.337481 -5.20001e-21)
(-1.08256 -0.57723 4.82567e-21)
(0.0308034 -0.00438641 -2.64765e-20)
(0.0868667 -0.0422929 1.3394e-20)
(-1.44828 -0.645731 -2.36907e-21)
(-1.3262 0.600199 -7.0299e-21)
(-1.00532 0.657713 0)
(-1.25597 -0.294669 0)
(-0.230712 -0.247609 0)
(-0.94713 0.618966 -3.65608e-21)
(-1.1972 -0.273634 0)
(-0.251657 -0.262402 7.7584e-21)
(-1.38692 -0.366416 0)
(-1.12505 0.708901 1.2275e-22)
(-0.14638 -0.185558 -6.42857e-23)
(-0.242461 0.0773881 0)
(-0.370281 -0.231304 6.66923e-21)
(-0.489932 -0.0449663 -1.3068e-20)
(-0.0689594 -0.125218 1.05784e-20)
(-1.20206 0.732163 -1.03552e-20)
(-1.46092 -0.435698 0)
(-0.459121 0.142123 3.82464e-21)
(-0.567492 -0.222173 0)
(-0.128841 -0.0851714 0)
(0.0886546 -0.0390898 -1.19545e-20)
(-1.48286 -0.655655 -1.59653e-21)
(-1.3623 0.626205 4.12312e-21)
(-1.37254 0.491525 -7.43939e-21)
(0.0868076 -0.0244393 0)
(-1.39467 -0.756098 -1.89177e-21)
(0.0203571 -0.000910342 0)
(-1.45803 0.394731 0)
(-1.3659 -0.877081 2.21749e-22)
(-1.04759 0.48402 0)
(-1.11207 0.500402 4.41055e-21)
(-1.19726 -0.501531 9.13583e-21)
(-1.25114 -0.546841 -4.25398e-21)
(0.0265039 -0.0765639 -5.60397e-21)
(0.0504558 -0.0603306 1.44615e-20)
(0.0735719 -0.0173807 -6.77988e-22)
(-1.35981 0.460799 7.28015e-21)
(-1.36674 -0.775754 0)
(-0.387703 0.0125223 -2.48905e-23)
(-0.185329 -0.0190448 7.86408e-21)
(-0.388468 -0.17808 0)
(-0.191066 0.140928 0)
(-0.765345 0.0924238 -5.28848e-21)
(-0.738348 -0.491864 0)
(-0.339436 0.224423 1.49959e-20)
(-0.585204 -0.428581 0)
(-0.735598 -0.0151689 -2.03138e-20)
(-1.33831 0.641019 0)
(0.070325 -0.0219328 0)
(-1.40963 -0.673175 5.22881e-23)
(-0.646631 0.261289 1.52261e-20)
(-0.782739 -0.314096 3.82496e-21)
(-0.0642135 -0.0913691 1.17914e-20)
(-1.12871 0.576951 5.64651e-21)
(-1.06084 0.528297 -1.07188e-20)
(-1.30554 -0.495967 -7.66264e-21)
(0.00782586 -0.0901209 6.44008e-21)
(-1.22856 -0.473911 4.43158e-21)
(0.00276808 -0.0931067 -6.01538e-21)
(-1.40182 0.66965 -2.27942e-21)
(-1.52063 -0.679393 -1.48301e-21)
(0.0854635 -0.0244788 -3.21691e-21)
(-0.907922 0.424533 0)
(-1.05524 -0.426172 -6.43493e-21)
(-0.0159743 -0.101818 1.35045e-20)
(-0.481252 0.270664 0)
(-0.339241 -0.282716 -1.10874e-20)
(-0.719061 -0.136317 5.03908e-22)
(0.00592359 0.0125903 0)
(-1.40562 0.370092 0)
(-1.33785 -0.857272 0)
(-1.22738 0.515148 0)
(-1.33441 -0.632827 -1.08337e-20)
(0.0811895 -0.0396845 -1.53441e-20)
(-0.615347 0.290816 0)
(-0.774378 -0.25594 0)
(-0.147015 -0.16401 0)
(-0.732967 0.198078 0)
(-0.805778 -0.442665 0)
(-0.0445495 0.0150741 0)
(-0.311272 0.213996 0)
(-0.65261 -0.470741 0)
(-0.763698 0.0165527 1.09656e-20)
(-0.18663 0.126653 -1.53633e-21)
(-0.730248 0.0853097 -1.15504e-20)
(-0.712834 -0.465607 1.22879e-20)
(-1.05683 0.369073 1.17023e-20)
(-1.13548 -0.595737 0)
(0.0480631 -0.0169866 3.43573e-20)
(-0.132868 0.0639112 0)
(-0.620125 0.0890034 1.25227e-20)
(-0.625687 -0.375672 -3.17398e-21)
(-0.93283 -0.643146 0)
(-0.949562 0.149711 1.18781e-20)
(-1.01077 -0.674729 0)
(-1.00991 0.198256 6.81269e-21)
(-0.182712 0.146728 0)
(-0.125997 0.110455 0)
(-0.76294 0.156615 1.60018e-21)
(-0.795454 -0.48272 6.43662e-21)
(-0.0871329 0.0586869 -6.67534e-21)
(-1.43922 0.633145 -3.6213e-21)
(0.0956608 -0.0320301 0)
(-1.49553 -0.717633 -2.89957e-21)
(-1.36713 0.655478 -1.72189e-21)
(0.0761644 -0.0201009 -1.47376e-21)
(-1.46613 -0.673814 0)
(-1.25198 0.546202 -6.16123e-21)
(-1.36586 -0.629851 0)
(0.0819112 -0.0437165 1.7437e-20)
(-0.602838 0.371419 0)
(-0.852708 -0.155376 2.74113e-21)
(-0.372281 -0.326415 6.35257e-21)
(-0.720156 0.129522 1.04759e-20)
(-0.117402 0.0815722 3.24072e-21)
(-0.741045 -0.450596 0)
(0.0980604 -0.0357234 0)
(-1.47252 -0.765872 0)
(-1.46259 0.57718 2.88837e-21)
(-0.540475 0.331457 0)
(-0.796629 -0.130849 -6.06082e-21)
(-0.387678 -0.320452 1.66434e-21)
(-0.136569 0.0804965 0)
(-0.644941 0.0887018 0)
(-0.643936 -0.397072 0)
(-0.674954 0.164084 5.19118e-21)
(-0.744484 -0.409131 0)
(-0.056521 0.0115048 0)
(-0.93174 -0.413636 -1.09541e-23)
(-0.0084267 -0.0699974 -7.97151e-21)
(-0.852112 0.385671 1.55906e-20)
(-0.999809 -0.404218 0)
(-0.0220076 -0.0967175 -1.6922e-20)
(-1.39399 0.564268 -7.31617e-21)
(0.0987509 -0.0334775 1.08311e-20)
(-1.45461 -0.724429 -8.10911e-21)
(0.0338739 0.00465084 9.88417e-21)
(-1.3542 0.395835 4.72498e-21)
(-1.3299 -0.813268 9.59354e-21)
(-1.44407 0.450938 -1.18255e-20)
(-1.39946 -0.82344 0)
(0.0635792 -0.0182938 -9.70316e-21)
(-0.725903 -0.567549 -6.79749e-22)
(-0.904853 0.00712033 4.6435e-21)
(-0.434647 0.321259 0)
(-0.675402 0.22297 -2.32853e-20)
(-1.18321 0.745713 5.43739e-21)
(-0.0982519 -0.142742 -6.521e-21)
(-1.46115 -0.421066 0)
(-1.41896 -0.826722 0)
(-1.4707 0.487451 -9.66667e-21)
(0.075144 -0.0281572 0)
(-0.386721 0.0512686 -1.90477e-20)
(-0.165691 -0.047219 -6.39857e-21)
(-0.43618 -0.184741 1.89212e-20)
(-0.709317 0.345928 0)
(-0.868332 -0.315337 -3.77388e-22)
(-0.100613 -0.137143 -6.51486e-21)
(0.0132163 0.0141889 7.59447e-21)
(-1.36209 0.376952 0)
(-1.31962 -0.834508 -1.10607e-20)
(-0.738029 0.258879 1.85919e-20)
(-0.90779 -0.422678 1.5736e-20)
(-0.0060015 -0.055523 0)
(0.0887061 -0.0330242 0)
(-1.45149 -0.724921 1.33417e-21)
(-1.4343 0.626408 0)
(-0.376176 0.279369 0)
(-0.915996 0.0355947 0)
(-0.783216 -0.60707 0)
(-1.39616 0.438136 1.03684e-20)
(-1.37445 -0.80114 0)
(0.0616359 -0.0135402 -5.25688e-23)
(-0.879825 0.177568 4.55222e-21)
(-0.90338 -0.576948 -4.76829e-21)
(-0.0980687 0.0843186 0)
(-0.90688 0.450532 0)
(-1.06653 -0.406399 6.03046e-21)
(-0.0402373 -0.117235 1.06282e-20)
(-1.21953 -0.836958 -1.50264e-20)
(-1.27034 0.270649 -8.7636e-21)
(-0.0862332 0.0813428 5.96761e-21)
(-1.0831 0.213606 0)
(-1.07328 -0.72432 -6.30619e-21)
(-0.125255 0.109571 -2.19061e-22)
(0.0850898 -0.0380075 -9.46503e-21)
(-1.42245 -0.736404 0)
(-1.44392 0.606396 -1.2444e-21)
(-0.44364 0.288451 8.03468e-21)
(-0.518882 -0.402018 -7.98371e-21)
(-0.776283 -0.0667339 8.75635e-22)
(-1.24367 0.680055 1.34422e-21)
(0.0565322 -0.00277593 -1.38281e-20)
(-1.43577 -0.589863 0)
(-0.176812 0.0197883 -3.75597e-21)
(-0.444717 0.0122742 -1.4862e-20)
(-0.417548 -0.224074 1.86375e-20)
(-0.898533 0.236583 5.29896e-21)
(-0.849996 0.189045 2.25749e-23)
(-0.952387 -0.55822 -1.17461e-20)
(-0.884942 -0.547522 0)
(-0.0755317 0.0648857 6.06836e-21)
(-0.0281406 0.0349098 -6.25492e-21)
(-0.0397278 -0.101128 -1.38459e-20)
(-1.2416 0.742418 5.61012e-21)
(-1.50939 -0.458576 -7.08531e-21)
(-0.847721 0.434693 0)
(-1.01535 -0.36018 0)
(-0.0851236 -0.142083 -1.3949e-20)
(-1.15456 0.254565 -2.36452e-21)
(-1.13634 -0.763796 0)
(-0.0884723 0.0858761 0)
(-1.18501 0.553056 -5.39941e-21)
(-1.32698 -0.560729 0)
(0.0551934 -0.0619399 6.31923e-21)
(-0.295559 -0.0145596 3.92832e-21)
(-0.336825 -0.0875947 5.76923e-21)
(-0.256096 -0.0725634 -1.96418e-21)
(-0.98314 0.21692 -8.67742e-21)
(-1.00431 -0.64361 0)
(-0.0826005 0.0821129 -1.02795e-20)
(-0.865225 0.46256 0)
(-1.04466 -0.350703 7.52213e-21)
(-0.104093 -0.157467 -8.88254e-21)
(-0.777295 0.298308 0)
(-0.844915 0.332259 1.83251e-21)
(-0.463596 0.307527 2.88438e-21)
(-0.540956 -0.424815 2.30923e-20)
(-0.804166 -0.0591338 -2.08893e-20)
(-1.03888 0.258182 -8.79857e-21)
(-1.06127 -0.665652 9.71325e-21)
(-0.0410387 0.0555025 9.37804e-21)
(-1.22884 0.564584 0)
(0.0695636 -0.0530916 -2.23935e-20)
(-1.37028 -0.594087 -5.05577e-21)
(-0.334821 0.205523 -2.07625e-20)
(-0.540806 -0.400612 0)
(-0.703282 -0.0186797 6.85529e-21)
(-0.217557 0.173122 -1.20457e-20)
(-0.972643 0.136963 -6.81387e-21)
(-0.939587 -0.672144 0)
(-1.03968 0.569652 -5.47079e-21)
(-1.23619 -0.410624 -6.25879e-21)
(-0.0661044 -0.134374 3.97815e-21)
(-0.410334 0.286485 1.03863e-21)
(-0.639701 -0.490007 0)
(-0.828268 -0.00846352 1.45883e-20)
(-1.09578 0.605805 0)
(-1.13476 0.612038 0)
(-1.30169 -0.437818 -3.82144e-21)
(-0.0500602 -0.123905 -1.03567e-20)
(-1.33264 -0.477736 5.40512e-21)
(-0.0161414 -0.101322 1.09852e-20)
(0.100088 -0.034406 -8.33834e-21)
(-1.47885 -0.741248 0)
(-1.4409 0.595587 -4.71409e-21)
(-0.998375 0.507263 6.39926e-21)
(-1.16819 -0.438077 0)
(-0.0267172 -0.110415 3.60863e-21)
(-1.25868 -0.626895 -2.25843e-21)
(0.0469274 -0.0170492 1.20829e-20)
(-1.19713 0.612667 2.84621e-22)
(-0.549412 0.0421265 -6.91324e-21)
(-0.16467 0.0649406 0)
(-0.526455 -0.314579 0)
(-0.921376 0.310001 1.23746e-20)
(-1.01347 -0.527537 0)
(0.0219393 -0.0127706 2.04531e-20)
(0.0955828 -0.0353802 -6.90763e-21)
(-1.34628 0.554642 1.52305e-20)
(-1.42458 -0.69293 6.64129e-21)
(-0.808697 -0.597604 0)
(-0.892678 0.0625114 6.13142e-21)
(-0.305809 0.232798 -1.48044e-20)
(-1.25562 -0.841423 -1.76019e-20)
(-1.30723 0.30851 -5.21048e-21)
(-0.0462457 0.0518626 0)
(-0.806538 -0.376733 -1.62756e-20)
(-0.0296005 -0.0481425 0)
(-0.974727 0.383809 1.30754e-20)
(-1.07504 -0.509812 5.43013e-21)
(0.0367984 -0.0498521 6.22507e-21)
(-0.794565 -0.397895 9.46612e-21)
(-0.0270246 -0.02962 -3.34598e-23)
(-1.32054 0.717205 -3.48569e-22)
(0.0368657 -0.0522425 8.16934e-21)
(-1.54101 -0.555085 -3.74745e-21)
(-0.707337 -0.580191 0)
(-0.937577 -0.0132529 1.44414e-21)
(-0.491572 0.362835 0)
(-1.03378 0.415546 -1.33303e-20)
(-1.14947 -0.540636 -6.61701e-21)
(0.0504092 -0.0440197 -7.49998e-21)
(-0.759451 0.19219 0)
(-0.815822 -0.47161 -9.34744e-21)
(-0.0540884 0.0316084 0)
(-0.775261 0.0618608 0)
(-0.709833 -0.502766 0)
(-0.250101 0.172922 0)
(-0.526105 0.185745 -5.29277e-21)
(-0.639967 -0.259302 -9.14409e-21)
(-0.104633 -0.0921611 6.55562e-24)
(-0.264109 0.207036 1.49318e-20)
(-0.946081 0.104359 1.64478e-20)
(-0.89046 -0.64859 9.31841e-21)
(-1.41851 0.525649 -5.90282e-21)
(-1.4317 -0.757974 6.78753e-21)
(0.0945387 -0.0303444 -1.02285e-20)
(-1.26567 -0.817913 1.20199e-20)
(-1.29342 0.328155 5.28252e-21)
(-0.0193035 0.0382097 7.67292e-21)
(-0.823925 0.549884 -1.13237e-20)
(-0.347698 -0.325542 1.16777e-20)
(-1.08926 -0.209975 -8.92499e-21)
(-1.17094 0.681927 3.06986e-21)
(-1.124 0.65181 -2.89649e-21)
(-1.34883 -0.420631 -1.21294e-21)
(-1.40254 -0.439821 0)
(-0.0585377 -0.122478 -3.75761e-21)
(-0.0760611 -0.138095 -3.35868e-21)
(0.0529086 -0.0120312 -1.63694e-20)
(-1.31427 -0.615861 2.48923e-21)
(-1.21872 0.623209 1.08186e-21)
(-1.26639 0.693459 -1.18351e-22)
(0.0594842 -0.00226876 1.91302e-20)
(-1.47649 -0.589508 0)
(-0.968077 0.26902 -1.97893e-20)
(-1.02651 -0.594776 -2.54079e-21)
(-0.0152611 0.0323727 0)
(0.0996601 -0.0340136 -2.08547e-20)
(-1.41235 0.586805 4.69185e-21)
(-1.47598 -0.719638 0)
(-0.949726 0.581254 1.61752e-20)
(-1.00608 0.602412 -1.20324e-20)
(-1.1764 -0.320606 6.84283e-21)
(-1.22621 -0.3528 2.5661e-21)
(-0.188729 -0.214437 -6.64738e-21)
(-0.14345 -0.182612 -3.32867e-21)
(0.0719565 -0.0407141 0)
(-1.40784 -0.845057 0)
(-1.52655 0.478927 1.52773e-21)
(-1.165 0.670357 -1.57794e-21)
(0.049495 0.00311979 0)
(-1.39489 -0.561187 0)
(-0.42005 -0.0665662 -4.12091e-24)
(-0.257848 0.0453829 8.37312e-21)
(-0.293573 -0.160769 4.14154e-21)
(-1.27202 0.647419 -1.83193e-21)
(-1.39767 -0.63989 -7.65109e-23)
(0.0612759 -0.012928 8.97567e-22)
(-0.683047 0.404125 0)
(-0.900709 -0.208853 -1.23846e-20)
(-0.28786 -0.272587 -8.59827e-23)
(-1.46711 0.560201 1.97444e-22)
(-1.45938 -0.782441 8.21071e-21)
(0.0962233 -0.0354876 1.47111e-23)
(-1.11413 -0.63494 -5.5407e-23)
(0.03982 -0.0315885 -6.97453e-21)
(-1.16581 0.520258 6.21744e-22)
(-0.358033 0.199613 -7.61747e-21)
(-0.412647 -0.305926 7.1498e-21)
(-0.640211 -0.0705509 2.19503e-20)
(-0.481884 0.050575 0)
(-0.493148 -0.261978 -2.06863e-20)
(-0.143183 0.0137888 1.03131e-20)
(-1.38124 0.693792 0)
(0.0790371 -0.0209251 9.59917e-21)
(-1.53252 -0.659689 -1.93314e-22)
(-0.519878 0.0668673 0)
(-0.532695 -0.290758 -7.14713e-21)
(-0.130434 0.0316375 -1.46231e-20)
(-0.386718 -0.0618731 8.71139e-21)
(-0.253921 0.0193571 -4.42646e-21)
(-0.289104 -0.136872 2.20156e-21)
(-0.357508 0.273178 7.18776e-21)
(-0.970044 0.0639159 -5.71491e-21)
(-0.86362 -0.670121 1.02468e-20)
(-0.514495 -0.0211049 0)
(-0.416859 -0.256675 0)
(-0.223777 0.0949256 1.22101e-21)
(-0.549212 0.0206742 1.09414e-20)
(-0.489087 -0.296631 5.4455e-21)
(-0.198806 0.0914629 1.72131e-22)
(-0.764338 0.515264 1.72237e-20)
(-1.03338 -0.178111 -9.1951e-21)
(-0.401935 -0.36788 -1.15507e-20)
(0.0819719 -0.031774 1.45399e-20)
(0.0891531 -0.031258 -1.47758e-20)
(-1.53872 -0.65486 2.08554e-21)
(-1.52557 -0.674503 1.56002e-21)
(-1.38633 0.684171 0)
(-1.40224 0.669983 -3.61614e-21)
(-1.44839 0.52797 7.40122e-21)
(-1.44467 -0.776063 -5.43207e-21)
(0.0938774 -0.0318394 1.26901e-20)
(-0.334379 -0.325207 -7.46156e-21)
(-0.881799 0.599826 3.51755e-21)
(-1.14786 -0.224122 1.1373e-20)
(-0.473183 0.293516 -7.33614e-21)
(-0.448461 -0.356921 -7.31264e-21)
(-0.764563 -0.0949879 6.77232e-21)
(-1.09931 0.183776 0)
(-1.06352 -0.753464 6.52713e-21)
(-0.17831 0.143944 2.26417e-22)
(-1.22562 -0.718581 6.74215e-22)
(0.0625373 -0.0512865 -6.4879e-21)
(-1.36576 0.525389 -3.21942e-22)
(0.0421481 -0.0136132 0)
(-1.47317 0.425742 0)
(-1.38137 -0.868735 3.83178e-21)
(-1.39902 0.64709 2.38447e-21)
(0.0840224 -0.0263715 0)
(-1.47975 -0.698573 -1.31012e-21)
(0.0315901 -0.0245793 -2.60005e-32)
(-1.05004 -0.600927 1.84843e-21)
(-1.08209 0.50567 -9.48922e-22)
(-1.10118 -0.534409 -2.10455e-21)
(0.0297214 -0.0101405 2.59379e-32)
(-1.02877 0.571024 8.18734e-22)
(-1.17537 -0.675129 -1.29588e-20)
(-1.13017 0.347475 0)
(0.025397 0.0128991 -1.98551e-20)
(-1.36479 -0.810441 -7.35949e-22)
(0.0757269 -0.0546793 -6.62964e-21)
(-1.52345 0.507824 0)
(-1.2606 0.506397 -8.00912e-21)
(-1.34383 -0.666251 6.64157e-21)
(0.0855116 -0.0332612 1.02541e-20)
(-1.32273 0.762769 9.68094e-21)
(0.03759 -0.0263938 5.81185e-21)
(-1.60223 -0.544707 0)
(-0.635842 0.229992 4.11376e-21)
(-0.0495488 -0.0629224 -4.03857e-21)
(-0.766809 -0.341822 3.95788e-21)
(-1.40599 -0.85702 1.86377e-21)
(0.0647094 -0.0332 7.03168e-21)
(-1.51444 0.46315 2.03091e-21)
(-1.05343 0.15786 -6.59776e-21)
(-0.213236 0.170569 -4.06651e-21)
(-1.01573 -0.727402 0)
(-1.15791 -0.755192 0)
(-1.16406 0.280942 0)
(-0.0509757 0.063948 0)
(0.00839044 -0.00814637 0)
(-0.64048 -0.333846 3.02999e-21)
(-0.629722 0.320086 -2.03361e-21)
(-1.24675 -0.655982 -4.29729e-22)
(0.0505188 -0.0257833 -8.4194e-21)
(-1.2334 0.592845 -5.88524e-22)
(-0.57197 0.190401 -1.05507e-20)
(-0.0717646 -0.0631821 9.69464e-21)
(-0.686231 -0.307152 4.66452e-21)
(-1.43256 -0.808023 6.04369e-21)
(-1.50756 0.528224 -2.87441e-21)
(0.0867561 -0.0413847 0)
(0.0693426 -0.0462854 -7.34333e-21)
(-1.54365 0.478692 0)
(-1.38661 -0.85108 -4.5437e-21)
(-1.39159 0.620539 -4.32663e-21)
(0.0950724 -0.0354805 2.23191e-20)
(-1.49292 -0.684291 0)
(0.00367165 -0.0761886 -1.67256e-20)
(-1.49986 -0.511442 4.91755e-21)
(-1.26735 0.712624 0)
(-0.735147 0.519428 -2.16918e-20)
(-1.02897 -0.152386 1.17116e-20)
(-0.469779 -0.419869 -3.66376e-21)
(-1.30721 -0.382686 1.80524e-21)
(-1.07345 0.651809 6.9351e-21)
(-0.128748 -0.173073 -1.03391e-20)
(-0.000246442 -0.0674826 -1.49503e-20)
(-1.29154 0.759786 0)
(-1.56776 -0.50466 0)
(-0.726165 0.398359 -3.62219e-21)
(-0.799968 0.441466 0)
(-0.913807 -0.266368 -1.29051e-20)
(-0.993139 -0.301465 1.38093e-20)
(-0.189344 -0.200895 1.83977e-21)
(-0.161343 -0.191647 -1.96036e-21)
(-0.671141 0.382404 3.47521e-21)
(-0.876584 -0.226729 0)
(-0.246879 -0.239008 3.49157e-21)
(-0.933089 0.595448 0)
(-1.17246 -0.297227 -1.10586e-20)
(-0.229334 -0.243477 2.39868e-21)
(-1.22921 -0.786862 -6.18645e-21)
(-1.2456 0.315833 5.71678e-21)
(-0.0207639 0.0404213 -1.56688e-20)
(-1.42893 -0.814949 0)
(-1.46362 0.512221 1.06453e-20)
(0.0852412 -0.0318674 0)
(0.028617 0.00973625 -5.08177e-21)
(-1.28961 0.377563 -3.38003e-21)
(-1.29043 -0.779517 -3.96893e-21)
(-1.17167 -0.542043 3.27854e-22)
(0.0351715 -0.00655465 4.50062e-21)
(-1.07567 0.597159 0)
(-0.450604 0.232077 7.04468e-21)
(-0.459068 0.220837 0)
(-0.283595 -0.229651 0)
(-0.662575 -0.145553 2.64683e-20)
(-0.240437 -0.199903 0)
(-0.650967 -0.171108 -1.68868e-20)
(-0.824886 0.52265 0)
(-0.744379 0.470736 0)
(-0.316218 -0.297856 2.21389e-23)
(-1.06016 -0.24842 7.32613e-21)
(-0.278031 -0.269785 1.76325e-20)
(-0.986031 -0.214022 -1.57173e-20)
(-1.0861 -0.657996 0)
(0.0444904 -0.041891 9.50385e-21)
(-1.22163 0.506177 0)
(-1.4372 -0.798993 -4.13771e-21)
(-1.49419 0.532373 1.03139e-21)
(0.089976 -0.0380093 4.45139e-21)
(-0.527807 0.346479 -1.24297e-20)
(-0.517473 -0.423275 -8.22535e-21)
(-0.843421 -0.085415 2.15579e-20)
(-1.16758 -0.803161 1.35219e-20)
(-1.20486 0.245427 1.479e-20)
(-0.106976 0.0982398 0)
(-0.0155429 -0.0908687 1.78852e-20)
(-1.47653 -0.491 -5.22844e-21)
(-1.24231 0.70956 7.1202e-21)
(-1.36088 -0.699968 0)
(-1.36779 0.606064 0)
(0.0699883 -0.0324306 0)
(-1.37948 -0.727526 0)
(-1.40649 0.591613 1.76972e-21)
(0.0775023 -0.0397688 1.60706e-21)
(-0.998529 0.575691 -6.77831e-21)
(-1.20602 -0.377849 3.8755e-21)
(-0.110818 -0.162109 4.92283e-21)
(-0.292579 0.178411 -1.9811e-21)
(-0.550352 -0.387483 0)
(-0.673866 0.00291633 -1.19179e-22)
(-1.40807 0.638296 5.04129e-21)
(0.0945136 -0.0333546 1.292e-20)
(-1.51355 -0.687696 -1.81581e-21)
(-1.20571 -0.713655 0)
(-1.17595 0.352824 0)
(0.0220804 0.0197483 1.71286e-20)
(0.0710374 -0.0514071 4.27769e-21)
(-1.4226 -0.60696 8.47941e-21)
(-1.27797 0.609728 1.58459e-20)
(-0.702203 0.452894 0)
(-0.367024 -0.332713 -1.19098e-20)
(-0.95409 -0.186747 8.14003e-21)
(-0.844766 0.142672 1.33999e-22)
(-0.842527 -0.552806 6.9922e-21)
(-0.149164 0.115172 0)
(-0.414006 0.247496 7.2958e-23)
(-0.451914 -0.3513 -2.43355e-21)
(-0.713791 -0.077151 -8.87101e-21)
(0.0980816 -0.0332029 -4.22771e-24)
(-1.49946 -0.72152 3.89812e-21)
(-1.43312 0.620376 4.86915e-21)
(-1.18334 0.589435 -3.04308e-21)
(-1.35229 -0.536697 -2.79571e-21)
(0.0343071 -0.0734259 0)
(-0.365771 0.191902 -7.63983e-21)
(-0.359216 -0.266727 1.56275e-20)
(-0.61934 -0.0924183 -1.44898e-20)
(-1.30456 0.773037 4.13503e-21)
(0.0104325 -0.0526485 6.60311e-21)
(-1.59527 -0.514703 -2.44294e-21)
(-0.614407 0.315613 -4.4419e-21)
(-0.792587 -0.239537 0)
(-0.186673 -0.192132 0)
(-0.629109 0.128344 -1.93899e-20)
(-0.668201 -0.376322 4.37882e-21)
(-0.0891642 0.0346496 0)
(-1.13742 -0.711394 0)
(-1.11748 0.282591 1.25844e-20)
(-0.030893 0.0538849 0)
(-1.30084 0.725643 -1.65646e-21)
(0.0577528 -0.00635221 -2.0437e-21)
(-1.55295 -0.583804 4.30597e-22)
(-1.29711 0.743672 4.67464e-21)
(0.0502847 -0.00831839 0)
(-1.57541 -0.562214 -1.37785e-21)
(0.0585586 -0.0564455 3.83238e-21)
(-1.44267 -0.585094 -4.66003e-21)
(-1.27809 0.633269 -1.46124e-20)
(-0.87905 0.124183 -5.90706e-21)
(-0.870012 -0.595988 -7.01478e-21)
(-0.192377 0.14243 0)
(0.0541723 0.0014113 1.87223e-21)
(-1.5117 -0.5733 -4.11134e-22)
(-1.24308 0.70886 0)
(0.0913912 -0.031693 0)
(-1.38531 -0.696216 -4.87849e-21)
(-1.31805 0.521535 -1.81239e-21)
(0.0235787 -0.0253979 7.65053e-21)
(-0.895229 -0.56182 -1.57348e-21)
(-0.977476 0.431195 0)
(-0.875355 0.535659 5.14005e-22)
(-0.992789 -0.45437 0)
(0.021105 -0.00364017 7.65369e-21)
(0.011918 -0.064567 -1.58491e-23)
(-1.54304 -0.525338 0)
(-1.29318 0.739439 0)
(0.0944751 -0.0343141 0)
(-1.47834 -0.737834 0)
(-1.45366 0.616855 5.51859e-21)
(-1.36854 0.681251 -4.61725e-21)
(-1.34825 0.663385 3.73507e-21)
(0.0742949 -0.0376603 -7.30191e-21)
(-1.53693 -0.62276 -7.57357e-22)
(0.0747492 -0.0420522 -1.19192e-20)
(-1.50917 -0.621728 1.66246e-21)
(-1.3209 0.49375 3.62095e-21)
(-1.37148 -0.719991 3.34898e-21)
(0.0870366 -0.0263989 0)
(-0.164853 0.138536 0)
(-1.11531 -0.798472 0)
(-1.16556 0.205564 0)
(-0.433083 0.175236 0)
(-0.194817 -0.153686 -2.16147e-20)
(-0.591376 -0.181044 9.25326e-21)
(-1.27909 0.420941 1.0716e-20)
(-1.30575 -0.742181 1.33572e-21)
(0.0604207 -0.00737877 1.49604e-20)
(0.0408839 0.00503194 9.71684e-21)
(-1.25753 0.392757 -1.49137e-20)
(-1.27338 -0.748844 -1.85087e-21)
(-1.26467 0.77126 5.30116e-21)
(-0.0316688 -0.0892047 7.14926e-21)
(-1.55374 -0.46699 7.39326e-21)
(-0.852496 0.548771 0)
(-1.09777 -0.250875 3.29269e-21)
(-0.284433 -0.278867 -1.7285e-20)
(-0.741668 0.44489 0)
(-0.956739 -0.229756 1.62603e-20)
(-0.272922 -0.267966 -4.42521e-23)
(-1.12848 0.395095 -1.48682e-20)
(-1.20277 -0.644875 1.76933e-21)
(0.0572181 -0.0138214 -8.68455e-21)
(-1.16134 0.389905 0)
(-1.21752 -0.671668 1.6679e-21)
(0.0513067 -0.00596414 7.92874e-21)
(-0.321549 0.156641 0)
(-0.358329 -0.252069 -2.4706e-20)
(-0.571152 -0.0765915 8.15193e-21)
(-0.824824 0.468776 0)
(-1.0209 -0.298946 0)
(-0.173444 -0.20489 2.63894e-21)
(0.0497584 -0.02688 -1.52098e-20)
(-1.38497 -0.874437 -1.0438e-20)
(-1.51821 0.440353 0)
(-1.43543 0.566523 1.43501e-21)
(0.0754844 -0.0474391 0)
(-1.331 -0.746633 6.49907e-22)
(-1.42275 0.533448 -4.62071e-22)
(0.0697243 -0.0526588 0)
(-1.28581 -0.742817 -1.55376e-21)
(-0.543803 0.315918 5.20142e-21)
(-0.332409 -0.280582 -2.59605e-21)
(-0.775672 -0.159746 -2.33206e-22)
(-1.28512 -0.68035 3.79355e-22)
(0.0610741 -0.034448 1.28872e-20)
(-1.3263 0.582936 0)
(-1.23494 0.629705 1.28374e-20)
(0.0378003 -0.0684043 8.14412e-21)
(-1.41056 -0.549656 0)
(0.0572405 -0.0437323 -1.91281e-21)
(-1.21716 -0.700014 4.87184e-23)
(-1.31764 0.539476 0)
(-0.453037 0.0839025 1.32434e-20)
(-0.131525 -0.0272388 1.31429e-20)
(-0.504152 -0.233956 2.43741e-23)
(-0.885202 0.374229 -2.28576e-21)
(-1.01862 -0.446348 -2.05374e-21)
(0.00552703 -0.0731253 -9.14211e-21)
(-0.796206 -0.563772 1.5983e-20)
(-0.843932 0.0883332 1.4227e-20)
(-0.243861 0.17481 0)
(0.0785097 -0.0499379 0)
(-1.38908 -0.817638 -1.18182e-21)
(-1.52654 0.512355 0)
(-1.18535 -0.729994 0)
(-1.17323 0.328269 0)
(-6.31221e-05 0.0332441 0)
(0.0328244 -0.0387171 0)
(-1.32694 0.757574 -3.41129e-21)
(-1.59584 -0.543243 2.40149e-21)
(-0.959105 0.40794 0)
(-1.08133 -0.485825 1.05341e-21)
(0.0250018 -0.0644084 8.93282e-21)
(-0.402265 0.148249 0)
(-0.195596 -0.141768 1.85729e-20)
(-0.550837 -0.169698 0)
(-1.42511 -0.80258 -5.70646e-21)
(-1.50163 0.546503 2.73459e-21)
(0.0872671 -0.0452628 0)
(0.0912708 -0.0396374 -8.89335e-21)
(-1.41972 -0.667141 3.08469e-22)
(-1.31786 0.575059 4.15948e-22)
(-1.34888 0.695396 0)
(-1.32932 0.689718 2.40734e-21)
(0.071146 -0.0134181 -4.72727e-21)
(0.0695589 -0.0119145 -5.80538e-21)
(-1.52309 -0.627929 -5.65644e-22)
(-1.49809 -0.633826 4.65371e-22)
(-0.851997 0.244907 0)
(-0.918457 -0.52361 2.74876e-20)
(-0.0214497 0.0190567 9.77766e-21)
(-1.11306 -0.639209 1.81953e-20)
(-1.06563 0.31263 0)
(0.0119658 0.019912 -1.05566e-20)
(-0.577056 0.145445 -1.09181e-20)
(-0.651198 -0.329813 7.52495e-21)
(-0.0693321 -0.0126624 1.58552e-20)
(-1.37138 -0.776618 2.33454e-21)
(-1.47895 0.555034 2.08891e-21)
(-1.35077 -0.790958 -9.69873e-22)
(0.0804595 -0.0491553 0)
(-1.49476 0.528618 -2.0143e-21)
(0.0762444 -0.0538079 0)
(-1.10818 0.475543 0)
(-1.22649 -0.567527 0)
(0.0588168 -0.0502334 9.79934e-21)
(-1.48932 0.565403 3.95532e-21)
(-1.48024 0.568279 -7.08041e-21)
(-1.43759 -0.780488 1.52434e-21)
(-1.41484 -0.768923 -4.61308e-21)
(0.0897013 -0.042999 1.30392e-20)
(0.0860365 -0.0440049 -8.29994e-24)
(-1.01567 0.287051 0)
(-1.06574 -0.636977 -1.72617e-20)
(-0.0190195 0.0411169 1.3691e-20)
(-0.786191 0.273111 1.01603e-20)
(-0.944737 -0.459685 -1.24564e-20)
(0.0103968 -0.0389822 0)
(-1.33017 0.748864 0)
(0.0505454 -0.0191842 0)
(-1.58865 -0.571827 1.32469e-21)
(-0.866219 0.274922 7.48946e-21)
(-0.945006 -0.508878 -7.6514e-21)
(0.000358407 0.000369034 -1.61649e-20)
(-0.648981 0.186076 4.37309e-21)
(-0.737176 -0.378719 -8.83584e-21)
(-0.0434286 -0.0166647 9.10482e-21)
(-1.3275 0.713253 0)
(0.0654606 -0.0115589 0)
(-1.5527 -0.610274 -1.91308e-21)
(-0.982683 0.440595 0)
(-1.12733 -0.47306 2.10112e-21)
(0.0200357 -0.0778215 -9.77871e-21)
(-0.994353 -0.736113 0)
(-1.04862 0.135338 0)
(-0.261477 0.205686 -5.2283e-22)
(-0.706667 0.469843 -5.59223e-22)
(-0.971406 -0.168288 0)
(-0.403799 -0.363177 1.82368e-20)
(-1.30218 -0.873748 6.73333e-21)
(-0.0298883 0.035115 0)
(-1.37701 0.334655 0)
(0.0163428 -0.0120771 -1.83979e-20)
(-0.84791 -0.448797 -4.23849e-21)
(-0.831752 0.428044 2.84561e-21)
(-0.913868 0.334595 0)
(-1.00582 -0.495288 7.61741e-21)
(0.0254005 -0.0346721 -8.21518e-21)
(-1.36059 0.721495 6.79546e-21)
(0.0642456 -0.0278967 2.46273e-20)
(-1.57188 -0.600276 0)
(-0.589037 -0.499144 -4.8498e-21)
(-0.967939 -0.0839271 -7.83342e-21)
(-0.611847 0.439384 -4.88977e-21)
(-1.03607 0.616133 0)
(0.0371819 0.00223877 -6.821e-21)
(-1.2396 -0.529743 0)
(-0.195986 0.113403 9.79559e-21)
(-0.224402 0.138997 -1.00051e-20)
(-0.581998 -0.381135 0)
(-0.635664 0.0445458 9.30115e-21)
(-0.620249 -0.419187 -1.58278e-20)
(-0.68081 0.0394401 -7.43369e-21)
(-0.566738 0.11355 1.02833e-20)
(-0.608951 -0.324997 1.0042e-20)
(-0.0943675 0.0154792 0)
(-0.302333 0.172093 8.75087e-21)
(-0.242441 0.136024 0)
(-0.473262 -0.33523 -8.86488e-21)
(-0.630242 -0.0324945 8.32486e-21)
(-0.498013 -0.334007 8.93413e-21)
(-0.604388 -0.00143754 4.2403e-23)
(-0.855537 0.312642 6.38198e-22)
(-0.878971 -0.44524 -5.49347e-21)
(-0.00646185 -0.0234123 -1.11293e-20)
(-0.790064 0.254601 -1.74787e-20)
(-0.88226 -0.461959 1.43538e-22)
(-0.0120424 -0.0077465 0)
(0.0700902 -0.0577442 0)
(-1.28713 -0.773353 0)
(-1.46782 0.516362 1.0891e-21)
(-0.603143 0.339344 -4.79716e-21)
(-0.809992 -0.196022 0)
(-0.268321 -0.244644 4.80167e-21)
(-1.47104 0.587289 -9.08754e-21)
(-1.4659 -0.76558 2.47303e-21)
(0.095335 -0.0374234 -7.43743e-21)
(-1.16592 0.439532 0)
(-1.22378 0.466207 7.69986e-21)
(-1.25181 -0.6385 -2.20716e-21)
(-1.3016 -0.663679 6.50769e-21)
(0.0715131 -0.025254 -1.07477e-20)
(0.0793666 -0.0266413 -9.89488e-21)
(-0.574627 0.306821 0)
(-0.770778 -0.206191 0)
(-0.235572 -0.221017 2.30422e-21)
(-0.902547 0.539579 5.46315e-21)
(-1.11421 -0.309162 0)
(-0.188795 -0.212864 5.72495e-21)
(-1.05393 0.406936 -4.21328e-21)
(-1.15509 -0.577048 0)
(0.055818 -0.0314016 0)
(-0.307964 0.0753076 1.01413e-20)
(-0.453884 -0.110353 -4.99292e-21)
(-0.243528 -0.14452 5.05408e-21)
(-1.23752 0.429165 0)
(-1.28678 -0.706191 0)
(0.0660801 -0.0125827 -1.59135e-20)
(-0.401361 0.176281 0)
(-0.248608 -0.190006 2.71852e-21)
(-0.588188 -0.146296 0)
(-1.01689 0.312548 -9.77058e-21)
(-1.07294 -0.613755 -9.71571e-21)
(0.0131164 0.0123852 -1.37492e-21)
(-0.893017 0.51107 5.57216e-21)
(-1.0935 -0.328373 0)
(-0.150661 -0.190845 1.18313e-20)
(-0.329155 0.10819 -1.00509e-20)
(-0.306696 0.109229 -4.44204e-21)
(-0.496745 -0.122461 4.92969e-21)
(-0.247687 -0.164211 -1.00259e-20)
(-0.505883 -0.0981099 0)
(-0.291265 -0.195585 -1.78049e-20)
(-0.269509 0.126818 -4.41586e-21)
(-0.399833 -0.271194 1.15576e-20)
(-0.24033 0.121451 2.837e-21)
(-0.55215 -0.0429602 -1.12909e-20)
(-0.477142 -0.315975 -5.62782e-21)
(-0.57911 -0.00830262 2.48822e-22)
(-0.69958 0.367736 5.26588e-21)
(-0.762032 0.387515 0)
(-0.878882 -0.276198 9.71554e-21)
(-0.927334 -0.317269 -7.5921e-21)
(-0.159005 -0.179289 -1.07055e-20)
(-0.110372 -0.149728 1.77993e-20)
(0.0242189 -0.0686942 0)
(-1.47492 -0.537218 -2.77954e-21)
(-1.26944 0.682516 -7.20994e-21)
(-0.294091 0.228078 6.37628e-21)
(-0.987619 0.101828 9.01606e-21)
(-0.921208 -0.68875 -1.62115e-20)
(0.0428584 -0.0556627 -8.34774e-21)
(0.0595853 -0.0507554 6.67649e-21)
(-1.504 -0.569155 2.40675e-21)
(-1.48792 -0.591694 4.26453e-21)
(-1.30413 0.692235 1.81667e-20)
(-1.31476 0.667945 -9.401e-21)
(-0.445275 0.316679 9.05989e-21)
(-0.659357 -0.514918 -7.80792e-21)
(-0.863642 -0.0183144 2.14149e-21)
(-0.300064 0.01899 1.72494e-20)
(-0.237954 -0.0924468 0)
(-0.378576 -0.103327 -1.7127e-20)
(-1.26353 0.46239 -3.59532e-21)
(-1.32011 -0.700504 -7.35481e-21)
(0.0782099 -0.0211585 0)
(-0.501641 0.26379 0)
(-0.277715 -0.242746 -2.19514e-21)
(-0.709238 -0.162705 -8.56778e-21)
(-0.934235 0.526256 0)
(-1.13142 -0.354881 0)
(-0.120643 -0.16986 -1.10065e-20)
(-1.20208 0.676537 -8.11463e-21)
(-1.19376 0.649312 0)
(-1.42186 -0.483889 1.694e-21)
(-0.0224268 -0.099788 -1.03091e-20)
(-1.39786 -0.495426 -4.60199e-21)
(-0.00551148 -0.0921904 1.39686e-20)