/*--------------------------------*- C++ -*----------------------------------*\
  =========                 |
  \\      /  F ield         | OpenFOAM: The Open Source CFD Toolbox
   \\    /   O peration     | Website:  https://openfoam.org
    \\  /    A nd           | Version:  6
     \\/     M anipulation  |
\*---------------------------------------------------------------------------*/
FoamFile
{
    version     2.0;
    format      ascii;
    class       volVectorField;
    location    "0";
    object      U;
}
// * * * * * * * * * * * * * * * * * * * * * * * * * * * * * * * * * * * * * //

dimensions      [0 1 -1 0 0 0 0];

internalField   nonuniform List<vector> 
918
(
(0.974775 -0.0234465 0)
(-0.00492247 2.96775 0)
(-0.0748861 1.7277 0)
(0.936741 0.0512996 0)
(-0.0449263 1.69201 -2.23567e-21)
(0.00145293 2.9508 -1.17046e-18)
(1.19218 1.53776 4.63039e-19)
(0.568335 0.310003 -5.78334e-21)
(0.990298 -0.0109057 0)
(0.00438427 1.74501 0)
(0.0203121 1.69036 0)
(0.914419 0.0325024 0)
(0.0143866 2.92886 0)
(-0.0156416 2.9089 0)
(-0.0339119 3.08228 7.88024e-19)
(0.0063199 1.6747 -1.68062e-20)
(0.714404 0.1443 4.86484e-19)
(0.276331 1.97297 4.54842e-19)
(0.990605 0.0757659 0)
(0.0239257 1.69775 0)
(0.456056 0.392048 -2.71649e-19)
(0.931233 0.0053932 0)
(0.936855 -0.00246166 0)
(0.971363 0.0444666 0)
(0.8405 0.0541836 0)
(0.0640702 2.62771 0)
(-0.0434117 2.90997 3.54427e-19)
(-0.00658492 1.73589 0)
(-0.00901593 1.75126 0)
(-0.002759 1.75676 0)
(-0.0058849 1.79086 0)
(-0.0251078 1.71365 1.75304e-21)
(-0.00886005 1.67565 0)
(-0.0197477 2.99083 -4.02427e-23)
(-0.0134576 3.00795 9.21728e-19)
(0.00163498 2.99946 0)
(0.968662 0.00575853 0)
(0.5201 0.633791 -3.47893e-21)
(1.11761 1.58827 -4.76466e-19)
(1.27151 1.28355 5.03509e-19)
(0.95102 1.79028 -1.03678e-19)
(1.0616 1.75442 6.34678e-19)
(0.604003 0.328421 5.64038e-21)
(0.572815 0.297059 0)
(1.32696 0.688362 0)
(0.594693 0.349405 2.2447e-20)
(0.530512 0.343577 -2.32969e-20)
(0.959936 0.0088898 0)
(0.984547 -0.00146553 0)
(0.994787 0.00675454 0)
(0.928151 -0.0412236 0)
(0.979156 0.00521642 0)
(0.998561 0.00887363 0)
(-0.0137567 1.61789 -3.10714e-19)
(-0.00661665 1.7852 0)
(0.0370423 1.77966 0)
(0.0147285 1.77598 0)
(0.027861 1.70106 0)
(-0.0032199 1.69276 0)
(0.0065591 1.73837 0)
(0.0135017 1.68877 0)
(0.0146013 1.7319 0)
(0.0173735 1.69731 0)
(0.965256 -0.0331773 0)
(0.961299 0.0173172 0)
(0.926198 0.000394592 0)
(0.934537 0.0141111 0)
(0.920992 -0.00409672 0)
(0.0138935 3.0039 4.19517e-19)
(0.0130591 3.0053 0)
(0.00721603 3.00314 0)
(0.0123016 2.99788 4.63418e-24)
(0.00704941 2.96166 -6.31258e-19)
(0.0177224 2.98031 0)
(0.0215049 2.89622 0)
(-0.0134173 3.00142 6.8136e-25)
(-0.0386753 2.92645 0)
(0.0289504 2.99139 0)
(0.012347 2.82564 0)
(0.140426 3.28921 0)
(-0.109484 3.34152 0)
(0.0615064 3.1487 -7.28202e-19)
(-0.0208835 2.97555 0)
(-0.00890223 1.74816 0)
(0.0101027 1.71937 1.65757e-20)
(0.0178554 1.68059 -1.06762e-20)
(0.741081 0.183514 -1.69985e-19)
(0.719842 0.133414 -1.71291e-19)
(0.728052 0.223473 -5.06205e-19)
(0.666956 0.200811 -3.29555e-19)
(0.187679 1.3289 0)
(0.381894 2.05404 -4.71848e-19)
(0.505125 2.046 7.94807e-19)
(0.970163 0.052635 0)
(0.940559 0.0175561 0)
(0.995508 -0.0127956 0)
(0.96722 0.00647436 0)
(1.04121 0.0782946 -1.2433e-18)
(1.01064 0.0393252 9.49141e-19)
(0.00639376 1.74589 0)
(-0.00153402 1.71177 0)
(-0.00722277 1.74658 0)
(0.0280749 1.73076 0)
(0.0233964 1.69413 0)
(0.40855 0.445597 7.6831e-20)
(0.521065 0.378386 0)
(1.03261 0.0111421 0)
(0.995174 0.00604864 0)
(0.937382 -0.00284602 0)
(0.912265 0.0253044 0)
(0.913969 0.00704378 0)
(1.11253 -0.0183844 0)
(0.844013 0.0772335 0)
(0.786712 0.0468973 7.23073e-19)
(-0.00577742 2.80302 1.28743e-19)
(0.0573822 2.95954 0)
(0.0349997 2.90357 0)
(0.0243632 2.74232 0)
(-0.0583218 2.97184 3.48971e-19)
(-0.0529921 2.89246 0)
(-0.0145327 3.01155 -1.05414e-18)
(0.000703065 2.94724 3.55977e-19)
(0.0169027 1.76424 0)
(0.0104665 1.7588 0)
(-0.019584 1.72088 -1.00784e-22)
(-0.001964 1.71815 0)
(-0.00842627 1.66519 0)
(0.996766 0.0106356 0)
(0.976877 -0.00143319 0)
(0.940365 -0.0192921 0)
(0.992344 0.0165575 0)
(0.965806 0.0134617 0)
(0.625071 0.889712 -4.67674e-21)
(0.415446 0.787137 0)
(0.730582 0.929694 7.55028e-21)
(0.628284 0.748517 0)
(1.14267 1.378 -1.36955e-19)
(1.30631 1.0353 2.55192e-19)
(0.58037 2.06854 0)
(0.775457 1.96002 0)
(0.818016 1.95959 0)
(0.576564 1.1818 -2.23577e-19)
(0.637799 0.317756 0)
(0.627925 0.243088 8.5808e-20)
(1.1976 1.11851 0)
(1.23906 0.911456 0)
(1.30391 0.839233 -1.91696e-19)
(1.25506 0.661646 0)
(1.31736 0.454987 2.37867e-20)
(0.980489 2.7936e-05 0)
(1.00093 -0.00555877 0)
(0.953699 -0.0332426 0)
(0.985543 0.0113726 0)
(0.983413 0.00676835 0)
(0.957922 0.00573013 0)
(0.965795 -0.00988412 0)
(0.979543 0.00358437 0)
(0.994057 0.00554753 0)
(0.016497 1.66864 1.62626e-19)
(0.0636684 1.59491 0)
(-0.0292231 1.64324 2.95735e-19)
(-0.0178265 1.59366 -2.59615e-19)
(0.181499 1.94347 -3.78363e-19)
(0.0438902 1.84106 0)
(0.109545 1.85244 0)
(0.000897801 1.75494 0)
(-0.0257768 1.71445 0)
(0.00978786 1.71509 -6.72014e-22)
(0.00912344 1.66071 0)
(-0.018706 1.72035 -3.43723e-20)
(-0.00554782 1.68832 6.40674e-20)
(-0.0211789 1.76167 0)
(0.017078 1.7418 0)
(-0.00448802 1.71402 0)
(0.00638294 1.7344 0)
(0.0107096 1.68549 0)
(1.01158 0.00703838 0)
(0.996359 0.0298489 0)
(1.02934 0.00752789 0)
(0.975125 0.0289339 0)
(0.951579 -0.00692101 0)
(0.979298 -0.00338363 0)
(0.96232 0.0153133 0)
(0.950834 -0.00583463 0)
(0.00722985 3.06519 -3.26877e-21)
(0.0076787 3.05603 0)
(0.0151422 2.96346 0)
(0.00626622 2.88601 0)
(0.585373 3.47684 0)
(0.823011 2.78615 5.48672e-19)
(0.0609797 3.06882 0)
(-0.00148227 2.87994 0)
(-0.00270897 1.73895 0)
(0.00964086 1.73761 0)
(0.00322593 1.74049 0)
(-0.00328388 1.79068 -1.22542e-22)
(-0.00833292 1.74923 0)
(-0.00720122 1.77219 0)
(-0.0367462 1.65587 -5.37224e-21)
(-0.00653484 1.72207 3.31743e-20)
(0.0184193 1.74069 1.07691e-20)
(0.042315 1.68553 0)
(0.768736 0.137584 2.63609e-19)
(0.741295 0.0663782 -2.54579e-19)
(0.167034 1.40723 0)
(0.273479 1.33015 -1.39662e-19)
(0.144461 1.42606 -4.0576e-19)
(0.163439 1.39939 4.05318e-19)
(0.962343 -0.00804206 0)
(0.976745 -0.00600062 0)
(0.978379 -0.00449608 0)
(0.948768 0.00678156 0)
(-0.000849385 1.72489 0)
(-0.00657275 1.74576 0)
(-0.0176743 1.70751 0)
(0.559471 0.366274 1.847e-19)
(0.539905 0.385908 -1.87247e-19)
(0.519444 0.360531 0)
(1.2024 0.0880871 1.169e-20)
(1.20858 0.0628355 0)
(1.13834 0.0459882 0)
(1.05454 0.0195523 0)
(0.790301 0.0991274 0)
(0.816094 0.0496902 -1.16969e-18)
(0.768775 0.0172526 4.46035e-19)
(0.0100301 2.95904 2.16932e-19)
(-0.035644 2.81372 3.91954e-20)
(0.0226086 3.04156 -7.02669e-21)
(0.0183761 3.04343 2.69683e-19)
(-0.00723872 2.99837 1.26677e-20)
(-0.00921281 2.95691 -5.24193e-23)
(-0.0156655 3.0103 -2.45985e-19)
(0.0113253 3.01896 1.81394e-19)
(0.013375 3.02732 -3.02125e-19)
(1.00794 0.0231618 0)
(1.00787 0.0127495 0)
(0.971086 0.0242709 0)
(0.985561 -0.0221242 0)
(0.988777 -0.00488004 0)
(0.962814 -0.0169736 0)
(0.974415 0.00870143 0)
(0.985655 0.00570792 0)
(0.950499 0.016173 0)
(0.559463 1.07146 1.6138e-19)
(0.3988 1.10003 0)
(0.643576 1.03972 6.21788e-20)
(0.671313 1.16505 4.46383e-19)
(0.701519 1.0445 -2.35275e-19)
(0.649398 0.915585 4.33913e-19)
(0.468971 1.31114 1.07877e-18)
(0.474098 1.19472 2.17498e-19)
(0.689456 0.247629 3.50865e-19)
(0.675906 0.270139 8.55488e-20)
(0.659068 0.228181 1.67685e-19)
(1.26945 0.497461 7.86577e-20)
(1.3109 0.343552 9.3879e-20)
(0.008834 1.66476 1.19901e-19)
(0.0299191 1.64768 0)
(1.06989 0.0291404 0)
(1.05914 0.0159535 0)
(1.022 -0.0165991 0)
(0.0193918 3.06142 0)
(-0.0322348 2.97569 4.33502e-19)
(-0.016562 2.95509 0)
(-0.0438629 2.89374 -4.60856e-19)
(0.0398287 3.07744 9.70715e-20)
(0.0337357 3.0741 0)
(0.479741 1.28086 -1.1692e-19)
(0.844926 2.01909 3.43362e-19)
(0.401585 1.4532 -7.53879e-19)
(0.048977 2.96649 -1.23343e-19)
(0.0610755 2.99074 0)
(0.0124186 2.81504 0)
(0.0153503 1.73202 -2.40303e-21)
(-0.0309543 1.74421 -5.25607e-20)
(0.0160106 1.71769 -2.97002e-21)
(0.261824 1.39526 4.38889e-19)
(0.342862 1.30663 -3.04738e-19)
(0.0461939 1.61432 2.76975e-19)
(0.0879216 1.52209 -3.37755e-19)
(0.0856421 1.49929 3.82639e-20)
(0.0527511 3.08678 -5.62857e-19)
(0.0558486 3.09649 6.37875e-19)
(-0.0342093 2.96911 3.03658e-19)
(-0.0403743 2.93745 -2.48591e-19)
(-0.0525112 2.82645 -3.09405e-19)
(0.0378435 3.06634 -7.1261e-19)
(0.0353014 3.08283 7.86338e-19)
(0.577428 1.27292 0)
(0.627777 1.23649 -1.04711e-18)
(0.623284 1.12422 4.71261e-19)
(0.432877 1.29058 6.00425e-19)
(0.472229 1.23056 -9.36465e-19)
(1.28629 0.157915 1.02121e-20)
(1.27684 0.282622 0)
(1.28874 0.127664 1.75716e-20)
(-0.0122109 1.70218 -9.53423e-22)
(0.0159851 1.7025 0)
(0.000364376 1.6661 0)
(0.315566 1.36429 -1.58287e-19)
(0.38419 1.35083 -3.81293e-19)
(0.390944 1.27145 6.92899e-19)
(1.02059 -0.0664776 0)
(1.00382 -0.0769064 2.4546e-19)
(0.000217476 1.76786 0)
(-0.00657748 1.77388 0)
(0.967416 -0.0151079 6.29597e-21)
(0.985639 -0.0248361 4.73942e-19)
(0.00275032 1.78194 1.65164e-22)
(0.0138191 1.77596 0)
(0.0776671 3.24165 -1.14002e-19)
(0.200248 3.36745 0)
(1.06537 0.692106 -3.12653e-20)
(1.01835 -0.0159118 5.78804e-22)
(1.02504 0.0175233 0)
(1.00378 -0.00885498 -4.92949e-21)
(0.0670196 1.85654 0)
(0.0369219 1.68253 0)
(-0.0138787 1.79283 0)
(0.0305955 1.74849 5.22462e-20)
(0.0252822 1.75105 2.46081e-20)
(0.992966 -0.00838156 -1.51779e-21)
(1.05802 0.00310309 0)
(1.06808 0.033958 0)
(0.0102781 1.7443 0)
(-0.0245386 1.78606 0)
(-0.0102192 1.79036 0)
(0.255652 1.96796 -1.82043e-19)
(0.987131 -0.0587526 0)
(0.975998 -0.0471968 0)
(1.01623 0.00710623 3.15802e-19)
(1.02342 -0.000639195 -3.66985e-19)
(0.991979 0.0141998 0)
(-0.0172073 1.75208 0)
(0.00169591 1.76157 0)
(-0.00469714 1.74199 0)
(-0.0124565 1.78663 0)
(-0.000563072 1.77676 0)
(-0.0104814 1.77956 0)
(1.02568 0.0102889 0)
(1.02436 -0.0171239 -2.61277e-21)
(0.764072 1.64399 2.41454e-19)
(1.03434 -0.0155413 -3.16198e-19)
(1.03666 0.0305173 3.77995e-19)
(0.9948 0.00759593 0)
(1.02061 -0.00728494 2.9617e-19)
(0.974792 -0.021246 -3.82552e-19)
(0.982174 -0.00867101 0)
(-0.012336 1.78745 0)
(0.00345971 1.775 5.58878e-21)
(0.00118186 1.78099 -2.95072e-21)
(1.2077 0.294295 2.32305e-19)
(1.1143 0.0697374 0)
(0.153332 3.0999 -2.36833e-19)
(0.065569 2.87968 -2.3576e-20)
(0.134321 3.25238 -1.31371e-20)
(0.131107 3.273 1.02396e-19)
(0.133094 3.28658 0)
(0.0193531 3.17327 2.46411e-20)
(0.0854807 3.17094 2.34852e-19)
(0.09237 3.23442 -6.27729e-20)
(0.091889 3.12813 0)
(0.70199 0.330077 0)
(0.622459 0.402858 0)
(1.03792 0.728378 7.14703e-20)
(1.1299 0.834502 -6.94261e-20)
(1.12398 0.602508 0)
(1.17947 0.539205 0)
(1.03549 -0.00164943 -5.76808e-19)
(1.02957 -0.00342168 7.2149e-19)
(1.04484 0.0196797 0)
(1.02464 -0.000775035 0)
(0.989891 0.0184313 0)
(1.00663 -0.0082434 0)
(1.03523 -0.0216257 0)
(1.03275 -0.0172719 0)
(1.03848 0.0158393 0)
(1.03901 0.027138 0)
(0.0653774 1.86195 0)
(0.0342032 1.86818 0)
(0.0708457 1.87446 0)
(0.0646473 1.90135 0)
(0.0656485 1.65166 0)
(0.0855598 1.66723 -1.85593e-19)
(0.0213215 1.70874 0)
(0.0244046 1.69872 9.60751e-20)
(0.0135372 1.75137 -9.68555e-20)
(-0.0195005 1.7856 0)
(-0.0220164 1.77974 0)
(0.014235 1.79703 0)
(0.0081889 1.80872 0)
(-0.00173795 1.73903 -3.03851e-20)
(0.0254529 1.74932 2.77422e-20)
(0.0228589 1.7677 3.00013e-20)
(0.0250774 1.77288 0)
(0.00617987 1.77991 -5.26836e-20)
(-0.0158089 1.77626 -3.1004e-20)
(0.00287292 1.73144 2.37314e-20)
(0.0330269 1.74828 -3.57889e-20)
(0.0263201 1.76823 -3.52657e-20)
(0.998245 -0.00599458 5.54738e-19)
(1.00641 -0.00732438 -6.96119e-19)
(0.998143 -0.0043879 -5.65072e-19)
(0.965467 -0.00607794 7.19361e-19)
(1.03599 -0.00861844 0)
(1.0421 -0.0115337 0)
(1.02389 0.0196958 0)
(1.07694 0.0279267 0)
(1.07116 0.026232 0)
(1.04959 0.0487527 0)
(1.08486 0.0339669 0)
(1.08446 0.0386707 0)
(-0.0034195 1.76129 -1.30646e-21)
(0.0247565 1.74442 0)
(0.0144277 1.74264 0)
(-0.0227192 1.78582 7.56075e-21)
(-0.0263212 1.79794 -1.81047e-22)
(-0.00561212 1.72736 3.35029e-21)
(-0.0137616 1.76018 -3.39458e-21)
(0.0145723 1.77165 0)
(0.00865245 1.76055 0)
(-0.00789762 1.76458 0)
(-0.000447166 1.7781 0)
(-0.0134767 1.77138 0)
(0.412005 1.94557 2.87673e-19)
(0.406399 1.95377 1.3567e-19)
(0.269131 1.50456 -1.07262e-19)
(0.158165 1.5136 2.78344e-19)
(0.329197 1.63166 6.25982e-20)
(0.995868 -0.0015829 0)
(0.985564 -0.0223518 0)
(0.998469 0.0101607 0)
(1.03068 -0.0194543 0)
(1.00932 -0.0171459 0)
(0.979483 -0.0154942 0)
(0.962699 0.073185 0)
(1.03374 0.0807375 0)
(1.00758 -0.00674753 5.61525e-19)
(1.01645 0.0157134 -7.13831e-19)
(1.02166 -0.020603 -5.48952e-19)
(1.01647 -0.00892275 7.04136e-19)
(0.760599 1.71457 0)
(0.667167 1.80102 1.82611e-19)
(0.838741 1.47938 5.67402e-20)
(0.855402 1.48081 -7.52297e-20)
(0.901471 1.74857 6.47884e-20)
(0.865318 0.118309 2.75705e-19)
(1.13727 0.102589 0)
(1.09463 0.155939 -1.99422e-19)
(1.14516 0.12721 -8.52976e-21)
(0.953647 0.167612 0)
(0.162273 3.21567 -4.7464e-19)
(0.228057 2.98426 -5.96315e-20)
(0.224415 2.27428 1.65315e-19)
(0.40613 0.311867 2.42262e-20)
(0.133825 3.36176 -3.83907e-19)
(0.114567 3.32592 0)
(0.132222 3.29954 4.70696e-19)
(0.12215 3.24178 9.76185e-19)
(0.148148 3.2766 0)
(0.0333168 3.11463 1.46408e-20)
(0.0592228 3.12601 -1.75483e-19)
(0.0632318 3.12085 2.57952e-19)
(0.0653369 3.1527 0)
(0.0538064 3.17566 0)
(0.897545 1.96178 0)
(0.0603667 0.659238 -1.03549e-19)
(1.02797 1.19857 -1.95283e-21)
(0.947345 1.21306 0)
(0.738687 1.08952 -8.35175e-20)
(0.974714 0.998228 1.90868e-20)
(0.630392 0.550929 1.21631e-20)
(0.69118 0.328485 -1.04481e-20)
(0.678054 0.323122 1.80248e-19)
(0.621157 0.400176 8.60999e-21)
(0.607023 0.406607 -3.39257e-19)
(0.706843 0.345864 0)
(0.687769 0.384542 2.48105e-19)
(0.689599 0.385717 0)
(0.637476 0.380366 0)
(0.651045 0.35236 0)
(0.642092 0.674065 2.02382e-19)
(1.20475 0.335439 -1.59598e-19)
(1.17612 0.389535 0)
(1.18554 0.384079 0)
(0.786196 0.234858 2.86899e-19)
(0.685171 0.49655 -1.64906e-19)
(0.696582 0.453331 3.0002e-19)
(0.849227 0.423862 -3.22138e-19)
(1.00618 0.0335745 3.86742e-19)
(1.02648 0.00605144 -3.95183e-19)
(1.00825 0.0352856 0)
(1.01601 -0.00425059 0)
(1.02054 -0.0380026 -3.80405e-19)
(1.01646 -0.023393 3.71457e-19)
(1.00822 -0.0135153 0)
(0.995094 -0.0089318 0)
(1.02455 -0.00746207 0)
(1.02877 -0.00588647 0)
(1.00763 -0.030198 0)
(1.01278 -0.00303097 0)
(0.0249241 1.85806 0)
(0.0174463 1.84285 0)
(0.038358 1.8164 8.33117e-20)
(0.247102 1.95167 9.23465e-20)
(0.0792333 1.9102 1.89818e-19)
(0.0953644 1.94684 -3.17805e-19)
(0.0856253 1.82978 0)
(0.155948 1.7499 -4.97682e-20)
(0.136073 1.81114 0)
(0.305946 1.70022 -9.03454e-20)
(0.236164 1.65739 3.09935e-19)
(0.16935 1.75047 4.32341e-20)
(0.26808 1.88627 3.3218e-20)
(0.205847 1.83911 -2.67515e-20)
(0.337956 1.77043 -1.66896e-20)
(0.259774 1.72869 0)
(0.294981 1.75016 2.13427e-20)
(0.0202464 1.73993 -2.62382e-20)
(0.0358424 1.75272 0)
(0.097501 1.72674 1.11673e-19)
(0.0444776 1.73144 0)
(0.0499039 1.72525 -1.10476e-19)
(0.0519708 1.75267 0)
(0.0197569 1.7701 -1.08157e-20)
(-0.00878392 1.77557 0)
(0.0195809 1.76014 0)
(0.0363458 1.76176 1.21203e-20)
(0.0143171 1.75197 -6.45555e-22)
(0.000341016 1.75945 1.11202e-19)
(0.00686571 1.75716 7.70058e-22)
(0.00907392 1.72506 1.5611e-20)
(-0.0278673 1.73903 1.32208e-20)
(-0.011823 1.78345 0)
(0.0101065 1.76868 0)
(9.32372e-05 1.76485 6.12606e-20)
(0.0182011 1.73818 5.43153e-20)
(-0.00723035 1.75286 -7.44568e-20)
(0.000854579 1.75811 0)
(-0.0200188 1.77111 -6.76721e-21)
(0.00857298 1.77197 9.71806e-21)
(0.0281469 1.76228 -4.78376e-21)
(0.030251 1.7237 -1.87082e-20)
(-0.0203601 1.73623 -1.26055e-20)
(-0.0023932 1.7701 3.04629e-20)
(1.01438 0.00550163 -3.81286e-19)
(0.994151 0.032498 3.81735e-19)
(0.997379 0.0273977 0)
(0.967216 0.0312821 5.17549e-19)
(0.943187 0.0441768 -5.85753e-19)
(0.917306 0.0568814 6.60796e-19)
(0.976192 0.00975802 -6.60405e-20)
(1.05066 -0.00670931 0)
(1.03796 -0.0285349 3.46967e-19)
(1.03643 -0.0283602 -3.53083e-19)
(0.974371 0.0353014 -1.99036e-20)
(1.01308 0.0306268 1.6832e-19)
(0.969142 0.0615726 0)
(0.974881 0.0298054 -6.32886e-20)
(1.0177 0.0562574 0)
(0.996323 0.0487943 0)
(1.01188 0.0338349 0)
(1.01177 0.0203348 0)
(1.0245 0.0507101 1.27328e-19)
(0.9927 0.0125977 -2.82535e-19)
(0.914898 -0.00457688 -1.33115e-19)
(0.957446 0.0238157 -1.50041e-19)
(1.01667 0.0861399 2.62468e-19)
(1.0672 0.0710741 0)
(1.01007 0.0698739 0)
(-0.0322878 1.76221 -2.35361e-20)
(-0.0257702 1.76972 -4.89164e-22)
(-0.0257235 1.76555 0)
(-0.0169106 1.7777 2.39879e-20)
(0.0115357 1.7668 1.69952e-21)
(-0.000484588 1.77545 -2.21069e-21)
(0.00223096 1.77508 2.1165e-20)
(0.0349247 1.73707 -2.30297e-21)
(0.00390727 1.71968 1.35648e-20)
(-0.0139627 1.80328 -2.09603e-20)
(0.00623978 1.7817 2.5397e-20)
(0.0339941 1.73947 1.93572e-22)
(-0.00249503 1.70992 -1.47154e-21)
(0.388913 1.81165 -1.18348e-19)
(0.341611 1.78316 4.01138e-20)
(0.678995 1.8232 -1.75878e-19)
(0.545973 1.9058 -1.34062e-19)
(0.564914 1.8811 0)
(0.308337 1.50935 1.12357e-19)
(0.336718 1.50967 1.60223e-19)
(0.16531 1.53359 2.51117e-20)
(0.202676 1.52429 -3.64194e-19)
(0.219876 1.52675 3.15137e-19)
(0.23304 1.52782 0)
(0.167053 1.52752 -2.40714e-19)
(0.132521 1.62598 4.72843e-19)
(0.181338 1.57532 -3.30534e-20)
(0.130683 1.62593 -6.30639e-19)
(0.59966 1.46113 6.21004e-19)
(0.494033 1.47479 0)
(1.02854 -0.00656584 1.06943e-20)
(1.05906 0.0719112 -9.09113e-21)
(1.01229 0.00623724 -1.78396e-19)
(0.991493 -0.00155441 1.79647e-19)
(0.9925 0.0298999 0)
(0.631278 1.65767 0)
(0.589991 1.52357 0)
(0.714339 1.3155 0)
(0.525356 1.47631 0)
(0.891962 1.69949 9.66884e-20)
(0.9517 1.57136 0)
(0.635408 1.63501 4.04223e-21)
(0.499887 1.58612 0)
(0.576819 1.53976 -4.09596e-19)
(0.601131 1.57369 2.62959e-19)
(0.874397 0.136382 0)
(0.849668 0.148746 7.49272e-20)
(0.909526 0.0770057 4.18239e-19)
(0.860845 0.105487 -1.53026e-19)
(0.841119 0.0778982 -5.16292e-19)
(0.973811 0.185251 -3.75499e-19)
(0.914775 0.245611 -1.36325e-20)
(0.805558 0.272863 4.00545e-19)
(0.940113 0.209981 3.26406e-19)
(0.911616 0.129144 -5.42262e-19)
(0.894074 0.157075 6.77032e-20)
(0.822447 0.250358 -1.50911e-19)
(0.89698 0.22823 0)
(0.948007 0.177639 2.70197e-19)
(0.936113 0.178989 0)
(0.954285 0.226091 0)
(1.06228 0.162703 1.26205e-19)
(0.962423 0.166801 -4.93549e-22)
(0.968704 0.162625 -7.89524e-20)
(0.976084 0.188909 0)
(1.00874 0.0570076 2.76579e-19)
(1.01679 0.0315211 3.48709e-19)
(1.01895 0.0647887 -2.70622e-19)
(1.02471 0.0559107 -2.35464e-19)
(0.959416 0.0590005 -3.65835e-19)
(0.956755 0.0733725 0)
(0.962558 0.0129026 0)
(0.924617 0.089043 -2.31417e-19)
(0.913445 0.0802511 8.75825e-20)
(1.01219 0.0755554 3.03737e-19)
(0.996667 0.0884548 -3.55869e-19)
(0.984879 0.110692 3.24836e-19)
(0.968258 0.133526 0)
(0.983339 0.0781162 0)
(1.00018 0.0928693 -1.44564e-19)
(1.0037 0.102044 -2.46476e-19)
(0.508556 1.66366 1.71373e-19)
(0.520484 1.81913 -1.93045e-19)
(0.78217 1.89329 -2.01233e-19)
(0.719857 2.41837 -5.94925e-21)
(0.928947 1.90974 2.85484e-20)
(0.90166 2.00391 -1.27698e-19)
(1.01558 1.61931 -3.61447e-20)
(0.731323 2.23956 -3.8721e-20)
(0.816033 2.10453 1.67484e-19)
(0.705534 2.63406 -1.06477e-19)
(0.942831 2.30282 1.20731e-19)
(0.940444 2.31558 0)
(0.0735225 0.851006 -3.01597e-20)
(0.336874 1.78597 -1.92739e-19)
(0.807527 0.348927 5.18446e-20)
(0.724464 0.22939 4.24124e-20)
(0.598467 0.412804 1.8679e-19)
(0.593084 0.400146 -2.47286e-19)
(0.569682 0.368148 1.62863e-19)
(0.64122 0.382916 -5.01195e-20)
(0.581728 0.435177 1.99218e-19)
(0.788243 0.258725 -1.62505e-19)
(0.716517 0.300616 0)
(0.757115 0.261934 6.5409e-21)
(0.622969 0.461352 1.27955e-19)
(0.623195 0.434653 -4.75275e-19)
(0.579593 0.389185 -6.68051e-21)
(0.593176 0.425145 0)
(0.355329 0.808478 1.7294e-19)
(0.6292 0.866446 3.0571e-19)
(0.558719 0.836462 -3.45157e-19)
(0.641801 0.895993 -1.0354e-19)
(0.800843 0.912805 -3.16911e-20)
(0.788639 0.930819 3.22295e-20)
(0.780172 0.602163 -3.42643e-19)
(0.79904 0.700573 9.75912e-20)
(0.870491 0.776966 0)
(0.84824 0.748985 -1.1185e-19)
(0.958958 0.358144 9.14507e-20)
(1.09374 0.287015 1.00081e-19)
(1.0579 0.246091 1.49342e-19)
(0.902928 0.409967 -1.91115e-19)
(0.958319 0.369753 0)
(0.951619 0.387048 0)
(0.865999 0.334967 1.02273e-20)
(0.765608 0.315747 0)
(0.793064 0.310163 1.85555e-19)
(0.867062 0.273164 -1.42688e-20)
(0.853944 0.420409 8.81047e-19)
(0.789183 0.481598 2.64995e-19)
(0.811691 0.471991 -2.51517e-19)
(0.757163 0.37418 2.68669e-19)
(0.71243 0.39508 1.5878e-19)
(0.688882 0.419231 -1.52719e-19)
(0.987018 0.0541534 3.09879e-19)
(0.993363 -0.0537991 0)
(1.007 0.00500899 2.01705e-19)
(0.985306 0.0477254 -4.61376e-19)
(1.01154 -0.0240579 2.23233e-19)
(1.0124 0.0599107 -4.73332e-19)
(1.006 -0.00143387 0)
(0.992363 -0.0346131 -9.99058e-20)
(0.999005 0.041425 2.56114e-19)
(0.97067 0.0180835 -1.32236e-19)
(0.978814 -0.0273581 9.45655e-20)
(0.0213187 1.80638 0)
(0.023562 1.75925 0)
(0.013689 1.82809 0)
(0.00873067 1.8153 0)
(0.0703608 1.73365 3.47487e-20)
(0.0796513 1.76458 -4.33303e-20)
(0.0897416 1.80224 4.31432e-21)
(0.0606059 1.77787 -6.76503e-20)
(0.0474756 1.76119 -2.53995e-20)
(0.0334955 1.77604 1.85518e-20)
(0.0694864 1.7708 -4.20347e-20)
(0.0392106 1.80006 2.65564e-20)
(0.0300681 1.77231 3.40317e-21)
(0.0157974 1.75305 -3.9536e-21)
(0.0906525 1.73226 -1.22089e-19)
(0.0722989 1.71867 0)
(0.0743322 1.70341 7.07595e-20)
(0.110909 1.79685 3.70664e-20)
(0.196609 1.68725 -5.06311e-20)
(0.171189 1.6522 0)
(0.19214 1.63937 -3.14755e-19)
(0.230451 1.65786 2.16061e-19)
(0.122184 1.704 -1.30469e-19)
(0.0834802 1.67231 7.5369e-20)
(0.0595932 1.63489 0)
(0.0134956 1.75022 -6.89933e-20)
(0.0194239 1.74503 -1.02308e-19)
(0.00420032 1.73115 0)
(0.00717091 1.74447 -2.18001e-21)
(0.00689327 1.73391 3.5372e-20)
(-0.000120471 1.79139 -2.06854e-21)
(0.00312293 1.78981 3.10693e-20)
(-0.0109833 1.78765 -2.16788e-20)
(-0.0107423 1.77402 4.05839e-21)
(0.0266479 1.78294 0)
(-0.0066802 1.78786 0)
(-0.0164473 1.77524 5.00946e-21)
(-0.00112017 1.79439 -1.23374e-21)
(0.000562639 1.79131 0)
(0.0116221 1.7838 4.99003e-21)
(-0.0137847 1.77669 -8.95918e-21)
(0.96397 0.0669008 0)
(1.03742 0.109514 -3.10626e-20)
(1.0403 -0.0101689 -1.95105e-19)
(0.984285 -0.0120947 0)
(1.044 0.0432748 0)
(1.03288 -0.0526195 -2.30683e-20)
(0.952095 -0.0214515 3.68036e-19)
(1.01201 0.00315318 4.31012e-19)
(0.99668 0.023251 0)
(0.993492 0.0113991 0)
(1.00014 -0.00491569 2.27436e-19)
(1.00879 0.0157251 0)
(0.992123 0.0208461 0)
(0.0385238 1.78593 0)
(0.00904248 1.70523 -5.11651e-21)
(-0.0213922 1.7862 1.82125e-23)
(-1.36118e-05 1.76827 0)
(0.0135226 1.68 9.97781e-21)
(0.0238399 1.71643 3.00444e-21)
(1.91648e-05 1.76766 0)
(0.39797 1.66293 0)
(0.321597 1.74232 -1.12592e-19)
(0.328009 1.6994 0)
(0.471029 1.77149 6.17214e-20)
(0.46883 1.81756 0)
(0.430432 1.80274 3.64514e-21)
(0.610532 1.52757 -1.31247e-20)
(0.665805 1.47559 -7.15187e-19)
(0.712415 1.47306 8.68875e-19)
(0.497559 1.4972 1.73787e-19)
(0.499881 1.51752 0)
(0.510316 1.50106 0)
(0.562854 1.48203 0)
(0.508996 1.47525 -6.47047e-19)
(0.346251 1.52398 -3.3803e-19)
(0.473853 1.51249 -8.38544e-20)
(0.489584 1.54425 6.81682e-20)
(0.376703 1.49543 0)
(0.473526 1.48707 0)
(0.430794 1.49025 -1.90188e-19)
(0.443938 1.53293 0)
(0.399779 1.50134 0)
(-0.0238033 1.5104 -4.5426e-19)
(0.241778 1.13619 -3.29958e-20)
(0.38848 1.62828 0)
(0.166077 1.68185 7.20287e-19)
(0.648987 0.95601 -1.07549e-19)
(0.656289 1.2219 0)
(0.692549 1.15162 1.48514e-19)
(0.389348 1.34151 0)
(0.446997 1.16038 0)
(0.868129 1.71585 -1.82375e-19)
(0.799931 1.84503 -1.83429e-19)
(0.659967 1.7484 3.32375e-19)
(0.671276 1.70218 -9.91223e-20)
(0.90359 1.6342 0)
(0.831674 1.58028 1.26904e-19)
(0.954683 1.5161 -1.89053e-19)
(0.912463 1.47588 -1.45007e-20)
(0.572678 1.63504 0)
(0.524731 1.67743 -1.46805e-19)
(0.529016 1.63485 0)
(0.868248 0.233939 0)
(0.844672 0.150638 0)
(0.790978 0.183489 0)
(0.837657 0.236675 -2.92476e-19)
(0.788066 0.229204 1.73974e-19)
(0.912031 0.063058 -1.81844e-19)
(0.93132 0.0631354 0)
(0.913707 0.0571304 8.27644e-20)
(0.870888 0.0318453 3.33251e-19)
(0.883103 0.0402045 -2.09063e-19)
(0.623784 2.90212 -4.63001e-19)
(0.658572 2.81503 0)
(0.701433 3.0853 -1.27707e-18)
(0.209973 3.31539 9.81515e-19)
(0.238607 3.01636 3.87894e-19)
(-0.168261 1.1556 -3.65537e-21)
(-0.181818 1.5057 0)
(0.146384 0.489295 1.59986e-20)
(0.224099 0.413099 1.69363e-19)
(0.551566 0.138843 -3.67919e-20)
(0.642332 0.383925 -1.81466e-20)
(0.618826 0.441827 1.31711e-19)
(0.623095 0.45881 0)
(0.48136 0.47145 0)
(0.577526 0.347522 0)
(0.904608 0.609914 4.28088e-20)
(0.759676 0.493313 -2.57625e-19)
(0.759477 0.545542 2.25936e-19)
(0.858014 0.488557 -1.85588e-19)
(1.06537 0.423732 0)
(1.09738 0.558308 -5.0863e-20)
(0.766133 0.338747 -3.73497e-19)
(0.76146 0.337248 -4.66147e-19)
(0.69764 0.405993 2.95445e-19)
(0.736639 0.333572 -2.91285e-19)
(0.758995 0.316151 -2.36199e-19)
(0.750036 0.319358 2.91563e-19)
(1.02617 -0.0245786 -2.29878e-19)
(1.03338 -0.0134113 4.6973e-19)
(0.996365 0.055583 2.92635e-19)
(1.00208 0.0573046 -3.56605e-19)
(0.931197 0.0463196 0)
(0.933128 -0.033185 -5.85034e-19)
(0.0469577 1.77278 1.41339e-20)
(0.033016 1.72619 0)
(0.0621102 1.78303 1.2377e-19)
(0.0933349 1.79183 -1.0404e-19)
(0.059597 1.73773 -7.99761e-21)
(0.0331786 1.68335 0)
(0.0347117 1.72982 0)
(0.0090809 1.79043 4.30674e-21)
(0.00431745 1.76332 -3.89983e-21)
(0.0173646 1.70577 -3.54537e-21)
(0.0591782 1.75161 -5.19868e-21)
(0.0123152 1.72868 1.02314e-20)
(0.533012 1.60976 -4.04278e-19)
(0.503129 1.61701 4.32681e-19)
(0.475889 1.72708 -8.51595e-20)
(0.481256 1.66292 1.71372e-20)
(0.638236 1.67967 0)
(0.579184 1.75687 7.51414e-20)
(0.614003 1.71364 -7.30109e-20)
(0.509802 1.7299 8.21073e-20)
(0.575738 1.63318 0)
(0.568643 1.63983 0)
(0.348371 1.50599 5.15222e-19)
(0.38362 1.48619 7.56668e-19)
(0.402982 1.51965 -5.2166e-19)
(0.285394 1.51355 -9.72469e-20)
(0.32399 1.51344 1.58139e-19)
(0.220612 1.51835 -3.9797e-19)
(0.772959 1.46618 -4.82926e-19)
(0.863152 1.46189 0)
(0.817878 1.46328 -4.86648e-19)
(0.755161 1.53039 0)
(0.718284 1.50594 0)
(-0.0498874 2.73228 9.47792e-20)
(0.412674 2.71339 9.71542e-20)
(0.219829 2.94524 -2.12431e-19)
(0.179622 1.79411 0)
(0.0160013 1.41916 8.79753e-20)
(-0.174843 1.36607 -1.28068e-19)
(-0.0914664 2.73621 0)
(-0.010488 3.00924 -2.8117e-19)
(0.0217107 2.99725 0)
(0.431458 0.554893 -3.7323e-19)
(0.616583 0.692471 5.2783e-19)
(0.622492 0.666397 -5.26115e-19)
(0.486269 0.498852 -3.9035e-20)
(0.628804 0.483851 -1.60923e-19)
(0.303286 2.56045 -7.31845e-20)
(0.384155 2.29476 -1.04662e-19)
(-0.0442334 2.52993 2.77569e-19)
(-0.0825136 2.31144 -2.24934e-19)
(0.509014 1.96982 -4.85287e-19)
(0.507465 2.10734 -1.39385e-19)
(0.581546 1.8478 2.94591e-19)
(0.12154 2.25886 2.04273e-20)
(0.380196 2.08693 1.92721e-19)
)
;

boundaryField
{
    wall-4
    {
        type            noSlip;
    }
    velocity-inlet-5
    {
        type            fixedValue;
        value           uniform (1 0 0);
    }
    velocity-inlet-6
    {
        type            fixedValue;
        value           uniform (0 3 0);
    }
    pressure-outlet-7
    {
        type            zeroGradient;
    }
    wall-8
    {
        type            noSlip;
    }
    frontAndBackPlanes
    {
        type            empty;
    }
}

