/*--------------------------------*- C++ -*----------------------------------*\
  =========                 |
  \\      /  F ield         | OpenFOAM: The Open Source CFD Toolbox
   \\    /   O peration     | Website:  https://openfoam.org
    \\  /    A nd           | Version:  6
     \\/     M anipulation  |
\*---------------------------------------------------------------------------*/
FoamFile
{
    version     2.0;
    format      ascii;
    class       volScalarField;
    location    "0";
    object      p;
}
// * * * * * * * * * * * * * * * * * * * * * * * * * * * * * * * * * * * * * //

dimensions      [0 2 -2 0 0 0 0];

internalField   nonuniform List<scalar> 
13046
(
0.694986
0.679119
0.691721
0.716792
0.698956
0.677889
0.694802
0.681919
0.700633
0.301518
0.134716
0.615406
0.690679
0.619794
0.675428
0.398806
0.610511
0.218641
0.717287
0.702654
0.707611
0.384383
0.613851
0.206488
0.701069
0.707785
0.696061
0.666023
0.625783
0.672593
0.703723
0.647523
0.681493
0.71578
0.709164
0.700965
0.717214
0.714973
0.710853
0.679878
0.672537
0.645901
0.712714
0.726717
0.715693
0.717414
0.710929
0.710691
0.684301
0.672188
0.691075
0.623388
0.660166
0.588984
0.635618
0.566625
0.661361
0.416996
0.577409
0.619655
0.616752
0.566043
0.659423
0.627247
0.34549
0.473903
0.594112
0.432158
0.615749
0.612818
0.454369
0.619134
0.3773
0.557407
0.617889
0.716216
0.71294
0.69078
0.618812
0.518393
0.358382
0.698613
0.69813
0.691809
0.622582
0.301962
0.434403
0.445965
0.630301
0.372444
0.620459
0.380318
0.354263
0.603615
0.581251
0.52079
0.495924
0.64581
0.64573
0.631477
0.453517
0.396271
0.719917
0.710144
0.704498
0.682582
0.607697
0.652176
0.668078
0.659576
0.618391
0.128564
0.610608
-0.0539043
0.694296
0.642803
0.67643
0.574825
0.597865
0.462773
0.635331
0.5066
0.639325
0.265841
0.0840569
0.61311
0.650971
0.55179
0.663123
0.678481
0.670481
0.641965
0.622229
0.409999
0.403128
0.541431
0.445927
0.638814
0.693113
0.633474
0.673025
0.654522
0.658719
0.678225
0.658523
0.642241
0.621265
0.680692
0.630011
0.670829
0.605935
0.534915
0.654205
0.703502
0.669994
0.677862
0.597114
0.561974
0.580746
0.554323
0.654078
0.651464
0.660849
0.623311
0.669767
0.293699
0.615968
0.151856
0.185381
0.611803
-0.00724414
0.526764
0.413872
0.635485
0.673064
0.582405
0.655707
0.665951
0.673793
0.63629
0.619122
0.208921
0.321028
0.675352
0.606148
0.651441
0.699198
0.65423
0.665532
0.667316
0.662871
0.680537
0.605027
0.676508
0.658813
0.582397
0.662969
0.421182
0.626099
0.317774
0.629256
0.451424
0.417956
0.381529
0.341442
0.621971
0.603573
0.5436
0.644396
0.676261
0.528348
0.610547
0.35806
0.293307
0.364827
0.619523
0.712919
0.712789
0.706188
0.671375
0.638035
0.670043
0.628221
0.436375
0.42739
0.661078
0.617133
0.680725
0.61289
0.0632532
0.20465
0.644453
0.541751
0.592241
0.422015
0.384091
0.627358
0.60314
0.606658
0.666963
0.635383
0.56317
0.661297
0.488558
0.465012
0.62419
0.529273
0.555389
0.640938
0.613521
0.0540875
0.170407
0.678332
0.659895
0.600617
0.158994
0.608027
-0.113826
0.708636
0.71183
0.695805
0.611972
0.621632
0.603446
0.617985
0.673413
0.662562
0.610196
0.493126
0.315862
0.651369
0.582835
0.656528
0.52502
0.520699
0.6393
0.551833
0.454697
0.637043
0.717086
0.709534
0.726043
0.581305
0.582567
0.655171
0.651453
0.558342
0.65353
0.662794
0.659452
0.678474
0.647771
0.578075
0.574399
0.559232
0.650929
0.518761
0.633149
0.43161
0.690134
0.661983
0.627321
0.651802
0.544126
0.581752
0.596121
0.484694
0.63238
0.662025
0.627017
0.583034
0.571626
0.564624
0.459964
0.628624
0.445491
0.631407
0.619945
0.239969
0.350122
0.6098
0.532869
0.644011
-0.19547
0.607766
0.0295737
0.699938
0.692871
0.66669
0.634829
0.587636
0.663345
0.629582
0.457642
0.36339
0.622483
0.542928
0.655986
0.460159
0.457364
0.625465
0.651965
0.680658
0.610638
0.578278
0.65968
0.636258
0.684406
0.438322
0.614132
0.262689
0.612951
0.51746
0.645636
0.593072
0.556909
0.652778
0.648125
0.642766
0.679005
0.615804
0.632407
0.671613
0.705934
0.670883
0.694459
0.643284
0.550207
0.590494
0.402223
0.326975
0.626114
0.470499
0.454834
0.631059
0.617207
0.618526
0.499322
0.543363
0.56224
0.430822
0.394148
0.616219
0.622191
0.609397
-0.163624
0.0713177
0.192231
0.607441
-0.0783108
0.595722
0.588963
0.654023
0.623482
0.401868
0.276232
0.605672
0.601587
0.496187
0.473703
0.63307
0.627657
0.615293
0.229116
0.279853
0.131528
0.606277
-0.166478
0.70133
0.720028
0.711331
0.11986
-0.10566
0.610577
0.670482
0.579104
0.647415
0.337261
0.232138
0.619345
-0.175359
0.612412
-0.0694692
0.686807
0.674099
0.6629
0.696667
0.708616
0.703835
0.273918
0.611553
0.0743416
0.688684
0.69431
0.699534
0.707338
0.721905
0.717017
0.648865
0.514621
0.593511
0.684352
0.704332
0.707377
0.706285
0.665638
0.694032
0.628693
0.51299
0.619055
0.613959
0.616636
0.198976
0.191649
0.359685
0.349725
0.359922
0.299469
0.623358
0.625467
0.611841
0.462788
0.670519
0.650121
0.617835
0.514005
0.542711
0.630772
-0.0418167
0.610902
0.0145028
0.620004
0.365476
0.325919
0.213208
0.612559
0.0413168
0.614429
-0.220425
-0.0893747
-0.278601
0.612934
-0.0326583
0.532833
0.555532
0.644343
0.125183
0.612728
0.167861
0.515351
0.437536
0.637864
0.350411
0.603702
0.113137
0.685235
0.68158
0.672378
0.266229
0.617063
0.314869
0.525568
0.633477
0.555373
0.510735
0.523341
0.642225
0.61818
-0.411141
-0.213102
-0.15118
0.608958
-0.00121511
0.697593
0.69251
0.673109
0.215751
0.269878
0.618147
0.614269
0.235046
0.200362
0.400283
0.621376
0.278389
0.613683
0.324742
0.479367
0.641052
0.499631
0.62178
0.439467
0.581099
0.62806
0.610121
0.447823
0.236824
0.665539
0.655232
0.59412
0.571945
0.656988
0.657468
0.668413
0.601663
0.65657
0.620027
0.482034
0.634204
0.491148
0.486193
0.634654
0.279119
0.357851
0.620823
0.632636
0.48323
0.457014
-0.264752
0.611485
0.0101486
0.702528
0.699547
0.685198
0.656895
0.691358
0.666447
0.647718
0.634858
0.6389
0.517898
0.637266
0.557971
-0.146928
0.610783
-0.0615655
0.237772
0.301334
0.619579
0.656226
0.628242
0.578447
0.514257
0.485501
0.630771
0.614494
0.345751
0.499759
-0.0477446
0.0961776
0.61227
0.00179339
0.120314
0.61243
0.609264
0.494742
0.63822
0.693917
0.657323
0.643372
0.373767
0.61917
0.228625
0.513887
0.532258
0.645526
0.630687
0.379656
0.500885
0.641338
0.641921
0.563235
0.614055
0.614804
0.664081
0.680336
0.665119
0.632334
0.618445
0.209395
0.341642
0.549263
0.440158
0.632797
0.698287
0.682549
0.66758
0.412113
0.605188
0.189631
0.672601
0.639219
0.673486
0.683306
0.659567
0.69354
0.533044
0.542026
0.644428
0.254534
0.605838
-0.00730413
0.283606
0.604309
0.0177354
0.627388
0.364938
0.497628
0.58584
0.620377
0.654824
0.603515
-0.070623
0.206916
0.633041
0.39519
0.488076
0.613367
-0.257161
-0.138757
-0.0687329
-0.32741
0.610958
0.614042
0.264093
0.457475
0.615416
0.126185
0.25613
0.404193
0.432234
0.616415
0.234612
0.620012
0.285166
0.474123
0.41061
0.633478
0.638873
0.530544
0.477536
0.71496
0.693057
0.673995
0.500609
0.444418
0.63702
0.637939
0.51443
0.463658
0.470216
0.609847
0.260075
0.637992
0.493834
0.633296
0.654747
0.561749
0.638665
0.561991
0.523975
0.650798
0.550426
0.510662
0.647219
0.703223
0.678146
0.684123
0.650896
0.553794
0.658343
0.616107
0.284158
0.310817
0.100844
0.612028
0.0141992
0.0620469
0.613389
0.00844958
0.676839
0.666094
0.623332
-0.0887281
0.612536
0.0382328
0.525002
0.628918
0.393828
0.610642
-0.0804103
-0.00207776
0.719804
0.704882
0.687057
0.647316
0.599777
0.665059
0.621538
0.593368
0.659954
0.61413
0.156425
0.211314
0.507082
0.538229
0.64234
0.606573
0.387179
0.169563
0.624114
0.580795
0.661661
0.721478
0.701287
0.680304
0.159847
0.23687
0.615069
0.630324
0.371381
0.482105
0.244586
0.209027
0.609889
0.609303
0.0221587
-0.020184
0.633586
0.620495
0.671832
0.55272
0.575041
0.648205
0.686799
0.675282
0.699266
0.0715967
0.147455
0.0809514
0.612474
0.143197
0.611415
0.586016
0.510465
0.650168
0.228928
0.186288
0.132786
0.0916692
0.615892
0.615146
0.579055
0.575524
0.659789
0.657768
0.620377
0.670899
0.322699
0.605819
0.0856206
0.652002
0.600476
0.669077
0.684416
0.648384
0.687038
0.260123
0.606694
0.0292836
0.628368
0.540629
0.652415
0.572904
0.500855
0.634911
0.645327
0.534198
0.635646
0.430223
0.619134
0.415176
0.615063
-0.361735
-0.16604
0.628055
0.594442
0.665142
0.352654
0.611296
0.153609
0.618026
0.507143
0.643531
0.0292692
0.607008
-0.23979
0.692424
0.679229
0.66336
0.661857
0.661743
0.647389
0.693577
0.670857
0.697961
0.684094
0.696872
0.669948
0.665984
0.690254
0.657356
0.643371
0.631725
0.681057
0.661096
0.633943
0.679056
0.610911
0.0400537
0.0852251
0.675785
0.619924
0.658185
0.267192
0.155115
0.61654
0.552272
0.528606
0.498441
0.462318
0.645054
0.639621
0.672185
0.64953
0.667685
0.622932
0.520363
0.634604
0.591609
0.542014
0.65543
0.715721
0.704037
0.701381
0.524778
0.467705
0.640118
0.70274
0.68315
0.682753
0.596843
0.572378
0.659211
0.625244
0.544374
0.636294
0.712984
0.70971
0.694004
0.705741
0.69692
0.69975
0.699316
0.674448
0.703178
0.687757
0.702988
0.666788
0.670554
0.669674
0.610767
0.604143
0.665686
0.659059
0.618352
0.33756
0.493584
0.637524
0.524275
0.585894
0.619424
0.621489
0.303968
0.317691
0.463756
0.46207
0.654545
0.631047
0.558162
0.719404
0.713887
0.711066
0.51596
0.443375
0.638247
0.694432
0.675547
0.640949
0.619059
0.532026
0.636759
0.536988
0.543725
0.382731
0.623752
0.402133
0.626618
0.561869
0.489576
0.643807
0.0709937
-0.187828
0.607655
0.613803
0.527175
0.643932
0.639547
0.644072
0.620386
0.517785
0.634717
0.537184
0.504548
0.47998
0.636269
0.62795
0.541274
0.639476
0.659596
0.624623
0.552631
0.644401
0.659395
0.633596
0.653437
0.580092
0.571817
0.640641
0.639373
0.549961
0.569115
0.506513
0.648272
0.704923
0.687694
0.689504
0.304845
0.611239
0.105703
0.655006
0.62661
0.534741
0.631646
0.615398
0.533954
0.516616
0.6395
0.642899
0.612508
0.149596
0.339363
0.329594
0.608801
0.105545
0.298011
0.609029
0.0776735
0.522148
0.624881
0.37986
0.637742
0.565237
0.645883
0.195827
0.319346
0.542961
0.203388
0.477817
-0.0403876
0.406664
0.28217
0.132409
0.464126
0.459867
0.0968676
0.196485
0.46322
0.297575
0.197175
0.227575
0.275292
0.315552
0.417941
0.337601
0.264109
0.480821
0.601274
0.554749
0.328566
0.494925
0.108539
0.364539
0.18177
0.12472
0.400544
0.329112
0.319672
0.15908
0.347721
0.53128
0.477164
0.24495
0.366792
0.23952
0.611547
0.186765
0.460829
0.508316
0.255244
0.266499
0.208242
0.105394
0.186467
0.557657
0.340825
0.200795
0.247236
0.122648
0.550717
0.419969
0.336699
0.201094
0.450295
0.181426
0.196304
0.555833
0.304589
0.335787
0.423542
0.355172
0.59511
0.479168
0.467873
0.0688801
0.119103
0.246232
0.439753
0.102501
0.318277
0.318867
0.150092
0.4373
0.510812
0.275124
0.322486
0.113615
0.180009
0.24564
0.44985
0.247643
0.220905
0.292276
0.563732
0.197701
0.450825
0.554239
0.323854
0.197784
-0.130523
0.164599
0.213776
0.197048
0.0645543
0.3925
0.4856
0.522892
0.602582
0.186183
0.200032
0.104884
0.21359
0.16782
0.52858
0.49181
0.417369
0.15477
0.117808
0.382167
0.487356
0.276139
0.221021
0.0534571
0.266881
0.314239
0.577159
0.592029
0.443861
0.339776
0.254865
0.100762
0.577049
0.143362
0.436233
0.0583395
0.555602
0.11584
0.125008
0.175318
0.508715
0.305949
0.0155417
0.18177
0.40904
0.190276
0.454344
0.388736
0.209258
0.505602
0.246257
0.170447
0.520385
0.187081
0.283199
0.100186
0.350899
0.241502
0.514407
0.449339
0.265215
0.439623
0.456062
0.53893
0.323168
0.241934
0.203543
0.457025
0.144379
0.366534
0.113518
0.59805
0.270313
0.51745
0.573832
0.345268
0.581922
0.520514
0.536169
0.147579
0.0507438
0.0984312
0.542934
0.147721
0.126002
0.135902
0.129616
0.2798
0.245789
0.350244
0.574251
0.446043
0.239892
0.447466
0.228901
0.605645
0.0877458
0.496592
0.210948
0.0389357
0.560977
0.579006
0.201751
0.214638
0.597133
0.368962
0.24215
0.170252
0.440463
0.528332
0.429259
0.185212
0.202346
0.472124
0.33659
0.168514
0.393751
0.133944
0.137341
0.255783
0.502026
0.0614174
0.270485
0.486428
0.240728
0.0543799
0.266476
0.205085
0.245438
0.389451
0.402233
0.179071
0.120642
0.163582
0.421622
0.422549
0.264162
0.406655
0.253019
0.148809
0.373368
0.240813
0.0326987
0.435777
0.518964
0.352922
0.56712
0.53276
0.608536
0.19836
0.00709227
0.292319
0.264551
0.239812
0.0710506
0.378289
0.55588
0.436926
0.368789
0.173538
0.270267
0.451599
0.334976
0.409285
0.188943
0.294688
0.237025
0.118529
0.177759
0.20997
0.198195
0.151744
0.406718
0.338525
0.267588
0.416015
0.212309
0.281773
0.187213
0.267116
0.232337
0.224124
0.363221
0.0714294
-0.00205548
0.299545
0.0905482
0.056865
0.367791
0.0896501
0.0598925
0.515803
0.412288
0.179735
0.44601
0.132059
0.399632
0.397092
0.142853
0.205166
0.485134
0.297472
0.451749
-0.0454379
0.164805
0.519796
0.229906
0.177301
-0.0269455
0.0736677
0.0431038
0.0821988
0.242526
0.414151
0.14704
0.0441345
0.168022
0.222897
0.605947
0.194017
0.437139
0.373839
0.10992
0.26598
0.175314
0.115469
0.392394
0.254934
0.555039
0.418485
0.175742
0.246914
0.343814
0.600092
0.444218
0.532527
0.449625
0.242873
0.351046
0.279882
0.158956
0.0776969
0.216437
0.23516
0.414668
0.193803
0.0967185
0.202746
0.255541
0.196597
0.223886
0.499479
0.238057
0.21569
0.547843
0.505358
0.176475
0.343788
0.529108
0.18301
0.0808476
0.249616
0.150266
0.115692
0.525382
0.172672
0.271692
0.538637
0.0573641
0.347312
0.191628
0.347705
0.252413
0.205049
-0.112846
0.266887
0.0984372
0.213466
0.257579
0.256186
0.442314
0.553758
0.195124
0.336414
0.257182
0.171632
0.0264741
0.490546
0.38616
0.219458
0.0975054
0.364415
0.0960119
0.208024
0.185413
0.165918
0.480919
0.551773
0.235483
0.436107
0.597319
0.496137
0.496735
0.539841
0.236759
0.22085
0.118747
0.598476
0.484472
0.517524
0.201905
0.243339
0.0484751
0.449585
0.249689
0.186521
0.518082
0.402893
0.153336
0.263123
0.187028
0.200963
0.189798
0.247699
0.268545
0.143402
0.235923
0.0804935
0.266665
0.1453
0.401346
0.320171
0.0616323
0.53129
0.545766
0.446544
0.227303
0.354843
0.0886244
0.462073
0.336277
0.0948505
0.526886
0.0229877
0.557491
0.0882311
0.280322
0.294892
0.443941
0.467411
0.198099
0.574774
0.205222
0.501757
0.280834
0.402198
0.224691
0.186975
0.210411
0.508408
0.290882
0.593289
0.424981
0.0744368
0.197109
0.400862
0.0466918
0.231307
0.282715
0.142861
0.561398
0.155092
0.131291
0.471412
0.210043
0.554567
0.586713
0.253076
0.595056
0.569171
0.504371
0.522793
0.370336
0.105828
0.181691
0.259745
0.488625
0.258995
0.0256393
0.572399
0.147315
0.275901
0.1728
0.537092
0.602963
0.160894
0.497176
0.37259
0.55349
0.269519
0.455363
0.259614
0.573538
0.590192
0.425155
0.179691
0.47299
0.233411
0.34012
0.323485
0.279344
0.375609
0.217097
0.0297036
0.121208
0.291784
0.395434
0.342167
0.521956
0.164078
0.2469
0.397597
0.12495
0.544145
0.18549
0.259552
0.541012
0.510697
0.35592
0.580378
0.182766
0.243372
0.460748
0.318887
0.309097
0.278068
0.212631
0.403353
0.432296
0.213642
0.18818
0.354094
0.0731373
0.139613
0.554961
0.596517
0.593493
0.284788
0.603331
0.600744
0.565637
0.0236884
0.382623
0.375295
0.581868
0.240345
0.194483
0.103564
0.177427
-0.00409356
0.570614
0.293844
0.303893
0.460038
0.425157
0.233425
0.257413
0.600544
0.575392
0.531912
0.421342
0.220823
0.43553
0.404696
0.238026
0.29585
0.122575
0.174557
0.327629
0.306658
0.222895
0.557164
0.554441
0.0299833
0.507847
0.19909
0.189162
0.248797
0.551544
0.268931
0.423811
0.288799
0.535241
0.247773
0.290955
0.588746
0.0478496
0.0699575
0.182893
0.150237
0.000662871
-0.165436
0.16353
0.00815843
0.315487
0.0285064
0.133661
0.30574
0.201301
0.165577
0.232022
0.109273
-0.131319
0.570465
0.509054
0.255182
0.0993759
0.518135
0.227994
0.193977
0.588369
0.173175
0.585224
0.269867
0.515561
0.283101
0.100437
0.126038
0.337957
0.340709
0.316696
0.102864
0.254994
0.138308
0.152855
0.210216
0.0623314
0.115056
0.567816
0.178586
0.432256
0.46735
0.242528
0.488497
0.471073
0.10346
-0.154373
0.281028
0.0787677
0.0074773
0.440955
0.446679
0.256753
0.398238
0.233941
0.589168
0.566907
0.28051
0.222727
0.577404
0.52311
0.389573
0.387076
0.243622
0.593223
0.328163
0.0275604
0.538679
0.495466
0.555956
0.344585
0.18349
0.245076
0.449328
0.39554
-0.240879
0.612546
0.278063
0.178813
0.331293
0.529278
0.590846
0.593838
0.396516
0.302016
0.476095
0.526018
0.547431
0.433299
0.490667
0.119933
0.195474
0.361408
0.119455
0.114673
0.0617307
0.275101
0.472505
0.0798764
0.32764
0.202111
0.503373
0.593932
0.290417
0.105331
0.0489497
0.461615
0.21699
0.171672
0.0540064
0.554407
0.362066
0.375851
0.0881056
0.378176
0.173135
0.191893
0.445334
0.468147
0.559446
0.603871
0.163732
0.529141
0.0307355
0.541534
0.555198
0.555542
0.477965
0.14264
0.142989
0.261239
0.0265
0.32134
0.0582572
0.370932
0.0954447
0.516641
0.243468
0.0408129
0.510648
0.460378
0.287635
0.298107
0.428742
0.551725
0.363748
0.315532
0.0360596
0.495852
0.343553
0.578093
0.00655472
0.309261
0.540217
0.447622
0.580083
0.454512
0.256849
-0.0175022
0.0380598
0.297874
0.0737482
0.569309
0.0304648
0.217591
0.285286
0.173459
0.487165
0.0113957
0.548447
0.451253
0.379597
0.0333072
0.404436
0.176086
0.246928
0.295941
0.28631
0.242287
0.222977
0.475544
0.146544
0.602614
0.234014
0.302496
0.417674
0.44807
0.571406
0.243674
0.271533
0.164667
0.297985
0.218779
0.56411
0.176123
0.323137
0.241713
0.497342
0.193708
0.340866
0.111186
0.594395
0.0231199
0.141192
0.224144
0.504398
0.0464904
0.0611388
0.1336
0.0968512
0.553008
0.313292
0.430599
0.515542
0.411718
0.332884
0.596181
0.320307
0.455055
0.407177
0.33829
0.0616639
0.35126
0.295633
0.219018
0.352793
0.148412
0.0740633
0.341176
0.249919
0.147521
0.490329
0.302461
0.430605
0.289964
0.568843
0.282183
0.276941
0.407093
0.0932408
0.165741
0.242311
0.337475
0.362531
0.396519
0.549118
0.444248
0.486267
0.346105
0.529453
0.572312
0.569279
0.358048
0.320909
0.371583
0.109657
0.583442
0.521634
0.500318
0.316333
0.141976
0.064044
0.372258
0.446925
0.181648
0.498615
0.519781
0.394814
0.199153
0.342707
0.21968
0.183877
0.318632
0.204972
0.376107
0.0543706
0.379697
0.293261
0.281864
0.013836
0.359758
0.331937
0.423739
0.238827
0.366736
0.547187
0.560971
0.378192
0.274207
0.488008
0.340612
0.171204
0.169774
0.273007
0.0885306
0.548428
0.304116
0.354252
0.451413
0.437085
0.396388
0.142053
0.596565
0.404829
0.182897
0.311568
0.326375
0.487478
0.541444
0.407235
0.38277
0.0489252
0.150242
0.282518
0.390704
0.325549
0.378841
0.204065
0.55706
0.386141
0.486112
0.527113
0.357109
0.183423
0.333383
0.580944
0.210888
0.0404153
0.33034
0.589511
0.223773
0.273948
0.477204
0.446243
0.505262
0.312362
0.0530474
0.38844
0.105226
0.231682
0.504961
0.302011
0.116373
0.175994
0.219903
0.402739
0.234895
0.210423
0.533522
0.188302
0.597957
0.500888
0.0979906
-0.0060916
0.305265
0.455506
0.524137
0.309465
0.282796
0.178882
0.263063
0.28369
0.603397
0.540086
0.455168
0.240856
0.0646651
0.559232
0.596036
0.556261
0.487888
0.536862
0.327555
0.113381
0.0210283
0.0418104
0.569558
0.329666
0.16548
0.255108
0.59533
0.242964
0.198944
0.0836225
0.313158
0.163642
0.61243
0.390382
0.449317
0.536063
0.519182
0.266599
0.410777
0.325618
0.434475
0.20014
0.395057
0.203203
0.562805
0.112997
0.225258
0.15764
0.258417
0.545304
0.252196
0.502256
0.529417
0.538079
0.129798
0.322199
0.282681
0.188817
0.554684
0.343817
0.347532
0.385082
-0.0192667
0.259699
0.568834
0.417127
0.558508
0.0312066
0.141625
0.250101
0.56952
0.193662
0.289768
0.150062
0.139912
0.246035
0.579589
0.271662
0.288773
0.0872838
0.60884
0.583445
-0.0150013
0.56908
0.240846
0.131991
0.145581
0.323017
0.081849
0.395489
0.24165
0.228666
0.264062
0.549526
0.310733
0.501588
0.267532
0.129411
0.262108
0.0295119
0.063619
0.295784
0.238834
0.357383
0.146434
0.291068
0.524981
0.387353
0.228989
0.0915674
0.539884
0.313672
0.293081
0.606309
0.35546
0.222525
0.223188
0.149373
0.576767
0.222471
0.297097
0.401279
0.0912293
0.546037
0.123672
0.529982
0.317266
0.469339
0.154584
0.486581
0.287988
0.102272
0.168743
0.315401
0.545676
-0.0111346
0.190315
0.234556
0.572128
0.601083
0.170561
0.21255
0.390102
0.593113
0.278814
0.551822
0.521702
0.497794
0.46914
0.366731
0.426022
0.412683
0.557714
0.292108
0.336865
0.171503
0.203213
0.290037
0.152683
0.577616
0.130543
0.55024
0.281968
0.569239
0.211086
0.585586
0.465617
0.537557
0.570168
0.54649
0.603853
0.267733
0.530987
0.31279
0.248486
0.192284
0.147958
0.558448
0.132462
0.389998
0.403418
0.281055
0.389436
0.196965
0.562591
0.336904
0.478135
0.0183872
0.176522
0.256353
0.619415
0.180765
0.423264
0.210387
0.257351
0.113898
0.2729
0.244089
0.493343
0.56277
0.0797469
0.382019
0.25068
0.218948
0.50956
0.179438
0.200599
0.577267
0.0431706
0.3498
0.44916
0.542227
0.589389
0.211643
0.191414
0.0953025
0.243497
0.190411
0.248397
0.47083
0.233823
0.11186
0.287134
0.322723
0.227931
0.198655
0.232975
0.324708
0.100918
0.48196
0.468102
0.223153
0.478771
0.103899
0.0812541
0.176819
0.0459951
0.578704
0.247825
0.240354
0.200624
0.519473
0.556621
0.356824
0.470956
0.202615
0.182806
0.326189
0.243247
0.186852
0.556974
0.366681
0.423246
0.581403
0.489857
0.305775
0.572122
0.0744749
0.361674
0.355354
0.399968
0.257884
0.571595
0.232328
0.392829
0.309166
0.22663
0.153501
0.19933
0.465795
0.51255
0.533463
0.33278
0.356117
0.570975
0.49162
0.29655
0.35409
0.124563
0.265152
0.498433
0.0775219
0.526135
0.240097
0.539023
0.604075
0.560997
0.228073
0.534826
0.523029
0.065222
0.571373
0.206447
0.566228
0.493294
0.252593
0.144208
0.36741
0.270048
0.24985
0.196963
0.502425
0.226725
0.571997
0.1374
0.213219
0.186027
0.135477
0.24082
0.511691
0.588741
0.131301
0.476674
0.332869
0.393391
0.283139
0.388205
0.550528
0.498654
0.243409
0.542562
0.508396
0.585754
0.134714
0.212185
0.19686
0.472249
0.578594
0.516073
0.297329
0.585247
0.31231
0.0821952
0.142138
-0.0114099
0.297319
0.111435
0.585292
0.598356
0.354577
0.606803
0.501289
0.350553
0.580239
0.121268
0.57139
0.262979
0.556463
0.246358
0.144839
0.466596
0.361036
0.566368
0.54986
0.554179
0.164439
0.161937
0.0569156
0.52825
0.49628
0.168075
0.324863
0.498729
0.0324032
0.211389
0.161145
0.250497
0.38867
0.24539
0.355747
0.466914
0.33868
0.35638
0.470455
0.242957
0.261487
0.388713
0.343375
0.249361
0.531743
0.566693
0.168705
0.493173
0.021213
0.202978
0.539734
0.483107
0.231143
0.559158
0.118963
0.466949
0.269266
0.269858
0.539586
0.250946
0.478682
0.467709
0.433972
0.600496
0.440837
0.0961039
0.408733
0.293477
0.480856
0.601172
0.427502
0.309746
0.185915
0.272154
0.541383
0.129276
0.520341
0.171756
0.375072
0.49046
0.46989
0.330086
0.535773
0.583631
0.255174
0.244845
0.354109
0.159804
0.111407
0.360569
0.467859
0.173891
0.0930278
0.182988
0.0905336
0.462005
0.307569
0.485696
0.207256
0.556274
0.338601
0.522714
0.592137
0.188386
0.547662
0.248877
0.358375
0.328929
0.531769
0.197794
0.275705
0.336133
0.149436
0.251807
0.142163
0.111497
0.0220711
0.579949
0.594097
0.171089
0.207962
0.475327
0.069681
0.178063
0.245065
0.449086
0.461211
0.0562804
0.0185553
0.549907
0.206406
0.390891
0.202941
0.0871536
0.143422
0.367347
0.522879
0.386871
0.0770383
0.557962
0.520458
0.173015
0.388473
0.235841
0.591315
0.256863
0.284359
0.106645
0.430004
0.568893
0.402407
0.364081
0.190992
0.302621
0.392253
0.580641
0.61012
0.195662
0.586434
0.200684
0.370497
0.371518
0.295982
0.230291
0.530407
0.263389
0.363415
0.171184
0.188942
0.270039
0.148618
0.434356
0.557201
0.171426
0.209848
0.361959
0.236357
0.191005
0.0235704
0.234965
0.537171
0.0454495
0.221079
0.458454
0.36218
0.298425
0.423309
0.511525
0.161143
0.166926
0.513133
0.286603
0.158646
0.317123
0.52976
0.42456
0.372189
0.199835
0.19488
0.188546
0.581855
0.515398
0.590008
0.2918
0.443161
0.125124
0.328218
0.524169
0.0780064
0.0903303
0.468098
0.519427
0.0713611
0.218289
0.195861
0.15045
0.193892
0.607758
0.280014
0.212738
0.363583
0.186055
0.464485
0.37653
0.116594
0.221913
0.489501
0.299689
0.583328
0.107234
0.213514
0.413506
0.393559
0.297177
0.393842
0.150343
0.588398
0.578551
0.417596
0.536007
0.178603
0.530321
0.421714
0.410454
0.57264
0.0702122
0.227294
0.59725
0.425376
0.0605278
0.222129
0.512055
0.593616
0.32584
0.4767
0.196173
0.102039
0.167728
0.0521376
0.52414
0.196587
0.339892
0.572379
0.183493
0.164131
0.193703
0.350561
0.210845
0.22955
0.18952
0.132378
0.301482
0.496617
0.568718
0.450486
0.239538
0.225603
0.0469504
0.220337
0.409726
0.386872
0.433399
0.462358
0.226903
0.312244
0.507648
0.522969
0.592487
0.540665
0.576345
0.304387
0.117093
0.167623
0.132306
0.581935
0.351237
0.201362
0.570479
0.125412
0.501564
0.463372
0.224842
0.202749
0.227422
0.202184
0.520173
0.270764
0.450254
0.317046
0.565586
0.382874
0.601177
0.164634
0.319114
0.212146
0.0132402
0.240487
0.485068
0.147184
-0.0421084
0.371141
0.569936
0.482327
0.200283
0.107093
0.173073
0.127733
0.205701
0.129469
0.293818
0.140886
0.470168
0.167272
0.208224
0.566548
0.31144
0.43001
0.511281
0.283248
0.339084
0.159675
0.48612
0.264479
0.230123
0.288232
0.150245
0.100338
0.203847
0.197108
0.480243
0.591522
0.529713
0.375019
0.45661
0.0783755
0.587509
0.377968
0.468374
0.204148
0.459804
0.226327
0.247632
0.500034
0.567301
0.484077
0.378681
0.257709
0.596798
0.252101
0.502171
0.578809
0.438576
0.272177
0.0718976
0.502137
0.366502
0.139291
0.423851
0.358262
0.562099
0.191821
0.573622
0.593121
0.287683
0.167011
0.575843
0.112152
0.146355
0.247632
0.140965
0.235168
0.15275
0.109764
0.314757
0.211098
0.169555
0.227321
0.385458
0.200023
0.18532
0.416584
0.340319
0.091235
0.557142
0.600595
0.579885
0.200369
0.0801355
0.606503
0.100831
0.301234
0.185672
0.247465
0.203151
0.467256
0.237304
0.235755
0.0901611
0.0764244
0.141777
0.240734
0.0668747
0.325282
0.364761
0.31223
0.567041
0.357246
0.427674
0.270745
0.516104
0.242409
0.247631
0.619522
0.24802
0.357995
0.111214
0.440139
0.59389
0.270464
0.398547
0.359506
0.218463
0.193615
0.179785
0.142226
0.473229
0.152444
0.284055
0.235316
0.289245
0.17482
0.182
0.300642
0.262495
0.218803
0.603923
0.306133
0.271086
0.373705
0.565265
0.24955
0.0802117
0.49242
0.114309
0.267711
0.198208
0.308952
0.226219
0.262001
0.309458
0.58716
0.527313
0.0880917
0.217724
0.0762312
0.18742
0.0578215
0.147703
0.240846
0.162521
0.247678
0.413518
0.603206
0.240211
0.460527
0.334374
0.580616
0.234574
0.592967
0.404331
0.124102
0.406595
0.471021
0.244111
0.522764
0.198457
0.535156
0.205492
-0.0200313
0.310546
0.602172
0.592897
0.473204
0.417487
0.4486
0.086978
0.214845
0.44765
0.601352
0.00589155
0.312091
0.199922
0.240499
0.291265
0.174595
0.126264
0.202056
0.145283
0.214407
0.255607
0.289072
0.598856
0.518832
0.0566792
0.494408
0.162186
0.172942
0.502485
0.20361
0.26633
0.434307
0.0477195
0.179239
0.32372
0.528346
0.131061
0.190924
0.262375
0.409474
0.131585
0.56426
0.075862
0.243024
0.264479
0.196989
0.417128
0.413211
0.565494
0.19363
0.480175
0.365455
0.403582
0.193956
0.415517
0.159096
0.118623
0.0352488
0.374886
0.307626
0.265149
0.545376
0.315064
0.368343
0.412265
0.174193
0.149534
0.243964
0.381377
0.205305
0.601743
0.113763
0.0763379
0.2452
0.238649
0.20722
0.192375
0.459558
0.246505
0.318398
0.132343
0.20165
0.312861
0.1305
0.599138
0.594816
0.138268
0.173338
0.522516
0.335072
0.182586
0.106391
0.18146
0.138431
0.361697
0.553857
0.184212
0.0862535
0.412191
0.306019
0.0771782
0.134226
0.303025
0.453433
0.610205
0.122658
0.0736741
0.383146
0.524096
0.272374
0.365501
0.257343
0.198435
0.248414
0.408832
0.302228
0.200731
0.495088
0.260689
0.0383412
0.355411
0.208327
0.500767
0.600258
0.210271
0.237239
0.239358
0.237644
0.122801
0.24985
0.137997
0.570386
0.506211
0.451233
0.243159
0.0938283
0.485939
0.585058
0.184494
0.349619
0.230083
0.0215477
0.332241
0.24433
0.0204682
0.202898
0.41806
0.120975
0.0798683
0.141332
0.521518
0.106857
0.494844
0.296123
0.193628
0.257173
0.16694
0.501563
0.0473498
0.248612
0.279052
0.116946
0.365864
0.448404
0.379497
0.30809
0.478666
0.134525
0.13677
0.550472
0.194999
0.545073
0.384251
0.271007
0.363516
0.530174
0.306223
0.0734917
0.563344
0.18804
0.281566
0.531514
0.178013
0.574546
0.185722
0.263298
0.0575557
0.264921
0.142752
0.320806
0.147438
0.0405886
0.134935
0.132543
0.0277141
0.553554
0.132356
0.257785
0.373873
0.315438
0.587691
0.589199
0.222648
0.315193
0.506382
0.209582
0.555017
0.0411481
0.25679
0.352852
0.188502
0.51157
0.230824
0.240471
0.222547
0.187075
0.190285
0.0435072
0.534478
-0.11499
0.576821
0.452791
0.148765
0.0798724
0.146745
0.612135
0.45424
0.419737
0.301333
0.369074
0.281749
0.531699
0.48674
0.169742
0.399531
0.579623
0.292845
0.345616
0.408054
0.0626074
0.132793
0.506028
0.254916
0.287995
0.574938
0.125696
0.045552
0.199969
0.286488
0.292447
0.599515
0.184668
0.0993287
0.182447
0.283594
0.189872
0.543891
0.305704
0.151358
0.229788
0.184154
0.177705
0.233513
0.403611
0.336638
0.160954
0.542378
0.250379
0.525994
0.16187
0.126086
0.253819
0.535624
0.581125
0.510138
0.323558
0.300636
0.498321
0.590076
0.114808
0.555827
0.140001
0.425817
0.405095
0.542245
0.320494
0.527598
0.561093
0.20793
0.205537
0.258898
0.318446
0.140582
0.165588
0.12809
0.466963
0.512419
0.109162
0.562909
0.320256
0.482647
0.296572
0.151452
0.508486
0.488389
0.233675
0.224729
0.141294
0.592131
0.460149
0.603834
0.110475
0.139634
0.280571
0.518504
0.413092
0.559233
0.34943
0.595116
0.199758
0.272893
0.345988
0.216401
0.388032
0.0901908
0.49827
0.306419
0.350835
0.557228
0.0994716
0.112817
0.0498891
0.3853
0.536616
0.221894
0.417701
0.10175
0.0956703
0.293281
0.206053
0.18614
0.549288
0.329326
0.173834
0.274005
0.378113
0.570312
0.386823
0.264345
0.533916
0.324579
0.577477
0.33394
0.448944
0.266678
0.106542
0.603374
0.15578
0.36566
0.37299
0.551661
0.437755
0.303609
0.206103
0.596455
0.277828
0.15734
0.47238
0.588807
0.460799
0.419147
0.0978819
0.0316032
0.350765
0.165169
0.261411
0.336716
0.160683
0.567521
0.594905
0.561959
0.215274
0.250474
0.188343
0.237784
0.438198
0.126133
0.434481
0.570335
0.116401
0.23748
0.19537
0.512174
0.420108
0.250043
0.168367
0.458835
0.188084
0.0823207
0.133364
0.603789
0.0430545
0.493984
0.401395
0.195808
0.584117
0.36048
0.615246
0.0444755
0.240902
0.35351
0.560055
0.240997
0.554064
0.362113
0.0426806
0.305413
0.20835
0.249008
0.0335668
0.491038
0.239876
0.166233
0.0736534
0.309863
0.553562
-0.0238441
0.224747
0.535058
0.270477
0.528486
0.0355693
0.191226
0.192918
0.279266
0.207952
0.0975657
0.186692
-0.0105557
0.260636
0.263529
0.484204
0.351443
0.537733
0.175899
0.250363
0.101308
0.331208
-0.0107161
0.256477
0.602385
0.291446
0.227316
0.608327
0.162307
0.365905
0.411203
0.0890342
0.215188
0.308482
0.371267
0.56921