/*--------------------------------*- C++ -*----------------------------------*\
  =========                 |
  \\      /  F ield         | OpenFOAM: The Open Source CFD Toolbox
   \\    /   O peration     | Website:  https://openfoam.org
    \\  /    A nd           | Version:  6
     \\/     M anipulation  |
\*---------------------------------------------------------------------------*/
FoamFile
{
    version     2.0;
    format      ascii;
    class       volScalarField;
    location    "0";
    object      p;
}
// * * * * * * * * * * * * * * * * * * * * * * * * * * * * * * * * * * * * * //

dimensions      [0 2 -2 0 0 0 0];

internalField   nonuniform List<scalar> 
10000
(
0
1.19592e-06
1.69271e-06
1.06463e-06
-1.04664e-06
-4.89142e-06
-1.06066e-05
-1.82157e-05
-2.76306e-05
-3.86643e-05
-5.10514e-05
-6.44735e-05
-7.85861e-05
-9.30432e-05
-0.000107518
-0.000121717
-0.000135406
-0.000148371
-0.000160425
-0.000171457
-0.00018141
-0.000190265
-0.000198031
-0.000204741
-0.000210444
-0.0002152
-0.000219078
-0.000222148
-0.000224485
-0.00022616
-0.000227245
-0.000227805
-0.000227902
-0.000227595
-0.000226935
-0.000225971
-0.000224744
-0.000223294
-0.000221656
-0.000219858
-0.000217928
-0.00021589
-0.000213766
-0.000211573
-0.000209329
-0.000207047
-0.000204743
-0.000202428
-0.000200111
-0.000197804
-0.000195514
-0.00019325
-0.000191019
-0.000188827
-0.000186681
-0.000184586
-0.000182547
-0.000180569
-0.000178656
-0.000176812
-0.000175041
-0.000173347
-0.000171734
-0.000170204
-0.000168761
-0.000167408
-0.000166146
-0.000164979
-0.000163912
-0.000162947
-0.000162091
-0.000161348
-0.000160727
-0.000160237
-0.000159889
-0.000159697
-0.00015968
-0.000159858
-0.00016026
-0.000160923
-0.000161891
-0.00016322
-0.000164983
-0.000167268
-0.000170184
-0.000173861
-0.000178453
-0.000184137
-0.00019111
-0.000199577
-0.000209741
-0.000221783
-0.000235823
-0.000251894
-0.000269818
-0.000289031
-0.00030842
-0.000326097
-0.000338631
-0.000342009
-0.00984297
-0.00984141
-0.00984068
-0.00984107
-0.00984285
-0.00984628
-0.00985147
-0.00985848
-0.00986721
-0.00987751
-0.0098891
-0.0099017
-0.00991497
-0.00992858
-0.00994222
-0.0099556
-0.00996848
-0.00998071
-0.00999211
-0.0100025
-0.0100119
-0.0100202
-0.0100275
-0.0100337
-0.010039
-0.0100435
-0.010047
-0.0100498
-0.010052
-0.0100534
-0.0100544
-0.0100548
-0.0100548
-0.0100544
-0.0100537
-0.0100527
-0.0100514
-0.0100499
-0.0100483
-0.0100465
-0.0100446
-0.0100425
-0.0100404
-0.0100383
-0.0100361
-0.0100338
-0.0100316
-0.0100293
-0.010027
-0.0100248
-0.0100225
-0.0100203
-0.0100181
-0.0100159
-0.0100138
-0.0100118
-0.0100098
-0.0100078
-0.0100059
-0.0100041
-0.0100024
-0.0100007
-0.00999912
-0.00999761
-0.00999618
-0.00999483
-0.00999358
-0.00999242
-0.00999136
-0.0099904
-0.00998954
-0.0099888
-0.00998818
-0.00998768
-0.00998733
-0.00998713
-0.0099871
-0.00998726
-0.00998764
-0.00998827
-0.00998918
-0.00999044
-0.0099921
-0.00999424
-0.00999694
-0.0100003
-0.0100045
-0.0100095
-0.0100156
-0.0100228
-0.0100313
-0.0100411
-0.0100522
-0.0100643
-0.0100771
-0.01009
-0.010102
-0.0101117
-0.0101167
-0.0101145
-0.0196853
-0.0196832
-0.0196821
-0.0196821
-0.0196835
-0.0196864
-0.0196912
-0.0196977
-0.0197059
-0.0197157
-0.0197267
-0.0197388
-0.0197515
-0.0197645
-0.0197775
-0.0197902
-0.0198024
-0.019814
-0.0198248
-0.0198346
-0.0198434
-0.0198512
-0.0198579
-0.0198637
-0.0198686
-0.0198726
-0.0198758
-0.0198783
-0.0198802
-0.0198814
-0.0198821
-0.0198823
-0.0198821
-0.0198816
-0.0198808
-0.0198797
-0.0198783
-0.0198768
-0.0198751
-0.0198733
-0.0198713
-0.0198693
-0.0198672
-0.019865
-0.0198628
-0.0198606
-0.0198584
-0.0198561
-0.0198539
-0.0198517
-0.0198495
-0.0198473
-0.0198451
-0.019843
-0.0198409
-0.0198389
-0.0198369
-0.019835
-0.0198332
-0.0198314
-0.0198296
-0.019828
-0.0198264
-0.0198249
-0.0198235
-0.0198221
-0.0198209
-0.0198197
-0.0198187
-0.0198177
-0.0198169
-0.0198161
-0.0198155
-0.019815
-0.0198146
-0.0198144
-0.0198143
-0.0198144
-0.0198147
-0.0198153
-0.0198161
-0.0198173
-0.0198188
-0.0198207
-0.0198231
-0.0198261
-0.0198298
-0.0198341
-0.0198394
-0.0198454
-0.0198524
-0.0198601
-0.0198685
-0.0198772
-0.0198859
-0.0198938
-0.0199002
-0.0199043
-0.0199044
-0.0198994
-0.0295266
-0.0295241
-0.0295226
-0.0295222
-0.0295232
-0.0295258
-0.0295302
-0.0295364
-0.0295443
-0.0295538
-0.0295645
-0.0295762
-0.0295885
-0.029601
-0.0296136
-0.0296258
-0.0296375
-0.0296485
-0.0296586
-0.0296679
-0.0296761
-0.0296833
-0.0296895
-0.0296948
-0.0296992
-0.0297027
-0.0297055
-0.0297076
-0.029709
-0.0297099
-0.0297103
-0.0297103
-0.0297099
-0.0297092
-0.0297082
-0.0297069
-0.0297054
-0.0297038
-0.029702
-0.0297001
-0.0296981
-0.0296961
-0.029694
-0.0296918
-0.0296896
-0.0296874
-0.0296852
-0.0296829
-0.0296807
-0.0296785
-0.0296763
-0.0296742
-0.029672
-0.02967
-0.0296679
-0.0296659
-0.029664
-0.0296621
-0.0296602
-0.0296585
-0.0296567
-0.0296551
-0.0296535
-0.029652
-0.0296506
-0.0296493
-0.0296481
-0.0296469
-0.0296458
-0.0296449
-0.029644
-0.0296432
-0.0296426
-0.0296421
-0.0296417
-0.0296414
-0.0296413
-0.0296413
-0.0296416
-0.0296421
-0.0296428
-0.0296438
-0.0296451
-0.0296468
-0.0296489
-0.0296514
-0.0296546
-0.0296583
-0.0296626
-0.0296676
-0.0296731
-0.0296791
-0.0296853
-0.0296913
-0.0296967
-0.0297009
-0.0297034
-0.0297038
-0.0297011
-0.0296948
-0.0393671
-0.0393643
-0.0393624
-0.0393618
-0.0393624
-0.0393648
-0.039369
-0.039375
-0.0393827
-0.039392
-0.0394025
-0.039414
-0.039426
-0.0394383
-0.0394505
-0.0394624
-0.0394736
-0.0394841
-0.0394936
-0.0395022
-0.0395098
-0.0395164
-0.0395221
-0.0395268
-0.0395306
-0.0395336
-0.0395359
-0.0395375
-0.0395385
-0.039539
-0.0395391
-0.0395387
-0.039538
-0.039537
-0.0395358
-0.0395343
-0.0395327
-0.0395309
-0.039529
-0.0395271
-0.039525
-0.0395229
-0.0395207
-0.0395185
-0.0395163
-0.0395141
-0.0395118
-0.0395096
-0.0395074
-0.0395052
-0.0395031
-0.0395009
-0.0394988
-0.0394967
-0.0394947
-0.0394928
-0.0394908
-0.039489
-0.0394871
-0.0394854
-0.0394837
-0.0394821
-0.0394805
-0.039479
-0.0394776
-0.0394763
-0.0394751
-0.0394739
-0.0394728
-0.0394719
-0.039471
-0.0394702
-0.0394695
-0.039469
-0.0394685
-0.0394682
-0.0394681
-0.039468
-0.0394682
-0.0394686
-0.0394692
-0.03947
-0.0394711
-0.0394725
-0.0394743
-0.0394764
-0.039479
-0.0394821
-0.0394857
-0.0394897
-0.039494
-0.0394985
-0.0395029
-0.0395068
-0.0395098
-0.0395113
-0.0395112
-0.0395091
-0.0395049
-0.0394981
-0.0492067
-0.0492037
-0.0492017
-0.0492007
-0.0492012
-0.0492034
-0.0492075
-0.0492134
-0.0492211
-0.0492304
-0.0492408
-0.0492522
-0.0492641
-0.0492762
-0.0492881
-0.0492996
-0.0493104
-0.0493204
-0.0493294
-0.0493374
-0.0493444
-0.0493504
-0.0493554
-0.0493594
-0.0493627
-0.0493651
-0.0493668
-0.0493679
-0.0493685
-0.0493685
-0.0493682
-0.0493674
-0.0493664
-0.0493651
-0.0493636
-0.0493619
-0.0493601
-0.0493581
-0.0493561
-0.049354
-0.0493518
-0.0493496
-0.0493474
-0.0493451
-0.0493429
-0.0493406
-0.0493384
-0.0493361
-0.0493339
-0.0493318
-0.0493296
-0.0493275
-0.0493254
-0.0493233
-0.0493213
-0.0493194
-0.0493175
-0.0493156
-0.0493138
-0.0493121
-0.0493104
-0.0493088
-0.0493073
-0.0493058
-0.0493044
-0.0493031
-0.0493018
-0.0493007
-0.0492996
-0.0492986
-0.0492977
-0.0492969
-0.0492962
-0.0492956
-0.0492952
-0.0492948
-0.0492946
-0.0492945
-0.0492946
-0.0492948
-0.0492953
-0.0492959
-0.0492968
-0.0492979
-0.0492994
-0.0493012
-0.0493033
-0.0493058
-0.0493086
-0.0493117
-0.049315
-0.0493183
-0.0493213
-0.0493236
-0.0493248
-0.0493245
-0.0493226
-0.0493191
-0.0493142
-0.0493074
-0.0590456
-0.0590425
-0.0590403
-0.0590392
-0.0590396
-0.0590418
-0.0590458
-0.0590518
-0.0590595
-0.0590688
-0.0590794
-0.0590907
-0.0591025
-0.0591144
-0.0591261
-0.0591373
-0.0591477
-0.0591572
-0.0591657
-0.0591731
-0.0591794
-0.0591848
-0.0591891
-0.0591926
-0.0591952
-0.059197
-0.0591981
-0.0591987
-0.0591987
-0.0591983
-0.0591975
-0.0591963
-0.0591949
-0.0591933
-0.0591915
-0.0591896
-0.0591875
-0.0591853
-0.0591831
-0.0591809
-0.0591786
-0.0591762
-0.0591739
-0.0591716
-0.0591693
-0.059167
-0.0591647
-0.0591625
-0.0591603
-0.0591581
-0.0591559
-0.0591538
-0.0591517
-0.0591497
-0.0591477
-0.0591458
-0.0591439
-0.0591421
-0.0591403
-0.0591386
-0.0591369
-0.0591353
-0.0591338
-0.0591323
-0.0591309
-0.0591296
-0.0591284
-0.0591272
-0.0591261
-0.0591251
-0.0591242
-0.0591234
-0.0591227
-0.059122
-0.0591215
-0.0591211
-0.0591208
-0.0591207
-0.0591206
-0.0591208
-0.0591211
-0.0591215
-0.0591222
-0.0591231
-0.0591242
-0.0591256
-0.0591273
-0.0591292
-0.0591314
-0.0591338
-0.0591362
-0.0591385
-0.0591404
-0.0591415
-0.0591414
-0.0591399
-0.0591369
-0.0591326
-0.0591275
-0.0591211
-0.0688838
-0.0688806
-0.0688783
-0.0688772
-0.0688775
-0.0688797
-0.0688839
-0.06889
-0.0688979
-0.0689073
-0.0689179
-0.0689293
-0.0689411
-0.0689528
-0.0689642
-0.0689751
-0.0689851
-0.0689941
-0.0690021
-0.0690089
-0.0690146
-0.0690193
-0.069023
-0.0690258
-0.0690278
-0.069029
-0.0690295
-0.0690295
-0.069029
-0.0690281
-0.0690268
-0.0690253
-0.0690235
-0.0690215
-0.0690194
-0.0690171
-0.0690148
-0.0690124
-0.06901
-0.0690076
-0.0690052
-0.0690027
-0.0690003
-0.0689979
-0.0689955
-0.0689931
-0.0689908
-0.0689886
-0.0689863
-0.0689841
-0.068982
-0.0689799
-0.0689778
-0.0689758
-0.0689738
-0.0689719
-0.06897
-0.0689682
-0.0689664
-0.0689647
-0.0689631
-0.0689615
-0.06896
-0.0689585
-0.0689571
-0.0689558
-0.0689546
-0.0689534
-0.0689523
-0.0689513
-0.0689504
-0.0689496
-0.0689488
-0.0689481
-0.0689476
-0.0689471
-0.0689468
-0.0689465
-0.0689464
-0.0689464
-0.0689465
-0.0689468
-0.0689473
-0.0689479
-0.0689488
-0.0689498
-0.0689511
-0.0689525
-0.0689541
-0.0689559
-0.0689576
-0.068959
-0.06896
-0.0689602
-0.0689592
-0.0689569
-0.0689533
-0.0689488
-0.0689437
-0.0689377
-0.0787213
-0.078718
-0.0787157
-0.0787146
-0.078715
-0.0787173
-0.0787217
-0.078728
-0.0787361
-0.0787457
-0.0787564
-0.0787678
-0.0787795
-0.0787911
-0.0788023
-0.0788127
-0.0788223
-0.0788308
-0.0788383
-0.0788445
-0.0788496
-0.0788536
-0.0788566
-0.0788588
-0.0788601
-0.0788607
-0.0788607
-0.0788601
-0.0788591
-0.0788577
-0.0788559
-0.078854
-0.0788518
-0.0788495
-0.078847
-0.0788445
-0.0788419
-0.0788393
-0.0788367
-0.0788341
-0.0788315
-0.0788289
-0.0788264
-0.0788239
-0.0788214
-0.078819
-0.0788166
-0.0788143
-0.0788121
-0.0788099
-0.0788077
-0.0788056
-0.0788035
-0.0788015
-0.0787995
-0.0787976
-0.0787958
-0.078794
-0.0787923
-0.0787906
-0.0787889
-0.0787874
-0.0787859
-0.0787844
-0.078783
-0.0787817
-0.0787805
-0.0787793
-0.0787782
-0.0787772
-0.0787763
-0.0787754
-0.0787746
-0.0787739
-0.0787733
-0.0787728
-0.0787724
-0.078772
-0.0787718
-0.0787717
-0.0787717
-0.0787718
-0.0787721
-0.0787725
-0.078773
-0.0787737
-0.0787746
-0.0787756
-0.0787767
-0.0787779
-0.078779
-0.0787798
-0.0787801
-0.0787796
-0.078778
-0.0787752
-0.0787713
-0.0787667
-0.0787619
-0.0787565
-0.0885581
-0.0885548
-0.0885525
-0.0885514
-0.088552
-0.0885545
-0.0885591
-0.0885656
-0.088574
-0.0885838
-0.0885947
-0.0886061
-0.0886177
-0.0886291
-0.0886399
-0.08865
-0.0886591
-0.0886671
-0.0886739
-0.0886795
-0.088684
-0.0886874
-0.0886897
-0.0886912
-0.0886919
-0.0886919
-0.0886913
-0.0886902
-0.0886887
-0.0886868
-0.0886846
-0.0886823
-0.0886797
-0.0886771
-0.0886743
-0.0886715
-0.0886687
-0.0886659
-0.088663
-0.0886603
-0.0886575
-0.0886548
-0.0886521
-0.0886495
-0.088647
-0.0886445
-0.0886421
-0.0886398
-0.0886375
-0.0886352
-0.088633
-0.0886309
-0.0886289
-0.0886269
-0.0886249
-0.088623
-0.0886212
-0.0886194
-0.0886177
-0.088616
-0.0886144
-0.0886129
-0.0886114
-0.0886099
-0.0886086
-0.0886073
-0.088606
-0.0886048
-0.0886038
-0.0886027
-0.0886018
-0.0886009
-0.0886001
-0.0885993
-0.0885987
-0.0885981
-0.0885976
-0.0885972
-0.0885969
-0.0885967
-0.0885965
-0.0885965
-0.0885966
-0.0885967
-0.088597
-0.0885974
-0.088598
-0.0885986
-0.0885993
-0.0885999
-0.0886005
-0.0886008
-0.0886005
-0.0885995
-0.0885975
-0.0885945
-0.0885905
-0.088586
-0.0885815
-0.0885767
-0.0983942
-0.0983908
-0.0983886
-0.0983876
-0.0983884
-0.0983911
-0.098396
-0.0984029
-0.0984115
-0.0984215
-0.0984325
-0.0984439
-0.0984553
-0.0984665
-0.098477
-0.0984866
-0.0984951
-0.0985025
-0.0985087
-0.0985137
-0.0985175
-0.0985202
-0.0985219
-0.0985228
-0.0985229
-0.0985223
-0.0985212
-0.0985196
-0.0985176
-0.0985153
-0.0985127
-0.09851
-0.0985071
-0.0985041
-0.0985011
-0.098498
-0.098495
-0.0984919
-0.0984889
-0.098486
-0.0984831
-0.0984803
-0.0984775
-0.0984748
-0.0984722
-0.0984696
-0.0984672
-0.0984648
-0.0984624
-0.0984602
-0.098458
-0.0984559
-0.0984538
-0.0984518
-0.0984499
-0.098448
-0.0984462
-0.0984444
-0.0984427
-0.0984411
-0.0984395
-0.0984379
-0.0984365
-0.0984351
-0.0984337
-0.0984324
-0.0984312
-0.09843
-0.0984289
-0.0984279
-0.0984269
-0.098426
-0.0984252
-0.0984244
-0.0984237
-0.0984231
-0.0984225
-0.098422
-0.0984216
-0.0984213
-0.098421
-0.0984208
-0.0984207
-0.0984207
-0.0984208
-0.0984209
-0.0984211
-0.0984214
-0.0984217
-0.0984219
-0.098422
-0.0984219
-0.0984212
-0.0984199
-0.0984176
-0.0984145
-0.0984105
-0.0984063
-0.0984021
-0.0983977
-0.10823
-0.108226
-0.108224
-0.108223
-0.108224
-0.108227
-0.108232
-0.10824
-0.108248
-0.108259
-0.10827
-0.108281
-0.108292
-0.108303
-0.108313
-0.108322
-0.10833
-0.108337
-0.108342
-0.108347
-0.10835
-0.108352
-0.108353
-0.108353
-0.108353
-0.108352
-0.10835
-0.108348
-0.108346
-0.108343
-0.10834
-0.108337
-0.108334
-0.10833
-0.108327
-0.108324
-0.108321
-0.108317
-0.108314
-0.108311
-0.108308
-0.108305
-0.108302
-0.1083
-0.108297
-0.108294
-0.108292
-0.108289
-0.108287
-0.108285
-0.108283
-0.10828
-0.108278
-0.108276
-0.108274
-0.108273
-0.108271
-0.108269
-0.108267
-0.108266
-0.108264
-0.108263
-0.108261
-0.10826
-0.108258
-0.108257
-0.108256
-0.108255
-0.108254
-0.108253
-0.108252
-0.108251
-0.10825
-0.108249
-0.108248
-0.108248
-0.108247
-0.108246
-0.108246
-0.108246
-0.108245
-0.108245
-0.108245
-0.108244
-0.108244
-0.108244
-0.108244
-0.108244
-0.108244
-0.108244
-0.108244
-0.108243
-0.108242
-0.108241
-0.108238
-0.108235
-0.108231
-0.108227
-0.108223
-0.108219
-0.118064
-0.118061
-0.118058
-0.118058
-0.118059
-0.118063
-0.118068
-0.118076
-0.118085
-0.118095
-0.118106
-0.118117
-0.118128
-0.118139
-0.118148
-0.118157
-0.118164
-0.11817
-0.118175
-0.118178
-0.118181
-0.118182
-0.118183
-0.118183
-0.118182
-0.11818
-0.118178
-0.118175
-0.118173
-0.118169
-0.118166
-0.118163
-0.118159
-0.118156
-0.118153
-0.118149
-0.118146
-0.118142
-0.118139
-0.118136
-0.118133
-0.11813
-0.118127
-0.118124
-0.118121
-0.118118
-0.118116
-0.118113
-0.118111
-0.118109
-0.118107
-0.118104
-0.118102
-0.1181
-0.118098
-0.118097
-0.118095
-0.118093
-0.118091
-0.11809
-0.118088
-0.118087
-0.118085
-0.118084
-0.118083
-0.118081
-0.11808
-0.118079
-0.118078
-0.118077
-0.118076
-0.118075
-0.118074
-0.118073
-0.118073
-0.118072
-0.118071
-0.118071
-0.11807
-0.118069
-0.118069
-0.118069
-0.118068
-0.118068
-0.118067
-0.118067
-0.118067
-0.118067
-0.118066
-0.118066
-0.118065
-0.118065
-0.118063
-0.118061
-0.118059
-0.118056
-0.118052
-0.118048
-0.118045
-0.118041
-0.127898
-0.127894
-0.127892
-0.127892
-0.127893
-0.127897
-0.127903
-0.127911
-0.12792
-0.127931
-0.127942
-0.127953
-0.127963
-0.127973
-0.127982
-0.12799
-0.127996
-0.128002
-0.128006
-0.128009
-0.12801
-0.128011
-0.128011
-0.12801
-0.128009
-0.128007
-0.128004
-0.128001
-0.127998
-0.127995
-0.127992
-0.127988
-0.127984
-0.127981
-0.127977
-0.127973
-0.12797
-0.127966
-0.127963
-0.12796
-0.127957
-0.127953
-0.127951
-0.127948
-0.127945
-0.127942
-0.12794
-0.127937
-0.127935
-0.127932
-0.12793
-0.127928
-0.127926
-0.127924
-0.127922
-0.12792
-0.127919
-0.127917
-0.127915
-0.127914
-0.127912
-0.127911
-0.127909
-0.127908
-0.127907
-0.127905
-0.127904
-0.127903
-0.127902
-0.127901
-0.1279
-0.127899
-0.127898
-0.127897
-0.127896
-0.127896
-0.127895
-0.127894
-0.127894
-0.127893
-0.127892
-0.127892
-0.127891
-0.127891
-0.127891
-0.12789
-0.12789
-0.127889
-0.127889
-0.127888
-0.127887
-0.127886
-0.127885
-0.127883
-0.12788
-0.127877
-0.127874
-0.12787
-0.127867
-0.127864
-0.13773
-0.137727
-0.137725
-0.137725
-0.137727
-0.137731
-0.137737
-0.137745
-0.137755
-0.137765
-0.137776
-0.137786
-0.137797
-0.137806
-0.137814
-0.137821
-0.137827
-0.137832
-0.137835
-0.137837
-0.137838
-0.137839
-0.137838
-0.137837
-0.137835
-0.137832
-0.137829
-0.137826
-0.137823
-0.137819
-0.137816
-0.137812
-0.137808
-0.137804
-0.137801
-0.137797
-0.137793
-0.13779
-0.137786
-0.137783
-0.13778
-0.137777
-0.137774
-0.137771
-0.137768
-0.137765
-0.137763
-0.13776
-0.137758
-0.137756
-0.137753
-0.137751
-0.137749
-0.137747
-0.137745
-0.137744
-0.137742
-0.13774
-0.137739
-0.137737
-0.137735
-0.137734
-0.137733
-0.137731
-0.13773
-0.137729
-0.137728
-0.137727
-0.137725
-0.137724
-0.137723
-0.137722
-0.137722
-0.137721
-0.13772
-0.137719
-0.137718
-0.137718
-0.137717
-0.137716
-0.137716
-0.137715
-0.137715
-0.137714
-0.137713
-0.137713
-0.137712
-0.137712
-0.137711
-0.13771
-0.137709
-0.137708
-0.137706
-0.137704
-0.137702
-0.137699
-0.137695
-0.137692
-0.137689
-0.137686
-0.147562
-0.147558
-0.147557
-0.147557
-0.147559
-0.147563
-0.14757
-0.147578
-0.147588
-0.147598
-0.147609
-0.147619
-0.147628
-0.147637
-0.147645
-0.147651
-0.147656
-0.14766
-0.147662
-0.147664
-0.147664
-0.147664
-0.147663
-0.147661
-0.147659
-0.147656
-0.147653
-0.14765
-0.147646
-0.147643
-0.147639
-0.147635
-0.147631
-0.147627
-0.147623
-0.14762
-0.147616
-0.147613
-0.147609
-0.147606
-0.147602
-0.147599
-0.147596
-0.147593
-0.147591
-0.147588
-0.147585
-0.147583
-0.14758
-0.147578
-0.147576
-0.147574
-0.147572
-0.14757
-0.147568
-0.147566
-0.147565
-0.147563
-0.147561
-0.14756
-0.147558
-0.147557
-0.147556
-0.147554
-0.147553
-0.147552
-0.147551
-0.14755
-0.147549
-0.147548
-0.147547
-0.147546
-0.147545
-0.147544
-0.147543
-0.147542
-0.147542
-0.147541
-0.14754
-0.147539
-0.147539
-0.147538
-0.147537
-0.147537
-0.147536
-0.147535
-0.147535
-0.147534
-0.147533
-0.147532
-0.147531
-0.14753
-0.147528
-0.147526
-0.147523
-0.14752
-0.147517
-0.147514
-0.147511
-0.147508
-0.157392
-0.157389
-0.157387
-0.157388
-0.15739
-0.157395
-0.157402
-0.15741
-0.157419
-0.15743
-0.15744
-0.15745
-0.157459
-0.157467
-0.157473
-0.157479
-0.157483
-0.157486
-0.157488
-0.157489
-0.157489
-0.157488
-0.157487
-0.157484
-0.157482
-0.157479
-0.157476
-0.157472
-0.157468
-0.157465
-0.157461
-0.157457
-0.157453
-0.157449
-0.157445
-0.157442
-0.157438
-0.157434
-0.157431
-0.157428
-0.157424
-0.157421
-0.157418
-0.157415
-0.157413
-0.15741
-0.157407
-0.157405
-0.157403
-0.1574
-0.157398
-0.157396
-0.157394
-0.157392
-0.15739
-0.157389
-0.157387
-0.157385
-0.157384
-0.157382
-0.157381
-0.15738
-0.157378
-0.157377
-0.157376
-0.157375
-0.157374
-0.157372
-0.157371
-0.15737
-0.157369
-0.157369
-0.157368
-0.157367
-0.157366
-0.157365
-0.157364
-0.157364
-0.157363
-0.157362
-0.157361
-0.157361
-0.15736
-0.157359
-0.157359
-0.157358
-0.157357
-0.157356
-0.157355
-0.157354
-0.157353
-0.157351
-0.15735
-0.157347
-0.157345
-0.157342
-0.157339
-0.157336
-0.157333
-0.157331
-0.167221
-0.167218
-0.167217
-0.167217
-0.16722
-0.167225
-0.167232
-0.16724
-0.16725
-0.16726
-0.167269
-0.167279
-0.167287
-0.167294
-0.1673
-0.167305
-0.167308
-0.16731
-0.167312
-0.167312
-0.167311
-0.16731
-0.167308
-0.167306
-0.167303
-0.1673
-0.167297
-0.167293
-0.167289
-0.167285
-0.167282
-0.167278
-0.167274
-0.16727
-0.167266
-0.167263
-0.167259
-0.167256
-0.167252
-0.167249
-0.167246
-0.167243
-0.16724
-0.167237
-0.167234
-0.167232
-0.167229
-0.167227
-0.167224
-0.167222
-0.16722
-0.167218
-0.167216
-0.167214
-0.167212
-0.167211
-0.167209
-0.167208
-0.167206
-0.167205
-0.167203
-0.167202
-0.167201
-0.167199
-0.167198
-0.167197
-0.167196
-0.167195
-0.167194
-0.167193
-0.167192
-0.167191
-0.16719
-0.167189
-0.167188
-0.167188
-0.167187
-0.167186
-0.167185
-0.167185
-0.167184
-0.167183
-0.167183
-0.167182
-0.167181
-0.16718
-0.167179
-0.167178
-0.167177
-0.167176
-0.167175
-0.167173
-0.167171
-0.167169
-0.167167
-0.167164
-0.167161
-0.167158
-0.167156
-0.167153
-0.177049
-0.177046
-0.177045
-0.177046
-0.177049
-0.177054
-0.177061
-0.177069
-0.177078
-0.177088
-0.177097
-0.177106
-0.177113
-0.17712
-0.177125
-0.177129
-0.177131
-0.177133
-0.177134
-0.177133
-0.177132
-0.177131
-0.177129
-0.177126
-0.177123
-0.17712
-0.177116
-0.177113
-0.177109
-0.177105
-0.177102
-0.177098
-0.177094
-0.17709
-0.177087
-0.177083
-0.17708
-0.177076
-0.177073
-0.17707
-0.177067
-0.177064
-0.177061
-0.177058
-0.177055
-0.177053
-0.17705
-0.177048
-0.177046
-0.177044
-0.177042
-0.17704
-0.177038
-0.177036
-0.177034
-0.177032
-0.177031
-0.177029
-0.177028
-0.177026
-0.177025
-0.177024
-0.177023
-0.177021
-0.17702
-0.177019
-0.177018
-0.177017
-0.177016
-0.177015
-0.177014
-0.177013
-0.177012
-0.177012
-0.177011
-0.17701
-0.177009
-0.177008
-0.177008
-0.177007
-0.177006
-0.177005
-0.177005
-0.177004
-0.177003
-0.177002
-0.177002
-0.177001
-0.176999
-0.176998
-0.176997
-0.176995
-0.176993
-0.176991
-0.176988
-0.176986
-0.176983
-0.17698
-0.176978
-0.176976
-0.186876
-0.186873
-0.186872
-0.186873
-0.186876
-0.186881
-0.186888
-0.186897
-0.186905
-0.186914
-0.186923
-0.186931
-0.186937
-0.186943
-0.186947
-0.186951
-0.186953
-0.186954
-0.186954
-0.186953
-0.186952
-0.18695
-0.186948
-0.186945
-0.186942
-0.186939
-0.186935
-0.186932
-0.186928
-0.186924
-0.186921
-0.186917
-0.186913
-0.18691
-0.186906
-0.186903
-0.1869
-0.186896
-0.186893
-0.18689
-0.186887
-0.186884
-0.186881
-0.186879
-0.186876
-0.186874
-0.186871
-0.186869
-0.186867
-0.186865
-0.186863
-0.186861
-0.186859
-0.186857
-0.186855
-0.186854
-0.186852
-0.186851
-0.186849
-0.186848
-0.186847
-0.186845
-0.186844
-0.186843
-0.186842
-0.186841
-0.18684
-0.186839
-0.186838
-0.186837
-0.186836
-0.186835
-0.186834
-0.186833
-0.186833
-0.186832
-0.186831
-0.18683
-0.18683
-0.186829
-0.186828
-0.186828
-0.186827
-0.186826
-0.186825
-0.186824
-0.186824
-0.186823
-0.186821
-0.18682
-0.186819
-0.186817
-0.186815
-0.186813
-0.18681
-0.186808
-0.186805
-0.186802
-0.1868
-0.186798
-0.196701
-0.196699
-0.196698
-0.196699
-0.196702
-0.196708
-0.196714
-0.196722
-0.196731
-0.196739
-0.196747
-0.196754
-0.19676
-0.196765
-0.196768
-0.196771
-0.196772
-0.196772
-0.196772
-0.196771
-0.19677
-0.196768
-0.196765
-0.196763
-0.19676
-0.196756
-0.196753
-0.19675
-0.196746
-0.196743
-0.196739
-0.196736
-0.196732
-0.196729
-0.196725
-0.196722
-0.196719
-0.196716
-0.196713
-0.19671
-0.196707
-0.196704
-0.196701
-0.196699
-0.196696
-0.196694
-0.196692
-0.19669
-0.196687
-0.196685
-0.196683
-0.196682
-0.19668
-0.196678
-0.196676
-0.196675
-0.196673
-0.196672
-0.196671
-0.196669
-0.196668
-0.196667
-0.196666
-0.196664
-0.196663
-0.196662
-0.196661
-0.19666
-0.196659
-0.196658
-0.196658
-0.196657
-0.196656
-0.196655
-0.196654
-0.196654
-0.196653
-0.196652
-0.196651
-0.196651
-0.19665
-0.196649
-0.196649
-0.196648
-0.196647
-0.196646
-0.196645
-0.196644
-0.196643
-0.196642
-0.196641
-0.196639
-0.196637
-0.196635
-0.196632
-0.196629
-0.196627
-0.196624
-0.196622
-0.19662
-0.206525
-0.206523
-0.206522
-0.206524
-0.206527
-0.206532
-0.206539
-0.206546
-0.206554
-0.206562
-0.206569
-0.206575
-0.20658
-0.206584
-0.206587
-0.206589
-0.20659
-0.20659
-0.206589
-0.206588
-0.206586
-0.206584
-0.206582
-0.206579
-0.206576
-0.206573
-0.20657
-0.206567
-0.206563
-0.20656
-0.206557
-0.206553
-0.20655
-0.206547
-0.206544
-0.206541
-0.206538
-0.206535
-0.206532
-0.206529
-0.206526
-0.206524
-0.206521
-0.206519
-0.206516
-0.206514
-0.206512
-0.20651
-0.206508
-0.206506
-0.206504
-0.206502
-0.2065
-0.206499
-0.206497
-0.206496
-0.206494
-0.206493
-0.206492
-0.20649
-0.206489
-0.206488
-0.206487
-0.206486
-0.206485
-0.206483
-0.206483
-0.206482
-0.206481
-0.20648
-0.206479
-0.206478
-0.206477
-0.206476
-0.206476
-0.206475
-0.206474
-0.206474
-0.206473
-0.206472
-0.206472
-0.206471
-0.20647
-0.20647
-0.206469
-0.206468
-0.206467
-0.206466
-0.206465
-0.206464
-0.206462
-0.206461
-0.206458
-0.206456
-0.206454
-0.206451
-0.206448
-0.206446
-0.206444
-0.206442
-0.216348
-0.216346
-0.216346
-0.216347
-0.21635
-0.216355
-0.216362
-0.216369
-0.216376
-0.216383
-0.21639
-0.216395
-0.216399
-0.216402
-0.216405
-0.216406
-0.216406
-0.216406
-0.216405
-0.216404
-0.216402
-0.2164
-0.216398
-0.216395
-0.216392
-0.216389
-0.216386
-0.216383
-0.21638
-0.216377
-0.216374
-0.216371
-0.216368
-0.216365
-0.216362
-0.216359
-0.216356
-0.216353
-0.216351
-0.216348
-0.216345
-0.216343
-0.216341
-0.216338
-0.216336
-0.216334
-0.216332
-0.21633
-0.216328
-0.216326
-0.216324
-0.216322
-0.216321
-0.216319
-0.216318
-0.216316
-0.216315
-0.216313
-0.216312
-0.216311
-0.21631
-0.216309
-0.216308
-0.216306
-0.216305
-0.216304
-0.216303
-0.216303
-0.216302
-0.216301
-0.2163
-0.216299
-0.216298
-0.216298
-0.216297
-0.216296
-0.216295
-0.216295
-0.216294
-0.216294
-0.216293
-0.216292
-0.216292
-0.216291
-0.21629
-0.21629
-0.216289
-0.216288
-0.216287
-0.216285
-0.216284
-0.216282
-0.21628
-0.216278
-0.216275
-0.216273
-0.21627
-0.216268
-0.216266
-0.216264
-0.22617
-0.226168
-0.226168
-0.226169
-0.226172
-0.226177
-0.226183
-0.22619
-0.226196
-0.226203
-0.226208
-0.226213
-0.226217
-0.226219
-0.226221
-0.226222
-0.226222
-0.226221
-0.22622
-0.226219
-0.226217
-0.226215
-0.226213
-0.22621
-0.226208
-0.226205
-0.226202
-0.226199
-0.226196
-0.226194
-0.226191
-0.226188
-0.226185
-0.226182
-0.226179
-0.226177
-0.226174
-0.226171
-0.226169
-0.226167
-0.226164
-0.226162
-0.22616
-0.226157
-0.226155
-0.226153
-0.226151
-0.226149
-0.226148
-0.226146
-0.226144
-0.226142
-0.226141
-0.226139
-0.226138
-0.226137
-0.226135
-0.226134
-0.226133
-0.226131
-0.22613
-0.226129
-0.226128
-0.226127
-0.226126
-0.226125
-0.226124
-0.226123
-0.226122
-0.226121
-0.226121
-0.22612
-0.226119
-0.226118
-0.226118
-0.226117
-0.226116
-0.226116
-0.226115
-0.226114
-0.226114
-0.226113
-0.226113
-0.226112
-0.226111
-0.226111
-0.22611
-0.226109
-0.226108
-0.226107
-0.226105
-0.226103
-0.226101
-0.226099
-0.226097
-0.226094
-0.226091
-0.226089
-0.226087
-0.226086
-0.23599
-0.235988
-0.235988
-0.23599
-0.235993
-0.235997
-0.236003
-0.236009
-0.236015
-0.236021
-0.236026
-0.236029
-0.236032
-0.236034
-0.236036
-0.236036
-0.236036
-0.236035
-0.236034
-0.236033
-0.236031
-0.236029
-0.236027
-0.236025
-0.236022
-0.23602
-0.236017
-0.236015
-0.236012
-0.23601
-0.236007
-0.236004
-0.236002
-0.235999
-0.235997
-0.235994
-0.235992
-0.235989
-0.235987
-0.235985
-0.235983
-0.23598
-0.235978
-0.235976
-0.235974
-0.235972
-0.235971
-0.235969
-0.235967
-0.235965
-0.235964
-0.235962
-0.235961
-0.235959
-0.235958
-0.235957
-0.235955
-0.235954
-0.235953
-0.235952
-0.235951
-0.235949
-0.235948
-0.235947
-0.235946
-0.235945
-0.235945
-0.235944
-0.235943
-0.235942
-0.235941
-0.23594
-0.23594
-0.235939
-0.235938
-0.235938
-0.235937
-0.235936
-0.235936
-0.235935
-0.235935
-0.235934
-0.235933
-0.235933
-0.235932
-0.235932
-0.235931
-0.23593
-0.235929
-0.235928
-0.235926
-0.235924
-0.235922
-0.23592
-0.235918
-0.235915
-0.235913
-0.23591
-0.235909
-0.235907
-0.245809
-0.245808
-0.245808
-0.245809
-0.245812
-0.245816
-0.245822
-0.245827
-0.245832
-0.245837
-0.245841
-0.245845
-0.245847
-0.245849
-0.245849
-0.245849
-0.245849
-0.245848
-0.245847
-0.245846
-0.245844
-0.245843
-0.245841
-0.245839
-0.245837
-0.245835
-0.245832
-0.24583
-0.245828
-0.245825
-0.245823
-0.245821
-0.245818
-0.245816
-0.245814
-0.245811
-0.245809
-0.245807
-0.245805
-0.245803
-0.245801
-0.245799
-0.245797
-0.245795
-0.245793
-0.245791
-0.24579
-0.245788
-0.245786
-0.245785
-0.245783
-0.245782
-0.24578
-0.245779
-0.245778
-0.245776
-0.245775
-0.245774
-0.245773
-0.245772
-0.24577
-0.245769
-0.245768
-0.245767
-0.245766
-0.245766
-0.245765
-0.245764
-0.245763
-0.245762
-0.245761
-0.245761
-0.24576
-0.245759
-0.245758
-0.245758
-0.245757
-0.245757
-0.245756
-0.245755
-0.245755
-0.245754
-0.245754
-0.245753
-0.245753
-0.245752
-0.245752
-0.245751
-0.24575
-0.245748
-0.245747
-0.245745
-0.245743
-0.245741
-0.245738
-0.245736
-0.245733
-0.245731
-0.24573
-0.245728
-0.255628
-0.255626
-0.255626
-0.255628
-0.25563
-0.255634
-0.255639
-0.255644
-0.255649
-0.255653
-0.255656
-0.255659
-0.255661
-0.255662
-0.255662
-0.255662
-0.255662
-0.255661
-0.25566
-0.255659
-0.255658
-0.255656
-0.255655
-0.255653
-0.255651
-0.255649
-0.255647
-0.255645
-0.255643
-0.255641
-0.255639
-0.255637
-0.255635
-0.255632
-0.25563
-0.255628
-0.255626
-0.255624
-0.255622
-0.25562
-0.255619
-0.255617
-0.255615
-0.255613
-0.255612
-0.25561
-0.255608
-0.255607
-0.255605
-0.255604
-0.255602
-0.255601
-0.2556
-0.255598
-0.255597
-0.255596
-0.255595
-0.255593
-0.255592
-0.255591
-0.25559
-0.255589
-0.255588
-0.255587
-0.255586
-0.255585
-0.255584
-0.255584
-0.255583
-0.255582
-0.255581
-0.25558
-0.25558
-0.255579
-0.255578
-0.255578
-0.255577
-0.255577
-0.255576
-0.255575
-0.255575
-0.255575
-0.255574
-0.255574
-0.255573
-0.255572
-0.255572
-0.255571
-0.25557
-0.255569
-0.255567
-0.255566
-0.255564
-0.255561
-0.255559
-0.255556
-0.255554
-0.255552
-0.25555
-0.255549
-0.265445
-0.265444
-0.265444
-0.265445
-0.265448
-0.265451
-0.265455
-0.26546
-0.265464
-0.265467
-0.26547
-0.265472
-0.265474
-0.265474
-0.265474
-0.265474
-0.265474
-0.265474
-0.265473
-0.265472
-0.265471
-0.26547
-0.265468
-0.265467
-0.265465
-0.265463
-0.265462
-0.26546
-0.265458
-0.265456
-0.265454
-0.265452
-0.265451
-0.265449
-0.265447
-0.265445
-0.265443
-0.265441
-0.26544
-0.265438
-0.265436
-0.265435
-0.265433
-0.265431
-0.26543
-0.265428
-0.265427
-0.265425
-0.265424
-0.265423
-0.265421
-0.26542
-0.265419
-0.265417
-0.265416
-0.265415
-0.265414
-0.265413
-0.265412
-0.265411
-0.26541
-0.265409
-0.265408
-0.265407
-0.265406
-0.265405
-0.265404
-0.265403
-0.265402
-0.265401
-0.265401
-0.2654
-0.265399
-0.265399
-0.265398
-0.265397
-0.265397
-0.265396
-0.265396
-0.265395
-0.265395
-0.265394
-0.265394
-0.265393
-0.265393
-0.265392
-0.265392
-0.265391
-0.26539
-0.265389
-0.265387
-0.265386
-0.265384
-0.265381
-0.265379
-0.265376
-0.265374
-0.265372
-0.26537
-0.265369
-0.275261
-0.27526
-0.27526
-0.275261
-0.275264
-0.275267
-0.275271
-0.275274
-0.275278
-0.275281
-0.275283
-0.275285
-0.275286
-0.275286
-0.275286
-0.275286
-0.275286
-0.275286
-0.275285
-0.275284
-0.275283
-0.275283
-0.275281
-0.27528
-0.275279
-0.275277
-0.275276
-0.275275
-0.275273
-0.275271