/*--------------------------------*- C++ -*----------------------------------*\
  =========                 |
  \\      /  F ield         | OpenFOAM: The Open Source CFD Toolbox
   \\    /   O peration     | Website:  https://openfoam.org
    \\  /    A nd           | Version:  6
     \\/     M anipulation  |
\*---------------------------------------------------------------------------*/
FoamFile
{
    version     2.0;
    format      ascii;
    class       volScalarField;
    location    "0";
    object      T;
}
// * * * * * * * * * * * * * * * * * * * * * * * * * * * * * * * * * * * * * //

dimensions      [0 0 0 1 0 0 0];

internalField   nonuniform List<scalar> 
10000
(
298.915
298.946
298.976
299.004
299.031
299.056
299.079
299.101
299.122
299.141
299.159
299.176
299.192
299.206
299.22
299.233
299.245
299.257
299.268
299.278
299.287
299.297
299.305
299.314
299.321
299.329
299.336
299.342
299.349
299.354
299.36
299.365
299.37
299.374
299.378
299.381
299.385
299.387
299.39
299.392
299.394
299.396
299.398
299.399
299.4
299.401
299.401
299.402
299.403
299.403
299.403
299.404
299.404
299.404
299.404
299.405
299.405
299.405
299.406
299.406
299.406
299.407
299.407
299.408
299.409
299.409
299.41
299.411
299.412
299.413
299.415
299.416
299.418
299.419
299.421
299.424
299.426
299.429
299.433
299.437
299.442
299.448
299.456
299.465
299.476
299.489
299.507
299.529
299.557
299.594
299.641
299.703
299.784
299.89
300.027
300.204
300.426
300.697
301.015
301.367
298.916
298.947
298.977
299.006
299.033
299.059
299.083
299.105
299.126
299.145
299.163
299.18
299.195
299.21
299.224
299.236
299.248
299.26
299.27
299.28
299.29
299.299
299.307
299.316
299.323
299.331
299.337
299.344
299.35
299.356
299.361
299.366
299.371
299.375
299.379
299.383
299.386
299.389
299.391
299.393
299.395
299.397
299.399
299.4
299.401
299.402
299.402
299.403
299.404
299.404
299.404
299.405
299.405
299.405
299.405
299.405
299.406
299.406
299.406
299.407
299.407
299.407
299.408
299.409
299.409
299.41
299.411
299.412
299.413
299.414
299.415
299.416
299.418
299.42
299.422
299.424
299.426
299.429
299.433
299.437
299.442
299.448
299.455
299.463
299.474
299.487
299.504
299.525
299.552
299.586
299.632
299.691
299.769
299.872
300.007
300.181
300.403
300.678
301.002
301.362
298.917
298.949
298.981
299.011
299.039
299.066
299.091
299.114
299.135
299.155
299.174
299.19
299.206
299.221
299.234
299.246
299.258
299.269
299.279
299.288
299.297
299.306
299.314
299.322
299.329
299.336
299.343
299.349
299.355
299.36
299.365
299.37
299.374
299.379
299.382
299.386
299.389
299.392
299.394
299.396
299.398
299.4
299.401
299.402
299.403
299.404
299.405
299.405
299.406
299.406
299.406
299.407
299.407
299.407
299.407
299.407
299.407
299.408
299.408
299.408
299.408
299.409
299.409
299.41
299.41
299.411
299.412
299.413
299.414
299.415
299.416
299.417
299.419
299.42
299.422
299.424
299.427
299.43
299.433
299.437
299.442
299.447
299.454
299.462
299.472
299.484
299.499
299.519
299.544
299.577
299.62
299.677
299.752
299.852
299.984
300.158
300.382
300.66
300.99
301.358
298.918
298.953
298.987
299.019
299.05
299.078
299.105
299.13
299.152
299.173
299.192
299.21
299.225
299.24
299.253
299.265
299.276
299.286
299.295
299.303
299.312
299.319
299.327
299.334
299.34
299.346
299.352
299.358
299.363
299.368
299.373
299.377
299.381
299.385
299.388
299.391
299.394
299.397
299.399
299.401
299.403
299.404
299.406
299.407
299.408
299.408
299.409
299.409
299.409
299.41
299.41
299.41
299.41
299.41
299.41
299.41
299.41
299.41
299.41
299.411
299.411
299.411
299.412
299.412
299.412
299.413
299.414
299.415
299.415
299.416
299.418
299.419
299.42
299.422
299.424
299.426
299.428
299.431
299.434
299.437
299.441
299.447
299.453
299.46
299.469
299.481
299.495
299.514
299.538
299.569
299.61
299.665
299.738
299.836
299.968
300.142
300.368
300.65
300.984
301.356
298.919
298.958
298.995
299.03
299.064
299.095
299.125
299.151
299.176
299.198
299.219
299.237
299.253
299.267
299.28
299.292
299.302
299.311
299.319
299.327
299.333
299.34
299.346
299.352
299.357
299.362
299.367
299.372
299.376
299.38
299.384
299.388
299.391
299.394
299.397
299.4
299.402
299.405
299.407
299.408
299.41
299.411
299.412
299.413
299.413
299.414
299.414
299.414
299.414
299.414
299.414
299.414
299.414
299.414
299.414
299.414
299.414
299.414
299.414
299.414
299.414
299.414
299.414
299.415
299.415
299.416
299.416
299.417
299.418
299.419
299.42
299.421
299.422
299.424
299.425
299.427
299.429
299.432
299.435
299.438
299.442
299.447
299.452
299.459
299.468
299.479
299.492
299.51
299.532
299.562
299.602
299.656
299.728
299.826
299.958
300.134
300.362
300.646
300.983
301.357
298.921
298.964
299.005
299.044
299.081
299.116
299.149
299.178
299.205
299.229
299.251
299.27
299.287
299.302
299.315
299.326
299.336
299.344
299.351
299.357
299.363
299.368
299.372
299.377
299.381
299.384
299.388
299.391
299.394
299.397
299.4
299.403
299.405
299.407
299.41
299.412
299.413
299.415
299.416
299.418
299.419
299.419
299.42
299.42
299.421
299.421
299.421
299.421
299.421
299.421
299.42
299.42
299.42
299.419
299.419
299.419
299.419
299.418
299.418
299.418
299.418
299.418
299.418
299.419
299.419
299.419
299.42
299.42
299.421
299.422
299.423
299.424
299.425
299.426
299.428
299.43
299.432
299.434
299.437
299.44
299.443
299.448
299.453
299.459
299.467
299.477
299.49
299.507
299.529
299.559
299.598
299.651
299.724
299.822
299.956
300.133
300.363
300.649
300.986
301.358
298.923
298.97
299.016
299.059
299.101
299.14
299.175
299.208
299.238
299.265
299.288
299.309
299.327
299.342
299.355
299.366
299.376
299.383
299.389
299.394
299.398
299.402
299.405
299.407
299.41
299.412
299.414
299.415
299.417
299.419
299.42
299.422
299.423
299.424
299.425
299.426
299.427
299.428
299.429
299.429
299.43
299.43
299.43
299.43
299.43
299.43
299.43
299.429
299.429
299.428
299.428
299.427
299.427
299.426
299.425
299.425
299.424
299.424
299.424
299.423
299.423
299.423
299.423
299.423
299.423
299.424
299.424
299.424
299.425
299.426
299.426
299.427
299.428
299.43
299.431
299.433
299.434
299.437
299.439
299.442
299.445
299.449
299.454
299.46
299.468
299.477
299.49
299.506
299.528
299.557
299.596
299.65
299.723
299.823
299.958
300.138
300.369
300.656
300.992
301.36
298.926
298.977
299.027
299.076
299.122
299.164
299.204
299.24
299.273
299.302
299.328
299.351
299.37
299.386
299.399
299.411
299.419
299.426
299.432
299.436
299.438
299.44
299.442
299.443
299.443
299.444
299.444
299.444
299.444
299.444
299.444
299.444
299.444
299.444
299.444
299.444
299.444
299.444
299.444
299.443
299.443
299.443
299.442
299.442
299.441
299.44
299.44
299.439
299.438
299.437
299.436
299.435
299.435
299.434
299.433
299.432
299.431
299.431
299.43
299.43
299.429
299.429
299.429
299.429
299.429
299.429
299.429
299.429
299.43
299.43
299.431
299.432
299.433
299.434
299.435
299.436
299.438
299.44
299.442
299.445
299.448
299.452
299.456
299.462
299.469
299.479
299.491
299.507
299.528
299.557
299.597
299.652
299.726
299.828
299.965
300.146
300.379
300.666
301
301.363
298.928
298.984
299.04
299.093
299.143
299.19
299.234
299.274
299.309
299.341
299.369
299.393
299.414
299.431
299.445
299.457
299.465
299.472
299.477
299.48
299.482
299.482
299.482
299.482
299.48
299.479
299.478
299.476
299.475
299.473
299.471
299.47
299.468
299.467
299.466
299.465
299.463
299.462
299.461
299.46
299.459
299.458
299.456
299.455
299.454
299.453
299.451
299.45
299.449
299.447
299.446
299.445
299.444
299.442
299.441
299.44
299.439
299.438
299.438
299.437
299.436
299.436
299.435
299.435
299.435
299.435
299.435
299.435
299.435
299.435
299.436
299.437
299.438
299.438
299.44
299.441
299.442
299.444
299.446
299.449
299.452
299.455
299.459
299.465
299.472
299.481
299.493
299.509
299.53
299.56
299.6
299.656
299.732
299.835
299.974
300.158
300.391
300.678
301.008
301.367
298.931
298.992
299.052
299.11
299.164
299.216
299.263
299.307
299.345
299.38
299.41
299.436
299.458
299.476
299.491
299.503
299.512
299.519
299.523
299.525
299.526
299.526
299.524
299.522
299.52
299.517
299.514
299.511
299.507
299.504
299.501
299.498
299.495
299.492
299.49
299.487
299.485
299.483
299.48
299.478
299.476
299.474
299.472
299.47
299.468
299.466
299.464
299.463
299.461
299.459
299.457
299.456
299.454
299.452
299.451
299.45
299.448
299.447
299.446
299.445
299.444
299.443
299.443
299.442
299.442
299.441
299.441
299.441
299.441
299.442
299.442
299.443
299.443
299.444
299.445
299.446
299.448
299.449
299.451
299.453
299.456
299.459
299.463
299.469
299.475
299.484
299.496
299.512
299.533
299.563
299.604
299.661
299.739
299.844
299.985
300.17
300.405
300.69
301.017
301.37
298.933
298.999
299.064
299.126
299.186
299.241
299.292
299.339
299.381
299.418
299.45
299.478
299.502
299.521
299.537
299.549
299.558
299.564
299.568
299.57
299.571
299.569
299.567
299.564
299.56
299.555
299.551
299.546
299.542
299.537
299.532
299.528
299.523
299.519
299.515
299.512
299.508
299.505
299.501
299.498
299.495
299.492
299.489
299.487
299.484
299.481
299.479
299.476
299.474
299.472
299.47
299.467
299.465
299.463
299.461
299.46
299.458
299.457
299.455
299.454
299.453
299.452
299.451
299.45
299.449
299.449
299.449
299.448
299.448
299.448
299.449
299.449
299.45
299.45
299.451
299.452
299.453
299.455
299.457
299.459
299.461
299.464
299.468
299.473
299.48
299.488
299.5
299.516
299.538
299.568
299.61
299.668
299.747
299.855
299.998
300.184
300.419
300.703
301.026
301.373
298.936
299.006
299.076
299.143
299.206
299.266
299.321
299.371
299.415
299.455
299.489
299.519
299.544
299.564
299.58
299.593
299.602
299.609
299.612
299.614
299.614
299.612
299.608
299.604
299.599
299.594
299.588
299.582
299.576
299.57
299.564
299.558
299.552
299.547
299.542
299.537
299.532
299.528
299.523
299.519
299.515
299.511
299.508
299.504
299.501
299.497
299.494
299.491
299.488
299.485
299.483
299.48
299.478
299.475
299.473
299.471
299.469
299.467
299.465
299.464
299.462
299.461
299.46
299.459
299.458
299.457
299.457
299.456
299.456
299.456
299.456
299.456
299.457
299.457
299.458
299.459
299.46
299.461
299.463
299.465
299.467
299.47
299.474
299.478
299.485
299.493
299.504
299.52
299.543
299.573
299.616
299.675
299.756
299.866
300.011
300.198
300.434
300.715
301.035
301.376
298.938
299.013
299.087
299.159
299.226
299.29
299.348
299.401
299.449
299.491
299.527
299.558
299.584
299.605
299.622
299.635
299.644
299.651
299.654
299.655
299.655
299.652
299.648
299.643
299.637
299.631
299.624
299.617
299.61
299.602
299.595
299.588
299.581
299.575
299.569
299.562
299.557
299.551
299.546
299.541
299.536
299.531
299.527
299.522
299.518
299.514
299.51
299.507
299.503
299.5
299.497
299.493
299.491
299.488
299.485
299.482
299.48
299.478
299.476
299.474
299.472
299.471
299.469
299.468
299.467
299.466
299.465
299.465
299.464
299.464
299.464
299.464
299.465
299.465
299.465
299.466
299.467
299.468
299.47
299.471
299.474
299.476
299.48
299.484
299.49
299.499
299.51
299.526
299.548
299.58
299.623
299.684
299.766
299.877
300.024
300.213
300.448
300.728
301.043
301.379
298.94
299.02
299.099
299.174
299.246
299.313
299.375
299.431
299.481
299.525
299.563
299.596
299.622
299.644
299.662
299.675
299.684
299.69
299.693
299.694
299.693
299.69
299.685
299.679
299.673
299.665
299.658
299.65
299.642
299.633
299.625
299.617
299.61
299.602
299.595
299.588
299.581
299.575
299.568
299.562
299.557
299.551
299.546
299.541
299.536
299.531
299.527
299.523
299.519
299.515
299.511
299.507
299.504
299.501
299.498
299.495
299.492
299.49
299.487
299.485
299.483
299.481
299.48
299.478
299.477
299.476
299.475
299.474
299.474
299.473
299.473
299.473
299.473
299.473
299.474
299.474
299.475
299.476
299.477
299.479
299.481
299.483
299.486
299.491
299.497
299.505
299.516
299.532
299.555
299.587
299.631
299.692
299.776
299.889
300.037
300.227
300.462
300.74
301.051
301.382
298.942
299.027
299.11
299.189
299.265
299.336
299.401
299.46
299.512
299.558
299.598
299.631
299.659
299.681
299.699
299.712
299.721
299.727
299.729
299.73
299.728
299.724
299.719
299.713
299.706
299.698
299.689
299.681
299.672
299.663
299.654
299.645
299.637
299.628
299.62
299.612
299.605
299.597
299.59
299.584
299.577
299.571
299.565
299.56
299.554
299.549
299.544
299.539
299.534
299.53
299.526
299.522
299.518
299.514
299.511
299.507
299.504
299.502
299.499
299.496
299.494
299.492
299.49
299.489
299.487
299.486
299.485
299.484
299.483
299.482
299.482
299.482
299.482
299.482
299.482
299.483
299.483
299.484
299.485
299.487
299.488
299.491
299.494
299.498
299.504
299.512
299.523
299.539
299.562
299.594
299.639
299.702
299.787
299.901
300.05
300.241
300.475
300.751
301.059
301.385
298.945
299.033
299.12
299.204
299.283
299.357
299.426
299.487
299.542
299.59
299.63
299.665
299.693
299.716
299.733
299.746
299.755
299.76
299.762
299.762
299.76
299.756
299.75
299.743
299.735
299.727
299.718
299.709
299.699
299.69
299.68
299.671
299.662
299.653
299.644
299.635
299.627
299.619
299.612
299.604
299.597
299.591
299.584
299.578
299.572
299.566
299.56
299.555
299.55
299.545
299.54
299.536
299.532
299.528
299.524
299.52
299.517
299.514
299.511
299.508
299.506
299.503
299.501
299.499
299.498
299.496
299.495
299.494
299.493
299.492
299.492
299.491
299.491
299.491
299.491
299.492
299.492
299.493
299.494
299.495
299.496
299.499
299.501
299.505
299.511
299.519
299.53
299.546
299.569
299.602
299.648
299.711
299.797
299.913
300.063
300.254
300.488
300.762
301.066
301.387
298.947
299.039
299.13
299.218
299.301
299.379
299.45
299.514
299.57
299.62
299.662
299.697
299.725
299.748
299.765
299.777
299.785
299.79
299.792
299.791
299.788
299.784
299.777
299.77
299.762
299.753
299.743
299.734
299.724
299.714
299.704
299.694
299.684
299.675
299.666
299.657
299.648
299.64
299.632
299.624
299.616
299.609
299.602
299.595
299.589
299.583
299.577
299.571
299.565
299.56
299.555
299.55
299.546
299.541
299.537
299.533
299.53
299.526
299.523
299.52
299.517
299.515
299.513
299.511
299.509
299.507
299.506
299.505
299.503
299.503
299.502
299.501
299.501
299.501
299.501
299.501
299.501
299.502
299.503
299.504
299.505
299.507
299.51
299.513
299.519
299.527
299.538
299.554
299.577
299.61
299.657
299.721
299.808
299.925
300.076
300.267
300.501
300.772
301.073
301.39
298.949
299.045
299.14
299.232
299.318
299.399
299.473
299.539
299.597
299.648
299.691
299.726
299.755
299.777
299.794
299.806
299.813
299.817
299.818
299.817
299.813
299.808
299.801
299.793
299.785
299.775
299.765
299.755
299.745
299.735
299.725
299.715
299.705
299.695
299.686
299.676
299.667
299.659
299.65
299.642
299.634
299.626
299.619
299.612
299.605
299.599
299.592
299.586
299.58
299.575
299.569
299.564
299.559
299.555
299.55
299.546
299.542
299.539
299.535
299.532
299.529
299.527
299.524
299.522
299.52
299.518
299.517
299.515
299.514
299.513
299.512
299.512
299.511
299.511
299.511
299.511
299.511
299.512
299.512
299.513
299.514
299.516
299.518
299.522
299.527
299.535
299.546
299.562
299.586
299.619
299.666
299.731
299.819
299.936
300.089
300.28
300.513
300.782
301.08
301.392
298.951
299.051
299.15
299.245
299.335
299.418
299.495
299.563
299.623
299.675
299.718
299.754
299.782
299.804
299.82
299.831
299.838
299.841
299.841
299.839
299.835
299.829
299.822
299.813
299.804
299.795
299.785
299.774
299.764
299.754
299.743
299.733
299.723
299.713
299.703
299.694
299.685
299.676
299.667
299.659
299.65
299.643
299.635
299.628
299.62
299.614
299.607
299.601
299.595
299.589
299.583
299.578
299.573
299.568
299.563
299.559
299.555
299.551
299.548
299.544
299.541
299.539
299.536
299.534
299.532
299.53
299.528
299.527
299.525
299.524
299.523
299.523
299.522
299.522
299.521
299.521
299.521
299.521
299.522
299.522
299.523
299.525
299.527
299.531
299.536
299.543
299.554
299.571
299.594
299.628
299.676
299.741
299.83
299.948
300.101
300.293
300.524
300.792
301.086
301.394
298.952
299.057
299.159
299.257
299.35
299.437
299.516
299.586
299.648
299.7
299.744
299.78
299.808
299.829
299.844
299.854
299.86
299.862
299.861
299.858
299.853
299.847
299.839
299.83
299.821
299.811
299.801
299.79
299.78
299.769
299.759
299.749
299.739
299.729
299.719
299.709
299.7
299.691
299.682
299.674
299.665
299.657
299.65
299.642
299.635
299.628
299.621
299.614
299.608
299.602
299.597
299.591
299.586
299.581
299.576
299.572
299.568
299.564
299.56
299.557
299.553
299.551
299.548
299.545
299.543
299.541
299.54
299.538
299.537
299.535
299.534
299.534
299.533
299.532
299.532
299.532
299.532
299.532
299.532
299.532
299.533
299.535
299.537
299.54
299.545
299.552
299.563
299.58
299.604
299.638
299.686
299.752
299.842
299.96
300.114
300.305
300.536
300.801
301.092
301.396
298.954
299.062
299.168
299.269
299.365
299.455
299.536
299.608
299.671
299.724
299.768
299.804
299.831
299.852
299.866
299.875
299.879
299.88
299.879
299.875
299.869
299.862
299.853
299.844
299.835
299.824
299.814
299.804
299.793
299.783
299.772
299.762
299.752
299.742
299.732
299.723
299.714
299.705
299.696
299.687
299.679
299.671
299.663
299.655
299.648
299.641
299.634
299.628
299.621
299.615
299.609
299.604
299.598
299.593
299.589
299.584
299.58
299.576
299.572
299.569
299.565
299.563
299.56
299.557
299.555
299.553
299.551
299.55
299.548
299.547
299.546
299.545
299.544
299.544
299.543
299.543
299.542
299.542
299.542
299.543
299.543
299.544
299.546
299.549
299.554
299.562
299.573
299.589
299.613
299.648
299.696
299.763
299.853
299.972
300.126
300.318
300.547
300.81
301.098
301.398
298.956
299.067
299.176
299.281
299.38
299.472
299.555
299.628
299.692
299.746
299.79
299.826
299.852
299.872
299.885
299.893
299.896
299.896
299.893
299.888
299.882
299.874
299.865
299.856
299.846
299.836
299.825
299.815
299.804
299.794
299.784
299.774
299.764
299.754
299.744
299.735
299.726
299.717
299.708
299.699
299.691
299.683
299.675
299.668
299.66
299.653
299.646
299.64
299.633
299.627
299.622
299.616
299.611
299.606
299.601
299.596
299.592
299.588
299.584
299.581
299.578
299.575
299.572
299.569
299.567
299.565
299.563
299.561
299.56
299.559
299.558
299.557
299.556
299.555
299.554
299.554
299.553
299.553
299.553
299.553
299.554
299.555
299.556
299.559
299.564
299.571
299.582
299.599
299.623
299.658
299.706
299.774
299.865
299.985
300.138
300.33
300.558
300.819
301.104
301.4
298.957
299.072
299.184
299.292
299.393
299.488
299.573
299.648
299.713
299.767
299.811
299.846
299.872
299.89
299.902
299.908
299.911
299.909
299.906
299.9
299.893
299.884
299.875
299.865
299.855
299.845
299.835
299.824
299.814
299.804
299.793
299.783
299.774
299.764
299.755
299.745
299.736
299.727
299.719
299.71
299.702
299.694
299.687
299.679
299.672
299.665
299.658
299.651
299.645
299.639
299.633
299.628
299.623
299.618
299.613
299.608
299.604
299.6
299.596
299.593
299.59
299.587
299.584
299.581
299.579
299.577
299.575
299.574
299.572
299.571
299.57
299.569
299.568
299.567
299.566
299.565
299.565
299.564
299.564
299.564
299.564
299.565
299.567
299.569
299.574
299.581
299.592
299.609
299.633
299.668
299.717
299.785
299.876
299.997
300.151
300.341
300.568
300.827
301.109
301.402
298.959
299.076
299.191
299.302
299.406
299.503
299.59
299.666
299.731
299.786
299.83
299.864
299.889
299.906
299.917
299.922
299.923
299.921
299.916
299.909
299.902
299.893
299.883
299.873
299.863
299.853
299.842
299.832
299.822
299.812
299.802
299.792
299.782
299.773
299.764
299.755
299.746
299.737
299.729
299.72
299.712
299.705
299.697
299.69
299.683
299.676
299.669
299.663
299.656
299.651
299.645
299.639
299.634
299.629
299.625
299.62
299.616
299.612
299.609
299.605
299.602
299.599
299.596
299.594
299.592
299.59
299.588
299.586
299.584
299.583
299.582
299.581
299.58
299.579
299.578
299.577
299.576
299.576
299.575
299.575
299.575
299.576
299.577
299.58
299.584
299.591
299.603
299.619
299.644
299.679
299.728
299.796
299.888
300.009
300.163
300.353
300.579
300.836
301.114
301.404
298.96
299.081
299.198
299.312
299.418
299.517
299.605
299.683
299.749
299.804
299.847
299.881
299.905
299.921
299.93
299.934
299.934
299.931
299.925
299.918
299.909
299.9
299.89
299.88
299.87
299.859
299.849
299.839
299.829
299.819
299.809
299.799
299.79
299.781
299.772
299.763
299.754
299.746
299.738
299.73
299.722
299.714
299.707
299.7
299.693
299.686
299.68
299.673
299.667
299.662
299.656
299.651
299.646
299.641
299.636
299.632
299.628
299.624
299.621
299.617
299.614
299.612
299.609
299.606
299.604
299.602
299.6
299.599
299.597
299.596
299.594
299.593
299.592
299.591
299.59
299.589
299.588
299.587
299.587
299.586
299.586
299.587
299.588
299.59
299.595
299.602
299.613
299.63
299.654
299.69
299.74
299.808
299.9
300.021
300.175
300.365
300.589
300.844
301.119
301.406
298.962
299.085
299.205
299.321
299.43
299.53
299.62
299.699
299.765
299.82
299.863
299.896
299.919
299.934
299.942
299.945
299.944
299.939
299.933
299.925
299.916
299.906
299.896
299.886
299.876
299.865
299.855
299.845
299.835
299.825
299.816
299.806
299.797
299.788
299.78
299.771
299.763
299.754
299.746
299.739
299.731
299.724
299.717
299.71
299.703
299.696
299.69
299.684
299.678
299.673
299.667
299.662
299.657
299.653
299.648
299.644
299.64
299.637
299.633
299.63
299.627
299.624
299.622
299.619
299.617
299.615
299.613
299.612
299.61
299.609
299.607
299.606
299.605
299.604
299.603
299.602
299.6
299.6
299.599
299.598
299.598
299.598
299.599
299.601
299.606
299.613
299.624
299.641
299.665
299.701
299.751
299.82
299.913
300.034
300.188
300.376
300.599
300.852
301.125
301.407
298.963
299.088
299.211
299.329
299.441
299.543
299.634
299.713
299.78
299.835
299.878
299.91
299.932
299.946
299.953
299.955
299.952
299.947
299.94
299.932
299.922
299.912
299.902
299.892
299.881
299.871
299.861
299.851
299.841
299.832
299.822
299.813
299.804
299.796
299.787
299.779
299.771
299.763
299.755
299.748
299.74
299.733
299.726
299.72
299.713
299.707
299.701
299.695
299.689
299.684
299.679
299.674
299.669
299.665
299.661
299.657
299.653
299.649
299.646
299.643
299.64
299.637
299.635
299.633
299.631
299.629
299.627
299.625
299.623
299.622
299.621
299.619
299.618
299.617
299.615
299.614
299.613
299.612
299.611
299.61
299.609
299.609
299.61
299.612
299.617
299.624
299.635
299.652
299.677
299.712
299.763
299.832
299.925
300.046
300.2
300.388
300.61
300.86
301.13
301.409
298.964
299.092
299.217
299.338
299.451
299.554
299.647
299.727
299.794
299.849
299.892
299.923
299.944
299.957
299.963
299.964
299.961
299.955
299.947
299.938
299.928
299.918
299.907
299.897
299.887
299.876
299.866
299.857
299.847
299.838
299.829
299.82
299.811
299.803
299.795
299.787
299.779
299.771
299.764
299.757
299.75
299.743
299.736
299.73
299.724
299.718
299.712
299.706
299.701
299.696
299.691
299.686
299.682
299.677
299.673
299.669
299.666
299.663
299.659
299.656
299.654
299.651
299.649
299.646
299.644
299.642
299.641
299.639
299.637
299.636
299.634
299.633
299.631
299.63
299.629
299.627
299.626
299.624
299.623
299.622
299.621
299.621
299.622
299.624
299.628
299.635
299.646
299.663
299.688
299.724
299.775
299.844
299.937
300.059
300.212
300.399
300.62
300.867
301.134
301.411
298.965
299.095
299.223
299.345
299.46
299.565
299.659
299.74
299.807
299.862
299.904
299.935
299.955
299.967
299.972
299.972
299.968
299.962
299.954
299.944
299.934
299.924
299.913
299.903
299.892
299.882
299.872
299.863
299.853
299.844
299.835
299.827
299.819
299.81
299.803
299.795
299.787
299.78
299.773
299.766
299.759
299.753
299.747
299.74
299.734
299.729
299.723
299.718
299.713
299.708
299.703
299.699
299.694
299.69
299.686
299.683
299.679
299.676
299.673
299.67
299.668
299.665
299.663
299.661
299.659
299.657
299.655
299.653
299.651
299.65
299.648
299.647
299.645
299.644
299.642
299.641
299.639
299.637
299.636
299.635
299.634
299.633
299.634
299.636
299.639
299.646
299.657
299.674
299.7
299.736
299.787
299.857
299.95
300.071
300.224
300.411
300.629
300.875
301.139
301.413
298.966
299.098
299.228
299.352
299.469
299.575
299.67
299.751
299.819
299.874
299.916
299.946
299.965
299.976
299.981
299.98
299.976
299.969
299.96
299.951
299.94
299.93
299.919
299.909
299.898
299.888
299.879
299.869
299.86
299.851
299.843
299.834
299.826
299.819
299.811
299.804
299.796
299.79
299.783
299.776
299.77
299.764
299.758
299.752
299.746
299.741
299.735
299.73
299.725
299.721
299.716
299.712
299.708
299.704
299.7
299.697
299.693
299.69
299.687
299.685
299.682
299.68
299.677
299.675
299.673
299.671
299.67
299.668
299.666
299.664
299.663
299.661
299.66
299.658
299.656
299.654
299.653
299.651
299.649
299.647
299.646
299.646
299.646
299.648
299.651
299.658
299.669
299.686
299.712
299.748
299.799
299.869
299.963
300.084
300.237
300.422
300.639
300.883
301.144
301.414
298.967
299.101
299.233
299.359
299.477
299.585
299.68
299.762
299.831
299.885
299.927
299.956
299.975
299.985
299.989
299.988
299.984
299.976
299.967
299.957
299.947
299.936
299.926
299.915
299.905
299.895
299.886
299.876
299.868
299.859
299.851
299.843
299.835
299.827
299.82
299.813
299.806
299.8
299.793
299.787
299.781
299.775
299.769
299.764
299.758
299.753
299.748
299.743
299.739
299.734
299.73
299.726
299.722
299.718
299.715
299.711
299.708
299.705
299.702
299.7
299.697
299.695
299.693
299.691
299.689
299.687
299.685
299.683
299.681
299.68
299.678
299.676
299.674
299.672
299.671
299.669
299.666
299.664
299.662
299.661
299.659
299.658
299.658
299.66
299.663
299.67
299.681
299.698
299.724
299.76
299.812
299.882
299.976
300.097
300.249
300.434
300.649
300.89
301.149
301.416
298.968
299.104
299.237
299.365
299.485
299.594
299.69
299.773
299.841
299.896
299.937
299.966
299.984
299.994
299.998
299.996
299.991
299.984
299.975
299.965
299.954
299.944
299.933
299.923
299.912
299.903
299.893
299.884
299.876
299.867
299.859
299.852
299.844
299.837
299.83
299.824
299.817
299.811
299.805
299.799
299.793
299.787
299.782
299.776
299.771
299.766
299.762
299.757
299.753
299.748
299.744
299.74
299.737
299.733
299.73
299.727
299.724
299.721
299.718
299.715
299.713
299.711
299.709
299.706
299.704
299.703
299.701
299.699
299.697
299.695
299.693
299.691
299.689
299.687
299.685
299.683
299.681
299.678
299.676
299.674
299.672
299.671
299.671
299.672
299.676
299.682
299.693
299.71
299.736
299.773
299.824
299.895
299.988
300.11
300.261
300.445
300.659
300.898
301.154
301.417
298.969
299.107
299.242
299.371
299.492
299.602
299.699
299.783
299.851
299.906
299.946
299.975
299.993
300.003
300.007
300.005
300
299.992
299.983
299.973
299.962
299.952
299.941
299.931
299.921
299.911
299.902
299.893
299.885
299.877
299.869
299.862
299.855
299.848
299.841
299.835
299.829
299.823
299.817
299.811
299.806
299.8
299.795
299.79
299.785
299.781
299.776
299.772
299.767
299.763
299.76
299.756
299.752
299.749
299.746
299.743
299.74
299.737
299.734
299.732
299.729
299.727
299.725
299.723
299.721
299.719
299.717
299.715
299.713
299.711
299.709
299.707
299.705
299.703
299.7
299.698
299.695
299.693
299.69
299.688
299.686
299.685
299.684
299.685
299.688
299.695
299.706
299.723
299.748
299.785
299.837
299.908
300.001
300.122
300.274
300.456
300.668
300.905
301.158
301.419
298.97
299.109
299.246
299.377
299.499
299.61
299.708
299.792
299.861
299.915
299.956
299.984
300.002
300.012
300.015
300.014
300.008
300.001
299.991
299.981
299.971
299.96
299.95
299.94
299.93
299.92
299.912
299.903
299.895
299.887
299.88
299.873
299.866
299.86
299.853
299.847
299.841
299.836
299.83
299.825
299.819
299.814
299.809
299.805
299.8
299.796
299.791
299.787
299.783
299.779
299.776
299.772
299.769
299.765
299.762
299.759
299.757
299.754
299.751
299.749
299.746
299.744
299.742
299.74
299.738
299.736
299.734
299.732
299.73
299.728
299.726
299.723
299.721
299.719
299.716
299.713
299.71
299.708
299.705
299.702
299.7
299.698
299.697
299.698
299.701
299.707
299.718
299.735
299.761
299.798
299.85
299.921
300.014
300.135
300.286
300.467
300.678
300.912
301.163
301.42
298.971
299.112
299.25
299.382
299.506
299.618
299.717
299.801
299.87
299.924
299.965
299.993
300.011
300.021
300.024
300.023
300.017
300.01
300.001
299.991
299.98
299.97
299.959
299.949
299.94
299.931
299.922
299.914
299.906
299.899
299.892
299.885
299.878
299.872
299.866
299.86
299.855
299.849
299.844
299.839
299.834
299.829
299.825
299.82
299.816
299.812
299.808
299.804
299.8
299.796
299.793
299.789
299.786
299.783
299.78
299.777
299.774
299.771
299.769
299.766
299.764
299.762
299.76
299.758
299.755
299.753
299.751
299.749
299.747
299.745
299.742
299.74
299.737
299.735
299.732
299.729
299.726
299.723
299.72
299.717
299.714
299.712
299.711
299.712
299.714
299.72
299.731
299.748
299.774
299.811
299.863
299.934
300.027
300.148
300.298
300.478
300.687
300.92
301.167
301.422
298.972
299.114
299.254
299.388
299.512
299.625
299.725
299.81
299.879
299.933
299.974
300.002
300.021
300.031
300.034
300.032
300.027
300.019
300.01
300
299.99
299.98
299.97
299.96
299.951
299.942
299.933
299.926
299.918
299.911
299.904
299.898
299.892
299.886
299.88
299.875
299.869
299.864
299.859
299.854
299.85
299.845
299.841
299.837
299.832
299.828
299.825
299.821
299.817
299.814
299.81
299.807
299.804
299.801
299.798
299.795
299.792
299.79
299.787
299.785
299.782
299.78
299.778
299.776
299.774
299.771
299.769
299.767
299.764
299.762
299.76
299.757
299.754
299.751
299.748
299.745
299.742
299.738
299.735
299.732
299.729
299.726
299.725
299.725
299.728
299.734
299.744
299.761
299.787
299.824
299.876
299.947
300.04
300.161
300.31
300.489
300.697
300.927
301.172
301.423
298.972
299.117
299.258
299.393
299.519
299.633
299.733
299.818
299.888
299.942
299.983
300.012
300.03
300.04
300.043
300.042
300.037
300.03
300.021
300.011
300.001
299.991
299.981
299.971
299.962
299.954
299.946
299.938
299.931
299.924
299.918
299.912
299.906
299.9
299.895
299.89
299.885
299.88
299.875
299.871
299.866
299.862
299.858
299.854
299.85
299.846
299.842
299.839
299.835
299.832
299.828
299.825
299.822
299.819
299.816
299.814
299.811
299.808
299.806
299.803
299.801
299.799
299.797
299.794
299.792
299.79
299.787
299.785
299.782
299.78
299.777
299.774
299.771
299.768
299.765
299.761
299.758
299.754
299.75
299.747
299.743
299.741
299.739
299.739
299.741
299.747
299.757
299.774
299.8
299.837
299.889
299.96
300.053
300.173
300.322
300.5
300.706
300.934
301.176
301.425
298.973
299.119
299.262
299.398
299.525
299.64
299.741
299.827
299.897
299.951
299.992
300.021
300.04
300.05
300.054
300.052
300.048
300.041
300.032