/*--------------------------------*- C++ -*----------------------------------*\
  =========                 |
  \\      /  F ield         | OpenFOAM: The Open Source CFD Toolbox
   \\    /   O peration     | Website:  https://openfoam.org
    \\  /    A nd           | Version:  6
     \\/     M anipulation  |
\*---------------------------------------------------------------------------*/
FoamFile
{
    version     2.0;
    format      ascii;
    class       volVectorField;
    location    "0";
    object      U;
}
// * * * * * * * * * * * * * * * * * * * * * * * * * * * * * * * * * * * * * //

dimensions      [0 1 -1 0 0 0 0];

internalField   nonuniform List<vector> 
10000
(
(-1.6607e-07 -6.16793e-07 0)
(6.04008e-05 -1.26109e-05 0)
(0.000190903 -2.31237e-05 0)
(0.000373985 -3.09548e-05 0)
(0.000596547 -3.62697e-05 0)
(0.000845698 -3.91977e-05 0)
(0.00110887 -3.984e-05 0)
(0.00137415 -3.83527e-05 0)
(0.00163074 -3.50121e-05 0)
(0.00186938 -3.02055e-05 0)
(0.00208273 -2.43857e-05 0)
(0.00226548 -1.80186e-05 0)
(0.00241436 -1.15377e-05 0)
(0.00252801 -5.31625e-06 0)
(0.00260671 3.42753e-07 0)
(0.0026522 5.19682e-06 0)
(0.00266717 9.04518e-06 0)
(0.0026558 1.22981e-05 0)
(0.00262075 1.51391e-05 0)
(0.00256523 1.72098e-05 0)
(0.00249277 1.85571e-05 0)
(0.0024067 1.93144e-05 0)
(0.00231008 1.95926e-05 0)
(0.00220567 1.94877e-05 0)
(0.00209589 1.90826e-05 0)
(0.00198286 1.845e-05 0)
(0.00186839 1.76532e-05 0)
(0.00175398 1.67431e-05 0)
(0.0016409 1.57627e-05 0)
(0.00153013 1.47482e-05 0)
(0.00142248 1.3727e-05 0)
(0.00131854 1.2719e-05 0)
(0.00121875 1.17402e-05 0)
(0.00112342 1.08023e-05 0)
(0.00103273 9.911e-06 0)
(0.000946786 9.0699e-06 0)
(0.000865612 8.28121e-06 0)
(0.000789185 7.54494e-06 0)
(0.000717435 6.85865e-06 0)
(0.000650261 6.21919e-06 0)
(0.000587542 5.62438e-06 0)
(0.000529145 5.07153e-06 0)
(0.000474926 4.5567e-06 0)
(0.000424737 4.07612e-06 0)
(0.000378426 3.62703e-06 0)
(0.000335844 3.20742e-06 0)
(0.000296844 2.81491e-06 0)
(0.000261279 2.4467e-06 0)
(0.000229003 2.10061e-06 0)
(0.000199877 1.77545e-06 0)
(0.000173762 1.47017e-06 0)
(0.000150526 1.18325e-06 0)
(0.000130037 9.13104e-07 0)
(0.000112168 6.58445e-07 0)
(9.68001e-05 4.18385e-07 0)
(8.3817e-05 1.92101e-07 0)
(7.31105e-05 -2.16102e-08 0)
(6.45786e-05 -2.24346e-07 0)
(5.81283e-05 -4.17766e-07 0)
(5.36772e-05 -6.03387e-07 0)
(5.11544e-05 -7.82697e-07 0)
(5.05012e-05 -9.57073e-07 0)
(5.16714e-05 -1.1239e-06 0)
(5.46167e-05 -1.28243e-06 0)
(5.92922e-05 -1.43714e-06 0)
(6.56705e-05 -1.59205e-06 0)
(7.37507e-05 -1.75141e-06 0)
(8.35608e-05 -1.91977e-06 0)
(9.51589e-05 -2.10156e-06 0)
(0.000108635 -2.30161e-06 0)
(0.000124117 -2.52555e-06 0)
(0.000141769 -2.78009e-06 0)
(0.000161808 -3.0735e-06 0)
(0.000184501 -3.41611e-06 0)
(0.000210184 -3.82084e-06 0)
(0.000239268 -4.30381e-06 0)
(0.000272258 -4.88512e-06 0)
(0.000309757 -5.58918e-06 0)
(0.000352489 -6.44478e-06 0)
(0.000401296 -7.48508e-06 0)
(0.000457145 -8.7469e-06 0)
(0.000521109 -1.02686e-05 0)
(0.000594329 -1.20859e-05 0)
(0.000677951 -1.42257e-05 0)
(0.000773 -1.66963e-05 0)
(0.000880216 -1.9474e-05 0)
(0.000999796 -2.24867e-05 0)
(0.00113107 -2.55933e-05 0)
(0.00127207 -2.85612e-05 0)
(0.00141903 -3.10407e-05 0)
(0.0015658 -3.25338e-05 0)
(0.00170316 -3.23409e-05 0)
(0.00181806 -2.94859e-05 0)
(0.00189221 -2.25172e-05 0)
(0.00190162 -9.41206e-06 0)
(0.00181379 1.31459e-05 0)
(0.00159051 4.78185e-05 0)
(0.00120033 9.28673e-05 0)
(0.000662373 0.000133121 0)
(0.000131955 0.000124499 0)
(1.12326e-05 -6.12463e-05 0)
(0.000181273 -0.000189924 0)
(0.000499839 -0.000300719 0)
(0.000933531 -0.000387193 0)
(0.00145445 -0.000449446 0)
(0.00203559 -0.000487931 0)
(0.00265043 -0.000503571 0)
(0.00327405 -0.000498007 0)
(0.00388392 -0.00047372 0)
(0.00446061 -0.000433888 0)
(0.00498826 -0.000382114 0)
(0.00545481 -0.000322123 0)
(0.00585193 -0.000257508 0)
(0.00617483 -0.000191537 0)
(0.00642192 -0.000127055 0)
(0.00659436 -6.64426e-05 0)
(0.00669587 -1.16536e-05 0)
(0.00673103 3.65149e-05 0)
(0.00670925 7.8768e-05 0)
(0.00663532 0.000115175 0)
(0.00651616 0.00014529 0)
(0.00635858 0.000169432 0)
(0.00616909 0.000188086 0)
(0.00595384 0.000201791 0)
(0.00571857 0.000211114 0)
(0.00546847 0.000216621 0)
(0.00520818 0.000218863 0)
(0.0049418 0.000218364 0)
(0.00467287 0.000215603 0)
(0.0044044 0.00021102 0)
(0.00413891 0.000205005 0)
(0.00387847 0.000197899 0)
(0.00362475 0.000189994 0)
(0.00337905 0.000181535 0)
(0.00314235 0.000172727 0)
(0.00291538 0.000163733 0)
(0.00269864 0.000154685 0)
(0.00249245 0.000145683 0)
(0.00229696 0.000136804 0)
(0.00211222 0.000128104 0)
(0.00193818 0.000119623 0)
(0.00177472 0.000111389 0)
(0.00162166 0.000103418 0)
(0.00147878 9.57195e-05 0)
(0.00134582 8.83e-05 0)
(0.00122251 8.11604e-05 0)
(0.00110857 7.42993e-05 0)
(0.00100368 6.77136e-05 0)
(0.000907548 6.13996e-05 0)
(0.00081985 5.53528e-05 0)
(0.000740273 4.95679e-05 0)
(0.000668504 4.40381e-05 0)
(0.000604228 3.87558e-05 0)
(0.00054714 3.37129e-05 0)
(0.000496938 2.88998e-05 0)
(0.000453335 2.43052e-05 0)
(0.000416052 1.99157e-05 0)
(0.000384827 1.57154e-05 0)
(0.000359417 1.16866e-05 0)
(0.000339604 7.80879e-06 0)
(0.000325192 4.05924e-06 0)
(0.00031602 4.13782e-07 0)
(0.000311948 -3.1465e-06 0)
(0.000312904 -6.61691e-06 0)
(0.000318763 -1.00107e-05 0)
(0.000329443 -1.33758e-05 0)
(0.000344913 -1.67643e-05 0)
(0.000365216 -2.02329e-05 0)
(0.000390463 -2.38418e-05 0)
(0.000420845 -2.76562e-05 0)
(0.000456635 -3.17489e-05 0)
(0.000498199 -3.62034e-05 0)
(0.00054601 -4.1117e-05 0)
(0.000600663 -4.66041e-05 0)
(0.000662889 -5.2799e-05 0)
(0.00073358 -5.98578e-05 0)
(0.000813801 -6.79591e-05 0)
(0.00090481 -7.73027e-05 0)
(0.00100806 -8.8102e-05 0)
(0.00112521 -0.000100572 0)
(0.00125807 -0.000114908 0)
(0.00140853 -0.000131248 0)
(0.00157848 -0.000149621 0)
(0.00176957 -0.000169871 0)
(0.00198294 -0.000191559 0)
(0.00221881 -0.000213841 0)
(0.0024759 -0.000235321 0)
(0.00275074 -0.000253898 0)
(0.00303679 -0.000266605 0)
(0.00332345 -0.00026947 0)
(0.0035949 -0.000257366 0)
(0.00382895 -0.000223859 0)
(0.00399589 -0.000160933 0)
(0.00405663 -5.87825e-05 0)
(0.0039639 9.54816e-05 0)
(0.00365732 0.000312759 0)
(0.00308469 0.000586905 0)
(0.00222139 0.000867494 0)
(0.00115064 0.00100572 0)
(0.000174192 0.00068096 0)
(1.8439e-05 -0.000181476 0)
(0.000265443 -0.000500152 0)
(0.000709773 -0.000764717 0)
(0.00130568 -0.00097227 0)
(0.00201619 -0.00112335 0)
(0.00280662 -0.00121905 0)
(0.00364335 -0.00126177 0)
(0.00449523 -0.00125554 0)
(0.00533433 -0.00120607 0)
(0.00613661 -0.00112032 0)
(0.00688222 -0.00100601 0)
(0.00755562 -0.000871012 0)
(0.00814546 -0.000722949 0)
(0.00864432 -0.000568826 0)
(0.00904831 -0.000414837 0)
(0.00935667 -0.000266271 0)
(0.00957139 -0.000127466 0)
(0.00969636 -2.01668e-06 0)
(0.00973801 0.000109234 0)
(0.00970628 0.000206979 0)
(0.00960802 0.00029084 0)
(0.00945166 0.000361029 0)
(0.0092452 0.00041823 0)
(0.00899642 0.00046334 0)
(0.00871279 0.000497399 0)
(0.00840127 0.000521525 0)
(0.00806831 0.000536869 0)
(0.00771977 0.000544572 0)
(0.00736088 0.000545736 0)
(0.00699628 0.0005414 0)
(0.00662998 0.000532523 0)
(0.00626543 0.000519973 0)
(0.00590554 0.000504522 0)
(0.00555273 0.000486841 0)
(0.00520895 0.000467511 0)
(0.00487578 0.000447017 0)
(0.00455444 0.000425766 0)
(0.00424584 0.000404088 0)
(0.00395067 0.000382249 0)
(0.00366937 0.000360458 0)
(0.00340221 0.000338879 0)
(0.00314935 0.000317635 0)
(0.00291078 0.00029682 0)
(0.00268642 0.000276505 0)
(0.00247613 0.000256737 0)
(0.00227967 0.000237554 0)
(0.00209679 0.000218981 0)
(0.00192716 0.000201033 0)
(0.00177046 0.000183722 0)
(0.00162632 0.000167051 0)
(0.00149435 0.000151021 0)
(0.00137417 0.000135628 0)
(0.00126537 0.000120863 0)
(0.00116755 0.000106714 0)
(0.0010803 9.31607e-05 0)
(0.00100321 8.01813e-05 0)
(0.000935918 6.77459e-05 0)
(0.000878035 5.58193e-05 0)
(0.000829215 4.43593e-05 0)
(0.000789134 3.33163e-05 0)
(0.0007575 2.2633e-05 0)
(0.000734061 1.22463e-05 0)
(0.000718614 2.0901e-06 0)
(0.000710977 -7.87324e-06 0)
(0.00071113 -1.7641e-05 0)
(0.000718888 -2.72811e-05 0)
(0.000734169 -3.69382e-05 0)
(0.000756981 -4.6756e-05 0)
(0.000787431 -5.68848e-05 0)
(0.000825726 -6.74876e-05 0)
(0.000872186 -7.87445e-05 0)
(0.00092725 -9.08584e-05 0)
(0.000991488 -0.000104061 0)
(0.00106562 -0.000118619 0)
(0.00115053 -0.000134837 0)
(0.00124727 -0.00015306 0)
(0.0013571 -0.000173669 0)
(0.00148147 -0.000197074 0)
(0.00162202 -0.000223687 0)
(0.00178054 -0.000253891 0)
(0.00195893 -0.000287975 0)
(0.00215906 -0.000326043 0)
(0.0023826 -0.000367888 0)
(0.00263076 -0.000412816 0)
(0.00290389 -0.000459419 0)
(0.00320093 -0.000505304 0)
(0.00351877 -0.000546782 0)
(0.00385132 -0.000578537 0)
(0.0041885 -0.000593312 0)
(0.004515 -0.000581631 0)
(0.00480904 -0.000531595 0)
(0.00504102 -0.000428731 0)
(0.00517233 -0.000255873 0)
(0.00515492 7.05292e-06 0)
(0.00492952 0.000381787 0)
(0.0044374 0.000875842 0)
(0.00363699 0.00145526 0)
(0.00253219 0.00199331 0)
(0.00125527 0.0021775 0)
(0.000164858 0.00138173 0)
(2.13067e-05 -0.000334855 0)
(0.000312738 -0.000889719 0)
(0.00083399 -0.00134086 0)
(0.00152948 -0.0016936 0)
(0.0023557 -0.00195093 0)
(0.00327308 -0.00211582 0)
(0.00424408 -0.00219307 0)
(0.00523454 -0.00218997 0)
(0.00621431 -0.00211613 0)
(0.00715766 -0.00198283 0)
(0.00804345 -0.00180218 0)
(0.00885503 -0.00158641 0)
(0.00957993 -0.00134722 0)
(0.0102096 -0.00109536 0)
(0.0107388 -0.000840352 0)
(0.0111653 -0.00059036 0)
(0.0114894 -0.00035214 0)
(0.0117139 -0.000131275 0)
(0.0118411 6.80238e-05 0)
(0.0118815 0.000244592 0)
(0.0118416 0.000399165 0)
(0.0117301 0.000531655 0)
(0.0115555 0.00064281 0)
(0.0113259 0.000733761 0)
(0.0110492 0.000805899 0)
(0.0107333 0.000860794 0)
(0.0103851 0.000900124 0)
(0.0100116 0.000925609 0)
(0.00961888 0.000938961 0)
(0.0092125 0.000941835 0)
(0.00879749 0.000935802 0)
(0.00837832 0.000922317 0)
(0.00795883 0.000902709 0)
(0.0075424 0.000878166 0)
(0.00713185 0.000849736 0)
(0.00672959 0.000818326 0)
(0.00633758 0.000784715 0)
(0.00595744 0.000749556 0)
(0.00559046 0.000713394 0)
(0.00523763 0.000676676 0)
(0.00489972 0.000639764 0)
(0.00457727 0.00060295 0)
(0.00427066 0.000566464 0)
(0.00398011 0.00053049 0)
(0.00370572 0.000495171 0)
(0.00344748 0.000460619 0)
(0.00320529 0.000426922 0)
(0.00297897 0.000394148 0)
(0.00276829 0.000362348 0)
(0.00257297 0.000331559 0)
(0.00239266 0.000301807 0)
(0.00222702 0.000273106 0)
(0.00207563 0.000245463 0)
(0.0019381 0.000218869 0)
(0.00181399 0.000193308 0)
(0.00170288 0.000168751 0)
(0.00160433 0.000145158 0)
(0.00151793 0.000122477 0)
(0.00144326 0.000100642 0)
(0.00137994 7.95737e-05 0)
(0.00132762 5.91777e-05 0)
(0.00128599 3.93469e-05 0)
(0.00125476 1.99636e-05 0)
(0.00123372 9.04234e-07 0)
(0.00122274 -1.78729e-05 0)
(0.00122183 -3.63896e-05 0)
(0.00123078 -5.48325e-05 0)
(0.00124952 -7.34722e-05 0)
(0.00127811 -9.2567e-05 0)
(0.00131671 -0.000112394 0)
(0.0013656 -0.000133257 0)
(0.00142517 -0.00015549 0)
(0.00149597 -0.000179472 0)
(0.00157868 -0.000205627 0)
(0.00167413 -0.000234432 0)
(0.00178332 -0.000266415 0)
(0.00190741 -0.00030214 0)
(0.00204772 -0.000342194 0)
(0.0022057 -0.000387135 0)
(0.00238288 -0.000437433 0)
(0.00258079 -0.000493358 0)
(0.00280081 -0.000554833 0)
(0.00304398 -0.000621218 0)
(0.0033107 -0.000691028 0)
(0.00360027 -0.000761581 0)
(0.0039104 -0.000828561 0)
(0.00423643 -0.000885539 0)
(0.00457046 -0.000923455 0)
(0.00490024 -0.000930139 0)
(0.00520793 -0.000889914 0)
(0.00546882 -0.000783361 0)
(0.00565005 -0.000587302 0)
(0.00570987 -0.000275068 0)
(0.00559716 0.000183327 0)
(0.00525381 0.000811201 0)
(0.00463134 0.00160308 0)
(0.00370503 0.00248629 0)
(0.00250556 0.0032464 0)
(0.00119278 0.00340569 0)
(0.000139158 0.0020681 0)
(2.17491e-05 -0.000504355 0)
(0.000335752 -0.00132323 0)
(0.000900852 -0.00198192 0)
(0.00165491 -0.00249462 0)
(0.00254962 -0.00286826 0)
(0.00354166 -0.00310887 0)
(0.00459074 -0.00322471 0)
(0.00566096 -0.00322717 0)
(0.0067212 -0.00313045 0)
(0.00774541 -0.00295055 0)
(0.00871249 -0.00270425 0)
(0.00960604 -0.00240817 0)
(0.0104139 -0.00207799 0)
(0.0111276 -0.001728 0)
(0.0117418 -0.00137078 0)
(0.0122541 -0.0010171 0)
(0.0126641 -0.000675879 0)
(0.0129733 -0.000354303 0)
(0.0131847 -5.87516e-05 0)
(0.0133009 0.00020704 0)
(0.0133315 0.000442293 0)
(0.0132835 0.000647214 0)
(0.0131651 0.000822583 0)
(0.0129839 0.000969659 0)
(0.0127479 0.00109005 0)
(0.0124643 0.00118565 0)
(0.0121406 0.00125853 0)
(0.0117834 0.00131087 0)
(0.0113992 0.0013449 0)
(0.0109939 0.00136281 0)
(0.0105729 0.00136673 0)
(0.0101412 0.00135865 0)
(0.00970309 0.00134046 0)
(0.00926259 0.00131384 0)
(0.00882312 0.00128034 0)
(0.00838766 0.00124131 0)
(0.00795879 0.00119793 0)
(0.00753871 0.00115123 0)
(0.00712928 0.00110208 0)
(0.00673202 0.00105122 0)
(0.0063482 0.000999259 0)
(0.00597883 0.000946712 0)
(0.00562472 0.000893999 0)
(0.00528647 0.000841463 0)
(0.00496452 0.000789389 0)
(0.00465919 0.000738006 0)
(0.00437065 0.000687504 0)
(0.00409897 0.000638037 0)
(0.00384412 0.00058973 0)
(0.003606 0.000542682 0)
(0.00338443 0.000496971 0)
(0.00317918 0.000452655 0)
(0.00298996 0.000409773 0)
(0.00281643 0.000368343 0)
(0.00265824 0.000328366 0)
(0.00251501 0.000289824 0)
(0.00238633 0.000252678 0)
(0.0022718 0.000216869 0)
(0.002171 0.000182317 0)
(0.00208356 0.000148922 0)
(0.00200908 0.000116559 0)
(0.00194723 8.50823e-05 0)
(0.00189769 5.43236e-05 0)
(0.00186021 2.40959e-05 0)
(0.00183454 -5.78764e-06 0)
(0.00182074 -3.53412e-05 0)
(0.00181875 -6.46713e-05 0)
(0.00182835 -9.41367e-05 0)
(0.00184952 -0.000124122 0)
(0.00188231 -0.000155019 0)
(0.00192691 -0.000187252 0)
(0.00198361 -0.000221282 0)
(0.0020528 -0.00025762 0)
(0.00213504 -0.000296832 0)
(0.00223096 -0.000339538 0)
(0.00234136 -0.00038641 0)
(0.00246713 -0.00043815 0)
(0.00260927 -0.000495456 0)
(0.00276884 -0.000558954 0)
(0.00294688 -0.000629108 0)
(0.00314437 -0.000706061 0)
(0.00336204 -0.000789429 0)
(0.00360016 -0.00087801 0)
(0.00385827 -0.000969398 0)
(0.00413478 -0.0010595 0)
(0.00442639 -0.00114195 0)
(0.00472744 -0.00120745 0)
(0.00502899 -0.0012431 0)
(0.00531779 -0.00123172 0)
(0.00557506 -0.00115135 0)
(0.00577525 -0.000975073 0)
(0.005885 -0.000671278 0)
(0.00586285 -0.000204512 0)
(0.00565852 0.000461685 0)
(0.00522271 0.00134601 0)
(0.00451777 0.00242419 0)
(0.00353565 0.00357887 0)
(0.00232765 0.00450657 0)
(0.00106574 0.00457844 0)
(0.00011057 0.00268458 0)
(2.12644e-05 -0.000680601 0)
(0.000346028 -0.00177995 0)
(0.000935684 -0.00266009 0)
(0.00172398 -0.00334248 0)
(0.00265889 -0.00383834 0)
(0.00369383 -0.00415764 0)
(0.00478615 -0.00431307 0)
(0.00589858 -0.00432107 0)
(0.00699951 -0.00420113 0)
(0.00806306 -0.00397457 0)
(0.00906884 -0.00366317 0)
(0.0100014 -0.00328808 0)
(0.0108496 -0.00286896 0)
(0.0116061 -0.00242349 0)
(0.0122665 -0.00196707 0)
(0.0128287 -0.00151277 0)
(0.0132929 -0.00107136 0)
(0.0136602 -0.000651475 0)
(0.0139336 -0.000260012 0)
(0.0141151 9.72191e-05 0)
(0.0142106 0.000416383 0)
(0.0142263 0.000697793 0)
(0.0141696 0.000942155 0)
(0.0140475 0.00115074 0)
(0.013867 0.00132528 0)
(0.013635 0.00146787 0)
(0.0133581 0.00158086 0)
(0.0130428 0.00166679 0)
(0.012695 0.00172827 0)
(0.0123206 0.00176792 0)
(0.0119248 0.00178833 0)
(0.0115126 0.00179195 0)
(0.0110884 0.00178113 0)
(0.0106563 0.001758 0)
(0.01022 0.00172455 0)
(0.00978273 0.00168255 0)
(0.0093475 0.00163356 0)
(0.00891684 0.00157899 0)
(0.00849297 0.00152001 0)
(0.00807785 0.00145769 0)
(0.00767315 0.0013929 0)
(0.00728027 0.00132638 0)
(0.00690041 0.00125879 0)
(0.00653457 0.00119065 0)
(0.00618355 0.00112242 0)
(0.005848 0.00105447 0)
(0.00552842 0.000987129 0)
(0.00522516 0.000920664 0)
(0.00493849 0.000855303 0)
(0.00466855 0.000791235 0)
(0.00441539 0.000728618 0)
(0.00417897 0.000667576 0)
(0.00395919 0.000608206 0)
(0.00375588 0.000550575 0)
(0.00356881 0.000494723 0)
(0.00339772 0.00044066 0)
(0.00324231 0.000388368 0)
(0.00310224 0.000337799 0)
(0.00297718 0.000288875 0)
(0.00286676 0.000241488 0)
(0.00277064 0.000195497 0)
(0.00268848 0.000150731 0)
(0.00261996 0.000106987 0)
(0.0025648 6.40312e-05 0)
(0.00252278 2.15858e-05 0)
(0.00249357 -2.05775e-05 0)
(0.00247763 -6.24426e-05 0)
(0.00247458 -0.000104247 0)
(0.00248429 -0.000146527 0)
(0.00250671 -0.000189785 0)
(0.0025419 -0.000234546 0)
(0.00258998 -0.000281378 0)
(0.00265118 -0.000330898 0)
(0.00272582 -0.000383781 0)
(0.00281431 -0.000440752 0)
(0.00291713 -0.000502578 0)
(0.00303483 -0.000570042 0)
(0.00316799 -0.000643886 0)
(0.0033172 -0.000724733 0)
(0.00348298 -0.00081296 0)
(0.00366568 -0.000908507 0)
(0.00386537 -0.00101061 0)
(0.00408162 -0.00111745 0)
(0.00431324 -0.00122567 0)
(0.00455792 -0.00132974 0)
(0.00481171 -0.0014213 0)
(0.0050684 -0.00148827 0)
(0.00531863 -0.001514 0)
(0.00554898 -0.00147649 0)
(0.00574077 -0.00134777 0)
(0.00586896 -0.00109383 0)
(0.00590142 -0.000675345 0)
(0.00579853 -4.92334e-05 0)
(0.00551453 0.000823086 0)
(0.00501005 0.00195178 0)
(0.00425788 0.00329073 0)
(0.00326402 0.00467518 0)
(0.00209438 0.00571601 0)
(0.00092305 0.00565288 0)
(8.46451e-05 0.00321745 0)
(2.07429e-05 -0.000859594 0)
(0.000351455 -0.00224926 0)
(0.000956119 -0.00335993 0)
(0.00176549 -0.004218 0)
(0.00272436 -0.0048388 0)
(0.0037831 -0.00523683 0)
(0.00489689 -0.00543014 0)
(0.00602724 -0.00544111 0)
(0.00714226 -0.0052954 0)
(0.00821654 -0.00502024 0)
(0.00923066 -0.00464285 0)
(0.0101705 -0.00418913 0)
(0.0110265 -0.00368281 0)
(0.0117927 -0.00314488 0)
(0.0124662 -0.0025934 0)
(0.0130461 -0.00204348 0)
(0.0135335 -0.00150743 0)
(0.0139305 -0.000994998 0)
(0.01424 -0.000513748 0)
(0.0144655 -7.00468e-05 0)
(0.0146091 0.000331231 0)
(0.0146769 0.000688108 0)
(0.0146749 0.00100132 0)
(0.0146091 0.00127218 0)
(0.0144857 0.00150247 0)
(0.0143106 0.00169443 0)
(0.0140895 0.00185062 0)
(0.0138283 0.00197382 0)
(0.0135321 0.00206693 0)
(0.0132062 0.0021329 0)
(0.0128554 0.00217465 0)
(0.0124842 0.00219501 0)
(0.0120967 0.00219668 0)
(0.011697 0.00218216 0)
(0.0112884 0.00215379 0)
(0.0108744 0.00211369 0)
(0.0104578 0.00206376 0)
(0.0100413 0.00200571 0)
(0.00962738 0.00194102 0)
(0.00921814 0.001871 0)
(0.00881549 0.00179681 0)
(0.00842112 0.00171942 0)
(0.00803652 0.00163967 0)
(0.00766296 0.0015583 0)
(0.00730157 0.00147595 0)
(0.00695329 0.00139313 0)
(0.00661892 0.00131034 0)
(0.00629913 0.00122796 0)
(0.00599445 0.00114634 0)
(0.00570529 0.00106579 0)
(0.00543197 0.000986555 0)
(0.00517469 0.000908856 0)
(0.00493357 0.000832866 0)
(0.00470865 0.000758721 0)
(0.00449989 0.000686521 0)
(0.0043072 0.000616327 0)
(0.00413042 0.000548161 0)
(0.00396936 0.000482005 0)
(0.00382377 0.000417804 0)
(0.00369339 0.000355461 0)
(0.00357795 0.000294839 0)
(0.00347716 0.000235759 0)
(0.00339073 0.000178001 0)
(0.00331838 0.000121302 0)
(0.00325986 6.53596e-05 0)
(0.00321498 9.77853e-06 0)
(0.00318346 -4.55975e-05 0)
(0.00316581 -0.000100787 0)
(0.00316157 -0.000156251 0)
(0.0031706 -0.000212625 0)
(0.00319283 -0.000270514 0)
(0.00322821 -0.000330561 0)
(0.00327677 -0.000393462 0)
(0.00333859 -0.000459959 0)
(0.00341381 -0.00053084 0)
(0.00350258 -0.00060692 0)
(0.00360508 -0.000689004 0)
(0.00372148 -0.000777825 0)
(0.00385189 -0.000873941 0)
(0.0039963 -0.000977589 0)
(0.00415452 -0.00108846 0)
(0.00432601 -0.00120538 0)
(0.00450975 -0.00132591 0)
(0.004704 -0.00144574 0)
(0.00490593 -0.00155804 0)
(0.00511123 -0.00165253 0)
(0.00531346 -0.00171453 0)
(0.00550331 -0.00172391 0)
(0.00566766 -0.00165415 0)
(0.0057886 -0.00147173 0)
(0.00584232 -0.00113615 0)
(0.00579898 -0.000601199 0)
(0.00562134 0.000182218 0)
(0.00527143 0.00124998 0)
(0.00471734 0.00260314 0)
(0.00394192 0.00417138 0)
(0.00296235 0.00574215 0)
(0.00185422 0.00684692 0)
(0.000787363 0.00661507 0)
(6.3395e-05 0.00366862 0)
(2.05602e-05 -0.00104052 0)
(0.000356282 -0.00272714 0)
(0.000972098 -0.00407411 0)
(0.00179584 -0.00511088 0)
(0.00276919 -0.00585657 0)
(0.00383963 -0.00633076 0)
(0.00496035 -0.00655777 0)
(0.00609188 -0.0065669 0)
(0.00720227 -0.00639077 0)
(0.00826677 -0.0060632 0)
(0.00926719 -0.00561729 0)
(0.010191 -0.00508399 0)
(0.0110303 -0.00449116 0)
(0.0117809 -0.00386311 0)
(0.0124416 -0.00322044 0)
(0.0130132 -0.0025801 0)
(0.0134979 -0.00195571 0)
(0.013899 -0.00135787 0)
(0.0142202 -0.000794616 0)
(0.0144654 -0.000272039 0)
(0.0146379 0.000204739 0)
(0.014741 0.000631928 0)
(0.0147802 0.00100985 0)
(0.0147607 0.00133986 0)
(0.0146875 0.00162378 0)
(0.0145656 0.00186394 0)
(0.0144 0.00206306 0)
(0.0141953 0.00222411 0)
(0.0139561 0.0023502 0)
(0.0136866 0.00244454 0)
(0.0133909 0.0025103 0)
(0.013073 0.00255056 0)
(0.0127363 0.00256828 0)
(0.0123845 0.00256626 0)
(0.0120205 0.00254709 0)
(0.0116475 0.00251314 0)
(0.0112681 0.00246657 0)
(0.0108849 0.00240933 0)
(0.0105003 0.00234315 0)
(0.0101163 0.00226955 0)
(0.009735 0.00218988 0)
(0.00935814 0.00210533 0)
(0.00898735 0.00201693 0)
(0.00862409 0.00192559 0)
(0.00826968 0.00183208 0)
(0.00792527 0.00173711 0)
(0.00759192 0.00164129 0)
(0.00727052 0.00154514 0)
(0.00696185 0.00144915 0)
(0.00666659 0.00135373 0)
(0.00638528 0.00125923 0)
(0.00611837 0.00116599 0)
(0.00586623 0.00107426 0)
(0.0056291 0.000984262 0)
(0.00540716 0.000896182 0)
(0.00520052 0.000810143 0)
(0.00500919 0.000726227 0)
(0.00483314 0.000644469 0)
(0.00467228 0.000564853 0)
(0.00452648 0.000487315 0)
(0.00439555 0.000411741 0)
(0.0042793 0.000337967 0)
(0.0041775 0.00026578 0)
(0.00408991 0.000194911 0)
(0.00401629 0.000125041 0)
(0.00395644 5.57833e-05 0)
(0.00390996 -1.33147e-05 0)
(0.00387718 -8.22885e-05 0)
(0.00385804 -0.000151307 0)
(0.00385218 -0.000221033 0)
(0.00385943 -0.000292137 0)
(0.00387961 -0.000365305 0)
(0.00391255 -0.000441268 0)
(0.0039581 -0.000520803 0)
(0.00401614 -0.000604719 0)
(0.00408651 -0.000693832 0)
(0.00416905 -0.000788928 0)
(0.00426354 -0.000890679 0)
(0.00436966 -0.000999542 0)
(0.00448695 -0.00111558 0)
(0.00461472 -0.0012382 0)
(0.00475197 -0.00136584 0)
(0.00489722 -0.00149544 0)
(0.0050483 -0.00162186 0)
(0.00520209 -0.001737 0)
(0.00535408 -0.00182888 0)
(0.00549786 -0.00188044 0)
(0.00562442 -0.00186835 0)
(0.00572131 -0.001762 0)
(0.00577166 -0.00152276 0)
(0.0057534 -0.00110439 0)
(0.00563923 -0.000454807 0)
(0.00539548 0.000478498 0)
(0.00499149 0.00172738 0)
(0.0044021 0.00328211 0)
(0.00361904 0.00504702 0)
(0.00266807 0.00676307 0)
(0.00163055 0.00788985 0)
(0.000668086 0.00746722 0)
(4.69747e-05 0.00404748 0)
(2.07997e-05 -0.00122395 0)
(0.000362196 -0.00321276 0)
(0.000987904 -0.00479941 0)
(0.00182231 -0.00601526 0)
(0.00280382 -0.00688319 0)
(0.00387718 -0.00742855 0)
(0.00499388 -0.0076829 0)
(0.00611378 -0.00768344 0)
(0.00720514 -0.00747058 0)
(0.00824418 -0.00708535 0)
(0.00921413 -0.00656715 0)
(0.0101042 -0.00595222 0)
(0.0109083 -0.00527269 0)
(0.0116244 -0.00455615 0)
(0.0122528 -0.00382561 0)
(0.0127961 -0.00309972 0)
(0.0132581 -0.00239318 0)
(0.013643 -0.00171719 0)
(0.0139557 -0.00108001 0)
(0.0142008 -0.000487592 0)
(0.0143829 5.57741e-05 0)
(0.0145041 0.00054575 0)
(0.0145694 0.000981607 0)
(0.0145831 0.00136488 0)
(0.0145495 0.00169749 0)
(0.0144727 0.00198187 0)
(0.0143565 0.0022209 0)
(0.0142048 0.00241771 0)
(0.0140212 0.00257562 0)
(0.0138091 0.002698 0)
(0.0135717 0.00278822 0)
(0.0133121 0.00284954 0)
(0.0130332 0.00288513 0)
(0.0127377 0.00289793 0)
(0.0124284 0.00289074 0)
(0.0121076 0.00286609 0)
(0.0117777 0.00282631 0)
(0.011441 0.00277352 0)
(0.0110996 0.00270961 0)
(0.0107554 0.00263625 0)
(0.0104103 0.00255496 0)
(0.010066 0.00246706 0)
(0.00972408 0.00237372 0)
(0.00938614 0.00227598 0)
(0.00905353 0.00217476 0)
(0.00872754 0.00207089 0)
(0.00840934 0.0019651 0)
(0.0081 0.00185803 0)
(0.00780047 0.00175029 0)
(0.00751161 0.00164238 0)
(0.00723419 0.00153479 0)
(0.00696887 0.00142793 0)
(0.0067162 0.00132216 0)
(0.00647665 0.0012178 0)
(0.0062506 0.00111512 0)
(0.00603834 0.00101432 0)
(0.00584009 0.000915559 0)
(0.00565599 0.000818934 0)
(0.0054861 0.00072449 0)
(0.00533043 0.000632214 0)
(0.00518893 0.000542037 0)
(0.00506152 0.000453829 0)
(0.00494805 0.000367406 0)
(0.00484835 0.000282522 0)
(0.00476222 0.000198869 0)
(0.00468944 0.00011608 0)
(0.00462982 3.36527e-05 0)
(0.00458281 -4.87902e-05 0)
(0.00454919 -0.000131215 0)
(0.00452836 -0.000214012 0)
(0.00452006 -0.000297928 0)
(0.00452401 -0.000383657 0)
(0.00453989 -0.000471932 0)
(0.00456735 -0.000563523 0)
(0.00460604 -0.000659222 0)
(0.00465555 -0.000759809 0)
(0.00471541 -0.00086601 0)
(0.00478507 -0.00097841 0)
(0.00486387 -0.00109733 0)
(0.00495096 -0.00122263 0)
(0.00504528 -0.00135347 0)
(0.00514545 -0.00148786 0)
(0.00524965 -0.00162223 0)
(0.00535544 -0.00175061 0)
(0.00545951 -0.00186383 0)
(0.00555733 -0.00194834 0)
(0.00564267 -0.00198495 0)
(0.00570695 -0.00194748 0)
(0.00573852 -0.00180158 0)
(0.00572179 -0.00150412 0)
(0.00563663 -0.00100383 0)
(0.00545808 -0.000243742 0)
(0.00515685 0.000830017 0)
(0.00470885 0.00224381 0)
(0.00409494 0.00397644 0)
(0.00331421 0.00590663 0)
(0.00239891 0.00773097 0)
(0.00143309 0.00884535 0)
(0.000567839 0.00821906 0)
(3.47856e-05 0.00436561 0)
(2.14066e-05 -0.0014108 0)
(0.000369375 -0.00370637 0)
(0.00100434 -0.00553411 0)
(0.00184652 -0.00692697 0)
(0.00283087 -0.00791205 0)
(0.00389961 -0.00852137 0)
(0.00500285 -0.00879484 0)
(0.00610018 -0.00877852 0)
(0.00716044 -0.00852141 0)
(0.0081611 -0.00807232 0)
(0.00908707 -0.00747734 0)
(0.00992944 -0.00677817 0)
(0.0106843 -0.00601128 0)
(0.0113512 -0.00520747 0)
(0.0119328 -0.00439207 0)
(0.012433 -0.00358523 0)
(0.0128572 -0.0028025 0)
(0.0132111 -0.00205545 0)
(0.0135002 -0.00135235 0)
(0.01373 -0.000698843 0)
(0.0139054 -9.8509e-05 0)
(0.0140306 0.00044521 0)
(0.0141082 0.000930727 0)
(0.0141427 0.00135972 0)
(0.0141374 0.00173424 0)
(0.0140957 0.00205694 0)
(0.0140209 0.00233086 0)
(0.0139157 0.00255935 0)
(0.0137829 0.00274589 0)
(0.013625 0.00289403 0)
(0.0134443 0.00300729 0)
(0.0132432 0.00308906 0)
(0.0130236 0.00314262 0)
(0.0127877 0.00317105 0)
(0.0125374 0.00317721 0)
(0.0122747 0.00316375 0)
(0.0120013 0.0031331 0)
(0.0117191 0.00308745 0)
(0.0114298 0.00302879 0)
(0.011135 0.00295888 0)
(0.0108363 0.00287932 0)
(0.0105354 0.00279152 0)
(0.0102337 0.00269675 0)
(0.00993258 0.00259613 0)
(0.00963346 0.00249069 0)
(0.00933762 0.00238132 0)
(0.00904626 0.00226885 0)
(0.00876053 0.00215404 0)
(0.00848149 0.00203755 0)
(0.00821013 0.00192002 0)
(0.00794732 0.001802 0)
(0.0076939 0.00168401 0)
(0.00745057 0.0015665 0)
(0.00721799 0.00144989 0)
(0.0069967 0.00133451 0)
(0.00678717 0.00122068 0)
(0.00658978 0.00110861 0)
(0.00640484 0.000998491 0)
(0.00623257 0.000890437 0)
(0.00607313 0.000784501 0)
(0.00592661 0.000680672 0)
(0.00579302 0.000578876 0)
(0.00567233 0.000478974 0)
(0.00556446 0.000380764 0)
(0.00546925 0.000283979 0)
(0.00538653 0.000188279 0)
(0.00531609 9.32451e-05 0)
(0.00525757 -1.71483e-06 0)
(0.00521082 -9.67311e-05 0)
(0.00517616 -0.00019187 0)
(0.00515298 -0.000287766 0)
(0.00514099 -0.000385103 0)
(0.00513973 -0.000484581 0)
(0.00514874 -0.000586929 0)
(0.00516745 -0.000692888 0)
(0.00519527 -0.000803174 0)
(0.00523149 -0.000918426 0)
(0.00527529 -0.00103911 0)
(0.00532575 -0.00116541 0)
(0.00538172 -0.00129697 0)
(0.00544187 -0.00143267 0)
(0.00550455 -0.00157019 0)
(0.00556769 -0.00170542 0)
(0.00562869 -0.00183171 0)
(0.00568416 -0.0019389 0)
(0.00572964 -0.00201207 0)
(0.00575913 -0.00203012 0)
(0.00576458 -0.00196431 0)
(0.00573516 -0.001777 0)
(0.00565657 -0.00142107 0)
(0.00551074 -0.000840823 0)
(0.00527451 2.48581e-05 0)
(0.00492449 0.00122771 0)
(0.00444107 0.00278987 0)
(0.00381078 0.00467758 0)
(0.00303866 0.00674412 0)
(0.00216168 0.00864454 0)
(0.00126427 0.00971915 0)
(0.000485898 0.00888323 0)
(2.59961e-05 0.00463435 0)
(2.22801e-05 -0.00160177 0)
(0.000377265 -0.00420802 0)
(0.0010204 -0.00627643 0)
(0.00186716 -0.00784199 0)
(0.0028489 -0.00893688 0)
(0.00390563 -0.00960107 0)
(0.0049865 -0.00988392 0)
(0.00605121 -0.00984134 0)
(0.00706961 -0.0095317 0)
(0.00802069 -0.00901205 0)
(0.00889128 -0.00833549 0)
(0.00967456 -0.00754934 0)
(0.0103687 -0.00669436 0)
(0.0109754 -0.00580453 0)
(0.0114991 -0.00490729 0)
(0.0119455 -0.00402408 0)
(0.0123213 -0.00317109 0)
(0.0126333 -0.00236002 0)
(0.0128882 -0.00159889 0)
(0.0130921 -0.000892799 0)
(0.0132501 -0.000244678 0)
(0.0133677 0.000343124 0)
(0.0134466 0.000869393 0)
(0.0134913 0.00133572 0)
(0.0135045 0.00174441 0)
(0.0134889 0.00209837 0)
(0.0134471 0.00240094 0)
(0.0133811 0.00265568 0)
(0.0132929 0.00286632 0)
(0.013184 0.00303655 0)
(0.0130561 0.00317003 0)
(0.0129105 0.00327025 0)
(0.0127486 0.00334055 0)
(0.0125717 0.00338408 0)
(0.0123811 0.00340373 0)
(0.0121781 0.00340219 0)
(0.0119639 0.0033819 0)
(0.0117399 0.00334508 0)
(0.0115072 0.00329375 0)
(0.0112673 0.00322969 0)
(0.0110213 0.00315453 0)
(0.0107707 0.00306972 0)
(0.0105166 0.00297656 0)
(0.0102602 0.00287621 0)
(0.010003 0.00276974 0)
(0.00974591 0.00265811 0)
(0.00949028 0.0025422 0)
(0.0092372 0.00242282 0)
(0.00898773 0.00230071 0)
(0.00874291 0.00217657 0)
(0.0085037 0.00205104 0)
(0.008271 0.0019247 0)
(0.00804565 0.00179809 0)
(0.00782839 0.00167171 0)
(0.00761992 0.00154597 0)
(0.00742084 0.00142127 0)
(0.00723166 0.00129792 0)
(0.00705284 0.00117617 0)
(0.00688473 0.00105623 0)
(0.00672763 0.000938208 0)
(0.00658174 0.000822181 0)
(0.0064472 0.000708136 0)
(0.00632408 0.000596 0)
(0.00621238 0.000485632 0)
(0.00611203 0.00037682 0)
(0.0060229 0.000269283 0)
(0.00594479 0.000162665 0)
(0.0058775 5.64723e-05 0)
(0.00582033 -4.97948e-05 0)
(0.00577391 -0.000156112 0)
(0.00573763 -0.000262751 0)
(0.00571109 -0.000370388 0)
(0.00569382 -0.000479658 0)
(0.00568523 -0.000591217 0)
(0.00568466 -0.000705728 0)
(0.00569135 -0.000823815 0)
(0.00570443 -0.000946009 0)
(0.0057229 -0.00107265 0)
(0.00574563 -0.00120374 0)
(0.00577129 -0.00133874 0)
(0.00579834 -0.00147627 0)
(0.00582495 -0.00161367 0)
(0.00584892 -0.00174636 0)
(0.00586754 -0.00186708 0)
(0.00587743 -0.00196479 0)
(0.00587421 -0.00202334 0)
(0.00585218 -0.00201995 0)
(0.00580379 -0.0019236 0)
(0.00571904 -0.00169374 0)
(0.00558484 -0.00127976 0)
(0.00538496 -0.00062215 0)
(0.00509862 0.000342871 0)
(0.00470773 0.00166351 0)
(0.00419609 0.00335811 0)
(0.00355549 0.00537965 0)