/*--------------------------------*- C++ -*----------------------------------*\
  =========                 |
  \\      /  F ield         | OpenFOAM: The Open Source CFD Toolbox
   \\    /   O peration     | Website:  https://openfoam.org
    \\  /    A nd           | Version:  6
     \\/     M anipulation  |
\*---------------------------------------------------------------------------*/
FoamFile
{
    version     2.0;
    format      ascii;
    class       volVectorField;
    location    "0";
    object      U;
}
// * * * * * * * * * * * * * * * * * * * * * * * * * * * * * * * * * * * * * //

dimensions      [0 1 -1 0 0 0 0];

internalField   nonuniform List<vector> 
13046
(
(-0.366853 0.124228 0)
(-0.700526 -0.315018 -4.27175e-21)
(-0.17243 -0.173947 -8.63987e-21)
(-0.35245 0.0217552 0)
(-0.100504 -0.0932464 -8.17387e-21)
(-0.583457 -0.31694 0)
(-0.402728 0.0502364 1.31118e-21)
(-0.665705 -0.367544 2.11368e-21)
(-0.0663204 -0.0781026 -8.81929e-21)
(-1.17142 0.518761 3.0243e-21)
(-1.45706 -0.706872 0)
(0.0807483 -0.0112898 5.10022e-21)
(-0.527447 0.179825 -4.17427e-21)
(-0.879875 -0.42094 -6.14981e-21)
(-0.0664957 -0.123667 4.56831e-21)
(-1.09156 0.574292 -4.26045e-21)
(0.0258291 -0.0332893 1.21204e-20)
(-1.50912 -0.6096 1.15368e-21)
(-0.146953 -0.0167088 0)
(-0.40546 -0.268414 -4.49087e-21)
(-0.405576 -0.103395 1.36878e-20)
(-1.10762 0.564979 -1.68658e-21)
(0.0419342 -0.0256453 -1.62028e-20)
(-1.50049 -0.631417 0)
(-0.29482 0.0366992 5.39728e-21)
(-0.556583 -0.26482 -1.0608e-20)
(-0.174281 -0.155109 0)
(-0.542803 0.216096 -7.50682e-21)
(-0.916748 -0.418611 1.83055e-21)
(-0.084423 -0.138667 -8.021e-21)
(-0.378703 0.149651 0)
(-0.732218 -0.300897 0)
(-0.197387 -0.195708 8.79263e-21)
(-0.260238 0.00172481 -6.27065e-21)
(-0.200979 -0.158358 3.06926e-21)
(-0.478756 -0.224783 1.84898e-20)
(-0.266724 -0.0259712 -9.62872e-21)
(-0.194303 -0.135027 4.74718e-21)
(-0.440331 -0.218266 -9.41878e-21)
(-0.276773 0.145556 6.52639e-21)
(-0.439089 -0.35839 1.54447e-21)
(-0.671879 -0.183404 -6.64045e-21)
(-0.292563 -0.105682 4.3324e-21)
(-0.225792 -0.107829 7.25725e-21)
(-0.316824 -0.169339 0)
(-0.319124 -0.0961344 2.83844e-21)
(-0.182727 -0.0789967 -1.11899e-20)
(-0.351415 -0.202246 -1.38235e-21)
(-0.392779 0.11809 0)
(-0.723282 -0.341938 -3.00437e-22)
(-0.123106 -0.147224 -8.1142e-23)
(-0.708626 -0.552036 9.29525e-21)
(-0.227523 0.157443 0)
(-0.725661 -0.0800671 -7.81322e-21)
(-0.800434 -0.611435 -1.32554e-20)
(-0.734794 -0.046665 -1.26152e-20)
(-0.188537 0.134564 9.5868e-21)
(-1.32394 -0.422009 -1.10152e-21)
(-0.835814 0.504943 0)
(-0.195312 -0.20972 6.75443e-21)
(-0.766564 0.211897 -3.99423e-21)
(-1.09952 -0.635007 3.2356e-21)
(0.0555883 -0.0271716 -1.90581e-20)
(0.0745955 -0.0376224 9.50013e-21)
(-1.42074 -0.689346 -1.34031e-21)
(-1.06667 0.451747 -5.67576e-21)
(-0.778775 0.487651 0)
(-1.26009 -0.369639 0)
(-0.260621 -0.266161 0)
(-0.727234 0.454891 -2.77011e-21)
(-1.20453 -0.350933 0)
(-0.282294 -0.283515 5.38517e-21)
(-1.37792 -0.433228 0)
(-0.885314 0.5344 6.24402e-23)
(-0.175059 -0.197681 -5.78411e-23)
(-0.155901 0.00743361 0)
(-0.405414 -0.284671 4.80817e-21)
(-0.449335 -0.129067 -9.68423e-21)
(-0.0964776 -0.131477 7.37586e-21)
(-0.956312 0.557643 -8.17881e-21)
(-1.43872 -0.493679 0)
(-0.327914 0.0490144 2.86901e-21)
(-0.59605 -0.292995 0)
(-0.13658 -0.128904 0)
(0.0756165 -0.0315125 -8.46216e-21)
(-1.4463 -0.694318 -7.99739e-22)
(-1.10357 0.477595 3.34028e-21)
(-1.1063 0.357824 -6.0057e-21)
(0.0988019 -0.024611 0)
(-1.37269 -0.793149 -1.09397e-21)
(0.0542089 -0.0130294 0)
(-1.18894 0.27711 0)
(-1.34251 -0.902643 1.16658e-22)
(-0.807279 0.339907 0)
(-0.865149 0.35588 3.44759e-21)
(-1.20695 -0.565632 6.02855e-21)
(-1.25471 -0.606883 -2.79284e-21)
(0.00666052 -0.0884024 -3.97437e-21)
(0.0351769 -0.0689908 1.02509e-20)
(0.0933888 -0.0214233 -4.87258e-22)
(-1.09429 0.328926 5.87648e-21)
(-1.34818 -0.812068 0)
(-0.326375 -0.0673259 -1.14613e-23)
(-0.152345 -0.0768934 5.77271e-21)
(-0.412621 -0.240924 0)
(-0.0939798 0.0742148 0)
(-0.630587 -0.00828845 -4.00072e-21)
(-0.770248 -0.542533 0)
(-0.212126 0.135905 1.10647e-20)
(-0.620937 -0.474012 0)
(-0.665356 -0.107931 -1.52411e-20)
(-1.13039 0.524353 0)
(0.0636404 0.00321386 0)
(-1.3188 -0.666903 1.07965e-21)
(-0.464338 0.148667 1.15202e-20)
(-0.814988 -0.386639 2.73514e-21)
(-0.080051 -0.12316 8.43196e-21)
(-0.881936 0.421796 4.38647e-21)
(-0.819958 0.378447 -8.29713e-21)
(-1.30433 -0.558296 -5.04209e-21)
(-0.0183993 -0.0981523 4.53617e-21)
(-1.23626 -0.53954 2.83668e-21)
(-0.0229928 -0.104287 -4.23716e-21)
(-1.16611 0.534306 -2.0715e-21)
(-1.44729 -0.69321 5.93483e-23)
(0.0753597 -0.00560729 -2.27438e-21)
(-0.684458 0.286955 0)
(-1.07612 -0.495829 -4.39914e-21)
(-0.0401197 -0.120469 9.60372e-21)
(-0.325342 0.166939 0)
(-0.378163 -0.32229 -7.84277e-21)
(-0.715347 -0.220931 3.84519e-22)
(0.0454281 -0.00517576 0)
(-1.13659 0.251853 0)
(-1.32084 -0.887738 0)
(-0.970247 0.371719 0)
(-1.32614 -0.684203 -6.7356e-21)
(0.0767874 -0.0434301 -1.09154e-20)
(-0.435326 0.17852 0)
(-0.799643 -0.334219 0)
(-0.179279 -0.197452 0)
(-0.55473 0.088723 0)
(-0.838844 -0.50367 0)
(-0.0027801 -0.024215 0)
(-0.189905 0.129536 0)
(-0.686125 -0.516633 0)
(-0.673151 -0.0792724 8.26131e-21)
(-0.0917835 0.0618644 -1.12158e-21)
(-0.601785 -0.0161304 -8.75607e-21)
(-0.747131 -0.517192 8.65321e-21)
(-0.815462 0.239834 9.10595e-21)
(-1.14823 -0.652747 0)
(0.0655948 -0.0351523 2.47242e-20)
(-0.062387 0.0088081 0)
(-0.498237 -0.0101197 9.40611e-21)
(-0.663225 -0.432847 -2.24503e-21)
(-0.954329 -0.689566 0)
(-0.764891 0.0421214 9.0545e-21)
(-1.02819 -0.721337 0)
(-0.799937 0.0865948 5.22635e-21)
(-0.0911126 0.0827781 0)
(-0.0467569 0.05736 0)
(-0.593108 0.050083 1.21821e-21)
(-0.827563 -0.539035 4.47383e-21)
(-0.0206324 0.0116038 -4.86413e-21)
(-1.19304 0.498208 -3.10051e-21)
(0.0886973 -0.0148306 0)
(-1.43388 -0.734434 -9.47387e-22)
(-1.14879 0.532192 -1.62936e-21)
(0.0680597 0.0028799 -1.0415e-21)
(-1.37964 -0.675365 0)
(-0.993692 0.399582 -4.92535e-21)
(-1.35302 -0.680274 0)
(0.0729996 -0.0450489 1.24013e-20)
(-0.429374 0.24956 0)
(-0.852053 -0.242289 1.99233e-21)
(-0.409033 -0.361347 4.45885e-21)
(-0.570262 0.0260693 7.93747e-21)
(-0.0424636 0.0277169 2.37243e-21)
(-0.774808 -0.506152 0)
(0.0983336 -0.0222802 0)
(-1.42222 -0.786113 0)
(-1.20708 0.445734 2.50606e-21)
(-0.375445 0.217611 0)
(-0.790724 -0.217927 -4.43243e-21)
(-0.425081 -0.357823 1.17158e-21)
(-0.0597606 0.0237156 0)
(-0.521218 -0.00866429 0)
(-0.680842 -0.453043 0)
(-0.510182 0.0603456 3.9248e-21)
(-0.78006 -0.470791 0)
(-0.0152174 -0.0294567 0)
(-0.959648 -0.482545 1.32518e-23)
(-0.0177818 -0.0943905 -5.71807e-21)
(-0.635665 0.254217 1.18722e-20)
(-1.02447 -0.475047 0)
(-0.0435823 -0.117839 -1.20315e-20)
(-1.13196 0.42428 -5.94909e-21)
(0.0982922 -0.0267231 7.71698e-21)
(-1.42094 -0.759147 -4.23672e-21)
(0.0684185 -0.00937074 7.11702e-21)
(-1.08763 0.271572 3.75555e-21)
(-1.31656 -0.848795 5.65892e-21)
(-1.17583 0.326995 -9.60598e-21)
(-1.37143 -0.851867 0)
(0.0861382 -0.0215646 -6.98608e-21)
(-0.752484 -0.607032 -4.67479e-22)
(-0.815536 -0.0883642 3.45976e-21)
(-0.298652 0.214872 0)
(-0.495668 0.113701 -1.76568e-20)
(-0.940082 0.569988 4.24039e-21)
(-0.125325 -0.150315 -4.53682e-21)
(-1.4395 -0.479887 0)
(-1.3838 -0.850377 0)
(-1.20652 0.360766 -8.1082e-21)
(0.0921155 -0.0253551 0)
(-0.304374 -0.0311859 -1.41913e-20)
(-0.149892 -0.100376 -4.66281e-21)
(-0.460293 -0.250724 1.37594e-20)
(-0.514051 0.22289 0)
(-0.895948 -0.390507 -2.6865e-22)
(-0.130402 -0.165509 -4.6114e-21)
(0.0529175 -0.00376271 5.49111e-21)
(-1.09549 0.254099 0)
(-1.30635 -0.868038 -6.52351e-21)
(-0.545418 0.14437 1.4119e-20)
(-0.936572 -0.48976 1.09568e-20)
(-0.00725799 -0.0818135 0)
(0.0833364 -0.0113035 0)
(-1.3779 -0.729527 -3.03921e-22)
(-1.20259 0.501402 0)
(-0.251353 0.182878 0)
(-0.799398 -0.0610212 0)
(-0.808238 -0.647663 0)
(-1.12753 0.310514 8.42421e-21)
(-1.35348 -0.834467 0)
(0.0859921 -0.019138 -4.1844e-23)
(-0.689856 0.0690742 3.45988e-21)
(-0.928865 -0.628923 -3.25897e-21)
(-0.023759 0.0352395 0)
(-0.684015 0.310174 0)
(-1.0868 -0.477488 4.129e-21)
(-0.0686622 -0.135833 7.54306e-21)
(-1.21872 -0.87329 -9.47267e-21)
(-1.01712 0.157655 -6.84847e-21)
(-0.0236294 0.0400724 4.32616e-21)
(-0.860291 0.101679 0)
(-1.08612 -0.768598 -4.14124e-21)
(-0.0482854 0.0577512 -1.59277e-22)
(0.0813753 -0.0152328 -6.75663e-21)
(-1.34817 -0.737192 0)
(-1.21433 0.485677 -1.35538e-21)
(-0.297337 0.185299 5.95062e-21)
(-0.554549 -0.443336 -5.5791e-21)
(-0.735413 -0.157501 6.46249e-22)
(-1.04704 0.560207 1.3953e-21)
(0.0486457 0.0205474 -9.74634e-21)
(-1.33083 -0.584591 0)
(-0.123134 -0.03927 -2.76152e-21)
(-0.378211 -0.0719461 -1.10569e-20)
(-0.450613 -0.283471 1.34556e-20)
(-0.689748 0.121329 4.1156e-21)
(-0.660556 0.0782675 3.43478e-23)
(-0.977171 -0.6144 -8.07712e-21)
(-0.912214 -0.601694 0)
(-0.00867799 0.019551 4.42151e-21)
(0.0227437 -0.00107637 -4.53659e-21)
(-0.0656493 -0.104046 -9.65463e-21)
(-0.994112 0.570808 4.39482e-21)
(-1.47804 -0.512845 -3.73273e-21)
(-0.632474 0.298117 0)
(-1.03784 -0.434311 0)
(-0.117074 -0.164053 -9.89463e-21)
(-0.915447 0.139039 -1.83887e-21)
(-1.14417 -0.806 0)
(-0.0204278 0.0419016 0)
(-0.931676 0.402793 -4.22291e-21)
(-1.32129 -0.617741 0)
(0.0370769 -0.0667142 4.46242e-21)
(-0.257005 -0.0854232 2.88103e-21)
(-0.330915 -0.15488 4.22317e-21)
(-0.247566 -0.133848 -1.44435e-21)
(-0.770196 0.104665 -6.65318e-21)
(-1.02346 -0.693309 0)
(-0.0123259 0.0360573 -7.46623e-21)
(-0.648773 0.32204 0)
(-1.06509 -0.425618 5.1822e-21)
(-0.137495 -0.179021 -6.245e-21)
(-0.573938 0.17858 0)
(-0.630552 0.207287 1.40131e-21)
(-0.314933 0.200953 2.13748e-21)
(-0.575184 -0.465309 1.61161e-20)
(-0.760901 -0.150615 -1.53757e-20)
(-0.810337 0.141284 -6.82053e-21)
(-1.07686 -0.715363 6.4867e-21)
(0.0180033 0.018408 6.81356e-21)
(-0.972788 0.415002 0)
(0.0542562 -0.0550428 -1.58429e-20)
(-1.3581 -0.647117 -3.01214e-21)
(-0.207345 0.119985 -1.53338e-20)
(-0.578168 -0.446541 0)
(-0.639806 -0.112733 5.10569e-21)
(-0.121052 0.103036 -8.80139e-21)
(-0.792051 0.0315613 -5.15315e-21)
(-0.959385 -0.716234 0)
(-0.803159 0.414092 -4.21048e-21)
(-1.24386 -0.479994 -4.18543e-21)
(-0.0974936 -0.148169 2.78421e-21)
(-0.273433 0.186287 7.67328e-22)
(-0.671016 -0.531627 0)
(-0.755037 -0.104526 1.0808e-20)
(-0.853792 0.446326 0)
(-0.888898 0.452535 0)
(-1.30227 -0.50415 -2.45486e-21)
(-0.0804018 -0.134808 -7.27489e-21)
(-1.32854 -0.540491 3.47448e-21)
(-0.0444038 -0.109384 7.70047e-21)
(0.0976013 -0.0220187 -5.92777e-21)
(-1.4314 -0.766337 0)
(-1.18385 0.458458 -3.93875e-21)
(-0.764685 0.359389 4.93664e-21)
(-1.18139 -0.506329 0)
(-0.0554435 -0.124891 2.55555e-21)
(-1.1582 -0.603686 -5.08384e-21)
(0.0426399 0.00994898 8.56049e-21)
(-1.01628 0.508148 1.27058e-21)
(-0.459301 -0.049952 -5.18587e-21)
(-0.0902474 0.00579125 0)
(-0.564855 -0.370936 0)
(-0.698573 0.187396 9.53582e-21)
(-1.03588 -0.588263 0)
(0.0439363 -0.0369226 1.47474e-20)
(0.0932302 -0.031438 -4.91045e-21)
(-1.0834 0.411382 1.23304e-20)
(-1.39904 -0.733555 3.72999e-21)
(-0.834215 -0.641219 0)
(-0.760167 -0.0365441 4.61869e-21)
(-0.191403 0.146411 -1.08663e-20)
(-1.25057 -0.876728 -1.07381e-20)
(-1.04683 0.192143 -4.11418e-21)
(0.00771655 0.0199101 0)
(-0.839426 -0.444476 -1.15403e-20)
(-0.0264143 -0.0797959 0)
(-0.742649 0.25195 1.0076e-20)
(-1.09427 -0.573028 3.67392e-21)
(0.0346983 -0.0673172 4.46251e-21)
(-0.827826 -0.463779 6.66925e-21)
(-0.0122031 -0.0630008 -3.38115e-23)
(-1.06999 0.556754 -2.82353e-22)
(0.0147979 -0.0470053 5.72742e-21)
(-1.49533 -0.597226 -1.69732e-21)
(-0.733359 -0.6174 0)
(-0.8609 -0.108552 1.06543e-21)
(-0.347671 0.247418 0)
(-0.794386 0.280863 -1.02669e-20)
(-1.16272 -0.601925 -4.47592e-21)
(0.0487306 -0.0588686 -5.35182e-21)
(-0.580582 0.0824782 0)
(-0.847415 -0.530487 -6.49633e-21)
(-0.00256242 -0.00916932 0)
(-0.655889 -0.0376396 0)
(-0.741888 -0.550644 0)
(-0.140718 0.0988475 0)
(-0.37319 0.0852586 -3.96996e-21)
(-0.670236 -0.331144 -6.57154e-21)
(-0.11657 -0.131484 -1.43311e-23)
(-0.158868 0.128511 1.0903e-20)
(-0.786234 0.00142511 1.24899e-20)
(-0.912441 -0.691908 6.2767e-21)
(-1.15316 0.390707 -4.86624e-21)
(-1.39981 -0.789785 3.50389e-21)
(0.101439 -0.0252474 -7.3119e-21)
(-1.26055 -0.855229 7.38415e-21)
(-1.03303 0.209126 4.17009e-21)
(0.0300265 0.0109 5.56303e-21)
(-0.621922 0.396736 -8.49021e-21)
(-0.378832 -0.352106 8.07439e-21)
(-1.09657 -0.292017 -6.21827e-21)
(-0.924609 0.513773 2.4051e-21)
(-0.881142 0.48563 -2.24072e-21)
(-1.3445 -0.485994 -7.81482e-22)
(-1.3906 -0.502063 0)
(-0.0875379 -0.130059 -2.61892e-21)
(-0.106345 -0.148475 -2.35387e-21)
(0.0474645 0.014025 -1.15976e-20)
(-1.21254 -0.598242 5.60156e-21)
(-1.03284 0.516232 1.06571e-21)
(-1.06356 0.568655 -1.11778e-22)
(0.0499984 0.0194065 1.34833e-20)
(-1.37545 -0.589296 0)
(-0.746088 0.150223 -1.52381e-20)
(-1.04668 -0.649731 -1.71211e-21)
(0.0328089 -0.00112423 0)
(0.0963911 -0.0245192 -1.48517e-20)
(-1.15174 0.446536 3.91908e-21)
(-1.43617 -0.751942 0)
(-0.72747 0.422684 1.2362e-20)
(-0.775747 0.441325 -9.19833e-21)
(-1.18734 -0.395485 4.68751e-21)
(-1.23436 -0.425361 1.72402e-21)
(-0.221865 -0.234382 -4.65569e-21)
(-0.175944 -0.199527 -2.33179e-21)
(0.0857608 -0.0324315 0)
(-1.36319 -0.858493 0)
(-1.26768 0.362091 1.30878e-21)
(-0.983353 0.55539 -1.63806e-21)
(0.0429506 0.0264145 0)
(-1.28272 -0.550184 0)
(-0.399571 -0.142969 2.75539e-23)
(-0.187311 -0.0237857 6.18041e-21)
(-0.316257 -0.216215 2.99985e-21)
(-1.07541 0.533031 -2.2211e-21)
(-1.29924 -0.63005 -1.57918e-21)
(0.0548203 0.0122218 6.34227e-22)
(-0.495693 0.275443 0)
(-0.913454 -0.292471 -8.84376e-21)
(-0.324898 -0.303722 -8.45617e-23)
(-1.21122 0.429046 1.44755e-22)
(-1.41313 -0.803295 3.54786e-21)
(0.100171 -0.0240825 7.34822e-24)
(-1.02187 -0.604016 -1.39516e-22)
(0.0363955 -0.00388369 -4.9687e-21)
(-0.99518 0.429446 3.81103e-23)
(-0.225582 0.111468 -5.63164e-21)
(-0.451987 -0.351601 5.06008e-21)
(-0.610329 -0.157542 1.62813e-20)
(-0.389784 -0.039055 0)
(-0.529679 -0.322741 -1.49358e-20)
(-0.0960357 -0.0408855 7.51805e-21)
(-1.14718 0.555513 0)
(0.0673792 -0.00259382 6.77787e-21)
(-1.45692 -0.674402 -1.72978e-22)
(-0.418157 -0.0246971 0)
(-0.57043 -0.350836 -5.09443e-21)
(-0.0770517 -0.0224708 -1.06744e-20)
(-0.365936 -0.136087 6.39249e-21)
(-0.197665 -0.0481005 -3.26601e-21)
(-0.304584 -0.194493 1.60372e-21)
(-0.238544 0.178941 5.26718e-21)
(-0.831527 -0.0360156 -4.32633e-21)
(-0.885046 -0.709813 6.90738e-21)
(-0.464637 -0.106093 0)
(-0.454401 -0.310108 0)
(-0.135725 0.0246097 9.01627e-22)
(-0.477564 -0.0710598 8.20826e-21)
(-0.527301 -0.351141 3.87994e-21)
(-0.114196 0.0254781 1.26787e-22)
(-0.571579 0.367713 1.29016e-20)
(-1.03535 -0.261718 -6.58706e-21)
(-0.433154 -0.397443 -8.05012e-21)
(0.0674719 -0.0187977 1.0236e-20)
(0.0770465 -0.0173586 -1.04589e-20)
(-1.48108 -0.682976 7.07314e-22)
(-1.46889 -0.700613 6.00822e-22)
(-1.13753 0.537134 0)
(-1.15282 0.523842 -3.0967e-21)
(-1.18401 0.397277 6.06938e-21)
(-1.40682 -0.80362 -2.52183e-21)
(0.101192 -0.025339 9.06708e-21)
(-0.364179 -0.349651 -5.17812e-21)
(-0.672574 0.437565 2.66347e-21)
(-1.15328 -0.304802 7.92441e-21)
(-0.320711 0.188308 -5.43271e-21)
(-0.485663 -0.396977 -5.12454e-21)
(-0.741351 -0.183725 5.01617e-21)
(-0.882704 0.0758396 0)
(-1.07552 -0.794748 4.28656e-21)
(-0.0936655 0.0831047 1.64544e-22)
(-1.14609 -0.699739 -8.43472e-22)
(0.060301 -0.0240296 -4.65053e-21)
(-1.16596 0.427205 -5.92865e-22)
(0.0697469 -0.0199401 0)
(-1.20499 0.306023 0)
(-1.3539 -0.892486 1.87208e-21)
(-1.17272 0.521219 2.16593e-21)
(0.0764902 -0.00462782 0)
(-1.40049 -0.703902 2.98281e-22)
(0.0284129 0.00209653 -1.85107e-32)
(-0.955928 -0.564502 3.06008e-21)
(-0.921235 0.417541 -2.54015e-22)
(-0.995138 -0.502371 -3.4632e-21)
(0.0271884 0.0153634 1.84666e-32)
(-0.873041 0.474754 2.06701e-22)
(-1.18293 -0.725431 -8.52135e-21)
(-0.8826 0.221607 0)
(0.0621341 -0.0093503 -1.43163e-20)
(-1.30455 -0.810648 1.0166e-22)
(0.081376 -0.0366162 -4.77008e-21)
(-1.28348 0.398164 0)
(-1.00062 0.364309 -6.33455e-21)
(-1.33299 -0.714046 4.09908e-21)
(0.0866701 -0.0364434 7.32777e-21)
(-1.08762 0.608635 8.1354e-21)
(0.0196337 -0.0157036 4.05444e-21)
(-1.52655 -0.572582 0)
(-0.461262 0.11988 3.09996e-21)
(-0.0521892 -0.0964093 -2.89579e-21)
(-0.800549 -0.411216 2.81654e-21)
(-1.36672 -0.873719 8.55128e-22)
(0.0828629 -0.0295749 5.06445e-21)
(-1.25254 0.34535 1.688e-21)
(-0.853579 0.051867 -5.03014e-21)
(-0.120912 0.10219 -2.96278e-21)
(-1.0307 -0.769209 0)
(-1.1642 -0.798446 0)
(-0.91971 0.163931 0)
(0.0090456 0.0266265 0)
(0.00754101 0.00857542 0)
(-0.565998 -0.300027 3.89901e-21)
(-0.532477 0.263416 -1.15907e-21)
(-1.15137 -0.632859 -1.86476e-21)
(0.0463192 0.00184756 -5.99046e-21)
(-1.05 0.489172 -8.78578e-22)
(-0.414119 0.0872439 -7.96869e-21)
(-0.0723151 -0.101017 6.99835e-21)
(-0.720218 -0.37676 3.35886e-21)
(-1.38343 -0.823054 1.96777e-21)
(-1.25112 0.40497 -2.52794e-21)
(0.0942247 -0.0292258 0)
(0.0820735 -0.0360532 -5.28521e-21)
(-1.28885 0.365139 0)
(-1.338 -0.859166 -1.5136e-21)
(-1.13273 0.474968 -3.5901e-21)
(0.085493 -0.0255268 1.58103e-20)
(-1.45091 -0.718233 0)
(-0.0214383 -0.0761209 -1.16771e-20)
(-1.46762 -0.562342 2.76703e-21)
(-1.0167 0.546368 0)
(-0.548871 0.37078 -1.62075e-20)
(-1.02139 -0.237996 8.39122e-21)
(-0.499308 -0.450146 -2.53294e-21)
(-1.30717 -0.451162 1.17151e-21)
(-0.836845 0.483333 5.34337e-21)
(-0.159725 -0.186905 -7.21259e-21)
(-0.0233486 -0.0649663 -1.04364e-20)
(-1.04522 0.592242 0)
(-1.51909 -0.549268 0)
(-0.529405 0.26909 -2.72481e-21)
(-0.593675 0.304826 0)
(-0.935773 -0.345893 -9.14213e-21)
(-1.01421 -0.379827 9.78315e-21)
(-0.225843 -0.229278 1.29818e-21)
(-0.196934 -0.216648 -1.38301e-21)
(-0.483952 0.256889 2.61514e-21)
(-0.8937 -0.308394 0)
(-0.284287 -0.270219 2.44308e-21)
(-0.71419 0.434157 0)
(-1.18166 -0.373386 -7.58913e-21)
(-0.261468 -0.264843 1.67693e-21)
(-1.22857 -0.827102 -3.87245e-21)
(-0.989306 0.19632 4.49436e-21)
(0.0302426 0.0118603 -1.13452e-20)
(-1.39221 -0.838855 0)
(-1.20041 0.383567 8.91647e-21)
(0.0970348 -0.0259777 0)
(0.0657223 -0.00725254 -3.66301e-21)
(-1.02752 0.252594 -2.70986e-21)
(-1.28342 -0.81937 -2.45516e-21)
(-1.06459 -0.514141 5.16608e-22)
(0.0319051 0.0190444 3.19036e-21)
(-0.912446 0.497324 0)
(-0.300216 0.133485 5.24192e-21)
(-0.309249 0.122633 0)
(-0.321258 -0.270745 0)
(-0.665572 -0.228524 1.93588e-20)
(-0.275998 -0.240661 0)
(-0.661644 -0.251829 -1.23687e-20)
(-0.619836 0.373528 0)
(-0.551205 0.330824 0)
(-0.351149 -0.326524 2.24644e-23)
(-1.07225 -0.329256 5.20852e-21)
(-0.312015 -0.295491 1.23e-20)
(-0.99677 -0.296491 -1.12708e-20)
(-1.00236 -0.627696 0)
(0.0410034 -0.0138317 6.80152e-21)
(-1.04371 0.41498 0)
(-1.39099 -0.816506 -1.69013e-21)
(-1.23496 0.405333 8.82199e-22)
(0.0971081 -0.0267331 3.18546e-21)
(-0.369939 0.232219 -9.19902e-21)
(-0.55129 -0.461085 -5.70878e-21)
(-0.812654 -0.176268 1.58456e-20)
(-1.17184 -0.842253 8.58126e-21)
(-0.961634 0.13297 1.15368e-20)
(-0.0381679 0.0512656 0)
(-0.0419126 -0.0932289 1.24877e-20)
(-1.44963 -0.544829 -2.9421e-21)
(-0.992509 0.541618 5.62176e-21)
(-1.27446 -0.690107 0)
(-1.15899 0.494529 0)
(0.0652082 -0.00619375 0)
(-1.2997 -0.721709 0)
(-1.19147 0.479434 1.67783e-21)
(0.0740034 -0.0146985 1.14567e-21)
(-0.768173 0.417592 -5.19933e-21)
(-1.21546 -0.449496 2.57961e-21)
(-0.143579 -0.178623 3.44793e-21)
(-0.173109 0.0988011 -1.46374e-21)
(-0.587903 -0.435567 0)
(-0.602726 -0.091587 -7.45601e-23)
(-1.1539 0.494567 4.18311e-21)
(0.0844187 -0.0210067 9.15515e-21)
(-1.46366 -0.716984 -6.99341e-22)
(-1.20915 -0.760586 0)
(-0.924595 0.227714 0)
(0.0613686 -0.00298889 1.23593e-20)
(0.0539793 -0.0499042 3.03084e-21)
(-1.40117 -0.655819 4.97423e-21)
(-1.02064 0.455969 1.26697e-20)
(-0.515844 0.315889 0)
(-0.401626 -0.363451 -8.3213e-21)
(-0.958761 -0.270741 5.88469e-21)
(-0.674534 0.0361903 7.84722e-23)
(-0.870474 -0.603527 4.77852e-21)
(-0.0621889 0.0572874 0)
(-0.271125 0.151214 4.11152e-23)
(-0.49035 -0.394 -1.71815e-21)
(-0.681427 -0.166358 -6.56956e-21)
(0.0918076 -0.0191053 1.08595e-23)
(-1.44615 -0.745021 1.27444e-21)
(-1.18098 0.482484 4.17011e-21)
(-0.932302 0.434572 -2.40004e-21)
(-1.34423 -0.594641 -1.76968e-21)
(0.01117 -0.0781129 0)
(-0.233365 0.103262 -5.68485e-21)
(-0.398036 -0.312115 1.11064e-20)
(-0.60162 -0.17763 -1.07423e-20)
(-1.06273 0.608166 3.40302e-21)
(-0.0108857 -0.047547 4.60007e-21)
(-1.53562 -0.553267 -8.55577e-22)
(-0.434805 0.199817 -3.34586e-21)
(-0.814761 -0.318556 0)
(-0.222483 -0.225484 0)
(-0.487379 0.0275852 -1.45779e-20)
(-0.704866 -0.43653 3.0975e-21)
(-0.0363731 -0.0134049 0)
(-1.14697 -0.758287 0)
(-0.877398 0.164955 9.7503e-21)
(0.0252239 0.0190055 0)
(-1.08388 0.588706 -1.47298e-21)
(0.0450657 0.0114391 -1.434e-21)
(-1.45961 -0.594473 -1.26268e-21)
(-1.07735 0.601607 4.13342e-21)
(0.0361829 0.00724391 0)
(-1.48484 -0.577637 3.02437e-22)
(0.0382552 -0.0548252 2.70675e-21)
(-1.41878 -0.634726 -2.58381e-21)
(-1.02205 0.477463 -1.16595e-20)
(-0.712904 0.0180654 -4.51806e-21)
(-0.895936 -0.643979 -4.81948e-21)
(-0.0971381 0.0782347 0)
(0.0436039 0.0211313 1.31372e-21)
(-1.40894 -0.575288 1.17156e-21)
(-1.04217 0.580738 0)
(0.0938705 -0.0313731 0)
(-1.36731 -0.739585 -2.74577e-21)
(-1.05509 0.380462 -1.45658e-21)
(0.020473 -0.000690123 5.45656e-21)
(-0.809286 -0.519516 -2.93294e-21)
(-0.830661 0.353629 0)
(-0.741762 0.444497 -8.38115e-23)
(-0.88604 -0.419633 0)
(0.0199534 0.0191275 5.44149e-21)
(-0.0116629 -0.0618048 -2.15177e-23)
(-1.49977 -0.570663 0)
(-1.04525 0.573039 0)
(0.0897825 -0.0155799 0)
(-1.41417 -0.750066 0)
(-1.21073 0.486895 4.88232e-21)
(-1.11598 0.529977 -3.79826e-21)
(-1.09285 0.510504 3.07259e-21)
(0.0572122 -0.0279919 -5.14121e-21)
(-1.48772 -0.658812 -3.03079e-22)
(0.0575044 -0.0345001 -8.39403e-21)
(-1.46858 -0.66173 8.32739e-22)
(-1.0569 0.35602 2.88673e-21)
(-1.35438 -0.761617 1.93674e-21)
(0.096148 -0.0279535 0)
(-0.0852034 0.0796354 0)
(-1.12298 -0.837274 0)
(-0.936385 0.0965011 0)
(-0.295215 0.0824482 0)
(-0.22235 -0.196573 -1.5537e-20)
(-0.60765 -0.258052 6.73e-21)
(-1.01731 0.290655 8.49199e-21)
(-1.29755 -0.78483 8.18502e-22)
(0.0856629 -0.0180828 1.07547e-20)
(0.0739264 -0.010738 7.00731e-21)
(-0.997605 0.264428 -1.1814e-20)
(-1.26916 -0.79188 -1.13406e-21)
(-1.01835 0.598244 4.23851e-21)
(-0.0558716 -0.0899734 4.98565e-21)
(-1.51154 -0.516679 3.89585e-21)
(-0.644768 0.39553 0)
(-1.1081 -0.330984 2.26862e-21)
(-0.317073 -0.303981 -1.20576e-20)
(-0.546522 0.309001 0)
(-0.970828 -0.312528 1.16101e-20)
(-0.309241 -0.296583 -3.68733e-23)
(-0.879807 0.26383 -1.15661e-20)
(-1.20879 -0.697682 1.14229e-21)
(0.0761795 -0.0289289 -6.24147e-21)
(-0.909277 0.25951 0)
(-1.22113 -0.722032 1.08076e-21)
(0.0765717 -0.0216093 5.71089e-21)
(-0.202294 0.0740083 0)
(-0.396287 -0.300232 -1.75493e-20)
(-0.547809 -0.160995 6.01822e-21)
(-0.616165 0.327236 0)
(-1.03994 -0.377013 0)
(-0.209109 -0.229352 1.85766e-21)
(0.0724865 -0.0276723 -1.09614e-20)
(-1.34989 -0.891279 -4.93195e-21)
(-1.25359 0.323469 0)
(-1.21716 0.456824 1.59083e-21)
(0.0736336 -0.0224472 0)
(-1.25615 -0.737647 -4.62008e-22)
(-1.21074 0.431375 -3.40081e-22)
(0.0683739 -0.0268961 0)
(-1.21017 -0.730578 1.60596e-21)
(-0.377189 0.20335 3.88354e-21)
(-0.370898 -0.317841 -1.82688e-21)
(-0.77861 -0.244269 -1.9806e-22)
(-1.19523 -0.663198 3.10611e-22)
(0.0567541 -0.00698051 9.17601e-21)
(-1.12749 0.478018 0)
(-0.980941 0.471634 1.01726e-20)
(0.0144026 -0.0698784 5.74039e-21)
(-1.39325 -0.603851 0)
(0.0539324 -0.0158139 -1.36677e-21)
(-1.13235 -0.67797 1.69122e-21)
(-1.12384 0.441349 0)
(-0.348433 -0.00622732 9.87174e-21)
(-0.108455 -0.0772219 9.57499e-21)
(-0.536316 -0.299424 7.79576e-24)
(-0.665305 0.243813 -1.74816e-21)
(-1.0422 -0.514205 -1.41605e-21)
(-0.00657241 -0.0937087 -6.53141e-21)
(-0.824589 -0.610659 1.10017e-20)
(-0.702 -0.01493 1.07246e-20)
(-0.137894 0.101958 0)
(0.085707 -0.0344138 0)
(-1.33318 -0.822571 -1.03881e-22)
(-1.27988 0.398163 0)
(-1.19027 -0.775603 0)
(-0.923302 0.205264 0)
(0.0467275 0.00613689 0)
(0.0129762 -0.0304432 0)
(-1.08547 0.598927 -2.89706e-21)
(-1.53063 -0.577493 8.39588e-22)
(-0.729188 0.272573 0)
(-1.10007 -0.551005 7.37002e-22)
(0.0146727 -0.0819215 6.38023e-21)
(-0.276186 0.0588469 0)
(-0.219081 -0.187238 1.33569e-20)
(-0.565204 -0.245338 0)
(-1.36867 -0.811592 -1.85771e-21)
(-1.25491 0.425766 2.40375e-21)
(0.0919056 -0.029106 0)
(0.0836042 -0.0362262 -6.29373e-21)
(-1.39628 -0.710527 1.72324e-22)
(-1.05762 0.427929 3.00516e-22)
(-1.12558 0.562416 0)
(-1.11459 0.561131 2.27236e-21)
(0.0596754 0.00637837 -3.3348e-21)
(0.0595747 0.00963185 -4.08944e-21)
(-1.43722 -0.637278 5.04256e-22)
(-1.40743 -0.638054 -4.14847e-22)
(-0.649194 0.128142 0)
(-0.945368 -0.582074 1.89074e-20)
(0.0221541 -0.0148904 7.09025e-21)
(-1.12604 -0.691915 1.19879e-20)
(-0.826405 0.190455 0)
(0.0526696 -0.00615092 -7.63635e-21)
(-0.432588 0.0467133 -8.1945e-21)
(-0.687505 -0.394435 5.33194e-21)
(-0.0437209 -0.0554416 1.15008e-20)
(-1.30278 -0.77357 -1.51532e-22)
(-1.24782 0.442349 2.09477e-21)
(-1.28497 -0.787153 2.15325e-22)
(0.0807668 -0.0268958 0)
(-1.26344 0.419345 -2.02084e-21)
(0.0788581 -0.03234 0)
(-0.860967 0.3325 0)
(-1.23178 -0.626079 0)
(0.0506045 -0.0601248 6.99013e-21)
(-1.2447 0.44434 3.65976e-21)
(-1.2437 0.451346 -6.61127e-21)
(-1.37582 -0.788282 -1.11441e-22)
(-1.34734 -0.77106 -4.64138e-22)
(0.0906692 -0.0245387 9.31732e-21)
(0.0856138 -0.0229929 -1.46832e-23)
(-0.78788 0.166194 0)
(-1.08137 -0.689172 -1.15153e-20)
(0.0326504 0.00733604 9.90044e-21)
(-0.585914 0.155307 7.74547e-21)
(-0.972353 -0.524811 -8.63034e-21)
(0.0179837 -0.0642907 0)
(-1.09762 0.599608 0)
(0.0342493 -0.005876 0)
(-1.50944 -0.594771 -2.90701e-22)
(-0.655013 0.155554 5.72962e-21)
(-0.970961 -0.569616 -5.26465e-21)
(0.0325667 -0.0289353 -1.16673e-20)
(-0.481322 0.0810539 3.30831e-21)
(-0.772512 -0.443736 -6.26249e-21)
(-0.0199817 -0.0542962 6.59476e-21)
(-1.10666 0.575975 0)
(0.0523931 0.00644799 0)
(-1.4662 -0.622868 3.19831e-22)
(-0.749433 0.30214 0)
(-1.14354 -0.539595 1.42273e-21)
(0.00212521 -0.0928061 -6.93692e-21)
(-1.0097 -0.776072 0)
(-0.863194 0.0296292 0)
(-0.161744 0.128254 -3.81253e-22)
(-0.521023 0.33011 -4.17928e-22)
(-0.971124 -0.253491 0)
(-0.437093 -0.393798 1.27934e-20)
(-1.29004 -0.904336 4.04842e-21)
(0.0177159 0.0086659 0)
(-1.11107 0.218635 0)
(0.0147699 0.00940459 -1.31012e-20)
(-0.757056 -0.409874 -5.45434e-21)
(-0.704531 0.35272 1.62201e-21)
(-0.690084 0.208897 0)
(-1.02946 -0.558775 5.26703e-21)
(0.0337562 -0.0569258 -5.88911e-21)
(-1.11814 0.570319 5.70288e-21)
(0.047332 -0.0154285 1.7298e-20)
(-1.50571 -0.628856 0)
(-0.617068 -0.533503 -3.33375e-21)
(-0.931816 -0.175466 -5.741e-21)
(-0.446944 0.306786 -3.61464e-21)
(-0.879103 0.51395 0)
(0.0335616 0.026639 -4.8091e-21)
(-1.12496 -0.5042 0)
(-0.101714 0.0482194 7.1942e-21)
(-0.12107 0.0695344 -7.34517e-21)
(-0.619924 -0.433975 0)
(-0.537508 -0.0504035 6.95031e-21)
(-0.657334 -0.47011 -1.11512e-20)
(-0.580499 -0.056062 -5.55569e-21)
(-0.437997 0.0166186 7.72331e-21)
(-0.646008 -0.386962 7.16397e-21)
(-0.0518326 -0.0328218 0)
(-0.182182 0.0914602 6.47716e-21)
(-0.137838 0.0630243 0)
(-0.512251 -0.38338 -6.29431e-21)
(-0.580234 -0.12202 6.20543e-21)
(-0.536894 -0.384969 6.34386e-21)
(-0.53729 -0.0912295 3.02102e-23)
(-0.640532 0.190053 4.86334e-22)
(-0.909108 -0.509377 -3.83123e-21)
(0.0112325 -0.0533857 -8.05033e-21)
(-0.592578 0.138041 -1.33569e-20)
(-0.911888 -0.524347 9.93458e-23)
(0.0155042 -0.0398167 0)
(0.07109 -0.0338568 0)
(-1.21813 -0.762641 0)
(-1.24686 0.413181 1.3915e-21)
(-0.42576 0.221582 -3.58394e-21)
(-0.823396 -0.278883 0)
(-0.30628 -0.278968 3.37894e-21)
(-1.22348 0.45945 -7.98595e-21)
(-1.40745 -0.778934 5.50758e-22)
(0.093983 -0.0203856 -5.31007e-21)
(-0.912926 0.30343 0)
(-0.965816 0.328428 6.09454e-21)
(-1.25315 -0.691309 -1.42513e-21)
(-1.29665 -0.713474 4.00791e-21)
(0.0806076 -0.0354241 -7.68925e-21)
(0.0870334 -0.033585 -7.07107e-21)
(-0.401685 0.194058 0)
(-0.787004 -0.287123 0)
(-0.273003 -0.256422 1.63216e-21)
(-0.684842 0.387201 4.12618e-21)
(-1.12877 -0.385971 0)
(-0.223213 -0.234562 4.01153e-21)
(-0.813126 0.272535 -3.28199e-21)
(-1.16618 -0.635552 0)
(0.0621365 -0.0463577 0)
(-0.218187 -0.000324308 7.52581e-21)
(-0.450762 -0.185724 -3.64081e-21)
(-0.264055 -0.19673 3.63783e-21)
(-0.978573 0.295976 0)
(-1.28209 -0.752579 0)
(0.0867598 -0.0229393 -1.14403e-20)
(-0.266901 0.086 0)
(-0.282083 -0.234268 1.94196e-21)
(-0.594039 -0.22671 0)
(-0.784158 0.188116 -7.53972e-21)
(-1.08953 -0.668121 -6.51346e-21)
(0.0497928 -0.0140559 -9.92989e-22)
(-0.675351 0.363066 4.23141e-21)
(-1.11038 -0.404004 0)
(-0.185283 -0.212291 8.27831e-21)
(-0.224019 0.0285831 -7.45692e-21)
(-0.202045 0.0317715 -3.2946e-21)
(-0.49531 -0.199061 3.61822e-21)
(-0.274543 -0.213869 -7.23615e-21)
(-0.492007 -0.177442 0)
(-0.323654 -0.245774 -1.27968e-20)
(-0.163654 0.0513343 -3.26239e-21)
(-0.437909 -0.321696 8.1985e-21)
(-0.139338 0.0496223 2.09573e-21)
(-0.510887 -0.127937 -8.41133e-21)
(-0.516404 -0.367777 -4.01076e-21)
(-0.516588 -0.0983541 1.65571e-22)
(-0.506383 0.242727 3.96309e-21)
(-0.558355 0.258665 0)
(-0.902888 -0.354348 6.9148e-21)
(-0.953062 -0.393437 -5.40472e-21)
(-0.194166 -0.2084 -7.57332e-21)
(-0.142856 -0.175661 1.25908e-20)
(-0.000109171 -0.0682729 0)
(-1.44692 -0.588459 -1.50909e-21)
(-1.01626 0.520371 -5.78511e-21)
(-0.186029 0.145046 4.65359e-21)
(-0.826002 -0.00154798 6.82239e-21)
(-0.940699 -0.729715 -1.09231e-20)
(0.0206967 -0.0519152 -5.85534e-21)
(0.0392864 -0.0462854 4.69911e-21)
(-1.46801 -0.614976 1.30667e-21)
(-1.45411 -0.63681 2.36447e-21)
(-1.05132 0.532224 1.46399e-20)
(-1.05948 0.510571 -7.58787e-21)
(-0.304633 0.210114 6.68509e-21)
(-0.689142 -0.555089 -5.39452e-21)
(-0.792544 -0.113165 1.56057e-21)
(-0.241213 -0.0534588 1.27687e-20)
(-0.239305 -0.149603 0)
(-0.378205 -0.173244 -1.25576e-20)
(-1.00245 0.326348 -2.86485e-21)
(-1.31127 -0.746514 -4.52924e-21)
(0.0913067 -0.0274884 0)
(-0.341254 0.159674 0)
(-0.315872 -0.281615 -1.55465e-21)
(-0.715626 -0.245296 -6.23663e-21)
(-0.71084 0.375909 0)
(-1.14672 -0.428856 0)
(-0.154451 -0.189062 -7.70323e-21)
(-0.953207 0.510264 -6.40727e-21)
(-0.943706 0.486742 0)
(-1.4049 -0.542397 1.02626e-21)
(-0.0501789 -0.10473 -7.22627e-21)