/*--------------------------------*- C++ -*----------------------------------*\
  =========                 |
  \\      /  F ield         | OpenFOAM: The Open Source CFD Toolbox
   \\    /   O peration     | Website:  https://openfoam.org
    \\  /    A nd           | Version:  6
     \\/     M anipulation  |
\*---------------------------------------------------------------------------*/
FoamFile
{
    version     2.0;
    format      ascii;
    class       volVectorField;
    location    "0";
    object      U;
}
// * * * * * * * * * * * * * * * * * * * * * * * * * * * * * * * * * * * * * //

dimensions      [0 1 -1 0 0 0 0];

internalField   nonuniform List<vector> 
9000
(
(-0.0198576 -0.0205678 0)
(0.203631 -0.00307268 0)
(-0.18071 0.0356201 0)
(-0.130337 0.00303083 0)
(0.176707 8.37714e-05 0)
(0.017864 0.000851943 0)
(-0.170174 0.00149842 0)
(0.0162045 0.00197066 0)
(-0.0963261 9.18391e-06 0)
(-0.0019028 0.000178502 0)
(0.0145943 -0.000593846 0)
(0.037524 -0.000237274 0)
(0.0132936 0.000393698 0)
(0.013857 4.55949e-05 0)
(0.0111362 2.03922e-05 0)
(0.0155236 1.31061e-05 0)
(0.00509848 -9.22938e-06 0)
(-0.0192857 -1.21168e-05 0)
(0.0130919 1.33688e-05 0)
(0.0159596 7.50999e-06 0)
(0.0414905 6.07199e-06 0)
(0.032736 3.02296e-06 0)
(0.0499312 7.70567e-07 0)
(0.0296228 -1.17605e-06 0)
(0.0116296 -2.9965e-06 0)
(0.0117527 -4.66231e-06 0)
(0.00895045 -7.06057e-06 0)
(0.0337746 -7.90172e-06 0)
(-0.00852137 -1.20187e-05 0)
(0.0173108 -1.4715e-05 0)
(0.0150119 -1.62312e-05 0)
(0.0661968 -2.26009e-05 0)
(0.032102 -2.54666e-05 0)
(0.0303408 -3.76487e-05 0)
(0.03596 -4.61432e-05 0)
(0.065606 -5.85654e-05 0)
(-0.0173107 -7.39055e-05 0)
(-0.00293673 -8.75026e-05 0)
(0.0770128 -0.000112546 0)
(0.0170056 -0.000130815 0)
(0.0643864 -0.000115949 0)
(0.0583763 -0.000181809 0)
(0.0157513 -0.000255736 0)
(0.00438061 -0.000278071 0)
(0.0390799 -0.000157116 0)
(0.0156291 -0.000430012 0)
(0.0197841 -0.000782044 0)
(-0.132161 0.0017121 0)
(-0.205739 -0.00150284 0)
(0.13506 -0.0310402 0)
(-1.2746 0.458045 0)
(0.339642 0.0932222 0)
(0.180809 0.0482426 0)
(0.338313 -0.0156251 0)
(0.055377 0.00166551 0)
(0.0578854 -0.0250079 0)
(0.187128 -0.0179915 0)
(-0.215386 0.0285914 0)
(-0.108221 -0.00192217 0)
(0.0570845 2.75285e-05 0)
(-0.248231 0.0015231 0)
(0.311772 0.00116355 0)
(0.115428 0.00151842 0)
(-0.159691 0.00136638 0)
(0.104051 0.0027413 0)
(0.0130003 0.000454429 0)
(0.190352 0.000694324 0)
(-0.113725 0.000533324 0)
(-0.37758 0.000181248 0)
(0.200415 -0.000150394 0)
(-0.141679 0.00015911 0)
(0.223242 0.00013565 0)
(-0.0117858 0.00014444 0)
(0.146022 0.000112966 0)
(-0.431483 6.19698e-05 0)
(0.090984 7.26351e-05 0)
(-0.0316562 3.6089e-05 0)
(-0.00623656 -8.74938e-07 0)
(-0.310449 -4.86231e-06 0)
(-0.433005 -3.9331e-05 0)
(0.126402 -3.18363e-05 0)
(-0.077654 -7.56671e-05 0)
(0.167413 -0.000141938 0)
(-0.228079 -0.000204886 0)
(0.236748 -0.000259048 0)
(-0.0822802 -0.00037992 0)
(-0.148792 -0.000259807 0)
(-0.286896 -0.000809042 0)
(-0.0145841 -0.000408011 0)
(-0.350558 -0.000698313 0)
(0.4234 -0.000699403 0)
(-0.36156 -0.00116005 0)
(0.273944 -0.00560972 0)
(0.086518 -0.000594838 0)
(0.0780774 -0.0012581 0)
(0.280101 -0.000767694 0)
(0.019427 -0.00554859 0)
(0.0150181 0.0328195 0)
(-0.124893 -0.0103959 0)
(-0.316467 -0.193218 0)
(0.535114 -0.0977964 0)
(-0.419235 -0.298235 0)
(-0.00521471 -0.207204 0)
(0.0773265 0.0767237 0)
(0.517999 0.0725145 0)
(-0.0138379 -0.012545 0)
(0.118222 0.00625479 0)
(-0.159333 0.00266034 0)
(-0.0513215 0.00342868 0)
(-0.145919 0.0194564 0)
(0.0371804 0.020032 0)
(0.389439 0.00247279 0)
(-0.318155 0.00147553 0)
(0.310669 0.00168523 0)
(0.138333 -0.00205251 0)
(0.222593 0.000577102 0)
(-0.0944738 0.0029958 0)
(-0.0177909 0.00241724 0)
(-0.137764 0.000976815 0)
(-0.175468 -0.000133421 0)
(-0.31869 0.000815456 0)
(0.181088 0.000273519 0)
(0.108362 0.000330221 0)
(-0.0315124 0.000244234 0)
(-0.0696646 0.000273661 0)
(0.169194 0.000245264 0)
(-0.0778201 0.000165641 0)
(0.227693 0.000102399 0)
(0.362241 8.61301e-05 0)
(-0.225234 2.88772e-05 0)
(-0.117786 -9.66025e-05 0)
(-0.233217 -0.000135195 0)
(-0.102996 -0.000275452 0)
(0.214351 -0.000423248 0)
(0.236365 -0.000711256 0)
(0.0320934 -0.00115982 0)
(0.070527 -0.000679112 0)
(0.321687 -0.00102853 0)
(-0.0560574 -0.0014408 0)
(-0.159549 -0.00121483 0)
(-0.0247821 -0.0011644 0)
(-0.0115157 0.00165723 0)
(0.0174594 -0.0076093 0)
(-0.0784732 -0.000874035 0)
(-0.0394717 -0.00255472 0)
(0.113942 -0.0163259 0)
(-0.169181 0.0186069 0)
(0.00537723 -0.00473096 0)
(0.118297 0.0225789 0)
(0.0236674 -0.323481 0)
(-1.72611 -0.0865111 0)
(-1.59491 0.188796 0)
(-0.618715 0.26845 0)
(0.163733 0.0822778 0)
(0.191928 -0.0796645 0)
(0.488564 0.130824 0)
(-0.0754547 -0.00571643 0)
(0.321709 0.0299639 0)
(-0.11511 0.0365101 0)
(-0.245294 -0.0290265 0)
(0.227579 -0.0155125 0)
(0.138303 0.00743676 0)
(-0.127975 0.0187472 0)
(0.354582 -0.000164021 0)
(-0.03452 0.00492753 0)
(0.14848 0.00076787 0)
(-0.148026 0.00443303 0)
(-0.256433 0.000940485 0)
(0.1954 0.0028147 0)
(-0.362794 0.00159748 0)
(0.150373 0.000975582 0)
(0.211918 0.00127102 0)
(0.340661 0.000967279 0)
(-0.0168548 0.000584698 0)
(-0.0817684 0.000306356 0)
(-0.248857 0.000345469 0)
(0.280917 0.000375059 0)
(0.301014 0.000269694 0)
(-0.175581 0.000234725 0)
(0.195175 0.000112768 0)
(0.184982 -6.5131e-05 0)
(0.290543 -0.000236472 0)
(0.225072 -0.000521938 0)
(0.233446 -0.000569934 0)
(0.122564 -0.00106772 0)
(-0.0414756 -0.00163972 0)
(-0.0566469 -0.00206419 0)
(0.0186234 -0.0030741 0)
(0.180268 -0.00305647 0)
(-0.0333727 -0.00319385 0)
(-0.251211 -0.00347711 0)
(-0.123802 -0.000877183 0)
(0.310683 -0.00469305 0)
(-0.187664 0.019408 0)
(0.028903 -0.058562 0)
(0.0479736 0.00295018 0)
(-0.204429 -0.0051598 0)
(-0.316952 -0.00108954 0)
(-0.357994 0.0459427 0)
(0.049482 0.0504852 0)
(-3.14199 -0.25776 0)
(0.669734 -0.418264 0)
(0.750443 -0.0497892 0)
(0.402849 -0.254534 0)
(-0.772971 0.182378 0)
(-0.360033 -0.111292 0)
(-0.103561 -0.215519 0)
(-0.100165 -0.0117035 0)
(0.137767 0.0346694 0)
(0.317635 -0.00211308 0)
(0.0507748 0.0211505 0)
(-0.051128 -0.00402313 0)
(-0.00490324 -0.0158279 0)
(0.0384627 0.0282911 0)
(0.355757 0.00826891 0)
(0.0280625 0.00577515 0)
(-0.166551 0.0064988 0)
(0.0738031 0.00341188 0)
(0.139545 0.00618157 0)
(-0.164755 0.00599258 0)
(0.112674 0.00142262 0)
(0.186281 0.00126752 0)
(-0.16925 0.00128446 0)
(0.462755 0.00115116 0)
(0.222757 0.0010597 0)
(0.0779978 0.0006927 0)
(0.0227942 0.000125856 0)
(-0.233279 0.000298064 0)
(0.556282 0.000178896 0)
(-0.0206614 0.000252362 0)
(0.137508 -6.8885e-05 0)
(-0.017681 -0.000326578 0)
(0.0482304 -0.000734264 0)
(0.0426514 -0.000924122 0)
(-0.160967 -0.00130237 0)
(-0.150535 -0.0019024 0)
(0.018574 -0.00231515 0)
(0.112387 -0.00355541 0)
(0.118632 -0.000751474 0)
(-0.172182 -0.00486622 0)
(0.138399 -0.00956948 0)
(0.278565 -0.00640108 0)
(0.582697 -0.0357858 0)
(0.0889796 0.0295747 0)
(-0.17065 0.0193776 0)
(0.143086 0.0107976 0)
(0.130413 -0.0119221 0)
(-0.0396565 -0.0247164 0)
(0.187452 0.165984 0)
(0.293717 0.269449 0)
(-0.153799 0.132049 0)
(2.62533 0.18977 0)
(1.95757 -0.296641 0)
(-2.5894 -0.390387 0)
(-0.352424 -0.070702 0)
(-1.68905 -0.152822 0)
(0.160279 -0.120268 0)
(0.324893 0.0291129 0)
(0.580421 0.0500132 0)
(0.09682 -0.0062419 0)
(0.48335 -0.036583 0)
(-0.0374858 0.0127307 0)
(0.380983 0.0411179 0)
(-0.127143 0.030011 0)
(-0.186514 0.0157216 0)
(0.394348 0.0215153 0)
(0.211134 0.00310805 0)
(0.220843 0.00625074 0)
(-0.289401 0.00347823 0)
(-0.0207155 0.00245299 0)
(0.240519 0.00189588 0)
(-0.0262271 -0.00120366 0)
(0.190047 0.00179799 0)
(0.0967797 0.00122091 0)
(-0.298314 0.000921942 0)
(-0.244077 0.00117928 0)
(0.0366773 0.000625079 0)
(-0.1012 0.000839759 0)
(-0.290897 0.000564243 0)
(-0.0327883 0.000331787 0)
(-0.0230996 -6.6453e-05 0)
(-0.109451 -0.000520241 0)
(-0.119718 -0.00080995 0)
(0.0407006 -0.00162503 0)
(0.505719 -0.0014862 0)
(0.0551235 -0.00534248 0)
(0.163499 -0.00282835 0)
(0.328272 -0.00764901 0)
(-0.0945076 -0.00841704 0)
(-0.496909 -0.00834716 0)
(0.170834 -0.0091973 0)
(-0.213114 0.000724374 0)
(-0.447944 -0.0448089 0)
(0.223451 -0.0248284 0)
(-0.175633 -0.0292438 0)
(0.120691 0.00041147 0)
(-0.237682 0.0147793 0)
(-0.193359 -0.0258277 0)
(0.111699 0.057258 0)
(-0.101552 0.381199 0)
(-0.82954 0.0862673 0)
(-0.0803253 -0.0841808 0)
(-3.20369 0.0424707 0)
(0.233982 0.474523 0)
(1.89927 -0.223482 0)
(1.35051 -0.229265 0)
(-4.5543 0.195132 0)
(2.23508 0.03724 0)
(-0.00798834 0.227767 0)
(0.174283 0.00139381 0)
(-0.039652 -0.0235874 0)
(-0.04551 0.0425435 0)
(0.22965 0.0251809 0)
(-0.191847 0.0197501 0)
(0.608543 0.0281371 0)
(0.448956 -0.0131333 0)
(0.468555 0.0021171 0)
(0.285064 0.00200084 0)
(-0.203412 0.00410846 0)
(0.163999 0.00733258 0)
(-0.249188 0.0022741 0)
(-0.0436967 -0.000589429 0)
(0.1559 0.0032294 0)
(0.214016 0.0021693 0)
(-0.3811 0.00176471 0)
(0.18504 0.00167523 0)
(-0.324856 0.00125263 0)
(0.225176 0.00127221 0)
(0.272037 0.000778724 0)
(0.0644316 0.00036023 0)
(0.0893399 -0.000135016 0)
(-0.0205091 -0.000638602 0)
(-0.160374 -0.00136546 0)
(0.156995 -0.00244792 0)
(0.0737922 0.000357403 0)
(0.199075 -0.00363325 0)
(0.0459276 -0.0100873 0)
(0.33782 -0.00622065 0)
(-0.300434 -0.00545325 0)
(-0.143479 -0.00710768 0)
(0.134086 -0.0142971 0)
(-0.415078 -0.0338808 0)
(-0.361718 0.000568101 0)
(-0.0981263 -0.00983537 0)
(-0.178106 -0.018936 0)
(0.254799 0.0305565 0)
(-0.107811 0.0218888 0)
(1.86402 0.0493628 0)
(-3.03589 0.306708 0)
(-0.378169 0.635143 0)
(0.0590036 -0.198939 0)
(1.65723 -0.264919 0)
(-1.54083 0.0840451 0)
(5.40946 -0.0635693 0)
(1.17539 -0.463318 0)
(0.179802 0.0821168 0)
(1.27916 0.118353 0)
(-0.668697 0.230839 0)
(2.01196 0.187698 0)
(0.691363 -0.0189531 0)
(-1.54107 0.0449335 0)
(0.293777 -0.0135193 0)
(-1.43164 0.0255188 0)
(-0.796381 0.0356485 0)
(1.16681 0.0309364 0)
(0.17825 -0.00728128 0)
(-0.380554 -0.0223363 0)
(-0.330161 0.00724453 0)
(-1.86037 0.00341143 0)
(-0.286648 0.00663678 0)
(0.817374 0.00309962 0)
(1.2755 0.00537505 0)
(1.00856 0.000880517 0)
(-0.544579 0.00253459 0)
(0.522385 0.0021021 0)
(-0.990552 0.00195152 0)
(0.355818 0.00177059 0)
(0.728956 0.00182824 0)
(0.937742 0.000983898 0)
(-0.341925 0.00048996 0)
(1.14812 -5.55565e-05 0)
(0.893433 -0.000944252 0)
(0.978413 -0.00127681 0)
(1.30178 -0.000172632 0)
(-0.661379 -0.00372835 0)
(-0.134187 -0.00347336 0)
(0.0585941 -0.00751836 0)
(0.467805 -0.00932149 0)
(1.34758 -0.00877369 0)
(-1.07923 0.0142272 0)
(0.196584 -0.0176332 0)
(-0.124413 0.0250456 0)
(-0.920017 -0.0229395 0)
(0.704937 0.00273714 0)
(0.209352 -0.0527462 0)
(-2.66451 -0.053208 0)
(1.71861 0.0644455 0)
(-0.934922 0.460083 0)
(-1.0466 -0.120068 0)
(-2.90184 0.0954176 0)
(-1.988 0.0766565 0)
(-2.11627 0.0217153 0)
(0.720813 -0.639962 0)
(-0.245715 -0.353677 0)
(-1.60549 -0.142103 0)
(2.31284 -0.0496304 0)
(-1.33239 0.15194 0)
(1.29691 0.18812 0)
(-1.48663 0.0901761 0)
(-0.959731 0.297884 0)
(-0.545386 -0.0120401 0)
(3.45114 -0.00290489 0)
(-0.125153 0.0192679 0)
(1.68126 -0.00331477 0)
(-2.51388 -0.0164386 0)
(-2.15598 -0.00404072 0)
(-0.0584512 0.0320069 0)
(2.79024 0.00776148 0)
(0.515432 0.00811981 0)
(0.978588 0.00533339 0)
(1.62797 0.00865766 0)
(1.01579 0.00776135 0)
(-1.65781 0.00502343 0)
(-0.132932 0.00669836 0)
(-2.72358 0.00267362 0)
(-2.50968 0.00243074 0)
(-1.1937 0.00236145 0)
(-3.62872 0.00154151 0)
(1.79437 0.000943785 0)
(-4.18612 0.000569736 0)
(-0.740726 0.000355655 0)
(-1.19147 -0.00089259 0)
(1.93665 -0.00386514 0)
(-0.936547 -0.00104232 0)
(-2.4095 -0.00360279 0)
(-2.81521 -0.0020668 0)
(0.686384 -0.00487235 0)
(-1.07046 -0.0095824 0)
(-5.18385 -0.0282415 0)
(2.19334 0.00450742 0)
(1.80314 -0.0674971 0)
(3.75225 -0.0171674 0)
(-2.542 0.0591463 0)
(0.710078 -0.0222144 0)
(3.00881 -0.0275789 0)
(-2.881 0.0154013 0)
(-2.32445 0.00591955 0)
(0.34558 0.0832292 0)
(-1.67726 -0.397974 0)
(-0.507793 -0.618092 0)
(1.48754 0.203238 0)
(-0.275858 -0.140989 0)
(2.86955 -0.247437 0)
(1.07606 0.214467 0)
(5.50171 -0.0797693 0)
(-0.917132 -0.0883691 0)
(-2.47495 -0.571102 0)
(-0.762035 0.277289 0)
(1.26428 -0.194835 0)
(-1.20705 0.10678 0)
(-1.29106 0.0359958 0)
(-0.570156 0.0372051 0)
(-0.0459577 0.00221145 0)
(-0.0448981 -0.0118653 0)
(1.58382 0.0111164 0)
(-3.10339 -0.00485441 0)
(-0.131267 -0.00631202 0)
(0.377801 0.00561778 0)
(-2.69771 0.0081498 0)
(1.46389 0.00481864 0)
(0.178125 0.00623942 0)
(-1.37315 0.00598478 0)
(-0.17563 0.003491 0)
(0.881495 0.00370373 0)
(-1.80305 0.00297789 0)
(-0.377955 0.00261127 0)
(0.991039 0.0024409 0)
(0.197833 0.0019198 0)
(-3.3118 0.0016503 0)
(0.303962 0.000869696 0)
(-3.0283 8.143e-05 0)
(-1.87206 -0.000872723 0)
(-3.12843 -0.00496515 0)
(-0.769743 -0.00218302 0)
(4.66343 -0.00509791 0)
(2.73399 -0.00370742 0)
(0.167832 -0.00694537 0)
(0.0865049 -0.0116112 0)
(1.19255 -0.00619089 0)
(0.772275 -0.0125649 0)
(-0.17022 -0.0105034 0)
(-4.08747 0.0271721 0)
(1.78533 -0.0324139 0)
(-3.05247 -0.0284959 0)
(-0.605357 -0.0388923 0)
(3.37489 0.00249173 0)
(2.70965 0.325595 0)
(-1.36278 0.308978 0)
(1.78222 -0.337506 0)
(-3.9037 0.606528 0)
(0.533957 0.0141859 0)
(-4.61007 -0.0946033 0)
(-1.04864 0.0874434 0)
(-2.24909 0.137215 0)
(-2.36684 -0.130915 0)
(0.203223 0.0583365 0)
(-2.55808 -0.00662276 0)
(1.11323 0.22898 0)
(-1.5374 0.0979012 0)
(2.68688 0.106627 0)
(1.90936 -0.0021264 0)
(3.07449 0.0142512 0)
(-1.51736 0.0077503 0)
(-0.200032 0.0440048 0)
(1.33576 0.0289011 0)
(-2.79552 -0.0399704 0)
(-2.22626 -0.00355935 0)
(3.30177 0.0141212 0)
(2.90732 0.00687927 0)
(0.243999 0.00571242 0)
(2.18446 0.00955406 0)
(2.21017 0.00566718 0)
(-1.18218 -0.00100623 0)
(0.632339 0.00449655 0)
(5.01131 -0.00144488 0)
(-2.29848 0.00333015 0)
(-2.18026 0.0027693 0)
(4.01785 0.00255605 0)
(-0.835329 0.00191456 0)
(-1.87351 0.00082855 0)
(-2.63582 0.000236753 0)
(-3.06725 0.000927739 0)
(5.07254 -0.00252478 0)
(-3.81972 -0.00558269 0)
(3.62153 -0.00225169 0)
(1.35813 -0.0134375 0)
(0.861908 -0.0111784 0)
(-4.27436 0.0159032 0)
(3.69232 0.00154627 0)
(2.7722 -0.00273288 0)
(-1.56082 -0.0417225 0)
(-0.40794 -0.020031 0)
(-2.27706 -0.0167314 0)
(-2.2994 -0.0107756 0)
(2.50067 -0.0218902 0)
(-2.24555 -0.0827322 0)
(-0.780286 -0.028983 0)
(-0.340974 -0.103039 0)
(5.57279 -0.478636 0)
(1.75738 0.100245 0)
(1.98741 -0.0398787 0)
(3.5453 0.0486083 0)
(2.00033 0.0645753 0)
(-2.17759 0.0916079 0)
(5.81879 -0.167235 0)
(-0.644963 0.0827875 0)
(3.16807 -0.214169 0)
(-2.54612 -0.213928 0)
(3.77313 0.134527 0)
(-4.69215 0.191986 0)
(6.50041 -0.0239558 0)
(0.85198 0.00604387 0)
(-0.155798 6.75876e-05 0)
(1.79631 0.0619586 0)
(-3.51301 0.0608058 0)
(-1.06829 -0.0319432 0)
(1.89182 -0.00770454 0)
(-1.78523 0.0202448 0)
(-0.326283 0.00781408 0)
(-0.159932 0.00580511 0)
(-4.09004 0.00654102 0)
(2.29991 0.00725892 0)
(0.783635 0.00532224 0)
(1.81191 0.00403712 0)
(0.727007 0.00284486 0)
(1.74266 0.00413039 0)
(-2.17154 0.0028588 0)
(2.78001 0.00221118 0)
(-4.22225 0.0017461 0)
(-0.0412005 0.00120677 0)
(2.12859 -0.000242268 0)
(0.216277 -0.00349746 0)
(1.49764 -0.00345746 0)
(-1.39542 -0.0051037 0)
(-0.13233 -0.00424468 0)
(4.56823 -0.005155 0)
(-0.0991168 -0.0113769 0)
(0.33225 -0.0114513 0)
(0.246723 0.00729054 0)
(-2.81462 0.0214673 0)
(-2.37606 -0.0268166 0)
(3.57816 -0.0539019 0)
(-2.59767 -0.0268203 0)
(-1.51927 0.00258365 0)
(-0.862943 -0.0162736 0)
(1.16791 -0.165804 0)
(-4.20304 0.243802 0)
(2.90246 -0.0445385 0)
(0.93197 -0.418315 0)
(3.48125 -0.0293469 0)
(0.560684 0.00734592 0)
(0.899362 -0.0261616 0)
(-1.745 -0.19332 0)
(-5.71347 0.0325893 0)
(-1.9485 -0.0318265 0)
(2.89285 0.00906501 0)
(-0.775751 -0.106975 0)
(2.23007 -0.359943 0)
(1.94051 0.0566088 0)
(-4.107 0.0899971 0)
(0.599839 0.0223794 0)
(-1.58247 0.00527498 0)
(-2.37041 0.0225384 0)
(-0.668159 -0.00947794 0)
(2.36011 -0.00358568 0)
(3.96521 -0.00953915 0)
(2.72932 -0.0118692 0)
(1.03581 -0.00411473 0)
(3.31108 0.00952309 0)
(-0.166904 0.00872459 0)
(0.581768 0.00604764 0)
(1.13458 0.00511147 0)
(2.26821 0.00433647 0)
(2.51951 0.00783502 0)
(-3.90467 0.0042747 0)
(-2.78541 0.00382501 0)
(1.91997 0.00365192 0)
(-0.932931 0.00268548 0)
(5.91169 0.00199971 0)
(-1.71001 0.00168171 0)
(2.72564 0.000328892 0)
(-0.11128 -0.000500987 0)
(0.59548 -0.00208553 0)
(-0.519354 -0.00423109 0)
(-8.1527 -0.00853587 0)
(-1.17373 -0.00800176 0)
(1.66279 -0.00709614 0)
(1.04649 -0.00278192 0)
(0.168136 -0.0622677 0)
(1.21488 -0.00938164 0)
(1.7667 0.0130306 0)
(-4.19543 -0.0168717 0)
(2.01466 -0.0126955 0)
(-0.689368 0.0177665 0)
(-5.93128 0.00388816 0)
(1.69067 -0.0870843 0)
(-0.13849 0.327242 0)
(2.47939 -0.0207877 0)
(2.81936 -0.0478565 0)
(-0.950514 0.0650593 0)
(-3.50117 0.0105543 0)
(-2.23435 -0.0103875 0)
(0.88401 0.497812 0)
(-1.27896 0.130337 0)
(2.76573 0.0414303 0)
(-1.33558 0.535227 0)
(3.18743 0.219725 0)
(-0.769872 0.310336 0)
(1.40424 -0.259727 0)
(-1.92575 0.0721688 0)
(0.859533 0.00507166 0)
(0.505662 0.018224 0)
(1.86252 0.00450303 0)
(-0.977318 0.0470422 0)
(-0.864803 0.0727046 0)
(1.77716 0.0265509 0)
(-1.69682 0.0332582 0)
(3.77892 -0.0116651 0)
(-0.108993 0.00782137 0)
(-0.355217 0.00945646 0)
(-3.0495 0.0037683 0)
(-1.90897 0.00824202 0)
(3.496 0.00296752 0)
(-4.1015 0.00741224 0)
(1.65603 0.00790389 0)
(-0.0418115 0.00450587 0)
(1.24308 0.00351065 0)
(0.25776 0.00341597 0)
(-2.89377 0.00250579 0)
(-2.88852 0.00131627 0)
(-1.67659 -0.00156103 0)
(0.153986 -0.00366515 0)
(4.23511 -0.00208339 0)
(-3.17306 -0.00457193 0)
(-0.983251 -0.00666017 0)
(-1.69982 -0.00955231 0)
(-1.35976 -0.00950709 0)
(1.40123 -0.023604 0)
(-2.38162 -0.0265196 0)
(0.893767 -0.062281 0)
(3.02005 -0.0576646 0)
(-1.54663 -0.00508152 0)
(-0.292382 -0.027394 0)
(-1.0308 -0.03251 0)
(-2.69229 0.00327197 0)
(1.93285 -0.0917481 0)
(3.22628 0.093538 0)
(-1.7157 0.206466 0)
(-1.24744 0.12687 0)
(2.08349 -0.310078 0)
(1.91544 0.0225512 0)
(-3.10198 -0.068604 0)
(1.99648 0.263497 0)
(-1.23576 -0.143426 0)
(0.113615 -0.145395 0)
(0.800541 0.0327695 0)
(1.62213 0.0395868 0)
(-0.588242 -0.117831 0)
(-0.485018 -0.328303 0)
(1.31348 0.0211062 0)
(1.60056 -0.0162415 0)
(1.40477 0.0176195 0)
(-0.169883 -0.00777274 0)
(-4.35585 -0.036914 0)
(-3.98119 0.0304532 0)
(0.419343 0.00338894 0)
(0.0142508 0.00345537 0)
(1.86425 0.0377063 0)
(6.02356 0.0085543 0)
(2.03748 0.00780443 0)
(0.671294 0.00867454 0)
(-4.64749 0.00763881 0)
(-1.73076 0.00387364 0)
(0.797786 0.00644234 0)
(3.55798 0.00112723 0)
(1.86664 0.00431445 0)
(0.339916 0.00363982 0)
(-0.658828 0.00344097 0)
(1.15632 0.00256581 0)
(-0.797419 0.00157678 0)
(0.301456 -0.00260656 0)
(-4.04562 -7.96967e-05 0)
(-2.20117 -0.00524942 0)
(-3.80763 -0.0117015 0)
(-1.53797 -0.00817954 0)
(-0.948014 -0.0122342 0)
(1.0491 -0.0338131 0)
(-1.16844 -0.0734574 0)
(1.46422 -0.0075053 0)
(-3.17216 -0.0651145 0)
(-1.75352 -0.0646999 0)
(-0.509524 -0.0718941 0)
(1.50474 -0.0486324 0)
(1.4726 -0.0519648 0)
(-0.849393 -0.0368714 0)
(2.53548 0.362676 0)
(-1.02954 0.2647 0)
(1.17919 -0.354828 0)
(0.240034 0.198105 0)
(-1.61286 0.332834 0)
(0.441839 0.0291392 0)
(3.02942 0.0286796 0)
(1.0044 -0.000335108 0)
(3.04015 -0.0297326 0)
(0.526489 -0.161041 0)
(-1.45422 0.0374205 0)
(2.66049 0.0845782 0)
(1.98946 0.0918945 0)
(4.09909 -0.122683 0)
(-0.0124371 0.0384891 0)
(-0.970918 0.0402491 0)
(1.62495 -0.00547738 0)
(-1.0765 0.0321964 0)
(-2.09204 -0.0149558 0)
(4.65459 0.00209331 0)
(-1.84189 -0.00111347 0)
(-0.931725 0.00138243 0)
(1.95318 0.00763477 0)
(2.60086 0.00810358 0)
(2.92806 0.00847733 0)
(-1.92032 0.00553381 0)
(-0.0998934 0.0056476 0)
(-2.56924 0.00845797 0)
(-0.426569 0.00996437 0)
(-0.0301219 0.00700993 0)
(-2.6574 0.00451508 0)
(0.383947 0.00419508 0)
(3.30396 0.00360387 0)
(1.28594 0.00273197 0)
(3.69239 0.00129343 0)
(2.68477 0.00529598 0)
(-3.09278 0.00143717 0)
(-2.43094 -0.00364327 0)
(-0.980064 -0.00698662 0)
(3.29278 -0.00692634 0)
(0.983075 -0.0100463 0)
(2.36529 -0.00323987 0)
(-2.77924 -0.00691111 0)
(-1.88727 -0.0129296 0)
(-0.658908 -0.0525836 0)
(-1.29225 -0.00773671 0)
(-4.30991 -0.0361063 0)
(-0.536806 -0.0447254 0)
(1.67392 -0.0205966 0)
(2.09427 0.00393025 0)
(-1.13107 0.0304088 0)
(-0.772739 0.0777362 0)
(0.419587 -0.0725627 0)
(-0.136932 -0.224946 0)
(4.14116 0.185982 0)
(0.763794 0.00957848 0)
(-0.0288085 -0.0159549 0)
(0.490895 -0.0939132 0)
(-2.89479 0.305204 0)
(1.53904 -0.393248 0)
(-3.76129 0.0220165 0)
(0.0467955 0.0523747 0)
(-3.04542 -0.0109629 0)
(-0.723075 0.0301128 0)
(1.70699 -0.0194361 0)
(2.35685 0.0176502 0)
(-0.809653 -0.0202609 0)
(0.77392 -0.024411 0)
(0.0436504 0.00213481 0)
(3.91488 -0.00557048 0)
(0.709717 0.00587967 0)
(2.20253 0.0680912 0)
(-0.820695 0.00746002 0)
(1.53381 0.00787635 0)
(-1.58062 0.00283241 0)
(-1.7387 0.00570897 0)
(-1.84548 0.00736345 0)
(2.17871 0.00481412 0)
(0.0549488 0.0054329 0)
(0.604582 0.00294376 0)
(5.12898 0.00481199 0)
(-1.56596 0.0041861 0)
(2.76189 0.00377817 0)
(0.642035 0.00274206 0)
(2.0322 0.00179225 0)
(2.04533 -3.34545e-05 0)
(4.8182 -0.00228715 0)
(-1.32451 -0.0027427 0)
(-3.35898 -0.00570468 0)
(-0.399463 -0.00913588 0)
(-0.746066 -0.0135254 0)
(0.507194 0.0147708 0)
(-1.20107 -0.00195707 0)
(-2.88955 -0.0045516 0)
(-0.372348 -0.0801592 0)
(-0.132195 -0.0274637 0)
(-0.030482 -0.0180207 0)
(5.91054 -0.000503317 0)
(4.82823 -0.0114329 0)
(-2.69179 0.0074019 0)
(-1.86287 0.116665 0)
(2.07093 -0.376079 0)
(-0.0860658 0.085468 0)
(2.37769 0.139857 0)
(-0.394973 0.0401686 0)
(-0.127288 -0.0140081 0)
(1.92792 -0.0180166 0)
(-1.61854 -0.0216579 0)
(-5.30257 -0.0121869 0)
(-3.15759 -0.0338044 0)
(0.824424 -0.0227534 0)
(-0.943334 -0.0250802 0)
(2.58069 0.020373 0)
(-2.94388 -0.00951525 0)
(-2.86517 -0.0240981 0)
(1.32557 -0.02805 0)
(-2.26224 0.0185272 0)
(-0.680175 0.0058085 0)
(-2.52007 0.00566864 0)
(0.49173 0.00973289 0)
(-3.03654 0.0118541 0)
(-0.0708078 0.00449622 0)
(-4.04412 0.00589401 0)
(0.301517 0.00760981 0)
(0.865992 0.00812923 0)
(2.06883 0.00566097 0)
(2.83007 0.00661917 0)
(3.74173 0.00943151 0)
(1.35958 0.0075565 0)
(-4.01038 0.0083149 0)
(-0.814003 0.00453634 0)
(2.78373 0.00461296 0)
(-0.867762 0.00355213 0)
(2.95344 0.00272121 0)
(-0.673812 0.00163587 0)
(4.06215 0.00306584 0)
(-3.32735 -0.000217127 0)
(-0.597919 -0.00118372 0)
(2.28661 -0.0106859 0)
(0.333743 -0.00790532 0)
(3.20626 0.0165172 0)
(0.274166 -0.043157 0)
(3.72931 -0.00117658 0)
(-2.27409 -0.00938107 0)
(1.41286 0.0146201 0)
(-3.37133 -0.0158477 0)
(-1.39894 -0.00545137 0)
(-1.82378 -0.0373987 0)
(0.330972 -0.0229384 0)
(1.69288 -0.0216188 0)
(-0.901164 -0.327673 0)
(-2.26167 0.163055 0)
(0.701362 -0.152907 0)
(-0.288958 0.444593 0)
(3.66072 0.553729 0)
(-1.2952 -0.00334197 0)
(-0.179883 0.00510545 0)
(-2.82806 -0.0014265 0)
(0.139216 -0.0271458 0)
(1.02995 -0.0255584 0)
(2.86181 -0.00534152 0)
(4.19663 -0.0365715 0)
(-0.203893 -0.0421346 0)
(0.37764 -0.00335086 0)
(2.65625 0.0158661 0)
(0.386599 -0.0107302 0)
(-3.1777 0.0134682 0)
(-1.78985 -0.00615178 0)
(-5.94212 0.0308855 0)
(-1.69086 0.002372 0)
(2.01417 -0.000122149 0)
(-2.45513 0.0101742 0)
(0.118238 0.00772135 0)
(0.87888 0.00205688 0)
(-1.51261 0.004865 0)
(-3.74795 0.00121879 0)
(-0.604444 0.00282541 0)
(-0.742824 0.00246342 0)
(1.577 0.00401031 0)
(-1.92673 0.00480204 0)
(1.1028 0.00495305 0)
(-0.247018 0.00471103 0)
(0.506435 0.00362735 0)
(2.14903 0.00288045 0)
(-0.127186 0.00191743 0)
(0.564419 -0.0038853 0)
(-0.573966 -0.00240284 0)
(-0.000227501 -0.00196176 0)
(-4.6623 -0.0088106 0)
(3.24741 -0.00700422 0)
(-3.89662 -0.0263301 0)
(-0.186613 -0.0707493 0)
(-0.588827 -0.00208799 0)
(-3.24268 0.00372879 0)
(-1.63954 0.0137149 0)
(1.07311 0.00684919 0)
(1.58177 -0.0445876 0)
(-5.09651 -0.069957 0)
(-1.91268 -0.0261922 0)
(1.59987 -0.00659407 0)
(1.13414 -0.302541 0)
(2.68126 -0.244568 0)
(-1.73616 -0.132194 0)
(-0.0455771 0.339309 0)
(-2.88473 0.442119 0)
(0.603082 -0.00384373 0)
(1.8464 0.0387309 0)
(0.134442 -0.0103916 0)
(4.4324 -0.00472239 0)
(-0.0161159 -0.00910951 0)
(0.678247 -0.0103022 0)
(-1.04559 0.00843549 0)
(-0.438521 0.0209494 0)
(-4.55917 0.0459014 0)
(-0.825267 -0.0301286 0)
(-6.01062 0.00740082 0)
(0.792529 0.00201722 0)
(0.831065 0.00423098 0)
(2.93307 -0.00114353 0)
(3.67288 0.00198515 0)
(2.68082 0.000483248 0)
(-2.29667 0.00326427 0)
(3.95874 0.00422683 0)
(-0.99494 -0.00125778 0)
(1.40391 0.00322888 0)
(1.6008 0.00506044 0)
(-0.686115 0.00478788 0)
(-3.48116 0.00499978 0)
(0.648924 0.00522967 0)
(-1.11031 0.00490288 0)
(-3.67489 0.00473661 0)
(-0.996887 0.00424801 0)
(4.36855 0.00408824 0)
(2.39965 0.00296644 0)
(-0.546557 0.00173936 0)
(-1.92451 -0.00126886 0)
(0.906435 -0.00157919 0)
(-1.51218 -0.0016165 0)
(-0.331327 -0.0095055 0)
(-4.45522 -0.0121019 0)
(3.65092 -0.0192016 0)
(2.26911 -0.0251763 0)
(-3.62439 -0.0148008 0)
(-0.773482 -0.0621186 0)
(1.9209 -0.0775123 0)
(-6.63518 -0.00924791 0)
(6.28745 -0.000654737 0)
(-4.849 -0.0548705 0)
(5.20912 0.0133172 0)
(1.37834 0.0100486 0)
(-0.221156 0.128829 0)
(0.0949821 -0.485408 0)
(-0.036664 -0.0212221 0)
(2.96214 0.199066 0)
(-1.28009 -0.309304 0)
(0.603081 -0.0016815 0)
(1.98242 0.0001116 0)
(-0.231217 -0.00279059 0)
(2.44776 0.0223886 0)
(2.80611 -0.0165115 0)
(0.194743 -0.00636612 0)
(-1.0113 0.00775777 0)
(-2.48651 0.0257475 0)
(-4.55651 -0.0154997 0)
(-3.9695 0.0111785 0)
(3.57339 -0.00135169 0)
(1.52164 -0.00234481 0)
(2.38267 0.00348278 0)
(4.10587 0.00201024 0)
(-1.75856 0.00221186 0)
(2.09279 0.00314889 0)
(2.49157 0.000406844 0)
(-1.27569 0.00196749 0)
(-1.70395 0.00247887 0)
(-4.92949 0.00297292 0)
(-0.475345 0.0032445 0)
(-1.86819 0.00407724 0)
(-3.28518 0.00404026 0)
(3.1885 0.00461069 0)
(2.70927 0.0048505 0)
(2.58391 0.00448686 0)
(1.43798 0.00423468 0)
(-2.79539 0.00417359 0)
(0.721321 0.00275432 0)
(-3.08203 0.00170093 0)
(-5.94103 0.00126607 0)
(5.51832 -0.00252535 0)
(2.78116 -0.00800978 0)
(-2.19492 -0.00443125 0)
(-0.0241905 -0.00959174 0)
(3.31171 -0.0283695 0)
(3.65785 -0.0431614 0)
(5.08388 -0.0284791 0)
(-2.2402 -0.0397312 0)
(-2.3027 -0.034398 0)
(-3.9612 -0.052312 0)
(-1.6912 -0.0246378 0)
(-3.26415 -0.0374121 0)
(0.0933943 -0.0514901 0)
(-1.12379 -0.0142769 0)
(-1.38886 0.0697983 0)
(-3.37511 -0.0663725 0)
(1.75109 0.262145 0)
(1.98176 0.0611892 0)
(-4.50376 0.262994 0)
(-1.28141 0.0052575 0)
(-2.81722 0.0134485 0)
(3.0232 0.0241488 0)
(0.784128 0.0442485 0)
(-0.791005 0.0196071 0)
(-0.463261 0.0205939 0)
(-2.79278 -0.00432298 0)
(-3.46582 0.0129258 0)
(2.90228 0.0193902 0)
(0.103984 0.0194513 0)
(0.434672 -0.0416516 0)
(-0.558305 -0.0114305 0)
(-0.119532 -0.0201848 0)
(3.42426 0.016982 0)
(0.859525 -0.000999313 0)
(2.32053 -0.00464301 0)
(-2.87397 -0.0040252 0)
(1.17162 -0.00297743 0)
(6.97149 -0.0034654 0)
(3.57582 0.00164711 0)
(-1.3699 0.0024199 0)
(-4.928 0.00300135 0)
(-0.662927 0.00399428 0)
(-0.0587164 0.00436458 0)
(2.74677 0.0042715 0)
(-3.1478 0.00415823 0)
(3.54441 0.00395856 0)
(-4.58333 0.00380628 0)
(-3.69414 0.00274204 0)
(1.01901 0.0017491 0)
(1.96671 -0.00123127 0)
(0.802203 0.000284116 0)
(-5.24971 -0.00472457 0)
(1.6913 -0.00376113 0)
(2.30518 -0.00984395 0)
(-3.65832 0.00149441 0)
(2.62009 0.0012298 0)
(-3.2672 -0.00804725 0)
(-0.339248 -0.0391441 0)
(-0.42442 -0.028433 0)
(-4.58403 -0.0254932 0)
(0.436698 -0.0326001 0)
(-0.957926 -0.0147389 0)
(-0.942865 0.0171862 0)
(1.12495 -0.0421655 0)
(-0.582835 -0.0264576 0)
(-0.266018 0.117331 0)
(-4.26417 0.367517 0)
(-1.69713 0.0304498 0)
(-0.512364 0.127948 0)
(-0.0536311 0.0254089 0)
(-0.545663 0.0192387 0)
(1.34996 -0.0128632 0)
(-0.235862 0.0296045 0)
(-1.75064 0.0230259 0)
(0.829747 0.0482743 0)
(-1.06151 0.00108217 0)
(-0.563771 -0.013648 0)
(0.923421 -0.0108792 0)
(-2.36602 -0.00890148 0)
(-0.537998 -0.0335229 0)
(2.41329 0.00217775 0)
(0.757491 0.00168884 0)
(-1.31619 0.00171638 0)
(3.5572 -0.0111458 0)
(5.14432 0.00196591 0)
(-1.16101 -0.00218551 0)
(1.63241 -0.000325822 0)
(-3.25782 -0.000977162 0)
(-1.89837 -0.000509688 0)
(2.26967 0.00102871 0)
(-1.22857 0.00238767 0)
(-0.166503 0.00311665 0)
(4.13083 0.00342089 0)
(1.58083 0.00441013 0)
(3.26609 0.00386493 0)
(-3.42437 0.00415698 0)
(4.33858 0.00317276 0)
(1.99335 0.00286006 0)
(2.48861 0.00200726 0)
(-3.47794 0.000662007 0)
(-1.88184 0.00124894 0)
(2.89539 -0.00452195 0)
(-0.0905756 -0.00790612 0)
(1.68432 -0.0100598 0)
(5.84324 -0.012905 0)
(0.1435 -0.00222227 0)
(2.83714 -0.0619128 0)
(1.90787 -0.0570441 0)
(-0.930672 -0.0335842 0)
(-1.35982 -0.0520749 0)
(-0.390886 0.0245395 0)
(-1.15371 -0.0630264 0)
(-2.87354 0.0300041 0)
(-2.36679 -0.016481 0)
(1.62007 0.0162604 0)
(-0.829027 -0.0281899 0)
(-1.16348 -0.174324 0)
(0.0314513 -0.127598 0)
(1.13909 -0.111785 0)
(0.726134 -0.0272969 0)
(-0.10605 0.014525 0)
(3.44999 -0.0203756 0)
(-2.89213 -0.00874203 0)
(3.12109 -0.132764 0)
(2.56066 -0.0291552 0)
(0.454565 -0.292918 0)
(1.59242 0.00582231 0)
(-1.55609 0.0238595 0)
(-0.249285 0.00779309 0)
(1.012 -0.00664551 0)
(-4.40921 0.0089071 0)
(-2.1102 0.0398798 0)
(-3.97768 -0.0148907 0)
(-1.39616 -0.0111918 0)
(3.43447 0.0104185 0)
(0.525139 -0.0106336 0)
(-1.84559 -0.00265615 0)
(4.35182 -0.00254306 0)
(-0.224622 0.00340439 0)
(0.858158 0.00120421 0)
(1.44872 0.00223016 0)
(4.49994 0.0024123 0)
(-0.460822 0.00314818 0)
(-2.39022 0.00362707 0)
(-0.183008 0.00389956 0)
(-3.28117 0.00363453 0)
(-3.21308 0.00328272 0)
(-1.63776 0.00254038 0)
(2.37095 0.00152532 0)
(2.09472 0.00113175 0)
(2.30432 -0.0013093 0)
(-0.594643 -0.00481195 0)
(0.306649 -0.00213706 0)
(6.46022 -0.00758832 0)
(-0.765665 -0.00715992 0)
(-0.86234 -0.0506039 0)
(-0.891363 -0.00712606 0)
(2.14177 -0.0243951 0)
(1.24845 -0.00750208 0)
(3.89465 -0.0287134 0)
(1.28051 -0.0656383 0)
(-1.79248 0.0118032 0)
(-1.08514 -0.0116824 0)
(-2.56551 0.0219462 0)
(-2.04107 -0.0157527 0)
(0.516769 -0.029368 0)
(2.00789 0.250239 0)
(0.306384 0.252636 0)
(2.92811 -0.125186 0)
(0.277568 -0.015615 0)
(-2.51563 -0.0293564 0)
(1.36216 -0.00879772 0)
(-0.599227 0.0277052 0)
(2.49765 0.0805376 0)
(3.68841 0.00200063 0)
(-0.60735 -0.0791783 0)
(-1.49515 -0.119722 0)
(3.2726 -0.0389524 0)
(-1.08705 0.0309618 0)
(3.05132 0.00333554 0)
(1.10374 0.0450349 0)
(-0.865671 0.0226736 0)
(-0.0139266 -0.0221282 0)
(0.662037 -0.0118928 0)
(0.165838 -0.0314604 0)
(2.94545 -0.00773398 0)
(-1.28868 -0.00455309 0)
(-2.19978 -0.00106523 0)
(1.36298 -0.00183933 0)
(2.17192 0.00149832 0)
(0.400383 0.000356414 0)
(2.84941 0.00256413 0)