/*--------------------------------*- C++ -*----------------------------------*\
  =========                 |
  \\      /  F ield         | OpenFOAM: The Open Source CFD Toolbox
   \\    /   O peration     | Website:  https://openfoam.org
    \\  /    A nd           | Version:  6
     \\/     M anipulation  |
\*---------------------------------------------------------------------------*/
FoamFile
{
    version     2.0;
    format      ascii;
    class       volScalarField;
    location    "0";
    object      p;
}
// * * * * * * * * * * * * * * * * * * * * * * * * * * * * * * * * * * * * * //

dimensions      [0 2 -2 0 0 0 0];

internalField   nonuniform List<scalar> 
13046
(
0.106719
0.0784977
0.0845793
0.11525
0.0912414
0.0678042
0.104395
0.0707412
0.0924582
0.0374474
-0.271202
0.0574736
0.112016
0.0334227
0.0768911
0.0547447
0.0497323
-0.215848
0.109121
0.0845334
0.100434
0.052738
0.0533452
-0.226116
0.105828
0.0966015
0.0836269
0.104244
0.0413592
0.0773027
0.113167
0.0586969
0.0748851
0.108988
0.0932008
0.0885747
0.105009
0.096792
0.0926197
0.10263
0.0692033
0.079845
0.0966811
0.108604
0.0980606
0.10466
0.0959158
0.0929745
0.102531
0.0713015
0.0866408
0.0319179
0.0948936
0.0674122
0.0447959
0.0635984
0.096554
-0.0686519
0.0893693
0.0466103
0.0950963
-0.00803697
0.0796848
0.0610975
-0.143632
0.0713791
0.0904031
-0.0508177
0.0413938
0.094575
-0.0359195
0.0417952
-0.0947014
0.0850588
0.0466857
0.110181
0.0948726
0.0923882
0.0517113
0.0777263
-0.115537
0.10529
0.0874682
0.0826041
0.0589635
-0.171215
0.0616388
0.0623426
0.0698577
-0.13205
0.0737504
0.0450099
-0.143871
0.0958077
0.0911906
-0.0282773
-0.0471493
0.0651342
0.0679905
0.0724783
0.0614923
-0.118048
0.110225
0.0979308
0.0868309
0.0996325
0.0734277
0.0517489
0.0978179
0.0610198
0.0794642
0.000562338
0.0560229
-0.37996
0.111897
0.0503802
0.0756795
0.090347
0.0938246
-0.0613746
0.05922
-0.0335941
0.0602989
0.0302558
-0.299621
0.0561035
0.10728
-0.0103125
0.0733407
0.103656
0.0683634
0.0731618
0.0754104
0.048184
-0.112129
0.0849468
-0.0818686
0.0676854
0.112422
0.0507208
0.0699206
0.101244
0.0577117
0.0873759
0.0933162
0.0470564
0.0871457
0.0988087
0.0877227
0.0682572
0.0972792
-0.0280196
0.0779724
0.102261
0.0905615
0.0651676
0.0148237
0.0711102
0.00346307
0.0719235
0.0905234
0.0888781
0.106201
0.0287766
0.0898016
0.0331544
0.0595726
-0.267114
0.0137974
0.0558995
-0.353516
0.0825697
-0.102004
0.0653775
0.10579
0.0401024
0.0600732
0.104738
0.0918631
0.038674
0.0636833
-0.229669
0.0395946
0.103694
0.0548918
0.0542981
0.10136
0.0830808
0.0562526
0.10397
0.0599714
0.0874953
0.0214768
0.0825559
0.10635
0.0110622
0.0714433
0.0601306
0.0650014
-0.163871
0.0749942
0.0591178
-0.103829
0.0456474
-0.151307
0.0714766
0.020966
0.0544817
0.0911603
0.106366
0.0792088
0.0447115
-0.110788
-0.18093
0.0473108
0.0689163
0.103749
0.0982626
0.0884407
0.105083
0.0537506
0.0730209
0.0768093
0.0524672
-0.0977158
0.105103
0.0277935
0.0862253
0.059166
-0.320014
0.0144486
0.0904119
0.0578321
0.0122925
0.0523737
-0.125891
0.0732075
0.0801463
0.01816
0.0918208
0.101714
0.00341148
0.0734018
-0.0561155
0.0576551
0.0789912
0.0683655
-0.0123436
0.0851694
0.0611851
-0.324936
0.00642481
0.104083
0.0615732
0.062088
0.0109422
0.050626
-0.413865
0.101762
0.10854
0.080035
0.0911749
0.0862402
0.0189109
0.0258976
0.0917735
0.0852492
0.0449086
0.073771
-0.143236
0.103759
0.020429
0.0661799
0.0683818
-0.0385368
0.0831154
0.0847224
-0.0720642
0.0631531
0.0989706
0.0918777
0.105489
0.0799588
0.00353041
0.0878177
0.10539
0.00587398
0.0641811
0.105436
0.106643
0.105071
0.0514262
0.0476905
0.0816783
-0.0131334
0.0849124
0.0765695
0.0625982
-0.0873946
0.105521
0.0578109
0.068537
0.0908781
0.0606242
0.00290791
0.0928651
-0.0396137
0.0539105
0.0971723
0.035254
0.0584987
0.0870142
0.0879764
-0.0556981
0.0531732
-0.0691688
0.0570278
0.0624422
-0.211765
0.0440497
0.0948867
-0.0146387
0.0626006
-0.459478
0.0531612
-0.0174759
0.109465
0.0980488
0.0568434
0.100022
0.00667809
0.080284
0.066128
0.0655577
-0.135637
0.0360981
0.0576526
0.0952688
-0.0766895
0.0566492
0.077806
0.0530184
0.0832046
0.0936467
0.00556058
0.0764571
0.0379906
0.088131
0.0637371
0.050649
-0.1888
0.0300911
0.0394168
0.0942345
0.0898979
-0.00784081
0.0724742
0.0955629
0.0433534
0.0913764
0.0777929
0.0359503
0.0967658
0.110446
0.0665111
0.086782
0.0885572
0.0665803
0.0111463
0.0521165
-0.161348
0.0679978
-0.0685381
0.0541125
0.0794373
0.0915136
0.0393708
0.00100694
0.0824382
0.085125
-0.0700765
-0.0942467
0.0457769
0.0494011
0.0535493
-0.44144
-0.00865516
0.0172378
0.0501311
-0.396741
0.0923124
0.0112012
0.081964
0.0631798
0.0581815
-0.188326
0.0924989
0.0937759
-0.0183028
-0.0382113
0.0540374
0.050001
0.0687286
-0.220527
0.0272033
0.00497609
0.0490956
-0.434058
0.0920928
0.108301
0.0923535
0.002076
-0.406152
0.0542841
0.105621
0.0333747
0.0541559
0.0426497
-0.217544
0.0647706
-0.444497
0.0608049
-0.0419272
0.102462
0.0680858
0.0869813
0.10385
0.0920746
0.0964918
0.0315708
0.0543344
-0.3074
0.100661
0.0800172
0.0955489
0.0938636
0.106413
0.0968787
0.0934697
0.0485708
0.0155995
0.0933122
0.0891255
0.103865
0.110647
0.0560573
0.0997449
0.0932071
0.0146397
0.0384427
0.0546254
0.0578753
-0.231583
-0.237908
0.0475697
0.0464925
0.0413722
-0.176868
0.0676546
0.0471539
0.0929431
-0.0223909
0.100237
0.0531936
0.0690797
0.0661016
-0.0213208
0.0823269
-0.375487
0.0628173
-0.0266987
0.0720246
0.0426315
-0.162623
0.019106
0.0569634
-0.326197
0.0604633
-0.466669
-0.0423578
-0.502573
0.0554507
-0.0271958
-0.0269684
0.0833664
0.0780412
-0.282678
0.0669061
0.0038043
0.077339
-0.0884489
0.0695542
0.0470134
0.044952
-0.275646
0.108851
0.0819502
0.071168
-0.197955
0.0698122
0.0345956
0.0641703
0.0836683
-0.012995
-0.0462192
0.0682911
0.0826258
0.0597565
-0.569728
-0.0657766
-0.430669
0.0570568
-0.0275441
0.111416
0.0883566
0.0688999
-0.230488
0.0226341
0.0677561
0.0689283
0.0150197
-0.238426
0.0539251
0.0604126
-0.186848
0.0489799
-0.144617
0.0698775
0.0973927
0.0127937
0.0402924
-0.0609039
0.0901593
0.0532489
0.0471709
0.0665415
-0.195699
0.104948
0.104623
0.0337355
0.0195183
0.0631737
0.0657512
0.104922
0.0433572
0.0616574
0.0971522
-0.0232373
0.0543719
-0.0559583
0.061311
0.0801023
-0.189466
0.0455863
0.0676492
0.0762158
0.0658169
-0.0782878
-0.499782
0.0530659
-0.0175993
0.110611
0.109755
0.0768677
0.071679
0.0833937
0.075722
0.102573
0.0954425
0.053141
-0.000449712
0.0518354
0.0316557
-0.435951
0.0603827
-0.0401695
-0.21904
0.0281965
0.0677822
0.0968827
0.0377948
0.0534219
-0.0396453
0.0594338
0.0816349
0.0484738
-0.129502
0.0738024
-0.37798
-0.00612921
0.0592238
-0.350201
-0.00204062
0.0605519
0.0963177
-0.029817
0.0583634
0.104748
0.0520215
0.0769057
0.0513125
0.0589369
-0.215357
-0.0411601
0.0738362
0.079862
0.0621655
-0.120367
0.0763948
0.0963437
0.0551678
0.0390314
0.084249
0.0243003
0.0917727
0.102975
0.0634174
0.0733915
0.0602769
-0.230108
0.0441859
0.084798
-0.0783177
0.0595299
0.107046
0.0734174
0.0824215
0.0590299
0.0445875
-0.225029
0.104502
0.0618291
0.073825
0.101925
0.0527665
0.0955277
-0.0292361
0.0757915
0.0825565
0.0288795
0.0484499
-0.347239
0.0346355
0.0466979
-0.332559
0.0591779
-0.127227
0.0761347
0.0798828
0.0322457
0.090538
0.0473295
-0.382067
0.0178638
0.0678501
-0.115204
0.0731807
0.0597527
-0.489952
-0.0516584
-0.035681
-0.515641
0.0543075
0.0500523
-0.182184
0.0682271
0.0606372
-0.281602
0.0259994
0.0582104
0.062692
0.0537589
-0.208106
0.0561905
-0.178387
0.0669088
-0.106903
0.0702616
0.0864142
-0.0290965
0.0522831
0.11426
0.0808962
0.073315
0.07159
-0.0872429
0.0749243
0.0764048
0.0745073
-0.0747998
0.0708685
0.0456309
-0.176646
0.10112
-0.0140943
0.0503251
0.101872
0.0238356
0.04892
0.0824267
-0.0338873
0.0770518
0.0810252
-0.043481
0.0778396
0.106788
0.0667563
0.0897066
0.104951
0.0101229
0.0682227
0.0711125
-0.190345
0.0289748
-0.00845938
0.0623024
-0.349188
-0.0171714
0.0647544
-0.349501
0.104757
0.0664497
0.060934
-0.401331
0.0601723
-0.0191868
0.0813527
0.05828
-0.107592
0.0611678
-0.3942
-0.02983
0.112464
0.0947546
0.0735381
0.104986
0.0227997
0.0763162
0.0313294
0.0756394
0.0931195
0.0673009
-0.267052
0.0126686
-0.0472819
0.0768579
0.0803724
0.0462938
0.0543819
-0.241805
0.0978899
0.0086914
0.0762983
0.113861
0.0862457
0.0755142
-0.26236
0.0198705
0.0651369
0.0643138
-0.129472
0.0718239
0.026492
0.0191635
0.0522767
0.0523854
-0.339072
-0.362522
0.0956684
0.0292601
0.0887486
-0.0144439
0.0863464
0.0792402
0.0989136
0.0645289
0.0947589
-0.314712
0.000317482
-0.308275
0.0634247
0.00119044
0.0644393
0.0925592
-0.0397794
0.0727404
0.0193459
0.00980771
-0.277581
-0.302026
0.0641722
0.0639435
0.0807626
-0.00122457
0.086193
0.0993518
0.032678
0.0813825
0.0420593
0.0477598
-0.293557
0.104801
0.0140558
0.0853192
0.105146
0.0466441
0.0884791
0.0291701
0.0494361
-0.325934
0.101734
-0.0168498
0.0676488
0.0021238
0.0516386
0.086795
0.0983131
0.0235932
0.0496851
-0.0947384
0.0757614
0.0458822
0.0581803
-0.542936
-0.0553947
0.0969243
0.0141
0.078816
0.0476786
0.0511633
-0.256718
0.0357574
0.024635
0.0956345
-0.0190374
0.0514875
-0.466165
0.10063
0.0977617
0.0566875
0.0875189
0.0591402
0.091014
0.104834
0.0607894
0.0961094
0.100769
0.103624
0.0637618
0.0933154
0.0795066
0.0858388
0.098711
0.0365035
0.0886242
0.103688
0.0381023
0.0897375
0.0646044
-0.334711
-0.0134207
0.105117
0.0554136
0.0603107
0.0276324
-0.262667
0.062647
0.0824772
0.0795088
-0.0491396
-0.0722738
0.0730883
0.0707109
0.102652
0.0729705
0.0678194
0.0961346
-0.00586589
0.052467
0.0910381
-0.0218124
0.0772319
0.107527
0.0916195
0.0845713
0.0778285
-0.0711309
0.0747137
0.108892
0.0729538
0.0842129
0.0893251
-0.00380138
0.0839067
0.0958243
0.00560666
0.0534776
0.106841
0.10583
0.0875949
0.0897899
0.0925867
0.084339
0.103918
0.0635913
0.106058
0.0966202
0.0903131
0.0890096
0.106419
0.106626
0.0408984
0.0339094
0.0692802
0.0645188
0.0512357
-0.139737
0.0749041
0.0875373
0.0593023
0.0102257
0.0542337
0.0563662
-0.163082
-0.156594
0.0693387
0.068187
0.0961899
0.0421529
0.0535669
0.10577
0.0948479
0.0944617
0.0775254
-0.0865523
0.0723131
0.10993
0.0700085
0.0633615
0.0955728
-0.00536922
0.0548945
0.0838804
0.0848239
-0.10694
0.0532502
-0.0968878
0.054753
0.0866327
-0.0531174
0.0699452
-0.010763
-0.444822
0.0521282
0.0310357
0.0388692
0.0939849
0.0944888
0.096753
0.0380853
0.0269767
0.0495213
0.0348249
0.0690748
-0.0639135
0.0785706
0.0958674
0.0115046
0.0559375
0.0986068
0.0361295
0.0426535
0.0943026
0.102092
0.044789
0.0610478
0.0541106
0.0412092
0.0955414
0.0530354
0.0393083
0.0874088
-0.0440778
0.0735737
0.107379
0.0749736
0.0905897
0.0369625
0.0528173
-0.289413
0.0986485
0.0395253
0.0332832
0.100131
0.097718
-0.00929539
-0.0225325
0.0550016
0.0613464
0.0526737
-0.260244
0.0454144
0.0438792
0.0498966
-0.282327
0.0365603
0.0507754
-0.302468
0.0809859
0.0550515
-0.113586
0.0981993
0.0239414
0.0586538
-0.248667
-0.21172
-0.013506
-0.24409
-0.0775829
-0.363209
-0.141423
-0.192361
-0.352719
-0.090376
-0.0937643
-0.387568
-0.260881
-0.0909894
-0.249492
-0.27715
-0.230281
-0.26696
-0.220903
-0.133188
-0.210013
-0.27126
-0.0731058
0.0432382
-0.00341452
-0.202209
-0.0629268
-0.387156
-0.184399
-0.267653
-0.37714
-0.147858
-0.216845
-0.225717
-0.35746
-0.203671
-0.026198
-0.0767666
-0.225185
-0.13944
-0.295817
0.0480864
-0.332713
-0.0923515
-0.0400376
-0.295681
-0.28482
-0.33583
-0.379987
-0.339689
0.00072987
-0.204775
-0.27446
-0.317359
-0.374859
-0.00609231
-0.132876
-0.209879
-0.351576
-0.102329
-0.345361
-0.324674
-0.00257936
-0.177787
-0.214582
-0.129453
-0.193004
0.0289889
-0.0746424
-0.0692393
-0.440686
-0.396388
-0.262038
-0.111792
-0.408779
-0.225465
-0.197648
-0.366272
-0.111386
-0.0428219
-0.262419
-0.227321
-0.368669
-0.301454
-0.304095
-0.100096
-0.300396
-0.240232
-0.255591
0.00442569
-0.284819
-0.103784
-0.00402978
-0.220785
-0.266448
-0.419636
-0.345388
-0.333258
-0.266408
-0.443363
-0.155259
-0.0690743
-0.0274573
0.0318586
-0.290188
-0.247177
-0.383639
-0.272263
-0.344103
-0.0292902
-0.063469
-0.131198
-0.338098
-0.408919
-0.128519
-0.0537934
-0.273566
-0.240226
-0.440839
-0.273417
-0.234276
0.0150787
0.0212039
-0.108438
-0.197929
-0.250492
-0.388646
0.0186992
-0.274994
-0.114651
-0.451889
-0.00212982
-0.367174
-0.282957
-0.262293
-0.0454735
-0.236503
-0.469666
-0.324759
-0.139249
-0.278937
-0.0965783
-0.129111
-0.288289
-0.0409979
-0.317505
-0.30899
-0.0350519
-0.321612
-0.266185
-0.383595
-0.179339
-0.228438
-0.0423976
-0.104177
-0.28453
-0.113113
-0.0937793
-0.0176798
-0.194618
-0.262389
-0.291693
-0.0826718
-0.273022
-0.137079
-0.375484
0.0410624
-0.272328
-0.0328062
0.0169256
-0.202442
0.0229366
-0.036995
-0.0199068
-0.330109
-0.45321
-0.389544
-0.013607
-0.340236
-0.353256
-0.275226
-0.349733
-0.264591
-0.305995
-0.196511
0.0171405
-0.107149
-0.296134
-0.104701
-0.323777
0.0443222
-0.306793
-0.0481095
-0.29766
-0.468985
0.00463169
0.0225547
-0.304637
-0.328392
0.0399618
-0.17979
-0.218745
-0.339819
-0.111589
-0.0285142
-0.096313
-0.300379
-0.352605
-0.0695041
-0.192165
-0.37336
-0.120982
-0.278525
-0.368481
-0.252764
-0.04452
-0.433851
-0.20093
-0.0688328
-0.309093
-0.447091
-0.286299
-0.273294
-0.235893
-0.163203
-0.149596
-0.294247
-0.361916
-0.270696
-0.129824
-0.0993945
-0.276499
-0.142374
-0.310206
-0.34063
-0.176248
-0.291405
-0.459217
-0.0896135
-0.0360113
-0.195418
0.00640558
-0.0241895
0.046952
-0.270609
-0.481579
-0.255125
-0.288027
-0.238034
-0.427758
-0.16895
0.00106506
-0.115301
-0.179862
-0.309431
-0.274473
-0.0780235
-0.213459
-0.119619
-0.319976
-0.250214
-0.30166
-0.288925
-0.30472
-0.294467
-0.280884
-0.372214
-0.144189
-0.197818
-0.283567
-0.135814
-0.249377
-0.263985
-0.347722
-0.284456
-0.316287
-0.32889
-0.187087
-0.417009
-0.481672
-0.236643
-0.394377
-0.428955
-0.179737
-0.307095
-0.425127
-0.0399323
-0.137024
-0.318076
-0.08167
-0.369324
-0.148799
-0.117662
-0.272006
-0.263438
-0.0582105
-0.250981
-0.0884878
-0.371611
-0.306648
-0.0356111
-0.307403
-0.264237
-0.505925
-0.416687
-0.465418
-0.400819
-0.32063
-0.139823
-0.352358
-0.446302
-0.356563
-0.297931
0.0459555
-0.248812
-0.116668
-0.163831
-0.290545
-0.226122
-0.307606
-0.384825
-0.159319
-0.296347
-0.00161154
-0.106876
-0.294386
-0.292914
-0.202405
0.0424379
-0.0840097
-0.0249127
-0.10299
-0.283248
-0.199911
-0.26923
-0.362967
-0.411917
-0.32694
-0.221413
-0.115752
-0.356302
-0.409275
-0.267484
-0.218034
-0.272088
-0.230088
-0.0566146
-0.243402
-0.287803
-0.00988104
-0.0415261
-0.308166
-0.152636
-0.0288321
-0.353194
-0.31209
-0.283369
-0.349886
-0.372558
-0.0301841
-0.369364
-0.24047
-0.0151897
-0.457927
-0.191984
-0.303203
-0.201718
-0.286322
-0.320174
-0.415472
-0.214856
-0.406244
-0.323616
-0.291723
-0.294422
-0.0959898
-0.00347551
-0.269575
-0.167062
-0.21062
-0.25622
-0.46915
-0.063294
-0.133442
-0.318749
-0.423497
-0.171557
-0.387833
-0.241738
-0.284264
-0.327708
-0.0597005
-0.00641102
-0.288105
-0.0935982
0.0322812
-0.056948
-0.0473857
-0.017647
-0.224273
-0.291025
-0.368706
0.0410257
-0.0586669
-0.0338285
-0.340589
-0.304259
-0.45611
-0.0838803
-0.235531
-0.254452
-0.0328816
-0.121002
-0.268624
-0.216075
-0.305088
-0.270033
-0.308834
-0.294385
-0.28086
-0.331907
-0.269618
-0.411388
-0.227191
-0.346034
-0.118547
-0.165504
-0.437097
-0.0245188
-0.0111034
-0.106244
-0.334635
-0.186805
-0.305345
-0.0896015
-0.211191
-0.382472
-0.0295853
-0.337192
0.00103002
-0.431395
-0.267417
-0.224956
-0.107625
-0.0705897
-0.26678
0.0170149
-0.25967
-0.0539958
-0.268962
-0.114544
-0.286496
-0.262124
-0.31399
-0.0470241
-0.216887
0.0367815
-0.126168
-0.414004
-0.248949
-0.152455
-0.324772
-0.33024
-0.264763
-0.340486
0.00392937
-0.267265
-0.284108
-0.0801453
-0.338548
-0.00226528
0.0302838
-0.292205
0.037335
0.0100601
-0.0491857
-0.02968
-0.179725
-0.380462
-0.341564
-0.282035
-0.0662096
-0.257587
-0.336688
0.0139316
-0.359582
-0.267753
-0.348599
-0.0192799
0.0452284
-0.361627
-0.0572995
-0.156491
-0.0041586
-0.208318
-0.0983615
-0.280589
0.01709
0.0336706
-0.124752
-0.33747
-0.0673837
-0.24228
-0.152288
-0.215711
-0.23338
-0.158467
-0.234957
-0.33653
-0.365968
-0.226108
-0.141651
-0.179479
-0.0350586
-0.362215
-0.235684
-0.130704
-0.36003
-0.0120394
-0.267998
-0.281084
-0.013583
-0.044678
-0.168884
0.0241248
-0.283495
-0.309861
-0.0928928
-0.179566
-0.17275
-0.268471
-0.308915
-0.147925
-0.121683
-0.306265
-0.295446
-0.178231
-0.426558
-0.338069
-0.00266839
0.0308968
0.0350246
-0.191634
0.038457
0.0422946
0.00871962
-0.480162
-0.164061
-0.164895
0.0236169
-0.318438
-0.262659
-0.386562
-0.338155
-0.356289
0.0143861
-0.253011
-0.240943
-0.0939761
-0.124909
-0.302312
-0.284121
0.0405873
0.0150189
-0.0236788
-0.11541
-0.322776
-0.0939374
-0.143229
-0.32066
-0.212717
-0.405224
-0.35403
-0.189361
-0.241733
-0.278584
-0.00149146
-0.00164476
-0.465155
-0.0462692
-0.290771
-0.289812
-0.247979
-0.00563159
-0.265075
-0.114621
-0.260413
-0.0194807
-0.305712
-0.259062
0.0312564
-0.459125
-0.428933
-0.287538
-0.328419
-0.482885
-0.434276
-0.320761
-0.486872
-0.231756
-0.460402
-0.390324
-0.241171
-0.338588
-0.31617
-0.269862
-0.422896
-0.420326
0.0114823
-0.0379346
-0.299236
-0.390328
-0.0328296
-0.316772
-0.262264
0.0316512
-0.311785
0.0292057
-0.247855
-0.0398578
-0.18976
-0.301695
-0.39537
-0.179721
-0.182267
-0.232523
-0.302944
-0.301495
-0.402629
-0.327217
-0.250246
-0.454329
-0.413404
0.01156
-0.272238
-0.119323
-0.084683
-0.321962
-0.0565504
-0.0818526
-0.383076
-0.425365
-0.264913
-0.414254
-0.478372
-0.112325
-0.106532
-0.296764
-0.147019
-0.292181
0.0316951
0.00790565
-0.26621
-0.301685
0.0207193
-0.033656
-0.160634
-0.154944
-0.310753
0.0351939
-0.17123
-0.465701
-0.0171597
-0.0566501
-0.000688693
-0.188743
-0.349208
-0.252081
-0.103936
-0.156381
-0.471128
0.0507484
-0.266332
-0.29782
-0.213906
-0.0239823
0.0261291
0.0358034
-0.144425
-0.198994
-0.0741244
-0.0301405
-0.00823541
-0.121091
-0.0651391
-0.284317
-0.282241
-0.162324
-0.365992
-0.287079
-0.434039
-0.269729
-0.080427
-0.424157
-0.201891
-0.256406
-0.0480751
0.0343998
-0.255724
-0.395715
-0.443681
-0.075746
-0.3309
-0.334496
-0.450218
-0.00616927
-0.185235
-0.174646
-0.392088
-0.170663
-0.335677
-0.298244
-0.0946504
-0.0849215
0.000501764
0.0402051
-0.316467
-0.0255558
-0.467071
-0.015839
0.00228706
-0.000255914
-0.0744272
-0.339659
-0.337693
-0.290211
-0.458946
-0.174522
-0.457746
-0.136893
-0.385264
-0.0338513
-0.317691
-0.447802
-0.044749
-0.0723433
-0.246509
-0.243648
-0.121981
-0.0043642
-0.187069
-0.219828
-0.457472
-0.057795
-0.151421
0.0158774
-0.479551
-0.240512
-0.0154448
-0.10588
0.0236447
-0.098939
-0.297025
-0.496346
-0.465525
-0.244785
-0.439714
0.0121128
-0.447864
-0.235027
-0.244874
-0.370931
-0.0549916
-0.483115
-0.0115151
-0.100218
-0.169316
-0.332448
-0.113997
-0.259495
-0.217035
-0.247325
-0.242604
-0.305637
-0.321615
-0.0792636
-0.335348
0.0372208
-0.324247
-0.177674
-0.132996
-0.0825971
0.00976457
-0.30362
-0.26774
-0.312733
-0.203105
-0.332538
0.00837075
-0.336179
-0.210752
-0.317078
-0.0529681
-0.347985
-0.191612
-0.409356
0.0366506
-0.463418
-0.336789
-0.22485
-0.04322
-0.44228
-0.441996
-0.349781
-0.41193
-0.00402878
-0.214284
-0.109983
-0.040346
-0.127295
-0.157373
0.0354589
-0.167562
-0.0768668
-0.139312
-0.170132
-0.429452
-0.168401
-0.248934
-0.248258
-0.156999
-0.279137
-0.417271
-0.206933
-0.211362
-0.352758
-0.0606217
-0.187726
-0.0941841
-0.255002
0.00955353
-0.242036
-0.202992
-0.135518
-0.414543
-0.342394
-0.316637
-0.181265
-0.179874
-0.151235
-0.00938565
-0.0847335
-0.0668712
-0.202294
-0.0253896
0.0148551
0.0120972
-0.142692
-0.183204
-0.158226
-0.369674
0.0232991
-0.0342962
-0.0523254
-0.231523
-0.340195
-0.423539
-0.159943
-0.108256
-0.283164
-0.0530004
-0.032423
-0.1578
-0.275591
-0.15244
-0.26062
-0.26292
-0.228134
-0.260951
-0.17338
-0.453042
-0.170929
-0.193584
-0.265571
-0.47554
-0.178115
-0.215481
-0.122269
-0.294604
-0.184434
-0.00889512
0.00322319
-0.169088
-0.246841
-0.0640248
-0.209892
-0.336856
-0.351594
-0.27593
-0.416748
-0.00982822
-0.221712
-0.194633
-0.101291
-0.117719
-0.119615
-0.282201
0.0346387
-0.1178
-0.352467
-0.225438
-0.223022
-0.0650864
-0.0164201
-0.115581
-0.162375
-0.434725
-0.364091
-0.262677
-0.160804
-0.213111
-0.167134
-0.34327
-0.00100629
-0.146254
-0.0559696
-0.0293233
-0.188246
-0.291139
-0.176283
0.0237874
-0.326169
-0.448414
-0.177427
0.0304837
-0.307021
-0.274901
-0.0766664
-0.108911
-0.0485184
-0.236187
-0.438575
-0.162706
-0.422344
-0.300987
-0.0500705
-0.244961
-0.364161
-0.292265
-0.313961
-0.147241
-0.261743
-0.263568
-0.0203454
-0.357517
0.0359742
-0.0518349
-0.384926
-0.492119
-0.213201
-0.0920052
-0.0324513
-0.23718
-0.262121
-0.259359
-0.286321
-0.227966
0.0417618
-0.0163178
-0.101805
-0.236002
-0.418761
-0.00313103
0.037583
-0.00138748
-0.0658441
-0.0185772
-0.184065
-0.417004
-0.462596
-0.448499
0.00898593
-0.218178
-0.262055
-0.235345
0.0353872
-0.308701
-0.276136
-0.403329
-0.235496
-0.355187
0.0345141
-0.159709
-0.0910513
-0.0205211
-0.032973
-0.276656
-0.140245
-0.196368
-0.0928475
-0.336483
-0.151767
-0.317041
0.00555337
-0.293851
-0.334685
-0.263031
-0.27352
-0.0107867
-0.312494
-0.0524971
-0.0248814
-0.0183935
-0.38712
-0.202871
-0.263644
-0.258254
-0.00240803
-0.1923
-0.158886
-0.165123
-0.355034
-0.232005
0.00327391
-0.133807
0.00119407
-0.456847
-0.341058
-0.302631
0.0129631
-0.246885
-0.214625
-0.388808
-0.277713
-0.225447
0.0106492
-0.206499
-0.256671
-0.401104
0.0320326
0.0266007
-0.357697
0.00150135
-0.310563
-0.38573
-0.334576
-0.218861
-0.435746
-0.129017
-0.246643
-0.320186
-0.264541
-0.0146242
-0.232937
-0.053627
-0.238834
-0.348916
-0.256105
-0.458101
-0.436199
-0.248881
-0.216154
-0.155047
-0.365515
-0.247974
-0.0264609
-0.144482
-0.321351
-0.30868
-0.0166067
-0.230134
-0.220893
0.044264
-0.171479
-0.328071
-0.225511
-0.267481
0.0203671
-0.259145
-0.242467
-0.150677
-0.432376
-0.0113241
-0.285704
-0.0230384
-0.202484
-0.084652
-0.383814
-0.0545373
-0.255875
-0.388223
-0.350203
-0.202477
-0.0122386
-0.502694
-0.284229
-0.304899
0.0132189
0.03252
-0.264834
-0.314722
-0.131918
0.0190077
-0.235701
-0.00586309
-0.0330332
-0.0552013
-0.0817831
-0.18279
-0.0966376
-0.106825
0.00186874
-0.211612
-0.18814
-0.264671
-0.26739
-0.204189
-0.323377
0.0186888
-0.278249
-0.00704955
-0.222211
0.0120304
-0.342038
0.0276868
-0.0884587
-0.0185389
0.0140458
-0.0105735
0.0416554
-0.280992
-0.0242709
-0.194997
-0.309278
-0.285237
-0.362849
0.00102974
-0.277248
-0.155718
-0.147306
-0.264044
-0.143294
-0.34795
0.00388215
-0.208834
-0.0656541
-0.471244
-0.310356
-0.302839
0.0397269
-0.25683
-0.12847
-0.264632
-0.298641
-0.368085
-0.257523
-0.320797
-0.0598917
0.00613101
-0.40839
-0.163419
-0.301652
-0.334581
-0.0458218
-0.267221
-0.266809
0.0180618
-0.441124
-0.161529
-0.106168
-0.0175713
0.0325829
-0.262077
-0.304985
-0.405202
-0.252895
-0.259422
-0.303316
-0.0672398
-0.311193
-0.388349
-0.259584
-0.200785
-0.275366
-0.250339
-0.30744
-0.207874
-0.400239
-0.0720154
-0.0857118
-0.241981
-0.0689879
-0.294521
-0.440393
-0.260112
-0.460383
0.0226272
-0.298005
-0.31622
-0.342783
-0.0302066
0.000363528
-0.191408
-0.0719234
-0.251995
-0.362367
-0.186987
-0.310653
-0.287661
-0.000139622
-0.156895
-0.0986335
0.0226488
-0.0626668
-0.18505
0.0145888
-0.409567
-0.18792
-0.193244
-0.15024
-0.205519
0.00899397
-0.314479
-0.155089
-0.230996
-0.269066
-0.32709
-0.298345
-0.0872746
-0.0426813
-0.0228838
-0.188514
-0.180559
0.0118737
-0.0502553
-0.251547
-0.152619
-0.387043
-0.282379
-0.0572699
-0.412811
-0.0302384
-0.31681
-0.0188363
0.0351323
0.00469867
-0.3283
-0.0206012
-0.0325123
-0.310656
0.0103166
-0.239064
0.0102817
-0.0616113
-0.299564
-0.397576
-0.145429
-0.277793
-0.208084
-0.257917
-0.0428761
-0.239679
0.0146759
-0.348292
-0.271164
-0.259499
-0.34259
-0.317229
-0.0422869
0.0297962
-0.354043
-0.0610837
-0.212695
-0.154722
-0.235112
-0.129617
-0.00578584
-0.055499
-0.312015
-0.013416
-0.0460924
0.0293678
-0.347525
-0.326936
-0.262966
-0.075047
0.0189074
-0.0396227
-0.239963
0.0267305
-0.210833
-0.398734
-0.396988
-0.497837
-0.199463
-0.38184
0.0275125
0.0364774
-0.181728
0.0418861
-0.0531243
-0.195877
0.0231435
-0.389742
0.00835174
-0.283482
0.000485392
-0.270743
-0.33488
-0.0784657
-0.184955
0.00968146
-0.00706635
-0.00272236
-0.309321
-0.309075
-0.421966
-0.0235091
-0.0586723
-0.264201
-0.17851
-0.0566168
-0.462152
-0.320177
-0.321723
-0.291442
-0.161155
-0.297792
-0.192757
-0.0679865
-0.20473
-0.186083
-0.0819399
-0.285458
-0.240714
-0.161844
-0.20357
-0.286036
-0.0245303
0.00765807
-0.264447
-0.0609966
-0.472368
-0.314342
-0.0184355
-0.0726198
-0.316698
0.00101384
-0.37526
-0.086283
-0.236095
-0.214935
-0.016029
-0.267772
-0.0736134
-0.0717157
-0.113398
0.0435425
-0.108808
-0.408524
-0.145574
-0.193538
-0.0728336
0.0397108
-0.113691
-0.205805
-0.287491
-0.212037
-0.0144661
-0.372642
-0.0289536
-0.29901
-0.141792
-0.0624271
-0.0839109
-0.217666
-0.020348
0.0258155
-0.245096
-0.278704
-0.190787
-0.317547
-0.403125
-0.187748
-0.0726882
-0.365846
-0.409198
-0.256006
-0.392705
-0.0907106
-0.209456
-0.0683028
-0.275717
-0.00122946
-0.20536
-0.0331533
0.0277354
-0.341057
-0.00932906
-0.236633
-0.189204
-0.17397
-0.0211792
-0.268316
-0.248397
-0.1693
-0.330197
-0.273279
-0.344331
-0.369625
-0.47075
0.0233678
0.0345673
-0.37826
-0.266088
-0.078976
-0.418396
-0.265873
-0.302059
-0.103141
-0.0858605
-0.433456
-0.477988
-0.00754922
-0.26106
-0.153016
-0.266142
-0.410484
-0.395727
-0.135387
-0.0337075
-0.15028
-0.438861
0.000680584
-0.0361841
-0.326375
-0.1605
-0.31226
0.0280983
-0.290969
-0.226075
-0.379801
-0.120912
0.00966979
-0.149295
-0.139099
-0.296198
-0.205011
-0.14171
0.02283
0.0396895
-0.270241
0.0281188
-0.288953
-0.178451
-0.178441
-0.251381
-0.286309
-0.0233248
-0.204811
-0.172431
-0.297854
-0.347826
-0.200411
-0.331908
-0.107598
0.000940736
-0.328895
-0.297553
-0.185973
-0.280904
-0.24438
-0.457793
-0.260179
-0.01707
-0.323546
-0.320565
-0.0768738
-0.187892
-0.232359
-0.126546
-0.0387997
-0.27047
-0.258466
-0.0436943
-0.251679
-0.270701
-0.194571
-0.0226899
-0.129538
-0.176004
-0.26097
-0.360408
-0.277171
0.0253319
-0.0394142
0.03362
-0.235641
-0.110016
-0.365322
-0.214383
-0.0329489
-0.410538
-0.41981
-0.0849989
-0.0351113
-0.420683
-0.26879
-0.255343
-0.271571
-0.259482
0.038873
-0.222799
-0.270982
-0.138702
-0.286454
-0.0831547
-0.130927
-0.379363
-0.253936
-0.0595003
-0.211509
0.0271297
-0.402739
-0.321924
-0.115479
-0.14601
-0.248116
-0.156731
-0.325078
0.0315252
0.0104784
-0.11293
-0.0176698
-0.336846
-0.0244184
-0.127303
-0.109252
0.0161659
-0.415945
-0.281874
0.0377177
-0.123759
-0.434187
-0.315765
-0.0348588
0.033536
-0.218358
-0.0776613
-0.262472
-0.390246
-0.30557
-0.427285
-0.032768
-0.308827
-0.208351
0.0133666
-0.353535
-0.266604
-0.285613
-0.176322
-0.260278
-0.320055
-0.289281
-0.377243
-0.20363
-0.0567441
0.0126686
-0.0854575
-0.23376
-0.291036
-0.440613
-0.315442
-0.145064
-0.159842
-0.092561
-0.0771475
-0.291068
-0.235483
-0.0435449
-0.0318403
0.0349228
-0.0161857
0.0189665
-0.215183
-0.387054
-0.316286
-0.34897
0.0234546
-0.187724
-0.293147
0.0146503
-0.381722
-0.0542894
-0.0856493
-0.260123
-0.258795
-0.280363
-0.347148
-0.0348954
-0.27587
-0.102054
-0.222574
0.00900405
-0.166574
0.0433113
-0.335972
-0.222068
-0.334011
-0.477563
-0.272401
-0.0642862
-0.277537
-0.370413
-0.17607
0.00410228
-0.072162
-0.335639
-0.382626
-0.300452
-0.393067
-0.257511
-0.407933
-0.254358
-0.35228
-0.0831976
-0.381499
-0.266889
-0.00200352
-0.191613
-0.0955495
-0.0425037
-0.258599
-0.207394
-0.311804
-0.0546368
-0.274839
-0.243492
-0.219953
-0.366638
-0.416438
-0.273865
-0.243526
-0.0757409
0.0338502
-0.0262276
-0.175738
-0.09668
-0.420272
0.0282539
-0.148934
-0.0676024
-0.249636
-0.088665
-0.313893
-0.272653
-0.055222
0.00779763
-0.0664247
-0.170344
-0.303598
0.0397108
-0.235246
-0.0449245
0.0221561
-0.11275
-0.252666
-0.421067
-0.0471576
-0.142849
-0.368109
-0.127862
-0.15745
0.00505486
-0.306859
0.0145448
0.0365026
-0.260437
-0.332008
0.0198275
-0.372115
-0.358591
-0.266071
-0.353257
-0.263846
-0.349105
-0.397464
-0.226915
-0.258508
-0.303702
-0.315694
-0.1617
-0.343101
-0.328357
-0.133443
-0.208788
-0.422938
-0.000566256
0.0320329
0.0195815
-0.271193
-0.440026
0.0478968
-0.383019
-0.232001
-0.259633
-0.306639
-0.247144
-0.086552
-0.304215
-0.32419
-0.410755
-0.407932
-0.372133
-0.316264
-0.447961
-0.22256
-0.184847
-0.233286
0.00989068
-0.184687
-0.107124
-0.226317
-0.0399702
-0.296566
-0.303266
0.0442788
-0.24556
-0.146536
-0.383562
-0.112769
0.0316322
-0.26684
-0.131946
-0.149605
-0.314485
-0.270598
-0.361005
-0.334361
-0.0798028
-0.353183
-0.241699
-0.322901
-0.258733
-0.301282
-0.35737
-0.229632
-0.28097
-0.341202
0.0305043
-0.232835
-0.238251
-0.17245
0.00414561
-0.296021
-0.403846
-0.0527028
-0.369495
-0.270568
-0.257774
-0.185536
-0.320776
-0.202403
-0.180495
0.0303988
-0.0275948
-0.392588
-0.334118
-0.417706
-0.26078
-0.435515
-0.329846
-0.248608
-0.328248
-0.245545
-0.137912
0.0411224
-0.288878
-0.092305
-0.191173
0.0245609
-0.320708
0.0332621
-0.146098
-0.382592
-0.136363
-0.0827565
-0.303998
-0.0280824
-0.257094
-0.0205118
-0.325219
-0.368858
-0.238052
0.0399293
0.0311743
-0.0785842
-0.12752
-0.0943713
-0.439156
-0.331503
-0.0866886
0.0443485
-0.349278
-0.200134
-0.252624
-0.300187
-0.255311
-0.29463
-0.354805
-0.303778
-0.347117
-0.264723
-0.287929
-0.2441
0.0419792
-0.0352376
-0.442606
-0.0614165
-0.314547
-0.374616
-0.0511126
-0.347866
-0.273014
-0.10278
-0.327172
-0.318117
-0.221876
-0.0276415
-0.363712
-0.319716
-0.288054
-0.143104
-0.347947
0.00674894
-0.430962
-0.317696
-0.285976
-0.336943
-0.12163
-0.140727
0.00593365
-0.26567
-0.06437
-0.18163
-0.146696
-0.276643
-0.118038
-0.367052
-0.359674
-0.472581
-0.137933
-0.239431
-0.287679
-0.0102836
-0.211671
-0.136045
-0.124161
-0.318529
-0.3451
-0.297812
-0.148855
-0.266799
0.0399674
-0.384688
-0.434787
-0.251834
-0.322307
-0.267691
-0.249697
-0.0854104
-0.275383
-0.229131
-0.363041
-0.253248
-0.232525
-0.288701
0.0354656
0.0213215
-0.350615
-0.304789
-0.0345234
-0.164236
-0.294028
-0.376654
-0.276102
-0.377229
-0.186836
-0.00244236
-0.292284
-0.430369
-0.139897
-0.226637
-0.428229
-0.358888
-0.220659
-0.100264
0.0392683
-0.370367
-0.409833
-0.16656
-0.0329734
-0.273169
-0.173032
-0.291667
-0.260923
-0.305929
-0.14265
-0.243681
-0.264772
-0.0579247
-0.288729
-0.442046
-0.194055
-0.273741