/*--------------------------------*- C++ -*----------------------------------*\
  =========                 |
  \\      /  F ield         | OpenFOAM: The Open Source CFD Toolbox
   \\    /   O peration     | Website:  https://openfoam.org
    \\  /    A nd           | Version:  6
     \\/     M anipulation  |
\*---------------------------------------------------------------------------*/
FoamFile
{
    version     2.0;
    format      ascii;
    class       volScalarField;
    location    "0";
    object      P_rec;
}
// * * * * * * * * * * * * * * * * * * * * * * * * * * * * * * * * * * * * * //

dimensions      [0 2 -2 0 0 0 0];

internalField   nonuniform List<scalar> 
918
(
0.557118
0.26381
0.11119
0.578121
-0.00273263
0.154159
-0.78905
0.510716
0.583728
-0.12896
0.030732
0.452723
-0.00168018
-0.0107157
-1.22059
0.0206293
0.572984
-0.743209
0.410458
0.0238152
-0.101303
0.582565
0.51245
0.406061
0.499119
-0.0905535
0.0781067
-0.0360584
-0.0568926
-0.0434037
-0.00291957
0.0490898
0.00775649
0.138508
0.125026
0.165387
0.419722
0.193418
-0.65537
-0.705738
-0.699647
-0.871966
0.521432
0.535273
-0.283509
0.489385
0.463474
0.420386
0.562072
0.586666
0.517336
0.564846
0.593301
0.258124
-0.181593
-0.253524
-0.0778519
-0.0750883
0.0738503
0.0257184
0.0128588
0.0599986
0.0464914
0.371248
0.443774
0.439043
0.464539
0.463133
0.22574
0.181245
0.226592
-0.00260175
0.129319
-0.0274884
0.0876795
-0.00796053
0.0291254
-0.0302517
-0.0465374
-1.48671
-2.23911
-0.753449
-0.620628
0.00598321
0.022094
0.0302851
0.563093
0.564745
0.559524
0.569583
0.705941
-0.676273
-0.85125
0.444139
0.443808
0.569098
0.521857
0.46233
0.394516
0.0210648
0.0176479
0.0119925
0.0401765
0.0316524
0.0887139
0.208445
0.384287
0.419221
0.46322
0.489039
0.477112
0.206351
0.536802
0.534949
-0.116943
0.0456561
-0.0914823
-0.0105464
0.0891141
0.0566189
0.159443
0.197427
-0.061947
-0.0111544
0.0368028
0.000978639
0.0266418
0.418127
0.408353
0.4327
0.422111
0.427277
0.0951974
-0.00184767
0.267036
0.30649
-0.531487
-0.569581
-0.769581
-0.788771
-0.902316
0.471559
0.539194
0.55509
-0.389317
-0.258311
-0.425141
-0.171261
-0.217753
0.42545
0.416859
0.417839
0.424574
0.427911
0.429021
0.571207
0.56384
0.599465
0.267441
0.34327
0.241823
0.201155
-0.484006
-0.351339
-0.461236
-0.0450287
-0.00822717
0.0627378
0.0980304
0.108826
0.0787053
-0.00392021
0.0118198
0.00183984
0.0162444
0.0177374
0.375195
0.359534
0.372503
0.382235
0.436886
0.435606
0.440947
0.443492
0.167878
0.155884
0.11275
0.0895008
-3.0285
-5.18401
-0.428643
-0.337308
-0.00269298
-0.0132937
-0.0050355
-0.0844962
-0.0156741
-0.0430783
0.0670445
0.0403747
0.0320906
0.0517677
0.560192
0.57305
0.699411
0.723179
0.625591
0.620722
0.441427
0.451185
0.446177
0.448439
0.0314693
0.0175868
0.0330957
0.427315
0.317287
0.371824
0.17392
0.0794741
0.253655
0.293317
0.562032
0.545643
0.567679
-0.120884
-0.037353
0.301547
0.0472792
0.287191
0.112134
0.0700064
0.109019
0.0407791
0.387182
0.404373
0.400942
0.428855
0.436281
0.436125
0.438983
0.430575
0.434366
-0.159312
-0.45307
0.420474
0.414973
0.349703
0.397388
0.533047
0.585447
0.560765
0.549716
0.559184
-0.073116
-0.109115
0.152768
0.141801
0.323226
0.338631
0.328796
0.0860334
0.0456848
0.0839395
0.0704383
0.0468185
0.0974456
-0.42308
-1.78171
-1.01952
-0.145575
-0.228377
-0.198627
0.037654
0.102078
0.0691834
0.689057
0.735422
0.392162
0.54946
0.502952
-0.151523
-0.0729898
0.0328277
-0.0897749
-0.040743
0.0391741
-0.00808775
0.402112
0.391791
0.403397
0.604643
0.66599
0.0417631
-0.0198518
-0.0608668
0.121691
0.11463
0.114376
0.716574
0.669272
0.709158
0.393213
0.382233
-0.0589204
-0.00418905
0.495619
0.522269
-0.0620129
-0.0276943
-0.13392
-0.811434
0.0428149
0.446526
0.404959
0.459934
-0.17819
0.17972
0.00236908
0.0172671
-0.0350251
0.424494
0.352081
0.321058
-0.0614187
0.00579594
-0.0041374
-0.452921
0.45463
0.438501
0.444868
0.456354
0.470099
-0.00745635
-0.0148951
0.0301113
-0.0371596
0.0422667
0.0389533
0.428544
0.418257
-0.443662
0.438617
0.463227
0.462143
0.475944
0.47723
0.465198
-0.0163229
0.0312181
0.0361203
0.141787
0.248936
-0.0356667
-0.0917216
-0.0125257
-0.146483
-0.33392
-0.0706393
-0.0613586
-0.0696646
-0.0521409
0.525235
0.489398
0.128565
-0.0573555
0.112188
0.0766703
0.442356
0.460413
0.43366
0.446086
0.463795
0.413376
0.478704
0.446936
0.443439
0.487386
-0.12295
-0.046355
-0.138307
-0.264489
0.250834
0.345977
0.158978
0.223715
0.0935151
-0.0150697
0.0425094
-0.0206696
0.00368344
-0.00020747
0.0985801
0.0301771
0.134059
0.0158061
0.106566
-0.0403019
0.134094
-0.00785202
0.407603
0.427179
0.424693
0.466284
0.384999
0.40279
0.380863
0.378914
0.399566
0.330725
0.348771
0.348809
0.0132087
0.0126369
0.0443166
0.0209296
0.0429132
-0.0309618
-0.028076
-0.028346
-0.00611565
-0.0499542
-0.0109258
-0.00466844
-0.384869
-0.539496
0.620905
0.52431
-0.0896315
0.414767
0.458653
0.431916
0.470662
0.480925
0.513533
0.478025
0.454742
0.424849
0.440723
0.423063
0.442242
-0.359366
-0.436832
-0.284657
-0.334558
0.113631
0.542484
0.298905
0.24698
0.239367
0.405392
0.329864
0.073988
-0.200535
-0.318993
-0.540227
-0.401852
-0.561571
-0.104672
-0.0505059
-0.11458
-0.0374125
0.0380129
-0.0253054
-0.0395199
-0.124255
0.430656
-0.181437
-0.161664
0.0646401
-0.020894
0.222043
0.525112
0.535221
0.46659
0.44412
0.510575
0.48407
0.483389
0.5131
0.519784
0.424037
0.189258
0.178255
0.112917
0.533384
0.447694
0.482397
0.368068
0.463962
0.467944
0.446957
0.43738
0.474169
0.43634
0.431823
0.409435
0.40137
0.441526
0.445115
0.414285
-0.00900815
-0.0175546
-0.145412
-0.36521
-0.225503
-0.321682
-0.202243
-0.0887139
-0.138106
-0.0810324
0.173324
-0.129403
-0.324588
-0.179032
-0.301773
-0.0334157
-0.129407
0.121414
0.127242
0.123876
0.138304
0.183466
0.156787
0.0336003
0.0415078
0.0747243
-0.00504077
0.124993
0.0864455
0.151426
0.0572455
0.110944
0.0645271
0.0256451
-0.00382064
0.10144
0.0476573
0.00534989
0.0277035
0.0153489
-0.0736674
-0.0726137
0.1759
0.0451636
0.44931
0.432925
0.434532
0.453502
0.486972
0.479533
0.424988
0.426204
0.453693
0.423815
0.393937
0.375164
0.366163
0.398198
0.409484
0.405708
0.446727
0.437594
0.410067
0.430865
0.376408
0.396243
0.349895
0.369208
0.396825
-0.0994113
0.0212083
-0.0387163
-0.0451899
0.0116246
0.0505605
0.109025
0.0295408
0.116031
0.0880827
0.0588164
0.0286443
0.0563441
-0.279067
-0.195436
-0.378136
-0.457691
-0.545547
0.588807
0.665213
0.542802
0.376773
0.423791
0.538368
0.64825
0.375801
0.397914
0.493708
0.377358
0.57978
0.443101
0.428511
0.450002
0.470671
0.445987
-0.208849
-0.0681754
-0.0301221
0.0756345
0.184802
0.243237
0.138349
0.0645259
0.16058
0.188058
0.524309
0.544585
0.509766
0.542342
0.537625
0.338766
0.432472
0.461167
0.456721
0.458303
0.480581
0.487421
0.482196
0.412548
0.409313
0.414607
0.37057
0.395343
0.368349
0.367879
0.422587
0.400843
0.402208
0.413487
0.462276
0.441712
0.469726
0.51507
0.493989
0.394886
0.375043
0.400144
0.411083
0.389026
0.387687
0.382525
0.123634
0.143853
0.0657371
-0.12818
-0.00151171
-0.0635786
-0.113285
-0.096752
0.0487777
-0.435434
-0.374404
-0.889531
0.316546
0.395754
0.179678
-0.0908459
0.423223
0.458879
0.443074
0.344534
0.355509
0.517145
0.538854
0.547455
0.473755
0.468303
0.487244
0.47303
0.425929
0.303056
0.237033
0.277628
0.116731
0.177253
0.331541
0.274031
0.230259
0.261851
0.351248
0.256702
0.28352
0.357611
0.319591
0.310445
0.436423
0.482415
0.498469
0.441229
0.352309
0.412391
0.398297
0.445287
0.486733
0.490681
0.447153
0.428155
0.43791
0.429448
0.418285
0.436036
0.405352
0.451934
0.457565
0.465802
0.459389
-0.0132637
0.00960492
0.0249931
-0.0188986
-0.0612871
-0.113055
-0.126257
-0.135938
0.0703267
0.0431127
-0.0625792
-0.0132302
0.0870138
0.0358533
0.066619
0.0745664
-0.00486694
-0.0588598
0.0954435
0.269269
0.25985
0.201751
0.0789837
0.110749
0.218878
0.0308123
0.124619
0.077091
0.0392419
0.0399802
0.0170371
0.110373
0.0457799
0.0858638
0.0370882
-0.117244
0.0441386
0.0984445
-0.0520872
0.00714469
0.0408665
0.411851
0.415084
0.399374
0.380022
0.387915
0.386221
0.422904
0.448315
0.450206
0.449166
0.455867
0.438358
0.444715
0.00917609
0.129659
0.158275
0.0935057
0.0452732
-0.00737476
-0.0236713
0.0428782
-0.132729
-0.0868963
-0.209889
-0.302893
-0.252625
0.32067
0.338658
0.352302
0.531835
0.395424
0.305753
0.394339
0.513499
0.220062
0.313593
0.197979
0.582425
0.5183
0.619551
0.377384
0.0332827
0.120147
0.263478
-0.00201224
-0.00166012
0.117806
0.121107
0.125167
0.120455
0.200551
0.18203
0.159573
0.0645674
0.108592
0.232078
0.217827
0.29443
0.35327
0.0764236
0.0910814
0.0241164
0.499321
0.525306
0.547426
0.519739
0.540004
0.480074
0.477198
0.509277
0.536018
0.52477
-0.739451
-0.47945
-1.31234
-0.628403
-0.331275
0.415586
0.154154
0.769878
0.606543
0.470061
0.493119
0.496292
0.457581
0.51357
0.513762
0.267633
0.360926
0.303972
0.341474
0.253123
0.179658
0.480068
0.468514
0.493855
0.514083
0.471799
0.513254
0.36806
0.410138
0.392505
0.427122
0.450552
0.470311
0.0748089
0.01736
0.0266883
0.0115148
0.00566623
-0.00747076
-0.0496125
-0.0162797
0.171069
0.10906
0.0490351
0.106232
-0.00335553
-0.0289979
-0.154206
-0.0765898
-0.148614
-0.285235
-0.266779
-0.229884
-0.12448
-0.0489322
0.292566
0.456451
0.352773
0.489128
0.305203
0.461022
0.35626
0.363441
0.389847
0.282963
0.324581
-0.0322189
-0.326681
-0.231548
0.84023
0.930826
0.577017
0.313316
0.0771215
0.394652
0.449492
0.382449
0.400067
0.481365
0.442402
-0.128189
-0.0321257
-0.0936426
-0.0226751
0.118378
0.0503711
0.0567712
0.0501669
0.0568855
)
;

boundaryField
{
    wall-4
    {
        type            calculated;
        value           nonuniform List<scalar> 
100
(
0.557118
0.26381
0.11119
0.578121
0.154159
-0.78905
0.510716
-0.12896
0.030732
0.452723
-0.00168018
-0.0107157
-1.22059
0.572984
-0.743209
0.410458
0.0238152
-0.101303
0.406061
0.499119
-0.0905535
0.0781067
-0.0360584
0.138508
0.419722
-0.705738
-0.871966
0.535273
-0.283509
0.463474
0.420386
-0.253524
-0.0750883
0.0128588
0.0464914
0.371248
0.439043
0.463133
0.129319
0.0876795
0.0291254
-0.0465374
-2.23911
-0.620628
0.564745
0.569583
-0.85125
0.443808
0.394516
0.0176479
0.0316524
0.208445
0.419221
0.477112
0.206351
0.534949
-0.116943
-0.0105464
0.0566189
0.197427
0.408353
0.4327
0.427277
-0.569581
-0.902316
0.55509
-0.425141
-0.217753
0.417839
0.429021
-0.461236
-0.00822717
0.00183984
0.0177374
0.359534
0.382235
0.436886
0.443492
0.0895008
-0.337308
0.57305
0.441427
0.448439
0.0330957
0.371824
0.0794741
0.293317
0.567679
-0.037353
0.112134
0.400942
0.436125
0.434366
0.559184
-0.109115
0.328796
0.0704383
-0.198627
-0.040743
-0.0608668
)
;
    }
    velocity-inlet-5
    {
        type            calculated;
        value           nonuniform List<scalar> 8(0.557118 0.578121 0.583728 0.582565 0.586666 0.593301 0.569098 0.599465);
    }
    velocity-inlet-6
    {
        type            calculated;
        value           nonuniform List<scalar> 4(0.26381 0.154159 0.165387 0.226592);
    }
    pressure-outlet-7
    {
        type            calculated;
        value           uniform 0;
    }
    wall-8
    {
        type            calculated;
        value           nonuniform List<scalar> 
34
(
-0.00273263
0.0206293
0.00775649
0.193418
0.258124
0.0738503
0.0302851
0.705941
0.0266418
-0.00184767
0.30649
0.471559
0.34327
0.201155
0.0980304
0.0787053
-5.18401
0.0670445
0.0517677
0.723179
0.620722
-0.45307
0.420474
0.397388
0.585447
0.141801
-1.01952
0.0691834
0.735422
0.502952
0.403397
0.66599
0.114376
0.709158
)
;
    }
    frontAndBackPlanes
    {
        type            empty;
    }
}

