/*--------------------------------*- C++ -*----------------------------------*\
  =========                 |
  \\      /  F ield         | OpenFOAM: The Open Source CFD Toolbox
   \\    /   O peration     | Website:  https://openfoam.org
    \\  /    A nd           | Version:  6
     \\/     M anipulation  |
\*---------------------------------------------------------------------------*/
FoamFile
{
    version     2.0;
    format      ascii;
    class       volScalarField;
    location    "0";
    object      p;
}
// * * * * * * * * * * * * * * * * * * * * * * * * * * * * * * * * * * * * * //

dimensions      [0 2 -2 0 0 0 0];

internalField   nonuniform List<scalar> 
9000
(
121.421
67.4523
52.4859
46.1621
42.8699
40.9866
39.7678
38.8858
38.1876
37.5931
37.0576
36.555
36.0694
35.5916
35.1157
34.6387
34.1588
33.6755
33.1885
32.698
32.2045
31.7084
31.2101
30.7102
30.2092
29.7073
29.205
28.7027
28.2007
27.6993
27.1988
26.6996
26.2022
25.7068
25.2142
24.7247
24.2393
23.7587
23.2843
22.8176
22.3607
21.9165
21.4892
21.085
20.7127
20.3843
20.1055
19.8455
19.8384
18.733
91.4423
64.0306
53.1548
47.3164
43.8858
41.7565
40.3288
39.2919
38.4819
37.8068
37.213
36.6677
36.151
35.6502
35.1576
34.6683
34.1796
33.6899
33.1984
32.7047
32.209
31.7113
31.2121
30.7116
30.2101
29.708
29.2056
28.7032
28.2011
27.6995
27.1989
26.6994
26.2015
25.7055
25.2119
24.7211
24.2337
23.7506
23.2725
22.8006
22.3363
21.8813
21.4379
21.0086
20.5958
20.1993
19.8067
19.3676
18.8676
17.2839
73.2878
60.1974
53.019
47.9326
44.595
42.3672
40.8096
39.6583
38.7575
38.0128
37.3661
36.7811
36.2345
35.7113
35.202
34.7003
34.2025
33.7061
33.2097
32.7126
32.2144
31.7151
31.2146
30.7133
30.2113
29.7089
29.2062
28.7036
28.2013
27.6996
27.1986
26.6987
26.2002
25.7033
25.2085
24.7161
24.2264
23.7402
23.2578
22.7798
22.307
21.8398
21.3784
20.9219
20.4666
20.0023
19.502
18.8946
18.0979
16.6166
63.4731
56.5115
51.7731
47.7028
44.7567
42.6387
41.0816
39.8949
38.9512
38.1665
37.4857
36.873
36.3043
35.7639
35.2413
34.7295
34.2239
33.7217
33.2209
32.7206
32.2201
31.7191
31.2175
30.7153
30.2127
29.7098
29.2068
28.7039
28.2013
27.6993
27.1979
26.6975
26.1982
25.7004
25.2042
24.71
24.218
23.7285
23.2417
22.7577
22.2765
21.7976
21.3195
20.8389
20.3487
19.8341
19.2647
18.5755
17.6918
16.3917
56.9757
53.2348
50.1486
47.0442
44.5785
42.6715
41.1942
40.0268
39.0765
38.2754
37.5762
36.946
36.3621
35.8089
35.2759
34.7558
34.2438
33.7365
33.232
32.7287
32.226
31.7234
31.2205
30.7175
30.2142
29.7108
29.2074
28.7041
28.2011
27.6986
27.1968
26.6957
26.1957
25.6968
25.1992
24.7032
24.2087
23.7159
23.2247
22.7348
22.2457
21.7559
21.2629
20.7621
20.2447
19.695
19.0854
18.3655
17.4804
16.3376
52.3104
50.4538
48.5104
46.208
44.2049
42.5432
41.1874
40.0745
39.1437
38.345
37.6402
37.0013
36.4082
35.8464
35.3058
34.7793
34.262
33.7505
33.2426
32.7367
32.2319
31.7277
31.2237
30.7197
30.2157
29.7118
29.2079
28.7042
28.2008
27.6978
27.1954
26.6937
26.1927
25.6927
25.1937
24.6958
24.1988
23.7028
23.2074
22.712
22.2155
21.7161
21.2106
20.6936
20.1562
19.5838
18.9536
18.2297
17.3757
16.3635
48.931
48.1563
46.9851
45.3134
43.7199
42.3051
41.0901
40.0534
39.1608
38.3789
37.6792
37.0395
36.4427
35.8761
35.3306
34.7995
34.2781
33.7632
33.2524
32.7443
32.2377
31.732
31.2269
30.722
30.2173
29.7127
29.2083
28.7041
28.2002
27.6967
27.1937
26.6913
26.1895
25.6883
25.1879
24.6881
24.1888
23.6897
23.1904
22.69
22.1871
21.6796
21.1641
20.635
20.0842
19.4991
18.8621
18.1493
17.3393
16.4344
46.4441
46.2769
45.6187
44.4293
43.1827
41.9985
40.9286
39.9792
39.1368
38.3823
37.6962
37.062
36.4661
35.8982
35.3502
34.8162
34.292
33.7745
33.2615
32.7514
32.2432
31.7362
31.23
30.7242
30.2188
29.7136
29.2086
28.704
28.1996
27.6955
27.1919
26.6887
26.186
25.6837
25.1819
24.6803
24.1788
23.677
23.1742
22.6694
22.1612
21.6473
21.1242
20.5869
20.0282
19.438
18.8036
18.11
17.3468
16.5287
44.5722
44.7421
44.4234
43.5965
42.6348
41.6562
40.7259
39.8671
39.0815
38.361
37.6945
37.0707
36.4797
35.9132
35.3649
34.8296
34.3037
33.7843
33.2695
32.7579
32.2483
31.7401
31.2329
30.7263
30.2202
29.7144
29.2089
28.7037
28.1988
27.6942
27.1899
26.686
26.1823
25.679
25.1758
24.6727
24.1692
23.6649
23.1591
22.6508
22.1383
21.6196
21.0913
20.549
19.9869
19.3971
18.7711
18.1003
17.3815
16.6331
43.1342
43.4874
43.3934
42.8361
42.1039
41.3028
40.5008
39.7305
39.0037
38.3211
37.6781
37.0682
36.4848
35.9221
35.3751
34.8398
34.3131
33.7926
33.2766
32.7637
32.253
31.7438
31.2357
30.7283
30.2215
29.7151
29.2091
28.7033
28.1979
27.6927
27.1878
26.6831
26.1787
25.6743
25.17
24.6653
24.1601
23.6537
23.1455
22.6343
22.1187
21.5966
21.0652
20.5207
19.9584
19.3729
18.7586
18.1114
17.4325
16.74
42.0109
42.46
42.5148
42.1568
41.607
40.9558
40.2682
39.5808
38.9118
38.2682
37.6506
37.0568
36.4831
35.9259
35.3816
34.8473
34.3206
33.7995
33.2826
32.7688
32.2572
31.7471
31.2382
30.7301
30.2227
29.7157
29.2091
28.7029
28.1969
27.6912
27.1857
26.6803
26.1751
25.6698
25.1644
24.6585
24.1517
23.6436
23.1335
22.6202
22.1024
21.5783
21.0454
20.5008
19.941
19.3621
18.761
18.1368
17.4927
16.8452
41.1222
41.6181
41.7714
41.5604
41.154
40.6273
40.0392
39.4271
38.8127
38.2073
37.6158
37.039
36.4762
35.9255
35.3848
34.8523
34.3262
33.8051
33.2877
32.7732
32.2608
31.7501
31.2404
30.7317
30.2237
29.7162
29.2091
28.7023
28.1958
27.6896
27.1835
26.6775
26.1715
25.6655
25.1591
24.6521
24.1442
23.6347
23.1231
22.6084
22.0894
21.5644
21.0315
20.4884
19.9326
19.3618
18.7745
18.1716
17.5574
16.9463
40.4131
40.9287
41.1477
41.0447
40.7504
40.3257
39.8224
39.2769
38.7124
38.1431
37.5768
37.0172
36.4656
35.922
35.3856
34.8554
34.3303
33.8095
33.2919
32.7769
32.264
31.7526
31.2424
30.7331
30.2245
29.7165
29.2089
28.7017
28.1947
27.6879
27.1813
26.6748
26.1682
25.6614
25.1542
24.6463
24.1374
23.627
23.1145
22.5989
22.0794
21.5544
21.0226
20.4822
19.9316
19.3695
18.7957
18.2121
17.6236
17.0421
39.8457
40.3669
40.6295
40.6059
40.3986
40.0562
39.624
39.1359
38.6157
38.0793
37.5366
36.9935
36.4529
35.9165
35.3845
34.8569
34.3332
33.8128
33.2953
32.78
32.2667
31.7548
31.244
30.7342
30.2252
29.7167
29.2086
28.7009
28.1935
27.6863
27.1792
26.6721
26.1649
25.6575
25.1497
24.6411
24.1315
23.6205
23.1074
22.5915
22.0721
21.5479
21.018
20.4811
19.9363
19.3831
18.8222
18.2559
17.6891
17.1318
39.3938
39.9134
40.2051
40.2397
40.0991
39.8223
39.4484
39.0086
38.5267
38.0192
37.4978
36.9697
36.4395
35.9099
35.3823
34.8573
34.335
33.8153
33.2979
32.7825
32.2688
31.7565
31.2454
30.7351
30.2256
29.7167
29.2082
28.7001
28.1923
27.6846
27.1771
26.6695
26.1619
25.654
25.1456
24.6365
24.1265
23.6151
23.1018
22.586
22.0672
21.5444
21.0169
20.484
19.9453
19.4008
18.8518
18.3008
17.7525
17.2151
39.0387
39.5539
39.8649
39.9417
39.8516
39.6259
39.2986
38.8984
38.4483
37.9655
37.4623
36.9474
36.4264
35.9031
35.3795
34.857
34.3361
33.8171
33.2999
32.7844
32.2705
31.7579
31.2463
30.7357
30.2258
29.7165
29.2077
28.6992
28.191
27.683
27.175
26.6671
26.159
25.6507
25.1419
24.6325
24.1222
23.6106
23.0974
22.5822
22.0643
21.5433
21.0186
20.4899
19.9573
19.4211
18.8829
18.3454
17.8128
17.2918
38.7674
39.2775
39.6013
39.7082
39.6552
39.4682
39.1768
38.8077
38.383
37.9201
37.432
36.928
36.4148
35.8967
35.3766
34.8562
34.3366
33.8182
33.3013
32.7858
32.2717
31.7588
31.247
30.7361
30.2258
29.7162
29.207
28.6982
28.1897
27.6813
27.173
26.6647
26.1563
25.6476
25.1386
24.6289
24.1185
23.607
23.0942
22.5796
22.063
21.544
21.0223
20.498
19.9712
19.4428
18.9144
18.3886
17.8693
17.362
38.5708
39.0764
39.4083
39.5358
39.509
39.3496
39.0844
38.7383
38.3326
37.8847
37.4081
36.9125
36.4053
35.8914
35.374
34.8554
34.3368
33.8189
33.3022
32.7868
32.2725
31.7594
31.2473
30.7361
30.2256
29.7157
29.2062
28.6971
28.1883
27.6796
27.171
26.6624
26.1537
25.6448
25.1356
24.6258
24.1154
23.6041
23.0918
22.5781
22.0629
21.5461
21.0275
20.5073
19.9861
19.4648
18.9451
18.4295
17.9215
17.4256
38.4429
38.9452
39.2819
39.4222
39.412
39.2705
39.0224
38.6914
38.2984
37.8605
37.3916
36.9018
36.3986
35.8875
35.3721
34.8546
34.3367
33.8193
33.3027
32.7872
32.2729
31.7596
31.2474
30.7359
30.2252
29.715
29.2053
28.696
28.1869
27.6779
27.1691
26.6602
26.1513
25.6422
25.1328
24.623
24.1127
23.6018
23.09
22.5774
22.0637
21.549
21.0334
20.5173
20.0012
19.4864
18.9744
18.4676
17.969
17.4826
38.3798
38.8804
39.2194
39.3658
39.3637
39.231
38.9913
38.6678
38.281
37.8482
37.3831
36.8962
36.3952
35.8855
35.371
34.8541
34.3366
33.8193
33.3028
32.7873
32.2728
31.7595
31.247
30.7354
30.2245
29.7142
29.2042
28.6947
28.1854
27.6762
27.1671
26.6581
26.149
25.6397
25.1303
24.6205
24.1104
23.5998
23.0887
22.5771
22.065
21.5524
21.0397
20.5273
20.0159
19.5068
19.0015
18.5022
18.0117
17.5332
38.3798
38.8804
39.2194
39.3658
39.3637
39.231
38.9913
38.6678
38.281
37.8482
37.3831
36.8961
36.3951
35.8854
35.3708
34.854
34.3364
33.819
33.3025
32.7869
32.2724
31.7589
31.2464
30.7347
30.2236
29.7131
29.2031
28.6933
28.1838
27.6745
27.1652
26.656
26.1467
25.6373
25.1278
24.6181
24.1082
23.5981
23.0876
22.577
22.0664
21.5558
21.0457
20.5367
20.0296
19.5255
19.026
18.5332
18.0493
17.5774
38.4428
38.9452
39.2819
39.4221
39.412
39.2705
39.0224
38.6914
38.2983
37.8604
37.3914
36.9016
36.3984
35.8872
35.3717
34.8541
34.3361
33.8185
33.3018
32.7861
32.2716
31.758
31.2454
30.7337
30.2225
29.7119
29.2017
28.6918
28.1822
27.6727
27.1632
26.6538
26.1444
25.635
25.1254
24.6158
24.1061
23.5963
23.0866
22.577
22.0676
21.5589
21.0512
20.5452
20.0418
19.5421
19.0475
18.5601
18.0818
17.6153
38.5707
39.0763
39.4082
39.5357
39.5089
39.3495
39.0844
38.7382
38.3325
37.8846
37.4078
36.9122
36.4049
35.8909
35.3734
34.8546
34.3358
33.8177
33.3007
32.7849
32.2703
31.7568
31.2442
30.7324
30.2212
29.7105
29.2003
28.6903
28.1805
27.6708
27.1613
26.6517
26.1422
25.6326
25.123
24.6135
24.104
23.5946
23.0854
22.5766
22.0685
21.5614
21.0558
20.5524
20.0522
19.5561
19.0658
18.5828
18.1091
17.647
38.7672
39.2773
39.6011
39.708
39.6551
39.468
39.1767
38.8076
38.3828
37.9199
37.4316
36.9276
36.4142
35.896
35.3757
34.8551
34.3352
33.8165
33.2992
32.7833
32.2687
31.7552
31.2426
30.7309
30.2197
29.709
29.1987
28.6886
28.1787
27.669
27.1592
26.6496
26.1399
25.6302
25.1206
24.6111
24.1017
23.5926
23.0839
22.5758
22.0687
21.563
21.0592
20.558
20.0604
19.5674
19.0805
18.6012
18.1312
17.6726
39.0384
39.5537
39.8648
39.9416
39.8514
39.6258
39.2984
38.8982
38.4481
37.9652
37.4619
36.9469
36.4258
35.9022
35.3784
34.8556
34.3344
33.8149
33.2973
32.7813
32.2666
31.7532
31.2408
30.7291
30.218
29.7074
29.197
28.6869
28.1769
27.667
27.1572
26.6473
26.1375
25.6277
25.118
24.6085
24.0992
23.5902
23.0819
22.5744
22.0681
21.5635
21.0611
20.5617
20.0662
19.5758
19.0916
18.6152
18.1481
17.6923
39.3935
39.9132
40.2049
40.2396
40.0989
39.8221
39.4482
39.0084
38.5264
38.0189
37.4973
36.969
36.4387
35.9089
35.381
34.8557
34.333
33.8128
33.2948
32.7787
32.2642
31.7509
31.2387
30.7271
30.2162
29.7056
29.1953
28.6851
28.1751
27.6651
27.1551
26.6451
26.1351
25.6252
25.1153
24.6057
24.0963
23.5875
23.0793
22.5722
22.0665
21.5627
21.0614
20.5634
20.0695
19.5809
19.0988
18.6246
18.1598
17.706
39.8454
40.3666
40.6293
40.6057
40.3984
40.056
39.6238
39.1356
38.6154
38.0789
37.5361
36.9928
36.4521
35.9154
35.3831
34.8551
34.3309
33.8099
33.2917
32.7757
32.2613
31.7483
31.2363
30.725
30.2142
29.7037
29.1934
28.6833
28.1732
27.6631
27.1529
26.6428
26.1326
25.6224
25.1124
24.6026
24.0931
23.5842
23.0761
22.5692
22.0638
21.5605
21.0599
20.5628
20.0701
19.5829
19.1023
18.6296
18.1663
17.7139
40.4127
40.9284
41.1474
41.0445
40.7502
40.3255
39.8222
39.2766
38.712
38.1427
37.5762
37.0165
36.4647
35.9207
35.384
34.8534
34.3278
33.8063
33.288
32.7721
32.258
31.7454
31.2337
30.7226
30.212
29.7017
29.1915
28.6814
28.1713
27.661
27.1508
26.6404
26.13
25.6196
25.1093
24.5992
24.0895
23.5804
23.0722
22.5652
22.0599
21.5568
21.0566
20.56
20.068
19.5815
19.1018
18.6301
18.1677
17.7161
41.1218
41.6178
41.7712
41.5601
41.1538
40.6271
40.039
39.4268
38.8124
38.2069
37.6152
37.0382
36.4752
35.9241
35.3831
34.8502
34.3235
33.8016
33.2834
32.7679
32.2543
31.7421
31.2308
30.7201
30.2098
29.6997
29.1896
28.6795
28.1693
27.659
27.1486
26.638
26.1273
25.6166
25.106
24.5955
24.0855
23.5761
23.0675
22.5603
22.0548
21.5516
21.0513
20.5548
20.0629
19.5768
19.0974
18.6261
18.164
17.7127
42.0106
42.4597
42.5145
42.1566
41.6068
40.9556
40.2679
39.5805
38.9115
38.2677
37.65
37.056
36.4821
35.9245
35.3798
34.845
34.3177
33.7959
33.2781
32.7631
32.2502
31.7386
31.2278
30.7176
30.2076
29.6977
29.1877
28.6777
28.1674
27.657
27.1464
26.6355
26.1245
25.6135
25.1024
24.5916
24.081
23.5711
23.0621
22.5543
22.0484
21.5447
21.0441
20.5472
20.0551
19.5687
19.0891
18.6176
18.1554
17.7038
43.1338
43.4871
43.3931
42.8359
42.1037
41.3026
40.5006
39.7303
39.0034
38.3207
37.6775
37.0674
36.4838
35.9208
35.3734
34.8375
34.3102
33.7889
33.2719
32.7578
32.2456
31.7348
31.2246
30.7149
30.2053
29.6957
29.1859
28.6759
28.1656
27.6551
27.1442
26.6331
26.1217
25.6103
25.0987
24.5873
24.0762
23.5656
23.0558
22.5474
22.0406
21.5362
21.0348
20.5372
20.0444
19.5573
19.077
18.6048
18.1418
17.6895
44.5719
44.7418
44.4232
43.5963
42.6347
41.6561
40.7257
39.8669
39.0812
38.3606
37.694
37.07
36.4787
35.9119
35.3631
34.8273
34.3007
33.7805
33.2647
32.7518
32.2407
31.7308
31.2214
30.7122
30.2031
29.6937
29.1841
28.6742
28.1639
27.6532
27.1421
26.6307
26.1189
25.607
25.0949
24.5828
24.0709
23.5595
23.0489
22.5394
22.0317
21.5262
21.0237
20.5249
20.0309
19.5425
19.0611
18.5876
18.1235
17.6699
46.4438
46.2766
45.6186
44.4292
43.1825
41.9983
40.9285
39.979
39.1366
38.3819
37.6957
37.0613
36.4652
35.8969
35.3485
34.814
34.2891
33.7708
33.2567
32.7453
32.2355
31.7266
31.2181
30.7096
30.2009
29.6919
29.1825
28.6726
28.1623
27.6514
27.1401
26.6283
26.1161
25.6036
25.0909
24.578
24.0653
23.5529
23.0412
22.5306
22.0215
21.5146
21.0106
20.5103
20.0146
19.5246
19.0414
18.5663
18.1003
17.645
48.9307
48.1561
46.985
45.3133
43.7198
42.305
41.09
40.0532
39.1606
38.3786
37.6789
37.039
36.4419
35.875
35.329
34.7974
34.2754
33.7596
33.2478
32.7383
32.23
31.7224
31.2148
30.7071
30.1989
29.6902
29.181
28.6712
28.1608
27.6498
27.1382
26.6261
26.1134
25.6003
25.0868
24.5731
24.0594
23.5459
23.0329
22.5208
22.0102
21.5016
20.9958
20.4935
19.9957
19.5036
19.0182
18.5407
18.0726
17.615
52.3101
50.4536
48.5102
46.2079
44.2048
42.5431
41.1873
40.0745
39.1436
38.3448
37.6399
37.0009
36.4076
35.8455
35.3045
34.7774
34.2594
33.7471
33.2381
32.7309
32.2244
31.7182
31.2117
30.7047
30.1971
29.6888
29.1798
28.6701
28.1596
27.6484
27.1366
26.624
26.1108
25.597
25.0828
24.5681
24.0533
23.5385
23.0241
22.5104
21.9979
21.4873
20.9792
20.4746
19.9743
19.4795
18.9914
18.5112
18.0402
17.5799
56.9755
53.2346
50.1485
47.0441
44.5785
42.6715
41.1942
40.0269
39.0765
38.2754
37.5761
36.9458
36.3616
35.8082
35.2748
34.7542
34.2415
33.7334
33.2278
32.7232
32.2188
31.7141
31.2088
30.7026
30.1956
29.6877
29.1789
28.6692
28.1587
27.6473
27.1351
26.6222
26.1084
25.5939
25.0788
24.5632
24.0471
23.5309
23.0148
22.4992
21.9847
21.4717
20.9611
20.4537
19.9505
19.4526
18.9612
18.4777
18.0034
17.5399
63.4729
56.5114
51.7731
47.7028
44.7567
42.6388
41.0817
39.8951
38.9514
38.1666
37.4858
36.8729
36.3041
35.7634
35.2405
34.7282
34.222
33.719
33.2172
32.7156
32.2134
31.7103
31.2062
30.7009
30.1944
29.6869
29.1783
28.6687
28.1581
27.6465
27.134
26.6206
26.1063
25.5911
25.075
24.5583
24.0409
23.5231
23.0053
22.4876
21.9707
21.4551
20.9416
20.431
19.9244
19.4229
18.9278
18.4405
17.9624
17.495
73.2877
60.1973
53.0189
47.9326
44.5951
42.3673
40.8098
39.6586
38.7578
38.0131
37.3664
36.7813
36.2345
35.7111
35.2015
34.6995
34.2011
33.7039
33.2065
32.7082
32.2084
31.707
31.2041
30.6996
30.1937
29.6865
29.1781
28.6685
28.1578
27.6461
27.1332
26.6194
26.1044
25.5885
25.0715
24.5535
24.0348
23.5153
22.9955
22.4755
21.956
21.4374
20.9206
20.4064
19.8958
19.3901
18.8907
18.3989
17.9163
17.4445
91.4422
64.0305
53.1548
47.3165
43.886
41.7567
40.3291
39.2922
38.4823
37.8073
37.2134
36.6681
36.1513
35.6504
35.1575
34.6679
34.1787
33.6883
33.1959
32.7011
32.2038
31.7042
31.2025
30.6989
30.1936
29.6867
29.1784
28.6689
28.1581
27.6461
27.1329
26.6185
26.103
25.5862
25.0682
24.549
24.0286
23.5073
22.9852
22.4627
21.9401
21.4181
20.8974
20.3789
19.8637
19.3531
18.8484
18.3513
17.8633
17.3861
121.421
67.4523
52.486
46.1622
42.8701
40.9869
39.7681
38.8863
38.1881
37.5937
37.0583
36.5556
36.0701
35.5921
35.116
34.6387
34.1585
33.6746
33.1868
32.6952
32.2003
31.7023
31.2017
30.6988
30.1939
29.6873
29.1791
28.6695
28.1586
27.6464
27.1329
26.6181
26.102
25.5844
25.0655
24.5451
24.0233
23.5002
22.9759
22.4509
21.9254
21.4
20.8755
20.3529
19.8331
19.3176
18.8078
18.3053
17.8119
17.3296
8.67898
10.7332
10.8546
11.2639
11.4875
11.6481
11.7444
11.798
11.8176
11.8109
11.783
11.7377
11.678
11.6063
11.5243
11.4336
11.3354
11.2308
11.1208
11.006
10.8872
10.7649
10.6397
10.512
10.3822
10.2505
10.1174
9.98301
9.8476
9.71134
9.5744
9.43692
9.29901
9.16076
9.02228
8.88361
8.74483
8.60599
8.46711
8.32823
8.18938
8.05058
7.91183
7.77316
7.63456
7.49605
7.35762
7.21927
7.08101
6.94283
6.80472
6.66669
6.52873
6.39083
6.25299
6.11521
5.97747
5.83978
5.70214
5.56453
5.42695
5.2894
5.15188
5.01438
4.87691
4.73945
4.602
4.46457
4.32715
4.18974
4.05234
3.91495
3.77756
3.64018
3.5028
3.36543
3.22805
3.09068
2.95332
2.81595
2.67858
2.54122
2.40386
2.26649
2.12913
1.99177
1.8544
1.71704
1.57968
1.44232
1.30496
1.16759
1.03023
0.892868
0.755505
0.618143
0.480781
0.343416
0.206061
0.0686755
11.224
11.8087
11.5059
11.6816
11.782
11.8673
11.9145
11.9332
11.9266
11.8995
11.8553
11.7966
11.7258
11.6448
11.5549
11.4576
11.3539
11.2447
11.1307
11.0127
10.8913
10.7668
10.6399
10.5108
10.3799
10.2474
10.1137
9.9789
9.84323
9.70685
9.56988
9.43245
9.29466
9.15658
9.01829
8.87985
8.74131
8.60271
8.46409
8.32546
8.18685
8.04828
7.90976
7.7713
7.6329
7.49457
7.3563
7.21811
7.07999
6.94194
6.80395
6.66602
6.52815
6.39033
6.25257
6.11485
5.97717
5.83953
5.70193
5.56436
5.42681
5.28929
5.15179
5.01432
4.87686
4.73941
4.60198
4.46456
4.32714
4.18974
4.05235
3.91496
3.77757
3.64019
3.50281
3.36544
3.22807
3.0907
2.95333
2.81597
2.6786
2.54123
2.40387
2.26651
2.12914
1.99178
1.85442
1.71705
1.57969
1.44233
1.30496
1.1676
1.03024
0.892872
0.755509
0.618145
0.480782
0.343417
0.206058
0.068681
12.6193
12.5902
12.0985
12.0916
12.0818
12.0937
12.0911
12.0736
12.0398
11.9915
11.9302
11.8576
11.7753
11.6847
11.5868
11.4827
11.3733
11.2593
11.1413
11.02
10.8958
10.7691
10.6404
10.5098
10.3778
10.2445
10.1101
9.9749
9.83896
9.70242
9.56541
9.42802
9.29033
9.1524
9.01431
8.87609
8.73778
8.59943
8.46105
8.32267
8.1843
8.04596
7.90766
7.76941
7.63121
7.49306
7.35497
7.21693
7.07896
6.94103
6.80316
6.66533
6.52756
6.38983
6.25213
6.11448
5.97686
5.83927
5.70171
5.56418
5.42667
5.28917
5.1517
5.01424
4.8768
4.73937
4.60195
4.46454
4.32713
4.18974
4.05235
3.91496
3.77758
3.6402
3.50283
3.36545
3.22808
3.09071
2.95335
2.81598
2.67861
2.54125
2.40388
2.26652
2.12915
1.99179
1.85443
1.71706
1.5797
1.44233
1.30497
1.1676
1.03024
0.892876
0.755512
0.618147
0.480783
0.343418
0.206055
0.0686863
13.5752
13.2044
12.6247
12.4791
12.3766
12.3211
12.2702
12.2168
12.1556
12.0856
12.0069
11.9202
11.8261
11.7256
11.6195
11.5085
11.3933
11.2744
11.1524
11.0276
10.9006
10.7717
10.6411
10.509
10.3759
10.2417
10.1067
9.97099
9.83475
9.69805
9.56098
9.42361
9.28602
9.14824
9.01033
8.87232
8.73425
8.59613
8.458
8.31986
8.18173
8.04363
7.90555
7.76751
7.6295
7.49154
7.35362
7.21574
7.0779
6.94011
6.80235
6.66464
6.52696
6.38931
6.25169
6.1141
5.97654
5.83901
5.70149
5.564
5.42652
5.28905
5.15161
5.01417
4.87674
4.73933
4.60192
4.46452
4.32712
4.18973
4.05235
3.91497
3.77759
3.64021
3.50284
3.36547
3.2281
3.09073
2.95336
2.81599
2.67863
2.54126
2.4039
2.26653
2.12917
1.9918
1.85444
1.71707
1.57971
1.44234
1.30498
1.16761
1.03025
0.89288
0.755515
0.61815
0.480785
0.343419
0.206052
0.0686915
14.2702
13.7071
13.087
12.838
12.6601
12.5447
12.4488
12.3607
12.2724
12.1809
12.0848
11.9836
11.8777
11.7673
11.6528
11.5348
11.4137
11.2898
11.1637
11.0355
10.9057
10.7744
10.6419
10.5084
10.374
10.239
10.1033
9.96714
9.83059
9.69371
9.55657
9.41923
9.28172
9.14408
9.00635
8.86855
8.7307
8.59283
8.45493
8.31704
8.17915
8.04128
7.90342
7.76559
7.62778
7.49
7.35225
7.21453
7.07684
6.93918
6.80154
6.66393
6.52635
6.38878
6.25124
6.11372
5.97622
5.83874
5.70126
5.56381
5.42636
5.28893
5.15151
5.01409
4.87668
4.73928
4.60189
4.4645
4.32711
4.18973
4.05235
3.91497
3.7776
3.64022
3.50285
3.36548
3.22811
3.09074
2.95338
2.81601
2.67864
2.54128
2.40391
2.26654
2.12918
1.99181
1.85445
1.71708
1.57971
1.44235
1.30498
1.16762
1.03025
0.892884
0.755518
0.618152
0.480786
0.34342
0.20605
0.0686966
14.7813
14.1234
13.4905
13.1666
12.9283
12.7611
12.6241
12.5034
12.389
12.2763
12.1629
12.0475
11.9296
11.8093
11.6864
11.5614
11.4343
11.3055
11.1752
11.0436
10.9109
10.7773
10.6429
10.5079
10.3723
10.2363
10.1
9.96333
9.82646
9.6894
9.55219
9.41485
9.27743
9.13993
9.00237
8.86478
8.72715
8.58952
8.45187
8.31421
8.17656
8.03892
7.90129
7.76366
7.62605
7.48846
7.35088
7.21332
7.07577
6.93824
6.80072
6.66322
6.52573
6.38825
6.25079
6.11334
5.97589
5.83846
5.70104
5.56362
5.42621
5.2888
5.15141
5.01401
4.87662
4.73924
4.60185
4.46447
4.3271
4.18972
4.05235
3.91498
3.7776
3.64023
3.50286
3.3655
3.22813
3.09076
2.95339
2.81602
2.67866
2.54129
2.40392
2.26656
2.12919
1.99182
1.85446
1.71709
1.57972
1.44236
1.30499
1.16762
1.03026
0.892889
0.755522
0.618155
0.480787
0.343421
0.206048
0.0687015
15.1691
14.4729
13.8421
13.4651
13.1794
12.968
12.7943
12.6432
12.504
12.3709
12.2406
12.1111
11.9815
11.8512
11.72
11.5879
11.455
11.3212
11.1867
11.0517
10.9161
10.7801
10.6439
10.5073
10.3706
10.2337
10.0967
9.95954
9.82234
9.6851
9.54781
9.41049
9.27314
9.13577
8.99839
8.861
8.72361
8.5862
8.44879
8.31138
8.17397
8.03656
7.89914
7.76173
7.62432
7.48691
7.3495
7.2121
7.07469
6.93729
6.7999
6.6625
6.52511
6.38772
6.25033
6.11295
5.97556
5.83818
5.70081
5.56343
5.42605
5.28868
5.1513
5.01393
4.87656
4.73919
4.60182
4.46445
4.32708
4.18971
4.05235
3.91498
3.77761
3.64024
3.50288
3.36551
3.22814
3.09077
2.95341
2.81604
2.67867
2.5413
2.40394
2.26657
2.1292
1.99183
1.85447
1.7171
1.57973
1.44236
1.305
1.16763
1.03026
0.892893
0.755525
0.618157
0.480789
0.343422
0.206046
0.0687062
15.4745
14.7705
14.149
13.735
13.4124
13.1639
12.9578
12.779
12.6165
12.4639
12.3172
12.174
12.0328
11.8928
11.7533
11.6143
11.4755
11.3367
11.1981
11.0596
10.9212
10.783
10.6448
10.5068
10.3688
10.231
10.0933
9.95573
9.81822
9.68079
9.54342
9.40611
9.26885
9.13162
8.99442
8.85723
8.72006
8.58289
8.44572
8.30855
8.17138
8.0342
7.897
7.7598
7.62259
7.48536
7.34812
7.21088
7.07362
6.93635
6.79907
6.66178
6.52449
6.38719
6.24987
6.11256
5.97524
5.83791
5.70057
5.56324
5.4259
5.28855
5.1512
5.01385
4.8765
4.73914
4.60179
4.46443
4.32707
4.18971
4.05235
3.91498
3.77762
3.64025
3.50289
3.36552
3.22815
3.09079
2.95342
2.81605
2.67869
2.54132
2.40395
2.26658
2.12921
1.99184
1.85448
1.71711
1.57974
1.44237
1.305
1.16763
1.03027
0.892897
0.755528
0.61816
0.48079
0.343424
0.206044
0.0687106
15.7231
15.0271
14.4179
13.9787
13.6273
13.348
13.1135
12.9096
12.7255
12.5544
12.3921
12.2356
12.0832
11.9336
11.7861
11.6402
11.4956
11.352
11.2093
11.0674
10.9262
10.7856
10.6456
10.5061
10.367
10.2283
10.0899
9.95188
9.81406
9.67646
9.53902
9.40173
9.26456
9.12746
8.99044
8.85346
8.71651
8.57958
8.44266
8.30573
8.16879
8.03184
7.89487
7.75787
7.62086
7.48382
7.34675
7.20966
7.07255
6.93541
6.79825
6.66107
6.52387
6.38665
6.24942
6.11217
5.97491
5.83763
5.70034
5.56305
5.42574
5.28842
5.1511
5.01377
4.87644
4.7391
4.60176
4.46441
4.32706
4.1897
4.05234
3.91499
3.77763
3.64026
3.5029
3.36553
3.22817
3.0908
2.95344
2.81607
2.6787
2.54133
2.40396
2.26659
2.12922
1.99186
1.85449
1.71712
1.57975
1.44238
1.30501
1.16764
1.03027
0.892901
0.755532
0.618162
0.480792
0.343425
0.206042
0.0687148
15.931
15.2504
14.6543
14.1982
13.8247
13.5198
13.2607
13.0342
12.8302
12.642
12.4648
12.2956
12.1323
11.9734
11.818
11.6654
11.5151
11.3668
11.2201
11.0749
10.9309
10.7881
10.6463
10.5053
10.3651
10.2255
10.0865
9.94798
9.80986
9.67209
9.5346
9.39734
9.26025
9.1233
8.98646
8.84969
8.71297
8.57628
8.43959
8.30291
8.16621
8.02949
7.89274
7.75595
7.61913
7.48228
7.34538
7.20845
7.07148
6.93447
6.79743
6.66036
6.52326
6.38612
6.24897
6.11179
5.97458
5.83736
5.70012
5.56286
5.42559
5.2883
5.151
5.01369
4.87638
4.73905
4.60172
4.46439
4.32704
4.1897
4.05234
3.91499
3.77763
3.64027
3.50291
3.36555
3.22818
3.09082
2.95345
2.81608
2.67871
2.54135
2.40398
2.26661
2.12924
1.99187
1.8545
1.71713
1.57976
1.44239
1.30502
1.16765
1.03028
0.892906
0.755535
0.618165
0.480793
0.343426
0.206041
0.0687186
16.1087
15.4464
14.863
14.3959
14.0053
13.6792
13.3989
13.1524
12.9302
12.7259
12.5347
12.3534
12.1797
12.0118
11.8488
11.6897
11.5339
11.3809
11.2304
11.0819
10.9353
10.7903
10.6466
10.5043
10.3629
10.2225
10.0829
9.94399
9.8056
9.66768
9.53014
9.39292
9.25593
9.11914
8.98248
8.84593
8.70944
8.57298
8.43655
8.3001
8.16364
8.02715
7.89062
7.75405
7.61743
7.48075
7.34403
7.20725
7.07042
6.93355
6.79662
6.65966
6.52265
6.3856
6.24852
6.11141
5.97426
5.83709
5.69989
5.56267
5.42543
5.28818
5.1509
5.01362
4.87632
4.73901
4.60169
4.46436
4.32703
4.18969
4.05234
3.91499
3.77764
3.64028
3.50292
3.36556
3.2282
3.09083
2.95347
2.8161
2.67873
2.54136
2.40399
2.26662
2.12925
1.99188
1.85451
1.71714
1.57977
1.44239
1.30502
1.16765
1.03028
0.89291
0.755539
0.618168
0.480795
0.343427
0.206039
0.0687222
16.2631
15.6194
15.0478
14.5739
14.1701
13.8266
13.5279
13.2636
13.025
12.8058
12.6015
12.4087
12.225
12.0487
11.8783
11.7129
11.5518
11.3943
11.24
11.0884
10.9392
10.792
10.6467
10.503
10.3606
10.2194
10.0792
9.93989
9.80126
9.66321
9.52564
9.38847
9.25159
9.11496
8.9785
8.84216
8.70591
8.5697
8.43351
8.29731
8.16109
8.02483
7.88852
7.75216
7.61573
7.47924
7.34269
7.20606
7.06938
6.93263
6.79583
6.65897
6.52205
6.38509
6.24808
6.11103
5.97395
5.83682
5.69967
5.56249
5.42529
5.28806
5.15081
5.01354
4.87626
4.73897
4.60166
4.46435
4.32702
4.18969
4.05235
3.915
3.77765
3.64029
3.50294
3.36558
3.22821
3.09085
2.95348
2.81611
2.67874
2.54137
2.404
2.26663
2.12926
1.99189
1.85452
1.71715
1.57977
1.4424
1.30503
1.16766
1.03029
0.892914
0.755542
0.61817
0.480797
0.343428
0.206038
0.0687255
16.399
15.7729
15.2119
14.7338
14.3199
13.962
13.6476
13.3675
13.114
12.8813
12.6648
12.4612
12.2681
12.0836
11.9062
11.7348
11.5686
11.4068
11.2488
11.0942
10.9425
10.7934
10.6464
10.5014
10.3581
10.2161
10.0754
9.93567
9.79681
9.65866
9.52109
9.38398
9.24723
9.11077
8.97451
8.83841
8.70239
8.56643
8.43049
8.29454
8.15856
8.02254
7.88645
7.75029
7.61406
7.47775
7.34136
7.2049
7.06835
6.93173
6.79504
6.65829
6.52147
6.38459
6.24765
6.11067
5.97364
5.83657
5.69946
5.56232
5.42514
5.28794
5.15072
5.01347
4.87621
4.73893
4.60163
4.46433
4.32701
4.18968
4.05235
3.91501
3.77766
3.64031
3.50295
3.36559
3.22823
3.09086
2.9535
2.81613
2.67876
2.54139
2.40402
2.26664
2.12927
1.9919
1.85453
1.71715
1.57978
1.44241
1.30504
1.16766
1.03029
0.892919
0.755546
0.618173
0.480799
0.34343
0.206038
0.0687285
16.5195
15.9094
15.3578
14.8775
14.4558
14.0859
13.758
13.464
13.1971
12.9519
12.7242
12.5106
12.3086
12.1164
11.9323
11.7552
11.5841
11.4182
11.2568
11.0993
10.9452
10.7942
10.6457
10.4995
10.3552
10.2125
10.0713
9.93129
9.79225
9.65403
9.51647
9.37945
9.24285
9.10657
8.97053
8.83466
8.69889
8.56318
8.4275
8.2918
8.15606
8.02026
7.8844
7.74845
7.61241
7.47629
7.34006
7.20375
7.06735
6.93085
6.79428
6.65762
6.52089
6.3841
6.24723
6.11031
5.97334
5.83632
5.69925
5.56215
5.42501
5.28783
5.15063
5.01341
4.87616
4.73889
4.60161
4.46431
4.327
4.18968
4.05235
3.91501
3.77767
3.64032
3.50296
3.3656
3.22824
3.09088
2.95351
2.81614
2.67877
2.5414
2.40403
2.26666
2.12928
1.99191
1.85454
1.71716
1.57979
1.44242
1.30504
1.16767
1.0303
0.892923
0.755549
0.618176
0.480801
0.343431
0.206037
0.0687311
16.6269
16.031
15.4877
15.0064
14.5784
14.1987
13.8592
13.553
13.2741
13.0176
12.7795
12.5565
12.3463
12.1468
11.9564
11.7739
11.5982
11.4284
11.2637
11.1035
10.9472
10.7944
10.6445
10.4971
10.352
10.2087
10.0671
9.92674
9.78755
9.64929
9.51178
9.37487
9.23843
9.10235
8.96654
8.83091
8.6954
8.55996
8.42453
8.28908
8.15358
8.01802
7.88238
7.74664
7.6108
7.47485
7.33879
7.20263
7.06636
6.93
6.79353
6.65698
6.52034
6.38362
6.24683
6.10997
5.97305
5.83608
5.69905
5.56198
5.42487
5.28773
5.15055
5.01334
4.87611
4.73886
4.60159
4.4643
4.327
4.18968
4.05236
3.91502
3.77768
3.64033
3.50298
3.36562
3.22826
3.09089
2.95353
2.81616
2.67879
2.54142
2.40404
2.26667
2.1293
1.99192
1.85455
1.71717
1.5798
1.44242
1.30505
1.16768
1.0303
0.892928
0.755553
0.618179
0.480803
0.343433
0.206037
0.0687334
16.7228
16.1392
15.6031
15.1215
14.6888
14.3009
13.9514
13.6344
13.3448
13.0781
12.8304
12.5988
12.3809
12.1747
11.9784
11.7908
11.6107
11.4373
11.2695
11.1068
10.9484
10.7939
10.6427
10.4943
10.3484
10.2046
10.0625
9.922
9.78271
9.64444
9.50701
9.37023
9.23398
9.09812
8.96255
8.82718
8.69193
8.55675
8.42158
8.28639
8.15114
8.01582
7.88039
7.74486
7.60921
7.47344
7.33755
7.20154
7.06541
6.92916
6.79281
6.65635
6.5198
6.38316
6.24644
6.10965
5.97278
5.83585
5.69887
5.56183
5.42475
5.28763
5.15047
5.01329
4.87607
4.73883
4.60157
4.46429
4.32699
4.18968
4.05236
3.91503
3.77769
3.64035
3.50299
3.36564
3.22827
3.09091
2.95354
2.81617
2.6788
2.54143
2.40406
2.26668
2.12931
1.99193
1.85456
1.71718
1.57981
1.44243
1.30506
1.16768
1.03031
0.892932
0.755557
0.618182
0.480805
0.343434
0.206037
0.0687354
16.8084
16.2355
15.7055
15.2241
14.7876
14.3928
14.0347
13.7083
13.4091
13.1331
12.8768
12.6373
12.4123
12.1997
11.998
11.8057
11.6216
11.4447
11.2741
11.109
10.9488
10.7927
10.6402
10.491
10.3444
10.2001
10.0577
9.91704
9.7777
9.63947
9.50215
9.36554
9.22949
9.09387
8.95856
8.82345
8.68848
8.55357
8.41867
8.28374
8.14874
8.01365
7.87845
7.74312
7.60767
7.47207
7.33634
7.20048
7.06448
6.92836
6.79211
6.65575
6.51929
6.38273
6.24607
6.10933
5.97252
5.83564
5.69869
5.56169
5.42464
5.28754
5.15041
5.01323
4.87603
4.7388
4.60155
4.46428
4.32699
4.18969
4.05237
3.91504
3.77771
3.64036
3.50301
3.36565
3.22829
3.09093
2.95356
2.81619
2.67882
2.54144
2.40407
2.26669
2.12932
1.99194
1.85457
1.71719
1.57982
1.44244
1.30506
1.16769
1.03031
0.892936
0.75556