/*--------------------------------*- C++ -*----------------------------------*\
  =========                 |
  \\      /  F ield         | OpenFOAM: The Open Source CFD Toolbox
   \\    /   O peration     | Website:  https://openfoam.org
    \\  /    A nd           | Version:  6
     \\/     M anipulation  |
\*---------------------------------------------------------------------------*/
FoamFile
{
    version     2.0;
    format      ascii;
    class       volScalarField;
    location    "0";
    object      p;
}
// * * * * * * * * * * * * * * * * * * * * * * * * * * * * * * * * * * * * * //

dimensions      [0 2 -2 0 0 0 0];

internalField   nonuniform List<scalar> 
145945
(
2.53422e-06
2.53386e-06
2.53381e-06
2.53379e-06
2.53389e-06
2.53395e-06
2.53404e-06
2.53408e-06
2.53412e-06
2.53411e-06
2.53409e-06
2.53402e-06
2.53399e-06
2.5339e-06
2.53396e-06
2.53397e-06
2.53436e-06
2.53386e-06
2.53368e-06
2.53366e-06
2.53369e-06
2.5338e-06
2.53387e-06
2.53396e-06
2.53401e-06
2.53404e-06
2.53404e-06
2.53401e-06
2.53395e-06
2.5339e-06
2.53382e-06
2.53382e-06
2.53382e-06
2.534e-06
2.53381e-06
2.53366e-06
2.53364e-06
2.53371e-06
2.53383e-06
2.53392e-06
2.53401e-06
2.53407e-06
2.5341e-06
2.53409e-06
2.53407e-06
2.534e-06
2.53394e-06
2.53385e-06
2.53382e-06
2.5338e-06
2.53396e-06
2.53379e-06
2.53369e-06
2.53371e-06
2.53383e-06
2.53396e-06
2.53406e-06
2.53415e-06
2.53421e-06
2.53425e-06
2.53424e-06
2.53421e-06
2.53414e-06
2.53407e-06
2.53397e-06
2.5339e-06
2.53385e-06
2.53395e-06
2.53389e-06
2.5338e-06
2.53383e-06
2.53396e-06
2.53409e-06
2.5342e-06
2.5343e-06
2.53436e-06
2.53439e-06
2.53439e-06
2.53435e-06
2.53429e-06
2.53421e-06
2.53411e-06
2.53403e-06
2.53396e-06
2.53405e-06
2.53395e-06
2.53387e-06
2.53392e-06
2.53406e-06
2.5342e-06
2.53432e-06
2.53441e-06
2.53448e-06
2.53451e-06
2.53451e-06
2.53447e-06
2.53441e-06
2.53432e-06
2.53422e-06
2.53412e-06
2.53404e-06
2.53411e-06
2.53404e-06
2.53396e-06
2.53401e-06
2.53415e-06
2.5343e-06
2.53441e-06
2.53451e-06
2.53457e-06
2.5346e-06
2.5346e-06
2.53457e-06
2.5345e-06
2.53442e-06
2.53432e-06
2.53421e-06
2.53413e-06
2.5342e-06
2.53408e-06
2.53401e-06
2.53407e-06
2.53421e-06
2.53436e-06
2.53448e-06
2.53457e-06
2.53464e-06
2.53467e-06
2.53467e-06
2.53463e-06
2.53456e-06
2.53448e-06
2.53438e-06
2.53427e-06
2.53418e-06
2.53424e-06
2.53412e-06
2.53405e-06
2.5341e-06
2.53425e-06
2.53439e-06
2.53451e-06
2.53461e-06
2.53467e-06
2.5347e-06
2.5347e-06
2.53466e-06
2.5346e-06
2.53452e-06
2.53441e-06
2.53431e-06
2.53422e-06
2.53428e-06
2.53411e-06
2.53404e-06
2.53409e-06
2.53424e-06
2.53439e-06
2.53451e-06
2.5346e-06
2.53467e-06
2.5347e-06
2.5347e-06
2.53466e-06
2.5346e-06
2.53451e-06
2.53441e-06
2.5343e-06
2.53421e-06
2.53427e-06
2.53409e-06
2.53401e-06
2.53407e-06
2.53421e-06
2.53435e-06
2.53447e-06
2.53457e-06
2.53463e-06
2.53466e-06
2.53466e-06
2.53463e-06
2.53456e-06
2.53448e-06
2.53437e-06
2.53427e-06
2.53418e-06
2.53425e-06
2.53402e-06
2.53395e-06
2.534e-06
2.53414e-06
2.53429e-06
2.53441e-06
2.5345e-06
2.53457e-06
2.5346e-06
2.5346e-06
2.53456e-06
2.53449e-06
2.53441e-06
2.5343e-06
2.5342e-06
2.53412e-06
2.53418e-06
2.53399e-06
2.5339e-06
2.53394e-06
2.53407e-06
2.53421e-06
2.53433e-06
2.53442e-06
2.53448e-06
2.53452e-06
2.53451e-06
2.53448e-06
2.53441e-06
2.53433e-06
2.53423e-06
2.53414e-06
2.53407e-06
2.53414e-06
2.5339e-06
2.53382e-06
2.53385e-06
2.53398e-06
2.53411e-06
2.53422e-06
2.53432e-06
2.53438e-06
2.53441e-06
2.53441e-06
2.53437e-06
2.5343e-06
2.53423e-06
2.53413e-06
2.53404e-06
2.53398e-06
2.53406e-06
2.53396e-06
2.53383e-06
2.53382e-06
2.5339e-06
2.53403e-06
2.53412e-06
2.53422e-06
2.53427e-06
2.53431e-06
2.5343e-06
2.53427e-06
2.5342e-06
2.53414e-06
2.53405e-06
2.534e-06
2.53397e-06
2.53411e-06
2.53397e-06
2.53382e-06
2.53381e-06
2.53385e-06
2.53397e-06
2.53405e-06
2.53413e-06
2.53418e-06
2.53422e-06
2.53421e-06
2.53418e-06
2.53412e-06
2.53407e-06
2.53398e-06
2.53397e-06
2.53395e-06
2.53412e-06
2.53436e-06
2.534e-06
2.53396e-06
2.53395e-06
2.53405e-06
2.53411e-06
2.5342e-06
2.53425e-06
2.53428e-06
2.53427e-06
2.53425e-06
2.53418e-06
2.53415e-06
2.53406e-06
2.53411e-06
2.53412e-06
2.5345e-06
2.46148e-06
2.46139e-06
2.46156e-06
2.46175e-06
2.462e-06
2.46221e-06
2.46239e-06
2.4625e-06
2.46256e-06
2.46253e-06
2.46245e-06
2.46229e-06
2.46211e-06
2.46187e-06
2.4617e-06
2.46149e-06
2.46158e-06
2.46139e-06
2.46146e-06
2.46168e-06
2.46192e-06
2.4622e-06
2.46244e-06
2.46263e-06
2.46276e-06
2.46281e-06
2.46279e-06
2.46269e-06
2.46253e-06
2.46232e-06
2.46206e-06
2.46183e-06
2.46159e-06
2.46149e-06
2.46156e-06
2.46168e-06
2.46191e-06
2.4622e-06
2.4625e-06
2.46276e-06
2.46297e-06
2.46311e-06
2.46317e-06
2.46314e-06
2.46304e-06
2.46286e-06
2.46263e-06
2.46235e-06
2.46207e-06
2.46181e-06
2.46167e-06
2.46175e-06
2.46192e-06
2.4622e-06
2.46253e-06
2.46286e-06
2.46314e-06
2.46335e-06
2.4635e-06
2.46356e-06
2.46353e-06
2.46343e-06
2.46324e-06
2.46299e-06
2.46269e-06
2.46238e-06
2.46207e-06
2.46186e-06
2.462e-06
2.4622e-06
2.4625e-06
2.46286e-06
2.4632e-06
2.46349e-06
2.46372e-06
2.46386e-06
2.46393e-06
2.4639e-06
2.46379e-06
2.4636e-06
2.46334e-06
2.46302e-06
2.46269e-06
2.46235e-06
2.46211e-06
2.46221e-06
2.46244e-06
2.46276e-06
2.46314e-06
2.46349e-06
2.46379e-06
2.46402e-06
2.46417e-06
2.46424e-06
2.46421e-06
2.4641e-06
2.4639e-06
2.46363e-06
2.46331e-06
2.46295e-06
2.4626e-06
2.46232e-06
2.46239e-06
2.46263e-06
2.46297e-06
2.46335e-06
2.46372e-06
2.46402e-06
2.46425e-06
2.46441e-06
2.46447e-06
2.46445e-06
2.46433e-06
2.46413e-06
2.46386e-06
2.46353e-06
2.46317e-06
2.46279e-06
2.46251e-06
2.4625e-06
2.46276e-06
2.46311e-06
2.4635e-06
2.46386e-06
2.46417e-06
2.46441e-06
2.46456e-06
2.46463e-06
2.4646e-06
2.46448e-06
2.46428e-06
2.46401e-06
2.46367e-06
2.4633e-06
2.46292e-06
2.46262e-06
2.46256e-06
2.46281e-06
2.46317e-06
2.46356e-06
2.46393e-06
2.46424e-06
2.46447e-06
2.46463e-06
2.46469e-06
2.46467e-06
2.46455e-06
2.46435e-06
2.46408e-06
2.46374e-06
2.46337e-06
2.46298e-06
2.46268e-06
2.46253e-06
2.46279e-06
2.46314e-06
2.46353e-06
2.4639e-06
2.46421e-06
2.46445e-06
2.4646e-06
2.46467e-06
2.46464e-06
2.46452e-06
2.46432e-06
2.46405e-06
2.46371e-06
2.46334e-06
2.46295e-06
2.46265e-06
2.46245e-06
2.46269e-06
2.46304e-06
2.46343e-06
2.46379e-06
2.4641e-06
2.46433e-06
2.46448e-06
2.46455e-06
2.46452e-06
2.46441e-06
2.46421e-06
2.46394e-06
2.4636e-06
2.46323e-06
2.46286e-06
2.46257e-06
2.46229e-06
2.46253e-06
2.46286e-06
2.46324e-06
2.4636e-06
2.4639e-06
2.46413e-06
2.46428e-06
2.46435e-06
2.46432e-06
2.46421e-06
2.46401e-06
2.46374e-06
2.46341e-06
2.46305e-06
2.46269e-06
2.46241e-06
2.46211e-06
2.46232e-06
2.46263e-06
2.46299e-06
2.46334e-06
2.46363e-06
2.46386e-06
2.46401e-06
2.46408e-06
2.46405e-06
2.46394e-06
2.46374e-06
2.46348e-06
2.46316e-06
2.46282e-06
2.46248e-06
2.46222e-06
2.46187e-06
2.46206e-06
2.46235e-06
2.46269e-06
2.46303e-06
2.46331e-06
2.46353e-06
2.46368e-06
2.46374e-06
2.46371e-06
2.4636e-06
2.46341e-06
2.46316e-06
2.46285e-06
2.46253e-06
2.46221e-06
2.46199e-06
2.4617e-06
2.46183e-06
2.46207e-06
2.46238e-06
2.46269e-06
2.46295e-06
2.46317e-06
2.4633e-06
2.46337e-06
2.46334e-06
2.46323e-06
2.46305e-06
2.46282e-06
2.46253e-06
2.46224e-06
2.46197e-06
2.46181e-06
2.46149e-06
2.46159e-06
2.46181e-06
2.46207e-06
2.46236e-06
2.4626e-06
2.46279e-06
2.46292e-06
2.46298e-06
2.46295e-06
2.46286e-06
2.46269e-06
2.46248e-06
2.46221e-06
2.46197e-06
2.46172e-06
2.4616e-06
2.46158e-06
2.46149e-06
2.46167e-06
2.46186e-06
2.46211e-06
2.46233e-06
2.46251e-06
2.46262e-06
2.46268e-06
2.46265e-06
2.46257e-06
2.46241e-06
2.46222e-06
2.46199e-06
2.46181e-06
2.4616e-06
2.46168e-06
2.41128e-06
2.41228e-06
2.41322e-06
2.41405e-06
2.4148e-06
2.41536e-06
2.41577e-06
2.41602e-06
2.41612e-06
2.41605e-06
2.41584e-06
2.41547e-06
2.41495e-06
2.41422e-06
2.41337e-06
2.41233e-06
2.41129e-06
2.41228e-06
2.41318e-06
2.41409e-06
2.41492e-06
2.41566e-06
2.41623e-06
2.41664e-06
2.41688e-06
2.41698e-06
2.41692e-06
2.41671e-06
2.41634e-06
2.41581e-06
2.41509e-06
2.41424e-06
2.41323e-06
2.41229e-06
2.41322e-06
2.41409e-06
2.41494e-06
2.41575e-06
2.41646e-06
2.41702e-06
2.41742e-06
2.41766e-06
2.41776e-06
2.4177e-06
2.41749e-06
2.41712e-06
2.4166e-06
2.41591e-06
2.41507e-06
2.41413e-06
2.41323e-06
2.41405e-06
2.41493e-06
2.41575e-06
2.41653e-06
2.41723e-06
2.41778e-06
2.41817e-06
2.41841e-06
2.41851e-06
2.41845e-06
2.41824e-06
2.41788e-06
2.41737e-06
2.41669e-06
2.41587e-06
2.41496e-06
2.41406e-06
2.4148e-06
2.41566e-06
2.41646e-06
2.41723e-06
2.41791e-06
2.41845e-06
2.41884e-06
2.41908e-06
2.41917e-06
2.41911e-06
2.41891e-06
2.41855e-06
2.41805e-06
2.41739e-06
2.41658e-06
2.4157e-06
2.41481e-06
2.41536e-06
2.41623e-06
2.41701e-06
2.41778e-06
2.41845e-06
2.41898e-06
2.41937e-06
2.4196e-06
2.4197e-06
2.41964e-06
2.41944e-06
2.41909e-06
2.41859e-06
2.41793e-06
2.41713e-06
2.41626e-06
2.41537e-06
2.41577e-06
2.41664e-06
2.41742e-06
2.41817e-06
2.41884e-06
2.41937e-06
2.41975e-06
2.41999e-06
2.42008e-06
2.42002e-06
2.41982e-06
2.41947e-06
2.41898e-06
2.41833e-06
2.41754e-06
2.41667e-06
2.41578e-06
2.41602e-06
2.41688e-06
2.41766e-06
2.41841e-06
2.41908e-06
2.4196e-06
2.41999e-06
2.42022e-06
2.42031e-06
2.42026e-06
2.42006e-06
2.41971e-06
2.41922e-06
2.41857e-06
2.41778e-06
2.41692e-06
2.41603e-06
2.41612e-06
2.41698e-06
2.41776e-06
2.41851e-06
2.41917e-06
2.4197e-06
2.42008e-06
2.42031e-06
2.4204e-06
2.42035e-06
2.42015e-06
2.4198e-06
2.41931e-06
2.41866e-06
2.41788e-06
2.41702e-06
2.41613e-06
2.41605e-06
2.41692e-06
2.4177e-06
2.41845e-06
2.41911e-06
2.41964e-06
2.42002e-06
2.42026e-06
2.42035e-06
2.42029e-06
2.42009e-06
2.41975e-06
2.41925e-06
2.4186e-06
2.41782e-06
2.41696e-06
2.41607e-06
2.41584e-06
2.41671e-06
2.41749e-06
2.41824e-06
2.41891e-06
2.41944e-06
2.41982e-06
2.42006e-06
2.42015e-06
2.42009e-06
2.41989e-06
2.41954e-06
2.41905e-06
2.4184e-06
2.41761e-06
2.41675e-06
2.41586e-06
2.41547e-06
2.41634e-06
2.41712e-06
2.41788e-06
2.41855e-06
2.41909e-06
2.41947e-06
2.41971e-06
2.4198e-06
2.41975e-06
2.41954e-06
2.41919e-06
2.41869e-06
2.41804e-06
2.41724e-06
2.41637e-06
2.41548e-06
2.41495e-06
2.41581e-06
2.4166e-06
2.41737e-06
2.41805e-06
2.41859e-06
2.41898e-06
2.41922e-06
2.41931e-06
2.41925e-06
2.41905e-06
2.41869e-06
2.41819e-06
2.41753e-06
2.41672e-06
2.41585e-06
2.41496e-06
2.41422e-06
2.4151e-06
2.41591e-06
2.4167e-06
2.41739e-06
2.41793e-06
2.41833e-06
2.41857e-06
2.41866e-06
2.4186e-06
2.4184e-06
2.41804e-06
2.41753e-06
2.41685e-06
2.41604e-06
2.41513e-06
2.41423e-06
2.41337e-06
2.41424e-06
2.41507e-06
2.41587e-06
2.41658e-06
2.41714e-06
2.41754e-06
2.41778e-06
2.41788e-06
2.41782e-06
2.41761e-06
2.41724e-06
2.41673e-06
2.41604e-06
2.41521e-06
2.41428e-06
2.41339e-06
2.41233e-06
2.41323e-06
2.41413e-06
2.41496e-06
2.4157e-06
2.41627e-06
2.41667e-06
2.41692e-06
2.41702e-06
2.41696e-06
2.41675e-06
2.41637e-06
2.41585e-06
2.41513e-06
2.41428e-06
2.41328e-06
2.41235e-06
2.41129e-06
2.41229e-06
2.41323e-06
2.41406e-06
2.41481e-06
2.41537e-06
2.41578e-06
2.41603e-06
2.41613e-06
2.41607e-06
2.41586e-06
2.41548e-06
2.41496e-06
2.41423e-06
2.41339e-06
2.41235e-06
2.4113e-06
2.35977e-06
2.36156e-06
2.3632e-06
2.36474e-06
2.36605e-06
2.36703e-06
2.36773e-06
2.36815e-06
2.36831e-06
2.36821e-06
2.36784e-06
2.3672e-06
2.3663e-06
2.36506e-06
2.36351e-06
2.36173e-06
2.35981e-06
2.36156e-06
2.36307e-06
2.36466e-06
2.36617e-06
2.36744e-06
2.3684e-06
2.36908e-06
2.36949e-06
2.36965e-06
2.36955e-06
2.36919e-06
2.36857e-06
2.36768e-06
2.36648e-06
2.36497e-06
2.36323e-06
2.36161e-06
2.3632e-06
2.36466e-06
2.36618e-06
2.36762e-06
2.36884e-06
2.36976e-06
2.37042e-06
2.37081e-06
2.37097e-06
2.37087e-06
2.37053e-06
2.36993e-06
2.36908e-06
2.36793e-06
2.36648e-06
2.36481e-06
2.36324e-06
2.36474e-06
2.36617e-06
2.36762e-06
2.36902e-06
2.3702e-06
2.37108e-06
2.37171e-06
2.37209e-06
2.37224e-06
2.37215e-06
2.37182e-06
2.37124e-06
2.37042e-06
2.36932e-06
2.36792e-06
2.36632e-06
2.36479e-06
2.36605e-06
2.36744e-06
2.36884e-06
2.37019e-06
2.37133e-06
2.37219e-06
2.3728e-06
2.37317e-06
2.37331e-06
2.37323e-06
2.3729e-06
2.37235e-06
2.37155e-06
2.37048e-06
2.36913e-06
2.36759e-06
2.36611e-06
2.36703e-06
2.3684e-06
2.36976e-06
2.37108e-06
2.37219e-06
2.37303e-06
2.37363e-06
2.37399e-06
2.37413e-06
2.37404e-06
2.37373e-06
2.37319e-06
2.37241e-06
2.37137e-06
2.37005e-06
2.36854e-06
2.36708e-06
2.36773e-06
2.36908e-06
2.37042e-06
2.37171e-06
2.3728e-06
2.37363e-06
2.37421e-06
2.37457e-06
2.37471e-06
2.37462e-06
2.37431e-06
2.37378e-06
2.37301e-06
2.37199e-06
2.37069e-06
2.36922e-06
2.36778e-06
2.36815e-06
2.36949e-06
2.37081e-06
2.37209e-06
2.37317e-06
2.37399e-06
2.37457e-06
2.37493e-06
2.37506e-06
2.37498e-06
2.37467e-06
2.37414e-06
2.37339e-06
2.37237e-06
2.37109e-06
2.36963e-06
2.3682e-06
2.36831e-06
2.36965e-06
2.37097e-06
2.37224e-06
2.37331e-06
2.37413e-06
2.37471e-06
2.37506e-06
2.3752e-06
2.37512e-06
2.37481e-06
2.37428e-06
2.37353e-06
2.37252e-06
2.37124e-06
2.36979e-06
2.36836e-06
2.36821e-06
2.36955e-06
2.37087e-06
2.37215e-06
2.37323e-06
2.37404e-06
2.37462e-06
2.37498e-06
2.37512e-06
2.37503e-06
2.37473e-06
2.3742e-06
2.37344e-06
2.37243e-06
2.37114e-06
2.36969e-06
2.36826e-06
2.36784e-06
2.36919e-06
2.37053e-06
2.37182e-06
2.37291e-06
2.37373e-06
2.37432e-06
2.37467e-06
2.37481e-06
2.37473e-06
2.37442e-06
2.37389e-06
2.37312e-06
2.3721e-06
2.3708e-06
2.36934e-06
2.36789e-06
2.3672e-06
2.36857e-06
2.36993e-06
2.37124e-06
2.37235e-06
2.37319e-06
2.37378e-06
2.37414e-06
2.37428e-06
2.3742e-06
2.37389e-06
2.37334e-06
2.37257e-06
2.37153e-06
2.37021e-06
2.36871e-06
2.36726e-06
2.3663e-06
2.36768e-06
2.36908e-06
2.37042e-06
2.37155e-06
2.37241e-06
2.37302e-06
2.37339e-06
2.37353e-06
2.37344e-06
2.37312e-06
2.37257e-06
2.37177e-06
2.37071e-06
2.36936e-06
2.36783e-06
2.36635e-06
2.36506e-06
2.36648e-06
2.36793e-06
2.36932e-06
2.37049e-06
2.37137e-06
2.37199e-06
2.37237e-06
2.37252e-06
2.37243e-06
2.3721e-06
2.37153e-06
2.37071e-06
2.36961e-06
2.36822e-06
2.36663e-06
2.36511e-06
2.36351e-06
2.36497e-06
2.36648e-06
2.36792e-06
2.36913e-06
2.37005e-06
2.3707e-06
2.37109e-06
2.37124e-06
2.37115e-06
2.37081e-06
2.37021e-06
2.36937e-06
2.36822e-06
2.36678e-06
2.36512e-06
2.36356e-06
2.36174e-06
2.36323e-06
2.36481e-06
2.36632e-06
2.36759e-06
2.36854e-06
2.36922e-06
2.36963e-06
2.36979e-06
2.36969e-06
2.36934e-06
2.36872e-06
2.36783e-06
2.36663e-06
2.36512e-06
2.36339e-06
2.36178e-06
2.35981e-06
2.36161e-06
2.36324e-06
2.36479e-06
2.36611e-06
2.36708e-06
2.36778e-06
2.3682e-06
2.36836e-06
2.36826e-06
2.36789e-06
2.36726e-06
2.36635e-06
2.36511e-06
2.36356e-06
2.36178e-06
2.35985e-06
2.30909e-06
2.31117e-06
2.31301e-06
2.31482e-06
2.31634e-06
2.31749e-06
2.31831e-06
2.3188e-06
2.319e-06
2.31887e-06
2.31844e-06
2.31768e-06
2.31662e-06
2.31518e-06
2.31335e-06
2.31135e-06
2.30912e-06
2.31117e-06
2.3129e-06
2.31472e-06
2.31649e-06
2.31798e-06
2.31912e-06
2.31993e-06
2.32042e-06
2.32061e-06
2.32049e-06
2.32006e-06
2.31932e-06
2.31826e-06
2.31684e-06
2.31506e-06
2.31306e-06
2.3112e-06
2.31301e-06
2.31472e-06
2.3165e-06
2.31821e-06
2.31966e-06
2.32076e-06
2.32155e-06
2.32202e-06
2.32221e-06
2.32209e-06
2.32167e-06
2.32095e-06
2.31993e-06
2.31856e-06
2.31684e-06
2.31487e-06
2.31305e-06
2.31482e-06
2.31649e-06
2.31821e-06
2.31987e-06
2.32127e-06
2.32234e-06
2.3231e-06
2.32357e-06
2.32375e-06
2.32363e-06
2.32323e-06
2.32253e-06
2.32153e-06
2.32021e-06
2.31854e-06
2.31664e-06
2.31486e-06
2.31634e-06
2.31798e-06
2.31966e-06
2.32127e-06
2.32264e-06
2.32368e-06
2.32442e-06
2.32488e-06
2.32505e-06
2.32494e-06
2.32455e-06
2.32387e-06
2.32289e-06
2.3216e-06
2.31998e-06
2.31813e-06
2.31638e-06
2.31749e-06
2.31912e-06
2.32076e-06
2.32234e-06
2.32368e-06
2.3247e-06
2.32543e-06
2.32588e-06
2.32605e-06
2.32594e-06
2.32555e-06
2.32489e-06
2.32393e-06
2.32267e-06
2.32108e-06
2.31927e-06
2.31752e-06
2.31831e-06
2.31993e-06
2.32154e-06
2.3231e-06
2.32442e-06
2.32543e-06
2.32615e-06
2.32659e-06
2.32676e-06
2.32665e-06
2.32627e-06
2.32561e-06
2.32467e-06
2.32343e-06
2.32186e-06
2.32008e-06
2.31835e-06
2.3188e-06
2.32042e-06
2.32202e-06
2.32357e-06
2.32488e-06
2.32588e-06
2.32659e-06
2.32703e-06
2.32719e-06
2.32709e-06
2.32671e-06
2.32606e-06
2.32513e-06
2.32389e-06
2.32234e-06
2.32058e-06
2.31885e-06
2.319e-06
2.32061e-06
2.32221e-06
2.32375e-06
2.32505e-06
2.32605e-06
2.32676e-06
2.32719e-06
2.32736e-06
2.32726e-06
2.32688e-06
2.32623e-06
2.3253e-06
2.32407e-06
2.32252e-06
2.32077e-06
2.31904e-06
2.31887e-06
2.32049e-06
2.32209e-06
2.32363e-06
2.32494e-06
2.32594e-06
2.32665e-06
2.32709e-06
2.32726e-06
2.32715e-06
2.32677e-06
2.32612e-06
2.32519e-06
2.32396e-06
2.3224e-06
2.32064e-06
2.31891e-06
2.31844e-06
2.32006e-06
2.32167e-06
2.32323e-06
2.32455e-06
2.32555e-06
2.32627e-06
2.32671e-06
2.32688e-06
2.32677e-06
2.32639e-06
2.32574e-06
2.3248e-06
2.32355e-06
2.32199e-06
2.32021e-06
2.31848e-06
2.31768e-06
2.31932e-06
2.32095e-06
2.32253e-06
2.32387e-06
2.32489e-06
2.32561e-06
2.32606e-06
2.32623e-06
2.32612e-06
2.32574e-06
2.32507e-06
2.32412e-06
2.32286e-06
2.32127e-06
2.31947e-06
2.31772e-06
2.31662e-06
2.31826e-06
2.31993e-06
2.32153e-06
2.32289e-06
2.32394e-06
2.32467e-06
2.32513e-06
2.3253e-06
2.32519e-06
2.3248e-06
2.32412e-06
2.32315e-06
2.32187e-06
2.32025e-06
2.31841e-06
2.31665e-06
2.31518e-06
2.31684e-06
2.31856e-06
2.32021e-06
2.3216e-06
2.32267e-06
2.32343e-06
2.32389e-06
2.32407e-06
2.32396e-06
2.32355e-06
2.32286e-06
2.32187e-06
2.32054e-06
2.31888e-06
2.31699e-06
2.31521e-06
2.31335e-06
2.31506e-06
2.31684e-06
2.31854e-06
2.31998e-06
2.32108e-06
2.32186e-06
2.32234e-06
2.32252e-06
2.3224e-06
2.32199e-06
2.32127e-06
2.32025e-06
2.31888e-06
2.31717e-06
2.31521e-06
2.31339e-06
2.31135e-06
2.31306e-06
2.31487e-06
2.31664e-06
2.31813e-06
2.31927e-06
2.32008e-06
2.32058e-06
2.32077e-06
2.32064e-06
2.32021e-06
2.31947e-06
2.31841e-06
2.31699e-06
2.31521e-06
2.31323e-06
2.31138e-06
2.30912e-06
2.3112e-06
2.31305e-06
2.31486e-06
2.31638e-06
2.31753e-06
2.31835e-06
2.31885e-06
2.31904e-06
2.31891e-06
2.31848e-06
2.31772e-06
2.31665e-06
2.31521e-06
2.31338e-06
2.31138e-06
2.30915e-06
2.26216e-06
2.26432e-06
2.26622e-06
2.26813e-06
2.26971e-06
2.27092e-06
2.27178e-06
2.2723e-06
2.27251e-06
2.27237e-06
2.27191e-06
2.27112e-06
2.26999e-06
2.26849e-06
2.26655e-06
2.26449e-06
2.26217e-06
2.26432e-06
2.26613e-06
2.26802e-06
2.26989e-06
2.27146e-06
2.27267e-06
2.27353e-06
2.27406e-06
2.27426e-06
2.27413e-06
2.27367e-06
2.27287e-06
2.27174e-06
2.27024e-06
2.26835e-06
2.26628e-06
2.26433e-06
2.26622e-06
2.26802e-06
2.26991e-06
2.27172e-06
2.27325e-06
2.27443e-06
2.27527e-06
2.27578e-06
2.27598e-06
2.27585e-06
2.2754e-06
2.27463e-06
2.27353e-06
2.27206e-06
2.27023e-06
2.26816e-06
2.26624e-06
2.26813e-06
2.26989e-06
2.27172e-06
2.27348e-06
2.27498e-06
2.27613e-06
2.27695e-06
2.27745e-06
2.27764e-06
2.27751e-06
2.27707e-06
2.27632e-06
2.27524e-06
2.27382e-06
2.27204e-06
2.27002e-06
2.26815e-06
2.26971e-06
2.27146e-06
2.27325e-06
2.27498e-06
2.27644e-06
2.27757e-06
2.27837e-06
2.27886e-06
2.27905e-06
2.27893e-06
2.2785e-06
2.27776e-06
2.2767e-06
2.27531e-06
2.27357e-06
2.27159e-06
2.26972e-06
2.27092e-06
2.27267e-06
2.27443e-06
2.27613e-06
2.27757e-06
2.27868e-06
2.27947e-06
2.27995e-06
2.28014e-06
2.28002e-06
2.27959e-06
2.27887e-06
2.27783e-06
2.27645e-06
2.27474e-06
2.2728e-06
2.27093e-06
2.27178e-06
2.27353e-06
2.27527e-06
2.27694e-06
2.27837e-06
2.27947e-06
2.28025e-06
2.28073e-06
2.28091e-06
2.28079e-06
2.28037e-06
2.27965e-06
2.27863e-06
2.27727e-06
2.27557e-06
2.27366e-06
2.2718e-06
2.2723e-06
2.27406e-06
2.27578e-06
2.27745e-06
2.27886e-06
2.27995e-06
2.28073e-06
2.2812e-06
2.28138e-06
2.28127e-06
2.28085e-06
2.28014e-06
2.27912e-06
2.27777e-06
2.27608e-06
2.27419e-06
2.27232e-06
2.27251e-06
2.27426e-06
2.27598e-06
2.27764e-06
2.27905e-06
2.28014e-06
2.28091e-06
2.28138e-06
2.28156e-06
2.28145e-06
2.28103e-06
2.28032e-06
2.2793e-06
2.27796e-06
2.27628e-06
2.27439e-06
2.27252e-06
2.27237e-06
2.27413e-06
2.27585e-06
2.27751e-06
2.27893e-06
2.28002e-06
2.28079e-06
2.28127e-06
2.28145e-06
2.28133e-06
2.28091e-06
2.2802e-06
2.27918e-06
2.27784e-06
2.27615e-06
2.27425e-06
2.27239e-06
2.27191e-06
2.27367e-06
2.2754e-06
2.27707e-06
2.2785e-06
2.27959e-06
2.28037e-06
2.28085e-06
2.28103e-06
2.28091e-06
2.2805e-06
2.27978e-06
2.27875e-06
2.2774e-06
2.2757e-06
2.27379e-06
2.27193e-06
2.27112e-06
2.27287e-06
2.27463e-06
2.27632e-06
2.27776e-06
2.27887e-06
2.27965e-06
2.28014e-06
2.28032e-06
2.2802e-06
2.27978e-06
2.27905e-06
2.27802e-06
2.27665e-06
2.27493e-06
2.273e-06
2.27113e-06
2.26999e-06
2.27174e-06
2.27353e-06
2.27524e-06
2.2767e-06
2.27783e-06
2.27863e-06
2.27912e-06
2.2793e-06
2.27918e-06
2.27875e-06
2.27802e-06
2.27697e-06
2.27558e-06
2.27384e-06
2.27187e-06
2.27e-06
2.26849e-06
2.27024e-06
2.27207e-06
2.27382e-06
2.27531e-06
2.27646e-06
2.27727e-06
2.27777e-06
2.27796e-06
2.27784e-06
2.2774e-06
2.27665e-06
2.27558e-06
2.27415e-06
2.27238e-06
2.27037e-06
2.2685e-06
2.26655e-06
2.26835e-06
2.27024e-06
2.27204e-06
2.27357e-06
2.27474e-06
2.27557e-06
2.27608e-06
2.27628e-06
2.27615e-06
2.27571e-06
2.27494e-06
2.27384e-06
2.27238e-06
2.27056e-06
2.26849e-06
2.26656e-06
2.26449e-06
2.26628e-06
2.26816e-06
2.27002e-06
2.27159e-06
2.2728e-06
2.27366e-06
2.27419e-06
2.27439e-06
2.27426e-06
2.2738e-06
2.273e-06
2.27187e-06
2.27037e-06
2.26849e-06
2.26643e-06
2.2645e-06
2.26217e-06
2.26433e-06
2.26624e-06
2.26815e-06
2.26972e-06
2.27093e-06
2.2718e-06
2.27232e-06
2.27252e-06
2.27239e-06
2.27193e-06
2.27113e-06
2.27e-06
2.2685e-06
2.26656e-06
2.2645e-06
2.26218e-06
2.21847e-06
2.22058e-06
2.22244e-06
2.22434e-06
2.2259e-06
2.22711e-06
2.22797e-06
2.2285e-06
2.2287e-06
2.22857e-06
2.22811e-06
2.22731e-06
2.22618e-06
2.22469e-06
2.22275e-06
2.22074e-06
2.21848e-06
2.22058e-06
2.22235e-06
2.22422e-06
2.22608e-06
2.22765e-06
2.22887e-06
2.22973e-06
2.23026e-06
2.23047e-06
2.23033e-06
2.22987e-06
2.22907e-06
2.22793e-06
2.22643e-06
2.22454e-06
2.2225e-06
2.22059e-06
2.22244e-06
2.22422e-06
2.2261e-06
2.22791e-06
2.22946e-06
2.23065e-06
2.2315e-06
2.23201e-06
2.23221e-06
2.23208e-06
2.23163e-06
2.23084e-06
2.22973e-06
2.22826e-06
2.22642e-06
2.22435e-06
2.22245e-06
2.22434e-06
2.22608e-06
2.22791e-06
2.22969e-06
2.2312e-06
2.23237e-06
2.2332e-06
2.23371e-06
2.23391e-06
2.23378e-06
2.23333e-06
2.23256e-06
2.23147e-06
2.23003e-06
2.22823e-06
2.22621e-06
2.22435e-06
2.2259e-06
2.22765e-06
2.22946e-06
2.2312e-06
2.23269e-06
2.23384e-06
2.23466e-06
2.23517e-06
2.23536e-06
2.23523e-06
2.23479e-06
2.23403e-06
2.23296e-06
2.23154e-06
2.22977e-06
2.22778e-06
2.22591e-06
2.22711e-06
2.22887e-06
2.23065e-06
2.23237e-06
2.23384e-06
2.23498e-06
2.23579e-06
2.23629e-06
2.23648e-06
2.23635e-06
2.23592e-06
2.23517e-06
2.2341e-06
2.2327e-06
2.23096e-06
2.22899e-06
2.22712e-06
2.22797e-06
2.22973e-06
2.23149e-06
2.2332e-06
2.23466e-06
2.23579e-06
2.23659e-06
2.23709e-06
2.23727e-06
2.23715e-06
2.23672e-06
2.23598e-06
2.23492e-06
2.23353e-06
2.2318e-06
2.22986e-06
2.22799e-06
2.2285e-06
2.23026e-06
2.23201e-06
2.23371e-06
2.23517e-06
2.23629e-06
2.23709e-06
2.23758e-06
2.23776e-06
2.23764e-06
2.23721e-06
2.23647e-06
2.23542e-06
2.23404e-06
2.23232e-06
2.23039e-06
2.22851e-06
2.2287e-06
2.23047e-06
2.23221e-06
2.23391e-06
2.23536e-06
2.23648e-06
2.23727e-06
2.23776e-06
2.23795e-06
2.23783e-06
2.2374e-06
2.23666e-06
2.23562e-06
2.23424e-06
2.23252e-06
2.23059e-06
2.22871e-06
2.22857e-06
2.23033e-06
2.23208e-06
2.23378e-06
2.23523e-06
2.23635e-06
2.23715e-06
2.23764e-06
2.23783e-06
2.2377e-06
2.23728e-06
2.23654e-06
2.23549e-06
2.23411e-06
2.23239e-06
2.23046e-06
2.22858e-06
2.22811e-06
2.22987e-06
2.23163e-06
2.23333e-06
2.23479e-06
2.23592e-06
2.23672e-06
2.23721e-06
2.2374e-06
2.23728e-06
2.23684e-06
2.2361e-06
2.23505e-06
2.23366e-06
2.23193e-06
2.22999e-06
2.22812e-06
2.22731e-06
2.22907e-06
2.23084e-06
2.23256e-06
2.23404e-06
2.23517e-06
2.23598e-06
2.23647e-06
2.23666e-06
2.23654e-06
2.2361e-06
2.23536e-06
2.2343e-06
2.23289e-06
2.23115e-06
2.22919e-06
2.22732e-06
2.22618e-06
2.22793e-06
2.22973e-06
2.23147e-06
2.23296e-06
2.23411e-06
2.23492e-06
2.23542e-06
2.23562e-06
2.23549e-06
2.23505e-06
2.2343e-06
2.23322e-06
2.2318e-06
2.23004e-06
2.22805e-06
2.22619e-06
2.2247e-06
2.22643e-06
2.22826e-06
2.23003e-06
2.23154e-06
2.2327e-06
2.23353e-06
2.23404e-06
2.23424e-06
2.23411e-06
2.23366e-06
2.2329e-06
2.2318e-06
2.23036e-06
2.22858e-06
2.22656e-06
2.22471e-06
2.22276e-06
2.22454e-06
2.22642e-06
2.22823e-06
2.22977e-06
2.23096e-06
2.2318e-06
2.23232e-06
2.23252e-06
2.23239e-06
2.23193e-06
2.23115e-06
2.23004e-06
2.22858e-06
2.22674e-06
2.22468e-06
2.22277e-06
2.22074e-06
2.2225e-06
2.22435e-06
2.22621e-06
2.22778e-06
2.22899e-06
2.22986e-06
2.23039e-06
2.23059e-06
2.23046e-06
2.23e-06
2.22919e-06
2.22805e-06
2.22656e-06
2.22468e-06
2.22265e-06
2.22075e-06
2.21848e-06
2.22059e-06
2.22245e-06
2.22435e-06
2.22591e-06
2.22712e-06
2.22799e-06
2.22851e-06
2.22871e-06
2.22858e-06
2.22812e-06
2.22732e-06
2.22619e-06
2.22471e-06
2.22276e-06
2.22075e-06
2.21849e-06
2.17751e-06
2.17945e-06
2.18118e-06
2.18298e-06
2.18445e-06
2.1856e-06
2.18642e-06
2.18692e-06
2.18711e-06
2.18698e-06
2.18654e-06
2.18578e-06
2.18471e-06
2.18332e-06
2.18148e-06
2.1796e-06
2.17752e-06
2.17945e-06
2.18111e-06
2.18285e-06
2.18462e-06
2.1861e-06
2.18727e-06
2.1881e-06
2.1886e-06
2.1888e-06
2.18867e-06
2.18822e-06
2.18746e-06
2.18637e-06
2.18495e-06
2.18315e-06
2.18125e-06
2.17946e-06
2.18118e-06
2.18285e-06
2.18463e-06
2.18636e-06
2.18783e-06
2.18897e-06
2.18979e-06
2.19029e-06
2.19048e-06
2.19035e-06
2.18991e-06
2.18916e-06
2.18809e-06
2.18669e-06
2.18493e-06
2.18298e-06
2.18119e-06
2.18298e-06
2.18462e-06
2.18636e-06
2.18805e-06
2.1895e-06
2.19063e-06
2.19144e-06
2.19193e-06
2.19212e-06
2.192e-06
2.19156e-06
2.19082e-06
2.18976e-06
2.18837e-06
2.18666e-06
2.18474e-06
2.18299e-06
2.18445e-06
2.1861e-06
2.18783e-06
2.1895e-06
2.19094e-06
2.19206e-06
2.19286e-06
2.19335e-06
2.19353e-06
2.19341e-06
2.19298e-06
2.19224e-06
2.1912e-06
2.18983e-06
2.18813e-06
2.18622e-06
2.18446e-06
2.1856e-06
2.18727e-06
2.18897e-06
2.19063e-06
2.19206e-06
2.19316e-06
2.19395e-06
2.19444e-06
2.19462e-06
2.1945e-06
2.19408e-06
2.19335e-06
2.19231e-06
2.19095e-06
2.18927e-06
2.18738e-06
2.18561e-06
2.18642e-06
2.18809e-06
2.18979e-06
2.19144e-06
2.19286e-06
2.19395e-06
2.19474e-06
2.19522e-06
2.19541e-06
2.19529e-06
2.19486e-06
2.19414e-06
2.19311e-06
2.19176e-06
2.19008e-06
2.18821e-06
2.18643e-06
2.18692e-06
2.1886e-06
2.19029e-06
2.19193e-06
2.19335e-06
2.19444e-06
2.19522e-06
2.1957e-06
2.19589e-06
2.19577e-06
2.19534e-06
2.19462e-06
2.1936e-06
2.19225e-06
2.19058e-06
2.18872e-06
2.18693e-06
2.18711e-06
2.1888e-06
2.19048e-06
2.19212e-06
2.19353e-06
2.19462e-06
2.19541e-06
2.19589e-06
2.19607e-06
2.19595e-06
2.19553e-06
2.19481e-06
2.19378e-06
2.19244e-06
2.19077e-06
2.18892e-06
2.18712e-06
2.18698e-06
2.18867e-06
2.19035e-06
2.192e-06
2.19341e-06
2.1945e-06
2.19529e-06
2.19577e-06
2.19595e-06
2.19583e-06
2.19541e-06
2.19469e-06
2.19366e-06
2.19231e-06
2.19065e-06
2.18879e-06
2.18699e-06
2.18654e-06
2.18822e-06
2.18991e-06
2.19156e-06
2.19298e-06
2.19408e-06
2.19486e-06
2.19534e-06
2.19553e-06
2.19541e-06
2.19498e-06
2.19426e-06
2.19323e-06
2.19188e-06
2.19021e-06
2.18834e-06
2.18655e-06
2.18579e-06
2.18746e-06
2.18916e-06
2.19082e-06
2.19224e-06
2.19335e-06
2.19414e-06
2.19462e-06
2.19481e-06
2.19469e-06
2.19426e-06
2.19353e-06
2.1925e-06
2.19114e-06
2.18946e-06
2.18758e-06
2.18579e-06
2.18471e-06
2.18637e-06
2.18809e-06
2.18976e-06
2.1912e-06
2.19231e-06
2.19311e-06
2.1936e-06
2.19378e-06
2.19366e-06
2.19323e-06
2.1925e-06
2.19145e-06
2.19008e-06
2.18839e-06
2.18649e-06
2.18471e-06
2.18332e-06
2.18495e-06
2.18669e-06
2.18837e-06
2.18983e-06
2.19095e-06
2.19176e-06
2.19225e-06
2.19244e-06
2.19232e-06
2.19188e-06
2.19114e-06
2.19008e-06
2.1887e-06
2.18699e-06
2.18507e-06
2.18332e-06
2.18148e-06
2.18316e-06
2.18493e-06
2.18666e-06
2.18813e-06
2.18927e-06
2.19008e-06
2.19058e-06
2.19077e-06
2.19065e-06
2.19021e-06
2.18946e-06
2.18839e-06
2.18699e-06
2.18524e-06
2.18328e-06
2.18149e-06
2.17961e-06
2.18125e-06
2.18298e-06
2.18474e-06
2.18622e-06
2.18739e-06
2.18822e-06
2.18872e-06
2.18892e-06
2.18879e-06
2.18834e-06
2.18758e-06
2.18649e-06
2.18507e-06
2.18328e-06
2.18138e-06
2.17961e-06
2.17752e-06
2.17946e-06
2.18119e-06
2.18299e-06
2.18446e-06
2.18561e-06
2.18643e-06
2.18693e-06
2.18712e-06
2.18699e-06
2.18655e-06
2.18579e-06
2.18471e-06
2.18332e-06
2.18149e-06
2.17961e-06
2.17752e-06
2.13895e-06
2.1407e-06
2.14226e-06
2.1439e-06
2.14524e-06
2.14629e-06
2.14704e-06
2.1475e-06
2.14768e-06
2.14756e-06
2.14716e-06
2.14646e-06
2.14547e-06
2.14421e-06
2.14253e-06
2.14083e-06
2.13896e-06
2.1407e-06
2.1422e-06
2.14378e-06
2.14539e-06
2.14675e-06
2.14782e-06
2.14859e-06
2.14906e-06
2.14924e-06
2.14912e-06
2.14871e-06
2.148e-06
2.14699e-06
2.1457e-06
2.14405e-06
2.14232e-06
2.14071e-06
2.14226e-06
2.14378e-06
2.1454e-06
2.14699e-06
2.14834e-06
2.1494e-06
2.15016e-06
2.15062e-06
2.1508e-06
2.15068e-06
2.15027e-06
2.14957e-06
2.14858e-06
2.14729e-06
2.14568e-06
2.1439e-06
2.14227e-06
2.14391e-06
2.14539e-06
2.14699e-06
2.14855e-06
2.14989e-06
2.15094e-06
2.15169e-06
2.15215e-06
2.15233e-06
2.15221e-06
2.15181e-06
2.15111e-06
2.15013e-06
2.14885e-06
2.14726e-06
2.1455e-06
2.14391e-06
2.14524e-06
2.14675e-06
2.14834e-06
2.14989e-06
2.15123e-06
2.15227e-06
2.15302e-06
2.15348e-06
2.15365e-06
2.15354e-06
2.15313e-06
2.15244e-06
2.15147e-06
2.15019e-06
2.14862e-06
2.14686e-06
2.14524e-06
2.14629e-06
2.14782e-06
2.1494e-06
2.15094e-06
2.15227e-06
2.15331e-06
2.15405e-06
2.1545e-06
2.15468e-06
2.15456e-06
2.15416e-06
2.15348e-06
2.15251e-06
2.15124e-06
2.14967e-06
2.14793e-06
2.1463e-06
2.14704e-06
2.14859e-06
2.15016e-06
2.15169e-06
2.15302e-06
2.15405e-06
2.15478e-06
2.15524e-06
2.15541e-06
2.1553e-06
2.1549e-06
2.15422e-06
2.15325e-06
2.15199e-06
2.15043e-06
2.1487e-06
2.14705e-06
2.1475e-06
2.14906e-06
2.15062e-06
2.15215e-06
2.15348e-06
2.1545e-06
2.15524e-06
2.15569e-06
2.15587e-06
2.15575e-06
2.15535e-06
2.15467e-06
2.15371e-06
2.15245e-06
2.15089e-06
2.14917e-06
2.14751e-06
2.14768e-06
2.14924e-06
2.1508e-06
2.15233e-06
2.15365e-06
2.15468e-06
2.15541e-06
2.15587e-06
2.15604e-06
2.15592e-06
2.15553e-06
2.15485e-06
2.15388e-06
2.15262e-06
2.15107e-06
2.14935e-06