/*--------------------------------*- C++ -*----------------------------------*\
  =========                 |
  \\      /  F ield         | OpenFOAM: The Open Source CFD Toolbox
   \\    /   O peration     | Website:  https://openfoam.org
    \\  /    A nd           | Version:  6
     \\/     M anipulation  |
\*---------------------------------------------------------------------------*/
FoamFile
{
    version     2.0;
    format      ascii;
    class       volVectorField;
    location    "0";
    object      U;
}
// * * * * * * * * * * * * * * * * * * * * * * * * * * * * * * * * * * * * * //

dimensions      [0 1 -1 0 0 0 0];

internalField   nonuniform List<vector> 
918
(
(0.864622 -0.115054 0)
(0.0062419 2.96069 0)
(-0.245282 1.77729 0)
(0.773771 0.147667 0)
(-0.0349827 1.70898 -2.25682e-20)
(-0.0176318 2.94098 -2.73599e-19)
(1.19289 1.69764 3.5748e-19)
(0.498826 0.293879 -1.15458e-20)
(0.895998 -0.00186134 0)
(0.0600522 1.75516 0)
(0.0300598 1.73447 0)
(0.928933 0.0174134 0)
(-0.131784 3.04482 0)
(0.00500497 2.88864 0)
(-0.107579 2.72038 4.55892e-19)
(-0.031521 1.70905 -1.8321e-20)
(0.704341 0.16007 9.88335e-19)
(0.265244 2.04443 3.74962e-19)
(0.980018 0.0891827 0)
(0.0539828 1.71247 0)
(0.793585 0.200637 4.18875e-20)
(0.727813 -0.0159706 0)
(0.807157 0.0178082 0)
(1.05822 0.0682303 0)
(0.848655 0.0695938 0)
(-0.003907 2.94505 0)
(-0.0315982 2.86524 4.74753e-20)
(-0.121497 1.76585 0)
(-0.0740944 1.66738 0)
(-0.22871 1.74991 0)
(0.0256363 1.76039 0)
(-0.078207 1.68699 1.75974e-20)
(-0.0385994 1.69059 0)
(0.0109275 3.00702 -3.17701e-24)
(-0.0203718 2.99487 2.11591e-19)
(0.00588227 3.00306 0)
(0.981434 -0.00584525 0)
(0.837419 1.19893 2.18553e-19)
(1.17494 1.68661 -3.81331e-19)
(1.27237 1.50946 3.60437e-19)
(0.982642 1.84703 -8.82979e-20)
(0.977491 1.90914 5.55866e-19)
(0.543644 0.304393 1.12627e-20)
(0.542914 0.284409 0)
(1.37617 0.795274 0)
(0.493725 0.322897 4.49278e-20)
(0.440267 0.30127 -4.66427e-20)
(0.991857 -0.00636357 0)
(0.897266 0.00993092 0)
(0.899165 0.00312579 0)
(0.828919 -0.107345 0)
(0.863677 0.0500271 0)
(0.913816 0.0326727 0)
(-0.0365251 1.5667 -4.44488e-19)
(0.0156152 1.84361 0)
(0.0119167 1.83798 0)
(-0.00629793 1.7904 0)
(-0.0127914 1.80243 0)
(-0.0503867 1.69734 0)
(0.0314966 1.76346 0)
(-0.000743661 1.74551 0)
(0.011136 1.73971 0)
(0.00839309 1.70783 0)
(0.992625 -0.0154539 0)
(0.965927 0.0322493 0)
(0.955707 -0.000898384 0)
(0.946202 -0.00343876 0)
(0.943959 -0.00120878 0)
(0.00180877 3.01489 7.86385e-20)
(0.00518281 3.01009 0)
(-0.00529866 3.00023 0)
(-0.0265792 3.00275 6.3888e-25)
(-0.0288172 2.9416 -1.18285e-19)
(-0.0776563 3.08803 0)
(-0.0452934 3.04577 0)
(0.0104721 2.96698 -2.37423e-25)
(-0.0169623 2.88465 0)
(0.00489733 3.00357 0)
(0.120164 2.86113 0)
(0.141308 2.8826 0)
(-0.107166 2.92504 0)
(-0.0131133 2.78699 -4.21686e-19)
(-0.117213 2.70755 0)
(-0.00698614 1.7325 0)
(-0.0223265 1.74664 1.80656e-20)
(0.0245069 1.70801 -2.11007e-20)
(0.73537 0.170422 -3.41159e-19)
(0.738827 0.154066 -3.33154e-19)
(0.702577 0.228039 -1.0158e-18)
(0.661381 0.204376 -6.53829e-19)
(0.212096 1.38525 0)
(0.362548 2.1093 -3.74123e-19)
(0.479903 2.09421 6.43246e-19)
(0.972545 0.0011644 0)
(0.971259 -0.0100119 0)
(0.888594 -0.0262753 0)
(0.924986 -0.000910227 0)
(1.0271 0.153582 -3.06593e-18)
(1.09381 0.183216 2.28898e-18)
(0.0308805 1.77228 0)
(-0.00833977 1.73222 0)
(0.024657 1.73763 0)
(-0.000306767 1.73151 0)
(-0.0193897 1.73794 0)
(0.730259 0.182158 1.36806e-20)
(0.43278 0.42481 0)
(1.05666 0.0204073 0)
(1.00542 -0.00659729 0)
(0.944845 0.0178287 0)
(0.894752 0.080945 0)
(0.903873 0.0250049 0)
(1.13227 -0.0363366 0)
(0.846906 0.0535852 0)
(0.829894 0.0376105 1.52477e-18)
(-0.0418239 2.88051 -1.82602e-19)
(0.0565599 2.95056 0)
(-0.0223314 2.98481 0)
(0.022863 2.86718 0)
(-0.0325332 2.92438 -2.92144e-20)
(0.0307237 2.84227 0)
(-0.0887074 2.94727 -1.24408e-19)
(-0.130516 2.84653 1.13478e-19)
(0.0481366 1.72797 0)
(-0.00797981 1.74898 0)
(-0.0244801 1.7213 -1.02527e-21)
(-0.0415797 1.73364 0)
(0.0278912 1.70589 0)
(1.00484 0.0084273 0)
(0.98969 -0.0121585 0)
(0.972435 -0.0124175 0)
(0.999833 0.00675094 0)
(0.978976 0.0137751 0)
(0.89301 1.22514 -2.74846e-19)
(0.825868 1.11837 0)
(0.815299 1.30564 3.5977e-20)
(0.748574 1.20812 0)
(1.22416 1.42774 -9.1822e-20)
(1.37492 1.23086 1.38694e-19)
(0.574961 2.11395 0)
(0.7975 2.02549 0)
(0.767017 2.02489 0)
(0.515906 1.23 -2.74226e-19)
(0.578754 0.310813 0)
(0.579833 0.250773 1.72242e-19)
(1.23612 1.19421 0)
(1.29291 0.930034 0)
(1.38285 0.994053 -3.70559e-20)
(1.32425 0.753706 0)
(1.38282 0.581306 4.75475e-20)
(0.989859 0.0205766 0)
(1.00892 -0.0232337 0)
(0.979407 -0.0169038 0)
(1.00051 0.0052211 0)
(1.00131 -0.00603844 0)
(0.976817 0.00563269 0)
(0.856117 -0.0234627 0)
(0.86697 -0.0166491 0)
(0.906899 0.00654324 0)
(-0.0332333 1.65279 2.23776e-19)
(0.0551765 1.59084 0)
(0.0151129 1.63584 4.15274e-19)
(0.0338415 1.65979 -3.39962e-19)
(0.141835 2.00266 -3.14184e-19)
(-0.00276911 1.90084 0)
(0.0451121 1.9431 0)
(-0.014347 1.80825 0)
(0.00146397 1.76872 0)
(-0.0432706 1.76001 -8.91704e-22)
(0.0240051 1.72833 0)
(0.0158745 1.73021 -9.25363e-20)
(0.0665655 1.73826 1.53298e-19)
(0.0242227 1.76402 0)
(0.0179503 1.75699 0)
(0.0107834 1.72018 0)
(-0.00429419 1.74577 0)
(-0.00941706 1.75424 0)
(1.02871 0.0303076 0)
(1.0269 0.0178355 0)
(1.02563 -0.0151448 0)
(0.99966 0.0104815 0)
(0.97428 -0.00674871 0)
(0.980707 0.00242447 0)
(0.965405 0.0138592 0)
(0.944533 0.000861928 0)
(0.113827 3.04395 -6.88934e-22)
(0.138027 3.01946 0)
(0.0156032 3.07569 0)
(0.0481115 2.95249 0)
(0.634704 3.08945 0)
(0.865007 2.56158 3.8799e-19)
(-0.0323244 2.84196 0)
(-0.065235 2.75144 0)
(-0.0164177 1.79071 0)
(-0.0076367 1.68348 0)
(-0.00516393 1.73632 0)
(0.0543208 1.80961 -4.72059e-20)
(-0.0491905 1.79119 0)
(0.0774231 1.76939 0)
(0.0290297 1.71923 2.86888e-20)
(0.0277244 1.7454 4.03223e-20)
(0.00759728 1.72742 2.16479e-20)
(0.0154223 1.70947 0)
(0.765178 0.157689 5.42392e-19)
(0.752341 0.0782983 -5.28966e-19)
(0.206821 1.40548 0)
(0.227557 1.31996 -1.64736e-19)
(0.161048 1.50406 -4.86084e-19)
(0.114449 1.46477 4.84765e-19)
(0.993761 -0.0106304 0)
(0.99034 -0.0187454 0)
(0.993527 -0.000284703 0)
(0.959061 0.0116659 0)
(-0.00823225 1.78046 0)
(0.020437 1.75997 0)
(0.000629059 1.75954 0)
(0.463686 0.307229 3.61704e-19)
(0.506041 0.291453 -2.99544e-19)
(0.418115 0.317179 0)
(1.19182 0.115206 4.50444e-20)
(1.24842 0.0524549 0)
(1.14019 0.0399029 0)
(1.07584 0.0152467 0)
(0.787882 0.103468 0)
(0.828486 0.0481517 -2.46552e-18)
(0.770809 0.0449103 9.43231e-19)
(0.0306142 2.97572 -1.58442e-19)
(0.0898522 2.87933 4.52966e-20)
(0.148596 2.99311 -2.79583e-21)
(0.146848 3.00641 1.53436e-20)
(-0.0813756 2.94372 5.32108e-21)
(-0.135114 2.91513 -1.2602e-23)
(-0.0680493 3.0524 -6.91918e-21)
(-0.0206058 2.99473 4.94948e-21)
(0.134227 3.04059 -1.57854e-20)
(1.01789 0.0177001 0)
(1.00132 0.0355954 0)
(0.992314 0.0269171 0)
(0.996239 -0.0142789 0)
(0.984038 -0.0119346 0)
(0.964909 -0.00240718 0)
(0.980137 -0.00856446 0)
(0.998418 0.0182831 0)
(0.962728 0.0124398 0)
(0.923825 1.18505 -1.44898e-19)
(0.75738 1.20096 0)
(0.686393 1.24091 7.70511e-20)
(0.696832 1.32529 5.78206e-19)
(0.770035 1.30383 -3.54141e-19)
(0.73291 1.22522 6.6465e-19)
(0.492201 1.30605 1.26873e-18)
(0.522104 1.2704 2.31501e-19)
(0.668272 0.240304 6.83558e-19)
(0.633723 0.270122 1.73072e-19)
(0.643045 0.240994 3.25779e-19)
(1.29348 0.532008 -1.51744e-19)
(1.34122 0.369971 -2.07993e-19)
(0.00956339 1.70454 1.47885e-19)
(0.01248 1.67999 0)
(1.07599 0.0406447 0)
(1.06522 0.00209856 0)
(1.02815 -0.0145862 0)
(0.0757112 3.09324 0)
(-0.00881978 2.95803 -6.74177e-20)
(0.0539946 3.00238 0)
(0.000487673 2.87423 6.64412e-20)
(0.0233342 3.11481 -2.15358e-20)
(0.0304935 3.11307 0)
(0.699919 1.36154 -4.08036e-20)
(0.880029 1.95336 1.07561e-19)
(0.600849 1.49603 -4.43118e-19)
(-0.0443864 2.93333 1.70721e-19)
(-0.0317002 2.90065 0)
(-0.0629756 2.83908 0)
(-0.0431606 1.78928 -1.6442e-21)
(0.0138484 1.70149 -1.52542e-19)
(-0.0746616 1.67106 2.17665e-20)
(0.247881 1.3942 5.02798e-19)
(0.305157 1.32978 -3.41367e-19)
(0.0380984 1.61915 3.28785e-19)
(0.0793995 1.55615 -4.06309e-19)
(0.0672617 1.55081 5.33222e-20)
(-0.046311 3.08853 2.63893e-19)
(-0.00614835 3.11184 -3.14799e-19)
(0.0320505 2.92883 -8.38968e-20)
(0.0507036 2.95361 1.21688e-19)
(0.0634872 2.86651 8.54942e-20)
(0.015667 3.10773 1.99985e-19)
(0.00721719 3.0992 -2.14188e-19)
(0.537766 1.31504 0)
(0.623028 1.33248 -1.27128e-18)
(0.592243 1.2163 5.70221e-19)
(0.438892 1.36806 6.94705e-19)
(0.423253 1.28939 -1.08369e-18)
(1.27998 0.159217 1.39639e-19)
(1.29752 0.366525 0)
(1.31915 0.206496 -1.13829e-19)
(0.0177731 1.7249 -1.71527e-21)
(-0.0147287 1.70909 0)
(-0.00709412 1.67978 0)
(0.317242 1.38877 -1.78002e-19)
(0.364378 1.35333 -4.15498e-19)
(0.383035 1.33051 7.68134e-19)
(1.02888 -0.0916804 0)
(1.09412 -0.135002 5.81625e-19)
(0.0385376 1.75473 0)
(-0.00188378 1.7568 0)
(1.02517 -0.0282806 3.61786e-20)
(0.934918 -0.0767219 1.22958e-18)
(-0.0124326 1.80777 6.24364e-20)
(0.067131 1.80457 0)
(-0.0594803 3.00218 -2.17171e-19)
(0.00719843 2.72875 0)
(1.16197 0.638258 -1.50029e-19)
(1.04907 -0.0116288 -1.92843e-20)
(1.06007 0.0451245 0)
(1.0216 -0.00309616 -6.18312e-21)
(0.079311 1.90011 0)
(0.117313 1.76053 0)
(-0.0504345 1.78373 0)
(0.100676 1.8275 8.68967e-20)
(3.79939e-05 1.83022 1.04392e-20)
(1.00529 -0.00947358 5.09517e-21)
(1.1096 0.0701799 0)
(1.11085 0.0476594 0)
(0.00424273 1.75517 0)
(0.0528222 1.77993 0)
(-0.0541182 1.78925 0)
(0.219156 1.97511 -1.08952e-19)
(0.977038 -0.0827455 0)
(0.981679 -0.0647834 0)
(1.0022 0.0672879 7.47809e-19)
(1.01814 0.0179491 -8.76869e-19)
(1.07998 -0.0208588 0)
(-0.0290567 1.7253 0)
(0.0371522 1.74675 0)
(-0.00945324 1.7231 0)
(-0.0295245 1.82642 0)
(-0.0181653 1.76065 0)
(-0.000798731 1.75411 0)
(1.02928 0.00665643 0)
(1.0428 -0.0192492 -5.01369e-21)
(0.85243 1.73213 1.87539e-19)
(1.02378 -0.0769529 -7.39757e-19)
(1.05398 0.0610246 9.30502e-19)
(1.10354 0.046177 0)
(0.987636 0.00110355 7.46714e-19)
(1.00149 0.00906026 -9.53786e-19)
(1.00037 0.0175488 0)
(0.0279599 1.80653 0)
(0.0191658 1.74504 4.85626e-20)
(-0.00790818 1.75048 -3.31704e-20)
(1.2286 0.328742 8.91855e-19)
(1.14997 0.0921897 0)
(-0.11041 3.09175 1.94538e-19)
(-0.0300067 3.02376 1.39537e-20)
(-0.12259 3.0585 -3.66019e-19)
(-0.0408865 3.00416 1.26829e-19)
(-0.0333098 2.92092 0)
(-0.0443965 2.98197 -7.32518e-20)
(-0.0538969 3.10946 -1.9183e-19)
(-0.0447821 3.03125 1.37146e-19)
(-0.0626682 3.10672 0)
(0.667659 0.290544 0)
(0.526716 0.364865 0)
(1.08944 0.786126 4.16675e-19)
(1.15046 0.927358 -4.98442e-19)
(1.12318 0.613647 0)
(1.14317 0.635234 0)
(1.05552 0.0164141 -1.39999e-18)
(1.00662 0.00233844 1.79884e-18)
(1.07008 -0.0279539 0)
(1.00986 -0.0671274 0)
(0.921252 0.0589444 0)
(1.02656 -0.025342 0)
(1.0107 -0.00180357 0)
(1.01308 -0.0641483 0)
(1.04051 -0.0786236 0)
(0.994096 0.0315116 0)
(0.0323283 1.90113 0)
(0.000935605 1.85187 0)
(0.118781 1.85602 0)
(0.170946 1.8929 0)
(0.0596853 1.62751 0)
(0.0579312 1.66109 -2.34054e-19)
(0.138142 1.74998 0)
(0.102776 1.71368 1.37396e-19)
(0.0733163 1.76047 -9.7502e-20)
(-0.0315249 1.82164 0)
(0.0427435 1.76586 0)
(-0.0497048 1.77409 0)
(-0.0656858 1.77545 0)
(-0.0363572 1.75457 4.06891e-21)
(-0.0419773 1.68295 1.05509e-19)
(0.0903781 1.83892 1.13429e-20)
(0.0271806 1.78794 0)
(0.016989 1.81791 -5.11891e-20)
(0.0186939 1.76533 -1.3488e-19)
(-0.00125177 1.79445 -1.69209e-20)
(-0.0519673 1.59232 -1.32913e-19)
(0.119443 1.78588 -1.43028e-20)
(0.991229 -0.0284299 1.27781e-18)
(0.998412 -0.0679967 -1.66704e-18)
(1.00319 0.0169252 -1.32483e-18)
(0.9326 0.002426 1.74937e-18)
(1.0487 0.0165668 0)
(1.02778 0.0154673 0)
(1.00257 0.0210821 0)
(1.09251 0.032795 0)
(1.0171 -0.000522936 0)
(1.05312 0.0632911 0)
(1.1029 0.0339142 0)
(1.06094 0.0267305 0)
(-0.152203 1.72294 -3.0664e-21)
(0.0824658 1.76064 0)
(-0.0843652 1.74176 0)
(0.0266812 1.74746 1.56018e-20)
(0.0176899 1.78621 -6.54866e-22)
(0.0249029 1.82958 -4.36597e-20)
(-0.0580913 1.75277 4.32835e-20)
(-0.0444743 1.77813 0)
(-0.0481527 1.79669 0)
(0.0564706 1.77736 0)
(-0.0583706 1.77297 0)
(-0.0535887 1.80006 0)
(0.397792 1.89545 1.25173e-19)
(0.428578 2.01602 1.11362e-19)
(0.275011 1.48365 -1.18982e-19)
(0.234194 1.564 2.87082e-19)
(0.341835 1.71429 5.20189e-20)
(1.00741 0.0210274 0)
(0.994698 0.00961765 0)
(1.02166 0.0650763 0)
(0.988545 -0.0450717 0)
(0.991763 -0.0315507 0)
(0.906915 0.0319851 0)
(0.991986 0.138686 0)
(1.05055 0.10954 0)
(0.996156 -0.0380565 1.35588e-18)
(1.01271 -0.0399021 -1.74231e-18)
(1.04033 0.000193863 -1.32566e-18)
(0.989859 0.0245384 1.73448e-18)
(0.834561 1.72683 0)
(0.803179 1.72246 6.17744e-20)
(0.863683 1.55984 -2.32542e-20)
(0.936407 1.55435 3.11238e-20)
(0.911315 1.54802 9.61991e-19)
(0.875551 0.103025 5.94341e-19)
(1.14078 0.103654 0)
(1.13231 0.226983 -7.40896e-19)
(1.11929 0.115863 -3.18031e-20)
(0.960819 0.171153 0)
(-0.311776 3.00455 -1.13953e-19)
(-0.103004 3.00414 3.31934e-19)
(-0.112192 3.0497 -1.60786e-19)
(0.0888275 1.1411 2.49378e-19)
(-0.0704519 2.88255 -1.46579e-19)
(-0.00188689 2.95876 0)
(0.0734057 2.83644 1.90998e-19)
(-0.356213 2.90495 3.76265e-19)
(-0.483206 2.86248 0)
(-0.0394187 3.0573 -1.33902e-20)
(-0.0483412 3.08372 4.02007e-20)
(-0.0674093 3.06288 -6.54962e-20)
(-0.0525399 3.1045 0)
(-0.046248 3.04828 0)
(1.00958 1.81566 0)
(0.122924 1.10411 -5.25856e-19)
(1.07079 1.1935 1.34578e-19)
(0.920103 1.4076 0)
(0.803071 1.17756 -1.89955e-19)
(1.00812 1.14544 2.97642e-20)
(0.357788 -0.0808947 3.59252e-21)
(0.652323 0.286688 -3.92303e-21)
(0.635978 0.317021 3.64498e-19)
(0.509689 0.390927 1.88273e-20)
(0.442559 0.343355 -7.07255e-19)
(0.633342 0.370732 0)
(0.630619 0.424961 5.50286e-19)
(0.614509 0.360013 0)
(0.507491 0.376498 0)
(0.529608 0.352002 0)
(0.594036 0.759711 4.5756e-19)
(1.23457 0.289664 -6.96219e-19)
(1.15119 0.407863 0)
(1.21125 0.282543 0)
(0.786207 0.222795 5.61514e-19)
(0.601694 0.62599 -3.73876e-19)
(0.600537 0.508713 6.96333e-19)
(0.840616 0.408493 -7.51878e-19)
(0.988569 0.0177414 9.46976e-19)
(1.01149 0.0984766 -9.71458e-19)
(0.99409 0.0775993 0)
(1.01132 -0.020008 0)
(0.999708 -0.0554766 -9.16366e-19)
(1.00396 0.00690104 9.08317e-19)
(0.985994 0.0507123 0)
(0.979021 -0.00341757 0)
(1.05378 -0.0182922 0)
(0.985616 -0.00516459 0)
(1.01907 -0.0506755 0)
(1.00066 -0.0573327 0)
(0.0405077 1.83127 0)
(0.101367 1.80363 0)
(0.0183676 1.84865 2.46408e-20)
(0.218384 1.96601 5.01151e-20)
(0.202603 1.92272 4.87787e-20)
(0.143298 1.94714 -1.10617e-19)
(-0.000849757 1.80667 0)
(0.287405 1.74287 -1.58637e-19)
(0.15551 1.8576 0)
(0.300299 1.74726 -7.44899e-20)
(0.247803 1.63009 3.83469e-19)
(0.236223 1.72093 1.42244e-19)
(0.207144 1.86738 -1.45891e-21)
(0.0927923 1.71081 1.17426e-21)
(0.238776 1.8401 -8.64336e-20)
(0.21704 1.72196 0)
(0.234606 1.73599 6.77713e-20)
(0.0282943 1.71472 -4.9804e-20)
(0.00216022 1.69857 0)
(0.0150973 1.70404 1.17548e-19)
(-0.0312062 1.72107 0)
(0.0306565 1.72637 -1.58052e-19)
(0.0139125 1.70803 0)
(0.044694 1.762 -3.00299e-20)
(0.0843079 1.76914 0)
(0.0774812 1.74225 0)
(0.0497956 1.78219 3.40872e-20)
(0.0393553 1.66719 3.59035e-20)
(0.0721791 1.78061 1.11694e-19)
(0.0289669 1.71786 1.43412e-21)
(0.0775586 1.63902 -1.70794e-20)
(0.0439573 1.66256 6.23022e-21)
(0.0365969 1.73472 0)
(-0.0948247 1.77058 0)
(-0.0267591 1.76509 5.36383e-20)
(-0.064585 1.75634 1.39941e-19)
(-0.00963087 1.77945 -1.44785e-19)
(-0.0108856 1.78428 0)
(-0.00121964 1.69948 -9.38579e-20)
(-0.0692698 1.71199 8.00065e-22)
(-0.0160025 1.81869 5.31643e-21)
(0.114535 1.85456 2.00254e-20)
(0.0641097 1.59489 -4.4197e-20)
(-0.0529845 1.73592 5.8323e-20)
(0.99199 0.0461204 -9.46654e-19)
(0.987798 -0.0377457 9.04245e-19)
(0.98336 0.0487133 0)
(0.987554 -0.0610941 1.27076e-18)
(0.912487 0.122887 -1.41166e-18)
(0.928256 0.0742668 1.54408e-18)
(0.975417 -0.0406487 -1.58899e-19)
(1.06724 -0.0620145 0)
(1.01832 -0.0222625 8.69592e-19)
(1.01413 -0.0581085 -8.65967e-19)
(0.954265 0.0293369 -4.89697e-20)
(0.983613 0.0750705 4.10303e-19)
(0.979914 0.0935332 0)
(0.967117 0.0449079 -1.52266e-19)
(0.999596 0.0529588 0)
(0.972049 0.0600585 0)
(1.00672 0.0850251 0)
(0.983796 0.0145159 0)
(1.0439 0.0756594 3.09211e-19)
(1.01708 0.0437315 -7.15802e-19)
(0.942194 -0.0172984 -3.19852e-19)
(0.983788 0.00888977 -3.59833e-19)
(1.07867 0.086974 6.87078e-19)
(1.02289 0.0741968 0)
(0.946257 0.0291006 0)
(0.0244834 1.82914 6.95055e-20)
(0.134933 1.71726 -1.2027e-21)
(0.0216675 1.75981 0)
(0.0455481 1.81515 -7.1651e-20)
(-0.102657 1.78032 4.11031e-21)
(0.0117421 1.72412 -1.33327e-20)
(-0.0497942 1.77919 1.19598e-19)
(0.0895522 1.77163 -4.09422e-21)
(0.144886 1.67953 3.64632e-20)
(-0.0622822 1.77488 -4.88265e-20)
(-0.0682877 1.78114 5.8334e-20)
(0.0539155 1.73502 -1.08853e-20)
(-0.033514 1.71869 6.44309e-20)
(0.479339 1.78927 -1.85277e-20)
(0.4245 1.73198 1.47776e-19)
(0.753041 1.7872 -6.02372e-20)
(0.60123 1.92257 -1.07081e-19)
(0.648363 1.90752 0)
(0.248256 1.45942 1.32735e-19)
(0.298703 1.43316 1.78822e-19)
(0.222242 1.49792 2.97538e-20)
(0.3434 1.51698 -4.18833e-19)
(0.349121 1.48217 4.15424e-19)
(0.302493 1.52472 0)
(0.194823 1.48162 -2.82663e-19)
(0.0725809 1.60878 6.04327e-19)
(0.178781 1.65491 -3.11561e-21)
(0.0564888 1.59472 -7.58273e-19)
(0.590405 1.43485 7.57676e-19)
(0.463217 1.45293 0)
(1.01154 0.0822519 2.84409e-20)
(1.0377 -0.0642438 -2.43823e-20)
(0.953053 -0.111482 -4.61711e-19)
(0.980549 -0.0103557 4.64478e-19)
(0.987618 0.0687837 0)
(0.798883 1.62314 0)
(0.749697 1.59579 0)
(0.902186 1.31532 0)
(0.630602 1.4158 0)
(0.886007 1.54432 -4.00132e-21)
(0.858568 1.52687 0)
(0.637783 1.51902 4.92355e-21)
(0.479599 1.51785 0)
(0.558617 1.50674 -5.09735e-19)
(0.561959 1.49915 3.24172e-19)
(0.857798 0.111026 0)
(0.818891 0.121253 1.58598e-19)
(0.897823 0.0620486 9.55402e-19)
(0.852853 0.09689 -3.41518e-19)
(0.833493 0.1155 -1.13649e-18)
(1.05495 0.137722 -1.04701e-18)
(0.82094 0.316699 -3.13894e-20)
(0.854167 0.239743 8.69802e-19)
(0.94291 0.10209 8.09157e-19)
(0.872362 0.162588 -1.26554e-18)
(0.890971 0.240154 1.56466e-19)
(0.747332 0.307524 -3.69295e-19)
(0.885386 0.273081 0)
(0.951728 0.143201 6.10746e-19)
(0.943492 0.210035 0)
(1.00149 0.19189 0)
(0.997696 0.181084 3.49184e-19)
(0.950476 0.264505 -2.44429e-21)
(0.907891 0.132111 -2.06126e-19)
(0.948316 0.125618 0)
(0.983725 0.0661715 6.89743e-19)
(0.998044 -0.0410865 8.59087e-19)
(1.0548 0.0678406 -6.55064e-19)
(0.995445 0.0954733 -5.78576e-19)
(0.917242 0.0178093 -9.11075e-19)
(0.914153 0.165985 0)
(0.961996 -0.00936049 0)
(0.920277 0.0933414 -5.49835e-19)
(0.911602 0.00899103 2.03559e-19)
(1.01165 0.103738 7.74358e-19)
(1.05165 0.109841 -9.78003e-19)
(0.968179 0.126577 8.64106e-19)
(0.92725 0.189246 0)
(0.979648 0.106447 0)
(0.956864 0.0911201 -3.76701e-19)
(0.971389 0.0997619 -6.32168e-19)
(0.661103 1.54668 2.21184e-19)
(0.589708 1.56388 -2.65713e-19)
(0.783445 1.62165 -3.2837e-19)
(0.758877 1.89709 6.8999e-20)
(0.965043 1.63391 -8.29074e-19)
(1.06636 1.80168 1.72246e-19)
(1.10699 1.66493 -2.85583e-20)
(0.877661 1.7634 -3.1994e-19)
(0.822405 1.70443 4.9588e-19)
(0.880846 2.13378 4.00114e-20)
(0.983244 1.98961 -3.94564e-20)
(1.01987 1.99859 0)
(0.346772 1.29736 -6.01841e-20)
(-0.762296 1.85983 -1.4805e-19)
(0.0497922 0.249402 1.22776e-19)
(-0.339962 0.741887 -2.6735e-19)
(0.409588 0.362673 3.98191e-19)
(0.350771 0.336084 -7.16967e-19)
(0.330169 0.313992 5.38493e-19)
(0.370962 0.289541 -9.30316e-20)
(0.405027 0.254808 3.2402e-19)
(0.776648 0.273364 -3.27246e-19)
(0.650873 0.32995 0)
(0.670604 0.262813 9.194e-21)
(0.549691 0.477906 2.97101e-19)
(0.435206 0.538916 -1.0755e-18)
(0.398188 0.39724 -3.74644e-20)
(0.438843 0.399717 0)
(0.450286 0.987038 4.35531e-19)
(0.707475 0.933529 5.05614e-19)
(0.644545 1.01935 -5.86333e-19)
(0.669807 0.952354 -2.16814e-19)
(0.893988 0.917645 -7.00215e-20)
(0.884263 0.990991 7.23292e-20)
(0.749249 0.676064 -7.73124e-19)
(0.75662 0.893879 2.03893e-19)
(0.947373 0.824553 0)
(0.864555 0.783813 -2.84357e-19)
(0.885424 0.402768 2.30869e-19)
(1.022 0.349443 3.95047e-19)
(1.12644 0.280496 4.08398e-19)
(0.881068 0.433923 -4.77925e-19)
(1.03948 0.350459 0)
(0.967232 0.382517 0)
(0.775743 0.385713 2.49625e-20)
(0.758845 0.301919 0)
(0.703736 0.345519 3.948e-19)
(0.944175 0.241111 -2.49506e-20)
(0.874607 0.498505 2.09511e-18)
(0.710181 0.524086 5.92244e-19)
(0.755042 0.54282 -5.51258e-19)
(0.716407 0.404084 5.90711e-19)
(0.649197 0.49024 3.46439e-19)
(0.619377 0.412036 -3.34784e-19)
(0.980654 0.115725 7.44624e-19)
(0.975548 -0.109084 0)
(1.00179 0.0168521 4.96161e-19)
(0.930335 0.127259 -1.11081e-18)
(1.02461 -0.0463346 5.38016e-19)
(0.980594 0.0683096 -1.12174e-18)
(1.02554 -0.00871455 0)
(0.976765 -0.0596148 -2.37688e-19)
(0.9969 0.085965 6.11054e-19)
(0.951185 0.0118978 -3.19805e-19)
(0.958995 -0.0958434 2.27387e-19)
(-0.0431664 1.80355 0)
(0.178329 1.74035 0)
(0.0649944 1.78899 0)
(-0.0104412 1.83318 0)
(0.0884507 1.7682 8.98068e-20)
(0.107892 1.76047 -5.60233e-20)
(0.0800404 1.74427 -3.11155e-20)
(0.175818 1.71813 -2.74887e-20)
(0.0119955 1.72946 -1.23646e-19)
(0.0432817 1.75529 8.93741e-20)
(0.0256665 1.8211 -1.40849e-20)
(0.0519221 1.78387 -2.68014e-20)
(0.010941 1.72187 -1.49225e-20)
(0.0823428 1.78333 -1.55613e-20)
(0.0560259 1.67644 -1.25931e-19)
(0.134232 1.70517 0)
(0.148031 1.71578 8.20254e-20)
(0.0178283 1.80788 4.26599e-20)
(0.144487 1.6555 -8.33533e-20)
(0.152984 1.59873 0)
(0.146745 1.5872 -4.12019e-19)
(0.161274 1.61745 3.00447e-19)
(0.17464 1.65988 -2.12096e-19)
(0.169195 1.69813 1.527e-19)
(0.00201918 1.54576 0)
(0.0398707 1.69304 -5.77208e-20)
(0.0177136 1.65761 -2.09063e-19)
(-0.0505998 1.62655 0)
(0.0719385 1.79057 1.03144e-20)
(0.0472233 1.76255 3.35357e-20)
(-0.00939687 1.82382 3.38115e-21)
(0.0268393 1.73213 -9.43045e-20)
(-0.000331918 1.73373 1.84682e-20)
(-0.0629436 1.7185 4.51356e-20)
(0.0338989 1.7962 0)
(-0.00779386 1.86487 0)
(0.0439914 1.75073 3.87612e-20)
(0.0426232 1.72476 -1.71036e-20)
(-0.010107 1.85171 0)
(-0.070651 1.78867 8.44121e-21)
(0.0383628 1.74668 -3.10802e-20)
(0.959189 0.188341 0)
(1.06838 0.17919 -8.06722e-20)
(1.00579 0.0488412 -5.17707e-19)
(0.92173 -0.018607 0)
(0.98482 -0.0814529 0)
(1.09935 -0.118085 -3.42211e-20)
(0.970704 -0.129292 9.5361e-19)
(0.993027 -0.00651025 1.09559e-18)
(0.981288 0.00493152 0)
(0.999838 -0.00685038 0)
(0.967386 -0.0324151 5.77192e-19)
(0.986698 0.0426493 0)
(0.972946 0.0713579 0)
(-0.116903 1.83454 0)
(-0.0164271 1.67808 2.51614e-20)
(-0.0399157 1.69873 9.40019e-21)
(0.0184932 1.75618 0)
(0.117628 1.73358 4.37143e-20)
(0.0994519 1.75745 1.20291e-21)
(0.0261275 1.76732 0)
(0.431518 1.65274 0)
(0.340533 1.62619 -2.97665e-19)
(0.362691 1.60002 0)
(0.441611 1.7742 2.87503e-19)
(0.516406 1.78284 0)
(0.510321 1.78427 -9.89947e-20)
(0.602778 1.51342 -1.65909e-20)
(0.566675 1.43732 -8.84578e-19)
(0.596324 1.42603 1.12857e-18)
(0.477741 1.42738 2.12309e-19)
(0.512079 1.47512 0)
(0.57506 1.50393 0)
(0.618934 1.44632 0)
(0.55938 1.41643 -7.62998e-19)
(0.35619 1.48804 -4.652e-19)
(0.379744 1.47513 -1.03752e-19)
(0.444991 1.46225 8.72034e-20)
(0.378036 1.45934 0)
(0.454279 1.46723 0)
(0.431406 1.45118 -2.06452e-19)
(0.401727 1.46034 0)
(0.449631 1.51547 0)
(0.470359 1.41236 -5.90372e-19)
(0.462588 1.28544 -4.40382e-20)
(0.709415 1.55204 0)
(0.614817 1.59722 9.30877e-19)
(0.689239 1.28475 -1.6717e-19)
(0.885719 1.20268 0)
(0.771935 1.15332 2.86698e-19)
(0.398037 1.50141 0)
(0.465814 1.27648 0)
(0.766396 1.54407 -3.59438e-19)
(0.732191 1.56477 -2.52288e-19)
(0.690737 1.55299 4.55883e-19)
(0.707392 1.57203 -1.33736e-19)
(0.741943 1.47872 0)
(0.688572 1.49493 1.79831e-19)
(0.81777 1.51494 -2.98546e-19)
(0.769822 1.4818 -1.49981e-20)
(0.565638 1.53192 0)
(0.550402 1.60533 -1.93837e-19)
(0.644619 1.57262 0)
(0.830696 0.221356 0)
(0.827235 0.168522 0)
(0.735528 0.209003 0)
(0.80638 0.252804 -6.30047e-19)
(0.758565 0.21328 3.47179e-19)
(0.967538 -0.0236761 -4.20499e-19)
(0.91566 0.026567 0)
(0.889344 0.00854075 1.85317e-19)
(0.828767 0.106836 7.5692e-19)
(0.857676 0.0197739 -4.74134e-19)
(0.741932 2.33086 -1.53839e-19)
(0.805127 2.21971 0)
(0.733699 2.46593 -3.70337e-19)
(0.128756 2.5785 3.08746e-19)
(0.298511 2.2396 -1.56753e-19)
(0.0943556 1.59078 7.74006e-19)
(0.211261 1.60028 0)
(-0.1427 0.730342 -8.90463e-20)
(-0.0696267 0.934422 8.49791e-19)
(-0.0887596 0.27346 -8.06917e-20)
(0.195603 0.439774 1.06845e-19)
(0.429373 0.486023 3.78917e-19)
(0.567464 0.502443 0)
(0.222908 0.716186 0)
(0.198485 0.629263 0)
(0.829681 0.704796 2.03989e-19)
(0.732842 0.537011 -5.77471e-19)
(0.847477 0.624034 4.83008e-19)
(0.831615 0.492655 -4.3511e-19)
(1.07338 0.55704 0)
(1.00864 0.658734 -1.36572e-19)
(0.765387 0.322662 -8.13655e-19)
(0.731929 0.305715 -1.03219e-18)
(0.621293 0.460567 6.35419e-19)
(0.651132 0.398417 -6.09635e-19)
(0.758462 0.319814 -4.79187e-19)
(0.720066 0.320322 6.0179e-19)
(1.0729 -0.0155553 -5.5025e-19)
(1.07654 0.0153932 1.15002e-18)
(1.04841 0.0856291 6.96063e-19)
(1.03603 -0.0243651 -8.39674e-19)
(0.85004 0.0459886 0)
(0.807496 -0.0447828 -1.49977e-18)
(0.109558 1.7144 3.18015e-20)
(0.0126881 1.75132 0)
(0.0767566 1.76066 2.41722e-19)
(-0.000584454 1.75849 -2.10988e-19)
(0.027549 1.68671 5.73349e-20)
(0.0476854 1.7441 0)
(0.11681 1.84892 0)
(0.0239216 1.77323 -1.40738e-20)
(-0.00103424 1.56863 1.26184e-20)
(0.0406239 1.60259 -1.33317e-21)
(-0.128505 1.80924 -3.62623e-20)
(0.0652069 1.71538 3.59093e-20)
(0.520665 1.59336 -5.99225e-19)
(0.54724 1.61936 6.38722e-19)
(0.503566 1.68053 -1.93451e-19)
(0.611797 1.64084 2.69138e-20)
(0.665085 1.64404 0)
(0.554167 1.78344 -5.2733e-20)
(0.53864 1.7719 5.25215e-20)
(0.5494 1.72976 1.90829e-19)
(0.6032 1.71249 0)
(0.635938 1.59243 0)
(0.505647 1.46331 6.91094e-19)
(0.244373 1.50542 9.63581e-19)
(0.319926 1.49392 -6.54058e-19)
(0.214279 1.51149 -1.1388e-19)
(0.443654 1.47365 2.34142e-19)
(0.264203 1.45651 -5.59749e-19)
(0.628351 1.45673 -6.24278e-19)
(0.745327 1.46491 0)
(0.684411 1.43127 -6.76737e-19)
(0.663708 1.47112 0)
(0.673303 1.47712 0)
(0.502769 1.90373 -3.48298e-19)
(0.512856 1.98989 -2.43938e-19)
(0.388363 2.07064 3.04322e-19)
(-0.678183 1.51045 0)
(-0.435818 1.45436 -3.64161e-19)
(-0.0835975 1.56505 -5.10167e-19)
(0.190186 1.92251 0)
(-0.226143 2.33758 1.08272e-19)
(-0.547732 2.43993 0)
(0.441487 0.848737 -9.17407e-19)
(0.632918 0.885019 1.21967e-18)
(0.643199 0.747619 -1.16929e-18)
(0.307681 0.711323 -1.08737e-19)
(0.478558 0.657747 -4.22152e-19)
(0.533596 1.89949 1.7719e-19)
(0.606274 1.74835 -4.33314e-19)
(0.555324 1.90322 5.84948e-19)
(0.547238 1.78678 -3.64298e-19)
(0.577706 1.57396 -6.26327e-19)
(0.597184 1.72251 -6.74532e-20)
(0.666786 1.69261 4.74668e-19)
(0.543049 1.75374 3.40233e-20)
(0.512789 1.60664 2.8094e-19)
)
;

boundaryField
{
    wall-4
    {
        type            noSlip;
    }
    velocity-inlet-5
    {
        type            fixedValue;
        value           uniform (1 0 0);
    }
    velocity-inlet-6
    {
        type            fixedValue;
        value           uniform (0 3 0);
    }
    pressure-outlet-7
    {
        type            zeroGradient;
    }
    wall-8
    {
        type            noSlip;
    }
    frontAndBackPlanes
    {
        type            empty;
    }
}

