/*--------------------------------*- C++ -*----------------------------------*\
  =========                 |
  \\      /  F ield         | OpenFOAM: The Open Source CFD Toolbox
   \\    /   O peration     | Website:  https://openfoam.org
    \\  /    A nd           | Version:  6
     \\/     M anipulation  |
\*---------------------------------------------------------------------------*/
FoamFile
{
    version     2.0;
    format      ascii;
    class       volVectorField;
    location    "0";
    object      U;
}
// * * * * * * * * * * * * * * * * * * * * * * * * * * * * * * * * * * * * * //

dimensions      [0 1 -1 0 0 0 0];

internalField   nonuniform List<vector> 
918
(
(0.986902 -0.00537325 0)
(-0.00415696 2.96751 0)
(-0.00763426 1.72357 0)
(0.968903 0.0175446 0)
(-0.0257012 1.68776 -1.55267e-21)
(0.00139224 2.951 -1.46063e-18)
(1.12983 1.4172 4.3647e-19)
(0.563848 0.302304 -4.74245e-21)
(0.998581 -0.00467645 0)
(0.00608168 1.6649 0)
(0.0138169 1.66137 0)
(0.908674 0.0212709 0)
(0.0090607 2.93376 0)
(-0.0105807 2.79876 0)
(-0.0354022 3.20013 8.75442e-19)
(0.0194794 1.65302 -1.29377e-20)
(0.705401 0.142773 3.22477e-19)
(0.277283 1.95152 4.42354e-19)
(0.991046 0.0461777 0)
(0.00278078 1.67764 0)
(0.292345 0.360818 -3.65166e-19)
(0.979685 0.00314627 0)
(0.983466 -0.00485948 0)
(0.957439 0.0254245 0)
(0.853543 0.0133518 0)
(0.0233485 2.68836 0)
(-0.0117267 2.91491 4.97887e-19)
(-0.00759105 1.72453 0)
(-0.00418673 1.76304 0)
(-0.00548639 1.73806 0)
(0.00135286 1.78872 0)
(0.00374933 1.70891 1.21682e-21)
(-0.00800697 1.64445 0)
(-0.0197863 2.98965 -5.14923e-23)
(-0.013733 3.00796 1.14977e-18)
(0.00163845 2.99965 0)
(0.956591 0.0116089 0)
(0.258091 0.367849 -1.3896e-19)
(1.00936 1.50616 -5.03468e-19)
(1.14758 1.21392 5.36612e-19)
(0.898961 1.69836 -1.01195e-19)
(0.982975 1.66105 6.11992e-19)
(0.605688 0.345244 4.62555e-21)
(0.580511 0.286012 0)
(1.2496 0.577485 0)
(0.592742 0.353247 2.16686e-20)
(0.540421 0.320265 -2.24919e-20)
(0.94114 0.00816218 0)
(0.998327 -0.00193467 0)
(0.99998 0.00149109 0)
(0.972172 -0.0150219 0)
(0.997376 -0.00311427 0)
(1.00108 0.000657687 0)
(0.0350732 1.62652 -3.18089e-19)
(0.00715572 1.75195 0)
(0.0747113 1.70747 0)
(-0.0140879 1.74387 0)
(0.00606032 1.66287 0)
(0.0105382 1.65169 0)
(0.0097072 1.71862 0)
(0.0043479 1.66821 0)
(0.00588957 1.71838 0)
(0.0195645 1.65531 0)
(0.972936 -0.00230907 0)
(0.950533 0.0117859 0)
(0.913386 0.00583224 0)
(0.930051 0.0263984 0)
(0.89616 0.0113533 0)
(0.0139684 3.00342 5.28828e-19)
(0.0119196 3.00499 0)
(0.00743735 3.00377 0)
(0.0108807 2.99771 5.95638e-24)
(0.0064393 2.96168 -7.95744e-19)
(0.0117915 2.9832 0)
(0.00908059 2.90917 0)
(0.0141573 2.9255 1.13937e-24)
(0.0109697 2.82117 0)
(0.00365777 2.91537 0)
(-0.0396895 2.77921 0)
(0.244716 3.5345 0)
(-0.115794 3.63593 0)
(0.135637 3.29433 -8.08868e-19)
(0.00119147 3.02053 0)
(0.00505391 1.75103 0)
(0.0106143 1.71428 1.27622e-20)
(0.0237645 1.65513 -1.83926e-20)
(0.729033 0.174887 -1.11557e-19)
(0.702077 0.116676 -1.11757e-19)
(0.734189 0.207952 -3.36074e-19)
(0.669677 0.186375 -2.24962e-19)
(0.195492 1.34518 0)
(0.361261 2.01946 -4.49063e-19)
(0.489585 1.99614 7.59701e-19)
(0.984394 0.0421515 0)
(0.94198 0.0434724 0)
(0.999765 -0.00320105 0)
(0.988384 0.0103418 0)
(1.02601 0.0427181 -5.90485e-19)
(0.987914 0.0135153 4.61753e-19)
(-0.00486698 1.72502 0)
(-0.0132596 1.67324 0)
(0.00614618 1.74554 0)
(0.0050147 1.73146 0)
(0.0280363 1.67291 0)
(0.341125 0.407947 1.05461e-19)
(0.442778 0.344218 0)
(1.00782 0.00656597 0)
(0.988095 0.00660719 0)
(0.919234 -0.00381794 0)
(0.909192 0.00853113 0)
(0.907522 -0.00300214 0)
(1.0966 -0.00111114 0)
(0.854828 0.0758193 0)
(0.759863 0.0589377 4.32569e-19)
(-0.0549713 2.86125 2.73686e-19)
(0.0107226 2.92549 0)
(0.041449 2.91118 0)
(-0.0305793 2.75492 0)
(-0.00799339 2.98436 4.69754e-19)
(-0.00262215 2.90103 0)
(-0.0121387 2.99089 -1.46164e-18)
(-0.00902048 2.93287 5.02547e-19)
(-0.000567402 1.7736 0)
(-0.000171985 1.76436 0)
(0.00138995 1.71699 -4.93948e-23)
(-0.00856773 1.70173 0)
(-0.0138727 1.64586 0)
(0.988957 0.0109795 0)
(0.959169 0.00551324 0)
(0.936621 -0.0139422 0)
(0.978606 0.0158648 0)
(0.94577 -0.00154536 0)
(0.446311 0.757185 1.62656e-19)
(0.220588 0.700474 0)
(0.546275 0.703184 -1.15774e-20)
(0.383279 0.346 0)
(1.08156 1.27725 -1.51015e-19)
(1.20759 0.970918 3.1898e-19)
(0.576029 2.0011 0)
(0.728459 1.88671 0)
(0.794668 1.88003 0)
(0.575859 1.05418 -2.288e-19)
(0.658305 0.31254 0)
(0.640617 0.230483 6.20653e-20)
(1.14002 1.06047 0)
(1.19522 0.854213 0)
(1.23259 0.779208 -2.88071e-19)
(1.21776 0.648702 0)
(1.27904 0.415197 3.65065e-20)
(0.979177 -0.0130655 0)
(0.979687 0.00606095 0)
(0.948033 -0.0119148 0)
(0.985487 0.00869525 0)
(0.970574 0.00548193 0)
(0.948243 0.00324843 0)
(0.99486 0.00136531 0)
(0.997996 0.00367319 0)
(0.999091 0.00334519 0)
(0.0280589 1.64503 1.72899e-19)
(0.0634303 1.56323 0)
(-0.001833 1.68185 2.81527e-19)
(-0.0238643 1.61959 -2.42807e-19)
(0.202445 1.91514 -3.69137e-19)
(0.064965 1.77553 0)
(0.135823 1.7781 0)
(0.0160445 1.73385 0)
(0.00817584 1.65692 0)
(-0.00474242 1.69469 -7.72291e-22)
(-0.00487989 1.6532 0)
(0.00267855 1.71312 -3.35481e-20)
(-0.0179003 1.66149 6.85154e-20)
(-0.0163197 1.72462 0)
(-0.0172074 1.72789 0)
(-0.0260451 1.6586 0)
(0.00904304 1.7128 0)
(0.00245703 1.67142 0)
(1.01208 -0.00821664 0)
(0.973908 0.010283 0)
(1.00725 0.0162235 0)
(0.960103 0.0250722 0)
(0.932489 0.00317152 0)
(0.971183 -7.93654e-06 0)
(0.971316 0.00899029 0)
(0.941062 -0.0149303 0)
(0.00639554 3.06004 -4.61635e-21)
(0.0126504 3.05677 0)
(0.0121882 2.97194 0)
(0.0081379 2.88126 0)
(0.733602 3.8475 0)
(0.983471 3.14632 6.87297e-19)
(0.0909787 3.11419 0)
(-0.0188488 2.90231 0)
(-0.00776637 1.75361 0)
(0.00177759 1.75298 0)
(0.000514008 1.75002 0)
(0.00941951 1.78337 2.54545e-22)
(0.00589943 1.7539 0)
(0.00841412 1.76832 0)
(-0.0104987 1.67447 -2.20747e-21)
(-0.0252659 1.71637 2.71113e-20)
(0.00783231 1.72477 1.87367e-20)
(-0.0106642 1.66292 0)
(0.763137 0.131574 1.68373e-19)
(0.726884 0.0559918 -1.61999e-19)
(0.195351 1.42797 0)
(0.300414 1.30926 -1.44961e-19)
(0.125254 1.42578 -4.26284e-19)
(0.153898 1.37774 4.25867e-19)
(0.930111 0.000350169 0)
(0.97227 -0.000269835 0)
(0.972075 0.0141686 0)
(0.933006 0.00606012 0)
(0.00897062 1.72216 0)
(-0.0057445 1.7139 0)
(0.00319717 1.66171 0)
(0.546921 0.386376 1.97272e-19)
(0.48427 0.402513 -2.58362e-19)
(0.50279 0.325377 0)
(1.20052 0.0814278 -3.29705e-21)
(1.19196 0.0497115 0)
(1.12218 0.0438781 0)
(1.03888 0.0146191 0)
(0.781601 0.0855419 0)
(0.791651 0.0700479 -6.9197e-19)
(0.754146 0.0148562 2.63198e-19)
(-0.00527614 2.97752 3.58568e-19)
(-0.0511788 2.86307 3.94762e-20)
(0.00485049 3.05002 -9.87158e-21)
(0.0163057 3.03794 3.59475e-19)
(-0.00972978 2.99985 1.66504e-20)
(-0.00732876 2.95377 -6.75553e-23)
(-0.0155624 3.01232 -3.13717e-19)
(0.0134471 3.02185 2.28769e-19)
(0.00680784 3.03421 -3.62905e-19)
(1.00169 0.0178246 0)
(1.00381 0.00554353 0)
(0.963154 0.0137772 0)
(0.976092 -0.0123665 0)
(0.98419 -0.00645626 0)
(0.944402 -0.0240345 0)
(0.972071 0.0129528 0)
(0.972075 -0.00274876 0)
(0.935825 0.00568504 0)
(0.419325 1.00351 3.0245e-19)
(0.420809 1.10969 0)
(0.555851 0.740319 5.75131e-20)
(0.612075 0.910409 3.74442e-19)
(0.616789 0.770723 -1.4892e-19)
(0.464946 0.50676 2.50946e-19)
(0.517059 1.26561 1.12105e-18)
(0.510438 1.15679 2.311e-19)
(0.6943 0.254519 2.43611e-19)
(0.675079 0.269721 5.73067e-20)
(0.647457 0.219325 1.20603e-19)
(1.26862 0.468922 2.00514e-19)
(1.29415 0.227391 2.12969e-19)
(-0.0256365 1.66441 1.1454e-19)
(-0.00412756 1.61747 0)
(1.06348 0.0258316 0)
(1.03417 0.0202334 0)
(1.01334 -0.00020467 0)
(0.0106161 3.07392 0)
(0.0225886 2.9474 6.37347e-19)
(0.0145377 2.96113 0)
(0.010168 2.85761 -6.31424e-19)
(0.0190816 3.08729 1.52039e-19)
(0.00917667 3.0794 0)
(0.408834 1.42149 -1.46206e-19)
(0.995897 2.32005 4.35827e-19)
(0.381741 1.64486 -9.69682e-19)
(0.00911225 2.98335 -2.52575e-19)
(0.0454098 3.017 0)
(-0.0375398 2.87277 0)
(-0.00657397 1.70005 -5.67722e-21)
(0.00782852 1.72545 -4.76805e-20)
(0.0163599 1.67103 -6.58011e-21)
(0.2611 1.37154 4.59494e-19)
(0.34856 1.28091 -3.19454e-19)
(0.0526999 1.5719 2.8408e-19)
(0.0827949 1.48834 -3.42354e-19)
(0.0872274 1.44414 3.28435e-20)
(0.0167494 3.10125 -8.72462e-19)
(0.0200155 3.1084 9.89092e-19)
(-0.0041495 2.98859 4.15633e-19)
(-0.0197607 2.98002 -3.91996e-19)
(-0.0345252 2.89346 -4.23366e-19)
(0.00914721 3.09171 -1.13341e-18)
(0.0125833 3.09653 1.16906e-18)
(0.548526 1.15688 0)
(0.588036 1.056 -1.00951e-18)
(0.582744 0.945546 4.56184e-19)
(0.415247 1.2936 6.2798e-19)
(0.448803 1.17942 -9.79434e-19)
(1.27581 0.164126 -3.96486e-20)
(1.27385 0.284428 0)
(1.27861 0.113499 8.10079e-20)
(0.00479871 1.70205 -9.22228e-22)
(0.00675628 1.67872 0)
(0.0231747 1.63635 0)
(0.32295 1.32778 -1.64563e-19)
(0.374308 1.31855 -3.9555e-19)
(0.410442 1.21687 7.20779e-19)
(1.00821 -0.0458792 0)
(0.996536 -0.0377691 1.16202e-19)
(0.00191508 1.77193 0)
(-0.00143293 1.77741 0)
(0.984922 -0.00770644 5.70173e-22)
(1.00419 -0.011272 2.20055e-19)
(-0.00168449 1.77595 -3.36104e-22)
(-0.00315959 1.77732 0)
(0.0730821 3.20095 8.69775e-20)
(0.38171 3.65016 0)
(1.09524 0.654991 2.47369e-20)
(1.01238 -0.00731849 -2.05511e-21)
(1.00749 0.00937672 0)
(1.00313 -0.0106588 -3.26248e-21)
(0.0306367 1.84471 0)
(0.0872799 1.69386 0)
(0.0133508 1.79074 0)
(0.00394898 1.76042 5.19869e-20)
(0.0195763 1.7484 2.65112e-20)
(0.99812 0.00424531 -3.99801e-22)
(1.04345 -0.00739484 0)
(1.05813 0.0317614 0)
(-0.00915565 1.7557 0)
(-0.0119295 1.79015 0)
(-0.0134991 1.78595 0)
(0.223925 1.95187 -1.6635e-19)
(0.996072 -0.0459229 0)
(0.983103 -0.0430249 0)
(1.00978 -0.000628712 1.49855e-19)
(1.00045 -0.00716613 -1.71366e-19)
(0.998821 0.00282998 0)
(-0.0111933 1.74599 0)
(0.00582725 1.75834 0)
(-0.00735045 1.7553 0)
(-0.00570032 1.79009 0)
(0.000510436 1.77614 0)
(-0.00478537 1.78466 0)
(1.02142 0.00337237 0)
(1.01691 0.00201847 -6.22425e-22)
(0.693108 1.55261 2.53792e-19)
(1.01786 -0.00678787 -1.47452e-19)
(1.00283 0.0113883 1.81178e-19)
(0.997913 0.00782971 0)
(1.01366 0.0016094 1.41808e-19)
(0.979933 -0.00887362 -1.79574e-19)
(0.980032 -0.00636495 0)
(-0.0141114 1.79261 0)
(-0.0145297 1.7835 4.89747e-21)
(-0.0127813 1.78884 -2.0904e-21)
(1.16962 0.248925 -3.00463e-20)
(1.10134 0.0617172 0)
(0.0895302 3.03565 -4.69427e-19)
(0.0763348 2.88985 -3.72412e-20)
(0.230029 3.20192 7.09984e-19)
(0.182799 3.26176 3.32721e-21)
(0.20449 3.31236 0)
(0.0274597 3.12136 1.01606e-19)
(0.113403 3.15131 4.53931e-19)
(0.10464 3.20192 -1.95648e-19)
(0.024254 3.09901 0)
(0.709434 0.348776 0)
(0.651266 0.403418 0)
(0.982909 0.699428 -9.08919e-20)
(1.0539 0.846414 1.33694e-19)
(1.154 0.555521 0)
(1.17229 0.538476 0)
(1.0243 -0.00805192 -2.7156e-19)
(1.02757 -0.00409489 3.32508e-19)
(1.02645 0.0112386 0)
(1.02638 0.0105643 0)
(1.0119 0.00556239 0)
(1.01424 0.00630698 0)
(1.03513 -0.0198146 0)
(1.02922 0.0124226 0)
(1.02865 0.0247533 0)
(1.03598 0.0200421 0)
(0.0291054 1.8485 0)
(0.01926 1.85367 0)
(0.0373219 1.86347 0)
(0.033645 1.87854 0)
(0.104876 1.68503 0)
(0.116018 1.66227 -1.87909e-19)
(0.0564261 1.72547 0)
(0.0132892 1.70541 9.546e-20)
(0.0437171 1.76488 -9.17751e-20)
(0.00967791 1.79296 0)
(-0.00771678 1.78659 0)
(0.0102245 1.7914 0)
(0.0037873 1.81095 0)
(-0.00601773 1.75735 -3.05195e-20)
(0.014273 1.76177 3.74849e-20)
(0.00639864 1.77015 4.47261e-20)
(0.0174325 1.76773 0)
(0.0194253 1.77228 -5.12487e-20)
(0.0149243 1.77093 -3.53391e-20)
(-0.00300779 1.7503 2.40483e-20)
(0.0118425 1.75896 -4.85678e-20)
(0.00531082 1.76231 -5.42169e-20)
(1.00381 0.0186365 2.55054e-19)
(1.00256 0.0162421 -3.17043e-19)
(0.99877 -0.00326997 -2.62426e-19)
(0.977264 0.00102548 3.35767e-19)
(1.03942 0.00204022 0)
(1.04265 -0.0192194 0)
(1.04781 0.0243426 0)
(1.05922 0.00862198 0)
(1.07216 0.0207189 0)
(1.06494 0.0577556 0)
(1.07676 0.0318846 0)
(1.08181 0.0394526 0)
(-0.00848017 1.77708 -9.65444e-22)
(-0.0170622 1.76404 0)
(-0.0060281 1.76417 0)
(0.00219666 1.79279 5.75132e-21)
(-0.00534097 1.79787 -4.7177e-22)
(0.00488637 1.71464 1.61941e-20)
(-0.000647529 1.73016 -1.64143e-20)
(0.00257964 1.76747 0)
(0.0072484 1.75972 0)
(0.00371252 1.75742 0)
(-0.011979 1.78348 0)
(-0.00530407 1.78291 0)
(0.364952 1.93637 2.76075e-19)
(0.357669 1.94816 1.33031e-19)
(0.291152 1.54408 -1.13779e-19)
(0.10465 1.55075 2.95874e-19)
(0.27464 1.6349 7.23982e-20)
(1.00139 0.00940326 0)
(0.981242 -0.0301952 0)
(0.982653 -0.0153289 0)
(1.04038 -0.0112107 0)
(1.0143 -0.0183646 0)
(1.00002 -0.0233685 0)
(0.977057 0.0158445 0)
(1.01289 0.0441574 0)
(1.00829 0.0100199 2.53739e-19)
(1.0163 0.0196578 -3.2559e-19)
(1.0162 -0.0133604 -2.56493e-19)
(1.019 -0.0119799 3.17123e-19)
(0.687424 1.6252 0)
(0.596164 1.74869 2.09989e-19)
(0.792747 1.37175 9.71988e-20)
(0.831778 1.30923 -1.28192e-19)
(0.816114 2.01818 -4.17219e-19)
(0.852588 0.114563 1.62899e-19)
(1.11913 0.0793159 0)
(1.08857 0.167168 1.44725e-20)
(1.15939 0.141416 2.40335e-21)
(0.961879 0.120245 0)
(0.244995 2.97972 -1.21793e-19)
(0.202972 2.8726 -6.31019e-19)
(0.0593808 2.31794 4.55196e-19)
(0.222388 0.220509 -1.6804e-19)
(0.310394 3.55188 -4.38123e-19)
(0.218997 3.41127 0)
(0.249688 3.53032 5.70382e-19)
(0.320375 3.18187 -2.67449e-20)
(0.448459 3.3719 0)
(0.00991142 3.10424 2.36253e-20)
(0.0241955 3.12078 -2.83207e-19)
(0.0173415 3.11554 4.15966e-19)
(0.0448927 3.12715 0)
(0.045885 3.14139 0)
(0.818834 2.27688 0)
(0.322968 0.508845 5.27672e-20)
(0.952737 1.11513 -6.65575e-20)
(0.920034 1.12938 0)
(0.69459 1.02958 5.19835e-21)
(0.978423 0.861559 1.10996e-20)
(0.522839 0.572567 -3.10007e-19)
(0.712037 0.337057 -1.29181e-20)
(0.710136 0.312945 1.1553e-19)
(0.636713 0.428517 8.95414e-21)
(0.613162 0.43233 -3.78795e-19)
(0.708689 0.357054 0)
(0.706129 0.406767 1.7253e-19)
(0.709473 0.4012 0)
(0.672859 0.377986 0)
(0.679845 0.368968 0)
(0.725438 0.598801 5.82207e-20)
(1.20341 0.289649 5.81631e-20)
(1.1469 0.421073 0)
(1.18086 0.415012 0)
(0.791821 0.233184 1.91397e-19)
(0.755043 0.46475 -9.3338e-20)
(0.733439 0.432529 1.47957e-19)
(0.866058 0.420406 -1.55238e-19)
(1.01537 0.0181963 1.77197e-19)
(1.02742 -0.00646489 -1.7461e-19)
(1.02334 0.00483621 0)
(1.01868 -0.00156266 0)
(1.02758 -0.0069602 -1.69668e-19)
(1.02319 -0.0162132 1.69445e-19)
(1.01108 -0.010942 0)
(0.99851 -0.00236297 0)
(1.01879 -0.00138612 0)
(1.02504 -0.0107756 0)
(1.0152 0.000730918 0)
(1.01527 0.0103906 0)
(0.0172346 1.84861 0)
(0.018055 1.84255 0)
(0.102748 1.84043 1.4608e-20)
(0.231451 1.94313 8.88556e-20)
(0.0901223 1.92314 1.95063e-19)
(0.127985 1.97154 -3.17905e-19)
(0.180642 1.87893 0)
(0.165848 1.73887 -6.65818e-20)
(0.129385 1.78366 0)
(0.277138 1.65705 -1.03974e-19)
(0.190407 1.61144 3.46226e-19)
(0.213018 1.77259 5.76705e-20)
(0.245274 1.85876 2.99302e-20)
(0.220069 1.86083 -2.40413e-20)
(0.288374 1.80377 -3.48454e-20)
(0.246715 1.75206 0)
(0.24616 1.7554 3.53585e-20)
(0.0524864 1.76909 -2.92426e-20)
(0.0368417 1.74881 0)
(0.037216 1.72197 1.17778e-19)
(0.0518089 1.74414 0)
(0.00544879 1.70968 -1.05086e-19)
(0.00255463 1.72148 0)
(-0.000502709 1.76615 -1.84561e-20)
(-0.00394225 1.76524 0)
(0.011983 1.76129 0)
(0.0131238 1.75973 2.0899e-20)
(0.0033273 1.76215 -1.14887e-21)
(0.0278083 1.77328 1.08912e-19)
(0.00994836 1.7696 7.53586e-22)
(-0.00850423 1.75092 1.64263e-20)
(-0.0107223 1.74869 1.31271e-20)
(-0.00956106 1.78555 0)
(-0.0131064 1.77598 0)
(0.00460337 1.75755 5.85839e-20)
(0.0225722 1.75447 4.63247e-20)
(0.0100608 1.75023 -6.40749e-20)
(0.0169162 1.75598 0)
(0.0223742 1.7659 -2.5704e-20)
(0.0177429 1.75768 1.24703e-20)
(0.00795394 1.74969 -4.01682e-21)
(-0.00728025 1.74911 -1.99339e-20)
(0.00678415 1.75557 -9.53364e-21)
(0.0189526 1.76729 2.72418e-20)
(1.01901 -0.00574512 -1.68085e-19)
(1.00407 0.0198016 1.67361e-19)
(1.01236 0.0029634 0)
(0.969755 0.059036 2.3599e-19)
(0.969257 0.0194196 -2.76037e-19)
(0.92963 0.0288489 3.20991e-19)
(0.971712 0.0478463 -3.00398e-20)
(1.04202 0.00771617 0)
(1.04081 -0.0177316 1.42706e-19)
(1.04169 -0.00751705 -1.42454e-19)
(0.999036 0.0333242 -8.20217e-21)
(1.016 0.0209147 7.49501e-20)
(0.974516 0.0393703 0)
(0.970537 0.0280789 -2.66366e-20)
(1.02041 0.0394765 0)
(1.00017 0.0324932 0)
(1.01419 0.00297994 0)
(1.01891 -0.00146082 0)
(1.00672 0.0202701 5.82505e-20)
(1.00134 0.0130964 -1.17717e-19)
(0.935516 0.00540867 -5.93868e-20)
(0.94672 0.0153088 -6.82167e-20)
(0.99673 0.0744148 9.86083e-20)
(1.06237 0.061135 0)
(1.04029 0.0834678 0)
(0.007498 1.76743 -2.16323e-20)
(-0.0194072 1.76325 -1.05967e-21)
(-0.00441664 1.74659 0)
(-0.0142 1.78049 2.22378e-20)
(-0.015914 1.78238 1.913e-21)
(-0.0179435 1.78386 -2.19353e-21)
(0.010195 1.7702 2.89235e-20)
(-0.000823823 1.74945 -1.70483e-21)
(-0.00608105 1.75017 1.13443e-20)
(0.00940623 1.78528 -1.85801e-20)
(-0.00356066 1.76652 2.14105e-20)
(0.0134838 1.72809 2.24722e-21)
(0.017923 1.71385 2.26484e-20)
(0.364883 1.81068 -1.1607e-19)
(0.286735 1.80165 4.79463e-20)
(0.612842 1.82093 -2.02885e-19)
(0.513893 1.91167 -1.28334e-19)
(0.506504 1.8977 0)
(0.339692 1.53614 1.17783e-19)
(0.368672 1.5216 1.69377e-19)
(0.164907 1.5638 2.48669e-20)
(0.16051 1.56075 -3.93115e-19)
(0.232859 1.55994 3.13291e-19)
(0.260945 1.57229 0)
(0.194688 1.56122 -2.49746e-19)
(0.128578 1.64499 4.76046e-19)
(0.0996503 1.58132 -4.10204e-20)
(0.0823429 1.60329 -6.6275e-19)
(0.715063 1.4715 6.40346e-19)
(0.473737 1.50715 0)
(1.03468 -0.00927983 4.7439e-21)
(1.03648 0.052069 -4.06546e-21)
(1.0274 0.043216 -8.05648e-20)
(1.00555 0.0156226 8.36899e-20)
(1.01329 0.00781456 0)
(0.506904 1.59844 0)
(0.42172 1.49393 0)
(0.565344 1.20142 0)
(0.34616 1.42655 0)
(0.810182 1.95789 1.39612e-19)
(0.909135 1.74447 0)
(0.623679 1.84408 4.48429e-21)
(0.514558 1.62179 0)
(0.611831 1.63018 -4.40103e-19)
(0.631328 1.69255 2.79849e-19)
(0.870944 0.137875 0)
(0.848365 0.165026 4.68444e-20)
(0.92725 0.0845995 2.30268e-19)
(0.862076 0.0934109 -8.88625e-20)
(0.844243 0.0569837 -2.97994e-19)
(0.980453 0.19077 -1.27705e-19)
(0.925672 0.252322 -7.11009e-21)
(0.811723 0.268323 2.18217e-19)
(0.935292 0.224294 1.54094e-19)
(0.932816 0.143271 -2.89753e-19)
(0.903756 0.139037 3.7201e-20)
(0.861503 0.232173 -7.07819e-20)
(0.91032 0.19699 0)
(0.95005 0.171222 1.40083e-19)
(0.944535 0.164731 0)
(0.954625 0.21681 0)
(1.0791 0.124517 4.61788e-20)
(0.97199 0.137133 -6.57018e-21)
(0.984163 0.174533 -2.7936e-20)
(1.01889 0.201618 0)
(1.01856 0.0447085 1.19606e-19)
(1.01473 0.0404663 1.49046e-19)
(1.02061 0.0558027 -1.1654e-19)
(1.03089 0.0571957 -1.00033e-19)
(0.981873 0.068012 -1.68554e-19)
(0.952472 0.0517764 0)
(0.94885 0.0405062 0)
(0.927589 0.0779795 -1.16002e-19)
(0.90873 0.0794576 4.91416e-20)
(1.01343 0.0877575 1.30875e-19)
(0.985989 0.0917014 -1.44162e-19)
(0.989433 0.102415 1.30986e-19)
(0.988215 0.120639 0)
(0.996802 0.0857881 0)
(1.00693 0.097941 -5.35295e-20)
(1.01823 0.0981907 -1.02414e-19)
(0.171172 1.78215 1.91409e-19)
(0.239549 2.25208 -1.84525e-19)
(0.615676 2.51878 7.82013e-21)
(0.731367 3.01197 -7.04616e-20)
(0.857907 2.318 5.42845e-19)
(0.845915 2.41172 -2.66502e-19)
(0.922749 1.79515 -4.66107e-20)
(0.70622 2.79937 1.76527e-19)
(0.736681 2.67805 -1.57049e-19)
(0.767541 3.18447 -2.04313e-19)
(1.02405 2.84407 2.49435e-19)
(1.06191 2.74476 0)
(0.336376 0.566461 1.62691e-20)
(0.613178 1.25124 1.89353e-19)
(0.606138 0.584615 1.9447e-19)
(0.613954 0.407715 2.99745e-19)
(0.600767 0.447097 2.09683e-19)
(0.605133 0.455916 -2.83653e-19)
(0.589002 0.507561 2.18243e-19)
(0.56555 0.479606 -1.16364e-19)
(0.564418 0.482679 2.72723e-19)
(0.789622 0.257829 -1.08428e-19)
(0.761455 0.285308 0)
(0.771408 0.275191 6.44954e-21)
(0.694562 0.473126 8.42538e-20)
(0.671749 0.432277 -3.19259e-19)
(0.611036 0.462582 2.11726e-20)
(0.648368 0.457242 0)
(0.532195 0.609828 2.64928e-20)
(0.64866 0.792737 9.17051e-20)
(0.568015 0.734403 -1.03081e-19)
(0.679428 0.785754 -3.0239e-20)
(0.789347 0.886411 -4.85974e-22)
(0.780179 0.881443 4.98226e-22)
(0.775617 0.545297 -1.13355e-19)
(0.835554 0.610419 2.82975e-20)
(0.883117 0.710291 0)
(0.890129 0.67888 -2.34332e-20)
(0.969484 0.323716 3.41706e-20)
(1.10283 0.299025 -1.82835e-20)
(1.01382 0.234031 5.00697e-20)
(0.9316 0.367173 -7.93678e-20)
(0.945689 0.397172 0)
(0.980939 0.384714 0)
(0.856402 0.334529 5.45554e-21)
(0.789519 0.312852 0)
(0.822081 0.294063 1.12439e-19)
(0.825867 0.27269 -8.19732e-21)
(0.854624 0.420102 4.25414e-19)
(0.818273 0.471657 1.12378e-19)
(0.825332 0.447134 -1.36648e-19)
(0.770874 0.374639 1.45141e-19)
(0.732717 0.390771 9.54191e-20)
(0.712711 0.407255 -9.19622e-20)
(1.00036 0.0337596 1.35981e-19)
(1.00227 -0.0320621 0)
(0.999237 0.0127358 9.36725e-20)
(1.01038 0.0302569 -2.05926e-19)
(1.00849 -0.0104633 9.93653e-20)
(1.01115 0.0419522 -2.10688e-19)
(1.00605 0.00596702 0)
(0.998421 -0.0197219 -4.52832e-20)
(1.00164 0.0114774 1.14134e-19)
(1.00188 0.00774232 -5.84307e-20)
(0.992113 -0.00882843 4.30941e-20)
(0.00510728 1.81752 0)
(0.0145336 1.762 0)
(0.0156948 1.83828 0)
(0.0104849 1.83078 0)
(0.0403087 1.75871 4.81765e-20)
(0.0419181 1.78811 -2.16705e-20)
(0.0617118 1.78857 -1.52058e-20)
(0.0520779 1.78034 -1.84334e-20)
(0.0256976 1.76049 -3.86624e-20)
(0.0214717 1.76112 2.8422e-20)
(0.0394931 1.76107 -2.1947e-20)
(0.0214022 1.78284 -1.16926e-20)
(0.0247384 1.78646 4.98355e-24)
(0.0153764 1.77053 -3.7863e-21)
(0.0340984 1.71663 -1.25447e-19)
(0.0414374 1.71466 0)
(0.0493659 1.70792 8.26028e-20)
(0.0865263 1.77976 4.93898e-20)
(0.209867 1.70902 -5.11062e-20)
(0.15529 1.67282 0)
(0.141171 1.64081 -3.52405e-19)
(0.185609 1.65659 2.51597e-19)
(0.181171 1.72157 -1.53089e-19)
(0.102941 1.70017 8.20504e-20)
(0.109491 1.67773 0)
(0.00689445 1.75913 -6.92252e-20)
(0.00130109 1.74893 -1.01801e-19)
(0.00231561 1.75095 0)
(0.0129531 1.75519 -2.2964e-21)
(0.0383389 1.75986 3.51297e-20)
(0.00629749 1.78516 3.7217e-21)
(0.00627315 1.79037 -5.47068e-20)
(0.000108165 1.7877 1.28501e-20)
(-0.00289062 1.77275 2.18108e-20)
(0.00387727 1.76809 0)
(-0.00544381 1.78775 0)
(0.00384401 1.78738 2.07905e-20)
(-0.000737309 1.78918 -6.07667e-21)
(-0.00280885 1.78621 0)
(-0.00436395 1.77925 1.94001e-20)
(0.00346288 1.77981 -3.65686e-20)
(0.977681 0.0325084 0)
(1.01392 0.0628326 -1.2774e-20)
(1.02571 0.00225174 -8.03802e-20)
(1.02562 0.00235908 0)
(1.03951 0.0519699 0)
(0.995313 -0.0171643 -1.37119e-20)
(0.983427 -0.00619083 1.45685e-19)
(1.00638 0.00906857 1.84503e-19)
(1.01248 0.0185293 0)
(1.00664 0.0138223 0)
(1.0069 0.00905775 9.52704e-20)
(1.00405 0.014591 0)
(0.996847 0.0192866 0)
(0.0216895 1.74402 0)
(0.029828 1.73496 -1.66149e-21)
(0.0223318 1.76889 4.9371e-21)
(0.00270237 1.78474 0)
(0.0124403 1.73277 1.1425e-20)
(0.00990904 1.73954 -9.62905e-21)
(-0.00106678 1.78556 0)
(0.405159 1.6543 0)
(0.308108 1.77283 -1.24414e-19)
(0.267589 1.72876 0)
(0.437069 1.76521 7.97676e-20)
(0.474553 1.79232 0)
(0.443623 1.80568 -3.94933e-21)
(0.735418 1.57862 -1.36996e-20)
(0.762461 1.46024 -7.52299e-19)
(0.815473 1.43069 8.33445e-19)
(0.539865 1.50147 1.81874e-19)
(0.501199 1.53743 0)
(0.565629 1.54298 0)
(0.662545 1.49033 0)
(0.600508 1.49475 -6.51382e-19)
(0.385606 1.60626 -3.44872e-19)
(0.467743 1.54761 -8.88886e-20)
(0.506933 1.59081 7.24181e-20)
(0.395941 1.51553 0)
(0.449154 1.52399 0)
(0.406406 1.51966 -1.9367e-19)
(0.448865 1.56989 0)
(0.193443 1.33783 0)
(-0.137285 1.05616 1.56211e-19)
(0.187164 0.787194 1.1883e-20)
(-0.08236 1.57312 0)
(-0.130567 1.64722 -2.08477e-19)
(0.58548 0.774751 -2.11537e-20)
(0.584674 1.10336 0)
(0.658532 1.02802 7.20452e-21)
(0.446855 0.933635 0)
(0.492192 0.872826 0)
(0.808238 2.00767 -7.2416e-20)
(0.664611 2.30675 -1.5643e-19)
(0.508018 2.16474 3.0658e-19)
(0.596702 2.01565 -9.31257e-20)
(0.856567 1.83299 0)
(0.852137 1.76143 1.19655e-19)
(0.912753 1.68143 -8.99015e-20)
(0.923008 1.54841 -9.04737e-21)
(0.534292 1.77525 0)
(0.329296 1.78241 -1.69526e-19)
(0.381984 1.70891 0)
(0.884718 0.215234 0)
(0.848583 0.162992 0)
(0.810878 0.17601 0)
(0.860909 0.232273 -1.77573e-19)
(0.805093 0.21545 1.13414e-19)
(0.901643 0.0870535 -1.01385e-19)
(0.922226 0.0782364 0)
(0.927065 0.0768519 4.47364e-20)
(0.872655 0.0532473 1.86836e-19)
(0.881442 0.0766518 -1.14001e-19)
(0.822325 3.3721 -5.60927e-19)
(0.801248 3.30391 0)
(0.859851 3.38918 -1.39928e-18)
(0.474919 3.64442 1.29779e-18)
(0.595678 3.34886 6.24381e-19)
(0.313579 0.774628 -5.56095e-19)
(-0.00925215 1.27175 0)
(0.705968 0.39322 -2.22788e-21)
(0.61187 0.383197 -8.67664e-20)
(0.662148 0.541961 -6.07357e-20)
(0.659068 0.485192 2.09721e-20)
(0.634215 0.501042 1.03799e-19)
(0.669106 0.488862 0)
(0.656201 0.523335 0)
(0.638904 0.476213 0)
(0.978541 0.566737 -1.36336e-20)
(0.798849 0.462217 -1.08807e-19)
(0.772388 0.530706 6.49302e-20)
(0.869363 0.486012 -7.80719e-20)
(0.987657 0.407983 0)
(1.05793 0.52564 -7.10652e-21)
(0.772668 0.359315 -2.22998e-19)
(0.795204 0.355845 -2.55883e-19)
(0.739894 0.370937 1.75482e-19)
(0.746288 0.339 -1.90959e-19)
(0.774689 0.328066 -1.48779e-19)
(0.748433 0.329737 1.83205e-19)
(1.01903 -0.0193638 -9.88052e-20)
(1.02456 -0.0148387 1.97955e-19)
(0.994862 0.0329428 1.30171e-19)
(0.997083 0.0482696 -1.55205e-19)
(0.965996 0.0423491 0)
(0.978593 -0.0178227 -2.33646e-19)
(0.0536188 1.78654 1.71197e-20)
(0.0498529 1.75581 0)
(0.0581879 1.78054 1.44979e-19)
(0.0643362 1.78762 -1.2791e-19)
(0.050321 1.78964 2.81062e-20)
(0.0492039 1.74686 0)
(0.00850359 1.7344 0)
(0.00148755 1.77202 -6.23992e-21)
(-0.000957883 1.781 5.61278e-21)
(0.000109278 1.76835 1.07745e-21)
(0.0076976 1.73219 -1.09031e-20)
(0.00496137 1.73541 7.7451e-21)
(0.497292 1.70693 -4.23541e-19)
(0.472605 1.65949 4.44758e-19)
(0.435058 1.70867 -9.87735e-20)
(0.461569 1.68585 1.78364e-20)
(0.51725 1.66102 0)
(0.512819 1.766 8.06496e-20)
(0.513496 1.74389 -7.91439e-20)
(0.460237 1.71902 9.48366e-20)
(0.468053 1.70113 0)
(0.451284 1.70768 0)
(0.359509 1.55953 5.29913e-19)
(0.40081 1.54984 7.81705e-19)
(0.413431 1.56338 -5.36019e-19)
(0.363321 1.55622 -9.95279e-20)
(0.307384 1.5597 1.61438e-19)
(0.230065 1.55299 -4.0209e-19)
(0.834777 1.42801 -4.51029e-19)
(0.916655 1.48812 0)
(0.874885 1.43903 -4.23623e-19)
(0.79891 1.67047 0)
(0.807294 1.60159 0)
(0.350684 2.94251 5.59891e-19)
(0.591836 3.28966 4.78157e-19)
(0.562284 3.31114 -5.59631e-19)
(0.618625 1.21794 0)
(0.637915 1.07976 2.14623e-19)
(0.397338 1.15223 4.17706e-19)
(0.398876 2.80133 0)
(0.55487 3.12486 -4.49185e-19)
(0.541225 2.89096 0)
(0.58061 0.491073 -6.4536e-20)
(0.680054 0.62483 1.45717e-19)
(0.66711 0.642163 -1.50462e-19)
(0.647751 0.482484 -1.03406e-20)
(0.680911 0.531453 -5.56139e-20)
(0.475684 3.1102 -3.84456e-19)
(0.484805 2.94062 2.92007e-19)
(0.303927 2.83558 -6.29848e-19)
(0.179997 2.67921 3.58794e-19)
(0.106334 2.42883 -9.37756e-20)
(0.361176 2.79509 -1.38241e-19)
(0.344875 2.54875 -3.557e-20)
(0.129668 2.60829 -1.17269e-20)
(0.0743001 2.51255 9.41948e-20)
)
;

boundaryField
{
    wall-4
    {
        type            noSlip;
    }
    velocity-inlet-5
    {
        type            fixedValue;
        value           uniform (1 0 0);
    }
    velocity-inlet-6
    {
        type            fixedValue;
        value           uniform (0 3 0);
    }
    pressure-outlet-7
    {
        type            zeroGradient;
    }
    wall-8
    {
        type            noSlip;
    }
    frontAndBackPlanes
    {
        type            empty;
    }
}

