/*--------------------------------*- C++ -*----------------------------------*\
  =========                 |
  \\      /  F ield         | OpenFOAM: The Open Source CFD Toolbox
   \\    /   O peration     | Website:  https://openfoam.org
    \\  /    A nd           | Version:  6
     \\/     M anipulation  |
\*---------------------------------------------------------------------------*/
FoamFile
{
    version     2.0;
    format      ascii;
    class       volVectorField;
    location    "0";
    object      U;
}
// * * * * * * * * * * * * * * * * * * * * * * * * * * * * * * * * * * * * * //

dimensions      [0 1 -1 0 0 0 0];

internalField   nonuniform List<vector> 
918
(
(0.985749 0.00389906 0)
(-0.00399956 2.96739 0)
(-0.000433425 1.62995 0)
(0.980761 -0.00207764 0)
(-0.00595506 1.58777 -1.48931e-22)
(0.0013564 2.95102 -1.38159e-18)
(0.84837 1.16385 4.94251e-19)
(0.47915 0.210588 -5.63782e-21)
(0.999908 -0.000332747 0)
(0.0118253 1.0104 0)
(-0.000359992 1.30298 0)
(0.807145 -0.00756316 0)
(0.00897724 2.93476 0)
(0.00399433 2.79744 0)
(-0.000366936 3.20012 7.97801e-19)
(-0.00928903 1.49907 -9.36397e-21)
(0.584188 0.0850791 3.50269e-19)
(0.182566 1.12651 4.54877e-19)
(0.966056 0.00390485 0)
(-0.00103992 1.4447 0)
(0.207163 0.260959 -3.00609e-19)
(1.00164 -0.00525815 0)
(1.00163 -0.00835736 0)
(0.977377 -0.00496833 0)
(0.730368 -0.0154196 0)
(0.0306901 2.63702 0)
(-0.0106256 2.91556 4.60043e-19)
(-0.014218 1.65677 0)
(-0.0143519 1.76079 0)
(-0.0164847 1.65339 0)
(-0.00377787 1.81669 0)
(0.00164401 1.60389 1.16572e-22)
(-0.00985487 1.50786 0)
(-0.019746 2.98961 -4.84056e-23)
(-0.013742 3.00794 1.0873e-18)
(0.00162834 2.9997 0)
(0.872667 -0.0064765 0)
(0.363058 0.908014 -2.76641e-20)
(0.85898 1.17793 -7.38418e-19)
(0.988205 1.05167 6.6318e-19)
(0.718965 1.25845 -1.15174e-19)
(0.7345 1.22518 6.56808e-19)
(0.512269 0.291783 5.49889e-21)
(0.509516 0.186062 0)
(1.19514 0.544663 0)
(0.475565 0.315478 2.58239e-20)
(0.425767 0.213578 -2.68076e-20)
(0.924363 -0.00483865 0)
(1.00029 -0.000155908 0)
(0.999892 0.000302079 0)
(1.00328 -0.00732865 0)
(1.00085 -0.00115661 0)
(1.00013 -8.33042e-05 0)
(0.0783917 1.57872 -2.75166e-19)
(-0.0144964 1.08539 0)
(0.0448731 0.909622 0)
(-0.0359375 1.19713 0)
(-0.0122719 1.1207 0)
(-0.0102956 1.57614 0)
(-0.00418152 1.48244 0)
(-0.000103996 1.30444 0)
(-0.0138188 1.50744 0)
(-0.00945498 1.31672 0)
(0.884907 0.000684086 0)
(0.891587 0.0110236 0)
(0.820425 -0.00020368 0)
(0.8833 0.0164433 0)
(0.788534 -0.00765685 0)
(0.013668 3.00363 4.98018e-19)
(0.0114664 3.00452 0)
(0.00733001 3.00383 0)
(0.0106786 2.99823 5.55918e-24)
(0.00613116 2.96198 -7.49374e-19)
(0.0118216 2.98449 0)
(0.00847763 2.90895 0)
(0.021814 2.9326 1.00735e-24)
(0.00454825 2.82773 0)
(0.0274569 2.91965 0)
(-0.000735455 2.74691 0)
(0.312822 3.60626 0)
(-0.12791 3.68831 0)
(0.151659 3.29168 -7.39303e-19)
(0.00584505 3.02174 0)
(-0.0116965 1.79666 0)
(-0.00535429 1.63795 9.23576e-21)
(-0.00909906 1.51919 -1.48564e-20)
(0.643186 0.156381 -1.2072e-19)
(0.604933 0.0531271 -1.16338e-19)
(0.609107 0.187405 -3.62309e-19)
(0.552056 0.118978 -2.42701e-19)
(0.283851 0.989228 0)
(0.253168 1.23032 -4.36746e-19)
(0.340569 1.21772 7.17865e-19)
(0.989467 0.00714324 0)
(0.946083 0.00683852 0)
(0.999812 0.000811733 0)
(1.00374 0.00764956 0)
(1.00331 0.00872168 -6.19272e-19)
(0.992847 0.0072853 4.74175e-19)
(-0.015843 1.56638 0)
(-0.0089935 1.42649 0)
(-0.0173622 1.66274 0)
(-0.0173881 1.60275 0)
(0.000297841 1.4716 0)
(0.234751 0.288137 9.24412e-20)
(0.291335 0.260413 0)
(0.994607 -0.00603394 0)
(0.955805 -0.00547875 0)
(0.858191 0.0188625 0)
(0.824088 0.0372222 0)
(0.766742 -0.00954654 0)
(1.02484 -0.00498207 0)
(0.7777 0.0485324 0)
(0.651617 -0.0155702 4.53443e-19)
(-0.0344379 2.86828 2.63042e-19)
(0.0352943 2.91411 0)
(0.045177 2.89004 0)
(0.00562458 2.70054 0)
(-0.00818694 2.98759 4.28262e-19)
(-0.0126947 2.89872 0)
(-0.00988305 2.99277 -1.34492e-18)
(-0.00921114 2.93257 4.6296e-19)
(-0.0102898 1.81261 0)
(-0.00879394 1.80762 0)
(0.000556137 1.63505 -1.74337e-22)
(-0.000834204 1.60635 0)
(-0.00986108 1.50042 0)
(0.933221 -0.00379652 0)
(0.863251 -0.00590999 0)
(0.871512 0.0117922 0)
(0.946354 -0.00282618 0)
(0.892078 -0.00531684 0)
(0.49231 1.10779 2.71875e-20)
(0.540205 1.18464 0)
(0.321685 0.829494 2.02599e-21)
(0.263192 0.696881 0)
(0.968131 1.06976 -1.94481e-19)
(1.08196 0.880232 3.94228e-19)
(0.45741 1.29764 0)
(0.594628 1.31978 0)
(0.584318 1.23063 0)
(0.115631 0.106719 -6.82361e-20)
(0.539955 0.257517 0)
(0.521292 0.159056 7.01628e-20)
(1.0444 0.926283 0)
(1.11511 0.766937 0)
(1.14645 0.702434 -3.44708e-19)
(1.17374 0.607269 0)
(1.23067 0.392378 3.33131e-20)
(0.957049 -0.00452371 0)
(0.963492 -0.00480132 0)
(0.906591 -0.0041152 0)
(0.985046 -0.00692188 0)
(0.976818 -0.00607991 0)
(0.939337 -0.00484166 0)
(0.999782 0.00230187 0)
(1.0009 0.00114154 0)
(0.999992 0.000674882 0)
(0.0686976 1.78474 1.59452e-19)
(0.0998377 1.52754 0)
(0.0352476 1.7854 2.16756e-19)
(0.0388312 1.59119 -1.8719e-19)
(0.107459 1.12555 -3.75917e-19)
(0.0338993 1.04317 0)
(0.159236 0.948271 0)
(-0.0205874 1.32347 0)
(0.00698279 1.21108 0)
(-0.0111823 1.71389 -6.27521e-22)
(-0.00531003 1.60629 0)
(-0.0109278 1.69101 -2.98153e-20)
(-0.00861897 1.55672 5.73625e-20)
(-0.0151091 1.40463 0)
(-0.00969446 1.45312 0)
(-0.0044983 1.26081 0)
(-0.0168881 1.52721 0)
(-0.0117498 1.34652 0)
(0.961533 0.0161626 0)
(0.907058 0.00590103 0)
(0.942963 0.0106351 0)
(0.873579 0.00208114 0)
(0.824655 -0.00375071 0)
(0.913104 0.00217798 0)
(0.90407 0.00571654 0)
(0.822278 -0.00553738 0)
(0.00854403 3.06496 -4.24006e-21)
(0.0137028 3.05735 0)
(0.0121886 2.97248 0)
(0.00742196 2.881 0)
(0.914341 4.01478 0)
(1.21858 3.39218 7.58339e-19)
(0.080884 3.10454 0)
(-0.0140993 2.92764 0)
(-0.0121786 1.79433 0)
(-0.0125855 1.79406 0)
(-0.012296 1.79394 0)
(-0.00618765 1.8055 2.52505e-21)
(-0.0106128 1.80267 0)
(-0.00770804 1.80038 0)
(0.000179199 1.5332 9.35287e-22)
(-0.0014801 1.66619 1.63326e-20)
(-0.00471464 1.65517 1.51803e-20)
(-0.00456716 1.52475 0)
(0.669581 0.110409 1.78153e-19)
(0.610001 0.0194529 -1.74012e-19)
(0.176953 1.47116 0)
(0.337203 0.753529 -1.5042e-19)
(0.0976958 1.5514 -5.31348e-19)
(0.229013 1.20713 5.2873e-19)
(0.909357 0.0102219 0)
(0.96901 0.0106607 0)
(0.976302 0.0105809 0)
(0.928062 0.00827476 0)
(-0.0199267 1.53993 0)
(-0.0199585 1.55096 0)
(-0.0112049 1.38585 0)
(0.436637 0.322021 2.35032e-19)
(0.369467 0.297158 -2.86831e-19)
(0.385729 0.24253 0)
(1.14203 0.0861083 -4.71185e-21)
(1.1301 0.0416986 0)
(1.05788 0.0355003 0)
(0.971337 0.00846899 0)
(0.672982 0.0744946 0)
(0.704286 0.0410328 -7.38265e-19)
(0.609053 -0.0088533 2.88231e-19)
(0.0111581 2.98127 3.21954e-19)
(-0.028622 2.86686 3.17271e-20)
(0.00704342 3.04998 -9.15105e-21)
(0.015479 3.04138 3.49264e-19)
(-0.00954288 3.00007 1.54377e-20)
(-0.00887209 2.95412 -6.30649e-23)
(-0.0150772 3.01276 -2.95583e-19)
(0.0127275 3.02366 2.08776e-19)
(0.00616214 3.0319 -3.3458e-19)
(0.939245 0.0080673 0)
(0.936347 0.00227189 0)
(0.861385 -0.000535255 0)
(0.958455 0.0122202 0)
(0.947764 0.0128301 0)
(0.892385 0.0083652 0)
(0.920676 0.00628716 0)
(0.931992 0.0149406 0)
(0.842848 0.00535211 0)
(0.683556 1.42203 2.13865e-19)
(0.706414 1.5364 0)
(0.187511 0.374851 1.2319e-20)
(0.158479 0.513777 9.6567e-20)
(0.226513 0.640608 -5.78579e-20)
(0.191946 0.532767 1.05362e-19)
(0.290156 0.664279 4.16632e-19)
(0.133421 0.145933 1.41312e-19)
(0.584079 0.21675 2.60826e-19)
(0.563851 0.241686 6.41048e-20)
(0.544422 0.146485 1.29501e-19)
(1.21974 0.452234 2.25239e-19)
(1.23843 0.248624 2.34149e-19)
(0.0237492 1.76883 9.08247e-20)
(0.0290595 1.60721 0)
(1.00846 0.0297736 0)
(0.976793 0.0203936 0)
(0.931272 0.00128014 0)
(0.0113619 3.07289 0)
(0.0173989 2.94618 5.87446e-19)
(0.0139956 2.95908 0)
(0.00589277 2.85391 -5.84357e-19)
(0.00825131 3.08908 1.38496e-19)
(0.0101581 3.08013 0)
(0.726631 1.83184 -1.699e-19)
(1.2627 2.62572 5.63455e-19)
(0.707909 2.00377 -1.13834e-18)
(0.0231522 2.98444 -2.43691e-19)
(0.0416626 3.01035 0)
(-0.0322944 2.88706 0)
(-0.00126777 1.65878 -2.39705e-21)
(0.00092069 1.66397 -3.81522e-20)
(0.00215564 1.5357 -4.49878e-21)
(0.238991 1.30606 4.69683e-19)
(0.318516 0.465895 -3.24412e-19)
(0.0590758 1.72714 3.44268e-19)
(0.0944335 1.66529 -4.32802e-19)
(0.147389 1.39975 6.28868e-20)
(0.00693573 3.11766 -7.52141e-19)
(0.0134113 3.11843 8.4031e-19)
(-0.00443103 2.98184 3.8135e-19)
(-0.00128623 2.97784 -3.45738e-19)
(-0.015447 2.88203 -3.88519e-19)
(0.0121796 3.09685 -1.01646e-18)
(0.00452049 3.10248 1.02986e-18)
(0.178164 0.559549 0)
(0.120019 0.487673 -1.96984e-19)
(0.126199 0.157153 8.71972e-20)
(0.30434 0.776936 4.15109e-19)
(0.203382 0.19653 -6.33575e-19)
(1.22755 0.168936 -5.04519e-20)
(1.23499 0.306101 0)
(1.22121 0.111834 9.42693e-20)
(-0.00310007 1.74776 -7.58728e-22)
(0.0139232 1.7661 0)
(0.0086696 1.60281 0)
(0.292342 1.17834 -1.64397e-19)
(0.343942 1.01233 -3.53442e-19)
(0.229221 0.308452 5.96991e-19)
(1.00569 -0.0109354 0)
(1.00676 -0.00708063 1.14339e-19)
(-0.010318 1.80155 0)
(-0.018399 1.81066 0)
(1.00163 0.00324165 1.1618e-21)
(1.00301 0.00847948 2.32136e-19)
(-0.00627072 1.80892 -3.34814e-21)
(-0.00496248 1.80771 0)
(0.0463695 3.18014 1.20749e-19)
(0.383498 3.55262 0)
(1.0726 0.681371 4.75973e-20)
(1.01086 0.0113202 -1.37144e-21)
(1.01869 -0.0127364 0)
(1.00159 0.000120101 2.76379e-23)
(-0.200277 1.25672 0)
(-0.137413 2.37287 0)
(-0.0480069 1.74966 0)
(-0.0490902 1.90127 4.14713e-20)
(-0.0328659 1.84882 2.40972e-20)
(1.00291 0.0097424 1.3714e-21)
(1.04576 0.0161025 0)
(1.07811 0.0284643 0)
(-0.0129545 1.79506 0)
(-0.0137649 1.81903 0)
(-0.0253637 1.79648 0)
(0.296395 1.27006 -3.09022e-19)
(1.00856 -0.00940168 0)
(1.0092 -0.0144499 0)
(1.00224 0.000250572 1.43591e-19)
(1.00534 -0.00531723 -1.71864e-19)
(1.001 -0.00103419 0)
(-0.014706 1.79317 0)
(-0.0125145 1.79471 0)
(-0.0124585 1.79531 0)
(-0.0218979 1.79832 0)
(-0.0180801 1.79474 0)
(-0.0215454 1.79806 0)
(1.01962 -0.00753873 0)
(1.02089 0.0146926 -9.5832e-22)
(0.764194 1.29491 3.64429e-19)
(1.0031 0.000369059 -1.43491e-19)
(1.00329 0.00426248 1.73967e-19)
(1.00137 0.00198575 0)
(1.01134 0.0105396 1.3767e-19)
(1.00749 0.0089721 -1.75193e-19)
(1.00909 0.0125475 0)
(-0.010641 1.81948 0)
(-0.00674486 1.81506 7.2898e-21)
(-0.00889381 1.81337 -4.97067e-21)
(1.18619 0.260481 -9.2945e-20)
(1.12223 0.0851193 0)
(0.0587701 3.08677 -3.90882e-19)
(0.0524725 2.86542 -2.98758e-20)
(0.121084 3.20429 5.00937e-19)
(0.13066 3.22011 -4.22648e-20)
(0.149442 3.26361 0)
(0.0243197 3.13742 9.54756e-20)
(0.0715835 3.1616 3.84345e-19)
(0.0692995 3.18363 -1.82766e-19)
(0.0307258 3.12519 0)
(0.693081 0.333597 0)
(0.641199 0.401484 0)
(1.06733 0.70789 -1.8015e-19)
(1.03018 0.861065 2.77577e-19)
(1.12807 0.59798 0)
(1.16023 0.550525 0)
(1.01437 0.0108797 -2.60425e-19)
(1.01314 0.010944 3.2383e-19)
(1.02189 -0.0128951 0)
(1.01719 -0.0187739 0)
(1.0075 0.00236012 0)
(1.00986 0.00277 0)
(1.00389 0.00288504 0)
(1.0083 0.00736887 0)
(1.00686 0.00517048 0)
(1.00382 0.00487703 0)
(-0.189307 1.30944 0)
(-0.193025 1.34223 0)
(-0.152309 1.21433 0)
(-0.0112406 1.22137 0)
(-0.138324 2.50342 0)
(0.0155278 2.53034 -1.71271e-19)
(-0.135135 2.3749 0)
(-0.0854075 2.24019 7.07771e-20)
(-0.0394261 2.01886 -7.64703e-20)
(-0.0378456 1.75833 0)
(-0.0236252 1.77127 0)
(-0.0646012 1.725 0)
(-0.0553736 1.68277 0)
(-0.0960511 1.84504 -2.05901e-20)
(-0.045856 1.86395 2.9619e-20)
(-0.0476676 1.89677 3.94711e-20)
(-0.0404577 1.87986 0)
(-0.0250039 1.84884 -5.71668e-20)
(-0.00712957 1.83771 -2.92225e-20)
(-0.0902038 1.83707 1.65402e-20)
(-0.0606009 1.84567 -3.86541e-20)
(-0.0697825 1.86599 -5.09104e-20)
(1.01135 0.0182798 2.54754e-19)
(1.01215 0.0093663 -3.1193e-19)
(1.00533 0.0189133 -2.67741e-19)
(0.994391 0.0149769 3.42366e-19)
(1.04329 0.0216845 0)
(1.03841 0.00714156 0)
(1.06107 0.0393297 0)
(1.0524 0.0242511 0)
(1.0576 0.0143208 0)
(1.10485 0.0753917 0)
(1.08221 0.0537336 0)
(1.09759 0.0426092 0)
(-0.0095799 1.8106 -9.58015e-22)
(-0.0137113 1.80034 0)
(-0.0105941 1.80441 0)
(-0.0123199 1.82216 8.63728e-21)
(-0.0105841 1.82305 -4.10294e-22)
(-0.0177569 1.79528 9.3004e-21)
(-0.0177153 1.79511 -9.37848e-21)
(-0.021957 1.79725 0)
(-0.0183546 1.79746 0)
(-0.0174192 1.79724 0)
(-0.0261294 1.79636 0)
(-0.0255609 1.79043 0)
(0.456432 1.37736 6.02959e-19)
(0.404354 1.4215 2.21788e-19)
(0.631198 2.44836 -1.09259e-19)
(0.375881 2.58556 2.68544e-19)
(0.575763 2.19323 -9.94386e-20)
(1.01873 -0.00786554 0)
(1.01535 -0.00929766 0)
(1.01767 -0.0125702 0)
(1.00809 -0.000665684 0)
(1.00437 -0.00110938 0)
(1.00682 -0.00417703 0)
(1.01018 -0.00518063 0)
(1.0123 -0.00496965 0)
(1.02059 0.0137207 2.46785e-19)
(1.0117 0.0137259 -3.15968e-19)
(1.02429 0.0125923 -2.47352e-19)
(1.0218 0.012178 3.10413e-19)
(0.740805 1.31411 0)
(0.65666 1.37315 4.26691e-19)
(0.854129 1.20872 2.47217e-19)
(0.85935 1.20621 -3.28034e-19)
(1.14143 2.63209 -3.77811e-19)
(0.833552 0.119599 1.76601e-19)
(1.12758 0.0949061 0)
(1.16465 0.174673 7.71382e-20)
(1.1513 0.16034 3.4353e-21)
(0.97439 0.127645 0)
(0.10766 3.02701 -5.29894e-20)
(0.108098 2.90196 -4.55739e-19)
(0.0502776 2.34483 3.07549e-19)
(0.179805 0.0670251 -1.35072e-19)
(0.353192 3.45579 -3.19229e-19)
(0.202065 3.34722 0)
(0.230764 3.40521 4.15633e-19)
(0.243152 3.08563 -1.40086e-19)
(0.277901 3.20629 0)
(0.00913322 3.11921 2.08508e-20)
(0.0201967 3.12836 -2.57131e-19)
(0.0188965 3.12419 3.77747e-19)
(0.0380707 3.13729 0)
(0.0357795 3.14956 0)
(1.25367 2.6044 0)
(0.495505 0.834003 -1.40069e-19)
(0.954129 1.0358 -1.40507e-19)
(0.949155 1.06189 0)
(0.803403 0.952963 4.36362e-20)
(1.02362 0.905437 1.81941e-20)
(0.427766 0.461383 -3.36925e-19)
(0.716713 0.330321 -1.71012e-20)
(0.707258 0.297575 1.36716e-19)
(0.640469 0.422331 1.09271e-20)
(0.582558 0.41807 -4.52964e-19)
(0.69676 0.34546 0)
(0.702117 0.42909 2.34854e-19)
(0.702413 0.426267 0)
(0.683439 0.39419 0)
(0.672816 0.343728 0)
(0.717587 0.615511 6.79054e-20)
(1.18857 0.284801 7.04322e-20)
(1.17376 0.419679 0)
(1.17336 0.392831 0)
(0.766099 0.22532 2.04935e-19)
(0.762242 0.519332 -1.13983e-19)
(0.703926 0.489262 1.83941e-19)
(0.901651 0.403476 -1.55795e-19)
(1.01625 0.00979099 1.70033e-19)
(1.01703 0.00946405 -1.74873e-19)
(1.00978 0.00824755 0)
(1.01947 -0.0114586 0)
(1.02014 -0.01541 -1.53995e-19)
(1.01248 -0.0232659 1.52407e-19)
(1.03363 0.00650042 0)
(1.02788 0.013304 0)
(1.0124 0.00493701 0)
(1.01376 0.00784742 0)
(1.01704 0.000687683 0)
(1.01438 2.45593e-05 0)
(-0.192286 1.43709 0)
(-0.157471 1.49212 0)
(-0.169106 1.14226 2.28025e-19)
(0.305392 1.25425 1.94673e-19)
(0.0968417 1.1624 4.29399e-19)
(0.217278 1.1923 -6.86052e-19)
(0.0440711 1.2126 0)
(-0.270869 1.9775 4.26688e-19)
(-0.363246 1.87395 0)
(0.568297 2.29981 1.46488e-19)
(0.414353 2.49652 1.21832e-19)
(-0.0383581 1.76548 -3.7565e-19)
(0.360907 1.13086 2.15572e-19)
(0.107998 1.18143 -1.70832e-19)
(0.477586 1.20786 4.80477e-19)
(0.335296 1.80256 0)
(0.481882 1.8364 -3.72103e-19)
(-0.197281 1.98818 -6.87279e-21)
(-0.0483439 2.06473 0)
(-0.240489 2.14277 3.63844e-20)
(-0.182023 2.04362 0)
(-0.0727081 2.20206 -7.91711e-20)
(-0.0420752 2.09282 0)
(-0.0978448 1.78332 -1.72612e-20)
(-0.129968 1.81189 0)
(-0.123626 1.72929 0)
(-0.103307 1.75082 1.94506e-20)
(-0.0542224 1.92382 -6.15266e-21)
(-0.0418123 1.99539 8.46519e-20)
(-0.0406747 1.96444 6.0244e-22)
(-0.0502213 1.82052 1.64315e-20)
(-0.0641695 1.81311 8.57917e-21)
(-0.0223359 1.78057 0)
(-0.0193233 1.78334 0)
(-0.186257 1.88503 1.92932e-20)
(-0.176916 1.74843 8.45774e-21)
(-0.160731 1.82387 -1.3674e-20)
(-0.2615 1.89893 0)
(-0.0160934 1.81408 -3.24771e-20)
(-0.0160886 1.82033 1.47787e-20)
(-0.0161163 1.8203 -4.50217e-21)
(-0.040723 1.81768 -1.9566e-20)
(-0.0163535 1.83294 -7.64104e-21)
(-0.0221062 1.84184 4.09246e-20)
(1.02444 0.00945499 -1.65792e-19)
(1.02147 0.0119152 1.67855e-19)
(1.0197 0.00606525 0)
(0.999789 0.0429051 2.38893e-19)
(0.995352 0.0317638 -2.85111e-19)
(0.97107 0.0262404 3.30423e-19)
(0.990908 0.0820082 -3.14895e-20)
(1.02262 -0.00457844 0)
(1.03029 0.00854107 1.37821e-19)
(1.02331 -0.00143984 -1.35585e-19)
(1.04201 0.0390933 -7.29731e-21)
(1.04506 0.0270139 6.46232e-20)
(1.03529 0.0560982 0)
(1.02786 0.0450663 -2.4993e-20)
(1.02368 0.0255531 0)
(1.02059 0.024069 0)
(1.03617 0.00953525 0)
(1.03113 0.0102008 0)
(1.0306 0.0260018 5.18261e-20)
(1.03215 0.0202393 -1.18731e-19)
(1.03356 0.0297808 -5.08161e-20)
(1.03442 0.0299845 -6.0028e-20)
(1.03026 0.057773 1.04866e-19)
(1.05914 0.0553967 0)
(1.04909 0.0878542 0)
(-0.016094 1.81501 -1.29737e-20)
(-0.013783 1.80427 -1.10606e-21)
(-0.015988 1.80502 0)
(-0.0115204 1.81602 1.36567e-20)
(-0.00958583 1.81215 1.97654e-21)
(-0.00933336 1.8154 -2.0042e-21)
(-0.00484533 1.83451 2.44685e-20)
(-0.0139236 1.82548 -1.64934e-21)
(-0.0116361 1.8274 8.03415e-21)
(-0.00717819 1.82725 -1.31136e-20)
(-0.00478034 1.82972 1.57883e-20)
(-0.0222347 1.79666 3.92092e-22)
(-0.0205684 1.79919 1.48497e-20)
(0.562018 1.27974 -3.0444e-19)
(0.570543 1.35489 -3.73637e-19)
(0.638638 1.41328 -4.12153e-19)
(0.525154 1.45107 -2.17893e-19)
(0.527205 1.45034 0)
(0.625904 2.4205 8.19257e-20)
(0.703682 2.37321 1.59835e-19)
(0.440789 2.55178 6.92494e-20)
(0.389538 2.64674 -6.97255e-20)
(0.539745 2.59286 1.47779e-19)
(0.542714 2.4789 0)
(0.548753 2.48367 -2.37569e-19)
(0.0751585 2.62884 4.75011e-19)
(0.258781 2.62488 -2.6018e-20)
(0.214925 2.60683 -6.49125e-19)
(0.936133 2.36508 1.05176e-19)
(0.829622 2.3386 0)
(1.01102 0.000169843 5.6531e-21)
(1.01304 -0.0037593 -4.76149e-21)
(1.01373 -0.00453642 -8.38441e-20)
(1.01305 -0.00473268 8.45249e-20)
(1.01268 -0.000705689 0)
(0.651079 1.27261 0)
(0.638997 1.15329 0)
(0.747856 1.07067 0)
(0.628314 1.10487 0)
(1.17829 2.65016 2.90308e-20)
(1.05243 2.37746 0)
(0.810101 2.3004 -1.65365e-21)
(0.804883 2.48167 0)
(0.881929 2.57449 -7.98989e-21)
(0.907348 2.53571 5.29713e-21)
(0.830553 0.123728 0)
(0.804178 0.144052 5.24705e-20)
(0.90973 0.12885 2.6059e-19)
(0.863768 0.110412 -1.05499e-19)
(0.857124 0.0790297 -3.17741e-19)
(1.02358 0.213505 -1.29577e-19)
(0.944097 0.267953 -7.30293e-21)
(0.888624 0.289175 2.2547e-19)
(0.974978 0.212297 1.68122e-19)
(0.927257 0.165729 -3.23417e-19)
(0.889234 0.178885 4.3059e-20)
(0.90667 0.272853 -7.91082e-20)
(0.884201 0.194272 0)
(0.974538 0.17539 1.52419e-19)
(1.00247 0.167736 0)
(1.00513 0.188044 0)
(1.07656 0.0995428 4.06072e-20)
(1.01104 0.147608 -6.78203e-21)
(1.01011 0.219408 -2.72287e-20)
(1.04543 0.181177 0)
(1.01468 0.0231725 1.26628e-19)
(1.02239 0.042125 1.47655e-19)
(1.02094 0.0270566 -1.24992e-19)
(1.0146 0.0458751 -9.96779e-20)
(1.00243 0.0466866 -1.68979e-19)
(0.977813 0.131323 0)
(0.982629 0.0784442 0)
(0.971379 0.0475608 -1.19797e-19)
(0.931052 0.060377 5.12915e-20)
(0.997886 0.0819495 1.41549e-19)
(1.02126 0.0991962 -1.30951e-19)
(1.01678 0.132746 1.24248e-19)
(0.997896 0.121487 0)
(1.03158 0.0949847 0)
(1.01862 0.0786512 -5.66877e-20)
(1.0173 0.0767808 -1.11904e-19)
(0.586373 1.09877 -8.38217e-20)
(0.631017 1.49827 1.49566e-19)
(1.14395 2.77292 8.03075e-20)
(1.20234 3.13075 -5.2021e-20)
(1.24248 2.75751 4.02972e-19)
(1.2896 2.72915 -2.04826e-19)
(1.25293 2.34574 -1.76724e-20)
(1.18788 3.03876 1.69076e-19)
(1.20073 2.99831 -1.8708e-19)
(1.18568 3.28307 -1.88453e-19)
(1.40179 2.99811 2.27123e-19)
(1.41722 2.92975 0)
(0.520252 0.845927 -5.98387e-21)
(0.242257 1.2741 1.8469e-19)
(0.481098 0.543492 2.18966e-19)
(0.330299 0.319719 2.56383e-19)
(0.573991 0.439692 2.52966e-19)
(0.538435 0.510121 -4.00287e-19)
(0.540399 0.517963 3.32508e-19)
(0.519725 0.482703 -1.32001e-19)
(0.497379 0.42377 3.06287e-19)
(0.772643 0.256297 -1.14149e-19)
(0.74017 0.289733 0)
(0.741233 0.245878 7.79744e-21)
(0.688379 0.524564 1.19611e-19)
(0.659772 0.499531 -4.43321e-19)
(0.620756 0.499793 1.53162e-20)
(0.639878 0.4815 0)
(0.656172 0.740828 8.17267e-20)
(0.737589 0.772565 3.73141e-20)
(0.697721 0.845353 -4.88772e-20)
(0.806757 0.78609 -6.14272e-21)
(0.872812 0.838071 1.18877e-20)
(0.873674 0.840226 -1.22155e-20)
(0.794455 0.637705 -1.16352e-19)
(0.877427 0.703101 5.72286e-21)
(0.939299 0.706437 0)
(0.927593 0.675804 1.62744e-21)
(0.973119 0.316298 3.23778e-20)
(1.08315 0.300593 -1.74375e-20)
(1.00503 0.262761 5.19049e-20)
(0.946275 0.342283 -8.00819e-20)
(0.97922 0.424016 0)
(1.05419 0.399163 0)
(0.884931 0.341499 6.91952e-21)
(0.828172 0.279562 0)
(0.835037 0.275781 1.20286e-19)
(0.88945 0.288601 -2.78256e-21)
(0.891257 0.410692 4.2699e-19)
(0.822982 0.48868 1.09319e-19)
(0.843862 0.434779 -1.48111e-19)
(0.799766 0.421229 1.57881e-19)
(0.78435 0.408009 1.09621e-19)
(0.784567 0.398101 -1.06985e-19)
(1.02054 -0.0119676 1.34042e-19)
(1.02006 -0.0100872 0)
(1.01842 -0.00886293 8.99628e-20)
(1.02057 -0.0104505 -2.00618e-19)
(1.02889 -0.00218855 9.71224e-20)
(1.02721 0.00780017 -2.05623e-19)
(1.02575 0.0119001 0)
(1.02364 0.013388 -4.29805e-20)
(1.01908 0.00241236 1.07311e-19)
(1.01671 0.00995177 -5.45821e-20)
(1.02159 0.0093316 4.02265e-20)
(-0.0884473 1.65919 0)
(-0.140651 1.70848 0)
(-0.130484 1.56692 0)
(-0.0879436 1.60019 0)
(-0.338127 1.63178 -2.60933e-19)
(-0.329712 1.44921 7.98745e-20)
(-0.378008 1.88984 7.31132e-20)
(-0.456727 1.66665 -1.4809e-19)
(-0.22967 1.75511 1.22489e-20)
(-0.252197 1.74449 -1.02129e-20)
(-0.300335 1.60509 4.81674e-20)
(-0.271435 1.61238 8.9164e-20)
(-0.203723 1.63478 6.79961e-21)
(-0.192479 1.67936 1.30249e-21)
(-0.265679 2.20246 -3.64097e-20)
(-0.285771 2.30269 0)
(-0.376892 2.26817 -6.63629e-20)
(-0.408759 1.98763 -5.38155e-20)
(0.116959 2.23596 6.90164e-20)
(0.0740984 2.6346 0)
(0.186979 2.56673 -3.94951e-20)
(0.246296 2.57872 2.79747e-20)
(-0.117131 2.29558 2.02156e-19)
(-0.292168 2.29918 -1.40519e-19)
(-0.213041 2.53829 0)
(-0.14354 1.88315 -3.56915e-20)
(-0.106117 1.88072 -7.46841e-20)
(-0.116385 1.86278 0)
(-0.108153 1.95263 -1.3835e-21)
(-0.168412 1.95827 2.2082e-20)
(-0.0536585 1.78416 3.2621e-21)
(-0.033733 1.78905 -5.06861e-20)
(-0.0334575 1.79612 1.43945e-20)
(-0.0561555 1.79412 1.71969e-20)
(-0.0845034 1.79191 0)
(-0.0280511 1.79673 0)
(-0.0260968 1.79032 1.62066e-20)
(-0.0254326 1.79796 -5.16402e-21)
(-0.0255481 1.79819 0)
(-0.0230096 1.78701 1.25107e-20)
(-0.0232564 1.78562 -2.48333e-20)
(1.0305 0.0174002 0)
(1.03771 0.0195471 -1.28123e-20)
(1.03763 0.0216827 -9.39256e-20)
(1.03716 0.0230179 0)
(1.03658 0.02462 0)
(1.03904 0.0125228 -3.95049e-21)
(1.03747 0.0108586 1.58277e-19)
(1.03487 0.0128268 1.91122e-19)
(1.03133 0.0114568 0)
(1.02583 0.00983676 0)
(1.03107 0.0189372 9.59352e-20)
(1.02433 0.0138696 0)
(1.02548 0.0118435 0)
(-0.0175665 1.81575 0)
(-0.021768 1.80023 1.18019e-21)
(-0.0197581 1.80995 7.70561e-21)
(-0.0262712 1.79843 0)
(-0.0222437 1.80324 1.03229e-20)
(-0.0251633 1.79936 -5.17476e-21)
(-0.0266897 1.79725 0)
(0.489924 1.62225 0)
(0.563774 1.35083 5.49579e-19)
(0.511997 1.36227 0)
(0.560862 1.3579 -6.6456e-19)
(0.528993 1.39641 0)
(0.577158 1.37401 3.01878e-19)
(1.01781 2.69779 -2.35849e-21)
(0.951374 2.38745 -1.29945e-19)
(0.874367 2.13157 1.6992e-19)
(0.841937 2.33343 7.05504e-20)
(0.830541 2.50504 0)
(0.883198 2.52035 0)
(0.922563 2.35639 0)
(0.894386 2.32503 -2.52089e-19)
(0.689697 2.46688 -5.52263e-20)
(0.805222 2.47901 -1.59486e-20)
(0.797563 2.45653 1.26988e-20)
(0.701316 2.35696 0)
(0.789406 2.33788 0)
(0.759113 2.35228 -1.47883e-19)
(0.772544 2.4763 0)
(0.594875 1.04728 0)
(0.500124 0.901926 -6.78137e-22)
(0.511019 0.947359 6.96794e-22)
(0.509639 1.0596 0)
(0.507853 0.998178 3.57219e-21)
(0.725122 0.877787 1.31e-20)
(0.75848 1.00606 0)
(0.733179 0.981461 -5.15439e-20)
(0.636535 0.993102 0)
(0.597447 0.929475 0)
(1.14427 2.79938 4.69909e-20)
(1.12195 2.86038 9.80567e-20)
(0.91907 2.40823 -2.22747e-19)
(0.896796 2.37979 3.35654e-20)
(1.10744 2.76798 0)
(1.05316 2.73796 -4.11204e-20)
(1.07452 2.50453 -3.5176e-20)
(0.954665 2.22785 -1.72278e-20)
(0.471549 1.42346 0)
(0.482243 1.08185 7.35548e-20)
(0.523878 1.14602 0)
(0.852748 0.2112 0)
(0.807585 0.160972 0)
(0.774948 0.186042 0)
(0.837452 0.225947 -1.89736e-19)
(0.785894 0.229121 1.19933e-19)
(0.932002 0.0580143 -1.03871e-19)
(0.93747 0.105371 0)
(0.928358 0.112894 4.87116e-20)
(0.884246 0.0782017 2.01407e-19)
(0.884772 0.0590043 -1.2361e-19)
(1.116 3.38035 -6.61008e-19)
(1.17581 3.30491 0)
(1.13787 3.45072 -1.38931e-18)
(0.672599 3.59717 1.19118e-18)
(1.01929 3.12505 2.85189e-19)
(0.501809 0.841393 1.27258e-19)
(0.489662 0.819157 0)
(0.383302 0.560663 -5.0826e-20)
(0.397582 0.691948 2.28639e-19)
(0.499959 0.54121 -7.0419e-20)
(0.494689 0.560784 7.90419e-20)
(0.632191 0.555318 1.60227e-19)
(0.648169 0.576544 0)
(0.589742 0.630161 0)
(0.561616 0.572748 0)
(0.925394 0.580414 -3.6854e-20)
(0.851431 0.521118 -1.04381e-19)
(0.888666 0.572747 3.20074e-20)
(0.920533 0.477536 -7.44114e-20)
(0.991821 0.455309 0)
(1.02118 0.568858 2.09764e-21)
(0.831261 0.368592 -2.4e-19)
(0.824986 0.358879 -2.80785e-19)
(0.811636 0.365771 1.87582e-19)
(0.790847 0.341973 -2.16922e-19)
(0.8246 0.292823 -1.60166e-19)
(0.795419 0.294804 1.96716e-19)
(1.0348 -0.00123243 -1.00907e-19)
(1.03571 0.000223683 2.07394e-19)
(1.02313 -0.00686058 1.25838e-19)
(1.02612 -0.00500623 -1.51376e-19)
(1.03289 0.0134331 0)
(1.03593 0.0101227 -2.49496e-19)
(-0.309468 1.9386 2.03844e-20)
(-0.305656 1.88063 0)
(-0.401676 1.98239 -1.5476e-19)
(-0.400361 1.96531 1.59958e-19)
(-0.388746 1.88691 -1.3299e-19)
(-0.382476 1.89955 0)
(-0.0337061 1.81673 0)
(-0.026919 1.80535 -5.86309e-21)
(-0.0240351 1.80424 5.27041e-21)
(-0.0233763 1.80576 1.78853e-21)
(-0.0190066 1.81481 -1.0629e-20)
(-0.0228082 1.81673 6.14773e-21)
(0.468112 1.42942 2.3445e-19)
(0.454195 1.41512 -2.49108e-19)
(0.510765 1.34736 3.04104e-19)
(0.506692 1.37076 -1.37652e-20)
(0.637373 1.29224 0)
(0.565459 1.3962 3.68958e-19)
(0.592464 1.38089 -3.6441e-19)
(0.510224 1.31808 -2.91657e-19)
(0.501514 1.27878 0)
(0.524168 1.21328 0)
(0.74924 2.46298 8.24399e-20)
(0.72629 2.46276 3.85529e-19)
(0.764261 2.46165 -2.54521e-19)
(0.695895 2.45865 -7.32107e-20)
(0.662004 2.61584 4.43887e-20)
(0.53595 2.59909 -1.51249e-19)
(0.960759 2.3612 -9.36429e-20)
(0.996345 2.39684 0)
(0.883055 2.1313 -1.14642e-19)
(1.02396 2.71978 0)
(1.01594 2.69718 0)
(0.62243 2.32118 2.48075e-19)
(1.11555 3.12494 3.15286e-19)
(0.996238 3.01273 -3.49615e-19)
(0.324409 0.940879 0)
(0.364442 0.849756 -8.78127e-20)
(0.546043 0.75806 -3.77934e-20)
(0.389968 2.16566 0)
(0.41284 2.76837 -2.01677e-19)
(0.433122 2.51254 0)
(0.648753 0.689331 -1.72418e-19)
(0.697391 0.671077 2.44877e-19)
(0.700526 0.64253 -2.42497e-19)
(0.611327 0.663766 -2.6267e-20)
(0.676002 0.619542 -1.10952e-19)
(0.988792 2.79284 -2.38236e-19)
(1.02013 2.8003 1.8653e-19)
(0.585419 2.25922 -1.08268e-19)
(0.61666 1.75293 4.1366e-20)
(0.713471 1.91988 7.32646e-20)
(0.985014 2.44418 -4.83506e-20)
(0.984296 2.42696 -1.01023e-19)
(0.676003 1.84051 -2.31366e-21)
(0.459997 1.35216 -5.97625e-20)
)
;

boundaryField
{
    wall-4
    {
        type            noSlip;
    }
    velocity-inlet-5
    {
        type            fixedValue;
        value           uniform (1 0 0);
    }
    velocity-inlet-6
    {
        type            fixedValue;
        value           uniform (0 3 0);
    }
    pressure-outlet-7
    {
        type            zeroGradient;
    }
    wall-8
    {
        type            noSlip;
    }
    frontAndBackPlanes
    {
        type            empty;
    }
}

