/*--------------------------------*- C++ -*----------------------------------*\
  =========                 |
  \\      /  F ield         | OpenFOAM: The Open Source CFD Toolbox
   \\    /   O peration     | Website:  https://openfoam.org
    \\  /    A nd           | Version:  6
     \\/     M anipulation  |
\*---------------------------------------------------------------------------*/
FoamFile
{
    version     2.0;
    format      ascii;
    class       volScalarField;
    location    "0";
    object      p;
}
// * * * * * * * * * * * * * * * * * * * * * * * * * * * * * * * * * * * * * //

dimensions      [0 2 -2 0 0 0 0];

internalField   nonuniform List<scalar> 
13046
(
1.07389
1.06968
1.18644
1.08258
1.16528
1.10989
1.05003
1.11331
1.18276
0.533846
0.915755
1.18757
1.03357
1.06362
1.18622
0.665346
1.19333
0.903341
1.15032
1.14475
1.08128
0.644856
1.19312
0.909904
1.08676
1.10545
1.16801
1.00963
1.05156
1.19348
1.08828
1.05337
1.18223
1.11063
1.1636
1.10199
1.11019
1.16439
1.11691
1.11242
1.17697
1.00264
1.11653
1.1465
1.12861
1.10733
1.13922
1.14243
1.04926
1.0756
1.18707
1.1605
1.14212
0.925872
1.16359
0.887188
1.15291
0.90838
0.924097
1.19867
0.901551
1.08394
1.18941
1.19205
0.979037
0.723854
0.963458
0.902558
1.19531
0.990612
0.907698
1.19439
0.896469
0.897549
1.19889
1.14744
1.15804
1.05726
1.19966
0.829883
0.903487
1.07257
1.10889
1.17021
1.19026
0.966913
0.683301
0.678762
1.18884
1.02567
1.18069
0.603031
1.05268
0.905721
0.867411
1.02348
1.02147
1.19259
1.19722
1.18849
0.687372
1.04157
1.09708
1.14689
1.13593
1.1712
0.923746
1.15612
1.1286
1.17008
0.953096
0.372023
1.18126
0.856642
1.04805
1.07559
1.17951
0.873854
0.904564
0.985395
1.19627
1.00487
1.19501
0.501086
0.896197
1.18735
0.970693
1.02512
1.19906
1.09858
1.17952
1.00983
1.17457
0.640171
1.07046
0.800999
1.01981
1.19258
1.07127
1.04792
1.18246
0.974274
1.12473
1.17453
1.13263
1.16202
0.943882
1.16361
0.948239
1.15535
0.884534
1.06673
1.18767
1.18214
1.00888
1.14206
1.14129
0.856136
1.13018
0.839292
1.16873
1.17386
0.972971
1.12235
1.16655
0.529797
1.18537
0.935736
0.42431
1.18353
0.869504
0.783955
1.0047
1.19562
1.09508
0.964034
1.18785
0.986058
1.16138
1.1314
1.18895
0.965437
0.545829
1.10422
0.98093
1.18073
1.17955
0.989432
1.14429
0.99753
1.12433
1.16921
1.06144
1.19389
0.98809
1.04222
1.1923
0.653952
1.18823
0.992559
1.18287
0.686572
1.06269
0.61008
1.03742
1.17665
1.16404
0.875951
1.13125
1.01038
0.845504
1.19987
0.893325
1.01462
0.582364
1.18332
1.09451
1.16344
1.12523
1.0317
1.04862
1.19258
1.18108
0.672923
1.07392
0.988097
1.07386
1.19479
1.18291
0.91079
0.441722
1.13995
0.863886
1.15787
0.656065
1.04858
1.18074
0.901422
1.12845
1.17771
0.96403
1.0162
1.19819
1.10474
0.717299
1.16729
0.804579
1.12491
1.16809
1.1801
0.917585
0.40814
1.13151
1.18026
0.947047
0.415587
1.18452
0.812348
1.15052
1.08163
1.13747
0.907494
0.924409
1.11316
1.12607
1.18329
1.17422
1.19633
0.791801
0.898385
0.999515
1.02031
1.19335
0.786465
1.1093
1.17883
0.833559
1.0038
1.19427
1.13014
1.11712
1.15217
0.865808
1.12107
1.17645
1.00158
1.00022
1.19607
0.994432
0.979703
1.13534
1.17935
0.932904
0.84931
1.10788
1.17878
0.791913
1.19345
1.004
1.15063
1.16774
0.978097
1.1691
0.840998
1.14164
0.924542
0.971807
1.19475
1.13747
1.16631
0.928415
0.892594
0.868616
0.965523
1.19505
0.967999
1.19826
1.1879
0.969883
0.580134
0.931422
1.00601
1.19616
0.796539
1.1803
0.292961
1.04897
1.15241
1.13812
0.930356
1.08712
1.18701
1.18976
0.701771
1.00372
1.1632
0.857213
1.15097
1.09154
0.701553
1.17398
1.09511
1.18645
0.912159
1.06378
1.19051
1.09529
1.18431
0.70889
1.19408
0.91483
1.17245
0.860659
1.12798
0.885307
1.05995
1.18981
0.961295
1.12259
1.18061
0.937023
1.15395
1.1593
1.07307
1.08971
1.1793
1.15164
0.852609
1.14736
0.635151
1.01147
1.18366
1.0918
0.70381
1.17675
1.02221
1.18847
0.914229
0.855802
0.8854
0.940819
0.931263
1.19499
1.19516
1.18075
0.807049
0.328974
0.447462
1.18621
0.822402
0.88168
1.1074
1.17032
1.18769
0.632985
0.974816
0.968765
0.94749
0.940786
0.945122
1.1959
1.19663
1.17448
1.00434
0.497831
0.389893
1.1848
0.782147
1.08982
1.14026
1.15228
0.367541
0.825128
1.18263
1.07389
0.979035
1.18835
0.556784
0.977713
1.18805
0.824666
1.1731
0.194483
1.12281
1.17191
1.01743
1.05565
1.14287
1.15857
0.520352
1.18903
0.884372
1.03947
1.14298
1.16132
1.10132
1.14092
1.14902
1.15486
0.830183
1.16025
1.03927
1.16245
1.14599
1.05866
1.14324
1.14518
1.0487
0.909921
1.18627
1.19296
1.19244
0.921984
0.928185
0.604005
0.589054
0.592021
1.00925
1.1819
1.19505
1.00978
0.893541
1.11274
1.17581
0.975662
0.793385
1.12659
1.15895
0.894313
1.17242
0.262952
1.18194
0.587224
1.03987
0.447063
1.18497
0.888986
1.17373
0.802161
0.180462
0.764642
1.17783
0.238446
1.08629
0.821771
1.17818
0.969306
1.17191
0.393791
0.770151
1.02755
1.19136
0.615464
1.19196
0.856952
1.0317
1.17896
1.09591
1.01631
1.17826
0.528452
0.812698
1.15687
1.13266
1.10132
0.782594
1.18483
1.17417
0.704751
0.0783061
0.825688
1.17697
0.257507
1.05461
1.17833
1.09666
0.993662
0.497163
1.17654
1.17551
0.459793
1
0.644929
1.18849
0.969265
1.19557
0.924384
0.766116
1.0734
0.886292
1.18946
0.92805
0.918844
1.19991
1.19722
0.728553
0.881017
1.04381
1.02495
1.00509
0.993874
1.19117
1.19386
1.06269
0.99745
1.18882
0.992485
0.918822
1.19942
1.09491
0.740329
1.17651
1.00405
0.579606
1.18834
1.17878
0.72842
1.07247
0.765623
1.18055
0.277137
1.11494
1.10001
1.18109
1.03153
1.18131
1.04581
1.03665
1.03919
1.18932
0.937687
1.19515
0.949412
0.845113
1.17277
0.20642
0.997625
0.531032
1.17844
1.10873
1.17464
0.93847
1.11368
0.748685
1.16833
1.19612
0.923337
0.795268
0.872784
0.339006
1.17922
0.89621
0.356635
1.17892
0.948406
0.960177
1.19925
1.15987
1.16033
0.992061
0.610361
1.18896
0.948576
1.08666
0.789748
1.18749
1.19573
0.979213
0.764253
1.05873
1.18987
0.938809
0.917542
1.13671
1.16675
1.12269
1.17591
0.984673
1.18805
0.952649
0.571563
0.83531
0.986019
1.1965
1.12518
1.17296
1.03238
0.687504
1.19578
0.868287
1.05547
1.03042
1.18767
1.02159
1.12635
1.1774
1.10308
0.807525
1.17797
0.507979
1.189
0.832518
0.540705
1.19057
0.832155
1.1969
0.964194
0.764299
0.889149
1.14526
1.15829
1.18686
0.809635
0.462028
1.19006
1.01668
0.731447
1.17278
0.789224
0.145359
0.206747
0.731351
1.17722
1.19756
0.899417
0.734665
1.18485
0.933878
0.489743
0.654102
0.686706
1.19091
0.927287
1.1921
0.946153
0.720178
1.03226
1.18773
1.17616
1.12648
0.752267
1.10944
1.17298
1.07295
0.743609
1.05587
1.18802
1.18702
0.758645
1.06673
0.763103
1.19792
0.876509
1.02528
0.922167
1.19645
1.05344
0.97299
1.18767
0.8322
1.07081
1.19226
0.811828
1.07166
1.1895
1.13296
1.16388
1.05592
1.02001
0.973297
1.19797
1.17658
1.03127
0.532494
0.339748
1.17654
0.91487
0.300567
1.17317
0.919278
1.09315
1.18441
0.995665
0.862787
1.17598
0.2902
0.803659
1.19682
0.966202
1.17399
0.87154
0.251839
1.09051
1.16209
1.12179
0.967413
1.05797
1.18911
1.15035
0.908252
1.15695
1.1737
0.979565
0.43535
1.08835
0.794247
1.18447
1.19351
0.654519
0.874594
0.931097
1.05355
1.19661
1.11762
1.17294
1.08026
0.968047
0.459163
1.18005
1.19414
0.995425
0.730004
0.491866
0.457345
1.18631
1.18529
0.865585
0.852482
0.935059
1.10954
1.18334
1.09347
0.848467
1.17568
1.03432
1.11763
1.18416
0.937838
0.38162
0.945847
1.17753
0.371885
1.17533
0.867366
1.03447
1.19667
0.454629
0.416127
0.953129
0.940199
1.18119
1.17806
0.856755
1.10643
1.18999
0.973068
1.08631
1.18627
0.580664
1.19229
0.856433
0.951586
1.09329
1.18482
1.02107
1.10765
1.178
0.506131
1.18812
0.852348
0.936592
1.03244
1.19232
1.14551
0.796302
1.15508
1.06844
0.919173
1.18925
1.08455
1.16969
0.653566
1.17461
0.730714
0.118941
0.93289
1.07914
1.18871
0.606981
1.1904
0.893047
1.18121
0.872063
1.10247
0.293073
1.17967
0.759711
1.161
1.15023
1.15145
1.00009
1.15474
0.980849
1.03822
1.12611
1.17229
1.13362
1.14907
1.1637
1.01083
1.16488
0.99936
0.957121
1.09473
1.19061
0.972461
1.10202
1.18713
1.1727
0.936017
0.323785
1.07961
1.0088
1.18341
0.494238
0.950861
1.18466
0.819223
0.7864
1.05397
1.04247
1.18881
1.1872
1.07071
1.02857
1.1842
0.990273
0.959253
1.19401
0.873324
1.0606
1.19526
1.12309
1.09844
1.15863
0.774807
1.05599
1.18812
1.10832
1.1697
1.06985
0.876129
1.09382
1.18885
0.986644
0.980234
1.19358
1.1203
1.12701
1.08017
1.16931
1.0735
1.1672
1.13818
1.15602
1.15027
1.0524
1.16521
1.01257
1.04366
1.03017
1.01962
1.03006
1.1914
1.19071
1.19589
0.937254
0.772279
1.14944
0.828663
1.15003
1.19703
1.19561
0.93167
0.9477
0.732815
0.725118
1.12933
1.17264
0.8976
1.12546
1.15147
1.11731
0.764008
1.04173
1.18988
1.10496
1.18093
1.02322
0.968411
0.98229
1.19491
0.834993
0.838607
0.934729
1.19938
0.951278
1.19797
0.833599
1.03484
1.19143
0.329237
0.785993
1.18061
1.17538
0.881572
1.11124
1.08619
1.08889
1.18323
0.891523
1.18668
0.898022
0.752766
1.08253
1.18165
1.00827
0.957629
1.19373
1.12252
1.17546
0.910063
1.08377
1.08435
1.17934
1.18973
0.942334
0.940915
1.07703
1.18669
0.914868
0.841043
1.04814
1.19323
1.12261
1.16676
1.06718
0.554853
1.18801
0.891769
1.11448
1.17981
0.896426
0.974591
0.942645
0.994982
0.988314
1.19375
1.19924
1.19037
0.90095
0.585129
0.58047
1.19199
0.870059
0.54655
1.18884
0.872015
0.804307
1.19783
0.951513
1.02071
0.973844
1.193
1.08759
1.20949
1.20269
1.09377
1.22041
0.926267
1.21847
1.09025
1.17831
1.21399
1.21155
1.18064
1.10866
1.21981
1.22621
1.14503
1.08674
1.23737
1.21522
1.21156
1.22005
1.22691
1.207
1.19255
1.20792
1.20977
1.22433
1.19308
1.22367
1.09292
1.20247
1.21449
1.23218
1.21492
1.21762
1.2387
1.2098
1.20956
1.10741
1.13732
1.23589
1.18404
1.21887
1.21555
1.17243
1.24446
1.24624
1.25455
1.1802
1.23033
1.20129
1.21031
1.14832
1.27821
1.19729
1.19981
1.21796
1.23071
1.27321
1.21736
1.23225
1.21944
1.20717
1.09819
1.23745
1.21722
1.22348
1.19448
1.20859
1.17158
1.22921
1.23299
1.18945
1.20892
1.22596
1.20947
1.18744
1.21682
1.21199
1.2016
1.229
1.23444
1.17242
1.16337
1.24552
1.21438
1.24156
1.08918
1.23255
1.2002
1.15858
1.2185
1.20843
1.21135
1.1217
0.86889
1.21233
1.2588
1.12078
1.22427
1.22638
1.20878
1.17435
1.19246
1.15068
1.07272
1.18003
1.16595
1.21648
1.21054
1.2091
1.20246
1.18335
1.24622
1.13812
1.1739
1.24302
1.0921
1.21306
1.23254
1.2255
1.19155
1.18728
1.21014
1.21858
1.18496
1.19373
1.20074
1.04353
1.20757
1.23137
1.19652
1.17531
0.9793
1.07451
1.2024
1.20803
1.19199
1.20083
1.21323
1.13242
1.21297
1.15971
1.18201
1.18285
1.27964
1.15649
1.20473
1.19986
1.24492
1.17913
1.20522
1.10942
1.21362
1.21572
1.24192
1.21343
1.21196
1.20267
1.18731
1.18326
1.17997
1.18986
1.04204
1.11948
1.18107
1.18826
1.23816
1.19446
1.20003
1.22271
1.20151
1.21435
1.20252
1.15847
1.22253
1.18951
1.20124
1.17537
1.16341
1.02658
1.16394
1.2351
1.261
1.22585
1.2014
1.21404
1.23236
1.22368
1.2652
1.18506
0.969903
1.17755
1.20358
1.23458
1.19593
1.19512
1.20018
1.25262
1.18878
1.22167
1.07233
1.20826
1.20985
1.20819
1.1637
1.16073
1.27597
1.1905
1.20604
1.26124
1.08138
1.0178
1.20697
1.18978
1.13177
1.21398
1.0824
1.20956
1.24717
1.22147
1.25426
1.15588
1.13922
1.22378
1.21826
1.14635
1.1698
1.06747
1.21175
1.14
1.2119
1.20661
1.27683
1.17932
1.21712
1.22862
1.20333
1.12895
1.20309
1.21734
1.18507
1.20819
1.18426
1.13274
1.20312
1.23509
1.25044
1.13669
1.22007
1.21904
1.19385
1.22101
1.21435
1.15489
1.22598
1.14936
1.22529
1.18869
1.19864
1.23767
1.23734
1.00917
1.16453
1.194
1.15065
1.23751
1.21527
1.21836
1.2467
1.21708
1.12002
1.2324
1.2447
1.24944
1.2355
1.26763
1.22149
1.1964
1.17915
1.22242
1.18181
1.18331
1.21044
0.990241
1.18574
1.20696
1.20632
1.18837
1.12845
1.20234
1.21089
1.07815
1.00537
1.13254
1.18398
1.23219
1.1987
0.923353
1.14109
1.20815
1.23692
1.07905
1.18196
1.19229
1.22394
1.17732
1.27538
1.22253
1.19478
1.20406
1.23102
1.21392
1.18414
1.05843
1.21621
1.2139
0.987455
1.16119
1.16216
1.20193
1.22016
1.26091
1.19787
1.1618
1.13753
1.2372
1.21191
1.19467
1.16468
1.2088
1.21014
1.22019
1.22945
1.2399
1.22728
1.19626
1.25027
1.09661
1.18674
1.26873
1.21177
1.13835
1.11648
1.13404
1.091
1.21081
1.14058
1.19404
1.18894
1.18957
1.17041
1.11131
1.21198
1.21862
0.982454
1.22781
1.19333
1.18343
1.2076
1.25932
1.19143
1.18358
1.23229
1.21708
1.18611
1.22751
1.23649
1.2251
0.877007
1.13017
1.21353
1.21278
1.24396
1.24238
1.19796
1.20387
1.12416
1.1504
1.10811
1.04417
1.20905
1.2105
1.16722
1.21464
1.23607
1.20964
1.17909
1.0895
1.13291
1.18535
1.12903
1.20952
1.21624
1.17179
1.19982
1.2051
1.18247
1.20851
1.0855
1.20243
1.18237
1.19109
1.18909
1.19646
1.25277
1.23655
1.23093
1.17558
1.14589
1.05331
1.19317
1.17096
1.05009
1.12614
1.18249
1.1396
1.19016
1.23942
1.24357
1.15281
1.18733
1.19476
1.16315
1.18074
1.16036
1.07264
1.21877
1.20361
1.20293
1.21222
1.28206
1.22023
0.975913
1.20406
1.2192
1.15855
1.20751
0.952288
1.19735
1.2449
1.24252
1.19875
1.20705
1.17431
1.12436
1.19619
1.11677
1.21384
1.24795
1.13304
1.20041
1.09298
1.22341
1.21475
1.17713
1.19332
1.20991
1.19229
1.06892
1.22384
0.968849
1.28055
1.24428
1.17212
1.20358
1.03452
1.02814
1.20886
1.26186
1.19867
1.19403
1.23021
1.19515
1.2014
1.20191
1.19724
1.22938
1.17823
1.22562
1.23931
1.21102
1.19897
0.946993
1.19803
1.2066
1.22048
1.22358
1.20514
1.18343
1.23887
1.20716
1.19524
1.2061
1.12152
1.21402
1.21194
1.19808
1.19299
1.22323
1.21807
1.18599
1.13768
1.09107
1.21822
1.19112
1.20267
1.08185
0.964478
1.18002
1.19595
1.20695
1.19011
1.21365
1.23456
1.13705
1.18924
1.17811
1.20209
1.09998
1.21174
1.18278
1.20915
1.19123
1.1939
1.12726
1.25139
1.21686
1.14349
1.07887
1.23836
1.21737
1.21705
1.22141
1.21455
1.16377
1.20372
1.21038
1.15746
1.19962
1.19724
1.19521
1.082
1.19851
1.18659
1.20126
1.22565
1.22702
1.21343
1.19231
1.27388
1.10911
1.19264
1.21622
0.936656
1.19684
1.2275
1.21938
1.21329
1.22058
1.23733
1.21752
1.18747
1.20083
1.20105
1.19998
1.23402
1.16681
1.22151
1.2706
1.17512
1.24491
1.23748
1.18715
1.23782
1.18397
1.19238
1.20008
1.2088
1.20342
1.17519
1.14688
1.17203
1.19527
1.22589
1.19763
1.2382
1.19759
1.25778
1.243
1.197
1.24187
1.2055
1.13875
1.16006
1.19139
0.853196
1.1718
1.21693
1.23639
1.2041
1.2432
1.23557
1.22603
1.16372
1.18283
1.25703
0.871001
1.19988
1.15302
1.25637
1.18698
1.14955
1.23519
1.10758
1.19344
1.17416
1.1968
1.20052
1.20502
1.0755
1.01463
1.23721
1.18332
1.19263
1.23833
1.01791
1.26318
1.26765
1.1653
1.10961
1.24426
1.24876
1.19773
1.0944
1.20988
1.2112
1.28215
1.11872
1.2111
1.1854
0.855093
1.2416
1.20243
1.19325
1.21938
1.21322
1.25248
1.21667
1.21986
1.19874
1.20199
1.2316
1.2192
1.19544
1.21003
1.22732
1.21415
1.25839
1.19691
1.14304
1.20735
1.20211
1.21161
1.20282
1.21072
1.2421
1.17181
1.21247
1.21959
0.811058
1.18126
1.24032
1.14999
1.21719
1.16019
1.19717
1.18816
1.20868
1.16108
1.20384
1.20616
1.17435
1.22232
1.21488
1.01792
1.1478
1.19046
1.17818
1.02004
1.21005
1.24205
1.20859
1.21772
1.20526
1.10454
1.13202
1.18995
1.22495
1.20186
1.20284
1.10772
1.25736
1.20076
1.23025
1.17418
1.22272
1.22153
1.16859
1.22679
1.20973
1.1742
1.19522
1.20739
1.1778
1.18867
1.16474
1.20002
1.2148
1.20735
1.18947
1.1999
1.21335
1.16898
1.16602
1.24469
1.19219
1.13839
1.2406
1.14112
1.1698
1.17493
1.27449
1.19772
1.20749
1.14942
1.22048
1.23353
1.21212
1.1872
1.23254
1.2173
1.20855
1.21075
1.08003
1.19124
1.19866
1.23941
1.20088
1.21726
1.19568
1.22286
1.2595
1.1788
1.21984
1.23019
1.24288
1.20173
1.16912
1.09452
1.21732
1.26615
1.1439
1.21314
1.16974
1.20562
1.22095
0.96879
1.15107
1.07241
1.10281
1.223
1.21558
1.24108
1.22705
1.2135
1.16257
1.1972
1.26264
1.07222
1.21652
1.15519
1.1911
1.23773
1.204
1.15261
1.16272
1.25597
1.19438
1.20781
1.21589
1.26571
1.20439
1.23154
1.20719
1.23867
1.18858
1.19596
1.15931
1.04592
1.19062
1.19755
1.23232
1.17518
1.22024
1.20236
1.20667
1.20475
1.20565
1.2095
1.0606
1.18962
1.09895
1.16351
1.21728
1.16202
1.20192
1.18311
1.21756
1.12096
1.15938
1.05459
1.19696
1.21826
1.0581
1.20008
1.21189
1.13416
1.11447
1.22236
1.19379
1.20994
1.11374
1.21061
1.21342
1.2028
1.26445
1.18462
1.22031
1.20936
1.20928
1.15204
1.20412
1.22988
1.19829
1.19612
1.19577
1.06584
1.15842
1.198
1.16416
1.19714
1.20704
1.20499
1.22511
1.16216
1.19066
1.20143
1.22289
1.12305
1.2055
1.19307
1.22646
1.14473
1.10644
1.15022
1.08269
1.22054
1.11973
1.21888
1.23728
1.22559
1.12948
1.2325
1.20539
1.21621
1.23922
1.20763
1.23043
1.22443
1.20088
1.20354
1.20682
1.20413
1.20122
1.2287
1.2003
1.22828
1.24697
1.21787
1.20747
1.20743
1.22283
1.20943
1.22107
1.14763
1.04931
1.20051
1.16801
1.24829
1.22236
1.22833
1.20208
1.20342
1.16605
1.2171
1.1848
1.21919
1.22399
1.22668
1.2245
1.20154
1.26142
1.20584
1.20199
1.13455
1.20402
1.22058
1.14959
1.16763
1.20102
1.21132
1.19483
1.1659
1.20198
1.22835
1.24377
1.20814
1.22696
1.20567
1.23335
1.19755
1.22132
1.246
1.22986
1.20805
1.224
1.1667
1.12855
1.23538
1.21733
1.17322
1.14095
1.19547
1.26246
1.18979
1.20237
1.17504
1.19871
1.19583
1.21386
1.20834
1.22302
1.22324
1.06988
1.24346
1.1876
1.18701
1.20125
1.22791
1.13342
1.17898
1.16932
1.19705
1.20117
1.20763
1.19336
1.1752
1.25659
1.18826
1.19559
1.18952
1.2296
1.0132
1.15298
1.19682
1.25413
1.14349
1.18849
1.22833
1.22664
1.18126
1.21483
1.18935
1.2025
1.20567
1.22133
1.21241
1.19364
1.1572
1.20797
1.21967
1.21963
1.1972
1.01887
1.27579
0.992976
1.22378
1.20165
1.27857
1.20607
1.20649
1.20104
1.22198
1.20127
1.22692
1.09014
1.20221
1.21885
1.15064
1.2169
0.932517
1.15187
1.17124
1.21359
1.20426
1.19458
1.17247
1.25053
1.19365
1.02796
1.17055
1.25747
1.04053
1.11752
1.17182
1.11562
1.22237
1.18599
1.17978
1.19585
0.935738
1.16449
1.26162
1.22204
1.16387
1.21941
1.24974
1.17693
1.15991
1.25783
1.21578
1.14318
1.21893
1.20995
1.18173
1.16055
1.20097
1.19309
1.21015
1.22275
1.06681
1.16337
1.21859
1.23188
1.19067
1.1964
1.25919
1.00859
1.17863
1.20991
1.18772
1.19724
1.19669
1.2615
1.03377
1.01507
1.1916
1.15357
1.2279
1.22092
1.24772
1.18174
1.00883
1.1924
1.19347
1.21421
1.25722
1.15707
1.22898
1.19084
1.21907
1.19096
1.20958
1.2051
1.14867
1.21574
1.20215
1.19506
1.06371
1.22647
1.17322
1.16859
1.19396
1.2036
1.20141
1.20654
1.21402
1.2179
1.13328
1.10814
1.1986
1.16891
1.19726
1.06875
1.13781
1.152
1.15475
1.19462
1.02991
1.19276
1.17801
1.19482
1.26952
1.18981
1.2127
1.15201
1.19533
1.20346
1.198
1.24025
1.20058
1.16871
1.26231
1.1583
1.21399
1.20444
1.03168
1.19882
1.21745
1.23367
1.19587
1.25907
1.18195
1.21183
1.1912
1.20402
1.16924
1.26614
1.17766
1.06498
1.21537
1.14664
1.26124
1.17197
1.21785
1.28013
1.20284
1.20048
1.19116
1.19926
1.2513
1.27016
1.20708
1.08634
1.13083
1.20034
1.1851
1.16283
1.2211
1.20769
1.19173
1.13662
1.18244
1.21458
1.16402
1.09353
1.2514
1.15107
1.2502
1.21076
1.22685
1.19885
1.18746
1.09408
1.21893
1.20908
1.20348
1.20832
1.2117
1.11141
1.19981
1.01364
1.24049
1.05423
1.23685
1.19471
1.25295
1.26451
1.25802
1.18694
1.19759
1.21822
1.19938
1.09799
1.26281
1.17754
1.2615
1.14906
1.20294
1.18553
1.12963
1.19635
1.20755
1.12804
1.19424
1.18196
1.22036
1.21866
1.21213
1.06626
1.1841
1.24947
1.20696
1.22772
1.17411
1.16643
1.18268
1.20969
1.2062
1.20259
1.19329
1.21793
1.19208
1.16335
1.23072
1.1494
1.21929
1.23436
1.209
1.19923
1.20877
1.26172
1.21047
1.19868
1.19931
1.25738
1.15835
1.20386
0.989547
1.19241
1.04507
1.19676
1.21028
1.24999
1.26736
1.15972
1.23747
1.04205
1.09471
1.1422
1.11081
1.19691
1.17357
1.15783
1.08728
1.15947
1.26601
1.20313
1.20028
1.17337
1.15684
1.22684
1.20618
1.19647
1.16439
1.19989
1.20611
1.25536
1.20008
1.20281
1.19776
1.17162
1.2171
1.11485
1.20588
1.19601
1.20547
1.224
1.19171
1.20091
1.1723
1.26279
1.19911
1.15536
1.18808
1.20184
1.19004
1.21317
1.19999
1.20458
1.21067
1.19182
1.21325
1.1807
1.23127
1.19968
1.20634
1.16315
1.19841
1.22584
1.19787
1.204
1.20294
1.1473
1.13873
1.16907
1.18783
1.20898
1.06612
1.15748
1.21039
1.21326
1.23242
1.16662
1.21987
1.2201
1.22493
1.21789
1.12961
1.22303
1.2231
1.20423
1.22241
1.17268
1.21574
1.22802
1.2321
1.20434
1.20832
1.06494
1.20767
1.21513
1.21102
1.21069
1.2171
1.23627
1.20255
1.19007
1.21086
1.18285
1.14239
1.1991
1.20741
1.20923
1.17828
1.21386
1.19017
1.21344
1.21815
1.22472
1.12588
1.20938
1.18744
1.20003
1.18733
1.14597
1.14038
1.19909
1.21552
1.16304
1.13985
1.16714
1.21092
1.21215
1.22221
1.19398
1.19293
1.17195
1.21368
1.22652
1.1581
1.22616
1.21585
1.17954
1.25661
1.21079
1.06018
1.17475
1.20825
1.19036
1.20817
1.1588
1.19966
1.22943
1.21152
1.19483
1.2354
1.20239
1.15065
1.22612
1.15201
1.1855
1.12508
1.21007
1.15514
1.15905
1.21317
1.18229
1.16722
1.21226
1.20012
1.20262
1.27228
1.13495
1.21014
1.18832
1.07285
1.2458
1.21255
1.19895
1.20085
1.21529
1.20537
1.12765
1.21473
1.13392
1.2084
1.26037
1.0993
1.20955
1.20006
1.23448
1.19865
1.21125
1.19126
1.221
1.25019
1.19981
1.24732
1.18452
1.18641
1.20992
1.20394
1.2192
1.08205
1.16591
1.17455
1.2008
1.19349
1.19746
1.12759
1.19232
1.16937
1.2177
1.22531
1.23011
1.20541
1.1914
1.05938
1.21226
1.12876
1.21829
1.0906
1.16677
1.20442
1.20021
1.18917
1.19213
1.22372
1.20292
1.05161
1.17852
1.17127
1.16846
0.978334
1.22409
1.17588
1.22253
1.21515
1.20896
1.19727
1.02813
1.02294
1.21174
1.22776
1.05712
1.17684
1.18289
1.22366
1.21189
1.11273
1.27875
1.1271
1.19187
1.2042
1.19763
1.20928
1.21519
1.19122
1.22801
1.21116
1.18858
1.2246
1.20887
1.20172
1.20265
1.15971
1.09618
1.02855
1.10206
1.19818
1.17617
1.15444
1.07661
1.14439
1.20888
1.09812
1.20407
1.13712
1.20887
1.1837
1.19257
1.21805
1.23947
1.18001
1.20332
1.22038
1.22491
1.15259
1.19229
1.16057
1.18244
1.19052
1.21236
1.20546
1.20394
1.14702
1.19272
1.1838
1.19713
1.18722
1.2034
1.20083
1.21364
1.16854
1.18985
1.22626
1.21183
1.10862
1.19612
1.14608
1.16866
1.20996
1.19487
1.22045
1.20147
1.25092
1.03374
1.1473
1.19788
1.13208
1.24491
1.15698
1.21489
1.16817
1.20302
1.19654
1.18317
1.1187
1.21066
1.19387
1.23876
1.22698
1.20275
1.15388
1.18649
1.21221
1.22556
1.20561
1.20074
1.19149
1.20419
1.19258
1.1966
1.20609
1.16496
1.16937
1.19323
1.21591
1.17575
1.19288
1.21294
1.21344
1.21337
1.15451
1.11881
1.19643
1.26539
1.2021
1.22939
1.21145
1.22378
1.19995
1.22419
1.18822
1.19641
1.22215
1.23361
1.21117
1.19916
1.21281
1.04883
0.92675
1.20806
1.17378
1.21023
1.24278
1.18466
1.14712
1.23312
1.1227
1.26359
1.23245
1.18609
1.20964
1.27383
1.14308
1.15181
1.16052
1.09423
1.19963
1.21118
1.21436
1.13947
1.17116
1.20724
1.13509
1.17993
1.22756
1.23062
1.14698
1.03286
1.21845
1.19483
1.20434
1.22297
1.21747
1.21247
1.19139
1.19144
1.16522
1.09322
1.20553
1.22071
1.20916
1.207
1.19607
1.2102
1.21364
1.27146
1.1932
1.15349
1.18671
1.19296
1.21257
1.21187
1.20337
1.19825
1.14912
1.21165
1.21285
1.17056
1.20211
1.18277
1.20037
1.1911
1.23734
1.19466
1.1957
1.17842
1.20444
1.19748
1.1854
1.1827
1.20383
1.21461
1.22722
1.13056
1.14633
1.24731
1.20524
1.23308
1.21025
1.20898
1.22363
1.24378
1.19978
1.19336
1.19495
1.14011
1.24699
1.18346
1.17791
1.22159
1.07817
1.25326
1.08132
1.21198
1.24656
1.26415
1.20617
1.18241
1.22115
1.27146
1.24513
1.22299
1.21988
1.21733
1.19688
1.22694
1.18929
1.16211
1.20948
1.21218
1.25486
1.19361
1.15966
1.13841
1.19221
1.21733
1.19669
1.19844
1.18863
1.15307
1.19701
1.12229
1.25597
1.1565
1.20777
1.20306
1.21047
1.26235
1.23584
1.15344
1.25407
1.21411
1.22295
1.27896
1.1867
1.2243
1.18694
1.20372
1.19586
1.25035
1.18114
1.1895
1.1765
1.23347
1.10691
1.14238
1.23711
1.05065
1.12614
1.197
1.20011
1.17043
1.26723
1.20169
1.09207
1.19632
1.15892
1.16225
1.18058
1.16251
1.22183
1.20132
1.22426
1.2153
1.19875
1.19222
1.26565
1.20131
1.21282
1.21799
1.21307
1.2199
1.24347
1.18393
1.10657
1.2019
1.23397
0.931031
1.23379
1.19897
1.2004
1.20132
1.21514
1.20277
1.25159
1.24217
1.18026
1.18546
0.950297
1.18021
1.09845
1.2181
1.24081
1.13391
1.16777
1.19164
1.18765
1.14476
1.22465
1.22156
1.19045
1.20366
1.20963
1.21557
1.15453
1.27047
1.20726
1.26794
1.23469
1.18947
0.959107
1.18027
1.23163
1.20312
1.19325
1.2034
1.25435
1.22069
1.16468
1.20019
1.22372
1.27136
1.24952
1.23985
1.20321
1.22407
1.19676
1.11245
1.19907
1.20881
1.22053
1.13964
1.19222
1.23746
1.16134
1.22634
1.15577
1.22303
1.25325
1.19151
1.20428
1.0897
1.20187
1.18284
1.18644
1.24518
1.19232
1.14373
1.20145
1.20087
1.22892
1.16235
1.26574
1.14599
1.07235
1.20294
1.21068
1.22512
1.19989
1.10626
1.21681
1.03271
1.19426
1.1811
1.18556
1.15636
1.21621
1.13861
1.15467
1.1721
1.10796
1.22883
1.21549
1.19849
1.15556
1.24068
1.22279
1.21652
1.22181
1.19103
1.20067
1.21664
1.19567
1.19242
1.1744
1.21469
1.21182
1.22729
1.21034
1.24547
1.11414
1.2612
1.21678
1.22036
1.12574
1.2009
1.24965
1.17632
1.22129
1.15756
1.20946
1.18907
1.14383
1.26374
1.24341
1.25613
1.1825
1.27186
1.22974
1.19573
1.19768
1.21272
1.15568
1.22923
1.20471
1.19325
1.22245
1.22171
1.24853
1.21973
1.21585
1.25569
1.21793
1.00658
1.11546
1.26278
1.22045
1.1798
1.12956
1.25856
1.19403
1.11941
1.15993
1.21748
1.15493
1.20624
1.21006
1.27278
1.23566
1.16856
1.21886
1.16398
1.22048
1.22574
1.20256
1.19768
1.18774
1.20313
1.12004
1.20054
1.21847
1.21528
1.15667
1.20361
1.2192
1.19142
1.20475
1.11393
1.22783
1.20413
1.1292
1.20526
1.16862
1.24676
0.987034
1.24986
1.16551
1.23447
1.22652
1.18625
1.24606
1.15717
1.22628
1.20153
1.16155
1.23109
1.21811
1.21759
1.19318
1.19327
1.24239
1.09271
1.21152
1.23407
1.19775
1.23663
1.23101
1.23089
1.23904
1.20422
1.26249
1.26537
1.17127
1.27597
1.07792
1.17257
1.20263
0.872953
1.18652
1.20646
1.2096
1.20097
1.24962
1.19568
1.17917
1.21672
1.23258
1.2186
1.23922
1.20737
1.2119
1.15373
1.20883
1.19096
1.22826
1.22058
1.17475
1.21403
1.18045
1.1566
1.26572
1.20529
1.20408
1.16957
1.23977
1.2771
1.18867
1.21889
1.18986
1.17668
1.23904
1.20415
1.20361
1.17087
1.19996
1.10272
1.26055
1.2307
1.23792
1.14211
1.11937
1.21775
1.09597
1.15453
1.2
1.24451
1.13564
1.15564
1.16926
1.18252
1.20233
1.19722
1.13621
1.20542
1.2196
1.21683
1.19242
1.21279
1.20019
1.23603
1.19653
1.21249
1.19854
1.21502
1.20379
1.19353
1.12689
1.0958
1.22919
1.16625
1.25622
1.00526
1.02809
1.20295
1.20245
1.18867
1.19989
1.22285
1.19981
1.22858
1.17097
1.21029
1.21031
1.25957
1.11494
1.1735
1.19121
1.21152
1.18576
1.16766
1.25329
1.26045
1.20352
1.21437
1.15622
1.17072
1.189
1.23644
1.19586
1.21875
1.23079
1.20587
1.00468
1.20993
1.21937
1.22008
1.19925
1.16937
1.18799
1.23941
1.12271
1.20367
1.16552
1.19417
1.01147
1.23007
1.20216
1.17426
1.15745
1.16144
1.11103
1.17182
1.23218
1.18993
1.1914
1.13083
1.23968
1.20345
1.17003
1.19338
1.20981
1.20604
1.22928
1.23078
1.19405
1.15909
1.12321
1.21505
1.20218
1.21977
1.22637
1.09657
1.19213
1.25042
1.25584
1.20736
1.19062
1.2097
1.21506
1.18076
1.19763
1.20221
1.15734
1.25662
1.2234
1.15189
1.19836
1.18846
1.19464
1.28144
1.25961
1.14519
1.21431
1.21021
1.19539
1.20313
1.19385
1.25221
1.26754
1.2652
1.18036
1.2075
1.25912
1.15161
1.20847
1.10454
1.00028
1.23853
1.19663
1.1972
1.21098
1.14271
1.0997
1.17539
1.2143
1.19377
0.944565
1.26577
1.23141
1.19652
1.21387
1.20425
1.21164
1.19428
1.21202
1.243
1.22648
1.18804
1.1972
1.26171
1.1747
1.18022
1.21803
1.1597
1.19746
1.27316
1.20223
1.13485
1.20517
1.22074
1.08797
1.12276
1.23302
1.21531
1.18617
1.10239
1.18696
1.23867
1.22893
1.20404
1.17561
1.20307
1.13241
1.2708
1.18565
1.13538
1.20202
1.27822
1.18759
1.14801
1.1737
1.20163
1.25378
1.23337
1.22627
1.2527
1.27096
1.2374
1.17928
1.19784
1.19087
1.19206
1.17941
1.14939
1.20742
1.24102
1.21842
1.16909
1.19212
1.0749
1.175
1.23836
1.19184
1.2299
1.19052
1.21911
1.14342
1.24613
1.12378
1.25236
1.18574
1.19727
1.13962
1.19973
1.17975
1.19548
1.2705
1.17726
1.15928
1.11679
1.21837
1.18057
1.14516
1.14178
1.1411
1.19935
1.20875
1.20629
1.13106
1.20408
1.20637
1.24727
1.20936
1.18644
1.20675
1.21711
1.22495
1.19965
1.23979
1.19746
1.23204
1.18694
1.19784
1.1906
1.19957
1.21373
1.10586
1.22737
1.21214
1.25237
1.18278
1.213
1.20144
1.19775
1.20054
1.12156
1.22994
1.1762
1.02343
1.13124
1.1973
1.2042
1.21936
1.213
1.20795
1.21075
1.09601
1.20345
1.20403
1.16777
1.15742
1.22406
1.17146
1.11027
1.11618
1.20342
1.22055
1.18854
1.18367
1.11524
1.1658
1.22452
1.15551
1.16262
1.21283
1.13264
1.13068
1.19912
1.18928
1.22162
1.2111
1.14532
1.2244
1.23697
1.16879
1.21363
1.21371
1.10518
1.2169
1.21891
1.19622
0.901561
1.0951
1.19711
1.15821
1.21638
1.26392
1.17318
1.22501
1.14747
1.21046
1.2087
1.17678
1.17947
1.23273
1.13195
1.16667
1.206
1.12806
1.16578
1.27619
1.15785
1.22084
1.19915
1.14768
1.18732
1.25454
1.20868
1.13051
1.18378
1.12884
1.22501
1.20407
1.20357
1.25679
1.19739
1.18291
1.20596
1.21216
1.16594
1.157
1.19998
1.16356
1.20221
1.2099
0.994085
1.20386
1.17191
1.19739
1.21314
1.16094
1.18137
1.20746
1.26588
1.21259
1.26326
1.177
1.1977
1.09073
1.19973
1.17403
1.10738
1.19624
1.20132
1.16623
1.20055
0.892925
1.19351
1.21292
1.20794
1.22626
1.15471
1.1999
1.15192
1.21544
1.21605
1.10533
1.21022
1.13131
1.19761
1.00299
1.25349
1.17832
1.09631
1.14059
1.09923
0.934285
1.08331
1.19235
1.21935
1.17184
1.20467
1.13958
1.19866
1.03953
1.14188
1.17315
1.19923
1.19617
1.21311
1.23558
1.25169
1.073
1.20866
1.12216
1.20481
1.03538
1.22274
1.05458
1.21846
1.15374
1.20471
1.22344
1.23055
1.18132
1.20048
1.20142
1.22967
1.23135
1.18683
1.21296
1.12107
1.20909
1.20967
1.21795
1.04674
1.18029
1.22329
1.12506
1.25169
0.971852
1.21177
1.24789
1.20633
1.23944
1.22247
1.20288
1.23184
1.1474
1.18255
1.10138
1.22922
1.18049
1.21522
1.21984
1.22752
1.20423
1.20577
1.05241
1.19437
1.22601
1.20348
1.20547
1.25611
1.15688
1.22105
1.15069
1.19712
1.20104
1.19858
1.26
1.20961
1.27187
1.20951
1.20435
1.21453
1.1547
1.07949
1.23633
1.20798
1.20082
1.21959
1.23137
1.21092
1.16191
1.21418
1.24988
1.17441
1.13158
1.19935
1.19687
1.20937
1.16363
1.19243
1.16923
1.18108
1.19787
1.19739
1.20428
1.21018
1.17285
1.18386
1.20042
1.26826
1.26204
1.09466
1.18946
1.21525
1.18983
1.2119
1.2006
1.23612
1.21475
1.24827
1.14932
1.19425
1.21339
1.25054
0.970057
1.20494
0.964336
1.14446
1.24231
1.19798
1.19893
1.12919
1.19496
1.15014
1.15624
1.20788
1.13616
1.1885
1.20021
1.218
1.12796
1.20909
0.976975
1.19766
1.24036
1.2191
1.23062
1.18458
1.15072
1.25127
1.25984
1.12464
1.21895
1.20811
1.20782
1.12217
1.18542
1.12414
1.22238
1.22407
1.27836
1.10263
1.18998
1.13576
1.16968
1.27708
1.09503
1.16047
1.21648
1.21681
1.13268
1.28236
1.04872
1.22183
1.19715
1.19565
1.19315
1.07196
1.12738
1.21371
1.17998
1.19542
1.21296
1.20797
1.18472
1.05895
0.998474
1.22288
1.20986
1.13883
1.21752
1.16413
1.24057
1.20078
1.11755
1.14342
1.19992
1.22091
1.19871
1.20704
1.19469
1.1642
1.21384
1.23576
1.27162
1.16068
1.18531
1.20144
1.21929