/*--------------------------------*- C++ -*----------------------------------*\
  =========                 |
  \\      /  F ield         | OpenFOAM: The Open Source CFD Toolbox
   \\    /   O peration     | Website:  https://openfoam.org
    \\  /    A nd           | Version:  6
     \\/     M anipulation  |
\*---------------------------------------------------------------------------*/
FoamFile
{
    version     2.0;
    format      ascii;
    class       volScalarField;
    location    "0";
    object      T;
}
// * * * * * * * * * * * * * * * * * * * * * * * * * * * * * * * * * * * * * //

dimensions      [0 0 0 1 0 0 0];

internalField   nonuniform List<scalar> 
10000
(
298.865
298.895
298.924
298.952
298.979
299.003
299.027
299.048
299.069
299.088
299.106
299.122
299.138
299.152
299.166
299.179
299.191
299.202
299.212
299.222
299.232
299.24
299.249
299.257
299.264
299.271
299.278
299.284
299.29
299.295
299.3
299.305
299.31
299.314
299.318
299.321
299.325
299.328
299.33
299.333
299.335
299.338
299.34
299.342
299.343
299.345
299.347
299.348
299.35
299.351
299.353
299.354
299.355
299.357
299.358
299.36
299.361
299.362
299.364
299.365
299.367
299.368
299.37
299.371
299.373
299.374
299.376
299.377
299.379
299.381
299.383
299.385
299.387
299.389
299.392
299.395
299.398
299.401
299.405
299.41
299.415
299.422
299.429
299.439
299.45
299.464
299.481
299.502
299.53
299.564
299.608
299.665
299.739
299.833
299.953
300.104
300.291
300.515
300.772
301.054
298.866
298.896
298.926
298.954
298.981
299.006
299.03
299.052
299.072
299.092
299.11
299.126
299.142
299.156
299.17
299.182
299.194
299.205
299.215
299.225
299.234
299.243
299.251
299.259
299.266
299.273
299.28
299.286
299.291
299.297
299.302
299.307
299.311
299.315
299.319
299.323
299.326
299.329
299.332
299.334
299.336
299.339
299.341
299.342
299.344
299.346
299.347
299.349
299.35
299.352
299.353
299.355
299.356
299.357
299.359
299.36
299.361
299.363
299.364
299.366
299.367
299.369
299.37
299.371
299.373
299.374
299.376
299.378
299.379
299.381
299.383
299.385
299.387
299.389
299.392
299.395
299.398
299.401
299.405
299.41
299.415
299.421
299.428
299.437
299.448
299.461
299.478
299.498
299.525
299.558
299.6
299.655
299.726
299.818
299.936
300.087
300.274
300.5
300.763
301.051
298.866
298.898
298.929
298.959
298.987
299.013
299.038
299.061
299.082
299.102
299.12
299.137
299.153
299.167
299.18
299.193
299.204
299.215
299.225
299.234
299.242
299.251
299.258
299.266
299.273
299.279
299.285
299.291
299.296
299.302
299.306
299.311
299.315
299.319
299.323
299.326
299.329
299.332
299.334
299.337
299.339
299.341
299.343
299.345
299.346
299.348
299.349
299.351
299.352
299.353
299.355
299.356
299.357
299.359
299.36
299.361
299.363
299.364
299.365
299.367
299.368
299.369
299.371
299.372
299.374
299.375
299.377
299.378
299.38
299.382
299.384
299.385
299.388
299.39
299.392
299.395
299.398
299.401
299.405
299.409
299.414
299.42
299.427
299.435
299.446
299.458
299.474
299.493
299.518
299.549
299.59
299.643
299.712
299.801
299.918
300.068
300.256
300.486
300.754
301.048
298.867
298.902
298.935
298.967
298.997
299.026
299.052
299.077
299.099
299.12
299.139
299.157
299.173
299.187
299.2
299.212
299.223
299.233
299.242
299.25
299.258
299.265
299.272
299.279
299.285
299.291
299.296
299.301
299.306
299.31
299.315
299.319
299.322
299.326
299.329
299.332
299.335
299.337
299.339
299.342
299.344
299.345
299.347
299.349
299.35
299.351
299.353
299.354
299.355
299.356
299.357
299.358
299.36
299.361
299.362
299.363
299.364
299.366
299.367
299.368
299.369
299.371
299.372
299.373
299.375
299.376
299.378
299.379
299.381
299.383
299.384
299.386
299.388
299.39
299.393
299.395
299.398
299.401
299.405
299.409
299.414
299.419
299.426
299.434
299.443
299.455
299.47
299.488
299.512
299.542
299.581
299.632
299.699
299.788
299.904
300.054
300.245
300.477
300.749
301.046
298.869
298.906
298.943
298.978
299.011
299.042
299.071
299.098
299.123
299.145
299.166
299.184
299.201
299.215
299.229
299.24
299.251
299.26
299.268
299.275
299.282
299.288
299.293
299.299
299.304
299.308
299.313
299.317
299.32
299.324
299.327
299.33
299.333
299.336
299.339
299.341
299.343
299.345
299.347
299.349
299.35
299.352
299.353
299.354
299.355
299.356
299.357
299.358
299.359
299.36
299.361
299.362
299.363
299.364
299.365
299.366
299.367
299.368
299.369
299.37
299.371
299.373
299.374
299.375
299.377
299.378
299.379
299.381
299.383
299.384
299.386
299.388
299.39
299.392
299.394
299.396
299.399
299.402
299.405
299.409
299.414
299.419
299.425
299.432
299.441
299.453
299.466
299.484
299.507
299.536
299.574
299.624
299.691
299.779
299.896
300.047
300.24
300.474
300.747
301.046
298.871
298.912
298.952
298.991
299.028
299.062
299.095
299.124
299.152
299.176
299.198
299.218
299.236
299.251
299.264
299.276
299.286
299.294
299.302
299.308
299.313
299.318
299.322
299.326
299.329
299.332
299.335
299.338
299.34
299.343
299.345
299.347
299.349
299.35
299.352
299.353
299.355
299.356
299.357
299.358
299.359
299.36
299.361
299.362
299.362
299.363
299.364
299.364
299.365
299.365
299.366
299.367
299.367
299.368
299.369
299.37
299.37
299.371
299.372
299.373
299.374
299.375
299.377
299.378
299.379
299.38
299.382
299.383
299.385
299.386
299.388
299.389
299.391
299.393
299.395
299.398
299.4
299.403
299.406
299.41
299.414
299.419
299.425
299.432
299.44
299.451
299.464
299.481
299.503
299.532
299.57
299.62
299.687
299.776
299.893
300.046
300.24
300.476
300.749
301.047
298.873
298.918
298.963
299.006
299.047
299.085
299.121
299.154
299.184
299.211
299.236
299.257
299.276
299.292
299.306
299.317
299.327
299.335
299.342
299.347
299.351
299.354
299.357
299.359
299.36
299.362
299.363
299.364
299.365
299.366
299.367
299.367
299.368
299.368
299.369
299.369
299.37
299.37
299.37
299.37
299.371
299.371
299.371
299.371
299.371
299.371
299.371
299.372
299.372
299.372
299.372
299.372
299.373
299.373
299.374
299.374
299.375
299.375
299.376
299.377
299.378
299.379
299.38
299.381
299.382
299.383
299.384
299.386
299.387
299.389
299.39
299.392
299.394
299.396
299.398
299.4
299.402
299.405
299.408
299.411
299.415
299.42
299.426
299.432
299.44
299.451
299.463
299.48
299.502
299.53
299.568
299.619
299.686
299.776
299.895
300.049
300.244
300.481
300.753
301.049
298.875
298.925
298.975
299.022
299.067
299.11
299.149
299.186
299.219
299.249
299.275
299.299
299.319
299.336
299.351
299.362
299.372
299.38
299.386
299.39
299.393
299.395
299.396
299.397
299.397
299.396
299.396
299.395
299.394
299.394
299.393
299.392
299.391
299.39
299.389
299.388
299.387
299.387
299.386
299.385
299.384
299.384
299.383
299.382
299.382
299.381
299.381
299.381
299.38
299.38
299.38
299.38
299.379
299.38
299.38
299.38
299.38
299.381
299.381
299.382
299.382
299.383
299.384
299.385
299.386
299.387
299.388
299.389
299.39
299.392
299.393
299.395
299.397
299.398
299.4
299.402
299.405
299.407
299.41
299.414
299.417
299.422
299.427
299.433
299.441
299.451
299.464
299.48
299.502
299.53
299.569
299.62
299.688
299.78
299.9
300.056
300.252
300.488
300.759
301.051
298.878
298.932
298.986
299.038
299.088
299.135
299.179
299.219
299.255
299.287
299.316
299.341
299.363
299.382
299.397
299.409
299.419
299.427
299.432
299.436
299.438
299.439
299.439
299.438
299.436
299.434
299.432
299.43
299.427
299.425
299.422
299.419
299.417
299.415
299.412
299.41
299.408
299.406
299.404
299.402
299.4
299.399
299.397
299.396
299.394
299.393
299.392
299.391
299.39
299.389
299.389
299.388
299.387
299.387
299.387
299.387
299.387
299.387
299.387
299.387
299.388
299.388
299.389
299.389
299.39
299.391
299.392
299.393
299.394
299.396
299.397
299.399
299.4
299.402
299.404
299.406
299.408
299.41
299.413
299.416
299.42
299.424
299.429
299.435
299.443
299.453
299.465
299.481
299.503
299.532
299.571
299.623
299.693
299.786
299.908
300.065
300.262
300.497
300.765
301.053
298.88
298.94
298.998
299.055
299.109
299.16
299.208
299.251
299.291
299.326
299.357
299.384
299.407
299.427
299.443
299.456
299.466
299.474
299.479
299.483
299.484
299.484
299.483
299.48
299.478
299.474
299.47
299.466
299.462
299.458
299.454
299.45
299.445
299.442
299.438
299.434
299.431
299.427
299.424
299.421
299.418
299.416
299.413
299.411
299.409
299.407
299.405
299.403
299.401
299.4
299.399
299.398
299.397
299.396
299.395
299.394
299.394
299.394
299.394
299.394
299.394
299.394
299.394
299.395
299.396
299.396
299.397
299.398
299.399
299.4
299.402
299.403
299.404
299.406
299.408
299.41
299.412
299.414
299.417
299.42
299.423
299.427
299.432
299.438
299.445
299.455
299.467
299.484
299.506
299.535
299.575
299.628
299.699
299.793
299.917
300.076
300.272
300.507
300.772
301.056
298.882
298.947
299.01
299.072
299.13
299.185
299.236
299.283
299.326
299.364
299.397
299.426
299.451
299.472
299.489
299.502
299.513
299.521
299.526
299.529
299.53
299.529
299.527
299.523
299.519
299.515
299.509
299.504
299.498
299.493
299.487
299.481
299.475
299.47
299.465
299.46
299.455
299.45
299.446
299.442
299.438
299.434
299.431
299.427
299.424
299.421
299.419
299.416
299.414
299.412
299.41
299.408
299.407
299.405
299.404
299.403
299.402
299.402
299.401
299.401
299.401
299.401
299.401
299.401
299.402
299.402
299.403
299.404
299.405
299.406
299.407
299.408
299.409
299.411
299.413
299.414
299.416
299.419
299.421
299.424
299.427
299.431
299.436
299.441
299.449
299.458
299.471
299.487
299.509
299.539
299.579
299.634
299.706
299.802
299.927
300.087
300.284
300.517
300.779
301.058
298.885
298.954
299.022
299.088
299.151
299.21
299.265
299.315
299.36
299.401
299.436
299.467
299.493
299.515
299.533
299.547
299.558
299.565
299.57
299.573
299.574
299.572
299.569
299.565
299.56
299.554
299.548
299.541
299.534
299.527
299.52
299.513
299.506
299.499
299.493
299.486
299.48
299.474
299.469
299.463
299.458
299.454
299.449
299.445
299.441
299.437
299.434
299.431
299.428
299.425
299.422
299.42
299.418
299.416
299.415
299.413
299.412
299.411
299.41
299.409
299.409
299.408
299.408
299.408
299.408
299.409
299.409
299.41
299.411
299.412
299.413
299.414
299.415
299.416
299.418
299.42
299.422
299.424
299.426
299.429
299.432
299.436
299.44
299.446
299.453
299.462
299.475
299.491
299.513
299.544
299.585
299.64
299.714
299.812
299.938
300.099
300.295
300.527
300.786
301.061
298.887
298.961
299.034
299.104
299.171
299.234
299.292
299.345
299.393
299.436
299.474
299.506
299.534
299.556
299.575
299.589
299.6
299.608
299.613
299.615
299.615
299.614
299.61
299.605
299.599
299.593
299.585
299.577
299.569
299.561
299.553
299.544
299.536
299.528
299.521
299.513
299.506
299.499
299.492
299.486
299.48
299.474
299.469
299.463
299.459
299.454
299.45
299.446
299.442
299.439
299.436
299.433
299.43
299.428
299.426
299.424
299.422
299.421
299.419
299.418
299.417
299.417
299.416
299.416
299.416
299.416
299.417
299.417
299.418
299.418
299.419
299.42
299.421
299.423
299.424
299.426
299.427
299.429
299.432
299.434
299.437
299.441
299.445
299.451
299.458
299.467
299.479
299.496
299.518
299.549
299.591
299.647
299.723
299.821
299.949
300.11
300.307
300.537
300.793
301.063
298.889
298.968
299.045
299.119
299.19
299.257
299.319
299.375
299.426
299.471
299.51
299.544
299.572
299.596
299.615
299.629
299.64
299.648
299.652
299.654
299.654
299.652
299.648
299.642
299.636
299.628
299.62
299.612
299.603
299.593
299.584
299.575
299.566
299.557
299.548
299.539
299.531
299.523
299.515
299.508
299.501
299.494
299.488
299.482
299.477
299.471
299.466
299.462
299.457
299.453
299.449
299.446
299.443
299.44
299.437
299.435
299.433
299.431
299.429
299.428
299.427
299.426
299.425
299.425
299.424
299.424
299.424
299.425
299.425
299.426
299.426
299.427
299.428
299.429
299.431
299.432
299.434
299.436
299.438
299.44
299.443
299.447
299.451
299.456
299.463
299.472
299.484
299.501
299.524
299.555
299.598
299.655
299.731
299.832
299.96
300.122
300.318
300.546
300.799
301.065
298.892
298.974
299.056
299.134
299.209
299.279
299.344
299.404
299.457
299.504
299.545
299.58
299.609
299.633
299.652
299.667
299.677
299.685
299.689
299.69
299.69
299.687
299.682
299.676
299.669
299.661
299.652
299.643
299.633
299.623
299.613
299.603
299.593
299.583
299.574
299.564
299.555
299.546
299.538
299.53
299.522
299.515
299.508
299.501
299.495
299.489
299.483
299.478
299.473
299.468
299.464
299.46
299.456
299.453
299.45
299.447
299.444
299.442
299.44
299.438
299.437
299.436
299.435
299.434
299.433
299.433
299.433
299.433
299.433
299.434
299.434
299.435
299.436
299.437
299.438
299.439
299.441
299.443
299.445
299.447
299.45
299.453
299.457
299.462
299.469
299.478
299.49
299.507
299.53
299.562
299.605
299.663
299.74
299.842
299.972
300.134
300.329
300.556
300.805
301.067
298.894
298.981
299.066
299.149
299.227
299.301
299.369
299.431
299.487
299.536
299.578
299.614
299.643
299.668
299.687
299.701
299.712
299.718
299.722
299.723
299.722
299.719
299.714
299.707
299.699
299.691
299.681
299.671
299.661
299.651
299.64
299.629
299.619
299.608
299.598
299.588
299.578
299.569
299.559
299.551
299.542
299.534
299.527
299.519
299.512
299.506
299.499
299.494
299.488
299.483
299.478
299.474
299.469
299.466
299.462
299.459
299.456
299.453
299.451
299.449
299.447
299.446
299.445
299.444
299.443
299.442
299.442
299.442
299.442
299.442
299.443
299.443
299.444
299.445
299.446
299.447
299.449
299.45
299.452
299.454
299.457
299.46
299.464
299.469
299.475
299.484
299.497
299.513
299.537
299.569
299.613
299.671
299.75
299.852
299.983
300.145
300.34
300.564
300.811
301.069
298.896
298.987
299.077
299.163
299.245
299.322
299.394
299.458
299.516
299.566
299.609
299.646
299.676
299.7
299.719
299.733
299.743
299.749
299.752
299.752
299.751
299.747
299.741
299.734
299.726
299.717
299.707
299.697
299.686
299.675
299.664
299.653
299.642
299.631
299.62
299.61
299.599
299.589
299.58
299.57
299.561
299.553
299.545
299.537
299.529
299.522
299.516
299.509
299.503
299.498
299.492
299.487
299.483
299.479
299.475
299.471
299.468
299.465
299.463
299.46
299.458
299.457
299.455
299.454
299.453
299.452
299.452
299.451
299.451
299.451
299.452
299.452
299.453
299.454
299.455
299.456
299.457
299.458
299.46
299.462
299.464
299.467
299.471
299.476
299.482
299.491
299.503
299.52
299.544
299.576
299.62
299.68
299.759
299.862
299.994
300.156
300.35
300.573
300.816
301.071
298.898
298.993
299.087
299.177
299.263
299.343
299.417
299.484
299.543
299.595
299.639
299.676
299.706
299.73
299.749
299.762
299.771
299.777
299.779
299.778
299.776
299.771
299.765
299.757
299.749
299.739
299.729
299.718
299.707
299.696
299.685
299.674
299.662
299.651
299.64
299.629
299.619
299.608
299.598
299.589
299.579
299.57
299.562
299.554
299.546
299.538
299.531
299.524
299.518
299.512
299.506
299.501
299.496
299.492
299.488
299.484
299.48
299.477
299.474
299.472
299.469
299.468
299.466
299.464
299.463
299.462
299.462
299.461
299.461
299.461
299.461
299.462
299.462
299.463
299.464
299.464
299.466
299.467
299.468
299.47
299.472
299.475
299.479
299.483
299.49
299.498
299.511
299.528
299.551
299.584
299.629
299.689
299.769
299.873
300.004
300.167
300.36
300.581
300.822
301.073
298.9
298.999
299.096
299.19
299.279
299.363
299.439
299.509
299.57
299.623
299.668
299.705
299.735
299.758
299.776
299.789
299.797
299.801
299.802
299.801
299.798
299.792
299.785
299.777
299.768
299.758
299.748
299.737
299.726
299.715
299.703
299.692
299.68
299.669
299.658
299.647
299.636
299.625
299.615
299.605
299.596
299.587
299.578
299.569
299.561
299.553
299.546
299.539
299.532
299.526
299.52
299.515
299.51
299.505
299.5
299.496
299.493
299.489
299.486
299.483
299.481
299.479
299.477
299.475
299.474
299.473
299.472
299.472
299.471
299.471
299.471
299.471
299.472
299.472
299.473
299.474
299.475
299.476
299.477
299.479
299.481
299.484
299.487
299.491
299.498
299.506
299.518
299.535
299.559
299.592
299.637
299.698
299.778
299.883
300.015
300.177
300.37
300.589
300.827
301.075
298.902
299.005
299.106
299.203
299.296
299.382
299.461
299.532
299.595
299.649
299.694
299.731
299.761
299.784
299.801
299.812
299.819
299.823
299.823
299.821
299.816
299.81
299.803
299.794
299.785
299.774
299.764
299.753
299.741
299.73
299.718
299.707
299.696
299.684
299.673
299.662
299.651
299.641
299.63
299.62
299.611
299.601
299.592
299.584
299.575
299.568
299.56
299.553
299.546
299.54
299.534
299.528
299.523
299.518
299.513
299.509
299.505
299.501
299.498
299.495
299.493
299.49
299.488
299.487
299.485
299.484
299.483
299.482
299.482
299.482
299.482
299.482
299.482
299.482
299.483
299.484
299.484
299.485
299.487
299.488
299.49
299.492
299.495
299.5
299.506
299.514
299.526
299.544
299.567
299.601
299.646
299.707
299.788
299.893
300.025
300.187
300.379
300.596
300.832
301.076
298.903
299.01
299.115
299.215
299.311
299.4
299.482
299.555
299.619
299.673
299.719
299.756
299.785
299.807
299.823
299.833
299.839
299.842
299.841
299.837
299.832
299.825
299.817
299.808
299.798
299.788
299.777
299.766
299.754
299.743
299.731
299.72
299.709
299.697
299.686
299.675
299.665
299.654
299.644
299.634
299.624
299.615
299.606
299.597
299.589
299.581
299.573
299.566
299.559
299.553
299.546
299.541
299.535
299.53
299.525
299.521
299.517
299.513
299.51
299.507
299.504
299.502
299.5
299.498
299.497
299.495
299.494
299.493
299.493
299.493
299.492
299.492
299.492
299.493
299.493
299.494
299.494
299.495
299.496
299.497
299.499
299.501
299.504
299.509
299.514
299.523
299.535
299.552
299.576
299.609
299.655
299.717
299.798
299.903
300.036
300.198
300.388
300.603
300.836
301.078
298.905
299.015
299.123
299.227
299.326
299.418
299.502
299.576
299.641
299.697
299.742
299.779
299.807
299.828
299.843
299.852
299.857
299.858
299.856
299.851
299.845
299.837
299.829
299.819
299.809
299.798
299.787
299.776
299.765
299.754
299.742
299.731
299.72
299.709
299.698
299.687
299.676
299.666
299.656
299.646
299.636
299.627
299.618
299.61
299.601
299.593
299.586
299.578
299.572
299.565
299.559
299.553
299.547
299.542
299.538
299.533
299.529
299.525
299.522
299.519
299.516
299.514
299.512
299.51
299.508
299.507
299.506
299.505
299.504
299.504
299.503
299.503
299.503
299.503
299.504
299.504
299.505
299.505
299.506
299.507
299.509
299.511
299.514
299.518
299.523
299.532
299.544
299.561
299.585
299.619
299.664
299.726
299.808
299.914
300.046
300.208
300.397
300.61
300.841
301.08
298.907
299.02
299.131
299.239
299.34
299.435
299.52
299.597
299.663
299.718
299.764
299.8
299.828
299.848
299.861
299.869
299.872
299.872
299.868
299.863
299.856
299.848
299.838
299.828
299.818
299.807
299.796
299.785
299.774
299.763
299.751
299.74
299.729
299.718
299.707
299.697
299.687
299.676
299.666
299.657
299.647
299.638
299.63
299.621
299.613
299.605
299.597
299.59
299.583
299.577
299.571
299.565
299.56
299.554
299.55
299.545
299.541
299.537
299.534
299.531
299.528
299.526
299.524
299.522
299.52
299.519
299.517
299.517
299.516
299.515
299.515
299.515
299.515
299.515
299.515
299.515
299.515
299.516
299.516
299.517
299.519
299.52
299.523
299.527
299.533
299.541
299.553
299.57
299.594
299.628
299.674
299.736
299.818
299.924
300.057
300.217
300.406
300.617
300.845
301.081
298.909
299.025
299.139
299.25
299.354
299.451
299.538
299.616
299.683
299.739
299.784
299.82
299.846
299.865
299.877
299.883
299.885
299.884
299.879
299.873
299.865
299.856
299.846
299.836
299.825
299.814
299.803
299.792
299.781
299.77
299.759
299.748
299.737
299.727
299.716
299.706
299.696
299.686
299.676
299.667
299.658
299.649
299.64
299.632
299.624
299.616
299.609
299.602
299.595
299.588
299.582
299.577
299.571
299.566
299.562
299.557
299.553
299.55
299.546
299.543
299.54
299.538
299.536
299.534
299.532
299.531
299.529
299.528
299.528
299.527
299.527
299.526
299.526
299.526
299.526
299.526
299.526
299.527
299.527
299.528
299.529
299.53
299.533
299.537
299.542
299.55
299.562
299.579
299.604
299.638
299.684
299.747
299.829
299.935
300.067
300.227
300.414
300.624
300.849
301.083
298.91
299.03
299.147
299.26
299.367
299.466
299.555
299.634
299.701
299.757
299.803
299.837
299.863
299.88
299.891
299.896
299.897
299.894
299.888
299.881
299.873
299.863
299.853
299.842
299.832
299.821
299.81
299.798
299.787
299.777
299.766
299.755
299.744
299.734
299.724
299.714
299.704
299.694
299.685
299.676
299.667
299.658
299.65
299.642
299.634
299.627
299.619
299.613
299.606
299.6
299.594
299.588
299.583
299.578
299.574
299.569
299.565
299.562
299.558
299.555
299.553
299.55
299.548
299.546
299.544
299.543
299.542
299.541
299.54
299.539
299.539
299.538
299.538
299.538
299.537
299.537
299.537
299.538
299.538
299.538
299.539
299.541
299.543
299.547
299.552
299.56
299.572
299.589
299.613
299.647
299.694
299.757
299.839
299.945
300.077
300.237
300.423
300.63
300.853
301.084
298.911
299.034
299.154
299.27
299.379
299.48
299.571
299.651
299.719
299.775
299.82
299.854
299.878
299.894
299.904
299.907
299.907
299.903
299.896
299.888
299.879
299.869
299.859
299.848
299.837
299.826
299.815
299.804
299.793
299.782
299.772
299.761
299.751
299.741
299.731
299.721
299.712
299.702
299.693
299.685
299.676
299.668
299.659
299.652
299.644
299.637
299.63
299.623
299.617
299.611
299.605
299.6
299.595
299.59
299.586
299.581
299.578
299.574
299.571
299.568
299.565
299.563
299.561
299.559
299.557
299.556
299.554
299.553
299.552
299.552
299.551
299.55
299.55
299.55
299.549
299.549
299.549
299.549
299.549
299.549
299.55
299.551
299.553
299.557
299.562
299.57
299.582
299.599
299.623
299.658
299.704
299.767
299.85
299.956
300.088
300.247
300.431
300.637
300.858
301.085
298.913
299.038
299.161
299.279
299.391
299.494
299.586
299.667
299.735
299.791
299.836
299.869
299.892
299.907
299.915
299.918
299.916
299.911
299.904
299.895
299.885
299.875
299.864
299.853
299.842
299.831
299.82
299.809
299.799
299.788
299.778
299.768
299.758
299.748
299.738
299.729
299.719
299.71
299.702
299.693
299.685
299.677
299.669
299.661
299.654
299.647
299.64
299.634
299.628
299.622
299.617
299.611
299.607
299.602
299.598
299.594
299.59
299.587
299.583
299.581
299.578
299.576
299.574
299.572
299.57
299.569
299.567
299.566
299.565
299.564
299.564
299.563
299.562
299.562
299.561
299.561
299.561
299.56
299.56
299.56
299.561
299.562
299.564
299.567
299.572
299.58
299.592
299.609
299.634
299.668
299.715
299.778
299.861
299.967
300.098
300.256
300.439
300.643
300.862
301.087
298.914
299.042
299.167
299.288
299.402
299.506
299.6
299.682
299.75
299.806
299.85
299.883
299.905
299.919
299.926
299.927
299.924
299.918
299.91
299.901
299.891
299.88
299.869
299.858
299.847
299.836
299.825
299.814
299.804
299.794
299.784
299.774
299.764
299.754
299.745
299.736
299.727
299.719
299.71
299.702
299.694
299.686
299.679
299.671
299.664
299.658
299.651
299.645
299.639
299.634
299.628
299.623
299.619
299.614
299.61
299.606
299.603
299.599
299.596
299.594
299.591
299.589
299.587
299.585
299.583
299.582
299.58
299.579
299.578
299.577
299.576
299.576
299.575
299.574
299.574
299.573
299.573
299.572
299.572
299.572
299.572
299.573
299.575
299.578
299.583
299.59
299.602
299.619
299.644
299.678
299.726
299.789
299.872
299.978
300.109
300.266
300.448
300.65
300.866
301.088
298.915
299.046
299.173
299.296
299.412
299.518
299.613
299.696
299.765
299.821
299.864
299.896
299.917
299.93
299.935
299.936
299.932
299.925
299.917
299.907
299.897
299.886
299.874
299.863
299.852
299.841
299.83
299.82
299.81
299.799
299.79
299.78
299.771
299.761
299.752
299.744
299.735
299.727
299.719
299.711
299.703
299.696
299.688
299.682
299.675
299.668
299.662
299.656
299.651
299.645
299.64
299.635
299.631
299.627
299.623
299.619
299.616
299.613
299.61
299.607
299.605
299.602
299.6
299.598
299.597
299.595
299.594
299.593
299.592
299.591
299.59
299.589
299.588
299.587
299.586
299.586
299.585
299.584
299.584
299.583
299.583
299.584
299.585
299.588
299.593
299.601
299.613
299.63
299.655
299.689
299.737
299.8
299.883
299.988
300.119
300.275
300.456
300.656
300.87
301.089
298.917
299.049
299.179
299.304
299.422
299.529
299.626
299.709
299.778
299.834
299.877
299.907
299.928
299.94
299.944
299.944
299.94
299.933
299.924
299.913
299.903
299.891
299.88
299.869
299.858
299.847
299.836
299.826
299.816
299.806
299.796
299.787
299.778
299.769
299.76
299.752
299.744
299.736
299.728
299.72
299.713
299.706
299.699
299.692
299.686
299.68
299.674
299.668
299.663
299.658
299.653
299.648
299.644
299.64
299.636
299.632
299.629
299.626
299.623
299.621
299.618
299.616
299.614
299.612
299.611
299.609
299.608
299.607
299.605
299.604
299.603
299.602
299.601
299.6
299.599
299.598
299.597
299.596
299.596
299.595
299.595
299.595
299.597
299.599
299.604
299.612
299.623
299.641
299.665
299.7
299.748
299.811
299.894
299.999
300.13
300.285
300.464
300.662
300.874
301.091
298.918
299.052
299.184
299.311
299.431
299.54
299.637
299.721
299.79
299.846
299.889
299.919
299.938
299.949
299.953
299.952
299.947
299.94
299.93
299.92
299.909
299.897
299.886
299.875
299.864
299.853
299.842
299.832
299.822
299.813
299.803
299.794
299.786
299.777
299.769
299.761
299.753
299.745
299.738
299.73
299.723
299.716
299.71
299.704
299.697
299.692
299.686
299.68
299.675
299.67
299.666
299.661
299.657
299.653
299.65
299.646
299.643
299.64
299.637
299.635
299.633
299.631
299.629
299.627
299.625
299.624
299.622
299.621
299.62
299.618
299.617
299.616
299.615
299.614
299.612
299.611
299.61
299.609
299.608
299.607
299.607
299.607
299.608
299.611
299.615
299.623
299.634
299.652
299.676
299.711
299.759
299.822
299.905
300.01
300.14
300.295
300.472
300.669
300.877
301.092
298.919
299.055
299.189
299.318
299.439
299.55
299.648
299.732
299.802
299.858
299.9
299.929
299.948
299.958
299.962
299.96
299.955
299.947
299.937
299.927
299.916
299.904
299.893
299.882
299.871
299.86
299.85
299.84
299.83
299.82
299.811
299.803
299.794
299.786
299.778
299.77
299.762
299.755
299.748
299.741
299.734
299.728
299.722
299.715
299.71
299.704
299.699
299.693
299.689
299.684
299.679
299.675
299.671
299.667
299.664
299.661
299.658
299.655
299.652
299.65
299.647
299.645
299.643
299.642
299.64
299.638
299.637
299.635
299.634
299.633
299.631
299.63
299.629
299.627
299.626
299.624
299.623
299.622
299.62
299.619
299.619
299.619
299.62
299.622
299.626
299.634
299.645
299.663
299.688
299.722
299.77
299.834
299.917
300.022
300.151
300.304
300.48
300.675
300.881
301.093
298.92
299.058
299.194
299.325
299.448
299.559
299.658
299.743
299.813
299.869
299.91
299.939
299.957
299.967
299.97
299.968
299.963
299.955
299.945
299.934
299.923
299.911
299.9
299.889
299.878
299.868
299.857
299.848
299.838
299.829
299.82
299.812
299.804
299.796
299.788
299.78
299.773
299.766
299.759
299.753
299.746
299.74
299.734
299.728
299.723
299.717
299.712
299.707
299.702
299.698
299.694
299.69
299.686
299.682
299.679
299.676
299.673
299.67
299.667
299.665
299.663
299.661
299.659
299.657
299.655
299.653
299.652
299.65
299.649
299.647
299.646
299.644
299.643
299.641
299.64
299.638
299.636
299.635
299.633
299.632
299.631
299.631
299.631
299.634
299.638
299.645
299.657
299.674
299.699
299.734
299.782
299.845
299.928
300.033
300.161
300.314
300.488
300.681
300.885
301.095
298.921
299.061
299.199
299.331
299.455
299.568
299.668
299.754
299.824
299.879
299.92
299.948
299.967
299.976
299.979
299.977
299.971
299.963
299.953
299.942
299.931
299.919
299.908
299.897
299.886
299.876
299.866
299.856
299.847
299.838
299.83
299.822
299.814
299.806
299.799
299.791
299.785
299.778
299.771
299.765
299.759
299.753
299.747
299.742
299.736
299.731
299.726
299.721
299.717
299.713
299.709
299.705
299.701
299.697
299.694
299.691
299.688
299.685
299.683
299.681
299.678
299.676
299.674
299.672
299.671
299.669
299.667
299.665
299.664
299.662
299.661
299.659
299.657
299.656
299.654
299.652
299.65
299.648
299.646
299.645
299.644
299.643
299.643
299.645
299.65
299.657
299.668
299.685
299.71
299.745
299.793
299.857
299.939
300.044
300.172
300.323
300.496
300.687
300.889
301.096
298.921
299.064
299.203
299.337
299.463
299.577
299.677
299.763
299.834
299.889
299.929
299.958
299.976
299.985
299.988
299.986
299.98
299.971
299.961
299.951
299.939
299.928
299.917
299.906
299.895
299.885
299.875
299.866
299.857
299.849
299.84
299.832
299.825
299.817
299.81
299.803
299.797
299.79
299.784
299.778
299.772
299.767
299.761
299.756
299.751
299.746
299.741
299.736
299.732
299.728
299.724
299.72
299.717
299.713
299.71
299.707
299.704
299.702
299.699
299.697
299.694
299.692
299.69
299.688
299.686
299.685
299.683
299.681
299.679
299.678
299.676
299.674
299.672
299.67
299.668
299.666
299.664
299.662
299.66
299.658
299.656
299.655
299.656
299.657
299.661
299.668
299.68
299.697
299.722
299.757
299.805
299.868
299.951
300.055
300.182
300.332
300.504
300.693
300.892
301.097
298.922
299.066
299.207
299.343
299.47
299.585
299.686
299.773
299.843
299.898
299.939
299.967
299.985
299.994
299.997
299.995
299.989
299.98
299.971
299.96
299.949
299.937
299.926
299.916
299.905
299.895
299.886
299.877
299.868
299.86
299.852
299.844
299.837
299.83
299.823
299.816
299.81
299.804
299.798
299.792
299.786
299.781
299.776
299.771
299.766
299.761
299.757
299.752
299.748
299.744
299.74
299.737
299.733
299.73
299.727
299.724
299.721
299.718
299.716
299.713
299.711
299.709
299.707
299.705
299.703
299.701
299.699
299.697
299.695
299.693
299.691
299.689
299.687
299.685
299.683
299.681
299.678
299.676
299.673
299.671
299.669
299.668
299.668
299.67
299.673
299.68
299.692
299.709
299.734
299.769
299.816
299.88
299.962
300.066
300.192
300.342
300.512
300.699
300.896
301.098
298.923
299.069
299.211
299.348
299.476
299.593
299.695
299.782
299.852
299.907
299.948
299.976
299.994
300.003
300.006
300.004
299.998
299.99
299.98
299.97
299.959
299.948
299.937
299.926
299.916
299.906
299.897
299.888
299.88
299.871
299.864
299.856
299.849
299.843
299.836
299.83
299.824
299.818
299.812
299.807
299.801
299.796
299.791
299.786
299.781
299.777
299.773
299.768
299.764
299.761
299.757
299.753
299.75
299.747
299.744
299.741
299.738
299.735
299.733
299.73
299.728
299.726
299.724
299.721
299.719
299.717
299.715
299.713
299.711
299.709
299.707
299.705
299.703
299.7
299.698
299.695
299.693
299.69
299.687
299.685
299.683
299.681
299.681
299.682
299.686
299.692
299.703
299.72
299.745
299.78
299.828
299.892
299.974
300.077
300.203
300.351
300.52
300.704
300.9
301.1
298.924
299.071
299.215
299.354
299.483
299.6
299.703
299.79
299.861
299.916
299.957
299.985
300.003
300.013
300.016