/*--------------------------------*- C++ -*----------------------------------*\
  =========                 |
  \\      /  F ield         | OpenFOAM: The Open Source CFD Toolbox
   \\    /   O peration     | Website:  https://openfoam.org
    \\  /    A nd           | Version:  6
     \\/     M anipulation  |
\*---------------------------------------------------------------------------*/
FoamFile
{
    version     2.0;
    format      ascii;
    class       volVectorField;
    location    "0";
    object      U_rec;
}
// * * * * * * * * * * * * * * * * * * * * * * * * * * * * * * * * * * * * * //

dimensions      [0 1 -1 0 0 0 0];

internalField   nonuniform List<vector> 
13046
(
(-0.207741 0.0963847 0)
(-0.578394 -0.243508 1.47885e-22)
(-0.161027 -0.0350418 1.43901e-22)
(-0.242116 0.0254703 0)
(-0.119883 0.0179668 5.40704e-23)
(-0.481196 -0.214832 0)
(-0.257885 0.0351117 -1.31565e-23)
(-0.542591 -0.258365 -7.61901e-23)
(-0.0955174 0.0353909 2.60982e-23)
(-0.462161 0.195717 -6.36531e-22)
(-1.14679 -0.607432 0)
(0.0339243 0.113997 -2.96636e-22)
(-0.260366 0.103344 -3.01341e-24)
(-0.716565 -0.336068 6.35529e-22)
(-0.0866884 0.0146706 -5.9462e-23)
(-0.42874 0.231737 6.39839e-22)
(0.0135181 0.0953449 -7.65473e-22)
(-1.19826 -0.550972 -1.73858e-21)
(-0.13745 0.0523801 0)
(-0.339466 -0.14343 5.86609e-23)
(-0.333953 -0.0670944 -4.71306e-23)
(-0.435081 0.224142 3.22142e-22)
(0.0210074 0.101446 1.02195e-21)
(-1.18967 -0.564381 0)
(-0.203612 0.0510939 1.17412e-23)
(-0.465053 -0.184659 9.05816e-23)
(-0.17042 -0.0314008 0)
(-0.260087 0.123225 8.19773e-23)
(-0.747978 -0.344522 -1.67893e-22)
(-0.0934099 0.00481738 1.68867e-22)
(-0.204389 0.112985 0)
(-0.604492 -0.243092 0)
(-0.175147 -0.0508481 -1.46472e-22)
(-0.199251 0.0353928 -1.36472e-23)
(-0.191742 -0.0418413 -2.88565e-23)
(-0.404305 -0.14655 -1.8672e-22)
(-0.215189 0.014767 -2.86712e-23)
(-0.188151 -0.0277602 2.99577e-24)
(-0.374095 -0.132301 9.49051e-23)
(-0.157618 0.141177 -3.19124e-23)
(-0.343528 -0.189104 -4.49162e-23)
(-0.550811 -0.171889 2.1467e-22)
(-0.255531 -0.0384046 -1.8082e-23)
(-0.209714 -0.0233308 2.89648e-23)
(-0.279743 -0.0776141 0)
(-0.271994 -0.040682 3.29304e-23)
(-0.175893 0.00336201 -4.21557e-23)
(-0.304363 -0.101558 3.13239e-24)
(-0.22033 0.0871263 0)
(-0.594286 -0.263247 1.23406e-23)
(-0.127949 -0.012808 -3.71579e-23)
(-0.544554 -0.353445 -6.63791e-22)
(-0.135889 0.169316 0)
(-0.550345 -0.121624 6.03259e-22)
(-0.617241 -0.408909 9.50774e-22)
(-0.525622 -0.101529 9.11957e-22)
(-0.120649 0.166211 -1.16547e-22)
(-1.08099 -0.417438 4.20958e-22)
(-0.348766 0.243725 0)
(-0.137112 -0.0410157 -3.79863e-22)
(-0.358303 0.0783902 6.05793e-23)
(-0.878042 -0.494705 -5.1868e-22)
(-0.0105162 0.100559 4.94603e-22)
(0.0228512 0.0994715 -4.5184e-22)
(-1.13686 -0.592545 8.8817e-22)
(-0.429481 0.177398 5.59476e-22)
(-0.331647 0.246445 0)
(-1.03513 -0.379979 0)
(-0.184169 -0.0868742 0)
(-0.314718 0.238304 8.42214e-23)
(-0.991292 -0.360472 0)
(-0.202304 -0.10233 -3.40554e-22)
(-1.1222 -0.432292 0)
(-0.364861 0.251393 2.22737e-23)
(-0.120504 -0.0306451 -3.63889e-23)
(-0.134002 0.0674027 0)
(-0.336079 -0.151632 -2.5535e-23)
(-0.369193 -0.0925506 1.0513e-22)
(-0.0647841 0.0213569 -4.63969e-22)
(-0.386693 0.246739 6.21499e-22)
(-1.16214 -0.475413 0)
(-0.216399 0.0515106 2.80965e-25)
(-0.493601 -0.20681 0)
(-0.143567 -0.00794319 0)
(0.026243 0.103389 4.51575e-22)
(-1.155 -0.599909 8.52553e-22)
(-0.44088 0.185911 -3.53625e-22)
(-0.453952 0.123836 6.9438e-22)
(0.0219366 0.115113 0)
(-1.09492 -0.64951 5.9404e-22)
(-0.00988871 0.126817 0)
(-0.503203 0.071621 0)
(-1.06647 -0.716677 -9.32469e-23)
(-0.34489 0.154562 0)
(-0.364823 0.154243 -1.70062e-22)
(-0.975777 -0.480636 -1.47902e-21)
(-1.01134 -0.512567 7.05144e-22)
(-0.0259966 0.0560546 1.52408e-22)
(-0.00832146 0.0729652 -3.99588e-22)
(0.0155475 0.117861 1.81732e-23)
(-0.455527 0.107577 -6.79673e-22)
(-1.07522 -0.65792 0)
(-0.26776 -0.0261767 -6.21885e-24)
(-0.154771 0.0130067 -4.51523e-24)
(-0.349847 -0.135277 0)
(-0.0823588 0.136937 0)
(-0.433785 -0.052688 1.97407e-22)
(-0.601884 -0.365073 0)
(-0.129993 0.153056 -4.89464e-23)
(-0.478869 -0.291289 0)
(-0.519396 -0.127028 6.58362e-22)
(-0.439549 0.194355 0)
(0.028356 0.110198 0)
(-1.01198 -0.556801 2.70494e-21)
(-0.243228 0.0916203 -2.58767e-24)
(-0.664764 -0.302216 -1.35662e-22)
(-0.0981709 0.0112101 -2.32422e-22)
(-0.36607 0.188801 -1.75228e-22)
(-0.346056 0.174416 3.05492e-22)
(-1.05517 -0.494434 1.35689e-21)
(-0.0313957 0.0493072 -2.07273e-22)
(-1.00176 -0.471515 -1.00288e-21)
(-0.0387065 0.0431222 1.93652e-22)
(-0.457672 0.201989 6.96548e-22)
(-1.13338 -0.595824 2.82549e-21)
(0.0338012 0.114975 1.43439e-22)
(-0.304 0.144356 0)
(-0.873456 -0.418813 7.74821e-22)
(-0.0589345 0.0260112 -2.62005e-22)
(-0.175507 0.143857 0)
(-0.297138 -0.155511 2.21184e-22)
(-0.590685 -0.202373 -4.19094e-23)
(-0.014774 0.130016 0)
(-0.49012 0.061106 0)
(-1.04896 -0.700145 0)
(-0.402552 0.146965 0)
(-1.06346 -0.571641 2.49836e-21)
(0.0141937 0.0960419 4.50712e-22)
(-0.221412 0.123521 0)
(-0.658637 -0.277246 0)
(-0.159871 -0.047553 0)
(-0.31946 0.0297334 0)
(-0.670033 -0.36419 0)
(-0.0490361 0.0862264 0)
(-0.120969 0.155516 0)
(-0.529924 -0.328932 0)
(-0.509737 -0.109862 -3.10558e-22)
(-0.0830422 0.128648 1.39915e-23)
(-0.419731 -0.0543519 1.89455e-22)
(-0.586506 -0.344688 -2.96243e-22)
(-0.367144 0.0917194 -4.04692e-22)
(-0.918702 -0.51833 0)
(-0.00317276 0.0970997 -6.58238e-22)
(-0.0795345 0.0929025 0)
(-0.349336 -0.0289825 -1.58444e-22)
(-0.529143 -0.285683 1.08831e-22)
(-0.743989 -0.489295 0)
(-0.468604 -0.0418786 -5.58197e-22)
(-0.806331 -0.526098 0)
(-0.448695 -0.0141476 -3.14443e-22)
(-0.0797034 0.153316 0)
(-0.0601889 0.145852 0)
(-0.36304 -0.00503751 -1.02371e-23)
(-0.654798 -0.380947 -3.53877e-22)
(-0.0532923 0.108072 6.71494e-23)
(-0.472345 0.184242 6.81174e-22)
(0.0338363 0.114017 0)
(-1.13241 -0.623181 2.74632e-21)
(-0.447754 0.200036 6.8637e-22)
(0.0313511 0.114223 6.90897e-23)
(-1.06695 -0.572212 0)
(-0.407874 0.159025 3.76705e-22)
(-1.08508 -0.574467 0)
(0.0158739 0.0943653 -5.16389e-22)
(-0.211082 0.179699 0)
(-0.702843 -0.241796 -2.1057e-22)
(-0.311017 -0.178346 -1.64635e-22)
(-0.373009 -0.018685 -1.87107e-22)
(-0.0636128 0.112898 -2.19891e-23)
(-0.611039 -0.347079 0)
(0.0307667 0.11421 0)
(-1.12764 -0.657499 0)
(-0.483024 0.158786 -6.43388e-22)
(-0.191008 0.168702 0)
(-0.651904 -0.215196 3.10164e-22)
(-0.326299 -0.179701 -4.42557e-23)
(-0.0746363 0.10342 0)
(-0.364291 -0.031832 0)
(-0.539708 -0.301217 0)
(-0.307303 0.0200639 -3.70426e-23)
(-0.624446 -0.335459 0)
(-0.0578029 0.0784723 0)
(-0.77679 -0.384094 3.73425e-24)
(-0.0545008 0.0419667 1.07123e-22)
(-0.289821 0.131781 -1.29417e-22)
(-0.831753 -0.395082 0)
(-0.0651031 0.0261988 3.27987e-22)
(-0.456995 0.155351 6.90999e-22)
(0.0292076 0.111472 -3.87474e-22)
(-1.13271 -0.63698 3.65368e-21)
(-0.00162864 0.126078 -2.86649e-22)
(-0.465574 0.0765417 -3.98095e-22)
(-1.04711 -0.672504 -2.5875e-21)
(-0.486694 0.101589 1.50894e-21)
(-1.09084 -0.688925 0)
(0.0107313 0.120609 3.02665e-22)
(-0.572524 -0.39101 3.6795e-23)
(-0.626475 -0.145399 -3.22965e-22)
(-0.165283 0.195227 0)
(-0.272361 0.0612488 1.38828e-22)
(-0.381392 0.255217 -2.57597e-22)
(-0.0833943 0.00628879 2.92357e-22)
(-1.16437 -0.465911 0)
(-1.10013 -0.692501 0)
(-0.493529 0.114873 1.52775e-21)
(0.0161837 0.117592 0)
(-0.240259 0.00134693 -5.28224e-23)
(-0.155301 0.000962295 -2.94347e-24)
(-0.387756 -0.152518 -1.93472e-22)
(-0.247871 0.133194 0)
(-0.73335 -0.323792 2.29281e-23)
(-0.123087 -0.0169485 1.45368e-22)
(-0.0108424 0.129587 -1.92102e-22)
(-0.475302 0.064423 0)
(-1.03827 -0.683571 2.98091e-21)
(-0.285773 0.0726414 -1.27785e-22)
(-0.756564 -0.382234 -1.13162e-21)
(-0.0501088 0.0508189 0)
(0.0314441 0.112466 0)
(-1.07861 -0.612866 -3.13601e-21)
(-0.474976 0.182481 0)
(-0.147614 0.187092 0)
(-0.58825 -0.123471 0)
(-0.618881 -0.430939 0)
(-0.470157 0.0958803 -1.32481e-21)
(-1.07752 -0.673506 0)
(0.01016 0.120748 -2.17978e-23)
(-0.402171 -0.00772518 -1.53195e-22)
(-0.730379 -0.45266 3.3543e-22)
(-0.0507928 0.128483 0)
(-0.301767 0.157632 0)
(-0.88437 -0.411122 -7.16119e-22)
(-0.0736693 0.0140413 -2.13446e-22)
(-0.961256 -0.664605 2.58501e-21)
(-0.490883 0.0107687 7.54423e-22)
(-0.0504336 0.148629 -1.52961e-22)
(-0.464096 -0.0115351 0)
(-0.852194 -0.56721 7.46674e-22)
(-0.0610437 0.149446 4.60441e-24)
(0.0282263 0.109519 3.91607e-22)
(-1.05267 -0.614926 0)
(-0.480074 0.173858 1.04427e-21)
(-0.16212 0.168011 -3.71013e-23)
(-0.424741 -0.25604 2.37139e-22)
(-0.593073 -0.170608 -5.50171e-23)
(-0.399295 0.212887 -8.21403e-22)
(0.0299526 0.112862 6.97435e-22)
(-1.00375 -0.492472 0)
(-0.127954 0.0435402 1.97894e-24)
(-0.302837 -0.0423186 -7.28586e-24)
(-0.374913 -0.163591 -1.68519e-22)
(-0.364728 0.0297906 -1.42343e-22)
(-0.380011 0.00343129 2.63789e-23)
(-0.774713 -0.458106 7.96531e-22)
(-0.719701 -0.4338 0)
(-0.0451076 0.118696 -6.1013e-23)
(-0.0295816 0.110862 7.31893e-23)
(-0.0429393 0.0421948 6.07555e-22)
(-0.397659 0.246773 -3.03264e-22)
(-1.18782 -0.490275 3.81465e-21)
(-0.283431 0.160961 0)
(-0.847742 -0.377325 0)
(-0.106198 -0.00998476 2.89465e-22)
(-0.461293 0.0080986 1.75281e-22)
(-0.901408 -0.605211 0)
(-0.0483622 0.145202 0)
(-0.384796 0.170767 2.08519e-22)
(-1.0644 -0.531881 0)
(-0.00215799 0.0756781 -2.16125e-22)
(-0.227723 -0.0188594 2.56224e-23)
(-0.289877 -0.0729652 -3.97705e-23)
(-0.227373 -0.0418971 -1.52917e-23)
(-0.418083 0.00454685 4.17319e-22)
(-0.805278 -0.50995 0)
(-0.044496 0.1348 1.59241e-22)
(-0.287605 0.173117 0)
(-0.87112 -0.377158 -9.27025e-22)
(-0.116397 -0.021565 2.75955e-22)
(-0.283132 0.0936933 0)
(-0.299434 0.101966 -1.67166e-23)
(-0.168736 0.176049 -1.99186e-23)
(-0.438697 -0.272447 -7.91115e-22)
(-0.612261 -0.172184 1.39326e-21)
(-0.410363 0.0250911 4.25006e-22)
(-0.851005 -0.538612 -1.01315e-21)
(-0.0297315 0.128869 -1.46727e-22)
(-0.399307 0.171048 0)
(0.00841434 0.085981 7.06375e-22)
(-1.09094 -0.555004 1.53208e-21)
(-0.129559 0.142809 6.13391e-23)
(-0.449596 -0.268974 0)
(-0.502841 -0.126453 -2.6333e-22)
(-0.0931163 0.162867 1.74214e-22)
(-0.49638 -0.0537375 3.93987e-22)
(-0.745642 -0.50625 0)
(-0.338543 0.199828 1.3378e-22)
(-1.01293 -0.440135 1.10141e-21)
(-0.0802508 0.00742683 -1.48535e-22)
(-0.153635 0.177947 -5.5425e-24)
(-0.51315 -0.330688 0)
(-0.588844 -0.144489 -8.09525e-22)
(-0.355411 0.208321 0)
(-0.366989 0.203951 0)
(-1.05793 -0.462208 8.51688e-22)
(-0.0661326 0.0196701 3.52127e-22)
(-1.07568 -0.486978 -1.21184e-21)
(-0.0433861 0.0401417 -3.96443e-22)
(0.0321825 0.113515 3.21792e-22)
(-1.13787 -0.645836 0)
(-0.473169 0.166651 6.44378e-22)
(-0.327575 0.173516 -1.66706e-22)
(-0.960173 -0.444857 0)
(-0.0599342 0.0252309 -8.21721e-23)
(-0.863192 -0.482035 -9.23739e-21)
(0.0200883 0.0969093 -5.9702e-22)
(-0.384859 0.182851 -2.91154e-21)
(-0.347467 -0.0482882 -2.69847e-23)
(-0.0965208 0.0828938 0)
(-0.45485 -0.231363 0)
(-0.335986 0.0736869 -2.46535e-22)
(-0.828688 -0.455408 0)
(-0.0181881 0.0900114 -3.14672e-22)
(0.0261942 0.106859 2.22076e-22)
(-0.439858 0.154028 -1.33908e-21)
(-1.1182 -0.617314 -2.41787e-21)
(-0.642079 -0.433152 0)
(-0.537486 -0.0969969 -3.99124e-22)
(-0.122122 0.173199 1.32075e-22)
(-0.989568 -0.675246 3.83477e-21)
(-0.482065 0.0305327 5.0607e-22)
(-0.0348673 0.140184 0)
(-0.679291 -0.336663 6.74818e-22)
(-0.0652789 0.046514 0)
(-0.333575 0.111904 -3.79863e-22)
(-0.881804 -0.463668 -5.76478e-22)
(-0.0190654 0.0699217 -1.06918e-22)
(-0.667344 -0.345146 -4.85922e-22)
(-0.057303 0.0581667 7.06482e-24)
(-0.422673 0.228175 3.01608e-23)
(0.00494015 0.0861087 -3.33636e-22)
(-1.19287 -0.543556 2.55424e-21)
(-0.555119 -0.394892 0)
(-0.673286 -0.167071 -1.32435e-22)
(-0.18566 0.206784 0)
(-0.349749 0.120182 3.86464e-22)
(-0.934881 -0.490897 7.03636e-22)
(-0.00869277 0.0792515 1.6397e-22)
(-0.337571 0.019231 0)
(-0.674221 -0.381923 5.14199e-22)
(-0.0462216 0.0972613 0)
(-0.470119 -0.0798175 0)
(-0.576917 -0.364152 0)
(-0.101336 0.146682 0)
(-0.222957 0.0681467 -2.17539e-25)
(-0.551585 -0.244433 2.6897e-22)
(-0.127719 -0.00434903 4.03768e-24)
(-0.109073 0.170776 -2.14356e-22)
(-0.522752 -0.0752911 -1.02175e-21)
(-0.705883 -0.479655 -7.56866e-22)
(-0.467715 0.136953 8.55395e-22)
(-1.11609 -0.65418 -3.14582e-21)
(0.0263488 0.114531 3.4085e-22)
(-0.99881 -0.663263 -2.51527e-21)
(-0.468335 0.043892 -5.12745e-22)
(-0.0232878 0.135337 -1.68261e-22)
(-0.280526 0.229967 2.49242e-22)
(-0.276032 -0.160249 -5.91055e-22)
(-0.90589 -0.310476 1.44002e-21)
(-0.377135 0.231363 -1.5633e-22)
(-0.363796 0.22512 1.07119e-22)
(-1.09262 -0.458747 2.77783e-22)
(-1.12656 -0.47375 0)
(-0.0640535 0.0230651 1.65809e-22)
(-0.0786737 0.00868018 1.19216e-22)
(0.0241515 0.102768 8.12787e-22)
(-0.908217 -0.485962 1.01731e-20)
(-0.392463 0.190396 -4.73707e-22)
(-0.407305 0.218448 4.56972e-23)
(0.0314544 0.115599 -9.58075e-22)
(-1.04727 -0.503223 0)
(-0.377537 0.0404966 5.4935e-22)
(-0.83065 -0.491371 2.31986e-22)
(-0.0235738 0.114583 0)
(0.031195 0.111631 7.50557e-22)
(-0.461417 0.164755 -6.4031e-22)
(-1.14328 -0.635488 0)
(-0.314122 0.219615 -4.17809e-22)
(-0.329251 0.219707 3.3863e-22)
(-0.974609 -0.383643 -1.12315e-21)
(-1.00991 -0.406977 -4.58384e-22)
(-0.162725 -0.0626777 2.34288e-22)
(-0.129661 -0.0340371 1.14312e-22)
(0.0134493 0.112591 0)
(-1.0812 -0.699663 0)
(-0.514196 0.11362 -3.37143e-22)
(-0.372105 0.20952 9.64759e-22)
(0.0287116 0.109392 0)
(-0.951953 -0.455278 0)
(-0.338463 -0.0868032 1.84233e-23)
(-0.164922 0.0367998 4.67025e-23)
(-0.275272 -0.0985917 -2.52764e-23)
(-0.413761 0.198862 1.98816e-21)
(-0.985052 -0.522113 -3.95637e-21)
(0.0277564 0.109339 -4.38975e-23)
(-0.234319 0.180318 0)
(-0.754814 -0.279704 1.1056e-21)
(-0.248547 -0.128196 -4.82939e-23)
(-0.48742 0.149092 3.12567e-23)
(-1.12224 -0.666699 -5.40901e-21)
(0.0283684 0.114708 3.33835e-24)
(-0.756745 -0.472625 -2.6255e-22)
(0.0107873 0.0813326 3.14598e-22)
(-0.375806 0.144923 1.3562e-21)
(-0.140526 0.127196 2.78543e-23)
(-0.357427 -0.189117 -1.4442e-22)
(-0.497899 -0.14377 -4.85917e-22)
(-0.294928 -0.023972 0)
(-0.434494 -0.200678 1.92095e-22)
(-0.111014 0.0501775 -3.58558e-23)
(-0.448018 0.212646 0)
(0.0332911 0.115135 -4.35629e-22)
(-1.14036 -0.582806 -8.32831e-23)
(-0.307914 -0.0211859 0)
(-0.462513 -0.222825 1.71844e-22)
(-0.0961978 0.0661075 4.02714e-23)
(-0.312802 -0.0741509 -5.68931e-23)
(-0.178786 0.0185853 -3.12688e-23)
(-0.268623 -0.085535 -3.6332e-24)
(-0.14304 0.190316 -9.72609e-23)
(-0.587842 -0.111629 4.37402e-22)
(-0.679299 -0.483824 -7.87981e-22)
(-0.375987 -0.0817399 0)
(-0.36887 -0.172963 0)
(-0.119229 0.0822427 1.36021e-24)
(-0.372831 -0.0638708 4.23347e-23)
(-0.424338 -0.208926 -9.7364e-23)
(-0.106883 0.0900765 -1.32018e-25)
(-0.263915 0.225177 -3.49201e-22)
(-0.856467 -0.285255 1.12343e-21)
(-0.317787 -0.199257 5.54096e-22)
(0.029782 0.10918 -6.29763e-22)
(0.0321618 0.111065 5.99584e-22)
(-1.17329 -0.595252 -1.98134e-21)
(-1.16328 -0.606081 -1.27379e-21)
(-0.448571 0.20849 0)
(-0.455614 0.199368 6.51677e-22)
(-0.479272 0.138212 -1.02614e-21)
(-1.11934 -0.664509 3.1583e-21)
(0.0262039 0.115523 -4.13867e-22)
(-0.261524 -0.156291 3.28223e-22)
(-0.298012 0.2418 -8.05121e-23)
(-0.951934 -0.327252 -1.83641e-21)
(-0.171466 0.163232 3.38332e-23)
(-0.373109 -0.216385 2.15625e-22)
(-0.606316 -0.187792 -2.59472e-22)
(-0.497967 -0.0340106 0)
(-0.840961 -0.580209 -7.72574e-22)
(-0.0820635 0.160997 -4.77368e-24)
(-0.87791 -0.565137 -3.27451e-21)
(0.0146945 0.0903121 2.77091e-22)
(-0.456631 0.142555 1.03041e-21)
(-0.000174657 0.122655 0)
(-0.502006 0.0865963 0)
(-1.07624 -0.71298 -1.93074e-21)
(-0.461069 0.19434 -7.27052e-22)
(0.0324648 0.113988 0)
(-1.09093 -0.596138 3.07719e-21)
(0.00903056 0.0755877 1.18676e-33)
(-0.69734 -0.431193 4.7169e-21)
(-0.33999 0.138918 -1.37757e-21)
(-0.716037 -0.384004 -5.31699e-21)
(0.0145098 0.0812851 -1.18394e-33)
(-0.31901 0.163532 1.21435e-21)
(-0.941056 -0.56618 1.66027e-21)
(-0.40325 0.0686071 0)
(-0.0060751 0.117491 4.19962e-22)
(-1.02632 -0.663228 1.49461e-21)
(0.0159377 0.103404 2.62757e-22)
(-0.515495 0.129303 0)
(-0.41483 0.138708 4.47418e-22)
(-1.06752 -0.591867 -1.59175e-21)
(0.0179641 0.102645 -2.81741e-22)
(-0.421197 0.243988 -1.41422e-21)
(0.0166951 0.102473 -3.04061e-22)
(-1.19629 -0.522667 0)
(-0.254331 0.0704214 -8.08473e-24)
(-0.0826785 0.0312912 6.03663e-23)
(-0.650371 -0.310266 -1.13295e-22)
(-1.08515 -0.70788 -1.06606e-21)
(0.00991144 0.115768 -2.47228e-22)
(-0.511932 0.10545 -2.76476e-22)
(-0.511021 -0.0487405 4.3993e-22)
(-0.0936108 0.166641 7.17748e-23)
(-0.802397 -0.552503 0)
(-0.919679 -0.605597 0)
(-0.446945 0.0260165 0)
(-0.0339126 0.13844 0)
(0.00310464 0.0403348 0)
(-0.389457 -0.210432 4.92826e-21)
(-0.184966 0.0831324 -1.29381e-21)
(-0.863595 -0.506833 -4.03737e-21)
(0.0180929 0.0948525 3.87965e-22)
(-0.401823 0.172149 1.08717e-21)
(-0.244931 0.0591613 6.01856e-25)
(-0.0982957 0.0222963 -6.85516e-23)
(-0.587662 -0.276967 -1.53622e-22)
(-1.09622 -0.678582 -5.50946e-21)
(-0.503767 0.135196 8.32877e-22)
(0.0223698 0.11255 0)
(0.0113918 0.109592 2.67359e-22)
(-0.522341 0.113258 0)
(-1.0601 -0.69843 3.97705e-21)
(-0.452059 0.180584 5.61145e-22)
(0.0302827 0.108799 -8.44435e-22)
(-1.15553 -0.615747 0)
(-0.0181305 0.0647919 7.39536e-22)
(-1.17785 -0.519338 -2.07961e-21)
(-0.406095 0.231174 0)
(-0.257042 0.231951 3.54296e-22)
(-0.843342 -0.270041 -1.43222e-21)
(-0.367274 -0.242817 1.78144e-22)
(-1.06627 -0.433326 -4.48197e-22)
(-0.349643 0.231421 -2.17248e-22)
(-0.114456 -0.0223022 4.05894e-22)
(-0.0132239 0.0704082 6.82863e-22)
(-0.412199 0.24649 0)
(-1.21023 -0.514341 0)
(-0.246393 0.165757 2.34319e-23)
(-0.268712 0.175513 0)
(-0.770663 -0.310573 1.10172e-21)
(-0.832504 -0.343539 -1.17732e-21)
(-0.180423 -0.0668458 -4.51923e-23)
(-0.157398 -0.0534311 4.81717e-23)
(-0.230546 0.168408 -2.25086e-23)
(-0.737983 -0.282587 0)
(-0.221982 -0.10157 -1.16569e-22)
(-0.309905 0.228378 0)
(-0.971302 -0.369717 1.82229e-21)
(-0.189484 -0.0874448 -8.08581e-23)
(-0.973143 -0.639499 1.16987e-21)
(-0.455492 0.0405816 -4.22822e-22)
(-0.0231895 0.134019 3.70601e-22)
(-1.10745 -0.685548 0)
(-0.487397 0.126948 -1.64193e-21)
(0.021604 0.116118 0)
(-0.00342514 0.125179 1.22848e-22)
(-0.448737 0.0710776 3.28775e-22)
(-1.02026 -0.646913 8.28123e-22)
(-0.774977 -0.400518 7.70751e-22)
(0.018392 0.0896169 -2.26059e-22)
(-0.336452 0.176962 0)
(-0.171013 0.122363 1.82053e-23)
(-0.178882 0.111555 0)
(-0.261682 -0.11659 0)
(-0.551337 -0.19253 -9.10376e-22)
(-0.231506 -0.0920102 0)
(-0.548874 -0.204216 5.0938e-22)
(-0.277501 0.213658 0)
(-0.254835 0.203973 0)
(-0.261389 -0.143409 4.04409e-23)
(-0.884166 -0.326943 -7.99837e-22)
(-0.230803 -0.115508 -6.45565e-22)
(-0.824132 -0.297026 1.49293e-21)
(-0.751203 -0.493476 0)
(0.0096385 0.0790934 -4.19304e-22)
(-0.396865 0.13572 0)
(-1.1051 -0.674842 2.95414e-21)
(-0.497328 0.136324 -2.15388e-22)
(0.0241786 0.113842 -1.61457e-22)
(-0.189989 0.186431 1.11833e-22)
(-0.418043 -0.264213 3.60182e-22)
(-0.662135 -0.199373 -1.49131e-21)
(-0.92217 -0.634031 -2.20644e-21)
(-0.48474 -0.000864244 -1.23279e-21)
(-0.0570066 0.151328 0)
(-0.0315386 0.051703 -7.91115e-22)
(-1.16688 -0.506593 2.21219e-21)
(-0.398564 0.233103 -3.93795e-22)
(-0.97888 -0.569637 0)
(-0.451971 0.177909 0)
(0.0242909 0.104954 0)
(-1.00653 -0.597313 0)
(-0.470072 0.170592 -7.90187e-22)
(0.0250708 0.10526 -6.82715e-23)
(-0.326889 0.20688 1.59462e-22)
(-0.992457 -0.417882 -6.73252e-22)
(-0.11002 -0.0173579 -1.69145e-22)
(-0.116802 0.133862 -1.73934e-24)
(-0.460136 -0.264008 0)
(-0.469212 -0.105242 -2.4207e-23)
(-0.458211 0.187221 -6.53856e-22)
(0.0318541 0.110907 -5.18233e-22)
(-1.16205 -0.615972 1.4819e-21)
(-0.96066 -0.593383 0)
(-0.419355 0.0671141 0)
(-0.00630557 0.123335 -3.60156e-22)
(0.0125881 0.089271 -1.31546e-22)
(-1.12429 -0.56789 -2.75692e-21)
(-0.413124 0.184718 -1.01523e-21)
(-0.242521 0.203526 0)
(-0.299314 -0.17484 3.84583e-22)
(-0.792805 -0.277031 -6.62015e-22)
(-0.423646 -0.0315855 -1.7773e-23)
(-0.681706 -0.421576 -4.92261e-22)
(-0.0679558 0.13572 0)
(-0.154059 0.148394 2.17316e-23)
(-0.380516 -0.219072 5.30592e-23)
(-0.553366 -0.165399 3.40036e-22)
(0.0331816 0.113346 1.02729e-23)
(-1.1468 -0.632395 -3.69499e-21)
(-0.469543 0.178764 -9.16496e-22)
(-0.383257 0.18754 1.46683e-22)
(-1.08411 -0.521844 6.52482e-22)
(-0.0129742 0.0661331 0)
(-0.14693 0.117272 -1.976e-23)
(-0.319701 -0.156503 -3.29845e-22)
(-0.495407 -0.15188 3.10558e-22)
(-0.415818 0.249271 -4.6397e-22)
(-0.00292506 0.0816403 -3.32206e-22)
(-1.21622 -0.515826 2.38968e-21)
(-0.217222 0.138414 2.42121e-23)
(-0.672798 -0.272493 0)
(-0.185176 -0.0695363 0)
(-0.3204 4.51761e-05 2.36197e-22)
(-0.564428 -0.298244 -1.50072e-22)
(-0.068865 0.0825716 0)
(-0.90614 -0.577415 0)
(-0.42748 0.0330977 -6.06787e-22)
(-0.0257986 0.132737 0)
(-0.417467 0.229273 4.143e-22)
(0.0301598 0.115919 1.04143e-22)
(-1.12456 -0.521179 -4.14617e-21)
(-0.414856 0.236648 -1.11522e-21)
(0.0271379 0.113793 0)
(-1.14838 -0.514479 3.39415e-21)
(0.00722861 0.0843409 -1.40872e-22)
(-1.13874 -0.557761 1.94317e-21)
(-0.411844 0.196396 9.0398e-22)
(-0.456569 -0.0517867 3.33478e-22)
(-0.697839 -0.44961 3.99213e-22)
(-0.0825406 0.147308 0)
(0.0307382 0.116469 -9.54322e-23)
(-1.07157 -0.495432 3.87067e-21)
(-0.399609 0.225232 0)
(0.0227844 0.107438 0)
(-1.09338 -0.61439 1.76146e-21)
(-0.432185 0.140782 1.3738e-22)
(0.0042029 0.0620916 -3.46032e-22)
(-0.582772 -0.385063 -4.83223e-21)
(-0.300395 0.11221 0)
(-0.266029 0.148759 1.20685e-21)
(-0.620457 -0.309479 0)
(0.0127252 0.070623 -3.57938e-22)
(-0.00907927 0.0741792 -8.29598e-24)
(-1.19802 -0.526816 0)
(-0.413956 0.237692 0)
(0.0325178 0.113624 0)
(-1.11354 -0.631581 0)
(-0.479705 0.17689 -1.4777e-21)
(-0.440762 0.209745 4.91977e-22)
(-0.434675 0.202977 -3.98194e-22)
(0.0241855 0.102571 3.11556e-22)
(-1.18293 -0.58173 6.02608e-22)
(0.0218035 0.0989697 4.64268e-22)
(-1.17192 -0.581929 -8.87126e-22)
(-0.436634 0.127416 -2.48955e-22)
(-1.08228 -0.625672 -1.05075e-21)
(0.0210435 0.111065 0)
(-0.0789336 0.162166 0)
(-0.880053 -0.618356 0)
(-0.506716 -0.0257427 0)
(-0.185508 0.0840088 0)
(-0.19919 -0.0604838 2.21977e-22)
(-0.506107 -0.194488 -2.32818e-22)
(-0.434468 0.0948241 -6.832e-22)
(-1.03408 -0.628611 -3.07518e-22)
(0.00955399 0.117781 -3.77894e-22)
(0.00146686 0.121713 -2.48332e-22)
(-0.434522 0.080396 9.49209e-22)
(-1.00997 -0.626214 4.26382e-22)
(-0.403317 0.253803 -3.78412e-22)
(-0.0332901 0.051403 -3.33575e-22)
(-1.20877 -0.494516 -3.98488e-21)
(-0.286896 0.222254 0)
(-0.913145 -0.333825 -5.46745e-22)
(-0.231964 -0.120973 6.32785e-22)
(-0.252345 0.190443 0)
(-0.801954 -0.302277 -1.45163e-21)
(-0.234418 -0.119927 4.28618e-24)
(-0.387759 0.096548 5.13908e-22)
(-0.966108 -0.556387 -2.89599e-22)
(0.00374792 0.104647 1.72747e-22)
(-0.400665 0.0891255 0)
(-0.974381 -0.57345 -2.51743e-22)
(0.00357047 0.111027 -1.69456e-22)
(-0.140024 0.102716 0)
(-0.32204 -0.151299 5.72247e-22)
(-0.451715 -0.131826 -1.07548e-22)
(-0.276299 0.184964 0)
(-0.854382 -0.347729 0)
(-0.162571 -0.0631204 -6.63322e-23)
(0.00215452 0.117981 5.33173e-22)
(-1.07355 -0.716914 5.62723e-21)
(-0.516939 0.0924508 0)
(-0.48088 0.15712 -1.31658e-21)
(0.0211368 0.101294 0)
(-0.97647 -0.6053 -2.27511e-21)
(-0.477543 0.14562 -6.15964e-23)
(0.0170508 0.09571 0)
(-0.936126 -0.596521 6.68686e-21)
(-0.192696 0.157298 -2.21483e-23)
(-0.28787 -0.147245 6.94527e-23)
(-0.643517 -0.227245 -9.74948e-23)
(-0.908308 -0.53991 1.63595e-22)
(0.0198324 0.0977504 -5.85459e-22)
(-0.435824 0.168591 0)
(-0.397769 0.199451 -6.76849e-22)
(-0.00679752 0.072221 -2.84669e-22)
(-1.12147 -0.535323 0)
(0.0148248 0.0901784 8.51192e-23)
(-0.859936 -0.544288 4.22544e-21)
(-0.435636 0.149764 0)
(-0.255895 0.00664044 3.62568e-23)
(-0.124929 0.0253392 -6.33509e-23)
(-0.443517 -0.192572 2.87969e-23)
(-0.305343 0.11913 2.08621e-23)
(-0.842938 -0.418096 1.74625e-22)
(-0.0442573 0.0467001 1.53301e-22)
(-0.640209 -0.415405 -8.53893e-22)
(-0.481025 -0.0742689 -7.03071e-22)
(-0.0996258 0.15369 0)
(0.0174339 0.107235 0)
(-1.05322 -0.674332 1.74295e-21)
(-0.514876 0.129324 0)
(-0.943861 -0.599692 0)
(-0.427827 0.0526388 0)
(-0.0144101 0.128106 0)
(0.0104517 0.0945178 0)
(-0.423203 0.242383 5.40087e-22)
(-1.20816 -0.529914 -2.34426e-21)
(-0.325124 0.125322 0)
(-0.888699 -0.449885 -6.04175e-23)
(-0.0286957 0.0586639 -1.49592e-22)
(-0.185734 0.0705221 0)
(-0.199468 -0.0566518 -1.77745e-22)
(-0.47239 -0.177507 0)
(-1.08137 -0.669346 5.20627e-21)
(-0.504059 0.14363 -7.90408e-22)
(0.0234675 0.110162 0)
(0.023661 0.101754 3.09875e-22)
(-1.11803 -0.601949 -1.1849e-22)
(-0.429003 0.164702 7.39954e-23)
(-0.436365 0.216864 0)
(-0.431592 0.214544 -9.56866e-22)
(0.0326073 0.116395 2.18726e-22)
(0.0323728 0.116155 2.90059e-22)
(-1.11535 -0.551594 2.33262e-21)
(-1.08575 -0.546733 -1.91868e-21)
(-0.344732 0.0386662 0)
(-0.752347 -0.433018 -1.9148e-21)
(-0.0313952 0.100085 -1.14554e-22)
(-0.89411 -0.534256 -2.28295e-21)
(-0.390336 0.0567111 0)
(-0.0117266 0.116626 1.81337e-22)
(-0.277144 0.026443 7.35587e-23)
(-0.556566 -0.27622 -3.02464e-22)
(-0.079052 0.0533535 -3.41599e-23)
(-1.01964 -0.635874 -4.38298e-21)
(-0.496558 0.150963 -1.3182e-21)
(-1.00638 -0.644102 2.2116e-21)
(0.0215633 0.104354 0)
(-0.504673 0.138763 1.27421e-21)
(0.0177247 0.101985 0)
(-0.366644 0.140199 0)
(-0.991437 -0.520096 0)
(-0.00301719 0.0800422 -2.17044e-22)
(-0.496642 0.154783 -1.54678e-21)
(-0.494581 0.157709 2.94888e-21)
(-1.08406 -0.654456 -2.8837e-21)
(-1.05676 -0.638887 6.79515e-21)
(0.0265189 0.110484 -5.16446e-22)
(0.0254413 0.108314 -9.81231e-24)
(-0.393002 0.0416551 0)
(-0.85713 -0.520671 1.83064e-21)
(-0.0225163 0.122289 -2.26597e-22)
(-0.302196 0.0704877 -1.20359e-22)
(-0.78203 -0.409103 9.18987e-22)
(-0.0346423 0.0662389 0)
(-0.425065 0.2372 0)
(0.02389 0.109028 0)
(-1.17907 -0.533999 -3.26023e-21)
(-0.332746 0.0567459 -7.24891e-23)
(-0.776024 -0.430553 5.61695e-22)
(-0.0257449 0.0920231 2.35475e-22)
(-0.28197 0.0407441 -1.72242e-23)
(-0.622648 -0.321768 3.54403e-22)
(-0.0633708 0.0607891 -7.71085e-23)
(-0.429286 0.223519 0)
(0.0310175 0.115807 0)
(-1.13711 -0.544477 4.3484e-21)
(-0.32725 0.141755 0)
(-0.92521 -0.453158 -2.60826e-22)
(-0.0324328 0.0506294 2.57616e-22)
(-0.783134 -0.550968 0)
(-0.542987 -0.069469 0)
(-0.111699 0.176776 9.85583e-24)
(-0.244961 0.211817 8.83664e-24)
(-0.802417 -0.269844 0)
(-0.324032 -0.199183 -7.18591e-22)
(-1.02292 -0.703198 -1.5896e-21)
(-0.0296747 0.136596 0)
(-0.49486 0.041332 0)
(0.00618679 0.0569128 8.46375e-22)
(-0.531133 -0.29632 -6.89454e-21)
(-0.249257 0.113026 1.81071e-21)
(-0.32363 0.0918649 0)
(-0.827184 -0.43971 -5.59535e-22)
(-0.0236189 0.0749714 1.41171e-22)
(-0.437251 0.224731 -9.83125e-22)
(0.0254378 0.107289 -1.12387e-21)
(-1.18672 -0.560978 0)
(-0.460973 -0.317813 2.67084e-22)
(-0.757494 -0.220931 7.92175e-22)
(-0.221684 0.219347 7.21232e-23)
(-0.327329 0.187174 0)
(0.0223419 0.0949776 3.54178e-22)
(-0.813938 -0.394587 0)
(-0.0918361 0.111895 -3.11944e-23)
(-0.0965388 0.125705 3.43693e-23)
(-0.490556 -0.2751 0)
(-0.398713 -0.0638241 -2.12534e-22)
(-0.515436 -0.300913 3.8042e-22)
(-0.429473 -0.0768449 1.98511e-22)
(-0.297807 0.00330059 -6.74046e-23)
(-0.521643 -0.259665 -2.41517e-22)
(-0.081993 0.0652572 0)
(-0.123669 0.123561 -3.22698e-23)
(-0.108436 0.112011 0)
(-0.404064 -0.21998 1.52488e-22)
(-0.464718 -0.117508 -1.91524e-22)
(-0.426072 -0.228873 -1.53603e-22)
(-0.421106 -0.0881434 9.90825e-24)
(-0.309564 0.0878282 -9.80658e-24)
(-0.73019 -0.385103 3.30095e-22)
(-0.0407671 0.0704369 8.67391e-23)
(-0.313004 0.0567353 1.90379e-22)
(-0.730505 -0.391719 -9.8494e-24)
(-0.0377322 0.0803536 0)
(0.0145984 0.096087 0)
(-0.949127 -0.620302 0)
(-0.495552 0.135268 -1.63653e-21)
(-0.210401 0.15727 2.04808e-23)
(-0.681272 -0.253559 0)
(-0.241225 -0.112717 -1.35224e-22)
(-0.487484 0.163327 2.28816e-21)
(-1.11139 -0.651201 -2.92793e-21)
(0.0304658 0.113197 2.92997e-22)
(-0.391341 0.115566 0)
(-0.40699 0.123054 -4.31338e-22)
(-1.00316 -0.561572 3.61082e-22)
(-1.03752 -0.583652 -1.51582e-21)
(0.00972699 0.101016 2.49053e-22)
(0.014815 0.104246 2.71972e-22)
(-0.204484 0.142394 0)
(-0.65137 -0.249695 0)
(-0.22072 -0.0961099 -4.73937e-23)
(-0.299368 0.207341 -1.03171e-22)
(-0.927376 -0.368862 0)
(-0.167057 -0.0643421 -2.0598e-22)
(-0.35947 0.110526 1.46968e-22)
(-0.935557 -0.511673 0)
(-0.00204571 0.0892951 0)
(-0.175326 0.0445328 3.10318e-23)
(-0.381303 -0.121782 6.05093e-23)
(-0.236218 -0.0759818 -3.58501e-23)
(-0.41866 0.101629 0)
(-1.02319 -0.604903 0)
(0.0110383 0.113 4.0018e-22)
(-0.168883 0.0949771 0)
(-0.23957 -0.0919003 -4.36388e-23)
(-0.495131 -0.177291 0)
(-0.374525 0.0608978 2.80141e-22)
(-0.867611 -0.514262 1.04638e-21)
(-0.0141963 0.109442 2.16616e-23)
(-0.296538 0.194483 -1.13582e-22)
(-0.91076 -0.375163 0)
(-0.143168 -0.0469836 -4.20536e-22)
(-0.168084 0.0631948 -3.07578e-23)
(-0.153193 0.0723989 -8.38467e-24)
(-0.416171 -0.139339 -5.68855e-23)
(-0.240205 -0.0852082 6.96044e-23)
(-0.410926 -0.128583 0)
(-0.274245 -0.112173 1.47972e-22)
(-0.125217 0.0957884 -5.71175e-24)
(-0.354853 -0.174982 -3.14397e-22)
(-0.112826 0.102553 4.41309e-24)
(-0.415831 -0.105745 1.56712e-22)
(-0.413998 -0.214924 1.00384e-22)
(-0.40811 -0.0884376 7.83394e-23)
(-0.240416 0.151541 -2.86034e-23)
(-0.25904 0.149944 0)
(-0.74243 -0.307897 -6.65726e-22)
(-0.780762 -0.337661 5.23291e-22)
(-0.161696 -0.051636 2.42884e-22)
(-0.127063 -0.0229641 -4.01113e-22)
(-0.00866212 0.0716891 0)
(-1.16202 -0.533239 1.27797e-21)
(-0.406963 0.218816 5.20332e-22)
(-0.121238 0.179661 -1.14819e-22)
(-0.551436 -0.0861563 -6.89311e-22)
(-0.726613 -0.507501 1.29792e-21)
(0.00464955 0.08408 3.49424e-22)
(0.0120089 0.0896104 -2.76995e-22)
(-1.17526 -0.551886 -1.10576e-21)
(-1.16407 -0.564732 -1.77681e-21)
(-0.418581 0.218622 -1.42103e-21)
(-0.422936 0.207125 7.61e-22)
(-0.166338 0.188623 -9.17589e-23)
(-0.523932 -0.347026 3.75004e-22)
(-0.620966 -0.156763 -1.20246e-22)
(-0.208397 0.00387522 2.40181e-23)
(-0.221435 -0.0470678 0)
(-0.326077 -0.0951773 1.13603e-22)
(-0.421055 0.11688 2.46573e-22)
(-1.04772 -0.606789 1.71594e-21)
(0.0161241 0.110167 0)
(-0.183417 0.133776 0)
(-0.254412 -0.121563 4.52982e-23)
(-0.592252 -0.213144 3.44873e-22)
(-0.30813 0.194654 0)
(-0.938238 -0.394733 0)
(-0.12133 -0.0272902 3.92124e-22)
(-0.386505 0.224003 4.4889e-22)
(-0.38407 0.213476 0)