/*--------------------------------*- C++ -*----------------------------------*\
  =========                 |
  \\      /  F ield         | OpenFOAM: The Open Source CFD Toolbox
   \\    /   O peration     | Website:  https://openfoam.org
    \\  /    A nd           | Version:  6
     \\/     M anipulation  |
\*---------------------------------------------------------------------------*/
FoamFile
{
    version     2.0;
    format      ascii;
    class       volScalarField;
    location    "./ITHACAoutput/POD/1";
    object      P_rec;
}
// * * * * * * * * * * * * * * * * * * * * * * * * * * * * * * * * * * * * * //

dimensions      [0 2 -2 0 0 0 0];

internalField   nonuniform List<scalar> 
145945
(
1.406e-05
1.40564e-05
1.40524e-05
1.40437e-05
1.40357e-05
1.40299e-05
1.40264e-05
1.40244e-05
1.40238e-05
1.40245e-05
1.40267e-05
1.40302e-05
1.40354e-05
1.40426e-05
1.4052e-05
1.40575e-05
1.40615e-05
1.40561e-05
1.40407e-05
1.40339e-05
1.40282e-05
1.40236e-05
1.40202e-05
1.40181e-05
1.40168e-05
1.40165e-05
1.40172e-05
1.40187e-05
1.40211e-05
1.40247e-05
1.40294e-05
1.40352e-05
1.40417e-05
1.40578e-05
1.40518e-05
1.40336e-05
1.40244e-05
1.40186e-05
1.40144e-05
1.40114e-05
1.40094e-05
1.40083e-05
1.4008e-05
1.40086e-05
1.40101e-05
1.40125e-05
1.40159e-05
1.40205e-05
1.40261e-05
1.40346e-05
1.40542e-05
1.40429e-05
1.40277e-05
1.40183e-05
1.40124e-05
1.40081e-05
1.40048e-05
1.40026e-05
1.40014e-05
1.4001e-05
1.40017e-05
1.40033e-05
1.4006e-05
1.40097e-05
1.40147e-05
1.40204e-05
1.40292e-05
1.40461e-05
1.40349e-05
1.4023e-05
1.4014e-05
1.40079e-05
1.40033e-05
1.39999e-05
1.39975e-05
1.39962e-05
1.39958e-05
1.39965e-05
1.39982e-05
1.40012e-05
1.40051e-05
1.40103e-05
1.40162e-05
1.40252e-05
1.40387e-05
1.40292e-05
1.40197e-05
1.40109e-05
1.40046e-05
1.39998e-05
1.39963e-05
1.39937e-05
1.39923e-05
1.39919e-05
1.39926e-05
1.39944e-05
1.39975e-05
1.40016e-05
1.40071e-05
1.40133e-05
1.40224e-05
1.40334e-05
1.40259e-05
1.40177e-05
1.4009e-05
1.40024e-05
1.39974e-05
1.39937e-05
1.39912e-05
1.39895e-05
1.3989e-05
1.39898e-05
1.39919e-05
1.39951e-05
1.39993e-05
1.40049e-05
1.40115e-05
1.40207e-05
1.40303e-05
1.40238e-05
1.40164e-05
1.40079e-05
1.40011e-05
1.3996e-05
1.39923e-05
1.39895e-05
1.3988e-05
1.39873e-05
1.39882e-05
1.39903e-05
1.39935e-05
1.3998e-05
1.40037e-05
1.40105e-05
1.40195e-05
1.40285e-05
1.40232e-05
1.40161e-05
1.40077e-05
1.40008e-05
1.39957e-05
1.39918e-05
1.39891e-05
1.39874e-05
1.39868e-05
1.39878e-05
1.39897e-05
1.39931e-05
1.39976e-05
1.40034e-05
1.40102e-05
1.40192e-05
1.40279e-05
1.4024e-05
1.40168e-05
1.40083e-05
1.40015e-05
1.39963e-05
1.39926e-05
1.39899e-05
1.39883e-05
1.39878e-05
1.39885e-05
1.39906e-05
1.39939e-05
1.39983e-05
1.4004e-05
1.40109e-05
1.40198e-05
1.40287e-05
1.40262e-05
1.40183e-05
1.40098e-05
1.40031e-05
1.39983e-05
1.39945e-05
1.39921e-05
1.39904e-05
1.39898e-05
1.39907e-05
1.39928e-05
1.39959e-05
1.40001e-05
1.40058e-05
1.40124e-05
1.40213e-05
1.40308e-05
1.40298e-05
1.40209e-05
1.40123e-05
1.40058e-05
1.40012e-05
1.39977e-05
1.39953e-05
1.39938e-05
1.39933e-05
1.3994e-05
1.3996e-05
1.3999e-05
1.40031e-05
1.40083e-05
1.40146e-05
1.40235e-05
1.4034e-05
1.40351e-05
1.40245e-05
1.40158e-05
1.40097e-05
1.40053e-05
1.40019e-05
1.39997e-05
1.39983e-05
1.3998e-05
1.39986e-05
1.40004e-05
1.40033e-05
1.4007e-05
1.40121e-05
1.40179e-05
1.40266e-05
1.40389e-05
1.40425e-05
1.40294e-05
1.40206e-05
1.40148e-05
1.40106e-05
1.40075e-05
1.40054e-05
1.40041e-05
1.40038e-05
1.40043e-05
1.40061e-05
1.40086e-05
1.40122e-05
1.4017e-05
1.40224e-05
1.40308e-05
1.40458e-05
1.40521e-05
1.40353e-05
1.40263e-05
1.40206e-05
1.40165e-05
1.40136e-05
1.40119e-05
1.40109e-05
1.40106e-05
1.40113e-05
1.40126e-05
1.40148e-05
1.40182e-05
1.40225e-05
1.4028e-05
1.40363e-05
1.40545e-05
1.40576e-05
1.40419e-05
1.40347e-05
1.40294e-05
1.40254e-05
1.40226e-05
1.40208e-05
1.40196e-05
1.40194e-05
1.402e-05
1.40214e-05
1.40236e-05
1.40267e-05
1.4031e-05
1.40363e-05
1.40428e-05
1.40593e-05
1.40617e-05
1.4058e-05
1.40545e-05
1.40461e-05
1.40386e-05
1.40334e-05
1.40302e-05
1.40283e-05
1.40278e-05
1.40285e-05
1.40307e-05
1.40339e-05
1.40388e-05
1.40456e-05
1.40545e-05
1.40594e-05
1.40629e-05
1.38151e-05
1.38171e-05
1.38193e-05
1.38174e-05
1.38138e-05
1.38107e-05
1.3809e-05
1.3808e-05
1.38078e-05
1.3808e-05
1.3809e-05
1.38106e-05
1.38133e-05
1.38167e-05
1.382e-05
1.38185e-05
1.38149e-05
1.38167e-05
1.3809e-05
1.38096e-05
1.38103e-05
1.38094e-05
1.3808e-05
1.38071e-05
1.38067e-05
1.38067e-05
1.38068e-05
1.38074e-05
1.38083e-05
1.38096e-05
1.38113e-05
1.38117e-05
1.38105e-05
1.3817e-05
1.38189e-05
1.38094e-05
1.38089e-05
1.38101e-05
1.38096e-05
1.38085e-05
1.38078e-05
1.38074e-05
1.38074e-05
1.38075e-05
1.38081e-05
1.3809e-05
1.38102e-05
1.38115e-05
1.38112e-05
1.38111e-05
1.38195e-05
1.3817e-05
1.38101e-05
1.381e-05
1.38113e-05
1.3811e-05
1.38097e-05
1.38086e-05
1.38081e-05
1.38081e-05
1.38083e-05
1.3809e-05
1.381e-05
1.38114e-05
1.38129e-05
1.38125e-05
1.38122e-05
1.38183e-05
1.38135e-05
1.38091e-05
1.38095e-05
1.38109e-05
1.38106e-05
1.38095e-05
1.38084e-05
1.38077e-05
1.38076e-05
1.38079e-05
1.38086e-05
1.38098e-05
1.38112e-05
1.38125e-05
1.38121e-05
1.38119e-05
1.38155e-05
1.38106e-05
1.38079e-05
1.38084e-05
1.38098e-05
1.38095e-05
1.38082e-05
1.38073e-05
1.38067e-05
1.38066e-05
1.38068e-05
1.38075e-05
1.38087e-05
1.38101e-05
1.38114e-05
1.38114e-05
1.38112e-05
1.38132e-05
1.38088e-05
1.3807e-05
1.38077e-05
1.38087e-05
1.38084e-05
1.38074e-05
1.38064e-05
1.38058e-05
1.38057e-05
1.3806e-05
1.38066e-05
1.38077e-05
1.38092e-05
1.38106e-05
1.3811e-05
1.38108e-05
1.38119e-05
1.38081e-05
1.38068e-05
1.38076e-05
1.38083e-05
1.38079e-05
1.38068e-05
1.38059e-05
1.38054e-05
1.38053e-05
1.38055e-05
1.38062e-05
1.38073e-05
1.38087e-05
1.38102e-05
1.38108e-05
1.38108e-05
1.38114e-05
1.3808e-05
1.38069e-05
1.38075e-05
1.38084e-05
1.38078e-05
1.38069e-05
1.3806e-05
1.38054e-05
1.38053e-05
1.38056e-05
1.38062e-05
1.38072e-05
1.38088e-05
1.38104e-05
1.3811e-05
1.38111e-05
1.38115e-05
1.38083e-05
1.38071e-05
1.38079e-05
1.38087e-05
1.38083e-05
1.38072e-05
1.38063e-05
1.38058e-05
1.38058e-05
1.3806e-05
1.38067e-05
1.38078e-05
1.38093e-05
1.38109e-05
1.38115e-05
1.38115e-05
1.3812e-05
1.38094e-05
1.38077e-05
1.38084e-05
1.38094e-05
1.3809e-05
1.38081e-05
1.38071e-05
1.38066e-05
1.38065e-05
1.38068e-05
1.38076e-05
1.38086e-05
1.38101e-05
1.38116e-05
1.3812e-05
1.38119e-05
1.38127e-05
1.38109e-05
1.38086e-05
1.38093e-05
1.38104e-05
1.38102e-05
1.38092e-05
1.38083e-05
1.38078e-05
1.38076e-05
1.3808e-05
1.38088e-05
1.38099e-05
1.38113e-05
1.38128e-05
1.38129e-05
1.38125e-05
1.38139e-05
1.38136e-05
1.38099e-05
1.38105e-05
1.38118e-05
1.38115e-05
1.38104e-05
1.38095e-05
1.38091e-05
1.38091e-05
1.38094e-05
1.38102e-05
1.38113e-05
1.38128e-05
1.38141e-05
1.38137e-05
1.38133e-05
1.38158e-05
1.3817e-05
1.38114e-05
1.38116e-05
1.38128e-05
1.38126e-05
1.38114e-05
1.38107e-05
1.38103e-05
1.38105e-05
1.38109e-05
1.38116e-05
1.38127e-05
1.3814e-05
1.38151e-05
1.38145e-05
1.38138e-05
1.38182e-05
1.38199e-05
1.38116e-05
1.3811e-05
1.3812e-05
1.38118e-05
1.38111e-05
1.38106e-05
1.38105e-05
1.38107e-05
1.38111e-05
1.38117e-05
1.38124e-05
1.38134e-05
1.38143e-05
1.38133e-05
1.38125e-05
1.38196e-05
1.38182e-05
1.38101e-05
1.38104e-05
1.38113e-05
1.38109e-05
1.38103e-05
1.38099e-05
1.38099e-05
1.38102e-05
1.38106e-05
1.38111e-05
1.38116e-05
1.38124e-05
1.38129e-05
1.38122e-05
1.38104e-05
1.38163e-05
1.38142e-05
1.38161e-05
1.38184e-05
1.38171e-05
1.38141e-05
1.38116e-05
1.38103e-05
1.38098e-05
1.381e-05
1.38105e-05
1.38113e-05
1.38126e-05
1.38145e-05
1.3817e-05
1.38188e-05
1.38159e-05
1.38113e-05
1.36449e-05
1.36431e-05
1.36396e-05
1.36349e-05
1.36312e-05
1.36287e-05
1.36274e-05
1.36267e-05
1.36265e-05
1.36265e-05
1.3627e-05
1.3628e-05
1.36297e-05
1.36326e-05
1.36369e-05
1.36402e-05
1.3642e-05
1.36433e-05
1.36377e-05
1.36347e-05
1.36324e-05
1.36305e-05
1.36293e-05
1.36289e-05
1.36286e-05
1.36284e-05
1.36285e-05
1.36285e-05
1.36288e-05
1.36295e-05
1.36307e-05
1.36326e-05
1.3635e-05
1.36407e-05
1.36402e-05
1.3635e-05
1.36328e-05
1.36315e-05
1.36305e-05
1.36299e-05
1.36295e-05
1.36295e-05
1.36294e-05
1.36292e-05
1.36292e-05
1.36293e-05
1.36296e-05
1.36301e-05
1.36308e-05
1.36326e-05
1.36377e-05
1.36359e-05
1.36331e-05
1.36318e-05
1.36313e-05
1.36309e-05
1.36304e-05
1.363e-05
1.36298e-05
1.36296e-05
1.36297e-05
1.36296e-05
1.36297e-05
1.36297e-05
1.363e-05
1.36299e-05
1.36307e-05
1.36337e-05
1.36324e-05
1.36315e-05
1.36312e-05
1.36312e-05
1.36309e-05
1.36304e-05
1.363e-05
1.36299e-05
1.36296e-05
1.36296e-05
1.36296e-05
1.36297e-05
1.36298e-05
1.36298e-05
1.36293e-05
1.36292e-05
1.36304e-05
1.36302e-05
1.36307e-05
1.36309e-05
1.36311e-05
1.36309e-05
1.36304e-05
1.36303e-05
1.36299e-05
1.36297e-05
1.36297e-05
1.36296e-05
1.36297e-05
1.36298e-05
1.36297e-05
1.36292e-05
1.36288e-05
1.36285e-05
1.36292e-05
1.36305e-05
1.36309e-05
1.36311e-05
1.36308e-05
1.36306e-05
1.36302e-05
1.36299e-05
1.36297e-05
1.36296e-05
1.36297e-05
1.36298e-05
1.36297e-05
1.36297e-05
1.36294e-05
1.36289e-05
1.36277e-05
1.36287e-05
1.36304e-05
1.36311e-05
1.36311e-05
1.36309e-05
1.36306e-05
1.36303e-05
1.36299e-05
1.36298e-05
1.36298e-05
1.36298e-05
1.36299e-05
1.36297e-05
1.36299e-05
1.36297e-05
1.36291e-05
1.36275e-05
1.36285e-05
1.36303e-05
1.36311e-05
1.36313e-05
1.36309e-05
1.36307e-05
1.36303e-05
1.36302e-05
1.363e-05
1.36299e-05
1.36299e-05
1.363e-05
1.363e-05
1.36301e-05
1.36299e-05
1.36295e-05
1.36275e-05
1.36287e-05
1.36305e-05
1.36312e-05
1.36313e-05
1.3631e-05
1.36308e-05
1.36304e-05
1.36303e-05
1.36301e-05
1.36301e-05
1.36303e-05
1.36302e-05
1.36303e-05
1.36303e-05
1.36302e-05
1.36296e-05
1.36278e-05
1.36291e-05
1.36305e-05
1.36312e-05
1.36312e-05
1.3631e-05
1.36307e-05
1.36305e-05
1.36304e-05
1.36303e-05
1.36304e-05
1.36304e-05
1.36305e-05
1.36306e-05
1.36306e-05
1.36303e-05
1.36297e-05
1.36283e-05
1.363e-05
1.36307e-05
1.3631e-05
1.36311e-05
1.36309e-05
1.36306e-05
1.36304e-05
1.36303e-05
1.36303e-05
1.36303e-05
1.36306e-05
1.36306e-05
1.36306e-05
1.36306e-05
1.36301e-05
1.36296e-05
1.36288e-05
1.36313e-05
1.36309e-05
1.36308e-05
1.36306e-05
1.36304e-05
1.36302e-05
1.36299e-05
1.36298e-05
1.363e-05
1.36301e-05
1.36303e-05
1.36305e-05
1.36306e-05
1.36305e-05
1.36299e-05
1.36297e-05
1.36301e-05
1.36338e-05
1.36315e-05
1.36306e-05
1.36301e-05
1.36296e-05
1.36292e-05
1.36292e-05
1.36292e-05
1.36295e-05
1.36296e-05
1.36298e-05
1.363e-05
1.363e-05
1.363e-05
1.36296e-05
1.36299e-05
1.36318e-05
1.36371e-05
1.36325e-05
1.36303e-05
1.3629e-05
1.36282e-05
1.36278e-05
1.36281e-05
1.36282e-05
1.36285e-05
1.36288e-05
1.3629e-05
1.3629e-05
1.36289e-05
1.3629e-05
1.36291e-05
1.36302e-05
1.36343e-05
1.36396e-05
1.36341e-05
1.36311e-05
1.36289e-05
1.36273e-05
1.36266e-05
1.36266e-05
1.36268e-05
1.36273e-05
1.36275e-05
1.36277e-05
1.36279e-05
1.36281e-05
1.36286e-05
1.36295e-05
1.36313e-05
1.36361e-05
1.36405e-05
1.36388e-05
1.36357e-05
1.36312e-05
1.36279e-05
1.36257e-05
1.36248e-05
1.36246e-05
1.36247e-05
1.36251e-05
1.36256e-05
1.36264e-05
1.3628e-05
1.36301e-05
1.36331e-05
1.36356e-05
1.36365e-05
1.34998e-05
1.35008e-05
1.34997e-05
1.34975e-05
1.34951e-05
1.34933e-05
1.34919e-05
1.34911e-05
1.34907e-05
1.34907e-05
1.34909e-05
1.34916e-05
1.3493e-05
1.34948e-05
1.34966e-05
1.34975e-05
1.34962e-05
1.35014e-05
1.35e-05
1.3499e-05
1.34978e-05
1.34964e-05
1.34952e-05
1.34943e-05
1.34937e-05
1.34934e-05
1.34934e-05
1.34935e-05
1.34938e-05
1.34944e-05
1.34952e-05
1.3496e-05
1.34966e-05
1.34978e-05
1.35008e-05
1.34997e-05
1.34989e-05
1.34984e-05
1.34976e-05
1.34968e-05
1.34963e-05
1.34959e-05
1.34956e-05
1.34954e-05
1.34953e-05
1.34955e-05
1.34956e-05
1.34959e-05
1.34959e-05
1.34961e-05
1.34971e-05
1.34991e-05
1.3499e-05
1.34991e-05
1.34992e-05
1.34989e-05
1.34985e-05
1.34981e-05
1.34976e-05
1.34973e-05
1.34972e-05
1.34972e-05
1.34971e-05
1.34969e-05
1.34966e-05
1.3496e-05
1.34953e-05
1.34955e-05
1.34973e-05
1.34981e-05
1.34989e-05
1.34995e-05
1.34997e-05
1.34995e-05
1.34992e-05
1.34988e-05
1.34985e-05
1.34984e-05
1.34982e-05
1.34978e-05
1.34977e-05
1.3497e-05
1.34957e-05
1.34945e-05
1.34937e-05
1.34958e-05
1.34974e-05
1.34985e-05
1.34996e-05
1.35001e-05
1.35001e-05
1.34999e-05
1.34996e-05
1.34993e-05
1.34991e-05
1.34989e-05
1.34986e-05
1.3498e-05
1.34972e-05
1.34957e-05
1.34939e-05
1.34921e-05
1.34947e-05
1.34968e-05
1.34984e-05
1.34996e-05
1.35002e-05
1.35004e-05
1.35003e-05
1.35001e-05
1.34999e-05
1.34996e-05
1.34993e-05
1.34989e-05
1.34983e-05
1.34972e-05
1.34956e-05
1.34936e-05
1.34912e-05
1.34942e-05
1.34965e-05
1.34983e-05
1.34996e-05
1.35003e-05
1.35005e-05
1.35006e-05
1.35004e-05
1.35001e-05
1.34998e-05
1.34996e-05
1.34991e-05
1.34985e-05
1.34974e-05
1.34956e-05
1.34934e-05
1.3491e-05
1.34938e-05
1.34964e-05
1.34982e-05
1.34995e-05
1.35002e-05
1.35005e-05
1.35006e-05
1.35004e-05
1.35003e-05
1.35e-05
1.34998e-05
1.34993e-05
1.34986e-05
1.34974e-05
1.34958e-05
1.34936e-05
1.34908e-05
1.34939e-05
1.34963e-05
1.34981e-05
1.34995e-05
1.35002e-05
1.35005e-05
1.35005e-05
1.35004e-05
1.35002e-05
1.35e-05
1.34997e-05
1.34993e-05
1.34986e-05
1.34976e-05
1.34959e-05
1.34937e-05
1.3491e-05
1.3494e-05
1.34964e-05
1.34979e-05
1.34993e-05
1.35e-05
1.35002e-05
1.35002e-05
1.35002e-05
1.35001e-05
1.34998e-05
1.34996e-05
1.34992e-05
1.34986e-05
1.34977e-05
1.34959e-05
1.34937e-05
1.34913e-05
1.34946e-05
1.34964e-05
1.34977e-05
1.34989e-05
1.34993e-05
1.34996e-05
1.34995e-05
1.34994e-05
1.34994e-05
1.34993e-05
1.34991e-05
1.34989e-05
1.34983e-05
1.34975e-05
1.34958e-05
1.3494e-05
1.34919e-05
1.34954e-05
1.34965e-05
1.34974e-05
1.34982e-05
1.34984e-05
1.34985e-05
1.34984e-05
1.34984e-05
1.34983e-05
1.34982e-05
1.34981e-05
1.3498e-05
1.34978e-05
1.3497e-05
1.34956e-05
1.3494e-05
1.34927e-05
1.34964e-05
1.34965e-05
1.34967e-05
1.3497e-05
1.34969e-05
1.34967e-05
1.34965e-05
1.34965e-05
1.34964e-05
1.34965e-05
1.34967e-05
1.34966e-05
1.34965e-05
1.3496e-05
1.3495e-05
1.3494e-05
1.34936e-05
1.34972e-05
1.34964e-05
1.34957e-05
1.34953e-05
1.34946e-05
1.34943e-05
1.3494e-05
1.3494e-05
1.34941e-05
1.34943e-05
1.34944e-05
1.34943e-05
1.34944e-05
1.34943e-05
1.34939e-05
1.34936e-05
1.34942e-05
1.34972e-05
1.34958e-05
1.34949e-05
1.34937e-05
1.34926e-05
1.34917e-05
1.34912e-05
1.34911e-05
1.34911e-05
1.34913e-05
1.34916e-05
1.34919e-05
1.34923e-05
1.34928e-05
1.34929e-05
1.34931e-05
1.34939e-05
1.3495e-05
1.34962e-05
1.34952e-05
1.34932e-05
1.34911e-05
1.34893e-05
1.34882e-05
1.34879e-05
1.34879e-05
1.34881e-05
1.34886e-05
1.34894e-05
1.34906e-05
1.34918e-05
1.34931e-05
1.34934e-05
1.34917e-05
1.32933e-05
1.32959e-05
1.32975e-05
1.32984e-05
1.32988e-05
1.32989e-05
1.32989e-05
1.32989e-05
1.32987e-05
1.32985e-05
1.32982e-05
1.32978e-05
1.32975e-05
1.32968e-05
1.32955e-05
1.32934e-05
1.32901e-05
1.32965e-05
1.32973e-05
1.32984e-05
1.32996e-05
1.33003e-05
1.33006e-05
1.33008e-05
1.3301e-05
1.33008e-05
1.33006e-05
1.33003e-05
1.32997e-05
1.32989e-05
1.3298e-05
1.32963e-05
1.32947e-05
1.32933e-05
1.32987e-05
1.32991e-05
1.33002e-05
1.33016e-05
1.33024e-05
1.33029e-05
1.33033e-05
1.33034e-05
1.33033e-05
1.33031e-05
1.33026e-05
1.33019e-05
1.33011e-05
1.32999e-05
1.32982e-05
1.32963e-05
1.32953e-05
1.33002e-05
1.33009e-05
1.33023e-05
1.33039e-05
1.33048e-05
1.33055e-05
1.33058e-05
1.33059e-05
1.33059e-05
1.33055e-05
1.33051e-05
1.33044e-05
1.33035e-05
1.33021e-05
1.33001e-05
1.3298e-05
1.32968e-05
1.33011e-05
1.33022e-05
1.33037e-05
1.33054e-05
1.33066e-05
1.33074e-05
1.33078e-05
1.3308e-05
1.33078e-05
1.33076e-05
1.33071e-05
1.33064e-05
1.33053e-05
1.33037e-05
1.33016e-05
1.32992e-05
1.32976e-05
1.33016e-05
1.33029e-05
1.33047e-05
1.33066e-05
1.3308e-05
1.33088e-05
1.33092e-05
1.33094e-05
1.33094e-05
1.3309e-05
1.33085e-05
1.33077e-05
1.33065e-05
1.33049e-05
1.33027e-05
1.33002e-05
1.32982e-05
1.33018e-05
1.33035e-05
1.33054e-05
1.33074e-05
1.33087e-05
1.33097e-05
1.33102e-05
1.33105e-05
1.33104e-05
1.33102e-05
1.33096e-05
1.33086e-05
1.33075e-05
1.33057e-05
1.33035e-05
1.33007e-05
1.32986e-05
1.33021e-05
1.33038e-05
1.33058e-05
1.33078e-05
1.33094e-05
1.33103e-05
1.33109e-05
1.33111e-05
1.3311e-05
1.33109e-05
1.33103e-05
1.33094e-05
1.33081e-05
1.33064e-05
1.3304e-05
1.33012e-05
1.32988e-05
1.3302e-05
1.33039e-05
1.3306e-05
1.3308e-05
1.33094e-05
1.33105e-05
1.33111e-05
1.33113e-05
1.33114e-05
1.33112e-05
1.33106e-05
1.33097e-05
1.33084e-05
1.33067e-05
1.33043e-05
1.33015e-05
1.3299e-05
1.33017e-05
1.33037e-05
1.33057e-05
1.33077e-05
1.33093e-05
1.33102e-05
1.3311e-05
1.33113e-05
1.33113e-05
1.33111e-05
1.33106e-05
1.33097e-05
1.33084e-05
1.33067e-05
1.33043e-05
1.33015e-05
1.3299e-05
1.33013e-05
1.33032e-05
1.33052e-05
1.33072e-05
1.33088e-05
1.33096e-05
1.33104e-05
1.33107e-05
1.33108e-05
1.33106e-05
1.33101e-05
1.33092e-05
1.3308e-05
1.33062e-05
1.33038e-05
1.33011e-05
1.32988e-05
1.33007e-05
1.33023e-05
1.33043e-05
1.33061e-05
1.33078e-05
1.33086e-05
1.33092e-05
1.33096e-05
1.33097e-05
1.33096e-05
1.33091e-05
1.33083e-05
1.33072e-05
1.33055e-05
1.33032e-05
1.33005e-05
1.32982e-05
1.32999e-05
1.33011e-05
1.33029e-05
1.33047e-05
1.33061e-05
1.3307e-05
1.33077e-05
1.3308e-05
1.33081e-05
1.3308e-05
1.33076e-05
1.3307e-05
1.33057e-05
1.33042e-05
1.33019e-05
1.32994e-05
1.32975e-05
1.32985e-05
1.32996e-05
1.3301e-05
1.33026e-05
1.33039e-05
1.33047e-05
1.33052e-05
1.33057e-05
1.33059e-05
1.33058e-05
1.33053e-05
1.33048e-05
1.33038e-05
1.33022e-05
1.33001e-05
1.32978e-05
1.32962e-05
1.32964e-05
1.32971e-05
1.32985e-05
1.32998e-05
1.33009e-05
1.33017e-05
1.33022e-05
1.33026e-05
1.33029e-05
1.33029e-05
1.33025e-05
1.3302e-05
1.3301e-05
1.32996e-05
1.32976e-05
1.32954e-05
1.32941e-05
1.32936e-05
1.32944e-05
1.32957e-05
1.32971e-05
1.32979e-05
1.32986e-05
1.3299e-05
1.32993e-05
1.32996e-05
1.32996e-05
1.32993e-05
1.32988e-05
1.32981e-05
1.32968e-05
1.32949e-05
1.32927e-05
1.32914e-05
1.32895e-05
1.32925e-05
1.32941e-05
1.32952e-05
1.32958e-05
1.32961e-05
1.32963e-05
1.32965e-05
1.32966e-05
1.32967e-05
1.32966e-05
1.32963e-05
1.32958e-05
1.32949e-05
1.32932e-05
1.3291e-05
1.32874e-05
1.31264e-05
1.31286e-05
1.31298e-05
1.31309e-05
1.31316e-05
1.3132e-05
1.3132e-05
1.3132e-05
1.3132e-05
1.31317e-05
1.31314e-05
1.31309e-05
1.31303e-05
1.31292e-05
1.31276e-05
1.31257e-05
1.31227e-05
1.31291e-05
1.31301e-05
1.3131e-05
1.3132e-05
1.31329e-05
1.31334e-05
1.31336e-05
1.31337e-05
1.31335e-05
1.31335e-05
1.3133e-05
1.31324e-05
1.31315e-05
1.31304e-05
1.31288e-05
1.3127e-05
1.31255e-05
1.31309e-05
1.31316e-05
1.31325e-05
1.31338e-05
1.31347e-05
1.31352e-05
1.31356e-05
1.31356e-05
1.31356e-05
1.31353e-05
1.31349e-05
1.31342e-05
1.31332e-05
1.31319e-05
1.31303e-05
1.31285e-05
1.31273e-05
1.31326e-05
1.31333e-05
1.31344e-05
1.31357e-05
1.31366e-05
1.31372e-05
1.31375e-05
1.31377e-05
1.31377e-05
1.31374e-05
1.31369e-05
1.31362e-05
1.31352e-05
1.31338e-05
1.31319e-05
1.313e-05
1.31289e-05
1.31337e-05
1.31346e-05
1.31358e-05
1.31372e-05
1.31381e-05
1.31389e-05
1.31392e-05
1.31395e-05
1.31394e-05
1.31391e-05
1.31387e-05
1.31378e-05
1.31367e-05
1.31353e-05
1.31333e-05
1.31313e-05
1.31299e-05
1.31345e-05
1.31355e-05
1.31369e-05
1.31382e-05
1.31394e-05
1.31401e-05
1.31406e-05
1.31407e-05
1.31408e-05
1.31404e-05
1.314e-05
1.31391e-05
1.3138e-05
1.31364e-05
1.31344e-05
1.31322e-05
1.31306e-05
1.31348e-05
1.3136e-05
1.31375e-05
1.3139e-05
1.31402e-05
1.3141e-05
1.31416e-05
1.31418e-05
1.31417e-05
1.31414e-05
1.31409e-05
1.31399e-05
1.31389e-05
1.31373e-05
1.31352e-05
1.31329e-05
1.3131e-05
1.3135e-05
1.31363e-05
1.31378e-05
1.31394e-05
1.31407e-05
1.31415e-05
1.31421e-05
1.31423e-05
1.31423e-05
1.31421e-05
1.31415e-05
1.31406e-05
1.31394e-05
1.31378e-05
1.31356e-05
1.31333e-05
1.31313e-05
1.31351e-05
1.31363e-05
1.31379e-05
1.31396e-05
1.31408e-05
1.31417e-05
1.31423e-05
1.31426e-05
1.31425e-05
1.31423e-05
1.31417e-05
1.31409e-05
1.31397e-05
1.3138e-05
1.31359e-05
1.31335e-05
1.31315e-05
1.31348e-05
1.31361e-05
1.31377e-05
1.31393e-05
1.31405e-05
1.31415e-05
1.31422e-05
1.31425e-05
1.31425e-05
1.31422e-05
1.31417e-05
1.31408e-05
1.31396e-05
1.3138e-05
1.31358e-05
1.31334e-05
1.31315e-05
1.31344e-05
1.31356e-05
1.31372e-05
1.31388e-05
1.31401e-05
1.3141e-05
1.31417e-05
1.31419e-05
1.31419e-05
1.31417e-05
1.31412e-05
1.31403e-05
1.31391e-05
1.31375e-05
1.31355e-05
1.31331e-05
1.31311e-05
1.31336e-05
1.31349e-05
1.31362e-05
1.31379e-05
1.3139e-05
1.31401e-05
1.31405e-05
1.3141e-05
1.3141e-05
1.31408e-05
1.31403e-05
1.31395e-05
1.31384e-05
1.31368e-05
1.31347e-05
1.31324e-05
1.31306e-05
1.31325e-05
1.31337e-05
1.31349e-05
1.31365e-05
1.31376e-05
1.31384e-05
1.31391e-05
1.31395e-05
1.31394e-05
1.31393e-05
1.31389e-05
1.31381e-05
1.3137e-05
1.31356e-05
1.31335e-05
1.31313e-05
1.31297e-05
1.3131e-05
1.31319e-05
1.31331e-05
1.31345e-05
1.31356e-05
1.31365e-05
1.3137e-05
1.31373e-05
1.31375e-05
1.31374e-05
1.31369e-05
1.31363e-05
1.31352e-05
1.31337e-05
1.31318e-05
1.31296e-05
1.31282e-05
1.31287e-05
1.31297e-05
1.31308e-05
1.31321e-05
1.31332e-05
1.31339e-05
1.31344e-05
1.31348e-05
1.31349e-05
1.31347e-05
1.31344e-05
1.31338e-05
1.31328e-05
1.31315e-05
1.31295e-05
1.31275e-05
1.31261e-05
1.31261e-05
1.31272e-05
1.31284e-05
1.31296e-05
1.31306e-05
1.31313e-05
1.31317e-05
1.31321e-05
1.31321e-05
1.31321e-05
1.31317e-05
1.31312e-05
1.31303e-05
1.31289e-05
1.31272e-05
1.31253e-05
1.31237e-05
1.31226e-05
1.31252e-05
1.31267e-05
1.3128e-05
1.31288e-05
1.31293e-05
1.31295e-05
1.31298e-05
1.31298e-05
1.31297e-05
1.31295e-05
1.31291e-05
1.31285e-05
1.31273e-05
1.31255e-05
1.31235e-05
1.31202e-05
1.29625e-05
1.29641e-05
1.29651e-05
1.29665e-05
1.29676e-05
1.2968e-05
1.29684e-05
1.29685e-05
1.29685e-05
1.29682e-05
1.29679e-05
1.29673e-05
1.29664e-05
1.29651e-05
1.29634e-05
1.29615e-05
1.29592e-05
1.29646e-05
1.29653e-05
1.29661e-05
1.29672e-05
1.29684e-05
1.29691e-05
1.29694e-05
1.29696e-05
1.29696e-05
1.29693e-05
1.29689e-05
1.29683e-05
1.29673e-05
1.29659e-05
1.29642e-05
1.29626e-05
1.29613e-05
1.29662e-05
1.29667e-05
1.29676e-05
1.29687e-05
1.29696e-05
1.29704e-05
1.29709e-05
1.2971e-05
1.2971e-05
1.29708e-05
1.29703e-05
1.29696e-05
1.29686e-05
1.29673e-05
1.29655e-05
1.29638e-05
1.29629e-05
1.2968e-05
1.29683e-05
1.29693e-05
1.29704e-05
1.29714e-05
1.2972e-05
1.29725e-05
1.29728e-05
1.29726e-05
1.29724e-05
1.29719e-05
1.29711e-05
1.29702e-05
1.29689e-05
1.29673e-05
1.29654e-05
1.29645e-05
1.29695e-05
1.29699e-05
1.29708e-05
1.29719e-05
1.29728e-05
1.29735e-05
1.29739e-05
1.29742e-05
1.29742e-05
1.29739e-05
1.29734e-05
1.29727e-05
1.29717e-05
1.29703e-05
1.29685e-05
1.29669e-05
1.29658e-05
1.29703e-05
1.29709e-05
1.29719e-05
1.2973e-05
1.2974e-05
1.29746e-05
1.29752e-05
1.29753e-05
1.29754e-05
1.29751e-05
1.29745e-05
1.29738e-05
1.29727e-05
1.29714e-05
1.29696e-05
1.2968e-05
1.29667e-05
1.2971e-05
1.29716e-05
1.29726e-05
1.29737e-05
1.29748e-05
1.29755e-05
1.2976e-05
1.29763e-05
1.29762e-05
1.29759e-05
1.29753e-05
1.29747e-05
1.29736e-05
1.29721e-05
1.29705e-05
1.29686e-05
1.29674e-05
1.29713e-05
1.2972e-05
1.2973e-05
1.29743e-05
1.29752e-05
1.2976e-05
1.29765e-05
1.29767e-05
1.29768e-05
1.29764e-05
1.29759e-05
1.29751e-05
1.29741e-05
1.29728e-05
1.29709e-05
1.29692e-05
1.29678e-05
1.29713e-05
1.29721e-05
1.29731e-05
1.29743e-05
1.29754e-05
1.29762e-05
1.29767e-05
1.29769e-05
1.2977e-05
1.29767e-05
1.29762e-05
1.29754e-05
1.29744e-05
1.2973e-05
1.29712e-05
1.29694e-05
1.29678e-05
1.29711e-05
1.29719e-05
1.29729e-05
1.29742e-05
1.29753e-05
1.2976e-05
1.29766e-05
1.29768e-05
1.29768e-05
1.29766e-05
1.29762e-05
1.29753e-05
1.29743e-05
1.29729e-05
1.29712e-05
1.29693e-05
1.29679e-05
1.29706e-05
1.29714e-05
1.29724e-05
1.29736e-05
1.29747e-05
1.29756e-05
1.2976e-05
1.29764e-05
1.29764e-05
1.29761e-05
1.29756e-05
1.29749e-05
1.29738e-05
1.29724e-05
1.29708e-05
1.29688e-05
1.29675e-05
1.29699e-05
1.29706e-05
1.29716e-05
1.29728e-05
1.29739e-05
1.29747e-05
1.29753e-05
1.29755e-05
1.29756e-05
1.29753e-05
1.29748e-05
1.29741e-05
1.29731e-05
1.29717e-05
1.297e-05
1.29682e-05
1.29669e-05
1.29686e-05
1.29692e-05
1.29703e-05
1.29715e-05
1.29726e-05
1.29734e-05
1.2974e-05
1.29743e-05
1.29743e-05
1.29742e-05
1.29736e-05
1.2973e-05
1.29719e-05
1.29705e-05
1.29688e-05
1.29669e-05
1.29658e-05
1.29669e-05
1.29675e-05
1.29685e-05
1.29699e-05
1.29709e-05
1.29718e-05
1.29722e-05
1.29725e-05
1.29727e-05
1.29725e-05
1.29721e-05
1.29714e-05
1.29703e-05
1.2969e-05
1.29672e-05
1.29654e-05
1.29644e-05
1.29647e-05
1.29653e-05
1.29663e-05
1.29677e-05
1.29687e-05
1.29696e-05
1.29702e-05
1.29705e-05
1.29707e-05
1.29705e-05
1.29701e-05
1.29694e-05
1.29683e-05
1.2967e-05
1.29652e-05
1.29634e-05
1.29621e-05
1.29622e-05
1.29632e-05
1.29643e-05
1.29655e-05
1.29667e-05
1.29675e-05
1.29682e-05
1.29684e-05
1.29686e-05
1.29684e-05
1.29679e-05
1.29674e-05
1.29663e-05
1.29649e-05
1.29632e-05
1.29613e-05
1.296e-05
1.29595e-05
1.29615e-05
1.29629e-05
1.29642e-05
1.29653e-05
1.29661e-05
1.29665e-05
1.29668e-05
1.29669e-05
1.29667e-05
1.29664e-05
1.29659e-05
1.2965e-05
1.29638e-05
1.29618e-05
1.29598e-05
1.29575e-05
1.28076e-05
1.28084e-05
1.28089e-05
1.28098e-05
1.28105e-05
1.28112e-05
1.28114e-05
1.28116e-05
1.28116e-05
1.28114e-05
1.2811e-05
1.28106e-05
1.28098e-05
1.28087e-05
1.28074e-05
1.28062e-05
1.28049e-05
1.28088e-05
1.28089e-05
1.28093e-05
1.28101e-05
1.2811e-05
1.28116e-05
1.2812e-05
1.28121e-05
1.28121e-05
1.28121e-05
1.28117e-05
1.28109e-05
1.28102e-05
1.28091e-05
1.28078e-05
1.28067e-05
1.2806e-05
1.28098e-05
1.28098e-05
1.28102e-05
1.28111e-05
1.28119e-05
1.28125e-05
1.28129e-05
1.28131e-05
1.28131e-05
1.28129e-05
1.28125e-05
1.28119e-05
1.28111e-05
1.281e-05
1.28086e-05
1.28076e-05
1.28069e-05
1.28111e-05
1.28111e-05
1.28116e-05
1.28125e-05
1.28131e-05
1.28137e-05
1.28141e-05
1.28142e-05
1.28141e-05
1.28141e-05
1.28136e-05
1.2813e-05
1.28122e-05
1.28111e-05
1.28099e-05
1.28087e-05
1.28081e-05
1.28122e-05
1.28124e-05
1.28128e-05
1.28135e-05
1.28143e-05
1.28148e-05
1.28152e-05
1.28153e-05
1.28154e-05
1.28151e-05
1.28147e-05
1.2814e-05
1.28133e-05
1.28123e-05
1.2811e-05
1.28099e-05
1.28091e-05
1.28132e-05
1.28133e-05
1.28138e-05
1.28145e-05
1.28153e-05
1.28158e-05
1.28162e-05
1.28163e-05
1.28163e-05
1.28161e-05
1.28156e-05
1.2815e-05
1.28142e-05
1.28131e-05
1.28119e-05
1.28106e-05
1.281e-05
1.28138e-05
1.28141e-05
1.28145e-05
1.28153e-05
1.28159e-05
1.28164e-05
1.28168e-05
1.28169e-05
1.28169e-05
1.28167e-05
1.28163e-05
1.28157e-05
1.28149e-05
1.2814e-05
1.28125e-05
1.28113e-05
1.28106e-05
1.28141e-05
1.28143e-05
1.28149e-05
1.28157e-05
1.28163e-05
1.28168e-05
1.28173e-05
1.28174e-05
1.28174e-05
1.28171e-05
1.28167e-05
1.28162e-05
1.28153e-05
1.28143e-05
1.28129e-05
1.28118e-05
1.2811e-05
1.28141e-05
1.28144e-05
1.2815e-05
1.28157e-05
1.28165e-05
1.28169e-05
1.28175e-05
1.28176e-05
1.28175e-05
1.28173e-05
1.28169e-05
1.28163e-05
1.28155e-05
1.28146e-05
1.28132e-05
1.2812e-05
1.2811e-05
1.28141e-05
1.28144e-05
1.2815e-05
1.28157e-05
1.28164e-05
1.2817e-05
1.28174e-05
1.28175e-05
1.28175e-05
1.28173e-05
1.28169e-05
1.28164e-05
1.28155e-05
1.28144e-05
1.28132e-05
1.28119e-05
1.28111e-05
1.28136e-05
1.28139e-05
1.28145e-05
1.28152e-05
1.28161e-05
1.28165e-05
1.28171e-05
1.28171e-05
1.28172e-05
1.2817e-05
1.28166e-05
1.2816e-05
1.28153e-05
1.28142e-05
1.28129e-05
1.28116e-05
1.28108e-05
1.2813e-05
1.28132e-05
1.28137e-05
1.28144e-05
1.28152e-05
1.28159e-05
1.28164e-05
1.28166e-05
1.28165e-05
1.28164e-05
1.2816e-05
1.28154e-05
1.28147e-05
1.28135e-05
1.28123e-05
1.28109e-05
1.28101e-05
1.28119e-05
1.28121e-05
1.28128e-05
1.28135e-05
1.28144e-05
1.2815e-05
1.28153e-05
1.28156e-05
1.28156e-05
1.28155e-05
1.28152e-05
1.28146e-05
1.28137e-05
1.28127e-05
1.28114e-05
1.28101e-05
1.28094e-05
1.28105e-05
1.28108e-05
1.28114e-05
1.28122e-05
1.28131e-05
1.28136e-05
1.28142e-05
1.28144e-05
1.28144e-05
1.28143e-05
1.2814e-05
1.28133e-05
1.28125e-05
1.28114e-05
1.28102e-05
1.28089e-05
1.28083e-05
1.28088e-05
1.2809e-05
1.28096e-05
1.28106e-05
1.28115e-05
1.28121e-05
1.28127e-05
1.28129e-05
1.28129e-05
1.28128e-05
1.28126e-05
1.28118e-05
1.28111e-05
1.281e-05
1.28087e-05
1.28075e-05
1.28067e-05
1.28072e-05
1.28076e-05
1.28083e-05
1.28091e-05
1.281e-05
1.28108e-05
1.28112e-05
1.28115e-05
1.28116e-05
1.28113e-05
1.2811e-05
1.28105e-05
1.28098e-05
1.28087e-05
1.28074e-05
1.28061e-05
1.28053e-05
1.28055e-05
1.28065e-05
1.28074e-05
1.28084e-05
1.28093e-05
1.28098e-05
1.28103e-05
1.28105e-05
1.28106e-05
1.28105e-05
1.28101e-05
1.28096e-05
1.28089e-05
1.28079e-05
1.28065e-05
1.28053e-05
1.28039e-05
1.2657e-05
1.26568e-05
1.26569e-05
1.26573e-05
1.26577e-05
1.2658e-05
1.26582e-05
1.26584e-05
1.26584e-05
1.26583e-05
1.2658e-05
1.26577e-05
1.26571e-05
1.26566e-05
1.26559e-05
1.26554e-05
1.2655e-05
1.26571e-05
1.26569e-05
1.26569e-05
1.26574e-05
1.26577e-05
1.26581e-05
1.26583e-05
1.26585e-05
1.26587e-05
1.26585e-05
1.26581e-05
1.26578e-05
1.26572e-05
1.26565e-05
1.26558e-05
1.26552e-05
1.26552e-05
1.26576e-05
1.26573e-05
1.26574e-05
1.26578e-05
1.26582e-05
1.26586e-05
1.26589e-05
1.2659e-05
1.26591e-05
1.26589e-05
1.26586e-05
1.26583e-05
1.26577e-05
1.2657e-05
1.26562e-05
1.26556e-05
1.26555e-05
1.26584e-05
1.26581e-05
1.26582e-05
1.26585e-05
1.2659e-05
1.26593e-05
1.26595e-05
1.26597e-05
1.26597e-05
1.26596e-05
1.26593e-05
1.26588e-05
1.26583e-05
1.26577e-05
1.26569e-05
1.26562e-05
1.2656e-05
1.26593e-05
1.26591e-05
1.2659e-05
1.26594e-05
1.26598e-05
1.26601e-05
1.26603e-05
1.26605e-05
1.26604e-05
1.26603e-05
1.266e-05
1.26596e-05
1.2659e-05
1.26584e-05
1.26577e-05
1.26569e-05
1.26568e-05
1.26599e-05
1.26596e-05
1.26597e-05
1.266e-05
1.26604e-05
1.26608e-05
1.2661e-05
1.26611e-05
1.2661e-05
1.26608e-05
1.26607e-05
1.26602e-05
1.26597e-05
1.2659e-05
1.26582e-05
1.26575e-05
1.26573e-05
1.26603e-05
1.26601e-05
1.26603e-05
1.26606e-05
1.26609e-05
1.26613e-05
1.26615e-05
1.26616e-05
1.26615e-05
1.26613e-05
1.26611e-05
1.26606e-05
1.26602e-05
1.26594e-05
1.26589e-05
1.26581e-05
1.26577e-05
1.26607e-05
1.26604e-05
1.26605e-05
1.26609e-05
1.26613e-05
1.26617e-05
1.26618e-05
1.26619e-05
1.26619e-05
1.26617e-05
1.26615e-05
1.2661e-05
1.26605e-05
1.26598e-05
1.26591e-05
1.26584e-05
1.2658e-05
1.26608e-05
1.26606e-05
1.26608e-05
1.26611e-05
1.26615e-05
1.26618e-05
1.2662e-05
1.2662e-05
1.26621e-05
1.26619e-05
1.26616e-05
1.26612e-05
1.26606e-05
1.266e-05