/*--------------------------------*- C++ -*----------------------------------*\
  =========                 |
  \\      /  F ield         | OpenFOAM: The Open Source CFD Toolbox
   \\    /   O peration     | Website:  https://openfoam.org
    \\  /    A nd           | Version:  6
     \\/     M anipulation  |
\*---------------------------------------------------------------------------*/
FoamFile
{
    version     2.0;
    format      ascii;
    class       volScalarField;
    location    "0";
    object      p;
}
// * * * * * * * * * * * * * * * * * * * * * * * * * * * * * * * * * * * * * //

dimensions      [0 2 -2 0 0 0 0];

internalField   nonuniform List<scalar> 
145945
(
2.36857e-06
2.36824e-06
2.36823e-06
2.36826e-06
2.3684e-06
2.36849e-06
2.3686e-06
2.36865e-06
2.36869e-06
2.36867e-06
2.36864e-06
2.36855e-06
2.36848e-06
2.36836e-06
2.36837e-06
2.36833e-06
2.36868e-06
2.36824e-06
2.3681e-06
2.36813e-06
2.36821e-06
2.36836e-06
2.36846e-06
2.36857e-06
2.36864e-06
2.36868e-06
2.36866e-06
2.36862e-06
2.36853e-06
2.36845e-06
2.36832e-06
2.36828e-06
2.36822e-06
2.36836e-06
2.36823e-06
2.36813e-06
2.36816e-06
2.36828e-06
2.36845e-06
2.36857e-06
2.36869e-06
2.36876e-06
2.3688e-06
2.36878e-06
2.36874e-06
2.36864e-06
2.36855e-06
2.36841e-06
2.36832e-06
2.36825e-06
2.36836e-06
2.36826e-06
2.36821e-06
2.36828e-06
2.36845e-06
2.36863e-06
2.36877e-06
2.36889e-06
2.36896e-06
2.369e-06
2.36899e-06
2.36894e-06
2.36885e-06
2.36874e-06
2.36859e-06
2.36846e-06
2.36835e-06
2.36839e-06
2.3684e-06
2.36836e-06
2.36845e-06
2.36863e-06
2.36882e-06
2.36897e-06
2.36909e-06
2.36916e-06
2.3692e-06
2.36919e-06
2.36914e-06
2.36904e-06
2.36893e-06
2.36878e-06
2.36863e-06
2.3685e-06
2.36853e-06
2.36849e-06
2.36846e-06
2.36857e-06
2.36877e-06
2.36897e-06
2.36912e-06
2.36925e-06
2.36933e-06
2.36937e-06
2.36935e-06
2.3693e-06
2.3692e-06
2.36908e-06
2.36893e-06
2.36876e-06
2.36861e-06
2.36862e-06
2.3686e-06
2.36857e-06
2.36869e-06
2.36889e-06
2.36909e-06
2.36925e-06
2.36937e-06
2.36945e-06
2.36949e-06
2.36948e-06
2.36942e-06
2.36933e-06
2.3692e-06
2.36905e-06
2.36888e-06
2.36873e-06
2.36873e-06
2.36865e-06
2.36864e-06
2.36876e-06
2.36896e-06
2.36916e-06
2.36933e-06
2.36945e-06
2.36953e-06
2.36957e-06
2.36956e-06
2.36951e-06
2.36941e-06
2.36928e-06
2.36912e-06
2.36895e-06
2.36879e-06
2.36879e-06
2.36869e-06
2.36868e-06
2.3688e-06
2.36901e-06
2.3692e-06
2.36937e-06
2.36949e-06
2.36957e-06
2.36961e-06
2.3696e-06
2.36955e-06
2.36945e-06
2.36932e-06
2.36916e-06
2.36899e-06
2.36883e-06
2.36883e-06
2.36867e-06
2.36866e-06
2.36878e-06
2.36899e-06
2.36919e-06
2.36936e-06
2.36948e-06
2.36956e-06
2.3696e-06
2.36959e-06
2.36953e-06
2.36944e-06
2.36931e-06
2.36915e-06
2.36898e-06
2.36881e-06
2.36881e-06
2.36864e-06
2.36862e-06
2.36874e-06
2.36894e-06
2.36914e-06
2.3693e-06
2.36942e-06
2.36951e-06
2.36955e-06
2.36953e-06
2.36948e-06
2.36938e-06
2.36926e-06
2.3691e-06
2.36893e-06
2.36877e-06
2.36878e-06
2.36855e-06
2.36853e-06
2.36864e-06
2.36885e-06
2.36904e-06
2.3692e-06
2.36933e-06
2.36941e-06
2.36945e-06
2.36944e-06
2.36938e-06
2.36929e-06
2.36916e-06
2.369e-06
2.36884e-06
2.36868e-06
2.36868e-06
2.36848e-06
2.36845e-06
2.36855e-06
2.36874e-06
2.36893e-06
2.36908e-06
2.3692e-06
2.36928e-06
2.36932e-06
2.36931e-06
2.36926e-06
2.36916e-06
2.36904e-06
2.36889e-06
2.36873e-06
2.3686e-06
2.36862e-06
2.36836e-06
2.36833e-06
2.36841e-06
2.36859e-06
2.36878e-06
2.36893e-06
2.36905e-06
2.36912e-06
2.36916e-06
2.36915e-06
2.3691e-06
2.369e-06
2.36889e-06
2.36874e-06
2.3686e-06
2.36847e-06
2.3685e-06
2.36837e-06
2.36828e-06
2.36832e-06
2.36846e-06
2.36863e-06
2.36876e-06
2.36888e-06
2.36895e-06
2.36899e-06
2.36898e-06
2.36893e-06
2.36884e-06
2.36874e-06
2.3686e-06
2.3685e-06
2.36841e-06
2.3685e-06
2.36834e-06
2.36822e-06
2.36825e-06
2.36835e-06
2.3685e-06
2.36862e-06
2.36873e-06
2.36879e-06
2.36883e-06
2.36882e-06
2.36877e-06
2.36868e-06
2.3686e-06
2.36847e-06
2.36841e-06
2.36834e-06
2.36846e-06
2.36869e-06
2.36836e-06
2.36836e-06
2.36839e-06
2.36853e-06
2.36862e-06
2.36873e-06
2.36879e-06
2.36883e-06
2.36881e-06
2.36878e-06
2.36869e-06
2.36862e-06
2.3685e-06
2.3685e-06
2.36846e-06
2.36881e-06
2.29493e-06
2.29489e-06
2.29513e-06
2.29538e-06
2.29569e-06
2.29595e-06
2.29616e-06
2.2963e-06
2.29636e-06
2.29633e-06
2.29622e-06
2.29604e-06
2.29581e-06
2.29552e-06
2.29528e-06
2.29499e-06
2.29503e-06
2.29489e-06
2.29501e-06
2.29529e-06
2.29561e-06
2.29595e-06
2.29623e-06
2.29646e-06
2.29661e-06
2.29667e-06
2.29664e-06
2.29653e-06
2.29632e-06
2.29607e-06
2.29576e-06
2.29546e-06
2.29513e-06
2.29498e-06
2.29513e-06
2.29529e-06
2.29559e-06
2.29595e-06
2.29632e-06
2.29663e-06
2.29687e-06
2.29703e-06
2.2971e-06
2.29706e-06
2.29694e-06
2.29673e-06
2.29645e-06
2.29611e-06
2.29576e-06
2.29543e-06
2.29523e-06
2.29538e-06
2.29561e-06
2.29595e-06
2.29636e-06
2.29675e-06
2.29708e-06
2.29733e-06
2.29749e-06
2.29756e-06
2.29753e-06
2.2974e-06
2.29718e-06
2.29689e-06
2.29653e-06
2.29614e-06
2.29576e-06
2.29549e-06
2.29569e-06
2.29595e-06
2.29632e-06
2.29675e-06
2.29716e-06
2.2975e-06
2.29776e-06
2.29793e-06
2.298e-06
2.29797e-06
2.29783e-06
2.2976e-06
2.2973e-06
2.29692e-06
2.29651e-06
2.2961e-06
2.2958e-06
2.29595e-06
2.29623e-06
2.29663e-06
2.29708e-06
2.2975e-06
2.29785e-06
2.29811e-06
2.29829e-06
2.29836e-06
2.29833e-06
2.29819e-06
2.29796e-06
2.29764e-06
2.29726e-06
2.29683e-06
2.29639e-06
2.29606e-06
2.29616e-06
2.29646e-06
2.29687e-06
2.29733e-06
2.29776e-06
2.29811e-06
2.29838e-06
2.29856e-06
2.29863e-06
2.2986e-06
2.29846e-06
2.29823e-06
2.29791e-06
2.29751e-06
2.29707e-06
2.29662e-06
2.29627e-06
2.2963e-06
2.29661e-06
2.29703e-06
2.29749e-06
2.29793e-06
2.29829e-06
2.29856e-06
2.29873e-06
2.29881e-06
2.29878e-06
2.29864e-06
2.2984e-06
2.29808e-06
2.29768e-06
2.29723e-06
2.29677e-06
2.29641e-06
2.29636e-06
2.29667e-06
2.29709e-06
2.29756e-06
2.298e-06
2.29836e-06
2.29863e-06
2.29881e-06
2.29888e-06
2.29885e-06
2.29871e-06
2.29848e-06
2.29815e-06
2.29775e-06
2.2973e-06
2.29684e-06
2.29647e-06
2.29633e-06
2.29664e-06
2.29706e-06
2.29753e-06
2.29797e-06
2.29833e-06
2.2986e-06
2.29878e-06
2.29885e-06
2.29882e-06
2.29868e-06
2.29844e-06
2.29812e-06
2.29772e-06
2.29727e-06
2.2968e-06
2.29644e-06
2.29622e-06
2.29653e-06
2.29694e-06
2.2974e-06
2.29783e-06
2.29819e-06
2.29846e-06
2.29864e-06
2.29871e-06
2.29868e-06
2.29854e-06
2.2983e-06
2.29798e-06
2.29759e-06
2.29714e-06
2.29669e-06
2.29633e-06
2.29604e-06
2.29632e-06
2.29673e-06
2.29718e-06
2.29761e-06
2.29796e-06
2.29823e-06
2.2984e-06
2.29848e-06
2.29844e-06
2.2983e-06
2.29807e-06
2.29775e-06
2.29736e-06
2.29693e-06
2.29648e-06
2.29614e-06
2.29581e-06
2.29607e-06
2.29645e-06
2.29689e-06
2.2973e-06
2.29764e-06
2.29791e-06
2.29808e-06
2.29815e-06
2.29812e-06
2.29798e-06
2.29775e-06
2.29745e-06
2.29706e-06
2.29665e-06
2.29623e-06
2.29591e-06
2.29552e-06
2.29576e-06
2.29611e-06
2.29653e-06
2.29692e-06
2.29726e-06
2.29751e-06
2.29768e-06
2.29775e-06
2.29772e-06
2.29759e-06
2.29736e-06
2.29706e-06
2.2967e-06
2.2963e-06
2.29591e-06
2.29562e-06
2.29528e-06
2.29546e-06
2.29576e-06
2.29614e-06
2.29651e-06
2.29683e-06
2.29708e-06
2.29723e-06
2.2973e-06
2.29727e-06
2.29715e-06
2.29693e-06
2.29665e-06
2.2963e-06
2.29594e-06
2.2956e-06
2.29538e-06
2.29499e-06
2.29513e-06
2.29543e-06
2.29576e-06
2.2961e-06
2.29639e-06
2.29662e-06
2.29677e-06
2.29684e-06
2.29681e-06
2.29669e-06
2.29649e-06
2.29623e-06
2.29591e-06
2.2956e-06
2.29526e-06
2.29509e-06
2.29503e-06
2.29498e-06
2.29523e-06
2.29549e-06
2.2958e-06
2.29606e-06
2.29627e-06
2.29641e-06
2.29647e-06
2.29644e-06
2.29633e-06
2.29614e-06
2.29591e-06
2.29562e-06
2.29538e-06
2.29509e-06
2.29512e-06
2.24247e-06
2.24359e-06
2.24465e-06
2.24558e-06
2.24642e-06
2.24706e-06
2.24752e-06
2.2478e-06
2.2479e-06
2.24783e-06
2.24759e-06
2.24717e-06
2.24658e-06
2.24577e-06
2.24481e-06
2.24364e-06
2.24247e-06
2.24359e-06
2.24459e-06
2.24561e-06
2.24655e-06
2.24738e-06
2.24802e-06
2.24848e-06
2.24875e-06
2.24886e-06
2.24879e-06
2.24855e-06
2.24813e-06
2.24754e-06
2.24674e-06
2.24578e-06
2.24464e-06
2.24359e-06
2.24465e-06
2.24561e-06
2.24657e-06
2.24748e-06
2.24828e-06
2.24891e-06
2.24936e-06
2.24963e-06
2.24974e-06
2.24967e-06
2.24943e-06
2.24902e-06
2.24844e-06
2.24766e-06
2.24672e-06
2.24565e-06
2.24465e-06
2.24558e-06
2.24655e-06
2.24748e-06
2.24837e-06
2.24916e-06
2.24977e-06
2.25021e-06
2.25048e-06
2.25059e-06
2.25052e-06
2.25029e-06
2.24988e-06
2.24931e-06
2.24854e-06
2.24762e-06
2.24659e-06
2.24558e-06
2.24642e-06
2.24738e-06
2.24828e-06
2.24916e-06
2.24992e-06
2.25052e-06
2.25096e-06
2.25123e-06
2.25133e-06
2.25127e-06
2.25104e-06
2.25064e-06
2.25007e-06
2.24932e-06
2.24842e-06
2.24742e-06
2.24643e-06
2.24706e-06
2.24802e-06
2.24891e-06
2.24977e-06
2.25052e-06
2.25112e-06
2.25155e-06
2.25182e-06
2.25192e-06
2.25186e-06
2.25163e-06
2.25123e-06
2.25067e-06
2.24993e-06
2.24904e-06
2.24805e-06
2.24706e-06
2.24752e-06
2.24848e-06
2.24936e-06
2.25021e-06
2.25096e-06
2.25155e-06
2.25198e-06
2.25225e-06
2.25235e-06
2.25228e-06
2.25206e-06
2.25166e-06
2.25111e-06
2.25038e-06
2.24949e-06
2.24851e-06
2.24752e-06
2.24779e-06
2.24875e-06
2.24963e-06
2.25048e-06
2.25123e-06
2.25182e-06
2.25225e-06
2.25251e-06
2.25261e-06
2.25255e-06
2.25232e-06
2.25193e-06
2.25137e-06
2.25065e-06
2.24976e-06
2.24879e-06
2.2478e-06
2.2479e-06
2.24886e-06
2.24974e-06
2.25059e-06
2.25133e-06
2.25192e-06
2.25235e-06
2.25261e-06
2.25271e-06
2.25265e-06
2.25242e-06
2.25203e-06
2.25148e-06
2.25075e-06
2.24987e-06
2.2489e-06
2.24791e-06
2.24783e-06
2.24879e-06
2.24967e-06
2.25052e-06
2.25127e-06
2.25186e-06
2.25228e-06
2.25255e-06
2.25265e-06
2.25259e-06
2.25236e-06
2.25197e-06
2.25141e-06
2.25069e-06
2.2498e-06
2.24883e-06
2.24784e-06
2.2476e-06
2.24855e-06
2.24943e-06
2.25029e-06
2.25104e-06
2.25163e-06
2.25206e-06
2.25232e-06
2.25242e-06
2.25236e-06
2.25213e-06
2.25174e-06
2.25118e-06
2.25045e-06
2.24956e-06
2.24859e-06
2.2476e-06
2.24717e-06
2.24813e-06
2.24902e-06
2.24988e-06
2.25064e-06
2.25123e-06
2.25166e-06
2.25193e-06
2.25203e-06
2.25197e-06
2.25174e-06
2.25134e-06
2.25078e-06
2.25005e-06
2.24915e-06
2.24817e-06
2.24717e-06
2.24658e-06
2.24754e-06
2.24844e-06
2.24931e-06
2.25007e-06
2.25067e-06
2.25111e-06
2.25137e-06
2.25148e-06
2.25141e-06
2.25118e-06
2.25078e-06
2.25022e-06
2.24947e-06
2.24857e-06
2.24758e-06
2.24658e-06
2.24577e-06
2.24674e-06
2.24766e-06
2.24855e-06
2.24932e-06
2.24993e-06
2.25038e-06
2.25065e-06
2.25075e-06
2.25069e-06
2.25045e-06
2.25005e-06
2.24947e-06
2.24872e-06
2.2478e-06
2.24677e-06
2.24577e-06
2.24482e-06
2.24578e-06
2.24672e-06
2.24762e-06
2.24842e-06
2.24904e-06
2.24949e-06
2.24976e-06
2.24987e-06
2.2498e-06
2.24956e-06
2.24915e-06
2.24857e-06
2.2478e-06
2.24686e-06
2.24581e-06
2.24482e-06
2.24364e-06
2.24464e-06
2.24565e-06
2.24659e-06
2.24742e-06
2.24806e-06
2.24851e-06
2.24879e-06
2.2489e-06
2.24883e-06
2.24859e-06
2.24817e-06
2.24758e-06
2.24677e-06
2.24581e-06
2.24469e-06
2.24365e-06
2.24247e-06
2.24359e-06
2.24465e-06
2.24558e-06
2.24643e-06
2.24706e-06
2.24752e-06
2.2478e-06
2.24791e-06
2.24784e-06
2.2476e-06
2.24717e-06
2.24658e-06
2.24577e-06
2.24482e-06
2.24365e-06
2.24247e-06
2.18991e-06
2.19186e-06
2.19362e-06
2.19529e-06
2.19671e-06
2.19776e-06
2.19851e-06
2.19897e-06
2.19914e-06
2.19903e-06
2.19863e-06
2.19794e-06
2.19696e-06
2.19561e-06
2.19394e-06
2.19202e-06
2.18994e-06
2.19186e-06
2.19349e-06
2.19521e-06
2.19684e-06
2.19822e-06
2.19926e-06
2.19999e-06
2.20044e-06
2.20061e-06
2.2005e-06
2.20011e-06
2.19943e-06
2.19847e-06
2.19716e-06
2.19553e-06
2.19364e-06
2.19189e-06
2.19362e-06
2.19521e-06
2.19686e-06
2.19842e-06
2.19975e-06
2.20074e-06
2.20145e-06
2.20188e-06
2.20205e-06
2.20194e-06
2.20157e-06
2.20092e-06
2.19999e-06
2.19874e-06
2.19717e-06
2.19535e-06
2.19365e-06
2.19529e-06
2.19684e-06
2.19842e-06
2.19994e-06
2.20121e-06
2.20218e-06
2.20286e-06
2.20328e-06
2.20344e-06
2.20333e-06
2.20297e-06
2.20234e-06
2.20145e-06
2.20024e-06
2.19872e-06
2.19698e-06
2.19532e-06
2.19671e-06
2.19822e-06
2.19975e-06
2.20121e-06
2.20245e-06
2.20338e-06
2.20405e-06
2.20445e-06
2.20461e-06
2.20451e-06
2.20416e-06
2.20355e-06
2.20268e-06
2.20151e-06
2.20004e-06
2.19836e-06
2.19674e-06
2.19776e-06
2.19925e-06
2.20074e-06
2.20218e-06
2.20338e-06
2.2043e-06
2.20495e-06
2.20535e-06
2.2055e-06
2.2054e-06
2.20506e-06
2.20446e-06
2.20361e-06
2.20247e-06
2.20103e-06
2.19939e-06
2.19779e-06
2.19851e-06
2.19999e-06
2.20145e-06
2.20286e-06
2.20405e-06
2.20495e-06
2.20559e-06
2.20598e-06
2.20613e-06
2.20603e-06
2.20569e-06
2.20511e-06
2.20427e-06
2.20315e-06
2.20173e-06
2.20013e-06
2.19855e-06
2.19897e-06
2.20044e-06
2.20188e-06
2.20328e-06
2.20445e-06
2.20535e-06
2.20598e-06
2.20637e-06
2.20652e-06
2.20642e-06
2.20608e-06
2.2055e-06
2.20467e-06
2.20356e-06
2.20216e-06
2.20057e-06
2.199e-06
2.19914e-06
2.20061e-06
2.20205e-06
2.20344e-06
2.20461e-06
2.2055e-06
2.20613e-06
2.20652e-06
2.20666e-06
2.20657e-06
2.20623e-06
2.20566e-06
2.20483e-06
2.20372e-06
2.20233e-06
2.20074e-06
2.19918e-06
2.19903e-06
2.2005e-06
2.20194e-06
2.20333e-06
2.20451e-06
2.2054e-06
2.20603e-06
2.20642e-06
2.20657e-06
2.20648e-06
2.20614e-06
2.20556e-06
2.20473e-06
2.20362e-06
2.20222e-06
2.20063e-06
2.19906e-06
2.19863e-06
2.20011e-06
2.20157e-06
2.20297e-06
2.20416e-06
2.20506e-06
2.20569e-06
2.20608e-06
2.20623e-06
2.20614e-06
2.2058e-06
2.20522e-06
2.20438e-06
2.20326e-06
2.20185e-06
2.20024e-06
2.19867e-06
2.19794e-06
2.19943e-06
2.20092e-06
2.20234e-06
2.20355e-06
2.20446e-06
2.20511e-06
2.2055e-06
2.20566e-06
2.20556e-06
2.20522e-06
2.20462e-06
2.20377e-06
2.20264e-06
2.2012e-06
2.19957e-06
2.19797e-06
2.19696e-06
2.19847e-06
2.19999e-06
2.20145e-06
2.20268e-06
2.20361e-06
2.20427e-06
2.20467e-06
2.20483e-06
2.20473e-06
2.20438e-06
2.20377e-06
2.2029e-06
2.20174e-06
2.20028e-06
2.19861e-06
2.19699e-06
2.19562e-06
2.19716e-06
2.19874e-06
2.20024e-06
2.20151e-06
2.20247e-06
2.20315e-06
2.20356e-06
2.20372e-06
2.20362e-06
2.20326e-06
2.20264e-06
2.20174e-06
2.20055e-06
2.19904e-06
2.1973e-06
2.19565e-06
2.19395e-06
2.19553e-06
2.19717e-06
2.19872e-06
2.20004e-06
2.20103e-06
2.20173e-06
2.20216e-06
2.20233e-06
2.20222e-06
2.20185e-06
2.2012e-06
2.20028e-06
2.19904e-06
2.19747e-06
2.19567e-06
2.19398e-06
2.19202e-06
2.19364e-06
2.19535e-06
2.19698e-06
2.19836e-06
2.19939e-06
2.20013e-06
2.20057e-06
2.20074e-06
2.20063e-06
2.20024e-06
2.19957e-06
2.19861e-06
2.1973e-06
2.19567e-06
2.19379e-06
2.19205e-06
2.18994e-06
2.19189e-06
2.19365e-06
2.19532e-06
2.19674e-06
2.19779e-06
2.19855e-06
2.199e-06
2.19918e-06
2.19906e-06
2.19867e-06
2.19797e-06
2.19699e-06
2.19565e-06
2.19397e-06
2.19205e-06
2.18996e-06
2.13847e-06
2.14072e-06
2.1427e-06
2.14466e-06
2.14629e-06
2.14753e-06
2.14841e-06
2.14895e-06
2.14916e-06
2.14902e-06
2.14855e-06
2.14773e-06
2.14658e-06
2.14503e-06
2.14306e-06
2.1409e-06
2.13849e-06
2.14072e-06
2.14258e-06
2.14455e-06
2.14646e-06
2.14807e-06
2.1493e-06
2.15017e-06
2.15071e-06
2.15091e-06
2.15078e-06
2.15031e-06
2.14951e-06
2.14836e-06
2.14682e-06
2.1449e-06
2.14274e-06
2.14074e-06
2.14271e-06
2.14455e-06
2.14648e-06
2.14833e-06
2.14989e-06
2.15108e-06
2.15193e-06
2.15244e-06
2.15264e-06
2.15251e-06
2.15206e-06
2.15128e-06
2.15017e-06
2.14868e-06
2.14683e-06
2.1447e-06
2.14273e-06
2.14466e-06
2.14646e-06
2.14833e-06
2.15012e-06
2.15163e-06
2.15279e-06
2.15361e-06
2.15412e-06
2.15431e-06
2.15418e-06
2.15375e-06
2.15299e-06
2.15191e-06
2.15047e-06
2.14867e-06
2.1466e-06
2.14468e-06
2.14629e-06
2.14807e-06
2.14989e-06
2.15163e-06
2.15311e-06
2.15424e-06
2.15504e-06
2.15553e-06
2.15572e-06
2.1556e-06
2.15517e-06
2.15443e-06
2.15338e-06
2.15198e-06
2.15022e-06
2.14822e-06
2.14632e-06
2.14753e-06
2.1493e-06
2.15108e-06
2.15279e-06
2.15424e-06
2.15535e-06
2.15614e-06
2.15662e-06
2.1568e-06
2.15668e-06
2.15626e-06
2.15554e-06
2.1545e-06
2.15313e-06
2.15141e-06
2.14944e-06
2.14755e-06
2.14841e-06
2.15017e-06
2.15193e-06
2.15361e-06
2.15504e-06
2.15614e-06
2.15691e-06
2.15739e-06
2.15757e-06
2.15745e-06
2.15704e-06
2.15633e-06
2.1553e-06
2.15395e-06
2.15225e-06
2.15032e-06
2.14844e-06
2.14895e-06
2.15071e-06
2.15244e-06
2.15412e-06
2.15553e-06
2.15662e-06
2.15739e-06
2.15786e-06
2.15804e-06
2.15793e-06
2.15751e-06
2.15681e-06
2.15579e-06
2.15445e-06
2.15276e-06
2.15085e-06
2.14898e-06
2.14916e-06
2.15091e-06
2.15264e-06
2.15431e-06
2.15572e-06
2.1568e-06
2.15757e-06
2.15804e-06
2.15822e-06
2.15811e-06
2.1577e-06
2.15699e-06
2.15598e-06
2.15464e-06
2.15296e-06
2.15106e-06
2.14918e-06
2.14902e-06
2.15078e-06
2.15251e-06
2.15418e-06
2.1556e-06
2.15668e-06
2.15745e-06
2.15793e-06
2.15811e-06
2.15799e-06
2.15758e-06
2.15687e-06
2.15586e-06
2.15452e-06
2.15283e-06
2.15092e-06
2.14905e-06
2.14855e-06
2.15031e-06
2.15206e-06
2.15375e-06
2.15517e-06
2.15626e-06
2.15704e-06
2.15751e-06
2.1577e-06
2.15758e-06
2.15717e-06
2.15645e-06
2.15543e-06
2.15408e-06
2.15238e-06
2.15046e-06
2.14858e-06
2.14773e-06
2.14951e-06
2.15128e-06
2.15299e-06
2.15443e-06
2.15554e-06
2.15633e-06
2.15681e-06
2.15699e-06
2.15687e-06
2.15645e-06
2.15573e-06
2.1547e-06
2.15333e-06
2.15161e-06
2.14965e-06
2.14776e-06
2.14658e-06
2.14836e-06
2.15017e-06
2.15191e-06
2.15338e-06
2.1545e-06
2.1553e-06
2.15579e-06
2.15598e-06
2.15586e-06
2.15543e-06
2.1547e-06
2.15365e-06
2.15225e-06
2.1505e-06
2.14851e-06
2.14661e-06
2.14503e-06
2.14682e-06
2.14868e-06
2.15047e-06
2.15198e-06
2.15313e-06
2.15395e-06
2.15445e-06
2.15464e-06
2.15452e-06
2.15408e-06
2.15333e-06
2.15225e-06
2.15082e-06
2.14902e-06
2.14697e-06
2.14505e-06
2.14306e-06
2.1449e-06
2.14683e-06
2.14867e-06
2.15022e-06
2.15141e-06
2.15225e-06
2.15276e-06
2.15296e-06
2.15283e-06
2.15238e-06
2.15161e-06
2.1505e-06
2.14902e-06
2.14717e-06
2.14505e-06
2.14308e-06
2.1409e-06
2.14274e-06
2.1447e-06
2.1466e-06
2.14822e-06
2.14945e-06
2.15032e-06
2.15085e-06
2.15106e-06
2.15093e-06
2.15046e-06
2.14965e-06
2.14851e-06
2.14697e-06
2.14505e-06
2.14291e-06
2.14092e-06
2.13849e-06
2.14074e-06
2.14273e-06
2.14468e-06
2.14632e-06
2.14755e-06
2.14844e-06
2.14898e-06
2.14918e-06
2.14905e-06
2.14858e-06
2.14776e-06
2.14661e-06
2.14505e-06
2.14308e-06
2.14092e-06
2.1385e-06
2.09093e-06
2.09326e-06
2.09531e-06
2.09737e-06
2.09907e-06
2.10037e-06
2.1013e-06
2.10186e-06
2.10208e-06
2.10193e-06
2.10144e-06
2.10058e-06
2.09936e-06
2.09774e-06
2.09565e-06
2.09343e-06
2.09093e-06
2.09326e-06
2.09521e-06
2.09725e-06
2.09926e-06
2.10096e-06
2.10226e-06
2.10319e-06
2.10376e-06
2.10397e-06
2.10383e-06
2.10333e-06
2.10247e-06
2.10125e-06
2.09963e-06
2.0976e-06
2.09536e-06
2.09327e-06
2.09531e-06
2.09725e-06
2.09929e-06
2.10124e-06
2.1029e-06
2.10417e-06
2.10507e-06
2.10562e-06
2.10583e-06
2.10569e-06
2.10521e-06
2.10437e-06
2.10318e-06
2.10161e-06
2.09963e-06
2.09739e-06
2.09531e-06
2.09737e-06
2.09926e-06
2.10124e-06
2.10314e-06
2.10476e-06
2.106e-06
2.10688e-06
2.10742e-06
2.10762e-06
2.10749e-06
2.10702e-06
2.1062e-06
2.10504e-06
2.1035e-06
2.10158e-06
2.09939e-06
2.09738e-06
2.09907e-06
2.10096e-06
2.1029e-06
2.10476e-06
2.10634e-06
2.10755e-06
2.10842e-06
2.10895e-06
2.10915e-06
2.10902e-06
2.10855e-06
2.10775e-06
2.10661e-06
2.1051e-06
2.10322e-06
2.10109e-06
2.09907e-06
2.10037e-06
2.10226e-06
2.10416e-06
2.106e-06
2.10755e-06
2.10875e-06
2.1096e-06
2.11013e-06
2.11032e-06
2.11019e-06
2.10974e-06
2.10895e-06
2.10783e-06
2.10634e-06
2.10449e-06
2.10239e-06
2.10037e-06
2.1013e-06
2.10319e-06
2.10507e-06
2.10688e-06
2.10842e-06
2.1096e-06
2.11045e-06
2.11096e-06
2.11116e-06
2.11103e-06
2.11058e-06
2.1098e-06
2.10869e-06
2.10722e-06
2.10539e-06
2.10332e-06
2.1013e-06
2.10186e-06
2.10376e-06
2.10562e-06
2.10742e-06
2.10895e-06
2.11013e-06
2.11096e-06
2.11148e-06
2.11167e-06
2.11154e-06
2.11109e-06
2.11032e-06
2.10922e-06
2.10776e-06
2.10594e-06
2.10388e-06
2.10187e-06
2.10208e-06
2.10397e-06
2.10583e-06
2.10762e-06
2.10915e-06
2.11032e-06
2.11116e-06
2.11167e-06
2.11187e-06
2.11174e-06
2.11129e-06
2.11052e-06
2.10942e-06
2.10796e-06
2.10614e-06
2.1041e-06
2.10208e-06
2.10193e-06
2.10383e-06
2.10569e-06
2.10749e-06
2.10902e-06
2.11019e-06
2.11103e-06
2.11154e-06
2.11174e-06
2.11161e-06
2.11116e-06
2.11039e-06
2.10929e-06
2.10783e-06
2.10601e-06
2.10396e-06
2.10194e-06
2.10144e-06
2.10333e-06
2.10521e-06
2.10702e-06
2.10855e-06
2.10974e-06
2.11058e-06
2.11109e-06
2.11129e-06
2.11116e-06
2.11071e-06
2.10993e-06
2.10882e-06
2.10736e-06
2.10552e-06
2.10346e-06
2.10144e-06
2.10058e-06
2.10247e-06
2.10437e-06
2.1062e-06
2.10775e-06
2.10895e-06
2.1098e-06
2.11032e-06
2.11052e-06
2.11039e-06
2.10993e-06
2.10915e-06
2.10802e-06
2.10654e-06
2.10469e-06
2.1026e-06
2.10058e-06
2.09936e-06
2.10125e-06
2.10318e-06
2.10504e-06
2.10661e-06
2.10783e-06
2.10869e-06
2.10922e-06
2.10942e-06
2.10929e-06
2.10882e-06
2.10802e-06
2.10689e-06
2.10538e-06
2.10351e-06
2.10138e-06
2.09937e-06
2.09775e-06
2.09964e-06
2.10161e-06
2.1035e-06
2.10511e-06
2.10634e-06
2.10722e-06
2.10776e-06
2.10796e-06
2.10783e-06
2.10736e-06
2.10654e-06
2.10538e-06
2.10385e-06
2.10194e-06
2.09977e-06
2.09775e-06
2.09565e-06
2.0976e-06
2.09963e-06
2.10158e-06
2.10323e-06
2.10449e-06
2.10539e-06
2.10594e-06
2.10615e-06
2.10601e-06
2.10553e-06
2.10469e-06
2.10351e-06
2.10194e-06
2.09997e-06
2.09774e-06
2.09566e-06
2.09344e-06
2.09536e-06
2.09739e-06
2.09939e-06
2.10109e-06
2.10239e-06
2.10332e-06
2.10388e-06
2.1041e-06
2.10396e-06
2.10346e-06
2.1026e-06
2.10138e-06
2.09977e-06
2.09773e-06
2.09551e-06
2.09344e-06
2.09093e-06
2.09327e-06
2.09531e-06
2.09738e-06
2.09907e-06
2.10037e-06
2.1013e-06
2.10187e-06
2.10208e-06
2.10194e-06
2.10144e-06
2.10058e-06
2.09937e-06
2.09775e-06
2.09566e-06
2.09344e-06
2.09093e-06
2.04692e-06
2.04919e-06
2.05118e-06
2.05323e-06
2.0549e-06
2.0562e-06
2.05713e-06
2.05769e-06
2.05791e-06
2.05777e-06
2.05727e-06
2.05641e-06
2.05519e-06
2.0536e-06
2.05151e-06
2.04935e-06
2.04692e-06
2.04919e-06
2.0511e-06
2.0531e-06
2.0551e-06
2.05679e-06
2.05809e-06
2.05903e-06
2.0596e-06
2.05981e-06
2.05967e-06
2.05917e-06
2.0583e-06
2.05708e-06
2.05547e-06
2.05343e-06
2.05124e-06
2.04919e-06
2.05118e-06
2.0531e-06
2.05512e-06
2.05708e-06
2.05874e-06
2.06001e-06
2.06093e-06
2.06148e-06
2.0617e-06
2.06156e-06
2.06106e-06
2.06022e-06
2.05902e-06
2.05744e-06
2.05546e-06
2.05323e-06
2.05118e-06
2.05323e-06
2.0551e-06
2.05708e-06
2.05898e-06
2.06061e-06
2.06187e-06
2.06277e-06
2.06332e-06
2.06352e-06
2.06339e-06
2.0629e-06
2.06207e-06
2.06089e-06
2.05934e-06
2.05741e-06
2.05523e-06
2.05323e-06
2.0549e-06
2.05679e-06
2.05874e-06
2.06061e-06
2.06222e-06
2.06346e-06
2.06434e-06
2.06488e-06
2.06509e-06
2.06495e-06
2.06447e-06
2.06366e-06
2.0625e-06
2.06096e-06
2.05906e-06
2.05691e-06
2.0549e-06
2.0562e-06
2.05809e-06
2.06001e-06
2.06187e-06
2.06346e-06
2.06468e-06
2.06555e-06
2.06609e-06
2.06629e-06
2.06616e-06
2.06569e-06
2.06488e-06
2.06373e-06
2.06222e-06
2.06034e-06
2.05822e-06
2.0562e-06
2.05713e-06
2.05903e-06
2.06093e-06
2.06277e-06
2.06434e-06
2.06555e-06
2.06642e-06
2.06695e-06
2.06715e-06
2.06702e-06
2.06655e-06
2.06575e-06
2.06461e-06
2.06311e-06
2.06125e-06
2.05915e-06
2.05713e-06
2.05769e-06
2.0596e-06
2.06148e-06
2.06332e-06
2.06488e-06
2.06609e-06
2.06695e-06
2.06748e-06
2.06768e-06
2.06754e-06
2.06708e-06
2.06628e-06
2.06515e-06
2.06366e-06
2.0618e-06
2.05972e-06
2.05769e-06
2.05791e-06
2.05981e-06
2.0617e-06
2.06352e-06
2.06509e-06
2.06629e-06
2.06715e-06
2.06768e-06
2.06788e-06
2.06774e-06
2.06728e-06
2.06649e-06
2.06536e-06
2.06387e-06
2.06201e-06
2.05994e-06
2.05791e-06
2.05777e-06
2.05967e-06
2.06156e-06
2.06339e-06
2.06495e-06
2.06616e-06
2.06702e-06
2.06754e-06
2.06774e-06
2.06761e-06
2.06715e-06
2.06635e-06
2.06522e-06
2.06373e-06
2.06187e-06
2.05979e-06
2.05777e-06
2.05727e-06
2.05917e-06
2.06106e-06
2.0629e-06
2.06447e-06
2.06569e-06
2.06655e-06
2.06708e-06
2.06728e-06
2.06715e-06
2.06668e-06
2.06588e-06
2.06475e-06
2.06325e-06
2.06138e-06
2.05929e-06
2.05727e-06
2.05641e-06
2.0583e-06
2.06022e-06
2.06207e-06
2.06366e-06
2.06488e-06
2.06575e-06
2.06628e-06
2.06649e-06
2.06635e-06
2.06588e-06
2.06508e-06
2.06393e-06
2.06242e-06
2.06054e-06
2.05843e-06
2.05641e-06
2.05519e-06
2.05708e-06
2.05902e-06
2.06089e-06
2.0625e-06
2.06373e-06
2.06461e-06
2.06515e-06
2.06536e-06
2.06522e-06
2.06475e-06
2.06393e-06
2.06277e-06
2.06124e-06
2.05935e-06
2.0572e-06
2.05519e-06
2.0536e-06
2.05547e-06
2.05744e-06
2.05934e-06
2.06096e-06
2.06222e-06
2.06311e-06
2.06366e-06
2.06387e-06
2.06373e-06
2.06325e-06
2.06242e-06
2.06124e-06
2.05969e-06
2.05777e-06
2.0556e-06
2.0536e-06
2.05151e-06
2.05343e-06
2.05546e-06
2.05741e-06
2.05906e-06
2.06034e-06
2.06125e-06
2.0618e-06
2.06201e-06
2.06187e-06
2.06138e-06
2.06054e-06
2.05935e-06
2.05777e-06
2.0558e-06
2.05357e-06
2.05151e-06
2.04935e-06
2.05124e-06
2.05323e-06
2.05523e-06
2.05691e-06
2.05822e-06
2.05915e-06
2.05972e-06
2.05994e-06
2.05979e-06
2.05929e-06
2.05843e-06
2.0572e-06
2.0556e-06
2.05357e-06
2.05139e-06
2.04935e-06
2.04692e-06
2.04919e-06
2.05118e-06
2.05323e-06
2.05491e-06
2.0562e-06
2.05713e-06
2.0577e-06
2.05791e-06
2.05777e-06
2.05727e-06
2.05641e-06
2.05519e-06
2.0536e-06
2.05151e-06
2.04935e-06
2.04692e-06
2.00586e-06
2.00796e-06
2.00982e-06
2.01175e-06
2.01332e-06
2.01456e-06
2.01544e-06
2.01597e-06
2.01618e-06
2.01604e-06
2.01557e-06
2.01475e-06
2.01359e-06
2.0121e-06
2.01013e-06
2.00812e-06
2.00586e-06
2.00796e-06
2.00975e-06
2.01162e-06
2.01351e-06
2.01511e-06
2.01635e-06
2.01724e-06
2.01779e-06
2.018e-06
2.01786e-06
2.01738e-06
2.01655e-06
2.01538e-06
2.01386e-06
2.01193e-06
2.00988e-06
2.00796e-06
2.00982e-06
2.01162e-06
2.01353e-06
2.01539e-06
2.01697e-06
2.01819e-06
2.01907e-06
2.01961e-06
2.01981e-06
2.01967e-06
2.0192e-06
2.01839e-06
2.01724e-06
2.01573e-06
2.01385e-06
2.01174e-06
2.00982e-06
2.01176e-06
2.01351e-06
2.01539e-06
2.0172e-06
2.01877e-06
2.01998e-06
2.02085e-06
2.02138e-06
2.02158e-06
2.02144e-06
2.02098e-06
2.02017e-06
2.01904e-06
2.01754e-06
2.0157e-06
2.01363e-06
2.01175e-06
2.01332e-06
2.01511e-06
2.01697e-06
2.01877e-06
2.02032e-06
2.02151e-06
2.02237e-06
2.0229e-06
2.0231e-06
2.02296e-06
2.0225e-06
2.02171e-06
2.02058e-06
2.0191e-06
2.01728e-06
2.01522e-06
2.01332e-06
2.01456e-06
2.01635e-06
2.01819e-06
2.01998e-06
2.02151e-06
2.0227e-06
2.02355e-06
2.02407e-06
2.02427e-06
2.02414e-06
2.02368e-06
2.0229e-06
2.02178e-06
2.02031e-06
2.0185e-06
2.01647e-06
2.01456e-06
2.01544e-06
2.01724e-06
2.01907e-06
2.02084e-06
2.02237e-06
2.02355e-06
2.0244e-06
2.02492e-06
2.02511e-06
2.02498e-06
2.02453e-06
2.02374e-06
2.02263e-06
2.02118e-06
2.01938e-06
2.01736e-06
2.01544e-06
2.01597e-06
2.01779e-06
2.0196e-06
2.02138e-06
2.0229e-06
2.02407e-06
2.02492e-06
2.02543e-06
2.02563e-06
2.0255e-06
2.02504e-06
2.02427e-06
2.02316e-06
2.02171e-06
2.01991e-06
2.01791e-06
2.01597e-06
2.01618e-06
2.018e-06
2.01981e-06
2.02158e-06
2.0231e-06
2.02427e-06
2.02511e-06
2.02563e-06
2.02582e-06
2.0257e-06
2.02524e-06
2.02446e-06
2.02336e-06
2.02191e-06
2.02012e-06
2.01812e-06
2.01618e-06
2.01604e-06
2.01786e-06
2.01967e-06
2.02144e-06
2.02296e-06
2.02414e-06
2.02498e-06
2.0255e-06
2.0257e-06
2.02557e-06
2.02511e-06
2.02433e-06
2.02323e-06
2.02178e-06
2.01998e-06
2.01798e-06
2.01604e-06
2.01557e-06
2.01738e-06
2.0192e-06
2.02098e-06
2.0225e-06
2.02368e-06
2.02453e-06
2.02504e-06
2.02524e-06
2.02511e-06
2.02465e-06
2.02387e-06
2.02276e-06
2.02131e-06
2.01951e-06
2.0175e-06
2.01557e-06
2.01475e-06
2.01655e-06
2.01839e-06
2.02017e-06
2.02171e-06
2.0229e-06
2.02374e-06
2.02427e-06
2.02446e-06
2.02433e-06
2.02387e-06
2.02309e-06
2.02197e-06
2.02051e-06
2.0187e-06
2.01667e-06
2.01475e-06
2.01359e-06
2.01538e-06
2.01724e-06
2.01904e-06
2.02058e-06
2.02178e-06
2.02263e-06
2.02316e-06
2.02336e-06
2.02323e-06
2.02276e-06
2.02197e-06
2.02085e-06
2.01937e-06
2.01755e-06
2.0155e-06
2.01359e-06
2.0121e-06
2.01386e-06
2.01573e-06
2.01754e-06
2.01911e-06
2.02031e-06
2.02118e-06
2.02171e-06
2.02191e-06
2.02178e-06
2.02131e-06
2.02051e-06
2.01937e-06
2.01788e-06
2.01604e-06
2.01398e-06
2.0121e-06
2.01013e-06
2.01193e-06
2.01385e-06
2.0157e-06
2.01728e-06
2.0185e-06
2.01938e-06
2.01991e-06
2.02012e-06
2.01998e-06
2.01951e-06
2.0187e-06
2.01755e-06
2.01605e-06
2.01416e-06
2.01206e-06
2.01013e-06
2.00812e-06
2.00988e-06
2.01174e-06
2.01363e-06
2.01523e-06
2.01647e-06
2.01736e-06
2.01791e-06
2.01812e-06
2.01798e-06
2.0175e-06
2.01667e-06
2.0155e-06
2.01398e-06
2.01206e-06
2.01002e-06
2.00812e-06
2.00586e-06
2.00796e-06
2.00982e-06
2.01175e-06
2.01332e-06
2.01456e-06
2.01544e-06
2.01597e-06
2.01618e-06
2.01604e-06
2.01557e-06
2.01475e-06
2.01359e-06
2.0121e-06
2.01012e-06
2.00812e-06
2.00586e-06
1.96742e-06
1.96931e-06
1.97098e-06
1.97275e-06
1.97418e-06
1.97531e-06
1.97612e-06
1.97661e-06
1.9768e-06
1.97667e-06
1.97624e-06
1.97549e-06
1.97442e-06
1.97307e-06
1.97126e-06
1.96944e-06
1.96742e-06
1.96931e-06
1.97092e-06
1.97262e-06
1.97435e-06
1.97581e-06
1.97696e-06
1.97778e-06
1.97829e-06
1.97848e-06
1.97835e-06
1.97791e-06
1.97715e-06
1.97606e-06
1.97467e-06
1.9729e-06
1.97105e-06
1.96931e-06
1.97099e-06
1.97262e-06
1.97437e-06
1.97607e-06
1.97753e-06
1.97866e-06
1.97947e-06
1.97997e-06
1.98016e-06
1.98003e-06
1.97959e-06
1.97884e-06
1.97778e-06
1.97639e-06
1.97465e-06
1.97273e-06
1.97098e-06
1.97275e-06
1.97435e-06
1.97607e-06
1.97775e-06
1.97919e-06
1.98032e-06
1.98113e-06
1.98162e-06
1.98181e-06
1.98168e-06
1.98125e-06
1.9805e-06
1.97944e-06
1.97806e-06
1.97636e-06
1.97446e-06
1.97275e-06
1.97418e-06
1.97581e-06
1.97753e-06
1.97919e-06
1.98063e-06
1.98175e-06
1.98255e-06
1.98304e-06
1.98323e-06
1.98311e-06
1.98267e-06
1.98193e-06
1.98088e-06
1.9795e-06
1.97781e-06
1.97592e-06
1.97417e-06
1.97531e-06
1.97696e-06
1.97866e-06
1.98032e-06
1.98175e-06
1.98286e-06
1.98366e-06
1.98415e-06
1.98434e-06
1.98421e-06
1.98378e-06
1.98304e-06
1.982e-06
1.98063e-06
1.97895e-06
1.97707e-06
1.97531e-06
1.97612e-06
1.97778e-06
1.97947e-06
1.98112e-06
1.98255e-06
1.98366e-06
1.98445e-06
1.98494e-06
1.98513e-06
1.985e-06
1.98457e-06
1.98384e-06
1.9828e-06
1.98143e-06
1.97976e-06
1.97789e-06
1.97611e-06
1.97661e-06
1.97829e-06
1.97997e-06
1.98162e-06
1.98304e-06
1.98415e-06
1.98494e-06
1.98543e-06
1.98561e-06
1.98549e-06
1.98506e-06
1.98433e-06
1.98329e-06
1.98193e-06
1.98025e-06
1.97839e-06
1.97661e-06
1.9768e-06
1.97848e-06
1.98016e-06
1.98181e-06
1.98323e-06
1.98434e-06
1.98513e-06
1.98561e-06
1.9858e-06
1.98568e-06
1.98525e-06
1.98451e-06
1.98348e-06
1.98212e-06