/*--------------------------------*- C++ -*----------------------------------*\
  =========                 |
  \\      /  F ield         | OpenFOAM: The Open Source CFD Toolbox
   \\    /   O peration     | Website:  https://openfoam.org
    \\  /    A nd           | Version:  6
     \\/     M anipulation  |
\*---------------------------------------------------------------------------*/
FoamFile
{
    version     2.0;
    format      ascii;
    class       volVectorField;
    location    "0";
    object      U_rec;
}
// * * * * * * * * * * * * * * * * * * * * * * * * * * * * * * * * * * * * * //

dimensions      [0 1 -1 0 0 0 0];

internalField   nonuniform List<vector> 
13046
(
(-0.261295 0.052231 0)
(-0.744184 -0.374574 -2.48226e-21)
(-0.211584 -0.191462 -4.90084e-21)
(-0.295038 -0.042991 0)
(-0.125528 -0.113262 -4.76765e-21)
(-0.62789 -0.366385 0)
(-0.325063 -0.0212289 7.96962e-22)
(-0.70844 -0.4175 1.20393e-21)
(-0.0891769 -0.0949264 -5.11181e-21)
(-0.876225 0.354117 1.97545e-21)
(-1.41075 -0.729135 0)
(0.0656315 0.00816091 2.73159e-21)
(-0.371858 0.0880811 -2.56897e-21)
(-0.918631 -0.480082 -3.27844e-21)
(-0.101212 -0.131907 2.58368e-21)
(-0.804108 0.397345 -2.68871e-21)
(0.00819979 -0.0215374 6.41178e-21)
(-1.4718 -0.648315 -3.76874e-22)
(-0.134087 -0.0508243 0)
(-0.449135 -0.304636 -2.60203e-21)
(-0.415825 -0.163698 8.29087e-21)
(-0.817613 0.38829 -1.09108e-21)
(0.0242722 -0.012388 -8.57858e-21)
(-1.46232 -0.667391 0)
(-0.237169 -0.0216006 3.26877e-21)
(-0.601052 -0.318617 -6.27636e-21)
(-0.211359 -0.178416 0)
(-0.378851 0.119281 -4.62044e-21)
(-0.954777 -0.479804 9.91886e-22)
(-0.120158 -0.146538 -4.51472e-21)
(-0.261436 0.0758415 0)
(-0.775 -0.364099 0)
(-0.236399 -0.212982 4.98728e-21)
(-0.226523 -0.0496236 -3.798e-21)
(-0.238019 -0.185741 1.77917e-21)
(-0.5199 -0.276551 1.09341e-20)
(-0.248729 -0.0769685 -5.78819e-21)
(-0.227224 -0.164247 2.78813e-21)
(-0.481612 -0.266831 -5.53818e-21)
(-0.176792 0.0880828 3.88101e-21)
(-0.474047 -0.384019 8.53004e-22)
(-0.697664 -0.255149 -3.97608e-21)
(-0.310253 -0.152322 2.58153e-21)
(-0.248511 -0.145529 4.30105e-21)
(-0.352455 -0.210442 0)
(-0.331561 -0.146294 1.74164e-21)
(-0.196955 -0.113638 -6.64674e-21)
(-0.392395 -0.242663 -8.13181e-22)
(-0.282772 0.0447484 0)
(-0.767079 -0.400093 -1.71817e-22)
(-0.1604 -0.162715 -7.83339e-23)
(-0.733833 -0.582125 4.87418e-21)
(-0.136501 0.10914 0)
(-0.700669 -0.164536 -4.61121e-21)
(-0.824085 -0.643638 -6.94572e-21)
(-0.679454 -0.135862 -7.6193e-21)
(-0.107873 0.0946865 5.55777e-21)
(-1.33699 -0.489633 -4.30122e-22)
(-0.598634 0.349127 0)
(-0.214901 -0.21368 3.59345e-21)
(-0.559918 0.0983501 -2.4884e-21)
(-1.12001 -0.683 1.53804e-21)
(0.0468704 -0.0236971 -1.07131e-20)
(0.0530672 -0.022935 5.15036e-21)
(-1.40664 -0.731568 -2.26995e-22)
(-0.780601 0.293923 -3.59779e-21)
(-0.555771 0.338839 0)
(-1.28103 -0.441613 0)
(-0.279547 -0.273397 0)
(-0.515736 0.315217 -1.65132e-21)
(-1.22983 -0.424364 0)
(-0.302303 -0.292598 2.84157e-21)
(-1.38348 -0.498734 0)
(-0.638008 0.371137 2.01893e-23)
(-0.193179 -0.199953 -5.36418e-23)
(-0.127297 -0.0292318 0)
(-0.448864 -0.318721 2.78547e-21)
(-0.462763 -0.191312 -5.81724e-21)
(-0.115233 -0.12946 3.88934e-21)
(-0.693526 0.385008 -5.01781e-21)
(-1.43108 -0.551845 0)
(-0.260002 -0.0137578 1.74758e-21)
(-0.641104 -0.346293 0)
(-0.170982 -0.149274 0)
(0.055094 -0.0158676 -4.55007e-21)
(-1.42479 -0.732947 6.4691e-23)
(-0.811488 0.315302 2.12002e-21)
(-0.814216 0.214218 -3.82528e-21)
(0.0895263 -0.00706836 0)
(-1.36268 -0.827758 -2.40396e-22)
(0.0660289 0.000563494 0)
(-0.889239 0.146251 0)
(-1.33131 -0.927473 4.46238e-24)
(-0.574989 0.209389 0)
(-0.620033 0.219972 2.14889e-21)
(-1.22449 -0.622499 2.64374e-21)
(-1.26645 -0.660584 -1.20604e-21)
(-0.0231372 -0.0846359 -2.17636e-21)
(0.00770359 -0.0621652 5.61056e-21)
(0.0891164 -0.00501768 -2.69857e-22)
(-0.80671 0.188656 3.74349e-21)
(-1.34102 -0.84607 0)
(-0.324453 -0.121821 -7.02141e-24)
(-0.167059 -0.107123 3.41424e-21)
(-0.456251 -0.283394 0)
(-0.0421063 0.0474265 0)
(-0.565352 -0.0934052 -2.43773e-21)
(-0.798714 -0.579426 0)
(-0.126032 0.0891014 6.52719e-21)
(-0.650905 -0.504541 0)
(-0.657904 -0.186536 -9.23285e-21)
(-0.856347 0.369981 0)
(0.054101 0.0234673 0)
(-1.25036 -0.66726 2.2493e-21)
(-0.331239 0.0643747 7.08895e-21)
(-0.85643 -0.445132 1.53974e-21)
(-0.114904 -0.134081 4.7284e-21)
(-0.632239 0.275211 2.71574e-21)
(-0.583618 0.24164 -5.12517e-21)
(-1.31332 -0.615895 -2.16883e-21)
(-0.0463029 -0.0938284 2.45566e-21)
(-1.2529 -0.598938 1.08237e-21)
(-0.0526217 -0.101698 -2.29388e-21)
(-0.873633 0.368428 -1.39298e-21)
(-1.39453 -0.711386 1.76271e-21)
(0.0613589 0.0135778 -1.21128e-21)
(-0.481295 0.171433 0)
(-1.10474 -0.556078 -2.15999e-21)
(-0.0732182 -0.122525 5.34224e-21)
(-0.212183 0.101423 0)
(-0.413421 -0.344961 -4.37558e-21)
(-0.749287 -0.292112 2.31338e-22)
(0.0606581 0.00545295 0)
(-0.847715 0.124252 0)
(-1.31447 -0.916108 0)
(-0.703528 0.228384 0)
(-1.32755 -0.730975 -2.33025e-21)
(0.0552316 -0.03138 -5.97347e-21)
(-0.298797 0.0978792 0)
(-0.841958 -0.398583 0)
(-0.217549 -0.212121 0)
(-0.435304 -0.000153235 0)
(-0.872871 -0.550579 0)
(-0.00435284 -0.0336864 0)
(-0.10919 0.0869136 0)
(-0.714278 -0.548244 0)
(-0.6494 -0.161172 5.04182e-21)
(-0.044126 0.0358438 -6.49585e-22)
(-0.543395 -0.101048 -5.40977e-21)
(-0.778331 -0.554421 4.78117e-21)
(-0.591481 0.121471 5.70431e-21)
(-1.16572 -0.701009 0)
(0.0530712 -0.0296473 1.38811e-20)
(-0.043199 -0.0127573 0)
(-0.44567 -0.087798 5.7311e-21)
(-0.701059 -0.473859 -1.24332e-21)
(-0.974601 -0.725442 0)
(-0.641448 -0.0554089 5.56156e-21)
(-1.04617 -0.758393 0)
(-0.640321 -0.0161059 3.22455e-21)
(-0.0358824 0.0602781 0)
(-0.00379635 0.0433992 0)
(-0.487715 -0.0381062 7.58169e-22)
(-0.858683 -0.581521 2.37201e-21)
(-0.000193788 -0.00141811 -2.80559e-21)
(-0.893452 0.336107 -2.02537e-21)
(0.0741646 0.00594982 0)
(-1.39125 -0.754627 1.17984e-21)
(-0.866068 0.373057 -1.10958e-21)
(0.0569741 0.0226729 -5.52961e-22)
(-1.3154 -0.682895 0)
(-0.721395 0.251193 -3.11981e-21)
(-1.35083 -0.726845 0)
(0.0504358 -0.0326321 6.78302e-21)
(-0.286783 0.166075 0)
(-0.885827 -0.318443 1.12535e-21)
(-0.438098 -0.381097 2.44171e-21)
(-0.489312 -0.0586579 4.89901e-21)
(-0.0154403 0.00959581 1.38181e-21)
(-0.806894 -0.547068 0)
(0.0862267 -0.000485734 0)
(-1.38966 -0.808995 0)
(-0.902713 0.291031 1.65686e-21)
(-0.246038 0.142609 0)
(-0.823085 -0.293154 -2.56257e-21)
(-0.455759 -0.379434 6.4446e-22)
(-0.0334935 0.00200965 0)
(-0.466822 -0.0857821 0)
(-0.716606 -0.493447 0)
(-0.407937 -0.021115 2.41713e-21)
(-0.816947 -0.517613 0)
(-0.0180296 -0.0410992 0)
(-0.993169 -0.539468 2.98247e-23)
(-0.0482477 -0.0981904 -3.2353e-21)
(-0.446139 0.146277 7.30264e-21)
(-1.05648 -0.535347 0)
(-0.0770035 -0.12114 -6.69155e-21)
(-0.836012 0.270004 -3.80211e-21)
(0.0827251 -0.00813083 4.18995e-21)
(-1.40144 -0.793156 -7.94198e-23)
(0.0762105 0.00291472 3.93369e-21)
(-0.805446 0.140523 2.36896e-21)
(-1.31305 -0.881221 1.48184e-21)
(-0.874815 0.189178 -6.11031e-21)
(-1.35654 -0.87966 0)
(0.0867379 -0.00395689 -3.85017e-21)
(-0.773417 -0.634813 -2.42588e-22)
(-0.792867 -0.176261 2.04139e-21)
(-0.191821 0.153013 0)
(-0.370484 0.0298481 -1.08928e-20)
(-0.681225 0.396555 2.57412e-21)
(-0.142589 -0.149394 -2.3888e-21)
(-1.4329 -0.539072 0)
(-1.3632 -0.874572 0)
(-0.901228 0.216528 -5.29772e-21)
(0.0895292 -0.00544595 0)
(-0.285319 -0.086538 -8.60749e-21)
(-0.174587 -0.127621 -2.73869e-21)
(-0.504487 -0.297032 8.04941e-21)
(-0.355668 0.128036 0)
(-0.935513 -0.45333 -1.47853e-22)
(-0.167235 -0.175518 -2.55198e-21)
(0.0662511 0.00654577 3.0592e-21)
(-0.814849 0.124711 0)
(-1.30285 -0.89862 -1.70807e-21)
(-0.401923 0.0533424 8.72558e-21)
(-0.970147 -0.544471 5.76141e-21)
(-0.0345104 -0.0859483 0)
(0.0716317 0.0107953 0)
(-1.32524 -0.739282 -2.11104e-21)
(-0.908759 0.343315 0)
(-0.156596 0.131223 0)
(-0.752937 -0.149765 0)
(-0.828689 -0.677114 0)
(-0.834095 0.173505 5.36019e-21)
(-1.34418 -0.865942 0)
(0.086524 -0.00274452 -3.80864e-23)
(-0.558115 -0.02534 2.1173e-21)
(-0.953402 -0.669197 -1.65591e-21)
(0.0083101 0.0230321 0)
(-0.480039 0.191556 0)
(-1.11582 -0.539735 2.0356e-21)
(-0.101706 -0.138804 4.18996e-21)
(-1.22393 -0.904684 -3.60096e-21)
(-0.776079 0.042517 -4.26165e-21)
(0.0119093 0.0353308 2.41614e-21)
(-0.679038 -0.00444529 0)
(-1.1008 -0.804555 -1.85301e-21)
(-0.00468758 0.0452483 -9.00157e-23)
(0.071098 0.00774192 -3.64447e-21)
(-1.29486 -0.743499 0)
(-0.92062 0.332074 -9.80825e-22)
(-0.188002 0.123819 3.52398e-21)
(-0.58336 -0.469698 -3.02906e-21)
(-0.748308 -0.23569 3.76974e-22)
(-0.786116 0.4005 9.89591e-22)
(0.0405208 0.0369118 -5.14265e-21)
(-1.24944 -0.585929 0)
(-0.122112 -0.0681069 -1.63942e-21)
(-0.37319 -0.132094 -6.70597e-21)
(-0.495024 -0.323501 7.79811e-21)
(-0.528294 0.0217599 2.60718e-21)
(-0.528342 -0.0162705 4.10668e-23)
(-1.00255 -0.659164 -4.15558e-21)
(-0.938881 -0.643624 0)
(0.0142119 0.00925796 2.55019e-21)
(0.0328786 -0.00501415 -2.59398e-21)
(-0.0835474 -0.0997982 -5.09083e-21)
(-0.723583 0.395208 2.68047e-21)
(-1.46176 -0.568085 -9.3444e-24)
(-0.440287 0.186076 0)
(-1.07097 -0.498715 0)
(-0.150853 -0.169959 -5.48627e-21)
(-0.704077 0.0272187 -1.14014e-21)
(-1.15557 -0.841089 0)
(0.0153435 0.0352001 0)
(-0.671329 0.256655 -2.63388e-21)
(-1.32554 -0.670142 0)
(0.0104541 -0.058308 2.40626e-21)
(-0.270074 -0.130327 1.71375e-21)
(-0.363116 -0.199211 2.49465e-21)
(-0.277987 -0.170755 -8.63576e-22)
(-0.604405 0.00267697 -4.10059e-21)
(-1.04325 -0.732929 0)
(0.0191358 0.0269052 -4.25245e-21)
(-0.451987 0.206048 0)
(-1.09708 -0.491563 2.58051e-21)
(-0.169672 -0.185398 -3.39344e-21)
(-0.411571 0.0833568 0)
(-0.450467 0.104393 8.69014e-22)
(-0.200948 0.136524 1.2611e-21)
(-0.602102 -0.491427 8.70625e-21)
(-0.771906 -0.230795 -8.91829e-21)
(-0.617649 0.0338829 -4.25088e-21)
(-1.09439 -0.755991 3.06003e-21)
(0.039818 0.0155561 3.88232e-21)
(-0.704713 0.265645 0)
(0.029384 -0.0442229 -8.59553e-21)
(-1.35677 -0.696437 -8.00144e-22)
(-0.124462 0.0750449 -9.0612e-21)
(-0.610534 -0.476861 0)
(-0.637048 -0.191415 3.05279e-21)
(-0.0581447 0.0756151 -5.04514e-21)
(-0.67381 -0.0650211 -3.11444e-21)
(-0.978029 -0.750334 0)
(-0.570841 0.274471 -2.58017e-21)
(-1.26243 -0.544111 -1.87487e-21)
(-0.124914 -0.149336 1.48993e-21)
(-0.170726 0.129217 4.51407e-22)
(-0.695964 -0.559799 0)
(-0.745118 -0.189755 6.36948e-21)
(-0.610642 0.298647 0)
(-0.637876 0.300956 0)
(-1.31411 -0.566259 -9.48793e-22)
(-0.1065 -0.133858 -3.91983e-21)
(-1.33551 -0.59926 1.34384e-21)
(-0.0707084 -0.106014 4.13201e-21)
(0.0830846 -0.00146529 -3.19509e-21)
(-1.40109 -0.793288 0)
(-0.881567 0.300037 -2.55597e-21)
(-0.541044 0.229104 3.04271e-21)
(-1.20372 -0.567651 0)
(-0.086155 -0.125199 1.4091e-21)
(-1.07981 -0.588335 -8.39675e-21)
(0.036853 0.0281174 4.54578e-21)
(-0.768572 0.363531 1.18647e-21)
(-0.435944 -0.121094 -3.18864e-21)
(-0.0695242 -0.0200878 0)
(-0.60555 -0.410069 0)
(-0.510274 0.0808538 5.94571e-21)
(-1.06114 -0.638118 0)
(0.0321912 -0.035449 8.34893e-21)
(0.0754666 -0.014797 -2.67437e-21)
(-0.794738 0.258964 7.85503e-21)
(-1.38645 -0.7724 6.04738e-22)
(-0.855832 -0.673309 0)
(-0.697122 -0.125532 2.77678e-21)
(-0.110246 0.104174 -6.30051e-21)
(-1.25285 -0.907793 -3.47359e-21)
(-0.787996 0.0723334 -2.57263e-21)
(0.0346774 0.021762 0)
(-0.877272 -0.498351 -6.38187e-21)
(-0.0527043 -0.0879411 0)
(-0.531317 0.136545 6.24763e-21)
(-1.11849 -0.626816 1.77791e-21)
(0.0098084 -0.0645992 2.50354e-21)
(-0.864829 -0.51543 3.62875e-21)
(-0.0323376 -0.0712809 -2.71544e-23)
(-0.785027 0.382307 -1.77386e-22)
(-0.00439691 -0.0367251 3.04462e-21)
(-1.46633 -0.640929 5.53159e-22)
(-0.753345 -0.643476 0)
(-0.847181 -0.196849 6.13345e-22)
(-0.230405 0.176636 0)
(-0.56973 0.158559 -6.36192e-21)
(-1.18163 -0.654805 -2.16555e-21)
(0.0251554 -0.053765 -2.96639e-21)
(-0.461135 -0.00778485 0)
(-0.879121 -0.575682 -3.44399e-21)
(0.0046661 -0.018364 0)
(-0.606297 -0.122465 0)
(-0.769677 -0.584774 0)
(-0.0737971 0.0660276 0)
(-0.279555 0.0155751 -2.41934e-21)
(-0.714155 -0.386489 -3.74247e-21)
(-0.15187 -0.148553 -1.64519e-23)
(-0.0863769 0.0932964 6.24915e-21)
(-0.693281 -0.0928475 7.57024e-21)
(-0.932116 -0.724699 3.06301e-21)
(-0.853287 0.241789 -3.11219e-21)
(-1.38193 -0.821035 -1.964e-23)
(0.090335 -0.00589925 -3.99171e-21)
(-1.26295 -0.888103 2.47791e-21)
(-0.773024 0.0876338 2.60641e-21)
(0.0509356 0.0155593 3.1246e-21)
(-0.436004 0.276135 -5.00935e-21)
(-0.399615 -0.365718 4.22258e-21)
(-1.12811 -0.368926 -3.09514e-21)
(-0.667146 0.350993 1.47102e-21)
(-0.632885 0.32993 -1.3638e-21)
(-1.35259 -0.548612 -3.02945e-22)
(-1.39159 -0.562476 0)
(-0.109435 -0.128002 -1.38296e-21)
(-0.129545 -0.148192 -1.26413e-21)
(0.0406138 0.0317592 -6.15868e-21)
(-1.13332 -0.588076 9.25068e-21)
(-0.780093 0.369555 7.55978e-22)
(-0.797383 0.405207 -7.61213e-23)
(0.0406859 0.0352671 7.11638e-21)
(-1.29787 -0.595361 0)
(-0.56349 0.0438985 -9.53034e-21)
(-1.06857 -0.694198 -8.31595e-22)
(0.0416895 -0.00325407 0)
(0.0803382 -0.00547154 -8.056e-21)
(-0.852453 0.289147 2.54194e-21)
(-1.41172 -0.784511 0)
(-0.51448 0.2875 7.47532e-21)
(-0.550705 0.299215 -5.54977e-21)
(-1.2133 -0.465314 2.23683e-21)
(-1.25574 -0.49336 7.80041e-22)
(-0.246069 -0.24152 -2.50087e-21)
(-0.200217 -0.204081 -1.25487e-21)
(0.083884 -0.0100834 0)
(-1.33512 -0.874515 0)
(-0.955873 0.222523 8.60838e-22)
(-0.737808 0.39872 -1.16192e-21)
(0.0362777 0.0414662 0)
(-1.19421 -0.546128 0)
(-0.424782 -0.197313 4.40153e-23)
(-0.175118 -0.0631117 3.70129e-21)
(-0.358416 -0.250378 1.74559e-21)
(-0.812648 0.379442 -1.68178e-21)
(-1.22369 -0.627187 -3.28997e-21)
(0.046602 0.0306838 3.36078e-22)
(-0.336344 0.181562 0)
(-0.951388 -0.365951 -4.82221e-21)
(-0.354884 -0.319618 -8.05872e-23)
(-0.906849 0.2754 8.89668e-23)
(-1.38385 -0.826104 -1.46701e-21)
(0.0895449 -0.00242163 3.96679e-24)
(-0.949716 -0.581455 -2.37926e-22)
(0.0315384 0.0148443 -2.663e-21)
(-0.757785 0.303325 -1.43321e-22)
(-0.143376 0.0618913 -3.34233e-21)
(-0.488845 -0.379806 2.82422e-21)
(-0.630649 -0.228229 9.74643e-21)
(-0.363679 -0.103661 0)
(-0.57404 -0.365395 -8.6601e-21)
(-0.0987225 -0.0655889 4.37931e-21)
(-0.857173 0.386062 0)
(0.0535062 0.0153373 3.60331e-21)
(-1.40217 -0.693668 -1.55278e-22)
(-0.383667 -0.0926015 0)
(-0.612638 -0.3933 -2.87348e-21)
(-0.0742402 -0.04533 -6.23599e-21)
(-0.390696 -0.187466 3.79017e-21)
(-0.197207 -0.0872643 -1.95432e-21)
(-0.34478 -0.230185 9.43408e-22)
(-0.147861 0.129852 3.02311e-21)
(-0.761906 -0.129452 -2.60415e-21)
(-0.903444 -0.739609 3.38108e-21)
(-0.471622 -0.170806 0)
(-0.496379 -0.345091 0)
(-0.104482 -0.0110483 5.36317e-22)
(-0.469287 -0.141821 5.04521e-21)
(-0.567623 -0.387651 2.19022e-21)
(-0.0850701 -0.00578454 7.51158e-23)
(-0.397883 0.256192 7.60899e-21)
(-1.06722 -0.339766 -3.54291e-21)
(-0.454393 -0.41362 -4.23611e-21)
(0.0497695 -0.00208449 5.43827e-21)
(0.0598912 0.000502783 -5.60686e-21)
(-1.44214 -0.713609 -8.00825e-22)
(-1.43072 -0.729253 -4.42386e-22)
(-0.843413 0.366847 0)
(-0.856631 0.354409 -2.02261e-21)
(-0.880252 0.249267 3.86625e-21)
(-1.38425 -0.831013 5.99327e-22)
(0.0912597 -0.00493121 4.95613e-21)
(-0.383062 -0.362083 -2.7328e-21)
(-0.475362 0.30543 1.58866e-21)
(-1.18122 -0.381281 3.94445e-21)
(-0.205921 0.1234 -3.21717e-21)
(-0.516248 -0.421442 -2.79679e-21)
(-0.765362 -0.260033 2.97408e-21)
(-0.712835 -0.0281814 0)
(-1.08916 -0.82815 1.91813e-21)
(-0.0389746 0.063756 9.30381e-23)
(-1.0865 -0.688296 -2.53618e-21)
(0.0537835 -0.000996354 -2.51282e-21)
(-0.895516 0.294237 -4.92655e-22)
(0.0762147 -0.00344493 0)
(-0.900825 0.17116 0)
(-1.33954 -0.916128 -2.21433e-22)
(-0.884591 0.361514 1.45517e-21)
(0.064402 0.0160671 0)
(-1.34272 -0.714685 2.07244e-21)
(0.0244566 0.0189504 -9.91844e-33)
(-0.881557 -0.536929 4.53659e-21)
(-0.696382 0.294874 5.28142e-23)
(-0.910641 -0.478582 -5.11925e-21)
(0.0238082 0.0304274 9.89506e-33)
(-0.655166 0.339441 -6.03458e-23)
(-1.19539 -0.768066 -3.80297e-21)
(-0.65036 0.101371 0)
(0.065131 -0.00375894 -8.01619e-21)
(-1.26319 -0.81593 1.02309e-21)
(0.076414 -0.0120963 -2.59721e-21)
(-0.979008 0.259278 0)
(-0.728219 0.220631 -3.9925e-21)
(-1.33216 -0.757701 1.36906e-21)
(0.0684025 -0.0229775 4.03282e-21)
(-0.803733 0.427834 5.15461e-21)
(0.00613814 -0.00437042 2.11022e-21)
(-1.47136 -0.604477 0)
(-0.340956 0.0367568 1.90695e-21)
(-0.0820342 -0.107063 -1.63708e-21)
(-0.84112 -0.466084 1.57661e-21)
(-1.34295 -0.892237 -2.24789e-22)
(0.083333 -0.00900184 2.77484e-21)
(-0.942154 0.206929 1.09891e-21)
(-0.709524 -0.0491789 -3.05681e-21)
(-0.0589448 0.0766449 -1.68562e-21)
(-1.04609 -0.802395 0)
(-1.1747 -0.834715 0)
(-0.69726 0.0504255 0)
(0.0362136 0.0245151 0)
(0.00651452 0.0174417 0)
(-0.505584 -0.273275 5.06828e-21)
(-0.394922 0.185104 -5.1706e-22)
(-1.07757 -0.617572 -3.51589e-21)
(0.0401489 0.021329 -3.20452e-21)
(-0.798476 0.346615 -7.06458e-22)
(-0.315552 0.0122052 -4.90758e-21)
(-0.10222 -0.115359 4.02449e-21)
(-0.762987 -0.430512 1.91418e-21)
(-1.35147 -0.840713 -2.45257e-21)
(-0.941673 0.25775 -1.67379e-21)
(0.0874627 -0.00620235 0)
(0.0804929 -0.0131907 -2.88512e-21)
(-0.976657 0.226774 0)
(-1.30666 -0.870751 1.75773e-21)
(-0.836547 0.313029 -2.30617e-21)
(0.0669797 -0.0077742 8.50781e-21)
(-1.42482 -0.752768 0)
(-0.0416876 -0.0690345 -6.16171e-21)
(-1.45033 -0.613432 3.96632e-22)
(-0.74112 0.374088 0)
(-0.381914 0.260263 -9.5344e-21)
(-1.0492 -0.318054 4.51362e-21)
(-0.519303 -0.468055 -1.32736e-21)
(-1.32043 -0.516614 4.57409e-22)
(-0.59901 0.329995 3.24785e-21)
(-0.181837 -0.189519 -3.83777e-21)
(-0.0398851 -0.0576127 -5.48867e-21)
(-0.765602 0.411439 0)
(-1.48727 -0.595706 0)
(-0.361656 0.171122 -1.64769e-21)
(-0.410536 0.196852 0)
(-0.974874 -0.41479 -4.91512e-21)
(-1.04997 -0.448643 5.26043e-21)
(-0.259113 -0.241565 7.14538e-22)
(-0.228786 -0.226279 -7.61201e-22)
(-0.327714 0.165099 1.58197e-21)
(-0.933084 -0.37912 0)
(-0.316831 -0.28539 1.32234e-21)
(-0.504932 0.297879 0)
(-1.20782 -0.444823 -3.63851e-21)
(-0.283713 -0.273571 9.01892e-22)
(-1.23425 -0.861944 -1.42077e-21)
(-0.740479 0.077115 2.81428e-21)
(0.0510136 0.0155408 -6.34643e-21)
(-1.37047 -0.863339 0)
(-0.89526 0.23622 5.82121e-21)
(0.0909605 -0.00503015 0)
(0.0737992 0.00307677 -2.04457e-21)
(-0.759929 0.124845 -1.71814e-21)
(-1.28468 -0.854842 -8.49085e-22)
(-0.979573 -0.494155 7.47168e-22)
(0.0278023 0.0344171 1.69556e-21)
(-0.685137 0.357188 0)
(-0.199997 0.0712408 3.15153e-21)
(-0.211738 0.0594559 0)
(-0.359927 -0.293566 0)
(-0.702427 -0.295626 1.12862e-20)
(-0.31636 -0.26246 0)
(-0.701607 -0.316447 -7.23901e-21)
(-0.431848 0.254875 0)
(-0.380016 0.225278 0)
(-0.376816 -0.341254 3.02416e-23)
(-1.10492 -0.403182 2.77893e-21)
(-0.336537 -0.307435 6.59234e-21)
(-1.03239 -0.371444 -6.15032e-21)
(-0.937541 -0.605734 0)
(0.0357272 0.00622185 3.66578e-21)
(-0.797552 0.289214 0)
(-1.36167 -0.836202 9.49271e-22)
(-0.92603 0.256188 5.76137e-22)
(0.0893439 -0.00433203 1.73305e-21)
(-0.242961 0.159488 -5.4062e-21)
(-0.577139 -0.48488 -3.03551e-21)
(-0.83183 -0.257008 9.16055e-21)
(-1.18052 -0.875269 3.35928e-21)
(-0.742601 0.0213169 7.16655e-21)
(0.00181333 0.0424347 0)
(-0.0624471 -0.087822 6.58955e-21)
(-1.43714 -0.598452 -4.21689e-22)
(-0.721608 0.370905 3.47106e-21)
(-1.20985 -0.687049 0)
(-0.881545 0.346159 0)
(0.0565997 0.0156391 0)
(-1.24106 -0.722256 0)
(-0.90857 0.331688 1.14718e-21)
(0.0649536 0.00838366 6.16452e-22)
(-0.544363 0.278742 -3.16378e-21)
(-1.23703 -0.515767 1.14377e-21)
(-0.17017 -0.182301 1.85529e-21)
(-0.101822 0.0589558 -8.68376e-22)
(-0.62138 -0.467573 0)
(-0.594771 -0.16977 -3.78155e-23)
(-0.856063 0.330058 2.68708e-21)
(0.0667273 -0.00261621 4.91515e-21)
(-1.43125 -0.748125 5.14176e-22)
(-1.21823 -0.80075 0)
(-0.68367 0.105797 0)
(0.0678938 0.00309189 6.92381e-21)
(0.0300801 -0.0379173 1.64759e-21)
(-1.39231 -0.702429 1.17969e-21)
(-0.742996 0.297536 7.98419e-21)
(-0.353199 0.215763 0)
(-0.426792 -0.380367 -4.49859e-21)
(-0.993171 -0.346881 3.27856e-21)
(-0.570583 -0.0567841 2.15904e-23)
(-0.896244 -0.641734 2.42785e-21)
(-0.0180563 0.0382799 0)
(-0.17088 0.09498 1.59869e-23)
(-0.523439 -0.420584 -9.53928e-22)
(-0.699759 -0.24126 -3.89447e-21)
(0.0762128 0.0010356 1.6775e-23)
(-1.41119 -0.771183 -1.58769e-21)
(-0.880619 0.321206 2.72452e-21)
(-0.672297 0.283568 -1.49753e-21)
(-1.34694 -0.648685 -6.48077e-22)
(-0.0156146 -0.0709843 0)
(-0.153726 0.0517414 -3.41798e-21)
(-0.436914 -0.339323 6.23342e-21)
(-0.62867 -0.245927 -6.42751e-21)
(-0.781171 0.424606 2.12682e-21)
(-0.0257834 -0.0390877 2.39824e-21)
(-1.49444 -0.594653 9.09473e-22)
(-0.294753 0.117378 -2.03215e-21)
(-0.856705 -0.38486 0)
(-0.259478 -0.241129 0)
(-0.413462 -0.0506851 -8.89081e-21)
(-0.742638 -0.480777 1.71552e-21)
(-0.0315085 -0.030223 0)
(-1.16006 -0.797375 0)
(-0.662893 0.0529443 6.07366e-21)
(0.0464514 0.0179327 0)
(-0.808484 0.416686 -9.63346e-22)
(0.033917 0.0259222 -7.51748e-22)
(-1.38894 -0.610728 -3.18521e-21)
(-0.801175 0.425853 2.68814e-21)
(0.0249178 0.0203956 0)
(-1.41673 -0.598449 2.18492e-21)
(0.0143883 -0.0439374 1.45493e-21)
(-1.40807 -0.682645 -3.21944e-22)
(-0.744213 0.316329 -7.32873e-21)
(-0.612293 -0.0758345 -2.77775e-21)
(-0.919592 -0.680342 -2.49404e-21)
(-0.0409921 0.0550736 0)
(0.0343981 0.0354703 6.8872e-22)
(-1.32959 -0.58364 2.96887e-21)
(-0.779752 0.41428 0)
(0.0775295 -0.0156138 0)
(-1.36076 -0.780063 -4.5702e-22)
(-0.77155 0.233018 -9.25371e-22)
(0.0171658 0.0143405 2.93026e-21)
(-0.740937 -0.486474 -4.57512e-21)
(-0.625147 0.246794 0)
(-0.553189 0.316128 -2.79163e-22)
(-0.800042 -0.393236 0)
(0.0179166 0.031579 2.90772e-21)
(-0.0300816 -0.0536151 -2.07663e-23)
(-1.47279 -0.617365 0)
(-0.765484 0.394834 0)
(0.0770629 0.00642899 0)
(-1.36947 -0.766208 0)
(-0.910573 0.32799 3.24966e-21)
(-0.82331 0.360209 -2.42149e-21)
(-0.803384 0.343223 1.95875e-21)
(0.0378652 -0.0133989 -2.73429e-21)
(-1.45568 -0.696219 1.92889e-22)
(0.0368758 -0.0205302 -4.48888e-21)
(-1.44375 -0.702204 -6.73411e-23)
(-0.774174 0.212499 1.82907e-21)
(-1.34856 -0.800283 4.25713e-22)
(0.0837033 -0.0120142 0)
(-0.0334079 0.0619362 0)
(-1.13372 -0.869384 0)
(-0.744116 -0.011271 0)
(-0.216026 0.0222403 0)
(-0.262992 -0.218811 -8.89609e-21)
(-0.649933 -0.31757 3.91127e-21)
(-0.746975 0.157836 5.36602e-21)
(-1.2982 -0.822987 2.67981e-22)
(0.0833281 -0.00531313 5.97413e-21)
(0.0771895 -0.000314907 3.903e-21)
(-0.734613 0.134913 -7.46138e-21)
(-1.27264 -0.82977 -3.71245e-22)
(-0.743307 0.416372 2.61696e-21)
(-0.0717737 -0.0849219 2.6162e-21)
(-1.48559 -0.568174 9.57603e-24)
(-0.45194 0.272026 0)
(-1.1387 -0.405177 1.09819e-21)
(-0.339837 -0.315681 -6.4624e-21)
(-0.375223 0.206025 0)
(-1.00762 -0.386247 6.33003e-21)
(-0.337691 -0.310582 -2.52825e-23)
(-0.640046 0.139156 -7.24324e-21)
(-1.22085 -0.743212 4.71909e-22)
(0.0658137 -0.020878 -3.49092e-21)
(-0.664011 0.133721 0)
(-1.23098 -0.765493 4.55794e-22)
(0.071392 -0.0128319 3.19503e-21)
(-0.139192 0.0276402 0)
(-0.436823 -0.329294 -9.82882e-21)
(-0.572024 -0.227412 3.59498e-21)
(-0.427678 0.214162 0)
(-1.07424 -0.446716 0)
(-0.239274 -0.239221 1.01859e-21)
(0.0769929 -0.00882502 -6.00809e-21)
(-1.32956 -0.909573 9.54655e-22)
(-0.943155 0.187306 0)
(-0.929962 0.312368 1.1592e-21)
(0.0656683 0.00145543 0)
(-1.20171 -0.735212 -1.69406e-21)
(-0.928275 0.295102 -2.01379e-22)
(0.0613673 -0.00289832 0)
(-1.15473 -0.725202 5.12162e-21)
(-0.248516 0.128693 2.33207e-21)
(-0.404172 -0.338428 -1.00542e-21)
(-0.814819 -0.316385 -1.59945e-22)
(-1.12684 -0.653412 2.51116e-22)
(0.0493985 0.0143482 4.91437e-21)
(-0.859033 0.335921 0)
(-0.710862 0.312623 6.35991e-21)
(-0.0106898 -0.0613451 3.09209e-21)
(-1.38826 -0.655562 0)
(0.0474718 0.00607897 -7.35192e-22)
(-1.06794 -0.663752 3.55965e-21)
(-0.860194 0.307578 0)
(-0.310695 -0.0692778 5.99074e-21)
(-0.127675 -0.100162 5.58501e-21)
(-0.58098 -0.346043 4.79941e-24)
(-0.472279 0.134187 -1.08426e-21)
(-1.07164 -0.571514 -7.22649e-22)
(-0.0369217 -0.0949245 -3.65349e-21)
(-0.849356 -0.64518 5.72471e-21)
(-0.629482 -0.105526 6.49239e-21)
(-0.0705882 0.071104 0)
(0.0807477 -0.0103489 0)
(-1.2957 -0.831802 1.07031e-21)
(-0.971915 0.255948 0)
(-1.20022 -0.814378 0)
(-0.687583 0.0858816 0)
(0.0602927 0.00987611 0)
(-0.00230542 -0.0197918 0)
(-0.800153 0.418262 -1.84553e-21)
(-1.48487 -0.615088 -8.93687e-22)
(-0.518832 0.154579 0)
(-1.12474 -0.606736 3.92948e-22)
(-0.0139037 -0.0804099 3.56837e-21)
(-0.211656 0.00139293 0)
(-0.259472 -0.211163 7.65632e-21)
(-0.606847 -0.302583 0)
(-1.33081 -0.824509 2.31577e-21)
(-0.949677 0.277251 1.59009e-21)
(0.0843412 -0.00524943 0)
(0.0630911 -0.0210744 -3.40061e-21)
(-1.38553 -0.751859 2.5493e-23)
(-0.773587 0.272801 1.85886e-22)
(-0.842637 0.395532 0)
(-0.837229 0.39605 1.54757e-21)
(0.0474314 0.0235691 -1.76913e-21)
(0.0485281 0.0273346 -2.15731e-21)
(-1.37341 -0.652021 1.6991e-21)
(-1.33941 -0.648233 -1.39781e-21)
(-0.495117 0.0286809 0)
(-0.973307 -0.628468 9.72307e-21)
(0.0250503 -0.0187242 4.05368e-21)
(-1.14245 -0.735806 5.38381e-21)
(-0.61225 0.0769785 0)
(0.0578056 -0.00270454 -4.31537e-21)
(-0.35357 -0.0264298 -4.98987e-21)
(-0.728565 -0.442943 2.95153e-21)
(-0.0589904 -0.0709575 6.6663e-21)
(-1.25415 -0.776196 -2.87601e-21)
(-0.950742 0.297436 1.47334e-21)
(-1.23864 -0.789039 1.5183e-21)
(0.0729857 -0.00254423 0)
(-0.965259 0.278441 -1.42284e-21)
(0.0726781 -0.00768355 0)
(-0.618007 0.198744 0)
(-1.24451 -0.67785 0)
(0.025278 -0.0528469 3.872e-21)
(-0.940692 0.294608 2.49134e-21)
(-0.943657 0.303356 -4.51093e-21)
(-1.33335 -0.800419 -1.90042e-21)
(-1.29987 -0.778292 4.05555e-21)
(0.0813993 -0.000814253 5.04303e-21)
(0.0765929 0.000850892 -1.8012e-23)
(-0.594906 0.0550425 0)
(-1.09949 -0.731722 -5.40765e-21)
(0.0460892 0.00616207 5.60309e-21)
(-0.432622 0.0589533 4.78306e-21)
(-1.00358 -0.578139 -4.48812e-21)
(-0.00395954 -0.0662248 0)
(-0.813645 0.421214 0)
(0.0209082 0.00706048 0)
(-1.45135 -0.622034 -2.09962e-21)
(-0.487668 0.0532724 3.5621e-21)
(-0.998783 -0.618421 -2.70462e-21)
(0.0268048 -0.0304919 -6.6218e-21)
(-0.37408 0.00100977 2.03123e-21)
(-0.811185 -0.493639 -3.46749e-21)
(-0.0356096 -0.0652439 3.79167e-21)
(-0.827387 0.405038 0)
(0.0398409 0.0221018 0)
(-1.40169 -0.640694 2.80409e-21)
(-0.531446 0.180382 0)
(-1.16661 -0.59756 6.82802e-22)
(-0.0282933 -0.0908086 -3.81068e-21)
(-1.02497 -0.80758 0)
(-0.737799 -0.0717998 0)
(-0.0903872 0.0950996 -2.16917e-22)
(-0.357967 0.227652 -2.46989e-22)
(-1.00308 -0.331531 0)
(-0.460379 -0.411414 6.82537e-21)
(-1.28722 -0.932317 1.20582e-21)
(0.0409974 0.0140768 0)
(-0.833765 0.0950186 0)
(0.0128103 0.0214062 -7.01789e-21)
(-0.683925 -0.379495 -7.09009e-21)
(-0.525195 0.247998 7.23636e-22)
(-0.497208 0.101527 0)
(-1.05679 -0.611351 2.72803e-21)
(0.0131993 -0.0560941 -3.30388e-21)
(-0.828405 0.394671 3.65332e-21)
(0.0311473 -0.0011205 9.14497e-21)
(-1.4595 -0.660531 0)
(-0.63714 -0.555931 -1.72418e-21)
(-0.945379 -0.260215 -3.25273e-21)
(-0.305374 0.21673 -2.1032e-21)
(-0.6604 0.370348 0)
(0.0292968 0.0408761 -2.53231e-21)
(-1.03331 -0.486538 0)
(-0.0589511 0.0200476 4.22432e-21)
(-0.0662456 0.0389467 -4.31008e-21)
(-0.655852 -0.47053 0)
(-0.507096 -0.126117 4.19208e-21)
(-0.690932 -0.505556 -6.1647e-21)
(-0.548362 -0.134685 -3.35342e-21)
(-0.376912 -0.0560044 4.70701e-21)
(-0.686653 -0.432052 4.04403e-21)
(-0.0560084 -0.0513755 0)
(-0.112924 0.0492809 3.84841e-21)
(-0.0863708 0.0273439 0)
(-0.54861 -0.414385 -3.53831e-21)
(-0.58793 -0.194539 3.73748e-21)
(-0.574397 -0.418782 3.56628e-21)
(-0.53219 -0.16242 2.16135e-23)
(-0.462817 0.0881239 2.99599e-22)
(-0.942173 -0.56055 -2.03398e-21)
(-0.00588808 -0.0580346 -4.61793e-21)
(-0.444659 0.0419654 -8.28085e-21)
(-0.943671 -0.573727 5.17595e-23)
(0.00486202 -0.044744 0)
(0.0651035 -0.00926295 0)
(-1.16854 -0.758391 0)
(-0.956302 0.277231 1.06011e-21)
(-0.284701 0.139167 -2.15343e-21)
(-0.863112 -0.349612 0)
(-0.34034 -0.296542 1.8525e-21)
(-0.920115 0.304387 -5.30447e-21)
(-1.36757 -0.795665 -1.54461e-21)
(0.0825186 0.00225931 -2.87283e-21)
(-0.6616 0.171915 0)
(-0.701973 0.191433 3.84505e-21)
(-1.26179 -0.737748 -5.88834e-22)
(-1.30027 -0.757988 1.33465e-21)
(0.065042 -0.0253649 -4.26322e-21)
(0.0716263 -0.0213945 -3.8919e-21)
(-0.269464 0.115986 0)
(-0.828044 -0.354965 0)
(-0.309484 -0.274152 9.09389e-22)
(-0.480727 0.260372 2.47396e-21)
(-1.15855 -0.456332 0)
(-0.249648 -0.242773 2.1535e-21)
(-0.586123 0.149401 -2.05264e-21)
(-1.18283 -0.685776 0)
(0.0433596 -0.0401302 0)
(-0.189782 -0.0454387 4.52439e-21)
(-0.485253 -0.240495 -2.13765e-21)
(-0.304909 -0.227004 2.09707e-21)
(-0.715254 0.162633 0)
(-1.28561 -0.793682 0)
(0.0799888 -0.0107857 -6.35662e-21)
(-0.189219 0.0303044 0)
(-0.323033 -0.258716 1.09719e-21)
(-0.632913 -0.289665 0)
(-0.580168 0.0760685 -4.69623e-21)
(-1.10915 -0.713042 -3.09569e-21)
(0.0502911 -0.0118704 -5.61317e-22)
(-0.473052 0.240294 2.55606e-21)
(-1.141 -0.472614 0)
(-0.21393 -0.219708 4.45425e-21)
(-0.180129 -0.0189495 -4.48236e-21)
(-0.157232 -0.0121177 -1.97671e-21)
(-0.530635 -0.256141 2.14235e-21)
(-0.31658 -0.242362 -4.18333e-21)
(-0.521354 -0.237144 0)
(-0.366347 -0.275573 -7.35754e-21)
(-0.113754 0.0115086 -1.94114e-21)
(-0.478409 -0.353678 4.57148e-21)
(-0.0935218 0.0140943 1.24713e-21)
(-0.523969 -0.194432 -5.08208e-21)
(-0.5563 -0.401671 -2.26435e-21)
(-0.514597 -0.168733 1.06037e-22)
(-0.34611 0.14879 2.40517e-21)
(-0.385168 0.157456 0)
(-0.942757 -0.421063 3.7873e-21)
(-0.990888 -0.458401 -2.96011e-21)
(-0.22934 -0.220601 -4.18817e-21)
(-0.177994 -0.184486 6.96171e-21)
(-0.0221617 -0.060102 0)
(-1.43316 -0.639103 -1.15364e-22)
(-0.739811 0.35262 -3.62143e-21)
(-0.107833 0.106221 2.65654e-21)
(-0.730446 -0.0985127 4.10503e-21)
(-0.958452 -0.761114 -5.33463e-21)
(-0.000390725 -0.0416297 -3.10922e-21)
(0.0173571 -0.0346253 2.50172e-21)
(-1.44722 -0.660681 9.98747e-23)
(-1.43519 -0.681683 2.94671e-22)
(-0.769127 0.36151 9.19724e-21)
(-0.77528 0.34292 -4.77067e-21)
(-0.194845 0.147406 3.90091e-21)
(-0.712446 -0.582564 -2.8346e-21)
(-0.783786 -0.198568 8.96823e-22)
(-0.239835 -0.0987236 7.66807e-21)
(-0.273657 -0.183055 0)
(-0.413668 -0.221188 -7.43337e-21)
(-0.731456 0.188406 -1.81385e-21)
(-1.31171 -0.787854 -1.50713e-21)
(0.0800145 -0.0138719 0)
(-0.226108 0.0921539 0)
(-0.353114 -0.302702 -8.65645e-22)
(-0.753318 -0.313207 -3.5966e-21)
(-0.499916 0.248254 0)