/*--------------------------------*- C++ -*----------------------------------*\
  =========                 |
  \\      /  F ield         | OpenFOAM: The Open Source CFD Toolbox
   \\    /   O peration     | Website:  https://openfoam.org
    \\  /    A nd           | Version:  6
     \\/     M anipulation  |
\*---------------------------------------------------------------------------*/
FoamFile
{
    version     2.0;
    format      ascii;
    class       volScalarField;
    location    "0";
    object      p;
}
// * * * * * * * * * * * * * * * * * * * * * * * * * * * * * * * * * * * * * //

dimensions      [0 2 -2 0 0 0 0];

internalField   nonuniform List<scalar> 
13046
(
0.313697
0.28555
0.323126
0.318768
0.323553
0.289654
0.306017
0.29217
0.327007
0.188912
0.0378708
0.296896
0.311108
0.253213
0.318539
0.221775
0.295535
0.0673556
0.331162
0.312578
0.306215
0.216743
0.297953
0.0630794
0.315328
0.306126
0.317856
0.301924
0.256099
0.319444
0.321893
0.267511
0.316287
0.321561
0.323783
0.302447
0.318901
0.325975
0.309648
0.318694
0.30893
0.269975
0.313973
0.328424
0.318169
0.316917
0.319955
0.315597
0.306469
0.282867
0.324072
0.277996
0.31766
0.245072
0.284593
0.237392
0.320091
0.154134
0.282898
0.297951
0.274646
0.230841
0.317197
0.303045
0.124166
0.239723
0.289093
0.162082
0.29372
0.295994
0.172072
0.294008
0.136313
0.276562
0.297859
0.330874
0.322016
0.296193
0.301143
0.261287
0.126764
0.312263
0.300735
0.317635
0.300516
0.105738
0.226912
0.221373
0.306379
0.140868
0.30405
0.191757
0.139437
0.281309
0.272047
0.202603
0.191567
0.309773
0.311968
0.308206
0.219685
0.152194
0.318345
0.323694
0.309956
0.326421
0.25642
0.289086
0.317517
0.299501
0.260205
0.136221
0.292977
-0.0359805
0.312871
0.266493
0.315858
0.274894
0.28099
0.174638
0.306115
0.195534
0.306771
0.178738
0.0180732
0.295705
0.299614
0.217043
0.318198
0.317304
0.309534
0.266769
0.304817
0.198733
0.160709
0.257862
0.169389
0.309121
0.318606
0.259266
0.313501
0.288084
0.283025
0.320629
0.314538
0.288204
0.263382
0.325137
0.269159
0.297797
0.274362
0.214141
0.315954
0.332212
0.285527
0.296499
0.259267
0.240512
0.248479
0.239464
0.317988
0.317812
0.287798
0.265583
0.320348
0.182698
0.297928
0.0435584
0.15527
0.293747
-0.0181071
0.254689
0.155427
0.30787
0.318666
0.234355
0.306171
0.288441
0.320835
0.274131
0.301174
0.0719158
0.187349
0.318454
0.247394
0.300802
0.330625
0.276788
0.291067
0.293388
0.284528
0.320019
0.245544
0.323315
0.300683
0.233064
0.315332
0.219378
0.303321
0.114985
0.308007
0.215004
0.164893
0.195848
0.130906
0.303247
0.270914
0.225743
0.311645
0.300736
0.264348
0.296141
0.127793
0.109361
0.194683
0.303034
0.314138
0.326578
0.308639
0.305938
0.261982
0.31686
0.308416
0.206298
0.170453
0.296029
0.253123
0.325686
0.29625
0.00812495
0.154874
0.312028
0.226776
0.263304
0.207037
0.148426
0.306095
0.257783
0.259309
0.322575
0.294392
0.222706
0.318186
0.202034
0.211425
0.306544
0.231345
0.236432
0.313134
0.296211
0.00701398
0.143074
0.322388
0.303767
0.247188
0.153564
0.291211
-0.0647724
0.326542
0.311901
0.306143
0.268948
0.267151
0.254035
0.263759
0.323895
0.317503
0.294241
0.254565
0.108498
0.301332
0.232261
0.312487
0.231189
0.216827
0.31371
0.263527
0.172065
0.307294
0.318134
0.311807
0.327671
0.251504
0.246607
0.318773
0.303768
0.219669
0.311477
0.298013
0.297615
0.324116
0.29713
0.234809
0.251474
0.233136
0.316962
0.251163
0.305952
0.162961
0.327802
0.298858
0.25915
0.318177
0.23022
0.252298
0.284679
0.184141
0.302601
0.31888
0.282255
0.239488
0.275776
0.272814
0.173236
0.301885
0.166953
0.305026
0.300617
0.0825634
0.196738
0.284927
0.207853
0.309207
-0.0944471
0.29176
0.108213
0.30326
0.324533
0.290752
0.282709
0.241318
0.317616
0.305605
0.229308
0.134017
0.278698
0.22834
0.318117
0.187253
0.210664
0.307296
0.274024
0.321341
0.277254
0.23364
0.316786
0.265567
0.324691
0.235042
0.296691
0.085336
0.278084
0.212166
0.313694
0.271158
0.223691
0.313114
0.281383
0.274771
0.324359
0.258441
0.279586
0.322125
0.315603
0.283139
0.323406
0.313258
0.233732
0.258674
0.208464
0.119847
0.303527
0.192213
0.209741
0.309473
0.297314
0.291084
0.195727
0.269069
0.274381
0.15929
0.142945
0.295851
0.298816
0.291719
-0.081394
0.122818
0.163154
0.291719
-0.0528107
0.265546
0.245746
0.314242
0.301721
0.216072
0.0974099
0.290452
0.289289
0.191177
0.179653
0.303337
0.300646
0.299
0.084135
0.167715
0.144743
0.2904
-0.0823209
0.303179
0.327566
0.319781
0.138115
-0.0575894
0.292492
0.315368
0.231679
0.302733
0.190531
0.0812471
0.301714
-0.0774772
0.29326
0.0714132
0.320639
0.307079
0.279427
0.304843
0.313244
0.324249
0.182444
0.295997
0.0105555
0.299281
0.305602
0.324173
0.307759
0.326429
0.322077
0.316311
0.215571
0.264589
0.293261
0.318071
0.326184
0.305277
0.292428
0.32427
0.301952
0.203215
0.289588
0.297748
0.299822
0.0620147
0.0597853
0.205937
0.202198
0.193637
0.109901
0.30216
0.297318
0.296894
0.177869
0.316776
0.297808
0.255685
0.224811
0.230975
0.30871
-0.0257305
0.293865
0.0925471
0.303654
0.189062
0.125885
0.161665
0.295049
0.000890448
0.293452
-0.0938683
0.0698417
-0.123416
0.292224
0.0941554
0.216624
0.251719
0.311975
0.0415211
0.296507
0.135376
0.246478
0.167168
0.309346
0.210967
0.290831
0.0242465
0.30637
0.319471
0.284467
0.0993619
0.300871
0.177174
0.22665
0.309735
0.238288
0.210785
0.232081
0.314692
0.293963
-0.171104
0.0345854
-0.0706926
0.292435
0.0933703
0.311471
0.324166
0.284972
0.0760271
0.165606
0.29944
0.298935
0.151508
0.0729295
0.214701
0.30058
0.0969897
0.29687
0.113339
0.246553
0.308216
0.198132
0.291398
0.163178
0.282453
0.303387
0.295375
0.240666
0.0751633
0.30965
0.306645
0.238801
0.226611
0.309751
0.312517
0.312601
0.243052
0.308148
0.297237
0.184273
0.304519
0.200822
0.220465
0.31062
0.102596
0.193601
0.303691
0.308781
0.225406
0.182026
-0.122801
0.291864
0.108037
0.324707
0.321388
0.31675
0.273124
0.320659
0.278786
0.308226
0.302199
0.301117
0.201365
0.302245
0.22361
-0.0703251
0.293027
0.0725983
0.0833771
0.174414
0.300684
0.313571
0.28714
0.236114
0.214858
0.216456
0.309345
0.297078
0.121768
0.253553
-0.0316833
0.124147
0.294322
-0.0113516
0.129306
0.294922
0.2904
0.188807
0.307228
0.328987
0.293756
0.268221
0.209234
0.299128
0.0763324
0.209012
0.240468
0.314163
0.306153
0.138291
0.248598
0.305003
0.302504
0.226819
0.261966
0.265863
0.320362
0.320763
0.30468
0.262636
0.299079
0.0686224
0.197517
0.265092
0.164756
0.305453
0.324304
0.311783
0.280431
0.229466
0.292554
0.0558599
0.3102
0.26337
0.316252
0.296058
0.283495
0.327212
0.221082
0.241272
0.313781
0.181594
0.291404
-0.0218596
0.190886
0.291045
-0.013527
0.304406
0.131268
0.249471
0.25083
0.271088
0.316806
0.289528
-0.0464148
0.166081
0.307001
0.148839
0.238658
0.293048
-0.110774
0.0544174
0.0813714
-0.13749
0.291236
0.297824
0.0863331
0.24202
0.297923
0.0350089
0.170645
0.222921
0.229611
0.296896
0.0762912
0.299381
0.0972865
0.230141
0.156821
0.30775
0.31387
0.225747
0.209801
0.325786
0.318602
0.283097
0.234723
0.174298
0.310717
0.311416
0.237797
0.184124
0.249017
0.295027
0.0846937
0.305503
0.190367
0.301238
0.309904
0.223136
0.299035
0.255452
0.210824
0.31489
0.250767
0.205019
0.31452
0.325919
0.305916
0.289606
0.306365
0.217411
0.314875
0.301585
0.106047
0.170761
0.119536
0.295273
-0.00718026
0.106798
0.295225
-0.0055922
0.317014
0.30951
0.255935
-0.0467053
0.293732
0.105661
0.25905
0.30444
0.143103
0.29348
-0.0409853
0.0888303
0.317865
0.325139
0.296808
0.294699
0.242848
0.317582
0.273566
0.250617
0.318795
0.297842
0.052142
0.148231
0.206254
0.242038
0.313866
0.292554
0.221602
0.0471632
0.28423
0.233961
0.318326
0.326871
0.32185
0.287752
0.0528297
0.158474
0.298574
0.306017
0.136133
0.23894
0.176679
0.16553
0.292891
0.29261
-0.0108282
-0.0272212
0.277539
0.261109
0.322924
0.226201
0.257858
0.312656
0.298782
0.289743
0.328349
0.017
0.131956
0.0224928
0.296282
0.13056
0.296094
0.271689
0.198994
0.315224
0.158806
0.146274
0.041539
0.0249412
0.298326
0.296931
0.253931
0.239393
0.320692
0.28957
0.256815
0.31951
0.201589
0.292793
0.0140086
0.288494
0.248316
0.321224
0.300387
0.273869
0.323538
0.18121
0.291359
-0.00549492
0.290098
0.212226
0.311605
0.250057
0.213792
0.311261
0.308808
0.212587
0.298324
0.172955
0.304695
0.196353
0.293087
-0.151124
0.0497576
0.28179
0.243202
0.317972
0.20924
0.29448
0.0416844
0.285319
0.204087
0.31057
0.109587
0.289743
-0.103705
0.326657
0.322453
0.293069
0.280071
0.293924
0.27579
0.302237
0.289717
0.32715
0.321357
0.326177
0.301837
0.282568
0.311497
0.278748
0.287071
0.26369
0.32563
0.291086
0.266267
0.325328
0.295249
0.00548427
0.111246
0.31533
0.253156
0.306008
0.171497
0.0496848
0.298758
0.255563
0.249422
0.196815
0.179909
0.311482
0.309062
0.311165
0.269188
0.311273
0.296344
0.20231
0.302108
0.269226
0.216986
0.317288
0.323982
0.303547
0.31664
0.244059
0.183842
0.31157
0.322682
0.311779
0.288535
0.264612
0.235002
0.319802
0.29461
0.213934
0.302785
0.322906
0.324036
0.297053
0.322131
0.298247
0.317705
0.324984
0.30097
0.328386
0.293644
0.318301
0.283887
0.310222
0.308166
0.247324
0.243637
0.314182
0.31069
0.298486
0.118751
0.251333
0.311409
0.222808
0.257411
0.300581
0.301421
0.10392
0.110809
0.241227
0.238613
0.31588
0.287125
0.230086
0.322349
0.321373
0.311069
0.244037
0.171651
0.310206
0.32278
0.312472
0.264116
0.291962
0.207731
0.303979
0.26652
0.267314
0.137352
0.302159
0.146294
0.302883
0.262874
0.189954
0.310869
0.122299
-0.0864298
0.290414
0.280773
0.215129
0.310667
0.307443
0.309632
0.287989
0.208056
0.296577
0.216987
0.230401
0.193781
0.311213
0.298014
0.212801
0.304418
0.317072
0.285476
0.224397
0.307541
0.313692
0.292803
0.306563
0.237181
0.230921
0.307255
0.299087
0.222478
0.262968
0.199479
0.313653
0.324107
0.312162
0.292841
0.192643
0.294554
0.0224323
0.315798
0.288393
0.215463
0.296421
0.289452
0.207999
0.199297
0.304117
0.309415
0.294948
0.0413121
0.203782
0.202697
0.294002
0.022786
0.192483
0.293061
0.0116907
0.259661
0.30232
0.136706
0.301271
0.224684
0.306707
0.0849736
0.127123
0.248013
0.0890502
0.207167
-0.00826616
0.166121
0.116417
0.0482615
0.197159
0.19422
0.0296497
0.081262
0.197395
0.10489
0.0808699
0.0940885
0.104133
0.122067
0.168521
0.124524
0.0996599
0.20682
0.28974
0.257283
0.132604
0.217983
0.0324016
0.141559
0.0737858
0.0408945
0.160545
0.126486
0.112676
0.0548383
0.136673
0.241932
0.204945
0.10052
0.156815
0.0908278
0.290154
0.0679129
0.195465
0.226864
0.0891415
0.0954378
0.0785624
0.0325997
0.0682514
0.259561
0.123199
0.0834324
0.0942301
0.0410133
0.254273
0.171529
0.129865
0.0800605
0.190097
0.0660114
0.0720513
0.257929
0.126233
0.129404
0.17341
0.136462
0.282579
0.206059
0.205943
0.0186762
0.0425195
0.0976427
0.181076
0.0335046
0.11021
0.132788
0.0496038
0.18392
0.225421
0.104585
0.120327
0.0360231
0.0720017
0.082439
0.191109
0.0825949
0.0879428
0.103375
0.261963
0.0797446
0.189103
0.256509
0.113854
0.0808557
-0.0548194
0.0614874
0.0814842
0.0805769
0.0147314
0.160573
0.210486
0.235041
0.28489
0.0746036
0.0815253
0.0309952
0.0896814
0.0635115
0.24022
0.214743
0.165475
0.056668
0.0411943
0.162021
0.215449
0.0987984
0.0881072
0.0123773
0.0991984
0.111401
0.268692
0.277255
0.183989
0.13581
0.103641
0.0333558
0.273552
0.0614454
0.178341
0.0142678
0.257006
0.0385677
0.0438623
0.074406
0.224266
0.102972
-0.0130903
0.0679402
0.165507
0.0759838
0.192699
0.166016
0.0830012
0.225933
0.0955834
0.0649305
0.233046
0.067748
0.104819
0.0303789
0.144141
0.0985505
0.230161
0.188129
0.092792
0.18197
0.193911
0.245697
0.134014
0.0959434
0.0810902
0.199551
0.0624278
0.154118
0.0353675
0.285774
0.101251
0.232796
0.271877
0.130373
0.27731
0.234149
0.243796
0.0537568
0.00903275
0.0315841
0.248287
0.0528405
0.0421777
0.0584477
0.0442401
0.103083
0.0936906
0.135566
0.272417
0.185965
0.088979
0.190548
0.0871569
0.287673
0.0281155
0.220776
0.0845743
0.00559298
0.260337
0.274333
0.0800365
0.0812932
0.284911
0.143215
0.0978526
0.0621403
0.181844
0.238677
0.186549
0.0694065
0.0805009
0.207223
0.137956
0.0646366
0.158908
0.0535748
0.0469247
0.10346
0.21468
0.0159117
0.109406
0.211248
0.080433
0.0119442
0.0975239
0.085972
0.100359
0.15452
0.160684
0.0710501
0.039109
0.0678265
0.170772
0.181444
0.0814561
0.160136
0.0969268
0.0546866
0.143883
0.0908078
-0.00257193
0.185488
0.231706
0.132131
0.261548
0.241007
0.289617
0.0812503
-0.0146229
0.105961
0.0938118
0.100076
0.0224677
0.149379
0.256019
0.182247
0.14026
0.0643906
0.0896366
0.196003
0.124258
0.175791
0.0688805
0.111964
0.0875344
0.0458307
0.0701722
0.0831815
0.0790574
0.0569086
0.162593
0.135833
0.0930798
0.168526
0.0910759
0.100808
0.0695197
0.0965086
0.0705319
0.086263
0.139122
0.0182112
-0.025625
0.116223
0.0257544
0.00596873
0.138507
0.0316691
0.00948255
0.229799
0.163499
0.069101
0.190517
0.0455215
0.159075
0.159233
0.0550266
0.0854955
0.214503
0.105792
0.19585
-0.0148756
0.06224
0.232743
0.0849736
0.073176
-0.037705
0.016294
0.0030885
0.0206553
0.0912339
0.169377
0.0520361
0.00497498
0.0599211
0.083658
0.288243
0.0774079
0.181652
0.154109
0.0410775
0.113189
0.0677182
0.0364744
0.155528
0.098391
0.256434
0.180314
0.0682106
0.0918252
0.125337
0.290318
0.193541
0.242591
0.187519
0.0933353
0.133912
0.100793
0.055292
0.0209132
0.0804834
0.101108
0.176623
0.0753398
0.0267255
0.0846512
0.106386
0.0808248
0.0960431
0.218866
0.096957
0.0874752
0.250902
0.225875
0.0705507
0.143124
0.240385
0.0413076
0.0273787
0.0946061
0.0524762
0.0377845
0.23673
0.0652876
0.109666
0.245268
0.010195
0.138379
0.0782255
0.132231
0.0953836
0.0764207
-0.0525667
0.111664
0.029942
0.0548149
0.091024
0.0876078
0.191472
0.256871
0.0794349
0.14067
0.110946
0.072226
-0.00587117
0.213956
0.164463
0.0585806
0.0286615
0.149929
0.0278497
0.0888527
0.0724229
0.0633126
0.20557
0.255128
0.0898337
0.188808
0.285739
0.217751
0.221066
0.246854
0.0970165
0.0859415
0.0398231
0.287024
0.214355
0.232522
0.0754111
0.0813402
0.0105469
0.195908
0.102541
0.0735276
0.233523
0.172449
0.0665265
0.109798
0.0754618
0.0834594
0.0753281
0.0910463
0.094931
0.0506896
0.0929181
0.0201686
0.112538
0.0507645
0.172764
0.127761
0.0164685
0.240328
0.250951
0.186064
0.0903735
0.141738
0.0301272
0.193873
0.122995
0.0233123
0.237949
0.00669592
0.258147
0.0303486
0.103597
0.119663
0.183129
0.20537
0.0812797
0.270531
0.0828532
0.221107
0.105142
0.171865
0.0875817
0.077367
0.0787534
0.226056
0.118238
0.285367
0.17229
0.0186277
0.0795349
0.161677
0.0184884
0.0911545
0.106257
0.052834
0.262448
0.0633516
0.0525669
0.203093
0.080019
0.256373
0.279893
0.0824422
0.286089
0.267152
0.221044
0.235127
0.14666
0.0313354
0.0656914
0.0975512
0.212436
0.100793
0.00840715
0.269404
0.0512921
0.0904843
0.0614076
0.244912
0.286996
0.0629018
0.217872
0.155971
0.256923
0.113288
0.192006
0.0790868
0.271854
0.28282
0.177601
0.0661105
0.208294
0.0982858
0.140177
0.125727
0.113126
0.15544
0.0908069
0.0105819
0.0401454
0.118347
0.165302
0.141589
0.23433
0.058705
0.0983237
0.170383
0.0439338
0.24937
0.0747894
0.0785257
0.246175
0.226433
0.147724
0.274813
0.0717079
0.0827575
0.195609
0.132087
0.126593
0.101052
0.0795992
0.160917
0.178587
0.0796943
0.075465
0.144151
0.0180232
0.0490346
0.257249
0.28342
0.284291
0.114512
0.290308
0.285957
0.265503
-0.0046287
0.155799
0.153185
0.273874
0.0935196
0.0804976
0.0341263
0.0649601
-0.00399334
0.269201
0.102626
0.108424
0.194596
0.176653
0.0880805
0.0798483
0.285546
0.271012
0.240408
0.180528
0.0661572
0.188581
0.166876
0.0903145
0.118853
0.0424472
0.0641338
0.136796
0.115056
0.0885125
0.257086
0.256796
-0.00388339
0.223635
0.0811453
0.0712558
0.103662
0.253969
0.102669
0.180006
0.10337
0.241831
0.0912281
0.106613
0.282832
0.014497
0.0148057
0.0728834
0.0557429
-0.0207489
-0.0647588
0.0633915
-0.011725
0.120162
-0.00280346
0.0502968
0.114365
0.0532725
0.0634489
0.0930039
0.0393734
-0.0543142
0.267645
0.223533
0.0908349
0.0286269
0.22744
0.0701346
0.0805043
0.280854
0.0699522
0.280754
0.107065
0.229762
0.115138
0.039704
0.0448114
0.140687
0.140692
0.120671
0.039133
0.0953732
0.0541845
0.0576743
0.0878751
0.017779
0.0402711
0.266792
0.0712883
0.176735
0.200273
0.0950483
0.20617
0.202154
0.0332305
-0.0598918
0.105472
0.0225501
-0.0171482
0.183569
0.186512
0.0903537
0.163335
0.0880757
0.283469
0.265147
0.0971615
0.0832702
0.272894
0.235601
0.156921
0.158565
0.0884298
0.285971
0.138548
-0.00432795
0.245525
0.217931
0.258188
0.139638
0.0680183
0.100331
0.187986
0.157473
-0.0933686
0.291086
0.10475
0.0695331
0.122227
0.23476
0.281638
0.281464
0.163653
0.126243
0.206375
0.236683
0.247761
0.180804
0.21458
0.051063
0.0777732
0.151898
0.0400835
0.0508296
0.0145385
0.103495
0.201801
0.0224914
0.132181
0.0830829
0.215388
0.281668
0.0998432
0.0301972
0.0059348
0.192526
0.0815841
0.0625931
0.0165413
0.251514
0.141973
0.146473
0.0216869
0.151445
0.0661281
0.0758711
0.192401
0.198619
0.254533
0.286317
0.0642708
0.239645
-0.00115219
0.247701
0.254351
0.257415
0.207734
0.0521864
0.0521353
0.0897239
-0.00733699
0.13564
0.0142479
0.15862
0.0262197
0.231522
0.0933424
0.00189573
0.226486
0.20008
0.110831
0.115284
0.175005
0.252873
0.142727
0.123871
0.00112792
0.217752
0.137822
0.269266
-0.0156593
0.115004
0.246356
0.187782
0.275732
0.193514
0.0961922
-0.0335344
0.00138675
0.113018
0.0263484
0.268325
-0.00839573
0.0944471
0.111584
0.0684736
0.21113
-0.0112332
0.246897
0.187479
0.149439
0.0147377
0.173623
0.075861
0.105765
0.106295
0.112749
0.0793171
0.0647778
0.204578
0.0521801
0.288933
0.0806022
0.121526
0.17074
0.194562
0.267241
0.0785404
0.082669
0.0630619
0.124885
0.0720081
0.26231
0.0626504
0.128742
0.0884423
0.220089
0.0507262
0.137775
0.0381522
0.282483
-0.00786767
0.0503987
0.0893935
0.225554
0.00504555
0.0220749
0.0481544
0.0294398
0.25563
0.12529
0.183444
0.22998
0.174029
0.131784
0.282475
0.132403
0.199048
0.167542
0.140775
0.0139663
0.146924
0.0999938
0.0905907
0.149756
0.0602237
0.0184812
0.125246
0.098553
0.054519
0.215507
0.127441
0.180274
0.10003
0.26455
0.112153
0.113476
0.169185
0.0242578
0.0584436
0.0876458
0.140272
0.145531
0.156243
0.252619
0.192809
0.20952
0.133365
0.239993
0.269968
0.266416
0.141137
0.134113
0.155177
0.0328054
0.277952
0.233956
0.22065
0.113996
0.0484279
0.0127763
0.154707
0.188359
0.0703801
0.220309
0.234
0.158668
0.0814174
0.142458
0.0911225
0.0745018
0.113686
0.0833053
0.14574
0.0155994
0.150048
0.123241
0.097991
-0.0103981
0.14642
0.129416
0.17776
0.0899209
0.141233
0.251444
0.261624
0.1434
0.10833
0.210076
0.128278
0.0598604
0.0627075
0.102426
0.0264114
0.251594
0.121712
0.134477
0.188604
0.18216
0.171202
0.057591
0.287655
0.173813
0.0694108
0.122156
0.12065
0.209869
0.247994
0.175751
0.154722
0.00358868
0.0532066
0.0954012
0.15596
0.12908
0.142187
0.0778055
0.259156
0.162457
0.208187
0.23751
0.1396
0.074001
0.140662
0.277733
0.0535345
0.000217746
0.140571
0.283608
0.082711
0.100238
0.20474
0.189156
0.223716
0.115116
0.00666035
0.153604
0.0342394
0.0860707
0.223007
0.105408
0.0369827
0.0673643
0.082161
0.161731
0.0947376
0.087521
0.242705
0.0721024
0.283064
0.221143
0.0281131
-0.0219929
0.125921
0.196942
0.235821
0.109972
0.0953269
0.0746938
0.0909363
0.115979
0.286147
0.246408
0.193985
0.100544
0.0107465
0.252362
0.288274
0.257785
0.211123
0.244651
0.137813
0.0429359
-0.0109325
0.000290586
0.266595
0.125686
0.0616302
0.103445
0.286768
0.0881997
0.0806356
0.0232141
0.112172
0.0609274
0.283424
0.152515
0.194732
0.243772
0.233721
0.0859787
0.16445
0.133647
0.188326
0.0457307
0.161418
0.0769632
0.261993
0.0442617
0.086688
0.0579057
0.0980385
0.250268
0.0966402
0.22092
0.239085
0.245567
0.0410978
0.130698
0.0960846
0.0795218
0.257431
0.139951
0.144717
0.14986
-0.00327125
0.104672
0.257588
0.168253
0.260396
-0.00550065
0.0523702
0.0867421
0.265898
0.0726456
0.119167
0.0551626
0.0590857
0.103101
0.263133
0.112679
0.0980207
0.0230017
0.281466
0.278133
-0.00401771
0.254888
0.0930509
0.0424388
0.0531044
0.123153
0.0309871
0.169145
0.101056
0.0861126
0.10074
0.239246
0.113633
0.220815
0.108572
0.0435197
0.102039
-0.0062078
0.0126549
0.105484
0.0990251
0.151581
0.0529761
0.113023
0.237212
0.162433
0.0867485
0.0358322
0.244648
0.107448
0.118294
0.293651
0.147786
0.0845695
0.086826
0.0599587
0.270575
0.0931512
0.114095
0.160369
0.0298126
0.248203
0.0477401
0.240219
0.129495
0.200307
0.0577148
0.213746
0.107294
0.0318819
0.0585326
0.130255
0.250093
-0.0253039
0.0773592
0.0670287
0.269438
0.286375
0.0701477
0.079278
0.166742
0.268772
0.112998
0.254716
0.233197
0.219141
0.202722
0.139653
0.181354
0.173426
0.258946
0.1202
0.138452
0.0714936
0.0847268
0.12254
0.0564892
0.271473
0.0574473
0.252525
0.11868
0.266074
0.0818411
0.275662
0.197613
0.23643
0.267411
0.251735
0.29245
0.0938443
0.239621
0.128769
0.088955
0.0800934
0.0519768
0.260209
0.0582554
0.147995
0.161215
0.102589
0.164143
0.0747929
0.257986
0.121459
0.209773
-0.00873581
0.0677726
0.0944214
0.283968
0.0750145
0.172757
0.0888643
0.0955045
0.0368442
0.104594
0.0938676
0.214031
0.263304
0.0212979
0.143394
0.0892514
0.0853078
0.225694
0.0723679
0.0828197
0.273351
0.000233074
0.14526
0.1889
0.249731
0.280885
0.0863063
0.0740373
0.0322771
0.0949443
0.0785892
0.0886223
0.205446
0.0877816
0.0403292
0.0987085
0.131646
0.0912917
0.0846903
0.0671467
0.129039
0.0288861
0.207603
0.199044
0.0920786
0.209238
0.0449764
0.024225
0.0701304
0.012008
0.27426
0.0950158
0.0890441
0.0773753
0.233946
0.257747
0.135165
0.206719
0.0832057
0.0699694
0.135603
0.091262
0.0757149
0.259141
0.153888
0.180559
0.27709
0.214149
0.126621
0.267731
0.0164613
0.137804
0.133699
0.157876
0.104124
0.263861
0.0847031
0.15194
0.119962
0.0914716
0.058333
0.0775532
0.197461
0.227386
0.241951
0.137287
0.145639
0.266627
0.216999
0.104815
0.150956
0.0413839
0.0888943
0.219158
0.0219485
0.237299
0.0840526
0.245459
0.288724
0.261509
0.0753571
0.23709
0.234683
0.0324998
0.265701
0.0808755
0.264865
0.215521
0.0867944
0.056331
0.156817
0.0934788
0.0987331
0.0792453
0.218324
0.0929895
0.270242
0.0479953
0.0869061
0.0778702
0.0471299
0.0889778
0.227909
0.283129
0.0447047
0.208486
0.12801
0.152176
0.11206
0.165549
0.253745
0.218198
0.0834767
0.247881
0.224301
0.280895
0.0484308
0.0552971
0.0815628
0.205627
0.274368
0.229764
0.114541
0.276185
0.12627
0.0190422
0.0543434
-0.0250978
0.125769
0.0337401
0.281074
0.283743
0.143952
0.293459
0.219922
0.128782
0.273198
0.0368036
0.262431
0.0866674
0.25821
0.0980668
0.0526913
0.202644
0.143359
0.265249
0.253627
0.2571
0.0624684
0.0602347
0.00518359
0.238974
0.217423
0.0718849
0.137585
0.219098
7.12533e-05
0.0779976
0.0616597
0.0767572
0.154334
0.0756231
0.133671
0.199126
0.131603
0.142658
0.199332
0.0922984
0.103771
0.152229
0.13331
0.0941749
0.241045
0.266087
0.071172
0.214793
-0.00340486
0.0746986
0.246712
0.210111
0.0710198
0.260939
0.038485
0.198715
0.111877
0.115517
0.245421
0.099777
0.207196
0.205686
0.182657
0.288229
0.18551
0.0314232
0.166889
0.120748
0.207225
0.284858
0.181497
0.127496
0.0753531
0.116799
0.246734
0.0492286
0.23124
0.0673944
0.159214
0.214752
0.200526
0.120626
0.243531
0.27612
0.101755
0.0931961
0.140293
0.0609991
0.0369792
0.13557
0.205171
0.0661422
0.0277303
0.0740913
0.0235511
0.194959
0.124847
0.209518
0.0849239
0.258028
0.133723
0.235032
0.280601
0.0692067
0.252285
0.104716
0.140278
0.137896
0.24101
0.0805231
0.108443
0.141266
0.0537282
0.0948828
0.0540773
0.0339955
-0.00365898
0.276969
0.28689
0.0669734
0.0830157
0.204047
0.0143545
0.0707007
0.0890967
0.188211
0.198037
0.011175
-0.00409416
0.253832
0.0855449
0.159406
0.0834663
0.0266469
0.0536619
0.15105
0.234858
0.160772
0.0219572
0.259519
0.233841
0.0647111
0.155149
0.0858338
0.280407
0.0949127
0.115257
0.0370855
0.174864
0.265506
0.160699
0.148291
0.0739191
0.125305
0.164576
0.274005
0.292423
0.0802207
0.277712
0.0792067
0.141986
0.145335
0.104988
0.0876038
0.240758
0.1022
0.149005
0.0634343
0.044145
0.111845
0.0555928
0.185939
0.258813
0.0614872
0.0779
0.140953
0.0887471
0.0805618
-0.0119824
0.0953169
0.240685
0.0225688
0.0622948
0.201027
0.138381
0.117165
0.172611
0.229041
0.0588007
0.0662186
0.229197
0.109681
0.0658092
0.130837
0.239664
0.175144
0.1414
0.0820042
0.0785429
0.0760736
0.274796
0.229438
0.284412
0.11389
0.184475
0.0455612
0.128656
0.23638
0.0190045
0.0271869
0.198911
0.231647
0.0192326
0.0876899
0.081929
0.059105
0.0808698
0.291498
0.118655
0.0855319
0.147583
0.0755296
0.202936
0.155374
0.0426834
0.0913842
0.215916
0.124397
0.276648
0.0324996
0.0793402
0.177902
0.1641
0.1022
0.158814
0.0549027
0.280098
0.257154
0.179613
0.243861
0.0635797
0.240481
0.168595
0.176059
0.267878
0.0143605
0.0896568
0.282722
0.170538
0.0102911
0.0597998
0.228116
0.280806
0.125154
0.205153
0.0802545
0.0332654
0.0644859
0.00124659
0.235482
0.0743951
0.125433
0.270086
0.0700944
0.062292
0.0747128
0.143962
0.0868262
0.0734546
0.0774118
0.0451545
0.123901
0.216273
0.266848
0.196307
0.0976421
0.0888106
0.00415958
0.0820875
0.167934
0.147308
0.187347
0.202503
0.0889288
0.112073
0.226518
0.233954
0.282496
0.246702
0.27027
0.124799
0.0362492
0.0633822
0.0463723
0.274526
0.1412
0.0779924
0.266666
0.0424832
0.221046
0.199336
0.0912176
0.0852364
0.0909646
0.0777821
0.232306
0.0908107
0.188319
0.123216
0.265205
0.152377
0.287737
0.061718
0.122354
0.0598943
-0.0087441
0.094247
0.213036
0.0600801
-0.0138826
0.139731
0.259418
0.208257
0.0742483
0.034204
0.0677791
0.0438955
0.0868895
0.04994
0.103868
0.0494752
0.200161
0.0666285
0.0860167
0.249023
0.129751
0.176303
0.225387
0.0915586
0.123098
0.0588459
0.215017
0.0801201
0.0970934
0.118904
0.0559154
0.0305631
0.0825312
0.0758688
0.208163
0.283922
0.239528
0.146455
0.193521
0.0230921
0.277363
0.158688
0.20556
0.0848196
0.197512
0.0644252
0.0957542
0.219682
0.264341
0.211281
0.145542
0.0971048
0.287042
0.105878
0.224091
0.272828
0.181553
0.107175
0.0192121
0.223555
0.155778
0.0492754
0.172485
0.150738
0.262763
0.0716514
0.270632
0.283351
0.103786
0.0635524
0.271997
0.0370245
0.0514453
0.0965541
0.0487254
0.0968989
0.0577187
0.0346045
0.121429
0.0875563
0.0654286
0.0845501
0.146967
0.054631
0.0678003
0.166937
0.126307
0.0359198
0.258496
0.284007
0.274519
0.0829422
0.0270487
0.289086
0.0300868
0.119342
0.075515
0.0853868
0.0835651
0.198694
0.0900406
0.0829065
0.0246643
0.0177606
0.0502038
0.0937167
0.021623
0.11822
0.139191
0.108964
0.265154
0.145257
0.183839
0.110721
0.23044
0.0699601
0.0916453
0.294264
0.0990334
0.149872
0.0344438
0.183016
0.285076
0.0807152
0.168711
0.154117
0.0521535
0.0786595
0.0677913
0.0506434
0.201785
0.0532674
0.11165
0.0831049
0.103989
0.069631
0.0688682
0.11896
0.0843118
0.0861176
0.28171
0.117919
0.109957
0.139895
0.26248
0.0946949
0.0195694
0.218659
0.0372622
0.101915
0.0829191
0.129463
0.0688007
0.103487
0.129937
0.281373
0.236821
0.0218728
0.0843952
0.0199996
0.0781432
0.00740847
0.0542775
0.100571
0.0613084
0.100312
0.168991
0.292795
0.0911995
0.196208
0.136081
0.274444
0.0886242
0.286207
0.160571
0.0449949
0.169183
0.203397
0.0814478
0.235555
0.0833575
0.242925
0.0762719
-0.0132799
0.114499
0.290984
0.282268
0.200271
0.174744
0.19371
0.0285943
0.0656093
0.194755
0.287137
0.00121345
0.128781
0.0842773
0.0708289
0.109925
0.067486
0.0426239
0.0748804
0.0536144
0.0865654
0.0810357
0.112983
0.287507
0.232357
0.00888087
0.216889
0.0619742
0.0680663
0.221896
0.0788625
0.100762
0.186155
0.0149079
0.0639726
0.124436
0.238495
0.0467237
0.0702021
0.0987905
0.165325
0.0454289
0.263919
0.021442
0.0909184
0.097228
0.0724043
0.176771
0.168165
0.264355
0.0793855
0.210745
0.136701
0.162916
0.0792971
0.177046
0.0583496
0.0374432
-0.00072918
0.158718
0.108732
0.0972906
0.249514
0.126505
0.150536
0.176314
0.0683968
0.0537813
0.092139
0.160174
0.0864034
0.291748
0.0366304
0.0210912
0.0943129
0.0834992
0.0854544
0.0808515
0.198754
0.0940574
0.115666
0.0487835
0.0858807
0.109605
0.0501196
0.287224
0.273822
0.0523765
0.0681852
0.23533
0.141787
0.0741691
0.0330907
0.0718633
0.0509562
0.136578
0.255822
0.0751265
0.0297239
0.167911
0.120403
0.0220614
0.0485862
0.120922
0.190949
0.290856
0.0424628
0.0152039
0.148378
0.235227
0.0906117
0.147834
0.0936185
0.0828008
0.0930729
0.164008
0.104157
0.0827373
0.214688
0.0962872
-0.00366666
0.134448
0.0845833
0.220735
0.28752
0.0892914
0.0886144
0.0861073
0.0900132
0.0434302
0.0921173
0.0528775
0.267634
0.225135
0.188612
0.0997383
0.030289
0.211533
0.277905
0.0677783
0.131271
0.0744257
-0.00265043
0.119785
0.0844411
-0.00737151
0.0775503
0.174778
0.0457533
0.0226233
0.0495047
0.222782
0.0394016
0.218616
0.123221
0.0751627
0.0792205
0.0648289
0.22037
0.00565339
0.0951116
0.10071
0.037451
0.147602
0.195121
0.148344
0.110072
0.20419
0.0478083
0.05105
0.25378
0.0794384
0.249874
0.150547
0.0863594
0.155202
0.239735
0.120369
0.0184565
0.263839
0.0751942
0.095409
0.24053
0.0690411
0.271763
0.0742615
0.0981614
0.0256677
0.102418
0.0520865
0.124566
0.0496202
-0.00085184
0.0468947
0.0449991
0.0014646
0.256339
0.0455238
0.0972081
0.151114
0.124822
0.279204
0.281653
0.0692283
0.128659
0.224465
0.0599434
0.256537
0.0102648
0.0836586
0.139072
0.0690291
0.226785
0.078248
0.0850485
0.092413
0.0748491
0.0810127
-0.00223237
0.242509
-0.0522034
0.267381
0.192432
0.0493689
0.0217615
0.0540906
0.292056
0.1982
0.171589
0.116832
0.150022
0.0997254
0.240921
0.212487
0.0664273
0.166126
0.271065
0.102642
0.128613
0.174995
0.0156489
0.0496115
0.22271
0.0944431
0.115617
0.272371
0.0420049
0.0121849
0.0792404
0.114344
0.0988017
0.280781
0.0710505
0.0316673
0.066458
0.113371
0.0723075
0.248838
0.126469
0.0596605
0.0699105
0.0678249
0.0695081
0.0941776
0.164696
0.137829
0.0613941
0.247515
0.0836107
0.227015
0.061962
0.0426837
0.103241
0.243867
0.277133
0.219608
0.11182
0.103849
0.219349
0.276753
0.0392181
0.257914
0.0497397
0.181252
0.16108
0.247243
0.113278
0.238035
0.26075
0.0873724
0.0889596
0.0981485
0.132378
0.053954
0.0589891
0.0583079
0.196715
0.227186
0.0366441
0.263193
0.117524
0.206065
0.112902
0.0536789
0.224929
0.212687
0.0810743
0.0934986
0.0515812
0.28256
0.197799
0.288359
0.0336924
0.0528348
0.102862
0.231337
0.170247
0.24785
0.146604
0.278233
0.0741933
0.107957
0.128221
0.0804111
0.148928
0.0399996
0.219139
0.119747
0.137476
0.258722
0.02797
0.0385581
0.0113178
0.162551
0.244142
0.0915801
0.177465
0.0456967
0.0295267
0.117201
0.0829248
0.0756567
0.244514
0.137875
0.0652633
0.104273
0.159611
0.266371
0.16438
0.0902987
0.242384
0.135618
0.271355
0.119071
0.186002
0.0880948
0.0338514
0.289195
0.0581177
0.153647
0.143036
0.255209
0.182891
0.108493
0.0876415