/*--------------------------------*- C++ -*----------------------------------*\
  =========                 |
  \\      /  F ield         | OpenFOAM: The Open Source CFD Toolbox
   \\    /   O peration     | Website:  https://openfoam.org
    \\  /    A nd           | Version:  6
     \\/     M anipulation  |
\*---------------------------------------------------------------------------*/
FoamFile
{
    version     2.0;
    format      ascii;
    class       volScalarField;
    location    "0";
    object      p;
}
// * * * * * * * * * * * * * * * * * * * * * * * * * * * * * * * * * * * * * //

dimensions      [0 2 -2 0 0 0 0];

internalField   nonuniform List<scalar> 
145945
(
3.80056e-06
3.79948e-06
3.79854e-06
3.7976e-06
3.79687e-06
3.79629e-06
3.79588e-06
3.79562e-06
3.79551e-06
3.79555e-06
3.79575e-06
3.7961e-06
3.79661e-06
3.79728e-06
3.79816e-06
3.79914e-06
3.80031e-06
3.79948e-06
3.79861e-06
3.79772e-06
3.79684e-06
3.79613e-06
3.79557e-06
3.79517e-06
3.79491e-06
3.79481e-06
3.79485e-06
3.79504e-06
3.79538e-06
3.79587e-06
3.79651e-06
3.79735e-06
3.79828e-06
3.79922e-06
3.79854e-06
3.79772e-06
3.79685e-06
3.79602e-06
3.79533e-06
3.7948e-06
3.79442e-06
3.79418e-06
3.79408e-06
3.79411e-06
3.7943e-06
3.79462e-06
3.79508e-06
3.7957e-06
3.79648e-06
3.7974e-06
3.79828e-06
3.7976e-06
3.79684e-06
3.79602e-06
3.79523e-06
3.79458e-06
3.79407e-06
3.79371e-06
3.79348e-06
3.79338e-06
3.79341e-06
3.79358e-06
3.79389e-06
3.79433e-06
3.79492e-06
3.79565e-06
3.79653e-06
3.79734e-06
3.79687e-06
3.79613e-06
3.79534e-06
3.79458e-06
3.79395e-06
3.79347e-06
3.79312e-06
3.7929e-06
3.7928e-06
3.79283e-06
3.79299e-06
3.79328e-06
3.7937e-06
3.79427e-06
3.79497e-06
3.79581e-06
3.79661e-06
3.79629e-06
3.79557e-06
3.7948e-06
3.79407e-06
3.79347e-06
3.793e-06
3.79266e-06
3.79244e-06
3.79235e-06
3.79238e-06
3.79254e-06
3.79282e-06
3.79322e-06
3.79376e-06
3.79444e-06
3.79526e-06
3.79603e-06
3.79588e-06
3.79517e-06
3.79442e-06
3.79371e-06
3.79312e-06
3.79266e-06
3.79233e-06
3.79212e-06
3.79203e-06
3.79206e-06
3.79221e-06
3.79248e-06
3.79287e-06
3.7934e-06
3.79407e-06
3.79486e-06
3.79561e-06
3.79562e-06
3.79491e-06
3.79418e-06
3.79348e-06
3.7929e-06
3.79244e-06
3.79212e-06
3.79191e-06
3.79182e-06
3.79185e-06
3.792e-06
3.79227e-06
3.79265e-06
3.79317e-06
3.79383e-06
3.7946e-06
3.79535e-06
3.79551e-06
3.79481e-06
3.79408e-06
3.79338e-06
3.7928e-06
3.79235e-06
3.79203e-06
3.79182e-06
3.79173e-06
3.79176e-06
3.79191e-06
3.79217e-06
3.79256e-06
3.79307e-06
3.79372e-06
3.7945e-06
3.79524e-06
3.79555e-06
3.79485e-06
3.79412e-06
3.79341e-06
3.79283e-06
3.79238e-06
3.79206e-06
3.79185e-06
3.79176e-06
3.79179e-06
3.79194e-06
3.7922e-06
3.79259e-06
3.79311e-06
3.79376e-06
3.79454e-06
3.79529e-06
3.79575e-06
3.79504e-06
3.7943e-06
3.79358e-06
3.79299e-06
3.79254e-06
3.79221e-06
3.792e-06
3.79191e-06
3.79194e-06
3.79209e-06
3.79236e-06
3.79275e-06
3.79328e-06
3.79394e-06
3.79473e-06
3.79549e-06
3.7961e-06
3.79538e-06
3.79461e-06
3.79389e-06
3.79328e-06
3.79282e-06
3.79248e-06
3.79226e-06
3.79217e-06
3.7922e-06
3.79236e-06
3.79263e-06
3.79304e-06
3.79358e-06
3.79426e-06
3.79506e-06
3.79584e-06
3.79661e-06
3.79587e-06
3.79508e-06
3.79433e-06
3.7937e-06
3.79322e-06
3.79287e-06
3.79265e-06
3.79256e-06
3.79259e-06
3.79275e-06
3.79304e-06
3.79346e-06
3.79402e-06
3.79472e-06
3.79555e-06
3.79635e-06
3.79727e-06
3.79651e-06
3.7957e-06
3.79492e-06
3.79427e-06
3.79376e-06
3.7934e-06
3.79317e-06
3.79307e-06
3.79311e-06
3.79328e-06
3.79358e-06
3.79402e-06
3.7946e-06
3.79533e-06
3.7962e-06
3.79701e-06
3.79816e-06
3.79734e-06
3.79648e-06
3.79565e-06
3.79497e-06
3.79444e-06
3.79406e-06
3.79382e-06
3.79372e-06
3.79376e-06
3.79394e-06
3.79426e-06
3.79472e-06
3.79533e-06
3.79611e-06
3.79702e-06
3.7979e-06
3.79914e-06
3.79828e-06
3.7974e-06
3.79653e-06
3.79581e-06
3.79525e-06
3.79486e-06
3.7946e-06
3.7945e-06
3.79454e-06
3.79473e-06
3.79506e-06
3.79555e-06
3.7962e-06
3.79703e-06
3.79796e-06
3.79888e-06
3.8003e-06
3.79922e-06
3.79828e-06
3.79734e-06
3.7966e-06
3.79603e-06
3.79561e-06
3.79535e-06
3.79524e-06
3.79529e-06
3.79549e-06
3.79584e-06
3.79635e-06
3.79701e-06
3.7979e-06
3.79888e-06
3.80005e-06
3.75409e-06
3.75331e-06
3.75257e-06
3.75182e-06
3.75122e-06
3.75076e-06
3.75042e-06
3.75021e-06
3.75012e-06
3.75015e-06
3.75031e-06
3.75058e-06
3.75098e-06
3.75151e-06
3.7522e-06
3.75296e-06
3.7538e-06
3.75331e-06
3.75268e-06
3.752e-06
3.7513e-06
3.75072e-06
3.75027e-06
3.74995e-06
3.74974e-06
3.74965e-06
3.74968e-06
3.74983e-06
3.7501e-06
3.75048e-06
3.75098e-06
3.75162e-06
3.75234e-06
3.75302e-06
3.75257e-06
3.752e-06
3.75134e-06
3.75068e-06
3.75013e-06
3.74971e-06
3.7494e-06
3.74921e-06
3.74912e-06
3.74915e-06
3.74929e-06
3.74954e-06
3.7499e-06
3.75037e-06
3.75097e-06
3.75166e-06
3.75228e-06
3.75182e-06
3.7513e-06
3.75068e-06
3.75006e-06
3.74954e-06
3.74914e-06
3.74885e-06
3.74866e-06
3.74857e-06
3.7486e-06
3.74873e-06
3.74896e-06
3.7493e-06
3.74975e-06
3.75032e-06
3.75097e-06
3.75154e-06
3.75122e-06
3.75072e-06
3.75014e-06
3.74954e-06
3.74904e-06
3.74865e-06
3.74837e-06
3.74819e-06
3.74811e-06
3.74814e-06
3.74826e-06
3.74848e-06
3.74881e-06
3.74924e-06
3.74977e-06
3.75039e-06
3.75093e-06
3.75076e-06
3.75027e-06
3.74971e-06
3.74914e-06
3.74865e-06
3.74828e-06
3.74801e-06
3.74783e-06
3.74776e-06
3.74778e-06
3.7479e-06
3.74811e-06
3.74842e-06
3.74883e-06
3.74935e-06
3.74995e-06
3.75047e-06
3.75043e-06
3.74995e-06
3.74941e-06
3.74885e-06
3.74837e-06
3.74801e-06
3.74774e-06
3.74757e-06
3.7475e-06
3.74752e-06
3.74763e-06
3.74784e-06
3.74814e-06
3.74854e-06
3.74905e-06
3.74963e-06
3.75013e-06
3.75021e-06
3.74975e-06
3.74921e-06
3.74866e-06
3.74819e-06
3.74783e-06
3.74757e-06
3.74741e-06
3.74733e-06
3.74735e-06
3.74746e-06
3.74767e-06
3.74796e-06
3.74836e-06
3.74885e-06
3.74942e-06
3.74992e-06
3.75012e-06
3.74966e-06
3.74912e-06
3.74858e-06
3.74811e-06
3.74776e-06
3.7475e-06
3.74733e-06
3.74725e-06
3.74727e-06
3.74738e-06
3.74759e-06
3.74788e-06
3.74827e-06
3.74877e-06
3.74933e-06
3.74983e-06
3.75015e-06
3.74968e-06
3.74915e-06
3.7486e-06
3.74814e-06
3.74778e-06
3.74752e-06
3.74735e-06
3.74727e-06
3.74729e-06
3.7474e-06
3.74761e-06
3.7479e-06
3.7483e-06
3.74879e-06
3.74936e-06
3.74986e-06
3.75031e-06
3.74983e-06
3.74929e-06
3.74873e-06
3.74826e-06
3.7479e-06
3.74763e-06
3.74746e-06
3.74738e-06
3.7474e-06
3.74752e-06
3.74773e-06
3.74803e-06
3.74843e-06
3.74893e-06
3.74951e-06
3.75001e-06
3.75058e-06
3.7501e-06
3.74954e-06
3.74896e-06
3.74848e-06
3.74811e-06
3.74784e-06
3.74767e-06
3.74759e-06
3.74761e-06
3.74773e-06
3.74794e-06
3.74825e-06
3.74866e-06
3.74918e-06
3.74977e-06
3.75029e-06
3.75098e-06
3.75048e-06
3.7499e-06
3.7493e-06
3.74881e-06
3.74842e-06
3.74814e-06
3.74796e-06
3.74788e-06
3.7479e-06
3.74803e-06
3.74825e-06
3.74857e-06
3.749e-06
3.74953e-06
3.75015e-06
3.75069e-06
3.75151e-06
3.75098e-06
3.75037e-06
3.74975e-06
3.74923e-06
3.74883e-06
3.74854e-06
3.74836e-06
3.74827e-06
3.7483e-06
3.74843e-06
3.74866e-06
3.749e-06
3.74945e-06
3.75001e-06
3.75065e-06
3.75122e-06
3.7522e-06
3.75162e-06
3.75097e-06
3.75032e-06
3.74977e-06
3.74935e-06
3.74905e-06
3.74885e-06
3.74877e-06
3.74879e-06
3.74893e-06
3.74918e-06
3.74953e-06
3.75001e-06
3.7506e-06
3.75129e-06
3.75191e-06
3.75296e-06
3.75234e-06
3.75166e-06
3.75097e-06
3.75039e-06
3.74995e-06
3.74962e-06
3.74942e-06
3.74933e-06
3.74936e-06
3.74951e-06
3.74977e-06
3.75015e-06
3.75065e-06
3.75129e-06
3.75201e-06
3.75268e-06
3.7538e-06
3.75302e-06
3.75228e-06
3.75153e-06
3.75093e-06
3.75047e-06
3.75013e-06
3.74992e-06
3.74983e-06
3.74986e-06
3.75001e-06
3.75029e-06
3.75069e-06
3.75122e-06
3.75191e-06
3.75268e-06
3.75351e-06
3.7192e-06
3.71885e-06
3.71853e-06
3.71819e-06
3.71791e-06
3.71768e-06
3.7175e-06
3.71739e-06
3.71733e-06
3.71735e-06
3.71743e-06
3.71757e-06
3.71777e-06
3.71802e-06
3.71832e-06
3.71864e-06
3.719e-06
3.71885e-06
3.71854e-06
3.71821e-06
3.71788e-06
3.7176e-06
3.71736e-06
3.71718e-06
3.71706e-06
3.71701e-06
3.71703e-06
3.71711e-06
3.71725e-06
3.71745e-06
3.7177e-06
3.718e-06
3.71832e-06
3.71865e-06
3.71853e-06
3.71821e-06
3.71787e-06
3.71753e-06
3.71725e-06
3.71701e-06
3.71683e-06
3.71671e-06
3.71666e-06
3.71667e-06
3.71675e-06
3.7169e-06
3.7171e-06
3.71735e-06
3.71766e-06
3.718e-06
3.71833e-06
3.71819e-06
3.71788e-06
3.71753e-06
3.71719e-06
3.7169e-06
3.71667e-06
3.71649e-06
3.71637e-06
3.71632e-06
3.71633e-06
3.71641e-06
3.71655e-06
3.71675e-06
3.71701e-06
3.71731e-06
3.71766e-06
3.71799e-06
3.71791e-06
3.7176e-06
3.71725e-06
3.7169e-06
3.71661e-06
3.71637e-06
3.7162e-06
3.71608e-06
3.71603e-06
3.71604e-06
3.71612e-06
3.71626e-06
3.71646e-06
3.71672e-06
3.71702e-06
3.71738e-06
3.71771e-06
3.71768e-06
3.71736e-06
3.71701e-06
3.71667e-06
3.71637e-06
3.71614e-06
3.71596e-06
3.71584e-06
3.71579e-06
3.7158e-06
3.71588e-06
3.71602e-06
3.71622e-06
3.71648e-06
3.71678e-06
3.71714e-06
3.71748e-06
3.7175e-06
3.71718e-06
3.71683e-06
3.71649e-06
3.7162e-06
3.71596e-06
3.71578e-06
3.71567e-06
3.71562e-06
3.71563e-06
3.7157e-06
3.71584e-06
3.71604e-06
3.7163e-06
3.71661e-06
3.71697e-06
3.7173e-06
3.71739e-06
3.71706e-06
3.71672e-06
3.71637e-06
3.71608e-06
3.71584e-06
3.71567e-06
3.71555e-06
3.7155e-06
3.71551e-06
3.71559e-06
3.71573e-06
3.71593e-06
3.71618e-06
3.71649e-06
3.71685e-06
3.71718e-06
3.71733e-06
3.71701e-06
3.71666e-06
3.71632e-06
3.71603e-06
3.71579e-06
3.71562e-06
3.7155e-06
3.71545e-06
3.71546e-06
3.71554e-06
3.71567e-06
3.71587e-06
3.71613e-06
3.71644e-06
3.71679e-06
3.71713e-06
3.71735e-06
3.71703e-06
3.71668e-06
3.71633e-06
3.71604e-06
3.7158e-06
3.71563e-06
3.71551e-06
3.71546e-06
3.71547e-06
3.71555e-06
3.71569e-06
3.71588e-06
3.71614e-06
3.71645e-06
3.71681e-06
3.71714e-06
3.71743e-06
3.71711e-06
3.71675e-06
3.71641e-06
3.71612e-06
3.71588e-06
3.7157e-06
3.71559e-06
3.71554e-06
3.71555e-06
3.71563e-06
3.71577e-06
3.71596e-06
3.71622e-06
3.71653e-06
3.71689e-06
3.71723e-06
3.71757e-06
3.71725e-06
3.7169e-06
3.71655e-06
3.71626e-06
3.71602e-06
3.71584e-06
3.71573e-06
3.71567e-06
3.71569e-06
3.71577e-06
3.71591e-06
3.7161e-06
3.71636e-06
3.71667e-06
3.71703e-06
3.71737e-06
3.71777e-06
3.71745e-06
3.7171e-06
3.71675e-06
3.71646e-06
3.71622e-06
3.71604e-06
3.71593e-06
3.71587e-06
3.71588e-06
3.71596e-06
3.7161e-06
3.7163e-06
3.71656e-06
3.71687e-06
3.71723e-06
3.71757e-06
3.71802e-06
3.7177e-06
3.71735e-06
3.71701e-06
3.71672e-06
3.71648e-06
3.7163e-06
3.71618e-06
3.71613e-06
3.71614e-06
3.71622e-06
3.71636e-06
3.71656e-06
3.71682e-06
3.71713e-06
3.71748e-06
3.71782e-06
3.71832e-06
3.718e-06
3.71766e-06
3.71731e-06
3.71702e-06
3.71678e-06
3.71661e-06
3.71649e-06
3.71644e-06
3.71645e-06
3.71653e-06
3.71667e-06
3.71687e-06
3.71713e-06
3.71744e-06
3.71778e-06
3.71812e-06
3.71864e-06
3.71832e-06
3.718e-06
3.71766e-06
3.71738e-06
3.71714e-06
3.71697e-06
3.71685e-06
3.71679e-06
3.71681e-06
3.71689e-06
3.71703e-06
3.71723e-06
3.71748e-06
3.71778e-06
3.71811e-06
3.71844e-06
3.719e-06
3.71865e-06
3.71833e-06
3.71799e-06
3.71771e-06
3.71748e-06
3.7173e-06
3.71718e-06
3.71713e-06
3.71715e-06
3.71723e-06
3.71737e-06
3.71757e-06
3.71782e-06
3.71812e-06
3.71844e-06
3.7188e-06
3.67834e-06
3.67817e-06
3.67805e-06
3.67793e-06
3.67782e-06
3.67772e-06
3.67763e-06
3.67758e-06
3.67755e-06
3.67756e-06
3.67759e-06
3.67765e-06
3.67773e-06
3.67783e-06
3.67794e-06
3.67804e-06
3.67818e-06
3.67817e-06
3.67801e-06
3.67788e-06
3.67775e-06
3.67763e-06
3.67752e-06
3.67743e-06
3.67737e-06
3.67734e-06
3.67735e-06
3.67738e-06
3.67745e-06
3.67754e-06
3.67765e-06
3.67776e-06
3.67788e-06
3.67802e-06
3.67805e-06
3.67788e-06
3.67774e-06
3.67759e-06
3.67746e-06
3.67734e-06
3.67724e-06
3.67718e-06
3.67715e-06
3.67716e-06
3.6772e-06
3.67726e-06
3.67736e-06
3.67748e-06
3.67761e-06
3.67775e-06
3.6779e-06
3.67793e-06
3.67775e-06
3.67759e-06
3.67743e-06
3.67728e-06
3.67716e-06
3.67706e-06
3.677e-06
3.67696e-06
3.67697e-06
3.67701e-06
3.67708e-06
3.67719e-06
3.67732e-06
3.67746e-06
3.67762e-06
3.67778e-06
3.67782e-06
3.67763e-06
3.67746e-06
3.67728e-06
3.67713e-06
3.677e-06
3.67689e-06
3.67683e-06
3.6768e-06
3.6768e-06
3.67684e-06
3.67692e-06
3.67703e-06
3.67717e-06
3.67733e-06
3.6775e-06
3.67767e-06
3.67772e-06
3.67752e-06
3.67734e-06
3.67716e-06
3.677e-06
3.67686e-06
3.67675e-06
3.67668e-06
3.67665e-06
3.67666e-06
3.6767e-06
3.67678e-06
3.6769e-06
3.67704e-06
3.67721e-06
3.67739e-06
3.67757e-06
3.67764e-06
3.67743e-06
3.67724e-06
3.67706e-06
3.6769e-06
3.67675e-06
3.67665e-06
3.67658e-06
3.67654e-06
3.67655e-06
3.67659e-06
3.67668e-06
3.67679e-06
3.67694e-06
3.67712e-06
3.6773e-06
3.67749e-06
3.67758e-06
3.67737e-06
3.67718e-06
3.677e-06
3.67683e-06
3.67668e-06
3.67658e-06
3.6765e-06
3.67647e-06
3.67648e-06
3.67652e-06
3.67661e-06
3.67673e-06
3.67688e-06
3.67705e-06
3.67724e-06
3.67743e-06
3.67755e-06
3.67734e-06
3.67715e-06
3.67697e-06
3.6768e-06
3.67665e-06
3.67654e-06
3.67647e-06
3.67644e-06
3.67644e-06
3.67649e-06
3.67657e-06
3.67669e-06
3.67685e-06
3.67702e-06
3.67721e-06
3.67741e-06
3.67756e-06
3.67735e-06
3.67716e-06
3.67697e-06
3.6768e-06
3.67666e-06
3.67655e-06
3.67648e-06
3.67645e-06
3.67645e-06
3.6765e-06
3.67658e-06
3.6767e-06
3.67685e-06
3.67703e-06
3.67722e-06
3.67741e-06
3.67759e-06
3.67738e-06
3.6772e-06
3.67701e-06
3.67684e-06
3.6767e-06
3.6766e-06
3.67652e-06
3.67649e-06
3.6765e-06
3.67654e-06
3.67663e-06
3.67674e-06
3.67689e-06
3.67707e-06
3.67725e-06
3.67744e-06
3.67765e-06
3.67745e-06
3.67726e-06
3.67708e-06
3.67692e-06
3.67678e-06
3.67668e-06
3.67661e-06
3.67657e-06
3.67658e-06
3.67663e-06
3.67671e-06
3.67682e-06
3.67697e-06
3.67714e-06
3.67732e-06
3.6775e-06
3.67773e-06
3.67754e-06
3.67736e-06
3.67719e-06
3.67703e-06
3.6769e-06
3.67679e-06
3.67673e-06
3.67669e-06
3.6767e-06
3.67674e-06
3.67682e-06
3.67693e-06
3.67708e-06
3.67724e-06
3.67741e-06
3.67758e-06
3.67783e-06
3.67765e-06
3.67748e-06
3.67732e-06
3.67717e-06
3.67704e-06
3.67694e-06
3.67688e-06
3.67685e-06
3.67685e-06
3.67689e-06
3.67697e-06
3.67708e-06
3.67721e-06
3.67736e-06
3.67751e-06
3.67768e-06
3.67794e-06
3.67776e-06
3.67762e-06
3.67747e-06
3.67733e-06
3.67721e-06
3.67712e-06
3.67705e-06
3.67702e-06
3.67703e-06
3.67707e-06
3.67714e-06
3.67724e-06
3.67736e-06
3.67749e-06
3.67763e-06
3.67779e-06
3.67804e-06
3.67788e-06
3.67775e-06
3.67762e-06
3.6775e-06
3.67739e-06
3.6773e-06
3.67724e-06
3.67721e-06
3.67722e-06
3.67725e-06
3.67732e-06
3.67741e-06
3.67751e-06
3.67763e-06
3.67775e-06
3.67789e-06
3.67818e-06
3.67802e-06
3.6779e-06
3.67778e-06
3.67767e-06
3.67757e-06
3.67749e-06
3.67743e-06
3.67741e-06
3.67741e-06
3.67744e-06
3.6775e-06
3.67758e-06
3.67768e-06
3.67779e-06
3.67789e-06
3.67803e-06
3.63983e-06
3.63977e-06
3.63973e-06
3.63969e-06
3.63967e-06
3.63963e-06
3.6396e-06
3.63957e-06
3.63956e-06
3.63956e-06
3.63957e-06
3.63959e-06
3.63961e-06
3.63963e-06
3.63965e-06
3.63966e-06
3.6397e-06
3.63977e-06
3.63971e-06
3.63966e-06
3.63962e-06
3.63958e-06
3.63954e-06
3.63951e-06
3.63948e-06
3.63947e-06
3.63946e-06
3.63947e-06
3.63949e-06
3.63952e-06
3.63955e-06
3.63957e-06
3.6396e-06
3.63964e-06
3.63973e-06
3.63966e-06
3.6396e-06
3.63954e-06
3.63949e-06
3.63945e-06
3.63941e-06
3.63938e-06
3.63936e-06
3.63936e-06
3.63937e-06
3.6394e-06
3.63943e-06
3.63947e-06
3.63951e-06
3.63955e-06
3.6396e-06
3.63969e-06
3.63962e-06
3.63954e-06
3.63947e-06
3.63941e-06
3.63935e-06
3.63931e-06
3.63927e-06
3.63926e-06
3.63926e-06
3.63927e-06
3.6393e-06
3.63934e-06
3.63939e-06
3.63945e-06
3.6395e-06
3.63957e-06
3.63967e-06
3.63958e-06
3.63949e-06
3.63941e-06
3.63934e-06
3.63927e-06
3.63922e-06
3.63918e-06
3.63916e-06
3.63916e-06
3.63918e-06
3.63922e-06
3.63927e-06
3.63933e-06
3.63939e-06
3.63946e-06
3.63954e-06
3.63963e-06
3.63954e-06
3.63945e-06
3.63935e-06
3.63927e-06
3.6392e-06
3.63914e-06
3.6391e-06
3.63908e-06
3.63909e-06
3.63911e-06
3.63914e-06
3.6392e-06
3.63927e-06
3.63934e-06
3.63942e-06
3.6395e-06
3.6396e-06
3.63951e-06
3.63941e-06
3.63931e-06
3.63922e-06
3.63914e-06
3.63908e-06
3.63904e-06
3.63902e-06
3.63902e-06
3.63905e-06
3.63909e-06
3.63915e-06
3.63922e-06
3.6393e-06
3.63939e-06
3.63947e-06
3.63958e-06
3.63948e-06
3.63938e-06
3.63927e-06
3.63918e-06
3.6391e-06
3.63904e-06
3.639e-06
3.63898e-06
3.63898e-06
3.63901e-06
3.63905e-06
3.63911e-06
3.63918e-06
3.63927e-06
3.63936e-06
3.63945e-06
3.63956e-06
3.63947e-06
3.63936e-06
3.63926e-06
3.63916e-06
3.63908e-06
3.63902e-06
3.63898e-06
3.63896e-06
3.63896e-06
3.63898e-06
3.63903e-06
3.63909e-06
3.63917e-06
3.63925e-06
3.63935e-06
3.63944e-06
3.63956e-06
3.63946e-06
3.63936e-06
3.63926e-06
3.63916e-06
3.63909e-06
3.63902e-06
3.63898e-06
3.63896e-06
3.63896e-06
3.63899e-06
3.63903e-06
3.63909e-06
3.63917e-06
3.63925e-06
3.63935e-06
3.63943e-06
3.63957e-06
3.63947e-06
3.63937e-06
3.63927e-06
3.63918e-06
3.63911e-06
3.63905e-06
3.63901e-06
3.63898e-06
3.63899e-06
3.63901e-06
3.63905e-06
3.63911e-06
3.63918e-06
3.63927e-06
3.63936e-06
3.63944e-06
3.63959e-06
3.63949e-06
3.6394e-06
3.6393e-06
3.63922e-06
3.63915e-06
3.63909e-06
3.63905e-06
3.63903e-06
3.63903e-06
3.63905e-06
3.63909e-06
3.63915e-06
3.63921e-06
3.63929e-06
3.63938e-06
3.63946e-06
3.63961e-06
3.63952e-06
3.63943e-06
3.63934e-06
3.63927e-06
3.6392e-06
3.63915e-06
3.63911e-06
3.63909e-06
3.63909e-06
3.63911e-06
3.63915e-06
3.6392e-06
3.63926e-06
3.63933e-06
3.6394e-06
3.63948e-06
3.63963e-06
3.63955e-06
3.63947e-06
3.63939e-06
3.63933e-06
3.63927e-06
3.63922e-06
3.63918e-06
3.63917e-06
3.63917e-06
3.63918e-06
3.63921e-06
3.63926e-06
3.63931e-06
3.63937e-06
3.63943e-06
3.6395e-06
3.63965e-06
3.63957e-06
3.63951e-06
3.63945e-06
3.63939e-06
3.63934e-06
3.6393e-06
3.63927e-06
3.63925e-06
3.63925e-06
3.63927e-06
3.63929e-06
3.63933e-06
3.63937e-06
3.63941e-06
3.63946e-06
3.63952e-06
3.63966e-06
3.6396e-06
3.63955e-06
3.6395e-06
3.63946e-06
3.63942e-06
3.63939e-06
3.63936e-06
3.63935e-06
3.63935e-06
3.63936e-06
3.63938e-06
3.6394e-06
3.63943e-06
3.63946e-06
3.63949e-06
3.63953e-06
3.6397e-06
3.63964e-06
3.6396e-06
3.63957e-06
3.63954e-06
3.6395e-06
3.63947e-06
3.63945e-06
3.63944e-06
3.63943e-06
3.63944e-06
3.63946e-06
3.63948e-06
3.6395e-06
3.63952e-06
3.63953e-06
3.63957e-06
3.60109e-06
3.60109e-06
3.60111e-06
3.60113e-06
3.60116e-06
3.60117e-06
3.60118e-06
3.60118e-06
3.60117e-06
3.60117e-06
3.60116e-06
3.60115e-06
3.60113e-06
3.6011e-06
3.60106e-06
3.60102e-06
3.60099e-06
3.60109e-06
3.60108e-06
3.6011e-06
3.60111e-06
3.60113e-06
3.60114e-06
3.60114e-06
3.60114e-06
3.60114e-06
3.60113e-06
3.60112e-06
3.60112e-06
3.6011e-06
3.60108e-06
3.60104e-06
3.60101e-06
3.60099e-06
3.60111e-06
3.6011e-06
3.6011e-06
3.60111e-06
3.60111e-06
3.60111e-06
3.60111e-06
3.6011e-06
3.6011e-06
3.60109e-06
3.60109e-06
3.60109e-06
3.60108e-06
3.60106e-06
3.60104e-06
3.60102e-06
3.60101e-06
3.60113e-06
3.60111e-06
3.60111e-06
3.6011e-06
3.6011e-06
3.60109e-06
3.60108e-06
3.60107e-06
3.60106e-06
3.60106e-06
3.60106e-06
3.60106e-06
3.60106e-06
3.60106e-06
3.60105e-06
3.60104e-06
3.60104e-06
3.60116e-06
3.60113e-06
3.60111e-06
3.6011e-06
3.60108e-06
3.60107e-06
3.60105e-06
3.60104e-06
3.60103e-06
3.60102e-06
3.60103e-06
3.60103e-06
3.60104e-06
3.60105e-06
3.60105e-06
3.60106e-06
3.60107e-06
3.60117e-06
3.60114e-06
3.60111e-06
3.60109e-06
3.60107e-06
3.60104e-06
3.60102e-06
3.60101e-06
3.601e-06
3.60099e-06
3.601e-06
3.60101e-06
3.60102e-06
3.60104e-06
3.60105e-06
3.60106e-06
3.60108e-06
3.60118e-06
3.60114e-06
3.60111e-06
3.60108e-06
3.60105e-06
3.60102e-06
3.601e-06
3.60098e-06
3.60097e-06
3.60097e-06
3.60097e-06
3.60099e-06
3.601e-06
3.60102e-06
3.60104e-06
3.60107e-06
3.60109e-06
3.60118e-06
3.60114e-06
3.6011e-06
3.60107e-06
3.60104e-06
3.60101e-06
3.60098e-06
3.60096e-06
3.60095e-06
3.60095e-06
3.60096e-06
3.60097e-06
3.60099e-06
3.60101e-06
3.60104e-06
3.60106e-06
3.60109e-06
3.60117e-06
3.60114e-06
3.6011e-06
3.60106e-06
3.60103e-06
3.601e-06
3.60097e-06
3.60095e-06
3.60094e-06
3.60094e-06
3.60094e-06
3.60096e-06
3.60098e-06
3.60101e-06
3.60103e-06
3.60106e-06
3.60108e-06
3.60117e-06
3.60113e-06
3.60109e-06
3.60106e-06
3.60102e-06
3.60099e-06
3.60097e-06
3.60095e-06
3.60094e-06
3.60094e-06
3.60094e-06
3.60096e-06
3.60098e-06
3.601e-06
3.60103e-06
3.60105e-06
3.60108e-06
3.60116e-06
3.60112e-06
3.60109e-06
3.60106e-06
3.60103e-06
3.601e-06
3.60097e-06
3.60096e-06
3.60094e-06
3.60094e-06
3.60095e-06
3.60096e-06
3.60098e-06
3.601e-06
3.60102e-06
3.60105e-06
3.60107e-06
3.60115e-06
3.60112e-06
3.60109e-06
3.60106e-06
3.60103e-06
3.60101e-06
3.60099e-06
3.60097e-06
3.60096e-06
3.60096e-06
3.60096e-06
3.60097e-06
3.60099e-06
3.60101e-06
3.60102e-06
3.60104e-06
3.60106e-06
3.60113e-06
3.6011e-06
3.60108e-06
3.60106e-06
3.60104e-06
3.60102e-06
3.601e-06
3.60099e-06
3.60098e-06
3.60098e-06
3.60098e-06
3.60099e-06
3.601e-06
3.60101e-06
3.60102e-06
3.60102e-06
3.60104e-06
3.6011e-06
3.60108e-06
3.60107e-06
3.60106e-06
3.60105e-06
3.60104e-06
3.60103e-06
3.60101e-06
3.60101e-06
3.601e-06
3.601e-06
3.60101e-06
3.60101e-06
3.60101e-06
3.60101e-06
3.601e-06
3.60101e-06
3.60106e-06
3.60104e-06
3.60104e-06
3.60105e-06
3.60105e-06
3.60105e-06
3.60105e-06
3.60104e-06
3.60103e-06
3.60103e-06
3.60103e-06
3.60102e-06
3.60102e-06
3.60101e-06
3.60099e-06
3.60097e-06
3.60097e-06
3.60102e-06
3.60101e-06
3.60102e-06
3.60104e-06
3.60106e-06
3.60106e-06
3.60107e-06
3.60106e-06
3.60106e-06
3.60105e-06
3.60105e-06
3.60104e-06
3.60102e-06
3.601e-06
3.60097e-06
3.60094e-06
3.60092e-06
3.60099e-06
3.60099e-06
3.60102e-06
3.60104e-06
3.60107e-06
3.60108e-06
3.60109e-06
3.60109e-06
3.60108e-06
3.60108e-06
3.60107e-06
3.60106e-06
3.60104e-06
3.60101e-06
3.60097e-06
3.60092e-06
3.6009e-06
3.56277e-06
3.56279e-06
3.56282e-06
3.56286e-06
3.5629e-06
3.56293e-06
3.56294e-06
3.56295e-06
3.56295e-06
3.56295e-06
3.56293e-06
3.56291e-06
3.56288e-06
3.56284e-06
3.56279e-06
3.56274e-06
3.5627e-06
3.56279e-06
3.56281e-06
3.56284e-06
3.56287e-06
3.56291e-06
3.56293e-06
3.56294e-06
3.56295e-06
3.56295e-06
3.56294e-06
3.56293e-06
3.56291e-06
3.56289e-06
3.56285e-06
3.5628e-06
3.56275e-06
3.56272e-06
3.56282e-06
3.56284e-06
3.56286e-06
3.56289e-06
3.56292e-06
3.56293e-06
3.56294e-06
3.56295e-06
3.56295e-06
3.56294e-06
3.56293e-06
3.56291e-06
3.56289e-06
3.56286e-06
3.56282e-06
3.56278e-06
3.56275e-06
3.56286e-06
3.56287e-06
3.56289e-06
3.56291e-06
3.56293e-06
3.56294e-06
3.56294e-06
3.56294e-06
3.56294e-06
3.56294e-06
3.56293e-06
3.56292e-06
3.5629e-06
3.56288e-06
3.56285e-06
3.56281e-06
3.56279e-06
3.5629e-06
3.56291e-06
3.56292e-06
3.56293e-06
3.56294e-06
3.56294e-06
3.56294e-06
3.56294e-06
3.56294e-06
3.56293e-06
3.56293e-06
3.56292e-06
3.56291e-06
3.56289e-06
3.56287e-06
3.56285e-06
3.56283e-06
3.56293e-06
3.56293e-06
3.56293e-06
3.56294e-06
3.56294e-06
3.56294e-06
3.56294e-06
3.56294e-06
3.56293e-06
3.56293e-06
3.56292e-06
3.56292e-06
3.56291e-06
3.5629e-06
3.56289e-06
3.56287e-06
3.56286e-06
3.56294e-06
3.56294e-06
3.56294e-06
3.56294e-06
3.56294e-06
3.56294e-06
3.56294e-06
3.56293e-06
3.56293e-06
3.56292e-06
3.56292e-06
3.56292e-06
3.56291e-06
3.56291e-06
3.5629e-06
3.56288e-06
3.56287e-06
3.56295e-06
3.56295e-06
3.56295e-06
3.56294e-06
3.56294e-06
3.56294e-06
3.56293e-06
3.56292e-06
3.56292e-06
3.56291e-06
3.56291e-06
3.56291e-06
3.56291e-06
3.56291e-06
3.5629e-06
3.56289e-06
3.56288e-06
3.56295e-06
3.56295e-06
3.56295e-06
3.56294e-06
3.56294e-06
3.56293e-06
3.56293e-06
3.56292e-06
3.56291e-06
3.56291e-06
3.56291e-06
3.56291e-06
3.56291e-06
3.5629e-06
3.5629e-06
3.56289e-06
3.56288e-06
3.56295e-06
3.56294e-06
3.56294e-06
3.56294e-06
3.56293e-06
3.56293e-06
3.56292e-06
3.56291e-06
3.56291e-06
3.56291e-06
3.5629e-06
3.5629e-06
3.5629e-06
3.5629e-06
3.56289e-06
3.56288e-06
3.56287e-06
3.56293e-06
3.56293e-06
3.56293e-06
3.56293e-06
3.56293e-06
3.56292e-06
3.56292e-06
3.56291e-06
3.56291e-06
3.5629e-06
3.5629e-06
3.5629e-06
3.5629e-06
3.56289e-06
3.56288e-06
3.56287e-06
3.56286e-06
3.56291e-06
3.56291e-06
3.56291e-06
3.56292e-06
3.56292e-06
3.56292e-06
3.56292e-06
3.56291e-06
3.56291e-06
3.5629e-06
3.5629e-06
3.5629e-06
3.56289e-06
3.56288e-06
3.56287e-06
3.56285e-06
3.56284e-06
3.56288e-06
3.56289e-06
3.56289e-06
3.5629e-06
3.56291e-06
3.56291e-06
3.56291e-06
3.56291e-06
3.56291e-06
3.5629e-06
3.5629e-06
3.56289e-06
3.56288e-06
3.56287e-06
3.56285e-06
3.56283e-06
3.56281e-06
3.56284e-06
3.56285e-06
3.56286e-06
3.56288e-06
3.56289e-06
3.5629e-06
3.56291e-06
3.56291e-06
3.5629e-06
3.5629e-06
3.56289e-06
3.56288e-06
3.56287e-06
3.56285e-06
3.56282e-06
3.56279e-06
3.56277e-06
3.56279e-06
3.5628e-06
3.56282e-06
3.56285e-06
3.56287e-06
3.56289e-06
3.5629e-06
3.5629e-06
3.5629e-06
3.56289e-06
3.56288e-06
3.56287e-06
3.56285e-06
3.56282e-06
3.56278e-06
3.56274e-06
3.56272e-06
3.56274e-06
3.56275e-06
3.56278e-06
3.56281e-06
3.56285e-06
3.56287e-06
3.56288e-06
3.56289e-06
3.56289e-06
3.56288e-06
3.56287e-06
3.56285e-06
3.56283e-06
3.56279e-06
3.56274e-06
3.5627e-06
3.56267e-06
3.5627e-06
3.56272e-06
3.56275e-06
3.56279e-06
3.56283e-06
3.56286e-06
3.56287e-06
3.56288e-06
3.56288e-06
3.56287e-06
3.56286e-06
3.56284e-06
3.56281e-06
3.56277e-06
3.56272e-06
3.56267e-06
3.56263e-06
3.52461e-06
3.52464e-06
3.52467e-06
3.52471e-06
3.52475e-06
3.52478e-06
3.5248e-06
3.52481e-06
3.52481e-06
3.52481e-06
3.52479e-06
3.52477e-06
3.52474e-06
3.5247e-06
3.52465e-06
3.5246e-06
3.52456e-06
3.52464e-06
3.52466e-06
3.5247e-06
3.52473e-06
3.52477e-06
3.5248e-06
3.52481e-06
3.52482e-06
3.52482e-06
3.52482e-06
3.52481e-06
3.52478e-06
3.52476e-06
3.52472e-06
3.52467e-06
3.52462e-06
3.52458e-06
3.52467e-06
3.5247e-06
3.52473e-06
3.52476e-06
3.52479e-06
3.52481e-06
3.52483e-06
3.52484e-06
3.52484e-06
3.52483e-06
3.52482e-06
3.5248e-06
3.52477e-06
3.52474e-06
3.5247e-06
3.52465e-06
3.52462e-06
3.52471e-06
3.52473e-06
3.52476e-06
3.52479e-06
3.52481e-06
3.52483e-06
3.52484e-06
3.52485e-06
3.52485e-06
3.52484e-06
3.52483e-06
3.52482e-06
3.5248e-06
3.52477e-06
3.52473e-06
3.52469e-06
3.52466e-06
3.52475e-06
3.52477e-06
3.52479e-06
3.52481e-06
3.52483e-06
3.52485e-06
3.52486e-06
3.52486e-06
3.52486e-06
3.52486e-06
3.52485e-06
3.52483e-06
3.52481e-06
3.52479e-06
3.52476e-06
3.52472e-06
3.5247e-06
3.52478e-06
3.5248e-06
3.52481e-06
3.52483e-06
3.52485e-06
3.52486e-06
3.52487e-06
3.52487e-06
3.52487e-06
3.52486e-06
3.52486e-06
3.52484e-06
3.52483e-06
3.52481e-06
3.52478e-06
3.52475e-06
3.52473e-06
3.5248e-06
3.52481e-06
3.52483e-06
3.52484e-06
3.52486e-06
3.52487e-06
3.52487e-06
3.52487e-06
3.52487e-06
3.52487e-06
3.52486e-06
3.52485e-06
3.52484e-06
3.52482e-06
3.52479e-06
3.52477e-06
3.52474e-06
3.52481e-06
3.52482e-06
3.52484e-06
3.52485e-06
3.52486e-06
3.52487e-06
3.52487e-06
3.52487e-06
3.52487e-06
3.52487e-06
3.52486e-06
3.52485e-06
3.52484e-06
3.52482e-06
3.5248e-06
3.52478e-06
3.52475e-06
3.52481e-06
3.52483e-06
3.52484e-06
3.52485e-06
3.52486e-06
3.52487e-06
3.52487e-06
3.52487e-06
3.52487e-06
3.52486e-06
3.52486e-06
3.52485e-06
3.52484e-06
3.52482e-06
3.5248e-06
3.52478e-06
3.52476e-06
3.52481e-06
3.52482e-06
3.52483e-06
3.52485e-06
3.52486e-06
3.52486e-06
3.52487e-06
3.52487e-06
3.52486e-06
3.52486e-06
3.52485e-06
3.52485e-06
3.52483e-06
3.52482e-06
3.5248e-06
3.52477e-06
3.52475e-06
3.52479e-06
3.52481e-06
3.52482e-06
3.52483e-06
3.52485e-06
3.52486e-06
3.52486e-06
3.52486e-06
3.52486e-06
3.52485e-06
3.52485e-06
3.52484e-06
3.52483e-06
3.52481e-06
3.52479e-06
3.52476e-06
3.52474e-06
3.52477e-06
3.52478e-06
3.5248e-06
3.52482e-06
3.52483e-06
3.52484e-06
3.52485e-06
3.52485e-06
3.52485e-06
3.52485e-06
3.52484e-06
3.52483e-06
3.52481e-06
3.52479e-06
3.52477e-06
3.52474e-06
3.52472e-06
3.52474e-06
3.52476e-06
3.52477e-06
3.5248e-06
3.52482e-06
3.52483e-06
3.52484e-06
3.52484e-06
3.52484e-06
3.52483e-06
3.52483e-06
3.52481e-06
3.5248e-06
3.52477e-06
3.52474e-06
3.52471e-06
3.52468e-06
3.5247e-06
3.52472e-06
3.52474e-06
3.52477e-06
3.52479e-06
3.52481e-06
3.52482e-06
3.52482e-06
3.52482e-06
3.52482e-06
3.52481e-06
3.52479e-06
3.52477e-06
3.52474e-06
3.52471e-06
3.52467e-06
3.52464e-06
3.52465e-06
3.52467e-06
3.5247e-06
3.52473e-06
3.52476e-06
3.52478e-06
3.52479e-06
3.5248e-06
3.5248e-06
3.5248e-06
3.52479e-06
3.52477e-06
3.52474e-06
3.52471e-06
3.52467e-06
3.52463e-06
3.52459e-06
3.5246e-06
3.52462e-06
3.52465e-06
3.52469e-06
3.52472e-06
3.52475e-06
3.52477e-06
3.52478e-06
3.52478e-06
3.52477e-06
3.52476e-06
3.52474e-06
3.52471e-06
3.52467e-06
3.52463e-06
3.52458e-06
3.52454e-06
3.52456e-06
3.52458e-06
3.52462e-06
3.52466e-06
3.5247e-06
3.52473e-06
3.52474e-06
3.52475e-06
3.52476e-06
3.52475e-06
3.52474e-06
3.52472e-06
3.52468e-06
3.52464e-06
3.52459e-06
3.52454e-06
3.5245e-06
3.48658e-06
3.48661e-06
3.48664e-06
3.48667e-06
3.4867e-06
3.48673e-06
3.48674e-06
3.48675e-06
3.48675e-06
3.48675e-06
3.48674e-06
3.48672e-06
3.48669e-06
3.48666e-06
3.48662e-06
3.48658e-06
3.48654e-06
3.48661e-06
3.48663e-06
3.48666e-06
3.48669e-06
3.48672e-06
3.48675e-06
3.48676e-06
3.48677e-06
3.48677e-06
3.48677e-06
3.48676e-06
3.48674e-06
3.48671e-06
3.48668e-06
3.48664e-06
3.4866e-06
3.48657e-06
3.48664e-06
3.48666e-06
3.48669e-06
3.48672e-06
3.48674e-06
3.48677e-06
3.48678e-06
3.48679e-06
3.48679e-06
3.48679e-06
3.48677e-06
3.48676e-06
3.48673e-06
3.4867e-06
3.48666e-06
3.48663e-06
3.48659e-06
3.48667e-06
3.48669e-06
3.48672e-06
3.48674e-06
3.48677e-06
3.48679e-06
3.4868e-06
3.48681e-06
3.48681e-06
3.4868e-06
3.48679e-06
3.48678e-06
3.48675e-06
3.48673e-06
3.48669e-06
3.48666e-06
3.48663e-06
3.4867e-06
3.48672e-06
3.48674e-06
3.48677e-06
3.48679e-06
3.48681e-06
3.48682e-06
3.48682e-06
3.48682e-06
3.48682e-06
3.48681e-06
3.4868e-06
3.48678e-06
3.48675e-06
3.48672e-06
3.48669e-06
3.48666e-06
3.48673e-06
3.48675e-06
3.48677e-06
3.48679e-06
3.48681e-06
3.48682e-06
3.48683e-06
3.48683e-06
3.48683e-06
3.48683e-06
3.48682e-06
3.48681e-06
3.48679e-06
3.48677e-06
3.48674e-06
3.48671e-06
3.48668e-06
3.48674e-06
3.48676e-06
3.48678e-06
3.4868e-06
3.48682e-06
3.48683e-06
3.48684e-06
3.48684e-06
3.48684e-06
3.48684e-06
3.48683e-06
3.48682e-06
3.4868e-06
3.48678e-06
3.48675e-06
3.48673e-06
3.4867e-06
3.48675e-06
3.48677e-06
3.48679e-06
3.48681e-06
3.48682e-06
3.48683e-06
3.48684e-06
3.48684e-06
3.48684e-06
3.48684e-06
3.48683e-06
3.48682e-06
3.48681e-06
3.48679e-06
3.48676e-06
3.48673e-06
3.48671e-06
3.48675e-06
3.48677e-06
3.48679e-06
3.48681e-06
3.48682e-06
3.48683e-06
3.48684e-06
3.48684e-06
3.48684e-06
3.48684e-06
3.48683e-06
3.48682e-06
3.48681e-06
3.48679e-06
3.48676e-06
3.48674e-06
3.48671e-06
3.48675e-06
3.48677e-06