/*--------------------------------*- C++ -*----------------------------------*\
  =========                 |
  \\      /  F ield         | OpenFOAM: The Open Source CFD Toolbox
   \\    /   O peration     | Website:  https://openfoam.org
    \\  /    A nd           | Version:  6
     \\/     M anipulation  |
\*---------------------------------------------------------------------------*/
FoamFile
{
    version     2.0;
    format      ascii;
    class       volScalarField;
    location    "0";
    object      p;
}
// * * * * * * * * * * * * * * * * * * * * * * * * * * * * * * * * * * * * * //

dimensions      [0 2 -2 0 0 0 0];

internalField   nonuniform List<scalar> 
40000
(
0.00841496
0.00841459
0.00841338
0.00841131
0.00840863
0.00840556
0.00840229
0.00839898
0.00839575
0.00839271
0.00838994
0.00838751
0.00838547
0.00838386
0.00838271
0.00838204
0.00838186
0.0083822
0.00838305
0.00838442
0.00838631
0.00838873
0.00839165
0.0083951
0.00839905
0.00840351
0.00840846
0.00841391
0.00841985
0.00842627
0.00843316
0.00844052
0.00844835
0.00845663
0.00846537
0.00847456
0.00848419
0.00849427
0.00850478
0.00851572
0.0085271
0.0085389
0.00855113
0.00856379
0.00857686
0.00859035
0.00860425
0.00861857
0.00863331
0.00864845
0.008664
0.00867996
0.00869633
0.00871309
0.00873026
0.00874783
0.0087658
0.00878417
0.00880293
0.00882208
0.00884162
0.00886154
0.00888185
0.00890255
0.00892362
0.00894507
0.00896688
0.00898907
0.00901162
0.00903453
0.00905779
0.0090814
0.00910536
0.00912966
0.00915429
0.00917925
0.00920453
0.00923013
0.00925603
0.00928224
0.00930873
0.00933551
0.00936257
0.00938989
0.00941747
0.0094453
0.00947337
0.00950166
0.00953017
0.00955888
0.00958779
0.00961687
0.00964613
0.00967554
0.00970509
0.00973476
0.00976455
0.00979444
0.00982442
0.00985446
0.00988455
0.00991468
0.00994483
0.00997498
0.0100051
0.0100352
0.0100653
0.0100953
0.0101252
0.010155
0.0101846
0.0102142
0.0102435
0.0102727
0.0103017
0.0103305
0.010359
0.0103873
0.0104153
0.010443
0.0104704
0.0104975
0.0105242
0.0105505
0.0105765
0.010602
0.0106271
0.0106518
0.010676
0.0106998
0.010723
0.0107458
0.010768
0.0107897
0.0108108
0.0108314
0.0108514
0.0108708
0.0108896
0.0109078
0.0109254
0.0109423
0.0109587
0.0109743
0.0109894
0.0110037
0.0110174
0.0110305
0.0110429
0.0110546
0.0110656
0.011076
0.0110857
0.0110947
0.0111031
0.0111108
0.0111178
0.0111242
0.0111299
0.011135
0.0111394
0.0111433
0.0111464
0.011149
0.011151
0.0111524
0.0111532
0.0111535
0.0111532
0.0111524
0.011151
0.0111492
0.0111469
0.0111441
0.0111409
0.0111373
0.0111333
0.0111289
0.0111242
0.0111192
0.011114
0.0111085
0.0111028
0.0110969
0.0110909
0.0110848
0.0110788
0.0110728
0.0110668
0.0110611
0.0110556
0.0110504
0.0110457
0.0110415
0.0110379
0.011035
0.011033
0.0110318
0.0110316
0.0110318
0.00841534
0.00841496
0.00841388
0.00841204
0.00840966
0.00840693
0.00840402
0.00840106
0.00839818
0.00839547
0.008393
0.00839085
0.00838907
0.00838769
0.00838674
0.00838625
0.00838624
0.00838672
0.0083877
0.00838917
0.00839116
0.00839365
0.00839665
0.00840015
0.00840414
0.00840864
0.00841362
0.00841909
0.00842504
0.00843147
0.00843837
0.00844573
0.00845355
0.00846183
0.00847056
0.00847974
0.00848936
0.00849942
0.00850991
0.00852084
0.0085322
0.00854398
0.00855619
0.00856881
0.00858186
0.00859532
0.0086092
0.00862349
0.0086382
0.00865331
0.00866883
0.00868475
0.00870108
0.00871782
0.00873495
0.00875248
0.00877041
0.00878873
0.00880744
0.00882655
0.00884604
0.00886592
0.00888618
0.00890682
0.00892784
0.00894923
0.00897099
0.00899311
0.0090156
0.00903844
0.00906164
0.00908518
0.00910907
0.00913329
0.00915785
0.00918273
0.00920793
0.00923344
0.00925925
0.00928537
0.00931177
0.00933846
0.00936542
0.00939264
0.00942012
0.00944784
0.00947579
0.00950398
0.00953237
0.00956097
0.00958975
0.00961872
0.00964784
0.00967713
0.00970655
0.00973609
0.00976575
0.0097955
0.00982533
0.00985523
0.00988518
0.00991517
0.00994517
0.00997517
0.0100052
0.0100351
0.010065
0.0100948
0.0101246
0.0101542
0.0101837
0.0102131
0.0102423
0.0102713
0.0103002
0.0103288
0.0103572
0.0103853
0.0104131
0.0104407
0.0104679
0.0104948
0.0105213
0.0105475
0.0105733
0.0105987
0.0106236
0.0106482
0.0106722
0.0106958
0.0107189
0.0107415
0.0107636
0.0107852
0.0108062
0.0108266
0.0108465
0.0108658
0.0108844
0.0109025
0.01092
0.0109369
0.0109531
0.0109687
0.0109836
0.0109979
0.0110115
0.0110245
0.0110368
0.0110484
0.0110594
0.0110697
0.0110794
0.0110883
0.0110967
0.0111043
0.0111113
0.0111177
0.0111234
0.0111285
0.0111329
0.0111368
0.01114
0.0111426
0.0111446
0.011146
0.0111469
0.0111472
0.011147
0.0111463
0.011145
0.0111433
0.0111411
0.0111385
0.0111354
0.011132
0.0111281
0.011124
0.0111195
0.0111147
0.0111096
0.0111044
0.0110989
0.0110933
0.0110876
0.0110819
0.0110761
0.0110704
0.0110648
0.0110594
0.0110543
0.0110494
0.011045
0.0110411
0.0110377
0.0110351
0.0110331
0.0110321
0.0110318
0.011032
0.00841655
0.00841605
0.00841496
0.00841328
0.00841118
0.00840879
0.00840626
0.0084037
0.0084012
0.00839887
0.00839676
0.00839494
0.00839346
0.00839235
0.00839166
0.0083914
0.00839159
0.00839224
0.00839338
0.00839499
0.00839709
0.00839969
0.00840277
0.00840634
0.0084104
0.00841494
0.00841997
0.00842547
0.00843144
0.00843789
0.0084448
0.00845216
0.00845998
0.00846826
0.00847698
0.00848614
0.00849575
0.00850579
0.00851626
0.00852717
0.0085385
0.00855026
0.00856243
0.00857503
0.00858805
0.00860148
0.00861532
0.00862958
0.00864424
0.00865932
0.00867479
0.00869068
0.00870696
0.00872365
0.00874074
0.00875822
0.00877609
0.00879436
0.00881302
0.00883207
0.00885151
0.00887132
0.00889152
0.0089121
0.00893304
0.00895436
0.00897605
0.0089981
0.00902051
0.00904327
0.00906638
0.00908984
0.00911363
0.00913777
0.00916223
0.00918701
0.0092121
0.00923751
0.00926322
0.00928922
0.00931551
0.00934208
0.00936892
0.00939602
0.00942337
0.00945096
0.00947878
0.00950683
0.00953508
0.00956353
0.00959217
0.00962099
0.00964996
0.00967909
0.00970835
0.00973773
0.00976723
0.00979681
0.00982647
0.0098562
0.00988597
0.00991578
0.0099456
0.00997542
0.0100052
0.010035
0.0100647
0.0100943
0.0101239
0.0101533
0.0101827
0.0102118
0.0102408
0.0102697
0.0102983
0.0103267
0.0103549
0.0103828
0.0104104
0.0104378
0.0104648
0.0104915
0.0105179
0.0105439
0.0105695
0.0105946
0.0106194
0.0106438
0.0106676
0.010691
0.010714
0.0107364
0.0107583
0.0107797
0.0108005
0.0108208
0.0108405
0.0108596
0.0108782
0.0108961
0.0109135
0.0109302
0.0109463
0.0109617
0.0109765
0.0109907
0.0110042
0.0110171
0.0110293
0.0110409
0.0110518
0.011062
0.0110716
0.0110805
0.0110888
0.0110964
0.0111034
0.0111097
0.0111154
0.0111205
0.0111249
0.0111288
0.011132
0.0111346
0.0111367
0.0111382
0.0111391
0.0111395
0.0111394
0.0111387
0.0111376
0.011136
0.011134
0.0111315
0.0111286
0.0111253
0.0111217
0.0111177
0.0111135
0.0111089
0.0111042
0.0110992
0.011094
0.0110888
0.0110834
0.011078
0.0110726
0.0110673
0.0110621
0.0110571
0.0110523
0.0110479
0.0110438
0.0110402
0.0110371
0.0110346
0.0110329
0.0110318
0.0110316
0.0110318
0.00841862
0.00841789
0.00841663
0.00841495
0.00841295
0.00841075
0.00840845
0.00840615
0.00840393
0.00840188
0.00840004
0.00839848
0.00839725
0.00839638
0.0083959
0.00839583
0.00839619
0.00839701
0.00839828
0.00840002
0.00840224
0.00840493
0.0084081
0.00841174
0.00841586
0.00842045
0.00842552
0.00843106
0.00843706
0.00844352
0.00845044
0.00845782
0.00846564
0.00847392
0.00848264
0.00849179
0.00850139
0.00851141
0.00852187
0.00853276
0.00854407
0.0085558
0.00856796
0.00858053
0.00859351
0.00860692
0.00862073
0.00863495
0.00864958
0.00866462
0.00868006
0.00869591
0.00871215
0.0087288
0.00874584
0.00876328
0.00878111
0.00879933
0.00881794
0.00883694
0.00885632
0.00887608
0.00889622
0.00891673
0.00893762
0.00895887
0.00898049
0.00900248
0.00902481
0.0090475
0.00907054
0.00909392
0.00911764
0.00914169
0.00916606
0.00919075
0.00921576
0.00924108
0.00926669
0.0092926
0.00931878
0.00934525
0.00937198
0.00939897
0.00942621
0.00945369
0.0094814
0.00950932
0.00953745
0.00956578
0.00959429
0.00962298
0.00965182
0.00968081
0.00970994
0.00973918
0.00976853
0.00979797
0.00982748
0.00985706
0.00988668
0.00991634
0.009946
0.00997566
0.0100053
0.0100349
0.0100645
0.0100939
0.0101233
0.0101526
0.0101818
0.0102108
0.0102396
0.0102683
0.0102967
0.010325
0.010353
0.0103807
0.0104082
0.0104354
0.0104622
0.0104888
0.0105149
0.0105408
0.0105662
0.0105912
0.0106158
0.01064
0.0106637
0.010687
0.0107097
0.010732
0.0107538
0.010775
0.0107957
0.0108158
0.0108354
0.0108544
0.0108728
0.0108906
0.0109078
0.0109244
0.0109404
0.0109557
0.0109705
0.0109845
0.010998
0.0110107
0.0110229
0.0110343
0.0110452
0.0110553
0.0110648
0.0110737
0.0110819
0.0110895
0.0110964
0.0111027
0.0111084
0.0111134
0.0111179
0.0111217
0.0111249
0.0111276
0.0111297
0.0111312
0.0111322
0.0111326
0.0111326
0.011132
0.011131
0.0111295
0.0111275
0.0111252
0.0111224
0.0111193
0.0111159
0.0111121
0.011108
0.0111037
0.0110991
0.0110944
0.0110895
0.0110845
0.0110794
0.0110743
0.0110692
0.0110642
0.0110593
0.0110546
0.0110501
0.0110459
0.0110421
0.0110387
0.0110358
0.0110335
0.0110318
0.0110307
0.0110305
0.0110306
0.00842132
0.00842028
0.00841873
0.00841693
0.00841493
0.0084128
0.00841063
0.0084085
0.00840648
0.00840463
0.00840301
0.00840167
0.00840064
0.00839997
0.00839967
0.00839978
0.0084003
0.00840126
0.00840267
0.00840453
0.00840685
0.00840963
0.00841288
0.0084166
0.00842078
0.00842543
0.00843054
0.00843611
0.00844214
0.00844863
0.00845557
0.00846295
0.00847079
0.00847906
0.00848778
0.00849693
0.00850652
0.00851654
0.00852698
0.00853785
0.00854915
0.00856086
0.00857299
0.00858554
0.0085985
0.00861187
0.00862566
0.00863985
0.00865445
0.00866946
0.00868486
0.00870067
0.00871688
0.00873348
0.00875049
0.00876788
0.00878567
0.00880384
0.00882241
0.00884135
0.00886068
0.00888039
0.00890048
0.00892094
0.00894177
0.00896296
0.00898452
0.00900644
0.00902871
0.00905133
0.0090743
0.00909761
0.00912125
0.00914523
0.00916952
0.00919414
0.00921906
0.00924429
0.00926982
0.00929564
0.00932173
0.0093481
0.00937474
0.00940163
0.00942877
0.00945615
0.00948375
0.00951156
0.00953959
0.0095678
0.0095962
0.00962477
0.0096535
0.00968237
0.00971137
0.00974048
0.00976971
0.00979902
0.0098284
0.00985785
0.00988734
0.00991685
0.00994638
0.0099759
0.0100054
0.0100349
0.0100643
0.0100936
0.0101228
0.010152
0.010181
0.0102098
0.0102385
0.010267
0.0102954
0.0103234
0.0103513
0.0103789
0.0104062
0.0104332
0.0104599
0.0104863
0.0105124
0.010538
0.0105633
0.0105882
0.0106127
0.0106367
0.0106603
0.0106834
0.010706
0.0107281
0.0107498
0.0107709
0.0107914
0.0108114
0.0108309
0.0108498
0.010868
0.0108857
0.0109028
0.0109193
0.0109352
0.0109504
0.010965
0.010979
0.0109923
0.011005
0.0110171
0.0110285
0.0110392
0.0110493
0.0110588
0.0110676
0.0110757
0.0110832
0.0110901
0.0110964
0.011102
0.011107
0.0111115
0.0111153
0.0111185
0.0111212
0.0111233
0.0111248
0.0111258
0.0111263
0.0111263
0.0111258
0.0111248
0.0111234
0.0111216
0.0111193
0.0111167
0.0111137
0.0111104
0.0111067
0.0111028
0.0110987
0.0110943
0.0110898
0.0110851
0.0110803
0.0110755
0.0110706
0.0110658
0.011061
0.0110563
0.0110519
0.0110476
0.0110436
0.01104
0.0110368
0.011034
0.0110317
0.01103
0.0110289
0.0110286
0.0110286
0.00842442
0.00842303
0.00842112
0.00841912
0.00841703
0.00841489
0.00841278
0.00841075
0.00840886
0.00840717
0.00840572
0.00840454
0.00840369
0.00840318
0.00840304
0.0084033
0.00840397
0.00840506
0.00840659
0.00840856
0.00841098
0.00841386
0.00841719
0.00842097
0.00842522
0.00842992
0.00843508
0.00844069
0.00844675
0.00845327
0.00846023
0.00846763
0.00847547
0.00848376
0.00849247
0.00850163
0.00851121
0.00852122
0.00853165
0.00854251
0.00855379
0.00856548
0.00857759
0.00859012
0.00860306
0.00861641
0.00863016
0.00864433
0.0086589
0.00867387
0.00868925
0.00870502
0.00872119
0.00873776
0.00875472
0.00877208
0.00878982
0.00880796
0.00882647
0.00884538
0.00886466
0.00888432
0.00890435
0.00892476
0.00894553
0.00896667
0.00898817
0.00901003
0.00903224
0.0090548
0.00907771
0.00910095
0.00912452
0.00914843
0.00917265
0.00919719
0.00922204
0.00924719
0.00927264
0.00929837
0.00932439
0.00935068
0.00937722
0.00940403
0.00943107
0.00945836
0.00948586
0.00951358
0.00954151
0.00956962
0.00959792
0.00962638
0.009655
0.00968376
0.00971265
0.00974166
0.00977077
0.00979997
0.00982923
0.00985856
0.00988793
0.00991732
0.00994673
0.00997613
0.0100055
0.0100348
0.0100641
0.0100933
0.0101224
0.0101514
0.0101803
0.010209
0.0102376
0.010266
0.0102942
0.0103221
0.0103498
0.0103773
0.0104045
0.0104314
0.010458
0.0104842
0.0105101
0.0105356
0.0105608
0.0105855
0.0106099
0.0106338
0.0106572
0.0106802
0.0107027
0.0107247
0.0107462
0.0107672
0.0107876
0.0108075
0.0108269
0.0108456
0.0108638
0.0108814
0.0108984
0.0109147
0.0109305
0.0109456
0.0109602
0.010974
0.0109873
0.0109999
0.0110118
0.0110231
0.0110338
0.0110438
0.0110532
0.011062
0.0110701
0.0110775
0.0110844
0.0110906
0.0110962
0.0111012
0.0111056
0.0111094
0.0111126
0.0111152
0.0111173
0.0111189
0.0111199
0.0111204
0.0111204
0.01112
0.0111191
0.0111177
0.0111159
0.0111138
0.0111112
0.0111083
0.0111051
0.0111016
0.0110978
0.0110938
0.0110896
0.0110853
0.0110808
0.0110762
0.0110715
0.0110668
0.0110622
0.0110576
0.0110532
0.0110489
0.0110448
0.011041
0.0110375
0.0110344
0.0110317
0.0110294
0.0110277
0.0110265
0.0110259
0.0110258
0.00842774
0.00842596
0.00842365
0.0084214
0.00841916
0.00841696
0.00841484
0.00841285
0.00841104
0.00840945
0.00840812
0.00840708
0.00840637
0.008406
0.008406
0.00840639
0.00840718
0.0084084
0.00841004
0.00841211
0.00841463
0.00841759
0.008421
0.00842485
0.00842916
0.00843391
0.00843912
0.00844477
0.00845087
0.00845741
0.00846439
0.00847181
0.00847967
0.00848796
0.00849668
0.00850584
0.00851542
0.00852542
0.00853585
0.00854669
0.00855796
0.00856964
0.00858173
0.00859424
0.00860715
0.00862048
0.00863421
0.00864835
0.00866289
0.00867784
0.00869318
0.00870892
0.00872506
0.00874159
0.00875852
0.00877584
0.00879354
0.00881163
0.00883011
0.00884897
0.00886821
0.00888782
0.00890781
0.00892816
0.00894889
0.00896998
0.00899142
0.00901323
0.00903538
0.00905788
0.00908073
0.00910391
0.00912742
0.00915126
0.00917542
0.00919989
0.00922467
0.00924976
0.00927513
0.00930079
0.00932673
0.00935294
0.00937941
0.00940613
0.0094331
0.0094603
0.00948772
0.00951535
0.00954319
0.00957122
0.00959942
0.00962779
0.00965632
0.00968498
0.00971378
0.00974269
0.0097717
0.0098008
0.00982996
0.00985919
0.00988845
0.00991774
0.00994704
0.00997633
0.0100056
0.0100348
0.010064
0.0100931
0.0101221
0.010151
0.0101797
0.0102084
0.0102368
0.0102651
0.0102931
0.010321
0.0103486
0.0103759
0.010403
0.0104298
0.0104562
0.0104824
0.0105081
0.0105336
0.0105586
0.0105832
0.0106074
0.0106312
0.0106546
0.0106774
0.0106998
0.0107217
0.0107431
0.010764
0.0107843
0.0108041
0.0108233
0.010842
0.01086
0.0108775
0.0108944
0.0109107
0.0109264
0.0109414
0.0109558
0.0109696
0.0109828
0.0109953
0.0110072
0.0110184
0.011029
0.0110389
0.0110482
0.0110569
0.011065
0.0110724
0.0110792
0.0110853
0.0110909
0.0110958
0.0111002
0.0111039
0.0111071
0.0111098
0.0111119
0.0111134
0.0111144
0.011115
0.011115
0.0111146
0.0111137
0.0111123
0.0111106
0.0111085
0.011106
0.0111032
0.0111001
0.0110967
0.011093
0.0110892
0.0110851
0.0110809
0.0110765
0.0110721
0.0110676
0.011063
0.0110586
0.0110542
0.0110499
0.0110457
0.0110418
0.0110381
0.0110347
0.0110316
0.0110289
0.0110266
0.0110248
0.0110234
0.0110226
0.0110223
0.0084311
0.00842895
0.00842622
0.00842368
0.00842125
0.00841893
0.00841676
0.00841477
0.00841299
0.00841147
0.00841022
0.00840928
0.00840867
0.00840841
0.00840853
0.00840904
0.00840994
0.00841126
0.008413
0.00841517
0.00841777
0.00842082
0.0084243
0.00842822
0.00843259
0.0084374
0.00844265
0.00844834
0.00845447
0.00846104
0.00846805
0.00847549
0.00848336
0.00849166
0.00850039
0.00850955
0.00851913
0.00852913
0.00853955
0.00855039
0.00856164
0.00857331
0.00858538
0.00859787
0.00861077
0.00862408
0.00863779
0.0086519
0.00866642
0.00868133
0.00869665
0.00871236
0.00872846
0.00874497
0.00876186
0.00877914
0.00879681
0.00881486
0.0088333
0.00885212
0.00887131
0.00889089
0.00891083
0.00893114
0.00895182
0.00897286
0.00899426
0.00901601
0.00903811
0.00906056
0.00908335
0.00910648
0.00912993
0.00915371
0.00917781
0.00920223
0.00922695
0.00925197
0.00927728
0.00930287
0.00932874
0.00935489
0.00938129
0.00940794
0.00943483
0.00946196
0.00948931
0.00951687
0.00954463
0.00957257
0.0096007
0.00962899
0.00965744
0.00968602
0.00971474
0.00974356
0.00977249
0.0098015
0.00983058
0.00985971
0.00988889
0.00991809
0.0099473
0.0099765
0.0100057
0.0100348
0.0100639
0.0100929
0.0101218
0.0101506
0.0101792
0.0102078
0.0102361
0.0102643
0.0102922
0.01032
0.0103475
0.0103747
0.0104017
0.0104284
0.0104547
0.0104808
0.0105065
0.0105318
0.0105567
0.0105813
0.0106054
0.0106291
0.0106523
0.0106751
0.0106974
0.0107192
0.0107404
0.0107612
0.0107814
0.0108011
0.0108203
0.0108388
0.0108568
0.0108742
0.010891
0.0109072
0.0109227
0.0109377
0.010952
0.0109657
0.0109788
0.0109912
0.011003
0.0110142
0.0110247
0.0110346
0.0110438
0.0110524
0.0110604
0.0110677
0.0110744
0.0110806
0.0110861
0.011091
0.0110953
0.011099
0.0111022
0.0111048
0.0111068
0.0111084
0.0111094
0.0111099
0.0111099
0.0111095
0.0111086
0.0111073
0.0111056
0.0111036
0.0111011
0.0110984
0.0110953
0.011092
0.0110884
0.0110846
0.0110807
0.0110765
0.0110723
0.011068
0.0110636
0.0110592
0.0110548
0.0110506
0.0110464
0.0110423
0.0110385
0.0110348
0.0110315
0.0110284
0.0110257
0.0110233
0.0110214
0.0110199
0.0110188
0.0110182
0.00843439
0.00843186
0.00842871
0.00842586
0.00842322
0.00842075
0.00841849
0.00841646
0.00841468
0.00841318
0.00841199
0.00841112
0.00841059
0.00841042
0.00841063
0.00841123
0.00841223
0.00841365
0.00841548
0.00841773
0.00842042
0.00842353
0.00842709
0.00843107
0.0084355
0.00844036
0.00844566
0.00845139
0.00845755
0.00846415
0.00847119
0.00847865
0.00848654
0.00849485
0.00850359
0.00851275
0.00852233
0.00853233
0.00854275
0.00855358
0.00856482
0.00857648
0.00858854
0.00860102
0.0086139
0.00862718
0.00864087
0.00865496
0.00866945
0.00868434
0.00869963
0.00871532
0.00873139
0.00874786
0.00876472
0.00878197
0.00879961
0.00881763
0.00883603
0.00885481
0.00887397
0.0088935
0.0089134
0.00893367
0.00895431
0.00897531
0.00899666
0.00901837
0.00904042
0.00906282
0.00908557
0.00910864
0.00913205
0.00915578
0.00917982
0.00920418
0.00922885
0.00925381
0.00927907
0.00930461
0.00933042
0.0093565
0.00938284
0.00940944
0.00943627
0.00946333
0.00949062
0.00951811
0.0095458
0.00957369
0.00960175
0.00962997
0.00965835
0.00968686
0.00971551
0.00974426
0.00977312
0.00980206
0.00983106
0.00986013
0.00988923
0.00991836
0.00994749
0.00997662
0.0100057
0.0100348
0.0100638
0.0100927
0.0101215
0.0101502
0.0101788
0.0102073
0.0102355
0.0102636
0.0102915
0.0103192
0.0103466
0.0103738
0.0104006
0.0104272
0.0104535
0.0104795
0.0105051
0.0105303
0.0105551
0.0105796
0.0106036
0.0106272
0.0106504
0.0106731
0.0106953
0.010717
0.0107382
0.0107589
0.010779
0.0107986
0.0108176
0.0108361
0.010854
0.0108713
0.010888
0.0109041
0.0109196
0.0109345
0.0109487
0.0109623
0.0109753
0.0109877
0.0109994
0.0110105
0.0110209
0.0110307
0.0110399
0.0110484
0.0110563
0.0110636
0.0110702
0.0110763
0.0110817
0.0110866
0.0110908
0.0110945
0.0110976
0.0111002
0.0111022
0.0111037
0.0111047
0.0111052
0.0111052
0.0111048
0.0111039
0.0111026
0.0111009
0.0110989
0.0110965
0.0110938
0.0110908
0.0110875
0.011084
0.0110803
0.0110764
0.0110723
0.0110681
0.0110639
0.0110596
0.0110553
0.011051
0.0110468
0.0110427
0.0110387
0.0110349
0.0110313
0.011028
0.0110249
0.0110221
0.0110197
0.0110175
0.0110158
0.0110145
0.0110136
0.00843749
0.0084346
0.00843102
0.00842787
0.00842499
0.00842235
0.00841997
0.00841787
0.00841607
0.00841457
0.0084134
0.00841257
0.0084121
0.00841201
0.00841229
0.00841297
0.00841406
0.00841555
0.00841746
0.00841979
0.00842255
0.00842574
0.00842935
0.0084334
0.00843788
0.00844279
0.00844813
0.0084539
0.00846011
0.00846674
0.00847379
0.00848128
0.00848918
0.00849751
0.00850626
0.00851543
0.00852501
0.00853501
0.00854542
0.00855625
0.00856749
0.00857913
0.00859119
0.00860365
0.00861651
0.00862978
0.00864345
0.00865752
0.00867199
0.00868686
0.00870212
0.00871778
0.00873383
0.00875027
0.00876711
0.00878432
0.00880193
0.00881992
0.00883828
0.00885703
0.00887615
0.00889565
0.00891552
0.00893575
0.00895635
0.0089773
0.00899862
0.00902029
0.0090423
0.00906466
0.00908736
0.00911039
0.00913375
0.00915744
0.00918144
0.00920575
0.00923037
0.00925528
0.00928049
0.00930598
0.00933174
0.00935778
0.00938407
0.00941061
0.00943739
0.0094644
0.00949163
0.00951907
0.00954671
0.00957454
0.00960255
0.00963072
0.00965904
0.0096875
0.00971609
0.00974478
0.00977358
0.00980246
0.00983141
0.00986042
0.00988946
0.00991853
0.00994761
0.00997667
0.0100057
0.0100347
0.0100636
0.0100925
0.0101213
0.0101499
0.0101785
0.0102068
0.010235
0.0102631
0.0102909
0.0103185
0.0103458
0.0103729
0.0103998
0.0104263
0.0104525
0.0104784
0.0105039
0.0105291
0.0105539
0.0105782
0.0106022
0.0106257
0.0106488
0.0106714
0.0106935
0.0107152
0.0107363
0.0107569
0.010777
0.0107965
0.0108155
0.0108339
0.0108517
0.0108689
0.0108855
0.0109015
0.0109169
0.0109317
0.0109459
0.0109594
0.0109723
0.0109846
0.0109962
0.0110072
0.0110176
0.0110273
0.0110364
0.0110448
0.0110527
0.0110599
0.0110665
0.0110724
0.0110778
0.0110826
0.0110868
0.0110904
0.0110935
0.011096
0.011098
0.0110994
0.0111004
0.0111008
0.0111008
0.0111004
0.0110995
0.0110982
0.0110965
0.0110945
0.0110921
0.0110894
0.0110864
0.0110832
0.0110797
0.011076
0.0110721
0.0110681
0.011064
0.0110598
0.0110556
0.0110514
0.0110472
0.011043
0.0110389
0.011035
0.0110312
0.0110276
0.0110242
0.0110211
0.0110182
0.0110156
0.0110133
0.0110114
0.0110097
0.0110086
0.00844031
0.00843706
0.00843308
0.00842962
0.0084265
0.00842368
0.00842116
0.00841898
0.00841712
0.0084156
0.00841443
0.00841363
0.0084132
0.00841315
0.0084135
0.00841424
0.00841539
0.00841696
0.00841894
0.00842134
0.00842416
0.00842741
0.00843109
0.00843519
0.00843972
0.00844468
0.00845006
0.00845588
0.00846211
0.00846877
0.00847585
0.00848336
0.00849128
0.00849963
0.00850839
0.00851756
0.00852715
0.00853715
0.00854757
0.00855839
0.00856962
0.00858126
0.0085933
0.00860575
0.0086186
0.00863185
0.00864551
0.00865956
0.00867401
0.00868886
0.0087041
0.00871973
0.00873576
0.00875218
0.00876898
0.00878618
0.00880375
0.00882171
0.00884005
0.00885876
0.00887786
0.00889732
0.00891715
0.00893735
0.00895792
0.00897884
0.00900012
0.00902175
0.00904373
0.00906605
0.00908871
0.00911171
0.00913503
0.00915868
0.00918264
0.00920691
0.00923149
0.00925637
0.00928153
0.00930698
0.00933271
0.0093587
0.00938495
0.00941145
0.00943818
0.00946515
0.00949234
0.00951974
0.00954734
0.00957513
0.00960309
0.00963122
0.0096595
0.00968792
0.00971646
0.00974511
0.00977387
0.00980271
0.00983162
0.00986058
0.00988958
0.0099186
0.00994763
0.00997666
0.0100057
0.0100346
0.0100635
0.0100923
0.010121
0.0101496
0.0101781
0.0102065
0.0102346
0.0102626
0.0102904
0.0103179
0.0103452
0.0103723
0.010399
0.0104255
0.0104517
0.0104775
0.010503
0.0105281
0.0105528
0.0105772
0.0106011
0.0106245
0.0106475
0.0106701
0.0106922
0.0107137
0.0107348
0.0107553
0.0107753
0.0107948
0.0108137
0.010832
0.0108497
0.0108669
0.0108834
0.0108994
0.0109147
0.0109294
0.0109435
0.010957
0.0109698
0.010982
0.0109935
0.0110044
0.0110147
0.0110244
0.0110334
0.0110417
0.0110495
0.0110566
0.0110631
0.011069
0.0110743
0.011079
0.0110832
0.0110867
0.0110897
0.0110922
0.0110941
0.0110955
0.0110964
0.0110968
0.0110968
0.0110963
0.0110953
0.011094
0.0110923
0.0110903
0.0110879
0.0110852
0.0110822
0.0110789
0.0110755
0.0110718
0.011068
0.011064
0.0110599
0.0110558
0.0110516
0.0110474
0.0110432
0.011039
0.011035
0.0110311
0.0110273
0.0110236
0.0110202
0.011017
0.011014
0.0110113
0.0110088
0.0110066
0.0110047
0.0110033
0.00844276
0.00843918
0.00843481
0.00843105
0.00842769
0.00842467
0.00842202
0.00841972
0.0084178
0.00841624
0.00841506
0.00841426
0.00841385
0.00841384
0.00841423
0.00841503
0.00841624
0.00841786
0.0084199
0.00842236
0.00842524
0.00842855
0.00843228
0.00843643
0.00844101
0.00844602
0.00845144
0.00845729
0.00846356
0.00847025
0.00847736
0.00848488
0.00849283
0.00850118
0.00850996
0.00851914
0.00852874
0.00853874
0.00854915
0.00855998
0.0085712
0.00858284
0.00859487
0.00860731
0.00862015
0.00863339
0.00864703
0.00866106
0.0086755
0.00869033
0.00870555
0.00872116
0.00873717
0.00875356
0.00877034
0.00878751
0.00880506
0.00882299
0.00884131
0.00886
0.00887906
0.0088985
0.0089183
0.00893847
0.00895901
0.0089799
0.00900115
0.00902275
0.0090447
0.00906699
0.00908962
0.00911258
0.00913587
0.00915949
0.00918342
0.00920766
0.00923221
0.00925705
0.00928218
0.0093076
0.00933329
0.00935925
0.00938547
0.00941194
0.00943865
0.00946558
0.00949274
0.00952011
0.00954768
0.00957543
0.00960337
0.00963146
0.00965971
0.0096881
0.00971662
0.00974524
0.00977397
0.00980278
0.00983166
0.00986059
0.00988956
0.00991856
0.00994756
0.00997656
0.0100055
0.0100345
0.0100633
0.0100921
0.0101208
0.0101494
0.0101778
0.0102061
0.0102343
0.0102622
0.01029
0.0103175
0.0103447
0.0103718
0.0103985
0.0104249
0.0104511
0.0104769
0.0105023
0.0105274
0.0105521
0.0105763
0.0106002
0.0106236
0.0106466
0.0106691
0.0106911
0.0107126
0.0107336
0.0107541
0.0107741
0.0107935
0.0108123
0.0108305
0.0108482
0.0108653
0.0108818
0.0108977
0.0109129
0.0109276
0.0109416
0.0109549
0.0109677
0.0109798
0.0109913
0.0110021
0.0110123
0.0110218
0.0110308
0.011039
0.0110467
0.0110538
0.0110602
0.011066
0.0110712
0.0110758
0.0110799
0.0110834
0.0110863
0.0110887
0.0110905
0.0110919
0.0110927
0.0110931
0.011093
0.0110924
0.0110915
0.0110901
0.0110884
0.0110863
0.0110838
0.0110811
0.0110781
0.0110749
0.0110714
0.0110677
0.0110639
0.0110599
0.0110558
0.0110517
0.0110475
0.0110433
0.0110391
0.011035
0.0110309
0.011027
0.0110231
0.0110195
0.011016
0.0110126
0.0110095
0.0110067
0.011004
0.0110016
0.0109994
0.0109977
0.00844478
0.00844089
0.00843616
0.0084321
0.00842849
0.00842529
0.00842248
0.00842007
0.00841807
0.00841646
0.00841525
0.00841444
0.00841404
0.00841405
0.00841448
0.00841531
0.00841657
0.00841824
0.00842033
0.00842284
0.00842578
0.00842914
0.00843292
0.00843712
0.00844174
0.00844679
0.00845225
0.00845813
0.00846444
0.00847115
0.00847829
0.00848584
0.0084938
0.00850217
0.00851095
0.00852015
0.00852975
0.00853976
0.00855018
0.008561
0.00857222
0.00858385
0.00859588
0.00860831
0.00862114
0.00863437
0.00864799
0.00866202
0.00867643
0.00869125
0.00870645
0.00872205
0.00873803
0.00875441
0.00877117
0.00878831
0.00880584
0.00882375
0.00884204
0.00886071
0.00887975
0.00889916
0.00891894
0.00893909
0.0089596
0.00898047
0.00900169
0.00902327
0.00904519
0.00906745
0.00909006
0.009113
0.00913626
0.00915985
0.00918376
0.00920798
0.0092325
0.00925732
0.00928243
0.00930782
0.00933349
0.00935943
0.00938563
0.00941207
0.00943876
0.00946568
0.00949281
0.00952016
0.00954771
0.00957545
0.00960337
0.00963144
0.00965968
0.00968805
0.00971655
0.00974516
0.00977387
0.00980267
0.00983153
0.00986045
0.00988941
0.00991839
0.00994738
0.00997637
0.0100053
0.0100342
0.0100631
0.0100919
0.0101205
0.0101491
0.0101776
0.0102058
0.010234
0.0102619
0.0102896
0.0103171
0.0103444
0.0103714
0.0103981
0.0104245
0.0104506
0.0104764
0.0105018
0.0105269
0.0105515
0.0105758
0.0105996
0.010623
0.0106459
0.0106684
0.0106904
0.0107119
0.0107328
0.0107533
0.0107731
0.0107925
0.0108113
0.0108295
0.0108471
0.0108641
0.0108805
0.0108963
0.0109115
0.0109261
0.01094
0.0109533
0.010966
0.010978
0.0109894
0.0110001
0.0110102
0.0110197
0.0110286
0.0110368
0.0110443
0.0110513
0.0110576
0.0110633
0.0110685
0.011073
0.011077
0.0110804
0.0110832
0.0110855
0.0110873
0.0110885
0.0110893
0.0110896
0.0110894
0.0110888
0.0110878
0.0110864
0.0110846
0.0110824
0.01108
0.0110772
0.0110742
0.0110709
0.0110674
0.0110637
0.0110598
0.0110559
0.0110518
0.0110476
0.0110434
0.0110392
0.011035
0.0110308
0.0110267
0.0110227
0.0110188
0.0110151
0.0110115
0.0110081
0.0110049
0.0110018
0.010999
0.0109964
0.0109938
0.0109919
0.00844632
0.00844213
0.00843705
0.00843271
0.00842888
0.00842547
0.00842251
0.00841999
0.00841789
0.00841622
0.00841498
0.00841415
0.00841375
0.00841377
0.00841421
0.00841508
0.00841637
0.00841808
0.00842022
0.00842278
0.00842576
0.00842916
0.00843298
0.00843723
0.00844189
0.00844698
0.00845248
0.00845839
0.00846473
0.00847147
0.00847863
0.0084862
0.00849418
0.00850257
0.00851137
0.00852057
0.00853018
0.00854019
0.00855061
0.00856144
0.00857266
0.00858428
0.00859631
0.00860873
0.00862155
0.00863477
0.00864839
0.0086624
0.00867681
0.0086916
0.00870679
0.00872237
0.00873834
0.0087547
0.00877144
0.00878857
0.00880608
0.00882397
0.00884224
0.00886089
0.00887991
0.0088993
0.00891906
0.00893919
0.00895968
0.00898053
0.00900173
0.00902329
0.00904519
0.00906744
0.00909002
0.00911294
0.00913619
0.00915976
0.00918365
0.00920785
0.00923236
0.00925717
0.00928226
0.00930764
0.0093333
0.00935922
0.0093854
0.00941184
0.00943851
0.00946542
0.00949255
0.00951989
0.00954743
0.00957517
0.00960307
0.00963115
0.00965938
0.00968775
0.00971624
0.00974485
0.00977356
0.00980236
0.00983122
0.00986015
0.00988911
0.00991809
0.00994709
0.00997607
0.010005
0.010034
0.0100628
0.0100916
0.0101203
0.0101488
0.0101773
0.0102056
0.0102337
0.0102616
0.0102894
0.0103169
0.0103441
0.0103711
0.0103978
0.0104243
0.0104504
0.0104761
0.0105015
0.0105266
0.0105512
0.0105755
0.0105993
0.0106226
0.0106455
0.010668
0.0106899
0.0107114
0.0107323
0.0107527
0.0107726
0.0107919
0.0108106
0.0108287
0.0108463
0.0108633
0.0108796
0.0108954
0.0109105
0.010925
0.0109389
0.0109521
0.0109647
0.0109766
0.0109879
0.0109986
0.0110086
0.011018
0.0110267
0.0110348
0.0110423
0.0110492
0.0110554
0.011061
0.0110661
0.0110705
0.0110744
0.0110777
0.0110804
0.0110826
0.0110843
0.0110855
0.0110861
0.0110863
0.0110861
0.0110854
0.0110843
0.0110828
0.011081
0.0110787
0.0110762
0.0110734
0.0110703
0.011067
0.0110634
0.0110597
0.0110558
0.0110518
0.0110477
0.0110435
0.0110392
0.011035
0.0110307
0.0110265
0.0110224
0.0110183
0.0110144
0.0110106
0.0110069
0.0110034
0.011
0.0109968
0.0109938
0.0109909
0.0109881
0.010986
0.00844732
0.00844286
0.00843745
0.00843285
0.00842879
0.0084252
0.00842208
0.00841943
0.00841725
0.00841551
0.00841421
0.00841336
0.00841295