/*--------------------------------*- C++ -*----------------------------------*\
  =========                 |
  \\      /  F ield         | OpenFOAM: The Open Source CFD Toolbox
   \\    /   O peration     | Website:  https://openfoam.org
    \\  /    A nd           | Version:  6
     \\/     M anipulation  |
\*---------------------------------------------------------------------------*/
FoamFile
{
    version     2.0;
    format      ascii;
    class       volScalarField;
    location    "./ITHACAoutput/Offline/1";
    object      prghRec;
}
// * * * * * * * * * * * * * * * * * * * * * * * * * * * * * * * * * * * * * //

dimensions      [0 2 -2 0 0 0 0];

internalField   nonuniform List<scalar> 
115600
(
0.0071126
0.0070846
0.0070709
0.00706672
0.0070638
0.00705764
0.00704952
0.00704037
0.00703075
0.00702101
0.00701127
0.0070017
0.00699233
0.00698317
0.00697423
0.00696552
0.00695702
0.00694872
0.00694059
0.00693264
0.00692485
0.00691722
0.00690972
0.00690238
0.00689515
0.00688804
0.00688102
0.0068741
0.00686724
0.00686041
0.00685359
0.00684675
0.00683988
0.00683296
0.00682592
0.00681868
0.00681121
0.00680342
0.00679526
0.0067866
0.00677735
0.00676737
0.0067565
0.00674458
0.00673134
0.00671652
0.00669976
0.00668065
0.00665858
0.00663295
0.00660251
0.00656681
0.00652122
0.00647101
0.00638218
0.00632151
0.00706975
0.00708374
0.00707066
0.00706658
0.00706371
0.0070576
0.00704949
0.00704037
0.00703076
0.00702102
0.00701131
0.00700172
0.00699235
0.00698319
0.00697427
0.00696554
0.00695705
0.00694874
0.0069406
0.00693266
0.00692487
0.00691723
0.00690974
0.00690239
0.00689515
0.00688804
0.00688103
0.00687411
0.00686724
0.00686041
0.00685359
0.00684675
0.00683988
0.00683296
0.00682591
0.00681868
0.00681121
0.00680342
0.00679525
0.00678659
0.00677734
0.00676736
0.00675649
0.00674456
0.00673132
0.0067165
0.00669974
0.00668062
0.00665856
0.00663292
0.00660247
0.00656675
0.00652114
0.00647089
0.00638212
0.00632278
0.00703219
0.00708277
0.00707018
0.00706625
0.00706347
0.00705741
0.00704936
0.00704028
0.00703071
0.00702097
0.00701127
0.00700171
0.00699234
0.00698319
0.00697427
0.00696557
0.00695706
0.00694875
0.00694062
0.00693267
0.00692488
0.00691723
0.00690975
0.0069024
0.00689516
0.00688805
0.00688105
0.00687411
0.00686724
0.00686041
0.0068536
0.00684675
0.00683988
0.00683296
0.00682591
0.00681867
0.0068112
0.00680342
0.00679524
0.00678659
0.00677732
0.00676734
0.00675649
0.00674455
0.0067313
0.00671647
0.00669972
0.00668059
0.00665853
0.00663288
0.00660243
0.00656669
0.00652108
0.00647088
0.00638232
0.00632547
0.00700371
0.00708155
0.00706941
0.00706565
0.00706301
0.00705702
0.00704904
0.00704004
0.00703051
0.00702084
0.00701116
0.00700162
0.00699227
0.00698314
0.00697423
0.00696553
0.00695703
0.00694873
0.00694061
0.00693266
0.00692487
0.00691723
0.00690975
0.0069024
0.00689517
0.00688805
0.00688105
0.00687412
0.00686725
0.00686042
0.0068536
0.00684675
0.00683989
0.00683297
0.00682592
0.00681867
0.0068112
0.00680341
0.00679524
0.00678658
0.00677732
0.00676734
0.00675648
0.00674452
0.00673128
0.00671645
0.00669969
0.00668056
0.00665849
0.00663284
0.00660238
0.00656666
0.00652104
0.00647096
0.00638286
0.0063291
0.0069808
0.00708001
0.0070686
0.00706496
0.00706242
0.00705651
0.00704861
0.00703968
0.00703023
0.0070206
0.00701098
0.00700147
0.00699216
0.00698305
0.00697415
0.00696548
0.00695699
0.00694869
0.00694059
0.00693264
0.00692486
0.00691723
0.00690975
0.0069024
0.00689517
0.00688806
0.00688105
0.00687412
0.00686725
0.00686043
0.00685361
0.00684676
0.0068399
0.00683297
0.00682592
0.00681868
0.00681121
0.00680342
0.00679524
0.00678658
0.00677732
0.00676733
0.00675645
0.00674451
0.00673127
0.00671643
0.00669966
0.00668052
0.00665845
0.00663279
0.00660233
0.00656661
0.00652103
0.00647115
0.00638368
0.00633338
0.00696139
0.00707832
0.00706805
0.00706439
0.0070619
0.00705603
0.00704818
0.00703931
0.00702993
0.00702035
0.00701078
0.00700131
0.00699202
0.00698294
0.00697406
0.00696541
0.00695693
0.00694865
0.00694055
0.00693261
0.00692484
0.00691722
0.00690974
0.00690239
0.00689517
0.00688807
0.00688106
0.00687413
0.00686726
0.00686044
0.00685362
0.00684678
0.00683991
0.00683299
0.00682593
0.0068187
0.00681122
0.00680343
0.00679524
0.00678658
0.00677732
0.00676733
0.00675645
0.00674451
0.00673126
0.00671641
0.00669964
0.0066805
0.00665841
0.00663275
0.0066023
0.00656661
0.00652109
0.00647147
0.00638486
0.00633814
0.00694496
0.00707634
0.00706777
0.007064
0.00706152
0.00705565
0.00704782
0.00703899
0.00702965
0.00702013
0.00701059
0.00700116
0.0069919
0.00698284
0.00697398
0.00696533
0.00695688
0.0069486
0.00694051
0.00693259
0.00692481
0.0069172
0.00690972
0.00690239
0.00689517
0.00688807
0.00688107
0.00687414
0.00686727
0.00686045
0.00685364
0.0068468
0.00683994
0.006833
0.00682595
0.00681871
0.00681123
0.00680345
0.00679527
0.0067866
0.00677733
0.00676733
0.00675646
0.00674451
0.00673126
0.00671641
0.00669964
0.0066805
0.00665841
0.00663276
0.00660233
0.00656668
0.00652127
0.00647197
0.00638641
0.00634324
0.00693147
0.00707379
0.00706759
0.00706376
0.00706127
0.00705537
0.00704756
0.00703875
0.00702943
0.00701994
0.00701043
0.00700102
0.00699179
0.00698275
0.0069739
0.00696527
0.00695682
0.00694856
0.00694048
0.00693256
0.0069248
0.00691719
0.00690972
0.00690239
0.00689517
0.00688808
0.00688108
0.00687416
0.0068673
0.00686048
0.00685366
0.00684683
0.00683997
0.00683304
0.00682599
0.00681875
0.00681127
0.00680347
0.00679529
0.00678662
0.00677736
0.00676737
0.00675649
0.00674453
0.00673128
0.00671644
0.00669967
0.00668053
0.00665846
0.00663283
0.00660243
0.00656684
0.00652159
0.00647268
0.00638835
0.00634861
0.00692099
0.00707048
0.00706726
0.00706354
0.0070611
0.00705519
0.00704737
0.00703858
0.0070293
0.00701981
0.00701033
0.00700094
0.00699172
0.00698269
0.00697386
0.00696524
0.0069568
0.00694855
0.00694046
0.00693255
0.00692479
0.00691719
0.00690972
0.0069024
0.00689519
0.00688809
0.0068811
0.00687419
0.00686733
0.0068605
0.00685369
0.00684685
0.00684
0.00683307
0.00682602
0.00681879
0.00681131
0.00680351
0.00679533
0.00678666
0.0067774
0.00676741
0.00675653
0.00674459
0.00673134
0.00671651
0.00669974
0.00668061
0.00665856
0.00663295
0.0066026
0.00656712
0.00652206
0.00647361
0.00639066
0.00635416
0.00691359
0.00706634
0.0070666
0.0070632
0.00706089
0.00705505
0.00704724
0.00703847
0.0070292
0.00701974
0.00701027
0.00700091
0.00699169
0.00698267
0.00697386
0.00696524
0.0069568
0.00694855
0.00694047
0.00693256
0.00692481
0.00691721
0.00690975
0.00690242
0.00689522
0.00688813
0.00688114
0.00687422
0.00686736
0.00686054
0.00685373
0.00684691
0.00684005
0.00683312
0.00682607
0.00681884
0.00681136
0.00680357
0.00679538
0.00678671
0.00677746
0.00676747
0.0067566
0.00674466
0.00673142
0.0067166
0.00669985
0.00668075
0.00665872
0.00663316
0.00660288
0.00656751
0.0065227
0.00647476
0.00639335
0.00635984
0.00690915
0.00706147
0.00706546
0.00706265
0.00706059
0.00705486
0.00704711
0.00703838
0.00702914
0.00701971
0.00701026
0.00700091
0.00699172
0.00698269
0.00697388
0.00696526
0.00695683
0.00694858
0.0069405
0.0069326
0.00692485
0.00691725
0.00690978
0.00690247
0.00689526
0.00688817
0.00688118
0.00687427
0.00686742
0.00686059
0.00685379
0.00684697
0.00684011
0.00683318
0.00682612
0.0068189
0.00681142
0.00680363
0.00679546
0.00678679
0.00677755
0.00676756
0.00675669
0.00674476
0.00673154
0.00671674
0.0067
0.00668092
0.00665894
0.00663345
0.00660325
0.00656804
0.00652353
0.00647613
0.00639643
0.00636563
0.00690744
0.00705607
0.0070638
0.00706177
0.00706009
0.00705458
0.00704695
0.0070383
0.00702911
0.0070197
0.00701028
0.00700094
0.00699175
0.00698276
0.00697394
0.00696533
0.0069569
0.00694864
0.00694057
0.00693266
0.00692491
0.00691731
0.00690985
0.00690252
0.00689533
0.00688824
0.00688125
0.00687433
0.00686749
0.00686067
0.00685386
0.00684705
0.00684018
0.00683326
0.00682621
0.00681898
0.00681151
0.00680372
0.00679555
0.00678689
0.00677764
0.00676767
0.00675682
0.0067449
0.00673169
0.00671691
0.0067002
0.00668117
0.00665924
0.00663382
0.00660373
0.00656871
0.00652454
0.00647774
0.00639988
0.00637151
0.00690813
0.00705043
0.00706169
0.00706057
0.00705935
0.00705415
0.00704671
0.00703818
0.00702906
0.00701971
0.00701033
0.007001
0.00699183
0.00698284
0.00697403
0.00696542
0.00695698
0.00694874
0.00694066
0.00693275
0.006925
0.00691739
0.00690994
0.00690261
0.00689542
0.00688833
0.00688134
0.00687442
0.00686758
0.00686076
0.00685395
0.00684714
0.00684028
0.00683335
0.0068263
0.00681908
0.00681161
0.00680383
0.00679566
0.00678702
0.00677777
0.00676781
0.00675698
0.00674507
0.00673188
0.00671713
0.00670045
0.00668148
0.0066596
0.00663428
0.00660434
0.00656952
0.00652576
0.00647958
0.0064037
0.0063775
0.00691084
0.00704482
0.00705926
0.00705913
0.00705837
0.00705352
0.00704633
0.00703798
0.00702898
0.00701971
0.00701036
0.00700108
0.00699192
0.00698293
0.00697414
0.00696552
0.00695709
0.00694885
0.00694077
0.00693286
0.00692511
0.00691751
0.00691005
0.00690273
0.00689552
0.00688844
0.00688144
0.00687453
0.00686768
0.00686086
0.00685406
0.00684724
0.00684039
0.00683347
0.00682642
0.0068192
0.00681173
0.00680396
0.0067958
0.00678716
0.00677792
0.00676798
0.00675716
0.00674528
0.00673211
0.00671739
0.00670076
0.00668184
0.00666006
0.00663482
0.00660506
0.00657048
0.00652718
0.00648168
0.00640791
0.00638357
0.00691519
0.00703951
0.00705666
0.00705749
0.00705717
0.00705271
0.0070458
0.00703767
0.00702883
0.00701966
0.00701038
0.00700115
0.00699201
0.00698304
0.00697426
0.00696565
0.00695724
0.00694899
0.00694091
0.006933
0.00692524
0.00691764
0.00691019
0.00690285
0.00689566
0.00688857
0.00688158
0.00687466
0.0068678
0.006861
0.00685419
0.00684737
0.00684053
0.0068336
0.00682656
0.00681934
0.00681188
0.00680411
0.00679596
0.00678733
0.00677811
0.00676818
0.00675738
0.00674552
0.0067324
0.00671771
0.00670114
0.00668228
0.00666059
0.0066355
0.00660591
0.0065716
0.00652883
0.00648404
0.00641247
0.00638975
0.00692083
0.00703469
0.00705398
0.00705578
0.00705587
0.00705176
0.00704514
0.00703722
0.00702856
0.00701952
0.00701035
0.00700118
0.0069921
0.00698317
0.0069744
0.0069658
0.00695738
0.00694914
0.00694107
0.00693316
0.0069254
0.0069178
0.00691034
0.00690301
0.00689582
0.00688873
0.00688172
0.00687482
0.00686796
0.00686114
0.00685433
0.00684752
0.00684067
0.00683376
0.00682672
0.0068195
0.00681205
0.00680429
0.00679614
0.00678753
0.00677832
0.00676842
0.00675764
0.00674582
0.00673273
0.00671809
0.00670158
0.0066828
0.00666122
0.00663626
0.0066069
0.0065729
0.00653071
0.00648667
0.00641741
0.00639604
0.00692721
0.00703051
0.00705132
0.00705403
0.0070545
0.00705071
0.00704436
0.00703667
0.00702818
0.00701929
0.00701024
0.00700115
0.00699214
0.00698326
0.00697451
0.00696595
0.00695754
0.0069493
0.00694124
0.00693334
0.00692558
0.00691798
0.00691052
0.00690319
0.00689599
0.0068889
0.0068819
0.00687499
0.00686813
0.00686131
0.00685451
0.00684769
0.00684085
0.00683394
0.00682691
0.00681969
0.00681224
0.00680449
0.00679636
0.00678776
0.00677857
0.00676869
0.00675794
0.00674615
0.00673311
0.00671852
0.00670209
0.0066834
0.00666193
0.00663716
0.00660804
0.00657438
0.00653283
0.00648958
0.0064227
0.00640248
0.00693369
0.00702694
0.00704874
0.00705225
0.00705306
0.0070496
0.0070435
0.00703602
0.00702771
0.00701897
0.00701001
0.00700103
0.0069921
0.00698328
0.00697459
0.00696606
0.00695769
0.00694947
0.00694142
0.00693352
0.00692577
0.00691817
0.00691071
0.00690338
0.00689618
0.00688909
0.0068821
0.00687518
0.00686832
0.00686151
0.00685471
0.00684791
0.00684106
0.00683415
0.00682711
0.00681991
0.00681247
0.00680473
0.00679661
0.00678802
0.00677885
0.00676899
0.00675828
0.00674653
0.00673353
0.00671902
0.00670267
0.00668408
0.00666277
0.00663817
0.00660934
0.00657606
0.0065352
0.00649279
0.0064284
0.00640909
0.00693984
0.00702395
0.00704623
0.00705046
0.00705159
0.0070484
0.00704257
0.0070353
0.00702717
0.00701855
0.00700973
0.00700083
0.00699199
0.00698322
0.00697459
0.00696611
0.00695778
0.0069496
0.00694156
0.00693368
0.00692594
0.00691836
0.00691091
0.00690359
0.00689638
0.00688929
0.0068823
0.00687539
0.00686854
0.00686172
0.00685492
0.00684811
0.00684127
0.00683437
0.00682734
0.00682015
0.00681272
0.00680498
0.00679688
0.00678831
0.00677917
0.00676934
0.00675866
0.00674696
0.00673402
0.00671959
0.00670333
0.00668486
0.00666371
0.00663932
0.00661079
0.00657794
0.00653783
0.00649631
0.00643446
0.00641588
0.00694554
0.00702142
0.00704383
0.00704868
0.00705007
0.00704717
0.00704159
0.00703451
0.00702655
0.00701808
0.00700936
0.00700056
0.00699179
0.0069831
0.00697452
0.00696608
0.00695779
0.00694964
0.00694164
0.0069338
0.00692609
0.00691852
0.00691108
0.00690378
0.00689658
0.0068895
0.00688251
0.0068756
0.00686875
0.00686195
0.00685515
0.00684834
0.00684151
0.0068346
0.00682759
0.0068204
0.00681298
0.00680527
0.00679718
0.00678864
0.00677952
0.00676972
0.0067591
0.00674745
0.00673458
0.00672022
0.00670406
0.00668575
0.00666477
0.00664062
0.00661243
0.00658005
0.00654075
0.00650015
0.00644089
0.00642289
0.00695085
0.00701926
0.00704156
0.00704693
0.00704856
0.00704591
0.00704056
0.00703368
0.00702587
0.00701755
0.00700894
0.00700022
0.00699154
0.00698291
0.00697438
0.00696598
0.00695773
0.00694962
0.00694165
0.00693383
0.00692615
0.00691861
0.0069112
0.00690391
0.00689674
0.00688968
0.0068827
0.00687579
0.00686896
0.00686216
0.00685538
0.00684859
0.00684175
0.00683485
0.00682785
0.00682067
0.00681328
0.00680558
0.00679751
0.006789
0.00677991
0.00677016
0.00675957
0.00674799
0.00673518
0.00672092
0.00670489
0.00668671
0.00666593
0.00664207
0.00661425
0.00658238
0.00654394
0.00650432
0.0064477
0.00643015
0.00695587
0.00701744
0.00703946
0.00704524
0.00704707
0.00704466
0.00703952
0.00703283
0.00702519
0.00701698
0.00700848
0.00699985
0.00699122
0.00698265
0.00697417
0.00696582
0.00695761
0.00694953
0.00694161
0.00693381
0.00692616
0.00691864
0.00691125
0.00690399
0.00689684
0.00688979
0.00688284
0.00687596
0.00686914
0.00686234
0.00685558
0.0068488
0.00684198
0.00683511
0.00682811
0.00682095
0.00681356
0.00680589
0.00679785
0.00678937
0.00678034
0.00677062
0.00676009
0.00674857
0.00673585
0.00672169
0.00670579
0.0066878
0.00666723
0.00664365
0.00661626
0.00658494
0.00654744
0.00650884
0.00645488
0.00643769
0.00696067
0.00701593
0.00703752
0.00704362
0.00704563
0.00704344
0.00703851
0.007032
0.00702451
0.00701641
0.007008
0.00699947
0.00699089
0.00698238
0.00697395
0.00696563
0.00695744
0.0069494
0.0069415
0.00693373
0.0069261
0.00691861
0.00691125
0.006904
0.00689688
0.00688985
0.00688292
0.00687605
0.00686926
0.00686249
0.00685574
0.00684898
0.00684218
0.00683532
0.00682835
0.00682122
0.00681385
0.0068062
0.00679821
0.00678976
0.00678076
0.00677111
0.00676064
0.00674919
0.00673658
0.00672253
0.00670678
0.00668897
0.00666866
0.0066454
0.00661846
0.00658773
0.00655121
0.00651372
0.00646243
0.00644552
0.00696522
0.0070147
0.00703576
0.0070421
0.00704424
0.00704224
0.00703753
0.00703118
0.00702382
0.00701585
0.00700754
0.00699907
0.00699057
0.00698208
0.0069737
0.00696542
0.00695726
0.00694924
0.00694136
0.00693361
0.006926
0.00691853
0.00691119
0.00690396
0.00689686
0.00688985
0.00688294
0.0068761
0.00686932
0.00686257
0.00685585
0.00684911
0.00684234
0.00683551
0.00682854
0.00682144
0.00681411
0.0068065
0.00679854
0.00679014
0.0067812
0.00677159
0.0067612
0.00674985
0.00673734
0.00672343
0.00670784
0.00669024
0.00667019
0.00664729
0.00662085
0.00659077
0.00655528
0.00651892
0.00647032
0.00645368
0.00696958
0.00701374
0.00703415
0.00704067
0.00704291
0.00704109
0.00703657
0.0070304
0.00702318
0.00701531
0.00700709
0.0069987
0.00699024
0.00698181
0.00697345
0.0069652
0.00695707
0.00694907
0.0069412
0.00693347
0.00692588
0.00691843
0.0069111
0.00690388
0.00689679
0.00688981
0.00688291
0.0068761
0.00686933
0.00686262
0.0068559
0.00684919
0.00684245
0.00683563
0.00682872
0.00682163
0.00681434
0.00680677
0.00679885
0.0067905
0.00678162
0.00677209
0.00676179
0.00675053
0.00673813
0.00672437
0.00670897
0.00669159
0.00667185
0.00664933
0.00662342
0.00659404
0.00655963
0.00652449
0.00647855
0.00646218
0.00697372
0.00701301
0.00703269
0.00703933
0.00704165
0.00704
0.00703564
0.00702963
0.00702256
0.00701481
0.00700668
0.00699835
0.00698996
0.00698156
0.00697324
0.00696501
0.0069569
0.00694891
0.00694107
0.00693335
0.00692577
0.00691832
0.006911
0.0069038
0.00689672
0.00688975
0.00688287
0.00687607
0.00686932
0.00686262
0.00685592
0.00684923
0.00684252
0.00683573
0.00682883
0.00682179
0.00681453
0.006807
0.00679913
0.00679084
0.00678202
0.00677257
0.00676236
0.00675121
0.00673895
0.00672535
0.00671015
0.00669303
0.00667361
0.0066515
0.00662615
0.00659752
0.00656426
0.00653039
0.00648707
0.00647103
0.00697764
0.00701249
0.00703136
0.00703805
0.00704043
0.00703894
0.00703477
0.00702891
0.00702196
0.00701432
0.00700629
0.00699803
0.00698969
0.00698134
0.00697305
0.00696483
0.00695674
0.00694876
0.00694093
0.00693323
0.00692565
0.00691822
0.00691091
0.00690372
0.00689665
0.00688969
0.00688281
0.00687601
0.00686928
0.0068626
0.00685593
0.00684925
0.00684255
0.00683579
0.00682893
0.00682192
0.00681469
0.0068072
0.00679938
0.00679116
0.00678242
0.00677304
0.00676293
0.0067519
0.00673978
0.00672636
0.00671138
0.00669453
0.00667545
0.00665381
0.00662906
0.00660123
0.00656915
0.00653659
0.00649589
0.00648024
0.00698139
0.00701216
0.00703017
0.00703687
0.00703928
0.00703793
0.00703393
0.00702822
0.00702141
0.00701388
0.00700593
0.00699774
0.00698945
0.00698113
0.00697288
0.0069647
0.00695662
0.00694865
0.00694083
0.00693312
0.00692556
0.00691814
0.00691082
0.00690365
0.00689658
0.00688962
0.00688276
0.00687598
0.00686926
0.00686259
0.00685593
0.00684927
0.00684259
0.00683585
0.00682901
0.00682202
0.00681484
0.0068074
0.00679964
0.00679147
0.00678279
0.00677352
0.00676351
0.0067526
0.00674065
0.00672741
0.00671265
0.0066961
0.0066774
0.00665624
0.00663214
0.00660515
0.00657429
0.00654311
0.00650498
0.00648982
0.00698494
0.00701202
0.00702909
0.00703575
0.00703816
0.00703695
0.00703312
0.00702755
0.00702088
0.00701345
0.00700559
0.00699747
0.00698923
0.00698097
0.00697273
0.00696457
0.00695652
0.00694856
0.00694074
0.00693306
0.0069255
0.00691807
0.00691077
0.00690359
0.00689653
0.00688958
0.00688272
0.00687595
0.00686924
0.00686258
0.00685593
0.00684929
0.00684264
0.00683591
0.0068291
0.00682215
0.006815
0.00680761
0.00679989
0.00679179
0.00678319
0.006774
0.0067641
0.00675334
0.00674154
0.00672851
0.006714
0.00669775
0.00667946
0.0066588
0.00663539
0.00660927
0.00657967
0.00654992
0.00651434
0.00649978
0.00698833
0.00701203
0.00702814
0.00703469
0.00703711
0.00703601
0.00703233
0.00702691
0.00702036
0.00701306
0.00700528
0.00699722
0.00698904
0.00698082
0.00697262
0.00696448
0.00695644
0.00694849
0.00694069
0.00693301
0.00692545
0.00691803
0.00691073
0.00690357
0.00689651
0.00688957
0.00688271
0.00687594
0.00686924
0.00686258
0.00685595
0.00684934
0.00684268
0.00683599
0.00682921
0.00682229
0.00681518
0.00680783
0.00680016
0.00679213
0.00678362
0.00677453
0.00676474
0.00675411
0.00674249
0.00672967
0.00671543
0.00669952
0.00668163
0.00666153
0.00663883
0.00661363
0.00658533
0.00655704
0.00652397
0.00651009
0.00699155
0.00701218
0.00702728
0.00703371
0.0070361
0.00703509
0.00703155
0.0070263
0.00701987
0.00701268
0.00700498
0.00699701
0.00698888
0.00698069
0.00697253
0.0069644
0.00695638
0.00694846
0.00694065
0.00693299
0.00692543
0.00691801
0.00691072
0.00690356
0.0068965
0.00688957
0.00688271
0.00687595
0.00686926
0.00686261
0.006856
0.0068494
0.00684277
0.00683609
0.00682933
0.00682244
0.00681538
0.00680807
0.00680047
0.0067925
0.00678407
0.00677508
0.00676542
0.00675494
0.0067435
0.00673091
0.00671695
0.00670139
0.00668396
0.00666442
0.00664247
0.00661823
0.00659126
0.00656447
0.00653388
0.00652077
0.00699461
0.00701246
0.00702652
0.00703278
0.00703513
0.00703421
0.00703082
0.0070257
0.00701941
0.00701231
0.00700471
0.0069968
0.00698873
0.00698059
0.00697245
0.00696436
0.00695635
0.00694844
0.00694065
0.00693298
0.00692544
0.00691802
0.00691074
0.00690357
0.00689653
0.00688958
0.00688275
0.00687599
0.00686931
0.00686267
0.00685607
0.00684947
0.00684286
0.00683621
0.00682949
0.00682263
0.0068156
0.00680834
0.00680081
0.00679292
0.00678457
0.0067757
0.00676616
0.00675585
0.0067446
0.00673224
0.00671859
0.00670339
0.00668644
0.00666749
0.00664632
0.00662308
0.00659748
0.00657221
0.00654406
0.0065318
0.00699752
0.00701285
0.00702587
0.00703194
0.0070342
0.00703337
0.00703009
0.00702512
0.00701895
0.00701198
0.00700445
0.00699662
0.0069886
0.0069805
0.00697239
0.00696433
0.00695634
0.00694844
0.00694065
0.00693299
0.00692546
0.00691805
0.00691077
0.00690361
0.00689656
0.00688964
0.0068828
0.00687605
0.00686937
0.00686274
0.00685615
0.00684958
0.006843
0.00683637
0.00682966
0.00682285
0.00681586
0.00680866
0.00680119
0.00679337
0.00678513
0.00677637
0.00676697
0.00675683
0.00674578
0.00673369
0.00672034
0.00670555
0.00668909
0.00667077
0.00665042
0.00662821
0.00660398
0.00658027
0.00655454
0.0065432
0.00700031
0.00701335
0.00702531
0.00703114
0.00703332
0.00703254
0.00702939
0.00702454
0.00701851
0.00701164
0.00700422
0.00699645
0.00698849
0.00698043
0.00697236
0.00696431
0.00695634
0.00694846
0.00694069
0.00693303
0.0069255
0.0069181
0.00691082
0.00690367
0.00689663
0.00688971
0.00688287
0.00687613
0.00686946
0.00686285
0.00685627
0.00684972
0.00684315
0.00683655
0.00682988
0.00682309
0.00681615
0.00680902
0.00680162
0.00679388
0.00678573
0.0067771
0.00676786
0.00675789
0.00674707
0.00673525
0.00672223
0.00670785
0.00669192
0.00667427
0.00665476
0.00663363
0.00661081
0.00658866
0.00656531
0.00655493
0.00700296
0.00701391
0.00702483
0.0070304
0.00703249
0.00703174
0.0070287
0.00702398
0.00701807
0.0070113
0.00700397
0.00699629
0.00698838
0.00698037
0.00697233
0.0069643
0.00695636
0.00694848
0.00694072
0.00693308
0.00692556
0.00691816
0.00691088
0.00690374
0.0068967
0.00688978
0.00688296
0.00687623
0.00686956
0.00686296
0.00685641
0.00684987
0.00684332
0.00683676
0.00683012
0.00682338
0.0068165
0.00680942
0.00680208
0.00679444
0.0067864
0.00677789
0.00676881
0.00675904
0.00674846
0.00673692
0.00672427
0.00671033
0.00669494
0.00667798
0.00665936
0.00663933
0.00661794
0.00659739
0.00657637
0.006567
0.00700548
0.00701456
0.00702445
0.00702972
0.0070317
0.00703098
0.00702803
0.00702344
0.00701764
0.00701098
0.00700374
0.00699613
0.00698828
0.00698031
0.0069723
0.00696432
0.00695638
0.00694853
0.00694078
0.00693314
0.00692562
0.00691823
0.00691096
0.00690382
0.0068968
0.00688988
0.00688307
0.00687634
0.0068697
0.00686311
0.00685657
0.00685005
0.00684354
0.00683699
0.00683039
0.00682371
0.00681687
0.00680986
0.0068026
0.00679506
0.00678714
0.00677876
0.00676985
0.00676029
0.00674995
0.00673872
0.00672644
0.00671297
0.00669816
0.00668193
0.00666421
0.00664531
0.00662538
0.00660644
0.00658774
0.00657939
0.0070079
0.00701525
0.00702413
0.0070291
0.00703095
0.00703024
0.00702739
0.0070229
0.00701721
0.00701067
0.00700352
0.00699597
0.00698819
0.00698027
0.00697229
0.00696434
0.00695642
0.00694858
0.00694085
0.00693322
0.0069257
0.00691832
0.00691106
0.00690392
0.0068969
0.00688999
0.00688319
0.00687648
0.00686984
0.00686327
0.00685675
0.00685025
0.00684377
0.00683726
0.0068307
0.00682405
0.00681729
0.00681033
0.00680317
0.00679573
0.00678793
0.00677971
0.00677097
0.00676163
0.00675155
0.00674065
0.00672878
0.00671579
0.0067016
0.00668612
0.00666934
0.0066516
0.00663315
0.00661582
0.00659938
0.00659209
0.00701021
0.00701599
0.00702388
0.00702853
0.00703025
0.00702953
0.00702676
0.00702238
0.00701679
0.00701034
0.00700329
0.00699581
0.00698809
0.00698021
0.00697228
0.00696435
0.00695645
0.00694863
0.0069409
0.00693329
0.00692578
0.00691841
0.00691116
0.00690403
0.00689702
0.00689011
0.00688332
0.00687662
0.00687
0.00686344
0.00685694
0.00685047
0.00684401
0.00683754
0.00683102
0.00682443
0.00681773
0.00681086
0.00680378
0.00679645
0.00678878
0.00678073
0.00677218
0.00676307
0.00675328
0.00674271
0.00673125
0.00671879
0.00670523
0.00669053
0.00667475
0.0066582
0.00664123
0.00662553
0.00661133
0.00660509
0.00701242
0.00701674
0.00702369
0.00702801
0.00702959
0.00702885
0.00702614
0.00702186
0.00701638
0.00701004
0.00700307
0.00699567
0.00698799
0.00698017
0.00697226
0.00696436
0.0069565
0.00694869
0.00694097
0.00693337
0.00692587
0.00691851
0.00691126
0.00690414
0.00689714
0.00689025
0.00688346
0.00687678
0.00687017
0.00686364
0.00685715
0.00685072
0.00684429
0.00683786
0.00683139
0.00682485
0.00681821
0.00681143
0.00680445
0.00679723
0.00678971
0.00678181
0.00677347
0.00676461
0.00675512
0.00674492
0.00673391
0.00672199
0.00670908
0.0066952
0.00668042
0.00666509
0.00664963
0.00663557
0.00662356
0.00661838
0.00701455
0.00701751
0.00702355
0.00702755
0.00702896
0.00702819
0.00702554
0.00702134
0.00701597
0.00700971
0.00700282
0.0069955
0.00698788
0.00698011
0.00697225
0.00696437
0.00695652
0.00694874
0.00694104
0.00693345
0.00692597
0.00691861
0.00691136
0.00690425
0.00689727
0.00689038
0.00688361
0.00687694
0.00687035
0.00686384
0.00685739
0.00685098
0.00684459
0.00683819
0.00683177
0.0068253
0.00681874
0.00681203
0.00680516
0.00679806
0.00679069
0.00678298
0.00677486
0.00676625
0.00675709
0.00674727
0.00673671
0.00672536
0.00671316
0.00670012
0.00668639
0.0066723
0.00665836
0.00664594
0.00663607
0.00663197
0.00701659
0.00701827
0.00702344
0.00702712
0.00702838
0.00702757
0.00702495
0.00702085
0.00701557
0.00700939
0.00700258
0.00699533
0.00698777
0.00698004
0.00697221
0.00696437
0.00695654
0.00694878
0.00694111
0.00693352
0.00692606
0.00691871
0.00691148
0.00690438
0.00689739
0.00689053
0.00688377
0.00687711
0.00687055
0.00686405
0.00685763
0.00685125
0.0068449
0.00683856
0.00683219
0.00682577
0.00681928
0.00681269
0.00680592
0.00679896
0.00679174
0.00678422
0.00677633
0.006768
0.00675917
0.00674975
0.0067397
0.00672893
0.00671744
0.0067053
0.00669262
0.00667981
0.0066674
0.00665663
0.00664886
0.00664582
0.00701855
0.007019
0.00702337
0.00702672
0.00702783
0.00702697
0.00702439
0.00702035
0.00701515
0.00700907
0.00700233
0.00699515
0.00698765
0.00697996
0.00697218
0.00696436
0.00695656
0.00694882
0.00694115
0.00693358
0.00692614
0.0069188
0.00691158
0.00690449
0.00689753
0.00689067
0.00688393
0.00687729
0.00687074
0.00686428
0.00685788
0.00685154
0.00684522
0.00683894
0.00683263
0.00682629
0.00681988
0.00681337
0.00680673
0.00679991
0.00679286
0.00678554
0.0067779
0.00676986
0.00676138
0.00675239
0.00674285
0.0067327
0.00672197
0.00671072
0.00669914
0.00668762
0.00667675
0.00666765
0.00666191
0.00665993
0.00702042
0.0070197
0.00702332
0.00702637
0.00702732
0.0070264
0.00702385
0.00701986
0.00701474
0.00700873
0.00700207
0.00699495
0.0069875
0.00697986
0.00697212
0.00696434
0.00695657
0.00694885
0.0069412
0.00693364
0.0069262
0.00691888
0.00691168
0.00690461
0.00689765
0.00689081
0.00688409
0.00687746
0.00687095
0.00686451
0.00685814
0.00685184
0.00684558
0.00683933
0.00683309
0.00682682
0.0068205
0.0068141
0.00680758
0.00680091
0.00679405
0.00678695
0.00677956
0.00677183
0.00676372
0.00675518
0.00674617
0.00673666
0.00672671
0.00671641
0.00670594
0.00669574
0.00668642
0.00667898
0.00667523
0.00667429
0.00702223
0.00702034
0.00702327
0.00702605
0.00702685
0.00702587
0.00702332
0.00701939
0.00701434
0.0070084
0.00700181
0.00699474
0.00698735
0.00697976
0.00697205
0.00696429
0.00695655
0.00694885
0.00694122
0.0069337
0.00692626
0.00691895
0.00691176
0.00690471
0.00689777
0.00689094
0.00688424
0.00687765
0.00687116
0.00686474
0.00685842
0.00685215
0.00684594
0.00683974
0.00683357
0.00682739
0.00682115
0.00681487
0.00680849
0.00680198
0.00679531
0.00678843
0.00678132
0.00677392
0.00676619
0.00675812
0.00674966
0.00674083
0.00673169
0.00672234
0.00671303
0.00670415
0.00669638
0.0066906
0.00668881
0.00668889
0.00702393
0.00702092
0.00702323
0.00702575
0.0070264
0.00702535
0.00702281
0.00701893
0.00701393
0.00700806
0.00700153
0.00699453
0.00698718
0.00697964
0.00697196
0.00696424
0.00695652
0.00694884
0.00694123
0.00693372
0.00692631
0.00691901
0.00691184
0.00690479
0.00689787
0.00689107
0.00688439
0.00687782
0.00687135
0.00686498
0.00685868
0.00685247
0.0068463
0.00684017
0.00683408
0.00682797
0.00682185
0.00681569
0.00680944
0.00680311
0.00679663
0.00678999
0.00678316
0.0067761
0.00676879
0.0067612
0.00675333
0.0067452
0.00673688
0.00672852
0.00672038
0.00671286
0.00670664
0.00670251
0.00670262
0.00670371
0.00702551
0.00702139
0.00702319
0.0070255
0.007026
0.00702488
0.00702234
0.00701849
0.00701355
0.00700773
0.00700125
0.00699429
0.006987
0.00697949
0.00697186
0.00696416
0.00695647
0.00694882
0.00694122
0.00693372
0.00692633
0.00691907
0.0069119
0.00690487
0.00689798
0.0068912
0.00688454
0.00687799
0.00687156
0.00686522
0.00685897
0.0068528
0.00684669
0.00684063
0.0068346
0.00682859
0.00682258
0.00681653
0.00681044
0.00680429
0.00679802
0.00679164
0.00678511
0.0067784
0.00677151
0.00676444
0.00675717
0.00674977
0.0067423
0.00673496
0.00672799
0.00672183
0.00671716
0.00671468
0.00671665
0.00671872
0.00702691
0.00702178
0.00702315
0.00702526
0.00702564
0.00702446
0.00702191
0.00701808
0.00701318
0.00700741
0.00700098
0.00699407
0.00698682
0.00697934
0.00697173
0.00696407
0.0069564
0.00694876
0.0069412
0.00693372
0.00692635
0.00691909
0.00691196
0.00690495
0.00689806
0.0068913
0.00688468
0.00687816
0.00687175
0.00686546
0.00685925
0.00685313
0.00684708
0.00684108
0.00683514
0.00682923
0.00682332
0.00681742
0.00681149
0.00680552
0.00679948
0.00679335
0.00678714
0.00678081
0.00677436
0.0067678
0.00676117
0.00675451
0.00674792
0.00674161
0.00673584
0.00673106
0.00672793
0.00672711
0.00673088
0.00673393
0.00702802
0.0070221
0.00702313
0.00702508
0.00702536
0.00702411
0.00702153
0.00701772
0.00701285
0.00700712
0.00700072
0.00699384
0.00698663
0.00697919
0.00697161
0.00696397
0.00695632
0.00694871
0.00694116
0.0069337
0.00692635
0.0069191
0.00691199
0.006905
0.00689814
0.00689141
0.0068848
0.00687832
0.00687194
0.00686569
0.00685953
0.00685345
0.00684747
0.00684156
0.0068357
0.00682989
0.00682411
0.00681833
0.00681257
0.00680679
0.00680098
0.00679514
0.00678925
0.00678331
0.00677732
0.00677131
0.00676532
0.00675942
0.00675373
0.00674846
0.00674391
0.00674051
0.00673892
0.00673972
0.00674527
0.00674928