/*--------------------------------*- C++ -*----------------------------------*\
  =========                 |
  \\      /  F ield         | OpenFOAM: The Open Source CFD Toolbox
   \\    /   O peration     | Website:  https://openfoam.org
    \\  /    A nd           | Version:  6
     \\/     M anipulation  |
\*---------------------------------------------------------------------------*/
FoamFile
{
    version     2.0;
    format      ascii;
    class       volVectorField;
    location    "0.001";
    object      U;
}
// * * * * * * * * * * * * * * * * * * * * * * * * * * * * * * * * * * * * * //

dimensions      [0 1 -1 0 0 0 0];

internalField   nonuniform List<vector> 
16000
(
(-0.312314 -0.00214468 -0.00260079)
(-0.311344 -0.0034064 -0.00339958)
(-0.299275 -0.00265559 -0.00163361)
(-0.294338 -0.00195914 -0.000880874)
(-0.291389 -0.00140929 -0.000531011)
(-0.28929 -0.00100272 -0.000341464)
(-0.287874 -0.000730425 -0.000239148)
(-0.286851 -0.000565705 -0.000157969)
(-0.286095 -0.000450981 -8.31244e-05)
(-0.285557 -0.000365582 -3.36077e-05)
(-0.2852 -0.000322662 -9.81317e-06)
(-0.284833 -0.000319878 -1.28311e-05)
(-0.284425 -0.000313845 2.82806e-05)
(-0.284377 -0.000247825 8.11539e-05)
(-0.284125 -0.000132811 8.52047e-05)
(-0.284073 -7.30936e-05 4.95325e-05)
(-0.284174 -0.000180374 -2.10406e-05)
(-0.283801 -0.000320513 -4.4803e-05)
(-0.283415 -0.000396941 -2.98431e-05)
(-0.282945 -0.000459364 -1.72696e-05)
(-0.282435 -0.000516354 -2.8761e-06)
(-0.281889 -0.000573311 1.11886e-05)
(-0.281299 -0.000646977 2.60719e-05)
(-0.280634 -0.000750886 4.68952e-05)
(-0.279919 -0.000877047 6.50343e-05)
(-0.278989 -0.00102416 0.000105301)
(-0.278023 -0.00120835 7.87555e-05)
(-0.276868 -0.00137304 -4.11325e-05)
(-0.275235 -0.00153671 -3.79752e-05)
(-0.273586 -0.0018038 1.64923e-05)
(-0.27165 -0.00212634 1.32896e-05)
(-0.26924 -0.00250419 4.25704e-05)
(-0.266615 -0.00295973 6.03067e-05)
(-0.263406 -0.00349164 6.60733e-05)
(-0.259665 -0.00410714 8.20076e-05)
(-0.255274 -0.00483046 0.000104653)
(-0.250127 -0.00568692 0.000135896)
(-0.244094 -0.0067056 0.000179571)
(-0.237021 -0.0079243 0.000242513)
(-0.228726 -0.00939267 0.000336282)
(-0.218999 -0.0111767 0.000480952)
(-0.207599 -0.0133709 0.000708112)
(-0.194255 -0.0161088 0.00107386)
(-0.178656 -0.019601 0.00166494)
(-0.160492 -0.0241658 0.00263982)
(-0.139387 -0.0303517 0.00424282)
(-0.114963 -0.0390448 0.00688586)
(-0.0874372 -0.052017 0.0113502)
(-0.057692 -0.0730347 0.0198533)
(0.000586035 -0.132632 0.0295107)
(-0.196828 -0.00366395 -0.00477669)
(-0.200339 -0.0064608 -0.00618614)
(-0.184218 -0.005678 -0.0028881)
(-0.179309 -0.00430917 -0.00132261)
(-0.177237 -0.00314767 -0.000752759)
(-0.175665 -0.00227647 -0.000457444)
(-0.174736 -0.00167893 -0.000347532)
(-0.173908 -0.00130198 -0.000281855)
(-0.173282 -0.00107135 -0.000153589)
(-0.172867 -0.000924386 -6.67797e-05)
(-0.172588 -0.000853367 -2.96054e-05)
(-0.172354 -0.000853024 -4.17551e-05)
(-0.171974 -0.000884176 -7.48545e-05)
(-0.171645 -0.000927464 -4.77602e-05)
(-0.171214 -0.000801808 0.000184336)
(-0.171087 -0.000554871 0.000386644)
(-0.171501 -0.000500846 0.000167218)
(-0.171564 -0.000770325 -0.000108682)
(-0.171135 -0.00106746 -0.000108991)
(-0.170663 -0.00128409 -6.8974e-05)
(-0.170165 -0.00146599 -4.92291e-05)
(-0.169637 -0.00165707 -8.28414e-06)
(-0.169119 -0.00186895 3.14477e-05)
(-0.168529 -0.00219069 4.5754e-05)
(-0.167882 -0.00269382 4.60429e-05)
(-0.166872 -0.00319495 0.000123021)
(-0.165935 -0.00360655 0.000104289)
(-0.165131 -0.00404254 -9.88959e-05)
(-0.163416 -0.00459852 -9.70272e-05)
(-0.161769 -0.00534838 7.34823e-05)
(-0.160263 -0.00626876 7.52832e-05)
(-0.158132 -0.0073672 3.05488e-05)
(-0.155717 -0.00867683 6.49321e-06)
(-0.152747 -0.0102341 1.06835e-06)
(-0.149301 -0.0120508 2.10709e-05)
(-0.145278 -0.014183 4.05601e-05)
(-0.140584 -0.0166997 6.51326e-05)
(-0.135104 -0.0196857 9.93268e-05)
(-0.128712 -0.0232478 0.000147023)
(-0.121262 -0.0275253 0.000216328)
(-0.112595 -0.0327031 0.0003236)
(-0.10254 -0.0390382 0.00048934)
(-0.0909499 -0.0468905 0.000753122)
(-0.0776616 -0.0567922 0.00115819)
(-0.062655 -0.0695249 0.00179654)
(-0.0458556 -0.0863337 0.00271042)
(-0.0275629 -0.109089 0.00403811)
(-0.00752546 -0.141067 0.00561635)
(0.014177 -0.186211 0.00752497)
(0.0419856 -0.254548 0.00877463)
(-0.13785 -0.00255985 -0.00604949)
(-0.141828 -0.00490065 -0.00804485)
(-0.122446 -0.00483576 -0.00397416)
(-0.116761 -0.00396209 -0.00172313)
(-0.114746 -0.0030595 -0.00076673)
(-0.113711 -0.00234105 -0.000407068)
(-0.113156 -0.00180666 -0.000263194)
(-0.112727 -0.00144471 -0.000184043)
(-0.11239 -0.00123318 -0.000128534)
(-0.112157 -0.0011308 -7.8171e-05)
(-0.112005 -0.00110724 -4.8034e-05)
(-0.111865 -0.0011293 -6.10482e-05)
(-0.111701 -0.0011979 -0.000146129)
(-0.111203 -0.0013808 -0.000219986)
(-0.110862 -0.00162491 -0.000112243)
(-0.110552 -0.00162729 0.000271898)
(-0.110383 -0.00141014 0.000567359)
(-0.11088 -0.00118882 0.000246743)
(-0.11102 -0.00134071 -0.000182753)
(-0.11047 -0.00177506 -0.000160111)
(-0.110041 -0.0021697 -6.5211e-05)
(-0.109605 -0.00250162 -2.3982e-05)
(-0.109361 -0.00293715 3.4225e-05)
(-0.108695 -0.00347153 0.000109541)
(-0.108192 -0.00409428 5.91188e-05)
(-0.107801 -0.00473698 -9.56811e-05)
(-0.107003 -0.00540624 -9.75256e-05)
(-0.106091 -0.00627348 -2.18804e-05)
(-0.104915 -0.00726808 3.03731e-05)
(-0.103773 -0.00843439 5.03495e-05)
(-0.102397 -0.00986896 5.93394e-05)
(-0.100808 -0.0115367 6.80066e-05)
(-0.0989262 -0.0135539 4.69075e-05)
(-0.0966478 -0.0159613 3.34458e-05)
(-0.0939602 -0.0187551 3.6528e-05)
(-0.0908431 -0.0220215 4.61063e-05)
(-0.0872408 -0.025866 5.95864e-05)
(-0.0830778 -0.0304055 7.77775e-05)
(-0.0782788 -0.0357795 0.000104729)
(-0.0727714 -0.042167 0.000143062)
(-0.0664849 -0.0497981 0.000199262)
(-0.0593627 -0.0589718 0.0002777)
(-0.051395 -0.0700814 0.000396349)
(-0.0426104 -0.0836496 0.000558062)
(-0.0331866 -0.100429 0.000782744)
(-0.0232596 -0.121453 0.00100949)
(-0.0134299 -0.14816 0.00123674)
(-0.00385625 -0.18261 0.00115639)
(0.00423781 -0.227895 0.000771513)
(0.00794815 -0.288564 -0.000697735)
(-0.109802 -0.00142298 -0.00672764)
(-0.113709 -0.00279622 -0.00901808)
(-0.0920834 -0.00288717 -0.00449584)
(-0.0856691 -0.00253095 -0.00187548)
(-0.0836746 -0.00214058 -0.000790151)
(-0.0828106 -0.00178726 -0.000401684)
(-0.0824979 -0.00148216 -0.000234746)
(-0.0823116 -0.00125266 -0.000141108)
(-0.0822368 -0.001113 -9.5272e-05)
(-0.0821483 -0.0010494 -7.84944e-05)
(-0.0821068 -0.00104986 -7.93764e-05)
(-0.0820886 -0.00109341 -8.85183e-05)
(-0.0819865 -0.00117648 -8.02954e-05)
(-0.0819543 -0.00133527 -0.000132702)
(-0.081696 -0.00165524 -0.000220459)
(-0.0814569 -0.00206704 -0.000203856)
(-0.0814164 -0.00229364 -0.000129131)
(-0.0809135 -0.00223489 0.000213825)
(-0.0806305 -0.0022479 0.000508127)
(-0.0810608 -0.00235512 0.000102406)
(-0.0809024 -0.00246041 -0.000200842)
(-0.0804584 -0.00271542 1.32689e-05)
(-0.0805196 -0.00342792 4.43475e-05)
(-0.0803145 -0.004335 -4.19158e-05)
(-0.0798494 -0.00507221 -9.17424e-05)
(-0.0794169 -0.00581475 -0.000172903)
(-0.0782274 -0.00673807 -0.000142244)
(-0.0774047 -0.00790955 0.000129929)
(-0.077199 -0.00917478 0.000196364)
(-0.0764241 -0.0105817 6.35001e-05)
(-0.075868 -0.0123807 0.000105022)
(-0.0751075 -0.0146181 0.000189037)
(-0.0740762 -0.0172319 9.25797e-05)
(-0.0727292 -0.0201348 2.1082e-06)
(-0.071003 -0.0235298 5.55984e-06)
(-0.069077 -0.0275325 2.28927e-05)
(-0.0668982 -0.03223 2.59182e-05)
(-0.0644079 -0.0377362 2.81207e-05)
(-0.0615827 -0.0441918 3.37415e-05)
(-0.0583898 -0.0517719 3.85095e-05)
(-0.0548394 -0.0606834 4.07775e-05)
(-0.0509303 -0.0711776 3.15239e-05)
(-0.0467117 -0.0835624 1.02848e-05)
(-0.0422681 -0.0982332 -5.20341e-05)
(-0.0377514 -0.115655 -0.000176366)
(-0.0333335 -0.136409 -0.000457818)
(-0.0293908 -0.161302 -0.00097425)
(-0.0261091 -0.191219 -0.0019598)
(-0.0243051 -0.227278 -0.00355119)
(-0.0291432 -0.269167 -0.00495022)
(-0.0985528 -0.000437124 -0.00705116)
(-0.102407 -0.00087227 -0.00945569)
(-0.0797069 -0.000959942 -0.00467873)
(-0.073013 -0.000982743 -0.0018936)
(-0.0709387 -0.00100207 -0.000792835)
(-0.0700868 -0.000966448 -0.000401369)
(-0.0698103 -0.000891202 -0.000226408)
(-0.0696821 -0.000826496 -0.00013393)
(-0.0696786 -0.000799659 -8.23388e-05)
(-0.0697232 -0.000809624 -5.66169e-05)
(-0.0697453 -0.000842005 -4.50208e-05)
(-0.0697735 -0.000909641 -3.90922e-05)
(-0.0697993 -0.00101379 -3.968e-05)
(-0.0698103 -0.00115421 -5.34625e-05)
(-0.0698155 -0.00134282 -7.73932e-05)
(-0.0697886 -0.00160304 -0.000103362)
(-0.0698261 -0.002014 -0.000153481)
(-0.0696537 -0.00251158 -0.000267548)
(-0.069631 -0.00278366 -0.000386409)
(-0.0690347 -0.0028824 -0.00028013)
(-0.0686654 -0.00311021 0.000211051)
(-0.0685563 -0.00357557 0.000631333)
(-0.0686904 -0.00420986 0.000539169)
(-0.0693544 -0.00484609 -1.45196e-05)
(-0.0689309 -0.00546101 -0.000208476)
(-0.068743 -0.00625917 -0.000181519)
(-0.0682141 -0.00729264 -0.000233117)
(-0.06798 -0.00858694 -8.74873e-05)
(-0.0676372 -0.0100177 2.50943e-05)
(-0.0674999 -0.0117522 0.000230951)
(-0.0674867 -0.0137471 0.000372434)
(-0.0675167 -0.0162432 0.000169809)
(-0.0675915 -0.0190896 -5.59952e-05)
(-0.0669263 -0.0222063 -1.41797e-05)
(-0.066453 -0.025889 4.66416e-05)
(-0.0659312 -0.0302304 2.92496e-05)
(-0.0653029 -0.0352944 1.47606e-05)
(-0.0645916 -0.041187 2.53811e-06)
(-0.0638218 -0.0480378 -8.95506e-06)
(-0.0629896 -0.0559858 -2.64077e-05)
(-0.062135 -0.0651953 -5.53699e-05)
(-0.0612706 -0.0758429 -0.00011103)
(-0.0604503 -0.0881174 -0.000206192)
(-0.0597132 -0.102215 -0.000386668)
(-0.0591204 -0.118328 -0.000688406)
(-0.0587551 -0.136661 -0.00121911)
(-0.0587469 -0.157401 -0.00209577)
(-0.0591659 -0.180654 -0.00349456)
(-0.0604984 -0.206424 -0.00548351)
(-0.0678136 -0.233927 -0.00690306)
(-0.0985045 0.000516853 -0.00699529)
(-0.102445 0.000980434 -0.00938752)
(-0.0798521 0.000920929 -0.00459144)
(-0.0733323 0.000517803 -0.00190429)
(-0.0712279 0.000118026 -0.000902283)
(-0.0702042 -0.000114774 -0.000489891)
(-0.0698201 -0.000237738 -0.000259426)
(-0.0697179 -0.000324491 -0.00014258)
(-0.0697427 -0.000404063 -8.34346e-05)
(-0.0697985 -0.000491185 -5.01951e-05)
(-0.0698862 -0.000588228 -3.15592e-05)
(-0.0699699 -0.00069771 -2.38023e-05)
(-0.070048 -0.000825436 -2.19441e-05)
(-0.0701159 -0.000972721 -2.57216e-05)
(-0.0701723 -0.00114537 -3.42187e-05)
(-0.0702186 -0.00134878 -4.62255e-05)
(-0.0702628 -0.0015945 -6.05738e-05)
(-0.0703103 -0.00185836 -8.08622e-05)
(-0.0703064 -0.0021878 -0.000100269)
(-0.0702596 -0.00269068 -0.000108395)
(-0.070265 -0.00340474 -8.86808e-05)
(-0.0704066 -0.00411682 -0.000173022)
(-0.070472 -0.00451909 -0.000265851)
(-0.0706614 -0.00481331 -0.000168166)
(-0.0706931 -0.00536487 1.06253e-05)
(-0.0707755 -0.00619363 0.000127627)
(-0.0707922 -0.00717318 9.38772e-05)
(-0.0710712 -0.0085435 7.7195e-05)
(-0.0712014 -0.0101088 9.19047e-05)
(-0.0715206 -0.01202 0.000247183)
(-0.072057 -0.0140872 0.000361415)
(-0.0728228 -0.0163174 0.00012501)
(-0.0736594 -0.0189412 -8.32731e-05)
(-0.0739102 -0.0221054 3.14372e-06)
(-0.0746392 -0.0257818 6.32489e-05)
(-0.0754631 -0.0300495 1.97294e-05)
(-0.0763694 -0.0350058 -2.23556e-06)
(-0.0774184 -0.0407481 -1.73616e-05)
(-0.0786514 -0.04739 -3.22486e-05)
(-0.0800979 -0.055052 -5.3766e-05)
(-0.0817907 -0.0638565 -8.76981e-05)
(-0.083744 -0.0739233 -0.000148446)
(-0.0859829 -0.0853549 -0.000250335)
(-0.0884778 -0.0982208 -0.000433416)
(-0.0912153 -0.112514 -0.000738672)
(-0.0940488 -0.128136 -0.00127301)
(-0.0969123 -0.144797 -0.00213842)
(-0.0995599 -0.162017 -0.00351105)
(-0.102174 -0.179004 -0.00545104)
(-0.109461 -0.194987 -0.00681316)
(-0.109666 0.00147319 -0.00658175)
(-0.113809 0.00284 -0.00880589)
(-0.0925245 0.00282078 -0.00422013)
(-0.0865523 0.00212999 -0.00189653)
(-0.0844823 0.0013827 -0.00112174)
(-0.0831513 0.000870333 -0.000678819)
(-0.0825762 0.000540907 -0.000347101)
(-0.0824023 0.000289409 -0.000179667)
(-0.0823939 7.90716e-05 -9.81732e-05)
(-0.0824638 -0.000103644 -5.45522e-05)
(-0.0825566 -0.000269215 -3.20276e-05)
(-0.0826572 -0.000427566 -2.06303e-05)
(-0.0827588 -0.000585049 -1.54546e-05)
(-0.0828598 -0.000747561 -1.43825e-05)
(-0.0829613 -0.000921559 -1.6346e-05)
(-0.0830669 -0.00111371 -2.06999e-05)
(-0.0831815 -0.00133093 -2.73915e-05)
(-0.0833076 -0.00157881 -3.8697e-05)
(-0.0834401 -0.00186728 -5.86926e-05)
(-0.0835749 -0.00221447 -8.84744e-05)
(-0.0837066 -0.00262963 -0.000129674)
(-0.0838269 -0.00307287 -0.000148065)
(-0.0839612 -0.00353902 -0.000123693)
(-0.0842194 -0.00415406 -2.64806e-05)
(-0.0845905 -0.00497432 6.28366e-05)
(-0.0851773 -0.00592114 4.23059e-05)
(-0.0855324 -0.00685906 2.36662e-05)
(-0.0859135 -0.00798855 0.000262535)
(-0.0872969 -0.0093783 0.000215525)
(-0.0882481 -0.0109845 -0.000103999)
(-0.0889832 -0.0128038 -1.82867e-05)
(-0.0902766 -0.014752 7.48251e-05)
(-0.0915603 -0.0170781 -1.18697e-05)
(-0.0930553 -0.019925 1.89059e-05)
(-0.0947854 -0.0232218 3.59889e-05)
(-0.0968374 -0.027031 1.923e-06)
(-0.0991868 -0.0314541 -2.06112e-05)
(-0.101892 -0.0365872 -2.99268e-05)
(-0.10502 -0.0425315 -3.66287e-05)
(-0.108618 -0.0493947 -4.52463e-05)
(-0.112737 -0.0572887 -5.63257e-05)
(-0.1174 -0.0663204 -7.75236e-05)
(-0.122625 -0.0765764 -0.00011275)
(-0.128345 -0.0881032 -0.000188951)
(-0.134474 -0.100847 -0.000326856)
(-0.140676 -0.11462 -0.000616928)
(-0.146609 -0.128902 -0.00111588)
(-0.15143 -0.142813 -0.00204052)
(-0.15484 -0.154693 -0.00347664)
(-0.160298 -0.163311 -0.00469186)
(-0.137679 0.00248641 -0.00583844)
(-0.142005 0.00464462 -0.00767818)
(-0.123072 0.00443228 -0.0035742)
(-0.117774 0.0035577 -0.00172692)
(-0.11573 0.00267411 -0.0012352)
(-0.114152 0.00195903 -0.000815855)
(-0.113287 0.00138953 -0.000415927)
(-0.112955 0.000923009 -0.000208934)
(-0.112847 0.000558122 -0.000111953)
(-0.112838 0.000269888 -6.11347e-05)
(-0.112878 3.7286e-05 -3.4442e-05)
(-0.112946 -0.000157278 -2.05324e-05)
(-0.113033 -0.000330767 -1.34207e-05)
(-0.113135 -0.000493314 -1.02365e-05)
(-0.113251 -0.000652544 -9.502e-06)
(-0.113384 -0.000816797 -1.04774e-05)
(-0.113537 -0.000992914 -1.29354e-05)
(-0.113712 -0.00118646 -1.71308e-05)
(-0.11391 -0.00140404 -2.30421e-05)
(-0.114136 -0.00165533 -2.90151e-05)
(-0.114396 -0.00195166 -3.19203e-05)
(-0.114704 -0.00230901 -2.74644e-05)
(-0.115083 -0.00274864 -1.61246e-05)
(-0.115575 -0.00327233 -1.19268e-06)
(-0.116211 -0.00389303 -7.26598e-07)
(-0.116916 -0.00465901 -6.75274e-06)
(-0.117767 -0.00550618 1.55553e-05)
(-0.118782 -0.00639624 3.04357e-05)
(-0.119905 -0.00746765 -1.45076e-06)
(-0.121165 -0.00873363 -1.68582e-05)
(-0.122614 -0.0101292 1.05608e-05)
(-0.124351 -0.0117364 1.41879e-05)
(-0.12635 -0.0136094 -1.10443e-05)
(-0.128634 -0.01581 -1.82854e-05)
(-0.131301 -0.0184058 -1.61759e-05)
(-0.134411 -0.0214278 -2.17739e-05)
(-0.13802 -0.0249479 -2.70072e-05)
(-0.142204 -0.0290542 -2.77531e-05)
(-0.14705 -0.0338425 -2.20373e-05)
(-0.15265 -0.0394215 -7.77193e-06)
(-0.159104 -0.0459161 2.18431e-05)
(-0.166499 -0.0534646 7.16122e-05)
(-0.174927 -0.0622169 0.000158196)
(-0.184396 -0.0723217 0.000283007)
(-0.194906 -0.083897 0.000475381)
(-0.206102 -0.0969857 0.000685687)
(-0.217517 -0.111397 0.000918379)
(-0.227505 -0.126485 0.000953075)
(-0.234604 -0.140516 0.000899692)
(-0.235946 -0.149195 -0.000110552)
(-0.19718 0.00347552 -0.00464848)
(-0.20084 0.00604405 -0.00607788)
(-0.185277 0.00522637 -0.00288453)
(-0.180479 0.00409964 -0.00155518)
(-0.177878 0.00318355 -0.00100201)
(-0.176179 0.00235852 -0.000557988)
(-0.175116 0.00163914 -0.000280209)
(-0.174545 0.00108494 -0.000151507)
(-0.174197 0.000681288 -8.15223e-05)
(-0.174004 0.000393623 -4.39516e-05)
(-0.173926 0.000182882 -2.52867e-05)
(-0.17391 1.08696e-05 -1.7152e-05)
(-0.173935 -0.000133408 -1.19902e-05)
(-0.174008 -0.000258369 -8.25098e-06)
(-0.174114 -0.000376274 -6.58219e-06)
(-0.174254 -0.000491237 -6.14569e-06)
(-0.174428 -0.000610331 -6.58994e-06)
(-0.174638 -0.000739111 -7.73207e-06)
(-0.174887 -0.000883246 -9.43029e-06)
(-0.17518 -0.00104908 -1.1417e-05)
(-0.175526 -0.00124324 -1.31906e-05)
(-0.175935 -0.00147274 -1.24314e-05)
(-0.176406 -0.00174373 -1.49926e-05)
(-0.17703 -0.00205829 -5.07985e-06)
(-0.177641 -0.00241298 0.000101752)
(-0.178723 -0.00285921 7.53467e-05)
(-0.179906 -0.00341534 -9.72608e-05)
(-0.180946 -0.00408185 -3.29303e-05)
(-0.182243 -0.00480559 2.63303e-06)
(-0.183873 -0.00561913 -8.2297e-05)
(-0.185701 -0.00651641 -4.77391e-05)
(-0.187794 -0.00754343 -6.97228e-06)
(-0.190376 -0.00872374 -1.06383e-05)
(-0.193292 -0.0101236 -1.42125e-05)
(-0.196698 -0.0117766 -2.16448e-05)
(-0.200646 -0.0137185 -3.14588e-05)
(-0.205242 -0.0159998 -3.19656e-05)
(-0.210606 -0.0186838 -2.31426e-05)
(-0.216878 -0.0218492 -3.37562e-06)
(-0.224216 -0.0255944 3.4275e-05)
(-0.232821 -0.0300467 0.000104067)
(-0.242925 -0.0353692 0.000224752)
(-0.254834 -0.0417821 0.000434587)
(-0.268875 -0.0495694 0.000775358)
(-0.285493 -0.0591252 0.00133767)
(-0.304973 -0.0709427 0.00217424)
(-0.32759 -0.0857987 0.00345046)
(-0.352106 -0.104105 0.0051354)
(-0.375095 -0.127414 0.00757958)
(-0.378928 -0.16373 0.00991432)
(-0.31301 0.00204063 -0.0025757)
(-0.312289 0.00324995 -0.00340747)
(-0.300315 0.00255377 -0.00171685)
(-0.29528 0.00197238 -0.000960355)
(-0.292143 0.00150619 -0.000543194)
(-0.290002 0.00107308 -0.000317112)
(-0.288626 0.000716661 -0.000196353)
(-0.287713 0.000458782 -0.00011477)
(-0.287162 0.000283738 -5.52645e-05)
(-0.286875 0.000169247 -2.7817e-05)
(-0.286654 9.35461e-05 -2.64733e-05)
(-0.286532 2.70831e-05 -1.81682e-05)
(-0.286565 -2.91273e-05 -1.13791e-05)
(-0.286585 -7.54166e-05 -9.36661e-06)
(-0.286678 -0.000118719 -6.64797e-06)
(-0.286811 -0.000159622 -6.01864e-06)
(-0.286988 -0.000201276 -6.27603e-06)
(-0.287207 -0.000245853 -7.03856e-06)
(-0.287473 -0.00029543 -8.08652e-06)
(-0.287792 -0.000352154 -9.11872e-06)
(-0.288171 -0.00041835 -9.46508e-06)
(-0.288624 -0.000496784 -7.4938e-06)
(-0.289166 -0.000589943 -2.17433e-07)
(-0.289822 -0.000705273 2.2601e-05)
(-0.290698 -0.000811588 4.74832e-05)
(-0.291526 -0.000930347 6.21188e-05)
(-0.292858 -0.00113577 7.02489e-06)
(-0.294017 -0.00139319 -6.18957e-05)
(-0.295416 -0.00165009 -9.64267e-05)
(-0.297155 -0.00188991 -0.00011493)
(-0.298921 -0.00220137 -6.08601e-05)
(-0.301378 -0.0025594 -3.54815e-05)
(-0.304068 -0.00295645 -5.4156e-05)
(-0.307237 -0.0034346 -5.58188e-05)
(-0.310917 -0.00399521 -6.07022e-05)
(-0.31521 -0.00465649 -6.69432e-05)
(-0.320233 -0.00544083 -7.04173e-05)
(-0.326131 -0.00637347 -6.76245e-05)
(-0.333087 -0.00748734 -5.35398e-05)
(-0.341336 -0.00882734 -1.92761e-05)
(-0.351187 -0.0104572 5.14023e-05)
(-0.363065 -0.0124661 0.000184679)
(-0.377577 -0.0149883 0.000428093)
(-0.39559 -0.0182179 0.000854564)
(-0.418433 -0.0224659 0.00159738)
(-0.448183 -0.0281945 0.00284847)
(-0.487191 -0.036278 0.00494987)
(-0.541347 -0.0485263 0.00816688)
(-0.63067 -0.0785061 0.0130531)
(-0.729091 -0.15031 0.0198146)
(-0.14968 -0.00343047 -0.00511261)
(-0.162353 -0.00521814 -0.00746151)
(-0.148312 -0.00364978 -0.00436962)
(-0.143972 -0.00247104 -0.00232393)
(-0.14156 -0.00170501 -0.00135833)
(-0.139737 -0.00119647 -0.000935613)
(-0.138349 -0.000858228 -0.000682098)
(-0.137368 -0.000682958 -0.000469122)
(-0.136519 -0.000532986 -0.000268109)
(-0.135955 -0.000423042 -0.000130495)
(-0.135518 -0.000368004 -5.38416e-05)
(-0.135157 -0.000368505 -3.28528e-05)
(-0.13483 -0.000410836 -1.52437e-05)
(-0.134257 -0.000329941 7.8711e-05)
(-0.133909 -8.6581e-05 0.000197258)
(-0.133908 0.00012525 0.000220144)
(-0.134165 -7.93342e-05 6.07926e-05)
(-0.13408 -0.000380279 -5.53477e-05)
(-0.133641 -0.000485581 -7.41309e-05)
(-0.133153 -0.000540441 -6.21097e-05)
(-0.132569 -0.000600554 -3.40947e-05)
(-0.13195 -0.000648066 -2.08109e-07)
(-0.131285 -0.00071372 2.71236e-05)
(-0.130544 -0.000829298 4.4984e-05)
(-0.129656 -0.000984668 7.44527e-05)
(-0.128719 -0.0011425 0.000153934)
(-0.127222 -0.00131875 0.00018821)
(-0.125906 -0.00154304 -9.31782e-06)
(-0.124469 -0.00172698 -0.000138369)
(-0.122358 -0.00194282 -1.03368e-05)
(-0.120497 -0.00230066 6.48605e-05)
(-0.118059 -0.00275325 2.99903e-05)
(-0.11504 -0.0032774 2.30955e-05)
(-0.111484 -0.0038733 3.60968e-05)
(-0.107311 -0.00455233 6.02732e-05)
(-0.102414 -0.00535459 9.47281e-05)
(-0.0966621 -0.0063073 0.000145846)
(-0.0899005 -0.00744437 0.000222439)
(-0.081937 -0.00881232 0.000339137)
(-0.072531 -0.0104742 0.000522314)
(-0.0613888 -0.0125154 0.00081795)
(-0.0481279 -0.0150665 0.00129819)
(-0.0322681 -0.0183186 0.0020886)
(-0.0131206 -0.0225956 0.00338182)
(0.0102033 -0.0284052 0.00552398)
(0.0391317 -0.0367026 0.00903662)
(0.0757577 -0.0490713 0.0148535)
(0.122554 -0.0688532 0.024571)
(0.182658 -0.102175 0.0422788)
(0.302113 -0.20821 0.0724562)
(0.199994 -0.00530509 -0.00895993)
(0.168888 -0.00927619 -0.0134851)
(0.18544 -0.00779144 -0.00776284)
(0.189043 -0.00562355 -0.00340923)
(0.189505 -0.00378661 -0.00176338)
(0.19003 -0.00267109 -0.00117664)
(0.190892 -0.00190182 -0.000923)
(0.191361 -0.00145627 -0.000839352)
(0.192129 -0.0012092 -0.000563205)
(0.192668 -0.00104793 -0.000216463)
(0.192902 -0.000963348 -3.41685e-05)
(0.19308 -0.000966083 -7.70166e-05)
(0.193431 -0.00108352 -0.000224681)
(0.193816 -0.00125436 -0.00032068)
(0.194424 -0.000971963 0.000150066)
(0.195663 -0.000407876 0.000855793)
(0.196028 -9.39653e-05 0.000888512)
(0.194672 -0.000571301 0.000118382)
(0.194777 -0.00121715 -0.000188328)
(0.195219 -0.00149425 -0.000138681)
(0.195621 -0.00166223 -0.00014707)
(0.196196 -0.00186616 -4.16983e-05)
(0.196714 -0.00207293 4.21167e-05)
(0.197456 -0.00234161 3.4142e-05)
(0.198179 -0.00290034 -8.57758e-06)
(0.199262 -0.00366396 8.46136e-05)
(0.201369 -0.00418057 0.000278299)
(0.202307 -0.00450126 0.000117663)
(0.20304 -0.00503191 -7.49142e-05)
(0.205087 -0.00577212 0.000123607)
(0.206792 -0.00681354 0.000321369)
(0.20867 -0.00802492 0.000145092)
(0.211444 -0.00949299 -3.13317e-05)
(0.214731 -0.0112237 -4.55943e-05)
(0.218589 -0.0132376 1.75786e-05)
(0.223057 -0.0155988 6.77741e-05)
(0.228282 -0.0183904 0.000130717)
(0.234399 -0.0217152 0.000223632)
(0.241562 -0.0257044 0.00034864)
(0.24997 -0.030538 0.000527812)
(0.259841 -0.0364638 0.00080578)
(0.271465 -0.0438468 0.00124006)
(0.285124 -0.0532212 0.00193904)
(0.301266 -0.0654386 0.00303331)
(0.320181 -0.0818121 0.00479164)
(0.342656 -0.104592 0.00741792)
(0.368661 -0.13723 0.0114666)
(0.399882 -0.186482 0.0169394)
(0.435167 -0.260239 0.0248058)
(0.48318 -0.380232 0.0368342)
(0.379815 -0.00347538 -0.011239)
(0.343349 -0.0066355 -0.0171627)
(0.36105 -0.00641887 -0.0108419)
(0.36437 -0.00500094 -0.00495037)
(0.364797 -0.00363293 -0.00214361)
(0.365026 -0.00269214 -0.00107688)
(0.365249 -0.00201859 -0.000744112)
(0.365609 -0.00155303 -0.000554548)
(0.365978 -0.00134 -0.000414297)
(0.366266 -0.00125849 -0.000243397)
(0.366401 -0.00125323 -9.87694e-05)
(0.366422 -0.00128577 -9.69984e-05)
(0.366527 -0.00132644 -0.00030177)
(0.366847 -0.00152927 -0.000583816)
(0.367208 -0.00209682 -0.000614905)
(0.367934 -0.0021776 0.000144129)
(0.369448 -0.00166534 0.00131444)
(0.370451 -0.00103092 0.00134395)
(0.36839 -0.000955769 9.28139e-05)
(0.368259 -0.0016891 -0.000387736)
(0.368932 -0.00244251 -0.000130475)
(0.369119 -0.00273386 -4.78005e-05)
(0.369188 -0.00319786 -3.86319e-05)
(0.370017 -0.00388335 -7.47959e-05)
(0.371848 -0.00452475 -9.14155e-05)
(0.372165 -0.00538796 -1.40848e-05)
(0.372144 -0.0061705 -1.72594e-05)
(0.372901 -0.00678769 -2.12149e-06)
(0.374002 -0.00776722 5.43941e-05)
(0.375515 -0.00921042 0.000107097)
(0.376873 -0.0107803 0.000183743)
(0.378608 -0.0125273 0.000202316)
(0.380652 -0.0147621 0.000140896)
(0.383173 -0.0174592 7.87828e-05)
(0.386172 -0.0205452 6.76053e-05)
(0.389637 -0.0241345 9.3061e-05)
(0.393628 -0.0283746 0.000133942)
(0.398238 -0.0334017 0.000187277)
(0.403553 -0.0393839 0.000265254)
(0.409675 -0.04655 0.0003783)
(0.416674 -0.0552077 0.000548969)
(0.424648 -0.0657839 0.000801572)
(0.433572 -0.0788831 0.00119481)
(0.443495 -0.0953828 0.00176228)
(0.454042 -0.116594 0.00262874)
(0.46506 -0.144484 0.00376279)
(0.475104 -0.182056 0.00532035)
(0.483858 -0.233951 0.00679515)
(0.486428 -0.307175 0.00874896)
(0.480616 -0.415267 0.00864173)
(0.468034 -0.00187751 -0.01245)
(0.429456 -0.00365332 -0.0191959)
(0.448254 -0.00366457 -0.012435)
(0.452399 -0.00300681 -0.00557479)
(0.45277 -0.00248541 -0.00229318)
(0.452684 -0.0020706 -0.00108488)
(0.452656 -0.00169807 -0.00067922)
(0.452703 -0.00141023 -0.000422154)
(0.452749 -0.00123335 -0.000279063)
(0.452739 -0.00116986 -0.000192001)
(0.45276 -0.00118283 -0.000202215)
(0.452804 -0.00122232 -0.000254383)
(0.452817 -0.00127026 -0.000204581)
(0.452914 -0.00137641 -0.000259502)
(0.452882 -0.00173757 -0.000453579)
(0.45305 -0.00256069 -0.000583524)
(0.452872 -0.00320594 -0.000646893)
(0.452953 -0.00275664 8.03927e-06)
(0.45535 -0.00236084 0.00116447)
(0.456414 -0.00258579 0.00111964)
(0.454216 -0.00262926 -8.84941e-05)
(0.454588 -0.0024932 -0.000172978)
(0.454805 -0.00327131 0.000113342)
(0.454583 -0.00475216 -5.34293e-05)
(0.455263 -0.00577568 -0.000108952)
(0.455431 -0.00643469 -0.000371987)
(0.456218 -0.00743237 -0.000543958)
(0.457732 -0.00862926 -0.000419314)
(0.459432 -0.0100332 0.000373534)
(0.46016 -0.0114267 0.000593046)
(0.460328 -0.0132378 0.000310604)
(0.461015 -0.0157829 0.000775205)
(0.461713 -0.0188677 0.000631184)
(0.462991 -0.0220766 -1.84549e-06)
(0.464963 -0.0257271 -9.05374e-05)
(0.467097 -0.0301088 2.8919e-05)
(0.469461 -0.0352708 6.05655e-05)
(0.472167 -0.0413409 7.76463e-05)
(0.475228 -0.0484861 0.000112024)
(0.478637 -0.0569211 0.000155171)
(0.482365 -0.0669168 0.000208986)
(0.486368 -0.0788252 0.000268256)
(0.490448 -0.0931196 0.000343573)
(0.494404 -0.110424 0.000402285)
(0.497633 -0.131643 0.000452441)
(0.499592 -0.158016 0.00035357)
(0.498514 -0.191486 6.27616e-05)
(0.49285 -0.234458 -0.000862742)
(0.478942 -0.290531 -0.00293117)
(0.446377 -0.361976 -0.00655298)
(0.504228 -0.000561234 -0.0130456)
(0.464667 -0.00109522 -0.0201565)
(0.484024 -0.00108713 -0.0130415)
(0.488716 -0.00106025 -0.00562716)
(0.489089 -0.00118344 -0.00229899)
(0.488985 -0.00118643 -0.00112259)
(0.488946 -0.00107626 -0.000667939)
(0.488895 -0.000979434 -0.000383907)
(0.488843 -0.000923165 -0.000236193)
(0.488786 -0.000915908 -0.00015878)
(0.488716 -0.000941914 -0.000118232)
(0.488665 -0.00100149 -9.80294e-05)
(0.488623 -0.00111566 -9.102e-05)
(0.488595 -0.00124917 -0.000120828)
(0.488594 -0.00142079 -0.000175887)
(0.488579 -0.00167415 -0.000259927)
(0.488428 -0.00211203 -0.000339226)
(0.488416 -0.00293896 -0.000519002)
(0.488259 -0.00365158 -0.000951604)
(0.488082 -0.00348487 -0.00115391)
(0.488695 -0.00346711 -0.000297125)
(0.490381 -0.00397457 0.00125707)
(0.491479 -0.00465547 0.00205781)
(0.490686 -0.00542106 0.000732993)
(0.489665 -0.00594449 -0.000623481)
(0.490672 -0.00664222 -0.000590367)
(0.490411 -0.00781119 -0.000570489)
(0.490646 -0.00937679 -0.000342174)
(0.490762 -0.0111142 -1.90843e-05)
(0.49038 -0.0127983 0.000179653)
(0.491375 -0.0148761 0.000686403)
(0.492471 -0.0173541 0.000778635)
(0.49197 -0.0208892 -3.22689e-05)
(0.491859 -0.0242936 7.48484e-05)
(0.492392 -0.028234 0.000211215)
(0.492808 -0.0329986 0.00010851)
(0.493452 -0.038551 6.28688e-05)
(0.494176 -0.0450125 3.44551e-05)
(0.494934 -0.0525324 2.01792e-05)
(0.495679 -0.0612809 5.30073e-06)
(0.496325 -0.0714525 -1.7658e-05)
(0.496772 -0.0832723 -7.26486e-05)
(0.496768 -0.0970038 -0.000174173)
(0.496036 -0.11295 -0.000386597)
(0.493918 -0.131484 -0.000761446)
(0.489727 -0.152995 -0.00146605)
(0.481775 -0.178078 -0.00265961)
(0.468001 -0.207387 -0.00480769)
(0.445519 -0.241676 -0.0083454)
(0.403196 -0.280652 -0.0128144)
(0.504378 0.00071856 -0.0129512)
(0.46499 0.00137133 -0.020011)
(0.48417 0.00141524 -0.0127078)
(0.488828 0.000757375 -0.00551339)
(0.488976 8.07119e-08 -0.0025324)
(0.488888 -0.000335646 -0.00139266)
(0.488994 -0.000405919 -0.000785783)
(0.488938 -0.000451697 -0.000428643)
(0.488832 -0.00051285 -0.000248444)
(0.4887 -0.000587412 -0.000147013)
(0.488578 -0.000677156 -9.07824e-05)
(0.488469 -0.000787171 -6.48561e-05)
(0.488372 -0.000920627 -5.4611e-05)
(0.488285 -0.00107356 -5.94721e-05)
(0.488213 -0.00125152 -7.77582e-05)
(0.488154 -0.00146484 -0.000104792)
(0.488094 -0.00172753 -0.0001341)
(0.488034 -0.00198217 -0.000168291)
(0.487941 -0.00223805 -0.000192466)
(0.487871 -0.00277307 -0.000286826)
(0.487818 -0.00380207 -0.000284514)
(0.487795 -0.00497219 -0.000266292)
(0.487113 -0.00546769 -0.000469135)
(0.486661 -0.00544802 -0.00049554)
(0.486527 -0.00580336 -0.000272604)
(0.486687 -0.00665311 0.000157183)
(0.487053 -0.00775525 0.000240749)
(0.48688 -0.00903015 0.000268173)
(0.486512 -0.0108158 0.000230062)
(0.485595 -0.0132455 0.000215006)
(0.486171 -0.0156507 0.000621268)
(0.486669 -0.0178513 0.000658467)
(0.485275 -0.0205768 -0.000108404)
(0.484109 -0.0240638 0.000137986)
(0.483442 -0.0281254 0.000273982)
(0.482351 -0.0327947 8.47617e-05)
(0.481341 -0.0382099 1.37894e-05)
(0.480143 -0.0444739 -1.73584e-05)
(0.478692 -0.05171 -3.79611e-05)
(0.476937 -0.0600424 -6.31938e-05)
(0.474774 -0.0695919 -9.88522e-05)
(0.472103 -0.0804651 -0.000167561)
(0.468704 -0.0927297 -0.000283729)
(0.464359 -0.106392 -0.00050821)
(0.45853 -0.121321 -0.000889432)
(0.450664 -0.137227 -0.00159992)
(0.439405 -0.153472 -0.00280251)
(0.42306 -0.169089 -0.00491676)
(0.39904 -0.182517 -0.00834263)
(0.356676 -0.191998 -0.0126729)
(0.468484 0.0019848 -0.0121792)
(0.430242 0.00386074 -0.0186579)
(0.448555 0.00386225 -0.0115781)
(0.452874 0.0027416 -0.00521317)
(0.452565 0.0014669 -0.00291572)
(0.452505 0.00076973 -0.00193742)
(0.452834 0.000463995 -0.00111046)
(0.452797 0.000239733 -0.0005638)
(0.452658 3.70002e-05 -0.000305569)
(0.452511 -0.000146508 -0.000168814)
(0.452368 -0.00031863 -9.68138e-05)
(0.452233 -0.00048555 -5.96852e-05)
(0.452106 -0.000653391 -4.16236e-05)
(0.451983 -0.000826914 -3.55634e-05)
(0.451862 -0.00101242 -3.78541e-05)
(0.451738 -0.00121728 -4.60376e-05)
(0.451602 -0.00144957 -5.88552e-05)
(0.451448 -0.00171146 -8.1917e-05)
(0.451283 -0.00201334 -0.000132887)
(0.451106 -0.00238509 -0.000228943)
(0.450952 -0.00286671 -0.000390706)
(0.450736 -0.00334598 -0.000487295)