/*--------------------------------*- C++ -*----------------------------------*\
  =========                 |
  \\      /  F ield         | OpenFOAM: The Open Source CFD Toolbox
   \\    /   O peration     | Website:  https://openfoam.org
    \\  /    A nd           | Version:  6
     \\/     M anipulation  |
\*---------------------------------------------------------------------------*/
FoamFile
{
    version     2.0;
    format      ascii;
    class       volVectorField;
    location    "0";
    object      U;
}
// * * * * * * * * * * * * * * * * * * * * * * * * * * * * * * * * * * * * * //

dimensions      [0 1 -1 0 0 0 0];

internalField   nonuniform List<vector> 
918
(
(0.986295 0.00230957 0)
(-0.0039493 2.96736 0)
(0.00738139 1.69875 0)
(0.980517 -0.000962621 0)
(-0.0100019 1.66285 -8.8571e-22)
(0.00135814 2.95109 -1.36846e-18)
(0.919144 1.2002 4.51618e-19)
(0.523977 0.27749 -5.80646e-21)
(1.00012 -0.000150241 0)
(0.0653232 1.54767 0)
(-0.0120322 1.58146 0)
(0.881179 0.00276782 0)
(0.00846009 2.93526 0)
(0.00218196 2.79924 0)
(0.00236061 3.17749 7.68893e-19)
(-0.0015741 1.61027 -1.32005e-20)
(0.64354 0.128338 3.46667e-19)
(0.275068 1.79426 3.63993e-19)
(0.976968 0.0176066 0)
(0.00354563 1.60483 0)
(0.258105 0.30838 -3.10217e-19)
(1.00086 -0.00384391 0)
(1.00118 -0.0071551 0)
(0.972749 -0.00236927 0)
(0.827509 -0.0310345 0)
(0.028851 2.63992 0)
(-0.00969865 2.9163 4.59426e-19)
(-0.00573448 1.707 0)
(-0.00234874 1.76865 0)
(-0.00527482 1.72807 0)
(-0.00649289 1.80017 0)
(-0.00107811 1.68408 6.9388e-22)
(-0.00570041 1.6141 0)
(-0.0197964 2.98948 -4.79002e-23)
(-0.0137792 3.00793 1.07774e-18)
(0.00155547 2.99972 0)
(0.918571 0.003302 0)
(0.166577 0.67664 -8.34398e-20)
(0.851629 1.2679 -5.96465e-19)
(1.0065 1.04297 6.02575e-19)
(0.729638 1.43039 -1.01298e-19)
(0.804301 1.3718 5.75988e-19)
(0.573918 0.334366 5.66344e-21)
(0.577561 0.229877 0)
(1.20252 0.553391 0)
(0.518967 0.340002 2.64183e-20)
(0.501561 0.266631 -2.74207e-20)
(0.922975 -0.0017889 0)
(0.999144 -0.000105192 0)
(0.9999 -6.93803e-06 0)
(1.00105 -0.00704252 0)
(1.00161 -0.0024364 0)
(1.00027 -0.000851529 0)
(0.0236831 1.5411 -3.71142e-19)
(0.0554206 1.67481 0)
(0.119479 1.57425 0)
(0.0062924 1.64768 0)
(0.0100456 1.4979 0)
(0.00092748 1.60905 0)
(-0.0172558 1.65877 0)
(-0.0118885 1.56931 0)
(-0.00916602 1.68039 0)
(-0.00406118 1.59376 0)
(0.94499 0.0176805 0)
(0.940043 0.00734417 0)
(0.897505 -0.00504698 0)
(0.9279 0.0185726 0)
(0.860355 0.0255816 0)
(0.013825 3.00342 4.93468e-19)
(0.011592 3.00441 0)
(0.00744384 3.00377 0)
(0.0104907 2.99771 5.51556e-24)
(0.00607292 2.96211 -7.4253e-19)
(0.0114542 2.98526 0)
(0.00854914 2.90968 0)
(0.0210313 2.93328 9.95214e-25)
(0.0030879 2.82838 0)
(0.0271455 2.9202 0)
(-0.0013539 2.74787 0)
(0.32406 3.59874 0)
(-0.126055 3.68029 0)
(0.157437 3.27276 -7.12488e-19)
(-0.00841361 3.00425 0)
(-0.00576995 1.76291 0)
(-0.00296366 1.69312 1.30214e-20)
(-0.00608826 1.62663 -1.79485e-20)
(0.702623 0.169955 -1.18761e-19)
(0.672059 0.0769247 -1.13485e-19)
(0.690094 0.192739 -3.58199e-19)
(0.651516 0.140757 -2.40981e-19)
(0.244286 1.30392 0)
(0.31725 1.85965 -4.04743e-19)
(0.489477 1.78825 6.65595e-19)
(0.993079 0.0138513 0)
(0.952985 0.023678 0)
(1.00011 0.000673473 0)
(1.0029 0.00918121 0)
(1.00258 0.015838 -5.73898e-19)
(0.990067 0.00652917 4.38553e-19)
(-0.00353056 1.68112 0)
(0.00382746 1.61141 0)
(-0.00900455 1.73133 0)
(-0.00797744 1.68962 0)
(0.00121456 1.61015 0)
(0.312816 0.321922 9.63649e-20)
(0.341123 0.305352 0)
(0.990967 -0.000137299 0)
(0.966659 0.00558139 0)
(0.894326 0.0281895 0)
(0.88164 0.0100011 0)
(0.843334 -0.00239032 0)
(1.06945 0.0129789 0)
(0.849355 0.0167021 0)
(0.765057 0.0199492 4.46764e-19)
(-0.0336119 2.86316 2.59305e-19)
(0.0359179 2.91425 0)
(0.0467208 2.89047 0)
(0.00335632 2.70229 0)
(-0.00761533 2.98895 4.22891e-19)
(-0.0125826 2.89925 0)
(-0.00924981 2.99073 -1.33644e-18)
(-0.0108962 2.93203 4.60473e-19)
(-5.02659e-05 1.78603 0)
(0.00430988 1.77055 0)
(0.00499379 1.68903 -4.8233e-22)
(0.00990034 1.68074 0)
(0.00302972 1.60233 0)
(0.964014 0.00912339 0)
(0.926117 0.0120053 0)
(0.90816 -0.0143599 0)
(0.964385 -0.00356228 0)
(0.916006 -0.0115169 0)
(0.258279 0.966225 1.03318e-19)
(0.394316 1.1344 0)
(0.140247 0.494192 -1.40784e-20)
(0.199167 0.163834 0)
(0.954425 1.10185 -1.75678e-19)
(1.07728 0.866494 3.72454e-19)
(0.45226 1.7855 0)
(0.584288 1.62103 0)
(0.682626 1.59113 0)
(0.406002 0.508797 -1.88449e-19)
(0.619997 0.289449 0)
(0.600877 0.214462 7.02718e-20)
(1.03433 0.931121 0)
(1.11728 0.747781 0)
(1.13724 0.694286 -3.46799e-19)
(1.20085 0.593545 0)
(1.2557 0.409178 3.83543e-20)
(0.966821 0.00035143 0)
(0.956954 -0.000748639 0)
(0.916145 0.00617835 0)
(0.989549 8.66993e-05 0)
(0.966823 -0.000396558 0)
(0.946192 0.00195396 0)
(1.00112 0.00233903 0)
(1.00017 0.000105771 0)
(0.999963 0.000554343 0)
(0.0096049 1.59636 2.00366e-19)
(0.047671 1.51965 0)
(0.0112893 1.62523 3.31718e-19)
(0.022234 1.57576 -2.88654e-19)
(0.157171 1.8103 -3.01517e-19)
(0.0450487 1.72358 0)
(0.19874 1.68998 0)
(-0.0182984 1.63829 0)
(-0.00920174 1.52312 0)
(-0.00264087 1.67559 -9.33867e-22)
(-0.008108 1.61173 0)
(-0.00103402 1.69004 -4.43572e-20)
(0.00239794 1.61994 8.6267e-20)
(-0.0158929 1.65808 0)
(-0.00909169 1.66181 0)
(0.000155748 1.56025 0)
(-0.00314424 1.68558 0)
(0.00969553 1.59366 0)
(1.00639 0.0122426 0)
(0.965233 -0.00541006 0)
(0.983948 0.0133254 0)
(0.941472 0.0101255 0)
(0.901073 0.00463067 0)
(0.95204 0.0118497 0)
(0.949618 -0.00200619 0)
(0.899899 -0.00120328 0)
(0.011963 3.06082 -4.23142e-21)
(0.0154022 3.05721 0)
(0.012892 2.97283 0)
(0.00808487 2.88016 0)
(0.938358 4.02348 0)
(1.24472 3.41124 7.50378e-19)
(0.072119 3.08782 0)
(-0.0242752 2.91702 0)
(0.00899807 1.75372 0)
(0.00530204 1.74529 0)
(0.00266259 1.75024 0)
(-0.00462421 1.79127 3.47344e-21)
(-0.0037047 1.77608 0)
(-0.00922169 1.78369 0)
(-0.00205035 1.60991 8.82808e-23)
(0.0023308 1.68508 2.81834e-20)
(-0.00274865 1.68858 1.84171e-20)
(0.00535448 1.6088 0)
(0.730937 0.116871 1.72331e-19)
(0.681803 0.0367126 -1.67208e-19)
(0.194456 1.38808 0)
(0.306466 1.23279 -1.65381e-19)
(0.151409 1.43673 -4.8274e-19)
(0.178028 1.36338 4.81596e-19)
(0.896961 0.00846836 0)
(0.968847 0.0144541 0)
(0.979558 0.0273774 0)
(0.928949 0.0266927 0)
(0.00980235 1.68282 0)
(-0.000779267 1.682 0)
(0.00678594 1.60111 0)
(0.473047 0.357528 2.44101e-19)
(0.419266 0.354571 -3.00259e-19)
(0.440967 0.267893 0)
(1.18807 0.0820698 -5.67079e-21)
(1.1722 0.0292388 0)
(1.0939 0.0471173 0)
(1.00973 0.00708057 0)
(0.746436 0.0920757 0)
(0.777511 0.0880776 -7.17274e-19)
(0.706642 0.0476026 2.73567e-19)
(0.0092821 2.98146 3.15475e-19)
(-0.0284763 2.86534 3.17277e-20)
(0.0057404 3.04863 -9.06849e-21)
(0.0149197 3.04148 3.45894e-19)
(-0.0104995 2.99921 1.5294e-20)
(-0.00817122 2.95337 -6.27288e-23)
(-0.0149346 3.01292 -2.92669e-19)
(0.0114104 3.02463 2.07343e-19)
(0.00583589 3.03097 -3.34501e-19)
(0.985809 0.00760977 0)
(0.981249 0.00751011 0)
(0.933806 0.00567087 0)
(0.954416 0.0102944 0)
(0.957017 -0.00945999 0)
(0.902405 -0.00583549 0)
(0.957036 0.0031847 0)
(0.954893 -0.0070777 0)
(0.907294 -0.00992252 0)
(0.593729 1.41482 2.17969e-19)
(0.663238 1.5577 0)
(0.168216 -0.0335483 1.05545e-21)
(0.381688 0.401938 -1.90257e-19)
(0.289424 0.371727 1.67103e-19)
(0.135309 -0.0576976 -3.60989e-19)
(0.405643 0.911277 9.62438e-19)
(0.433182 0.756921 2.25298e-19)
(0.6814 0.238988 2.62065e-19)
(0.639032 0.277266 6.40413e-20)
(0.624041 0.194741 1.34397e-19)
(1.24818 0.44382 2.31709e-19)
(1.2783 0.249059 2.42059e-19)
(0.0174102 1.66513 1.34716e-19)
(0.0169796 1.62715 0)
(1.03923 0.0231621 0)
(1.0085 0.0068188 0)
(0.97861 0.000546674 0)
(0.0115665 3.07302 0)
(0.0169523 2.94396 5.82812e-19)
(0.0154107 2.95847 0)
(0.00629861 2.8526 -5.7964e-19)
(0.00640887 3.08696 1.36814e-19)
(0.00960661 3.08141 0)
(0.706322 1.86026 -1.56207e-19)
(1.2923 2.65922 5.21214e-19)
(0.707019 2.03411 -1.1052e-18)
(0.021477 2.98365 -2.4056e-19)
(0.0372156 3.0074 0)
(-0.0337297 2.88016 0)
(-0.00108766 1.67984 -2.63104e-21)
(-0.00669135 1.68765 -6.20876e-20)
(-0.00228095 1.61424 -5.79273e-21)
(0.251058 1.34309 5.27703e-19)
(0.356736 1.20722 -3.5664e-19)
(0.0393792 1.57499 3.21864e-19)
(0.0909655 1.50935 -3.93881e-19)
(0.11122 1.46242 4.76997e-20)
(0.00268282 3.11762 -8.03161e-19)
(0.0188596 3.11638 8.87662e-19)
(-0.0049293 2.9824 3.74891e-19)
(-0.000937926 2.97796 -3.38996e-19)
(-0.0146239 2.88191 -3.81939e-19)
(0.0103529 3.0972 -1.0029e-18)
(0.00420575 3.10341 9.96079e-19)
(0.492008 0.769354 0)
(0.496529 0.551646 -2.46632e-19)
(0.318287 0.175073 1.28885e-19)
(0.411192 1.04968 6.61287e-19)
(0.430441 0.938967 -1.01747e-18)
(1.25877 0.179757 -4.72743e-20)
(1.28157 0.30457 0)
(1.26132 0.132307 9.61538e-20)
(-0.0178507 1.69792 -1.06265e-21)
(-0.00220556 1.6936 0)
(-0.00485052 1.63925 0)
(0.316294 1.28726 -1.84301e-19)
(0.378096 1.1587 -4.38448e-19)
(0.404163 1.10998 7.85056e-19)
(1.00625 -0.0187812 0)
(1.00017 -0.005161 1.06868e-19)
(-0.00412571 1.78509 0)
(-0.010409 1.79315 0)
(1.0015 0.000445382 -6.27272e-22)
(1.00643 0.00534434 2.14338e-19)
(-0.000106485 1.79165 -4.52058e-21)
(-0.00385584 1.79453 0)
(0.0533086 3.17741 1.14102e-19)
(0.389735 3.52874 0)
(1.1049 0.704519 5.41335e-20)
(1.00352 0.00727785 -2.35465e-21)
(1.00112 -0.00427738 0)
(1.00125 -0.00500867 -4.50903e-23)
(0.0533092 1.84204 0)
(0.0328944 1.73356 0)
(-0.00036461 1.80088 0)
(0.00931047 1.78189 6.07991e-20)
(-0.00255658 1.78212 3.27873e-20)
(0.998393 0.0206129 1.05617e-21)
(1.04122 0.000271415 0)
(1.06956 0.0298516 0)
(0.0163721 1.75167 0)
(0.00734976 1.77706 0)
(-0.00257761 1.79046 0)
(0.164635 1.89848 -1.55955e-19)
(1.01112 -0.0240955 0)
(1.0051 -0.0276593 0)
(1.00628 -0.00197222 1.3428e-19)
(0.99801 -0.00351857 -1.6307e-19)
(1.00206 -0.00218266 0)
(0.0115446 1.75364 0)
(-0.00327715 1.78386 0)
(0.0097793 1.76088 0)
(-0.00110453 1.79312 0)
(-0.00672044 1.79043 0)
(-0.00492337 1.79316 0)
(1.02307 -0.000419877 0)
(1.01628 0.0076845 -3.76492e-22)
(0.654196 1.17082 2.93844e-19)
(1.00073 -0.00166619 -1.34107e-19)
(1.0003 0.00316827 1.61049e-19)
(1.00118 0.00282475 0)
(1.00402 0.00707454 1.3212e-19)
(1.00518 0.00217773 -1.63324e-19)
(0.995867 -0.00323429 0)
(0.00709063 1.78574 0)
(-0.00292642 1.79495 1.19265e-20)
(-0.00936923 1.7858 -9.01454e-21)
(1.14522 0.255061 -7.34293e-20)
(1.09781 0.0854031 0)
(0.061968 3.08643 -3.82166e-19)
(0.0515735 2.86424 -2.94984e-20)
(0.116181 3.2079 4.6571e-19)
(0.115884 3.22615 -3.77124e-20)
(0.136042 3.23552 0)
(0.0227766 3.13895 9.1794e-20)
(0.0715589 3.16327 3.75943e-19)
(0.0674071 3.18561 -1.76806e-19)
(0.0298889 3.12611 0)
(0.700494 0.345826 0)
(0.611944 0.395214 0)
(1.06757 0.695174 -1.82258e-19)
(1.02244 0.799686 2.67908e-19)
(1.11187 0.572449 0)
(1.13745 0.564624 0)
(1.0109 0.0088624 -2.48425e-19)
(1.01593 0.00591176 3.06597e-19)
(1.00974 -0.00210419 0)
(1.01456 0.00481792 0)
(1.01931 -0.00675936 0)
(1.01946 0.0124687 0)
(1.01439 -0.004925 0)
(1.01785 0.0171899 0)
(1.01025 0.00859011 0)
(1.00643 0.00346104 0)
(0.0543771 1.8369 0)
(0.0268636 1.82799 0)
(0.0654257 1.86623 0)
(0.0401097 1.87442 0)
(0.0322338 1.71631 0)
(0.0332725 1.70905 -2.15183e-19)
(0.042566 1.74627 0)
(0.0549303 1.73931 1.08632e-19)
(0.0219109 1.75924 -1.16194e-19)
(-0.00146504 1.80105 0)
(-0.00378862 1.79916 0)
(-0.00293569 1.80454 0)
(-0.00553867 1.81511 0)
(0.00684577 1.78186 -3.58583e-20)
(-0.000314345 1.7844 4.48256e-20)
(0.0102071 1.78843 5.60231e-20)
(0.00724278 1.78813 0)
(-0.00417401 1.78324 -7.82197e-20)
(0.000896713 1.77894 -4.509e-20)
(0.00768656 1.77945 2.82428e-20)
(-0.00421414 1.77738 -5.91851e-20)
(0.00880147 1.78571 -6.88958e-20)
(1.00586 0.0147645 2.30954e-19)
(1.01156 0.00515301 -2.90756e-19)
(1.00323 0.0239005 -2.44041e-19)
(0.986431 0.0155869 3.11016e-19)
(1.04114 0.0105059 0)
(1.04515 -0.00110457 0)
(1.05983 0.0316749 0)
(1.04322 0.00157111 0)
(1.06305 0.0145262 0)
(1.08479 0.0632749 0)
(1.07558 0.0373965 0)
(1.09221 0.0398211 0)
(0.00592315 1.78304 -1.66329e-21)
(0.0207395 1.75165 0)
(0.00970678 1.76957 0)
(0.00892979 1.77825 1.38882e-20)
(0.0117282 1.77825 -5.74034e-22)
(0.0076742 1.7611 1.45101e-20)
(0.0032632 1.7643 -1.4676e-20)
(-0.00301881 1.7876 0)
(-0.00227303 1.78739 0)
(-0.00377294 1.78445 0)
(-0.00562485 1.79091 0)
(-0.00820097 1.7872 0)
(0.249903 1.87207 2.6767e-19)
(0.243748 1.83677 1.3757e-19)
(0.313057 1.61048 -1.31129e-19)
(0.168142 1.64414 3.26367e-19)
(0.21617 1.75183 8.62322e-20)
(0.999576 -0.0089145 0)
(0.998038 -0.0276558 0)
(0.987831 -0.0286429 0)
(1.02486 -0.0131097 0)
(1.00563 -0.0138759 0)
(0.999821 -0.0132443 0)
(0.999545 -0.0177608 0)
(0.993312 -0.0120677 0)
(1.01898 0.00383692 2.25802e-19)
(1.02473 0.000976554 -2.88856e-19)
(1.01538 0.00889321 -2.22658e-19)
(1.01389 0.00611196 2.80833e-19)
(0.663013 1.27691 0)
(0.511539 1.43259 3.14244e-19)
(0.766112 1.10509 2.01217e-19)
(0.806374 1.11516 -2.68578e-19)
(0.980033 2.76958 -7.34777e-19)
(0.828058 0.113449 1.71249e-19)
(1.10214 0.0864648 0)
(1.14329 0.171256 6.32599e-20)
(1.16136 0.143045 4.13566e-21)
(0.973316 0.114227 0)
(0.0956972 3.02407 -2.12753e-21)
(0.106391 2.90789 -4.38694e-19)
(0.0494473 2.35449 3.0641e-19)
(0.208045 0.147652 -1.35771e-19)
(0.363103 3.41682 -2.80452e-19)
(0.192296 3.32762 0)
(0.221369 3.36755 3.65151e-19)
(0.22917 3.06944 -2.25184e-19)
(0.257375 3.16841 0)
(0.00754698 3.11915 2.04235e-20)
(0.0173342 3.12842 -2.55021e-19)
(0.0168254 3.12426 3.74634e-19)
(0.0379227 3.13804 0)
(0.0357253 3.14999 0)
(1.25856 2.66925 0)
(0.621474 0.842805 -1.56576e-19)
(0.931999 0.98695 -1.38889e-19)
(0.899826 0.992137 0)
(0.806125 0.923261 6.27492e-20)
(1.01557 0.85873 2.0228e-20)
(0.430599 0.445954 -3.64744e-19)
(0.726933 0.335456 -1.46623e-20)
(0.73771 0.321652 1.32788e-19)
(0.621612 0.421405 1.14393e-20)
(0.575117 0.430099 -4.71039e-19)
(0.692907 0.362575 0)
(0.682235 0.42413 2.28043e-19)
(0.679719 0.419715 0)
(0.64253 0.418745 0)
(0.664557 0.372097 0)
(0.761857 0.570062 6.49968e-20)
(1.15293 0.26679 5.97445e-20)
(1.14867 0.399278 0)
(1.18528 0.386881 0)
(0.799021 0.220942 2.07274e-19)
(0.77344 0.539543 -1.10175e-19)
(0.712116 0.47473 1.74961e-19)
(0.887097 0.407605 -1.53869e-19)
(1.02515 -0.00268513 1.57303e-19)
(1.02092 9.96247e-05 -1.65302e-19)
(1.02399 0.000388272 0)
(1.02121 0.00744888 0)
(1.01347 0.0106896 -1.50496e-19)
(1.01949 -0.000989725 1.49656e-19)
(1.0123 0.000960446 0)
(1.00956 0.00409706 0)
(1.02107 0.0115442 0)
(1.02327 0.00194662 0)
(1.02788 0.00857859 0)
(1.02461 0.00815291 0)
(0.00406506 1.82656 0)
(-0.00894518 1.826 0)
(0.098616 1.8525 2.82114e-21)
(0.1658 1.88873 7.92818e-20)
(0.0715469 1.90091 1.72826e-19)
(0.0864314 1.90123 -2.81492e-19)
(0.0975929 1.87117 0)
(0.0917314 1.77276 -7.40664e-20)
(0.0947911 1.77487 0)
(0.20484 1.7415 -1.25001e-19)
(0.18094 1.70692 3.89757e-19)
(0.113084 1.80262 6.64274e-20)
(0.164754 1.84324 2.71032e-20)
(0.136606 1.86188 -2.18182e-20)
(0.198887 1.7903 -7.84122e-20)
(0.167764 1.76427 0)
(0.167707 1.75687 7.41793e-20)
(0.00545451 1.76798 -3.49309e-20)
(0.037227 1.75884 0)
(0.0641916 1.76205 1.25144e-19)
(0.0350545 1.75383 0)
(0.0611571 1.75108 -1.21952e-19)
(0.047756 1.75729 0)
(-0.00480943 1.76483 -3.24572e-20)
(0.00199463 1.77296 0)
(-0.00672864 1.77419 0)
(-0.00617403 1.7634 3.61222e-20)
(0.000470776 1.77892 9.50083e-22)
(-0.00339944 1.76891 1.3722e-19)
(-0.0128327 1.7678 9.06971e-22)
(-0.00829893 1.76753 2.66437e-20)
(-0.00479777 1.76717 1.58978e-20)
(-0.00415584 1.79593 0)
(-0.00278015 1.7936 0)
(0.0120363 1.78439 8.41869e-20)
(0.00256629 1.77489 5.60177e-20)
(0.00169662 1.7787 -7.96107e-20)
(0.0269514 1.78602 0)
(-0.000813033 1.75848 -5.0578e-20)
(0.00229774 1.76895 2.24828e-20)
(0.00197822 1.77095 -6.92537e-21)
(-0.0103378 1.77168 -3.22377e-20)
(-0.00296467 1.782 -1.00073e-20)
(-0.00706186 1.78111 5.2398e-20)
(1.01202 0.00255985 -1.52442e-19)
(1.01473 0.00259373 1.57272e-19)
(1.01257 -0.00169414 0)
(0.986877 0.0680547 2.33766e-19)
(0.984091 0.02148 -2.67867e-19)
(0.957153 0.0185571 3.12508e-19)
(0.98495 0.0911945 -3.0129e-20)
(1.03008 0.00131394 0)
(1.03682 0.0129418 1.27348e-19)
(1.03947 0.0048592 -1.26403e-19)
(1.02188 0.0372938 -7.25173e-21)
(1.02636 0.0132335 6.44994e-20)
(0.99085 0.0293386 0)
(0.977821 0.0233765 -2.35329e-20)
(1.00608 0.02006 0)
(1.00427 0.0254897 0)
(1.01406 0.00112184 0)
(1.01517 0.0037052 0)
(1.00032 0.0191665 4.93927e-20)
(1.00266 0.0209367 -1.09205e-19)
(1.00576 0.0324795 -5.10665e-20)
(0.982699 0.0217408 -5.8879e-20)
(0.989118 0.0371022 9.62785e-20)
(1.04261 0.038122 0)
(1.04808 0.0856411 0)
(-0.0011968 1.7564 -1.95542e-20)
(0.0211192 1.75313 -1.67249e-21)
(0.0110738 1.75122 0)
(0.00473558 1.77158 1.96668e-20)
(0.0153698 1.77326 3.23129e-21)
(0.0104416 1.77409 -2.80831e-21)
(0.00210229 1.77932 4.06443e-20)
(0.00432507 1.77662 -2.51177e-21)
(0.000619189 1.77888 1.09948e-20)
(0.00398149 1.77824 -2.1152e-20)
(0.00351832 1.77824 2.57151e-20)
(-0.00267072 1.78349 3.83471e-22)
(0.00197084 1.77272 2.02437e-20)
(0.208601 1.78834 -1.13608e-19)
(0.189127 1.7937 5.2574e-20)
(0.474778 1.55455 -3.05894e-19)
(0.338445 1.75404 -1.32361e-19)
(0.35903 1.66918 0)
(0.386654 1.59262 1.38121e-19)
(0.430535 1.54576 1.90461e-19)
(0.21084 1.64952 2.94446e-20)
(0.210107 1.65266 -4.4711e-19)
(0.268867 1.66175 3.67083e-19)
(0.286546 1.64245 0)
(0.22555 1.64852 -2.82216e-19)
(0.0804728 1.68461 5.46208e-19)
(0.148357 1.67915 -3.06008e-20)
(0.0826689 1.69013 -7.40721e-19)
(0.833215 1.64582 4.13203e-19)
(0.618615 1.50243 0)
(1.03037 -0.0142042 5.24854e-21)
(1.00645 -0.00350971 -4.48161e-21)
(1.01708 0.014617 -7.65565e-20)
(1.02861 0.00709627 7.63596e-20)
(1.03098 -0.00689472 0)
(0.345963 1.0938 0)
(0.42556 0.9307 0)
(0.668934 0.989896 0)
(0.594473 0.702975 0)
(1.06631 2.79289 -3.0807e-20)
(0.884076 2.45036 0)
(0.385905 2.80525 -2.68574e-21)
(0.436694 2.25073 0)
(0.496478 2.44368 -2.4824e-19)
(0.487813 2.54174 1.58406e-19)
(0.848064 0.126276 0)
(0.829586 0.15567 4.98535e-20)
(0.901499 0.109477 2.42643e-19)
(0.846905 0.110108 -9.95905e-20)
(0.829954 0.0954896 -3.04145e-19)
(0.998966 0.190845 -1.22823e-19)
(0.911063 0.288542 -8.00678e-21)
(0.859868 0.272531 2.32337e-19)
(0.935845 0.191411 1.54956e-19)
(0.930228 0.14928 -3.01067e-19)
(0.911846 0.148199 3.97461e-20)
(0.93472 0.228826 -7.33945e-20)
(0.910216 0.175157 0)
(0.964592 0.135152 1.40372e-19)
(0.981145 0.140588 0)
(0.967014 0.162446 0)
(1.0505 0.105669 3.82579e-20)
(0.996522 0.139586 -8.56746e-21)
(0.99812 0.198613 -2.28522e-20)
(1.06664 0.188295 0)
(1.01041 0.0252957 1.15915e-19)
(1.0036 0.0288024 1.34277e-19)
(1.00955 0.0287473 -1.11851e-19)
(1.02111 0.0431213 -9.12357e-20)
(1.00798 0.060895 -1.64242e-19)
(0.934251 0.0943906 0)
(0.953939 0.0802868 0)
(0.949534 0.0403317 -1.12063e-19)
(0.913366 0.0587635 4.87906e-20)
(1.01982 0.10165 1.31426e-19)
(0.99768 0.121766 -1.246e-19)
(1.00508 0.135089 1.15945e-19)
(1.00811 0.135448 0)
(1.01481 0.0953799 0)
(1.00335 0.0849009 -5.23629e-20)
(1.02297 0.0882746 -1.02453e-19)
(0.541202 1.59384 -4.36564e-19)
(0.728764 2.50742 4.14923e-19)
(1.10422 3.06039 2.9725e-19)
(1.24355 3.26053 -8.54949e-20)
(1.16185 2.92105 6.64959e-19)
(1.2749 2.84442 -2.33373e-19)
(1.12928 2.37964 1.05318e-20)
(1.20213 3.21198 3.53267e-19)
(1.16991 3.20252 -4.85588e-19)
(1.25332 3.34606 -2.20152e-19)
(1.43549 3.07049 2.42039e-19)
(1.45443 2.93725 0)
(0.613547 0.854452 -1.36505e-21)
(0.176327 1.32006 1.85974e-19)
(0.436049 0.596778 2.37758e-19)
(0.240693 0.376439 2.64374e-19)
(0.562428 0.438298 2.64474e-19)
(0.537772 0.489829 -4.38106e-19)
(0.531583 0.509449 3.61411e-19)
(0.499209 0.508345 -1.39458e-19)
(0.51846 0.43183 3.21476e-19)
(0.797822 0.244004 -1.15243e-19)
(0.760339 0.298757 0)
(0.777623 0.271023 7.44773e-21)
(0.679393 0.50282 1.16872e-19)
(0.652286 0.48848 -4.31539e-19)
(0.584255 0.519667 1.45751e-20)
(0.636265 0.458897 0)
(0.670922 0.723562 7.65987e-20)
(0.773066 0.735256 -1.13783e-20)
(0.728505 0.837609 3.59819e-21)
(0.824093 0.688476 1.55344e-21)
(0.910744 0.820588 1.53241e-20)
(0.890159 0.780313 -1.58166e-20)
(0.780115 0.604796 -1.11754e-19)
(0.856227 0.650941 -1.44437e-21)
(0.950889 0.655375 0)
(0.947043 0.65227 9.32265e-21)
(0.948294 0.310116 3.12724e-20)
(1.08392 0.287635 -1.61486e-20)
(0.986817 0.225531 4.9755e-20)
(0.937695 0.341854 -7.38659e-20)
(0.955586 0.411817 0)
(1.02756 0.390219 0)
(0.804029 0.353792 -2.46234e-21)
(0.831442 0.280565 0)
(0.839395 0.266588 1.16823e-19)
(0.812723 0.277214 7.9311e-22)
(0.879825 0.410669 4.20659e-19)
(0.829138 0.504872 1.03946e-19)
(0.821442 0.443268 -1.53267e-19)
(0.770613 0.419991 1.64145e-19)
(0.74937 0.424109 1.12452e-19)
(0.7149 0.418078 -1.09464e-19)
(1.01896 0.0231372 1.22382e-19)
(1.02111 0.0051499 0)
(1.01743 0.0160669 8.42224e-20)
(1.01595 0.0210445 -1.88729e-19)
(1.02015 0.00913296 8.94746e-20)
(1.01857 0.0107308 -1.89023e-19)
(1.01351 0.00351799 0)
(1.0126 -0.00248713 -3.97183e-20)
(1.02428 0.00223752 9.72112e-20)
(1.0224 -0.000535459 -5.00383e-20)
(1.01992 0.00277648 3.73786e-20)
(-0.0148684 1.80986 0)
(-0.00935645 1.77509 0)
(-0.0134948 1.82268 0)
(-0.0145711 1.81859 0)
(0.0584038 1.81835 4.26339e-20)
(0.0646088 1.82654 -1.14385e-20)
(0.0713896 1.78653 -2.79828e-20)
(0.0650435 1.83037 -1.16265e-20)
(0.0100271 1.7888 -5.67558e-20)
(0.0194439 1.78808 4.13143e-20)
(0.051936 1.81031 -9.62537e-21)
(0.0122818 1.81091 -2.02146e-20)
(-0.00230698 1.79176 -2.1754e-21)
(-0.0111045 1.78602 -5.39049e-21)
(0.0602262 1.76465 -1.35464e-19)
(0.0620067 1.75892 0)
(0.0623463 1.75387 8.05075e-20)
(0.0882768 1.77304 5.47298e-20)
(0.126984 1.73262 -5.8011e-20)
(0.0980434 1.67216 0)
(0.105311 1.66642 -4.06591e-19)
(0.158511 1.68678 2.84706e-19)
(0.114518 1.74357 -1.57474e-19)
(0.0803476 1.73136 8.77152e-20)
(0.0395649 1.69978 0)
(0.00743253 1.7804 -1.01226e-19)
(0.00888805 1.77796 -1.20602e-19)
(0.010185 1.78556 0)
(-0.000244713 1.77334 -2.70236e-21)
(0.00107808 1.77115 5.24803e-20)
(-0.00281656 1.77345 5.45379e-21)
(0.000160694 1.78367 -8.81722e-20)
(-0.00200519 1.7745 2.26908e-20)
(-0.00627919 1.76028 3.06691e-20)
(-0.00190169 1.76204 0)
(-0.000881524 1.77839 0)
(-0.00184256 1.79128 2.39504e-20)
(0.000672321 1.7886 -7.31798e-21)
(0.00171174 1.78481 0)
(0.000228037 1.79146 1.79769e-20)
(-0.000409536 1.78799 -3.61101e-20)
(1.00721 0.0182513 0)
(1.00955 0.024733 -1.19509e-20)
(1.00833 0.0124272 -8.6625e-20)
(1.01551 0.0248835 0)
(1.01572 0.02856 0)
(1.00782 0.00313012 -5.09248e-21)
(1.01166 0.00185801 1.42165e-19)
(1.01026 0.00312722 1.77437e-19)
(1.01923 0.00389994 0)
(1.01962 0.00307586 0)
(1.00914 0.0119235 8.9096e-20)
(1.00817 0.0112346 0)
(1.01816 0.00816198 0)
(-0.00565779 1.76087 0)
(-0.00643151 1.7621 2.15461e-21)
(-0.00400108 1.75417 1.19493e-20)
(-0.00305768 1.78991 0)
(-0.00493057 1.77684 1.57348e-20)
(-0.00427189 1.78754 -6.74997e-21)
(-0.00268979 1.79273 0)
(0.252303 1.90518 0)
(0.165255 1.81316 -1.03656e-19)
(0.184344 1.80747 0)
(0.175365 1.82089 4.44354e-20)
(0.202948 1.67925 0)
(0.193007 1.77304 1.18995e-20)
(0.870189 2.40905 -8.26813e-21)
(0.849704 1.70811 -4.98706e-19)
(0.881992 1.71948 1.73791e-19)
(0.654173 1.52626 1.61254e-19)
(0.547875 1.91884 0)
(0.550872 2.10073 0)
(0.815922 1.59902 0)
(0.739747 1.45868 -5.848e-19)
(0.380125 1.99439 -3.51906e-19)
(0.541025 1.86083 -1.04746e-19)
(0.436012 2.10844 8.65224e-20)
(0.517915 1.54275 0)
(0.602178 1.49458 0)
(0.578215 1.49829 -2.10669e-19)
(0.570661 1.74481 0)
(0.817143 0.717801 0)
(0.751631 0.860342 2.86175e-19)
(0.730186 0.799964 1.18884e-20)
(0.637979 0.775061 0)
(0.813692 0.908883 -4.56468e-19)
(0.757715 0.866245 3.9777e-20)
(0.76202 0.930328 0)
(0.736669 0.936444 -8.56233e-20)
(0.754264 0.84847 0)
(0.746692 0.812085 0)
(0.999477 3.08686 2.55068e-19)
(1.04356 3.15434 2.71199e-19)
(0.731672 2.94614 -6.33188e-19)
(0.529065 2.84833 6.36622e-20)
(0.938812 2.9038 0)
(0.846194 2.88538 -8.02197e-20)
(0.898231 2.5396 2.19421e-19)
(0.873265 2.23799 1.1554e-21)
(0.0953262 2.35344 0)
(0.183374 1.42871 3.77797e-19)
(0.233288 1.41325 0)
(0.87113 0.191137 0)
(0.833274 0.179928 0)
(0.795938 0.187911 0)
(0.875651 0.210387 -1.85171e-19)
(0.82244 0.214981 1.1828e-19)
(0.912265 0.0629928 -1.01588e-19)
(0.900169 0.103919 0)
(0.889138 0.10823 4.5522e-20)
(0.870887 0.0820675 1.89934e-19)
(0.883019 0.0616327 -1.15804e-19)
(1.17794 3.36684 -6.33568e-19)
(1.2749 3.2782 0)
(1.16666 3.40989 -1.34263e-18)
(0.713202 3.57302 1.15122e-18)
(1.03315 3.09827 1.88049e-19)
(0.596989 1.05246 2.32056e-19)
(0.694303 0.955687 0)
(0.42834 0.612811 -6.03033e-20)
(0.434906 0.761878 2.56642e-19)
(0.478738 0.578842 -7.52738e-20)
(0.49794 0.556074 9.18642e-20)
(0.618315 0.505673 1.76761e-19)
(0.667896 0.510947 0)
(0.586745 0.634733 0)
(0.549452 0.603783 0)
(0.947249 0.563122 -4.3672e-20)
(0.857059 0.51383 -9.92743e-20)
(0.859996 0.558614 2.52484e-20)
(0.894808 0.483835 -7.4074e-20)
(0.978664 0.451135 0)
(0.973615 0.530853 2.56004e-21)
(0.78683 0.383123 -2.48672e-19)
(0.799021 0.368882 -2.77637e-19)
(0.747934 0.391772 1.95004e-19)
(0.734975 0.378913 -2.18526e-19)
(0.812512 0.324787 -1.60953e-19)
(0.752312 0.338258 1.98253e-19)
(1.0157 0.00241633 -9.4623e-20)
(1.01787 -0.00216088 1.92852e-19)
(1.01821 0.0201487 1.16045e-19)
(1.01486 0.0238474 -1.4245e-19)
(0.999076 0.0237151 0)
(1.01262 -0.0020872 -2.23978e-19)
(0.0566545 1.78701 2.0499e-20)
(0.0370665 1.79147 0)
(0.082863 1.77619 1.64309e-19)
(0.0826447 1.78324 -1.50419e-19)
(0.0748364 1.78892 5.17782e-20)
(0.0615839 1.79438 0)
(-0.0124063 1.76836 0)
(-0.00617192 1.77236 -8.9665e-21)
(-0.00713904 1.77745 8.12569e-21)
(-0.00554539 1.77377 1.86545e-21)
(-0.00959148 1.76651 -1.52507e-20)
(-0.00916921 1.76887 8.21545e-21)
(0.0960093 2.09045 -1.5259e-19)
(0.104302 2.03088 1.60015e-19)
(0.118652 1.82945 3.08057e-20)
(0.1379 1.98852 1.02976e-20)
(0.280866 1.25256 0)
(0.213359 1.57782 1.82462e-19)
(0.238327 1.40827 -1.77102e-19)
(0.0551723 1.67451 -2.94739e-20)
(0.0499514 1.64008 0)
(0.0985056 1.39283 0)
(0.390672 1.86713 5.3591e-19)
(0.455243 1.65747 9.38328e-19)
(0.537822 1.73139 -6.20186e-19)
(0.405478 1.64501 -1.16724e-19)
(0.311897 1.75866 1.91062e-19)
(0.270546 1.6581 -4.72616e-19)
(0.887936 1.92953 -8.07813e-20)
(0.895085 2.20387 0)
(0.911524 1.93402 2.198e-19)
(0.860919 2.6978 0)
(0.788792 2.57313 0)
(0.741321 2.18475 1.45812e-19)
(1.1608 3.01277 2.81805e-19)
(1.0791 2.92119 -2.34825e-19)
(0.278933 0.984776 0)
(0.383807 0.902782 -1.43949e-19)
(0.681628 0.931915 -9.54559e-20)
(0.380192 1.98077 0)
(0.361518 2.68194 -1.32286e-19)
(0.400108 2.47315 0)
(0.692314 0.699919 -1.59881e-19)
(0.73973 0.6572 2.15471e-19)
(0.753861 0.581022 -2.05822e-19)
(0.636669 0.646105 -2.67455e-20)
(0.691385 0.580552 -1.15326e-19)
(1.12914 2.74178 -2.13257e-19)
(1.12462 2.83705 4.1585e-19)
(0.741696 2.23643 -8.45551e-20)
(0.915863 1.7789 4.7462e-20)
(1.07695 2.2586 6.86089e-19)
(1.17951 2.55383 3.60706e-20)
(1.0454 2.66393 -4.03838e-19)
(1.02641 1.89434 -2.11197e-20)
(0.95618 1.62035 -3.92785e-19)
)
;

boundaryField
{
    wall-4
    {
        type            noSlip;
    }
    velocity-inlet-5
    {
        type            fixedValue;
        value           uniform (1 0 0);
    }
    velocity-inlet-6
    {
        type            fixedValue;
        value           uniform (0 3 0);
    }
    pressure-outlet-7
    {
        type            zeroGradient;
    }
    wall-8
    {
        type            noSlip;
    }
    frontAndBackPlanes
    {
        type            empty;
    }
}

