/*--------------------------------*- C++ -*----------------------------------*\
  =========                 |
  \\      /  F ield         | OpenFOAM: The Open Source CFD Toolbox
   \\    /   O peration     | Website:  https://openfoam.org
    \\  /    A nd           | Version:  6
     \\/     M anipulation  |
\*---------------------------------------------------------------------------*/
FoamFile
{
    version     2.0;
    format      ascii;
    class       volScalarField;
    location    "0";
    object      P_rec;
}
// * * * * * * * * * * * * * * * * * * * * * * * * * * * * * * * * * * * * * //

dimensions      [0 2 -2 0 0 0 0];

internalField   nonuniform List<scalar> 
918
(
0.56078
0.26442
0.112171
0.58215
-0.00268558
0.153643
-0.788182
0.513103
0.587916
-0.128906
0.0315337
0.455726
-0.00377554
-0.0112968
-1.21796
0.0208312
0.57573
-0.743486
0.413453
0.0241782
-0.104797
0.586456
0.515888
0.408958
0.502091
-0.09203
0.0777842
-0.0363843
-0.0574342
-0.043737
-0.0028528
0.0496623
0.00793999
0.137526
0.124731
0.165712
0.422685
0.195387
-0.654528
-0.704846
-0.698785
-0.871543
0.523898
0.537812
-0.281411
0.491773
0.465726
0.423333
0.566069
0.590895
0.520842
0.568744
0.597477
0.25764
-0.182083
-0.254205
-0.0773141
-0.074164
0.0744998
0.0267229
0.014074
0.0609948
0.047423
0.374045
0.446763
0.442112
0.467604
0.466135
0.226469
0.182353
0.228089
-0.0051337
0.128531
-0.02924
0.0869383
-0.00840973
0.0287779
-0.0306477
-0.0470976
-1.48362
-2.23617
-0.750881
-0.618558
0.00591989
0.0223336
0.0306179
0.565916
0.567585
0.562279
0.572351
0.707095
-0.676447
-0.85095
0.447132
0.446853
0.573118
0.525516
0.465649
0.397339
0.0214304
0.0180283
0.0121749
0.040575
0.0320594
0.0879255
0.20871
0.387181
0.42222
0.466197
0.49205
0.480096
0.209028
0.539909
0.537908
-0.116969
0.0454948
-0.0926476
-0.0111557
0.0888708
0.0564477
0.159184
0.197026
-0.0625003
-0.0112426
0.037207
0.00119173
0.0270575
0.421086
0.411273
0.435723
0.425106
0.430241
0.0971875
0.000369384
0.268942
0.30794
-0.530258
-0.568319
-0.769161
-0.788107
-0.901738
0.474839
0.541781
0.55769
-0.387867
-0.256336
-0.423505
-0.1692
-0.215604
0.428358
0.419777
0.42074
0.427559
0.430944
0.432039
0.575193
0.567767
0.603789
0.267512
0.343672
0.241296
0.201148
-0.484721
-0.352607
-0.461984
-0.0437973
-0.00673793
0.0633817
0.0987847
0.10961
0.0792456
-0.00242548
0.0131429
0.0031705
0.0169301
0.018243
0.377969
0.362291
0.375337
0.385089
0.439878
0.438605
0.44402
0.446513
0.167857
0.155876
0.112464
0.0890883
-3.02574
-5.18135
-0.426986
-0.335962
-0.00275859
-0.013474
-0.00510563
-0.0851309
-0.0158259
-0.0433602
0.067482
0.0405693
0.0325102
0.0521696
0.563096
0.576055
0.700056
0.723203
0.626675
0.621456
0.444516
0.454306
0.449238
0.451515
0.0318802
0.0180448
0.0335387
0.429383
0.318639
0.373481
0.17653
0.08195
0.256357
0.29609
0.564974
0.548577
0.570544
-0.121127
-0.0374502
0.302072
0.0457654
0.287341
0.110787
0.0689602
0.108925
0.0389212
0.390055
0.407236
0.403832
0.431834
0.439321
0.439152
0.441988
0.433553
0.437345
-0.157297
-0.450988
0.420796
0.415121
0.350609
0.398099
0.536344
0.588117
0.563416
0.552344
0.561783
-0.0707133
-0.106711
0.152696
0.141937
0.326016
0.341389
0.331567
0.0857191
0.0454466
0.0836632
0.0702009
0.0466651
0.0973253
-0.421422
-1.77956
-1.01791
-0.145208
-0.227341
-0.198126
0.0379654
0.102667
0.0696317
0.688864
0.735776
0.393047
0.550665
0.504091
-0.152809
-0.07359
0.0324734
-0.0906439
-0.0411842
0.0389985
-0.0083521
0.405077
0.392816
0.405677
0.606808
0.66784
0.0442313
-0.0175467
-0.0585407
0.122495
0.115056
0.115166
0.717324
0.670663
0.710117
0.396175
0.384957
-0.0594201
-0.00415739
0.499015
0.525916
-0.0625079
-0.0278534
-0.132639
-0.807645
0.0450933
0.449576
0.40776
0.463124
-0.179529
0.179583
0.00309043
0.0175048
-0.0355548
0.427362
0.354748
0.32371
-0.0618425
0.00583286
-0.00403351
-0.453018
0.457824
0.441595
0.44797
0.45953
0.473265
-0.00736801
-0.0149477
0.0302874
-0.0370462
0.0427696
0.0394322
0.431498
0.421176
-0.443057
0.441722
0.466487
0.465294
0.479234
0.480505
0.468322
-0.0162572
0.03143
0.036475
0.144377
0.251397
-0.0352849
-0.0933136
-0.0107392
-0.145029
-0.332366
-0.0698201
-0.0613069
-0.06877
-0.0527317
0.527823
0.491888
0.131147
-0.0551184
0.114501
0.0791639
0.445458
0.463606
0.436682
0.449158
0.467034
0.416203
0.482041
0.450037
0.446465
0.490734
-0.123798
-0.0457746
-0.139492
-0.265849
0.249962
0.346329
0.158933
0.223154
0.0942519
-0.0145141
0.0433713
-0.0198331
0.00492355
0.00036036
0.0990698
0.0306368
0.134981
0.0159786
0.107272
-0.0400274
0.135352
-0.00735718
0.410435
0.430145
0.427608
0.469383
0.387758
0.405759
0.383803
0.381767
0.402483
0.333478
0.351596
0.351691
0.0133586
0.0128476
0.0446584
0.0209678
0.0433344
-0.030828
-0.0278115
-0.0280285
-0.0058197
-0.0499798
-0.0108406
-0.00441306
-0.383832
-0.538798
0.619814
0.524157
-0.0881315
0.417599
0.461884
0.43496
0.473964
0.484208
0.517001
0.481262
0.457941
0.427815
0.443809
0.426069
0.445328
-0.358329
-0.43525
-0.283571
-0.333044
0.115708
0.545372
0.30171
0.249699
0.24206
0.408066
0.335379
0.0776033
-0.203498
-0.32348
-0.537352
-0.400232
-0.55918
-0.101888
-0.0478499
-0.114681
-0.0377517
0.0379234
-0.0253472
-0.038879
-0.122278
0.432785
-0.179573
-0.15974
0.0669249
-0.018916
0.223533
0.527667
0.537813
0.469048
0.446407
0.513278
0.486596
0.485956
0.515762
0.522419
0.426683
0.191812
0.1809
0.115355
0.536134
0.450349
0.48514
0.37041
0.467145
0.471178
0.450038
0.440327
0.477475
0.439395
0.434798
0.41225
0.404215
0.444607
0.448223
0.417208
-0.00769463
-0.0161974
-0.14633
-0.366012
-0.226645
-0.322482
-0.203802
-0.0956113
-0.1439
-0.0840273
0.172151
-0.135568
-0.325121
-0.181172
-0.301387
-0.0371461
-0.131683
0.123804
0.128106
0.124681
0.140488
0.18385
0.15699
0.0344064
0.0424896
0.0765311
-0.00404909
0.125966
0.0874407
0.152936
0.0577695
0.111965
0.065497
0.0262376
-0.00308149
0.103025
0.0486136
0.00678545
0.0280819
0.0155659
-0.0739729
-0.0728547
0.177059
0.0457422
0.452427
0.435875
0.437529
0.456555
0.490186
0.482601
0.427889
0.429238
0.457025
0.426855
0.396858
0.378037
0.368785
0.401055
0.412347
0.408561
0.449803
0.440645
0.413032
0.433921
0.379311
0.399174
0.352521
0.372073
0.39987
-0.0998187
0.0217663
-0.0385261
-0.0451021
0.0118926
0.0510948
0.109932
0.0298076
0.116835
0.0887574
0.0592436
0.0293229
0.0570441
-0.275752
-0.191159
-0.376002
-0.456039
-0.544605
0.587751
0.665329
0.542613
0.377148
0.424282
0.538288
0.648649
0.375833
0.397961
0.494727
0.381291
0.582152
0.446326
0.431603
0.453126
0.474054
0.449173
-0.207401
-0.0664503
-0.0281369
0.0783121
0.186382
0.244863
0.136693
0.0675833
0.162953
0.190368
0.527114
0.54748
0.512652
0.545367
0.540645
0.341342
0.435202
0.463815
0.459588
0.461047
0.483368
0.490587
0.485223
0.415225
0.412099
0.417389
0.373549
0.398297
0.371143
0.370751
0.425522
0.403713
0.404988
0.416407
0.465399
0.444469
0.472753
0.518278
0.497014
0.39767
0.377928
0.403113
0.413973
0.391959
0.390621
0.385302
0.124595
0.144628
0.0666004
-0.125284
0.000837415
-0.0614175
-0.111192
-0.0943867
0.0503274
-0.433089
-0.372216
-0.887298
0.317781
0.401112
0.182679
-0.0890824
0.425509
0.461581
0.445851
0.346702
0.357414
0.519813
0.541503
0.550149
0.476473
0.470839
0.49005
0.475609
0.428401
0.305053
0.238319
0.279805
0.118832
0.179559
0.333805
0.276245
0.23281
0.264553
0.353797
0.259168
0.285924
0.360079
0.32196
0.313055
0.438851
0.484966
0.501147
0.443666
0.354635
0.415027
0.400843
0.447926
0.489433
0.493303
0.450238
0.43115
0.441019
0.432508
0.421181
0.439053
0.40816
0.455025
0.460693
0.468951
0.46257
-0.0121476
0.0109361
0.0266616
-0.0175278
-0.0621781
-0.114495
-0.1294
-0.137627
0.0722751
0.045101
-0.0622746
-0.0116982
0.0890012
0.0372976
0.0660194
0.0732676
-0.0082964
-0.0623043
0.0925753
0.266723
0.258977
0.200152
0.0746133
0.106908
0.215757
0.0318529
0.126173
0.0783856
0.0400481
0.041263
0.0179323
0.111872
0.0465407
0.0866751
0.0376831
-0.117585
0.0446752
0.0993824
-0.0519764
0.00754013
0.0413647
0.414798
0.418196
0.402477
0.383104
0.390917
0.389191
0.425881
0.45155
0.453315
0.452273
0.459087
0.441423
0.447759
0.00972111
0.131063
0.159939
0.0943052
0.046041
-0.00710491
-0.0237298
0.0513096
-0.125023
-0.0785191
-0.204023
-0.299796
-0.248181
0.322854
0.342689
0.353825
0.534812
0.39821
0.307407
0.396977
0.517161
0.226287
0.317861
0.203264
0.58302
0.519878
0.621016
0.380554
0.035035
0.121168
0.264928
-0.000826306
-0.000583288
0.118895
0.123406
0.127364
0.122212
0.20188
0.183224
0.159881
0.0633593
0.106488
0.23357
0.218902
0.295611
0.353748
0.0753021
0.0911575
0.0252122
0.50215
0.528181
0.550321
0.522554
0.542887
0.482986
0.480023
0.51223
0.53915
0.527875
-0.738142
-0.478887
-1.31002
-0.624047
-0.327596
0.41741
0.154927
0.774629
0.609802
0.473876
0.496396
0.499181
0.460216
0.516346
0.516703
0.269899
0.363334
0.306092
0.343927
0.255359
0.181814
0.482821
0.470996
0.496575
0.516747
0.474317
0.515884
0.370673
0.412994
0.395308
0.430077
0.453703
0.473577
0.0757891
0.0183439
0.0257781
0.0100125
0.00424416
-0.00837123
-0.0493492
-0.0157524
0.172668
0.110244
0.0496709
0.107213
-0.00130049
-0.0245676
-0.148416
-0.0695765
-0.146532
-0.282578
-0.264232
-0.226702
-0.12239
-0.0468665
0.297167
0.458304
0.356517
0.490943
0.30863
0.462955
0.356804
0.363347
0.389611
0.28358
0.325818
-0.0305413
-0.326082
-0.229658
0.84698
0.93642
0.579849
0.315715
0.0800359
0.398741
0.452165
0.3849
0.40251
0.484094
0.444911
-0.126518
-0.0299105
-0.092896
-0.0225442
0.12048
0.0519377
0.0582702
0.0515301
0.0588071
)
;

boundaryField
{
    wall-4
    {
        type            calculated;
        value           nonuniform List<scalar> 
100
(
0.56078
0.26442
0.112171
0.58215
0.153643
-0.788182
0.513103
-0.128906
0.0315337
0.455726
-0.00377554
-0.0112968
-1.21796
0.57573
-0.743486
0.413453
0.0241782
-0.104797
0.408958
0.502091
-0.09203
0.0777842
-0.0363843
0.137526
0.422685
-0.704846
-0.871543
0.537812
-0.281411
0.465726
0.423333
-0.254205
-0.074164
0.014074
0.047423
0.374045
0.442112
0.466135
0.128531
0.0869383
0.0287779
-0.0470976
-2.23617
-0.618558
0.567585
0.572351
-0.85095
0.446853
0.397339
0.0180283
0.0320594
0.20871
0.42222
0.480096
0.209028
0.537908
-0.116969
-0.0111557
0.0564477
0.197026
0.411273
0.435723
0.430241
-0.568319
-0.901738
0.55769
-0.423505
-0.215604
0.42074
0.432039
-0.461984
-0.00673793
0.0031705
0.018243
0.362291
0.385089
0.439878
0.446513
0.0890883
-0.335962
0.576055
0.444516
0.451515
0.0335387
0.373481
0.08195
0.29609
0.570544
-0.0374502
0.110787
0.403832
0.439152
0.437345
0.561783
-0.106711
0.331567
0.0702009
-0.198126
-0.0411842
-0.0585407
)
;
    }
    velocity-inlet-5
    {
        type            calculated;
        value           nonuniform List<scalar> 8(0.56078 0.58215 0.587916 0.586456 0.590895 0.597477 0.573118 0.603789);
    }
    velocity-inlet-6
    {
        type            calculated;
        value           nonuniform List<scalar> 4(0.26442 0.153643 0.165712 0.228089);
    }
    pressure-outlet-7
    {
        type            calculated;
        value           uniform 0;
    }
    wall-8
    {
        type            calculated;
        value           nonuniform List<scalar> 
34
(
-0.00268558
0.0208312
0.00793999
0.195387
0.25764
0.0744998
0.0306179
0.707095
0.0270575
0.000369384
0.30794
0.474839
0.343672
0.201148
0.0987847
0.0792456
-5.18135
0.067482
0.0521696
0.723203
0.621456
-0.450988
0.420796
0.398099
0.588117
0.141937
-1.01791
0.0696317
0.735776
0.504091
0.405677
0.66784
0.115166
0.710117
)
;
    }
    frontAndBackPlanes
    {
        type            empty;
    }
}

