/*--------------------------------*- C++ -*----------------------------------*\
  =========                 |
  \\      /  F ield         | OpenFOAM: The Open Source CFD Toolbox
   \\    /   O peration     | Website:  https://openfoam.org
    \\  /    A nd           | Version:  6
     \\/     M anipulation  |
\*---------------------------------------------------------------------------*/
FoamFile
{
    version     2.0;
    format      ascii;
    class       volVectorField;
    location    "0";
    object      U;
}
// * * * * * * * * * * * * * * * * * * * * * * * * * * * * * * * * * * * * * //

dimensions      [0 1 -1 0 0 0 0];

internalField   nonuniform List<vector> 
13046
(
(0.416819 0.135864 0)
(0.558107 -0.168871 2.7101e-21)
(0.20682 -0.103401 6.10019e-21)
(0.411365 0.0604599 0)
(0.190793 -0.0375042 5.61401e-21)
(0.476372 -0.177823 0)
(0.447744 0.0802572 -8.24094e-22)
(0.519862 -0.210941 -1.37906e-21)
(0.166173 -0.0266449 6.17511e-21)
(0.858972 0.371686 -1.98125e-21)
(0.967132 -0.42444 0)
(-0.0179544 -0.0101483 -3.77622e-21)
(0.521317 0.172462 5.20936e-21)
(0.649897 -0.236958 4.00175e-21)
(0.13648 -0.073253 -3.32401e-21)
(0.809636 0.415233 -1.1546e-21)
(0.017404 -0.0396224 -6.01619e-21)
(1.01311 -0.355063 -1.14858e-21)
(0.251794 0.029478 0)
(0.362117 -0.154997 3.01292e-21)
(0.423828 -0.0279056 -8.62838e-21)
(0.820381 0.407492 1.132e-21)
(0.00718855 -0.0317665 1.20474e-20)
(1.00463 -0.3707 -3.13958e-22)
(0.36958 0.0712902 -3.50737e-21)
(0.474055 -0.140361 5.12471e-21)
(0.22517 -0.0826136 0)
(0.527638 0.199011 -1.18289e-22)
(0.673338 -0.234687 -1.18219e-21)
(0.139571 -0.0870241 1.14893e-20)
(0.420823 0.155203 0)
(0.58084 -0.158607 0)
(0.215457 -0.121953 -6.20867e-21)
(0.341613 0.0453212 1.23055e-20)
(0.247235 -0.0823483 -2.09283e-21)
(0.433493 -0.11463 -7.94193e-21)
(0.342909 0.0246432 2.68077e-23)
(0.251952 -0.0631953 0)
(0.40767 -0.111549 0)
(0.339851 0.159382 -4.44956e-21)
(0.354871 -0.231576 -5.53706e-21)
(0.580978 -0.0790061 4.06737e-21)
(0.340474 -0.0334957 -2.81538e-21)
(0.289177 -0.0383407 2.88527e-21)
(0.335631 -0.0815646 0)
(0.363375 -0.0263259 -1.80682e-21)
(0.265279 -0.018373 0)
(0.346232 -0.105564 9.2205e-22)
(0.436024 0.131162 0)
(0.56486 -0.188534 1.9336e-22)
(0.178038 -0.0845852 3.19343e-23)
(0.513809 -0.357011 -6.60879e-21)
(0.287677 0.177805 0)
(0.648961 -0.0106692 4.69146e-21)
(0.567342 -0.391201 9.40878e-21)
(0.664596 0.0117793 5.07708e-21)
(0.256544 0.162968 -6.82302e-21)
(0.921089 -0.22872 7.3692e-22)
(0.672429 0.397407 0)
(0.174708 -0.164571 -5.01686e-21)
(0.679074 0.185414 2.45122e-21)
(0.759091 -0.377381 -2.24781e-21)
(0.0663035 0.0109795 1.38015e-20)
(0.00570665 -0.025206 -7.02284e-21)
(0.94985 -0.404227 1.07401e-21)
(0.822409 0.337473 3.56656e-21)
(0.63777 0.39166 0)
(0.890747 -0.196462 -3.54466e-21)
(0.218492 -0.202568 -1.45248e-21)
(0.608355 0.372127 1.8721e-21)
(0.861004 -0.184223 4.80362e-21)
(0.234473 -0.211587 1.97611e-21)
(0.952207 -0.237037 6.93087e-24)
(0.698698 0.414542 -7.46353e-23)
(0.158924 -0.158931 2.85368e-23)
(0.261708 0.0495094 0)
(0.355848 -0.168768 -3.28364e-21)
(0.450212 -0.0443755 6.10295e-21)
(0.104595 -0.113216 -5.50208e-21)
(0.739357 0.420746 5.37923e-21)
(0.981447 -0.277736 1.49407e-21)
(0.393833 0.0801629 -1.83867e-21)
(0.490787 -0.159706 1.82562e-21)
(0.202148 -0.0649691 0)
(-9.35237e-05 -0.0233033 6.25626e-21)
(0.96498 -0.408878 0)
(0.838307 0.352046 -2.09992e-21)
(0.861189 0.271811 3.627e-21)
(0.00405267 0.00733103 0)
(0.90859 -0.47303 8.79314e-22)
(0.0358511 0.0413784 0)
(0.921079 0.213295 0)
(0.875436 -0.548019 -1.07008e-22)
(0.683431 0.275873 4.81601e-21)
(0.718041 0.283832 -6.66436e-21)
(0.834033 -0.324214 -4.10795e-21)
(0.859159 -0.350891 1.91842e-21)
(0.0678665 -0.0579109 2.93272e-21)
(0.0484248 -0.0425126 -7.53074e-21)
(0.013114 0.0157445 3.58387e-22)
(0.859995 0.251938 -3.54858e-21)
(0.891642 -0.486598 0)
(0.377264 -0.00458273 1.42488e-23)
(0.242227 -0.0183695 0)
(0.378081 -0.130805 0)
(0.198737 0.109029 -1.24036e-20)
(0.600356 0.0379022 2.39229e-21)
(0.556961 -0.339415 0)
(0.285223 0.157331 -1.88111e-21)
(0.462838 -0.304738 0)
(0.602739 -0.028443 9.15906e-21)
(0.809121 0.37034 0)
(-0.0214136 -0.000903366 5.10466e-21)
(0.880326 -0.412619 1.25253e-22)
(0.482592 0.150825 -3.64237e-21)
(0.612825 -0.216506 -1.77249e-21)
(0.150083 -0.069994 -6.00524e-21)
(0.717489 0.330036 -2.78504e-21)
(0.684911 0.303028 2.59949e-21)
(0.894139 -0.318328 -1.05311e-21)
(0.0705087 -0.0739309 -3.34638e-21)
(0.854086 -0.306998 1.10044e-21)
(0.0792701 -0.0747663 3.12615e-21)
(0.848499 0.380767 4.59551e-21)
(0.962404 -0.418826 7.7345e-22)
(-0.0188493 -0.00854486 1.68201e-21)
(0.610944 0.245306 0)
(0.762472 -0.281636 2.88755e-21)
(0.102497 -0.0795145 -1.7453e-20)
(0.373596 0.174037 0)
(0.316725 -0.210415 5.57734e-21)
(0.59649 -0.103754 -2.12875e-22)
(0.0481284 0.0496825 0)
(0.895687 0.198814 0)
(0.864128 -0.538702 0)
(0.780705 0.288224 0)
(0.89385 -0.401083 4.93811e-21)
(0.0214744 -0.0192372 7.56436e-21)
(0.456064 0.175568 0)
(0.61742 -0.179136 0)
(0.199877 -0.126343 0)
(0.55256 0.10538 0)
(0.608926 -0.300285 0)
(0.127279 0.0179158 0)
(0.267031 0.153765 1.74067e-21)
(0.502589 -0.330428 0)
(0.615365 -0.00908107 -4.95234e-21)
(0.200774 0.0972453 1.20177e-20)
(0.580418 0.0336142 5.29922e-21)
(0.543635 -0.321724 -5.98764e-21)
(0.704912 0.204169 -5.52479e-21)
(0.788667 -0.387263 0)
(0.0528457 0.000368124 -1.79309e-20)
(0.183381 0.0485626 0)
(0.510852 0.038185 -1.16895e-20)
(0.503148 -0.262295 -1.55436e-21)
(0.660103 -0.430897 -2.5757e-21)
(0.692762 0.0695921 -5.35724e-21)
(0.703999 -0.446953 0)
(0.714744 0.0987199 -3.09612e-21)
(0.182058 0.122925 -5.8483e-21)
(0.146919 0.101 5.61749e-21)
(0.579773 0.0782224 -7.41266e-22)
(0.597023 -0.328987 -3.05085e-21)
(0.144338 0.0511588 3.45933e-21)
(0.877253 0.357121 2.01076e-21)
(-0.0197543 -0.00763893 -1.96786e-21)
(0.950638 -0.441559 1.41178e-21)
(0.825776 0.377328 1.20538e-21)
(-0.0211636 -0.00271809 7.6666e-22)
(0.920255 -0.414015 0)
(0.78975 0.306297 -1.09046e-22)
(0.911242 -0.397862 0)
(0.0176797 -0.0248109 -9.13683e-21)
(0.432889 0.237268 0)
(0.676539 -0.115854 -1.21168e-21)
(0.327091 -0.244394 -3.21598e-21)
(0.563189 0.0619048 -4.79931e-21)
(0.163666 0.0655877 0)
(0.565751 -0.310318 0)
(-0.0181702 -0.00227548 0)
(0.936501 -0.472875 0)
(0.898428 0.323618 -1.61576e-21)
(0.399836 0.213584 0)
(0.644438 -0.100496 2.71803e-21)
(0.340388 -0.23894 -8.36859e-22)
(0.180364 0.0618945 0)
(0.526697 0.0381659 0)
(0.510724 -0.277187 0)
(0.522977 0.0864283 -2.43243e-21)
(0.575032 -0.279869 0)
(0.138169 0.013029 0)
(0.691058 -0.276617 1.70947e-23)
(0.106248 -0.0510216 4.09451e-21)
(0.583838 0.222944 -7.53708e-21)
(0.731878 -0.269215 0)
(0.110697 -0.0746186 1.80334e-20)
(0.864817 0.314281 4.11973e-21)
(-0.00644757 -0.00652073 -5.68251e-21)
(0.941188 -0.451042 3.78423e-21)
(0.0363021 0.037799 -5.24092e-21)
(0.86467 0.214097 -2.23408e-21)
(0.868299 -0.511657 -4.55328e-21)
(0.906149 0.2477 5.7868e-21)
(0.898192 -0.513353 0)
(0.0112381 0.0227309 5.13055e-21)
(0.535835 -0.398022 2.64578e-21)
(0.70407 -0.0164534 -2.05911e-21)
(0.327802 0.227022 -5.72582e-21)
(0.509294 0.124655 4.78529e-21)
(0.727768 0.43069 -2.80893e-21)
(0.123611 -0.127637 3.38444e-21)
(0.985025 -0.266879 -6.92421e-24)
(0.905762 -0.512826 0)
(0.916365 0.267526 1.58836e-21)
(0.000684701 0.0142799 0)
(0.36979 0.0214301 9.08764e-21)
(0.230398 -0.0378123 0)
(0.40959 -0.135461 -2.97195e-21)
(0.507066 0.204672 0)
(0.666182 -0.214888 1.70661e-22)
(0.16659 -0.105933 -3.40786e-21)
(0.0472601 0.047345 -4.03805e-21)
(0.872689 0.201619 0)
(0.859428 -0.52575 5.24595e-21)
(0.540926 0.145354 0)
(0.675299 -0.283172 -7.23683e-21)
(0.105766 -0.0385896 0)
(-0.0237828 -0.00434871 0)
(0.913526 -0.445795 -7.46437e-22)
(0.872952 0.356107 0)
(0.293875 0.204205 6.19525e-21)
(0.703179 0.00122661 0)
(0.569911 -0.420217 0)
(0.881153 0.238865 -5.07697e-21)
(0.889927 -0.502986 0)
(0.0166271 0.0231821 3.69592e-23)
(0.644135 0.0893117 -6.18503e-21)
(0.650563 -0.387366 -2.26446e-21)
(0.139393 0.0764138 7.93227e-21)
(0.607556 0.262144 0)
(0.771101 -0.268645 -2.7037e-21)
(0.116169 -0.0929127 -1.80671e-21)
(0.806821 -0.537084 7.18361e-21)
(0.840947 0.140174 4.0185e-21)
(0.110334 0.0940284 -3.17927e-21)
(0.751536 0.107103 0)
(0.735264 -0.476002 3.02821e-21)
(0.142552 0.104198 1.15776e-22)
(-0.023927 -0.0040403 3.97059e-21)
(0.890329 -0.453215 0)
(0.879584 0.344473 1.09079e-21)
(0.342864 0.194512 -8.2896e-21)
(0.420331 -0.290925 3.98972e-21)
(0.632215 -0.0604242 3.88563e-22)
(0.743328 0.394074 -1.16161e-21)
(-0.0163946 0.00279354 4.22468e-22)
(0.895106 -0.358607 0)
(0.228912 0.0104041 -1.86155e-21)
(0.414333 -0.0063095 7.00695e-21)
(0.390563 -0.162489 -8.97781e-21)
(0.639687 0.125364 -2.48396e-21)
(0.623918 0.096267 -3.25127e-23)
(0.683181 -0.371539 5.52925e-21)
(0.643703 -0.36775 5.41829e-21)
(0.130595 0.0607654 -6.3071e-21)
(0.102391 0.0403022 3.24659e-21)
(0.0817332 -0.0942783 7.20174e-21)
(0.758059 0.425436 -2.88006e-21)
(1.0029 -0.290148 0)
(0.57479 0.256183 0)
(0.747598 -0.24048 0)
(0.147305 -0.112452 7.20338e-21)
(0.781879 0.130649 1.07898e-21)
(0.769237 -0.496226 0)
(0.117971 0.0902645 0)
(0.75142 0.312813 -2.3784e-21)
(0.898258 -0.357526 0)
(0.0392368 -0.0457243 -3.30224e-21)
(0.319597 -0.0197074 -1.9192e-21)
(0.350784 -0.0699987 -2.75109e-21)
(0.295377 -0.0581559 9.61362e-22)
(0.694083 0.11144 3.93797e-21)
(0.704242 -0.426353 0)
(0.124424 0.0792075 5.4027e-21)
(0.580881 0.273788 0)
(0.766175 -0.234007 -3.33903e-21)
(0.155957 -0.125854 4.57215e-21)
(0.554771 0.169907 -7.73158e-21)
(0.589028 0.188362 6.22648e-21)
(0.351502 0.207792 6.5605e-21)
(0.431256 -0.306844 -1.15298e-20)
(0.649628 -0.0564201 8.50836e-21)
(0.715981 0.135635 4.04823e-21)
(0.737067 -0.437188 -4.57298e-21)
(0.0981138 0.0620221 -4.92828e-21)
(0.775339 0.318606 8.77445e-21)
(0.0263391 -0.0359744 1.17024e-20)
(0.916477 -0.376004 2.28899e-21)
(0.285972 0.142848 2.8831e-21)
(0.439122 -0.285956 0)
(0.583351 -0.0315871 -3.08384e-21)
(0.199756 0.141823 6.33107e-21)
(0.710444 0.0617989 3.0439e-21)
(0.660836 -0.450115 0)
(0.6669 0.331925 9.09874e-22)
(0.865436 -0.26754 2.75357e-21)
(0.119636 -0.112238 -2.06209e-21)
(0.31936 0.199527 -5.36322e-22)
(0.489896 -0.347161 0)
(0.659802 -0.0262879 -6.50306e-21)
(0.695232 0.350978 0)
(0.716907 0.351539 0)
(0.898376 -0.282125 1.69679e-21)
(0.105707 -0.104468 5.38495e-21)
(0.911123 -0.305589 -2.39406e-21)
(0.082674 -0.0855546 -5.70164e-21)
(-0.0154548 -0.00590558 4.37993e-21)
(0.946527 -0.458527 0)
(0.885457 0.332695 2.48261e-21)
(0.652256 0.293477 0)
(0.824576 -0.285997 1.31118e-21)
(0.100868 -0.089339 -1.8712e-21)
(0.77377 -0.376399 5.06938e-22)
(-0.0163302 0.00278369 -6.28332e-21)
(0.717493 0.355127 -1.72771e-21)
(0.476767 0.0102509 9.4783e-21)
(0.207775 0.0458917 0)
(0.44722 -0.223448 3.26076e-21)
(0.637772 0.170922 -5.80745e-21)
(0.72352 -0.348182 0)
(0.0768661 0.00169075 -1.0621e-20)
(0.00076786 -0.0116874 3.62991e-21)
(0.840139 0.308789 -7.62628e-21)
(0.930925 -0.434288 -3.06751e-21)
(0.58653 -0.410366 3.42911e-21)
(0.682816 0.0177491 0)
(0.254583 0.174688 7.7327e-21)
(0.826069 -0.535725 8.3814e-21)
(0.853527 0.162075 2.42328e-21)
(0.0845811 0.0743117 0)
(0.619228 -0.256115 3.83834e-21)
(0.126026 -0.0337306 0)
(0.655892 0.216133 -6.23054e-21)
(0.763544 -0.334197 -2.49192e-21)
(0.0677762 -0.0315408 -3.23195e-21)
(0.609238 -0.270081 -1.32001e-22)
(0.122878 -0.018892 -1.64944e-23)
(0.802393 0.407173 5.76822e-21)
(0.0278955 -0.0490971 -8.48851e-21)
(1.00539 -0.34612 1.68842e-21)
(0.52235 -0.40824 -3.44338e-21)
(0.727144 -0.0295286 -6.36177e-22)
(0.359516 0.25188 0)
(0.685899 0.233608 6.34691e-21)
(0.801904 -0.3516 3.03952e-21)
(0.0549062 -0.0252565 7.8369e-21)
(0.570502 0.100487 0)
(0.611441 -0.319486 2.23596e-21)
(0.127917 0.0320505 0)
(0.61313 0.0181572 3.05197e-21)
(0.537868 -0.348262 0)
(0.230844 0.129698 0)
(0.424052 0.106971 2.54826e-21)
(0.533096 -0.182595 4.25998e-21)
(0.182868 -0.0706248 -5.48077e-24)
(0.228123 0.161733 -7.85653e-21)
(0.704161 0.0422875 -7.36671e-21)
(0.633028 -0.43857 -9.19194e-21)
(0.881897 0.291161 3.00798e-21)
(0.924646 -0.47231 -3.18514e-21)
(-0.00504425 0.00209696 -8.56251e-23)
(0.833549 -0.520032 -5.72522e-21)
(0.843227 0.174212 -2.45604e-21)
(0.0700214 0.0626851 -4.06273e-21)
(0.544879 0.34063 5.79433e-21)
(0.299265 -0.2527 -2.93625e-21)
(0.80852 -0.146802 0)
(0.727518 0.39269 -1.57438e-21)
(0.705147 0.377717 1.46809e-21)
(0.925164 -0.271021 5.34649e-22)
(0.951699 -0.281052 -2.10233e-21)
(0.103163 -0.10786 1.94553e-21)
(0.11794 -0.118778 1.73998e-21)
(-0.0176015 0.00340374 6.38393e-21)
(0.813457 -0.371502 -5.58271e-22)
(0.730747 0.362548 -8.03673e-22)
(0.757403 0.400894 8.41916e-23)
(-0.0151205 0.000231254 0)
(0.926626 -0.35978 0)
(0.673626 0.143459 9.19548e-21)
(0.722884 -0.392173 1.1957e-21)
(0.0918071 0.040118 0)
(-0.0104206 -0.00900931 1.09379e-20)
(0.870184 0.327919 -3.13033e-21)
(0.951349 -0.447366 0)
(0.615351 0.346259 -8.17285e-21)
(0.644445 0.354805 6.09583e-21)
(0.844024 -0.213199 -2.98639e-21)
(0.867711 -0.232265 -1.12563e-21)
(0.198151 -0.17441 3.43024e-21)
(0.167383 -0.151534 1.72355e-21)
(-0.00533104 0.00979601 0)
(0.88685 -0.520642 0)
(0.943841 0.265523 -8.11585e-22)
(0.695195 0.389517 1.36412e-21)
(-0.0153012 0.00595421 -3.94595e-21)
(0.863939 -0.336518 0)
(0.406384 -0.0575124 4.81678e-24)
(0.282348 0.0246802 -4.11177e-21)
(0.314416 -0.119461 -2.01672e-21)
(0.765351 0.375644 2.02995e-21)
(0.869164 -0.388676 -1.83234e-22)
(-0.019287 0.00180658 -7.93433e-21)
(0.47801 0.251629 -7.16163e-21)
(0.700201 -0.148379 5.48328e-21)
(0.274044 -0.208758 4.56407e-23)
(0.905225 0.311622 -8.1467e-23)
(0.929737 -0.482794 -3.98695e-21)
(-0.0146996 0.000729587 2.23749e-21)
(0.676736 -0.382287 5.64303e-24)
(-0.0140386 -0.00148375 7.26742e-21)
(0.699993 0.29552 3.90292e-22)
(0.307395 0.132691 3.84057e-21)
(0.366987 -0.223023 2.38037e-22)
(0.548323 -0.0622171 -1.00102e-20)
(0.430934 0.0174781 0)
(0.434526 -0.187217 9.93757e-21)
(0.205886 0.00831306 -5.17993e-21)
(0.833403 0.395022 -4.70505e-21)
(-0.0156923 -0.0100011 -5.01074e-21)
(0.972089 -0.404777 5.69724e-23)
(0.452666 0.0272321 0)
(0.455019 -0.206491 3.4204e-21)
(0.193009 0.0226031 7.33081e-21)
(0.384017 -0.0536682 -4.13786e-21)
(0.285193 0.00623042 4.34293e-21)
(0.314369 -0.102788 -1.06969e-21)
(0.280212 0.204458 3.77595e-21)
(0.729173 0.0174608 2.54693e-21)
(0.613589 -0.456637 -5.02814e-21)
(0.464769 -0.0291831 0)
(0.381003 -0.186298 0)
(0.245982 0.0632439 -6.10303e-22)
(0.481996 -0.0038639 -5.10915e-21)
(0.424201 -0.211967 -2.65486e-21)
(0.228219 0.0624794 -8.6281e-23)
(0.512766 0.323476 -8.82507e-21)
(0.780888 -0.128275 4.01687e-21)
(0.334402 -0.280199 5.89451e-21)
(-0.00675881 -0.0196346 -7.59533e-21)
(-0.0117055 -0.0159131 7.74489e-21)
(0.988088 -0.403999 -9.82357e-22)
(0.9775 -0.417442 -7.39871e-22)
(0.842874 0.387184 -4.25793e-21)
(0.853854 0.377039 6.35687e-21)
(0.898371 0.293845 -3.74332e-21)
(0.925474 -0.48145 2.61393e-21)
(-0.00838066 0.00481162 0)
(0.287109 -0.254408 -3.81402e-21)
(0.573139 0.367161 -1.80454e-21)
(0.840419 -0.155252 0)
(0.362352 0.193874 0)
(0.378659 -0.261765 3.65128e-21)
(0.625861 -0.0783779 -3.04776e-21)
(0.767641 0.0893796 0)
(0.726684 -0.496265 -3.13349e-21)
(0.171835 0.12902 -1.19772e-22)
(0.754455 -0.440204 -5.4722e-22)
(-0.0200047 -0.00642317 0)
(0.831498 0.297505 1.53356e-21)
(0.0212529 0.0308852 0)
(0.92497 0.23172 0)
(0.883696 -0.539576 -1.86199e-21)
(0.848752 0.37063 -1.49828e-21)
(-0.0223772 -0.0046786 0)
(0.930664 -0.428943 7.32549e-22)
(-0.0113505 0.000674492 2.69548e-32)
(0.633141 -0.35567 -4.79369e-22)
(0.642596 0.284919 -3.5013e-22)
(0.664003 -0.312017 5.57705e-22)
(-0.011141 0.00549824 -2.68912e-32)
(0.608952 0.32639 3.25485e-22)
(0.80154 -0.43618 6.05512e-21)
(0.750832 0.188301 0)
(0.0587166 0.0308322 1.04395e-20)
(0.849007 -0.497112 4.55561e-22)
(-0.0165343 -0.00141308 0)
(0.935809 0.284426 0)
(0.800415 0.281477 3.86998e-21)
(0.894893 -0.421058 -3.03297e-21)
(0.0161143 -0.0104016 -5.37537e-21)
(0.790358 0.434147 -5.52699e-21)
(0.0134707 -0.03183 -3.01568e-21)
(1.0272 -0.335764 0)
(0.484718 0.129577 -1.94393e-21)
(0.14209 -0.0463795 2.05076e-21)
(0.598991 -0.233735 -1.85713e-21)
(0.889364 -0.528863 0)
(0.00180893 0.0160803 -3.7317e-21)
(0.9409 0.255418 -1.02032e-21)
(0.750058 0.07403 2.96306e-21)
(0.193548 0.1446 2.14556e-21)
(0.700421 -0.483012 0)
(0.78276 -0.488658 0)
(0.781615 0.147484 0)
(0.095545 0.0747513 -3.81033e-21)
(-0.00321545 0.00353882 0)
(0.37536 -0.186695 -9.74199e-22)
(0.366986 0.175957 2.01052e-22)
(0.76578 -0.397525 -8.3929e-23)
(-0.0173647 0.00027781 4.38978e-21)
(0.74381 0.340663 9.12804e-22)
(0.454297 0.107264 5.05172e-21)
(0.159698 -0.0477193 -4.90263e-21)
(0.554727 -0.212991 -2.15842e-21)
(0.904011 -0.498392 -3.06972e-21)
(0.928808 0.293845 1.63641e-21)
(-0.0140371 0.00370537 0)
(-0.00667053 0.00806055 3.89337e-21)
(0.953141 0.265334 0)
(0.868868 -0.522445 2.35042e-21)
(0.855349 0.348067 2.28743e-21)
(-0.00743794 -0.0157615 -1.16819e-20)
(0.963667 -0.425305 -3.34412e-21)
(0.0547089 -0.0702391 8.71168e-21)
(0.992232 -0.321189 -2.18129e-21)
(0.776441 0.405874 0)
(0.4951 0.329314 1.11807e-20)
(0.781811 -0.112227 -5.11937e-21)
(0.376134 -0.314391 5.57527e-21)
(0.908391 -0.24796 -7.8458e-22)
(0.677529 0.380939 -3.5099e-21)
(0.15298 -0.146172 5.3577e-21)
(0.0495481 -0.0674947 7.78532e-21)
(0.780781 0.432512 0)
(1.02482 -0.314387 1.19446e-21)
(0.506212 0.242104 1.8019e-21)
(0.54516 0.265729 0)
(0.700437 -0.18368 5.75442e-21)
(0.742063 -0.204044 -6.15279e-21)
(0.214923 -0.156863 -3.77886e-21)
(0.193516 -0.151343 0)
(0.475268 0.23608 1.76582e-21)
(0.683341 -0.158992 0)
(0.25167 -0.183674 -1.77693e-21)
(0.603843 0.356953 0)
(0.845354 -0.197862 4.82075e-21)
(0.222848 -0.196414 -1.23712e-21)
(0.817411 -0.503701 2.91871e-21)
(0.818795 0.167252 -2.65927e-21)
(0.0742541 0.0611938 8.31466e-21)
(0.91338 -0.503175 0)
(0.908672 0.283007 -5.72002e-22)
(-0.00623828 0.00891783 0)
(0.0441611 0.03798 2.68268e-21)
(0.833195 0.203697 1.61661e-21)
(0.851186 -0.494147 1.86761e-21)
(0.71499 -0.320058 -1.00391e-22)
(-0.012787 0.0064975 -5.90263e-24)
(0.638253 0.345278 0)
(0.363195 0.14683 -3.51481e-21)
(0.37279 0.137622 0)
(0.288382 -0.172215 8.85465e-22)
(0.560078 -0.109572 -1.20381e-20)
(0.263678 -0.150403 -1.12046e-21)
(0.550748 -0.125545 7.70541e-21)
(0.548751 0.319433 0)
(0.507591 0.293445 1.14141e-21)
(0.286078 -0.229119 -1.61784e-23)
(0.788356 -0.170572 -3.22049e-21)
(0.259355 -0.212015 -9.03038e-21)
(0.749778 -0.15049 6.92803e-21)
(0.663086 -0.3979 0)
(-0.0152791 -0.00469261 -7.94049e-21)
(0.734769 0.283707 0)
(0.912191 -0.493872 2.01876e-21)
(0.921181 0.295181 -5.57475e-22)
(-0.0133016 0.00314937 -2.34879e-21)
(0.386676 0.230332 2.14627e-21)
(0.415023 -0.307903 4.10319e-21)
(0.674402 -0.0728796 -9.55261e-21)
(0.7815 -0.519895 -6.45873e-21)
(0.810881 0.12545 -6.76572e-21)
(0.125517 0.102373 0)
(0.0693022 -0.0829619 -9.31608e-21)
(0.983831 -0.309134 2.32039e-21)
(0.763306 0.405274 0)
(0.845255 -0.429872 0)
(0.828618 0.348575 0)
(-0.022151 -0.00229678 0)
(0.85855 -0.446629 0)
(0.857694 0.339101 -2.0791e-21)
(-0.0235078 -0.00375844 0)
(0.643972 0.337164 3.40816e-21)
(0.853399 -0.247183 -1.71301e-21)
(0.148701 -0.134129 -2.55112e-21)
(0.26384 0.125288 1.01616e-21)
(0.448259 -0.276094 0)
(0.563128 -0.0174063 -3.33501e-21)
(0.861201 0.358659 -2.66521e-21)
(-0.0111732 -0.014254 -6.77274e-21)
(0.971776 -0.425967 4.75747e-21)
(0.814201 -0.458358 0)
(0.776194 0.190736 0)
(0.056202 0.0394649 -9.00813e-21)
(0.0198413 -0.0365407 -2.2379e-21)
(0.942873 -0.38127 -3.83678e-21)
(0.796397 0.343138 -7.98816e-21)
(0.48331 0.285132 -1.16272e-21)
(0.318367 -0.25225 6.05705e-21)
(0.734434 -0.13358 -3.59926e-21)
(0.632819 0.0672884 5.98166e-21)
(0.615702 -0.374628 -3.35242e-21)
(0.170417 0.0956112 -7.74146e-21)
(0.332156 0.165244 -7.36241e-23)
(0.384485 -0.255758 1.21316e-21)
(0.594117 -0.0671983 3.99247e-21)
(-0.016197 -0.00863826 2.63817e-21)
(0.958287 -0.44512 -1.89979e-21)
(0.877011 0.348548 -2.70461e-21)
(0.746893 0.335047 1.52193e-21)
(0.914753 -0.341637 1.24676e-21)
(0.0504051 -0.0586743 0)
(0.31627 0.125083 3.81163e-21)
(0.33687 -0.196215 -7.72745e-21)
(0.535053 -0.075761 6.61807e-21)
(0.784045 0.439189 -2.28617e-21)
(0.0379046 -0.0563069 -3.43337e-21)
(1.03466 -0.318996 -1.28094e-22)
(0.451655 0.192938 2.19189e-21)
(0.631157 -0.168239 0)
(0.221206 -0.147541 0)
(0.506227 0.0640008 9.00015e-21)
(0.531315 -0.261066 -2.08857e-21)
(0.158965 0.027747 0)
(0.774904 -0.462357 0)
(0.755419 0.149737 -5.78602e-21)
(0.087839 0.064325 3.99078e-21)
(0.777204 0.415943 0)
(-0.00869187 -0.00848207 1.0605e-21)
(0.981709 -0.356904 -3.54183e-22)
(0.774111 0.425689 -1.98122e-21)
(-0.00241628 -0.013864 -3.37616e-21)
(1.00006 -0.34402 7.07981e-22)
(0.0259371 -0.0442893 -2.02915e-21)
(0.955536 -0.36771 2.09606e-21)
(0.792721 0.358196 7.36575e-21)
(0.658423 0.0548257 2.65848e-21)
(0.625979 -0.402157 6.74073e-21)
(0.192004 0.116623 0)
(-0.0113813 -0.00157141 -9.71484e-22)
(0.95027 -0.34768 3.34767e-22)
(0.74293 0.409457 0)
(0.00716414 -0.00669677 0)
(0.912048 -0.437303 2.25442e-21)
(0.828621 0.289263 8.94892e-22)
(-0.00828618 -0.000359366 -3.96742e-21)
(0.534731 -0.327394 2.86477e-22)
(0.574079 0.236191 0)
(0.515096 0.302901 5.65629e-22)
(0.588926 -0.256497 0)
(-0.00841535 0.00743848 -3.96096e-21)
(0.0445087 -0.0623576 9.55182e-24)
(1.01166 -0.327223 2.2699e-22)
(0.786137 0.419798 0)
(-0.0223895 -0.0050492 0)
(0.933902 -0.453845 0)
(0.886395 0.348327 -3.2373e-21)
(0.832767 0.385408 2.45027e-21)
(0.825919 0.374703 -1.9822e-21)
(0.00241538 -0.0285041 3.81575e-21)
(0.993854 -0.387139 3.52148e-22)
(0.0062928 -0.0313637 0)
(0.981706 -0.387531 0)
(0.834336 0.272631 -1.75526e-21)
(0.901262 -0.4521 -1.55528e-21)
(0.00927425 0.00138274 0)
(0.1606 0.128659 0)
(0.752378 -0.521389 0)
(0.799639 0.101641 0)
(0.367486 0.105828 -4.76168e-21)
(0.241519 -0.116633 1.07812e-20)
(0.512345 -0.132288 -4.26819e-21)
(0.821561 0.230081 -5.07136e-21)
(0.86472 -0.470005 -6.24171e-22)
(0.0271383 0.0205475 -7.89289e-21)
(0.0401076 0.0309799 -5.13529e-21)
(0.813834 0.21253 7.05266e-21)
(0.847083 -0.475784 8.65531e-22)
(0.765308 0.440273 -2.80287e-21)
(0.0719263 -0.0869039 -3.71947e-21)
(1.02316 -0.293067 0)
(0.561995 0.335488 0)
(0.80937 -0.171283 -1.43138e-21)
(0.260422 -0.219755 8.85202e-21)
(0.508335 0.273705 0)
(0.730955 -0.160872 -7.19957e-21)
(0.261794 -0.207243 1.31395e-23)
(0.742597 0.217826 7.01698e-21)
(0.820719 -0.414509 -8.18296e-22)
(0.0419885 0.00637422 4.54512e-21)
(0.76149 0.213515 0)
(0.82562 -0.431608 -7.77275e-22)
(0.0421511 0.0154191 -4.16398e-21)
(0.296159 0.101771 0)
(0.340722 -0.185 1.21782e-20)
(0.504758 -0.065701 0)
(0.555819 0.281879 0)
(0.75898 -0.202518 3.92973e-21)
(0.197995 -0.162723 -1.35496e-21)
(0.0116778 0.023719 8.08199e-21)
(0.877599 -0.540523 4.11507e-21)
(0.947092 0.240351 0)
(0.875963 0.321553 4.18006e-23)
(-0.022589 -0.00486836 -2.44663e-21)
(0.828418 -0.458253 -4.49579e-22)
(0.868175 0.302881 1.64442e-22)
(-0.0211993 -0.00615572 0)
(0.79476 -0.456185 1.18587e-21)
(0.40564 0.201163 -2.60269e-21)
(0.308089 -0.210521 1.31246e-21)
(0.629672 -0.117783 1.31154e-22)
(0.793311 -0.416802 -1.68726e-22)
(-0.0201647 -0.00236065 -1.00782e-20)
(0.801544 0.334762 0)
(0.76973 0.357349 -6.47326e-21)
(0.0426181 -0.0561915 0)
(0.943676 -0.34743 0)
(-0.019003 -0.00471838 4.0011e-21)
(0.747318 -0.426442 2.80557e-22)
(0.798253 0.306862 -1.09453e-21)
(0.40547 0.0402969 -6.31666e-21)
(0.20394 -0.0226681 -6.57591e-21)
(0.447243 -0.168032 -2.93194e-23)
(0.606613 0.213647 1.09655e-21)
(0.737364 -0.294653 9.37755e-22)
(0.0932102 -0.0532247 4.14621e-21)
(0.584634 -0.38616 -7.77444e-21)
(0.647837 0.0328477 -9.70099e-21)
(0.222867 0.135146 0)
(-0.0149729 0.00126201 0)
(0.86915 -0.502394 6.53439e-22)
(0.939219 0.286049 0)
(0.801537 -0.470038 0)
(0.77847 0.175411 0)
(0.0678632 0.0503694 0)
(0.0214946 -0.0415862 0)
(0.796723 0.430671 1.99029e-21)
(1.02909 -0.336338 -1.09219e-21)
(0.644419 0.230939 0)
(0.770256 -0.317947 -4.83451e-22)
(0.0763269 -0.04507 -2.31231e-24)
(0.355077 0.0880497 4.60007e-21)
(0.245124 -0.1076 -9.2644e-21)
(0.487541 -0.125376 0)
(0.895313 -0.492943 2.90207e-21)
(0.923457 0.305813 -1.55465e-21)
(-0.018282 4.0835e-05 0)
(0.00542929 -0.0195201 4.65471e-21)
(0.9335 -0.417532 -1.40735e-22)
(0.822582 0.321098 -1.87389e-22)
(0.810533 0.398907 0)
(0.799582 0.396773 -1.68794e-21)
(-0.0152768 -0.00639634 -2.44265e-21)
(-0.0173956 -0.00315987 3.02445e-21)
(0.962902 -0.385796 3.45884e-22)
(0.942886 -0.388154 -2.84454e-22)
(0.612714 0.130618 0)
(0.667595 -0.34871 -6.42089e-21)
(0.10349 0.0260679 -5.07673e-21)
(0.769518 -0.417377 -8.52733e-21)
(0.719377 0.169174 0)
(0.0695339 0.034859 5.53657e-21)
(0.469101 0.0773916 5.12816e-21)
(0.527745 -0.230091 -3.54094e-21)
(0.154731 -0.0084485 -8.0521e-21)
(0.854561 -0.476473 -1.34186e-21)
(0.904446 0.313752 -1.56819e-21)
(0.839489 -0.485244 5.73514e-22)
(-0.0220237 -0.00410256 2.59161e-21)
(0.915898 0.297329 1.47161e-21)
(-0.0196821 -0.00401221 0)
(0.719737 0.267103 0)
(0.843531 -0.364574 0)
(0.044687 -0.0317629 -5.11422e-21)
(0.911529 0.319212 -1.7905e-21)
(0.904241 0.322229 4.58008e-21)
(0.902348 -0.47995 -8.77437e-22)
(0.884845 -0.472601 2.49792e-21)
(-0.021667 -0.00248523 -6.8517e-21)
(-0.0228942 -0.00354531 1.13918e-23)
(0.699933 0.152645 0)
(0.74133 -0.417391 8.1422e-21)
(0.0887973 0.0500177 -7.18052e-21)
(0.568069 0.151822 -4.76965e-21)
(0.691488 -0.306547 5.74761e-21)
(0.0916995 -0.0232614 0)
(0.795626 0.426559 0)
(0.00292808 -0.0225388 -4.67689e-22)
(1.01413 -0.351626 -6.80138e-22)
(0.613556 0.149593 -3.51144e-21)
(0.685797 -0.338536 0)
(0.0916847 0.0111189 8.38754e-21)
(0.502192 0.10149 -2.07931e-21)
(0.576008 -0.259739 4.15505e-21)
(0.13471 -0.00978262 -4.65679e-21)
(0.797574 0.407892 0)
(-0.0106398 -0.00943165 0)
(0.983058 -0.374124 1.00783e-21)
(0.651714 0.252079 0)
(0.797618 -0.309624 -9.49311e-22)
(0.0763535 -0.0582519 5.06594e-21)
(0.685835 -0.490107 0)
(0.755898 0.0594278 0)
(0.221421 0.167516 2.7582e-22)
(0.483282 0.296876 2.8593e-22)
(0.746579 -0.122477 0)
(0.339215 -0.273709 -4.63285e-21)
(0.844661 -0.549925 -3.20866e-21)
(0.0705181 0.0666687 0)
(0.886928 0.177088 0)
(-0.0061745 0.00370374 9.53105e-21)
(0.498993 -0.251643 1.36438e-21)
(0.484745 0.234257 -2.81575e-22)
(0.62853 0.187237 0)
(0.72397 -0.327629 -3.52485e-21)
(0.0781606 -0.0183849 0)
(0.820854 0.409043 -3.7978e-21)
(0.00029443 -0.0244024 -1.28318e-20)
(1.00733 -0.371345 2.20595e-21)
(0.450225 -0.362011 0)
(0.749267 -0.0715944 3.44382e-21)
(0.426582 0.290419 0)
(0.618054 0.358185 0)
(-0.0133569 0.00891723 2.34198e-21)
(0.755747 -0.308882 0)
(0.214272 0.0827234 -5.00216e-21)
(0.225457 0.102101 5.11402e-21)
(0.47243 -0.268068 0)
(0.530082 0.00989266 -4.25136e-21)
(0.490328 -0.293394 7.70199e-21)
(0.558852 0.00620611 3.38068e-21)
(0.471102 0.0564923 -4.82715e-21)
(0.500688 -0.227685 -4.80077e-21)
(0.168897 0.0117352 0)
(0.275501 0.117515 -4.42545e-21)
(0.244014 0.0948837 0)
(0.404704 -0.241135 0)
(0.539654 -0.0381191 0)
(0.422658 -0.239023 4.48423e-21)
(0.519423 -0.0182004 -2.5038e-23)
(0.598912 0.175502 -3.00638e-22)
(0.654005 -0.298987 2.55408e-21)
(0.104418 -0.0113772 5.73156e-21)
(0.574382 0.139482 8.20684e-21)
(0.653423 -0.309942 0)
(0.105694 0.00187258 0)
(-0.019591 -0.00619777 0)
(0.797161 -0.474663 0)
(0.898021 0.290438 -1.1963e-21)
(0.439338 0.2114 7.15778e-21)
(0.646816 -0.140733 0)
(0.268705 -0.186337 -2.43044e-21)
(0.900334 0.330492 4.42877e-21)
(0.925927 -0.471298 -1.28401e-21)
(-0.0217736 -0.00314539 3.91128e-21)
(0.756674 0.243881 0)
(0.785036 0.258469 -3.72568e-21)
(0.848071 -0.408436 1.02023e-21)
(0.87242 -0.421744 -3.0038e-21)
(0.0310959 -0.00407724 5.62586e-21)
(0.0222303 -0.00358978 5.18815e-21)
(0.428261 0.190018 0)
(0.62165 -0.147145 0)
(0.252225 -0.167863 -1.16061e-21)
(0.592589 0.322477 -2.76026e-21)
(0.811016 -0.207469 0)
(0.202011 -0.171347 -2.95338e-21)
(0.699574 0.226723 2.00896e-21)
(0.801991 -0.373516 0)
(0.0484366 -0.0127339 -5.181e-21)
(0.309711 0.0428547 -4.96391e-21)
(0.428226 -0.0866281 -2.37778e-21)
(0.28105 -0.108651 -2.4962e-21)
(0.797944 0.235308 0)
(0.859062 -0.448667 0)
(0.0278371 0.0129765 8.39327e-21)
(0.345326 0.109528 0)
(0.273511 -0.142615 -1.35453e-21)
(0.513326 -0.110135 0)
(0.693372 0.169092 4.55272e-21)
(0.750299 -0.400775 4.53232e-21)
(0.0738538 0.0258182 7.19777e-22)
(0.590872 0.304097 -2.78924e-21)
(0.796501 -0.219371 -4.47824e-21)
(0.180181 -0.153668 0)
(0.315914 0.0653482 4.91922e-21)
(0.298802 0.068233 2.19578e-21)
(0.455903 -0.0945604 -2.30945e-21)
(0.280067 -0.122801 4.94871e-21)
(0.462452 -0.0789292 0)
(0.305764 -0.144881 8.78057e-21)
(0.267014 0.0839737 2.21648e-21)
(0.367537 -0.197152 -5.66352e-21)
(0.247204 0.0836599 -1.42629e-21)
(0.490771 -0.044005 0)
(0.412669 -0.225938 -2.88338e-21)
(0.5042 -0.0224727 4.8643e-21)
(0.49556 0.222388 -2.59617e-21)
(0.530305 0.230457 0)
(0.67803 -0.190129 -4.37374e-21)
(0.701495 -0.215692 3.41353e-21)
(0.199302 -0.13972 1.09302e-20)
(0.167998 -0.117542 -9.09891e-21)
(0.0440267 -0.0612193 0)
(0.977447 -0.337211 1.24045e-21)
(0.780856 0.388081 3.72805e-21)
(0.243167 0.177814 -9.3375e-21)
(0.729893 0.0399507 -4.01576e-21)
(0.647061 -0.463795 7.89275e-21)
(0.0284853 -0.0492704 4.35748e-21)
(0.0193467 -0.041756 0)
(0.987666 -0.354968 -1.07298e-21)
(0.976553 -0.370455 -1.91624e-21)
(0.798737 0.392563 -9.41955e-21)
(0.807861 0.377296 4.87446e-21)
(0.33693 0.219758 0)
(0.498191 -0.36423 4.4306e-21)
(0.682481 -0.0318318 -9.51536e-22)
(0.317327 0.00326913 -1.04409e-20)
(0.282154 -0.071569 0)
(0.378467 -0.0808748 8.15483e-21)
(0.807086 0.255176 1.74083e-21)
(0.878009 -0.443227 3.39081e-21)
(0.01922 0.00451067 0)
(0.388116 0.166616 0)
(0.280929 -0.18249 1.10586e-21)
(0.588175 -0.120541 3.88959e-21)
(0.612899 0.310727 0)
(0.814609 -0.235047 0)
(0.159767 -0.138162 7.11121e-22)
(0.745607 0.38731 0)
(0.74431 0.371362 0)
(0.95753 -0.30608 -7.45597e-22)
(0.0789925 -0.0882903 5.37269e-21)
(0.943312 -0.314606 2.03013e-21)
(0.0706785 -0.0797979 -7.27801e-21)
(0.747492 0.269401 -3.76933e-21)
(0.863192 -0.383289 -3.23365e-21)
(0.03209 -0.022174 -2.44716e-21)
(0.678607 0.369243 -1.42451e-21)
(0.811108 -0.337679 0)
(-0.0155366 0.00649774 2.89151e-21)
(0.473904 -0.371187 0)
(0.726417 -0.0552642 -2.79909e-21)
(0.392998 0.265288 0)