/*--------------------------------*- C++ -*----------------------------------*\
  =========                 |
  \\      /  F ield         | OpenFOAM: The Open Source CFD Toolbox
   \\    /   O peration     | Website:  https://openfoam.org
    \\  /    A nd           | Version:  6
     \\/     M anipulation  |
\*---------------------------------------------------------------------------*/
FoamFile
{
    version     2.0;
    format      ascii;
    class       surfaceScalarField;
    location    "200";
    object      phi;
}
// * * * * * * * * * * * * * * * * * * * * * * * * * * * * * * * * * * * * * //

dimensions      [0 3 -1 0 0 0 0];

internalField   nonuniform List<scalar> 
205134
(
0.0105441
-0.000544327
0.0100534
0.000490626
0.00968471
0.000368528
0.0094803
0.000204327
0.00937064
0.000109592
0.00930626
6.43304e-05
0.00926179
4.44291e-05
0.00922601
3.57466e-05
0.00919436
3.16101e-05
0.00916517
2.91667e-05
0.00913793
2.72194e-05
0.00911242
2.54916e-05
0.00908844
2.39667e-05
0.00906591
2.2517e-05
0.0090448
2.10984e-05
0.00902509
1.97071e-05
0.00900673
1.83492e-05
0.0089897
1.70326e-05
0.00897393
1.57651e-05
0.00895937
1.45534e-05
0.00894597
1.34035e-05
0.00893365
1.23205e-05
0.00892234
1.13081e-05
0.00891197
1.03692e-05
0.00890247
9.5053e-06
0.00889376
8.7174e-06
0.00888575
8.00783e-06
0.00887836
7.39149e-06
0.0088715
6.86579e-06
0.00886512
6.38751e-06
0.00885918
5.93949e-06
0.00885365
5.53625e-06
0.00884847
5.18082e-06
0.0088436
4.86961e-06
0.00883901
4.59692e-06
0.00883466
4.3567e-06
0.00883052
4.14317e-06
0.00882657
3.9511e-06
0.00882279
3.77586e-06
0.00881918
3.61347e-06
0.00881572
3.46055e-06
0.00881241
3.31435e-06
0.00880924
3.17263e-06
0.0088062
3.03371e-06
0.00880331
2.89631e-06
0.00880055
2.75957e-06
0.00879793
2.62294e-06
0.00879544
2.48617e-06
0.00879309
2.34919e-06
0.00879088
2.2121e-06
0.00878881
2.07514e-06
0.00878687
1.9386e-06
0.00878506
1.80282e-06
0.0087834
1.66816e-06
0.00878186
1.53495e-06
0.00878046
1.40351e-06
0.00877918
1.27412e-06
0.00877804
1.14697e-06
0.00877701
1.02224e-06
0.00877611
9.00061e-07
0.00877533
7.80538e-07
0.00877467
6.63773e-07
0.00877412
5.49822e-07
0.00877368
4.38633e-07
0.00877335
3.30106e-07
0.00877313
2.24734e-07
0.008773
1.26316e-07
0.00877295
5.27676e-08
0.00877294
1.00614e-08
0.00877298
-3.89115e-08
0.00877309
-1.11707e-07
0.00877328
-1.8854e-07
0.00877354
-2.66026e-07
0.00877393
-3.84785e-07
0.00877451
-5.77999e-07
0.00877528
-7.7226e-07
0.00877616
-8.84853e-07
0.00877711
-9.44959e-07
0.00877811
-1.00064e-06
0.00877917
-1.06061e-06
0.00878029
-1.12533e-06
0.00878149
-1.19362e-06
0.00878275
-1.26436e-06
0.00878409
-1.33688e-06
0.0087855
-1.41084e-06
0.00878699
-1.4861e-06
0.00878855
-1.56261e-06
0.00879019
-1.64038e-06
0.00879191
-1.71942e-06
0.00879371
-1.79974e-06
0.00879559
-1.88137e-06
0.00879755
-1.96432e-06
0.0087996
-2.04864e-06
0.00880174
-2.13434e-06
0.00880396
-2.22149e-06
0.00880627
-2.31014e-06
0.00880867
-2.40033e-06
0.00881116
-2.49214e-06
0.00881374
-2.58563e-06
0.00881643
-2.68089e-06
0.0088192
-2.77799e-06
0.00882208
-2.87701e-06
0.00882506
-2.97804e-06
0.00882814
-3.08116e-06
0.00883133
-3.18646e-06
0.00883462
-3.29402e-06
0.00883802
-3.40393e-06
0.00884154
-3.51627e-06
0.00884517
-3.63112e-06
0.00884892
-3.74856e-06
0.00885279
-3.86867e-06
0.00885678
-3.99151e-06
0.0088609
-4.11715e-06
0.00886514
-4.24565e-06
0.00886952
-4.37707e-06
0.00887403
-4.51144e-06
0.00887868
-4.64881e-06
0.00888347
-4.78919e-06
0.0088884
-4.93261e-06
0.00889348
-5.07907e-06
0.00889871
-5.22854e-06
0.00890409
-5.38099e-06
0.00890962
-5.53637e-06
0.00891532
-5.69458e-06
0.00892117
-5.85553e-06
0.00892719
-6.01904e-06
0.00893338
-6.18495e-06
0.00893973
-6.353e-06
0.00894625
-6.52291e-06
0.00895295
-6.69432e-06
0.00895981
-6.86679e-06
0.00896685
-7.0398e-06
0.00897407
-7.21273e-06
0.00898145
-7.38485e-06
0.00898901
-7.55529e-06
0.00899673
-7.72302e-06
0.00900462
-7.88685e-06
0.00901266
-8.04539e-06
0.00902086
-8.19702e-06
0.0090292
-8.33988e-06
0.00903767
-8.47182e-06
0.00904626
-8.59039e-06
0.00905495
-8.69278e-06
0.00906373
-8.7758e-06
0.00907256
-8.83585e-06
0.00908143
-8.86887e-06
0.0090903
-8.87027e-06
0.00909914
-8.83495e-06
0.00910789
-8.75719e-06
0.00911653
-8.63058e-06
0.00912497
-8.44796e-06
0.00913317
-8.20114e-06
0.00914105
-7.8807e-06
0.00914853
-7.47562e-06
0.0091555
-6.97421e-06
0.00916187
-6.37024e-06
0.00916756
-5.69058e-06
0.00917253
-4.9693e-06
0.00917668
-4.15157e-06
0.00917984
-3.16255e-06
0.00918184
-2.00346e-06
0.00918252
-6.87748e-07
0.00918173
7.88552e-07
0.0091793
2.43138e-06
0.00917505
4.24829e-06
0.00916879
6.24955e-06
0.00916033
8.45471e-06
0.00914943
1.08958e-05
0.00913586
1.35678e-05
0.00911941
1.64477e-05
0.00909985
1.95476e-05
0.00907696
2.28848e-05
0.00905049
2.64691e-05
0.00902017
3.03088e-05
0.00898575
3.44122e-05
0.00894696
3.87879e-05
0.00890351
4.34457e-05
0.0088551
4.83974e-05
0.00880144
5.36573e-05
0.00874219
5.9243e-05
0.008677
6.51773e-05
0.00860551
7.14889e-05
0.00852728
7.82155e-05
0.00844187
8.54058e-05
0.00834874
9.31243e-05
0.00824728
0.000101457
0.00813676
0.000110519
0.00801629
0.000120471
0.00788475
0.000131541
0.00774068
0.000144064
0.00758214
0.000158545
0.00740639
0.000175764
0.00720949
0.00019692
0.00698582
0.00022371
0.00672802
0.000257834
0.00642935
0.000298754
0.00609056
0.000338804
0.00574177
0.000348856
0.0055633
0.000178492
-0.00085977
0.00642309
0.00967052
-0.000214879
0.00982676
0.000334355
0.00981967
0.000375599
0.00972559
0.000298394
0.00961997
0.000215193
0.00952866
0.000155628
0.00945474
0.000118341
0.00939477
9.57125e-05
0.00934481
8.15591e-05
0.00930193
7.2037e-05
0.00926416
6.49938e-05
0.00923026
5.93856e-05
0.00919952
5.46999e-05
0.00917144
5.05942e-05
0.00914567
4.68721e-05
0.00912194
4.343e-05
0.00910008
4.02127e-05
0.00907992
3.71907e-05
0.00906133
3.43486e-05
0.00904421
3.16786e-05
0.00902843
2.9177e-05
0.00901391
2.68423e-05
0.00900055
2.46738e-05
0.00898824
2.26707e-05
0.00897692
2.08318e-05
0.00896648
1.91559e-05
0.00895685
1.76426e-05
0.00894794
1.62937e-05
0.00893971
1.50964e-05
0.00893208
1.40175e-05
0.00892499
1.30363e-05
0.00891837
1.21517e-05
0.00891219
1.13608e-05
0.00890641
1.06566e-05
0.00890098
1.00295e-05
0.00889586
9.46915e-06
0.00889104
8.96541e-06
0.00888648
8.50872e-06
0.00888217
8.09046e-06
0.00887808
7.70302e-06
0.0088742
7.33986e-06
0.00887052
6.99546e-06
0.00886703
6.66531e-06
0.00886372
6.34581e-06
0.00886058
6.03418e-06
0.00885761
5.72838e-06
0.00885481
5.42698e-06
0.00885217
5.12906e-06
0.00884968
4.83413e-06
0.00884735
4.54205e-06
0.00884517
4.25288e-06
0.00884314
3.96689e-06
0.00884126
3.68445e-06
0.00883953
3.40598e-06
0.00883793
3.13191e-06
0.00883647
2.86266e-06
0.00883514
2.5986e-06
0.00883395
2.34003e-06
0.00883289
2.0872e-06
0.00883195
1.84032e-06
0.00883113
1.59961e-06
0.00883043
1.36532e-06
0.00882984
1.13777e-06
0.00882936
9.17425e-07
0.00882898
7.0516e-07
0.00882871
5.03069e-07
0.00882852
3.16278e-07
0.00882841
1.54648e-07
0.00882841
1.6513e-08
0.00882849
-1.23156e-07
0.00882866
-2.80203e-07
0.00882892
-4.50631e-07
0.00882929
-6.38385e-07
0.00882978
-8.67257e-07
0.00883034
-1.14582e-06
0.00883099
-1.42212e-06
0.00883175
-1.63998e-06
0.00883261
-1.80669e-06
0.00883356
-1.95293e-06
0.0088346
-2.09361e-06
0.00883571
-2.23441e-06
0.00883689
-2.37707e-06
0.00883815
-2.52195e-06
0.00883948
-2.66899e-06
0.00884089
-2.81818e-06
0.00884237
-2.96952e-06
0.00884393
-3.12307e-06
0.00884557
-3.27889e-06
0.00884729
-3.43706e-06
0.00884908
-3.59767e-06
0.00885096
-3.76078e-06
0.00885293
-3.92647e-06
0.00885497
-4.09484e-06
0.0088571
-4.26596e-06
0.00885932
-4.43995e-06
0.00886163
-4.61691e-06
0.00886402
-4.79697e-06
0.00886651
-4.98025e-06
0.00886909
-5.16691e-06
0.00887177
-5.35709e-06
0.00887454
-5.55095e-06
0.00887741
-5.74864e-06
0.00888039
-5.95033e-06
0.00888346
-6.15618e-06
0.00888664
-6.36637e-06
0.00888993
-6.58106e-06
0.00889332
-6.80041e-06
0.00889683
-7.02458e-06
0.00890046
-7.25373e-06
0.0089042
-7.488e-06
0.00890805
-7.72755e-06
0.00891203
-7.97249e-06
0.00891614
-8.22296e-06
0.00892037
-8.47907e-06
0.00892474
-8.74091e-06
0.00892923
-9.00856e-06
0.00893387
-9.28209e-06
0.00893864
-9.56154e-06
0.00894355
-9.84691e-06
0.00894861
-1.01382e-05
0.00895382
-1.04354e-05
0.00895918
-1.07383e-05
0.00896469
-1.10469e-05
0.00897035
-1.13609e-05
0.00897618
-1.16801e-05
0.00898216
-1.20043e-05
0.00898831
-1.23328e-05
0.00899462
-1.26654e-05
0.0090011
-1.30013e-05
0.00900775
-1.33398e-05
0.00901456
-1.36801e-05
0.00902154
-1.40209e-05
0.00902869
-1.43611e-05
0.009036
-1.46991e-05
0.00904348
-1.50333e-05
0.00905112
-1.53614e-05
0.00905891
-1.56811e-05
0.00906686
-1.59895e-05
0.00907494
-1.62836e-05
0.00908316
-1.65594e-05
0.0090915
-1.68127e-05
0.00909995
-1.70387e-05
0.00910849
-1.72318e-05
0.0091171
-1.73856e-05
0.00912576
-1.74931e-05
0.00913444
-1.75463e-05
0.0091431
-1.75361e-05
0.00915172
-1.74526e-05
0.00916025
-1.72847e-05
0.00916864
-1.70199e-05
0.00917683
-1.66448e-05
0.00918477
-1.61443e-05
0.0091924
-1.55022e-05
0.00919962
-1.47017e-05
0.00920637
-1.37277e-05
0.00921258
-1.25723e-05
0.00921813
-1.12451e-05
0.00922291
-9.75105e-06
0.0092268
-8.04436e-06
0.0092297
-6.06253e-06
0.00923148
-3.78106e-06
0.00923199
-1.19241e-06
0.00923106
1.71562e-06
0.00922853
4.95861e-06
0.00922422
8.55444e-06
0.00921795
1.25241e-05
0.00920951
1.6895e-05
0.00919871
2.16968e-05
0.00918533
2.69384e-05
0.00916916
3.26168e-05
0.00914997
3.87447e-05
0.00912751
4.53415e-05
0.00910155
5.24249e-05
0.00907185
6.0011e-05
0.00903814
6.81157e-05
0.00900017
7.67556e-05
0.00895767
8.59493e-05
0.00891035
9.57182e-05
0.00885792
0.000106088
0.00880007
0.00011709
0.00873648
0.000128765
0.0086668
0.000141163
0.00859067
0.000154349
0.00850767
0.000168406
0.00841735
0.000183442
0.00831921
0.000199598
0.00821267
0.000217058
0.00809708
0.000236063
0.00797169
0.000256932
0.00783568
0.000280082
0.00768819
0.000306037
0.00752857
0.000335395
0.00735687
0.000368638
0.00717511
0.000405496
0.00698984
0.000443131
0.00681696
0.000471656
0.00669092
0.000464859
0.00667963
0.000360136
0.00685449
3.63625e-06
-0.000921759
0.00691647
0.00980616
-2.10016e-05
0.00984275
0.000297807
0.00984564
0.000372731
0.00980089
0.000343154
0.0097301
0.00028599
0.0096538
0.00023194
0.0095823
0.000189847
0.00951877
0.00015925
0.00946313
0.000137204
0.00941426
0.000120909
0.00937091
0.000108339
0.00933208
9.82192e-05
0.00929702
8.97656e-05
0.00926515
8.24617e-05
0.00923605
7.59761e-05
0.00920938
7.01037e-05
0.00918487
6.47176e-05
0.00916233
5.97379e-05
0.00914156
5.51141e-05
0.00912243
5.08136e-05
0.00910479
4.68153e-05
0.00908852
4.31048e-05
0.00907353
3.96715e-05
0.00905969
3.65069e-05
0.00904692
3.36035e-05
0.00903512
3.09539e-05
0.00902421
2.85505e-05
0.00901412
2.63838e-05
0.00900478
2.44351e-05
0.00899612
2.2676e-05
0.00898807
2.1084e-05
0.00898058
1.96464e-05
0.00897359
1.83524e-05
0.00896705
1.71897e-05
0.00896094
1.61446e-05
0.0089552
1.52026e-05
0.00894982
1.43496e-05
0.00894476
1.35723e-05
0.00893999
1.28584e-05
0.00893549
1.2197e-05
0.00893126
1.15784e-05
0.00892726
1.09945e-05
0.00892348
1.04384e-05
0.00891992
9.90459e-06
0.00891657
9.38858e-06
0.00891341
8.88694e-06
0.00891044
8.39713e-06
0.00890765
7.91735e-06
0.00890504
7.44643e-06
0.0089026
6.98367e-06
0.00890032
6.52877e-06
0.00889821
6.0817e-06
0.00889625
5.64263e-06
0.00889444
5.21184e-06
0.00889279
4.78968e-06
0.00889127
4.3765e-06
0.0088899
3.97262e-06
0.00888866
3.57833e-06
0.00888755
3.19389e-06
0.00888657
2.81952e-06
0.00888572
2.4555e-06
0.00888498
2.10219e-06
0.00888436
1.76012e-06
0.00888385
1.4301e-06
0.00888344
1.1134e-06
0.00888313
8.12227e-07
0.00888292
5.29995e-07
0.0088828
2.70266e-07
0.00888279
2.8236e-08
0.00888288
-2.12969e-07
0.00888306
-4.66565e-07
0.00888335
-7.36137e-07
0.00888374
-1.02711e-06
0.00888422
-1.35003e-06
0.00888478
-1.70227e-06
0.00888541
-2.05062e-06
0.00888613
-2.35997e-06
0.00888695
-2.62781e-06
0.00888786
-2.87002e-06
0.00888887
-3.09932e-06
0.00888996
-3.32318e-06
0.00889113
-3.54549e-06
0.00889237
-3.76822e-06
0.0088937
-3.99238e-06
0.0088951
-4.21858e-06
0.00889658
-4.44721e-06
0.00889813
-4.67861e-06
0.00889977
-4.91302e-06
0.00890148
-5.15065e-06
0.00890327
-5.3917e-06
0.00890515
-5.63633e-06
0.00890711
-5.88471e-06
0.00890915
-6.13699e-06
0.00891128
-6.39335e-06
0.00891349
-6.65395e-06
0.00891579
-6.91898e-06
0.00891818
-7.18862e-06
0.00892067
-7.46309e-06
0.00892324
-7.7426e-06
0.00892591
-8.02737e-06
0.00892868
-8.31763e-06
0.00893154
-8.61362e-06
0.00893451
-8.91558e-06
0.00893758
-9.22376e-06
0.00894075
-9.53839e-06
0.00894403
-9.85972e-06
0.00894741
-1.0188e-05
0.00895091
-1.05234e-05
0.00895453
-1.08663e-05
0.00895825
-1.12167e-05
0.0089621
-1.15749e-05
0.00896607
-1.19412e-05
0.00897016
-1.23156e-05
0.00897438
-1.26984e-05
0.00897873
-1.30896e-05
0.00898321
-1.34894e-05
0.00898783
-1.38979e-05
0.00899258
-1.43151e-05
0.00899747
-1.47409e-05
0.00900251
-1.51754e-05
0.00900769
-1.56185e-05
0.00901303
-1.607e-05
0.00901851
-1.65297e-05
0.00902415
-1.69973e-05
0.00902994
-1.74723e-05
0.00903589
-1.79543e-05
0.009042
-1.84427e-05
0.00904827
-1.89365e-05
0.0090547
-1.94349e-05
0.0090613
-1.99367e-05
0.00906806
-2.04405e-05
0.00907498
-2.09447e-05
0.00908207
-2.14473e-05
0.00908932
-2.19461e-05
0.00909672
-2.24382e-05
0.00910428
-2.29207e-05
0.00911199
-2.33898e-05
0.00911984
-2.38413e-05
0.00912783
-2.42704e-05
0.00913594
-2.46716e-05
0.00914416
-2.50384e-05
0.00915249
-2.53635e-05
0.0091609
-2.56388e-05
0.00916936
-2.58549e-05
0.00917787
-2.60013e-05
0.00918639
-2.60661e-05
0.00919489
-2.60364e-05
0.00920334
-2.58975e-05
0.00921169
-2.56331e-05
0.00921989
-2.52256e-05
0.0092279
-2.46557e-05
0.00923566
-2.39024e-05
0.0092431
-2.2944e-05
0.00925016
-2.17585e-05
0.00925676
-2.03256e-05
0.00926281
-1.86301e-05
0.00926823
-1.66632e-05
0.00927289
-1.44099e-05
0.00927668
-1.1829e-05
0.00927948
-8.86675e-06
0.00928118
-5.4844e-06
0.00928165
-1.65585e-06
0.00928072
2.64346e-06
0.00927824
7.4395e-06
0.00927403
1.276e-05
0.00926792
1.86349e-05
0.00925972
2.50967e-05
0.00924924
3.21772e-05
0.00923629
3.98967e-05
0.00922064
4.82681e-05
0.00920207
5.73088e-05
0.00918037
6.7041e-05
0.00915531
7.74864e-05
0.00912666
8.86664e-05
0.00909418
0.000100602
0.00905762
0.000113314
0.00901674
0.000126826
0.0089713
0.000141163
0.00892103
0.000156357
0.00886568
0.000172444
0.00880498
0.000189468
0.00873866
0.000207485
0.00866645
0.000226566
0.00858806
0.000246796
0.00850322
0.000268282
0.00841167
0.000291155
0.00831316
0.000315571
0.00820752
0.000341707
0.00809471
0.000369749
0.00797495
0.000399845
0.007849
0.000431998
0.00771859
0.000465814
0.0075873
0.000499944
0.00746193
0.000530881
0.00735456
0.000550514
0.00728475
0.000541477
0.00728015
0.000469446
0.00736825
0.000272023
0.00752714
-0.000155269
-0.000945008
0.00755038
0.00993566
4.34077e-05
0.0099208
0.000312732
0.0099071
0.000386467
0.00987094
0.000379341
0.00981552
0.00034143
0.00975102
0.000296454
0.00968556
0.000255318
0.00962355
0.000221275
0.00956668
0.000194079
0.0095152
0.000172392
0.00946873
0.000154822
0.00942668
0.000140268
0.00938852
0.000127928
0.00935376
0.000117224
0.00932199
0.000107749
0.00929287
9.9227e-05
0.00926612
9.14724e-05
0.0092415
8.43586e-05
0.00921881
7.77991e-05
0.00919789
7.17343e-05
0.00917859
6.6122e-05
0.00916076
6.09316e-05
0.00914429
5.61398e-05
0.00912907
5.17277e-05
0.00911499
4.76788e-05
0.00910197
4.39773e-05
0.00908991
4.06074e-05
0.00907875
3.75506e-05
0.0090684
3.47833e-05
0.00905879
3.22771e-05
0.00904987
3.00064e-05
0.00904157
2.79506e-05
0.00903383
2.60915e-05
0.0090266
2.44111e-05
0.00901986
2.28909e-05
0.00901355
2.15127e-05
0.00900764
2.02583e-05
0.0090021
1.91108e-05
0.0089969
1.80545e-05
0.00899202
1.70753e-05
0.00898744
1.61608e-05
0.00898313
1.53002e-05
0.00897909
1.44842e-05
0.00897529
1.37052e-05
0.00897172
1.29569e-05
0.00896837
1.22346e-05
0.00896523
1.15342e-05
0.0089623
1.0853e-05
0.00895956
1.01888e-05
0.008957
9.54021e-06
0.00895462
8.90637e-06
0.00895242
8.28674e-06
0.00895038
7.6811e-06
0.0089485
7.08941e-06
0.00894678
6.51176e-06
0.00894521
5.9483e-06
0.00894378
5.39919e-06
0.0089425
4.86458e-06
0.00894134
4.34463e-06
0.00894032
3.83951e-06
0.00893943
3.34944e-06
0.00893866
2.87477e-06
0.008938
2.41603e-06
0.00893746
1.974e-06
0.00893702
1.54975e-06
0.00893669
1.14471e-06
0.00893646
7.60329e-07
0.00893633
3.96804e-07
0.00893631
4.84559e-08
0.0089364
-2.97534e-07
0.00893658
-6.52256e-07
0.00893687
-1.02115e-06
0.00893725
-1.40875e-06
0.00893772
-1.81907e-06
0.00893826
-2.24671e-06
0.00893888
-2.66977e-06
0.00893959
-3.06482e-06
0.00894038
-3.42646e-06
0.00894128
-3.76255e-06
0.00894226
-4.08217e-06
0.00894333
-4.3923e-06
0.00894448
-4.69763e-06
0.00894571
-5.00114e-06
0.00894703
-5.30476e-06
0.00894842
-5.60975e-06
0.00894989
-5.91702e-06
0.00895144
-6.22723e-06
0.00895306
-6.5409e-06
0.00895477
-6.85843e-06
0.00895656
-7.18019e-06
0.00895843
-7.50647e-06
0.00896038
-7.83755e-06
0.00896242
-8.17368e-06
0.00896454
-8.51513e-06
0.00896675
-8.86215e-06
0.00896905
-9.215e-06
0.00897143
-9.57396e-06
0.00897391
-9.93931e-06
0.00897648
-1.03113e-05
0.00897914
-1.06903e-05
0.0089819
-1.10766e-05
0.00898475
-1.14705e-05
0.00898771
-1.18722e-05
0.00899077
-1.22822e-05
0.00899393
-1.27008e-05
0.0089972
-1.31282e-05
0.00900058
-1.35648e-05
0.00900406
-1.40108e-05
0.00900766
-1.44666e-05
0.00901138
-1.49324e-05
0.00901521
-1.54086e-05
0.00901917
-1.58952e-05
0.00902325
-1.63927e-05
0.00902745
-1.6901e-05
0.00903178
-1.74205e-05
0.00903624
-1.79512e-05
0.00904084
-1.84933e-05
0.00904557
-1.90467e-05
0.00905044
-1.96114e-05
0.00905545
-2.01875e-05
0.00906061
-2.07747e-05
0.00906591
-2.13727e-05
0.00907136
-2.19813e-05
0.00907696
-2.26001e-05
0.00908272
-2.32284e-05
0.00908863
-2.38655e-05
0.0090947
-2.45106e-05
0.00910092
-2.51625e-05
0.00910731
-2.58199e-05
0.00911385
-2.64813e-05
0.00912056
-2.71447e-05
0.00912742
-2.7808e-05
0.00913444
-2.84684e-05
0.00914162
-2.91229e-05
0.00914895
-2.9768e-05
0.00915642
-3.03993e-05
0.00916405
-3.10121e-05
0.00917181
-3.16007e-05
0.00917969
-3.21587e-05
0.0091877
-3.26788e-05
0.00919582
-3.31525e-05
0.00920402
-3.35702e-05
0.0092123
-3.39212e-05
0.00922064
-3.41933e-05
0.00922901
-3.43726e-05
0.00923739
-3.44439e-05
0.00924574
-3.43901e-05
0.00925404
-3.41923e-05
0.00926224
-3.38297e-05
0.00927029
-3.32797e-05
0.00927815
-3.25176e-05
0.00928577
-3.15174e-05
0.00929307
-3.02518e-05
0.00930001
-2.86931e-05
0.0093065
-2.68148e-05
0.00931246
-2.45925e-05
0.0093178
-2.20032e-05
0.00932241
-1.90189e-05
0.00932618
-1.55973e-05
0.009329
-1.16864e-05
0.00933075
-7.23886e-06
0.00933131
-2.21509e-06
0.00933054
3.42121e-06
0.00932827
9.70618e-06
0.00932436
1.66766e-05
0.00931862
2.43701e-05
0.00931089
3.28248e-05
0.009301
4.20764e-05
0.00928874
5.21544e-05
0.00927393
6.30818e-05
0.00925636
7.48816e-05
0.00923582
8.75782e-05
0.00921211
0.000101195
0.00918503
0.000115756
0.00915435
0.000131282
0.00911987
0.000147794
0.00908138
0.000165315
0.00903868
0.000183866
0.00899157
0.000203473
0.00893985
0.000224164
0.00888335
0.000245974
0.0088219
0.00026894
0.00875536
0.000293107
0.00868363
0.000318524
0.00860667
0.000345244
0.00852452
0.00037331
0.00843735
0.000402747
0.00834554
0.000433522
0.0082498
0.000465489
0.00815139
0.000498265
0.00805238
0.000531009
0.0079562
0.000562004
0.00786826
0.000587897
0.0077968
0.000602348
0.00775356
0.000593765
0.00775319
0.000541837
0.00780943
0.000413199
0.00792329
0.000158146
0.00805484
-0.000286828
-0.000974719
0.00808454
0.00998002
6.34413e-05
0.00997047
0.000322338
0.00995519
0.000401775
0.00992465
0.00040991
0.0098796
0.000386495
0.00982531
0.000350757
0.00976737
0.000313275
0.00970979
0.000278861
0.00965488
0.000249002
0.00960365
0.000223626
0.00955638
0.000202098
0.00951296
0.000183689
0.00947314
0.000167753
0.0094366
0.000153765
0.00940303
0.000141319
0.00937215
0.000130113
0.0093437
0.000119929
0.00931745
0.000110608
0.00929321
0.000102037
0.00927081
9.41337e-05
0.0092501
8.68361e-05
0.00923093
8.0098e-05
0.00921319
7.38828e-05
0.00919675
6.81603e-05
0.00918153
6.29043e-05
0.00916742
5.80902e-05
0.00915433
5.36937e-05
0.00914219
4.9689e-05
0.00913092
4.60474e-05
0.00912046
4.27384e-05
0.00911074
3.97324e-05
0.00910168
3.70025e-05
0.00909325
3.4524e-05
0.00908539
3.22734e-05
0.00907805
3.02278e-05
0.0090712
2.83646e-05
0.00906479
2.66622e-05
0.0090588
2.51001e-05
0.0090532
2.36595e-05
0.00904795
2.23232e-05
0.00904303
2.1076e-05
0.00903843
1.99045e-05
0.00903412
1.87972e-05
0.00903008
1.77444e-05
0.0090263
1.6738e-05
0.00902276
1.57714e-05
0.00901945
1.48395e-05
0.00901637
1.3938e-05
0.00901349
1.30639e-05
0.00901082
1.22148e-05
0.00900834
1.1389e-05
0.00900604
1.05854e-05
0.00900391
9.80328e-06
0.00900196
9.04202e-06
0.00900017
8.30134e-06
0.00899854
7.58106e-06
0.00899706
6.88104e-06
0.00899572
6.2012e-06
0.00899452
5.54149e-06
0.00899346
4.90189e-06
0.00899253
4.28247e-06
0.00899172
3.68339e-06
0.00899103
3.10499e-06
0.00899046
2.54772e-06
0.00899
2.01213e-06
0.00898964
1.49868e-06
0.00898939
1.00729e-06
0.00898925
5.36471e-07
0.00898922
8.04687e-08
0.0089893
-3.71266e-07
0.00898947
-8.28147e-07
0.00898975
-1.29546e-06
0.00899011
-1.77652e-06
0.00899057
-2.27247e-06
0.0089911
-2.77817e-06
0.00899171
-3.27888e-06
0.0089924
-3.75795e-06
0.00899318
-4.2093e-06
0.00899406
-4.63663e-06
0.00899502
-5.04614e-06
0.00899607
-5.44366e-06
0.00899721
-5.83382e-06
0.00899843
-6.2201e-06
0.00899973
-6.60498e-06
0.00900111
-6.9903e-06
0.00900257
-7.37743e-06
0.00900411
-7.76739e-06
0.00900573
-8.16101e-06
0.00900743
-8.55894e-06
0.00900921
-8.96172e-06
0.00901108
-9.36982e-06
0.00901302
-9.78365e-06
0.00901505
-1.02036e-05
0.00901717
-1.063e-05
0.00901937
-1.10633e-05
0.00902166
-1.15037e-05
0.00902403
-1.19517e-05
0.0090265
-1.24076e-05
0.00902906
-1.28717e-05
0.00903172
-1.33445e-05
0.00903447
-1.38264e-05
0.00903731
-1.43176e-05
0.00904026
-1.48187e-05
0.00904331
-1.533e-05
0.00904646
-1.58518e-05
0.00904971
-1.63847e-05
0.00905308
-1.69288e-05
0.00905655
-1.74847e-05
0.00906014
-1.80527e-05
0.00906384
-1.86331e-05
0.00906766
-1.92261e-05
0.00907159
-1.98322e-05
0.00907565
-2.04515e-05
0.00907984
-2.10843e-05
0.00908415
-2.17308e-05
0.00908859
-2.2391e-05
0.00909316
-2.30652e-05
0.00909786
-2.37533e-05
0.00910271
-2.44552e-05
0.00910769
-2.51709e-05
0.00911282
-2.59002e-05
0.00911809
-2.66427e-05
0.0091235
-2.7398e-05
0.00912907
-2.81654e-05
0.00913478
-2.89443e-05
0.00914065
-2.97337e-05
0.00914667
-3.05325e-05
0.00915285
-3.13393e-05
0.00915918
-3.21523e-05
0.00916567
-3.29696e-05
0.00917231
-3.37887e-05
0.00917911
-3.46069e-05
0.00918607
-3.54208e-05
0.00919317
-3.62265e-05
0.00920042
-3.70196e-05
0.00920782
-3.77948e-05
0.00921535
-3.8546e-05
0.00922302
-3.92664e-05
0.0092308
-3.9948e-05
0.00923871
-4.05816e-05
0.00924671
-4.11569e-05
0.0092548
-4.16621e-05
0.00926297
-4.2084e-05
0.00927118
-4.24076e-05
0.00927942
-4.26162e-05
0.00928767
-4.26911e-05
0.00929589
-4.26117e-05
0.00930405
-4.23549e-05
0.00931212
-4.18959e-05
0.00932005
-4.12073e-05
0.00932779
-4.02599e-05
0.0093353
-3.90225e-05
0.00934251
-3.74624e-05
0.00934936
-3.55463e-05
0.00935579
-3.32408e-05
0.00936171
-3.05127e-05
0.00936703
-2.73281e-05
0.00937166
-2.36493e-05
0.00937549
-1.94297e-05
0.00937842
-1.46162e-05
0.00938034
-9.15476e-06
0.00938112
-2.99556e-06
0.00938064
3.90768e-06
0.00937874
1.16002e-05
0.00937529
2.01267e-05
0.00937013
2.95316e-05
0.0093631
3.98581e-05
0.00935403
5.11468e-05
0.00934275
6.3433e-05
0.00932909
7.67468e-05
0.00931286
9.11148e-05
0.00929388
0.000106562
0.00927196
0.000123112
0.00924694
0.000140784
0.00921862
0.000159598
0.00918685
0.000179567
0.00915146
0.000200705
0.00911231
0.000223023
0.00906925
0.000246527
0.0090222
0.000271226
0.00897105
0.00029712
0.00891578
0.000324209
0.00885641
0.00035248
0.00879303
0.000381907
0.00872585
0.000412433
0.00865521
0.00044395
0.0085817
0.000476264
0.00850619
0.000509032
0.00843003
0.000541656
0.00835519
0.000573105
0.00828458
0.000601624
0.00822234
0.000624245
0.00817423
0.000636016
0.00814776
0.000628818
0.00815183
0.000589697
0.00819482
0.000498848
0.00827996
0.000328045
0.0083966
4.14932e-05
0.00850715
-0.000397389
-0.00100674
0.00853917
0.00999798
6.55064e-05
0.00999641
0.000323941
0.00998569
0.00041252
0.009962
0.000433621
0.00992615
0.000422353
0.00988135
0.000395573
0.00983149
0.000363143
0.00977992
0.000330435
0.00972898
0.000299947
0.00968007
0.000272548
0.00963388
0.000248288
0.0095907
0.000226872
0.00955055
0.000207904
0.00951333
0.000190992
0.00947885
0.000175795
0.00944693
0.000162034
0.00941737
0.000149489
0.00938999
0.000137991
0.00936461
0.000127415
0.00934108
0.000117663
0.00931926
0.00010866
0.00929901
0.000100347
0.00928022
9.26767e-05
0.00926277
8.56085e-05
0.00924657
7.91071e-05
0.00923152
7.31398e-05
0.00921753
6.76749e-05
0.00920454
6.268e-05
0.00919247
5.81217e-05
0.00918124
5.3966e-05
0.00917079
5.01795e-05
0.00916106
4.67299e-05
0.009152
4.35868e-05
0.00914355
4.07217e-05
0.00913567
3.81074e-05
0.00912832
3.57174e-05
0.00912145
3.35265e-05
0.00911504
3.15111e-05
0.00910905
2.96491e-05
0.00910346
2.79208e-05
0.00909822
2.6308e-05
0.00909333
2.4795e-05
0.00908876
2.33681e-05
0.00908449
2.20153e-05
0.0090805
2.07269e-05
0.00907678
1.94945e-05
0.00907331
1.83113e-05
0.00907007
1.71719e-05
0.00906706
1.60721e-05
0.00906427
1.50083e-05
0.00906168
1.39782e-05
0.00905929
1.29796e-05
0.00905708
1.20112e-05
0.00905505
1.10717e-05
0.00905319
1.01605e-05
0.0090515
9.27676e-06
0.00904996
8.42001e-06
0.00904857
7.58982e-06
0.00904732
6.78581e-06
0.00904622
6.00768e-06
0.00904524
5.25519e-06
0.0090444
4.52822e-06
0.00904368
3.82671e-06
0.00904308
3.15064e-06
0.00904259
2.49993e-06
0.00904221
1.87416e-06
0.00904195
1.27222e-06
0.00904179
6.91828e-07
0.00904174
1.27444e-07
0.0090418
-4.30116e-07
0.00904196
-9.89059e-07
0.00904222
-1.55402e-06
0.00904257
-2.1274e-06
0.00904301
-2.70928e-06
0.00904353
-3.29571e-06
0.00904413
-3.87673e-06
0.00904481
-4.43985e-06
0.00904558
-4.97897e-06
0.00904644
-5.49561e-06
0.00904738
-5.99409e-06
0.00904842
-6.47911e-06
0.00904954
-6.95495e-06
0.00905075
-7.42515e-06
0.00905203
-7.89255e-06
0.0090534
-8.35938e-06
0.00905485
-8.82737e-06
0.00905638
-9.29792e-06
0.00905799
-9.77213e-06
0.00905969
-1.02509e-05
0.00906146
-1.0735e-05
0.00906331
-1.12251e-05
0.00906525
-1.17218e-05
0.00906727
-1.22255e-05
0.00906938
-1.27368e-05
0.00907157
-1.32561e-05
0.00907385
-1.37838e-05
0.00907622
-1.43205e-05
0.00907868
-1.48666e-05
0.00908123
-1.54225e-05
0.00908388
-1.59887e-05
0.00908662
-1.65656e-05
0.00908945
-1.71537e-05
0.00909239
-1.77535e-05
0.00909542
-1.83654e-05
0.00909856
-1.89899e-05
0.0091018
-1.96274e-05
0.00910515
-2.02784e-05
0.00910861
-2.09433e-05
0.00911218
-2.16226e-05
0.00911586
-2.23165e-05
0.00911966
-2.30254e-05
0.00912358
-2.37498e-05
0.00912762
-2.44898e-05
0.00913178
-2.52457e-05
0.00913607
-2.60178e-05
0.00914048
-2.68061e-05
0.00914503
-2.76108e-05
0.00914971
-2.84318e-05
0.00915452
-2.92692e-05
0.00915947
-3.01226e-05
0.00916456
-3.09919e-05
0.0091698
-3.18766e-05
0.00917518
-3.27761e-05
0.0091807
-3.36898e-05
0.00918637
-3.46166e-05
0.00919219
-3.55554e-05
0.00919817
-3.65049e-05
0.00920429
-3.74632e-05
0.00921057
-3.84284e-05
0.00921699
-3.93979e-05
0.00922357
-4.0369e-05
0.0092303
-4.13381e-05
0.00923719
-4.23013e-05
0.00924421
-4.3254e-05
0.00925138
-4.41907e-05
0.00925869
-4.51052e-05
0.00926614
-4.59904e-05
0.00927371
-4.6838e-05
0.0092814
-4.76385e-05
0.0092892
-4.83813e-05
0.0092971
-4.9054e-05
0.00930508
-4.9643e-05
0.00931313
-5.01326e-05
0.00932122
-5.05052e-05
0.00932935
-5.07415e-05
0.00933748
-5.08196e-05
0.00934558
-5.07155e-05
0.00935363
-5.04026e-05
0.00936158
-4.98521e-05
0.00936941
-4.90325e-05
0.00937706
-4.791e-05
0.00938449
-4.64487e-05
0.00939163
-4.4611e-05
0.00939845
-4.23577e-05
0.00940485
-3.96489e-05
0.00941078
-3.64435e-05
0.00941616
-3.2699e-05
0.00942088
-2.83692e-05
0.00942485
-2.34032e-05
0.00942798
-1.77445e-05
0.00943016
-1.13338e-05
0.00943127
-4.11318e-06
0.00943121
3.97202e-06
0.00942984
1.29745e-05
0.00942702
2.29459e-05
0.00942261
3.3936e-05
0.00941648
4.59924e-05
0.00940847
5.91595e-05
0.00939843
7.34765e-05
0.0093862
8.89771e-05
0.00937162
0.000105689
0.00935455
0.000123636
0.00933483
0.000142836
0.00931231
0.000163305
0.00928686
0.00018505
0.00925835
0.000208075
0.00922668
0.000232374
0.00919177
0.000257938
0.00915355
0.000284745
0.00911201
0.000312765
0.00906718
0.000341952
0.00901915
0.000372241
0.0089681
0.000403537
0.00891431
0.000435701
0.00885821
0.000468529
0.00880045
0.000501717
0.00874191
0.000534802
0.00868386
0.000567081
0.00862805
0.000597473
0.00857684
0.000624318
0.00853341
0.000645058
0.00850188
0.000655778
0.00848735
0.000650545
0.00849564
0.000620533
0.00853232
0.000553016
0.00860064
0.000430521
0.00869777
0.000230909
0.0088095
-7.02385e-05
0.00890521
-0.000493103
-0.00104116
0.00893962
0.0100044
6.11364e-05
0.0100088
0.000319577
0.0100037
0.000417589
0.00998714
0.000450224
0.00995973
0.00044977
0.00992368
0.000431625
0.00988184
0.00040499
0.00983691
0.000375368
0.00979105
0.000345813
0.00974576
0.000317838
0.00970201
0.000292048
0.00966032
0.000268563
0.00962096
0.000247264
0.00958401
0.000227939
0.00954946
0.000210354
0.0095172
0.000194293
0.00948712
0.000179563
0.0094591
0.000166011
0.00943301
0.000153509
0.00940871
0.00014196
0.00938609
0.000131281
0.00936503
0.000121408
0.00934543
0.000112284
0.00932717
0.000103864
0.00931017
9.61032e-05
0.00929435
8.89637e-05
0.00927962
8.24071e-05
0.0092659
7.6396e-05
0.00925313
7.08925e-05
0.00924124
6.58589e-05
0.00923016
6.12583e-05
0.00921983
5.70539e-05
0.00921021
5.32107e-05
0.00920124
4.96954e-05
0.00919287
4.64768e-05
0.00918506
4.35251e-05
0.00917777
4.08117e-05
0.00917097
3.83099e-05
0.00916463
3.5995e-05
0.0091587
3.38442e-05
0.00915318
3.18373e-05
0.00914801
2.99559e-05
0.0091432
2.81841e-05
0.00913871
2.65081e-05
0.00913452
2.4916e-05
0.00913061
2.3398e-05
0.00912698
2.19456e-05
0.0091236
2.0552e-05
0.00912046
1.92117e-05
0.00911755
1.79201e-05
0.00911485
1.66737e-05
0.00911236
1.54695e-05
0.00911007
1.43054e-05
0.00910796
1.31794e-05
0.00910603
1.20902e-05
0.00910427
1.10364e-05
0.00910267
1.00171e-05
0.00910123
9.03135e-06
0.00909994
8.07835e-06
0.00909879
7.15743e-06
0.00909778
6.26794e-06