/*--------------------------------*- C++ -*----------------------------------*\
  =========                 |
  \\      /  F ield         | OpenFOAM: The Open Source CFD Toolbox
   \\    /   O peration     | Website:  https://openfoam.org
    \\  /    A nd           | Version:  6
     \\/     M anipulation  |
\*---------------------------------------------------------------------------*/
FoamFile
{
    version     2.0;
    format      ascii;
    class       volVectorField;
    location    "200";
    object      U;
}
// * * * * * * * * * * * * * * * * * * * * * * * * * * * * * * * * * * * * * //

dimensions      [0 1 -1 0 0 0 0];

internalField   nonuniform List<vector> 
103000
(
(1.01109 -0.141966 0)
(1.0432 0.163265 0)
(0.98616 0.128466 0)
(0.955863 0.08453 0)
(0.941157 0.0577315 0)
(0.933185 0.0426516 0)
(0.928084 0.0339149 0)
(0.924226 0.0284248 0)
(0.920923 0.0246187 0)
(0.91791 0.0217336 0)
(0.915101 0.0193803 0)
(0.91247 0.0174 0)
(0.91 0.0157155 0)
(0.907676 0.0142424 0)
(0.905496 0.0129291 0)
(0.903456 0.0117439 0)
(0.901554 0.010665 0)
(0.899786 0.00967693 0)
(0.898147 0.00876842 0)
(0.896633 0.00793098 0)
(0.895237 0.00715827 0)
(0.893953 0.00644545 0)
(0.892774 0.00578874 0)
(0.891692 0.00518506 0)
(0.890701 0.00463181 0)
(0.889792 0.00412676 0)
(0.888959 0.00366854 0)
(0.888191 0.00325905 0)
(0.88748 0.00289617 0)
(0.886819 0.00256807 0)
(0.886204 0.00226888 0)
(0.885632 0.0020004 0)
(0.885098 0.00176222 0)
(0.884597 0.00155248 0)
(0.884125 0.00136878 0)
(0.883678 0.00120864 0)
(0.883254 0.00106956 0)
(0.88285 0.000949158 0)
(0.882464 0.000845186 0)
(0.882095 0.000755544 0)
(0.881742 0.000678307 0)
(0.881403 0.000611728 0)
(0.881079 0.00055424 0)
(0.880769 0.000504455 0)
(0.880472 0.000461156 0)
(0.88019 0.000423289 0)
(0.87992 0.000389949 0)
(0.879665 0.000360369 0)
(0.879423 0.000333906 0)
(0.879195 0.000310024 0)
(0.878981 0.000288284 0)
(0.87878 0.000268331 0)
(0.878593 0.000249875 0)
(0.87842 0.000232688 0)
(0.87826 0.000216588 0)
(0.878113 0.000201432 0)
(0.877979 0.000187109 0)
(0.877858 0.000173532 0)
(0.877749 0.000160637 0)
(0.877653 0.000148382 0)
(0.877569 0.000136744 0)
(0.877497 0.000125716 0)
(0.877437 0.000115302 0)
(0.877387 0.000105498 0)
(0.877349 9.63178e-05 0)
(0.877321 8.79408e-05 0)
(0.877304 8.13726e-05 0)
(0.877296 8.07522e-05 0)
(0.877293 8.71419e-05 0)
(0.877294 9.14861e-05 0)
(0.877301 8.91043e-05 0)
(0.877316 8.40441e-05 0)
(0.877338 7.67179e-05 0)
(0.87737 5.76087e-05 0)
(0.877418 1.97082e-05 0)
(0.877486 -1.87646e-05 0)
(0.87757 -3.73607e-05 0)
(0.877662 -4.20935e-05 0)
(0.877759 -4.42745e-05 0)
(0.877862 -4.63731e-05 0)
(0.877971 -4.88152e-05 0)
(0.878087 -5.15642e-05 0)
(0.87821 -5.45279e-05 0)
(0.87834 -5.76476e-05 0)
(0.878477 -6.08986e-05 0)
(0.878622 -6.42758e-05 0)
(0.878775 -6.77814e-05 0)
(0.878935 -7.14176e-05 0)
(0.879103 -7.51841e-05 0)
(0.879279 -7.9077e-05 0)
(0.879463 -8.30896e-05 0)
(0.879655 -8.7213e-05 0)
(0.879856 -9.14368e-05 0)
(0.880065 -9.57506e-05 0)
(0.880282 -0.000100144 0)
(0.880509 -0.000104606 0)
(0.880744 -0.000109128 0)
(0.880989 -0.000113701 0)
(0.881243 -0.000118317 0)
(0.881506 -0.000122971 0)
(0.881779 -0.000127655 0)
(0.882062 -0.000132364 0)
(0.882354 -0.000137093 0)
(0.882657 -0.000141838 0)
(0.882971 -0.000146593 0)
(0.883294 -0.000151354 0)
(0.883629 -0.000156115 0)
(0.883975 -0.000160872 0)
(0.884333 -0.000165617 0)
(0.884701 -0.000170343 0)
(0.885082 -0.000175043 0)
(0.885475 -0.000179706 0)
(0.885881 -0.000184322 0)
(0.886299 -0.000188878 0)
(0.88673 -0.000193359 0)
(0.887174 -0.00019775 0)
(0.887632 -0.000202029 0)
(0.888104 -0.000206175 0)
(0.88859 -0.000210163 0)
(0.88909 -0.000213964 0)
(0.889605 -0.000217545 0)
(0.890136 -0.000220869 0)
(0.890682 -0.000223891 0)
(0.891243 -0.000226566 0)
(0.89182 -0.000228836 0)
(0.892414 -0.000230639 0)
(0.893024 -0.000231906 0)
(0.893651 -0.000232555 0)
(0.894295 -0.000232496 0)
(0.894956 -0.000231627 0)
(0.895634 -0.000229832 0)
(0.896329 -0.000226982 0)
(0.897042 -0.00022293 0)
(0.897771 -0.000217512 0)
(0.898518 -0.000210546 0)
(0.899282 -0.000201825 0)
(0.900063 -0.000191124 0)
(0.90086 -0.000178188 0)
(0.901672 -0.000162739 0)
(0.902499 -0.00014447 0)
(0.90334 -0.000123044 0)
(0.904194 -9.80948e-05 0)
(0.905058 -6.92251e-05 0)
(0.905932 -3.60066e-05 0)
(0.906813 2.01972e-06 0)
(0.907699 4.53423e-05 0)
(0.908587 9.44779e-05 0)
(0.909473 0.00014997 0)
(0.910354 0.000212386 0)
(0.911225 0.000282321 0)
(0.91208 0.0003604 0)
(0.912914 0.000447298 0)
(0.91372 0.000543766 0)
(0.91449 0.000650621 0)
(0.915215 0.000768476 0)
(0.915885 0.000896249 0)
(0.91649 0.00102528 0)
(0.917025 0.00114657 0)
(0.917483 0.00127238 0)
(0.917852 0.00141828 0)
(0.918115 0.00158117 0)
(0.918253 0.00175498 0)
(0.918252 0.00193783 0)
(0.918095 0.00212862 0)
(0.917765 0.00232649 0)
(0.917245 0.00253109 0)
(0.916514 0.00274433 0)
(0.915552 0.00297045 0)
(0.914334 0.00320456 0)
(0.912838 0.00343826 0)
(0.911044 0.00367181 0)
(0.908927 0.00390677 0)
(0.906465 0.00414291 0)
(0.903632 0.00437975 0)
(0.900402 0.0046168 0)
(0.896748 0.00485372 0)
(0.892642 0.00509039 0)
(0.888057 0.005327 0)
(0.882961 0.00556405 0)
(0.877323 0.00580255 0)
(0.87111 0.00604402 0)
(0.864285 0.0062907 0)
(0.85681 0.00654571 0)
(0.84864 0.00681335 0)
(0.839726 0.00709943 0)
(0.830012 0.00741189 0)
(0.819431 0.00776175 0)
(0.807904 0.00816459 0)
(0.795332 0.00864336 0)
(0.781589 0.00923298 0)
(0.766508 0.00998851 0)
(0.74986 0.0109981 0)
(0.731315 0.0124005 0)
(0.710404 0.0143896 0)
(0.686472 0.0171418 0)
(0.658526 0.0205109 0)
(0.625032 0.0231489 0)
(0.587758 0.0190674 0)
(0.5711 -0.0180129 0)
(0.605073 -0.175042 0)
(0.994149 -0.00186761 0)
(0.969432 0.00586571 0)
(0.984431 0.00794217 0)
(0.977728 0.00431785 0)
(0.966947 0.000609764 0)
(0.956994 -0.00140898 0)
(0.948805 -0.00210122 0)
(0.942207 -0.00210726 0)
(0.936788 -0.0018416 0)
(0.932199 -0.00150981 0)
(0.9282 -0.00119886 0)
(0.924637 -0.000931873 0)
(0.92142 -0.000707486 0)
(0.918488 -0.000522879 0)
(0.915803 -0.00037313 0)
(0.913333 -0.00025229 0)
(0.911057 -0.000154775 0)
(0.908959 -7.5815e-05 0)
(0.907025 -1.14899e-05 0)
(0.905242 4.137e-05 0)
(0.9036 8.53162e-05 0)
(0.902087 0.000122386 0)
(0.900695 0.000154192 0)
(0.899414 0.000181993 0)
(0.898235 0.000206778 0)
(0.897149 0.000229332 0)
(0.896147 0.000250367 0)
(0.895222 0.000270818 0)
(0.894367 0.000290803 0)
(0.893576 0.000308862 0)
(0.892841 0.000324259 0)
(0.892157 0.000337589 0)
(0.891518 0.000349273 0)
(0.890921 0.000359385 0)
(0.890361 0.000367827 0)
(0.889834 0.000374451 0)
(0.889338 0.000379127 0)
(0.88887 0.000381761 0)
(0.888427 0.000382308 0)
(0.888007 0.000380767 0)
(0.887609 0.000377182 0)
(0.887231 0.000371633 0)
(0.886873 0.000364231 0)
(0.886533 0.000355113 0)
(0.886211 0.000344435 0)
(0.885905 0.000332364 0)
(0.885617 0.000319076 0)
(0.885345 0.000304746 0)
(0.885088 0.000289549 0)
(0.884848 0.000273651 0)
(0.884622 0.000257211 0)
(0.884412 0.000240374 0)
(0.884217 0.000223272 0)
(0.884036 0.000206025 0)
(0.883869 0.000188735 0)
(0.883716 0.000171489 0)
(0.883577 0.00015436 0)
(0.883452 0.000137406 0)
(0.883339 0.000120669 0)
(0.883239 0.000104183 0)
(0.883151 8.7972e-05 0)
(0.883075 7.20523e-05 0)
(0.88301 5.64353e-05 0)
(0.882957 4.11289e-05 0)
(0.882915 2.61538e-05 0)
(0.882882 1.16052e-05 0)
(0.882859 -2.20024e-06 0)
(0.882844 -1.4524e-05 0)
(0.882839 -2.52715e-05 0)
(0.882843 -3.58934e-05 0)
(0.882855 -4.72114e-05 0)
(0.882877 -5.87034e-05 0)
(0.882908 -7.04674e-05 0)
(0.882951 -8.41908e-05 0)
(0.883003 -0.000100872 0)
(0.883064 -0.000117486 0)
(0.883135 -0.000130582 0)
(0.883216 -0.000140907 0)
(0.883307 -0.000150571 0)
(0.883406 -0.000160413 0)
(0.883513 -0.000170629 0)
(0.883628 -0.000181192 0)
(0.88375 -0.00019203 0)
(0.883879 -0.000203086 0)
(0.884016 -0.000214327 0)
(0.884161 -0.000225735 0)
(0.884313 -0.000237306 0)
(0.884473 -0.000249038 0)
(0.884641 -0.000260934 0)
(0.884816 -0.000273 0)
(0.885 -0.000285242 0)
(0.885192 -0.000297667 0)
(0.885393 -0.000310285 0)
(0.885602 -0.000323105 0)
(0.885819 -0.000336138 0)
(0.886045 -0.000349397 0)
(0.88628 -0.000362894 0)
(0.886525 -0.000376642 0)
(0.886778 -0.000390656 0)
(0.887041 -0.00040495 0)
(0.887313 -0.000419538 0)
(0.887595 -0.000434436 0)
(0.887888 -0.000449659 0)
(0.88819 -0.000465222 0)
(0.888502 -0.000481141 0)
(0.888826 -0.000497432 0)
(0.88916 -0.000514109 0)
(0.889505 -0.000531188 0)
(0.889862 -0.000548683 0)
(0.89023 -0.000566611 0)
(0.890609 -0.000584985 0)
(0.891001 -0.00060382 0)
(0.891406 -0.000623129 0)
(0.891822 -0.000642926 0)
(0.892252 -0.000663224 0)
(0.892695 -0.000684036 0)
(0.893152 -0.000705373 0)
(0.893622 -0.000727245 0)
(0.894106 -0.000749662 0)
(0.894605 -0.000772633 0)
(0.895118 -0.000796164 0)
(0.895646 -0.000820261 0)
(0.896189 -0.000844926 0)
(0.896748 -0.00087016 0)
(0.897323 -0.00089596 0)
(0.897913 -0.00092232 0)
(0.89852 -0.00094923 0)
(0.899143 -0.000976673 0)
(0.899782 -0.00100463 0)
(0.900438 -0.00103307 0)
(0.901111 -0.00106195 0)
(0.901801 -0.00109123 0)
(0.902507 -0.00112085 0)
(0.90323 -0.00115074 0)
(0.90397 -0.00118081 0)
(0.904726 -0.00121095 0)
(0.905498 -0.00124104 0)
(0.906285 -0.00127091 0)
(0.907087 -0.00130039 0)
(0.907902 -0.00132927 0)
(0.90873 -0.0013573 0)
(0.90957 -0.00138417 0)
(0.91042 -0.00140956 0)
(0.911278 -0.00143307 0)
(0.912142 -0.00145424 0)
(0.913009 -0.00147257 0)
(0.913877 -0.00148745 0)
(0.914742 -0.00149822 0)
(0.915601 -0.00150412 0)
(0.916448 -0.00150428 0)
(0.917279 -0.00149772 0)
(0.918087 -0.00148334 0)
(0.918867 -0.00145988 0)
(0.919611 -0.00142596 0)
(0.920312 -0.00138019 0)
(0.920962 -0.00132165 0)
(0.921553 -0.0012507 0)
(0.922072 -0.00116747 0)
(0.922509 -0.00106859 0)
(0.922852 -0.000949851 0)
(0.923089 -0.000809626 0)
(0.923207 -0.000647052 0)
(0.92319 -0.000460808 0)
(0.923021 -0.000249422 0)
(0.922684 -1.12612e-05 0)
(0.92216 0.0002556 0)
(0.921429 0.000553549 0)
(0.920472 0.000885176 0)
(0.919268 0.00125161 0)
(0.917797 0.00165331 0)
(0.916034 0.00209183 0)
(0.913957 0.00256907 0)
(0.911543 0.00308668 0)
(0.908766 0.00364623 0)
(0.905602 0.00424923 0)
(0.902025 0.00489724 0)
(0.898008 0.00559194 0)
(0.893524 0.00633522 0)
(0.888543 0.00712926 0)
(0.883037 0.00797669 0)
(0.876973 0.00888075 0)
(0.870319 0.00984549 0)
(0.863037 0.0108761 0)
(0.855091 0.0119792 0)
(0.846436 0.0131635 0)
(0.837026 0.0144406 0)
(0.826806 0.0158259 0)
(0.815715 0.0173403 0)
(0.803684 0.019013 0)
(0.790632 0.0208849 0)
(0.776474 0.0230141 0)
(0.761126 0.025482 0)
(0.74454 0.0283955 0)
(0.726781 0.0318679 0)
(0.70822 0.0359175 0)
(0.689831 0.0401599 0)
(0.673687 0.0431277 0)
(0.664791 0.0405343 0)
(0.674807 0.0180957 0)
(0.69797 -0.0676967 0)
(0.992046 -0.0117442 0)
(0.978428 0.0272999 0)
(0.985513 0.03592 0)
(0.98332 0.0317437 0)
(0.976833 0.0249526 0)
(0.969137 0.0191799 0)
(0.961626 0.0150907 0)
(0.954855 0.012361 0)
(0.948917 0.0105327 0)
(0.943722 0.009254 0)
(0.939138 0.00830047 0)
(0.93505 0.00754592 0)
(0.931371 0.00691992 0)
(0.928036 0.00637792 0)
(0.924997 0.00589321 0)
(0.922215 0.00545039 0)
(0.919662 0.00504062 0)
(0.917314 0.00465875 0)
(0.915152 0.00430181 0)
(0.913161 0.00396805 0)
(0.911325 0.00365646 0)
(0.909633 0.00336643 0)
(0.908072 0.00309757 0)
(0.906633 0.00284954 0)
(0.905305 0.00262202 0)
(0.904079 0.00241471 0)
(0.902945 0.00222728 0)
(0.901897 0.00205923 0)
(0.900927 0.00190891 0)
(0.900029 0.00177345 0)
(0.899195 0.00165084 0)
(0.898419 0.00154031 0)
(0.897696 0.00144118 0)
(0.897021 0.00135252 0)
(0.89639 0.00127318 0)
(0.895798 0.00120195 0)
(0.895243 0.00113764 0)
(0.894721 0.00107913 0)
(0.89423 0.00102538 0)
(0.893767 0.000975487 0)
(0.893331 0.000928671 0)
(0.89292 0.000884269 0)
(0.892531 0.000841734 0)
(0.892165 0.000800627 0)
(0.89182 0.000760611 0)
(0.891494 0.00072143 0)
(0.891188 0.000682907 0)
(0.8909 0.000644923 0)
(0.89063 0.000607412 0)
(0.890378 0.000570347 0)
(0.890142 0.00053373 0)
(0.889923 0.000497586 0)
(0.889719 0.000461951 0)
(0.889531 0.000426872 0)
(0.889358 0.000392394 0)
(0.889199 0.000358564 0)
(0.889055 0.000325421 0)
(0.888925 0.000293 0)
(0.888807 0.000261329 0)
(0.888703 0.000230434 0)
(0.888612 0.00020034 0)
(0.888532 0.000171083 0)
(0.888464 0.000142709 0)
(0.888408 0.000115293 0)
(0.888362 8.89647e-05 0)
(0.888326 6.39644e-05 0)
(0.8883 4.07281e-05 0)
(0.888283 1.98149e-05 0)
(0.888277 8.18514e-07 0)
(0.888281 -1.8188e-05 0)
(0.888295 -3.85994e-05 0)
(0.888318 -6.05748e-05 0)
(0.888352 -8.46609e-05 0)
(0.888396 -0.000112322 0)
(0.888448 -0.000143548 0)
(0.888507 -0.00017439 0)
(0.888574 -0.000200715 0)
(0.888651 -0.000222556 0)
(0.888738 -0.000241976 0)
(0.888835 -0.000260388 0)
(0.888939 -0.000278513 0)
(0.889052 -0.000296664 0)
(0.889173 -0.000314967 0)
(0.889302 -0.00033347 0)
(0.889438 -0.000352199 0)
(0.889582 -0.000371171 0)
(0.889733 -0.0003904 0)
(0.889893 -0.0004099 0)
(0.89006 -0.000429685 0)
(0.890236 -0.000449766 0)
(0.890419 -0.000470154 0)
(0.890611 -0.000490861 0)
(0.890811 -0.000511899 0)
(0.891019 -0.000533279 0)
(0.891236 -0.000555016 0)
(0.891462 -0.000577124 0)
(0.891696 -0.000599618 0)
(0.89194 -0.000622517 0)
(0.892193 -0.000645837 0)
(0.892455 -0.000669597 0)
(0.892727 -0.000693818 0)
(0.893009 -0.000718518 0)
(0.8933 -0.000743719 0)
(0.893602 -0.000769441 0)
(0.893914 -0.000795704 0)
(0.894236 -0.00082253 0)
(0.894569 -0.000849939 0)
(0.894914 -0.000877951 0)
(0.895269 -0.000906584 0)
(0.895636 -0.000935859 0)
(0.896015 -0.000965791 0)
(0.896406 -0.000996398 0)
(0.896809 -0.0010277 0)
(0.897224 -0.0010597 0)
(0.897652 -0.00109241 0)
(0.898094 -0.00112586 0)
(0.898549 -0.00116003 0)
(0.899017 -0.00119495 0)
(0.899499 -0.0012306 0)
(0.899996 -0.00126699 0)
(0.900507 -0.00130411 0)
(0.901032 -0.00134195 0)
(0.901573 -0.0013805 0)
(0.902129 -0.00141972 0)
(0.9027 -0.0014596 0)
(0.903287 -0.00150008 0)
(0.90389 -0.00154111 0)
(0.904509 -0.00158264 0)
(0.905144 -0.00162458 0)
(0.905796 -0.00166685 0)
(0.906464 -0.00170932 0)
(0.907148 -0.00175187 0)
(0.907848 -0.00179433 0)
(0.908565 -0.00183652 0)
(0.909298 -0.00187822 0)
(0.910046 -0.00191917 0)
(0.91081 -0.00195906 0)
(0.911588 -0.00199756 0)
(0.91238 -0.00203425 0)
(0.913185 -0.00206868 0)
(0.914002 -0.00210031 0)
(0.91483 -0.00212854 0)
(0.915667 -0.00215267 0)
(0.916512 -0.00217194 0)
(0.917361 -0.00218545 0)
(0.918213 -0.00219222 0)
(0.919065 -0.00219114 0)
(0.919913 -0.00218097 0)
(0.920754 -0.00216034 0)
(0.921583 -0.00212775 0)
(0.922395 -0.00208153 0)
(0.923185 -0.00201987 0)
(0.923947 -0.00194088 0)
(0.924673 -0.0018426 0)
(0.925358 -0.0017233 0)
(0.925993 -0.00158182 0)
(0.926569 -0.00141797 0)
(0.927076 -0.0012311 0)
(0.927501 -0.00101725 0)
(0.927833 -0.000770872 0)
(0.928062 -0.000488475 0)
(0.928174 -0.000168166 0)
(0.928155 0.000191905 0)
(0.927988 0.00059381 0)
(0.927659 0.00103985 0)
(0.927147 0.00153262 0)
(0.926437 0.00207507 0)
(0.925507 0.0026702 0)
(0.92434 0.00331966 0)
(0.922915 0.00402415 0)
(0.92121 0.00478508 0)
(0.919203 0.00560451 0)
(0.916871 0.00648449 0)
(0.914191 0.00742698 0)
(0.91114 0.00843393 0)
(0.907694 0.00950736 0)
(0.903828 0.0106495 0)
(0.899518 0.0118628 0)
(0.894739 0.0131504 0)
(0.889465 0.0145159 0)
(0.883668 0.015964 0)
(0.877324 0.0175004 0)
(0.870404 0.0191325 0)
(0.86288 0.0208697 0)
(0.854725 0.0227241 0)
(0.845912 0.0247109 0)
(0.836413 0.0268498 0)
(0.826208 0.0291655 0)
(0.815283 0.0316885 0)
(0.803643 0.034455 0)
(0.791328 0.0375021 0)
(0.77845 0.0408538 0)
(0.765247 0.0444811 0)
(0.7522 0.0482013 0)
(0.740205 0.0514437 0)
(0.730803 0.0527461 0)
(0.726359 0.0488455 0)
(0.730103 0.0332247 0)
(0.744833 -0.00648285 0)
(0.760529 -0.0902458 0)
(0.999321 0.00155478 0)
(0.990342 0.0315525 0)
(0.991943 0.0389958 0)
(0.989579 0.0371501 0)
(0.984651 0.0322879 0)
(0.978415 0.0271556 0)
(0.971778 0.0228063 0)
(0.965339 0.0194207 0)
(0.959378 0.0168482 0)
(0.953966 0.0148749 0)
(0.949081 0.0133195 0)
(0.944668 0.0120539 0)
(0.940671 0.0109924 0)
(0.937036 0.0100762 0)
(0.933719 0.00926598 0)
(0.930681 0.00853633 0)
(0.927894 0.00787073 0)
(0.925331 0.00725845 0)
(0.92297 0.00669236 0)
(0.920794 0.00616772 0)
(0.918786 0.00568132 0)
(0.916932 0.00523086 0)
(0.91522 0.00481465 0)
(0.913638 0.00443133 0)
(0.912176 0.0040797 0)
(0.910823 0.00375862 0)
(0.909571 0.0034669 0)
(0.908412 0.00320312 0)
(0.907338 0.00296506 0)
(0.906342 0.0027499 0)
(0.905417 0.00255522 0)
(0.904557 0.0023793 0)
(0.903756 0.00222065 0)
(0.903009 0.00207776 0)
(0.902312 0.00194897 0)
(0.90166 0.00183263 0)
(0.90105 0.00172709 0)
(0.900478 0.00163082 0)
(0.899942 0.00154239 0)
(0.899439 0.00146051 0)
(0.898966 0.00138407 0)
(0.898522 0.00131209 0)
(0.898105 0.00124376 0)
(0.897713 0.0011784 0)
(0.897345 0.00111547 0)
(0.896999 0.00105454 0)
(0.896675 0.000995283 0)
(0.896372 0.000937464 0)
(0.896088 0.000880918 0)
(0.895823 0.000825538 0)
(0.895577 0.000771263 0)
(0.895348 0.000718068 0)
(0.895136 0.000665951 0)
(0.89494 0.000614925 0)
(0.89476 0.000565015 0)
(0.894596 0.000516246 0)
(0.894446 0.000468645 0)
(0.89431 0.000422237 0)
(0.894189 0.000377043 0)
(0.89408 0.000333085 0)
(0.893985 0.000290391 0)
(0.893901 0.000249001 0)
(0.89383 0.000208973 0)
(0.89377 0.000170395 0)
(0.893721 0.0001334 0)
(0.893683 9.81791e-05 0)
(0.893655 6.49776e-05 0)
(0.893637 3.39576e-05 0)
(0.89363 4.56163e-06 0)
(0.893633 -2.47001e-05 0)
(0.893646 -5.50636e-05 0)
(0.89367 -8.7035e-05 0)
(0.893703 -0.000121139 0)
(0.893746 -0.000158044 0)
(0.893797 -0.000197259 0)
(0.893855 -0.000236025 0)
(0.893921 -0.00027145 0)
(0.893996 -0.000303089 0)
(0.894081 -0.000332075 0)
(0.894175 -0.000359513 0)
(0.894277 -0.000386161 0)
(0.894388 -0.000412477 0)
(0.894508 -0.000438724 0)
(0.894635 -0.000465056 0)
(0.89477 -0.000491569 0)
(0.894913 -0.000518329 0)
(0.895064 -0.000545382 0)
(0.895223 -0.000572766 0)
(0.89539 -0.000600511 0)
(0.895565 -0.000628644 0)
(0.895747 -0.000657186 0)
(0.895939 -0.000686159 0)
(0.896138 -0.000715582 0)
(0.896346 -0.000745477 0)
(0.896562 -0.000775865 0)
(0.896788 -0.000806766 0)
(0.897022 -0.000838205 0)
(0.897265 -0.000870205 0)
(0.897517 -0.00090279 0)
(0.897778 -0.000935988 0)
(0.898049 -0.000969825 0)
(0.89833 -0.00100433 0)
(0.898621 -0.00103952 0)
(0.898921 -0.00107544 0)
(0.899232 -0.00111211 0)
(0.899554 -0.00114956 0)
(0.899886 -0.00118781 0)
(0.900229 -0.00122689 0)
(0.900584 -0.00126683 0)
(0.900949 -0.00130766 0)
(0.901327 -0.00134938 0)
(0.901716 -0.00139204 0)
(0.902118 -0.00143564 0)
(0.902531 -0.00148021 0)
(0.902958 -0.00152575 0)
(0.903398 -0.00157228 0)
(0.90385 -0.00161982 0)
(0.904317 -0.00166835 0)
(0.904797 -0.00171789 0)
(0.905291 -0.00176843 0)
(0.905799 -0.00181995 0)
(0.906322 -0.00187243 0)
(0.90686 -0.00192585 0)
(0.907412 -0.00198017 0)
(0.90798 -0.00203534 0)
(0.908563 -0.0020913 0)
(0.909162 -0.00214797 0)
(0.909777 -0.00220525 0)
(0.910407 -0.00226304 0)
(0.911054 -0.00232119 0)
(0.911716 -0.00237953 0)
(0.912395 -0.00243789 0)
(0.913089 -0.00249601 0)
(0.913799 -0.00255364 0)
(0.914524 -0.00261045 0)
(0.915265 -0.00266608 0)
(0.91602 -0.00272011 0)
(0.916789 -0.00277203 0)
(0.917572 -0.00282128 0)
(0.918367 -0.0028672 0)
(0.919173 -0.00290907 0)
(0.91999 -0.00294602 0)
(0.920814 -0.00297709 0)
(0.921646 -0.00300122 0)
(0.922482 -0.00301716 0)
(0.92332 -0.00302357 0)
(0.924158 -0.00301893 0)
(0.924991 -0.00300153 0)
(0.925817 -0.00296953 0)
(0.92663 -0.00292089 0)
(0.927427 -0.0028534 0)
(0.928203 -0.0027647 0)
(0.92895 -0.00265233 0)
(0.929664 -0.00251382 0)
(0.930337 -0.00234683 0)
(0.930962 -0.0021494 0)
(0.93153 -0.00191988 0)
(0.93203 -0.00165613 0)
(0.932451 -0.00135405 0)
(0.932784 -0.00100833 0)
(0.933015 -0.000614552 0)
(0.933135 -0.000169393 0)
(0.933127 0.000330199 0)
(0.932979 0.000887337 0)
(0.932674 0.00150526 0)
(0.932196 0.00218734 0)
(0.931527 0.00293711 0)
(0.930651 0.00375793 0)
(0.929548 0.00465237 0)
(0.928199 0.00562225 0)
(0.926585 0.00666957 0)
(0.924685 0.00779668 0)
(0.922478 0.00900594 0)
(0.919943 0.0102996 0)
(0.91706 0.0116799 0)
(0.913808 0.0131492 0)
(0.910164 0.0147097 0)
(0.90611 0.0163642 0)
(0.901624 0.0181157 0)
(0.896687 0.0199678 0)
(0.89128 0.0219249 0)
(0.885386 0.0239923 0)
(0.878989 0.0261765 0)
(0.872078 0.0284853 0)
(0.864643 0.0309282 0)
(0.856685 0.0335156 0)
(0.848212 0.0362591 0)
(0.839249 0.0391693 0)
(0.829849 0.0422521 0)
(0.820101 0.0455008 0)
(0.810165 0.0488783 0)
(0.800302 0.0522818 0)
(0.790934 0.0554716 0)
(0.782725 0.0579343 0)
(0.776667 0.0586312 0)
(0.774118 0.0555716 0)
(0.776648 0.0452022 0)
(0.785461 0.0217863 0)
(0.799759 -0.0227274 0)
(0.811336 -0.0962292 0)
(0.999981 0.00582899 0)
(0.996779 0.0320964 0)
(0.996635 0.039583 0)
(0.994428 0.0396774 0)
(0.990503 0.0366717 0)
(0.985391 0.0326341 0)
(0.979662 0.0286538 0)
(0.973812 0.0251669 0)
(0.96815 0.022256 0)
(0.96283 0.019858 0)
(0.957904 0.0178718 0)
(0.953375 0.0162032 0)
(0.94922 0.0147766 0)
(0.94541 0.0135342 0)
(0.941912 0.0124336 0)
(0.938696 0.0114447 0)
(0.935735 0.0105464 0)
(0.933005 0.00972418 0)
(0.930485 0.00896759 0)
(0.928157 0.00826935 0)
(0.926005 0.0076242 0)
(0.924014 0.00702822 0)
(0.922172 0.00647839 0)
(0.920466 0.00597226 0)
(0.918885 0.00550768 0)
(0.917421 0.00508263 0)
(0.916063 0.00469508 0)
(0.914803 0.00434281 0)
(0.913635 0.0040232 0)
(0.91255 0.00373332 0)
(0.911542 0.00347043 0)
(0.910605 0.00323211 0)
(0.909732 0.0030162 0)
(0.908918 0.00282062 0)
(0.908159 0.0026433 0)
(0.907451 0.00248217 0)
(0.906789 0.00233525 0)
(0.90617 0.00220067 0)
(0.905591 0.00207669 0)
(0.905049 0.00196174 0)
(0.904541 0.00185443 0)
(0.904066 0.00175355 0)
(0.90362 0.00165806 0)
(0.903203 0.00156709 0)
(0.902812 0.00147994 0)
(0.902447 0.00139601 0)
(0.902105 0.00131486 0)
(0.901786 0.00123615 0)
(0.901488 0.00115961 0)
(0.901211 0.00108506 0)
(0.900953 0.00101238 0)
(0.900714 0.000941479 0)
(0.900493 0.000872318 0)
(0.90029 0.000804871 0)
(0.900103 0.000739129 0)
(0.899932 0.000675094 0)
(0.899776 0.000612769 0)
(0.899635 0.000552162 0)
(0.899509 0.00049328 0)
(0.899396 0.000436132 0)
(0.899296 0.000380738 0)
(0.899209 0.000327126 0)
(0.899135 0.000275345 0)
(0.899072 0.00022546 0)
(0.89902 0.000177559 0)
(0.898979 0.000131733 0)
(0.898949 8.80405e-05 0)
(0.89893 4.63949e-05 0)
(0.898921 6.21521e-06 0)
(0.898923 -3.36516e-05 0)
(0.898936 -7.42256e-05 0)
(0.898959 -0.000116059 0)
(0.898991 -0.000159541 0)
(0.899032 -0.00020488 0)
(0.899081 -0.000251521 0)
(0.899138 -0.000297683 0)
(0.899203 -0.000341419 0)
(0.899277 -0.000382135 0)
(0.89936 -0.000420361 0)
(0.899452 -0.000456837 0)
(0.899553 -0.000492207 0)
(0.899662 -0.000526952 0)
(0.89978 -0.000561403 0)
(0.899906 -0.000595791 0)
(0.90004 -0.000630273 0)
(0.900182 -0.000664965 0)
(0.900332 -0.000699952 0)
(0.90049 -0.000735299 0)
(0.900656 -0.000771061 0)
(0.90083 -0.00080728 0)
(0.901012 -0.000843994 0)
(0.901203 -0.000881238 0)
(0.901402 -0.000919044 0)
(0.901609 -0.000957441 0)
(0.901824 -0.000996459 0)
(0.902049 -0.00103613 0)
(0.902282 -0.00107649 0)
(0.902524 -0.00111756 0)
(0.902776 -0.00115937 0)
(0.903037 -0.00120197 0)
(0.903307 -0.00124539 0)
(0.903586 -0.00128966 0)
(0.903876 -0.00133482 0)
(0.904176 -0.0013809 0)
(0.904486 -0.00142793 0)
(0.904806 -0.00147596 0)
(0.905137 -0.00152502 0)
(0.905479 -0.00157513 0)
(0.905832 -0.00162634 0)
(0.906196 -0.00167867 0)
(0.906572 -0.00173216 0)
(0.906959 -0.00178682 0)
(0.907359 -0.00184268 0)
(0.907771 -0.00189977 0)
(0.908196 -0.0019581 0)
(0.908633 -0.00201768 0)
(0.909084 -0.00207852 0)
(0.909548 -0.00214064 0)
(0.910025 -0.00220401 0)
(0.910516 -0.00226864 0)
(0.911022 -0.00233451 0)
(0.911541 -0.00240159 0)
(0.912076 -0.00246983 0)
(0.912625 -0.0025392 0)
(0.913189 -0.00260962 0)
(0.913768 -0.00268101 0)
(0.914362 -0.00275327 0)
(0.914972 -0.00282628 0)
(0.915598 -0.00289987 0)
(0.916239 -0.00297389 0)
(0.916895 -0.0030481 0)
(0.917567 -0.00312226 0)
(0.918255 -0.00319606 0)
(0.918958 -0.00326917 0)
(0.919676 -0.00334117 0)
(0.920408 -0.0034116 0)
(0.921155 -0.0034799 0)
(0.921915 -0.00354545 0)
(0.922688 -0.00360752 0)
(0.923473 -0.0036653 0)
(0.924268 -0.00371783 0)
(0.925074 -0.00376405 0)
(0.925887 -0.00380276 0)
(0.926706 -0.00383258 0)
(0.92753 -0.00385199 0)
(0.928355 -0.00385929 0)
(0.929179 -0.00385257 0)
(0.929999 -0.00382975 0)
(0.930811 -0.00378852 0)
(0.931612 -0.00372637 0)
(0.932397 -0.0036406 0)
(0.933161 -0.00352835 0)
(0.933898 -0.0033866 0)
(0.934603 -0.00321231 0)
(0.935269 -0.00300248 0)
(0.935888 -0.00275422 0)
(0.936453 -0.00246463 0)
(0.936953 -0.00213038 0)
(0.937379 -0.00174707 0)
(0.93772 -0.00130944 0)
(0.937965 -0.000812402 0)
(0.938103 -0.000251445 0)
(0.938121 0.0003776 0)
(0.938006 0.00107884 0)
(0.937742 0.00185638 0)
(0.937316 0.00271434 0)
(0.93671 0.0036568 0)
(0.935909 0.0046876 0)
(0.934896 0.00581003 0)
(0.933654 0.00702682 0)
(0.932163 0.00834051 0)
(0.930407 0.00975361 0)
(0.928367 0.0112686 0)
(0.926024 0.0128876 0)
(0.923361 0.0146129 0)
(0.920361 0.0164464 0)
(0.917007 0.01839 0)
(0.913283 0.0204456 0)
(0.909176 0.0226151 0)
(0.904673 0.0249008 0)
(0.899764 0.0273048 0)
(0.894443 0.0298295 0)
(0.88871 0.0324775 0)
(0.882569 0.0352506 0)
(0.876033 0.0381499 0)
(0.869131 0.0411737 0)
(0.861905 0.044315 0)
(0.854427 0.0475571 0)
(0.846804 0.0508645 0)
(0.839195 0.0541675 0)
(0.831838 0.0573353 0)
(0.825076 0.0601282 0)
(0.819397 0.0621169 0)
(0.815464 0.0625507 0)
(0.814122 0.0601562 0)
(0.816304 0.0528668 0)
(0.822745 0.0375526 0)
(0.833365 0.00997581 0)
(0.846177 -0.034578 0)
(0.855255 -0.0990342 0)
(1.00009 0.0065504 0)
(0.999682 0.0324436 0)
(0.999399 0.040793 0)
(0.997714 0.0423041 0)
(0.99467 0.0406229 0)
(0.990543 0.037513 0)
(0.985719 0.0339988 0)
(0.980578 0.0306058 0)
(0.975408 0.0275476 0)
(0.970391 0.0248724 0)
(0.965625 0.0225539 0)
(0.961154 0.0205413 0)
(0.956988 0.018781 0)
(0.953123 0.0172257 0)
(0.949543 0.0158368 0)
(0.946228 0.0145842 0)
(0.943159 0.0134451 0)
(0.940316 0.0124028 0)
(0.937682 0.0114449 0)
(0.935241 0.010562 0)
(0.932976 0.00974728 0)
(0.930876 0.00899526 0)
(0.928927 0.0083017 0)
(0.927117 0.00766301 0)
(0.925437 0.00707609 0)
(0.923876 0.00653804 0)
(0.922427 0.00604602 0)
(0.92108 0.00559712 0)
(0.919829 0.00518821 0)
(0.918665 0.00481609 0)
(0.917583 0.0044776 0)
(0.916576 0.00416978 0)
(0.915637 0.00388984 0)
(0.914763 0.00363517 0)
(0.913948 0.00340326 0)
(0.913187 0.00319164 0)
(0.912477 0.00299798 0)
(0.911814 0.00282007 0)
(0.911195 0.00265585 0)
(0.910616 0.00250348 0)
(0.910075 0.00236129 0)
(0.90957 0.00222781 0)
(0.909097 0.0021018 0)
(0.908655 0.00198216 0)
(0.908243 0.001868 0)
(0.907858 0.00175859 0)
(0.907498 0.00165331 0)
(0.907163 0.00155171 0)
(0.906851 0.0014534 0)
(0.906562 0.0013581 0)
(0.906293 0.00126562 0)
(0.906044 0.00117579 0)
(0.905814 0.0010885 0)
(0.905602 0.00100368 0)
(0.905408 0.000921278 0)
(0.90523 0.000841245 0)
(0.905069 0.000763556 0)
(0.904923 0.000688186 0)
(0.904791 0.000615118 0)
(0.904674 0.000544338 0)
(0.90457 0.00047584 0)
(0.904479 0.000409631 0)
(0.904401 0.000345726 0)
(0.904335 0.000284151 0)
(0.90428 0.000224928 0)
(0.904237 0.000168055 0)
(0.904205 0.000113464 0)
(0.904184 6.09486e-05 0)
(0.904174 9.94257e-06 0)
(0.904175 -4.05254e-05 0)
(0.904186 -9.13244e-05 0)
(0.904207 -0.00014295 0)
(0.904238 -0.000195679 0)
(0.904277 -0.000249543 0)
(0.904325 -0.000304082 0)
(0.904381 -0.000358101 0)
(0.904445 -0.000410191 0)
(0.904517 -0.000459737 0)
(0.904598 -0.00050697 0)
(0.904689 -0.000552391 0)
(0.904788 -0.000596521 0)
(0.904896 -0.00063981 0)
(0.905012 -0.000682613 0)
(0.905137 -0.000725203 0)
(0.90527 -0.000767787 0)
(0.905411 -0.000810521 0)
(0.90556 -0.000853529 0)
(0.905717 -0.000896907 0)
(0.905882 -0.000940732 0)
(0.906055 -0.00098507 0)
(0.906237 -0.00102998 0)
(0.906426 -0.0010755 0)
(0.906624 -0.00112168 0)
(0.906831 -0.00116857 0)
(0.907046 -0.00121621 0)
(0.907269 -0.00126462 0)
(0.907502 -0.00131386 0)
(0.907743 -0.00136397 0)
(0.907993 -0.00141498 0)
(0.908253 -0.00146695 0)
(0.908522 -0.0015199 0)
(0.908801 -0.00157388 0)
(0.909089 -0.00162894 0)
(0.909388 -0.00168512 0)
(0.909697 -0.00174245 0)
(0.910016 -0.00180099 0)
(0.910345 -0.00186077 0)
(0.910685 -0.00192183 0)
(0.911037 -0.00198422 0)
(0.911399 -0.00204796 0)
(0.911773 -0.00211309 0)
(0.912159 -0.00217964 0)
(0.912557 -0.00224764 0)
(0.912967 -0.00231711 0)
(0.913389 -0.00238807 0)
(0.913824 -0.00246054 0)
(0.914272 -0.00253453 0)
(0.914733 -0.00261003 0)
(0.915208 -0.00268704 0)
(0.915696 -0.00276555 0)
(0.916198 -0.00284553 0)
(0.916714 -0.00292695 0)
(0.917245 -0.00300976 0)
(0.91779 -0.00309388 0)
(0.91835 -0.00317924 0)
(0.918924 -0.00326573 0)
(0.919514 -0.00335322 0)
(0.920119 -0.00344156 0)
(0.920739 -0.00353056 0)
(0.921374 -0.00361999 0)
(0.922025 -0.0037096 0)
(0.92269 -0.00379907 0)
(0.923371 -0.00388803 0)
(0.924066 -0.00397606 0)
(0.924776 -0.00406267 0)
(0.9255 -0.00414727 0)
(0.926238 -0.00422921 0)
(0.926989 -0.00430773 0)
(0.927752 -0.00438195 0)
(0.928527 -0.00445088 0)
(0.929312 -0.00451339 0)
(0.930107 -0.00456819 0)
(0.930908 -0.00461385 0)
(0.931716 -0.00464873 0)
(0.932528 -0.00467101 0)
(0.933341 -0.00467867 0)
(0.934154 -0.00466946 0)
(0.934962 -0.00464091 0)
(0.935763 -0.00459031 0)
(0.936553 -0.00451471 0)
(0.937328 -0.00441095 0)
(0.938083 -0.00427568 0)
(0.938813 -0.00410537 0)
(0.939513 -0.00389638 0)
(0.940176 -0.00364504 0)
(0.940795 -0.00334762 0)
(0.941362 -0.00300025 0)
(0.941869 -0.0025987 0)
(0.942306 -0.0021381 0)
(0.942663 -0.00161298 0)
(0.942931 -0.00101765 0)
(0.943099 -0.000346705 0)
(0.943155 0.000404959 0)
(0.943086 0.00124228 0)
(0.94288 0.0021701 0)
(0.942523 0.00319317 0)
(0.941999 0.00431605 0)
(0.941296 0.00554302 0)
(0.940397 0.00687788 0)
(0.939287 0.00832389 0)
(0.937951 0.00988384 0)
(0.936373 0.0115602 0)
(0.934536 0.0133552 0)
(0.932428 0.0152707 0)
(0.930032 0.0173081 0)
(0.927337 0.0194684 0)
(0.924331 0.0217524 0)
(0.921004 0.0241602 0)
(0.917348 0.0266915 0)
(0.91336 0.0293453 0)
(0.90904 0.0321201 0)
(0.904394 0.0350128 0)
(0.899434 0.0380189 0)
(0.894183 0.0411306 0)
(0.888675 0.0443359 0)
(0.882963 0.0476148 0)
(0.877122 0.0509354 0)
(0.871256 0.0542458 0)
(0.865513 0.0574618 0)
(0.860094 0.0604471 0)
(0.855273 0.0629816 0)
(0.851411 0.0647122 0)
(0.848972 0.0650791 0)
(0.848515 0.0632117 0)
(0.850642 0.0577964 0)
(0.855865 0.0469443 0)
(0.864319 0.0281427 0)
(0.875299 -0.00153656 0)
(0.886676 -0.044725 0)