/*--------------------------------*- C++ -*----------------------------------*\
  =========                 |
  \\      /  F ield         | OpenFOAM: The Open Source CFD Toolbox
   \\    /   O peration     | Website:  https://openfoam.org
    \\  /    A nd           | Version:  6
     \\/     M anipulation  |
\*---------------------------------------------------------------------------*/
FoamFile
{
    version     2.0;
    format      ascii;
    class       volScalarField;
    location    "0";
    object      p;
}
// * * * * * * * * * * * * * * * * * * * * * * * * * * * * * * * * * * * * * //

dimensions      [0 2 -2 0 0 0 0];

internalField   nonuniform List<scalar> 
918
(
0.191695
0.963294
0.008761
0.191335
-0.00061168
0.931941
-0.849466
0.370558
0.170149
-0.481095
-0.047131
0.161366
0.782923
0.548462
-1.52212
0.00882645
0.329718
-0.729139
0.169188
-0.00216252
0.446262
0.176213
0.179442
0.171368
0.228354
0.52394
0.654857
0.000901535
-0.00209957
-0.00391207
0.00399123
-0.00258963
0.00237384
0.804969
0.851298
0.870018
0.139248
-0.0119766
-0.727315
-0.787468
-0.757503
-0.894008
0.356886
0.359907
-0.517726
0.369815
0.384771
0.156679
0.169442
0.170235
0.171483
0.170472
0.171799
0.163082
-0.48676
-0.514388
-0.459706
-0.43202
-0.0561583
-0.0777904
-0.11916
-0.024819
-0.0153078
0.0954335
0.158994
0.157481
0.166275
0.176871
0.888795
0.860775
0.883578
0.808381
0.825794
0.757041
0.729211
0.569556
0.591659
0.531911
0.522486
-1.99096
-2.97046
-0.927055
-0.643098
0.00061975
0.010544
0.0118285
0.314661
0.315639
0.326192
0.33772
0.702686
-0.706885
-0.865219
0.1686
0.167657
0.175562
0.177062
0.173399
0.172817
0.00435631
0.0114953
-0.00947522
-0.00393364
-0.00695425
0.423285
0.418651
0.170605
0.168228
0.186673
0.211118
0.198414
-0.0682294
0.238592
0.256824
0.351231
0.519595
0.511127
0.522006
0.629066
0.595991
0.687248
0.711651
0.0136525
0.00386825
0.00144535
0.00317882
0.00105145
0.135439
0.12987
0.152811
0.14265
0.14553
-0.109895
-0.256679
0.0680147
0.0936751
-0.637342
-0.686924
-0.809151
-0.799264
-0.885366
0.193238
0.352147
0.350769
-0.537594
-0.45438
-0.59112
-0.393818
-0.457368
0.149171
0.15457
0.151417
0.165453
0.159053
0.162002
0.173333
0.170646
0.172113
0.173724
0.289355
0.0982057
0.0307302
-0.608245
-0.537296
-0.591727
-0.403201
-0.345502
-0.0595581
-0.0678397
-0.0579821
-0.0224632
-0.293558
-0.163667
-0.228443
-0.000403032
0.000676498
0.0874706
0.0771341
0.104783
0.110863
0.149807
0.151698
0.154394
0.152584
0.677407
0.70077
0.708542
0.685105
-3.9764
-6.69666
-0.285974
-0.120365
0.00262323
0.00270358
0.00185482
0.00370135
0.00275112
0.000849788
0.0032591
0.00730557
0.0121741
0.0122242
0.303016
0.305309
0.644167
0.673133
0.672023
0.656853
0.157594
0.159589
0.16455
0.161533
0.00801517
0.01502
0.0106183
0.386968
0.402544
0.398344
-0.106303
-0.192777
-0.0211099
0.00780974
0.294577
0.27064
0.290427
0.413597
0.453561
0.724777
0.749372
0.736259
0.752579
0.800864
0.821094
0.786151
0.115601
0.125199
0.119697
0.156327
0.15436
0.1553
0.149545
0.151109
0.148811
-0.389599
-0.763844
0.156046
0.162439
0.13116
0.139314
0.268968
0.349416
0.335171
0.340821
0.344772
-0.346436
-0.399681
0.0217645
0.00137964
0.0337669
0.0663535
0.0497585
0.652658
0.6161
0.663436
0.639286
0.602253
0.62507
-0.697597
-2.48065
-1.43171
0.289066
0.083369
0.179584
0.00124458
-0.00749
0.00267559
0.67751
0.711117
0.340823
0.523007
0.488105
0.485351
0.516193
0.568652
0.49938
0.534698
0.568902
0.55071
0.16623
0.153957
0.147851
0.433552
0.497669
-0.226476
-0.293543
-0.327122
-0.0793088
-0.0383285
-0.0680548
0.676174
0.563469
0.631952
0.16828
0.168745
0.0115521
0.0186017
0.172298
0.172522
0.00561722
0.00621542
0.186192
-1.28161
-0.209243
0.161203
0.151887
0.16811
-0.459545
-0.0234934
-0.0856474
-0.00376228
0.0737451
0.159
0.105798
0.0721199
0.00470458
0.0145994
-0.00369084
-0.523736
0.165879
0.16435
0.16769
0.168703
0.169354
0.00562319
0.00751663
0.00534629
0.000502833
0.00133552
-0.00151225
0.134612
0.150614
-0.518457
0.167695
0.169881
0.169608
0.163132
0.168649
0.166904
0.0122503
0.00710934
0.00476192
-0.121648
0.00343488
0.402456
0.50419
0.333333
0.15105
-0.141987
0.322594
0.384332
0.2942
0.446291
0.338622
0.350485
-0.148504
-0.289902
-0.150723
-0.206641
0.15905
0.157987
0.149804
0.147426
0.163503
0.161566
0.165759
0.162972
0.165653
0.166955
-0.500263
-0.449154
-0.445488
-0.49153
-0.0108578
0.245644
-0.158269
0.0109425
-0.0954291
-0.0509047
-0.0282612
-0.140528
-0.166522
-0.126082
0.0440652
0.0565756
-0.0239287
0.0701223
0.012248
-0.0837954
0.0145387
-0.0169772
0.153167
0.15076
0.159351
0.166344
0.113653
0.115629
0.0880418
0.104113
0.0916563
0.0411335
0.0686965
0.0461718
0.00626305
0.00651677
0.00532056
0.0190201
0.0160389
0.00748881
0.00817546
0.0114348
0.00545103
0.00657486
0.000257413
0.00847769
-0.493025
-0.616205
0.630832
0.59756
-0.173535
0.155083
0.161321
0.157991
0.162992
0.165802
0.166322
0.164319
0.160915
0.150967
0.153042
0.149255
0.149439
-0.464002
-0.570321
-0.399968
-0.466989
-0.201421
0.277891
0.00975381
-0.0390996
-0.0530931
0.159255
0.368248
0.31932
0.435837
0.429842
-0.735099
-0.310752
-0.657557
-0.108495
-0.152805
0.419919
0.46809
0.490673
0.441981
0.391979
-0.392224
0.170124
-0.385649
-0.344351
-0.16288
-0.259977
0.384804
0.318683
0.323956
0.342754
0.366563
0.329876
0.310451
0.306601
0.335893
0.340726
0.153646
-0.0900261
-0.120401
-0.169224
0.307451
0.186123
0.237294
0.157259
0.15404
0.156838
0.155106
0.139544
0.145259
0.141809
0.145973
0.149397
0.158727
0.158813
0.154367
0.156329
-0.440205
-0.416142
-0.462391
-0.479577
-0.477023
-0.540078
-0.434791
-0.296515
-0.423089
-0.0574579
0.0266932
-0.285131
-0.429817
-0.39133
-0.354321
-0.129805
-0.111737
-0.473123
-0.0980474
-0.36539
-0.389889
-0.103462
-0.0234983
-0.131396
-0.18555
-0.275052
-0.171399
-0.0702982
-0.147244
-0.142285
0.0074991
-0.0181212
-0.0198957
-0.00159822
-0.358273
-0.328317
-0.291249
-0.519302
0.0129128
0.0160669
0.0174975
0.0169216
0.023362
0.0256579
0.148704
0.147869
0.149719
0.161414
0.173489
0.188122
0.157466
0.13299
0.125224
0.127374
0.102511
0.110796
0.105793
0.119546
0.138753
0.145888
0.143598
0.146083
0.131377
0.13209
0.120135
0.124505
0.100963
0.0849719
0.0778465
0.00947949
0.00728092
0.00864817
0.00800293
0.00842755
0.00914338
0.0282479
0.0223119
0.0255374
0.0207831
0.0129305
0.0127749
0.00989103
-0.416835
-0.353748
-0.528234
-0.568597
-0.630089
0.545452
0.656929
0.481326
0.263126
0.261725
0.480782
0.571327
0.26664
0.440522
0.460387
0.17498
0.445764
0.159804
0.158999
0.157207
0.156159
0.157286
-0.36593
-0.271096
-0.245896
-0.199542
-0.0762402
0.03621
-0.0553646
-0.182833
-0.0475279
-0.0185064
0.27331
0.286713
0.231137
0.257176
0.258456
0.0790906
0.154907
0.200714
0.150105
0.213771
0.244833
0.192891
0.236608
0.163214
0.11955
0.114077
0.0626141
0.0978966
0.0782214
0.0523963
0.149545
0.129978
0.139083
0.133196
0.149207
0.180112
0.177115
0.194929
0.211293
0.136713
0.0925587
0.10697
0.131558
0.0943145
0.108276
0.1256
-0.171034
-0.260407
-0.118704
-0.472214
-0.346156
-0.327946
-0.36589
-0.411747
-0.0988278
-0.772917
-0.70581
-1.39273
0.108538
0.514064
0.343163
0.355673
0.363093
0.34096
0.351109
0.375291
0.381755
0.298041
0.307772
0.314458
0.270462
0.302761
0.310978
0.316434
0.141314
0.0640841
0.0533198
0.0030664
-0.128945
-0.0938418
0.0823248
0.0226836
-0.0422972
-0.0426746
0.116463
-6.86356e-05
0.0678234
0.115456
0.0628013
-0.000365265
0.206395
0.267263
0.25252
0.223129
0.141555
0.158906
0.183353
0.222506
0.243293
0.273749
0.14665
0.152157
0.152872
0.150328
0.148823
0.15101
0.15066
0.153599
0.15437
0.156936
0.156265
-0.244697
-0.303555
-0.383866
-0.30358
-0.630651
-0.591263
-0.488913
-0.501951
-0.430407
-0.538688
-0.594452
-0.511048
-0.419483
-0.386325
-0.39843
-0.326275
-0.282829
-0.379333
-0.0621544
0.132314
0.170704
0.0235935
-0.106837
-0.0777282
0.00440557
-0.322145
-0.139927
-0.157471
-0.178959
-0.341538
-0.0432435
-0.0370161
-0.0409351
-0.0297044
-0.0700732
-0.0268233
0.00763937
0.00249711
-0.0065477
0.00189728
0.00786707
0.136068
0.129796
0.127309
0.122465
0.122387
0.132975
0.138108
0.140055
0.144888
0.146585
0.138621
0.143766
0.146067
0.0206058
0.0132624
0.0180944
0.00527781
0.00924793
0.0119925
0.00780282
-0.25502
-0.306692
-0.270627
-0.346228
-0.470267
-0.410041
0.114243
0.105893
0.136283
0.32061
0.166903
0.0839497
0.170726
0.276158
-0.108467
0.0984139
-0.070584
0.520638
0.408243
0.548276
0.186502
-0.118136
0.0273917
0.0474127
-0.109395
-0.00274059
-0.0167751
-0.134337
-0.096087
-0.0792852
-0.000999814
-0.0996225
-0.123381
-0.36401
-0.191671
-0.068759
-0.0900385
0.0473712
0.109148
-0.108642
-0.18576
-0.240999
0.266897
0.2835
0.296423
0.266886
0.290268
0.218001
0.211584
0.229103
0.239492
0.230422
-1.04302
-0.656535
-1.81099
-1.19587
-0.756082
0.134127
0.117359
0.367766
0.28005
0.353002
0.338265
0.282483
0.249886
0.263096
0.29733
-0.00198088
0.107592
0.0684916
0.0906156
0.0229833
-0.0554223
0.235339
0.231526
0.260456
0.282326
0.258407
0.284311
0.14497
0.143839
0.144457
0.141571
0.139779
0.141409
-0.55488
-0.600675
-0.514146
-0.493866
-0.522121
-0.565949
0.0253367
0.00224308
0.00320623
0.0072302
0.0286547
0.0276958
-0.211888
-0.267582
-0.337086
-0.321501
-0.36569
-0.42165
-0.43669
-0.345715
-0.263773
-0.283426
0.0282883
0.305099
0.129747
0.308625
0.105655
0.206199
0.130097
0.110034
0.147347
0.0152357
0.0918196
-0.340801
-0.568156
-0.600173
0.418047
0.380978
0.175908
-0.0763005
-0.202851
0.0909068
0.167891
0.133919
0.169987
0.21448
0.210715
-0.381716
-0.290055
-0.203445
0.0908896
-0.101497
-0.0999964
-0.0951916
0.0422545
0.016479
)
;

boundaryField
{
    wall-4
    {
        type            zeroGradient;
    }
    velocity-inlet-5
    {
        type            zeroGradient;
    }
    velocity-inlet-6
    {
        type            zeroGradient;
    }
    pressure-outlet-7
    {
        type            fixedValue;
        value           uniform 0;
    }
    wall-8
    {
        type            zeroGradient;
    }
    frontAndBackPlanes
    {
        type            empty;
    }
}

