/*--------------------------------*- C++ -*----------------------------------*\
  =========                 |
  \\      /  F ield         | OpenFOAM: The Open Source CFD Toolbox
   \\    /   O peration     | Website:  https://openfoam.org
    \\  /    A nd           | Version:  6
     \\/     M anipulation  |
\*---------------------------------------------------------------------------*/
FoamFile
{
    version     2.0;
    format      ascii;
    class       volVectorField;
    location    "0";
    object      U;
}
// * * * * * * * * * * * * * * * * * * * * * * * * * * * * * * * * * * * * * //

dimensions      [0 1 -1 0 0 0 0];

internalField   nonuniform List<vector> 
13046
(
(0.493186 0.179208 0)
(0.584123 -0.151947 3.63212e-21)
(0.213421 -0.097684 8.1355e-21)
(0.477484 0.0958898 0)
(0.209997 -0.024544 7.42409e-21)
(0.494959 -0.164095 0)
(0.521215 0.118606 -1.0832e-21)
(0.5387 -0.199382 -1.85622e-21)
(0.184406 -0.0142506 8.15688e-21)
(0.980429 0.43177 -2.54575e-21)
(1.04085 -0.439716 0)
(-0.0219649 -0.0274092 -5.05053e-21)
(0.614741 0.222436 6.78778e-21)
(0.676251 -0.22447 5.48124e-21)
(0.141877 -0.0701062 -4.41609e-21)
(0.931932 0.485734 -1.48353e-21)
(0.0123182 -0.0547357 -8.09364e-21)
(1.08452 -0.360666 -1.87361e-21)
(0.292071 0.0540839 0)
(0.375116 -0.144484 4.01874e-21)
(0.468077 -0.000355807 -1.13885e-20)
(0.943199 0.476994 1.44484e-21)
(0.00218308 -0.047145 1.62066e-20)
(1.07612 -0.378136 -5.48849e-22)
(0.432152 0.106145 -4.60522e-21)
(0.497728 -0.122953 6.81465e-21)
(0.238212 -0.0719646 0)
(0.622387 0.252097 -1.60882e-22)
(0.70153 -0.221966 -1.61332e-21)
(0.142318 -0.085766 1.53205e-20)
(0.499601 0.200339 0)
(0.608901 -0.13997 0)
(0.219967 -0.118102 -8.28017e-21)
(0.395733 0.0762054 1.61655e-20)
(0.262666 -0.0699433 -2.78166e-21)
(0.458623 -0.0959388 -1.05642e-20)
(0.392511 0.0537127 4.82855e-23)
(0.271467 -0.0483763 0)
(0.431182 -0.093582 0)
(0.406619 0.201822 -5.81586e-21)
(0.361239 -0.231475 -7.45294e-21)
(0.625774 -0.0535233 5.41748e-21)
(0.375466 -0.010291 -3.72289e-21)
(0.318332 -0.0183969 3.80801e-21)
(0.359539 -0.0639707 0)
(0.402625 -0.00167312 -2.37063e-21)
(0.29651 0.00225127 0)
(0.365427 -0.0900863 1.22363e-21)
(0.514852 0.174572 0)
(0.588897 -0.173498 2.59974e-22)
(0.185341 -0.0784285 3.19136e-23)
(0.529415 -0.363301 -9.05199e-21)
(0.345017 0.219259 0)
(0.719432 0.0209041 6.2955e-21)
(0.58674 -0.398899 1.28905e-20)
(0.745401 0.0457731 6.76545e-21)
(0.30801 0.200678 -8.90426e-21)
(0.970715 -0.216739 1.06406e-21)
(0.786402 0.475716 0)
(0.173111 -0.175278 -6.78903e-21)
(0.791459 0.236274 3.19127e-21)
(0.792806 -0.377586 -3.13926e-21)
(0.0796687 0.0166518 1.82675e-20)
(0.00316471 -0.0358648 -9.37143e-21)
(1.00857 -0.409937 1.62188e-21)
(0.949654 0.401799 4.59668e-21)
(0.747414 0.470146 0)
(0.938137 -0.181185 -5.04994e-21)
(0.218849 -0.213512 -1.97731e-21)
(0.71428 0.447834 2.41715e-21)
(0.90647 -0.167634 6.84358e-21)
(0.235419 -0.221692 2.69022e-21)
(1.00548 -0.226342 1.02896e-23)
(0.815494 0.494591 -9.83473e-23)
(0.156855 -0.170723 3.39411e-23)
(0.307316 0.0767553 0)
(0.36686 -0.160204 -4.37447e-21)
(0.494477 -0.017571 8.08015e-21)
(0.100684 -0.125446 -7.44367e-21)
(0.859574 0.500198 6.89756e-21)
(1.03999 -0.272137 2.21596e-21)
(0.460871 0.116862 -2.40833e-21)
(0.512259 -0.143773 2.43054e-21)
(0.215527 -0.0542506 0)
(-0.0034625 -0.0356475 8.36089e-21)
(1.02755 -0.416483 0)
(0.965813 0.41674 -2.70647e-21)
(0.991797 0.327554 4.72424e-21)
(0.00770363 0.00142845 0)
(0.963489 -0.485084 1.30906e-21)
(0.0456596 0.04146 0)
(1.05455 0.260253 0)
(0.929424 -0.568606 -1.64044e-22)
(0.798757 0.337929 6.24323e-21)
(0.836986 0.345997 -8.63887e-21)
(0.874519 -0.318978 -5.81467e-21)
(0.902762 -0.348498 2.72038e-21)
(0.0675171 -0.0619639 3.91363e-21)
(0.0483753 -0.0471361 -1.00586e-20)
(0.0192814 0.0121065 4.736e-22)
(0.990295 0.306194 -4.62241e-21)
(0.944408 -0.499756 0)
(0.423499 0.0230744 2.22168e-23)
(0.271415 0.000767378 0)
(0.395613 -0.116353 0)
(0.241383 0.137864 -1.62438e-20)
(0.680473 0.0738388 3.16918e-21)
(0.574921 -0.341475 0)
(0.342701 0.196918 -2.4634e-21)
(0.474765 -0.30737 0)
(0.66445 0.00152981 1.21812e-20)
(0.915767 0.422998 0)
(-0.025074 -0.0224409 6.83694e-21)
(0.960115 -0.437079 6.46627e-22)
(0.569528 0.197531 -4.75764e-21)
(0.637289 -0.202946 -2.39546e-21)
(0.157132 -0.0649483 -8.00414e-21)
(0.836651 0.398317 -3.60178e-21)
(0.800635 0.368535 3.36143e-21)
(0.941304 -0.313271 -1.52304e-21)
(0.0672972 -0.0815388 -4.48922e-21)
(0.896463 -0.300333 1.56252e-21)
(0.0770506 -0.0805312 4.19373e-21)
(0.967061 0.440445 5.89825e-21)
(1.03868 -0.435664 1.56321e-21)
(-0.0230545 -0.0268881 2.25341e-21)
(0.717477 0.304543 0)
(0.796548 -0.272258 4.02104e-21)
(0.102913 -0.0815313 -2.32811e-20)
(0.445837 0.21965 0)
(0.321457 -0.210394 7.50456e-21)
(0.63639 -0.0802485 -2.85428e-22)
(0.0607639 0.0531101 0)
(1.02818 0.245554 0)
(0.915167 -0.557171 0)
(0.905432 0.349257 0)
(0.943111 -0.404218 7.16596e-21)
(0.0228599 -0.0248035 1.00767e-20)
(0.540773 0.223708 0)
(0.646128 -0.161519 0)
(0.202963 -0.124275 0)
(0.642346 0.14783 0)
(0.630306 -0.295623 0)
(0.150422 0.0313793 0)
(0.321456 0.191587 2.27945e-21)
(0.51707 -0.334101 0)
(0.683661 0.0226986 -6.57265e-21)
(0.243238 0.124834 1.57394e-20)
(0.657653 0.069642 6.98091e-21)
(0.560589 -0.322468 -8.10526e-21)
(0.821156 0.257041 -7.20296e-21)
(0.825359 -0.388024 0)
(0.0630474 0.00316336 -2.37312e-20)
(0.218674 0.0700538 0)
(0.582391 0.0739761 -1.54052e-20)
(0.518292 -0.257394 -2.09681e-21)
(0.686645 -0.439397 -3.55164e-21)
(0.791498 0.108492 -7.10488e-21)
(0.734234 -0.455865 0)
(0.821771 0.140291 -4.08911e-21)
(0.221022 0.150873 -7.65988e-21)
(0.179687 0.123408 7.35713e-21)
(0.668659 0.118078 -9.71495e-22)
(0.617556 -0.32753 -4.17312e-21)
(0.175155 0.0694222 4.55157e-21)
(1.001 0.415948 2.59529e-21)
(-0.0233136 -0.0245104 -2.62534e-21)
(1.02193 -0.458547 2.43058e-21)
(0.936909 0.432448 1.54503e-21)
(-0.0250641 -0.0231745 1.02808e-21)
(0.999806 -0.435293 0)
(0.915315 0.36913 -1.46537e-22)
(0.962959 -0.401116 0)
(0.0173043 -0.03209 -1.21718e-20)
(0.514006 0.292519 0)
(0.719195 -0.0923423 -1.64529e-21)
(0.331701 -0.248917 -4.34488e-21)
(0.64553 0.0999279 -6.32712e-21)
(0.19834 0.0873185 0)
(0.58413 -0.308329 0)
(-0.0198804 -0.0164158 0)
(1.00321 -0.490332 0)
(1.02639 0.379964 -2.0975e-21)
(0.476344 0.264839 0)
(0.687521 -0.0760768 3.66053e-21)
(0.345714 -0.241834 -1.12902e-21)
(0.216977 0.0847837 0)
(0.599721 0.0734013 0)
(0.525909 -0.273593 0)
(0.607259 0.126321 -3.1915e-21)
(0.594353 -0.273865 0)
(0.162078 0.0270386 0)
(0.719193 -0.267535 2.86498e-23)
(0.112597 -0.0481279 5.44146e-21)
(0.686685 0.279106 -9.80992e-21)
(0.763391 -0.258861 0)
(0.112707 -0.0750034 2.40547e-20)
(0.994272 0.373926 5.32927e-21)
(-0.00673935 -0.0169506 -7.56623e-21)
(1.00178 -0.462365 5.84096e-21)
(0.0475636 0.0395838 -6.91071e-21)
(0.995305 0.263979 -2.9307e-21)
(0.918162 -0.526819 -6.71285e-21)
(1.03898 0.298451 7.59612e-21)
(0.954873 -0.530638 0)
(0.0170837 0.0183219 6.77091e-21)
(0.5538 -0.408582 3.64678e-21)
(0.776609 0.0142913 -2.76961e-21)
(0.390324 0.276542 -7.47311e-21)
(0.597082 0.168571 6.2633e-21)
(0.846565 0.511285 -3.60481e-21)
(0.120479 -0.140059 4.58945e-21)
(1.04367 -0.26068 -1.0279e-23)
(0.965455 -0.531619 0)
(1.04811 0.319866 2.07514e-21)
(0.00416469 0.00635647 0)
(0.421667 0.051451 1.19475e-20)
(0.253544 -0.0216323 0)
(0.428892 -0.12012 -3.9742e-21)
(0.599313 0.257768 0)
(0.695181 -0.200421 2.32315e-22)
(0.168838 -0.104919 -4.53287e-21)
(0.0602944 0.0511383 -5.30548e-21)
(1.00361 0.250323 0)
(0.908744 -0.542502 7.73497e-21)
(0.634225 0.191848 0)
(0.702131 -0.275141 -9.93201e-21)
(0.114773 -0.0340446 0)
(-0.0275832 -0.0237976 0)
(0.987664 -0.467456 -1.58658e-21)
(0.991015 0.411155 0)
(0.350509 0.248867 8.08468e-21)
(0.783544 0.0331563 0)
(0.590167 -0.431205 0)
(1.01324 0.290757 -6.66325e-21)
(0.943546 -0.518061 0)
(0.0236829 0.0204431 4.26654e-23)
(0.74211 0.130083 -8.16788e-21)
(0.675556 -0.390935 -3.11945e-21)
(0.171126 0.096553 1.04122e-20)
(0.713838 0.323339 0)
(0.806049 -0.258207 -3.7625e-21)
(0.115486 -0.0959367 -2.42734e-21)
(0.849033 -0.554176 1.03107e-20)
(0.966285 0.182968 5.32434e-21)
(0.13426 0.110106 -4.16312e-21)
(0.863975 0.148755 0)
(0.76874 -0.487269 4.26358e-21)
(0.173922 0.12594 1.51714e-22)
(-0.0276882 -0.0240158 5.27799e-21)
(0.963866 -0.476704 0)
(0.997059 0.397485 1.43519e-21)
(0.40983 0.241227 -1.07951e-20)
(0.429876 -0.294914 5.41169e-21)
(0.686492 -0.032819 5.23409e-22)
(0.842803 0.448413 -1.48168e-21)
(-0.0192899 -0.0179862 5.67093e-22)
(0.981278 -0.380534 0)
(0.263142 0.0315907 -2.45384e-21)
(0.464348 0.0226812 9.23884e-21)
(0.404556 -0.151107 -1.19942e-20)
(0.742779 0.170044 -3.24597e-21)
(0.720696 0.138102 -3.25618e-23)
(0.710323 -0.372369 7.61198e-21)
(0.667948 -0.369403 7.46756e-21)
(0.15996 0.0787505 -8.29132e-21)
(0.125428 0.0534401 4.27983e-21)
(0.0773481 -0.107105 9.74342e-21)
(0.879457 0.503409 -3.7035e-21)
(1.06549 -0.286434 0)
(0.677007 0.316138 0)
(0.781361 -0.22752 0)
(0.146809 -0.115102 9.63215e-21)
(0.900417 0.174453 1.42775e-21)
(0.806295 -0.509065 0)
(0.144825 0.10783 0)
(0.873986 0.377881 -3.08131e-21)
(0.946866 -0.356341 0)
(0.0373513 -0.0528165 -4.41767e-21)
(0.355393 0.00397935 -2.53291e-21)
(0.378059 -0.0504361 -3.65197e-21)
(0.320289 -0.0401004 1.26739e-21)
(0.800975 0.154093 5.20588e-21)
(0.734054 -0.432724 0)
(0.153511 0.097848 7.09854e-21)
(0.683834 0.335986 0)
(0.801654 -0.22052 -4.64553e-21)
(0.154837 -0.129706 6.14952e-21)
(0.65202 0.219479 -1.00841e-20)
(0.691429 0.240313 8.12166e-21)
(0.41973 0.256335 8.54356e-21)
(0.441575 -0.312167 -1.56534e-20)
(0.705504 -0.0284959 1.14793e-20)
(0.828571 0.180783 5.32145e-21)
(0.769811 -0.443835 -6.39068e-21)
(0.122073 0.0760762 -6.47419e-21)
(0.899828 0.383343 1.13631e-20)
(0.0244956 -0.043819 1.56407e-20)
(0.968209 -0.377187 3.3852e-21)
(0.343693 0.180553 3.76516e-21)
(0.449676 -0.287329 0)
(0.641962 -0.00117953 -4.11555e-21)
(0.241199 0.172991 8.27482e-21)
(0.808955 0.0995046 4.06067e-21)
(0.687971 -0.46072 0)
(0.78067 0.401313 1.17578e-21)
(0.908911 -0.257581 3.89753e-21)
(0.116444 -0.11959 -2.7799e-21)
(0.38186 0.245352 -6.98657e-22)
(0.504065 -0.353953 0)
(0.725339 0.00447252 -8.72635e-21)
(0.812134 0.42234 0)
(0.835877 0.422504 0)
(0.945463 -0.273962 2.4402e-21)
(0.102077 -0.112893 7.23882e-21)
(0.960124 -0.299849 -3.44436e-21)
(0.0788881 -0.0941658 -7.6775e-21)
(-0.0173277 -0.0196231 5.83776e-21)
(1.01241 -0.473508 0)
(1.01368 0.39154 3.20512e-21)
(0.764199 0.358358 0)
(0.864052 -0.277382 1.84395e-21)
(0.0986959 -0.0944412 -2.50297e-21)
(0.853497 -0.406648 -9.2168e-22)
(-0.0188126 -0.0193267 -8.41312e-21)
(0.81045 0.403613 -2.3098e-21)
(0.53747 0.0425102 1.24854e-20)
(0.246182 0.0688627 0)
(0.460061 -0.216535 4.40606e-21)
(0.745045 0.220485 -7.57442e-21)
(0.753795 -0.345865 0)
(0.0904424 0.00777959 -1.40503e-20)
(0.000718642 -0.0207991 4.83401e-21)
(0.969112 0.369788 -9.87114e-21)
(0.988043 -0.442689 -4.62473e-21)
(0.607682 -0.419472 4.7362e-21)
(0.76663 0.05144 0)
(0.305345 0.214059 1.00907e-20)
(0.870794 -0.552849 1.21925e-20)
(0.981653 0.20694 3.20439e-21)
(0.104199 0.0854975 0)
(0.642421 -0.246563 5.18535e-21)
(0.137935 -0.0264087 0)
(0.767174 0.271212 -8.12945e-21)
(0.797152 -0.330001 -3.46929e-21)
(0.0735776 -0.0307204 -4.29536e-21)
(0.631526 -0.261893 -1.8034e-22)
(0.138155 -0.00990829 -1.94262e-23)
(0.925983 0.478891 7.38178e-21)
(0.0227637 -0.0631042 -1.14338e-20)
(1.07296 -0.34926 2.75431e-21)
(0.539739 -0.420591 -4.74587e-21)
(0.797099 0.000442669 -8.62848e-22)
(0.426503 0.305915 0)
(0.800846 0.290156 8.28366e-21)
(0.839292 -0.348994 4.23161e-21)
(0.0598764 -0.0254589 1.04115e-20)
(0.661436 0.142729 0)
(0.633061 -0.316718 3.05639e-21)
(0.153617 0.0469024 0)
(0.689588 0.0526145 4.05503e-21)
(0.554658 -0.351972 0)
(0.27922 0.162346 0)
(0.498842 0.147565 3.33903e-21)
(0.55547 -0.167498 5.73583e-21)
(0.193514 -0.0622683 -1.56164e-23)
(0.274243 0.197245 -1.02708e-20)
(0.796575 0.0782246 -9.81782e-21)
(0.65791 -0.449058 -1.27321e-20)
(1.01299 0.347829 3.92686e-21)
(0.98375 -0.485947 -4.93117e-21)
(-0.00370219 -0.00695402 -1.13751e-22)
(0.878674 -0.535463 -8.30223e-21)
(0.97108 0.220673 -3.24806e-21)
(0.0875326 0.0715367 -5.33555e-21)
(0.641754 0.411738 7.51446e-21)
(0.303212 -0.262306 -4.01865e-21)
(0.853317 -0.126845 0)
(0.847333 0.468605 -2.02392e-21)
(0.8229 0.452728 1.89283e-21)
(0.975244 -0.262571 7.69836e-22)
(1.00543 -0.274149 -3.11786e-21)
(0.0991068 -0.118635 2.63221e-21)
(0.114258 -0.128675 2.34404e-21)
(-0.0203133 -0.0183918 8.54379e-21)
(0.895281 -0.399083 1.01512e-21)
(0.826046 0.41165 -1.02393e-21)
(0.859892 0.45732 1.07431e-22)
(-0.018445 -0.0199658 0)
(1.0122 -0.379668 0)
(0.782207 0.189793 1.20598e-20)
(0.753556 -0.39443 1.66353e-21)
(0.113101 0.0518302 0)
(-0.0118551 -0.0211651 1.45681e-20)
(0.999215 0.388067 -4.04098e-21)
(1.0147 -0.459224 0)
(0.722217 0.418573 -1.05657e-20)
(0.755241 0.427888 7.87792e-21)
(0.886841 -0.198787 -4.19345e-21)
(0.911818 -0.219581 -1.5921e-21)
(0.197138 -0.182776 4.63697e-21)
(0.16525 -0.160011 2.3248e-21)
(-0.00406235 -0.00151531 0)
(0.949246 -0.543446 0)
(1.07468 0.314154 -1.06461e-21)
(0.787139 0.441987 1.73983e-21)
(-0.0174347 -0.0146235 -5.31627e-21)
(0.952136 -0.359983 0)
(0.441754 -0.0339704 1.84756e-23)
(0.325052 0.0503859 -5.40756e-21)
(0.328974 -0.107229 -2.6845e-21)
(0.865887 0.427619 2.62582e-21)
(0.951909 -0.413705 -9.45972e-22)
(-0.0223697 -0.0197041 -1.06284e-20)
(0.566166 0.309691 -9.31031e-21)
(0.738394 -0.127605 7.506e-21)
(0.276221 -0.212968 4.5328e-23)
(1.03367 0.367375 -1.0266e-22)
(0.994622 -0.500788 -6.4547e-21)
(-0.0153056 -0.0122455 2.96588e-21)
(0.749096 -0.415841 -3.74776e-23)
(-0.0171434 -0.0236852 9.6825e-21)
(0.789377 0.33787 5.66443e-22)
(0.36852 0.170748 5.03204e-21)
(0.374325 -0.220978 3.1989e-22)
(0.594626 -0.0356035 -1.33231e-20)
(0.489392 0.0494908 0)
(0.448923 -0.176752 1.32807e-20)
(0.236609 0.0277054 -6.83459e-21)
(0.950857 0.456362 -6.03171e-21)
(-0.019952 -0.0283628 -6.71791e-21)
(1.04957 -0.420685 6.43771e-23)
(0.515109 0.0603774 0)
(0.469079 -0.197389 4.60419e-21)
(0.22459 0.0425329 9.66978e-21)
(0.418199 -0.0306487 -5.48862e-21)
(0.324016 0.0302965 5.71106e-21)
(0.331771 -0.0887197 -1.41956e-21)
(0.333908 0.248067 4.92618e-21)
(0.816915 0.0509839 3.41292e-21)
(0.637558 -0.470076 -6.97829e-21)
(0.512778 -0.0014297 0)
(0.391651 -0.178803 0)
(0.290902 0.0913334 -8.0067e-22)
(0.537575 0.0274566 -6.71928e-21)
(0.435934 -0.205191 -3.56721e-21)
(0.270918 0.0887332 -1.13366e-22)
(0.604799 0.392005 -1.1442e-20)
(0.827166 -0.106864 5.53339e-21)
(0.340104 -0.289986 8.03429e-21)
(-0.0111708 -0.0353115 -1.01945e-20)
(-0.0158354 -0.0316666 1.0356e-20)
(1.05943 -0.415036 -1.69506e-21)
(1.04813 -0.429853 -1.2398e-21)
(0.966663 0.452186 -5.47164e-21)
(0.978192 0.441102 8.17038e-21)
(1.02965 0.348953 -4.89081e-21)
(0.986886 -0.49707 4.15869e-21)
(-0.00743673 -0.00511226 0)
(0.290823 -0.265333 -5.19466e-21)
(0.673852 0.44265 -2.32945e-21)
(0.886727 -0.136093 0)
(0.432616 0.241237 0)
(0.385867 -0.264555 4.94406e-21)
(0.674128 -0.0523079 -4.07639e-21)
(0.879009 0.128681 0)
(0.759956 -0.509975 -4.41184e-21)
(0.207287 0.155481 -1.56959e-22)
(0.824756 -0.471057 -1.33213e-21)
(-0.024204 -0.0292035 0)
(0.936821 0.341856 2.14115e-21)
(0.0284535 0.027872 0)
(1.05836 0.280156 0)
(0.939595 -0.560249 -2.91692e-21)
(0.963805 0.426536 -1.92696e-21)
(-0.0262762 -0.0243806 0)
(1.00786 -0.449403 1.55705e-21)
(-0.0139401 -0.0203917 3.60128e-32)
(0.704453 -0.390523 1.42306e-22)
(0.725924 0.326009 -5.00061e-22)
(0.741206 -0.342902 -1.37944e-22)
(-0.0124315 -0.0147922 -3.5927e-32)
(0.688744 0.371623 4.604e-22)
(0.840465 -0.442178 8.53307e-21)
(0.870959 0.238684 0)
(0.0739292 0.0368163 1.37784e-20)
(0.915575 -0.523265 8.94948e-22)
(-0.0186457 -0.0188528 0)
(1.05961 0.331384 0)
(0.926852 0.341458 5.02879e-21)
(0.945046 -0.426554 -4.41418e-21)
(0.0185418 -0.0156938 -7.13891e-21)
(0.907082 0.503533 -7.02544e-21)
(0.00878951 -0.0484104 -4.0822e-21)
(1.10685 -0.343554 0)
(0.56962 0.174256 -2.55001e-21)
(0.153253 -0.0390535 2.72913e-21)
(0.621691 -0.222398 -2.50781e-21)
(0.949942 -0.551072 0)
(0.00486834 0.00732951 -4.91784e-21)
(1.07275 0.304075 -1.32938e-21)
(0.85577 0.112081 3.94512e-21)
(0.233003 0.174965 2.80661e-21)
(0.731315 -0.496079 0)
(0.821083 -0.500522 0)
(0.901812 0.192663 0)
(0.118684 0.0888792 -5.00727e-21)
(-0.00376414 -0.00921572 0)
(0.426211 -0.211312 -5.20876e-22)
(0.416669 0.20243 1.93808e-22)
(0.843095 -0.428616 -8.18992e-22)
(-0.0204852 -0.0222822 5.85692e-21)
(0.839033 0.388414 1.19146e-21)
(0.532705 0.148617 6.60671e-21)
(0.172748 -0.0386288 -6.50294e-21)
(0.575864 -0.200399 -2.90703e-21)
(0.968838 -0.519351 -5.22193e-21)
(1.05824 0.345836 2.14905e-21)
(-0.0145004 -0.0096662 0)
(-0.00620304 -0.00472497 5.13239e-21)
(1.08299 0.312855 0)
(0.931882 -0.547332 3.95841e-21)
(0.983421 0.411182 2.94946e-21)
(-0.0104091 -0.0287458 -1.56058e-20)
(1.02818 -0.435409 -5.41141e-21)
(0.0497663 -0.082826 1.17641e-20)
(1.05452 -0.320196 -3.32116e-21)
(0.89949 0.480534 0)
(0.583943 0.398716 1.44816e-20)
(0.831843 -0.0894416 -7.0509e-21)
(0.384521 -0.325576 7.61679e-21)
(0.956637 -0.237432 -1.13272e-21)
(0.792026 0.457496 -4.52744e-21)
(0.150381 -0.156088 7.25041e-21)
(0.044732 -0.0817022 1.05232e-20)
(0.902202 0.508305 0)
(1.09439 -0.315172 2.00683e-21)
(0.598938 0.299501 2.34449e-21)
(0.643125 0.326629 0)
(0.734067 -0.166033 7.88506e-21)
(0.777278 -0.187811 -8.43203e-21)
(0.215447 -0.159253 -5.07143e-21)
(0.193088 -0.15511 0)
(0.563258 0.292164 2.28598e-21)
(0.718817 -0.139372 0)
(0.253322 -0.186337 -2.40229e-21)
(0.709046 0.430907 0)
(0.889274 -0.182382 6.76817e-21)
(0.223013 -0.205505 -1.67238e-21)
(0.860017 -0.517159 4.20252e-21)
(0.94435 0.213806 -3.49776e-21)
(0.0928953 0.0707969 1.09226e-20)
(0.974062 -0.521414 0)
(1.03981 0.336803 -7.48054e-22)
(-0.00438159 -0.00056289 0)
(0.0571296 0.0414378 3.5404e-21)
(0.96125 0.25366 2.1193e-21)
(0.897845 -0.506853 2.70387e-21)
(0.79479 -0.349603 -5.22848e-24)
(-0.0142565 -0.0142408 -1.87669e-24)
(0.721653 0.391966 0)
(0.433296 0.189133 -4.59349e-21)
(0.443456 0.179318 0)
(0.293366 -0.16938 1.183e-21)
(0.595582 -0.0868026 -1.61429e-20)
(0.26898 -0.146379 -1.49698e-21)
(0.582872 -0.104439 1.03164e-20)
(0.646525 0.38777 0)
(0.599315 0.357731 1.48496e-21)
(0.288823 -0.235831 -1.88007e-23)
(0.829831 -0.152024 -4.43217e-21)
(0.260998 -0.219537 -1.2235e-20)
(0.790909 -0.130451 9.48311e-21)
(0.731288 -0.431599 0)
(-0.0191414 -0.0273789 -1.05567e-20)
(0.828393 0.325707 0)
(0.976058 -0.513584 3.30923e-21)
(1.05138 0.348675 -7.2651e-22)
(-0.0135836 -0.00957208 -3.1133e-21)
(0.46007 0.282762 2.79489e-21)
(0.424475 -0.314474 5.59089e-21)
(0.72755 -0.0460808 -1.29039e-20)
(0.82049 -0.535216 -9.24391e-21)
(0.931937 0.167629 -8.96574e-21)
(0.152621 0.121505 0)
(0.0645497 -0.0951053 -1.25804e-20)
(1.04388 -0.306551 3.5327e-21)
(0.885632 0.480926 0)
(0.921937 -0.45651 0)
(0.936376 0.398833 0)
(-0.0259791 -0.0243091 0)
(0.933214 -0.472373 0)
(0.96925 0.389257 -2.73206e-21)
(-0.027293 -0.0250957 0)
(0.754661 0.408126 4.4023e-21)
(0.896127 -0.235562 -2.42594e-21)
(0.146129 -0.141628 -3.44108e-21)
(0.317865 0.159922 1.32757e-21)
(0.459432 -0.27595 0)
(0.622886 0.0139401 -4.42877e-21)
(0.987595 0.421189 -3.43655e-21)
(-0.0146436 -0.0287154 -9.04877e-21)
(1.03968 -0.437692 7.74778e-21)
(0.855234 -0.466841 0)
(0.89859 0.240766 0)
(0.0714991 0.0458767 -1.18825e-20)
(0.0168228 -0.0464623 -2.98722e-21)
(0.999072 -0.384048 -5.71156e-21)
(0.922052 0.410027 -1.02929e-20)
(0.571459 0.348027 -1.51268e-21)
(0.322682 -0.259293 8.2022e-21)
(0.77761 -0.1122 -4.90092e-21)
(0.724213 0.106432 7.89672e-21)
(0.637972 -0.378253 -4.62195e-21)
(0.208012 0.120199 -1.0158e-20)
(0.397599 0.20794 -9.0715e-23)
(0.392059 -0.256895 1.63523e-21)
(0.643643 -0.0402782 5.34018e-21)
(-0.0191339 -0.023666 3.53184e-21)
(1.02685 -0.459964 -3.27088e-21)
(1.00308 0.408283 -3.49075e-21)
(0.868686 0.402964 1.96268e-21)
(0.965075 -0.339306 1.80314e-21)
(0.0471959 -0.0669616 0)
(0.378121 0.162903 4.98133e-21)
(0.343641 -0.192835 -1.03802e-20)
(0.576639 -0.0504341 8.80584e-21)
(0.903726 0.513692 -2.90587e-21)
(0.0330949 -0.0714019 -4.65019e-21)
(1.1086 -0.322163 -1.40501e-22)
(0.535967 0.243361 2.85605e-21)
(0.662067 -0.14999 0)
(0.223375 -0.146872 0)
(0.583006 0.101846 1.18537e-20)
(0.548221 -0.25474 -2.82731e-21)
(0.187719 0.0453536 0)
(0.811766 -0.471347 0)
(0.873277 0.195427 -7.60788e-21)
(0.109788 0.0772111 5.24403e-21)
(0.885915 0.477451 0)
(-0.0126497 -0.0273192 1.43006e-21)
(1.06644 -0.372241 -1.21031e-21)
(0.884035 0.489629 -2.51028e-21)
(-0.0064898 -0.0319905 -4.56525e-21)
(1.08432 -0.35688 1.56408e-21)
(0.0220522 -0.0550662 -2.71486e-21)
(1.01324 -0.369465 3.1966e-21)
(0.917904 0.426657 9.49034e-21)
(0.75037 0.0927352 3.53472e-21)
(0.649384 -0.408606 9.27895e-21)
(0.233067 0.144665 0)
(-0.0147221 -0.0210938 -1.30995e-21)
(1.03767 -0.366222 1.13529e-21)
(0.844174 0.46736 0)
(0.00907115 -0.0135294 0)
(0.965639 -0.445102 3.3961e-21)
(0.957065 0.348771 1.15946e-21)
(-0.0108832 -0.0197054 -5.29344e-21)
(0.597956 -0.363445 -4.18949e-22)
(0.649573 0.271727 0)
(0.583101 0.345821 7.38008e-22)
(0.662775 -0.28525 0)
(-0.00869606 -0.0105503 -5.29914e-21)
(0.0394939 -0.0761223 3.51626e-24)
(1.07873 -0.328425 3.67413e-22)
(0.908353 0.494539 0)
(-0.0258341 -0.0225923 0)
(1.00552 -0.473202 0)
(1.00921 0.404896 -4.20234e-21)
(0.957819 0.452188 3.14114e-21)
(0.951965 0.441984 -2.54105e-21)
(-0.00219178 -0.0430042 5.1203e-21)
(1.06238 -0.394431 5.88276e-22)
(0.00197408 -0.0446382 0)
(1.0465 -0.3935 0)
(0.963348 0.33012 -2.28224e-21)
(0.953932 -0.461437 -2.31553e-21)
(0.0129607 -0.00402308 0)
(0.193317 0.153918 0)
(0.788574 -0.537385 0)
(0.916128 0.14164 0)
(0.434516 0.143895 -6.22348e-21)
(0.249612 -0.109583 1.43634e-20)
(0.540295 -0.112665 -5.72023e-21)
(0.949192 0.283235 -6.61906e-21)
(0.912496 -0.48022 -9.0805e-22)
(0.0362746 0.0204688 -1.04342e-20)
(0.0522015 0.0336983 -6.77239e-21)
(0.940418 0.264231 9.20708e-21)
(0.892563 -0.486362 1.25915e-21)
(0.886388 0.518909 -3.57997e-21)
(0.067584 -0.10063 -5.03273e-21)
(1.0904 -0.29105 0)
(0.661428 0.406064 0)
(0.852287 -0.153107 -2.00876e-21)
(0.26224 -0.228276 1.19935e-20)
(0.60075 0.335246 0)
(0.769631 -0.141044 -9.85583e-21)
(0.263363 -0.212604 1.36239e-23)
(0.86288 0.271682 9.14961e-21)
(0.861294 -0.418344 -1.16353e-21)
(0.0515041 0.00796531 6.01587e-21)
(0.883592 0.266623 0)
(0.867203 -0.437178 -1.10276e-21)
(0.0531458 0.0176765 -5.5012e-21)
(0.353096 0.136243 0)
(0.348639 -0.179681 1.63714e-20)
(0.546489 -0.0400533 0)
(0.655073 0.345275 0)
(0.795667 -0.186396 5.43485e-21)
(0.197336 -0.167643 -1.82305e-21)
(0.0162735 0.017286 1.06408e-20)
(0.935965 -0.563548 6.48939e-21)
(1.08017 0.288028 0)
(0.989535 0.370242 5.56889e-23)
(-0.0264886 -0.0262041 -3.24731e-21)
(0.89968 -0.485813 -1.02441e-21)
(0.979414 0.348524 2.10297e-22)
(-0.0252217 -0.028026 0)
(0.865068 -0.485015 2.8195e-21)
(0.483046 0.251266 -3.3944e-21)
(0.312157 -0.21193 1.77066e-21)
(0.668719 -0.0951079 1.54373e-22)
(0.869293 -0.445818 -2.06913e-22)
(-0.0239409 -0.0250334 -1.34333e-20)
(0.904722 0.382532 0)
(0.893403 0.42701 -8.33348e-21)
(0.0386179 -0.0661978 0)
(0.99852 -0.346571 0)
(-0.0230359 -0.027675 5.32567e-21)
(0.819548 -0.457976 1.12567e-21)
(0.89977 0.351626 -1.54299e-21)
(0.465834 0.0737875 -8.30152e-21)
(0.227526 -0.00693493 -8.69599e-21)
(0.464549 -0.154542 -4.04092e-23)
(0.711688 0.26873 1.42729e-21)
(0.768892 -0.286829 1.29419e-21)
(0.0976146 -0.052387 5.51267e-21)
(0.604949 -0.392294 -1.06699e-20)
(0.732422 0.0688767 -1.2913e-20)
(0.269359 0.167486 0)
(-0.0162899 -0.0144797 0)
(0.934809 -0.527063 1.21565e-21)
(1.0657 0.334752 0)
(0.841376 -0.479674 0)
(0.900409 0.223949 0)
(0.0858004 0.0591392 0)
(0.0165798 -0.0572884 0)
(0.916448 0.502069 2.52178e-21)
(1.1048 -0.341777 -1.89804e-21)
(0.754467 0.288159 0)
(0.804512 -0.312373 -6.61254e-22)
(0.0801579 -0.0452475 -7.17633e-24)
(0.418 0.124036 6.01193e-21)
(0.25525 -0.0988699 -1.23376e-20)
(0.514921 -0.105847 0)
(0.962436 -0.515612 4.93605e-21)
(1.04911 0.357455 -2.04238e-21)
(-0.0198638 -0.0158404 0)
(0.00433065 -0.0289463 6.22186e-21)
(0.989964 -0.424155 -2.13208e-22)
(0.950028 0.384259 -2.35749e-22)
(0.922874 0.458304 0)
(0.908493 0.454451 -2.16287e-21)
(-0.0194488 -0.0256577 -3.28344e-21)
(-0.0212381 -0.0231869 4.06392e-21)
(1.04381 -0.40281 8.87656e-22)
(1.02494 -0.407328 -7.30032e-22)
(0.712725 0.176383 0)
(0.69349 -0.347621 -8.85625e-21)
(0.124987 0.0377128 -6.69302e-21)
(0.804896 -0.421541 -1.20069e-20)
(0.835493 0.2177 0)
(0.0868287 0.0430664 7.29822e-21)
(0.544544 0.115632 6.74216e-21)
(0.545744 -0.220396 -4.79688e-21)
(0.175567 0.00508686 -1.0636e-20)
(0.924516 -0.502679 -2.63649e-21)
(1.02368 0.36301 -2.082e-21)
(0.907822 -0.51223 1.187e-21)
(-0.0254112 -0.0238033 3.43959e-21)
(1.03579 0.344838 1.9529e-21)
(-0.0226732 -0.023385 0)
(0.838702 0.327844 0)
(0.885646 -0.363458 0)
(0.0467667 -0.0349785 -6.80156e-21)
(1.03587 0.371522 -2.34921e-21)
(1.02532 0.373163 6.00169e-21)
(0.971732 -0.502201 -1.72498e-21)
(0.955663 -0.496564 4.65436e-21)
(-0.024243 -0.0196767 -9.10009e-21)
(-0.0261292 -0.0223942 8.25254e-24)
(0.811606 0.200041 0)
(0.774239 -0.422221 1.13868e-20)
(0.110568 0.0621776 -9.46165e-21)
(0.665016 0.199548 -6.23894e-21)
(0.719067 -0.30042 7.90275e-21)
(0.102364 -0.0181249 0)
(0.911308 0.493637 0)
(-0.00168636 -0.0398139 -6.31169e-22)
(1.09467 -0.362062 -1.50281e-21)
(0.716036 0.197137 -4.58596e-21)
(0.712991 -0.335903 0)
(0.10936 0.0200305 1.10922e-20)
(0.586061 0.142855 -2.71851e-21)
(0.596062 -0.251315 5.62903e-21)
(0.153418 0.0015519 -6.15766e-21)
(0.908769 0.469269 0)
(-0.0149438 -0.0281894 0)
(1.06525 -0.389452 2.14458e-21)
(0.763212 0.31135 0)
(0.834289 -0.30281 -1.32622e-21)
(0.0774049 -0.0605588 6.76773e-21)
(0.715841 -0.504688 0)
(0.85794 0.0965975 0)
(0.264917 0.202548 3.60355e-22)
(0.571224 0.361303 3.71132e-22)
(0.792186 -0.100186 0)
(0.344854 -0.281988 -6.30766e-21)
(0.892976 -0.569343 -4.69737e-21)
(0.0869145 0.074658 0)
(1.01812 0.222191 0)
(-0.00722196 -0.0129701 1.27338e-20)
(0.562267 -0.281443 7.29577e-22)
(0.549371 0.268727 -2.71458e-22)
(0.735812 0.238924 0)
(0.75412 -0.32309 -4.84876e-21)
(0.0879951 -0.0143761 0)
(0.941525 0.476284 -4.85516e-21)
(-0.00460348 -0.0407363 -1.72648e-20)
(1.0826 -0.380488 3.94211e-21)
(0.463003 -0.373571 0)
(0.807791 -0.0449031 4.68883e-21)
(0.504416 0.352486 0)
(0.698192 0.405639 0)
(-0.014514 -0.0113311 3.15875e-21)
(0.840661 -0.337139 0)
(0.258105 0.109873 -6.56119e-21)
(0.272283 0.131829 6.70828e-21)
(0.485218 -0.26535 0)
(0.595906 0.0428582 -5.63677e-21)
(0.50388 -0.292889 1.04259e-20)
(0.626849 0.0390194 4.48915e-21)
(0.54221 0.0929291 -6.34516e-21)
(0.516839 -0.218875 -6.46216e-21)
(0.195641 0.0286266 0)
(0.330958 0.152108 -5.79887e-21)
(0.292941 0.125584 0)
(0.413894 -0.238994 0)
(0.591911 -0.00942974 0)
(0.433057 -0.235534 5.9995e-21)
(0.575712 0.0117637 -3.65976e-23)
(0.701994 0.22581 -3.93277e-22)
(0.678953 -0.292974 3.49439e-21)
(0.119105 -0.00343829 7.57617e-21)
(0.670857 0.186049 1.07232e-20)
(0.6782 -0.305222 0)
(0.123281 0.0114148 0)
(-0.0233031 -0.0271497 0)
(0.864864 -0.503722 0)
(1.01372 0.335857 -1.62612e-21)
(0.522156 0.263587 9.32608e-21)
(0.682384 -0.119728 0)
(0.271315 -0.187619 -3.27526e-21)
(1.02542 0.385602 5.74502e-21)
(0.995077 -0.49118 -2.29008e-21)
(-0.0245334 -0.0194681 5.19675e-21)
(0.878973 0.300455 0)
(0.910133 0.315964 -4.83933e-21)
(0.891668 -0.411766 1.45066e-21)
(0.919416 -0.426726 -4.3662e-21)
(0.0370789 -0.00537715 7.46589e-21)
(0.0269865 -0.00651757 6.8902e-21)
(0.509131 0.239358 0)
(0.654892 -0.127163 0)
(0.254986 -0.167428 -1.55827e-21)
(0.696707 0.391546 -3.58012e-21)
(0.85132 -0.192058 0)
(0.201173 -0.178398 -3.9924e-21)
(0.815564 0.282598 2.61498e-21)
(0.839928 -0.373151 0)
(0.055213 -0.0121044 -6.87744e-21)
(0.35963 0.0717911 -6.51638e-21)
(0.458972 -0.0650838 -3.15389e-21)
(0.294512 -0.0970854 -3.32618e-21)
(0.923721 0.28993 0)
(0.905289 -0.456414 0)
(0.0362375 0.0125362 1.10957e-20)
(0.409947 0.14701 0)
(0.28048 -0.136586 -1.81037e-21)
(0.545462 -0.0882487 0)
(0.806413 0.218791 5.95747e-21)
(0.78356 -0.403534 6.32902e-21)
(0.0906871 0.0337532 9.50116e-22)
(0.694868 0.37058 -3.61735e-21)
(0.835063 -0.205013 -6.19266e-21)
(0.178725 -0.15961 0)
(0.370456 0.0969255 6.45837e-21)
(0.352 0.0992199 2.87957e-21)
(0.487559 -0.0730293 -3.0703e-21)
(0.290879 -0.113177 6.58573e-21)
(0.498777 -0.0556404 0)
(0.315395 -0.136276 1.17162e-20)
(0.318281 0.114976 2.9068e-21)
(0.376624 -0.191508 -7.62558e-21)
(0.295438 0.113317 -1.87013e-21)
(0.537344 -0.0169279 0)
(0.423084 -0.221402 -3.84167e-21)
(0.55826 0.00738321 6.45252e-21)
(0.586556 0.277274 -3.38419e-21)
(0.626429 0.286732 0)
(0.709683 -0.173331 -5.96313e-21)
(0.732667 -0.200787 4.65483e-21)
(0.200236 -0.140622 1.46625e-20)
(0.168618 -0.118478 -1.21937e-20)
(0.0392114 -0.0731066 0)
(1.03761 -0.336873 1.91149e-21)
(0.904812 0.46031 4.78354e-21)
(0.290954 0.215723 -1.21919e-20)
(0.824073 0.075654 -5.38248e-21)
(0.673552 -0.476774 1.09643e-20)
(0.0236307 -0.0621571 5.86426e-21)
(0.0147973 -0.0542241 0)
(1.05108 -0.357378 -1.65358e-21)
(1.03866 -0.373846 -2.92266e-21)
(0.923089 0.463772 -1.20881e-20)
(0.933331 0.446721 6.25774e-21)
(0.401569 0.269019 0)
(0.513214 -0.372806 6.06105e-21)
(0.748605 -0.00188265 -1.28264e-21)
(0.359019 0.0288107 -1.37488e-20)
(0.302823 -0.0558328 0)
(0.405508 -0.060951 1.08181e-20)
(0.933971 0.311629 2.26419e-21)
(0.926642 -0.450712 4.9296e-21)
(0.025002 0.00168654 0)
(0.462686 0.211842 0)
(0.284884 -0.181324 1.48474e-21)
(0.623767 -0.0983959 5.2296e-21)
(0.719835 0.378035 0)
(0.853981 -0.222011 0)
(0.157718 -0.144262 9.58598e-22)
(0.866882 0.461873 0)
(0.865836 0.443826 0)
(1.01302 -0.301782 -1.10428e-21)
(0.0745527 -0.0991478 7.23403e-21)
(0.996919 -0.31048 3.01049e-21)
(0.0663617 -0.0898737 -9.79577e-21)
(0.869292 0.329218 -4.89992e-21)
(0.908027 -0.384076 -4.66391e-21)
(0.034476 -0.0259267 -3.25144e-21)
(0.766935 0.418586 -1.8542e-21)
(0.896662 -0.364192 0)
(-0.0175586 -0.014479 3.87997e-21)
(0.487831 -0.382117 0)
(0.788523 -0.0273914 -3.81815e-21)
(0.465649 0.322606 0)
(0.5363 0.365701 -3.74152e-21)
(0.515322 0.34237 4.06087e-21)
(0.418097 -0.339867 3.91309e-21)
(0.806306 -0.0662231 0)