/*--------------------------------*- C++ -*----------------------------------*\
  =========                 |
  \\      /  F ield         | OpenFOAM: The Open Source CFD Toolbox
   \\    /   O peration     | Website:  https://openfoam.org
    \\  /    A nd           | Version:  6
     \\/     M anipulation  |
\*---------------------------------------------------------------------------*/
FoamFile
{
    version     2.0;
    format      ascii;
    class       volScalarField;
    location    "./ITHACAoutput/Offline/1";
    object      nutRec;
}
// * * * * * * * * * * * * * * * * * * * * * * * * * * * * * * * * * * * * * //

dimensions      [0 2 -1 0 0 0 0];

internalField   nonuniform List<scalar> 
115600
(
8.15649e-10
2.33996e-10
2.04697e-10
1.94632e-10
1.84238e-10
1.70805e-10
1.56393e-10
1.42683e-10
1.3097e-10
1.20672e-10
1.11672e-10
1.03849e-10
9.70704e-11
9.12038e-11
8.61249e-11
8.17243e-11
7.79088e-11
7.46006e-11
7.17349e-11
6.92577e-11
6.7124e-11
6.52958e-11
6.37402e-11
6.24291e-11
6.13377e-11
6.04441e-11
5.9729e-11
5.91751e-11
5.87672e-11
5.84914e-11
5.83359e-11
5.82987e-11
5.84473e-11
5.87163e-11
5.90809e-11
5.95264e-11
6.00411e-11
6.06148e-11
6.12388e-11
6.19052e-11
6.26076e-11
6.33404e-11
6.40999e-11
6.48835e-11
6.56917e-11
6.65283e-11
6.74029e-11
6.83351e-11
6.93578e-11
7.05424e-11
7.19961e-11
7.40512e-11
7.71938e-11
8.4141e-11
1.04321e-10
2.15495e-10
5.19262e-08
2.85952e-08
2.54206e-08
2.41406e-08
2.25982e-08
2.05478e-08
1.83199e-08
1.62042e-08
1.44022e-08
1.28741e-08
1.15862e-08
1.05045e-08
9.59709e-09
8.8349e-09
8.19281e-09
7.65002e-09
7.18966e-09
6.79825e-09
6.46498e-09
6.1812e-09
5.93996e-09
5.73559e-09
5.56342e-09
5.41957e-09
5.30073e-09
5.20409e-09
5.1272e-09
5.06796e-09
5.02453e-09
4.99528e-09
4.97885e-09
4.97479e-09
4.98834e-09
5.01474e-09
5.05147e-09
5.09693e-09
5.14991e-09
5.20935e-09
5.27429e-09
5.34387e-09
5.41734e-09
5.49404e-09
5.5734e-09
5.65503e-09
5.73872e-09
5.8246e-09
5.91328e-09
6.00619e-09
6.10608e-09
6.2187e-09
6.35412e-09
6.53844e-09
6.82223e-09
7.40445e-09
9.03871e-09
1.42551e-08
2.69845e-07
2.6344e-07
2.65872e-07
2.63293e-07
2.53287e-07
2.37187e-07
2.18001e-07
1.98234e-07
1.79592e-07
1.62865e-07
1.48064e-07
1.35108e-07
1.23854e-07
1.1412e-07
1.05722e-07
9.84839e-08
9.22514e-08
8.68896e-08
8.22835e-08
7.83363e-08
7.49663e-08
7.21043e-08
6.96919e-08
6.76783e-08
6.60197e-08
6.46777e-08
6.36183e-08
6.28114e-08
6.22304e-08
6.18521e-08
6.16563e-08
6.1634e-08
6.18225e-08
6.21833e-08
6.26876e-08
6.33135e-08
6.40428e-08
6.48591e-08
6.5747e-08
6.66918e-08
6.76796e-08
6.86975e-08
6.97329e-08
7.07744e-08
7.18122e-08
7.28387e-08
7.385e-08
7.48487e-08
7.58485e-08
7.68846e-08
7.80358e-08
7.9482e-08
8.1671e-08
8.58083e-08
9.70021e-08
1.19354e-07
5.4083e-07
6.57464e-07
7.09772e-07
7.21427e-07
7.08566e-07
6.80574e-07
6.44695e-07
6.06116e-07
5.68343e-07
5.33092e-07
5.00998e-07
4.72123e-07
4.46376e-07
4.23539e-07
4.03345e-07
3.8553e-07
3.69844e-07
3.56066e-07
3.44e-07
3.33478e-07
3.24357e-07
3.16513e-07
3.09836e-07
3.04229e-07
2.99604e-07
2.95878e-07
2.92972e-07
2.90811e-07
2.89324e-07
2.88447e-07
2.88118e-07
2.88303e-07
2.8903e-07
2.90225e-07
2.91819e-07
2.93746e-07
2.95945e-07
2.98361e-07
3.00938e-07
3.03621e-07
3.0636e-07
3.09103e-07
3.11799e-07
3.14402e-07
3.16864e-07
3.19141e-07
3.21194e-07
3.22989e-07
3.24509e-07
3.25767e-07
3.26848e-07
3.27975e-07
3.29832e-07
3.34106e-07
3.48628e-07
3.79904e-07
7.4821e-07
1.01456e-06
1.15834e-06
1.21479e-06
1.22013e-06
1.19555e-06
1.15434e-06
1.10524e-06
1.05409e-06
1.00434e-06
9.57733e-07
9.14923e-07
8.7614e-07
8.41309e-07
8.10219e-07
7.82602e-07
7.58173e-07
7.36654e-07
7.17784e-07
7.01327e-07
6.87075e-07
6.74845e-07
6.64473e-07
6.55812e-07
6.48725e-07
6.43082e-07
6.38758e-07
6.35634e-07
6.33594e-07
6.32529e-07
6.3234e-07
6.32954e-07
6.34355e-07
6.36453e-07
6.39153e-07
6.42356e-07
6.4597e-07
6.49903e-07
6.54066e-07
6.58371e-07
6.62731e-07
6.67059e-07
6.71272e-07
6.75287e-07
6.79021e-07
6.82393e-07
6.85327e-07
6.87752e-07
6.89614e-07
6.90894e-07
6.91649e-07
6.92142e-07
6.93086e-07
6.96762e-07
7.12324e-07
7.54276e-07
8.91841e-07
1.25784e-06
1.49756e-06
1.62059e-06
1.66824e-06
1.66964e-06
1.64333e-06
1.60132e-06
1.55149e-06
1.49921e-06
1.44744e-06
1.39803e-06
1.35185e-06
1.30928e-06
1.27045e-06
1.23533e-06
1.20382e-06
1.17573e-06
1.15086e-06
1.12903e-06
1.11002e-06
1.09364e-06
1.07974e-06
1.06814e-06
1.05867e-06
1.05118e-06
1.04552e-06
1.04153e-06
1.03904e-06
1.03794e-06
1.03806e-06
1.03932e-06
1.04162e-06
1.04487e-06
1.04896e-06
1.05376e-06
1.05916e-06
1.06503e-06
1.07126e-06
1.07771e-06
1.08427e-06
1.09084e-06
1.09728e-06
1.1035e-06
1.10938e-06
1.11481e-06
1.11971e-06
1.12397e-06
1.12754e-06
1.13039e-06
1.13262e-06
1.13458e-06
1.13719e-06
1.14327e-06
1.16381e-06
1.21622e-06
1.00167e-06
1.38815e-06
1.6951e-06
1.88377e-06
1.98456e-06
2.02696e-06
2.03182e-06
2.01312e-06
1.98026e-06
1.93972e-06
1.89584e-06
1.85107e-06
1.80727e-06
1.76536e-06
1.72597e-06
1.68946e-06
1.65602e-06
1.62569e-06
1.59847e-06
1.5743e-06
1.55307e-06
1.53467e-06
1.51901e-06
1.50594e-06
1.49534e-06
1.48706e-06
1.48096e-06
1.47687e-06
1.47464e-06
1.4741e-06
1.47511e-06
1.47753e-06
1.48123e-06
1.4861e-06
1.49203e-06
1.4989e-06
1.50655e-06
1.51486e-06
1.52368e-06
1.53286e-06
1.54227e-06
1.55177e-06
1.56121e-06
1.57048e-06
1.57946e-06
1.58802e-06
1.59605e-06
1.60348e-06
1.61025e-06
1.61638e-06
1.62203e-06
1.62764e-06
1.63443e-06
1.64537e-06
1.67317e-06
1.73263e-06
1.10986e-06
1.43524e-06
1.76474e-06
2.00235e-06
2.15447e-06
2.24313e-06
2.2877e-06
2.30244e-06
2.29742e-06
2.27971e-06
2.25433e-06
2.22459e-06
2.19268e-06
2.16021e-06
2.12829e-06
2.09767e-06
2.06888e-06
2.04223e-06
2.01791e-06
1.99607e-06
1.97674e-06
1.95995e-06
1.94571e-06
1.93398e-06
1.92468e-06
1.91775e-06
1.91307e-06
1.91054e-06
1.90999e-06
1.91132e-06
1.91435e-06
1.91898e-06
1.925e-06
1.93235e-06
1.94092e-06
1.95056e-06
1.96116e-06
1.97256e-06
1.98462e-06
1.99717e-06
2.01009e-06
2.0232e-06
2.03638e-06
2.04948e-06
2.06238e-06
2.07496e-06
2.08711e-06
2.09877e-06
2.10992e-06
2.12059e-06
2.13103e-06
2.14174e-06
2.15419e-06
2.17103e-06
2.20599e-06
2.26872e-06
1.24352e-06
1.43631e-06
1.73545e-06
1.99405e-06
2.18644e-06
2.31924e-06
2.40598e-06
2.45901e-06
2.48794e-06
2.49998e-06
2.5004e-06
2.49301e-06
2.48026e-06
2.46433e-06
2.44674e-06
2.42857e-06
2.41062e-06
2.39345e-06
2.37746e-06
2.36296e-06
2.35016e-06
2.33922e-06
2.33025e-06
2.32334e-06
2.31852e-06
2.31579e-06
2.31512e-06
2.31644e-06
2.31968e-06
2.32473e-06
2.33148e-06
2.33982e-06
2.34958e-06
2.36067e-06
2.37301e-06
2.38648e-06
2.40097e-06
2.41635e-06
2.43246e-06
2.44917e-06
2.46632e-06
2.48377e-06
2.50137e-06
2.51899e-06
2.53651e-06
2.5538e-06
2.57079e-06
2.58741e-06
2.60367e-06
2.61962e-06
2.63556e-06
2.65197e-06
2.67045e-06
2.69302e-06
2.73355e-06
2.79653e-06
1.42018e-06
1.42926e-06
1.64507e-06
1.88668e-06
2.09884e-06
2.26684e-06
2.39317e-06
2.4853e-06
2.55085e-06
2.59632e-06
2.62688e-06
2.64645e-06
2.6579e-06
2.66367e-06
2.66557e-06
2.66499e-06
2.66293e-06
2.66013e-06
2.6572e-06
2.65456e-06
2.65258e-06
2.65154e-06
2.65168e-06
2.65317e-06
2.65614e-06
2.6607e-06
2.66689e-06
2.67471e-06
2.68414e-06
2.69514e-06
2.70764e-06
2.72157e-06
2.73677e-06
2.75318e-06
2.77074e-06
2.78937e-06
2.80896e-06
2.82941e-06
2.85059e-06
2.87238e-06
2.89463e-06
2.9172e-06
2.93996e-06
2.96279e-06
2.98556e-06
3.00818e-06
3.03055e-06
3.05264e-06
3.07444e-06
3.09605e-06
3.11773e-06
3.13991e-06
3.16415e-06
3.19169e-06
3.23582e-06
3.29693e-06
1.64885e-06
1.44717e-06
1.53868e-06
1.71961e-06
1.92014e-06
2.10528e-06
2.26232e-06
2.38998e-06
2.49153e-06
2.57146e-06
2.63419e-06
2.68345e-06
2.72233e-06
2.75334e-06
2.77849e-06
2.79929e-06
2.81694e-06
2.83235e-06
2.84624e-06
2.85918e-06
2.87165e-06
2.88404e-06
2.89667e-06
2.90982e-06
2.92371e-06
2.9385e-06
2.95433e-06
2.97127e-06
2.98937e-06
3.00863e-06
3.02905e-06
3.05056e-06
3.07309e-06
3.09658e-06
3.12099e-06
3.14627e-06
3.17236e-06
3.19917e-06
3.2266e-06
3.25453e-06
3.28286e-06
3.31145e-06
3.34019e-06
3.36896e-06
3.39765e-06
3.42617e-06
3.45445e-06
3.48242e-06
3.5101e-06
3.53756e-06
3.56503e-06
3.59282e-06
3.62232e-06
3.65393e-06
3.69988e-06
3.75777e-06
1.93937e-06
1.51645e-06
1.46333e-06
1.54529e-06
1.6943e-06
1.86667e-06
2.0357e-06
2.18825e-06
2.32034e-06
2.43247e-06
2.52711e-06
2.60713e-06
2.67523e-06
2.73374e-06
2.78464e-06
2.82951e-06
2.86967e-06
2.90614e-06
2.93975e-06
2.97118e-06
3.001e-06
3.02969e-06
3.05765e-06
3.08523e-06
3.11273e-06
3.14038e-06
3.16838e-06
3.19687e-06
3.22595e-06
3.25568e-06
3.28611e-06
3.31723e-06
3.34896e-06
3.38131e-06
3.41425e-06
3.44778e-06
3.48184e-06
3.51637e-06
3.55132e-06
3.58657e-06
3.62205e-06
3.65766e-06
3.69327e-06
3.72879e-06
3.76412e-06
3.79918e-06
3.83388e-06
3.86818e-06
3.90206e-06
3.93554e-06
3.96883e-06
4.00204e-06
4.03631e-06
4.07121e-06
4.11763e-06
4.17154e-06
2.31268e-06
1.66107e-06
1.46097e-06
1.42315e-06
1.4835e-06
1.60372e-06
1.75271e-06
1.90803e-06
2.05686e-06
2.19348e-06
2.31618e-06
2.42541e-06
2.52254e-06
2.60921e-06
2.68707e-06
2.75761e-06
2.82209e-06
2.88159e-06
2.937e-06
2.98908e-06
3.03846e-06
3.08568e-06
3.13121e-06
3.17547e-06
3.2188e-06
3.26151e-06
3.30384e-06
3.34598e-06
3.3881e-06
3.43028e-06
3.47264e-06
3.51521e-06
3.55794e-06
3.60086e-06
3.64397e-06
3.68729e-06
3.73078e-06
3.77443e-06
3.81818e-06
3.86198e-06
3.90574e-06
3.94939e-06
3.99283e-06
4.03596e-06
4.07871e-06
4.12098e-06
4.1627e-06
4.2038e-06
4.24423e-06
4.28398e-06
4.32315e-06
4.36166e-06
4.40036e-06
4.43801e-06
4.48404e-06
4.5337e-06
2.80233e-06
1.91054e-06
1.5678e-06
1.40799e-06
1.35953e-06
1.3917e-06
1.47979e-06
1.60241e-06
1.74169e-06
1.88481e-06
2.02397e-06
2.15524e-06
2.2772e-06
2.3898e-06
2.49369e-06
2.58979e-06
2.67906e-06
2.76246e-06
2.84081e-06
2.91485e-06
2.98525e-06
3.05256e-06
3.1173e-06
3.17992e-06
3.2408e-06
3.30029e-06
3.35868e-06
3.4162e-06
3.47305e-06
3.52939e-06
3.58532e-06
3.64094e-06
3.69626e-06
3.75129e-06
3.80607e-06
3.8606e-06
3.91492e-06
3.969e-06
4.02282e-06
4.07633e-06
4.12948e-06
4.1822e-06
4.23443e-06
4.28606e-06
4.33703e-06
4.38723e-06
4.43659e-06
4.48502e-06
4.53243e-06
4.57875e-06
4.62396e-06
4.6678e-06
4.71074e-06
4.75085e-06
4.7961e-06
4.84166e-06
3.45823e-06
2.3154e-06
1.82945e-06
1.55114e-06
1.39007e-06
1.31579e-06
1.31091e-06
1.3611e-06
1.45149e-06
1.56776e-06
1.69789e-06
1.83296e-06
1.96719e-06
2.09729e-06
2.22168e-06
2.33982e-06
2.45178e-06
2.55792e-06
2.65873e-06
2.75477e-06
2.84655e-06
2.93459e-06
3.01936e-06
3.10131e-06
3.18082e-06
3.25825e-06
3.33391e-06
3.40806e-06
3.48094e-06
3.5527e-06
3.62351e-06
3.69348e-06
3.76268e-06
3.83111e-06
3.89882e-06
3.96582e-06
4.03216e-06
4.09783e-06
4.16284e-06
4.22715e-06
4.29072e-06
4.3535e-06
4.41542e-06
4.47641e-06
4.53637e-06
4.59523e-06
4.65287e-06
4.70918e-06
4.76404e-06
4.8173e-06
4.86881e-06
4.91811e-06
4.96531e-06
5.00788e-06
5.05234e-06
5.09431e-06
4.38446e-06
2.97832e-06
2.3318e-06
1.92678e-06
1.64825e-06
1.45937e-06
1.34474e-06
1.29421e-06
1.29796e-06
1.34571e-06
1.42696e-06
1.53165e-06
1.65102e-06
1.77811e-06
1.90796e-06
2.03732e-06
2.16424e-06
2.28767e-06
2.40714e-06
2.52255e-06
2.63399e-06
2.74169e-06
2.8459e-06
2.94696e-06
3.04517e-06
3.14081e-06
3.2342e-06
3.32557e-06
3.41514e-06
3.50309e-06
3.58958e-06
3.67475e-06
3.75869e-06
3.84144e-06
3.92301e-06
4.00343e-06
4.08274e-06
4.16094e-06
4.23805e-06
4.31405e-06
4.3889e-06
4.46258e-06
4.535e-06
4.60609e-06
4.67578e-06
4.74394e-06
4.81047e-06
4.87521e-06
4.93801e-06
4.99861e-06
5.05675e-06
5.11175e-06
5.16339e-06
5.20864e-06
5.2527e-06
5.29195e-06
5.73311e-06
4.05275e-06
3.20797e-06
2.64952e-06
2.23615e-06
1.91895e-06
1.67908e-06
1.50804e-06
1.39898e-06
1.34474e-06
1.33773e-06
1.3701e-06
1.43402e-06
1.52194e-06
1.62701e-06
1.74339e-06
1.86648e-06
1.99284e-06
2.1201e-06
2.24668e-06
2.37161e-06
2.49433e-06
2.61453e-06
2.73213e-06
2.84716e-06
2.95969e-06
3.06986e-06
3.17784e-06
3.28375e-06
3.38774e-06
3.48993e-06
3.59044e-06
3.68935e-06
3.78674e-06
3.88261e-06
3.97694e-06
4.06974e-06
4.16103e-06
4.25082e-06
4.33911e-06
4.42585e-06
4.511e-06
4.59451e-06
4.67629e-06
4.75624e-06
4.83425e-06
4.91017e-06
4.98382e-06
5.05498e-06
5.12331e-06
5.18842e-06
5.24947e-06
5.30586e-06
5.35422e-06
5.3986e-06
5.43631e-06
7.47848e-06
5.60043e-06
4.54255e-06
3.8108e-06
3.24851e-06
2.79166e-06
2.4149e-06
2.10816e-06
1.86638e-06
1.68541e-06
1.56044e-06
1.48582e-06
1.45543e-06
1.46301e-06
1.5024e-06
1.56765e-06
1.65316e-06
1.75387e-06
1.86543e-06
1.98428e-06
2.10765e-06
2.23348e-06
2.36028e-06
2.48702e-06
2.613e-06
2.73777e-06
2.86107e-06
2.98272e-06
3.10268e-06
3.22089e-06
3.33735e-06
3.45209e-06
3.56512e-06
3.67646e-06
3.78614e-06
3.89407e-06
4.00021e-06
4.10453e-06
4.20703e-06
4.30768e-06
4.40645e-06
4.50328e-06
4.5981e-06
4.69082e-06
4.78131e-06
4.86946e-06
4.95507e-06
5.03792e-06
5.11774e-06
5.19412e-06
5.26652e-06
5.33394e-06
5.39551e-06
5.4476e-06
5.49329e-06
5.53094e-06
9.22373e-06
7.40703e-06
6.22076e-06
5.351e-06
4.66138e-06
4.08258e-06
3.58429e-06
3.1523e-06
2.78041e-06
2.46608e-06
2.20781e-06
2.00365e-06
1.85067e-06
1.74497e-06
1.68198e-06
1.65687e-06
1.66471e-06
1.70066e-06
1.76005e-06
1.83848e-06
1.93191e-06
2.0368e-06
2.15012e-06
2.26943e-06
2.39278e-06
2.51867e-06
2.64596e-06
2.77383e-06
2.90166e-06
3.02899e-06
3.1555e-06
3.28095e-06
3.40517e-06
3.52801e-06
3.64938e-06
3.76919e-06
3.88727e-06
4.00346e-06
4.11771e-06
4.22996e-06
4.34012e-06
4.44812e-06
4.55386e-06
4.65722e-06
4.75805e-06
4.85618e-06
4.95141e-06
5.04345e-06
5.13197e-06
5.21649e-06
5.29637e-06
5.37044e-06
5.43761e-06
5.49415e-06
5.54241e-06
5.58179e-06
1.0551e-05
9.09209e-06
7.95341e-06
7.04677e-06
6.29638e-06
5.64815e-06
5.07485e-06
4.56085e-06
4.09775e-06
3.68175e-06
3.3117e-06
2.98776e-06
2.71027e-06
2.4791e-06
2.2933e-06
2.15096e-06
2.0494e-06
1.98533e-06
1.95514e-06
1.95504e-06
1.98119e-06
2.02982e-06
2.09733e-06
2.18034e-06
2.27581e-06
2.38105e-06
2.4938e-06
2.61216e-06
2.73458e-06
2.85983e-06
2.9869e-06
3.11503e-06
3.2436e-06
3.37212e-06
3.5002e-06
3.62752e-06
3.75382e-06
3.87875e-06
4.00206e-06
4.12357e-06
4.24314e-06
4.36059e-06
4.47578e-06
4.58852e-06
4.69861e-06
4.80585e-06
4.90995e-06
5.01059e-06
5.10738e-06
5.19975e-06
5.28696e-06
5.36776e-06
5.44088e-06
5.50262e-06
5.55487e-06
5.59802e-06
1.13765e-05
1.03995e-05
9.47086e-06
8.64877e-06
7.92598e-06
7.27796e-06
6.68926e-06
6.14861e-06
5.64845e-06
5.18423e-06
4.75378e-06
4.35656e-06
3.99318e-06
3.66481e-06
3.37281e-06
3.11829e-06
2.90182e-06
2.72332e-06
2.58193e-06
2.47609e-06
2.40371e-06
2.36222e-06
2.34879e-06
2.36045e-06
2.39414e-06
2.44689e-06
2.51583e-06
2.59829e-06
2.69188e-06
2.79444e-06
2.90412e-06
3.01934e-06
3.13875e-06
3.26123e-06
3.38587e-06
3.51189e-06
3.63866e-06
3.76561e-06
3.89216e-06
4.01789e-06
4.14246e-06
4.26553e-06
4.38682e-06
4.50602e-06
4.62286e-06
4.737e-06
4.8481e-06
4.95578e-06
5.05953e-06
5.15873e-06
5.25257e-06
5.33971e-06
5.41883e-06
5.4864e-06
5.54411e-06
5.59323e-06
1.18302e-05
1.12874e-05
1.0643e-05
9.99475e-06
9.37793e-06
8.7963e-06
8.24901e-06
7.73301e-06
7.2448e-06
6.78154e-06
6.34125e-06
5.923e-06
5.52664e-06
5.15279e-06
4.80261e-06
4.47762e-06
4.17952e-06
3.91e-06
3.67052e-06
3.46212e-06
3.28536e-06
3.14018e-06
3.02594e-06
2.94147e-06
2.88513e-06
2.85495e-06
2.84868e-06
2.86398e-06
2.8984e-06
2.94958e-06
3.01519e-06
3.09307e-06
3.18125e-06
3.27792e-06
3.3815e-06
3.49058e-06
3.60395e-06
3.72059e-06
3.83953e-06
3.95994e-06
4.08113e-06
4.20246e-06
4.32338e-06
4.44337e-06
4.56194e-06
4.67863e-06
4.79296e-06
4.9044e-06
5.01237e-06
5.11615e-06
5.21486e-06
5.30714e-06
5.39169e-06
5.46528e-06
5.52973e-06
5.58701e-06
1.20646e-05
1.18387e-05
1.14689e-05
1.10295e-05
1.05661e-05
1.00987e-05
9.63731e-06
9.18688e-06
8.74912e-06
8.32432e-06
7.91224e-06
7.51263e-06
7.12543e-06
6.7509e-06
6.38968e-06
6.04271e-06
5.71131e-06
5.397e-06
5.10152e-06
4.82664e-06
4.57414e-06
4.34558e-06
4.14226e-06
3.96509e-06
3.81455e-06
3.69064e-06
3.59287e-06
3.52038e-06
3.47189e-06
3.44587e-06
3.44059e-06
3.45415e-06
3.48463e-06
3.53009e-06
3.58864e-06
3.65848e-06
3.73794e-06
3.82547e-06
3.91965e-06
4.01926e-06
4.12319e-06
4.23038e-06
4.33988e-06
4.45084e-06
4.56247e-06
4.67404e-06
4.78486e-06
4.8942e-06
5.00133e-06
5.10543e-06
5.20553e-06
5.30031e-06
5.38857e-06
5.46749e-06
5.5393e-06
5.60646e-06
1.21849e-05
1.21643e-05
1.20151e-05
1.17741e-05
1.14773e-05
1.11471e-05
1.07982e-05
1.04408e-05
1.00804e-05
9.72052e-06
9.36303e-06
9.00906e-06
8.65933e-06
8.31443e-06
7.97495e-06
7.64158e-06
7.31521e-06
6.99688e-06
6.68787e-06
6.3896e-06
6.10369e-06
5.8318e-06
5.57568e-06
5.33702e-06
5.11736e-06
4.91809e-06
4.74028e-06
4.5847e-06
4.45174e-06
4.34142e-06
4.25339e-06
4.18698e-06
4.14123e-06
4.11492e-06
4.10669e-06
4.11505e-06
4.13842e-06
4.17522e-06
4.22385e-06
4.28283e-06
4.35089e-06
4.42668e-06
4.50889e-06
4.59634e-06
4.68792e-06
4.78257e-06
4.87932e-06
4.97722e-06
5.07533e-06
5.17267e-06
5.26822e-06
5.36069e-06
5.44908e-06
5.53107e-06
5.60953e-06
5.68714e-06
1.22504e-05
1.23545e-05
1.23639e-05
1.22866e-05
1.2143e-05
1.19506e-05
1.17229e-05
1.14712e-05
1.12031e-05
1.09241e-05
1.06379e-05
1.03467e-05
1.00524e-05
9.75611e-06
9.45885e-06
9.1614e-06
8.86458e-06
8.56922e-06
8.27624e-06
7.98668e-06
7.70172e-06
7.42267e-06
7.15096e-06
6.88811e-06
6.6357e-06
6.39535e-06
6.1686e-06
5.95695e-06
5.76172e-06
5.58404e-06
5.42481e-06
5.28462e-06
5.16379e-06
5.06234e-06
4.97999e-06
4.91623e-06
4.87029e-06
4.84123e-06
4.82788e-06
4.82897e-06
4.84342e-06
4.87006e-06
4.90763e-06
4.95487e-06
5.01055e-06
5.07347e-06
5.14245e-06
5.21637e-06
5.29414e-06
5.37467e-06
5.4569e-06
5.53964e-06
5.62217e-06
5.70271e-06
5.78491e-06
5.87142e-06
1.22906e-05
1.24692e-05
1.25853e-05
1.26313e-05
1.26146e-05
1.25451e-05
1.24324e-05
1.22863e-05
1.21145e-05
1.19227e-05
1.17156e-05
1.14963e-05
1.12674e-05
1.10306e-05
1.07874e-05
1.0539e-05
1.02861e-05
1.00297e-05
9.77062e-06
9.50968e-06
9.2478e-06
8.98596e-06
8.72524e-06
8.46681e-06
8.21194e-06
7.96199e-06
7.71837e-06
7.48254e-06
7.25595e-06
7.04005e-06
6.83618e-06
6.64561e-06
6.46941e-06
6.3085e-06
6.16358e-06
6.03512e-06
5.92336e-06
5.82831e-06
5.74977e-06
5.68704e-06
5.63951e-06
5.60664e-06
5.58776e-06
5.58201e-06
5.58846e-06
5.60613e-06
5.63399e-06
5.671e-06
5.71612e-06
5.76834e-06
5.82674e-06
5.89034e-06
5.95882e-06
6.03104e-06
6.11139e-06
6.2024e-06
1.2319e-05
1.2543e-05
1.27288e-05
1.28626e-05
1.29435e-05
1.29751e-05
1.29627e-05
1.29131e-05
1.28324e-05
1.27262e-05
1.25988e-05
1.24537e-05
1.22937e-05
1.21211e-05
1.19376e-05
1.17446e-05
1.15431e-05
1.13343e-05
1.11188e-05
1.08976e-05
1.06716e-05
1.04413e-05
1.02078e-05
9.97193e-06
9.73465e-06
9.49703e-06
9.26021e-06
9.02538e-06
8.7938e-06
8.56678e-06
8.34563e-06
8.1317e-06
7.92625e-06
7.73054e-06
7.54568e-06
7.37272e-06
7.21255e-06
7.06594e-06
6.93352e-06
6.81528e-06
6.71105e-06
6.62106e-06
6.54539e-06
6.48396e-06
6.43648e-06
6.40254e-06
6.38165e-06
6.37319e-06
6.37657e-06
6.39113e-06
6.41636e-06
6.45174e-06
6.49752e-06
6.55329e-06
6.62414e-06
6.71247e-06
1.23413e-05
1.25947e-05
1.28259e-05
1.30201e-05
1.31727e-05
1.32829e-05
1.33524e-05
1.33851e-05
1.33854e-05
1.33572e-05
1.33046e-05
1.32306e-05
1.31382e-05
1.30294e-05
1.29063e-05
1.27703e-05
1.26228e-05
1.24649e-05
1.22974e-05
1.21213e-05
1.19373e-05
1.17461e-05
1.15486e-05
1.13454e-05
1.11374e-05
1.09254e-05
1.07102e-05
1.04929e-05
1.02744e-05
1.00558e-05
9.8382e-06
9.62282e-06
9.41082e-06
9.20339e-06
9.00174e-06
8.80703e-06
8.6204e-06
8.44292e-06
8.27583e-06
8.11934e-06
7.97372e-06
7.8397e-06
7.71801e-06
7.60919e-06
7.51366e-06
7.4317e-06
7.3635e-06
7.30912e-06
7.26861e-06
7.24196e-06
7.22932e-06
7.23083e-06
7.24749e-06
7.27971e-06
7.33317e-06
7.41043e-06
1.23598e-05
1.26334e-05
1.28945e-05
1.313e-05
1.33337e-05
1.35026e-05
1.36362e-05
1.37358e-05
1.38039e-05
1.38433e-05
1.3857e-05
1.38476e-05
1.38175e-05
1.37687e-05
1.37032e-05
1.36225e-05
1.35279e-05
1.34205e-05
1.33015e-05
1.31715e-05
1.30316e-05
1.28824e-05
1.27246e-05
1.25588e-05
1.23858e-05
1.22063e-05
1.2021e-05
1.18306e-05
1.1636e-05
1.1438e-05
1.12376e-05
1.10356e-05
1.08331e-05
1.06312e-05
1.04309e-05
1.02332e-05
1.00394e-05
9.8506e-06
9.66807e-06
9.4921e-06
9.32326e-06
9.16256e-06
9.011e-06
8.86951e-06
8.73898e-06
8.6202e-06
8.51395e-06
8.42092e-06
8.34181e-06
8.27731e-06
8.22825e-06
8.19556e-06
8.18096e-06
8.18569e-06
8.21592e-06
8.27465e-06
1.23751e-05
1.26631e-05
1.29446e-05
1.3208e-05
1.34475e-05
1.3659e-05
1.38409e-05
1.39927e-05
1.41156e-05
1.42111e-05
1.42811e-05
1.43277e-05
1.43526e-05
1.43578e-05
1.43447e-05
1.43149e-05
1.42697e-05
1.42101e-05
1.41373e-05
1.4052e-05
1.39552e-05
1.38476e-05
1.37298e-05
1.36025e-05
1.34664e-05
1.3322e-05
1.317e-05
1.30111e-05
1.28459e-05
1.26751e-05
1.24995e-05
1.23197e-05
1.21368e-05
1.19514e-05
1.17645e-05
1.15771e-05
1.13902e-05
1.1205e-05
1.10223e-05
1.08426e-05
1.06665e-05
1.04952e-05
1.03298e-05
1.01712e-05
1.00206e-05
9.87904e-06
9.74761e-06
9.62745e-06
9.5197e-06
9.4256e-06
9.34652e-06
9.28402e-06
9.24045e-06
9.21765e-06
9.22212e-06
9.25763e-06
1.23873e-05
1.26857e-05
1.2981e-05
1.32632e-05
1.35273e-05
1.37691e-05
1.39862e-05
1.41776e-05
1.43431e-05
1.44835e-05
1.45996e-05
1.46929e-05
1.47648e-05
1.48165e-05
1.48494e-05
1.48649e-05
1.4864e-05
1.48478e-05
1.48173e-05
1.47734e-05
1.47168e-05
1.46484e-05
1.45688e-05
1.44786e-05
1.43786e-05
1.42692e-05
1.41511e-05
1.40247e-05
1.38908e-05
1.37498e-05
1.36024e-05
1.34492e-05
1.3291e-05
1.31284e-05
1.29621e-05
1.2793e-05
1.26221e-05
1.24501e-05
1.22777e-05
1.21055e-05
1.19342e-05
1.17649e-05
1.15984e-05
1.14358e-05
1.12783e-05
1.11269e-05
1.0983e-05
1.08477e-05
1.07224e-05
1.06087e-05
1.05083e-05
1.04231e-05
1.03557e-05
1.03084e-05
1.02878e-05
1.02986e-05
1.23964e-05
1.27018e-05
1.3006e-05
1.33006e-05
1.3581e-05
1.38435e-05
1.40856e-05
1.43059e-05
1.45036e-05
1.46785e-05
1.48312e-05
1.49624e-05
1.50727e-05
1.51634e-05
1.52354e-05
1.52897e-05
1.53272e-05
1.53491e-05
1.53561e-05
1.53491e-05
1.53289e-05
1.52961e-05
1.52516e-05
1.51958e-05
1.51295e-05
1.50531e-05
1.49672e-05
1.48724e-05
1.47691e-05
1.4658e-05
1.45395e-05
1.44142e-05
1.42826e-05
1.41454e-05
1.40032e-05
1.38566e-05
1.37064e-05
1.35533e-05
1.33976e-05
1.32401e-05
1.30814e-05
1.29224e-05
1.2764e-05
1.26069e-05
1.24524e-05
1.23014e-05
1.21551e-05
1.20149e-05
1.1882e-05
1.17581e-05
1.1645e-05
1.15447e-05
1.14598e-05
1.13927e-05
1.13499e-05
1.1337e-05
1.24024e-05
1.27115e-05
1.30206e-05
1.33223e-05
1.36129e-05
1.38887e-05
1.41476e-05
1.43881e-05
1.46089e-05
1.48096e-05
1.49901e-05
1.51507e-05
1.52917e-05
1.54139e-05
1.55179e-05
1.56046e-05
1.56746e-05
1.57289e-05
1.57682e-05
1.57933e-05
1.58048e-05
1.58036e-05
1.57902e-05
1.57652e-05
1.57293e-05
1.56829e-05
1.56267e-05
1.55611e-05
1.54867e-05
1.54038e-05
1.53131e-05
1.52149e-05
1.51098e-05
1.49983e-05
1.48808e-05
1.47582e-05
1.46307e-05
1.44989e-05
1.43632e-05
1.42242e-05
1.40825e-05
1.39389e-05
1.3794e-05
1.36487e-05
1.35038e-05
1.33602e-05
1.3219e-05
1.30813e-05
1.29485e-05
1.2822e-05
1.27035e-05
1.25947e-05
1.24983e-05
1.24166e-05
1.23555e-05
1.23217e-05
1.24053e-05
1.27148e-05
1.30252e-05
1.33299e-05
1.36252e-05
1.39084e-05
1.41774e-05
1.44307e-05
1.46671e-05
1.48858e-05
1.50864e-05
1.52689e-05
1.54333e-05
1.558e-05
1.57095e-05
1.58222e-05
1.59187e-05
1.59998e-05
1.60662e-05
1.61184e-05
1.6157e-05
1.61828e-05
1.61964e-05
1.61984e-05
1.61893e-05
1.61696e-05
1.61399e-05
1.61006e-05
1.60522e-05
1.59952e-05
1.59301e-05
1.58572e-05
1.5777e-05
1.569e-05
1.55966e-05
1.54973e-05
1.53925e-05
1.52825e-05
1.51677e-05
1.50488e-05
1.49261e-05
1.48004e-05
1.4672e-05
1.45418e-05
1.44103e-05
1.42784e-05
1.4147e-05
1.40169e-05
1.38894e-05
1.37657e-05
1.36471e-05
1.35353e-05
1.34325e-05
1.33408e-05
1.32656e-05
1.32145e-05
1.24049e-05
1.27117e-05
1.30199e-05
1.33233e-05
1.36191e-05
1.39046e-05
1.4178e-05
1.44379e-05
1.46832e-05
1.49131e-05
1.5127e-05
1.53245e-05
1.55056e-05
1.56704e-05
1.5819e-05
1.59518e-05
1.60693e-05
1.61719e-05
1.62601e-05
1.63346e-05
1.63958e-05
1.64444e-05
1.64809e-05
1.65058e-05
1.65198e-05
1.65232e-05
1.65166e-05
1.65005e-05
1.64753e-05
1.64414e-05
1.63992e-05
1.63492e-05
1.62918e-05
1.62274e-05
1.61563e-05
1.60789e-05
1.59956e-05
1.59066e-05
1.58124e-05
1.57135e-05
1.56101e-05
1.55028e-05
1.5392e-05
1.52783e-05
1.5162e-05
1.50441e-05
1.4925e-05
1.48055e-05
1.46866e-05
1.45691e-05
1.44542e-05
1.43433e-05
1.42381e-05
1.41403e-05
1.4055e-05
1.39903e-05
1.24012e-05
1.2702e-05
1.30044e-05
1.3303e-05
1.35948e-05
1.38779e-05
1.41506e-05
1.44117e-05
1.46601e-05
1.48951e-05
1.5116e-05
1.53224e-05
1.55141e-05
1.56909e-05
1.58529e-05
1.60003e-05
1.61333e-05
1.62522e-05
1.63576e-05
1.64497e-05
1.65291e-05
1.65963e-05
1.66518e-05
1.6696e-05
1.67294e-05
1.67526e-05
1.67659e-05
1.67698e-05
1.67647e-05
1.6751e-05
1.67292e-05
1.66995e-05
1.66624e-05
1.66183e-05
1.65674e-05
1.651e-05
1.64465e-05
1.63772e-05
1.63024e-05
1.62224e-05
1.61377e-05
1.60483e-05
1.5955e-05
1.58578e-05
1.57574e-05
1.56541e-05
1.55484e-05
1.5441e-05
1.53323e-05
1.52231e-05
1.51144e-05
1.50069e-05
1.49022e-05
1.48017e-05
1.47096e-05
1.4635e-05
1.23942e-05
1.26857e-05
1.29787e-05
1.32684e-05
1.35524e-05
1.38287e-05
1.40959e-05
1.4353e-05
1.45992e-05
1.48337e-05
1.5056e-05
1.52656e-05
1.54621e-05
1.56453e-05
1.58153e-05
1.59719e-05
1.61154e-05
1.62459e-05
1.63638e-05
1.64692e-05
1.65627e-05
1.66446e-05
1.67153e-05
1.67753e-05
1.68248e-05
1.68645e-05
1.68946e-05
1.69156e-05
1.69278e-05
1.69316e-05
1.69275e-05
1.69157e-05
1.68965e-05
1.68704e-05
1.68375e-05
1.67982e-05
1.67527e-05
1.67014e-05
1.66444e-05
1.65821e-05
1.65146e-05
1.64424e-05
1.63656e-05
1.62845e-05
1.61994e-05
1.61107e-05
1.60187e-05
1.59236e-05
1.58261e-05
1.57263e-05
1.5625e-05
1.55229e-05
1.54209e-05
1.53201e-05
1.52244e-05
1.51433e-05
1.23838e-05
1.26626e-05
1.29426e-05
1.32195e-05
1.34914e-05
1.37565e-05
1.40137e-05
1.42621e-05
1.45009e-05
1.47297e-05
1.4948e-05
1.51553e-05
1.53513e-05
1.55358e-05
1.57085e-05
1.58695e-05
1.60186e-05
1.61561e-05
1.62821e-05
1.63968e-05
1.65004e-05
1.65933e-05
1.66758e-05
1.67481e-05
1.68107e-05
1.68638e-05
1.69078e-05
1.69432e-05
1.69702e-05
1.69891e-05
1.70003e-05
1.70041e-05
1.70007e-05
1.69905e-05
1.69736e-05
1.69505e-05
1.69213e-05
1.68861e-05
1.68454e-05
1.67993e-05
1.67479e-05
1.66915e-05
1.66303e-05
1.65643e-05
1.6494e-05
1.64193e-05
1.63407e-05
1.6258e-05
1.61717e-05
1.6082e-05
1.59891e-05
1.58935e-05
1.57959e-05
1.56971e-05
1.56006e-05
1.55161e-05
1.237e-05
1.26324e-05
1.28955e-05
1.31557e-05
1.34113e-05
1.36608e-05
1.39033e-05
1.41382e-05
1.43649e-05
1.4583e-05
1.47922e-05
1.49922e-05
1.51827e-05
1.53633e-05
1.55339e-05
1.56944e-05
1.58447e-05
1.59848e-05
1.61148e-05
1.62347e-05
1.63448e-05
1.64451e-05
1.6536e-05
1.66175e-05
1.66902e-05
1.6754e-05
1.68095e-05
1.68567e-05
1.68961e-05
1.69278e-05
1.69522e-05
1.69695e-05
1.698e-05
1.69839e-05
1.69814e-05
1.69728e-05
1.69582e-05
1.69379e-05
1.6912e-05
1.68807e-05
1.68442e-05
1.68025e-05
1.67558e-05
1.67042e-05
1.66478e-05
1.65867e-05
1.65209e-05
1.64505e-05
1.63756e-05
1.62962e-05
1.62124e-05
1.61244e-05
1.60327e-05
1.59381e-05
1.58435e-05
1.57588e-05
1.23524e-05
1.25946e-05
1.28368e-05
1.3076e-05
1.33109e-05
1.35403e-05
1.37636e-05
1.39803e-05
1.41901e-05
1.43928e-05
1.45882e-05
1.4776e-05
1.49561e-05
1.51282e-05
1.52921e-05
1.54477e-05
1.55948e-05
1.57333e-05
1.58633e-05
1.59847e-05
1.60976e-05
1.62021e-05
1.62981e-05
1.63861e-05
1.64659e-05
1.65379e-05
1.66023e-05
1.66592e-05
1.67088e-05
1.67513e-05
1.67871e-05
1.68161e-05
1.68388e-05
1.68552e-05
1.68656e-05
1.68701e-05
1.6869e-05
1.68622e-05
1.685e-05
1.68325e-05
1.68098e-05
1.67819e-05
1.6749e-05
1.6711e-05
1.66681e-05
1.662e-05
1.6567e-05
1.65088e-05
1.64455e-05
1.63769e-05
1.6303e-05
1.62238e-05
1.61398e-05
1.60515e-05
1.59617e-05
1.588e-05
1.23308e-05
1.25486e-05
1.27655e-05
1.29792e-05
1.31888e-05
1.33936e-05
1.35931e-05
1.37871e-05
1.39755e-05
1.41582e-05
1.43352e-05
1.45064e-05
1.46717e-05
1.48308e-05
1.49837e-05
1.51302e-05
1.527e-05
1.54031e-05
1.55293e-05
1.56486e-05
1.5761e-05
1.58663e-05
1.59647e-05
1.6056e-05
1.61405e-05
1.62183e-05
1.62892e-05
1.63536e-05
1.64115e-05
1.64631e-05
1.65085e-05
1.65478e-05
1.65813e-05
1.66089e-05
1.6631e-05
1.66475e-05
1.66587e-05
1.66646e-05
1.66652e-05
1.66608e-05
1.66512e-05
1.66367e-05
1.66171e-05
1.65924e-05
1.65626e-05
1.65276e-05
1.64874e-05
1.64417e-05
1.63904e-05
1.63333e-05
1.62705e-05
1.62017e-05
1.61275e-05
1.60481e-05
1.59664e-05
1.58916e-05
1.23047e-05
1.24934e-05
1.26803e-05
1.28638e-05
1.30434e-05
1.32189e-05
1.33901e-05
1.3557e-05
1.37197e-05
1.38783e-05
1.40329e-05
1.41834e-05
1.43299e-05
1.44722e-05
1.46102e-05
1.47437e-05
1.48725e-05
1.49966e-05
1.51156e-05
1.52295e-05
1.53381e-05
1.54413e-05
1.5539e-05
1.56312e-05
1.57179e-05
1.5799e-05
1.58744e-05
1.59443e-05
1.60088e-05
1.60677e-05
1.61213e-05
1.61695e-05
1.62125e-05
1.62503e-05
1.62831e-05
1.63108e-05
1.63336e-05
1.63515e-05
1.63644e-05
1.63726e-05
1.6376e-05
1.63745e-05
1.63681e-05
1.63568e-05
1.63404e-05
1.63188e-05
1.62918e-05
1.62594e-05
1.62212e-05
1.61771e-05
1.6127e-05
1.60707e-05
1.60088e-05
1.59418e-05
1.58721e-05
1.58083e-05
1.22733e-05
1.24276e-05
1.25793e-05
1.27276e-05
1.28726e-05
1.30144e-05
1.3153e-05
1.32889e-05
1.34222e-05
1.35531e-05
1.36818e-05
1.38083e-05
1.39328e-05
1.40549e-05
1.41747e-05
1.42921e-05
1.44068e-05
1.45186e-05
1.46274e-05
1.47328e-05
1.48348e-05
1.49331e-05
1.50276e-05
1.51182e-05
1.52046e-05
1.52869e-05
1.53649e-05
1.54385e-05
1.55077e-05
1.55726e-05
1.56329e-05
1.56889e-05
1.57404e-05
1.57875e-05
1.58302e-05
1.58685e-05
1.59024e-05
1.59319e-05
1.59571e-05
1.59778e-05
1.59941e-05
1.60059e-05
1.60131e-05
1.60156e-05
1.60133e-05
1.6006e-05
1.59935e-05
1.59757e-05
1.59522e-05
1.5923e-05
1.5888e-05
1.58471e-05
1.5801e-05
1.57503e-05
1.56974e-05
1.56498e-05
1.22358e-05
1.23496e-05
1.24607e-05
1.25689e-05
1.26749e-05
1.2779e-05
1.28818e-05
1.29835e-05
1.30845e-05
1.31852e-05
1.32855e-05
1.33856e-05
1.34855e-05
1.35851e-05
1.36844e-05
1.37832e-05
1.38812e-05
1.39784e-05
1.40743e-05
1.41689e-05
1.42619e-05
1.4353e-05
1.44419e-05
1.45286e-05
1.46127e-05
1.46942e-05
1.47728e-05
1.48485e-05
1.4921e-05
1.49903e-05
1.50563e-05
1.5119e-05
1.51781e-05
1.52338e-05
1.52859e-05
1.53345e-05
1.53793e-05
1.54205e-05
1.54579e-05
1.54915e-05
1.55212e-05
1.55469e-05
1.55686e-05
1.5586e-05
1.55989e-05
1.56074e-05
1.5611e-05
1.56098e-05
1.56035e-05
1.5592e-05
1.55753e-05
1.55536e-05
1.55275e-05
1.54981e-05