/*--------------------------------*- C++ -*----------------------------------*\
  =========                 |
  \\      /  F ield         | OpenFOAM: The Open Source CFD Toolbox
   \\    /   O peration     | Website:  https://openfoam.org
    \\  /    A nd           | Version:  6
     \\/     M anipulation  |
\*---------------------------------------------------------------------------*/
FoamFile
{
    version     2.0;
    format      ascii;
    class       volVectorField;
    location    "0";
    object      U_rec;
}
// * * * * * * * * * * * * * * * * * * * * * * * * * * * * * * * * * * * * * //

dimensions      [0 1 -1 0 0 0 0];

internalField   nonuniform List<vector> 
9000
(
(0.570693 0.146544 0)
(0.453619 0.0632419 0)
(0.274586 0.0214372 0)
(0.193106 0.00951176 0)
(0.148955 0.00549832 0)
(0.12284 0.00286393 0)
(0.10694 0.00256708 0)
(0.0959909 0.000696017 0)
(0.0878107 -2.97954e-05 0)
(0.0826663 -0.000431409 0)
(0.0791779 0.00190133 0)
(0.0765171 0.00188412 0)
(0.0737585 0.0021898 0)
(0.0734279 0.00180278 0)
(0.0732393 -0.000102584 0)
(0.0720981 -0.00103792 0)
(0.0710989 -0.00100088 0)
(0.0703204 0.000443612 0)
(0.0701406 0.00121162 0)
(0.0705268 0.00243298 0)
(0.0710253 0.00127665 0)
(0.0706432 0.00195161 0)
(0.0703832 0.00106623 0)
(0.0703912 0.00100585 0)
(0.0703252 0.00113711 0)
(0.0709797 0.00150812 0)
(0.0698599 -0.000539345 0)
(0.0701012 0.00013339 0)
(0.0707382 -0.00103373 0)
(0.0698063 -0.00101304 0)
(0.0707488 -8.87054e-06 0)
(0.0705424 -0.00164734 0)
(0.0701919 -0.00174052 0)
(0.0703761 -0.00153687 0)
(0.0696343 -0.0011958 0)
(0.0697888 -0.000824512 0)
(0.0700395 0.000205012 0)
(0.0705289 -0.00113864 0)
(0.0709276 -0.000501254 0)
(0.0715044 -0.000498639 0)
(0.0718205 -0.000316661 0)
(0.071365 -0.000670929 0)
(0.0719584 -4.5252e-05 0)
(0.0728305 1.59277e-05 0)
(0.0748219 -0.00129238 0)
(0.076673 -0.0026178 0)
(0.0798654 -0.00238504 0)
(0.0885959 -0.00095464 0)
(0.108106 -0.00806482 0)
(0.157352 -0.0463667 0)
(0.903935 0.323972 0)
(0.822696 0.222936 0)
(0.625289 0.125115 0)
(0.493189 0.0717854 0)
(0.404205 0.043422 0)
(0.345078 0.0266751 0)
(0.305155 0.0198586 0)
(0.276147 0.0101904 0)
(0.255722 0.00686307 0)
(0.243343 0.00342648 0)
(0.23359 0.00621924 0)
(0.224761 0.00580709 0)
(0.217658 0.00457669 0)
(0.214292 0.00478539 0)
(0.212688 0.00138186 0)
(0.211094 -0.000450442 0)
(0.210014 -0.00174613 0)
(0.208473 0.000125011 0)
(0.207751 0.00246524 0)
(0.207159 0.00420597 0)
(0.20775 0.00351709 0)
(0.207162 0.00323464 0)
(0.206127 0.00218346 0)
(0.206765 0.00290879 0)
(0.20683 0.00352137 0)
(0.206502 0.00115876 0)
(0.204824 -0.00016122 0)
(0.205629 4.75034e-05 0)
(0.206229 -0.00327859 0)
(0.206258 -0.00105506 0)
(0.2068 -0.00133891 0)
(0.205612 -0.0029075 0)
(0.206178 -0.0039136 0)
(0.20684 -0.0037208 0)
(0.205465 -0.0019296 0)
(0.206063 -0.000830473 0)
(0.206007 -0.000417603 0)
(0.207346 -0.000790261 0)
(0.209196 -0.00140342 0)
(0.209983 -0.000479418 0)
(0.210658 -0.00155023 0)
(0.211075 -0.00333956 0)
(0.21351 -0.00257974 0)
(0.215272 -0.00341677 0)
(0.219829 -0.00428478 0)
(0.227275 -0.00757318 0)
(0.239879 -0.0105925 0)
(0.259876 -0.016206 0)
(0.295547 -0.0392579 0)
(0.364852 -0.0996348 0)
(0.978513 0.30997 0)
(0.971327 0.303801 0)
(0.834627 0.214966 0)
(0.709416 0.14226 0)
(0.608379 0.0950524 0)
(0.535543 0.0641833 0)
(0.480478 0.0439736 0)
(0.439631 0.0287646 0)
(0.411234 0.021174 0)
(0.392731 0.0152323 0)
(0.378855 0.0117498 0)
(0.364404 0.00774949 0)
(0.354425 0.00698931 0)
(0.349077 0.00754241 0)
(0.345171 0.00323203 0)
(0.342232 0.00119989 0)
(0.340631 0.000903075 0)
(0.33989 0.000483856 0)
(0.338863 0.00316655 0)
(0.337453 0.00353898 0)
(0.337292 0.00509834 0)
(0.336069 0.00222832 0)
(0.3358 0.00267095 0)
(0.33694 0.00353236 0)
(0.334696 0.00373092 0)
(0.334407 0.00038208 0)
(0.334017 -0.000262431 0)
(0.33296 -0.00231373 0)
(0.335118 -0.00478582 0)
(0.335627 -0.00215049 0)
(0.335251 -0.0030149 0)
(0.334041 -0.0028236 0)
(0.334335 -0.0029252 0)
(0.336648 -0.00317905 0)
(0.335751 -0.00141956 0)
(0.335227 0.000358608 0)
(0.33581 0.000237586 0)
(0.337389 0.00120147 0)
(0.339785 -0.00149954 0)
(0.341252 -0.000436185 0)
(0.341414 -0.00230652 0)
(0.34383 -0.00468479 0)
(0.348206 -0.00630143 0)
(0.352421 -0.00788817 0)
(0.360001 -0.00997383 0)
(0.370741 -0.0147389 0)
(0.389398 -0.0222312 0)
(0.416951 -0.0409278 0)
(0.45866 -0.0728157 0)
(0.520663 -0.143248 0)
(0.989894 0.267304 0)
(1.02675 0.334357 0)
(0.949987 0.280825 0)
(0.855193 0.206664 0)
(0.764659 0.149968 0)
(0.689441 0.106998 0)
(0.630777 0.0739475 0)
(0.586504 0.0549917 0)
(0.553188 0.0409321 0)
(0.529262 0.0303421 0)
(0.510386 0.0214431 0)
(0.495299 0.0135993 0)
(0.484747 0.0126372 0)
(0.475285 0.00996907 0)
(0.469298 0.00550764 0)
(0.467487 0.00329138 0)
(0.464958 0.00274212 0)
(0.46343 0.00156328 0)
(0.46244 0.00337605 0)
(0.460717 0.00180351 0)
(0.459477 0.00381642 0)
(0.457849 0.000790474 0)
(0.458473 0.00254779 0)
(0.459093 0.00239178 0)
(0.456375 0.00216409 0)
(0.455141 0.000439452 0)
(0.454087 -0.00200418 0)
(0.453714 -0.00134457 0)
(0.456911 -0.00375032 0)
(0.457847 -0.00282121 0)
(0.457565 -0.00135797 0)
(0.456569 -0.00191228 0)
(0.456575 -0.000956453 0)
(0.458779 -0.00238561 0)
(0.458819 -0.00229244 0)
(0.458461 0.000986551 0)
(0.458647 -2.21514e-05 0)
(0.459668 0.000413528 0)
(0.462941 -0.00157284 0)
(0.465757 -0.0023681 0)
(0.466237 -0.00481096 0)
(0.469088 -0.00582538 0)
(0.475265 -0.00930737 0)
(0.481302 -0.0118905 0)
(0.491191 -0.0171041 0)
(0.506045 -0.0256359 0)
(0.526454 -0.0389539 0)
(0.557293 -0.0651369 0)
(0.598979 -0.104265 0)
(0.649133 -0.176552 0)
(0.985374 0.226466 0)
(1.0406 0.337405 0)
(1.01142 0.318362 0)
(0.949464 0.256798 0)
(0.878177 0.1953 0)
(0.811243 0.145764 0)
(0.757382 0.110463 0)
(0.714209 0.0818466 0)
(0.678226 0.0625579 0)
(0.652549 0.046559 0)
(0.632108 0.0334069 0)
(0.616029 0.0234947 0)
(0.604268 0.0190863 0)
(0.593243 0.0126243 0)
(0.586828 0.00840998 0)
(0.58387 0.00573771 0)
(0.580896 0.00271056 0)
(0.58005 0.00135896 0)
(0.577999 0.00360569 0)
(0.576027 0.00373244 0)
(0.574831 0.00282043 0)
(0.5733 0.000198199 0)
(0.57417 0.00104613 0)
(0.574078 0.000253159 0)
(0.570822 0.000675024 0)
(0.568627 0.000133561 0)
(0.56964 -0.00145116 0)
(0.568697 0.000612275 0)
(0.570623 -0.0013445 0)
(0.573519 -0.00227576 0)
(0.572799 0.000584325 0)
(0.571308 0.000388944 0)
(0.570862 0.00054188 0)
(0.572985 -0.00043577 0)
(0.575268 -0.000135127 0)
(0.57425 -0.000148726 0)
(0.573606 -0.00214455 0)
(0.575916 -0.0016024 0)
(0.579183 -0.00469364 0)
(0.582086 -0.00545783 0)
(0.584017 -0.00895785 0)
(0.588117 -0.0100125 0)
(0.594885 -0.0140991 0)
(0.602897 -0.020018 0)
(0.613983 -0.0283769 0)
(0.629816 -0.0389623 0)
(0.651749 -0.0559189 0)
(0.683012 -0.085095 0)
(0.720082 -0.129582 0)
(0.758228 -0.197034 0)
(0.980182 0.191203 0)
(1.03859 0.325353 0)
(1.03919 0.333035 0)
(1.00629 0.287849 0)
(0.95816 0.230804 0)
(0.908753 0.182677 0)
(0.861473 0.142477 0)
(0.821316 0.107087 0)
(0.789078 0.0828132 0)
(0.762377 0.0630061 0)
(0.741167 0.0459045 0)
(0.726501 0.034323 0)
(0.714268 0.0252306 0)
(0.701962 0.0166692 0)
(0.695776 0.012883 0)
(0.692587 0.00902133 0)
(0.689185 0.00541289 0)
(0.689576 0.00490115 0)
(0.688677 0.00513792 0)
(0.684266 0.0043941 0)
(0.681017 0.00291899 0)
(0.680365 0.00124504 0)
(0.681532 0.000886469 0)
(0.681853 -0.000617563 0)
(0.679327 -0.000660771 0)
(0.676398 0.002253 0)
(0.676967 -0.000278494 0)
(0.676546 0.000208321 0)
(0.677623 0.00107946 0)
(0.681625 -0.00103213 0)
(0.682289 0.000723854 0)
(0.679612 0.000415365 0)
(0.678872 0.0034919 0)
(0.681342 0.00360482 0)
(0.682232 0.00230426 0)
(0.680857 -0.000774854 0)
(0.682241 -0.00151594 0)
(0.68399 -0.0026375 0)
(0.687968 -0.00610043 0)
(0.692078 -0.00849927 0)
(0.694198 -0.0104278 0)
(0.69923 -0.0146009 0)
(0.705912 -0.0196683 0)
(0.714196 -0.0283129 0)
(0.727762 -0.0391398 0)
(0.746091 -0.0527828 0)
(0.766428 -0.0707385 0)
(0.794485 -0.101316 0)
(0.826896 -0.148601 0)
(0.854585 -0.21238 0)
(0.9745 0.161797 0)
(1.03004 0.30294 0)
(1.04936 0.332231 0)
(1.0404 0.305282 0)
(1.01587 0.259379 0)
(0.981872 0.212539 0)
(0.943843 0.167391 0)
(0.911715 0.129871 0)
(0.883767 0.100593 0)
(0.859427 0.0758649 0)
(0.840442 0.0568688 0)
(0.826028 0.0429904 0)
(0.813283 0.0307999 0)
(0.803156 0.0219656 0)
(0.797535 0.0167814 0)
(0.793059 0.0119014 0)
(0.790667 0.00763123 0)
(0.79104 0.00805003 0)
(0.78794 0.00626667 0)
(0.784261 0.00288325 0)
(0.782232 0.00288612 0)
(0.781204 0.00147105 0)
(0.781614 -0.000639973 0)
(0.781769 -0.000256054 0)
(0.781333 -0.00159995 0)
(0.777277 0.00125209 0)
(0.776941 0.000486753 0)
(0.778324 -0.000281372 0)
(0.778432 0.00144159 0)
(0.78197 0.00172974 0)
(0.782708 0.00139016 0)
(0.781878 0.00116793 0)
(0.781477 0.00347213 0)
(0.78103 0.00357916 0)
(0.781847 0.00105447 0)
(0.781792 -0.00148519 0)
(0.78329 -0.00169155 0)
(0.785111 -0.00423039 0)
(0.788894 -0.00539862 0)
(0.79422 -0.00995616 0)
(0.796985 -0.0124088 0)
(0.801895 -0.0177878 0)
(0.809388 -0.0239777 0)
(0.81826 -0.0335642 0)
(0.831965 -0.0456881 0)
(0.850739 -0.0633001 0)
(0.871101 -0.086536 0)
(0.894216 -0.117624 0)
(0.918937 -0.163963 0)
(0.938759 -0.223939 0)
(0.970977 0.137753 0)
(1.02137 0.276506 0)
(1.05142 0.320282 0)
(1.06098 0.310114 0)
(1.05421 0.275356 0)
(1.03564 0.228702 0)
(1.00934 0.184971 0)
(0.986083 0.146438 0)
(0.963817 0.112148 0)
(0.943508 0.0857552 0)
(0.927815 0.0649165 0)
(0.915704 0.0488103 0)
(0.904647 0.0358435 0)
(0.895004 0.027665 0)
(0.889623 0.0193257 0)
(0.885862 0.0133352 0)
(0.884368 0.00877078 0)
(0.885371 0.00698108 0)
(0.881305 0.00450039 0)
(0.877428 0.00542224 0)
(0.875197 0.00219613 0)
(0.872973 0.0014677 0)
(0.874818 2.61267e-05 0)
(0.875759 -0.000665239 0)
(0.874872 -0.00171127 0)
(0.871988 -0.00144048 0)
(0.870537 0.00219932 0)
(0.871817 0.000279155 0)
(0.873343 -0.000697356 0)
(0.876049 0.000883306 0)
(0.876631 -0.00042838 0)
(0.87551 0.00213282 0)
(0.874942 0.000749499 0)
(0.874774 0.000825925 0)
(0.874603 -0.00141429 0)
(0.875279 -0.00227227 0)
(0.877421 -0.00365692 0)
(0.879556 -0.0062133 0)
(0.883494 -0.0064536 0)
(0.888384 -0.00982512 0)
(0.892112 -0.0165533 0)
(0.897584 -0.0215402 0)
(0.904874 -0.03013 0)
(0.913304 -0.0404248 0)
(0.926753 -0.0529237 0)
(0.944044 -0.0735659 0)
(0.962876 -0.0985281 0)
(0.983403 -0.133032 0)
(1.00212 -0.17748 0)
(1.01413 -0.230784 0)
(0.967151 0.118954 0)
(1.01186 0.24979 0)
(1.04961 0.301539 0)
(1.07322 0.302133 0)
(1.07998 0.276382 0)
(1.07373 0.234337 0)
(1.06108 0.194644 0)
(1.04604 0.158086 0)
(1.03107 0.122206 0)
(1.01727 0.0939798 0)
(1.00567 0.071431 0)
(0.99584 0.0552445 0)
(0.987064 0.0409498 0)
(0.978764 0.0306068 0)
(0.973475 0.0236129 0)
(0.970608 0.0163052 0)
(0.969627 0.0104017 0)
(0.97052 0.00724709 0)
(0.968462 0.00233995 0)
(0.963944 0.00458404 0)
(0.960662 0.00218869 0)
(0.960501 0.00346783 0)
(0.960552 0.00241159 0)
(0.960986 -0.00241774 0)
(0.961271 -0.00242469 0)
(0.959746 -0.00415032 0)
(0.958195 -0.000884743 0)
(0.956838 -0.000783976 0)
(0.958905 -0.00130805 0)
(0.962153 -0.00236404 0)
(0.963898 -0.00282228 0)
(0.963007 -0.00144427 0)
(0.96125 -0.00152236 0)
(0.960829 -0.000776767 0)
(0.961615 -0.000995532 0)
(0.962449 -0.00282872 0)
(0.963429 -0.00497573 0)
(0.966998 -0.00724559 0)
(0.97158 -0.0088249 0)
(0.974498 -0.0124269 0)
(0.978446 -0.0200952 0)
(0.984683 -0.0254925 0)
(0.991734 -0.0354062 0)
(1.0014 -0.0470821 0)
(1.01269 -0.0604985 0)
(1.02851 -0.0816391 0)
(1.04534 -0.107525 0)
(1.06061 -0.142829 0)
(1.07562 -0.186564 0)
(1.08278 -0.236437 0)
(0.964518 0.100843 0)
(1.00397 0.222036 0)
(1.04462 0.278789 0)
(1.07771 0.288025 0)
(1.09599 0.270015 0)
(1.10306 0.235242 0)
(1.10297 0.199246 0)
(1.09598 0.164061 0)
(1.08696 0.131545 0)
(1.07945 0.102221 0)
(1.07323 0.0768922 0)
(1.06743 0.060389 0)
(1.05993 0.0450089 0)
(1.05442 0.0331725 0)
(1.05052 0.0267427 0)
(1.04679 0.019457 0)
(1.04709 0.0142883 0)
(1.04816 0.00815253 0)
(1.04707 0.00388617 0)
(1.04422 0.00253591 0)
(1.04118 0.0046682 0)
(1.03961 0.00507752 0)
(1.03722 0.00214158 0)
(1.03896 -0.00251882 0)
(1.04004 -0.00315943 0)
(1.03842 -0.00459977 0)
(1.0383 -0.00273598 0)
(1.03739 -0.00295074 0)
(1.038 -0.000574509 0)
(1.04096 -0.00300195 0)
(1.04327 -0.00355863 0)
(1.04261 -0.00482568 0)
(1.04208 -0.0034265 0)
(1.04244 -0.00237726 0)
(1.04078 -0.00138912 0)
(1.04051 -0.0031857 0)
(1.04315 -0.00425336 0)
(1.04668 -0.00746013 0)
(1.05113 -0.0117759 0)
(1.05381 -0.0157065 0)
(1.05856 -0.0221779 0)
(1.06461 -0.0291419 0)
(1.07043 -0.0403904 0)
(1.07952 -0.0523022 0)
(1.0904 -0.070034 0)
(1.10379 -0.0894181 0)
(1.11756 -0.119029 0)
(1.1293 -0.150811 0)
(1.13923 -0.192166 0)
(1.14368 -0.237886 0)
(0.962413 0.0854259 0)
(0.998218 0.196116 0)
(1.04113 0.253918 0)
(1.08034 0.271024 0)
(1.107 0.258518 0)
(1.1237 0.23128 0)
(1.13398 0.197472 0)
(1.13642 0.164119 0)
(1.13495 0.133624 0)
(1.13179 0.106442 0)
(1.13163 0.0816615 0)
(1.12973 0.063244 0)
(1.12441 0.0475039 0)
(1.12238 0.034916 0)
(1.11942 0.0258336 0)
(1.11705 0.020861 0)
(1.11613 0.016315 0)
(1.11734 0.00985337 0)
(1.11821 0.00572826 0)
(1.11696 0.00321103 0)
(1.11469 0.00489638 0)
(1.11091 0.00437121 0)
(1.10748 0.00141504 0)
(1.10972 0.000266115 0)
(1.1116 -0.00296258 0)
(1.11128 -0.00374022 0)
(1.11063 -0.00173665 0)
(1.10957 -4.78531e-05 0)
(1.11044 -0.00228903 0)
(1.11224 -0.0017484 0)
(1.11465 -0.00397576 0)
(1.11556 -0.00521911 0)
(1.11556 -0.00395011 0)
(1.11505 -0.00405633 0)
(1.11424 -0.00358811 0)
(1.11414 -0.00328259 0)
(1.11513 -0.00422146 0)
(1.1177 -0.00755058 0)
(1.12325 -0.0125251 0)
(1.12611 -0.018002 0)
(1.13022 -0.0234853 0)
(1.13504 -0.0341003 0)
(1.14098 -0.0459392 0)
(1.14921 -0.0594957 0)
(1.15847 -0.0768549 0)
(1.16993 -0.0982717 0)
(1.18146 -0.125992 0)
(1.19064 -0.158962 0)
(1.19585 -0.19628 0)
(1.19706 -0.237259 0)
(0.961529 0.0741578 0)
(0.993941 0.174085 0)
(1.03723 0.228953 0)
(1.08014 0.248367 0)
(1.1132 0.241116 0)
(1.13905 0.220328 0)
(1.15786 0.18985 0)
(1.16869 0.159051 0)
(1.17438 0.130497 0)
(1.17736 0.103861 0)
(1.18109 0.0815977 0)
(1.1832 0.0638481 0)
(1.18083 0.0486857 0)
(1.18035 0.0338804 0)
(1.181 0.0236112 0)
(1.18022 0.0189777 0)
(1.17902 0.0143361 0)
(1.18046 0.0113614 0)
(1.18132 0.0068527 0)
(1.18169 0.00372249 0)
(1.17965 0.0034289 0)
(1.17491 0.00293749 0)
(1.17183 0.00139747 0)
(1.17341 0.00106805 0)
(1.17472 -0.00284162 0)
(1.17643 -0.00286972 0)
(1.17782 -0.00165943 0)
(1.17459 -0.000754814 0)
(1.17454 -0.00241936 0)
(1.17753 -0.0010474 0)
(1.1792 -0.00306828 0)
(1.18099 -0.00306804 0)
(1.18123 -0.00352455 0)
(1.18095 -0.00520624 0)
(1.18021 -0.00503677 0)
(1.17957 -0.00589617 0)
(1.18096 -0.00823354 0)
(1.18307 -0.00941535 0)
(1.18712 -0.0130419 0)
(1.19082 -0.0203822 0)
(1.19342 -0.0267632 0)
(1.19723 -0.0380092 0)
(1.20321 -0.0494399 0)
(1.21082 -0.064039 0)
(1.21904 -0.0807642 0)
(1.22851 -0.102924 0)
(1.23622 -0.128873 0)
(1.24223 -0.16341 0)
(1.2456 -0.197443 0)
(1.24336 -0.235191 0)
(0.960592 0.0626161 0)
(0.990274 0.15025 0)
(1.03317 0.20266 0)
(1.07887 0.21968 0)
(1.11808 0.219083 0)
(1.14942 0.203687 0)
(1.1752 0.176055 0)
(1.19429 0.148838 0)
(1.20625 0.121605 0)
(1.21454 0.0974131 0)
(1.22437 0.0770868 0)
(1.23 0.0602215 0)
(1.22827 0.0462683 0)
(1.23021 0.0332565 0)
(1.23402 0.0236528 0)
(1.23546 0.0185554 0)
(1.23533 0.013706 0)
(1.23662 0.0104286 0)
(1.23699 0.00637741 0)
(1.23794 0.00325242 0)
(1.2372 0.00153102 0)
(1.23265 0.00123142 0)
(1.22901 0.00118509 0)
(1.22976 0.00115347 0)
(1.2319 -0.000129683 0)
(1.23484 0.000420427 0)
(1.23467 -0.00214968 0)
(1.23223 -0.0014495 0)
(1.23374 -9.55342e-05 0)
(1.23514 -0.00123366 0)
(1.23684 -0.00110695 0)
(1.23889 -0.00223506 0)
(1.23823 -0.00352361 0)
(1.23836 -0.00625692 0)
(1.23841 -0.00752611 0)
(1.23752 -0.00908484 0)
(1.23931 -0.0107372 0)
(1.24202 -0.0108129 0)
(1.24453 -0.015491 0)
(1.2467 -0.0226988 0)
(1.2493 -0.0299869 0)
(1.2527 -0.0395123 0)
(1.25827 -0.0512792 0)
(1.26486 -0.0655016 0)
(1.27138 -0.0844596 0)
(1.27855 -0.10608 0)
(1.28294 -0.131241 0)
(1.28647 -0.163361 0)
(1.28782 -0.194184 0)
(1.28287 -0.230415 0)
(0.960244 0.0521241 0)
(0.988841 0.128528 0)
(1.02942 0.175359 0)
(1.07649 0.194159 0)
(1.1216 0.193724 0)
(1.15638 0.181127 0)
(1.18814 0.156887 0)
(1.21393 0.133228 0)
(1.23202 0.109317 0)
(1.24649 0.0894111 0)
(1.25969 0.0713974 0)
(1.26887 0.0547664 0)
(1.27095 0.0437011 0)
(1.27439 0.0335142 0)
(1.28059 0.0241278 0)
(1.28306 0.0195837 0)
(1.2832 0.0127293 0)
(1.28447 0.0101029 0)
(1.28573 0.00552733 0)
(1.2871 0.00252053 0)
(1.28709 -0.00111409 0)
(1.28318 -0.00157265 0)
(1.28009 -2.61883e-05 0)
(1.28076 0.00275643 0)
(1.28243 0.00386345 0)
(1.2837 0.00208745 0)
(1.28488 -0.000938789 0)
(1.28426 -0.000323173 0)
(1.28359 0.00128938 0)
(1.28591 0.000519975 0)
(1.28746 0.000226489 0)
(1.28856 -0.00103386 0)
(1.28844 -0.00343632 0)
(1.28881 -0.00494763 0)
(1.28907 -0.00779285 0)
(1.28872 -0.00879187 0)
(1.29198 -0.0101321 0)
(1.29281 -0.0119047 0)
(1.29333 -0.0179195 0)
(1.296 -0.0236383 0)
(1.29847 -0.0313143 0)
(1.30076 -0.0408012 0)
(1.30527 -0.0525372 0)
(1.31011 -0.0673575 0)
(1.3151 -0.0858923 0)
(1.32117 -0.107602 0)
(1.32291 -0.132534 0)
(1.32427 -0.159926 0)
(1.32301 -0.19041 0)
(1.31556 -0.22333 0)
(0.960403 0.0420473 0)
(0.987322 0.106888 0)
(1.0277 0.14602 0)
(1.07473 0.167455 0)
(1.12128 0.166791 0)
(1.16034 0.15398 0)
(1.1966 0.138256 0)
(1.22965 0.116397 0)
(1.25377 0.0965743 0)
(1.27261 0.0787797 0)
(1.28924 0.0643588 0)
(1.30239 0.0499572 0)
(1.30724 0.0390565 0)
(1.31104 0.0308955 0)
(1.31948 0.0244446 0)
(1.32258 0.0173035 0)
(1.32389 0.0106003 0)
(1.32661 0.00880624 0)
(1.3267 0.00533486 0)
(1.32818 0.000750789 0)
(1.32897 -0.00125822 0)
(1.32752 -0.00390508 0)
(1.32583 -0.000185458 0)
(1.32602 0.00299013 0)
(1.32539 0.00322869 0)
(1.32574 0.00149527 0)
(1.32713 -0.00017097 0)
(1.3277 -0.00165623 0)
(1.32847 0.000880709 0)
(1.32895 0.00345973 0)
(1.3305 0.00138248 0)
(1.33148 0.000215147 0)
(1.33124 -0.00293083 0)
(1.33157 -0.0048315 0)
(1.33231 -0.00663991 0)
(1.33295 -0.00675661 0)
(1.33493 -0.00980149 0)
(1.33545 -0.0139581 0)
(1.33586 -0.0195672 0)
(1.33798 -0.0261445 0)
(1.33919 -0.0343892 0)
(1.34153 -0.0422857 0)
(1.34506 -0.0537803 0)
(1.34826 -0.0686441 0)
(1.35164 -0.0853753 0)
(1.35541 -0.106689 0)
(1.3562 -0.13286 0)
(1.35538 -0.156499 0)
(1.35118 -0.186153 0)
(1.3429 -0.216761 0)
(0.960974 0.0320625 0)
(0.986618 0.0852323 0)
(1.02633 0.117773 0)
(1.0737 0.135097 0)
(1.11992 0.13588 0)
(1.16412 0.126648 0)
(1.20526 0.117264 0)
(1.24012 0.0991815 0)
(1.26966 0.0813607 0)
(1.29383 0.0664037 0)
(1.31397 0.054225 0)
(1.32818 0.042048 0)
(1.3363 0.0318936 0)
(1.34346 0.0261942 0)
(1.35147 0.0234415 0)
(1.35399 0.0139781 0)
(1.35778 0.0109625 0)
(1.36139 0.00622087 0)
(1.36054 0.00328268 0)
(1.36312 4.92224e-05 0)
(1.36378 -0.00014523 0)
(1.36384 -0.00242169 0)
(1.36436 -0.000116973 0)
(1.36278 0.0016152 0)
(1.36126 -0.00148408 0)
(1.36125 -0.000439166 0)
(1.36263 -0.0023331 0)
(1.36435 -0.000972362 0)
(1.36641 0.00108054 0)
(1.36618 0.00260455 0)
(1.36542 0.002077 0)
(1.36647 -0.000804236 0)
(1.36654 -0.00319596 0)
(1.36812 -0.00669282 0)
(1.36981 -0.00626225 0)
(1.36938 -0.00940067 0)
(1.37029 -0.0104113 0)
(1.37053 -0.0167462 0)
(1.3698 -0.0213988 0)
(1.37168 -0.0280392 0)
(1.37435 -0.0365659 0)
(1.37613 -0.0444122 0)
(1.3771 -0.0553874 0)
(1.3795 -0.0689675 0)
(1.38093 -0.0852631 0)
(1.38186 -0.1062 0)
(1.38144 -0.130836 0)
(1.3798 -0.15422 0)
(1.37221 -0.18119 0)
(1.36169 -0.210119 0)
(0.961826 0.0253172 0)
(0.986407 0.0635224 0)
(1.0243 0.0907277 0)
(1.07144 0.103686 0)
(1.11941 0.105964 0)
(1.16755 0.102276 0)
(1.21105 0.0920671 0)
(1.24832 0.0792849 0)
(1.282 0.0648518 0)
(1.30966 0.052033 0)
(1.33254 0.0421922 0)
(1.3492 0.0316317 0)
(1.36004 0.0240865 0)
(1.36966 0.0190983 0)
(1.37662 0.0170284 0)
(1.37977 0.0121032 0)
(1.38464 0.0102163 0)
(1.38722 0.00508569 0)
(1.38821 0.00277417 0)
(1.39159 0.00158657 0)
(1.39262 0.00110142 0)
(1.39296 -0.000501395 0)
(1.39357 -0.00096277 0)
(1.39029 0.000769681 0)
(1.38946 -0.00201122 0)
(1.39075 -0.00181407 0)
(1.39192 -0.00124018 0)
(1.39449 0.000793947 0)
(1.39582 0.00193497 0)
(1.3952 0.00112812 0)
(1.39424 0.00106698 0)
(1.39447 0.000716404 0)
(1.39452 -0.00250453 0)
(1.39715 -0.00638555 0)
(1.39839 -0.00684199 0)
(1.3985 -0.0107489 0)
(1.39894 -0.0133583 0)
(1.39776 -0.0198324 0)
(1.39863 -0.0242533 0)
(1.39899 -0.0277809 0)
(1.40064 -0.037322 0)
(1.40214 -0.0472721 0)
(1.40306 -0.0574142 0)
(1.40363 -0.0703368 0)
(1.40276 -0.0854536 0)
(1.40122 -0.10543 0)
(1.40051 -0.126943 0)
(1.39681 -0.150793 0)
(1.38749 -0.177534 0)
(1.3755 -0.201737 0)
(0.959995 0.0204215 0)
(0.984697 0.0443009 0)
(1.02402 0.0630229 0)
(1.071 0.0722786 0)
(1.12064 0.0767938 0)
(1.16917 0.0745508 0)
(1.21424 0.0668869 0)
(1.25447 0.0569034 0)
(1.28992 0.047849 0)
(1.32131 0.0375943 0)
(1.34614 0.0301805 0)
(1.36379 0.0221164 0)
(1.37691 0.0165087 0)
(1.38866 0.0131035 0)
(1.3972 0.00750334 0)
(1.40049 0.0064487 0)
(1.40422 0.00445836 0)
(1.40726 0.00308762 0)
(1.40922 0.00364283 0)
(1.41295 0.00304847 0)
(1.41328 0.00305692 0)
(1.41319 -0.000439085 0)
(1.41568 -0.00127613 0)
(1.41276 0.000218331 0)
(1.4101 -9.20119e-05 0)
(1.41242 -0.000788448 0)
(1.41486 0.000767911 0)
(1.4172 0.00232146 0)
(1.41761 0.00145674 0)
(1.41697 0.00124515 0)
(1.41675 -0.000291431 0)
(1.41629 -0.000215678 0)
(1.4145 -0.0026968 0)
(1.41795 -0.00505021 0)
(1.42013 -0.00970074 0)
(1.41874 -0.0107404 0)
(1.41898 -0.0151644 0)
(1.4183 -0.021892 0)
(1.42009 -0.026504 0)
(1.41942 -0.0301407 0)
(1.41921 -0.039269 0)
(1.42108 -0.0481869 0)
(1.42082 -0.0591939 0)
(1.42039 -0.0717288 0)
(1.4181 -0.0863628 0)
(1.41461 -0.103129 0)
(1.41197 -0.122471 0)
(1.40614 -0.14536 0)
(1.39648 -0.168853 0)
(1.38428 -0.192291 0)
(0.958353 0.0121782 0)
(0.981967 0.0277095 0)
(1.02185 0.0370113 0)
(1.07105 0.0425629 0)
(1.12166 0.0432113 0)
(1.17049 0.0416348 0)
(1.21622 0.0379388 0)
(1.25843 0.0320363 0)
(1.29623 0.0288671 0)
(1.32808 0.0229302 0)
(1.35452 0.0185377 0)
(1.37428 0.0132645 0)
(1.38901 0.00929837 0)
(1.39949 0.0089511 0)
(1.40819 0.00278451 0)
(1.41402 0.00139505 0)
(1.41871 0.0011315 0)
(1.42274 0.00172111 0)
(1.42452 0.00202706 0)
(1.42745 0.00210862 0)
(1.42645 0.00270485 0)
(1.42649 -5.37127e-05 0)
(1.43064 0.000332687 0)
(1.42714 -0.000163001 0)
(1.42483 0.00018465 0)
(1.42742 0.000877834 0)
(1.43023 0.00131597 0)
(1.43186 0.00280814 0)
(1.43197 0.00251577 0)
(1.43124 0.00213708 0)
(1.4305 0.00106676 0)
(1.43053 -0.00224751 0)
(1.42912 -0.00310873 0)
(1.43067 -0.00432302 0)
(1.43328 -0.0107642 0)
(1.43399 -0.0122352 0)
(1.43166 -0.0136395 0)
(1.43086 -0.020589 0)
(1.43435 -0.0256795 0)
(1.43245 -0.0331212 0)
(1.43152 -0.0392556 0)
(1.43251 -0.0462642 0)
(1.43137 -0.0579351 0)
(1.43028 -0.0687614 0)
(1.42695 -0.0841944 0)
(1.42269 -0.100868 0)
(1.41757 -0.11742 0)
(1.41091 -0.137658 0)
(1.39932 -0.158337 0)
(1.38482 -0.181712 0)
(0.95859 0.00439657 0)
(0.981464 0.0081116 0)
(1.02135 0.00982204 0)
(1.06965 0.0128893 0)
(1.12037 0.0107261 0)
(1.17119 0.01026 0)
(1.21799 0.00879256 0)
(1.26189 0.0101703 0)
(1.29984 0.00981706 0)
(1.3323 0.00720004 0)
(1.35896 0.00401455 0)
(1.37825 0.00120654 0)
(1.395 -0.00158019 0)
(1.40603 -0.000123425 0)
(1.41397 -0.000552311 0)
(1.42082 -0.000182755 0)
(1.42602 -0.000212263 0)
(1.42944 4.05871e-05 0)
(1.43123 -0.00103718 0)
(1.43499 0.000223793 0)
(1.43345 0.000589802 0)
(1.43351 0.0014416 0)
(1.4376 0.00086563 0)
(1.4343 -0.00200305 0)
(1.43262 0.000718526 0)
(1.43527 0.00141995 0)
(1.43832 0.00262644 0)
(1.44009 0.00252018 0)
(1.43959 0.00424154 0)
(1.4386 0.00229569 0)
(1.43709 0.00115659 0)
(1.43672 -0.00116637 0)
(1.43633 -0.00299841 0)
(1.43679 -0.00440914 0)
(1.43904 -0.0093826 0)
(1.44167 -0.0112617 0)
(1.43874 -0.0135834 0)
(1.43654 -0.0165865 0)
(1.43874 -0.0223296 0)
(1.43797 -0.0315534 0)
(1.43841 -0.0377444 0)
(1.43752 -0.0441345 0)
(1.43532 -0.0536113 0)
(1.43259 -0.0660623 0)
(1.42713 -0.0798635 0)
(1.42333 -0.0964018 0)
(1.41768 -0.112987 0)
(1.40869 -0.131854 0)
(1.39596 -0.152456 0)
(1.37894 -0.173868 0)
(0.95692 -0.00176143 0)
(0.978938 -0.0107323 0)
(1.02119 -0.0148442 0)
(1.07011 -0.018689 0)
(1.12041 -0.02183 0)
(1.17132 -0.0214256 0)
(1.21946 -0.0213415 0)
(1.26342 -0.0152225 0)
(1.29972 -0.0113307 0)
(1.33063 -0.010571 0)
(1.35713 -0.0113091 0)
(1.3776 -0.00859276 0)
(1.39507 -0.0092735 0)
(1.40759 -0.00813135 0)
(1.41527 -0.00617494 0)
(1.42139 -0.00493432 0)
(1.42619 -0.00174455 0)
(1.42918 -0.00280557 0)
(1.43172 -0.0022705 0)
(1.43567 -0.000556361 0)
(1.43445 -0.00234264 0)
(1.43386 0.000726258 0)
(1.43563 -0.0012328 0)
(1.43451 -0.00339398 0)
(1.43461 0.00165873 0)
(1.43632 0.00312594 0)
(1.4388 0.00379197 0)
(1.44076 0.00318934 0)
(1.44004 0.00365698 0)
(1.43728 0.00171451 0)
(1.43683 0.000628918 0)
(1.43648 -0.0023124 0)
(1.43585 -0.00408779 0)
(1.43571 -0.00368768 0)
(1.43846 -0.00674046 0)
(1.44143 -0.00762288 0)
(1.43919 -0.0130799 0)
(1.43676 -0.0151955 0)
(1.43647 -0.0210798 0)
(1.43516 -0.0276693 0)
(1.43647 -0.0347673 0)
(1.43571 -0.0433033 0)
(1.43148 -0.051564 0)
(1.4276 -0.0639567 0)
(1.42221 -0.0769763 0)
(1.41635 -0.0896782 0)
(1.40994 -0.108827 0)
(1.39975 -0.125582 0)
(1.38568 -0.145336 0)
(1.36847 -0.163842 0)
(0.956215 -0.0117902 0)
(0.979485 -0.0294454 0)
(1.02116 -0.0402333 0)
(1.0678 -0.0504743 0)
(1.11944 -0.0546047 0)
(1.17013 -0.0543202 0)
(1.21912 -0.0501655 0)
(1.26402 -0.0431762 0)
(1.29787 -0.0359887 0)
(1.32677 -0.0295889 0)
(1.35384 -0.0236971 0)
(1.3729 -0.0182084 0)
(1.38868 -0.0160212 0)
(1.40101 -0.0141385 0)
(1.40865 -0.0111264 0)
(1.41624 -0.00884433 0)
(1.42006 -0.00591999 0)
(1.42188 -0.00568095 0)
(1.42531 -0.00347821 0)
(1.42778 -0.00253044 0)
(1.42716 -0.00334831 0)
(1.4271 -0.0004892 0)
(1.42824 -0.000336824 0)
(1.42931 -0.000134651 0)
(1.42993 0.00246339 0)
(1.42974 0.00296833 0)
(1.43171 0.0043762 0)
(1.4338 0.00218788 0)
(1.43241 -0.000787034 0)
(1.43062 0.000855942 0)
(1.42822 0.000670829 0)
(1.42761 -0.00346048 0)
(1.42983 -0.00339629 0)
(1.42969 -0.00356462 0)
(1.43181 -0.0042198 0)
(1.43332 -0.00700164 0)
(1.43024 -0.0118882 0)
(1.42823 -0.0163164 0)
(1.42791 -0.0217257 0)
(1.42683 -0.0257429 0)
(1.42684 -0.0321527 0)
(1.42555 -0.0439292 0)
(1.42128 -0.0513916 0)
(1.41601 -0.0628293 0)
(1.41052 -0.0752477 0)
(1.40318 -0.0851951 0)
(1.39517 -0.101338 0)
(1.38507 -0.11786 0)
(1.37013 -0.135186 0)
(1.3536 -0.150015 0)
(0.957179 -0.0209785 0)
(0.980708 -0.048427 0)
(1.02106 -0.0689677 0)
(1.06769 -0.0805546 0)
(1.11864 -0.0847063 0)
(1.16951 -0.0846206 0)
(1.21757 -0.0760216 0)
(1.25994 -0.0667393 0)
(1.29285 -0.0566618 0)
(1.321 -0.0459617 0)
(1.34558 -0.0368882 0)
(1.36236 -0.0294236 0)
(1.37724 -0.0236162 0)
(1.3894 -0.0200551 0)
(1.39687 -0.0140927 0)
(1.40301 -0.0108018 0)
(1.40633 -0.0109331 0)
(1.40883 -0.0078923 0)
(1.41176 -0.00333457 0)
(1.41401 -0.00458634 0)
(1.41398 -0.0022678 0)
(1.41414 3.79174e-05 0)
(1.41457 0.00114298 0)
(1.41521 0.00190099 0)
(1.4155 0.000924906 0)
(1.41658 0.000806517 0)
(1.41734 0.00329334 0)
(1.41685 0.000222215 0)
(1.41837 -0.00305608 0)
(1.4175 -0.0012411 0)
(1.41347 -0.0012815 0)
(1.41373 -0.00211813 0)
(1.41577 -0.00249448 0)
(1.4154 -0.00514932 0)
(1.41708 -0.00665317 0)
(1.41808 -0.00962616 0)
(1.4152 -0.0137039 0)
(1.41272 -0.0174707 0)
(1.41307 -0.0220012 0)
(1.41138 -0.0254481 0)
(1.4085 -0.0322919 0)
(1.4075 -0.0416704 0)
(1.40401 -0.048638 0)
(1.39755 -0.0608046 0)
(1.39359 -0.0713544 0)
(1.38546 -0.0821615 0)
(1.37444 -0.0948111 0)
(1.36364 -0.110045 0)
(1.34985 -0.124517 0)
(1.3328 -0.136871 0)
(0.958475 -0.0288589 0)
(0.98256 -0.0678517 0)
(1.02235 -0.0956642 0)
(1.06829 -0.108661 0)
(1.11706 -0.114426 0)
(1.16748 -0.110617 0)
(1.21462 -0.100839 0)
(1.25478 -0.0890396 0)
(1.2852 -0.0750791 0)
(1.30988 -0.0611156 0)
(1.33294 -0.0475575 0)
(1.3479 -0.0385306 0)
(1.35987 -0.0283183 0)
(1.37161 -0.0234666 0)
(1.37866 -0.0195121 0)
(1.3822 -0.0138338 0)
(1.3859 -0.010078 0)
(1.39031 -0.00728632 0)
(1.39117 -0.00317862 0)
(1.39213 -0.00397408 0)
(1.39399 -0.00320755 0)
(1.39328 -0.000698776 0)
(1.39344 0.000523864 0)
(1.39347 0.00102308 0)
(1.39367 -0.00220094 0)
(1.39572 -0.000917988 0)
(1.39597 5.44283e-05 0)
(1.39437 0.000324313 0)
(1.39636 -0.000501034 0)
(1.39649 -0.00161994 0)
(1.39259 -0.00231138 0)
(1.39218 -0.000835434 0)
(1.39356 -0.00404033 0)
(1.39269 -0.00508956 0)
(1.3951 -0.00773351 0)
(1.39563 -0.0105112 0)
(1.39252 -0.0147985 0)
(1.39023 -0.0175167 0)
(1.39087 -0.0221933 0)
(1.38911 -0.0263971 0)
(1.38574 -0.0304782 0)
(1.38444 -0.0376812 0)
(1.37917 -0.0452391 0)
(1.3722 -0.054443 0)
(1.36805 -0.0644494 0)
(1.35966 -0.0774273 0)
(1.34887 -0.0897149 0)
(1.33738 -0.101577 0)
(1.32361 -0.114105 0)
(1.30606 -0.125475 0)
(0.959741 -0.0370212 0)
(0.984843 -0.0873842 0)
(1.02479 -0.123971 0)
(1.06956 -0.140466 0)
(1.11688 -0.142556 0)
(1.16529 -0.135342 0)
(1.20827 -0.122669 0)
(1.24511 -0.108362 0)
(1.27359 -0.0927674 0)
(1.29676 -0.0735444 0)
(1.31503 -0.0576452 0)
(1.32752 -0.0456859 0)
(1.33802 -0.0335414 0)
(1.34517 -0.0276316 0)
(1.35271 -0.0243473 0)
(1.35863 -0.0162264 0)
(1.35972 -0.00892996 0)
(1.36275 -0.00625253 0)
(1.36327 -0.00605688 0)
(1.36331 -0.003124 0)
(1.36578 -0.00393224 0)
(1.36572 -0.00261867 0)
(1.36532 -0.000962625 0)
(1.36331 -0.00118114 0)
(1.36415 -0.00344868 0)
(1.36768 -0.00131174 0)
(1.36814 -0.00138937 0)
(1.36673 0.000439617 0)
(1.36766 -0.000209738 0)
(1.36683 -0.00119629 0)
(1.36465 -0.00246525 0)
(1.3634 -0.00186899 0)
(1.36431 -0.00590432 0)
(1.36454 -0.00614557 0)
(1.36515 -0.008428 0)
(1.36568 -0.0114158 0)
(1.36279 -0.0140131 0)
(1.36077 -0.0176998 0)
(1.36102 -0.0208143 0)
(1.36021 -0.0266511 0)
(1.35608 -0.02975 0)
(1.35345 -0.0365451 0)
(1.34898 -0.0434663 0)
(1.34141 -0.0495545 0)
(1.33542 -0.0601867 0)
(1.32654 -0.0717454 0)
(1.31664 -0.0824199 0)
(1.30516 -0.0925833 0)
(1.2913 -0.104084 0)
(1.27309 -0.116065 0)
(0.961365 -0.0453031 0)
(0.986615 -0.10745 0)
(1.02571 -0.152438 0)
(1.0724 -0.171291 0)
(1.11784 -0.169847 0)
(1.16173 -0.162562 0)
(1.20071 -0.144829 0)
(1.23236 -0.125434 0)
(1.25829 -0.106214 0)
(1.27799 -0.0855402 0)
(1.29201 -0.0691194 0)
(1.30193 -0.0534226 0)
(1.30834 -0.0416593 0)
(1.31358 -0.0331234 0)
(1.32117 -0.0245535 0)
(1.32686 -0.0183552 0)
(1.32702 -0.0136296 0)