/*--------------------------------*- C++ -*----------------------------------*\
  =========                 |
  \\      /  F ield         | OpenFOAM: The Open Source CFD Toolbox
   \\    /   O peration     | Website:  https://openfoam.org
    \\  /    A nd           | Version:  6
     \\/     M anipulation  |
\*---------------------------------------------------------------------------*/
FoamFile
{
    version     2.0;
    format      ascii;
    class       volScalarField;
    location    "0";
    object      p;
}
// * * * * * * * * * * * * * * * * * * * * * * * * * * * * * * * * * * * * * //

dimensions      [0 2 -2 0 0 0 0];

internalField   nonuniform List<scalar> 
9000
(
115.752
64.3121
50.0501
44.0235
40.8868
39.0927
37.9319
37.0919
36.4269
35.8606
35.3504
34.8714
34.4086
33.9531
33.4994
33.0445
32.587
32.1262
31.6618
31.1942
30.7236
30.2506
29.7756
29.299
28.8213
28.3429
27.8642
27.3854
26.9069
26.429
25.9521
25.4764
25.0024
24.5305
24.0611
23.595
23.1327
22.6752
22.2236
21.7794
21.3448
20.9224
20.5163
20.1324
19.7792
19.4682
19.2047
18.9597
18.9569
17.9085
87.1797
61.0529
50.6881
45.1238
41.855
39.8263
38.4664
37.4787
36.7071
36.0641
35.4983
34.9787
34.4862
34.0088
33.5392
33.0727
32.6068
32.1399
31.6712
31.2005
30.7279
30.2534
29.7775
29.3003
28.8223
28.3437
27.8648
27.3859
26.9073
26.4293
25.9522
25.4763
25.0019
24.5293
24.0591
23.5916
23.1275
22.6675
22.2124
21.7633
21.3216
20.8889
20.4674
20.0595
19.6676
19.2915
18.9192
18.5029
18.029
16.5211
69.8768
57.3999
50.5586
45.7111
42.5308
40.4082
38.9244
37.8277
36.9696
36.2602
35.644
35.0865
34.5656
34.0669
33.5814
33.1031
32.6285
32.1552
31.682
31.208
30.733
30.257
29.7799
29.302
28.8235
28.3445
27.8654
27.3864
26.9076
26.4294
25.952
25.4757
25.0007
24.5273
24.056
23.5869
23.1207
22.6576
22.1984
21.7436
21.2937
20.8493
20.4106
19.9767
19.5442
19.1032
18.628
18.0507
17.2928
15.881
60.522
53.8865
49.3708
45.4918
42.6847
40.6668
39.1834
38.053
37.154
36.4064
35.7578
35.1739
34.632
34.1169
33.6187
33.1308
32.6488
32.17
31.6926
31.2156
30.7385
30.2608
29.7826
29.3039
28.8248
28.3455
27.866
27.3867
26.9077
26.4292
25.9514
25.4746
24.9989
24.5246
24.052
23.5812
23.1127
22.6466
22.1831
21.7225
21.2646
20.809
20.3543
19.8974
19.4314
18.9423
18.401
17.7453
16.9037
15.6641
54.3286
50.7629
47.8219
44.8636
42.5145
40.6977
39.2904
38.1784
37.2731
36.51
35.8439
35.2434
34.6869
34.1597
33.6516
33.1559
32.6677
32.1841
31.7031
31.2233
30.7441
30.2649
29.7855
29.306
28.8262
28.3464
27.8666
27.3869
26.9075
26.4286
25.9504
25.473
24.9965
24.5212
24.0472
23.5747
23.1038
22.6346
22.1669
21.7007
21.2351
20.7691
20.3002
19.8239
19.3319
18.8091
18.2292
17.5439
16.7006
15.6105
49.8811
48.1115
46.2597
44.066
42.1578
40.5749
39.2835
38.2235
37.3369
36.576
35.9046
35.2959
34.7307
34.1953
33.68
33.1781
32.685
32.1974
31.7131
31.2309
30.7497
30.269
29.7886
29.3081
28.8277
28.3473
27.8671
27.387
26.9072
26.4279
25.9491
25.471
24.9937
24.5173
24.042
23.5677
23.0944
22.6221
22.1504
21.6788
21.2063
20.731
20.2501
19.7583
19.247
18.7024
18.1027
17.4132
16.5993
15.6335
46.6589
45.9207
44.8051
43.2126
41.6949
40.3474
39.1903
38.2029
37.3528
36.608
35.9416
35.3321
34.7633
34.2234
33.7035
33.1972
32.7003
32.2094
31.7225
31.2381
30.7552
30.2731
29.7916
29.3103
28.8292
28.3482
27.8675
27.3869
26.9067
26.4269
25.9475
25.4687
24.9906
24.5131
24.0364
23.5603
23.0848
22.6095
22.1341
21.6577
21.179
20.696
20.2054
19.702
19.1778
18.6209
18.0145
17.3354
16.5632
15.6996
44.2872
44.1282
43.5018
42.3691
41.182
40.0544
39.0357
38.1317
37.3295
36.6109
35.9574
35.3532
34.7855
34.2442
33.722
33.2131
32.7134
32.2201
31.7311
31.2448
30.7604
30.2771
29.7945
29.3124
28.8306
28.3491
27.8678
27.3868
26.9061
26.4257
25.9458
25.4663
24.9872
24.5087
24.0306
23.5528
23.0752
22.5973
22.1185
21.6379
21.1541
20.6649
20.167
19.6556
19.1238
18.5619
17.9577
17.2967
16.5689
15.7881
42.5016
42.6641
42.3614
41.5744
40.659
39.7275
38.8419
38.0243
37.2763
36.5902
35.9554
35.3612
34.7981
34.2584
33.7358
33.2257
32.7244
32.2294
31.7387
31.2509
30.7652
30.2808
29.7973
29.3144
28.832
28.3499
27.868
27.3865
26.9053
26.4244
25.9438
25.4636
24.9838
24.5042
24.0248
23.5455
23.0659
22.5856
22.104
21.6199
21.132
20.6381
20.1352
19.6189
19.0837
18.5221
17.9257
17.2863
16.6007
15.8862
41.1295
41.4671
41.3786
40.8486
40.1521
39.3898
38.6266
37.8935
37.2016
36.5517
35.9394
35.3585
34.8028
34.2666
33.7454
33.2353
32.7333
32.2372
31.7453
31.2564
30.7696
30.2842
29.7999
29.3163
28.8332
28.3505
27.8682
27.3862
26.9044
26.423
25.9418
25.4609
24.9802
24.4997
24.0191
23.5384
23.0571
22.5748
22.0908
21.604
21.113
20.6158
20.1098
19.5913
19.0559
18.4981
17.9127
17.2958
16.648
15.9869
40.0575
40.4867
40.5402
40.2003
39.6775
39.0582
38.4041
37.7501
37.1134
36.5007
35.9128
35.3472
34.8008
34.2699
33.7513
33.2422
32.7403
32.2437
31.751
31.2612
30.7735
30.2874
29.8023
29.318
28.8343
28.3511
27.8682
27.3857
26.9035
26.4215
25.9397
25.4582
24.9767
24.4953
24.0137
23.5317
23.049
22.565
22.0791
21.5902
21.0971
20.5979
20.0905
19.5718
19.0385
18.4869
17.9141
17.3188
16.7042
16.0859
39.2091
39.683
39.8306
39.6308
39.245
38.7444
38.1851
37.6029
37.0184
36.4422
35.8791
35.3299
34.7939
34.2693
33.7542
33.2468
32.7455
32.2488
31.7557
31.2654
30.777
30.2901
29.8044
29.3195
28.8352
28.3515
27.8681
27.3851
26.9024
26.4199
25.9376
25.4554
24.9733
24.491
24.0085
23.5255
23.0416
22.5563
22.0689
21.5787
21.0842
20.5842
20.0766
19.5592
19.0297
18.4857
17.9259
17.3508
16.7648
16.1811
38.5319
39.0249
39.2352
39.1384
38.8595
38.4561
37.9778
37.459
36.9221
36.3805
35.8415
35.3088
34.7835
34.2657
33.7547
33.2496
32.7493
32.2529
31.7596
31.2688
30.7799
30.2925
29.8062
29.3207
28.836
28.3518
27.8679
27.3845
26.9013
26.4183
25.9355
25.4527
24.9699
24.487
24.0037
23.5198
23.035
22.5487
22.0604
21.5692
21.0743
20.5742
20.0675
19.5527
19.028
18.4922
17.9451
17.3884
16.8267
16.2713
37.99
38.4885
38.7404
38.7195
38.5233
38.1985
37.788
37.3241
36.8294
36.3192
35.8028
35.2858
34.7711
34.2602
33.7535
33.2508
32.7518
32.256
31.7628
31.2717
30.7824
30.2945
29.8077
29.3218
28.8366
28.3519
27.8676
27.3837
26.9001
26.4167
25.9334
25.4501
24.9668
24.4832
23.9993
23.5147
23.0291
22.5422
22.0533
21.5618
21.0669
20.5675
20.0625
19.5509
19.0316
18.5042
17.9693
17.429
16.8881
16.3557
37.5583
38.0554
38.3352
38.3697
38.2372
37.9749
37.6199
37.2022
36.744
36.2615
35.7653
35.2627
34.758
34.2537
33.7512
33.251
32.7534
32.2582
31.7652
31.274
30.7844
30.2961
29.8089
29.3226
28.8369
28.3518
27.8672
27.3829
26.8989
26.415
25.9313
25.4476
24.9637
24.4797
23.9952
23.5101
23.024
22.5367
22.0476
21.5562
21.0617
20.5636
20.0609
19.5529
19.0394
18.5202
17.9965
17.4708
16.9474
16.4341
37.219
37.712
38.0103
38.0851
38.0007
37.7871
37.4766
37.0966
36.6689
36.2098
35.7312
35.2412
34.7453
34.2469
33.7483
33.2506
32.7543
32.2598
31.767
31.2758
30.7859
30.2974
29.8098
29.3231
28.8371
28.3517
27.8666
27.382
26.8976
26.4134
25.9292
25.4451
24.9609
24.4764
23.9915
23.506
23.0197
22.5322
22.0431
21.5521
21.0585
20.5619
20.0618
19.5579
19.05
18.5387
18.0253
17.5123
17.0039
16.5063
36.9597
37.4479
37.7584
37.8619
37.8131
37.6363
37.3601
37.0098
36.6063
36.1662
35.7019
35.2224
34.7339
34.2407
33.7454
33.2497
32.7547
32.2608
31.7682
31.277
30.7871
30.2982
29.8104
29.3234
28.8371
28.3513
27.866
27.381
26.8963
26.4117
25.9272
25.4427
24.9581
24.4733
23.9881
23.5024
23.0159
22.5284
22.0396
21.5492
21.0568
20.5621
20.0648
19.5648
19.0625
18.5585
18.0544
17.5526
17.0568
16.5723
36.7718
37.2558
37.5741
37.6972
37.6733
37.523
37.2718
36.9433
36.558
36.1322
35.6789
35.2074
34.7247
34.2354
33.7428
33.2488
32.7548
32.2614
31.7691
31.2778
30.7878
30.2988
29.8107
29.3234
28.8368
28.3508
27.8652
27.3799
26.8949
26.41
25.9252
25.4404
24.9556
24.4705
23.9851
23.4992
23.0127
22.5254
22.037
21.5474
21.0562
20.5635
20.069
19.573
19.0759
18.5787
18.0828
17.5907
17.1056
16.632
36.6495
37.1305
37.4533
37.5887
37.5807
37.4474
37.2124
36.8984
36.5251
36.109
35.663
35.197
34.7182
34.2317
33.7408
33.248
32.7547
32.2617
31.7695
31.2783
30.7881
30.2989
29.8107
29.3232
28.8364
28.3501
27.8642
27.3787
26.8934
26.4083
25.9233
25.4382
24.9531
24.4678
23.9823
23.4963
23.0099
22.5228
22.035
21.5462
21.0565
20.5658
20.0741
19.5819
19.0896
18.5984
18.1099
17.6261
17.1501
16.6855
36.5892
37.0686
37.3936
37.5348
37.5345
37.4095
37.1826
36.8757
36.5084
36.0971
35.6549
35.1917
34.7149
34.2297
33.7398
33.2475
32.7545
32.2617
31.7695
31.2783
30.788
30.2987
29.8103
29.3227
28.8357
28.3492
27.8632
27.3774
26.8919
26.4066
25.9213
25.436
24.9507
24.4653
23.9796
23.4937
23.0074
22.5206
22.0334
21.5456
21.0572
20.5685
20.0795
19.5907
19.1029
18.6172
18.135
17.6584
17.19
16.733
36.5892
37.0685
37.3936
37.5348
37.5345
37.4095
37.1826
36.8757
36.5084
36.0971
35.6549
35.1916
34.7148
34.2296
33.7396
33.2474
32.7543
32.2614
31.7692
31.2779
30.7876
30.2982
29.8097
29.3219
28.8348
28.3482
27.862
27.3761
26.8904
26.4048
25.9194
25.4339
24.9484
24.4628
23.9771
23.4912
23.005
22.5186
22.032
21.5451
21.0581
20.5712
20.0847
19.5992
19.1153
18.6343
18.1576
17.6871
17.2251
16.7744
36.6494
37.1304
37.4533
37.5887
37.5806
37.4473
37.2124
36.8983
36.525
36.1089
35.6629
35.1969
34.718
34.2314
33.7405
33.2476
32.7541
32.261
31.7686
31.2772
30.7868
30.2974
29.8088
29.321
28.8337
28.347
27.8607
27.3746
26.8888
26.403
25.9174
25.4318
24.9461
24.4604
23.9746
23.4887
23.0028
22.5167
22.0306
21.5446
21.0589
20.5737
20.0894
19.6067
19.1264
18.6495
18.1775
17.7121
17.2554
16.8099
36.7717
37.2557
37.574
37.6972
37.6732
37.5229
37.2717
36.9432
36.5578
36.1321
35.6787
35.2072
34.7243
34.235
33.7422
33.2481
32.7538
32.2602
31.7676
31.2761
30.7856
30.2962
29.8076
29.3197
28.8325
28.3457
27.8592
27.3731
26.8871
26.4012
25.9154
25.4296
24.9438
24.458
23.9722
23.4863
23.0005
22.5147
22.0291
21.5439
21.0593
20.5756
20.0933
19.613
19.1357
18.6623
18.1942
17.7331
17.2808
16.8395
36.9595
37.4478
37.7583
37.8618
37.813
37.6362
37.36
37.0096
36.6061
36.166
35.7016
35.222
34.7334
34.24
33.7445
33.2487
32.7534
32.2592
31.7662
31.2746
30.7841
30.2946
29.8061
29.3183
28.831
28.3442
27.8577
27.3715
26.8854
26.3994
25.9134
25.4275
24.9415
24.4556
23.9697
23.4838
22.9981
22.5125
22.0274
21.5428
21.0591
20.5767
20.0961
19.6179
19.143
18.6725
18.2077
17.7501
17.3014
16.8634
37.2187
37.7118
38.0101
38.0849
38.0006
37.787
37.4765
37.0965
36.6687
36.2095
35.7308
35.2407
34.7446
34.2461
33.7473
33.2492
32.7527
32.2577
31.7644
31.2726
30.7822
30.2928
29.8043
29.3166
28.8294
28.3426
27.8561
27.3698
26.8836
26.3975
25.9114
25.4253
24.9392
24.4531
23.9671
23.4811
22.9954
22.5101
22.0252
21.5412
21.0582
20.5768
20.0975
19.621
19.1481
18.68
18.2178
17.7629
17.3169
16.8816
37.558
38.0552
38.335
38.3696
38.2371
37.9747
37.6198
37.202
36.7438
36.2611
35.7649
35.2621
34.7572
34.2527
33.7499
33.2495
32.7515
32.2558
31.7621
31.2703
30.7799
30.2907
29.8023
29.3147
28.8276
28.3409
27.8544
27.368
26.8818
26.3955
25.9093
25.423
24.9367
24.4505
23.9643
23.4783
22.9925
22.5072
22.0225
21.5388
21.0564
20.5757
20.0974
19.6221
19.1508
18.6845
18.2242
17.7715
17.3276
16.8942
37.9897
38.4882
38.7402
38.7193
38.5232
38.1983
37.7878
37.3238
36.8292
36.3188
35.8023
35.2851
34.7703
34.2591
33.7521
33.2491
32.7496
32.2532
31.7593
31.2675
30.7772
30.2882
29.8001
29.3127
28.8257
28.3391
27.8526
27.3663
26.8799
26.3936
25.9072
25.4207
24.9342
24.4478
23.9614
23.4752
22.9893
22.5039
22.0193
21.5357
21.0535
20.5733
20.0957
19.6213
19.151
18.6859
18.2271
17.7758
17.3334
16.9014
38.5316
39.0247
39.2349
39.1383
38.8593
38.4559
37.9776
37.4588
36.9218
36.3801
35.841
35.3081
34.7826
34.2645
33.7532
33.2476
32.7468
32.2498
31.7558
31.2641
30.7741
30.2854
29.7976
29.3105
28.8237
28.3372
27.8508
27.3644
26.878
26.3916
25.905
25.4184
24.9317
24.445
23.9583
23.4718
22.9857
22.5001
22.0153
21.5317
21.0496
20.5695
20.0922
19.6182
19.1486
18.6842
18.2263
17.7759
17.3344
16.9032
39.2087
39.6828
39.8304
39.6307
39.2448
38.7442
38.1849
37.6027
37.018
36.4418
35.8786
35.3292
34.7929
34.2681
33.7526
33.2448
32.7429
32.2455
31.7516
31.2602
30.7706
30.2824
29.795
29.3081
28.8216
28.3353
27.849
27.3626
26.8762
26.3896
25.9029
25.416
24.929
24.442
23.955
23.4682
22.9817
22.4958
22.0107
21.5267
21.0444
20.5643
20.0869
19.613
19.1435
18.6794
18.2218
17.7718
17.3306
16.8996
40.0572
40.4864
40.5399
40.2001
39.6774
39.0581
38.4039
37.7498
37.1131
36.5003
35.9122
35.3465
34.7999
34.2687
33.7497
33.2401
32.7375
32.2402
31.7466
31.2557
30.7668
30.279
29.7921
29.3057
28.8195
28.3333
27.8472
27.3609
26.8744
26.3877
25.9008
25.4136
24.9264
24.439
23.9516
23.4643
22.9774
22.4909
22.0053
21.5209
21.0381
20.5575
20.0797
19.6055
19.1358
18.6715
18.2136
17.7634
17.3221
16.8909
41.1292
41.4668
41.3784
40.8485
40.1519
39.3897
38.6264
37.8933
37.2013
36.5513
35.9388
35.3578
34.8018
34.2654
33.7437
33.2331
32.7305
32.2336
31.7408
31.2507
30.7625
30.2755
29.7891
29.3032
28.8173
28.3314
27.8454
27.3591
26.8726
26.3858
25.8987
25.4113
24.9236
24.4358
23.948
23.4602
22.9726
22.4855
21.9992
21.5141
21.0306
20.5492
20.0707
19.5958
19.1254
18.6603
18.2018
17.751
17.3089
16.877
42.5013
42.6639
42.3612
41.5742
40.6589
39.7273
38.8417
38.0241
37.276
36.5899
35.955
35.3606
34.7972
34.2572
33.7342
33.2235
32.7216
32.2257
31.734
31.2451
30.7579
30.2717
29.7861
29.3006
28.8152
28.3296
27.8437
27.3575
26.8709
26.384
25.8966
25.4089
24.9209
24.4327
23.9442
23.4558
22.9675
22.4797
21.9925
21.5064
21.0219
20.5395
20.0599
19.5839
19.1123
18.6461
18.1865
17.7344
17.2912
16.8581
44.287
44.128
43.5016
42.369
41.1819
40.0543
39.0356
38.1315
37.3294
36.6106
35.957
35.3526
34.7846
34.2431
33.7204
33.211
32.7107
32.2165
31.7265
31.2389
30.7529
30.2678
29.783
29.2982
28.8132
28.3279
27.8422
27.356
26.8694
26.3823
25.8947
25.4067
24.9182
24.4294
23.9404
23.4512
22.9621
22.4733
21.9851
21.4979
21.0121
20.5284
20.0474
19.5698
19.0967
18.6289
18.1676
17.7139
17.269
16.8342
46.6587
45.9205
44.8049
43.2125
41.6948
40.3473
39.1902
38.2028
37.3527
36.6078
35.9412
35.3316
34.7626
34.2224
33.702
33.1953
32.6977
32.206
31.718
31.2323
30.7478
30.2638
29.7799
29.2958
28.8113
28.3263
27.8408
27.3547
26.8681
26.3808
25.893
25.4046
24.9156
24.4263
23.9365
23.4465
22.9565
22.4666
21.9771
21.4885
21.0013
20.5159
20.0331
19.5537
19.0785
18.6087
18.1453
17.6894
17.2424
16.8055
49.8809
48.1113
46.2596
44.0659
42.1578
40.5749
39.2835
38.2235
37.3369
36.5759
35.9044
35.2955
34.7301
34.1944
33.6788
33.1764
32.6826
32.1941
31.7089
31.2253
30.7425
30.2598
29.7769
29.2936
28.8096
28.325
27.8397
27.3537
26.8669
26.3795
25.8914
25.4026
24.9132
24.4232
23.9327
23.4418
22.9506
22.4595
21.9687
21.4785
20.9895
20.5022
20.0172
19.5356
19.058
18.5857
18.1196
17.6611
17.2115
16.7719
54.3284
50.7627
47.8218
44.8636
42.5145
40.6977
39.2905
38.1785
37.2732
36.51
35.8438
35.2432
34.6865
34.1591
33.6506
33.1544
32.6656
32.1812
31.6992
31.2181
30.7372
30.256
29.7742
29.2916
28.8082
28.3239
27.8388
27.3528
26.8661
26.3785
25.89
25.4009
24.9109
24.4202
23.9289
23.437
22.9447
22.4523
21.9599
21.4679
20.9768
20.4873
19.9999
19.5156
19.0352
18.5599
18.0908
17.6291
17.1763
16.7336
60.5219
53.8865
49.3708
45.4918
42.6847
40.6669
39.1836
38.0532
37.1542
36.4066
35.7579
35.1739
34.6318
34.1165
33.618
33.1296
32.6471
32.1675
31.6891
31.2109
30.7321
30.2524
29.7717
29.29
28.8071
28.3232
27.8383
27.3524
26.8655
26.3777
25.889
25.3994
24.9089
24.4175
23.9253
23.4324
22.9389
22.4449
21.9508
21.4568
20.9635
20.4715
19.9813
19.4939
19.0103
18.5315
18.0588
17.5935
17.137
16.6908
69.8767
57.3999
50.5586
45.7111
42.5309
40.4084
38.9246
37.828
36.9699
36.2605
35.6443
35.0868
34.5657
34.0668
33.581
33.1024
32.6272
32.1532
31.679
31.2038
30.7273
30.2493
29.7698
29.2888
28.8065
28.3229
27.8381
27.3523
26.8653
26.3773
25.8883
25.3983
24.9072
24.4151
23.922
23.4279
22.933
22.4375
21.9414
21.4453
20.9495
20.4546
19.9613
19.4704
18.983
18.5003
18.0234
17.5539
17.0931
16.6425
87.1796
61.0529
50.6881
45.1239
41.8552
39.8266
38.4667
37.4791
36.7076
36.0646
35.4988
34.9792
34.4866
34.0091
33.5392
33.0724
32.606
32.1385
31.6689
31.1971
30.723
30.2467
29.7684
29.2882
28.8064
28.3231
27.8385
27.3526
26.8656
26.3774
25.8881
25.3976
24.9059
24.413
23.9189
23.4236
22.9273
22.4299
21.9317
21.4331
20.9344
20.4362
19.9392
19.4442
18.9524
18.4649
17.9831
17.5084
17.0424
16.5868
115.752
64.3121
50.0501
44.0236
40.887
39.0931
37.9323
37.0924
36.4275
35.8613
35.3511
34.8722
34.4093
33.9537
33.4998
33.0447
32.5868
32.1254
31.6603
31.1916
30.7197
30.2449
29.7676
29.2881
28.8067
28.3237
27.8392
27.3533
26.8662
26.3778
25.8881
25.3972
24.905
24.4114
23.9164
23.42
22.9222
22.4232
21.923
21.4219
20.9204
20.419
19.9184
19.4194
18.9232
18.431
17.9442
17.4645
16.9934
16.5327
8.30266
10.2553
10.366
10.7528
10.9632
11.1139
11.2038
11.2531
11.2703
11.2627
11.235
11.1909
11.1333
11.0643
10.9857
10.8988
10.8049
10.705
10.5999
10.4904
10.377
10.2604
10.141
10.0193
9.89553
9.77008
9.64321
9.51516
9.38613
9.2563
9.12582
8.99482
8.86341
8.73169
8.59973
8.4676
8.33536
8.20305
8.07071
7.93837
7.80605
7.67377
7.54155
7.40939
7.2773
7.14529
7.01336
6.8815
6.74973
6.61802
6.48639
6.35483
6.22333
6.09189
5.9605
5.82917
5.69789
5.56664
5.43544
5.30427
5.17313
5.04202
4.91093
4.77986
4.64882
4.51779
4.38677
4.25577
4.12478
3.9938
3.86282
3.73185
3.60089
3.46994
3.33898
3.20803
3.07708
2.94614
2.81519
2.68425
2.55331
2.42237
2.29143
2.16049
2.02955
1.89862
1.76768
1.63674
1.5058
1.37486
1.24392
1.11299
0.982048
0.85111
0.720172
0.589234
0.458296
0.327356
0.196426
0.065462
10.7314
11.2826
10.9885
11.1522
11.2448
11.3236
11.3665
11.3824
11.3747
11.3475
11.3042
11.2474
11.1791
11.1012
11.0151
10.922
10.8228
10.7184
10.6096
10.497
10.3811
10.2624
10.1414
10.0183
9.89352
9.76728
9.63984
9.51139
9.38211
9.25215
9.12163
8.99067
8.85937
8.72779
8.59602
8.4641
8.33208
8.2
8.06789
7.93578
7.80369
7.67163
7.53961
7.40765
7.27574
7.1439
7.01213
6.88042
6.74877
6.61719
6.48566
6.3542
6.22278
6.09142
5.96011
5.82883
5.6976
5.5664
5.43524
5.3041
5.173
5.04191
4.91085
4.7798
4.64877
4.51775
4.38675
4.25575
4.12477
3.99379
3.86282
3.73186
3.6009
3.46995
3.33899
3.20804
3.0771
2.94615
2.81521
2.68427
2.55332
2.42238
2.29144
2.1605
2.02956
1.89863
1.76769
1.63675
1.50581
1.37487
1.24393
1.11299
0.982053
0.851114
0.720175
0.589236
0.458297
0.327357
0.196423
0.0654676
12.062
12.0287
11.5545
11.5441
11.5315
11.5401
11.5353
11.5167
11.4829
11.4355
11.3759
11.3058
11.2266
11.1396
11.0457
10.9461
10.8415
10.7325
10.6199
10.5041
10.3856
10.2648
10.142
10.0176
9.89172
9.76466
9.63661
9.50774
9.37818
9.24807
9.1175
8.98657
8.85535
8.72391
8.59231
8.46059
8.32879
8.19693
8.06506
7.93317
7.8013
7.66946
7.53765
7.40588
7.27417
7.1425
7.01088
6.87931
6.7478
6.61634
6.48492
6.35355
6.22223
6.09095
5.9597
5.82849
5.69731
5.56616
5.43504
5.30394
5.17286
5.0418
4.91076
4.77973
4.64872
4.51771
4.38672
4.25574
4.12476
3.99379
3.86282
3.73186
3.60091
3.46996
3.339
3.20806
3.07711
2.94617
2.81522
2.68428
2.55334
2.4224
2.29146
2.16052
2.02958
1.89864
1.7677
1.63676
1.50582
1.37488
1.24394
1.113
0.982057
0.851117
0.720178
0.589238
0.458298
0.327357
0.19642
0.0654729
12.973
12.6146
12.0569
11.9142
11.8131
11.7574
11.7065
11.6537
11.5937
11.5256
11.4494
11.3657
11.2753
11.1789
11.0772
10.971
10.8608
10.7472
10.6307
10.5116
10.3905
10.2675
10.1429
10.017
9.89007
9.76217
9.63349
9.50417
9.37432
9.24404
9.1134
8.98249
8.85135
8.72005
8.58861
8.45708
8.32549
8.19386
8.06221
7.93055
7.79891
7.66728
7.53568
7.40411
7.27257
7.14107
7.00961
6.87819
6.74681
6.61547
6.48417
6.3529
6.22166
6.09046
5.95928
5.82813
5.69701
5.56591
5.43483
5.30376
5.17272
5.04169
4.91067
4.77966
4.64866
4.51767
4.38669
4.25572
4.12475
3.99378
3.86282
3.73187
3.60091
3.46996
3.33902
3.20807
3.07712
2.94618
2.81524
2.68429
2.55335
2.42241
2.29147
2.16053
2.02959
1.89865
1.76771
1.63676
1.50582
1.37488
1.24394
1.113
0.982062
0.851121
0.720181
0.58924
0.458299
0.327358
0.196417
0.0654782
13.6351
13.0938
12.498
12.2568
12.0838
11.971
11.8772
11.7912
11.7054
11.6167
11.5239
11.4265
11.3247
11.2188
11.1092
10.9963
10.8805
10.7622
10.6417
10.5194
10.3955
10.2703
10.1439
10.0166
9.88854
9.75977
9.63045
9.50066
9.37051
9.24005
9.10934
8.97843
8.84737
8.71619
8.58492
8.45358
8.32219
8.19078
8.05936
7.92793
7.7965
7.66509
7.53369
7.40231
7.27096
7.13963
7.00834
6.87706
6.74582
6.6146
6.48341
6.35224
6.22109
6.08997
5.95886
5.82777
5.69671
5.56565
5.43461
5.30359
5.17257
5.04157
4.91057
4.77958
4.6486
4.51763
4.38666
4.2557
4.12473
3.99378
3.86282
3.73187
3.60092
3.46997
3.33903
3.20808
3.07714
2.94619
2.81525
2.68431
2.55336
2.42242
2.29148
2.16054
2.0296
1.89866
1.76771
1.63677
1.50583
1.37489
1.24395
1.11301
0.982067
0.851125
0.720184
0.589242
0.4583
0.327359
0.196414
0.0654832
14.1217
13.4905
12.8828
12.5703
12.3399
12.1776
12.0447
11.9275
11.8167
11.7079
11.5986
11.4876
11.3745
11.2591
11.1415
11.0219
10.9004
10.7773
10.6529
10.5273
10.4007
10.2732
10.1451
10.0163
9.88707
9.75742
9.62745
9.4972
9.36673
9.23608
9.10529
8.97438
8.84339
8.71233
8.58122
8.45007
8.31889
8.1877
8.0565
7.92529
7.79408
7.66288
7.53169
7.40051
7.26934
7.13819
7.00705
6.87593
6.74481
6.61372
6.48264
6.35157
6.22051
6.08947
5.95843
5.82741
5.6964
5.56539
5.4344
5.30341
5.17243
5.04145
4.91048
4.77951
4.64855
4.51759
4.38663
4.25567
4.12472
3.99377
3.86282
3.73187
3.60093
3.46998
3.33904
3.20809
3.07715
2.94621
2.81526
2.68432
2.55338
2.42244
2.29149
2.16055
2.02961
1.89867
1.76772
1.63678
1.50584
1.3749
1.24396
1.11301
0.982071
0.851129
0.720187
0.589244
0.458301
0.32736
0.196412
0.0654882
14.4904
13.8232
13.2179
12.8549
12.5793
12.3751
12.2071
12.0611
11.9267
11.7984
11.673
11.5486
11.4242
11.2993
11.1738
11.0474
10.9203
10.7925
10.6642
10.5352
10.4059
10.2762
10.1462
10.016
9.88562
9.7551
9.62446
9.49374
9.36295
9.23212
9.10125
8.97034
8.83942
8.70848
8.57753
8.44656
8.31559
8.18461
8.05363
7.92265
7.79166
7.66068
7.52969
7.39871
7.26772
7.13674
7.00576
6.87478
6.74381
6.61283
6.48186
6.35089
6.21993
6.08897
5.958
5.82705
5.69609
5.56513
5.43418
5.30323
5.17228
5.04133
4.91038
4.77943
4.64849
4.51754
4.3866
4.25565
4.12471
3.99376
3.86282
3.73188
3.60093
3.46999
3.33905
3.2081
3.07716
2.94622
2.81528
2.68433
2.55339
2.42245
2.2915
2.16056
2.02962
1.89868
1.76773
1.63679
1.50585
1.3749
1.24396
1.11302
0.982076
0.851133
0.72019
0.589246
0.458303
0.327361
0.196409
0.0654929
14.7806
14.1063
13.5102
13.1122
12.8015
12.562
12.3632
12.1907
12.0341
11.8872
11.7462
11.6088
11.4734
11.3392
11.2058
11.0728
10.9401
10.8076
10.6753
10.5431
10.411
10.2791
10.1473
10.0157
9.88415
9.75275
9.62146
9.49027
9.35918
9.22816
9.0972
8.9663
8.83545
8.70463
8.57383
8.44305
8.31229
8.18153
8.05077
7.92001
7.78924
7.65847
7.52769
7.3969
7.2661
7.13529
7.00447
6.87364
6.7428
6.61195
6.48109
6.35022
6.21935
6.08846
5.95757
5.82668
5.69578
5.56487
5.43396
5.30305
5.17213
5.04121
4.91028
4.77936
4.64843
4.5175
4.38656
4.25563
4.12469
3.99376
3.86282
3.73188
3.60094
3.47
3.33906
3.20812
3.07717
2.94623
2.81529
2.68435
2.5534
2.42246
2.29152
2.16057
2.02963
1.89869
1.76774
1.6368
1.50586
1.37491
1.24397
1.11302
0.982081
0.851137
0.720193
0.589249
0.458304
0.327362
0.196407
0.0654973
15.0166
14.3501
13.7661
13.3443
13.0064
12.7375
12.5117
12.3154
12.1382
11.9738
11.8179
11.6678
11.5216
11.3784
11.2373
11.0977
10.9595
10.8224
10.6862
10.5507
10.416
10.2819
10.1483
10.0152
9.88261
9.75035
9.61842
9.48677
9.35537
9.22417
9.09314
8.96225
8.83147
8.70077
8.57014
8.43955
8.30899
8.17845
8.04791
7.91737
7.78683
7.65627
7.5257
7.3951
7.26449
7.13385
7.00319
6.8725
6.74179
6.61107
6.48032
6.34955
6.21877
6.08796
5.95715
5.82631
5.69547
5.56461
5.43374
5.30287
5.17198
5.04109
4.91019
4.77928
4.64837
4.51745
4.38653
4.25561
4.12468
3.99375
3.86282
3.73188
3.60095
3.47001
3.33907
3.20813
3.07719
2.94625
2.8153
2.68436
2.55342
2.42247
2.29153
2.16059
2.02964
1.8987
1.76775
1.63681
1.50586
1.37492
1.24397
1.11303
0.982085
0.851141
0.720196
0.589251
0.458305
0.327363
0.196405
0.0655016
15.2137
14.5623
13.991
13.5533
13.1944
12.9013
12.6521
12.4343
12.2383
12.0574
11.8874
11.7251
11.5686
11.4166
11.2679
11.122
10.9784
10.8367
10.6967
10.5581
10.4207
10.2844
10.1491
10.0147
9.88095
9.74785
9.6153
9.48321
9.35152
9.22016
9.08906
8.95818
8.82748
8.69691
8.56644
8.43604
8.30569
8.17537
8.04506
7.91475
7.78442
7.65408
7.52371
7.39331
7.26288
7.13241
7.00191
6.87137
6.7408
6.61019
6.47955
6.34889
6.21819
6.08747
5.95672
5.82595
5.69516
5.56435
5.43353
5.30269
5.17183
5.04097
4.91009
4.77921
4.64831
4.51741
4.3865
4.25559
4.12467
3.99374
3.86282
3.73188
3.60095
3.47002
3.33908
3.20814
3.0772
2.94626
2.81532
2.68437
2.55343
2.42249
2.29154
2.1606
2.02965
1.89871
1.76776
1.63682
1.50587
1.37493
1.24398
1.11304
0.98209
0.851145
0.720199
0.589253
0.458306
0.327364
0.196403
0.0655055
15.3821
14.7483
14.1893
13.7414
13.3664
13.0532
12.7838
12.547
12.3337
12.1376
11.9542
11.7805
11.614
11.4534
11.2975
11.1454
10.9966
10.8505
10.7067
10.565
10.4251
10.2867
10.1497
10.0139
9.87912
9.74522
9.61208
9.47957
9.34761
9.21609
9.08494
8.95409
8.82347
8.69304
8.56274
8.43254
8.3024
8.1723
8.04221
7.91213
7.78203
7.6519
7.52173
7.39153
7.26128
7.13098
7.00064
6.87024
6.73981
6.60932
6.47879
6.34823
6.21762
6.08698
5.9563
5.82559
5.69486
5.5641
5.43332
5.30251
5.17169
5.04085
4.91
4.77913
4.64825
4.51737
4.38647
4.25556
4.12465
3.99374
3.86281
3.73189
3.60096
3.47003
3.33909
3.20815
3.07721
2.94627
2.81533
2.68439
2.55344
2.4225
2.29155
2.16061
2.02966
1.89872
1.76777
1.63683
1.50588
1.37493
1.24399
1.11304
0.982095
0.851149
0.720202
0.589256
0.458308
0.327365
0.196402
0.0655092
15.5282
14.9124
14.3649
13.9106
13.5232
13.1935
12.9068
12.653
12.4241
12.2139
12.0181
11.8334
11.6575
11.4888
11.3258
11.1678
11.0138
10.8634
10.7161
10.5714
10.429
10.2886
10.15
10.0129
9.8771
9.74243
9.60872
9.47583
9.34362
9.21197
9.08078
8.94997
8.81945
8.68916
8.55904
8.42903
8.29911
8.16924
8.03938
7.90952
7.77964
7.64973
7.51977
7.38976
7.25969
7.12957
6.99938
6.86913
6.73883
6.60846
6.47805
6.34758
6.21706
6.08649
5.95589
5.82524
5.69456
5.56385
5.43311
5.30234
5.17155
5.04074
4.90991
4.77906
4.6482
4.51733
4.38644
4.25555
4.12464
3.99373
3.86281
3.73189
3.60097
3.47004
3.3391
3.20816
3.07723
2.94629
2.81534
2.6844
2.55346
2.42251
2.29157
2.16062
2.02967
1.89873
1.76778
1.63683
1.50589
1.37494
1.24399
1.11305
0.9821
0.851153
0.720205
0.589258
0.458309
0.327366
0.1964
0.0655126
15.6567
15.0578
14.5207
14.0626
13.6657
13.3224
13.0208
12.7521
12.509
12.2859
12.0785
11.8836
11.6988
11.5223
11.3527
11.1889
11.0301
10.8756
10.7248
10.5772
10.4324
10.2901
10.1499
10.0116
9.87483
9.73944
9.60521
9.47196
9.33952
9.20777
9.07657
8.94581
8.8154
8.68526
8.55533
8.42554
8.29584
8.16619
8.03657
7.90694
7.77728
7.64758
7.51783
7.38801
7.25813
7.12817
6.99814
6.86804
6.73787
6.60762
6.47731
6.34694
6.21651
6.08602
5.95548
5.8249
5.69427
5.56361
5.43291
5.30218
5.17141
5.04063
4.90982
4.77899
4.64815
4.51729
4.38641
4.25553
4.12463
3.99373
3.86282
3.7319
3.60097
3.47005
3.33911
3.20818
3.07724
2.9463
2.81536
2.68441
2.55347
2.42252
2.29158
2.16063
2.02968
1.89874
1.76779
1.63684
1.5059
1.37495
1.244
1.11305
0.982104
0.851157
0.720208
0.589261
0.458311
0.327367
0.196399
0.0655156
15.7706
15.1871
14.6591
14.1991
13.7949
13.4403
13.1259
12.8441
12.5883
12.3534
12.1353
11.9308
11.7376
11.5537
11.3778
11.2085
11.0451
10.8866
10.7325
10.5822
10.4352
10.2911
10.1494
10.0099
9.87227
9.73622
9.60151
9.46794
9.33532
9.20348
9.07229
8.9416
8.81133
8.68136
8.55162
8.42204
8.29257
8.16316
8.03377
7.90437
7.77494
7.64546
7.51591
7.38629
7.25659
7.1268
6.99693
6.86697
6.73692
6.6068
6.47659
6.34632
6.21597
6.08556
5.95509
5.82457
5.69399
5.56337
5.43271
5.30202
5.17128
5.04052
4.90974
4.77893
4.6481
4.51725
4.38639
4.25551
4.12462
3.99373
3.86282
3.7319
3.60098
3.47006
3.33913
3.20819
3.07725
2.94631
2.81537
2.68443
2.55348
2.42254
2.29159
2.16064
2.0297
1.89875
1.7678
1.63685
1.5059
1.37495
1.24401
1.11306
0.982109
0.851161
0.720212
0.589263
0.458313
0.327368
0.196398
0.0655184
15.8721
15.3022
14.7823
14.3214
13.9115
13.5477
13.2223
12.9289
12.6617
12.4161
12.1881
11.9747
11.7736
11.5829
11.401
11.2266
11.0587
10.8966
10.7394
10.5865
10.4373
10.2915
10.1484
10.0079
9.86939
9.73272
9.59759
9.46375
9.33098
9.1991
9.06794
8.93735
8.80722
8.67743
8.5479
8.41855
8.28932
8.16015
8.031
7.90183
7.77263
7.64337
7.51402
7.3846
7.25507
7.12545
6.99573
6.86592
6.736
6.60599
6.47589
6.34571
6.21545
6.08511
5.95471
5.82424
5.69372
5.56315
5.43253
5.30186
5.17116
5.04043
4.90966
4.77887
4.64805
4.51722
4.38637
4.2555
4.12462
3.99372
3.86282
3.73191
3.60099
3.47007
3.33914
3.2082
3.07727
2.94633
2.81539
2.68444
2.5535
2.42255
2.2916
2.16066
2.02971
1.89876
1.76781
1.63686
1.50591
1.37496
1.24401
1.11306
0.982114
0.851165
0.720215
0.589266
0.458314
0.327369
0.196398
0.0655208
15.9626
15.4046
14.8916
14.4307
14.0163
13.6448
13.31
13.0064
12.7291
12.4737
12.2367
12.0152
11.8068
11.6096
11.4221
11.2429
11.0709
10.9053
10.7451
10.5898
10.4387
10.2912
10.1469
10.0053
9.86613
9.72893
9.59344
9.45937
9.3265
9.1946
9.0635
8.93304
8.80307
8.67349
8.54418
8.41507
8.28608
8.15715
8.02825
7.89932
7.77035
7.6413
7.51217
7.38293
7.25359
7.12414
6.99457
6.86489
6.7351
6.60521
6.47521
6.34512
6.21495
6.08468
5.95435
5.82394
5.69346
5.56293
5.43235
5.30172
5.17104
5.04033
4.90959
4.77881
4.64801
4.51719
4.38635
4.25549
4.12461
3.99373
3.86283
3.73192
3.601
3.47008
3.33915
3.20822
3.07728
2.94634
2.8154
2.68446
2.55351
2.42256
2.29162
2.16067
2.02972
1.89877
1.76782
1.63687
1.50592
1.37497
1.24402
1.11307
0.982119
0.851169
0.720218
0.589268
0.458316
0.327371
0.196397
0.0655229
16.0433
15.4955
14.9886
14.5279
14.1101
13.7321
13.3892
13.0768
12.7904
12.5262
12.281
12.052
11.8368
11.6337
11.4409
11.2572
11.0814
10.9125
10.7497
10.5921
10.4392
10.2902
10.1448
10.0023
9.86247
9.72481
9.58902
9.45478
9.32185
9.18998
9.05898
8.92867
8.79889
8.66952
8.54045
8.41159
8.28285
8.15418
8.02553
7.89684
7.7681
7.63927
7.51035
7.3813
7.25214
7.12285
6.99344
6.8639
6.73423
6.60445
6.47456
6.34456
6.21446
6.08427
5.954
5.82364
5.69322
5.56273
5.43218
5.30158
5.17094
5.04025
4.90952
4.77876
4.64798
4.51717
4.38633
4.25548
4.12461
3.99373
3.86283
3.73193
3.60101
3.47009
3.33917
3.20823
3.0773
2.94636
2.81542
2.68447
2.55352
2.42258
2.29163
2.16068
2.02973
1.89878
1.76783
1.63688
1.50593
1.37498
1.24403
1.11307
0.982124
0.851173