/*--------------------------------*- C++ -*----------------------------------*\
  =========                 |
  \\      /  F ield         | OpenFOAM: The Open Source CFD Toolbox
   \\    /   O peration     | Website:  https://openfoam.org
    \\  /    A nd           | Version:  6
     \\/     M anipulation  |
\*---------------------------------------------------------------------------*/
FoamFile
{
    version     2.0;
    format      ascii;
    class       volVectorField;
    location    "./ITHACAoutput/Offline/1";
    object      U_rec;
}
// * * * * * * * * * * * * * * * * * * * * * * * * * * * * * * * * * * * * * //

dimensions      [0 1 -1 0 0 0 0];

internalField   nonuniform List<vector> 
13046
(
(-0.636439 0.299159 0)
(-0.70057 -0.193569 -6.97221e-21)
(-0.162787 -0.0907499 -1.4615e-20)
(-0.574219 0.177564 0)
(-0.153645 0.00181957 -1.3441e-20)
(-0.570117 -0.202018 0)
(-0.649933 0.213328 2.05071e-21)
(-0.647081 -0.255279 3.52224e-21)
(-0.122377 0.0147429 -1.46183e-20)
(-1.52682 0.720009 4.0991e-21)
(-1.5844 -0.687397 0)
(0.0813185 -0.00773777 8.86403e-21)
(-0.845008 0.373217 -6.45736e-21)
(-0.869826 -0.306291 -1.0572e-20)
(-0.0688397 -0.0531491 7.76423e-21)
(-1.45473 0.806964 -6.00838e-21)
(0.0443925 -0.020074 2.133e-20)
(-1.62298 -0.564018 3.52745e-21)
(-0.288808 0.10789 0)
(-0.39039 -0.164711 -7.43794e-21)
(-0.513833 0.0362508 2.16414e-20)
(-1.47167 0.796081 -2.30718e-21)
(0.0573392 -0.0143212 -2.84738e-20)
(-1.61547 -0.590318 0)
(-0.51192 0.189882 8.5497e-21)
(-0.561243 -0.144003 -1.71911e-20)
(-0.188251 -0.0601095 0)
(-0.862877 0.416622 -1.15297e-20)
(-0.909926 -0.304927 3.1151e-21)
(-0.0740523 -0.071555 -1.36254e-20)
(-0.657891 0.328454 0)
(-0.736511 -0.176333 0)
(-0.178089 -0.115472 1.48756e-20)
(-0.443337 0.144129 -9.93049e-21)
(-0.220171 -0.0583127 5.08579e-21)
(-0.497434 -0.102856 2.99533e-20)
(-0.426019 0.112916 -1.53696e-20)
(-0.230876 -0.0301643 7.78741e-21)
(-0.457381 -0.0981679 -1.53556e-20)
(-0.524061 0.316708 1.04869e-20)
(-0.404149 -0.274097 2.67596e-21)
(-0.744343 -0.0495201 -1.05183e-20)
(-0.378794 0.0214055 6.96649e-21)
(-0.297822 0.00956401 1.17743e-20)
(-0.351885 -0.0539959 0)
(-0.41966 0.0336505 4.4512e-21)
(-0.272728 0.0376335 -1.81164e-20)
(-0.363664 -0.090252 -2.26283e-21)
(-0.667937 0.292987 0)
(-0.715262 -0.224064 -4.96631e-22)
(-0.123159 -0.065746 -7.48846e-23)
(-0.681078 -0.470606 1.65439e-20)
(-0.447078 0.326439 0)
(-0.905473 0.0630708 -1.23775e-20)
(-0.77698 -0.530387 -2.35911e-20)
(-0.961999 0.103081 -1.95853e-20)
(-0.391648 0.294087 1.57182e-20)
(-1.36537 -0.325153 -2.10291e-21)
(-1.19129 0.768088 0)
(-0.163921 -0.165159 1.19538e-20)
(-1.13147 0.40412 -6.04567e-21)
(-1.10109 -0.542922 5.9509e-21)
(-0.0134826 0.0422372 -3.21524e-20)
(0.0732541 -0.0135097 1.64313e-20)
(-1.49147 -0.629095 -3.09326e-21)
(-1.45131 0.672236 -8.1529e-21)
(-1.12383 0.752915 0)
(-1.29533 -0.265604 0)
(-0.228864 -0.216903 0)
(-1.06481 0.713055 -4.33163e-21)
(-1.23557 -0.242687 0)
(-0.250195 -0.230432 9.58032e-21)
(-1.43011 -0.341949 0)
(-1.24514 0.801637 1.66016e-22)
(-0.14456 -0.157333 -6.44836e-23)
(-0.32274 0.138876 0)
(-0.383973 -0.184812 8.0062e-21)
(-0.550879 0.00989759 -1.53995e-20)
(-0.0675584 -0.0988569 1.30803e-20)
(-1.32211 0.821428 -1.21331e-20)
(-1.50808 -0.415753 0)
(-0.559629 0.20727 4.49676e-21)
(-0.589946 -0.17438 0)
(-0.158265 -0.0367004 0)
(0.0769631 -0.0123101 -1.46862e-20)
(-1.53044 -0.642637 -2.1614e-21)
(-1.48557 0.697454 4.78113e-21)
(-1.50226 0.554857 -8.60194e-21)
(0.0553186 0.0126728 0)
(-1.4312 -0.740023 -2.46345e-21)
(-0.0237746 0.0481161 0)
(-1.59026 0.447423 0)
(-1.3994 -0.86549 2.99469e-22)
(-1.17463 0.561748 0)
(-1.23997 0.576235 5.13548e-21)
(-1.22533 -0.469843 1.12827e-20)
(-1.28076 -0.517766 -5.26629e-21)
(0.0126495 -0.0406089 -6.86349e-21)
(0.0342574 -0.0249034 1.7698e-20)
(0.0364919 0.0229362 -8.27172e-22)
(-1.49062 0.523233 8.41854e-21)
(-1.40078 -0.759165 0)
(-0.457627 0.0698597 -3.44169e-23)
(-0.239328 0.0351506 9.37392e-21)
(-0.41153 -0.128426 0)
(-0.273343 0.208224 0)
(-0.870089 0.146657 -6.17339e-21)
(-0.744925 -0.452377 0)
(-0.433468 0.299285 1.79275e-20)
(-0.58849 -0.388362 0)
(-0.812967 0.0335488 -2.37792e-20)
(-1.43941 0.697633 0)
(0.064674 -0.00888103 0)
(-1.48371 -0.687869 -7.29987e-22)
(-0.764086 0.332663 1.78356e-20)
(-0.802444 -0.27014 4.579e-21)
(-0.0863825 -0.0473786 1.42986e-20)
(-1.25435 0.658337 6.59155e-21)
(-1.18677 0.608899 -1.25238e-20)
(-1.34012 -0.468494 -9.46568e-21)
(0.00144915 -0.0580216 7.90482e-21)
(-1.259 -0.443173 5.52799e-21)
(-0.00561186 -0.0590514 -7.38389e-21)
(-1.51305 0.733632 -2.65629e-21)
(-1.58611 -0.682058 -2.61367e-21)
(0.0781354 -0.00578153 -3.95989e-21)
(-1.03253 0.503586 0)
(-1.07997 -0.389817 -7.8307e-21)
(-0.0286897 -0.06389 1.64579e-20)
(-0.587036 0.3469 0)
(-0.343417 -0.241175 -1.34864e-20)
(-0.763215 -0.0902655 5.82931e-22)
(-0.0420425 0.0644225 0)
(-1.54074 0.4236 0)
(-1.36767 -0.841728 0)
(-1.35637 0.586998 0)
(-1.36744 -0.608733 -1.37192e-20)
(0.0586747 -0.00461928 -1.87792e-20)
(-0.730517 0.365046 0)
(-0.800823 -0.21121 0)
(-0.157679 -0.121693 0)
(-0.851569 0.261592 0)
(-0.818003 -0.401251 0)
(-0.100562 0.0675604 0)
(-0.402785 0.288119 0)
(-0.656531 -0.431182 0)
(-0.850235 0.0661822 1.28169e-20)
(-0.268388 0.192471 -1.84932e-21)
(-0.832248 0.141055 -1.34717e-20)
(-0.719753 -0.425174 1.49189e-20)
(-1.18866 0.437173 1.35823e-20)
(-1.15669 -0.563389 0)
(0.00867316 0.0268594 4.17433e-20)
(-0.204399 0.122541 0)
(-0.718623 0.148274 1.4659e-20)
(-0.635419 -0.332233 -3.83143e-21)
(-0.941329 -0.608572 0)
(-1.07335 0.20265 1.38497e-20)
(-1.02209 -0.641977 0)
(-1.1409 0.253337 7.92829e-21)
(-0.260216 0.21649 0)
(-0.197936 0.175812 0)
(-0.87995 0.216335 1.86262e-21)
(-0.805374 -0.442289 7.83094e-21)
(-0.155701 0.116008 -8.04618e-21)
(-1.55516 0.696238 -4.19828e-21)
(0.0834223 -0.00960726 0)
(-1.55425 -0.717715 -4.32019e-21)
(-1.47192 0.714623 -2.01838e-21)
(0.0702601 -0.00517532 -1.8136e-21)
(-1.53817 -0.683824 0)
(-1.38001 0.619191 -7.13646e-21)
(-1.40164 -0.607374 0)
(0.0634852 -0.0107954 2.13445e-20)
(-0.711503 0.455453 0)
(-0.896515 -0.112585 3.24787e-21)
(-0.373498 -0.287811 7.77061e-21)
(-0.830141 0.187808 1.22216e-20)
(-0.19034 0.141685 3.89345e-21)
(-0.74973 -0.409085 0)
(0.0787225 -0.008068 0)
(-1.52441 -0.76278 0)
(-1.58322 0.638047 3.34975e-21)
(-0.647513 0.412561 0)
(-0.842826 -0.0864472 -7.16309e-21)
(-0.389856 -0.280718 2.03026e-21)
(-0.210879 0.140544 0)
(-0.744367 0.145871 0)
(-0.652508 -0.354626 0)
(-0.788957 0.226302 6.06991e-21)
(-0.756281 -0.366534 0)
(-0.112725 0.0637891 0)
(-0.951371 -0.373758 -3.16078e-23)
(-0.0331232 -0.0276881 -9.66172e-21)
(-0.97622 0.462516 1.82518e-20)
(-1.02254 -0.365737 0)
(-0.0375896 -0.0572996 -2.06246e-20)
(-1.51927 0.630603 -8.46797e-21)
(0.0770544 -0.00260817 1.32725e-20)
(-1.49866 -0.711786 -1.08968e-20)
(-0.0123468 0.0525431 1.20603e-20)
(-1.4884 0.453854 5.47441e-21)
(-1.35933 -0.79493 1.24646e-20)
(-1.57411 0.507631 -1.37127e-20)
(-1.43714 -0.81169 0)
(0.026168 0.0236551 -1.18415e-20)
(-0.727986 -0.531902 -8.3781e-22)
(-0.992824 0.0501904 5.45437e-21)
(-0.527977 0.406732 0)
(-0.793271 0.290238 -2.72386e-20)
(-1.30231 0.835892 6.39013e-21)
(-0.0965825 -0.116407 -8.06722e-21)
(-1.50878 -0.40127 0)
(-1.46099 -0.81879 0)
(-1.59699 0.545398 -1.11649e-20)
(0.042145 0.0095958 0)
(-0.466525 0.110861 -2.24259e-20)
(-0.209943 0.00497124 -7.64735e-21)
(-0.460103 -0.135364 2.25245e-20)
(-0.828436 0.422582 0)
(-0.892249 -0.273592 -4.51567e-22)
(-0.111755 -0.0958787 -7.94301e-21)
(-0.035697 0.0650737 9.25042e-21)
(-1.49733 0.433772 0)
(-1.3481 -0.816957 -1.4372e-20)
(-0.859557 0.327326 2.17473e-20)
(-0.926065 -0.382609 1.905e-20)
(-0.0361561 -0.0115935 0)
(0.0777847 -0.0137047 0)
(-1.5159 -0.732591 2.55374e-21)
(-1.54462 0.685268 0)
(-0.465557 0.361925 0)
(-1.01575 0.079532 0)
(-0.786458 -0.572078 0)
(-1.52816 0.497598 1.20212e-20)
(-1.40869 -0.785974 0)
(0.0222747 0.0289789 -5.68577e-23)
(-1.00398 0.234902 5.30775e-21)
(-0.913451 -0.540211 -5.85606e-21)
(-0.169297 0.145164 0)
(-1.03063 0.531077 0)
(-1.09259 -0.370478 7.33281e-21)
(-0.0492048 -0.0801751 1.29632e-20)
(-1.23889 -0.81384 -1.91195e-20)
(-1.40932 0.321899 -1.01874e-20)
(-0.147349 0.145011 7.2611e-21)
(-1.21737 0.267074 0)
(-1.08609 -0.693703 -7.89593e-21)
(-0.195248 0.175611 -2.65703e-22)
(0.0733937 -0.0186154 -1.1601e-20)
(-1.48671 -0.746172 0)
(-1.55394 0.663121 -1.49217e-21)
(-0.543854 0.368345 9.58421e-21)
(-0.521113 -0.362457 -9.76224e-21)
(-0.840321 -0.0207033 1.03139e-21)
(-1.33991 0.739476 1.59284e-21)
(0.0547107 0.0068233 -1.70308e-20)
(-1.518 -0.60382 0)
(-0.241177 0.0760188 -4.46957e-21)
(-0.517545 0.0693615 -1.74901e-20)
(-0.434227 -0.176258 2.23044e-20)
(-1.02668 0.298768 6.15417e-21)
(-0.973406 0.248949 2.15845e-23)
(-0.965135 -0.52157 -1.43518e-20)
(-0.895611 -0.509738 0)
(-0.143608 0.123161 7.31485e-21)
(-0.0876863 0.0886085 -7.55989e-21)
(-0.038589 -0.0761271 -1.71193e-20)
(-1.36082 0.828487 6.58453e-21)
(-1.55971 -0.440787 -9.40952e-21)
(-0.969906 0.515211 0)
(-1.04169 -0.322294 0)
(-0.0921544 -0.104277 -1.70248e-20)
(-1.29141 0.309555 -2.74731e-21)
(-1.15227 -0.735869 0)
(-0.153964 0.148769 0)
(-1.3126 0.630043 -6.28507e-21)
(-1.36124 -0.535106 0)
(0.0426579 -0.0291913 7.76226e-21)
(-0.353468 0.0418289 4.67052e-21)
(-0.377877 -0.0349612 6.8488e-21)
(-0.297481 -0.0199082 -2.33299e-21)
(-1.11389 0.273991 -1.01004e-20)
(-1.01642 -0.609568 0)
(-0.151048 0.143164 -1.24468e-20)
(-0.986605 0.545017 0)
(-1.07278 -0.313706 9.11802e-21)
(-0.108905 -0.12072 -1.08861e-20)
(-0.900788 0.369977 0)
(-0.97079 0.404863 2.13999e-21)
(-0.563956 0.389238 3.44307e-21)
(-0.542683 -0.386081 2.82601e-20)
(-0.869626 -0.0140682 -2.4627e-20)
(-1.17248 0.317452 -1.02124e-20)
(-1.07587 -0.633477 1.20208e-20)
(-0.10356 0.112267 1.13547e-20)
(-1.35621 0.639766 0)
(0.0558201 -0.0210035 -2.74703e-20)
(-1.40678 -0.571027 -6.48592e-21)
(-0.429807 0.278172 -2.48035e-20)
(-0.54493 -0.3597 0)
(-0.777116 0.0321532 8.04574e-21)
(-0.296337 0.246237 -1.45436e-20)
(-1.09562 0.187471 -7.96342e-21)
(-0.947693 -0.638708 0)
(-1.16322 0.654631 -6.4141e-21)
(-1.26932 -0.380217 -7.67224e-21)
(-0.0685113 -0.101631 4.89712e-21)
(-0.505903 0.367394 1.24214e-21)
(-0.642144 -0.452016 0)
(-0.90804 0.0380074 1.71533e-20)
(-1.21965 0.690829 0)
(-1.2591 0.695496 0)
(-1.33759 -0.409749 -4.75895e-21)
(-0.0520921 -0.0923979 -1.27334e-20)
(-1.36949 -0.45132 6.72891e-21)
(-0.0196631 -0.0703435 1.35184e-20)
(0.082035 -0.00713913 -1.02372e-20)
(-1.52989 -0.735491 0)
(-1.56229 0.659638 -5.45018e-21)
(-1.12324 0.589064 7.48303e-21)
(-1.1972 -0.405778 0)
(-0.0335826 -0.07551 4.4127e-21)
(-1.33767 -0.651369 -6.59526e-23)
(0.0438322 -0.00984126 1.48527e-20)
(-1.28879 0.665334 5.07674e-22)
(-0.633954 0.0991471 -8.09532e-21)
(-0.238694 0.123694 0)
(-0.537009 -0.269745 0)
(-1.05097 0.377197 1.43746e-20)
(-1.03052 -0.491007 0)
(-0.0212581 0.0333615 2.47942e-20)
(0.0741491 -0.00374498 -8.46705e-21)
(-1.47359 0.623624 1.76369e-20)
(-1.46519 -0.67667 8.71734e-21)
(-0.813182 -0.561836 0)
(-0.998241 0.109884 7.18093e-21)
(-0.392015 0.311288 -1.78107e-20)
(-1.27816 -0.820294 -2.2639e-20)
(-1.44555 0.361743 -6.05169e-21)
(-0.10295 0.110716 0)
(-0.823143 -0.334304 -1.95647e-20)
(-0.0634693 -0.00206667 0)
(-1.10336 0.456423 1.52536e-20)
(-1.0963 -0.474994 6.65356e-21)
(0.00914628 -0.0090157 7.56567e-21)
(-0.809865 -0.35547 1.14119e-20)
(-0.0680038 0.0178738 -2.04658e-23)
(-1.4392 0.795113 -4.05911e-22)
(0.0351067 -0.0291684 1.00788e-20)
(-1.59554 -0.542647 -5.18879e-21)
(-0.708641 -0.545532 0)
(-1.0202 0.0284548 1.70379e-21)
(-0.587037 0.451916 0)
(-1.1634 0.487608 -1.55556e-20)
(-1.17279 -0.507813 -8.10944e-21)
(0.0233068 -0.00374554 -9.14839e-21)
(-0.878662 0.254642 0)
(-0.827392 -0.431251 -1.13733e-20)
(-0.114968 0.0855631 0)
(-0.874028 0.114063 0)
(-0.715185 -0.463832 0)
(-0.337127 0.243324 0)
(-0.634503 0.253863 -6.22478e-21)
(-0.661512 -0.212725 -1.0925e-20)
(-0.130788 -0.0455247 2.21327e-23)
(-0.346356 0.283184 1.80314e-20)
(-1.06199 0.15308 1.92053e-20)
(-0.896803 -0.614191 1.15677e-20)
(-1.54569 0.588945 -6.84728e-21)
(-1.47362 -0.746183 9.15833e-21)
(0.0675621 0.00326657 -1.25156e-20)
(-1.28915 -0.7963 1.54168e-20)
(-1.43069 0.383605 6.13627e-21)
(-0.0740675 0.0938861 9.32249e-21)
(-0.937548 0.64375 -1.34761e-20)
(-0.346308 -0.291484 1.4428e-20)
(-1.12925 -0.175867 -1.0765e-20)
(-1.29311 0.768911 3.59939e-21)
(-1.24658 0.739764 -3.40285e-21)
(-1.38788 -0.39472 -1.5082e-21)
(-1.44453 -0.416027 0)
(-0.058445 -0.0941829 -4.63928e-21)
(-0.0760783 -0.108298 -4.13192e-21)
(0.0499063 -0.00405258 -2.01176e-20)
(-1.39427 -0.636992 7.30094e-23)
(-1.31186 0.676941 1.26247e-21)
(-1.36453 0.754647 -1.3872e-22)
(0.0578431 0.00865586 2.35631e-20)
(-1.55674 -0.600694 0)
(-1.09942 0.331491 -2.30201e-20)
(-1.04131 -0.559723 -3.13335e-21)
(-0.0728778 0.0856209 0)
(0.0809919 -0.00558877 -2.5561e-20)
(-1.53603 0.652936 5.42551e-21)
(-1.52351 -0.709104 0)
(-1.069 0.67191 1.90656e-20)
(-1.1272 0.691913 -1.4193e-20)
(-1.21156 -0.288847 8.30295e-21)
(-1.26139 -0.322269 3.13865e-21)
(-0.18828 -0.181318 -8.17918e-21)
(-0.143287 -0.150336 -4.09527e-21)
(0.0428328 -0.00544899 0)
(-1.45417 -0.84421 0)
(-1.64938 0.531305 1.77006e-21)
(-1.2553 0.728548 -1.86936e-21)
(0.0482862 0.0104205 0)
(-1.48101 -0.578091 0)
(-0.469879 -0.0129653 -2.63476e-23)
(-0.331148 0.103944 9.9347e-21)
(-0.316099 -0.111784 4.95377e-21)
(-1.36874 0.703867 -2.21777e-21)
(-1.47622 -0.656486 1.06793e-21)
(0.0574898 -0.00253022 1.10422e-21)
(-0.796032 0.488266 0)
(-0.936801 -0.167819 -1.4784e-20)
(-0.289349 -0.234522 -8.21408e-23)
(-1.588 0.62086 2.26258e-22)
(-1.50881 -0.778237 1.16302e-20)
(0.0733305 -0.00562013 1.89341e-23)
(-1.18728 -0.664359 1.04862e-23)
(0.0358233 -0.0251571 -8.55508e-21)
(-1.2542 0.565944 6.19429e-22)
(-0.456561 0.270745 -9.08089e-21)
(-0.418271 -0.262776 8.68208e-21)
(-0.697213 -0.0208076 2.58086e-20)
(-0.566792 0.109828 0)
(-0.507683 -0.21516 -2.47459e-20)
(-0.203758 0.069318 1.23561e-20)
(-1.49162 0.759439 0)
(0.0737237 -0.00323064 1.18209e-20)
(-1.5995 -0.662205 -1.94585e-22)
(-0.609174 0.125628 0)
(-0.545144 -0.244774 -8.59768e-21)
(-0.194013 0.0877454 -1.75036e-20)
(-0.436331 -0.00793241 1.03257e-20)
(-0.320351 0.0764175 -5.25695e-21)
(-0.31645 -0.0869383 2.62514e-21)
(-0.443794 0.356522 8.66922e-21)
(-1.07894 0.108506 -6.68798e-21)
(-0.86804 -0.636814 1.27332e-20)
(-0.580109 0.0327901 0)
(-0.427795 -0.210896 0)
(-0.30451 0.157601 1.45282e-21)
(-0.625145 0.0773065 1.2813e-20)
(-0.499204 -0.25128 6.56935e-21)
(-0.277796 0.153 2.05242e-22)
(-0.875651 0.609025 2.05025e-20)
(-1.07693 -0.142968 -1.09684e-20)
(-0.400614 -0.333064 -1.42384e-20)
(0.0750927 -0.00965049 1.79187e-20)
(0.0802241 -0.00878996 -1.81687e-20)
(-1.59708 -0.649298 3.07438e-21)
(-1.58295 -0.669673 2.25137e-21)
(-1.50332 0.753847 0)
(-1.51957 0.739134 -4.1976e-21)
(-1.57452 0.58845 8.58999e-21)
(-1.48918 -0.767088 -7.55822e-21)
(0.0674094 0.00180779 1.55248e-20)
(-0.332401 -0.292549 -9.21594e-21)
(-0.99654 0.696508 4.16975e-21)
(-1.18865 -0.191829 1.37178e-20)
(-0.576071 0.372601 -8.75149e-21)
(-0.450855 -0.316878 -8.93163e-21)
(-0.81965 -0.0494083 7.96466e-21)
(-1.23325 0.233425 0)
(-1.07527 -0.723742 8.17204e-21)
(-0.250673 0.214986 2.74661e-22)
(-1.2914 -0.740519 1.83991e-21)
(0.0527577 -0.0367775 -7.94002e-21)
(-1.46581 0.572342 -4.3348e-22)
(0.0020159 0.031503 0)
(-1.60323 0.47962 0)
(-1.41771 -0.859125 5.28405e-21)
(-1.50677 0.706868 2.77972e-21)
(0.0758701 -0.00888578 0)
(-1.5478 -0.706045 -2.50742e-21)
(0.0289799 -0.0205905 -3.18618e-32)
(-1.12373 -0.633343 8.85667e-22)
(-1.1667 0.550799 -1.00606e-21)
(-1.18243 -0.563017 -1.02545e-21)
(0.0282204 -0.00739397 3.17853e-32)
(-1.11004 0.621103 8.67789e-22)
(-1.19596 -0.645654 -1.61322e-20)
(-1.26474 0.410738 0)
(-0.0246941 0.0616749 -2.4148e-20)
(-1.41955 -0.819024 -1.38035e-21)
(0.0549818 -0.0273084 -8.10368e-21)
(-1.63831 0.557452 0)
(-1.39034 0.576757 -9.28939e-21)
(-1.37711 -0.643996 8.43504e-21)
(0.0595633 0.00263967 1.25249e-20)
(-1.43277 0.836688 1.12939e-20)
(0.0379369 -0.00879778 7.19411e-21)
(-1.67093 -0.541064 0)
(-0.751633 0.299206 4.8241e-21)
(-0.0803232 -0.0168454 -4.88802e-21)
(-0.784311 -0.298071 4.75106e-21)
(-1.44915 -0.853332 2.61409e-21)
(0.0319357 0.00544841 8.58949e-21)
(-1.63913 0.515947 2.34312e-21)
(-1.18304 0.206626 -7.69755e-21)
(-0.28908 0.244458 -4.92141e-21)
(-1.02539 -0.69617 0)
(-1.17554 -0.727706 0)
(-1.30084 0.337315 0)
(-0.112656 0.123172 0)
(0.00793847 -0.00950219 0)
(-0.696986 -0.360215 2.31612e-21)
(-0.682829 0.350838 -2.25978e-21)
(-1.32265 -0.680773 6.83832e-22)
(0.0461321 -0.0173006 -1.03327e-20)
(-1.32635 0.644583 -7.35678e-22)
(-0.682212 0.257677 -1.23671e-20)
(-0.104554 -0.0158003 1.16816e-20)
(-0.70415 -0.261763 5.56483e-21)
(-1.48219 -0.807204 9.07072e-21)
(-1.62901 0.584313 -3.34693e-21)
(0.0623463 -0.0101923 0)
(0.0416289 -0.0118901 -8.9765e-21)
(-1.66467 0.529368 0)
(-1.43471 -0.853711 -6.82176e-21)
(-1.51445 0.689609 -5.01811e-21)
(0.0814693 -0.00893966 2.74112e-20)
(-1.54244 -0.673833 0)
(0.00292437 -0.0508748 -2.06693e-20)
(-1.54917 -0.49435 6.40377e-21)
(-1.3879 0.795192 0)
(-0.843897 0.615622 -2.58486e-20)
(-1.07799 -0.116911 1.39687e-20)
(-0.468497 -0.385577 -4.52724e-21)
(-1.34578 -0.355534 2.23649e-21)
(-1.19466 0.74309 8.15367e-21)
(-0.127937 -0.142609 -1.27588e-20)
(0.000485682 -0.0452549 -1.8488e-20)
(-1.40806 0.841767 0)
(-1.62485 -0.491904 0)
(-0.843181 0.479932 -4.27828e-21)
(-0.918525 0.524669 0)
(-0.943205 -0.225763 -1.54607e-20)
(-1.02248 -0.262666 1.65444e-20)
(-0.193081 -0.162134 2.24758e-21)
(-0.164623 -0.15429 -2.39508e-21)
(-0.785164 0.46428 4.10389e-21)
(-0.90962 -0.185075 0)
(-0.249777 -0.199885 4.2807e-21)
(-1.05099 0.688467 0)
(-1.20945 -0.26561 -1.341e-20)
(-0.228417 -0.210609 2.95271e-21)
(-1.25075 -0.763 -7.86642e-21)
(-1.38297 0.372567 6.62888e-21)
(-0.0770536 0.095807 -1.90603e-20)
(-1.47232 -0.807546 0)
(-1.58908 0.571233 1.2296e-20)
(0.0560789 0.00313778 0)
(-0.019866 0.0582956 -6.1876e-21)
(-1.42458 0.437023 -3.91384e-21)
(-1.31692 -0.757939 -5.06591e-21)
(-1.25401 -0.568374 1.78581e-22)
(0.0337323 -0.00272725 5.52686e-21)
(-1.15996 0.648675 0)
(-0.556121 0.304815 8.35152e-21)
(-0.56482 0.292365 0)
(-0.291113 -0.186355 0)
(-0.702369 -0.0973616 3.1306e-20)
(-0.250249 -0.155842 0)
(-0.686139 -0.123197 -1.99633e-20)
(-0.940267 0.613219 0)
(-0.857221 0.559599 0)
(-0.316079 -0.261749 2.64271e-23)
(-1.09657 -0.212475 8.7616e-21)
(-0.277761 -0.234829 2.16927e-20)
(-1.0238 -0.176469 -1.87303e-20)
(-1.15364 -0.687299 0)
(0.0391889 -0.0336811 1.16334e-20)
(-1.31362 0.551542 0)
(-1.48574 -0.796773 -5.9353e-21)
(-1.61698 0.590472 1.19641e-21)
(0.0652046 -0.0069587 5.45165e-21)
(-0.630458 0.430637 -1.48566e-20)
(-0.518454 -0.385406 -1.00951e-20)
(-0.903098 -0.0421877 2.54367e-20)
(-1.18417 -0.777367 1.71592e-20)
(-1.34308 0.297119 1.71988e-20)
(-0.17164 0.163889 0)
(-0.0157967 -0.06477 2.21022e-20)
(-1.52409 -0.472374 -6.80855e-21)
(-1.36331 0.79387 8.32444e-21)
(-1.4319 -0.716595 0)
(-1.47018 0.659749 0)
(0.0624347 -0.0184818 0)
(-1.44662 -0.741407 0)
(-1.51083 0.644861 2.07955e-21)
(0.0671341 -0.0227455 1.97105e-21)
(-1.12031 0.663694 -7.96932e-21)
(-1.2397 -0.346601 4.76143e-21)
(-0.11187 -0.128999 6.05723e-21)
(-0.38507 0.248328 -2.3647e-21)
(-0.555556 -0.345713 0)
(-0.750871 0.0552353 -1.46708e-22)
(-1.5279 0.706146 5.84697e-21)
(0.082526 -0.00867045 1.58769e-20)
(-1.56712 -0.680298 -2.62095e-21)
(-1.22747 -0.686492 0)
(-1.311 0.414589 0)
(-0.0288977 0.0698582 2.08232e-20)
(0.0601691 -0.0219746 5.245e-21)
(-1.46383 -0.587393 1.09359e-20)
(-1.40338 0.685815 1.84049e-20)
(-0.813106 0.542293 0)
(-0.366772 -0.296304 -1.46236e-20)
(-0.995614 -0.148485 9.6682e-21)
(-0.962872 0.198498 1.65767e-22)
(-0.850633 -0.514849 8.58798e-21)
(-0.226425 0.179694 0)
(-0.514649 0.323092 9.99496e-23)
(-0.455314 -0.3102 -2.95946e-21)
(-0.772863 -0.0292953 -1.04339e-20)
(0.0837088 -0.00827899 -1.27978e-23)
(-1.55403 -0.717276 5.8072e-21)
(-1.55187 0.684933 5.64418e-21)
(-1.30903 0.668889 -3.54401e-21)
(-1.3889 -0.511784 -3.50475e-21)
(0.0263393 -0.0421231 0)
(-0.464752 0.262033 -9.05692e-21)
(-0.366443 -0.222809 1.89119e-20)
(-0.669921 -0.0422937 -1.7039e-20)
(-1.41809 0.853 4.83007e-21)
(0.0114186 -0.0323286 8.17879e-21)
(-1.65715 -0.505375 -3.56293e-21)
(-0.728375 0.392636 -5.23751e-21)
(-0.821666 -0.19602 0)
(-0.193587 -0.150689 0)
(-0.735012 0.189416 -2.26918e-20)
(-0.679278 -0.332648 5.28554e-21)
(-0.151728 0.089724 0)
(-1.15442 -0.681893 0)
(-1.25301 0.340593 1.46109e-20)
(-0.0912379 0.11075 0)
(-1.4038 0.791879 -1.93604e-21)
(0.0567297 0.00725634 -2.52376e-21)
(-1.62968 -0.589112 1.68644e-21)
(-1.40075 0.81225 5.46551e-21)
(0.0501331 0.00600399 0)
(-1.651 -0.565121 -2.59487e-21)
(0.0509111 -0.0283054 4.7151e-21)
(-1.48589 -0.565967 -6.11306e-21)
(-1.40235 0.710404 -1.69839e-20)
(-0.995995 0.177756 -6.88608e-21)
(-0.877312 -0.559566 -8.61573e-21)
(-0.272338 0.211061 0)
(0.0535544 0.0124111 2.31199e-21)
(-1.59314 -0.583407 -1.58438e-21)
(-1.33979 0.771819 0)
(0.065556 0.00277456 0)
(-1.42165 -0.677058 -6.39965e-21)
(-1.44694 0.59003 -2.09855e-21)
(0.021685 -0.0232562 9.36632e-21)
(-0.962332 -0.597395 -4.90007e-22)
(-1.05622 0.471723 0)
(-0.946323 0.584151 5.31364e-22)
(-1.07312 -0.483081 0)
(0.0201489 -0.00311135 9.38314e-21)
(0.0116337 -0.0413233 -9.13787e-24)
(-1.59729 -0.511654 0)
(-1.41084 0.821027 0)
(0.0812279 -0.0120199 0)
(-1.53773 -0.740462 0)
(-1.56845 0.677456 6.41561e-21)
(-1.48761 0.75355 -5.35925e-21)
(-1.4696 0.737018 4.33554e-21)
(0.0682452 -0.0144009 -8.99702e-21)
(-1.59172 -0.61256 -1.08188e-21)
(0.0674373 -0.0170542 -1.46747e-20)
(-1.55967 -0.608933 2.25053e-21)
(-1.45114 0.560277 4.19192e-21)
(-1.40648 -0.701206 4.36061e-21)
(0.0566253 0.0103502 0)
(-0.234253 0.20994 0)
(-1.12893 -0.771311 0)
(-1.3024 0.254757 0)
(-0.535262 0.242819 0)
(-0.211479 -0.107714 -2.60368e-20)
(-0.622541 -0.132216 1.09818e-20)
(-1.41217 0.483975 1.23927e-20)
(-1.33447 -0.720254 1.70795e-21)
(0.018833 0.0361664 1.82387e-20)
(-0.00575469 0.0518526 1.18333e-20)
(-1.39193 0.454897 -1.72512e-20)
(-1.29927 -0.725378 -2.36701e-21)
(-1.3819 0.856928 6.20073e-21)
(-0.0301397 -0.0660978 8.84465e-21)
(-1.60871 -0.451922 9.81725e-21)
(-0.967979 0.640839 0)
(-1.13524 -0.216458 3.98675e-21)
(-0.283633 -0.244605 -2.12648e-20)
(-0.856095 0.530926 0)
(-0.992038 -0.190391 1.94121e-20)
(-0.273796 -0.23114 -3.93562e-23)
(-1.26082 0.462268 -1.72595e-20)
(-1.22642 -0.615995 2.21251e-21)
(0.0177159 0.0295433 -1.0565e-20)
(-1.29479 0.455571 0)
(-1.24131 -0.643897 2.0865e-21)
(0.0083283 0.0386441 9.64637e-21)
(-0.415804 0.223982 0)
(-0.367579 -0.206818 -2.98947e-20)
(-0.624082 -0.0252193 9.60808e-21)
(-0.943219 0.554184 0)
(-1.05175 -0.261533 0)
(-0.17538 -0.16852 3.23102e-21)
(0.013774 0.0153868 -1.85778e-20)
(-1.42521 -0.870075 -1.4529e-20)
(-1.64495 0.492372 0)
(-1.54164 0.618084 1.72529e-21)
(0.0634211 -0.0291322 0)
(-1.39467 -0.762259 1.49834e-21)
(-1.52699 0.581388 -5.24015e-22)
(0.0577904 -0.0349964 0)
(-1.34954 -0.760426 -3.97725e-21)
(-0.65219 0.39545 6.1676e-21)
(-0.335401 -0.239908 -3.16905e-21)
(-0.816732 -0.115335 -2.60818e-22)
(-1.35775 -0.701477 4.29386e-22)
(0.0545698 -0.022755 1.58103e-20)
(-1.42559 0.634072 0)
(-1.35964 0.709271 1.49441e-20)
(0.0317262 -0.0393502 1.00141e-20)
(-1.45155 -0.527928 0)
(0.0497644 -0.0318822 -2.34332e-21)
(-1.28627 -0.724076 -1.22254e-21)
(-1.41548 0.587128 0)
(-0.542972 0.145522 1.55867e-20)
(-0.179349 0.0248965 1.57429e-20)
(-0.522733 -0.185785 4.27151e-23)
(-1.01073 0.448994 -2.66909e-21)
(-1.04011 -0.408705 -2.49446e-21)
(-0.0164448 -0.0323525 -1.11255e-20)
(-0.801919 -0.526542 1.9625e-20)
(-0.952151 0.140413 1.6639e-20)
(-0.328312 0.246379 0)
(0.0557243 -0.020576 0)
(-1.44171 -0.8231 -1.9966e-21)
(-1.64379 0.563906 0)
(-1.20546 -0.702715 0)
(-1.30919 0.3887 0)
(-0.055128 0.0860811 0)
(0.0328569 -0.0190963 0)
(-1.44005 0.833902 -3.97649e-21)
(-1.65969 -0.535915 3.50229e-21)
(-1.0863 0.483103 0)
(-1.10413 -0.450708 1.27184e-21)
(0.00282781 -0.0244016 1.08737e-20)
(-0.500195 0.214277 0)
(-0.215529 -0.094572 2.23655e-20)
(-0.582653 -0.120198 0)
(-1.47887 -0.805821 -8.5661e-21)
(-1.61855 0.601635 3.18534e-21)
(0.0660296 -0.017368 0)
(0.0734112 -0.0089897 -1.09182e-20)
(-1.46025 -0.649719 4.04773e-22)
(-1.44422 0.646609 4.79787e-22)
(-1.45486 0.759032 0)
(-1.43203 0.75176 2.82352e-21)
(0.0677647 0.00164619 -5.82252e-21)
(0.0661028 0.00183232 -7.15335e-21)
(-1.59539 -0.633742 -1.35658e-21)
(-1.57273 -0.642517 1.11599e-21)
(-0.977941 0.309416 0)
(-0.931838 -0.485747 3.35669e-20)
(-0.0774113 0.0706077 1.18203e-20)
(-1.13076 -0.607267 2.26451e-20)
(-1.19968 0.375175 0)
(-0.0407505 0.0702158 -1.28058e-20)
(-0.683551 0.208551 -1.28023e-20)
(-0.665369 -0.285096 9.05966e-21)
(-0.117371 0.0384212 1.90583e-20)
(-1.43156 -0.788043 4.21721e-21)
(-1.59016 0.60711 2.47177e-21)
(-1.40895 -0.802444 -1.86638e-21)
(0.0651005 -0.0271775 0)
(-1.6062 0.578716 -2.3823e-21)
(0.0588694 -0.0303165 0)
(-1.23726 0.550617 0)
(-1.25422 -0.538131 0)
(0.0371901 -0.0131401 1.19566e-20)
(-1.60534 0.621038 4.62268e-21)
(-1.59321 0.622359 -8.28989e-21)
(-1.4947 -0.78505 2.75864e-21)
(-1.47491 -0.777223 -7.71881e-21)
(0.0720609 -0.0180547 1.5975e-20)
(0.0706551 -0.0215276 -3.60966e-24)
(-1.14833 0.349046 0)
(-1.08143 -0.603998 -2.13798e-20)
(-0.0779988 0.0956141 1.66089e-20)
(-0.910358 0.341561 1.1846e-20)
(-0.961907 -0.420769 -1.512e-20)
(-0.0248558 0.00570391 0)
(-1.43928 0.820308 0)
(0.0500044 -0.00237389 0)
(-1.65868 -0.570572 2.49514e-21)
(-0.993914 0.341063 8.71626e-21)
(-0.960045 -0.47072 -9.33644e-21)
(-0.0491831 0.0489921 -1.9582e-20)
(-0.763558 0.251033 5.11674e-21)
(-0.751089 -0.335196 -1.06368e-20)
(-0.0899088 0.0328058 1.09753e-20)
(-1.43188 0.779277 0)
(0.0632441 0.00344821 0)
(-1.62579 -0.614406 -3.5429e-21)
(-1.10937 0.517115 0)
(-1.15234 -0.438673 2.56972e-21)
(0.00370892 -0.0402384 -1.19484e-20)
(-1.00284 -0.705269 0)
(-1.17415 0.18276 0)
(-0.339784 0.283905 -6.32861e-22)
(-0.816728 0.561049 -6.65817e-22)
(-1.01589 -0.130494 0)
(-0.403024 -0.327538 2.24095e-20)
(-1.32844 -0.856784 8.70975e-21)
(-0.0821964 0.0921319 0)
(-1.51392 0.386754 0)
(0.0153533 -0.0119741 -2.25404e-20)
(-0.917213 -0.480184 -3.23973e-21)
(-0.900207 0.468283 3.16195e-21)
(-1.04264 0.404903 0)
(-1.02411 -0.458054 9.25754e-21)
(-0.00973673 0.00918363 -9.98492e-21)
(-1.47426 0.793557 7.91709e-21)
(0.0614033 -0.00817207 3.03799e-20)
(-1.63517 -0.595336 0)
(-0.588692 -0.464294 -5.99156e-21)
(-1.03149 -0.0449847 -9.26357e-21)
(-0.713988 0.532669 -5.86106e-21)
(-1.11666 0.669225 0)
(0.0361423 0.00596925 -8.39772e-21)
(-1.32656 -0.554521 0)
(-0.278575 0.176783 1.17291e-20)
(-0.310279 0.205422 -1.1986e-20)
(-0.589336 -0.338333 0)
(-0.724193 0.0996267 1.0907e-20)
(-0.626119 -0.377492 -1.9209e-20)
(-0.770605 0.0927113 -8.71371e-21)
(-0.667214 0.174846 1.20518e-20)
(-0.621697 -0.279773 1.20735e-20)
(-0.151901 0.0693406 0)
(-0.395921 0.240904 1.04314e-20)
(-0.329817 0.201753 0)
(-0.479208 -0.292046 -1.07261e-20)
(-0.697023 0.0188112 9.76604e-21)
(-0.505229 -0.290378 1.08094e-20)
(-0.678999 0.0515947 5.87999e-23)
(-0.982744 0.38281 7.44995e-22)
(-0.894546 -0.404974 -6.65257e-21)
(-0.0483546 0.0236862 -1.3439e-20)
(-0.913831 0.321694 -2.03534e-20)
(-0.896997 -0.421975 1.74571e-22)
(-0.0595505 0.0411591 0)
(0.055204 -0.0368598 0)
(-1.34662 -0.789458 0)
(-1.57561 0.564054 1.34692e-21)
(-0.715153 0.418994 -5.6861e-21)
(-0.845042 -0.152364 0)
(-0.272078 -0.204366 5.86374e-21)
(-1.5879 0.646455 -1.0554e-20)
(-1.52183 -0.767018 3.89947e-21)
(0.0787551 -0.0125294 -9.11578e-21)
(-1.29734 0.508658 0)
(-1.3549 0.534861 8.92703e-21)
(-1.27857 -0.61123 -2.75964e-21)
(-1.33125 -0.63898 8.28652e-21)
(0.0388907 0.0147348 -1.31088e-20)
(0.0484186 0.0119667 -1.20874e-20)
(-0.686395 0.38382 0)
(-0.803783 -0.161815 0)
(-0.24126 -0.179432 2.80124e-21)
(-1.02177 0.628462 6.46756e-21)
(-1.14755 -0.274937 0)
(-0.189076 -0.178482 7.04239e-21)
(-1.18409 0.478065 -4.89564e-21)
(-1.17826 -0.545334 0)
(0.0238183 0.00989578 0)
(-0.390487 0.135898 1.20016e-20)
(-0.494645 -0.0583051 -5.92638e-21)
(-0.266743 -0.0956123 6.07367e-21)
(-1.37023 0.494673 0)
(-1.31461 -0.68217 0)
(0.0268507 0.0296934 -1.93997e-20)
(-0.501917 0.244436 0)
(-0.26101 -0.144424 3.28492e-21)
(-0.625544 -0.0967095 0)
(-1.14926 0.378136 -1.13533e-20)
(-1.09033 -0.580589 -1.19829e-20)
(-0.0379512 0.0618492 -1.66758e-21)
(-1.01313 0.597455 6.57286e-21)
(-1.12485 -0.293623 0)
(-0.152193 -0.155686 1.4544e-20)
(-0.418306 0.171225 -1.18964e-20)
(-0.395421 0.172624 -5.26709e-21)
(-0.537101 -0.0714751 5.83355e-21)
(-0.266166 -0.116445 -1.2033e-20)
(-0.55317 -0.0465594 0)
(-0.305995 -0.148512 -2.14112e-20)
(-0.358091 0.191591 -5.25741e-21)
(-0.409437 -0.226104 1.39837e-20)
(-0.326535 0.18619 3.37906e-21)
(-0.613895 0.0092342 -1.32645e-20)
(-0.485647 -0.271474 -6.78919e-21)
(-0.651333 0.04606 3.03149e-22)
(-0.816561 0.447121 6.21209e-21)
(-0.882241 0.466313 0)
(-0.906483 -0.234728 1.16234e-20)
(-0.952681 -0.276773 -9.08179e-21)
(-0.16502 -0.139466 -1.30544e-20)
(-0.118313 -0.110351 2.17077e-20)
(0.0215316 -0.0423597 0)
(-1.52159 -0.518949 -3.66555e-21)
(-1.39163 0.762976 -8.3985e-21)
(-0.376459 0.307188 7.70944e-21)
(-1.10471 0.148883 1.05538e-20)
(-0.927665 -0.655894 -2.01251e-20)
(0.0394486 -0.0306845 -1.0298e-20)
(0.0538474 -0.0249445 8.22518e-21)
(-1.55377 -0.553914 3.17369e-21)
(-1.53591 -0.576162 5.59388e-21)
(-1.42487 0.770489 2.1143e-20)
(-1.43694 0.744735 -1.09385e-20)
(-0.541142 0.400902 1.08578e-20)
(-0.661057 -0.477979 -9.60586e-21)
(-0.942929 0.0259702 2.52899e-21)
(-0.368156 0.0764156 2.03976e-20)
(-0.273392 -0.0410947 0)
(-0.416935 -0.0509271 -2.03131e-20)
(-1.39512 0.529106 -4.16345e-21)
(-1.35081 -0.677824 -9.36418e-21)
(0.0442133 0.0182001 0)
(-0.60984 0.338666 0)
(-0.2837 -0.200583 -2.66891e-21)
(-0.747558 -0.116145 -1.01534e-20)
(-1.0556 0.612266 0)
(-1.16257 -0.321047 0)
(-0.122568 -0.13519 -1.35307e-20)
(-1.32445 0.761485 -9.48694e-21)
(-1.31751 0.732519 0)
(-1.46504 -0.461626 2.15411e-21)
(-0.0235048 -0.0717917 -1.27029e-20)
(-1.43874 -0.472028 -5.86456e-21)
(-0.00813222 -0.0632123 1.72064e-20)
(-1.28954 0.552916 9.13275e-21)
(-1.30052 -0.571621 8.94606e-21)
(0.0482393 -0.00503095 7.12827e-21)
(-1.22051 0.689979 1.29174e-21)