/*--------------------------------*- C++ -*----------------------------------*\
  =========                 |
  \\      /  F ield         | OpenFOAM: The Open Source CFD Toolbox
   \\    /   O peration     | Website:  https://openfoam.org
    \\  /    A nd           | Version:  6
     \\/     M anipulation  |
\*---------------------------------------------------------------------------*/
FoamFile
{
    version     2.0;
    format      ascii;
    class       surfaceScalarField;
    location    "0";
    object      Phi_rec;
}
// * * * * * * * * * * * * * * * * * * * * * * * * * * * * * * * * * * * * * //

dimensions      [0 3 -1 0 0 0 0];

internalField   nonuniform List<scalar> 
17780
(
0.00135918
0.00099846
0.000966337
0.000607445
0.00062071
0.000311097
0.000454014
0.000172583
0.000360777
0.000103863
0.000305017
6.27244e-05
0.000269375
4.76262e-05
0.000243973
2.31322e-05
0.000226274
1.45294e-05
0.0002148
6.37976e-06
0.000206624
1.72561e-05
0.000199418
1.63444e-05
0.000195307
1.43776e-05
0.000194607
1.39959e-05
0.000192835
2.72418e-06
0.000189989
-3.15323e-06
0.000187625
-5.82669e-06
0.000186351
1.21045e-06
0.000186624
7.80946e-06
0.000187797
1.4094e-05
0.000187952
1.01759e-05
0.000187101
1.10065e-05
0.000186768
6.89455e-06
0.000186694
8.30667e-06
0.000187477
9.88516e-06
0.000186863
5.65505e-06
0.0001857
-1.49452e-06
0.00018687
3.795e-07
0.000186484
-9.15737e-06
0.000186503
-4.39725e-06
0.000187485
-2.8673e-06
0.000186752
-9.67536e-06
0.000186538
-1.20093e-05
0.000185806
-1.11682e-05
0.000185035
-6.64103e-06
0.000185581
-3.52257e-06
0.000186571
-4.60692e-07
0.000187759
-4.10414e-06
0.000189063
-4.05257e-06
0.000190257
-2.08573e-06
0.000190081
-3.9736e-06
0.000190272
-8.52166e-06
0.000192222
-5.5803e-06
0.000196024
-7.22129e-06
0.000201122
-1.1836e-05
0.000207803
-2.16235e-05
0.000223596
-2.75216e-05
0.000260995
-3.63585e-05
0.000351994
-0.000100277
-0.000309264
0.000595382
0.00229096
0.00134507
0.0019215
0.00111789
0.00148442
0.000721838
0.0011911
0.00045437
0.000994574
0.000293991
0.000863116
0.000192934
0.00077161
0.000135573
0.000705969
8.27707e-05
0.000662391
5.95945e-05
0.000632974
3.9681e-05
0.000608272
3.82081e-05
0.000587093
2.88367e-05
0.000573169
2.46007e-05
0.000566547
2.62096e-05
0.00056228
9.82549e-06
0.000558712
1.61436e-06
0.000555219
-1.77374e-06
0.000552211
1.30326e-06
0.000550465
1.19647e-05
0.000550461
1.6443e-05
0.000550464
1.82875e-05
0.000548312
1.15926e-05
0.000547792
1.02983e-05
0.000548731
1.36644e-05
0.000548389
1.53842e-05
0.000545737
3.2575e-06
0.000544587
-9.16201e-07
0.000546461
-4.82678e-06
0.00054731
-1.7134e-05
0.000548082
-6.8246e-06
0.000547237
-9.26365e-06
0.000546427
-1.21877e-05
0.000548072
-1.45421e-05
0.000547146
-1.46711e-05
0.000546141
-7.13394e-06
0.000546882
-1.03064e-06
0.000548605
-4.12568e-07
0.000552861
8.4173e-07
0.000556383
-6.19355e-06
0.000558346
-1.97541e-06
0.000559814
-8.21786e-06
0.000563613
-1.70595e-05
0.000569191
-1.88701e-05
0.000577576
-2.39998e-05
0.000593484
-3.02486e-05
0.000620039
-4.73114e-05
0.000663203
-6.95654e-05
0.000736885
-0.000121046
0.000875791
-0.000237407
-0.000514406
0.00106513
0.00258704
0.00122452
0.00239648
0.00135407
0.00204919
0.00105219
0.00174907
0.000740628
0.00151838
0.000520176
0.00134864
0.000363492
0.00122131
0.000250463
0.00112936
0.000177955
0.00106706
0.000131997
0.00102402
9.68956e-05
0.000986362
7.05984e-05
0.000953885
4.54403e-05
0.000933497
4.17648e-05
0.000921176
3.72584e-05
0.00091206
1.86203e-05
0.000906007
9.58437e-06
0.000902879
7.77194e-06
0.000900519
4.36978e-06
0.000897276
1.39048e-05
0.000895189
1.13457e-05
0.000893353
1.89215e-05
0.000891375
6.40063e-06
0.000892539
1.10656e-05
0.000891084
1.25588e-05
0.000887733
1.24925e-05
0.000886842
1.71915e-06
0.000884937
-4.8413e-06
0.000886416
-7.79829e-06
0.000889973
-1.81537e-05
0.000890169
-1.05931e-05
0.00088809
-9.32637e-06
0.000886901
-1.0099e-05
0.000890386
-8.29089e-06
0.000892294
-1.18634e-05
0.000890443
-7.93267e-06
0.000890551
2.79654e-06
0.000893448
3.95037e-07
0.000898756
3.3645e-06
0.000903915
-6.58595e-06
0.00090611
-6.01576e-06
0.000909555
-1.51657e-05
0.000918581
-2.23561e-05
0.000929985
-3.31574e-05
0.000945623
-4.19788e-05
0.00096989
-5.74257e-05
0.00100881
-8.55756e-05
0.00106998
-0.00012963
0.00116163
-0.000224681
0.00129884
-0.00037503
-0.000677223
0.0014394
0.00267559
0.00104707
0.00262301
0.00142504
0.00239568
0.00127141
0.00214992
0.000983643
0.00193004
0.000732958
0.00175237
0.00053671
0.00161572
0.000391681
0.00151269
0.00029073
0.00143664
0.000219945
0.00137976
0.000163493
0.00133461
0.000116663
0.00130051
7.89433e-05
0.00127389
6.75122e-05
0.00125333
4.81024e-05
0.00124294
2.96571e-05
0.00123715
1.92524e-05
0.00123174
1.16342e-05
0.00122838
6.24433e-06
0.00122477
1.48455e-05
0.00122083
1.17626e-05
0.00121702
1.40865e-05
0.0012157
2.08629e-06
0.00121736
7.6083e-06
0.00121459
5.58641e-06
0.00120935
5.99195e-06
0.00120633
1.17383e-06
0.00120446
-7.38241e-06
0.00120823
-1.60793e-06
0.00121373
-1.08725e-05
0.00121463
-1.08846e-05
0.00121296
-1.71436e-06
0.00121168
-3.31207e-06
0.00121465
-9.63902e-07
0.00121766
-6.07654e-06
0.00121728
-5.24479e-06
0.00121709
1.68017e-06
0.00121873
-4.70298e-06
0.00122447
-2.62922e-06
0.00123258
-1.34056e-05
0.00123699
-1.67101e-05
0.00124143
-2.93129e-05
0.00125343
-3.36824e-05
0.00126963
-4.97109e-05
0.00129074
-6.77054e-05
0.00132351
-9.64349e-05
0.00137018
-0.000136891
0.001438
-0.000200966
0.00153396
-0.000318175
0.00165544
-0.000495175
-0.000791033
0.00175828
0.00268794
0.000885392
0.00272281
0.00140558
0.00260218
0.00138194
0.00242559
0.0011558
0.00224228
0.000904488
0.002082
0.000697373
0.0019532
0.000537222
0.00184809
0.000401409
0.00176618
0.000308954
0.00170488
0.000232936
0.00165633
0.000168689
0.0016193
0.000123025
0.00158899
9.4325e-05
0.00156578
6.23913e-05
0.0015533
4.53649e-05
0.00154538
3.14569e-05
0.00154028
1.73343e-05
0.00153642
1.33495e-05
0.00153107
1.85972e-05
0.00152686
1.72694e-05
0.00152324
1.21837e-05
0.00152237
3.04902e-06
0.00152341
4.07368e-06
0.00151898
-8.1531e-07
0.00151176
-2.19383e-08
0.00151021
5.00385e-06
0.00151032
-3.74061e-06
0.00151165
1.66379e-06
0.00151808
-6.47621e-07
0.001521
-7.11739e-06
0.0015181
2.67127e-06
0.00151557
1.59173e-06
0.00151783
8.44049e-06
0.00152372
6.59665e-06
0.00152544
4.46823e-06
0.00152328
-2.10439e-06
0.00152554
-7.92002e-06
0.00153298
-9.15069e-06
0.0015412
-2.30571e-05
0.00154765
-2.97596e-05
0.00155567
-4.12613e-05
0.00157011
-5.23213e-05
0.0015897
-7.16977e-05
0.001615
-0.000102531
0.00165064
-0.000143138
0.00170062
-0.000194396
0.00177101
-0.000268252
0.00186141
-0.000394716
0.00196089
-0.000588981
-0.000866803
0.00203462
0.00267832
0.000748036
0.00275689
0.00133214
0.00271431
0.00141109
0.00260701
0.00125851
0.00247772
0.00104041
0.00234946
0.000839107
0.00223341
0.000658115
0.00213728
0.000503438
0.00205898
0.000389794
0.00199531
0.000295251
0.00194761
0.000218594
0.00191182
0.000164502
0.00187919
0.000119274
0.00185458
8.22901e-05
0.00184209
6.31911e-05
0.0018333
4.45852e-05
0.00182927
2.78137e-05
0.00182857
2.75763e-05
0.00182151
2.42594e-05
0.00181134
1.54735e-05
0.00180616
1.23244e-05
0.00180685
5.7475e-06
0.00180884
4.84773e-07
0.00180592
-1.90972e-06
0.0017987
-4.86967e-06
0.00179559
7.35927e-06
0.00179582
3.49235e-07
0.00179671
-2.60411e-07
0.00180348
5.23508e-06
0.00180971
1.35163e-06
0.00180707
4.34546e-06
0.00180258
3.2064e-06
0.00180492
1.46187e-05
0.00180942
1.50736e-05
0.00180882
6.9458e-06
0.00180888
-4.98963e-06
0.00181308
-7.00557e-06
0.00182073
-1.47733e-05
0.0018315
-2.4594e-05
0.00183979
-3.93412e-05
0.0018493
-4.86072e-05
0.00186485
-6.88296e-05
0.00188469
-9.26507e-05
0.00191363
-0.00013124
0.00195586
-0.000179801
0.00200702
-0.000245928
0.00207104
-0.000333061
0.00215103
-0.000463536
0.00223051
-0.000661709
-0.000923703
0.00227976
0.00265938
0.000634541
0.0027589
0.00122823
0.00277294
0.00138375
0.00272872
0.00130556
0.00265119
0.00113485
0.00255567
0.000936766
0.00246257
0.000748342
0.0023828
0.000587036
0.00231335
0.000452151
0.00225577
0.00034364
0.00221135
0.000259048
0.00217523
0.000195346
0.0021448
0.000141882
0.00212384
0.000105698
0.00211039
7.69234e-05
0.00210123
5.37867e-05
0.00209852
3.49769e-05
0.00209488
3.20152e-05
0.00208587
2.29193e-05
0.00207829
1.76614e-05
0.00207423
1.07894e-05
0.00207341
6.21368e-06
0.00207418
-1.35075e-06
0.00207382
-2.02355e-06
0.00206788
-7.11631e-06
0.00206207
-5.01531e-07
0.00206349
5.58329e-06
0.00206549
-1.38959e-07
0.00207036
1.42897e-06
0.00207607
5.38199e-06
0.00207599
1.86251e-06
0.0020744
6.81161e-06
0.00207332
8.75269e-06
0.00207385
9.12829e-06
0.00207491
-9.97979e-07
0.00207687
-8.21643e-06
0.00208132
-1.1596e-05
0.0020888
-2.24063e-05
0.00210092
-2.53819e-05
0.00211169
-4.21837e-05
0.00212189
-6.16256e-05
0.00213834
-8.35578e-05
0.00216003
-0.000114833
0.00218993
-0.000156896
0.00223292
-0.000208971
0.00228471
-0.000289914
0.00234222
-0.000391878
0.00240548
-0.000530665
0.00246438
-0.000722811
-0.000962621
0.00249693
0.00264318
0.0005436
0.00275004
0.00111527
0.00280281
0.00131838
0.00280672
0.00129867
0.00277323
0.00117081
0.00271377
0.000982973
0.00264803
0.000806188
0.00258758
0.000646967
0.00253104
0.000498095
0.00248319
0.000382175
0.00244621
0.000290045
0.00241539
0.000221439
0.00238784
0.000163499
0.00236785
0.000124103
0.00235568
9.14777e-05
0.00234867
6.31761e-05
0.00234798
4.08898e-05
0.00234389
3.03324e-05
0.00233334
1.45973e-05
0.00232523
2.12757e-05
0.00231931
9.30705e-06
0.00231881
1.04451e-05
0.00232252
5.11739e-06
0.00232261
-6.62622e-06
0.00231763
-8.8836e-06
0.0023119
-1.19921e-05
0.0023117
2.64438e-06
0.00231545
-1.23546e-06
0.0023211
-4.44088e-06
0.00232549
-3.34491e-06
0.00232482
-7.11874e-06
0.00232262
1.22531e-06
0.00232169
-1.89437e-06
0.00232129
-1.63769e-07
0.00232201
-5.39812e-06
0.00232579
-1.11154e-05
0.00233151
-1.86111e-05
0.0023396
-2.88467e-05
0.00235135
-3.26878e-05
0.00236281
-4.74516e-05
0.00237503
-7.79524e-05
0.00239195
-9.99073e-05
0.00241278
-0.000139063
0.00244175
-0.000185533
0.00248245
-0.000240321
0.00253025
-0.000328723
0.00258231
-0.000436282
0.00263421
-0.000584005
0.00267484
-0.000770638
-0.000989053
0.00269159
0.00262546
0.000465284
0.00273493
0.000999569
0.00281647
0.00123014
0.00285692
0.00125161
0.00285776
0.00115934
0.00283278
0.000996778
0.00279607
0.000836459
0.00275623
0.000684396
0.00271802
0.000539319
0.00268427
0.000417188
0.00265576
0.000315534
0.002631
0.000246083
0.00260828
0.000183013
0.0025902
0.000135847
0.00257933
0.000107267
0.00257419
7.62065e-05
0.00257404
5.2628e-05
0.0025725
3.28382e-05
0.00256376
1.33056e-05
0.00255339
1.51517e-05
0.00254882
1.45509e-05
0.00254868
1.80994e-05
0.00254934
9.59394e-06
0.00255032
-1.05778e-05
0.0025487
-1.1977e-05
0.00254463
-1.87228e-05
0.00254079
-7.85982e-06
0.00254176
-8.12173e-06
0.00254886
-4.21161e-06
0.00255552
-1.1629e-05
0.00255669
-1.38043e-05
0.00255323
-1.35877e-05
0.00255037
-1.08031e-05
0.00255089
-7.00878e-06
0.00255308
-5.3888e-06
0.00255555
-1.30988e-05
0.00256163
-1.99189e-05
0.00257246
-3.15306e-05
0.00258245
-4.40146e-05
0.00259158
-5.99566e-05
0.0026051
-8.98975e-05
0.00262271
-0.000116035
0.00264485
-0.000160811
0.0026726
-0.00021069
0.00270848
-0.00027656
0.00275169
-0.000362266
0.00279416
-0.000479676
0.00283419
-0.000621616
0.0028635
-0.000801707
-0.00100407
0.00286841
0.00261146
0.00039417
0.00271775
0.000885622
0.00281569
0.00112896
0.00288396
0.00118545
0.0029177
0.00112129
0.00292705
0.000990202
0.00291768
0.000842422
0.00289644
0.000697199
0.00287449
0.000563582
0.00285626
0.000443676
0.00284029
0.000337296
0.00282256
0.000263111
0.00280527
0.00019697
0.00279273
0.000145033
0.00278258
0.000112014
0.00277801
8.59031e-05
0.00277979
6.51999e-05
0.00277976
3.83848e-05
0.00277453
2.05065e-05
0.00276671
1.22385e-05
0.00276059
2.02939e-05
0.00275535
2.00073e-05
0.0027545
7.46396e-06
0.00275823
-4.89855e-06
0.00275756
-1.31397e-05
0.00275531
-1.78765e-05
0.00275394
-9.69316e-06
0.00275357
-6.5891e-06
0.00275834
-6.326e-06
0.00276537
-1.03578e-05
0.00276761
-1.62912e-05
0.00276607
-2.16424e-05
0.00276585
-1.59991e-05
0.00276417
-1.40147e-05
0.00276168
-1.09334e-05
0.00276486
-1.4103e-05
0.00277307
-1.83554e-05
0.00278368
-3.22109e-05
0.00279316
-5.1895e-05
0.00280302
-7.18071e-05
0.00281736
-9.70957e-05
0.00283312
-0.000134293
0.00285286
-0.000183139
0.0028793
-0.00023699
0.00291143
-0.000311209
0.00294735
-0.000397481
0.00298109
-0.000518778
0.00300977
-0.000655764
0.00302877
-0.000822262
-0.00100579
0.00302712
0.00260102
0.000337599
0.0027054
0.000783883
0.00281437
0.00102315
0.00290185
0.00110119
0.00295948
0.00105986
0.00299535
0.000958464
0.00301227
0.000822431
0.00301358
0.000686537
0.00300745
0.000561353
0.00300302
0.000447168
0.00300027
0.000347305
0.00299068
0.000270479
0.00298089
0.000204798
0.00297425
0.000146558
0.00296716
0.000105384
0.00296278
8.48992e-05
0.00296317
6.53113e-05
0.00296591
4.5204e-05
0.0029654
2.68077e-05
0.00296072
1.47561e-05
0.0029527
1.76576e-05
0.00294315
1.54546e-05
0.00294158
5.8725e-06
0.00294707
2.69883e-06
0.00294918
-1.24848e-05
0.00294791
-1.42272e-05
0.00294565
-7.43135e-06
0.00294544
-1.95592e-06
0.00294901
-1.02747e-05
0.00295463
-6.2424e-06
0.00295905
-1.52859e-05
0.00296028
-1.79505e-05
0.00295964
-1.6247e-05
0.00295793
-2.00597e-05
0.00295678
-1.87153e-05
0.00295802
-1.98931e-05
0.00296278
-2.68381e-05
0.00297356
-3.63883e-05
0.00298474
-5.46034e-05
0.00299398
-8.17438e-05
0.00300582
-0.000106829
0.00302012
-0.0001531
0.00303888
-0.000202318
0.00306203
-0.000261857
0.00308946
-0.000333926
0.00311988
-0.000426079
0.00314729
-0.000539601
0.00316631
-0.000682446
0.00317478
-0.000833433
-0.00100008
0.00316624
0.00259415
0.00028927
0.00269451
0.000686619
0.00280882
0.000914379
0.00290961
0.000992173
0.00298785
0.0009761
0.00304718
0.000899832
0.00308656
0.000776909
0.0031085
0.000654054
0.00312002
0.000535811
0.00312895
0.000427989
0.0031367
0.000337587
0.00313633
0.000264061
0.00313253
0.000202178
0.00313277
0.000143039
0.00313261
0.000100758
0.00312999
8.00066e-05
0.00313028
5.97731e-05
0.00313333
4.64245e-05
0.00313497
2.81831e-05
0.00313277
1.48394e-05
0.00312379
1.05068e-05
0.00311343
8.77924e-06
0.00311147
5.37102e-06
0.00311528
4.56686e-06
0.0031193
-6.49119e-06
0.00312345
-5.41775e-06
0.00312101
-8.33228e-06
0.0031167
-4.95826e-06
0.00312065
-5.64918e-06
0.00312685
-5.18126e-06
0.00313145
-9.22932e-06
0.00313419
-1.16511e-05
0.00313421
-1.53782e-05
0.00313289
-2.47663e-05
0.00313108
-2.711e-05
0.00313211
-3.22419e-05
0.00313676
-4.06983e-05
0.00314496
-4.3336e-05
0.00315526
-6.09153e-05
0.00316364
-9.17214e-05
0.00317217
-0.000120629
0.00318512
-0.000164574
0.00320311
-0.000213626
0.00322409
-0.000274566
0.0032475
-0.000350018
0.00327022
-0.0004426
0.00328839
-0.000550692
0.00330079
-0.000691752
0.00330229
-0.000828977
-0.000985586
0.0032866
0.00258804
0.000242605
0.00268421
0.000590053
0.00280165
0.000800708
0.00291424
0.000877136
0.00300786
0.000875486
0.00308368
0.000816574
0.00314326
0.000706882
0.00318452
0.000599184
0.00321143
0.000490799
0.0032355
0.000397277
0.00325604
0.000315901
0.00326127
0.000244757
0.00326157
0.000191578
0.0032692
0.000142245
0.00327618
0.000101841
0.00327794
8.12828e-05
0.00327948
5.63527e-05
0.00328168
4.37429e-05
0.00328345
2.53592e-05
0.00328373
1.22787e-05
0.00327674
8.53927e-07
0.0032659
-8.04971e-07
0.00326206
2.33477e-06
0.0032659
8.13473e-06
0.00327267
7.72311e-06
0.00327637
5.08551e-06
0.00327293
-6.82623e-06
0.00327171
-4.06714e-06
0.00327558
2.19634e-06
0.00327973
-1.88342e-06
0.00328474
-2.26524e-06
0.00328661
-7.36331e-06
0.00328594
-1.52215e-05
0.00328622
-2.42479e-05
0.00328514
-3.29907e-05
0.00328636
-3.84175e-05
0.00329235
-4.47504e-05
0.00329928
-4.86392e-05
0.0033055
-7.12815e-05
0.00331183
-9.86383e-05
0.00331979
-0.000130286
0.00333169
-0.000170488
0.0033478
-0.000220179
0.00336514
-0.000281581
0.00338327
-0.000360867
0.0033986
-0.000452497
0.00340911
-0.000558436
0.00341557
-0.000684348
0.0034108
-0.000814069
-0.000960462
0.00338905
0.00258565
0.000199061
0.00267725
0.000498186
0.0027934
0.000680624
0.00291563
0.000766365
0.00302161
0.000764509
0.0031099
0.000711037
0.00318626
0.000626602
0.00324454
0.000530257
0.00328781
0.0004376
0.00332459
0.00035766
0.00335433
0.000288825
0.00336933
0.000222919
0.00337669
0.000176227
0.00338951
0.000137197
0.00340106
0.000103491
0.00340454
7.8601e-05
0.00340647
4.97394e-05
0.00340984
4.02788e-05
0.00341333
2.31283e-05
0.00341513
6.9542e-06
0.00340993
-5.0799e-06
0.00340067
-1.17192e-05
0.00339748
-5.87052e-07
0.0034006
1.2018e-05
0.00340449
1.48367e-05
0.00340778
7.34956e-06
0.00340857
-2.64734e-06
0.00340685
-4.52782e-06
0.00340905
4.24514e-06
0.00341421
8.05477e-06
0.00341776
2.99378e-06
0.00341908
-2.18752e-06
0.00341945
-1.39884e-05
0.00342031
-2.12472e-05
0.00342022
-3.11348e-05
0.00342409
-3.34991e-05
0.00342953
-4.27826e-05
0.00343134
-5.53327e-05
0.00343557
-7.99456e-05
0.0034424
-0.000105958
0.00344873
-0.000139628
0.00345775
-0.000176365
0.00347012
-0.000225472
0.00348314
-0.000288232
0.00349781
-0.00036279
0.00350816
-0.000453777
0.00351227
-0.000561873
0.00351242
-0.000669801
0.0035009
-0.000797069
-0.000931554
0.00347487
0.00258386
0.000156601
0.00267293
0.000406491
0.00278868
0.000558577
0.00291271
0.000641125
0.00302623
0.000641783
0.00312617
0.000595399
0.00321818
0.000542452
0.00329407
0.00045792
0.00335114
0.000378177
0.00339829
0.000308737
0.00343788
0.000252292
0.00346183
0.000195848
0.00347336
0.000151097
0.00348965
0.000121603
0.003505
0.000101987
0.00351092
6.66619e-05
0.0035163
4.59555e-05
0.00352004
3.20098e-05
0.00352214
1.83396e-05
0.00352514
1.68896e-06
0.00352429
-3.0405e-06
0.00352017
-1.35371e-05
0.00351819
-7.93496e-07
0.00351763
9.58209e-06
0.00351729
3.47025e-06
0.00351961
1.96918e-06
0.00352222
-5.62471e-06
0.003524
-5.9242e-06
0.00352566
3.78329e-06
0.00352838
1.24607e-05
0.00353176
6.90088e-06
0.00353278
-1.72122e-06
0.00353294
-1.34997e-05
0.00353438
-2.49728e-05
0.00353621
-2.79065e-05
0.0035397
-3.48094e-05
0.00354303
-4.33935e-05
0.00354428
-6.56249e-05
0.00354764
-8.7342e-05
0.00355206
-0.000115304
0.00355677
-0.000150775
0.00356454
-0.000184025
0.00357346
-0.000231514
0.00358219
-0.000291639
0.00359165
-0.00036145
0.0035977
-0.000450801
0.00359769
-0.000558284
0.00359106
-0.000657729
0.00357456
-0.000777559
-0.000903606
0.00354453
0.00258366
0.000121222
0.00267013
0.000314672
0.00278544
0.000441439
0.00290943
0.00050593
0.00302931
0.000512756
0.00314252
0.000485673
0.00324337
0.000444372
0.00332887
0.000379075
0.00340021
0.00031075
0.00345908
0.000251864
0.00350475
0.000205139
0.00353448
0.000156853
0.00355484
0.000119234
0.00357504
9.64869e-05
0.00358907
8.61815e-05
0.00359749
5.55695e-05
0.00360735
4.50957e-05
0.00361105
2.40764e-05
0.00361338
1.28749e-05
0.0036177
3.43842e-06
0.00361866
1.94812e-06
0.00361943
-6.33148e-06
0.00361805
-2.45964e-06
0.00361394
4.85536e-06
0.00361192
-7.66787e-06
0.00361376
-5.06944e-06
0.0036179
-7.90761e-06
0.00362293
-7.36854e-07
0.00362537
6.00703e-06
0.00362407
7.49723e-06
0.00362448
6.21548e-06
0.00362598
-6.729e-07
0.00362819
-1.26101e-05
0.00363254
-2.82885e-05
0.00363423
-2.83504e-05
0.00363489
-4.32969e-05
0.00363641
-5.09579e-05
0.00363577
-7.81031e-05
0.00363731
-9.72957e-05
0.00364334
-0.000118779
0.00364923
-0.000157
0.00365289
-0.000194609
0.00365735
-0.000239225
0.00366242
-0.000295231
0.00366556
-0.000361624
0.00366625
-0.000448144
0.00366357
-0.000545759
0.00365137
-0.000645672
0.00362741
-0.000759344
-0.000871825
0.00359484
0.0025845
9.66504e-05
0.00266714
0.000228041
0.00277969
0.000325482
0.00290567
0.000372788
0.00303305
0.000387458
0.00315458
0.000375131
0.00326178
0.000337416
0.00335599
0.000289263
0.00343745
0.000239519
0.00350461
0.0001906
0.00355718
0.000153986
0.00359378
0.000114432
0.00362101
8.64782e-05
0.00364309
6.86118e-05
0.00365658
5.22746e-05
0.00366728
3.95228e-05
0.00367719
3.12377e-05
0.00368198
1.73834e-05
0.00368782
1.36065e-05
0.00369369
9.77749e-06
0.00369553
8.724e-06
0.00369683
-2.1402e-06
0.00369332
-4.93485e-06
0.00368785
1.87722e-06
0.00368845
-4.72435e-06
0.00369175
-5.82032e-06
0.00369676
-1.33542e-06
0.00370194
6.2454e-06
0.00370285
6.79578e-06
0.00370077
4.60169e-06
0.00369982
1.17785e-06
0.00370019
5.66014e-07
0.00370375
-1.15608e-05
0.00370889
-2.48128e-05
0.0037107
-3.56589e-05
0.00371145
-4.61493e-05
0.00371047
-6.10561e-05
0.00371008
-8.90295e-05
0.00371171
-0.000108134
0.00371436
-0.00012324
0.00371854
-0.000162738
0.00372175
-0.000202621
0.00372372
-0.000247307
0.00372333
-0.000301101
0.00372016
-0.000363975
0.00371722
-0.000441662
0.00371143
-0.000528057
0.00369423
-0.000626936
0.00366604
-0.000733257
-0.000834105
0.00362893
0.00257981
6.89034e-05
0.00266449
0.000152288
0.00277871
0.000211738
0.00290667
0.000243268
0.00303675
0.000254397
0.00316087
0.000246466
0.00327403
0.000222509
0.0033745
0.000188902
0.00346328
0.000163033
0.00353799
0.000128702
0.00359448
0.000103649
0.00363543
7.53226e-05
0.00366855
5.49748e-05
0.00369557
4.69749e-05
0.00371132
2.19537e-05
0.00372069
1.67218e-05
0.00372975
1.18956e-05
0.00373645
1.01944e-05
0.00374402
1.19835e-05
0.00374942
1.08578e-05
0.00374977
1.21054e-05
0.003753
-1.20644e-06
0.00375243
-2.19806e-06
0.00374502
-1.1381e-07
0.00374458
-7.04411e-08
0.00375092
-1.12577e-07
0.00375725
4.08375e-06
0.0037609
1.05143e-05
0.00376062
8.02281e-06
0.00375948
6.73565e-06
0.00375859
1.16925e-06
0.00375559
-5.73406e-06
0.00375781
-1.28511e-05
0.00376528
-2.04412e-05
0.00376633
-4.39899e-05
0.0037648
-4.93085e-05
0.00376421
-6.1656e-05
0.0037657
-9.0637e-05
0.00376723
-0.000111161
0.00376605
-0.000134575
0.00376824
-0.000166843
0.00377039
-0.000200484
0.00376949
-0.000248422
0.0037659
-0.000297775
0.00375826
-0.00036133
0.00375016
-0.000432023
0.00373897
-0.000507902
0.00371851
-0.00059914
0.00368962
-0.000692615
-0.000791725
0.00365024
0.002574
3.50346e-05
0.00265798
7.57487e-05
0.00277587
9.91024e-05
0.00290803
0.000117445
0.0030398
0.000114313
0.00316517
0.000110068
0.00328183
9.9184e-05
0.00338805
8.9637e-05
0.00348058
8.21973e-05
0.00355805
6.4057e-05
0.00361946
4.79749e-05
0.00366533
3.08094e-05
0.0036989
1.64572e-05
0.00372444
1.87913e-05
0.00374381
4.76289e-06
0.00375787
2.57061e-06
0.00376949
1.91913e-06
0.00377722
3.67735e-06
0.00378352
2.00943e-06
0.00378612
4.8331e-06
0.00378486
6.8457e-06
0.00379041
2.76787e-06
0.0037913
2.33452e-06
0.00378363
-4.83951e-06
0.00378402
1.64383e-06
0.0037912
4.57063e-06
0.00379708
8.02623e-06
0.00379938
1.09333e-05
0.00379856
1.39312e-05
0.00379662
8.96056e-06
0.00379569
4.23806e-06
0.00379385
-7.75713e-06
0.00379403
-1.34951e-05
0.00379955
-1.90822e-05
0.00380397
-4.33149e-05
0.00380182
-5.04152e-05
0.00379767
-5.82985e-05
0.00380122
-7.93749e-05
0.00380332
-0.000102298
0.00379957
-0.000137574
0.00379966
-0.00016361
0.00379948
-0.00019189
0.00379652
-0.000236586
0.00379067
-0.00028577
0.00378064
-0.000347571
0.00376826
-0.000417794
0.00375271
-0.000487839
0.00372858
-0.000570566
0.00369409
-0.00065792
-0.000752752
0.00365184
0.00257364
5.59395e-06
0.00265664
-5.56583e-06
0.00277334
-1.0668e-05
0.00290444
-1.232e-05
0.00303898
-2.35824e-05
0.00316841
-2.37135e-05
0.00328872
-2.66555e-05
0.00339738
-1.07445e-05
0.00349092
-3.23772e-06
0.00356948
-7.18535e-06
0.00363057
-1.55186e-05
0.00367852
-1.57199e-05
0.00371549
-2.3088e-05
0.00374078
-1.75806e-05
0.00376052
-1.43492e-05
0.0037766
-1.09428e-05
0.00378809
-4.24931e-06
0.00379503
-5.9798e-06
0.00380243
-7.14968e-06
0.00380542
-8.52883e-07
0.00380348
-3.89016e-06
0.00380899
4.40812e-06
0.00381004
-9.99261e-07
0.00380343
-1.17061e-05
0.00380471
4.76787e-06
0.00381228
9.34047e-06
0.00381869
1.32816e-05
0.00382039
1.17432e-05
0.00381842
1.6355e-05
0.00381508
8.06489e-06
0.00381257
3.31032e-06
0.00381157
-7.89189e-06
0.00381166
-1.55717e-05
0.00381526
-1.77294e-05
0.00382172
-3.47688e-05
0.00382132
-4.06199e-05
0.00381452
-5.71052e-05
0.0038145
-6.79235e-05
0.00381639
-9.25311e-05
0.00381595
-0.000126002
0.00381535
-0.000154087
0.00381127
-0.000185615
0.00380477
-0.000223079
0.00379393
-0.000275599
0.00378165
-0.000332292
0.00376918
-0.0003941
0.00374985
-0.000469679
0.00372112
-0.000545032
0.00368176
-0.000630444
-0.000714961
0.00363634
0.00256807
-2.86176e-05
0.00265307
-8.50025e-05
0.00277373
-0.000116615
0.00290509
-0.000146567
0.00303919
-0.000162091
0.00317053
-0.000160722
0.00329273
-0.00015181
0.00339926
-0.000124049
0.00348853
-0.000100576
0.00356482
-8.54078e-05
0.00362729
-7.44828e-05
0.00367776
-5.70682e-05
0.00371766
-5.38669e-05
0.00374455
-4.74412e-05
0.00376297
-3.68892e-05
0.00377753
-2.9407e-05
0.00378793
-1.64275e-05
0.00379534
-1.81731e-05
0.00380398
-1.23658e-05
0.00380762
-6.7265e-06
0.00380524
-1.22682e-05
0.00380684
2.98012e-07
0.00380771
-3.55849e-06
0.00380636
-7.74369e-06
0.00380875
8.47122e-06
0.00381431
1.26287e-05
0.00382019
1.69983e-05
0.00382183
1.10406e-05
0.00381722
5.6854e-06
0.00381295
5.01608e-06
0.00381187
2.28703e-06
0.00381057
-1.2752e-05
0.00380954
-1.64079e-05
0.003813
-1.59272e-05
0.0038206
-2.37995e-05
0.00382156
-3.15673e-05
0.00381533
-5.34981e-05
0.00381173
-6.73431e-05
0.0038096
-9.12445e-05
0.00380956
-0.000113668
0.0038103
-0.000142221
0.00380371
-0.000185191
0.00379296
-0.000218388
0.0037807
-0.000268769
0.00376584
-0.000322541
0.00374961
-0.000370377
0.00372765
-0.00044504
0.00369559
-0.000515431
0.00365424
-0.000593914
-0.000664474
0.00360827
0.00256787
-6.92634e-05
0.00265374
-0.000164738
0.00277061
-0.000231204
0.00290075
-0.000277644
0.00303637
-0.000295398
0.00316857
-0.000294795
0.00329312
-0.000267886
0.00339765
-0.000233469
0.00348102
-0.000196905
0.00355542
-0.000160658
0.00361674
-0.000128913
0.00366307
-0.000101417
0.00370048
-8.44329e-05
0.00372709
-7.28581e-05
0.00374739
-5.37855e-05
0.0037626
-4.19364e-05
0.00377013
-3.59918e-05
0.00377714
-2.90167e-05
0.00378502
-1.46589e-05
0.00378749
-1.5305e-05
0.0037866
-1.21247e-05
0.00378802
-1.17194e-06
0.00379095
1.47956e-06
0.00379323
3.49636e-06
0.0037938
6.91656e-06
0.00379615
7.70974e-06
0.00380153
1.59461e-05
0.00380244
4.74885e-06
0.0037982
-8.55654e-06
0.00379263
-1.24697e-06
0.00378865
-1.75537e-06
0.00379078
-1.23268e-05
0.00379352
-1.3011e-05
0.00379613
-1.90165e-05
0.00380093
-2.36008e-05
0.00379886
-3.58072e-05
0.00379209
-5.48105e-05
0.00378897
-7.21617e-05
0.00378712
-9.31943e-05
0.00378569
-0.00010895
0.00378397
-0.00013697
0.0037766
-0.000181737
0.00376399
-0.000212201
0.00374976
-0.000262115
0.00373279
-0.000310659
0.00371248
-0.000354491
0.00368854
-0.000415383
0.00365544
-0.000482561
0.00361382
-0.000549854
-0.000607369
0.00356748
0.00257077
-0.000105352
0.00265526
-0.000245995
0.00277037
-0.000348585
0.00289961
-0.000400929
0.00303455
-0.000422232
0.00316574
-0.000414233
0.00328573
-0.000375459
0.00338566
-0.000330887
0.00346675
-0.000279983
0.00353682
-0.000227697
0.00359184
-0.000179684
0.00363395
-0.000144674
0.00366993
-0.000110645
0.00369608
-9.27556e-05
0.00371422
-7.16664e-05
0.00372684
-5.25952e-05
0.00373463
-4.48723e-05
0.00374189
-3.24652e-05
0.00374877
-1.40532e-05
0.00375172
-1.83898e-05
0.00375191
-1.18384e-05
0.00375268
-1.62429e-06
0.00375411
3.30377e-06
0.00375535
5.95678e-06
0.00375716
-2.97968e-06
0.0037596
-5.32401e-07
0.00375996
6.78145e-06
0.00376131
8.04759e-07
0.00376216
-7.93625e-06
0.00375564
-6.48784e-06
0.00375061
-8.06992e-06
0.00375365
-6.73831e-06
0.00375586
-1.43597e-05
0.00375758
-2.22363e-05
0.0037611
-3.10448e-05
0.00375857
-4.32421e-05
0.00375144
-6.09724e-05
0.00374863
-7.46962e-05
0.00374687
-9.41788e-05
0.0037408
-0.000110335
0.00373565
-0.000133418
0.0037297
-0.000168487
0.0037165
-0.000199166
0.0037027
-0.000244353
0.00368673
-0.000287791
0.00366144
-0.000338074
0.00363257
-0.000390802
0.00360002
-0.000448108
0.00355924
-0.000505234
-0.000555423
0.00351117
0.00257494
-0.000139267
0.00265944
-0.000328433
0.00277292
-0.000465082
0.00289837
-0.000527899
0.00302984
-0.000544905
0.00315924
-0.000521853
0.00327509
-0.000474491
0.00336876
-0.000419305
0.00344195
-0.000356718
0.0035054
-0.000286354
0.00355596
-0.000223854
0.0035918
-0.000179297
0.00362335
-0.000131809
0.00364836
-0.000108921
0.00366249
-9.3504e-05
0.00367216
-6.41668e-05
0.00368297
-4.06642e-05
0.00368999
-2.90184e-05
0.00369243
-1.98561e-05
0.00369618
-1.53021e-05
0.00369769
-1.53813e-05
0.00369696
-7.26893e-06
0.00369722
-1.16523e-06
0.00369753
-5.813e-07
0.0037005
-1.22569e-05
0.00370355
-5.01887e-06
0.00370177
-3.14601e-06
0.00370227
1.28068e-06
0.00370504
-1.87762e-06
0.00370004
-6.37412e-06
0.00369432
-1.05641e-05
0.00369556
-6.18866e-06
0.00369624
-2.15771e-05
0.00369827
-2.43294e-05
0.00370211
-3.47925e-05
0.00369866
-4.70217e-05
0.00369148
-6.16108e-05
0.00368927
-7.51671e-05
0.00368776
-9.16482e-05
0.00368096
-0.000112883
0.00367478
-0.000128024
0.00366608
-0.000157617
0.00364987
-0.000188211
0.00363515
-0.000220511
0.00361855
-0.000264142
0.00359316
-0.000316036
0.00356371
-0.000364588
0.00353033
-0.000411151
0.00348889
-0.000461987
-0.000511399
0.00343828
0.00257967
-0.00017404
0.00266576
-0.000412254
0.0027779
-0.000585364
0.00289989
-0.00066067
0.0030268
-0.000662451
0.00314802
-0.000632093
0.00325396
-0.000567895
0.00334069
-0.000496623
0.00340929
-0.000422896
0.00346437
-0.000338294
0.00350528
-0.000269718
0.00353585
-0.000210996
0.00355936
-0.000160206
0.00357894
-0.000129485
0.00359682
-0.000104262
0.00360617
-7.38095e-05
0.0036117
-4.82356e-05
0.00361643
-3.20032e-05
0.00361719
-2.9714e-05
0.00362052
-1.7669e-05
0.00362376
-1.96008e-05
0.00362314
-1.47385e-05
0.0036199
-1.19319e-05
0.00361834
-1.11495e-05
0.00362412
-1.4234e-05
0.00362941
-3.74396e-06
0.00362814
-5.94261e-06
0.00362748
-2.80983e-06
0.00362759
-5.86418e-06
0.0036236
-7.87726e-06
0.00361902
-6.88151e-06
0.00361853
-9.12981e-06
0.00362003
-2.42402e-05
0.00362113
-3.00624e-05
0.00362261
-3.95382e-05
0.00361946
-5.09347e-05
0.00361292
-6.07955e-05
0.00361053
-7.31337e-05
0.00360977
-8.3486e-05
0.00360319
-0.000107908
0.00359423
-0.000122162
0.00358482
-0.000148451
0.00356888
-0.000177282
0.00355095
-0.000203884
0.00353128
-0.00024745
0.00350642
-0.000292114
0.00347813
-0.00032963
0.00344464
-0.000372019
0.00340224
-0.000420928
-0.000472182
0.00335008