/*--------------------------------*- C++ -*----------------------------------*\
  =========                 |
  \\      /  F ield         | OpenFOAM: The Open Source CFD Toolbox
   \\    /   O peration     | Website:  https://openfoam.org
    \\  /    A nd           | Version:  6
     \\/     M anipulation  |
\*---------------------------------------------------------------------------*/
FoamFile
{
    version     2.0;
    format      ascii;
    class       volScalarField;
    location    "./ITHACAoutput/POD/1";
    object      P_rec;
}
// * * * * * * * * * * * * * * * * * * * * * * * * * * * * * * * * * * * * * //

dimensions      [0 2 -2 0 0 0 0];

internalField   nonuniform List<scalar> 
9000
(
127.584
68.5131
53.4896
46.9953
43.7275
41.8355
40.4745
39.4649
38.8506
38.2675
37.7324
37.3124
36.8009
36.3217
35.7563
35.1972
34.6642
34.2829
33.9554
33.5155
32.8031
32.2328
31.8292
31.2702
30.8787
30.3472
29.5996
29.3461
28.6959
28.066
27.7687
27.1012
26.5438
26.1266
25.5961
25.1554
24.6115
24.1744
23.8173
23.428
22.6651
22.2637
21.8683
21.5627
21.0317
20.5298
20.4233
20.4526
19.9787
19.0836
93.0809
65.2132
54.2079
48.0733
44.7307
42.5612
41.1
39.978
39.1181
38.5019
37.9202
37.2571
36.7526
36.2214
35.8922
35.3285
34.8593
34.1966
33.7607
33.2241
32.9322
32.1266
31.7344
31.2674
30.7492
30.1543
29.6533
29.3653
28.6729
28.2236
27.6268
27.164
26.5869
26.1756
25.6816
25.2367
24.632
24.3285
23.5787
23.3288
22.6221
22.2854
21.8183
21.2267
21.1873
20.5928
20.3609
19.5891
19.2811
17.7021
74.6163
61.2185
53.9993
48.5735
45.4506
43.0601
41.3321
40.3735
39.3598
38.7611
38.0907
37.1587
36.9358
36.2711
35.7679
35.2658
34.7883
34.4623
33.7323
33.3134
32.7649
32.2754
31.7997
31.2952
30.6441
30.3876
29.6442
29.1669
28.6563
28.061
27.7994
27.1478
26.7804
26.3013
25.642
25.2379
24.6843
24.1812
23.7033
23.1395
22.6724
22.2732
21.7061
21.2626
20.8044
20.3113
19.7658
19.0263
18.4146
16.8115
64.7413
57.525
52.7914
48.491
45.5198
43.277
41.845
40.8114
39.68
38.9061
38.1856
37.5926
36.9313
36.2872
36.0011
35.4398
34.7671
34.3782
33.7861
33.1542
32.7914
32.2902
31.8382
31.1785
30.7056
30.2988
29.6824
29.3702
28.7089
28.4112
27.8209
27.2713
26.7428
26.2197
25.6364
25.2229
24.6808
24.2411
23.757
23.2259
22.6163
22.2293
21.8011
21.2574
20.7888
20.3127
19.5981
19.0557
17.9962
16.613
57.8821
54.358
50.9404
47.8731
45.2137
43.4308
42.1384
40.7897
39.7602
39.1325
38.0769
37.4884
37.0442
36.3393
35.8601
35.4556
34.7289
34.4644
33.853
33.4897
32.8349
32.4113
31.8285
31.2299
30.5889
30.3907
29.7796
29.2094
28.9772
28.2034
27.6544
27.1982
26.6349
26.3514
25.8454
25.0129
24.6608
24.1668
23.6741
23.1504
22.6439
22.1801
21.5827
20.9847
20.4648
20.0142
19.4197
18.7641
17.851
16.691
53.2687
51.3254
49.2557
46.8993
45.0109
43.4953
41.9077
40.7907
39.8589
38.9287
38.4554
37.8302
36.9803
36.5446
36.1263
35.4273
34.9631
34.4771
33.7175
33.2225
32.7725
32.3471
31.7397
31.2775
30.8144
30.4162
29.7641
29.2406
28.83
28.2523
27.653
27.1048
26.7893
26.4224
25.5352
25.1046
24.8105
24.0174
23.8504
22.9906
22.6804
22.0481
21.6052
21.0321
20.6878
19.9947
19.3255
18.6697
17.62
16.5595
49.8161
48.9205
47.7865
46.2845
44.7205
43.1493
41.7265
40.8617
39.8671
39.1173
38.3068
37.5355
37.0956
36.6818
35.842
35.4843
34.9715
34.2388
33.6303
33.3372
32.7078
32.3626
31.5968
31.2649
30.7512
30.1521
29.7473
29.0406
28.7223
28.2688
27.6111
27.2825
26.5537
26.1356
25.5551
25.0706
24.5196
24.0298
23.5435
23.1275
22.5481
22.0667
21.6006
21.1125
20.5023
19.8736
19.2027
18.3056
17.5551
16.7015
47.4424
47.0458
46.3242
45.138
44.0684
42.7039
41.6182
40.561
39.637
39.0761
38.3416
37.7578
37.1313
36.3673
36.0552
35.4598
35.0944
34.2716
33.5111
33.3501
32.6574
32.3182
31.9805
31.1962
30.6714
30.1755
29.7265
29.3344
28.7131
28.1368
27.6059
27.2077
26.5349
26.1692
25.6139
25.253
24.673
24.1176
23.6293
23.1285
22.5346
21.9512
21.4499
20.8749
20.323
19.8287
19.3528
18.4245
17.6845
16.7008
45.4842
45.475
45.0865
44.348
43.1824
42.3048
41.4613
40.7577
39.8933
39.1207
38.3924
37.7251
37.0654
36.5759
36.07
35.4496
34.9296
34.3881
33.8503
33.2136
32.9195
32.3989
31.8837
31.1698
30.7784
30.0302
29.452
29.1351
28.73
28.2223
27.7172
26.9576
26.4806
26.0066
25.7512
25.0178
24.614
24.0993
23.6446
22.9553
22.5755
22.0158
21.4318
20.9525
20.1868
19.8401
19.0672
18.4597
17.7819
16.8332
43.7861
44.1005
44.2233
43.6473
42.8692
42.0663
41.0757
40.2949
39.7577
39.1342
38.3112
37.7516
36.9152
36.7454
35.9416
35.5589
35.1211
34.3647
33.8783
33.2494
32.8293
32.2703
31.6364
31.3342
30.7218
30.4723
29.9049
29.147
28.8225
28.2881
27.7744
27.1322
26.725
26.2002
25.5325
25.1399
24.669
24.3253
23.4923
22.9317
22.5435
21.9577
21.3311
20.9026
20.3618
19.7945
19.0127
18.4266
17.6467
17.2032
42.7017
43.2786
43.2017
43.0294
42.0871
41.6634
40.9877
40.3172
39.5783
38.9838
38.4372
37.7505
37.0402
36.5269
35.7923
35.5696
34.9199
34.4556
33.9526
33.2323
32.7393
32.2523
31.7477
31.4523
30.8156
30.3121
29.6748
29.4786
28.5569
28.1776
27.7685
27.2786
26.6283
26.0599
25.5376
25.1216
24.5227
24.1462
23.663
22.8552
22.6424
21.8044
21.4688
20.8345
20.3005
19.7823
19.2473
18.4327
17.779
17.1367
41.8433
42.4221
42.5804
42.2051
41.9774
41.29
40.574
40.0469
39.4042
38.7376
38.2577
37.6589
37.1605
36.621
36.0771
35.3628
34.9963
34.3805
33.9556
33.3783
32.7607
32.2556
31.8142
31.2983
30.7712
30.3673
29.7028
28.9969
28.8271
28.2683
27.7721
27.3322
26.5676
26.0802
25.5153
24.9507
24.4634
24.1176
23.4883
22.896
22.4879
22.0108
21.3621
20.9592
20.2544
19.703
19.0711
18.5112
17.8585
17.2275
41.0463
41.559
41.9552
41.6269
41.3147
41.0453
40.4616
39.9288
39.2102
38.8841
38.2647
37.5789
37.0136
36.567
35.9584
35.3525
35.0853
34.306
33.8514
33.4611
32.8114
32.1758
31.7384
31.3906
30.85
30.2863
29.582
29.3312
28.6867
27.995
27.7449
27.0553
26.6729
26.1026
25.5646
25.0162
24.6667
24.1291
23.4671
23.1207
22.5475
22.0234
21.5214
20.9232
20.3271
19.6695
19.1588
18.4704
17.9661
17.2954
40.5443
41.1966
41.273
41.5671
41.1624
40.7268
40.2747
39.5583
39.2605
38.6926
38.2594
37.6432
37.0835
36.6057
36.083
35.4786
34.9212
34.4819
33.9134
33.3857
32.8545
32.1488
31.9164
31.4309
30.8186
30.1828
29.906
29.0423
28.7026
28.3417
27.7198
27.3068
26.7162
26.119
25.5606
25.2051
24.7022
23.9567
23.4932
23.0369
22.5009
22.0394
21.3996
21.0652
20.3827
19.904
19.1717
18.7517
17.9968
17.5984
40.1175
40.5268
40.9663
41.0103
40.8158
40.2911
40.3624
39.6738
39.1527
38.7764
38.2736
37.6399
36.8971
36.6037
36.1656
35.3627
35.0181
34.3104
33.9505
33.3432
32.9877
32.2897
31.8605
31.2894
30.65
30.3058
29.4905
29.1351
28.6208
28.1883
27.7491
27.0901
26.6271
26.0946
25.6787
25.1578
24.6256
23.9885
23.4778
22.8968
22.3441
21.946
21.3063
20.7943
20.3809
19.8714
19.1861
18.6637
18.0693
17.4961
39.7333
40.329
40.5556
40.5633
40.5376
40.3937
39.9443
39.504
39.0813
38.7439
38.1007
37.4903
36.9818
36.6905
36.0605
35.517
35.0605
34.2926
33.8342
33.5008
32.7373
32.3877
31.8258
31.2055
30.6356
30.1544
29.7577
29.2901
28.6863
28.29
27.7873
27.1452
26.5485
26.0725
25.6018
24.8424
24.6215
23.8651
23.6209
23.0457
22.5373
21.7997
21.3655
20.9918
20.1696
19.7058
19.2746
18.7669
18.0962
17.7006
39.5741
39.8053
40.2654
40.32
40.4724
40.2626
39.8591
39.5527
39.0967
38.6095
38.0452
37.5819
36.9447
36.3444
35.8012
35.3896
34.9471
34.4562
33.9496
33.4852
32.9519
32.3392
31.7928
31.2772
30.9295
30.1349
29.7936
29.2887
28.701
28.1828
27.6775
27.2333
26.6236
26.1822
25.5276
25.195
24.4628
24.0274
23.3563
23.0116
22.6201
21.9593
21.4324
20.8279
20.2499
19.8848
19.3423
18.6096
18.0152
17.6706
39.2563
39.8497
40.1298
40.2173
40.156
39.9356
39.7525
39.318
39.1923
38.7656
38.0311
37.5701
37.1
36.757
35.8089
35.2706
34.7741
34.4176
33.9201
33.4527
32.7842
32.4285
31.7473
31.1167
30.8668
30.3872
29.828
29.2194
28.5739
28.0998
27.7444
27.0401
26.5501
26.3012
25.3567
25.0824
24.6129
24.0903
23.475
22.9047
22.4066
21.9604
21.4137
20.8306
20.2593
19.8797
19.2971
18.8077
18.4365
17.7928
39.013
39.7131
40.0559
40.2348
40.0098
39.9092
39.5371
39.2544
38.9248
38.5489
38.0522
37.7183
37.0554
36.4929
36.1126
35.4772
34.9568
34.4901
33.8846
33.4041
32.8073
32.4629
31.8557
31.1491
30.7899
30.3203
29.6877
29.0974
28.8217
28.0586
27.7299
27.0869
26.6374
26.1165
25.7933
25.1013
24.62
24.2004
23.5174
22.7446
22.6113
21.9642
21.5322
20.9824
20.408
19.9522
19.5209
18.7875
18.2436
17.7972
39.0999
39.5077
39.9842
40.069
40.1636
39.8467
39.7685
39.555
39.0879
38.5559
38.0937
37.5185
37.0614
36.4163
36.025
35.4663
34.93
34.2765
33.963
33.3848
32.7053
32.4838
31.7806
30.9536
30.8928
30.1965
29.8896
29.2969
28.6357
28.144
27.6126
27.1862
26.6323
26.1308
25.7088
25.1342
24.3546
24.0968
23.5558
23.0151
22.6615
21.9384
21.5349
20.8273
20.2252
19.8955
19.2734
18.8687
18.1512
17.9419
38.9533
39.6328
40.1017
39.9044
40.1088
39.7681
39.6181
39.2143
38.8968
38.492
38.0408
37.6323
37.1933
36.528
36.0653
35.4559
34.9998
34.4689
34.0127
33.3963
32.7411
32.348
31.7187
31.3826
30.8641
30.2541
29.7474
29.2432
28.6227
28.192
27.6453
27.1043
26.5664
26.1332
25.7634
25.092
24.5391
24.1322
23.426
23.1253
22.6793
21.7219
21.3513
20.8671
20.3441
19.9009
19.4391
18.8073
18.3661
17.9967
38.9174
39.5976
39.9324
40.1539
40.3107
39.9447
39.9189
39.4609
38.7805
38.5487
38.1646
37.5752
37.0566
36.4126
35.9546
35.7059
34.8084
34.3547
33.8943
33.3481
32.8901
32.4267
31.836
31.4575
30.8085
30.0975
29.8093
29.1165
28.5283
28.2429
27.5474
27.0706
26.7742
25.9776
25.6401
24.9793
24.3877
23.9779
23.5374
22.9764
22.316
21.846
21.4377
20.8008
20.2491
19.9122
19.6243
18.8619
18.2984
18.1117
39.24
39.929
40.0571
40.1482
40.2676
40.0551
39.989
39.4467
38.8789
38.6189
38.0986
37.5214
37.0801
36.6967
36.0858
35.3353
34.8369
34.4398
33.9978
33.3518
32.7947
32.2939
31.789
31.3015
30.6327
30.3089
29.6284
29.416
28.761
27.9601
27.6392
27.2538
26.6188
26.0159
25.5192
24.9343
24.3461
23.9962
23.5541
22.9421
22.5307
22.1172
21.258
21.0721
20.5276
19.8124
19.3794
18.9177
18.4807
17.838
39.399
39.8888
40.2641
40.4196
40.4703
40.4218
40.0636
39.5486
38.932
38.6888
38.2445
37.6736
37.1076
36.5623
35.9387
35.416
35.0433
34.4308
33.8819
33.4106
32.7555
32.3206
31.7296
31.3227
30.5994
30.3513
29.6284
29.193
28.8763
28.2256
27.6366
27.2102
26.5101
26.0599
25.673
24.9202
24.4479
24.0769
23.4968
22.9047
22.4331
22.0203
21.3707
21.0117
20.5051
19.8174
19.3739
18.9356
18.4816
17.8877
39.876
40.2996
40.5978
40.5699
40.6393
40.4698
40.0426
39.7262
38.9703
38.7816
38.1348
37.6749
37.1859
36.5287
36.1584
35.5436
35.0509
34.5055
33.7756
33.6129
32.9572
32.3573
31.7046
31.2796
30.7717
30.2224
29.6556
29.1095
28.6182
28.0418
27.6385
27.0317
26.6659
26.0005
25.5522
25.045
24.5428
24.0629
23.4724
22.948
22.329
21.9324
21.4346
20.803
20.4618
19.8273
19.565
18.9033
18.5023
17.8684
40.1462
40.5324
40.9781
40.9031
40.7792
40.5697
40.2213
39.7703
39.2644
38.6477
38.0098
37.6686
36.9448
36.5822
36.1222
35.4228
34.7822
34.3086
33.8982
33.2466
32.832
32.3607
31.6868
31.2312
30.8305
30.1685
29.8155
29.1006
28.6616
27.9948
27.6498
27.1267
26.8456
25.9591
25.5172
25.0631
24.4472
24.1102
23.5297
23.05
22.5264
22.0828
21.4421
20.8381
20.4574
19.9059
19.4779
18.8455
18.4805
18.0224
40.813
40.9198
41.4615
41.3727
40.9141
40.8286
40.2791
39.8238
39.3329
38.8177
38.33
37.6328
37.0837
36.6582
36.0458
35.4161
35.225
34.4156
33.9334
33.2841
32.9181
32.2594
31.9074
31.3551
30.9488
30.229
29.5683
29.2371
28.8041
28.1062
27.5277
27.0104
26.794
26.1597
25.5843
25.0663
24.619
24.0131
23.5184
23.1669
22.2892
21.9476
21.4965
20.8881
20.5121
19.975
19.3614
18.8333
18.5461
17.9674
41.3222
41.5817
42.007
41.879
41.4208
41.0168
40.3206
40.0214
39.6294
38.7272
38.2131
37.6314
37.1848
36.556
35.8286
35.5946
34.8968
34.3429
34.0628
33.2301
32.9356
32.3865
31.7315
31.3612
30.7046
30.4186
29.7855
29.1816
28.7577
28.0687
27.5067
27.1043
26.4858
26.111
25.5394
24.9899
24.4993
23.9971
23.4699
22.9578
22.5556
22.0588
21.4061
21.0416
20.3572
19.9539
19.4209
18.9724
18.4036
18.069
41.8277
42.4264
42.711
42.269
41.8897
41.5494
40.8153
40.1039
39.379
38.9134
38.3696
37.5487
37.1347
36.5853
36.0491
35.5758
34.8034
34.4948
33.9587
33.4017
32.8234
32.2454
31.7658
31.2457
30.8399
30.1733
29.7105
29.1357
28.6302
28.1622
27.7698
27.0965
26.7643
26.0194
25.5785
25.0328
24.6468
24.0802
23.4464
22.8634
22.4076
21.9963
21.4189
20.9772
20.4013
19.9574
19.3408
18.994
18.6213
17.9204
42.7669
43.1785
43.3767
42.7871
42.4551
41.7384
41.0702
40.2461
39.6201
38.9029
38.2344
37.8724
37.1887
36.4589
35.8891
35.4499
34.9134
34.4641
33.8263
33.3822
32.7193
32.3618
31.7051
31.2994
30.6533
30.1528
29.6556
29.3282
28.5105
28.2635
27.6773
26.9951
26.5841
26.1208
25.6102
25.1583
24.5791
24.0026
23.3386
22.9025
22.5887
21.8656
21.2639
20.9587
20.5036
19.8713
19.2755
19.006
18.4701
18.0122
43.9392
44.3407
44.1945
43.6461
42.7917
42.2222
41.1798
40.4442
39.6217
39.1306
38.3188
37.7032
37.1327
36.4552
36.0563
35.407
34.821
34.4981
33.7541
33.2863
32.8855
32.3105
31.9782
31.2309
30.7734
30.2018
29.6741
29.2862
28.6876
28.02
27.5543
27.116
26.4497
26.094
25.7041
25.2234
24.4095
23.8145
23.2934
23.0801
22.5317
21.9041
21.3529
20.7521
20.4636
20.1684
19.5808
18.908
18.4412
17.8935
45.5365
45.4993
45.3899
44.4633
43.2277
42.395
41.4183
40.5001
39.766
39.0464
38.2129
37.6669
37.1324
36.5503
35.8846
35.4419
34.999
34.2367
33.854
33.5415
32.8645
32.3956
31.7617
31.2483
30.7162
30.2685
29.754
29.2252
28.6967
28.1615
27.8075
27.0261
26.6129
26.076
25.4464
25.026
24.4926
24.0374
23.5541
22.87
22.5043
22.0187
21.357
20.8314
20.4122
20.0339
19.37
18.8958
18.5222
18.0935
47.2776
46.9798
46.4008
45.348
43.947
42.8806
41.6984
40.7386
39.6704
38.9323
38.3713
37.8163
37.1098
36.4801
35.9396
35.4496
34.9164
34.4164
33.7809
33.2043
33.0163
32.3136
31.763
31.3486
30.7319
30.2863
29.6505
29.0489
28.7946
27.9252
27.7407
27.1797
26.4937
26.1877
25.6246
24.9841
24.7007
24.0112
23.4029
23.0546
22.3698
21.8758
21.4261
20.9384
20.4439
20.0013
19.4751
18.848
18.5837
17.8003
49.8554
49.176
47.6853
46.191
44.5809
43.1739
41.8574
40.8566
39.6837
39.1453
38.3415
37.8145
37.1779
36.5122
36.2031
35.4517
34.9077
34.4973
33.8125
33.3477
32.8908
32.174
31.632
31.3798
30.6549
30.234
29.8446
29.2309
28.9278
27.9204
27.5431
27.043
26.7133
25.94
25.5374
25.0939
24.5311
24.0049
23.498
22.8309
22.48
21.7534
21.2834
20.9728
20.4543
20.0109
19.3365
18.8416
18.4004
17.8428
53.0769
51.3517
49.4095
47.0883
45.1116
43.1141
42.1487
40.7752
39.6083
38.9507
38.3903
37.6041
36.9916
36.4144
35.8547
35.3799
34.7207
34.3841
33.8138
33.3489
32.7163
32.217
31.6611
31.3611
30.7183
30.1533
29.6425
29.0923
28.6791
28.2957
27.6525
27.0971
26.7147
25.9605
25.4903
24.9408
24.6749
24.0174
23.369
22.7608
22.3835
22.0519
21.2281
20.8418
20.321
19.8839
19.1456
18.9214
18.248
17.8819
57.9722
54.1149
50.9636
48.0227
45.3315
43.5032
41.9449
40.7153
39.8118
39.0944
38.1066
37.7084
36.9197
36.572
35.9512
35.283
34.7399
34.1039
34.001
33.2744
32.9195
32.3497
31.8577
31.3369
30.5334
30.2412
29.8533
29.22
28.5966
28.0799
27.7856
26.915
26.4994
25.8542
25.6394
24.9767
24.6663
24.0188
23.475
22.8251
22.4218
21.9066
21.3619
20.9318
20.3536
19.8127
19.3001
18.6564
18.2762
17.9237
64.6995
57.5954
52.8356
48.5813
45.545
43.3334
41.9136
40.6154
39.7679
38.8229
38.2647
37.3724
37.1155
36.3972
35.8016
35.5196
34.8154
34.1809
33.9558
33.3049
32.9758
32.2051
31.7642
31.3784
30.6768
30.387
29.7124
29.1223
28.7664
28.3426
27.5718
27.2814
26.6236
25.9457
25.3738
24.9775
24.4679
24.1035
23.3863
22.954
22.3584
21.769
21.5235
20.6571
20.2419
19.8916
19.3207
18.6607
18.2524
17.847
74.6472
61.2871
53.8803
48.8882
45.3557
43.0345
41.4835
40.1501
39.4869
38.5797
37.8969
37.4597
36.7945
36.266
35.8124
35.4717
34.9252
34.4512
33.6956
33.2409
32.7325
32.3028
31.8912
31.2614
30.6215
30.2585
29.6806
29.1445
28.6946
28.0842
27.6456
27.0088
26.3827
26.1006
25.6055
25.0921
24.3014
24.0176
23.4466
22.9239
22.3784
21.6956
21.3205
20.8649
20.1776
19.8374
19.2039
18.6813
18.1546
17.885
93.0223
65.0881
54.1748
48.3074
44.5749
42.6018
40.8771
40.1668
39.1716
38.6118
37.8262
37.4619
36.7433
36.0767
35.538
35.2117
34.7628
34.2236
33.8793
33.1437
32.8529
32.3299
31.6779
31.2
30.5984
30.1059
29.7038
29.2106
28.6529
28.1951
27.6287
27.1835
26.7561
25.9666
25.5051
25.041
24.4612
23.9452
23.2548
22.92
22.1586
21.6646
21.1501
20.7435
20.0646
19.8161
19.2013
18.9237
18.2488
17.6357
128.315
68.6362
53.3041
47.0344
43.7843
41.8165
40.1883
39.4261
38.9199
38.0846
37.7535
37.2102
36.779
36.177
35.7963
35.0694
34.592
34.2121
33.607
33.4244
32.7366
32.2779
31.7573
31.3072
30.6334
30.3166
29.7856
29.0902
28.7592
28.0121
27.6374
27.1431
26.5503
26.0959
25.5175
25.0531
24.2518
24.0279
23.3885
22.9015
22.3347
21.7291
21.4221
20.7117
20.2538
19.5831
19.1763
18.6518
18.0907
17.5185
8.84064
10.8704
11.046
11.3614
11.7672
11.7638
12.0357
12.0279
12.0679
11.913
12.1005
12.0583
11.8368
11.7244
11.7564
11.7299
11.4629
11.3234
11.3232
11.1404
11.0763
11.0715
10.8749
10.7031
10.5275
10.4591
10.3254
10.1596
10.0144
9.88662
9.73062
9.58759
9.45867
9.32206
9.18993
9.05234
8.89274
8.7474
8.6234
8.46626
8.3401
8.1757
8.04122
7.91533
7.77512
7.6394
7.48506
7.35642
7.22726
7.07281
6.91914
6.78279
6.64593
6.49277
6.37821
6.20852
6.06204
5.94735
5.81792
5.66419
5.52332
5.37381
5.25161
5.10793
4.96661
4.81148
4.68007
4.55104
4.40538
4.27524
4.13393
3.98738
3.84766
3.70784
3.56203
3.42763
3.29172
3.16919
3.00115
2.85292
2.72126
2.57606
2.44884
2.30135
2.15835
2.01452
1.87713
1.74046
1.61323
1.4624
1.31135
1.18203
1.03295
0.908092
0.768517
0.628285
0.489043
0.349319
0.210262
0.0699587
11.4644
12.0546
11.7387
12.0087
11.9248
12.2041
12.1094
12.0523
12.1146
12.2021
12.0794
11.9733
11.8687
11.8407
11.8516
11.4593
11.6217
11.536
11.143
11.1807
11.1309
10.9399
10.9835
10.88
10.4572
10.3805
10.2996
10.1716
10.0313
9.87847
9.73694
9.59424
9.45398
9.32792
9.1733
9.03937
8.88725
8.75616
8.62215
8.47139
8.32672
8.19001
8.05214
7.90512
7.76724
7.62459
7.49368
7.34618
7.2075
7.0709
6.92737
6.79374
6.66297
6.51496
6.35491
6.22065
6.08794
5.93274
5.81757
5.65983
5.53026
5.38243
5.24495
5.12004
4.96066
4.80998
4.69183
4.53823
4.40536
4.25055
4.13267
4.00078
3.83559
3.70172
3.54699
3.43074
3.27517
3.13663
3.01887
2.87614
2.72473
2.5783
2.44562
2.30267
2.15836
2.02549
1.87085
1.74684
1.60684
1.46738
1.34069
1.19639
1.05926
0.907274
0.769386
0.62943
0.491325
0.350909
0.210322
0.0699898
12.9398
12.7278
12.3244
12.2414
12.4558
12.3647
12.4587
12.2401
12.1123
12.3676
11.9482
12.0461
11.9089
11.9339
11.8728
11.6775
11.5682
11.5133
11.2556
11.0812
11.1225
10.9017
10.8324
10.7707
10.5608
10.3806
10.269
10.1475
10.0006
9.84706
9.74431
9.5929
9.45857
9.32515
9.18682
9.03797
8.87601
8.75291
8.61445
8.47217
8.32492
8.17354
8.05122
7.90849
7.77315
7.62416
7.49032
7.33393
7.20266
7.06743
6.91578
6.79154
6.65786
6.51472
6.33556
6.22235
6.06669
5.93713
5.80119
5.66795
5.52455
5.3882
5.24897
5.10263
4.96346
4.82855
4.68564
4.53058
4.40536
4.26462
4.12893
3.94384
3.84121
3.70352
3.56447
3.44309
3.26728
3.13951
3.00355
2.87322
2.72411
2.57804
2.44692
2.32094
2.16848
2.03209
1.86951
1.76291
1.59978
1.46739
1.3327
1.18665
1.03322
0.909068
0.767173
0.629334
0.489103
0.350306
0.211192
0.0700224
13.8028
13.5246
12.8321
12.7312
12.6696
12.4797
12.5437
12.4346
12.4885
12.1584
12.1612
12.215
12.0413
12.1428
11.8781
11.7805
11.6037
11.5184
11.146
11.2015
10.9961
10.8753
10.7365
10.767
10.5363
10.4596
10.2992
10.1008
9.99291
9.87862
9.75068
9.59098
9.45516
9.30643
9.1637
9.01639
8.88529
8.77233
8.61975
8.48133
8.3439
8.179
8.0535
7.90704
7.76402
7.63823
7.47876
7.351
7.19273
7.04657
6.9177
6.79315
6.66444
6.48713
6.38208
6.20632
6.08806
5.94028
5.80741
5.65686
5.53351
5.388
5.23473
5.12548
4.9659
4.81825
4.66751
4.53735
4.40674
4.25407
4.13601
4.00914
3.86077
3.70721
3.5732
3.42296
3.29632
3.13245
2.99606
2.8573
2.73587
2.59377
2.45581
2.33958
2.18152
2.0309
1.87777
1.74186
1.61185
1.45749
1.32004
1.19608
1.058
0.908605
0.769947
0.628616
0.49075
0.349692
0.209663
0.0698798
14.4893
13.8557
13.3235
13.0092
12.7383
12.8203
12.6178
12.5602
12.5967
12.16
12.2181
12.2693
12.1891
11.7921
11.8147
11.6404
11.7114
11.4653
11.3423
11.1663
11.2157
10.8851
10.6695
10.7896
10.4971
10.3497
10.3414
10.0752
10.0306
9.87697
9.72991
9.60132
9.43777
9.32925
9.18192
9.00984
8.88538
8.74108
8.60481
8.47312
8.32414
8.18679
8.05785
7.90916
7.77227
7.62429
7.47555
7.35252
7.19207
7.06815
6.92464
6.77919
6.64889
6.49704
6.36386
6.2183
6.08779
5.96073
5.81047
5.66228
5.52933
5.37865
5.24488
5.09386
4.96689
4.81977
4.66747
4.53884
4.40672
4.25962
4.1214
3.98622
3.84266
3.71344
3.56794
3.42878
3.27943
3.15848
3.01212
2.87154
2.72545
2.58834
2.45433
2.32181
2.17376
2.02551
1.87809
1.75639
1.61178
1.46489
1.36133
1.20087
1.04471
0.910594
0.768922
0.628777
0.490784
0.351168
0.211825
0.069979
15.0943
14.404
13.7341
13.3247
13.4182
12.8677
13.0882
12.5201
12.5999
12.4317
12.2833
12.2862
12.0813
11.6489
11.7484
11.4958
11.5684
11.4814
11.4901
11.153
11.0495
10.8722
10.768
10.7128
10.6281
10.3628
10.3534
10.1507
9.99885
9.86686
9.70191
9.57784
9.44621
9.31407
9.15409
9.00365
8.88144
8.75443
8.62747
8.44738
8.31377
8.17826
8.05505
7.91507
7.7658
7.61775
7.50173
7.34291
7.19862
7.04807
6.92423
6.77448
6.6555
6.5
6.3598
6.21473
6.0841
5.95144
5.80609
5.66338
5.51363
5.39566
5.24225
5.10491
4.95127
4.82938
4.66929
4.54486
4.4053
4.2549
4.12422
3.9751
3.84704
3.72639
3.56358
3.41973
3.2892
3.14434
3.01826
2.87144
2.73005
2.58743
2.45269
2.32031
2.17276
2.03863
1.87958
1.76025
1.61934
1.46742
1.32096
1.1838
1.05755
0.909584
0.76821
0.62995
0.489735
0.35098
0.210827
0.0700593
15.5036
14.7251
13.9481
13.6079
13.4717
13.0135
13.1285
12.6583
12.736
12.7057
12.4341
12.2946
12.3665
12.139
11.8763
11.8068
11.8664
11.3282
11.3755
11.2401
11.2054
11.0273
10.7193
10.6082
10.6308
10.319
10.2633
10.1031
9.99955
9.87904
9.71778
9.5683
9.45114
9.31437
9.179
9.01196
8.89736
8.73043
8.62011
8.45999
8.31255
8.15532
8.04261
7.90762
7.75506
7.60843
7.48987
7.33453
7.20824
7.07712
6.91391
6.79026
6.61642
6.50726
6.37165
6.23457
6.08584
5.94407
5.78741
5.66792
5.50475
5.37853
5.24876
5.10866
4.97172
4.80578
4.68059
4.5495
4.40668
4.26741
4.12402
3.98929
3.83233
3.71136
3.55737
3.41975
3.29599
3.1493
3.0018
2.86236
2.7225
2.60243
2.44147
2.33268
2.17524
2.02816
1.8845
1.75417
1.59821
1.46571
1.34356
1.20226
1.0443
0.908315
0.769563
0.62815
0.489586
0.349539
0.208881
0.0701628
15.6944
15.1339
14.4529
14.0227
13.51
13.5682
13.2109
12.8421
12.8318
12.7986
12.5903
12.4079
12.3205
12.3747
11.8397
11.8865
11.5078
11.5058
11.3544
11.2972
11.0086
11.1155
10.8017
10.7101
10.4769
10.3807
10.1932
10.1767
9.97977
9.85697
9.71203
9.56181
9.40985
9.296
9.16872
9.02842
8.86405
8.7296
8.58802
8.44504
8.29615
8.17459
8.04477
7.90626
7.76598
7.61399
7.4711
7.3193
7.21792
7.06313
6.91711
6.76604
6.6425
6.50783
6.35233
6.22888
6.07733
5.93134
5.80736
5.65177
5.5127
5.38491
5.24255
5.10201
4.93995
4.84471
4.68026
4.54252
4.40133
4.25818
4.11572
3.99566
3.85982
3.6995
3.55245
3.43128
3.27599
3.13577
3.00022
2.86307
2.73734
2.57754
2.44149
2.3282
2.18493
2.03171
1.88943
1.75181
1.59042
1.47608
1.32373
1.17334
1.05588
0.907548
0.767877
0.628555
0.491207
0.349388
0.210757
0.0701351
16.0073
15.4088
14.6627
14.1017
14.0213
13.7303
13.1402
13.1845
12.889
12.746
12.7634
12.4214
12.3724
11.9785
12.0948
11.7769
11.6638
11.4278
11.4151
11.1736
11.2753
11.0038
10.773
10.6874
10.4861
10.4774
10.1901
10.1209
9.99412
9.84245
9.71123
9.56497
9.43061
9.30061
9.15661
9.01328
8.87567
8.74869
8.60445
8.44668
8.30897
8.16973
8.03826
7.89739
7.74289
7.60802
7.48729
7.33532
7.21531
7.07244
6.91844
6.77707
6.63505
6.50348
6.3531
6.22168
6.07811
5.94368
5.79899
5.64417
5.51079
5.38154
5.26428
5.10256
4.97504
4.82881
4.6905
4.54136
4.40524
4.26271
4.10957
3.99126
3.83193
3.70265
3.56407
3.41577
3.27915
3.1417
3.00764
2.87418
2.71982
2.59039
2.43376
2.30972
2.17816
2.02223
1.89599
1.76915
1.61155
1.46181
1.32917
1.20388
1.04619
0.908895
0.769629
0.629768
0.488703
0.34903
0.210168
0.0700805
16.1067
15.5686
15.0487
14.459
14.1571
13.6867
13.5358
13.2402
13.0391
12.8273
12.4324
12.5705
12.2671
12.241
12.1346
11.8878
11.8223
11.7441
11.5196
11.2716
11.1547
11.0647
10.8092
10.7404
10.5113
10.3941
10.3249
10.0941
10.0039
9.82735
9.69899
9.55854
9.43908
9.28247
9.16154
8.98327
8.87636
8.74367
8.60009
8.45005
8.31446
8.16532
8.0358
7.89086
7.74701
7.61253
7.45402
7.33593
7.19346
7.06515
6.92981
6.80333
6.6471
6.52214
6.37333
6.21835
6.06044
5.95096
5.79768
5.66395
5.51663
5.39272
5.24027
5.11575
4.94587
4.82115
4.69813
4.53893
4.40664
4.27264
4.12291
3.98017
3.83141
3.71066
3.56245
3.42524
3.28377
3.13736
3.00474
2.85652
2.71385
2.59043
2.44482
2.29773
2.17667
2.00204
1.88989
1.75361
1.61996
1.46905
1.32206
1.17625
1.05453
0.909918
0.768766
0.629678
0.488241
0.349041
0.210438
0.0699315
16.2959
15.6694
14.9751
14.6126
14.2984
13.9399
13.4528
13.5179
13.0329
12.9329
12.6961
12.6081
12.3787
12.1118
12.1088
11.9438
11.6871
11.3881
11.4018
11.3741
11.1979
11.0079
10.8097
10.6492
10.6003
10.4437
10.232
10.1673
9.97066
9.84636
9.69754
9.5615
9.41648
9.28718
9.15213
9.012
8.86801
8.72559
8.59424
8.45467
8.3143
8.17488
8.02774
7.90055
7.75369
7.62457
7.46554
7.32463
7.18717
7.04839
6.90249
6.78406
6.6293
6.49996
6.37121
6.2221
6.07457
5.94277
5.80025
5.65207
5.52315
5.39024
5.24673
5.11251
4.96031
4.82325
4.70451
4.53891
4.3915
4.26252
4.12407
3.98046
3.84301
3.70999
3.53749
3.43177
3.28691
3.14425
3.00599
2.8537
2.73559
2.59118
2.44503
2.29824
2.17688
2.0186
1.88991
1.75609
1.61677
1.47237
1.32349
1.18785
1.0503
0.908925
0.768286
0.630779
0.490769
0.350005
0.208848
0.0699546
16.5485
15.8384
15.4558
14.8281
14.4503
13.9482
13.862
13.3986
13.3281
13.0423
12.8699
12.8288
12.5895
12.2737
12.0049
11.8672
11.6741
11.4726
11.5366
11.3058
11.1578
10.9556
10.7395
10.6171
10.4717
10.4176
10.2141
10.0932
9.9756
9.82486
9.70443
9.56153
9.4184
9.27234
9.13954
9.00079
8.87318
8.7371
8.55502
8.45342
8.287
8.17563
8.03644
7.90262
7.7578
7.6113
7.46033
7.3373
7.19376
7.03809
6.91188
6.78686
6.63817
6.4884
6.3581
6.21505
6.07056
5.94149
5.81178
5.65229
5.53589
5.37731
5.23606
5.09962
4.97687
4.81785
4.69459
4.54667
4.41089
4.27315
4.12169
3.99163
3.84421
3.70161
3.54375
3.42698
3.28633
3.14199
3.00522
2.86479
2.71845
2.58926
2.45406
2.29965
2.17234
2.03021
1.88933
1.74482
1.62141
1.47003
1.33159
1.17005
1.05528
0.909393
0.769261
0.628244
0.488959
0.349319
0.209604
0.0700004
16.7826
15.993
15.639
14.9962
14.6026
14.2535
13.8993
13.4891
13.4126
13.1452
12.9743
12.6843
12.5889
12.3275
11.909
11.9598
11.6778
11.6453
11.5212
11.211
11.2587
11.004
10.8311
10.773
10.6254
10.4544
10.254
10.0845
9.97742
9.82085
9.68528
9.55364
9.39218
9.2795
9.12383
9.0042
8.87084
8.7379
8.58685
8.43219
8.30622
8.17204
8.03488
7.87799
7.76966
7.61749
7.46097
7.3384
7.19003
7.07096
6.90361
6.76758
6.63154
6.48274
6.36964
6.22371
6.06679
5.93349
5.79164
5.65444
5.52385
5.40043
5.24879
5.08966
4.95512
4.82269
4.66881
4.55268
4.40849
4.27471
4.12469
3.97855
3.85272
3.69455
3.54903
3.43477
3.30238
3.13915
3.008
2.87566
2.74457
2.57172
2.43718
2.31328
2.18403
2.02648
1.88697
1.73788
1.58994
1.4639
1.31739
1.19286
1.04912
0.908701
0.771364
0.627687
0.490405
0.350027
0.210169
0.0699532
16.7639
16.1473
15.4979
15.3343
14.6037
14.4498
13.9944
13.6452
13.529
13.073
12.9225
12.8598
12.5276
12.2728
12.1712
11.9676
11.7189
11.722
11.4143
11.199
11.1706
10.8625
10.9556
10.6437
10.6285
10.2816
10.2086
10.1477
9.95674
9.84442
9.70459
9.55908
9.42211
9.25896
9.12852
8.99332
8.8488
8.722
8.56539
8.43887
8.30987
8.15957
8.03147
7.88588
7.74401
7.61814
7.47081
7.31392
7.1943
7.04752
6.92806
6.75229
6.6506
6.49477
6.37156
6.2234
6.07787
5.93313
5.79958
5.65283
5.52638
5.39152
5.26037
5.1029
4.9583
4.8266
4.67394
4.52806
4.39751
4.24739
4.12386
3.98913
3.84117
3.6888
3.56217
3.41556
3.26917
3.14494
2.99237
2.88356
2.73434
2.60885
2.43458
2.30607
2.17762
2.0265
1.87801
1.74833
1.59558
1.46997
1.35787
1.17335
1.05487
0.908213
0.768152
0.629345
0.488351
0.350368
0.208538
0.0699925
16.696
16.2652
15.64
15.1035
14.6174
14.4272
14.1071
13.768
13.4124
13.2065
12.9
12.8338
12.6183
12.3538
12.1624
12.0187
11.8002
11.7443
11.3545
11.2676
11.0046
10.9214
10.9687
10.7255
10.6088
10.38
10.3037
10.0621
9.96768
9.83947
9.67551
9.53543
9.3939
9.26807
9.12692
8.98673
8.8534
8.69621
8.58135
8.43757
8.30209
8.16464
8.01841
7.87937
7.75463
7.60176
7.46076
7.31103
7.18405
7.04864
6.90202
6.7826
6.63609
6.49926
6.372
6.21189
6.08148
5.93713
5.78742
5.65653
5.54529
5.37656
5.24867
5.10816
4.94431
4.82656
4.67679
4.54868
4.40623
4.25736
4.12546
3.99498
3.82899
3.72448
3.57035
3.44064
3.28845
3.15208
3.01021
2.852
2.71274
2.58478
2.46399
2.30088
2.17492
2.01975
1.86625
1.73922
1.58936
1.46111
1.32593
1.19679
1.05295
0.908272
0.770634
0.631206
0.487881
0.350401
0.209146
0.0700919
17.023
16.3711
16.0703
15.3643
15.1114
14.51
14.1491
13.9036
13.5567
13.3771
12.8403
12.8776
12.6958
12.3718
12.0739
12.086
12.1314
11.6782
11.5227
11.0979
11.0141
10.9302
10.8159
10.6328
10.5458
10.3177
10.2042
10.1231
9.97018
9.80633
9.68708
9.53729
9.4072
9.26145
9.11099
8.98364
8.84955
8.72127
8.56103
8.44832
8.30118
8.16056
8.014
7.89954
7.73872
7.60145
7.46932
7.32814
7.18714
7.05065
6.91151
6.77651
6.64519
6.49096
6.3351
6.20329
6.07025
5.93754
5.78839
5.65287
5.52755
5.37505
5.22617
5.09089
4.96267
4.82726
4.67388
4.55789
4.41083
4.29206
4.12954
3.995
3.84082
3.70349
3.56378
3.41101
3.28663
3.14366
3.00751
2.87275
2.71333
2.5849
2.44637
2.29835
2.16398
2.0246
1.86627
1.73455
1.61284
1.46969
1.33334
1.18034
1.05385
0.908698
0.769742
0.629851
0.488644
0.348832
0.207429
0.0700335
17.0447
16.5123
15.8959
15.6299
14.9107
14.6524
14.2838
13.8601
13.5688
13.3409
13.0318
12.9345
12.6118
12.4363
12.0297
11.989
11.6924
11.5498
11.6024
11.2281
11.042
10.9433
10.8411
10.5356
10.5526
10.3498
10.2965
10.1147
9.98034
9.82418
9.669
9.53578
9.38275
9.25244
9.12957
8.97189
8.83538
8.69715
8.57158
8.42648
8.29359
8.1525
8.01142
7.87585
7.73178
7.58857
7.45632
7.3176
7.19899
7.04635
6.92083
6.7866
6.64258
6.49857
6.34819
6.2071
6.07701
5.93858
5.80507
5.65766
5.53026
5.36251
5.23448
5.09596
4.95893
4.81104
4.68891
4.54836
4.40009
4.25535
4.13176
3.98572
3.85303
3.70188
3.57395
3.42384
3.2791
3.12946
3.00553
2.86832
2.73843
2.57083
2.44799
2.30416
2.16429
2.03227
1.87438
1.75105
1.61645
1.47053
1.33145
1.19589
1.04851
0.90893
0.76762