/*--------------------------------*- C++ -*----------------------------------*\
  =========                 |
  \\      /  F ield         | OpenFOAM: The Open Source CFD Toolbox
   \\    /   O peration     | Website:  https://openfoam.org
    \\  /    A nd           | Version:  6
     \\/     M anipulation  |
\*---------------------------------------------------------------------------*/
FoamFile
{
    version     2.0;
    format      ascii;
    class       volVectorField;
    location    "0";
    object      U;
}
// * * * * * * * * * * * * * * * * * * * * * * * * * * * * * * * * * * * * * //

dimensions      [0 1 -1 0 0 0 0];

internalField   nonuniform List<vector> 
40000
(
(4.55874e-07 -4.55994e-07 0)
(2.81706e-06 -9.56821e-07 0)
(6.09505e-06 -1.11475e-06 0)
(9.43693e-06 -9.85312e-07 0)
(1.19873e-05 -7.00021e-07 0)
(1.32805e-05 -3.2873e-07 0)
(1.30655e-05 8.32896e-08 0)
(1.1224e-05 5.0707e-07 0)
(7.72838e-06 9.24698e-07 0)
(2.60988e-06 1.32508e-06 0)
(-4.06309e-06 1.70158e-06 0)
(-1.21991e-05 2.05055e-06 0)
(-2.16935e-05 2.37035e-06 0)
(-3.24345e-05 2.66057e-06 0)
(-4.43088e-05 2.92161e-06 0)
(-5.72044e-05 3.15448e-06 0)
(-7.10131e-05 3.36064e-06 0)
(-8.56323e-05 3.54181e-06 0)
(-0.000100966 3.69991e-06 0)
(-0.000116924 3.8369e-06 0)
(-0.000133424 3.95473e-06 0)
(-0.000150394 4.05534e-06 0)
(-0.000167765 4.14062e-06 0)
(-0.000185477 4.21237e-06 0)
(-0.000203478 4.27228e-06 0)
(-0.000221722 4.32193e-06 0)
(-0.000240168 4.36278e-06 0)
(-0.00025878 4.39613e-06 0)
(-0.000277531 4.4232e-06 0)
(-0.000296393 4.44504e-06 0)
(-0.000315347 4.46261e-06 0)
(-0.000334375 4.47672e-06 0)
(-0.000353463 4.48807e-06 0)
(-0.000372599 4.49728e-06 0)
(-0.000391774 4.50483e-06 0)
(-0.000410981 4.51113e-06 0)
(-0.000430214 4.5165e-06 0)
(-0.000449468 4.52117e-06 0)
(-0.000468739 4.52531e-06 0)
(-0.000488025 4.529e-06 0)
(-0.000507323 4.5323e-06 0)
(-0.000526629 4.53518e-06 0)
(-0.000545941 4.53758e-06 0)
(-0.000565257 4.53941e-06 0)
(-0.000584572 4.54053e-06 0)
(-0.000603882 4.54077e-06 0)
(-0.000623182 4.53994e-06 0)
(-0.000642467 4.53783e-06 0)
(-0.000661731 4.5342e-06 0)
(-0.000680966 4.5288e-06 0)
(-0.000700163 4.52139e-06 0)
(-0.000719313 4.51168e-06 0)
(-0.000738405 4.49942e-06 0)
(-0.000757428 4.48432e-06 0)
(-0.000776369 4.46611e-06 0)
(-0.000795214 4.44451e-06 0)
(-0.000813947 4.41924e-06 0)
(-0.000832553 4.39004e-06 0)
(-0.000851014 4.35662e-06 0)
(-0.000869313 4.31874e-06 0)
(-0.000887428 4.27613e-06 0)
(-0.000905342 4.22854e-06 0)
(-0.000923031 4.17574e-06 0)
(-0.000940473 4.11749e-06 0)
(-0.000957645 4.05357e-06 0)
(-0.000974524 3.98377e-06 0)
(-0.000991084 3.9079e-06 0)
(-0.0010073 3.82575e-06 0)
(-0.00102314 3.73716e-06 0)
(-0.00103859 3.64196e-06 0)
(-0.00105361 3.54e-06 0)
(-0.00106817 3.43115e-06 0)
(-0.00108225 3.31527e-06 0)
(-0.00109582 3.19227e-06 0)
(-0.00110885 3.06204e-06 0)
(-0.00112131 2.92452e-06 0)
(-0.00113316 2.77964e-06 0)
(-0.00114438 2.62735e-06 0)
(-0.00115494 2.46765e-06 0)
(-0.0011648 2.3005e-06 0)
(-0.00117394 2.12594e-06 0)
(-0.00118233 1.944e-06 0)
(-0.00118993 1.75473e-06 0)
(-0.00119671 1.55822e-06 0)
(-0.00120266 1.35455e-06 0)
(-0.00120773 1.14387e-06 0)
(-0.0012119 9.26329e-07 0)
(-0.00121514 7.021e-07 0)
(-0.00121743 4.71394e-07 0)
(-0.00121874 2.34447e-07 0)
(-0.00121904 -8.47449e-09 0)
(-0.00121832 -2.57074e-07 0)
(-0.00121655 -5.11023e-07 0)
(-0.0012137 -7.69962e-07 0)
(-0.00120977 -1.0335e-06 0)
(-0.00120473 -1.30121e-06 0)
(-0.00119857 -1.57263e-06 0)
(-0.00119127 -1.84727e-06 0)
(-0.00118283 -2.1246e-06 0)
(-0.00117323 -2.40408e-06 0)
(-0.00116246 -2.6851e-06 0)
(-0.00115053 -2.96704e-06 0)
(-0.00113744 -3.24925e-06 0)
(-0.00112317 -3.53105e-06 0)
(-0.00110774 -3.81173e-06 0)
(-0.00109115 -4.09055e-06 0)
(-0.00107342 -4.36676e-06 0)
(-0.00105455 -4.63958e-06 0)
(-0.00103456 -4.9082e-06 0)
(-0.00101348 -5.17183e-06 0)
(-0.00099132 -5.42963e-06 0)
(-0.000968111 -5.68077e-06 0)
(-0.000943882 -5.92443e-06 0)
(-0.000918667 -6.15976e-06 0)
(-0.000892501 -6.38595e-06 0)
(-0.000865423 -6.60216e-06 0)
(-0.000837478 -6.80761e-06 0)
(-0.00080871 -7.00149e-06 0)
(-0.000779169 -7.18305e-06 0)
(-0.000748906 -7.35156e-06 0)
(-0.000717978 -7.50631e-06 0)
(-0.000686442 -7.64666e-06 0)
(-0.000654358 -7.77197e-06 0)
(-0.000621789 -7.88168e-06 0)
(-0.000588799 -7.97527e-06 0)
(-0.000555456 -8.05227e-06 0)
(-0.000521828 -8.1123e-06 0)
(-0.000487986 -8.15499e-06 0)
(-0.000454 -8.18009e-06 0)
(-0.000419944 -8.18738e-06 0)
(-0.000385889 -8.17673e-06 0)
(-0.00035191 -8.14807e-06 0)
(-0.000318081 -8.10141e-06 0)
(-0.000284473 -8.03683e-06 0)
(-0.000251162 -7.95449e-06 0)
(-0.000218218 -7.85462e-06 0)
(-0.000185712 -7.73751e-06 0)
(-0.000153716 -7.60353e-06 0)
(-0.000122296 -7.45311e-06 0)
(-9.15195e-05 -7.28676e-06 0)
(-6.14507e-05 -7.10504e-06 0)
(-3.21513e-05 -6.90856e-06 0)
(-3.68065e-06 -6.698e-06 0)
(2.39046e-05 -6.47408e-06 0)
(5.0551e-05 -6.23757e-06 0)
(7.6208e-05 -5.98927e-06 0)
(0.000100829 -5.73002e-06 0)
(0.000124369 -5.46068e-06 0)
(0.000146789 -5.18216e-06 0)
(0.000168052 -4.89535e-06 0)
(0.000188126 -4.60119e-06 0)
(0.000206981 -4.30058e-06 0)
(0.000224591 -3.99447e-06 0)
(0.000240936 -3.68377e-06 0)
(0.000255997 -3.36941e-06 0)
(0.00026976 -3.05228e-06 0)
(0.000282214 -2.73327e-06 0)
(0.000293354 -2.41324e-06 0)
(0.000303174 -2.09304e-06 0)
(0.000311675 -1.77349e-06 0)
(0.000318861 -1.45536e-06 0)
(0.000324737 -1.13943e-06 0)
(0.000329314 -8.26424e-07 0)
(0.000332604 -5.17042e-07 0)
(0.000334622 -2.11962e-07 0)
(0.000335386 8.81666e-08 0)
(0.000334919 3.82715e-07 0)
(0.000333242 6.71073e-07 0)
(0.000330383 9.52644e-07 0)
(0.00032637 1.22684e-06 0)
(0.000321235 1.49306e-06 0)
(0.000315011 1.75072e-06 0)
(0.000307735 1.99918e-06 0)
(0.000299446 2.2378e-06 0)
(0.000290187 2.46588e-06 0)
(0.000280004 2.68264e-06 0)
(0.000268945 2.88725e-06 0)
(0.000257062 3.07875e-06 0)
(0.000244415 3.25608e-06 0)
(0.000231063 3.41801e-06 0)
(0.000217075 3.56313e-06 0)
(0.000202526 3.68981e-06 0)
(0.000187495 3.79615e-06 0)
(0.000172073 3.87997e-06 0)
(0.000156358 3.93869e-06 0)
(0.000140462 3.96933e-06 0)
(0.000124507 3.96839e-06 0)
(0.000108631 3.93178e-06 0)
(9.29885e-05 3.85474e-06 0)
(7.77546e-05 3.73169e-06 0)
(6.31251e-05 3.55616e-06 0)
(4.93209e-05 3.32072e-06 0)
(3.65897e-05 3.01701e-06 0)
(2.52063e-05 2.63603e-06 0)
(1.54695e-05 2.16925e-06 0)
(7.69064e-06 1.61162e-06 0)
(2.16506e-06 9.68037e-07 0)
(-9.02171e-07 2.6491e-07 0)
(-1.61762e-06 -3.91557e-07 0)
(-6.34534e-07 -6.34585e-07 0)
(9.60253e-07 -2.82057e-06 0)
(5.89965e-06 -5.88669e-06 0)
(1.20043e-05 -6.61342e-06 0)
(1.75915e-05 -5.51941e-06 0)
(2.09531e-05 -3.2263e-06 0)
(2.10556e-05 -2.10296e-07 0)
(1.72796e-05 3.1942e-06 0)
(9.29352e-06 6.75859e-06 0)
(-3.02207e-06 1.03288e-05 0)
(-1.96362e-05 1.38025e-05 0)
(-4.04147e-05 1.71127e-05 0)
(-6.51547e-05 2.02181e-05 0)
(-9.36093e-05 2.30949e-05 0)
(-0.000125506 2.5732e-05 0)
(-0.000160561 2.81272e-05 0)
(-0.000198487 3.02844e-05 0)
(-0.000239002 3.22125e-05 0)
(-0.000281835 3.39232e-05 0)
(-0.000326727 3.54304e-05 0)
(-0.000373437 3.67493e-05 0)
(-0.000421742 3.78957e-05 0)
(-0.000471435 3.88853e-05 0)
(-0.00052233 3.9734e-05 0)
(-0.000574258 4.04569e-05 0)
(-0.00062707 4.10686e-05 0)
(-0.000680631 4.15826e-05 0)
(-0.000734825 4.20117e-05 0)
(-0.000789548 4.23676e-05 0)
(-0.000844712 4.26609e-05 0)
(-0.000900242 4.29013e-05 0)
(-0.000956072 4.30972e-05 0)
(-0.00101215 4.32561e-05 0)
(-0.00106842 4.33847e-05 0)
(-0.00112486 4.34884e-05 0)
(-0.00118143 4.3572e-05 0)
(-0.00123809 4.36393e-05 0)
(-0.00129485 4.36934e-05 0)
(-0.00135166 4.37366e-05 0)
(-0.00140852 4.37706e-05 0)
(-0.00146541 4.37965e-05 0)
(-0.00152233 4.38148e-05 0)
(-0.00157925 4.38256e-05 0)
(-0.00163617 4.38286e-05 0)
(-0.00169307 4.3823e-05 0)
(-0.00174994 4.38076e-05 0)
(-0.00180676 4.37813e-05 0)
(-0.00186352 4.37422e-05 0)
(-0.0019202 4.36886e-05 0)
(-0.00197677 4.36186e-05 0)
(-0.00203321 4.35299e-05 0)
(-0.0020895 4.34202e-05 0)
(-0.00214561 4.32874e-05 0)
(-0.0022015 4.31289e-05 0)
(-0.00225713 4.29423e-05 0)
(-0.00231248 4.27251e-05 0)
(-0.00236749 4.2475e-05 0)
(-0.00242212 4.21893e-05 0)
(-0.00247633 4.18657e-05 0)
(-0.00253006 4.15019e-05 0)
(-0.00258327 4.10954e-05 0)
(-0.00263588 4.06439e-05 0)
(-0.00268786 4.01454e-05 0)
(-0.00273912 3.95976e-05 0)
(-0.00278961 3.89985e-05 0)
(-0.00283927 3.83461e-05 0)
(-0.00288802 3.76386e-05 0)
(-0.00293579 3.68742e-05 0)
(-0.00298251 3.60514e-05 0)
(-0.00302809 3.51685e-05 0)
(-0.00307248 3.42242e-05 0)
(-0.00311558 3.32172e-05 0)
(-0.00315731 3.21464e-05 0)
(-0.0031976 3.10107e-05 0)
(-0.00323637 2.98094e-05 0)
(-0.00327352 2.85416e-05 0)
(-0.00330897 2.72068e-05 0)
(-0.00334265 2.58046e-05 0)
(-0.00337446 2.43348e-05 0)
(-0.00340431 2.27973e-05 0)
(-0.00343214 2.11922e-05 0)
(-0.00345784 1.95199e-05 0)
(-0.00348134 1.77807e-05 0)
(-0.00350255 1.59754e-05 0)
(-0.00352139 1.41049e-05 0)
(-0.00353779 1.21703e-05 0)
(-0.00355166 1.01729e-05 0)
(-0.00356292 8.11428e-06 0)
(-0.0035715 5.99629e-06 0)
(-0.00357733 3.82097e-06 0)
(-0.00358034 1.59062e-06 0)
(-0.00358046 -6.9217e-07 0)
(-0.00357763 -3.02456e-06 0)
(-0.0035718 -5.40342e-06 0)
(-0.0035629 -7.82535e-06 0)
(-0.00355088 -1.02867e-05 0)
(-0.00353571 -1.27834e-05 0)
(-0.00351735 -1.53112e-05 0)
(-0.00349575 -1.78657e-05 0)
(-0.00347089 -2.04419e-05 0)
(-0.00344274 -2.30347e-05 0)
(-0.0034113 -2.56388e-05 0)
(-0.00337656 -2.82484e-05 0)
(-0.0033385 -3.08576e-05 0)
(-0.00329714 -3.34602e-05 0)
(-0.0032525 -3.605e-05 0)
(-0.00320459 -3.86201e-05 0)
(-0.00315345 -4.11639e-05 0)
(-0.00309911 -4.36743e-05 0)
(-0.00304163 -4.61442e-05 0)
(-0.00298106 -4.85663e-05 0)
(-0.00291746 -5.09334e-05 0)
(-0.00285092 -5.3238e-05 0)
(-0.00278151 -5.54727e-05 0)
(-0.00270933 -5.76301e-05 0)
(-0.00263449 -5.9703e-05 0)
(-0.00255709 -6.16839e-05 0)
(-0.00247725 -6.35659e-05 0)
(-0.00239511 -6.5342e-05 0)
(-0.0023108 -6.70054e-05 0)
(-0.00222447 -6.85497e-05 0)
(-0.00213627 -6.99688e-05 0)
(-0.00204636 -7.12567e-05 0)
(-0.00195491 -7.24081e-05 0)
(-0.00186209 -7.34179e-05 0)
(-0.00176809 -7.42815e-05 0)
(-0.0016731 -7.49949e-05 0)
(-0.00157729 -7.55545e-05 0)
(-0.00148087 -7.59572e-05 0)
(-0.00138403 -7.62008e-05 0)
(-0.00128698 -7.62831e-05 0)
(-0.00118991 -7.62032e-05 0)
(-0.00109303 -7.59603e-05 0)
(-0.000996549 -7.55545e-05 0)
(-0.000900663 -7.49864e-05 0)
(-0.000805579 -7.42574e-05 0)
(-0.000711495 -7.33694e-05 0)
(-0.00061861 -7.2325e-05 0)
(-0.000527117 -7.11273e-05 0)
(-0.000437207 -6.97801e-05 0)
(-0.000349066 -6.82878e-05 0)
(-0.000262871 -6.66552e-05 0)
(-0.000178798 -6.48878e-05 0)
(-9.70106e-05 -6.29913e-05 0)
(-1.76692e-05 -6.09721e-05 0)
(5.90757e-05 -5.8837e-05 0)
(0.000133082 -5.65929e-05 0)
(0.000204216 -5.42473e-05 0)
(0.000272354 -5.18078e-05 0)
(0.000337381 -4.92823e-05 0)
(0.000399192 -4.66787e-05 0)
(0.000457692 -4.40053e-05 0)
(0.000512797 -4.12703e-05 0)
(0.000564433 -3.8482e-05 0)
(0.000612535 -3.56485e-05 0)
(0.000657049 -3.27783e-05 0)
(0.000697932 -2.98792e-05 0)
(0.00073515 -2.69595e-05 0)
(0.00076868 -2.40268e-05 0)
(0.000798507 -2.1089e-05 0)
(0.000824627 -1.81535e-05 0)
(0.000847046 -1.52275e-05 0)
(0.000865777 -1.23182e-05 0)
(0.000880843 -9.43237e-06 0)
(0.000892276 -6.57661e-06 0)
(0.000900116 -3.75735e-06 0)
(0.00090441 -9.80832e-07 0)
(0.000905215 1.74688e-06 0)
(0.000902594 4.41984e-06 0)
(0.000896619 7.03216e-06 0)
(0.000887369 9.57799e-06 0)
(0.000874932 1.20514e-05 0)
(0.000859401 1.44464e-05 0)
(0.00084088 1.67568e-05 0)
(0.00081948 1.89758e-05 0)
(0.000795321 2.10966e-05 0)
(0.000768533 2.31115e-05 0)
(0.000739258 2.50121e-05 0)
(0.000707645 2.67892e-05 0)
(0.00067386 2.84325e-05 0)
(0.000638082 2.99303e-05 0)
(0.000600504 3.12692e-05 0)
(0.000561339 3.24342e-05 0)
(0.00052082 3.34081e-05 0)
(0.000479202 3.41711e-05 0)
(0.000436766 3.47006e-05 0)
(0.000393823 3.49707e-05 0)
(0.000350717 3.4952e-05 0)
(0.00030783 3.46107e-05 0)
(0.000265582 3.39087e-05 0)
(0.000224442 3.28034e-05 0)
(0.000184928 3.12474e-05 0)
(0.000147606 2.91902e-05 0)
(0.000113097 2.658e-05 0)
(8.20631e-05 2.33702e-05 0)
(5.51923e-05 1.95317e-05 0)
(3.31604e-05 1.508e-05 0)
(1.65521e-05 1.01294e-05 0)
(5.71199e-06 4.9992e-06 0)
(4.57346e-07 4.62372e-07 0)
(-3.92703e-07 -1.61884e-06 0)
(1.12539e-06 -6.11795e-06 0)
(6.66016e-06 -1.20049e-05 0)
(1.27224e-05 -1.26656e-05 0)
(1.72159e-05 -9.45788e-06 0)
(1.80428e-05 -3.61099e-06 0)
(1.38752e-05 3.90877e-06 0)
(3.86886e-06 1.23833e-05 0)
(-1.24609e-05 2.12946e-05 0)
(-3.53171e-05 3.0276e-05 0)
(-6.46918e-05 3.90724e-05 0)
(-0.000100424 4.75104e-05 0)
(-0.000142246 5.5476e-05 0)
(-0.000189816 6.28993e-05 0)
(-0.000242748 6.97426e-05 0)
(-0.00030063 7.59923e-05 0)
(-0.000363042 8.16518e-05 0)
(-0.000429564 8.67371e-05 0)
(-0.000499788 9.12735e-05 0)
(-0.000573322 9.5292e-05 0)
(-0.000649797 9.88281e-05 0)
(-0.000728867 0.000101919 0)
(-0.000810213 0.000104604 0)
(-0.000893542 0.00010692 0)
(-0.000978589 0.000108907 0)
(-0.00106511 0.000110599 0)
(-0.0011529 0.000112031 0)
(-0.00124177 0.000113235 0)
(-0.00133154 0.000114242 0)
(-0.00142207 0.000115078 0)
(-0.00151324 0.000115768 0)
(-0.00160494 0.000116334 0)
(-0.00169707 0.000116795 0)
(-0.00178955 0.000117169 0)
(-0.00188232 0.00011747 0)
(-0.00197532 0.000117711 0)
(-0.00206849 0.000117902 0)
(-0.0021618 0.00011805 0)
(-0.00225522 0.000118163 0)
(-0.0023487 0.000118245 0)
(-0.00244223 0.0001183 0)
(-0.00253577 0.000118328 0)
(-0.00262931 0.000118331 0)
(-0.0027228 0.000118307 0)
(-0.00281624 0.000118255 0)
(-0.00290959 0.000118173 0)
(-0.00300283 0.000118057 0)
(-0.00309591 0.000117903 0)
(-0.00318882 0.000117706 0)
(-0.0032815 0.000117462 0)
(-0.00337391 0.000117164 0)
(-0.00346602 0.000116808 0)
(-0.00355776 0.000116388 0)
(-0.00364909 0.000115896 0)
(-0.00373994 0.000115328 0)
(-0.00383025 0.000114676 0)
(-0.00391996 0.000113934 0)
(-0.00400898 0.000113097 0)
(-0.00409723 0.000112157 0)
(-0.00418465 0.000111109 0)
(-0.00427113 0.000109946 0)
(-0.00435659 0.000108664 0)
(-0.00444092 0.000107255 0)
(-0.00452404 0.000105716 0)
(-0.00460584 0.00010404 0)
(-0.0046862 0.000102222 0)
(-0.00476502 0.000100258 0)
(-0.00484218 9.81441e-05 0)
(-0.00491756 9.58752e-05 0)
(-0.00499105 9.34479e-05 0)
(-0.00506252 9.08586e-05 0)
(-0.00513184 8.81043e-05 0)
(-0.00519889 8.51821e-05 0)
(-0.00526354 8.20897e-05 0)
(-0.00532565 7.88249e-05 0)
(-0.0053851 7.53863e-05 0)
(-0.00544175 7.17725e-05 0)
(-0.00549547 6.79827e-05 0)
(-0.00554612 6.40166e-05 0)
(-0.00559358 5.98742e-05 0)
(-0.0056377 5.55561e-05 0)
(-0.00567836 5.10633e-05 0)
(-0.00571542 4.63975e-05 0)
(-0.00574875 4.15606e-05 0)
(-0.00577824 3.65552e-05 0)
(-0.00580374 3.13846e-05 0)
(-0.00582515 2.60525e-05 0)
(-0.00584234 2.05633e-05 0)
(-0.0058552 1.49219e-05 0)
(-0.00586361 9.13399e-06 0)
(-0.00586747 3.20579e-06 0)
(-0.00586669 -2.85572e-06 0)
(-0.00586115 -9.04292e-06 0)
(-0.00585079 -1.53474e-05 0)
(-0.0058355 -2.17603e-05 0)
(-0.00581523 -2.82716e-05 0)
(-0.0057899 -3.48709e-05 0)
(-0.00575945 -4.1547e-05 0)
(-0.00572383 -4.82879e-05 0)
(-0.00568301 -5.5081e-05 0)
(-0.00563695 -6.19128e-05 0)
(-0.00558564 -6.87692e-05 0)
(-0.00552906 -7.56355e-05 0)
(-0.00546721 -8.24963e-05 0)
(-0.00540012 -8.93356e-05 0)
(-0.00532781 -9.61367e-05 0)
(-0.00525031 -0.000102883 0)
(-0.00516768 -0.000109556 0)
(-0.00507998 -0.000116138 0)
(-0.0049873 -0.000122611 0)
(-0.00488973 -0.000128956 0)
(-0.00478737 -0.000135154 0)
(-0.00468034 -0.000141187 0)
(-0.00456879 -0.000147035 0)
(-0.00445286 -0.00015268 0)
(-0.0043327 -0.000158101 0)
(-0.00420851 -0.000163282 0)
(-0.00408048 -0.000168204 0)
(-0.00394879 -0.000172848 0)
(-0.00381369 -0.000177199 0)
(-0.00367538 -0.000181238 0)
(-0.00353412 -0.000184951 0)
(-0.00339016 -0.000188323 0)
(-0.00324376 -0.000191339 0)
(-0.0030952 -0.000193988 0)
(-0.00294475 -0.000196256 0)
(-0.00279272 -0.000198134 0)
(-0.00263939 -0.000199612 0)
(-0.00248508 -0.000200684 0)
(-0.00233009 -0.000201342 0)
(-0.00217474 -0.000201581 0)
(-0.00201934 -0.0002014 0)
(-0.00186422 -0.000200795 0)
(-0.00170968 -0.000199767 0)
(-0.00155606 -0.000198318 0)
(-0.00140367 -0.00019645 0)
(-0.00125282 -0.00019417 0)
(-0.00110382 -0.000191482 0)
(-0.000956987 -0.000188395 0)
(-0.000812607 -0.00018492 0)
(-0.000670976 -0.000181065 0)
(-0.000532376 -0.000176845 0)
(-0.000397081 -0.000172273 0)
(-0.000265352 -0.000167363 0)
(-0.000137441 -0.000162132 0)
(-1.35868e-05 -0.000156596 0)
(0.000105984 -0.000150774 0)
(0.000221059 -0.000144685 0)
(0.000331441 -0.000138347 0)
(0.000436944 -0.000131782 0)
(0.000537402 -0.00012501 0)
(0.000632661 -0.000118051 0)
(0.000722583 -0.000110927 0)
(0.000807047 -0.000103659 0)
(0.000885947 -9.62678e-05 0)
(0.000959194 -8.87757e-05 0)
(0.00102671 -8.12032e-05 0)
(0.00108845 -7.35711e-05 0)
(0.00114436 -6.58998e-05 0)
(0.00119441 -5.82095e-05 0)
(0.00123859 -5.05197e-05 0)
(0.00127692 -4.28495e-05 0)
(0.00130939 -3.52175e-05 0)
(0.00133605 -2.76419e-05 0)
(0.00135694 -2.01403e-05 0)
(0.00137212 -1.27297e-05 0)
(0.00138166 -5.42683e-06 0)
(0.00138565 1.75184e-06 0)
(0.00138418 8.79025e-06 0)
(0.00137736 1.56724e-05 0)
(0.00136532 2.23823e-05 0)
(0.0013482 2.89038e-05 0)
(0.00132613 3.52203e-05 0)
(0.0012993 4.13147e-05 0)
(0.00126786 4.71689e-05 0)
(0.00123202 5.27637e-05 0)
(0.00119198 5.80783e-05 0)
(0.00114796 6.30901e-05 0)
(0.00110022 6.77743e-05 0)
(0.00104901 7.21031e-05 0)
(0.000994617 7.60454e-05 0)
(0.000937357 7.95664e-05 0)
(0.000877569 8.26269e-05 0)
(0.000815623 8.51821e-05 0)
(0.000751926 8.71819e-05 0)
(0.000686923 8.85691e-05 0)
(0.000621104 8.92795e-05 0)
(0.000555005 8.92406e-05 0)
(0.000489216 8.83716e-05 0)
(0.000424384 8.65828e-05 0)
(0.000361216 8.37765e-05 0)
(0.000300484 7.98486e-05 0)
(0.00024302 7.46927e-05 0)
(0.000189709 6.82088e-05 0)
(0.000141478 6.03195e-05 0)
(9.92574e-05 5.10008e-05 0)
(6.39302e-05 4.03397e-05 0)
(3.62259e-05 2.86394e-05 0)
(1.65762e-05 1.66026e-05 0)
(4.97887e-06 5.71096e-06 0)
(2.60845e-07 -9.11105e-07 0)
(1.00443e-06 -9.49976e-06 0)
(5.59328e-06 -1.76269e-05 0)
(9.53782e-06 -1.71612e-05 0)
(1.05237e-05 -1.04624e-05 0)
(6.32609e-06 5.65376e-07 0)
(-4.50544e-06 1.44182e-05 0)
(-2.29202e-05 2.99423e-05 0)
(-4.94813e-05 4.62756e-05 0)
(-8.44386e-05 6.27867e-05 0)
(-0.000127798 7.90218e-05 0)
(-0.000179383 9.4662e-05 0)
(-0.000238881 0.000109491 0)
(-0.000305884 0.000123371 0)
(-0.000379924 0.00013622 0)
(-0.000460492 0.000148004 0)
(-0.000547065 0.000158719 0)
(-0.000639114 0.000168386 0)
(-0.000736121 0.000177046 0)
(-0.000837585 0.000184749 0)
(-0.000943029 0.000191557 0)
(-0.001052 0.000197534 0)
(-0.00116409 0.000202749 0)
(-0.00127891 0.000207271 0)
(-0.00139611 0.000211166 0)
(-0.00151536 0.000214502 0)
(-0.00163639 0.00021734 0)
(-0.00175893 0.00021974 0)
(-0.00188276 0.000221756 0)
(-0.00200768 0.00022344 0)
(-0.00213351 0.000224836 0)
(-0.0022601 0.000225986 0)
(-0.00238732 0.000226927 0)
(-0.00251505 0.000227691 0)
(-0.00264319 0.000228305 0)
(-0.00277167 0.000228793 0)
(-0.0029004 0.000229174 0)
(-0.00302932 0.000229465 0)
(-0.00315837 0.000229677 0)
(-0.00328752 0.00022982 0)
(-0.0034167 0.0002299 0)
(-0.00354588 0.00022992 0)
(-0.00367502 0.000229883 0)
(-0.00380408 0.000229786 0)
(-0.00393301 0.000229627 0)
(-0.00406178 0.000229402 0)
(-0.00419033 0.000229104 0)
(-0.00431862 0.000228727 0)
(-0.00444659 0.000228262 0)
(-0.0045742 0.000227699 0)
(-0.00470137 0.00022703 0)
(-0.00482805 0.000226242 0)
(-0.00495415 0.000225326 0)
(-0.0050796 0.00022427 0)
(-0.00520432 0.000223062 0)
(-0.00532821 0.00022169 0)
(-0.00545119 0.000220144 0)
(-0.00557314 0.00021841 0)
(-0.00569395 0.000216478 0)
(-0.00581352 0.000214337 0)
(-0.00593173 0.000211974 0)
(-0.00604844 0.00020938 0)
(-0.00616353 0.000206543 0)
(-0.00627687 0.000203455 0)
(-0.0063883 0.000200104 0)
(-0.00649768 0.000196483 0)
(-0.00660487 0.000192581 0)
(-0.0067097 0.000188393 0)
(-0.00681202 0.000183909 0)
(-0.00691167 0.000179123 0)
(-0.00700848 0.000174028 0)
(-0.00710228 0.00016862 0)
(-0.0071929 0.000162894 0)
(-0.00728017 0.000156844 0)
(-0.00736391 0.000150467 0)
(-0.00744396 0.000143762 0)
(-0.00752012 0.000136726 0)
(-0.00759223 0.000129357 0)
(-0.00766011 0.000121656 0)
(-0.00772358 0.000113623 0)
(-0.00778246 0.000105259 0)
(-0.00783658 9.65681e-05 0)
(-0.00788578 8.75521e-05 0)
(-0.00792987 7.82158e-05 0)
(-0.00796869 6.85645e-05 0)
(-0.00800209 5.86048e-05 0)
(-0.0080299 4.83441e-05 0)
(-0.00805196 3.77911e-05 0)
(-0.00806813 2.69556e-05 0)
(-0.00807826 1.58485e-05 0)
(-0.00808222 4.48201e-06 0)
(-0.00807988 -7.13031e-06 0)
(-0.00807112 -1.89738e-05 0)
(-0.00805582 -3.10324e-05 0)
(-0.00803389 -4.32888e-05 0)
(-0.00800522 -5.57243e-05 0)
(-0.00796973 -6.83188e-05 0)
(-0.00792735 -8.10511e-05 0)
(-0.00787802 -9.38985e-05 0)
(-0.0078217 -0.000106837 0)
(-0.00775834 -0.000119841 0)
(-0.00768793 -0.000132884 0)
(-0.00761046 -0.000145939 0)
(-0.00752593 -0.000158976 0)
(-0.00743438 -0.000171966 0)
(-0.00733585 -0.000184877 0)
(-0.00723038 -0.000197677 0)
(-0.00711806 -0.000210333 0)
(-0.00699897 -0.000222812 0)
(-0.00687323 -0.000235079 0)
(-0.00674095 -0.0002471 0)
(-0.0066023 -0.000258839 0)
(-0.00645743 -0.000270261 0)
(-0.00630652 -0.00028133 0)
(-0.00614978 -0.000292012 0)
(-0.00598742 -0.000302272 0)
(-0.00581968 -0.000312074 0)
(-0.00564682 -0.000321385 0)
(-0.0054691 -0.000330172 0)
(-0.00528682 -0.000338404 0)
(-0.00510028 -0.000346048 0)
(-0.00490981 -0.000353077 0)
(-0.00471573 -0.000359463 0)
(-0.0045184 -0.000365179 0)
(-0.00431818 -0.000370202 0)
(-0.00411544 -0.00037451 0)
(-0.00391056 -0.000378084 0)
(-0.00370395 -0.000380906 0)
(-0.00349601 -0.000382963 0)
(-0.00328714 -0.000384243 0)
(-0.00307775 -0.000384736 0)
(-0.00286827 -0.000384436 0)
(-0.00265912 -0.000383341 0)
(-0.00245072 -0.00038145 0)
(-0.00224348 -0.000378767 0)
(-0.00203784 -0.000375297 0)
(-0.0018342 -0.000371048 0)
(-0.00163298 -0.000366033 0)
(-0.00143458 -0.000360267 0)
(-0.0012394 -0.000353766 0)
(-0.00104782 -0.000346552 0)
(-0.000860212 -0.000338646 0)
(-0.000676947 -0.000330074 0)
(-0.000498372 -0.000320864 0)
(-0.000324822 -0.000311045 0)
(-0.000156616 -0.000300648 0)
(5.94278e-06 -0.000289708 0)
(0.00016257 -0.000278258 0)
(0.000312999 -0.000266335 0)
(0.000456983 -0.000253977 0)
(0.000594292 -0.000241221 0)
(0.00072472 -0.000228107 0)
(0.000848078 -0.000214674 0)
(0.000964201 -0.000200961 0)
(0.00107294 -0.00018701 0)
(0.00117417 -0.000172858 0)
(0.0012678 -0.000158546 0)
(0.00135373 -0.000144114 0)
(0.0014319 -0.000129598 0)
(0.00150227 -0.000115038 0)
(0.00156482 -0.000100471 0)
(0.00161955 -8.59316e-05 0)
(0.00166647 -7.14569e-05 0)
(0.00170562 -5.70808e-05 0)
(0.00173705 -4.28373e-05 0)
(0.00176084 -2.87592e-05 0)
(0.00177707 -1.48787e-05 0)
(0.00178587 -1.22768e-06 0)
(0.00178734 1.21626e-05 0)
(0.00178165 2.52611e-05 0)
(0.00176894 3.80364e-05 0)
(0.0017494 5.04568e-05 0)
(0.00172322 6.249e-05 0)
(0.00169063 7.41022e-05 0)
(0.00165185 8.52581e-05 0)
(0.00160715 9.59202e-05 0)
(0.0015568 0.000106048 0)
(0.00150111 0.000115598 0)
(0.00144039 0.000124522 0)
(0.00137502 0.000132766 0)
(0.00130536 0.000140273 0)
(0.00123184 0.000146975 0)
(0.00115492 0.000152799 0)
(0.00107509 0.000157663 0)
(0.000992897 0.000161474 0)
(0.000908921 0.000164127 0)
(0.000823811 0.000165508 0)
(0.000738268 0.000165487 0)
(0.000653057 0.000163922 0)
(0.00056901 0.000160661 0)
(0.000487026 0.000155539 0)
(0.000408071 0.000148387 0)
(0.000333174 0.000139041 0)
(0.000263414 0.000127354 0)
(0.000199897 0.000113233 0)
(0.000143722 9.66818e-05 0)
(9.59144e-05 7.78927e-05 0)
(5.73369e-05 5.73875e-05 0)
(2.85877e-05 3.62473e-05 0)
(1.00916e-05 1.65318e-05 0)
(9.59938e-07 2.13848e-06 0)
(7.23695e-07 -1.21016e-05 0)
(3.28378e-06 -2.10076e-05 0)
(3.58942e-06 -1.79346e-05 0)
(-7.48618e-07 -6.20794e-06 0)
(-1.18848e-05 1.15919e-05 0)
(-3.12704e-05 3.34236e-05 0)
(-5.98683e-05 5.76926e-05 0)
(-9.82536e-05 8.31792e-05 0)
(-0.000146681 0.000108967 0)
(-0.00020515 0.000134381 0)
(-0.00027346 0.000158935 0)
(-0.000351262 0.00018229 0)
(-0.000438096 0.000204223 0)
(-0.000533427 0.000224598 0)
(-0.000636675 0.000243346 0)
(-0.000747232 0.000260453 0)
(-0.000864484 0.000275942 0)
(-0.000987823 0.000289865 0)
(-0.00111666 0.000302295 0)
(-0.00125042 0.000313319 0)
(-0.00138859 0.000323036 0)
(-0.00153064 0.000331546 0)
(-0.00167612 0.000338954 0)
(-0.00182461 0.000345363 0)
(-0.00197571 0.000350874 0)
(-0.00212907 0.000355583 0)
(-0.00228437 0.000359583 0)
(-0.00244133 0.000362959 0)
(-0.0025997 0.00036579 0)
(-0.00275925 0.000368146 0)
(-0.0029198 0.000370095 0)
(-0.00308117 0.000371692 0)
(-0.00324321 0.000372989 0)
(-0.00340579 0.000374031 0)
(-0.00356881 0.000374853 0)
(-0.00373215 0.000375489 0)
(-0.00389573 0.000375963 0)
(-0.00405948 0.000376295 0)
(-0.00422332 0.000376501 0)
(-0.00438718 0.000376591 0)
(-0.00455102 0.000376571 0)
(-0.00471477 0.000376444 0)
(-0.00487836 0.000376208 0)
(-0.00504175 0.00037586 0)
(-0.00520487 0.000375393 0)
(-0.00536766 0.000374798 0)
(-0.00553005 0.000374063 0)
(-0.00569197 0.000373176 0)
(-0.00585334 0.000372123 0)
(-0.00601408 0.000370888 0)
(-0.0061741 0.000369454 0)
(-0.00633332 0.000367804 0)
(-0.00649161 0.000365922 0)
(-0.00664889 0.000363787 0)
(-0.00680502 0.000361383 0)
(-0.00695989 0.00035869 0)
(-0.00711337 0.000355691 0)
(-0.00726531 0.000352367 0)
(-0.00741558 0.0003487 0)
(-0.00756402 0.000344673 0)
(-0.00771048 0.000340269 0)
(-0.00785478 0.000335472 0)
(-0.00799677 0.000330266 0)
(-0.00813625 0.000324637 0)
(-0.00827306 0.000318569 0)
(-0.008407 0.00031205 0)
(-0.00853788 0.000305067 0)
(-0.0086655 0.000297609 0)
(-0.00878967 0.000289665 0)
(-0.00891018 0.000281226 0)
(-0.00902682 0.000272284 0)
(-0.00913938 0.00026283 0)
(-0.00924765 0.00025286 0)
(-0.00935142 0.000242368 0)
(-0.00945046 0.00023135 0)
(-0.00954458 0.000219804 0)
(-0.00963354 0.000207729 0)
(-0.00971714 0.000195125 0)
(-0.00979515 0.000181993 0)
(-0.00986738 0.000168337 0)
(-0.0099336 0.000154162 0)
(-0.00999361 0.000139472 0)
(-0.0100472 0.000124276 0)
(-0.0100942 0.000108582 0)
(-0.0101344 9.2403e-05 0)
(-0.0101675 7.575e-05 0)
(-0.0101935 5.86376e-05 0)
(-0.0102121 4.10822e-05 0)
(-0.0102232 2.31019e-05 0)
(-0.0102266 4.71641e-06 0)
(-0.0102222 -1.40521e-05 0)
(-0.0102097 -3.31799e-05 0)
(-0.0101892 -5.26409e-05 0)
(-0.0101604 -7.24072e-05 0)
(-0.0101232 -9.24486e-05 0)
(-0.0100777 -0.000112733 0)
(-0.0100235 -0.000133227 0)
(-0.00996082 -0.000153892 0)
(-0.00988946 -0.000174693 0)
(-0.00980942 -0.000195587 0)
(-0.00972068 -0.000216532 0)
(-0.00962323 -0.000237486 0)
(-0.0095171 -0.0002584 0)
(-0.00940231 -0.000279229 0)
(-0.00927893 -0.000299922 0)
(-0.00914703 -0.000320429 0)
(-0.0090067 -0.000340697 0)
(-0.00885806 -0.000360675 0)
(-0.00870125 -0.000380306 0)
(-0.00853643 -0.000399538 0)
(-0.00836378 -0.000418314 0)
(-0.0081835 -0.000436578 0)
(-0.00799582 -0.000454275 0)
(-0.00780099 -0.00047135 0)
(-0.00759928 -0.000487747 0)
(-0.00739097 -0.000503413 0)
(-0.00717638 -0.000518293 0)
(-0.00695584 -0.000532337 0)
(-0.00672971 -0.000545494 0)
(-0.00649836 -0.000557716 0)
(-0.00626218 -0.000568956 0)
(-0.00602157 -0.000579173 0)
(-0.00577697 -0.000588324 0)
(-0.00552881 -0.000596372 0)
(-0.00527755 -0.000603284 0)
(-0.00502366 -0.000609029 0)
(-0.00476761 -0.00061358 0)
(-0.00450989 -0.000616914 0)
(-0.00425101 -0.000619013 0)
(-0.00399146 -0.000619862 0)
(-0.00373175 -0.000619452 0)
(-0.0034724 -0.000617779 0)
(-0.00321392 -0.00061484 0)
(-0.00295681 -0.000610641 0)
(-0.0027016 -0.000605191 0)
(-0.00244879 -0.000598503 0)
(-0.00219887 -0.000590595 0)
(-0.00195234 -0.00058149 0)
(-0.00170968 -0.000571216 0)
(-0.00147137 -0.000559803 0)
(-0.00123786 -0.000547288 0)
(-0.0010096 -0.000533708 0)
(-0.000787006 -0.000519108 0)
(-0.000570503 -0.000503534 0)
(-0.000360478 -0.000487035 0)
(-0.000157304 -0.000469662 0)
(3.86677e-05 -0.000451472 0)
(0.000227107 -0.00043252 0)
(0.000407707 -0.000412865 0)
(0.000580184 -0.000392567 0)
(0.000744279 -0.000371688 0)
(0.000899756 -0.00035029 0)
(0.00104641 -0.000328435 0)
(0.00118404 -0.000306187 0)
(0.00131251 -0.000283609 0)
(0.00143167 -0.000260762 0)
(0.00154142 -0.00023771 0)
(0.00164166 -0.000214513 0)
(0.00173235 -0.000191233 0)
(0.00181344 -0.000167928 0)
(0.00188494 -0.000144656 0)
(0.00194684 -0.000121475 0)
(0.00199919 -9.84405e-05 0)
(0.00204205 -7.56067e-05 0)
(0.00207551 -5.30271e-05 0)
(0.00209966 -3.07543e-05 0)
(0.00211464 -8.83987e-06 0)
(0.00212059 1.26649e-05 0)
(0.0021177 3.37088e-05 0)
(0.00210615 5.42407e-05 0)
(0.00208616 7.42083e-05 0)
(0.00205797 9.35583e-05 0)
(0.00202185 0.000112235 0)
(0.00197808 0.000130181 0)
(0.00192699 0.000147335 0)
(0.00186891 0.00016363 0)
(0.00180421 0.000178995 0)
(0.0017333 0.000193353 0)
(0.00165661 0.000206618 0)
(0.00157462 0.000218696 0)
(0.00148784 0.000229482 0)
(0.00139684 0.000238859 0)
(0.00130221 0.0002467 0)
(0.00120462 0.000252859 0)
(0.00110478 0.000257178 0)
(0.00100346 0.00025948 0)
(0.000901514 0.000259573 0)
(0.000799843 0.000257248 0)
(0.00069943 0.000252282 0)
(0.000601324 0.00024444 0)
(0.000506644 0.000233489 0)
(0.000416566 0.000219209 0)
(0.000332314 0.000201418 0)
(0.00025513 0.000180013 0)
(0.000186244 0.00015504 0)
(0.000126823 0.000126793 0)
(7.78897e-05 9.59787e-05 0)
(4.02985e-05 6.39544e-05 0)
(1.50357e-05 3.31159e-05 0)
(1.60012e-06 7.6373e-06 0)
(3.47688e-07 -1.34295e-05 0)
(1.68764e-07 -2.10303e-05 0)
(-4.24902e-06 -1.3521e-05 0)
(-1.52621e-05 4.94476e-06 0)
(-3.48031e-05 3.11606e-05 0)
(-6.42287e-05 6.25757e-05 0)
(-0.000104442 9.71714e-05 0)
(-0.000155974 0.000133377 0)
(-0.000219043 0.000169991 0)
(-0.000293616 0.00020611 0)
(-0.000379457 0.000241071 0)
(-0.000476174 0.000274401 0)
(-0.000583261 0.000305782 0)
(-0.000700127 0.000335013 0)
(-0.000826129 0.000361988 0)
(-0.000960593 0.000386672 0)
(-0.00110283 0.000409089 0)
(-0.00125217 0.0004293 0)
(-0.00140794 0.0004474 0)
(-0.00156949 0.000463505 0)
(-0.00173623 0.000477745 0)
(-0.00190758 0.00049026 0)
(-0.00208301 0.000501192 0)
(-0.00226201 0.000510683 0)
(-0.00244415 0.000518875 0)
(-0.00262901 0.000525901 0)
(-0.00281622 0.000531891 0)
(-0.00300544 0.000536965 0)
(-0.00319638 0.000541234 0)
(-0.00338878 0.000544801 0)
(-0.00358238 0.000547756 0)
(-0.003777 0.000550184 0)
(-0.00397244 0.000552156 0)
(-0.00416854 0.000553735 0)
(-0.00436517 0.000554976 0)
(-0.0045622 0.000555925 0)