/*--------------------------------*- C++ -*----------------------------------*\
  =========                 |
  \\      /  F ield         | OpenFOAM: The Open Source CFD Toolbox
   \\    /   O peration     | Website:  https://openfoam.org
    \\  /    A nd           | Version:  6
     \\/     M anipulation  |
\*---------------------------------------------------------------------------*/
FoamFile
{
    version     2.0;
    format      ascii;
    class       volVectorField;
    location    "0";
    object      U_rec;
}
// * * * * * * * * * * * * * * * * * * * * * * * * * * * * * * * * * * * * * //

dimensions      [0 1 -1 0 0 0 0];

internalField   nonuniform List<vector> 
13046
(
(-0.80504 0.334503 0)
(-0.658301 -0.0433913 -8.94291e-21)
(-0.320902 -0.121425 -2.00468e-20)
(-0.767361 0.234387 0)
(-0.35367 -0.0271792 -1.82733e-20)
(-0.560753 -0.0878512 0)
(-0.83758 0.276249 2.66688e-21)
(-0.575797 -0.118035 4.55867e-21)
(-0.325333 -0.024412 -2.01171e-20)
(-1.55781 0.787532 7.13158e-21)
(-0.88955 -0.294708 0)
(-0.0374785 -0.140137 1.33949e-20)
(-0.999204 0.432556 -8.56882e-21)
(-0.675607 -0.107243 -1.40704e-20)
(-0.254599 -0.11942 1.10318e-20)
(-1.50624 0.864588 -9.98914e-21)
(-0.0915499 -0.185914 3.20176e-20)
(-0.93219 -0.205135 7.13651e-21)
(-0.487003 0.104427 0)
(-0.461315 -0.109225 -9.75526e-21)
(-0.687126 0.115172 2.76825e-20)
(-1.52095 0.856377 -4.01579e-21)
(-0.0788034 -0.175427 -4.27892e-20)
(-0.921607 -0.224277 0)
(-0.700835 0.223396 1.12737e-20)
(-0.600586 -0.0343435 -2.19837e-20)
(-0.364189 -0.0729927 0)
(-1.00919 0.470848 -1.55415e-20)
(-0.697523 -0.0996228 4.1151e-21)
(-0.248315 -0.140171 -1.91144e-20)
(-0.815597 0.361419 0)
(-0.687851 -0.022721 0)
(-0.31739 -0.147373 2.04007e-20)
(-0.639317 0.1755 -1.30911e-20)
(-0.392163 -0.0582476 6.77947e-21)
(-0.585719 -0.0138862 3.83498e-20)
(-0.625748 0.14743 -2.0103e-20)
(-0.414222 -0.0278507 1.03877e-20)
(-0.557684 -0.020725 -1.97852e-20)
(-0.661827 0.318082 1.47049e-20)
(-0.403469 -0.229786 3.73631e-21)
(-0.82358 0.0948587 -1.35026e-20)
(-0.562527 0.0635469 9.0362e-21)
(-0.488273 0.0313642 1.55758e-20)
(-0.505162 -0.0110392 0)
(-0.603809 0.085373 5.7172e-21)
(-0.473889 0.0465453 -2.38564e-20)
(-0.489007 -0.0415291 -2.95652e-21)
(-0.837325 0.337783 0)
(-0.64159 -0.0702359 -6.41359e-22)
(-0.299434 -0.105648 9.27298e-24)
(-0.500452 -0.322533 2.29077e-20)
(-0.551436 0.308404 0)
(-1.05089 0.21682 -1.63971e-20)
(-0.533834 -0.339763 -3.26163e-20)
(-1.1239 0.257531 -2.59988e-20)
(-0.492332 0.271053 2.30855e-20)
(-0.911103 -0.0515992 -3.20682e-21)
(-1.27607 0.810459 0)
(-0.241787 -0.276592 1.74703e-20)
(-1.2814 0.506852 -7.99684e-21)
(-0.692012 -0.249691 8.31642e-21)
(-0.18895 -0.0374579 -4.68736e-20)
(-0.0850117 -0.145742 2.45243e-20)
(-0.849201 -0.24968 -5.2471e-21)
(-1.52971 0.754415 -1.22143e-20)
(-1.20866 0.788738 0)
(-0.923033 -0.0140401 0)
(-0.276699 -0.301654 0)
(-1.15321 0.747131 -6.37079e-21)
(-0.913902 -0.00218313 0)
(-0.290325 -0.30063 1.387e-20)
(-0.928956 -0.0591471 0)
(-1.32319 0.845833 2.47837e-22)
(-0.226937 -0.279921 4.53303e-24)
(-0.513541 0.137182 0)
(-0.444166 -0.132112 1.05829e-20)
(-0.710238 0.101848 -1.97175e-20)
(-0.18045 -0.247797 1.94169e-20)
(-1.39679 0.87099 -1.85018e-20)
(-0.923355 -0.110939 0)
(-0.747902 0.249222 5.91976e-21)
(-0.592328 -0.056388 0)
(-0.345183 -0.0608576 0)
(-0.0748845 -0.14979 -2.20276e-20)
(-0.864959 -0.257368 -4.06635e-21)
(-1.55306 0.77592 7.22225e-21)
(-1.58761 0.660713 -1.25694e-20)
(-0.075848 -0.0838814 0)
(-0.794006 -0.326153 -4.06333e-21)
(-0.0940205 -0.0162002 0)
(-1.66698 0.575776 0)
(-0.749822 -0.411296 5.43342e-22)
(-1.29393 0.63531 0)
(-1.35508 0.655688 7.21763e-21)
(-0.775464 -0.17146 1.61862e-20)
(-0.785134 -0.198454 -7.59359e-21)
(-0.168481 -0.150428 -1.00727e-20)
(-0.146887 -0.138749 2.58285e-20)
(-0.0866773 -0.0651722 -1.2458e-21)
(-1.58281 0.635403 1.23038e-20)
(-0.775634 -0.342485 0)
(-0.648382 0.125154 -2.58843e-23)
(-0.441637 0.0331263 1.25984e-20)
(-0.501039 -0.0631894 0)
(-0.408035 0.176313 0)
(-1.04986 0.27445 -8.06545e-21)
(-0.539231 -0.278144 0)
(-0.556759 0.285146 2.54565e-20)
(-0.471183 -0.277461 0)
(-0.951771 0.178708 -3.08893e-20)
(-1.43676 0.745215 0)
(-0.0127497 -0.117152 0)
(-0.86071 -0.330094 -5.74666e-21)
(-0.927757 0.388147 2.36225e-20)
(-0.654712 -0.093452 5.95061e-21)
(-0.27361 -0.105462 2.0085e-20)
(-1.35657 0.725195 9.29631e-21)
(-1.2983 0.675866 -1.75801e-20)
(-0.828686 -0.157262 -1.37167e-20)
(-0.161402 -0.184829 1.15353e-20)
(-0.799426 -0.149599 8.3179e-21)
(-0.174024 -0.174776 -1.07768e-20)
(-1.53697 0.795529 -5.42874e-21)
(-0.896605 -0.297503 -8.10044e-21)
(-0.0333795 -0.140053 -5.99694e-21)
(-1.1626 0.568554 0)
(-0.743513 -0.134723 -1.07964e-20)
(-0.20507 -0.156071 2.34548e-20)
(-0.722847 0.356312 0)
(-0.375892 -0.221775 -1.85196e-20)
(-0.798138 0.0628111 7.83845e-22)
(-0.118312 0.00276278 0)
(-1.63513 0.556806 0)
(-0.738324 -0.401799 0)
(-1.46126 0.677803 0)
(-0.798471 -0.248706 -2.10218e-20)
(-0.113565 -0.11871 -2.78194e-20)
(-0.87803 0.401025 0)
(-0.705144 -0.0378194 0)
(-0.29876 -0.163184 0)
(-1.03097 0.352665 0)
(-0.598174 -0.204082 0)
(-0.289014 0.0123631 0)
(-0.522197 0.267066 0)
(-0.497563 -0.292327 0)
(-1.00308 0.211967 1.66263e-20)
(-0.414185 0.159423 -2.65002e-21)
(-1.01206 0.263388 -1.74154e-20)
(-0.53406 -0.261091 1.99641e-20)
(-1.32703 0.539388 1.83693e-20)
(-0.715162 -0.252068 0)
(-0.165844 -0.0621691 6.09629e-20)
(-0.38509 0.0887197 0)
(-0.906388 0.245385 1.88967e-20)
(-0.526426 -0.196871 -5.06601e-21)
(-0.597995 -0.3473 0)
(-1.2467 0.348773 1.84023e-20)
(-0.628451 -0.349408 0)
(-1.30849 0.395229 1.05521e-20)
(-0.362354 0.177372 0)
(-0.302467 0.127836 0)
(-1.06308 0.326771 2.4009e-21)
(-0.578671 -0.243468 1.05253e-20)
(-0.318245 0.0648641 -1.1591e-20)
(-1.58686 0.768868 -7.29032e-21)
(-0.0336218 -0.131981 0)
(-0.868219 -0.314031 -1.00748e-20)
(-1.47774 0.767172 -4.67158e-21)
(-0.0200725 -0.127311 -2.74562e-21)
(-0.88344 -0.314979 0)
(-1.47768 0.706237 -1.02994e-20)
(-0.81558 -0.243775 0)
(-0.105804 -0.132126 3.16277e-20)
(-0.824307 0.469501 0)
(-0.866761 0.0668455 4.32117e-21)
(-0.370629 -0.272622 1.08322e-20)
(-1.01757 0.299157 1.58048e-20)
(-0.352455 0.0969375 5.55407e-21)
(-0.557465 -0.235755 0)
(-0.032219 -0.114658 0)
(-0.837699 -0.338583 0)
(-1.62504 0.724277 5.97433e-21)
(-0.767392 0.421569 0)
(-0.854253 0.0811789 -9.34696e-21)
(-0.384449 -0.258025 2.81081e-21)
(-0.381663 0.107378 0)
(-0.931279 0.249286 0)
(-0.524677 -0.213579 0)
(-0.972393 0.314621 7.88788e-21)
(-0.579889 -0.1885 0)
(-0.304679 0.0124774 0)
(-0.683404 -0.14738 -5.87054e-23)
(-0.22687 -0.103744 -1.36107e-20)
(-1.114 0.526238 2.46123e-20)
(-0.722318 -0.126726 0)
(-0.218476 -0.14275 -2.93908e-20)
(-1.5888 0.722237 -1.27003e-20)
(-0.0628792 -0.117462 1.99911e-20)
(-0.832518 -0.302609 -1.96873e-20)
(-0.113158 -0.0198675 1.83671e-20)
(-1.58997 0.579527 7.7776e-21)
(-0.748313 -0.371765 2.02814e-20)
(-1.64835 0.623396 -2.07183e-20)
(-0.777293 -0.372583 0)
(-0.0701816 -0.0545618 -1.80444e-20)
(-0.508229 -0.369299 -1.1771e-21)
(-1.11974 0.221183 7.32998e-21)
(-0.614227 0.394679 0)
(-0.967848 0.363602 -3.57775e-20)
(-1.37608 0.881605 9.63902e-21)
(-0.196769 -0.260941 -1.19213e-20)
(-0.936772 -0.0973472 0)
(-0.790315 -0.374542 0)
(-1.65567 0.653824 -1.78027e-20)
(-0.0520964 -0.0735984 0)
(-0.664747 0.158182 -2.90175e-20)
(-0.40825 -0.00163532 -1.02009e-20)
(-0.531564 -0.0561898 2.9093e-20)
(-0.972862 0.466912 0)
(-0.711305 -0.0749613 -5.93005e-22)
(-0.269642 -0.155597 -1.11771e-20)
(-0.124073 -0.000595234 1.40948e-20)
(-1.60084 0.565113 0)
(-0.73708 -0.388885 -2.33647e-20)
(-1.02707 0.403437 2.86398e-20)
(-0.665992 -0.160514 2.54416e-20)
(-0.233244 -0.0842005 0)
(-0.0165932 -0.123437 0)
(-0.853499 -0.339009 8.66058e-21)
(-1.55519 0.74944 0)
(-0.550609 0.343694 0)
(-1.16617 0.247291 0)
(-0.531129 -0.376162 0)
(-1.6163 0.616002 1.81661e-20)
(-0.768813 -0.361234 0)
(-0.084123 -0.0512229 -4.84041e-23)
(-1.18106 0.361408 6.94969e-21)
(-0.602149 -0.29637 -8.08002e-21)
(-0.302975 0.09646 0)
(-1.15649 0.590036 0)
(-0.757763 -0.117684 1.00855e-20)
(-0.213869 -0.171896 1.84092e-20)
(-0.69098 -0.413544 -2.90972e-20)
(-1.54098 0.471181 -1.42516e-20)
(-0.218546 0.0938417 1.11525e-20)
(-1.37704 0.413664 0)
(-0.64606 -0.371221 -1.14865e-20)
(-0.288407 0.127103 -4.01114e-22)
(-0.00979569 -0.117318 -1.77014e-20)
(-0.833437 -0.35372 0)
(-1.55739 0.726776 -4.78317e-21)
(-0.659184 0.365387 1.36215e-20)
(-0.438541 -0.285328 -1.34566e-20)
(-0.929463 0.139061 1.35925e-21)
(-1.34195 0.777565 4.6717e-21)
(-0.0237518 -0.119732 -2.57901e-20)
(-0.900309 -0.279609 0)
(-0.442258 0.0656724 -5.95961e-21)
(-0.704597 0.141743 -2.24019e-20)
(-0.484808 -0.105295 2.90668e-20)
(-1.19641 0.412987 8.23997e-21)
(-1.15039 0.367141 5.58632e-23)
(-0.632012 -0.264757 -1.94673e-20)
(-0.603029 -0.274769 0)
(-0.293334 0.0721419 1.05381e-20)
(-0.247744 0.0279382 -1.09011e-20)
(-0.158448 -0.234942 -2.54181e-20)
(-1.42885 0.879894 9.92026e-21)
(-0.93445 -0.125523 -1.75261e-20)
(-1.09694 0.56521 0)
(-0.760453 -0.0869615 0)
(-0.241317 -0.184643 -2.42458e-20)
(-1.43989 0.454192 -3.78249e-21)
(-0.67059 -0.380736 0)
(-0.244113 0.094418 0)
(-1.41516 0.707868 -8.83084e-21)
(-0.815439 -0.201162 0)
(-0.13179 -0.154531 1.1501e-20)
(-0.546386 0.0742333 6.09741e-21)
(-0.535059 0.0121902 8.85713e-21)
(-0.476173 0.00428996 -3.05134e-21)
(-1.28089 0.406391 -1.34566e-20)
(-0.634555 -0.32359 0)
(-0.272226 0.089027 -1.84169e-20)
(-1.10664 0.593642 0)
(-0.782302 -0.0766948 1.25862e-20)
(-0.244027 -0.202105 -1.56078e-20)
(-1.05652 0.439722 0)
(-1.12056 0.479695 2.86509e-21)
(-0.672257 0.386523 4.94945e-21)
(-0.44318 -0.30202 3.9124e-20)
(-0.956124 0.148228 -3.26663e-20)
(-1.33152 0.447408 -1.37179e-20)
(-0.658295 -0.323159 1.68998e-20)
(-0.228991 0.0508102 1.68059e-20)
(-1.4541 0.720046 0)
(-0.115888 -0.146995 -4.05484e-20)
(-0.824392 -0.219895 -1.04572e-20)
(-0.560962 0.265368 -3.51444e-20)
(-0.458847 -0.261126 0)
(-0.914604 0.170037 1.04561e-20)
(-0.386331 0.211299 -2.16408e-20)
(-1.26685 0.340709 -1.06204e-20)
(-0.595244 -0.369518 0)
(-1.26592 0.709852 -9.09795e-21)
(-0.832682 -0.102206 -1.10525e-20)
(-0.203969 -0.215861 7.15319e-21)
(-0.607738 0.354858 1.7932e-21)
(-0.482854 -0.32497 0)
(-1.0316 0.19844 2.26391e-20)
(-1.31709 0.747131 0)
(-1.35583 0.756801 0)
(-0.850273 -0.115751 -7.15204e-21)
(-0.190262 -0.216256 -1.86156e-20)
(-0.849012 -0.14177 1.01169e-20)
(-0.169768 -0.201048 1.97603e-20)
(-0.043452 -0.122657 -1.54904e-20)
(-0.846447 -0.318718 0)
(-1.61143 0.743449 -8.73421e-21)
(-1.239 0.65068 1.04562e-20)
(-0.788809 -0.129245 0)
(-0.19439 -0.182777 6.33626e-21)
(-0.798552 -0.332159 1.65397e-20)
(-0.00551798 -0.0934574 2.26006e-20)
(-1.27489 0.697029 9.08905e-21)
(-0.819944 0.192372 -1.03102e-20)
(-0.425039 0.0983185 0)
(-0.495987 -0.167967 0)
(-1.20702 0.47382 1.90517e-20)
(-0.672063 -0.225947 0)
(-0.205784 -0.0425118 3.58096e-20)
(-0.0777631 -0.121125 -1.26613e-20)
(-1.55647 0.715737 2.62456e-20)
(-0.823723 -0.283561 1.4828e-20)
(-0.544786 -0.355616 0)
(-1.16022 0.267199 9.61422e-21)
(-0.485718 0.288984 -2.61544e-20)
(-0.707474 -0.406107 -3.55595e-20)
(-1.56668 0.505496 -8.5984e-21)
(-0.178056 0.0548885 0)
(-0.631936 -0.143423 -2.56182e-20)
(-0.264124 -0.0629008 0)
(-1.24154 0.540879 2.07278e-20)
(-0.712371 -0.197587 9.19181e-21)
(-0.182185 -0.0996906 1.08786e-20)
(-0.617197 -0.162673 1.50663e-20)
(-0.267841 -0.0418393 7.83705e-23)
(-1.49862 0.855844 -6.3335e-22)
(-0.104885 -0.192674 1.50163e-20)
(-0.921051 -0.190777 -1.0486e-20)
(-0.496459 -0.387041 0)
(-1.12346 0.207461 2.33728e-21)
(-0.668726 0.445165 0)
(-1.29632 0.573827 -2.1144e-20)
(-0.735289 -0.210735 -1.12191e-20)
(-0.165283 -0.100104 -1.33147e-20)
(-1.05872 0.355124 0)
(-0.593267 -0.226527 -1.52925e-20)
(-0.291185 0.0326136 0)
(-1.0458 0.252925 0)
(-0.522906 -0.295768 0)
(-0.459175 0.215621 0)
(-0.81316 0.301834 -8.20068e-21)
(-0.616387 -0.0713809 -1.41447e-20)
(-0.316412 -0.0817593 -2.60703e-24)
(-0.435518 0.252718 2.684e-20)
(-1.23025 0.310426 2.57766e-20)
(-0.576265 -0.369095 1.64569e-20)
(-1.61551 0.688933 -1.07959e-20)
(-0.811753 -0.328173 1.6741e-20)
(-0.0599479 -0.0994227 -1.89332e-20)
(-0.715483 -0.388078 2.40459e-20)
(-1.55197 0.521444 8.72016e-21)
(-0.161635 0.03299 1.40853e-20)
(-1.02921 0.667691 -1.97835e-20)
(-0.340165 -0.316566 2.08158e-20)
(-0.929607 0.0425869 -1.54762e-20)
(-1.37634 0.821893 5.39045e-21)
(-1.33535 0.792131 -4.98546e-21)
(-0.878416 -0.101447 -2.27717e-21)
(-0.894445 -0.1115 0)
(-0.182492 -0.234296 -6.83695e-21)
(-0.196915 -0.237292 -6.02043e-21)
(-0.0102776 -0.101387 -3.05927e-20)
(-0.83285 -0.316273 -1.82145e-20)
(-1.30181 0.711819 3.0701e-21)
(-1.37127 0.795802 -3.23168e-22)
(-0.0308008 -0.130019 3.56808e-20)
(-0.91799 -0.270809 0)
(-1.26188 0.44671 -3.04852e-20)
(-0.657874 -0.277522 -4.36028e-21)
(-0.229165 0.0181449 0)
(-0.0555247 -0.126201 -3.84855e-20)
(-1.59651 0.740227 8.69351e-21)
(-0.846591 -0.300364 0)
(-1.16674 0.711554 2.75646e-20)
(-1.22403 0.736601 -2.06567e-20)
(-0.868855 -0.0397685 1.18488e-20)
(-0.865431 -0.0613126 4.53275e-21)
(-0.265618 -0.265221 -1.18173e-20)
(-0.240692 -0.251929 -5.9433e-21)
(-0.0300934 -0.0792153 0)
(-0.77916 -0.393765 0)
(-1.68009 0.634366 3.03114e-21)
(-1.25451 0.761933 -5.48342e-21)
(-0.0216314 -0.110386 0)
(-0.891235 -0.270638 0)
(-0.624808 0.0601043 -4.05273e-23)
(-0.531301 0.115366 1.31471e-20)
(-0.439778 -0.0777483 6.50216e-21)
(-1.36396 0.745139 -8.81733e-21)
(-0.867848 -0.31451 8.40732e-21)
(-0.0141668 -0.113082 1.67195e-21)
(-0.910773 0.511505 0)
(-0.831955 0.0250347 -1.9916e-20)
(-0.332821 -0.254018 -2.07543e-23)
(-1.6311 0.711667 2.16766e-22)
(-0.826939 -0.347841 2.39955e-20)
(-0.0366252 -0.106931 4.46089e-24)
(-0.705576 -0.357944 4.99002e-22)
(0.00440122 -0.0787867 -1.30282e-20)
(-1.22533 0.591586 -2.97348e-21)
(-0.60685 0.267477 -1.26584e-20)
(-0.418347 -0.210696 1.1799e-20)
(-0.808687 0.109911 3.30666e-20)
(-0.759112 0.182844 0)
(-0.507477 -0.121541 -3.21776e-20)
(-0.406241 0.0494399 1.68988e-20)
(-1.51718 0.816927 0)
(-0.0397231 -0.145544 1.78769e-20)
(-0.910298 -0.281783 1.97536e-24)
(-0.80128 0.205454 0)
(-0.511151 -0.14135 -1.12855e-20)
(-0.392812 0.0629311 -2.387e-20)
(-0.599196 0.055498 1.33228e-20)
(-0.521894 0.0917683 -6.99613e-21)
(-0.454812 -0.0530496 3.42986e-21)
(-0.521857 0.336864 1.30157e-20)
(-1.23428 0.278492 -9.11301e-21)
(-0.55794 -0.400454 1.81876e-20)
(-0.743789 0.1261 0)
(-0.453237 -0.148255 0)
(-0.492449 0.150165 1.98083e-21)
(-0.801605 0.174532 1.63244e-20)
(-0.479309 -0.165331 8.71716e-21)
(-0.462274 0.132157 2.81347e-22)
(-0.967253 0.627815 3.00904e-20)
(-0.946079 0.0637013 -1.5316e-20)
(-0.366073 -0.329667 -2.05766e-20)
(-0.060363 -0.155283 2.69605e-20)
(-0.0518975 -0.148276 -2.74377e-20)
(-0.902937 -0.261661 7.10013e-21)
(-0.890407 -0.27841 4.93515e-21)
(-1.54976 0.820371 0)
(-1.56431 0.808495 -7.30272e-21)
(-1.63588 0.686211 1.34159e-20)
(-0.813529 -0.340171 -1.49537e-20)
(-0.0502435 -0.0950311 2.34475e-20)
(-0.328961 -0.327646 -1.33584e-20)
(-1.08323 0.724275 6.13498e-21)
(-0.944211 0.0353173 1.97253e-20)
(-0.696247 0.373406 -1.24372e-20)
(-0.411931 -0.265742 -1.23047e-20)
(-0.882407 0.109376 1.03234e-20)
(-1.39473 0.389282 0)
(-0.636101 -0.397266 1.18841e-20)
(-0.329235 0.17339 4.15045e-22)
(-0.738304 -0.385105 8.33108e-21)
(0.00745911 -0.0950895 -1.2195e-20)
(-1.43532 0.619556 -3.23787e-21)
(-0.0740684 -0.0372138 0)
(-1.67072 0.600737 0)
(-0.761383 -0.402514 1.00988e-20)
(-1.51757 0.765748 5.68106e-21)
(-0.0207586 -0.129015 0)
(-0.878104 -0.320649 -8.50556e-21)
(0.00285609 -0.0692836 -4.82565e-32)
(-0.674304 -0.343413 -7.64281e-21)
(-1.13857 0.570564 2.73379e-21)
(-0.721464 -0.294377 8.5579e-21)
(-0.00404703 -0.0705877 4.81401e-32)
(-1.09345 0.640031 -2.45066e-21)
(-0.709758 -0.304529 -2.3112e-20)
(-1.40334 0.527695 0)
(-0.170629 -0.0168379 -3.58724e-20)
(-0.770816 -0.394464 -4.51775e-21)
(-0.00535669 -0.0963321 -1.25072e-20)
(-1.63555 0.63897 0)
(-1.49334 0.672309 -1.3092e-20)
(-0.793888 -0.270953 1.30368e-20)
(-0.10501 -0.106728 1.85916e-20)
(-1.46899 0.885441 1.97254e-20)
(-0.0818425 -0.184546 1.08511e-20)
(-0.966633 -0.198146 0)
(-0.924204 0.361435 6.27397e-21)
(-0.279531 -0.0725887 -6.80757e-21)
(-0.629014 -0.120435 6.16806e-21)
(-0.775465 -0.397385 5.19957e-21)
(-0.0418977 -0.0671621 1.32536e-20)
(-1.68022 0.625057 3.61668e-21)
(-1.35009 0.36486 -1.04049e-20)
(-0.368232 0.207569 -7.38695e-21)
(-0.618365 -0.393437 0)
(-0.682984 -0.368099 0)
(-1.44526 0.47604 0)
(-0.211226 0.0642764 0)
(0.000106229 -0.0294732 0)
(-0.434207 -0.199279 -6.32998e-21)
(-0.667213 0.353253 8.42876e-22)
(-0.781069 -0.353371 8.25932e-21)
(-0.00121786 -0.0935032 -1.57516e-20)
(-1.30757 0.678698 -4.20719e-21)
(-0.860892 0.315408 -1.6252e-20)
(-0.302473 -0.061758 1.60427e-20)
(-0.608146 -0.106 7.20049e-21)
(-0.802221 -0.371465 2.11899e-20)
(-1.66025 0.677372 -6.302e-21)
(-0.0256498 -0.0956114 0)
(-0.0224497 -0.0795114 -1.38698e-20)
(-1.68399 0.6285 0)
(-0.767938 -0.403606 -1.58382e-20)
(-1.57662 0.769756 -8.06147e-21)
(-0.0621926 -0.139541 4.11528e-20)
(-0.861895 -0.277282 0)
(-0.134476 -0.208915 -3.07734e-20)
(-0.912839 -0.159439 1.11219e-20)
(-1.45855 0.853127 0)
(-0.930758 0.631155 -3.80374e-20)
(-0.98855 0.089963 1.95037e-20)
(-0.395114 -0.353796 -6.52312e-21)
(-0.886164 -0.0758179 3.41455e-21)
(-1.2844 0.790431 1.18745e-20)
(-0.225883 -0.257881 -1.86632e-20)
(-0.125362 -0.216404 -2.76299e-20)
(-1.46518 0.894632 0)
(-0.949964 -0.15662 0)
(-0.969016 0.513903 -5.94821e-21)
(-1.03807 0.564402 0)
(-0.777051 -0.0241513 -2.06822e-20)
(-0.7919 -0.0410851 2.21184e-20)
(-0.293434 -0.212254 3.17117e-21)
(-0.273332 -0.218276 -3.37814e-21)
(-0.908506 0.49015 5.70422e-21)
(-0.796373 0.0059209 0)
(-0.320901 -0.229145 6.05206e-21)
(-1.14475 0.725013 0)
(-0.890582 -0.0201283 -1.91569e-20)
(-0.283411 -0.283982 4.25832e-21)
(-0.70603 -0.374381 -1.19602e-20)
(-1.5128 0.509221 9.20471e-21)
(-0.173679 0.032847 -2.89188e-20)
(-0.80051 -0.363843 0)
(-1.64604 0.673901 1.95356e-20)
(-0.0450971 -0.085194 0)
(-0.131873 -0.0156077 -9.28571e-21)
(-1.54002 0.562751 -5.66602e-21)
(-0.736599 -0.355945 -7.81143e-21)
(-0.766148 -0.293592 -1.17755e-21)
(-0.00734528 -0.0799201 8.39867e-21)
(-1.14648 0.672674 0)
(-0.709856 0.319271 1.14253e-20)
(-0.725476 0.312403 0)
(-0.366285 -0.181665 0)
(-0.739921 0.0431275 4.02775e-20)
(-0.353912 -0.160733 0)
(-0.70732 0.0164669 -2.56013e-20)
(-1.04101 0.643184 0)
(-0.961341 0.583382 0)
(-0.336377 -0.282504 -1.51638e-23)
(-0.879543 0.00976786 1.20092e-20)
(-0.314644 -0.280692 3.10705e-20)
(-0.876438 0.0291127 -2.53879e-20)
(-0.679658 -0.373096 0)
(0.00761884 -0.0802418 1.78089e-20)
(-1.27847 0.580556 0)
(-0.807182 -0.363918 -1.25656e-20)
(-1.65669 0.685681 2.06254e-21)
(-0.0315849 -0.0986778 8.31167e-21)
(-0.733086 0.430762 -2.15106e-20)
(-0.429909 -0.312793 -1.41078e-20)
(-0.956271 0.131334 3.38738e-20)
(-0.674069 -0.403098 2.59037e-20)
(-1.48686 0.447645 2.39923e-20)
(-0.248176 0.114331 0)
(-0.149101 -0.219337 3.29142e-20)
(-0.910323 -0.145416 -1.18319e-20)
(-1.43704 0.850026 1.24737e-20)
(-0.82273 -0.354745 0)
(-1.45947 0.70954 0)
(-0.00416246 -0.110087 0)
(-0.819362 -0.360591 0)
(-1.50204 0.70171 4.83553e-21)
(-0.00365925 -0.111068 3.00581e-21)
(-1.2225 0.712941 -1.14428e-20)
(-0.841704 -0.0799737 6.85625e-21)
(-0.22781 -0.23281 8.79727e-21)
(-0.52676 0.232011 -3.33533e-21)
(-0.469899 -0.245291 0)
(-0.903509 0.184378 -1.278e-22)
(-1.57868 0.782259 9.39316e-21)
(-0.0541476 -0.141598 2.39859e-20)
(-0.87612 -0.282375 -5.74832e-21)
(-0.715266 -0.325964 0)
(-1.44498 0.535733 0)
(-0.161336 -0.00456051 3.09603e-20)
(-0.104422 -0.157007 7.75088e-21)
(-0.848932 -0.224283 1.78995e-20)
(-1.4894 0.76381 2.7119e-20)
(-0.915682 0.561055 0)
(-0.359302 -0.295518 -2.06715e-20)
(-0.896297 0.0517136 1.29711e-20)
(-1.14389 0.329807 1.70144e-22)
(-0.577467 -0.296488 1.18559e-20)
(-0.354816 0.136909 0)
(-0.644915 0.320663 2.15343e-22)
(-0.4205 -0.249321 -4.03611e-21)
(-0.865769 0.117779 -1.35278e-20)
(-0.0428676 -0.131338 2.23279e-23)
(-0.864785 -0.30741 1.35574e-20)
(-1.59413 0.762584 9.80259e-21)
(-1.40634 0.73961 -5.13116e-21)
(-0.836107 -0.181679 -5.31734e-21)
(-0.140577 -0.17365 0)
(-0.623167 0.264468 -1.23886e-20)
(-0.402906 -0.188473 2.55334e-20)
(-0.766069 0.0844856 -2.18121e-20)
(-1.46717 0.903569 8.06202e-21)
(-0.111486 -0.209454 1.22907e-20)
(-0.963315 -0.167812 -8.27048e-21)
(-0.869022 0.423321 -7.18103e-21)
(-0.732726 -0.0208847 0)
(-0.308564 -0.184621 0)
(-0.923949 0.280898 -2.92645e-20)
(-0.55167 -0.183497 6.98727e-21)
(-0.34136 0.0469261 0)
(-0.68159 -0.341501 0)
(-1.4022 0.472778 1.96322e-20)
(-0.207617 0.047437 0)
(-1.42208 0.836825 -3.88259e-21)
(-0.0466364 -0.150759 -3.81782e-21)
(-0.949423 -0.245753 9.28705e-21)
(-1.42377 0.857 1.08519e-20)
(-0.0570786 -0.161217 0)
(-0.961759 -0.22525 -8.9403e-21)
(-0.109738 -0.170157 7.06424e-21)
(-0.864358 -0.208915 -1.06222e-20)
(-1.48393 0.783199 -2.50099e-20)
(-1.17272 0.319165 -9.22521e-21)
(-0.577201 -0.325677 -1.18823e-20)
(-0.385186 0.173738 0)
(-0.038118 -0.137646 3.49592e-21)
(-0.941382 -0.253599 -8.6815e-21)
(-1.35057 0.811456 0)
(-0.0886422 -0.107186 0)
(-0.805234 -0.286606 -1.08714e-20)
(-1.53851 0.686928 -3.05927e-21)
(0.00437921 -0.055782 1.41968e-20)
(-0.581642 -0.330196 8.56198e-21)
(-1.02477 0.483255 0)
(-0.932681 0.597386 -3.11314e-21)
(-0.662172 -0.250686 0)
(-0.00458373 -0.0562735 1.4191e-20)
(-0.121913 -0.207464 -1.09478e-23)
(-0.932849 -0.168539 0)
(-1.47199 0.877951 0)
(-0.0234851 -0.12467 0)
(-0.854705 -0.332899 0)
(-1.5913 0.750323 1.21928e-20)
(-1.54116 0.821546 -8.50562e-21)
(-1.53343 0.808646 6.88069e-21)
(-0.074919 -0.166241 -1.3526e-20)
(-0.903317 -0.236655 -2.33453e-21)
(-0.0821486 -0.164976 -2.19106e-20)
(-0.886505 -0.233859 4.22916e-21)
(-1.54687 0.66295 5.96954e-21)
(-0.791266 -0.304331 7.18414e-21)
(-0.0900745 -0.0910614 0)
(-0.304335 0.169175 0)
(-0.651141 -0.415758 0)
(-1.4547 0.411335 0)
(-0.711221 0.268903 0)
(-0.354138 -0.120219 -3.51796e-20)
(-0.654099 -0.00708277 1.4082e-20)
(-1.52333 0.599583 1.72517e-20)
(-0.755225 -0.327866 2.66069e-21)
(-0.113509 -0.049237 2.73267e-20)
(-0.131842 -0.0274481 1.78446e-20)
(-1.51015 0.57561 -2.40162e-20)
(-0.738986 -0.336942 -3.69114e-21)
(-1.44246 0.907219 9.6836e-21)
(-0.147373 -0.234303 1.32159e-20)
(-0.953789 -0.130877 1.83021e-20)
(-1.06427 0.671046 0)
(-0.896338 0.0106515 5.70018e-21)
(-0.312888 -0.292285 -3.04569e-20)
(-0.965903 0.556775 0)
(-0.843213 0.0144514 2.61578e-20)
(-0.321234 -0.261913 -6.10633e-24)
(-1.39143 0.567292 -2.33476e-20)
(-0.73232 -0.276201 3.23427e-21)
(-0.14799 -0.0603113 -1.54947e-20)
(-1.4236 0.566386 0)
(-0.731392 -0.294339 3.03698e-21)
(-0.145687 -0.047719 1.429e-20)
(-0.585786 0.224208 0)
(-0.414415 -0.168453 -4.03261e-20)
(-0.744306 0.0889922 1.22642e-20)
(-1.05697 0.593731 0)
(-0.809721 -0.0384538 0)
(-0.273329 -0.233424 4.57923e-21)
(-0.0527566 -0.0501262 -2.8719e-20)
(-0.759348 -0.410135 -2.83992e-20)
(-1.69206 0.607487 0)
(-1.52832 0.677531 5.72751e-21)
(0.000771048 -0.106178 0)
(-0.786284 -0.377936 6.01486e-21)
(-1.50333 0.636875 -4.52655e-22)
(0.00516819 -0.100583 0)
(-0.759861 -0.384119 -1.72545e-20)
(-0.780634 0.40969 8.59596e-21)
(-0.364974 -0.233247 -4.40778e-21)
(-0.80995 0.0519395 -2.17474e-22)
(-0.7895 -0.359785 2.53807e-22)
(0.000153226 -0.10048 2.40874e-20)
(-1.40595 0.676837 0)
(-1.44719 0.778883 2.1871e-20)
(-0.128992 -0.179838 1.48316e-20)
(-0.859903 -0.186218 0)
(0.00592307 -0.0933491 -3.58364e-21)
(-0.74425 -0.378483 -9.30389e-21)
(-1.38738 0.627745 0)
(-0.739602 0.205294 2.01802e-20)
(-0.38224 0.00199819 2.14045e-20)
(-0.537721 -0.0874717 5.50505e-23)
(-1.15131 0.521341 -3.57306e-21)
(-0.710097 -0.157137 -3.36462e-21)
(-0.208279 -0.118287 -1.59121e-20)
(-0.54979 -0.323758 2.70648e-20)
(-1.12553 0.286294 2.19973e-20)
(-0.438463 0.215475 0)
(-0.0125857 -0.0947451 0)
(-0.780531 -0.390265 -5.66539e-21)
(-1.65395 0.652299 0)
(-0.702946 -0.340941 0)
(-1.44708 0.516583 0)
(-0.175431 0.0162052 0)
(-0.0934114 -0.193171 0)
(-1.48428 0.886419 -7.11351e-21)
(-0.957367 -0.189722 8.11201e-21)
(-1.22096 0.560286 0)
(-0.725331 -0.178962 1.67452e-21)
(-0.188645 -0.117111 1.55536e-20)
(-0.683693 0.241141 0)
(-0.366787 -0.102694 3.01933e-20)
(-0.635346 -0.00736273 0)
(-0.80569 -0.374337 -2.00426e-20)
(-1.63665 0.686715 5.99733e-21)
(-0.0160904 -0.102884 0)
(-0.0861934 -0.133081 -1.62621e-20)
(-0.831157 -0.264432 6.93001e-22)
(-1.52864 0.733584 5.01623e-22)
(-1.47109 0.810015 0)
(-1.44234 0.799812 6.54222e-21)
(-0.0369244 -0.142106 -8.8073e-21)
(-0.0299955 -0.1345 -1.08299e-20)
(-0.918937 -0.275173 -5.70415e-21)
(-0.910541 -0.28621 4.69047e-21)
(-1.1481 0.413905 0)
(-0.628247 -0.242494 4.55072e-20)
(-0.25051 0.00935644 1.70566e-20)
(-0.687136 -0.292307 3.24436e-20)
(-1.34866 0.492944 0)
(-0.189653 -0.00233612 -1.88695e-20)
(-0.872745 0.281033 -1.65812e-20)
(-0.567303 -0.142215 1.19218e-20)
(-0.319038 -0.00360534 2.62358e-20)
(-0.79289 -0.38161 1.32033e-20)
(-1.58618 0.676306 6.54562e-21)
(-0.775106 -0.391283 -6.30233e-21)
(-0.00215579 -0.106928 0)
(-1.59701 0.651679 -6.30848e-21)
(-0.000465034 -0.102158 0)
(-1.35764 0.636209 0)
(-0.767916 -0.216235 0)
(-0.14649 -0.121298 1.74223e-20)
(-1.6215 0.700744 9.93422e-21)
(-1.59718 0.694767 -1.83311e-20)
(-0.819906 -0.364068 8.64848e-21)
(-0.815295 -0.368 -2.17909e-20)
(-0.0132048 -0.111167 2.43822e-20)
(-0.00754265 -0.111925 -2.12716e-23)
(-1.30667 0.469213 0)
(-0.666029 -0.301985 -3.01273e-20)
(-0.220507 0.0310722 2.4448e-20)
(-1.07755 0.425279 1.54992e-20)
(-0.664589 -0.184057 -2.03045e-20)
(-0.221004 -0.0685666 0)
(-1.47163 0.86974 0)
(-0.0675839 -0.17171 0)
(-0.957385 -0.220493 8.59011e-21)
(-1.15912 0.440338 1.13918e-20)
(-0.645874 -0.225949 -1.26607e-20)
(-0.231325 -0.0188423 -2.82339e-20)
(-0.945318 0.330188 6.69891e-21)
(-0.593559 -0.16091 -1.39866e-20)
(-0.289746 -0.0209831 1.53818e-20)
(-1.45161 0.828617 0)
(-0.0454512 -0.150205 0)
(-0.938692 -0.258025 -1.18172e-20)
(-1.23634 0.590704 0)
(-0.751522 -0.162468 3.57122e-21)
(-0.181473 -0.141023 -1.7288e-20)
(-0.605306 -0.408385 0)
(-1.33841 0.346502 0)
(-0.413666 0.254282 -9.54554e-22)
(-0.913707 0.57829 -9.69326e-22)
(-0.927251 0.0691034 0)
(-0.372037 -0.314775 3.20834e-20)
(-0.719266 -0.416308 1.39023e-20)
(-0.149747 0.0382013 0)
(-1.61897 0.527212 0)
(-2.16246e-05 -0.0457873 -3.41266e-20)
(-0.562267 -0.259707 8.86197e-21)
(-0.879889 0.475568 -1.17966e-21)
(-1.19245 0.492343 0)
(-0.681798 -0.200201 1.2456e-20)
(-0.20242 -0.0712993 -1.43622e-20)
(-1.5158 0.852565 1.33936e-20)
(-0.0675969 -0.168434 4.57005e-20)
(-0.931985 -0.230831 0)
(-0.446304 -0.371502 -8.52151e-21)
(-1.0522 0.149862 -1.27693e-20)
(-0.797863 0.537405 -8.66942e-21)
(-1.10941 0.69447 0)
(-0.011985 -0.0843768 -1.27093e-20)
(-0.811763 -0.275489 0)
(-0.44066 0.151291 1.65161e-20)
(-0.457867 0.179814 -1.69097e-20)
(-0.495257 -0.218436 0)
(-0.901747 0.212158 1.40236e-20)
(-0.499783 -0.244928 -2.56799e-20)
(-0.942817 0.215187 -1.12477e-20)
(-0.858262 0.255154 1.55839e-20)
(-0.542653 -0.150951 1.58396e-20)
(-0.350592 0.0326376 0)
(-0.547988 0.229433 1.4556e-20)
(-0.493327 0.186785 0)
(-0.445615 -0.216413 -1.43479e-20)
(-0.837886 0.143775 1.25411e-20)
(-0.462912 -0.203313 1.44578e-20)
(-0.841411 0.163807 6.35921e-23)
(-1.13858 0.465811 9.83992e-22)
(-0.637895 -0.187016 -8.853e-21)
(-0.244293 -0.0421005 -1.89638e-20)
(-1.08408 0.411287 -2.66086e-20)
(-0.631211 -0.202272 2.3467e-22)
(-0.251098 -0.0226048 0)
(0.0052342 -0.0993561 0)
(-0.748784 -0.396457 0)
(-1.55468 0.627921 5.90245e-21)
(-0.844626 0.440535 -7.9214e-21)
(-0.786237 0.0228367 0)
(-0.337423 -0.220944 8.19305e-21)
(-1.61465 0.72667 -1.96116e-20)
(-0.837725 -0.347207 1.0066e-20)
(-0.0213909 -0.117297 -1.39047e-20)
(-1.41882 0.609193 0)
(-1.46744 0.635388 1.25781e-20)
(-0.7559 -0.264464 -4.03082e-21)
(-0.773198 -0.274835 1.2818e-20)
(-0.130705 -0.0836701 -1.92742e-20)
(-0.115517 -0.0897996 -1.79417e-20)
(-0.825624 0.406145 0)
(-0.752441 0.0062194 0)
(-0.331421 -0.197864 3.85908e-21)
(-1.12555 0.667436 9.29968e-21)
(-0.848 -0.0357131 0)
(-0.271565 -0.254302 1.01793e-20)
(-1.31775 0.571837 -6.68179e-21)
(-0.729737 -0.234824 0)
(-0.157766 -0.0835334 0)
(-0.586236 0.154272 1.59394e-20)
(-0.616496 0.0274941 -7.58217e-21)
(-0.410404 -0.0794367 8.08236e-21)
(-1.48652 0.605319 0)
(-0.755148 -0.305966 0)
(-0.12041 -0.060138 -2.90384e-20)
(-0.67327 0.26074 0)
(-0.370671 -0.142172 4.45316e-21)
(-0.68637 0.0275859 0)
(-1.30052 0.488707 -1.50868e-20)
(-0.679368 -0.277122 -1.67784e-20)
(-0.198825 -0.0123554 -2.43782e-21)
(-1.12268 0.639439 9.36124e-21)
(-0.822414 -0.0543966 0)
(-0.257176 -0.235167 2.09587e-20)
(-0.608049 0.188175 -1.5803e-20)
(-0.581819 0.181734 -7.10239e-21)
(-0.642131 0.0264059 7.47671e-21)
(-0.396021 -0.102454 -1.60271e-20)
(-0.67629 0.0533098 0)
(-0.407093 -0.121886 -2.84773e-20)
(-0.532853 0.184691 -7.20943e-21)
(-0.435441 -0.170026 1.88328e-20)
(-0.498422 0.172165 4.64485e-21)
(-0.760591 0.115778 -1.69773e-20)
(-0.461552 -0.1889 -9.00694e-21)
(-0.813661 0.153446 3.36862e-22)
(-0.94982 0.484455 8.5212e-21)
(-1.01646 0.511468 0)
(-0.74868 -0.0391052 1.5356e-20)
(-0.740801 -0.0669789 -1.19903e-20)
(-0.286608 -0.191169 -1.83513e-20)
(-0.263053 -0.177512 3.053e-20)
(-0.12574 -0.195696 0)
(-0.894063 -0.175294 -6.52592e-21)
(-1.46665 0.826232 -1.27941e-20)
(-0.456397 0.280015 1.15615e-20)
(-1.26894 0.312972 1.43888e-20)
(-0.581886 -0.393892 -2.86061e-20)
(-0.108133 -0.18686 -1.53737e-20)
(-0.0990442 -0.175368 1.23268e-20)
(-0.899932 -0.196212 5.64272e-21)
(-0.88476 -0.213665 9.70751e-21)
(-1.49298 0.835157 3.23716e-20)
(-1.50802 0.814247 -1.67816e-20)
(-0.636015 0.391854 1.58636e-20)
(-0.48472 -0.344299 -1.34722e-20)
(-1.05495 0.194073 3.29277e-21)
(-0.567181 0.104039 2.66486e-20)
(-0.445486 -0.0238818 0)
(-0.557063 0.0116833 -2.62498e-20)
(-1.50347 0.634656 -5.92878e-21)
(-0.773378 -0.297231 -1.44747e-20)
(-0.107846 -0.0791219 0)
(-0.752786 0.35545 0)
(-0.354551 -0.200038 -3.67684e-21)
(-0.757525 0.0356279 -1.30851e-20)
(-1.16456 0.658697 0)
(-0.82057 -0.0706519 0)
(-0.240257 -0.226011 -1.9534e-20)
(-1.40665 0.819753 -1.42156e-20)
(-1.40507 0.794335 0)
(-0.889337 -0.139619 3.47018e-21)
(-0.160914 -0.216951 -1.87426e-20)
(-0.872089 -0.149461 -9.46214e-21)
(-0.155401 -0.204373 2.53474e-20)
(-1.40539 0.642909 1.26034e-20)