/*--------------------------------*- C++ -*----------------------------------*\
  =========                 |
  \\      /  F ield         | OpenFOAM: The Open Source CFD Toolbox
   \\    /   O peration     | Website:  https://openfoam.org
    \\  /    A nd           | Version:  6
     \\/     M anipulation  |
\*---------------------------------------------------------------------------*/
FoamFile
{
    version     2.0;
    format      ascii;
    class       volVectorField;
    location    "0";
    object      U;
}
// * * * * * * * * * * * * * * * * * * * * * * * * * * * * * * * * * * * * * //

dimensions      [0 1 -1 0 0 0 0];

internalField   nonuniform List<vector> 
9000
(
(0.638649 0.139731 0)
(0.502805 0.0663552 0)
(0.310811 0.0215314 0)
(0.220386 0.0099125 0)
(0.171329 0.00498039 0)
(0.141804 0.00270992 0)
(0.122958 0.00160868 0)
(0.110383 0.0010173 0)
(0.101735 0.000669368 0)
(0.0956841 0.000450645 0)
(0.0914116 0.000306705 0)
(0.0883863 0.000209216 0)
(0.0862474 0.000142115 0)
(0.0847427 9.55994e-05 0)
(0.0836925 6.33419e-05 0)
(0.0829673 4.10849e-05 0)
(0.0824732 2.58826e-05 0)
(0.082142 1.56591e-05 0)
(0.0819242 8.93646e-06 0)
(0.0817842 4.65793e-06 0)
(0.0816963 2.06787e-06 0)
(0.0816425 6.28034e-07 0)
(0.08161 -4.25204e-08 0)
(0.0815899 -2.11161e-07 0)
(0.0815763 -6.37861e-08 0)
(0.0815655 2.71413e-07 0)
(0.081555 7.06312e-07 0)
(0.0815436 1.1797e-06 0)
(0.0815309 1.64739e-06 0)
(0.0815173 2.07463e-06 0)
(0.0815038 2.43017e-06 0)
(0.0814919 2.6812e-06 0)
(0.0814841 2.7888e-06 0)
(0.0814837 2.70321e-06 0)
(0.081495 2.35842e-06 0)
(0.0815242 1.66514e-06 0)
(0.0815794 5.00834e-07 0)
(0.0816717 -1.3055e-06 0)
(0.0818165 -3.99898e-06 0)
(0.0820353 -7.9466e-06 0)
(0.0823592 -1.37386e-05 0)
(0.0828344 -2.24354e-05 0)
(0.0835327 -3.62561e-05 0)
(0.0845737 -6.05874e-05 0)
(0.0861737 -0.000110205 0)
(0.0887767 -0.000234798 0)
(0.0933691 -0.000625792 0)
(0.101968 -0.00174264 0)
(0.124882 -0.00710502 0)
(0.181691 -0.0512298 0)
(1.02563 0.331981 0)
(0.929952 0.241725 0)
(0.708751 0.136145 0)
(0.561248 0.0780437 0)
(0.462369 0.046731 0)
(0.395269 0.0294844 0)
(0.34903 0.0194644 0)
(0.316635 0.0132752 0)
(0.293635 0.00924668 0)
(0.277168 0.0065194 0)
(0.265331 0.00462225 0)
(0.256819 0.00327953 0)
(0.250715 0.00231985 0)
(0.246358 0.00163106 0)
(0.243272 0.00113678 0)
(0.241105 0.000783365 0)
(0.239602 0.000532376 0)
(0.238572 0.000355861 0)
(0.237877 0.000233343 0)
(0.237415 0.000149764 0)
(0.237114 9.40459e-05 0)
(0.236919 5.80603e-05 0)
(0.236795 3.58603e-05 0)
(0.236714 2.31132e-05 0)
(0.236659 1.66694e-05 0)
(0.236618 1.42362e-05 0)
(0.236583 1.41264e-05 0)
(0.236551 1.50654e-05 0)
(0.236519 1.60385e-05 0)
(0.23649 1.61672e-05 0)
(0.236467 1.46041e-05 0)
(0.236454 1.04345e-05 0)
(0.23646 2.57729e-06 0)
(0.236494 -1.03303e-05 0)
(0.236573 -3.00781e-05 0)
(0.236715 -5.90848e-05 0)
(0.236946 -0.000100696 0)
(0.237305 -0.000159652 0)
(0.23784 -0.000242848 0)
(0.238623 -0.000360671 0)
(0.239756 -0.000529438 0)
(0.241388 -0.000776243 0)
(0.243753 -0.00114925 0)
(0.247223 -0.0017414 0)
(0.25243 -0.00274915 0)
(0.26052 -0.00463035 0)
(0.273673 -0.00855666 0)
(0.295949 -0.0176321 0)
(0.33872 -0.0406031 0)
(0.41659 -0.111807 0)
(1.11194 0.339225 0)
(1.10107 0.335245 0)
(0.946192 0.23754 0)
(0.807367 0.158474 0)
(0.695767 0.105441 0)
(0.611682 0.0714146 0)
(0.549685 0.0493885 0)
(0.504245 0.0347442 0)
(0.470961 0.024731 0)
(0.446586 0.0177228 0)
(0.428754 0.0127329 0)
(0.415746 0.00913996 0)
(0.406297 0.00653681 0)
(0.399474 0.00464685 0)
(0.394585 0.00327643 0)
(0.391112 0.00228679 0)
(0.388671 0.00157686 0)
(0.386975 0.00107223 0)
(0.385811 0.000717774 0)
(0.385023 0.00047257 0)
(0.384497 0.000306234 0)
(0.384149 0.000196265 0)
(0.38392 0.000126058 0)
(0.383767 8.33942e-05 0)
(0.383663 5.9294e-05 0)
(0.383586 4.71389e-05 0)
(0.383525 4.19875e-05 0)
(0.383474 4.00432e-05 0)
(0.383431 3.82288e-05 0)
(0.383397 3.38373e-05 0)
(0.383378 2.42268e-05 0)
(0.383383 6.53383e-06 0)
(0.383425 -2.26267e-05 0)
(0.383523 -6.75111e-05 0)
(0.383702 -0.000133696 0)
(0.383996 -0.000228701 0)
(0.384451 -0.000362915 0)
(0.38513 -0.000551027 0)
(0.386117 -0.000814356 0)
(0.387535 -0.00118481 0)
(0.389552 -0.00171197 0)
(0.392419 -0.00247626 0)
(0.39651 -0.00361518 0)
(0.402405 -0.00537773 0)
(0.411032 -0.00824347 0)
(0.423925 -0.013195 0)
(0.443649 -0.022359 0)
(0.474189 -0.0404499 0)
(0.522766 -0.0778592 0)
(0.593253 -0.160116 0)
(1.12551 0.296238 0)
(1.16441 0.373082 0)
(1.07905 0.311953 0)
(0.973914 0.232584 0)
(0.873025 0.16733 0)
(0.788585 0.119653 0)
(0.721799 0.0858992 0)
(0.670411 0.0620256 0)
(0.631444 0.0449889 0)
(0.602166 0.0327024 0)
(0.580324 0.0237642 0)
(0.564134 0.0172246 0)
(0.552217 0.012427 0)
(0.543509 0.0089082 0)
(0.537198 0.00633406 0)
(0.532666 0.00446017 0)
(0.529444 0.00310552 0)
(0.527178 0.00213508 0)
(0.525603 0.00144775 0)
(0.52452 0.000967788 0)
(0.523784 0.000638531 0)
(0.523289 0.000417695 0)
(0.522955 0.000273844 0)
(0.52273 0.000183676 0)
(0.522573 0.00012993 0)
(0.522461 9.97635e-05 0)
(0.522376 8.3491e-05 0)
(0.52231 7.35795e-05 0)
(0.52226 6.38463e-05 0)
(0.52223 4.87887e-05 0)
(0.522226 2.29929e-05 0)
(0.522262 -1.94301e-05 0)
(0.522358 -8.54401e-05 0)
(0.522539 -0.000183767 0)
(0.52284 -0.000325812 0)
(0.52331 -0.00052689 0)
(0.524014 -0.00080807 0)
(0.525037 -0.00119898 0)
(0.526498 -0.00174231 0)
(0.52856 -0.00250128 0)
(0.531452 -0.00357253 0)
(0.535501 -0.00510918 0)
(0.54118 -0.00736378 0)
(0.549191 -0.0107708 0)
(0.560583 -0.0161093 0)
(0.576927 -0.0248285 0)
(0.600501 -0.0396898 0)
(0.634097 -0.0659305 0)
(0.680632 -0.112781 0)
(0.737489 -0.195634 0)
(1.1222 0.252485 0)
(1.18112 0.377335 0)
(1.14851 0.355242 0)
(1.08145 0.288729 0)
(1.00252 0.22144 0)
(0.928544 0.165908 0)
(0.865476 0.123197 0)
(0.814336 0.0911767 0)
(0.774058 0.0673572 0)
(0.742927 0.0496566 0)
(0.719189 0.0364933 0)
(0.701285 0.0267013 0)
(0.687914 0.0194248 0)
(0.678021 0.0140318 0)
(0.67077 0.0100519 0)
(0.665506 0.00713218 0)
(0.661724 0.00500632 0)
(0.659035 0.00347273 0)
(0.657143 0.00237874 0)
(0.655826 0.00160884 0)
(0.654918 0.00107589 0)
(0.654297 0.000714397 0)
(0.653872 0.000475335 0)
(0.65358 0.0003221 0)
(0.653377 0.000227382 0)
(0.653232 0.000170699 0)
(0.653125 0.000136452 0)
(0.653048 0.000112384 0)
(0.652997 8.83207e-05 0)
(0.652977 5.51095e-05 0)
(0.652997 3.68123e-06 0)
(0.653075 -7.58616e-05 0)
(0.653234 -0.000195211 0)
(0.653508 -0.000368992 0)
(0.653943 -0.000616219 0)
(0.654598 -0.00096231 0)
(0.655554 -0.001442 0)
(0.656918 -0.00210374 0)
(0.658834 -0.00301664 0)
(0.661499 -0.00428159 0)
(0.665183 -0.00604981 0)
(0.670258 -0.00855465 0)
(0.677245 -0.012167 0)
(0.686876 -0.0174943 0)
(0.700162 -0.0255565 0)
(0.718459 -0.0380945 0)
(0.743414 -0.0580759 0)
(0.776415 -0.0903785 0)
(0.817364 -0.142005 0)
(0.86094 -0.220957 0)
(1.11544 0.214039 0)
(1.1786 0.362776 0)
(1.18142 0.373336 0)
(1.14811 0.325185 0)
(1.09436 0.263152 0)
(1.03652 0.205381 0)
(0.982828 0.157282 0)
(0.936688 0.119146 0)
(0.898791 0.0896023 0)
(0.868568 0.0669821 0)
(0.84496 0.0497802 0)
(0.826811 0.0367643 0)
(0.813041 0.0269626 0)
(0.802716 0.0196202 0)
(0.795059 0.0141534 0)
(0.78944 0.010112 0)
(0.78536 0.007149 0)
(0.782428 0.00499747 0)
(0.780342 0.00345263 0)
(0.778873 0.00235792 0)
(0.777847 0.00159425 0)
(0.777135 0.00107139 0)
(0.776642 0.000721332 0)
(0.776299 0.000492968 0)
(0.776057 0.000347885 0)
(0.775886 0.000257052 0)
(0.775763 0.000198165 0)
(0.77568 0.000153518 0)
(0.775632 0.000108252 0)
(0.775627 4.88729e-05 0)
(0.775676 -3.80904e-05 0)
(0.7758 -0.000167382 0)
(0.776027 -0.00035641 0)
(0.776398 -0.000626872 0)
(0.776966 -0.00100684 0)
(0.7778 -0.00153359 0)
(0.778994 -0.00225766 0)
(0.780671 -0.00324885 0)
(0.782992 -0.00460541 0)
(0.786176 -0.00646844 0)
(0.790511 -0.0090449 0)
(0.796386 -0.0126451 0)
(0.80432 -0.0177441 0)
(0.814993 -0.0250831 0)
(0.829272 -0.0358313 0)
(0.848167 -0.0518313 0)
(0.872621 -0.0759167 0)
(0.902844 -0.112155 0)
(0.937028 -0.16532 0)
(0.969331 -0.23876 0)
(1.10925 0.181334 0)
(1.16953 0.338557 0)
(1.19429 0.37338 0)
(1.1877 0.344086 0)
(1.15789 0.291366 0)
(1.11816 0.235683 0)
(1.077 0.185597 0)
(1.03908 0.143685 0)
(1.00638 0.109913 0)
(0.979353 0.0832841 0)
(0.957656 0.0625784 0)
(0.940613 0.0466407 0)
(0.927456 0.0344765 0)
(0.917445 0.0252654 0)
(0.909926 0.0183459 0)
(0.904344 0.0131916 0)
(0.900248 0.00938709 0)
(0.897272 0.00660729 0)
(0.895133 0.00459922 0)
(0.893609 0.00316739 0)
(0.892531 0.0021617 0)
(0.891773 0.00146757 0)
(0.891241 0.000998014 0)
(0.890866 0.000687213 0)
(0.8906 0.000485364 0)
(0.890411 0.000354534 0)
(0.890279 0.000265325 0)
(0.890193 0.000194169 0)
(0.890153 0.000121077 0)
(0.890166 2.77125e-05 0)
(0.890247 -0.000104353 0)
(0.890418 -0.000295353 0)
(0.890712 -0.000569153 0)
(0.891175 -0.000955392 0)
(0.891866 -0.00149219 0)
(0.892861 -0.00222979 0)
(0.894263 -0.00323566 0)
(0.896204 -0.00460193 0)
(0.898856 -0.0064564 0)
(0.902442 -0.00897929 0)
(0.907253 -0.0124288 0)
(0.913664 -0.0171808 0)
(0.92215 -0.0237895 0)
(0.93329 -0.0330793 0)
(0.947745 -0.0462751 0)
(0.966146 -0.0651663 0)
(0.988817 -0.0922488 0)
(1.01514 -0.130657 0)
(1.04254 -0.183336 0)
(1.06568 -0.25093 0)
(1.10454 0.15412 0)
(1.15936 0.310136 0)
(1.19676 0.361227 0)
(1.20995 0.348634 0)
(1.20086 0.30677 0)
(1.17889 0.256016 0)
(1.15151 0.20673 0)
(1.12366 0.163285 0)
(1.09808 0.126924 0)
(1.07597 0.0974256 0)
(1.05763 0.0739834 0)
(1.04285 0.0556316 0)
(1.0312 0.0414367 0)
(1.02219 0.030572 0)
(1.01533 0.022338 0)
(1.01017 0.0161584 0)
(1.00634 0.0115673 0)
(1.00352 0.00819283 0)
(1.00147 0.00574136 0)
(0.999997 0.00398342 0)
(0.998939 0.00274113 0)
(0.998185 0.00187763 0)
(0.997648 0.00128826 0)
(0.997265 0.000893311 0)
(0.99699 0.000632034 0)
(0.996795 0.000457813 0)
(0.99666 0.000334205 0)
(0.996578 0.000231695 0)
(0.996548 0.000124985 0)
(0.996581 -9.36364e-06 0)
(0.996692 -0.000195078 0)
(0.996908 -0.000458284 0)
(0.997263 -0.000829769 0)
(0.997807 -0.00134761 0)
(0.998603 -0.00206047 0)
(0.999732 -0.00303195 0)
(1.0013 -0.00434658 0)
(1.00344 -0.00611832 0)
(1.00633 -0.0085028 0)
(1.01018 -0.0117152 0)
(1.01528 -0.0160565 0)
(1.02195 -0.0219517 0)
(1.0306 -0.0300047 0)
(1.04169 -0.0410725 0)
(1.05564 -0.0563571 0)
(1.07275 -0.0774906 0)
(1.09285 -0.106542 0)
(1.11483 -0.145773 0)
(1.13595 -0.196769 0)
(1.1517 -0.258722 0)
(1.10118 0.13156 0)
(1.15015 0.280503 0)
(1.19422 0.341173 0)
(1.22143 0.342033 0)
(1.2293 0.310905 0)
(1.22349 0.266613 0)
(1.20979 0.220156 0)
(1.19277 0.177093 0)
(1.17542 0.139721 0)
(1.1594 0.108562 0)
(1.14548 0.0832747 0)
(1.13388 0.0631506 0)
(1.12449 0.0473809 0)
(1.11707 0.0351834 0)
(1.11132 0.0258592 0)
(1.10693 0.0188106 0)
(1.10362 0.0135409 0)
(1.10116 0.00964564 0)
(1.09935 0.00680093 0)
(1.09802 0.00475037 0)
(1.09705 0.00329334 0)
(1.09636 0.00227423 0)
(1.09585 0.0015732 0)
(1.09548 0.00109834 0)
(1.09522 0.000779111 0)
(1.09503 0.00056098 0)
(1.0949 0.000400925 0)
(1.09482 0.000263744 0)
(1.09481 0.000118926 0)
(1.09486 -6.20873e-05 0)
(1.095 -0.000308418 0)
(1.09525 -0.000652234 0)
(1.09566 -0.0011314 0)
(1.09627 -0.00179257 0)
(1.09714 -0.00269491 0)
(1.09837 -0.0039151 0)
(1.10005 -0.00555393 0)
(1.10232 -0.00774541 0)
(1.10535 -0.0106696 0)
(1.10933 -0.0145703 0)
(1.11451 -0.0197805 0)
(1.12118 -0.0267562 0)
(1.12965 -0.0361215 0)
(1.14024 -0.048723 0)
(1.15317 -0.0656825 0)
(1.16844 -0.0884182 0)
(1.18556 -0.118562 0)
(1.20318 -0.157638 0)
(1.21868 -0.206293 0)
(1.22842 -0.263014 0)
(1.09885 0.112665 0)
(1.14248 0.251166 0)
(1.18962 0.316208 0)
(1.22644 0.327074 0)
(1.24768 0.305586 0)
(1.25586 0.268289 0)
(1.25495 0.225967 0)
(1.24873 0.184785 0)
(1.24005 0.147791 0)
(1.23077 0.116138 0)
(1.22198 0.0899315 0)
(1.21421 0.0687457 0)
(1.20765 0.0519349 0)
(1.2023 0.0388003 0)
(1.19803 0.028676 0)
(1.19471 0.0209691 0)
(1.19215 0.0151726 0)
(1.19021 0.0108653 0)
(1.18876 0.00770425 0)
(1.18767 0.0054148 0)
(1.18687 0.00378001 0)
(1.18628 0.00263019 0)
(1.18584 0.00183375 0)
(1.18551 0.00128904 0)
(1.18527 0.00091754 0)
(1.1851 0.000658016 0)
(1.18498 0.000461732 0)
(1.18492 0.000288374 0)
(1.18491 0.000102587 0)
(1.18498 -0.000129078 0)
(1.18515 -0.000440998 0)
(1.18543 -0.000871272 0)
(1.18588 -0.00146471 0)
(1.18653 -0.00227626 0)
(1.18746 -0.00337517 0)
(1.18875 -0.00485027 0)
(1.19049 -0.00681699 0)
(1.19281 -0.00942668 0)
(1.19586 -0.0128792 0)
(1.19983 -0.0174397 0)
(1.20491 -0.0234613 0)
(1.21134 -0.0314132 0)
(1.21934 -0.0419146 0)
(1.22908 -0.0557683 0)
(1.24061 -0.0739807 0)
(1.25372 -0.0977359 0)
(1.26771 -0.128263 0)
(1.28115 -0.166508 0)
(1.29172 -0.212497 0)
(1.29654 -0.264449 0)
(1.09725 0.0965709 0)
(1.13635 0.222805 0)
(1.18446 0.288324 0)
(1.2277 0.305999 0)
(1.25921 0.292589 0)
(1.27912 0.262132 0)
(1.28967 0.224648 0)
(1.29368 0.186425 0)
(1.29361 0.150954 0)
(1.2913 0.11986 0)
(1.28799 0.0936273 0)
(1.28445 0.0721048 0)
(1.2811 0.0548239 0)
(1.27815 0.0411921 0)
(1.27566 0.0306016 0)
(1.27362 0.0224867 0)
(1.272 0.016349 0)
(1.27073 0.0117656 0)
(1.26974 0.00838671 0)
(1.26898 0.00592899 0)
(1.2684 0.00416629 0)
(1.26795 0.00292038 0)
(1.26761 0.00205199 0)
(1.26734 0.00145286 0)
(1.26714 0.00103869 0)
(1.267 0.000743243 0)
(1.2669 0.000513254 0)
(1.26685 0.000304153 0)
(1.26686 7.63552e-05 0)
(1.26695 -0.000208023 0)
(1.26713 -0.00058824 0)
(1.26743 -0.00110798 0)
(1.2679 -0.00181858 0)
(1.26858 -0.0027827 0)
(1.26953 -0.00407875 0)
(1.27083 -0.00580637 0)
(1.27257 -0.00809345 0)
(1.27487 -0.0111053 0)
(1.27786 -0.0150563 0)
(1.28168 -0.0202252 0)
(1.2865 -0.0269741 0)
(1.29248 -0.0357695 0)
(1.29976 -0.0472056 0)
(1.3084 -0.0620191 0)
(1.31829 -0.081084 0)
(1.32907 -0.105355 0)
(1.33994 -0.135715 0)
(1.34952 -0.172674 0)
(1.35579 -0.215876 0)
(1.3565 -0.263505 0)
(1.09614 0.0825911 0)
(1.13154 0.195656 0)
(1.1795 0.258811 0)
(1.22691 0.280531 0)
(1.26619 0.273493 0)
(1.29569 0.249302 0)
(1.3162 0.216901 0)
(1.32953 0.182345 0)
(1.33763 0.149289 0)
(1.34217 0.119653 0)
(1.34442 0.094213 0)
(1.34527 0.0730525 0)
(1.34533 0.0558746 0)
(1.34497 0.0422028 0)
(1.34444 0.0315032 0)
(1.34385 0.0232545 0)
(1.34329 0.0169831 0)
(1.34278 0.0122786 0)
(1.34234 0.00879644 0)
(1.34196 0.00625381 0)
(1.34165 0.0044231 0)
(1.34138 0.00312342 0)
(1.34116 0.00221246 0)
(1.34098 0.00157877 0)
(1.34083 0.00113497 0)
(1.34072 0.000811727 0)
(1.34065 0.000552729 0)
(1.34062 0.000310233 0)
(1.34064 4.1256e-05 0)
(1.34074 -0.000295867 0)
(1.34093 -0.000744708 0)
(1.34125 -0.00135396 0)
(1.34172 -0.00218082 0)
(1.3424 -0.00329483 0)
(1.34334 -0.00478234 0)
(1.34461 -0.00675203 0)
(1.3463 -0.00934169 0)
(1.3485 -0.0127268 0)
(1.35132 -0.0171311 0)
(1.35488 -0.0228395 0)
(1.3593 -0.0302126 0)
(1.36467 -0.0397019 0)
(1.37105 -0.0518618 0)
(1.37841 -0.0673504 0)
(1.38653 -0.0869052 0)
(1.39494 -0.111271 0)
(1.40281 -0.141048 0)
(1.40886 -0.176431 0)
(1.4114 -0.216843 0)
(1.40867 -0.260552 0)
(1.09537 0.0702017 0)
(1.12782 0.169725 0)
(1.17508 0.228472 0)
(1.22512 0.251949 0)
(1.27017 0.249631 0)
(1.30739 0.230913 0)
(1.33633 0.203528 0)
(1.3579 0.173047 0)
(1.3735 0.143062 0)
(1.38451 0.115623 0)
(1.39214 0.0916926 0)
(1.39734 0.0715381 0)
(1.40083 0.055012 0)
(1.40314 0.0417514 0)
(1.40463 0.0313041 0)
(1.40557 0.0232049 0)
(1.40614 0.0170182 0)
(1.40646 0.0123585 0)
(1.40661 0.00889697 0)
(1.40666 0.00636094 0)
(1.40664 0.00452878 0)
(1.40659 0.00322304 0)
(1.40651 0.00230312 0)
(1.40642 0.00165811 0)
(1.40634 0.00120034 0)
(1.40627 0.000859615 0)
(1.40622 0.000578186 0)
(1.40621 0.000306405 0)
(1.40625 -1.12103e-06 0)
(1.40635 -0.000389019 0)
(1.40655 -0.000904437 0)
(1.40686 -0.00160033 0)
(1.40732 -0.0025389 0)
(1.40798 -0.00379548 0)
(1.40888 -0.00546294 0)
(1.41009 -0.00765701 0)
(1.41167 -0.0105227 0)
(1.4137 -0.0142418 0)
(1.41628 -0.0190423 0)
(1.41947 -0.0252085 0)
(1.42337 -0.0330911 0)
(1.42801 -0.0431172 0)
(1.43337 -0.0557921 0)
(1.43933 -0.07169 0)
(1.44562 -0.0914181 0)
(1.45171 -0.115538 0)
(1.45677 -0.144425 0)
(1.45965 -0.178055 0)
(1.45894 -0.215738 0)
(1.45328 -0.255883 0)
(1.09484 0.0590069 0)
(1.12496 0.144908 0)
(1.17129 0.197794 0)
(1.22296 0.221186 0)
(1.27226 0.222095 0)
(1.31556 0.207982 0)
(1.3515 0.185349 0)
(1.38018 0.159128 0)
(1.40243 0.132671 0)
(1.41934 0.10801 0)
(1.43198 0.0861981 0)
(1.44131 0.0676212 0)
(1.44812 0.0522518 0)
(1.45303 0.0398293 0)
(1.45653 0.0299837 0)
(1.459 0.0223131 0)
(1.46071 0.0164296 0)
(1.46187 0.0119826 0)
(1.46264 0.00866889 0)
(1.46313 0.00623427 0)
(1.46342 0.00447035 0)
(1.46358 0.00320902 0)
(1.46365 0.00231611 0)
(1.46367 0.00168503 0)
(1.46366 0.00123073 0)
(1.46363 0.00088438 0)
(1.46362 0.000588569 0)
(1.46362 0.000293106 0)
(1.46367 -4.87174e-05 0)
(1.46378 -0.000483552 0)
(1.46397 -0.00106126 0)
(1.46427 -0.00183817 0)
(1.4647 -0.00288051 0)
(1.46532 -0.00426815 0)
(1.46615 -0.00609892 0)
(1.46725 -0.00849351 0)
(1.46868 -0.0116013 0)
(1.47049 -0.015607 0)
(1.47275 -0.0207381 0)
(1.4755 -0.0272724 0)
(1.47879 -0.0355447 0)
(1.4826 -0.0459504 0)
(1.48686 -0.0589414 0)
(1.49139 -0.0750087 0)
(1.49585 -0.0946398 0)
(1.49971 -0.118242 0)
(1.50218 -0.14602 0)
(1.50223 -0.1778 0)
(1.49871 -0.212852 0)
(1.49055 -0.24974 0)
(1.09446 0.0487081 0)
(1.12278 0.121057 0)
(1.16817 0.167053 0)
(1.22078 0.188914 0)
(1.27317 0.191761 0)
(1.32121 0.181406 0)
(1.36283 0.163159 0)
(1.39746 0.141228 0)
(1.42545 0.118597 0)
(1.44755 0.0971595 0)
(1.4647 0.0779635 0)
(1.47779 0.0614552 0)
(1.48766 0.0476903 0)
(1.49501 0.0364941 0)
(1.50041 0.0275745 0)
(1.50433 0.0205958 0)
(1.50714 0.0152242 0)
(1.50912 0.0111522 0)
(1.51049 0.00811043 0)
(1.51141 0.00587059 0)
(1.51201 0.00424411 0)
(1.51239 0.00307773 0)
(1.51262 0.00224822 0)
(1.51274 0.0016569 0)
(1.51279 0.00122423 0)
(1.51282 0.000884973 0)
(1.51283 0.000583804 0)
(1.51285 0.000271396 0)
(1.51291 -9.91155e-05 0)
(1.51302 -0.000575407 0)
(1.51319 -0.00120911 0)
(1.51347 -0.00205896 0)
(1.51386 -0.0031941 0)
(1.51441 -0.00469766 0)
(1.51514 -0.00667076 0)
(1.51611 -0.00923701 0)
(1.51734 -0.0125476 0)
(1.51889 -0.0167867 0)
(1.52078 -0.0221773 0)
(1.52303 -0.0289863 0)
(1.52565 -0.0375276 0)
(1.52858 -0.0481614 0)
(1.5317 -0.061285 0)
(1.53479 -0.0773099 0)
(1.53748 -0.0966189 0)
(1.53924 -0.119493 0)
(1.53934 -0.146006 0)
(1.53689 -0.175896 0)
(1.53093 -0.208428 0)
(1.52062 -0.242327 0)
(1.0942 0.039078 0)
(1.12114 0.0980056 0)
(1.16566 0.136395 0)
(1.21881 0.155609 0)
(1.27342 0.159329 0)
(1.32506 0.151962 0)
(1.37117 0.137705 0)
(1.41065 0.120001 0)
(1.44341 0.101374 0)
(1.46992 0.0834867 0)
(1.49094 0.0673026 0)
(1.50732 0.0532701 0)
(1.5199 0.0414927 0)
(1.52942 0.0318623 0)
(1.53653 0.0241573 0)
(1.54177 0.0181082 0)
(1.54558 0.013439 0)
(1.54831 0.00989173 0)
(1.55023 0.00723714 0)
(1.55156 0.00527949 0)
(1.55245 0.00385568 0)
(1.55304 0.00283223 0)
(1.55341 0.00210097 0)
(1.55363 0.00157443 0)
(1.55375 0.00118123 0)
(1.55382 0.000861858 0)
(1.55386 0.00056478 0)
(1.5539 0.000242897 0)
(1.55396 -0.000149664 0)
(1.55406 -0.000660581 0)
(1.55422 -0.00134228 0)
(1.55445 -0.00225488 0)
(1.55479 -0.00346933 0)
(1.55526 -0.00507067 0)
(1.55588 -0.00716171 0)
(1.55668 -0.00986699 0)
(1.55769 -0.013337 0)
(1.55892 -0.0177527 0)
(1.5604 -0.0233292 0)
(1.56212 -0.030319 0)
(1.56403 -0.0390122 0)
(1.56605 -0.049732 0)
(1.56803 -0.0628222 0)
(1.56971 -0.0786223 0)
(1.57072 -0.0974242 0)
(1.57054 -0.119408 0)
(1.56851 -0.144555 0)
(1.56385 -0.172547 0)
(1.55577 -0.202678 0)
(1.54363 -0.233818 0)
(1.09401 0.0299404 0)
(1.11993 0.0755932 0)
(1.16373 0.105878 0)
(1.21716 0.121609 0)
(1.27332 0.125351 0)
(1.32763 0.120321 0)
(1.37717 0.109677 0)
(1.42044 0.0960887 0)
(1.457 0.0815626 0)
(1.48707 0.067458 0)
(1.51127 0.0545889 0)
(1.53038 0.0433573 0)
(1.54522 0.0338814 0)
(1.55657 0.0261009 0)
(1.56513 0.0198555 0)
(1.5715 0.0149398 0)
(1.57617 0.0111384 0)
(1.57955 0.00824653 0)
(1.58195 0.00608066 0)
(1.58363 0.00448259 0)
(1.58478 0.00331956 0)
(1.58554 0.00248205 0)
(1.58604 0.00188047 0)
(1.58635 0.0014415 0)
(1.58654 0.00110429 0)
(1.58664 0.000816957 0)
(1.58671 0.000533285 0)
(1.58676 0.00020969 0)
(1.58682 -0.000197614 0)
(1.58691 -0.000735313 0)
(1.58704 -0.00145566 0)
(1.58723 -0.00241916 0)
(1.5875 -0.00369742 0)
(1.58787 -0.00537611 0)
(1.58836 -0.0075582 0)
(1.58897 -0.0103673 0)
(1.58973 -0.0139512 0)
(1.59064 -0.018485 0)
(1.59168 -0.0241735 0)
(1.59283 -0.0312525 0)
(1.59402 -0.0399866 0)
(1.59514 -0.050662 0)
(1.596 -0.0635723 0)
(1.59633 -0.0789924 0)
(1.59577 -0.0971386 0)
(1.59382 -0.118112 0)
(1.58988 -0.141828 0)
(1.58329 -0.167941 0)
(1.57339 -0.195787 0)
(1.55968 -0.22437 0)
(1.09389 0.0211549 0)
(1.11908 0.0536646 0)
(1.16233 0.0755094 0)
(1.21589 0.0871528 0)
(1.2731 0.0902758 0)
(1.32929 0.087062 0)
(1.3813 0.0797108 0)
(1.42735 0.0701174 0)
(1.46674 0.0597364 0)
(1.49951 0.0495718 0)
(1.52613 0.0402394 0)
(1.54733 0.0320552 0)
(1.56393 0.0251246 0)
(1.57671 0.0194177 0)
(1.58641 0.0148274 0)
(1.59366 0.0112096 0)
(1.59902 0.00841009 0)
(1.60291 0.00628059 0)
(1.6057 0.00468685 0)
(1.60766 0.00351227 0)
(1.60901 0.00265822 0)
(1.60993 0.0020425 0)
(1.61053 0.00159702 0)
(1.61091 0.00126496 0)
(1.61115 0.000997995 0)
(1.61129 0.000753483 0)
(1.61138 0.000491861 0)
(1.61143 0.000174181 0)
(1.61149 -0.000240265 0)
(1.61156 -0.000796249 0)
(1.61166 -0.00154493 0)
(1.6118 -0.00254625 0)
(1.612 -0.00387139 0)
(1.61226 -0.00560543 0)
(1.6126 -0.00785008 0)
(1.61302 -0.0107264 0)
(1.61351 -0.0143777 0)
(1.61407 -0.0189711 0)
(1.61467 -0.0246996 0)
(1.61524 -0.0317807 0)
(1.61571 -0.0404527 0)
(1.61594 -0.0509665 0)
(1.61573 -0.0635693 0)
(1.6148 -0.0784801 0)
(1.61279 -0.0958528 0)
(1.60924 -0.115728 0)
(1.60361 -0.137978 0)
(1.59534 -0.162247 0)
(1.58389 -0.18792 0)
(1.56885 -0.214122 0)
(1.09381 0.0126055 0)
(1.11854 0.0320742 0)
(1.16142 0.0452652 0)
(1.21503 0.0524131 0)
(1.27288 0.0544685 0)
(1.33027 0.0526971 0)
(1.38388 0.0483944 0)
(1.43176 0.0426926 0)
(1.47303 0.0364717 0)
(1.5076 0.030347 0)
(1.53586 0.0247016 0)
(1.55848 0.0197369 0)
(1.57627 0.0155246 0)
(1.59003 0.0120526 0)
(1.60051 0.0092594 0)
(1.60839 0.00705978 0)
(1.61421 0.00536101 0)
(1.61846 0.00407291 0)
(1.62152 0.00311321 0)
(1.62368 0.00240975 0)
(1.62518 0.00190073 0)
(1.6262 0.00153377 0)
(1.62688 0.00126437 0)
(1.62732 0.00105409 0)
(1.6276 0.000868575 0)
(1.62776 0.000675699 0)
(1.62786 0.000443618 0)
(1.62792 0.000138943 0)
(1.62797 -0.000275112 0)
(1.62802 -0.000840593 0)
(1.62808 -0.00160674 0)
(1.62817 -0.00263202 0)
(1.62828 -0.00398623 0)
(1.62843 -0.00575272 0)
(1.62862 -0.0080307 0)
(1.62883 -0.0109373 0)
(1.62905 -0.0146097 0)
(1.62926 -0.0192061 0)
(1.6294 -0.0249058 0)
(1.62942 -0.0319075 0)
(1.62919 -0.040424 0)
(1.62857 -0.0506725 0)
(1.62735 -0.062859 0)
(1.62525 -0.0771544 0)
(1.62192 -0.0936625 0)
(1.61695 -0.112379 0)
(1.60985 -0.133147 0)
(1.60014 -0.155618 0)
(1.58736 -0.179226 0)
(1.57121 -0.203203 0)
(1.09378 0.00419195 0)
(1.11828 0.0106833 0)
(1.16097 0.0151017 0)
(1.2146 0.0175188 0)
(1.27276 0.0182426 0)
(1.33073 0.0176876 0)
(1.38513 0.0162821 0)
(1.43391 0.0144028 0)
(1.47612 0.0123444 0)
(1.51159 0.0103142 0)
(1.54067 0.00844264 0)
(1.56402 0.0067988 0)
(1.58241 0.00540828 0)
(1.59667 0.00426798 0)
(1.60756 0.00335795 0)
(1.61574 0.00264972 0)
(1.62182 0.00211193 0)
(1.62626 0.00171361 0)
(1.62945 0.00142594 0)
(1.63172 0.00122288 0)
(1.6333 0.00108115 0)
(1.63439 0.000979687 0)
(1.63511 0.000898954 0)
(1.63558 0.000819999 0)
(1.63588 0.00072348 0)
(1.63605 0.000588605 0)
(1.63616 0.000392004 0)
(1.63622 0.000106538 0)
(1.63626 -0.000299992 0)
(1.63628 -0.000866231 0)
(1.63631 -0.00163879 0)
(1.63633 -0.00267386 0)
(1.63637 -0.00403898 0)
(1.6364 -0.00581482 0)
(1.63643 -0.00809696 0)
(1.63643 -0.0109975 0)
(1.63638 -0.0146464 0)
(1.63624 -0.0191915 0)
(1.63595 -0.0247982 0)
(1.63542 -0.0316462 0)
(1.63452 -0.0399236 0)
(1.63311 -0.0498169 0)
(1.63096 -0.0614956 0)
(1.6278 -0.0750904 0)
(1.6233 -0.0906652 0)
(1.61707 -0.108183 0)
(1.6087 -0.127472 0)
(1.59776 -0.148195 0)
(1.58388 -0.16984 0)
(1.56682 -0.191731 0)
(1.09378 -0.00417737 0)
(1.11828 -0.0106419 0)
(1.16097 -0.0150343 0)
(1.2146 -0.0174248 0)
(1.27276 -0.0181201 0)
(1.33073 -0.0175341 0)
(1.38513 -0.0160937 0)
(1.43392 -0.0141748 0)
(1.47613 -0.0120713 0)
(1.5116 -0.00998963 0)
(1.54069 -0.00805935 0)
(1.56404 -0.00634902 0)
(1.58244 -0.0048837 0)
(1.5967 -0.00366011 0)
(1.60759 -0.00265846 0)
(1.61578 -0.001851 0)
(1.62186 -0.00120781 0)
(1.62631 -0.000700324 0)
(1.62952 -0.0003034 0)
(1.63179 3.64449e-06 0)
(1.63339 0.000236618 0)
(1.63448 0.000406366 0)
(1.63521 0.0005188 0)
(1.63569 0.000574942 0)
(1.63599 0.000570876 0)
(1.63617 0.000497572 0)
(1.63628 0.000340545 0)
(1.63633 7.93315e-05 0)
(1.63635 -0.000313217 0)
(1.63635 -0.000871832 0)
(1.63634 -0.0016399 0)
(1.63631 -0.00267071 0)
(1.63626 -0.00402876 0)
(1.63618 -0.0057912 0)
(1.63605 -0.00804912 0)
(1.63585 -0.0109086 0)
(1.63553 -0.0144916 0)
(1.63506 -0.018935 0)
(1.63435 -0.0243899 0)
(1.6333 -0.0310175 0)
(1.63179 -0.0389826 0)
(1.62964 -0.048444 0)
(1.62665 -0.0595396 0)
(1.62254 -0.0723669 0)
(1.61701 -0.0869586 0)
(1.6097 -0.103255 0)
(1.60024 -0.121079 0)
(1.58828 -0.140111 0)
(1.57351 -0.159888 0)
(1.55572 -0.179818 0)
(1.09381 -0.0125912 0)
(1.11854 -0.0320334 0)
(1.16142 -0.0451987 0)
(1.21503 -0.0523202 0)
(1.27289 -0.0543476 0)
(1.33028 -0.0525454 0)
(1.3839 -0.0482081 0)
(1.43179 -0.0424672 0)
(1.47306 -0.0362016 0)
(1.50764 -0.030026 0)
(1.5359 -0.0243226 0)
(1.55854 -0.019292 0)
(1.57634 -0.0150057 0)
(1.59012 -0.0114512 0)
(1.60062 -0.00856722 0)
(1.6085 -0.00626927 0)
(1.61435 -0.00446599 0)
(1.61863 -0.00306958 0)
(1.62171 -0.00200141 0)
(1.6239 -0.00119457 0)
(1.62543 -0.000594636 0)
(1.62648 -0.000159298 0)
(1.62718 0.000142493 0)
(1.62764 0.000331496 0)
(1.62794 0.000419088 0)
(1.62812 0.000407966 0)
(1.62821 0.000292586 0)
(1.62826 5.93163e-05 0)
(1.62826 -0.000313696 0)
(1.62824 -0.000856925 0)
(1.62818 -0.00161011 0)
(1.6281 -0.00262308 0)
(1.62796 -0.00395671 0)
(1.62777 -0.00568394 0)
(1.62749 -0.00789065 0)
(1.6271 -0.0106763 0)
(1.62654 -0.014154 0)
(1.62575 -0.0184496 0)
(1.62464 -0.0237 0)
(1.62313 -0.0300484 0)
(1.62105 -0.0376384 0)
(1.61825 -0.046604 0)
(1.6145 -0.057056 0)
(1.60956 -0.0690649 0)
(1.60314 -0.08264 0)
(1.59492 -0.0977072 0)
(1.58456 -0.114088 0)
(1.57177 -0.131487 0)
(1.55629 -0.149488 0)
(1.53795 -0.16757 0)
(1.09389 -0.021141 0)
(1.11908 -0.053625 0)
(1.16233 -0.0754446 0)
(1.2159 -0.0870623 0)
(1.27311 -0.0901579 0)
(1.32931 -0.0869139 0)
(1.38133 -0.0795289 0)
(1.42739 -0.0698972 0)
(1.46679 -0.0594725 0)
(1.49957 -0.049258 0)
(1.52621 -0.0398688 0)
(1.54743 -0.0316201 0)
(1.56404 -0.0246168 0)
(1.57685 -0.0188291 0)
(1.58657 -0.0141497 0)
(1.59386 -0.0104353 0)
(1.59925 -0.00753314 0)
(1.60318 -0.00529706 0)
(1.60601 -0.0035964 0)
(1.60801 -0.00231967 0)
(1.60941 -0.00137538 0)
(1.61037 -0.000691148 0)
(1.61102 -0.000211947 0)
(1.61145 0.000101794 0)
(1.61172 0.000276048 0)
(1.61188 0.000324758 0)
(1.61197 0.000251031 0)
(1.612 4.79452e-05 0)
(1.61199 -0.000301027 0)
(1.61194 -0.000821938 0)
(1.61185 -0.00155059 0)
(1.6117 -0.00253297 0)
(1.61149 -0.00382587 0)
(1.6112 -0.00549748 0)
(1.61078 -0.00762794 0)
(1.6102 -0.0103095 0)
(1.60941 -0.0136463 0)
(1.60833 -0.017753 0)
(1.60688 -0.0227525 0)
(1.60494 -0.0287713 0)
(1.60236 -0.0359335 0)
(1.59898 -0.0443513 0)
(1.59458 -0.0541128 0)
(1.58893 -0.0652667 0)
(1.58176 -0.0778051 0)
(1.57278 -0.0916455 0)
(1.56171 -0.106615 0)
(1.54827 -0.12244 0)
(1.53225 -0.13875 0)
(1.51354 -0.155089 0)
(1.09401 -0.0299271 0)
(1.11993 -0.0755552 0)
(1.16374 -0.105816 0)
(1.21717 -0.121522 0)
(1.27334 -0.125238 0)
(1.32766 -0.120178 0)
(1.37721 -0.109502 0)
(1.42049 -0.0958762 0)
(1.45706 -0.0813078 0)
(1.48715 -0.0671549 0)
(1.51137 -0.0542306 0)
(1.53051 -0.0429365 0)
(1.54538 -0.0333902 0)
(1.55676 -0.0255312 0)
(1.56536 -0.0191993 0)
(1.57177 -0.0141896 0)
(1.57649 -0.0102882 0)
(1.57992 -0.00729237 0)
(1.58238 -0.00502193 0)
(1.58412 -0.00332357 0)
(1.58533 -0.00207139 0)
(1.58616 -0.00116525 0)
(1.58672 -0.000528137 0)
(1.58709 -0.000103245 0)
(1.58732 0.000148765 0)
(1.58746 0.000252175 0)
(1.58753 0.000218119 0)
(1.58755 4.59995e-05 0)
(1.58752 -0.000275561 0)
(1.58745 -0.000768204 0)
(1.58733 -0.00146365 0)
(1.58713 -0.00240382 0)
(1.58686 -0.00364105 0)
(1.58647 -0.00523842 0)
(1.58593 -0.00726996 0)
(1.58519 -0.00982048 0)
(1.58419 -0.0129849 0)
(1.58285 -0.0168668 0)
(1.58109 -0.0215758 0)
(1.57877 -0.0272227 0)
(1.57576 -0.0339142 0)
(1.57189 -0.0417435 0)
(1.56694 -0.0507796 0)
(1.56071 -0.0610544 0)
(1.55293 -0.0725478 0)
(1.54336 -0.0851734 0)
(1.53172 -0.0987669 0)
(1.51781 -0.113079 0)
(1.50144 -0.127781 0)
(1.4825 -0.142473 0)
(1.0942 -0.0390656 0)
(1.12114 -0.0979698 0)
(1.16567 -0.136336 0)
(1.21883 -0.155526 0)
(1.27344 -0.159221 0)
(1.3251 -0.151827 0)
(1.37122 -0.137538 0)
(1.41071 -0.119798 0)
(1.44349 -0.101131 0)
(1.47002 -0.0831974 0)
(1.49107 -0.0669605 0)
(1.50749 -0.052868 0)
(1.5201 -0.0410231 0)
(1.52966 -0.0313174 0)
(1.53682 -0.0235292 0)
(1.54211 -0.0173896 0)
(1.54598 -0.012624 0)
(1.54878 -0.00897611 0)
(1.55077 -0.00622009 0)
(1.55217 -0.0041647 0)
(1.55315 -0.00265331 0)
(1.55382 -0.00156127 0)
(1.55426 -0.000792307 0)
(1.55456 -0.000274595 0)
(1.55475 4.28612e-05 0)
(1.55486 0.000193393 0)
(1.55491 0.000195234 0)
(1.55492 5.34932e-05 0)
(1.55487 -0.000238431 0)
(1.55478 -0.000697928 0)
(1.55463 -0.00135265 0)
(1.55439 -0.00224031 0)
(1.55406 -0.00340861 0)
(1.55359 -0.00491528 0)
(1.55294 -0.00682799 0)
(1.55206 -0.00922395 0)
(1.55088 -0.012189 0)
(1.54933 -0.0158158 0)
(1.5473 -0.0202014 0)
(1.54467 -0.0254424 0)
(1.5413 -0.0316297 0)
(1.53702 -0.0388402 0)
(1.53163 -0.0471274 0)
(1.52493 -0.05651 0)
(1.51669 -0.06696 0)
(1.50667 -0.0783909 0)
(1.49464 -0.0906492 0)
(1.48042 -0.10351 0)
(1.46385 -0.116682 0)
(1.44486 -0.129818 0)
(1.09446 -0.0486967 0)
(1.12278 -0.121023 0)
(1.16818 -0.166999 0)
(1.2208 -0.188837 0)
(1.2732 -0.19166 0)
(1.32125 -0.181279 0)
(1.36288 -0.163002 0)
(1.39754 -0.141038 0)
(1.42554 -0.118368 0)
(1.44768 -0.0968869 0)
(1.46485 -0.077641 0)
(1.47798 -0.0610759 0)
(1.4879 -0.047247 0)
(1.49529 -0.0359792 0)
(1.50075 -0.0269804 0)
(1.50473 -0.0199157 0)
(1.50761 -0.014452 0)
(1.50967 -0.0102838 0)
(1.51112 -0.00714451 0)
(1.51214 -0.00481021 0)