/*--------------------------------*- C++ -*----------------------------------*\
  =========                 |
  \\      /  F ield         | OpenFOAM: The Open Source CFD Toolbox
   \\    /   O peration     | Website:  https://openfoam.org
    \\  /    A nd           | Version:  6
     \\/     M anipulation  |
\*---------------------------------------------------------------------------*/
FoamFile
{
    version     2.0;
    format      ascii;
    class       volScalarField;
    location    "0";
    object      p;
}
// * * * * * * * * * * * * * * * * * * * * * * * * * * * * * * * * * * * * * //

dimensions      [0 2 -2 0 0 0 0];

internalField   nonuniform List<scalar> 
11644
(
0.127651
0.128669
0.130584
0.133399
0.13714
0.141822
0.147447
0.154007
0.161477
0.1698
0.178885
0.18859
0.198708
0.208966
0.219013
0.228434
0.236768
0.243546
0.248342
0.250829
0.250829
0.248343
0.243547
0.236769
0.228435
0.219013
0.208966
0.198709
0.18859
0.178886
0.169801
0.161477
0.154008
0.147447
0.141822
0.137141
0.133399
0.130584
0.12867
0.127652
0.126553
0.127505
0.129372
0.13216
0.135885
0.140562
0.146198
0.152796
0.160339
0.168788
0.178064
0.188042
0.198527
0.209248
0.219846
0.229876
0.238828
0.246167
0.251392
0.254113
0.254113
0.251393
0.246167
0.238828
0.229876
0.219846
0.209249
0.198528
0.188042
0.178065
0.168788
0.16034
0.152797
0.146199
0.140562
0.135886
0.132161
0.129373
0.127505
0.126553
0.123787
0.124698
0.126519
0.129264
0.132954
0.137612
0.143265
0.149933
0.157628
0.166344
0.176041
0.186633
0.197957
0.209758
0.221658
0.23315
0.24361
0.252335
0.258634
0.261943
0.261943
0.258634
0.252335
0.243611
0.23315
0.221658
0.209759
0.197958
0.186633
0.176042
0.166344
0.157628
0.149933
0.143265
0.137613
0.132954
0.129265
0.12652
0.124699
0.123788
0.11923
0.120103
0.121864
0.124536
0.128152
0.132754
0.138391
0.14512
0.152997
0.162072
0.172376
0.183896
0.196546
0.210114
0.224218
0.238262
0.251432
0.262712
0.271032
0.275462
0.275462
0.271032
0.262712
0.251432
0.238262
0.224219
0.210115
0.196547
0.183897
0.172376
0.162073
0.152997
0.14512
0.138391
0.132754
0.128153
0.124537
0.121864
0.120103
0.11923
0.112942
0.113759
0.115423
0.117966
0.121432
0.125886
0.13141
0.138104
0.146084
0.15548
0.166429
0.179054
0.193415
0.209426
0.226755
0.24471
0.262229
0.277813
0.28965
0.296068
0.296068
0.28965
0.277814
0.26223
0.244711
0.226755
0.209427
0.193416
0.179054
0.16643
0.155481
0.146084
0.138104
0.131411
0.125887
0.121433
0.117966
0.115424
0.11376
0.112942
0.104991
0.105725
0.107233
0.109555
0.11275
0.116902
0.122124
0.128565
0.136409
0.145885
0.157273
0.170902
0.187122
0.206128
0.227797
0.251536
0.275618
0.29847
0.31637
0.326319
0.326319
0.316371
0.298471
0.275619
0.251537
0.227798
0.206129
0.187122
0.170902
0.157274
0.145886
0.136409
0.128565
0.122125
0.116903
0.112751
0.109556
0.107233
0.105725
0.104991
0.0954624
0.0960764
0.0973531
0.0993352
0.102088
0.105711
0.11034
0.116161
0.123422
0.132449
0.143673
0.157676
0.175295
0.197528
0.224462
0.256244
0.277071
0.310265
0.33776
0.355919
0.360084
0.349086
0.325911
0.295832
0.256246
0.224463
0.197529
0.175296
0.157677
0.143674
0.13245
0.123422
0.116161
0.11034
0.105711
0.102089
0.0993356
0.0973535
0.0960768
0.0954628
0.0845174
0.0849702
0.0859252
0.087422
0.0895235
0.0923264
0.0959702
0.100652
0.106648
0.114336
0.124261
0.137252
0.154486
0.176538
0.205686
0.241352
0.286717
0.335531
0.382713
0.415773
0.423145
0.401829
0.360081
0.310514
0.26461
0.224004
0.191965
0.154487
0.137253
0.124262
0.114337
0.106648
0.100653
0.0959706
0.0923268
0.0895239
0.0874223
0.0859255
0.0849705
0.0845177
0.0724197
0.0726677
0.0732067
0.0740647
0.0752871
0.076946
0.0791502
0.0820604
0.0859113
0.0910373
0.0979273
0.107402
0.120891
0.145987
0.175068
0.216587
0.268541
0.339078
0.418159
0.484044
0.506689
0.473259
0.402349
0.323841
0.256243
0.193832
0.159739
0.120892
0.107403
0.097928
0.0910379
0.0859118
0.0820609
0.0791506
0.0769464
0.0752873
0.074065
0.0732069
0.0726679
0.0724199
0.0595392
0.0595435
0.0595847
0.0596695
0.0598089
0.0600242
0.0603525
0.0608551
0.0616335
0.0628405
0.064684
0.0674847
0.0719521
0.0947128
0.113996
0.151286
0.207476
0.30284
0.436243
0.580913
0.643148
0.565074
0.417736
0.289203
0.193043
0.127975
0.103464
0.071953
0.0674854
0.0646845
0.0628409
0.0616338
0.0608554
0.0603527
0.0600244
0.059809
0.0596697
0.0595848
0.0595437
0.0595393
0.0463341
0.0460715
0.045567
0.0447987
0.0437292
0.0423078
0.0404654
0.0381092
0.0351186
0.0313337
0.0264847
0.0199839
0.0108015
0.0234973
0.0175814
0.0332411
0.0597818
0.122976
0.305126
0.64745
0.883616
0.622957
0.298459
0.111079
0.0426911
0.0147846
0.0205292
0.0108019
0.0199842
0.0264849
0.0313339
0.0351187
0.0381093
0.0404655
0.0423079
0.0437293
0.0447987
0.045567
0.0460715
0.0463341
0.0333172
0.0327904
0.0317467
0.0301328
0.0278588
0.0247952
0.0207567
0.0154788
0.00858751
-0.000443059
-0.0124163
-0.0288144
-0.0523194
-0.0560658
-0.0961707
-0.12223
-0.170581
-0.222639
-0.207027
-0.211827
-0.240362
-0.178042
-0.122532
-0.0746443
-0.0523198
-0.0288147
-0.0124165
-0.000443245
0.00858736
0.0154787
0.0207566
0.0247951
0.0278587
0.0301327
0.0317466
0.0327903
0.0333171
0.0210092
0.0202523
0.018739
0.0163893
0.0130699
0.00858711
0.0026633
-0.00509838
-0.0152613
-0.0286201
-0.0463421
-0.0703327
-0.103548
-0.122518
-0.185177
-0.242186
-0.338318
-0.480786
-0.697309
-0.690507
-0.468123
-0.329551
-0.224171
-0.151833
-0.103549
-0.0703336
-0.0463428
-0.0286206
-0.0152618
-0.00509876
0.00266298
0.00858683
0.0130697
0.0163891
0.0187388
0.0202521
0.021009
0.00988514
0.00895983
0.00710159
0.00421512
0.000143889
-0.00533773
-0.0125494
-0.0219393
-0.0341303
-0.049981
-0.0707037
-0.098068
-0.134195
-0.161154
-0.22461
-0.28414
-0.365367
-0.45468
-0.523132
-0.519927
-0.444662
-0.352289
-0.260501
-0.191659
-0.134197
-0.0980693
-0.0707048
-0.0499818
-0.034131
-0.0219399
-0.0125499
-0.00533819
0.000143483
0.00421475
0.00710126
0.00895952
0.00988483
0.000321643
-0.000694793
-0.00274264
-0.00591901
-0.0103802
-0.016349
-0.0241349
-0.0341609
-0.0469948
-0.0633895
-0.0843472
-0.11117
-0.145006
-0.173337
-0.22585
-0.273915
-0.327304
-0.371029
-0.392746
-0.392565
-0.388951
-0.393652
-0.39123
-0.366876
-0.317164
-0.252798
-0.199383
-0.145008
-0.111172
-0.0843485
-0.0633906
-0.0469957
-0.0341617
-0.0241357
-0.0163496
-0.0103808
-0.00591951
-0.0027431
-0.000695222
0.000321228
-0.00744113
-0.00847076
-0.010552
-0.0137722
-0.0182692
-0.0242365
-0.0319374
-0.0417209
-0.0540383
-0.0694589
-0.088675
-0.112397
-0.140895
-0.167902
-0.207561
-0.244425
-0.277588
-0.298407
-0.30845
-0.310671
-0.310483
-0.310571
-0.30684
-0.294197
-0.270601
-0.226247
-0.188584
-0.140897
-0.112399
-0.0886765
-0.0694602
-0.0540395
-0.0417219
-0.0319382
-0.0242372
-0.0182699
-0.0137728
-0.0105525
-0.00847128
-0.00744163
-0.0133146
-0.0142909
-0.0162722
-0.0193295
-0.0235716
-0.0291504
-0.0362687
-0.0451883
-0.0562361
-0.0697994
-0.0863096
-0.106237
-0.130045
-0.156844
-0.17877
-0.205502
-0.227189
-0.239484
-0.243593
-0.243711
-0.243366
-0.243842
-0.243094
-0.237373
-0.215949
-0.192981
-0.156846
-0.130047
-0.106239
-0.0863114
-0.069801
-0.0562375
-0.0451894
-0.0362697
-0.0291513
-0.0235724
-0.0193301
-0.0162728
-0.0142915
-0.0133152
-0.0173524
-0.0182268
-0.0200098
-0.0227537
-0.0265356
-0.0314626
-0.0376753
-0.0453505
-0.0547007
-0.0659621
-0.0793585
-0.09502
-0.11276
-0.131401
-0.151083
-0.168001
-0.182255
-0.188096
-0.188167
-0.186268
-0.18545
-0.186738
-0.188475
-0.187346
-0.174026
-0.16048
-0.131404
-0.112763
-0.0950223
-0.0793605
-0.0659638
-0.0547022
-0.0453518
-0.0376764
-0.0314635
-0.0265364
-0.0227544
-0.0200105
-0.0182274
-0.017353
-0.0197241
-0.0204666
-0.0219904
-0.0243291
-0.0275297
-0.0316578
-0.0367978
-0.043052
-0.0505368
-0.0593699
-0.0696306
-0.0812629
-0.0938944
-0.106647
-0.122182
-0.132544
-0.141625
-0.143123
-0.140596
-0.137383
-0.136239
-0.13808
-0.141422
-0.143264
-0.135673
-0.128217
-0.10665
-0.0938973
-0.0812654
-0.0696327
-0.0593717
-0.0505383
-0.0430533
-0.0367989
-0.0316587
-0.0275305
-0.0243298
-0.0219911
-0.0204672
-0.0197247
-0.0206793
-0.0212776
-0.0225153
-0.0244098
-0.0269825
-0.0302643
-0.0342938
-0.0391144
-0.0447698
-0.051294
-0.0586825
-0.0668058
-0.0752368
-0.0832211
-0.0948979
-0.100406
-0.105755
-0.104328
-0.100284
-0.0964135
-0.0951251
-0.0972169
-0.101394
-0.105033
-0.101507
-0.0983492
-0.0832248
-0.0752399
-0.0668084
-0.0586847
-0.0512958
-0.0447713
-0.0391156
-0.0342948
-0.0302652
-0.0269832
-0.0244105
-0.022516
-0.0212782
-0.0206799
-0.0205106
-0.0209664
-0.0219192
-0.0233733
-0.0253306
-0.0277954
-0.0307716
-0.0342594
-0.03825
-0.042718
-0.0476046
-0.0527531
-0.0577014
-0.0614828
-0.0706441
-0.0724929
-0.0746914
-0.0716462
-0.0669448
-0.0630262
-0.0618589
-0.0640638
-0.0685413
-0.0731133
-0.0711591
-0.072394
-0.0614865
-0.0577045
-0.0527556
-0.0476066
-0.0427196
-0.0382514
-0.0342605
-0.0307725
-0.0277962
-0.0253313
-0.0233739
-0.0219197
-0.0209669
-0.0205111
-0.0195181
-0.0198433
-0.020533
-0.0215821
-0.0229788
-0.024709
-0.0267531
-0.0290826
-0.0316558
-0.0344104
-0.0372521
-0.0400253
-0.042437
-0.0440355
-0.0446373
-0.0496336
-0.0464546
-0.0422249
-0.0375239
-0.0341144
-0.0333735
-0.0356134
-0.0398975
-0.0445615
-0.0481954
-0.0446411
-0.0440387
-0.0424397
-0.0400274
-0.0372538
-0.0344117
-0.0316569
-0.0290835
-0.0267538
-0.0247096
-0.0229793
-0.0215826
-0.0205334
-0.0198437
-0.0195185
-0.0179811
-0.0181942
-0.0186558
-0.0193551
-0.0202721
-0.0213819
-0.0226514
-0.0240368
-0.02548
-0.026904
-0.0282061
-0.0292452
-0.0298084
-0.0295814
-0.0283757
-0.0260698
-0.0223691
-0.0179524
-0.0139991
-0.01165
-0.0116507
-0.014001
-0.0179551
-0.0223723
-0.026073
-0.0283786
-0.0295838
-0.0298104
-0.0292467
-0.0282072
-0.0269049
-0.0254807
-0.0240374
-0.0226519
-0.0213823
-0.0202724
-0.0193554
-0.0186561
-0.0181944
-0.0179813
-0.016139
-0.0162614
-0.0165365
-0.0169507
-0.0174806
-0.0180968
-0.0187613
-0.0194252
-0.0200275
-0.0204923
-0.020727
-0.0206175
-0.0200199
-0.0187607
-0.0167456
-0.0139157
-0.0103643
-0.00662824
-0.00346187
-0.00162987
-0.00163024
-0.00346289
-0.00662974
-0.010366
-0.0139175
-0.0167472
-0.0187621
-0.0200209
-0.0206183
-0.0207276
-0.0204928
-0.0200278
-0.0194255
-0.0187616
-0.018097
-0.0174807
-0.0169508
-0.0165366
-0.0162615
-0.0161391
-0.0141817
-0.014235
-0.0143661
-0.0145609
-0.0147963
-0.0150431
-0.0152641
-0.0154131
-0.0154347
-0.0152639
-0.0148272
-0.0140432
-0.0128258
-0.0110926
-0.0088125
-0.00600684
-0.00285995
0.000245967
0.00278629
0.00422869
0.0042286
0.00278602
0.000245556
-0.00286043
-0.00600731
-0.00881291
-0.0110929
-0.012826
-0.0140433
-0.0148272
-0.015264
-0.0154347
-0.0154131
-0.015264
-0.0150431
-0.0147963
-0.0145609
-0.0143661
-0.0142349
-0.0141816
-0.0122478
-0.0122518
-0.0122784
-0.0123146
-0.0123396
-0.0123275
-0.0122457
-0.012055
-0.01171
-0.0111604
-0.0103536
-0.00923814
-0.00776978
-0.00592132
-0.00370781
-0.00119762
0.00144094
0.00392741
0.00589779
0.00699557
0.00699564
0.00589799
0.00392769
0.00144128
-0.00119725
-0.00370742
-0.00592093
-0.00776939
-0.00923778
-0.0103533
-0.0111601
-0.0117097
-0.0120548
-0.0122455
-0.0123273
-0.0123394
-0.0123144
-0.0122783
-0.0122516
-0.0122477
-0.0104297
-0.0104011
-0.0103572
-0.0102866
-0.0101723
-0.00999294
-0.00972242
-0.00933001
-0.00878174
-0.00804221
-0.00707768
-0.00586048
-0.00437509
-0.00262651
-0.00065403
0.00146109
0.00357868
0.00549611
0.00697115
0.00777798
0.00777812
0.00697154
0.00549671
0.0035794
0.00146188
-0.000653218
-0.00262572
-0.00437435
-0.0058598
-0.00707707
-0.00804166
-0.00878124
-0.00932957
-0.00972202
-0.00999258
-0.0101719
-0.0102863
-0.0103569
-0.0104009
-0.0104294
-0.00878074
-0.00873316
-0.00864595
-0.00851016
-0.00831272
-0.00803741
-0.00766468
-0.00717238
-0.0065372
-0.00573672
-0.00475245
-0.00357383
-0.00220329
-0.000662052
0.00100284
0.00271501
0.00436402
0.00580808
0.00689082
0.0074736
0.00747375
0.00689124
0.00580873
0.00436484
0.00271592
0.00100378
-0.000661117
-0.0022024
-0.003573
-0.0047517
-0.00573604
-0.00653658
-0.00717183
-0.00766417
-0.00803695
-0.0083123
-0.00850977
-0.00864557
-0.00873279
-0.00878038
-0.0073253
-0.00726862
-0.0071588
-0.00698916
-0.00675042
-0.00643109
-0.00601764
-0.00549542
-0.00485
-0.00406913
-0.00314533
-0.0020791
-0.000882515
0.000417246
0.0017748
0.00312588
0.00438758
0.00546304
0.0062526
0.00667194
0.00667207
0.00625299
0.00546364
0.00438835
0.00312675
0.00177572
0.000418171
-0.000881619
-0.00207825
-0.00314454
-0.0040684
-0.00484933
-0.00549482
-0.00601709
-0.00643057
-0.00674994
-0.00698871
-0.00715836
-0.0072682
-0.00732488
-0.00606692
-0.00600805
-0.00589024
-0.0057089
-0.00545797
-0.00512999
-0.0047164
-0.00420849
-0.0035986
-0.00288174
-0.00205759
-0.00113286
-0.000123566
0.000943036
0.00202753
0.00307906
0.0040373
0.00483675
0.00541386
0.00571707
0.00571718
0.00541418
0.00483726
0.00403796
0.00307981
0.00202835
0.000943875
-0.000122736
-0.00113206
-0.00205684
-0.00288103
-0.00359794
-0.00420787
-0.00471582
-0.00512945
-0.00545747
-0.00570842
-0.00588978
-0.0060076
-0.00606648
-0.00499607
-0.00493936
-0.00482322
-0.00464473
-0.00440042
-0.00408597
-0.00369661
-0.00322804
-0.00267733
-0.00204421
-0.00133252
-0.000551753
0.00028154
0.00114294
0.00200019
0.00281444
0.00354243
0.00413972
0.00456528
0.00478699
0.00478708
0.00456554
0.00414013
0.00354296
0.00281508
0.00200088
0.00114366
0.000282273
-0.000551033
-0.00133182
-0.00204355
-0.0026767
-0.00322744
-0.00369605
-0.00408543
-0.00439991
-0.00464423
-0.00482274
-0.0049389
-0.00499561
-0.00409585
-0.00404376
-0.00393507
-0.00376817
-0.0035415
-0.00325301
-0.00290066
-0.00248316
-0.00200066
-0.00145566
-0.000854034
-0.000205964
0.000473282
0.00116311
0.00183806
0.00246897
0.00302485
0.00347522
0.00379297
0.00395748
0.00395755
0.00379318
0.00347555
0.00302528
0.00246949
0.00183864
0.00116373
0.000473913
-0.000205332
-0.000853412
-0.00145506
-0.00200008
-0.0024826
-0.00290013
-0.00325249
-0.003541
-0.00376769
-0.0039346
-0.0040433
-0.00409539
-0.00334612
-0.00329978
-0.00320158
-0.00305083
-0.0028473
-0.00259048
-0.00228017
-0.00191697
-0.00150286
-0.00104176
-0.00054022
-7.9569e-06
0.000541771
0.0010922
0.00162359
0.0021142
0.00254173
0.00288488
0.00312524
0.00324912
0.00324917
0.00312541
0.00288515
0.00254208
0.00211463
0.00162407
0.00109272
0.000542309
-7.40948e-06
-0.000539673
-0.00104122
-0.00150233
-0.00191646
-0.00227967
-0.00259
-0.00284682
-0.00305037
-0.00320112
-0.00329933
-0.00334568
-0.0027262
-0.0026859
-0.00259935
-0.00246651
-0.00228796
-0.00206421
-0.00179616
-0.00148552
-0.00113519
-0.00074965
-0.000335344
9.90129e-05
0.000542295
0.000981109
0.00140027
0.00178357
0.00211478
0.00237877
0.0025627
0.00265718
0.00265722
0.00256283
0.00237898
0.00211506
0.00178392
0.00140067
0.000981541
0.000542751
9.94842e-05
-0.000334866
-0.000749172
-0.00113471
-0.00148505
-0.0017957
-0.00206376
-0.00228752
-0.00246607
-0.00259891
-0.00268547
-0.00272577
-0.00221642
-0.00218194
-0.00210705
-0.00199211
-0.00183816
-0.00164629
-0.00141801
-0.00115558
-0.000862257
-0.000542538
-0.000202359
0.000150737
0.00050759
0.000857593
0.00118908
0.00148991
0.00174815
0.00195287
0.00209493
0.00216772
0.00216776
0.00209504
0.00195305
0.00174838
0.0014902
0.00118941
0.000857956
0.000507978
0.000151143
-0.000201942
-0.000542116
-0.000861833
-0.00115515
-0.00141759
-0.00164588
-0.00183775
-0.0019917
-0.00210665
-0.00218153
-0.00221602
-0.00179898
-0.00176985
-0.00170597
-0.00160787
-0.00147687
-0.00131431
-0.00112197
-0.000902307
-0.000658585
-0.000395011
-0.000116853
0.000169503
0.000456593
0.000736045
0.00099888
0.00123593
0.00143835
0.00159812
0.00170864
0.00176515
0.00176518
0.00170873
0.00159827
0.00143854
0.00123617
0.000999156
0.000736352
0.000456924
0.000169852
-0.000116491
-0.00039464
-0.000658209
-0.000901928
-0.00112159
-0.00131393
-0.00147649
-0.0016075
-0.00170559
-0.00176948
-0.0017986
-0.00145826
-0.00143391
-0.00138001
-0.0012972
-0.00118685
-0.0010504
-0.000889695
-0.000707139
-0.000505802
-0.000289471
-6.27042e-05
0.000169166
0.000400095
0.000623472
0.000832359
0.00101979
0.00117914
0.00130447
0.00139093
0.00143507
0.0014351
0.001391
0.00130459
0.0011793
0.00101999
0.000832591
0.000623732
0.000400378
0.000169468
-6.23882e-05
-0.000289145
-0.000505468
-0.0007068
-0.000889352
-0.00105006
-0.00118651
-0.00129685
-0.00137966
-0.00143357
-0.00145791
-0.00118086
-0.00116068
-0.00111561
-0.0010463
-0.000954105
-0.000840425
-0.000707027
-0.00055616
-0.000390591
-0.00021364
-2.91831e-05
0.000158367
0.000344129
0.000522878
0.000689228
0.000837853
0.000963743
0.00106247
0.00113042
0.00116507
0.00116509
0.00113048
0.00106256
0.000963878
0.000838021
0.000689425
0.0005231
0.000344372
0.000158629
-2.89069e-05
-0.000213353
-0.000390295
-0.000555856
-0.000706719
-0.000840113
-0.00095379
-0.00104599
-0.00111529
-0.00116037
-0.00118054
-0.000955459
-0.000938859
-0.000901436
-0.000843839
-0.000767309
-0.000673163
-0.000563021
-0.000438901
-0.00030324
-0.00015889
-9.10856e-06
0.000142475
0.000291926
0.000435109
0.000567822
0.000685968
0.000785731
0.000863769
0.000917388
0.000944694
0.000944711
0.000917438
0.000863852
0.000785845
0.00068611
0.00056799
0.0004353
0.000292137
0.000142703
-8.86648e-06
-0.000158636
-0.000302977
-0.00043863
-0.000562744
-0.000672882
-0.000767024
-0.000843552
-0.000901147
-0.000938569
-0.000955167
-0.000772587
-0.000759016
-0.000728132
-0.000680535
-0.00061735
-0.00053976
-0.000449207
-0.000347464
-0.000236633
-0.00011913
2.33025e-06
0.000124777
0.000245041
0.000359842
0.000465891
0.000560013
0.000639285
0.000701164
0.000743614
0.000765213
0.000765227
0.000743657
0.000701235
0.000639382
0.000560135
0.000466035
0.000360008
0.000245225
0.000124976
2.54306e-06
-0.000118906
-0.000236399
-0.000347222
-0.000448959
-0.000539506
-0.000617092
-0.000680275
-0.000727868
-0.000758751
-0.000772322
-0.000624401
-0.000613362
-0.000587998
-0.000548849
-0.000496908
-0.000433216
-0.000359029
-0.000275874
-0.00018554
-9.00549e-05
8.33623e-06
0.000107209
0.000204014
0.000296141
0.000381005
0.000456136
0.000519276
0.000568477
0.000602186
0.000619324
0.000619336
0.000602223
0.000568538
0.00051936
0.000456242
0.000381131
0.000296285
0.000204174
0.000107384
8.52385e-06
-8.98561e-05
-0.000185332
-0.000275658
-0.000358806
-0.000432987
-0.000496675
-0.000548613
-0.00058776
-0.000613121
-0.00062416
-0.000504435
-0.000495493
-0.000474746
-0.000442668
-0.000400121
-0.000348006
-0.0002874
-0.0002196
-0.000146112
-6.86235e-05
1.10163e-05
9.08352e-05
0.00016878
0.000242774
0.000310775
0.000370852
0.00042125
0.000460464
0.000487303
0.000500939
0.00050095
0.000487335
0.000460517
0.000421322
0.000370943
0.000310885
0.000242899
0.000168921
9.09891e-05
1.11822e-05
-6.84471e-05
-0.000145926
-0.000219407
-0.0002872
-0.000347801
-0.000399912
-0.000442455
-0.00047453
-0.000495275
-0.000504217
-0.000407388
-0.000400168
-0.000383252
-0.000357049
-0.000322299
-0.000279769
-0.000230371
-0.000175198
-0.000115504
-5.26888e-05
1.17343e-05
7.61624e-05
0.000138943
0.000198418
0.000252972
0.000301085
0.000341387
0.000372708
0.000394126
0.000405003
0.000405012
0.000394154
0.000372754
0.00034145
0.000301165
0.000253067
0.000198528
0.000139067
7.62984e-05
1.18813e-05
-5.2532e-05
-0.000115339
-0.000175025
-0.000230192
-0.000279584
-0.00032211
-0.000356856
-0.000383057
-0.000399971
-0.00040719
-0.000328926
-0.000323111
-0.000309353
-0.000288004
-0.000259689
-0.000225055
-0.000184869
-0.000140041
-9.1612e-05
-4.07336e-05
1.13564e-05
6.33581e-05
0.000113941
0.000161779
0.00020559
0.000244174
0.000276455
0.000301518
0.000318644
0.000327337
0.000327345
0.000318668
0.000301558
0.00027651
0.000244244
0.000205674
0.000161877
0.00011405
6.34785e-05
1.1487e-05
-4.05939e-05
-9.14643e-05
-0.000139886
-0.000184708
-0.00022489
-0.000259519
-0.00028783
-0.000309178
-0.000322933
-0.000328747
-0.000265518
-0.000260843
-0.000249678
-0.000232318
-0.00020929
-0.000181137
-0.000148493
-0.000112117
-7.28653e-05
-3.16831e-05
1.04202e-05
5.23914e-05
9.3159e-05
0.000131661
0.000166877
0.000197854
0.000223746
0.000243832
0.00025755
0.000264511
0.000264518
0.000257571
0.000243867
0.000223795
0.000197916
0.000166951
0.000131747
9.32558e-05
5.24984e-05
1.05365e-05
-3.15585e-05
-7.27333e-05
-0.000111978
-0.000148349
-0.000180988
-0.000209137
-0.000232161
-0.000249519
-0.000260683
-0.000265357
-0.000214294
-0.00021054
-0.000201493
-0.0001874
-0.000168702
-0.000145848
-0.000119365
-8.98764e-05
-5.80882e-05
-2.47721e-05
9.25023e-06
4.3126e-05
7.59918e-05
0.000106996
0.000135324
0.00016022
0.000181011
0.00019713
0.000208133
0.000213716
0.000213722
0.000208152
0.000197161
0.000181054
0.000160275
0.00013539
0.000107073
7.60778e-05
4.32212e-05
9.35383e-06
-2.46609e-05
-5.79702e-05
-8.97523e-05
-0.000119235
-0.000145714
-0.000168564
-0.000187259
-0.00020135
-0.000210396
-0.000214149
-0.000172924
-0.000169912
-0.000162589
-0.000151164
-0.000136
-0.000117469
-9.60057e-05
-7.2121e-05
-4.63933e-05
-1.94522e-05
8.03459e-06
3.53769e-05
6.18789e-05
8.68572e-05
0.00010966
0.000129684
0.000146396
0.000159345
0.000168182
0.000172664
0.000172669
0.000168198
0.000159373
0.000146434
0.000129732
0.000109718
8.6925e-05
6.19555e-05
3.54618e-05
8.12706e-06
-1.93528e-05
-4.62876e-05
-7.20097e-05
-9.58895e-05
-0.000117349
-0.000135877
-0.000151037
-0.000162461
-0.000169782
-0.000172793
-0.000139518
-0.000137102
-0.000131182
-0.000121928
-0.000109643
-9.4632e-05
-7.72502e-05
-5.79174e-05
-3.71054e-05
-1.53269e-05
6.87621e-06
2.89457e-05
5.03205e-05
7.04514e-05
8.88161e-05
0.000104933
0.000118377
0.00012879
0.000135893
0.000139496
0.000139501
0.000135908
0.000128814
0.000118411
0.000104976
8.8868e-05
7.05118e-05
5.03888e-05
2.90214e-05
6.95885e-06
-1.5238e-05
-3.70107e-05
-5.78177e-05
-7.7146e-05
-9.4524e-05
-0.000109532
-0.000121814
-0.000131066
-0.000136985
-0.0001394
-0.000112547
-0.00011061
-0.000105826
-9.83383e-05
-8.83939e-05
-7.62427e-05
-6.21758e-05
-4.65359e-05
-2.97074e-05
-1.21071e-05
5.82574e-06
2.36396e-05
4.08821e-05
5.71115e-05
7.19086e-05
8.48884e-05
9.57105e-05
0.00010409
0.000109805
0.000112703
0.000112707
0.000109818
0.000104112
9.57407e-05
8.49267e-05
7.19549e-05
5.71653e-05
4.09431e-05
2.37073e-05
5.89966e-06
-1.20275e-05
-2.96226e-05
-4.64465e-05
-6.20823e-05
-7.61456e-05
-8.8294e-05
-9.8236e-05
-0.000105722
-0.000110504
-0.000112441
-9.0774e-05
-8.92203e-05
-8.53579e-05
-7.93025e-05
-7.12579e-05
-6.14278e-05
-5.00498e-05
-3.7403e-05
-2.38002e-05
-9.57963e-06
4.9027e-06
1.92818e-05
3.31928e-05
4.62802e-05
5.82072e-05
6.86651e-05
7.73816e-05
8.41287e-05
8.87293e-05
9.10623e-05
9.10662e-05
8.8741e-05
8.41481e-05
7.74085e-05
6.86993e-05
5.82485e-05
4.63283e-05
3.32474e-05
1.93424e-05
4.96887e-06
-9.50829e-06
-2.37241e-05
-3.73228e-05
-4.99659e-05
-6.13406e-05
-7.11681e-05
-7.92105e-05
-8.52643e-05
-8.91257e-05
-9.06788e-05
-7.31987e-05
-7.19526e-05
-6.8835e-05
-6.39407e-05
-5.74364e-05
-4.94879e-05
-4.02888e-05
-3.00661e-05
-1.90736e-05
-7.58593e-06
4.10882e-06
1.57156e-05
2.69401e-05
3.7496e-05
4.71124e-05
5.55416e-05
6.25652e-05
6.80008e-05
7.17066e-05
7.35858e-05
7.35893e-05
7.1717e-05
6.80181e-05
6.25892e-05
5.55721e-05
4.71493e-05
3.7539e-05
2.69889e-05
1.57699e-05
4.1681e-06
-7.52198e-06
-1.90054e-05
-2.9994e-05
-4.02135e-05
-4.94096e-05
-5.73556e-05
-6.3858e-05
-6.87508e-05
-7.18675e-05
-7.31131e-05
-5.90127e-05
-5.8013e-05
-5.54974e-05
-5.15433e-05
-4.62865e-05
-3.98621e-05
-3.24272e-05
-2.41663e-05
-1.52853e-05
-6.00673e-06
3.43631e-06
1.28054e-05
2.1863e-05
3.03784e-05
3.81337e-05
4.49298e-05
5.05915e-05
5.49722e-05
5.79586e-05
5.9473e-05
5.94761e-05
5.79679e-05
5.49877e-05
5.0613e-05
4.49572e-05
3.81668e-05
3.04169e-05
2.19067e-05
1.2854e-05
3.48944e-06
-5.94938e-06
-1.52241e-05
-2.41016e-05
-3.23595e-05
-3.97917e-05
-4.62139e-05
-5.1469e-05
-5.54218e-05
-5.79365e-05
-5.89358e-05
-4.75631e-05
-4.67608e-05
-4.47314e-05
-4.15378e-05
-3.72908e-05
-3.20998e-05
-2.60926e-05
-1.94186e-05
-1.22449e-05
-4.75152e-06
2.87288e-06
1.04357e-05
1.77453e-05
2.46156e-05
3.08712e-05
3.63519e-05
4.0917e-05
4.44488e-05
4.68563e-05
4.80772e-05
4.808e-05
4.68646e-05
4.44627e-05
4.09362e-05
3.63764e-05
3.09008e-05
2.465e-05
1.77844e-05
1.04792e-05
2.92052e-06
-4.70008e-06
-1.219e-05
-1.93606e-05
-2.60318e-05
-3.20367e-05
-3.72256e-05
-4.14711e-05
-4.46635e-05
-4.66921e-05
-4.74939e-05
-3.83222e-05
-3.76783e-05
-3.60414e-05
-3.34628e-05
-3.00324e-05
-2.58392e-05
-2.09866e-05
-1.55958e-05
-9.80198e-06
-3.75099e-06
2.4047e-06
8.5095e-06
1.44087e-05
1.99523e-05
2.4999e-05
2.94199e-05
3.31016e-05
3.59498e-05
3.78911e-05
3.88757e-05
3.88782e-05
3.78986e-05
3.59622e-05
3.31188e-05
2.94418e-05
2.50255e-05
1.99832e-05
1.44438e-05
8.54853e-06
2.44743e-06
-3.70483e-06
-9.7527e-06
-1.55437e-05
-2.0932e-05
-2.57825e-05
-2.99739e-05
-3.34028e-05
-3.59803e-05
-3.76165e-05
-3.82601e-05
-3.08645e-05
-3.03475e-05
-2.90274e-05
-2.69457e-05
-2.41755e-05
-2.0789e-05
-1.68698e-05
-1.25161e-05
-7.83745e-06
-2.95162e-06
2.01805e-06
6.9459e-06
1.1707e-05
1.61805e-05
2.02524e-05
2.38189e-05
2.67888e-05
2.90862e-05
3.0652e-05
3.14462e-05
3.14485e-05
3.06587e-05
2.90973e-05
2.68043e-05
2.38386e-05
2.02762e-05
1.62082e-05
1.17385e-05
6.98091e-06
2.05639e-06
-2.9102e-06
-7.79321e-06
-1.24694e-05
-1.68208e-05
-2.0738e-05
-2.41229e-05
-2.68917e-05
-2.89724e-05
-3.02919e-05
-3.08086e-05
-2.48459e-05
-2.44308e-05
-2.33662e-05
-2.16859e-05
-1.94493e-05
-1.67148e-05
-1.355e-05
-1.00344e-05
-6.25655e-06
-2.31181e-06
1.7002e-06
5.67798e-06
9.52073e-06
1.31309e-05
1.64166e-05
1.92942e-05
2.16903e-05
2.35437e-05
2.48069e-05
2.54477e-05
2.54497e-05
2.48129e-05
2.35536e-05
2.17041e-05
1.93119e-05
1.64379e-05
1.31557e-05
9.54895e-06
5.7094e-06
1.73461e-06
-2.27463e-06
-6.21682e-06
-9.99236e-06
-1.35059e-05
-1.6669e-05
-1.94021e-05
-2.16375e-05
-2.33168e-05
-2.43808e-05
-2.47957e-05
-1.99891e-05
-1.96556e-05
-1.87971e-05
-1.74411e-05
-1.56355e-05
-1.34277e-05
-1.08724e-05
-8.03386e-06
-4.98371e-06
-1.79899e-06
1.43979e-06
4.65066e-06
7.75224e-06
1.06658e-05
1.33174e-05
1.56394e-05
1.75727e-05
1.90681e-05
2.00874e-05
2.06045e-05
2.06063e-05
2.00927e-05
1.9077e-05
1.75851e-05
1.56552e-05
1.33365e-05
1.06881e-05
7.77757e-06
4.67886e-06
1.47068e-06
-1.7656e-06
-4.94803e-06
-7.99612e-06
-1.08328e-05
-1.33865e-05
-1.5593e-05
-1.73975e-05
-1.87528e-05
-1.96107e-05
-1.9944e-05
-1.60699e-05
-1.58019e-05
-1.51097e-05
-1.40154e-05
-1.2558e-05
-1.07756e-05
-8.71266e-06
-6.42098e-06
-3.95852e-06
-1.38753e-06
1.22696e-06
3.81876e-06
6.32217e-06
8.67368e-06
1.08136e-05
1.26874e-05
1.42475e-05
1.54542e-05
1.62767e-05
1.66941e-05
1.66957e-05
1.62816e-05
1.54622e-05
1.42587e-05
1.27016e-05
1.08307e-05
8.69369e-06
6.34491e-06
3.84408e-06
1.2547e-06
-1.35755e-06
-3.92648e-06
-6.38709e-06
-8.67712e-06
-1.07387e-05
-1.25198e-05
-1.39763e-05
-1.50698e-05
-1.57616e-05
-1.60293e-05
-1.29074e-05
-1.26921e-05
-1.21339e-05
-1.12509e-05
-1.00746e-05
-8.6359e-06
-6.97054e-06
-5.12051e-06
-3.13262e-06
-1.05717e-06
1.05332e-06
3.14539e-06
5.16602e-06
7.06395e-06
8.79099e-06
1.03033e-05
1.15623e-05
1.25362e-05
1.32e-05
1.35369e-05
1.35383e-05
1.32043e-05
1.25433e-05
1.15723e-05
1.0316e-05
8.80639e-06
7.08191e-06
5.18643e-06
3.16813e-06
1.07823e-06
-1.03024e-06
-3.10384e-06
-5.09006e-06
-6.93861e-06
-8.60269e-06
-1.00404e-05
-1.12158e-05
-1.20981e-05
-1.26559e-05
-1.2871e-05
-1.03558e-05
-1.01827e-05
-9.7327e-06
-9.02024e-06
-8.0709e-06
-6.9096e-06
-5.5653e-06
-4.0719e-06
-2.46719e-06
-7.91826e-07
9.11781e-07
2.60047e-06
4.23144e-06
5.76331e-06
7.15721e-06
8.37775e-06
9.39391e-06
1.01799e-05
1.07157e-05
1.09876e-05
1.09889e-05
1.07195e-05
1.01863e-05
9.40288e-06
8.38918e-06
7.17104e-06
5.77944e-06
4.24977e-06
2.62089e-06
9.34154e-07
-7.67638e-07
-2.44134e-06
-4.04454e-06
-5.53662e-06
-6.87976e-06
-8.04008e-06
-8.98865e-06
-9.70053e-06
-1.01502e-05
-1.03231e-05
-8.29723e-06
-8.15808e-06
-7.79522e-06
-7.22038e-06
-6.45425e-06
-5.51695e-06
-4.43187e-06
-3.2264e-06
-1.93107e-06
-5.78696e-07
7.96452e-07
2.15953e-06
3.47599e-06
4.71244e-06
5.8375e-06
6.82262e-06
7.64279e-06
8.27717e-06
8.70965e-06
8.92926e-06
8.93042e-06
8.71314e-06
8.28296e-06
7.65084e-06
6.83289e-06
5.84992e-06
4.72692e-06
3.49246e-06
2.17787e-06
8.16549e-07
-5.56966e-07
-1.90784e-06
-3.20182e-06
-4.4061e-06
-5.49014e-06
-6.42656e-06
-7.19199e-06
-7.76631e-06
-8.12882e-06
-8.26782e-06
-6.63655e-06
-6.52466e-06
-6.23209e-06
-5.76831e-06
-5.15005e-06
-4.39358e-06
-3.51777e-06
-2.54475e-06
-1.49917e-06
-4.07549e-07
7.02458e-07
1.80271e-06
2.86532e-06
3.86334e-06
4.77144e-06
5.56659e-06
6.22859e-06
6.74066e-06
7.08978e-06
7.26711e-06
7.26816e-06
7.09292e-06
6.74586e-06
6.23583e-06
5.57581e-06
4.78259e-06
3.87635e-06
2.88011e-06
1.81919e-06
7.20514e-07
-3.88025e-07
-1.4783e-06
-2.52266e-06
-3.49461e-06
-4.36948e-06
-5.12517e-06
-5.7428e-06
-6.20611e-06
-6.49837e-06
-6.61011e-06
-5.29703e-06
-5.20706e-06
-4.97117e-06
-4.597e-06
-4.09808e-06
-3.48756e-06
-2.78068e-06
-1.9953e-06
-1.15134e-06
-2.70196e-07
6.25789e-07
1.5139e-06
2.37163e-06
3.17721e-06
3.91021e-06
4.55204e-06
5.08642e-06
5.49977e-06
5.78163e-06
5.92484e-06
5.92578e-06
5.78445e-06
5.50445e-06
5.09292e-06
4.56033e-06
3.92023e-06
3.1889e-06
2.38492e-06
1.52871e-06
6.42014e-07
-2.52652e-07
-1.13258e-06
-1.97545e-06
-2.75987e-06
-3.46591e-06
-4.07572e-06
-4.57407e-06
-4.94781e-06
-5.18343e-06
-5.27326e-06
-4.21674e-06
-4.14439e-06
-3.95419e-06
-3.65231e-06
-3.24971e-06
-2.75699e-06
-2.18646e-06
-1.55254e-06
-8.7132e-07
-1.60073e-07
5.63164e-07
1.28005e-06
1.97241e-06
2.62268e-06
3.21437e-06
3.73247e-06
4.16385e-06
4.49754e-06
4.72511e-06
4.84077e-06
4.84162e-06
4.72764e-06
4.50174e-06
4.16969e-06
3.73992e-06
3.22338e-06
2.63319e-06
1.98435e-06
1.29336e-06
5.77745e-07
-1.44305e-07
-8.54464e-07
-1.5347e-06
-2.16775e-06
-2.73753e-06
-3.22961e-06
-3.6317e-06
-3.93319e-06
-4.12315e-06
-4.19538e-06
-3.34568e-06
-3.2875e-06
-3.13414e-06
-2.89059e-06
-2.56571e-06
-2.16806e-06
-1.70757e-06
-1.1959e-06
-6.46026e-07
-7.19044e-08
5.11905e-07
1.0906e-06
1.64949e-06
2.17442e-06
2.65206e-06
3.07031e-06
3.41855e-06
3.68797e-06
3.87171e-06
3.96515e-06
3.96591e-06
3.87399e-06
3.69174e-06
3.4238e-06
3.077e-06
2.66016e-06
2.18386e-06
1.66023e-06
1.10255e-06
5.25011e-07
-5.7731e-08
-6.30874e-07
-1.17986e-06
-1.69075e-06
-2.15056e-06
-2.54764e-06
-2.87206e-06
-3.11526e-06
-3.2684e-06