/*--------------------------------*- C++ -*----------------------------------*\
  =========                 |
  \\      /  F ield         | OpenFOAM: The Open Source CFD Toolbox
   \\    /   O peration     | Website:  https://openfoam.org
    \\  /    A nd           | Version:  6
     \\/     M anipulation  |
\*---------------------------------------------------------------------------*/
FoamFile
{
    version     2.0;
    format      ascii;
    class       volVectorField;
    location    "0";
    object      U;
}
// * * * * * * * * * * * * * * * * * * * * * * * * * * * * * * * * * * * * * //

dimensions      [0 1 -1 0 0 0 0];

internalField   nonuniform List<vector> 
13046
(
(-0.704227 0.339108 0)
(-0.776649 -0.205602 -9.62587e-21)
(-0.179311 -0.0997628 -2.0297e-20)
(-0.645753 0.204421 0)
(-0.174071 0.009681 -1.87095e-20)
(-0.633317 -0.218401 0)
(-0.72542 0.242165 2.8487e-21)
(-0.711774 -0.275963 4.85421e-21)
(-0.137275 0.0251973 -2.03545e-20)
(-1.51019 0.707487 7.03032e-21)
(-1.55617 -0.663624 0)
(0.111224 0.00357947 1.24947e-20)
(-0.918221 0.412972 -8.97109e-21)
(-0.94374 -0.323742 -1.4669e-20)
(-0.0701213 -0.0559651 1.08159e-20)
(-1.45342 0.806913 -9.69321e-21)
(0.0665997 -0.0110737 2.99448e-20)
(-1.61879 -0.548207 5.61462e-21)
(-0.329615 0.132714 0)
(-0.436332 -0.181067 -1.02802e-20)
(-0.587242 0.0478839 2.99248e-20)
(-1.46813 0.79392 -3.88612e-21)
(0.0824578 -0.00421701 -4.00031e-20)
(-1.60771 -0.573667 0)
(-0.575818 0.220042 1.18838e-20)
(-0.629918 -0.153014 -2.36964e-20)
(-0.212392 -0.0630329 0)
(-0.934252 0.458622 -1.6127e-20)
(-0.984977 -0.320901 4.31655e-21)
(-0.0750954 -0.0779237 -1.89832e-20)
(-0.725421 0.370674 0)
(-0.816345 -0.185835 0)
(-0.194632 -0.128962 2.06582e-20)
(-0.503154 0.170206 -1.38017e-20)
(-0.249806 -0.0605436 7.05098e-21)
(-0.562733 -0.108295 4.13147e-20)
(-0.486351 0.134705 -2.12994e-20)
(-0.263953 -0.0275817 1.08035e-20)
(-0.518266 -0.103952 -2.11902e-20)
(-0.581161 0.365971 1.46925e-20)
(-0.444068 -0.306105 3.70229e-21)
(-0.838271 -0.0463977 -1.45815e-20)
(-0.435275 0.0312972 9.64422e-21)
(-0.34272 0.0182512 1.63272e-20)
(-0.40209 -0.054855 0)
(-0.481702 0.0445431 6.15027e-21)
(-0.313848 0.0508775 -2.51073e-20)
(-0.412628 -0.0958615 -3.12801e-21)
(-0.737682 0.331727 0)
(-0.789072 -0.238773 -6.84961e-22)
(-0.13449 -0.070595 -8.95528e-23)
(-0.735703 -0.514342 2.28165e-20)
(-0.49866 0.380495 0)
(-1.01039 0.0740675 -1.73562e-20)
(-0.832661 -0.573788 -3.25359e-20)
(-1.06639 0.1158 -2.76528e-20)
(-0.438302 0.346822 2.21341e-20)
(-1.43316 -0.325593 -3.04731e-21)
(-1.23663 0.808037 0)
(-0.179109 -0.184548 1.66369e-20)
(-1.20516 0.428562 -8.43648e-21)
(-1.15722 -0.568478 8.27219e-21)
(-0.00543704 0.0609794 -4.5116e-20)
(0.102361 -0.00599105 2.30921e-20)
(-1.50799 -0.626073 -4.5863e-21)
(-1.47551 0.682276 -1.23156e-20)
(-1.17477 0.799343 0)
(-1.37435 -0.265375 0)
(-0.253393 -0.242981 0)
(-1.12067 0.762346 -6.16573e-21)
(-1.3198 -0.243971 0)
(-0.276368 -0.258598 1.32998e-20)
(-1.49017 -0.338703 0)
(-1.28366 0.837993 2.12727e-22)
(-0.157775 -0.174734 -6.62669e-23)
(-0.366067 0.168214 0)
(-0.42755 -0.203946 1.10556e-20)
(-0.628469 0.0183438 -2.1314e-20)
(-0.0678427 -0.106288 1.82671e-20)
(-1.3503 0.848091 -1.8028e-20)
(-1.54953 -0.410352 0)
(-0.627285 0.238394 6.24605e-21)
(-0.657864 -0.186443 0)
(-0.178033 -0.0357285 0)
(0.106829 -0.00404542 -2.06697e-20)
(-1.53672 -0.63456 -3.32906e-21)
(-1.50023 0.702416 7.2733e-21)
(-1.53325 0.560717 -1.29861e-20)
(0.0781091 0.0259479 0)
(-1.44377 -0.742438 -3.59511e-21)
(-0.0225204 0.0669363 0)
(-1.61985 0.446281 0)
(-1.39965 -0.866829 4.49718e-22)
(-1.23535 0.594814 0)
(-1.29596 0.604444 7.39154e-21)
(-1.28349 -0.482351 1.59066e-20)
(-1.33209 -0.53004 -7.42686e-21)
(0.0288134 -0.0408009 -9.61229e-21)
(0.0546222 -0.0212619 2.47716e-20)
(0.0545714 0.0383338 -1.16685e-21)
(-1.52716 0.529784 1.27096e-20)
(-1.41457 -0.763763 0)
(-0.523651 0.0853708 -3.98676e-23)
(-0.275066 0.0484142 1.30404e-20)
(-0.463726 -0.138819 0)
(-0.306846 0.251653 0)
(-0.967219 0.162776 -8.65206e-21)
(-0.802286 -0.491242 0)
(-0.482751 0.350326 2.51256e-20)
(-0.640996 -0.427594 0)
(-0.913704 0.0432181 -3.31805e-20)
(-1.40091 0.67234 0)
(0.0878257 0.00503384 0)
(-1.42789 -0.650714 -2.69709e-21)
(-0.836985 0.370569 2.47927e-20)
(-0.875964 -0.286856 6.3141e-21)
(-0.0914149 -0.0492178 1.99497e-20)
(-1.30364 0.689206 9.42494e-21)
(-1.24344 0.643414 -1.78532e-20)
(-1.39212 -0.474019 -1.34093e-20)
(0.0166346 -0.0613842 1.10499e-20)
(-1.31828 -0.452759 7.92596e-21)
(0.00793816 -0.063081 -1.03214e-20)
(-1.48995 0.717355 -5.25697e-21)
(-1.55123 -0.654405 -5.12775e-21)
(0.106915 0.0068897 -5.58737e-21)
(-1.10025 0.54399 0)
(-1.15 -0.404814 -1.0961e-20)
(-0.0205441 -0.0689221 2.29546e-20)
(-0.647667 0.396888 0)
(-0.37764 -0.270672 -1.86746e-20)
(-0.855439 -0.0903833 8.21331e-22)
(-0.0437159 0.0863325 0)
(-1.58188 0.426252 0)
(-1.37602 -0.849337 0)
(-1.40267 0.605811 0)
(-1.40308 -0.616976 -1.96258e-20)
(0.083789 0.00432723 -2.63646e-20)
(-0.799693 0.408724 0)
(-0.881598 -0.2212 0)
(-0.170792 -0.136645 0)
(-0.934959 0.287245 0)
(-0.8813 -0.43075 0)
(-0.110051 0.0895184 0)
(-0.449856 0.338868 0)
(-0.711761 -0.472004 0)
(-0.951634 0.0773489 1.7882e-20)
(-0.301023 0.233899 -2.59471e-21)
(-0.927391 0.157356 -1.8763e-20)
(-0.777039 -0.462849 2.05272e-20)
(-1.25743 0.462062 1.93219e-20)
(-1.21031 -0.585421 0)
(0.0215771 0.0424596 5.85997e-20)
(-0.230434 0.152409 0)
(-0.805955 0.168205 2.03397e-20)
(-0.693044 -0.363312 -5.28664e-21)
(-0.995475 -0.648901 0)
(-1.16858 0.21812 1.95966e-20)
(-1.07315 -0.678771 0)
(-1.22974 0.27013 1.12329e-20)
(-0.293011 0.262151 0)
(-0.222618 0.216647 0)
(-0.968418 0.238037 2.58387e-21)
(-0.866385 -0.476396 1.082e-20)
(-0.172958 0.146779 -1.12907e-20)
(-1.54103 0.684015 -7.2303e-21)
(0.113353 0.000909154 0)
(-1.52622 -0.694369 -7.25878e-21)
(-1.43658 0.691407 -4.43633e-21)
(0.0957466 0.00908512 -2.56299e-21)
(-1.48819 -0.649683 0)
(-1.42096 0.636921 -1.05232e-20)
(-1.43419 -0.613348 0)
(0.0900894 -0.00315274 2.9969e-20)
(-0.776435 0.5117 0)
(-0.995163 -0.112571 4.5514e-21)
(-0.410053 -0.323088 1.07368e-20)
(-0.920561 0.208052 1.70328e-20)
(-0.212935 0.17602 5.46043e-21)
(-0.810042 -0.44355 0)
(0.106818 0.00155441 0)
(-1.50403 -0.744984 0)
(-1.57963 0.629462 5.9596e-21)
(-0.710665 0.467023 0)
(-0.940533 -0.0853551 -9.96316e-21)
(-0.427829 -0.315251 2.81159e-21)
(-0.237198 0.173483 0)
(-0.833911 0.165237 0)
(-0.709914 -0.387327 0)
(-0.871363 0.251959 8.44239e-21)
(-0.819345 -0.394928 0)
(-0.124738 0.0844478 0)
(-1.02117 -0.394942 -2.96677e-23)
(-0.0283768 -0.0250292 -1.34728e-20)
(-1.04636 0.502182 2.55366e-20)
(-1.09391 -0.381572 0)
(-0.031739 -0.061058 -2.87662e-20)
(-1.53714 0.633299 -1.29486e-20)
(0.105876 0.00760063 1.87135e-20)
(-1.50149 -0.705838 -1.64485e-20)
(-0.00588922 0.0734085 1.70607e-20)
(-1.53291 0.460274 8.11759e-21)
(-1.37617 -0.805369 1.79798e-20)
(-1.59995 0.506979 -2.13604e-20)
(-1.4361 -0.809541 0)
(0.0403389 0.0386425 -1.67668e-20)
(-0.782911 -0.57857 -1.15821e-21)
(-1.10387 0.0595115 7.70195e-21)
(-0.585985 0.466314 0)
(-0.870867 0.322554 -3.79756e-20)
(-1.33075 0.862571 9.33799e-21)
(-0.102446 -0.126445 -1.12472e-20)
(-1.55355 -0.396368 0)
(-1.45207 -0.810107 0)
(-1.61031 0.54176 -1.81951e-20)
(0.0600998 0.0217973 0)
(-0.531885 0.131477 -3.10286e-20)
(-0.240727 0.0134765 -1.06089e-20)
(-0.517657 -0.146201 3.10905e-20)
(-0.899169 0.466222 0)
(-0.970306 -0.287979 -6.25759e-22)
(-0.118163 -0.106466 -1.10562e-20)
(-0.0350061 0.087812 1.30969e-20)
(-1.5441 0.440121 0)
(-1.36273 -0.827751 -2.07329e-20)
(-0.937402 0.359885 3.03726e-20)
(-0.994203 -0.405333 2.63855e-20)
(-0.0329155 -0.00546214 0)
(0.105143 -0.00326583 0)
(-1.47155 -0.701513 5.25379e-21)
(-1.51623 0.665195 0)
(-0.51995 0.419439 0)
(-1.12476 0.0902565 0)
(-0.841248 -0.617784 0)
(-1.5631 0.502091 1.87238e-20)
(-1.41734 -0.789407 0)
(0.0362576 0.0452581 -6.56041e-23)
(-1.09436 0.255269 7.44317e-21)
(-0.970946 -0.576806 -8.10081e-21)
(-0.188604 0.181357 0)
(-1.09713 0.57271 0)
(-1.1641 -0.383853 1.02623e-20)
(-0.0439261 -0.0884333 1.80507e-20)
(-1.26804 -0.837733 -2.69599e-20)
(-1.47641 0.330344 -1.49008e-20)
(-0.167566 0.180377 1.0312e-20)
(-1.30185 0.281189 0)
(-1.13261 -0.728394 -1.10105e-20)
(-0.220344 0.216413 -3.76319e-22)
(0.0986067 -0.00969151 -1.64542e-20)
(-1.4387 -0.713119 0)
(-1.52286 0.641696 -4.53405e-21)
(-0.601554 0.423507 1.34368e-20)
(-0.569182 -0.402289 -1.3442e-20)
(-0.943126 -0.015186 1.44635e-21)
(-1.30013 0.712765 4.32146e-21)
(0.0753765 0.0270752 -2.40704e-20)
(-1.45962 -0.567906 0)
(-0.275714 0.0963637 -6.21162e-21)
(-0.590627 0.0844737 -2.41729e-20)
(-0.48484 -0.193056 3.07702e-20)
(-1.11032 0.322223 8.74268e-21)
(-1.06175 0.270696 4.10601e-23)
(-1.02399 -0.553156 -1.9842e-20)
(-0.9547 -0.545484 0)
(-0.158914 0.155913 1.02646e-20)
(-0.0935076 0.115816 -1.06058e-20)
(-0.0338047 -0.0791611 -2.39089e-20)
(-1.38096 0.848228 9.69403e-21)
(-1.59021 -0.433366 -1.45937e-20)
(-1.03803 0.559307 0)
(-1.11789 -0.333668 0)
(-0.0937902 -0.116848 -2.3714e-20)
(-1.36793 0.323692 -3.97447e-21)
(-1.19347 -0.766391 0)
(-0.173297 0.185861 0)
(-1.35952 0.654638 -9.04445e-21)
(-1.40406 -0.541946 0)
(0.0653872 -0.0262214 1.08929e-20)
(-0.406565 0.0546593 6.45732e-21)
(-0.432485 -0.0332944 9.47057e-21)
(-0.341489 -0.0156359 -3.22618e-21)
(-1.19956 0.292437 -1.43186e-20)
(-1.06991 -0.644846 0)
(-0.167943 0.179667 -1.75285e-20)
(-1.05257 0.590354 0)
(-1.15048 -0.324369 1.28067e-20)
(-0.112699 -0.135948 -1.51656e-20)
(-0.976146 0.406178 0)
(-1.04485 0.440118 2.9963e-21)
(-0.623199 0.445766 4.83602e-21)
(-0.591695 -0.427745 3.90073e-20)
(-0.974666 -0.00844051 -3.45526e-20)
(-1.25307 0.336657 -1.45491e-20)
(-1.12715 -0.664971 1.6705e-20)
(-0.112558 0.144034 1.59954e-20)
(-1.39875 0.660481 0)
(0.0811849 -0.0159073 -3.8519e-20)
(-1.44158 -0.575624 -9.44592e-21)
(-0.47926 0.326663 -3.47545e-20)
(-0.5948 -0.397388 0)
(-0.875538 0.0424584 1.12229e-20)
(-0.334709 0.294821 -2.05201e-20)
(-1.19309 0.202712 -1.12657e-20)
(-0.999988 -0.680293 0)
(-1.21799 0.693733 -9.12661e-21)
(-1.33441 -0.385847 -1.08959e-20)
(-0.0659504 -0.113333 6.8331e-21)
(-0.561759 0.424 1.74227e-21)
(-0.695535 -0.496422 0)
(-1.01501 0.0476605 2.40231e-20)
(-1.26932 0.726334 0)
(-1.30494 0.726793 0)
(-1.39567 -0.413634 -6.81738e-21)
(-0.0469383 -0.102134 -1.77827e-20)
(-1.42148 -0.455572 9.64809e-21)
(-0.00846639 -0.075786 1.88736e-20)
(0.111707 0.00275285 -1.44551e-20)
(-1.5151 -0.720349 0)
(-1.56333 0.653561 -8.79975e-21)
(-1.18426 0.628038 1.0636e-20)
(-1.2625 -0.415693 0)
(-0.0251747 -0.082896 6.15278e-21)
(-1.2785 -0.612344 6.00667e-21)
(0.0594886 0.00549582 2.10606e-20)
(-1.24853 0.638122 8.19e-21)
(-0.717717 0.115517 -1.11667e-20)
(-0.270293 0.152409 0)
(-0.590706 -0.296663 0)
(-1.1277 0.404704 2.01544e-20)
(-1.09108 -0.517342 0)
(-0.0150141 0.0497675 3.47591e-20)
(0.102526 0.0060076 -1.19082e-20)
(-1.5021 0.632444 2.67679e-20)
(-1.47882 -0.675406 1.2887e-20)
(-0.868608 -0.605783 0)
(-1.10346 0.122392 1.01932e-20)
(-0.439501 0.36558 -2.50786e-20)
(-1.30245 -0.839955 -3.22628e-20)
(-1.5055 0.369938 -8.98876e-21)
(-0.115519 0.140949 0)
(-0.891392 -0.357066 -2.6975e-20)
(-0.0663176 0.00557211 0)
(-1.17315 0.488458 2.16533e-20)
(-1.15779 -0.494835 9.25587e-21)
(0.0222736 -0.00205206 1.05904e-20)
(-0.876537 -0.380758 1.57659e-20)
(-0.0721157 0.0296436 -2.22586e-23)
(-1.44672 0.802085 -6.23226e-22)
(0.0557326 -0.0229494 1.41106e-20)
(-1.60243 -0.530104 -8.259e-21)
(-0.762763 -0.592639 0)
(-1.13302 0.0373078 2.42038e-21)
(-0.64816 0.51356 0)
(-1.22994 0.516386 -2.20871e-20)
(-1.22942 -0.526083 -1.12791e-20)
(0.0397133 0.00458721 -1.28168e-20)
(-0.963847 0.279671 0)
(-0.889069 -0.463369 -1.57131e-20)
(-0.126352 0.11125 0)
(-0.973832 0.128928 0)
(-0.771523 -0.504896 0)
(-0.378051 0.290361 0)
(-0.704806 0.289138 -8.65192e-21)
(-0.732309 -0.227103 -1.50717e-20)
(-0.144893 -0.0465549 1.679e-23)
(-0.38987 0.335047 2.54342e-20)
(-1.16349 0.166895 2.72616e-20)
(-0.950724 -0.657057 1.60222e-20)
(-1.56504 0.590319 -1.09857e-20)
(-1.47438 -0.741075 1.38604e-20)
(0.0931563 0.0147072 -1.76874e-20)
(-1.31444 -0.814801 2.19244e-20)
(-1.49029 0.392679 9.11465e-21)
(-0.0805391 0.121822 1.31864e-20)
(-1.00009 0.700311 -1.91441e-20)
(-0.382532 -0.326588 2.00329e-20)
(-1.22497 -0.175898 -1.54072e-20)
(-1.3295 0.798008 5.28345e-21)
(-1.29009 0.774723 -4.91068e-21)
(-1.4442 -0.395308 -2.16694e-21)
(-1.49351 -0.414226 0)
(-0.0555204 -0.102616 -6.4778e-21)
(-0.0759395 -0.119892 -5.76451e-21)
(0.0679328 0.0130347 -2.85284e-20)
(-1.33503 -0.59879 -6.62032e-21)
(-1.27097 0.649785 2.92483e-21)
(-1.32637 0.729529 -3.04559e-22)
(0.0799006 0.0291087 3.32942e-20)
(-1.50183 -0.566426 0)
(-1.18019 0.353052 -3.25148e-20)
(-1.09715 -0.589509 -4.34324e-21)
(-0.0759071 0.112616 0)
(0.110911 0.0042563 -3.60391e-20)
(-1.54592 0.652523 8.76024e-21)
(-1.52093 -0.69966 0)
(-1.12705 0.71991 2.71921e-20)
(-1.18149 0.735323 -2.03011e-20)
(-1.29058 -0.291943 1.18084e-20)
(-1.33417 -0.325866 4.46501e-21)
(-0.205083 -0.204484 -1.13522e-20)
(-0.153604 -0.169154 -5.70111e-21)
(0.0589829 0.00278806 0)
(-1.429 -0.82595 0)
(-1.6449 0.519957 3.0697e-21)
(-1.21481 0.701353 -5.0719e-21)
(0.0670199 0.0325302 0)
(-1.4212 -0.541926 0)
(-0.537336 -0.00768077 -2.72728e-23)
(-0.378658 0.126913 1.37797e-20)
(-0.356598 -0.121394 6.84674e-21)
(-1.32806 0.677379 -8.14708e-21)
(-1.41852 -0.618607 3.94554e-21)
(0.0785539 0.0142344 1.56233e-21)
(-0.862441 0.542297 0)
(-1.03008 -0.171484 -2.07197e-20)
(-0.317163 -0.264669 -1.06078e-22)
(-1.58632 0.613189 2.40342e-22)
(-1.49173 -0.762325 1.84432e-20)
(0.0998694 0.00432041 1.86987e-23)
(-1.13126 -0.624744 1.90724e-22)
(0.0472827 -0.015387 -1.21591e-20)
(-1.21524 0.541564 -2.61386e-21)
(-0.5094 0.316308 -1.2714e-20)
(-0.459929 -0.2929 1.19996e-20)
(-0.788671 -0.0160435 3.57474e-20)
(-0.643041 0.128613 0)
(-0.563062 -0.235388 -3.41199e-20)
(-0.232321 0.0892638 1.72222e-20)
(-1.46869 0.74327 0)
(0.101616 0.0107017 1.66779e-20)
(-1.56441 -0.635017 -1.60204e-22)
(-0.688756 0.145336 0)
(-0.601158 -0.267967 -1.18619e-20)
(-0.220558 0.11108 -2.43905e-20)
(-0.499907 -0.00217444 1.42803e-20)
(-0.367725 0.0952534 -7.29477e-21)
(-0.358945 -0.0928161 3.62884e-21)
(-0.497154 0.414043 1.22475e-20)
(-1.18621 0.119236 -9.55466e-21)
(-0.921041 -0.681995 1.76162e-20)
(-0.660596 0.042334 0)
(-0.473779 -0.233071 0)
(-0.344871 0.190214 2.02456e-21)
(-0.709682 0.0917292 1.76767e-20)
(-0.549923 -0.277075 9.06546e-21)
(-0.314405 0.185332 2.86346e-22)
(-0.939802 0.667888 2.90772e-20)
(-1.17771 -0.142197 -1.55924e-20)
(-0.44145 -0.371532 -1.97674e-20)
(0.104455 0.00091993 2.52154e-20)
(0.110542 0.00186807 -2.55902e-20)
(-1.58207 -0.631237 5.1913e-21)
(-1.56676 -0.650983 3.69763e-21)
(-1.49825 0.748441 0)
(-1.51354 0.732982 -7.19924e-21)
(-1.58826 0.585537 1.36699e-20)
(-1.48115 -0.758016 -1.17804e-20)
(0.0924798 0.0128753 2.19325e-20)
(-0.368232 -0.326914 -1.27893e-20)
(-1.05556 0.751792 5.9368e-21)
(-1.28177 -0.191289 1.96272e-20)
(-0.635666 0.426613 -1.22703e-20)
(-0.494166 -0.353574 -1.23353e-20)
(-0.919445 -0.0457155 1.10803e-20)
(-1.32105 0.245616 0)
(-1.12025 -0.76057 1.13962e-20)
(-0.284467 0.260148 3.88743e-22)
(-1.23409 -0.699886 4.50126e-21)
(0.069203 -0.0321967 -1.13186e-20)
(-1.42389 0.546825 -3.01564e-21)
(0.00928491 0.0474125 0)
(-1.6261 0.477079 0)
(-1.41407 -0.857039 8.07652e-21)
(-1.47606 0.68651 5.5014e-21)
(0.103282 0.00334421 0)
(-1.50254 -0.674015 -5.15599e-21)
(0.0381006 -0.00946844 -4.52631e-32)
(-1.07064 -0.595426 -2.09119e-21)
(-1.13061 0.527163 2.32772e-21)
(-1.12798 -0.528127 2.31683e-21)
(0.0384654 0.00854743 4.51543e-32)
(-1.07474 0.59592 -2.08752e-21)
(-1.24124 -0.669225 -2.25283e-20)
(-1.33378 0.429327 0)
(-0.0187497 0.0846188 -3.40099e-20)
(-1.37493 -0.78747 -2.75759e-21)
(0.0729461 -0.0234003 -1.15457e-20)
(-1.6122 0.537489 0)
(-1.43496 0.593422 -1.35608e-20)
(-1.40765 -0.651837 1.20873e-20)
(0.0844231 0.0134746 1.76103e-20)
(-1.41573 0.827342 1.88417e-20)
(0.0569241 0.0052198 1.01066e-20)
(-1.64915 -0.518309 0)
(-0.826857 0.333835 6.71584e-21)
(-0.0860868 -0.0125008 -6.81584e-21)
(-0.854094 -0.318554 6.52457e-21)
(-1.43029 -0.839778 4.0608e-21)
(0.0457753 0.0158922 1.22045e-20)
(-1.64249 0.50761 3.71687e-21)
(-1.27625 0.219302 -1.09642e-20)
(-0.327425 0.292794 -6.95448e-21)
(-1.07356 -0.735923 0)
(-1.21575 -0.756609 0)
(-1.37425 0.351573 0)
(-0.124852 0.156489 0)
(0.0105323 7.70374e-05 0)
(-0.667836 -0.340517 -4.94016e-22)
(-0.666717 0.338958 5.01983e-22)
(-1.26402 -0.640636 3.56165e-21)
(0.0619504 -0.00479302 -1.4669e-20)
(-1.28544 0.617669 -3.83064e-21)
(-0.756209 0.290803 -1.71988e-20)
(-0.115114 -0.0113123 1.62564e-20)
(-0.772912 -0.280805 7.68958e-21)
(-1.45572 -0.787495 1.52186e-20)
(-1.62243 0.572504 -6.28404e-21)
(0.0844471 -0.0019954 0)
(0.0565324 -0.0052933 -1.27788e-20)
(-1.65435 0.515452 0)
(-1.40185 -0.831011 -1.13531e-20)
(-1.52498 0.691234 -8.05777e-21)
(0.111949 0.000300319 3.85966e-20)
(-1.53989 -0.663094 0)
(0.0170484 -0.049876 -2.89214e-20)
(-1.57353 -0.487394 9.62311e-21)
(-1.40813 0.812096 0)
(-0.907558 0.67623 -3.65209e-20)
(-1.18337 -0.114749 1.98504e-20)
(-0.514441 -0.427459 -6.27866e-21)
(-1.41036 -0.356583 3.23992e-21)
(-1.2419 0.783407 1.1701e-20)
(-0.136713 -0.159582 -1.77582e-20)
(0.0126293 -0.0410284 -2.58732e-20)
(-1.41419 0.85061 0)
(-1.6351 -0.478851 0)
(-0.911224 0.529772 -5.99699e-21)
(-0.98561 0.573796 0)
(-1.0286 -0.233723 -2.15634e-20)
(-1.10564 -0.270665 2.3084e-20)
(-0.209186 -0.183536 3.1227e-21)
(-0.176524 -0.174687 -3.32736e-21)
(-0.852277 0.516247 5.75165e-21)
(-0.999073 -0.190514 0)
(-0.273094 -0.226118 5.93909e-21)
(-1.10858 0.738239 0)
(-1.2923 -0.268452 -1.90877e-20)
(-0.251217 -0.237132 4.10005e-21)
(-1.28209 -0.784374 -1.11378e-20)
(-1.44757 0.384207 9.67038e-21)
(-0.0832075 0.124404 -2.69783e-20)
(-1.46325 -0.798661 0)
(-1.60009 0.567254 1.99668e-20)
(0.077775 0.0142763 0)
(-0.0142097 0.080448 -8.72538e-21)
(-1.47865 0.447409 -5.88695e-21)
(-1.34243 -0.772538 -7.20579e-21)
(-1.19743 -0.533352 -2.89653e-22)
(0.0461139 0.0151354 7.84045e-21)
(-1.12232 0.622192 0)
(-0.616722 0.350003 1.1641e-20)
(-0.626745 0.335395 0)
(-0.320463 -0.209106 0)
(-0.78856 -0.0999292 4.33622e-20)
(-0.276044 -0.174489 0)
(-0.768573 -0.128435 -2.76201e-20)
(-1.00351 0.66698 0)
(-0.922447 0.616036 0)
(-0.34804 -0.29444 5.99289e-24)
(-1.18736 -0.21493 1.23436e-20)
(-0.305508 -0.264773 3.00933e-20)
(-1.11851 -0.178582 -2.63142e-20)
(-1.09863 -0.647648 0)
(0.0509198 -0.0269293 1.65799e-20)
(-1.27383 0.526711 0)
(-1.46406 -0.779202 -9.51996e-21)
(-1.61521 0.581315 2.06802e-21)
(0.0885711 0.00224377 7.71609e-21)
(-0.692673 0.488641 -2.08866e-20)
(-0.566282 -0.427522 -1.39607e-20)
(-1.00848 -0.0376136 3.57346e-20)
(-1.21987 -0.805997 2.41436e-20)
(-1.41789 0.308048 2.5107e-20)
(-0.194844 0.202241 0)
(-0.00538409 -0.0667201 3.09261e-20)
(-1.55557 -0.467052 -1.02304e-20)
(-1.38787 0.814453 1.22833e-20)
(-1.37568 -0.678665 0)
(-1.42963 0.634082 0)
(0.0839238 -0.00792186 0)
(-1.39323 -0.704609 0)
(-1.47324 0.620809 4.67531e-21)
(0.0901032 -0.0144597 2.79541e-21)
(-1.17647 0.706827 -1.13429e-20)
(-1.31034 -0.352182 6.74727e-21)
(-0.116714 -0.144983 8.43125e-21)
(-0.430729 0.293873 -3.30549e-21)
(-0.60628 -0.382248 0)
(-0.846898 0.0666877 -1.7008e-22)
(-1.52807 0.702353 9.38847e-21)
(0.113222 0.00123593 2.23685e-20)
(-1.55644 -0.664713 -4.30443e-21)
(-1.26738 -0.709081 0)
(-1.37715 0.430703 0)
(-0.0242119 0.0944525 2.93336e-20)
(0.0869119 -0.0165121 7.3594e-21)
(-1.48977 -0.587185 1.6019e-20)
(-1.43466 0.702148 2.73437e-20)
(-0.878603 0.60048 0)
(-0.403748 -0.332186 -2.02481e-20)
(-1.09411 -0.149367 1.35438e-20)
(-1.05672 0.217432 2.11331e-22)
(-0.908755 -0.553725 1.18784e-20)
(-0.253839 0.220313 0)
(-0.570498 0.373872 1.18915e-22)
(-0.499192 -0.345188 -4.08827e-21)
(-0.870091 -0.0245059 -1.45151e-20)
(0.114081 0.00181657 -2.65584e-24)
(-1.53522 -0.699077 9.75623e-21)
(-1.54625 0.676816 9.72378e-21)
(-1.3525 0.69466 -5.17011e-21)
(-1.43232 -0.516219 -5.02909e-21)
(0.0462822 -0.0418615 0)
(-0.519002 0.305378 -1.26243e-20)
(-0.403934 -0.248903 2.61887e-20)
(-0.757544 -0.0398201 -2.35884e-20)
(-1.4147 0.855025 7.70063e-21)
(0.0250029 -0.0243789 1.14621e-20)
(-1.65552 -0.488469 -6.05337e-21)
(-0.795743 0.440277 -7.33327e-21)
(-0.905527 -0.204756 0)
(-0.210893 -0.169892 0)
(-0.819374 0.213467 -3.14894e-20)
(-0.739682 -0.361894 7.29346e-21)
(-0.170317 0.114367 0)
(-1.19959 -0.710383 0)
(-1.32865 0.356293 2.08212e-20)
(-0.0985652 0.14229 0)
(-1.37197 0.771665 -3.67109e-21)
(0.0794888 0.0264741 -3.55851e-21)
(-1.58541 -0.558498 4.79066e-21)
(-1.37175 0.794314 1.0234e-20)
(0.0713323 0.0248977 0)
(-1.61169 -0.536331 -5.42867e-21)
(0.0759506 -0.0240985 6.62346e-21)
(-1.51164 -0.564128 -9.16318e-21)
(-1.43046 0.726614 -2.51848e-20)
(-1.09291 0.19368 -9.80681e-21)
(-0.934006 -0.600165 -1.18885e-20)
(-0.30592 0.255899 0)
(0.0746947 0.0341443 3.26019e-21)
(-1.54058 -0.54965 -4.4826e-21)
(-1.30275 0.747844 0)
(0.0916932 0.0138435 0)
(-1.44304 -0.680846 -9.45035e-21)
(-1.48215 0.601183 -3.13795e-21)
(0.0277319 -0.0138925 1.33216e-20)
(-0.916593 -0.562863 2.72384e-21)
(-1.0257 0.451616 0)
(-0.917322 0.562359 -2.69101e-21)
(-1.02488 -0.452935 0)
(0.0281423 0.013154 1.33257e-20)
(0.0270417 -0.0372776 -2.49769e-23)
(-1.61057 -0.500069 0)
(-1.4204 0.831415 0)
(0.109851 -0.0021189 0)
(-1.50428 -0.714623 0)
(-1.54934 0.662555 1.20342e-20)
(-1.48908 0.753391 -8.41653e-21)
(-1.48114 0.742611 6.80822e-21)
(0.0963231 -0.00554909 -1.26548e-20)
(-1.58895 -0.598365 -1.76964e-21)
(0.0955887 -0.00946408 -2.05979e-20)
(-1.56509 -0.599084 3.46669e-21)
(-1.49016 0.571064 6.18577e-21)
(-1.42609 -0.706257 6.36444e-21)
(0.0801864 0.0231195 0)
(-0.26723 0.25421 0)
(-1.16811 -0.805223 0)
(-1.38526 0.265271 0)
(-0.597531 0.27943 0)
(-0.235216 -0.119074 -3.61131e-20)
(-0.698402 -0.13878 1.51631e-20)
(-1.46293 0.496223 1.80588e-20)
(-1.36187 -0.732979 2.44244e-21)
(0.0333409 0.054309 2.57005e-20)
(0.00341489 0.0730541 1.67067e-20)
(-1.4472 0.467714 -2.51425e-20)
(-1.33018 -0.741807 -3.38457e-21)
(-1.39327 0.871098 9.36903e-21)
(-0.0246357 -0.0658926 1.2374e-20)
(-1.62894 -0.440662 1.5224e-20)
(-1.02994 0.694553 0)
(-1.22579 -0.218571 5.68416e-21)
(-0.312633 -0.275406 -2.95e-20)
(-0.922382 0.584664 0)
(-1.08399 -0.193691 2.72068e-20)
(-0.300246 -0.260969 -6.22427e-23)
(-1.32513 0.483778 -2.45557e-20)
(-1.27223 -0.635932 3.11427e-21)
(0.0324644 0.0459477 -1.48376e-20)
(-1.35797 0.475002 0)
(-1.28367 -0.663737 2.92773e-21)
(0.0210352 0.0571602 1.35794e-20)
(-0.466855 0.263525 0)
(-0.406464 -0.230491 -4.14123e-20)
(-0.7081 -0.0211297 1.32658e-20)
(-1.00878 0.604178 0)
(-1.13566 -0.26898 0)
(-0.189094 -0.190703 4.48341e-21)
(0.0225058 0.0275384 -2.64138e-20)
(-1.40839 -0.858842 -2.23844e-20)
(-1.65454 0.484986 0)
(-1.50406 0.593479 5.45026e-21)
(0.08423 -0.0231093 0)
(-1.34121 -0.724945 3.38567e-21)
(-1.48685 0.556192 -4.90565e-22)
(0.0761371 -0.0307758 0)
(-1.29377 -0.7215 -9.45732e-21)
(-0.71572 0.448069 8.63928e-21)
(-0.368303 -0.270041 -4.39473e-21)
(-0.910044 -0.117097 -3.23948e-22)
(-1.29882 -0.66177 4.32338e-22)
(0.0728212 -0.0128309 2.24591e-20)
(-1.3836 0.60731 0)
(-1.39403 0.730443 2.19364e-20)
(0.0529131 -0.037893 1.40288e-20)
(-1.48616 -0.527851 0)
(0.065599 -0.0250804 -3.33617e-21)
(-1.22834 -0.683325 -4.36806e-21)
(-1.37358 0.561261 0)
(-0.61471 0.169179 2.15643e-20)
(-0.204659 0.0369218 2.19135e-20)
(-0.582309 -0.201628 3.92149e-23)
(-1.08183 0.485631 -3.73686e-21)
(-1.10725 -0.427804 -3.45657e-21)
(-0.00786108 -0.0308018 -1.55445e-20)
(-0.858584 -0.568627 2.70693e-20)
(-1.05238 0.155599 2.34344e-20)
(-0.368268 0.294586 0)
(0.074615 -0.0151022 0)
(-1.40286 -0.795522 -3.67512e-21)
(-1.62523 0.547669 0)
(-1.24606 -0.727108 0)
(-1.37793 0.404581 0)
(-0.0557409 0.113483 0)
(0.0514769 -0.0085207 0)
(-1.43148 0.830913 -6.74906e-21)
(-1.64905 -0.517432 5.93628e-21)
(-1.15461 0.517506 0)
(-1.16715 -0.470265 1.75069e-21)
(0.015276 -0.0208924 1.51932e-20)
(-0.561343 0.248231 0)
(-0.241307 -0.103311 3.10174e-20)
(-0.65571 -0.126364 0)
(-1.44413 -0.78043 -1.43671e-20)
(-1.60152 0.586133 5.98109e-21)
(0.0889651 -0.0104534 0)
(0.102191 -0.000511784 -1.53329e-20)
(-1.47877 -0.649409 6.01099e-22)
(-1.4734 0.657675 5.30563e-22)
(-1.42381 0.738723 0)
(-1.39769 0.728844 6.20413e-21)
(0.0933409 0.018106 -8.21414e-21)
(0.0908464 0.0188473 -1.0102e-20)
(-1.55146 -0.603064 -3.19444e-21)
(-1.52309 -0.609019 2.62802e-21)
(-1.0607 0.335462 0)
(-0.992589 -0.51677 4.64298e-20)
(-0.0817502 0.0942245 1.6583e-20)
(-1.18166 -0.634187 3.16351e-20)
(-1.27411 0.395457 0)
(-0.0378288 0.0945248 -1.79989e-20)
(-0.76228 0.23632 -1.77691e-20)
(-0.728518 -0.308847 1.2508e-20)
(-0.131364 0.0534699 2.65357e-20)
(-1.38304 -0.753946 8.22193e-21)
(-1.55908 0.585071 6.3424e-21)
(-1.36081 -0.768108 -3.80737e-21)
(0.0865889 -0.0215941 0)
(-1.5744 0.557061 -6.11261e-21)
(0.0780499 -0.0261794 0)
(-1.29587 0.578951 0)
(-1.30508 -0.552202 0)
(0.057449 -0.00666929 1.67494e-20)
(-1.58543 0.60479 9.74697e-21)
(-1.56539 0.602289 -1.79253e-20)
(-1.45677 -0.757611 5.37424e-21)
(-1.43055 -0.74569 -1.42229e-20)
(0.0968865 -0.0106595 2.26435e-20)
(0.0945135 -0.0144527 -5.38093e-24)
(-1.22792 0.369759 0)
(-1.1326 -0.635731 -2.97587e-20)
(-0.0823355 0.124674 2.33631e-20)
(-0.989114 0.37332 1.65189e-20)
(-1.02792 -0.444628 -2.0929e-20)
(-0.0196696 0.0156138 0)
(-1.41867 0.808166 0)
(0.0719378 0.0132002 0)
(-1.63082 -0.546098 5.2198e-21)
(-1.07405 0.368171 1.21452e-20)
(-1.02189 -0.50001 -1.29242e-20)
(-0.0484665 0.0683952 -2.74472e-20)
(-0.842881 0.281077 7.11033e-21)
(-0.816342 -0.360445 -1.46902e-20)
(-0.0985141 0.0473396 1.53253e-20)
(-1.40209 0.760588 0)
(0.0880338 0.0206715 0)
(-1.58525 -0.584593 -7.26303e-21)
(-1.17473 0.551885 0)
(-1.21563 -0.454197 3.5968e-21)
(0.0175849 -0.0404056 -1.67058e-20)
(-1.05062 -0.746323 0)
(-1.27195 0.194458 0)
(-0.384486 0.336062 -8.96602e-22)
(-0.881765 0.619965 -9.41247e-22)
(-1.11713 -0.130016 0)
(-0.443559 -0.365829 3.10086e-20)
(-1.34108 -0.869099 1.24628e-20)
(-0.0920805 0.118497 0)
(-1.56349 0.390798 0)
(0.020492 -0.00018924 -3.20344e-20)
(-0.87569 -0.451879 6.91159e-22)
(-0.874925 0.450339 -7.02537e-22)
(-1.11724 0.436349 0)
(-1.08758 -0.481651 1.28097e-20)
(-0.00122851 0.0201405 -1.39767e-20)
(-1.46389 0.787533 1.29619e-20)
(0.0870476 0.00396458 4.27263e-20)
(-1.61645 -0.574567 0)
(-0.640199 -0.509982 -8.29527e-21)
(-1.14299 -0.0394591 -1.31602e-20)
(-0.777948 0.595292 -8.28291e-21)
(-1.07957 0.643379 0)
(0.0501232 0.026835 -1.18905e-20)
(-1.26833 -0.518983 0)
(-0.313531 0.214154 1.64159e-20)
(-0.348011 0.247109 -1.67838e-20)
(-0.643276 -0.371443 0)
(-0.815521 0.115499 1.51564e-20)
(-0.680926 -0.413701 -2.6421e-20)
(-0.865172 0.1067 -1.21194e-20)
(-0.747857 0.199174 1.67191e-20)
(-0.681777 -0.304726 1.66534e-20)
(-0.171469 0.08979 0)
(-0.44328 0.284273 1.46173e-20)
(-0.370909 0.241142 0)
(-0.525867 -0.324407 -1.47908e-20)
(-0.789317 0.0271946 1.3547e-20)
(-0.554269 -0.320921 1.49063e-20)
(-0.769206 0.0631888 9.48195e-23)
(-1.0592 0.415313 1.04239e-21)
(-0.960258 -0.431851 -9.18462e-21)
(-0.0483021 0.0372549 -1.87718e-20)
(-0.994343 0.351608 -2.83656e-20)
(-0.961126 -0.450419 2.41589e-22)
(-0.0614469 0.0584216 0)
(0.0723711 -0.0339756 0)
(-1.29341 -0.751663 0)
(-1.53872 0.540138 5.5782e-21)
(-0.781256 0.4702 -7.96225e-21)
(-0.934999 -0.156428 0)
(-0.298084 -0.230869 8.13877e-21)
(-1.57304 0.632906 -1.94329e-20)
(-1.49185 -0.743269 6.85345e-21)
(0.106296 -0.00352316 -1.2912e-20)
(-1.35549 0.529765 0)
(-1.40654 0.552456 1.30287e-20)
(-1.32103 -0.626967 -3.88475e-21)
(-1.3671 -0.651086 1.18676e-20)
(0.0586066 0.0279284 -1.8406e-20)
(0.0703749 0.0247544 -1.69955e-20)
(-0.752324 0.432462 0)
(-0.890443 -0.167966 0)
(-0.264392 -0.202373 3.88382e-21)
(-1.08329 0.677729 9.16802e-21)
(-1.22933 -0.279513 0)
(-0.20532 -0.201871 9.77513e-21)
(-1.25041 0.505383 -6.98644e-21)
(-1.23171 -0.565764 0)
(0.0401483 0.0216656 0)
(-0.443992 0.162191 1.66694e-20)
(-0.563064 -0.0581197 -8.16953e-21)
(-0.301079 -0.103367 8.40566e-21)
(-1.42414 0.510047 0)
(-1.34752 -0.696272 0)
(0.0435825 0.0464902 -2.73379e-20)
(-0.560745 0.283267 0)
(-0.289383 -0.16119 4.55716e-21)
(-0.705034 -0.0994575 0)
(-1.22519 0.402788 -1.60194e-20)
(-1.14457 -0.608004 -1.6651e-20)
(-0.0346234 0.0846604 -2.33954e-21)
(-1.07648 0.645374 9.31452e-21)
(-1.2045 -0.300569 0)
(-0.162921 -0.176068 2.02538e-20)
(-0.472874 0.202195 -1.65254e-20)
(-0.446758 0.205043 -7.33488e-21)
(-0.609543 -0.072658 8.05763e-21)
(-0.298717 -0.127526 -1.66684e-20)
(-0.629425 -0.0447965 0)
(-0.341638 -0.163856 -2.96076e-20)
(-0.403563 0.228009 -7.33303e-21)
(-0.452209 -0.251027 1.93798e-20)
(-0.368022 0.223289 4.715e-21)
(-0.697632 0.0168599 -1.83838e-20)
(-0.534068 -0.300217 -9.37182e-21)
(-0.738769 0.0572147 3.63057e-22)
(-0.885198 0.495189 8.70163e-21)
(-0.951819 0.511392 0)
(-0.989531 -0.244702 1.61452e-20)
(-1.0321 -0.288664 -1.26221e-20)
(-0.177796 -0.157382 -1.81541e-20)
(-0.124434 -0.12374 3.0199e-20)
(0.0401572 -0.0404514 0)
(-1.54796 -0.514185 -5.55702e-21)
(-1.41528 0.77971 -1.26477e-20)
(-0.423872 0.36108 1.09094e-20)
(-1.20706 0.161179 1.50822e-20)
(-0.979313 -0.699186 -2.78765e-20)
(0.0617368 -0.0257486 -1.44362e-20)
(0.0793049 -0.0192333 1.15574e-20)
(-1.56957 -0.546259 4.81202e-21)
(-1.55131 -0.569436 8.386e-21)
(-1.44073 0.781589 3.2046e-20)
(-1.45513 0.755626 -1.66298e-20)
(-0.599437 0.459737 1.52836e-20)
(-0.715031 -0.523522 -1.3277e-20)
(-1.05223 0.0344088 3.5126e-21)
(-0.422334 0.0938701 2.82656e-20)
(-0.312621 -0.0402675 0)
(-0.47598 -0.0508036 -2.80951e-20)
(-1.44322 0.54361 -6.14469e-21)
(-1.38073 -0.689098 -1.34136e-20)
(0.0649687 0.0325949 0)
(-0.672703 0.386163 0)
(-0.31173 -0.225692 -3.69994e-21)
(-0.835595 -0.118896 -1.4075e-20)
(-1.11704 0.657852 0)
(-1.2382 -0.32826 0)
(-0.128802 -0.152496 -1.88405e-20)
(-1.35733 0.787258 -1.39985e-20)
(-1.35442 0.758641 0)
(-1.50686 -0.460455 3.15904e-21)
(-0.0136406 -0.0761491 -1.77488e-20)
(-1.48161 -0.472324 -8.60359e-21)
(0.00506806 -0.0665749 2.40419e-20)
(-1.34463 0.576655 1.30994e-20)
(-1.34468 -0.584033 1.27379e-20)
(0.0707613 0.00344158 1.00019e-20)
(-1.18099 0.662943 5.95317e-21)
(-1.34229 -0.550944 0)
(0.0617539 0.024751 -4.85774e-21)
(-0.677619 -0.528103 9.01174e-21)