/*--------------------------------*- C++ -*----------------------------------*\
  =========                 |
  \\      /  F ield         | OpenFOAM: The Open Source CFD Toolbox
   \\    /   O peration     | Website:  https://openfoam.org
    \\  /    A nd           | Version:  6
     \\/     M anipulation  |
\*---------------------------------------------------------------------------*/
FoamFile
{
    version     2.0;
    format      ascii;
    class       volScalarField;
    location    "23487";
    object      p_rgh;
}
// * * * * * * * * * * * * * * * * * * * * * * * * * * * * * * * * * * * * * //

dimensions      [0 2 -2 0 0 0 0];

internalField   nonuniform List<scalar> 
115600
(
0.00717304
0.00714137
0.00712588
0.00712117
0.00711781
0.00711077
0.0071015
0.00709109
0.00708017
0.00706911
0.0070581
0.00704726
0.00703665
0.00702628
0.00701616
0.00700628
0.00699662
0.00698719
0.00697796
0.00696893
0.0069601
0.00695145
0.00694297
0.00693465
0.00692648
0.00691844
0.00691052
0.00690269
0.00689494
0.00688723
0.00687954
0.00687183
0.00686411
0.00685633
0.00684843
0.00684034
0.00683199
0.00682332
0.00681424
0.00680464
0.0067944
0.00678339
0.00677144
0.00675833
0.00674384
0.00672765
0.00670939
0.00668861
0.00666467
0.00663692
0.00660403
0.0065655
0.00651643
0.00646241
0.00636732
0.00630199
0.00712439
0.00714039
0.00712562
0.00712101
0.00711771
0.00711072
0.00710148
0.00709109
0.00708018
0.00706913
0.00705812
0.00704728
0.00703667
0.00702631
0.00701619
0.00700631
0.00699665
0.00698721
0.00697798
0.00696895
0.00696012
0.00695146
0.00694298
0.00693466
0.00692649
0.00691845
0.00691053
0.0069027
0.00689494
0.00688723
0.00687954
0.00687183
0.00686411
0.00685633
0.00684842
0.00684033
0.00683199
0.00682332
0.00681423
0.00680463
0.00679439
0.00678338
0.00677142
0.00675832
0.00674382
0.00672763
0.00670937
0.00668858
0.00666464
0.00663688
0.00660398
0.00656544
0.00651635
0.00646229
0.00636726
0.00630337
0.00708176
0.00713928
0.00712507
0.00712062
0.00711744
0.00711051
0.00710132
0.00709098
0.00708011
0.00706908
0.0070581
0.00704727
0.00703667
0.00702631
0.0070162
0.00700631
0.00699666
0.00698722
0.00697799
0.00696897
0.00696013
0.00695148
0.00694299
0.00693467
0.0069265
0.00691846
0.00691053
0.0069027
0.00689495
0.00688724
0.00687954
0.00687184
0.00686411
0.00685633
0.00684842
0.00684033
0.00683198
0.00682331
0.00681422
0.00680462
0.00679438
0.00678337
0.00677141
0.0067583
0.0067438
0.00672761
0.00670934
0.00668855
0.00666461
0.00663684
0.00660393
0.00656539
0.00651628
0.00646226
0.00636747
0.00630627
0.00704945
0.00713789
0.00712419
0.00711995
0.00711691
0.00711006
0.00710096
0.0070907
0.0070799
0.00706892
0.00705797
0.00704717
0.00703659
0.00702625
0.00701615
0.00700628
0.00699664
0.0069872
0.00697798
0.00696896
0.00696013
0.00695147
0.006943
0.00693468
0.00692651
0.00691847
0.00691054
0.00690271
0.00689495
0.00688724
0.00687955
0.00687184
0.00686411
0.00685633
0.00684843
0.00684033
0.00683198
0.00682331
0.00681422
0.00680461
0.00679437
0.00678336
0.0067714
0.00675829
0.00674378
0.00672758
0.00670931
0.00668852
0.00666457
0.00663679
0.00660388
0.00656534
0.00651625
0.00646236
0.00636806
0.00631021
0.00702345
0.00713616
0.00712327
0.00711915
0.00711624
0.00710949
0.00710048
0.00709031
0.00707958
0.00706866
0.00705777
0.00704701
0.00703646
0.00702615
0.00701607
0.00700622
0.00699658
0.00698716
0.00697795
0.00696894
0.00696011
0.00695146
0.00694299
0.00693468
0.00692651
0.00691847
0.00691055
0.00690272
0.00689496
0.00688725
0.00687956
0.00687185
0.00686412
0.00685634
0.00684844
0.00684034
0.00683199
0.00682331
0.00681422
0.00680461
0.00679437
0.00678335
0.00677138
0.00675827
0.00674376
0.00672756
0.00670928
0.00668848
0.00666452
0.00663674
0.00660382
0.00656529
0.00651624
0.00646255
0.00636896
0.00631483
0.00700143
0.00713424
0.00712264
0.00711849
0.00711564
0.00710893
0.00709999
0.00708989
0.00707923
0.00706838
0.00705754
0.00704682
0.00703631
0.00702602
0.00701597
0.00700613
0.00699652
0.00698711
0.00697791
0.0069689
0.00696009
0.00695145
0.00694298
0.00693467
0.00692651
0.00691848
0.00691056
0.00690273
0.00689497
0.00688727
0.00687957
0.00687187
0.00686414
0.00685636
0.00684845
0.00684036
0.00683201
0.00682333
0.00681423
0.00680462
0.00679437
0.00678335
0.00677138
0.00675826
0.00674375
0.00672754
0.00670926
0.00668845
0.00666449
0.00663671
0.00660379
0.00656529
0.0065163
0.0064629
0.00637024
0.00631997
0.00698278
0.00713199
0.00712233
0.00711805
0.0071152
0.00710849
0.00709958
0.00708953
0.00707892
0.00706812
0.00705732
0.00704664
0.00703616
0.0070259
0.00701586
0.00700605
0.00699645
0.00698706
0.00697787
0.00696887
0.00696006
0.00695143
0.00694297
0.00693467
0.00692651
0.00691848
0.00691057
0.00690274
0.00689499
0.00688728
0.00687959
0.00687189
0.00686417
0.00685638
0.00684848
0.00684038
0.00683203
0.00682335
0.00681425
0.00680464
0.00679439
0.00678336
0.00677139
0.00675827
0.00674375
0.00672754
0.00670926
0.00668845
0.00666449
0.00663672
0.00660382
0.00656537
0.00651649
0.00646345
0.00637192
0.00632549
0.00696748
0.00712911
0.00712211
0.00711777
0.00711492
0.00710818
0.00709928
0.00708926
0.00707868
0.00706792
0.00705715
0.0070465
0.00703604
0.0070258
0.00701578
0.00700598
0.00699639
0.00698701
0.00697783
0.00696884
0.00696004
0.00695142
0.00694297
0.00693467
0.00692652
0.00691849
0.00691058
0.00690276
0.00689501
0.00688731
0.00687962
0.00687192
0.0068642
0.00685642
0.00684851
0.00684041
0.00683206
0.00682338
0.00681428
0.00680467
0.00679442
0.00678339
0.00677142
0.0067583
0.00674378
0.00672757
0.00670929
0.00668849
0.00666454
0.00663679
0.00660393
0.00656555
0.00651683
0.00646422
0.00637401
0.00633127
0.00695561
0.00712536
0.00712174
0.00711751
0.00711471
0.00710797
0.00709907
0.00708907
0.00707852
0.00706778
0.00705703
0.00704641
0.00703596
0.00702574
0.00701573
0.00700594
0.00699636
0.00698698
0.00697781
0.00696883
0.00696004
0.00695142
0.00694298
0.00693468
0.00692653
0.00691851
0.0069106
0.00690279
0.00689504
0.00688734
0.00687966
0.00687196
0.00686424
0.00685646
0.00684855
0.00684045
0.0068321
0.00682342
0.00681433
0.00680471
0.00679446
0.00678344
0.00677147
0.00675835
0.00674384
0.00672764
0.00670937
0.00668858
0.00666465
0.00663693
0.00660412
0.00656584
0.00651734
0.00646522
0.00637652
0.00633726
0.00694721
0.00712067
0.00712098
0.00711713
0.00711448
0.00710779
0.00709891
0.00708894
0.00707842
0.0070677
0.00705697
0.00704636
0.00703593
0.00702572
0.00701571
0.00700593
0.00699636
0.00698699
0.00697782
0.00696885
0.00696006
0.00695145
0.006943
0.00693471
0.00692657
0.00691855
0.00691064
0.00690283
0.00689508
0.00688738
0.0068797
0.00687201
0.00686429
0.00685651
0.0068486
0.00684051
0.00683216
0.00682348
0.00681439
0.00680478
0.00679453
0.00678351
0.00677155
0.00675844
0.00674393
0.00672774
0.00670949
0.00668872
0.00666482
0.00663715
0.00660442
0.00656627
0.00651804
0.00646646
0.00637943
0.00634339
0.00694217
0.00711514
0.00711968
0.00711649
0.00711413
0.00710758
0.00709877
0.00708885
0.00707837
0.00706767
0.00705696
0.00704637
0.00703595
0.00702574
0.00701574
0.00700596
0.00699639
0.00698703
0.00697786
0.00696889
0.0069601
0.00695149
0.00694305
0.00693476
0.00692662
0.0069186
0.0069107
0.00690288
0.00689514
0.00688744
0.00687976
0.00687208
0.00686436
0.00685658
0.00684867
0.00684058
0.00683223
0.00682356
0.00681447
0.00680486
0.00679462
0.00678361
0.00677165
0.00675855
0.00674406
0.00672789
0.00670965
0.00668891
0.00666506
0.00663745
0.00660483
0.00656684
0.00651893
0.00646794
0.00638275
0.00634963
0.00694024
0.00710901
0.0071178
0.00711549
0.00711356
0.00710727
0.00709859
0.00708875
0.00707832
0.00706767
0.00705699
0.00704641
0.00703601
0.0070258
0.00701581
0.00700603
0.00699646
0.0069871
0.00697793
0.00696896
0.00696017
0.00695156
0.00694312
0.00693483
0.00692669
0.00691868
0.00691077
0.00690296
0.00689522
0.00688752
0.00687984
0.00687216
0.00686444
0.00685667
0.00684876
0.00684067
0.00683233
0.00682365
0.00681457
0.00680497
0.00679473
0.00678373
0.00677178
0.0067587
0.00674423
0.00672808
0.00670987
0.00668918
0.00666538
0.00663785
0.00660535
0.00656755
0.00652002
0.00646968
0.00638647
0.00635597
0.00694103
0.0071026
0.00711541
0.00711414
0.00711272
0.00710678
0.00709831
0.00708861
0.00707828
0.00706768
0.00705704
0.00704648
0.00703609
0.00702589
0.0070159
0.00700613
0.00699656
0.0069872
0.00697803
0.00696906
0.00696027
0.00695166
0.00694322
0.00693493
0.00692679
0.00691877
0.00691087
0.00690306
0.00689532
0.00688762
0.00687995
0.00687226
0.00686455
0.00685677
0.00684887
0.00684078
0.00683244
0.00682377
0.00681469
0.0068051
0.00679488
0.00678388
0.00677195
0.00675888
0.00674444
0.00672831
0.00671015
0.0066895
0.00666578
0.00663835
0.00660599
0.00656842
0.00652133
0.00647167
0.00639058
0.00636241
0.00694411
0.00709624
0.00711266
0.00711248
0.00711159
0.00710606
0.00709788
0.00708839
0.00707819
0.00706767
0.00705708
0.00704656
0.00703619
0.00702601
0.00701603
0.00700625
0.00699669
0.00698733
0.00697816
0.00696919
0.0069604
0.00695179
0.00694335
0.00693506
0.00692691
0.0069189
0.00691099
0.00690318
0.00689544
0.00688774
0.00688007
0.00687239
0.00686468
0.0068569
0.006849
0.00684091
0.00683258
0.00682392
0.00681484
0.00680526
0.00679505
0.00678407
0.00677216
0.00675911
0.00674469
0.00672861
0.00671049
0.00668991
0.00666626
0.00663895
0.00660677
0.00656946
0.00652287
0.00647394
0.0063951
0.00636895
0.00694906
0.00709021
0.00710969
0.00711063
0.00711024
0.00710514
0.00709729
0.00708804
0.00707801
0.00706762
0.00705711
0.00704664
0.0070363
0.00702614
0.00701617
0.00700641
0.00699684
0.00698748
0.00697832
0.00696935
0.00696056
0.00695194
0.0069435
0.00693521
0.00692706
0.00691904
0.00691114
0.00690333
0.00689558
0.00688789
0.00688021
0.00687253
0.00686483
0.00685705
0.00684915
0.00684107
0.00683274
0.00682409
0.00681502
0.00680545
0.00679525
0.00678429
0.0067724
0.00675938
0.006745
0.00672895
0.00671089
0.00669038
0.00666684
0.00663966
0.00660769
0.00657067
0.00652465
0.00647648
0.00640001
0.00637559
0.00695545
0.00708474
0.00710666
0.00710868
0.00710876
0.00710407
0.00709653
0.00708753
0.00707771
0.00706746
0.00705707
0.00704668
0.0070364
0.00702627
0.00701632
0.00700657
0.00699702
0.00698766
0.0069785
0.00696953
0.00696074
0.00695212
0.00694368
0.00693539
0.00692724
0.00691922
0.00691131
0.0069035
0.00689575
0.00688806
0.00688038
0.00687271
0.006865
0.00685723
0.00684934
0.00684126
0.00683293
0.00682428
0.00681523
0.00680567
0.00679549
0.00678454
0.00677268
0.0067597
0.00674535
0.00672936
0.00671137
0.00669094
0.00666752
0.0066405
0.00660876
0.00657207
0.00652667
0.00647931
0.00640531
0.00638236
0.0069627
0.00707998
0.00710364
0.00710669
0.0071072
0.00710288
0.00709565
0.0070869
0.00707728
0.0070672
0.00705694
0.00704665
0.00703644
0.00702637
0.00701646
0.00700673
0.0069972
0.00698785
0.0069787
0.00696973
0.00696094
0.00695233
0.00694388
0.00693558
0.00692744
0.00691941
0.00691151
0.00690369
0.00689595
0.00688825
0.00688058
0.0068729
0.0068652
0.00685743
0.00684954
0.00684147
0.00683315
0.00682451
0.00681547
0.00680592
0.00679576
0.00678484
0.00677301
0.00676006
0.00674576
0.00672983
0.00671192
0.00669159
0.0066683
0.00664146
0.00660999
0.00657367
0.00652895
0.00648245
0.00641102
0.00638928
0.00697006
0.00707594
0.00710069
0.00710468
0.00710557
0.00710161
0.00709468
0.00708617
0.00707675
0.00706683
0.0070567
0.00704652
0.0070364
0.0070264
0.00701654
0.00700686
0.00699736
0.00698803
0.00697889
0.00696993
0.00696115
0.00695254
0.0069441
0.0069358
0.00692765
0.00691963
0.00691172
0.00690391
0.00689616
0.00688847
0.0068808
0.00687312
0.00686542
0.00685766
0.00684977
0.00684171
0.0068334
0.00682477
0.00681574
0.00680621
0.00679607
0.00678518
0.00677338
0.00676048
0.00674624
0.00673037
0.00671255
0.00669234
0.0066692
0.00664256
0.00661138
0.00657548
0.00653151
0.00648591
0.00641712
0.00639638
0.00697704
0.00707255
0.00709785
0.00710265
0.00710389
0.00710026
0.00709362
0.00708535
0.00707612
0.00706637
0.00705637
0.0070463
0.00703626
0.00702633
0.00701655
0.00700692
0.00699746
0.00698817
0.00697906
0.00697012
0.00696135
0.00695276
0.00694432
0.00693603
0.00692788
0.00691987
0.00691196
0.00690414
0.0068964
0.00688871
0.00688104
0.00687337
0.00686567
0.00685791
0.00685003
0.00684197
0.00683367
0.00682506
0.00681604
0.00680653
0.00679642
0.00678556
0.0067738
0.00676095
0.00674677
0.00673099
0.00671326
0.00669318
0.00667021
0.0066438
0.00661296
0.00657751
0.00653434
0.00648969
0.00642363
0.00640368
0.00698351
0.00706966
0.00709512
0.00710062
0.00710218
0.00709886
0.0070925
0.00708446
0.00707542
0.00706583
0.00705595
0.00704599
0.00703604
0.00702619
0.00701646
0.00700689
0.00699747
0.00698823
0.00697915
0.00697025
0.00696151
0.00695293
0.00694451
0.00693624
0.00692811
0.0069201
0.00691219
0.00690438
0.00689665
0.00688896
0.00688129
0.00687363
0.00686593
0.00685818
0.0068503
0.00684226
0.00683397
0.00682537
0.00681638
0.00680689
0.00679681
0.00678599
0.00677427
0.00676148
0.00674737
0.00673167
0.00671406
0.00669412
0.00667135
0.00664519
0.00661472
0.00657977
0.00653748
0.00649382
0.00643054
0.0064112
0.00698954
0.00706721
0.00709255
0.00709863
0.00710047
0.00709743
0.00709134
0.00708352
0.00707467
0.00706522
0.00705547
0.00704561
0.00703575
0.00702596
0.0070163
0.00700678
0.00699741
0.00698821
0.00697917
0.0069703
0.00696159
0.00695304
0.00694465
0.0069364
0.00692829
0.00692029
0.00691241
0.00690461
0.00689688
0.0068892
0.00688155
0.00687389
0.00686621
0.00685846
0.00685059
0.00684256
0.00683429
0.00682571
0.00681674
0.00680728
0.00679723
0.00678645
0.00677479
0.00676206
0.00674803
0.00673244
0.00671495
0.00669518
0.00667262
0.00664675
0.00661668
0.00658228
0.00654092
0.00649832
0.00643784
0.00641899
0.00699525
0.00706515
0.00709016
0.00709671
0.00709877
0.00709601
0.00709017
0.00708257
0.00707389
0.00706458
0.00705495
0.00704518
0.0070354
0.00702568
0.00701607
0.00700659
0.00699727
0.00698811
0.00697911
0.00697027
0.00696159
0.00695308
0.00694471
0.00693649
0.0069284
0.00692043
0.00691256
0.00690479
0.00689708
0.00688942
0.00688178
0.00687413
0.00686647
0.00685873
0.00685088
0.00684287
0.00683462
0.00682606
0.00681712
0.0068077
0.00679768
0.00678696
0.00677535
0.00676269
0.00674876
0.00673328
0.00671593
0.00669634
0.00667402
0.00664846
0.00661885
0.00658503
0.00654467
0.00650318
0.00644555
0.00642707
0.00700068
0.00706343
0.00708796
0.00709488
0.00709713
0.00709462
0.00708901
0.00708162
0.00707311
0.00706394
0.00705441
0.00704473
0.00703502
0.00702536
0.0070158
0.00700637
0.00699708
0.00698795
0.00697898
0.00697018
0.00696153
0.00695304
0.0069447
0.0069365
0.00692844
0.00692049
0.00691265
0.0069049
0.00689721
0.00688957
0.00688196
0.00687434
0.00686669
0.00685898
0.00685115
0.00684316
0.00683493
0.00682641
0.0068175
0.00680812
0.00679816
0.00678749
0.00677595
0.00676337
0.00674954
0.00673418
0.006717
0.00669761
0.00667555
0.00665035
0.00662121
0.00658805
0.00654874
0.00650841
0.00645364
0.00643547
0.00700586
0.00706204
0.00708595
0.00709314
0.00709556
0.00709327
0.00708789
0.00708069
0.00707234
0.00706331
0.00705389
0.00704429
0.00703465
0.00702504
0.00701552
0.00700613
0.00699687
0.00698777
0.00697882
0.00697004
0.00696142
0.00695295
0.00694463
0.00693646
0.00692841
0.00692049
0.00691267
0.00690494
0.00689728
0.00688967
0.00688207
0.00687448
0.00686686
0.00685917
0.00685138
0.00684341
0.00683522
0.00682673
0.00681787
0.00680854
0.00679863
0.00678802
0.00677657
0.00676409
0.00675037
0.00673515
0.00671815
0.00669898
0.00667722
0.00665239
0.00662378
0.00659132
0.00655311
0.00651403
0.0064621
0.00644422
0.0070108
0.00706094
0.00708412
0.00709152
0.00709405
0.00709197
0.00708681
0.00707979
0.00707161
0.0070627
0.00705338
0.00704387
0.00703429
0.00702473
0.00701525
0.00700589
0.00699666
0.00698758
0.00697865
0.00696989
0.00696128
0.00695283
0.00694453
0.00693637
0.00692835
0.00692044
0.00691264
0.00690494
0.0068973
0.0068897
0.00688214
0.00687457
0.00686698
0.00685932
0.00685155
0.00684362
0.00683547
0.00682702
0.00681821
0.00680893
0.00679909
0.00678856
0.00677719
0.00676482
0.00675123
0.00673617
0.00671936
0.00670044
0.006679
0.00665459
0.00662655
0.00659483
0.00655779
0.00652
0.00647092
0.00645333
0.0070155
0.00706011
0.00708246
0.00708998
0.00709261
0.00709072
0.00708577
0.00707894
0.0070709
0.00706212
0.00705291
0.00704347
0.00703395
0.00702444
0.007015
0.00700566
0.00699646
0.0069874
0.00697849
0.00696974
0.00696114
0.00695271
0.00694442
0.00693627
0.00692826
0.00692037
0.00691259
0.00690489
0.00689727
0.0068897
0.00688216
0.00687461
0.00686705
0.00685942
0.00685168
0.00684378
0.00683567
0.00682727
0.00681851
0.0068093
0.00679953
0.00678908
0.00677781
0.00676556
0.00675211
0.00673723
0.00672063
0.00670198
0.00668088
0.00665692
0.0066295
0.00659858
0.00656276
0.00652634
0.00648006
0.00646282
0.00701996
0.00705952
0.00708096
0.00708854
0.00709123
0.00708953
0.00708477
0.00707812
0.00707024
0.00706158
0.00705246
0.00704311
0.00703365
0.00702418
0.00701478
0.00700547
0.00699628
0.00698724
0.00697834
0.0069696
0.00696102
0.00695259
0.00694431
0.00693618
0.00692817
0.00692029
0.00691252
0.00690484
0.00689723
0.00688968
0.00688215
0.00687463
0.00686709
0.00685949
0.00685178
0.00684392
0.00683585
0.00682749
0.00681878
0.00680964
0.00679994
0.00678959
0.00677843
0.0067663
0.006753
0.00673831
0.00672195
0.0067036
0.00668287
0.0066594
0.00663262
0.00660256
0.00656801
0.00653301
0.00648952
0.0064727
0.00702421
0.00705915
0.00707959
0.00708719
0.00708992
0.00708838
0.00708382
0.00707734
0.0070696
0.00706107
0.00705205
0.00704277
0.00703337
0.00702396
0.00701458
0.0070053
0.00699614
0.00698711
0.00697822
0.00696949
0.00696092
0.0069525
0.00694422
0.00693609
0.0069281
0.00692023
0.00691246
0.00690479
0.0068972
0.00688965
0.00688215
0.00687464
0.00686712
0.00685954
0.00685187
0.00684404
0.00683601
0.0068277
0.00681905
0.00680997
0.00680036
0.00679009
0.00677905
0.00676705
0.00675392
0.00673944
0.00672332
0.00670529
0.00668496
0.00666201
0.00663593
0.00660677
0.00657353
0.00654
0.00649926
0.00648297
0.00702825
0.00705898
0.00707837
0.00708592
0.00708866
0.00708727
0.00708289
0.00707659
0.007069
0.00706059
0.00705167
0.00704247
0.00703313
0.00702376
0.00701442
0.00700516
0.00699602
0.006987
0.00697813
0.00696941
0.00696084
0.00695242
0.00694416
0.00693603
0.00692804
0.00692018
0.00691242
0.00690476
0.00689717
0.00688964
0.00688215
0.00687466
0.00686716
0.00685961
0.00685196
0.00684416
0.00683617
0.00682791
0.00681932
0.00681031
0.00680078
0.00679061
0.00677968
0.00676784
0.00675488
0.00674061
0.00672477
0.00670706
0.00668717
0.00666476
0.00663941
0.0066112
0.00657931
0.00654732
0.00650929
0.00649364
0.00703209
0.00705899
0.00707727
0.00708472
0.00708746
0.0070862
0.007082
0.00707587
0.00706843
0.00706014
0.00705132
0.0070422
0.00703292
0.00702359
0.00701429
0.00700506
0.00699593
0.00698693
0.00697807
0.00696935
0.00696079
0.00695238
0.00694412
0.006936
0.00692801
0.00692015
0.0069124
0.00690474
0.00689717
0.00688965
0.00688217
0.0068747
0.00686722
0.00685969
0.00685207
0.0068443
0.00683635
0.00682814
0.00681961
0.00681067
0.00680122
0.00679116
0.00678036
0.00676866
0.0067559
0.00674185
0.00672629
0.00670895
0.0066895
0.00666768
0.0066431
0.00661588
0.00658538
0.00655496
0.0065196
0.00650469
0.00703574
0.00705916
0.0070763
0.0070836
0.00708631
0.00708516
0.00708113
0.00707517
0.00706787
0.00705971
0.00705099
0.00704195
0.00703273
0.00702345
0.00701418
0.00700497
0.00699587
0.00698688
0.00697803
0.00696932
0.00696077
0.00695236
0.0069441
0.00693599
0.00692801
0.00692015
0.0069124
0.00690476
0.00689719
0.00688968
0.00688221
0.00687476
0.0068673
0.00685979
0.0068522
0.00684447
0.00683656
0.0068284
0.00681993
0.00681106
0.00680171
0.00679176
0.00678109
0.00676955
0.00675698
0.00674318
0.00672792
0.00671095
0.00669199
0.00667078
0.006647
0.00662081
0.00659174
0.00656292
0.00653021
0.00651614
0.00703922
0.00705948
0.00707545
0.00708255
0.0070852
0.00708416
0.00708029
0.00707449
0.00706734
0.0070593
0.00705068
0.00704172
0.00703256
0.00702333
0.0070141
0.00700492
0.00699583
0.00698686
0.00697802
0.00696932
0.00696077
0.00695237
0.00694412
0.006936
0.00692803
0.00692017
0.00691243
0.00690479
0.00689723
0.00688974
0.00688228
0.00687485
0.0068674
0.00685992
0.00685236
0.00684467
0.0068368
0.00682869
0.00682029
0.0068115
0.00680224
0.00679241
0.00678188
0.00677051
0.00675815
0.00674461
0.00672967
0.0067131
0.00669464
0.00667408
0.00665114
0.00662602
0.0065984
0.00657122
0.00654111
0.00652796
0.00704253
0.00705993
0.0070747
0.00708158
0.00708416
0.00708319
0.00707947
0.00707382
0.00706683
0.00705891
0.00705039
0.00704151
0.00703241
0.00702323
0.00701403
0.00700488
0.00699581
0.00698686
0.00697803
0.00696934
0.0069608
0.0069524
0.00694415
0.00693604
0.00692807
0.00692022
0.00691249
0.00690485
0.0068973
0.00688982
0.00688238
0.00687496
0.00686754
0.00686008
0.00685255
0.0068449
0.00683708
0.00682903
0.00682069
0.00681199
0.00680283
0.00679312
0.00678274
0.00677156
0.00675942
0.00674615
0.00673155
0.00671541
0.00669748
0.00667759
0.00665553
0.00663152
0.00660538
0.00657986
0.00655233
0.00654016
0.00704568
0.00706048
0.00707407
0.00708067
0.00708316
0.00708226
0.00707867
0.00707318
0.00706632
0.00705853
0.00705011
0.00704131
0.00703228
0.00702315
0.00701399
0.00700486
0.00699582
0.00698688
0.00697806
0.00696938
0.00696084
0.00695245
0.00694421
0.0069361
0.00692813
0.00692029
0.00691256
0.00690494
0.0068974
0.00688993
0.0068825
0.0068751
0.00686771
0.00686028
0.00685278
0.00684517
0.0068374
0.00682941
0.00682115
0.00681253
0.00680348
0.0067939
0.00678368
0.00677269
0.00676079
0.00674782
0.00673358
0.00671788
0.00670052
0.00668133
0.00666018
0.00663731
0.00661269
0.00658885
0.00656386
0.00655272
0.00704869
0.00706113
0.00707353
0.00707984
0.00708221
0.00708136
0.0070779
0.00707254
0.00706583
0.00705816
0.00704985
0.00704112
0.00703216
0.00702307
0.00701395
0.00700486
0.00699583
0.00698691
0.0069781
0.00696943
0.0069609
0.00695252
0.00694428
0.00693618
0.00692822
0.00692038
0.00691266
0.00690505
0.00689752
0.00689006
0.00688265
0.00687527
0.0068679
0.0068605
0.00685304
0.00684547
0.00683776
0.00682984
0.00682165
0.00681313
0.0068042
0.00679476
0.00678471
0.00677393
0.00676228
0.00674961
0.00673575
0.00672052
0.00670375
0.00668531
0.00666511
0.00664342
0.00662033
0.0065982
0.0065757
0.00656563
0.00705156
0.00706186
0.00707309
0.00707907
0.00708131
0.00708049
0.00707714
0.00707192
0.00706534
0.00705779
0.00704958
0.00704094
0.00703205
0.00702301
0.00701393
0.00700487
0.00699586
0.00698696
0.00697816
0.0069695
0.00696098
0.0069526
0.00694437
0.00693628
0.00692832
0.00692049
0.00691278
0.00690517
0.00689765
0.00689021
0.00688282
0.00687547
0.00686812
0.00686075
0.00685333
0.00684582
0.00683816
0.00683031
0.00682221
0.00681379
0.00680498
0.00679569
0.00678582
0.00677526
0.00676388
0.00675154
0.00673808
0.00672336
0.00670721
0.00668954
0.00667032
0.00664984
0.00662831
0.00660789
0.00658785
0.00657889
0.00705431
0.00706265
0.00707273
0.00707836
0.00708046
0.00707965
0.0070764
0.00707131
0.00706486
0.00705743
0.00704933
0.00704077
0.00703194
0.00702295
0.00701391
0.00700488
0.0069959
0.00698701
0.00697823
0.00696958
0.00696107
0.0069527
0.00694447
0.00693638
0.00692843
0.00692061
0.00691291
0.00690531
0.00689781
0.00689039
0.00688302
0.00687569
0.00686837
0.00686104
0.00685366
0.00684619
0.0068386
0.00683082
0.00682281
0.00681451
0.00680583
0.0067967
0.00678702
0.00677669
0.0067656
0.00675361
0.00674058
0.00672638
0.00671088
0.00669402
0.00667581
0.00665658
0.00663663
0.00661794
0.00660031
0.00659247
0.00705693
0.00706348
0.00707244
0.00707772
0.00707966
0.00707884
0.00707569
0.00707072
0.00706439
0.00705707
0.00704907
0.00704059
0.00703183
0.0070229
0.0070139
0.00700489
0.00699594
0.00698707
0.00697831
0.00696967
0.00696116
0.0069528
0.00694458
0.0069365
0.00692856
0.00692075
0.00691306
0.00690547
0.00689798
0.00689058
0.00688323
0.00687593
0.00686864
0.00686135
0.00685402
0.00684661
0.00683908
0.00683139
0.00682347
0.00681528
0.00680675
0.00679779
0.00678832
0.00677824
0.00676744
0.00675582
0.00674324
0.00672959
0.00671478
0.00669876
0.0066816
0.00666364
0.00664529
0.00662834
0.00661309
0.00660638
0.00705944
0.00706434
0.00707222
0.00707713
0.00707891
0.00707807
0.00707499
0.00707013
0.00706392
0.00705671
0.00704881
0.00704041
0.00703171
0.00702284
0.00701388
0.00700491
0.00699598
0.00698713
0.00697838
0.00696976
0.00696126
0.00695291
0.0069447
0.00693663
0.0069287
0.00692089
0.00691321
0.00690564
0.00689817
0.00689078
0.00688346
0.00687619
0.00686894
0.00686169
0.00685441
0.00684706
0.0068396
0.00683199
0.00682418
0.00681612
0.00680773
0.00679896
0.0067897
0.00677989
0.00676942
0.00675818
0.00674608
0.00673301
0.00671891
0.00670377
0.00668768
0.00667103
0.00665429
0.00663909
0.00662617
0.0066206
0.00706185
0.00706521
0.00707206
0.0070766
0.0070782
0.00707733
0.00707431
0.00706955
0.00706345
0.00705635
0.00704854
0.00704023
0.00703159
0.00702277
0.00701385
0.00700492
0.00699602
0.00698719
0.00697846
0.00696984
0.00696136
0.00695302
0.00694482
0.00693676
0.00692884
0.00692105
0.00691338
0.00690582
0.00689837
0.00689101
0.00688371
0.00687647
0.00686926
0.00686205
0.00685482
0.00684754
0.00684016
0.00683264
0.00682495
0.00681702
0.00680879
0.00680021
0.00679119
0.00678165
0.00677152
0.0067607
0.00674909
0.00673663
0.00672327
0.00670904
0.00669407
0.00667875
0.00666363
0.0066502
0.00663955
0.00663511
0.00706416
0.00706607
0.00707194
0.00707611
0.00707754
0.00707662
0.00707365
0.00706898
0.00706299
0.00705599
0.00704826
0.00704003
0.00703147
0.00702269
0.00701382
0.00700492
0.00699605
0.00698724
0.00697852
0.00696993
0.00696146
0.00695313
0.00694494
0.00693689
0.00692898
0.0069212
0.00691355
0.00690601
0.00689858
0.00689124
0.00688397
0.00687677
0.0068696
0.00686244
0.00685527
0.00684805
0.00684076
0.00683334
0.00682577
0.00681798
0.00680992
0.00680154
0.00679277
0.00678353
0.00677376
0.00676336
0.00675228
0.00674046
0.00672787
0.00671459
0.00670075
0.0066868
0.00667331
0.00666165
0.00665323
0.00664992
0.00706638
0.0070669
0.00707186
0.00707567
0.00707692
0.00707594
0.00707301
0.00706842
0.00706252
0.00705562
0.00704798
0.00703983
0.00703132
0.0070226
0.00701377
0.00700491
0.00699606
0.00698728
0.00697858
0.00697
0.00696155
0.00695323
0.00694505
0.00693702
0.00692912
0.00692136
0.00691372
0.00690621
0.0068988
0.00689148
0.00688425
0.00687708
0.00686995
0.00686285
0.00685574
0.0068486
0.00684139
0.00683408
0.00682663
0.006819
0.00681112
0.00680296
0.00679445
0.00678553
0.00677613
0.00676619
0.00675566
0.0067445
0.00673272
0.0067204
0.00670774
0.00669517
0.00668333
0.00667344
0.0066672
0.00666501
0.00706852
0.00706769
0.0070718
0.00707526
0.00707634
0.00707529
0.00707239
0.00706787
0.00706206
0.00705524
0.00704769
0.0070396
0.00703116
0.0070225
0.00701371
0.00700488
0.00699606
0.0069873
0.00697863
0.00697007
0.00696163
0.00695332
0.00694516
0.00693714
0.00692926
0.00692151
0.00691389
0.0069064
0.00689902
0.00689173
0.00688453
0.0068774
0.00687033
0.00686328
0.00685624
0.00684918
0.00684207
0.00683487
0.00682756
0.00682008
0.0068124
0.00680447
0.00679623
0.00678764
0.00677864
0.00676918
0.00675922
0.00674875
0.00673781
0.00672649
0.00671503
0.00670387
0.00669368
0.00668556
0.00668145
0.00668035
0.00707056
0.00706842
0.00707175
0.0070749
0.0070758
0.00707468
0.00707179
0.00706733
0.0070616
0.00705486
0.00704738
0.00703937
0.00703099
0.00702237
0.00701363
0.00700483
0.00699604
0.00698731
0.00697866
0.00697011
0.00696169
0.0069534
0.00694526
0.00693725
0.00692939
0.00692166
0.00691406
0.00690659
0.00689924
0.00689199
0.00688483
0.00687774
0.00687071
0.00686373
0.00685676
0.00684978
0.00684277
0.0068357
0.00682853
0.00682123
0.00681375
0.00680606
0.00679812
0.00678987
0.00678129
0.00677233
0.00676297
0.00675322
0.00674314
0.00673285
0.00672262
0.00671288
0.00670435
0.006698
0.00669596
0.00669595
0.00707249
0.00706906
0.0070717
0.00707456
0.0070753
0.0070741
0.00707121
0.00706681
0.00706114
0.00705448
0.00704707
0.00703912
0.0070308
0.00702223
0.00701353
0.00700476
0.00699601
0.00698729
0.00697867
0.00697014
0.00696174
0.00695347
0.00694534
0.00693735
0.00692951
0.0069218
0.00691423
0.00690678
0.00689946
0.00689224
0.00688512
0.00687809
0.00687112
0.00686419
0.0068573
0.00685042
0.00684352
0.00683657
0.00682955
0.00682243
0.00681517
0.00680774
0.0068001
0.00679222
0.00678407
0.00677564
0.0067669
0.0067579
0.00674871
0.00673948
0.00673049
0.0067222
0.00671533
0.00671075
0.00671073
0.00671179
0.00707429
0.00706961
0.00707165
0.00707427
0.00707484
0.00707357
0.00707068
0.00706631
0.0070607
0.0070541
0.00704676
0.00703886
0.00703059
0.00702207
0.0070134
0.00700468
0.00699595
0.00698726
0.00697865
0.00697015
0.00696177
0.00695352
0.00694541
0.00693744
0.00692961
0.00692193
0.00691438
0.00690697
0.00689968
0.0068925
0.00688542
0.00687844
0.00687153
0.00686468
0.00685787
0.00685108
0.0068443
0.00683749
0.00683063
0.0068237
0.00681666
0.0068095
0.00680218
0.00679469
0.006787
0.0067791
0.00677102
0.00676279
0.00675451
0.00674636
0.00673864
0.00673181
0.0067266
0.00672378
0.00672574
0.00672784
0.00707587
0.00707006
0.00707161
0.00707401
0.00707444
0.00707309
0.00707019
0.00706585
0.00706028
0.00705374
0.00704645
0.0070386
0.00703038
0.0070219
0.00701327
0.00700457
0.00699587
0.00698721
0.00697862
0.00697014
0.00696178
0.00695355
0.00694546
0.00693751
0.00692971
0.00692205
0.00691453
0.00690715
0.00689989
0.00689275
0.00688572
0.00687879
0.00687195
0.00686517
0.00685845
0.00685177
0.0068451
0.00683844
0.00683175
0.00682502
0.00681822
0.00681134
0.00680436
0.00679727
0.00679005
0.00678272
0.0067753
0.00676787
0.00676053
0.00675349
0.00674705
0.00674169
0.00673813
0.00673706
0.00674095
0.00674408
0.00707714
0.00707041
0.00707158
0.0070738
0.00707411
0.00707268
0.00706976
0.00706544
0.00705991
0.0070534
0.00704615
0.00703835
0.00703016
0.00702172
0.00701312
0.00700445
0.00699578
0.00698714
0.00697858
0.00697012
0.00696177
0.00695356
0.00694549
0.00693757
0.00692979
0.00692215
0.00691467
0.00690731
0.0069001
0.006893
0.00688602
0.00687915
0.00687237
0.00686568
0.00685905
0.00685248
0.00684594
0.00683942
0.00683291
0.00682639
0.00681985
0.00681326
0.00680663
0.00679995
0.00679322
0.00678648
0.00677975
0.00677313
0.00676675
0.00676083
0.00675569
0.00675181
0.00674989
0.00675056
0.00675634
0.0067605
0.00707793