/*--------------------------------*- C++ -*----------------------------------*\
  =========                 |
  \\      /  F ield         | OpenFOAM: The Open Source CFD Toolbox
   \\    /   O peration     | Website:  https://openfoam.org
    \\  /    A nd           | Version:  6
     \\/     M anipulation  |
\*---------------------------------------------------------------------------*/
FoamFile
{
    version     2.0;
    format      ascii;
    class       volScalarField;
    location    "0";
    object      p;
}
// * * * * * * * * * * * * * * * * * * * * * * * * * * * * * * * * * * * * * //

dimensions      [0 2 -2 0 0 0 0];

internalField   nonuniform List<scalar> 
918
(
0.0056588
0.0649902
-0.0195322
-0.00165761
-0.00185904
0.0894083
0.00499847
0.00428302
-0.00203793
0.00234187
-0.0188909
0.00328991
0.0656032
-0.00453752
0.00476818
-0.00303744
0.00851462
-0.0287468
-0.0026789
-0.00651394
0.0530105
0.00573047
0.0054486
0.00180255
0.00467998
-0.012232
-0.0142105
0.00493096
0.00793317
0.00798075
0.00196922
-0.00374954
0.00130771
0.00228692
0.0519116
0.0595924
0.00155931
-0.025493
-0.0014281
0.00286631
0.00510843
-0.0118516
0.00541814
0.0053218
0.00194363
0.00376896
0.00369492
0.00150864
-7.27402e-05
-0.00197744
0.00635334
0.00424983
-0.0041228
0.0201208
-0.000695164
-0.0066586
0.0019263
-0.0073844
-0.00319638
-0.0192416
-0.0198867
-0.0188336
-0.0183648
0.00354882
0.00348018
0.00115271
0.00369937
0.00378588
0.0406869
0.040515
0.0451237
0.113152
0.0541053
0.054357
0.0251625
0.00595094
0.00291335
0.00446249
0.0273773
-0.000984318
0.00354504
0.00756062
0.0158669
0.0039415
-0.00644391
-0.00702711
0.00848855
0.0070542
0.00667709
0.00734226
-0.0211718
-0.0134405
-0.00692093
0.00174014
0.00146805
0.00127836
0.000878969
-0.00345759
-0.00331776
-0.00592487
-0.00727667
-0.00245737
-0.00672767
-0.00662675
0.027436
0.0246276
-0.00211487
1.42858e-05
0.00246219
0.00277295
0.00153959
7.10389e-05
0.00287064
0.00439797
0.0193428
0.00260169
0.0128289
-0.00822405
0.00269266
-0.00153991
0.0143656
0.0214212
0.00786117
0.00275453
-0.00451956
-0.00344973
-0.0062383
0.000496709
0.000134753
0.00185081
0.00142822
0.00252247
-0.0154501
-0.0110725
-0.0231019
-0.00609116
0.00397991
0.00599267
-0.00962433
-0.0132166
-0.0200792
0.00451543
0.00471376
0.00603703
0.00218506
4.36687e-05
0.00298712
-0.0027944
-0.00717943
0.00364825
0.00160914
0.00212661
0.000637047
8.28966e-05
-0.000127249
0.00278331
0.00529454
-0.00481615
0.000808767
-0.00931543
0.0124768
0.00167327
-0.0188461
-0.00694775
-0.0191221
-0.0165237
-0.0210462
-0.0063307
-0.0041571
0.000814597
-0.00406639
-0.0171917
-0.0164868
-0.0106619
-0.0147924
-0.0126922
0.0039209
0.00342843
0.00265013
0.00145401
0.00115905
0.00122687
0.000420706
0.00140278
0.00851445
-0.0104072
-0.00924887
0.00953445
0.00809395
-0.015286
0.0276939
0.0140987
-0.000163711
0.00341653
0.000566277
0.00888686
0.00393962
0.00418878
-0.0117131
-0.0109814
-0.0069152
-0.00737917
0.00682709
0.00638233
-0.0199409
-0.0211201
-0.0153595
-0.0193428
-0.000142589
0.000228668
0.000997498
0.000910995
-0.0159411
-0.0122828
-0.0169376
0.00226035
0.0070525
0.00383272
0.000585839
0.00230469
0.0011219
0.00103537
0.00527927
0.00514203
0.00459658
0.0016479
-0.00539968
-0.00486115
0.0486125
-0.00707255
0.0389062
0.015193
0.0113304
0.0535084
-0.000102484
0.000379319
0.000255213
0.000412139
0.000730789
0.00033932
0.00180849
0.00226516
0.00220929
-0.0206758
-0.0186377
-0.0538109
-0.0327404
0.0098899
-0.000422614
0.00416815
-0.000311279
0.00726865
0.00656496
0.00695988
0.000299655
0.00362317
0.00882785
0.00613615
0.00265021
0.0032034
0.00336751
-0.00289554
0.000125557
-0.00195163
-0.00343582
-0.0143406
-0.00870225
-0.00605077
-0.0270317
-0.00193886
0.00726456
0.00883003
0.00613904
-0.00511132
-0.00343684
-0.000602241
-0.0348127
-0.0356652
-0.0162504
-0.0174516
-0.0143543
0.0290085
0.00337868
0.00220313
0.0192523
0.0130184
-0.0142853
-0.00903757
-0.0171808
-0.0607641
-0.0412708
-0.00186761
-0.00305906
0.00101722
0.000800179
-0.00263395
-0.00201731
0.00436455
0.000723612
-0.0321709
-0.0172422
-0.0278159
-0.000316598
0.00371941
0.0101487
-0.00150492
0.00235311
-0.000725688
-0.00754892
-0.00168581
-0.00127228
-0.0114468
0.00383098
0.00350857
0.000600844
1.702e-05
0.0103714
0.0243758
-0.0158395
-0.00427309
0.00573404
0.00364204
-0.000918558
0.00346216
0.00077239
-0.00515824
-0.00948747
0.0144732
0.00251581
0.000767408
-0.00018768
0.00385265
0.00663011
-0.00367603
0.00154196
-0.00373103
-0.0100154
-0.0118634
-0.00949563
0.00271907
0.00192324
-0.00311695
-0.00148799
4.84787e-05
0.00649273
0.00320471
0.00111106
0.00429857
-0.00453928
-0.00019997
-0.000908475
0.00206657
0.0024056
-0.0340902
-0.0181898
-0.027123
0.00418564
0.0378653
-0.0144187
-0.0155202
-0.0146414
0.00018249
0.00541047
0.003342
0.00916941
-0.000107657
0.00268814
0.00701233
-0.00114711
-0.000123005
6.34805e-05
0.000994953
-0.000512877
0.000483295
-0.00132778
0.000767413
0.00392833
0.00211821
0.0209392
0.00384506
0.00136666
-0.00544491
0.0161203
-0.00403153
0.0234105
0.0198164
-0.00706386
-0.0187493
-0.018406
-0.0163033
-0.0196548
-0.0147502
-0.000634636
-0.016828
-0.00379267
-0.00241546
-0.000292597
-0.0129444
-0.0110482
-0.010884
0.00163853
0.000113439
0.0027418
0.00323222
0.000685335
-0.000470985
0.00213947
-0.000576595
0.00238345
0.000427977
-0.000267468
0.00124907
-0.00235527
-0.00479854
0.00227509
-0.00190028
-0.00420262
-0.00888153
-0.00967711
-0.0121123
-0.0165577
-0.00722117
-0.0148757
-0.0111712
0.0121855
-0.00623981
-0.0497242
-0.0331109
-0.0334777
0.000173331
-0.00126475
-0.000909401
-0.00246031
0.000958813
0.00554734
0.00583316
0.000528607
0.0010908
0.000989114
-0.00149664
-0.000797396
0.00469348
0.0113084
0.00418414
-0.001643
-0.00355187
0.00587274
0.00210781
0.000155522
0.00228123
0.000570621
-0.0834877
-0.0526552
0.0304402
0.0442924
0.0192041
0.0699111
0.025135
0.0589885
0.0632241
-0.00586867
0.00386079
0.016499
-0.000433011
-0.0200696
-0.0171904
0.00997309
0.00692073
-0.00288756
0.00700994
0.000402943
-0.0129212
0.00627257
0.00586735
0.00195853
0.000819001
0.00624209
0.00391136
0.00380887
0.00341104
0.00552763
0.00059731
-0.000663962
0.00720281
0.00297835
0.00543894
0.00413813
0.00441481
0.00515064
0.00181835
0.000613755
0.0008465
0.00429805
-0.000716907
0.00152975
0.00259058
0.00215511
-0.003202
-0.00207691
-0.000809194
0.000573607
-0.0125949
-0.0153201
-0.0128013
-0.00551117
-0.0077452
-0.00666478
-0.0177383
0.041739
0.0812134
-0.0415393
-0.00565665
-0.00566224
-0.0366431
-0.019463
-0.0290385
-0.0159124
-0.0274775
-0.0282125
-0.00504813
-0.00408675
-0.017624
0.00382935
0.0170154
-0.0110083
-0.0160495
-0.0216616
-0.018977
-0.0144348
-0.0242839
-0.0218827
-0.0105986
-0.019576
-0.0156589
-0.0164542
-0.0200204
-0.0184813
-0.0170897
-0.027371
-0.0135991
-0.00894576
-0.010905
-0.00836535
-0.0166096
-0.00543741
0.000270166
0.00228401
0.00176957
0.00348589
0.00203059
0.00244457
-0.000126937
0.00185993
-0.00343896
-0.00137603
0.00262973
0.00300836
0.002064
0.00236821
0.00293543
0.00121428
0.00132
0.000322037
0.00158717
0.00312093
0.000499799
0.0030047
0.00108781
0.00107325
0.00169037
-0.000124798
-0.0124401
-0.0113135
-0.0072901
-0.00245441
-0.00403116
-0.00621053
-0.0182605
-0.0168058
-0.00779585
-0.00521547
-0.0122362
-0.0126576
0.0270447
0.0108501
0.00458213
0.0126972
0.00573981
-0.0556201
-0.0488429
-0.0481051
-0.0210118
-0.0303868
-0.0494768
-0.0487644
-0.00420694
-0.0319964
-0.0257262
-0.00531272
0.0171645
-0.00671142
0.00239525
0.00362709
-0.0028817
-0.00151118
-0.00282904
0.00138676
0.00520659
0.00342826
0.00725331
-0.00592537
-0.0561238
-0.0141527
-0.00971286
-0.0416556
0.00603623
0.00634879
0.00456348
0.00644119
0.00618821
-0.000676976
0.00801667
0.011779
0.00511717
0.00320825
0.00441407
0.00503688
0.0018703
0.00225117
0.002308
0.00294718
0.000533827
0.000699521
0.00244094
0.00234642
0.00306425
0.00234444
0.00557898
0.00294457
0.00385643
0.00291321
0.00210266
0.00412194
0.00410345
-0.000899399
0.000604764
-0.000361956
-0.00156942
0.0019196
0.00227453
0.00201581
0.0692021
0.0955993
0.00542281
-0.0294199
-0.0132096
-0.0228538
-0.0235768
-0.0240416
-0.0119223
-0.0342411
-0.025912
-0.0315875
0.00133177
-0.111751
-0.0548024
-0.0845593
-9.71535e-05
-0.00221364
-0.0102574
-0.0141647
-0.00268385
0.00387284
0.00609866
0.00517195
0.00220279
0.00312237
0.00226464
0.00453334
0.00603142
0.00244033
-0.00204788
0.00666709
-0.00293428
0.00320481
0.00237355
0.00294276
0.000887143
0.00999194
0.00267193
-0.000163722
-0.000441066
0.0043378
0.00741868
0.0103548
0.00867124
0.00544402
0.00228809
0.00675621
0.00765735
0.00469767
0.0069004
0.00476117
0.0050834
0.00553733
0.00203959
-0.00294384
-0.00387051
-0.00194445
-0.000710741
0.000668887
0.000785057
0.00142554
0.000792044
0.000835335
-0.000489509
-0.0154914
-0.014994
-0.0168347
-0.0162177
0.0189684
0.0387555
0.0498791
0.024596
-0.0223702
-0.0243934
0.00508169
-0.0110164
-0.0160674
-0.0137354
0.0218709
0.0365729
0.0367665
0.0626064
-0.00921419
-0.0167707
-0.0119091
-0.0173483
-0.00641832
-0.0160296
-0.0267851
-0.025803
-0.0263377
-0.0241095
-0.0213408
-0.0329956
-0.0248468
-0.0340883
-0.0264408
-0.00880491
-0.00895263
-0.00846618
-0.0134355
-0.0216533
-0.0117689
-0.0185587
-0.0159937
0.00023697
-0.00414285
-0.00416657
-0.00910287
-0.00164577
-0.00373759
0.00152325
-0.00191366
0.00153581
0.00175144
0.0011915
0.000551919
0.00202847
-0.0119739
-0.0178477
-0.0206403
-0.0174995
-0.0164412
-0.0159034
-0.00984693
0.0514349
0.0409499
0.0383188
0.0401269
0.0121803
0.0302109
-0.0478635
-0.0244322
-0.0675304
0.0222637
-0.00250576
0.0130389
0.00615837
0.00879715
0.0216152
-0.000976986
0.00928158
-0.0282003
-0.00424402
-0.0124696
-0.0015896
0.0205875
-0.0633407
-0.0309517
0.0185264
-0.057539
-0.00328307
-0.00198156
0.00124966
-0.013612
-0.0258114
0.0232562
0.0420934
0.046553
-0.0452281
0.0103258
-0.00442163
0.00893803
0.00478127
-0.0491737
0.0284732
0.00769247
0.00446412
0.00580891
0.00678823
0.0053458
0.00587291
0.00395516
0.0049319
0.00476865
0.00418806
0.00309442
0.0120631
0.0186373
0.0410275
0.00193344
-0.00613781
-0.000594049
-0.0611446
0.0365137
0.0353061
-0.0273457
-0.0126402
0.00394588
0.00378557
0.0167791
0.0052162
0.008246
0.00715543
0.00608704
0.0066119
0.0072346
0.00499297
0.00769982
0.0113191
0.00501697
0.00497647
0.00752754
0.00611614
0.00174405
0.00600724
-0.000930318
0.00301478
0.00133384
0.00256365
0.00210502
-0.00772396
0.0181683
0.0306267
0.0310867
0.0200832
-0.020643
-0.015775
-0.0213083
-0.0148925
-0.0044652
-0.014633
-0.05728
-0.0185488
0.0236717
0.0326058
-0.00975941
-0.016823
-0.015294
-0.0286441
-0.0598237
-0.0204488
0.00770799
-0.00507768
0.0157948
-0.0250298
-0.0271194
-0.0371215
-0.0796331
-0.0343795
-0.0593442
-0.027584
-0.0521305
-0.0408783
-0.0156512
-0.0376815
0.0251818
0.0729058
0.0389987
-0.00185209
0.0100049
0.0441683
0.00598524
0.00410248
0.00314548
0.0103855
0.00758166
-0.0516347
-0.0341455
-0.0673826
-0.0809937
0.0367389
-0.0256543
-0.00322621
-0.083052
-0.0731807
)
;

boundaryField
{
    wall-4
    {
        type            calculated;
        value           nonuniform List<scalar> 
100
(
0.0056588
0.0649902
-0.0195322
-0.00165761
0.0894083
0.00499847
0.00428302
0.00234187
-0.0188909
0.00328991
0.0656032
-0.00453752
0.00476818
0.00851462
-0.0287468
-0.0026789
-0.00651394
0.0530105
0.00180255
0.00467998
-0.012232
-0.0142105
0.00493096
0.00228692
0.00155931
0.00286631
-0.0118516
0.0053218
0.00194363
0.00369492
0.00150864
-0.0066586
-0.0073844
-0.0198867
-0.0183648
0.00354882
0.00115271
0.00378588
0.0541053
0.0251625
0.00291335
0.0273773
0.00354504
0.0158669
0.0070542
0.00734226
-0.00692093
0.00146805
-0.00331776
-0.00727667
-0.00662675
0.0246276
1.42858e-05
0.00153959
7.10389e-05
0.00439797
0.0193428
-0.00822405
-0.00153991
0.0214212
0.000134753
0.00185081
0.00252247
0.00599267
-0.0200792
0.00603703
0.00298712
-0.00717943
0.00212661
-0.000127249
-0.0191221
-0.0210462
-0.0106619
-0.0126922
0.00342843
0.00145401
0.00115905
0.00140278
0.00953445
0.0140987
0.00638233
-0.000142589
0.000910995
-0.0169376
0.00383272
0.00230469
0.00103537
0.00459658
-0.00539968
0.0389062
0.000255213
0.00033932
0.00220929
0.00695988
0.00362317
0.00336751
-0.00343582
0.00613904
0.0130184
-0.00263395
)
;
    }
    velocity-inlet-5
    {
        type            calculated;
        value           nonuniform List<scalar> 8(0.0056588 -0.00165761 -0.00203793 0.00573047 -0.00197744 -0.0041228 0.00127836 -0.00481615);
    }
    velocity-inlet-6
    {
        type            calculated;
        value           nonuniform List<scalar> 4(0.0649902 0.0894083 0.0595924 0.0451237);
    }
    pressure-outlet-7
    {
        type            calculated;
        value           uniform 0;
    }
    wall-8
    {
        type            calculated;
        value           nonuniform List<scalar> 
34
(
-0.00185904
-0.00303744
0.00130771
-0.025493
0.0201208
-0.00319638
-0.00702711
-0.0211718
-0.0062383
-0.0110725
-0.00609116
0.00451543
-0.00931543
0.00167327
-0.0041571
-0.00406639
-0.015286
-0.0117131
-0.00737917
-0.0211201
-0.0193428
-0.0186377
-0.0538109
-0.000422614
-0.000311279
0.00613615
-0.00193886
-0.000602241
-0.0356652
-0.0143543
-0.0412708
-0.00305906
0.000723612
-0.0278159
)
;
    }
    frontAndBackPlanes
    {
        type            empty;
    }
}

