/*--------------------------------*- C++ -*----------------------------------*\
  =========                 |
  \\      /  F ield         | OpenFOAM: The Open Source CFD Toolbox
   \\    /   O peration     | Website:  https://openfoam.org
    \\  /    A nd           | Version:  6
     \\/     M anipulation  |
\*---------------------------------------------------------------------------*/
FoamFile
{
    version     2.0;
    format      ascii;
    class       volVectorField;
    location    "0";
    object      U_rec;
}
// * * * * * * * * * * * * * * * * * * * * * * * * * * * * * * * * * * * * * //

dimensions      [0 1 -1 0 0 0 0];

internalField   nonuniform List<vector> 
918
(
(0.982936 -0.00531674 0)
(-0.00051352 2.98184 0)
(-0.0138937 1.68646 0)
(0.976305 0.00698734 0)
(-0.00115767 1.64526 6.17673e-17)
(-0.00282924 2.97065 -4.93008e-17)
(0.952004 1.45964 7.14299e-21)
(0.456778 0.229219 1.52234e-19)
(0.992338 -4.56041e-05 0)
(0.00620752 1.3858 0)
(0.00143124 1.52234 0)
(0.876532 -0.0034698 0)
(0.00200793 2.98931 0)
(0.00512492 2.9003 0)
(0.00160255 2.88289 1.32717e-17)
(-0.00763341 1.61338 3.65619e-17)
(0.638843 0.129098 8.41191e-18)
(0.15658 1.55491 -4.3576e-17)
(0.983165 0.00480591 0)
(0.00100681 1.59082 0)
(-0.0480925 -0.0136358 9.53132e-19)
(0.984076 0.00964274 0)
(1.0062 0.0123921 0)
(1.01657 -0.000366292 0)
(0.792117 -0.00429462 0)
(0.0178932 2.95126 0)
(-0.00742992 2.94556 -9.36657e-17)
(-0.0183483 1.71406 0)
(0.0016142 1.76245 0)
(-0.00855512 1.71114 0)
(-0.0135871 1.79498 0)
(-0.0136107 1.65859 6.17897e-17)
(-0.00788246 1.61513 0)
(-0.0114681 3.01207 -7.32775e-23)
(0.0037197 3.02155 -4.57289e-17)
(0.0216099 3.00223 0)
(0.930533 -0.00369355 0)
(0.604451 1.12208 -9.36844e-18)
(0.976943 1.4655 -3.6673e-18)
(1.09366 1.29558 2.06948e-17)
(0.828484 1.59527 1.13316e-17)
(0.799339 1.57498 1.13849e-17)
(0.474917 0.301241 1.74922e-19)
(0.508842 0.220556 0)
(1.27056 0.680991 0)
(0.405568 0.316385 5.64572e-19)
(0.380958 0.214702 4.61792e-19)
(0.957258 -0.00346069 0)
(0.998336 0.00232575 0)
(0.992428 0.00374868 0)
(0.992488 0.00315245 0)
(0.983085 0.00820584 0)
(0.993172 0.0139105 0)
(0.0418016 1.60783 -5.02352e-19)
(0.0123405 1.43594 0)
(0.0254671 1.35899 0)
(-0.0103199 1.47439 0)
(-0.0117368 1.43568 0)
(-0.010278 1.6532 0)
(-0.000412575 1.61883 0)
(-0.000167881 1.52516 0)
(-0.0102272 1.63157 0)
(-0.00448951 1.52801 0)
(0.9491 0.0015382 0)
(0.924231 0.0126498 0)
(0.890747 0.000441859 0)
(0.914187 0.0149795 0)
(0.861648 -0.00285404 0)
(-0.0278813 3.03987 3.36236e-17)
(0.00665589 2.96456 0)
(-0.0288703 3.00311 0)
(0.0381353 3.04376 1.51872e-23)
(-0.00175095 3.03614 3.18026e-17)
(0.0184049 3.01028 0)
(0.00313912 2.95895 0)
(0.00482819 2.97016 1.16387e-24)
(0.00386335 2.90576 0)
(-0.000320061 2.97787 0)
(0.00443604 2.89196 0)
(0.269631 3.15681 0)
(-0.0612 3.24175 0)
(0.0883518 2.93978 1.31993e-17)
(0.00200538 2.79135 0)
(-0.00678235 1.77276 0)
(-0.00345855 1.68557 3.66574e-17)
(-0.00417554 1.62256 3.64933e-17)
(0.670101 0.169257 -7.87773e-18)
(0.665695 0.0962678 -2.78563e-19)
(0.634042 0.20405 1.39828e-17)
(0.602581 0.161919 -1.51305e-17)
(0.219521 1.20598 0)
(0.284752 1.65672 -4.54683e-17)
(0.365005 1.63712 -4.53492e-17)
(0.99444 0.00548736 0)
(0.969793 0.0025076 0)
(0.991595 -0.00624272 0)
(1.00261 0.000857031 0)
(1.00447 0.0126857 1.17666e-16)
(1.00531 0.0150717 1.58608e-16)
(-0.0102993 1.65485 0)
(-0.00492715 1.57947 0)
(-0.0117083 1.71162 0)
(-0.0158637 1.67678 0)
(-0.00311429 1.61298 0)
(-0.0723594 0.242446 -1.29281e-18)
(0.155825 0.146871 0)
(1.01563 -0.0165471 0)
(0.985169 -0.00351753 0)
(0.890562 0.0250759 0)
(0.852761 0.0456928 0)
(0.834327 -0.00265008 0)
(1.08694 -0.00240774 0)
(0.806017 0.0479615 0)
(0.735346 0.00328365 3.60808e-17)
(-0.0172104 2.87494 3.09213e-17)
(0.00774895 2.99196 0)
(-0.055119 3.03681 0)
(0.00574744 2.88421 0)
(-0.00502297 2.98551 -3.07867e-17)
(-0.00417119 2.93489 0)
(-0.0107228 2.98931 -3.34406e-17)
(-0.0109633 2.95626 3.2248e-17)
(0.00138374 1.77838 0)
(-0.00135901 1.77765 0)
(0.000971052 1.68432 -1.76561e-20)
(-0.00500234 1.67001 0)
(-0.00286045 1.61555 0)
(0.963443 -0.00037687 0)
(0.926951 -0.00356437 0)
(0.925718 0.00619518 0)
(0.969993 -0.00196866 0)
(0.941258 -0.00272802 0)
(0.652199 1.24788 -8.76032e-18)
(0.745682 1.29071 0)
(0.540724 1.07371 -1.03235e-18)
(0.509427 0.994268 0)
(1.08937 1.30013 2.07753e-17)
(1.18723 1.08689 -7.47937e-20)
(0.498279 1.70979 0)
(0.670527 1.69075 0)
(0.604729 1.63589 0)
(0.30202 0.670869 -7.6829e-18)
(0.525168 0.278824 0)
(0.543631 0.203978 -3.12732e-18)
(1.16195 1.10906 0)
(1.22006 0.90478 0)
(1.23921 0.873527 1.21216e-19)
(1.26461 0.712095 0)
(1.2897 0.501203 -3.12044e-17)
(0.97526 0.00171871 0)
(0.977441 -0.0042115 0)
(0.94702 -0.00172878 0)
(0.998069 -0.0084908 0)
(0.988185 -0.00927529 0)
(0.97039 -0.00243407 0)
(0.990433 -0.00394831 0)
(0.988838 9.9718e-05 0)
(0.993059 -0.00202081 0)
(0.0295724 1.7036 3.4831e-17)
(0.0421925 1.55779 0)
(0.0385696 1.71914 1.16328e-18)
(0.0241271 1.62153 -4.22132e-19)
(0.111343 1.552 -4.36149e-17)
(0.0485942 1.45492 0)
(0.072282 1.42764 0)
(-0.0148459 1.54351 0)
(-0.00135521 1.48374 0)
(-0.00396627 1.7224 4.44544e-21)
(0.00222433 1.66046 0)
(-0.00968102 1.71314 -3.65111e-17)
(-0.00127044 1.64517 2.29866e-19)
(-0.00212014 1.58666 0)
(-0.00120495 1.60868 0)
(0.0015734 1.51028 0)
(-0.00923664 1.64222 0)
(-0.00554534 1.54563 0)
(0.994137 0.0173788 0)
(0.968194 0.00385112 0)
(0.976918 0.0100561 0)
(0.938306 0.00145987 0)
(0.898543 -0.00195231 0)
(0.943227 0.00393871 0)
(0.934863 0.00744523 0)
(0.893157 -0.00266058 0)
(0.00913505 3.03667 -8.3718e-21)
(0.0144757 3.0329 0)
(0.00590909 2.99375 0)
(0.00330989 2.94347 0)
(0.985866 3.67991 0)
(1.37785 2.70978 -2.95294e-18)
(0.00371719 2.86508 0)
(-0.00944214 2.79299 0)
(-0.00711386 1.76666 0)
(-0.00890647 1.77154 0)
(-0.0103963 1.76981 0)
(-0.00784945 1.78773 -8.22673e-17)
(-0.0115586 1.77516 0)
(-0.00906437 1.78179 0)
(0.00265201 1.62628 -7.3171e-17)
(0.00462376 1.69716 -3.65151e-17)
(-0.00460689 1.69285 3.66334e-17)
(-0.000365191 1.62488 0)
(0.699783 0.129166 -1.58274e-17)
(0.682983 0.0599688 -1.66511e-17)
(0.18391 1.43236 0)
(0.271864 1.05635 -1.60033e-19)
(0.115871 1.50895 -3.22431e-17)
(0.139309 1.35018 -3.10481e-17)
(0.948669 0.00511994 0)
(0.97905 0.004311 0)
(0.984654 0.00843469 0)
(0.956392 0.00507432 0)
(-0.00972709 1.64672 0)
(-0.00617447 1.64762 0)
(-0.00675014 1.56391 0)
(0.319834 0.309124 2.41373e-18)
(0.185034 0.277254 -3.43231e-18)
(0.298012 0.197521 0)
(1.17647 0.101901 -9.01044e-20)
(1.18207 0.0596899 0)
(1.08954 0.0486021 0)
(1.02743 0.00624394 0)
(0.71589 0.0910122 0)
(0.747823 0.055191 1.59873e-17)
(0.695035 0.0258346 -1.60053e-17)
(-0.0194472 2.95328 -3.05754e-17)
(-0.00962894 2.90678 -6.20972e-17)
(0.00527335 3.02855 -2.57126e-20)
(0.031471 3.01968 -3.51572e-17)
(-0.0158871 3.003 1.18073e-20)
(-0.0100904 2.98347 -9.57005e-23)
(-0.0100654 3.0251 -7.21499e-18)
(0.00408473 2.98531 -6.48799e-18)
(0.0452279 3.02236 -3.61784e-17)
(0.972699 0.00447048 0)
(0.967801 0.00835474 0)
(0.931722 0.000903728 0)
(0.97372 0.00722934 0)
(0.965278 0.00790443 0)
(0.936852 0.00542415 0)
(0.949377 0.00345374 0)
(0.957259 0.0098261 0)
(0.9083 0.00329811 0)
(0.799422 1.45847 -4.06922e-19)
(0.887076 1.51661 0)
(0.405691 0.829689 1.9826e-18)
(0.388905 0.894954 9.9753e-19)
(0.456264 0.97352 -1.62597e-17)
(0.433362 0.907302 -1.43941e-17)
(0.371806 0.962217 7.67762e-18)
(0.287892 0.691897 2.24626e-17)
(0.600219 0.232395 -7.51951e-18)
(0.566937 0.258167 -2.46662e-18)
(0.578888 0.188228 7.24696e-18)
(1.29033 0.52462 -3.143e-17)
(1.28709 0.334268 -2.28663e-19)
(0.0223228 1.71868 -3.51048e-17)
(0.0140376 1.6324 0)
(1.04005 0.0322972 0)
(1.01035 0.0212208 0)
(0.991236 0.00183986 0)
(0.0129166 3.04415 0)
(0.014666 2.97434 -3.07094e-17)
(0.0103367 2.98539 0)
(0.00341269 2.92562 -3.25707e-17)
(0.0100108 3.05571 1.84197e-17)
(0.00942887 3.04863 0)
(0.864554 1.7477 -2.72463e-18)
(1.20307 2.31054 -1.41457e-17)
(0.96108 1.82626 -1.39427e-17)
(-0.0321444 2.91344 3.00749e-17)
(-0.0309495 2.87073 0)
(-0.018721 2.83388 0)
(-0.0103216 1.69582 7.26619e-17)
(0.00428369 1.68998 -4.9261e-19)
(-0.00808594 1.62519 7.25495e-17)
(0.236845 1.32496 -1.45853e-17)
(0.287826 0.887568 -1.50451e-17)
(0.0311456 1.66532 -3.23735e-17)
(0.0719386 1.60757 -3.3242e-17)
(0.0680145 1.47583 -6.55109e-17)
(-0.0216288 3.06616 1.24277e-16)
(-0.00988703 3.06299 1.26703e-16)
(0.00790497 2.98685 3.23039e-17)
(-0.0186065 2.98027 -3.16819e-17)
(-0.00124039 2.93765 3.10239e-17)
(0.0156853 3.05937 -1.10937e-16)
(-0.00837449 3.05387 -1.26347e-16)
(0.337632 0.910387 0)
(0.32995 0.870476 -1.3583e-17)
(0.345999 0.704189 -1.47972e-17)
(0.351725 1.0283 3.74034e-17)
(0.293682 0.718803 2.12106e-17)
(1.26658 0.202488 -5.78721e-19)
(1.29203 0.362081 0)
(1.26176 0.177917 -1.29529e-19)
(-0.00210939 1.7278 4.58771e-22)
(0.0201505 1.72726 0)
(0.00710311 1.64939 0)
(0.285354 1.2543 1.1885e-19)
(0.343107 1.15807 -3.73589e-17)
(0.277632 0.791321 -2.86384e-17)
(1.00189 -0.0239192 0)
(1.00129 -0.0127909 2.01379e-17)
(0.000137718 1.77379 0)
(-0.0132912 1.78994 0)
(1.0012 -0.00209042 4.96192e-19)
(1.00182 0.00143552 3.02008e-17)
(-0.000128642 1.78796 -8.22918e-17)
(-0.00203894 1.78338 0)
(-0.0259621 2.95701 3.14704e-17)
(0.29968 2.9639 0)
(1.10068 0.699431 -3.00721e-17)
(1.00425 0.00858898 9.16314e-17)
(1.01393 -0.00444638 0)
(1.00509 -0.00161643 3.8454e-19)
(-0.0945598 1.50567 0)
(-0.0506992 2.0685 0)
(-0.0229357 1.76368 0)
(-0.0057613 1.79723 -8.06982e-17)
(-0.0167674 1.78131 8.09016e-17)
(0.987766 0.0123498 8.98112e-17)
(1.03432 0.0203434 0)
(1.05823 0.0309902 0)
(-0.0037757 1.77539 0)
(0.000402259 1.77746 0)
(-0.019393 1.7767 0)
(0.279963 1.57429 -8.88309e-17)
(1.00542 -0.013768 0)
(1.00591 -0.014862 0)
(0.995134 0.00588838 -1.43203e-17)
(0.995207 -0.00490906 1.87063e-17)
(0.995202 -0.00406022 0)
(-0.00179118 1.76808 0)
(-0.00511212 1.76629 0)
(-0.00430157 1.76463 0)
(-0.0126127 1.77686 0)
(-0.0315827 1.77705 0)
(-0.0184923 1.76902 0)
(1.01228 -0.00205107 0)
(1.00863 0.00876789 9.1817e-17)
(0.843924 1.42948 -3.8377e-18)
(1.00153 -0.00764791 1.47055e-17)
(0.998115 0.00449956 -1.83802e-17)
(1.00233 0.00332542 0)
(1.0014 0.0112768 4.64398e-17)
(1.00685 0.0143226 4.40401e-17)
(1.00409 0.0112713 0)
(0.00214585 1.77999 0)
(0.00443777 1.78036 -4.13902e-17)
(-0.00315129 1.77603 -3.71358e-17)
(1.16198 0.255327 -5.58136e-17)
(1.09974 0.0834224 0)
(-0.261196 2.95954 2.50243e-17)
(-0.277564 3.25302 3.12279e-19)
(-0.0485321 3.00117 6.02906e-17)
(-0.0491224 2.95383 3.68073e-17)
(0.0413269 2.92657 0)
(-0.0300813 3.01892 1.64843e-17)
(-0.115047 3.12585 3.06765e-17)
(-0.0929532 3.00006 1.57717e-17)
(-0.0687561 3.09477 0)
(0.631928 0.334369 0)
(0.522814 0.381798 0)
(1.07721 0.82617 3.67486e-17)
(1.07506 0.900796 3.47495e-17)
(1.14592 0.639385 0)
(1.16146 0.556965 0)
(1.00685 0.0061911 1.17867e-18)
(1.00369 0.00562283 1.62043e-18)
(1.0163 -0.00542789 0)
(1.0102 -0.0118543 0)
(0.999419 0.0111608 0)
(1.00582 0.00457781 0)
(1.00556 0.00666763 0)
(1.00159 0.00698937 0)
(1.00364 0.00512719 0)
(0.993267 0.00566168 0)
(-0.0842473 1.52388 0)
(-0.106713 1.53905 0)
(-0.0133153 1.49096 0)
(0.0306619 1.5126 0)
(-0.0380763 2.10297 0)
(0.0144565 2.10402 3.64183e-17)
(-0.0525574 2.05796 0)
(-0.0631149 1.99934 3.62188e-17)
(-0.0220576 1.85656 -7.70263e-17)
(-0.024673 1.7679 0)
(-0.0111513 1.77161 0)
(-0.0221323 1.75344 0)
(-0.0278811 1.73801 0)
(-0.0292325 1.79712 -8.15446e-17)
(-0.0352157 1.77852 -5.15629e-17)
(-0.00456406 1.79789 4.12952e-17)
(-0.0151821 1.79785 0)
(0.00828107 1.78574 3.28915e-17)
(-7.35763e-06 1.78616 -7.78997e-17)
(-0.0554902 1.81037 -1.23748e-16)
(-0.0387298 1.75707 -5.18693e-17)
(-0.0164703 1.77287 4.09421e-17)
(0.992283 0.0195736 3.02543e-18)
(0.9958 0.00551166 -1.89904e-18)
(0.986315 0.0254519 2.26211e-18)
(0.974612 0.0164449 2.03111e-18)
(1.03198 0.0130706 0)
(1.02816 0.0068879 0)
(1.04439 0.0352417 0)
(1.03786 0.0303015 0)
(1.04002 0.0154994 0)
(1.08709 0.0736851 0)
(1.06511 0.063154 0)
(1.07856 0.0408867 0)
(-0.0140103 1.78804 1.07039e-17)
(-0.00473057 1.76455 0)
(-0.0156265 1.77355 0)
(-0.0032033 1.77694 -1.58355e-17)
(-0.000821113 1.77924 1.37616e-20)
(-0.0144065 1.79213 4.79403e-17)
(-0.0288405 1.77836 4.78511e-17)
(-0.00902483 1.76924 0)
(-0.0324915 1.7752 0)
(-0.0179244 1.76637 0)
(-0.00950467 1.77918 0)
(-0.0118673 1.78097 0)
(0.437006 1.63383 -6.32763e-17)
(0.431829 1.65998 4.40175e-17)
(0.432394 1.98203 -5.20243e-19)
(0.249288 2.07161 3.3673e-17)
(0.385145 1.93758 4.02497e-17)
(1.01327 -0.010771 0)
(1.01068 -0.00609499 0)
(1.01459 -0.00851129 0)
(1.00506 0.00411365 0)
(0.99785 -0.00464495 0)
(0.990865 -0.00187582 0)
(1.00256 -0.00264898 0)
(1.00434 -0.00201189 0)
(1.00645 0.00665431 3.80972e-18)
(1.00212 0.00626043 -1.73189e-18)
(1.00941 0.0113608 1.53916e-18)
(1.00471 0.00990694 1.61194e-18)
(0.76043 1.53238 0)
(0.732779 1.56111 -8.53375e-17)
(0.900243 1.38115 7.47703e-17)
(0.947556 1.2981 7.50943e-17)
(1.00408 2.08517 -1.90869e-17)
(0.825288 0.120616 -1.78037e-17)
(1.11241 0.135658 0)
(1.1576 0.18958 -1.0913e-16)
(1.13631 0.141193 -1.60855e-19)
(0.952349 0.136903 0)
(-0.102598 2.67236 6.13168e-17)
(-0.416414 2.58874 6.76236e-17)
(-0.892207 2.69539 1.20146e-17)
(-0.726676 0.188106 -1.4562e-17)
(0.188635 2.95752 -1.30468e-17)
(0.0320076 2.95587 0)
(0.133859 2.92952 -1.3268e-17)
(0.010712 2.66881 7.28066e-17)
(0.192869 2.695 0)
(-0.0257938 3.04771 -8.91557e-20)
(-0.0376738 3.0693 -2.86259e-17)
(-0.00665166 3.09241 -2.74154e-17)
(-0.050006 3.10924 0)
(-0.0529864 3.04448 0)
(1.14052 2.14517 0)
(0.491587 1.06624 5.01786e-17)
(1.02343 1.09844 -3.55065e-17)
(0.98914 1.22745 0)
(0.822206 1.09429 -1.69578e-17)
(1.04688 1.0453 -6.67096e-17)
(0.153817 0.422544 -6.57359e-18)
(0.64365 0.337979 1.30254e-17)
(0.664071 0.29868 1.59649e-17)
(0.459454 0.451741 2.27064e-19)
(0.425213 0.386603 -3.83344e-18)
(0.59717 0.379707 0)
(0.597379 0.477454 1.58255e-17)
(0.617617 0.426574 0)
(0.539568 0.403442 0)
(0.577391 0.345941 0)
(0.67679 0.686872 3.93215e-17)
(1.17532 0.343418 3.46115e-17)
(1.18236 0.465062 0)
(1.17536 0.384601 0)
(0.740273 0.233338 2.48818e-17)
(0.723386 0.626775 3.68165e-17)
(0.613961 0.566004 1.6307e-17)
(0.879145 0.427085 -9.28744e-17)
(1.00254 0.00378385 4.40808e-17)
(1.00363 0.0152918 4.24731e-17)
(0.998031 0.00912095 0)
(1.00874 0.00198875 0)
(1.00773 -0.0153444 -4.30049e-17)
(1.00071 -0.0110676 -4.08364e-17)
(1.01536 -0.000250946 0)
(1.00419 0.0074385 0)
(1.00786 0.000800272 0)
(1.00278 0.00206039 0)
(1.0083 -0.000296688 0)
(1.00495 -0.00434475 0)
(-0.0990609 1.60018 0)
(-0.0879632 1.61821 0)
(-0.0494081 1.42221 -5.74567e-17)
(0.237485 1.58571 -4.3393e-17)
(0.119241 1.51116 8.29806e-17)
(0.145793 1.52675 3.97341e-17)
(0.0819786 1.47009 0)
(-0.0226299 1.86727 7.72357e-17)
(-0.125617 1.80653 0)
(0.310977 1.99866 4.01476e-17)
(0.254062 2.0785 -4.65587e-17)
(0.0967348 1.70988 7.72484e-17)
(0.27911 1.46523 -4.46035e-17)
(0.121512 1.46323 -4.45849e-17)
(0.308175 1.47909 -1.2154e-17)
(0.207614 1.79099 0)
(0.303247 1.77935 -5.56081e-17)
(-0.117186 1.84963 5.75432e-18)
(-0.035052 1.89371 0)
(-0.146581 1.93599 -7.76314e-17)
(-0.138762 1.87785 0)
(-0.0492882 1.97246 3.5908e-17)
(-0.0363157 1.91494 0)
(-0.0232696 1.76544 5.79381e-17)
(-0.0353047 1.7833 0)
(-0.0485146 1.74843 0)
(-0.0380097 1.76158 5.82554e-17)
(-0.0301205 1.80342 -1.27161e-16)
(-0.00904462 1.84604 -7.35631e-17)
(-0.0167437 1.8242 5.13134e-21)
(-0.0183725 1.77309 8.36477e-17)
(-0.0483747 1.79267 -4.23677e-17)
(-0.0172591 1.77605 0)
(-0.012623 1.78557 0)
(-0.11113 1.81255 3.439e-17)
(-0.097257 1.76243 2.94126e-17)
(-0.0735872 1.79405 6.34617e-17)
(-0.176494 1.80954 0)
(0.000131008 1.78254 1.0998e-16)
(-0.0117526 1.77585 1.86996e-17)
(0.000909034 1.78144 -2.10587e-17)
(-0.00740406 1.78561 8.34674e-17)
(0.0082954 1.75231 -4.3954e-18)
(-0.00663685 1.75927 -4.75443e-17)
(1.00342 0.0150383 4.23685e-17)
(1.00002 0.00555943 4.33708e-17)
(0.998941 0.00861255 0)
(0.990654 0.0482838 -6.30317e-17)
(0.966308 0.0502957 2.78427e-18)
(0.949821 0.0322832 7.03642e-18)
(0.985176 0.089611 7.95194e-20)
(1.01693 0.00373864 0)
(1.02116 0.0112071 -4.21727e-17)
(1.0171 0.0029975 -4.32229e-17)
(1.02919 0.0363156 3.06513e-18)
(1.03086 0.0371289 -6.28037e-18)
(1.02494 0.0491408 0)
(1.01531 0.0436053 -1.33559e-18)
(1.00665 0.0284354 0)
(1.0005 0.0297567 0)
(1.01804 0.0219853 0)
(1.00579 0.0110355 0)
(1.01273 0.0301982 7.78579e-18)
(1.0135 0.0227732 2.51628e-17)
(1.02855 0.032099 -1.00821e-17)
(1.02058 0.02821 7.17338e-18)
(1.02192 0.06836 3.74911e-17)
(1.04058 0.0631309 0)
(1.03186 0.0929887 0)
(-0.000206013 1.79001 -5.81102e-17)
(0.0167246 1.76889 -9.46237e-19)
(-0.00659903 1.77646 0)
(0.00712262 1.78608 -5.79868e-17)
(0.000814448 1.79186 9.77775e-18)
(0.00139994 1.78342 -4.36429e-18)
(-0.0073596 1.78491 -8.28868e-17)
(0.000668689 1.77484 -2.3788e-19)
(0.0044996 1.77022 -5.20434e-18)
(-0.00327876 1.77804 3.65334e-17)
(-0.0034747 1.7824 3.68936e-17)
(-0.000718148 1.7677 -2.49943e-17)
(-0.00370534 1.78412 -4.14608e-17)
(0.441056 1.50767 3.11645e-17)
(0.435591 1.5467 -5.45006e-18)
(0.676666 1.6385 -8.51514e-17)
(0.546543 1.68345 4.40702e-17)
(0.586303 1.65194 0)
(0.439032 1.96196 -3.12343e-18)
(0.499959 1.94461 4.80715e-19)
(0.301085 2.04786 -7.96468e-18)
(0.274541 2.13646 -4.01447e-17)
(0.385302 2.10181 -2.84701e-17)
(0.382196 2.00214 0)
(0.359835 2.00945 -1.54766e-17)
(0.0926099 2.11499 5.74047e-18)
(0.191122 2.09493 6.70724e-17)
(0.130696 2.09936 1.15847e-18)
(0.752829 1.90331 -3.37379e-17)
(0.643289 1.92032 0)
(1.01016 0.0103645 8.5201e-20)
(1.00801 -0.00431023 3.2903e-20)
(1.00465 -0.0171 -1.31415e-17)
(1.01499 -0.00509124 -1.22812e-17)
(1.00989 0.00331397 0)
(0.688307 1.44899 0)
(0.630168 1.36729 0)
(0.763295 1.24152 0)
(0.681318 1.28745 0)
(0.982946 2.10163 3.13968e-17)
(0.930794 1.93156 0)
(0.685972 1.90177 -1.13421e-18)
(0.675483 2.01529 0)
(0.699854 2.05714 7.52429e-17)
(0.766688 2.01465 7.59021e-17)
(0.806394 0.149454 0)
(0.789977 0.15216 8.17423e-20)
(0.887791 0.137327 1.80276e-17)
(0.8406 0.114716 -3.39837e-17)
(0.848779 0.0848146 -9.80037e-18)
(1.01947 0.253034 -3.99907e-17)
(0.897654 0.30585 3.09964e-17)
(0.850833 0.292054 3.53871e-17)
(0.946824 0.233305 2.04979e-17)
(0.891017 0.165946 3.19918e-17)
(0.871948 0.192941 -1.04814e-17)
(0.863368 0.265994 -1.35753e-18)
(0.850375 0.225395 0)
(0.947388 0.202785 2.95529e-17)
(0.989771 0.182419 0)
(0.981728 0.251887 0)
(1.05465 0.126999 -1.02825e-17)
(0.999987 0.18271 3.41085e-17)
(0.994385 0.213038 2.13897e-17)
(1.03983 0.201056 0)
(0.994992 0.0267468 -3.33391e-17)
(1.00739 0.0352018 4.12895e-17)
(1.00859 0.035392 -3.45644e-17)
(1.00765 0.0560361 4.1194e-17)
(0.983836 0.0495799 -6.78639e-17)
(0.945639 0.144602 0)
(0.954278 0.0700466 0)
(0.945423 0.055406 4.34464e-17)
(0.921941 0.053435 1.11968e-17)
(0.990162 0.0980698 -3.46683e-17)
(1.01634 0.1291 -3.80113e-17)
(1.01029 0.150325 -1.922e-18)
(0.973865 0.148723 0)
(1.02 0.101148 0)
(1.01228 0.0867778 3.49363e-17)
(0.993513 0.0868933 -3.47425e-17)
(0.572591 1.32589 3.18017e-17)
(0.59138 1.53791 -2.50807e-17)
(0.928002 2.19649 1.70657e-17)
(0.984073 2.45111 -1.56417e-18)
(1.0401 2.17684 -4.01482e-17)
(1.09862 2.22358 9.3197e-18)
(1.09691 1.96498 8.9107e-18)
(1.01271 2.35406 -2.159e-17)
(1.0129 2.33215 -8.99102e-18)
(1.04932 2.55437 6.25193e-19)
(1.17478 2.43438 5.06647e-19)
(1.24245 2.38803 0)
(0.469917 1.12217 -4.16888e-18)
(-0.193721 1.41374 -1.28625e-17)
(0.00546631 0.604402 -3.20908e-18)
(-0.120665 0.840004 -1.40025e-17)
(0.337199 0.453757 -4.58846e-18)
(0.353356 0.509209 -5.41789e-18)
(0.297565 0.606708 1.18447e-19)
(0.199106 0.472813 2.01574e-19)
(0.299359 0.380802 -2.32634e-18)
(0.723168 0.277337 2.35648e-17)
(0.678887 0.302607 0)
(0.70009 0.260655 6.6722e-18)
(0.599546 0.567444 -9.91785e-18)
(0.514566 0.538978 4.03672e-18)
(0.422707 0.584301 -6.37901e-18)
(0.494405 0.492181 0)
(0.568333 0.943319 -2.33683e-17)
(0.739471 0.902582 5.66244e-17)
(0.681535 1.05675 5.02633e-17)
(0.782693 0.929914 1.24592e-17)
(0.895 0.927683 -5.47455e-18)
(0.896629 0.993714 -5.36239e-18)
(0.780533 0.762319 -1.66485e-18)
(0.84374 0.807777 1.27788e-17)
(0.93213 0.856963 0)
(0.926372 0.732056 2.52886e-17)
(0.952121 0.329485 5.7808e-17)
(1.06147 0.328393 -1.68216e-17)
(0.99718 0.313621 -4.99617e-17)
(0.90758 0.403614 4.70637e-17)
(0.998486 0.453763 0)
(1.02972 0.428619 0)
(0.821566 0.391622 5.4642e-17)
(0.778022 0.293756 0)
(0.776627 0.296984 -1.25877e-17)
(0.865308 0.326492 7.4426e-17)
(0.832753 0.500083 -7.17299e-17)
(0.758 0.554482 5.24702e-18)
(0.798256 0.50635 3.28112e-18)
(0.725745 0.46872 4.29017e-18)
(0.715289 0.478563 -3.34033e-18)
(0.675615 0.452997 -3.92563e-18)
(1.01805 -0.00443929 -4.34435e-17)
(1.00863 -0.0099222 0)
(1.01734 -0.000372208 1.71624e-17)
(1.00929 0.00701481 -2.79364e-17)
(1.01875 0.00366575 -2.0027e-17)
(1.00893 0.0145922 -9.74689e-18)
(1.00665 0.0112896 0)
(1.00858 0.00463408 1.1596e-17)
(1.00914 0.00788624 5.69421e-18)
(1.00467 0.00787307 -6.97635e-18)
(1.00798 0.00303573 1.20182e-17)
(-0.0618062 1.7173 0)
(-0.0794286 1.75655 0)
(-0.070301 1.65848 0)
(-0.0539047 1.68043 0)
(-0.190979 1.69534 -1.84882e-18)
(-0.163297 1.60013 -1.19083e-16)
(-0.170766 1.80886 -3.68719e-17)
(-0.205379 1.71236 -9.25401e-17)
(-0.155436 1.76124 5.94128e-17)
(-0.145596 1.76472 6.92129e-17)
(-0.174278 1.68771 1.31097e-16)
(-0.15397 1.68889 5.98333e-17)
(-0.116315 1.70387 1.0667e-17)
(-0.115076 1.74638 1.28146e-18)
(-0.152919 1.97222 -7.80069e-17)
(-0.118421 2.04303 0)
(-0.168718 2.01894 -4.34351e-17)
(-0.201213 1.87232 -4.50178e-18)
(0.134355 1.97382 -2.05166e-17)
(0.0662836 2.13008 0)
(0.100855 2.1077 5.55426e-17)
(0.161605 2.10407 5.61897e-17)
(0.0302479 1.99862 -7.04878e-17)
(-0.0722559 2.03976 -8.87814e-17)
(-0.0727548 2.09562 0)
(-0.0853335 1.80372 3.28046e-17)
(-0.0566177 1.77185 -2.65981e-17)
(-0.0609247 1.78578 0)
(-0.056606 1.82503 2.29439e-17)
(-0.118101 1.84031 2.031e-17)
(-0.0268283 1.77461 1.0615e-17)
(-0.0211434 1.77183 -1.13016e-16)
(-0.0339635 1.78523 -7.12468e-17)
(-0.0506798 1.77421 5.20336e-17)
(-0.0398144 1.77373 0)
(0.00399185 1.78777 0)
(-0.00993414 1.77856 -4.16739e-17)
(-0.00646972 1.77334 -4.31661e-18)
(-0.0068536 1.77971 0)
(-0.00743489 1.78398 3.70923e-17)
(-0.0083814 1.77834 -6.0819e-19)
(1.01878 0.0318006 0)
(1.02961 0.0242044 -5.90683e-19)
(1.01221 0.0241338 4.24221e-17)
(1.02325 0.0159878 0)
(1.01952 0.00742828 0)
(1.02203 0.00537886 2.33364e-17)
(1.01766 0.0112299 -4.97431e-17)
(1.01093 0.00879016 -6.84176e-18)
(1.00701 0.00893375 0)
(1.00834 0.0113883 0)
(1.00929 0.0169482 3.8033e-17)
(1.00274 0.017273 0)
(1.00678 0.0157731 0)
(-0.00639416 1.78429 0)
(-0.00168093 1.78013 -4.51089e-17)
(-0.00174406 1.7744 4.70002e-17)
(-0.00778551 1.76834 0)
(0.00640823 1.78812 -4.21162e-17)
(-0.00798111 1.77406 -2.09787e-17)
(-0.0117515 1.7655 0)
(0.460348 1.66825 0)
(0.407576 1.54072 1.93838e-17)
(0.386089 1.54843 0)
(0.473891 1.49197 9.749e-17)
(0.51397 1.55785 0)
(0.516007 1.55598 3.38224e-17)
(0.810564 2.08376 -4.36248e-19)
(0.772519 1.89157 -3.52602e-17)
(0.733264 1.74881 -1.48975e-17)
(0.659033 1.89984 -7.43589e-18)
(0.666909 2.00283 0)
(0.719682 1.99555 0)
(0.710863 1.90096 0)
(0.702174 1.8916 -8.64894e-18)
(0.557448 2.06292 -4.58475e-17)
(0.639621 1.9894 3.35252e-18)
(0.630494 2.03822 3.49416e-18)
(0.517929 1.93228 0)
(0.590156 1.92169 0)
(0.572031 1.93089 -4.65082e-19)
(0.600482 2.01221 0)
(0.630383 1.2449 0)
(0.570403 1.16671 -7.49221e-17)
(0.557544 1.14343 -6.8663e-18)
(0.592436 1.25017 0)
(0.577831 1.2044 -6.94445e-17)
(0.720935 1.06932 -1.27205e-17)
(0.774491 1.20292 0)
(0.787706 1.11879 -2.9147e-17)
(0.685978 1.20801 0)
(0.614052 1.15761 0)
(0.916319 2.16786 1.13505e-17)
(0.903534 2.2426 -1.3798e-17)
(0.749982 1.99375 -3.83155e-17)
(0.736334 1.9601 -4.73824e-18)
(0.898273 2.13603 0)
(0.843526 2.11763 -3.36484e-18)
(0.888744 1.99446 -8.41106e-18)
(0.841701 1.82171 -8.3319e-18)
(0.524941 1.47794 0)
(0.526945 1.31922 3.1501e-17)
(0.556486 1.37134 0)
(0.822264 0.211086 0)
(0.778294 0.184658 0)
(0.758248 0.193881 0)
(0.805759 0.254645 -1.3453e-17)
(0.748276 0.232607 8.34374e-18)
(0.929526 0.0790399 1.06575e-17)
(0.921463 0.118553 0)
(0.900533 0.0955915 7.29762e-19)
(0.858399 0.0803562 1.01824e-18)
(0.864949 0.0541884 -9.54855e-18)
(1.04321 2.72187 -1.30453e-17)
(0.973367 2.62164 0)
(0.932899 2.79387 -5.21579e-17)
(0.587665 3.00131 -3.87235e-17)
(0.714175 2.52605 9.6648e-18)
(0.449098 1.20021 -2.29051e-17)
(0.530926 1.11245 0)
(0.234094 0.845106 6.50576e-18)
(0.256008 0.94459 5.12344e-17)
(0.176249 0.820668 9.33404e-18)
(0.251854 0.644945 7.2281e-18)
(0.488454 0.643223 -6.21009e-18)
(0.511946 0.691354 0)
(0.461366 0.793094 0)
(0.350051 0.749343 0)
(0.907978 0.690053 1.37439e-17)
(0.828767 0.603933 3.24765e-18)
(0.843233 0.642369 1.43257e-18)
(0.868204 0.525234 1.82233e-17)
(0.974697 0.555704 0)
(0.979187 0.619578 -1.30815e-17)
(0.774471 0.419968 4.26485e-18)
(0.774259 0.37151 1.86329e-17)
(0.713425 0.396416 8.4057e-19)
(0.712126 0.376314 -2.47066e-18)
(0.758726 0.337952 -1.39071e-17)
(0.736284 0.315755 -1.29682e-17)
(1.02536 -0.000802048 -4.79601e-17)
(1.02455 -0.00399946 -2.51508e-17)
(1.02395 -0.000850004 4.74823e-17)
(1.02259 -0.00166102 4.60229e-17)
(1.018 0.0182442 0)
(1.00246 0.0133779 -3.07106e-17)
(-0.190123 1.83602 2.92404e-17)
(-0.185369 1.81537 0)
(-0.244652 1.86458 -4.55773e-17)
(-0.232596 1.8528 -6.6848e-17)
(-0.225411 1.80301 -3.67158e-17)
(-0.228771 1.8201 0)
(0.0109898 1.79388 0)
(0.00868954 1.78105 -2.13235e-17)
(-0.00349713 1.77145 -2.12655e-17)
(-0.00369228 1.78022 -5.3548e-17)
(-0.0159966 1.78564 -1.1433e-17)
(0.0125598 1.78858 -4.33048e-18)
(0.527105 1.48125 -1.28117e-16)
(0.52708 1.51474 -1.32191e-16)
(0.516571 1.49936 7.74961e-17)
(0.52014 1.48731 -4.98735e-18)
(0.644892 1.49299 0)
(0.580833 1.57933 7.7708e-17)
(0.622809 1.53641 7.8032e-17)
(0.533815 1.48046 7.79131e-17)
(0.554065 1.46939 0)
(0.583242 1.41431 0)
(0.566861 2.0698 -4.50582e-17)
(0.515531 2.0136 -6.38879e-17)
(0.548649 2.01152 -6.5215e-17)
(0.457708 2.01747 -3.36096e-18)
(0.45943 2.17349 4.07709e-18)
(0.399353 2.11202 -2.53506e-17)
(0.785934 1.87137 -1.66217e-17)
(0.833438 1.90096 0)
(0.772768 1.74926 -9.06905e-19)
(0.846693 2.08402 0)
(0.817138 2.08697 0)
(0.56136 2.00062 -7.26128e-18)
(0.921897 2.45669 -7.9881e-18)
(0.798404 2.46238 3.51429e-18)
(0.16665 1.24738 0)
(0.205893 1.20375 -1.83733e-17)
(0.441785 1.11776 -4.18289e-17)
(0.378603 1.94373 0)
(0.376599 2.30055 9.9433e-18)
(0.200822 2.27731 0)
(0.597881 0.855314 -2.27608e-17)
(0.629258 0.846319 -4.1429e-17)
(0.6484 0.8 -3.52898e-17)
(0.488193 0.8275 -2.80662e-18)
(0.562294 0.721634 -2.06554e-18)
(0.838108 2.26875 -7.68043e-18)
(0.891233 2.24979 -1.45414e-17)
(0.649624 1.97084 1.76877e-17)
(0.630015 1.67608 2.72319e-17)
(0.688131 1.7458 3.57106e-17)
(0.845278 2.0395 -3.22734e-17)
(0.848292 2.04183 -1.4923e-17)
(0.710241 1.70083 1.1566e-18)
(0.564004 1.44903 3.79294e-17)
)
;

boundaryField
{
    wall-4
    {
        type            calculated;
        value           uniform (0 0 0);
    }
    velocity-inlet-5
    {
        type            calculated;
        value           uniform (1 0 0);
    }
    velocity-inlet-6
    {
        type            calculated;
        value           uniform (0 3 0);
    }
    pressure-outlet-7
    {
        type            calculated;
        value           nonuniform List<vector> 8((-0.0138631 1.68669 0) (-0.00126206 1.64498 6.17673e-17) (0.00199219 1.76261 0) (-0.0130353 1.79494 0) (-0.00665417 1.77255 0) (-0.00107416 1.7774 0) (-0.0103375 1.76958 0) (-0.0088237 1.78158 0));
    }
    wall-8
    {
        type            calculated;
        value           uniform (0 0 0);
    }
    frontAndBackPlanes
    {
        type            empty;
    }
}

