/*--------------------------------*- C++ -*----------------------------------*\
  =========                 |
  \\      /  F ield         | OpenFOAM: The Open Source CFD Toolbox
   \\    /   O peration     | Website:  https://openfoam.org
    \\  /    A nd           | Version:  6
     \\/     M anipulation  |
\*---------------------------------------------------------------------------*/
FoamFile
{
    version     2.0;
    format      ascii;
    class       volVectorField;
    location    "0";
    object      U;
}
// * * * * * * * * * * * * * * * * * * * * * * * * * * * * * * * * * * * * * //

dimensions      [0 1 -1 0 0 0 0];

internalField   nonuniform List<vector> 
9000
(
(0.593853 0.130008 0)
(0.467521 0.0617098 0)
(0.288945 0.0200217 0)
(0.20486 0.0092183 0)
(0.159242 0.00463104 0)
(0.131792 0.00251936 0)
(0.114276 0.00149506 0)
(0.102592 0.000945016 0)
(0.0945613 0.000621455 0)
(0.0889446 0.00041812 0)
(0.0849813 0.000284371 0)
(0.0821766 0.00019384 0)
(0.0801949 0.000131573 0)
(0.0788015 8.8443e-05 0)
(0.0778296 5.85604e-05 0)
(0.0771588 3.79629e-05 0)
(0.0767019 2.39101e-05 0)
(0.0763956 1.44724e-05 0)
(0.0761941 8.27696e-06 0)
(0.0760643 4.34321e-06 0)
(0.0759826 1.97074e-06 0)
(0.075932 6.61215e-07 0)
(0.0759009 6.23915e-08 0)
(0.0758811 -7.25994e-08 0)
(0.0758671 8.48506e-08 0)
(0.0758554 4.16739e-07 0)
(0.0758438 8.42067e-07 0)
(0.075831 1.30463e-06 0)
(0.0758169 1.76384e-06 0)
(0.0758016 2.1877e-06 0)
(0.075786 2.54729e-06 0)
(0.0757718 2.81209e-06 0)
(0.075761 2.9457e-06 0)
(0.0757568 2.90151e-06 0)
(0.0757632 2.61759e-06 0)
(0.0757859 2.01012e-06 0)
(0.0758326 9.6416e-07 0)
(0.0759136 -6.80645e-07 0)
(0.0760432 -3.1539e-06 0)
(0.0762417 -6.79903e-06 0)
(0.076538 -1.21676e-05 0)
(0.0769755 -2.02494e-05 0)
(0.0776212 -3.31135e-05 0)
(0.0785867 -5.57792e-05 0)
(0.0800742 -0.000102012 0)
(0.0824976 -0.000218114 0)
(0.0867774 -0.000582551 0)
(0.0947941 -0.00162358 0)
(0.116159 -0.00662159 0)
(0.169177 -0.047781 0)
(0.953842 0.308914 0)
(0.864701 0.22484 0)
(0.658891 0.12662 0)
(0.521704 0.0725766 0)
(0.429752 0.0434512 0)
(0.367368 0.0274089 0)
(0.324392 0.0180884 0)
(0.294294 0.0123317 0)
(0.272934 0.00858538 0)
(0.25765 0.0060499 0)
(0.246668 0.00428691 0)
(0.238776 0.00303979 0)
(0.233119 0.00214898 0)
(0.229084 0.00151005 0)
(0.226227 0.0010519 0)
(0.224223 0.000724586 0)
(0.222832 0.000492345 0)
(0.22188 0.000329186 0)
(0.221236 0.000216077 0)
(0.220808 0.000139037 0)
(0.220528 8.77885e-05 0)
(0.220347 5.47969e-05 0)
(0.220229 3.4556e-05 0)
(0.220151 2.30579e-05 0)
(0.220096 1.73922e-05 0)
(0.220053 1.54418e-05 0)
(0.220015 1.56498e-05 0)
(0.219979 1.68396e-05 0)
(0.219944 1.80733e-05 0)
(0.21991 1.8537e-05 0)
(0.21988 1.74425e-05 0)
(0.21986 1.39365e-05 0)
(0.219855 7.00753e-06 0)
(0.219877 -4.62077e-06 0)
(0.219939 -2.2626e-05 0)
(0.22006 -4.92753e-05 0)
(0.220263 -8.77038e-05 0)
(0.220584 -0.000142349 0)
(0.221069 -0.000219667 0)
(0.221786 -0.00032937 0)
(0.222828 -0.000486711 0)
(0.224337 -0.000716994 0)
(0.226529 -0.00106518 0)
(0.229753 -0.001618 0)
(0.2346 -0.00255871 0)
(0.242139 -0.00431432 0)
(0.254405 -0.0079776 0)
(0.275185 -0.0164437 0)
(0.315091 -0.0378712 0)
(0.387785 -0.104297 0)
(1.03416 0.315747 0)
(1.02385 0.311918 0)
(0.879656 0.220964 0)
(0.750495 0.147387 0)
(0.646698 0.0980436 0)
(0.568518 0.0663871 0)
(0.510896 0.0458963 0)
(0.468679 0.0322744 0)
(0.43777 0.0229623 0)
(0.415144 0.0164469 0)
(0.398601 0.0118097 0)
(0.386539 0.00847244 0)
(0.377783 0.00605595 0)
(0.371464 0.00430267 0)
(0.366938 0.00303226 0)
(0.363724 0.00211557 0)
(0.361466 0.00145854 0)
(0.359896 0.000991982 0)
(0.358819 0.000664649 0)
(0.35809 0.000438532 0)
(0.357601 0.000285441 0)
(0.357276 0.000184516 0)
(0.357059 0.000120375 0)
(0.356913 8.17121e-05 0)
(0.35681 6.02256e-05 0)
(0.356732 4.98003e-05 0)
(0.356668 4.58724e-05 0)
(0.356612 4.49341e-05 0)
(0.356562 4.41385e-05 0)
(0.356519 4.09745e-05 0)
(0.356489 3.2984e-05 0)
(0.356481 1.74939e-05 0)
(0.356505 -8.66256e-06 0)
(0.356581 -4.94723e-05 0)
(0.356731 -0.000110161 0)
(0.356988 -0.000197778 0)
(0.357393 -0.000322055 0)
(0.358007 -0.000496745 0)
(0.358908 -0.000741803 0)
(0.360209 -0.00108707 0)
(0.362071 -0.00157888 0)
(0.364726 -0.00229239 0)
(0.368524 -0.00335597 0)
(0.374007 -0.00500205 0)
(0.382044 -0.00767811 0)
(0.394064 -0.012301 0)
(0.412465 -0.0208546 0)
(0.440967 -0.0377373 0)
(0.486308 -0.0726445 0)
(0.552125 -0.149397 0)
(1.04681 0.275845 0)
(1.08279 0.347232 0)
(1.00322 0.290247 0)
(0.905347 0.216341 0)
(0.811485 0.155601 0)
(0.732965 0.111232 0)
(0.670889 0.0798251 0)
(0.623145 0.0576158 0)
(0.586959 0.0417709 0)
(0.559784 0.0303478 0)
(0.539521 0.0220413 0)
(0.52451 0.0159669 0)
(0.513466 0.0115133 0)
(0.5054 0.00824882 0)
(0.499558 0.00586243 0)
(0.495364 0.00412657 0)
(0.492383 0.00287276 0)
(0.490287 0.00197541 0)
(0.488829 0.00134057 0)
(0.487826 0.000897879 0)
(0.487142 0.000594742 0)
(0.48668 0.000391957 0)
(0.486366 0.000260402 0)
(0.486151 0.000178508 0)
(0.485999 0.000130312 0)
(0.485885 0.000103946 0)
(0.485796 9.04578e-05 0)
(0.485724 8.2885e-05 0)
(0.485665 7.55031e-05 0)
(0.485622 6.32049e-05 0)
(0.485604 4.09501e-05 0)
(0.485621 3.24026e-06 0)
(0.485692 -5.64367e-05 0)
(0.48584 -0.000146259 0)
(0.4861 -0.00027691 0)
(0.486517 -0.000462744 0)
(0.487149 -0.000723499 0)
(0.488079 -0.00108692 0)
(0.489417 -0.00159295 0)
(0.491316 -0.00230074 0)
(0.49399 -0.00330061 0)
(0.497744 -0.00473564 0)
(0.503022 -0.00684168 0)
(0.510479 -0.0100243 0)
(0.521096 -0.0150108 0)
(0.536341 -0.0231534 0)
(0.55834 -0.0370287 0)
(0.589703 -0.0615233 0)
(0.633152 -0.10525 0)
(0.686255 -0.182571 0)
(1.04375 0.235208 0)
(1.09838 0.351308 0)
(1.06786 0.330603 0)
(1.00537 0.268607 0)
(0.931908 0.205938 0)
(0.8631 0.154239 0)
(0.804473 0.114487 0)
(0.756958 0.0846938 0)
(0.719555 0.0625382 0)
(0.69066 0.0460806 0)
(0.668639 0.0338472 0)
(0.65204 0.0247517 0)
(0.639649 0.0179967 0)
(0.630486 0.0129934 0)
(0.623773 0.00930375 0)
(0.618902 0.006599 0)
(0.615403 0.00463131 0)
(0.612915 0.00321316 0)
(0.611164 0.00220263 0)
(0.609944 0.00149242 0)
(0.609101 0.00100165 0)
(0.608521 0.000669597 0)
(0.608122 0.000450829 0)
(0.607845 0.000311462 0)
(0.607647 0.000226235 0)
(0.607502 0.00017621 0)
(0.607392 0.000146969 0)
(0.607307 0.000127174 0)
(0.607245 0.000107401 0)
(0.60721 7.9151e-05 0)
(0.607211 3.39768e-05 0)
(0.607263 -3.73654e-05 0)
(0.607391 -0.000145817 0)
(0.607624 -0.000305078 0)
(0.608005 -0.000532971 0)
(0.60859 -0.000853316 0)
(0.609455 -0.00129865 0)
(0.6107 -0.00191437 0)
(0.61246 -0.00276513 0)
(0.614919 -0.0039453 0)
(0.618329 -0.00559628 0)
(0.62304 -0.00793611 0)
(0.629539 -0.0113113 0)
(0.638508 -0.0162888 0)
(0.650895 -0.0238209 0)
(0.667966 -0.0355323 0)
(0.69126 -0.0541922 0)
(0.722074 -0.0843514 0)
(0.760318 -0.132543 0)
(0.801027 -0.206231 0)
(1.03747 0.199487 0)
(1.09609 0.337873 0)
(1.09854 0.347532 0)
(1.06742 0.302577 0)
(1.01735 0.244758 0)
(0.963528 0.190948 0)
(0.913611 0.146166 0)
(0.870739 0.110675 0)
(0.835547 0.0831908 0)
(0.807496 0.0621571 0)
(0.785597 0.0461697 0)
(0.768771 0.0340793 0)
(0.756011 0.0249801 0)
(0.746449 0.0181683 0)
(0.73936 0.0131001 0)
(0.73416 0.00935624 0)
(0.730385 0.00661367 0)
(0.727673 0.00462405 0)
(0.725743 0.00319701 0)
(0.724382 0.00218712 0)
(0.723429 0.00148382 0)
(0.722765 0.00100344 0)
(0.722302 0.000682977 0)
(0.721976 0.000475093 0)
(0.721742 0.000344256 0)
(0.721572 0.00026362 0)
(0.721445 0.000212559 0)
(0.721353 0.000174691 0)
(0.721293 0.000136246 0)
(0.72127 8.46857e-05 0)
(0.721296 7.45856e-06 0)
(0.72139 -0.00010921 0)
(0.721579 -0.000281611 0)
(0.7219 -0.000530075 0)
(0.722403 -0.000880913 0)
(0.723153 -0.00136906 0)
(0.724238 -0.00204187 0)
(0.725773 -0.00296471 0)
(0.72791 -0.00422955 0)
(0.730852 -0.00596839 0)
(0.73487 -0.00837472 0)
(0.740328 -0.0117385 0)
(0.74771 -0.0165037 0)
(0.757655 -0.0233622 0)
(0.770972 -0.0334056 0)
(0.788604 -0.0483536 0)
(0.811435 -0.0708502 0)
(0.839661 -0.10469 0)
(0.871593 -0.154323 0)
(0.901779 -0.222872 0)
(1.03172 0.169089 0)
(1.0877 0.315432 0)
(1.11058 0.347669 0)
(1.10431 0.320228 0)
(1.0765 0.271036 0)
(1.03951 0.219137 0)
(1.00123 0.172486 0)
(0.96599 0.13347 0)
(0.935624 0.102047 0)
(0.910538 0.0772834 0)
(0.890413 0.0580383 0)
(0.874613 0.0432335 0)
(0.862422 0.0319408 0)
(0.853151 0.0233954 0)
(0.84619 0.0169805 0)
(0.841026 0.0122057 0)
(0.837235 0.00868431 0)
(0.834483 0.00611372 0)
(0.832502 0.00425878 0)
(0.83109 0.00293787 0)
(0.830089 0.00201166 0)
(0.829382 0.00137387 0)
(0.828882 0.000943909 0)
(0.828526 0.000660822 0)
(0.82827 0.000478526 0)
(0.828082 0.000361935 0)
(0.827946 0.000283859 0)
(0.827851 0.000222481 0)
(0.827797 0.000159267 0)
(0.82779 7.71747e-05 0)
(0.827844 -4.09744e-05 0)
(0.827981 -0.000214087 0)
(0.828231 -0.000464505 0)
(0.828637 -0.00082 0)
(0.829253 -0.0013163 0)
(0.830154 -0.00200051 0)
(0.831432 -0.00293584 0)
(0.833213 -0.00420859 0)
(0.835658 -0.00593839 0)
(0.838976 -0.00829384 0)
(0.843439 -0.0115164 0)
(0.849398 -0.0159574 0)
(0.857298 -0.0221345 0)
(0.867681 -0.0308177 0)
(0.881165 -0.0431503 0)
(0.89834 -0.0608023 0)
(0.919509 -0.086102 0)
(0.944096 -0.121973 0)
(0.969699 -0.171157 0)
(0.991325 -0.234251 0)
(1.02733 0.143783 0)
(1.07829 0.28906 0)
(1.11295 0.336448 0)
(1.1251 0.324528 0)
(1.11656 0.285407 0)
(1.09607 0.238065 0)
(1.07059 0.192137 0)
(1.0447 0.15168 0)
(1.02094 0.117841 0)
(1.00043 0.0904047 0)
(0.983413 0.0686143 0)
(0.969713 0.0515662 0)
(0.958924 0.0383882 0)
(0.950581 0.0283087 0)
(0.944227 0.0206753 0)
(0.939452 0.0149508 0)
(0.935906 0.0107015 0)
(0.9333 0.00758103 0)
(0.931405 0.00531657 0)
(0.930036 0.00369486 0)
(0.929054 0.00255078 0)
(0.92835 0.00175737 0)
(0.927846 0.00121766 0)
(0.927482 0.000857813 0)
(0.927217 0.000621627 0)
(0.927023 0.00046597 0)
(0.926884 0.000357126 0)
(0.926791 0.000267765 0)
(0.926747 0.000174419 0)
(0.926758 5.52919e-05 0)
(0.92684 -0.000111739 0)
(0.927018 -0.000351097 0)
(0.927325 -0.000691605 0)
(0.927806 -0.00116895 0)
(0.92852 -0.00182875 0)
(0.929545 -0.00273063 0)
(0.930979 -0.0039538 0)
(0.932948 -0.00560501 0)
(0.935615 -0.00782995 0)
(0.939184 -0.01083 0)
(0.943912 -0.0148866 0)
(0.950118 -0.020397 0)
(0.958176 -0.0279253 0)
(0.96851 -0.038272 0)
(0.981528 -0.0525589 0)
(0.997497 -0.0723089 0)
(1.01627 -0.0994515 0)
(1.03681 -0.136094 0)
(1.05654 -0.183711 0)
(1.07126 -0.24154 0)
(1.02422 0.122795 0)
(1.06975 0.261537 0)
(1.11067 0.31786 0)
(1.13588 0.318452 0)
(1.14311 0.289298 0)
(1.13765 0.247944 0)
(1.12488 0.204627 0)
(1.10906 0.164512 0)
(1.09294 0.129722 0)
(1.07807 0.100737 0)
(1.06516 0.0772297 0)
(1.0544 0.0585343 0)
(1.04571 0.0438939 0)
(1.03884 0.032578 0)
(1.03352 0.0239341 0)
(1.02945 0.0174048 0)
(1.02639 0.0125275 0)
(1.02411 0.0089257 0)
(1.02243 0.00629815 0)
(1.0212 0.00440663 0)
(1.02031 0.00306489 0)
(1.01965 0.00212858 0)
(1.01918 0.00148665 0)
(1.01883 0.00105396 0)
(1.01857 0.000765238 0)
(1.01838 0.000570024 0)
(1.01825 0.000428502 0)
(1.01816 0.000308064 0)
(1.01813 0.000180392 0)
(1.01816 1.892e-05 0)
(1.01827 -0.000203519 0)
(1.01848 -0.000517003 0)
(1.01884 -0.000956995 0)
(1.01938 -0.00156721 0)
(1.02017 -0.00240314 0)
(1.02129 -0.00353667 0)
(1.02283 -0.00506225 0)
(1.02492 -0.00710543 0)
(1.02771 -0.00983476 0)
(1.0314 -0.0134785 0)
(1.03622 -0.018348 0)
(1.04242 -0.0248694 0)
(1.05031 -0.0336259 0)
(1.06019 -0.0454079 0)
(1.07225 -0.0612626 0)
(1.08651 -0.0825125 0)
(1.1025 -0.110679 0)
(1.11895 -0.14718 0)
(1.13344 -0.192614 0)
(1.14256 -0.24556 0)
(1.02205 0.105208 0)
(1.06265 0.234266 0)
(1.10645 0.294682 0)
(1.14063 0.304589 0)
(1.16031 0.284394 0)
(1.16787 0.24953 0)
(1.16699 0.210043 0)
(1.1612 0.171663 0)
(1.15313 0.137216 0)
(1.14452 0.107767 0)
(1.13636 0.0834018 0)
(1.12916 0.0637188 0)
(1.12309 0.0481117 0)
(1.11813 0.0359263 0)
(1.11418 0.0265409 0)
(1.11111 0.0194021 0)
(1.10874 0.0140375 0)
(1.10695 0.0100549 0)
(1.1056 0.00713542 0)
(1.10459 0.00502376 0)
(1.10384 0.00351851 0)
(1.10329 0.00246229 0)
(1.10287 0.00173312 0)
(1.10256 0.00123685 0)
(1.10233 0.000900808 0)
(1.10215 0.000668322 0)
(1.10203 0.000494276 0)
(1.10196 0.000341311 0)
(1.10194 0.000176603 0)
(1.10199 -3.09832e-05 0)
(1.10212 -0.000313527 0)
(1.10236 -0.000706665 0)
(1.10275 -0.00125237 0)
(1.10334 -0.00200216 0)
(1.10418 -0.00302095 0)
(1.10535 -0.00439204 0)
(1.10695 -0.00622364 0)
(1.10909 -0.00865753 0)
(1.11192 -0.0118808 0)
(1.11559 -0.0161418 0)
(1.12032 -0.0217706 0)
(1.1263 -0.0292058 0)
(1.13375 -0.0390258 0)
(1.14283 -0.0519802 0)
(1.1536 -0.0690081 0)
(1.16584 -0.0912133 0)
(1.1789 -0.119741 0)
(1.19146 -0.155468 0)
(1.20134 -0.198414 0)
(1.20584 -0.246909 0)
(1.02056 0.0902172 0)
(1.05696 0.207883 0)
(1.10171 0.268769 0)
(1.14189 0.285023 0)
(1.17116 0.27234 0)
(1.18963 0.243831 0)
(1.1994 0.208831 0)
(1.20311 0.173193 0)
(1.20304 0.140156 0)
(1.20089 0.11122 0)
(1.19783 0.0868282 0)
(1.19455 0.0668311 0)
(1.19145 0.050787 0)
(1.18871 0.0381404 0)
(1.18641 0.028323 0)
(1.18452 0.0208066 0)
(1.18302 0.0151265 0)
(1.18184 0.010889 0)
(1.18092 0.00776866 0)
(1.18021 0.00550212 0)
(1.17967 0.00387942 0)
(1.17925 0.00273521 0)
(1.17893 0.00194042 0)
(1.17867 0.00139476 0)
(1.17848 0.0010202 0)
(1.17833 0.000755425 0)
(1.17822 0.000551115 0)
(1.17817 0.000365946 0)
(1.17816 0.000163151 0)
(1.17822 -9.25503e-05 0)
(1.17837 -0.000437812 0)
(1.17864 -0.000913503 0)
(1.17905 -0.00156772 0)
(1.17966 -0.00245923 0)
(1.18052 -0.00366156 0)
(1.18171 -0.00526814 0)
(1.18331 -0.00739885 0)
(1.18543 -0.0102086 0)
(1.18819 -0.0138981 0)
(1.19174 -0.0187284 0)
(1.19622 -0.0250379 0)
(1.20179 -0.0332629 0)
(1.20857 -0.0439583 0)
(1.21663 -0.0578118 0)
(1.22586 -0.0756385 0)
(1.23593 -0.0983277 0)
(1.24608 -0.126701 0)
(1.25502 -0.16123 0)
(1.26088 -0.201574 0)
(1.26156 -0.246033 0)
(1.01953 0.0771872 0)
(1.05251 0.182608 0)
(1.09716 0.241318 0)
(1.14125 0.261353 0)
(1.17775 0.254604 0)
(1.20516 0.231921 0)
(1.2242 0.201645 0)
(1.23657 0.169411 0)
(1.24409 0.138613 0)
(1.2483 0.111029 0)
(1.25039 0.0873707 0)
(1.25118 0.0677085 0)
(1.25123 0.0517596 0)
(1.2509 0.0390758 0)
(1.2504 0.0291576 0)
(1.24986 0.0215176 0)
(1.24934 0.0157143 0)
(1.24886 0.0113653 0)
(1.24845 0.00814996 0)
(1.2481 0.00580556 0)
(1.2478 0.00412068 0)
(1.24755 0.00292752 0)
(1.24734 0.00209416 0)
(1.24716 0.00151738 0)
(1.24702 0.00111625 0)
(1.2469 0.000826608 0)
(1.24682 0.000596278 0)
(1.24678 0.00038098 0)
(1.24679 0.000140766 0)
(1.24686 -0.000163185 0)
(1.24702 -0.000571574 0)
(1.2473 -0.00112997 0)
(1.24772 -0.00189199 0)
(1.24833 -0.00292283 0)
(1.24919 -0.00430351 0)
(1.25035 -0.00613594 0)
(1.25191 -0.00854931 0)
(1.25394 -0.0117081 0)
(1.25655 -0.0158217 0)
(1.25985 -0.0211569 0)
(1.26396 -0.0280509 0)
(1.26896 -0.0369258 0)
(1.27491 -0.0482993 0)
(1.28177 -0.0627855 0)
(1.28935 -0.081072 0)
(1.2972 -0.103852 0)
(1.30455 -0.131682 0)
(1.31021 -0.16474 0)
(1.31257 -0.20248 0)
(1.31003 -0.243279 0)
(1.01881 0.0656314 0)
(1.04907 0.158451 0)
(1.09308 0.21308 0)
(1.13966 0.234768 0)
(1.18156 0.232423 0)
(1.21615 0.214836 0)
(1.24304 0.189226 0)
(1.26308 0.16078 0)
(1.27756 0.132835 0)
(1.28777 0.10729 0)
(1.29485 0.0850332 0)
(1.29967 0.0663044 0)
(1.30291 0.0509602 0)
(1.30504 0.038658 0)
(1.30642 0.0289739 0)
(1.30729 0.0214728 0)
(1.30781 0.0157484 0)
(1.3081 0.0114413 0)
(1.30824 0.00824564 0)
(1.30828 0.00590789 0)
(1.30826 0.00422226 0)
(1.3082 0.00302413 0)
(1.30812 0.00218315 0)
(1.30803 0.00159659 0)
(1.30794 0.00118327 0)
(1.30787 0.000878167 0)
(1.30782 0.000627785 0)
(1.30779 0.000386046 0)
(1.30781 0.000110736 0)
(1.3079 -0.000239751 0)
(1.30806 -0.000709478 0)
(1.30834 -0.00134803 0)
(1.30875 -0.00221371 0)
(1.30934 -0.00337719 0)
(1.31017 -0.00492559 0)
(1.31127 -0.00696746 0)
(1.31273 -0.00963874 0)
(1.31461 -0.0131099 0)
(1.31699 -0.0175944 0)
(1.31996 -0.0233582 0)
(1.32359 -0.0307296 0)
(1.3279 -0.0401074 0)
(1.3329 -0.0519637 0)
(1.33846 -0.066834 0)
(1.34433 -0.0852838 0)
(1.35001 -0.107835 0)
(1.35473 -0.134836 0)
(1.35743 -0.166257 0)
(1.35676 -0.201449 0)
(1.35148 -0.238922 0)
(1.01831 0.0551823 0)
(1.04642 0.135318 0)
(1.08961 0.184507 0)
(1.13772 0.206138 0)
(1.18359 0.206812 0)
(1.22386 0.193521 0)
(1.25727 0.172336 0)
(1.28391 0.147854 0)
(1.30457 0.123189 0)
(1.32026 0.100227 0)
(1.33199 0.0799381 0)
(1.34064 0.0626742 0)
(1.34694 0.0484036 0)
(1.35149 0.036879 0)
(1.35473 0.027753 0)
(1.35701 0.0206494 0)
(1.35859 0.0152061 0)
(1.35966 0.0110963 0)
(1.36036 0.00803775 0)
(1.36081 0.00579422 0)
(1.36108 0.00417214 0)
(1.36122 0.00301554 0)
(1.36128 0.00220005 0)
(1.36128 0.00162691 0)
(1.36126 0.00121736 0)
(1.36123 0.000907644 0)
(1.36121 0.000644526 0)
(1.3612 0.000381406 0)
(1.36123 7.48175e-05 0)
(1.36132 -0.000318764 0)
(1.36149 -0.000845962 0)
(1.36175 -0.00155954 0)
(1.36214 -0.0025216 0)
(1.36269 -0.00380709 0)
(1.36345 -0.00550778 0)
(1.36446 -0.00773691 0)
(1.36578 -0.0106346 0)
(1.36746 -0.0143739 0)
(1.36955 -0.0191678 0)
(1.37211 -0.0252765 0)
(1.37517 -0.0330129 0)
(1.37872 -0.0427467 0)
(1.38269 -0.0548997 0)
(1.38691 -0.0699295 0)
(1.39107 -0.08829 0)
(1.39467 -0.110359 0)
(1.39697 -0.136323 0)
(1.39702 -0.166018 0)
(1.39373 -0.198753 0)
(1.3861 -0.233185 0)
(1.01796 0.0455631 0)
(1.0444 0.113069 0)
(1.08673 0.15586 0)
(1.13575 0.176088 0)
(1.18453 0.178587 0)
(1.22922 0.168808 0)
(1.26791 0.151714 0)
(1.30009 0.131228 0)
(1.32608 0.110124 0)
(1.34659 0.0901599 0)
(1.36249 0.0723023 0)
(1.37463 0.05696 0)
(1.38378 0.044179 0)
(1.39058 0.0337923 0)
(1.39558 0.025525 0)
(1.3992 0.0190628 0)
(1.40179 0.0140938 0)
(1.40362 0.0103314 0)
(1.40488 0.00752466 0)
(1.40573 0.00546154 0)
(1.40628 0.00396683 0)
(1.40662 0.00289833 0)
(1.40682 0.00214181 0)
(1.40693 0.00160583 0)
(1.40697 0.00121669 0)
(1.40698 0.000913965 0)
(1.40699 0.000646321 0)
(1.407 0.000367925 0)
(1.40704 3.51304e-05 0)
(1.40713 -0.000396578 0)
(1.40728 -0.00097551 0)
(1.40753 -0.00175671 0)
(1.40788 -0.00280503 0)
(1.40838 -0.00419849 0)
(1.40905 -0.00603199 0)
(1.40994 -0.0084215 0)
(1.41108 -0.0115088 0)
(1.41251 -0.0154665 0)
(1.41426 -0.0205036 0)
(1.41635 -0.0268696 0)
(1.41879 -0.0348584 0)
(1.42152 -0.0448063 0)
(1.42443 -0.0570841 0)
(1.4273 -0.0720753 0)
(1.42981 -0.0901354 0)
(1.43145 -0.111524 0)
(1.43154 -0.136308 0)
(1.42925 -0.164236 0)
(1.42368 -0.19462 0)
(1.41405 -0.226261 0)
(1.01772 0.0365629 0)
(1.04288 0.0915564 0)
(1.08443 0.127276 0)
(1.13397 0.145063 0)
(1.18483 0.148398 0)
(1.23289 0.14142 0)
(1.27576 0.128053 0)
(1.31245 0.111509 0)
(1.34287 0.0941345 0)
(1.36748 0.077474 0)
(1.38698 0.0624169 0)
(1.40216 0.049375 0)
(1.41381 0.0384394 0)
(1.42263 0.0295057 0)
(1.42921 0.0223648 0)
(1.43405 0.0167641 0)
(1.43757 0.0124457 0)
(1.44009 0.00916903 0)
(1.44186 0.00672069 0)
(1.44308 0.00491867 0)
(1.4439 0.00361148 0)
(1.44443 0.00267528 0)
(1.44477 0.00200977 0)
(1.44497 0.0015339 0)
(1.44508 0.00118152 0)
(1.44513 0.000897473 0)
(1.44516 0.000633904 0)
(1.44519 0.000347014 0)
(1.44524 -5.96007e-06 0)
(1.44532 -0.000469574 0)
(1.44546 -0.00109291 0)
(1.44567 -0.00193236 0)
(1.44598 -0.00305446 0)
(1.4464 -0.00453907 0)
(1.44697 -0.00648268 0)
(1.4477 -0.00900214 0)
(1.44864 -0.0122386 0)
(1.44978 -0.0163617 0)
(1.45115 -0.021573 0)
(1.45275 -0.0281087 0)
(1.45453 -0.0362401 0)
(1.45641 -0.0462691 0)
(1.45825 -0.0585164 0)
(1.45982 -0.0732979 0)
(1.46075 -0.0908848 0)
(1.46058 -0.111443 0)
(1.45868 -0.13495 0)
(1.45432 -0.161106 0)
(1.44677 -0.189247 0)
(1.43543 -0.218313 0)
(1.01755 0.0280184 0)
(1.04177 0.0706294 0)
(1.08265 0.0988118 0)
(1.13247 0.113379 0)
(1.18479 0.116762 0)
(1.23535 0.111981 0)
(1.28142 0.101995 0)
(1.32163 0.0892922 0)
(1.35559 0.0757406 0)
(1.3835 0.0626017 0)
(1.40595 0.0506281 0)
(1.42366 0.0401892 0)
(1.43741 0.0313909 0)
(1.44791 0.0241738 0)
(1.45584 0.0183864 0)
(1.46172 0.013836 0)
(1.46604 0.0103213 0)
(1.46915 0.00765126 0)
(1.47137 0.00565504 0)
(1.47292 0.00418553 0)
(1.47397 0.00311943 0)
(1.47468 0.00235511 0)
(1.47513 0.00180951 0)
(1.47541 0.00141466 0)
(1.47558 0.00111416 0)
(1.47567 0.000859872 0)
(1.47573 0.000608856 0)
(1.47577 0.00032053 0)
(1.47582 -4.59732e-05 0)
(1.47589 -0.000534325 0)
(1.47601 -0.00119349 0)
(1.47618 -0.00208023 0)
(1.47643 -0.00326177 0)
(1.47676 -0.00481854 0)
(1.47721 -0.00684721 0)
(1.47778 -0.00946381 0)
(1.47848 -0.0128069 0)
(1.47932 -0.0170407 0)
(1.48029 -0.0223571 0)
(1.48136 -0.0289767 0)
(1.48246 -0.0371468 0)
(1.4835 -0.0471347 0)
(1.4843 -0.0592142 0)
(1.48461 -0.073641 0)
(1.48408 -0.0906152 0)
(1.48225 -0.110229 0)
(1.47857 -0.1324 0)
(1.4724 -0.156801 0)
(1.46316 -0.182808 0)
(1.45034 -0.209487 0)
(1.01743 0.0197995 0)
(1.04098 0.0501465 0)
(1.08137 0.0704772 0)
(1.13132 0.0812617 0)
(1.18462 0.0840955 0)
(1.23694 0.0810324 0)
(1.28532 0.0741312 0)
(1.32813 0.0651607 0)
(1.36471 0.0554748 0)
(1.39512 0.0460055 0)
(1.41982 0.0373225 0)
(1.43947 0.0297162 0)
(1.45484 0.0232817 0)
(1.46667 0.0179889 0)
(1.47565 0.0137363 0)
(1.48236 0.0103885 0)
(1.4873 0.00780159 0)
(1.49089 0.00583706 0)
(1.49346 0.00436999 0)
(1.49527 0.00329196 0)
(1.49652 0.00251135 0)
(1.49736 0.0019519 0)
(1.49791 0.00155046 0)
(1.49826 0.00125437 0)
(1.49848 0.00101877 0)
(1.49861 0.000804078 0)
(1.49868 0.000573479 0)
(1.49873 0.000290652 0)
(1.49878 -8.24496e-05 0)
(1.49884 -0.000587759 0)
(1.49893 -0.00127326 0)
(1.49905 -0.00219521 0)
(1.49924 -0.00342046 0)
(1.49948 -0.00502893 0)
(1.49979 -0.00711611 0)
(1.50018 -0.00979569 0)
(1.50063 -0.013202 0)
(1.50115 -0.0174918 0)
(1.5017 -0.0228459 0)
(1.50224 -0.0294677 0)
(1.50268 -0.0375802 0)
(1.50289 -0.0474173 0)
(1.50269 -0.0592096 0)
(1.50182 -0.0731604 0)
(1.49994 -0.0894118 0)
(1.49662 -0.107999 0)
(1.49136 -0.128799 0)
(1.48363 -0.151478 0)
(1.47292 -0.175457 0)
(1.45887 -0.199914 0)
(1.01736 0.011799 0)
(1.04048 0.0299739 0)
(1.08053 0.0422516 0)
(1.13054 0.0488733 0)
(1.18445 0.0507425 0)
(1.23789 0.0490501 0)
(1.28776 0.0450094 0)
(1.33227 0.0396771 0)
(1.37061 0.0338725 0)
(1.40269 0.028167 0)
(1.4289 0.0229149 0)
(1.44987 0.0183015 0)
(1.46635 0.0143919 0)
(1.47909 0.011173 0)
(1.48878 0.00858674 0)
(1.49606 0.00655309 0)
(1.50144 0.00498532 0)
(1.50537 0.00379935 0)
(1.50819 0.00291857 0)
(1.51018 0.00227592 0)
(1.51157 0.00181401 0)
(1.51251 0.00148422 0)
(1.51313 0.00124529 0)
(1.51353 0.00106153 0)
(1.51379 0.000901066 0)
(1.51394 0.000733988 0)
(1.51402 0.000530611 0)
(1.51408 0.000259733 0)
(1.51412 -0.00011309 0)
(1.51417 -0.000627294 0)
(1.51422 -0.00132911 0)
(1.5143 -0.00227344 0)
(1.51441 -0.00352588 0)
(1.51455 -0.00516475 0)
(1.51472 -0.0072832 0)
(1.51492 -0.00999125 0)
(1.51512 -0.0134175 0)
(1.51532 -0.0177103 0)
(1.51545 -0.0230378 0)
(1.51547 -0.0295857 0)
(1.51525 -0.0375529 0)
(1.51468 -0.0471421 0)
(1.51354 -0.0585453 0)
(1.51157 -0.0719208 0)
(1.50846 -0.0873638 0)
(1.50381 -0.104868 0)
(1.49718 -0.124284 0)
(1.4881 -0.145282 0)
(1.47616 -0.167333 0)
(1.46107 -0.189714 0)
(1.01733 0.00392398 0)
(1.04024 0.00998433 0)
(1.08011 0.0140972 0)
(1.13015 0.0163369 0)
(1.18435 0.0169962 0)
(1.23833 0.0164655 0)
(1.28894 0.0151458 0)
(1.33429 0.0133887 0)
(1.3735 0.0114688 0)
(1.40642 0.00957855 0)
(1.43339 0.00783855 0)
(1.45503 0.00631255 0)
(1.47208 0.00502373 0)
(1.48528 0.00396874 0)
(1.49535 0.00312868 0)
(1.50292 0.00247687 0)
(1.50853 0.00198402 0)
(1.51263 0.00162128 0)
(1.51558 0.00136184 0)
(1.51767 0.00118155 0)
(1.51913 0.00105878 0)
(1.52012 0.000974005 0)
(1.52079 0.000909078 0)
(1.52122 0.000846379 0)
(1.5215 0.00076789 0)
(1.52166 0.000654193 0)
(1.52176 0.000483421 0)
(1.52182 0.000230133 0)
(1.52185 -0.000135894 0)
(1.52187 -0.000650964 0)
(1.5219 -0.00135889 0)
(1.52193 -0.00231249 0)
(1.52196 -0.00357525 0)
(1.52199 -0.00522299 0)
(1.52202 -0.00734551 0)
(1.52202 -0.0100481 0)
(1.52198 -0.0134525 0)
(1.52185 -0.0176977 0)
(1.52158 -0.0229384 0)
(1.52109 -0.0293427 0)
(1.52026 -0.0370864 0)
(1.51894 -0.0463436 0)
(1.51693 -0.0572718 0)
(1.51398 -0.0699922 0)
(1.50977 -0.0845624 0)
(1.50396 -0.100946 0)
(1.49613 -0.11898 0)
(1.48591 -0.138346 0)
(1.47294 -0.158563 0)
(1.457 -0.178998 0)
(1.01733 -0.00391012 0)
(1.04024 -0.00994491 0)
(1.08012 -0.0140328 0)
(1.13015 -0.0162468 0)
(1.18436 -0.0168786 0)
(1.23833 -0.0163175 0)
(1.28895 -0.0149635 0)
(1.3343 -0.0131675 0)
(1.37351 -0.011203 0)
(1.40643 -0.00926164 0)
(1.43341 -0.00746326 0)
(1.45505 -0.00587088 0)
(1.4721 -0.00450716 0)
(1.4853 -0.00336846 0)
(1.49538 -0.00243592 0)
(1.50295 -0.00168343 0)
(1.50857 -0.00108291 0)
(1.51268 -0.000607659 0)
(1.51564 -0.0002342 0)
(1.51774 5.67469e-05 0)
(1.51921 0.000279895 0)
(1.52022 0.000445311 0)
(1.52089 0.000558448 0)
(1.52133 0.000620182 0)
(1.52161 0.000626763 0)
(1.52179 0.000569647 0)
(1.52188 0.00043517 0)
(1.52194 0.000204049 0)
(1.52196 -0.00014928 0)
(1.52196 -0.000657514 0)
(1.52195 -0.00136149 0)
(1.52193 -0.00231132 0)
(1.52188 -0.0035677 0)
(1.52181 -0.00520315 0)
(1.5217 -0.00730325 0)
(1.52152 -0.00996769 0)
(1.52123 -0.0133107 0)
(1.52079 -0.017461 0)
(1.52013 -0.0225599 0)
(1.51916 -0.0287581 0)
(1.51776 -0.0362099 0)
(1.51576 -0.0450631 0)
(1.51296 -0.055446 0)
(1.50913 -0.0674484 0)
(1.50396 -0.0810994 0)
(1.49713 -0.0963414 0)
(1.4883 -0.113005 0)
(1.47712 -0.130792 0)
(1.46332 -0.149265 0)
(1.4467 -0.167869 0)
(1.01736 -0.0117853 0)
(1.04049 -0.029935 0)
(1.08053 -0.0421881 0)
(1.13055 -0.0487843 0)
(1.18446 -0.0506263 0)
(1.2379 -0.0489038 0)
(1.28778 -0.0448292 0)
(1.33229 -0.0394585 0)
(1.37064 -0.0336097 0)
(1.40273 -0.0278536 0)
(1.42894 -0.0225438 0)
(1.44993 -0.0178647 0)
(1.46642 -0.0138809 0)
(1.47917 -0.0105791 0)
(1.48888 -0.00790127 0)
(1.49618 -0.00576785 0)
(1.50158 -0.00409336 0)
(1.50553 -0.00279579 0)
(1.50838 -0.00180185 0)
(1.5104 -0.00104925 0)
(1.51181 -0.000487418 0)
(1.51278 -7.70782e-05 0)
(1.51343 0.000210522 0)
(1.51386 0.000394537 0)
(1.51414 0.000485368 0)
(1.5143 0.000485311 0)
(1.5144 0.000388962 0)
(1.51444 0.000183348 0)
(1.51445 -0.000152206 0)
(1.51444 -0.000646463 0)
(1.51439 -0.00133688 0)
(1.51432 -0.00227037 0)
(1.5142 -0.00350423 0)
(1.51403 -0.00510707 0)
(1.51378 -0.00715959 0)
(1.51341 -0.00975521 0)
(1.5129 -0.0130001 0)
(1.51217 -0.0170123 0)
(1.51115 -0.02192 0)
(1.50974 -0.0278573 0)
(1.50781 -0.0349582 0)
(1.5052 -0.0433476 0)
(1.5017 -0.0531283 0)
(1.49709 -0.0643652 0)
(1.4911 -0.0770654 0)
(1.48341 -0.0911578 0)
(1.47374 -0.106474 0)
(1.46179 -0.122734 0)
(1.44733 -0.139549 0)
(1.4302 -0.156429 0)
(1.01743 -0.0197863 0)
(1.04098 -0.0501088 0)
(1.08137 -0.0704154 0)
(1.13133 -0.081175 0)
(1.18464 -0.0839822 0)
(1.23696 -0.0808897 0)
(1.28535 -0.0739553 0)
(1.32816 -0.0649471 0)
(1.36476 -0.055218 0)
(1.39518 -0.0456993 0)
(1.41989 -0.0369596 0)
(1.43956 -0.029289 0)
(1.45496 -0.0227818 0)
(1.46681 -0.0174078 0)
(1.47581 -0.0130652 0)
(1.48255 -0.00961956 0)
(1.48753 -0.00692778 0)
(1.49116 -0.00485351 0)
(1.49377 -0.00327496 0)
(1.49563 -0.00208841 0)
(1.49692 -0.00120883 0)
(1.49781 -0.000569046 0)
(1.49841 -0.000118081 0)
(1.49881 0.000180645 0)
(1.49906 0.000351039 0)
(1.49921 0.000405799 0)
(1.4993 0.000347516 0)
(1.49934 0.000169416 0)
(1.49933 -0.000144251 0)
(1.49929 -0.000618153 0)
(1.49922 -0.00128609 0)
(1.49909 -0.00219142 0)
(1.49891 -0.0033876 0)
(1.49864 -0.00493881 0)
(1.49826 -0.00692038 0)
(1.49774 -0.00941901 0)
(1.49701 -0.0125324 0)
(1.49601 -0.0163681 0)
(1.49467 -0.0210413 0)
(1.49286 -0.0266702 0)
(1.49046 -0.0333709 0)
(1.48731 -0.0412478 0)
(1.48321 -0.0503825 0)
(1.47794 -0.0608195 0)
(1.47125 -0.0725501 0)
(1.46287 -0.0854954 0)
(1.45252 -0.0994918 0)
(1.43996 -0.114282 0)
(1.425 -0.129518 0)
(1.40752 -0.144771 0)
(1.01755 -0.0280058 0)
(1.04177 -0.0705933 0)
(1.08266 -0.0987525 0)
(1.13248 -0.113296 0)
(1.18481 -0.116653 0)
(1.23537 -0.111844 0)
(1.28146 -0.101826 0)
(1.32168 -0.0890861 0)
(1.35565 -0.0754927 0)
(1.38358 -0.0623058 0)
(1.40605 -0.0502774 0)
(1.42379 -0.0397762 0)
(1.43756 -0.0309074 0)
(1.4481 -0.0236114 0)
(1.45606 -0.0177367 0)
(1.46199 -0.0130911 0)
(1.46635 -0.00947437 0)
(1.46952 -0.00669735 0)
(1.47179 -0.00459223 0)
(1.4734 -0.00301636 0)
(1.47452 -0.00185276 0)
(1.47529 -0.00100851 0)
(1.47581 -0.000412232 0)
(1.47616 -1.13965e-05 0)
(1.47638 0.00023028 0)
(1.47652 0.000335057 0)
(1.47659 0.000312948 0)
(1.47661 0.000163034 0)
(1.4766 -0.000125672 0)
(1.47654 -0.000573745 0)
(1.47643 -0.0012112 0)
(1.47626 -0.00207757 0)
(1.47602 -0.00322219 0)
(1.47567 -0.00470444 0)
(1.47518 -0.00659393 0)
(1.4745 -0.00897034 0)
(1.47358 -0.0119228 0)
(1.47235 -0.0155485 0)
(1.47071 -0.01995 0)
(1.46856 -0.0252311 0)
(1.46576 -0.0314914 0)
(1.46216 -0.0388176 0)
(1.45755 -0.0472736 0)
(1.45173 -0.0568881 0)
(1.44447 -0.0676412 0)
(1.43553 -0.0794507 0)
(1.42467 -0.092161 0)
(1.41167 -0.105538 0)
(1.39637 -0.119272 0)
(1.37869 -0.132988 0)
(1.01772 -0.0365511 0)
(1.04289 -0.0915223 0)
(1.08443 -0.12722 0)
(1.13398 -0.144984 0)
(1.18485 -0.148294 0)
(1.23292 -0.14129 0)
(1.27581 -0.127892 0)
(1.31251 -0.111312 0)
(1.34295 -0.0938981 0)
(1.36758 -0.0771917 0)
(1.3871 -0.0620821 0)
(1.40232 -0.0489804 0)
(1.41401 -0.0379773 0)
(1.42286 -0.0289679 0)
(1.42949 -0.0217431 0)
(1.43438 -0.0160507 0)
(1.43796 -0.011634 0)
(1.44055 -0.008254 0)
(1.44239 -0.00570018 0)
(1.44369 -0.00379473 0)
(1.44459 -0.00239211 0)
(1.44521 -0.00137668 0)
(1.44563 -0.000659195 0)
(1.44591 -0.000173217 0)
(1.44609 0.000128329 0)
(1.4462 0.000276076 0)
(1.44626 0.000286609 0)
(1.44627 0.00016429 0)
(1.44625 -9.74364e-05 0)
(1.44617 -0.000515196 0)
(1.44604 -0.00111521 0)
(1.44584 -0.00193309 0)
(1.44554 -0.00301383 0)
(1.44511 -0.00441178 0)
(1.44452 -0.00619061 0)
(1.44372 -0.00842288 0)
(1.44264 -0.0111892 0)
(1.4412 -0.0145765 0)
(1.43932 -0.0186756 0)
(1.43688 -0.023577 0)
(1.43375 -0.0293655 0)
(1.42976 -0.0361126 0)
(1.42474 -0.0438678 0)
(1.41849 -0.0526477 0)
(1.4108 -0.0624248 0)
(1.40144 -0.0731171 0)
(1.39021 -0.0845794 0)
(1.37693 -0.0966004 0)
(1.36146 -0.108906 0)
(1.34372 -0.12117 0)
(1.01796 -0.0455523 0)
(1.04441 -0.113038 0)
(1.08674 -0.155808 0)
(1.13577 -0.176014 0)
(1.18456 -0.17849 0)
(1.22926 -0.168685 0)
(1.26796 -0.151563 0)
(1.30016 -0.131044 0)
(1.32617 -0.109902 0)
(1.34671 -0.0898941 0)
(1.36264 -0.0719868 0)
(1.37482 -0.0565879 0)
(1.38401 -0.0437428 0)
(1.39086 -0.0332843 0)
(1.39591 -0.0249373 0)
(1.3996 -0.0183879 0)
(1.40226 -0.0133251 0)