/*--------------------------------*- C++ -*----------------------------------*\
  =========                 |
  \\      /  F ield         | OpenFOAM: The Open Source CFD Toolbox
   \\    /   O peration     | Website:  https://openfoam.org
    \\  /    A nd           | Version:  6
     \\/     M anipulation  |
\*---------------------------------------------------------------------------*/
FoamFile
{
    version     2.0;
    format      ascii;
    class       volScalarField;
    location    "./ITHACAoutput/Offline/1";
    object      P_rec;
}
// * * * * * * * * * * * * * * * * * * * * * * * * * * * * * * * * * * * * * //

dimensions      [0 2 -2 0 0 0 0];

internalField   nonuniform List<scalar> 
40000
(
-0.00721001
-0.00721232
-0.00721543
-0.0072178
-0.00721881
-0.00721806
-0.00721535
-0.00721068
-0.00720403
-0.00719533
-0.00718464
-0.00717199
-0.00715737
-0.0071408
-0.00712228
-0.00710188
-0.00707962
-0.00705547
-0.00702951
-0.0070017
-0.00697212
-0.00694074
-0.00690761
-0.00687277
-0.00683622
-0.00679798
-0.00675804
-0.00671647
-0.00667325
-0.00662842
-0.00658199
-0.00653397
-0.00648436
-0.00643323
-0.00638054
-0.00632632
-0.0062706
-0.0062134
-0.00615471
-0.00609457
-0.00603297
-0.00596997
-0.00590556
-0.00583977
-0.0057726
-0.00570406
-0.00563422
-0.00556305
-0.00549061
-0.00541693
-0.00534201
-0.00526592
-0.00518861
-0.00511017
-0.00503066
-0.00495003
-0.00486838
-0.00478573
-0.00470211
-0.0046176
-0.0045322
-0.00444596
-0.00435895
-0.00427123
-0.00418281
-0.00409375
-0.00400415
-0.00391402
-0.0038234
-0.00373241
-0.00364108
-0.00354946
-0.00345764
-0.00336563
-0.00327355
-0.00318141
-0.00308932
-0.00299732
-0.00290547
-0.00281382
-0.00272245
-0.00263142
-0.00254075
-0.00245054
-0.00236082
-0.00227162
-0.00218301
-0.00209504
-0.00200774
-0.00192111
-0.00183524
-0.00175013
-0.00166577
-0.00158221
-0.00149952
-0.0014176
-0.0013365
-0.00125623
-0.00117678
-0.00109814
-0.00102025
-0.000943131
-0.000866751
-0.000791042
-0.000716008
-0.000641579
-0.000567725
-0.000494373
-0.000421494
-0.000349034
-0.000276899
-0.000205058
-0.000133429
-6.19305e-05
9.46107e-06
8.08429e-05
0.00015229
0.000223823
0.000295567
0.000367538
0.00043983
0.000512463
0.000585503
0.000659018
0.000733028
0.000807619
0.000882746
0.000958478
0.00103485
0.00111182
0.00118945
0.00126767
0.00134655
0.00142603
0.00150607
0.00158666
0.00166777
0.00174931
0.00183128
0.00191357
0.00199612
0.00207886
0.00216176
0.00224467
0.00232752
0.00241022
0.00249268
0.00257484
0.00265654
0.00273771
0.00281826
0.00289807
0.00297703
0.00305509
0.00313214
0.00320804
0.00328275
0.00335618
0.00342822
0.00349882
0.00356793
0.00363539
0.00370126
0.00376539
0.00382777
0.00388832
0.00394701
0.00400381
0.00405869
0.00411159
0.00416252
0.00421144
0.00425832
0.00430316
0.00434598
0.00438671
0.0044254
0.00446198
0.00449652
0.00452896
0.00455937
0.00458766
0.00461387
0.004638
0.00466007
0.00468005
0.00469797
0.00471378
0.00472754
0.00473922
0.00474886
0.00475642
0.00476195
0.00476548
0.00476709
0.00476686
0.00476504
0.00476199
0.00475855
0.00475616
-0.00720773
-0.00721002
-0.00721282
-0.00721472
-0.00721528
-0.00721416
-0.00721124
-0.00720641
-0.00719962
-0.00719089
-0.0071802
-0.00716756
-0.00715296
-0.00713646
-0.00711807
-0.00709775
-0.00707556
-0.00705155
-0.00702571
-0.00699807
-0.00696863
-0.00693744
-0.0069045
-0.00686982
-0.00683344
-0.00679542
-0.00675568
-0.00671429
-0.0066713
-0.00662667
-0.00658045
-0.00653264
-0.00648327
-0.00643236
-0.00637989
-0.00632592
-0.00627044
-0.00621347
-0.006155
-0.0060951
-0.00603376
-0.005971
-0.00590684
-0.00584127
-0.00577434
-0.00570607
-0.00563647
-0.00556558
-0.0054934
-0.00541996
-0.00534529
-0.00526942
-0.00519237
-0.0051142
-0.0050349
-0.00495451
-0.0048731
-0.00479068
-0.00470731
-0.004623
-0.00453781
-0.0044518
-0.00436498
-0.00427744
-0.00418921
-0.00410032
-0.00401087
-0.00392088
-0.00383042
-0.00373954
-0.0036483
-0.00355679
-0.00346503
-0.00337307
-0.00328102
-0.0031889
-0.00309684
-0.00300481
-0.00291291
-0.00282122
-0.00272976
-0.00263865
-0.00254785
-0.00245752
-0.00236762
-0.00227825
-0.00218944
-0.00210124
-0.00201367
-0.00192681
-0.00184063
-0.00175517
-0.00167052
-0.0015866
-0.00150352
-0.00142121
-0.00133971
-0.00125902
-0.00117913
-0.00110003
-0.00102171
-0.000944104
-0.000867236
-0.000791048
-0.000715524
-0.000640579
-0.000566231
-0.000492378
-0.000419029
-0.000346035
-0.000273389
-0.000201076
-0.000128954
-5.70005e-05
1.48417e-05
8.66863e-05
0.000158528
0.000230513
0.000302623
0.000374996
0.000447632
0.0005206
0.000593976
0.000667766
0.00074203
0.000816824
0.000892159
0.00096805
0.00104453
0.00112162
0.00119932
0.00127759
0.00135646
0.00143592
0.00151589
0.00159639
0.00167736
0.00175875
0.0018405
0.00192257
0.0020049
0.00208737
0.00216992
0.00225252
0.00233503
0.00241736
0.00249944
0.00258119
0.00266245
0.00274319
0.0028233
0.00290263
0.00298114
0.00305873
0.00313528
0.00321071
0.00328496
0.00335793
0.00342951
0.00349965
0.0035683
0.00363536
0.00370076
0.00376448
0.00382646
0.00388663
0.00394495
0.0040014
0.00405592
0.00410852
0.00415912
0.00420777
0.00425439
0.00429899
0.00434157
0.00438209
0.00442059
0.00445701
0.00449139
0.00452371
0.00455397
0.00458216
0.00460829
0.0046324
0.00465441
0.00467437
0.0046923
0.00470815
0.00472197
0.00473376
0.00474352
0.00475127
0.00475703
0.00476085
0.00476281
0.00476305
0.00476173
0.00475927
0.00475617
0.00475379
-0.0072046
-0.00720723
-0.00721002
-0.00721156
-0.00721172
-0.00721027
-0.0072071
-0.00720207
-0.00719517
-0.00718637
-0.00717566
-0.00716301
-0.00714848
-0.00713204
-0.00711373
-0.00709354
-0.0070715
-0.00704763
-0.00702196
-0.00699447
-0.00696524
-0.00693423
-0.00690152
-0.00686706
-0.00683093
-0.00679312
-0.00675362
-0.00671253
-0.00666974
-0.0066254
-0.00657944
-0.00653192
-0.00648281
-0.00643219
-0.00638
-0.00632631
-0.00627111
-0.00621444
-0.0061563
-0.00609669
-0.00603566
-0.00597319
-0.00590933
-0.00584409
-0.00577747
-0.00570951
-0.00564022
-0.00556961
-0.00549774
-0.00542463
-0.00535025
-0.00527469
-0.00519793
-0.00512003
-0.00504103
-0.00496095
-0.00487983
-0.00479768
-0.00471456
-0.00463052
-0.00454557
-0.00445976
-0.0043732
-0.00428587
-0.00419782
-0.00410914
-0.00401984
-0.00392999
-0.00383967
-0.00374891
-0.0036578
-0.00356633
-0.00347462
-0.00338272
-0.00329068
-0.00319856
-0.00310646
-0.00301436
-0.00292239
-0.0028306
-0.00273903
-0.00264772
-0.00255676
-0.00246618
-0.00237605
-0.0022864
-0.0021973
-0.00210876
-0.00202088
-0.00193359
-0.00184706
-0.0017612
-0.00167608
-0.00159171
-0.00150813
-0.00142534
-0.0013433
-0.00126207
-0.00118165
-0.00110197
-0.00102304
-0.000944866
-0.000867386
-0.000790602
-0.000714439
-0.000638912
-0.000563928
-0.000489467
-0.000415469
-0.000341892
-0.000268665
-0.000195756
-0.000123038
-5.05202e-05
2.1899e-05
9.42755e-05
0.000166644
0.000239122
0.000311712
0.000384525
0.000457597
0.000530985
0.00060469
0.000678836
0.000753395
0.000828448
0.000904042
0.000980123
0.00105676
0.00113398
0.00121176
0.0012901
0.00136898
0.0014484
0.00152831
0.00160872
0.00168954
0.00177075
0.0018523
0.00193412
0.00201615
0.00209831
0.00218055
0.00226275
0.00234488
0.00242676
0.00250841
0.00258968
0.00267046
0.00275066
0.00283026
0.00290906
0.00298703
0.00306407
0.00314006
0.00321494
0.00328862
0.00336101
0.00343206
0.00350166
0.00356977
0.00363628
0.00370119
0.0037644
0.00382588
0.00388557
0.00394344
0.00399945
0.00405356
0.00410576
0.004156
0.00420428
0.00425056
0.00429488
0.00433716
0.00437742
0.00441565
0.00445187
0.00448605
0.00451821
0.0045483
0.00457637
0.00460241
0.00462641
0.00464838
0.00466834
0.00468627
0.00470219
0.00471608
0.00472797
0.00473788
0.00474582
0.00475186
0.004756
0.00475836
0.00475904
0.00475823
0.00475615
0.00475306
0.00475033
-0.00720221
-0.0072053
-0.00720846
-0.00721002
-0.00721005
-0.00720843
-0.0072051
-0.00719998
-0.00719297
-0.00718412
-0.00717337
-0.00716075
-0.00714623
-0.00712983
-0.00711161
-0.00709152
-0.00706958
-0.00704584
-0.0070203
-0.00699298
-0.00696391
-0.00693307
-0.00690053
-0.00686628
-0.00683035
-0.0067927
-0.00675345
-0.00671258
-0.00667004
-0.0066259
-0.00658019
-0.00653291
-0.00648406
-0.00643367
-0.00638174
-0.0063283
-0.00627337
-0.00621696
-0.00615909
-0.00609976
-0.00603901
-0.0059768
-0.00591322
-0.00584824
-0.0057819
-0.00571421
-0.00564517
-0.00557487
-0.00550325
-0.00543039
-0.00535629
-0.00528098
-0.0052045
-0.00512684
-0.00504808
-0.00496823
-0.00488731
-0.00480537
-0.00472247
-0.00463862
-0.00455387
-0.00446824
-0.00438182
-0.00429465
-0.00420672
-0.00411814
-0.00402897
-0.0039392
-0.00384895
-0.00375823
-0.00366713
-0.00357567
-0.00348397
-0.00339203
-0.00329992
-0.00320774
-0.00311551
-0.00302331
-0.00293118
-0.00283922
-0.00274744
-0.00265592
-0.00256472
-0.00247387
-0.00238348
-0.00229352
-0.00220407
-0.0021152
-0.00202691
-0.00193927
-0.00185231
-0.00176602
-0.00168045
-0.00159564
-0.00151159
-0.00142827
-0.00134576
-0.00126401
-0.00118306
-0.00110285
-0.00102338
-0.000944672
-0.000866631
-0.000789318
-0.000712612
-0.000636519
-0.000560985
-0.000485978
-0.00041148
-0.000337357
-0.000263611
-0.000190166
-0.000116952
-4.39473e-05
2.89137e-05
0.000101747
0.00017457
0.000247462
0.000320441
0.000393624
0.000467063
0.000540738
0.000614773
0.000689189
0.000764014
0.000839311
0.000915064
0.00099135
0.00106813
0.00114547
0.00122332
0.00130171
0.00138063
0.00146005
0.00153993
0.00162026
0.001701
0.00178209
0.00186349
0.00194514
0.00202697
0.00210892
0.0021909
0.00227281
0.0023546
0.00243621
0.00251749
0.0025984
0.00267883
0.00275865
0.00283781
0.0029162
0.00299376
0.00307035
0.0031459
0.00322034
0.00329356
0.00336552
0.0034361
0.00350524
0.00357288
0.00363898
0.00370346
0.00376623
0.0038273
0.00388657
0.00394402
0.00399968
0.00405342
0.00410526
0.00415517
0.00420312
0.00424911
0.00429312
0.00433514
0.00437516
0.00441316
0.00444917
0.00448315
0.00451514
0.00454511
0.00457304
0.00459899
0.00462292
0.00464484
0.00466477
0.00468271
0.00469866
0.00471261
0.0047246
0.00473462
0.00474273
0.00474895
0.0047533
0.00475589
0.0047568
0.00475617
0.0047541
0.00475056
0.00474729
-0.00720123
-0.00720476
-0.00720832
-0.00721002
-0.00721006
-0.00720837
-0.00720496
-0.00719977
-0.00719271
-0.0071838
-0.00717304
-0.00716042
-0.00714592
-0.00712959
-0.00711139
-0.00709137
-0.00706954
-0.00704589
-0.00702048
-0.0069933
-0.00696433
-0.0069337
-0.0069013
-0.00686723
-0.00683146
-0.00679404
-0.00675496
-0.00671428
-0.00667196
-0.00662805
-0.00658256
-0.00653548
-0.00648687
-0.00643671
-0.00638503
-0.00633184
-0.00627716
-0.00622098
-0.00616336
-0.00610428
-0.00604374
-0.00598182
-0.00591847
-0.00585375
-0.00578766
-0.0057202
-0.00565142
-0.00558135
-0.00550998
-0.00543733
-0.00536347
-0.00528838
-0.0052121
-0.00513467
-0.0050561
-0.00497643
-0.00489571
-0.00481395
-0.0047312
-0.0046475
-0.00456285
-0.00447739
-0.00439107
-0.00430396
-0.00421612
-0.00412761
-0.00403847
-0.00394873
-0.00385847
-0.00376773
-0.00367659
-0.00358507
-0.00349328
-0.00340124
-0.00330903
-0.0032167
-0.0031243
-0.0030319
-0.00293958
-0.00284735
-0.00275531
-0.00266354
-0.00257203
-0.00248087
-0.00239014
-0.00229981
-0.00221001
-0.00212074
-0.00203204
-0.00194398
-0.00185655
-0.00176982
-0.0016838
-0.00159849
-0.00151396
-0.00143017
-0.00134712
-0.00126491
-0.00118342
-0.00110268
-0.00102269
-0.000943459
-0.00086493
-0.000787048
-0.000709835
-0.000633266
-0.000557237
-0.000481731
-0.000406721
-0.000332118
-0.000257923
-0.000184014
-0.00011039
-3.6949e-05
3.63423e-05
0.000109566
0.000182749
0.000256001
0.000329364
0.000402857
0.000476585
0.000550567
0.000624852
0.000699508
0.000774571
0.000850021
0.000925995
0.0010024
0.00107932
0.00115676
0.00123469
0.00131314
0.00139209
0.00147152
0.00155141
0.00163171
0.00171238
0.0017934
0.00187469
0.00195621
0.0020379
0.00211968
0.00220147
0.00228319
0.00236477
0.00244612
0.00252714
0.00260779
0.0026879
0.00276742
0.00284626
0.00292433
0.00300152
0.00307774
0.00315295
0.00322701
0.00329987
0.00337142
0.00344163
0.00351039
0.00357765
0.00364334
0.00370743
0.00376984
0.00383054
0.00388944
0.00394657
0.00400183
0.00405525
0.00410678
0.00415638
0.00420403
0.00424972
0.00429347
0.00433521
0.004375
0.00441278
0.00444858
0.00448238
0.0045142
0.00454401
0.00457185
0.0045977
0.00462154
0.00464343
0.00466331
0.00468123
0.00469719
0.00471118
0.00472325
0.00473337
0.0047416
0.00474795
0.00475245
0.00475517
0.00475617
0.00475552
0.0047533
0.00474931
0.00474546
-0.00720196
-0.00720586
-0.00720979
-0.00721164
-0.00721171
-0.00721004
-0.00720659
-0.00720134
-0.00719427
-0.00718534
-0.00717457
-0.00716194
-0.00714747
-0.00713113
-0.00711301
-0.00709306
-0.00707129
-0.00704774
-0.00702242
-0.00699536
-0.00696654
-0.00693601
-0.00690376
-0.00686986
-0.00683425
-0.00679699
-0.00675811
-0.0067176
-0.00667546
-0.00663176
-0.00658647
-0.00653962
-0.00649121
-0.00644126
-0.00638981
-0.00633683
-0.00628237
-0.00622645
-0.00616904
-0.00611016
-0.00604987
-0.00598817
-0.00592506
-0.00586058
-0.00579471
-0.00572748
-0.00565892
-0.00558904
-0.0055179
-0.00544546
-0.00537178
-0.0052969
-0.00522079
-0.00514351
-0.00506511
-0.0049856
-0.00490502
-0.00482338
-0.00474074
-0.00465713
-0.00457261
-0.00448717
-0.00440089
-0.00431382
-0.004226
-0.00413749
-0.00404831
-0.00395856
-0.00386821
-0.00377739
-0.00368615
-0.00359452
-0.00350259
-0.00341036
-0.00331795
-0.00322539
-0.00313277
-0.00304013
-0.00294751
-0.00285501
-0.00276267
-0.00267053
-0.00257868
-0.00248714
-0.00239599
-0.00230529
-0.00221504
-0.00212533
-0.0020362
-0.00194767
-0.00185977
-0.00177254
-0.00168602
-0.00160023
-0.00151516
-0.00143089
-0.00134736
-0.00126458
-0.00118258
-0.00110133
-0.00102086
-0.000941114
-0.000862062
-0.000783703
-0.000706003
-0.000628926
-0.000552426
-0.000476479
-0.000401017
-0.000325972
-0.000251349
-0.000177031
-0.000103015
-2.92113e-05
4.4463e-05
0.000118032
0.000191575
0.000265116
0.000338763
0.000412553
0.000486543
0.000560759
0.000635284
0.000710138
0.000785363
0.000861043
0.000937108
0.00101367
0.00109073
0.00116824
0.00124626
0.00132476
0.00140376
0.00148319
0.00156308
0.00164337
0.00172401
0.00180499
0.00188622
0.00196766
0.00204924
0.00213089
0.00221255
0.00229411
0.00237553
0.0024567
0.00253753
0.00261793
0.00269784
0.00277713
0.00285569
0.0029335
0.00301042
0.00308635
0.00316126
0.00323501
0.00330756
0.00337882
0.00344867
0.00351711
0.00358405
0.0036494
0.00371314
0.0037752
0.00383558
0.00389416
0.00395095
0.00400592
0.00405902
0.00411022
0.00415953
0.00420688
0.00425232
0.00429579
0.00433732
0.00437686
0.00441441
0.00445004
0.00448365
0.00451529
0.00454496
0.00457268
0.00459841
0.00462217
0.004644
0.00466383
0.00468175
0.00469769
0.00471174
0.00472385
0.00473405
0.00474233
0.00474877
0.00475335
0.00475615
0.00475714
0.00475645
0.00475401
0.00474956
0.00474525
-0.00720467
-0.00720882
-0.00721299
-0.00721501
-0.00721516
-0.00721352
-0.00721006
-0.00720479
-0.00719766
-0.00718871
-0.00717793
-0.00716529
-0.00715083
-0.00713453
-0.00711645
-0.00709652
-0.00707482
-0.00705136
-0.00702613
-0.00699916
-0.00697044
-0.00694004
-0.00690792
-0.00687414
-0.0068387
-0.00680159
-0.00676287
-0.00672251
-0.0066806
-0.00663704
-0.00659193
-0.00654528
-0.00649708
-0.00644735
-0.00639609
-0.00634331
-0.00628906
-0.00623332
-0.00617612
-0.00611751
-0.00605741
-0.00599592
-0.00593301
-0.0058687
-0.00580303
-0.005736
-0.00566763
-0.00559796
-0.00552698
-0.00545472
-0.00538119
-0.00530645
-0.0052305
-0.00515336
-0.00507506
-0.00499564
-0.00491516
-0.00483358
-0.00475103
-0.00466746
-0.00458294
-0.00449753
-0.00441125
-0.00432415
-0.00423629
-0.00414768
-0.00405843
-0.00396854
-0.0038781
-0.00378712
-0.0036957
-0.00360387
-0.00351168
-0.00341925
-0.00332656
-0.00323373
-0.00314079
-0.00304783
-0.00295488
-0.00286199
-0.00276926
-0.00267672
-0.00258444
-0.0024925
-0.00240089
-0.00230971
-0.00221901
-0.00212882
-0.00203917
-0.00195011
-0.00186172
-0.00177398
-0.00168697
-0.00160062
-0.00151504
-0.00143022
-0.00134619
-0.00126287
-0.00118036
-0.00109863
-0.00101762
-0.000937388
-0.000857862
-0.000779019
-0.00070084
-0.000623315
-0.00054638
-0.000470005
-0.000394125
-0.000318685
-0.000243639
-0.000168982
-9.46023e-05
-2.04432e-05
5.35382e-05
0.000127404
0.000201247
0.000275048
0.000348942
0.000422966
0.000497161
0.0005716
0.000646307
0.000721333
0.000796735
0.000872515
0.00094872
0.0010254
0.00110252
0.00118013
0.00125821
0.00133678
0.0014158
0.00149528
0.0015752
0.00165547
0.00173608
0.00181702
0.00189821
0.00197959
0.00206112
0.00214268
0.00222425
0.00230571
0.00238702
0.00246803
0.00254874
0.00262898
0.00270868
0.0027878
0.00286617
0.00294379
0.00302048
0.00309621
0.00317088
0.00324439
0.00331664
0.00338763
0.00345725
0.00352539
0.00359205
0.00365711
0.00372057
0.00378234
0.00384241
0.0039007
0.00395721
0.00401187
0.00406467
0.00411561
0.00416466
0.00421178
0.00425691
0.00430015
0.00434144
0.00438075
0.00441811
0.00445351
0.00448694
0.00451844
0.00454797
0.00457554
0.00460116
0.00462485
0.00464659
0.0046664
0.00468427
0.00470023
0.00471428
0.00472641
0.00473664
0.00474499
0.00475147
0.00475609
0.00475889
0.00475985
0.00475905
0.00475641
0.00475155
0.0047469
-0.00720936
-0.00721367
-0.00721805
-0.00722018
-0.00722039
-0.00721879
-0.00721534
-0.00721006
-0.00720291
-0.00719394
-0.00718313
-0.00717052
-0.00715604
-0.00713976
-0.00712168
-0.00710182
-0.00708019
-0.00705676
-0.0070316
-0.00700472
-0.00697609
-0.00694577
-0.0069138
-0.00688011
-0.0068448
-0.00680785
-0.00676928
-0.00672909
-0.00668731
-0.00664392
-0.00659899
-0.00655251
-0.00650445
-0.00645491
-0.00640383
-0.00635124
-0.00629719
-0.00624164
-0.00618464
-0.00612617
-0.00606626
-0.00600497
-0.00594223
-0.0058781
-0.00581261
-0.00574576
-0.00567754
-0.00560799
-0.00553717
-0.00546503
-0.00539165
-0.00531702
-0.00524115
-0.00516408
-0.00508587
-0.00500652
-0.00492606
-0.00484453
-0.00476195
-0.00467837
-0.00459385
-0.00450838
-0.00442201
-0.00433484
-0.00424687
-0.00415811
-0.00406869
-0.00397865
-0.00388799
-0.00379678
-0.0037051
-0.003613
-0.00352053
-0.00342777
-0.00333474
-0.00324154
-0.00314822
-0.00305487
-0.00296146
-0.00286817
-0.00277496
-0.00268199
-0.0025892
-0.00249676
-0.00240465
-0.00231294
-0.0022217
-0.00213098
-0.00204079
-0.00195119
-0.00186226
-0.00177395
-0.00168637
-0.00159949
-0.00151337
-0.00142801
-0.0013434
-0.00125959
-0.00117654
-0.00109429
-0.00101279
-0.000932062
-0.000852037
-0.000772735
-0.000694112
-0.000616162
-0.000538798
-0.000462008
-0.000385744
-0.000309941
-0.00023458
-0.000159574
-8.48453e-05
-1.0415e-05
6.38429e-05
0.000137972
0.000212037
0.00028609
0.000360199
0.000434419
0.000508771
0.000583385
0.000658248
0.000733405
0.000808917
0.000884807
0.000961131
0.00103786
0.00111507
0.00119275
0.00127087
0.00134945
0.00142851
0.00150801
0.00158789
0.00166817
0.00174883
0.00182975
0.00191091
0.00199224
0.00207373
0.00215524
0.00223674
0.00231813
0.00239933
0.00248028
0.00256087
0.00264099
0.0027206
0.00279958
0.00287783
0.00295526
0.0030318
0.00310736
0.00318183
0.00325514
0.00332721
0.00339797
0.00346736
0.00353528
0.00360167
0.00366649
0.00372973
0.00379125
0.00385107
0.00390909
0.00396534
0.00401973
0.00407227
0.00412296
0.00417172
0.00421857
0.0042635
0.00430651
0.00434756
0.00438666
0.00442381
0.00445903
0.00449228
0.00452362
0.00455298
0.00458045
0.00460596
0.00462954
0.00465122
0.00467097
0.00468881
0.00470476
0.00471877
0.00473092
0.00474119
0.00474956
0.00475607
0.00476071
0.00476348
0.0047644
0.00476349
0.00476062
0.00475547
0.00475054
-0.00721608
-0.00722051
-0.00722502
-0.00722721
-0.0072275
-0.00722591
-0.00722245
-0.00721716
-0.00721001
-0.00720101
-0.00719019
-0.00717755
-0.00716308
-0.00714681
-0.00712875
-0.00710891
-0.00708729
-0.00706392
-0.00703881
-0.00701198
-0.00698347
-0.00695326
-0.00692133
-0.00688779
-0.00685257
-0.00681575
-0.00677729
-0.00673724
-0.00669558
-0.00665236
-0.00660756
-0.00656123
-0.00651337
-0.00646396
-0.00641306
-0.00636067
-0.00630674
-0.00625136
-0.00619451
-0.00613621
-0.00607649
-0.00601532
-0.00595273
-0.00588877
-0.00582339
-0.00575665
-0.0056886
-0.00561917
-0.00554843
-0.0054764
-0.00540308
-0.00532851
-0.00525271
-0.00517569
-0.0050975
-0.00501815
-0.00493768
-0.00485611
-0.00477348
-0.00468982
-0.00460517
-0.0045196
-0.0044331
-0.00434576
-0.00425757
-0.00416865
-0.00407899
-0.00398866
-0.00389772
-0.00380623
-0.0037142
-0.00362173
-0.00352892
-0.00343574
-0.0033423
-0.00324869
-0.00315489
-0.00306104
-0.00296718
-0.00287333
-0.00277962
-0.00268608
-0.00259275
-0.00249972
-0.00240705
-0.00231475
-0.00222294
-0.00213161
-0.00204084
-0.00195064
-0.00186109
-0.00177222
-0.00168405
-0.00159659
-0.00150986
-0.00142395
-0.00133878
-0.00125443
-0.00117085
-0.00108809
-0.00100608
-0.000924837
-0.000844367
-0.000764611
-0.000685558
-0.000607151
-0.000529427
-0.000452239
-0.000375608
-0.000299494
-0.000223793
-0.000148483
-7.35028e-05
1.19998e-06
7.56999e-05
0.00015007
0.000224312
0.000298551
0.000372852
0.000447211
0.000521733
0.000596435
0.000671405
0.000746658
0.00082226
0.00089822
0.000974586
0.00105139
0.00112863
0.00120635
0.00128447
0.00136309
0.00144216
0.00152166
0.00160155
0.00168181
0.00176244
0.00184332
0.00192447
0.00200579
0.00208723
0.00216872
0.00225015
0.00233149
0.00241267
0.00249355
0.00257405
0.00265412
0.00273361
0.00281249
0.00289063
0.00296796
0.00304437
0.00311981
0.00319411
0.00326729
0.00333921
0.00340979
0.00347901
0.00354675
0.00361296
0.00367759
0.00374057
0.0038019
0.00386146
0.00391928
0.0039753
0.00402947
0.00408179
0.00413222
0.00418074
0.00422738
0.00427207
0.00431486
0.00435571
0.0043946
0.00443155
0.00446658
0.00449965
0.00453081
0.00456007
0.00458738
0.00461279
0.00463627
0.00465785
0.00467754
0.00469533
0.00471124
0.00472528
0.00473742
0.00474769
0.00475608
0.00476256
0.00476722
0.00476996
0.00477081
0.0047698
0.0047668
0.00476139
0.00475626
-0.00722481
-0.00722932
-0.00723392
-0.00723617
-0.00723645
-0.00723488
-0.00723143
-0.00722613
-0.00721895
-0.00720992
-0.00719909
-0.00718641
-0.00717196
-0.00715567
-0.0071376
-0.00711778
-0.00709619
-0.00707286
-0.00704778
-0.007021
-0.00699256
-0.00696239
-0.00693059
-0.0068971
-0.006862
-0.00682526
-0.00678694
-0.006747
-0.00670546
-0.00666235
-0.00661771
-0.00657149
-0.00652377
-0.00647452
-0.00642376
-0.00637146
-0.00631772
-0.00626248
-0.00620576
-0.0061476
-0.00608799
-0.00602697
-0.00596451
-0.00590062
-0.00583537
-0.00576874
-0.00570074
-0.00563139
-0.00556073
-0.00548872
-0.00541545
-0.0053409
-0.00526511
-0.00518808
-0.00510983
-0.00503043
-0.00494989
-0.00486821
-0.00478547
-0.00470168
-0.00461687
-0.0045311
-0.00444438
-0.0043568
-0.00426836
-0.00417914
-0.00408915
-0.00399849
-0.00390717
-0.00381529
-0.00372286
-0.00362997
-0.00353667
-0.003443
-0.00334908
-0.00325491
-0.00316057
-0.00306615
-0.0029717
-0.00287729
-0.00278295
-0.00268881
-0.00259485
-0.00250119
-0.00240787
-0.00231495
-0.00222245
-0.00213048
-0.00203904
-0.00194821
-0.00185801
-0.00176851
-0.00167971
-0.00159164
-0.00150431
-0.00141779
-0.00133205
-0.00124714
-0.001163
-0.0010797
-0.000997185
-0.00091546
-0.000834512
-0.000754304
-0.00067482
-0.000596034
-0.000517887
-0.000440357
-0.000363412
-0.000286949
-0.000210966
-0.000135396
-6.01839e-05
1.47595e-05
8.94696e-05
0.000164001
0.000238466
0.000312819
0.00038722
0.000461702
0.00053631
0.000611123
0.000686125
0.000761446
0.000837087
0.000913087
0.000989468
0.00106629
0.00114353
0.00122121
0.00129936
0.00137794
0.00145701
0.00153647
0.00161635
0.00169659
0.00177717
0.00185803
0.00193914
0.00202042
0.00210182
0.00218327
0.00226469
0.00234599
0.00242709
0.00250792
0.0025884
0.00266838
0.00274784
0.00282666
0.00290471
0.00298196
0.00305827
0.00313359
0.00320782
0.00328088
0.00335266
0.00342314
0.0034922
0.0035598
0.00362584
0.0036903
0.00375314
0.00381427
0.00387365
0.00393127
0.00398706
0.00404104
0.00409315
0.00414336
0.00419169
0.0042381
0.0042826
0.00432518
0.0043658
0.00440451
0.00444129
0.00447614
0.00450905
0.00454007
0.00456916
0.00459634
0.00462162
0.00464499
0.00466651
0.00468615
0.00470388
0.00471976
0.00473375
0.00474589
0.00475613
0.00476452
0.00477103
0.00477566
0.00477837
0.00477919
0.00477807
0.00477494
0.00476935
0.00476404
-0.00723562
-0.00724013
-0.00724476
-0.00724704
-0.00724732
-0.00724576
-0.00724227
-0.00723692
-0.00722972
-0.00722068
-0.00720982
-0.00719714
-0.00718262
-0.00716634
-0.00714826
-0.00712843
-0.00710684
-0.00708356
-0.00705851
-0.00703178
-0.00700334
-0.00697325
-0.0069415
-0.00690813
-0.00687307
-0.00683645
-0.00679819
-0.00675834
-0.00671691
-0.00667394
-0.00662939
-0.00658331
-0.00653568
-0.00648655
-0.00643588
-0.00638374
-0.00633006
-0.00627495
-0.00621835
-0.00616028
-0.00610078
-0.00603984
-0.00597746
-0.00591366
-0.00584848
-0.00578189
-0.00571395
-0.00564464
-0.00557396
-0.00550199
-0.00542869
-0.00535411
-0.00527824
-0.00520113
-0.00512281
-0.00504327
-0.00496261
-0.00488078
-0.00479782
-0.00471383
-0.00462878
-0.00454274
-0.00445573
-0.0043678
-0.00427903
-0.00418944
-0.00409905
-0.00400795
-0.00391619
-0.00382381
-0.00373087
-0.00363745
-0.0035436
-0.00344935
-0.00335483
-0.00326005
-0.00316509
-0.00307001
-0.00297489
-0.0028798
-0.00278479
-0.00268991
-0.00259526
-0.0025009
-0.00240685
-0.0023132
-0.00222
-0.00212731
-0.00203518
-0.00194363
-0.00185277
-0.00176255
-0.00167307
-0.00158436
-0.00149641
-0.00140924
-0.00132289
-0.00123738
-0.00115268
-0.00106883
-0.000985818
-0.000903584
-0.000822184
-0.000741514
-0.00066161
-0.000582437
-0.000503907
-0.000426041
-0.000348758
-0.000272017
-0.000195752
-0.000119937
-4.44852e-05
3.06318e-05
0.000105503
0.000180191
0.00025474
0.000329229
0.000403734
0.000478274
0.00055292
0.000627745
0.00070279
0.00077811
0.000853754
0.000929731
0.00100608
0.00108286
0.00116005
0.0012377
0.00131578
0.00139434
0.00147332
0.00155273
0.00163256
0.00171273
0.00179326
0.00187409
0.00195512
0.00203635
0.00211771
0.00219911
0.00228046
0.00236173
0.00244279
0.00252355
0.00260398
0.00268391
0.00276334
0.00284209
0.00292012
0.00299729
0.00307355
0.0031488
0.00322294
0.00329592
0.00336764
0.00343798
0.00350693
0.00357441
0.00364033
0.00370466
0.00376733
0.0038283
0.00388752
0.00394499
0.00400063
0.00405443
0.00410633
0.00415637
0.00420451
0.00425076
0.00429505
0.00433741
0.00437785
0.00441639
0.00445298
0.00448766
0.00452043
0.00455128
0.00458023
0.00460729
0.00463246
0.00465574
0.00467717
0.0046967
0.00471441
0.00473022
0.00474419
0.00475631
0.00476655
0.00477493
0.00478144
0.00478605
0.00478874
0.00478951
0.00478837
0.00478513
0.00477942
0.00477402
-0.00724842
-0.00725297
-0.00725757
-0.00725984
-0.00726013
-0.00725851
-0.00725498
-0.00724959
-0.00724235
-0.00723328
-0.00722236
-0.00720963
-0.0071951
-0.00717879
-0.00716069
-0.00714084
-0.00711929
-0.00709597
-0.00707097
-0.00704425
-0.00701587
-0.00698582
-0.0069541
-0.00692076
-0.0068858
-0.00684923
-0.00681106
-0.00677129
-0.00672996
-0.00668706
-0.00664259
-0.0065966
-0.00654906
-0.00650002
-0.00644944
-0.00639738
-0.00634382
-0.00628876
-0.00623224
-0.00617426
-0.00611481
-0.00605392
-0.0059916
-0.00592786
-0.0058627
-0.00579611
-0.00572817
-0.00565883
-0.00558814
-0.00551609
-0.00544273
-0.00536804
-0.00529207
-0.00521483
-0.00513635
-0.00505663
-0.00497571
-0.00489365
-0.00481045
-0.00472615
-0.00464077
-0.00455437
-0.00446701
-0.00437867
-0.00428947
-0.00419938
-0.00410848
-0.00401688
-0.00392455
-0.00383161
-0.00373807
-0.00364401
-0.0035495
-0.00345459
-0.00335935
-0.00326385
-0.00316817
-0.00307235
-0.00297648
-0.0028806
-0.00278483
-0.00268916
-0.00259372
-0.00249856
-0.00240371
-0.0023093
-0.00221529
-0.00212183
-0.00202892
-0.00193663
-0.00184498
-0.00175406
-0.00166385
-0.0015744
-0.00148578
-0.00139798
-0.00131098
-0.00122487
-0.00113959
-0.00105517
-0.000971585
-0.000888854
-0.000806967
-0.000725835
-0.000645526
-0.000565949
-0.000487086
-0.000408875
-0.000331264
-0.000254272
-0.000177764
-0.000101759
-2.60952e-05
4.91707e-05
0.000124183
0.000198984
0.000273622
0.000348162
0.000422698
0.000497251
0.000571921
0.000646731
0.000721727
0.000796991
0.000872568
0.00094849
0.00102475
0.00110145
0.00117856
0.0012561
0.0013341
0.00141252
0.0014914
0.00157073
0.00165041
0.00173052
0.00181093
0.00189166
0.00197261
0.00205377
0.00213505
0.00221637
0.00229764
0.00237884
0.00245985
0.00254058
0.00262093
0.00270083
0.0027802
0.0028589
0.00293687
0.003014
0.00309021
0.0031654
0.0032395
0.00331241
0.00338403
0.00345432
0.00352319
0.00359057
0.0036564
0.00372064
0.0037832
0.00384404
0.00390314
0.00396045
0.00401593
0.00406957
0.00412133
0.00417121
0.00421916
0.00426522
0.00430935
0.00435156
0.00439184
0.00443019
0.00446662
0.00450115
0.00453374
0.00456447
0.00459327
0.00462021
0.00464529
0.00466848
0.00468981
0.00470928
0.00472689
0.00474268
0.00475663
0.00476871
0.00477893
0.00478729
0.0047938
0.00479841
0.0048011
0.00480184
0.00480066
0.00479736
0.00479161
0.00478615
-0.00726332
-0.00726779
-0.00727236
-0.00727459
-0.00727481
-0.00727316
-0.00726958
-0.00726416
-0.00725685
-0.00724772
-0.00723675
-0.00722398
-0.00720941
-0.00719305
-0.00717495
-0.00715509
-0.00713348
-0.00711017
-0.00708516
-0.00705846
-0.00703009
-0.00700008
-0.00696842
-0.0069351
-0.00690018
-0.00686366
-0.00682552
-0.00678582
-0.00674454
-0.00670169
-0.00665732
-0.00661138
-0.00656391
-0.00651493
-0.00646443
-0.00641241
-0.00635891
-0.00630391
-0.00624743
-0.00618951
-0.00613008
-0.00606919
-0.00600689
-0.00594313
-0.00587793
-0.00581134
-0.00574332
-0.00567392
-0.00560312
-0.00553098
-0.00545748
-0.00538264
-0.00530647
-0.00522903
-0.0051503
-0.00507032
-0.00498913
-0.00490674
-0.00482319
-0.00473849
-0.00465273
-0.00456588
-0.00447802
-0.00438918
-0.00429943
-0.00420878
-0.00411731
-0.00402506
-0.00393207
-0.00383843
-0.00374417
-0.00364941
-0.00355413
-0.00345847
-0.00336241
-0.0032661
-0.0031696
-0.00307293
-0.00297619
-0.00287947
-0.00278281
-0.00268627
-0.00258994
-0.0024939
-0.00239819
-0.00230289
-0.00220804
-0.00211372
-0.00201995
-0.00192683
-0.00183439
-0.00174267
-0.00165169
-0.00156151
-0.00147214
-0.00138363
-0.00129598
-0.00120919
-0.0011233
-0.00103829
-0.000954188
-0.000870905
-0.000788525
-0.000706939
-0.000626201
-0.000546242
-0.000467007
-0.000388482
-0.000310598
-0.00023333
-0.000156626
-8.03958e-05
-4.59892e-06
7.08091e-05
0.000145917
0.000220767
0.000295469
0.000370045
0.00044455
0.000519076
0.000593692
0.000668428