/*--------------------------------*- C++ -*----------------------------------*\
  =========                 |
  \\      /  F ield         | OpenFOAM: The Open Source CFD Toolbox
   \\    /   O peration     | Website:  https://openfoam.org
    \\  /    A nd           | Version:  6
     \\/     M anipulation  |
\*---------------------------------------------------------------------------*/
FoamFile
{
    version     2.0;
    format      ascii;
    class       volVectorField;
    location    "0";
    object      U;
}
// * * * * * * * * * * * * * * * * * * * * * * * * * * * * * * * * * * * * * //

dimensions      [0 1 -1 0 0 0 0];

internalField   nonuniform List<vector> 
918
(
(0.985712 0.003865 0)
(-0.00401031 2.9674 0)
(-0.00174185 1.62288 0)
(0.980741 -0.0020657 0)
(-0.00713637 1.58031 2.19506e-22)
(0.00136558 2.951 -1.40429e-18)
(0.850112 1.1687 4.9079e-19)
(0.470156 0.20315 -5.88198e-21)
(0.999911 -0.000305827 0)
(0.0111347 0.89884 0)
(-0.000574317 1.28468 0)
(0.799406 -0.00817628 0)
(0.0089017 2.93481 0)
(0.00354039 2.7976 0)
(-0.00102517 3.19951 7.86199e-19)
(-0.0111429 1.49435 -7.79903e-21)
(0.580565 0.0832119 3.70255e-19)
(0.184373 1.11753 4.45277e-19)
(0.965817 0.00378521 0)
(-0.00323518 1.41442 0)
(0.205584 0.258941 -3.123e-19)
(1.00174 -0.00513062 0)
(1.00168 -0.00831913 0)
(0.977441 -0.00489891 0)
(0.721162 -0.0182332 0)
(0.0305898 2.63797 0)
(-0.0107324 2.91582 4.70782e-19)
(-0.0168884 1.64847 0)
(-0.0167366 1.75724 0)
(-0.0190849 1.64499 0)
(-0.00515976 1.82161 0)
(0.000650023 1.59928 -1.71793e-22)
(-0.0104091 1.49808 0)
(-0.0198115 2.98959 -4.92871e-23)
(-0.0137511 3.00797 1.10544e-18)
(0.00163841 2.99972 0)
(0.873575 -0.00653577 0)
(0.368179 0.915208 -1.84042e-20)
(0.860223 1.18435 -7.2022e-19)
(0.993128 1.05141 6.51692e-19)
(0.721119 1.26308 -1.14453e-19)
(0.735687 1.23385 6.47117e-19)
(0.504158 0.284014 5.73696e-21)
(0.49858 0.177729 0)
(1.19025 0.541258 0)
(0.469188 0.313152 2.68674e-20)
(0.416611 0.209977 -2.78905e-20)
(0.923352 -0.00548919 0)
(1.0003 -7.81203e-05 0)
(0.999891 0.000319928 0)
(1.00323 -0.00748275 0)
(1.0009 -0.00114276 0)
(1.00015 -5.18222e-05 0)
(0.093489 1.63016 -2.01158e-19)
(0.001702 0.966443 0)
(0.070242 0.824111 0)
(-0.036631 1.05932 0)
(-0.0243734 0.998331 0)
(-0.00785882 1.58218 0)
(-0.00738318 1.45186 0)
(-0.00718675 1.26809 0)
(-0.0105311 1.48867 0)
(-0.00779312 1.29385 0)
(0.877211 0.000512696 0)
(0.885255 0.0116537 0)
(0.810943 -0.00150771 0)
(0.878535 0.0167309 0)
(0.779673 -0.00748819 0)
(0.0137294 3.00357 5.06827e-19)
(0.011556 3.00439 0)
(0.0074186 3.00385 0)
(0.0105981 2.9981 5.66808e-24)
(0.00621462 2.96195 -7.62631e-19)
(0.0116757 2.98456 0)
(0.00830173 2.90918 0)
(0.0215113 2.93324 1.03673e-24)
(0.00464374 2.82756 0)
(0.0260084 2.91961 0)
(-0.000232663 2.74605 0)
(0.311864 3.60499 0)
(-0.128188 3.68668 0)
(0.150916 3.29168 -7.28551e-19)
(0.0057633 3.02258 0)
(-0.0119574 1.80112 0)
(-0.00487457 1.63598 7.69232e-21)
(-0.00763983 1.51131 -1.32658e-20)
(0.635732 0.152406 -1.27442e-19)
(0.596455 0.0472744 -1.23204e-19)
(0.607097 0.18729 -3.84299e-19)
(0.545612 0.115714 -2.56435e-19)
(0.288152 0.957728 0)
(0.276585 1.23811 -4.3906e-19)
(0.354216 1.22939 7.22752e-19)
(0.989391 0.00677464 0)
(0.945847 0.00602397 0)
(0.999815 0.000786561 0)
(1.00377 0.00762605 0)
(1.00335 0.00868058 -6.84479e-19)
(0.992856 0.00733938 5.24015e-19)
(-0.0186797 1.54565 0)
(-0.0096309 1.39489 0)
(-0.0214077 1.65321 0)
(-0.0201618 1.58575 0)
(-0.00138047 1.44883 0)
(0.232198 0.285179 9.60948e-20)
(0.288251 0.256981 0)
(0.994732 -0.0060346 0)
(0.956086 -0.00546755 0)
(0.851834 0.0206821 0)
(0.817578 0.036064 0)
(0.757183 -0.0135302 0)
(1.02181 -0.00497022 0)
(0.771238 0.048638 0)
(0.643552 -0.013184 4.83885e-19)
(-0.0351533 2.86623 2.77025e-19)
(0.0356972 2.91342 0)
(0.0446179 2.89058 0)
(0.00505346 2.70067 0)
(-0.00776719 2.98812 4.38035e-19)
(-0.0124194 2.8991 0)
(-0.00962405 2.99258 -1.37568e-18)
(-0.00943505 2.93234 4.73581e-19)
(-0.0126027 1.81271 0)
(-0.0101577 1.80781 0)
(-0.00136799 1.63082 -1.59786e-22)
(-0.000600189 1.60022 0)
(-0.00960553 1.49358 0)
(0.93357 -0.00368267 0)
(0.861356 -0.00698915 0)
(0.872892 0.0102191 0)
(0.947889 -0.00342315 0)
(0.891086 -0.00544465 0)
(0.496966 1.1149 1.57715e-20)
(0.545445 1.18897 0)
(0.326234 0.839588 3.45631e-21)
(0.26807 0.706189 0)
(0.965029 1.0741 -1.90155e-19)
(1.07851 0.878247 3.83779e-19)
(0.480721 1.31931 0)
(0.571533 1.33273 0)
(0.595982 1.24484 0)
(0.104763 0.112257 -7.6723e-20)
(0.529304 0.252646 0)
(0.511096 0.157307 7.35573e-20)
(1.04086 0.925958 0)
(1.10997 0.764768 0)
(1.14056 0.700067 -3.33335e-19)
(1.16885 0.605201 0)
(1.22562 0.390531 3.29001e-20)
(0.957662 -0.00457495 0)
(0.963396 -0.00543074 0)
(0.905684 -0.00431207 0)
(0.985029 -0.00678031 0)
(0.97671 -0.00656456 0)
(0.939304 -0.00507721 0)
(0.999787 0.00222253 0)
(1.00087 0.00117335 0)
(0.999971 0.000703121 0)
(0.039911 1.84027 1.27454e-19)
(0.0862647 1.55686 0)
(0.0332654 1.82959 1.32083e-19)
(0.0333722 1.59405 -1.08262e-19)
(0.105728 1.12031 -3.69044e-19)
(0.071269 0.99893 0)
(0.164405 0.937693 0)
(-0.0482947 1.20758 0)
(-0.0123482 1.12914 0)
(-0.00141526 1.72867 -6.07268e-22)
(0.000972832 1.60782 0)
(-0.00958255 1.70821 -2.61241e-20)
(-0.0127869 1.56064 5.04734e-20)
(-0.0226776 1.32623 0)
(-0.0204474 1.40415 0)
(-0.0126219 1.21532 0)
(-0.01348 1.51095 0)
(-0.00897994 1.32083 0)
(0.95699 0.0164868 0)
(0.900076 0.00471433 0)
(0.937154 0.0109364 0)
(0.865719 0.000864206 0)
(0.819584 -0.00109484 0)
(0.909535 0.00472947 0)
(0.899562 0.00518047 0)
(0.8141 -0.00561366 0)
(0.00928624 3.06478 -4.33982e-21)
(0.0142572 3.05748 0)
(0.0122485 2.97266 0)
(0.00743324 2.88096 0)
(0.915081 4.01329 0)
(1.21957 3.3915 7.55261e-19)
(0.080884 3.10482 0)
(-0.0135988 2.92782 0)
(-0.0133867 1.79586 0)
(-0.0136419 1.79721 0)
(-0.0129438 1.79614 0)
(-0.00698422 1.80979 2.53127e-21)
(-0.0107272 1.80794 0)
(-0.00896132 1.80614 0)
(-0.000268492 1.51507 1.24275e-21)
(0.0020364 1.65933 1.39652e-20)
(-0.00158165 1.65054 1.35456e-20)
(-0.00230634 1.51254 0)
(0.656331 0.105955 1.88681e-19)
(0.592457 0.0151888 -1.84181e-19)
(0.189663 1.50547 0)
(0.335804 0.720292 -1.58e-19)
(0.105843 1.59383 -5.28692e-19)
(0.204819 1.19323 5.28191e-19)
(0.908327 0.00932894 0)
(0.968792 0.0103621 0)
(0.976303 0.0101393 0)
(0.927589 0.00808684 0)
(-0.0182532 1.5197 0)
(-0.0198195 1.52962 0)
(-0.0104566 1.35667 0)
(0.424031 0.316111 2.45384e-19)
(0.364941 0.2914 -2.98744e-19)
(0.379058 0.237474 0)
(1.13977 0.0859508 -3.56828e-21)
(1.1272 0.0417298 0)
(1.05515 0.0375838 0)
(0.965237 0.0100768 0)
(0.663929 0.0755332 0)
(0.69846 0.0466379 -7.86703e-19)
(0.595807 -0.0112786 3.06078e-19)
(0.0110967 2.98146 3.33151e-19)
(-0.0284532 2.86742 3.25413e-20)
(0.00615392 3.05015 -9.34041e-21)
(0.0156216 3.04117 3.55278e-19)
(-0.00966651 3.0001 1.57598e-20)
(-0.00866488 2.9541 -6.43303e-23)
(-0.0150303 3.01285 -3.00918e-19)
(0.0125871 3.02383 2.12968e-19)
(0.00611969 3.03192 -3.41544e-19)
(0.934482 0.00712106 0)
(0.93476 0.00101483 0)
(0.856012 -0.00239525 0)
(0.958062 0.0122528 0)
(0.947157 0.0113554 0)
(0.890912 0.0086093 0)
(0.920916 0.00953797 0)
(0.93297 0.0152988 0)
(0.84402 0.00797359 0)
(0.687949 1.42495 2.01899e-19)
(0.709292 1.53856 0)
(0.189444 0.375934 1.52243e-20)
(0.15608 0.527046 1.19687e-19)
(0.230738 0.652338 -7.20922e-20)
(0.195982 0.542466 1.31142e-19)
(0.288361 0.672224 4.5854e-19)
(0.12391 0.151122 1.49723e-19)
(0.575208 0.21555 2.75582e-19)
(0.55535 0.241321 6.80038e-20)
(0.534389 0.14339 1.37091e-19)
(1.21515 0.450497 2.14677e-19)
(1.23488 0.247603 2.23345e-19)
(0.0357125 1.7751 5.26345e-20)
(0.0334909 1.59032 0)
(1.00302 0.0305389 0)
(0.971122 0.0204523 0)
(0.92378 0.00123254 0)
(0.0109167 3.07259 0)
(0.0170838 2.94582 6.02355e-19)
(0.0141928 2.95898 0)
(0.00621602 2.85414 -5.98962e-19)
(0.00853491 3.08812 1.42026e-19)
(0.0109069 3.08123 0)
(0.729771 1.83358 -1.67241e-19)
(1.26416 2.62601 5.55036e-19)
(0.710512 2.00522 -1.12982e-18)
(0.0229047 2.98297 -2.56762e-19)
(0.0419576 3.00998 0)
(-0.0318478 2.8861 0)
(-0.00712095 1.66866 -3.51547e-21)
(-0.000450118 1.66265 -3.21993e-20)
(-0.00220951 1.52921 -4.06579e-21)
(0.243598 1.2969 4.94781e-19)
(0.303028 0.446962 -3.42036e-19)
(0.0418477 1.79942 3.47146e-19)
(0.082756 1.73323 -4.32962e-19)
(0.147697 1.41611 6.0136e-20)
(0.00561627 3.11694 -8.42978e-19)
(0.0212443 3.1159 9.27357e-19)
(-0.00462551 2.98244 3.90529e-19)
(0.000398689 2.97771 -3.57363e-19)
(-0.0154446 2.88294 -3.97866e-19)
(0.01175 3.09643 -1.0429e-18)
(0.00507089 3.10502 1.03118e-18)
(0.180678 0.562338 0)
(0.123567 0.507117 -2.42451e-19)
(0.112975 0.163026 1.07205e-19)
(0.306123 0.777318 4.43413e-19)
(0.190472 0.198362 -6.76509e-19)
(1.22496 0.169109 -4.55236e-20)
(1.23228 0.304926 0)
(1.2195 0.111961 8.89973e-20)
(0.00707002 1.7529 -6.44057e-22)
(0.0299524 1.77203 0)
(0.0186743 1.59935 0)
(0.274893 1.1852 -1.73626e-19)
(0.334015 1.01068 -3.69937e-19)
(0.226101 0.309772 6.29352e-19)
(1.00589 -0.0107422 0)
(1.00676 -0.0069948 1.2655e-19)
(-0.0131247 1.80213 0)
(-0.0224694 1.81145 0)
(1.00156 0.00328218 1.18651e-21)
(1.00311 0.00864131 2.56769e-19)
(-0.00688527 1.8133 -3.36886e-21)
(-0.00666195 1.81195 0)
(0.0484944 3.17929 1.32584e-19)
(0.381032 3.54993 0)
(1.07639 0.681122 4.22e-20)
(1.0112 0.0119161 -1.4121e-21)
(1.01958 -0.0103397 0)
(1.00156 6.07251e-05 4.1931e-23)
(-0.15054 1.13514 0)
(-0.0930913 2.59243 0)
(-0.074392 1.71029 0)
(-0.0579559 1.94433 4.36324e-20)
(-0.0467678 1.87024 2.43521e-20)
(1.00354 0.0104573 1.3798e-21)
(1.0455 0.0169452 0)
(1.07593 0.0265079 0)
(-0.0145451 1.79887 0)
(-0.0117821 1.82446 0)
(-0.0272536 1.79694 0)
(0.315819 1.36511 -3.08477e-19)
(1.0091 -0.0092273 0)
(1.00871 -0.0148089 0)
(1.00219 0.000350303 1.58954e-19)
(1.00524 -0.00518414 -1.90216e-19)
(1.00112 -0.00106837 0)
(-0.0167042 1.79617 0)
(-0.0147489 1.79625 0)
(-0.0141971 1.79714 0)
(-0.0262671 1.79823 0)
(-0.0222507 1.79457 0)
(-0.0258311 1.79775 0)
(1.02092 -0.0107565 0)
(1.01943 0.0148315 -8.86062e-22)
(0.765438 1.30033 3.57637e-19)
(1.00319 0.00034972 -1.59122e-19)
(1.00328 0.00451156 1.92504e-19)
(1.00134 0.00200456 0)
(1.01173 0.0107727 1.55901e-19)
(1.00737 0.00873282 -1.94167e-19)
(1.00908 0.0126806 0)
(-0.0117667 1.82444 0)
(-0.00919657 1.81985 6.5786e-21)
(-0.011496 1.81777 -4.51778e-21)
(1.18717 0.259636 -6.71374e-20)
(1.12423 0.0892809 0)
(0.0597974 3.08628 -4.08232e-19)
(0.0527322 2.86582 -3.10112e-20)
(0.121866 3.20493 5.25664e-19)
(0.13117 3.22141 -4.97617e-20)
(0.150412 3.26322 0)
(0.0249164 3.13699 1.00687e-19)
(0.0722646 3.16256 4.01588e-19)
(0.0706185 3.1838 -1.92501e-19)
(0.030476 3.12602 0)
(0.682822 0.335594 0)
(0.642336 0.396597 0)
(1.07002 0.706275 -1.62712e-19)
(1.03121 0.858193 2.54308e-19)
(1.13108 0.601574 0)
(1.16329 0.548218 0)
(1.01454 0.0116787 -2.90129e-19)
(1.01304 0.011929 3.6118e-19)
(1.02312 -0.0110464 0)
(1.0198 -0.0165637 0)
(1.00731 0.00269187 0)
(1.00983 0.0029173 0)
(1.00392 0.00255379 0)
(1.00811 0.00696748 0)
(1.00716 0.00513953 0)
(1.00389 0.00490417 0)
(-0.157172 1.18596 0)
(-0.179575 1.18471 0)
(-0.026812 1.11564 0)
(0.0900943 1.16428 0)
(-0.0401767 2.66682 0)
(0.0662407 2.67941 -1.55118e-19)
(-0.152259 2.57334 0)
(-0.146823 2.46508 2.57576e-20)
(-0.0625153 2.12163 -6.71559e-20)
(-0.0594325 1.72291 0)
(-0.0378924 1.74412 0)
(-0.0910822 1.67651 0)
(-0.0827285 1.6206 0)
(-0.13917 1.87176 -1.69305e-20)
(-0.0567664 1.88958 2.72813e-20)
(-0.0549139 1.93809 3.58623e-20)
(-0.047811 1.91662 0)
(-0.0448426 1.86811 -5.64231e-20)
(-0.024112 1.85338 -2.63333e-20)
(-0.124592 1.85733 1.36955e-20)
(-0.0829535 1.8631 -3.58781e-20)
(-0.086949 1.8991 -4.6443e-20)
(1.01269 0.0205786 2.84034e-19)
(1.01335 0.0111493 -3.4828e-19)
(1.00524 0.0198927 -2.9727e-19)
(0.993408 0.0139525 3.79425e-19)
(1.04444 0.019866 0)
(1.03471 0.0041396 0)
(1.06183 0.0410859 0)
(1.05265 0.0254138 0)
(1.05809 0.0140521 0)
(1.10507 0.0774044 0)
(1.08346 0.0528566 0)
(1.09641 0.04376 0)
(-0.00996164 1.81565 -8.679e-22)
(-0.0153728 1.80537 0)
(-0.0115354 1.80907 0)
(-0.0095488 1.82811 8.0117e-21)
(-0.00642366 1.82998 -3.62269e-22)
(-0.0202654 1.80093 8.35576e-21)
(-0.0209373 1.79905 -8.41781e-21)
(-0.0255025 1.79956 0)
(-0.0227116 1.79969 0)
(-0.0215024 1.79946 0)
(-0.0260405 1.79627 0)
(-0.0236862 1.78823 0)
(0.442595 1.44124 5.8778e-19)
(0.395567 1.45443 2.12359e-19)
(0.637719 2.42473 -1.15557e-19)
(0.436445 2.55083 2.97263e-19)
(0.496625 2.0578 -5.13687e-20)
(1.01955 -0.00680443 0)
(1.01447 -0.00966057 0)
(1.01736 -0.0134397 0)
(1.00753 -0.000863558 0)
(1.00433 -0.00121733 0)
(1.00665 -0.00397503 0)
(1.01006 -0.00510511 0)
(1.01267 -0.00525473 0)
(1.01998 0.0134999 2.80533e-19)
(1.01188 0.0117505 -3.55085e-19)
(1.02287 0.0149933 -2.7879e-19)
(1.01982 0.0148284 3.49257e-19)
(0.739055 1.32619 0)
(0.661092 1.37555 4.12367e-19)
(0.850634 1.21018 2.36652e-19)
(0.855181 1.20557 -3.14057e-19)
(1.15221 2.63194 -3.45415e-19)
(0.835236 0.125992 1.90909e-19)
(1.12875 0.0943368 0)
(1.16516 0.17809 5.56109e-20)
(1.15185 0.159953 2.59593e-21)
(0.975911 0.125801 0)
(0.108051 3.02609 -3.5527e-20)
(0.108294 2.90188 -4.77949e-19)
(0.0503338 2.34428 3.21117e-19)
(0.178517 0.0641133 -1.41478e-19)
(0.351241 3.45651 -3.11078e-19)
(0.2001 3.34678 0)
(0.230243 3.40485 4.05021e-19)
(0.241546 3.08509 -1.80633e-19)
(0.278054 3.20817 0)
(0.00654146 3.11974 2.15819e-20)
(0.0179951 3.12869 -2.66985e-19)
(0.0162811 3.12431 3.92207e-19)
(0.0372598 3.13826 0)
(0.0355286 3.1493 0)
(1.25382 2.60384 0)
(0.490485 0.837742 -1.50564e-19)
(0.955875 1.0416 -1.32724e-19)
(0.946054 1.0619 0)
(0.800506 0.949574 3.56459e-20)
(1.02512 0.902779 1.8936e-20)
(0.430351 0.46157 -3.53301e-19)
(0.710955 0.335125 -1.6539e-20)
(0.702054 0.292884 1.45462e-19)
(0.643076 0.418232 1.14446e-20)
(0.585545 0.416572 -4.73384e-19)
(0.693428 0.34493 0)
(0.70726 0.423093 2.42346e-19)
(0.706305 0.422202 0)
(0.682177 0.384102 0)
(0.663632 0.33798 0)
(0.716162 0.611934 8.04958e-20)
(1.19094 0.284421 5.08235e-20)
(1.172 0.41809 0)
(1.17635 0.389491 0)
(0.76367 0.228057 2.18816e-19)
(0.769137 0.517402 -1.22411e-19)
(0.716804 0.482515 2.00048e-19)
(0.90658 0.405341 -1.76838e-19)
(1.01735 0.00971837 1.90704e-19)
(1.01688 0.0110261 -1.92859e-19)
(1.01222 0.00957996 0)
(1.02196 -0.0138114 0)
(1.0225 -0.0141088 -1.72999e-19)
(1.01626 -0.021148 1.71246e-19)
(1.03243 0.00559892 0)
(1.02763 0.0151539 0)
(1.01206 0.00493003 0)
(1.01386 0.00816703 0)
(1.01648 0.00230937 0)
(1.01381 0.00123401 0)
(-0.209976 1.31244 0)
(-0.203419 1.3466 0)
(-0.00796802 1.02201 3.03568e-19)
(0.309747 1.33541 1.90929e-19)
(0.209112 1.16951 4.26385e-19)
(0.230448 1.23757 -6.8066e-19)
(0.233419 1.15756 0)
(0.0475681 1.94366 4.69766e-19)
(-0.155888 1.81096 0)
(0.529959 2.18751 7.57972e-20)
(0.432236 2.43688 1.5093e-19)
(0.314622 1.59253 -4.11468e-19)
(0.424759 1.22954 1.88146e-19)
(0.295142 1.14802 -1.50689e-19)
(0.531767 1.28596 3.62765e-19)
(0.510034 1.77889 0)
(0.512701 1.7739 -2.82063e-19)
(-0.285218 2.0962 9.40499e-21)
(-0.104012 2.21174 0)
(-0.306722 2.29338 -3.99219e-20)
(-0.279637 2.20345 0)
(-0.140786 2.422 -2.91624e-20)
(-0.0884646 2.26237 0)
(-0.139333 1.77288 -9.80225e-21)
(-0.190149 1.821 0)
(-0.176199 1.69359 0)
(-0.146004 1.71547 1.10606e-20)
(-0.0687992 1.98271 -1.12963e-20)
(-0.0573379 2.09119 7.49432e-20)
(-0.0485454 2.02582 5.23912e-22)
(-0.0765672 1.82565 1.73817e-20)
(-0.0937953 1.81919 7.01669e-21)
(-0.0295159 1.76446 0)
(-0.0201218 1.77307 0)
(-0.279406 1.90843 -1.87751e-20)
(-0.249777 1.72483 -2.55903e-20)
(-0.223427 1.8283 3.06729e-20)
(-0.372382 1.88907 0)
(-0.0173233 1.81925 -3.11847e-20)
(-0.0162071 1.8268 1.49121e-20)
(-0.0155333 1.82896 -4.43169e-21)
(-0.058589 1.81818 -2.08988e-20)
(-0.0313867 1.84893 -7.56877e-21)
(-0.0445345 1.85573 3.97371e-20)
(1.02412 0.0128013 -1.85299e-19)
(1.02281 0.0120732 1.87194e-19)
(1.01945 0.00790258 0)
(1.00104 0.0429478 2.6563e-19)
(0.99489 0.0318523 -3.15197e-19)
(0.971539 0.0269268 3.62977e-19)
(0.992831 0.0811649 -3.53972e-20)
(1.02358 -0.00901658 0)
(1.03039 0.00641003 1.55249e-19)
(1.02267 -0.00694929 -1.53726e-19)
(1.04581 0.0373151 -8.40123e-21)
(1.04724 0.0294421 7.48203e-20)
(1.04081 0.0554974 0)
(1.03248 0.0440835 -2.83865e-20)
(1.02615 0.0286069 0)
(1.0226 0.0238818 0)
(1.0363 0.00915324 0)
(1.0319 0.0112775 0)
(1.03308 0.0279739 5.88e-20)
(1.03557 0.0212111 -1.33551e-19)
(1.0368 0.0316527 -5.82511e-20)
(1.03656 0.0311504 -6.80275e-20)
(1.03632 0.0583941 1.21405e-19)
(1.06386 0.0559707 0)
(1.05207 0.091668 0)
(-0.0177559 1.81969 -1.2123e-20)
(-0.0160732 1.80964 -1.01562e-21)
(-0.0184855 1.81027 0)
(-0.0139584 1.821 1.27275e-20)
(-0.0110627 1.81733 1.81561e-21)
(-0.0116819 1.82014 -1.79293e-21)
(-0.0175668 1.84949 2.20808e-20)
(-0.0135466 1.83623 -1.64375e-21)
(-0.0183855 1.83961 8.13265e-21)
(-0.00434972 1.83472 -1.19454e-20)
(-0.00584002 1.8377 1.48052e-20)
(-0.0246851 1.80279 1.60097e-22)
(-0.0228343 1.80517 1.38027e-20)
(0.517551 1.37018 -2.87051e-19)
(0.5187 1.39707 -2.81693e-19)
(0.637526 1.41922 -3.99036e-19)
(0.507509 1.46819 -2.08718e-19)
(0.523951 1.45964 0)
(0.617727 2.40219 9.45595e-20)
(0.695993 2.35686 1.68879e-19)
(0.421967 2.53935 6.60776e-20)
(0.439596 2.59652 -9.90736e-20)
(0.55987 2.52533 2.14231e-19)
(0.537086 2.46358 0)
(0.549257 2.47082 -2.58296e-19)
(0.204597 2.66252 4.40652e-19)
(0.33861 2.6292 -3.93485e-20)
(0.238582 2.67953 -6.72702e-19)
(0.927472 2.37252 1.33571e-19)
(0.826137 2.34757 0)
(1.01111 0.000680543 6.29389e-21)
(1.01387 -0.00448425 -5.19567e-21)
(1.01414 -0.00346698 -9.16057e-20)
(1.01319 -0.00228201 9.40123e-20)
(1.01307 0.000223169 0)
(0.636135 1.26745 0)
(0.641959 1.14582 0)
(0.74491 1.08603 0)
(0.632436 1.10891 0)
(1.18513 2.65159 2.90145e-20)
(1.06286 2.38258 0)
(0.83132 2.29214 -1.47322e-21)
(0.801777 2.49684 0)
(0.897431 2.58819 -7.04741e-21)
(0.928204 2.53996 4.65686e-21)
(0.833973 0.129933 0)
(0.807299 0.142735 5.55445e-20)
(0.91719 0.130954 2.80912e-19)
(0.863932 0.11026 -1.11392e-19)
(0.85441 0.0798639 -3.41083e-19)
(1.02518 0.21016 -1.5608e-19)
(0.94517 0.271058 -7.51533e-21)
(0.885828 0.295877 2.46795e-19)
(0.975629 0.209904 1.84371e-19)
(0.926851 0.167838 -3.53071e-19)
(0.894196 0.177777 4.68979e-20)
(0.907925 0.27396 -8.6889e-20)
(0.887351 0.192344 0)
(0.972791 0.172372 1.67357e-19)
(1.00286 0.169075 0)
(1.0051 0.185131 0)
(1.08116 0.102837 4.87752e-20)
(1.01156 0.147728 -6.80333e-21)
(1.01303 0.217243 -3.18224e-20)
(1.05333 0.181406 0)
(1.01592 0.024847 1.41877e-19)
(1.02622 0.0432906 1.67166e-19)
(1.02331 0.0293443 -1.39892e-19)
(1.01803 0.0462511 -1.12931e-19)
(1.00379 0.0466044 -1.87793e-19)
(0.978001 0.128812 0)
(0.98033 0.0763868 0)
(0.971543 0.046639 -1.30903e-19)
(0.933555 0.0605241 5.54789e-20)
(1.00188 0.0816017 1.60208e-19)
(1.02294 0.104587 -1.54937e-19)
(1.01805 0.135218 1.45287e-19)
(0.996913 0.122393 0)
(1.03566 0.0968774 0)
(1.02152 0.0803609 -6.56692e-20)
(1.01991 0.0781573 -1.27316e-19)
(0.597706 1.09063 -7.40065e-20)
(0.630994 1.46656 1.44633e-19)
(1.15273 2.7617 5.07437e-20)
(1.20222 3.12893 -4.94999e-20)
(1.24822 2.75403 3.73529e-19)
(1.29227 2.72651 -1.91337e-19)
(1.25715 2.34742 -1.89413e-20)
(1.18793 3.03388 1.48002e-19)
(1.20472 2.99202 -1.51045e-19)
(1.18716 3.28161 -1.83475e-19)
(1.40232 2.99615 2.206e-19)
(1.41764 2.93005 0)
(0.513698 0.852571 -7.46372e-21)
(0.243275 1.27516 1.92507e-19)
(0.483243 0.543957 2.29469e-19)
(0.33437 0.320452 2.67717e-19)
(0.57935 0.437119 2.64143e-19)
(0.543995 0.508485 -4.20481e-19)
(0.544505 0.515599 3.49051e-19)
(0.525667 0.478841 -1.38328e-19)
(0.505767 0.418037 3.18921e-19)
(0.769819 0.264598 -1.22562e-19)
(0.738987 0.28573 0)
(0.736399 0.249179 7.48732e-21)
(0.696929 0.519386 1.2729e-19)
(0.671388 0.489387 -4.6909e-19)
(0.63031 0.502771 1.52486e-20)
(0.648374 0.478908 0)
(0.653723 0.74166 9.1389e-20)
(0.737917 0.767792 5.16375e-20)
(0.696503 0.840485 -6.50609e-20)
(0.811905 0.788702 -1.20999e-20)
(0.87244 0.838098 9.46684e-21)
(0.87443 0.842646 -9.72904e-21)
(0.79327 0.637773 -1.37467e-19)
(0.878943 0.702787 1.12718e-20)
(0.940838 0.703561 0)
(0.927304 0.671236 -5.85065e-21)
(0.975547 0.320754 3.89814e-20)
(1.08828 0.299895 -7.19017e-21)
(1.00814 0.257912 6.261e-20)
(0.948969 0.348397 -9.14338e-20)
(0.983313 0.428967 0)
(1.05269 0.404665 0)
(0.886389 0.348469 7.4301e-21)
(0.821724 0.288666 0)
(0.83475 0.283143 1.29224e-19)
(0.884349 0.29718 -6.66809e-22)
(0.898453 0.411657 4.86053e-19)
(0.834669 0.486431 1.23919e-19)
(0.851244 0.431473 -1.63667e-19)
(0.80364 0.422764 1.74296e-19)
(0.793447 0.409321 1.18453e-19)
(0.788208 0.395569 -1.15775e-19)
(1.02153 -0.0112071 1.48434e-19)
(1.0196 -0.00849531 0)
(1.01762 -0.0062948 9.95832e-20)
(1.02199 -0.00821043 -2.23627e-19)
(1.0257 -0.00296432 1.08358e-19)
(1.02465 0.00770147 -2.29173e-19)
(1.02506 0.0107956 0)
(1.02332 0.0129076 -4.77517e-20)
(1.01751 0.00375852 1.19428e-19)
(1.01652 0.00956568 -6.06298e-20)
(1.019 0.00800551 4.44178e-20)
(-0.131582 1.58459 0)
(-0.208622 1.66066 0)
(-0.18872 1.45649 0)
(-0.129102 1.50163 0)
(-0.372065 1.55676 -4.33279e-19)
(-0.310256 1.37515 1.35177e-19)
(-0.301021 1.82139 1.37404e-19)
(-0.347003 1.60091 -1.69882e-19)
(-0.313784 1.72711 5.69288e-20)
(-0.335261 1.7106 -4.33326e-20)
(-0.345956 1.52707 7.48285e-20)
(-0.327089 1.53625 1.55374e-19)
(-0.27065 1.55965 1.2746e-20)
(-0.270504 1.62408 5.42885e-21)
(-0.30961 2.33556 4.566e-20)
(-0.285463 2.45472 0)
(-0.294175 2.30856 -8.21964e-20)
(-0.352837 1.9693 -1.03884e-19)
(0.37206 2.18119 8.27122e-20)
(0.224096 2.60938 0)
(0.223635 2.54814 -5.67116e-20)
(0.378513 2.51108 4.01229e-20)
(0.17275 2.26023 2.38937e-19)
(-0.0795546 2.34174 -1.43042e-19)
(-0.0671246 2.62526 0)
(-0.228206 1.9465 -2.76977e-22)
(-0.145941 1.94165 -6.84061e-20)
(-0.170353 1.90697 0)
(-0.166777 2.04803 -1.16042e-21)
(-0.258834 2.05913 7.7988e-21)
(-0.0892173 1.76784 2.69472e-21)
(-0.0564119 1.77706 -3.94937e-20)
(-0.0523194 1.78904 1.17412e-20)
(-0.0880867 1.78725 1.26967e-20)
(-0.122394 1.78284 0)
(-0.0407826 1.78984 0)
(-0.0241896 1.7893 1.54678e-20)
(-0.0268482 1.79829 -4.84986e-21)
(-0.0311256 1.79537 0)
(-0.0219315 1.78328 1.12978e-20)
(-0.0200005 1.78215 -2.27595e-20)
(1.03035 0.0140014 0)
(1.03873 0.0169311 -1.45823e-20)
(1.04055 0.0224517 -1.05602e-19)
(1.04015 0.0235396 0)
(1.03953 0.0243052 0)
(1.04157 0.010951 -4.14731e-21)
(1.03904 0.00910893 1.7815e-19)
(1.03787 0.0131499 2.14526e-19)
(1.03254 0.0128802 0)
(1.02753 0.0114621 0)
(1.03461 0.0197705 1.07957e-19)
(1.02623 0.0141032 0)
(1.02719 0.0127424 0)
(-0.021256 1.82174 0)
(-0.0232241 1.8063 1.18741e-21)
(-0.0212108 1.81667 7.67503e-21)
(-0.0264773 1.80064 0)
(-0.0241266 1.80908 9.21294e-21)
(-0.0250799 1.80493 -4.51591e-21)
(-0.0275777 1.80054 0)
(0.383279 1.6508 0)
(0.464384 1.37248 4.19364e-19)
(0.433925 1.36882 0)
(0.474606 1.36445 -5.53804e-19)
(0.502367 1.42231 0)
(0.510067 1.41595 2.58638e-19)
(1.01389 2.70998 -2.79188e-21)
(0.942548 2.40211 -1.65532e-19)
(0.878748 2.14428 2.09611e-19)
(0.840109 2.34356 7.84952e-20)
(0.834351 2.52054 0)
(0.895009 2.5305 0)
(0.916094 2.36263 0)
(0.894343 2.33233 -2.79604e-19)
(0.682056 2.48655 -5.38599e-20)
(0.79547 2.49445 -1.67032e-20)
(0.786798 2.46983 1.32896e-20)
(0.691962 2.34731 0)
(0.789605 2.34423 0)
(0.75227 2.35055 -1.59742e-19)
(0.749965 2.48577 0)
(0.598068 1.04933 0)
(0.494801 0.903889 -2.62345e-20)
(0.503462 0.951762 -8.14178e-22)
(0.511282 1.06558 0)
(0.497626 1.00226 4.51419e-20)
(0.728147 0.881168 7.19294e-21)
(0.759848 1.00561 0)
(0.730755 0.979832 -3.98278e-20)
(0.620171 1.00477 0)
(0.595536 0.934051 0)
(1.15515 2.79514 3.66645e-20)
(1.13455 2.85609 9.1296e-20)
(0.930655 2.40007 -2.13243e-19)
(0.903675 2.36699 3.04753e-20)
(1.11841 2.77034 0)
(1.06217 2.7398 -3.73656e-20)
(1.0805 2.51129 -4.62343e-20)
(0.964039 2.23746 -1.88174e-20)
(0.488584 1.41105 0)
(0.504872 1.06773 6.50302e-20)
(0.536953 1.13334 0)
(0.860838 0.203667 0)
(0.809486 0.154345 0)
(0.774065 0.17551 0)
(0.845241 0.221985 -2.03342e-19)
(0.78904 0.227323 1.27895e-19)
(0.934728 0.0584116 -1.12595e-19)
(0.938608 0.105304 0)
(0.928594 0.113255 5.26119e-20)
(0.883757 0.0790196 2.16784e-19)
(0.884194 0.0551918 -1.33251e-19)
(1.11682 3.37878 -6.51831e-19)
(1.17764 3.30353 0)
(1.13866 3.44951 -1.36815e-18)
(0.671912 3.59481 1.17337e-18)
(1.01426 3.12243 2.75044e-19)
(0.496664 0.845248 1.38806e-19)
(0.484206 0.822329 0)
(0.382921 0.560156 -5.3158e-20)
(0.403358 0.692598 2.45737e-19)
(0.500873 0.540939 -7.39581e-20)
(0.49557 0.561978 8.27509e-20)
(0.638152 0.557355 1.6935e-19)
(0.652741 0.575434 0)
(0.594756 0.633154 0)
(0.565485 0.575788 0)
(0.929969 0.580608 -3.11512e-20)
(0.854872 0.51815 -1.18533e-19)
(0.890927 0.569488 4.4529e-20)
(0.928371 0.475635 -8.60381e-20)
(0.992759 0.456847 0)
(1.02206 0.572695 -1.58035e-21)
(0.830635 0.369533 -2.61218e-19)
(0.826568 0.362156 -3.07162e-19)
(0.804889 0.368259 2.0425e-19)
(0.785719 0.34185 -2.30937e-19)
(0.822903 0.298324 -1.7241e-19)
(0.791681 0.296477 2.11608e-19)
(1.03267 -0.00258462 -1.13437e-19)
(1.03387 -0.0018611 2.33235e-19)
(1.02422 -0.00923366 1.39175e-19)
(1.02569 -0.00882412 -1.68465e-19)
(1.03335 0.00904659 0)
(1.03586 0.00710476 -2.80811e-19)
(-0.420578 1.96285 1.66535e-20)
(-0.394562 1.86904 0)
(-0.433388 1.95615 -3.14211e-19)
(-0.408132 1.93499 3.18487e-19)
(-0.381484 1.8204 -2.51172e-19)
(-0.415727 1.84439 0)
(-0.051438 1.81957 0)
(-0.0389792 1.80165 -5.13404e-21)
(-0.0303609 1.80391 4.65441e-21)
(-0.0283851 1.80974 2.08033e-21)
(-0.0318151 1.82236 -1.00568e-20)
(-0.0404799 1.82357 6.09803e-21)
(0.46326 1.42561 2.44368e-19)
(0.437239 1.41686 -2.60035e-19)
(0.444852 1.34006 2.75983e-19)
(0.42138 1.35886 -1.40698e-20)
(0.635948 1.28848 0)
(0.547661 1.4057 3.49021e-19)
(0.584033 1.36759 -3.38505e-19)
(0.464354 1.30542 -2.63566e-19)
(0.479526 1.25125 0)
(0.533798 1.17762 0)
(0.663482 2.45403 7.93778e-20)
(0.688059 2.45509 4.32197e-19)
(0.718839 2.46394 -2.88896e-19)
(0.661528 2.4391 -8.42688e-20)
(0.600808 2.57033 8.59911e-20)
(0.559124 2.53436 -2.47047e-19)
(0.956348 2.37399 -1.15682e-19)
(0.999853 2.40816 0)
(0.89212 2.14035 -1.42157e-19)
(1.0333 2.72518 0)
(1.02292 2.70469 0)
(0.616866 2.32468 2.30495e-19)
(1.11543 3.12946 3.00949e-19)
(0.988889 3.00692 -3.26837e-19)
(0.3281 0.942378 0)
(0.363846 0.84871 -9.23432e-20)
(0.540723 0.76118 -4.62762e-20)
(0.380991 2.16262 0)
(0.413874 2.77392 -1.94938e-19)
(0.431243 2.51636 0)
(0.643225 0.690552 -1.93116e-19)
(0.695973 0.672526 2.7324e-19)
(0.69927 0.639113 -2.71066e-19)
(0.616795 0.667421 -2.86753e-20)
(0.678762 0.620306 -1.21259e-19)
(0.984944 2.79133 -2.27405e-19)
(1.02113 2.80682 1.65761e-19)
(0.579318 2.24753 -8.16441e-20)
(0.610532 1.76232 2.39601e-20)
(0.705484 1.89874 2.51983e-20)
(0.985386 2.43644 -6.57989e-20)
(0.984587 2.40759 -5.93507e-20)
(0.667535 1.82268 -1.49188e-22)
(0.459917 1.33076 -3.47003e-20)
)
;

boundaryField
{
    wall-4
    {
        type            noSlip;
    }
    velocity-inlet-5
    {
        type            fixedValue;
        value           uniform (1 0 0);
    }
    velocity-inlet-6
    {
        type            fixedValue;
        value           uniform (0 3 0);
    }
    pressure-outlet-7
    {
        type            zeroGradient;
    }
    wall-8
    {
        type            noSlip;
    }
    frontAndBackPlanes
    {
        type            empty;
    }
}

