/*--------------------------------*- C++ -*----------------------------------*\
  =========                 |
  \\      /  F ield         | OpenFOAM: The Open Source CFD Toolbox
   \\    /   O peration     | Website:  https://openfoam.org
    \\  /    A nd           | Version:  6
     \\/     M anipulation  |
\*---------------------------------------------------------------------------*/
FoamFile
{
    version     2.0;
    format      ascii;
    class       volVectorField;
    location    "0";
    object      U_rec;
}
// * * * * * * * * * * * * * * * * * * * * * * * * * * * * * * * * * * * * * //

dimensions      [0 1 -1 0 0 0 0];

internalField   nonuniform List<vector> 
918
(
(0.898226 -0.0900088 0)
(-0.0495569 3.04939 0)
(-0.183918 1.76921 0)
(0.829019 0.118302 0)
(-0.0418649 1.71123 2.91171e-17)
(0.00579685 3.02612 1.09435e-16)
(1.1506 1.73915 2.75512e-17)
(0.488149 0.285374 8.83718e-19)
(0.939929 2.05367e-05 0)
(0.0382496 1.76415 0)
(0.0278358 1.73371 0)
(0.928827 0.0172474 0)
(-0.0488226 3.06645 0)
(0.0213584 2.92673 0)
(-0.0849571 2.70755 4.60883e-17)
(-0.0228921 1.71012 2.09459e-17)
(0.704476 0.164965 -5.62559e-17)
(0.222956 2.04128 3.22602e-18)
(0.99271 0.0668799 0)
(0.0362399 1.71742 0)
(0.550566 0.0371615 3.76394e-17)
(0.802185 -0.000249606 0)
(0.864606 0.0284432 0)
(1.06036 0.0599947 0)
(0.847318 0.0620392 0)
(0.022011 2.9631 0)
(-0.025003 2.88828 -9.06811e-17)
(-0.119862 1.77448 0)
(-0.0491328 1.67859 0)
(-0.182399 1.74726 0)
(-0.00450652 1.763 0)
(-0.0702894 1.70322 2.72615e-17)
(-0.033164 1.70012 0)
(0.0966987 3.08368 5.0209e-21)
(0.0349912 3.07268 -1.26313e-16)
(0.0423769 3.08925 0)
(0.981209 -0.00242562 0)
(0.830647 1.20268 -2.55763e-17)
(1.14494 1.73098 -5.44379e-17)
(1.26423 1.53662 5.24455e-17)
(0.947745 1.90068 -1.08112e-18)
(0.946817 1.93761 3.80152e-17)
(0.522577 0.3053 -7.16384e-19)
(0.53659 0.282096 0)
(1.36895 0.812283 0)
(0.467165 0.318952 -3.30832e-18)
(0.423328 0.284395 3.90027e-18)
(0.993534 -0.00412807 0)
(0.950881 0.010414 0)
(0.943944 0.00488693 0)
(0.893058 -0.0767475 0)
(0.915772 0.045439 0)
(0.954405 0.0340308 0)
(-0.0290934 1.58215 3.58296e-17)
(0.0197381 1.81899 0)
(0.0095232 1.83097 0)
(-0.00228938 1.77936 0)
(-0.0128825 1.80107 0)
(-0.0355305 1.71347 0)
(0.033239 1.76312 0)
(0.00196772 1.75341 0)
(0.00811466 1.73284 0)
(0.00751824 1.71489 0)
(0.994856 -0.0114385 0)
(0.955329 0.0339782 0)
(0.954663 0.00184738 0)
(0.937336 0.00424703 0)
(0.941031 0.00083682 0)
(-0.00378465 3.08305 -3.26373e-17)
(0.0143587 3.05427 0)
(-0.050218 3.14055 0)
(-0.0442218 3.12396 -5.62084e-22)
(-0.0815375 3.00193 8.8061e-17)
(0.00679257 3.09584 0)
(0.00238416 3.00541 0)
(-0.00725845 2.99732 -1.20514e-22)
(0.00423589 2.92184 0)
(0.0541431 2.99453 0)
(0.0475791 2.89855 0)
(0.142227 2.86103 0)
(-0.083435 2.87815 0)
(0.000567976 2.76496 -3.08497e-17)
(-0.0880887 2.68641 0)
(-0.00938735 1.73709 0)
(-0.0162789 1.73751 1.23707e-17)
(0.0206851 1.71305 2.19732e-17)
(0.727481 0.178233 1.74159e-17)
(0.738198 0.15476 2.04743e-17)
(0.695459 0.23048 6.8435e-17)
(0.662081 0.209022 3.28148e-17)
(0.191774 1.39828 0)
(0.336234 2.11695 -4.15398e-17)
(0.451047 2.10279 1.31661e-17)
(0.987794 0.00278155 0)
(0.976489 -0.00856047 0)
(0.929719 -0.0266077 0)
(0.962199 -0.00267962 0)
(1.03912 0.114084 3.15838e-16)
(1.096 0.138775 -1.31034e-16)
(0.0218918 1.75955 0)
(-0.00664072 1.73648 0)
(0.018663 1.75479 0)
(-0.0155213 1.73578 0)
(-0.0220732 1.75019 0)
(0.547751 0.155638 -1.21235e-17)
(0.38559 0.321043 0)
(1.06133 0.0139519 0)
(1.01132 -0.00257497 0)
(0.935646 0.0232995 0)
(0.891259 0.0762605 0)
(0.904572 0.0217121 0)
(1.13405 -0.0234976 0)
(0.84181 0.0546803 0)
(0.828878 0.0392369 -8.26281e-17)
(-0.0263435 2.85385 -3.71448e-17)
(-0.0345192 2.9805 0)
(-0.0852924 3.02597 0)
(0.0184719 2.90231 0)
(-0.0251303 2.94134 -6.10107e-17)
(0.0252375 2.87086 0)
(-0.0388682 2.93544 1.28168e-16)
(-0.0833751 2.87571 -3.41047e-17)
(0.0331879 1.73264 0)
(-0.011117 1.74843 0)
(-0.011384 1.71948 9.97448e-20)
(-0.0393656 1.74074 0)
(0.0196911 1.71356 0)
(0.993559 0.0105321 0)
(0.987215 -0.00731837 0)
(0.97238 -0.00966469 0)
(0.99312 0.00975598 0)
(0.979706 0.0130433 0)
(0.86924 1.25455 2.23339e-17)
(0.843232 1.17269 0)
(0.831996 1.30465 -3.42416e-18)
(0.768491 1.23437 0)
(1.21473 1.49048 -4.05557e-18)
(1.36133 1.26236 2.94214e-17)
(0.556103 2.14049 0)
(0.760123 2.0714 0)
(0.721854 2.0626 0)
(0.51653 1.2741 9.05539e-18)
(0.564124 0.309777 0)
(0.577224 0.253155 -1.22772e-17)
(1.24641 1.24184 0)
(1.29302 0.981176 0)
(1.37461 1.02195 -3.0976e-17)
(1.32968 0.778167 0)
(1.37673 0.594065 -1.44112e-17)
(0.986352 0.0215116 0)
(1.00698 -0.0179826 0)
(0.982489 -0.0132233 0)
(1.00496 0.00817017 0)
(1.00415 -0.00345248 0)
(0.982838 0.00641213 0)
(0.909038 -0.0225139 0)
(0.926719 -0.00951003 0)
(0.950307 0.00452998 0)
(-0.0201126 1.64657 -2.92024e-18)
(0.0391388 1.59085 0)
(0.0222295 1.63196 -3.43297e-17)
(0.0283716 1.65559 3.23735e-17)
(0.120478 2.00854 -3.90535e-17)
(0.00199049 1.89639 0)
(0.0252894 1.94554 0)
(-0.0138318 1.80103 0)
(-0.00162907 1.76749 0)
(-0.020778 1.75323 1.78127e-19)
(0.0232776 1.72123 0)
(0.0162823 1.72997 -6.87318e-18)
(0.0526121 1.73285 -1.89032e-17)
(0.0257956 1.77462 0)
(0.0260885 1.76068 0)
(0.0155604 1.73769 0)
(-0.00203837 1.74723 0)
(-0.00579002 1.75825 0)
(1.02215 0.0335534 0)
(1.02476 0.0176422 0)
(1.01811 -0.00564137 0)
(0.998219 0.0119346 0)
(0.971416 -0.00572499 0)
(0.969778 0.00239532 0)
(0.956135 0.0152996 0)
(0.94519 0.00110289 0)
(0.0903968 3.04871 4.42141e-19)
(0.097479 3.03656 0)
(0.0227656 3.02971 0)
(-0.00458942 2.96394 0)
(0.746043 3.1851 0)
(0.950207 2.44973 9.52458e-18)
(-0.0535649 2.78011 0)
(-0.0679597 2.74225 0)
(-0.0196416 1.78663 0)
(-0.00772926 1.7047 0)
(-0.00459932 1.73892 0)
(0.027286 1.79863 -3.86819e-17)
(-0.0291837 1.79979 0)
(0.0548466 1.76879 0)
(0.0279634 1.71465 -3.38022e-17)
(0.0391712 1.73242 -2.34557e-17)
(0.00993404 1.72921 1.1067e-17)
(0.0223886 1.70892 0)
(0.757448 0.15978 -4.01669e-17)
(0.753246 0.0862278 2.46533e-17)
(0.19601 1.40677 0)
(0.21675 1.33771 7.31168e-18)
(0.145402 1.50268 9.74942e-18)
(0.101509 1.482 -3.8485e-17)
(0.992628 -0.00953249 0)
(0.987311 -0.017756 0)
(0.994207 -0.00100519 0)
(0.964638 0.00856031 0)
(-0.00868689 1.76978 0)
(0.00996442 1.75611 0)
(-0.00302815 1.75273 0)
(0.420892 0.295987 -3.15117e-17)
(0.424774 0.26446 3.65312e-17)
(0.388617 0.279667 0)
(1.19082 0.124087 -4.26445e-18)
(1.24281 0.0641863 0)
(1.12934 0.050801 0)
(1.0751 0.0162928 0)
(0.779971 0.109295 0)
(0.819532 0.0570641 1.65023e-16)
(0.774529 0.0500751 -6.58134e-17)
(-0.00945299 2.9347 -6.14642e-17)
(0.0336208 2.88101 -2.90321e-17)
(0.114775 3.03473 9.14013e-19)
(0.141816 3.05828 -5.14318e-17)
(-0.0443538 2.96262 -1.62175e-18)
(-0.0956094 2.96551 6.54542e-21)
(-0.0379177 3.14755 2.55211e-17)
(0.0781253 3.13237 -2.29826e-17)
(0.196214 3.1432 1.81027e-17)
(1.00984 0.0203409 0)
(0.990768 0.037656 0)
(0.991554 0.02499 0)
(0.990616 -0.013681 0)
(0.978696 -0.00911666 0)
(0.967508 -0.00239609 0)
(0.970726 -0.00738809 0)
(0.987078 0.0168695 0)
(0.963642 0.0109423 0)
(0.896567 1.26435 3.0669e-17)
(0.805025 1.27988 0)
(0.685281 1.28564 -3.12735e-18)
(0.69159 1.35108 -3.31848e-17)
(0.767683 1.341 1.29629e-17)
(0.734506 1.27572 -4.6773e-17)
(0.483906 1.31114 -5.84766e-17)
(0.505704 1.289 -9.38772e-19)
(0.658179 0.246052 -4.53892e-17)
(0.619965 0.274665 -1.20483e-17)
(0.638216 0.241628 -1.71319e-17)
(1.3009 0.563154 1.77693e-17)
(1.33396 0.393893 3.46572e-17)
(0.0167535 1.69098 -3.15723e-17)
(0.0122382 1.67633 0)
(1.07 0.04721 0)
(1.05613 0.0129831 0)
(1.0326 -0.00813273 0)
(0.0745788 3.06193 0)
(-0.00193683 2.99762 -8.00557e-17)
(0.00582675 3.01194 0)
(-0.00707787 2.93983 5.11436e-17)
(0.0433045 3.07496 -7.5827e-18)
(0.0629578 3.0709 0)
(0.788742 1.40346 -1.00957e-17)
(0.920644 1.93208 2.42319e-17)
(0.728028 1.50323 -3.48534e-17)
(-0.050059 2.89505 6.12412e-17)
(-0.0624463 2.8341 0)
(-0.0501844 2.80479 0)
(-0.0225169 1.76522 3.35478e-17)
(0.0229217 1.69323 1.53151e-17)
(-0.0496842 1.6859 3.35469e-17)
(0.23975 1.39009 -3.09245e-17)
(0.295074 1.33569 9.33576e-18)
(0.0361521 1.62144 -3.57957e-17)
(0.0761455 1.56093 8.20148e-18)
(0.0496347 1.55563 -3.03829e-17)
(-0.0741784 3.08248 1.6037e-16)
(-0.0510591 3.09522 -6.51348e-17)
(-0.0124423 2.94227 -3.14925e-17)
(0.0403187 2.96174 3.25089e-17)
(0.0719651 2.88157 6.09632e-17)
(0.0303514 3.08089 6.91755e-17)
(-0.0098346 3.06965 -1.80523e-16)
(0.530862 1.33052 0)
(0.608616 1.34319 6.05154e-17)
(0.600336 1.26097 -3.5705e-17)
(0.433552 1.36253 -1.55153e-17)
(0.4224 1.31458 6.02495e-17)
(1.28178 0.188151 -1.69324e-17)
(1.30383 0.383681 0)
(1.31595 0.220843 1.76544e-17)
(0.0177211 1.72057 1.97747e-19)
(-0.00498409 1.70247 0)
(-0.00475187 1.68268 0)
(0.29774 1.38575 8.92972e-18)
(0.354396 1.36423 2.58634e-18)
(0.370564 1.34976 -4.99172e-17)
(1.0374 -0.075413 0)
(1.09857 -0.106702 -4.02792e-17)
(0.0087266 1.76288 0)
(-0.030376 1.78145 0)
(1.05449 -0.0220686 3.15975e-19)
(0.973409 -0.06635 -8.42029e-17)
(-0.0151973 1.80692 -3.55851e-17)
(0.0516073 1.81177 0)
(-0.107726 2.87555 -3.07415e-17)
(0.0377407 2.67306 0)
(1.14618 0.673686 1.92714e-18)
(1.04297 -0.0119624 4.20191e-17)
(1.04772 0.0451372 0)
(1.06204 -0.00127992 1.72672e-19)
(0.0536783 1.85599 0)
(0.101948 1.74521 0)
(-0.0346968 1.77031 0)
(0.106962 1.78213 -4.91085e-17)
(0.0296252 1.77882 2.8787e-17)
(0.975723 0.00426406 4.12011e-17)
(1.0729 0.0742624 0)
(1.08138 0.0595376 0)
(-0.00375641 1.77898 0)
(0.0511078 1.75123 0)
(-0.0612119 1.75917 0)
(0.188609 1.96431 -6.1653e-17)
(0.993368 -0.062419 0)
(0.992737 -0.0491087 0)
(1.03625 0.0560085 -6.91463e-17)
(1.0389 0.0175417 8.36079e-17)
(1.09716 -0.0145349 0)
(-0.0352027 1.75745 0)
(0.00370428 1.76221 0)
(-0.0151305 1.74426 0)
(-0.0538844 1.78525 0)
(-0.038617 1.76301 0)
(-0.026912 1.74112 0)
(1.00056 0.0130063 0)
(1.01084 -0.0128746 4.21121e-17)
(0.809892 1.73747 2.41944e-17)
(1.05874 -0.0601894 6.93276e-17)
(1.07948 0.050521 -8.35859e-17)
(1.12442 0.038777 0)
(0.994867 0.000559188 -3.96297e-17)
(1.02597 0.00770066 9.44936e-17)
(1.01781 0.0146159 0)
(0.0464557 1.77315 0)
(0.027405 1.75419 -2.2968e-17)
(0.00441704 1.7464 -1.38338e-17)
(1.19548 0.334075 -1.1229e-16)
(1.11481 0.107516 0)
(-0.303423 2.95916 7.40969e-17)
(-0.211457 3.08669 4.15973e-18)
(-0.207079 2.90061 -6.18824e-17)
(-0.140485 2.87233 4.28609e-17)
(-0.0653844 2.83086 0)
(-0.090615 2.96297 -1.27819e-17)
(-0.158678 3.04946 -4.56133e-17)
(-0.149066 2.94283 4.53361e-17)
(-0.132008 3.05205 0)
(0.644288 0.301952 0)
(0.50286 0.357295 0)
(1.07941 0.84613 -3.05497e-17)
(1.13693 0.958227 7.77095e-17)
(1.12139 0.651011 0)
(1.13644 0.636713 0)
(1.04061 0.0129329 1.15892e-16)
(0.998893 0.00198417 -1.42494e-16)
(1.0496 -0.0146217 0)
(0.996419 -0.0485848 0)
(0.962165 0.0494195 0)
(1.02985 -0.0160139 0)
(1.04271 -0.00147555 0)
(1.02846 -0.0454067 0)
(1.06234 -0.0573736 0)
(1.02697 0.0253037 0)
(0.0419055 1.8533 0)
(-0.000594002 1.80452 0)
(0.108139 1.82278 0)
(0.137919 1.87296 0)
(0.0549772 1.65096 0)
(0.0492076 1.68898 3.33324e-17)
(0.121588 1.728 0)
(0.0792735 1.69636 3.02424e-18)
(0.0656745 1.72659 -1.55498e-17)
(-0.0274947 1.78243 0)
(0.0339588 1.74085 0)
(-0.0272908 1.76931 0)
(-0.0390476 1.77759 0)
(-0.0352501 1.74492 -2.65788e-17)
(-0.00767951 1.68291 -3.49172e-17)
(0.0887981 1.78962 5.04204e-18)
(0.03246 1.7678 0)
(0.0496973 1.75824 3.4268e-17)
(0.0319049 1.73022 -2.40075e-17)
(-0.0110773 1.76194 -6.47118e-17)
(-0.026724 1.59835 -9.18883e-18)
(0.0986932 1.73599 3.55459e-17)
(0.96833 -0.0101867 -1.01657e-16)
(0.980403 -0.0499914 1.2937e-16)
(0.970667 0.0292748 1.01895e-16)
(0.917697 0.013515 -1.23871e-16)
(1.02868 0.0246167 0)
(1.01864 0.0250114 0)
(0.992435 0.0370552 0)
(1.0558 0.0460089 0)
(1.00767 0.0168236 0)
(1.03745 0.0818742 0)
(1.07334 0.0582604 0)
(1.04877 0.0434347 0)
(-0.105138 1.75974 5.28022e-18)
(0.0608853 1.79114 0)
(-0.0699579 1.76497 0)
(0.0324369 1.73224 -1.10245e-17)
(0.0331794 1.77271 1.66715e-19)
(0.0114145 1.82234 1.74056e-17)
(-0.0778614 1.76898 2.61225e-17)
(-0.0600988 1.76079 0)
(-0.0841419 1.78871 0)
(0.00976567 1.78268 0)
(-0.0539083 1.74754 0)
(-0.0521525 1.78283 0)
(0.363008 1.92667 1.51484e-17)
(0.397389 2.01649 3.52504e-17)
(0.253083 1.47047 6.01733e-18)
(0.219385 1.56816 -4.83906e-18)
(0.28048 1.70806 9.18177e-18)
(1.00958 0.0178748 0)
(1.00412 0.014245 0)
(1.02803 0.0553324 0)
(1.01162 -0.0355735 0)
(1.0158 -0.0245239 0)
(0.942969 0.0272075 0)
(1.00443 0.115284 0)
(1.05144 0.0903492 0)
(0.976403 -0.0236193 -1.08161e-16)
(0.997959 -0.0255266 1.38332e-16)
(1.00347 0.00244807 1.08686e-16)
(0.969764 0.0180396 -1.33813e-16)
(0.75068 1.78616 0)
(0.735008 1.77229 -5.47206e-18)
(0.835347 1.61242 6.14714e-17)
(0.929746 1.57284 -2.7101e-18)
(0.873146 1.52254 -9.34576e-17)
(0.859526 0.11705 -4.69109e-17)
(1.10953 0.140914 0)
(1.12056 0.238789 2.17368e-17)
(1.10602 0.132622 2.98923e-18)
(0.939276 0.179253 0)
(-0.455944 2.78355 -2.16495e-17)
(-0.454682 2.66253 1.12615e-16)
(-0.527763 2.94749 -4.18225e-17)
(-0.365461 0.925825 1.4142e-17)
(-0.0748875 2.78315 -3.21671e-17)
(-0.0302696 2.83483 0)
(0.0345742 2.76948 2.88556e-17)
(-0.404886 2.76547 1.49152e-16)
(-0.327875 2.67628 0)
(-0.0633757 3.04364 -3.41701e-18)
(-0.0816546 3.03482 2.45188e-17)
(-0.0628721 3.081 -6.73132e-17)
(-0.073734 3.0617 0)
(-0.131006 3.00127 0)
(1.00123 1.75575 0)
(0.147995 1.20031 5.23133e-17)
(1.06524 1.22486 -3.89211e-17)
(0.924729 1.44127 0)
(0.773996 1.23219 9.38857e-18)
(1.00823 1.19371 -3.06956e-17)
(0.281822 -0.0643573 4.69543e-17)
(0.627543 0.303683 6.0257e-18)
(0.626301 0.318186 -1.64524e-17)
(0.462459 0.397757 -1.51287e-18)
(0.414734 0.324817 6.2337e-17)
(0.598963 0.381729 0)
(0.595445 0.44339 -3.28031e-17)
(0.591667 0.374154 0)
(0.482019 0.37931 0)
(0.517501 0.349927 0)
(0.579758 0.786401 -1.4019e-17)
(1.20622 0.333018 8.64991e-17)
(1.14934 0.444835 0)
(1.19579 0.315215 0)
(0.770695 0.232478 -2.54108e-17)
(0.601842 0.665228 4.07106e-17)
(0.568835 0.55088 -3.72202e-17)
(0.83683 0.436809 1.39595e-17)
(0.979106 0.0152192 -5.43817e-17)
(0.999667 0.081215 9.57065e-17)
(0.984178 0.0652668 0)
(0.988182 -0.00535333 0)
(0.985275 -0.0415958 5.21778e-17)
(0.990352 0.0113972 -8.98196e-17)
(0.954428 0.0395746 0)
(0.955622 0.00150419 0)
(1.044 -0.0145199 0)
(0.983043 0.000938282 0)
(1.00539 -0.037432 0)
(0.996147 -0.0487027 0)
(0.038574 1.80389 0)
(0.0827665 1.79337 0)
(0.00716594 1.79846 -4.63946e-18)
(0.174791 1.9462 -7.36374e-18)
(0.164445 1.89514 6.45643e-17)
(0.105974 1.91969 -2.53859e-17)
(0.0154998 1.76308 0)
(0.275905 1.70698 5.77833e-17)
(0.155467 1.80173 0)
(0.249517 1.71676 3.14456e-17)
(0.212449 1.60916 -5.02951e-17)
(0.226532 1.69341 1.51078e-17)
(0.200822 1.84428 -8.47971e-18)
(0.107388 1.70059 -2.96379e-17)
(0.222934 1.81978 2.48684e-17)
(0.19562 1.69958 0)
(0.217958 1.70104 -4.78978e-17)
(0.0227864 1.70264 1.0011e-17)
(0.0137644 1.685 0)
(0.0318134 1.68211 -5.55953e-17)
(-0.00704643 1.7008 0)
(0.0437284 1.71014 3.11277e-17)
(0.0242432 1.6981 0)
(0.0514808 1.7405 3.97548e-17)
(0.0817072 1.7686 0)
(0.0755187 1.74675 0)
(0.0510212 1.7969 1.12178e-17)
(0.0469749 1.68535 -5.83029e-17)
(0.0684082 1.74935 -5.71198e-17)
(0.0330196 1.72132 -1.64586e-19)
(0.0601797 1.63573 3.05285e-17)
(0.012262 1.65243 -2.36685e-17)
(0.0171409 1.71989 0)
(-0.0772798 1.75875 0)
(-0.0168544 1.76005 -5.51867e-18)
(-0.0356507 1.77366 -6.95384e-18)
(0.0212635 1.77332 5.47565e-17)
(0.00481731 1.74741 0)
(0.0310011 1.69982 6.37029e-17)
(-0.017603 1.70044 2.44259e-18)
(0.0217331 1.78243 -7.6989e-18)
(0.0932718 1.77498 4.69992e-17)
(0.0769041 1.58398 1.00387e-18)
(-0.0201673 1.69201 -3.53896e-17)
(0.968662 0.0369975 9.10152e-17)
(0.965972 -0.0262856 -4.99948e-17)
(0.965273 0.0422276 0)
(0.964139 -0.0147882 -1.19782e-16)
(0.900666 0.122549 9.98703e-17)
(0.915896 0.0767235 -1.04853e-16)
(0.962903 0.00844707 1.23127e-17)
(1.02969 -0.0370786 0)
(0.99901 -0.00323273 -8.77738e-17)
(0.991869 -0.0329077 4.90142e-17)
(0.948853 0.0461513 5.41292e-18)
(0.972221 0.083891 -3.71088e-17)
(0.96818 0.0958982 0)
(0.95647 0.0597982 1.11607e-17)
(0.97627 0.0589032 0)
(0.955652 0.0604759 0)
(0.968503 0.0833698 0)
(0.951356 0.0168082 0)
(1.01471 0.0734431 -2.10253e-17)
(0.987975 0.046276 6.56037e-17)
(0.940556 0.00698762 2.21067e-17)
(0.969628 0.0240387 3.20692e-17)
(1.04057 0.09946 -3.93812e-17)
(1.00565 0.0874318 0)
(0.945105 0.0633285 0)
(0.0458568 1.79271 -2.02811e-17)
(0.109755 1.73225 7.74097e-20)
(0.0170417 1.75821 0)
(0.0564219 1.7916 -3.2547e-17)
(-0.0512339 1.79622 3.56543e-18)
(0.0296544 1.74704 -9.94855e-19)
(-0.0128281 1.74867 -4.76612e-17)
(0.0960094 1.74232 5.14762e-19)
(0.135953 1.66936 -5.30605e-18)
(-0.0344813 1.75275 2.17804e-17)
(-0.0328847 1.76769 1.04841e-17)
(0.0163189 1.72034 -1.15651e-17)
(-0.0424582 1.72421 -2.54909e-17)
(0.407647 1.81509 -9.33435e-18)
(0.351254 1.74133 -3.47049e-17)
(0.681451 1.85384 -7.04933e-17)
(0.548548 1.95538 5.36054e-18)
(0.59771 1.93929 0)
(0.229504 1.45604 -9.33693e-18)
(0.277494 1.43335 -9.01504e-18)
(0.20175 1.49075 -3.69273e-18)
(0.309587 1.52917 1.80636e-17)
(0.307821 1.49197 -3.88733e-17)
(0.252626 1.50202 0)
(0.178221 1.48208 8.73109e-18)
(0.0832184 1.62407 -3.90814e-17)
(0.166226 1.62759 3.10209e-17)
(0.0540553 1.60158 5.24132e-17)
(0.573437 1.39269 -5.76268e-17)
(0.463156 1.44547 0)
(1.02156 0.0710468 -2.43058e-18)
(1.04019 -0.0365237 2.08824e-18)
(0.969242 -0.0841349 3.10694e-17)
(0.986943 -0.00754442 -4.31205e-17)
(0.991031 0.0559699 0)
(0.724268 1.68222 0)
(0.668753 1.65487 0)
(0.825473 1.39995 0)
(0.585799 1.45748 0)
(0.866964 1.50285 1.45294e-17)
(0.846792 1.4915 0)
(0.596349 1.48697 -9.83374e-19)
(0.446876 1.49727 0)
(0.526507 1.453 7.30112e-17)
(0.548967 1.438 9.82413e-18)
(0.835041 0.1363 0)
(0.804962 0.135144 -9.86767e-18)
(0.882368 0.096701 -5.71112e-17)
(0.839272 0.113045 7.483e-18)
(0.83262 0.120872 6.80513e-17)
(1.02835 0.193702 6.92814e-17)
(0.821395 0.33912 1.42905e-17)
(0.83481 0.271747 -4.33396e-17)
(0.927102 0.157835 -4.4929e-17)
(0.854114 0.173713 1.04213e-16)
(0.866592 0.239535 -1.56362e-17)
(0.751234 0.31057 2.37536e-17)
(0.856576 0.277509 0)
(0.928854 0.175087 -3.19049e-17)
(0.933625 0.226233 0)
(0.975607 0.235854 0)
(0.988695 0.195191 -3.19172e-17)
(0.942782 0.269912 1.57724e-17)
(0.912785 0.162204 2.4331e-17)
(0.951724 0.165443 0)
(0.955103 0.0748752 -6.8537e-17)
(0.975139 -0.00979258 -4.84054e-17)
(1.01927 0.0770727 3.61204e-17)
(0.974862 0.10796 6.37205e-17)
(0.90476 0.0462327 3.35974e-17)
(0.903788 0.179842 0)
(0.943416 0.0244786 0)
(0.909681 0.103665 5.73979e-17)
(0.905359 0.0327189 -8.95964e-18)
(0.985214 0.121491 -7.61824e-17)
(1.02099 0.136416 5.90879e-17)
(0.956247 0.147186 -6.69105e-17)
(0.914351 0.197496 0)
(0.963137 0.11983 0)
(0.946861 0.10768 4.72858e-17)
(0.950232 0.117053 3.41563e-17)
(0.59642 1.58758 -6.72724e-18)
(0.549639 1.6128 9.85438e-18)
(0.732728 1.61795 4.01184e-17)
(0.739517 1.84218 -9.04321e-18)
(0.882907 1.60479 6.69992e-17)
(0.997134 1.75531 -2.55498e-17)
(1.03519 1.64888 4.1684e-18)
(0.819181 1.73801 2.6654e-17)
(0.817537 1.68778 -5.80194e-17)
(0.840739 2.03994 -1.66235e-17)
(0.965639 1.95375 1.7566e-17)
(1.0424 1.98208 0)
(0.305701 1.36369 1.57425e-18)
(-0.751185 1.81683 -2.92188e-17)
(-0.0395976 0.203467 -3.31964e-17)
(-0.359573 0.661584 -4.36699e-17)
(0.355074 0.351782 -3.86228e-17)
(0.311546 0.343772 5.9409e-17)
(0.258669 0.34788 -5.07717e-17)
(0.27617 0.254409 1.87256e-17)
(0.358826 0.228735 -4.22008e-17)
(0.750793 0.28818 3.22005e-17)
(0.637535 0.332635 0)
(0.668069 0.271374 3.09741e-18)
(0.525065 0.508888 -2.58233e-17)
(0.412125 0.5436 7.93306e-17)
(0.350713 0.432807 -3.0102e-18)
(0.410948 0.410686 0)
(0.411617 1.08476 -3.6547e-17)
(0.693897 1.00302 -1.02649e-17)
(0.614518 1.11036 6.36712e-17)
(0.671214 1.02104 2.12311e-17)
(0.880122 0.9748 3.48348e-18)
(0.861254 1.05982 -8.61266e-18)
(0.731806 0.74857 5.24567e-17)
(0.751825 0.919733 -8.69802e-18)
(0.928199 0.889819 0)
(0.86276 0.804929 3.31068e-17)
(0.885057 0.41295 7.20657e-18)
(1.01809 0.365782 -4.50169e-17)
(1.08502 0.314895 -5.68464e-17)
(0.868881 0.465946 5.79247e-17)
(1.02373 0.393756 0)
(0.966 0.414036 0)
(0.764813 0.413636 2.53049e-17)
(0.745328 0.315853 0)
(0.700437 0.357355 -3.14565e-17)
(0.915129 0.284525 3.42772e-17)
(0.840596 0.535868 -1.91421e-16)
(0.686783 0.566024 -3.87163e-17)
(0.73775 0.567704 4.06995e-17)
(0.688178 0.439817 -3.99354e-17)
(0.633505 0.510446 -2.43689e-17)
(0.597456 0.438728 2.01055e-17)
(0.974953 0.0978008 -7.95636e-17)
(0.972949 -0.0843002 0)
(1.00345 0.0178562 -3.20613e-17)
(0.937604 0.11072 7.71269e-17)
(1.00519 -0.0277685 -5.28362e-17)
(0.970841 0.0649774 8.78549e-17)
(0.999996 0.00214367 0)
(0.970526 -0.0402524 2.41597e-17)
(0.989102 0.0760256 -4.47345e-17)
(0.950414 0.0178664 2.09676e-17)
(0.958808 -0.0682882 -1.21992e-17)
(-0.0185316 1.79774 0)
(0.136168 1.75043 0)
(0.0520816 1.78285 0)
(-0.000730816 1.82354 0)
(0.0929683 1.73259 -3.96136e-17)
(0.108476 1.73883 -4.23719e-17)
(0.106425 1.73266 -6.06944e-18)
(0.155263 1.72039 -5.37991e-17)
(0.0168881 1.72717 5.13871e-17)
(0.0564666 1.75204 1.31759e-17)
(0.0458489 1.77174 6.0086e-17)
(0.0535527 1.76866 5.03566e-17)
(0.0113821 1.72951 8.03054e-18)
(0.0733668 1.78907 3.44081e-18)
(0.0652277 1.65939 -1.36679e-17)
(0.112852 1.68671 0)
(0.12925 1.70508 -2.9714e-17)
(0.0382692 1.78377 -1.18184e-17)
(0.143212 1.64769 -1.22177e-18)
(0.15653 1.5949 0)
(0.131911 1.58526 5.92216e-17)
(0.151068 1.59399 1.78108e-18)
(0.155075 1.65548 -1.01474e-17)
(0.165483 1.70783 -5.17946e-17)
(0.0165309 1.57957 0)
(0.0304472 1.70196 3.83743e-17)
(0.0233845 1.66524 1.34369e-17)
(-0.0467552 1.63883 0)
(0.0672692 1.77199 1.0613e-17)
(0.0397904 1.73752 -2.27358e-18)
(0.00499887 1.78077 2.79182e-18)
(0.018045 1.71008 -1.97489e-17)
(-0.0125949 1.71732 -4.12609e-17)
(-0.070879 1.6978 1.29893e-17)
(0.0294044 1.76293 0)
(-0.0147835 1.80693 0)
(0.0121177 1.7375 -2.76457e-17)
(0.0083797 1.72002 7.36073e-19)
(-0.0135527 1.80331 0)
(-0.0453572 1.76924 9.87576e-18)
(0.0232165 1.73895 1.31931e-17)
(0.936998 0.166297 0)
(1.03161 0.165163 6.05133e-18)
(0.977687 0.0528639 6.37038e-17)
(0.914475 0.00277259 0)
(0.96926 -0.047352 0)
(1.03966 -0.0899216 1.076e-17)
(0.934381 -0.0879551 -9.4594e-17)
(0.96306 -3.44088e-05 -9.07231e-17)
(0.947117 0.00253439 0)
(0.973269 -0.00112761 0)
(0.948879 -0.0185076 -2.65007e-17)
(0.965352 0.0378826 0)
(0.954367 0.0593016 0)
(-0.0511566 1.79213 0)
(-0.0166285 1.68851 -2.08551e-17)
(-0.00556101 1.70179 1.83527e-17)
(-0.0144003 1.72909 0)
(0.0666829 1.71189 -2.38083e-17)
(0.0416094 1.74149 -7.14122e-18)
(-0.0221959 1.74468 0)
(0.376711 1.67758 0)
(0.28492 1.66688 6.30873e-17)
(0.311057 1.61762 0)
(0.384742 1.76001 -2.22023e-17)
(0.465754 1.81539 0)
(0.446043 1.80685 4.47291e-17)
(0.582455 1.45238 8.15428e-19)
(0.533259 1.38737 3.53436e-17)
(0.578329 1.39466 -7.00932e-17)
(0.466821 1.41312 -1.48398e-17)
(0.497888 1.43924 0)
(0.5416 1.45504 0)
(0.569217 1.40872 0)
(0.502342 1.40371 3.63164e-17)
(0.318456 1.50708 8.99839e-18)
(0.379697 1.45808 8.55004e-18)
(0.399197 1.45315 -4.14776e-18)
(0.338128 1.46259 0)
(0.430339 1.46657 0)
(0.402634 1.45015 1.07028e-17)
(0.373181 1.45031 0)
(0.454711 1.52371 0)
(0.464873 1.45753 1.21123e-17)
(0.459886 1.32299 -3.35086e-19)
(0.648408 1.56662 0)
(0.589775 1.5863 -1.02182e-16)
(0.663185 1.30899 8.98202e-18)
(0.813152 1.27205 0)
(0.741982 1.20777 -3.93e-17)
(0.422794 1.50561 0)
(0.458179 1.31521 0)
(0.721244 1.5187 3.4267e-17)
(0.694571 1.57044 1.56814e-17)
(0.626887 1.5459 -5.53318e-17)
(0.643956 1.53032 8.95299e-18)
(0.710252 1.44006 0)
(0.656842 1.4686 -1.59512e-17)
(0.768358 1.46852 1.8576e-17)
(0.766164 1.43436 -3.90987e-18)
(0.555553 1.53199 0)
(0.544559 1.64662 3.26069e-17)
(0.600745 1.64274 0)
(0.815446 0.225565 0)
(0.803508 0.182609 0)
(0.735314 0.211612 0)
(0.793894 0.265591 3.48809e-17)
(0.745223 0.225602 -1.89181e-17)
(0.948081 0.0157805 3.44719e-17)
(0.907783 0.0697281 0)
(0.872293 0.0406532 -1.1825e-17)
(0.823203 0.107318 -4.79145e-17)
(0.851491 0.0371256 2.64203e-17)
(0.788426 2.30142 -3.4554e-17)
(0.762688 2.18928 0)
(0.741925 2.45331 -7.12193e-17)
(0.202274 2.63503 2.56752e-17)
(0.288231 2.24438 3.33986e-17)
(0.0887655 1.6226 -4.80944e-17)
(0.226092 1.59102 0)
(-0.162555 0.879008 1.0436e-17)
(-0.0777293 1.03046 -2.58628e-17)
(-0.137475 0.417771 1.58671e-17)
(0.135136 0.478612 -8.94407e-18)
(0.388188 0.538817 -3.05022e-17)
(0.509791 0.571162 0)
(0.203939 0.783214 0)
(0.159263 0.687654 0)
(0.829726 0.742745 -1.10927e-17)
(0.728947 0.591013 4.0882e-17)
(0.817043 0.662732 -3.5699e-17)
(0.811244 0.534235 4.06554e-17)
(1.0337 0.591292 0)
(0.987256 0.671375 5.17999e-18)
(0.741228 0.364208 5.60137e-17)
(0.719059 0.335363 7.83351e-17)
(0.607001 0.463033 -4.08469e-17)
(0.641456 0.40346 3.79069e-17)
(0.736261 0.344946 2.60711e-17)
(0.702483 0.335638 -4.57658e-17)
(1.03227 -0.00564098 2.44855e-17)
(1.02933 0.016347 -1.07812e-16)
(1.02439 0.0692071 -3.58287e-17)
(1.00701 -0.00993992 9.09522e-17)
(0.848839 0.0539673 0)
(0.806579 -0.0218449 9.92576e-17)
(0.0704676 1.70176 8.78039e-18)
(0.0102092 1.71556 0)
(0.063055 1.73355 -5.94865e-17)
(0.0171922 1.71772 5.18695e-18)
(0.0426224 1.67358 -3.68139e-17)
(0.0372376 1.72565 0)
(0.112521 1.78707 0)
(0.00228306 1.72577 -6.93872e-18)
(-0.0299514 1.57432 -1.21225e-17)
(0.0114928 1.61263 -2.46966e-17)
(-0.0719703 1.75964 -8.66139e-19)
(0.0582772 1.67399 -4.3814e-18)
(0.501772 1.59243 -2.67714e-18)
(0.509611 1.61819 -1.18756e-16)
(0.461207 1.69812 7.30898e-17)
(0.524952 1.65271 -4.94145e-18)
(0.63146 1.71732 0)
(0.537199 1.82016 7.19728e-17)
(0.525848 1.80748 -2.12674e-21)
(0.518586 1.74994 -8.70474e-19)
(0.594397 1.7369 0)
(0.6114 1.66598 0)
(0.432926 1.48964 -6.61855e-17)
(0.226322 1.50244 -8.77292e-17)
(0.293505 1.49396 1.02342e-17)
(0.197613 1.51317 5.16618e-18)
(0.358251 1.52507 -1.21723e-17)
(0.225051 1.48891 2.21606e-17)
(0.603336 1.41037 2.85034e-17)
(0.719951 1.41501 0)
(0.655865 1.39753 3.9644e-17)
(0.630075 1.41543 0)
(0.644206 1.41066 0)
(0.345211 1.93965 2.99941e-17)
(0.488233 1.97036 2.97206e-17)
(0.356775 2.09961 -3.27836e-17)
(-0.507919 1.64332 0)
(-0.375245 1.53424 8.13014e-18)
(-0.0659316 1.58788 5.1319e-18)
(0.162182 1.96604 0)
(-0.111264 2.2801 -1.61785e-17)
(-0.395795 2.42232 0)
(0.427628 0.927138 4.54456e-17)
(0.591974 0.950465 -9.98235e-17)
(0.608225 0.826368 6.39105e-17)
(0.280898 0.796235 5.44676e-18)
(0.44351 0.714425 2.75792e-17)
(0.515747 1.86364 -2.87633e-17)
(0.624831 1.73892 3.63039e-17)
(0.518666 1.91564 -4.68004e-17)
(0.536905 1.78887 4.74651e-17)
(0.576529 1.59191 6.64206e-17)
(0.616298 1.68453 -1.08001e-17)
(0.636173 1.69851 -4.97479e-17)
(0.594494 1.71709 -2.47919e-18)
(0.541683 1.6624 -2.97458e-18)
)
;

boundaryField
{
    wall-4
    {
        type            calculated;
        value           uniform (0 0 0);
    }
    velocity-inlet-5
    {
        type            calculated;
        value           uniform (1 0 0);
    }
    velocity-inlet-6
    {
        type            calculated;
        value           uniform (0 3 0);
    }
    pressure-outlet-7
    {
        type            calculated;
        value           nonuniform List<vector> 8((-0.190592 1.77102 0) (-0.0434534 1.70626 2.91171e-17) (-0.0473593 1.68636 0) (0.0116552 1.76671 0) (-0.00817843 1.73427 0) (-0.00455221 1.74728 0) (-0.00356328 1.73652 0) (0.0565555 1.76862 0));
    }
    wall-8
    {
        type            calculated;
        value           uniform (0 0 0);
    }
    frontAndBackPlanes
    {
        type            empty;
    }
}

