/*--------------------------------*- C++ -*----------------------------------*\
  =========                 |
  \\      /  F ield         | OpenFOAM: The Open Source CFD Toolbox
   \\    /   O peration     | Website:  https://openfoam.org
    \\  /    A nd           | Version:  6
     \\/     M anipulation  |
\*---------------------------------------------------------------------------*/
FoamFile
{
    version     2.0;
    format      ascii;
    class       volVectorField;
    location    "0";
    object      U;
}
// * * * * * * * * * * * * * * * * * * * * * * * * * * * * * * * * * * * * * //

dimensions      [0 1 -1 0 0 0 0];

internalField   nonuniform List<vector> 
918
(
(0.986532 0.00193621 0)
(-0.00384186 2.96728 0)
(0.00702256 1.70182 0)
(0.98019 -0.000159766 0)
(-0.00977776 1.66535 -5.51944e-22)
(0.00123728 2.95124 -1.48595e-18)
(0.939639 1.22359 4.32477e-19)
(0.526198 0.280296 -6.21492e-21)
(1.00015 -0.00045107 0)
(0.057189 1.5568 0)
(-0.00914659 1.59936 0)
(0.88371 0.00449415 0)
(0.00876525 2.936 0)
(0.0023497 2.79888 0)
(0.00511076 3.19507 7.28659e-19)
(0.00112531 1.61282 -1.39945e-20)
(0.652733 0.130266 3.65382e-19)
(0.270127 1.82202 3.68272e-19)
(0.979955 0.0198628 0)
(0.00281956 1.61343 0)
(0.251456 0.3089 -3.48515e-19)
(1.00021 -0.00334322 0)
(1.00092 -0.00686434 0)
(0.970803 -0.00065152 0)
(0.83459 -0.0296511 0)
(0.0237357 2.64351 0)
(-0.0106415 2.91643 5.03159e-19)
(-0.00281381 1.71182 0)
(-0.00101835 1.76805 0)
(-0.00207874 1.73204 0)
(-0.00703641 1.79733 0)
(-0.00124687 1.6855 4.32493e-22)
(-0.0101164 1.62178 0)
(-0.0193661 2.98968 -5.24858e-23)
(-0.013654 3.00766 1.16751e-18)
(0.00143497 2.99946 0)
(0.923414 0.00604447 0)
(0.141619 0.563716 -1.1853e-19)
(0.86703 1.29609 -5.60123e-19)
(1.02043 1.06087 5.80732e-19)
(0.742405 1.47632 -9.56609e-20)
(0.830509 1.42395 5.51997e-19)
(0.577207 0.33944 6.06191e-21)
(0.580481 0.237776 0)
(1.20693 0.539305 0)
(0.526096 0.342351 2.85686e-20)
(0.507304 0.271288 -2.96515e-20)
(0.924079 -0.00109488 0)
(0.998936 -0.000384101 0)
(0.999887 -8.54188e-05 0)
(0.999271 -0.00693118 0)
(1.00161 -0.00270983 0)
(1.00038 -0.000965856 0)
(0.0281258 1.54923 -3.60088e-19)
(0.0510159 1.68565 0)
(0.1248 1.58945 0)
(0.000327133 1.65513 0)
(0.00124917 1.52213 0)
(0.00101502 1.62006 0)
(-0.0171794 1.6684 0)
(-0.0151413 1.58487 0)
(-0.006397 1.68977 0)
(-0.000973465 1.60531 0)
(0.949549 0.0188973 0)
(0.942429 0.00848892 0)
(0.903096 -0.0033829 0)
(0.929529 0.0214831 0)
(0.864136 0.0276769 0)
(0.013305 3.00389 5.37083e-19)
(0.010849 3.00568 0)
(0.00671992 3.00335 0)
(0.0106412 2.99857 5.98228e-24)
(0.00562719 2.9625 -8.08144e-19)
(0.0126622 2.98529 0)
(0.0101291 2.90706 0)
(0.0226201 2.93269 1.11988e-24)
(0.00346064 2.82946 0)
(0.0288427 2.9198 0)
(-0.00266912 2.74884 0)
(0.333654 3.62833 0)
(-0.12533 3.71082 0)
(0.165666 3.28849 -6.75236e-19)
(-0.00588506 3.0063 0)
(-0.010042 1.76438 0)
(-0.00248189 1.69794 1.38042e-20)
(-0.00701328 1.63609 -1.60211e-20)
(0.705318 0.171488 -1.25249e-19)
(0.676335 0.0832982 -1.20097e-19)
(0.699403 0.19302 -3.78203e-19)
(0.657995 0.145977 -2.54988e-19)
(0.242808 1.31542 0)
(0.332045 1.89407 -4.13947e-19)
(0.501239 1.83497 6.77874e-19)
(0.994214 0.0154708 0)
(0.951518 0.0291196 0)
(1.00021 0.000637894 0)
(1.00247 0.00958582 0)
(1.00366 0.0172256 -6.21055e-19)
(0.988809 0.00669344 4.7639e-19)
(-0.00363644 1.68588 0)
(0.00367133 1.62159 0)
(-0.0065576 1.73447 0)
(-0.00958887 1.69445 0)
(0.00123145 1.62263 0)
(0.313988 0.323682 1.08166e-19)
(0.343656 0.306083 0)
(0.990221 0.00175263 0)
(0.970533 0.00609476 0)
(0.895938 0.0235866 0)
(0.887897 0.00661596 0)
(0.853697 -0.00522455 0)
(1.07417 0.011934 0)
(0.854621 0.02463 0)
(0.766587 0.032175 4.7378e-19)
(-0.033108 2.86486 3.18604e-19)
(0.0372883 2.91356 0)
(0.0457623 2.89005 0)
(0.00285582 2.70117 0)
(-0.00816283 2.9871 4.70559e-19)
(-0.0128052 2.89774 0)
(-0.00956596 2.99177 -1.47154e-18)
(-0.00910131 2.93222 5.06445e-19)
(0.00213605 1.78329 0)
(0.00434517 1.76865 0)
(0.00719438 1.6915 -4.66759e-22)
(0.00949677 1.68629 0)
(0.00565886 1.61009 0)
(0.967595 0.00993369 0)
(0.932006 0.0120342 0)
(0.91455 -0.0144484 0)
(0.966731 -0.00150796 0)
(0.91909 -0.0138959 0)
(0.221889 0.87018 1.45678e-19)
(0.337359 1.04741 0)
(0.195357 0.442651 -1.88566e-20)
(0.188861 0.0950358 0)
(0.965919 1.12205 -1.6872e-19)
(1.0896 0.877963 3.60335e-19)
(0.472375 1.8336 0)
(0.612493 1.67572 0)
(0.712004 1.64865 0)
(0.437853 0.616666 -1.97731e-19)
(0.628598 0.291029 0)
(0.60836 0.216257 7.41959e-20)
(1.04546 0.945677 0)
(1.11531 0.759549 0)
(1.13935 0.705557 -3.36754e-19)
(1.20112 0.597883 0)
(1.25702 0.40607 3.97151e-20)
(0.970755 -0.00175584 0)
(0.95755 0.00113794 0)
(0.920364 0.0072434 0)
(0.989558 0.00166517 0)
(0.966374 -0.000717034 0)
(0.945692 0.00239845 0)
(1.00111 0.00249677 0)
(1.00021 0.000141834 0)
(1.00003 0.000699168 0)
(0.0148272 1.58766 1.93561e-19)
(0.0444196 1.51034 0)
(0.0165898 1.62794 3.24331e-19)
(0.025651 1.59472 -2.80639e-19)
(0.168804 1.83507 -3.04095e-19)
(0.0502841 1.73282 0)
(0.171327 1.71269 0)
(-0.0211351 1.65693 0)
(-0.00717369 1.54915 0)
(0.00106229 1.67724 -8.92683e-22)
(-0.000114442 1.60908 0)
(0.000311126 1.69386 -4.47391e-20)
(0.00195219 1.62408 8.6595e-20)
(-0.00865146 1.67539 0)
(-0.0108979 1.66982 0)
(0.00327252 1.5793 0)
(0.00268855 1.69097 0)
(0.013244 1.60284 0)
(1.01057 0.0094206 0)
(0.96539 -0.00873275 0)
(0.985297 0.0144232 0)
(0.944565 0.0117085 0)
(0.905821 0.00603253 0)
(0.954234 0.0112031 0)
(0.9533 -0.00279004 0)
(0.905797 -0.00432707 0)
(0.00717412 3.06162 -4.6546e-21)
(0.0159787 3.05676 0)
(0.0132372 2.97103 0)
(0.00740119 2.8787 0)
(0.941467 4.05782 0)
(1.23924 3.43513 7.51311e-19)
(0.0753062 3.09251 0)
(-0.0246046 2.913 0)
(0.00671829 1.7501 0)
(-0.000457458 1.74533 0)
(-0.000282882 1.7502 0)
(-0.00938741 1.79094 3.6036e-21)
(-0.0108763 1.77681 0)
(-0.0103817 1.78189 0)
(0.00120659 1.61676 6.77239e-22)
(0.00485888 1.68881 2.77921e-20)
(-0.00735178 1.69592 1.64766e-20)
(0.00423658 1.62143 0)
(0.737932 0.118398 1.82533e-19)
(0.687931 0.0367211 -1.7702e-19)
(0.199636 1.38975 0)
(0.305801 1.23756 -1.60636e-19)
(0.149525 1.43857 -4.69898e-19)
(0.173183 1.37027 4.68652e-19)
(0.898636 0.00721368 0)
(0.967942 0.0113858 0)
(0.978536 0.0297904 0)
(0.927387 0.0254198 0)
(0.00874692 1.68641 0)
(-0.000351276 1.68902 0)
(0.003409 1.61208 0)
(0.478174 0.360863 2.66819e-19)
(0.419048 0.360778 -3.31787e-19)
(0.448066 0.272922 0)
(1.19038 0.0809902 -4.39818e-21)
(1.17354 0.0304639 0)
(1.09796 0.0467648 0)
(1.01371 0.00819159 0)
(0.751487 0.0874612 0)
(0.775262 0.0907517 -7.61565e-19)
(0.710966 0.0433881 2.89854e-19)
(0.0102991 2.98175 3.68573e-19)
(-0.0284518 2.86624 3.07904e-20)
(0.00938301 3.04845 -9.9482e-21)
(0.0156178 3.04264 3.78417e-19)
(-0.0106378 2.99949 1.67768e-20)
(-0.00970687 2.95419 -6.87626e-23)
(-0.0147303 3.01212 -3.2075e-19)
(0.0121195 3.02327 2.21414e-19)
(0.00597258 3.02951 -3.49246e-19)
(0.988854 0.00830552 0)
(0.984769 0.00681233 0)
(0.938764 0.00580678 0)
(0.956568 0.00798864 0)
(0.960074 -0.0112365 0)
(0.908679 -0.00973538 0)
(0.959524 0.00527292 0)
(0.958472 -0.00685403 0)
(0.911098 -0.00842391 0)
(0.523395 1.35348 2.45122e-19)
(0.615625 1.51452 0)
(0.21431 0.0373074 1.24697e-20)
(0.427722 0.454677 -8.74335e-20)
(0.34467 0.394224 1.39321e-19)
(0.146297 -0.0373821 -3.10399e-19)
(0.430829 0.96489 9.96364e-19)
(0.462938 0.846066 2.26895e-19)
(0.685244 0.243873 2.77117e-19)
(0.643164 0.277149 6.76824e-20)
(0.626416 0.200461 1.4172e-19)
(1.24741 0.442812 2.227e-19)
(1.2768 0.240816 2.32957e-19)
(0.0146679 1.67548 1.29792e-19)
(0.0090169 1.63691 0)
(1.04293 0.0242857 0)
(1.00864 0.00781776 0)
(0.984708 0.00355175 0)
(0.00794638 3.07467 0)
(0.0173239 2.94609 6.45991e-19)
(0.0137193 2.95767 0)
(0.0040944 2.85379 -6.43646e-19)
(0.00716392 3.08844 1.53237e-19)
(0.00901694 3.07859 0)
(0.655148 1.83313 -1.50096e-19)
(1.27901 2.66924 4.97342e-19)
(0.663232 2.02212 -1.09147e-18)
(0.0201297 2.98454 -2.95664e-19)
(0.0373242 3.00549 0)
(-0.0360957 2.87793 0)
(-0.00286302 1.68211 -4.42122e-21)
(-0.00614912 1.69001 -6.11942e-20)
(-0.00396301 1.622 -4.98611e-21)
(0.25286 1.34132 5.10881e-19)
(0.356236 1.20959 -3.48116e-19)
(0.0340871 1.56494 3.13539e-19)
(0.0886652 1.51014 -3.82112e-19)
(0.104151 1.46124 4.63485e-20)
(0.00695164 3.11744 -8.46914e-19)
(0.012618 3.11764 9.4486e-19)
(-0.00470511 2.98146 4.2376e-19)
(-0.0024946 2.97756 -3.90613e-19)
(-0.0151889 2.88122 -4.31724e-19)
(0.0112837 3.09703 -1.12894e-18)
(0.00431917 3.10201 1.14263e-18)
(0.498607 0.827824 0)
(0.522536 0.631199 -4.17373e-19)
(0.370554 0.312836 2.01838e-19)
(0.424474 1.10352 6.66232e-19)
(0.447416 1.01203 -1.0258e-18)
(1.26108 0.180013 -4.22626e-20)
(1.2827 0.301535 0)
(1.26525 0.131075 9.14651e-20)
(-0.0158235 1.69116 -1.07057e-21)
(-0.0101474 1.69634 0)
(-0.0121417 1.63204 0)
(0.309264 1.31558 -1.80941e-19)
(0.377581 1.21229 -4.29783e-19)
(0.411114 1.15328 7.76097e-19)
(1.007 -0.0227646 0)
(0.998784 -0.00608875 1.17073e-19)
(-0.000778045 1.78147 0)
(-0.00930328 1.79002 0)
(1.00093 -0.000192626 -7.12754e-22)
(1.00712 0.00415922 2.32686e-19)
(-0.00273314 1.79077 -4.7099e-21)
(-0.00415925 1.79419 0)
(0.0490835 3.18248 1.7134e-19)
(0.404953 3.53593 0)
(1.11438 0.693474 4.73867e-20)
(1.00417 0.00749445 -2.26769e-21)
(1.00141 -0.000936 0)
(1.00156 -0.00636801 -3.99503e-22)
(0.0596108 1.84433 0)
(0.0532792 1.72778 0)
(0.00173916 1.79982 0)
(0.0160576 1.78116 5.80643e-20)
(-0.00288914 1.7775 3.23749e-20)
(0.998043 0.022929 1.36711e-21)
(1.04021 -0.00193258 0)
(1.06813 0.0303744 0)
(0.0107344 1.74942 0)
(0.00443681 1.77818 0)
(0.00151884 1.79015 0)
(0.182675 1.91682 -1.60397e-19)
(1.00964 -0.0268765 0)
(1.00219 -0.0301149 0)
(1.00663 -0.00221813 1.47249e-19)
(0.997244 -0.00416025 -1.78582e-19)
(1.00185 -0.00177815 0)
(0.0118004 1.74749 0)
(-0.000904923 1.77816 0)
(0.0101246 1.75437 0)
(-0.00150149 1.7934 0)
(-0.00854344 1.7893 0)
(-0.00776744 1.79274 0)
(1.0227 -0.00171905 0)
(1.01492 0.00937551 -3.75381e-22)
(0.646905 1.19259 2.78041e-19)
(1.00109 -0.00178311 -1.46739e-19)
(0.998917 0.00356682 1.74666e-19)
(1.00126 0.00374047 0)
(1.00354 0.00748089 1.42479e-19)
(1.00275 0.000288026 -1.78817e-19)
(0.993169 -0.00393139 0)
(0.00287626 1.78791 0)
(-0.00283277 1.79522 1.26365e-20)
(-0.0104638 1.78848 -9.63908e-21)
(1.14363 0.258105 -4.52203e-20)
(1.09756 0.0842053 0)
(0.055842 3.08984 -4.57527e-19)
(0.0485953 2.86642 -3.40813e-20)
(0.117378 3.19588 6.10315e-19)
(0.113365 3.21031 -7.16076e-20)
(0.151844 3.2402 0)
(0.0187167 3.13949 1.12994e-19)
(0.0706059 3.1592 4.4876e-19)
(0.065009 3.18238 -2.16591e-19)
(0.0257669 3.12721 0)
(0.699582 0.34666 0)
(0.620248 0.391721 0)
(1.05704 0.674738 -1.60005e-19)
(1.01435 0.804533 2.41172e-19)
(1.11653 0.574955 0)
(1.13848 0.572603 0)
(1.01267 0.00637908 -2.76224e-19)
(1.01882 0.00303934 3.4238e-19)
(1.01084 0.000921941 0)
(1.01675 0.00771177 0)
(1.01981 -0.005882 0)
(1.0197 0.0132928 0)
(1.01779 -0.00705081 0)
(1.01912 0.0187687 0)
(1.01254 0.0122506 0)
(1.00893 0.00452429 0)
(0.0532358 1.83457 0)
(0.016604 1.82715 0)
(0.0816707 1.87385 0)
(0.0527274 1.88556 0)
(0.0417505 1.71056 0)
(0.0281567 1.69744 -2.08319e-19)
(0.0648625 1.73931 0)
(0.0693581 1.73604 1.07969e-19)
(0.00540641 1.75114 -1.13605e-19)
(0.000310235 1.79892 0)
(-0.00204651 1.79672 0)
(0.00108956 1.80545 0)
(-7.16619e-05 1.81831 0)
(0.00757724 1.77734 -3.52159e-20)
(-0.00252401 1.78097 4.3264e-20)
(0.0110976 1.78738 5.53361e-20)
(0.00426717 1.78551 0)
(-0.0020492 1.77841 -7.90392e-20)
(0.00408269 1.77546 -4.42887e-20)
(0.00532535 1.77295 2.73068e-20)
(-0.00762149 1.77307 -5.75897e-20)
(0.00467143 1.78176 -6.73417e-20)
(1.00473 0.015962 2.57692e-19)
(1.0108 0.00593054 -3.20343e-19)
(1.00348 0.0213255 -2.74211e-19)
(0.985343 0.0127859 3.47801e-19)
(1.04101 0.00892779 0)
(1.04517 -0.00482706 0)
(1.05955 0.0310022 0)
(1.04338 0.00188362 0)
(1.06386 0.0147875 0)
(1.08146 0.0659582 0)
(1.07479 0.0355524 0)
(1.09063 0.039236 0)
(0.000704111 1.78621 -1.50514e-21)
(0.0191996 1.7509 0)
(0.000974804 1.77274 0)
(0.0067184 1.7791 1.33069e-20)
(0.0136928 1.77698 -5.65486e-22)
(0.0120544 1.75256 1.55034e-20)
(0.00548877 1.75564 -1.56893e-20)
(-0.00370916 1.78456 0)
(-0.00229414 1.78382 0)
(-0.00309525 1.77957 0)
(-0.00505499 1.79003 0)
(-0.00829215 1.78543 0)
(0.286321 1.89568 2.59142e-19)
(0.273774 1.87876 1.25614e-19)
(0.298271 1.60429 -1.25795e-19)
(0.164541 1.6292 3.1416e-19)
(0.223118 1.72198 8.23082e-20)
(0.999272 -0.00546853 0)
(0.994057 -0.0291459 0)
(0.985971 -0.028267 0)
(1.02905 -0.0124867 0)
(1.00667 -0.0161305 0)
(0.999786 -0.0156815 0)
(0.996329 -0.0183479 0)
(0.993894 -0.00783886 0)
(1.01725 0.0055654 2.54578e-19)
(1.02386 0.00290534 -3.21336e-19)
(1.01453 0.00948232 -2.49308e-19)
(1.01373 0.0044909 3.14843e-19)
(0.643361 1.34815 0)
(0.500149 1.50463 2.74411e-19)
(0.7634 1.11798 1.78549e-19)
(0.803613 1.12544 -2.38402e-19)
(0.942814 2.73957 -8.24787e-19)
(0.83178 0.109521 1.82444e-19)
(1.10242 0.0847 0)
(1.13447 0.169164 3.8891e-20)
(1.16132 0.139519 3.20566e-21)
(0.973274 0.107962 0)
(0.0929723 3.01497 9.21949e-20)
(0.100345 2.9018 -5.52523e-19)
(0.0348972 2.36519 3.68388e-19)
(0.200124 0.149481 -1.61644e-19)
(0.371553 3.43264 -2.44797e-19)
(0.194071 3.32275 0)
(0.23909 3.35844 3.18715e-19)
(0.230695 3.05302 -4.40618e-19)
(0.267759 3.16094 0)
(0.00828321 3.11928 2.40189e-20)
(0.0198974 3.12785 -2.90535e-19)
(0.018525 3.12387 4.26822e-19)
(0.036189 3.13704 0)
(0.0329629 3.14969 0)
(1.18133 2.67612 0)
(0.640019 0.818481 -1.6593e-19)
(0.923817 0.97969 -1.30244e-19)
(0.896064 0.996074 0)
(0.780524 0.93608 6.55013e-20)
(1.0032 0.866457 1.98057e-20)
(0.423785 0.448084 -4.23801e-19)
(0.7259 0.331955 -1.46817e-20)
(0.738766 0.318536 1.40733e-19)
(0.626161 0.422518 1.2505e-20)
(0.5739 0.432213 -5.18466e-19)
(0.693473 0.364045 0)
(0.688283 0.423883 2.39702e-19)
(0.683223 0.416855 0)
(0.644086 0.416346 0)
(0.664806 0.376914 0)
(0.773261 0.557631 7.13486e-20)
(1.15486 0.266919 4.15383e-20)
(1.14493 0.400043 0)
(1.1894 0.381276 0)
(0.799221 0.220511 2.19824e-19)
(0.775331 0.528474 -1.18094e-19)
(0.716539 0.466391 1.87701e-19)
(0.888996 0.406115 -1.71421e-19)
(1.02522 -0.00324487 1.74813e-19)
(1.0223 -0.00208888 -1.82441e-19)
(1.02463 -0.00116762 0)
(1.02147 0.00507438 0)
(1.01561 0.0103409 -1.65987e-19)
(1.02086 -0.0020512 1.65691e-19)
(1.01143 -0.000277652 0)
(1.00729 0.00420416 0)
(1.0213 0.011594 0)
(1.02314 -0.00147134 0)
(1.02638 0.00934427 0)
(1.02378 0.00883551 0)
(-0.00319693 1.83139 0)
(-0.00973581 1.8306 0)
(0.1141 1.85595 6.99268e-21)
(0.178218 1.8915 7.92908e-20)
(0.0762002 1.91181 1.74027e-19)
(0.0900648 1.91528 -2.80655e-19)
(0.107986 1.87433 0)
(0.107432 1.76802 -7.0053e-20)
(0.111858 1.7707 0)
(0.216832 1.71459 -1.19141e-19)
(0.183624 1.68223 3.77556e-19)
(0.124504 1.79912 6.30083e-20)
(0.179905 1.85374 2.39193e-20)
(0.14348 1.86727 -1.92222e-20)
(0.227743 1.79037 -8.07718e-20)
(0.178336 1.76394 0)
(0.183701 1.74742 7.66648e-20)
(0.00206168 1.76547 -3.36302e-20)
(0.025534 1.75102 0)
(0.0612511 1.75337 1.24417e-19)
(0.0196768 1.74523 0)
(0.0635767 1.7497 -1.19678e-19)
(0.0425799 1.7504 0)
(-0.0019156 1.7626 -2.97093e-20)
(0.00249173 1.76752 0)
(-0.00267256 1.7705 0)
(-0.00192033 1.76198 3.35832e-20)
(0.00943815 1.78018 1.03601e-21)
(-0.00740665 1.76456 1.31019e-19)
(-0.00626955 1.76907 8.82138e-22)
(-0.00938713 1.76581 2.66361e-20)
(-0.00662187 1.76503 1.57084e-20)
(-0.0014 1.79358 0)
(-0.000241801 1.79129 0)
(0.0143809 1.78231 8.10898e-20)
(0.00418589 1.7699 5.35463e-20)
(0.00523236 1.77277 -7.69926e-20)
(0.025452 1.78406 0)
(0.000142686 1.75498 -4.88946e-20)
(0.00279063 1.76446 2.20752e-20)
(0.00232868 1.76695 -6.63241e-21)
(-0.0110444 1.76995 -3.22346e-20)
(0.000447283 1.77895 -1.0008e-20)
(-0.00439644 1.77886 5.33558e-20)
(1.01232 -0.000970359 -1.68358e-19)
(1.015 0.00275419 1.71557e-19)
(1.01385 -0.0020448 0)
(0.984257 0.0689679 2.60971e-19)
(0.983629 0.020104 -2.95101e-19)
(0.954778 0.0158883 3.43096e-19)
(0.981793 0.0872195 -3.38751e-20)
(1.03041 0.00288576 0)
(1.03763 0.0110457 1.44428e-19)
(1.0402 0.00476676 -1.43462e-19)
(1.01851 0.0382958 -8.47782e-21)
(1.02433 0.0127102 7.52613e-20)
(0.988112 0.0287608 0)
(0.974892 0.0221548 -2.6981e-20)
(1.00729 0.0183932 0)
(1.00323 0.0264374 0)
(1.01393 0.000437906 0)
(1.01587 0.00238707 0)
(0.999807 0.016807 5.713e-20)
(1.00133 0.0215281 -1.23705e-19)
(1.00192 0.0293374 -5.88943e-20)
(0.976727 0.0188947 -6.8102e-20)
(0.986709 0.0401179 1.13166e-19)
(1.04503 0.0388975 0)
(1.04925 0.0883107 0)
(0.00283409 1.75384 -1.90365e-20)
(0.0244726 1.75082 -1.67317e-21)
(0.0183751 1.74725 0)
(0.00907787 1.77274 1.92354e-20)
(0.0128559 1.77674 3.08508e-21)
(0.0112709 1.77623 -3.03744e-21)
(0.00467289 1.77779 3.81968e-20)
(0.00535795 1.77217 -2.48691e-21)
(0.00466563 1.77515 1.05199e-20)
(0.0076397 1.77507 -2.03888e-20)
(0.00607721 1.77682 2.39472e-20)
(-0.00081635 1.77786 2.83973e-22)
(0.00806911 1.76939 1.98629e-20)
(0.263613 1.79893 -1.09492e-19)
(0.229421 1.79057 5.72731e-20)
(0.482796 1.62473 -2.65531e-19)
(0.371612 1.80525 -1.23942e-19)
(0.383241 1.72116 0)
(0.350552 1.59501 1.31357e-19)
(0.384347 1.552 1.858e-19)
(0.212363 1.63392 2.79497e-20)
(0.207932 1.63556 -4.31605e-19)
(0.266414 1.64411 3.54451e-19)
(0.283216 1.62912 0)
(0.229197 1.63369 -2.69905e-19)
(0.0677529 1.67164 5.41822e-19)
(0.142907 1.66734 -2.90867e-20)
(0.070183 1.6702 -7.36926e-19)
(0.804377 1.55415 4.64216e-19)
(0.631508 1.49334 0)
(1.03222 -0.0135598 5.73573e-21)
(1.01063 0.00469812 -4.89751e-21)
(1.01883 0.020381 -8.43864e-20)
(1.02801 0.00997093 8.42572e-20)
(1.0304 -0.00569128 0)
(0.297065 1.19492 0)
(0.326653 1.03851 0)
(0.628444 0.976458 0)
(0.499189 0.75441 0)
(0.983776 2.73404 2.11092e-20)
(0.854571 2.39158 0)
(0.36995 2.72382 -1.44292e-22)
(0.46147 2.07214 0)
(0.510568 2.28871 -2.8068e-19)
(0.490664 2.40972 1.77569e-19)
(0.852233 0.126569 0)
(0.832115 0.160373 5.28207e-20)
(0.911301 0.104113 2.60564e-19)
(0.850914 0.10462 -1.05788e-19)
(0.831563 0.092392 -3.25425e-19)
(0.99801 0.191586 -1.4474e-19)
(0.913339 0.285894 -7.79795e-21)
(0.846855 0.271626 2.50326e-19)
(0.933894 0.201951 1.70664e-19)
(0.93567 0.147807 -3.25376e-19)
(0.913182 0.148176 4.25608e-20)
(0.929047 0.226836 -8.03548e-20)
(0.909888 0.177455 0)
(0.963097 0.135687 1.52754e-19)
(0.975413 0.137834 0)
(0.963611 0.169854 0)
(1.05635 0.103213 4.71005e-20)
(0.992743 0.134669 -8.56931e-21)
(0.996409 0.193997 -2.62531e-20)
(1.06625 0.188816 0)
(1.01302 0.026419 1.31112e-19)
(1.00496 0.0308724 1.53458e-19)
(1.01127 0.0309576 -1.26156e-19)
(1.02374 0.0463898 -1.04212e-19)
(1.0068 0.0637916 -1.83551e-19)
(0.935474 0.0867265 0)
(0.948756 0.0764031 0)
(0.946081 0.0439215 -1.23401e-19)
(0.91025 0.0618388 5.29594e-20)
(1.01932 0.102292 1.49703e-19)
(0.995316 0.120033 -1.47806e-19)
(1.00261 0.129292 1.34045e-19)
(1.00543 0.132362 0)
(1.01258 0.0971233 0)
(1.00346 0.0882469 -6.20522e-20)
(1.02393 0.0909029 -1.17468e-19)
(0.277149 1.72574 -3.85444e-19)
(0.529661 2.69248 3.57052e-19)
(0.975308 3.13247 3.247e-19)
(1.18491 3.34161 -9.25814e-20)
(1.09554 2.93132 7.79041e-19)
(1.20258 2.86856 -2.53157e-19)
(1.05631 2.33868 2.3555e-21)
(1.13561 3.27333 3.60151e-19)
(1.11744 3.25233 -4.96405e-19)
(1.19112 3.43101 -2.30723e-19)
(1.40007 3.12967 2.55447e-19)
(1.43003 2.99247 0)
(0.629299 0.836755 3.69816e-21)
(0.182112 1.2844 2.28774e-19)
(0.409487 0.619205 2.7161e-19)
(0.226626 0.383515 3.07692e-19)
(0.560692 0.441563 2.90641e-19)
(0.540498 0.488752 -4.78464e-19)
(0.529594 0.520977 3.96797e-19)
(0.489661 0.511817 -1.59543e-19)
(0.517158 0.443888 3.54844e-19)
(0.798126 0.245383 -1.22818e-19)
(0.759474 0.300806 0)
(0.776973 0.276025 7.56836e-21)
(0.689717 0.497666 1.24615e-19)
(0.656867 0.486922 -4.61254e-19)
(0.581026 0.522456 1.69902e-20)
(0.640319 0.464328 0)
(0.685128 0.686763 7.5215e-20)
(0.762602 0.744352 -8.58231e-21)
(0.724926 0.820191 -1.97307e-23)
(0.816853 0.68183 -3.24585e-21)
(0.899472 0.827537 1.44119e-20)
(0.869781 0.784764 -1.48643e-20)
(0.780635 0.588194 -1.23322e-19)
(0.85714 0.633746 3.02368e-21)
(0.954465 0.647578 0)
(0.946975 0.643439 1.08718e-21)
(0.950417 0.311327 3.74916e-20)
(1.08494 0.293584 -7.37968e-21)
(0.986619 0.226834 5.83303e-20)
(0.940333 0.340721 -8.52252e-20)
(0.95431 0.408116 0)
(1.0246 0.38553 0)
(0.809059 0.348006 -1.62851e-21)
(0.825687 0.287792 0)
(0.838208 0.271941 1.24174e-19)
(0.808195 0.27941 1.02913e-22)
(0.877018 0.411636 4.70486e-19)
(0.828365 0.503892 1.1662e-19)
(0.819882 0.446797 -1.65395e-19)
(0.771853 0.415752 1.77415e-19)
(0.746986 0.419935 1.20805e-19)
(0.715343 0.415319 -1.17189e-19)
(1.01788 0.0241741 1.35345e-19)
(1.01874 0.00288242 0)
(1.01398 0.0179242 9.3108e-20)
(1.01553 0.0225197 -2.08713e-19)
(1.01747 0.00811338 9.99223e-20)
(1.01626 0.0131539 -2.09349e-19)
(1.01135 0.00373477 0)
(1.00996 -0.00426026 -4.43156e-20)
(1.02226 0.00246862 1.08146e-19)
(1.02177 -0.00172756 -5.51371e-20)
(1.0176 0.00223454 4.18942e-20)
(-0.00772215 1.81436 0)
(-0.00490809 1.77198 0)
(-0.0106523 1.82546 0)
(-0.00993206 1.82133 0)
(0.0540081 1.81202 4.0674e-20)
(0.0686803 1.82292 -1.24749e-20)
(0.0824073 1.78461 -2.46582e-20)
(0.0804788 1.82956 -1.52664e-20)
(0.00948869 1.78329 -5.58063e-20)
(0.0148272 1.78201 4.11522e-20)
(0.0397583 1.80001 -1.03375e-20)
(0.00106735 1.80011 -1.76252e-20)
(-0.00161092 1.78795 -1.86209e-21)
(-0.00754401 1.78219 -5.01641e-21)
(0.0698506 1.75851 -1.29259e-19)
(0.0752162 1.7559 0)
(0.0746767 1.75148 7.80567e-20)
(0.102398 1.77308 5.16637e-20)
(0.129624 1.72739 -5.61524e-20)
(0.097083 1.66004 0)
(0.106487 1.65182 -3.94685e-19)
(0.157617 1.66282 2.76863e-19)
(0.121587 1.73701 -1.51867e-19)
(0.0928745 1.73023 8.47991e-20)
(0.048647 1.69479 0)
(0.0126196 1.77839 -9.85703e-20)
(0.0161811 1.77763 -1.13817e-19)
(0.015893 1.7819 0)
(0.00979554 1.7753 -2.89243e-21)
(0.0033026 1.76914 4.91688e-20)
(-0.000644884 1.7734 5.37289e-21)
(0.00279325 1.78362 -8.595e-20)
(-0.000324066 1.77487 2.2205e-20)
(-0.00662235 1.75954 3.0278e-20)
(-8.29174e-05 1.76088 0)
(0.00150553 1.78116 0)
(-0.00528163 1.78889 2.41733e-20)
(0.000191156 1.79005 -7.20542e-21)
(0.00209794 1.78707 0)
(0.0024324 1.79004 1.78917e-20)
(-0.00325212 1.7857 -3.62133e-20)
(1.0045 0.0197472 0)
(1.00718 0.0267241 -1.33648e-20)
(1.00772 0.011395 -9.63581e-20)
(1.01667 0.0243869 0)
(1.01694 0.0297245 0)
(1.00508 0.00262712 -5.76572e-21)
(1.00864 0.00159823 1.5861e-19)
(1.00814 0.00282589 1.99209e-19)
(1.01977 0.00275146 0)
(1.02056 0.00292595 0)
(1.00752 0.0133731 1.01319e-19)
(1.00578 0.0130466 0)
(1.01529 0.0104413 0)
(-0.00279236 1.75457 0)
(-0.00257264 1.76192 1.70688e-21)
(-0.00136667 1.75062 1.19849e-20)
(-0.00269816 1.79035 0)
(-0.00460045 1.77561 1.54492e-20)
(-0.00323552 1.7868 -6.70225e-21)
(-0.00218395 1.79161 0)
(0.311922 1.83053 0)
(0.211566 1.79932 -1.16164e-19)
(0.21904 1.77419 0)
(0.239096 1.80437 7.24198e-20)
(0.254909 1.73395 0)
(0.247164 1.78744 -3.20865e-21)
(0.841196 2.17697 -9.36048e-21)
(0.832186 1.5803 -5.62064e-19)
(0.873299 1.59939 3.25965e-19)
(0.662359 1.4955 1.63102e-19)
(0.597478 1.78096 0)
(0.573111 1.95354 0)
(0.787319 1.51927 0)
(0.718108 1.435 -6.05189e-19)
(0.405874 1.87975 -3.37807e-19)
(0.560278 1.7449 -1.04452e-19)
(0.484446 1.95006 8.73884e-20)
(0.483772 1.55099 0)
(0.602268 1.50158 0)
(0.546697 1.52191 -2.10991e-19)
(0.559556 1.6769 0)
(0.708768 0.724681 0)
(0.691873 0.747114 4.16226e-19)
(0.759131 0.725086 1.96069e-20)
(0.403473 0.840177 0)
(0.719308 0.934149 -6.7361e-19)
(0.746815 0.842963 4.28024e-20)
(0.738604 0.915611 0)
(0.713156 0.929532 -9.00384e-20)
(0.731004 0.751592 0)
(0.755687 0.745193 0)
(0.889169 3.05333 2.20337e-19)
(0.927352 3.14654 1.96023e-19)
(0.553287 2.95449 -5.3151e-19)
(0.386296 2.82578 1.2012e-20)
(0.862426 2.78774 0)
(0.792079 2.73105 -1.58611e-20)
(0.871444 2.39693 1.93345e-19)
(0.87733 2.0892 4.97185e-21)
(0.0836854 2.27913 0)
(0.0835676 1.57351 3.36678e-19)
(0.126411 1.54229 0)
(0.87875 0.190333 0)
(0.834175 0.18052 0)
(0.800741 0.184943 0)
(0.879577 0.211715 -1.96744e-19)
(0.822693 0.21436 1.25899e-19)
(0.909131 0.0681411 -1.10167e-19)
(0.900628 0.102173 0)
(0.892811 0.102315 4.91258e-20)
(0.868587 0.0863788 2.0363e-19)
(0.879945 0.0670823 -1.24339e-19)
(1.17158 3.45123 -5.2406e-19)
(1.23358 3.40142 0)
(1.1816 3.44598 -1.14717e-18)
(0.726426 3.59911 1.10946e-18)
(1.0523 3.07258 1.72948e-19)
(0.637541 1.02492 2.10873e-19)
(0.770606 0.864339 0)
(0.481013 0.617677 -6.63398e-20)
(0.482594 0.740261 2.72894e-19)
(0.479251 0.615708 -8.33269e-20)
(0.50738 0.562501 1.00838e-19)
(0.619675 0.516226 1.94101e-19)
(0.675712 0.510176 0)
(0.593853 0.642487 0)
(0.552809 0.612123 0)
(0.954613 0.561642 -3.65979e-20)
(0.852465 0.508294 -1.1158e-19)
(0.850872 0.553172 3.74366e-20)
(0.891285 0.486963 -8.36051e-20)
(0.976145 0.447711 0)
(0.978086 0.526472 -8.18823e-22)
(0.788159 0.381816 -2.67764e-19)
(0.803382 0.367263 -2.98304e-19)
(0.749621 0.385522 2.08988e-19)
(0.736525 0.374957 -2.32172e-19)
(0.803698 0.330925 -1.72858e-19)
(0.749589 0.340326 2.12956e-19)
(1.01434 -0.00217517 -1.0626e-19)
(1.01797 -0.00503047 2.14383e-19)
(1.01588 0.0197765 1.29376e-19)
(1.01144 0.0248543 -1.58831e-19)
(0.995466 0.0252972 0)
(1.01026 -0.00334633 -2.49487e-19)
(0.0489875 1.78608 2.15813e-20)
(0.0311471 1.78857 0)
(0.0903323 1.77173 1.56004e-19)
(0.0943519 1.78261 -1.40393e-19)
(0.0789899 1.79348 4.56702e-20)
(0.0556903 1.79421 0)
(-0.01218 1.76462 0)
(-0.00608488 1.77217 -8.691e-21)
(-0.00532269 1.77857 7.95339e-21)
(-0.00431935 1.77343 2.34033e-21)
(-0.00759021 1.76102 -1.54409e-20)
(-0.00678075 1.7648 8.06404e-21)
(0.146832 2.03803 -3.00616e-19)
(0.189291 1.95329 3.15631e-19)
(0.19813 1.8057 -2.89804e-20)
(0.225686 1.92547 1.43089e-20)
(0.28243 1.35119 0)
(0.266111 1.64663 1.35883e-19)
(0.271254 1.50181 -1.31764e-19)
(0.142181 1.7326 2.76955e-20)
(0.115526 1.69525 0)
(0.0740067 1.53223 0)
(0.396737 1.77391 5.1411e-19)
(0.420981 1.61321 9.0913e-19)
(0.501875 1.679 -6.171e-19)
(0.383814 1.62214 -1.11002e-19)
(0.312818 1.70483 1.84775e-19)
(0.264247 1.63972 -4.56746e-19)
(0.875353 1.78141 -1.65099e-19)
(0.902446 2.02131 0)
(0.907529 1.78249 1.05421e-19)
(0.814722 2.47719 0)
(0.792706 2.37542 0)
(0.860339 2.1933 2.04618e-19)
(1.14188 3.09747 3.75663e-19)
(1.05295 2.88694 -2.59417e-19)
(0.330578 0.979057 0)
(0.481437 0.947618 -1.49764e-19)
(0.729539 0.924663 -5.76796e-20)
(0.520684 1.96567 0)
(0.42071 2.65441 -1.20863e-19)
(0.412393 2.44527 0)
(0.696374 0.68635 -1.57101e-19)
(0.737349 0.659554 2.28478e-19)
(0.749355 0.593787 -2.18661e-19)
(0.645399 0.641288 -2.78866e-20)
(0.688472 0.588443 -1.23618e-19)
(1.10567 2.83283 -2.79566e-19)
(1.06498 2.98425 4.91049e-19)
(0.862674 2.34397 -3.3079e-19)
(1.01901 1.88384 2.24488e-19)
(0.916349 2.46128 8.88568e-19)
(1.10448 2.68111 6.59976e-20)
(0.888472 2.84101 -5.00292e-19)
(1.03161 2.03487 -3.32512e-20)
(0.895839 1.93954 -4.67106e-19)
)
;

boundaryField
{
    wall-4
    {
        type            noSlip;
    }
    velocity-inlet-5
    {
        type            fixedValue;
        value           uniform (1 0 0);
    }
    velocity-inlet-6
    {
        type            fixedValue;
        value           uniform (0 3 0);
    }
    pressure-outlet-7
    {
        type            zeroGradient;
    }
    wall-8
    {
        type            noSlip;
    }
    frontAndBackPlanes
    {
        type            empty;
    }
}

