/*--------------------------------*- C++ -*----------------------------------*\
  =========                 |
  \\      /  F ield         | OpenFOAM: The Open Source CFD Toolbox
   \\    /   O peration     | Website:  https://openfoam.org
    \\  /    A nd           | Version:  6
     \\/     M anipulation  |
\*---------------------------------------------------------------------------*/
FoamFile
{
    version     2.0;
    format      ascii;
    class       volVectorField;
    location    "0";
    object      U_rec;
}
// * * * * * * * * * * * * * * * * * * * * * * * * * * * * * * * * * * * * * //

dimensions      [0 1 -1 0 0 0 0];

internalField   nonuniform List<vector> 
918
(
(0.990989 -0.00119892 0)
(-0.0178264 2.99848 0)
(-0.0017023 1.72825 0)
(0.983756 0.00372933 0)
(-0.0152724 1.68553 5.37541e-17)
(0.010812 2.99232 -1.01471e-17)
(0.984121 1.4491 6.8303e-18)
(0.490913 0.272911 3.34793e-19)
(1.00209 0.000681411 0)
(0.0360825 1.69412 0)
(-0.00331769 1.67775 0)
(0.916518 0.00290052 0)
(-0.00520016 2.9867 0)
(0.00335919 2.88165 0)
(0.00466305 2.93873 2.1487e-17)
(-0.000454813 1.66916 3.27353e-17)
(0.673243 0.152639 -7.75213e-18)
(0.206163 1.94631 -3.20504e-17)
(0.98916 0.0136175 0)
(0.00239061 1.68089 0)
(0.0311938 0.0555127 9.92484e-18)
(0.995151 0.0097391 0)
(1.00617 0.00906934 0)
(1.00788 0.00201214 0)
(0.850263 -0.0153658 0)
(0.00938219 2.90894 0)
(-0.00542708 2.93794 -9.29585e-17)
(-0.00225219 1.73989 0)
(0.00611257 1.76474 0)
(-0.00965066 1.74953 0)
(-0.0108864 1.78941 0)
(-0.00647927 1.70541 5.3296e-17)
(-0.00930585 1.66929 0)
(0.0205376 3.00985 1.18224e-21)
(0.0089571 3.02461 -6.56261e-17)
(0.0200952 3.01649 0)
(0.953363 0.00342154 0)
(0.427272 0.883659 -1.35107e-17)
(0.955364 1.49111 -1.62489e-17)
(1.08647 1.26208 2.86173e-17)
(0.817739 1.67369 8.2725e-18)
(0.842297 1.63521 1.79657e-17)
(0.523106 0.331987 -4.68729e-20)
(0.555786 0.249606 0)
(1.25986 0.655783 0)
(0.448859 0.335553 -3.97652e-19)
(0.440338 0.250402 1.31749e-18)
(0.952043 -0.00129036 0)
(0.996683 0.00218804 0)
(1.00187 0.00238174 0)
(0.991594 0.00475244 0)
(0.98434 0.00700732 0)
(1.00274 0.0108795 0)
(0.0166597 1.57468 8.48331e-18)
(0.0399371 1.78412 0)
(0.0703467 1.73409 0)
(0.0032614 1.75414 0)
(-0.00410932 1.66985 0)
(-0.00687091 1.66502 0)
(-0.006616 1.72125 0)
(-0.00987539 1.67505 0)
(-0.00790667 1.72832 0)
(-0.000461258 1.67862 0)
(0.983738 0.0151482 0)
(0.95125 0.0110582 0)
(0.933209 -0.000914224 0)
(0.939316 0.018982 0)
(0.898301 0.0197216 0)
(-0.0123307 3.04939 1.73017e-17)
(-0.0103659 2.98286 0)
(-0.0289627 3.03783 0)
(0.0186588 3.03844 -1.273e-22)
(-0.00383293 3.01982 4.57032e-17)
(0.0171819 3.01164 0)
(0.00528156 2.95384 0)
(0.00318411 2.9609 -2.87807e-23)
(0.00557175 2.88897 0)
(0.0152585 2.96691 0)
(0.00766532 2.86572 0)
(0.298512 3.25275 0)
(-0.0674398 3.33048 0)
(0.112519 3.00286 2.23604e-18)
(-0.000645038 2.82257 0)
(-0.00179315 1.75322 0)
(-0.00240354 1.71551 3.06778e-17)
(-0.00201409 1.67975 3.29408e-17)
(0.706297 0.17749 -1.56616e-18)
(0.702767 0.109376 4.91622e-18)
(0.686647 0.206136 2.76397e-17)
(0.662588 0.172773 -3.17533e-18)
(0.199989 1.3926 0)
(0.307933 2.01988 -4.45423e-17)
(0.450664 1.95542 -3.0908e-17)
(0.997545 0.00879105 0)
(0.970064 0.0181085 0)
(1.00097 -0.00550429 0)
(1.00208 0.00170775 0)
(1.00514 0.016921 1.67507e-16)
(1.00189 0.0101264 8.65446e-17)
(-0.00229466 1.71972 0)
(0.00165992 1.68197 0)
(0.00186903 1.75378 0)
(-0.013088 1.72766 0)
(-0.00126019 1.69155 0)
(0.0462937 0.265686 -3.9474e-18)
(0.211197 0.198948 0)
(1.00963 -0.00994886 0)
(0.989525 0.00305083 0)
(0.90981 0.0271966 0)
(0.888399 0.0241717 0)
(0.879728 0.00101489 0)
(1.10798 0.00998236 0)
(0.851441 0.0310862 0)
(0.795829 0.0295991 6.45352e-18)
(-0.0243603 2.87945 1.41394e-17)
(0.00516764 2.97361 0)
(-0.0475021 3.01347 0)
(-0.00153278 2.85614 0)
(-0.00575743 2.98391 -3.82333e-17)
(0.000326721 2.92797 0)
(-0.0114693 2.9867 6.35252e-18)
(-0.0146428 2.94753 1.59097e-17)
(0.00698923 1.76444 0)
(0.00386145 1.75802 0)
(0.0072484 1.7141 1.15119e-20)
(-0.00207888 1.71283 0)
(0.00600467 1.66919 0)
(0.980473 0.0078298 0)
(0.96026 0.00785909 0)
(0.944856 -0.00908044 0)
(0.978257 -0.000319904 0)
(0.94958 -0.00836379 0)
(0.481386 1.09292 -9.18557e-19)
(0.595224 1.19106 0)
(0.418001 0.829928 -1.64812e-18)
(0.410273 0.591206 0)
(1.0642 1.29174 1.46339e-17)
(1.16811 1.05293 7.28371e-18)
(0.480981 1.97612 0)
(0.657944 1.84662 0)
(0.670217 1.82107 0)
(0.472851 0.873245 -3.57973e-18)
(0.584512 0.299137 0)
(0.596697 0.234649 -5.42087e-18)
(1.14173 1.09261 0)
(1.20331 0.881773 0)
(1.22248 0.849272 -7.65894e-18)
(1.26954 0.69238 0)
(1.29705 0.500005 -2.70756e-17)
(0.979939 0.00273663 0)
(0.97085 -0.000551907 0)
(0.95016 0.0063455 0)
(0.998742 -0.00269919 0)
(0.979617 -0.00436837 0)
(0.969616 0.00162486 0)
(0.991391 -0.00264086 0)
(0.988517 -0.000848539 0)
(1.00278 -0.0015413 0)
(0.0181888 1.58561 2.55219e-17)
(0.0232261 1.53709 0)
(0.024119 1.628 -7.60785e-18)
(0.0169025 1.62143 7.68002e-18)
(0.141635 1.94787 -4.25139e-17)
(0.0538677 1.8355 0)
(0.10197 1.84235 0)
(-0.00651074 1.74524 0)
(0.0020848 1.66627 0)
(-0.00650792 1.70172 4.75017e-20)
(0.00139811 1.66549 0)
(-0.00023129 1.70562 -2.92021e-17)
(0.00581801 1.67125 -4.52089e-18)
(0.00176078 1.73816 0)
(-0.0071472 1.72788 0)
(0.00102613 1.67173 0)
(0.000263732 1.72897 0)
(0.00484814 1.68349 0)
(1.02081 0.0132071 0)
(0.99648 -0.00488449 0)
(0.998479 0.012629 0)
(0.974347 0.00730986 0)
(0.939199 0.00398683 0)
(0.965016 0.00966802 0)
(0.962819 0.00249289 0)
(0.935977 -0.00199245 0)
(0.00954727 3.04283 1.02812e-19)
(0.0164038 3.03527 0)
(0.0101722 2.99139 0)
(0.00639266 2.93223 0)
(1.00489 3.77925 0)
(1.35149 2.84733 2.23094e-19)
(0.0167763 2.89914 0)
(-0.0175831 2.8118 0)
(0.00324081 1.74883 0)
(-0.000493724 1.74374 0)
(-0.00195592 1.74603 0)
(-0.00928842 1.7791 -7.15486e-17)
(-0.00701187 1.76312 0)
(-0.00242367 1.77098 0)
(0.00868099 1.6724 -6.35002e-17)
(0.00590504 1.7121 -3.33227e-17)
(-0.00810637 1.71284 3.03328e-17)
(-0.00221148 1.67238 0)
(0.738866 0.132623 -2.19649e-17)
(0.722113 0.0662046 -6.35066e-18)
(0.192064 1.39372 0)
(0.262173 1.33404 1.6908e-18)
(0.133897 1.44367 -2.18385e-17)
(0.119192 1.43638 -3.29598e-17)
(0.935077 0.00487752 0)
(0.977492 0.00622087 0)
(0.985273 0.021491 0)
(0.951162 0.0161582 0)
(0.00484976 1.72961 0)
(0.00667537 1.72379 0)
(0.00554491 1.68596 0)
(0.365755 0.338845 -6.0033e-18)
(0.249695 0.321137 6.44124e-18)
(0.350729 0.223295 0)
(1.20244 0.0996288 -1.13623e-18)
(1.20265 0.0502101 0)
(1.10959 0.0544215 0)
(1.04637 0.00620188 0)
(0.760004 0.0993433 0)
(0.787347 0.0847395 5.33478e-17)
(0.749822 0.0562686 -2.85308e-17)
(-0.0128877 2.96123 -3.82116e-17)
(-0.00824055 2.90709 -5.39696e-17)
(0.0080114 3.02902 2.06291e-19)
(0.0368629 3.01441 -3.91945e-17)
(-0.0172775 2.99764 -3.91779e-19)
(-0.0173795 2.97653 1.54256e-21)
(-0.0152816 3.03236 8.51982e-19)
(-0.00401647 2.99261 -1.0545e-17)
(0.0561341 3.02091 -2.28182e-17)
(1.00015 0.00534085 0)
(0.993468 0.0110479 0)
(0.971333 0.00511955 0)
(0.96991 0.00627651 0)
(0.969879 -0.0066482 0)
(0.938036 -0.00546898 0)
(0.969759 0.0023328 0)
(0.968821 -0.003263 0)
(0.940739 -0.00637706 0)
(0.695722 1.39117 7.41925e-18)
(0.812625 1.49036 0)
(0.383911 0.510513 6.9737e-19)
(0.507498 0.777988 -7.75172e-18)
(0.478471 0.753923 -8.83751e-18)
(0.370572 0.472527 -2.28366e-17)
(0.453844 1.09753 -8.54285e-18)
(0.473644 1.04339 1.67243e-17)
(0.663309 0.248022 -1.70081e-17)
(0.61799 0.280828 -4.86844e-18)
(0.627306 0.216655 1.17315e-18)
(1.2989 0.512879 -1.91815e-17)
(1.30354 0.312267 8.52161e-18)
(0.0098062 1.66788 -3.42522e-17)
(0.000612437 1.65088 0)
(1.05765 0.0291284 0)
(1.02652 0.0141108 0)
(1.01564 0.00377022 0)
(0.0136873 3.05018 0)
(0.0124779 2.96719 -4.2873e-17)
(0.0110671 2.98018 0)
(0.00581345 2.91025 -1.19604e-17)
(0.010091 3.06262 1.2019e-17)
(0.0099547 3.05752 0)
(0.789911 1.74549 -4.579e-18)
(1.2095 2.38034 -4.55374e-18)
(0.882074 1.85489 -1.92932e-17)
(-0.0263558 2.92676 3.7788e-17)
(-0.0209157 2.89341 0)
(-0.0268701 2.84444 0)
(-0.0111217 1.70182 6.30498e-17)
(0.00669606 1.69921 3.43621e-18)
(-0.00995751 1.65878 6.29607e-17)
(0.247912 1.34732 -1.8642e-17)
(0.323329 1.30281 -9.02951e-18)
(0.0310901 1.55088 -3.32794e-17)
(0.0755191 1.49987 -2.29796e-17)
(0.0545257 1.49409 -5.68849e-17)
(-0.0273651 3.07549 1.33198e-16)
(-0.0131113 3.0721 7.94426e-17)
(0.00448639 2.98638 1.66001e-17)
(-0.00390385 2.98219 -1.58852e-17)
(0.00294146 2.93248 3.84051e-17)
(0.0157783 3.06965 -6.66257e-17)
(-0.00648203 3.06013 -1.39734e-16)
(0.517984 1.00324 0)
(0.545086 0.877423 4.98112e-18)
(0.449894 0.675719 -2.00747e-17)
(0.419955 1.19505 2.44334e-17)
(0.43194 1.15942 3.07527e-17)
(1.28276 0.207013 -4.67174e-18)
(1.31493 0.356519 0)
(1.283 0.182706 4.32728e-18)
(-0.00515009 1.70133 4.9488e-20)
(-0.00225931 1.6896 0)
(-0.00385294 1.66315 0)
(0.300252 1.31044 2.296e-18)
(0.35779 1.25357 -2.75287e-17)
(0.385621 1.25611 -3.38775e-17)
(1.00302 -0.027309 0)
(1.00014 -0.00917406 5.07593e-18)
(0.00229882 1.76721 0)
(-0.0103333 1.78725 0)
(1.00544 -0.00121607 4.4432e-19)
(1.00777 0.000262155 1.64225e-18)
(-0.00567093 1.7757 -7.08227e-17)
(-0.00346069 1.78163 0)
(-0.0118332 2.9862 1.61445e-17)
(0.339357 3.06186 0)
(1.12486 0.702609 -2.21268e-17)
(1.00113 0.00584779 7.94418e-17)
(1.00159 0.0022824 0)
(1.00896 -0.00503062 3.33449e-19)
(0.0281391 1.86685 0)
(0.0412874 1.65983 0)
(0.00392778 1.794 0)
(0.0237223 1.74255 -7.29663e-17)
(0.00154681 1.74773 6.80811e-17)
(0.986009 0.0210556 7.78649e-17)
(1.03165 0.0119458 0)
(1.05484 0.0337419 0)
(0.00903079 1.75546 0)
(0.0120802 1.75644 0)
(-0.00747182 1.77369 0)
(0.171041 1.93192 -8.21427e-17)
(1.00621 -0.0206559 0)
(1.00342 -0.0245692 0)
(1.00115 0.00141203 -2.80731e-17)
(0.9936 -0.00540441 3.49886e-17)
(1.00074 -0.00460743 0)
(0.00483071 1.7437 0)
(0.00661899 1.76269 0)
(0.00934642 1.74395 0)
(-0.00287891 1.77984 0)
(-0.0151512 1.77271 0)
(-0.00896181 1.7745 0)
(1.01318 0.00226269 0)
(1.00576 0.00737072 7.96037e-17)
(0.74212 1.35584 3.10025e-18)
(1.00154 -0.005212 2.84071e-17)
(0.996438 0.00232552 -3.47537e-17)
(1.00647 0.0046591 0)
(0.996469 0.0107052 2.50148e-17)
(1.00371 0.00607447 5.67897e-17)
(0.998027 0.00245079 0)
(0.0116835 1.76665 0)
(6.23714e-05 1.77079 -3.68805e-17)
(-0.00270509 1.76811 -3.13974e-17)
(1.13466 0.256963 -7.00843e-17)
(1.08604 0.0853095 0)
(-0.210018 2.9819 3.711e-17)
(-0.229 3.18566 1.25938e-18)
(-0.0114508 3.02728 3.02219e-17)
(-0.0256022 2.98457 3.83243e-17)
(0.0604982 2.97107 0)
(-0.0263221 3.0338 9.26847e-18)
(-0.0755914 3.12771 1.19529e-17)
(-0.0726527 3.02047 2.30774e-17)
(-0.0528999 3.10026 0)
(0.646795 0.345792 0)
(0.52521 0.38424 0)
(1.06399 0.798318 1.99767e-17)
(1.04999 0.875408 4.56137e-17)
(1.13661 0.621076 0)
(1.1445 0.577064 0)
(1.00641 0.00203143 2.98979e-17)
(1.00796 0.00186456 -3.44529e-17)
(1.00737 0.00395579 0)
(1.01112 0.00242473 0)
(1.01275 0.003355 0)
(1.01115 0.0140455 0)
(1.01408 -0.00240377 0)
(1.0107 0.0140055 0)
(1.00748 0.0103127 0)
(0.99962 0.006736 0)
(0.0309374 1.85948 0)
(0.00344429 1.85801 0)
(0.0740094 1.88677 0)
(0.0447608 1.90542 0)
(0.0308134 1.63889 0)
(0.0161394 1.63267 3.56895e-17)
(0.0573153 1.66862 0)
(0.0427466 1.66983 2.80427e-17)
(0.0272781 1.69793 -6.18823e-17)
(-0.0032029 1.79801 0)
(0.00520812 1.79314 0)
(0.0108845 1.80392 0)
(0.00167728 1.82454 0)
(0.027158 1.76542 -6.80244e-17)
(-0.0159993 1.73996 -4.75125e-17)
(0.0246812 1.74855 3.23636e-17)
(0.00482277 1.75741 0)
(0.0267954 1.75152 3.32677e-17)
(0.0148018 1.75682 -6.46122e-17)
(-0.00652047 1.77969 -1.09247e-16)
(-0.00670932 1.72988 -4.13331e-17)
(0.0213564 1.74404 3.96475e-17)
(0.990161 0.0213097 -2.31827e-17)
(0.997399 0.0049934 3.09716e-17)
(0.986503 0.0272361 2.72245e-17)
(0.972117 0.0176038 -2.95052e-17)
(1.03099 0.00567631 0)
(1.03619 -6.59898e-05 0)
(1.04512 0.0312994 0)
(1.03275 0.0163528 0)
(1.04779 0.0153977 0)
(1.0743 0.0694736 0)
(1.06238 0.0553845 0)
(1.07959 0.0409866 0)
(-0.00439644 1.77798 9.37236e-18)
(0.0158249 1.74484 0)
(-0.0151073 1.75782 0)
(0.00648509 1.75718 -1.46624e-17)
(0.0111984 1.76133 5.17837e-20)
(0.00770323 1.77209 4.04343e-17)
(-0.00670746 1.75857 4.25129e-17)
(0.00137669 1.76708 0)
(-0.0276773 1.77027 0)
(-0.00612452 1.76378 0)
(0.00194261 1.77725 0)
(-0.0016973 1.78366 0)
(0.295139 1.92434 -4.40329e-17)
(0.31039 1.90636 4.18652e-17)
(0.27225 1.48981 1.09367e-18)
(0.13116 1.55676 2.41732e-17)
(0.205328 1.68512 3.26748e-17)
(1.00119 -0.00880788 0)
(0.998787 -0.0193288 0)
(0.99673 -0.0190337 0)
(1.01966 -0.00464515 0)
(1.00013 -0.0108912 0)
(0.989467 -0.00893731 0)
(0.99763 -0.0149533 0)
(0.994514 -0.00193784 0)
(1.00531 0.00427703 -2.42193e-17)
(1.01233 0.000131173 3.33406e-17)
(1.00507 0.00881406 2.83725e-17)
(1.00249 0.00458321 -3.23079e-17)
(0.680963 1.50266 0)
(0.614801 1.58165 -6.56459e-17)
(0.826049 1.29048 7.15851e-17)
(0.893398 1.2279 5.58556e-17)
(0.893593 2.19431 -3.80603e-17)
(0.823013 0.118099 -2.51402e-17)
(1.0965 0.126383 0)
(1.13921 0.1915 -7.66357e-17)
(1.14755 0.137732 6.2864e-19)
(0.952907 0.125927 0)
(-0.0723172 2.70633 4.09373e-17)
(-0.338778 2.62635 7.86609e-17)
(-0.751619 2.6836 -1.20584e-18)
(-0.574917 0.258622 -7.55157e-18)
(0.24148 3.03947 -1.78196e-17)
(0.0819937 3.00149 0)
(0.170667 3.00622 -2.79804e-18)
(0.041969 2.71773 9.15509e-17)
(0.218374 2.75981 0)
(-0.0194978 3.06337 -9.10716e-19)
(-0.0342005 3.06781 -1.55218e-17)
(-0.00727765 3.1022 -3.72837e-17)
(-0.0286667 3.11255 0)
(-0.0489811 3.05581 0)
(1.10784 2.25172 0)
(0.59332 1.03531 5.08454e-17)
(0.99375 1.04797 -3.64563e-17)
(0.950582 1.15875 0)
(0.805301 1.05937 -1.03809e-17)
(1.03367 0.997856 -5.78629e-17)
(0.185642 0.407041 6.56801e-18)
(0.659545 0.345075 1.1304e-17)
(0.693326 0.316488 7.89697e-18)
(0.473749 0.454347 -2.05015e-19)
(0.442956 0.40339 1.25832e-17)
(0.608835 0.389901 0)
(0.603724 0.472543 3.71874e-18)
(0.616153 0.427359 0)
(0.536847 0.420587 0)
(0.587552 0.370688 0)
(0.721641 0.650557 2.60519e-17)
(1.15685 0.325923 4.76807e-17)
(1.1601 0.458186 0)
(1.18489 0.386602 0)
(0.765502 0.232336 1.23687e-17)
(0.741077 0.626314 3.78849e-17)
(0.635205 0.551444 2.93951e-18)
(0.871588 0.434306 -6.63696e-17)
(1.01031 -0.00369869 1.95392e-17)
(1.00844 0.00642703 5.59109e-17)
(1.01019 0.00330295 0)
(1.01122 0.0128977 0)
(1.00582 0.00254717 -1.92815e-17)
(1.0084 0.00165274 -5.32032e-17)
(1.00361 -0.00273346 0)
(0.995542 0.00197722 0)
(1.01454 0.0055496 0)
(1.01113 -0.000288548 0)
(1.01508 0.00695002 0)
(1.01326 0.00211365 0)
(0.00968592 1.85224 0)
(0.0103816 1.84554 0)
(0.0681817 1.86344 -4.45319e-17)
(0.142726 1.93603 -3.45468e-17)
(0.0846927 1.93642 7.84446e-17)
(0.0751287 1.94282 2.37505e-17)
(0.0900017 1.86447 0)
(0.105934 1.75393 7.23109e-17)
(0.0783653 1.75501 0)
(0.163338 1.68239 3.79235e-17)
(0.165864 1.61229 -4.74286e-17)
(0.110348 1.78308 6.2102e-17)
(0.159374 1.85779 -3.5764e-17)
(0.108931 1.85649 -4.08805e-17)
(0.159785 1.81748 -3.20522e-18)
(0.125154 1.75459 0)
(0.157786 1.73871 -5.35944e-17)
(0.0330023 1.72702 6.80815e-18)
(0.0249407 1.6844 0)
(0.0309299 1.69268 -7.22123e-17)
(0.0260938 1.69464 0)
(0.0436982 1.67363 3.4751e-17)
(0.0260328 1.67825 0)
(0.028586 1.75627 5.34982e-17)
(0.0459465 1.76725 0)
(0.0275524 1.77979 0)
(0.0163387 1.78018 4.66599e-17)
(0.00156739 1.72602 -1.10245e-16)
(0.0326039 1.71517 -6.9565e-17)
(0.00702624 1.72983 -3.70159e-20)
(3.62849e-05 1.74776 7.05829e-17)
(-0.0130628 1.77494 -3.77802e-17)
(0.00361862 1.78757 0)
(-0.00970408 1.79244 0)
(0.0302767 1.76616 2.4558e-17)
(0.0211556 1.7893 2.04283e-17)
(0.0323308 1.77105 6.13751e-17)
(0.0322988 1.76301 0)
(0.00840708 1.74538 9.86508e-17)
(-0.00187447 1.74929 1.46945e-17)
(0.00741822 1.75727 -1.77736e-17)
(0.00566625 1.76514 7.45196e-17)
(0.0181406 1.72794 -3.05357e-18)
(0.00569057 1.73833 -4.45935e-17)
(0.998298 0.00722993 5.46679e-17)
(0.998308 0.00231762 2.01021e-17)
(0.998794 0.00284658 0)
(0.982428 0.0675914 -7.7403e-17)
(0.963386 0.0403633 2.7117e-17)
(0.942613 0.0259558 -2.09872e-17)
(0.979727 0.0989757 3.14192e-18)
(1.02133 0.0107518 0)
(1.02666 0.0136177 -5.36985e-17)
(1.03019 0.00849313 -2.02273e-17)
(1.01834 0.0409361 3.66067e-18)
(1.02057 0.0251631 -1.40105e-17)
(0.99568 0.033415 0)
(0.982913 0.0316726 1.78969e-18)
(0.9965 0.0244048 0)
(0.993368 0.0294045 0)
(1.00437 0.0154321 0)
(1.00011 0.00571039 0)
(0.995178 0.0224137 5.91935e-19)
(0.995462 0.0253459 3.53625e-17)
(1.00864 0.0340225 -2.05537e-18)
(0.986224 0.0233776 1.34239e-17)
(0.992416 0.057707 1.83426e-17)
(1.03457 0.0534732 0)
(1.03496 0.0971355 0)
(0.0191744 1.75677 -4.88079e-17)
(0.0320742 1.73391 -6.93192e-19)
(0.0121306 1.74866 0)
(0.019203 1.7683 -5.17402e-17)
(0.0114003 1.77654 8.24837e-18)
(0.016407 1.76368 -3.53158e-18)
(0.00641417 1.75598 -7.42671e-17)
(0.0137411 1.75232 -5.10561e-20)
(0.0136553 1.74902 -5.24188e-18)
(-0.00158654 1.75224 3.29244e-17)
(0.00246362 1.75895 3.03832e-17)
(0.00960223 1.76161 -2.16922e-17)
(0.00790939 1.76159 -3.75602e-17)
(0.238353 1.81266 2.12229e-17)
(0.21659 1.79545 -1.25469e-17)
(0.557831 1.70496 -8.16032e-17)
(0.413378 1.86286 3.45557e-17)
(0.464395 1.77913 0)
(0.304564 1.47931 -4.64986e-18)
(0.333525 1.44853 -1.86207e-18)
(0.18644 1.53467 -6.93437e-18)
(0.185906 1.56119 -2.59094e-17)
(0.252785 1.56141 -3.10207e-17)
(0.261296 1.51406 0)
(0.192519 1.53307 -9.49515e-18)
(0.0602596 1.60219 -5.36367e-18)
(0.109124 1.57994 5.82112e-17)
(0.0369291 1.58424 1.38731e-17)
(0.70714 1.48977 -3.96538e-17)
(0.522642 1.42479 0)
(1.02325 -0.00265175 -5.43832e-19)
(1.00478 -0.00186117 5.47052e-19)
(1.00967 0.00148153 -2.10314e-18)
(1.02438 0.00385224 -2.00358e-17)
(1.02486 0.00067014 0)
(0.486856 1.33737 0)
(0.4634 1.22599 0)
(0.678502 1.15838 0)
(0.579361 1.0487 0)
(0.888362 2.20595 2.72448e-17)
(0.829389 1.97857 0)
(0.466187 2.23909 -1.09996e-18)
(0.437341 1.86377 0)
(0.485491 1.96663 7.47531e-17)
(0.529851 2.02152 5.96289e-17)
(0.822396 0.150819 0)
(0.807272 0.161997 -2.40884e-18)
(0.891177 0.123832 -7.5107e-19)
(0.832448 0.11548 -2.36873e-17)
(0.834533 0.0928443 9.6761e-18)
(1.00127 0.237565 -1.27293e-17)
(0.885177 0.316647 2.68958e-17)
(0.829143 0.291576 1.57714e-17)
(0.925168 0.225921 4.15815e-18)
(0.900041 0.161333 5.01569e-17)
(0.886214 0.174572 -1.17993e-17)
(0.885525 0.243845 4.9311e-18)
(0.872813 0.210287 0)
(0.943662 0.179195 1.42393e-17)
(0.973021 0.170785 0)
(0.95981 0.238335 0)
(1.04575 0.126303 -1.57285e-17)
(0.990878 0.172641 2.96008e-17)
(0.989332 0.208127 2.21867e-17)
(1.05474 0.211995 0)
(0.997194 0.0305392 -4.22407e-17)
(0.999172 0.033647 1.89316e-17)
(1.00245 0.038184 -1.6954e-17)
(1.01252 0.0547269 4.69408e-17)
(0.988052 0.0637411 -4.26279e-17)
(0.922003 0.119045 0)
(0.938079 0.0752152 0)
(0.933002 0.0534494 4.70573e-17)
(0.910018 0.0583121 6.17671e-18)
(1.00324 0.111935 -4.51491e-17)
(0.999669 0.143201 -1.37871e-17)
(1.00346 0.149879 -1.82012e-17)
(0.984351 0.155346 0)
(1.00647 0.103316 0)
(1.00434 0.0941598 3.81145e-17)
(1.00135 0.0979917 -1.75805e-17)
(0.449255 1.61249 2.20572e-17)
(0.557839 2.16898 -1.62542e-17)
(0.856287 2.47512 2.30457e-17)
(0.99239 2.677 -3.47436e-18)
(0.971348 2.34764 -1.30839e-17)
(1.07333 2.37486 5.78209e-19)
(1.0083 2.00979 7.75866e-18)
(0.992821 2.5816 -9.41912e-18)
(0.974374 2.575 -2.15245e-17)
(1.07507 2.75474 -3.73571e-18)
(1.19764 2.60461 4.83326e-18)
(1.27659 2.50586 0)
(0.574909 1.06342 -2.72893e-18)
(-0.168831 1.37502 -1.68293e-17)
(0.0119948 0.648916 -1.05987e-17)
(-0.130757 0.82671 -2.12381e-17)
(0.365034 0.455133 -1.30432e-17)
(0.379793 0.502766 1.06739e-17)
(0.324774 0.604117 -1.25169e-17)
(0.224472 0.494993 4.77019e-18)
(0.339747 0.398639 -1.21839e-17)
(0.746752 0.269289 2.57761e-17)
(0.70319 0.308768 0)
(0.729252 0.278999 5.79353e-18)
(0.612003 0.556859 -1.39124e-17)
(0.533333 0.532873 2.28484e-17)
(0.428072 0.592132 -5.538e-18)
(0.512663 0.488228 0)
(0.617825 0.883421 -2.67566e-17)
(0.762076 0.866077 3.99609e-17)
(0.703152 1.00221 5.38102e-17)
(0.797507 0.844649 1.4702e-17)
(0.90966 0.911838 -3.23801e-18)
(0.892048 0.934857 -6.19782e-18)
(0.774957 0.721099 1.19029e-17)
(0.837181 0.755263 7.42001e-18)
(0.941935 0.805656 0)
(0.938856 0.708128 2.73229e-17)
(0.938533 0.331214 4.52854e-17)
(1.06744 0.325346 -2.39233e-17)
(0.9851 0.28856 -5.18065e-17)
(0.909235 0.397964 4.9906e-17)
(0.979162 0.449786 0)
(1.01594 0.425075 0)
(0.779128 0.395744 4.74262e-17)
(0.784744 0.299719 0)
(0.789268 0.29556 -1.73425e-17)
(0.817877 0.318449 6.45651e-17)
(0.827767 0.494674 -1.01865e-16)
(0.768346 0.561987 -5.76044e-18)
(0.792365 0.511355 1.26519e-17)
(0.718952 0.465237 -6.76204e-18)
(0.700153 0.482503 -8.60828e-18)
(0.647115 0.462642 2.07171e-18)
(1.01615 0.0182288 -5.25911e-17)
(1.0122 0.000417315 0)
(1.01727 0.0160543 4.8889e-18)
(1.01049 0.0222602 -1.71214e-18)
(1.01206 0.009143 -2.82927e-17)
(1.00719 0.0170303 1.46654e-17)
(0.999762 0.00803739 0)
(1.00344 -0.00539802 1.47721e-17)
(1.0139 0.00526821 -6.92081e-18)
(1.01129 0.00108689 3.47161e-21)
(1.0094 0.00249382 5.98539e-18)
(-0.0063057 1.82165 0)
(0.0117684 1.80462 0)
(0.0191474 1.83372 0)
(-0.000128388 1.83115 0)
(0.0470154 1.82064 -1.1072e-17)
(0.0459997 1.84103 -1.00246e-16)
(0.0523735 1.7733 -2.93344e-17)
(0.0573368 1.84305 -8.29867e-17)
(0.0202829 1.78685 5.74936e-17)
(0.0333949 1.80674 5.54047e-17)
(0.0367789 1.82156 1.13614e-16)
(0.0240338 1.82331 5.75098e-17)
(0.0123548 1.80802 1.00245e-17)
(0.00435253 1.819 1.81825e-18)
(0.0430246 1.69143 -6.22005e-17)
(0.0633618 1.69982 0)
(0.054626 1.71936 -4.00314e-17)
(0.0526248 1.76222 -6.26818e-18)
(0.113404 1.69122 -1.58019e-17)
(0.0809307 1.60125 0)
(0.0808489 1.6004 5.63951e-17)
(0.110188 1.60523 4.28603e-17)
(0.0948779 1.69762 -5.57337e-17)
(0.0812534 1.71303 -7.96448e-17)
(0.0449821 1.62841 0)
(0.0276458 1.75265 3.42044e-17)
(0.0220216 1.72478 -1.66874e-17)
(0.0236237 1.74479 0)
(0.0391966 1.7313 1.99115e-17)
(0.0280489 1.73265 1.47404e-17)
(0.00609356 1.77784 8.68773e-18)
(0.000211152 1.77486 -9.00149e-17)
(-0.00766294 1.77036 -6.39002e-17)
(-0.0167935 1.76776 4.24124e-17)
(0.00141885 1.75217 0)
(0.015943 1.78094 0)
(0.0086921 1.77784 -3.82482e-17)
(0.000262729 1.77021 -3.06675e-18)
(0.00755337 1.77915 0)
(-0.0049627 1.78644 3.03907e-17)
(0.00318297 1.7794 2.81096e-18)
(1.00545 0.0275344 0)
(1.00723 0.0306564 1.07123e-18)
(0.99648 0.0182197 4.78492e-17)
(1.01493 0.0202415 0)
(1.01092 0.0166664 0)
(0.99884 0.000503699 2.02519e-17)
(1.00244 0.008034 -6.11075e-17)
(0.998328 0.00461524 -2.78669e-17)
(1.00046 0.00257855 0)
(1.00829 0.00795762 0)
(0.997364 0.0164575 2.19656e-17)
(0.993995 0.0173685 0)
(1.00328 0.0127107 0)
(-0.00501188 1.75011 0)
(0.00887857 1.76776 -3.91545e-17)
(0.0135593 1.74549 3.99532e-17)
(0.00592167 1.76904 0)
(0.00887401 1.7764 -3.76359e-17)
(0.00149339 1.77307 -1.75749e-17)
(-0.00382162 1.77338 0)
(0.294965 1.81874 0)
(0.186849 1.80888 2.99834e-17)
(0.190743 1.76136 0)
(0.216435 1.78079 6.81876e-17)
(0.293974 1.72945 0)
(0.273346 1.79924 3.64672e-17)
(0.737929 1.89675 -1.26471e-19)
(0.712597 1.51186 -1.78412e-17)
(0.762462 1.51587 -2.88419e-17)
(0.554449 1.43171 -9.25281e-18)
(0.50137 1.66517 0)
(0.543264 1.74887 0)
(0.672623 1.46572 0)
(0.630253 1.403 2.39556e-18)
(0.340137 1.79289 -3.24154e-17)
(0.446195 1.65377 4.61088e-18)
(0.391897 1.83139 1.63052e-18)
(0.39966 1.44397 0)
(0.474958 1.42833 0)
(0.44622 1.42424 2.27478e-18)
(0.439186 1.58602 0)
(0.672456 1.01394 0)
(0.633542 1.01353 -5.30132e-17)
(0.693373 0.953867 -5.22927e-18)
(0.518445 1.11083 0)
(0.644826 1.1963 -7.83071e-17)
(0.726188 1.00941 -7.29317e-18)
(0.750061 1.1093 0)
(0.765031 1.05848 -3.18014e-17)
(0.745707 1.00443 0)
(0.708163 0.998351 0)
(0.797151 2.37713 1.72481e-17)
(0.809875 2.48856 -6.36084e-18)
(0.594951 2.36006 -4.28961e-17)
(0.538992 2.27281 -1.30475e-18)
(0.79161 2.20725 0)
(0.729799 2.17614 -6.54647e-18)
(0.791643 1.99965 -1.51925e-18)
(0.800782 1.80462 -7.2343e-18)
(0.313232 2.01129 0)
(0.299557 1.53285 3.20087e-17)
(0.344073 1.53041 0)
(0.840519 0.203257 0)
(0.799962 0.19568 0)
(0.777335 0.197958 0)
(0.835008 0.244747 -1.38362e-18)
(0.775528 0.227165 1.54211e-18)
(0.91207 0.08517 1.66539e-17)
(0.900595 0.119412 0)
(0.879506 0.0971737 -2.41607e-18)
(0.852155 0.0870638 -1.12484e-17)
(0.867966 0.0617481 -5.57559e-19)
(1.08715 2.87303 -1.84924e-17)
(1.02917 2.79775 0)
(0.988712 2.9154 -5.70813e-17)
(0.647625 3.11994 -2.26261e-17)
(0.799868 2.63209 1.56321e-17)
(0.593612 1.2123 -2.93153e-17)
(0.67947 1.10564 0)
(0.352101 0.853274 7.4867e-18)
(0.354981 0.954619 3.20445e-17)
(0.211921 0.851076 1.09657e-17)
(0.289439 0.647096 3.23227e-18)
(0.49667 0.616406 -1.22694e-17)
(0.548999 0.642725 0)
(0.496634 0.790411 0)
(0.376165 0.76211 0)
(0.931612 0.667848 7.54848e-18)
(0.83347 0.590467 1.26887e-17)
(0.828924 0.627633 -7.87669e-18)
(0.857349 0.534993 2.38868e-17)
(0.959654 0.543241 0)
(0.955499 0.590988 -8.53819e-18)
(0.750476 0.429447 1.72224e-17)
(0.765558 0.385956 3.36287e-17)
(0.688494 0.411839 -9.58364e-18)
(0.687178 0.398697 7.62145e-18)
(0.757685 0.356145 -3.93918e-18)
(0.717085 0.346139 -2.12046e-17)
(1.01438 0.00113152 -2.9945e-17)
(1.01383 -0.00406687 -4.59116e-17)
(1.01959 0.0158136 2.67597e-17)
(1.0137 0.0169967 5.73761e-17)
(0.99935 0.0246897 0)
(0.993229 0.00712096 1.75761e-18)
(0.0538351 1.76694 2.41984e-17)
(0.0518458 1.78109 0)
(0.0486283 1.75967 -4.89339e-17)
(0.0463161 1.75946 -4.9209e-17)
(0.0403218 1.7783 -3.66863e-17)
(0.0424183 1.79177 0)
(0.0265022 1.77337 0)
(0.0111566 1.76768 -1.77819e-17)
(0.00407065 1.7574 -1.90243e-17)
(-0.00329715 1.76796 -4.64574e-17)
(-0.0100172 1.75457 -8.82118e-18)
(0.025871 1.75923 -4.3546e-18)
(0.29097 1.88889 -9.72149e-17)
(0.266105 1.86877 -1.28978e-16)
(0.245008 1.78248 7.64365e-17)
(0.250938 1.86081 -4.97583e-18)
(0.415779 1.45358 0)
(0.333671 1.68555 7.636e-17)
(0.378139 1.55673 5.87974e-17)
(0.241199 1.68869 5.85413e-17)
(0.270716 1.68455 0)
(0.310241 1.51698 0)
(0.33901 1.72687 -5.01794e-17)
(0.347795 1.5421 -6.96618e-17)
(0.395142 1.5833 -4.67282e-17)
(0.316015 1.53996 -1.2631e-18)
(0.277435 1.66978 1.02811e-19)
(0.249993 1.55779 -1.37053e-17)
(0.753603 1.62406 -5.3132e-18)
(0.794148 1.77304 0)
(0.798586 1.63155 9.46403e-18)
(0.758295 2.04632 0)
(0.730138 1.98785 0)
(0.738183 2.02779 2.14318e-18)
(0.964623 2.61665 1.54622e-18)
(0.870325 2.55512 -5.63302e-18)
(0.2327 1.19879 0)
(0.330162 1.19976 -1.17975e-17)
(0.621308 1.14797 -3.01031e-17)
(0.5341 1.87186 0)
(0.459033 2.34959 3.42509e-18)
(0.254156 2.271 0)
(0.649533 0.831734 -5.67725e-18)
(0.674502 0.813589 -5.62202e-17)
(0.686768 0.759974 -1.04865e-17)
(0.53809 0.796477 -7.44531e-19)
(0.591843 0.699314 5.35067e-18)
(0.902959 2.42139 -1.30647e-17)
(0.92325 2.47102 -1.6126e-18)
(0.817027 2.0761 1.29905e-18)
(0.818267 1.84301 3.25607e-17)
(0.764771 2.04521 4.3948e-17)
(0.883875 2.26383 -2.69242e-17)
(0.786522 2.34834 -2.39414e-17)
(0.844639 1.86958 2.28347e-19)
(0.740645 1.7828 2.75717e-17)
)
;

boundaryField
{
    wall-4
    {
        type            calculated;
        value           uniform (0 0 0);
    }
    velocity-inlet-5
    {
        type            calculated;
        value           uniform (1 0 0);
    }
    velocity-inlet-6
    {
        type            calculated;
        value           uniform (0 3 0);
    }
    pressure-outlet-7
    {
        type            calculated;
        value           nonuniform List<vector> 8((-0.00220793 1.7283 0) (-0.0153376 1.68525 5.37541e-17) (0.00620697 1.7652 0) (-0.00993696 1.78952 0) (-0.00171445 1.75288 0) (0.00427784 1.75778 0) (-0.00189361 1.74571 0) (-0.00236807 1.77084 0));
    }
    wall-8
    {
        type            calculated;
        value           uniform (0 0 0);
    }
    frontAndBackPlanes
    {
        type            empty;
    }
}

