/*--------------------------------*- C++ -*----------------------------------*\
  =========                 |
  \\      /  F ield         | OpenFOAM: The Open Source CFD Toolbox
   \\    /   O peration     | Website:  https://openfoam.org
    \\  /    A nd           | Version:  6
     \\/     M anipulation  |
\*---------------------------------------------------------------------------*/
FoamFile
{
    version     2.0;
    format      ascii;
    class       surfaceScalarField;
    location    "0.019";
    object      phi;
}
// * * * * * * * * * * * * * * * * * * * * * * * * * * * * * * * * * * * * * //

dimensions      [0 3 -1 0 0 0 0];

internalField   nonuniform List<scalar> 
44700
(
-1.7584e-07
-3.18188e-08
-3.42831e-08
-1.12745e-07
-3.55016e-08
-2.75933e-08
-5.12846e-08
-3.87138e-08
-2.27464e-08
5.8544e-09
-3.80807e-08
-1.90582e-08
5.60857e-08
-3.38838e-08
-1.63475e-08
9.83564e-08
-2.80472e-08
-1.42235e-08
1.32884e-07
-2.22534e-08
-1.22736e-08
1.60574e-07
-1.74125e-08
-1.02779e-08
1.82555e-07
-1.37607e-08
-8.21995e-09
1.99959e-07
-1.1167e-08
-6.2371e-09
2.13809e-07
-9.39924e-09
-4.45098e-09
2.25022e-07
-8.26396e-09
-2.94963e-09
2.34463e-07
-7.637e-09
-1.80322e-09
2.42891e-07
-7.41263e-09
-1.01563e-09
2.50843e-07
-7.44191e-09
-5.10187e-10
2.58636e-07
-7.61152e-09
-1.81277e-10
2.66483e-07
-7.95832e-09
1.11124e-10
2.74705e-07
-8.67326e-09
4.5096e-10
2.83734e-07
-9.86434e-09
8.35284e-10
2.94021e-07
-1.14758e-08
1.18916e-09
3.05924e-07
-1.33738e-08
1.47054e-09
3.19656e-07
-1.54759e-08
1.74458e-09
3.35354e-07
-1.78008e-08
2.10235e-09
3.53261e-07
-2.0466e-08
2.55869e-09
3.73806e-07
-2.36073e-08
3.06292e-09
3.97549e-07
-2.72637e-08
3.51989e-09
4.25124e-07
-3.14038e-08
3.82974e-09
4.57152e-07
-3.60715e-08
4.04334e-09
4.9414e-07
-4.14462e-08
4.45814e-09
5.36582e-07
-4.77716e-08
5.32983e-09
5.85315e-07
-5.52682e-08
6.53527e-09
6.41652e-07
-6.41503e-08
7.81348e-09
7.07204e-07
-7.47019e-08
9.14941e-09
7.83767e-07
-8.72794e-08
1.07169e-08
8.7341e-07
-1.02309e-07
1.26663e-08
9.78682e-07
-1.20347e-07
1.50747e-08
1.10281e-06
-1.42149e-07
1.80249e-08
1.24988e-06
-1.68752e-07
2.16759e-08
1.42518e-06
-2.01578e-07
2.62847e-08
1.63554e-06
-2.42605e-07
3.2236e-08
1.89007e-06
-2.94654e-07
4.01234e-08
2.20102e-06
-3.61823e-07
5.08773e-08
2.5849e-06
-4.50079e-07
6.62031e-08
3.06336e-06
-5.68004e-07
8.95425e-08
3.66512e-06
-7.27722e-07
1.25963e-07
4.4295e-06
-9.47084e-07
1.82702e-07
5.40759e-06
-1.25197e-06
2.73882e-07
6.65424e-06
-1.68402e-06
4.37374e-07
8.2318e-06
-2.33106e-06
7.53494e-07
-3.59013e-06
1.35166e-06
1.04703e-05
1.7556e-06
-3.53796e-08
-8.00497e-08
1.83165e-06
-3.98108e-08
-7.17469e-08
1.90817e-06
-4.61847e-08
-6.90426e-08
1.97891e-06
-4.86453e-08
-6.01755e-08
2.03751e-06
-4.6094e-08
-4.63959e-08
2.08331e-06
-4.01773e-08
-3.36668e-08
2.1186e-06
-3.30162e-08
-2.4528e-08
2.14618e-06
-2.62061e-08
-1.8789e-08
2.16816e-06
-2.06899e-08
-1.50434e-08
2.18578e-06
-1.68366e-08
-1.19598e-08
2.19987e-06
-1.4579e-08
-8.90954e-09
2.21117e-06
-1.36144e-08
-5.94966e-09
2.22069e-06
-1.36036e-08
-3.54541e-09
2.22958e-06
-1.43034e-08
-2.00691e-09
2.23865e-06
-1.55755e-08
-9.36076e-10
2.2479e-06
-1.72604e-08
4.06662e-10
2.25693e-06
-1.91484e-08
2.15135e-09
2.26608e-06
-2.11599e-08
3.34349e-09
2.2762e-06
-2.34631e-08
3.4776e-09
2.28801e-06
-2.63447e-08
3.06146e-09
2.30187e-06
-2.99703e-08
2.735e-09
2.31793e-06
-3.43756e-08
2.83577e-09
2.33626e-06
-3.95886e-08
3.45687e-09
2.35711e-06
-4.57328e-08
4.4187e-09
2.38101e-06
-5.29457e-08
5.4356e-09
2.4086e-06
-6.12472e-08
6.40121e-09
2.44048e-06
-7.06086e-08
7.32037e-09
2.4774e-06
-8.11375e-08
8.14914e-09
2.52006e-06
-9.3198e-08
9.08836e-09
2.56894e-06
-1.07368e-07
1.07127e-08
2.62469e-06
-1.24176e-07
1.31629e-08
2.68867e-06
-1.43917e-07
1.57819e-08
2.76283e-06
-1.66936e-07
1.8074e-08
2.84914e-06
-1.93946e-07
2.03587e-08
2.94951e-06
-2.25952e-07
2.32749e-08
3.06609e-06
-2.64097e-07
2.7168e-08
3.20153e-06
-3.09701e-07
3.21185e-08
3.35897e-06
-3.64425e-07
3.82295e-08
3.54209e-06
-4.30431e-07
4.57371e-08
3.75497e-06
-5.10471e-07
5.49823e-08
4.00208e-06
-6.08236e-07
6.64784e-08
4.2879e-06
-7.28574e-07
8.09288e-08
4.61622e-06
-8.77699e-07
9.93009e-08
4.98992e-06
-1.06367e-06
1.21962e-07
5.40936e-06
-1.29716e-06
1.5e-07
5.87259e-06
-1.59516e-06
1.84844e-07
6.36943e-06
-1.97831e-06
2.295e-07
6.86652e-06
-2.47642e-06
2.95313e-07
7.25779e-06
-3.13011e-06
4.07792e-07
-3.99628e-06
5.93315e-07
7.07063e-06
3.46601e-06
-2.62048e-08
-9.03602e-08
3.53845e-06
-2.96343e-08
-8.26179e-08
3.61402e-06
-3.53175e-08
-8.64319e-08
3.68475e-06
-3.90639e-08
-8.03131e-08
3.74265e-06
-3.90414e-08
-6.49489e-08
3.7858e-06
-3.58416e-08
-4.74875e-08
3.81645e-06
-3.09711e-08
-3.27004e-08
3.83808e-06
-2.58479e-08
-2.19836e-08
3.85382e-06
-2.14666e-08
-1.49657e-08
3.86594e-06
-1.83598e-08
-1.05961e-08
3.87572e-06
-1.66921e-08
-7.66555e-09
3.88373e-06
-1.63824e-08
-5.24576e-09
3.89046e-06
-1.71796e-08
-3.14758e-09
3.89663e-06
-1.87963e-08
-1.68466e-09
3.90322e-06
-2.10616e-08
-1.09988e-09
3.9108e-06
-2.39683e-08
-8.72688e-10
3.91912e-06
-2.75593e-08
8.79288e-11
3.92752e-06
-3.17232e-08
2.17058e-09
3.93593e-06
-3.62362e-08
4.35844e-09
3.94522e-06
-4.10299e-08
5.39336e-09
3.95628e-06
-4.62499e-08
5.21709e-09
3.9694e-06
-5.21824e-08
4.69087e-09
3.98449e-06
-5.91753e-08
4.49428e-09
4.00162e-06
-6.75834e-08
4.71908e-09
4.02104e-06
-7.75893e-08
5.22966e-09
4.04296e-06
-8.92701e-08
6.09806e-09
4.06784e-06
-1.02834e-07
7.35043e-09
4.09642e-06
-1.18534e-07
8.81742e-09
4.12949e-06
-1.36609e-07
1.03397e-08
4.16763e-06
-1.57444e-07
1.19318e-08
4.21131e-06
-1.81614e-07
1.37569e-08
4.26106e-06
-2.09685e-07
1.60238e-08
4.31758e-06
-2.42261e-07
1.88028e-08
4.38184e-06
-2.80207e-07
2.19986e-08
4.45494e-06
-3.24597e-07
2.55492e-08
4.53797e-06
-3.76641e-07
2.95135e-08
4.63194e-06
-4.37711e-07
3.40441e-08
4.7376e-06
-5.09416e-07
3.93318e-08
4.85521e-06
-5.9364e-07
4.55933e-08
4.98475e-06
-6.92977e-07
5.29644e-08
5.12543e-06
-8.10334e-07
6.14204e-08
5.27525e-06
-9.49152e-07
7.07553e-08
5.43043e-06
-1.114e-06
8.11276e-08
5.58506e-06
-1.31067e-06
9.23639e-08
5.72889e-06
-1.54613e-06
1.05138e-07
5.84081e-06
-1.82809e-06
1.21015e-07
5.88457e-06
-2.16783e-06
1.45759e-07
5.80904e-06
-2.57546e-06
1.74566e-07
5.53468e-06
-3.05583e-06
2.00074e-07
-3.60562e-06
1.92075e-07
4.95194e-06
4.40161e-06
-1.35212e-08
-9.95543e-08
4.47843e-06
-1.54337e-08
-9.10201e-08
4.55923e-06
-1.88442e-08
-9.72652e-08
4.63521e-06
-2.16516e-08
-9.34013e-08
4.69632e-06
-2.27814e-08
-7.73636e-08
4.73963e-06
-2.23114e-08
-5.68466e-08
4.7676e-06
-2.08698e-08
-3.80656e-08
4.78459e-06
-1.91342e-08
-2.37062e-08
4.79487e-06
-1.76376e-08
-1.41041e-08
4.80159e-06
-1.67377e-08
-8.35042e-09
4.80661e-06
-1.66334e-08
-5.07113e-09
4.81072e-06
-1.73709e-08
-3.12215e-09
4.81434e-06
-1.88647e-08
-1.93717e-09
4.81782e-06
-2.10085e-08
-1.2709e-09
4.82144e-06
-2.37518e-08
-9.23754e-10
4.82542e-06
-2.71361e-08
-8.16382e-10
4.82999e-06
-3.12753e-08
-8.50416e-10
4.83528e-06
-3.6262e-08
-7.56256e-10
4.84127e-06
-4.21171e-08
-1.03504e-10
4.84778e-06
-4.87954e-08
1.25018e-09
4.85484e-06
-5.61709e-08
2.86238e-09
4.86281e-06
-6.41824e-08
4.0324e-09
4.87207e-06
-7.30001e-08
4.56783e-09
4.88287e-06
-8.29708e-08
4.57802e-09
4.89531e-06
-9.43841e-08
4.35876e-09
4.90923e-06
-1.07538e-07
4.3533e-09
4.92467e-06
-1.22881e-07
4.60313e-09
4.94199e-06
-1.40869e-07
5.0148e-09
4.96146e-06
-1.61884e-07
5.80405e-09
4.98337e-06
-1.86142e-07
6.78596e-09
5.00816e-06
-2.1396e-07
7.55928e-09
5.03577e-06
-2.46115e-07
8.81768e-09
5.06578e-06
-2.83528e-07
1.12559e-08
5.09821e-06
-3.26822e-07
1.41885e-08
5.13351e-06
-3.76532e-07
1.66324e-08
5.17199e-06
-4.33565e-07
1.84463e-08
5.21346e-06
-4.99209e-07
2.00295e-08
5.25734e-06
-5.74956e-07
2.16589e-08
5.30277e-06
-6.62453e-07
2.33828e-08
5.348e-06
-7.634e-07
2.51985e-08
5.39008e-06
-8.79759e-07
2.73353e-08
5.42432e-06
-1.01382e-06
3.04249e-08
5.44415e-06
-1.16789e-06
3.4065e-08
5.43943e-06
-1.34438e-06
3.8427e-08
5.3965e-06
-1.54673e-06
4.35264e-08
5.29604e-06
-1.77544e-06
4.78013e-08
5.11342e-06
-2.03252e-06
4.7314e-08
4.81186e-06
-2.31778e-06
4.38818e-08
4.35219e-06
-2.62646e-06
3.02951e-08
-2.9469e-06
4.88521e-10
3.69299e-06
4.78908e-06
-2.38792e-10
-1.03949e-07
4.86906e-06
-6.92851e-10
-9.47248e-08
4.95348e-06
-1.38404e-09
-1.01879e-07
5.03317e-06
-2.2445e-09
-9.90927e-08
5.09707e-06
-3.49143e-09
-8.31972e-08
5.14147e-06
-5.23297e-09
-6.14701e-08
5.16872e-06
-7.29422e-09
-4.08278e-08
5.18362e-06
-9.37463e-09
-2.46648e-08
5.19097e-06
-1.12898e-08
-1.36928e-08
5.19444e-06
-1.30541e-08
-7.15399e-09
5.19628e-06
-1.4813e-08
-3.65886e-09
5.19754e-06
-1.67297e-08
-1.90528e-09
5.19864e-06
-1.89243e-08
-1.03808e-09
5.19973e-06
-2.14836e-08
-6.13206e-10
5.20086e-06
-2.44742e-08
-4.08387e-10
5.20204e-06
-2.79682e-08
-3.48625e-10
5.20325e-06
-3.20593e-08
-4.24745e-10
5.20444e-06
-3.68621e-08
-5.88724e-10
5.20566e-06
-4.2461e-08
-8.78082e-10
5.20727e-06
-4.89046e-08
-1.50711e-09
5.20971e-06
-5.63057e-08
-2.29947e-09
5.21308e-06
-6.49489e-08
-2.60867e-09
5.21709e-06
-7.51059e-08
-1.89806e-09
5.22117e-06
-8.67499e-08
-3.01623e-10
5.2249e-06
-9.96373e-08
1.52062e-09
5.22829e-06
-1.1376e-07
2.83341e-09
5.23172e-06
-1.29505e-07
3.19693e-09
5.23565e-06
-1.47454e-07
2.65416e-09
5.24014e-06
-1.68253e-07
1.87139e-09
5.2451e-06
-1.9246e-07
1.36111e-09
5.25056e-06
-2.2057e-07
1.1569e-09
5.25607e-06
-2.53097e-07
1.4707e-09
5.26083e-06
-2.90541e-07
2.24877e-09
5.26428e-06
-3.33444e-07
3.17748e-09
5.26609e-06
-3.82371e-07
4.02087e-09
5.26593e-06
-4.38016e-07
4.61113e-09
5.2631e-06
-5.01278e-07
4.89882e-09
5.25633e-06
-5.73158e-07
4.97211e-09
5.24372e-06
-6.54761e-07
4.92121e-09
5.22247e-06
-7.46885e-07
4.7355e-09
5.18891e-06
-8.50517e-07
4.31798e-09
5.13837e-06
-9.6647e-07
3.19048e-09
5.06422e-06
-1.09536e-06
1.62144e-09
4.95783e-06
-1.23734e-06
-6.41801e-10
4.80736e-06
-1.3919e-06
-4.36297e-09
4.59887e-06
-1.55723e-06
-9.72089e-09
4.31394e-06
-1.7301e-06
-1.74834e-08
3.93161e-06
-1.90519e-06
-3.02582e-08
3.43127e-06
-2.07479e-06
-5.13389e-08
-2.22973e-06
-8.70951e-08
2.80119e-06
4.78689e-06
1.30086e-08
-1.03999e-07
4.86695e-06
1.40539e-08
-9.4813e-08
4.95128e-06
1.61453e-08
-1.01853e-07
5.0306e-06
1.73247e-08
-9.88947e-08
5.09399e-06
1.61244e-08
-8.30062e-08
5.13783e-06
1.23821e-08
-6.14539e-08
5.16458e-06
7.04597e-09
-4.1087e-08
5.17894e-06
1.39454e-09
-2.51311e-08
5.18555e-06
-3.6754e-09
-1.42198e-08
5.18799e-06
-7.86201e-09
-7.63029e-09
5.1885e-06
-1.12854e-08
-4.0456e-09
5.18823e-06
-1.42322e-08
-2.22377e-09
5.18763e-06
-1.69916e-08
-1.33508e-09
5.18687e-06
-1.97949e-08
-9.27729e-10
5.18597e-06
-2.28117e-08
-7.65777e-10
5.18492e-06
-2.61688e-08
-7.40728e-10
5.18364e-06
-2.99755e-08
-8.12834e-10
5.18208e-06
-3.43339e-08
-9.66564e-10
5.18014e-06
-3.93363e-08
-1.17845e-09
5.17775e-06
-4.51029e-08
-1.41613e-09
5.17488e-06
-5.18362e-08
-1.59938e-09
5.17153e-06
-5.97892e-08
-1.80774e-09
5.1678e-06
-6.90719e-08
-2.30352e-09
5.16362e-06
-7.9614e-08
-2.95222e-09
5.15864e-06
-9.13726e-08
-3.28615e-09
5.15262e-06
-1.04575e-07
-3.16512e-09
5.14557e-06
-1.19568e-07
-2.89536e-09
5.13763e-06
-1.36632e-07
-2.88004e-09
5.12851e-06
-1.56155e-07
-2.97766e-09
5.11778e-06
-1.78705e-07
-3.01924e-09
5.10523e-06
-2.04742e-07
-3.27979e-09
5.09023e-06
-2.34439e-07
-3.65614e-09
5.07175e-06
-2.67912e-07
-4.15466e-09
5.04891e-06
-3.05738e-07
-4.86683e-09
5.0209e-06
-3.4868e-07
-5.67272e-09
4.98684e-06
-3.97299e-07
-6.66216e-09
4.94576e-06
-4.52035e-07
-8.15885e-09
4.89629e-06
-5.13369e-07
-1.03233e-08
4.83643e-06
-5.81814e-07
-1.30838e-08
4.76365e-06
-6.57797e-07
-1.63109e-08
4.67472e-06
-7.41599e-07
-1.9983e-08
4.56561e-06
-8.33212e-07
-2.41556e-08
4.43141e-06
-9.32173e-07
-2.89788e-08
4.26601e-06
-1.03734e-06
-3.46037e-08
4.06187e-06
-1.14657e-06
-4.11793e-08
3.80977e-06
-1.25628e-06
-4.8857e-08
3.49832e-06
-1.3609e-06
-5.77568e-08
3.11447e-06
-1.4528e-06
-6.85335e-08
2.6451e-06
-1.52332e-06
-8.21082e-08
-1.56579e-06
-1.02173e-07
2.08333e-06
4.39484e-06
2.53441e-08
-9.92638e-08
4.4718e-06
2.80262e-08
-9.09271e-08
4.55224e-06
3.24802e-08
-9.678e-08
4.62713e-06
3.46904e-08
-9.22503e-08
4.68654e-06
3.2697e-08
-7.59815e-08
4.72813e-06
2.71137e-08
-5.63246e-08
4.75472e-06
1.96605e-08
-3.9206e-08
4.77034e-06
1.19757e-08
-2.61973e-08
4.77857e-06
5.08777e-09
-1.69931e-08
4.78221e-06
-6.21813e-10
-1.08804e-08
4.78317e-06
-5.21745e-09
-7.03088e-09
4.78258e-06
-8.97134e-09
-4.67512e-09
4.78105e-06
-1.21942e-08
-3.25974e-09
4.77885e-06
-1.51561e-08
-2.43694e-09
4.77609e-06
-1.80701e-08
-1.98614e-09
4.77279e-06
-2.11015e-08
-1.77117e-09
4.76892e-06
-2.43831e-08
-1.71627e-09
4.76439e-06
-2.80269e-08
-1.78263e-09
4.75915e-06
-3.21324e-08
-1.95869e-09
4.75311e-06
-3.68038e-08
-2.26316e-09
4.74616e-06
-4.21629e-08
-2.71832e-09
4.73817e-06
-4.8318e-08
-3.4868e-09
4.72911e-06
-5.53787e-08
-4.62932e-09
4.7186e-06
-6.35818e-08
-5.52527e-09
4.70601e-06
-7.32129e-08
-5.56968e-09
4.69104e-06
-8.44557e-08
-5.14913e-09
4.67385e-06
-9.73411e-08
-5.03129e-09
4.65449e-06
-1.11879e-07
-5.39882e-09
4.63244e-06
-1.28226e-07
-5.87954e-09
4.60706e-06
-1.46599e-07
-6.72224e-09
4.57795e-06
-1.67216e-07
-8.42291e-09
4.54423e-06
-1.90407e-07
-1.03047e-08
4.50464e-06
-2.16515e-07
-1.18116e-08
4.45834e-06
-2.45946e-07
-1.34926e-08
4.40459e-06
-2.7917e-07
-1.57546e-08
4.34233e-06
-3.16547e-07
-1.84964e-08
4.27031e-06
-3.58303e-07
-2.17053e-08
4.18706e-06
-4.04636e-07
-2.54844e-08
4.09084e-06
-4.55746e-07
-2.98562e-08
3.97961e-06
-5.1176e-07
-3.48061e-08
3.85097e-06
-5.72623e-07
-4.03303e-08
3.70218e-06
-6.37983e-07
-4.64373e-08
3.5301e-06
-7.07048e-07
-5.30479e-08
3.33113e-06
-7.78382e-07
-5.99985e-08
3.10103e-06
-8.49613e-07
-6.68591e-08
2.83488e-06
-9.17035e-07
-7.30864e-08
2.52673e-06
-9.75034e-07
-7.77156e-08
2.17053e-06
-1.0167e-06
-7.98946e-08
1.76267e-06
-1.03836e-06
-7.70985e-08
-1.04113e-06
-6.89242e-08
1.30694e-06
3.45498e-06
3.41053e-08
-8.9926e-08
3.52754e-06
3.79134e-08
-8.24426e-08
3.60253e-06
4.30716e-08
-8.55815e-08
3.67157e-06
4.42004e-08
-7.8551e-08
3.72704e-06
4.05321e-08
-6.33073e-08
3.76758e-06
3.37543e-08
-4.71758e-08
3.79578e-06
2.58273e-08
-3.43704e-08
3.81464e-06
1.80976e-08
-2.49821e-08
3.82658e-06
1.12724e-08
-1.81214e-08
3.8335e-06
5.58466e-09
-1.31313e-08
3.83685e-06
9.70746e-10
-9.5369e-09
3.83764e-06
-2.77315e-09
-6.98322e-09
3.83655e-06
-5.88488e-09
-5.22116e-09
3.83403e-06
-8.58289e-09
-4.05568e-09
3.83034e-06
-1.10528e-08
-3.32342e-09
3.82559e-06
-1.34493e-08
-2.90064e-09
3.81981e-06
-1.58991e-08
-2.70284e-09
3.81296e-06
-1.85064e-08
-2.67639e-09
3.80498e-06
-2.13596e-08
-2.79076e-09
3.79575e-06
-2.45389e-08
-3.03335e-09
3.78511e-06
-2.81221e-08
-3.40128e-09
3.7729e-06
-3.21845e-08
-3.92417e-09
3.75897e-06
-3.68325e-08
-4.62009e-09
3.74299e-06
-4.22487e-08
-5.35183e-09
3.72443e-06
-4.86077e-08
-6.04002e-09
3.70283e-06
-5.6017e-08
-6.84229e-09
3.67793e-06
-6.45446e-08
-7.89912e-09
3.64942e-06
-7.42302e-08
-9.13295e-09
3.61669e-06
-8.51084e-08
-1.0387e-08
3.5791e-06
-9.72094e-08
-1.18014e-08
3.53606e-06
-1.10607e-07
-1.35711e-08
3.48663e-06
-1.25541e-07
-1.54353e-08
3.42972e-06
-1.42288e-07
-1.73143e-08
3.36451e-06
-1.61063e-07
-1.96802e-08
3.29022e-06
-1.82078e-07
-2.27997e-08
3.20571e-06
-2.05529e-07
-2.65106e-08
3.10963e-06
-2.31544e-07
-3.06744e-08
3.0005e-06
-2.60187e-07
-3.53257e-08
2.87678e-06
-2.9148e-07
-4.05396e-08
2.73674e-06
-3.25372e-07
-4.63519e-08
2.5785e-06
-3.61677e-07
-5.27061e-08
2.39994e-06
-3.9999e-07
-5.94342e-08
2.19861e-06
-4.39558e-07
-6.61594e-08
1.9716e-06
-4.79085e-07
-7.22823e-08
1.71529e-06
-5.16495e-07
-7.68122e-08
1.42555e-06
-5.4867e-07
-7.86268e-08
1.09972e-06
-5.72202e-07
-7.69971e-08
7.45798e-07
-5.89928e-07
-7.28579e-08
3.98195e-07
-6.29351e-07
-6.1409e-08
-7.3535e-07
-3.26597e-08
1.25071e-07
1.73793e-06
3.06947e-08
-7.88548e-08
1.8127e-06
3.40909e-08
-7.09399e-08
1.88722e-06
3.6823e-08
-6.82789e-08
1.95537e-06
3.588e-08
-5.98277e-08
2.01134e-06
3.16739e-08
-4.7109e-08
2.05489e-06
2.59184e-08
-3.57134e-08
2.08786e-06
1.99286e-08
-2.7074e-08
2.11209e-06
1.44454e-08
-2.05735e-08
2.12916e-06
9.79767e-09
-1.56008e-08
2.1405e-06
6.03565e-09
-1.17881e-08
2.1473e-06
3.06112e-09
-8.89192e-09
2.15055e-06
7.24639e-10
-6.74239e-09
2.151e-06
-1.13403e-09
-5.20895e-09
2.14925e-06
-2.67476e-09
-4.14965e-09
2.14565e-06
-4.02125e-09
-3.43504e-09
2.14045e-06
-5.26189e-09
-2.98425e-09
2.13375e-06
-6.46551e-09
-2.73929e-09
2.12559e-06
-7.68903e-09
-2.65828e-09
2.11593e-06
-8.97958e-09
-2.71303e-09
2.10465e-06
-1.03775e-08
-2.88839e-09
2.09163e-06
-1.19188e-08
-3.1791e-09
2.07668e-06
-1.36367e-08
-3.59938e-09
2.0596e-06
-1.5573e-08
-4.17841e-09
2.04005e-06
-1.779e-08
-4.90587e-09
2.01752e-06
-2.035e-08
-5.7316e-09
1.99147e-06
-2.33139e-08
-6.65398e-09
1.96151e-06
-2.67544e-08
-7.82812e-09
1.92721e-06
-3.07243e-08
-9.20523e-09
1.88778e-06
-3.51871e-08
-1.04964e-08
1.84241e-06
-4.00847e-08
-1.17534e-08
1.79042e-06
-4.54344e-08
-1.31822e-08
1.731e-06
-5.13259e-08
-1.4789e-08
1.66325e-06
-5.78378e-08
-1.67063e-08
1.58641e-06
-6.50111e-08
-1.92083e-08
1.49958e-06
-7.28822e-08
-2.23686e-08
1.40164e-06
-8.14888e-08
-2.61029e-08
1.29128e-06
-9.08417e-08
-3.03393e-08
1.16705e-06
-1.00902e-07
-3.50506e-08
1.02735e-06
-1.11559e-07
-4.02275e-08
8.70402e-07
-1.22591e-07
-4.58296e-08
6.94019e-07
-1.33574e-07
-5.17194e-08
4.9539e-07
-1.43736e-07
-5.76255e-08
2.70651e-07
-1.51725e-07
-6.30937e-08
1.46049e-08
-1.55304e-07
-6.77352e-08
-2.78469e-07
-1.51497e-07
-7.19247e-08
-6.10491e-07
-1.38211e-07
-7.84382e-08
-9.70546e-07
-1.18324e-07
-9.38231e-08
-1.32576e-06
-1.10707e-07
-1.24004e-07
-1.61305e-06
-1.89839e-07
-1.52229e-07
-5.62826e-07
-1.05377e-07
-1.6802e-06
-1.95052e-07
-3.39399e-08
-1.33326e-07
-2.7635e-08
-7.34613e-08
-2.30419e-08
-1.82288e-08
-1.93525e-08
2.99138e-08
-1.64687e-08
7.00703e-08
-1.42381e-08
1.02315e-07
-1.23164e-08
1.2719e-07
-1.04294e-08
1.4555e-07
-8.56202e-09
1.5843e-07
-6.84393e-09
1.66861e-07
-5.37074e-09
1.71752e-07
-4.1663e-09
1.73834e-07
-3.21576e-09
1.73662e-07
-2.5024e-09
1.71645e-07
-2.00413e-09
1.68053e-07
-1.67074e-09
1.63053e-07
-1.46474e-09
1.56722e-07
-1.35815e-09
1.49072e-07
-1.33024e-09
1.40062e-07
-1.36705e-09
1.29603e-07
-1.46004e-09
1.17574e-07
-1.60725e-09
1.03809e-07
-1.80815e-09
8.80646e-08
-2.04564e-09
7.00211e-08
-2.30654e-09
4.93743e-08
-2.6671e-09
2.58652e-08
-3.24526e-09
-9.08891e-10
-3.95022e-09
-3.15526e-08
-4.54342e-09
-6.66976e-08
-4.93976e-09
-1.06917e-07
-5.21458e-09
-1.52728e-07
-5.51538e-09
-2.0459e-07
-5.97577e-09
-2.62967e-07
-6.63384e-09
-3.28415e-07
-7.43427e-09
-4.01589e-07
-8.315e-09
-4.83188e-07
-9.24309e-09
-5.73891e-07
-1.01988e-08
-6.7428e-07
-1.11698e-08
-7.84755e-07
-1.21166e-08
-9.05424e-07
-1.29049e-08
-1.0359e-06
-1.32651e-08
-1.17479e-06
-1.2832e-08
-1.31901e-06
-1.10825e-08
-1.46321e-06
-7.29858e-09
-1.5999e-06
-1.51936e-09
-1.72448e-06
6.26149e-09
-1.87128e-06
3.60896e-08
-2.23126e-06
1.70144e-07
4.45203e-07
-3.23929e-06
2.72827e-07
-7.15338e-08
-6.03347e-08
3.77404e-07
-7.56904e-08
-5.64801e-08
4.87028e-07
-8.21625e-08
-5.02077e-08
5.91302e-07
-8.15051e-08
-4.1827e-08
6.82686e-07
-7.32543e-08
-3.44769e-08
7.58434e-07
-6.09552e-08
-2.90171e-08
8.19156e-07
-4.82493e-08
-2.47462e-08
8.67045e-07
-3.73403e-08
-2.08259e-08
9.04629e-07
-2.89813e-08
-1.68231e-08
9.34253e-07
-2.30332e-08
-1.28281e-08
9.57902e-07
-1.90179e-08
-9.0816e-09
9.7726e-07
-1.64701e-08
-5.838e-09
9.93843e-07
-1.50651e-08
-3.32069e-09
1.00893e-06
-1.45543e-08
-1.54968e-09
1.02338e-06
-1.46006e-08
-3.56982e-10
1.03766e-06
-1.48737e-08
4.14106e-10
1.0521e-06
-1.53002e-08
9.66727e-10
1.06733e-06
-1.626e-08
1.4846e-09
1.08422e-06
-1.813e-08
2.07792e-09
1.10367e-06
-2.09678e-08
2.69735e-09
1.12638e-06
-2.45003e-08
3.26834e-09
1.15269e-06
-2.84584e-08
3.89012e-09
1.18287e-06
-3.27951e-08
4.71507e-09
1.21741e-06
-3.77268e-08
5.74483e-09
1.25718e-06
-4.35773e-08
6.8719e-09
1.30327e-06
-5.04885e-08
7.919e-09
1.35676e-06
-5.83643e-08
8.70661e-09
1.41861e-06
-6.71454e-08
9.33784e-09
1.48975e-06
-7.70663e-08
1.03805e-08
1.57135e-06
-8.86346e-08
1.23635e-08
1.66521e-06
-1.02391e-07
1.50695e-08
1.77387e-06
-1.18761e-07
1.7918e-08
1.90035e-06
-1.3819e-07
2.08543e-08
2.04804e-06
-1.61296e-07
2.43261e-08
2.22082e-06
-1.88862e-07
2.87488e-08
2.42343e-06
-2.21861e-07
3.43277e-08
2.66177e-06
-2.61567e-07
4.12531e-08
2.94324e-06
-3.09692e-07
4.98953e-08
3.27723e-06
-3.68576e-07
6.08734e-08
3.67578e-06
-4.41451e-07
7.51343e-08
4.15461e-06
-5.32845e-07
9.41416e-08
4.73458e-06
-6.49254e-07
1.20159e-07
5.44407e-06
-8.00051e-07
1.56767e-07
6.32268e-06
-9.9914e-07
2.10071e-07
7.4217e-06
-1.26594e-06
2.92876e-07
8.80837e-06
-1.62853e-06
4.24569e-07
1.05734e-05
-2.12769e-06
6.36509e-07
1.28412e-05
-2.82078e-06
9.9038e-07
1.5804e-05
-3.81028e-06
1.60098e-06
-5.70237e-06
2.62115e-06
2.02369e-05
6.46464e-06
-8.26717e-08
-1.4139e-07
6.55235e-06
-8.86282e-08
-1.46528e-07
6.65356e-06
-1.02177e-07
-1.50234e-07
6.75503e-06
-1.09146e-07
-1.34005e-07
6.84444e-06
-1.05362e-07
-1.03696e-07
6.91668e-06
-9.32449e-08
-7.36191e-08
6.97325e-06
-7.73353e-08
-5.20114e-08
7.01774e-06
-6.14283e-08
-3.91951e-08
7.05329e-06
-4.79566e-08
-3.16112e-08
7.082e-06
-3.80245e-08
-2.56792e-08
7.10528e-06
-3.16835e-08
-1.95236e-08
7.12434e-06
-2.83901e-08
-1.30917e-08
7.14072e-06
-2.74125e-08
-7.58329e-09
7.1563e-06
-2.81122e-08
-4.0226e-09
7.17258e-06
-3.00675e-08
-1.74821e-09
7.19007e-06
-3.29063e-08
9.49417e-10
7.20831e-06
-3.61676e-08
4.77446e-09
7.22735e-06
-3.96363e-08
7.67808e-09
7.24817e-06
-4.34891e-08
8.02182e-09
7.27181e-06
-4.82454e-08
6.69407e-09
7.29898e-06
-5.43158e-08
5.38529e-09
7.33016e-06
-6.18997e-08
5.09232e-09
7.36578e-06
-7.10508e-08
6.09334e-09
7.4065e-06
-8.19859e-08
7.9549e-09
7.45342e-06
-9.50264e-08
9.9649e-09
7.50779e-06
-1.10263e-07
1.18087e-08
7.57079e-06
-1.27583e-07
1.35391e-08
7.64358e-06
-1.46961e-07
1.51779e-08
7.72734e-06
-1.68811e-07
1.70718e-08
7.82326e-06
-1.94197e-07
2.03503e-08
7.93303e-06
-2.24339e-07
2.53458e-08
8.05938e-06
-2.59875e-07
3.05411e-08
8.20588e-06
-3.01288e-07
3.46801e-08
8.37623e-06
-3.49773e-07
3.84825e-08
8.57427e-06
-4.07183e-07
4.35523e-08
8.80438e-06
-4.7557e-07
5.0773e-08
9.07181e-06
-5.57174e-07
6.0289e-08
9.38284e-06
-6.54742e-07
7.2256e-08
9.74471e-06
-7.71858e-07
8.71486e-08
1.01657e-05
-9.13218e-07
1.05772e-07
1.06549e-05
-1.08501e-06
1.29415e-07
1.12219e-05
-1.29533e-06
1.60022e-07
1.1875e-05
-1.55427e-06
2.00451e-07
1.26187e-05
-1.87541e-06
2.54456e-07
1.34533e-05
-2.27613e-06
3.25623e-07
1.43706e-05
-2.78018e-06
4.19224e-07
1.53429e-05
-3.41776e-06
5.47241e-07
1.63329e-05
-4.23897e-06
7.23501e-07
1.72786e-05
-5.3121e-06
9.63904e-07
-6.73807e-06
1.3825e-06
1.75251e-05
1.15585e-05
-5.8845e-08
-1.59303e-07
1.16197e-05
-6.25463e-08
-1.69826e-07
1.16951e-05
-7.37769e-08
-1.90255e-07
1.17713e-05
-8.34668e-08
-1.82256e-07
1.18385e-05
-8.60856e-08
-1.514e-07
1.18908e-05
-8.12814e-08
-1.11737e-07
1.19289e-05
-7.16131e-08
-7.6509e-08
1.19563e-05
-6.01803e-08
-5.06471e-08
1.19768e-05
-4.94963e-08
-3.39519e-08
1.19933e-05
-4.11034e-08
-2.40346e-08
1.20074e-05
-3.56672e-08
-1.77598e-08
1.20196e-05
-3.32565e-08
-1.25299e-08
1.20302e-05
-3.34294e-08
-7.73554e-09
1.20401e-05
-3.54712e-08
-4.22328e-09
1.20505e-05
-3.89146e-08
-2.70614e-09
1.20627e-05
-4.36508e-08
-2.29445e-09
1.2077e-05
-4.9812e-08
-6.23374e-10
1.20932e-05
-5.72979e-08
3.65053e-09
1.21109e-05
-6.55127e-08
8.69336e-09
1.21307e-05
-7.40479e-08
1.13827e-08
1.21537e-05
-8.30809e-08
1.09825e-08
1.21804e-05
-9.31314e-08
9.29677e-09
1.22105e-05
-1.04789e-07
8.07484e-09
1.22444e-05
-1.18849e-07
7.7187e-09
1.22824e-05
-1.35926e-07
8.14855e-09
1.23248e-05
-1.5626e-07
9.64232e-09
1.23727e-05
-1.80197e-07
1.21264e-08
1.24276e-05
-2.08089e-07
1.50315e-08
1.24915e-05
-2.40222e-07
1.78172e-08
1.25659e-05
-2.7714e-07
2.04567e-08
1.26517e-05
-3.19814e-07
2.34621e-08
1.27497e-05
-3.69274e-07
2.73981e-08
1.28614e-05
-4.26598e-07
3.24198e-08
1.29887e-05
-4.93391e-07
3.82993e-08
1.31339e-05
-5.71623e-07
4.47878e-08
1.32994e-05
-6.63406e-07
5.19209e-08
1.34872e-05
-7.71086e-07
6.00695e-08
1.36996e-05
-8.97465e-07
6.97411e-08
1.39378e-05
-1.04593e-06
8.14393e-08
1.42026e-05
-1.22065e-06
9.56074e-08
1.44927e-05
-1.42649e-06
1.12808e-07
1.48033e-05
-1.6691e-06
1.33906e-07
1.51268e-05
-1.95635e-06
1.59661e-07
1.54518e-05
-2.29746e-06
1.89455e-07
1.576e-05
-2.70364e-06
2.24482e-07
1.60249e-05
-3.18897e-06
2.64899e-07
1.62094e-05
-3.77199e-06
3.15456e-07
1.62361e-05
-4.47376e-06
3.82616e-07
1.59432e-05
-5.31297e-06
4.93923e-07
-6.31431e-06
5.89397e-07
1.51221e-05
1.43237e-05
-2.97559e-08
-1.73045e-07
1.43857e-05
-3.14375e-08
-1.8412e-07
1.44632e-05
-3.75447e-08
-2.10971e-07
1.45399e-05
-4.39673e-08
-2.09616e-07
1.46046e-05
-4.75785e-08
-1.8059e-07
1.46507e-05
-4.76807e-08
-1.36505e-07
1.4679e-05
-4.51863e-08
-9.27627e-08
1.46944e-05
-4.14569e-08
-5.78494e-08
1.47025e-05
-3.76865e-08
-3.40253e-08
1.47076e-05
-3.47331e-08
-1.98157e-08
1.4712e-05
-3.3167e-08
-1.19821e-08
1.47164e-05
-3.32771e-08
-7.50166e-09
1.47208e-05
-3.49819e-08
-4.82148e-09
1.47256e-05
-3.80215e-08
-3.46002e-09
1.47308e-05
-4.22581e-08
-2.75389e-09
1.47365e-05
-4.76674e-08
-2.57899e-09
1.4743e-05
-5.45026e-08
-2.62343e-09
1.47504e-05
-6.31102e-08
-2.3801e-09
1.47595e-05
-7.35616e-08
-1.10337e-09
1.47707e-05
-8.56256e-08
1.57157e-09
1.47843e-05
-9.89143e-08
5.09126e-09
1.48004e-05
-1.13077e-07
7.87029e-09
1.48195e-05
-1.28247e-07
8.98674e-09
1.48418e-05
-1.45204e-07
8.64441e-09
1.48671e-05
-1.64718e-07
7.84352e-09
1.48949e-05
-1.87308e-07
7.61e-09
1.49251e-05
-2.13733e-07
7.89426e-09
1.49583e-05
-2.44799e-07
8.51893e-09
1.49954e-05
-2.81353e-07
9.82033e-09
1.50377e-05
-3.2379e-07
1.11875e-08
1.50858e-05
-3.72394e-07
1.19885e-08
1.51397e-05
-4.28452e-07
1.41072e-08
1.5199e-05
-4.93855e-07
1.92494e-08
1.5264e-05
-5.70034e-07
2.58445e-08
1.53355e-05
-6.57886e-07
3.14249e-08
1.54138e-05
-7.58739e-07
3.54444e-08
1.54986e-05
-8.74744e-07
3.88464e-08
1.55888e-05
-1.00858e-06
4.25582e-08
1.56825e-05
-1.16317e-06
4.69929e-08
1.57765e-05
-1.34168e-06
5.2208e-08
1.58669e-05
-1.54764e-06
5.80662e-08
1.59493e-05
-1.78532e-06
6.42826e-08
1.60152e-05
-2.05924e-06
7.10712e-08
1.60491e-05
-2.37384e-06
8.09029e-08
1.60283e-05
-2.73448e-06
9.51651e-08
1.59191e-05
-3.14558e-06
1.13604e-07
1.56727e-05
-3.61292e-06
1.34609e-07
1.52215e-05
-4.13539e-06
1.56726e-07
1.44876e-05
-4.7086e-06
1.5978e-07
-5.3183e-06
1.32798e-07
1.33593e-05
1.54734e-05
-5.8544e-11
-1.79352e-07
1.55379e-05
-4.99859e-10
-1.9023e-07
1.56195e-05
-1.38546e-09
-2.19578e-07
1.56998e-05
-2.41525e-09
-2.20993e-07
1.57671e-05
-3.99717e-09
-1.94027e-07
1.58132e-05
-6.75858e-09
-1.4849e-07
1.58388e-05
-1.07084e-08
-1.00913e-07
1.58495e-05
-1.51508e-08
-6.16666e-08
1.58516e-05
-1.93287e-08
-3.41958e-08
1.58503e-05
-2.29353e-08
-1.76153e-08
1.58484e-05
-2.61622e-08
-8.82437e-09
1.58472e-05
-2.94076e-08
-4.54744e-09
1.58467e-05
-3.30048e-08
-2.53816e-09
1.58469e-05
-3.71963e-08
-1.62922e-09
1.58477e-05
-4.2147e-08
-1.24082e-09
1.58488e-05
-4.79829e-08
-1.1621e-09
1.58501e-05
-5.4848e-08
-1.37923e-09
1.58512e-05
-6.2992e-08
-1.79823e-09
1.58518e-05
-7.2675e-08
-2.35759e-09
1.58521e-05
-8.40657e-08
-3.42013e-09
1.5853e-05
-9.71797e-08
-4.94867e-09
1.58556e-05
-1.12321e-07
-5.92464e-09
1.58608e-05
-1.30081e-07
-5.23056e-09
1.58684e-05
-1.50719e-07
-2.41786e-09
1.5877e-05
-1.73713e-07
1.92162e-09
1.58853e-05
-1.98655e-07
5.8315e-09
1.58934e-05
-2.26008e-07
7.41399e-09
1.59016e-05
-2.56775e-07
6.41375e-09
1.59101e-05
-2.92395e-07
4.41363e-09
1.59191e-05
-3.34157e-07
2.79148e-09
1.59292e-05
-3.8304e-07
1.67869e-09
1.59404e-05
-4.40135e-07
1.89622e-09
1.59511e-05
-5.06303e-07
3.99842e-09
1.59598e-05
-5.82447e-07
6.96888e-09
1.59659e-05
-6.69516e-07
9.51915e-09
1.59692e-05
-7.6868e-07
1.11873e-08
1.59689e-05
-8.81578e-07
1.20761e-08
1.5963e-05
-1.01019e-06
1.24786e-08
1.59486e-05
-1.1566e-06
1.27297e-08
1.59214e-05
-1.32279e-06
1.30686e-08
1.58751e-05
-1.51074e-06
1.3728e-08
1.58009e-05
-1.72252e-06
1.46355e-08
1.56869e-05
-1.95945e-06
1.57426e-08
1.55188e-05
-2.22259e-06
1.62437e-08
1.52764e-05
-2.51175e-06
1.5302e-08
1.49332e-05
-2.82505e-06
1.29567e-08
1.44525e-05
-3.15769e-06
8.01368e-09
1.37896e-05
-3.50049e-06
-2.30442e-09
1.28922e-05
-3.83896e-06
-2.35362e-08
-4.1533e-06
-6.81699e-08
1.17083e-05
1.54711e-05
2.94564e-08
-1.79453e-07
1.55359e-05
3.02661e-08
-1.90385e-07
1.56175e-05
3.46502e-08
-2.19549e-07
1.56977e-05
3.90793e-08
-2.20601e-07
1.57647e-05
3.9672e-08
-1.93603e-07
1.58101e-05
3.45151e-08
-1.48195e-07
1.58349e-05
2.45404e-08
-1.01069e-07
1.58444e-05
1.25081e-08
-6.23211e-08
1.58449e-05
1.05955e-09
-3.5082e-08
1.58412e-05
-8.46944e-09
-1.84494e-08
1.58365e-05
-1.60116e-08
-9.47478e-09
1.5832e-05
-2.21353e-08
-5.01237e-09
1.58281e-05
-2.75233e-08
-2.89665e-09
1.58247e-05
-3.27429e-08
-1.95727e-09
1.58216e-05
-3.81993e-08
-1.60096e-09
1.58186e-05
-4.41672e-08
-1.55353e-09
1.58155e-05
-5.08551e-08
-1.72263e-09
1.58121e-05
-5.84724e-08
-2.08757e-09
1.5808e-05
-6.71867e-08
-2.63077e-09
1.5803e-05
-7.71631e-08
-3.24146e-09
1.57965e-05
-8.86983e-08
-3.65543e-09
1.57888e-05
-1.02372e-07
-4.0602e-09
1.57801e-05
-1.18709e-07
-4.9616e-09
1.57702e-05
-1.37771e-07
-5.94135e-09
1.57583e-05
-1.59148e-07
-6.01078e-09
1.57446e-05
-1.82819e-07
-5.28459e-09
1.57297e-05
-2.09322e-07
-4.65247e-09
1.57139e-05
-2.3919e-07
-4.72811e-09
1.56967e-05
-2.73219e-07
-4.95442e-09
1.56771e-05
-3.12662e-07
-4.87351e-09
1.56548e-05
-3.58635e-07
-5.33814e-09
1.56287e-05
-4.11763e-07
-6.01097e-09
1.55966e-05
-4.72015e-07
-6.2571e-09
1.55558e-05
-5.40064e-07
-6.51546e-09
1.55051e-05
-6.17387e-07
-7.10106e-09
1.54432e-05
-7.05301e-07
-8.12135e-09
1.53684e-05
-8.04821e-07
-1.0088e-08
1.52781e-05
-9.16973e-07
-1.33154e-08
1.51689e-05
-1.04289e-06
-1.75485e-08
1.50359e-05
-1.18369e-06
-2.23981e-08
1.48731e-05
-1.3403e-06
-2.76599e-08
1.46731e-05
-1.51324e-06
-3.33887e-08
1.44266e-05
-1.7023e-06
-3.96378e-08
1.41222e-05
-1.90618e-06
-4.66458e-08
1.37457e-05
-2.12183e-06
-5.46091e-08
1.32791e-05
-2.34357e-06
-6.37354e-08
1.26993e-05
-2.56176e-06
-7.38778e-08
1.19776e-05
-2.76148e-06
-8.58217e-08
1.10794e-05
-2.92241e-06
-1.00427e-07
-3.02277e-06
-1.23956e-07
9.97063e-06
1.4316e-05
5.75837e-08
-1.72431e-07
1.43785e-05
6.05039e-08
-1.83715e-07
1.44562e-05
6.99722e-08
-2.09771e-07
1.45325e-05