/*--------------------------------*- C++ -*----------------------------------*\
  =========                 |
  \\      /  F ield         | OpenFOAM: The Open Source CFD Toolbox
   \\    /   O peration     | Website:  https://openfoam.org
    \\  /    A nd           | Version:  6
     \\/     M anipulation  |
\*---------------------------------------------------------------------------*/
FoamFile
{
    version     2.0;
    format      ascii;
    class       volVectorField;
    location    "./ITHACAoutput/Offline/1";
    object      U;
}
// * * * * * * * * * * * * * * * * * * * * * * * * * * * * * * * * * * * * * //

dimensions      [0 1 -1 0 0 0 0];

internalField   nonuniform List<vector> 
13046
(
(-0.0132892 0.390949 0)
(0.227797 0.58536 -7.94811e-20)
(0.00699183 0.542612 -1.67912e-19)
(0.244251 0.348937 0)
(0.188993 0.500968 -1.57999e-19)
(0.0293642 0.689647 0)
(0.168368 0.311764 2.4872e-20)
(-0.0856725 0.709061 3.95049e-20)
(0.173187 0.48731 -1.72696e-19)
(0.0768447 -0.111671 1.18451e-19)
(-0.532828 0.274881 0)
(0.0873429 -0.43249 1.13574e-19)
(-0.123039 0.313613 -8.07254e-20)
(-0.116181 0.663996 -1.24909e-19)
(0.0488153 0.428259 9.17814e-20)
(-0.0514643 0.11091 -1.4814e-19)
(-0.00439151 -0.344297 2.6221e-19)
(-0.536684 0.265926 7.26264e-20)
(0.211739 0.455813 0)
(0.00828561 0.66908 -8.3366e-20)
(0.541561 0.431052 2.49502e-19)
(-0.0398719 0.0594392 -6.48801e-20)
(0.00604236 -0.347533 -3.51594e-19)
(-0.534535 0.276753 0)
(0.1519 0.388689 1.01615e-19)
(0.276282 0.624738 -1.92228e-19)
(0.119253 0.567749 0)
(-0.141333 0.354724 -1.53576e-19)
(-0.0750376 0.623819 3.6581e-20)
(-0.0108405 0.424102 -1.60918e-19)
(-0.0368497 0.407672 0)
(0.263578 0.548682 0)
(-0.0488409 0.522722 1.70986e-19)
(0.242003 0.417392 -1.18047e-19)
(0.170354 0.579576 5.79457e-20)
(0.332706 0.596103 3.35803e-19)
(0.318316 0.437147 -1.78093e-19)
(0.22852 0.563915 8.92485e-20)
(0.308028 0.601597 -1.71543e-19)
(-0.0326853 0.472404 1.35109e-19)
(-0.281043 0.576048 3.02556e-20)
(0.725287 0.305111 -1.24741e-19)
(0.384206 0.516791 7.96839e-20)
(0.336941 0.537917 1.35456e-19)
(0.310938 0.585976 0)
(0.439172 0.465706 5.09832e-20)
(0.291014 0.499879 -2.07775e-19)
(0.214856 0.633306 -2.53937e-20)
(-0.0296508 0.351102 0)
(0.108349 0.637835 -5.64359e-21)
(0.0433607 0.521902 4.61695e-23)
(-0.334082 0.539205 1.84319e-19)
(0.0329401 0.48659 0)
(0.805751 0.100225 -1.60825e-19)
(-0.310365 0.594154 -2.62686e-19)
(0.667256 0.0616167 -2.64834e-19)
(0.0373779 0.457227 2.11919e-19)
(-0.0559847 0.200892 -3.16856e-20)
(-0.213863 0.550565 0)
(-0.119729 -0.0287376 1.38474e-19)
(-0.139952 0.149418 -8.00729e-20)
(-0.369578 0.770717 7.13657e-20)
(0.131499 0.228051 -4.0628e-19)
(0.0584901 -0.146156 2.08312e-19)
(-0.419325 0.532173 -4.96912e-20)
(-0.161741 0.110087 -1.60659e-19)
(-0.198691 0.586667 0)
(0.14193 0.14348 0)
(-0.159822 -0.00718796 0)
(-0.171717 0.59069 -6.63587e-20)
(0.225094 0.165928 0)
(-0.177302 0.0537937 1.08406e-19)
(-0.134906 0.167296 0)
(-0.211342 0.532829 8.1334e-22)
(-0.0903273 -0.11389 9.21046e-22)
(0.15163 0.44817 0)
(-0.0470164 0.680442 8.93561e-20)
(0.561546 0.430477 -1.77458e-19)
(-0.0640425 -0.156104 1.54447e-19)
(-0.218941 0.432671 -2.28232e-19)
(-0.330814 0.235921 0)
(0.141204 0.353653 5.44438e-20)
(0.168175 0.647916 0)
(0.12747 0.535148 0)
(0.048247 -0.222823 -1.8717e-19)
(-0.438298 0.484576 -3.95069e-20)
(-0.125609 0.0651148 9.6532e-20)
(-0.151097 -0.0128073 -1.68365e-19)
(0.164315 -0.11696 0)
(-0.279135 0.641559 -3.66047e-20)
(0.241922 -0.172472 0)
(-0.094296 -0.104952 0)
(-0.134417 0.625747 4.74537e-21)
(-0.190226 0.274477 0)
(-0.204461 0.245222 8.19123e-20)
(-0.346842 0.636968 1.47804e-19)
(-0.380046 0.640743 -6.91033e-20)
(0.0125105 0.173717 -8.46343e-20)
(0.0341628 0.126115 2.16989e-19)
(0.181954 -0.0781946 -1.09789e-20)
(-0.163983 -0.0203333 1.64442e-19)
(-0.254306 0.659884 0)
(0.433697 0.430599 5.69491e-22)
(0.266612 0.493206 1.10063e-19)
(0.152635 0.667008 0)
(0.072691 0.420725 0)
(0.511504 0.106201 -8.08375e-20)
(-0.366711 0.698274 0)
(-0.0029325 0.477669 2.31422e-19)
(-0.353451 0.600666 0)
(0.79005 0.157293 -2.97275e-19)
(0.292699 -0.278056 0)
(0.0846294 -0.500452 0)
(-0.651954 0.0326722 -6.45655e-20)
(-0.0447115 0.324074 2.22567e-19)
(-0.0511513 0.671403 5.20295e-20)
(0.0607021 0.456739 1.70872e-19)
(-0.208745 0.323407 1.02598e-19)
(-0.203096 0.32474 -1.91309e-19)
(-0.352883 0.524638 -1.2726e-19)
(-0.0286921 0.0689191 9.56448e-20)
(-0.312799 0.569284 7.86531e-20)
(-0.0299299 0.149417 -8.93631e-20)
(0.127911 -0.149115 -1.06458e-19)
(-0.582132 0.198856 -8.51309e-20)
(0.0763359 -0.46863 -5.05367e-20)
(-0.183382 0.337176 0)
(-0.236678 0.617404 -9.84633e-20)
(-0.00124941 0.300878 1.96419e-19)
(-0.0582254 0.470985 0)
(-0.249213 0.541583 -1.51775e-19)
(0.651479 0.354423 8.35362e-21)
(0.216792 -0.0898971 0)
(-0.127707 -0.0903022 0)
(-0.119188 0.671938 0)
(-0.195749 0.151178 0)
(-0.385099 0.66027 -1.90555e-19)
(0.0858186 0.0200966 -2.37093e-19)
(-0.0819328 0.401967 0)
(0.202608 0.554634 0)
(-0.0597817 0.483976 0)
(0.107507 0.212194 0)
(-0.33888 0.770389 0)
(0.141874 0.381908 0)
(0.0222448 0.470583 0)
(-0.359768 0.607855 0)
(0.767224 0.126118 1.60384e-19)
(0.0686491 0.422385 -2.34242e-20)
(0.523049 0.171523 -1.68048e-19)
(-0.356119 0.71802 1.64492e-19)
(-0.174008 0.142329 2.01983e-19)
(-0.373599 0.75462 0)
(0.125899 0.192946 5.30151e-19)
(0.133287 0.438978 0)
(0.423073 0.275223 1.77739e-19)
(-0.290581 0.738013 -4.28333e-20)
(-0.270014 0.680777 0)
(0.323485 0.0235067 1.91889e-19)
(-0.257414 0.71372 0)
(0.142066 0.0105972 1.12653e-19)
(0.101914 0.365683 0)
(0.124436 0.305221 0)
(0.250808 0.17482 2.30407e-20)
(-0.381515 0.745155 8.87984e-20)
(0.118562 0.372202 -1.02506e-19)
(0.0630008 -0.131356 -1.21761e-19)
(0.103192 -0.417886 0)
(-0.50839 0.304231 -9.99474e-20)
(0.257169 -0.238287 -9.93034e-20)
(0.0770067 -0.520803 -2.32344e-20)
(-0.628199 0.0941522 0)
(-0.200882 0.148761 -1.28296e-19)
(-0.401602 0.613496 0)
(0.0617735 -0.0125599 2.69607e-19)
(-0.0819631 0.527058 0)
(0.664349 0.258737 4.1427e-20)
(-0.277482 0.415025 8.68269e-20)
(0.394671 0.185939 1.52599e-19)
(0.114854 0.39223 4.93846e-20)
(-0.378638 0.73538 0)
(0.14826 -0.351827 0)
(-0.357735 0.434025 0)
(0.00540039 -0.122983 1.05099e-19)
(-0.0561433 0.512321 0)
(0.711162 0.275734 -8.73397e-20)
(-0.289613 0.468495 2.28839e-20)
(0.115569 0.423439 0)
(0.44062 0.21918 0)
(-0.329886 0.735127 0)
(0.15617 0.225903 7.48512e-20)
(-0.308792 0.765347 0)
(0.148306 0.401725 0)
(-0.252543 0.702495 -7.52918e-24)
(0.0801556 0.373181 -1.15094e-19)
(-0.157442 0.324761 2.42691e-19)
(-0.209046 0.645914 0)
(0.0162853 0.334696 -2.46045e-19)
(-0.10415 -0.0044811 -1.7364e-19)
(0.128606 -0.211014 1.72565e-19)
(-0.358406 0.559861 -1.82642e-19)
(0.209206 -0.0300526 1.64233e-19)
(-0.151194 -0.0489813 9.86402e-20)
(-0.179633 0.697349 1.74368e-19)
(-0.0861725 -0.104178 -2.94857e-19)
(-0.210023 0.620797 0)
(0.214326 -0.204647 -1.6167e-19)
(-0.264741 0.445274 -9.34351e-21)
(0.890989 0.018973 7.39242e-20)
(0.0284656 0.518133 0)
(0.0179803 0.26506 -3.44133e-19)
(-0.22996 0.470268 1.13244e-19)
(-0.090667 -0.159831 -9.39096e-20)
(-0.272773 0.178352 0)
(-0.246969 0.558137 0)
(-0.0643239 -0.106889 -2.79582e-19)
(0.22463 -0.259836 0)
(0.353879 0.408316 -2.59915e-19)
(0.245167 0.525252 -8.76157e-20)
(0.188976 0.653589 2.52024e-19)
(-0.124751 0.394412 0)
(0.0461278 0.577909 -5.33592e-21)
(-0.0514126 0.443816 -9.29933e-20)
(0.211568 -0.0262762 1.27296e-19)
(-0.149512 -0.0620046 0)
(-0.146539 0.690463 -2.00841e-19)
(-0.0318778 0.262544 2.77426e-19)
(-0.275899 0.728206 2.23264e-19)
(0.101606 0.380181 0)
(0.113151 -0.499051 0)
(-0.523582 0.195055 9.00174e-20)
(0.181905 -0.222973 0)
(0.0471595 0.473751 0)
(0.791981 -0.00944571 0)
(-0.262173 0.487625 0)
(-0.140299 -0.0566327 2.59102e-19)
(-0.214183 0.654871 0)
(0.197624 -0.120055 -2.54299e-22)
(0.180385 0.0748118 7.06586e-20)
(-0.349094 0.732709 -6.69324e-20)
(0.121669 0.349512 0)
(-0.179006 0.378915 0)
(-0.179438 0.57921 9.20173e-20)
(-0.0381615 0.295787 1.52318e-19)
(-0.0974867 0.695917 -2.3908e-19)
(-0.060173 -0.0658003 -1.72218e-19)
(0.184288 0.117347 1.03028e-19)
(0.0794942 -0.0214717 0)
(-0.204491 0.707973 -9.36663e-20)
(0.137673 0.258383 -3.67209e-21)
(0.119996 -0.519833 -1.55723e-19)
(-0.512749 0.168596 0)
(0.198721 -0.261573 -1.24073e-19)
(-0.0251115 0.514302 1.25771e-19)
(-0.329625 0.519471 -1.07379e-19)
(0.831021 0.177819 1.31945e-20)
(0.316146 -0.267221 1.12281e-19)
(0.025891 -0.46179 -2.15707e-19)
(-0.738999 -0.033729 0)
(0.220687 0.457745 -5.20912e-20)
(0.498461 0.396787 -2.00784e-19)
(0.00487787 0.693583 2.47863e-19)
(0.0250899 0.11063 8.83703e-20)
(0.145174 0.118011 7.11015e-22)
(-0.369423 0.769127 -1.65015e-19)
(-0.363752 0.749123 0)
(0.138207 0.354951 9.31454e-20)
(0.136514 0.298565 -9.5573e-20)
(-0.0392379 -0.217327 -2.02119e-19)
(-0.177025 0.358309 1.18922e-19)
(-0.404814 0.245144 -1.80455e-19)
(-0.160755 0.405936 0)
(-0.0578834 0.538165 0)
(-0.0776867 0.328553 -2.00641e-19)
(-0.0266957 -0.0155684 -4.40476e-20)
(-0.185103 0.707594 0)
(0.176303 0.201576 0)
(-0.210041 0.231994 -1.00409e-19)
(-0.399399 0.594086 0)
(0.0193027 0.0407091 9.6938e-20)
(0.364816 0.510079 5.26981e-20)
(0.352173 0.556599 7.74669e-20)
(0.315438 0.557969 -2.6342e-20)
(0.069576 0.0436412 -1.43743e-19)
(-0.299096 0.736822 0)
(0.139232 0.295351 -1.64237e-19)
(-0.172312 0.43084 0)
(-0.0293017 0.493268 1.16589e-19)
(-0.103225 0.304642 -1.28185e-19)
(-0.100529 0.27698 0)
(-0.140092 0.269184 2.86134e-20)
(-0.0150546 0.527495 4.63655e-20)
(-0.321719 0.485925 3.1407e-19)
(0.847106 0.151063 -3.18071e-19)
(-0.0202883 0.0346516 -1.52226e-19)
(-0.300484 0.74531 1.42193e-19)
(0.15557 0.240595 1.50199e-19)
(-0.197621 0.181012 0)
(0.0288569 -0.00975061 -3.40935e-19)
(-0.401298 0.589429 -9.79242e-20)
(0.00289799 0.472563 -3.19948e-19)
(-0.336956 0.608661 0)
(0.750004 0.219849 9.9921e-20)
(0.109882 0.37844 -1.9899e-19)
(0.374201 -0.010786 -1.09828e-19)
(-0.228723 0.635324 0)
(-0.192623 0.416311 -9.73282e-20)
(-0.198329 0.440226 -1.05187e-19)
(-0.0834782 0.120741 5.81404e-20)
(0.0139865 0.513599 1.65603e-20)
(-0.325105 0.496828 0)
(0.871699 0.111958 2.20292e-19)
(-0.199047 0.401044 0)
(-0.216031 0.358278 0)
(-0.260118 0.431809 -6.79003e-20)
(-0.0778857 0.0533749 -1.52657e-19)
(-0.333701 0.458479 9.63431e-20)
(-0.0604562 0.0391458 1.6134e-19)
(0.122901 -0.318465 -1.33071e-19)
(-0.3868 0.455011 0)
(-0.0375901 -0.0847509 -1.33281e-19)
(-0.197377 0.3549 1.12218e-19)
(-0.24192 0.545215 0)
(-0.0572723 0.204108 5.24479e-20)
(-0.682995 -0.106418 1.95377e-19)
(0.0565013 -0.304538 1.94275e-19)
(0.238576 -0.275349 3.13339e-19)
(0.551982 0.323187 -9.33109e-20)
(0.1494 0.441156 0)
(-0.216992 0.724878 0)
(-0.113475 0.161141 1.96481e-19)
(-0.379239 0.768859 0)
(0.115812 0.274248 3.10457e-19)
(0.105586 -0.129742 -1.08325e-19)
(-0.160016 0.0531546 3.52182e-19)
(-0.375679 0.580389 1.36723e-19)
(-0.278742 0.579115 0)
(0.647178 0.00975387 9.93651e-20)
(0.0520422 0.453571 -2.40208e-19)
(-0.113768 0.685664 -2.9791e-19)
(-0.110886 -0.0711852 -1.0919e-19)
(0.205472 0.063777 0)
(-0.216098 0.732701 -2.22197e-19)
(0.115452 0.426946 0)
(-0.178113 0.216146 2.21237e-19)
(-0.359906 0.732085 8.10408e-20)
(0.081567 0.255811 9.31511e-20)
(-0.261177 0.741952 1.30654e-19)
(0.144034 0.414835 1.22114e-22)
(-0.100371 0.173444 -8.59243e-21)
(-0.00266952 -0.287976 1.2215e-19)
(-0.498557 0.316835 -1.06688e-19)
(-0.240663 0.394425 0)
(0.911208 -0.00649593 2.3816e-20)
(0.011191 0.542129 0)
(-0.18154 0.198365 -2.25179e-19)
(-0.369471 0.730182 -9.89363e-20)
(0.0788933 0.197847 -1.13323e-19)
(0.124314 0.181695 0)
(-0.36156 0.759329 -1.29084e-19)
(0.136531 0.373031 0)
(0.627038 0.107159 0)
(-0.358314 0.639677 0)
(0.0610803 0.440361 0)
(0.05869 0.339776 -7.54382e-20)
(0.0835964 0.653242 -1.23548e-19)
(0.101371 0.520111 -9.28842e-22)
(0.0833277 0.416933 2.45893e-19)
(0.524527 0.00104159 2.72522e-19)
(-0.245981 0.600025 1.31749e-19)
(-0.0996968 -0.0485797 -1.62109e-19)
(-0.309618 0.580097 1.55147e-19)
(0.153281 -0.214295 -1.66279e-19)
(-0.141836 0.707765 2.01507e-19)
(-0.120908 -0.0676947 1.10796e-19)
(0.198652 0.0588444 1.27523e-19)
(-0.125338 0.601462 -1.9999e-19)
(-0.235203 0.152996 1.63484e-19)
(0.508434 0.125329 -1.53664e-19)
(-0.206313 0.418435 6.40296e-20)
(-0.208341 0.43746 -5.59114e-20)
(-0.240012 0.343483 -2.19315e-20)
(-0.302425 0.32943 0)
(-0.0660903 -0.0840627 -5.49849e-20)
(-0.0836343 -0.0240155 -4.90231e-20)
(0.0458777 -0.36618 -2.62934e-19)
(-0.716053 -0.0758915 -2.15256e-19)
(0.271226 -0.274385 6.84104e-20)
(0.296884 -0.246247 -6.82028e-21)
(0.0136469 -0.490707 2.98279e-19)
(-0.727314 -0.000993863 0)
(-0.031784 0.10849 -3.18603e-19)
(-0.359808 0.776512 -3.68394e-20)
(0.140422 0.257275 0)
(0.120818 -0.26266 -3.31678e-19)
(-0.0663044 -0.0231721 1.32447e-19)
(-0.389 0.503262 0)
(-0.180925 0.528254 2.93224e-19)
(-0.192298 0.506573 -2.21306e-19)
(0.0937028 0.286414 1.15804e-19)
(-0.0368909 0.319328 4.34987e-20)
(-0.162785 0.133265 -9.38616e-20)
(-0.13082 0.100205 -4.78011e-20)
(0.234993 -0.39992 0)
(-0.266874 0.454026 0)
(0.0411313 -0.173448 5.21924e-20)
(0.310399 -0.23753 -1.31836e-19)
(0.0383526 -0.375963 0)
(-0.775692 -0.0671498 0)
(0.473644 0.498261 5.09986e-22)
(0.249694 0.45994 1.15134e-19)
(0.116201 0.632426 5.55486e-20)
(0.308538 -0.267818 -2.43082e-19)
(-0.699462 -0.0222212 9.44521e-20)
(0.0718423 -0.456063 1.41368e-20)
(-0.103235 0.513471 0)
(0.480113 0.318304 -1.87118e-19)
(-0.232107 0.374833 -6.87626e-22)
(-0.0198914 -0.106022 5.90654e-23)
(-0.346658 0.464884 2.24872e-19)
(0.171643 -0.324162 -2.1633e-22)
(-0.606001 -0.142788 5.72195e-21)
(0.0908683 -0.206568 -1.14253e-19)
(0.181336 -0.240223 -1.31187e-19)
(0.00120867 0.455441 -1.14814e-19)
(-0.268007 0.620227 9.70668e-20)
(0.720267 0.318532 3.03845e-19)
(0.434375 0.341754 0)
(-0.0576226 0.728821 -2.74686e-19)
(0.194332 0.46672 1.47763e-19)
(0.129877 -0.137505 0)
(0.0492946 -0.463648 1.50291e-19)
(-0.599716 0.178 -1.674e-22)
(0.429186 0.300667 0)
(-0.143177 0.736589 -9.61583e-20)
(0.182953 0.449637 -2.08818e-19)
(0.442928 0.507857 1.17239e-19)
(0.29111 0.478773 -6.12058e-20)
(0.185006 0.613489 2.9459e-20)
(0.059296 0.45893 1.22014e-19)
(0.669923 -0.025182 -9.79433e-20)
(-0.200785 0.51681 1.43366e-19)
(0.591979 0.382501 0)
(-0.132794 0.701643 0)
(0.137769 0.44831 1.76698e-20)
(0.638793 0.340711 1.47578e-19)
(-0.211483 0.696279 7.32055e-20)
(0.138876 0.438375 2.49207e-21)
(-0.111442 0.599246 3.02466e-19)
(0.649052 0.103754 -1.52745e-19)
(-0.264421 0.200282 -1.61445e-19)
(0.037485 -0.351881 2.25494e-19)
(0.0613559 -0.353873 -2.32845e-19)
(-0.495542 0.324954 7.21654e-20)
(-0.482935 0.335964 4.87982e-20)
(-0.012589 -0.0123337 0)
(-0.0102673 -0.047519 -1.21271e-19)
(-0.05752 -0.103606 1.97517e-19)
(-0.285549 0.542905 -1.39202e-19)
(0.160804 -0.26763 2.05879e-19)
(-0.216038 0.0816862 -1.04444e-19)
(-0.156254 0.625877 6.38167e-20)
(0.425459 0.0860671 1.96045e-19)
(-0.0406189 0.498239 -1.14849e-19)
(-0.320885 0.506675 -9.94707e-20)
(0.802296 0.239595 9.73194e-20)
(0.174565 -0.0316014 0)
(-0.158673 0.655593 9.68853e-20)
(0.131779 0.274705 3.80822e-21)
(-0.539857 -0.000668088 8.54968e-20)
(0.141121 -0.455453 -1.1012e-19)
(0.29266 -0.307365 -1.05527e-19)
(0.247825 -0.21001 0)
(-0.0772504 -0.118774 0)
(-0.162749 0.592519 8.94452e-20)
(0.208818 -0.205861 1.11132e-19)
(0.105224 -0.508423 0)
(-0.58031 0.165378 -8.84129e-20)
(0.0571311 -0.0872866 -4.20486e-31)
(-0.602012 -0.168542 -9.34262e-20)
(0.105914 -0.213326 1.35237e-19)
(-0.660898 -0.142706 1.04885e-19)
(0.035327 -0.0689942 4.19339e-31)
(0.114002 -0.195098 -1.20013e-19)
(-0.312079 0.767996 -1.97761e-19)
(-0.139373 0.0607829 0)
(0.156657 0.159303 -3.16266e-19)
(-0.370657 0.275512 -4.35299e-20)
(0.214364 -0.534018 -1.14237e-19)
(0.190144 -0.262653 0)
(-0.191166 0.10509 -1.57062e-19)
(-0.367273 0.662417 1.18147e-19)
(0.107806 -0.00265205 1.60505e-19)
(0.0762434 0.0208786 3.07175e-19)
(0.000494507 -0.451765 8.70214e-20)
(-0.621714 0.134289 0)
(0.0030573 0.303793 5.89493e-20)
(0.108396 0.456686 -5.80391e-20)
(-0.135574 0.723585 5.30832e-20)
(-0.223536 0.518344 4.67011e-20)
(0.249398 -0.343099 1.2039e-19)
(-0.0079565 -0.141615 5.4227e-20)
(0.295612 -0.0195651 -1.12477e-19)
(0.118441 0.319668 -6.7991e-20)
(-0.16866 0.63271 0)
(-0.198064 0.711325 0)
(-0.0700952 -0.00687039 0)
(0.186472 0.185449 0)
(0.0165564 0.305552 0)
(-0.399815 -0.108722 -8.61244e-20)
(-0.226405 0.000810913 1.11264e-19)
(-0.651097 -0.0968214 9.22919e-20)
(0.0819145 -0.333797 -1.37506e-19)
(0.238593 -0.282578 -1.2661e-19)
(0.0738115 0.322086 -1.52646e-19)
(0.136069 0.485316 1.36823e-19)
(-0.0585148 0.703038 6.33412e-20)
(-0.320728 0.433471 2.00734e-19)
(0.0422586 -0.184696 -1.18597e-19)
(0.188217 -0.404447 0)
(0.235174 -0.446488 -1.26839e-19)
(0.0863986 -0.212863 0)
(-0.273422 0.41332 -1.45641e-19)
(-0.0820633 -0.00622569 -1.20157e-19)
(0.0665252 -0.265868 3.50427e-19)
(-0.420251 0.470311 0)
(-0.0316276 -0.193745 -2.48783e-19)
(-0.443335 0.322913 1.10583e-19)
(-0.17135 0.274884 0)
(-0.102953 0.627564 -3.77148e-19)
(0.749485 0.0410536 1.94845e-19)
(-0.259847 0.197586 -5.11014e-20)
(-0.129857 0.286017 3.37641e-20)
(-0.215237 0.507958 1.30275e-19)
(-0.111214 0.0126726 -1.47767e-19)
(-0.00965842 -0.308152 -2.20954e-19)
(-0.102198 0.243381 0)
(-0.506946 0.212168 0)
(-0.126877 0.460757 -5.72294e-20)
(-0.14564 0.465467 0)
(0.237248 0.432474 -1.91643e-19)
(0.136815 0.441496 2.04708e-19)
(-0.165681 0.392772 2.59148e-20)
(-0.140285 0.331846 -2.76411e-20)
(-0.112985 0.486412 5.49535e-20)
(0.393853 0.386627 0)
(-0.206709 0.41482 4.88307e-20)
(-0.179433 0.568308 0)
(0.180645 0.223356 -1.87553e-19)
(-0.174357 0.120888 3.37923e-20)
(-0.177176 0.721912 -1.01305e-19)
(-0.118944 -0.0331515 1.11397e-19)
(0.189788 0.105051 -2.6203e-19)
(-0.263121 0.527034 0)
(-0.0576283 -0.10549 3.0602e-19)
(0.205457 -0.259741 0)
(0.192115 0.0326628 -8.23485e-20)
(-0.152919 -0.019546 -7.48257e-20)
(-0.212964 0.723043 -6.68545e-20)
(-0.699757 -0.133239 -1.47438e-20)
(0.0175235 -0.157595 7.23048e-20)
(0.176093 -0.230762 0)
(-0.0263953 0.447013 1.03538e-19)
(-0.0242803 0.429764 0)
(-0.159891 0.580349 0)
(0.540624 0.431107 3.66638e-19)
(-0.0960322 0.579113 0)
(0.456326 0.4946 -2.32415e-19)
(-0.142507 0.565471 0)
(-0.119372 0.537546 0)
(-0.251578 0.280773 -1.11025e-21)
(0.35503 0.240277 1.1564e-19)
(-0.214757 0.227389 2.46425e-19)
(0.504141 0.242537 -2.44239e-19)
(-0.561175 -0.114321 0)
(0.0817892 -0.238154 1.59893e-19)
(0.182888 -0.27366 0)
(-0.320942 0.455971 -1.18151e-19)
(0.00216058 -0.151385 3.52077e-20)
(0.183501 -0.368851 7.30335e-20)
(-0.0305754 0.539021 -2.02048e-19)
(-0.31458 0.417052 -1.13133e-19)
(0.860977 0.154951 3.29542e-19)
(-0.126607 0.696053 2.13005e-19)
(-0.0123632 -0.0523916 2.8674e-19)
(0.165731 0.187407 0)
(-0.0424897 -0.164073 2.65951e-19)
(-0.413288 0.319635 -1.17673e-19)
(-0.193971 0.326547 1.51228e-19)
(-0.601184 0.0320207 0)
(0.313609 -0.303351 0)
(0.106728 -0.50192 0)
(-0.554914 0.10337 0)
(0.297225 -0.287918 1.05504e-19)
(0.137532 -0.524158 2.6337e-20)
(-0.198895 0.469757 -1.21722e-19)
(-0.103587 0.391158 6.4801e-20)
(-0.115752 0.146619 7.07183e-20)
(0.0369841 0.46196 -2.99408e-20)
(-0.337243 0.636328 0)
(0.72685 0.241109 1.71559e-22)
(-0.0358233 -0.0321285 1.40008e-19)
(0.0790706 -0.324144 2.04582e-19)
(-0.438309 0.423339 -5.68024e-20)
(-0.272858 0.751806 0)
(-0.147142 0.0277791 0)
(0.168038 0.134574 2.73549e-19)
(0.0311549 -0.0806124 6.55772e-20)
(-0.422568 0.533434 1.68264e-19)
(-0.194114 0.180126 3.41846e-19)
(-0.101399 0.555355 0)
(-0.272091 0.300919 -1.64826e-19)
(0.620005 0.198471 1.2469e-19)
(0.343355 0.0956658 5.13411e-22)
(-0.36008 0.707288 9.82492e-20)
(0.099045 0.38628 0)
(-0.0307228 0.483665 4.76417e-22)
(-0.310416 0.568731 -3.30047e-20)
(0.764249 0.258898 -1.27503e-19)
(0.103897 -0.35587 1.32106e-21)
(-0.415355 0.423603 1.34719e-19)
(-0.00240139 -0.0811494 1.63788e-19)
(-0.21148 0.274305 -6.09356e-20)
(-0.394595 0.535672 -4.98904e-20)
(-0.0116202 0.0186215 0)
(0.00876277 0.451774 -1.12308e-19)
(-0.204526 0.621456 2.13061e-19)
(0.647458 0.383189 -1.9998e-19)
(-0.0466201 0.177926 1.1675e-19)
(-0.00238215 -0.367821 9.77131e-20)
(-0.553952 0.16525 -8.76443e-20)
(-0.106515 0.427636 -6.8958e-20)
(0.302029 0.495803 0)
(-0.132722 0.491263 0)
(0.30638 0.245946 -2.75498e-19)
(-0.296569 0.742949 5.90657e-20)
(0.158812 0.421313 0)
(-0.253125 0.747273 0)
(-0.0604761 0.00463437 2.17404e-19)
(0.162495 0.191624 0)
(0.232988 -0.152401 -7.13579e-20)
(0.0241468 -0.501609 -3.13639e-20)
(-0.707232 0.0556359 1.05951e-19)
(0.196734 -0.106831 1.96519e-19)
(0.0207842 -0.493729 0)
(-0.689922 0.0621244 -9.87381e-20)
(0.0150234 -0.10564 5.90923e-20)
(-0.431821 0.490229 -1.02816e-19)
(-0.185498 0.207103 -3.13054e-19)
(0.417674 0.0689222 -9.83619e-20)
(-0.316874 0.690675 -9.67296e-20)
(0.08343 0.384313 0)
(0.0188245 -0.487431 2.87591e-20)
(-0.750097 -0.00772946 -9.90534e-20)
(0.290903 -0.203313 0)
(0.128306 -0.0687158 0)
(-0.356398 0.63376 -1.00179e-19)
(-0.177757 0.0680582 -3.95727e-20)
(0.0292714 0.0775167 1.24969e-19)
(-0.51133 -0.168115 1.00116e-19)
(-0.0293914 -0.168745 0)
(-3.51145e-06 -0.0910488 -1.31646e-19)
(-0.619634 -0.120646 0)
(0.0491456 0.102956 1.22956e-19)
(-0.00515554 -0.264485 -1.32656e-21)
(-0.489512 0.27604 0)
(-0.125619 0.243656 0)
(0.127808 -0.449595 0)
(-0.490604 0.272941 0)
(0.106497 -0.174069 2.2732e-19)
(-0.0574336 0.0626321 -1.2125e-19)
(-0.105499 0.102289 9.81092e-20)
(0.0362892 -0.320136 -1.1313e-19)
(-0.493602 0.367891 -2.34327e-20)
(0.0307236 -0.251111 -1.82345e-19)
(-0.466535 0.42598 4.10788e-20)
(-0.175096 0.0329434 7.48616e-20)
(-0.3241 0.648781 6.47042e-20)
(0.145096 -0.0568786 0)
(0.13136 0.243566 0)
(-0.107701 0.660661 0)
(0.0891065 -0.0561731 0)
(0.0552475 0.407945 0)
(0.013679 0.576141 -2.97376e-19)
(0.358611 0.550479 1.25132e-19)
(-0.176457 0.0165771 2.09182e-19)
(-0.270123 0.706045 2.31906e-20)
(0.177227 0.0216773 2.39723e-19)
(0.184285 0.0586692 1.59113e-19)
(-0.172645 0.0161721 -2.90695e-19)
(-0.252952 0.728278 -3.21815e-20)
(-0.138195 0.32727 1.24744e-19)
(-0.0180716 -0.282386 1.05224e-19)
(-0.458136 0.192399 1.88586e-19)
(-0.149269 0.577448 0)
(0.344821 0.200692 5.60535e-20)
(-0.212974 0.182968 -2.41525e-19)
(-0.11189 0.523161 0)
(0.415294 0.306861 2.45683e-19)
(-0.223497 0.315333 -8.86811e-22)
(-0.188096 0.0987086 -2.56499e-19)
(-0.346256 0.749414 2.84109e-20)
(0.136775 0.143615 -1.34687e-19)
(-0.188705 0.0714519 0)
(-0.325902 0.741794 2.61974e-20)
(0.148437 0.128341 1.25511e-19)
(0.0565711 0.442245 0)
(-0.164855 0.639128 -3.37183e-19)
(0.629282 0.407127 1.09983e-19)
(-0.154763 0.488283 0)
(0.147866 0.409679 0)
(-0.15104 0.304753 3.7057e-20)
(0.252351 -0.308531 -2.62048e-19)
(-0.174978 0.532689 -2.52151e-19)
(-0.0342978 -0.144354 0)
(0.280976 -0.319817 1.51427e-19)
(0.140992 -0.528117 0)
(-0.517944 0.104644 6.12298e-20)
(0.306954 -0.322411 1.26002e-21)
(0.151491 -0.526666 0)
(-0.513478 0.0707512 -1.76613e-19)
(-0.0729093 0.485567 8.05886e-20)
(-0.255581 0.498472 -3.58188e-20)
(0.609359 0.338881 -9.16078e-22)
(-0.61884 -0.0282507 -3.89673e-23)
(0.0957364 -0.444971 2.10818e-19)
(0.294323 -0.311435 0)
(-0.199411 0.261598 2.6521e-19)
(-0.00505178 -0.0590776 1.23073e-19)
(-0.418014 0.487527 0)
(0.112842 -0.397578 -3.19371e-20)
(-0.572036 -0.0427242 -1.00721e-19)
(0.271174 -0.299701 0)
(0.35381 0.363518 1.80949e-19)
(0.221707 0.486641 1.85015e-19)
(0.0439198 0.688084 -3.51431e-22)
(-0.163613 0.292932 -3.57013e-20)
(-0.28381 0.705993 -2.98535e-20)
(0.0582124 0.313209 -1.34577e-19)
(-0.331288 0.638642 2.19409e-19)
(0.558952 0.0810339 2.22478e-19)
(0.0689196 0.424381 0)
(0.218944 -0.498459 0)
(-0.347053 0.335271 -5.46858e-20)
(0.132585 -0.230809 0)
(-0.253103 0.740494 0)
(-0.125424 0.0153076 0)
(0.177402 0.150736 0)
(-0.000565153 -0.401399 0)
(-0.00141334 0.0944088 -1.1399e-19)
(-0.579099 0.185162 8.56653e-20)
(-0.190194 0.261069 0)
(-0.329379 0.698493 1.47073e-20)
(0.0485191 0.266612 1.31554e-19)
(0.112143 0.411201 0)
(0.060744 0.585356 2.55464e-19)
(0.365027 0.561622 0)
(-0.374392 0.348856 -1.89913e-19)
(0.0981299 -0.20185 1.12559e-19)
(0.192545 -0.451261 0)
(0.0771142 -0.101094 -1.37326e-19)
(-0.397912 0.573131 6.51571e-21)
(-0.180747 0.102174 4.10817e-22)
(0.198137 -0.182234 0)
(0.270656 -0.227365 1.38973e-19)
(0.029587 -0.509019 -7.3818e-20)
(0.0407297 -0.515571 -9.03392e-20)
(-0.655275 0.105281 -6.23266e-20)
(-0.665423 0.0725465 5.12475e-20)
(0.00381986 0.159927 0)
(-0.370502 0.774747 3.86894e-19)
(0.135517 0.330259 1.49422e-19)
(-0.325694 0.771481 2.76536e-19)
(-0.0932156 0.067029 0)
(0.150583 0.198748 -1.66612e-19)
(0.193807 0.275905 -1.54425e-19)
(-0.174296 0.728837 1.02518e-19)
(0.171437 0.460181 2.25034e-19)
(-0.45466 0.182173 1.30122e-19)
(0.216635 -0.292944 1.57559e-19)
(-0.424426 0.193811 -6.30017e-20)
(0.163533 -0.5281 0)
(0.224646 -0.280947 -1.5229e-19)
(0.201563 -0.535497 0)
(-0.208656 0.213448 0)
(-0.385362 0.681532 0)
(0.0623715 0.143022 1.47962e-19)
(0.125599 -0.211373 2.08296e-19)
(0.182168 -0.25568 -3.91269e-19)
(-0.418823 0.293516 8.5721e-20)
(-0.457833 0.22213 -2.14186e-19)
(0.169656 -0.476935 2.15092e-19)
(0.157135 -0.523765 -8.5273e-22)
(-0.0491229 0.0773084 0)
(-0.318629 0.758305 -2.52466e-19)
(0.149818 0.249302 2.15852e-19)
(-0.0605685 0.229768 1.52675e-19)
(-0.323344 0.755862 -1.7731e-19)
(0.11139 0.338754 0)
(0.110513 -0.0426273 0)
(0.00906979 -0.459538 0)
(-0.634778 0.119749 9.48083e-20)
(-0.0456045 0.18229 1.12502e-19)
(-0.376912 0.773294 -1.083e-19)
(0.135257 0.314365 -2.44679e-19)
(0.0932862 0.249413 6.38479e-20)
(-0.251978 0.743097 -1.201e-19)
(0.160289 0.421423 1.32571e-19)
(0.199727 -0.13915 0)
(0.0344322 -0.493625 0)
(-0.671523 0.10262 -1.27786e-19)
(-0.179108 0.289471 0)
(-0.323435 0.658665 3.22013e-20)
(0.0319392 0.229086 -1.45313e-19)
(-0.141631 0.601945 0)
(0.393521 -0.0261484 0)
(0.0972845 0.354513 -8.88247e-21)
(-0.0914474 0.589281 -9.56117e-21)
(0.668939 0.146663 0)
(-0.260279 0.265807 2.50583e-19)
(-0.0736144 0.677823 1.16472e-19)
(0.214352 -0.015708 0)
(-0.124252 -0.0964054 0)
(0.0305797 0.18452 -2.98097e-19)
(-0.513766 -0.134003 1.20461e-19)
(-0.0986998 -0.0881314 -1.55733e-19)
(-0.143351 0.202359 0)
(-0.357484 0.75143 1.08308e-19)
(0.10902 0.293405 -1.22933e-19)
(0.0397178 -0.00558263 2.08584e-19)
(0.0244261 -0.408363 3.77224e-19)
(-0.547464 0.240843 0)
(-0.253445 0.292944 -6.66197e-20)
(0.899868 0.00228883 -1.30065e-19)
(-0.0395225 0.588983 -8.3313e-20)
(0.198793 -0.187063 0)
(0.0373193 -0.174608 -1.06688e-19)
(-0.754745 -0.118379 0)
(0.0848066 0.427143 1.47415e-19)
(0.0519922 0.443928 -1.50942e-19)
(-0.330818 0.704006 0)
(0.579962 0.226089 1.3203e-19)
(-0.351944 0.690178 -2.11564e-19)
(0.630164 0.206656 -1.06552e-19)
(0.311635 0.277396 1.45328e-19)
(-0.212494 0.731315 1.35068e-19)
(0.178422 0.450889 0)
(0.0245966 0.454079 1.32379e-19)
(0.0624706 0.445942 0)
(-0.295013 0.646686 -1.18856e-19)
(0.737432 0.289594 1.172e-19)
(-0.279794 0.688192 1.19739e-19)
(0.667954 0.27233 -8.16093e-23)
(-0.118428 0.220077 9.78578e-21)
(-0.316145 0.753872 -7.66423e-20)
(0.132878 0.375002 -1.62685e-19)
(-0.0248931 0.210936 -2.63114e-19)
(-0.341305 0.765845 2.01672e-21)
(0.135253 0.363752 0)
(0.181141 -0.537337 0)
(-0.454083 0.113022 0)
(0.273089 -0.316384 1.73713e-19)
(-0.082663 0.471892 -7.44082e-20)
(0.480292 0.393835 0)
(-0.210274 0.464 6.70411e-20)
(0.0699609 -0.173314 -3.5877e-19)
(-0.439422 0.322546 9.85363e-20)
(0.148833 -0.427818 -1.22235e-19)
(-0.191205 0.112496 0)
(-0.188411 0.09382 1.51362e-19)
(-0.357401 0.721445 -3.54021e-20)
(-0.351806 0.700458 1.1424e-19)
(0.113326 0.0969796 -1.66061e-19)
(0.120801 0.0418912 -1.55016e-19)
(-0.0844595 0.447439 0)
(0.426495 0.447076 0)
(-0.176525 0.504529 3.18725e-20)
(-0.163574 0.518629 9.45491e-20)
(0.128147 0.3278 0)
(-0.165311 0.199197 8.09393e-20)
(-0.19359 0.166082 -7.40515e-20)
(-0.374079 0.733257 0)
(0.0954721 0.193158 0)
(0.21332 0.432935 1.4213e-19)
(0.446166 0.539539 -6.62359e-20)
(0.107867 0.61389 6.83259e-20)
(-0.185469 0.0522179 0)
(-0.304467 0.719788 0)
(0.156377 0.0556648 -2.54914e-19)
(0.0333235 0.416403 0)
(-0.0673004 0.604441 3.76918e-20)
(0.493451 0.505036 0)
(-0.110692 0.0955809 -1.59091e-19)
(-0.354453 0.767216 -1.44101e-19)
(0.147259 0.234742 -2.12643e-20)
(-0.168763 0.473753 9.62113e-20)
(0.0654344 0.39794 0)
(-0.151234 0.239834 1.70243e-19)
(0.147772 0.42717 -1.40858e-19)
(0.125017 0.4282 -6.35606e-20)
(0.466721 0.521132 6.62488e-20)
(0.0457352 0.624244 -1.36163e-19)
(0.541348 0.475829 0)
(-0.0208796 0.644054 -2.4011e-19)
(0.0774443 0.443189 -6.42551e-20)
(-0.181259 0.669719 1.58213e-19)
(0.0866579 0.452104 4.13716e-20)
(0.627403 0.369682 -1.56042e-19)
(-0.228832 0.694456 -7.55554e-20)
(0.643655 0.315169 4.77202e-23)
(-0.125459 0.431658 8.16419e-20)
(-0.133773 0.403862 0)
(0.182817 0.493294 1.3977e-19)
(0.0385236 0.535266 -1.09114e-19)
(-0.128455 0.430431 -1.51654e-19)
(-0.0896007 0.389979 2.53354e-19)
(-0.0165272 -0.156083 0)
(-0.443367 0.388409 -6.44325e-20)
(-0.178377 0.253368 -1.65301e-19)
(0.0808696 0.411719 1.07361e-19)
(0.536643 -0.0105197 1.54315e-19)
(-0.193407 0.574864 -2.28102e-19)
(-0.000317434 -0.207815 -1.25905e-19)
(0.0092069 -0.190795 1.02827e-19)
(-0.466063 0.381995 5.56999e-20)
(-0.459452 0.427166 9.39382e-20)
(-0.14743 0.202234 4.26711e-19)
(-0.156051 0.169811 -2.23036e-19)
(0.00366453 0.526238 1.48661e-19)
(-0.300418 0.466567 -1.06959e-19)
(0.885056 0.0638366 3.07549e-20)
(0.338926 0.471875 2.36095e-19)
(0.242483 0.573574 0)
(0.370322 0.57038 -2.30477e-19)
(-0.186281 0.0626756 -7.41672e-20)
(-0.326532 0.690646 -1.29107e-19)
(0.143576 0.0183931 0)
(-0.0540612 0.450761 0)
(-0.185901 0.545169 -3.03898e-20)
(0.519011 0.413013 -1.18941e-19)
(-0.183378 0.455742 0)
(-0.0276961 0.419454 0)
(-0.128155 0.215061 -1.58513e-19)
(-0.214337 0.370577 -1.72306e-19)
(-0.212746 0.341979 0)
(-0.373799 0.373316 3.3836e-20)
(-0.0442638 -0.0801467 -1.52233e-19)
(-0.376161 0.424557 -9.1798e-20)
(-0.0389256 -0.0453796 2.06464e-19)
(-0.196413 0.166205 1.42093e-19)
(-0.382927 0.686925 1.22163e-19)
(0.0778905 0.0844841 8.9654e-20)
(0.25275 -0.236961 1.90791e-19)
(-0.759434 -0.0942597 0)
(0.0316578 -0.304198 -4.3876e-20)
(-0.273347 0.353254 7.25104e-20)
(0.929381 0.0139101 1.05718e-19)
(-0.0247475 0.560393 9.06217e-20)
(-0.064538 0.605044 9.75079e-20)
(-0.0634189 0.587729 1.03496e-19)