/*--------------------------------*- C++ -*----------------------------------*\
  =========                 |
  \\      /  F ield         | OpenFOAM: The Open Source CFD Toolbox
   \\    /   O peration     | Website:  https://openfoam.org
    \\  /    A nd           | Version:  6
     \\/     M anipulation  |
\*---------------------------------------------------------------------------*/
FoamFile
{
    version     2.0;
    format      ascii;
    class       volScalarField;
    location    "./ITHACAoutput/Offline/1";
    object      P_rec;
}
// * * * * * * * * * * * * * * * * * * * * * * * * * * * * * * * * * * * * * //

dimensions      [0 2 -2 0 0 0 0];

internalField   nonuniform List<scalar> 
13046
(
1.37248
1.32831
1.40904
1.38232
1.41099
1.35569
1.35594
1.35129
1.41775
0.841258
0.731059
1.38967
1.34657
1.27894
1.40567
0.978853
1.37806
0.801838
1.41714
1.3948
1.36919
0.954805
1.38211
0.795308
1.38219
1.36741
1.40546
1.32579
1.26573
1.40279
1.38275
1.30353
1.40266
1.39683
1.41121
1.36984
1.39433
1.41482
1.38414
1.389
1.38321
1.2778
1.39214
1.41401
1.39765
1.39082
1.40506
1.39692
1.35532
1.32082
1.41059
1.33963
1.39675
1.20537
1.33402
1.17804
1.40199
1.01205
1.23623
1.37119
1.23417
1.23096
1.40845
1.3934
0.964812
1.05593
1.26839
1.02552
1.36568
1.29295
1.05528
1.36651
0.964316
1.20879
1.37042
1.41593
1.40212
1.34784
1.37506
1.14718
0.936594
1.3734
1.36062
1.40589
1.39042
0.912972
1.00857
1.00983
1.4011
1.01259
1.40061
0.919687
1.01758
1.23602
1.20071
1.1538
1.1283
1.39589
1.39905
1.40302
1.01819
1.04227
1.3875
1.40927
1.38847
1.41356
1.23118
1.33763
1.39346
1.36407
1.24165
0.632482
1.38567
0.52342
1.35927
1.30343
1.40423
1.20263
1.2339
1.0813
1.38866
1.12991
1.39007
0.798615
0.675077
1.38808
1.29258
1.19942
1.40288
1.3819
1.38712
1.27379
1.40015
0.959112
1.06421
1.13892
1.08478
1.4002
1.37126
1.28336
1.39845
1.29839
1.32541
1.40971
1.39233
1.35005
1.23733
1.41061
1.25956
1.35419
1.21898
1.19677
1.40581
1.42349
1.31473
1.36193
1.28915
1.16436
1.26564
1.15447
1.40559
1.40701
1.29032
1.31722
1.40713
0.828883
1.39224
0.757583
0.701306
1.38621
0.574116
1.12057
1.04701
1.39743
1.37642
1.20579
1.37972
1.29944
1.40694
1.33333
1.39649
0.82634
0.858226
1.38284
1.23358
1.37643
1.42145
1.29497
1.35164
1.31744
1.33683
1.40879
1.26349
1.41166
1.30941
1.23183
1.40165
0.981966
1.39763
0.944228
1.40258
1.01211
1.07614
0.928402
0.984024
1.3994
1.32809
1.14098
1.38696
1.32732
1.16566
1.3694
0.933093
0.934925
0.901985
1.39955
1.38465
1.4152
1.38336
1.3423
1.27542
1.39944
1.40304
0.994103
1.08676
1.30975
1.27768
1.41453
1.39176
0.666469
0.718145
1.39097
1.1377
1.31201
0.979489
1.02953
1.40122
1.217
1.29173
1.4116
1.28527
1.19136
1.4006
1.17068
1.03109
1.39842
1.11999
1.24192
1.40233
1.39182
0.654351
0.675745
1.39727
1.36997
1.22262
0.667177
1.37965
0.455245
1.41292
1.3746
1.38435
1.23454
1.24266
1.27877
1.30113
1.41451
1.40733
1.37044
1.11107
0.899975
1.31505
1.21367
1.39423
1.10179
1.21025
1.4051
1.16582
1.07743
1.39364
1.40144
1.39009
1.4142
1.18609
1.26665
1.4078
1.31509
1.18941
1.39188
1.31609
1.30399
1.39766
1.36272
1.19943
1.17412
1.24022
1.40685
1.12384
1.39304
1.0482
1.40896
1.36933
1.25988
1.40507
1.13849
1.28233
1.24447
1.09669
1.3813
1.39457
1.34862
1.19694
1.2141
1.19522
1.06269
1.38018
1.05375
1.38462
1.39491
0.856644
0.896607
1.25623
1.15284
1.39012
0.372311
1.3839
0.505195
1.34942
1.40939
1.3643
1.26105
1.25336
1.4079
1.39765
1.03192
0.988469
1.32059
1.1471
1.39951
1.13704
1.01686
1.40046
1.30973
1.41019
1.2446
1.22189
1.40466
1.30841
1.41358
1.02722
1.37894
0.851121
1.33539
1.11221
1.3851
1.2208
1.19651
1.40211
1.28093
1.31774
1.41368
1.23396
1.33634
1.40657
1.37466
1.33449
1.41156
1.39604
1.14587
1.297
0.956931
0.958066
1.39859
1.13426
1.02407
1.40261
1.31507
1.36253
1.09524
1.17674
1.20499
1.02617
0.988999
1.37312
1.37537
1.38258
0.402697
0.558972
0.70904
1.37977
0.497863
1.21335
1.25938
1.40358
1.3955
0.958248
0.898852
1.27716
1.26116
1.09282
1.08087
1.37656
1.37631
1.39654
0.862407
0.798528
0.637782
1.37942
0.38648
1.36969
1.41218
1.40347
0.622033
0.463275
1.38372
1.36439
1.20686
1.37908
0.874198
0.85705
1.39839
0.37755
1.38452
0.392338
1.3953
1.38351
1.30063
1.35801
1.3858
1.41273
0.810171
1.38619
0.662571
1.34481
1.37529
1.41246
1.37997
1.41133
1.40658
1.39946
1.10624
1.30312
1.3363
1.39489
1.41102
1.35401
1.37011
1.40753
1.33521
1.10919
1.35914
1.38621
1.38996
0.797354
0.795266
0.921066
0.90262
0.906912
0.923782
1.39798
1.36659
1.30494
1.05867
1.38633
1.37011
1.24131
1.09883
1.2414
1.3966
0.546183
1.38967
0.489726
1.4006
0.902058
0.980272
0.734054
1.38886
0.632063
1.3836
0.319048
0.365101
0.262912
1.38092
0.427613
1.19475
1.15721
1.40313
0.739798
1.39469
0.665339
1.10538
1.07473
1.401
0.917956
1.37219
0.684226
1.3465
1.40782
1.32495
0.906318
1.39841
0.839931
1.11156
1.39598
1.26129
1.19294
1.10114
1.40698
1.38076
0.0935814
0.212817
0.410845
1.38512
0.474015
1.36396
1.41316
1.3372
0.837339
0.792821
1.39683
1.39753
0.745978
0.82961
0.964195
1.39137
0.887305
1.37544
0.911995
1.08843
1.35406
1.09381
1.35828
1.03765
1.23346
1.37724
1.37404
1.04682
0.818959
1.34589
1.33066
1.22429
1.19718
1.38889
1.39162
1.35824
1.22851
1.38517
1.29676
1.08017
1.37549
1.15936
1.06328
1.40285
0.914413
0.896077
1.3999
1.40226
1.05609
1.11829
0.292492
1.38161
0.478201
1.39642
1.38802
1.39823
1.30236
1.40409
1.31267
1.33347
1.33395
1.37409
1.13331
1.37519
1.16173
0.429006
1.38713
0.395201
0.860564
0.830516
1.39788
1.37855
1.35533
1.19019
1.19975
1.06171
1.40083
1.37446
0.934643
1.11691
0.53547
0.589272
1.3886
0.592323
0.617915
1.39086
1.26489
1.10554
1.38387
1.41452
1.3655
1.27965
0.928823
1.39143
0.838099
1.17596
1.12118
1.40674
1.39385
0.9969
1.09552
1.34716
1.37217
1.16368
1.22799
1.30934
1.4066
1.39349
1.37632
1.26109
1.39299
0.821421
0.886877
1.16637
1.0571
1.38934
1.39998
1.39124
1.31127
1.00261
1.3716
0.764226
1.35656
1.27224
1.3966
1.33014
1.34687
1.41751
1.21068
1.13391
1.40494
0.794821
1.37729
0.561556
0.832794
1.37555
0.587257
1.39018
0.976791
1.09468
1.19829
1.31286
1.40212
1.37535
0.491527
0.739276
1.40009
1.03214
1.06638
1.38384
0.283817
0.299452
0.389176
0.183329
1.37857
1.37821
0.853717
1.05555
1.39309
0.732835
0.780681
0.97368
1.01021
1.38519
0.835084
1.38709
0.888448
1.05179
1.04711
1.40104
1.40584
1.22084
1.05552
1.39787
1.40472
1.3353
1.07569
1.09927
1.40431
1.40486
1.09081
1.12776
1.07932
1.3716
0.843587
1.32261
1.10249
1.37291
1.34696
1.18339
1.37514
1.16811
1.17274
1.40627
1.14724
1.16475
1.40637
1.40549
1.388
1.33477
1.32531
1.17407
1.39103
1.39969
0.929662
0.836876
0.588987
1.39226
0.615649
0.544082
1.39131
0.601464
1.37762
1.38593
1.25088
0.487218
1.38765
0.518247
1.13305
1.38858
1.00668
1.38777
0.496554
0.472333
1.38563
1.41379
1.37041
1.29347
1.24092
1.40479
1.32399
1.20674
1.4031
1.39582
0.777899
0.716494
1.18178
1.12187
1.40579
1.37376
0.966288
0.746147
1.26133
1.21777
1.40493
1.40266
1.40884
1.34691
0.779213
0.751702
1.39625
1.3969
0.996238
1.06383
0.773146
0.729431
1.38187
1.38257
0.604583
0.559227
1.26052
1.29266
1.41279
1.22047
1.18106
1.40402
1.34126
1.34783
1.419
0.679214
0.644842
0.691919
1.39375
0.636554
1.39379
1.20237
1.15012
1.40327
0.744428
0.692576
0.744044
0.697069
1.39521
1.39389
1.18276
1.24465
1.41185
1.29421
1.27443
1.40898
0.880257
1.37614
0.661975
1.27816
1.27709
1.41132
1.33418
1.327
1.41309
0.802233
1.37919
0.602749
1.26452
1.18583
1.3991
1.271
1.08624
1.39638
1.35227
1.13856
1.36655
1.09468
1.39892
0.965879
1.38117
0.153457
0.269188
1.26286
1.25158
1.40787
0.914606
1.38071
0.739347
1.34832
1.10294
1.37129
0.516397
1.37667
0.286734
1.41249
1.40551
1.36121
1.29938
1.36066
1.28192
1.34474
1.35363
1.41595
1.39977
1.40935
1.37532
1.30166
1.38187
1.29821
1.28318
1.29442
1.4154
1.29584
1.29924
1.41455
1.39284
0.64674
0.568261
1.37054
1.2523
1.38476
0.793001
0.767238
1.39489
1.15595
1.12294
1.14255
1.10574
1.40287
1.40113
1.36574
1.27982
1.39034
1.29747
1.12858
1.37717
1.20766
1.18876
1.40642
1.40243
1.37013
1.4025
1.11047
1.12065
1.40431
1.39395
1.39653
1.33586
1.20596
1.23876
1.41022
1.29745
1.15549
1.37823
1.40058
1.40338
1.35511
1.40678
1.35392
1.40131
1.40717
1.37979
1.41271
1.33796
1.39219
1.31112
1.34743
1.33973
1.24517
1.24377
1.39441
1.39306
1.38034
0.93771
1.09893
1.39434
1.1164
1.29113
1.38398
1.38655
0.901546
0.921385
1.05798
1.05206
1.38898
1.34784
1.1636
1.40286
1.40822
1.38723
1.0995
1.09193
1.40293
1.38943
1.39259
1.28154
1.28356
1.14483
1.38101
1.15953
1.16526
0.984404
1.38112
1.00875
1.38337
1.17023
1.12748
1.4007
0.566692
0.355798
1.37807
1.3429
1.1261
1.37667
1.36187
1.36425
1.35345
1.1142
1.35925
1.13566
1.08003
1.14963
1.40394
1.31087
1.14605
1.37818
1.38649
1.34887
1.16341
1.36235
1.36651
1.36304
1.37582
1.18632
1.18317
1.3566
1.36482
1.15052
1.17742
1.15099
1.40394
1.40131
1.39535
1.34256
0.851436
1.38305
0.691866
1.38036
1.35024
1.14112
1.29118
1.2644
1.15938
1.13667
1.38355
1.38877
1.38338
0.740951
0.896925
0.885543
1.38045
0.689767
0.845808
1.3802
0.657873
1.13352
1.38451
0.986365
1.32216
1.17674
1.38179
0.83623
1.02916
1.29386
0.844543
1.20837
0.505277
1.12814
0.954029
0.804194
1.20531
1.20332
0.769305
0.856013
1.19206
1.01297
0.870833
0.889599
0.972305
1.0299
1.15746
1.05996
0.962953
1.231
1.36806
1.30868
1.03384
1.22132
0.788111
1.08249
0.84079
0.803842
1.1296
1.03155
1.04293
0.845188
1.04966
1.28495
1.22203
0.923069
1.06476
0.928202
1.37503
0.872347
1.19519
1.24549
0.959922
0.966462
0.893014
0.779911
0.871562
1.31956
1.07215
0.870799
0.935193
0.799174
1.31594
1.15522
1.04104
0.880125
1.18035
0.865628
0.884487
1.31213
0.979958
1.03796
1.16027
1.07226
1.34911
1.22462
1.19482
0.733993
0.784411
0.942492
1.17832
0.770729
1.04487
1.02423
0.837278
1.16953
1.26251
0.972555
1.02863
0.788834
0.853866
0.945425
1.17875
0.947898
0.895807
0.999028
1.31943
0.876378
1.18241
1.30419
1.04956
0.86713
0.422836
0.841712
0.897477
0.864215
0.732515
1.10055
1.23634
1.25394
1.35089
0.861524
0.858525
0.788158
0.887094
0.844479
1.28485
1.24525
1.157
0.837143
0.789351
1.08267
1.21682
0.974145
0.89562
0.711984
0.967216
1.0308
1.319
1.34051
1.18565
1.04534
0.948056
0.767554
1.33871
0.769308
1.17416
0.721386
1.3121
0.789985
0.74408
0.816766
1.2623
1.03208
0.683085
0.866265
1.14169
0.864918
1.189
1.10152
0.893835
1.2418
0.930466
0.851553
1.27372
0.876747
0.97785
0.772798
1.0575
0.919522
1.25957
1.1843
0.968279
1.17701
1.18918
1.29484
1.02955
0.935899
0.887762
1.18761
0.766204
1.05792
0.793861
1.36685
0.966698
1.25685
1.33726
1.06362
1.34326
1.26475
1.29549
0.823606
0.715626
0.766998
1.29766
0.828542
0.804111
0.754531
0.806253
0.982614
0.930437
1.06115
1.33661
1.18238
0.936611
1.16534
0.914331
1.371
0.703522
1.23367
0.890442
0.696361
1.31996
1.34257
0.883153
0.898313
1.36435
1.08943
0.905779
0.851308
1.1836
1.2816
1.14016
0.874521
0.881989
1.20213
1.04317
0.844777
1.07178
0.764743
0.817842
0.950209
1.19423
0.719751
0.939897
1.2409
0.937739
0.714971
0.957662
0.874549
0.928795
1.11781
1.13323
0.851434
0.800401
0.808046
1.16229
1.13195
0.983411
1.14371
0.937952
0.828412
1.10304
0.934314
0.697909
1.12996
1.27241
1.07985
1.30627
1.28089
1.37678
0.869529
0.669043
0.997706
0.960777
0.918065
0.726448
1.09907
1.30948
1.15972
1.09743
0.86777
0.986619
1.15988
1.04846
1.11999
0.881899
0.992389
0.929393
0.748142
0.853711
0.897213
0.878068
0.825382
1.13899
1.04295
0.966802
1.14533
0.86709
0.989756
0.869454
0.962352
0.943495
0.907185
1.09088
0.737467
0.670383
1.00231
0.763057
0.732388
1.09853
0.715439
0.731122
1.2667
1.15003
0.861113
1.14041
0.810309
1.13712
1.06451
0.765865
0.872242
1.22179
1.00601
1.17437
0.515932
0.840734
1.26544
0.921664
0.824582
0.642885
0.745982
0.713197
0.757742
0.932605
1.15149
0.827845
0.706642
0.849264
0.915011
1.37315
0.849098
1.18276
1.0856
0.72867
0.948397
0.857013
0.791674
1.1227
0.937226
1.31537
1.14011
0.850371
0.943958
1.07297
1.36716
1.15555
1.28835
1.19201
0.935553
1.06462
0.983616
0.84089
0.743189
0.90436
0.889862
1.13137
0.87338
0.773483
0.86797
0.932412
0.865377
0.877667
1.24762
0.923976
0.899399
1.30474
1.23879
0.850409
1.03104
1.28121
0.891041
0.702771
0.945309
0.833535
0.791462
1.27063
0.851698
0.970567
1.28095
0.729795
1.05695
0.865441
1.06062
0.947373
0.893843
0.463018
0.951419
0.769582
0.924857
0.959214
0.961709
1.16154
1.31313
0.861559
1.03719
0.920567
0.806917
0.693197
1.23258
1.10084
0.932487
0.773058
1.08138
0.769487
0.857493
0.862187
0.846015
1.1715
1.30078
0.928597
1.15677
1.35379
1.24586
1.22926
1.2933
0.904196
0.913287
0.792998
1.36641
1.21591
1.26061
0.885546
0.950975
0.704396
1.17356
0.935858
0.843297
1.26192
1.1206
0.780489
0.94458
0.860664
0.868054
0.870483
0.945852
0.965576
0.820953
0.926807
0.752194
0.95126
0.826843
1.11342
0.986903
0.719669
1.28691
1.30623
1.1873
0.907861
1.06556
0.705181
1.20607
1.05622
0.776863
1.28068
0.618577
1.31703
0.749359
0.97785
0.997135
1.18841
1.19618
0.864893
1.33839
0.879449
1.24233
0.973936
1.10751
0.915975
0.84295
0.898167
1.24466
0.99094
1.36029
1.16627
0.743969
0.854326
1.13117
0.644496
0.912765
0.977439
0.817078
1.32291
0.789857
0.766768
1.21165
0.893896
1.31558
1.35122
0.961424
1.36287
1.32812
1.25665
1.26818
1.08039
0.785838
0.865423
0.954586
1.23348
0.957631
0.620106
1.33729
0.828356
0.990717
0.85699
1.29276
1.368
0.828594
1.24699
1.08688
1.31149
0.947251
1.19422
0.977597
1.33933
1.35714
1.14078
0.862972
1.20158
0.905906
1.01442
1.03911
0.977326
1.09351
0.873159
0.626536
0.79819
0.993323
1.1086
1.04851
1.26399
0.845725
0.936379
1.11102
0.798652
1.30097
0.846093
0.977925
1.27935
1.2587
1.06781
1.34494
0.854725
0.941645
1.19409
1.01707
0.979032
0.978823
0.902632
1.13338
1.15997
0.903705
0.86669
1.06832
0.742172
0.819032
1.31783
1.3481
1.35999
0.957972
1.3586
1.36658
1.32908
0.684812
1.08908
1.09004
1.34211
0.922587
0.855067
0.772109
0.862318
0.588342
1.33714
1.0055
1.02259
1.20022
1.14666
0.922075
0.974825
1.36654
1.33355
1.28865
1.1392
0.924463
1.15953
1.12152
0.925813
0.999453
0.796393
0.854513
1.03251
1.00723
0.912708
1.31216
1.31662
0.694877
1.25957
0.87447
0.877096
0.938548
1.30509
0.96503
1.14932
0.990706
1.28996
0.942274
0.987963
1.35365
0.696383
0.742579
0.854704
0.827158
0.667696
0.360967
0.837796
0.664958
1.01569
0.689773
0.801973
1.00964
0.907683
0.842803
0.921581
0.778221
0.422219
1.32654
1.22359
0.948941
0.77546
1.22569
0.933127
0.854202
1.35424
0.842619
1.35149
0.968019
1.2694
0.948144
0.72608
0.798125
1.04539
1.04938
1.01839
0.735246
0.944713
0.807088
0.826429
0.875923
0.722238
0.786813
1.33225
0.841925
1.17441
1.20684
0.92536
1.18636
1.2119
0.774246
0.373543
0.976816
0.742918
0.675272
1.16925
1.18833
0.953163
1.11743
0.927869
1.35331
1.32537
0.988603
0.91345
1.3404
1.27291
1.10299
1.10284
0.938715
1.35696
1.02505
0.691879
1.29496
1.22627
1.31529
1.05225
0.865591
0.936259
1.19207
1.12952
0.263956
1.37786
0.974305
0.857877
1.05272
1.2443
1.3483
1.35712
1.11942
0.999393
1.22093
1.27833
1.27481
1.16512
1.23222
0.737378
0.87668
1.07019
0.79433
0.725277
0.724379
0.969856
1.21633
0.747538
1.03995
0.870309
1.21481
1.35747
1.00819
0.785056
0.714536
1.15876
0.903625
0.857254
0.70811
1.29086
1.08038
1.09957
0.766257
1.08976
0.850586
0.8718
1.175
1.21328
1.29129
1.36847
0.836883
1.27813
0.693846
1.29648
1.303
1.31299
1.21134
0.819163
0.818507
0.963424
0.693453
1.01404
0.721178
1.07416
0.772484
1.26024
0.930329
0.706197
1.26063
1.17095
0.990855
0.992775
1.16398
1.29533
1.07105
1.02172
0.6995
1.236
1.01626
1.32521
0.66938
1.01024
1.29732
1.18101
1.34554
1.17472
0.945856
0.655091
0.705936
0.999771
0.727818
1.33265
0.710136
0.868171
0.985464
0.847497
1.19922
0.671472
1.27801
1.19388
1.10275
0.62451
1.11492
0.812649
0.908999
1.01161
0.985291
0.944072
0.937161
1.21836
0.832407
1.35396
0.930451
0.968461
1.14771
1.1672
1.33394
0.946388
0.994608
0.845635
0.995812
0.915692
1.32131
0.861737
1.02662
0.935631
1.23386
0.897534
1.05313
0.780423
1.35858
0.688262
0.819187
0.871864
1.24262
0.712601
0.709609
0.806794
0.76904
1.31329
1.01831
1.14974
1.27115
1.12285
0.988868
1.36025
0.99932
1.17414
1.12674
1.04193
0.725641
1.06032
1.01408
0.889903
1.05837
0.789608
0.742807
1.06455
0.904136
0.822525
1.21706
0.991663
1.12476
1.00774
1.31459
0.982053
0.961621
1.12919
0.77179
0.854255
0.938104
1.04786
1.07468
1.13144
1.30293
1.15829
1.23504
1.05375
1.28107
1.33756
1.33011
1.01936
1.02313
1.08533
0.788475
1.34693
1.27323
1.24317
1.03265
0.829641
0.734315
1.08823
1.17372
0.853706
1.2369
1.27042
1.11505
0.873798
1.02574
0.89707
0.844421
1.03752
0.880606
1.09881
0.708067
1.09717
0.980815
0.989247
0.674915
1.07042
1.02774
1.15943
0.933657
1.08548
1.30688
1.32021
1.11023
0.973223
1.235
1.05613
0.859568
0.848286
0.967049
0.757166
1.2985
1.00437
1.07115
1.19677
1.1697
1.10472
0.780769
1.35597
1.1192
0.862144
1.01508
1.04297
1.23448
1.30582
1.12316
1.10383
0.719988
0.828201
1.00004
1.10658
1.02523
1.11499
0.886001
1.31567
1.0973
1.18204
1.28373
1.07576
0.854332
1.03827
1.34557
0.926573
0.709857
1.03256
1.34892
0.914481
0.973418
1.22501
1.16637
1.25168
1.01848
0.723589
1.11225
0.779292
0.923626
1.25351
1.01715
0.795282
0.85973
0.908937
1.13137
0.924454
0.883405
1.28116
0.868984
1.36086
1.25113
0.773664
0.65622
1.00826
1.17568
1.27604
1.02627
0.998497
0.826995
0.961755
0.983039
1.3666
1.29921
1.17687
0.919551
0.73989
1.28575
1.36013
1.31534
1.23565
1.29259
1.03148
0.779367
0.689794
0.713294
1.32882
1.03769
0.797445
0.94667
1.35835
0.940235
0.876836
0.753502
1.02411
0.839631
1.34099
1.12004
1.18687
1.29592
1.25322
0.981934
1.15143
1.03388
1.15201
0.920032
1.11269
0.888958
1.32399
0.742866
0.913501
0.784507
0.954463
1.30472
0.938587
1.25408
1.26589
1.29945
0.81237
1.02777
0.993999
0.838119
1.31489
1.04898
1.05115
1.114
0.543941
0.955231
1.29924
1.15092
1.3181
0.699999
0.813917
0.94897
1.32755
0.839428
0.989245
0.827523
0.767404
0.920823
1.30457
0.953038
1.00527
0.762764
1.3318
1.34906
0.559659
1.29218
0.923698
0.818113
0.822562
1.0416
0.735448
1.11349
0.923524
0.917244
0.965556
1.25289
1.031
1.24878
0.963669
0.808554
0.960188
0.699534
0.733881
1.01539
0.89333
1.06589
0.822835
0.985791
1.26714
1.10417
0.918207
0.722216
1.28303
1.03903
0.994038
1.3677
1.06693
0.910748
0.869323
0.775099
1.33577
0.898704
0.999749
1.12479
0.757549
1.29076
0.750739
1.27732
1.02103
1.20645
0.831945
1.20955
0.997265
0.774884
0.855365
1.02039
1.29774
0.653933
0.860378
0.949884
1.331
1.3536
0.818652
0.900983
1.10569
1.31481
0.976073
1.31178
1.2762
1.24332
1.19917
1.0907
1.12961
1.10374
1.31832
0.990629
1.04505
0.817584
0.870618
0.981819
0.828418
1.33942
0.743548
1.30346
0.974479
1.33019
0.892526
1.34275
1.20612
1.2407
1.3324
1.30658
1.36508
0.971086
1.28603
1.01617
0.941635
0.859922
0.827292
1.31828
0.745947
1.12571
1.13148
0.987185
1.11338
0.879564
1.2962
1.06609
1.21403
0.680254
0.858613
0.946433
1.33245
0.828542
1.15694
0.877838
0.94759
0.789722
0.973087
0.930917
1.24097
1.32519
0.748246
1.11724
0.949343
0.899581
1.2616
0.835532
0.866718
1.33704
0.715011
1.0577
1.17909
1.31246
1.35626
0.8877
0.876903
0.758179
0.941826
0.844137
0.946094
1.19335
0.923542
0.777211
0.999649
1.02716
0.915594
0.845474
0.946186
1.03692
0.779752
1.22911
1.20912
0.895668
1.21871
0.714312
0.753242
0.829171
0.698105
1.34375
0.93163
0.932203
0.88069
1.25902
1.31694
1.07958
1.19495
0.863739
0.861828
1.03266
0.932899
0.857099
1.31618
1.08013
1.12378
1.34643
1.23519
0.998119
1.33214
0.747153
1.08493
1.0796
1.13796
0.91797
1.30969
0.926321
1.12415
1.01094
0.91491
0.827083
0.88617
1.20628
1.26461
1.29252
1.03697
1.05978
1.31888
1.21776
1.00677
1.05585
0.801961
0.970093
1.25218
0.742559
1.2764
0.933598
1.28735
1.35539
1.32214
0.926531
1.24909
1.27956
0.652098
1.31426
0.856905
1.32719
1.23963
0.949479
0.814583
1.07566
0.974633
0.89893
0.8645
1.20633
0.901125
1.33797
0.81688
0.89532
0.835626
0.813696
0.93372
1.26136
1.35238
0.811741
1.19805
1.04225
1.12944
0.984689
1.0974
1.30969
1.24685
0.940868
1.30016
1.26115
1.35129
0.809071
0.92572
0.857596
1.20285
1.34306
1.27127
1.00069
1.34624
1.01388
0.758395
0.813431
0.651803
0.989827
0.791954
1.3492
1.36354
1.06652
1.35889
1.25309
1.08175
1.34037
0.804659
1.30538
0.970067
1.31668
0.941132
0.821791
1.2027
1.07328
1.32826
1.30955
1.31412
0.841768
0.844207
0.734884
1.26982
1.24486
0.805453
1.02383
1.24595
0.692387
0.901325
0.838856
0.964006
1.11287
0.955059
1.08031
1.15997
1.05045
1.06266
1.21719
0.936998
0.959065
1.12331
1.05446
0.942009
1.28854
1.32188
0.809525
1.23892
0.677989
0.892479
1.29099
1.22068
0.939334
1.32209
0.799802
1.21041
0.962262
0.951745
1.29717
0.944665
1.22028
1.20176
1.15874
1.36991
1.17262
0.762448
1.1476
0.982059
1.22561
1.3635
1.15934
1.01415
0.858427
0.952743
1.29949
0.79034
1.2425
0.847204
1.08557
1.22775
1.21113
1.04644
1.29434
1.34737
0.948353
0.93783
1.06253
0.833987
0.78584
1.08659
1.20632
0.850708
0.766017
0.83496
0.767754
1.20453
1.01124
1.23253
0.884658
1.3197
1.04068
1.26242
1.34228
0.872573
1.30817
0.931657
1.07036
1.03008
1.27583
0.869362
0.974787
1.03912
0.831432
0.948377
0.812386
0.792118
0.679782
1.34431
1.35319
0.847295
0.889284
1.22321
0.743797
0.839675
0.944563
1.1881
1.20782
0.719668
0.680062
1.30771
0.875917
1.11345
0.869327
0.751758
0.817442
1.04387
1.27225
1.11836
0.745997
1.32256
1.26849
0.853532
1.10969
0.93096
1.34372
0.952277
0.983236
0.775122
1.16626
1.31722
1.13011
1.03778
0.875027
1.00162
1.10875
1.344
1.36273
0.863436
1.35063
0.884683
1.09442
1.08735
1.00471
0.922184
1.28166
0.922307
1.07184
0.859337
0.896284
0.938666
0.821952
1.16095
1.31922
0.858143
0.902513
1.07867
0.931844
0.828278
0.699292
0.922592
1.26094
0.63117
0.929525
1.18353
1.08343
1.00069
1.16523
1.25238
0.810916
0.800297
1.26254
0.989585
0.799518
1.02152
1.27243
1.14989
1.10397
0.867863
0.870732
0.858713
1.3437
1.26705
1.35561
0.994327
1.17968
0.793327
1.03183
1.2738
0.75212
0.760598
1.21145
1.27114
0.735061
0.903422
0.85094
0.786955
0.849197
1.36058
0.972347
0.898515
1.03286
0.856406
1.19329
1.05802
0.781237
0.901441
1.2163
0.997943
1.3479
0.781704
0.900113
1.13587
1.12595
1.01907
1.11047
0.827709
1.35423
1.28189
1.14041
1.2819
0.86777
1.27349
1.1601
1.12126
1.33087
0.744805
0.916973
1.35732
1.16458
0.733237
0.937895
1.23987
1.35515
1.03498
1.21959
0.863204
0.770122
0.844162
0.732298
1.27421
0.885739
1.06177
1.33406
0.862716
0.809624
0.881819
1.05793
0.885914
0.930725
0.861302
0.808085
1.00195
1.24545
1.33072
1.17695
0.922165
0.914086
0.714224
0.90868
1.14349
1.12395
1.14682
1.19333
0.91603
1.03406
1.24249
1.27765
1.35851
1.29918
1.33497
1.00898
0.796367
0.85045
0.807364
1.34488
1.06251
0.891455
1.32959
0.799876
1.24347
1.18721
0.908931
0.863478
0.914982
0.883529
1.27546
0.982693
1.19001
1.02219
1.3276
1.09913
1.37146
0.843985
1.03051
0.918834
0.670322
0.934685
1.20456
0.786984
0.523148
1.10431
1.3091
1.22726
0.885311
0.786167
0.849004
0.803222
0.866584
0.797538
1.00273
0.82079
1.21402
0.840502
0.883378
1.27626
1.0116
1.11203
1.26322
1.00596
1.06336
0.842253
1.21475
0.986315
0.900616
0.986846
0.824498
0.773421
0.883166
0.842622
1.21576
1.35577
1.28403
1.09587
1.18768
0.741929
1.34924
1.09024
1.19208
0.867391
1.19998
0.938303
0.943099
1.2534
1.32091
1.21292
1.11047
0.945216
1.36559
0.935392
1.24099
1.33919
1.17578
0.971
0.736521
1.24124
1.07108
0.816463
1.1631
1.06859
1.32511
0.880726
1.33422
1.35998
0.990668
0.843424
1.33828
0.78602
0.827032
0.943795
0.826995
0.918169
0.824686
0.785367
1.02007
0.882236
0.844161
0.918512
1.11641
0.90307
0.872316
1.15736
1.05824
0.744305
1.32048
1.34749
1.34152
0.869903
0.742332
1.37418
0.774796
0.998861
0.842441
0.944944
0.863524
1.20801
0.922061
0.93507
0.766583
0.748806
0.817217
0.922169
0.72204
1.04232
1.08728
1.03279
1.32827
1.05534
1.15218
0.966092
1.26475
0.959786
0.939297
1.3612
0.942963
1.05841
0.789479
1.17094
1.354
0.99473
1.11917
1.06467
0.939266
0.86327
0.860172
0.819234
1.21943
0.834962
0.982505
0.93286
0.994313
0.848156
0.861283
1.00458
0.975301
0.901949
1.34289
1.01096
0.966899
1.10792
1.32522
0.937407
0.753002
1.22705
0.788177
0.961469
0.855832
1.0007
0.92999
0.91665
0.998144
1.35278
1.28216
0.765354
0.900288
0.744146
0.839078
0.733078
0.82344
0.924032
0.839985
0.938554
1.13595
1.36158
0.93304
1.19346
1.0414
1.34407
0.924045
1.35605
1.13768
0.791512
1.12538
1.1971
0.94412
1.26528
0.854162
1.29241
0.891498
0.583534
1.01703
1.36276
1.34063
1.21982
1.1353
1.17614
0.75331
0.91496
1.17179
1.37016
0.599193
1.01612
0.855235
0.954341
0.986914
0.854286
0.802971
0.893577
0.819248
0.897577
0.968895
0.990346
1.36763
1.2655
0.727294
1.23322
0.839618
0.847931
1.24761
0.885761
0.960263
1.16436
0.655585
0.870867
1.02818
1.28597
0.808166
0.878418
0.950775
1.13633
0.807625
1.32659
0.740677
0.933181
0.959458
0.882479
1.13689
1.13755
1.32829
0.858591
1.20684
1.10034
1.12602
0.86226
1.1355
0.836105
0.797208
0.702868
1.08103
1.02326
0.958703
1.29323
1.02195
1.0466
1.13122
0.852536
0.832664
0.929247
1.10458
0.870108
1.35922
0.786375
0.742824
0.94722
0.935576
0.876173
0.841006
1.19086
0.943487
1.03301
0.799377
0.854803
1.03763
0.773582
1.3597
1.33243
0.808419
0.849014
1.25992
1.03144
0.85463
0.785393
0.848863
0.806951
1.09263
1.3117
0.853508
0.747549
1.13517
1.00878
0.742317
0.807964
1.00941
1.18663
1.35754
0.793629
0.755785
1.1146
1.27059
0.981847
1.08492
0.95692
0.858713
0.937841
1.13876
1.02085
0.86604
1.24432
0.954949
0.71253
1.07781
0.884195
1.25008
1.36952
0.873407
0.928251
0.940073
0.923676
0.794128
0.939616
0.804115
1.33311
1.25555
1.18931
0.930363
0.761508
1.237
1.35002
0.869588
1.07103
0.930257
0.675809
1.0562
0.939524
0.688933
0.832689
1.10844
0.789253
0.747307
0.820157
1.21476
0.772744
1.24449
0.98189
0.881603
0.971859
0.841781
1.25083
0.712809
0.934471
0.984005
0.793327
1.07861
1.17144
1.10358
1.02965
1.22712
0.809431
0.807621
1.308
0.860361
1.3025
1.11915
0.989084
1.07008
1.28735
1.00776
0.741488
1.32349
0.856058
0.992725
1.27923
0.85129
1.33502
0.863375
0.958561
0.657029
0.947834
0.817958
1.02023
0.830704
0.711322
0.811767
0.810357
0.681083
1.31247
0.809255
0.952613
1.08901
1.02054
1.35304
1.35528
0.922466
0.992024
1.25325
0.912305
1.31376
0.691455
0.966075
1.0575
0.872328
1.26325
0.929178
0.933864
0.902769
0.863869
0.836624
0.720298
1.28895
0.454264
1.31936
1.19432
0.834075
0.751645
0.819847
1.36233
1.18148
1.14984
0.996429
1.07763
0.985069
1.28584
1.22488
0.844603
1.11947
1.33281
1.00251
1.06674
1.12377
0.724658
0.803499
1.22364
0.944052
0.988743
1.3367
0.805337
0.697329
0.878536
0.989409
1.01161
1.34265
0.869293
0.770079
0.868756
0.985027
0.876838
1.30347
0.986409
0.818932
0.938628
0.867232
0.850854
0.917041
1.12699
1.01788
0.836063
1.2934
0.95106
1.22797
0.837767
0.801343
0.946636
1.2851
1.34524
1.23083
1.05056
1.02352
1.23847
1.33544
0.784196
1.31795
0.815409
1.15849
1.14458
1.29717
1.04673
1.28744
1.32037
0.870285
0.847477
0.954623
1.0212
0.810907
0.801937
0.732859
1.21124
1.26964
0.781056
1.32567
1.04119
1.2295
1.00158
0.836887
1.25594
1.23265
0.928014
0.897761
0.817446
1.35985
1.18417
1.37372
0.787544
0.81102
0.970604
1.27084
1.13889
1.26324
1.05653
1.33791
0.885782
0.971628
1.06766
0.905237
1.12441
0.697523
1.24741
1.01423
1.06709
1.31918
0.776587
0.785596
0.708528
1.07959
1.29679
0.902276
1.1502
0.711186
0.765198
0.995165
0.888238
0.859837
1.27112
1.0124
0.858919
0.969758
1.09445
1.32008
1.08655
0.967962
1.28958
1.02871
1.33804
1.06169
1.19382
0.975296
0.779916
1.3601
0.834144
1.06084
1.10873
1.31307
1.17606
1.02161
0.86026
1.36602
0.959936
0.830514
1.2205
1.35061
1.20189
1.15309
0.770393
0.702311
1.08343
0.838542
0.951476
1.05468
0.835757
1.32014
1.35455
1.31927
0.896424
0.944627
0.858572
0.931075
1.15354
0.810485
1.17734
1.32902
0.778324
0.933802
0.875437
1.24887
1.16022
0.945723
0.843039
1.19993
0.852888
0.678253
0.814615
1.36958
0.708134
1.24369
1.10888
0.851728
1.32175
1.09081
1.35212
0.650344
0.933474
1.05394
1.32572
0.933071
1.31329
1.09486
0.709104
1.02923
0.894591
0.944353
0.70269
1.2313
0.936395
0.841983
0.74969
1.03042
1.2769
0.639061
0.904082
1.29262
0.957173
1.28047
0.690501
0.850958
0.860142
0.985704
0.919979
0.767068
0.852093
0.656748
0.962068
0.973209
1.23078
1.05924
1.29589
0.851335
0.940324
0.770972
1.02494
0.649672
0.941776
1.37193
0.987398
0.92246
1.36566
0.839925
1.07654
1.12472
0.748276
0.906749
1.00488
1.0802
1.33142
1.34834
1.35196
1.09131
0.959679
0.994996
0.820192
1.25685
1.14918
0.872753
0.899734
0.913061
0.998687
1.35591
0.97527
1.35045
0.939755
1.11472
0.823741
0.858086
0.75865
0.892556
1.30638
0.911555
0.780623
0.814814
1.36436
0.906423
0.837225
0.831431
0.856563
1.18324
1.05261
1.05958
0.961515
1.17467
0.755802
1.00442
1.03746
0.92759
1.28193
1.29366
0.830765
1.30152
1.32587
1.28471
1.0511
0.962484
0.900744
0.9824
1.33914
1.00387
1.09381
1.29467
1.35481
1.32611
1.28987
0.856425
1.13665
1.01922
0.840571
0.739467
0.971094
1.28079
1.3633
1.33773
0.904015
0.814368
0.804339
0.736553
1.14446
1.35882
1.12986
1.20957
1.22849
1.22812
1.20254
0.843161
0.92372
0.887684
0.814973
0.872162
0.952064
0.791059
0.904851
0.866515
1.31389
1.10965
0.74372
1.34433
0.879739
0.870848
0.987114
0.824502
1.19212
1.19826
0.883417
1.10696
1.35178
1.35533
1.15437
1.18254
0.997767
1.04092
0.982381
0.770392
1.07646
1.08343
0.895124
1.15354
1.12077
0.783419
0.534476
0.886194
1.33841
0.910045
1.17973
0.943507
1.31527
0.977094
0.83482
1.24576
1.15744
1.15475
1.0854
0.799945
0.929253
0.778401
1.15447
0.847151
1.26092
0.941148
0.875429
1.10634
0.766216
0.950524
1.36093
0.773245
1.18528
0.889887
0.824835
0.941352
0.970709
1.28114
1.29944
0.949783
1.33745
0.743413
1.30925
1.25167
1.21395
0.86864
1.27608
0.812059
1.19788
1.1434
0.679586
0.949115
0.800432
1.33927
1.17925
0.762857
0.815379
0.99729
0.841345
1.17183
0.834149
1.07512
1.36426
0.881713
1.34667
1.08272
1.15305
0.752858
1.26998
0.869221
1.29827
0.507108
0.821404
1.14706
1.23438
1.04819
1.17555
0.832661
0.961582
1.19962
1.1543
0.881437
1.20801
1.1644
1.29317
0.713547
0.954335
0.683068
1.08142
1.19351
1.08462
0.610229
0.916503
1.32186
1.10673
0.927323
1.3052
0.984212
1.19214
0.77253
0.979151
0.84096
1.30433
1.34008
1.17419
1.00345
0.949722
0.818151
1.15901
0.865494
1.26997
0.762305
1.00845
0.783261
0.722087
1.09611
1.31036
1.01066
1.00008
0.86813
0.843476
1.25349
0.993399
1.01027
1.37187
1.1565
0.887349
1.20539
1.28053
0.953632
0.798358
0.808663
1.0388
0.8617
0.928045
0.628212
1.14202
0.974833
1.28886
0.790805
1.20081
1.27794
0.98641
0.830711
0.943241
0.879826
0.969969
0.699623
1.0861
1.08053
1.0267
1.2758
1.26892
0.787847
1.33266
1.02144
1.28592
1.18676