/*--------------------------------*- C++ -*----------------------------------*\
  =========                 |
  \\      /  F ield         | OpenFOAM: The Open Source CFD Toolbox
   \\    /   O peration     | Website:  https://openfoam.org
    \\  /    A nd           | Version:  6
     \\/     M anipulation  |
\*---------------------------------------------------------------------------*/
FoamFile
{
    version     2.0;
    format      ascii;
    class       volVectorField;
    location    "0";
    object      U;
}
// * * * * * * * * * * * * * * * * * * * * * * * * * * * * * * * * * * * * * //

dimensions      [0 1 -1 0 0 0 0];

internalField   nonuniform List<vector> 
13046
(
(-0.392746 -0.296494 0)
(-1.01843 -0.79463 -5.03682e-22)
(-0.510458 -0.392759 -1.66776e-21)
(-0.563262 -0.438292 0)
(-0.448115 -0.323556 -1.4065e-21)
(-0.918978 -0.741798 0)
(-0.560761 -0.434522 2.39262e-22)
(-0.971675 -0.789897 2.27531e-22)
(-0.403308 -0.276404 -1.66445e-21)
(-0.0627973 -0.214835 2.09537e-21)
(-0.973919 -0.716037 0)
(-0.0780518 0.0928715 1.34232e-21)
(-0.385815 -0.316823 -8.28475e-22)
(-1.11352 -0.869311 -2.4243e-22)
(-0.390515 -0.272025 1.12128e-21)
(0.00685749 -0.165012 -2.14817e-21)
(-0.121493 -0.0013728 3.29149e-21)
(-1.05254 -0.726083 -1.24104e-21)
(-0.429656 -0.306374 0)
(-0.758172 -0.618816 -6.90531e-22)
(-0.761063 -0.586443 2.39708e-21)
(-0.00787265 -0.177059 -1.08044e-21)
(-0.110556 0.0188053 -4.39164e-21)
(-1.04713 -0.728777 0)
(-0.487208 -0.37103 9.54713e-22)
(-0.916366 -0.721407 -1.53306e-21)
(-0.532903 -0.412273 0)
(-0.332986 -0.273962 -1.57541e-21)
(-1.13259 -0.873593 8.93265e-23)
(-0.396516 -0.285107 -1.68579e-21)
(-0.345216 -0.257839 0)
(-1.0437 -0.799077 0)
(-0.521266 -0.41314 1.69595e-21)
(-0.515393 -0.390189 -1.10924e-21)
(-0.566564 -0.446068 5.12525e-22)
(-0.850504 -0.67169 2.6768e-21)
(-0.561482 -0.427777 -1.62155e-21)
(-0.56101 -0.432392 8.41755e-22)
(-0.814627 -0.646687 -1.36437e-21)
(-0.230643 -0.143284 1.18066e-21)
(-0.719869 -0.630785 3.40558e-22)
(-1.00794 -0.741368 -1.05684e-21)
(-0.653599 -0.507932 6.81607e-22)
(-0.590123 -0.457509 1.21197e-21)
(-0.693949 -0.550644 0)
(-0.675173 -0.523496 5.15189e-22)
(-0.527604 -0.400297 -1.87245e-21)
(-0.725374 -0.580812 -2.26425e-22)
(-0.41224 -0.319046 0)
(-1.02891 -0.809313 -3.08125e-23)
(-0.462664 -0.350714 -2.25441e-23)
(-0.906211 -0.832624 1.17812e-21)
(-0.119255 -0.0254119 0)
(-1.00379 -0.697587 -1.62959e-21)
(-0.972543 -0.895497 -1.63542e-21)
(-0.965283 -0.677818 -3.21582e-21)
(-0.10831 -0.00657169 1.87515e-21)
(-1.21392 -0.805556 1.87851e-22)
(-0.00781653 -0.0846114 0)
(-0.371024 -0.319669 1.7445e-21)
(-0.514179 -0.414963 -1.01277e-21)
(-1.17302 -0.967322 -8.10736e-23)
(-0.207997 -0.0484803 -4.0082e-21)
(-0.144557 0.012941 2.3672e-21)
(-1.15738 -0.873451 5.90303e-22)
(-0.181332 -0.248736 -2.48346e-21)
(-0.000683955 -0.0649065 0)
(-1.2217 -0.797804 0)
(-0.437188 -0.402996 0)
(-0.0177767 -0.0649295 -6.46295e-22)
(-1.222 -0.806797 0)
(-0.466292 -0.433661 1.25037e-21)
(-1.19657 -0.779912 0)
(0.012803 -0.0832803 3.17676e-23)
(-0.338697 -0.29346 -3.28238e-23)
(-0.396012 -0.280115 0)
(-0.749211 -0.620147 8.40475e-22)
(-0.808829 -0.627378 -1.57053e-21)
(-0.257559 -0.189259 2.00032e-21)
(0.0103544 -0.112938 -2.67745e-21)
(-1.16813 -0.772013 0)
(-0.496283 -0.378771 5.11813e-22)
(-0.938679 -0.743379 0)
(-0.490472 -0.366079 0)
(-0.129465 0.0302559 -2.14625e-21)
(-1.12517 -0.841449 5.94785e-22)
(-0.144273 -0.236523 1.52373e-21)
(-0.362346 -0.340065 -3.05023e-21)
(-0.113813 0.0760002 0)
(-1.16532 -0.948598 3.87986e-22)
(-0.066583 0.130119 0)
(-0.55285 -0.416861 0)
(-1.13925 -0.995859 -5.79274e-23)
(-0.263951 -0.261524 0)
(-0.272386 -0.272372 1.06138e-21)
(-1.21011 -0.922755 -6.72789e-22)
(-1.21034 -0.929145 3.305e-22)
(-0.266383 -0.134473 -9.83922e-22)
(-0.231191 -0.0888556 2.42399e-21)
(-0.110058 0.0809849 -1.1392e-22)
(-0.420355 -0.372587 2.98413e-21)
(-1.16705 -0.969494 0)
(-0.65996 -0.510685 -3.25169e-24)
(-0.495674 -0.370509 9.97688e-22)
(-0.77989 -0.630028 0)
(-0.18141 -0.0599673 0)
(-0.846793 -0.61534 -9.56862e-22)
(-0.976336 -0.863938 0)
(-0.169738 -0.0741672 2.04008e-21)
(-0.857997 -0.768004 0)
(-0.972561 -0.70213 -3.08383e-21)
(0.0293761 -0.180221 0)
(-0.0394966 0.124146 0)
(-0.741541 -0.536357 1.71051e-21)
(-0.415474 -0.33153 2.31633e-21)
(-1.08085 -0.843898 2.48834e-22)
(-0.410791 -0.289847 1.5953e-21)
(-0.161918 -0.203792 1.21385e-21)
(-0.201247 -0.220446 -2.19861e-21)
(-1.21176 -0.887863 6.42653e-22)
(-0.254731 -0.13911 1.10005e-21)
(-1.21426 -0.901917 -5.41029e-22)
(-0.277071 -0.16095 -1.02789e-21)
(-0.0267059 -0.2015 -2.09152e-21)
(-0.927296 -0.67019 1.88464e-21)
(-0.0679655 0.0976648 -6.02236e-22)
(-0.28219 -0.253833 0)
(-1.18815 -0.908448 1.39883e-22)
(-0.330457 -0.218808 2.12686e-21)
(-0.232528 -0.154514 0)
(-0.663602 -0.576373 -1.49805e-21)
(-1.0425 -0.769754 6.48272e-23)
(-0.0701938 0.120076 0)
(-0.58796 -0.438243 0)
(-1.15774 -1.01629 0)
(-0.302153 -0.302292 0)
(-1.19949 -0.939018 1.44774e-21)
(-0.176728 -0.0128997 -2.61177e-21)
(-0.318462 -0.246497 0)
(-1.08425 -0.827528 0)
(-0.495776 -0.393902 0)
(-0.617621 -0.481099 0)
(-1.0588 -0.881279 0)
(-0.278249 -0.140181 0)
(-0.156627 -0.0528277 0)
(-0.905084 -0.812076 0)
(-0.959008 -0.685681 1.73609e-21)
(-0.208764 -0.0864574 -2.08283e-22)
(-0.833914 -0.618176 -2.07014e-21)
(-0.970021 -0.844993 1.19801e-21)
(-0.471026 -0.391702 2.92845e-21)
(-1.18748 -0.970672 0)
(-0.201717 -0.0466547 5.26709e-21)
(-0.296912 -0.171683 0)
(-0.741595 -0.567546 1.86875e-21)
(-0.93819 -0.796353 -2.39813e-22)
(-1.07468 -0.973195 0)
(-0.860102 -0.608669 2.72077e-21)
(-1.1149 -0.997898 0)
(-0.79802 -0.572597 1.7047e-21)
(-0.109939 0.0189959 0)
(-0.112145 0.027244 0)
(-0.720908 -0.546187 3.03027e-22)
(-1.03755 -0.888198 3.29137e-22)
(-0.22922 -0.0987486 -9.33801e-22)
(-0.10373 -0.233305 -2.30627e-21)
(-0.0791306 0.103892 0)
(-0.981638 -0.73879 1.92216e-21)
(0.0170066 -0.18737 -1.97259e-21)
(-0.047714 0.116162 -2.68179e-22)
(-0.809733 -0.583282 0)
(-0.25662 -0.278592 -1.90357e-21)
(-1.19417 -0.923879 0)
(-0.171019 -0.014348 2.97533e-21)
(-0.143744 -0.0955191 0)
(-1.12608 -0.798517 2.16283e-22)
(-0.653633 -0.592458 9.33623e-22)
(-0.758728 -0.564753 1.85487e-21)
(-0.233914 -0.104669 4.40419e-22)
(-1.00145 -0.855133 0)
(-0.0824625 0.112103 0)
(-1.04143 -0.818926 0)
(-0.204861 -0.270439 2.14125e-21)
(-0.169698 -0.10693 0)
(-1.09227 -0.780707 -5.47906e-22)
(-0.679793 -0.602548 2.27744e-22)
(-0.265344 -0.144616 0)
(-0.759551 -0.573642 0)
(-0.9416 -0.808563 0)
(-0.620573 -0.487458 8.31631e-22)
(-1.02749 -0.854926 0)
(-0.300323 -0.168466 0)
(-1.14109 -0.902187 3.64002e-23)
(-0.332797 -0.205394 -1.19736e-21)
(-0.320604 -0.274784 2.48585e-21)
(-1.17254 -0.901304 0)
(-0.3449 -0.226737 -2.66491e-21)
(-0.249185 -0.290575 -2.99727e-21)
(-0.114809 0.0698908 1.89644e-21)
(-1.13094 -0.887923 2.53273e-21)
(-0.0945401 0.0957398 1.67685e-21)
(-0.53539 -0.422292 1.86825e-21)
(-1.17489 -1.00967 -1.55257e-21)
(-0.440888 -0.370112 -6.1662e-21)
(-1.13237 -0.953683 0)
(-0.0847918 0.117518 -1.66248e-21)
(-0.917477 -0.867998 -6.85292e-23)
(-1.07431 -0.711323 7.51326e-22)
(-0.0583063 0.0157719 0)
(-0.507661 -0.403166 -3.86761e-21)
(0.0232207 -0.0977378 1.22358e-21)
(-0.277741 -0.217526 -1.21683e-21)
(-1.17039 -0.767373 0)
(-1.10116 -0.916783 0)
(-0.381567 -0.346501 -6.01522e-21)
(-0.0825892 0.122499 0)
(-0.60104 -0.462507 -2.45496e-21)
(-0.505625 -0.380205 -8.27353e-22)
(-0.82576 -0.664707 1.95781e-21)
(-0.312015 -0.249968 0)
(-1.12875 -0.862359 -1.48524e-23)
(-0.438535 -0.326582 -9.72457e-22)
(-0.0825594 0.104922 1.26057e-21)
(-0.577196 -0.442001 0)
(-1.16778 -1.01861 1.78733e-21)
(-0.497966 -0.393975 3.19762e-21)
(-1.12637 -0.900565 3.35496e-22)
(-0.323383 -0.191901 0)
(-0.0591282 0.126217 0)
(-0.87519 -0.662675 -2.10182e-21)
(-0.0690826 -0.218429 0)
(-0.0615972 0.0229767 0)
(-1.03477 -0.690089 0)
(-0.96077 -0.910643 0)
(-0.452291 -0.384557 5.40901e-21)
(-1.15825 -0.972232 0)
(-0.0954021 0.0998751 1.76672e-23)
(-0.753856 -0.557699 8.86893e-22)
(-1.07828 -0.945166 -2.01426e-22)
(-0.166251 -0.0302902 0)
(-0.245999 -0.22712 0)
(-1.19335 -0.899001 -1.2225e-22)
(-0.348345 -0.24172 1.75988e-21)
(-1.16896 -1.06027 9.22389e-22)
(-0.757928 -0.526311 -3.30897e-21)
(-0.0641146 0.0983323 9.7826e-22)
(-0.800377 -0.566954 0)
(-1.13725 -1.02471 6.59406e-24)
(-0.0920707 0.0521906 -3.37846e-23)
(-0.0544496 0.135013 -1.73665e-21)
(-0.848932 -0.649958 0)
(-0.0802372 -0.216269 -2.83185e-21)
(-0.149925 -0.0723887 1.08849e-21)
(-0.791066 -0.714886 -9.51102e-22)
(-1.04554 -0.744544 1.05891e-22)
(0.101775 -0.163043 2.21838e-21)
(-0.0268069 0.10442 -2.50417e-21)
(-0.682806 -0.453393 0)
(-0.429447 -0.308528 -4.71968e-22)
(-0.711202 -0.550814 -1.96403e-21)
(-0.80209 -0.655287 2.03345e-21)
(-0.639445 -0.494089 1.46134e-21)
(-0.714566 -0.53773 5.42775e-23)
(-1.11634 -0.949731 -3.38387e-22)
(-1.07735 -0.933793 0)
(-0.193774 -0.0547551 8.49062e-22)
(-0.198391 -0.0516705 -9.11164e-22)
(-0.216385 -0.14075 -2.6257e-21)
(0.0185703 -0.118702 1.33642e-21)
(-1.14382 -0.758098 2.48242e-21)
(-0.237808 -0.20983 0)
(-1.18376 -0.882496 0)
(-0.396167 -0.293077 -2.33232e-21)
(-0.753378 -0.539287 -7.90007e-22)
(-1.1585 -1.04026 0)
(-0.0903894 0.0642398 0)
(-0.218135 -0.24835 -1.30273e-21)
(-1.20464 -0.909469 0)
(-0.210832 -0.0726211 1.11829e-21)
(-0.608435 -0.46904 5.05306e-22)
(-0.706271 -0.554299 6.29576e-22)
(-0.618941 -0.482515 -2.53955e-22)
(-0.741769 -0.544546 -2.16324e-21)
(-1.122 -0.987767 0)
(-0.13829 0.006301 -1.5653e-21)
(-0.200518 -0.185383 0)
(-1.19411 -0.878184 -1.23884e-22)
(-0.401564 -0.3118 -1.40625e-21)
(-0.428961 -0.351175 0)
(-0.418412 -0.345058 3.4636e-22)
(-0.125254 -0.0524097 4.11113e-22)
(-0.798404 -0.732847 2.75489e-21)
(-1.06097 -0.744618 -2.52906e-21)
(-0.68079 -0.512212 -2.48148e-21)
(-1.14679 -1.00039 -7.83271e-23)
(-0.139163 0.0136021 1.4252e-21)
(-0.217963 -0.252481 0)
(-0.186434 -0.039078 -3.93409e-21)
(-1.19586 -0.906662 9.92082e-22)
(-0.199873 -0.102175 -2.82067e-21)
(-0.833137 -0.743 0)
(-0.956867 -0.700732 9.35739e-22)
(-0.086566 0.0338006 -1.80184e-21)
(-0.899676 -0.6215 -1.41227e-21)
(-1.06881 -0.985554 0)
(-0.121106 -0.158633 -1.04751e-21)
(-1.21775 -0.867385 4.35086e-22)
(-0.323919 -0.234935 6.79176e-22)
(-0.10919 -0.0256354 1.48272e-22)
(-0.872698 -0.805151 0)
(-1.04292 -0.720188 2.15368e-21)
(-0.104219 -0.156462 0)
(-0.118666 -0.175417 0)
(-1.21499 -0.862701 4.61663e-22)
(-0.295673 -0.203377 -1.8277e-21)
(-1.20966 -0.871012 -6.60441e-22)
(-0.262587 -0.158217 1.93597e-21)
(-0.0935092 0.0955684 -1.50585e-21)
(-1.06126 -0.827766 0)
(-0.19073 -0.268346 -2.46642e-21)
(-0.199214 -0.208141 1.25207e-21)
(-1.21078 -0.897257 0)
(-0.313118 -0.20553 6.20834e-22)
(-0.577986 -0.401481 -5.73968e-21)
(-0.020077 0.115909 2.19069e-21)
(0.0857283 -0.147265 7.1652e-21)
(-0.764732 -0.584469 -1.03268e-21)
(-0.332149 -0.213215 0)
(-0.870612 -0.730171 0)
(-0.508986 -0.415115 2.59383e-21)
(-1.15363 -0.94657 0)
(-0.233713 -0.0848777 3.01342e-21)
(-0.132895 0.0418781 -1.22749e-21)
(-0.257456 -0.292804 5.89563e-21)
(-1.15799 -0.904437 -1.60996e-21)
(-0.988268 -0.918809 0)
(-0.973679 -0.671394 1.19684e-21)
(-0.0886367 0.0122391 -2.12571e-21)
(-1.17163 -1.05039 1.98347e-21)
(-0.693799 -0.495963 -2.13843e-21)
(-0.0698087 0.101216 0)
(-1.07806 -0.867525 -8.86622e-22)
(-0.351361 -0.219121 0)
(-0.392087 -0.341297 2.80696e-21)
(-1.18214 -0.938772 -1.42122e-22)
(-0.259271 -0.119822 9.63711e-22)
(-1.06631 -0.871822 4.38425e-22)
(-0.331054 -0.198288 8.49936e-23)
(-0.0109128 -0.164347 -1.1883e-22)
(-0.145346 -0.0298251 1.53183e-21)
(-1.09137 -0.752877 1.82642e-21)
(-0.894316 -0.866958 0)
(-1.10905 -0.723529 2.09256e-22)
(-0.0400242 0.0215648 0)
(-0.382615 -0.334173 -2.858e-21)
(-1.19792 -0.947609 1.72913e-22)
(-0.233728 -0.0866415 -1.24175e-21)
(-0.652893 -0.504596 0)
(-1.05414 -0.893867 -4.77607e-22)
(-0.249591 -0.113945 0)
(-0.902357 -0.649443 0)
(-0.950385 -0.854992 0)
(-0.160921 -0.049348 0)
(-0.46147 -0.357479 -7.08319e-22)
(-0.989824 -0.785037 -6.91171e-22)
(-0.463821 -0.345886 3.8183e-23)
(-0.0822702 0.0288888 2.23614e-21)
(-0.947642 -0.647211 3.83018e-21)
(-1.03936 -0.961345 4.80402e-22)
(-0.305196 -0.318345 -3.18919e-21)
(-1.12816 -0.904526 -2.19382e-21)
(-0.105299 0.0887396 -1.77925e-21)
(-1.17705 -1.03741 -1.24013e-21)
(-0.646925 -0.476098 2.16449e-21)
(-0.0826845 0.0925471 1.20748e-21)
(-0.0316226 -0.0449021 -1.86597e-21)
(-0.571202 -0.538051 1.70218e-21)
(-1.2144 -0.800477 -3.13404e-23)
(-0.0356996 -0.129964 7.38995e-22)
(-0.0529527 -0.129891 -6.12851e-22)
(-1.20893 -0.830326 1.53738e-22)
(-1.19612 -0.816659 0)
(-0.269402 -0.188354 -6.56428e-22)
(-0.300017 -0.222627 -5.87855e-22)
(-0.0229283 0.114246 -2.94858e-21)
(-0.609973 -0.418744 6.31884e-21)
(0.0887346 -0.157057 1.49343e-21)
(0.0969144 -0.166546 -1.30282e-22)
(-0.0341139 0.0972983 3.47578e-21)
(-0.730531 -0.482893 0)
(-0.629861 -0.484274 -4.69504e-21)
(-1.14599 -0.97037 -7.03856e-24)
(-0.185806 -0.0310339 0)
(-0.107941 0.0740576 -3.66145e-21)
(-0.206843 -0.274598 2.45145e-21)
(-1.10692 -0.859292 0)
(-0.0680754 -0.103899 2.9533e-21)
(-0.0705242 -0.114601 -2.23542e-21)
(-1.21871 -0.836094 -2.55782e-22)
(-1.22058 -0.841039 -1.58101e-22)
(-0.430377 -0.370509 -1.13851e-21)
(-0.381915 -0.314361 -5.81561e-22)
(-0.0666364 0.144858 0)
(-1.02718 -0.858307 0)
(-0.346471 -0.321377 1.26339e-21)
(0.122008 -0.158126 -2.60786e-21)
(-0.0185603 0.10038 0)
(-0.614643 -0.395531 0)
(-0.770352 -0.601485 6.65554e-23)
(-0.481397 -0.354897 1.08278e-21)
(-0.68358 -0.55329 4.76653e-22)
(0.0697937 -0.169269 -5.25829e-21)
(-0.690214 -0.479388 -2.50136e-21)
(-0.0303193 0.116278 1.61075e-22)
(-0.153468 -0.118218 0)
(-1.15378 -0.822845 -5.79905e-22)
(-0.575554 -0.508297 -3.06637e-23)
(-0.250158 -0.292881 -6.05554e-23)
(-1.05698 -0.842933 -3.78191e-21)
(-0.0862972 0.115154 -7.03785e-24)
(-0.506971 -0.377558 -1.62111e-22)
(-0.0227378 0.115526 -1.27286e-21)
(0.0579922 -0.130038 -3.25936e-21)
(-0.261829 -0.162475 -9.99525e-22)
(-0.743991 -0.642207 9.13859e-22)
(-0.956997 -0.711903 2.57726e-21)
(-0.681464 -0.52844 0)
(-0.86724 -0.708615 -2.22356e-21)
(-0.403618 -0.28049 1.29533e-21)
(0.00226164 -0.190456 0)
(-0.0657182 0.0879669 1.79062e-21)
(-0.919574 -0.654389 3.94073e-23)
(-0.693295 -0.533925 0)
(-0.886121 -0.731403 -6.18852e-22)
(-0.366075 -0.241032 -1.84084e-21)
(-0.736512 -0.575961 9.75317e-22)
(-0.519475 -0.390652 -5.80107e-22)
(-0.676171 -0.542158 2.62696e-22)
(-0.0485072 0.0424481 1.09887e-21)
(-1.0255 -0.677418 -1.36353e-21)
(-1.00914 -0.96332 6.28943e-22)
(-0.810408 -0.621795 0)
(-0.779926 -0.650812 0)
(-0.357611 -0.241046 1.56861e-22)
(-0.805785 -0.607327 1.621e-21)
(-0.834937 -0.694948 5.97114e-22)
(-0.336045 -0.211657 2.18899e-23)
(-0.0358238 -0.036796 2.79551e-21)
(-1.19979 -0.791643 -5.04788e-22)
(-0.628318 -0.600643 -1.71111e-21)
(-0.0985611 0.0565943 2.6806e-21)
(-0.0948376 0.0684364 -2.73912e-21)
(-1.03448 -0.751742 -1.33433e-21)
(-1.03332 -0.757275 -8.60231e-22)
(-0.0558969 -0.202866 0)
(-0.0760315 -0.216085 -2.14498e-21)
(-0.303696 -0.309536 3.85714e-21)
(-1.1015 -0.888634 2.19525e-21)
(-0.094102 0.107 2.18962e-21)
(-0.544444 -0.526183 -1.20624e-21)
(-0.00680824 -0.0396136 6.23696e-22)
(-1.22125 -0.79389 3.99469e-23)
(-0.169389 -0.0971764 -9.93333e-22)
(-0.737349 -0.658478 -9.11172e-22)
(-1.05856 -0.758073 7.97244e-22)
(-0.868326 -0.591943 0)
(-1.12455 -1.03555 -6.82776e-24)
(-0.0670386 0.0659216 3.49471e-23)
(-0.65596 -0.521161 -2.17685e-21)
(-0.0396941 0.142587 -1.20104e-21)
(-0.0565882 -0.181095 -2.78765e-21)
(-0.0707231 0.130167 0)
(-0.492079 -0.389741 0)
(-1.12495 -0.969725 -1.31347e-21)
(-0.0261037 -0.201973 2.17953e-21)
(-0.056468 0.117173 0)
(-0.862585 -0.635292 2.06311e-21)
(-0.0169874 0.103444 -4.55771e-33)
(-0.44942 -0.324348 2.89272e-21)
(0.0843363 -0.115311 3.38296e-21)
(-0.440915 -0.285375 -3.26162e-21)
(-0.00896741 0.0962985 4.54753e-33)
(0.117848 -0.122954 -2.99028e-21)
(-1.18538 -0.999256 4.85023e-22)
(-0.556573 -0.444174 0)
(-0.155162 0.0144974 -3.09591e-21)
(-0.887113 -0.728803 9.80508e-22)
(-0.0564208 0.155171 -1.21786e-21)
(-0.236263 -0.267682 0)
(-0.325895 -0.317249 -2.44892e-21)
(-1.19277 -0.944766 -9.36719e-22)
(-0.160554 0.0110521 1.70735e-21)
(0.072106 -0.147058 4.48659e-21)
(-0.0905404 0.0169732 1.08682e-21)
(-0.950488 -0.623308 0)
(-0.475549 -0.381132 6.56518e-22)
(-0.385453 -0.25688 -5.49492e-22)
(-1.06287 -0.846868 2.3495e-22)
(-1.06233 -0.896907 -7.43616e-22)
(-0.0683664 0.14102 1.24995e-21)
(-0.396705 -0.342986 1.15367e-21)
(-0.907381 -0.610592 -1.70908e-21)
(-0.0655671 0.0592969 -6.21562e-22)
(-1.10275 -1.01967 0)
(-1.16653 -1.03494 0)
(-0.701502 -0.509837 0)
(-0.0995265 0.0603605 0)
(-0.00325745 0.0506116 0)
(-0.222832 -0.132885 2.93862e-21)
(0.100543 -0.0627709 2.89723e-21)
(-0.59333 -0.429688 -2.54549e-21)
(-0.025802 0.122435 -1.538e-21)
(0.0577094 -0.150768 -2.71011e-21)
(-0.498865 -0.391139 -1.63673e-21)
(-0.414102 -0.288883 1.3389e-21)
(-1.01584 -0.814833 3.44713e-22)
(-1.01567 -0.827085 -3.90748e-21)
(-0.27438 -0.293472 -2.73376e-21)
(-0.0714558 0.136794 0)
(-0.061159 0.152703 -1.32999e-21)
(-0.335023 -0.312519 0)
(-0.982416 -0.827709 2.73894e-21)
(-0.154115 -0.246151 -2.08062e-21)
(-0.114205 0.0571678 4.00177e-21)
(-1.10194 -0.833229 0)
(-0.188797 -0.0889094 -3.13173e-21)
(-1.14318 -0.785338 -1.40694e-21)
(-0.0197159 -0.148581 0)
(-0.0218014 -0.0177595 -3.41755e-21)
(-1.19643 -0.780721 6.43336e-22)
(-0.684208 -0.66368 -5.41277e-22)
(-1.21389 -0.825901 -1.99865e-22)
(-0.0399286 -0.107787 1.37297e-21)
(-0.350078 -0.286568 -1.86419e-21)
(-0.160121 -0.0723691 -2.82316e-21)
(0.0369141 -0.132637 0)
(-1.08131 -0.716322 0)
(-0.206034 -0.167304 -5.35252e-22)
(-0.185976 -0.162754 0)
(-1.15569 -0.846211 -3.58057e-22)
(-1.18376 -0.860964 3.83147e-22)
(-0.497753 -0.408043 2.87788e-22)
(-0.458386 -0.375093 -3.06261e-22)
(-0.192572 -0.149032 5.13965e-22)
(-1.14073 -0.828264 0)
(-0.551494 -0.470314 5.10007e-22)
(-0.0457401 -0.0830565 0)
(-1.21855 -0.825655 3.47361e-22)
(-0.459351 -0.414535 4.18019e-22)
(-1.17656 -1.03403 5.48371e-22)
(-0.650879 -0.484466 2.01201e-21)
(-0.094486 0.0767301 -2.53307e-21)
(-1.09902 -0.90344 0)
(-0.332047 -0.32335 6.37791e-21)
(-0.083963 0.117809 0)
(-0.108175 0.0759145 -8.16138e-22)
(-0.551087 -0.435787 -1.47366e-21)
(-1.18194 -1.01114 4.27936e-22)
(-0.484295 -0.308499 4.74277e-22)
(-0.0101382 0.100568 7.96838e-22)
(0.120832 -0.133116 0)
(-0.296467 -0.207604 9.29954e-22)
(-0.331435 -0.239405 0)
(-0.630734 -0.52849 0)
(-1.00555 -0.758067 2.40739e-21)
(-0.599442 -0.492433 0)
(-1.00058 -0.764496 -1.56529e-21)
(-0.081169 -0.0849229 0)
(-0.0959051 -0.08326 0)
(-0.574654 -0.521288 6.89903e-23)
(-1.20557 -0.827392 2.42114e-22)
(-0.526766 -0.470537 2.80764e-21)
(-1.1862 -0.81901 -7.11237e-22)
(-0.521522 -0.40709 0)
(-0.0277363 0.122653 1.73734e-21)
(0.0209518 -0.13801 0)
(-1.03891 -0.837751 2.08711e-21)
(-0.272526 -0.301515 7.31858e-22)
(-0.0778425 0.1268 8.02976e-22)
(-0.104663 -0.0467959 -1.80291e-21)
(-0.770471 -0.713141 -9.38329e-22)
(-1.10178 -0.762505 2.52511e-21)
(-1.16014 -1.05433 -7.27204e-22)
(-0.783624 -0.545918 5.43749e-21)
(-0.0695235 0.0842307 0)
(-0.21168 -0.121067 3.3495e-21)
(-1.15854 -0.79261 1.49662e-21)
(-0.0195914 -0.141085 1.81216e-21)
(-0.729608 -0.545454 0)
(-0.0044052 -0.183304 0)
(-0.0402217 0.13399 0)
(-0.780796 -0.599624 0)
(-0.0560275 -0.201877 2.28821e-21)
(-0.0470385 0.139817 2.95851e-22)
(-0.104281 -0.138671 -1.23069e-21)
(-1.21782 -0.859986 -2.97274e-22)
(-0.364995 -0.286633 8.60668e-22)
(-0.221468 -0.114987 -2.72504e-22)
(-0.848998 -0.744963 0)
(-0.920522 -0.675751 6.13751e-23)
(-0.123506 -0.235337 2.42361e-21)
(-0.103395 0.0698935 2.36191e-21)
(-1.06696 -0.797856 1.00105e-21)
(-1.18414 -1.00965 0)
(-0.570482 -0.445647 0)
(-0.135519 0.0385991 2.65396e-21)
(-0.16985 -0.0244551 7.50309e-22)
(-1.1762 -0.879217 -1.80255e-21)
(-0.170556 -0.234106 4.82954e-21)
(-0.0899308 -0.0695522 0)
(-0.622225 -0.573287 -1.85051e-21)
(-1.1729 -0.808042 4.64012e-22)
(-0.816213 -0.594452 -1.32121e-22)
(-1.04225 -0.918301 2.95186e-22)
(-0.163776 -0.0332341 0)
(-0.203742 -0.118022 2.74679e-23)
(-0.756668 -0.670628 -3.12018e-22)
(-1.01058 -0.738168 -1.04285e-21)
(-0.0918332 0.0922934 4.35808e-24)
(-1.03905 -0.792515 -2.58611e-21)
(-0.143099 -0.246984 3.10329e-21)
(-0.166689 -0.215817 -7.81601e-22)
(-1.20352 -0.889139 3.69939e-22)
(-0.222108 -0.0949576 0)
(-0.295214 -0.196044 -1.0081e-21)
(-0.704767 -0.598495 1.84856e-21)
(-0.952914 -0.717613 -1.69052e-21)
(0.0589036 -0.13305 1.55983e-21)
(-0.133513 -0.0428068 1.25051e-21)
(-1.03443 -0.675891 1.60606e-21)
(-0.272414 -0.209217 -6.49337e-22)
(-1.09599 -0.824825 0)
(-0.523589 -0.429509 0)
(-0.67722 -0.519041 -2.91824e-21)
(-0.973551 -0.815593 3.31047e-22)
(-0.307369 -0.179148 0)
(-1.16893 -1.01847 0)
(-0.670849 -0.499425 3.5476e-21)
(-0.121732 0.0393211 0)
(0.0869935 -0.162752 -1.18861e-21)
(-0.0506138 0.0746824 -3.76438e-22)
(-0.823815 -0.543073 -2.61641e-21)
(0.0935123 -0.154731 3.18264e-21)
(-0.0575354 0.0582031 0)
(-0.851797 -0.552627 2.2166e-21)
(-0.173708 -0.0386213 7.23083e-22)
(-1.17067 -0.859542 1.28359e-21)
(-0.129916 -0.21257 -4.32765e-21)
(-0.858682 -0.619311 -1.46019e-21)
(-1.0485 -0.940605 -4.69448e-22)
(-0.132647 -0.00738866 0)
(-0.0357848 0.0855585 3.44921e-22)
(-0.741223 -0.478095 2.44458e-21)
(0.110875 -0.160175 0)
(-0.140859 0.0372539 0)
(-1.1788 -0.935396 1.17107e-21)
(-0.311506 -0.315905 -6.52776e-22)
(-0.0150726 0.0893952 1.33559e-21)
(-0.367081 -0.273767 -2.97637e-21)
(0.084085 -0.0924066 0)
(0.126373 -0.11158 -2.94027e-21)
(-0.360581 -0.21473 0)
(-0.00315499 0.0799044 1.32753e-21)
(-0.163678 -0.0632277 9.50261e-24)
(-1.10367 -0.747803 0)
(0.00836026 -0.145649 0)
(-0.0703149 0.118452 0)
(-0.953983 -0.724947 0)
(-0.111898 -0.234546 4.72467e-21)
(-0.0592578 -0.198923 -1.90368e-21)
(-0.08886 -0.208244 1.53995e-21)
(-0.117446 0.0274011 -1.34432e-21)
(-1.07844 -0.775369 4.0712e-22)
(-0.131143 0.0124551 -2.19506e-21)
(-1.11347 -0.810745 -6.19123e-22)
(-0.354948 -0.339307 1.2512e-21)
(-1.17635 -0.949487 -6.86997e-22)
(-0.132365 0.0501831 0)
(-0.0561394 0.0826443 0)
(-1.13991 -1.05792 0)
(-0.855112 -0.579932 0)
(-0.405486 -0.302267 0)
(-0.567956 -0.450511 -2.71814e-21)
(-0.957292 -0.742666 7.8968e-22)
(-0.472244 -0.396328 3.61215e-21)
(-1.18598 -0.99025 -1.6626e-22)
(-0.125336 0.0563687 2.48006e-21)
(-0.12357 0.0580615 1.57845e-21)
(-0.525522 -0.424108 -5.02298e-21)
(-1.18729 -1.00597 2.3007e-22)
(0.0451406 -0.115706 1.53478e-21)
(-0.190437 -0.118464 1.34508e-21)
(-1.10549 -0.721087 -2.59555e-21)
(-0.0572198 -0.0716597 0)
(-1.21245 -0.821535 -6.189e-23)
(-0.520301 -0.476858 -2.75234e-21)
(-0.130435 -0.110567 0)
(-1.17563 -0.830144 7.6082e-22)
(-0.549867 -0.486672 6.98766e-23)
(-0.460468 -0.388709 -3.71542e-21)
(-1.19535 -0.982119 -1.39127e-22)
(-0.17649 -0.0131636 -1.36577e-21)
(-0.487912 -0.406799 0)
(-1.19245 -0.989592 -1.02676e-22)
(-0.159251 0.00889727 1.25009e-21)
(-0.330166 -0.221604 0)
(-0.715974 -0.599539 -2.81741e-21)
(-0.907146 -0.690143 9.35845e-22)
(-0.154337 -0.145736 0)
(-1.19112 -0.857482 0)
(-0.458899 -0.388937 4.37331e-22)
(-0.0633486 0.143987 -2.72182e-21)
(-1.0734 -0.920369 3.90297e-21)
(-0.452287 -0.367873 0)
(-0.0880166 -0.208687 3.65936e-21)
(-0.0472861 0.145849 0)
(-0.769492 -0.604851 -1.54237e-21)
(-0.0920265 -0.200265 4.93413e-23)
(-0.0446637 0.14789 0)
(-0.727513 -0.580813 4.48184e-21)
(-0.203851 -0.138538 7.29598e-22)
(-0.642684 -0.556039 -3.57334e-22)
(-1.08229 -0.790399 -7.49863e-23)
(-0.651439 -0.488032 6.21796e-23)
(-0.0342441 0.132655 2.35193e-21)
(0.0129321 -0.167486 0)
(-0.126532 -0.200856 3.44342e-21)
(-0.200803 -0.0744062 1.48419e-21)
(-1.18665 -0.864254 0)
(-0.0347656 0.135248 -3.49901e-22)
(-0.623117 -0.484736 2.70884e-21)
(-0.0117155 -0.165072 0)
(-0.610325 -0.469726 1.71817e-21)
(-0.449482 -0.322217 1.64646e-21)
(-0.879719 -0.70955 4.24404e-23)
(-0.370832 -0.317478 -4.3217e-22)
(-1.17186 -0.917253 1.07789e-23)
(-0.311329 -0.181811 -1.47619e-21)
(-0.999884 -0.906936 1.17407e-21)
(-0.906833 -0.645877 2.71346e-21)
(-0.130672 -0.0167635 0)
(-0.0611292 0.150822 0)
(-0.936566 -0.768574 1.24564e-21)
(-0.259325 -0.283311 0)
(-1.17879 -1.01969 0)
(-0.616657 -0.469354 0)
(-0.12434 0.0453102 0)
(-0.112345 -0.00596463 0)
(0.0485551 -0.147923 -1.68633e-21)
(-1.00924 -0.673056 -1.57526e-21)
(-0.354348 -0.315302 0)
(-1.18673 -0.931918 1.61578e-23)
(-0.27925 -0.146201 1.43908e-21)
(-0.438321 -0.326601 0)
(-0.572808 -0.452375 2.33493e-21)
(-0.924357 -0.721071 0)
(-0.963434 -0.778767 3.69101e-21)
(-0.227844 -0.275135 2.5925e-21)
(-0.0662202 0.141653 0)
(-0.145482 0.0193745 -1.56275e-21)
(-1.1663 -0.90031 -7.97611e-23)
(-0.227864 -0.274744 -1.24366e-22)
(0.0448232 -0.177677 0)
(0.0540947 -0.17657 2.75439e-21)
(-0.0536838 0.0927782 -8.78495e-22)
(-0.0452855 0.102399 -1.06168e-21)
(-0.850231 -0.584287 1.57036e-21)
(-0.805217 -0.555797 -1.29166e-21)
(-0.610155 -0.480403 0)
(-1.1065 -0.934405 7.58157e-22)
(-0.226007 -0.0835413 1.42546e-21)
(-1.17117 -0.989339 -6.30596e-22)
(-0.581882 -0.458523 0)
(-0.164016 0.000945949 -1.59809e-21)
(-0.595056 -0.457293 -1.51571e-21)
(-0.977878 -0.80323 4.8268e-22)
(-0.36415 -0.238658 2.17277e-21)
(-0.841089 -0.670354 -2.97988e-21)
(-0.141906 -0.232996 3.92998e-21)
(-0.840868 -0.680973 1.4916e-21)
(-0.0533168 0.14761 0)
(-0.177838 -0.245818 -3.80593e-21)
(-0.0531745 0.152173 0)
(-0.320915 -0.304459 0)
(-1.20601 -0.943222 0)
(-0.223695 -0.0746804 1.63379e-21)
(-0.173838 -0.253158 4.85469e-21)
(-0.139527 -0.23689 -9.08919e-21)
(-0.939113 -0.743866 -2.01735e-21)
(-0.882936 -0.693386 4.69952e-21)
(-0.063971 0.137002 2.37938e-21)
(-0.0578738 0.141166 6.99822e-24)
(-0.638565 -0.487605 0)
(-1.15091 -0.991044 1.67189e-22)
(-0.159389 -0.00291968 2.07766e-21)
(-0.513507 -0.405887 1.68862e-21)
(-1.13895 -0.917556 -1.94104e-22)
(-0.287669 -0.1514 0)
(0.0663172 -0.156813 0)
(-0.0770224 0.0407841 0)
(-0.927228 -0.614677 -2.12735e-21)
(-0.559956 -0.446282 1.38047e-21)
(-1.12451 -0.934271 -1.91931e-22)
(-0.237311 -0.0941493 -2.38052e-21)
(-0.565838 -0.441991 6.65763e-22)
(-1.03287 -0.84914 -5.67965e-22)
(-0.335268 -0.20456 1.26192e-21)
(0.059362 -0.171518 0)
(-0.0586405 0.0789959 0)
(-0.863576 -0.584362 2.87125e-21)
(-0.299686 -0.27774 0)
(-1.20164 -0.922102 -6.46682e-23)
(-0.282499 -0.154444 -1.53632e-21)
(-1.08542 -1.01905 0)
(-0.954914 -0.634221 0)
(-0.0505064 0.063093 -8.11692e-23)
(-0.0664888 -0.0489558 -8.78768e-23)
(-1.17909 -0.798599 0)
(-0.645392 -0.607784 2.68423e-21)
(-1.16201 -1.04063 -8.70628e-22)
(-0.0610462 0.118789 0)
(-0.656947 -0.47292 0)
(-0.00653618 0.0722565 -3.2015e-21)
(-0.314213 -0.199371 -4.11277e-21)
(0.108144 -0.0864 -4.05671e-21)
(-0.452793 -0.373095 0)
(-1.15884 -0.935306 1.10076e-22)
(-0.262745 -0.120621 -1.27244e-21)
(0.00976672 -0.174154 3.29754e-21)
(-0.0930841 0.040516 4.58205e-21)
(-0.998954 -0.689521 0)
(-0.79299 -0.770655 -5.71287e-22)
(-1.16082 -0.756509 -9.57883e-22)
(-0.0274457 0.0049071 -7.37531e-22)
(0.132616 -0.142582 0)
(-0.00855231 0.096887 -1.19565e-21)
(-0.497264 -0.304866 0)
(-0.258222 -0.142422 1.3019e-21)
(-0.223963 -0.108923 -1.3357e-21)
(-0.891436 -0.76913 0)
(-0.82294 -0.618472 1.23022e-21)
(-0.909662 -0.79408 -1.54359e-21)
(-0.862141 -0.641814 -1.08841e-21)
(-0.651519 -0.500934 1.43733e-21)
(-0.942062 -0.77743 8.68255e-22)
(-0.351261 -0.225729 0)
(-0.257704 -0.152627 1.15126e-21)
(-0.27812 -0.166737 0)
(-0.797917 -0.690529 -1.00564e-21)
(-0.920772 -0.684561 1.13264e-21)
(-0.825656 -0.709558 1.01393e-21)
(-0.864534 -0.645457 -3.13907e-23)
(-0.462934 -0.373659 1.09215e-22)
(-1.10574 -0.902785 -1.61512e-22)
(-0.292901 -0.156531 -1.64658e-21)
(-0.552361 -0.436249 -3.08347e-21)
(-1.10111 -0.905899 4.02496e-24)
(-0.274647 -0.13608 0)
(-0.0478208 0.153034 0)
(-0.766741 -0.623525 0)
(-0.146642 -0.223614 4.57511e-21)
(-0.215395 -0.1582 -6.73821e-22)
(-1.10748 -0.810145 0)
(-0.58367 -0.496032 6.76603e-22)
(-0.161664 -0.251401 -7.41225e-21)
(-0.981823 -0.76387 -2.00013e-21)
(-0.0716595 0.123448 -1.35886e-21)
(-0.399182 -0.354168 0)
(-0.377317 -0.342915 2.36536e-21)
(-1.2005 -0.967776 1.73654e-22)
(-1.19859 -0.963074 -8.69193e-22)
(-0.17617 -0.0125772 -1.75933e-21)
(-0.161865 0.00837796 -1.64833e-21)
(-0.25772 -0.190429 0)
(-1.08418 -0.80842 0)
(-0.568534 -0.474665 3.18598e-22)
(-0.0998429 -0.116508 9.23164e-22)
(-1.21244 -0.846215 0)
(-0.447527 -0.379526 9.6962e-22)
(-0.413109 -0.355354 -1.00769e-21)
(-1.19235 -0.961726 0)
(-0.211513 -0.0624291 0)
(-0.476884 -0.355074 1.27284e-21)
(-0.8263 -0.649115 -4.88501e-22)
(-0.628814 -0.505506 6.2777e-22)
(-0.449783 -0.385739 0)
(-1.19261 -0.984005 0)
(-0.142707 0.0344743 -2.6349e-21)
(-0.365718 -0.26415 0)
(-0.616491 -0.502345 3.38126e-22)
(-0.952709 -0.733165 0)
(-0.56562 -0.449987 -2.19524e-21)
(-1.16329 -0.979567 1.63078e-22)
(-0.189632 -0.0292748 -2.12114e-22)
(-0.133041 -0.141279 9.39934e-22)
(-1.20734 -0.860144 0)
(-0.423698 -0.350684 1.94227e-21)
(-0.437869 -0.320504 -1.26056e-21)
(-0.404547 -0.289744 -5.70548e-22)
(-0.866132 -0.677395 5.1741e-22)
(-0.631914 -0.511349 -1.22967e-21)
(-0.86189 -0.670792 0)
(-0.672248 -0.551919 -2.21167e-21)
(-0.328559 -0.221028 -5.78503e-22)
(-0.755305 -0.63933 1.22067e-21)
(-0.308789 -0.192775 3.74392e-22)
(-0.863156 -0.659051 -1.44314e-21)
(-0.821883 -0.696733 -6.17905e-22)
(-0.847937 -0.641112 3.06503e-23)
(-0.246173 -0.197724 7.67547e-22)
(-0.263223 -0.217618 0)
(-1.13846 -0.847979 3.73489e-22)
(-1.15643 -0.866166 -2.91998e-22)
(-0.481562 -0.38669 -1.60268e-21)
(-0.433454 -0.328595 2.66063e-21)
(-0.184024 -0.0730026 0)
(-1.15893 -0.817215 8.47796e-22)
(-0.0573842 -0.169761 -2.19308e-21)
(-0.0598732 0.0454498 9.73552e-22)
(-0.979135 -0.654748 2.14858e-21)
(-1.0484 -0.984453 -8.66332e-22)
(-0.157933 -0.0374911 -1.56247e-21)
(-0.152656 -0.0207449 1.22366e-21)
(-1.13129 -0.802413 -7.33885e-22)
(-1.13854 -0.823725 -1.17428e-21)
(-0.0511425 -0.17862 5.82207e-21)
(-0.0849101 -0.198356 -3.07859e-21)
(-0.0824679 -0.00965226 1.32417e-21)
(-0.877425 -0.821258 -8.65767e-22)
(-1.06753 -0.72728 2.12049e-22)
(-0.566904 -0.433819 2.13537e-21)
(-0.610011 -0.477449 0)
(-0.757536 -0.596089 -1.8983e-21)
(-0.398268 -0.357471 -1.24121e-21)
(-1.19081 -0.970118 9.88266e-22)
(-0.144379 0.0328295 0)
(-0.266238 -0.188551 0)
(-0.615571 -0.525662 -3.03295e-22)
(-1.04012 -0.777422 -7.13601e-22)