/*--------------------------------*- C++ -*----------------------------------*\
  =========                 |
  \\      /  F ield         | OpenFOAM: The Open Source CFD Toolbox
   \\    /   O peration     | Website:  https://openfoam.org
    \\  /    A nd           | Version:  6
     \\/     M anipulation  |
\*---------------------------------------------------------------------------*/
FoamFile
{
    version     2.0;
    format      ascii;
    class       volVectorField;
    location    "0";
    object      U;
}
// * * * * * * * * * * * * * * * * * * * * * * * * * * * * * * * * * * * * * //

dimensions      [0 1 -1 0 0 0 0];

internalField   nonuniform List<vector> 
918
(
(0.985697 0.00385045 0)
(-0.00401649 2.9674 0)
(-0.00255459 1.61927 0)
(0.980732 -0.00205992 0)
(-0.00762128 1.5773 4.13597e-22)
(0.00136207 2.951 -1.41262e-18)
(0.850571 1.17361 4.84708e-19)
(0.465555 0.19921 -5.92948e-21)
(0.999911 -0.000295814 0)
(0.015977 0.852484 0)
(-0.00244186 1.27417 0)
(0.79549 -0.00839627 0)
(0.00898489 2.93465 0)
(0.00425925 2.79702 0)
(-0.000831597 3.1997 7.83912e-19)
(-0.0110128 1.49216 -7.49447e-21)
(0.578112 0.082179 3.73813e-19)
(0.188261 1.11287 4.38643e-19)
(0.965708 0.00377417 0)
(-0.0039422 1.39958 0)
(0.204898 0.257872 -3.14888e-19)
(1.00178 -0.00507081 0)
(1.0017 -0.00830646 0)
(0.977475 -0.00486683 0)
(0.716584 -0.0196989 0)
(0.0303833 2.63759 0)
(-0.0106075 2.91562 4.73826e-19)
(-0.0183257 1.64411 0)
(-0.0181521 1.75542 0)
(-0.0205925 1.64052 0)
(-0.00558183 1.82372 0)
(0.000375855 1.59734 -3.23682e-22)
(-0.0105623 1.49342 0)
(-0.0197652 2.98961 -4.96147e-23)
(-0.0137468 3.00795 1.11184e-18)
(0.00163461 2.9997 0)
(0.874192 -0.00656571 0)
(0.369995 0.917655 -1.68053e-20)
(0.859144 1.18809 -7.04742e-19)
(0.99522 1.04995 6.51192e-19)
(0.720761 1.26495 -1.13622e-19)
(0.723845 1.24384 6.42809e-19)
(0.50015 0.280676 5.78326e-21)
(0.493312 0.173708 0)
(1.188 0.539866 0)
(0.465691 0.311138 2.70682e-20)
(0.412974 0.208803 -2.80987e-20)
(0.922956 -0.0057684 0)
(1.0003 -3.86542e-05 0)
(0.999891 0.000330073 0)
(1.00323 -0.00753203 0)
(1.00092 -0.00112091 0)
(1.00016 -3.9125e-05 0)
(0.0889303 1.6517 -1.76209e-19)
(0.0137508 0.925757 0)
(0.0829692 0.804456 0)
(-0.0330149 0.999527 0)
(-0.0241194 0.938779 0)
(-0.00446425 1.58366 0)
(-0.00991583 1.43275 0)
(-0.0115903 1.24769 0)
(-0.0100875 1.47748 0)
(-0.00733424 1.28472 0)
(0.873304 0.000347759 0)
(0.882438 0.0119269 0)
(0.806874 -0.00218313 0)
(0.876226 0.0166974 0)
(0.775789 -0.00762294 0)
(0.0137127 3.0036 5.09908e-19)
(0.0115314 3.0045 0)
(0.00737627 3.00384 0)
(0.0106748 2.99817 5.70401e-24)
(0.00619131 2.96192 -7.67267e-19)
(0.0117635 2.9844 0)
(0.00835038 2.90904 0)
(0.0220988 2.93297 1.04366e-24)
(0.00452213 2.82726 0)
(0.0267734 2.91927 0)
(-0.00107269 2.74673 0)
(0.312078 3.60523 0)
(-0.127991 3.68731 0)
(0.151041 3.29151 -7.26431e-19)
(0.00591734 3.02184 0)
(-0.0122147 1.80316 0)
(-0.0040566 1.6338 7.39196e-21)
(-0.00666472 1.50607 -1.27225e-20)
(0.631473 0.149806 -1.28595e-19)
(0.591086 0.044323 -1.24408e-19)
(0.606188 0.186771 -3.88309e-19)
(0.543573 0.114266 -2.58796e-19)
(0.285576 0.958173 0)
(0.28797 1.24233 -4.35574e-19)
(0.360415 1.23541 7.17941e-19)
(0.989335 0.00663383 0)
(0.945779 0.00570003 0)
(0.999816 0.000778017 0)
(1.00378 0.00761766 0)
(1.00338 0.00866808 -6.97784e-19)
(0.992857 0.00735164 5.34176e-19)
(-0.0195924 1.53591 0)
(-0.00933055 1.38024 0)
(-0.023383 1.64826 0)
(-0.0215979 1.57692 0)
(-0.00213722 1.43712 0)
(0.23071 0.283287 9.69089e-20)
(0.286264 0.254854 0)
(0.994766 -0.00605623 0)
(0.956191 -0.00548291 0)
(0.848874 0.0217266 0)
(0.814514 0.0356228 0)
(0.752697 -0.0150328 0)
(1.02042 -0.00452445 0)
(0.768034 0.0482581 0)
(0.639262 -0.0129628 4.89969e-19)
(-0.0346903 2.86782 2.80836e-19)
(0.0357359 2.9138 0)
(0.0449023 2.8901 0)
(0.00568625 2.70041 0)
(-0.00815129 2.9878 4.41827e-19)
(-0.0125207 2.89889 0)
(-0.00979309 2.99269 -1.3859e-18)
(-0.0093671 2.93244 4.76745e-19)
(-0.013922 1.81313 0)
(-0.0110293 1.80823 0)
(-0.00215495 1.62918 -1.62795e-22)
(-0.000540933 1.59786 0)
(-0.00991904 1.49088 0)
(0.934074 -0.00355031 0)
(0.860779 -0.00732325 0)
(0.873196 0.00940196 0)
(0.948483 -0.00362714 0)
(0.890605 -0.00546798 0)
(0.498851 1.11723 1.37585e-20)
(0.547419 1.19022 0)
(0.32795 0.843369 3.74153e-21)
(0.26986 0.709788 0)
(0.96319 1.07567 -1.89478e-19)
(1.07678 0.876683 3.81863e-19)
(0.48547 1.33101 0)
(0.571949 1.3333 0)
(0.593438 1.25037 0)
(0.10104 0.115349 -7.7861e-20)
(0.524849 0.251321 0)
(0.507 0.157036 7.40576e-20)
(1.03914 0.925551 0)
(1.10768 0.763871 0)
(1.13804 0.698919 -3.312e-19)
(1.16662 0.604135 0)
(1.22332 0.389645 3.27252e-20)
(0.957818 -0.00457198 0)
(0.963275 -0.00580529 0)
(0.905185 -0.00449319 0)
(0.985027 -0.00671485 0)
(0.976709 -0.00677784 0)
(0.939358 -0.0050851 0)
(0.999792 0.00219285 0)
(1.00086 0.00119428 0)
(0.999962 0.000715853 0)
(0.00728031 1.87046 1.09532e-19)
(0.0875636 1.58283 0)
(0.0353945 1.85344 1.21547e-19)
(0.0294117 1.61059 -9.51014e-20)
(0.103299 1.11909 -3.63722e-19)
(0.0842741 0.991291 0)
(0.163893 0.93444 0)
(-0.0588274 1.14611 0)
(-0.0234145 1.07988 0)
(0.00637575 1.73333 -6.34056e-22)
(0.0038466 1.60305 0)
(-0.00717285 1.71612 -2.49094e-20)
(-0.0130585 1.56348 4.89514e-20)
(-0.0292199 1.28037 0)
(-0.0263544 1.37559 0)
(-0.0174962 1.18669 0)
(-0.0121532 1.50267 0)
(-0.00773075 1.31064 0)
(0.954664 0.0164831 0)
(0.896654 0.00419929 0)
(0.934668 0.0108809 0)
(0.862397 0.000205636 0)
(0.818238 0.000132856 0)
(0.908287 0.00625554 0)
(0.897511 0.00526318 0)
(0.81024 -0.00525619 0)
(0.00900461 3.06511 -4.36874e-21)
(0.0135161 3.05735 0)
(0.0121417 2.97255 0)
(0.00737013 2.88118 0)
(0.914834 4.01352 0)
(1.21939 3.39148 7.55026e-19)
(0.0808904 3.1044 0)
(-0.0140333 2.92723 0)
(-0.0140221 1.7967 0)
(-0.014386 1.79873 0)
(-0.0133659 1.7973 0)
(-0.00739784 1.81177 2.5931e-21)
(-0.0110734 1.81028 0)
(-0.00939231 1.80857 0)
(-0.0019269 1.50813 1.54613e-21)
(0.00234908 1.65673 1.34275e-20)
(0.000293069 1.64758 1.29955e-20)
(-0.00149448 1.50511 0)
(0.650031 0.105057 1.90558e-19)
(0.585105 0.0137159 -1.85955e-19)
(0.202263 1.50897 0)
(0.330593 0.705561 -1.55493e-19)
(0.132473 1.60857 -5.27848e-19)
(0.204461 1.18476 5.27622e-19)
(0.907917 0.00887444 0)
(0.968741 0.0102465 0)
(0.976315 0.00987047 0)
(0.927389 0.00796394 0)
(-0.017 1.51112 0)
(-0.0194185 1.52041 0)
(-0.00980527 1.34362 0)
(0.417896 0.313418 2.47638e-19)
(0.36212 0.288697 -3.01144e-19)
(0.375235 0.235107 0)
(1.13873 0.0859478 -3.36787e-21)
(1.12583 0.0416725 0)
(1.05369 0.0388121 0)
(0.961865 0.0102876 0)
(0.659933 0.0762921 0)
(0.696094 0.0492325 -7.96188e-19)
(0.589935 -0.0118628 3.09462e-19)
(0.0110482 2.98185 3.38237e-19)
(-0.0279774 2.86743 3.25916e-20)
(0.00656973 3.05003 -9.4107e-21)
(0.0156886 3.04115 3.57653e-19)
(-0.00951517 3.00008 1.58767e-20)
(-0.00878905 2.95408 -6.47657e-23)
(-0.0151136 3.01277 -3.02864e-19)
(0.0128015 3.02357 2.14634e-19)
(0.00614972 3.03215 -3.4454e-19)
(0.932518 0.00659062 0)
(0.934358 0.00041746 0)
(0.854034 -0.00328193 0)
(0.958136 0.0122353 0)
(0.946615 0.0109947 0)
(0.889982 0.00893333 0)
(0.921346 0.0107855 0)
(0.933224 0.0149052 0)
(0.844912 0.00870128 0)
(0.689557 1.42542 1.99846e-19)
(0.710216 1.53868 0)
(0.189652 0.376751 1.58687e-20)
(0.155292 0.532905 1.24913e-19)
(0.232222 0.657323 -7.54804e-20)
(0.197619 0.546938 1.37583e-19)
(0.287207 0.674495 4.623e-19)
(0.120288 0.152744 1.4914e-19)
(0.571588 0.215567 2.78332e-19)
(0.551582 0.240512 6.86452e-20)
(0.529411 0.141645 1.38626e-19)
(1.21317 0.449659 2.12611e-19)
(1.23364 0.247144 2.21388e-19)
(0.0315911 1.78557 4.26299e-20)
(0.0315031 1.58189 0)
(1.00086 0.030748 0)
(0.968464 0.0206202 0)
(0.92071 0.00123306 0)
(0.0113219 3.07263 0)
(0.0173375 2.94628 6.06642e-19)
(0.0140088 2.95914 0)
(0.00604317 2.8541 -6.03217e-19)
(0.00875608 3.0894 1.43337e-19)
(0.0103661 3.08059 0)
(0.73071 1.83322 -1.66993e-19)
(1.26383 2.62566 5.54288e-19)
(0.710853 2.00487 -1.12911e-18)
(0.0228305 2.9839 -2.6034e-19)
(0.0414739 3.00982 0)
(-0.0323729 2.88597 0)
(-0.00816327 1.67468 -3.60432e-21)
(-0.00149755 1.66568 -3.15735e-20)
(-0.00432006 1.52919 -4.0424e-21)
(0.241216 1.29142 4.89965e-19)
(0.293316 0.444912 -3.38654e-19)
(0.0340179 1.83798 3.30858e-19)
(0.0792376 1.77075 -4.21966e-19)
(0.149857 1.42604 6.63111e-20)
(0.0090954 3.11652 -7.85364e-19)
(0.0155523 3.1177 8.82727e-19)
(-0.00463985 2.98167 3.96364e-19)
(-0.000498203 2.97763 -3.62575e-19)
(-0.0157807 2.88236 -4.03815e-19)
(0.0118994 3.09577 -1.05215e-18)
(0.00436472 3.1042 1.07317e-18)
(0.182124 0.563743 0)
(0.125819 0.514738 -2.52505e-19)
(0.107669 0.166562 1.11616e-19)
(0.306779 0.776573 4.44145e-19)
(0.185907 0.198848 -6.77383e-19)
(1.22365 0.169248 -4.4633e-20)
(1.23126 0.304423 0)
(1.21858 0.112233 8.80179e-20)
(0.0148996 1.75158 -5.68899e-22)
(0.0381727 1.76921 0)
(0.0247561 1.5941 0)
(0.270644 1.18655 -1.72451e-19)
(0.328802 1.00912 -3.68097e-19)
(0.224974 0.310504 6.2793e-19)
(1.00591 -0.0106677 0)
(1.00677 -0.00698302 1.29054e-19)
(-0.0146879 1.80258 0)
(-0.0245313 1.81189 0)
(1.00152 0.00328986 1.18057e-21)
(1.00316 0.0087123 2.61796e-19)
(-0.00753978 1.81542 -3.45867e-21)
(-0.00803704 1.81413 0)
(0.0477945 3.17905 1.35474e-19)
(0.381352 3.55022 0)
(1.07798 0.681632 4.12966e-20)
(1.01135 0.012151 -1.42151e-21)
(1.01983 -0.0094853 0)
(1.00155 5.38261e-05 3.95874e-23)
(-0.104805 1.09775 0)
(-0.0431027 2.67054 0)
(-0.087951 1.68715 0)
(-0.0633807 1.96873 4.79902e-20)
(-0.0519552 1.88245 2.63359e-20)
(1.0041 0.0115324 1.47103e-21)
(1.04554 0.0165397 0)
(1.07455 0.0267604 0)
(-0.0155931 1.80076 0)
(-0.0100026 1.8273 0)
(-0.0264853 1.79695 0)
(0.32138 1.39702 -3.03058e-19)
(1.00936 -0.00916058 0)
(1.00865 -0.0148195 0)
(1.00219 0.000370701 1.6206e-19)
(1.00524 -0.00513551 -1.94009e-19)
(1.00116 -0.0010703 0)
(-0.0179929 1.79769 0)
(-0.0162038 1.79725 0)
(-0.0154995 1.79841 0)
(-0.027155 1.79781 0)
(-0.0242371 1.79443 0)
(-0.0276872 1.79762 0)
(1.02188 -0.0119589 0)
(1.01887 0.014414 -8.31588e-22)
(0.765659 1.30161 3.54989e-19)
(1.0032 0.000349054 -1.62449e-19)
(1.00327 0.00461197 1.96311e-19)
(1.00132 0.00201746 0)
(1.01191 0.0106667 1.59012e-19)
(1.0073 0.00868475 -1.9803e-19)
(1.00901 0.0127208 0)
(-0.0109116 1.82703 0)
(-0.0102792 1.82218 6.3789e-21)
(-0.0115264 1.82008 -4.51203e-21)
(1.18785 0.259853 -6.28979e-20)
(1.12494 0.0914278 0)
(0.0588839 3.08674 -4.11546e-19)
(0.0524691 2.86589 -3.12321e-20)
(0.121564 3.20492 5.31302e-19)
(0.130475 3.22115 -5.15533e-20)
(0.150785 3.26312 0)
(0.0236824 3.13712 1.01899e-19)
(0.0714299 3.16218 4.0492e-19)
(0.0695379 3.1837 -1.94744e-19)
(0.0300138 3.12553 0)
(0.678071 0.337051 0)
(0.641822 0.393145 0)
(1.07141 0.70616 -1.5946e-19)
(1.03205 0.857104 2.49655e-19)
(1.13218 0.602826 0)
(1.16402 0.546349 0)
(1.01463 0.0120423 -2.9588e-19)
(1.01313 0.0122881 3.68727e-19)
(1.02353 -0.0100817 0)
(1.02058 -0.0156089 0)
(1.00722 0.0027762 0)
(1.00981 0.00293228 0)
(1.00395 0.00240283 0)
(1.00806 0.00677905 0)
(1.00734 0.00518562 0)
(1.0039 0.00491216 0)
(-0.124741 1.13747 0)
(-0.157591 1.11745 0)
(0.052557 1.09812 0)
(0.113227 1.15324 0)
(0.0202237 2.70052 0)
(0.107524 2.70719 -1.38528e-19)
(-0.110697 2.65781 0)
(-0.140984 2.56393 8.84226e-21)
(-0.0853211 2.18952 -6.32716e-20)
(-0.071138 1.7013 0)
(-0.0479279 1.7261 0)
(-0.106297 1.64854 0)
(-0.100148 1.58386 0)
(-0.168827 1.89062 -1.49306e-20)
(-0.0621324 1.90477 2.79827e-20)
(-0.0602762 1.96289 3.5757e-20)
(-0.0510254 1.93772 0)
(-0.0505195 1.88061 -5.96366e-20)
(-0.03228 1.86373 -2.63734e-20)
(-0.148234 1.87129 1.2075e-20)
(-0.094093 1.87516 -3.67445e-20)
(-0.0960506 1.92091 -4.63093e-20)
(1.01341 0.0220089 2.91857e-19)
(1.01385 0.0110983 -3.5864e-19)
(1.00542 0.0201502 -3.0163e-19)
(0.992854 0.0134415 3.87934e-19)
(1.04476 0.0189946 0)
(1.03323 0.00277974 0)
(1.06326 0.0404896 0)
(1.05287 0.0256479 0)
(1.058 0.0142311 0)
(1.10488 0.0779479 0)
(1.08349 0.052313 0)
(1.09632 0.0434405 0)
(-0.01049 1.81785 -8.24072e-22)
(-0.0164521 1.808 0)
(-0.0122345 1.81133 0)
(-0.00830962 1.83135 7.97194e-21)
(-0.00551201 1.8331 -3.56525e-22)
(-0.0213497 1.80375 7.74875e-21)
(-0.0225987 1.80105 -7.79052e-21)
(-0.0263419 1.80072 0)
(-0.0246024 1.80077 0)
(-0.0236013 1.80055 0)
(-0.0257617 1.79612 0)
(-0.0223821 1.78693 0)
(0.427487 1.45995 5.79614e-19)
(0.388549 1.46729 2.12444e-19)
(0.636543 2.41678 -1.14713e-19)
(0.419503 2.53739 3.09383e-19)
(0.451281 2.03266 -3.56974e-20)
(1.01981 -0.00693789 0)
(1.01413 -0.00968919 0)
(1.01708 -0.0139239 0)
(1.0074 -0.000913003 0)
(1.00429 -0.00121436 0)
(1.00657 -0.00387886 0)
(1.01 -0.00494195 0)
(1.01274 -0.0052885 0)
(1.01998 0.0134722 2.86372e-19)
(1.01216 0.0110699 -3.62346e-19)
(1.02237 0.0159038 -2.85663e-19)
(1.01888 0.0157464 3.57557e-19)
(0.737913 1.33101 0)
(0.660103 1.3779 4.05024e-19)
(0.84858 1.21168 2.34639e-19)
(0.853591 1.20565 -3.11261e-19)
(1.15516 2.63095 -3.39243e-19)
(0.835896 0.127301 1.93317e-19)
(1.12969 0.0958893 0)
(1.1658 0.179376 5.19419e-20)
(1.15184 0.158689 2.44951e-21)
(0.976552 0.125163 0)
(0.108615 3.02641 -3.42109e-20)
(0.10805 2.90215 -4.83329e-19)
(0.0500504 2.34473 3.23973e-19)
(0.177984 0.0629121 -1.43043e-19)
(0.351895 3.45691 -3.09803e-19)
(0.201252 3.34728 0)
(0.23114 3.40448 4.0336e-19)
(0.242492 3.08598 -1.84763e-19)
(0.277981 3.2085 0)
(0.00776895 3.1194 2.19105e-20)
(0.019997 3.12836 -2.68023e-19)
(0.017917 3.12406 3.93743e-19)
(0.0372528 3.13751 0)
(0.0350296 3.1495 0)
(1.25396 2.60361 0)
(0.489516 0.838465 -1.52904e-19)
(0.957175 1.04328 -1.31317e-19)
(0.945147 1.06271 0)
(0.799363 0.948738 3.4005e-20)
(1.02584 0.900813 1.92927e-20)
(0.432497 0.460517 -3.57158e-19)
(0.70904 0.335688 -1.6402e-20)
(0.700059 0.289633 1.47045e-19)
(0.643583 0.415558 1.15611e-20)
(0.585843 0.415375 -4.7786e-19)
(0.691515 0.345636 0)
(0.709447 0.421616 2.45523e-19)
(0.708384 0.421025 0)
(0.680261 0.380128 0)
(0.659417 0.336634 0)
(0.716906 0.610515 8.31062e-20)
(1.19171 0.284259 4.76931e-20)
(1.17107 0.417593 0)
(1.17789 0.388581 0)
(0.76331 0.227275 2.2161e-19)
(0.774283 0.516378 -1.2387e-19)
(0.722569 0.480391 2.03024e-19)
(0.907819 0.407368 -1.80641e-19)
(1.01799 0.0100567 1.94449e-19)
(1.01658 0.0115489 -1.96956e-19)
(1.01309 0.0104244 0)
(1.02314 -0.013975 0)
(1.02354 -0.0134993 -1.77061e-19)
(1.01801 -0.0198165 1.75265e-19)
(1.03155 0.00551307 0)
(1.02747 0.0154193 0)
(1.01198 0.00490723 0)
(1.01387 0.0083712 0)
(1.01628 0.00291134 0)
(1.01371 0.00157908 0)
(-0.209327 1.25203 0)
(-0.211461 1.27989 0)
(0.0820939 1.00665 3.37342e-19)
(0.308166 1.37667 1.83606e-19)
(0.23259 1.19742 4.1299e-19)
(0.22884 1.2641 -6.59599e-19)
(0.29271 1.16825 0)
(0.19574 1.9089 4.49395e-19)
(0.000514723 1.78856 0)
(0.499353 2.1438 5.26777e-20)
(0.412413 2.42699 1.47517e-19)
(0.432516 1.50737 -3.92013e-19)
(0.427686 1.29387 1.70624e-19)
(0.351715 1.16279 -1.36666e-19)
(0.516693 1.31534 3.1857e-19)
(0.524957 1.76453 0)
(0.491334 1.73573 -2.40582e-19)
(-0.324474 2.15945 2.84705e-20)
(-0.143054 2.30925 0)
(-0.308429 2.35977 -1.02818e-19)
(-0.312714 2.27777 0)
(-0.154489 2.519 -1.03952e-20)
(-0.119697 2.37284 0)
(-0.1645 1.76565 -2.53181e-21)
(-0.22632 1.82161 0)
(-0.205961 1.67329 0)
(-0.170614 1.69437 2.85331e-21)
(-0.0819168 2.02322 -1.83296e-20)
(-0.0747747 2.15825 6.97006e-20)
(-0.0547446 2.06561 4.63553e-22)
(-0.0918998 1.82996 1.67581e-20)
(-0.111286 1.82387 6.19159e-21)
(-0.0360152 1.75161 0)
(-0.0226868 1.76377 0)
(-0.332943 1.91328 -4.13214e-20)
(-0.288529 1.70713 -4.95644e-20)
(-0.261072 1.82542 5.95532e-20)
(-0.413959 1.87499 0)
(-0.0178991 1.82233 -3.09743e-20)
(-0.0164277 1.83117 1.46464e-20)
(-0.0166625 1.8345 -4.37696e-21)
(-0.0713276 1.81988 -2.02612e-20)
(-0.0417869 1.85621 -7.60773e-21)
(-0.0541459 1.86235 4.11205e-20)
(1.02366 0.0143328 -1.89256e-19)
(1.02319 0.0124655 1.90884e-19)
(1.01927 0.00955179 0)
(1.00129 0.0428615 2.73161e-19)
(0.99467 0.0318534 -3.215e-19)
(0.971519 0.0274386 3.69113e-19)
(0.994042 0.0810526 -3.6069e-20)
(1.02429 -0.0106377 0)
(1.03084 0.00490041 1.58367e-19)
(1.02272 -0.00939437 -1.57284e-19)
(1.04755 0.0373547 -8.62234e-21)
(1.04796 0.0306521 7.67553e-20)
(1.04326 0.0550966 0)
(1.03432 0.0441358 -2.90767e-20)
(1.02736 0.0297824 0)
(1.02362 0.0233894 0)
(1.03607 0.00894338 0)
(1.03185 0.011603 0)
(1.03439 0.0286282 6.01843e-20)
(1.0373 0.0215368 -1.36519e-19)
(1.03825 0.0324857 -6.03478e-20)
(1.03754 0.0318832 -7.0393e-20)
(1.03912 0.0586325 1.24457e-19)
(1.06618 0.0558168 0)
(1.05379 0.0929677 0)
(-0.0181425 1.82255 -1.14618e-20)
(-0.0172466 1.81215 -9.72258e-22)
(-0.0194395 1.81275 0)
(-0.0144392 1.82363 1.20228e-20)
(-0.0121085 1.81953 1.73439e-21)
(-0.0126727 1.82248 -1.6651e-21)
(-0.0266736 1.85907 2.21014e-20)
(-0.0169246 1.84267 -1.68056e-21)
(-0.0262484 1.84684 8.14368e-21)
(-0.00537781 1.84034 -1.18065e-20)
(-0.0102688 1.84401 1.44228e-20)
(-0.0251885 1.80571 8.16206e-23)
(-0.0237555 1.80801 1.33249e-20)
(0.488424 1.39639 -2.83262e-19)
(0.485333 1.41339 -2.70292e-19)
(0.63796 1.41835 -3.92098e-19)
(0.503412 1.4744 -2.08819e-19)
(0.523242 1.46164 0)
(0.609776 2.39611 9.63878e-20)
(0.694046 2.35571 1.67736e-19)
(0.421401 2.52103 6.50911e-20)
(0.445108 2.57501 -9.29624e-20)
(0.555032 2.5113 2.21337e-19)
(0.535057 2.45761 0)
(0.552631 2.46415 -2.57827e-19)
(0.234598 2.65787 4.10181e-19)
(0.377216 2.59644 -5.35531e-20)
(0.251761 2.69089 -6.53778e-19)
(0.924965 2.37697 1.39752e-19)
(0.826025 2.35137 0)
(1.01096 0.000764708 6.40344e-21)
(1.01424 -0.00471893 -5.29952e-21)
(1.01438 -0.00349635 -9.34566e-20)
(1.01354 -0.00166135 9.5714e-20)
(1.0132 0.000437031 0)
(0.629045 1.26575 0)
(0.644321 1.14475 0)
(0.744146 1.08997 0)
(0.633178 1.11336 0)
(1.18681 2.65088 2.95249e-20)
(1.06698 2.38346 0)
(0.838003 2.28291 -1.42817e-21)
(0.806302 2.50295 0)
(0.902272 2.59022 -1.91715e-22)
(0.934556 2.54044 1.26645e-22)
(0.835018 0.133397 0)
(0.808596 0.144175 5.60908e-20)
(0.920201 0.131306 2.85093e-19)
(0.864151 0.10967 -1.12596e-19)
(0.853314 0.0801283 -3.46055e-19)
(1.02589 0.209252 -1.61273e-19)
(0.945692 0.271282 -7.43911e-21)
(0.885624 0.298171 2.50305e-19)
(0.975781 0.208942 1.86981e-19)
(0.926113 0.168568 -3.58942e-19)
(0.895496 0.177461 4.76564e-20)
(0.910012 0.274675 -8.80992e-20)
(0.889569 0.191598 0)
(0.972217 0.170684 1.70315e-19)
(1.00331 0.169832 0)
(1.00498 0.184471 0)
(1.08266 0.10468 5.01307e-20)
(1.01195 0.148449 -6.77193e-21)
(1.01444 0.216501 -3.26346e-20)
(1.05702 0.182043 0)
(1.0166 0.025842 1.44709e-19)
(1.02782 0.0440531 1.71261e-19)
(1.02452 0.0306766 -1.42683e-19)
(1.0197 0.0464972 -1.15632e-19)
(1.00462 0.0469892 -1.92651e-19)
(0.977803 0.127551 0)
(0.979253 0.0758187 0)
(0.971279 0.0463071 -1.32968e-19)
(0.934549 0.0604461 5.6325e-20)
(1.00409 0.081538 1.63627e-19)
(1.02424 0.106985 -1.5902e-19)
(1.01878 0.136813 1.49045e-19)
(0.997042 0.122598 0)
(1.03787 0.0972304 0)
(1.02286 0.0812002 -6.72572e-20)
(1.02117 0.0786644 -1.30197e-19)
(0.598145 1.08933 -7.10734e-20)
(0.627333 1.45304 1.42161e-19)
(1.15221 2.75649 4.296e-20)
(1.20181 3.12774 -4.92193e-20)
(1.24934 2.75205 3.67809e-19)
(1.29282 2.72531 -1.88755e-19)
(1.25862 2.34754 -1.94729e-20)
(1.18704 3.03155 1.42771e-19)
(1.20482 2.98904 -1.41713e-19)
(1.18814 3.28096 -1.82959e-19)
(1.40284 2.99576 2.20319e-19)
(1.41793 2.92902 0)
(0.511811 0.854116 -7.79359e-21)
(0.244434 1.27508 1.94023e-19)
(0.484251 0.54396 2.31908e-19)
(0.336307 0.320685 2.70382e-19)
(0.581045 0.436109 2.66576e-19)
(0.547322 0.508165 -4.24737e-19)
(0.547192 0.514424 3.52745e-19)
(0.528834 0.47629 -1.39767e-19)
(0.508948 0.415765 3.21515e-19)
(0.769333 0.267571 -1.24301e-19)
(0.738534 0.285448 0)
(0.734122 0.252258 7.38595e-21)
(0.702062 0.515934 1.29094e-19)
(0.676224 0.483908 -4.75508e-19)
(0.635293 0.503178 1.52822e-20)
(0.652103 0.475754 0)
(0.652186 0.741621 9.33976e-20)
(0.73851 0.766541 5.51315e-20)
(0.695413 0.837576 -6.89107e-20)
(0.814029 0.79002 -1.33264e-20)
(0.872388 0.837469 8.96238e-21)
(0.874971 0.843429 -9.21037e-21)
(0.792824 0.637552 -1.4181e-19)
(0.879506 0.701449 1.24138e-20)
(0.941238 0.702007 0)
(0.927488 0.669883 -7.21589e-21)
(0.97654 0.321276 4.03205e-20)
(1.09091 0.29859 -5.49701e-21)
(1.00968 0.255477 6.4695e-20)
(0.949798 0.350606 -9.36776e-20)
(0.984707 0.431767 0)
(1.0522 0.406191 0)
(0.886157 0.353182 7.52373e-21)
(0.818829 0.292897 0)
(0.835321 0.284716 1.30703e-19)
(0.881083 0.30034 -4.82054e-22)
(0.901309 0.413351 4.9657e-19)
(0.839908 0.485456 1.26501e-19)
(0.853949 0.431117 -1.66384e-19)
(0.804464 0.423115 1.77129e-19)
(0.796184 0.411303 1.19759e-19)
(0.787757 0.394993 -1.17075e-19)
(1.02234 -0.010217 1.50628e-19)
(1.01943 -0.00734796 0)
(1.01737 -0.00505823 1.01395e-19)
(1.02243 -0.00708071 -2.2826e-19)
(1.02442 -0.00284374 1.10623e-19)
(1.02362 0.00781312 -2.3399e-19)
(1.02467 0.0101018 0)
(1.02274 0.0125312 -4.86867e-20)
(1.01722 0.00450762 1.2198e-19)
(1.01655 0.00956088 -6.1943e-20)
(1.01829 0.00791395 4.53037e-20)
(-0.156683 1.54219 0)
(-0.243899 1.6338 0)
(-0.211744 1.39832 0)
(-0.150827 1.44714 0)
(-0.364077 1.51325 -5.17037e-19)
(-0.259611 1.33359 1.62552e-19)
(-0.205652 1.7912 1.69595e-19)
(-0.245938 1.54414 -1.79839e-19)
(-0.35158 1.70256 9.5315e-20)
(-0.366371 1.68559 -7.26161e-20)
(-0.349755 1.48301 7.98884e-20)
(-0.3374 1.49347 1.98093e-19)
(-0.292423 1.51809 1.80027e-20)
(-0.305161 1.59422 9.70851e-21)
(-0.29407 2.40762 1.12944e-19)
(-0.225636 2.52997 0)
(-0.197139 2.32642 -7.02846e-20)
(-0.256885 1.95913 -1.18355e-19)
(0.416351 2.1727 7.8595e-20)
(0.233657 2.57175 0)
(0.229165 2.53075 -6.64933e-20)
(0.411149 2.47658 4.75051e-20)
(0.285376 2.22339 2.1241e-19)
(0.0414544 2.34895 -1.17266e-19)
(0.00132133 2.61019 0)
(-0.280092 1.98465 2.61421e-20)
(-0.177046 1.98373 -6.45593e-20)
(-0.208067 1.93638 0)
(-0.208066 2.1048 -1.53383e-21)
(-0.304548 2.11337 -6.30645e-21)
(-0.107119 1.7571 2.12819e-21)
(-0.0699667 1.76884 -2.96128e-20)
(-0.0655671 1.78412 8.83135e-21)
(-0.106548 1.78255 9.40277e-21)
(-0.14372 1.77684 0)
(-0.0504414 1.78501 0)
(-0.0233831 1.78814 1.41487e-20)
(-0.0295724 1.7969 -4.40751e-21)
(-0.0367404 1.79183 0)
(-0.0230813 1.77873 1.01749e-20)
(-0.0188008 1.7789 -2.06909e-20)
(1.03023 0.0121055 0)
(1.03893 0.015266 -1.49402e-20)
(1.04178 0.0224169 -1.07879e-19)
(1.04149 0.0234756 0)
(1.04079 0.0238884 0)
(1.04256 0.010044 -4.23797e-21)
(1.03944 0.00810691 1.82144e-19)
(1.03888 0.013071 2.19135e-19)
(1.03287 0.0137467 0)
(1.02818 0.0123783 0)
(1.03617 0.0200995 1.10305e-19)
(1.02704 0.0144478 0)
(1.02784 0.0133246 0)
(-0.0270062 1.82484 0)
(-0.0247658 1.80886 1.45131e-21)
(-0.0233525 1.81953 7.60376e-21)
(-0.0276169 1.80067 0)
(-0.0266298 1.81074 8.26475e-21)
(-0.0257194 1.80677 -4.23622e-21)
(-0.0281551 1.80151 0)
(0.359147 1.66779 0)
(0.415122 1.373 4.15459e-19)
(0.388611 1.37703 0)
(0.440836 1.35597 -5.53055e-19)
(0.492111 1.42875 0)
(0.4854 1.42413 2.59601e-19)
(1.01583 2.71443 -2.83389e-21)
(0.942322 2.40813 -1.73354e-19)
(0.880118 2.14871 2.17964e-19)
(0.839124 2.34799 7.96479e-20)
(0.836214 2.52682 0)
(0.897035 2.53337 0)
(0.910925 2.36777 0)
(0.891929 2.33611 -2.82836e-19)
(0.676324 2.49729 -4.28925e-20)
(0.795297 2.50049 -1.49188e-20)
(0.790435 2.47801 1.17343e-20)
(0.689607 2.35004 0)
(0.790603 2.34756 0)
(0.753682 2.35513 -1.5872e-19)
(0.752947 2.49276 0)
(0.595246 1.05166 0)
(0.492176 0.904591 -3.3305e-20)
(0.499584 0.95429 -1.19412e-21)
(0.50808 1.06924 0)
(0.491066 1.00452 5.64603e-20)
(0.729013 0.881186 5.84546e-21)
(0.759132 1.0049 0)
(0.730374 0.979506 -3.74068e-20)
(0.612779 1.00982 0)
(0.596582 0.934974 0)
(1.15791 2.79154 3.43599e-20)
(1.13712 2.85225 8.87395e-20)
(0.933624 2.39449 -2.09007e-19)
(0.904957 2.36188 2.91417e-20)
(1.12231 2.76829 0)
(1.06675 2.73848 -3.56932e-20)
(1.08256 2.51223 -4.90621e-20)
(0.969151 2.24026 -1.93668e-20)
(0.496048 1.40314 0)
(0.512495 1.06435 6.24598e-20)
(0.543197 1.13228 0)
(0.863038 0.201109 0)
(0.810501 0.152667 0)
(0.773589 0.170266 0)
(0.848995 0.218734 -2.05532e-19)
(0.791423 0.224542 1.29304e-19)
(0.935918 0.058397 -1.14396e-19)
(0.939639 0.10523 0)
(0.927949 0.113238 5.34319e-20)
(0.883638 0.077837 2.19769e-19)
(0.884068 0.0541368 -1.35088e-19)
(1.11634 3.37825 -6.50058e-19)
(1.1782 3.30284 0)
(1.13755 3.44906 -1.36555e-18)
(0.67096 3.59446 1.17093e-18)
(1.01175 3.12019 2.7487e-19)
(0.494801 0.846209 1.39803e-19)
(0.481398 0.822979 0)
(0.383632 0.560096 -5.36577e-20)
(0.406967 0.692707 2.49563e-19)
(0.501617 0.541188 -7.48093e-20)
(0.496604 0.562255 8.35703e-20)
(0.64225 0.557523 1.71167e-19)
(0.656209 0.573694 0)
(0.59697 0.634514 0)
(0.567912 0.577006 0)
(0.93201 0.581576 -2.99885e-20)
(0.857628 0.517129 -1.21037e-19)
(0.892556 0.56788 4.6767e-20)
(0.93249 0.475695 -8.80336e-20)
(0.993813 0.458306 0)
(1.0219 0.574322 -2.29715e-21)
(0.829933 0.370923 -2.64946e-19)
(0.82661 0.364714 -3.12095e-19)
(0.800995 0.369241 2.07235e-19)
(0.783839 0.341179 -2.33341e-19)
(0.821908 0.30191 -1.74537e-19)
(0.79002 0.298611 2.14155e-19)
(1.03148 -0.00285487 -1.16076e-19)
(1.03287 -0.0026429 2.38634e-19)
(1.02459 -0.00978062 1.41064e-19)
(1.0258 -0.00974189 -1.72166e-19)
(1.03334 0.00690626 0)
(1.03556 0.00555936 -2.87133e-19)
(-0.449598 1.96564 4.42706e-21)
(-0.418991 1.8608 0)
(-0.427465 1.944 -4.17321e-19)
(-0.374321 1.92411 4.04618e-19)
(-0.34877 1.7778 -3.17669e-19)
(-0.420265 1.8146 0)
(-0.0619539 1.82065 0)
(-0.0475752 1.79836 -4.67277e-21)
(-0.0357733 1.80154 4.23366e-21)
(-0.0328489 1.81031 2.11692e-21)
(-0.0416662 1.82651 -9.20978e-21)
(-0.0485029 1.82679 6.1814e-21)
(0.468267 1.42106 2.53898e-19)
(0.444269 1.41601 -2.7031e-19)
(0.430389 1.32773 2.75299e-19)
(0.402209 1.35142 -1.47736e-20)
(0.632613 1.28921 0)
(0.548648 1.40185 3.48986e-19)
(0.582759 1.36098 -3.37926e-19)
(0.452732 1.2931 -2.62905e-19)
(0.478936 1.23625 0)
(0.540048 1.17023 0)
(0.643947 2.45731 6.34567e-20)
(0.670883 2.45642 4.48102e-19)
(0.708413 2.46853 -3.04717e-19)
(0.648698 2.44087 -8.58101e-20)
(0.574179 2.56347 9.05683e-20)
(0.552107 2.52274 -2.57955e-19)
(0.956248 2.37912 -1.20064e-19)
(1.00052 2.41155 0)
(0.895605 2.14465 -1.48342e-19)
(1.03585 2.72308 0)
(1.03026 2.70612 0)
(0.613748 2.32576 2.25951e-19)
(1.11332 3.12843 2.97116e-19)
(0.985188 3.00379 -3.21149e-19)
(0.330474 0.942373 0)
(0.364905 0.847939 -9.27321e-20)
(0.539082 0.761988 -4.69775e-20)
(0.379836 2.16197 0)
(0.415614 2.77516 -1.94949e-19)
(0.430939 2.51655 0)
(0.641433 0.691318 -1.97227e-19)
(0.69554 0.672496 2.78454e-19)
(0.699385 0.636951 -2.76415e-19)
(0.61966 0.668848 -2.91458e-20)
(0.681117 0.618987 -1.23392e-19)
(0.981708 2.7899 -2.24506e-19)
(1.02058 2.80646 1.62579e-19)
(0.576109 2.24648 -7.62531e-20)
(0.609125 1.76996 2.06119e-20)
(0.702206 1.89395 1.23325e-20)
(0.984266 2.43642 -7.03598e-20)
(0.981786 2.40053 -4.94959e-20)
(0.660916 1.82069 2.80263e-22)
(0.458513 1.32765 -2.80947e-20)
)
;

boundaryField
{
    wall-4
    {
        type            noSlip;
    }
    velocity-inlet-5
    {
        type            fixedValue;
        value           uniform (1 0 0);
    }
    velocity-inlet-6
    {
        type            fixedValue;
        value           uniform (0 3 0);
    }
    pressure-outlet-7
    {
        type            zeroGradient;
    }
    wall-8
    {
        type            noSlip;
    }
    frontAndBackPlanes
    {
        type            empty;
    }
}

