/*--------------------------------*- C++ -*----------------------------------*\
  =========                 |
  \\      /  F ield         | OpenFOAM: The Open Source CFD Toolbox
   \\    /   O peration     | Website:  https://openfoam.org
    \\  /    A nd           | Version:  6
     \\/     M anipulation  |
\*---------------------------------------------------------------------------*/
FoamFile
{
    version     2.0;
    format      ascii;
    class       volVectorField;
    location    "0";
    object      U_rec;
}
// * * * * * * * * * * * * * * * * * * * * * * * * * * * * * * * * * * * * * //

dimensions      [0 1 -1 0 0 0 0];

internalField   nonuniform List<vector> 
40000
(
(5.06763e-07 -5.06783e-07 0)
(2.25357e-06 -7.05559e-07 0)
(3.88939e-06 -5.48842e-07 0)
(4.67423e-06 -2.08967e-07 0)
(4.07429e-06 1.97833e-07 0)
(1.898e-06 6.21849e-07 0)
(-1.89009e-06 1.0358e-06 0)
(-7.24581e-06 1.42559e-06 0)
(-1.40808e-05 1.78494e-06 0)
(-2.22849e-05 2.11179e-06 0)
(-3.17404e-05 2.40629e-06 0)
(-4.23287e-05 2.66981e-06 0)
(-5.39354e-05 2.90435e-06 0)
(-6.64529e-05 3.11218e-06 0)
(-7.97806e-05 3.2956e-06 0)
(-9.38268e-05 3.45691e-06 0)
(-0.000108506 3.5983e-06 0)
(-0.000123745 3.7218e-06 0)
(-0.000139472 3.82932e-06 0)
(-0.000155627 3.92259e-06 0)
(-0.000172154 4.0032e-06 0)
(-0.000189004 4.07258e-06 0)
(-0.000206133 4.13201e-06 0)
(-0.000223502 4.18269e-06 0)
(-0.000241077 4.22564e-06 0)
(-0.000258826 4.26182e-06 0)
(-0.000276725 4.29203e-06 0)
(-0.000294746 4.31702e-06 0)
(-0.000312872 4.33744e-06 0)
(-0.000331082 4.35386e-06 0)
(-0.000349361 4.36676e-06 0)
(-0.000367694 4.37658e-06 0)
(-0.000386069 4.38368e-06 0)
(-0.000404474 4.3884e-06 0)
(-0.000422901 4.39099e-06 0)
(-0.000441338 4.39169e-06 0)
(-0.00045978 4.39068e-06 0)
(-0.000478218 4.38811e-06 0)
(-0.000496646 4.38412e-06 0)
(-0.000515059 4.37881e-06 0)
(-0.000533447 4.37224e-06 0)
(-0.00055181 4.36448e-06 0)
(-0.000570139 4.35557e-06 0)
(-0.00058843 4.34553e-06 0)
(-0.000606678 4.33438e-06 0)
(-0.000624878 4.3221e-06 0)
(-0.000643025 4.30871e-06 0)
(-0.000661114 4.29418e-06 0)
(-0.000679139 4.27847e-06 0)
(-0.000697097 4.26157e-06 0)
(-0.00071498 4.24344e-06 0)
(-0.000732784 4.22405e-06 0)
(-0.000750503 4.20334e-06 0)
(-0.000768131 4.18126e-06 0)
(-0.000785661 4.15778e-06 0)
(-0.00080309 4.13283e-06 0)
(-0.000820407 4.10635e-06 0)
(-0.000837609 4.07829e-06 0)
(-0.000854687 4.04859e-06 0)
(-0.000871634 4.01717e-06 0)
(-0.000888443 3.98399e-06 0)
(-0.000905106 3.94898e-06 0)
(-0.000921615 3.91205e-06 0)
(-0.000937961 3.87315e-06 0)
(-0.000954137 3.8322e-06 0)
(-0.000970133 3.78913e-06 0)
(-0.000985938 3.74389e-06 0)
(-0.00100155 3.69638e-06 0)
(-0.00101695 3.64653e-06 0)
(-0.00103213 3.59432e-06 0)
(-0.00104708 3.53963e-06 0)
(-0.00106179 3.48239e-06 0)
(-0.00107626 3.42256e-06 0)
(-0.00109046 3.36009e-06 0)
(-0.00110439 3.2949e-06 0)
(-0.00111803 3.22693e-06 0)
(-0.00113139 3.15614e-06 0)
(-0.00114443 3.08248e-06 0)
(-0.00115715 3.00588e-06 0)
(-0.00116955 2.92635e-06 0)
(-0.0011816 2.8438e-06 0)
(-0.00119329 2.75825e-06 0)
(-0.00120462 2.66963e-06 0)
(-0.00121556 2.57794e-06 0)
(-0.00122611 2.48316e-06 0)
(-0.00123625 2.38528e-06 0)
(-0.00124597 2.2843e-06 0)
(-0.00125526 2.18022e-06 0)
(-0.00126411 2.07303e-06 0)
(-0.0012725 1.96276e-06 0)
(-0.00128042 1.84943e-06 0)
(-0.00128785 1.73305e-06 0)
(-0.0012948 1.61367e-06 0)
(-0.00130123 1.49132e-06 0)
(-0.00130715 1.36604e-06 0)
(-0.00131254 1.2379e-06 0)
(-0.00131738 1.10695e-06 0)
(-0.00132167 9.73245e-07 0)
(-0.0013254 8.36877e-07 0)
(-0.00132856 6.97917e-07 0)
(-0.00133113 5.56472e-07 0)
(-0.00133311 4.12615e-07 0)
(-0.00133448 2.66464e-07 0)
(-0.00133525 1.18135e-07 0)
(-0.00133538 -3.22501e-08 0)
(-0.0013349 -1.84576e-07 0)
(-0.00133378 -3.3868e-07 0)
(-0.00133201 -4.94433e-07 0)
(-0.0013296 -6.51678e-07 0)
(-0.00132653 -8.10241e-07 0)
(-0.00132281 -9.69961e-07 0)
(-0.00131842 -1.13065e-06 0)
(-0.00131336 -1.29211e-06 0)
(-0.00130764 -1.45415e-06 0)
(-0.00130124 -1.61657e-06 0)
(-0.00129418 -1.77914e-06 0)
(-0.00128644 -1.94166e-06 0)
(-0.00127803 -2.10387e-06 0)
(-0.00126895 -2.26556e-06 0)
(-0.00125921 -2.42643e-06 0)
(-0.0012488 -2.5863e-06 0)
(-0.00123774 -2.74493e-06 0)
(-0.00122603 -2.90202e-06 0)
(-0.00121367 -3.05726e-06 0)
(-0.00120067 -3.21045e-06 0)
(-0.00118704 -3.36131e-06 0)
(-0.0011728 -3.50957e-06 0)
(-0.00115795 -3.6549e-06 0)
(-0.0011425 -3.79718e-06 0)
(-0.00112648 -3.93611e-06 0)
(-0.00110988 -4.07136e-06 0)
(-0.00109273 -4.20266e-06 0)
(-0.00107505 -4.32997e-06 0)
(-0.00105685 -4.45273e-06 0)
(-0.00103814 -4.57103e-06 0)
(-0.00101895 -4.68451e-06 0)
(-0.000999306 -4.79298e-06 0)
(-0.000979214 -4.89622e-06 0)
(-0.000958702 -4.99411e-06 0)
(-0.000937791 -5.08648e-06 0)
(-0.000916504 -5.17313e-06 0)
(-0.000894866 -5.25396e-06 0)
(-0.000872898 -5.32882e-06 0)
(-0.000850626 -5.39765e-06 0)
(-0.000828075 -5.4603e-06 0)
(-0.000805269 -5.51672e-06 0)
(-0.000782235 -5.56683e-06 0)
(-0.000758997 -5.61057e-06 0)
(-0.000735586 -5.64788e-06 0)
(-0.000712021 -5.67874e-06 0)
(-0.000688328 -5.70311e-06 0)
(-0.000664546 -5.72095e-06 0)
(-0.000640691 -5.73227e-06 0)
(-0.000616787 -5.73702e-06 0)
(-0.000592871 -5.73519e-06 0)
(-0.000568974 -5.72677e-06 0)
(-0.000545102 -5.71174e-06 0)
(-0.000521303 -5.69005e-06 0)
(-0.000497592 -5.66168e-06 0)
(-0.000474005 -5.62658e-06 0)
(-0.00045057 -5.5847e-06 0)
(-0.00042731 -5.53596e-06 0)
(-0.000404258 -5.48029e-06 0)
(-0.000381439 -5.4176e-06 0)
(-0.000358887 -5.34774e-06 0)
(-0.00033663 -5.2706e-06 0)
(-0.000314699 -5.18601e-06 0)
(-0.000293127 -5.09381e-06 0)
(-0.000271945 -4.9938e-06 0)
(-0.000251186 -4.88575e-06 0)
(-0.000230885 -4.76942e-06 0)
(-0.000211076 -4.64457e-06 0)
(-0.000191798 -4.5109e-06 0)
(-0.000173085 -4.36813e-06 0)
(-0.000154978 -4.21593e-06 0)
(-0.000137516 -4.05399e-06 0)
(-0.000120741 -3.88197e-06 0)
(-0.000104694 -3.69956e-06 0)
(-8.9421e-05 -3.50643e-06 0)
(-7.49658e-05 -3.30225e-06 0)
(-6.13738e-05 -3.08678e-06 0)
(-4.86923e-05 -2.85978e-06 0)
(-3.69685e-05 -2.62108e-06 0)
(-2.62494e-05 -2.37061e-06 0)
(-1.6582e-05 -2.10846e-06 0)
(-8.01324e-06 -1.83487e-06 0)
(-5.85404e-07 -1.55038e-06 0)
(5.6616e-06 -1.25585e-06 0)
(1.06928e-05 -9.52718e-07 0)
(1.44818e-05 -6.43145e-07 0)
(1.70162e-05 -3.30385e-07 0)
(1.82983e-05 -1.93118e-08 0)
(1.83581e-05 2.82796e-07 0)
(1.7261e-05 5.65073e-07 0)
(1.5126e-05 8.11088e-07 0)
(1.21483e-05 9.96001e-07 0)
(8.62724e-06 1.08381e-06 0)
(5.019e-06 1.02313e-06 0)
(2.03247e-06 7.28624e-07 0)
(2.40493e-07 2.40255e-07 0)
(7.07173e-07 -2.25505e-06 0)
(3.25063e-06 -3.24604e-06 0)
(4.79944e-06 -1.95054e-06 0)
(3.93438e-06 6.2022e-07 0)
(-4.00453e-07 3.81513e-06 0)
(-8.67605e-06 7.24257e-06 0)
(-2.10394e-05 1.06721e-05 0)
(-3.7444e-05 1.39724e-05 0)
(-5.77257e-05 1.70727e-05 0)
(-8.16501e-05 1.99384e-05 0)
(-0.000108949 2.25574e-05 0)
(-0.000139341 2.49305e-05 0)
(-0.000172545 2.70667e-05 0)
(-0.000208289 2.89794e-05 0)
(-0.000246315 3.06841e-05 0)
(-0.00028638 3.21972e-05 0)
(-0.000328264 3.35353e-05 0)
(-0.000371759 3.47146e-05 0)
(-0.000416679 3.57501e-05 0)
(-0.000462854 3.66563e-05 0)
(-0.000510131 3.74465e-05 0)
(-0.000558371 3.8133e-05 0)
(-0.000607452 3.8727e-05 0)
(-0.000657261 3.92386e-05 0)
(-0.0007077 3.96772e-05 0)
(-0.000758681 4.00511e-05 0)
(-0.000810125 4.03677e-05 0)
(-0.000861961 4.06337e-05 0)
(-0.000914131 4.0855e-05 0)
(-0.000966576 4.1037e-05 0)
(-0.00101925 4.1184e-05 0)
(-0.00107211 4.13003e-05 0)
(-0.00112512 4.13892e-05 0)
(-0.00117823 4.14538e-05 0)
(-0.00123144 4.14966e-05 0)
(-0.00128469 4.15199e-05 0)
(-0.00133798 4.15254e-05 0)
(-0.00139127 4.15148e-05 0)
(-0.00144455 4.14892e-05 0)
(-0.00149779 4.14496e-05 0)
(-0.00155098 4.13969e-05 0)
(-0.0016041 4.13315e-05 0)
(-0.00165713 4.1254e-05 0)
(-0.00171006 4.11646e-05 0)
(-0.00176287 4.10635e-05 0)
(-0.00181555 4.09507e-05 0)
(-0.00186808 4.08262e-05 0)
(-0.00192044 4.06898e-05 0)
(-0.00197261 4.05414e-05 0)
(-0.00202459 4.03806e-05 0)
(-0.00207635 4.02073e-05 0)
(-0.00212788 4.0021e-05 0)
(-0.00217916 3.98214e-05 0)
(-0.00223017 3.96079e-05 0)
(-0.00228089 3.93802e-05 0)
(-0.0023313 3.91378e-05 0)
(-0.00238139 3.888e-05 0)
(-0.00243113 3.86065e-05 0)
(-0.0024805 3.83167e-05 0)
(-0.00252948 3.80101e-05 0)
(-0.00257805 3.76858e-05 0)
(-0.00262618 3.73434e-05 0)
(-0.00267386 3.69824e-05 0)
(-0.00272104 3.66019e-05 0)
(-0.00276772 3.62016e-05 0)
(-0.00281385 3.57809e-05 0)
(-0.00285943 3.53387e-05 0)
(-0.00290441 3.4875e-05 0)
(-0.00294877 3.43889e-05 0)
(-0.00299248 3.38798e-05 0)
(-0.00303551 3.33474e-05 0)
(-0.00307782 3.27908e-05 0)
(-0.0031194 3.22096e-05 0)
(-0.0031602 3.16035e-05 0)
(-0.00320019 3.09717e-05 0)
(-0.00323935 3.0314e-05 0)
(-0.00327763 2.96298e-05 0)
(-0.00331501 2.89188e-05 0)
(-0.00335145 2.81809e-05 0)
(-0.00338691 2.74155e-05 0)
(-0.00342135 2.66225e-05 0)
(-0.00345476 2.58018e-05 0)
(-0.00348708 2.49529e-05 0)
(-0.00351829 2.40761e-05 0)
(-0.00354835 2.31711e-05 0)
(-0.00357722 2.22379e-05 0)
(-0.00360487 2.12767e-05 0)
(-0.00363126 2.02874e-05 0)
(-0.00365637 1.92702e-05 0)
(-0.00368015 1.82254e-05 0)
(-0.00370256 1.71533e-05 0)
(-0.00372359 1.6054e-05 0)
(-0.00374318 1.49279e-05 0)
(-0.00376132 1.37756e-05 0)
(-0.00377797 1.25975e-05 0)
(-0.00379309 1.13941e-05 0)
(-0.00380666 1.01661e-05 0)
(-0.00381865 8.91408e-06 0)
(-0.00382902 7.63871e-06 0)
(-0.00383776 6.34093e-06 0)
(-0.00384482 5.02136e-06 0)
(-0.0038502 3.68114e-06 0)
(-0.00385386 2.32121e-06 0)
(-0.00385578 9.42483e-07 0)
(-0.00385593 -4.53838e-07 0)
(-0.00385431 -1.86657e-06 0)
(-0.00385088 -3.29452e-06 0)
(-0.00384563 -4.73629e-06 0)
(-0.00383856 -6.19061e-06 0)
(-0.00382962 -7.65589e-06 0)
(-0.00381884 -9.13062e-06 0)
(-0.00380617 -1.06134e-05 0)
(-0.00379164 -1.21022e-05 0)
(-0.00377521 -1.35955e-05 0)
(-0.0037569 -1.50916e-05 0)
(-0.00373669 -1.65884e-05 0)
(-0.0037146 -1.80842e-05 0)
(-0.00369062 -1.95766e-05 0)
(-0.00366477 -2.10639e-05 0)
(-0.00363703 -2.25439e-05 0)
(-0.00360744 -2.40143e-05 0)
(-0.00357599 -2.54733e-05 0)
(-0.00354271 -2.69175e-05 0)
(-0.00350763 -2.83468e-05 0)
(-0.00347074 -2.97564e-05 0)
(-0.00343209 -3.11461e-05 0)
(-0.0033917 -3.2512e-05 0)
(-0.0033496 -3.38525e-05 0)
(-0.00330582 -3.51659e-05 0)
(-0.00326041 -3.64482e-05 0)
(-0.00321338 -3.76987e-05 0)
(-0.00316479 -3.89151e-05 0)
(-0.00311469 -4.00954e-05 0)
(-0.00306312 -4.12359e-05 0)
(-0.00301011 -4.23361e-05 0)
(-0.00295575 -4.33945e-05 0)
(-0.00290006 -4.44079e-05 0)
(-0.0028431 -4.53751e-05 0)
(-0.00278494 -4.62948e-05 0)
(-0.00272564 -4.71652e-05 0)
(-0.00266526 -4.79848e-05 0)
(-0.00260387 -4.87524e-05 0)
(-0.00254151 -4.94669e-05 0)
(-0.00247828 -5.0127e-05 0)
(-0.00241422 -5.07319e-05 0)
(-0.00234941 -5.12807e-05 0)
(-0.00228393 -5.17726e-05 0)
(-0.00221784 -5.22069e-05 0)
(-0.00215121 -5.25833e-05 0)
(-0.00208413 -5.29009e-05 0)
(-0.00201665 -5.31596e-05 0)
(-0.00194887 -5.33588e-05 0)
(-0.00188084 -5.34981e-05 0)
(-0.00181266 -5.35773e-05 0)
(-0.00174438 -5.3596e-05 0)
(-0.0016761 -5.35538e-05 0)
(-0.00160788 -5.34505e-05 0)
(-0.00153982 -5.32855e-05 0)
(-0.00147197 -5.30583e-05 0)
(-0.00140443 -5.27685e-05 0)
(-0.00133727 -5.24154e-05 0)
(-0.00127058 -5.19981e-05 0)
(-0.00120444 -5.15158e-05 0)
(-0.00113893 -5.09674e-05 0)
(-0.00107413 -5.03519e-05 0)
(-0.00101013 -4.96677e-05 0)
(-0.00094703 -4.89135e-05 0)
(-0.000884914 -4.80874e-05 0)
(-0.000823867 -4.71877e-05 0)
(-0.000763998 -4.62123e-05 0)
(-0.000705397 -4.5159e-05 0)
(-0.000648162 -4.40256e-05 0)
(-0.000592398 -4.28093e-05 0)
(-0.000538222 -4.15077e-05 0)
(-0.00048574 -4.01181e-05 0)
(-0.000435055 -3.86376e-05 0)
(-0.000386299 -3.70637e-05 0)
(-0.000339582 -3.53936e-05 0)
(-0.000295031 -3.36249e-05 0)
(-0.000252763 -3.17553e-05 0)
(-0.00021292 -2.97833e-05 0)
(-0.000175621 -2.77074e-05 0)
(-0.000140999 -2.55276e-05 0)
(-0.000109173 -2.32445e-05 0)
(-8.02759e-05 -2.08606e-05 0)
(-5.44242e-05 -1.83803e-05 0)
(-3.1729e-05 -1.58108e-05 0)
(-1.22857e-05 -1.31631e-05 0)
(3.82715e-06 -1.04535e-05 0)
(1.65557e-05 -7.7054e-06 0)
(2.58874e-05 -4.95215e-06 0)
(3.18568e-05 -2.24074e-06 0)
(3.45682e-05 3.62021e-07 0)
(3.42219e-05 2.76247e-06 0)
(3.11448e-05 4.82905e-06 0)
(2.58332e-05 6.37913e-06 0)
(1.89959e-05 7.16553e-06 0)
(1.16254e-05 6.87024e-06 0)
(5.14997e-06 5.15701e-06 0)
(7.26847e-07 2.03001e-06 0)
(5.52591e-07 -3.89709e-06 0)
(1.96029e-06 -4.79706e-06 0)
(1.0602e-06 -1.05334e-06 0)
(-3.80246e-06 5.35723e-06 0)
(-1.38421e-05 1.31679e-05 0)
(-2.96727e-05 2.15662e-05 0)
(-5.15268e-05 3.00378e-05 0)
(-7.93832e-05 3.82672e-05 0)
(-0.000113051 4.60696e-05 0)
(-0.000152234 5.33442e-05 0)
(-0.000196574 6.0045e-05 0)
(-0.00024568 6.61611e-05 0)
(-0.000299157 7.17031e-05 0)
(-0.000356609 7.66959e-05 0)
(-0.000417661 8.11716e-05 0)
(-0.000481951 8.51663e-05 0)
(-0.000549145 8.87177e-05 0)
(-0.00061893 9.18635e-05 0)
(-0.00069102 9.464e-05 0)
(-0.000765153 9.70821e-05 0)
(-0.00084109 9.92225e-05 0)
(-0.000918613 0.000101092 0)
(-0.000997527 0.000102718 0)
(-0.00107766 0.000104127 0)
(-0.00115885 0.000105342 0)
(-0.00124095 0.000106384 0)
(-0.00132384 0.000107273 0)
(-0.00140741 0.000108025 0)
(-0.00149155 0.000108657 0)
(-0.00157618 0.000109182 0)
(-0.00166121 0.000109612 0)
(-0.00174657 0.000109958 0)
(-0.0018322 0.000110227 0)
(-0.00191805 0.00011043 0)
(-0.00200405 0.000110572 0)
(-0.00209017 0.00011066 0)
(-0.00217635 0.000110698 0)
(-0.00226257 0.00011069 0)
(-0.00234878 0.00011064 0)
(-0.00243495 0.00011055 0)
(-0.00252105 0.000110423 0)
(-0.00260704 0.000110261 0)
(-0.00269291 0.000110064 0)
(-0.00277862 0.000109834 0)
(-0.00286414 0.00010957 0)
(-0.00294945 0.000109273 0)
(-0.00303451 0.000108943 0)
(-0.0031193 0.00010858 0)
(-0.0032038 0.000108182 0)
(-0.00328797 0.000107751 0)
(-0.00337179 0.000107284 0)
(-0.00345523 0.000106781 0)
(-0.00353825 0.000106241 0)
(-0.00362082 0.000105662 0)
(-0.00370293 0.000105044 0)
(-0.00378452 0.000104385 0)
(-0.00386557 0.000103684 0)
(-0.00394604 0.00010294 0)
(-0.0040259 0.00010215 0)
(-0.00410511 0.000101314 0)
(-0.00418364 0.00010043 0)
(-0.00426143 9.94969e-05 0)
(-0.00433846 9.85131e-05 0)
(-0.00441468 9.74755e-05 0)
(-0.00449005 9.63847e-05 0)
(-0.00456453 9.52383e-05 0)
(-0.00463807 9.40347e-05 0)
(-0.00471062 9.27725e-05 0)
(-0.00478214 9.14495e-05 0)
(-0.00485259 9.00653e-05 0)
(-0.0049219 8.8618e-05 0)
(-0.00499003 8.71068e-05 0)
(-0.00505694 8.55302e-05 0)
(-0.00512257 8.38864e-05 0)
(-0.00518686 8.21744e-05 0)
(-0.00524977 8.03938e-05 0)
(-0.00531124 7.8544e-05 0)
(-0.00537121 7.66226e-05 0)
(-0.00542964 7.46309e-05 0)
(-0.00548647 7.25665e-05 0)
(-0.00554164 7.04297e-05 0)
(-0.00559509 6.82208e-05 0)
(-0.00564677 6.59381e-05 0)
(-0.00569665 6.35828e-05 0)
(-0.00574464 6.11546e-05 0)
(-0.00579068 5.86531e-05 0)
(-0.00583475 5.60786e-05 0)
(-0.00587678 5.34318e-05 0)
(-0.0059167 5.07135e-05 0)
(-0.00595447 4.7924e-05 0)
(-0.00599003 4.50641e-05 0)
(-0.00602335 4.21353e-05 0)
(-0.00605437 3.91379e-05 0)
(-0.00608302 3.60732e-05 0)
(-0.00610927 3.29433e-05 0)
(-0.00613307 2.97489e-05 0)
(-0.00615438 2.64923e-05 0)
(-0.00617314 2.3175e-05 0)
(-0.00618932 1.97988e-05 0)
(-0.00620286 1.63661e-05 0)
(-0.00621373 1.28792e-05 0)
(-0.0062219 9.34021e-06 0)
(-0.00622734 5.75185e-06 0)
(-0.00622999 2.11683e-06 0)
(-0.00622984 -1.56196e-06 0)
(-0.00622683 -5.28188e-06 0)
(-0.00622098 -9.03859e-06 0)
(-0.00621223 -1.28299e-05 0)
(-0.00620056 -1.66516e-05 0)
(-0.00618594 -2.04997e-05 0)
(-0.00616839 -2.43715e-05 0)
(-0.00614786 -2.82617e-05 0)
(-0.00612437 -3.21665e-05 0)
(-0.00609788 -3.60818e-05 0)
(-0.0060684 -4.00031e-05 0)
(-0.00603594 -4.39247e-05 0)
(-0.00600048 -4.78432e-05 0)
(-0.00596205 -5.17515e-05 0)
(-0.00592063 -5.5646e-05 0)
(-0.00587625 -5.95204e-05 0)
(-0.00582893 -6.3371e-05 0)
(-0.00577868 -6.71904e-05 0)
(-0.00572553 -7.09735e-05 0)
(-0.00566953 -7.4715e-05 0)
(-0.00561069 -7.84082e-05 0)
(-0.00554905 -8.20488e-05 0)
(-0.00548465 -8.5629e-05 0)
(-0.00541755 -8.91448e-05 0)
(-0.00534779 -9.25886e-05 0)
(-0.00527542 -9.59562e-05 0)
(-0.00520051 -9.92412e-05 0)
(-0.00512313 -0.000102438 0)
(-0.00504333 -0.000105542 0)
(-0.00496118 -0.000108547 0)
(-0.00487677 -0.000111448 0)
(-0.00479017 -0.000114239 0)
(-0.00470147 -0.000116918 0)
(-0.00461073 -0.000119478 0)
(-0.00451809 -0.000121915 0)
(-0.00442359 -0.000124226 0)
(-0.00432735 -0.000126407 0)
(-0.00422947 -0.000128454 0)
(-0.00413005 -0.000130364 0)
(-0.00402919 -0.000132134 0)
(-0.00392699 -0.000133762 0)
(-0.00382358 -0.000135244 0)
(-0.00371904 -0.000136579 0)
(-0.0036135 -0.000137766 0)
(-0.00350706 -0.0001388 0)
(-0.00339986 -0.000139684 0)
(-0.00329199 -0.000140413 0)
(-0.00318358 -0.000140987 0)
(-0.00307475 -0.000141404 0)
(-0.00296561 -0.000141664 0)
(-0.00285628 -0.000141765 0)
(-0.00274689 -0.000141707 0)
(-0.00263756 -0.000141487 0)
(-0.00252842 -0.000141105 0)
(-0.00241958 -0.000140559 0)
(-0.00231119 -0.000139848 0)
(-0.00220335 -0.000138968 0)
(-0.00209622 -0.000137919 0)
(-0.00198991 -0.000136698 0)
(-0.00188456 -0.000135301 0)
(-0.00178031 -0.000133727 0)
(-0.0016773 -0.00013197 0)
(-0.00157568 -0.000130026 0)
(-0.00147557 -0.000127892 0)
(-0.00137714 -0.000125563 0)
(-0.00128055 -0.000123033 0)
(-0.00118593 -0.000120296 0)
(-0.00109347 -0.000117347 0)
(-0.00100333 -0.000114179 0)
(-0.000915668 -0.000110784 0)
(-0.000830671 -0.000107159 0)
(-0.000748514 -0.000103293 0)
(-0.000669394 -9.91829e-05 0)
(-0.000593485 -9.48207e-05 0)
(-0.000520989 -9.02008e-05 0)
(-0.0004521 -8.53201e-05 0)
(-0.000387024 -8.01735e-05 0)
(-0.000325944 -7.47601e-05 0)
(-0.000269073 -6.90811e-05 0)
(-0.000216601 -6.31407e-05 0)
(-0.00016871 -5.69484e-05 0)
(-0.000125572 -5.05167e-05 0)
(-8.73651e-05 -4.38705e-05 0)
(-5.42045e-05 -3.70408e-05 0)
(-2.62069e-05 -3.00739e-05 0)
(-3.42979e-06 -2.3035e-05 0)
(1.41272e-05 -1.6011e-05 0)
(2.65407e-05 -9.12588e-06 0)
(3.39905e-05 -2.54566e-06 0)
(3.67923e-05 3.50461e-06 0)
(3.54335e-05 8.7227e-06 0)
(3.06192e-05 1.27074e-05 0)
(2.33074e-05 1.4945e-05 0)
(1.47794e-05 1.48073e-05 0)
(6.84586e-06 1.16262e-05 0)
(1.01714e-06 5.00569e-06 0)
(2.13278e-07 -4.68915e-06 0)
(-6.22427e-07 -3.92565e-06 0)
(-5.39333e-06 3.82162e-06 0)
(-1.5771e-05 1.57072e-05 0)
(-3.28835e-05 2.98646e-05 0)
(-5.73591e-05 4.50387e-05 0)
(-8.94534e-05 6.03941e-05 0)
(-0.000129149 7.53914e-05 0)
(-0.000176243 8.96965e-05 0)
(-0.000230399 0.000103115 0)
(-0.0002912 0.000115546 0)
(-0.00035819 0.000126955 0)
(-0.000430887 0.000137346 0)
(-0.000508811 0.000146753 0)
(-0.000591495 0.000155224 0)
(-0.000678488 0.000162818 0)
(-0.000769366 0.000169598 0)
(-0.00086373 0.000175628 0)
(-0.000961212 0.000180973 0)
(-0.00106147 0.000185693 0)
(-0.0011642 0.000189846 0)
(-0.0012691 0.000193488 0)
(-0.00137593 0.000196671 0)
(-0.00148445 0.00019944 0)
(-0.00159445 0.000201839 0)
(-0.00170573 0.000203908 0)
(-0.00181812 0.000205681 0)
(-0.00193149 0.000207192 0)
(-0.00204567 0.000208469 0)
(-0.00216056 0.000209538 0)
(-0.00227604 0.00021042 0)
(-0.00239201 0.000211137 0)
(-0.00250837 0.000211706 0)
(-0.00262506 0.000212142 0)
(-0.00274201 0.000212458 0)
(-0.00285913 0.000212665 0)
(-0.00297637 0.000212773 0)
(-0.00309368 0.000212789 0)
(-0.00321099 0.000212721 0)
(-0.00332828 0.000212573 0)
(-0.00344548 0.00021235 0)
(-0.00356256 0.000212055 0)
(-0.00367947 0.000211691 0)
(-0.00379617 0.000211258 0)
(-0.00391263 0.000210759 0)
(-0.0040288 0.000210193 0)
(-0.00414463 0.000209561 0)
(-0.0042601 0.000208861 0)
(-0.00437516 0.000208093 0)
(-0.00448977 0.000207257 0)
(-0.0046039 0.00020635 0)
(-0.00471749 0.000205371 0)
(-0.00483051 0.000204317 0)
(-0.00494291 0.000203187 0)
(-0.00505464 0.00020198 0)
(-0.00516566 0.00020069 0)
(-0.00527593 0.000199318 0)
(-0.00538538 0.000197858 0)
(-0.00549398 0.000196311 0)
(-0.00560167 0.000194672 0)
(-0.0057084 0.000192939 0)
(-0.0058141 0.000191108 0)
(-0.00591874 0.000189179 0)
(-0.00602225 0.000187146 0)
(-0.00612456 0.000185008 0)
(-0.00622561 0.000182761 0)
(-0.00632536 0.000180402 0)
(-0.00642373 0.00017793 0)
(-0.00652066 0.000175342 0)
(-0.00661608 0.000172634 0)
(-0.00670993 0.000169805 0)
(-0.00680214 0.000166852 0)
(-0.00689263 0.000163773 0)
(-0.00698136 0.000160566 0)
(-0.00706821 0.000157229 0)
(-0.00715315 0.00015376 0)
(-0.0072361 0.000150157 0)
(-0.00731698 0.000146421 0)
(-0.00739571 0.000142549 0)
(-0.00747223 0.000138541 0)
(-0.00754647 0.000134396 0)
(-0.00761835 0.000130113 0)
(-0.00768778 0.000125693 0)
(-0.00775472 0.000121135 0)
(-0.00781909 0.00011644 0)
(-0.00788078 0.000111608 0)
(-0.00793977 0.000106639 0)
(-0.00799596 0.000101536 0)
(-0.00804928 9.62993e-05 0)
(-0.00809967 9.09301e-05 0)
(-0.00814707 8.54304e-05 0)
(-0.00819139 7.98028e-05 0)
(-0.00823258 7.40486e-05 0)
(-0.00827058 6.81708e-05 0)
(-0.00830532 6.21724e-05 0)
(-0.00833674 5.60557e-05 0)
(-0.00836478 4.98244e-05 0)
(-0.00838939 4.34824e-05 0)
(-0.00841051 3.70333e-05 0)
(-0.00842809 3.04809e-05 0)
(-0.00844208 2.38291e-05 0)
(-0.00845244 1.70838e-05 0)
(-0.00845911 1.02481e-05 0)
(-0.00846204 3.32837e-06 0)
(-0.00846121 -3.66947e-06 0)
(-0.00845658 -1.07416e-05 0)
(-0.00844811 -1.78804e-05 0)
(-0.00843578 -2.508e-05 0)
(-0.00841955 -3.2334e-05 0)
(-0.00839941 -3.9636e-05 0)
(-0.00837531 -4.6978e-05 0)
(-0.00834727 -5.4353e-05 0)
(-0.00831525 -6.17527e-05 0)
(-0.00827926 -6.91704e-05 0)
(-0.00823929 -7.6596e-05 0)
(-0.00819533 -8.40209e-05 0)
(-0.00814739 -9.14373e-05 0)
(-0.00809548 -9.88349e-05 0)
(-0.00803961 -0.000106205 0)
(-0.00797981 -0.000113538 0)
(-0.0079161 -0.000120823 0)
(-0.00784848 -0.00012805 0)
(-0.00777703 -0.00013521 0)
(-0.00770175 -0.00014229 0)
(-0.0076227 -0.000149281 0)
(-0.00753993 -0.000156174 0)
(-0.00745349 -0.000162955 0)
(-0.00736345 -0.000169616 0)
(-0.00726985 -0.000176144 0)
(-0.00717279 -0.000182531 0)
(-0.00707234 -0.000188764 0)
(-0.00696857 -0.000194833 0)
(-0.00686158 -0.000200729 0)
(-0.00675144 -0.000206442 0)
(-0.00663828 -0.000211963 0)
(-0.00652216 -0.000217281 0)
(-0.00640324 -0.000222387 0)
(-0.00628158 -0.000227275 0)
(-0.00615733 -0.000231934 0)
(-0.0060306 -0.000236359 0)
(-0.0059015 -0.00024054 0)
(-0.00577019 -0.000244472 0)
(-0.00563677 -0.000248149 0)
(-0.0055014 -0.000251564 0)
(-0.0053642 -0.000254712 0)
(-0.0052253 -0.000257589 0)
(-0.00508489 -0.000260189 0)
(-0.00494308 -0.000262511 0)
(-0.00480003 -0.000264547 0)
(-0.00465588 -0.000266297 0)
(-0.00451081 -0.000267758 0)
(-0.00436494 -0.000268925 0)
(-0.00421846 -0.000269796 0)
(-0.00407151 -0.000270368 0)
(-0.00392425 -0.000270641 0)
(-0.00377685 -0.00027061 0)
(-0.00362947 -0.000270273 0)
(-0.00348229 -0.000269627 0)
(-0.00333546 -0.000268668 0)
(-0.00318916 -0.000267393 0)
(-0.00304356 -0.000265799 0)
(-0.00289884 -0.00026388 0)
(-0.00275518 -0.000261632 0)
(-0.00261274 -0.000259047 0)
(-0.00247173 -0.000256123 0)
(-0.00233232 -0.000252848 0)
(-0.00219473 -0.000249219 0)
(-0.00205913 -0.000245223 0)
(-0.00192573 -0.000240854 0)
(-0.00179475 -0.000236101 0)
(-0.00166637 -0.000230953 0)
(-0.00154084 -0.000225399 0)
(-0.00141838 -0.000219428 0)
(-0.0012992 -0.000213027 0)
(-0.00118355 -0.000206184 0)
(-0.00107167 -0.000198888 0)
(-0.000963803 -0.000191127 0)
(-0.000860204 -0.00018289 0)
(-0.00076113 -0.000174169 0)
(-0.000666829 -0.000164956 0)
(-0.00057758 -0.000155247 0)
(-0.000493623 -0.000145042 0)
(-0.000415218 -0.000134345 0)
(-0.000342621 -0.000123168 0)
(-0.000276064 -0.000111531 0)
(-0.000215764 -9.94655e-05 0)
(-0.000161925 -8.70183e-05 0)
(-0.000114702 -7.42544e-05 0)
(-7.42153e-05 -6.12648e-05 0)
(-4.05268e-05 -4.81741e-05 0)
(-1.36187e-05 -3.51495e-05 0)
(6.62563e-06 -2.24142e-05 0)
(2.04481e-05 -1.02673e-05 0)
(2.82478e-05 9.00334e-07 0)
(3.06207e-05 1.05773e-05 0)
(2.84005e-05 1.81118e-05 0)
(2.2688e-05 2.26892e-05 0)
(1.4924e-05 2.33387e-05 0)
(7.13376e-06 1.89839e-05 0)
(1.07375e-06 8.59366e-06 0)
(-1.9691e-07 -4.08608e-06 0)
(-3.86326e-06 4.56504e-07 0)
(-1.33345e-05 1.3941e-05 0)
(-3.01764e-05 3.287e-05 0)
(-5.52646e-05 5.48738e-05 0)
(-8.91402e-05 7.82998e-05 0)
(-0.000132016 0.000102004 0)
(-0.000183848 0.000125222 0)
(-0.000244403 0.000147455 0)
(-0.000313314 0.000168403 0)
(-0.000390124 0.000187897 0)
(-0.000474324 0.000205868 0)
(-0.000565375 0.000222306 0)
(-0.000662735 0.000237249 0)
(-0.000765869 0.00025076 0)
(-0.000874257 0.000262918 0)
(-0.000987404 0.000273814 0)
(-0.00110485 0.000283541 0)
(-0.00122614 0.000292192 0)
(-0.0013509 0.000299861 0)
(-0.00147873 0.000306634 0)
(-0.0016093 0.000312595 0)
(-0.0017423 0.000317823 0)
(-0.00187744 0.000322389 0)
(-0.00201446 0.000326363 0)
(-0.00215313 0.000329803 0)
(-0.00229324 0.000332766 0)
(-0.00243459 0.000335303 0)
(-0.00257702 0.000337459 0)
(-0.00272037 0.000339274 0)
(-0.0028645 0.000340784 0)
(-0.00300929 0.000342022 0)
(-0.00315462 0.000343014 0)
(-0.00330038 0.000343787 0)
(-0.0034465 0.000344359 0)
(-0.00359286 0.00034475 0)
(-0.00373942 0.000344975 0)
(-0.00388607 0.000345047 0)
(-0.00403277 0.000344975 0)
(-0.00417944 0.00034477 0)
(-0.00432603 0.000344438 0)
(-0.00447247 0.000343983 0)
(-0.00461872 0.000343411 0)
(-0.00476471 0.000342724 0)
(-0.0049104 0.000341924 0)
(-0.00505573 0.000341012 0)
(-0.00520065 0.000339985 0)
(-0.0053451 0.000338847 0)
(-0.00548904 0.000337593 0)
(-0.0056324 0.000336223 0)
(-0.00577515 0.000334735 0)
(-0.00591721 0.000333125 0)
(-0.00605853 0.000331391 0)
(-0.00619907 0.000329528 0)
(-0.00633874 0.000327535 0)
(-0.00647751 0.000325406 0)
(-0.0066153 0.000323138 0)
(-0.00675205 0.000320727 0)
(-0.00688769 0.000318169 0)
(-0.00702217 0.000315458 0)
(-0.00715539 0.000312591 0)
(-0.00728731 0.000309564 0)
(-0.00741785 0.000306374 0)
(-0.00754692 0.000303011 0)
(-0.00767447 0.000299476 0)
(-0.0078004 0.000295764 0)
(-0.00792465 0.000291868 0)
(-0.0080471 0.000287787 0)
(-0.00816773 0.000283514 0)
(-0.00828642 0.000279048 0)
(-0.00840309 0.000274385 0)
(-0.00851766 0.000269519 0)
(-0.00863004 0.00026445 0)
(-0.00874013 0.000259173 0)
(-0.00884788 0.000253687 0)
(-0.00895316 0.000247989 0)
(-0.00905591 0.000242077 0)
(-0.00915602 0.000235946 0)
(-0.00925341 0.000229602 0)
(-0.00934797 0.000223038 0)
(-0.00943966 0.000216255 0)
(-0.00952836 0.000209255 0)
(-0.00961398 0.000202036 0)
(-0.00969642 0.000194597 0)
(-0.00977562 0.000186941 0)
(-0.00985149 0.00017907 0)
(-0.00992391 0.000170983 0)
(-0.00999283 0.000162686 0)
(-0.0100582 0.000154176 0)
(-0.0101198 0.000145461 0)
(-0.0101777 0.00013654 0)
(-0.0102318 0.000127421 0)
(-0.010282 0.000118104 0)
(-0.0103281 0.000108595 0)
(-0.0103703 9.88984e-05 0)
(-0.0104083 8.90189e-05 0)
(-0.0104421 7.89626e-05 0)
(-0.0104716 6.8735e-05 0)
(-0.0104968 5.83423e-05 0)
(-0.0105177 4.77909e-05 0)
(-0.0105341 3.70879e-05 0)
(-0.010546 2.62399e-05 0)
(-0.0105534 1.5256e-05 0)
(-0.0105561 4.14284e-06 0)
(-0.0105543 -7.08915e-06 0)
(-0.0105477 -1.84331e-05 0)
(-0.0105365 -2.98788e-05 0)
(-0.0105205 -4.14163e-05 0)
(-0.0104997 -5.30344e-05 0)
(-0.0104741 -6.47246e-05 0)
(-0.0104436 -7.64737e-05 0)
(-0.0104084 -8.82707e-05 0)
(-0.0103682 -0.000100105 0)
(-0.0103232 -0.000111961 0)
(-0.0102734 -0.000123829 0)
(-0.0102186 -0.000135694 0)
(-0.010159 -0.000147541 0)
(-0.0100945 -0.000159358 0)
(-0.0100252 -0.000171129 0)
(-0.00995107 -0.000182839 0)
(-0.00987218 -0.000194474 0)
(-0.00978852 -0.000206017 0)
(-0.00970015 -0.000217451 0)
(-0.00960712 -0.000228761 0)
(-0.00950947 -0.000239932 0)
(-0.00940728 -0.000250945 0)
(-0.0093006 -0.000261785 0)
(-0.0091895 -0.000272435 0)
(-0.00907407 -0.000282878 0)
(-0.00895438 -0.000293098 0)
(-0.00883052 -0.000303078 0)
(-0.00870258 -0.000312802 0)
(-0.0085707 -0.000322254 0)
(-0.00843495 -0.000331419 0)
(-0.00829548 -0.000340282 0)
(-0.00815238 -0.000348827 0)
(-0.00800578 -0.000357041 0)
(-0.00785584 -0.000364911 0)
(-0.00770268 -0.000372424 0)
(-0.00754644 -0.000379565 0)
(-0.00738727 -0.000386324 0)
(-0.00722532 -0.00039269 0)
(-0.00706077 -0.000398654 0)
(-0.00689376 -0.000404204 0)
(-0.00672447 -0.000409333 0)
(-0.00655305 -0.000414033 0)
(-0.0063797 -0.000418296 0)
(-0.00620459 -0.000422114 0)
(-0.00602789 -0.000425482 0)
(-0.00584978 -0.000428394 0)
(-0.00567047 -0.000430842 0)
(-0.00549014 -0.000432825 0)
(-0.00530897 -0.000434336 0)
(-0.00512716 -0.000435369 0)
(-0.00494492 -0.000435921 0)
(-0.00476243 -0.000435987 0)
(-0.00457991 -0.000435562 0)
(-0.00439755 -0.00043464 0)
(-0.00421558 -0.000433217 0)
(-0.00403418 -0.000431285 0)
(-0.00385359 -0.000428837 0)
(-0.00367401 -0.000425866 0)
(-0.00349567 -0.000422365 0)
(-0.00331879 -0.000418322 0)
(-0.00314361 -0.000413729 0)
(-0.00297035 -0.000408573 0)
(-0.00279925 -0.000402842 0)
(-0.00263057 -0.000396522 0)
(-0.00246454 -0.000389598 0)
(-0.00230143 -0.000382055 0)
(-0.0021415 -0.000373877 0)
(-0.00198501 -0.000365045 0)
(-0.00183224 -0.000355543 0)
(-0.00168348 -0.00034535 0)
(-0.00153901 -0.00033445 0)
(-0.00139913 -0.000322824 0)
(-0.00126415 -0.000310456 0)
(-0.00113435 -0.000297329 0)
(-0.00101007 -0.000283435 0)
(-0.00089161 -0.00026876 0)
(-0.000779272 -0.000253303 0)
(-0.000673378 -0.000237068 0)
(-0.000574221 -0.000220062 0)
(-0.000482107 -0.000202311 0)
(-0.000397311 -0.000183851 0)
(-0.000320077 -0.000164736 0)
(-0.000250632 -0.000145048 0)
(-0.000189158 -0.000124892 0)
(-0.000135783 -0.000104419 0)
(-9.05608e-05 -8.38255e-05 0)
(-5.34632e-05 -6.33737e-05 0)
(-2.43383e-05 -4.34068e-05 0)
(-2.90349e-06 -2.43726e-05 0)
(1.12948e-05 -6.84367e-06 0)
(1.89178e-05 8.44586e-06 0)
(2.08664e-05 2.05832e-05 0)
(1.83156e-05 2.84467e-05 0)
(1.27825e-05 3.07057e-05 0)
(6.37265e-06 2.58317e-05 0)
(9.85179e-07 1.20934e-05 0)
(-6.30124e-07 -1.87716e-06 0)
(-7.38467e-06 8.87101e-06 0)
(-2.19839e-05 2.99966e-05 0)
(-4.58214e-05 5.7577e-05 0)
(-7.94202e-05 8.88644e-05 0)
(-0.000123156 0.000121879 0)
(-0.000177147 0.000155213 0)
(-0.000241284 0.000187889 0)
(-0.000315285 0.000219256 0)
(-0.000398744 0.000248902 0)
(-0.000491166 0.000276588 0)
(-0.000592001 0.000302201 0)
(-0.000700666 0.000325715 0)
(-0.000816572 0.000347167 0)
(-0.000939132 0.00036663 0)
(-0.00106777 0.000384205 0)
(-0.00120195 0.000400008 0)
(-0.00134114 0.000414163 0)
(-0.00148485 0.000426795 0)
(-0.00163263 0.000438028 0)
(-0.00178406 0.000447982 0)
(-0.00193873 0.000456773 0)
(-0.00209631 0.000464508 0)
(-0.00225645 0.00047129 0)
(-0.00241886 0.000477211 0)
(-0.00258326 0.000482358 0)
(-0.00274942 0.000486809 0)
(-0.00291709 0.000490636 0)
(-0.00308609 0.000493904 0)