/*--------------------------------*- C++ -*----------------------------------*\
  =========                 |
  \\      /  F ield         | OpenFOAM: The Open Source CFD Toolbox
   \\    /   O peration     | Website:  https://openfoam.org
    \\  /    A nd           | Version:  6
     \\/     M anipulation  |
\*---------------------------------------------------------------------------*/
FoamFile
{
    version     2.0;
    format      ascii;
    class       volVectorField;
    location    "0";
    object      U;
}
// * * * * * * * * * * * * * * * * * * * * * * * * * * * * * * * * * * * * * //

dimensions      [0 1 -1 0 0 0 0];

internalField   nonuniform List<vector> 
40000
(
(5.60907e-07 -5.60969e-07 0)
(2.806e-06 -9.07787e-07 0)
(5.3285e-06 -8.51979e-07 0)
(7.2363e-06 -5.45436e-07 0)
(7.79334e-06 -1.28021e-07 0)
(6.6745e-06 3.35294e-07 0)
(3.75783e-06 8.06313e-07 0)
(-9.65883e-07 1.26295e-06 0)
(-7.43706e-06 1.69326e-06 0)
(-1.55568e-05 2.09121e-06 0)
(-2.52055e-05 2.45435e-06 0)
(-3.62539e-05 2.78236e-06 0)
(-4.85704e-05 3.07606e-06 0)
(-6.20256e-05 3.33699e-06 0)
(-7.64953e-05 3.56707e-06 0)
(-9.18622e-05 3.76847e-06 0)
(-0.000108017 3.94352e-06 0)
(-0.000124858 4.09453e-06 0)
(-0.000142293 4.22378e-06 0)
(-0.000160237 4.33344e-06 0)
(-0.000178615 4.42558e-06 0)
(-0.000197359 4.50214e-06 0)
(-0.000216408 4.56494e-06 0)
(-0.000235707 4.61563e-06 0)
(-0.00025521 4.65575e-06 0)
(-0.000274874 4.68669e-06 0)
(-0.000294663 4.7097e-06 0)
(-0.000314546 4.7259e-06 0)
(-0.000334495 4.73629e-06 0)
(-0.000354488 4.74176e-06 0)
(-0.000374503 4.74308e-06 0)
(-0.000394525 4.74094e-06 0)
(-0.000414539 4.73592e-06 0)
(-0.000434533 4.72851e-06 0)
(-0.000454496 4.71914e-06 0)
(-0.000474422 4.70815e-06 0)
(-0.000494301 4.69584e-06 0)
(-0.00051413 4.68243e-06 0)
(-0.000533901 4.66809e-06 0)
(-0.000553612 4.65296e-06 0)
(-0.000573258 4.63713e-06 0)
(-0.000592835 4.62065e-06 0)
(-0.000612341 4.60353e-06 0)
(-0.000631772 4.58577e-06 0)
(-0.000651124 4.56733e-06 0)
(-0.000670394 4.54816e-06 0)
(-0.000689579 4.52819e-06 0)
(-0.000708675 4.50731e-06 0)
(-0.000727676 4.48544e-06 0)
(-0.000746579 4.46244e-06 0)
(-0.000765377 4.4382e-06 0)
(-0.000784066 4.41258e-06 0)
(-0.000802638 4.38543e-06 0)
(-0.000821087 4.35662e-06 0)
(-0.000839405 4.32597e-06 0)
(-0.000857585 4.29335e-06 0)
(-0.000875617 4.2586e-06 0)
(-0.000893491 4.22154e-06 0)
(-0.000911199 4.18203e-06 0)
(-0.000928728 4.13989e-06 0)
(-0.000946069 4.09498e-06 0)
(-0.000963208 4.04713e-06 0)
(-0.000980133 3.99618e-06 0)
(-0.000996831 3.94198e-06 0)
(-0.00101329 3.88437e-06 0)
(-0.00102949 3.8232e-06 0)
(-0.00104542 3.75833e-06 0)
(-0.00106106 3.68962e-06 0)
(-0.0010764 3.61693e-06 0)
(-0.00109142 3.54013e-06 0)
(-0.00110611 3.45909e-06 0)
(-0.00112044 3.3737e-06 0)
(-0.0011344 3.28385e-06 0)
(-0.00114796 3.18943e-06 0)
(-0.00116112 3.09036e-06 0)
(-0.00117384 2.98654e-06 0)
(-0.00118612 2.87792e-06 0)
(-0.00119792 2.76442e-06 0)
(-0.00120924 2.646e-06 0)
(-0.00122004 2.52262e-06 0)
(-0.00123032 2.39425e-06 0)
(-0.00124004 2.2609e-06 0)
(-0.0012492 2.12255e-06 0)
(-0.00125776 1.97924e-06 0)
(-0.0012657 1.83099e-06 0)
(-0.00127302 1.67786e-06 0)
(-0.00127968 1.51993e-06 0)
(-0.00128567 1.35726e-06 0)
(-0.00129098 1.18998e-06 0)
(-0.00129557 1.01819e-06 0)
(-0.00129943 8.42056e-07 0)
(-0.00130255 6.61721e-07 0)
(-0.00130491 4.7737e-07 0)
(-0.00130649 2.892e-07 0)
(-0.00130728 9.74306e-08 0)
(-0.00130726 -9.77028e-08 0)
(-0.00130642 -2.95944e-07 0)
(-0.00130475 -4.97019e-07 0)
(-0.00130224 -7.00634e-07 0)
(-0.00129888 -9.0648e-07 0)
(-0.00129465 -1.11423e-06 0)
(-0.00128956 -1.32354e-06 0)
(-0.00128359 -1.53404e-06 0)
(-0.00127675 -1.74538e-06 0)
(-0.00126903 -1.95714e-06 0)
(-0.00126043 -2.16894e-06 0)
(-0.00125096 -2.38037e-06 0)
(-0.0012406 -2.59099e-06 0)
(-0.00122937 -2.80038e-06 0)
(-0.00121728 -3.0081e-06 0)
(-0.00120433 -3.21369e-06 0)
(-0.00119053 -3.41672e-06 0)
(-0.0011759 -3.61672e-06 0)
(-0.00116044 -3.81325e-06 0)
(-0.00114418 -4.00585e-06 0)
(-0.00112713 -4.19407e-06 0)
(-0.0011093 -4.37746e-06 0)
(-0.00109072 -4.55558e-06 0)
(-0.00107142 -4.728e-06 0)
(-0.00105141 -4.89429e-06 0)
(-0.00103072 -5.05405e-06 0)
(-0.00100939 -5.20687e-06 0)
(-0.000987433 -5.35237e-06 0)
(-0.000964886 -5.49018e-06 0)
(-0.000941782 -5.61996e-06 0)
(-0.000918154 -5.74138e-06 0)
(-0.000894037 -5.85412e-06 0)
(-0.000869467 -5.9579e-06 0)
(-0.000844481 -6.05247e-06 0)
(-0.000819118 -6.13757e-06 0)
(-0.000793416 -6.213e-06 0)
(-0.000767416 -6.27858e-06 0)
(-0.000741158 -6.33414e-06 0)
(-0.000714684 -6.37955e-06 0)
(-0.000688036 -6.41471e-06 0)
(-0.000661256 -6.43954e-06 0)
(-0.000634385 -6.45399e-06 0)
(-0.000607468 -6.45804e-06 0)
(-0.000580546 -6.45171e-06 0)
(-0.000553662 -6.43501e-06 0)
(-0.000526859 -6.40802e-06 0)
(-0.000500178 -6.37081e-06 0)
(-0.000473662 -6.3235e-06 0)
(-0.000447352 -6.26622e-06 0)
(-0.000421288 -6.19913e-06 0)
(-0.000395511 -6.12241e-06 0)
(-0.00037006 -6.03625e-06 0)
(-0.000344973 -5.94087e-06 0)
(-0.000320289 -5.8365e-06 0)
(-0.000296044 -5.7234e-06 0)
(-0.000272273 -5.60184e-06 0)
(-0.000249011 -5.47207e-06 0)
(-0.000226292 -5.3344e-06 0)
(-0.000204148 -5.18912e-06 0)
(-0.00018261 -5.03654e-06 0)
(-0.000161708 -4.87697e-06 0)
(-0.00014147 -4.71073e-06 0)
(-0.000121925 -4.53813e-06 0)
(-0.000103097 -4.35952e-06 0)
(-8.50121e-05 -4.17521e-06 0)
(-6.76932e-05 -3.98553e-06 0)
(-5.11623e-05 -3.79082e-06 0)
(-3.54403e-05 -3.59141e-06 0)
(-2.05462e-05 -3.38764e-06 0)
(-6.49826e-06 -3.17985e-06 0)
(6.68713e-06 -2.96836e-06 0)
(1.89948e-05 -2.75353e-06 0)
(3.0411e-05 -2.5357e-06 0)
(4.09236e-05 -2.31524e-06 0)
(5.05218e-05 -2.09249e-06 0)
(5.91964e-05 -1.86785e-06 0)
(6.69399e-05 -1.6417e-06 0)
(7.37466e-05 -1.41447e-06 0)
(7.96125e-05 -1.18661e-06 0)
(8.45357e-05 -9.58587e-07 0)
(8.85164e-05 -7.30936e-07 0)
(9.15572e-05 -5.04234e-07 0)
(9.36635e-05 -2.79127e-07 0)
(9.48434e-05 -5.63403e-08 0)
(9.51085e-05 1.633e-07 0)
(9.44742e-05 3.78847e-07 0)
(9.29602e-05 5.89205e-07 0)
(9.05913e-05 7.93099e-07 0)
(8.73983e-05 9.89031e-07 0)
(8.34187e-05 1.17523e-06 0)
(7.86981e-05 1.3496e-06 0)
(7.32918e-05 1.5096e-06 0)
(6.72665e-05 1.6522e-06 0)
(6.07024e-05 1.77369e-06 0)
(5.36961e-05 1.86954e-06 0)
(4.63642e-05 1.93415e-06 0)
(3.88471e-05 1.96055e-06 0)
(3.13142e-05 1.94005e-06 0)
(2.39701e-05 1.8618e-06 0)
(1.70606e-05 1.71238e-06 0)
(1.08772e-05 1.4762e-06 0)
(5.75527e-06 1.13783e-06 0)
(2.0558e-06 6.86695e-07 0)
(8.34448e-08 1.42276e-07 0)
(-2.55314e-07 -2.55398e-07 0)
(9.10642e-07 -2.80875e-06 0)
(4.77197e-06 -4.76252e-06 0)
(8.34445e-06 -4.07452e-06 0)
(9.89988e-06 -1.71273e-06 0)
(7.97742e-06 1.58488e-06 0)
(1.82353e-06 5.33462e-06 0)
(-8.90715e-06 9.23103e-06 0)
(-2.43006e-05 1.30851e-05 0)
(-4.42689e-05 1.67823e-05 0)
(-6.86135e-05 2.02562e-05 0)
(-9.70685e-05 2.34709e-05 0)
(-0.000129331 2.64108e-05 0)
(-0.000165081 2.90732e-05 0)
(-0.000203995 3.14637e-05 0)
(-0.000245755 3.35934e-05 0)
(-0.000290055 3.54768e-05 0)
(-0.000336606 3.71305e-05 0)
(-0.000385138 3.85718e-05 0)
(-0.000435399 3.98186e-05 0)
(-0.000487159 4.08886e-05 0)
(-0.000540209 4.17988e-05 0)
(-0.000594356 4.25656e-05 0)
(-0.000649431 4.32044e-05 0)
(-0.00070528 4.37296e-05 0)
(-0.000761767 4.41545e-05 0)
(-0.000818771 4.44914e-05 0)
(-0.000876185 4.47514e-05 0)
(-0.000933917 4.49447e-05 0)
(-0.000991885 4.50802e-05 0)
(-0.00105002 4.51662e-05 0)
(-0.00110826 4.52097e-05 0)
(-0.00116655 4.52171e-05 0)
(-0.00122484 4.51938e-05 0)
(-0.00128311 4.51446e-05 0)
(-0.00134131 4.50734e-05 0)
(-0.00139942 4.49837e-05 0)
(-0.00145741 4.48783e-05 0)
(-0.00151527 4.47594e-05 0)
(-0.00157297 4.46289e-05 0)
(-0.0016305 4.44881e-05 0)
(-0.00168784 4.4338e-05 0)
(-0.00174498 4.41793e-05 0)
(-0.00180192 4.40123e-05 0)
(-0.00185862 4.38371e-05 0)
(-0.0019151 4.36535e-05 0)
(-0.00197132 4.34611e-05 0)
(-0.00202728 4.32594e-05 0)
(-0.00208297 4.30477e-05 0)
(-0.00213837 4.2825e-05 0)
(-0.00219346 4.25905e-05 0)
(-0.00224823 4.23431e-05 0)
(-0.00230266 4.20815e-05 0)
(-0.00235674 4.18047e-05 0)
(-0.00241043 4.15113e-05 0)
(-0.00246372 4.11999e-05 0)
(-0.00251658 4.08692e-05 0)
(-0.00256898 4.05179e-05 0)
(-0.00262091 4.01445e-05 0)
(-0.00267233 3.97475e-05 0)
(-0.0027232 3.93256e-05 0)
(-0.0027735 3.88773e-05 0)
(-0.00282318 3.84013e-05 0)
(-0.00287222 3.7896e-05 0)
(-0.00292058 3.73602e-05 0)
(-0.00296821 3.67924e-05 0)
(-0.00301507 3.61914e-05 0)
(-0.00306113 3.55558e-05 0)
(-0.00310633 3.48844e-05 0)
(-0.00315062 3.4176e-05 0)
(-0.00319397 3.34294e-05 0)
(-0.00323632 3.26436e-05 0)
(-0.00327762 3.18176e-05 0)
(-0.00331783 3.09503e-05 0)
(-0.00335687 3.00409e-05 0)
(-0.00339472 2.90887e-05 0)
(-0.0034313 2.80928e-05 0)
(-0.00346656 2.70528e-05 0)
(-0.00350045 2.59681e-05 0)
(-0.00353291 2.48383e-05 0)
(-0.00356389 2.36631e-05 0)
(-0.00359332 2.24424e-05 0)
(-0.00362115 2.11762e-05 0)
(-0.00364732 1.98646e-05 0)
(-0.00367177 1.85077e-05 0)
(-0.00369446 1.71061e-05 0)
(-0.00371531 1.56601e-05 0)
(-0.00373429 1.41706e-05 0)
(-0.00375133 1.26384e-05 0)
(-0.00376637 1.10645e-05 0)
(-0.00377938 9.44996e-06 0)
(-0.0037903 7.79627e-06 0)
(-0.00379908 6.1049e-06 0)
(-0.00380567 4.37752e-06 0)
(-0.00381004 2.616e-06 0)
(-0.00381213 8.22358e-07 0)
(-0.00381193 -1.00121e-06 0)
(-0.00380937 -2.85234e-06 0)
(-0.00380444 -4.7285e-06 0)
(-0.00379711 -6.62701e-06 0)
(-0.00378735 -8.54501e-06 0)
(-0.00377513 -1.04795e-05 0)
(-0.00376045 -1.24274e-05 0)
(-0.00374328 -1.43853e-05 0)
(-0.00372362 -1.63499e-05 0)
(-0.00370146 -1.83176e-05 0)
(-0.00367679 -2.02848e-05 0)
(-0.00364963 -2.22478e-05 0)
(-0.00361999 -2.42026e-05 0)
(-0.00358787 -2.61455e-05 0)
(-0.00355329 -2.80723e-05 0)
(-0.00351627 -2.99792e-05 0)
(-0.00347686 -3.1862e-05 0)
(-0.00343507 -3.37167e-05 0)
(-0.00339095 -3.55391e-05 0)
(-0.00334453 -3.73253e-05 0)
(-0.00329588 -3.9071e-05 0)
(-0.00324504 -4.07724e-05 0)
(-0.00319207 -4.24254e-05 0)
(-0.00313704 -4.40262e-05 0)
(-0.00308 -4.5571e-05 0)
(-0.00302105 -4.7056e-05 0)
(-0.00296025 -4.84778e-05 0)
(-0.00289768 -4.98327e-05 0)
(-0.00283344 -5.11177e-05 0)
(-0.0027676 -5.23295e-05 0)
(-0.00270027 -5.34651e-05 0)
(-0.00263155 -5.45218e-05 0)
(-0.00256153 -5.54971e-05 0)
(-0.00249031 -5.63884e-05 0)
(-0.00241801 -5.71938e-05 0)
(-0.00234474 -5.79113e-05 0)
(-0.0022706 -5.85391e-05 0)
(-0.0021957 -5.90758e-05 0)
(-0.00212017 -5.95202e-05 0)
(-0.00204412 -5.98713e-05 0)
(-0.00196767 -6.01284e-05 0)
(-0.00189093 -6.0291e-05 0)
(-0.00181403 -6.03589e-05 0)
(-0.00173709 -6.0332e-05 0)
(-0.00166021 -6.02106e-05 0)
(-0.00158353 -5.99951e-05 0)
(-0.00150716 -5.96863e-05 0)
(-0.00143121 -5.92851e-05 0)
(-0.00135581 -5.87925e-05 0)
(-0.00128106 -5.82099e-05 0)
(-0.00120708 -5.75389e-05 0)
(-0.00113398 -5.6781e-05 0)
(-0.00106187 -5.59382e-05 0)
(-0.000990854 -5.50124e-05 0)
(-0.000921035 -5.40058e-05 0)
(-0.000852516 -5.29208e-05 0)
(-0.000785393 -5.17596e-05 0)
(-0.000719763 -5.05247e-05 0)
(-0.000655716 -4.92189e-05 0)
(-0.000593343 -4.78446e-05 0)
(-0.000532727 -4.64048e-05 0)
(-0.000473952 -4.4902e-05 0)
(-0.000417096 -4.33393e-05 0)
(-0.000362234 -4.17194e-05 0)
(-0.000309437 -4.00454e-05 0)
(-0.000258774 -3.83201e-05 0)
(-0.000210307 -3.65465e-05 0)
(-0.000164099 -3.47276e-05 0)
(-0.000120204 -3.28665e-05 0)
(-7.86773e-05 -3.09663e-05 0)
(-3.95661e-05 -2.903e-05 0)
(-2.91577e-06 -2.70608e-05 0)
(3.12329e-05 -2.50621e-05 0)
(6.28434e-05 -2.30371e-05 0)
(9.18836e-05 -2.09893e-05 0)
(0.000118326 -1.89224e-05 0)
(0.000142147 -1.68402e-05 0)
(0.00016333 -1.47467e-05 0)
(0.000181863 -1.26464e-05 0)
(0.000197739 -1.0544e-05 0)
(0.000210959 -8.44457e-06 0)
(0.000221529 -6.35398e-06 0)
(0.000229466 -4.27857e-06 0)
(0.000234794 -2.22553e-06 0)
(0.000237546 -2.02988e-07 0)
(0.000237769 1.77978e-06 0)
(0.000235521 3.71211e-06 0)
(0.000230874 5.58169e-06 0)
(0.00022392 7.37424e-06 0)
(0.000214768 9.07305e-06 0)
(0.000203551 1.06585e-05 0)
(0.000190429 1.21076e-05 0)
(0.00017559 1.3393e-05 0)
(0.000159264 1.44822e-05 0)
(0.000141717 1.53366e-05 0)
(0.00012327 1.591e-05 0)
(0.000104298 1.61475e-05 0)
(8.52446e-05 1.59842e-05 0)
(6.66259e-05 1.53444e-05 0)
(4.90392e-05 1.41443e-05 0)
(3.31588e-05 1.23008e-05 0)
(1.97122e-05 9.75679e-06 0)
(9.42695e-06 6.54101e-06 0)
(2.9379e-06 2.94378e-06 0)
(1.41264e-07 8.21993e-08 0)
(8.59714e-07 -5.34483e-06 0)
(4.10239e-06 -8.34258e-06 0)
(5.81889e-06 -5.78962e-06 0)
(3.94267e-06 2.85383e-07 0)
(-3.25654e-06 8.43869e-06 0)
(-1.67509e-05 1.76742e-05 0)
(-3.70337e-05 2.73203e-05 0)
(-6.42648e-05 3.6935e-05 0)
(-9.83648e-05 4.62343e-05 0)
(-0.00013909 5.50412e-05 0)
(-0.000186092 6.32519e-05 0)
(-0.000238953 7.08128e-05 0)
(-0.000297222 7.77043e-05 0)
(-0.000360434 8.39303e-05 0)
(-0.000428123 8.951e-05 0)
(-0.000499837 9.44733e-05 0)
(-0.000575142 9.88562e-05 0)
(-0.000653626 0.000102699 0)
(-0.000734907 0.000106043 0)
(-0.000818628 0.000108931 0)
(-0.000904464 0.000111405 0)
(-0.000992117 0.000113504 0)
(-0.00108132 0.000115267 0)
(-0.00117182 0.000116729 0)
(-0.00126341 0.000117926 0)
(-0.00135588 0.000118887 0)
(-0.00144908 0.000119642 0)
(-0.00154284 0.000120215 0)
(-0.00163704 0.000120632 0)
(-0.00173155 0.000120912 0)
(-0.00182627 0.000121075 0)
(-0.00192111 0.000121136 0)
(-0.00201601 0.000121111 0)
(-0.00211088 0.000121012 0)
(-0.00220568 0.000120849 0)
(-0.00230035 0.000120632 0)
(-0.00239485 0.000120368 0)
(-0.00248914 0.000120064 0)
(-0.00258318 0.000119724 0)
(-0.00267696 0.000119353 0)
(-0.00277044 0.000118953 0)
(-0.00286359 0.000118526 0)
(-0.0029564 0.000118073 0)
(-0.00304883 0.000117595 0)
(-0.00314087 0.000117091 0)
(-0.0032325 0.000116561 0)
(-0.00332368 0.000116004 0)
(-0.0034144 0.000115417 0)
(-0.00350463 0.000114799 0)
(-0.00359434 0.000114147 0)
(-0.00368351 0.000113459 0)
(-0.0037721 0.000112731 0)
(-0.00386008 0.000111961 0)
(-0.00394741 0.000111146 0)
(-0.00403406 0.000110281 0)
(-0.00411998 0.000109364 0)
(-0.00420513 0.000108392 0)
(-0.00428947 0.000107359 0)
(-0.00437295 0.000106263 0)
(-0.00445552 0.000105101 0)
(-0.00453711 0.000103867 0)
(-0.00461769 0.00010256 0)
(-0.00469718 0.000101175 0)
(-0.00477552 9.97083e-05 0)
(-0.00485266 9.8157e-05 0)
(-0.00492852 9.65174e-05 0)
(-0.00500303 9.47863e-05 0)
(-0.00507613 9.29606e-05 0)
(-0.00514773 9.1037e-05 0)
(-0.00521777 8.90128e-05 0)
(-0.00528615 8.68852e-05 0)
(-0.00535281 8.46515e-05 0)
(-0.00541766 8.23094e-05 0)
(-0.00548062 7.98566e-05 0)
(-0.00554159 7.72913e-05 0)
(-0.0056005 7.46117e-05 0)
(-0.00565726 7.18162e-05 0)
(-0.00571177 6.89037e-05 0)
(-0.00576395 6.58733e-05 0)
(-0.0058137 6.27244e-05 0)
(-0.00586095 5.94566e-05 0)
(-0.00590559 5.607e-05 0)
(-0.00594753 5.2565e-05 0)
(-0.00598669 4.89423e-05 0)
(-0.00602299 4.5203e-05 0)
(-0.00605632 4.13487e-05 0)
(-0.00608661 3.73813e-05 0)
(-0.00611376 3.33031e-05 0)
(-0.00613771 2.91168e-05 0)
(-0.00615836 2.48256e-05 0)
(-0.00617564 2.04332e-05 0)
(-0.00618948 1.59435e-05 0)
(-0.0061998 1.1361e-05 0)
(-0.00620654 6.69076e-06 0)
(-0.00620964 1.938e-06 0)
(-0.00620903 -2.89142e-06 0)
(-0.00620465 -7.7913e-06 0)
(-0.00619647 -1.2755e-05 0)
(-0.00618444 -1.77754e-05 0)
(-0.00616851 -2.2845e-05 0)
(-0.00614866 -2.79561e-05 0)
(-0.00612485 -3.31003e-05 0)
(-0.00609708 -3.82692e-05 0)
(-0.00606531 -4.34538e-05 0)
(-0.00602955 -4.86449e-05 0)
(-0.0059898 -5.38331e-05 0)
(-0.00594607 -5.90085e-05 0)
(-0.00589836 -6.41613e-05 0)
(-0.0058467 -6.92812e-05 0)
(-0.00579113 -7.4358e-05 0)
(-0.00573168 -7.93812e-05 0)
(-0.00566839 -8.43404e-05 0)
(-0.00560132 -8.92249e-05 0)
(-0.00553054 -9.40241e-05 0)
(-0.00545611 -9.87276e-05 0)
(-0.0053781 -0.000103325 0)
(-0.00529662 -0.000107805 0)
(-0.00521174 -0.000112159 0)
(-0.00512357 -0.000116376 0)
(-0.00503221 -0.000120446 0)
(-0.00493779 -0.00012436 0)
(-0.00484043 -0.000128108 0)
(-0.00474025 -0.000131683 0)
(-0.00463739 -0.000135074 0)
(-0.004532 -0.000138274 0)
(-0.00442421 -0.000141276 0)
(-0.00431419 -0.000144072 0)
(-0.0042021 -0.000146656 0)
(-0.00408809 -0.000149021 0)
(-0.00397233 -0.000151162 0)
(-0.003855 -0.000153074 0)
(-0.00373627 -0.000154753 0)
(-0.00361633 -0.000156194 0)
(-0.00349534 -0.000157395 0)
(-0.0033735 -0.000158353 0)
(-0.00325098 -0.000159066 0)
(-0.00312798 -0.000159533 0)
(-0.00300469 -0.000159752 0)
(-0.00288128 -0.000159725 0)
(-0.00275796 -0.000159451 0)
(-0.00263489 -0.000158932 0)
(-0.00251228 -0.000158169 0)
(-0.0023903 -0.000157165 0)
(-0.00226913 -0.000155921 0)
(-0.00214897 -0.000154443 0)
(-0.00202998 -0.000152733 0)
(-0.00191234 -0.000150795 0)
(-0.00179622 -0.000148635 0)
(-0.00168179 -0.000146257 0)
(-0.00156922 -0.000143667 0)
(-0.00145866 -0.00014087 0)
(-0.00135028 -0.000137873 0)
(-0.00124421 -0.000134682 0)
(-0.00114062 -0.000131303 0)
(-0.00103963 -0.000127743 0)
(-0.000941395 -0.00012401 0)
(-0.000846039 -0.00012011 0)
(-0.000753688 -0.00011605 0)
(-0.000664464 -0.000111838 0)
(-0.000578481 -0.000107482 0)
(-0.00049585 -0.000102989 0)
(-0.000416675 -9.83664e-05 0)
(-0.000341053 -9.36225e-05 0)
(-0.000269077 -8.87649e-05 0)
(-0.000200832 -8.38019e-05 0)
(-0.0001364 -7.87415e-05 0)
(-7.58521e-05 -7.35922e-05 0)
(-1.92569e-05 -6.83626e-05 0)
(3.33258e-05 -6.30616e-05 0)
(8.18429e-05 -5.76984e-05 0)
(0.000126249 -5.22829e-05 0)
(0.000166505 -4.68254e-05 0)
(0.000202583 -4.13369e-05 0)
(0.000234462 -3.58293e-05 0)
(0.000262132 -3.03154e-05 0)
(0.000285592 -2.48094e-05 0)
(0.000304855 -1.93269e-05 0)
(0.000319946 -1.38852e-05 0)
(0.000330904 -8.50398e-06 0)
(0.000337786 -3.20514e-06 0)
(0.000340665 1.98626e-06 0)
(0.000339638 7.04162e-06 0)
(0.000334823 1.19281e-05 0)
(0.000326367 1.66078e-05 0)
(0.000314448 2.1037e-05 0)
(0.000299278 2.51646e-05 0)
(0.000281113 2.89314e-05 0)
(0.000260253 3.2268e-05 0)
(0.000237053 3.50936e-05 0)
(0.00021193 3.73135e-05 0)
(0.000185372 3.88176e-05 0)
(0.000157944 3.94784e-05 0)
(0.000130296 3.91507e-05 0)
(0.000103173 3.76738e-05 0)
(7.74079e-05 3.48806e-05 0)
(5.39151e-05 3.06213e-05 0)
(3.36441e-05 2.48171e-05 0)
(1.75284e-05 1.75695e-05 0)
(6.51193e-06 9.42369e-06 0)
(6.81936e-07 2.04494e-06 0)
(5.57123e-07 -7.27545e-06 0)
(1.74054e-06 -9.90622e-06 0)
(-2.86285e-07 -3.90301e-06 0)
(-7.68604e-06 7.65197e-06 0)
(-2.21711e-05 2.2594e-05 0)
(-4.47686e-05 3.93794e-05 0)
(-7.60258e-05 5.69215e-05 0)
(-0.000116133 7.44735e-05 0)
(-0.000165011 9.15339e-05 0)
(-0.000222391 0.000107776 0)
(-0.000287867 0.000122999 0)
(-0.000360948 0.000137088 0)
(-0.000441089 0.000149992 0)
(-0.00052772 0.000161705 0)
(-0.000620266 0.000172251 0)
(-0.000718158 0.000181675 0)
(-0.000820848 0.000190034 0)
(-0.000927812 0.000197396 0)
(-0.00103856 0.000203834 0)
(-0.00115262 0.000209421 0)
(-0.00126958 0.00021423 0)
(-0.00138903 0.000218334 0)
(-0.00151064 0.000221802 0)
(-0.00163407 0.000224699 0)
(-0.00175902 0.000227087 0)
(-0.00188525 0.000229024 0)
(-0.00201251 0.000230563 0)
(-0.0021406 0.00023175 0)
(-0.00226933 0.000232631 0)
(-0.00239854 0.000233245 0)
(-0.00252809 0.000233627 0)
(-0.00265785 0.000233807 0)
(-0.00278772 0.000233814 0)
(-0.0029176 0.000233671 0)
(-0.0030474 0.000233399 0)
(-0.00317706 0.000233015 0)
(-0.0033065 0.000232535 0)
(-0.00343568 0.000231969 0)
(-0.00356454 0.000231328 0)
(-0.00369303 0.00023062 0)
(-0.00382112 0.000229851 0)
(-0.00394877 0.000229024 0)
(-0.00407593 0.000228141 0)
(-0.00420258 0.000227205 0)
(-0.00432868 0.000226215 0)
(-0.0044542 0.000225169 0)
(-0.00457909 0.000224066 0)
(-0.00470333 0.000222903 0)
(-0.00482687 0.000221676 0)
(-0.00494968 0.00022038 0)
(-0.00507171 0.000219012 0)
(-0.00519292 0.000217565 0)
(-0.00531326 0.000216034 0)
(-0.00543269 0.000214414 0)
(-0.00555114 0.000212697 0)
(-0.00566856 0.000210878 0)
(-0.0057849 0.000208949 0)
(-0.00590008 0.000206905 0)
(-0.00601404 0.000204739 0)
(-0.00612672 0.000202443 0)
(-0.00623803 0.00020001 0)
(-0.0063479 0.000197435 0)
(-0.00645626 0.000194711 0)
(-0.006563 0.00019183 0)
(-0.00666805 0.000188786 0)
(-0.00677132 0.000185574 0)
(-0.00687271 0.000182186 0)
(-0.00697213 0.000178618 0)
(-0.00706947 0.000174863 0)
(-0.00716463 0.000170916 0)
(-0.00725751 0.000166772 0)
(-0.00734799 0.000162426 0)
(-0.00743597 0.000157874 0)
(-0.00752133 0.000153111 0)
(-0.00760397 0.000148135 0)
(-0.00768376 0.000142942 0)
(-0.00776058 0.00013753 0)
(-0.00783432 0.000131896 0)
(-0.00790486 0.000126038 0)
(-0.00797208 0.000119957 0)
(-0.00803586 0.000113651 0)
(-0.00809607 0.00010712 0)
(-0.00815261 0.000100367 0)
(-0.00820534 9.33912e-05 0)
(-0.00825416 8.61963e-05 0)
(-0.00829895 7.87849e-05 0)
(-0.00833958 7.11609e-05 0)
(-0.00837596 6.33289e-05 0)
(-0.00840798 5.52942e-05 0)
(-0.00843552 4.70629e-05 0)
(-0.00845849 3.86421e-05 0)
(-0.00847679 3.00396e-05 0)
(-0.00849033 2.12639e-05 0)
(-0.00849902 1.23245e-05 0)
(-0.00850277 3.23171e-06 0)
(-0.00850151 -6.00345e-06 0)
(-0.00849517 -1.53691e-05 0)
(-0.00848369 -2.48526e-05 0)
(-0.00846701 -3.44405e-05 0)
(-0.00844508 -4.41186e-05 0)
(-0.00841785 -5.38721e-05 0)
(-0.0083853 -6.36853e-05 0)
(-0.0083474 -7.35422e-05 0)
(-0.00830414 -8.34259e-05 0)
(-0.0082555 -9.33189e-05 0)
(-0.0082015 -0.000103204 0)
(-0.00814214 -0.000113061 0)
(-0.00807744 -0.000122873 0)
(-0.00800744 -0.000132621 0)
(-0.00793218 -0.000142285 0)
(-0.00785171 -0.000151844 0)
(-0.0077661 -0.000161281 0)
(-0.00767541 -0.000170574 0)
(-0.00757974 -0.000179705 0)
(-0.00747918 -0.000188652 0)
(-0.00737383 -0.000197397 0)
(-0.00726381 -0.00020592 0)
(-0.00714924 -0.000214203 0)
(-0.00703025 -0.000222225 0)
(-0.006907 -0.00022997 0)
(-0.00677964 -0.000237419 0)
(-0.00664832 -0.000244554 0)
(-0.00651323 -0.00025136 0)
(-0.00637454 -0.000257821 0)
(-0.00623245 -0.00026392 0)
(-0.00608714 -0.000269645 0)
(-0.00593883 -0.000274981 0)
(-0.00578772 -0.000279917 0)
(-0.00563404 -0.00028444 0)
(-0.00547799 -0.000288541 0)
(-0.00531982 -0.000292209 0)
(-0.00515975 -0.000295438 0)
(-0.00499802 -0.000298219 0)
(-0.00483487 -0.000300547 0)
(-0.00467055 -0.000302416 0)
(-0.00450529 -0.000303824 0)
(-0.00433935 -0.000304767 0)
(-0.00417297 -0.000305244 0)
(-0.0040064 -0.000305255 0)
(-0.0038399 -0.000304801 0)
(-0.0036737 -0.000303883 0)
(-0.00350805 -0.000302505 0)
(-0.00334321 -0.000300671 0)
(-0.00317941 -0.000298386 0)
(-0.00301689 -0.000295656 0)
(-0.00285589 -0.000292487 0)
(-0.00269664 -0.000288888 0)
(-0.00253937 -0.000284867 0)
(-0.0023843 -0.000280433 0)
(-0.00223166 -0.000275596 0)
(-0.00208166 -0.000270367 0)
(-0.00193451 -0.000264757 0)
(-0.0017904 -0.000258777 0)
(-0.00164955 -0.00025244 0)
(-0.00151213 -0.000245758 0)
(-0.00137833 -0.000238745 0)
(-0.00124833 -0.000231412 0)
(-0.0011223 -0.000223775 0)
(-0.0010004 -0.000215846 0)
(-0.000882792 -0.000207639 0)
(-0.00076962 -0.000199169 0)
(-0.000661025 -0.00019045 0)
(-0.000557143 -0.000181498 0)
(-0.000458097 -0.000172325 0)
(-0.000364007 -0.000162949 0)
(-0.00027498 -0.000153384 0)
(-0.000191119 -0.000143646 0)
(-0.000112515 -0.000133752 0)
(-3.92513e-05 -0.000123719 0)
(2.85993e-05 -0.000113565 0)
(9.09734e-05 -0.000103309 0)
(0.000147819 -9.29706e-05 0)
(0.000199095 -8.25711e-05 0)
(0.000244773 -7.21338e-05 0)
(0.000284838 -6.16837e-05 0)
(0.00031929 -5.12484e-05 0)
(0.000348146 -4.08584e-05 0)
(0.000371439 -3.05473e-05 0)
(0.000389224 -2.03531e-05 0)
(0.000401576 -1.03184e-05 0)
(0.000408598 -4.91456e-07 0)
(0.000410419 9.07277e-06 0)
(0.000407201 1.83116e-05 0)
(0.000399142 2.71532e-05 0)
(0.00038648 3.5515e-05 0)
(0.0003695 4.3302e-05 0)
(0.00034854 5.04044e-05 0)
(0.000323996 5.66959e-05 0)
(0.000296333 6.20305e-05 0)
(0.000266087 6.62405e-05 0)
(0.00023388 6.91347e-05 0)
(0.000200422 7.04965e-05 0)
(0.00016652 7.00866e-05 0)
(0.000133075 6.76493e-05 0)
(0.000101084 6.29308e-05 0)
(7.16191e-05 5.57176e-05 0)
(4.57871e-05 4.59121e-05 0)
(2.47071e-05 3.36691e-05 0)
(9.69071e-06 1.96719e-05 0)
(1.12647e-06 5.71833e-06 0)
(1.3839e-07 -7.85034e-06 0)
(-1.60619e-06 -7.94786e-06 0)
(-8.60087e-06 3.39118e-06 0)
(-2.29549e-05 2.22061e-05 0)
(-4.61603e-05 4.56825e-05 0)
(-7.91749e-05 7.17629e-05 0)
(-0.000122515 9.89538e-05 0)
(-0.000176351 0.000126195 0)
(-0.00024058 0.00015275 0)
(-0.0003149 0.000178124 0)
(-0.000398861 0.000201997 0)
(-0.000491915 0.000224182 0)
(-0.000593448 0.000244582 0)
(-0.000702812 0.000263172 0)
(-0.000819345 0.000279975 0)
(-0.000942392 0.000295048 0)
(-0.00107131 0.00030847 0)
(-0.00120549 0.000320339 0)
(-0.00134434 0.000330759 0)
(-0.00148732 0.00033984 0)
(-0.00163391 0.000347691 0)
(-0.00178365 0.000354423 0)
(-0.00193611 0.000360141 0)
(-0.00209088 0.000364946 0)
(-0.00224761 0.000368932 0)
(-0.00240598 0.00037219 0)
(-0.0025657 0.000374801 0)
(-0.00272652 0.000376841 0)
(-0.00288819 0.000378378 0)
(-0.00305052 0.000379476 0)
(-0.00321332 0.00038019 0)
(-0.00337643 0.000380569 0)
(-0.00353972 0.000380657 0)
(-0.00370306 0.000380492 0)
(-0.00386634 0.000380108 0)
(-0.00402946 0.000379533 0)
(-0.00419234 0.00037879 0)
(-0.00435491 0.0003779 0)
(-0.00451708 0.000376879 0)
(-0.00467881 0.000375739 0)
(-0.00484003 0.000374489 0)
(-0.00500069 0.000373138 0)
(-0.00516075 0.000371689 0)
(-0.00532014 0.000370145 0)
(-0.00547883 0.000368506 0)
(-0.00563677 0.00036677 0)
(-0.0057939 0.000364935 0)
(-0.00595019 0.000362996 0)
(-0.00610557 0.000360948 0)
(-0.00626 0.000358784 0)
(-0.00641341 0.000356497 0)
(-0.00656576 0.000354079 0)
(-0.00671698 0.000351521 0)
(-0.006867 0.000348813 0)
(-0.00701576 0.000345947 0)
(-0.00716319 0.000342911 0)
(-0.0073092 0.000339696 0)
(-0.00745371 0.000336292 0)
(-0.00759665 0.000332687 0)
(-0.00773792 0.000328872 0)
(-0.00787743 0.000324834 0)
(-0.00801508 0.000320564 0)
(-0.00815077 0.000316052 0)
(-0.0082844 0.000311286 0)
(-0.00841585 0.000306258 0)
(-0.00854502 0.000300956 0)
(-0.00867178 0.000295371 0)
(-0.00879601 0.000289494 0)
(-0.0089176 0.000283317 0)
(-0.0090364 0.00027683 0)
(-0.0091523 0.000270027 0)
(-0.00926515 0.000262899 0)
(-0.00937482 0.00025544 0)
(-0.00948118 0.000247643 0)
(-0.00958407 0.000239504 0)
(-0.00968336 0.000231017 0)
(-0.00977891 0.000222179 0)
(-0.00987056 0.000212986 0)
(-0.00995817 0.000203436 0)
(-0.0100416 0.000193529 0)
(-0.0101207 0.000183263 0)
(-0.0101953 0.000172639 0)
(-0.0102653 0.00016166 0)
(-0.0103305 0.000150328 0)
(-0.0103908 0.000138646 0)
(-0.0104461 0.000126621 0)
(-0.0104962 0.000114258 0)
(-0.0105409 0.000101565 0)
(-0.0105802 8.85507e-05 0)
(-0.0106139 7.52255e-05 0)
(-0.0106419 6.16008e-05 0)
(-0.010664 4.76892e-05 0)
(-0.0106803 3.35046e-05 0)
(-0.0106905 1.90623e-05 0)
(-0.0106945 4.37899e-06 0)
(-0.0106924 -1.05275e-05 0)
(-0.0106839 -2.56382e-05 0)
(-0.010669 -4.09325e-05 0)
(-0.0106477 -5.63891e-05 0)
(-0.0106198 -7.19851e-05 0)
(-0.0105854 -8.76968e-05 0)
(-0.0105444 -0.000103499 0)
(-0.0104968 -0.000119367 0)
(-0.0104426 -0.000135272 0)
(-0.0103817 -0.000151188 0)
(-0.0103141 -0.000167085 0)
(-0.0102399 -0.000182936 0)
(-0.0101592 -0.000198709 0)
(-0.0100719 -0.000214374 0)
(-0.00997808 -0.000229901 0)
(-0.00987785 -0.000245259 0)
(-0.00977127 -0.000260417 0)
(-0.00965844 -0.000275342 0)
(-0.00953946 -0.000290003 0)
(-0.00941445 -0.00030437 0)
(-0.00928353 -0.000318411 0)
(-0.00914685 -0.000332096 0)
(-0.00900457 -0.000345394 0)
(-0.00885686 -0.000358275 0)
(-0.00870388 -0.000370711 0)
(-0.00854583 -0.000382673 0)
(-0.00838292 -0.000394135 0)
(-0.00821534 -0.00040507 0)
(-0.00804334 -0.000415452 0)
(-0.00786713 -0.000425259 0)
(-0.00768695 -0.000434468 0)
(-0.00750306 -0.000443057 0)
(-0.00731572 -0.000451007 0)
(-0.00712519 -0.0004583 0)
(-0.00693173 -0.000464919 0)
(-0.00673564 -0.00047085 0)
(-0.00653719 -0.000476079 0)
(-0.00633666 -0.000480596 0)
(-0.00613437 -0.00048439 0)
(-0.00593059 -0.000487454 0)
(-0.00572564 -0.000489782 0)
(-0.0055198 -0.000491371 0)
(-0.00531339 -0.000492217 0)
(-0.00510671 -0.00049232 0)
(-0.00490005 -0.000491681 0)
(-0.00469373 -0.000490304 0)
(-0.00448804 -0.000488193 0)
(-0.00428328 -0.000485353 0)
(-0.00407975 -0.000481794 0)
(-0.00387774 -0.000477524 0)
(-0.00367754 -0.000472554 0)
(-0.00347944 -0.000466895 0)
(-0.00328372 -0.000460562 0)
(-0.00309065 -0.000453568 0)
(-0.00290049 -0.000445928 0)
(-0.00271353 -0.000437661 0)
(-0.00253 -0.000428782 0)
(-0.00235016 -0.00041931 0)
(-0.00217425 -0.000409264 0)
(-0.00200251 -0.000398663 0)
(-0.00183517 -0.000387528 0)
(-0.00167244 -0.00037588 0)
(-0.00151453 -0.000363739 0)
(-0.00136165 -0.000351127 0)
(-0.00121398 -0.000338067 0)
(-0.00107173 -0.00032458 0)
(-0.000935049 -0.00031069 0)
(-0.000804118 -0.000296419 0)
(-0.000679091 -0.000281792 0)
(-0.000560114 -0.000266833 0)
(-0.000447324 -0.000251567 0)
(-0.000340849 -0.000236019 0)
(-0.000240802 -0.000220216 0)
(-0.00014729 -0.000204185 0)
(-6.04034e-05 -0.000187956 0)
(1.97777e-05 -0.000171559 0)
(9.31873e-05 -0.000155027 0)
(0.000159774 -0.000138394 0)
(0.000219501 -0.000121699 0)
(0.00027235 -0.000104983 0)
(0.000318321 -8.82898e-05 0)
(0.000357433 -7.16699e-05 0)
(0.000389728 -5.51783e-05 0)
(0.000415275 -3.88767e-05 0)
(0.000434169 -2.28343e-05 0)
(0.000446534 -7.12923e-06 0)
(0.000452533 8.15013e-06 0)
(0.000452365 2.29034e-05 0)
(0.000446273 3.70161e-05 0)
(0.00043455 5.03579e-05 0)
(0.000417543 6.27798e-05 0)
(0.00039566 7.41114e-05 0)
(0.000369377 8.41584e-05 0)
(0.000339247 9.26996e-05 0)
(0.000305904 9.94844e-05 0)
(0.000270074 0.000104231 0)
(0.000232575 0.000106627 0)
(0.000194327 0.000106336 0)
(0.000156348 0.000103003 0)
(0.00011975 9.62903e-05 0)
(8.57271e-05 8.59143e-05 0)
(5.55234e-05 7.17365e-05 0)
(3.04508e-05 5.38965e-05 0)
(1.21965e-05 3.30486e-05 0)
(1.45704e-06 1.07925e-05 0)
(-3.35366e-07 -6.71544e-06 0)
(-5.48274e-06 -1.63386e-06 0)
(-1.81963e-05 1.71917e-05 0)
(-4.04398e-05 4.51456e-05 0)
(-7.33482e-05 7.88761e-05 0)
(-0.000117715 0.000115877 0)
(-0.000173958 0.000154285 0)
(-0.000242173 0.000192742 0)
(-0.000322207 0.000230283 0)
(-0.000413709 0.000266238 0)
(-0.000516184 0.000300164 0)
(-0.000629029 0.000331788 0)
(-0.000751575 0.000360963 0)
(-0.000883112 0.000387638 0)
(-0.00102291 0.000411828 0)
(-0.00117025 0.000433599 0)
(-0.00132441 0.000453054 0)
(-0.0014847 0.000470317 0)
(-0.00165047 0.000485526 0)
(-0.0018211 0.000498829 0)
(-0.001996 0.000510377 0)
(-0.00217465 0.000520319 0)
(-0.00235653 0.000528801 0)
(-0.0025412 0.000535964 0)
(-0.00272824 0.00054194 0)
(-0.00291727 0.000546854 0)
(-0.00310796 0.000550823 0)
(-0.0033 0.000553954 0)
(-0.00349311 0.000556344 0)
(-0.00368705 0.000558082 0)
(-0.00388161 0.000559249 0)
(-0.00407658 0.000559914 0)