/*--------------------------------*- C++ -*----------------------------------*\
  =========                 |
  \\      /  F ield         | OpenFOAM: The Open Source CFD Toolbox
   \\    /   O peration     | Website:  https://openfoam.org
    \\  /    A nd           | Version:  6
     \\/     M anipulation  |
\*---------------------------------------------------------------------------*/
FoamFile
{
    version     2.0;
    format      ascii;
    class       volScalarField;
    location    "0";
    object      P_rec;
}
// * * * * * * * * * * * * * * * * * * * * * * * * * * * * * * * * * * * * * //

dimensions      [0 2 -2 0 0 0 0];

internalField   nonuniform List<scalar> 
918
(
0.56059
0.338158
0.106306
0.580923
-0.00205564
0.229034
-0.791908
0.522711
0.585418
-0.102689
0.0362675
0.454829
0.0655291
0.0421898
-1.22629
0.0228961
0.580417
-0.719904
0.41757
0.0254717
-0.0584278
0.584229
0.517105
0.414431
0.49991
-0.0338023
0.135082
-0.0357304
-0.0546437
-0.0417492
-0.00310993
0.0483942
0.0112
0.203353
0.196361
0.238343
0.422882
0.217476
-0.654601
-0.707391
-0.695457
-0.863424
0.531319
0.544921
-0.289876
0.500706
0.475338
0.427528
0.564481
0.588329
0.521387
0.566882
0.594802
0.285005
-0.140662
-0.213517
-0.0624239
-0.0652069
0.0829867
0.0302073
0.0168895
0.0624086
0.0502133
0.374456
0.446398
0.441872
0.46526
0.465567
0.296578
0.25421
0.299575
0.0648284
0.196181
0.0412333
0.149217
0.0466704
0.0835353
0.0230263
0.00610997
-1.5031
-2.26957
-0.750707
-0.608805
0.00529832
0.025098
0.0356435
0.568042
0.570149
0.566537
0.575683
0.728361
-0.645145
-0.833872
0.449977
0.448926
0.571558
0.526159
0.467748
0.403744
0.0228465
0.0186195
0.011836
0.0412802
0.0318756
0.121886
0.234931
0.393193
0.42563
0.465461
0.490896
0.477766
0.206144
0.538894
0.54189
-0.0734534
0.0925068
-0.0365714
0.0408257
0.143241
0.110009
0.213965
0.25098
-0.059016
-0.0103939
0.0392876
0.0051762
0.0295187
0.42278
0.412867
0.436496
0.425914
0.431654
0.123488
0.0207052
0.286951
0.309157
-0.531624
-0.572892
-0.739969
-0.764677
-0.890884
0.505843
0.548086
0.563695
-0.391842
-0.257383
-0.429971
-0.177456
-0.22297
0.429206
0.422394
0.422234
0.430214
0.434482
0.43502
0.573234
0.566042
0.600766
0.293253
0.368788
0.269835
0.224723
-0.4352
-0.300506
-0.417423
-0.036278
-0.00230885
0.073196
0.107972
0.115619
0.0860626
-0.00253417
0.0126664
0.00289692
0.0217899
0.0236374
0.37676
0.361447
0.376523
0.386237
0.44018
0.43825
0.443955
0.445383
0.222379
0.213178
0.172514
0.148278
-3.07096
-5.26263
-0.407038
-0.310353
-0.00217107
-0.0127914
-0.0047884
-0.0809713
-0.0148432
-0.0408429
0.0728637
0.0461783
0.0378625
0.0557528
0.564928
0.575888
0.73446
0.775354
0.644261
0.642335
0.445013
0.455195
0.451053
0.45236
0.0354055
0.0201983
0.0364139
0.441351
0.337217
0.389962
0.170753
0.0771138
0.254525
0.293083
0.565494
0.549164
0.571552
-0.0711226
0.0101418
0.351392
0.110803
0.338083
0.171613
0.139177
0.180848
0.106959
0.391469
0.408145
0.404988
0.4341
0.440438
0.440486
0.441426
0.434565
0.438584
-0.137572
-0.439322
0.334707
0.33931
0.33117
0.354669
0.588315
0.663234
0.568699
0.558848
0.569977
-0.0760737
-0.116066
0.175797
0.159982
0.32453
0.340444
0.33055
0.143095
0.101481
0.141316
0.126696
0.102117
0.151746
-0.411002
-1.79721
-1.0179
-0.104541
-0.196749
-0.162244
0.0464649
0.106657
0.0753745
0.745458
0.793826
0.409225
0.565621
0.517931
-0.0962097
-0.0184896
0.0854087
-0.0366329
0.0133622
0.0922719
0.0456186
0.390216
0.305093
0.349426
0.69311
0.763544
0.042218
-0.0245224
-0.0637108
0.13188
0.13055
0.125566
0.782417
0.756759
0.792036
0.401267
0.391637
-0.0558536
-0.00430529
0.500333
0.525267
-0.0582143
-0.0235053
-0.103987
-0.824498
0.035483
0.45238
0.410818
0.46602
-0.121272
0.197923
0.00928543
0.0285479
-0.0235974
0.426695
0.356877
0.323664
-0.0576445
0.00986632
-0.00116602
-0.411674
0.459151
0.443208
0.451319
0.462631
0.475649
-0.00562016
-0.0130263
0.029351
-0.0321837
0.0417526
0.0397846
0.432779
0.422131
-0.443061
0.445548
0.469044
0.468123
0.480618
0.482053
0.470699
-0.0111564
0.0323949
0.0391319
0.146688
0.253546
0.00874188
-0.0360299
0.0218748
-0.119233
-0.311118
-0.0310169
-0.0189008
-0.0342139
-0.00525377
0.532727
0.501087
0.118675
-0.0571819
0.116017
0.0774861
0.447862
0.46495
0.438002
0.448797
0.467468
0.419479
0.482846
0.452357
0.449269
0.491217
-0.079443
-0.0249152
-0.0723961
-0.197766
0.281821
0.363676
0.187655
0.250055
0.104204
-0.00729269
0.0469511
-0.0132195
0.00613065
0.0106187
0.104602
0.0391942
0.139521
0.0231151
0.110376
-0.0273399
0.138882
0.00389814
0.410897
0.430662
0.426951
0.467123
0.387889
0.406109
0.381976
0.382269
0.399799
0.3314
0.349737
0.348774
0.0144704
0.0143375
0.0436154
0.0253784
0.0476907
-0.025877
-0.0231823
-0.0238818
-0.00337817
-0.044705
-0.00639674
0.000842291
-0.335703
-0.505307
0.684027
0.557319
0.145336
0.421033
0.463923
0.437925
0.474326
0.484846
0.516375
0.481985
0.459733
0.428841
0.444492
0.427341
0.4447
-0.370845
-0.431935
-0.284908
-0.332936
0.132141
0.546071
0.301049
0.245565
0.236393
0.407256
0.342702
0.106078
-0.145971
-0.2634
-0.539664
-0.386599
-0.554952
-0.0974308
-0.0529417
-0.0639812
0.0110537
0.0825638
0.0209864
0.00517527
-0.110603
0.438193
-0.186158
-0.165625
0.0601443
-0.020854
0.247148
0.533306
0.543406
0.478965
0.456195
0.516463
0.490414
0.488845
0.521373
0.527561
0.427747
0.193058
0.175063
0.110221
0.540166
0.449183
0.485949
0.374548
0.466749
0.471267
0.450861
0.440941
0.476897
0.440225
0.43586
0.41433
0.408379
0.446001
0.449129
0.420816
0.00305009
-0.0100884
-0.0750395
-0.294573
-0.162181
-0.261669
-0.117055
0.0596555
-0.0287384
0.142832
0.294782
0.0428229
-0.199232
-0.053956
-0.149747
0.139702
0.0599717
0.128442
0.137394
0.14542
0.142124
0.201989
0.173397
0.039373
0.0495902
0.0792658
0.00232807
0.133283
0.0987328
0.1585
0.0648113
0.11555
0.0687129
0.0311863
0.0127243
0.107539
0.0587308
0.0157553
0.0316928
0.0204591
-0.0639209
-0.0592057
0.175824
0.0517994
0.452013
0.436102
0.43783
0.455953
0.48898
0.481983
0.42772
0.428762
0.454768
0.426216
0.396846
0.379489
0.371456
0.402124
0.412755
0.409715
0.449916
0.441216
0.412752
0.43279
0.380766
0.399776
0.353486
0.370233
0.394906
-0.0903937
0.0242
-0.0324498
-0.0392902
0.0137613
0.0506344
0.11255
0.0349726
0.118688
0.0911087
0.063931
0.0313707
0.0582852
-0.200918
-0.0781196
-0.369906
-0.421005
-0.517867
0.666921
0.730105
0.599548
0.461191
0.524114
0.612111
0.693316
0.417568
0.449041
0.519577
0.379557
0.685492
0.447949
0.433639
0.453664
0.473543
0.450914
-0.226753
-0.095689
-0.0373375
0.0688534
0.193039
0.256745
0.0244576
0.0561929
0.162586
0.149192
0.526309
0.546619
0.512695
0.545577
0.539992
0.342524
0.431951
0.46425
0.457268
0.462637
0.483672
0.48645
0.484157
0.414923
0.409104
0.415021
0.371103
0.395066
0.367605
0.364515
0.424393
0.403226
0.404719
0.415018
0.462728
0.443637
0.470055
0.514099
0.495909
0.397143
0.377585
0.401624
0.412069
0.389193
0.388258
0.384404
0.0991797
0.139637
0.0811806
-0.117974
0.0140508
-0.0494826
-0.0947018
-0.083149
0.073521
-0.418292
-0.361164
-0.887632
0.332326
0.407035
0.205585
-0.0530008
0.436059
0.470336
0.455435
0.362769
0.372731
0.52459
0.546921
0.555073
0.478993
0.475388
0.495993
0.482385
0.430207
0.299592
0.238818
0.273965
0.11808
0.174779
0.336102
0.274896
0.229832
0.256062
0.352821
0.260973
0.290744
0.360857
0.322496
0.309118
0.442758
0.487813
0.506225
0.451728
0.358128
0.41451
0.404494
0.452787
0.493012
0.49668
0.449938
0.433401
0.442898
0.434117
0.423313
0.440232
0.410983
0.455555
0.4607
0.468415
0.462549
-0.0108295
0.0159881
0.0275228
-0.0178023
-0.0169613
-0.0619386
-0.0452562
-0.0685239
0.0778814
0.0552865
-0.0333442
-0.00198652
0.0901906
0.0440324
0.115703
0.132495
0.0784583
0.0211741
0.226844
0.366667
0.354099
0.316315
0.207292
0.215637
0.30895
0.0449231
0.132996
0.0857513
0.0551377
0.0528315
0.0228788
0.113542
0.0518132
0.0907163
0.0426587
-0.10483
0.0474459
0.0991379
-0.0430246
0.0132344
0.0447093
0.415876
0.418752
0.402524
0.383541
0.390897
0.39114
0.425861
0.450918
0.452959
0.451514
0.457496
0.440874
0.447013
0.0158689
0.130538
0.157997
0.0944108
0.0505349
-0.002114
-0.0184011
0.0428121
-0.0292296
0.0411873
-0.171214
-0.269872
-0.204024
0.26892
0.300376
0.253693
0.627206
0.454865
0.351668
0.445325
0.581846
0.239125
0.381137
0.241308
0.670191
0.616787
0.70912
0.472645
0.0369299
0.150774
0.283449
0.0056229
0.0277353
0.121721
0.116355
0.123187
0.119893
0.209024
0.162127
0.148573
0.0291448
0.0135754
0.203138
0.168619
0.282803
0.320877
-0.0530394
0.0115495
-0.0461288
0.503884
0.527918
0.550956
0.524724
0.544709
0.483174
0.480697
0.512947
0.537279
0.525981
-0.727714
-0.458677
-1.32355
-0.64902
-0.334948
0.43005
0.19287
0.76052
0.60407
0.480392
0.502376
0.504111
0.465412
0.517797
0.52089
0.26785
0.362467
0.306624
0.345275
0.258249
0.186565
0.486177
0.472349
0.50111
0.521911
0.474524
0.52002
0.374926
0.415277
0.396962
0.430049
0.452045
0.470726
0.0979985
0.0341861
0.0805491
0.0707521
0.0545318
0.0268555
-0.0382429
-0.00817556
0.170603
0.112017
0.0539687
0.109805
-0.114846
-0.0820129
-0.172306
-0.108883
-0.17757
-0.285388
-0.269815
-0.271016
-0.208098
-0.116325
0.386024
0.570288
0.465684
0.616259
0.44952
0.591516
0.253597
0.294903
0.294058
0.225306
0.261469
0.00556412
-0.304312
-0.213311
0.815106
0.907619
0.575387
0.318847
0.07531
0.375687
0.452559
0.382955
0.403837
0.485605
0.448765
-0.104652
-0.0209105
-0.0369091
0.0455924
0.146371
0.0723673
0.0827334
0.0977008
0.100357
)
;

boundaryField
{
    wall-4
    {
        type            calculated;
        value           nonuniform List<scalar> 
100
(
0.56059
0.338158
0.106306
0.580923
0.229034
-0.791908
0.522711
-0.102689
0.0362675
0.454829
0.0655291
0.0421898
-1.22629
0.580417
-0.719904
0.41757
0.0254717
-0.0584278
0.414431
0.49991
-0.0338023
0.135082
-0.0357304
0.203353
0.422882
-0.707391
-0.863424
0.544921
-0.289876
0.475338
0.427528
-0.213517
-0.0652069
0.0168895
0.0502133
0.374456
0.441872
0.465567
0.196181
0.149217
0.0835353
0.00610997
-2.26957
-0.608805
0.570149
0.575683
-0.833872
0.448926
0.403744
0.0186195
0.0318756
0.234931
0.42563
0.477766
0.206144
0.54189
-0.0734534
0.0408257
0.110009
0.25098
0.412867
0.436496
0.431654
-0.572892
-0.890884
0.563695
-0.429971
-0.22297
0.422234
0.43502
-0.417423
-0.00230885
0.00289692
0.0236374
0.361447
0.386237
0.44018
0.445383
0.148278
-0.310353
0.575888
0.445013
0.45236
0.0364139
0.389962
0.0771138
0.293083
0.571552
0.0101418
0.171613
0.404988
0.440486
0.438584
0.569977
-0.116066
0.33055
0.126696
-0.162244
0.0133622
-0.0637108
)
;
    }
    velocity-inlet-5
    {
        type            calculated;
        value           nonuniform List<scalar> 8(0.56059 0.580923 0.585418 0.584229 0.588329 0.594802 0.571558 0.600766);
    }
    velocity-inlet-6
    {
        type            calculated;
        value           nonuniform List<scalar> 4(0.338158 0.229034 0.238343 0.299575);
    }
    pressure-outlet-7
    {
        type            calculated;
        value           uniform 0;
    }
    wall-8
    {
        type            calculated;
        value           nonuniform List<scalar> 
34
(
-0.00205564
0.0228961
0.0112
0.217476
0.285005
0.0829867
0.0356435
0.728361
0.0295187
0.0207052
0.309157
0.505843
0.368788
0.224723
0.107972
0.0860626
-5.26263
0.0728637
0.0557528
0.775354
0.642335
-0.439322
0.334707
0.354669
0.663234
0.159982
-1.0179
0.0753745
0.793826
0.517931
0.349426
0.763544
0.125566
0.792036
)
;
    }
    frontAndBackPlanes
    {
        type            empty;
    }
}

