/*--------------------------------*- C++ -*----------------------------------*\
  =========                 |
  \\      /  F ield         | OpenFOAM: The Open Source CFD Toolbox
   \\    /   O peration     | Website:  https://openfoam.org
    \\  /    A nd           | Version:  6
     \\/     M anipulation  |
\*---------------------------------------------------------------------------*/
FoamFile
{
    version     2.0;
    format      ascii;
    class       volScalarField;
    location    "0";
    object      p;
}
// * * * * * * * * * * * * * * * * * * * * * * * * * * * * * * * * * * * * * //

dimensions      [0 2 -2 0 0 0 0];

internalField   nonuniform List<scalar> 
13046
(
0.529164
0.509547
0.573314
0.53656
0.565825
0.526058
0.516716
0.529851
0.573989
0.250598
0.227638
0.536905
0.514313
0.479175
0.566831
0.318545
0.539967
0.256263
0.566185
0.556197
0.528317
0.308314
0.541183
0.253801
0.534013
0.536894
0.565726
0.499297
0.478451
0.56957
0.538632
0.487192
0.566855
0.548046
0.568247
0.533418
0.547157
0.570236
0.544308
0.540888
0.56091
0.470054
0.546857
0.566577
0.553653
0.544038
0.557743
0.556048
0.516652
0.508946
0.573445
0.529858
0.543757
0.422948
0.537248
0.404094
0.548697
0.337774
0.449547
0.548746
0.443366
0.467319
0.560111
0.546499
0.334624
0.356323
0.465964
0.341835
0.545151
0.480284
0.352509
0.546147
0.317593
0.435687
0.547811
0.565643
0.567721
0.512274
0.549083
0.40311
0.314371
0.527559
0.533338
0.564946
0.543564
0.312713
0.332016
0.328937
0.54523
0.363999
0.535868
0.280899
0.367749
0.448225
0.429422
0.422307
0.411987
0.557376
0.558862
0.545972
0.330799
0.380076
0.542005
0.561723
0.550703
0.56317
0.434936
0.539888
0.54271
0.551411
0.443716
0.149519
0.530548
0.131096
0.519329
0.493851
0.563926
0.431904
0.447116
0.383949
0.554573
0.409253
0.555768
0.230257
0.200762
0.535494
0.484882
0.435295
0.567793
0.535611
0.561393
0.469959
0.535698
0.298787
0.395011
0.397079
0.390618
0.552594
0.529971
0.478492
0.564148
0.475523
0.525829
0.562918
0.540043
0.539249
0.44342
0.560192
0.451621
0.547886
0.437489
0.446881
0.557336
0.574558
0.48798
0.54293
0.508692
0.3988
0.496355
0.393346
0.550485
0.551297
0.475446
0.509737
0.55589
0.24431
0.536334
0.240697
0.183647
0.532264
0.154639
0.388826
0.372056
0.55233
0.533557
0.427273
0.559667
0.47955
0.555446
0.519597
0.539112
0.275859
0.255437
0.53639
0.443411
0.553667
0.572009
0.47493
0.538533
0.487217
0.52685
0.56133
0.473527
0.570495
0.490708
0.454706
0.564547
0.318042
0.543075
0.328986
0.542675
0.326855
0.397686
0.285614
0.356893
0.535955
0.522905
0.389284
0.533253
0.49905
0.409771
0.544927
0.310966
0.328274
0.275996
0.536864
0.538571
0.56943
0.545793
0.508167
0.482203
0.56812
0.54177
0.315683
0.406331
0.487338
0.4845
0.572733
0.53294
0.195715
0.190811
0.535783
0.387023
0.514795
0.309986
0.37822
0.540823
0.430005
0.506307
0.559457
0.477781
0.438382
0.567543
0.444689
0.332026
0.535358
0.375215
0.482989
0.544433
0.531703
0.195466
0.16967
0.547201
0.557228
0.43274
0.175843
0.530649
0.0900042
0.562929
0.531378
0.548568
0.439716
0.444879
0.496944
0.509597
0.563588
0.555946
0.542198
0.385067
0.294082
0.493376
0.446647
0.563182
0.371594
0.460341
0.546846
0.410749
0.388202
0.553781
0.554207
0.545525
0.567615
0.412707
0.492512
0.553817
0.495354
0.428352
0.562878
0.490792
0.485958
0.548995
0.550949
0.418192
0.408066
0.476388
0.5526
0.387503
0.551517
0.37961
0.558307
0.550791
0.454437
0.549508
0.386615
0.501893
0.454419
0.387466
0.552881
0.543447
0.53458
0.419704
0.436941
0.427836
0.375784
0.551434
0.371141
0.5539
0.539812
0.289291
0.274555
0.458558
0.421136
0.559077
0.0507023
0.528107
0.0953523
0.513568
0.558805
0.536336
0.458844
0.477632
0.56135
0.546618
0.341747
0.351851
0.53133
0.386865
0.54567
0.427071
0.327909
0.538024
0.508234
0.568704
0.448181
0.463893
0.562522
0.501609
0.568936
0.343932
0.542093
0.278021
0.531084
0.372782
0.533648
0.434568
0.453287
0.558958
0.468308
0.518536
0.565475
0.4404
0.530143
0.554282
0.530859
0.513512
0.570758
0.540226
0.390777
0.508806
0.303443
0.33967
0.541137
0.43239
0.327527
0.541934
0.490822
0.543238
0.374954
0.418556
0.432553
0.354892
0.33617
0.544957
0.548328
0.529153
0.0682863
0.120638
0.195098
0.531608
0.107177
0.427901
0.487725
0.551102
0.541228
0.307735
0.305755
0.471284
0.464127
0.382806
0.37301
0.554568
0.551742
0.530071
0.298854
0.224903
0.159219
0.529656
0.0596372
0.529156
0.56205
0.563081
0.148094
0.0990697
0.530683
0.524891
0.42942
0.55601
0.2627
0.289309
0.538711
0.0736262
0.527327
0.0311699
0.546434
0.558072
0.483
0.516446
0.55601
0.565213
0.238732
0.536167
0.191384
0.507425
0.549623
0.564837
0.536827
0.562397
0.563723
0.54272
0.367393
0.516689
0.50306
0.565047
0.561814
0.518096
0.538644
0.556084
0.502326
0.380167
0.5423
0.540417
0.541058
0.254942
0.254278
0.287513
0.280032
0.277051
0.328499
0.538978
0.549624
0.486346
0.352726
0.537192
0.55049
0.448159
0.365066
0.477801
0.536446
0.150447
0.525852
0.0759656
0.536284
0.273369
0.351111
0.1978
0.533493
0.180611
0.528079
0.0487115
0.0234628
0.0080955
0.528955
0.0634071
0.454951
0.398508
0.549507
0.24459
0.526903
0.161232
0.378254
0.390924
0.551539
0.291563
0.534872
0.198216
0.5094
0.566469
0.517601
0.318013
0.532666
0.244009
0.372884
0.53707
0.48599
0.452771
0.371762
0.54996
0.529761
-0.0634938
-0.0445186
0.0820363
0.52754
0.0721241
0.52055
0.569904
0.518255
0.288999
0.222
0.532899
0.529848
0.198187
0.285715
0.309674
0.541915
0.304666
0.54373
0.307129
0.371752
0.514097
0.36834
0.544671
0.354147
0.449068
0.553801
0.541768
0.35333
0.256483
0.512936
0.504178
0.44567
0.432583
0.561976
0.564197
0.520271
0.446626
0.560882
0.483307
0.369764
0.556518
0.442012
0.347877
0.543711
0.318418
0.273756
0.539821
0.543277
0.348271
0.417766
0.0116714
0.529173
0.0884634
0.548495
0.542072
0.567975
0.484639
0.57116
0.49438
0.506256
0.502364
0.553517
0.389402
0.555319
0.411979
0.0892243
0.52564
0.0357875
0.29878
0.24055
0.534979
0.531297
0.540005
0.419377
0.459666
0.345648
0.53897
0.544677
0.314941
0.386522
0.139656
0.12845
0.529912
0.168048
0.140258
0.529954
0.466466
0.388138
0.558157
0.561929
0.544647
0.466723
0.293562
0.540136
0.277054
0.447578
0.380765
0.5529
0.550941
0.34867
0.376324
0.510172
0.555264
0.412094
0.436959
0.513835
0.554188
0.544761
0.557009
0.458354
0.538837
0.270556
0.271701
0.411998
0.375322
0.55304
0.550974
0.562441
0.489995
0.330228
0.538284
0.233167
0.518336
0.475894
0.567453
0.499386
0.526682
0.56853
0.46321
0.385719
0.548837
0.231596
0.533114
0.141359
0.249986
0.533443
0.151089
0.550026
0.337034
0.376545
0.416362
0.520868
0.547687
0.530697
0.107846
0.202512
0.547958
0.36961
0.359525
0.526836
0.0264279
-0.00434382
0.0404451
-0.0212158
0.52818
0.544042
0.273426
0.357483
0.535253
0.230198
0.221028
0.317686
0.334311
0.540417
0.271156
0.543308
0.298324
0.348994
0.382361
0.547479
0.544924
0.472616
0.340585
0.549337
0.56694
0.507582
0.36146
0.405751
0.548753
0.548732
0.368798
0.417963
0.370772
0.54225
0.26437
0.499895
0.374493
0.554121
0.513752
0.419698
0.551965
0.405798
0.444991
0.557909
0.395958
0.439954
0.555158
0.554589
0.555321
0.505192
0.502299
0.418298
0.56677
0.532195
0.329909
0.240066
0.126542
0.528555
0.178805
0.102769
0.527529
0.179828
0.533224
0.562098
0.456668
0.120088
0.528362
0.094955
0.396542
0.551181
0.348998
0.526718
0.12699
0.0678388
0.538693
0.566413
0.53559
0.479389
0.470401
0.564492
0.523942
0.422856
0.549053
0.528717
0.26
0.186566
0.445276
0.383544
0.550152
0.537434
0.313521
0.226897
0.459846
0.461185
0.566264
0.553588
0.569903
0.513912
0.257061
0.202966
0.532286
0.549133
0.351458
0.358655
0.22324
0.202035
0.533437
0.532321
0.163763
0.142076
0.456639
0.502874
0.56377
0.465871
0.41233
0.550137
0.507291
0.529237
0.574149
0.210584
0.152469
0.217943
0.52954
0.148694
0.52766
0.429778
0.423344
0.560694
0.200791
0.176445
0.241108
0.21991
0.533192
0.53105
0.413367
0.482009
0.560662
0.479914
0.491433
0.56511
0.272892
0.535803
0.186925
0.470723
0.486114
0.562693
0.502895
0.511997
0.567074
0.231836
0.533148
0.163408
0.46551
0.433446
0.559615
0.500277
0.356388
0.537516
0.515212
0.392728
0.551607
0.411665
0.533558
0.301036
0.528712
-0.034964
-0.0171299
0.458677
0.476736
0.563346
0.289214
0.537517
0.22663
0.538482
0.369239
0.523967
0.095939
0.528051
0.0247999
0.562525
0.554213
0.541658
0.480005
0.543646
0.467309
0.510224
0.531628
0.56868
0.549258
0.559932
0.552111
0.483496
0.561181
0.477627
0.47091
0.500693
0.570692
0.480027
0.505249
0.568651
0.526206
0.19744
0.114872
0.527765
0.458505
0.558427
0.224364
0.249028
0.535548
0.401437
0.385807
0.42698
0.40718
0.553976
0.550469
0.522724
0.47976
0.563102
0.483316
0.398245
0.553952
0.430388
0.447897
0.561899
0.553477
0.532543
0.562135
0.378673
0.415231
0.55087
0.545306
0.561146
0.509621
0.428157
0.474653
0.560416
0.481597
0.415782
0.554607
0.552113
0.554139
0.52082
0.56947
0.519234
0.565823
0.55514
0.549482
0.562713
0.506751
0.567359
0.486265
0.514275
0.508464
0.458945
0.458768
0.566007
0.562275
0.545481
0.316029
0.378612
0.536784
0.373115
0.508204
0.546288
0.546592
0.300853
0.312147
0.357863
0.354133
0.537838
0.540151
0.400451
0.554042
0.563381
0.544872
0.374966
0.399227
0.550431
0.54288
0.564273
0.473813
0.474211
0.411105
0.555265
0.410831
0.41335
0.333294
0.55047
0.346922
0.551128
0.411717
0.414971
0.554999
0.120134
0.053718
0.528932
0.533552
0.381342
0.526881
0.517099
0.520968
0.541087
0.378393
0.550005
0.389622
0.360697
0.43168
0.546076
0.490007
0.407427
0.556372
0.537132
0.538718
0.400092
0.519207
0.525762
0.545317
0.559942
0.420763
0.416528
0.516226
0.552267
0.399437
0.414617
0.427798
0.557603
0.551136
0.561217
0.512227
0.258423
0.535888
0.206559
0.533248
0.541997
0.388329
0.480305
0.465263
0.415579
0.407353
0.555475
0.559928
0.537572
0.227793
0.278121
0.2747
0.536778
0.199499
0.255043
0.535064
0.188997
0.396569
0.549746
0.338124
0.497465
0.423323
0.558655
0.312272
0.372644
0.496132
0.317146
0.455294
0.170475
0.414033
0.348793
0.287594
0.445119
0.442108
0.269429
0.313152
0.445701
0.352713
0.316918
0.323596
0.350501
0.368355
0.416657
0.372678
0.345263
0.454509
0.53376
0.504107
0.378173
0.465995
0.273328
0.389618
0.302819
0.282286
0.408463
0.374077
0.360931
0.297738
0.384679
0.488569
0.452773
0.333788
0.398061
0.336017
0.529951
0.311233
0.443746
0.475817
0.336268
0.342749
0.323528
0.272365
0.311988
0.506712
0.371463
0.319626
0.340846
0.281988
0.50125
0.419614
0.377527
0.32475
0.438206
0.309751
0.315579
0.504703
0.36084
0.37739
0.421477
0.384554
0.53259
0.453835
0.452952
0.260551
0.28482
0.339704
0.4292
0.275539
0.358529
0.375895
0.292498
0.431618
0.472876
0.350499
0.368325
0.275543
0.30986
0.330152
0.439082
0.330349
0.318865
0.351366
0.510341
0.317869
0.437335
0.503685
0.362156
0.314553
0.107292
0.303552
0.326641
0.314229
0.256654
0.40841
0.458048
0.484603
0.536212
0.311481
0.307584
0.271073
0.327994
0.305745
0.486915
0.462185
0.413792
0.296693
0.28406
0.40467
0.463303
0.346627
0.319423
0.253644
0.345307
0.359523
0.519475
0.529238
0.432025
0.382349
0.345198
0.273612
0.521158
0.278898
0.426558
0.256335
0.505622
0.278169
0.248599
0.299681
0.471633
0.351276
0.227987
0.309693
0.413639
0.310876
0.440708
0.40996
0.323425
0.474269
0.341881
0.302628
0.480097
0.309972
0.352184
0.270269
0.389808
0.332269
0.477655
0.436332
0.340286
0.430089
0.441908
0.493646
0.377473
0.337535
0.321052
0.446613
0.279747
0.3943
0.275587
0.527766
0.347632
0.481169
0.517412
0.37832
0.524728
0.481545
0.491196
0.292024
0.250675
0.271729
0.496362
0.292432
0.280898
0.271487
0.28305
0.349895
0.339913
0.383439
0.518051
0.434063
0.334282
0.438671
0.332828
0.52791
0.229908
0.468812
0.326409
0.247683
0.506119
0.518602
0.321535
0.326339
0.527321
0.391369
0.32606
0.304414
0.429874
0.485841
0.432295
0.308051
0.32528
0.454556
0.383251
0.308567
0.395232
0.26554
0.288632
0.345375
0.462317
0.257137
0.341082
0.458756
0.32812
0.253503
0.344879
0.32279
0.337517
0.40266
0.408898
0.307781
0.278219
0.291676
0.418901
0.4253
0.329617
0.408448
0.343735
0.294112
0.392101
0.335769
0.238694
0.430144
0.47878
0.380367
0.512481
0.488928
0.528808
0.316022
0.226798
0.353293
0.341296
0.336057
0.263807
0.397201
0.502082
0.430675
0.388554
0.302998
0.337558
0.442259
0.372453
0.421604
0.311141
0.358854
0.332982
0.25596
0.308428
0.324465
0.316199
0.299915
0.410865
0.382158
0.340914
0.416853
0.324376
0.347984
0.313698
0.343942
0.318039
0.331805
0.387272
0.259067
0.215284
0.362254
0.265777
0.246339
0.386866
0.237356
0.250021
0.477616
0.411777
0.309694
0.435062
0.286726
0.407046
0.395317
0.265859
0.320219
0.461956
0.353836
0.443144
0.165253
0.298644
0.480648
0.330181
0.299981
0.203485
0.256996
0.245237
0.260518
0.337754
0.417329
0.293067
0.246111
0.303388
0.327455
0.52818
0.301137
0.429535
0.400604
0.246082
0.351834
0.305922
0.277859
0.403692
0.344681
0.502444
0.425122
0.304332
0.337481
0.373623
0.534735
0.439946
0.489222
0.435514
0.337591
0.382052
0.348197
0.298541
0.261525
0.325665
0.330791
0.422734
0.319966
0.26864
0.320013
0.340898
0.316024
0.324178
0.466782
0.334124
0.32851
0.500319
0.474238
0.309125
0.381439
0.487296
0.289065
0.231092
0.339714
0.293685
0.277711
0.484591
0.309371
0.352321
0.49454
0.252488
0.385106
0.317826
0.380425
0.341008
0.320245
0.114939
0.348053
0.271637
0.302861
0.338127
0.335087
0.43841
0.502994
0.313468
0.382322
0.34291
0.290663
0.235622
0.461984
0.408495
0.306585
0.271356
0.396048
0.267723
0.316801
0.307833
0.303163
0.451871
0.502486
0.333772
0.434733
0.535118
0.465563
0.469239
0.49381
0.326707
0.328366
0.279469
0.530878
0.462089
0.480527
0.320229
0.328757
0.252256
0.442472
0.340463
0.296478
0.481867
0.417102
0.285129
0.34572
0.314942
0.318977
0.315788
0.337021
0.342788
0.288719
0.334726
0.26096
0.351725
0.29101
0.416872
0.36035
0.257914
0.487201
0.497188
0.434124
0.33592
0.388777
0.232514
0.441887
0.371294
0.262197
0.484978
0.198599
0.504005
0.272687
0.350716
0.363364
0.431173
0.452526
0.315419
0.515268
0.316464
0.469082
0.352337
0.41425
0.330013
0.306069
0.322655
0.47401
0.360632
0.52903
0.420416
0.259093
0.305422
0.409707
0.215168
0.336879
0.353221
0.291655
0.508837
0.279766
0.267331
0.450954
0.325139
0.50234
0.524216
0.330216
0.531737
0.515036
0.468583
0.483049
0.394821
0.271185
0.309241
0.343592
0.460179
0.344304
0.199457
0.514181
0.293163
0.338592
0.304769
0.491589
0.527345
0.30571
0.465857
0.401248
0.5031
0.348852
0.440005
0.327249
0.517415
0.527353
0.425708
0.309001
0.455604
0.334001
0.37548
0.372148
0.356007
0.401396
0.318451
0.20579
0.279721
0.361868
0.41189
0.386037
0.482068
0.30219
0.33616
0.415909
0.283344
0.495717
0.305841
0.326737
0.49593
0.474224
0.392548
0.519105
0.306557
0.330223
0.443766
0.372791
0.358235
0.348247
0.323289
0.409199
0.426871
0.323379
0.313544
0.390007
0.259433
0.287088
0.504873
0.533595
0.530107
0.34692
0.539545
0.527589
0.51171
0.237318
0.403629
0.40001
0.518457
0.339582
0.311874
0.274335
0.307732
0.184391
0.515637
0.350678
0.356568
0.44258
0.424777
0.333219
0.327883
0.527106
0.51942
0.487125
0.427181
0.313893
0.434077
0.414916
0.336504
0.361698
0.285473
0.307826
0.380163
0.362712
0.329386
0.50599
0.503034
0.237597
0.471162
0.320257
0.308893
0.343377
0.502699
0.348252
0.426707
0.351295
0.488561
0.337742
0.354466
0.529028
0.256672
0.256196
0.308919
0.293658
0.220464
0.089602
0.302266
0.230094
0.367763
0.238551
0.292986
0.361714
0.30102
0.301797
0.333962
0.282245
0.108004
0.515982
0.472329
0.338352
0.268667
0.476697
0.317883
0.311709
0.524977
0.3086
0.525884
0.350612
0.476881
0.34561
0.25046
0.28744
0.384449
0.385248
0.368333
0.251521
0.342124
0.297503
0.296378
0.319368
0.260051
0.283218
0.512522
0.300888
0.424827
0.448192
0.341176
0.450655
0.450027
0.273154
0.0943378
0.352349
0.26341
0.223962
0.431954
0.434512
0.33772
0.410817
0.332433
0.529273
0.513168
0.344957
0.327351
0.517344
0.482744
0.405048
0.405683
0.335059
0.531674
0.378547
0.236974
0.492034
0.465986
0.504386
0.385576
0.312028
0.340384
0.435938
0.405596
0.0442598
0.52932
0.351377
0.306603
0.370355
0.485093
0.531981
0.524484
0.410489
0.366884
0.45404
0.484457
0.498225
0.428817
0.462342
0.262345
0.314554
0.396569
0.279566
0.26159
0.255746
0.350182
0.449837
0.264132
0.377333
0.314431
0.462398
0.524561
0.347853
0.271699
0.247082
0.434406
0.326964
0.304368
0.258447
0.502265
0.389641
0.394742
0.261223
0.399403
0.308011
0.315365
0.439283
0.446482
0.505409
0.528022
0.302337
0.4881
0.240327
0.4947
0.500588
0.503298
0.455829
0.290851
0.290746
0.337318
0.233663
0.375001
0.256507
0.400439
0.26569
0.480257
0.339641
0.242804
0.474335
0.44668
0.356492
0.362029
0.423343
0.502297
0.39091
0.370008
0.242343
0.465885
0.372977
0.519754
0.225673
0.362832
0.492837
0.435927
0.520119
0.441655
0.342944
0.207401
0.24316
0.359869
0.268356
0.514466
0.231758
0.322822
0.356822
0.312424
0.458417
0.230344
0.497989
0.435546
0.397468
0.210644
0.417309
0.300214
0.336901
0.353672
0.357831
0.327028
0.312413
0.452455
0.290637
0.538511
0.327918
0.352761
0.418757
0.440489
0.516524
0.326383
0.330989
0.300732
0.365365
0.319354
0.507889
0.305391
0.374629
0.335056
0.468141
0.298341
0.383333
0.280718
0.525354
0.233175
0.288592
0.311921
0.473547
0.245916
0.263911
0.287526
0.271358
0.503144
0.37042
0.430607
0.477032
0.421027
0.362281
0.525367
0.368015
0.445672
0.415234
0.383319
0.254859
0.390886
0.348211
0.324615
0.391846
0.281982
0.25917
0.373543
0.32577
0.295498
0.463484
0.365483
0.422515
0.347851
0.514336
0.356466
0.349307
0.416332
0.266326
0.300494
0.334371
0.384041
0.39275
0.404617
0.500047
0.438588
0.457298
0.381487
0.488408
0.517287
0.511667
0.374011
0.375319
0.400656
0.27179
0.526111
0.48174
0.468485
0.362155
0.287146
0.25322
0.400559
0.436524
0.304956
0.468175
0.482295
0.406849
0.317677
0.380101
0.328063
0.301939
0.361893
0.316815
0.394139
0.257446
0.398203
0.360419
0.345866
0.231015
0.392972
0.377172
0.425317
0.334896
0.38956
0.497817
0.50891
0.39181
0.352295
0.457922
0.376444
0.302098
0.30584
0.349329
0.268102
0.4996
0.366639
0.382793
0.436538
0.430196
0.41398
0.278305
0.535599
0.418809
0.313399
0.368345
0.368774
0.457607
0.494338
0.420269
0.4022
0.24423
0.295724
0.343406
0.404255
0.375685
0.390632
0.322688
0.505874
0.408552
0.455537
0.485054
0.387249
0.311045
0.382481
0.524035
0.301493
0.241093
0.381832
0.530344
0.327379
0.347304
0.452468
0.437288
0.471782
0.363131
0.247575
0.40182
0.277175
0.330978
0.470477
0.353567
0.275916
0.302693
0.326856
0.409816
0.334883
0.323184
0.491155
0.316563
0.525985
0.469124
0.267742
0.2194
0.369314
0.444682
0.483047
0.35802
0.343384
0.29859
0.338802
0.358405
0.527931
0.494263
0.442067
0.336248
0.251007
0.503646
0.53415
0.505426
0.459152
0.493416
0.380125
0.285697
0.230006
0.241243
0.516333
0.373643
0.27643
0.342631
0.533694
0.334643
0.316868
0.263559
0.360384
0.303736
0.536319
0.400861
0.441472
0.490315
0.481927
0.334023
0.412568
0.377707
0.433807
0.293695
0.409098
0.32033
0.507625
0.256023
0.332343
0.266419
0.343233
0.496682
0.343472
0.468325
0.487328
0.492925
0.283879
0.375486
0.344117
0.308152
0.50319
0.386231
0.387237
0.398139
0.179476
0.34418
0.509266
0.416522
0.506615
0.235518
0.29138
0.333992
0.511294
0.291883
0.360564
0.29884
0.276342
0.336995
0.515239
0.347887
0.346123
0.263376
0.534362
0.522208
0.181545
0.506541
0.339033
0.285234
0.291593
0.369922
0.273111
0.413826
0.339331
0.331763
0.345566
0.488662
0.361256
0.46859
0.350228
0.282116
0.345695
0.234692
0.254116
0.352855
0.324763
0.394083
0.295144
0.359271
0.485782
0.408276
0.332427
0.245977
0.494762
0.355823
0.361498
0.540289
0.392777
0.330063
0.307423
0.272346
0.515511
0.330328
0.360533
0.408737
0.272295
0.498117
0.258712
0.488843
0.37352
0.448439
0.30138
0.461459
0.354488
0.272148
0.301798
0.373646
0.497681
0.216303
0.31411
0.315029
0.516908
0.53731
0.293335
0.323391
0.411078
0.520732
0.355915
0.502081
0.480251
0.466995
0.450745
0.388007
0.425574
0.413382
0.504688
0.361568
0.383037
0.295297
0.319695
0.361549
0.294417
0.516529
0.271321
0.501537
0.359577
0.511518
0.326944
0.520165
0.445684
0.486667
0.512782
0.497843
0.539677
0.341343
0.486383
0.370926
0.336243
0.31783
0.294198
0.506644
0.272574
0.396517
0.409475
0.349503
0.409663
0.319424
0.508639
0.369719
0.457254
0.23257
0.306751
0.341659
0.537276
0.298493
0.420989
0.324851
0.342406
0.276147
0.349745
0.340256
0.461647
0.50895
0.261639
0.391883
0.33614
0.330627
0.473284
0.300805
0.317702
0.521222
0.240749
0.388522
0.437089
0.495904
0.524012
0.322231
0.314305
0.273524
0.335579
0.308208
0.335415
0.45229
0.333353
0.281429
0.34673
0.37621
0.332446
0.313529
0.315115
0.37473
0.270351
0.455361
0.447078
0.324715
0.456829
0.254821
0.266837
0.292487
0.254006
0.519297
0.341008
0.335464
0.321981
0.482592
0.503569
0.383489
0.454258
0.313591
0.3143
0.378576
0.337514
0.312283
0.505024
0.398522
0.423951
0.524411
0.462275
0.36536
0.513085
0.256824
0.386055
0.381983
0.406051
0.332203
0.515072
0.330521
0.400411
0.36658
0.331353
0.296957
0.318028
0.44546
0.474917
0.488577
0.381712
0.39222
0.515848
0.464947
0.352834
0.392322
0.283534
0.336873
0.466512
0.262669
0.484964
0.331482
0.492872
0.539622
0.507196
0.322703
0.487375
0.482143
0.233055
0.516389
0.303251
0.510319
0.463199
0.334438
0.299772
0.399321
0.341339
0.321499
0.309606
0.466281
0.326256
0.517049
0.287266
0.324779
0.305451
0.285364
0.335458
0.475772
0.530324
0.283953
0.455917
0.375474
0.400502
0.355919
0.409689
0.499772
0.465832
0.330905
0.494266
0.471593
0.525287
0.287451
0.303213
0.314298
0.453398
0.522625
0.477217
0.360687
0.520372
0.370847
0.258843
0.29776
0.216383
0.365226
0.27437
0.527165
0.526257
0.390226
0.542597
0.467335
0.377063
0.517574
0.279148
0.513862
0.334659
0.504003
0.341105
0.291158
0.450165
0.390899
0.510528
0.500379
0.50314
0.299554
0.296433
0.245064
0.487918
0.464965
0.294683
0.378317
0.466699
0.241506
0.322451
0.299961
0.324789
0.402417
0.323614
0.381873
0.445141
0.378698
0.38987
0.4472
0.336915
0.34533
0.400393
0.38099
0.339587
0.487746
0.512618
0.29398
0.462532
0.238143
0.317988
0.49374
0.457953
0.318653
0.506554
0.279015
0.446741
0.353075
0.352137
0.491963
0.343059
0.455214
0.452759
0.430404
0.531297
0.433479
0.272963
0.414784
0.358837
0.455136
0.526937
0.428316
0.3707
0.312136
0.353167
0.493207
0.290152
0.480662
0.303465
0.402978
0.462788
0.448635
0.36892
0.492008
0.520019
0.342911
0.337415
0.387824
0.299067
0.27944
0.38394
0.452072
0.310159
0.269105
0.297312
0.263255
0.442911
0.368567
0.457579
0.32286
0.505308
0.381049
0.483046
0.530538
0.313172
0.498366
0.342198
0.388123
0.379078
0.490194
0.314557
0.352864
0.382673
0.292019
0.33952
0.293585
0.273089
0.237831
0.522105
0.533251
0.311074
0.319325
0.451775
0.254732
0.29715
0.335273
0.436267
0.445588
0.25211
0.237552
0.500536
0.319698
0.406815
0.318705
0.267789
0.2972
0.389714
0.482495
0.406894
0.264263
0.506729
0.48119
0.305708
0.403179
0.331788
0.529639
0.341459
0.357797
0.27715
0.423171
0.513991
0.408987
0.382824
0.312955
0.367322
0.410883
0.518476
0.543019
0.314491
0.521415
0.318542
0.390392
0.393531
0.352871
0.33092
0.489525
0.331133
0.39534
0.298985
0.291985
0.343612
0.294321
0.43312
0.505026
0.30282
0.320199
0.388903
0.332485
0.30143
0.228571
0.335242
0.491154
0.22081
0.310212
0.447843
0.386652
0.362601
0.420514
0.47718
0.277337
0.281115
0.476437
0.355766
0.287318
0.373742
0.488926
0.423367
0.389696
0.31433
0.323089
0.310424
0.519216
0.476612
0.529006
0.358888
0.432594
0.285483
0.375668
0.483624
0.259325
0.269161
0.446864
0.478731
0.260033
0.326232
0.311258
0.275372
0.311613
0.542005
0.359057
0.323253
0.381037
0.312213
0.4507
0.393396
0.283281
0.327207
0.463972
0.366753
0.521233
0.274738
0.324124
0.423231
0.410375
0.350268
0.406982
0.29258
0.52386
0.509384
0.425202
0.492879
0.30652
0.488432
0.416909
0.420026
0.513078
0.254567
0.33175
0.525407
0.41888
0.251308
0.307762
0.477158
0.524213
0.372417
0.452967
0.311968
0.273735
0.301136
0.241157
0.482916
0.316065
0.373688
0.51753
0.314107
0.281329
0.312154
0.389284
0.321659
0.321048
0.314726
0.287267
0.365614
0.463863
0.512094
0.442944
0.332478
0.331674
0.244993
0.327011
0.41587
0.395742
0.432854
0.449567
0.332015
0.360076
0.474637
0.480949
0.526113
0.493861
0.515315
0.368489
0.278025
0.301978
0.285562
0.518828
0.387788
0.317999
0.512057
0.284324
0.468907
0.447193
0.329305
0.318065
0.332779
0.322651
0.479347
0.338557
0.436422
0.369811
0.510756
0.400561
0.52884
0.302771
0.369115
0.307603
0.232871
0.337032
0.461107
0.279863
0.166832
0.388066
0.510725
0.456027
0.318768
0.274271
0.304391
0.286644
0.320159
0.29307
0.351907
0.28981
0.448209
0.310547
0.321967
0.499779
0.370882
0.41572
0.472702
0.339755
0.371436
0.295101
0.46277
0.328325
0.332239
0.360779
0.298479
0.273041
0.319237
0.295381
0.45612
0.529312
0.486315
0.394728
0.441748
0.264296
0.521453
0.40412
0.452743
0.313782
0.445228
0.312329
0.339642
0.467038
0.513196
0.459211
0.39379
0.344222
0.530634
0.343783
0.472257
0.517382
0.429747
0.351557
0.26009
0.471656
0.397893
0.29105
0.420596
0.394268
0.509214
0.312722
0.518528
0.527021
0.351432
0.30444
0.516404
0.276611
0.29309
0.339536
0.28899
0.337372
0.298921
0.276439
0.368318
0.32228
0.302468
0.329944
0.395502
0.3023
0.310578
0.415229
0.374605
0.277854
0.504324
0.535083
0.523239
0.318498
0.269304
0.528841
0.269818
0.365087
0.302545
0.332723
0.310958
0.446722
0.335588
0.329837
0.266047
0.258028
0.292651
0.33969
0.263761
0.366435
0.387518
0.357225
0.510438
0.392431
0.430104
0.351006
0.478142
0.31804
0.338007
0.546123
0.338861
0.39199
0.27511
0.431289
0.533667
0.329116
0.414152
0.395482
0.300389
0.312148
0.312009
0.288822
0.4499
0.295107
0.356399
0.330047
0.35157
0.306679
0.313066
0.364179
0.33236
0.331455
0.534046
0.36437
0.35227
0.388306
0.511948
0.340735
0.259764
0.46656
0.276788
0.347796
0.314054
0.369
0.31655
0.328829
0.367696
0.525866
0.483721
0.261543
0.329646
0.260994
0.307269
0.248427
0.292411
0.339018
0.301207
0.339899
0.417169
0.540818
0.335942
0.444125
0.381056
0.518981
0.334541
0.533451
0.408848
0.286663
0.416462
0.451442
0.329162
0.48441
0.31463
0.489604
0.320548
0.17378
0.362466
0.538612
0.530984
0.448174
0.422271
0.441044
0.271188
0.313202
0.441379
0.527801
0.192246
0.371633
0.314018
0.318844
0.356993
0.303158
0.281596
0.31686
0.293738
0.323408
0.329002
0.358559
0.529847
0.480454
0.250357
0.464731
0.299487
0.312138
0.470015
0.323737
0.346733
0.43261
0.210766
0.304937
0.371778
0.486222
0.287101
0.312685
0.345439
0.413577
0.28431
0.51055
0.263221
0.337489
0.344154
0.316804
0.423464
0.416453
0.513211
0.311621
0.458451
0.384988
0.411178
0.315443
0.42322
0.301688
0.276275
0.241254
0.401981
0.356989
0.344445
0.498649
0.371351
0.38722
0.422818
0.308089
0.294009
0.337887
0.405419
0.322696
0.539405
0.277818
0.263192
0.335397
0.330565
0.321418
0.305777
0.446213
0.338104
0.36381
0.289038
0.316913
0.357762
0.267286
0.535726
0.526275
0.292032
0.305576
0.483134
0.381617
0.311192
0.272598
0.304118
0.293349
0.384795
0.501771
0.312605
0.271978
0.416143
0.366141
0.263791
0.288958
0.365321
0.439136
0.542104
0.282947
0.255148
0.396642
0.482769
0.338665
0.394389
0.340437
0.31543
0.33951
0.412348
0.352331
0.317102
0.462291
0.342957
0.236672
0.382718
0.322217
0.468157
0.529982
0.32514
0.334767
0.332115
0.335818
0.283193
0.339156
0.294952
0.512786
0.472913
0.43688
0.33825
0.272273
0.459628
0.521618
0.311085
0.379521
0.321912
0.239042
0.368059
0.331913
0.234536
0.290245
0.417156
0.28879
0.264362
0.289589
0.469943
0.282192
0.466347
0.36009
0.31409
0.327339
0.302251
0.467832
0.247098
0.341591
0.347856
0.276725
0.394721
0.441423
0.396605
0.358072
0.451993
0.288675
0.290793
0.501542
0.313165
0.49786
0.398643
0.334523
0.397276
0.486478
0.366272
0.258938
0.509907
0.308069
0.343492
0.48833
0.304232
0.518884
0.312744
0.344795
0.22744
0.348718
0.29077
0.371822
0.292769
0.23984
0.290231
0.283401
0.24331
0.502353
0.284143
0.342809
0.398342
0.370765
0.522915
0.52587
0.316894
0.363816
0.471951
0.307657
0.50244
0.252295
0.331475
0.3869
0.313192
0.474008
0.325488
0.33242
0.331485
0.319202
0.306358
0.238052
0.48922
0.114297
0.518672
0.440341
0.291901
0.262586
0.297522
0.543282
0.444866
0.419839
0.363465
0.39698
0.347623
0.488003
0.460462
0.303754
0.412964
0.521991
0.350689
0.376868
0.420195
0.256919
0.289108
0.471614
0.341504
0.359746
0.519382
0.280968
0.254247
0.324036
0.357643
0.34695
0.533062
0.310912
0.274208
0.308867
0.357303
0.312105
0.495193
0.36185
0.303044
0.317658
0.311769
0.306122
0.329132
0.412482
0.374373
0.298949
0.495845
0.331219
0.47485
0.299537
0.281935
0.344514
0.492024
0.523014
0.466711
0.36023
0.351931
0.467094
0.52843
0.280729
0.503843
0.292735
0.427786
0.409219
0.493686
0.361477
0.4848
0.510547
0.321538
0.31775
0.343642
0.374264
0.297111
0.272472
0.271005
0.444678
0.474845
0.276727
0.509036
0.365228
0.453889
0.359436
0.293066
0.47277
0.460547
0.328495
0.3262
0.290565
0.525287
0.445653
0.528567
0.273013
0.29595
0.350543
0.478576
0.417923
0.49888
0.389841
0.530163
0.31839
0.35134
0.376538
0.324901
0.397257
0.247045
0.466561
0.365731
0.384708
0.504733
0.267477
0.278632
0.253414
0.404011
0.491213
0.329985
0.423818
0.254576
0.271841
0.361377
0.322393
0.313284
0.495351
0.375108
0.304853
0.350325
0.404549
0.515432
0.406053
0.33815
0.489005
0.377828
0.516253
0.367407
0.434076
0.336106
0.2763
0.538068
0.296072
0.394071
0.391184
0.501147
0.43083
0.356156
0.316453
0.529567
0.354949
0.303912
0.449236
0.522241
0.44417
0.418168
0.26936
0.235987
0.374637
0.30172
0.342439
0.375907
0.29834
0.513789
0.524586
0.506465
0.330953
0.336913
0.312852
0.33583
0.434418
0.280679
0.431578
0.511809
0.287304
0.33048
0.319966
0.478219
0.419253
0.335954
0.302498
0.440653
0.307498
0.242815
0.28776
0.537783
0.24404
0.464083
0.414748
0.311886
0.519246
0.383667
0.543743
0.203322
0.333219
0.389038
0.50726
0.337724
0.50334
0.383885
0.242976
0.352027
0.321816
0.340134
0.236836
0.465036
0.330445
0.303689
0.255597
0.35673
0.496802
0.209106
0.333659
0.489553
0.349216
0.486429
0.248184
0.306619
0.312077
0.34413
0.300985
0.271006
0.30632
0.213786
0.336435
0.334205
0.455953
0.391369
0.491604
0.303437
0.340313
0.272463
0.37966
0.217772
0.344491
0.530149
0.359329
0.328214
0.543469
0.304591
0.391686
0.41794
0.274853
0.327544
0.365035
0.401053
0.512905
0.5215
0.522561
0.406203
0.355025
0.332648
0.296078
0.485012
0.431855
0.316382
0.323385
0.328903
0.361018
0.543515
0.34675
0.541834
0.312823
0.421406
0.297603
0.309787
0.274735
0.322375
0.498275
0.329996
0.27904
0.293682
0.535554
0.33131
0.298944
0.294827
0.30795
0.443956
0.387509
0.394596
0.350433
0.447631
0.263238
0.362952
0.352869