/*--------------------------------*- C++ -*----------------------------------*\
  =========                 |
  \\      /  F ield         | OpenFOAM: The Open Source CFD Toolbox
   \\    /   O peration     | Website:  https://openfoam.org
    \\  /    A nd           | Version:  6
     \\/     M anipulation  |
\*---------------------------------------------------------------------------*/
FoamFile
{
    version     2.0;
    format      ascii;
    class       volScalarField;
    location    "./ITHACAoutput/Offline/1";
    object      P_rec;
}
// * * * * * * * * * * * * * * * * * * * * * * * * * * * * * * * * * * * * * //

dimensions      [0 2 -2 0 0 0 0];

internalField   nonuniform List<scalar> 
40000
(
0.0455892
0.045595
0.0456044
0.0456143
0.0456224
0.0456273
0.0456281
0.0456243
0.0456155
0.0456016
0.0455826
0.0455587
0.04553
0.0454967
0.045459
0.0454172
0.0453715
0.0453223
0.0452697
0.0452139
0.0451552
0.0450938
0.0450298
0.0449633
0.0448945
0.0448234
0.04475
0.0446745
0.0445967
0.0445168
0.0444346
0.0443501
0.0442633
0.0441741
0.0440823
0.043988
0.043891
0.0437913
0.0436888
0.0435833
0.0434749
0.0433635
0.0432491
0.0431316
0.0430109
0.0428872
0.0427604
0.0426306
0.0424978
0.0423621
0.0422235
0.0420823
0.0419385
0.0417922
0.0416438
0.0414933
0.041341
0.0411871
0.041032
0.0408759
0.0407192
0.0405622
0.0404052
0.0402488
0.0400934
0.0399393
0.039787
0.0396372
0.0394902
0.0393467
0.0392072
0.0390723
0.0389425
0.0388185
0.0387009
0.0385903
0.0384873
0.0383926
0.0383067
0.0382302
0.0381638
0.0381079
0.0380632
0.0380301
0.0380092
0.0380007
0.0380053
0.0380231
0.0380545
0.0380998
0.038159
0.0382323
0.0383198
0.0384213
0.0385368
0.0386661
0.0388089
0.0389647
0.0391332
0.0393138
0.0395058
0.0397085
0.0399212
0.0401429
0.0403725
0.0406092
0.0408516
0.0410987
0.0413491
0.0416015
0.0418545
0.0421067
0.0423567
0.0426029
0.0428439
0.0430782
0.0433044
0.0435208
0.0437263
0.0439192
0.0440984
0.0442626
0.0444106
0.0445414
0.0446539
0.0447472
0.0448208
0.0448739
0.044906
0.0449169
0.0449062
0.0448741
0.0448206
0.0447458
0.0446503
0.0445345
0.0443991
0.044245
0.0440729
0.043884
0.0436794
0.0434603
0.0432279
0.0429836
0.0427289
0.042465
0.0421936
0.0419161
0.0416338
0.0413482
0.0410608
0.0407729
0.0404857
0.0402005
0.0399185
0.0396408
0.0393683
0.0391019
0.0388425
0.0385909
0.0383475
0.038113
0.0378878
0.0376723
0.0374667
0.0372712
0.0370859
0.0369109
0.0367461
0.0365915
0.0364469
0.0363122
0.0361871
0.0360713
0.0359647
0.0358669
0.0357776
0.0356965
0.0356232
0.0355576
0.0354993
0.0354481
0.0354036
0.0353657
0.0353342
0.0353088
0.0352894
0.0352758
0.0352678
0.0352653
0.035268
0.0352757
0.0352878
0.0353039
0.035323
0.035344
0.0353653
0.0353845
0.0353986
0.0354052
0.0455833
0.0455892
0.0455972
0.045605
0.045611
0.0456141
0.0456135
0.0456086
0.0455992
0.0455851
0.0455662
0.0455427
0.0455146
0.0454822
0.0454456
0.045405
0.0453607
0.0453129
0.0452618
0.0452076
0.0451504
0.0450906
0.0450282
0.0449633
0.044896
0.0448264
0.0447546
0.0446805
0.0446043
0.0445258
0.0444451
0.044362
0.0442767
0.0441889
0.0440986
0.0440058
0.0439103
0.0438121
0.0437112
0.0436074
0.0435007
0.043391
0.0432783
0.0431626
0.0430439
0.0429221
0.0427973
0.0426696
0.0425389
0.0424053
0.0422689
0.0421299
0.0419883
0.0418444
0.0416982
0.04155
0.0414001
0.0412485
0.0410957
0.0409419
0.0407874
0.0406326
0.0404778
0.0403234
0.0401699
0.0400177
0.0398673
0.0397191
0.0395737
0.0394316
0.0392933
0.0391594
0.0390306
0.0389073
0.0387902
0.0386799
0.0385769
0.038482
0.0383957
0.0383186
0.0382512
0.0381941
0.0381479
0.0381131
0.0380901
0.0380793
0.0380812
0.0380962
0.0381244
0.0381661
0.0382216
0.0382909
0.038374
0.0384709
0.0385816
0.0387058
0.0388432
0.0389935
0.0391562
0.0393308
0.0395167
0.0397132
0.0399194
0.0401345
0.0403575
0.0405874
0.0408231
0.0410634
0.041307
0.0415526
0.0417989
0.0420445
0.042288
0.0425279
0.0427627
0.042991
0.0432113
0.0434223
0.0436225
0.0438105
0.0439851
0.044145
0.0442891
0.0444164
0.0445258
0.0446165
0.0446879
0.0447393
0.0447701
0.0447802
0.0447693
0.0447374
0.0446845
0.0446109
0.044517
0.0444033
0.0442705
0.0441194
0.0439507
0.0437656
0.0435652
0.0433505
0.043123
0.0428838
0.0426345
0.0423762
0.0421106
0.041839
0.0415628
0.0412834
0.0410021
0.0407203
0.0404393
0.0401603
0.0398843
0.0396124
0.0393457
0.0390849
0.0388309
0.0385844
0.0383459
0.0381161
0.0378953
0.0376839
0.0374821
0.0372902
0.0371082
0.0369362
0.0367741
0.0366219
0.0364795
0.0363467
0.0362232
0.0361088
0.0360034
0.0359065
0.0358179
0.0357374
0.0356645
0.0355991
0.0355408
0.0354894
0.0354446
0.0354062
0.0353739
0.0353476
0.0353271
0.0353122
0.0353027
0.0352983
0.0352988
0.035304
0.0353132
0.0353261
0.0353417
0.035359
0.0353767
0.0353928
0.0354051
0.0354117
0.045574
0.0455812
0.0455892
0.0455958
0.0456003
0.045602
0.0456001
0.0455943
0.0455843
0.04557
0.0455512
0.0455281
0.0455006
0.0454691
0.0454335
0.0453942
0.0453512
0.0453048
0.0452553
0.0452026
0.0451472
0.045089
0.0450283
0.0449651
0.0448995
0.0448316
0.0447615
0.0446891
0.0446146
0.0445378
0.0444587
0.0443773
0.0442937
0.0442076
0.044119
0.0440279
0.0439342
0.0438378
0.0437387
0.0436368
0.043532
0.0434243
0.0433137
0.0432001
0.0430835
0.0429639
0.0428413
0.0427158
0.0425874
0.0424562
0.0423222
0.0421856
0.0420464
0.0419049
0.0417612
0.0416154
0.0414678
0.0413187
0.0411682
0.0410166
0.0408644
0.0407117
0.040559
0.0404066
0.0402549
0.0401045
0.0399556
0.0398089
0.0396647
0.0395237
0.0393864
0.0392532
0.0391249
0.0390019
0.0388848
0.0387743
0.0386709
0.0385753
0.038488
0.0384096
0.0383407
0.0382819
0.0382336
0.0381963
0.0381706
0.0381569
0.0381556
0.0381669
0.0381913
0.038229
0.0382801
0.0383447
0.038423
0.0385148
0.0386201
0.0387387
0.0388704
0.0390147
0.0391713
0.0393396
0.0395191
0.0397091
0.0399087
0.0401171
0.0403334
0.0405565
0.0407855
0.041019
0.0412559
0.0414949
0.0417346
0.0419738
0.042211
0.0424447
0.0426736
0.0428962
0.0431111
0.0433169
0.0435121
0.0436955
0.0438658
0.0440218
0.0441623
0.0442864
0.044393
0.0444813
0.0445507
0.0446004
0.0446302
0.0446396
0.0446284
0.0445967
0.0445444
0.0444719
0.0443796
0.0442678
0.0441374
0.043989
0.0438235
0.043642
0.0434454
0.043235
0.043012
0.0427777
0.0425334
0.0422805
0.0420204
0.0417545
0.0414841
0.0412106
0.0409354
0.0406597
0.0403848
0.0401118
0.0398418
0.0395759
0.039315
0.0390599
0.0388115
0.0385703
0.038337
0.0381122
0.0378961
0.0376891
0.0374916
0.0373036
0.0371253
0.0369567
0.0367977
0.0366484
0.0365085
0.036378
0.0362565
0.036144
0.0360401
0.0359445
0.035857
0.0357773
0.035705
0.03564
0.035582
0.0355306
0.0354856
0.0354468
0.0354139
0.0353868
0.0353653
0.035349
0.0353379
0.0353317
0.0353301
0.0353327
0.0353392
0.0353491
0.0353616
0.0353758
0.0353908
0.0354051
0.0354174
0.0354258
0.0455641
0.0455733
0.0455826
0.0455892
0.0455932
0.0455941
0.0455916
0.0455853
0.0455749
0.0455604
0.0455417
0.0455188
0.0454918
0.0454609
0.0454261
0.0453877
0.0453458
0.0453006
0.0452523
0.0452011
0.045147
0.0450903
0.045031
0.0449694
0.0449053
0.044839
0.0447705
0.0446997
0.0446267
0.0445515
0.0444741
0.0443944
0.0443124
0.044228
0.0441411
0.0440517
0.0439598
0.0438652
0.0437678
0.0436677
0.0435648
0.043459
0.0433503
0.0432387
0.0431241
0.0430065
0.042886
0.0427626
0.0426362
0.0425071
0.0423752
0.0422407
0.0421037
0.0419642
0.0418225
0.0416788
0.0415331
0.0413859
0.0412372
0.0410875
0.0409369
0.0407857
0.0406345
0.0404834
0.040333
0.0401836
0.0400356
0.0398896
0.039746
0.0396053
0.0394681
0.0393349
0.0392063
0.0390828
0.0389651
0.0388536
0.0387491
0.0386521
0.0385631
0.0384828
0.0384118
0.0383505
0.0382996
0.0382595
0.0382308
0.0382137
0.0382088
0.0382165
0.0382369
0.0382704
0.0383172
0.0383773
0.0384509
0.038538
0.0386383
0.0387519
0.0388784
0.0390175
0.0391688
0.0393317
0.0395058
0.0396903
0.0398845
0.0400875
0.0402984
0.0405162
0.0407398
0.0409682
0.0411999
0.0414339
0.0416688
0.0419033
0.0421359
0.0423653
0.0425899
0.0428085
0.0430196
0.0432217
0.0434136
0.0435939
0.0437613
0.0439147
0.0440529
0.0441748
0.0442796
0.0443664
0.0444346
0.0444834
0.0445125
0.0445215
0.0445103
0.0444788
0.044427
0.0443554
0.0442641
0.0441537
0.044025
0.0438785
0.0437152
0.0435361
0.0433423
0.0431349
0.042915
0.0426841
0.0424435
0.0421944
0.0419383
0.0416765
0.0414104
0.0411414
0.0408707
0.0405996
0.0403293
0.040061
0.0397958
0.0395346
0.0392784
0.039028
0.0387841
0.0385475
0.0383186
0.038098
0.0378861
0.0376832
0.0374895
0.0373051
0.0371302
0.0369649
0.036809
0.0366625
0.0365253
0.0363971
0.0362779
0.0361673
0.0360651
0.0359711
0.0358849
0.0358064
0.0357351
0.0356708
0.0356132
0.0355621
0.0355173
0.0354784
0.0354452
0.0354176
0.0353953
0.035378
0.0353657
0.0353581
0.0353548
0.0353556
0.0353602
0.035368
0.0353786
0.0353912
0.035405
0.0354193
0.0354335
0.0354451
0.0455558
0.0455673
0.045578
0.0455852
0.0455892
0.0455899
0.045587
0.0455804
0.0455697
0.0455551
0.0455364
0.0455137
0.0454871
0.0454566
0.0454225
0.0453848
0.0453438
0.0452996
0.0452524
0.0452023
0.0451495
0.0450941
0.0450362
0.044976
0.0449134
0.0448486
0.0447816
0.0447124
0.044641
0.0445674
0.0444916
0.0444136
0.0443332
0.0442505
0.0441653
0.0440777
0.0439875
0.0438947
0.0437992
0.0437009
0.0435998
0.0434959
0.0433891
0.0432794
0.0431667
0.043051
0.0429325
0.0428109
0.0426866
0.0425593
0.0424293
0.0422967
0.0421615
0.0420238
0.0418838
0.0417417
0.0415976
0.0414519
0.0413046
0.0411561
0.0410067
0.0408566
0.0407062
0.0405559
0.040406
0.040257
0.0401092
0.0399633
0.0398195
0.0396785
0.0395407
0.0394067
0.039277
0.0391523
0.039033
0.0389199
0.0388134
0.0387142
0.0386229
0.03854
0.0384661
0.0384019
0.0383477
0.0383042
0.0382718
0.038251
0.0382422
0.0382457
0.0382619
0.0382911
0.0383334
0.038389
0.0384579
0.0385402
0.0386358
0.0387446
0.0388662
0.0390005
0.039147
0.0393052
0.0394745
0.0396543
0.0398438
0.0400423
0.0402487
0.0404622
0.0406816
0.0409058
0.0411336
0.0413638
0.041595
0.041826
0.0420553
0.0422815
0.0425032
0.0427191
0.0429276
0.0431274
0.0433171
0.0434954
0.0436611
0.0438129
0.0439497
0.0440705
0.0441743
0.0442604
0.0443279
0.0443764
0.0444053
0.0444143
0.0444033
0.0443721
0.044321
0.04425
0.0441597
0.0440504
0.0439229
0.0437779
0.0436163
0.043439
0.0432472
0.0430419
0.0428244
0.042596
0.042358
0.0421117
0.0418586
0.0415999
0.0413371
0.0410714
0.0408042
0.0405367
0.0402702
0.0400057
0.0397443
0.039487
0.0392348
0.0389883
0.0387484
0.0385157
0.0382908
0.0380741
0.037866
0.0376667
0.0374766
0.0372958
0.0371243
0.0369622
0.0368094
0.0366658
0.0365313
0.0364058
0.0362889
0.0361806
0.0360804
0.0359882
0.0359036
0.0358265
0.0357564
0.0356931
0.0356364
0.0355859
0.0355414
0.0355027
0.0354695
0.0354416
0.0354188
0.0354009
0.0353877
0.035379
0.0353745
0.035374
0.0353772
0.0353837
0.0353932
0.035405
0.0354188
0.0354341
0.035451
0.0354664
0.0455507
0.0455641
0.0455763
0.0455842
0.0455884
0.0455891
0.045586
0.0455791
0.0455683
0.0455535
0.0455348
0.0455123
0.0454859
0.0454558
0.0454222
0.0453851
0.0453449
0.0453015
0.0452553
0.0452062
0.0451546
0.0451004
0.0450438
0.0449849
0.0449237
0.0448603
0.0447948
0.0447271
0.0446573
0.0445854
0.0445112
0.0444348
0.0443562
0.0442752
0.0441918
0.0441059
0.0440175
0.0439265
0.0438328
0.0437363
0.0436371
0.043535
0.0434301
0.0433222
0.0432113
0.0430975
0.0429807
0.042861
0.0427384
0.0426128
0.0424845
0.0423535
0.0422198
0.0420835
0.0419449
0.0418041
0.0416612
0.0415165
0.0413701
0.0412224
0.0410736
0.040924
0.0407738
0.0406236
0.0404736
0.0403243
0.040176
0.0400293
0.0398846
0.0397424
0.0396032
0.0394676
0.0393361
0.0392093
0.0390877
0.038972
0.0388628
0.0387606
0.0386661
0.0385799
0.0385024
0.0384344
0.0383764
0.0383288
0.0382923
0.0382671
0.0382539
0.0382529
0.0382645
0.038289
0.0383266
0.0383775
0.0384417
0.0385193
0.0386101
0.0387142
0.0388312
0.0389609
0.0391029
0.0392567
0.0394217
0.0395974
0.0397829
0.0399774
0.0401801
0.04039
0.040606
0.0408269
0.0410517
0.041279
0.0415076
0.0417361
0.0419631
0.0421872
0.042407
0.0426211
0.0428281
0.0430266
0.0432151
0.0433925
0.0435574
0.0437085
0.0438449
0.0439653
0.044069
0.044155
0.0442227
0.0442713
0.0443006
0.0443101
0.0442996
0.0442691
0.0442188
0.0441487
0.0440593
0.0439511
0.0438248
0.0436811
0.0435208
0.043345
0.0431547
0.0429511
0.0427354
0.0425089
0.0422729
0.0420288
0.041778
0.0415217
0.0412614
0.0409984
0.0407339
0.0404693
0.0402058
0.0399444
0.0396863
0.0394323
0.0391834
0.0389404
0.038704
0.0384749
0.0382535
0.0380404
0.0378358
0.0376401
0.0374535
0.0372761
0.037108
0.0369491
0.0367995
0.0366589
0.0365274
0.0364045
0.0362903
0.0361844
0.0360864
0.0359963
0.0359137
0.0358382
0.0357696
0.0357076
0.0356519
0.0356023
0.0355585
0.0355202
0.0354873
0.0354594
0.0354364
0.0354182
0.0354044
0.0353949
0.0353896
0.0353882
0.0353905
0.0353962
0.0354051
0.0354169
0.0354311
0.0354479
0.0354679
0.0354871
0.0455497
0.0455645
0.0455781
0.0455866
0.0455911
0.0455918
0.0455886
0.0455816
0.0455706
0.0455557
0.0455369
0.0455144
0.0454881
0.0454583
0.0454251
0.0453885
0.0453489
0.0453063
0.0452608
0.0452127
0.0451621
0.045109
0.0450536
0.0449959
0.0449361
0.0448742
0.0448101
0.044744
0.0446757
0.0446054
0.0445328
0.0444581
0.0443812
0.0443019
0.0442203
0.0441361
0.0440495
0.0439603
0.0438684
0.0437737
0.0436763
0.043576
0.0434728
0.0433666
0.0432575
0.0431453
0.0430302
0.042912
0.0427909
0.0426668
0.0425399
0.0424101
0.0422776
0.0421425
0.0420048
0.0418648
0.0417226
0.0415783
0.0414323
0.0412848
0.0411359
0.040986
0.0408355
0.0406846
0.0405338
0.0403833
0.0402337
0.0400854
0.0399389
0.0397946
0.0396531
0.039515
0.0393807
0.0392508
0.0391261
0.0390069
0.0388941
0.038788
0.0386895
0.0385991
0.0385173
0.0384448
0.0383821
0.0383299
0.0382885
0.0382585
0.0382403
0.0382344
0.038241
0.0382605
0.0382931
0.0383391
0.0383984
0.0384712
0.0385574
0.0386568
0.0387694
0.0388947
0.0390325
0.0391822
0.0393434
0.0395153
0.0396973
0.0398885
0.0400881
0.0402951
0.0405084
0.0407269
0.0409495
0.0411748
0.0414015
0.0416284
0.041854
0.042077
0.0422959
0.0425093
0.0427157
0.0429138
0.0431022
0.0432795
0.0434445
0.043596
0.0437327
0.0438537
0.043958
0.0440448
0.0441133
0.0441629
0.0441931
0.0442036
0.0441942
0.0441648
0.0441156
0.0440467
0.0439586
0.0438516
0.0437265
0.0435841
0.0434251
0.0432507
0.0430618
0.0428596
0.0426455
0.0424205
0.0421862
0.0419438
0.0416947
0.0414403
0.041182
0.0409211
0.0406589
0.0403966
0.0401356
0.0398767
0.0396213
0.0393701
0.0391241
0.0388842
0.0386509
0.0384249
0.0382068
0.0379969
0.0377957
0.0376034
0.0374201
0.0372461
0.0370813
0.0369257
0.0367792
0.0366418
0.0365132
0.0363933
0.0362819
0.0361786
0.0360831
0.0359953
0.0359148
0.0358413
0.0357745
0.0357141
0.0356598
0.0356113
0.0355684
0.0355309
0.0354984
0.0354709
0.035448
0.0354296
0.0354156
0.0354058
0.0353999
0.035398
0.0353997
0.0354051
0.0354138
0.0354259
0.0354409
0.0354595
0.0354826
0.0355053
0.0455532
0.0455692
0.0455837
0.0455928
0.0455975
0.0455982
0.0455949
0.0455877
0.0455765
0.0455614
0.0455425
0.0455199
0.0454937
0.0454641
0.0454311
0.0453949
0.0453558
0.0453137
0.045269
0.0452217
0.045172
0.0451199
0.0450656
0.0450092
0.0449507
0.0448901
0.0448274
0.0447628
0.044696
0.0446273
0.0445564
0.0444833
0.0444081
0.0443305
0.0442506
0.0441682
0.0440833
0.0439958
0.0439056
0.0438127
0.0437169
0.0436183
0.0435167
0.0434121
0.0433045
0.0431939
0.0430801
0.0429633
0.0428434
0.0427205
0.0425945
0.0424656
0.0423339
0.0421993
0.0420621
0.0419223
0.0417802
0.0416358
0.0414895
0.0413414
0.0411917
0.0410408
0.040889
0.0407366
0.040584
0.0404316
0.0402797
0.0401288
0.0399795
0.0398322
0.0396874
0.0395456
0.0394076
0.0392737
0.0391447
0.0390212
0.0389037
0.0387929
0.0386894
0.0385939
0.0385069
0.0384292
0.0383611
0.0383034
0.0382566
0.0382211
0.0381975
0.0381861
0.0381873
0.0382015
0.0382289
0.0382697
0.038324
0.0383919
0.0384733
0.0385682
0.0386764
0.0387975
0.0389313
0.0390773
0.0392349
0.0394035
0.0395825
0.0397709
0.039968
0.0401727
0.0403839
0.0406007
0.0408217
0.0410457
0.0412715
0.0414976
0.0417228
0.0419455
0.0421643
0.0423779
0.0425847
0.0427834
0.0429725
0.0431507
0.0433168
0.0434695
0.0436076
0.04373
0.0438358
0.0439242
0.0439943
0.0440456
0.0440775
0.0440898
0.0440821
0.0440545
0.0440069
0.0439397
0.0438532
0.0437479
0.0436244
0.0434834
0.043326
0.043153
0.0429656
0.0427649
0.0425521
0.0423286
0.0420957
0.0418548
0.0416073
0.0413545
0.0410978
0.0408387
0.0405783
0.040318
0.0400589
0.0398023
0.0395491
0.0393003
0.0390569
0.0388196
0.038589
0.0383659
0.0381508
0.037944
0.0377459
0.0375567
0.0373767
0.0372059
0.0370444
0.036892
0.0367488
0.0366145
0.0364891
0.0363722
0.0362637
0.0361632
0.0360704
0.0359852
0.035907
0.0358357
0.0357709
0.0357123
0.0356597
0.0356126
0.0355709
0.0355344
0.0355027
0.0354758
0.0354533
0.0354351
0.0354211
0.0354112
0.0354052
0.035403
0.0354046
0.0354098
0.0354188
0.0354313
0.0354474
0.0354677
0.0354937
0.0355197
0.0455617
0.0455784
0.0455936
0.045603
0.0456078
0.0456084
0.045605
0.0455975
0.045586
0.0455707
0.0455516
0.0455289
0.0455026
0.045473
0.0454401
0.0454042
0.0453655
0.0453239
0.0452798
0.0452332
0.0451843
0.0451332
0.0450799
0.0450246
0.0449673
0.044908
0.0448467
0.0447835
0.0447183
0.0446511
0.0445817
0.0445103
0.0444367
0.0443608
0.0442825
0.0442018
0.0441186
0.0440328
0.0439442
0.0438529
0.0437587
0.0436615
0.0435614
0.0434582
0.0433519
0.0432424
0.0431298
0.0430139
0.0428949
0.0427727
0.0426473
0.0425188
0.0423872
0.0422527
0.0421153
0.0419751
0.0418324
0.0416872
0.0415397
0.0413902
0.0412389
0.0410861
0.0409321
0.0407773
0.0406219
0.0404664
0.0403111
0.0401567
0.0400035
0.039852
0.0397028
0.0395564
0.0394135
0.0392745
0.0391402
0.0390112
0.0388881
0.0387715
0.0386621
0.0385606
0.0384676
0.0383836
0.0383095
0.0382456
0.0381926
0.038151
0.0381214
0.038104
0.0380994
0.0381079
0.0381297
0.0381651
0.0382142
0.038277
0.0383537
0.038444
0.0385478
0.0386649
0.0387949
0.0389373
0.0390917
0.0392573
0.0394336
0.0396197
0.0398147
0.0400176
0.0402274
0.040443
0.0406631
0.0408866
0.0411121
0.0413382
0.0415637
0.0417869
0.0420066
0.0422212
0.0424293
0.0426294
0.0428202
0.0430004
0.0431685
0.0433233
0.0434637
0.0435885
0.0436968
0.0437877
0.0438604
0.0439143
0.0439488
0.0439636
0.0439585
0.0439334
0.0438882
0.0438234
0.0437391
0.043636
0.0435146
0.0433757
0.0432201
0.043049
0.0428633
0.0426642
0.0424531
0.0422311
0.0419998
0.0417603
0.0415143
0.041263
0.0410079
0.0407503
0.0404915
0.0402329
0.0399757
0.0397209
0.0394697
0.0392231
0.0389818
0.0387469
0.0385188
0.0382983
0.0380859
0.0378819
0.0376868
0.0375006
0.0373237
0.037156
0.0369977
0.0368485
0.0367085
0.0365775
0.0364552
0.0363414
0.0362359
0.0361384
0.0360485
0.0359659
0.0358904
0.0358215
0.0357589
0.0357024
0.0356516
0.0356062
0.035566
0.0355307
0.0355001
0.035474
0.0354521
0.0354345
0.0354208
0.035411
0.0354051
0.035403
0.0354046
0.0354101
0.0354193
0.0354325
0.0354497
0.0354717
0.0355002
0.035529
0.0455754
0.0455925
0.0456079
0.0456174
0.0456221
0.0456225
0.0456188
0.0456109
0.0455991
0.0455835
0.0455641
0.0455411
0.0455147
0.045485
0.0454522
0.0454165
0.045378
0.0453368
0.0452932
0.0452472
0.0451991
0.0451488
0.0450965
0.0450422
0.044986
0.044928
0.044868
0.0448061
0.0447424
0.0446766
0.0446088
0.044539
0.0444669
0.0443926
0.0443159
0.0442368
0.0441551
0.0440708
0.0439837
0.0438938
0.043801
0.0437051
0.0436062
0.0435041
0.0433988
0.0432901
0.0431782
0.043063
0.0429443
0.0428223
0.042697
0.0425683
0.0424363
0.0423012
0.0421629
0.0420215
0.0418773
0.0417304
0.0415809
0.0414291
0.0412752
0.0411195
0.0409622
0.0408038
0.0406445
0.0404848
0.0403251
0.0401659
0.0400076
0.0398508
0.039696
0.0395438
0.0393948
0.0392496
0.0391088
0.0389732
0.0388434
0.0387199
0.0386037
0.0384952
0.0383951
0.0383042
0.0382231
0.0381523
0.0380925
0.0380441
0.0380078
0.037984
0.0379731
0.0379754
0.0379913
0.038021
0.0380646
0.0381223
0.038194
0.0382797
0.0383792
0.0384922
0.0386185
0.0387575
0.0389088
0.0390718
0.0392457
0.0394297
0.039623
0.0398246
0.0400335
0.0402484
0.0404683
0.0406918
0.0409177
0.0411446
0.041371
0.0415956
0.0418169
0.0420334
0.0422436
0.0424462
0.0426396
0.0428226
0.0429937
0.0431517
0.0432954
0.0434237
0.0435355
0.0436299
0.0437062
0.0437637
0.0438019
0.0438203
0.0438187
0.043797
0.0437552
0.0436936
0.0436125
0.0435123
0.0433937
0.0432575
0.0431046
0.0429358
0.0427524
0.0425555
0.0423463
0.0421263
0.0418967
0.041659
0.0414146
0.0411649
0.0409113
0.0406553
0.0403982
0.0401412
0.0398856
0.0396326
0.0393832
0.0391385
0.0388993
0.0386665
0.0384407
0.0382226
0.0380127
0.0378113
0.0376189
0.0374356
0.0372617
0.037097
0.0369418
0.0367958
0.036659
0.0365311
0.036412
0.0363014
0.036199
0.0361045
0.0360176
0.0359379
0.035865
0.0357987
0.0357386
0.0356844
0.0356356
0.0355922
0.0355537
0.0355199
0.0354905
0.0354655
0.0354446
0.0354276
0.0354145
0.0354051
0.0353995
0.0353977
0.0353996
0.0354054
0.0354151
0.035429
0.0354472
0.0354707
0.0355014
0.0355325
0.0455944
0.0456115
0.0456268
0.0456361
0.0456405
0.0456406
0.0456364
0.0456281
0.0456159
0.0455998
0.04558
0.0455567
0.04553
0.0455002
0.0454673
0.0454316
0.0453933
0.0453524
0.0453092
0.0452638
0.0452162
0.0451667
0.0451153
0.045062
0.0450069
0.0449499
0.0448912
0.0448306
0.0447682
0.0447039
0.0446375
0.0445691
0.0444985
0.0444257
0.0443505
0.0442728
0.0441925
0.0441095
0.0440237
0.043935
0.0438433
0.0437485
0.0436504
0.0435491
0.0434443
0.0433362
0.0432245
0.0431093
0.0429905
0.0428682
0.0427422
0.0426127
0.0424795
0.0423429
0.0422029
0.0420596
0.041913
0.0417634
0.0416108
0.0414557
0.041298
0.0411382
0.0409765
0.0408133
0.040649
0.0404838
0.0403184
0.0401531
0.0399885
0.039825
0.0396634
0.0395041
0.0393478
0.0391951
0.0390467
0.0389034
0.0387657
0.0386343
0.0385101
0.0383936
0.0382857
0.0381869
0.0380979
0.0380194
0.037952
0.0378962
0.0378527
0.0378218
0.037804
0.0377998
0.0378094
0.037833
0.0378709
0.0379232
0.0379898
0.0380707
0.0381658
0.0382748
0.0383974
0.0385331
0.0386815
0.0388419
0.0390137
0.039196
0.0393879
0.0395886
0.0397968
0.0400116
0.0402317
0.0404559
0.0406827
0.040911
0.0411391
0.0413658
0.0415895
0.0418087
0.042022
0.0422279
0.042425
0.0426117
0.0427869
0.0429491
0.0430972
0.04323
0.0433465
0.0434457
0.0435267
0.043589
0.0436319
0.0436551
0.0436581
0.043641
0.0436037
0.0435464
0.0434695
0.0433733
0.0432586
0.043126
0.0429764
0.0428109
0.0426305
0.0424364
0.0422299
0.0420123
0.041785
0.0415495
0.0413071
0.0410593
0.0408076
0.0405533
0.0402979
0.0400426
0.0397887
0.0395375
0.0392899
0.039047
0.0388097
0.0385789
0.0383553
0.0381394
0.0379319
0.037733
0.0375432
0.0373626
0.0371914
0.0370297
0.0368774
0.0367345
0.0366008
0.0364761
0.0363602
0.0362528
0.0361535
0.0360621
0.0359782
0.0359014
0.0358314
0.0357678
0.0357103
0.0356585
0.035612
0.0355706
0.035534
0.0355019
0.0354741
0.0354504
0.0354305
0.0354145
0.0354021
0.0353934
0.0353883
0.0353869
0.0353893
0.0353955
0.0354057
0.0354203
0.0354394
0.0354641
0.0354966
0.0355295
0.0456188
0.0456355
0.0456504
0.0456592
0.0456631
0.0456627
0.0456579
0.0456491
0.0456362
0.0456196
0.0455993
0.0455756
0.0455486
0.0455184
0.0454854
0.0454497
0.0454114
0.0453707
0.0453278
0.0452828
0.0452358
0.045187
0.0451363
0.0450839
0.0450298
0.0449739
0.0449163
0.0448569
0.0447958
0.0447327
0.0446677
0.0446006
0.0445313
0.0444598
0.0443859
0.0443095
0.0442304
0.0441485
0.0440637
0.043976
0.043885
0.0437909
0.0436933
0.0435923
0.0434877
0.0433795
0.0432675
0.0431518
0.0430322
0.0429088
0.0427815
0.0426502
0.0425151
0.0423762
0.0422335
0.0420871
0.0419371
0.0417837
0.041627
0.0414672
0.0413046
0.0411395
0.0409721
0.0408028
0.040632
0.0404601
0.0402876
0.0401149
0.0399425
0.0397711
0.0396013
0.0394336
0.0392687
0.0391073
0.03895
0.0387977
0.038651
0.0385106
0.0383774
0.0382519
0.0381351
0.0380274
0.0379298
0.0378427
0.037767
0.0377031
0.0376516
0.0376131
0.037588
0.0375767
0.0375795
0.0375967
0.0376286
0.0376751
0.0377364
0.0378124
0.0379029
0.0380078
0.0381266
0.0382591
0.0384046
0.0385626
0.0387324
0.0389131
0.039104
0.0393039
0.039512
0.039727
0.0399478
0.0401731
0.0404015
0.0406317
0.0408623
0.0410918
0.0413187
0.0415415
0.0417587
0.0419689
0.0421705
0.0423621
0.0425424
0.04271
0.0428637
0.0430022
0.0431246
0.0432297
0.0433169
0.0433853
0.0434343
0.0434635
0.0434725
0.0434613
0.0434298
0.0433781
0.0433066
0.0432157
0.0431059
0.0429781
0.0428331
0.0426718
0.0424954
0.0423051
0.0421021
0.0418877
0.0416635
0.0414307
0.0411909
0.0409456
0.0406961
0.040444
0.0401906
0.0399372
0.0396853
0.0394358
0.0391901
0.0389491
0.0387138
0.038485
0.0382634
0.0380496
0.0378443
0.0376478
0.0374604
0.0372824
0.0371139
0.036955
0.0368056
0.0366656
0.0365349
0.0364133
0.0363005
0.0361962
0.0361
0.0360117
0.0359309
0.0358571
0.03579
0.0357292
0.0356744
0.0356251
0.035581
0.0355418
0.0355073
0.035477
0.0354509
0.0354286
0.0354101
0.0353952
0.0353837
0.0353758
0.0353714
0.0353706
0.0353734
0.0353801
0.0353909
0.0354061
0.035426
0.0354516
0.0354854
0.0355197
0.0456485
0.0456645
0.0456787
0.0456868
0.04569
0.0456888
0.0456834
0.0456738
0.0456602
0.0456429
0.045622
0.0455978
0.0455703
0.0455398
0.0455065
0.0454707
0.0454323
0.0453918
0.0453491
0.0453044
0.0452579
0.0452096
0.0451597
0.045108
0.0450547
0.0449998
0.0449433
0.044885
0.0448249
0.044763
0.0446992
0.0446332
0.0445651
0.0444947
0.0444219
0.0443465
0.0442683
0.0441873
0.0441032
0.044016
0.0439255
0.0438315
0.043734
0.0436328
0.0435278
0.0434189
0.043306
0.043189
0.0430679
0.0429426
0.042813
0.0426792
0.0425412
0.0423989
0.0422524
0.0421018
0.0419472
0.0417888
0.0416266
0.041461
0.0412922
0.0411203
0.0409458
0.0407691
0.0405904
0.0404103
0.0402292
0.0400476
0.0398662
0.0396854
0.039506
0.0393285
0.0391537
0.0389822
0.0388148
0.0386523
0.0384954
0.0383449
0.0382015
0.038066
0.0379392
0.0378218
0.0377146
0.0376182
0.0375333
0.0374605
0.0374005
0.0373537
0.0373206
0.0373017
0.0372973
0.0373077
0.0373331
0.0373736
0.0374292
0.0375
0.0375858
0.0376864
0.0378014
0.0379305
0.0380731
0.0382287
0.0383965
0.0385759
0.0387658
0.0389653
0.0391735
0.0393891
0.039611
0.0398378
0.0400683
0.0403011
0.0405347
0.0407677
0.0409986
0.0412258
0.0414478
0.0416632
0.0418705
0.0420681
0.0422546
0.0424288
0.0425893
0.0427349
0.0428645
0.042977
0.0430717
0.0431476
0.0432042
0.043241
0.0432575
0.0432537
0.0432295
0.0431849
0.0431203
0.043036
0.0429327
0.042811
0.0426718
0.0425161
0.0423449
0.0421595
0.041961
0.041751
0.0415307
0.0413016
0.0410651
0.0408229
0.0405764
0.0403269
0.040076
0.039825
0.0395753
0.039328
0.0390843
0.0388454
0.0386121
0.0383853
0.0381657
0.0379541
0.037751
0.0375567
0.0373717
0.0371961
0.0370302
0.0368739
0.0367272
0.0365901
0.0364623
0.0363436
0.0362338
0.0361325
0.0360394
0.0359542
0.0358764
0.0358055
0.0357414
0.0356834
0.0356313
0.0355846
0.035543
0.0355061
0.0354737
0.0354454
0.0354211
0.0354005
0.0353834
0.0353697
0.0353593
0.0353523
0.0353487
0.0353485
0.0353519
0.0353591
0.0353704
0.0353861
0.0354065
0.0354329
0.0354675
0.0355026
0.0456835
0.0456986
0.0457118
0.0457189
0.0457212
0.0457191
0.0457127
0.0457022
0.0456879
0.0456698
0.0456482
0.0456232
0.0455952
0.0455643
0.0455307
0.0454946
0.0454562
0.0454156
0.0453731
0.0453287
0.0452825
0.0452347
0.0451853
0.0451343
0.0450818
0.0450277
0.044972
0.0449147
0.0448556
0.0447947
0.0447318
0.0446668
0.0445997
0.0445302
0.0444581
0.0443834
0.0443058
0.0442252
0.0441415
0.0440544
0.0439638
0.0438696
0.0437715
0.0436696
0.0435635
0.0434532
0.0433386
0.0432196
0.0430961
0.0429679
0.0428352
0.0426977
0.0425556
0.0424088
0.0422573
0.0421013
0.0419409
0.0417761
0.0416071
0.0414342
0.0412576
0.0410776
0.0408945
0.0407088
0.0405207
0.0403309
0.0401398
0.0399479
0.0397558
0.0395642
0.0393737
0.039185
0.0389989
0.038816
0.0386372
0.0384632
0.0382949
0.038133
0.0379784
0.0378318
0.0376941
0.037566
0.0374483
0.0373416
0.0372468
0.0371644
0.0370951
0.0370393
0.0369977
0.0369706
0.0369584
0.0369614
0.0369799
0.0370139
0.0370636
0.0371289
0.0372096
0.0373056
0.0374166
0.0375422
0.0376819
0.037835
0.0380009
0.0381789
0.038368
0.0385673
0.0387757
0.0389922
0.0392155
0.0394444
0.0396775
0.0399133
0.0401506
0.0403878
0.0406234
0.0408559
0.0410837
0.0413053
0.0415192
0.0417239
0.041918
0.0421
0.0422686
0.0424227
0.042561
0.0426824
0.0427861
0.0428712
0.042937
0.0429829
0.0430087
0.043014
0.0429987
0.0429629
0.0429069
0.042831
0.0427357
0.0426218
0.04249
0.0423413
0.0421768
0.0419976
0.041805
0.0416004
0.0413852
0.0411609
0.0409289
0.0406907
0.0404478
0.0402018
0.0399541
0.039706
0.039459
0.0392142
0.038973
0.0387363
0.0385052
0.0382806
0.0380632
0.0378538
0.0376528
0.0374608
0.037278
0.0371048
0.0369413
0.0367875
0.0366434
0.0365089
0.0363839
0.036268
0.0361611
0.0360627
0.0359726
0.0358903
0.0358154
0.0357475
0.0356862
0.035631
0.0355816
0.0355376
0.0354985
0.035464
0.0354337
0.0354075
0.0353851
0.0353661
0.0353505
0.0353382
0.035329
0.035323
0.0353203
0.0353208
0.0353248
0.0353325
0.0353442
0.0353603
0.0353811
0.0354078
0.0354429
0.0354784
0.0457238
0.0457377
0.0457495
0.0457555
0.0457566
0.0457534
0.045746
0.0457345
0.0457191
0.0457002
0.0456777
0.0456521
0.0456234
0.045592
0.0455579
0.0455215
0.0454829
0.0454423
0.0453998
0.0453555
0.0453096
0.0452622
0.0452132
0.0451628
0.0451109
0.0450575
0.0450025
0.044946
0.0448876
0.0448275
0.0447654
0.0447011
0.0446346
0.0445657
0.0444941
0.0444197
0.0443423
0.0442618
0.0441779
0.0440904
0.0439992
0.0439041
0.0438049
0.0437014
0.0435935
0.0434811
0.0433639
0.0432419
0.0431149
0.042983
0.0428459
0.0427036
0.0425562
0.0424036
0.0422459
0.0420831
0.0419153
0.0417427
0.0415654
0.0413837
0.0411979
0.0410081
0.0408149
0.0406186
0.0404196
0.0402184
0.0400157
0.0398119
0.0396077
0.0394037
0.0392007
0.0389994
0.0388005
0.0386049
0.0384134
0.0382267
0.0380457
0.0378713
0.0377043
0.0375456
0.0373959
0.037256
0.0371269
0.0370091
0.0369035
0.0368106
0.0367312
0.0366658
0.0366149
0.036579
0.0365584
0.0365536
0.0365646
0.0365917
0.0366349
0.0366942
0.0367696
0.0368608
0.0369675
0.0370893
0.0372258
0.0373763
0.0375403
0.0377168
0.0379052
0.0381043
0.0383132
0.0385308
0.0387558
0.038987
0.0392231
0.0394626
0.0397042
0.0399463
0.0401873
0.0404259
0.0406604
0.0408892
0.0411109
0.0413239
0.0415267
0.0417179
0.0418961
0.0420601
0.0422086
0.0423406
0.042455
0.042551
0.0426278
0.0426848
0.0427215
0.0427378
0.0427334
0.0427083
0.0426627
0.042597
0.0425116
0.0424072
0.0422846
0.0421447
0.0419885
0.0418172
0.0416321
0.0414344
0.0412257
0.0410074
0.040781
0.0405479
0.0403098
0.0400682
0.0398244
0.03958
0.0393364
0.0390948
0.0388564
0.0386224
0.0383939
0.0381717
0.0379566
0.0377494
0.0375507