/*--------------------------------*- C++ -*----------------------------------*\
  =========                 |
  \\      /  F ield         | OpenFOAM: The Open Source CFD Toolbox
   \\    /   O peration     | Website:  https://openfoam.org
    \\  /    A nd           | Version:  6
     \\/     M anipulation  |
\*---------------------------------------------------------------------------*/
FoamFile
{
    version     2.0;
    format      ascii;
    class       volVectorField;
    location    "0";
    object      U;
}
// * * * * * * * * * * * * * * * * * * * * * * * * * * * * * * * * * * * * * //

dimensions      [0 1 -1 0 0 0 0];

internalField   nonuniform List<vector> 
13046
(
(0.50292 0.192077 0)
(0.582928 -0.140955 3.93429e-21)
(0.212965 -0.0849675 8.78573e-21)
(0.485437 0.108072 0)
(0.212982 -0.0119502 8.01729e-21)
(0.493133 -0.15239 0)
(0.529779 0.130676 -1.17311e-21)
(0.536032 -0.187798 -2.00912e-21)
(0.187675 -0.00147365 8.81069e-21)
(0.990855 0.440906 -2.89612e-21)
(1.03941 -0.434125 0)
(-0.0209694 -0.0156328 -5.50363e-21)
(0.625404 0.2349 7.36148e-21)
(0.673389 -0.213838 5.9699e-21)
(0.142519 -0.0575251 -4.77373e-21)
(0.94274 0.49653 -1.63856e-21)
(0.0112896 -0.0428283 -8.8097e-21)
(1.08315 -0.35481 -2.17163e-21)
(0.298286 0.066953 0)
(0.373604 -0.132141 4.33756e-21)
(0.472244 0.011423 -1.23104e-20)
(0.954 0.487556 1.63755e-21)
(0.00158768 -0.035298 1.76425e-20)
(1.07466 -0.372304 -6.49753e-22)
(0.440307 0.118725 -4.97696e-21)
(0.497256 -0.111432 7.36116e-21)
(0.23917 -0.0593137 0)
(0.633233 0.264705 -1.63491e-22)
(0.698777 -0.211734 -1.75582e-21)
(0.142103 -0.0731626 1.6566e-20)
(0.509722 0.21331 0)
(0.60791 -0.129212 0)
(0.218742 -0.105433 -8.94217e-21)
(0.402902 0.0887441 1.74618e-20)
(0.263783 -0.0573762 -3.00206e-21)
(0.459041 -0.0842327 -1.14109e-20)
(0.398844 0.0661446 4.85732e-23)
(0.273437 -0.0357951 0)
(0.431601 -0.0816481 0)
(0.416657 0.215489 -6.30693e-21)
(0.357383 -0.21862 -8.05378e-21)
(0.62815 -0.0432753 5.88207e-21)
(0.379174 0.0020083 -4.0196e-21)
(0.321689 -0.00589344 4.1091e-21)
(0.361083 -0.0517463 0)
(0.406766 0.0103759 -2.55773e-21)
(0.300724 0.0147846 0)
(0.365781 -0.0778734 1.3199e-21)
(0.524645 0.187159 0)
(0.58703 -0.162587 2.81593e-22)
(0.185675 -0.0657834 3.02374e-23)
(0.524038 -0.350452 -9.81652e-21)
(0.35497 0.23356 0)
(0.724945 0.0302734 6.88652e-21)
(0.581132 -0.386211 1.39806e-20)
(0.752138 0.0550966 7.40267e-21)
(0.317682 0.215099 -9.68461e-21)
(0.969042 -0.209364 1.18797e-21)
(0.797923 0.489102 0)
(0.169533 -0.162331 -7.36269e-21)
(0.802188 0.246986 3.4686e-21)
(0.788282 -0.366975 -3.43148e-21)
(0.0842436 0.0295393 1.98169e-20)
(0.00430977 -0.0237699 -1.0192e-20)
(1.00577 -0.402367 1.82744e-21)
(0.960645 0.412189 5.10157e-21)
(0.75901 0.483992 0)
(0.936933 -0.173709 -5.62528e-21)
(0.214757 -0.20034 -2.14506e-21)
(0.725873 0.461757 2.64412e-21)
(0.905416 -0.159886 7.62329e-21)
(0.231263 -0.208521 2.91832e-21)
(1.00391 -0.219315 1.16092e-23)
(0.826931 0.50787 -1.04147e-22)
(0.153367 -0.157794 3.18833e-23)
(0.314443 0.0897877 0)
(0.364881 -0.14779 -4.71825e-21)
(0.498312 -0.00598846 8.73886e-21)
(0.0979081 -0.112833 -8.08644e-21)
(0.870905 0.512841 7.62804e-21)
(1.03827 -0.265515 2.49409e-21)
(0.469309 0.129267 -2.60493e-21)
(0.510965 -0.132297 2.62507e-21)
(0.217001 -0.0416384 0)
(-0.00246991 -0.0236309 9.10355e-21)
(1.02507 -0.409406 0)
(0.976726 0.426929 -3.00847e-21)
(1.00258 0.336731 5.25563e-21)
(0.0116676 0.0140136 0)
(0.959858 -0.476674 1.46431e-21)
(0.0518721 0.0549818 0)
(1.06479 0.267824 0)
(0.925261 -0.559765 -1.85005e-22)
(0.810085 0.349804 6.82706e-21)
(0.848265 0.35747 -9.45608e-21)
(0.871082 -0.309736 -6.40862e-21)
(0.899233 -0.339429 2.99896e-21)
(0.067884 -0.0494919 4.24653e-21)
(0.0492928 -0.03469 -1.09111e-20)
(0.0239867 0.0249049 5.15643e-22)
(1.00103 0.315273 -5.14238e-21)
(0.940536 -0.49103 0)
(0.428662 0.035154 2.16128e-23)
(0.275596 0.0133862 0)
(0.395078 -0.104198 0)
(0.249992 0.151674 -1.7606e-20)
(0.687842 0.0839629 3.45735e-21)
(0.569844 -0.329143 0)
(0.352466 0.2109 -2.67654e-21)
(0.469803 -0.294572 0)
(0.66924 0.0114018 1.3269e-20)
(0.926055 0.431172 0)
(-0.0242823 -0.011214 7.4642e-21)
(0.959904 -0.433317 9.25154e-22)
(0.579748 0.209956 -5.15282e-21)
(0.634628 -0.192085 -2.59773e-21)
(0.157955 -0.0523791 -8.65995e-21)
(0.848056 0.410365 -3.94282e-21)
(0.812053 0.380674 3.67969e-21)
(0.938371 -0.304915 -1.69291e-21)
(0.0664353 -0.0691116 -4.86993e-21)
(0.893312 -0.291499 1.72334e-21)
(0.0764374 -0.06808 4.54943e-21)
(0.977489 0.449508 6.81986e-21)
(1.03759 -0.430547 1.92515e-21)
(-0.022319 -0.0152277 2.45686e-21)
(0.72875 0.316975 0)
(0.79337 -0.262577 4.40864e-21)
(0.102768 -0.0689616 -2.51931e-20)
(0.45613 0.233257 0)
(0.31792 -0.197534 8.10933e-21)
(0.637724 -0.0700734 -3.15383e-22)
(0.0672772 0.0667101 0)
(1.03853 0.25336 0)
(0.910719 -0.547825 0)
(0.916542 0.359945 0)
(0.93955 -0.395424 7.95218e-21)
(0.0250238 -0.0123935 1.09477e-20)
(0.551329 0.236692 0)
(0.644746 -0.150994 0)
(0.201639 -0.111571 0)
(0.651724 0.159115 0)
(0.626034 -0.284031 0)
(0.1558 0.0444104 0)
(0.331087 0.205611 2.47668e-21)
(0.511909 -0.321336 0)
(0.68922 0.0324995 -7.15786e-21)
(0.251589 0.138581 1.70601e-20)
(0.664879 0.0801348 7.58555e-21)
(0.555712 -0.310106 -8.76679e-21)
(0.832092 0.267784 -7.88244e-21)
(0.821025 -0.377796 0)
(0.0671247 0.0159442 -2.57507e-20)
(0.225453 0.0832744 0)
(0.589723 0.085248 -1.66929e-20)
(0.514383 -0.245268 -2.2672e-21)
(0.681033 -0.427257 -3.86052e-21)
(0.800148 0.117786 -7.78191e-21)
(0.728751 -0.444147 0)
(0.831213 0.149599 -4.48009e-21)
(0.229813 0.165079 -8.33176e-21)
(0.187976 0.137432 8.00239e-21)
(0.677506 0.128839 -1.05396e-21)
(0.612897 -0.315681 -4.52982e-21)
(0.18207 0.0826759 4.93462e-21)
(1.01148 0.424861 2.95496e-21)
(-0.0217055 -0.0125922 -2.8625e-21)
(1.02026 -0.452765 2.85575e-21)
(0.947237 0.440932 1.82097e-21)
(-0.0243781 -0.011792 1.12176e-21)
(0.999329 -0.431047 0)
(0.92647 0.37984 -1.52507e-22)
(0.959638 -0.392675 0)
(0.0189423 -0.0197794 -1.32245e-20)
(0.524975 0.306579 0)
(0.720159 -0.0828995 -1.80088e-21)
(0.3274 -0.235804 -4.69797e-21)
(0.653657 0.110657 -6.87665e-21)
(0.205627 0.100665 0)
(0.579478 -0.29626 0)
(-0.0171518 -0.00420791 0)
(1.00083 -0.483751 0)
(1.03689 0.388519 -2.40596e-21)
(0.487051 0.278772 0)
(0.688921 -0.0663616 3.98887e-21)
(0.341505 -0.228824 -1.22079e-21)
(0.224228 0.0980545 0)
(0.607068 0.0842997 0)
(0.521669 -0.261487 0)
(0.616284 0.137677 -3.46002e-21)
(0.59033 -0.262198 0)
(0.16737 0.0399693 0)
(0.715699 -0.257007 3.02445e-23)
(0.114095 -0.0354998 5.88386e-21)
(0.697795 0.291467 -1.06562e-20)
(0.760173 -0.248831 0)
(0.112905 -0.0624355 2.60316e-20)
(1.00501 0.383422 5.93761e-21)
(-0.00411587 -0.00469462 -8.24136e-21)
(0.998831 -0.454781 6.61882e-21)
(0.0535095 0.0528729 -7.53725e-21)
(1.00587 0.27254 -3.25005e-21)
(0.913798 -0.517432 -7.46948e-21)
(1.04946 0.306563 8.51842e-21)
(0.951141 -0.522288 0)
(0.0222054 0.0313284 7.3886e-21)
(0.547971 -0.395449 3.96027e-21)
(0.781853 0.0228929 -3.03936e-21)
(0.400766 0.291333 -8.14534e-21)
(0.606866 0.180446 6.78845e-21)
(0.857882 0.524085 -3.97357e-21)
(0.117373 -0.127352 4.98232e-21)
(1.04213 -0.254128 -1.15971e-23)
(0.962128 -0.523835 0)
(1.0585 0.327999 2.35489e-21)
(0.00879 0.019163 0)
(0.42795 0.0636667 1.29024e-20)
(0.256666 -0.00902394 0)
(0.428301 -0.108174 -4.29405e-21)
(0.610157 0.270628 0)
(0.692898 -0.19014 2.52997e-22)
(0.167871 -0.0921969 -4.89918e-21)
(0.0667141 0.0646451 -5.78808e-21)
(1.0141 0.25865 0)
(0.904257 -0.532996 8.60691e-21)
(0.644366 0.203674 0)
(0.698487 -0.264419 -1.08138e-20)
(0.117018 -0.0213368 0)
(-0.0258885 -0.0120036 0)
(0.986489 -0.462511 -1.97597e-21)
(1.00134 0.419464 0)
(0.360708 0.263599 8.81178e-21)
(0.789821 0.0417332 0)
(0.58432 -0.41827 0)
(1.0239 0.29931 -7.47226e-21)
(0.939577 -0.509369 0)
(0.0288922 0.0333957 4.20446e-23)
(0.751324 0.140114 -8.91176e-21)
(0.670375 -0.379168 -3.39222e-21)
(0.178799 0.11016 1.12986e-20)
(0.725153 0.33595 0)
(0.803075 -0.248738 -4.12446e-21)
(0.114582 -0.0833391 -2.62527e-21)
(0.843752 -0.543415 1.13544e-20)
(0.976325 0.19101 5.89918e-21)
(0.142128 0.124332 -4.54866e-21)
(0.8736 0.157648 0)
(0.763214 -0.475697 4.66466e-21)
(0.182246 0.140058 1.65425e-22)
(-0.0256631 -0.0122117 5.76637e-21)
(0.962644 -0.47191 0)
(1.00737 0.405362 1.77046e-21)
(0.420198 0.255412 -1.17148e-20)
(0.425003 -0.281904 5.85185e-21)
(0.689876 -0.0231758 5.72235e-22)
(0.85312 0.457182 -1.78379e-21)
(-0.0196046 -0.00725628 6.18896e-22)
(0.981875 -0.377364 0)
(0.268615 0.0443495 -2.65074e-21)
(0.469618 0.0344879 9.98139e-21)
(0.402884 -0.138918 -1.29483e-20)
(0.752738 0.180536 -3.54788e-21)
(0.73001 0.148518 -3.35176e-23)
(0.705422 -0.36107 8.28105e-21)
(0.662965 -0.357708 8.11967e-21)
(0.167085 0.0922137 -8.99079e-21)
(0.131693 0.0666179 4.64032e-21)
(0.0748936 -0.0946964 1.05846e-20)
(0.890611 0.515612 -4.08822e-21)
(1.06384 -0.28004 0)
(0.688303 0.329 0)
(0.7788 -0.217904 0)
(0.145302 -0.102407 1.04227e-20)
(0.910412 0.183291 1.57651e-21)
(0.80096 -0.497902 0)
(0.152741 0.121857 0)
(0.885302 0.389264 -3.40524e-21)
(0.943637 -0.347853 0)
(0.0378462 -0.0404623 -4.80231e-21)
(0.359592 0.0164142 -2.73089e-21)
(0.3801 -0.0382795 -3.94306e-21)
(0.32266 -0.0276617 1.36615e-21)
(0.810662 0.163758 5.70543e-21)
(0.728747 -0.421173 0)
(0.161166 0.111576 7.7149e-21)
(0.695198 0.348992 0)
(0.799302 -0.211167 -5.10208e-21)
(0.152829 -0.116982 6.66081e-21)
(0.662632 0.231559 -1.09512e-20)
(0.702245 0.252284 8.81871e-21)
(0.430237 0.270636 9.26834e-21)
(0.436513 -0.299103 -1.69372e-20)
(0.708971 -0.0191102 1.25637e-20)
(0.838724 0.19048 5.83889e-21)
(0.764671 -0.432715 -6.98153e-21)
(0.129145 0.0895546 -7.03733e-21)
(0.911072 0.394379 1.25125e-20)
(0.0253517 -0.0315008 1.69897e-20)
(0.965006 -0.3689 3.7876e-21)
(0.353318 0.194401 4.0824e-21)
(0.445102 -0.274577 0)
(0.646516 0.00908225 -4.48328e-21)
(0.250318 0.187422 9.00856e-21)
(0.817379 0.108445 4.45332e-21)
(0.682236 -0.448463 0)
(0.792174 0.414019 1.28554e-21)
(0.90632 -0.249214 4.3107e-21)
(0.114343 -0.106994 -3.01565e-21)
(0.392102 0.259783 -7.58787e-22)
(0.498683 -0.340932 0)
(0.73007 0.0137914 -9.53794e-21)
(0.823609 0.434887 0)
(0.847285 0.434735 0)
(0.942895 -0.265868 2.71102e-21)
(0.100049 -0.100312 7.85236e-21)
(0.957444 -0.291799 -3.82831e-21)
(0.0773709 -0.0817011 -8.32953e-21)
(-0.0149706 -0.00748025 6.36413e-21)
(1.01004 -0.466774 0)
(1.02427 0.40058 3.60817e-21)
(0.775668 0.370808 0)
(0.861038 -0.268438 2.03009e-21)
(0.0976288 -0.0819123 -2.71041e-21)
(0.854161 -0.404289 -1.76695e-21)
(-0.0183911 -0.00910992 -9.18988e-21)
(0.820691 0.411265 -3.1089e-21)
(0.543592 0.0538668 1.35141e-20)
(0.253004 0.0818716 0)
(0.456795 -0.204286 4.7664e-21)
(0.755706 0.231502 -8.25042e-21)
(0.749381 -0.335114 0)
(0.0947345 0.0205492 -1.52308e-20)
(0.00313876 -0.00854626 5.25848e-21)
(0.980078 0.379731 -1.09749e-20)
(0.984894 -0.43478 -5.20034e-21)
(0.601905 -0.406768 5.14852e-21)
(0.773552 0.060412 0)
(0.315087 0.228641 1.09748e-20)
(0.8658 -0.542534 1.34945e-20)
(0.991928 0.215054 3.56205e-21)
(0.111559 0.0994495 0)
(0.638977 -0.235494 5.61924e-21)
(0.140507 -0.0137125 0)
(0.778247 0.282737 -8.88081e-21)
(0.793185 -0.319931 -3.79603e-21)
(0.0758967 -0.0181172 -4.65323e-21)
(0.627878 -0.250642 -1.9592e-22)
(0.14163 0.00281326 -2.2264e-23)
(0.936921 0.489988 8.25445e-21)
(0.0216166 -0.0510975 -1.2434e-20)
(1.0713 -0.343038 3.19235e-21)
(0.533842 -0.407306 -5.15401e-21)
(0.801812 0.00885364 -9.50225e-22)
(0.437213 0.320923 0)
(0.811956 0.301444 9.04947e-21)
(0.835266 -0.339138 4.63032e-21)
(0.0622703 -0.0128328 1.12922e-20)
(0.670711 0.153759 0)
(0.628588 -0.305089 3.31643e-21)
(0.159647 0.0600226 0)
(0.69632 0.0625338 4.42606e-21)
(0.549518 -0.339433 0)
(0.288437 0.176277 0)
(0.508097 0.160071 3.61187e-21)
(0.553713 -0.156228 6.21217e-21)
(0.194666 -0.0496412 -1.54612e-23)
(0.283697 0.211779 -1.11798e-20)
(0.804308 0.0871157 -1.07818e-20)
(0.652102 -0.436538 -1.38527e-20)
(1.02371 0.356853 4.42267e-21)
(0.980562 -0.478201 -5.5932e-21)
(-0.00017194 0.0054754 -1.2393e-22)
(0.873788 -0.525317 -9.17976e-21)
(0.981507 0.229081 -3.61065e-21)
(0.0945333 0.0852661 -5.81538e-21)
(0.653255 0.426015 8.21043e-21)
(0.298515 -0.248944 -4.36105e-21)
(0.853085 -0.118769 0)
(0.858703 0.481121 -2.23162e-21)
(0.834356 0.465479 2.07786e-21)
(0.972991 -0.254987 8.568e-22)
(1.00329 -0.26684 -3.50923e-21)
(0.0966682 -0.106091 2.85821e-21)
(0.11169 -0.11603 2.54244e-21)
(-0.0200381 -0.00798006 9.33272e-21)
(0.895945 -0.396446 1.94609e-21)
(0.836332 0.419581 -1.21256e-21)
(0.870233 0.466351 1.26331e-22)
(-0.0188627 -0.0090502 0)
(1.01259 -0.376219 0)
(0.79244 0.200145 1.31649e-20)
(0.748636 -0.3833 1.81559e-21)
(0.119247 0.0650709 0)
(-0.00961456 -0.00905306 1.58679e-20)
(1.00992 0.397482 -4.54325e-21)
(1.01206 -0.452029 0)
(0.733774 0.432164 -1.15574e-20)
(0.766792 0.441172 8.62486e-21)
(0.885191 -0.190631 -4.6395e-21)
(0.909825 -0.211518 -1.76193e-21)
(0.193615 -0.169787 5.0241e-21)
(0.162112 -0.14717 2.51949e-21)
(0.000496755 0.0112101 0)
(0.946258 -0.536455 0)
(1.08487 0.321394 -1.21993e-21)
(0.797302 0.45079 2.09454e-21)
(-0.017984 -0.00432084 -5.80033e-21)
(0.953262 -0.35732 0)
(0.444582 -0.0221847 1.92997e-23)
(0.331181 0.0630533 -5.83527e-21)
(0.328699 -0.0948126 -2.89621e-21)
(0.876143 0.435884 3.26604e-21)
(0.952186 -0.410409 -1.35345e-21)
(-0.0220659 -0.00886337 -1.16032e-20)
(0.577316 0.323503 -1.01111e-20)
(0.738164 -0.118208 8.22238e-21)
(0.272463 -0.199942 4.51052e-23)
(1.04406 0.375918 -1.05482e-22)
(0.99204 -0.493907 -7.42893e-21)
(-0.0120864 0.000119954 3.23692e-21)
(0.7496 -0.413873 -6.25185e-23)
(-0.0160041 -0.0139885 1.05883e-20)
(0.799315 0.344193 8.91595e-22)
(0.378039 0.184241 5.45214e-21)
(0.370691 -0.20822 3.45568e-22)
(0.597604 -0.0250476 -1.44545e-20)
(0.495798 0.0612921 0)
(0.446539 -0.164678 1.43386e-20)
(0.241838 0.0405563 -7.3885e-21)
(0.961329 0.465714 -6.95238e-21)
(-0.019707 -0.0167726 -7.32496e-21)
(1.04868 -0.415699 6.2116e-23)
(0.521824 0.0719382 0)
(0.466111 -0.185337 4.97813e-21)
(0.230282 0.0554203 1.04515e-20)
(0.421104 -0.0186994 -5.92805e-21)
(0.329353 0.0428777 6.16266e-21)
(0.332196 -0.0763454 -1.53124e-21)
(0.34401 0.263053 5.37079e-21)
(0.823855 0.0594013 3.7601e-21)
(0.631524 -0.4572 -7.59409e-21)
(0.517035 0.00985501 0)
(0.388961 -0.16641 0)
(0.298241 0.10444 -8.65628e-22)
(0.542781 0.0388406 -7.26312e-21)
(0.432756 -0.192783 -3.85348e-21)
(0.278161 0.101843 -1.22577e-22)
(0.616269 0.406476 -1.24969e-20)
(0.827669 -0.0987207 6.1081e-21)
(0.335152 -0.276556 8.71158e-21)
(-0.0108726 -0.0234476 -1.1104e-20)
(-0.0150684 -0.01979 1.12832e-20)
(1.05782 -0.40904 -1.9976e-21)
(1.04641 -0.423831 -1.44619e-21)
(0.977321 0.462113 -6.19029e-21)
(0.988834 0.45084 9.26015e-21)
(1.04025 0.357547 -5.49887e-21)
(0.983835 -0.489571 4.75972e-21)
(-0.00381552 0.00739851 0)
(0.286067 -0.251912 -5.63179e-21)
(0.685431 0.457037 -2.54807e-21)
(0.886391 -0.128338 0)
(0.443059 0.255203 0)
(0.381399 -0.251586 5.34765e-21)
(0.676617 -0.0425477 -4.43806e-21)
(0.888285 0.137131 0)
(0.754272 -0.498158 -4.8268e-21)
(0.216085 0.169926 -1.71147e-22)
(0.824042 -0.467558 -1.71348e-21)
(-0.0218597 -0.0179753 0)
(0.946902 0.348297 2.96209e-21)
(0.0341495 0.0411601 0)
(1.06867 0.287801 0)
(0.935716 -0.551807 -3.3134e-21)
(0.974077 0.435066 -2.24324e-21)
(-0.0252171 -0.0127632 0)
(1.00698 -0.444657 1.93918e-21)
(-0.0131076 -0.0114936 3.93474e-32)
(0.705368 -0.389158 5.47955e-22)
(0.735715 0.332191 -8.26476e-22)
(0.74273 -0.341664 -5.93182e-22)
(-0.0123752 -0.00608824 -3.92541e-32)
(0.698478 0.378801 7.49988e-22)
(0.835768 -0.431796 9.35638e-21)
(0.881692 0.248632 0)
(0.0795751 0.0499352 1.49824e-20)
(0.913426 -0.517641 1.09262e-21)
(-0.0148894 -0.00650378 0)
(1.06968 0.338141 0)
(0.937911 0.351834 5.54012e-21)
(0.941409 -0.417808 -4.90273e-21)
(0.0213181 -0.00322048 -7.7602e-21)
(0.917688 0.514121 -7.94219e-21)
(0.0073714 -0.0367626 -4.44665e-21)
(1.10631 -0.338664 0)
(0.579397 0.186477 -2.7625e-21)
(0.155299 -0.0263848 2.95168e-21)
(0.618632 -0.211265 -2.71574e-21)
(0.946655 -0.543614 0)
(0.00979123 0.0202727 -5.37671e-21)
(1.08293 0.311436 -1.49646e-21)
(0.864556 0.120569 4.33879e-21)
(0.242073 0.189511 3.05799e-21)
(0.725506 -0.483968 0)
(0.815909 -0.489637 0)
(0.912039 0.201611 0)
(0.126105 0.102679 -5.45046e-21)
(-0.00364597 -0.0043831 0)
(0.428055 -0.211531 -1.51593e-22)
(0.423474 0.206487 -5.46716e-23)
(0.843432 -0.426036 -1.22302e-21)
(-0.0195667 -0.0118473 6.40101e-21)
(0.849252 0.39576 1.52062e-21)
(0.541958 0.160899 7.15337e-21)
(0.174909 -0.0259549 -7.02405e-21)
(0.573264 -0.189058 -3.15044e-21)
(0.96619 -0.512697 -6.10425e-21)
(1.06859 0.353565 2.49329e-21)
(-0.0106996 0.00281743 0)
(-0.00164044 0.00804902 5.6165e-21)
(1.09312 0.31979 0)
(0.929061 -0.540693 4.61104e-21)
(0.994246 0.420972 3.31481e-21)
(-0.00896998 -0.0167334 -1.6994e-20)
(1.02575 -0.428487 -6.24007e-21)
(0.0480664 -0.0705822 1.27878e-20)
(1.05261 -0.313553 -3.76728e-21)
(0.910633 0.492266 0)
(0.595349 0.413536 1.5805e-20)
(0.833092 -0.0813801 -7.78311e-21)
(0.379183 -0.31202 8.25855e-21)
(0.954673 -0.229821 -1.26463e-21)
(0.803546 0.470749 -4.96209e-21)
(0.147211 -0.143233 7.86279e-21)
(0.0427278 -0.0695782 1.14411e-20)
(0.913139 0.51993 0)
(1.09311 -0.309298 2.35445e-21)
(0.610098 0.312858 2.54658e-21)
(0.654419 0.339954 0)
(0.732655 -0.156371 8.62299e-21)
(0.775467 -0.178382 -9.22113e-21)
(0.212708 -0.146416 -5.48425e-21)
(0.190432 -0.142271 0)
(0.574314 0.305766 2.48501e-21)
(0.718169 -0.129695 0)
(0.250064 -0.173391 -2.59987e-21)
(0.720607 0.444769 0)
(0.888023 -0.17436 7.48933e-21)
(0.219086 -0.192389 -1.81163e-21)
(0.855061 -0.506835 4.63712e-21)
(0.954809 0.222545 -3.86546e-21)
(0.0999003 0.0844275 1.19106e-20)
(0.970901 -0.513835 0)
(1.05028 0.345096 -8.50699e-22)
(-0.000285808 0.0120617 0)
(0.0631447 0.0546706 3.85269e-21)
(0.971899 0.26261 2.35848e-21)
(0.893315 -0.49715 2.99007e-21)
(0.796197 -0.348102 5.8521e-23)
(-0.0143145 -0.00502283 -2.49183e-24)
(0.731653 0.399515 0)
(0.443183 0.202486 -4.97038e-21)
(0.453177 0.192522 0)
(0.290733 -0.156645 1.27683e-21)
(0.596493 -0.0761271 -1.75247e-20)
(0.266987 -0.133648 -1.61569e-21)
(0.5832 -0.09361 1.11908e-20)
(0.65798 0.401756 0)
(0.610654 0.371769 1.61885e-21)
(0.28457 -0.22266 -1.79328e-23)
(0.829068 -0.143436 -4.87234e-21)
(0.256919 -0.206404 -1.32494e-20)
(0.790671 -0.121682 1.04095e-20)
(0.731352 -0.429396 0)
(-0.0174973 -0.0173521 -1.15506e-20)
(0.838422 0.331835 0)
(0.973363 -0.506808 3.82295e-21)
(1.06185 0.356742 -8.30559e-22)
(-0.00984987 0.00285203 -3.39793e-21)
(0.470842 0.29712 3.03695e-21)
(0.419411 -0.301284 6.05553e-21)
(0.730364 -0.0369094 -1.413e-20)
(0.815055 -0.524114 -1.01704e-20)
(0.941845 0.175926 -9.92706e-21)
(0.160732 0.13576 0)
(0.0625794 -0.0827459 -1.3675e-20)
(1.04194 -0.299779 4.00724e-21)
(0.896852 0.492932 0)
(0.921465 -0.452744 0)
(0.946706 0.406433 0)
(-0.024555 -0.013004 0)
(0.932311 -0.468046 0)
(0.979394 0.396776 -3.30782e-21)
(-0.0253844 -0.0134842 0)
(0.766181 0.421255 4.8131e-21)
(0.89387 -0.227219 -2.6816e-21)
(0.143434 -0.128871 -3.72925e-21)
(0.327069 0.17362 1.43746e-21)
(0.455012 -0.263289 0)
(0.62782 0.0244145 -4.81417e-21)
(0.998254 0.430794 -3.86224e-21)
(-0.0133811 -0.0167613 -9.85997e-21)
(1.03759 -0.431181 8.95344e-21)
(0.850501 -0.456579 0)
(0.909261 0.250349 0)
(0.0774334 0.0591398 -1.29224e-20)
(0.0173024 -0.0342606 -3.24571e-21)
(0.996242 -0.376283 -6.40465e-21)
(0.93318 0.421017 -1.13799e-20)
(0.582764 0.36226 -1.64907e-21)
(0.318131 -0.24604 8.87894e-21)
(0.778018 -0.103419 -5.37203e-21)
(0.732657 0.116469 8.62064e-21)
(0.632747 -0.366132 -5.02529e-21)
(0.216273 0.13394 -1.10254e-20)
(0.407664 0.221773 -9.45611e-23)
(0.387783 -0.24402 1.76719e-21)
(0.646666 -0.0301548 5.81409e-21)
(-0.017342 -0.011649 3.84848e-21)
(1.02479 -0.453588 -3.84305e-21)
(1.01361 0.417409 -3.97449e-21)
(0.879992 0.414627 2.16013e-21)
(0.96212 -0.331131 2.00426e-21)
(0.0468307 -0.054604 0)
(0.387484 0.176285 5.39008e-21)
(0.340564 -0.180122 -1.12143e-20)
(0.578975 -0.0396566 9.55028e-21)
(0.914543 0.525058 -3.26169e-21)
(0.0311881 -0.0594294 -5.06036e-21)
(1.10763 -0.31674 -1.38397e-22)
(0.546658 0.25658 3.09999e-21)
(0.661062 -0.139796 0)
(0.2212 -0.134089 0)
(0.591162 0.11323 1.28504e-20)
(0.544391 -0.242843 -3.05999e-21)
(0.193574 0.0583736 0)
(0.806618 -0.460472 0)
(0.883583 0.204747 -8.34784e-21)
(0.116839 0.09079 5.70803e-21)
(0.896284 0.487114 0)
(-0.0134121 -0.0160894 1.55949e-21)
(1.06648 -0.368169 -1.65447e-21)
(0.894427 0.499631 -2.88892e-21)
(-0.007586 -0.0206866 -4.97634e-21)
(1.0843 -0.352676 1.97331e-21)
(0.0219296 -0.0428948 -2.94975e-21)
(1.01062 -0.361958 3.61837e-21)
(0.929033 0.437801 1.04876e-20)
(0.758579 0.102362 3.88096e-21)
(0.643882 -0.396338 1.00803e-20)
(0.241889 0.1587 0)
(-0.0155087 -0.0101847 -1.42856e-21)
(1.0382 -0.362755 1.55029e-21)
(0.854417 0.476736 0)
(0.0119987 -0.0011428 0)
(0.962157 -0.436679 3.81769e-21)
(0.968009 0.358759 1.28488e-21)
(-0.00998387 -0.0118864 -5.78561e-21)
(0.599012 -0.36273 -8.5937e-22)
(0.658777 0.276989 0)
(0.591979 0.352778 1.05778e-21)
(0.664849 -0.2846 0)
(-0.00895035 -0.00306215 -5.78891e-21)
(0.0377925 -0.0640021 5.05832e-24)
(1.07718 -0.322225 4.2555e-22)
(0.9193 0.506114 0)
(-0.0238864 -0.0106518 0)
(1.00386 -0.467606 0)
(1.01961 0.413403 -4.85918e-21)
(0.968598 0.462499 3.51256e-21)
(0.962869 0.452499 -2.84151e-21)
(-0.00219552 -0.031116 5.57588e-21)
(1.06054 -0.38807 6.86245e-22)
(0.00210844 -0.0326741 0)
(1.04432 -0.386734 0)
(0.974286 0.33984 -2.52265e-21)
(0.950264 -0.452828 -2.5901e-21)
(0.0165809 0.00851312 0)
(0.202012 0.168539 0)
(0.782912 -0.525803 0)
(0.925633 0.149804 0)
(0.443546 0.156784 -6.72151e-21)
(0.248927 -0.096971 1.55035e-20)
(0.540273 -0.101455 -6.196e-21)
(0.960024 0.292651 -7.30287e-21)
(0.908266 -0.470833 -1.00638e-21)
(0.0412931 0.0333975 -1.13518e-20)
(0.057803 0.046808 -7.3755e-21)
(0.951155 0.273597 1.01584e-20)
(0.888096 -0.476598 1.39554e-21)
(0.897428 0.530998 -3.9735e-21)
(0.0651006 -0.0883311 -5.47157e-21)
(1.08909 -0.285067 0)
(0.672934 0.420092 0)
(0.851543 -0.144807 -2.22345e-21)
(0.258009 -0.215074 1.29877e-20)
(0.612057 0.349077 0)
(0.769087 -0.131904 -1.07966e-20)
(0.259583 -0.199565 1.31534e-23)
(0.873855 0.282073 1.0013e-20)
(0.856962 -0.40841 -1.281e-21)
(0.0558244 0.0207987 6.53073e-21)
(0.894515 0.276728 0)
(0.862791 -0.427235 -1.21209e-21)
(0.0579827 0.0305935 -5.97996e-21)
(0.361835 0.149495 0)
(0.345927 -0.16703 1.76911e-20)
(0.549218 -0.029025 0)
(0.666473 0.358731 0)
(0.794011 -0.177292 5.96616e-21)
(0.194361 -0.154761 -1.9723e-21)
(0.0217135 0.030497 1.16375e-20)
(0.932412 -0.555794 7.38704e-21)
(1.09034 0.295266 0)
(0.999726 0.377361 6.85077e-23)
(-0.024047 -0.0144903 -3.55072e-21)
(0.898559 -0.481493 -1.29665e-21)
(0.989496 0.355106 2.14235e-22)
(-0.0226175 -0.0164325 0)
(0.863974 -0.480909 3.60637e-21)
(0.49368 0.265012 -3.68323e-21)
(0.308437 -0.199002 1.91456e-21)
(0.669518 -0.0851842 1.57262e-22)
(0.869128 -0.442629 -2.09967e-22)
(-0.0225136 -0.0140653 -1.46858e-20)
(0.915048 0.389719 0)
(0.904634 0.438541 -9.18628e-21)
(0.0380212 -0.0539421 0)
(0.995857 -0.338871 0)
(-0.021166 -0.0167961 5.82382e-21)
(0.819213 -0.454894 1.5703e-21)
(0.909958 0.358208 -2.18389e-21)
(0.472915 0.0859301 -8.96577e-21)
(0.231214 0.00573179 -9.39065e-21)
(0.462845 -0.142616 -4.15824e-23)
(0.722675 0.280823 1.55119e-21)
(0.765277 -0.276623 1.41287e-21)
(0.0988724 -0.0397593 5.96956e-21)
(0.599495 -0.379805 -1.15799e-20)
(0.739813 0.0785012 -1.41173e-20)
(0.278573 0.181617 0)
(-0.0124075 -0.00203214 0)
(0.932448 -0.521038 1.46003e-21)
(1.07584 0.341817 0)
(0.836491 -0.469213 0)
(0.910956 0.233367 0)
(0.0922749 0.0725407 0)
(0.0151201 -0.0454604 0)
(0.927169 0.512942 2.85888e-21)
(1.10387 -0.336407 -2.24861e-21)
(0.765597 0.300015 0)
(0.800782 -0.302411 -7.19514e-22)
(0.0816224 -0.0326117 -4.86978e-24)
(0.426501 0.136875 6.49285e-21)
(0.255036 -0.0862555 -1.3316e-20)
(0.515109 -0.0944615 0)
(0.960183 -0.509481 5.77016e-21)
(1.05931 0.365067 -2.36959e-21)
(-0.0164368 -0.00350135 0)
(0.00610685 -0.0167443 6.76495e-21)
(0.986919 -0.416256 -2.40345e-22)
(0.961035 0.394597 -2.42073e-22)
(0.933275 0.467467 0)
(0.918823 0.463422 -2.54879e-21)
(-0.0194999 -0.014295 -3.58275e-21)
(-0.0212152 -0.0119305 4.43228e-21)
(1.0434 -0.398449 1.15272e-21)
(1.02473 -0.403236 -9.48025e-22)
(0.722681 0.187301 0)
(0.688864 -0.336324 -9.64044e-21)
(0.130654 0.0507754 -7.25691e-21)
(0.800053 -0.41088 -1.31613e-20)
(0.846081 0.227732 0)
(0.0926607 0.0561521 7.92779e-21)
(0.553083 0.127405 7.30134e-21)
(0.542557 -0.208793 -5.19756e-21)
(0.179686 0.0178917 -1.14881e-20)
(0.922952 -0.4977 -3.2153e-21)
(1.0339 0.370154 -2.53065e-21)
(0.906074 -0.507116 1.46683e-21)
(-0.0225144 -0.0118011 3.76105e-21)
(1.04591 0.351683 2.37281e-21)
(-0.0193844 -0.0112788 0)
(0.849926 0.339217 0)
(0.881924 -0.354137 0)
(0.0484895 -0.0224616 -7.3766e-21)
(1.04618 0.379239 -2.78692e-21)
(1.03558 0.380654 7.1017e-21)
(0.969787 -0.496449 -2.10487e-21)
(0.954033 -0.491331 5.59733e-21)
(-0.021349 -0.00754835 -9.93868e-21)
(-0.0234226 -0.0103994 8.74057e-24)
(0.821857 0.210111 0)
(0.769266 -0.411151 1.24408e-20)
(0.117044 0.0755661 -1.02781e-20)
(0.675279 0.211141 -6.77663e-21)
(0.715037 -0.289686 8.60848e-21)
(0.105444 -0.00541534 0)
(0.921864 0.503885 0)
(-0.0027489 -0.028263 -6.8774e-22)
(1.09418 -0.357313 -1.89604e-21)
(0.726336 0.208201 -4.98101e-21)
(0.708551 -0.324806 0)
(0.114256 0.0328956 1.20214e-20)
(0.595341 0.154572 -2.94569e-21)
(0.592465 -0.239829 6.099e-21)
(0.157498 0.0143174 -6.6589e-21)
(0.919101 0.478843 0)
(-0.0153757 -0.0168239 0)
(1.06493 -0.385036 2.68086e-21)
(0.774456 0.323306 0)
(0.830752 -0.293206 -1.45443e-21)
(0.0780343 -0.0480635 7.33607e-21)
(0.709888 -0.492338 0)
(0.866248 0.104965 0)
(0.274372 0.217403 3.93126e-22)
(0.58255 0.375726 4.04752e-22)
(0.79295 -0.0916073 0)
(0.340009 -0.268649 -6.83448e-21)
(0.888201 -0.559518 -5.20947e-21)
(0.0939646 0.0886062 0)
(1.02838 0.22992 0)
(-0.00699335 -0.00633108 1.39142e-20)
(0.563988 -0.281136 2.12334e-22)
(0.557775 0.274069 7.65771e-23)
(0.746659 0.250346 0)
(0.749979 -0.312528 -5.28152e-21)
(0.0911997 -0.0016846 0)
(0.952153 0.486504 -5.48173e-21)
(-0.00512975 -0.0290195 -1.88036e-20)
(1.08144 -0.37502 4.69762e-21)
(0.457315 -0.360092 0)
(0.81073 -0.0366212 5.16751e-21)
(0.515515 0.367464 0)
(0.707916 0.413652 0)
(-0.0149358 -0.00207315 3.44804e-21)
(0.842343 -0.335501 0)
(0.266206 0.123222 -7.10571e-21)
(0.280911 0.145408 7.2664e-21)
(0.48106 -0.252985 0)
(0.602126 0.0536541 -6.11937e-21)
(0.499278 -0.280395 1.12767e-20)
(0.633029 0.0495024 4.87981e-21)
(0.550033 0.104571 -6.87095e-21)
(0.51358 -0.207007 -6.987e-21)
(0.200781 0.0415075 0)
(0.340052 0.165573 -6.28314e-21)
(0.301363 0.138958 0)
(0.410005 -0.226318 0)
(0.595943 0.0011935 0)
(0.429254 -0.223048 6.47113e-21)
(0.580612 0.0225613 -3.78981e-23)
(0.712715 0.237395 -4.27578e-22)
(0.67492 -0.281899 3.79862e-21)
(0.122882 0.00935642 8.19421e-21)
(0.680933 0.197488 1.1647e-20)
(0.673991 -0.294008 0)
(0.12776 0.0243121 0)
(-0.0201581 -0.0152442 0)
(0.86337 -0.499205 0)
(1.0238 0.342334 -2.0875e-21)
(0.53297 0.277171 1.01219e-20)
(0.682267 -0.109788 0)
(0.268091 -0.174742 -3.54289e-21)
(1.03581 0.393864 6.61591e-21)
(0.993054 -0.485223 -2.71932e-21)
(-0.0219958 -0.00739319 5.6739e-21)
(0.890038 0.310942 0)
(0.921185 0.326237 -5.3312e-21)
(0.88758 -0.402257 1.59708e-21)
(0.91548 -0.417539 -4.84389e-21)
(0.0405715 0.00725381 8.1073e-21)
(0.0303898 0.00606267 7.49014e-21)
(0.519738 0.252738 0)
(0.654569 -0.116958 0)
(0.252306 -0.15459 -1.684e-21)
(0.708221 0.405122 -3.90689e-21)
(0.849677 -0.183506 0)
(0.197797 -0.165439 -4.32606e-21)
(0.826598 0.293631 2.86296e-21)
(0.835801 -0.363213 0)
(0.0583397 0.000581131 -7.45945e-21)
(0.366625 0.0844455 -7.03851e-21)
(0.46062 -0.0533866 -3.40789e-21)
(0.29457 -0.0845729 -3.5889e-21)
(0.934637 0.299771 0)
(0.901088 -0.446945 0)
(0.0407887 0.0253546 1.20713e-20)
(0.419033 0.160065 0)
(0.278875 -0.123943 -1.95525e-21)
(0.546294 -0.0771448 0)
(0.817009 0.229321 6.50521e-21)
(0.778854 -0.392796 6.9184e-21)
(0.0961447 0.0468411 1.03078e-21)
(0.706381 0.383902 -3.94757e-21)
(0.833114 -0.196244 -6.79808e-21)
(0.175853 -0.146749 0)
(0.378209 0.109732 6.97606e-21)
(0.359857 0.112153 3.11259e-21)
(0.489014 -0.0615616 -3.31898e-21)
(0.290219 -0.100606 7.1065e-21)
(0.501033 -0.0442626 0)
(0.313961 -0.123719 1.26424e-20)
(0.326542 0.128152 3.14334e-21)
(0.373777 -0.178999 -8.24429e-21)
(0.303562 0.126649 -2.0225e-21)
(0.54107 -0.00587851 0)
(0.41961 -0.208879 -4.13766e-21)
(0.562999 0.0184665 7.00249e-21)
(0.59756 0.29047 -3.67351e-21)
(0.637537 0.299668 0)
(0.708063 -0.163412 -6.50244e-21)
(0.730412 -0.190847 5.07612e-21)
(0.198066 -0.127858 1.58576e-20)
(0.167079 -0.105786 -1.31903e-20)
(0.0380053 -0.060925 0)
(1.03542 -0.329861 2.1741e-21)
(0.91597 0.471828 5.30462e-21)
(0.30063 0.230515 -1.32926e-20)
(0.831744 0.0842388 -5.93017e-21)
(0.66761 -0.464173 1.19378e-20)
(0.0227427 -0.050078 6.37728e-21)
(0.014472 -0.0421609 0)
(1.04904 -0.350627 -1.88073e-21)
(1.0364 -0.366884 -3.30825e-21)
(0.934109 0.474965 -1.34248e-20)
(0.944385 0.457695 6.95472e-21)
(0.412033 0.283668 0)
(0.50761 -0.359663 6.56997e-21)
(0.753227 0.00708769 -1.39814e-21)
(0.364341 0.0412427 -1.48419e-20)
(0.304537 -0.0433809 0)
(0.407102 -0.0489185 1.16822e-20)
(0.944939 0.321544 2.50273e-21)
(0.922696 -0.441579 5.4694e-21)
(0.0289195 0.0143398 0)
(0.472987 0.225266 0)
(0.282019 -0.168536 1.60459e-21)
(0.624381 -0.0880161 5.67857e-21)
(0.73135 0.39117 0)
(0.851745 -0.213289 0)
(0.155125 -0.131474 1.03893e-21)
(0.878174 0.474085 0)
(0.877163 0.45588 0)
(1.01081 -0.294452 -1.23986e-21)
(0.072609 -0.0867209 7.85267e-21)
(0.994455 -0.302866 3.37998e-21)
(0.0648138 -0.0774953 -1.0633e-20)
(0.88047 0.340152 -5.3719e-21)
(0.904255 -0.374917 -5.1655e-21)
(0.0366706 -0.013463 -3.52963e-21)
(0.776975 0.426812 -2.35077e-21)
(0.897865 -0.361908 0)
(-0.0177985 -0.00448974 4.23684e-21)
(0.482146 -0.368745 0)
(0.792192 -0.0189258 -4.20921e-21)
(0.476547 0.337468 0)
(0.5475 0.380494 -4.08415e-21)
(0.526422 0.35707 4.42532e-21)
(0.412671 -0.326387 4.24257e-21)
(0.8083 -0.0578843 0)
(0.412496 -0.316053 0)
(0.784445 -0.0551013 0)