/*--------------------------------*- C++ -*----------------------------------*\
  =========                 |
  \\      /  F ield         | OpenFOAM: The Open Source CFD Toolbox
   \\    /   O peration     | Website:  https://openfoam.org
    \\  /    A nd           | Version:  6
     \\/     M anipulation  |
\*---------------------------------------------------------------------------*/
FoamFile
{
    version     2.0;
    format      ascii;
    class       volScalarField;
    location    "0";
    object      P_rec;
}
// * * * * * * * * * * * * * * * * * * * * * * * * * * * * * * * * * * * * * //

dimensions      [0 2 -2 0 0 0 0];

internalField   nonuniform List<scalar> 
918
(
0.53596
0.35872
0.0972058
0.55323
-0.0020668
0.255135
-0.778614
0.509573
0.557877
-0.108989
0.0323694
0.435695
0.0904051
0.0512073
-1.22277
0.0225501
0.563063
-0.729327
0.395549
0.0239431
-0.0390408
0.558535
0.494288
0.394608
0.481668
-0.0204438
0.142294
-0.0347294
-0.0510393
-0.0402858
-0.00231174
0.0457417
0.0121163
0.215973
0.217679
0.258812
0.403763
0.159493
-0.639121
-0.694065
-0.677564
-0.850598
0.517731
0.531486
-0.300457
0.488198
0.464342
0.408254
0.538084
0.560407
0.498626
0.541058
0.567076
0.274784
-0.1432
-0.210194
-0.0632943
-0.0629046
0.0826906
0.0270293
0.0156504
0.0554984
0.0442081
0.358056
0.427275
0.423222
0.445436
0.445904
0.314147
0.273598
0.317912
0.0940701
0.21545
0.0668854
0.163452
0.0565683
0.0920931
0.0331467
0.0181283
-1.50429
-2.26884
-0.747965
-0.606221
0.00549738
0.0232425
0.0323517
0.550988
0.553122
0.549869
0.559547
0.701236
-0.652609
-0.843271
0.428676
0.42742
0.544927
0.501495
0.443539
0.383903
0.0206935
0.0157132
0.0108548
0.0389842
0.0294482
0.128929
0.236793
0.373038
0.4042
0.446567
0.471231
0.457456
0.191585
0.517681
0.523491
-0.0631466
0.0964165
-0.0215199
0.0487996
0.15029
0.11689
0.220986
0.257232
-0.054645
-0.00957236
0.0396903
0.00518931
0.0291608
0.403422
0.393659
0.417813
0.407055
0.411938
0.0865148
-0.00248824
0.201819
0.208988
-0.52045
-0.564411
-0.73254
-0.744736
-0.883925
0.561153
0.533014
0.54776
-0.389585
-0.263672
-0.431873
-0.188082
-0.234855
0.409829
0.403399
0.403506
0.408441
0.41452
0.41452
0.546721
0.540154
0.572012
0.282224
0.355217
0.261266
0.218086
-0.438794
-0.296664
-0.423988
-0.0365624
-0.00451615
0.0735373
0.105538
0.112566
0.0822572
-0.00509058
0.0128697
0.00248681
0.0184867
0.0209824
0.358448
0.343885
0.35996
0.368703
0.420616
0.418804
0.424284
0.424875
0.228604
0.220005
0.181957
0.159177
-3.06688
-5.25896
-0.399918
-0.304231
-0.000941333
-0.0117069
-0.00415633
-0.0755037
-0.013549
-0.0377232
0.0681668
0.0451398
0.0350696
0.0546252
0.546708
0.557548
0.706876
0.749717
0.62118
0.620708
0.424907
0.433942
0.429546
0.429753
0.0305586
0.0163435
0.0299899
0.431815
0.33273
0.383039
0.155514
0.0629434
0.239319
0.276464
0.546027
0.530299
0.550471
-0.0590517
0.0166117
0.348982
0.130119
0.336747
0.184824
0.157869
0.199266
0.128469
0.373455
0.388684
0.386056
0.41448
0.420559
0.419703
0.421593
0.414744
0.418916
-0.150982
-0.44533
0.287592
0.253335
0.213363
0.247464
0.629208
0.691142
0.552443
0.542883
0.554285
-0.0888729
-0.129876
0.172211
0.156535
0.307834
0.324312
0.313988
0.151977
0.109226
0.149532
0.134727
0.108788
0.158021
-0.410088
-1.80058
-1.01463
-0.0963939
-0.191647
-0.153506
0.0449912
0.101433
0.0732703
0.721591
0.771421
0.393354
0.545417
0.500434
-0.0781359
-0.00698887
0.0945827
-0.0217036
0.0260401
0.0992611
0.0531688
0.44197
0.305006
0.387027
0.707788
0.772369
0.0292688
-0.0388769
-0.0764926
0.128479
0.127074
0.12224
0.762146
0.755447
0.782476
0.380448
0.373565
-0.0510979
-0.0041786
0.47691
0.499428
-0.0556953
-0.0235492
-0.10495
-0.830665
0.0228439
0.431715
0.391947
0.444047
-0.118604
0.191069
0.00613494
0.0292331
-0.0211247
0.408465
0.340486
0.308541
-0.0555035
0.0100202
-0.00327238
-0.390748
0.436675
0.420802
0.430046
0.441183
0.454258
-0.00681006
-0.0121685
0.0279766
-0.0317794
0.0382629
0.0372676
0.412977
0.402805
-0.41819
0.424051
0.446544
0.446889
0.458029
0.459382
0.449536
-0.0107676
0.0301651
0.0386223
0.13597
0.24072
0.00945583
-0.0228157
0.0128611
-0.120381
-0.302906
-0.0303693
-0.014798
-0.0350843
0.0034277
0.517055
0.488876
0.109535
-0.0625307
0.102205
0.0644346
0.426354
0.443183
0.416784
0.427991
0.444733
0.39987
0.459312
0.430429
0.428098
0.467686
-0.0738258
-0.0258382
-0.0729909
-0.194566
0.270166
0.350048
0.182633
0.241052
0.105192
-0.0079574
0.0422483
-0.0134715
0.00728308
0.0116991
0.0997256
0.036154
0.134536
0.0224627
0.105381
-0.0242691
0.130842
0.00414399
0.392989
0.41135
0.408621
0.446983
0.369893
0.387447
0.364263
0.364366
0.380264
0.314873
0.331518
0.331211
0.0143479
0.0129303
0.0412392
0.0253472
0.0450983
-0.0248769
-0.02314
-0.0242928
-0.00500456
-0.0431713
-0.00821885
-0.00104598
-0.307817
-0.480923
0.649891
0.532054
0.187735
0.402584
0.442222
0.417843
0.450076
0.461451
0.492844
0.460565
0.437811
0.409461
0.424255
0.407834
0.424601
-0.347252
-0.412197
-0.270691
-0.322559
0.0736881
0.526147
0.284942
0.231873
0.220538
0.388047
0.29947
0.0804431
-0.126485
-0.235466
-0.527272
-0.37396
-0.544295
-0.0950877
-0.025906
-0.0534871
0.0187182
0.0867708
0.0277515
0.0078269
-0.124733
0.429515
-0.189122
-0.165425
0.0501719
-0.032026
0.240812
0.517057
0.52771
0.467017
0.444916
0.501319
0.475289
0.474288
0.507324
0.512858
0.409263
0.177558
0.162761
0.0963726
0.524809
0.432137
0.469617
0.35943
0.445843
0.449591
0.430638
0.421489
0.455168
0.421161
0.416466
0.396038
0.388702
0.424438
0.427655
0.401917
0.000658256
-0.0121409
-0.0750271
-0.277925
-0.160397
-0.256606
-0.116767
0.0514477
-0.0330282
0.152643
0.301475
0.0358669
-0.176999
-0.0486714
-0.102555
0.140062
0.0794363
0.129721
0.137609
0.144434
0.141747
0.197342
0.171589
0.038738
0.0492591
0.0757874
0.00245447
0.128106
0.0962863
0.153516
0.0617649
0.109115
0.0636311
0.0273585
0.0177483
0.104769
0.0594209
0.0201379
0.0296278
0.0195191
-0.0601593
-0.0557094
0.165602
0.0497285
0.431926
0.416996
0.418825
0.437738
0.468537
0.463281
0.409635
0.408545
0.433479
0.405726
0.379406
0.363615
0.355256
0.384911
0.394359
0.391715
0.429687
0.421381
0.394957
0.413406
0.364168
0.38285
0.336643
0.350961
0.375228
-0.0839083
0.0219599
-0.0303501
-0.0374851
0.0138614
0.0486731
0.106657
0.0333485
0.111873
0.0864948
0.0620256
0.027291
0.0531277
-0.150503
-0.0196796
-0.33879
-0.386293
-0.49164
0.639485
0.704242
0.573165
0.456613
0.516766
0.589172
0.659486
0.403972
0.435617
0.500727
0.444619
0.691744
0.424916
0.412297
0.432291
0.450073
0.429488
-0.215133
-0.101187
-0.0496903
0.048676
0.115198
0.163487
0.00695288
0.158159
0.230555
0.186038
0.506659
0.527218
0.492911
0.525772
0.521918
0.324759
0.414143
0.449669
0.438338
0.443665
0.464384
0.468162
0.466017
0.397003
0.391139
0.396724
0.35204
0.376259
0.349539
0.345619
0.406167
0.385215
0.38705
0.39607
0.443772
0.424911
0.450076
0.492582
0.476035
0.379291
0.359668
0.382685
0.392666
0.370763
0.369893
0.366371
-0.0848761
-0.0454051
-0.00589765
-0.172553
-0.0420365
-0.0817952
-0.12392
-0.14924
-0.00131723
-0.442016
-0.376862
-0.897254
0.323405
0.361116
0.191646
-0.0645288
0.425504
0.459488
0.442876
0.351879
0.364322
0.509037
0.530616
0.538239
0.464109
0.460194
0.485492
0.47019
0.416195
0.281693
0.219455
0.257109
0.104658
0.160882
0.323219
0.261876
0.21485
0.240043
0.337276
0.244214
0.275631
0.345126
0.309149
0.295125
0.427097
0.472616
0.488209
0.439121
0.345307
0.399701
0.392379
0.440281
0.478068
0.482476
0.428862
0.412601
0.421326
0.413316
0.403595
0.419778
0.392408
0.435001
0.439048
0.446967
0.441448
-0.00846641
0.0172779
0.0255988
-0.01707
-0.0103004
-0.053145
-0.0471868
-0.0667159
0.0777137
0.0581306
-0.0262302
-0.000289629
0.0872537
0.0452354
0.114705
0.132405
0.0788001
0.0237877
0.22321
0.349793
0.350682
0.312217
0.196412
0.203749
0.290317
0.0473841
0.127783
0.0832413
0.0546554
0.0551212
0.0197614
0.104064
0.0464416
0.0852901
0.0402245
-0.10046
0.0429019
0.0905268
-0.0426649
0.00999135
0.0401521
0.396812
0.398036
0.381642
0.362457
0.37088
0.371982
0.406015
0.430171
0.43261
0.431389
0.436871
0.421526
0.427564
0.0137812
0.121062
0.146709
0.0874239
0.0467816
-0.00499366
-0.0189076
0.156543
0.0593912
0.138278
-0.0762958
-0.224468
-0.139434
0.29821
0.373317
0.282028
0.640167
0.495444
0.373699
0.466112
0.613085
0.330499
0.463739
0.348326
0.657175
0.623427
0.702281
0.522146
-0.0259844
0.115885
0.253574
-0.113908
-0.0559228
0.100307
0.0900722
0.104278
0.0835037
0.177645
0.0849982
0.0516792
-0.0650222
-0.0233098
0.142626
0.147812
0.177189
0.197956
-0.0764005
-0.108112
-0.0978118
0.486691
0.510435
0.53371
0.506665
0.527756
0.464601
0.462867
0.49354
0.517487
0.505325
-0.728557
-0.465759
-1.31538
-0.659483
-0.318512
0.43902
0.184112
0.747866
0.595043
0.46324
0.487183
0.492841
0.454665
0.505859
0.507079
0.253863
0.349147
0.295703
0.331619
0.246487
0.175524
0.472539
0.457137
0.487096
0.506337
0.460801
0.504376
0.357525
0.396562
0.377648
0.410413
0.431458
0.448485
0.101393
0.0385026
0.0815737
0.0702543
0.0528479
0.0282874
-0.0385017
-0.010485
0.159129
0.105793
0.0509965
0.103295
-0.0393896
0.0233207
-0.0726947
0.0107643
-0.154314
-0.231799
-0.232215
-0.19299
-0.137542
-0.093057
0.433968
0.580567
0.504591
0.612712
0.47293
0.586146
0.242024
0.202391
0.220075
0.202666
0.264823
0.0304277
-0.302423
-0.202631
0.784589
0.897115
0.604055
0.364394
0.115255
0.391606
0.438285
0.369127
0.389321
0.471987
0.43758
-0.127985
-0.0688158
-0.0414078
0.0235012
-0.00689176
0.000835316
-0.0127272
0.0291911
-0.00447737
)
;

boundaryField
{
    wall-4
    {
        type            calculated;
        value           nonuniform List<scalar> 
100
(
0.53596
0.35872
0.0972058
0.55323
0.255135
-0.778614
0.509573
-0.108989
0.0323694
0.435695
0.0904051
0.0512073
-1.22277
0.563063
-0.729327
0.395549
0.0239431
-0.0390408
0.394608
0.481668
-0.0204438
0.142294
-0.0347294
0.215973
0.403763
-0.694065
-0.850598
0.531486
-0.300457
0.464342
0.408254
-0.210194
-0.0629046
0.0156504
0.0442081
0.358056
0.423222
0.445904
0.21545
0.163452
0.0920931
0.0181283
-2.26884
-0.606221
0.553122
0.559547
-0.843271
0.42742
0.383903
0.0157132
0.0294482
0.236793
0.4042
0.457456
0.191585
0.523491
-0.0631466
0.0487996
0.11689
0.257232
0.393659
0.417813
0.411938
-0.564411
-0.883925
0.54776
-0.431873
-0.234855
0.403506
0.41452
-0.423988
-0.00451615
0.00248681
0.0209824
0.343885
0.368703
0.420616
0.424875
0.159177
-0.304231
0.557548
0.424907
0.429753
0.0299899
0.383039
0.0629434
0.276464
0.550471
0.0166117
0.184824
0.386056
0.419703
0.418916
0.554285
-0.129876
0.313988
0.134727
-0.153506
0.0260401
-0.0764926
)
;
    }
    velocity-inlet-5
    {
        type            calculated;
        value           nonuniform List<scalar> 8(0.53596 0.55323 0.557877 0.558535 0.560407 0.567076 0.544927 0.572012);
    }
    velocity-inlet-6
    {
        type            calculated;
        value           nonuniform List<scalar> 4(0.35872 0.255135 0.258812 0.317912);
    }
    pressure-outlet-7
    {
        type            calculated;
        value           uniform 0;
    }
    wall-8
    {
        type            calculated;
        value           nonuniform List<scalar> 
34
(
-0.0020668
0.0225501
0.0121163
0.159493
0.274784
0.0826906
0.0323517
0.701236
0.0291608
-0.00248824
0.208988
0.561153
0.355217
0.218086
0.105538
0.0822572
-5.25896
0.0681668
0.0546252
0.749717
0.620708
-0.44533
0.287592
0.247464
0.691142
0.156535
-1.01463
0.0732703
0.771421
0.500434
0.387027
0.772369
0.12224
0.782476
)
;
    }
    frontAndBackPlanes
    {
        type            empty;
    }
}

