/*--------------------------------*- C++ -*----------------------------------*\
  =========                 |
  \\      /  F ield         | OpenFOAM: The Open Source CFD Toolbox
   \\    /   O peration     | Website:  https://openfoam.org
    \\  /    A nd           | Version:  6
     \\/     M anipulation  |
\*---------------------------------------------------------------------------*/
FoamFile
{
    version     2.0;
    format      ascii;
    class       volVectorField;
    location    "0";
    object      U_rec;
}
// * * * * * * * * * * * * * * * * * * * * * * * * * * * * * * * * * * * * * //

dimensions      [0 1 -1 0 0 0 0];

internalField   nonuniform List<vector> 
918
(
(0.989407 -0.00158575 0)
(-0.0124225 2.99207 0)
(-0.00483895 1.72369 0)
(0.98267 0.00375426 0)
(-0.01186 1.68324 5.41589e-17)
(0.00732156 2.98487 -2.29215e-17)
(0.967897 1.42902 4.26465e-18)
(0.488247 0.269183 2.58779e-19)
(1.00006 0.000465295 0)
(0.0413522 1.68493 0)
(-0.00553507 1.66385 0)
(0.913884 0.00131908 0)
(-0.00265115 2.98378 0)
(0.00430199 2.88345 0)
(0.00554922 2.92405 1.78356e-17)
(-0.00319511 1.66467 3.26263e-17)
(0.66537 0.150366 -1.96644e-18)
(0.204735 1.91647 -3.45667e-17)
(0.98668 0.0121704 0)
(0.00381787 1.6729 0)
(0.0295816 0.0518246 6.46473e-18)
(0.993541 0.00907426 0)
(1.00579 0.00886991 0)
(1.00978 0.000128108 0)
(0.843194 -0.0157927 0)
(0.0141364 2.90893 0)
(-0.00748137 2.93938 -8.92208e-17)
(-0.00329149 1.73712 0)
(0.00518376 1.76631 0)
(-0.00803142 1.74695 0)
(-0.0113169 1.7903 0)
(-0.00841639 1.70212 5.38815e-17)
(-0.00705976 1.66478 0)
(0.0103339 3.0086 7.08066e-22)
(0.00597806 3.02274 -5.61015e-17)
(0.0192765 3.01079 0)
(0.949008 0.00105546 0)
(0.460814 0.977933 -1.15325e-17)
(0.945593 1.46683 -1.13529e-17)
(1.07893 1.24729 2.4762e-17)
(0.805869 1.63647 8.94551e-18)
(0.822353 1.59701 1.50025e-17)
(0.519221 0.327147 3.00547e-20)
(0.552751 0.242958 0)
(1.26127 0.664161 0)
(0.441267 0.333436 -5.56528e-20)
(0.434277 0.245827 9.72034e-19)
(0.951422 -0.00191877 0)
(0.996492 0.00234124 0)
(0.999896 0.00275406 0)
(0.992042 0.00401723 0)
(0.984126 0.00717326 0)
(1.00076 0.0113096 0)
(0.0131691 1.56893 5.05456e-18)
(0.0407048 1.7758 0)
(0.0696913 1.72138 0)
(0.00982556 1.75042 0)
(0.00254478 1.65534 0)
(-0.00886736 1.66148 0)
(-0.00835907 1.71316 0)
(-0.00883748 1.66135 0)
(-0.0100352 1.72208 0)
(-0.00338502 1.66937 0)
(0.979536 0.0133609 0)
(0.949491 0.00992749 0)
(0.929228 -0.00236538 0)
(0.938489 0.0162073 0)
(0.895449 0.0175128 0)
(-0.0152068 3.04524 2.20708e-17)
(-0.00573205 2.97941 0)
(-0.0265904 3.02639 0)
(0.0247904 3.03612 -7.38311e-23)
(-0.000767643 3.02176 3.90583e-17)
(0.0165022 3.00945 0)
(0.00346169 2.95406 0)
(0.00463138 2.96321 -1.74606e-23)
(0.00478579 2.89253 0)
(0.0115321 2.96863 0)
(0.00885023 2.86759 0)
(0.291082 3.23 0)
(-0.0674744 3.30753 0)
(0.106383 2.98797 5.8029e-18)
(-0.0021632 2.81787 0)
(-2.63873e-05 1.75326 0)
(-0.0031316 1.71105 3.13828e-17)
(-0.00322517 1.67207 3.27294e-17)
(0.70374 0.176183 -3.62852e-18)
(0.698639 0.10432 2.95408e-18)
(0.677851 0.20614 2.18486e-17)
(0.65657 0.168669 -7.07446e-18)
(0.201637 1.38665 0)
(0.295202 1.98233 -4.2959e-17)
(0.44181 1.90641 -3.44424e-17)
(0.996264 0.0076466 0)
(0.97101 0.0129052 0)
(0.999238 -0.00553146 0)
(1.00188 0.00140028 0)
(1.0038 0.0157602 1.43565e-16)
(1.00261 0.0106763 1.07121e-16)
(-0.00197929 1.71551 0)
(0.00362027 1.67527 0)
(-0.00256615 1.75038 0)
(-0.0113974 1.72269 0)
(-0.00249094 1.68221 0)
(0.0305144 0.265197 -2.88054e-18)
(0.204614 0.194316 0)
(1.00997 -0.0114887 0)
(0.986923 0.00239229 0)
(0.908533 0.0308688 0)
(0.883168 0.0279982 0)
(0.871399 0.00341552 0)
(1.10445 0.00993087 0)
(0.846686 0.0249148 0)
(0.794078 0.0184822 1.61693e-17)
(-0.0192614 2.877 1.91789e-17)
(0.00906031 2.9763 0)
(-0.0442713 3.01424 0)
(0.00299814 2.85597 0)
(-0.00687017 2.98446 -3.40877e-17)
(-0.00239393 2.92811 0)
(-0.0125702 2.98779 -7.34279e-18)
(-0.014273 2.94952 2.07416e-17)
(0.00610668 1.76715 0)
(0.00465022 1.76047 0)
(0.00528596 1.71062 1.11819e-21)
(-0.00041665 1.70929 0)
(0.00552561 1.66341 0)
(0.977335 0.0067614 0)
(0.955645 0.00754598 0)
(0.93934 -0.00890262 0)
(0.97645 -0.00228727 0)
(0.946721 -0.00661704 0)
(0.513379 1.15405 -3.52683e-18)
(0.644579 1.24915 0)
(0.395397 0.879059 -1.37093e-18)
(0.421013 0.678489 0)
(1.05683 1.27649 1.60675e-17)
(1.16268 1.04529 4.51713e-18)
(0.459161 1.92708 0)
(0.640044 1.7975 0)
(0.650735 1.76784 0)
(0.437801 0.771615 -4.82499e-18)
(0.57638 0.297695 0)
(0.590504 0.233323 -4.41447e-18)
(1.137 1.08145 0)
(1.20334 0.875004 0)
(1.2213 0.844773 -4.73405e-18)
(1.27075 0.690575 0)
(1.29754 0.501981 -2.73082e-17)
(0.97699 0.00449418 0)
(0.970492 -0.00241379 0)
(0.946833 0.00500586 0)
(0.998823 -0.00412004 0)
(0.980679 -0.00481187 0)
(0.970314 0.00121117 0)
(0.990987 -0.00304493 0)
(0.988171 -0.000874706 0)
(1.00074 -0.00171299 0)
(0.0182872 1.58769 2.75874e-17)
(0.0250003 1.53955 0)
(0.021213 1.62375 -4.28798e-18)
(0.0162038 1.60881 4.58716e-18)
(0.12899 1.92285 -4.10681e-17)
(0.0525367 1.82922 0)
(0.110166 1.82416 0)
(-0.00519757 1.73435 0)
(0.000895403 1.64929 0)
(-0.00702642 1.70233 3.09056e-20)
(0.00073088 1.66564 0)
(-0.00461625 1.70347 -3.04217e-17)
(0.00608358 1.66616 -2.72085e-18)
(-0.000808724 1.72839 0)
(-0.00544024 1.71971 0)
(0.00197506 1.65611 0)
(-0.00328998 1.72489 0)
(0.00323198 1.67314 0)
(1.01788 0.016135 0)
(0.996378 -0.00245683 0)
(0.997447 0.0113998 0)
(0.972059 0.00582755 0)
(0.935532 0.00229061 0)
(0.963174 0.00974164 0)
(0.959227 0.0032004 0)
(0.931152 0.000770467 0)
(0.0103808 3.04098 6.09528e-20)
(0.0158769 3.03524 0)
(0.0079038 2.99202 0)
(0.00474443 2.93484 0)
(1.00449 3.75107 0)
(1.36469 2.82545 -8.23905e-19)
(0.0137167 2.89399 0)
(-0.0153709 2.81114 0)
(0.00476223 1.7508 0)
(0.00312066 1.74453 0)
(0.000305673 1.74661 0)
(-0.00832098 1.77937 -7.2104e-17)
(-0.00413728 1.76106 0)
(-0.00385438 1.77198 0)
(0.00613221 1.66417 -6.40467e-17)
(0.00644184 1.70809 -3.29728e-17)
(-0.00612617 1.70762 3.11617e-17)
(0.000728097 1.66499 0)
(0.732744 0.131613 -1.89568e-17)
(0.717753 0.0669738 -9.55287e-18)
(0.189203 1.38695 0)
(0.262716 1.3245 9.83585e-19)
(0.134479 1.4435 -2.44277e-17)
(0.12321 1.43416 -3.08919e-17)
(0.935062 0.00578653 0)
(0.978017 0.00852362 0)
(0.986204 0.0191665 0)
(0.952898 0.017135 0)
(0.00349085 1.72471 0)
(0.00647407 1.72022 0)
(0.00540507 1.67867 0)
(0.358808 0.335132 -2.90307e-18)
(0.244094 0.314505 2.82974e-18)
(0.341994 0.218372 0)
(1.19999 0.10004 -7.36131e-19)
(1.20076 0.0498006 0)
(1.10653 0.054474 0)
(1.04333 0.00479408 0)
(0.755959 0.102841 0)
(0.788389 0.0809964 3.84688e-17)
(0.746453 0.0589493 -2.30894e-17)
(-0.0115903 2.95993 -3.40142e-17)
(-0.00679951 2.90441 -5.44016e-17)
(0.00748645 3.02954 1.1929e-19)
(0.0334809 3.01642 -3.61592e-17)
(-0.0168354 3.00023 -2.3905e-19)
(-0.0143186 2.97794 9.24354e-22)
(-0.0125853 3.02869 -1.90546e-18)
(-0.003626 2.99041 -8.72308e-18)
(0.0490858 3.01983 -2.63504e-17)
(0.997487 0.00461027 0)
(0.990237 0.0114269 0)
(0.966967 0.00504608 0)
(0.968645 0.00825776 0)
(0.966868 -0.00469856 0)
(0.933224 -0.00149703 0)
(0.967278 0.000352496 0)
(0.966149 -0.00328952 0)
(0.936867 -0.00741219 0)
(0.736767 1.43938 4.46765e-18)
(0.843425 1.52576 0)
(0.351247 0.453313 1.08923e-18)
(0.459804 0.741671 -4.59079e-18)
(0.430288 0.752456 -1.09105e-17)
(0.369863 0.497563 -1.91161e-17)
(0.442051 1.0399 -2.62158e-18)
(0.441216 0.951623 1.79702e-17)
(0.658748 0.243635 -1.30777e-17)
(0.613775 0.280144 -3.84955e-18)
(0.624769 0.21136 3.17448e-18)
(1.29852 0.514298 -2.24729e-17)
(1.30412 0.320872 5.22654e-18)
(0.0124477 1.66191 -3.30596e-17)
(0.0060799 1.64476 0)
(1.05484 0.0281472 0)
(1.02651 0.0132267 0)
(1.01154 0.00127142 0)
(0.0140537 3.04875 0)
(0.0131124 2.96967 -3.69421e-17)
(0.0103415 2.98189 0)
(0.00441478 2.91424 -1.83957e-17)
(0.0112634 3.06194 1.36619e-17)
(0.0110533 3.0555 0)
(0.829347 1.77065 -3.7654e-18)
(1.22183 2.37461 -7.56216e-18)
(0.918794 1.86755 -1.6718e-17)
(-0.0244042 2.92575 3.35859e-17)
(-0.0216348 2.89136 0)
(-0.0229025 2.84307 0)
(-0.00892138 1.70035 6.35963e-17)
(0.00340897 1.69655 1.9595e-18)
(-0.00970014 1.65387 6.35027e-17)
(0.248585 1.33788 -1.64424e-17)
(0.323264 1.28385 -1.06954e-17)
(0.0327468 1.55521 -3.15402e-17)
(0.0762872 1.50119 -2.54708e-17)
(0.0584713 1.49711 -5.73607e-17)
(-0.0236408 3.07539 1.24508e-16)
(-0.00944626 3.07175 9.19592e-17)
(0.0048272 2.98586 2.11827e-17)
(-0.00741391 2.98068 -2.05282e-17)
(0.000448233 2.93067 3.42771e-17)
(0.0167153 3.06817 -7.8711e-17)
(-0.0051292 3.06096 -1.29259e-16)
(0.506578 0.940721 0)
(0.514842 0.823897 -1.33614e-18)
(0.403667 0.573394 -1.74962e-17)
(0.418977 1.14343 2.78362e-17)
(0.422703 1.09675 2.61092e-17)
(1.28092 0.206705 -3.0968e-18)
(1.31366 0.358984 0)
(1.28012 0.183389 2.64803e-18)
(-0.00731228 1.70184 3.07717e-20)
(0.00161169 1.68813 0)
(-0.00323379 1.66336 0)
(0.301182 1.28496 1.45082e-18)
(0.357321 1.21341 -2.97046e-17)
(0.379253 1.21461 -3.05892e-17)
(1.00277 -0.0248806 0)
(0.999574 -0.00884376 9.93244e-18)
(0.00175974 1.76961 0)
(-0.00971255 1.78738 0)
(1.00378 -0.00116713 4.42591e-19)
(1.00589 0.00155865 1.11915e-17)
(-0.00234988 1.77657 -7.16633e-17)
(-0.00254029 1.77998 0)
(-0.0140079 2.98608 2.06039e-17)
(0.325722 3.03847 0)
(1.11876 0.709588 -2.38512e-17)
(1.00047 0.00624798 8.01561e-17)
(1.0018 -0.00139203 0)
(1.00681 -0.00393096 3.36609e-19)
(0.0243098 1.86628 0)
(0.0243617 1.66201 0)
(0.00106239 1.79677 0)
(0.0217927 1.73955 -7.24517e-17)
(-0.000385139 1.75079 6.94952e-17)
(0.986596 0.0190815 7.85648e-17)
(1.03275 0.0136419 0)
(1.05658 0.0323716 0)
(0.0122285 1.75489 0)
(0.0121025 1.756 0)
(-0.00687489 1.77462 0)
(0.152215 1.90975 -8.08737e-17)
(1.0071 -0.0187859 0)
(1.00541 -0.022239 0)
(0.999831 0.00180516 -2.22431e-17)
(0.994118 -0.00503763 2.80118e-17)
(0.998235 -0.00442693 0)
(0.00658607 1.7483 0)
(0.00473793 1.76575 0)
(0.00885164 1.74836 0)
(-0.00211389 1.77887 0)
(-0.0166125 1.77488 0)
(-0.00834761 1.77422 0)
(1.01392 0.00367523 0)
(1.00718 0.00581349 8.03194e-17)
(0.755529 1.33416 6.46485e-19)
(1.00016 -0.00538849 2.25801e-17)
(0.997199 0.00256481 -2.77578e-17)
(1.00387 0.00343094 0)
(0.996921 0.0102666 3.11627e-17)
(1.00522 0.00775145 5.00746e-17)
(0.999834 0.00309782 0)
(0.0125577 1.76458 0)
(0.00331048 1.76951 -3.68241e-17)
(-0.000148237 1.76536 -3.19912e-17)
(1.13749 0.257361 -6.22968e-17)
(1.08697 0.0858577 0)
(-0.208815 2.98608 3.14613e-17)
(-0.231723 3.19354 8.86871e-19)
(-0.0204829 3.03408 3.90175e-17)
(-0.0286969 2.9876 3.61849e-17)
(0.0528359 2.9646 0)
(-0.0246469 3.03615 1.12981e-17)
(-0.0815049 3.13141 1.77545e-17)
(-0.0733259 3.02343 1.96413e-17)
(-0.0513818 3.10162 0)
(0.646337 0.345384 0)
(0.517697 0.385738 0)
(1.07533 0.809971 2.47527e-17)
(1.05594 0.872919 4.00361e-17)
(1.1312 0.621871 0)
(1.14273 0.573678 0)
(1.00497 0.00419233 1.89526e-17)
(1.00566 0.0037002 -2.08347e-17)
(1.0066 0.00111877 0)
(1.00899 -0.000384663 0)
(1.01067 0.00264318 0)
(1.01062 0.0122238 0)
(1.01043 0.000233151 0)
(1.00826 0.012151 0)
(1.00485 0.00767992 0)
(0.996244 0.00551622 0)
(0.0295775 1.86007 0)
(0.00378178 1.86103 0)
(0.062973 1.88252 0)
(0.0370465 1.89814 0)
(0.0195921 1.64426 0)
(0.0110632 1.6419 3.43926e-17)
(0.0426785 1.66809 0)
(0.0340036 1.66956 2.96146e-17)
(0.0292561 1.6969 -6.43524e-17)
(-0.00579186 1.80034 0)
(0.00259154 1.79605 0)
(0.00820516 1.80617 0)
(-0.000896647 1.82492 0)
(0.0308479 1.76644 -6.96786e-17)
(-0.0152603 1.74152 -4.68463e-17)
(0.0224878 1.74716 3.39941e-17)
(0.00411573 1.75618 0)
(0.0233234 1.75447 3.17155e-17)
(0.011547 1.75932 -6.63321e-17)
(-0.00354963 1.78281 -1.09465e-16)
(-0.00476392 1.73269 -4.31209e-17)
(0.021352 1.74361 3.8388e-17)
(0.991032 0.0188467 -1.33721e-17)
(0.997958 0.00362116 1.85833e-17)
(0.986936 0.0291609 1.7659e-17)
(0.972948 0.0193913 -1.76257e-17)
(1.03073 0.00676529 0)
(1.03579 0.00312075 0)
(1.04536 0.0315632 0)
(1.03298 0.0169796 0)
(1.04672 0.0147811 0)
(1.07727 0.0673352 0)
(1.06304 0.0564805 0)
(1.08096 0.0408975 0)
(-0.000996642 1.77411 9.42065e-18)
(0.0179529 1.74152 0)
(-0.00840903 1.75489 0)
(0.0042772 1.75654 -1.44299e-17)
(0.0081639 1.7596 3.67188e-20)
(0.00283447 1.77638 4.1236e-17)
(-0.00922432 1.76532 4.24966e-17)
(0.00182433 1.76913 0)
(-0.0262387 1.77281 0)
(-0.00810989 1.76605 0)
(0.00233589 1.77828 0)
(-0.00113949 1.7835 0)
(0.266373 1.89293 -4.86741e-17)
(0.290529 1.8589 4.08e-17)
(0.2858 1.49699 4.92777e-19)
(0.138127 1.5684 2.63638e-17)
(0.191996 1.72881 3.387e-17)
(1.00134 -0.0126572 0)
(1.00196 -0.0178215 0)
(0.999139 -0.0190601 0)
(1.01527 -0.00442492 0)
(0.998612 -0.00951864 0)
(0.988495 -0.00681475 0)
(0.998713 -0.0136286 0)
(0.994811 -0.00619194 0)
(1.00729 0.00217484 -1.37516e-17)
(1.01282 -0.00128251 2.01116e-17)
(1.00636 0.00881131 1.81306e-17)
(1.00276 0.00612514 -1.95119e-17)
(0.697953 1.46183 0)
(0.626135 1.5278 -6.94583e-17)
(0.83603 1.28132 6.96201e-17)
(0.899961 1.22328 5.99255e-17)
(0.946901 2.21674 -3.00777e-17)
(0.819056 0.12075 -2.15931e-17)
(1.09696 0.127851 0)
(1.14719 0.191974 -8.42963e-17)
(1.14626 0.137814 3.36631e-19)
(0.953246 0.131307 0)
(-0.0752359 2.72131 4.60449e-17)
(-0.339976 2.6376 7.16022e-17)
(-0.751572 2.6734 3.2908e-18)
(-0.572439 0.242003 -9.5881e-18)
(0.230906 3.01736 -1.54594e-17)
(0.0673756 2.99561 0)
(0.155608 2.98516 -6.19116e-18)
(0.0349043 2.71756 8.13666e-17)
(0.201648 2.74848 0)
(-0.0199256 3.06308 -5.95634e-19)
(-0.0324211 3.07209 -1.9269e-17)
(-0.00585025 3.1013 -3.23743e-17)
(-0.0316327 3.11423 0)
(-0.045749 3.05877 0)
(1.15251 2.24305 0)
(0.578716 1.06314 4.84311e-17)
(1.00321 1.05107 -3.45938e-17)
(0.958485 1.15702 0)
(0.827271 1.0498 -1.21445e-17)
(1.03999 1.00172 -5.83705e-17)
(0.187664 0.40977 1.85497e-18)
(0.659973 0.346625 1.1401e-17)
(0.692993 0.316592 1.0282e-17)
(0.468646 0.453136 -5.03128e-20)
(0.439464 0.401916 6.49931e-18)
(0.608211 0.388993 0)
(0.597085 0.472613 7.64572e-18)
(0.611637 0.429215 0)
(0.534024 0.422622 0)
(0.586286 0.366519 0)
(0.712118 0.659431 2.94108e-17)
(1.15283 0.326459 4.12493e-17)
(1.16411 0.455293 0)
(1.18212 0.385885 0)
(0.764901 0.232148 1.60624e-17)
(0.737724 0.635318 3.59053e-17)
(0.629409 0.557619 7.32085e-18)
(0.869392 0.433764 -7.24663e-17)
(1.01001 -0.00322791 2.69695e-17)
(1.00684 0.00890521 4.89996e-17)
(1.00857 0.00512244 0)
(1.01099 0.0143196 0)
(1.00391 0.000996331 -2.64469e-17)
(1.00615 0.00240381 -4.67687e-17)
(1.00508 -0.00169019 0)
(0.997612 0.00190411 0)
(1.01402 0.0057632 0)
(1.01084 0.00204939 0)
(1.01611 0.00538737 0)
(1.01347 0.00117158 0)
(0.0116023 1.8544 0)
(0.00988814 1.84662 0)
(0.051034 1.85804 -4.70291e-17)
(0.125187 1.9173 -3.60651e-17)
(0.0750777 1.92103 7.65922e-17)
(0.0639055 1.92347 2.81694e-17)
(0.0694332 1.85676 0)
(0.0810601 1.76439 7.07906e-17)
(0.0566243 1.76066 0)
(0.150456 1.72184 3.69982e-17)
(0.168505 1.64273 -4.50422e-17)
(0.0869195 1.78817 6.46334e-17)
(0.137126 1.84727 -3.72424e-17)
(0.0879299 1.84953 -4.0361e-17)
(0.12921 1.81077 -6.17439e-18)
(0.106523 1.76431 0)
(0.141129 1.75215 -5.19116e-17)
(0.0336169 1.72362 6.1543e-18)
(0.0306506 1.68491 0)
(0.0304137 1.69461 -7.09227e-17)
(0.0253341 1.6944 0)
(0.0416586 1.67377 3.36395e-17)
(0.030139 1.679 0)
(0.0289449 1.76062 5.27065e-17)
(0.047303 1.77086 0)
(0.0266127 1.786 0)
(0.0162721 1.78249 4.8577e-17)
(0.00240416 1.72409 -1.11236e-16)
(0.0328567 1.71141 -6.79292e-17)
(0.00823022 1.7255 -2.1159e-20)
(0.00253061 1.75027 7.19733e-17)
(-0.0127071 1.77762 -3.77112e-17)
(0.000636764 1.79078 0)
(-0.00697205 1.79542 0)
(0.0340018 1.76724 2.6838e-17)
(0.0242291 1.79319 2.25941e-17)
(0.0328117 1.77583 5.94418e-17)
(0.0330667 1.76688 0)
(0.0039123 1.74919 9.82526e-17)
(-0.00391136 1.75274 1.5418e-17)
(0.0068017 1.75984 -1.81221e-17)
(0.00740864 1.76605 7.43492e-17)
(0.0153197 1.73122 -3.37554e-18)
(0.00422433 1.73992 -4.36808e-17)
(0.998234 0.00973555 4.81952e-17)
(0.99816 0.00206522 2.70805e-17)
(0.997529 0.00373376 0)
(0.984541 0.0651563 -6.92564e-17)
(0.96371 0.0421975 1.77633e-17)
(0.944807 0.0279431 -1.0654e-17)
(0.982236 0.101165 1.9765e-18)
(1.02096 0.00951674 0)
(1.02608 0.015119 -4.75266e-17)
(1.02946 0.00837457 -2.71048e-17)
(1.02056 0.0393857 3.30403e-18)
(1.02201 0.0258517 -1.08104e-17)
(0.998393 0.0343504 0)
(0.986016 0.0323322 6.60885e-19)
(0.995472 0.024643 0)
(0.994295 0.0287591 0)
(1.0054 0.0166464 0)
(0.999873 0.00742488 0)
(0.995789 0.024888 2.98835e-18)
(0.996917 0.0243353 3.04201e-17)
(1.01375 0.0362579 -4.67095e-18)
(0.992281 0.0258723 1.0747e-17)
(0.995092 0.0548248 2.4007e-17)
(1.0328 0.0526946 0)
(1.03327 0.0942098 0)
(0.011901 1.75747 -4.98576e-17)
(0.0303792 1.7366 -7.48845e-19)
(0.0074367 1.75149 0)
(0.017482 1.76643 -5.16356e-17)
(0.014725 1.77249 8.41152e-18)
(0.016071 1.76199 -3.66132e-18)
(0.00408767 1.75836 -7.39976e-17)
(0.0116362 1.7544 -1.11971e-19)
(0.0113856 1.75025 -5.00501e-18)
(-0.00321819 1.75453 3.27326e-17)
(0.00200467 1.76043 3.12813e-17)
(0.00857625 1.76642 -2.18785e-17)
(0.00381405 1.7664 -3.72711e-17)
(0.191855 1.79026 2.36888e-17)
(0.178649 1.79484 -9.5505e-18)
(0.562006 1.64228 -7.93305e-17)
(0.394595 1.80471 3.62889e-17)
(0.460472 1.71822 0)
(0.322322 1.48811 -3.91905e-18)
(0.359203 1.44412 -9.77391e-19)
(0.194508 1.5463 -6.9904e-18)
(0.194715 1.57755 -2.96893e-17)
(0.262334 1.58727 -2.87753e-17)
(0.271969 1.51866 0)
(0.203877 1.5396 -1.11257e-17)
(0.061133 1.61345 -1.3513e-18)
(0.114805 1.59282 5.87104e-17)
(0.0457998 1.6005 8.94808e-18)
(0.718478 1.58869 -3.59697e-17)
(0.53533 1.4575 0)
(1.02066 -0.00377902 -3.08724e-19)
(1.00255 -0.00709279 3.50527e-19)
(1.006 -0.00610169 -5.72936e-18)
(1.02486 0.000130877 -1.6571e-17)
(1.02413 -0.000654619 0)
(0.537366 1.26867 0)
(0.545834 1.16441 0)
(0.71404 1.1649 0)
(0.654876 1.02681 0)
(0.940341 2.24617 2.74538e-17)
(0.850844 2.02063 0)
(0.522514 2.2839 -1.06615e-18)
(0.432761 1.98562 0)
(0.501286 2.08581 7.17352e-17)
(0.561709 2.11776 6.25604e-17)
(0.817817 0.150825 0)
(0.803639 0.158548 -1.46595e-18)
(0.883127 0.128113 5.60809e-18)
(0.829396 0.118581 -2.61465e-17)
(0.834564 0.0944886 2.69815e-18)
(1.00222 0.238478 -2.13631e-17)
(0.882601 0.315799 2.71282e-17)
(0.838599 0.291 2.17112e-17)
(0.926459 0.218133 9.48532e-18)
(0.894559 0.161625 4.18941e-17)
(0.883946 0.176352 -1.08513e-17)
(0.890538 0.243594 2.60162e-18)
(0.870874 0.209711 0)
(0.945049 0.179373 1.87898e-17)
(0.977706 0.172345 0)
(0.962961 0.233748 0)
(1.04046 0.127607 -1.32247e-17)
(0.993723 0.176786 2.98548e-17)
(0.989836 0.211235 2.09725e-17)
(1.05391 0.210141 0)
(0.995099 0.0291811 -3.74419e-17)
(0.997848 0.0314719 2.56505e-17)
(1.00089 0.0359396 -2.21599e-17)
(1.01048 0.0519733 4.30033e-17)
(0.988984 0.0605034 -4.93095e-17)
(0.921121 0.1267 0)
(0.943071 0.0778179 0)
(0.936029 0.050148 4.38325e-17)
(0.91201 0.0555065 7.60409e-18)
(1.00347 0.110448 -3.96937e-17)
(1.00204 0.143288 -2.13522e-17)
(1.00558 0.154847 -1.19434e-17)
(0.985933 0.157609 0)
(1.00834 0.100932 0)
(1.0043 0.0906671 3.54185e-17)
(0.999979 0.0944644 -2.26088e-17)
(0.60291 1.52528 2.43107e-17)
(0.685259 2.00635 -1.84621e-17)
(0.935857 2.42269 2.00824e-17)
(1.03536 2.62376 -2.68591e-18)
(1.02216 2.34325 -2.16098e-17)
(1.11703 2.35596 3.49794e-18)
(1.05738 2.03795 7.82136e-18)
(1.04419 2.54171 -1.30904e-17)
(1.02591 2.53988 -1.64296e-17)
(1.10312 2.70369 -2.1171e-18)
(1.22232 2.56066 3.1762e-18)
(1.2932 2.47855 0)
(0.553908 1.10162 -3.09954e-18)
(-0.189489 1.41437 -1.47834e-17)
(0.0306152 0.63104 -7.65155e-18)
(-0.129615 0.819571 -1.78926e-17)
(0.362157 0.45359 -9.62962e-18)
(0.374828 0.503646 4.77842e-18)
(0.321506 0.594539 -7.7126e-18)
(0.228268 0.490921 3.02385e-18)
(0.337205 0.390184 -8.332e-18)
(0.745663 0.268337 2.39271e-17)
(0.701505 0.307688 0)
(0.728572 0.274642 5.84265e-18)
(0.60293 0.560444 -1.19688e-17)
(0.527749 0.534911 1.55218e-17)
(0.426849 0.590222 -5.58543e-18)
(0.507374 0.484621 0)
(0.607164 0.910568 -2.44674e-17)
(0.77032 0.861148 4.38569e-17)
(0.710417 1.01676 5.03291e-17)
(0.802751 0.853383 1.33229e-17)
(0.918548 0.905496 -3.85083e-18)
(0.906955 0.93537 -5.65433e-18)
(0.774979 0.735277 6.82302e-18)
(0.835924 0.773063 8.90476e-18)
(0.940633 0.813821 0)
(0.938996 0.716663 2.54761e-17)
(0.936463 0.329034 4.75692e-17)
(1.0646 0.319305 -2.05127e-17)
(0.984966 0.287814 -4.89739e-17)
(0.905635 0.398174 4.68201e-17)
(0.980471 0.451454 0)
(1.019 0.426272 0)
(0.774914 0.399016 4.78302e-17)
(0.789273 0.293631 0)
(0.788829 0.290906 -1.49978e-17)
(0.823275 0.317436 6.51313e-17)
(0.828883 0.494556 -8.7365e-17)
(0.76814 0.562377 -1.80822e-18)
(0.791529 0.509354 8.95193e-18)
(0.715842 0.469089 -2.74607e-18)
(0.700616 0.485794 -6.46291e-18)
(0.645536 0.46591 -4.1376e-20)
(1.01731 0.0166377 -4.72657e-17)
(1.01374 0.00212762 0)
(1.02008 0.0139362 8.81425e-18)
(1.00972 0.0209678 -1.04711e-17)
(1.0148 0.00997201 -2.43032e-17)
(1.00895 0.0148079 5.82101e-18)
(1.00172 0.00726911 0)
(1.00541 -0.0037555 1.30728e-17)
(1.01563 0.0059224 -2.37826e-18)
(1.01112 0.00211393 -2.34731e-18)
(1.01115 0.00273689 7.76148e-18)
(-0.00795164 1.82184 0)
(0.0105271 1.81034 0)
(0.0186943 1.83494 0)
(-0.000533122 1.83068 0)
(0.0446494 1.82907 -7.42017e-18)
(0.0389455 1.84531 -1.02335e-16)
(0.0395545 1.77528 -3.06488e-17)
(0.0417427 1.84764 -8.26381e-17)
(0.0214495 1.79499 5.56721e-17)
(0.0361558 1.81363 5.77015e-17)
(0.0371664 1.83261 1.14638e-16)
(0.0267052 1.83226 5.58143e-17)
(0.0153274 1.81537 9.81108e-18)
(0.00598307 1.82417 1.55822e-18)
(0.0378294 1.69378 -6.49046e-17)
(0.054039 1.70038 0)
(0.0425786 1.72247 -3.9441e-17)
(0.0394454 1.76481 -5.37892e-18)
(0.100292 1.6985 -1.6741e-17)
(0.0756733 1.61546 0)
(0.0824156 1.61549 5.36179e-17)
(0.109557 1.62814 4.55788e-17)
(0.0788879 1.70493 -5.83894e-17)
(0.063861 1.71537 -7.92829e-17)
(0.0307624 1.63244 0)
(0.0297823 1.75069 3.22558e-17)
(0.0222473 1.72243 -1.93218e-17)
(0.02565 1.74613 0)
(0.0378322 1.7262 2.00824e-17)
(0.0251012 1.73029 1.59943e-17)
(0.00346479 1.77827 8.96619e-18)
(-0.00159433 1.77599 -9.39241e-17)
(-0.0101445 1.77179 -6.36465e-17)
(-0.0169614 1.76675 4.38453e-17)
(0.00268597 1.75681 0)
(0.0164818 1.77967 0)
(0.00663786 1.77914 -3.77687e-17)
(0.00179673 1.77007 -3.35692e-18)
(0.0074628 1.77754 0)
(-0.00351881 1.78899 3.13512e-17)
(0.00116027 1.78188 1.53817e-18)
(1.0085 0.0275427 0)
(1.01063 0.0274972 4.65938e-19)
(0.997093 0.0181024 4.39797e-17)
(1.01272 0.0198238 0)
(1.00943 0.0142282 0)
(1.00332 0.00100542 2.04263e-17)
(1.00475 0.00830676 -5.46729e-17)
(0.999946 0.00415547 -1.96002e-17)
(1.00059 0.00324237 0)
(1.00769 0.00752783 0)
(0.998543 0.0149465 2.64381e-17)
(0.996117 0.0159329 0)
(1.0052 0.0115724 0)
(-0.00675672 1.75592 0)
(0.00445774 1.76669 -3.94886e-17)
(0.00696346 1.74762 4.06221e-17)
(0.00471575 1.76677 0)
(0.0080471 1.7756 -3.75378e-17)
(0.000790054 1.77343 -1.7971e-17)
(-0.00227357 1.77115 0)
(0.243057 1.89682 0)
(0.133834 1.81686 2.50326e-17)
(0.152755 1.79795 0)
(0.157225 1.77795 7.52287e-17)
(0.256067 1.66554 0)
(0.225129 1.7691 3.39917e-17)
(0.76179 2.04554 -2.24777e-19)
(0.728495 1.63757 -2.29429e-17)
(0.766569 1.6204 -2.30727e-17)
(0.568391 1.4841 -8.22614e-18)
(0.505052 1.78438 0)
(0.550236 1.8722 0)
(0.685188 1.55395 0)
(0.648968 1.45698 -1.4883e-18)
(0.319081 1.90166 -3.56132e-17)
(0.440776 1.77679 3.97542e-18)
(0.379741 1.95904 2.20005e-18)
(0.418577 1.45189 0)
(0.490061 1.44964 0)
(0.466769 1.42818 1.23025e-18)
(0.434391 1.67208 0)
(0.752033 1.02152 0)
(0.690314 1.07875 -5.81232e-17)
(0.700681 1.01657 -5.5581e-18)
(0.665145 1.08593 0)
(0.721517 1.17584 -7.19936e-17)
(0.741142 1.03406 -8.80324e-18)
(0.777187 1.12138 0)
(0.783541 1.06452 -2.95626e-17)
(0.762232 1.07378 0)
(0.705859 1.04799 0)
(0.862464 2.40882 1.45662e-17)
(0.886916 2.47832 -8.53902e-18)
(0.704349 2.31916 -3.9639e-17)
(0.643534 2.27532 -2.37597e-18)
(0.840706 2.28913 0)
(0.766265 2.27394 -5.23195e-18)
(0.815407 2.07922 -3.72568e-18)
(0.796048 1.88147 -7.29241e-18)
(0.363075 2.01196 0)
(0.404775 1.43547 3.05466e-17)
(0.432909 1.42749 0)
(0.834926 0.202215 0)
(0.797764 0.194464 0)
(0.772902 0.199754 0)
(0.830808 0.242734 -5.39343e-18)
(0.77426 0.227351 3.76957e-18)
(0.915461 0.0803903 1.39241e-17)
(0.900363 0.11944 0)
(0.875138 0.099712 -1.25324e-18)
(0.853781 0.0836232 -6.63664e-18)
(0.869561 0.0567474 -3.56256e-18)
(1.09139 2.82579 -1.58955e-17)
(1.04447 2.74087 0)
(0.991095 2.88539 -5.30369e-17)
(0.641247 3.08666 -2.70467e-17)
(0.795389 2.6037 1.29349e-17)
(0.557228 1.24889 -2.58393e-17)
(0.665796 1.13038 0)
(0.289788 0.852274 6.83264e-18)
(0.306632 0.9709 3.71692e-17)
(0.202288 0.817843 9.94655e-18)
(0.278957 0.641414 4.4449e-18)
(0.494377 0.60954 -9.69519e-18)
(0.53889 0.646325 0)
(0.484438 0.785794 0)
(0.368219 0.752424 0)
(0.922319 0.66904 9.30729e-18)
(0.836576 0.596911 8.96751e-18)
(0.837955 0.631269 -4.40944e-18)
(0.859175 0.531223 2.09596e-17)
(0.96399 0.5476 0)
(0.95105 0.595724 -9.70249e-18)
(0.749705 0.429996 1.21157e-17)
(0.761862 0.38385 2.71366e-17)
(0.686958 0.416889 -5.65619e-18)
(0.686616 0.400794 3.88963e-18)
(0.762446 0.350486 -7.13117e-18)
(0.722827 0.341057 -1.75213e-17)
(1.01596 0.00381186 -3.47325e-17)
(1.01496 -0.00162202 -3.69634e-17)
(1.02177 0.0159255 3.2598e-17)
(1.01715 0.0160156 5.11042e-17)
(1.0029 0.0234 0)
(0.995311 0.00820919 -9.25317e-18)
(0.0528769 1.76549 2.48647e-17)
(0.0496237 1.7837 0)
(0.0403696 1.76269 -4.56275e-17)
(0.0360918 1.76189 -5.31334e-17)
(0.030596 1.7782 -3.50802e-17)
(0.0382576 1.79222 0)
(0.0253003 1.77561 0)
(0.0133513 1.76977 -1.82161e-17)
(0.00371145 1.75762 -1.89667e-17)
(-0.00225353 1.76633 -4.68624e-17)
(-0.00830379 1.75979 -9.32518e-18)
(0.0243538 1.76454 -4.16016e-18)
(0.292622 1.90948 -1.03397e-16)
(0.231045 1.90573 -1.24639e-16)
(0.190279 1.77735 7.35506e-17)
(0.18774 1.91283 -4.76802e-18)
(0.444111 1.37117 0)
(0.309988 1.61047 7.35717e-17)
(0.37592 1.46771 6.275e-17)
(0.20369 1.61543 6.25495e-17)
(0.270046 1.60955 0)
(0.353651 1.40341 0)
(0.318447 1.83237 -4.62268e-17)
(0.351252 1.60008 -6.45871e-17)
(0.396925 1.65652 -5.10611e-17)
(0.317288 1.58353 -1.92999e-18)
(0.265096 1.73865 1.47556e-18)
(0.256568 1.58925 -1.71307e-17)
(0.755701 1.75665 -8.80182e-18)
(0.791622 1.8935 0)
(0.790558 1.73826 5.70157e-18)
(0.787136 2.17132 0)
(0.753209 2.12446 0)
(0.678342 1.97956 -1.15627e-18)
(0.989261 2.55217 -1.74539e-18)
(0.881994 2.50834 -2.28729e-18)
(0.180413 1.21346 0)
(0.252082 1.18464 -1.35363e-17)
(0.564587 1.14307 -3.28151e-17)
(0.438349 1.86081 0)
(0.400987 2.33137 5.49028e-18)
(0.219094 2.27067 0)
(0.645053 0.843739 -1.11989e-17)
(0.671925 0.817781 -4.88348e-17)
(0.687698 0.756686 -1.8395e-17)
(0.526012 0.802251 -1.40913e-18)
(0.589318 0.695005 2.61739e-18)
(0.928888 2.35254 -1.06831e-17)
(0.965548 2.3858 -5.87879e-18)
(0.760923 1.98912 6.84055e-18)
(0.79974 1.72976 2.9326e-17)
(0.850668 1.92737 3.93639e-17)
(0.945252 2.17519 -2.75623e-17)
(0.878767 2.24361 -1.99214e-17)
(0.855834 1.76878 5.30371e-19)
(0.785768 1.60495 2.98417e-17)
)
;

boundaryField
{
    wall-4
    {
        type            calculated;
        value           uniform (0 0 0);
    }
    velocity-inlet-5
    {
        type            calculated;
        value           uniform (1 0 0);
    }
    velocity-inlet-6
    {
        type            calculated;
        value           uniform (0 3 0);
    }
    pressure-outlet-7
    {
        type            calculated;
        value           nonuniform List<vector> 8((-0.00500495 1.72381 0) (-0.0119039 1.68304 5.41589e-17) (0.00538858 1.76654 0) (-0.0107597 1.79028 0) (7.59519e-05 1.75302 0) (0.00493185 1.76024 0) (0.000363444 1.74636 0) (-0.00373502 1.77181 0));
    }
    wall-8
    {
        type            calculated;
        value           uniform (0 0 0);
    }
    frontAndBackPlanes
    {
        type            empty;
    }
}

