/*--------------------------------*- C++ -*----------------------------------*\
  =========                 |
  \\      /  F ield         | OpenFOAM: The Open Source CFD Toolbox
   \\    /   O peration     | Website:  https://openfoam.org
    \\  /    A nd           | Version:  6
     \\/     M anipulation  |
\*---------------------------------------------------------------------------*/
FoamFile
{
    version     2.0;
    format      ascii;
    class       volVectorField;
    location    "0";
    object      U_rec;
}
// * * * * * * * * * * * * * * * * * * * * * * * * * * * * * * * * * * * * * //

dimensions      [0 1 -1 0 0 0 0];

internalField   nonuniform List<vector> 
918
(
(0.992224 -0.00125759 0)
(-0.0225205 3.00536 0)
(0.00368868 1.73332 0)
(0.984271 0.00431861 0)
(-0.0182808 1.69034 5.36114e-17)
(0.0124788 2.99859 6.41105e-18)
(1.02119 1.48989 1.02367e-17)
(0.498414 0.278148 4.36902e-19)
(1.00293 0.0005578 0)
(0.0221558 1.71016 0)
(0.00108452 1.69474 0)
(0.921312 0.00635119 0)
(-0.00499416 2.99128 0)
(0.000103465 2.88421 0)
(0.000432316 2.96355 2.6415e-17)
(0.00599746 1.67597 3.31139e-17)
(0.686974 0.155716 -1.5387e-17)
(0.207585 1.98417 -2.89882e-17)
(0.993026 0.0168224 0)
(-0.000482154 1.69422 0)
(0.017167 0.0639455 1.45273e-17)
(0.995244 0.0112328 0)
(1.00753 0.0098654 0)
(1.00272 0.00600423 0)
(0.858454 -0.0100751 0)
(0.00800551 2.91021 0)
(-0.000944469 2.93786 -9.84984e-17)
(-0.0046839 1.74355 0)
(0.00823253 1.76436 0)
(-0.010056 1.75204 0)
(-0.0100632 1.78707 0)
(-0.00357588 1.71062 5.2916e-17)
(-0.0104899 1.6756 0)
(0.0275872 3.01224 1.80857e-21)
(0.0127444 3.02627 -7.85141e-17)
(0.0216808 3.02346 0)
(0.961206 0.00658719 0)
(0.403832 0.754788 -1.6188e-17)
(0.982293 1.53793 -2.27685e-17)
(1.10784 1.29292 3.38622e-17)
(0.846199 1.73568 7.45157e-18)
(0.879547 1.69994 2.1975e-17)
(0.530377 0.337406 -1.48073e-19)
(0.558146 0.261726 0)
(1.26297 0.647124 0)
(0.464998 0.33898 -8.49046e-19)
(0.450772 0.260334 1.7802e-18)
(0.954126 0.000771509 0)
(0.998514 0.00154611 0)
(1.00285 0.00210051 0)
(0.990952 0.00566334 0)
(0.98594 0.00574098 0)
(1.0034 0.0101159 0)
(0.0239153 1.59477 1.30324e-17)
(0.0328702 1.79387 0)
(0.0664908 1.75536 0)
(-0.00558068 1.76544 0)
(-0.00876332 1.69674 0)
(-0.00129996 1.6739 0)
(-0.00217504 1.73135 0)
(-0.00854445 1.69296 0)
(-0.00488198 1.73459 0)
(0.00475713 1.68989 0)
(0.990358 0.0140885 0)
(0.953278 0.0119048 0)
(0.936844 0.0019124 0)
(0.939644 0.0228817 0)
(0.903598 0.0194274 0)
(-0.0105302 3.0513 1.1207e-17)
(-0.0124453 2.98138 0)
(-0.0332078 3.04762 0)
(0.0124291 3.04466 -1.97708e-22)
(-0.0100927 3.01958 5.46884e-17)
(0.0217474 3.01398 0)
(0.0114656 2.95063 0)
(-0.000390511 2.95916 -4.37277e-23)
(0.00501223 2.88625 0)
(0.0169942 2.96672 0)
(-0.0010072 2.87039 0)
(0.297086 3.27484 0)
(-0.0658808 3.3561 0)
(0.11646 3.02631 -2.41058e-18)
(0.00446241 2.83292 0)
(-0.000559241 1.75172 0)
(0.000274686 1.72016 2.99776e-17)
(0.0025122 1.68817 3.34541e-17)
(0.710771 0.178896 1.12369e-18)
(0.708188 0.117423 7.52101e-18)
(0.698946 0.207422 3.54291e-17)
(0.668967 0.181582 1.91225e-18)
(0.190509 1.40109 0)
(0.322503 2.06471 -4.69321e-17)
(0.453411 2.01443 -2.65105e-17)
(0.99805 0.0139954 0)
(0.967398 0.0261816 0)
(1.00179 -0.0053361 0)
(1.00207 0.00303181 0)
(1.00861 0.0194326 2.00069e-16)
(0.999146 0.00898135 6.02407e-17)
(-0.00290925 1.72659 0)
(-0.0025109 1.69319 0)
(0.00743468 1.75655 0)
(-0.0136558 1.73645 0)
(0.00444235 1.70442 0)
(0.0535353 0.279887 -5.37351e-18)
(0.226543 0.203402 0)
(1.01058 -0.00866522 0)
(0.994134 0.00366886 0)
(0.913194 0.0198257 0)
(0.895795 0.0206865 0)
(0.894135 -0.00151929 0)
(1.11334 0.00927148 0)
(0.855218 0.0445356 0)
(0.793556 0.0433082 -6.22683e-18)
(-0.0348841 2.88138 7.68821e-18)
(-0.00174142 2.97543 0)
(-0.0514336 3.01794 0)
(-0.00895859 2.86323 0)
(-0.00276248 2.9849 -4.3909e-17)
(0.00285453 2.93124 0)
(-0.00641952 2.98711 2.425e-17)
(-0.0108084 2.94823 9.72297e-18)
(0.00670238 1.76169 0)
(0.00240071 1.75612 0)
(0.00922739 1.71999 2.52648e-20)
(-0.00574528 1.71664 0)
(0.00296803 1.67725 0)
(0.98574 0.00868763 0)
(0.967145 0.00748861 0)
(0.952128 -0.00879567 0)
(0.981026 0.00381732 0)
(0.955017 -0.00871948 0)
(0.476375 1.01249 2.47487e-18)
(0.523823 1.0827 0)
(0.489971 0.814063 -2.01899e-18)
(0.420635 0.538501 0)
(1.08393 1.32563 1.28662e-17)
(1.18624 1.06931 1.09501e-17)
(0.512757 2.0363 0)
(0.690753 1.91401 0)
(0.699903 1.89428 0)
(0.520566 1.01659 -1.97093e-18)
(0.596376 0.302995 0)
(0.607266 0.237012 -6.77895e-18)
(1.15872 1.11727 0)
(1.21134 0.901374 0)
(1.23326 0.860781 -1.15342e-17)
(1.26853 0.698231 0)
(1.2973 0.497505 -2.69684e-17)
(0.983748 -0.00146382 0)
(0.973656 0.00249752 0)
(0.956631 0.00501593 0)
(0.997742 -0.000494806 0)
(0.978751 -0.00332859 0)
(0.968778 0.00194223 0)
(0.993334 -0.00174905 0)
(0.990606 8.04911e-05 0)
(1.00343 -0.00122351 0)
(0.0234334 1.59206 2.30039e-17)
(0.0244663 1.54108 0)
(0.022989 1.64349 -1.20088e-17)
(0.00924147 1.63874 1.1784e-17)
(0.157054 1.97505 -4.47143e-17)
(0.0593382 1.84074 0)
(0.0876014 1.86017 0)
(-0.000926342 1.76048 0)
(0.00665147 1.68885 0)
(-0.0054519 1.70192 6.95851e-20)
(0.000906621 1.66934 0)
(0.00452379 1.71051 -2.78151e-17)
(-0.000509883 1.67847 -6.90904e-18)
(0.00282994 1.74752 0)
(-0.0109597 1.73825 0)
(-0.00521515 1.691 0)
(0.00468573 1.73346 0)
(0.00519725 1.69903 0)
(1.02312 0.00706439 0)
(0.995988 -0.00489514 0)
(1.00155 0.0148789 0)
(0.97706 0.0104233 0)
(0.944963 0.00531138 0)
(0.968412 0.00781276 0)
(0.96829 0.00349217 0)
(0.944706 -0.00630715 0)
(0.00529086 3.04682 1.57985e-19)
(0.0143041 3.0366 0)
(0.0150632 2.98791 0)
(0.00962315 2.92589 0)
(0.978783 3.79488 0)
(1.30615 2.84135 1.57642e-18)
(0.0235402 2.91168 0)
(-0.0176104 2.81095 0)
(-0.000578962 1.74836 0)
(-0.00397209 1.74558 0)
(-0.00390323 1.74639 0)
(-0.00708481 1.77829 -7.13389e-17)
(-0.00530583 1.76137 0)
(0.00088136 1.76831 0)
(0.00816016 1.68566 -6.32448e-17)
(-0.000194941 1.71902 -3.4021e-17)
(-0.00818029 1.72105 2.94696e-17)
(-0.00755651 1.68313 0)
(0.746778 0.135021 -2.60624e-17)
(0.730279 0.0680232 -2.20141e-18)
(0.194208 1.40548 0)
(0.262484 1.34706 2.62961e-18)
(0.127933 1.44215 -1.86065e-17)
(0.113025 1.43899 -3.5906e-17)
(0.938553 0.00350294 0)
(0.977271 0.00277216 0)
(0.982827 0.0217985 0)
(0.950356 0.0119059 0)
(0.00598389 1.73597 0)
(0.00532912 1.72827 0)
(0.00522032 1.69509 0)
(0.380289 0.34649 -1.0114e-17)
(0.258574 0.333484 1.12259e-17)
(0.364947 0.233576 0)
(1.20563 0.0985577 -1.66842e-18)
(1.20559 0.0531063 0)
(1.11463 0.0535882 0)
(1.05153 0.00790907 0)
(0.767002 0.0952552 0)
(0.786883 0.0852217 7.32252e-17)
(0.757736 0.0486658 -3.58609e-17)
(-0.0197514 2.96266 -4.39379e-17)
(-0.0177194 2.91 -5.3794e-17)
(0.0059756 3.03072 3.2092e-19)
(0.0398324 3.01521 -4.3419e-17)
(-0.0161787 2.9948 -5.9321e-19)
(-0.0196266 2.97558 2.35773e-21)
(-0.0203352 3.03549 4.44688e-18)
(0.000890501 2.99507 -1.29993e-17)
(0.0658856 3.02418 -1.83785e-17)
(1.00354 0.00702995 0)
(0.998828 0.0098654 0)
(0.977491 0.0057755 0)
(0.973337 0.00175514 0)
(0.975853 -0.00730761 0)
(0.946874 -0.0112814 0)
(0.973412 0.00567009 0)
(0.97236 -0.00300831 0)
(0.946666 -0.00372074 0)
(0.635079 1.29439 1.13206e-17)
(0.752454 1.39925 0)
(0.461799 0.659128 1.9306e-19)
(0.569837 0.871742 -1.188e-17)
(0.55913 0.809137 -6.24249e-18)
(0.411951 0.529322 -2.77625e-17)
(0.479123 1.18599 -1.63594e-17)
(0.504489 1.15708 1.52154e-17)
(0.667896 0.253454 -2.22805e-17)
(0.625796 0.279725 -6.23849e-18)
(0.631433 0.222993 -1.44084e-18)
(1.30097 0.514755 -1.50175e-17)
(1.30387 0.301088 1.28925e-17)
(-2.5359e-05 1.67413 -3.60625e-17)
(-0.00768492 1.65355 0)
(1.06261 0.0298456 0)
(1.02881 0.0172471 0)
(1.02313 0.0061987 0)
(0.0106893 3.05199 0)
(0.010759 2.96275 -5.08993e-17)
(0.0121192 2.97546 0)
(0.00730585 2.90383 -3.66973e-18)
(0.00680569 3.06155 9.96825e-18)
(0.00598888 3.05935 0)
(0.7156 1.66392 -5.67192e-18)
(1.16152 2.34527 -6.82068e-19)
(0.806185 1.79277 -2.27637e-17)
(-0.0294522 2.92841 4.35204e-17)
(-0.0171832 2.89837 0)
(-0.0305473 2.84435 0)
(-0.0132545 1.70252 6.27899e-17)
(0.0127561 1.70796 5.39573e-18)
(-0.00381092 1.66903 6.27057e-17)
(0.248644 1.3558 -2.16593e-17)
(0.322477 1.3187 -6.91106e-18)
(0.0324317 1.54689 -3.57984e-17)
(0.0740901 1.49639 -1.98831e-17)
(0.048978 1.48664 -5.66753e-17)
(-0.0293215 3.07282 1.45455e-16)
(-0.0178798 3.07019 6.37518e-17)
(0.00289342 2.98914 1.07524e-17)
(-0.0044163 2.98539 -9.95266e-18)
(0.00330119 2.93689 4.40564e-17)
(0.0134294 3.06902 -5.13701e-17)
(-0.0089639 3.05654 -1.54363e-16)
(0.533095 1.09898 0)
(0.573794 0.982558 1.32618e-17)
(0.518331 0.849025 -2.35857e-17)
(0.421085 1.26338 2.01481e-17)
(0.440091 1.23143 3.70657e-17)
(1.28593 0.20589 -6.76769e-18)
(1.3146 0.349327 0)
(1.28663 0.178604 6.55451e-18)
(-0.000336693 1.70197 7.43251e-20)
(-0.00431142 1.68889 0)
(0.000429047 1.66222 0)
(0.298837 1.33211 3.42028e-18)
(0.358001 1.30361 -2.48794e-17)
(0.390429 1.29565 -3.8428e-17)
(1.00198 -0.0315174 0)
(0.998715 -0.0121863 -1.24569e-18)
(0.00307449 1.76337 0)
(-0.00980508 1.78488 0)
(1.00447 -0.00240095 4.49699e-19)
(1.00938 -0.00209335 -1.08489e-17)
(-0.00755286 1.77272 -7.02346e-17)
(-0.00406093 1.77977 0)
(-0.00558093 2.99522 1.04496e-17)
(0.353626 3.10693 0)
(1.12688 0.688959 -2.00321e-17)
(1.00272 0.00369426 7.90817e-17)
(1.00193 0.00595406 0)
(1.00988 -0.00675652 3.31554e-19)
(0.0258696 1.86347 0)
(0.0621192 1.65469 0)
(0.00705158 1.78867 0)
(0.0228726 1.74772 -7.41692e-17)
(0.00690513 1.74231 6.67226e-17)
(0.98598 0.0204318 7.75114e-17)
(1.0298 0.00815721 0)
(1.05148 0.0344783 0)
(0.00210077 1.75698 0)
(0.00757647 1.7597 0)
(-0.00867387 1.77297 0)
(0.192734 1.9526 -8.44004e-17)
(1.00443 -0.024872 0)
(0.999004 -0.028221 0)
(1.00196 0.00111259 -3.5907e-17)
(0.991569 -0.00621433 4.43712e-17)
(1.00192 -0.00462092 0)
(0.000593015 1.74014 0)
(0.00752351 1.75691 0)
(0.00684995 1.7416 0)
(-0.00369291 1.78033 0)
(-0.0137616 1.76903 0)
(-0.00945563 1.77242 0)
(1.01252 0.00166235 0)
(1.00481 0.00830915 7.92426e-17)
(0.736054 1.42495 6.33201e-18)
(1.00411 -0.00580955 3.62394e-17)
(0.994318 0.00231582 -4.41568e-17)
(1.00715 0.00614102 0)
(0.997601 0.0103786 1.71485e-17)
(0.99939 0.00439652 6.59839e-17)
(0.993631 0.00162388 0)
(0.0066361 1.76967 0)
(-0.00338384 1.77106 -3.72208e-17)
(-0.00546043 1.77097 -3.08469e-17)
(1.13495 0.253595 -8.07843e-17)
(1.08531 0.0805131 0)
(-0.208452 2.9693 4.47282e-17)
(-0.222542 3.18323 1.75233e-18)
(0.0150741 3.02163 1.9029e-17)
(-0.0106412 2.99133 4.13897e-17)
(0.0793633 2.99623 0)
(-0.0258736 3.03206 6.69707e-18)
(-0.0618759 3.1267 4.45604e-18)
(-0.0646861 3.02389 2.7708e-17)
(-0.0525884 3.09647 0)
(0.649053 0.347251 0)
(0.538389 0.384264 0)
(1.04071 0.788902 1.38769e-17)
(1.04646 0.883613 5.32245e-17)
(1.1477 0.615437 0)
(1.15102 0.572948 0)
(1.0086 -0.00228852 4.44305e-17)
(1.01116 -0.000523689 -5.25232e-17)
(1.00982 0.00644337 0)
(1.01457 0.006637 0)
(1.01432 0.00504626 0)
(1.01113 0.0147727 0)
(1.01974 -0.00574296 0)
(1.01356 0.0165568 0)
(1.0118 0.0155118 0)
(1.00636 0.00951835 0)
(0.0275837 1.85652 0)
(0.00271843 1.85345 0)
(0.0764632 1.88603 0)
(0.0474103 1.90679 0)
(0.0488803 1.63779 0)
(0.0309878 1.62589 3.76453e-17)
(0.06857 1.6688 0)
(0.0424999 1.66648 2.61901e-17)
(0.0296892 1.70605 -5.90958e-17)
(0.00017451 1.79283 0)
(0.00643382 1.78682 0)
(0.0138338 1.79707 0)
(0.00475257 1.81917 0)
(0.0195234 1.76545 -6.63505e-17)
(-0.0158139 1.7406 -4.87251e-17)
(0.0219378 1.75082 3.04655e-17)
(0.00337811 1.75791 0)
(0.0327756 1.74971 3.55402e-17)
(0.0180694 1.75524 -6.28293e-17)
(-0.0117605 1.77673 -1.09752e-16)
(-0.0105535 1.72973 -3.92932e-17)
(0.0152049 1.74312 4.15786e-17)
(0.989723 0.0246818 -3.61818e-17)
(0.995436 0.00927187 4.74037e-17)
(0.985771 0.0218121 3.99384e-17)
(0.971054 0.0146719 -4.52762e-17)
(1.03151 0.00470764 0)
(1.0359 -0.00564827 0)
(1.04481 0.0305336 0)
(1.03391 0.0153296 0)
(1.04991 0.016586 0)
(1.07037 0.0704636 0)
(1.06168 0.0533121 0)
(1.07667 0.0409861 0)
(-0.00768888 1.78002 9.37684e-18)
(0.00504986 1.75112 0)
(-0.0211821 1.76019 0)
(0.00771354 1.76114 -1.50728e-17)
(0.0120413 1.76635 7.18305e-20)
(0.0102512 1.76064 3.96809e-17)
(-0.00703912 1.74697 4.28381e-17)
(0.000981634 1.76197 0)
(-0.0262476 1.76403 0)
(-0.00275111 1.75737 0)
(0.000855044 1.77488 0)
(-0.00350437 1.78246 0)
(0.328873 1.95419 -3.82671e-17)
(0.339832 1.95048 4.3565e-17)
(0.263929 1.47957 1.8889e-18)
(0.11761 1.54302 2.14822e-17)
(0.222194 1.64272 3.13463e-17)
(1.00155 -0.00340823 0)
(0.99379 -0.0210027 0)
(0.993433 -0.0182943 0)
(1.02545 -0.0038541 0)
(1.00313 -0.0125271 0)
(0.992375 -0.0131829 0)
(0.99424 -0.0132138 0)
(0.995582 0.00677067 0)
(1.00257 0.0078174 -3.80895e-17)
(1.01056 0.00473447 5.0889e-17)
(1.00387 0.00604311 4.19762e-17)
(1.00327 0.000428776 -4.92834e-17)
(0.671029 1.58211 0)
(0.615036 1.66753 -6.11363e-17)
(0.820235 1.33476 7.46652e-17)
(0.890367 1.25395 5.09493e-17)
(0.826516 2.08103 -4.86903e-17)
(0.828698 0.116369 -2.99653e-17)
(1.09821 0.123094 0)
(1.12514 0.190045 -6.71703e-17)
(1.14825 0.137826 1.01501e-18)
(0.95151 0.120942 0)
(-0.0472611 2.68341 3.45207e-17)
(-0.332064 2.60048 8.84179e-17)
(-0.756744 2.68042 -7.05691e-18)
(-0.597622 0.275979 -4.95222e-18)
(0.246777 3.08458 -2.10462e-17)
(0.10506 3.02674 0)
(0.19021 3.05662 1.62201e-18)
(0.066356 2.7342 1.05555e-16)
(0.26778 2.79795 0)
(-0.0169529 3.06132 -1.32643e-18)
(-0.0337104 3.06255 -1.07644e-17)
(-0.00460485 3.10303 -4.39277e-17)
(-0.021991 3.11113 0)
(-0.0495469 3.053 0)
(1.01101 2.2126 0)
(0.569951 0.951657 5.44046e-17)
(0.986933 1.06184 -3.91469e-17)
(0.948225 1.17474 0)
(0.76953 1.07854 -8.15588e-18)
(1.02227 0.990323 -5.76174e-17)
(0.194938 0.434873 1.27896e-17)
(0.65827 0.344411 1.12589e-17)
(0.690951 0.314098 4.82837e-18)
(0.480729 0.457666 -4.09364e-19)
(0.452013 0.405733 2.06565e-17)
(0.611902 0.390292 0)
(0.613287 0.470581 -1.40283e-18)
(0.625466 0.423295 0)
(0.546142 0.412177 0)
(0.593001 0.372986 0)
(0.726004 0.642873 2.18414e-17)
(1.16675 0.327187 5.64453e-17)
(1.15644 0.466034 0)
(1.18534 0.392249 0)
(0.76499 0.233904 7.61754e-18)
(0.744871 0.604785 4.07526e-17)
(0.645036 0.538261 -2.78068e-18)
(0.871001 0.436059 -5.88644e-17)
(1.00964 -0.00203496 9.9548e-18)
(1.01089 0.0024187 6.53594e-17)
(1.01129 0.00136077 0)
(1.01113 0.010677 0)
(1.00954 0.00235827 -1.0043e-17)
(1.01081 -0.001198 -6.20085e-17)
(1.00287 -0.00569756 0)
(0.992622 0.00150325 0)
(1.01392 0.00372927 0)
(1.01156 -0.00425952 0)
(1.01283 0.00843978 0)
(1.01182 0.00436645 0)
(0.0119547 1.84765 0)
(0.0153888 1.8424 0)
(0.0846861 1.86325 -4.15935e-17)
(0.166216 1.95398 -3.28105e-17)
(0.0939189 1.94735 8.14358e-17)
(0.0904898 1.96486 1.81395e-17)
(0.119523 1.87022 0)
(0.127594 1.73934 7.48238e-17)
(0.0926019 1.74843 0)
(0.186885 1.64698 3.94079e-17)
(0.166696 1.58044 -5.08983e-17)
(0.137933 1.77681 5.92384e-17)
(0.187268 1.86142 -3.40878e-17)
(0.136843 1.86276 -4.18565e-17)
(0.192422 1.82297 6.66705e-19)
(0.151653 1.74506 0)
(0.185206 1.73044 -5.61894e-17)
(0.0413041 1.73518 7.71231e-18)
(0.022235 1.68702 0)
(0.0282036 1.68937 -7.44145e-17)
(0.0325186 1.69711 0)
(0.0370191 1.66934 3.64569e-17)
(0.0150164 1.67534 0)
(0.0242002 1.75216 5.49212e-17)
(0.0396666 1.76242 0)
(0.0272021 1.77062 0)
(0.0152275 1.77587 4.449e-17)
(0.000404581 1.73332 -1.09744e-16)
(0.0352499 1.72436 -7.22096e-17)
(0.00752284 1.74052 -5.80307e-20)
(-0.00543384 1.74871 6.92728e-17)
(-0.0176687 1.77171 -3.81434e-17)
(0.00163586 1.78273 0)
(-0.0150547 1.78643 0)
(0.0255824 1.76084 2.17505e-17)
(0.0210722 1.78145 1.77429e-17)
(0.0330884 1.76202 6.43467e-17)
(0.0311634 1.7551 0)
(0.0158612 1.74544 9.98817e-17)
(0.00190157 1.74535 1.38547e-17)
(0.00665954 1.75165 -1.74462e-17)
(0.00234373 1.76365 7.52807e-17)
(0.0220203 1.72525 -2.65484e-18)
(0.0117299 1.73621 -4.61093e-17)
(0.999974 0.00325022 6.35317e-17)
(0.997257 0.00453414 1.11129e-17)
(0.999997 0.00211629 0)
(0.978314 0.0697347 -8.86345e-17)
(0.962311 0.0372817 3.95616e-17)
(0.937828 0.0243778 -3.46625e-17)
(0.975758 0.0927411 4.6904e-18)
(1.02324 0.0132527 0)
(1.02784 0.00823139 -6.2167e-17)
(1.03075 0.00743779 -1.13763e-17)
(1.01451 0.0408067 4.15372e-18)
(1.01868 0.0255713 -1.82994e-17)
(0.992246 0.0334182 0)
(0.979835 0.0317418 3.28073e-18)
(0.999859 0.0263727 0)
(0.992478 0.0303412 0)
(1.00434 0.0131219 0)
(1.00123 0.00289671 0)
(0.994854 0.019465 -2.53919e-18)
(0.9949 0.02411 4.2085e-17)
(0.996059 0.0288059 1.35488e-18)
(0.976607 0.020425 1.70235e-17)
(0.991238 0.0647127 1.10585e-17)
(1.03865 0.0567474 0)
(1.03676 0.0995107 0)
(0.0258592 1.75919 -4.77928e-17)
(0.0260382 1.73512 -6.25655e-19)
(0.0139683 1.74444 0)
(0.0164193 1.77096 -5.22454e-17)
(0.00282868 1.78115 8.09474e-18)
(0.0102861 1.76803 -3.3875e-18)
(0.00830705 1.75378 -7.51558e-17)
(0.0114884 1.74729 2.82699e-20)
(0.0124436 1.74732 -5.58919e-18)
(0.00302994 1.75229 3.34132e-17)
(0.00224149 1.7569 2.94273e-17)
(0.0102327 1.74856 -2.16049e-17)
(0.0140738 1.75052 -3.82068e-17)
(0.290477 1.82965 1.81491e-17)
(0.252165 1.7971 -1.656e-17)
(0.573229 1.78623 -8.51671e-17)
(0.450684 1.92298 3.25344e-17)
(0.487738 1.85344 0)
(0.28494 1.47044 -5.63912e-18)
(0.303895 1.45054 -3.03303e-18)
(0.176348 1.51981 -6.91065e-18)
(0.173711 1.5414 -2.1155e-17)
(0.245007 1.53454 -3.41793e-17)
(0.25168 1.50375 0)
(0.183681 1.51961 -7.43096e-18)
(0.0650411 1.59724 -1.06498e-17)
(0.0949481 1.56204 5.7977e-17)
(0.0274559 1.56703 2.0409e-17)
(0.689625 1.40326 -4.47756e-17)
(0.495611 1.41312 0)
(1.02634 -0.00102145 -8.55631e-19)
(1.00968 0.00947504 8.0839e-19)
(1.0151 0.0139633 2.62558e-18)
(1.02144 0.00869886 -2.47125e-17)
(1.02318 0.00218253 0)
(0.470852 1.46263 0)
(0.397423 1.36021 0)
(0.630193 1.18401 0)
(0.480057 1.17892 0)
(0.81248 2.066 2.71835e-17)
(0.818827 1.85106 0)
(0.468497 2.07015 -1.15174e-18)
(0.45537 1.691 0)
(0.502782 1.76662 7.92457e-17)
(0.536398 1.83441 5.6219e-17)
(0.828467 0.15279 0)
(0.812623 0.166497 -3.66179e-18)
(0.90126 0.118349 -9.0793e-18)
(0.836955 0.109828 -2.06382e-17)
(0.837385 0.0842507 1.88859e-17)
(0.998105 0.238159 -1.52692e-18)
(0.889494 0.311565 2.67864e-17)
(0.816779 0.29006 8.10661e-18)
(0.923892 0.237126 -2.79254e-18)
(0.904979 0.16081 6.13405e-17)
(0.887015 0.170097 -1.31258e-17)
(0.872809 0.242998 8.0198e-18)
(0.874371 0.212458 0)
(0.940592 0.184561 8.38586e-18)
(0.965177 0.172192 0)
(0.956049 0.248045 0)
(1.05486 0.126608 -1.91189e-17)
(0.985768 0.168132 2.94825e-17)
(0.987737 0.202176 2.39367e-17)
(1.05 0.215916 0)
(0.999908 0.0334391 -4.88261e-17)
(1.00164 0.037217 1.02748e-17)
(1.00578 0.0435329 -1.02607e-17)
(1.0162 0.0586407 5.24342e-17)
(0.985517 0.0671056 -3.41836e-17)
(0.925555 0.105534 0)
(0.933273 0.0689048 0)
(0.927767 0.060945 5.16199e-17)
(0.907876 0.0635245 4.35303e-18)
(1.00209 0.111177 -5.26175e-17)
(0.995381 0.137727 -3.98822e-18)
(0.999881 0.141006 -2.65275e-17)
(0.981227 0.150273 0)
(1.0041 0.103725 0)
(1.00546 0.0985014 4.19196e-17)
(1.00245 0.101458 -1.1124e-17)
(0.269345 1.71575 1.93587e-17)
(0.382706 2.26397 -1.35645e-17)
(0.723831 2.45301 2.70193e-17)
(0.882087 2.70396 -4.52333e-18)
(0.887168 2.27506 -2.13565e-18)
(0.980337 2.33932 -3.23613e-18)
(0.939403 1.90538 7.72598e-18)
(0.876624 2.56999 -4.73833e-18)
(0.872704 2.54261 -2.82508e-17)
(0.982843 2.79127 -5.86359e-18)
(1.12056 2.62419 7.01918e-18)
(1.20816 2.51589 0)
(0.554044 0.97438 -2.26291e-18)
(-0.0642806 1.31264 -1.96261e-17)
(0.0183209 0.671002 -1.45366e-17)
(-0.0611311 0.826191 -2.57591e-17)
(0.373975 0.459743 -1.76148e-17)
(0.396089 0.500296 1.84925e-17)
(0.338561 0.618536 -1.89109e-17)
(0.229033 0.497068 7.09398e-18)
(0.347745 0.41632 -1.73247e-17)
(0.74588 0.271632 2.83871e-17)
(0.706782 0.306334 0)
(0.730121 0.282773 5.77089e-18)
(0.625167 0.548755 -1.65621e-17)
(0.544194 0.521182 3.26214e-17)
(0.436744 0.587366 -5.51482e-18)
(0.522715 0.491149 0)
(0.609315 0.833386 -2.99513e-17)
(0.735633 0.871762 3.51656e-17)
(0.672241 0.969325 5.87419e-17)
(0.772123 0.846931 1.66096e-17)
(0.882232 0.924958 -2.462e-18)
(0.862507 0.947966 -6.95084e-18)
(0.774151 0.698139 1.86411e-17)
(0.8354 0.731423 5.53328e-18)
(0.932481 0.804333 0)
(0.930203 0.702199 2.99353e-17)
(0.944432 0.331549 4.26231e-17)
(1.07272 0.330779 -2.85615e-17)
(0.986388 0.289438 -5.58905e-17)
(0.912325 0.39883 5.4306e-17)
(0.974489 0.44687 0)
(1.00808 0.422117 0)
(0.789966 0.389377 4.72405e-17)
(0.776877 0.307764 0)
(0.788759 0.301152 -2.0539e-17)
(0.813742 0.318925 6.42904e-17)
(0.822981 0.495174 -1.21583e-16)
(0.768941 0.554496 -1.09741e-17)
(0.794781 0.51043 1.75875e-17)
(0.722166 0.455151 -1.2071e-17)
(0.69917 0.473612 -1.14813e-17)
(0.649769 0.457083 4.85849e-18)
(1.01362 0.019385 -5.99434e-17)
(1.00845 -0.00506578 0)
(1.01197 0.0170564 -2.15922e-19)
(1.01096 0.023604 9.74144e-18)
(1.00842 0.0066462 -3.37162e-17)
(1.00458 0.0220385 2.63422e-17)
(0.997201 0.0092028 0)
(1.00041 -0.00778635 1.7102e-17)
(1.00923 0.0047277 -1.29161e-17)
(1.00983 0.00112423 3.08142e-18)
(1.00458 0.00183897 3.70371e-18)
(-0.00355798 1.81794 0)
(0.0137377 1.79497 0)
(0.0219324 1.83125 0)
(0.00249059 1.82811 0)
(0.0467148 1.80277 -1.59208e-17)
(0.0466957 1.82891 -9.8239e-17)
(0.0592429 1.7694 -2.78282e-17)
(0.066904 1.82877 -8.40395e-17)
(0.019217 1.77536 6.02886e-17)
(0.0309034 1.79393 5.2801e-17)
(0.0357431 1.80111 1.13095e-16)
(0.0227484 1.80662 6.01398e-17)
(0.0142811 1.79823 1.03763e-17)
(0.00897092 1.80906 2.17165e-18)
(0.0416953 1.68464 -5.91195e-17)
(0.0622411 1.69289 0)
(0.0557146 1.71105 -4.10937e-17)
(0.0594803 1.7582 -7.47444e-18)
(0.134632 1.68585 -1.46883e-17)
(0.0928464 1.59905 0)
(0.087377 1.59304 6.04354e-17)
(0.114955 1.59073 3.961e-17)
(0.113594 1.69182 -5.26635e-17)
(0.0926754 1.70843 -8.06956e-17)
(0.0607946 1.62747 0)
(0.0251518 1.75407 3.70019e-17)
(0.0176582 1.72663 -1.33593e-17)
(0.0190311 1.74414 0)
(0.041776 1.73792 1.98318e-17)
(0.0364973 1.73839 1.32074e-17)
(0.00812525 1.77748 8.38657e-18)
(0.000839106 1.77315 -8.55567e-17)
(-0.00731611 1.7715 -6.46912e-17)
(-0.0184787 1.76928 4.08442e-17)
(-0.00229883 1.74998 0)
(0.0135903 1.78293 0)
(0.00860051 1.77672 -3.91508e-17)
(-0.00118931 1.77047 -2.7098e-18)
(0.00577369 1.77875 0)
(-0.00451867 1.78194 2.93548e-17)
(0.00678139 1.77607 4.49491e-18)
(0.999814 0.0276701 0)
(1.00503 0.035444 1.87136e-18)
(0.998009 0.0172624 5.32617e-17)
(1.01982 0.017702 0)
(1.0156 0.0220476 0)
(0.99242 -0.00052199 2.01697e-17)
(0.998142 0.00815391 -6.9975e-17)
(0.996388 0.00629929 -3.8884e-17)
(1.00057 0.00426247 0)
(1.00727 0.0103467 0)
(0.996939 0.0177557 1.62708e-17)
(0.991971 0.0183989 0)
(0.99879 0.0154027 0)
(0.00239271 1.74258 0)
(0.0169769 1.76525 -3.90004e-17)
(0.0227736 1.74579 3.93664e-17)
(0.00721191 1.77122 0)
(0.0115194 1.77312 -3.8034e-17)
(0.00169537 1.76553 -1.71848e-17)
(-0.00639429 1.77275 0)
(0.346412 1.72855 0)
(0.241707 1.79386 3.66937e-17)
(0.223911 1.71811 0)
(0.292226 1.77092 5.94456e-17)
(0.361087 1.78599 0)
(0.340932 1.82291 3.99787e-17)
(0.706543 1.67426 1.39718e-21)
(0.694608 1.39526 -1.12865e-17)
(0.751462 1.40811 -3.65723e-17)
(0.527123 1.40295 -1.06598e-17)
(0.494705 1.53351 0)
(0.54746 1.58498 0)
(0.645381 1.39725 0)
(0.597975 1.38095 7.4911e-18)
(0.354177 1.66345 -2.84505e-17)
(0.439271 1.53136 5.48158e-18)
(0.415267 1.66868 8.92476e-19)
(0.367059 1.43985 0)
(0.444619 1.42647 0)
(0.406874 1.42975 3.65946e-18)
(0.422438 1.51107 0)
(0.51356 1.09756 0)
(0.448662 0.976797 -4.67848e-17)
(0.600194 0.889407 -4.84028e-18)
(0.282607 1.2487 0)
(0.431937 1.31768 -8.70056e-17)
(0.68844 0.966902 -5.37892e-18)
(0.699721 1.12449 0)
(0.736849 1.06182 -3.49469e-17)
(0.685163 0.956037 0)
(0.668122 0.960222 0)
(0.722527 2.20812 2.08227e-17)
(0.698619 2.39287 -3.61578e-18)
(0.48676 2.2881 -4.73366e-17)
(0.471737 2.15728 7.51024e-20)
(0.748258 2.00201 0)
(0.714948 1.95275 -8.29842e-18)
(0.776561 1.82249 1.29644e-18)
(0.815799 1.64621 -7.21245e-18)
(0.353383 1.92168 0)
(0.240942 1.66324 3.40767e-17)
(0.299274 1.65352 0)
(0.847115 0.205995 0)
(0.803776 0.194464 0)
(0.783813 0.193631 0)
(0.836485 0.249084 3.85527e-18)
(0.774737 0.226436 -1.36278e-18)
(0.90746 0.0940358 2.03431e-17)
(0.904056 0.115764 0)
(0.889376 0.0909291 -3.95501e-18)
(0.851963 0.0854041 -1.73644e-17)
(0.865652 0.0690796 3.37189e-18)
(1.03982 2.93022 -2.20021e-17)
(0.954555 2.86451 0)
(0.948049 2.95021 -6.27995e-17)
(0.624761 3.16973 -1.69965e-17)
(0.748595 2.70456 1.93218e-17)
(0.589018 1.10968 -3.41682e-17)
(0.583095 1.11093 0)
(0.463145 0.819556 8.4047e-18)
(0.434991 0.875752 2.55243e-17)
(0.257687 0.886548 1.23782e-17)
(0.327456 0.643638 1.6603e-18)
(0.502232 0.622581 -1.57414e-17)
(0.559387 0.637642 0)
(0.527182 0.77442 0)
(0.403206 0.749808 0)
(0.945947 0.664213 5.30319e-18)
(0.82465 0.575799 1.76526e-17)
(0.809699 0.617675 -1.24686e-17)
(0.852863 0.536257 2.78906e-17)
(0.95495 0.532515 0)
(0.97085 0.583188 -7.07693e-18)
(0.749843 0.42563 2.40351e-17)
(0.769499 0.385337 4.23736e-17)
(0.691047 0.40285 -1.48007e-17)
(0.691158 0.390127 1.25653e-17)
(0.749627 0.360476 2.12292e-19)
(0.712997 0.348094 -2.61819e-17)
(1.01324 -0.00376565 -2.38983e-17)
(1.01338 -0.00805201 -5.79473e-17)
(1.01458 0.0156733 1.93049e-17)
(1.00824 0.0209564 6.60017e-17)
(0.99398 0.0284336 0)
(0.989765 0.00464321 1.6194e-17)
(0.0562147 1.76784 2.35012e-17)
(0.0560065 1.77326 0)
(0.0561273 1.75771 -5.36056e-17)
(0.0552329 1.75623 -4.44388e-17)
(0.0479176 1.78081 -3.90464e-17)
(0.0481077 1.78491 0)
(0.0261138 1.7668 0)
(0.00902988 1.76377 -1.73427e-17)
(0.00427944 1.76218 -1.92367e-17)
(-0.00289939 1.77193 -4.6264e-17)
(-0.0115279 1.74576 -8.22584e-18)
(0.0235202 1.75084 -4.64032e-18)
(0.360521 1.81594 -8.97723e-17)
(0.349063 1.78425 -1.35643e-16)
(0.326168 1.76541 8.0783e-17)
(0.335683 1.78207 -5.28583e-18)
(0.430102 1.57577 0)
(0.398895 1.75993 8.05626e-17)
(0.422317 1.66748 5.40468e-17)
(0.32905 1.73578 5.36932e-17)
(0.339062 1.74159 0)
(0.334266 1.65001 0)
(0.344303 1.61467 -5.57332e-17)
(0.332421 1.49616 -7.68069e-17)
(0.371142 1.51852 -4.13921e-17)
(0.30615 1.50522 -4.00166e-19)
(0.28143 1.59981 -1.69506e-18)
(0.239569 1.52698 -9.31969e-18)
(0.750889 1.45998 -7.99742e-19)
(0.803428 1.58033 0)
(0.801116 1.48101 1.43838e-17)
(0.736715 1.8132 0)
(0.722959 1.75275 0)
(0.740757 2.18484 6.50469e-18)
(0.867472 2.72968 5.8628e-18)
(0.787545 2.67011 -1.00701e-17)
(0.352047 1.21192 0)
(0.457783 1.22969 -9.55669e-18)
(0.643715 1.15976 -2.67155e-17)
(0.634092 1.99323 0)
(0.557393 2.43214 7.11316e-19)
(0.321379 2.32741 0)
(0.642215 0.783395 1.51647e-18)
(0.668916 0.799242 -6.62938e-17)
(0.675694 0.767486 -2.08413e-19)
(0.55833 0.762546 1.22365e-19)
(0.594606 0.693827 8.97637e-18)
(0.789009 2.54756 -1.6273e-17)
(0.79562 2.57557 3.89917e-18)
(0.798613 2.24157 -5.93671e-18)
(0.714156 2.07503 3.70197e-17)
(0.550765 2.1788 5.00765e-17)
(0.709866 2.39275 -2.63177e-17)
(0.610998 2.42696 -2.92804e-17)
(0.688097 2.05911 -1.595e-19)
(0.562785 2.06519 2.48948e-17)
)
;

boundaryField
{
    wall-4
    {
        type            calculated;
        value           uniform (0 0 0);
    }
    velocity-inlet-5
    {
        type            calculated;
        value           uniform (1 0 0);
    }
    velocity-inlet-6
    {
        type            calculated;
        value           uniform (0 3 0);
    }
    pressure-outlet-7
    {
        type            calculated;
        value           nonuniform List<vector> 8((0.00303395 1.73335 0) (-0.0183621 1.68998 5.36114e-17) (0.00831076 1.76492 0) (-0.00887119 1.78721 0) (-0.00049229 1.75129 0) (0.00290322 1.75582 0) (-0.00383892 1.74596 0) (0.000922437 1.76813 0));
    }
    wall-8
    {
        type            calculated;
        value           uniform (0 0 0);
    }
    frontAndBackPlanes
    {
        type            empty;
    }
}

