/*--------------------------------*- C++ -*----------------------------------*\
  =========                 |
  \\      /  F ield         | OpenFOAM: The Open Source CFD Toolbox
   \\    /   O peration     | Website:  https://openfoam.org
    \\  /    A nd           | Version:  6
     \\/     M anipulation  |
\*---------------------------------------------------------------------------*/
FoamFile
{
    version     2.0;
    format      ascii;
    class       volScalarField;
    location    "0";
    object      p;
}
// * * * * * * * * * * * * * * * * * * * * * * * * * * * * * * * * * * * * * //

dimensions      [0 2 -2 0 0 0 0];

internalField   nonuniform List<scalar> 
13046
(
0.501047
0.480219
0.538849
0.508328
0.533003
0.494574
0.489403
0.498239
0.54045
0.24169
0.202198
0.502327
0.488276
0.449249
0.532412
0.305529
0.50413
0.23151
0.534884
0.523453
0.499374
0.29597
0.505652
0.228718
0.505236
0.50649
0.532064
0.473755
0.449242
0.534577
0.510484
0.45834
0.532284
0.51833
0.5353
0.502982
0.517295
0.537485
0.513382
0.511254
0.525742
0.443989
0.516195
0.535011
0.522417
0.514256
0.526146
0.523968
0.489256
0.479257
0.539065
0.494254
0.513173
0.399859
0.501555
0.382261
0.517569
0.313945
0.427871
0.511907
0.421724
0.435252
0.526308
0.511633
0.30644
0.34092
0.442954
0.318488
0.508198
0.456315
0.329039
0.50927
0.294078
0.414987
0.510982
0.534423
0.534532
0.484027
0.51249
0.384588
0.290092
0.499385
0.502615
0.53128
0.508629
0.285027
0.317999
0.314614
0.511412
0.333424
0.503287
0.268727
0.335565
0.426669
0.409059
0.393139
0.382668
0.522255
0.523798
0.512346
0.316056
0.348707
0.512795
0.529911
0.51859
0.53109
0.411734
0.505188
0.512294
0.516065
0.41975
0.14672
0.496349
0.108897
0.492665
0.463721
0.529702
0.411572
0.42563
0.356358
0.51889
0.381062
0.520193
0.222636
0.176358
0.500855
0.46115
0.40647
0.532646
0.506636
0.526165
0.443479
0.503218
0.285317
0.362017
0.378991
0.360858
0.518041
0.502505
0.449675
0.52936
0.451096
0.492957
0.529674
0.509349
0.503957
0.420009
0.528197
0.427781
0.513372
0.416508
0.415346
0.523553
0.541881
0.461855
0.50956
0.473673
0.378176
0.461682
0.37328
0.518471
0.518971
0.451311
0.476258
0.523529
0.235556
0.502076
0.214093
0.17892
0.497898
0.13166
0.371363
0.343022
0.51749
0.505268
0.402191
0.523677
0.454949
0.523401
0.485886
0.505105
0.248046
0.245778
0.507594
0.417946
0.517953
0.539492
0.449405
0.504876
0.461969
0.494049
0.528333
0.443242
0.536128
0.466262
0.425377
0.529625
0.304741
0.508924
0.299914
0.50962
0.312014
0.365276
0.273361
0.325436
0.503056
0.486751
0.368014
0.503272
0.473406
0.390795
0.508023
0.287324
0.29787
0.264775
0.50371
0.5093
0.536844
0.514339
0.481872
0.453356
0.532928
0.508913
0.301124
0.373322
0.462474
0.453704
0.538484
0.498949
0.170361
0.185226
0.505373
0.36616
0.478783
0.296211
0.346369
0.507662
0.407806
0.472206
0.526906
0.454041
0.410056
0.532207
0.410281
0.316035
0.503294
0.356352
0.448283
0.512296
0.498021
0.169893
0.16526
0.517204
0.521472
0.408595
0.172242
0.49598
0.0699199
0.531264
0.50274
0.516001
0.417581
0.422007
0.463646
0.47585
0.530702
0.523006
0.505667
0.367936
0.269974
0.468488
0.418498
0.527707
0.353406
0.426129
0.514387
0.391629
0.359474
0.518569
0.523135
0.514691
0.535786
0.391855
0.458372
0.521288
0.470573
0.401009
0.527169
0.465794
0.461724
0.519103
0.515041
0.394386
0.387841
0.442713
0.519842
0.369646
0.516367
0.350747
0.527516
0.515759
0.429176
0.517765
0.366368
0.466655
0.432405
0.360829
0.516831
0.513247
0.498791
0.396421
0.415958
0.407682
0.349278
0.515317
0.344372
0.517916
0.505558
0.26123
0.263776
0.436061
0.393119
0.523362
0.0318613
0.494115
0.0962893
0.486367
0.527178
0.502988
0.436237
0.445711
0.527481
0.512226
0.326842
0.322409
0.495489
0.366012
0.514647
0.393228
0.312408
0.50566
0.477075
0.534586
0.425987
0.433125
0.528042
0.470029
0.535371
0.329462
0.506244
0.252743
0.494607
0.351829
0.504028
0.413322
0.422527
0.524379
0.444166
0.485443
0.532377
0.41694
0.49519
0.52279
0.502963
0.48309
0.536942
0.509042
0.370324
0.4733
0.290654
0.309583
0.507396
0.398698
0.311845
0.509288
0.465342
0.506462
0.35168
0.39911
0.411972
0.329393
0.31096
0.508567
0.511966
0.494989
0.0488173
0.12012
0.190237
0.496754
0.0863609
0.406717
0.454463
0.518179
0.507042
0.295301
0.277515
0.447656
0.441436
0.357914
0.347829
0.518036
0.51525
0.497428
0.26885
0.216588
0.156547
0.494894
0.0414378
0.499517
0.531042
0.530446
0.145783
0.0785086
0.496358
0.497512
0.403652
0.520014
0.252529
0.260777
0.504905
0.0537637
0.493921
0.0354217
0.516331
0.523275
0.456558
0.488778
0.523429
0.532821
0.230679
0.501283
0.167421
0.480329
0.516779
0.532439
0.506755
0.531229
0.531465
0.511906
0.347527
0.480527
0.475728
0.531526
0.53044
0.490644
0.505089
0.52491
0.475882
0.357148
0.505517
0.505146
0.506121
0.229302
0.228303
0.276252
0.26927
0.265603
0.298503
0.505324
0.512636
0.461503
0.33001
0.507799
0.514836
0.423128
0.346633
0.442742
0.504794
0.126397
0.492907
0.0769574
0.503491
0.261801
0.319532
0.192027
0.499159
0.156522
0.494685
0.0302968
0.0286682
-0.0084101
0.495167
0.0668092
0.422181
0.379363
0.516222
0.216315
0.494331
0.156764
0.361032
0.360688
0.51718
0.280565
0.498921
0.175609
0.483026
0.532434
0.486636
0.287411
0.499947
0.234478
0.35382
0.505638
0.450752
0.418971
0.353656
0.517177
0.496359
-0.0759183
-0.0346116
0.061908
0.493772
0.0739067
0.493348
0.536274
0.48726
0.259536
0.213842
0.499798
0.497204
0.191197
0.255937
0.296863
0.507253
0.276776
0.507535
0.281819
0.355238
0.486995
0.346205
0.507721
0.329334
0.427439
0.517193
0.505438
0.338379
0.232911
0.486448
0.478464
0.418657
0.405664
0.52629
0.528461
0.49306
0.420094
0.52511
0.45909
0.345703
0.519787
0.408276
0.331096
0.511041
0.28864
0.262694
0.506255
0.51029
0.3321
0.38502
-0.00535081
0.495238
0.0903627
0.519106
0.513094
0.533249
0.45708
0.536602
0.466213
0.480496
0.475926
0.517124
0.364933
0.51879
0.38748
0.0679008
0.492631
0.0397143
0.26908
0.231266
0.501687
0.502218
0.503947
0.395597
0.424999
0.328595
0.506934
0.508352
0.289751
0.36909
0.116667
0.126792
0.496217
0.143728
0.137646
0.496379
0.443653
0.362142
0.521883
0.530772
0.509943
0.441103
0.281998
0.505502
0.250074
0.414689
0.362504
0.519483
0.515756
0.32067
0.359582
0.482993
0.518821
0.388033
0.414396
0.479418
0.522132
0.514876
0.521707
0.43293
0.50445
0.243254
0.261347
0.392894
0.34749
0.517467
0.520957
0.527864
0.462741
0.316719
0.501956
0.210149
0.490997
0.448131
0.532274
0.473203
0.493782
0.535787
0.42953
0.366901
0.516062
0.224307
0.497732
0.120124
0.241578
0.497819
0.129719
0.514573
0.309777
0.35986
0.394718
0.485894
0.515896
0.495358
0.0878823
0.196884
0.513748
0.339658
0.343627
0.493671
0.00889102
0.0027791
0.0451941
-0.035284
0.494184
0.507885
0.248984
0.342196
0.50123
0.203736
0.213637
0.304891
0.320296
0.505177
0.245283
0.508064
0.271613
0.333306
0.351624
0.513479
0.512897
0.437527
0.323273
0.520165
0.533035
0.478108
0.344894
0.373929
0.515217
0.515383
0.351742
0.385674
0.354761
0.505722
0.241065
0.474602
0.350567
0.517434
0.487104
0.394077
0.515821
0.386275
0.413207
0.523796
0.377099
0.407899
0.521356
0.524292
0.521124
0.477192
0.476799
0.392106
0.530832
0.499622
0.298466
0.230285
0.124549
0.495361
0.153378
0.102108
0.494595
0.154411
0.504668
0.526556
0.430548
0.0977795
0.494904
0.0953549
0.378617
0.515574
0.321804
0.493481
0.104329
0.0694696
0.510084
0.53394
0.503721
0.455512
0.44016
0.52991
0.4888
0.400504
0.51759
0.496057
0.231085
0.180604
0.412144
0.365223
0.517092
0.501413
0.301086
0.203483
0.437142
0.431017
0.531378
0.524056
0.536227
0.48419
0.228847
0.196167
0.499069
0.514361
0.322527
0.342897
0.216422
0.196478
0.49857
0.497597
0.140761
0.119791
0.433525
0.470025
0.530511
0.432922
0.392283
0.517023
0.480391
0.497263
0.540752
0.18397
0.14876
0.190886
0.496349
0.145197
0.494814
0.409356
0.393376
0.525932
0.194332
0.171499
0.213737
0.1932
0.499755
0.497754
0.392748
0.448692
0.527344
0.455467
0.460006
0.531019
0.263
0.500078
0.164395
0.447402
0.453927
0.529273
0.476813
0.480016
0.533817
0.224319
0.49786
0.141235
0.442949
0.40403
0.524684
0.464524
0.337622
0.506265
0.487961
0.36929
0.515036
0.377906
0.501302
0.286999
0.495198
-0.0489114
-0.0089033
0.435788
0.445381
0.529187
0.278209
0.502122
0.20227
0.501752
0.347723
0.495528
0.0968736
0.493527
0.00864557
0.530792
0.522821
0.507579
0.454252
0.509111
0.442395
0.483372
0.499098
0.535969
0.518642
0.528612
0.517513
0.4574
0.526968
0.451708
0.4472
0.468956
0.536854
0.455742
0.473105
0.535042
0.493478
0.170907
0.1133
0.499851
0.431718
0.522915
0.21659
0.221827
0.501709
0.382468
0.367998
0.395817
0.376332
0.519814
0.516378
0.494788
0.452323
0.5278
0.458946
0.372735
0.517586
0.40954
0.416881
0.527507
0.523278
0.50255
0.529039
0.361135
0.383581
0.517137
0.515994
0.526946
0.480742
0.407091
0.441984
0.52689
0.457227
0.389464
0.518366
0.521995
0.52376
0.491515
0.535938
0.490413
0.532113
0.52445
0.515482
0.531358
0.479045
0.533359
0.459834
0.487696
0.482539
0.431277
0.430522
0.530574
0.526892
0.50954
0.290099
0.361895
0.505773
0.353382
0.472381
0.510495
0.511022
0.274931
0.285517
0.342416
0.338838
0.507908
0.504021
0.378256
0.523543
0.531078
0.514042
0.357886
0.368209
0.516497
0.513963
0.529275
0.446443
0.450504
0.384553
0.519102
0.392054
0.394358
0.307679
0.514273
0.320595
0.515128
0.392409
0.384754
0.520446
0.119538
0.0357796
0.494377
0.497038
0.359697
0.497901
0.489215
0.492779
0.504351
0.356196
0.513391
0.36716
0.343672
0.398576
0.513142
0.464855
0.382124
0.52001
0.507755
0.502493
0.377267
0.490896
0.497669
0.509146
0.523747
0.396945
0.392407
0.488337
0.51576
0.376391
0.394966
0.397052
0.523198
0.521133
0.527172
0.483612
0.24922
0.500838
0.182213
0.504257
0.505562
0.365849
0.456527
0.442529
0.388358
0.380098
0.519561
0.524005
0.50237
0.203088
0.26774
0.264653
0.501267
0.17629
0.246146
0.499795
0.165675
0.378682
0.513878
0.311631
0.471722
0.397498
0.522523
0.278458
0.334797
0.457766
0.283164
0.416828
0.145973
0.375653
0.314498
0.251015
0.406696
0.403704
0.232738
0.278321
0.407214
0.314383
0.281127
0.289543
0.312473
0.330338
0.378218
0.334269
0.307388
0.416158
0.497608
0.465895
0.340322
0.427546
0.236395
0.351224
0.268578
0.245256
0.37008
0.335797
0.322503
0.260404
0.346309
0.45047
0.414382
0.298878
0.361828
0.298228
0.495631
0.273818
0.405258
0.438186
0.298089
0.304533
0.285778
0.235682
0.274485
0.468549
0.333024
0.283797
0.302773
0.245045
0.463118
0.381183
0.339229
0.287051
0.39976
0.272247
0.278123
0.466517
0.326171
0.339027
0.383049
0.346156
0.494951
0.415457
0.415386
0.223403
0.247594
0.302596
0.390755
0.238364
0.320088
0.338621
0.255166
0.393288
0.434577
0.312563
0.329959
0.238925
0.273633
0.291859
0.400686
0.292046
0.284512
0.313008
0.472104
0.28161
0.398861
0.465409
0.323716
0.279306
0.0855669
0.266386
0.288854
0.278995
0.219498
0.370062
0.419726
0.446952
0.498763
0.275486
0.274173
0.234321
0.291693
0.268544
0.448801
0.423896
0.375316
0.259968
0.246719
0.368234
0.425592
0.308309
0.284969
0.216623
0.307329
0.321132
0.481496
0.491865
0.393599
0.344285
0.308204
0.236821
0.483138
0.247082
0.388094
0.219149
0.467405
0.241534
0.21987
0.266283
0.433366
0.312841
0.191002
0.272606
0.37521
0.275331
0.402299
0.372886
0.286646
0.436317
0.303872
0.266439
0.44191
0.272793
0.313957
0.233564
0.351949
0.297241
0.439297
0.397862
0.302034
0.391644
0.403504
0.455283
0.340115
0.300532
0.284369
0.408614
0.247984
0.358634
0.238809
0.492043
0.309602
0.442928
0.479741
0.339953
0.48679
0.443208
0.452891
0.255703
0.213571
0.234962
0.458028
0.255805
0.244459
0.240609
0.246596
0.311776
0.301918
0.34509
0.480308
0.395618
0.296466
0.400235
0.294941
0.49318
0.201611
0.431
0.289307
0.21049
0.468619
0.481599
0.284501
0.288575
0.491447
0.352953
0.292549
0.267212
0.391451
0.44757
0.395003
0.271668
0.287565
0.41651
0.345466
0.271019
0.361521
0.234898
0.251539
0.308298
0.426467
0.220127
0.307022
0.42045
0.289833
0.216418
0.306659
0.286821
0.301595
0.364231
0.370447
0.271827
0.241687
0.258544
0.380463
0.388848
0.291223
0.369976
0.305626
0.257514
0.353661
0.298025
0.20167
0.394163
0.440599
0.341931
0.474654
0.450519
0.494452
0.28052
0.189739
0.315066
0.303048
0.300369
0.226772
0.358851
0.464409
0.392177
0.350101
0.266627
0.299211
0.405429
0.33404
0.383854
0.273956
0.32072
0.295138
0.225714
0.272117
0.287489
0.28016
0.26255
0.372402
0.344146
0.302594
0.378374
0.289261
0.309789
0.276104
0.305705
0.279786
0.293943
0.348851
0.222145
0.178332
0.324294
0.229036
0.209511
0.348399
0.207988
0.213162
0.439208
0.37331
0.272855
0.399177
0.249736
0.368649
0.361819
0.235786
0.284741
0.424008
0.315464
0.405006
0.140472
0.262746
0.442235
0.292384
0.266259
0.16647
0.220101
0.208035
0.223806
0.299701
0.378928
0.256124
0.209118
0.265937
0.289952
0.493447
0.268301
0.391145
0.362565
0.216984
0.315524
0.269618
0.24083
0.365256
0.306674
0.464812
0.387929
0.268516
0.299594
0.33518
0.498318
0.402557
0.451139
0.397095
0.299991
0.343645
0.309961
0.261133
0.22465
0.287873
0.296576
0.384911
0.282281
0.231496
0.284391
0.305677
0.280439
0.290238
0.428348
0.298175
0.291588
0.46224
0.436127
0.272737
0.346119
0.449095
0.250769
0.202137
0.301939
0.256706
0.240996
0.446196
0.271794
0.315098
0.456609
0.215256
0.347001
0.281204
0.342011
0.303128
0.282726
0.0921798
0.312407
0.234536
0.264503
0.299954
0.296837
0.400347
0.465031
0.278141
0.345648
0.308265
0.25878
0.198549
0.42354
0.371263
0.268233
0.234049
0.358082
0.231018
0.28287
0.272181
0.266478
0.416165
0.464167
0.296235
0.39717
0.497487
0.427161
0.431271
0.455565
0.292678
0.29115
0.242812
0.494747
0.424011
0.442286
0.28251
0.29052
0.215138
0.404784
0.304355
0.263851
0.443659
0.379731
0.253063
0.310187
0.278348
0.283314
0.278982
0.299071
0.304467
0.252449
0.297667
0.224047
0.3153
0.254242
0.379808
0.326735
0.220856
0.449052
0.459284
0.395688
0.298057
0.350605
0.204006
0.403465
0.332855
0.225704
0.44675
0.1716
0.466423
0.235447
0.312538
0.325912
0.392748
0.414881
0.280081
0.478276
0.281269
0.430633
0.314144
0.378138
0.292801
0.271909
0.285124
0.435571
0.323526
0.492585
0.381977
0.222247
0.272095
0.371295
0.187358
0.298982
0.315075
0.255193
0.470782
0.248285
0.236103
0.412574
0.28736
0.464697
0.487408
0.291906
0.495008
0.476862
0.430262
0.444783
0.356406
0.234483
0.271776
0.305629
0.421793
0.306884
0.172803
0.477134
0.256038
0.300208
0.267342
0.453474
0.492248
0.268383
0.427422
0.363502
0.46511
0.313444
0.401578
0.288856
0.479817
0.490717
0.387293
0.27167
0.417644
0.298351
0.341137
0.334101
0.318747
0.363474
0.284706
0.178163
0.243083
0.324461
0.373835
0.348479
0.443658
0.264733
0.30012
0.378204
0.246746
0.457755
0.27119
0.288335
0.458042
0.435806
0.354914
0.482182
0.271035
0.29198
0.405309
0.336338
0.32453
0.310052
0.285802
0.370735
0.388396
0.285898
0.277274
0.3521
0.222385
0.250799
0.466666
0.49581
0.493362
0.312841
0.502168
0.492141
0.473739
0.200151
0.365287
0.361882
0.481817
0.301619
0.27713
0.23755
0.270427
0.158165
0.477914
0.312303
0.318171
0.404155
0.386356
0.295439
0.289517
0.491777
0.481281
0.449098
0.389145
0.275597
0.396695
0.376518
0.298515
0.324511
0.248102
0.270328
0.342849
0.324423
0.292519
0.46789
0.465101
0.200527
0.432834
0.283759
0.272756
0.306797
0.464489
0.310385
0.388648
0.312954
0.450549
0.299688
0.316139
0.491787
0.219464
0.219152
0.273127
0.257403
0.183449
0.0693268
0.265809
0.192954
0.329483
0.201512
0.255679
0.323485
0.262724
0.265456
0.297085
0.2449
0.0862349
0.477804
0.435497
0.300099
0.231916
0.440154
0.279583
0.27701
0.488335
0.272192
0.488665
0.313185
0.438684
0.311957
0.219915
0.250147
0.347069
0.347655
0.33004
0.220659
0.304023
0.260071
0.259965
0.284634
0.222822
0.24586
0.474852
0.266521
0.386394
0.409773
0.3032
0.415535
0.411611
0.236436
0.0740129
0.314218
0.226479
0.186966
0.393462
0.396091
0.299496
0.372539
0.294814
0.491981
0.474929
0.30664
0.289787
0.480313
0.444484
0.366639
0.367493
0.296982
0.494667
0.342259
0.19994
0.454031
0.427576
0.466418
0.347651
0.274467
0.303728
0.397527
0.367167
0.0268336
0.495346
0.313298
0.270564
0.331953
0.448086
0.494347
0.488509
0.372362
0.330242
0.415714
0.446065
0.460671
0.390395
0.423946
0.231779
0.278593
0.358976
0.242949
0.231094
0.218736
0.312092
0.411393
0.227035
0.339568
0.279749
0.426649
0.488679
0.309483
0.234643
0.210085
0.399732
0.289133
0.267274
0.221295
0.464836
0.351329
0.356294
0.224588
0.361031
0.270885
0.278788
0.401241
0.408088
0.467777
0.493038
0.266061
0.449746
0.203255
0.456456
0.462851
0.465487
0.417401
0.254426
0.254337
0.299045
0.196697
0.338863
0.21928
0.364043
0.229072
0.442562
0.301631
0.205856
0.43592
0.409882
0.318606
0.323925
0.384857
0.464289
0.3525
0.332027
0.205327
0.427434
0.338977
0.481791
0.188633
0.324505
0.454858
0.39747
0.483097
0.403211
0.304844
0.170438
0.20603
0.32174
0.231179
0.476549
0.19497
0.288806
0.31903
0.27487
0.421949
0.19325
0.460705
0.397113
0.359076
0.182931
0.380501
0.267006
0.3024
0.315432
0.320071
0.288735
0.274134
0.414045
0.254258
0.50094
0.289708
0.319272
0.380344
0.403456
0.47867
0.288065
0.29256
0.26455
0.328735
0.281136
0.470442
0.268098
0.336704
0.296982
0.429787
0.260073
0.34548
0.243436
0.489371
0.196197
0.252277
0.279742
0.435419
0.208978
0.226773
0.25095
0.234208
0.464871
0.332663
0.392439
0.438858
0.382893
0.329489
0.489661
0.333274
0.408304
0.376909
0.346334
0.217919
0.353472
0.309799
0.289348
0.355005
0.249293
0.222274
0.335101
0.292843
0.258558
0.425095
0.32957
0.387218
0.309522
0.476224
0.318872
0.313976
0.378136
0.229149
0.263341
0.296275
0.346639
0.354539
0.366135
0.461707
0.401676
0.418924
0.343092
0.450091
0.479457
0.474443
0.340952
0.338615
0.362865
0.235283
0.488436
0.443339
0.430124
0.32375
0.250712
0.216374
0.362671
0.398065
0.269498
0.429828
0.444053
0.368414
0.28184
0.345004
0.292092
0.268083
0.323477
0.281626
0.355666
0.220301
0.359782
0.324699
0.307533
0.193958
0.354911
0.338861
0.387022
0.297146
0.35111
0.459826
0.470699
0.353329
0.314772
0.419531
0.338032
0.264911
0.268456
0.311195
0.230997
0.461205
0.328926
0.344349
0.398134
0.391767
0.377392
0.245836
0.498024
0.381462
0.27584
0.330353
0.330373
0.419249
0.456476
0.38304
0.363926
0.207347
0.258464
0.30504
0.365804
0.337609
0.352143
0.284955
0.467706
0.370622
0.419506
0.446718
0.348944
0.275029
0.345585
0.486301
0.263151
0.204151
0.345061
0.492611
0.289693
0.309137
0.414106
0.398841
0.433376
0.324761
0.210627
0.363377
0.239821
0.293243
0.432157
0.315167
0.23942
0.267058
0.289161
0.371402
0.298196
0.287489
0.452909
0.278912
0.490421
0.430745
0.231088
0.182344
0.331937
0.406345
0.444756
0.31964
0.305008
0.265468
0.300478
0.321238
0.492753
0.455925
0.403626
0.300638
0.214207
0.466465
0.49719
0.467175
0.420698
0.455181
0.343067
0.248374
0.193052
0.204286
0.478472
0.33528
0.24582
0.306244
0.496632
0.296601
0.281037
0.226743
0.321976
0.266414
0.499384
0.362389
0.403505
0.452349
0.443541
0.295653
0.374136
0.340196
0.396704
0.255354
0.370778
0.282906
0.470215
0.225293
0.294458
0.237009
0.305443
0.45869
0.305358
0.430044
0.448935
0.454661
0.246564
0.337812
0.30575
0.274043
0.46549
0.348229
0.350403
0.359684
0.15419
0.307738
0.472086
0.378054
0.468604
0.198547
0.254884
0.295791
0.474073
0.260464
0.323673
0.261342
0.244576
0.301857
0.478218
0.312635
0.307737
0.226555
0.497406
0.485336
0.155819
0.469722
0.301085
0.247916
0.255215
0.331802
0.235911
0.376378
0.30308
0.293879
0.307851
0.452815
0.322961
0.430182
0.31323
0.245708
0.308238
0.197743
0.217055
0.314613
0.291729
0.357134
0.257952
0.32127
0.447637
0.370417
0.294537
0.215579
0.457023
0.317373
0.324175
0.503608
0.355085
0.292209
0.275811
0.241856
0.478549
0.294301
0.322489
0.37026
0.235026
0.460292
0.228419
0.450636
0.336026
0.409975
0.263883
0.424366
0.316289
0.235347
0.264393
0.336292
0.459297
0.179201
0.278163
0.276674
0.478782
0.499925
0.260381
0.285814
0.373721
0.48405
0.318628
0.463825
0.442087
0.428596
0.412326
0.349544
0.389324
0.378559
0.466945
0.324707
0.345414
0.26218
0.284148
0.325265
0.258175
0.479719
0.240251
0.463365
0.32276
0.474305
0.289168
0.483652
0.407235
0.45013
0.475419
0.46
0.502781
0.30309
0.448329
0.333917
0.298038
0.28167
0.257
0.46858
0.241408
0.358007
0.371017
0.311361
0.371869
0.281739
0.470872
0.331283
0.419151
0.195535
0.270277
0.303464
0.500524
0.265506
0.382526
0.289078
0.304276
0.239572
0.311966
0.302229
0.423318
0.471212
0.22482
0.353384
0.29801
0.29281
0.434922
0.266718
0.282194
0.483182
0.203885
0.351405
0.398625
0.458106
0.487662
0.286504
0.277551
0.23651
0.298839
0.273893
0.297304
0.415433
0.295484
0.244451
0.308365
0.338588
0.295514
0.279388
0.276767
0.33684
0.233301
0.41698
0.408633
0.289798
0.41859
0.224515
0.229545
0.259843
0.216832
0.482143
0.303059
0.297429
0.284301
0.444516
0.465926
0.345038
0.416084
0.279136
0.276675
0.341385
0.299511
0.276364
0.467195
0.360965
0.387955
0.486815
0.42383
0.329436
0.475996
0.220009
0.347615
0.343539
0.36761
0.298957
0.477352
0.292602
0.361912
0.3285
0.294717
0.260559
0.281232
0.40703
0.436564
0.450572
0.344148
0.354159
0.477839
0.427614
0.314465
0.355786
0.246342
0.298522
0.428243
0.225772
0.446571
0.293249
0.454532
0.502133
0.469515
0.284487
0.450518
0.44381
0.204502
0.478348
0.271015
0.472784
0.424825
0.29616
0.262317
0.36244
0.30301
0.289543
0.275166
0.42993
0.29124
0.479275
0.250702
0.288585
0.271543
0.249034
0.297411
0.437412
0.492763
0.247392
0.418757
0.337213
0.362033
0.318438
0.372484
0.461989
0.42748
0.292671
0.45637
0.433359
0.488198
0.250948
0.264881
0.279276
0.41509
0.484838
0.438888
0.322703
0.483908
0.333219
0.22215
0.260311
0.179309
0.328834
0.237503
0.48954
0.49078
0.352224
0.505125
0.429058
0.338618
0.480817
0.241922
0.476282
0.296306
0.466244
0.303761
0.254782
0.411935
0.352623
0.47308
0.462224
0.465236
0.263507
0.260577
0.208343
0.449822
0.426629
0.261775
0.341726
0.428343
0.204446
0.284804
0.263623
0.286426
0.364005
0.285262
0.343446
0.409212
0.340511
0.351664
0.408812
0.299241
0.308381
0.361959
0.342685
0.301752
0.449677
0.474498
0.261072
0.424154
0.201058
0.280585
0.455479
0.419536
0.280376
0.468948
0.242166
0.408297
0.316172
0.316342
0.454022
0.305663
0.416794
0.41499
0.392069
0.495419
0.395081
0.235889
0.376397
0.323007
0.41671
0.491635
0.390222
0.333391
0.276182
0.31744
0.455302
0.25321
0.443426
0.267647
0.365779
0.424365
0.410175
0.330486
0.453781
0.483453
0.306038
0.299828
0.349552
0.262799
0.242183
0.345478
0.414279
0.272595
0.232066
0.264467
0.226582
0.404499
0.331147
0.419121
0.286651
0.467144
0.342822
0.444612
0.492758
0.275622
0.460549
0.306155
0.349777
0.342461
0.45217
0.279227
0.315249
0.345964
0.255688
0.301854
0.25698
0.236558
0.200758
0.484588
0.495638
0.273492
0.283526
0.41341
0.217901
0.263572
0.297282
0.397825
0.407306
0.215162
0.200446
0.462378
0.28435
0.368557
0.283122
0.230798
0.259728
0.354919
0.444108
0.368937
0.227031
0.468621
0.442869
0.268784
0.364781
0.293841
0.491654
0.303397
0.320624
0.240404
0.384689
0.475683
0.370525
0.349162
0.276485
0.330301
0.372906
0.481735
0.505852
0.279108
0.485009
0.28201
0.35192
0.355106
0.314532
0.293524
0.451331
0.298047
0.357333
0.2633
0.253672
0.309345
0.257897
0.394947
0.467088
0.26583
0.283019
0.350533
0.295007
0.269182
0.191697
0.298609
0.453789
0.192716
0.27188
0.410147
0.348211
0.324772
0.382119
0.438907
0.245736
0.250169
0.438169
0.317793
0.254683
0.336557
0.450974
0.384908
0.35124
0.279395
0.285419
0.275012
0.482423
0.438388
0.491966
0.32115
0.394146
0.248765
0.337505
0.445332
0.222509
0.231998
0.408446
0.440558
0.223113
0.289903
0.276981
0.244016
0.27704
0.504695
0.322344
0.287102
0.347646
0.276282
0.412356
0.35885
0.246412
0.291514
0.425602
0.329622
0.484388
0.237528
0.286413
0.385639
0.372381
0.311884
0.368556
0.256388
0.487354
0.472775
0.387534
0.454711
0.269185
0.450061
0.378432
0.383269
0.475964
0.217776
0.29461
0.489716
0.380396
0.214338
0.269417
0.439652
0.488278
0.334198
0.414571
0.277165
0.236893
0.265181
0.204427
0.444564
0.279006
0.335255
0.479453
0.276542
0.249583
0.276061
0.351519
0.286167
0.282781
0.278633
0.250087
0.328697
0.425537
0.474643
0.405109
0.297138
0.294358
0.208064
0.289273
0.377475
0.357253
0.395826
0.411626
0.294653
0.321701
0.436268
0.442811
0.489849
0.455597
0.478391
0.331048
0.240914
0.265584
0.249028
0.482214
0.349709
0.281317
0.474788
0.247198
0.430476
0.408826
0.293092
0.283017
0.295697
0.284921
0.441194
0.30025
0.39797
0.331734
0.473089
0.362137
0.49346
0.265826
0.331
0.269316
0.195774
0.299756
0.42273
0.247567
0.141875
0.349603
0.473472
0.417645
0.281107
0.237516
0.268451
0.249329
0.285015
0.255675
0.313535
0.253017
0.409762
0.273
0.286205
0.463602
0.334144
0.381504
0.434469
0.301349
0.332986
0.259226
0.425171
0.289921
0.296701
0.323749
0.261205
0.235779
0.283304
0.263821
0.417684
0.492446
0.448211
0.356282
0.403273
0.22729
0.485136
0.366379
0.415312
0.279627
0.406885
0.273996
0.302129
0.428773
0.475063
0.42086
0.355341
0.306051
0.494356
0.307642
0.43422
0.480468
0.391285
0.313939
0.223153
0.433385
0.36125
0.253939
0.382159
0.357045
0.471185
0.275801
0.480433
0.490683
0.313146
0.267531
0.479261
0.239972
0.256013
0.302223
0.252207
0.300596
0.261935
0.23931
0.330181
0.286818
0.266439
0.292109
0.356992
0.264021
0.273277
0.376755
0.336167
0.240692
0.466782
0.497491
0.485447
0.28282
0.232078
0.494084
0.233144
0.327192
0.268839
0.294507
0.277204
0.408281
0.297727
0.291701
0.229008
0.221232
0.255401
0.301745
0.226559
0.328019
0.349063
0.318801
0.473131
0.354237
0.392218
0.314379
0.439743
0.279668
0.299982
0.508994
0.302301
0.355495
0.238231
0.39281
0.496293
0.290671
0.376411
0.358901
0.261989
0.276932
0.274406
0.252516
0.411439
0.257993
0.318712
0.29191
0.313296
0.270636
0.275467
0.326392
0.293991
0.293632
0.496753
0.326323
0.315124
0.349826
0.4738
0.302776
0.222986
0.428476
0.240164
0.309867
0.279379
0.332739
0.278253
0.296413
0.331991
0.488897
0.445624
0.224881
0.29184
0.224036
0.273047
0.211459
0.256115
0.302721
0.26452
0.303381
0.378729
0.50352
0.298244
0.405715
0.343354
0.482082
0.296605
0.495969
0.370384
0.249568
0.378238
0.41301
0.290868
0.446414
0.27994
0.451546
0.282938
0.147661
0.324107
0.50158
0.492978
0.40978
0.383988
0.402855
0.233897
0.274936
0.403596
0.492516
0.165389
0.334427
0.279666
0.280486
0.318825
0.267438
0.2451
0.279745
0.256988
0.287469
0.290651
0.320694
0.493966
0.442065
0.213292
0.426311
0.263335
0.274562
0.431572
0.286004
0.308786
0.394667
0.183224
0.268039
0.333549
0.447854
0.250285
0.27545
0.307359
0.375118
0.247842
0.472529
0.226094
0.299425
0.306016
0.279169
0.385395
0.377987
0.475083
0.276692
0.420237
0.346536
0.372728
0.279648
0.385331
0.264259
0.23981
0.204082
0.365022
0.318571
0.306264
0.46049
0.333653
0.35297
0.384813
0.271442
0.257237
0.299988
0.367691
0.286882
0.501958
0.24083
0.226001
0.298569
0.292403
0.285652
0.272517
0.407997
0.300557
0.325409
0.252246
0.282283
0.319355
0.235596
0.498669
0.489081
0.25538
0.269453
0.444705
0.345441
0.275164
0.235973
0.269177
0.256107
0.34636
0.464081
0.27649
0.234756
0.377692
0.328246
0.226676
0.252149
0.327716
0.400667
0.504716
0.246112
0.218417
0.358189
0.444399
0.300296
0.356319
0.30232
0.280434
0.301471
0.373871
0.313926
0.281719
0.423972
0.304871
0.199848
0.344277
0.286071
0.429855
0.494252
0.289419
0.296784
0.294158
0.297905
0.246525
0.301
0.257771
0.475541
0.434648
0.398396
0.301966
0.235105
0.421165
0.485028
0.273669
0.341086
0.283666
0.201928
0.329623
0.29367
0.197378
0.260322
0.381709
0.251413
0.227245
0.252856
0.434629
0.244863
0.428128
0.324566
0.277658
0.288958
0.266122
0.429527
0.210039
0.303546
0.30967
0.240163
0.356531
0.404034
0.358156
0.3197
0.413621
0.251758
0.25412
0.463223
0.277918
0.459546
0.360224
0.296127
0.360516
0.44838
0.328343
0.222092
0.47194
0.272996
0.305114
0.449977
0.268626
0.480767
0.27638
0.306715
0.198637
0.310709
0.25435
0.333612
0.255382
0.202942
0.2528
0.247039
0.206166
0.464506
0.247732
0.304936
0.360125
0.332828
0.486511
0.489196
0.278614
0.329271
0.433615
0.269368
0.464741
0.215115
0.293157
0.348564
0.275603
0.43578
0.287293
0.294198
0.295019
0.281569
0.272945
0.201243
0.451131
0.0918538
0.48091
0.40194
0.254643
0.225659
0.260072
0.506132
0.407103
0.381378
0.325385
0.358828
0.309285
0.449747
0.422034
0.267651
0.374845
0.484223
0.312317
0.338435
0.382695
0.219895
0.252495
0.434595
0.303344
0.32219
0.481324
0.244466
0.217059
0.28632
0.320296
0.308552
0.49558
0.274247
0.236931
0.271643
0.319794
0.27547
0.457328
0.326956
0.2656
0.279356
0.274223
0.270199
0.29375
0.374137
0.339705
0.26279
0.457512
0.292947
0.439197
0.263372
0.245383
0.307586
0.453663
0.485559
0.430838
0.321768
0.313543
0.428695
0.49068
0.243667
0.466066
0.255373
0.389769
0.370785
0.455737
0.323059
0.446744
0.472428
0.286206
0.283637
0.305791
0.337339
0.259711
0.242187
0.240187
0.406268
0.436471
0.23997
0.471241
0.326916
0.415514
0.321371
0.256489
0.434347
0.422132
0.290263
0.291242
0.254067
0.489146
0.407314
0.493593
0.236437
0.258559
0.312259
0.440326
0.3796
0.462357
0.352666
0.492602
0.280793
0.313954
0.338092
0.28725
0.358788
0.217246
0.428266
0.32778
0.346491
0.466894
0.230855
0.24188
0.216219
0.36821
0.452969
0.293669
0.385856
0.224469
0.23461
0.323824
0.285826
0.277126
0.458392
0.339888
0.268246
0.312362
0.36691
0.477428
0.369993
0.299824
0.450968
0.340824
0.479384
0.328957
0.395642
0.297748
0.239043
0.501008
0.259813
0.358263
0.352759
0.463433
0.392423
0.317857
0.282293
0.493459
0.316907
0.266447
0.410862
0.48596
0.405749
0.379706
0.232618
0.19899
0.336161
0.265499
0.30417
0.337618
0.262164
0.475609
0.488701
0.468991
0.293156
0.298739
0.27693
0.298344
0.396177
0.243644
0.393356
0.474635
0.249999
0.292305
0.282277
0.440323
0.380849
0.297765
0.266409
0.402219
0.272768
0.2135
0.250349
0.501328
0.207078
0.425782
0.378169
0.277515
0.482235
0.345227
0.506417
0.176376
0.294992
0.350784
0.469367
0.300238
0.465325
0.345442
0.206027
0.313602
0.284104
0.302394
0.199902
0.426774
0.292248
0.267145
0.218837
0.318319
0.460038
0.172014
0.295808
0.451535
0.313303
0.448028
0.211081
0.272681
0.276729
0.30578
0.26265
0.234247
0.271725
0.176779
0.298111
0.295858
0.417581
0.354172
0.453638
0.267769
0.302193
0.235716
0.343659
0.180683
0.306339
0.494668
0.322925
0.291332
0.506334
0.267083
0.353275
0.379528
0.237597
0.289682
0.326846
0.363583
0.475406
0.485207
0.48626
0.368667
0.318927
0.294237
0.258691
0.446573
0.39437
0.279456
0.289736
0.292225
0.322798
0.506329
0.308768
0.504586
0.27447
0.384733
0.260159
0.274378
0.237445
0.285502
0.460403
0.294093
0.242178
0.257121
0.498884
0.293441
0.262378
0.258529
0.272806
0.405517
0.35023
0.358135