/*--------------------------------*- C++ -*----------------------------------*\
  =========                 |
  \\      /  F ield         | OpenFOAM: The Open Source CFD Toolbox
   \\    /   O peration     | Website:  https://openfoam.org
    \\  /    A nd           | Version:  6
     \\/     M anipulation  |
\*---------------------------------------------------------------------------*/
FoamFile
{
    version     2.0;
    format      ascii;
    class       volScalarField;
    location    "0";
    object      p;
}
// * * * * * * * * * * * * * * * * * * * * * * * * * * * * * * * * * * * * * //

dimensions      [0 2 -2 0 0 0 0];

internalField   nonuniform List<scalar> 
918
(
0.1933
0.96588
0.00893936
0.192919
-0.000660596
0.934446
-0.849366
0.371795
0.171762
-0.48294
-0.0653655
0.163424
0.786026
0.552201
-1.51938
0.0060349
0.331219
-0.725669
0.170775
-0.00338935
0.44799
0.177831
0.181048
0.172972
0.229698
0.526423
0.65779
0.000600216
-0.0018507
-0.00403113
0.00475257
-0.003252
0.000742535
0.807505
0.853796
0.87251
0.140634
-0.0107716
-0.725595
-0.785477
-0.757716
-0.895295
0.358529
0.361117
-0.516054
0.370921
0.385844
0.158308
0.171055
0.171844
0.173093
0.172078
0.173392
0.159839
-0.482348
-0.511637
-0.470223
-0.45591
-0.106742
-0.101604
-0.151089
-0.0409602
-0.0275481
0.0965604
0.161112
0.15916
0.168075
0.178461
0.891371
0.863306
0.886105
0.811161
0.828357
0.760124
0.732284
0.572349
0.595195
0.538223
0.527124
-1.98914
-2.96906
-0.924241
-0.639768
0.00066819
0.00681291
0.00692023
0.315862
0.31637
0.327247
0.339315
0.688534
-0.706463
-0.857301
0.170193
0.169216
0.17715
0.178645
0.174981
0.174396
0.00405841
0.0125237
-0.0107534
-0.0034592
-0.00724906
0.424872
0.419849
0.172205
0.169856
0.188119
0.212574
0.199876
-0.0668662
0.23997
0.258332
0.355261
0.521183
0.514121
0.524091
0.631685
0.600409
0.690173
0.714693
0.0140797
0.00397906
-0.00260782
0.000660142
-0.00254441
0.136864
0.131429
0.154304
0.144105
0.146957
-0.108663
-0.255506
0.0690862
0.0953197
-0.63589
-0.685232
-0.807439
-0.796377
-0.885239
0.201926
0.353659
0.352599
-0.536486
-0.45296
-0.589616
-0.392435
-0.455244
0.150578
0.156021
0.152847
0.167091
0.160824
0.163704
0.174923
0.172249
0.173709
0.164116
0.290943
0.0837525
0.0208107
-0.604377
-0.534585
-0.589217
-0.438081
-0.3852
-0.103052
-0.106385
-0.102268
-0.0565598
-0.33972
-0.204565
-0.272525
-0.0101691
-0.00620692
0.0884564
0.0781522
0.106186
0.112237
0.151435
0.153366
0.156113
0.154277
0.680357
0.703577
0.711625
0.687922
-3.97593
-6.69821
-0.282387
-0.117198
0.00247766
0.00285587
0.00201604
0.00460574
0.00290916
0.000809963
-0.00977646
-0.00314456
0.00720649
0.00491541
0.304803
0.306922
0.643043
0.672348
0.650285
0.642561
0.15912
0.161179
0.166128
0.16317
0.00322316
0.0140118
0.0061936
0.388133
0.404005
0.399756
-0.104998
-0.191048
-0.0198512
0.00889769
0.29608
0.271673
0.291498
0.418034
0.460168
0.727973
0.752339
0.73955
0.755449
0.803435
0.823356
0.788739
0.116983
0.127117
0.121509
0.157894
0.155785
0.156897
0.151077
0.152864
0.150657
-0.388377
-0.763111
0.160029
0.166161
0.133136
0.142012
0.27634
0.353425
0.337643
0.342446
0.3466
-0.344104
-0.397873
0.0149395
-0.0170482
0.0349904
0.0675223
0.051081
0.655754
0.618877
0.666035
0.641572
0.60493
0.626893
-0.697293
-2.48099
-1.432
0.29329
0.0871861
0.184213
-0.023105
-0.0260673
-0.0158823
0.677784
0.71167
0.334362
0.523076
0.479625
0.490312
0.519509
0.574176
0.507094
0.54039
0.572748
0.550917
0.17504
0.159585
0.155489
0.435499
0.501488
-0.224773
-0.292454
-0.325359
-0.105079
-0.0513789
-0.0811918
0.677507
0.567981
0.634549
0.169877
0.170353
0.0111826
0.0170389
0.173891
0.174119
0.00560654
0.00518026
0.190042
-1.27994
-0.208117
0.162726
0.153451
0.16973
-0.44647
-0.0104942
-0.107162
-0.0899227
0.0656209
0.160441
0.10711
0.0729838
0.00478641
0.0122953
-0.00620521
-0.520679
0.167446
0.165921
0.169303
0.170295
0.170954
0.00525323
0.00708399
0.00508643
-0.00150303
7.12037e-05
-0.00232086
0.136003
0.152149
-0.516184
0.169309
0.171483
0.17121
0.164714
0.170242
0.168512
0.0107163
0.00621165
0.000715257
-0.119943
0.0045272
0.40525
0.506595
0.337141
0.155024
-0.138107
0.325754
0.386829
0.297485
0.449242
0.340392
0.351931
-0.147833
-0.288701
-0.148604
-0.204094
0.160573
0.159509
0.15136
0.148926
0.165089
0.163163
0.167376
0.164532
0.167225
0.168552
-0.488172
-0.461176
-0.432419
-0.492182
0.00624867
0.241676
-0.13742
0.0146908
-0.112536
-0.0746398
-0.0466317
-0.177682
-0.212668
-0.193751
0.0272458
-0.00437917
-0.0759927
0.0700385
0.00107671
-0.130689
-0.0122433
-0.0652198
0.15444
0.15246
0.161079
0.16784
0.114991
0.117023
0.0893055
0.10549
0.0927351
0.0419523
0.0700149
0.0474944
0.0065343
0.00684125
0.00550289
0.0164425
0.0122204
0.00748601
0.00852745
0.0115668
0.00384386
0.00565345
-0.00284196
0.00690035
-0.493661
-0.616706
0.634834
0.608842
-0.199356
0.156748
0.162987
0.159771
0.164556
0.167413
0.167909
0.165877
0.162575
0.152416
0.154462
0.150653
0.150852
-0.461677
-0.568948
-0.39742
-0.465791
-0.199705
0.279773
0.0110738
-0.0377027
-0.05196
0.160384
0.373109
0.322799
0.437999
0.432173
-0.732877
-0.306703
-0.654286
-0.10398
-0.146884
0.42313
0.47014
0.491322
0.444325
0.394872
-0.391823
0.173549
-0.384451
-0.343371
-0.161453
-0.258401
0.386977
0.320509
0.325257
0.344434
0.368256
0.331399
0.311145
0.307413
0.33711
0.342301
0.154854
-0.0884744
-0.119211
-0.168499
0.308838
0.187249
0.238078
0.160014
0.155576
0.15834
0.156635
0.140922
0.146758
0.143211
0.147475
0.150782
0.16035
0.160377
0.156003
0.157982
-0.458736
-0.444156
-0.454548
-0.472125
-0.480802
-0.533082
-0.439421
-0.25621
-0.359758
-0.0693182
0.0397536
-0.263913
-0.430959
-0.390477
-0.350418
-0.122056
-0.121572
-0.506688
-0.132531
-0.370135
-0.40997
-0.112985
-0.0365315
-0.186109
-0.254283
-0.335344
-0.223903
-0.142869
-0.170232
-0.182603
-0.00783409
-0.0498973
-0.0340875
-0.0103139
-0.434772
-0.390345
-0.362463
-0.565518
0.0117151
0.0135591
0.0142162
0.00964168
0.0170161
0.0184793
0.150443
0.149856
0.151735
0.163357
0.175025
0.189738
0.158748
0.134166
0.126885
0.128861
0.104149
0.112346
0.107364
0.1211
0.140415
0.147316
0.145264
0.147794
0.132967
0.133531
0.121869
0.126194
0.10226
0.086425
0.0789195
0.00924572
0.00678404
0.00797282
0.00744204
0.0092832
0.0100522
0.0239005
0.0185651
0.0204878
0.0170391
0.00727738
0.0127375
0.00916502
-0.421622
-0.358161
-0.525141
-0.567045
-0.623672
0.547173
0.657239
0.484723
0.273899
0.263602
0.485041
0.574612
0.258088
0.407766
0.462045
0.184664
0.454078
0.161353
0.160353
0.158305
0.157606
0.158855
-0.36385
-0.26927
-0.242902
-0.197238
-0.0743171
0.037649
-0.0491433
-0.173705
-0.0382967
-0.00860493
0.274859
0.288461
0.232802
0.258959
0.259542
0.080247
0.156272
0.201336
0.151246
0.214862
0.246092
0.193247
0.237435
0.164241
0.120638
0.115161
0.064131
0.0989572
0.0794533
0.0538073
0.151642
0.131766
0.140886
0.135031
0.151138
0.181247
0.178402
0.196809
0.213027
0.137977
0.0938923
0.108094
0.132838
0.0957527
0.109657
0.127369
-0.171917
-0.261421
-0.121742
-0.470999
-0.344928
-0.327165
-0.364661
-0.412105
-0.100745
-0.771249
-0.705433
-1.39224
0.110819
0.518517
0.346287
0.359202
0.36536
0.343188
0.353648
0.377337
0.38363
0.300078
0.309445
0.317151
0.270495
0.302869
0.313587
0.318238
0.144266
0.0660353
0.0560874
0.00475459
-0.127204
-0.0925531
0.0827492
0.0239225
-0.0409325
-0.0421171
0.118766
0.00110033
0.0691344
0.118262
0.0647264
0.000924178
0.208806
0.268405
0.25392
0.225174
0.143227
0.160524
0.185373
0.224311
0.244833
0.275373
0.148014
0.153698
0.154387
0.15177
0.150533
0.152742
0.152216
0.155134
0.156034
0.158531
0.1578
-0.299811
-0.361438
-0.422098
-0.355519
-0.593288
-0.549311
-0.428136
-0.463792
-0.490302
-0.587729
-0.584313
-0.521293
-0.457081
-0.435501
-0.379669
-0.338255
-0.275963
-0.355683
-0.0617375
0.106804
0.141703
0.0319324
-0.104252
-0.0839596
0.0141475
-0.39918
-0.212396
-0.250961
-0.239604
-0.416316
-0.0726981
-0.0584602
-0.0649998
-0.0606199
-0.106741
-0.0426018
0.0053608
-0.0019465
-0.0147401
-0.00251985
0.00535591
0.137496
0.131804
0.128823
0.123941
0.123873
0.134423
0.139508
0.141519
0.14662
0.148205
0.140168
0.145214
0.147617
0.0189737
0.0113361
0.0166809
0.00274267
0.00744769
0.0109657
0.00536317
-0.249952
-0.314748
-0.284022
-0.348254
-0.46971
-0.408799
0.123574
0.115092
0.142649
0.324098
0.177913
0.0920154
0.178855
0.281943
-0.102666
0.10361
-0.0649471
0.521185
0.406869
0.550962
0.185656
-0.116413
0.0292003
0.0488377
-0.108326
-0.00223025
-0.0139465
-0.132446
-0.0942694
-0.0780848
0.000390453
-0.0970124
-0.122124
-0.358954
-0.185517
-0.065722
-0.0863932
0.0496409
0.111461
-0.103939
-0.185638
-0.240287
0.267857
0.284056
0.297536
0.268854
0.292265
0.219191
0.212644
0.230681
0.24059
0.231482
-1.04123
-0.654036
-1.80947
-1.19359
-0.753105
0.136801
0.120401
0.372685
0.28386
0.356899
0.34161
0.285519
0.251424
0.265817
0.30036
-0.00090704
0.108339
0.0692312
0.0912981
0.0241353
-0.054078
0.237036
0.233123
0.262406
0.284177
0.259925
0.285915
0.146758
0.145593
0.145778
0.142808
0.140769
0.142501
-0.522235
-0.602511
-0.437657
-0.440291
-0.488767
-0.551978
0.022538
-0.00260272
-0.000569409
0.00431559
0.0289508
0.0242734
-0.20443
-0.260215
-0.339432
-0.313419
-0.363302
-0.423977
-0.437299
-0.348848
-0.259827
-0.280843
0.0268135
0.305802
0.129616
0.305587
0.0939027
0.199411
0.135308
0.113128
0.151065
0.0206409
0.0998426
-0.341086
-0.565713
-0.598382
0.423542
0.386078
0.179257
-0.0744364
-0.198692
0.0972314
0.170099
0.135667
0.171564
0.21698
0.212701
-0.379093
-0.288444
-0.201917
0.093452
-0.1059
-0.101965
-0.100426
0.0416843
0.0144624
)
;

boundaryField
{
    wall-4
    {
        type            zeroGradient;
    }
    velocity-inlet-5
    {
        type            zeroGradient;
    }
    velocity-inlet-6
    {
        type            zeroGradient;
    }
    pressure-outlet-7
    {
        type            fixedValue;
        value           uniform 0;
    }
    wall-8
    {
        type            zeroGradient;
    }
    frontAndBackPlanes
    {
        type            empty;
    }
}

