/*--------------------------------*- C++ -*----------------------------------*\
  =========                 |
  \\      /  F ield         | OpenFOAM: The Open Source CFD Toolbox
   \\    /   O peration     | Website:  https://openfoam.org
    \\  /    A nd           | Version:  6
     \\/     M anipulation  |
\*---------------------------------------------------------------------------*/
FoamFile
{
    version     2.0;
    format      ascii;
    class       volScalarField;
    location    "./ITHACAoutput/Offline/1";
    object      P_rec;
}
// * * * * * * * * * * * * * * * * * * * * * * * * * * * * * * * * * * * * * //

dimensions      [0 2 -2 0 0 0 0];

internalField   nonuniform List<scalar> 
13046
(
0.820042
0.773547
0.866047
0.812703
0.860226
0.801402
0.799982
0.79798
0.867351
0.651921
0.54669
0.891843
0.802106
0.756227
0.872741
0.702981
0.889033
0.560508
0.854224
0.832352
0.79907
0.69261
0.891066
0.561496
0.824476
0.80031
0.853032
0.798906
0.745542
0.876087
0.828467
0.762177
0.862236
0.829336
0.851161
0.803483
0.824504
0.850826
0.813022
0.850063
0.851127
0.744448
0.822067
0.840954
0.829029
0.819023
0.840306
0.83087
0.809362
0.773328
0.86876
0.829005
0.870901
0.707585
0.824593
0.700157
0.876568
0.625952
0.793651
0.879436
0.74434
0.74873
0.886442
0.890127
0.631582
0.711157
0.807297
0.630193
0.874418
0.815349
0.641508
0.871867
0.608663
0.785883
0.880529
0.853283
0.839962
0.78831
0.886605
0.761268
0.600094
0.816708
0.798433
0.856957
0.889646
0.613515
0.697629
0.678572
0.895474
0.664495
0.899297
0.633011
0.680996
0.767448
0.752993
0.700483
0.692168
0.882952
0.888187
0.897777
0.674793
0.679248
0.815362
0.848393
0.823754
0.875931
0.728667
0.81699
0.862072
0.839277
0.728229
0.584906
0.889534
0.470153
0.808858
0.768124
0.867031
0.764038
0.771642
0.666464
0.884668
0.686488
0.882608
0.640369
0.525405
0.892132
0.787415
0.718012
0.882713
0.84448
0.85584
0.742491
0.896755
0.64266
0.69995
0.728935
0.680035
0.890986
0.825183
0.752162
0.864376
0.771016
0.793899
0.873536
0.8666
0.831727
0.725083
0.874388
0.743018
0.821025
0.743303
0.732403
0.888275
0.872964
0.768398
0.816251
0.797954
0.698689
0.784013
0.697247
0.885264
0.889093
0.756739
0.796773
0.877846
0.63962
0.893859
0.562215
0.609956
0.88929
0.488814
0.726387
0.664534
0.891808
0.845719
0.708126
0.86105
0.759015
0.87417
0.806387
0.898341
0.592256
0.641978
0.848135
0.7209
0.855461
0.872732
0.757493
0.814847
0.778595
0.798944
0.869798
0.749372
0.880931
0.792088
0.732607
0.877707
0.681183
0.893544
0.632249
0.897863
0.664631
0.698869
0.64461
0.663786
0.896087
0.830241
0.67792
0.869591
0.788838
0.768882
0.885946
0.596749
0.641715
0.641653
0.900453
0.815074
0.853674
0.816751
0.809507
0.746627
0.873458
0.898836
0.653884
0.706674
0.784293
0.758448
0.881937
0.894982
0.529073
0.603896
0.873239
0.678241
0.82105
0.658116
0.679534
0.896064
0.722501
0.789767
0.884797
0.789625
0.710093
0.882735
0.746068
0.655251
0.893929
0.684731
0.775709
0.889176
0.893704
0.529061
0.587257
0.860197
0.848455
0.716864
0.60598
0.88628
0.435863
0.85457
0.804756
0.8249
0.739693
0.735834
0.777259
0.790651
0.883554
0.880774
0.883373
0.75143
0.586872
0.802878
0.718303
0.876449
0.678739
0.759672
0.894796
0.744846
0.671318
0.886836
0.829131
0.82134
0.841297
0.711408
0.778969
0.888596
0.806074
0.705966
0.876784
0.788949
0.783086
0.862343
0.846355
0.704922
0.709773
0.764889
0.890118
0.73047
0.888601
0.662737
0.865922
0.838722
0.734014
0.88651
0.683863
0.798006
0.784562
0.667323
0.87869
0.868859
0.836342
0.701328
0.775188
0.765919
0.654511
0.881003
0.652781
0.885478
0.89549
0.600886
0.655712
0.780232
0.694046
0.881872
0.407001
0.890689
0.540729
0.784402
0.863587
0.819635
0.756295
0.756764
0.883066
0.893521
0.694808
0.647836
0.820654
0.688444
0.877101
0.730232
0.654452
0.896329
0.775429
0.874353
0.760942
0.735453
0.883982
0.778131
0.876524
0.718274
0.886915
0.577861
0.837018
0.665025
0.869173
0.753273
0.726021
0.884037
0.757721
0.792036
0.879639
0.723087
0.820886
0.874704
0.814169
0.784205
0.864932
0.881051
0.685933
0.807076
0.664849
0.644167
0.893295
0.727821
0.660511
0.895953
0.827308
0.865627
0.656766
0.768165
0.776029
0.636554
0.62285
0.880884
0.880199
0.887372
0.419866
0.562871
0.620065
0.887742
0.451107
0.734946
0.768737
0.882189
0.892827
0.677351
0.613943
0.804428
0.796986
0.659918
0.656222
0.876767
0.87842
0.895661
0.619196
0.608524
0.597666
0.887264
0.406292
0.803372
0.84399
0.839302
0.587348
0.441914
0.887825
0.835966
0.709187
0.863867
0.643596
0.605393
0.899811
0.419541
0.886715
0.493869
0.851798
0.846973
0.756087
0.798676
0.823499
0.85638
0.645495
0.893312
0.517643
0.78921
0.819939
0.85995
0.81081
0.841056
0.8383
0.880409
0.666756
0.817216
0.781388
0.839006
0.852775
0.784324
0.826436
0.86059
0.835836
0.662488
0.861231
0.894071
0.895953
0.565895
0.568329
0.677161
0.668374
0.648423
0.634288
0.893924
0.870471
0.824308
0.641909
0.852901
0.849501
0.725055
0.672148
0.77899
0.887892
0.491123
0.891477
0.520978
0.899978
0.631507
0.665491
0.61768
0.892255
0.510895
0.884036
0.395869
0.488252
0.365952
0.882928
0.517324
0.739952
0.715605
0.888751
0.57316
0.894304
0.571381
0.714457
0.680362
0.892411
0.691943
0.88613
0.513738
0.800585
0.869122
0.780032
0.634952
0.897873
0.619228
0.673697
0.885814
0.788696
0.749935
0.682346
0.895622
0.878778
0.299098
0.435272
0.428847
0.890527
0.525232
0.807614
0.867926
0.786793
0.606889
0.611059
0.894218
0.897818
0.589162
0.609732
0.68132
0.891374
0.607611
0.886562
0.597825
0.737386
0.844843
0.655258
0.860955
0.638221
0.788263
0.882253
0.886888
0.731451
0.558735
0.821277
0.816343
0.720083
0.707217
0.869754
0.873526
0.830555
0.720346
0.865935
0.81329
0.652298
0.876933
0.73613
0.672744
0.894152
0.6315
0.643121
0.90135
0.894521
0.678532
0.714005
0.372877
0.88486
0.536603
0.842664
0.835851
0.857135
0.758026
0.859584
0.764909
0.827187
0.829656
0.866656
0.675112
0.870732
0.687104
0.440374
0.889428
0.490295
0.614524
0.621899
0.895068
0.855718
0.846596
0.698525
0.758443
0.66358
0.892481
0.885446
0.604254
0.747118
0.480183
0.564781
0.890976
0.504016
0.571974
0.892834
0.793859
0.667755
0.881088
0.868338
0.83307
0.7441
0.674653
0.891868
0.587188
0.735244
0.699839
0.893396
0.8917
0.640148
0.725212
0.836203
0.864825
0.687109
0.724737
0.8013
0.880888
0.855075
0.847964
0.735283
0.893715
0.584745
0.658182
0.750316
0.659103
0.886707
0.849097
0.849582
0.762663
0.718568
0.886958
0.539787
0.823817
0.743066
0.867251
0.778039
0.805589
0.872519
0.754795
0.697867
0.890809
0.651395
0.887742
0.472117
0.665168
0.887811
0.478931
0.890859
0.62912
0.729253
0.712721
0.806654
0.880351
0.886722
0.444749
0.63341
0.893289
0.665214
0.702917
0.884648
0.379971
0.461541
0.503654
0.333186
0.882526
0.888612
0.573746
0.730231
0.895196
0.555445
0.622965
0.697147
0.704911
0.888029
0.578112
0.888906
0.598576
0.692774
0.675461
0.894016
0.893765
0.771825
0.657504
0.83415
0.85605
0.78009
0.691236
0.700917
0.895974
0.896112
0.692329
0.714222
0.744204
0.885143
0.564401
0.824952
0.662381
0.872029
0.830854
0.69862
0.864988
0.724787
0.725447
0.89074
0.715155
0.724262
0.892739
0.85113
0.844127
0.774609
0.816355
0.695279
0.875631
0.899975
0.6479
0.610832
0.554689
0.894029
0.51859
0.538842
0.891139
0.516449
0.841905
0.859701
0.730883
0.464185
0.888752
0.538418
0.742672
0.88832
0.638285
0.890874
0.46906
0.517529
0.811672
0.857775
0.811591
0.782947
0.738719
0.879794
0.815079
0.712084
0.878203
0.895332
0.587145
0.586006
0.739759
0.696044
0.894761
0.886411
0.705377
0.536228
0.7696
0.729525
0.885153
0.833688
0.854726
0.788041
0.581954
0.602966
0.897529
0.893856
0.6464
0.708048
0.638126
0.623457
0.887506
0.888378
0.495356
0.478396
0.750794
0.778298
0.883795
0.75088
0.722476
0.885649
0.788332
0.799144
0.870686
0.544495
0.570251
0.55126
0.895696
0.56637
0.896056
0.749015
0.703619
0.890617
0.605044
0.589249
0.566512
0.549562
0.89566
0.893166
0.717849
0.763234
0.891539
0.770369
0.760853
0.879063
0.677861
0.889311
0.507392
0.759833
0.767704
0.883908
0.785645
0.790006
0.871774
0.65146
0.887924
0.489421
0.775579
0.714358
0.880645
0.797091
0.663055
0.885705
0.841262
0.675894
0.861763
0.714614
0.897936
0.639281
0.881729
0.323934
0.456521
0.763364
0.751715
0.882053
0.683781
0.887487
0.540142
0.84958
0.659938
0.857096
0.551365
0.883999
0.371333
0.867357
0.868338
0.824681
0.756765
0.826754
0.749774
0.787819
0.807167
0.86788
0.858539
0.860416
0.838693
0.757301
0.835959
0.760163
0.770351
0.771218
0.881682
0.768472
0.776059
0.882351
0.894681
0.536189
0.541602
0.835844
0.731703
0.860956
0.622885
0.571475
0.896137
0.725812
0.717268
0.709567
0.695348
0.888878
0.889721
0.831204
0.74449
0.863009
0.809692
0.675622
0.873966
0.743969
0.725078
0.890091
0.837005
0.801307
0.844525
0.705056
0.705903
0.894374
0.839327
0.851952
0.77746
0.73091
0.755216
0.890601
0.805336
0.688942
0.874781
0.836393
0.842676
0.792482
0.850359
0.788933
0.84701
0.854785
0.836531
0.859519
0.777829
0.838382
0.768215
0.818948
0.811561
0.730835
0.732089
0.870418
0.871478
0.886592
0.609687
0.738074
0.881888
0.673314
0.806715
0.890341
0.890736
0.597348
0.608326
0.724284
0.718052
0.867218
0.839257
0.689098
0.832563
0.841766
0.816768
0.706065
0.69205
0.893922
0.841915
0.857672
0.747975
0.798864
0.685452
0.877224
0.759534
0.758232
0.622453
0.886647
0.634313
0.885914
0.737442
0.697041
0.888479
0.568877
0.399551
0.884925
0.84372
0.670027
0.86084
0.850278
0.850914
0.853912
0.664498
0.855764
0.674772
0.68245
0.727878
0.895342
0.816034
0.681237
0.872811
0.862273
0.843725
0.686975
0.847859
0.844851
0.853595
0.861308
0.696373
0.697332
0.846245
0.858098
0.681432
0.735537
0.709478
0.890106
0.844485
0.84777
0.780816
0.659629
0.889067
0.527774
0.860354
0.846964
0.676912
0.798381
0.786708
0.694125
0.684216
0.87607
0.882581
0.888829
0.543458
0.675065
0.677082
0.89006
0.519168
0.663023
0.887932
0.511226
0.74672
0.887619
0.627537
0.819256
0.694769
0.871936
0.648059
0.723298
0.838554
0.653177
0.794637
0.495574
0.756755
0.683031
0.644502
0.791791
0.790277
0.629589
0.657201
0.785808
0.704899
0.669156
0.663004
0.700726
0.72118
0.766789
0.723083
0.697832
0.804366
0.884564
0.848738
0.72551
0.80118
0.636538
0.735422
0.647311
0.643617
0.755774
0.717706
0.712021
0.659032
0.724743
0.836753
0.799905
0.67924
0.733836
0.688382
0.878905
0.668623
0.786882
0.810428
0.692035
0.694046
0.680111
0.633258
0.669927
0.855851
0.724465
0.669036
0.694734
0.64206
0.853647
0.767852
0.720847
0.68242
0.780412
0.668132
0.672867
0.851084
0.693573
0.718936
0.770214
0.730849
0.868561
0.800889
0.789233
0.623111
0.641691
0.695389
0.775742
0.635217
0.710899
0.726076
0.655775
0.777481
0.82006
0.700675
0.712954
0.635874
0.663152
0.681444
0.781168
0.680927
0.665652
0.699677
0.852879
0.670967
0.779961
0.845163
0.713637
0.663335
0.449096
0.658855
0.682271
0.66197
0.620691
0.746322
0.808116
0.813449
0.865477
0.664565
0.649386
0.636278
0.676564
0.660711
0.837167
0.813642
0.76226
0.656165
0.646229
0.73933
0.79787
0.69364
0.666769
0.612953
0.697884
0.710174
0.848199
0.858341
0.780568
0.727583
0.697472
0.631821
0.867977
0.613825
0.772848
0.619268
0.848899
0.638179
0.579367
0.637649
0.82054
0.70444
0.593333
0.66748
0.762122
0.662543
0.785483
0.751565
0.677596
0.81068
0.694945
0.660465
0.828314
0.669691
0.698058
0.630847
0.734818
0.678613
0.821279
0.780811
0.692839
0.776775
0.785625
0.839911
0.726859
0.691766
0.67596
0.788517
0.612333
0.724709
0.638062
0.882258
0.698244
0.81915
0.868445
0.726732
0.87126
0.824108
0.840323
0.649478
0.61427
0.6307
0.840803
0.652032
0.641241
0.603302
0.642409
0.701511
0.690572
0.727473
0.868086
0.779396
0.689457
0.774629
0.687882
0.879549
0.565919
0.806236
0.676696
0.61009
0.855558
0.870777
0.674138
0.681211
0.880411
0.737783
0.662373
0.660843
0.779635
0.833248
0.766912
0.668302
0.683654
0.793845
0.730711
0.668253
0.710567
0.601898
0.649518
0.698676
0.768751
0.615711
0.675851
0.811519
0.678589
0.614131
0.692368
0.671909
0.686975
0.750723
0.756363
0.660474
0.640084
0.631686
0.769473
0.756372
0.684053
0.757247
0.694439
0.653366
0.741769
0.689663
0.602191
0.750131
0.826996
0.730551
0.83991
0.831557
0.882932
0.665835
0.590867
0.70322
0.690557
0.68364
0.619969
0.74315
0.847362
0.770285
0.737497
0.666472
0.692254
0.769069
0.718284
0.76136
0.67171
0.705965
0.686851
0.594372
0.663066
0.679782
0.670189
0.656693
0.758553
0.727926
0.689267
0.761696
0.665709
0.700665
0.671152
0.692683
0.677773
0.686933
0.737607
0.620025
0.583406
0.711717
0.62694
0.611818
0.73657
0.577657
0.613427
0.82384
0.760313
0.665447
0.752847
0.646965
0.759182
0.705073
0.596572
0.667631
0.801952
0.701864
0.782103
0.497554
0.65333
0.823206
0.684911
0.639447
0.572457
0.619865
0.612808
0.623439
0.693319
0.768531
0.652539
0.60761
0.661776
0.683037
0.881249
0.641823
0.782503
0.745678
0.579635
0.697399
0.663279
0.638621
0.752125
0.692851
0.853227
0.766015
0.657903
0.692352
0.725215
0.886213
0.772212
0.838833
0.783856
0.6907
0.726732
0.699253
0.658253
0.62091
0.681967
0.665536
0.763919
0.67838
0.632559
0.667079
0.683919
0.665617
0.660214
0.813692
0.685509
0.681099
0.842465
0.810383
0.66268
0.713541
0.834604
0.647206
0.571175
0.693226
0.653988
0.638524
0.826162
0.669609
0.705439
0.828883
0.621081
0.730923
0.669193
0.725026
0.693796
0.676802
0.461399
0.694041
0.632448
0.658367
0.691933
0.689507
0.77713
0.852408
0.660818
0.726132
0.678602
0.62371
0.601294
0.805979
0.751908
0.662891
0.637089
0.744557
0.629048
0.654065
0.661441
0.66087
0.761318
0.843653
0.687735
0.773378
0.874776
0.812984
0.805253
0.839786
0.66698
0.684821
0.639004
0.882884
0.800226
0.820696
0.677051
0.685219
0.612012
0.780868
0.690322
0.637884
0.822028
0.759365
0.619383
0.690916
0.666871
0.666856
0.670692
0.692274
0.690369
0.646824
0.688476
0.622929
0.698333
0.651045
0.756108
0.683706
0.616382
0.835855
0.848696
0.782022
0.691487
0.73408
0.568959
0.788998
0.719338
0.626008
0.832856
0.535561
0.854041
0.632808
0.699526
0.714363
0.780889
0.790443
0.663574
0.867589
0.666327
0.811195
0.698523
0.746305
0.685258
0.649387
0.678014
0.812723
0.71235
0.882601
0.770614
0.620667
0.64691
0.757812
0.549777
0.691995
0.700949
0.648772
0.858327
0.615676
0.606703
0.796526
0.682163
0.853746
0.876114
0.68387
0.883407
0.859813
0.816757
0.823745
0.735393
0.634497
0.66639
0.69516
0.806047
0.698752
0.533529
0.867887
0.652863
0.690644
0.663438
0.839915
0.879278
0.659225
0.813702
0.747214
0.851891
0.690053
0.785941
0.681372
0.869989
0.880592
0.763781
0.666173
0.793678
0.680172
0.699823
0.724445
0.708315
0.748621
0.656376
0.543268
0.640558
0.713197
0.75392
0.733038
0.822756
0.661606
0.688264
0.75893
0.642189
0.84448
0.650669
0.681401
0.827438
0.819403
0.740386
0.8717
0.657671
0.683254
0.786384
0.718086
0.685285
0.69827
0.678922
0.755718
0.769519
0.679163
0.667995
0.737804
0.621723
0.646488
0.853864
0.868326
0.880724
0.680645
0.877545
0.879513
0.862065
0.601958
0.742428
0.744504
0.867441
0.691865
0.656426
0.632566
0.666455
0.521765
0.868305
0.700262
0.708741
0.788946
0.765971
0.686586
0.683055
0.879328
0.862601
0.836639
0.767871
0.667949
0.773561
0.755723
0.69139
0.713933
0.648281
0.664945
0.729028
0.708052
0.684626
0.846828
0.854324
0.601631
0.818765
0.671491
0.668076
0.69537
0.844285
0.699068
0.770358
0.69808
0.835917
0.692447
0.698906
0.879374
0.61419
0.620444
0.660473
0.651087
0.586804
0.425672
0.657443
0.59264
0.711829
0.600841
0.650448
0.709795
0.657503
0.657869
0.687444
0.646021
0.447262
0.858045
0.79138
0.687697
0.631104
0.789683
0.672358
0.65664
0.87777
0.660421
0.878743
0.703343
0.825898
0.67497
0.589376
0.647413
0.732575
0.733395
0.712875
0.59261
0.693103
0.658716
0.652926
0.664432
0.622684
0.646192
0.864737
0.647717
0.774803
0.793098
0.694832
0.760568
0.795257
0.632511
0.430303
0.700519
0.621946
0.590077
0.774215
0.783207
0.688801
0.754222
0.687482
0.879521
0.857799
0.696108
0.682207
0.869118
0.828578
0.745927
0.74902
0.690215
0.881036
0.721347
0.600887
0.840769
0.803394
0.853771
0.732048
0.669587
0.693156
0.784934
0.756125
0.384583
0.880603
0.700675
0.662616
0.720692
0.801584
0.871584
0.874772
0.757087
0.715492
0.801197
0.830381
0.820537
0.77391
0.806445
0.59494
0.669615
0.741552
0.639319
0.593204
0.615646
0.699293
0.796434
0.625482
0.728529
0.661614
0.777179
0.875319
0.700882
0.63537
0.609156
0.747854
0.683155
0.663763
0.616798
0.828026
0.736809
0.741165
0.624621
0.740621
0.662497
0.669698
0.782589
0.794183
0.828518
0.878467
0.657436
0.83093
0.603952
0.841612
0.841131
0.851608
0.797015
0.649204
0.648434
0.688682
0.597776
0.716315
0.620628
0.737897
0.628057
0.817212
0.693715
0.605232
0.820663
0.772883
0.707765
0.706624
0.770011
0.835882
0.731687
0.718632
0.6052
0.80852
0.694561
0.851867
0.589826
0.707113
0.842018
0.779934
0.873593
0.777986
0.693021
0.576727
0.609536
0.70764
0.625763
0.864971
0.600412
0.658756
0.707802
0.670745
0.779052
0.593854
0.819976
0.783171
0.744783
0.54412
0.753813
0.636083
0.673126
0.707642
0.707977
0.679372
0.673194
0.798814
0.652768
0.872604
0.682899
0.679304
0.764521
0.774071
0.861074
0.678679
0.685506
0.658754
0.714551
0.674091
0.855665
0.663518
0.721593
0.690801
0.808288
0.655291
0.732129
0.64138
0.876567
0.596828
0.647551
0.641958
0.812312
0.608454
0.61853
0.645896
0.633391
0.851102
0.719946
0.770705
0.827378
0.759942
0.677242
0.876095
0.699592
0.779203
0.757523
0.729063
0.615221
0.737887
0.699654
0.671084
0.735132
0.621499
0.620359
0.723172
0.655709
0.652069
0.799313
0.707728
0.741208
0.702159
0.847809
0.708456
0.693046
0.760871
0.631605
0.66194
0.690601
0.732815
0.737705
0.754324
0.845244
0.769849
0.805255
0.724195
0.832364
0.867594
0.862181
0.687082
0.722812
0.746946
0.633508
0.873315
0.827841
0.811521
0.711238
0.651001
0.615712
0.747765
0.776988
0.655736
0.809033
0.826158
0.749898
0.66888
0.710034
0.678163
0.647435
0.711552
0.667432
0.73954
0.616317
0.741627
0.70316
0.696002
0.594321
0.738922
0.717501
0.773867
0.689453
0.734821
0.847893
0.855695
0.740542
0.703945
0.803964
0.722904
0.662244
0.662307
0.697553
0.628906
0.841729
0.715333
0.727976
0.786545
0.775349
0.750104
0.617274
0.87901
0.759503
0.67047
0.716559
0.717509
0.803867
0.849293
0.760602
0.748616
0.608402
0.653845
0.697013
0.745378
0.71968
0.740999
0.679605
0.853337
0.75137
0.767271
0.833547
0.735569
0.663078
0.729006
0.874754
0.660399
0.605483
0.7276
0.875661
0.68203
0.698169
0.801244
0.774379
0.81668
0.708214
0.611613
0.746938
0.642619
0.685007
0.816932
0.703469
0.63738
0.660639
0.681802
0.757016
0.688539
0.67225
0.831533
0.675597
0.875446
0.816335
0.629527
0.584125
0.71923
0.780878
0.829792
0.708477
0.695615
0.638664
0.687196
0.709665
0.87719
0.842444
0.779353
0.68399
0.61532
0.821777
0.88337
0.851752
0.806557
0.838025
0.727271
0.647
0.595246
0.606681
0.857758
0.717682
0.608019
0.694606
0.880991
0.691077
0.669655
0.624162
0.707644
0.659452
0.847903
0.748179
0.787933
0.841969
0.817709
0.687536
0.764406
0.727156
0.769406
0.655974
0.751794
0.675313
0.858791
0.596001
0.691298
0.595304
0.695323
0.847027
0.695172
0.81722
0.823169
0.842923
0.647828
0.724512
0.695131
0.648206
0.854045
0.731857
0.730658
0.745926
0.507647
0.696965
0.828075
0.763361
0.8555
0.60042
0.647944
0.687469
0.85952
0.626176
0.710594
0.661664
0.611819
0.680842
0.828757
0.69127
0.698049
0.62629
0.842935
0.875721
0.513813
0.819695
0.689258
0.650133
0.649873
0.723345
0.630393
0.758064
0.688594
0.687535
0.699477
0.792565
0.714942
0.81452
0.702674
0.6426
0.698508
0.600114
0.617878
0.708631
0.656722
0.7384
0.653171
0.706235
0.823531
0.753317
0.688051
0.587821
0.827852
0.708326
0.712023
0.884399
0.74013
0.686694
0.635785
0.603461
0.863873
0.679316
0.710092
0.752021
0.635482
0.831967
0.594906
0.829084
0.722525
0.791908
0.663146
0.789618
0.706545
0.632263
0.661989
0.723501
0.842101
0.583833
0.665084
0.671193
0.862009
0.870542
0.634315
0.678475
0.754423
0.829684
0.707059
0.850473
0.828824
0.811864
0.790778
0.734918
0.75256
0.73261
0.855062
0.71191
0.730884
0.635495
0.667514
0.708199
0.651179
0.867288
0.60218
0.842599
0.707977
0.862183
0.683631
0.866298
0.791517
0.793868
0.864035
0.84918
0.884125
0.693507
0.834645
0.720255
0.688174
0.668547
0.653473
0.855398
0.603129
0.744759
0.755108
0.702018
0.757995
0.677558
0.833186
0.722105
0.79869
0.595596
0.664045
0.691835
0.837971
0.637547
0.767355
0.672177
0.692743
0.636726
0.701685
0.694875
0.8079
0.860356
0.621878
0.740671
0.690522
0.685868
0.821325
0.643919
0.664916
0.866073
0.605364
0.734101
0.779112
0.855659
0.878095
0.672381
0.671348
0.630266
0.692917
0.650126
0.689982
0.781754
0.687649
0.637547
0.698355
0.724574
0.68563
0.652176
0.670801
0.725173
0.634399
0.803114
0.792719
0.671366
0.801031
0.586731
0.633169
0.634613
0.612944
0.871973
0.690281
0.690827
0.677887
0.819178
0.854079
0.731191
0.791617
0.657719
0.673457
0.728141
0.691017
0.663171
0.85461
0.745461
0.749305
0.873665
0.808391
0.708481
0.862757
0.619715
0.733445
0.730532
0.757275
0.66307
0.840783
0.686762
0.747005
0.713847
0.685742
0.653492
0.674392
0.790789
0.822374
0.839872
0.728991
0.73536
0.850175
0.795036
0.701612
0.733674
0.645263
0.686749
0.817601
0.622372
0.829928
0.6835
0.835506
0.872841
0.858087
0.678957
0.801931
0.831089
0.561867
0.84708
0.637975
0.860657
0.809489
0.684835
0.660937
0.741681
0.691071
0.646578
0.656874
0.779663
0.672783
0.868536
0.647327
0.677837
0.645705
0.644597
0.691432
0.82133
0.878823
0.645332
0.785464
0.721761
0.749999
0.708079
0.750148
0.849832
0.812447
0.68442
0.84369
0.820126
0.878118
0.645638
0.661397
0.658977
0.793964
0.87051
0.826496
0.710697
0.869733
0.719301
0.622018
0.659143
0.582251
0.710887
0.637559
0.877409
0.877757
0.73751
0.877835
0.816061
0.728968
0.866769
0.643443
0.836435
0.685897
0.85444
0.694641
0.649266
0.793761
0.736241
0.861818
0.849705
0.853143
0.656088
0.655087
0.610613
0.82441
0.81239
0.631535
0.723641
0.813096
0.603355
0.679118
0.657116
0.67879
0.748366
0.676867
0.731054
0.758491
0.726243
0.732452
0.795262
0.690451
0.699126
0.751373
0.727143
0.691611
0.837618
0.857446
0.632083
0.808232
0.599352
0.674641
0.838697
0.800379
0.676053
0.859347
0.641669
0.794049
0.703943
0.69657
0.841418
0.695229
0.800607
0.793631
0.773005
0.884881
0.778222
0.631837
0.768021
0.70265
0.801449
0.875886
0.775054
0.721035
0.664521
0.696848
0.842967
0.642844
0.803222
0.657728
0.746189
0.804458
0.794633
0.716134
0.838795
0.871919
0.695391
0.690015
0.731982
0.654908
0.641432
0.733107
0.795276
0.668495
0.631281
0.63807
0.626626
0.789784
0.719198
0.804808
0.674539
0.854966
0.723666
0.822061
0.863979
0.670718
0.849874
0.690738
0.731994
0.724378
0.827063
0.664436
0.705583
0.727489
0.652212
0.693082
0.650098
0.636082
0.599089
0.873808
0.878326
0.672401
0.672394
0.801113
0.618633
0.64346
0.691687
0.78315
0.795474
0.612728
0.601772
0.848573
0.667652
0.75368
0.666301
0.625753
0.65938
0.71141
0.827326
0.759197
0.628556
0.857106
0.825993
0.661903
0.747729
0.688064
0.866844
0.693976
0.709402
0.634842
0.769401
0.851849
0.754859
0.701461
0.669506
0.715375
0.755081
0.870156
0.876384
0.662997
0.873345
0.673922
0.737349
0.736795
0.701681
0.685681
0.83199
0.661043
0.739765
0.659489
0.648949
0.678713
0.650951
0.776536
0.855655
0.662338
0.677564
0.734658
0.687745
0.632484
0.59643
0.687882
0.812148
0.550625
0.665457
0.785435
0.733316
0.712608
0.772409
0.817144
0.619076
0.613167
0.823334
0.707349
0.626422
0.723624
0.824733
0.765551
0.73974
0.66191
0.681215
0.660502
0.86952
0.823958
0.881283
0.709722
0.778505
0.641608
0.720824
0.829269
0.622564
0.631523
0.793723
0.825489
0.619326
0.680208
0.652994
0.612554
0.654039
0.876335
0.707608
0.678467
0.69758
0.663104
0.790048
0.714937
0.638788
0.677799
0.800167
0.715053
0.873361
0.636403
0.679398
0.766819
0.76231
0.704267
0.748298
0.650061
0.876722
0.809852
0.768641
0.831178
0.666819
0.827832
0.764344
0.755344
0.861168
0.618417
0.685712
0.872905
0.766496
0.6161
0.665256
0.805249
0.873034
0.719837
0.798944
0.659461
0.631817
0.65651
0.608247
0.82814
0.674209
0.722739
0.864573
0.671148
0.621208
0.670607
0.735015
0.671714
0.675385
0.665844
0.646134
0.715528
0.810719
0.863174
0.783194
0.681323
0.684929
0.607667
0.682048
0.76586
0.746074
0.766299
0.790593
0.685242
0.713232
0.812495
0.829453
0.878466
0.842636
0.863544
0.719316
0.640353
0.660711
0.644585
0.870105
0.733906
0.676558
0.860987
0.643349
0.811735
0.784934
0.68177
0.662569
0.685685
0.680428
0.828722
0.692761
0.783346
0.717558
0.861933
0.743246
0.884616
0.659646
0.71945
0.665619
0.594679
0.691901
0.794458
0.619724
0.499465
0.73844
0.834792
0.802665
0.675374
0.637001
0.65953
0.647703
0.664659
0.654447
0.700462
0.649653
0.795268
0.670894
0.672249
0.804432
0.718643
0.726856
0.819882
0.694056
0.721105
0.653879
0.796534
0.683385
0.677527
0.710848
0.655018
0.636373
0.672228
0.629242
0.797866
0.879065
0.834529
0.739864
0.783728
0.623261
0.871099
0.748635
0.786433
0.657718
0.79194
0.668342
0.693389
0.817326
0.852676
0.79755
0.743513
0.693856
0.884446
0.691874
0.811329
0.866922
0.776389
0.703683
0.619804
0.812274
0.738135
0.650009
0.770107
0.740193
0.859778
0.670216
0.864057
0.87977
0.700006
0.659398
0.867722
0.636791
0.652906
0.694268
0.65253
0.68784
0.65318
0.638407
0.716323
0.670361
0.65697
0.685868
0.742483
0.658556
0.668747
0.766357
0.721916
0.632647
0.857509
0.864215
0.868055
0.667212
0.631357
0.88239
0.630792
0.712422
0.646449
0.685865
0.653314
0.792358
0.6866
0.688464
0.630054
0.620508
0.650288
0.691405
0.623211
0.715109
0.734136
0.708282
0.86139
0.730928
0.772931
0.702823
0.82323
0.673836
0.690983
0.867972
0.693756
0.730789
0.637374
0.774314
0.876999
0.683326
0.759164
0.737262
0.658095
0.661784
0.671318
0.647025
0.797956
0.654937
0.706509
0.687468
0.701316
0.660125
0.671074
0.714764
0.685105
0.68937
0.854583
0.713581
0.703552
0.738255
0.85621
0.691473
0.622077
0.805199
0.636384
0.697701
0.657059
0.712294
0.671596
0.655195
0.708134
0.878608
0.832018
0.624717
0.685542
0.621802
0.648328
0.614342
0.649684
0.688894
0.657519
0.693079
0.759302
0.882784
0.689488
0.786261
0.729022
0.870552
0.690571
0.881185
0.756647
0.642566
0.759513
0.788947
0.680112
0.821556
0.656825
0.839228
0.676378
0.518989
0.708352
0.882425
0.864853
0.795325
0.763088
0.783432
0.635557
0.667554
0.780753
0.882721
0.530482
0.721026
0.655338
0.673852
0.703212
0.659478
0.641347
0.675186
0.650016
0.676976
0.683204
0.709523
0.884154
0.823426
0.615135
0.806536
0.656297
0.671926
0.814425
0.681757
0.69656
0.776948
0.548038
0.666333
0.717644
0.834963
0.646942
0.670174
0.694265
0.758157
0.643365
0.859135
0.623943
0.692342
0.694515
0.673902
0.765751
0.759543
0.859701
0.658355
0.795847
0.737303
0.754512
0.665117
0.765896
0.659482
0.637146
0.608685
0.74243
0.707086
0.694066
0.836788
0.721332
0.707531
0.766055
0.663367
0.65542
0.687911
0.754415
0.670339
0.881251
0.636693
0.625528
0.693642
0.687009
0.670073
0.643772
0.789051
0.693056
0.711803
0.644066
0.658183
0.711026
0.610535
0.878372
0.846308
0.647694
0.660317
0.821063
0.722218
0.663722
0.635219
0.652519
0.648838
0.73627
0.850732
0.664163
0.63181
0.758541
0.714885
0.624582
0.646408
0.716737
0.782063
0.87036
0.640081
0.622126
0.745744
0.825896
0.689328
0.742917
0.693734
0.660065
0.691795
0.758394
0.703485
0.664169
0.809149
0.694457
0.602254
0.730459
0.67323
0.815848
0.883793
0.671099
0.690543
0.690003
0.688479
0.641887
0.691247
0.649371
0.864642
0.818336
0.782838
0.689725
0.633117
0.809066
0.874511
0.668602
0.727381
0.676654
0.599367
0.718411
0.683383
0.602688
0.613567
0.737292
0.65144
0.625793
0.64873
0.772693
0.644791
0.81324
0.700777
0.671872
0.681092
0.657217
0.814919
0.610032
0.69368
0.699974
0.637155
0.739681
0.778089
0.742503
0.711615
0.800108
0.646768
0.646969
0.847581
0.660269
0.843878
0.750792
0.688152
0.739572
0.836394
0.714339
0.619844
0.859009
0.656696
0.694007
0.830153
0.656312
0.866269
0.666975
0.69608
0.560884
0.694182
0.648709
0.715767
0.655095
0.604414
0.652969
0.642621
0.603472
0.851874
0.643232
0.694725
0.743175
0.719745
0.875765
0.878509
0.670425
0.694629
0.817533
0.662743
0.851854
0.61075
0.685207
0.727776
0.670692
0.821664
0.682641
0.685031
0.682328
0.678626
0.644218
0.604422
0.836922
0.45929
0.846754
0.788119
0.653821
0.62501
0.656775
0.873643
0.784567
0.765203
0.708361
0.739491
0.695338
0.835465
0.802741
0.658712
0.757927
0.85805
0.699414
0.724963
0.761395
0.616747
0.645659
0.793599
0.69177
0.710729
0.867433
0.642122
0.613471
0.682641
0.710043
0.699486
0.857828
0.66829
0.63754
0.666458
0.709934
0.670099
0.846066
0.697192
0.660301
0.673247
0.669636
0.658918
0.679873
0.757462
0.703025
0.654646
0.837759
0.683173
0.781704
0.655652
0.641269
0.697108
0.834456
0.873699
0.785313
0.71142
0.706006
0.809806
0.857526
0.638434
0.855541
0.652309
0.77529
0.760905
0.840888
0.714403
0.837176
0.854212
0.666871
0.653846
0.695692
0.722295
0.656612
0.605646
0.599115
0.791228
0.825223
0.635788
0.860368
0.718477
0.800044
0.710122
0.654526
0.818238
0.80605
0.680813
0.672699
0.649053
0.879863
0.784708
0.884105
0.634216
0.655905
0.695509
0.825974
0.76295
0.802714
0.735509
0.855535
0.675236
0.703736
0.724699
0.680172
0.747459
0.579932
0.814613
0.716778
0.732957
0.855859
0.629659
0.637978
0.615864
0.73254
0.841751
0.681189
0.772634
0.586519
0.633714
0.712766
0.676135
0.665859
0.811529
0.708069
0.663517
0.700174
0.75096
0.851216
0.738289
0.68832
0.837775
0.725909
0.865986
0.718822
0.783449
0.68747
0.638929
0.87657
0.653764
0.727359
0.744459
0.853224
0.779456
0.709871
0.656295
0.884871
0.698014
0.662524
0.798648
0.872
0.791042
0.765222
0.630423
0.602122
0.725791
0.656592
0.689387
0.726516
0.654015
0.85323
0.871803
0.854497
0.688877
0.689424
0.663986
0.689945
0.771466
0.644549
0.783208
0.860471
0.64506
0.686966
0.677964
0.813391
0.770396
0.689083
0.65723
0.786912
0.654974
0.572537
0.65221
0.886588
0.606426
0.813074
0.749691
0.654028
0.839281
0.734645
0.862626
0.541607
0.68488
0.729071
0.859963
0.691039
0.852458
0.735691
0.605799
0.704589
0.677841
0.693569
0.601359
0.807969
0.685589
0.658886
0.619835
0.707852
0.812192
0.575562
0.687384
0.839531
0.695847
0.831605
0.607763
0.650978
0.660057
0.693626
0.65806
0.630558
0.653901
0.580623
0.685672
0.686819
0.802493
0.737199
0.84199
0.657141
0.693201
0.631769
0.719378
0.582318
0.694504
0.884326
0.708331
0.686104
0.883794
0.664657
0.733106
0.755964
0.634957
0.688539
0.709365
0.745347
0.864134
0.870113
0.874153
0.749056
0.700696
0.687428
0.655452
0.818969
0.769988
0.66983
0.661891
0.68472
0.706814
0.864634
0.701362
0.858073
0.667724
0.751564
0.657245
0.658903
0.637559
0.676724
0.846643
0.681087
0.637046
0.649713
0.883293
0.687025
0.656896
0.652801
0.657405