/*--------------------------------*- C++ -*----------------------------------*\
  =========                 |
  \\      /  F ield         | OpenFOAM: The Open Source CFD Toolbox
   \\    /   O peration     | Website:  https://openfoam.org
    \\  /    A nd           | Version:  6
     \\/     M anipulation  |
\*---------------------------------------------------------------------------*/
FoamFile
{
    version     2.0;
    format      ascii;
    class       volScalarField;
    location    "./ITHACAoutput/Offline/1";
    object      P_rec;
}
// * * * * * * * * * * * * * * * * * * * * * * * * * * * * * * * * * * * * * //

dimensions      [0 2 -2 0 0 0 0];

internalField   nonuniform List<scalar> 
13046
(
0.810533
0.764145
0.856345
0.803144
0.850549
0.791952
0.79054
0.788497
0.857656
0.643054
0.537312
0.882043
0.79265
0.746924
0.863054
0.69396
0.879207
0.551508
0.844519
0.822763
0.789584
0.683592
0.881235
0.552441
0.814929
0.790762
0.843425
0.789515
0.736245
0.866375
0.818897
0.752856
0.852566
0.819742
0.84149
0.793985
0.814933
0.841154
0.803477
0.840486
0.841452
0.735164
0.812529
0.831278
0.819417
0.80944
0.830713
0.82126
0.799927
0.763906
0.859052
0.819385
0.8613
0.698515
0.814924
0.691152
0.866938
0.617071
0.784345
0.869613
0.735183
0.739372
0.87676
0.880392
0.622431
0.70217
0.797947
0.621327
0.864606
0.805959
0.632613
0.862076
0.599824
0.776611
0.870669
0.843605
0.830289
0.778893
0.876741
0.752071
0.591281
0.807201
0.788894
0.84734
0.879905
0.604369
0.688667
0.66971
0.88578
0.655169
0.889634
0.62435
0.671415
0.758218
0.743827
0.691326
0.683008
0.873261
0.878473
0.888105
0.665949
0.669909
0.80578
0.838751
0.814187
0.866247
0.719577
0.807361
0.852484
0.829597
0.719032
0.575993
0.879666
0.460362
0.799382
0.758747
0.857382
0.754836
0.762416
0.657393
0.874944
0.677362
0.872908
0.631483
0.515953
0.882316
0.778048
0.708837
0.872979
0.834927
0.846162
0.733208
0.88711
0.633973
0.690432
0.719879
0.670833
0.881288
0.815641
0.742884
0.854721
0.761703
0.784382
0.863889
0.857019
0.822083
0.715879
0.864722
0.733807
0.811398
0.734138
0.723103
0.878575
0.86324
0.759111
0.8067
0.788363
0.689716
0.77447
0.688296
0.875625
0.879444
0.747429
0.787313
0.868177
0.630745
0.884086
0.552895
0.601058
0.879419
0.479184
0.717333
0.655345
0.882098
0.836154
0.699037
0.851331
0.749693
0.864508
0.796884
0.888614
0.58281
0.633167
0.838568
0.711734
0.845789
0.863022
0.748282
0.80529
0.769237
0.789442
0.860156
0.740095
0.87119
0.782719
0.723367
0.868015
0.672302
0.883824
0.622975
0.888211
0.655838
0.689433
0.635874
0.654355
0.88641
0.82055
0.668967
0.860016
0.779451
0.759677
0.876109
0.58795
0.632244
0.63291
0.890777
0.80555
0.844
0.807186
0.80007
0.737328
0.863768
0.889196
0.645138
0.697209
0.774936
0.749131
0.8722
0.885194
0.519565
0.595029
0.86364
0.669307
0.811385
0.649328
0.670163
0.88639
0.713433
0.780271
0.875122
0.780288
0.700941
0.87298
0.736508
0.646501
0.884312
0.675841
0.766143
0.879549
0.883902
0.519466
0.578406
0.850573
0.838744
0.707753
0.59695
0.876329
0.426146
0.844896
0.795222
0.815349
0.730546
0.7267
0.767808
0.781165
0.873865
0.871114
0.873533
0.74229
0.57799
0.793486
0.709123
0.866749
0.669875
0.750147
0.885155
0.73572
0.662206
0.877124
0.819561
0.811796
0.831607
0.70239
0.769474
0.878937
0.796667
0.696832
0.867062
0.779589
0.773743
0.852704
0.836653
0.695903
0.700761
0.755442
0.880453
0.721411
0.878896
0.653604
0.856257
0.829088
0.724862
0.876868
0.674973
0.788401
0.775288
0.658293
0.868957
0.85926
0.826694
0.692292
0.765963
0.756716
0.645507
0.871261
0.643753
0.875729
0.885767
0.591563
0.646868
0.770956
0.684932
0.872164
0.396828
0.880799
0.531655
0.774948
0.853918
0.810137
0.747069
0.747402
0.873392
0.88381
0.685866
0.638634
0.810963
0.679502
0.867474
0.720711
0.645705
0.886699
0.765999
0.864679
0.751738
0.726171
0.874293
0.768748
0.866809
0.709225
0.877089
0.5689
0.827272
0.656148
0.859596
0.744123
0.716738
0.87437
0.748476
0.782553
0.869954
0.713975
0.811291
0.865052
0.804654
0.774782
0.855244
0.871453
0.676984
0.797443
0.656003
0.634886
0.883581
0.718332
0.651748
0.88631
0.817893
0.855853
0.647826
0.758973
0.766805
0.627615
0.613916
0.871107
0.870419
0.877443
0.409853
0.553833
0.611044
0.877804
0.441558
0.725813
0.759299
0.872545
0.883081
0.668462
0.604653
0.795079
0.787661
0.650949
0.647239
0.866983
0.868657
0.88594
0.609634
0.599847
0.588625
0.877305
0.396369
0.793898
0.834336
0.829661
0.578385
0.432032
0.877906
0.826443
0.70007
0.854175
0.634815
0.595949
0.890113
0.409201
0.876783
0.484818
0.842197
0.83732
0.746751
0.789201
0.813879
0.846743
0.636542
0.883478
0.508304
0.779792
0.81034
0.850306
0.801304
0.831411
0.828652
0.870777
0.657911
0.807507
0.77199
0.829319
0.843138
0.774842
0.816923
0.850924
0.826374
0.653547
0.85147
0.884308
0.886184
0.556688
0.559073
0.668232
0.659447
0.639633
0.624949
0.884222
0.860634
0.814893
0.633043
0.84333
0.839845
0.715856
0.663286
0.769397
0.878294
0.481095
0.881639
0.512125
0.890313
0.622827
0.655952
0.60882
0.882432
0.501326
0.874057
0.385382
0.479127
0.355473
0.872927
0.508153
0.730572
0.706585
0.8791
0.563475
0.884539
0.562689
0.70545
0.671137
0.882714
0.682918
0.876231
0.504672
0.791146
0.859473
0.77058
0.625404
0.888175
0.610572
0.66483
0.876221
0.779082
0.740449
0.673472
0.885963
0.868717
0.288026
0.425901
0.418659
0.880647
0.516223
0.798127
0.858233
0.777355
0.59743
0.602331
0.884486
0.88811
0.580501
0.600115
0.672396
0.881629
0.598419
0.876761
0.588881
0.728289
0.835324
0.646375
0.851161
0.629319
0.778965
0.872443
0.877019
0.722365
0.549799
0.811809
0.806903
0.7109
0.698096
0.860051
0.863794
0.821052
0.711171
0.856242
0.803886
0.643388
0.867119
0.726674
0.663921
0.884505
0.622051
0.634345
0.891671
0.884865
0.669676
0.704607
0.362541
0.87488
0.527462
0.833052
0.826271
0.847441
0.748721
0.849884
0.755555
0.817719
0.820221
0.85691
0.666124
0.860976
0.678027
0.430107
0.879544
0.481272
0.605158
0.613133
0.885343
0.846163
0.836925
0.689471
0.748889
0.654795
0.882856
0.875647
0.595342
0.737984
0.470312
0.555883
0.881114
0.494214
0.563143
0.883017
0.78453
0.658753
0.871322
0.858652
0.823481
0.734892
0.665755
0.882109
0.577924
0.725836
0.690905
0.88373
0.881962
0.631047
0.716158
0.826729
0.855062
0.67806
0.715619
0.791761
0.871237
0.845476
0.838289
0.726062
0.883965
0.575435
0.649327
0.741177
0.650022
0.876982
0.839473
0.839925
0.753325
0.709511
0.877082
0.530819
0.814337
0.73377
0.857544
0.768675
0.796108
0.862811
0.74533
0.688922
0.881149
0.642414
0.877823
0.462711
0.656171
0.877888
0.469656
0.881106
0.620046
0.720187
0.703651
0.797065
0.870732
0.876787
0.435192
0.624428
0.88359
0.655962
0.693961
0.874683
0.36934
0.452322
0.494431
0.322457
0.872517
0.878776
0.564792
0.72115
0.885423
0.54601
0.614111
0.68818
0.695925
0.87824
0.568968
0.879131
0.589469
0.683847
0.666199
0.884331
0.884118
0.762203
0.648745
0.824533
0.846392
0.770715
0.682326
0.691577
0.886295
0.886445
0.683414
0.704837
0.735072
0.875261
0.555528
0.815491
0.653445
0.862248
0.821373
0.689536
0.855301
0.715741
0.716123
0.881066
0.706143
0.714928
0.883061
0.841483
0.834534
0.765212
0.806911
0.686218
0.865852
0.890315
0.638388
0.602199
0.545864
0.884227
0.508825
0.530037
0.881301
0.506579
0.832351
0.850005
0.721666
0.45419
0.878861
0.529473
0.733555
0.878569
0.629245
0.88102
0.458948
0.508615
0.802114
0.8481
0.802095
0.77362
0.729454
0.870097
0.805479
0.703015
0.868576
0.885578
0.577575
0.5773
0.730337
0.687101
0.885095
0.876537
0.69635
0.527212
0.760349
0.720269
0.87545
0.824062
0.845056
0.778638
0.572392
0.594239
0.887803
0.884147
0.637232
0.699063
0.629168
0.614494
0.877616
0.878485
0.485966
0.468884
0.741588
0.768864
0.874104
0.741485
0.713423
0.875999
0.778963
0.789652
0.860978
0.534808
0.561472
0.541518
0.885928
0.557631
0.88629
0.739851
0.694428
0.880903
0.596274
0.580465
0.556958
0.53995
0.885897
0.883368
0.708816
0.753794
0.881857
0.761082
0.751485
0.869385
0.668855
0.879423
0.498219
0.750565
0.758324
0.874206
0.77626
0.780571
0.862086
0.642535
0.878052
0.479995
0.766299
0.705161
0.870953
0.787416
0.654248
0.876112
0.831764
0.666916
0.851994
0.705098
0.88833
0.630607
0.871715
0.313022
0.447212
0.754134
0.742373
0.872376
0.674809
0.877637
0.530992
0.839801
0.65107
0.847542
0.542277
0.874018
0.360996
0.857684
0.858701
0.815107
0.7475
0.817163
0.740501
0.778402
0.797668
0.858181
0.848921
0.850766
0.829074
0.747961
0.826286
0.75087
0.761081
0.761833
0.871962
0.759168
0.766644
0.872639
0.884897
0.52639
0.532832
0.826317
0.722474
0.851292
0.614082
0.561988
0.886388
0.716769
0.708258
0.700295
0.686079
0.879196
0.88004
0.821704
0.735182
0.853337
0.800317
0.666595
0.864224
0.734829
0.715798
0.880389
0.827382
0.791814
0.83491
0.696085
0.69659
0.884698
0.829724
0.842338
0.768042
0.721805
0.745837
0.880915
0.795972
0.679862
0.865072
0.826797
0.833062
0.783024
0.840685
0.779477
0.837363
0.845137
0.826972
0.849855
0.76841
0.828697
0.758878
0.809475
0.802118
0.721616
0.722855
0.860713
0.861804
0.87682
0.600682
0.728982
0.872303
0.664427
0.79705
0.88055
0.88097
0.588341
0.599271
0.715228
0.709017
0.857633
0.829546
0.680105
0.822946
0.832136
0.807222
0.697089
0.682766
0.88423
0.832322
0.848
0.738718
0.789529
0.67637
0.867507
0.750354
0.749064
0.613509
0.876854
0.625326
0.876148
0.728352
0.687836
0.878783
0.559839
0.389445
0.874959
0.833979
0.661107
0.851285
0.840764
0.841382
0.844141
0.655575
0.845978
0.665816
0.67358
0.718448
0.885684
0.806637
0.672203
0.863054
0.852686
0.834025
0.678002
0.838357
0.835313
0.843886
0.851544
0.687282
0.688271
0.836743
0.848322
0.672425
0.726443
0.700225
0.880412
0.834865
0.838155
0.771389
0.650672
0.879221
0.518544
0.85078
0.837225
0.667992
0.789026
0.777399
0.685018
0.675144
0.866381
0.872845
0.879004
0.534226
0.666133
0.668113
0.880205
0.509944
0.654076
0.878062
0.501955
0.7376
0.877855
0.618525
0.809836
0.685686
0.862192
0.637302
0.70984
0.827477
0.642388
0.781978
0.485224
0.743398
0.672772
0.630796
0.779154
0.777663
0.615437
0.645984
0.772985
0.690134
0.657082
0.652489
0.685889
0.7074
0.753649
0.708845
0.683305
0.792179
0.874588
0.837575
0.712124
0.78853
0.622114
0.721408
0.636252
0.629056
0.742458
0.703228
0.697611
0.644246
0.710117
0.825223
0.78755
0.668452
0.723213
0.673496
0.868828
0.653965
0.77418
0.800057
0.676624
0.678625
0.664517
0.619219
0.654936
0.84507
0.710432
0.656853
0.678579
0.627653
0.842837
0.754585
0.70644
0.666403
0.767535
0.653054
0.658271
0.839989
0.683322
0.704237
0.757019
0.716739
0.85853
0.788576
0.778488
0.607363
0.626237
0.682273
0.762845
0.619805
0.696589
0.713627
0.640925
0.764829
0.808354
0.686111
0.698173
0.622142
0.650343
0.665706
0.768507
0.665272
0.655117
0.684652
0.842208
0.658437
0.76695
0.833943
0.699342
0.651839
0.438671
0.644299
0.666585
0.650478
0.605016
0.732574
0.795975
0.803121
0.855532
0.652178
0.638918
0.62222
0.66396
0.64609
0.825643
0.801627
0.74921
0.642501
0.63041
0.728803
0.787192
0.67825
0.656185
0.597542
0.68311
0.695531
0.837953
0.848452
0.767764
0.713858
0.684573
0.617395
0.857567
0.603403
0.759917
0.603365
0.838298
0.624423
0.569577
0.626971
0.808832
0.690027
0.578012
0.653439
0.749005
0.650645
0.772931
0.740535
0.664415
0.799918
0.678813
0.647787
0.816715
0.655681
0.682793
0.616802
0.721777
0.667768
0.809338
0.767898
0.677503
0.763805
0.773139
0.828835
0.714353
0.678787
0.662824
0.777069
0.601952
0.714455
0.624033
0.8722
0.683323
0.808091
0.857898
0.712549
0.860894
0.812201
0.829162
0.636503
0.598534
0.616347
0.829824
0.638525
0.62789
0.593043
0.629084
0.686664
0.674896
0.713278
0.857497
0.766466
0.674626
0.761508
0.672095
0.869463
0.556095
0.795557
0.662773
0.593955
0.844802
0.860343
0.660264
0.665696
0.870309
0.723861
0.65218
0.646408
0.766822
0.821701
0.75609
0.65562
0.667579
0.782452
0.717609
0.65236
0.700944
0.591709
0.634927
0.685622
0.759011
0.600351
0.665707
0.799451
0.662753
0.598467
0.676752
0.659585
0.675415
0.736957
0.742832
0.648157
0.626499
0.621006
0.756392
0.746036
0.669128
0.743997
0.678316
0.639776
0.727946
0.675011
0.586755
0.740135
0.815404
0.716484
0.829727
0.820112
0.872914
0.654043
0.575186
0.688307
0.674952
0.672088
0.604517
0.729474
0.836437
0.757082
0.723637
0.653887
0.67721
0.758775
0.7038
0.749529
0.657782
0.691167
0.671803
0.58424
0.650216
0.666254
0.657904
0.641324
0.745175
0.714282
0.673686
0.748322
0.654436
0.685784
0.65574
0.677164
0.662215
0.671085
0.723605
0.60526
0.568194
0.697576
0.612702
0.597149
0.722779
0.567601
0.598762
0.81222
0.747134
0.6518
0.742887
0.6325
0.746023
0.695487
0.586641
0.655926
0.790922
0.686867
0.770205
0.487249
0.640938
0.811578
0.669864
0.628658
0.556905
0.605132
0.596933
0.609221
0.67722
0.755195
0.638399
0.592323
0.64662
0.668793
0.871201
0.631545
0.769626
0.732558
0.569657
0.685312
0.650464
0.623982
0.738464
0.677238
0.842381
0.755116
0.645769
0.677413
0.711156
0.876237
0.761456
0.827386
0.771129
0.676389
0.712338
0.684115
0.643138
0.606145
0.666495
0.6548
0.75212
0.6624
0.617458
0.655209
0.672963
0.653834
0.649472
0.801695
0.673847
0.66762
0.832056
0.799393
0.649645
0.703301
0.82298
0.631382
0.561166
0.678644
0.6399
0.624498
0.814633
0.653773
0.692439
0.818439
0.605129
0.717248
0.655788
0.710652
0.678928
0.662087
0.451005
0.68288
0.617326
0.642878
0.676575
0.674044
0.765177
0.841384
0.649192
0.714958
0.667789
0.613423
0.585656
0.793878
0.740591
0.647463
0.621358
0.73152
0.614956
0.643291
0.649521
0.647275
0.751525
0.8324
0.673483
0.76228
0.864695
0.801186
0.794408
0.828391
0.656534
0.67108
0.625023
0.872892
0.789027
0.809537
0.661453
0.669794
0.596069
0.7698
0.678592
0.627685
0.811064
0.748043
0.608907
0.679819
0.65351
0.654929
0.657126
0.677232
0.674904
0.63394
0.675281
0.608198
0.686208
0.637341
0.745141
0.67393
0.600876
0.824458
0.837618
0.769208
0.675306
0.720356
0.55905
0.776513
0.704986
0.612371
0.821305
0.525365
0.843216
0.616825
0.684408
0.701231
0.768168
0.77963
0.652039
0.857099
0.65501
0.799079
0.683225
0.735994
0.671582
0.63841
0.663381
0.800667
0.699979
0.872512
0.757597
0.605982
0.63653
0.744192
0.539613
0.675853
0.685852
0.635351
0.847485
0.605441
0.596432
0.784332
0.6664
0.842891
0.865864
0.66857
0.873425
0.84922
0.804978
0.812569
0.72122
0.620508
0.65146
0.68018
0.793803
0.685305
0.523461
0.857364
0.638337
0.675674
0.648522
0.82857
0.869178
0.643904
0.801849
0.734776
0.840797
0.679092
0.773164
0.666386
0.859543
0.870519
0.750488
0.65152
0.782468
0.668548
0.689858
0.710602
0.695399
0.73589
0.645826
0.533024
0.626687
0.700147
0.741158
0.72055
0.810886
0.64635
0.676784
0.747042
0.628432
0.833309
0.639519
0.66642
0.81705
0.807564
0.727988
0.861328
0.645845
0.667437
0.77365
0.706984
0.675309
0.683214
0.664481
0.742205
0.756221
0.664835
0.655255
0.724791
0.606503
0.633428
0.84316
0.858226
0.870691
0.670583
0.867553
0.869413
0.851367
0.585873
0.728614
0.73123
0.857042
0.675863
0.645141
0.618151
0.651891
0.511651
0.857915
0.685343
0.694179
0.776255
0.752779
0.671624
0.667995
0.869216
0.85213
0.825323
0.755642
0.652202
0.762619
0.742289
0.675429
0.701648
0.6325
0.64966
0.716658
0.693162
0.671503
0.83634
0.843451
0.586026
0.806995
0.658464
0.655842
0.682884
0.833654
0.68463
0.758167
0.682889
0.824653
0.676817
0.683638
0.869259
0.598014
0.605289
0.64837
0.638075
0.571353
0.415092
0.644252
0.576619
0.697083
0.585403
0.63483
0.695052
0.641722
0.644903
0.674421
0.629896
0.436763
0.847507
0.781355
0.671857
0.616794
0.779794
0.656676
0.645427
0.867575
0.647237
0.868537
0.689956
0.814243
0.664937
0.579028
0.631878
0.720362
0.72082
0.698069
0.582239
0.677311
0.642529
0.639866
0.653287
0.606524
0.63029
0.854174
0.636609
0.76188
0.780665
0.67865
0.750885
0.782844
0.618318
0.419767
0.685497
0.607004
0.574628
0.761119
0.770397
0.673117
0.740956
0.673096
0.869333
0.847151
0.681075
0.667743
0.858649
0.816861
0.732079
0.735784
0.674499
0.870939
0.710288
0.585302
0.829513
0.791321
0.842809
0.718741
0.654236
0.680614
0.77218
0.742571
0.373801
0.870562
0.68573
0.650192
0.70648
0.791591
0.861579
0.864578
0.744221
0.70376
0.789289
0.818935
0.810362
0.760676
0.79412
0.584673
0.657404
0.729229
0.625479
0.582919
0.600346
0.684278
0.784034
0.610129
0.715351
0.650572
0.767437
0.865102
0.686036
0.620637
0.593894
0.738187
0.667483
0.649646
0.60093
0.817969
0.722912
0.727232
0.610685
0.72669
0.6481
0.656651
0.770791
0.781741
0.818363
0.868362
0.644486
0.819867
0.588206
0.830289
0.830136
0.840636
0.784712
0.635884
0.635195
0.673142
0.582569
0.705312
0.604502
0.727222
0.614174
0.806815
0.677686
0.590032
0.808951
0.762651
0.693621
0.691977
0.756986
0.825432
0.717367
0.704779
0.589691
0.796531
0.68482
0.841648
0.574255
0.692131
0.830823
0.766992
0.863237
0.764917
0.67735
0.561351
0.59374
0.693042
0.609737
0.854329
0.585813
0.647942
0.693849
0.654773
0.76905
0.577955
0.809971
0.770518
0.731073
0.533861
0.743091
0.62544
0.662331
0.693148
0.694094
0.663711
0.657733
0.786351
0.639686
0.862553
0.666791
0.669433
0.751308
0.763593
0.85092
0.663072
0.670775
0.646125
0.702735
0.657993
0.844926
0.649117
0.707895
0.674876
0.796616
0.639343
0.718905
0.625703
0.866396
0.581489
0.634484
0.631988
0.801252
0.593339
0.602673
0.632361
0.618088
0.840225
0.70658
0.758307
0.815748
0.747233
0.66762
0.865924
0.689424
0.76857
0.744283
0.717518
0.600153
0.725762
0.684926
0.659759
0.723767
0.610907
0.605519
0.708923
0.645808
0.637786
0.787177
0.696679
0.731332
0.687454
0.837407
0.694853
0.682348
0.748008
0.616411
0.64769
0.674682
0.720511
0.72405
0.741018
0.833999
0.759429
0.79315
0.709811
0.82138
0.85727
0.851579
0.677521
0.711289
0.73442
0.619926
0.863184
0.816308
0.799784
0.696584
0.637875
0.600942
0.73511
0.763801
0.643982
0.797279
0.815221
0.736061
0.656786
0.699866
0.666074
0.636671
0.697014
0.65604
0.725631
0.600293
0.727666
0.692165
0.680911
0.578671
0.725554
0.702805
0.761297
0.67473
0.720691
0.836834
0.844873
0.726909
0.690391
0.791882
0.708415
0.648053
0.647286
0.682282
0.613608
0.830549
0.701881
0.713758
0.773898
0.762171
0.739417
0.606722
0.868905
0.748362
0.654976
0.702518
0.702917
0.791765
0.838244
0.749515
0.735205
0.593648
0.638945
0.682106
0.731461
0.705618
0.727503
0.663824
0.84234
0.738783
0.757436
0.822206
0.721739
0.65075
0.717253
0.864406
0.644998
0.590346
0.71589
0.865341
0.667229
0.682968
0.788955
0.76108
0.805053
0.693349
0.596533
0.733142
0.626695
0.670201
0.804998
0.688676
0.623821
0.648792
0.666802
0.743641
0.675856
0.660341
0.820653
0.659757
0.865272
0.804804
0.615532
0.568396
0.706336
0.768302
0.81816
0.693835
0.680687
0.628044
0.671644
0.696866
0.867062
0.831442
0.766113
0.67254
0.600856
0.811818
0.873343
0.840957
0.794448
0.827342
0.715226
0.630933
0.580083
0.591537
0.84762
0.703094
0.598197
0.68272
0.870987
0.675521
0.657603
0.609674
0.692863
0.644441
0.838078
0.734546
0.776425
0.830753
0.806203
0.672481
0.751202
0.7144
0.758781
0.640552
0.738348
0.660786
0.848089
0.585682
0.675257
0.585496
0.680882
0.835938
0.678999
0.805343
0.811716
0.831884
0.632677
0.711448
0.680125
0.637324
0.843095
0.718299
0.719531
0.732212
0.497378
0.685148
0.818151
0.750112
0.84455
0.585193
0.634522
0.671813
0.848903
0.61635
0.698384
0.645756
0.601427
0.669798
0.818875
0.680481
0.683183
0.61188
0.833091
0.8654
0.503612
0.809851
0.673547
0.635042
0.636733
0.709367
0.614293
0.746535
0.676402
0.67194
0.685375
0.782865
0.70064
0.802525
0.689948
0.629369
0.684954
0.584903
0.602563
0.694121
0.646513
0.726966
0.638321
0.691717
0.812703
0.740938
0.672397
0.577548
0.81761
0.693955
0.699226
0.874457
0.727529
0.670979
0.625961
0.593418
0.853397
0.66716
0.695717
0.738334
0.619457
0.821662
0.584858
0.81828
0.709731
0.77931
0.647287
0.779373
0.691885
0.617869
0.647186
0.710846
0.83079
0.567885
0.652846
0.655923
0.851398
0.860613
0.623777
0.663719
0.742944
0.819879
0.693972
0.839526
0.817315
0.800033
0.778327
0.720917
0.742408
0.722726
0.844207
0.699815
0.718073
0.624861
0.655638
0.696608
0.638362
0.856867
0.591891
0.832036
0.69553
0.851622
0.667676
0.855919
0.77891
0.784011
0.853494
0.838094
0.874189
0.678241
0.823283
0.708273
0.672216
0.656146
0.63874
0.844461
0.592799
0.731396
0.741608
0.687165
0.745719
0.661832
0.822966
0.707985
0.78732
0.580005
0.651021
0.675872
0.828143
0.627032
0.754143
0.660121
0.676977
0.623015
0.687547
0.678705
0.795869
0.849593
0.607247
0.727207
0.674949
0.669945
0.809553
0.632991
0.653213
0.855652
0.590506
0.722614
0.766012
0.844683
0.867889
0.660608
0.658017
0.615154
0.680603
0.639203
0.674418
0.771542
0.672259
0.622688
0.68343
0.711605
0.672409
0.641341
0.655449
0.711701
0.619598
0.790868
0.780165
0.660314
0.789352
0.576432
0.617211
0.624305
0.596843
0.86164
0.674881
0.674989
0.662217
0.808418
0.843239
0.717123
0.779903
0.646808
0.65758
0.716065
0.675291
0.650846
0.843652
0.733376
0.739187
0.863501
0.796509
0.697681
0.852225
0.605319
0.719368
0.716441
0.743916
0.65305
0.830663
0.67131
0.733509
0.699542
0.672996
0.640406
0.661109
0.778217
0.810648
0.828602
0.716344
0.721907
0.839802
0.784683
0.686641
0.722644
0.630208
0.67136
0.805675
0.607566
0.818371
0.667424
0.824006
0.862865
0.847298
0.662891
0.791987
0.819653
0.551609
0.83679
0.627975
0.84998
0.797342
0.669071
0.644788
0.730425
0.675729
0.636739
0.646005
0.769772
0.661789
0.858178
0.633788
0.665486
0.634827
0.631436
0.675547
0.809851
0.868676
0.631755
0.775149
0.707469
0.736598
0.694865
0.738921
0.838838
0.800458
0.668526
0.832556
0.808386
0.867818
0.632176
0.645887
0.647614
0.781973
0.860347
0.814884
0.696469
0.859387
0.706165
0.607929
0.643084
0.56646
0.699228
0.623303
0.867098
0.867617
0.724213
0.8678
0.804188
0.715018
0.856332
0.628483
0.826367
0.670583
0.843547
0.680916
0.636129
0.781983
0.722346
0.851142
0.838656
0.842152
0.643611
0.642796
0.596306
0.813727
0.800335
0.620921
0.712172
0.801027
0.587699
0.664167
0.64404
0.663578
0.734705
0.661494
0.717017
0.748628
0.712219
0.718605
0.78292
0.67602
0.686645
0.737801
0.712928
0.676853
0.826248
0.846462
0.621491
0.796108
0.58354
0.660322
0.827214
0.787875
0.660417
0.848522
0.627454
0.781587
0.691253
0.685057
0.830257
0.681447
0.788487
0.782693
0.760239
0.874919
0.765503
0.616613
0.754635
0.69181
0.789175
0.865731
0.762858
0.708438
0.652317
0.685398
0.831843
0.628019
0.793081
0.64548
0.734791
0.792392
0.782172
0.701649
0.828058
0.861574
0.682854
0.675862
0.718001
0.642104
0.626074
0.71916
0.784271
0.652725
0.616237
0.627687
0.612565
0.777223
0.706474
0.792638
0.662115
0.844241
0.70944
0.810345
0.853844
0.655584
0.838831
0.678876
0.717898
0.713102
0.81652
0.652842
0.691914
0.716116
0.639244
0.678978
0.636463
0.62247
0.583342
0.863373
0.868027
0.656264
0.660664
0.788778
0.603981
0.632894
0.676384
0.770415
0.783626
0.597646
0.58592
0.837458
0.656065
0.740499
0.654566
0.610702
0.643364
0.701527
0.815674
0.746726
0.61272
0.846463
0.814202
0.648072
0.734068
0.672596
0.856567
0.678678
0.696713
0.620664
0.756353
0.841072
0.741299
0.691697
0.656699
0.703132
0.742561
0.859787
0.8665
0.651327
0.863046
0.661102
0.723455
0.722725
0.686766
0.671771
0.821283
0.651237
0.726566
0.647608
0.633153
0.66838
0.637786
0.764264
0.844807
0.648554
0.66394
0.720659
0.673891
0.622239
0.581529
0.675265
0.802038
0.540349
0.649862
0.774457
0.719206
0.698794
0.75958
0.805924
0.609105
0.603128
0.811466
0.692955
0.615896
0.711475
0.814248
0.752096
0.725992
0.650633
0.665033
0.648756
0.859156
0.81227
0.871087
0.69603
0.765541
0.62745
0.706603
0.817553
0.608
0.61607
0.781244
0.813889
0.60433
0.667832
0.642021
0.602431
0.642957
0.866422
0.695209
0.66623
0.687849
0.650908
0.777778
0.705073
0.624184
0.6661
0.788214
0.702497
0.863096
0.621191
0.664243
0.755322
0.749779
0.689594
0.734513
0.63726
0.866507
0.800054
0.757085
0.820512
0.652342
0.816461
0.751305
0.744765
0.850606
0.603879
0.672152
0.86268
0.753521
0.601007
0.649915
0.79494
0.862795
0.705561
0.786512
0.648246
0.617266
0.644064
0.593897
0.816472
0.66049
0.708435
0.854044
0.655589
0.611168
0.658423
0.722253
0.660064
0.659536
0.653301
0.631234
0.703523
0.798755
0.852561
0.771882
0.670246
0.670894
0.592634
0.666958
0.752362
0.732666
0.755747
0.779304
0.671155
0.698639
0.80088
0.817971
0.868322
0.831439
0.853051
0.70636
0.625596
0.647753
0.63118
0.859736
0.720343
0.663554
0.850423
0.628466
0.799598
0.772415
0.669599
0.651181
0.672171
0.664564
0.817201
0.677688
0.770622
0.703428
0.85122
0.729388
0.874585
0.645635
0.705347
0.649812
0.57889
0.67838
0.782271
0.609241
0.489078
0.724742
0.824854
0.790356
0.66006
0.622829
0.647155
0.632258
0.653218
0.6383
0.685429
0.63576
0.782827
0.654712
0.660275
0.794693
0.706955
0.71722
0.808202
0.679359
0.706908
0.641518
0.785938
0.668551
0.665914
0.698323
0.639946
0.620796
0.660107
0.619332
0.785267
0.868955
0.823079
0.72588
0.770894
0.608045
0.860801
0.736403
0.775864
0.646877
0.779788
0.652904
0.679494
0.805434
0.84219
0.785463
0.72982
0.677814
0.874413
0.679938
0.800428
0.856466
0.763511
0.689871
0.604791
0.800946
0.727195
0.635304
0.757012
0.72855
0.849013
0.656798
0.853588
0.869662
0.684936
0.645449
0.857195
0.622897
0.638467
0.680815
0.638701
0.67486
0.638824
0.62337
0.70204
0.658749
0.644553
0.670538
0.728924
0.642619
0.654404
0.753319
0.707524
0.616765
0.84673
0.854201
0.857901
0.655256
0.615286
0.872364
0.616769
0.698414
0.635828
0.670088
0.6427
0.77978
0.671327
0.672471
0.615099
0.606111
0.635281
0.675471
0.607078
0.700597
0.720087
0.693755
0.850738
0.716995
0.761168
0.690809
0.811496
0.658699
0.675425
0.858091
0.681607
0.720096
0.622999
0.761225
0.867004
0.668661
0.747142
0.726146
0.642957
0.650216
0.655597
0.63404
0.785645
0.640566
0.69277
0.671515
0.686318
0.647563
0.655408
0.701041
0.669955
0.673242
0.844679
0.699363
0.690669
0.724648
0.845848
0.676144
0.607754
0.794083
0.622539
0.682974
0.645888
0.701102
0.655846
0.645351
0.697357
0.868357
0.820611
0.610744
0.669696
0.606861
0.637383
0.599329
0.636699
0.676629
0.643991
0.680862
0.745835
0.87277
0.674984
0.773565
0.716119
0.860211
0.674756
0.871078
0.74324
0.627579
0.746557
0.776221
0.664401
0.810947
0.645678
0.82795
0.661367
0.508828
0.693489
0.872451
0.85448
0.783045
0.75011
0.771382
0.619401
0.651611
0.76952
0.872673
0.520241
0.708693
0.644364
0.658579
0.688231
0.647466
0.627876
0.661548
0.636114
0.665015
0.667989
0.695453
0.874107
0.812016
0.599772
0.794224
0.643598
0.655846
0.802672
0.665824
0.681752
0.765196
0.538002
0.652911
0.703194
0.82371
0.63279
0.656059
0.678793
0.74462
0.630051
0.84845
0.608381
0.676333
0.679102
0.658657
0.753318
0.745944
0.849332
0.647014
0.784181
0.723574
0.740983
0.653168
0.753906
0.64413
0.623748
0.592687
0.73135
0.69239
0.678517
0.826192
0.708065
0.697719
0.753775
0.649899
0.641642
0.672676
0.742194
0.658439
0.871155
0.622059
0.609828
0.681378
0.670921
0.658027
0.633225
0.777085
0.679094
0.697168
0.629727
0.647108
0.69657
0.600255
0.868472
0.836425
0.633834
0.647652
0.809109
0.711309
0.651233
0.621412
0.641127
0.633614
0.722373
0.839789
0.651702
0.615922
0.745003
0.701037
0.609101
0.632317
0.703507
0.769167
0.860424
0.62581
0.60791
0.732068
0.814122
0.674178
0.72972
0.678404
0.648761
0.676073
0.744957
0.688787
0.652616
0.797192
0.679087
0.587559
0.716296
0.660827
0.803858
0.873795
0.659204
0.674753
0.674746
0.672938
0.62804
0.67513
0.634173
0.8541
0.807027
0.770062
0.677658
0.617574
0.797149
0.864206
0.65385
0.713141
0.660746
0.58345
0.704117
0.667459
0.586749
0.603821
0.727387
0.635262
0.610362
0.635017
0.763027
0.628621
0.801973
0.690055
0.659271
0.665986
0.644534
0.802977
0.594582
0.677681
0.685018
0.62356
0.726123
0.767373
0.728617
0.696983
0.787914
0.632459
0.633036
0.836641
0.648771
0.832964
0.737151
0.673244
0.72838
0.825012
0.700389
0.605175
0.848127
0.645256
0.678927
0.818814
0.644378
0.855652
0.654064
0.680839
0.550575
0.678917
0.635514
0.701236
0.639938
0.589515
0.637226
0.629493
0.58747
0.840882
0.629995
0.680026
0.729678
0.705959
0.865512
0.868339
0.654531
0.684562
0.805539
0.646876
0.840954
0.594629
0.669895
0.713487
0.655424
0.809924
0.666523
0.668908
0.669641
0.662485
0.633539
0.589877
0.825563
0.449
0.836653
0.775751
0.639164
0.610126
0.641022
0.863785
0.773427
0.751984
0.693797
0.725956
0.680041
0.823991
0.790563
0.646114
0.745115
0.847989
0.68448
0.710719
0.750014
0.601357
0.63192
0.783502
0.675852
0.69728
0.856865
0.628584
0.597304
0.6665
0.69717
0.684728
0.847897
0.6551
0.621765
0.652245
0.696569
0.657132
0.834999
0.686876
0.644338
0.657702
0.654418
0.646682
0.66875
0.744187
0.693019
0.641916
0.826791
0.667523
0.771997
0.64291
0.627772
0.684278
0.823337
0.8634
0.77553
0.6972
0.691387
0.797509
0.847479
0.623486
0.844686
0.636872
0.763242
0.74762
0.829707
0.700056
0.825823
0.843907
0.655373
0.643056
0.681085
0.710457
0.640698
0.595886
0.588842
0.778814
0.813677
0.621529
0.849634
0.704131
0.787901
0.695693
0.641202
0.806335
0.793922
0.664746
0.661547
0.635594
0.869698
0.772345
0.874089
0.62057
0.640065
0.679774
0.814347
0.749909
0.792892
0.723796
0.845562
0.660141
0.690495
0.710496
0.665307
0.734009
0.56966
0.802586
0.702844
0.719138
0.845031
0.615845
0.623786
0.599704
0.722348
0.83054
0.668667
0.760654
0.576274
0.618122
0.699486
0.663212
0.653304
0.801612
0.697738
0.65038
0.68552
0.73881
0.840848
0.727924
0.672864
0.826422
0.71402
0.855533
0.70467
0.770807
0.672235
0.623419
0.866654
0.640849
0.717026
0.730758
0.842268
0.766414
0.695246
0.645363
0.87481
0.682786
0.646715
0.78632
0.861711
0.778638
0.751959
0.616335
0.586819
0.711947
0.643857
0.673589
0.712413
0.641359
0.842673
0.861555
0.84374
0.672693
0.67358
0.651824
0.675834
0.75889
0.63017
0.771004
0.849877
0.629096
0.670827
0.662071
0.802777
0.757611
0.673228
0.644654
0.774279
0.643793
0.562266
0.63666
0.876656
0.591297
0.80099
0.739164
0.642972
0.829464
0.720736
0.852718
0.531754
0.668755
0.714907
0.849346
0.676987
0.841439
0.721864
0.590729
0.690093
0.662544
0.679056
0.586348
0.796592
0.669574
0.645609
0.605455
0.693285
0.802324
0.559666
0.671374
0.828255
0.684563
0.820268
0.591969
0.640135
0.648452
0.67845
0.642528
0.616313
0.642727
0.565148
0.670193
0.671589
0.790314
0.72532
0.830751
0.645129
0.677186
0.617569
0.70851
0.566474
0.678315
0.874343
0.696884
0.673308
0.873803
0.648914
0.718741
0.742359
0.618805
0.672566
0.694626
0.733529
0.853525
0.859801
0.863887
0.737312
0.689051
0.672674
0.639942
0.806921
0.758955
0.656162
0.651642
0.671907
0.691959
0.85476
0.686752
0.84818
0.652292
0.741124
0.641591
0.64723
0.621436
0.663382
0.835639
0.669384
0.622505
0.636134
0.87335
0.671045
0.643476
0.639871
0.645887
0.769988
0.723369
0.722642
0.686416
0.760466
0.611797
0.700565
0.691852
0.674353