/*--------------------------------*- C++ -*----------------------------------*\
  =========                 |
  \\      /  F ield         | OpenFOAM: The Open Source CFD Toolbox
   \\    /   O peration     | Website:  https://openfoam.org
    \\  /    A nd           | Version:  6
     \\/     M anipulation  |
\*---------------------------------------------------------------------------*/
FoamFile
{
    version     2.0;
    format      ascii;
    class       volVectorField;
    location    "0";
    object      U;
}
// * * * * * * * * * * * * * * * * * * * * * * * * * * * * * * * * * * * * * //

dimensions      [0 1 -1 0 0 0 0];

internalField   nonuniform List<vector> 
13046
(
(-0.645772 0.303603 0)
(-0.706218 -0.191962 -6.95878e-21)
(-0.165609 -0.0897684 -1.46154e-20)
(-0.583707 0.181239 0)
(-0.158261 0.0038869 -1.34238e-20)
(-0.574714 -0.200988 0)
(-0.659507 0.217201 2.04202e-21)
(-0.65161 -0.254459 3.51833e-21)
(-0.126778 0.0169942 -1.45987e-20)
(-1.54017 0.724982 3.86135e-21)
(-1.58715 -0.685198 0)
(0.0812811 -0.00270591 8.83222e-21)
(-0.855034 0.377797 -6.41884e-21)
(-0.8748 -0.304915 -1.05418e-20)
(-0.0712303 -0.0518044 7.75871e-21)
(-1.4672 0.812008 -5.74034e-21)
(0.0440337 -0.0161393 2.13049e-20)
(-1.62681 -0.561848 3.44573e-21)
(-0.295921 0.1112 0)
(-0.394523 -0.164036 -7.43634e-21)
(-0.522387 0.0391768 2.15904e-20)
(-1.48429 0.801331 -2.17814e-21)
(0.0571693 -0.0102331 -2.84311e-20)
(-1.61919 -0.588142 0)
(-0.520769 0.193653 8.52639e-21)
(-0.566867 -0.142474 -1.71697e-20)
(-0.192048 -0.0586694 0)
(-0.873052 0.421219 -1.14301e-20)
(-0.91505 -0.303362 3.106e-21)
(-0.0760915 -0.070438 -1.36169e-20)
(-0.667463 0.332891 0)
(-0.742354 -0.174321 0)
(-0.180734 -0.114684 1.48761e-20)
(-0.451971 0.147581 -9.90314e-21)
(-0.22447 -0.0568608 5.08363e-21)
(-0.503355 -0.101185 2.99153e-20)
(-0.434572 0.116098 -1.53403e-20)
(-0.235805 -0.0283981 7.78134e-21)
(-0.463145 -0.0966647 -1.5343e-20)
(-0.532828 0.321745 1.04359e-20)
(-0.407724 -0.274157 2.67994e-21)
(-0.752862 -0.0462427 -1.04776e-20)
(-0.385964 0.0237936 6.9562e-21)
(-0.304212 0.0117189 1.17588e-20)
(-0.357612 -0.0524474 0)
(-0.427467 0.0361931 4.44085e-21)
(-0.279179 0.0401012 -1.80931e-20)
(-0.36867 -0.088982 -2.26155e-21)
(-0.677251 0.297397 0)
(-0.720493 -0.222659 -4.95702e-22)
(-0.125946 -0.0645313 -7.53007e-23)
(-0.685598 -0.471165 1.65696e-20)
(-0.455641 0.332124 0)
(-0.915855 0.0673408 -1.22881e-20)
(-0.781491 -0.530978 -2.36275e-20)
(-0.972514 0.107498 -1.9418e-20)
(-0.399653 0.299933 1.56305e-20)
(-1.37149 -0.322258 -2.07723e-21)
(-1.20339 0.773711 0)
(-0.166622 -0.164126 1.19761e-20)
(-1.14203 0.407958 -5.99033e-21)
(-1.10585 -0.542414 5.93618e-21)
(-0.0165501 0.0456797 -3.20564e-20)
(0.072973 -0.0102314 1.63828e-20)
(-1.49553 -0.627372 -3.05552e-21)
(-1.46399 0.67655 -7.909e-21)
(-1.13586 0.758979 0)
(-1.30192 -0.262181 0)
(-0.231925 -0.216263 0)
(-1.07684 0.71903 -4.27036e-21)
(-1.24231 -0.239338 0)
(-0.253346 -0.229957 9.60804e-21)
(-1.43608 -0.338815 0)
(-1.25723 0.807325 1.71446e-22)
(-0.147185 -0.156024 -6.92722e-23)
(-0.330085 0.142526 0)
(-0.387918 -0.184232 8.00655e-21)
(-0.559358 0.0127084 -1.53662e-20)
(-0.069457 -0.0968666 1.30947e-20)
(-1.33411 0.826998 -1.18109e-20)
(-1.5135 -0.413066 0)
(-0.568766 0.211153 4.47865e-21)
(-0.595126 -0.173022 0)
(-0.162047 -0.0350242 0)
(0.0768381 -0.00874069 -1.464e-20)
(-1.53422 -0.640842 -2.12508e-21)
(-1.49839 0.701898 4.63089e-21)
(-1.51488 0.558655 -8.35328e-21)
(0.0536365 0.0166049 0)
(-1.43487 -0.738812 -2.44287e-21)
(-0.0276853 0.053162 0)
(-1.6023 0.450872 0)
(-1.40231 -0.864522 2.97144e-22)
(-1.18642 0.566315 0)
(-1.25188 0.580524 5.04461e-21)
(-1.23025 -0.4683 1.12105e-20)
(-1.2856 -0.516374 -5.233e-21)
(0.0115441 -0.0386847 -6.85187e-21)
(0.033333 -0.0225929 1.76711e-20)
(0.0341897 0.0269617 -8.23218e-22)
(-1.50284 0.527087 8.17529e-21)
(-1.4044 -0.758104 0)
(-0.466148 0.0728181 -3.72556e-23)
(-0.245503 0.0376213 9.35927e-21)
(-0.416306 -0.127401 0)
(-0.280342 0.213164 0)
(-0.880558 0.150598 -6.12616e-21)
(-0.749494 -0.45271 0)
(-0.441626 0.304611 1.78442e-20)
(-0.592779 -0.388703 0)
(-0.822974 0.0375061 -2.36408e-20)
(-1.45493 0.704311 0)
(0.0645082 -0.00183464 0)
(-1.48614 -0.686276 -6.20424e-22)
(-0.773937 0.336951 1.7733e-20)
(-0.807397 -0.268801 4.57015e-21)
(-0.0890363 -0.045941 1.42848e-20)
(-1.26652 0.66317 6.48345e-21)
(-1.19873 0.613675 -1.23321e-20)
(-1.34515 -0.466485 -9.39434e-21)
(0.000483973 -0.0561508 7.8994e-21)
(-1.26408 -0.44132 5.47555e-21)
(-0.00670027 -0.057348 -7.37882e-21)
(-1.52662 0.738914 -2.41259e-21)
(-1.58884 -0.679838 -2.49811e-21)
(0.0781352 -0.00034585 -3.94688e-21)
(-1.04368 0.508341 0)
(-1.0851 -0.388203 -7.79075e-21)
(-0.0302811 -0.0625718 1.64452e-20)
(-0.596118 0.352001 0)
(-0.346757 -0.241115 -1.35041e-20)
(-0.771056 -0.0872043 5.74299e-22)
(-0.0461344 0.0693612 0)
(-1.55237 0.427104 0)
(-1.37082 -0.840969 0)
(-1.36854 0.591103 0)
(-1.37188 -0.607428 -1.36201e-20)
(0.0577398 -0.0016425 -1.87266e-20)
(-0.740367 0.369639 0)
(-0.806487 -0.209049 0)
(-0.160146 -0.120991 0)
(-0.861491 0.265242 0)
(-0.822626 -0.400888 0)
(-0.105231 0.0708234 0)
(-0.410809 0.293448 0)
(-0.660991 -0.431559 0)
(-0.860528 0.0702088 1.274e-20)
(-0.275192 0.197303 -1.8435e-21)
(-0.842609 0.144832 -1.33927e-20)
(-0.7242 -0.425499 1.49274e-20)
(-1.19956 0.441135 1.3389e-20)
(-1.16138 -0.562569 0)
(0.00614866 0.0300865 4.16171e-20)
(-0.210602 0.126294 0)
(-0.728775 0.151843 1.45929e-20)
(-0.63981 -0.332076 -3.83105e-21)
(-0.945934 -0.609051 0)
(-1.08351 0.206873 1.37108e-20)
(-1.02661 -0.642276 0)
(-1.15082 0.257507 7.8366e-21)
(-0.267133 0.221979 0)
(-0.204185 0.181035 0)
(-0.890114 0.220143 1.85106e-21)
(-0.810016 -0.442023 7.82717e-21)
(-0.16118 0.119998 -8.01928e-21)
(-1.56874 0.701039 -3.9538e-21)
(0.0831799 -0.00467311 0)
(-1.55663 -0.715768 -4.21372e-21)
(-1.48646 0.720451 -1.77346e-21)
(0.0702016 0.00134021 -1.80709e-21)
(-1.54074 -0.681953 0)
(-1.39238 0.623455 -6.96134e-21)
(-1.40606 -0.605958 0)
(0.0628575 -0.00786575 2.12848e-20)
(-0.721726 0.46121 0)
(-0.90451 -0.109109 3.2274e-21)
(-0.377086 -0.287986 7.78549e-21)
(-0.840592 0.191526 1.21507e-20)
(-0.196282 0.145924 3.88045e-21)
(-0.754335 -0.408966 0)
(0.0779268 -0.0035026 0)
(-1.5274 -0.761306 0)
(-1.59682 0.642262 3.13124e-21)
(-0.657306 0.418039 0)
(-0.851033 -0.0830563 -7.12888e-21)
(-0.393467 -0.280851 2.03308e-21)
(-0.217183 0.144572 0)
(-0.75456 0.149575 0)
(-0.656889 -0.354491 0)
(-0.798812 0.229995 6.03864e-21)
(-0.760807 -0.366102 0)
(-0.117548 0.0668969 0)
(-0.956304 -0.372721 -3.31534e-23)
(-0.0354736 -0.02595 -9.65192e-21)
(-0.987047 0.467045 1.80959e-20)
(-1.02762 -0.364186 0)
(-0.0393942 -0.0559169 -2.06085e-20)
(-1.53222 0.634768 -8.19608e-21)
(0.0763162 0.00126181 1.32184e-20)
(-1.50213 -0.710216 -1.07653e-20)
(-0.0158803 0.0570746 1.19915e-20)
(-1.50009 0.457444 5.34275e-21)
(-1.36289 -0.794242 1.23989e-20)
(-1.58689 0.511159 -1.32384e-20)
(-1.4402 -0.810507 0)
(0.0235093 0.028233 -1.17722e-20)
(-0.732489 -0.532654 -8.39736e-22)
(-1.00353 0.0547153 5.40567e-21)
(-0.53753 0.413099 0)
(-0.803104 0.294245 -2.70692e-20)
(-1.31417 0.841364 6.24388e-21)
(-0.0986993 -0.114562 -8.08081e-21)
(-1.51442 -0.398603 0)
(-1.46386 -0.81734 0)
(-1.60995 0.549225 -1.06531e-20)
(0.0398405 0.0141464 0)
(-0.475294 0.114107 -2.23708e-20)
(-0.215306 0.00711108 -7.64127e-21)
(-0.465138 -0.134268 2.25066e-20)
(-0.83864 0.427219 0)
(-0.897666 -0.271893 -4.49978e-22)
(-0.113921 -0.0949991 -7.94285e-21)
(-0.0397433 0.0697952 9.19263e-21)
(-1.50877 0.43754 0)
(-1.3515 -0.816326 -1.42974e-20)
(-0.869499 0.331283 2.16032e-20)
(-0.93092 -0.381761 1.90035e-20)
(-0.0389044 -0.00962611 0)
(0.0774106 -0.00785748 0)
(-1.51813 -0.730789 2.43252e-21)
(-1.55895 0.690524 0)
(-0.474645 0.368248 0)
(-1.0265 0.0841372 0)
(-0.790896 -0.572671 0)
(-1.54054 0.50135 1.16047e-20)
(-1.41211 -0.784883 0)
(0.0195701 0.033298 -5.88204e-23)
(-1.01405 0.239062 5.2619e-21)
(-0.918173 -0.540243 -5.85612e-21)
(-0.17508 0.149742 0)
(-1.04193 0.535877 0)
(-1.09787 -0.368706 7.29575e-21)
(-0.0508365 -0.0790413 1.29634e-20)
(-1.24267 -0.813708 -1.90933e-20)
(-1.41918 0.325656 -9.98288e-21)
(-0.152996 0.150528 7.2121e-21)
(-1.22706 0.271155 0)
(-1.09046 -0.693901 -7.8951e-21)
(-0.201479 0.181034 -2.64251e-22)
(0.0727833 -0.0125048 -1.15343e-20)
(-1.48881 -0.744358 0)
(-1.56876 0.668516 -1.15816e-21)
(-0.553001 0.373999 9.53101e-21)
(-0.525204 -0.36286 -9.78164e-21)
(-0.849903 -0.0169249 1.02507e-21)
(-1.35521 0.747027 1.28847e-21)
(0.0549213 0.0141886 -1.69792e-20)
(-1.52124 -0.60216 0)
(-0.247642 0.0790065 -4.46308e-21)
(-0.526588 0.072419 -1.74511e-20)
(-0.438442 -0.175533 2.22991e-20)
(-1.03691 0.302781 6.07824e-21)
(-0.983495 0.253013 1.95776e-23)
(-0.969843 -0.521273 -1.43359e-20)
(-0.900372 -0.509776 0)
(-0.14906 0.12745 7.29048e-21)
(-0.0922065 0.0925886 -7.5366e-21)
(-0.0401579 -0.073596 -1.71377e-20)
(-1.37291 0.83383 6.42665e-21)
(-1.56484 -0.438229 -9.21143e-21)
(-0.981033 0.520089 0)
(-1.04709 -0.320243 0)
(-0.0940302 -0.103392 -1.70239e-20)
(-1.30115 0.313602 -2.69911e-21)
(-1.1565 -0.735908 0)
(-0.159793 0.154075 0)
(-1.32487 0.634543 -6.17333e-21)
(-1.36594 -0.533444 0)
(0.042038 -0.0267847 7.74589e-21)
(-0.360707 0.0443321 4.6657e-21)
(-0.384101 -0.0331479 6.84155e-21)
(-0.303315 -0.018039 -2.33063e-21)
(-1.12375 0.277998 -9.9838e-21)
(-1.02109 -0.609641 0)
(-0.156656 0.147996 -1.23922e-20)
(-0.997839 0.550101 0)
(-1.07834 -0.311586 9.06348e-21)
(-0.110905 -0.119927 -1.08907e-20)
(-0.910973 0.374237 0)
(-0.981168 0.409127 2.12062e-21)
(-0.573417 0.395006 3.41997e-21)
(-0.54686 -0.386543 2.83134e-20)
(-0.879342 -0.0101925 -2.44619e-20)
(-1.1826 0.321511 -1.00669e-20)
(-1.08048 -0.633312 1.20041e-20)
(-0.1085 0.116807 1.13044e-20)
(-1.36865 0.644201 0)
(0.0553517 -0.0183103 -2.74167e-20)
(-1.41134 -0.569421 -6.41726e-21)
(-0.437916 0.283283 -2.46869e-20)
(-0.549059 -0.360028 0)
(-0.786904 0.0361262 8.00321e-21)
(-0.303804 0.251992 -1.44574e-20)
(-1.10569 0.191985 -7.8851e-21)
(-0.952247 -0.639272 0)
(-1.17529 0.659754 -6.31968e-21)
(-1.2747 -0.377891 -7.60619e-21)
(-0.0701871 -0.100369 4.89913e-21)
(-0.514946 0.373289 1.23455e-21)
(-0.646574 -0.45263 0)
(-0.918418 0.0423476 1.70389e-20)
(-1.23189 0.695958 0)
(-1.27128 0.700519 0)
(-1.34286 -0.4075 -4.7121e-21)
(-0.053626 -0.0909116 -1.27311e-20)
(-1.37464 -0.449258 6.66162e-21)
(-0.0208102 -0.0685549 1.35209e-20)
(0.081533 -0.00281727 -1.01971e-20)
(-1.53292 -0.733902 0)
(-1.57559 0.664048 -5.21022e-21)
(-1.13501 0.593997 7.37632e-21)
(-1.20237 -0.403812 0)
(-0.0348987 -0.0741522 4.4115e-21)
(-1.34124 -0.651135 -4.42837e-22)
(0.043724 -0.00200776 1.47868e-20)
(-1.30651 0.674336 -4.74573e-22)
(-0.643915 0.102423 -8.07002e-21)
(-0.245259 0.127185 0)
(-0.541147 -0.269281 0)
(-1.06141 0.381185 1.42242e-20)
(-1.03532 -0.490491 0)
(-0.0243296 0.0364498 2.47277e-20)
(0.0734571 -0.00028676 -8.43838e-21)
(-1.48633 0.627852 1.71e-20)
(-1.46904 -0.675135 8.62649e-21)
(-0.817713 -0.562438 0)
(-1.00868 0.114338 7.11529e-21)
(-0.400224 0.317325 -1.77108e-20)
(-1.28181 -0.819981 -2.25712e-20)
(-1.45598 0.365528 -5.90821e-21)
(-0.108059 0.115931 0)
(-0.827856 -0.333533 -1.95319e-20)
(-0.0666944 -3.84382e-05 0)
(-1.11435 0.460703 1.50626e-20)
(-1.10112 -0.473928 6.62722e-21)
(0.00724372 -0.00670091 7.55042e-21)
(-0.814555 -0.354848 1.13932e-20)
(-0.0717444 0.0202173 -2.06944e-23)
(-1.45165 0.800116 -3.92184e-22)
(0.0345674 -0.0256673 1.00743e-20)
(-1.59977 -0.540413 -5.06879e-21)
(-0.713068 -0.546393 0)
(-1.03063 0.0332782 1.68674e-21)
(-0.597085 0.4586 0)
(-1.17469 0.491734 -1.53622e-20)
(-1.17756 -0.506715 -8.07675e-21)
(0.0216528 -0.0011621 -9.1288e-21)
(-0.888604 0.258565 0)
(-0.832092 -0.430973 -1.13676e-20)
(-0.119954 0.0891469 0)
(-0.884506 0.118309 0)
(-0.719737 -0.46422 0)
(-0.3448 0.248518 0)
(-0.64396 0.258077 -6.20014e-21)
(-0.666521 -0.211383 -1.09091e-20)
(-0.134143 -0.0440537 2.59038e-23)
(-0.354207 0.289081 1.79277e-20)
(-1.07229 0.157548 1.89895e-20)
(-0.901335 -0.614739 1.1583e-20)
(-1.55869 0.592922 -6.56489e-21)
(-1.47691 -0.744763 9.04496e-21)
(0.0663143 0.00732135 -1.24534e-20)
(-1.2929 -0.795915 1.53716e-20)
(-1.44144 0.387325 5.99084e-21)
(-0.0787366 0.0988279 9.2679e-21)
(-0.949318 0.650045 -1.33173e-20)
(-0.349828 -0.291502 1.44728e-20)
(-1.13679 -0.172099 -1.06502e-20)
(-1.30536 0.774185 3.51518e-21)
(-1.25885 0.745188 -3.3391e-21)
(-1.39333 -0.39219 -1.4919e-21)
(-1.44986 -0.413516 0)
(-0.0601426 -0.0923163 -4.64322e-21)
(-0.0779271 -0.106762 -4.13359e-21)
(0.0499332 0.00372371 -2.0029e-20)
(-1.39753 -0.636271 4.88148e-22)
(-1.32879 0.685225 1.09004e-21)
(-1.37907 0.761511 -1.21765e-22)
(0.0580243 0.0156385 2.34924e-20)
(-1.55973 -0.598798 0)
(-1.10972 0.335334 -2.27766e-20)
(-1.04596 -0.559317 -3.12854e-21)
(-0.0771463 0.0897139 0)
(0.0804681 -0.00156358 -2.54588e-20)
(-1.5492 0.657165 5.18702e-21)
(-1.52694 -0.707379 0)
(-1.08092 0.677713 1.87833e-20)
(-1.13925 0.697421 -1.39736e-20)
(-1.2177 -0.285916 8.22208e-21)
(-1.26722 -0.319551 3.11001e-21)
(-0.191006 -0.180751 -8.20161e-21)
(-0.145721 -0.149475 -4.10013e-21)
(0.0405117 -0.000493689 0)
(-1.45635 -0.84266 0)
(-1.66312 0.534811 1.66583e-21)
(-1.27091 0.737015 -1.51212e-21)
(0.0485356 0.0180151 0)
(-1.48482 -0.576954 0)
(-0.477236 -0.0106144 -2.88692e-23)
(-0.338719 0.107087 9.91781e-21)
(-0.320392 -0.110774 4.9524e-21)
(-1.38467 0.711238 -1.5221e-21)
(-1.47918 -0.655115 9.07586e-22)
(0.0574334 0.00489382 1.1002e-21)
(-0.806713 0.493831 0)
(-0.943812 -0.164763 -1.46968e-20)
(-0.292528 -0.23439 -8.0042e-23)
(-1.60123 0.625078 2.32699e-22)
(-1.51162 -0.77672 1.14394e-20)
(0.0721934 -0.00106434 2.0482e-23)
(-1.19114 -0.664796 -2.33401e-25)
(0.0349852 -0.0172383 -8.50705e-21)
(-1.27386 0.574967 1.05484e-21)
(-0.464933 0.275463 -9.04531e-21)
(-0.421889 -0.262757 8.69066e-21)
(-0.706029 -0.0176749 2.57177e-20)
(-0.576263 0.113167 0)
(-0.511864 -0.21464 -2.47378e-20)
(-0.209739 0.0722727 1.23333e-20)
(-1.50509 0.764949 0)
(0.0737922 0.0021875 1.17838e-20)
(-1.60224 -0.660142 -1.95623e-22)
(-0.618866 0.12906 0)
(-0.549314 -0.24431 -8.59401e-21)
(-0.200064 0.0909321 -1.7472e-20)
(-0.443582 -0.00566559 1.03124e-20)
(-0.327719 0.0792583 -5.24741e-21)
(-0.321188 -0.0857345 2.62366e-21)
(-0.4527 0.363074 8.60637e-21)
(-1.08929 0.113139 -6.60645e-21)
(-0.872464 -0.63757 1.27593e-20)
(-0.588998 0.0355648 0)
(-0.431752 -0.210485 0)
(-0.311742 0.161473 1.44865e-21)
(-0.634977 0.0805435 1.27737e-20)
(-0.503215 -0.250855 6.57011e-21)
(-0.284757 0.156732 2.04706e-22)
(-0.887188 0.615527 2.02672e-20)
(-1.08499 -0.138993 -1.08605e-20)
(-0.4043 -0.333303 -1.42825e-20)
(0.0751506 -0.00534291 1.78738e-20)
(0.0802355 -0.00439342 -1.81002e-20)
(-1.60049 -0.647317 2.99119e-21)
(-1.5863 -0.667609 2.2005e-21)
(-1.51627 0.758729 0)
(-1.53258 0.744134 -3.95418e-21)
(-1.58782 0.592345 8.25253e-21)
(-1.49227 -0.765529 -7.44589e-21)
(0.0661126 0.0061119 1.54483e-20)
(-0.335831 -0.292517 -9.24431e-21)
(-1.00843 0.702989 4.11239e-21)
(-1.19604 -0.187973 1.35699e-20)
(-0.585322 0.378066 -8.70309e-21)
(-0.454655 -0.317046 -8.94646e-21)
(-0.828647 -0.0457964 7.92545e-21)
(-1.24286 0.237575 0)
(-1.07956 -0.724107 8.17132e-21)
(-0.257582 0.220896 2.73052e-22)
(-1.29349 -0.739293 1.72224e-21)
(0.0513592 -0.0291892 -7.88192e-21)
(-1.48403 0.579156 -1.25358e-22)
(-0.00140105 0.036366 0)
(-1.61577 0.483116 0)
(-1.42058 -0.858133 5.23144e-21)
(-1.52089 0.712326 2.52505e-21)
(0.0757185 -0.00286306 0)
(-1.55024 -0.704192 -2.38952e-21)
(0.028365 -0.0129669 -3.16963e-32)
(-1.12836 -0.634869 1.08865e-21)
(-1.18717 0.56086 -1.48325e-21)
(-1.18828 -0.564445 -1.25361e-21)
(0.0283353 0.000149073 3.16205e-32)
(-1.12876 0.632337 1.29118e-21)
(-1.20046 -0.645127 -1.60885e-20)
(-1.27554 0.414586 0)
(-0.0282135 0.0656335 -2.40485e-20)
(-1.42122 -0.817209 -1.33143e-21)
(0.0530416 -0.0214842 -8.04111e-21)
(-1.65337 0.561688 0)
(-1.40257 0.580908 -9.09499e-21)
(-1.38136 -0.642803 8.37244e-21)
(0.0584312 0.00584837 1.24814e-20)
(-1.44525 0.84225 1.06935e-20)
(0.0375017 -0.00397713 7.19234e-21)
(-1.67451 -0.538778 0)
(-0.761376 0.303393 4.80295e-21)
(-0.0835326 -0.0150593 -4.88346e-21)
(-0.789074 -0.297208 4.74399e-21)
(-1.45152 -0.851975 2.5831e-21)
(0.0292735 0.0103413 8.52783e-21)
(-1.65238 0.519348 2.24878e-21)
(-1.19286 0.210879 -7.59953e-21)
(-0.296438 0.250512 -4.89152e-21)
(-1.02981 -0.69668 0)
(-1.1798 -0.727674 0)
(-1.31088 0.341143 0)
(-0.117946 0.128143 0)
(0.00787623 -0.00588798 0)
(-0.702903 -0.363482 2.54514e-21)
(-0.697152 0.359362 -2.7172e-21)
(-1.3259 -0.680348 5.22579e-22)
(0.0456604 -0.00942828 -1.02772e-20)
(-1.34424 0.653353 -3.52878e-22)
(-0.691841 0.261724 -1.23057e-20)
(-0.108168 -0.0139921 1.1672e-20)
(-0.708864 -0.260775 5.55533e-21)
(-1.48457 -0.80563 8.88033e-21)
(-1.64291 0.588332 -3.09049e-21)
(0.0607464 -0.00532764 0)
(0.0392193 -0.00670181 -8.90807e-21)
(-1.67885 0.5331 0)
(-1.43657 -0.852232 -6.70022e-21)
(-1.52756 0.694154 -4.80326e-21)
(0.0813086 -0.00507375 2.73209e-20)
(-1.546 -0.672048 0)
(0.00198083 -0.0480863 -2.06711e-20)
(-1.55394 -0.492065 6.29657e-21)
(-1.40017 0.800412 0)
(-0.855273 0.622412 -2.55674e-20)
(-1.08669 -0.112653 1.38297e-20)
(-0.472391 -0.38602 -4.54133e-21)
(-1.35149 -0.352845 2.20888e-21)
(-1.20674 0.748775 8.01344e-21)
(-0.130312 -0.141539 -1.27825e-20)
(-0.000622051 -0.041929 -1.84958e-20)
(-1.42018 0.847104 0)
(-1.62947 -0.489471 0)
(-0.853851 0.485173 -4.24504e-21)
(-0.929556 0.529955 0)
(-0.949199 -0.223288 -1.53799e-20)
(-1.02837 -0.260227 1.64598e-20)
(-0.195624 -0.161667 2.24954e-21)
(-0.167051 -0.153768 -2.39717e-21)
(-0.795574 0.469659 4.07177e-21)
(-0.916157 -0.182365 0)
(-0.252681 -0.199652 4.28758e-21)
(-1.06288 0.694473 0)
(-1.21595 -0.262578 -1.32789e-20)
(-0.231439 -0.210206 2.95864e-21)
(-1.2547 -0.762646 -7.84308e-21)
(-1.39356 0.376349 6.49542e-21)
(-0.0816776 0.100564 -1.8944e-20)
(-1.47526 -0.806207 0)
(-1.60229 0.575117 1.17409e-20)
(0.0542232 0.00755303 0)
(-0.0234594 0.0626644 -6.15884e-21)
(-1.43591 0.44074 -3.8062e-21)
(-1.3208 -0.757266 -5.04657e-21)
(-1.25907 -0.569103 2.1092e-22)
(0.0339599 0.00506517 5.50198e-21)
(-1.17828 0.658985 0)
(-0.565128 0.309544 8.31798e-21)
(-0.573779 0.296979 0)
(-0.294227 -0.186058 0)
(-0.709643 -0.0948322 3.12124e-20)
(-0.25331 -0.155335 0)
(-0.69286 -0.120969 -1.99066e-20)
(-0.951736 0.619133 0)
(-0.868388 0.565687 0)
(-0.319446 -0.261684 2.97459e-23)
(-1.10338 -0.209188 8.69384e-21)
(-0.281002 -0.234676 2.17416e-20)
(-1.03099 -0.173109 -1.85902e-20)
(-1.15664 -0.687556 0)
(0.0380822 -0.0257863 1.15541e-20)
(-1.33374 0.56043 0)
(-1.48827 -0.795217 -5.83369e-21)
(-1.63061 0.594522 1.12655e-21)
(0.0637181 -0.00234321 5.42029e-21)
(-0.640424 0.436581 -1.47527e-20)
(-0.522534 -0.38579 -1.01155e-20)
(-0.912493 -0.0382075 2.52633e-20)
(-1.18814 -0.777404 1.71373e-20)
(-1.35274 0.301051 1.6865e-20)
(-0.177585 0.16944 0)
(-0.0169884 -0.0622946 2.21041e-20)
(-1.52903 -0.470094 -6.69415e-21)
(-1.3755 0.799082 8.11737e-21)
(-1.43424 -0.715117 0)
(-1.48672 0.666264 0)
(0.0618845 -0.0112968 0)
(-1.44865 -0.739747 0)
(-1.5267 0.650679 1.81953e-21)
(0.0663834 -0.0159987 1.95983e-21)
(-1.1322 0.669191 -7.8506e-21)
(-1.24531 -0.344212 4.72182e-21)
(-0.114005 -0.12809 6.06413e-21)
(-0.392878 0.253192 -2.35539e-21)
(-0.559678 -0.345982 0)
(-0.760816 0.0589502 -1.50565e-22)
(-1.54099 0.710781 5.59663e-21)
(0.0823929 -0.00444361 1.58125e-20)
(-1.57062 -0.678472 -2.56155e-21)
(-1.23182 -0.68604 0)
(-1.32181 0.418384 0)
(-0.0325995 0.0740904 2.07345e-20)
(0.0598282 -0.0190979 5.23298e-21)
(-1.46818 -0.585682 1.08152e-20)
(-1.41583 0.690445 1.79215e-20)
(-0.824151 0.548506 0)
(-0.370342 -0.296421 -1.46548e-20)
(-1.00335 -0.144939 9.59779e-21)
(-0.973252 0.202723 1.71617e-22)
(-0.855286 -0.515105 8.58774e-21)
(-0.232851 0.184537 0)
(-0.523319 0.328314 1.01258e-22)
(-0.459124 -0.310358 -2.96291e-21)
(-0.781919 -0.0257289 -1.03825e-20)
(0.0834384 -0.00375975 -1.7882e-23)
(-1.5572 -0.715733 5.66347e-21)
(-1.56516 0.689443 5.31515e-21)
(-1.32126 0.673607 -3.46682e-21)
(-1.39374 -0.509936 -3.47263e-21)
(0.0256812 -0.0398667 0)
(-0.473202 0.266583 -9.02053e-21)
(-0.369883 -0.22264 1.89231e-20)
(-0.678092 -0.0394885 -1.69814e-20)
(-1.43012 0.858478 4.61994e-21)
(0.0104651 -0.028504 8.18332e-21)
(-1.66143 -0.502955 -3.44846e-21)
(-0.738156 0.397645 -5.20029e-21)
(-0.827712 -0.193773 0)
(-0.196144 -0.150207 0)
(-0.745159 0.19316 -2.25884e-20)
(-0.683667 -0.332307 5.28507e-21)
(-0.157254 0.093125 0)
(-1.15888 -0.681693 0)
(-1.2632 0.344359 1.4404e-20)
(-0.0960164 0.115466 0)
(-1.41722 0.798139 -1.77575e-21)
(0.0567407 0.0134165 -2.51865e-21)
(-1.6327 -0.587036 1.50626e-21)
(-1.41361 0.818356 5.0288e-21)
(0.0499896 0.0118209 0)
(-1.65415 -0.562989 -2.44238e-21)
(0.0505509 -0.0254615 4.70397e-21)
(-1.49035 -0.564114 -6.02466e-21)
(-1.41484 0.715053 -1.65459e-20)
(-1.00636 0.181919 -6.81003e-21)
(-0.881985 -0.560025 -8.62301e-21)
(-0.279292 0.216393 0)
(0.053675 0.0192021 2.3074e-21)
(-1.59619 -0.581594 -1.4161e-21)
(-1.35358 0.778744 0)
(0.0644585 0.00622561 0)
(-1.42566 -0.675789 -6.33308e-21)
(-1.45941 0.594111 -2.04168e-21)
(0.0210335 -0.0165451 9.31498e-21)
(-0.967462 -0.60026 -6.99373e-22)
(-1.07678 0.481971 0)
(-0.963886 0.596249 9.91242e-22)
(-1.08024 -0.485672 0)
(0.0204029 0.0033845 9.33746e-21)
(0.0106901 -0.0381256 -3.30995e-24)
(-1.60181 -0.509356 0)
(-1.42294 0.826325 0)
(0.0807596 -0.00679778 0)
(-1.53995 -0.738475 0)
(-1.58244 0.682258 5.91781e-21)
(-1.50041 0.758283 -5.1511e-21)
(-1.48236 0.74171 4.1668e-21)
(0.0681555 -0.0104472 -8.97469e-21)
(-1.59551 -0.610415 -1.05633e-21)
(0.0673311 -0.0134771 -1.46472e-20)
(-1.56359 -0.606983 2.21294e-21)
(-1.46354 0.56434 4.09211e-21)
(-1.41038 -0.700075 4.32453e-21)
(0.0551217 0.0139337 0)
(-0.240977 0.215983 0)
(-1.13298 -0.771668 0)
(-1.31177 0.258866 0)
(-0.54416 0.246953 0)
(-0.214681 -0.106831 -2.60347e-20)
(-0.628695 -0.130241 1.09609e-20)
(-1.42386 0.487778 1.21328e-20)
(-1.33854 -0.719371 1.69936e-21)
(0.0161386 0.0401211 1.81587e-20)
(-0.0090246 0.0560075 1.17733e-20)
(-1.40323 0.45875 -1.68906e-20)
(-1.30337 -0.724709 -2.35494e-21)
(-1.3939 0.862389 6.00877e-21)
(-0.0317119 -0.0632054 8.85078e-21)
(-1.6137 -0.449318 9.60949e-21)
(-0.979661 0.646861 0)
(-1.14213 -0.213101 3.94755e-21)
(-0.28689 -0.244486 -2.13126e-20)
(-0.867201 0.536566 0)
(-0.998798 -0.187228 1.92977e-20)
(-0.27693 -0.230962 -3.64811e-23)
(-1.27198 0.466221 -1.70146e-20)
(-1.23095 -0.615285 2.20212e-21)
(0.0152576 0.0329285 -1.05316e-20)
(-1.30593 0.459542 0)
(-1.24578 -0.643156 2.07919e-21)
(0.00553329 0.0422778 9.60893e-21)
(-0.423963 0.228309 0)
(-0.371139 -0.206519 -2.99108e-20)
(-0.632312 -0.0224723 9.58533e-21)
(-0.954491 0.55965 0)
(-1.05776 -0.259024 0)
(-0.177962 -0.168072 3.23519e-21)
(0.0105984 0.0203103 -1.84411e-20)
(-1.42748 -0.8688 -1.43736e-20)
(-1.65795 0.495883 0)
(-1.55785 0.623924 1.31499e-21)
(0.0623119 -0.022395 0)
(-1.39639 -0.760692 1.41743e-21)
(-1.54416 0.58725 -5.45744e-22)
(0.056443 -0.0278847 0)
(-1.35136 -0.758821 -3.73638e-21)
(-0.661801 0.400827 6.12979e-21)
(-0.338731 -0.239903 -3.17422e-21)
(-0.824269 -0.112347 -2.65449e-22)
(-1.36034 -0.700426 4.40847e-22)
(0.0539006 -0.0150465 1.57231e-20)
(-1.44338 0.641421 0)
(-1.37204 0.714044 1.45913e-20)
(0.0311439 -0.0368442 1.00004e-20)
(-1.45625 -0.525957 0)
(0.0486765 -0.0241377 -2.32794e-21)
(-1.28882 -0.723336 -1.05932e-21)
(-1.43416 0.594543 0)
(-0.55248 0.149067 1.55468e-20)
(-0.184631 0.0273114 1.57227e-20)
(-0.527308 -0.184816 4.4532e-23)
(-1.02139 0.453371 -2.64487e-21)
(-1.04508 -0.407555 -2.48521e-21)
(-0.0183935 -0.0306 -1.11107e-20)
(-0.806506 -0.526975 1.96472e-20)
(-0.962642 0.144772 1.65021e-20)
(-0.335814 0.251865 0)
(0.0538089 -0.0151222 0)
(-1.44347 -0.821362 -1.93898e-21)
(-1.65838 0.568056 0)
(-1.2098 -0.702339 0)
(-1.31975 0.39259 0)
(-0.0593349 0.090521 0)
(0.0322865 -0.0148288 0)
(-1.45239 0.839268 -3.74663e-21)
(-1.66357 -0.533588 3.39129e-21)
(-1.0973 0.487563 0)
(-1.10905 -0.44965 1.26814e-21)
(0.00112153 -0.0223944 1.08598e-20)
(-0.50898 0.218286 0)
(-0.219068 -0.0934904 2.23632e-20)
(-0.588825 -0.11831 0)
(-1.48085 -0.803997 -8.38519e-21)
(-1.63262 0.60588 2.9417e-21)
(0.0645657 -0.0121684 0)
(0.0729232 -0.00576978 -1.089e-20)
(-1.46426 -0.648212 3.99953e-22)
(-1.45676 0.650932 4.92319e-22)
(-1.46857 0.764806 0)
(-1.4463 0.757965 2.48012e-21)
(0.0678577 0.0077378 -5.80518e-21)
(0.066186 0.00832547 -7.13355e-21)
(-1.5981 -0.631677 -1.26163e-21)
(-1.57546 -0.640582 1.03797e-21)
(-0.988055 0.31352 0)
(-0.936637 -0.485528 3.35258e-20)
(-0.0817235 0.0741594 1.17841e-20)
(-1.13543 -0.606846 2.25824e-20)
(-1.21035 0.378991 0)
(-0.0444954 0.0741338 -1.27496e-20)
(-0.693317 0.212436 -1.27487e-20)
(-0.669803 -0.284465 9.05063e-21)
(-0.122059 0.0409887 1.90323e-20)
(-1.43338 -0.786282 4.06705e-21)
(-1.60557 0.61214 2.06762e-21)
(-1.41071 -0.800637 -1.78908e-21)
(0.0638155 -0.021046 0)
(-1.62174 0.583549 -1.9924e-21)
(0.0571599 -0.024152 0)
(-1.24898 0.555062 0)
(-1.25896 -0.536903 0)
(0.0360095 -0.0106562 1.19313e-20)
(-1.61974 0.625344 4.12986e-21)
(-1.60806 0.627035 -7.34979e-21)
(-1.49678 -0.78315 2.65711e-21)
(-1.47692 -0.77535 -7.47771e-21)
(0.0709664 -0.0127044 1.58819e-20)
(0.0696135 -0.0156637 -9.6547e-25)
(-1.15855 0.353066 0)
(-1.08612 -0.603917 -2.1349e-20)
(-0.082552 0.0999371 1.65449e-20)
(-0.920359 0.345627 1.17591e-20)
(-0.966799 -0.419996 -1.50809e-20)
(-0.0276606 0.00807133 0)
(-1.45204 0.825985 0)
(0.0497997 0.00277246 0)
(-1.66204 -0.568296 2.34887e-21)
(-1.00421 0.345007 8.64845e-21)
(-0.964836 -0.470393 -9.32245e-21)
(-0.0529284 0.0522116 -1.95304e-20)
(-0.773346 0.255066 5.08618e-21)
(-0.755619 -0.334537 -1.0627e-20)
(-0.0942005 0.0353981 1.09558e-20)
(-1.44512 0.785243 0)
(0.0632536 0.00936304 0)
(-1.62869 -0.612279 -3.35689e-21)
(-1.12081 0.521489 0)
(-1.15727 -0.437208 2.55746e-21)
(0.00236235 -0.0383793 -1.19332e-20)
(-1.00721 -0.705948 0)
(-1.18394 0.187214 0)
(-0.347685 0.290326 -6.28742e-22)
(-0.827909 0.567332 -6.59092e-22)
(-1.02394 -0.126667 0)
(-0.406797 -0.32774 2.24815e-20)
(-1.33167 -0.856358 8.68113e-21)
(-0.0869274 0.0972727 0)
(-1.52487 0.390432 0)
(0.0152218 -0.00637439 -2.24231e-20)
(-0.92351 -0.483507 -3.56018e-21)
(-0.918151 0.479103 3.80201e-21)
(-1.05324 0.409062 0)
(-1.02897 -0.45726 9.23433e-21)
(-0.0123578 0.0117716 -9.96475e-21)
(-1.48705 0.798855 7.51812e-21)
(0.0612788 -0.00354528 3.03247e-20)
(-1.63872 -0.593115 0)
(-0.592899 -0.465015 -6.00989e-21)
(-1.04121 -0.040294 -9.16929e-21)
(-0.724804 0.539478 -5.81073e-21)
(-1.13332 0.679287 0)
(0.0364542 0.0136682 -8.37008e-21)
(-1.3318 -0.555114 0)
(-0.285588 0.181103 1.16894e-20)
(-0.317439 0.210126 -1.19458e-20)
(-0.593474 -0.338353 0)
(-0.734413 0.103379 1.08591e-20)
(-0.630392 -0.377666 -1.92205e-20)
(-0.780855 0.0963969 -8.67168e-21)
(-0.67712 0.178567 1.20005e-20)
(-0.625956 -0.279294 1.20685e-20)
(-0.157335 0.0723284 0)
(-0.403831 0.245443 1.03927e-20)
(-0.337261 0.206034 0)
(-0.483064 -0.292134 -1.0733e-20)
(-0.706486 0.0221405 9.7244e-21)
(-0.509177 -0.29039 1.08164e-20)
(-0.688719 0.0550067 6.45e-23)
(-0.993154 0.386931 7.39019e-22)
(-0.89937 -0.404498 -6.63949e-21)
(-0.0518631 0.026246 -1.34144e-20)
(-0.923827 0.325723 -2.01971e-20)
(-0.901776 -0.421616 1.74306e-22)
(-0.0634017 0.0440599 0)
(0.0534727 -0.0301733 0)
(-1.34818 -0.787879 0)
(-1.59218 0.569521 8.62742e-22)
(-0.725164 0.42426 -5.65065e-21)
(-0.851857 -0.14956 0)
(-0.275089 -0.204157 5.87023e-21)
(-1.60174 0.650921 -9.78043e-21)
(-1.5241 -0.765101 3.79367e-21)
(0.078 -0.00752365 -9.06459e-21)
(-1.30898 0.51268 0)
(-1.36684 0.538842 8.73909e-21)
(-1.28305 -0.610273 -2.74681e-21)
(-1.33558 -0.637903 8.23465e-21)
(0.0371391 0.0179243 -1.30697e-20)
(0.0468563 0.0152515 -1.20459e-20)
(-0.696055 0.38887 0)
(-0.810315 -0.159328 0)
(-0.24404 -0.179109 2.80334e-21)
(-1.03353 0.634137 6.39183e-21)
(-1.15363 -0.27209 0)
(-0.191783 -0.177942 7.06278e-21)
(-1.19516 0.482273 -4.82225e-21)
(-1.18298 -0.544487 0)
(0.021894 0.0127725 0)
(-0.398564 0.139333 1.19706e-20)
(-0.501487 -0.0562011 -5.91932e-21)
(-0.270793 -0.0944386 6.07381e-21)
(-1.38188 0.498598 0)
(-1.31884 -0.681266 0)
(0.0244757 0.0333607 -1.93155e-20)
(-0.510562 0.248764 0)
(-0.26417 -0.143888 3.28361e-21)
(-0.632439 -0.0944048 0)
(-1.15971 0.382365 -1.12227e-20)
(-1.09506 -0.580252 -1.19515e-20)
(-0.0416723 0.0656718 -1.66123e-21)
(-1.02476 0.60296 6.49282e-21)
(-1.13069 -0.291126 0)
(-0.15454 -0.155058 1.45574e-20)
(-0.426498 0.174996 -1.18662e-20)
(-0.403405 0.176517 -5.25171e-21)
(-0.544002 -0.069374 5.82366e-21)
(-0.26992 -0.115478 -1.20305e-20)
(-0.560837 -0.0441895 0)
(-0.309622 -0.147738 -2.14133e-20)
(-0.365787 0.195646 -5.2417e-21)
(-0.41308 -0.225801 1.39895e-20)
(-0.334047 0.190297 3.369e-21)
(-0.622574 0.0121704 -1.3221e-20)
(-0.489501 -0.271466 -6.79044e-21)
(-0.660767 0.0493219 3.10788e-22)
(-0.826896 0.452182 6.16882e-21)
(-0.892908 0.471114 0)
(-0.91227 -0.232539 1.15758e-20)
(-0.958119 -0.274726 -9.04539e-21)
(-0.167397 -0.138895 -1.30588e-20)
(-0.120354 -0.109497 2.17099e-20)
(0.0208349 -0.0395789 0)
(-1.52627 -0.516866 -3.6047e-21)
(-1.40403 0.76794 -8.14967e-21)
(-0.384685 0.313442 7.66073e-21)
(-1.11483 0.153413 1.04262e-20)
(-0.932137 -0.656566 -2.01566e-20)
(0.0389764 -0.027543 -1.02889e-20)
(0.0535905 -0.0217723 8.20773e-21)
(-1.55811 -0.551903 3.12138e-21)
(-1.54016 -0.574174 5.51362e-21)
(-1.4373 0.775392 2.0485e-20)
(-1.44946 0.749548 -1.05914e-20)
(-0.550577 0.407112 1.07817e-20)
(-0.665528 -0.478696 -9.62826e-21)
(-0.953274 0.0303615 2.51806e-21)
(-0.375963 0.0791889 2.03596e-20)
(-0.278492 -0.0394433 0)
(-0.423179 -0.0491076 -2.02884e-20)
(-1.40711 0.533038 -4.06474e-21)
(-1.355 -0.676812 -9.30545e-21)
(0.0423576 0.0217389 0)
(-0.619158 0.343584 0)
(-0.286764 -0.20037 -2.67079e-21)
(-0.754625 -0.113417 -1.01251e-20)
(-1.06731 0.617671 0)
(-1.16822 -0.318646 0)
(-0.124704 -0.134385 -1.35426e-20)
(-1.33664 0.766655 -9.25083e-21)
(-1.32978 0.737523 0)
(-1.47016 -0.459442 2.12625e-21)
(-0.0248069 -0.0696873 -1.27032e-20)
(-1.44377 -0.469867 -5.79069e-21)
(-0.00920487 -0.0610972 1.72058e-20)
(-1.30148 0.557111 8.98195e-21)
(-1.3051 -0.570371 8.8844e-21)
(0.0471332 -0.00224338 7.10868e-21)
(-1.23682 0.699086 7.30717e-22)
(-1.4063 -0.587261 0)