/*--------------------------------*- C++ -*----------------------------------*\
  =========                 |
  \\      /  F ield         | OpenFOAM: The Open Source CFD Toolbox
   \\    /   O peration     | Website:  https://openfoam.org
    \\  /    A nd           | Version:  6
     \\/     M anipulation  |
\*---------------------------------------------------------------------------*/
FoamFile
{
    version     2.0;
    format      ascii;
    class       surfaceScalarField;
    location    "0";
    object      Phi_rec;
}
// * * * * * * * * * * * * * * * * * * * * * * * * * * * * * * * * * * * * * //

dimensions      [0 3 -1 0 0 0 0];

internalField   nonuniform List<scalar> 
17780
(
0.00133861
0.000983472
0.000951695
0.000598286
0.000611285
0.0003064
0.00044711
0.000169976
0.000355285
0.000102291
0.000300371
6.17723e-05
0.000265272
4.69016e-05
0.00024026
2.27771e-05
0.000222833
1.43039e-05
0.000211538
6.2778e-06
0.000203489
1.6991e-05
0.000196396
1.60931e-05
0.00019235
1.41569e-05
0.000191664
1.37818e-05
0.000189921
2.68084e-06
0.000187119
-3.10723e-06
0.000184793
-5.73991e-06
0.000183539
1.19129e-06
0.000183807
7.69044e-06
0.000184963
1.3881e-05
0.000185115
1.00223e-05
0.000184277
1.0841e-05
0.000183949
6.79142e-06
0.000183875
8.18207e-06
0.000184646
9.73688e-06
0.00018404
5.57125e-06
0.000182894
-1.47006e-06
0.000184045
3.74929e-07
0.000183664
-9.01826e-06
0.000183681
-4.32902e-06
0.000184647
-2.82239e-06
0.000183924
-9.52761e-06
0.000183711
-1.18262e-05
0.000182988
-1.09977e-05
0.000182227
-6.53909e-06
0.000182762
-3.46696e-06
0.000183735
-4.51321e-07
0.000184903
-4.03973e-06
0.000186185
-3.98897e-06
0.000187358
-2.05179e-06
0.000187182
-3.91087e-06
0.000187368
-8.39087e-06
0.000189288
-5.49398e-06
0.000193032
-7.11173e-06
0.000198052
-1.16581e-05
0.000204635
-2.12995e-05
0.000220196
-2.7113e-05
0.000257048
-3.58275e-05
0.000346731
-9.88087e-05
-0.000304766
0.000586564
0.00225632
0.00132493
0.00189238
0.00110108
0.00146188
0.00071096
0.00117299
0.00044751
0.000979436
0.000289542
0.000849974
0.000190005
0.000759863
0.000133508
0.000695228
8.1501e-05
0.000652322
5.86747e-05
0.000623363
3.90632e-05
0.000599046
3.76148e-05
0.000578198
2.83861e-05
0.000564493
2.42168e-05
0.000557978
2.58035e-05
0.000553782
9.6691e-06
0.000550273
1.58395e-06
0.000546837
-1.75105e-06
0.000543876
1.2808e-06
0.000542157
1.17816e-05
0.000542154
1.61942e-05
0.000542156
1.80117e-05
0.000540037
1.14186e-05
0.000539523
1.01445e-05
0.000540446
1.34603e-05
0.000540108
1.51547e-05
0.000537493
3.21175e-06
0.000536358
-8.98022e-07
0.000538202
-4.74977e-06
0.000539035
-1.68714e-05
0.000539791
-6.71643e-06
0.000538955
-9.11826e-06
0.000538153
-1.19981e-05
0.00053977
-1.43161e-05
0.000538853
-1.44434e-05
0.000537856
-7.01996e-06
0.00053858
-1.00763e-06
0.000540272
-3.98519e-07
0.000544457
8.37032e-07
0.00054792
-6.09201e-06
0.000549847
-1.93742e-06
0.000551288
-8.08585e-06
0.000555026
-1.67954e-05
0.000560517
-1.85807e-05
0.000568775
-2.36369e-05
0.000584448
-2.97969e-05
0.000610613
-4.66105e-05
0.000653148
-6.85439e-05
0.000725763
-0.000119279
0.000862667
-0.000233951
-0.000506942
0.00104927
0.00254795
0.00120626
0.00236018
0.00133378
0.00201808
0.00103637
0.00172248
0.000729461
0.00149527
0.000512308
0.00132811
0.000357975
0.00120273
0.000246645
0.00111219
0.000175227
0.00105084
0.000129963
0.00100847
9.53937e-05
0.000971404
6.94972e-05
0.000939434
4.4723e-05
0.000919368
4.1108e-05
0.000907244
3.66739e-05
0.000898274
1.83216e-05
0.00089232
9.42668e-06
0.000889245
7.64584e-06
0.000886925
4.29757e-06
0.000883732
1.36906e-05
0.000881678
1.11732e-05
0.00087987
1.86364e-05
0.000877921
6.30592e-06
0.000879065
1.09018e-05
0.00087763
1.23735e-05
0.000874327
1.23094e-05
0.000873447
1.69957e-06
0.000871567
-4.76054e-06
0.000873019
-7.67219e-06
0.000876518
-1.7871e-05
0.000876705
-1.0423e-05
0.000874651
-9.17431e-06
0.000873474
-9.93472e-06
0.000876899
-8.15259e-06
0.000878771
-1.16712e-05
0.000876939
-7.7993e-06
0.000877038
2.76946e-06
0.000879884
4.05083e-07
0.000885102
3.33009e-06
0.000890175
-6.47007e-06
0.000892328
-5.90877e-06
0.000895715
-1.49221e-05
0.000904601
-2.20069e-05
0.000915831
-3.26508e-05
0.000931236
-4.13468e-05
0.000955146
-5.65727e-05
0.000993502
-8.43173e-05
0.00105378
-0.000127738
0.00114411
-0.000221409
0.00127935
-0.000369592
-0.000667419
0.00141789
0.00263518
0.00103154
0.0025833
0.00140377
0.00235933
0.00125235
0.00211725
0.000968838
0.00190068
0.000721883
0.00172571
0.000528567
0.00159114
0.000385711
0.00148969
0.000286275
0.00141482
0.000216557
0.00135882
0.00016096
0.00131437
0.000114843
0.00128081
7.76997e-05
0.00125461
6.64491e-05
0.00123438
4.73397e-05
0.00122415
2.91803e-05
0.00121846
1.89397e-05
0.00121314
1.14433e-05
0.00120983
6.13947e-06
0.00120628
1.4615e-05
0.0012024
1.15821e-05
0.00119866
1.38743e-05
0.00119735
2.05797e-06
0.00119898
7.49876e-06
0.00119625
5.5093e-06
0.00119109
5.91044e-06
0.00118811
1.16704e-06
0.00118626
-7.25875e-06
0.00118997
-1.56992e-06
0.00119539
-1.06936e-05
0.00119626
-1.07036e-05
0.00119461
-1.66995e-06
0.00119334
-3.24191e-06
0.00119625
-9.27791e-07
0.00119921
-5.96234e-06
0.00119883
-5.14206e-06
0.00119863
1.68008e-06
0.00120024
-4.60535e-06
0.00120588
-2.5624e-06
0.00121386
-1.31766e-05
0.00121819
-1.64328e-05
0.00122256
-2.88485e-05
0.00123437
-3.31579e-05
0.00125033
-4.89542e-05
0.00127112
-6.66907e-05
0.00130341
-9.50074e-05
0.00134941
-0.000134885
0.00141625
-0.000198042
0.00151082
-0.00031356
0.00163057
-0.000488015
-0.000779605
0.00173194
0.00264736
0.000872339
0.00268162
0.0013847
0.00256274
0.00136129
0.00238876
0.00113844
0.00220821
0.000890841
0.00205035
0.000686801
0.00192351
0.000529037
0.00182001
0.000395259
0.00173936
0.000304196
0.00167902
0.000229328
0.00163122
0.000166058
0.00159478
0.000121092
0.00156494
9.28366e-05
0.00154211
6.13959e-05
0.00152982
4.46376e-05
0.00152204
3.09493e-05
0.00151702
1.70494e-05
0.00151322
1.31323e-05
0.00150795
1.8307e-05
0.00150381
1.70039e-05
0.00150025
1.19997e-05
0.00149939
3.00673e-06
0.00150041
4.01956e-06
0.00149604
-7.92276e-07
0.00148893
-8.19993e-09
0.0014874
4.94431e-06
0.00148751
-3.66642e-06
0.00148881
1.65875e-06
0.00149513
-6.16004e-07
0.001498
-6.98539e-06
0.00149513
2.65811e-06
0.00149263
1.59742e-06
0.00149485
8.3445e-06
0.00150064
6.5306e-06
0.00150232
4.43581e-06
0.00150018
-2.03565e-06
0.00150239
-7.76198e-06
0.00150971
-8.97389e-06
0.0015178
-2.2672e-05
0.00152414
-2.92764e-05
0.00153204
-4.06101e-05
0.00154625
-5.15127e-05
0.00156556
-7.06108e-05
0.00159049
-0.000101
0.00162561
-0.000141024
0.00167486
-0.000191553
0.00174423
-0.000264359
0.00183334
-0.000389011
0.00193139
-0.000580484
-0.000854305
0.00200408
0.0026379
0.000737077
0.00271521
0.00131243
0.0026732
0.00139007
0.00256747
0.00123966
0.0024401
0.00102474
0.00231377
0.000826399
0.00219949
0.000648093
0.00210483
0.000495727
0.00202774
0.00038379
0.00196505
0.000290675
0.0019181
0.000215183
0.00188288
0.00016192
0.00185076
0.000117387
0.00182654
8.09764e-05
0.00181425
6.21804e-05
0.0018056
4.38681e-05
0.00180165
2.73618e-05
0.00180097
2.71384e-05
0.00179401
2.38802e-05
0.001784
1.52334e-05
0.0017789
1.21379e-05
0.00177958
5.66537e-06
0.00178153
4.8733e-07
0.00177866
-1.8667e-06
0.00177154
-4.77799e-06
0.00176847
7.26903e-06
0.00176869
3.6782e-07
0.00176956
-2.29413e-07
0.00177622
5.18599e-06
0.00178234
1.36444e-06
0.00177974
4.31637e-06
0.0017753
3.19771e-06
0.0017776
1.44402e-05
0.00178202
1.48913e-05
0.00178142
6.88822e-06
0.00178146
-4.86493e-06
0.00178559
-6.84921e-06
0.00179311
-1.45003e-05
0.0018037
-2.41754e-05
0.00181187
-3.87049e-05
0.00182123
-4.78399e-05
0.00183654
-6.7771e-05
0.00185608
-9.12518e-05
0.0018846
-0.000129287
0.00192621
-0.000177155
0.00197664
-0.000242341
0.00203974
-0.000328237
0.00211858
-0.000456852
0.00219693
-0.00065218
-0.000910401
0.00224549
0.00261925
0.000625304
0.00271722
0.00121015
0.00273097
0.00136321
0.00268737
0.00128605
0.00261098
0.00111779
0.00251689
0.000922594
0.0024252
0.000736952
0.00234665
0.000578046
0.00227827
0.000445183
0.00222158
0.000338308
0.00217787
0.000255002
0.00214231
0.000192275
0.00211237
0.000139634
0.00209174
0.000104014
0.0020785
7.5691e-05
0.0020695
5.29193e-05
0.00206683
3.44078e-05
0.00206325
3.15041e-05
0.00205438
2.2557e-05
0.00204692
1.73868e-05
0.00204292
1.06263e-05
0.00204212
6.12617e-06
0.00204287
-1.31811e-06
0.00204251
-1.97558e-06
0.00203665
-6.98643e-06
0.00203093
-4.67855e-07
0.00203231
5.52948e-06
0.00203429
-1.0236e-07
0.00203907
1.44617e-06
0.00204469
5.34312e-06
0.0020446
1.88042e-06
0.00204302
6.75891e-06
0.00204194
8.67423e-06
0.00204246
9.04771e-06
0.00204348
-9.22731e-07
0.0020454
-8.03065e-06
0.00204978
-1.13586e-05
0.00205713
-2.20072e-05
0.00206906
-2.49415e-05
0.00207966
-4.14973e-05
0.0020897
-6.06577e-05
0.0021059
-8.22774e-05
0.00212727
-0.000113106
0.00215673
-0.00015457
0.0021991
-0.000205909
0.00225014
-0.000285697
0.00230683
-0.000386211
0.00236919
-0.000523019
0.00242724
-0.000712411
-0.00094877
0.00245934
0.00260331
0.000535735
0.00270852
0.00109893
0.00276043
0.00129889
0.00276423
0.00127932
0.00273122
0.00115324
0.00267264
0.00096812
0.00260789
0.000793926
0.00254837
0.000637062
0.00249269
0.000490417
0.00244558
0.000376241
0.00240919
0.000285509
0.00237885
0.000217954
0.00235174
0.000160906
0.00233207
0.000122125
0.00232009
9.0012e-05
0.0023132
6.21564e-05
0.00231253
4.02233e-05
0.00230851
2.98412e-05
0.00229812
1.43571e-05
0.00229013
2.09456e-05
0.00228431
9.16675e-06
0.00228381
1.02956e-05
0.00228747
5.05484e-06
0.00228755
-6.50519e-06
0.00228264
-8.72278e-06
0.00227699
-1.17791e-05
0.00227678
2.64203e-06
0.00228047
-1.1747e-06
0.00228602
-4.32658e-06
0.00229034
-3.24258e-06
0.00228967
-6.95515e-06
0.00228749
1.26755e-06
0.00228656
-1.80055e-06
0.00228616
-9.23865e-08
0.00228685
-5.24398e-06
0.00229057
-1.08738e-05
0.00229619
-1.82566e-05
0.00230415
-2.83401e-05
0.00231571
-3.21287e-05
0.00232699
-4.66798e-05
0.00233902
-7.67354e-05
0.00235569
-9.83816e-05
0.00237621
-0.000136977
0.00240476
-0.000182789
0.00244486
-0.000236808
0.00249198
-0.000323951
0.00254329
-0.000429983
0.00259445
-0.000575596
0.0026345
-0.000759554
-0.000974828
0.00265103
0.00258586
0.000458593
0.00269366
0.000984994
0.00277394
0.00121202
0.00281373
0.00123301
0.00281452
0.00114197
0.00278989
0.000981737
0.00275373
0.000823748
0.0027145
0.000673922
0.00267688
0.000531006
0.00264365
0.000410709
0.00261559
0.000310596
0.00259123
0.000242208
0.00256886
0.00018011
0.00255107
0.000133678
0.00254038
0.000105552
0.00253532
7.4981e-05
0.00253518
5.17777e-05
0.00253366
3.23042e-05
0.00252506
1.30818e-05
0.00251485
1.49133e-05
0.00251035
1.43324e-05
0.00251021
1.78365e-05
0.00251086
9.46743e-06
0.00251182
-1.03927e-05
0.00251021
-1.17645e-05
0.0025062
-1.8402e-05
0.00250242
-7.69647e-06
0.00250337
-7.94931e-06
0.00251035
-4.09266e-06
0.00251689
-1.13922e-05
0.00251803
-1.35293e-05
0.00251461
-1.33111e-05
0.00251179
-1.05634e-05
0.00251229
-6.82239e-06
0.00251444
-5.22347e-06
0.00251686
-1.28159e-05
0.00252283
-1.95339e-05
0.0025335
-3.09739e-05
0.00254332
-4.32772e-05
0.00255232
-5.89908e-05
0.00256562
-8.84988e-05
0.00258297
-0.000114268
0.00260479
-0.000158406
0.00263214
-0.000207581
0.0026675
-0.000272521
0.00271008
-0.000357015
0.00275194
-0.000472755
0.00279141
-0.000612672
0.0028203
-0.000790181
-0.000989634
0.00282515
0.00257209
0.000388537
0.00267677
0.00087277
0.0027732
0.00111239
0.00284041
0.00116788
0.00287361
0.00110454
0.00288279
0.000975282
0.00287356
0.000829631
0.00285264
0.000686532
0.00283103
0.000554896
0.00281308
0.000436789
0.00279736
0.000332018
0.00277992
0.000258967
0.00276289
0.000193845
0.00275056
0.000142716
0.00274056
0.000110218
0.00273607
8.45246e-05
0.00273783
6.41548e-05
0.0027378
3.77635e-05
0.00273265
2.01719e-05
0.00272496
1.20437e-05
0.00271893
1.99899e-05
0.00271376
1.97181e-05
0.00271292
7.37335e-06
0.0027166
-4.79465e-06
0.00271593
-1.29043e-05
0.0027137
-1.75622e-05
0.00271235
-9.49572e-06
0.00271198
-6.43211e-06
0.00271666
-6.16691e-06
0.00272358
-1.0131e-05
0.00272577
-1.59688e-05
0.00272424
-2.12335e-05
0.00272403
-1.56701e-05
0.00272236
-1.37112e-05
0.00271989
-1.06738e-05
0.00272301
-1.37944e-05
0.0027311
-1.79844e-05
0.00274154
-3.16355e-05
0.00275087
-5.10319e-05
0.00276058
-7.06583e-05
0.00277469
-9.55878e-05
0.00279022
-0.000132254
0.00280967
-0.000180405
0.00283573
-0.000233497
0.00286739
-0.000306666
0.0029028
-0.000391722
0.00293605
-0.000511291
0.00296432
-0.000646329
0.00298306
-0.000810444
-0.000991334
0.00298144
0.0025618
0.0003328
0.00266463
0.000772555
0.00277194
0.00100818
0.00285808
0.00108491
0.00291482
0.00104405
0.00295013
0.000944044
0.00296678
0.000809954
0.00296806
0.000676038
0.00296202
0.000552702
0.00295767
0.000440226
0.00295496
0.00034187
0.00294551
0.000266217
0.00293588
0.00020155
0.00292935
0.000144212
0.00292237
0.000103684
0.00291806
8.35324e-05
0.00291844
6.4262e-05
0.00292115
4.44778e-05
0.00292065
2.63769e-05
0.00291604
1.45236e-05
0.00290814
1.73949e-05
0.00289873
1.52367e-05
0.00289718
5.80897e-06
0.00290258
2.69233e-06
0.00290465
-1.22542e-05
0.0029034
-1.39621e-05
0.00290117
-7.26203e-06
0.00290095
-1.86161e-06
0.00290446
-1.00476e-05
0.00290999
-6.0691e-06
0.00291434
-1.49695e-05
0.00291554
-1.75873e-05
0.0029149
-1.59041e-05
0.00291321
-1.96547e-05
0.00291206
-1.83282e-05
0.00291327
-1.94877e-05
0.00291794
-2.63303e-05
0.00292856
-3.57429e-05
0.00293956
-5.3694e-05
0.00294866
-8.04421e-05
0.00296033
-0.000105175
0.0029744
-0.000150781
0.00299289
-0.000199302
0.00301571
-0.000258001
0.00304274
-0.000329055
0.00307272
-0.000419907
0.00309973
-0.000531819
0.00311848
-0.000672625
0.00312684
-0.000821455
-0.000985705
0.00311843
0.00255504
0.000285177
0.00265391
0.000676734
0.00276651
0.000901046
0.00286578
0.000977549
0.00294281
0.000961568
0.00300123
0.000886312
0.00304
0.000765135
0.0030616
0.000644057
0.00307294
0.000527553
0.00308173
0.00042134
0.00308936
0.000332301
0.003089
0.000259897
0.00308527
0.000198968
0.0030855
0.000140745
0.00308535
9.91272e-05
0.00308275
7.87132e-05
0.00308305
5.88073e-05
0.00308606
4.568e-05
0.00308767
2.77322e-05
0.0030855
1.46068e-05
0.00307665
1.03538e-05
0.00306644
8.66477e-06
0.0030645
5.31849e-06
0.00306826
4.53618e-06
0.00307222
-6.34596e-06
0.0030763
-5.27981e-06
0.00307389
-8.14315e-06
0.00306963
-4.81169e-06
0.00307351
-5.48404e-06
0.00307962
-5.01587e-06
0.00308415
-8.99584e-06
0.00308683
-1.1374e-05
0.00308683
-1.5039e-05
0.00308552
-2.42812e-05
0.00308373
-2.65871e-05
0.00308474
-3.16419e-05
0.00308932
-3.99739e-05
0.00309738
-4.25799e-05
0.00310753
-5.99065e-05
0.00311578
-9.02671e-05
0.00312417
-0.000118766
0.00313694
-0.000162086
0.00315466
-0.000210446
0.00317533
-0.000270528
0.0031984
-0.000344917
0.0032208
-0.000436192
0.0032387
-0.000542756
0.00325093
-0.000681799
0.0032524
-0.000817067
-0.000971423
0.00323694
0.00254903
0.000239189
0.00264378
0.000581589
0.00275947
0.000789067
0.00287037
0.00086424
0.00296258
0.000862476
0.00303725
0.000804322
0.00309591
0.000696178
0.00313653
0.000590029
0.00316302
0.000483234
0.00318672
0.000391101
0.00320694
0.000310951
0.00321208
0.000240891
0.00321237
0.000188533
0.00321989
0.000139967
0.00322676
0.000100197
0.00322848
7.99728e-05
0.00323
5.5441e-05
0.00323217
4.30415e-05
0.00323391
2.49536e-05
0.00323419
1.20871e-05
0.00322729
8.49012e-07
0.00321661
-7.72124e-07
0.00321282
2.33171e-06
0.00321661
8.05435e-06
0.00322327
7.65864e-06
0.00322691
5.06994e-06
0.00322351
-6.65375e-06
0.00322231
-3.92755e-06
0.00322611
2.25004e-06
0.00323019
-1.76028e-06
0.00323512
-2.1292e-06
0.00323695
-7.14312e-06
0.00323629
-1.48768e-05
0.00323655
-2.37628e-05
0.00323548
-3.23713e-05
0.00323668
-3.77168e-05
0.00324256
-4.39591e-05
0.00324939
-4.77982e-05
0.00325551
-7.01131e-05
0.00326175
-9.70782e-05
0.00326959
-0.000128278
0.00328132
-0.000167914
0.00329718
-0.000216906
0.00331427
-0.000277445
0.00333214
-0.000355612
0.00334724
-0.000445948
0.0033576
-0.00055039
0.00336396
-0.000674508
0.00335926
-0.000802379
-0.000946664
0.00333782
0.00254668
0.000196272
0.00263694
0.000491063
0.00275138
0.000670757
0.00287177
0.000755118
0.00297616
0.000753168
0.00306311
0.000700384
0.00313832
0.000617121
0.0031957
0.000522159
0.00323831
0.000430854
0.00327451
0.000352098
0.00330379
0.000284298
0.00331855
0.000219396
0.00332578
0.000173425
0.00333841
0.000135005
0.00334977
0.00010183
0.00335319
7.73377e-05
0.00335508
4.89329e-05
0.00335839
3.9635e-05
0.00336183
2.2761e-05
0.0033636
6.84662e-06
0.00335848
-4.99192e-06
0.00334935
-1.15188e-05
0.00334621
-5.42796e-07
0.00334927
1.1883e-05
0.00335311
1.46688e-05
0.00335634
7.30434e-06
0.0033571
-2.53243e-06
0.00335541
-4.37567e-06
0.00335757
4.27396e-06
0.00336265
8.03424e-06
0.00336614
3.05697e-06
0.00336744
-2.03894e-06
0.00336779
-1.36558e-05
0.00336863
-2.08009e-05
0.00336853
-3.05369e-05
0.00337234
-3.28665e-05
0.0033777
-4.20163e-05
0.00337948
-5.43863e-05
0.00338364
-7.86435e-05
0.00339037
-0.000104286
0.0033966
-0.00013748
0.00340548
-0.000173705
0.00341767
-0.000222123
0.0034305
-0.000284001
0.00344496
-0.000357511
0.00345515
-0.000447212
0.0034592
-0.000553775
0.00345934
-0.000660176
0.00344799
-0.000785623
-0.000918173
0.00342234
0.00254491
0.000154421
0.00263269
0.000400697
0.00274675
0.000550502
0.00286894
0.000631735
0.00298076
0.000632278
0.0030792
0.000586489
0.0031698
0.000534252
0.00324453
0.00045093
0.00330072
0.000372349
0.00334713
0.000303935
0.00338611
0.000248338
0.00340968
0.000192752
0.00342102
0.000148691
0.00343706
0.000119661
0.00345216
0.000100361
0.00345797
6.5589e-05
0.00346327
4.52147e-05
0.00346694
3.1498e-05
0.00346901
1.80508e-05
0.00347197
1.66581e-06
0.00347112
-2.97887e-06
0.00346705
-1.33053e-05
0.0034651
-7.42597e-07
0.00346454
9.48727e-06
0.0034642
3.47778e-06
0.00346648
2.00954e-06
0.00346905
-5.46034e-06
0.0034708
-5.74626e-06
0.00347244
3.82384e-06
0.00347511
1.23786e-05
0.00347844
6.91051e-06
0.00347943
-1.57424e-06
0.00347957
-1.31689e-05
0.00348098
-2.44649e-05
0.00348279
-2.7352e-05
0.00348622
-3.41524e-05
0.0034895
-4.26133e-05
0.00349073
-6.45193e-05
0.00349404
-8.59255e-05
0.00349839
-0.00011349
0.00350303
-0.000148459
0.00351068
-0.000181251
0.00351947
-0.000228076
0.00352807
-0.000287359
0.00353739
-0.000356192
0.00354335
-0.000444281
0.00354333
-0.000550236
0.0035368
-0.000648276
0.00352053
-0.000766391
-0.000890622
0.00349093
0.00254472
0.000119541
0.00262995
0.000310204
0.00274358
0.000435073
0.00286574
0.000498536
0.00298383
0.000505175
0.00309533
0.000478413
0.00319466
0.00043766
0.00327885
0.000373292
0.00334909
0.000305962
0.00340706
0.000247946
0.003452
0.000201922
0.00348127
0.00015437
0.0035013
0.000117331
0.00352117
9.49424e-05
0.00353497
8.48101e-05
0.00354326
5.46779e-05
0.00355296
4.43794e-05
0.00355659
2.36936e-05
0.00355887
1.26759e-05
0.00356313
3.39521e-06
0.00356407
1.93966e-06
0.00356483
-6.20341e-06
0.00356346
-2.37945e-06
0.00355941
4.83529e-06
0.00355742
-7.48833e-06
0.00355923
-4.91931e-06
0.0035633
-7.70538e-06
0.00356825
-6.33687e-07
0.00357065
6.01766e-06
0.00356937
7.49364e-06
0.00356976
6.23949e-06
0.00357124
-5.37697e-07
0.00357341
-1.22888e-05
0.00357769
-2.77261e-05
0.00357935
-2.77854e-05
0.00357999
-4.25085e-05
0.00358149
-5.00599e-05
0.00358086
-7.68069e-05
0.00358237
-9.57273e-05
0.00358831
-0.000116912
0.00359412
-0.00015459
0.00359772
-0.000191675
0.00360211
-0.000235672
0.0036071
-0.000290897
0.00361019
-0.000356362
0.00361088
-0.00044166
0.00360822
-0.000537892
0.00359619
-0.000636387
0.00357258
-0.000748431
-0.000859292
0.00354047
0.00254556
9.53049e-05
0.00262701
0.000224814
0.00273793
0.000320798
0.00286206
0.000367351
0.00298755
0.000381735
0.00310725
0.000369527
0.00321283
0.000332324
0.00330559
0.000284853
0.00338581
0.000235831
0.00345192
0.000187634
0.00350367
0.00015157
0.00353969
0.000112618
0.00356649
8.50944e-05
0.00358821
6.75104e-05
0.00360148
5.14341e-05
0.003612
3.88897e-05
0.00362176
3.07438e-05
0.00362646
1.71123e-05
0.0036322
1.3405e-05
0.00363797
9.64569e-06
0.00363979
8.61879e-06
0.00364106
-2.07095e-06
0.00363759
-4.81353e-06
0.0036322
1.90543e-06
0.0036328
-4.58629e-06
0.00363604
-5.65643e-06
0.00364097
-1.2297e-06
0.00364606
6.24565e-06
0.00364697
6.79703e-06
0.00364492
4.64433e-06
0.00364398
1.28048e-06
0.00364434
6.85201e-07
0.00364784
-1.12527e-05
0.00365291
-2.43001e-05
0.00365469
-3.49811e-05
0.00365541
-4.53156e-05
0.00365445
-6.00034e-05
0.00365406
-8.75676e-05
0.00365567
-0.000106402
0.00365828
-0.000121306
0.00366239
-0.000160242
0.00366556
-0.000199566
0.0036675
-0.000243631
0.00366711
-0.000296677
0.00366399
-0.000358673
0.00366108
-0.000435267
0.00365536
-0.000520443
0.0036384
-0.000617915
0.00361062
-0.000722712
-0.00082211
0.00357404
0.00254093
6.79398e-05
0.0026244
0.000150136
0.00273697
0.000208698
0.00286305
0.000239728
0.00299121
0.000250645
0.00311348
0.000242789
0.00322494
0.000219153
0.00332387
0.000186024
0.00341128
0.000160525
0.00348483
0.000126702
0.00354044
0.000102025
0.00358074
7.41296e-05
0.00361332
5.40953e-05
0.00363991
4.62251e-05
0.00365541
2.15927e-05
0.00366462
1.6451e-05
0.00367353
1.17084e-05
0.00368011
1.00439e-05
0.00368756
1.1816e-05
0.00369287
1.07169e-05
0.00369321
1.19549e-05
0.00369638
-1.14703e-06
0.00369582
-2.11468e-06
0.00368852
-5.2669e-08
0.00368808
-7.44016e-10
0.00369432
-3.31828e-08
0.00370056
4.10944e-06
0.00370416
1.04519e-05
0.00370387
8.00704e-06
0.00370275
6.74809e-06
0.00370187
1.2741e-06
0.00369892
-5.51761e-06
0.0037011
-1.25215e-05
0.00370846
-1.99928e-05
0.00370949
-4.3185e-05
0.00370798
-4.84261e-05
0.0037074
-6.05936e-05
0.00370887
-8.91504e-05
0.00371036
-0.000109383
0.00370921
-0.00013247
0.00371136
-0.000164284
0.00371348
-0.000197461
0.00371259
-0.000244727
0.00370904
-0.000293396
0.00370152
-0.000356061
0.00369353
-0.000425762
0.0036825
-0.000500576
0.00366232
-0.000590516
0.00363384
-0.000682655
-0.000780337
0.00359502
0.00253521
3.45442e-05
0.00261799
7.468e-05
0.00273418
9.76869e-05
0.00286441
0.000115741
0.00299423
0.000112634
0.00311774
0.00010843
0.00323264
9.76907e-05
0.00333723
8.82729e-05
0.00342834
8.09358e-05
0.0035046
6.30649e-05
0.00356505
4.72245e-05
0.0036102
3.03209e-05
0.00364323
1.61899e-05
0.00366836
1.84942e-05
0.00368742
4.68468e-06
0.00370124
2.5325e-06
0.00371267
1.89842e-06
0.00372028
3.63784e-06
0.00372647
2.00269e-06
0.00372902
4.79047e-06
0.00372777
6.78039e-06
0.00373324
2.77189e-06
0.00373411
2.35304e-06
0.00372655
-4.7044e-06
0.00372693
1.68927e-06
0.003734
4.58053e-06
0.00373979
7.99311e-06
0.00374206
1.08652e-05
0.00374125
1.3827e-05
0.00373934
8.94073e-06
0.00373841
4.29786e-06
0.0037366
-7.50886e-06
0.00373679
-1.31548e-05
0.00374222
-1.86538e-05
0.00374657
-4.25201e-05
0.00374446
-4.95161e-05
0.00374037
-5.72871e-05
0.00374387
-7.80583e-05
0.00374594
-0.000100654
0.00374225
-0.000135424
0.00374233
-0.000161099
0.00374215
-0.000188994
0.00373923
-0.000233066
0.00373347
-0.000281566
0.00372358
-0.0003425
0.00371137
-0.000411734
0.00369603
-0.000480798
0.00367224
-0.000562349
0.00363824
-0.000648455
-0.000741917
0.0035966
0.00253486
5.50946e-06
0.00261668
-5.48111e-06
0.00273169
-1.05051e-05
0.00286088
-1.21318e-05
0.00299344
-2.32235e-05
0.00312093
-2.33525e-05
0.00323943
-2.62487e-05
0.00334643
-1.05772e-05
0.00343853
-3.18254e-06
0.00351587
-7.06926e-06
0.00357601
-1.52756e-05
0.0036232
-1.54721e-05
0.00365958
-2.2727e-05
0.00368446
-1.73004e-05
0.00370387
-1.41149e-05
0.00371968
-1.0757e-05
0.00373099
-4.16063e-06
0.00373781
-5.86115e-06
0.00374509
-7.00878e-06
0.00374802
-8.02253e-07
0.00374611
-3.78794e-06
0.00375154
4.39135e-06
0.00375257
-9.27684e-07
0.00374606
-1.14652e-05
0.00374732
4.76746e-06
0.00375477
9.27897e-06
0.00376108
1.31693e-05
0.00376275
1.16628e-05
0.00376081
1.62139e-05
0.00375753
8.05824e-06
0.00375506
3.38369e-06
0.00375407
-7.64235e-06
0.00375416
-1.52006e-05
0.00375771
-1.73225e-05
0.00376408
-3.41042e-05
0.00376368
-3.98698e-05
0.00375698
-5.61132e-05
0.00375697
-6.67804e-05
0.00375883
-9.10356e-05
0.0037584
-0.000124026
0.00375781
-0.000151719
0.00375378
-0.000182812
0.00374737
-0.000219758
0.00373669
-0.000271542
0.00372459
-0.00032744
0.00371229
-0.000388383
0.00369323
-0.000462891
0.00366491
-0.000537176
0.00362612
-0.000621363
-0.00070466
0.00358134
0.00252937
-2.8224e-05
0.00261316
-8.37925e-05
0.00273207
-0.000114932
0.00286152
-0.000144419
0.00299364
-0.000159686
0.00312302
-0.000158313
0.00324337
-0.000149514
0.00334828
-0.000122155
0.00343618
-9.90245e-05
0.00351129
-8.40778e-05
0.00357277
-7.33139e-05
0.00362244
-5.61615e-05
0.00366171
-5.30094e-05
0.00368818
-4.6682e-05
0.00370629
-3.62905e-05
0.00372061
-2.89224e-05
0.00373084
-1.6139e-05
0.00373812
-1.78581e-05
0.00374662
-1.21373e-05
0.0037502
-6.58025e-06
0.00374785
-1.20348e-05
0.00374942
3.46242e-07
0.00375028
-3.44655e-06
0.00374894
-7.5617e-06
0.0037513
8.41506e-06
0.00375677
1.25172e-05
0.00376257
1.68293e-05
0.00376418
1.09701e-05
0.00375964
5.70412e-06
0.00375544
5.05353e-06
0.00375438
2.37382e-06
0.0037531
-1.24316e-05
0.00375209
-1.60263e-05
0.0037555
-1.55499e-05
0.00376298
-2.33031e-05
0.00376393
-3.09563e-05
0.0037578
-5.25627e-05
0.00375426
-6.62106e-05
0.00375215
-8.97697e-05
0.00375212
-0.000111878
0.00375286
-0.000140031
0.00374635
-0.000182391
0.00373576
-0.000215133
0.00372368
-0.000264806
0.00370903
-0.000317825
0.00369303
-0.000365001
0.00367139
-0.000438602
0.00363978
-0.000507994
0.00359901
-0.000585352
-0.000654898
0.0035537
0.00252917
-6.8294e-05
0.00261382
-0.000162397
0.00272901
-0.000227869
0.00285725
-0.000273581
0.00299085
-0.000291022
0.00312107
-0.000290381
0.00324375
-0.000263836
0.00334668
-0.000229908
0.00342877
-0.000193873
0.00350201
-0.00015816
0.00356237
-0.000126889
0.00360797
-9.98073e-05
0.00364479
-8.30832e-05
0.00367097
-7.1688e-05
0.00369094
-5.29089e-05
0.0037059
-4.12436e-05
0.0037133
-3.53927e-05
0.0037202
-2.85263e-05
0.00372794
-1.4387e-05
0.00373037
-1.50231e-05
0.00372949
-1.18894e-05
0.00373089
-1.09926e-06
0.00373378
1.51677e-06
0.00373601
3.50864e-06
0.00373658
6.88307e-06
0.0037389
7.67131e-06
0.0037442
1.57913e-05
0.0037451
4.77154e-06
0.00374093
-8.32494e-06
0.00373544
-1.11779e-06
0.00373152
-1.61088e-06
0.00373362
-1.20161e-05
0.00373633
-1.26844e-05
0.0037389
-1.85961e-05
0.00374363
-2.31108e-05
0.00374159
-3.51354e-05
0.00373493
-5.38585e-05
0.00373186
-7.09592e-05
0.00373003
-9.16916e-05
0.00372863
-0.000107232
0.00372694
-0.000134859
0.00371968
-0.000178986
0.00370724
-0.000209033
0.00369322
-0.000258243
0.0036765
-0.000306108
0.00365648
-0.000349337
0.00363288
-0.000409368
0.00360025
-0.000475592
0.00355922
-0.000541922
-0.000598617
0.00351354
0.00253203
-0.000103875
0.00261531
-0.000242496
0.00272876
-0.000343552
0.00285611
-0.000395065
0.00298905
-0.000415981
0.00311827
-0.000408033
0.00323645
-0.000369784
0.00333486
-0.000325839
0.0034147
-0.000275672
0.00348368
-0.000224157
0.00353783
-0.000176862
0.00357928
-0.000142381
0.00361469
-0.000108872
0.00364042
-9.12603e-05
0.00365826
-7.04993e-05
0.00367068
-5.17241e-05
0.00367833
-4.41253e-05
0.00368547
-3.19122e-05
0.00369224
-1.37827e-05
0.00369515
-1.80561e-05
0.00369533
-1.16043e-05
0.00369609
-1.54286e-06
0.00369749
3.31417e-06
0.00369872
5.93118e-06
0.0037005
-2.86507e-06
0.00370291
-4.48349e-07
0.00370326
6.76262e-06
0.00370459
8.8395e-07
0.00370543
-7.7174e-06
0.00369901
-6.28335e-06
0.00369407
-7.8342e-06
0.00369707
-6.51614e-06
0.00369925
-1.40175e-05
0.00370094
-2.17717e-05
0.00370442
-3.04462e-05
0.00370194
-4.2462e-05
0.00369492
-5.99314e-05
0.00369214
-7.34589e-05
0.00369041
-9.26634e-05
0.00368444
-0.000108597
0.00367936
-0.00013136
0.0036735
-0.000165932
0.00366049
-0.000196188
0.0036469
-0.000240739
0.00363115
-0.000283572
0.00360621
-0.000333149
0.00357776
-0.000385134
0.00354568
-0.00044163
0.00350548
-0.000497942
-0.000547417
0.00345809
0.00253614
-0.000137314
0.00261943
-0.000323757
0.00273126
-0.000458357
0.00285487
-0.000520171
0.00298439
-0.000536834
0.00311184
-0.000514042
0.00322594
-0.000467319
0.00331819
-0.000412906
0.00339024
-0.000351225
0.00345271
-0.000281902
0.00350248
-0.000220337
0.00353775
-0.000176455
0.0035688
-0.000129692
0.00359341
-0.00010716
0.0036073
-9.19894e-05
0.00361681
-6.31066e-05
0.00362745
-3.99694e-05
0.00363435
-2.85087e-05
0.00363675
-1.94918e-05
0.00364044
-1.50108e-05
0.00364193
-1.50912e-05
0.00364121
-7.10091e-06
0.00364147
-1.08754e-06
0.00364177
-5.09368e-07
0.00364471
-1.2004e-05
0.00364771
-4.86968e-06
0.00364595
-3.01826e-06
0.00364644
1.34898e-06
0.00364918
-1.75448e-06
0.00364426
-6.17613e-06
0.00363863
-1.02955e-05
0.00363986
-5.98013e-06
0.00364053
-2.11313e-05
0.00364253
-2.38387e-05
0.00364633
-3.41425e-05
0.00364294
-4.61895e-05
0.00363587
-6.05648e-05
0.0036337
-7.39267e-05
0.00363222
-9.01737e-05
0.00362552
-0.000111109
0.00361943
-0.000126047
0.00361086
-0.000155224
0.00359489
-0.000185393
0.00358038
-0.000217246
0.00356401
-0.000260265
0.003539
-0.000311425
0.00350996
-0.000359293
0.00347705
-0.000405202
0.00343621
-0.000455315
-0.000504022
0.00338633
0.0025408
-0.000171596
0.00262564
-0.000406373
0.00273615
-0.000576883
0.00285634
-0.000650983
0.00298137
-0.000652632
0.00310077
-0.000622624
0.00320509
-0.000559306
0.0032905
-0.000489041
0.00335805
-0.000416382
0.00341227
-0.000333034
0.00345253
-0.000265485
0.00348262
-0.000207654
0.00350575
-0.00015764
0.00352502
-0.000127397
0.00354262
-0.00010257
0.00355181
-7.25922e-05
0.00355725
-4.74182e-05
0.0035619
-3.14419e-05
0.00356265
-2.9196e-05
0.00356593
-1.73393e-05
0.00356911
-1.92455e-05
0.0035685
-1.44579e-05
0.00356531
-1.1693e-05
0.00356378
-1.092e-05
0.00356947
-1.3954e-05
0.00357469
-3.61743e-06
0.00357344
-5.77692e-06
0.00357279
-2.68428e-06
0.00357291
-5.68597e-06
0.00356898
-7.66214e-06
0.00356448
-6.67432e-06
0.00356401
-8.88297e-06
0.00356549
-2.37604e-05
0.00356657
-2.94918e-05
0.00356804
-3.88233e-05
0.00356494
-5.00497e-05
0.0035585
-5.97673e-05
0.00355617
-7.19286e-05
0.00355542
-8.21382e-05
0.00354894
-0.000106211
0.00354012
-0.000120273
0.00353085
-0.000146194
0.00351514
-0.000174623
0.00349747
-0.000200861
0.00347808
-0.000243811
0.00345357
-0.000287845
0.00342569
-0.000324839
0.00339268
-0.000366633
0.00335088
-0.000414844
-0.000465361
0.00329947