/*--------------------------------*- C++ -*----------------------------------*\
  =========                 |
  \\      /  F ield         | OpenFOAM: The Open Source CFD Toolbox
   \\    /   O peration     | Website:  https://openfoam.org
    \\  /    A nd           | Version:  6
     \\/     M anipulation  |
\*---------------------------------------------------------------------------*/
FoamFile
{
    version     2.0;
    format      ascii;
    class       volScalarField;
    location    "./ITHACAoutput/POD/1";
    object      P_rec;
}
// * * * * * * * * * * * * * * * * * * * * * * * * * * * * * * * * * * * * * //

dimensions      [0 2 -2 0 0 0 0];

internalField   nonuniform List<scalar> 
9000
(
118.891
63.8593
49.8677
43.8188
40.7763
39.0152
37.7487
36.8092
36.2376
35.6949
35.1967
34.8056
34.329
33.8824
33.3555
32.8344
32.3377
31.9822
31.6767
31.2667
30.6028
30.0713
29.6951
29.1742
28.8093
28.3141
27.6176
27.3813
26.7758
26.1889
25.9121
25.2904
24.7713
24.3829
23.8892
23.479
22.973
22.5665
22.2346
21.873
21.1636
20.7912
20.4245
20.1419
19.6498
19.1852
19.0895
19.1208
18.6856
17.8595
86.7498
60.7883
50.5376
44.8233
41.7109
39.691
38.3309
37.2868
36.4865
35.913
35.3713
34.7538
34.2837
33.7888
33.4819
32.9566
32.5193
31.9017
31.4954
30.9953
30.7231
29.9725
29.6068
29.1716
28.6888
28.1344
27.6676
27.3994
26.7543
26.3359
25.7799
25.349
24.8116
24.4287
23.969
23.5549
22.9922
22.7101
22.0126
21.7807
21.1236
20.8115
20.378
19.8288
19.7944
19.2433
19.0301
18.3146
18.0316
16.5632
69.5492
57.0676
50.3433
45.2894
42.3813
40.1556
38.5469
37.6549
36.7112
36.154
35.5297
34.6618
34.4542
33.8349
33.3661
32.8981
32.4531
32.1492
31.4689
31.0783
30.5673
30.111
29.6677
29.1976
28.5909
28.3519
27.6592
27.2146
26.739
26.1845
25.9409
25.334
24.992
24.5459
23.9321
23.5563
23.0411
22.5732
22.1288
21.6046
21.1706
20.8
20.2734
19.8621
19.4373
18.9802
18.4747
17.7882
17.2206
15.7273
60.3494
53.6264
49.2175
45.212
42.4454
40.3573
39.0243
38.0623
37.0092
36.2887
35.6179
35.0657
34.4497
33.8497
33.5831
33.06
32.4332
32.0707
31.5189
30.9301
30.5919
30.1248
29.7036
29.089
28.6482
28.2691
27.6949
27.4041
26.788
26.5107
25.961
25.4491
24.9571
24.47
23.9271
23.5423
23.0379
22.629
22.1788
21.685
21.1183
20.7592
20.3616
19.8569
19.4221
18.9807
18.3171
17.8136
16.8277
15.5384
53.9586
50.6752
47.4922
44.6357
42.1597
40.5
39.2971
38.0417
37.0834
36.4992
35.5163
34.9684
34.5546
33.8982
33.4515
33.0746
32.3976
32.1509
31.5811
31.2425
30.6324
30.2376
29.6944
29.1368
28.5396
28.3549
27.7856
27.2543
27.038
26.3173
25.806
25.3812
24.8566
24.5928
24.1218
23.3467
23.0193
22.5597
22.1015
21.6147
21.1438
20.713
20.1579
19.6023
19.1198
18.7017
18.1496
17.5401
16.6899
15.608
49.6594
47.8489
45.9217
43.7276
41.9699
40.5593
39.0816
38.0422
37.175
36.3091
35.8685
35.2864
34.495
34.0891
33.6993
33.0481
32.6156
32.1627
31.455
30.9936
30.5742
30.1778
29.6119
29.1811
28.7495
28.3786
27.7712
27.2835
26.9009
26.3628
25.8047
25.2943
25.0005
24.6589
23.8328
23.4321
23.1587
22.4206
22.2657
21.4656
21.1777
20.5898
20.1785
19.646
19.3267
18.6825
18.0603
17.4503
16.4724
15.483
46.441
45.607
44.5517
43.1537
41.6982
40.2361
38.9122
38.1076
37.182
36.4842
35.7297
35.0116
34.602
34.2166
33.4343
33.1011
32.6233
31.9407
31.3736
31.1003
30.514
30.1922
29.4788
29.1694
28.6908
28.1326
27.7555
27.0971
26.8006
26.3783
25.7657
25.4597
24.781
24.3918
23.8515
23.4005
22.8877
22.4321
21.9797
21.593
21.0542
20.6067
20.1737
19.7202
19.153
18.5686
17.9445
17.1094
16.4099
15.613
44.2276
43.8587
43.1879
42.0843
41.0896
39.8201
38.8101
37.8267
36.9671
36.4453
35.7617
35.2182
34.6348
33.9234
33.6326
33.078
32.7375
31.9711
31.2625
31.1122
30.467
30.1508
29.8361
29.1053
28.6165
28.1544
27.7361
27.3708
26.792
26.2553
25.7608
25.3899
24.7634
24.4231
23.9061
23.5703
23.0305
22.5136
22.0595
21.5935
21.0411
20.4987
20.0327
19.4982
18.9851
18.5254
18.0828
17.2182
16.5283
15.6102
42.4013
42.3936
42.0332
41.3469
40.263
39.4473
38.663
38.009
37.205
36.4862
35.8085
35.1874
34.5733
34.1174
33.6462
33.0683
32.5839
32.0794
31.5783
30.9851
30.711
30.2259
29.7459
29.0808
28.7161
28.0191
27.4804
27.1852
26.8078
26.3349
25.8644
25.1571
24.7129
24.2716
24.0338
23.3511
22.9754
22.4964
22.0734
21.4319
21.0789
20.5583
20.0153
19.5695
18.8572
18.5348
17.8153
17.2492
16.6171
15.7315
40.8171
41.1114
41.2276
40.6928
39.9698
39.2237
38.3028
37.577
37.0778
36.498
35.7322
35.2116
34.4328
34.2749
33.5264
33.17
32.762
32.0574
31.6043
31.0184
30.6269
30.1062
29.5155
29.2339
28.6634
28.4308
27.9023
27.1962
26.8939
26.3961
25.9176
25.3196
24.9404
24.4517
23.8301
23.4646
23.0263
22.7067
21.9312
21.4096
21.0486
20.5037
19.9206
19.5222
19.019
18.491
17.763
17.2167
16.4893
16.0743
39.8047
40.3439
40.2742
40.1156
39.24
38.8472
38.2197
37.5967
36.9098
36.3572
35.849
35.21
34.5489
34.071
33.3869
33.1796
32.5745
32.142
31.6732
31.0023
30.543
30.0892
29.6191
29.3438
28.7507
28.2816
27.6879
27.505
26.6465
26.2932
25.9121
25.4559
24.8502
24.3209
23.8347
23.4474
22.8899
22.5395
22.0897
21.3378
21.1402
20.3602
20.0481
19.4578
18.9608
18.4783
17.9799
17.2206
16.6107
16.0106
39.003
39.5443
39.6938
39.3464
39.1363
38.4981
37.8331
37.3438
36.7467
36.1271
35.681
35.124
34.6604
34.1583
33.6518
32.9867
32.6454
32.0719
31.676
31.1382
30.5628
30.0922
29.681
29.2004
28.7092
28.3329
27.7138
27.0564
26.8981
26.3777
25.9154
25.5057
24.7936
24.3396
23.8136
23.2879
22.8343
22.5125
21.9267
21.3754
20.9956
20.5516
19.9478
19.5729
18.9167
18.4031
17.8142
17.292
16.683
16.0935
38.2587
38.7386
39.11
38.8065
38.5178
38.2689
37.7273
37.2328
36.5651
36.2627
35.6868
35.0489
34.5231
34.1075
33.541
32.9769
32.7281
32.0022
31.5789
31.2151
30.61
30.0179
29.6103
29.2863
28.7826
28.2574
27.6014
27.3677
26.7673
26.1229
25.89
25.2476
24.8915
24.3604
23.8594
23.3488
23.0234
22.5229
21.9064
21.5841
21.0505
20.5626
20.0953
19.5384
18.9832
18.3704
17.8943
17.2525
16.7814
16.155
37.7893
38.3995
38.4732
38.7493
38.3747
37.9712
37.5522
36.8868
36.6111
36.0835
35.6812
35.1083
34.5878
34.1432
33.6567
33.094
32.5749
32.1659
31.6364
31.1448
30.65
29.9926
29.776
29.3237
28.7533
28.161
27.903
27.0985
26.7821
26.4457
25.8665
25.4818
24.9317
24.3754
23.8554
23.5244
23.0561
22.3619
21.9304
21.5055
21.0064
20.5767
19.9809
19.6695
19.0337
18.5875
17.9049
17.5128
16.8084
16.4357
37.3901
37.7742
38.1863
38.2296
38.0507
37.5644
37.6328
36.9935
36.5099
36.1609
35.6938
35.1047
34.4136
34.141
33.7333
32.9859
32.665
32.0059
31.6708
31.1051
30.7739
30.1238
29.7239
29.1919
28.5962
28.2755
27.516
27.1849
26.7057
26.3028
25.8937
25.2798
24.8486
24.3524
23.9652
23.48
22.9844
22.391
21.9154
21.3744
20.8596
20.4889
19.8931
19.4161
19.0308
18.5558
17.9169
17.4293
16.8743
16.3388
37.0309
37.5889
37.8027
37.8123
37.7907
37.6589
37.2425
36.8346
36.4427
36.1301
35.5322
34.9647
34.4921
34.2214
33.6351
33.1293
32.7043
31.9894
31.5623
31.252
30.5406
30.215
29.6916
29.1137
28.5828
28.1344
27.7648
27.329
26.7667
26.3974
25.929
25.331
24.7751
24.3317
23.8933
23.186
22.9802
22.2756
22.0481
21.5125
21.0389
20.3518
19.9473
19.5989
18.8328
18.4003
17.9979
17.524
16.898
16.5278
36.8816
37.1001
37.5315
37.5849
37.7293
37.5361
37.1625
36.8793
36.4564
36.0042
35.4802
35.0497
34.4572
33.8988
33.3934
33.0104
32.5986
32.1415
31.6697
31.2372
30.7405
30.1698
29.6607
29.1805
28.8563
28.1162
27.7982
27.3277
26.7802
26.2975
25.8266
25.4129
24.8448
24.4337
23.8238
23.514
22.8319
22.4263
21.8012
21.48
21.1153
20.4996
20.0086
19.4453
18.9064
18.5657
18.0595
17.3761
16.8211
16.4985
36.5847
37.1407
37.4046
37.4886
37.4341
37.231
37.0627
36.6601
36.545
36.1493
35.4667
35.0385
34.6015
34.2828
33.4004
32.8995
32.4372
32.1054
31.6422
31.2069
30.5842
30.2528
29.6183
29.0308
28.798
28.3511
27.8301
27.2631
26.6617
26.22
25.8888
25.2326
24.7761
24.5443
23.6645
23.4088
22.9714
22.4844
21.9113
21.3798
20.9157
20.4998
19.9903
19.4468
18.9141
18.5597
18.0163
17.5592
17.2122
16.611
36.3574
37.0129
37.3353
37.5046
37.2973
37.2061
36.8617
36.6005
36.2955
35.9472
35.486
35.1762
34.5597
34.0367
33.6831
33.0917
32.6073
32.1728
31.609
31.1615
30.6057
30.285
29.7193
29.0609
28.7262
28.2887
27.6994
27.1494
26.8924
26.1814
25.8751
25.2761
24.8573
24.3719
24.0707
23.426
22.9775
22.5865
21.9501
21.2301
21.1057
20.5026
20.0998
19.5871
19.0514
18.6261
18.2234
17.5392
17.0313
16.6139
36.4381
36.8214
37.2683
37.3499
37.4404
37.1477
37.0771
36.8804
36.4472
35.9535
35.5245
34.99
34.5653
33.9652
33.6015
33.0816
32.5824
31.9739
31.682
31.1435
30.5106
30.3043
29.6492
28.8788
28.822
28.1733
27.8873
27.3351
26.719
26.261
25.7658
25.3683
24.8523
24.385
23.9917
23.4563
22.73
22.4895
21.9854
21.4815
21.1516
20.4777
20.1014
19.4416
18.8801
18.5723
17.9918
17.6136
16.9439
16.7475
36.3016
36.938
37.3778
37.1965
37.3895
37.0745
36.937
36.5631
36.2693
35.8939
35.4752
35.0961
34.6881
34.0693
33.6389
33.0717
32.6474
32.1531
31.7283
31.1543
30.544
30.1778
29.5915
29.2783
28.7953
28.227
27.7547
27.285
26.7068
26.3055
25.796
25.2919
24.7907
24.387
24.0422
23.4167
22.9014
22.522
21.864
21.5834
21.1676
20.2754
19.9295
19.4779
18.9899
18.5761
18.1451
17.5554
17.143
16.7975
36.2685
36.9055
37.2202
37.4291
37.5776
37.2391
37.2173
36.793
36.1611
35.947
35.5907
35.0429
34.5609
33.9618
33.536
33.3047
32.469
32.0468
31.618
31.1093
30.6828
30.2511
29.7008
29.348
28.7434
28.0811
27.8124
27.1668
26.6188
26.3528
25.7048
25.2604
24.9841
24.2418
23.9271
23.3114
22.7599
22.3779
21.9671
21.4442
20.8286
20.3901
20.0092
19.4152
18.9006
18.5858
18.3165
17.6052
17.0789
16.9036
36.5695
37.2146
37.3368
37.4243
37.5379
37.3424
37.2829
36.78
36.2531
36.0126
35.5295
34.993
34.583
34.2266
33.6582
32.9596
32.4958
32.126
31.7145
31.1128
30.5939
30.1274
29.657
29.2028
28.5797
28.2779
27.6438
27.4457
26.8354
26.0892
25.7901
25.4308
24.8391
24.2773
23.8143
23.2691
22.721
22.3945
21.9822
21.4116
21.0279
20.6421
19.8411
19.6671
19.159
18.492
18.0876
17.6562
17.2479
16.6478
36.7185
37.1779
37.5303
37.6777
37.7273
37.6844
37.353
36.8754
36.3029
36.0781
35.6657
35.135
34.6089
34.1017
33.5214
33.0349
32.6881
32.1178
31.6065
31.1676
30.5574
30.1523
29.6017
29.2224
28.5487
28.3173
27.6438
27.238
26.9427
26.3364
25.7875
25.39
24.7377
24.318
23.9572
23.2557
22.8154
22.4692
21.9284
21.3762
20.9365
20.5513
19.9454
19.6101
19.1374
18.4958
18.0815
17.6721
17.2478
16.6933
37.1638
37.5615
37.842
37.8185
37.8855
37.73
37.3342
37.0414
36.3393
36.1651
35.564
35.1367
34.6822
34.0707
33.7264
33.154
32.6954
32.1875
31.5076
31.3561
30.7453
30.1865
29.5784
29.1823
28.7091
28.1972
27.6691
27.1601
26.7022
26.1652
25.7892
25.2236
24.8826
24.2624
23.8445
23.3716
22.9034
22.4558
21.9054
21.4162
20.8389
20.4688
20.0043
19.415
19.0963
18.5043
18.2588
17.6412
17.2664
16.6747
37.4168
37.7795
38.1973
38.1299
38.0168
37.8239
37.5014
37.0834
36.6139
36.0411
35.4482
35.1314
34.458
34.1208
33.6928
33.0418
32.4452
32.0042
31.622
31.015
30.6288
30.1896
29.5618
29.1374
28.7638
28.147
27.8179
27.1519
26.7426
26.1213
25.7995
25.312
25.0497
24.2237
23.8117
23.3882
22.814
22.4995
21.9583
21.5108
21.0223
20.6084
20.0107
19.4472
19.0916
18.5768
18.1769
17.5866
17.2454
16.8173
38.0396
38.1417
38.6488
38.5684
38.1435
38.0661
37.5563
37.1341
36.6786
36.2001
35.747
35.0985
34.5878
34.1921
33.6221
33.0357
32.8579
32.1041
31.655
31.05
30.7091
30.0954
29.7673
29.2528
28.874
28.2034
27.5877
27.2789
26.8752
26.2249
25.6857
25.2035
25.0015
24.4104
23.874
23.3909
22.9737
22.4087
21.9473
21.6192
20.801
20.4819
20.0608
19.4931
19.1418
18.6405
18.0679
17.5747
17.3059
16.7655
38.5156
38.7597
39.1583
39.0412
38.6167
38.2425
37.596
37.3191
36.9557
36.1165
35.6389
35.0978
34.6825
34.0973
33.4201
33.2023
32.5525
32.0365
31.7755
30.9999
30.7255
30.2138
29.6036
29.2584
28.6466
28.3799
27.79
27.2271
26.832
26.19
25.6662
25.2909
24.7144
24.3649
23.832
23.3195
22.8621
22.3935
21.9018
21.4241
21.0487
20.585
19.9762
19.6357
18.9971
18.6204
18.1227
17.7037
17.1727
16.8597
38.9886
39.5483
39.8156
39.4059
39.0547
38.7398
38.058
37.397
36.7232
36.2908
35.7853
35.0214
34.6364
34.1251
33.6258
33.1852
32.4656
32.1782
31.6788
31.1598
30.621
30.0825
29.6355
29.1509
28.7726
28.1514
27.7201
27.1844
26.7133
26.2769
25.9111
25.2835
24.9737
24.2794
23.8683
23.3593
22.9991
22.4708
21.8796
21.3359
20.9106
20.5266
19.9878
19.5753
19.0378
18.6231
18.0477
17.7234
17.375
16.7209
39.8655
40.2507
40.4373
39.8899
39.5828
38.9171
38.2965
37.5304
36.9488
36.2818
35.66
35.3236
34.6872
34.0077
33.4771
33.0681
32.5683
32.1498
31.5556
31.1418
30.5242
30.191
29.579
29.2009
28.5989
28.1324
27.669
27.3636
26.6018
26.3713
25.825
25.1891
24.8058
24.3738
23.8975
23.4761
22.9359
22.3983
21.779
21.372
21.0789
20.4045
19.843
19.5577
19.1326
18.5426
17.9864
17.7341
17.2336
16.806
40.9597
41.3351
41.2007
40.6916
39.8977
39.369
38.3998
37.716
36.9512
36.4947
35.7394
35.1664
34.6355
34.0046
33.6332
33.0284
32.4826
32.1817
31.4885
31.0526
30.6791
30.1431
29.8334
29.1372
28.7107
28.1781
27.6862
27.3246
26.7666
26.1445
25.7103
25.3016
24.6805
24.3486
23.9849
23.5366
22.7779
22.223
21.7369
21.5373
21.0255
20.4401
19.9257
19.365
19.0952
18.819
18.2704
17.6426
17.2065
16.695
42.45
42.4163
42.3158
41.4544
40.3053
39.5312
38.623
37.7691
37.0864
36.417
35.6414
35.1332
34.6356
34.0936
33.4735
33.0612
32.6485
31.9384
31.5817
31.2904
30.6596
30.2225
29.6319
29.1534
28.6575
28.2402
27.7606
27.2677
26.7751
26.2763
25.9461
25.2179
24.8324
24.3318
23.7448
23.3526
22.8551
22.4304
21.9795
21.3414
20.9999
20.5466
19.9292
19.4386
19.047
18.6934
18.0738
17.6309
17.2816
16.881
44.0741
43.7974
43.2593
42.2799
40.9765
39.9848
38.885
37.9923
36.9982
36.3114
35.7893
35.2727
34.615
34.0286
33.525
33.0686
32.5718
32.1058
31.5137
30.9765
30.8011
30.1463
29.6331
29.2468
28.6722
28.2568
27.6643
27.1036
26.8663
26.0561
25.8838
25.3608
24.7214
24.4358
23.9108
23.3135
23.0489
22.4059
21.8384
21.5132
20.8744
20.4133
19.9933
19.538
19.0762
18.6629
18.1714
17.5861
17.3386
16.6077
46.4776
45.845
44.4574
43.0666
41.5683
40.259
39.034
38.1028
37.0112
36.5104
35.7621
35.2715
34.6787
34.0586
33.7707
33.0707
32.5638
32.1814
31.5433
31.11
30.6843
30.0164
29.5112
29.276
28.6004
28.2081
27.845
27.2731
26.9904
26.0518
25.6997
25.2335
24.9259
24.2051
23.8294
23.4158
22.8908
22.3999
21.9269
21.3048
20.977
20.2991
19.8604
19.5699
19.0857
18.6715
18.0421
17.5799
17.1676
16.647
49.4808
47.8735
46.0649
43.9037
42.0636
40.2043
39.3061
38.0278
36.9416
36.3296
35.808
35.076
34.5055
33.9679
33.4464
33.004
32.3897
32.076
31.5446
31.1113
30.5218
30.0563
29.5383
29.2587
28.6595
28.1329
27.6569
27.144
26.7588
26.4012
25.8016
25.2839
24.9272
24.2243
23.7856
23.2732
23.0248
22.4115
21.8067
21.2394
20.887
20.5771
19.8087
19.4477
18.9615
18.5531
17.8642
17.654
17.0255
16.6833
54.0425
50.4489
47.5139
44.7751
42.2694
40.5675
39.117
37.9725
37.1316
36.4638
35.544
35.1734
34.4388
34.1149
33.5365
32.9139
32.4078
31.8152
31.719
31.0419
30.7111
30.1801
29.7215
29.2362
28.4874
28.2149
27.8533
27.2629
26.682
26.2003
25.9257
25.1143
24.7267
24.1253
23.9246
23.3066
23.0168
22.4129
21.9055
21.2993
20.9226
20.4417
19.9332
19.5314
18.9916
18.4867
18.0079
17.4071
17.0515
16.722
60.3105
53.6921
49.2587
45.2962
42.469
40.4099
39.0883
37.8799
37.0911
36.2113
35.6917
34.8607
34.6214
33.9523
33.3973
33.1344
32.4782
31.887
31.6771
31.0704
30.7636
30.0455
29.6344
29.2749
28.6211
28.3507
27.7221
27.172
26.8402
26.445
25.7267
25.4557
24.8424
24.2105
23.6772
23.3073
22.8321
22.4918
21.823
21.4193
20.8636
20.3135
20.0836
19.2755
18.8876
18.5599
18.027
17.4108
17.0293
16.6504
69.578
57.1315
50.2325
45.5825
42.2929
40.1319
38.6881
37.4467
36.8297
35.9851
35.3494
34.9424
34.3227
33.8303
33.4077
33.09
32.5805
32.1389
31.4349
31.0109
30.5371
30.1365
29.7528
29.1658
28.5696
28.2311
27.6924
27.1927
26.7734
26.2044
25.7954
25.2019
24.6182
24.3549
23.8931
23.4141
22.677
22.4118
21.8791
21.3913
20.8822
20.2452
19.8946
19.469
18.8277
18.5094
17.9181
17.4301
16.9381
16.6855
86.6953
60.6718
50.5068
45.0414
41.5657
39.7289
38.1235
37.4628
36.5363
36.0154
35.2838
34.9447
34.2753
33.6541
33.1522
32.848
32.4296
31.927
31.6059
30.9205
30.6494
30.1619
29.5542
29.1087
28.5481
28.089
27.7142
27.2545
26.7346
26.3078
25.7798
25.3647
24.966
24.2301
23.7996
23.3667
22.8258
22.3445
21.7005
21.3877
20.6775
20.2163
19.7358
19.3559
18.7223
18.4895
17.9155
17.6555
17.0256
16.4532
119.571
63.974
49.6949
43.8554
40.8293
38.9977
37.4822
36.7731
36.3023
35.5247
35.2165
34.7104
34.3087
33.7478
33.3929
32.7156
32.2706
31.9164
31.3525
31.182
30.541
30.1134
29.6282
29.2086
28.5808
28.2854
27.7904
27.1424
26.8336
26.1375
25.788
25.3271
24.7744
24.3506
23.8114
23.3781
22.631
22.4215
21.8252
21.3705
20.8415
20.2764
19.9893
19.3263
18.8985
18.2725
17.8922
17.4022
16.8781
16.3439
8.28223
10.1651
10.3212
10.6103
10.9841
10.9773
11.2276
11.2177
11.2527
11.1065
11.2795
11.2388
11.0314
10.9258
10.9548
10.9294
10.6802
10.5499
10.5493
10.3789
10.319
10.3143
10.1312
9.9711
9.80748
9.74376
9.61927
9.46488
9.32961
9.21066
9.06539
8.93221
8.81216
8.68495
8.56192
8.4338
8.28516
8.14981
8.03433
7.88799
7.77047
7.61737
7.49211
7.37484
7.24426
7.11782
6.97406
6.85422
6.73389
6.59002
6.44686
6.31984
6.19233
6.04964
5.94291
5.78482
5.64834
5.54148
5.42088
5.27765
5.14641
5.00711
4.89323
4.75937
4.62769
4.48316
4.36071
4.24048
4.10476
3.98351
3.85184
3.7153
3.58511
3.45483
3.31896
3.19374
3.06709
2.95292
2.79635
2.65826
2.53557
2.40028
2.28174
2.14431
2.01107
1.87705
1.74905
1.62169
1.50315
1.36262
1.22187
1.10137
0.962466
0.846127
0.716076
0.585413
0.455673
0.325483
0.195918
0.0651828
10.731
11.2717
10.9691
11.215
11.1322
11.3885
11.2972
11.2412
11.2969
11.3764
11.2603
11.1602
11.0615
11.0345
11.0438
10.6778
10.8285
10.7482
10.3819
10.4167
10.3701
10.1922
10.2327
10.1362
9.7423
9.67082
9.59552
9.47628
9.34559
9.20327
9.07148
8.93859
8.80795
8.69056
8.54657
8.42185
8.28016
8.15807
8.03327
7.89284
7.75809
7.63076
7.50233
7.36539
7.23696
7.10407
6.98212
6.84471
6.71553
6.58826
6.45454
6.33004
6.20822
6.07031
5.92121
5.79612
5.67247
5.52788
5.42056
5.2736
5.15287
5.01514
4.88704
4.77065
4.62215
4.48176
4.37167
4.22855
4.10474
3.96051
3.85066
3.72776
3.57386
3.44912
3.30496
3.19663
3.05168
2.9226
2.81287
2.67987
2.5388
2.40237
2.27874
2.14554
2.01109
1.88726
1.7432
1.62764
1.49719
1.36725
1.2492
1.11475
0.986975
0.845363
0.716885
0.586479
0.457798
0.326964
0.195972
0.0652122
12.1065
11.9006
11.5166
11.4334
11.6282
11.5392
11.6233
11.4169
11.2954
11.531
11.1387
11.2283
11.0993
11.1217
11.0639
10.8813
10.7791
10.7275
10.487
10.3245
10.3626
10.1568
10.0922
10.0346
9.83907
9.67117
9.56725
9.45409
9.31722
9.17422
9.07853
8.93751
8.8124
8.68814
8.55929
8.42066
8.26981
8.15515
8.02619
7.89366
7.7565
7.61548
7.50154
7.36858
7.24251
7.1037
6.97903
6.83333
6.71103
6.58505
6.44376
6.32801
6.20347
6.07011
5.9032
5.79771
5.65269
5.53197
5.40531
5.28116
5.14755
5.0205
4.89078
4.75442
4.62475
4.49905
4.3659
4.22142
4.10474
3.97361
3.84717
3.67473
3.57908
3.45079
3.32123
3.20813
3.04433
2.92528
2.79859
2.67714
2.53823
2.40212
2.27994
2.16256
2.0205
1.89342
1.74195
1.64261
1.49062
1.36726
1.24175
1.10568
0.962717
0.847035
0.714823
0.58639
0.455728
0.326401
0.196782
0.0652428
12.9106
12.6437
11.9908
11.8909
11.8284
11.6472
11.7033
11.5986
11.6463
11.3367
11.3376
11.3861
11.2231
11.3166
11.0693
10.9776
10.8125
10.7325
10.3854
10.4368
10.2452
10.1325
10.0032
10.0315
9.81655
9.74511
9.59559
9.41084
9.3103
9.20385
9.08466
8.9359
8.80939
8.67085
8.5379
8.4007
8.27858
8.17334
8.03121
7.90227
7.77425
7.62065
7.50372
7.36729
7.23405
7.11685
6.96829
6.84926
6.70181
6.56564
6.44558
6.32953
6.2096
6.04441
5.94653
5.78278
5.67259
5.53491
5.4111
5.27084
5.15589
5.02032
4.87752
4.77571
4.62703
4.48945
4.34901
4.22773
4.10603
3.96378
3.85377
3.73555
3.59731
3.45423
3.32937
3.18939
3.07138
2.9187
2.79162
2.66233
2.54917
2.41677
2.28821
2.17993
2.03264
1.89231
1.74964
1.623
1.50185
1.35804
1.22996
1.11446
0.9858
0.846602
0.717407
0.58572
0.457262
0.32583
0.195357
0.0651103
13.5497
12.9525
12.4494
12.1507
11.8931
11.9652
11.773
11.7164
11.7476
11.3387
11.391
11.4373
11.3612
10.9905
11.0106
10.8476
10.9132
10.6835
10.5686
10.4044
10.4501
10.142
9.94111
10.0528
9.78029
9.64298
9.63522
9.38716
9.34562
9.20252
9.06552
8.94572
8.79337
8.69227
8.55502
8.39472
8.27878
8.14435
8.0174
7.89472
7.75593
7.62796
7.50783
7.36931
7.24178
7.10392
6.96534
6.85071
6.70122
6.58576
6.45206
6.31654
6.19513
6.05366
5.92957
5.79395
5.67234
5.55396
5.41395
5.27589
5.152
5.01161
4.88697
4.74626
4.62794
4.49087
4.34897
4.22911
4.10601
3.96894
3.84017
3.7142
3.58044
3.46003
3.32447
3.1948
3.05565
2.94295
2.80658
2.67559
2.53946
2.41171
2.28685
2.16337
2.02542
1.88729
1.74994
1.63654
1.50179
1.36491
1.26842
1.11892
0.973424
0.848455
0.716451
0.58587
0.457292
0.327204
0.197371
0.0652031
14.1123
13.463
12.8321
12.4451
12.5271
12.01
12.2116
11.6795
11.7511
11.5923
11.4521
11.4533
11.2612
10.8575
10.9492
10.7133
10.7804
10.6989
10.7066
10.3923
10.2957
10.1304
10.0332
9.98164
9.90261
9.65545
9.64663
9.45777
9.31629
9.19331
9.03964
8.92404
8.80141
8.67829
8.52924
8.3891
8.27523
8.1569
8.03859
7.87082
7.74634
7.62009
7.50529
7.37487
7.23581
7.09786
6.98976
6.84179
6.70735
6.56708
6.4517
6.31217
6.2013
6.05643
5.9258
5.79064
5.66892
5.54529
5.40988
5.27691
5.13739
5.02745
4.88452
4.75655
4.6134
4.49982
4.35066
4.23472
4.10468
3.96456
3.84278
3.70385
3.58451
3.47209
3.3204
3.18637
3.06475
2.92977
2.81228
2.67549
2.54376
2.41086
2.28532
2.16197
2.02448
1.89951
1.75132
1.64013
1.50883
1.36728
1.23082
1.10302
0.985377
0.847514
0.715789
0.586962
0.456316
0.32703
0.19644
0.0652783
14.4923
13.7615
13.0315
12.7091
12.5773
12.1462
12.2497
11.8085
11.8783
11.8479
11.5931
11.4616
11.5273
11.3143
11.0687
11.0033
11.0583
10.5566
10.6002
10.4739
10.4413
10.2751
9.9881
9.88448
9.90545
9.61495
9.56295
9.41367
9.31719
9.20488
9.05463
8.91535
8.80616
8.67873
8.55259
8.39696
8.29018
8.13464
8.03184
7.88266
7.74529
7.59879
7.49377
7.36799
7.22584
7.08923
6.97875
6.83401
6.71634
6.59416
6.44211
6.32688
6.16492
6.0632
5.93684
5.80912
5.67053
5.53845
5.39248
5.28113
5.12911
5.01149
4.89058
4.76003
4.63245
4.47784
4.36119
4.23904
4.10597
3.97621
3.8426
3.71706
3.57082
3.4581
3.31462
3.18639
3.07107
2.9344
2.79697
2.66704
2.53672
2.42483
2.27487
2.17349
2.02679
1.88975
1.7559
1.63446
1.48916
1.3657
1.25187
1.12021
0.973041
0.846331
0.717049
0.585286
0.456177
0.325686
0.194627
0.065375
14.6687
14.1414
13.5015
13.0955
12.6132
12.6632
12.3267
11.9802
11.968
11.9348
11.739
11.5675
11.485
11.5343
11.0351
11.078
10.7247
10.7223
10.5809
10.5274
10.2582
10.3577
10.0653
9.97973
9.76243
9.67273
9.49798
9.48251
9.29897
9.18456
9.04948
8.90949
8.76789
8.66177
8.54317
8.41243
8.25927
8.13398
8.00206
7.86883
7.73009
7.61682
7.49584
7.36678
7.23607
7.09445
6.9613
6.81987
6.72538
6.58117
6.4451
6.30435
6.18923
6.06374
5.91886
5.80382
5.66261
5.52659
5.41106
5.2661
5.13653
5.01744
4.88479
4.75385
4.60285
4.51409
4.36088
4.23254
4.10097
3.9676
3.83487
3.72299
3.59642
3.44705
3.31003
3.19712
3.05244
2.92179
2.79548
2.66769
2.55053
2.40165
2.27488
2.16931
2.03582
1.89306
1.76049
1.63227
1.4819
1.37536
1.2334
1.09328
0.983819
0.845617
0.715478
0.585662
0.457686
0.325546
0.196373
0.0653496
14.9587
14.3965
13.6963
13.1688
13.0894
12.8143
12.2612
12.2993
12.0216
11.8861
11.9005
11.5805
11.5336
11.1656
11.2731
10.9762
10.8704
10.6501
10.6379
10.4125
10.5071
10.254
10.0387
9.95891
9.77131
9.76307
9.49534
9.43075
9.3126
9.17124
9.04894
8.91263
8.7874
8.66623
8.53204
8.39846
8.27022
8.15188
8.01746
7.87045
7.7421
7.61236
7.48984
7.35857
7.21462
7.08893
6.97642
6.83481
6.72298
6.58984
6.44636
6.31463
6.18231
6.05969
5.91958
5.79712
5.66335
5.53809
5.40327
5.25902
5.13474
5.01431
4.90504
4.75436
4.63553
4.4993
4.37041
4.23145
4.10463
3.97182
3.82914
3.71889
3.57044
3.44997
3.32085
3.18268
3.05538
2.92731
2.80239
2.67804
2.53422
2.41363
2.26769
2.15211
2.02953
1.88423
1.7666
1.64841
1.50158
1.36205
1.23847
1.12172
0.974795
0.846872
0.717109
0.586791
0.455353
0.325213
0.195825
0.065299
15.0498
14.5443
14.0552
13.5014
13.2158
12.7738
12.6298
12.3515
12.1616
11.9622
11.5926
11.7198
11.4358
11.4105
11.3105
11.08
11.0184
10.945
10.7355
10.5043
10.3951
10.311
10.0728
10.0086
9.79499
9.68573
9.62117
9.40602
9.32188
9.15737
9.03773
8.90682
8.79545
8.6495
8.53678
8.37065
8.27098
8.14731
8.0135
7.87367
7.7473
7.60831
7.48761
7.35254
7.21849
7.09317
6.94547
6.83541
6.70264
6.58309
6.45697
6.33911
6.19354
6.07709
5.93843
5.79403
5.6469
5.54487
5.40205
5.27745
5.14018
5.02471
4.88267
4.76664
4.60836
4.49215
4.37752
4.22919
4.10593
3.98106
3.84155
3.70857
3.56996
3.45744
3.31934
3.19149
3.05969
2.92327
2.7997
2.66159
2.52866
2.41366
2.27799
2.14094
2.02813
1.86544
1.76092
1.63394
1.5094
1.36881
1.23184
1.09599
0.982565
0.847824
0.716304
0.586708
0.454924
0.325221
0.196076
0.0651606
15.2245
14.6369
13.9859
13.644
13.3472
13.0095
12.5526
12.6103
12.1561
12.0609
11.8385
11.7551
11.5401
11.2905
11.2869
11.1324
10.8928
10.6138
10.6262
10.5999
10.4356
10.2584
10.0736
9.92389
9.87823
9.73223
9.5349
9.47446
9.29119
9.17529
9.03659
8.90977
8.77457
8.65404
8.52815
8.39752
8.26331
8.13057
8.00814
7.87806
7.74723
7.61728
7.48015
7.36162
7.22477
7.10442
6.95623
6.82492
6.69682
6.56749
6.43154
6.32117
6.17697
6.05645
5.93647
5.79753
5.66006
5.53725
5.40446
5.26638
5.14625
5.02241
4.88869
4.76363
4.62182
4.4941
4.38347
4.22917
4.09182
3.97164
3.84263
3.70883
3.58076
3.45681
3.2961
3.19758
3.06261
2.92968
2.80085
2.65897
2.54891
2.41436
2.27818
2.14141
2.02832
1.88086
1.76093
1.63625
1.50644
1.37189
1.23318
1.10679
0.978631
0.846899
0.715858
0.587733
0.457278
0.326119
0.194594
0.0651825
15.4582
14.7932
14.4328
13.8442
13.4884
13.0171
12.9337
12.4992
12.4313
12.163
12.0006
11.9609
11.7368
11.4417
11.1905
11.0614
10.8811
10.6929
10.752
10.5369
10.3987
10.21
10.0086
9.89437
9.75878
9.70816
9.51842
9.40574
9.29606
9.1555
9.0432
8.90997
8.77654
8.64038
8.51657
8.38722
8.26825
8.1414
7.97171
7.87699
7.72188
7.61805
7.48833
7.36359
7.22863
7.0921
6.95141
6.83676
6.70298
6.55792
6.4403
6.3238
6.18524
6.04569
5.92427
5.79097
5.65634
5.53606
5.4152
5.26659
5.15812
5.01037
4.87875
4.75162
4.63723
4.48907
4.37423
4.23639
4.10987
3.98154
3.84042
3.71924
3.58187
3.44901
3.30193
3.19311
3.06206
2.92758
2.80014
2.66929
2.53294
2.41256
2.28658
2.14273
2.0241
1.89167
1.7604
1.62576
1.51076
1.36971
1.24072
1.09021
0.983261
0.847335
0.716766
0.585372
0.455592
0.325481
0.195298
0.0652255
15.6748
14.9359
14.6025
14
13.6298
13.3013
12.9684
12.5836
12.5101
12.259
12.0982
11.8266
11.7366
11.492
11.1015
11.148
10.8849
10.8541
10.7381
10.4488
10.493
10.2555
10.0942
10.0398
9.90221
9.74273
9.55584
9.3978
9.29795
9.15195
9.02555
8.9028
8.75227
8.64719
8.50208
8.39052
8.26618
8.14225
8.00145
7.85729
7.73985
7.61478
7.48693
7.34071
7.23973
7.09791
6.95205
6.83781
6.69954
6.58856
6.43263
6.30586
6.17909
6.04042
5.93502
5.79904
5.65282
5.52861
5.39644
5.26859
5.14692
5.0319
4.8906
4.74235
4.61698
4.49358
4.35021
4.24199
4.10764
3.98299
3.84322
3.70705
3.5898
3.44243
3.30684
3.20037
3.07701
2.92493
2.80272
2.67942
2.55727
2.39623
2.27088
2.15542
2.03499
1.8882
1.7582
1.61929
1.48145
1.364
1.22749
1.11145
0.977526
0.84669
0.718724
0.584853
0.456938
0.326139
0.195823
0.0651818
15.6559
15.0785
14.4701
14.3143
13.6303
13.4839
13.0569
12.7291
12.6185
12.1919
12.0501
11.9903
11.6797
11.4415
11.346
11.1557
10.9234
10.9259
10.6388
10.438
10.4112
10.1241
10.2104
9.91967
9.90529
9.58202
9.51387
9.45697
9.27889
9.17414
9.04371
8.90804
8.78031
8.62821
8.50658
8.38052
8.24578
8.12754
7.98155
7.8636
7.74332
7.60323
7.48381
7.34811
7.21588
7.09855
6.96123
6.81503
6.70354
6.56674
6.4554
6.29163
6.19684
6.05164
5.93681
5.79876
5.66315
5.52829
5.40384
5.26709
5.14926
5.0236
4.90139
4.75468
4.61994
4.49723
4.35498
4.21906
4.09741
3.95754
3.84244
3.7169
3.57904
3.43707
3.31908
3.18248
3.04608
2.93032
2.78817
2.68677
2.54773
2.43081
2.26844
2.1487
2.029
1.88821
1.74985
1.62902
1.48669
1.36965
1.26519
1.09328
0.982881
0.846235
0.715731
0.586397
0.455024
0.326456
0.194305
0.0652186
15.5912
15.1871
14.6014
14.0985
13.6425
13.4625
13.1616
12.8433
12.51
12.3164
12.0294
11.9663
11.7645
11.5171
11.3381
11.2037
10.9996
10.947
10.5835
10.5022
10.2569
10.1791
10.2229
9.99625
9.88724
9.67394
9.60269
9.3774
9.28928
9.16972
9.01682
8.88617
8.75419
8.63683
8.50522
8.37449
8.25016
8.10361
7.9965
7.86246
7.73615
7.60801
7.4717
7.34209
7.22581
7.08333
6.95192
6.81236
6.69401
6.56781
6.43118
6.31986
6.18335
6.05582
5.93723
5.78804
5.66652
5.532
5.39252
5.27054
5.16688
5.00967
4.8905
4.75958
4.60692
4.49719
4.35764
4.23827
4.10554
3.96683
3.84393
3.72234
3.5677
3.47031
3.32669
3.20584
3.06404
2.93698
2.80479
2.65738
2.52762
2.40839
2.29584
2.14386
2.0265
1.88193
1.7389
1.62054
1.48091
1.36141
1.23545
1.11512
0.981098
0.846291
0.718044
0.58813
0.454586
0.326488
0.194869
0.0653116
15.8945
15.2845
15.0014
14.3406
14.1022
13.5391
13.2005
12.9696
12.6444
12.4753
11.974
12.0073
11.8368
11.5342
11.2559
11.2666
11.3083
10.8857
10.7405
10.3444
10.266
10.1876
10.0809
9.91012
9.82884
9.61614
9.51025
9.43448
9.29184
9.13902
9.02778
8.88808
8.76673
8.6308
8.4905
8.37173
8.24668
8.12705
7.97765
7.87254
7.73537
7.60427
7.46765
7.36092
7.21103
7.08307
6.95992
6.82832
6.6969
6.5697
6.44004
6.31421
6.19183
6.04811
5.90287
5.78004
5.65606
5.53239
5.39342
5.26714
5.15035
5.00826
4.86954
4.74349
4.62401
4.49783
4.35492
4.24684
4.10982
3.99915
3.84773
3.72236
3.57871
3.45076
3.32059
3.17824
3.06235
2.92913
2.80227
2.6767
2.52818
2.40851
2.27942
2.14151
2.0163
1.88645
1.73892
1.6162
1.50278
1.36938
1.24235
1.0998
0.981935
0.846687
0.717212
0.586868
0.455297
0.325026
0.193271
0.0652574
15.9134
15.4149
14.8379
14.5873
13.9147
13.6715
13.3257
12.9288
12.6557
12.4417
12.1525
12.0606
11.7588
11.5946
11.2151
11.1766
10.8998
10.7664
10.815
10.4661
10.2924
10.2
10.1046
9.81985
9.83538
9.64627
9.59637
9.42679
9.30152
9.15584
9.0111
8.88682
8.74409
8.62254
8.50793
8.36089
8.23357
8.10468
7.98757
7.85227
7.72836
7.59682
7.4653
7.3389
7.20461
7.07111
6.94784
6.81853
6.70798
6.56572
6.44872
6.32362
6.18942
6.05519
5.91507
5.78359
5.66236
5.53337
5.40896
5.27159
5.15287
4.99658
4.87728
4.74821
4.62052
4.48273
4.36893
4.23797
4.09981
3.96495
3.84979
3.71371
3.59008
3.44925
3.33004
3.19019
3.05532
2.91589
2.80043
2.67258
2.55154
2.39539
2.28094
2.14691
2.01659
1.89359
1.74647
1.63155
1.50614
1.37018
1.24059
1.11428
0.976957
0.846903
0.715237
0.585007