/*--------------------------------*- C++ -*----------------------------------*\
  =========                 |
  \\      /  F ield         | OpenFOAM: The Open Source CFD Toolbox
   \\    /   O peration     | Website:  https://openfoam.org
    \\  /    A nd           | Version:  6
     \\/     M anipulation  |
\*---------------------------------------------------------------------------*/
FoamFile
{
    version     2.0;
    format      ascii;
    class       volVectorField;
    location    "0";
    object      U_rec;
}
// * * * * * * * * * * * * * * * * * * * * * * * * * * * * * * * * * * * * * //

dimensions      [0 1 -1 0 0 0 0];

internalField   nonuniform List<vector> 
40000
(
(6.25086e-07 -6.25078e-07 0)
(2.16253e-06 -6.17655e-07 0)
(2.76051e-06 -1.89735e-07 0)
(1.67091e-06 3.59834e-07 0)
(-1.42062e-06 8.99974e-07 0)
(-6.44173e-06 1.38391e-06 0)
(-1.3174e-05 1.79344e-06 0)
(-2.13516e-05 2.12662e-06 0)
(-3.07075e-05 2.38981e-06 0)
(-4.09972e-05 2.59265e-06 0)
(-5.20098e-05 2.7454e-06 0)
(-6.35691e-05 2.85781e-06 0)
(-7.55334e-05 2.93847e-06 0)
(-8.77895e-05 2.99469e-06 0)
(-0.00010025 3.03244e-06 0)
(-0.000112851 3.05657e-06 0)
(-0.000125539 3.07082e-06 0)
(-0.000138283 3.07806e-06 0)
(-0.000151053 3.08048e-06 0)
(-0.000163835 3.07961e-06 0)
(-0.000176612 3.0766e-06 0)
(-0.00018938 3.07219e-06 0)
(-0.000202131 3.06689e-06 0)
(-0.000214861 3.06103e-06 0)
(-0.000227568 3.05475e-06 0)
(-0.000240249 3.04815e-06 0)
(-0.000252903 3.04124e-06 0)
(-0.000265528 3.03399e-06 0)
(-0.000278123 3.02636e-06 0)
(-0.000290685 3.0183e-06 0)
(-0.000303212 3.00975e-06 0)
(-0.000315703 3.00063e-06 0)
(-0.000328154 2.99091e-06 0)
(-0.000340562 2.98052e-06 0)
(-0.000352926 2.96942e-06 0)
(-0.000365241 2.95759e-06 0)
(-0.000377505 2.94498e-06 0)
(-0.000389714 2.93159e-06 0)
(-0.000401865 2.91736e-06 0)
(-0.000413956 2.90231e-06 0)
(-0.000425981 2.88642e-06 0)
(-0.000437938 2.86968e-06 0)
(-0.000449823 2.85211e-06 0)
(-0.000461632 2.83367e-06 0)
(-0.000473363 2.81439e-06 0)
(-0.000485011 2.79426e-06 0)
(-0.000496572 2.7733e-06 0)
(-0.000508043 2.7515e-06 0)
(-0.000519422 2.72888e-06 0)
(-0.000530704 2.70543e-06 0)
(-0.000541885 2.68118e-06 0)
(-0.000552963 2.65611e-06 0)
(-0.000563933 2.63024e-06 0)
(-0.000574793 2.60358e-06 0)
(-0.000585539 2.57614e-06 0)
(-0.000596167 2.54789e-06 0)
(-0.000606676 2.51887e-06 0)
(-0.000617059 2.48906e-06 0)
(-0.000627315 2.45846e-06 0)
(-0.000637441 2.42707e-06 0)
(-0.000647432 2.3949e-06 0)
(-0.000657285 2.36194e-06 0)
(-0.000666998 2.32817e-06 0)
(-0.000676564 2.2936e-06 0)
(-0.000685984 2.25822e-06 0)
(-0.000695251 2.22201e-06 0)
(-0.000704365 2.18497e-06 0)
(-0.00071332 2.1471e-06 0)
(-0.000722112 2.10835e-06 0)
(-0.000730737 2.06875e-06 0)
(-0.000739194 2.02827e-06 0)
(-0.000747477 1.9869e-06 0)
(-0.000755584 1.94463e-06 0)
(-0.000763508 1.90146e-06 0)
(-0.000771249 1.85735e-06 0)
(-0.000778801 1.81233e-06 0)
(-0.000786159 1.76638e-06 0)
(-0.000793322 1.71947e-06 0)
(-0.000800284 1.67161e-06 0)
(-0.000807042 1.62281e-06 0)
(-0.000813591 1.57304e-06 0)
(-0.00081993 1.52231e-06 0)
(-0.000826051 1.4706e-06 0)
(-0.000831952 1.41793e-06 0)
(-0.000837629 1.3643e-06 0)
(-0.000843078 1.30972e-06 0)
(-0.000848296 1.25417e-06 0)
(-0.000853278 1.1977e-06 0)
(-0.00085802 1.14025e-06 0)
(-0.00086252 1.08189e-06 0)
(-0.000866773 1.0226e-06 0)
(-0.000870775 9.62408e-07 0)
(-0.000874524 9.01326e-07 0)
(-0.000878018 8.39364e-07 0)
(-0.000881246 7.76544e-07 0)
(-0.000884213 7.12878e-07 0)
(-0.000886916 6.48399e-07 0)
(-0.000889343 5.83117e-07 0)
(-0.000891501 5.17066e-07 0)
(-0.000893379 4.50258e-07 0)
(-0.00089498 3.82729e-07 0)
(-0.000896302 3.14498e-07 0)
(-0.000897336 2.45597e-07 0)
(-0.000898084 1.76066e-07 0)
(-0.000898542 1.05938e-07 0)
(-0.000898715 3.52239e-08 0)
(-0.000898588 -3.60014e-08 0)
(-0.000898169 -1.07725e-07 0)
(-0.000897455 -1.79905e-07 0)
(-0.000896441 -2.52481e-07 0)
(-0.000895128 -3.2542e-07 0)
(-0.000893517 -3.98679e-07 0)
(-0.000891601 -4.72183e-07 0)
(-0.000889381 -5.45911e-07 0)
(-0.000886866 -6.19791e-07 0)
(-0.000884043 -6.9377e-07 0)
(-0.000880915 -7.67787e-07 0)
(-0.000877487 -8.4178e-07 0)
(-0.000873757 -9.15704e-07 0)
(-0.000869725 -9.89407e-07 0)
(-0.000865391 -1.06294e-06 0)
(-0.000860757 -1.13622e-06 0)
(-0.000855825 -1.20916e-06 0)
(-0.000850596 -1.28163e-06 0)
(-0.000845072 -1.3536e-06 0)
(-0.000839257 -1.42501e-06 0)
(-0.000833151 -1.49579e-06 0)
(-0.000826757 -1.56574e-06 0)
(-0.000820081 -1.63501e-06 0)
(-0.000813124 -1.70345e-06 0)
(-0.000805889 -1.77095e-06 0)
(-0.000798381 -1.83739e-06 0)
(-0.000790603 -1.90288e-06 0)
(-0.000782563 -1.96712e-06 0)
(-0.000774262 -2.03036e-06 0)
(-0.000765706 -2.09236e-06 0)
(-0.000756898 -2.15306e-06 0)
(-0.000747847 -2.21251e-06 0)
(-0.000738554 -2.27061e-06 0)
(-0.000729028 -2.32737e-06 0)
(-0.000719272 -2.38269e-06 0)
(-0.000709295 -2.43666e-06 0)
(-0.000699098 -2.48921e-06 0)
(-0.000688691 -2.54033e-06 0)
(-0.000678077 -2.59003e-06 0)
(-0.000667263 -2.63833e-06 0)
(-0.000656254 -2.68521e-06 0)
(-0.000645057 -2.7307e-06 0)
(-0.000633681 -2.77483e-06 0)
(-0.000622121 -2.81761e-06 0)
(-0.000610384 -2.8591e-06 0)
(-0.000598492 -2.89929e-06 0)
(-0.000586435 -2.93825e-06 0)
(-0.000574213 -2.97599e-06 0)
(-0.000561846 -3.01257e-06 0)
(-0.000549342 -3.04804e-06 0)
(-0.000536679 -3.08243e-06 0)
(-0.000523887 -3.11577e-06 0)
(-0.000510955 -3.14813e-06 0)
(-0.000497896 -3.17953e-06 0)
(-0.000484715 -3.21003e-06 0)
(-0.000471407 -3.23967e-06 0)
(-0.000457985 -3.26849e-06 0)
(-0.000444443 -3.29652e-06 0)
(-0.00043079 -3.32382e-06 0)
(-0.000417029 -3.35039e-06 0)
(-0.00040316 -3.37631e-06 0)
(-0.00038919 -3.4016e-06 0)
(-0.000375118 -3.4263e-06 0)
(-0.000360948 -3.45042e-06 0)
(-0.000346683 -3.474e-06 0)
(-0.000332323 -3.49707e-06 0)
(-0.000317872 -3.51963e-06 0)
(-0.000303333 -3.54169e-06 0)
(-0.000288706 -3.56319e-06 0)
(-0.000273997 -3.58409e-06 0)
(-0.000259206 -3.60425e-06 0)
(-0.000244339 -3.62346e-06 0)
(-0.000229401 -3.64139e-06 0)
(-0.000214398 -3.65755e-06 0)
(-0.000199342 -3.67126e-06 0)
(-0.000184242 -3.68149e-06 0)
(-0.000169122 -3.6869e-06 0)
(-0.000154001 -3.68563e-06 0)
(-0.000138914 -3.6752e-06 0)
(-0.000123908 -3.65238e-06 0)
(-0.000109043 -3.61305e-06 0)
(-9.43947e-05 -3.55192e-06 0)
(-8.0067e-05 -3.4625e-06 0)
(-6.61883e-05 -3.33688e-06 0)
(-5.2918e-05 -3.16569e-06 0)
(-4.04567e-05 -2.9382e-06 0)
(-2.90407e-05 -2.64283e-06 0)
(-1.89468e-05 -2.26809e-06 0)
(-1.04815e-05 -1.80515e-06 0)
(-3.95881e-06 -1.25275e-06 0)
(3.45323e-07 -6.25579e-07 0)
(2.29409e-06 3.24097e-08 0)
(2.14731e-06 5.86623e-07 0)
(6.84474e-07 6.84684e-07 0)
(6.18179e-07 -2.16295e-06 0)
(1.68248e-06 -1.68164e-06 0)
(-8.08019e-08 1.38925e-06 0)
(-6.03908e-06 5.42985e-06 0)
(-1.67624e-05 9.59702e-06 0)
(-3.21533e-05 1.34626e-05 0)
(-5.17823e-05 1.68331e-05 0)
(-7.50775e-05 1.96518e-05 0)
(-0.000101434 2.19366e-05 0)
(-0.000130274 2.37417e-05 0)
(-0.000161082 2.5136e-05 0)
(-0.000193416 2.61892e-05 0)
(-0.000226907 2.69674e-05 0)
(-0.000261255 2.75284e-05 0)
(-0.000296227 2.79213e-05 0)
(-0.000331637 2.81869e-05 0)
(-0.000367346 2.83575e-05 0)
(-0.000403249 2.84586e-05 0)
(-0.000439267 2.85097e-05 0)
(-0.000475343 2.85255e-05 0)
(-0.000511438 2.85167e-05 0)
(-0.000547523 2.84909e-05 0)
(-0.000583578 2.84535e-05 0)
(-0.000619586 2.84076e-05 0)
(-0.000655538 2.83556e-05 0)
(-0.000691427 2.82987e-05 0)
(-0.000727243 2.82373e-05 0)
(-0.000762979 2.81718e-05 0)
(-0.000798634 2.81018e-05 0)
(-0.000834196 2.80271e-05 0)
(-0.000869661 2.79473e-05 0)
(-0.000905023 2.78619e-05 0)
(-0.000940273 2.77706e-05 0)
(-0.000975402 2.7673e-05 0)
(-0.0010104 2.75687e-05 0)
(-0.00104527 2.74575e-05 0)
(-0.00107999 2.7339e-05 0)
(-0.00111455 2.7213e-05 0)
(-0.00114895 2.70794e-05 0)
(-0.00118318 2.69381e-05 0)
(-0.00121722 2.67888e-05 0)
(-0.00125106 2.66316e-05 0)
(-0.0012847 2.64664e-05 0)
(-0.00131812 2.62932e-05 0)
(-0.00135133 2.61118e-05 0)
(-0.00138428 2.59225e-05 0)
(-0.001417 2.57251e-05 0)
(-0.00144946 2.55197e-05 0)
(-0.00148165 2.53065e-05 0)
(-0.00151357 2.50852e-05 0)
(-0.0015452 2.48562e-05 0)
(-0.00157653 2.46192e-05 0)
(-0.00160755 2.43745e-05 0)
(-0.00163825 2.4122e-05 0)
(-0.00166863 2.38618e-05 0)
(-0.00169866 2.35938e-05 0)
(-0.00172835 2.33182e-05 0)
(-0.00175768 2.30349e-05 0)
(-0.00178665 2.27437e-05 0)
(-0.00181523 2.24451e-05 0)
(-0.00184342 2.21385e-05 0)
(-0.00187122 2.18241e-05 0)
(-0.00189861 2.15019e-05 0)
(-0.00192557 2.11717e-05 0)
(-0.00195211 2.08337e-05 0)
(-0.00197821 2.04876e-05 0)
(-0.00200385 2.01334e-05 0)
(-0.00202903 1.9771e-05 0)
(-0.00205374 1.94006e-05 0)
(-0.00207797 1.90216e-05 0)
(-0.0021017 1.86342e-05 0)
(-0.00212494 1.82384e-05 0)
(-0.00214766 1.7834e-05 0)
(-0.00216984 1.74212e-05 0)
(-0.00219149 1.69996e-05 0)
(-0.0022126 1.65692e-05 0)
(-0.00223313 1.61302e-05 0)
(-0.0022531 1.56824e-05 0)
(-0.00227249 1.5226e-05 0)
(-0.00229129 1.47605e-05 0)
(-0.00230948 1.42865e-05 0)
(-0.00232706 1.38036e-05 0)
(-0.002344 1.33122e-05 0)
(-0.00236032 1.2812e-05 0)
(-0.00237599 1.23034e-05 0)
(-0.00239099 1.17862e-05 0)
(-0.00240534 1.12606e-05 0)
(-0.002419 1.07268e-05 0)
(-0.00243198 1.01848e-05 0)
(-0.00244426 9.63471e-06 0)
(-0.00245582 9.07688e-06 0)
(-0.00246668 8.51133e-06 0)
(-0.0024768 7.93827e-06 0)
(-0.00248619 7.35774e-06 0)
(-0.00249484 6.77026e-06 0)
(-0.00250274 6.17579e-06 0)
(-0.00250987 5.57454e-06 0)
(-0.00251625 4.96692e-06 0)
(-0.00252184 4.35303e-06 0)
(-0.00252665 3.73317e-06 0)
(-0.00253068 3.10755e-06 0)
(-0.00253391 2.47658e-06 0)
(-0.00253634 1.84043e-06 0)
(-0.00253797 1.19937e-06 0)
(-0.00253878 5.53747e-07 0)
(-0.00253877 -9.60301e-08 0)
(-0.00253795 -7.49733e-07 0)
(-0.00253631 -1.40697e-06 0)
(-0.00253383 -2.06747e-06 0)
(-0.00253052 -2.73068e-06 0)
(-0.00252638 -3.39629e-06 0)
(-0.0025214 -4.06396e-06 0)
(-0.0025156 -4.73315e-06 0)
(-0.00250894 -5.40351e-06 0)
(-0.00250145 -6.07453e-06 0)
(-0.00249311 -6.74579e-06 0)
(-0.00248395 -7.41677e-06 0)
(-0.00247394 -8.08686e-06 0)
(-0.0024631 -8.75568e-06 0)
(-0.00245142 -9.42269e-06 0)
(-0.00243892 -1.00871e-05 0)
(-0.00242558 -1.0749e-05 0)
(-0.00241142 -1.14061e-05 0)
(-0.00239645 -1.20608e-05 0)
(-0.00238066 -1.27094e-05 0)
(-0.00236407 -1.33534e-05 0)
(-0.00234668 -1.39914e-05 0)
(-0.0023285 -1.46221e-05 0)
(-0.00230953 -1.5247e-05 0)
(-0.0022898 -1.5863e-05 0)
(-0.0022693 -1.64706e-05 0)
(-0.00224805 -1.70698e-05 0)
(-0.00222605 -1.76611e-05 0)
(-0.00220333 -1.82403e-05 0)
(-0.00217989 -1.88106e-05 0)
(-0.00215575 -1.93702e-05 0)
(-0.00213091 -1.99185e-05 0)
(-0.00210539 -2.04552e-05 0)
(-0.0020792 -2.09801e-05 0)
(-0.00205238 -2.14931e-05 0)
(-0.00202492 -2.19938e-05 0)
(-0.00199684 -2.2482e-05 0)
(-0.00196816 -2.29576e-05 0)
(-0.0019389 -2.34205e-05 0)
(-0.00190905 -2.38708e-05 0)
(-0.00187865 -2.43082e-05 0)
(-0.00184771 -2.47333e-05 0)
(-0.00181625 -2.51456e-05 0)
(-0.00178428 -2.55457e-05 0)
(-0.00175182 -2.59336e-05 0)
(-0.00171887 -2.63095e-05 0)
(-0.00168547 -2.66738e-05 0)
(-0.00165161 -2.70266e-05 0)
(-0.00161733 -2.73684e-05 0)
(-0.00158261 -2.76994e-05 0)
(-0.00154749 -2.80201e-05 0)
(-0.00151198 -2.83307e-05 0)
(-0.00147608 -2.86318e-05 0)
(-0.00143982 -2.89234e-05 0)
(-0.00140319 -2.92062e-05 0)
(-0.00136621 -2.94805e-05 0)
(-0.00132891 -2.97467e-05 0)
(-0.00129127 -3.00051e-05 0)
(-0.00125331 -3.02559e-05 0)
(-0.00121506 -3.04998e-05 0)
(-0.00117649 -3.07369e-05 0)
(-0.00113764 -3.09676e-05 0)
(-0.00109851 -3.11921e-05 0)
(-0.0010591 -3.14107e-05 0)
(-0.00101944 -3.16238e-05 0)
(-0.000979506 -3.18314e-05 0)
(-0.000939325 -3.20335e-05 0)
(-0.000898889 -3.22303e-05 0)
(-0.00085823 -3.24214e-05 0)
(-0.00081734 -3.26065e-05 0)
(-0.000776223 -3.27843e-05 0)
(-0.000734906 -3.29535e-05 0)
(-0.000693393 -3.31117e-05 0)
(-0.000651704 -3.32556e-05 0)
(-0.000609851 -3.33799e-05 0)
(-0.000567886 -3.3478e-05 0)
(-0.000525836 -3.35401e-05 0)
(-0.000483765 -3.35536e-05 0)
(-0.000441733 -3.35012e-05 0)
(-0.000399853 -3.33608e-05 0)
(-0.000358248 -3.31037e-05 0)
(-0.00031709 -3.26945e-05 0)
(-0.000276592 -3.20886e-05 0)
(-0.000237027 -3.12327e-05 0)
(-0.000198739 -3.00636e-05 0)
(-0.000162141 -2.85097e-05 0)
(-0.000127734 -2.64927e-05 0)
(-9.61022e-05 -2.39345e-05 0)
(-6.78974e-05 -2.07682e-05 0)
(-4.38173e-05 -1.69607e-05 0)
(-2.45391e-05 -1.2552e-05 0)
(-1.06097e-05 -7.72202e-06 0)
(-2.24715e-06 -2.90096e-06 0)
(1.01242e-06 1.01033e-06 0)
(5.86327e-07 2.14782e-06 0)
(1.90431e-07 -2.76176e-06 0)
(-1.39122e-06 8.26321e-08 0)
(-7.77138e-06 7.76528e-06 0)
(-2.03904e-05 1.73778e-05 0)
(-3.97446e-05 2.72786e-05 0)
(-6.56926e-05 3.65552e-05 0)
(-9.76958e-05 4.4752e-05 0)
(-0.000135013 5.17046e-05 0)
(-0.000176836 5.74212e-05 0)
(-0.000222377 6.20027e-05 0)
(-0.000270912 6.55925e-05 0)
(-0.000321805 6.83458e-05 0)
(-0.000374519 7.04131e-05 0)
(-0.000428612 7.19307e-05 0)
(-0.000483726 7.30167e-05 0)
(-0.000539577 7.37703e-05 0)
(-0.000595945 7.42723e-05 0)
(-0.000652663 7.45868e-05 0)
(-0.000709602 7.47639e-05 0)
(-0.000766668 7.48419e-05 0)
(-0.000823796 7.4849e-05 0)
(-0.00088093 7.48056e-05 0)
(-0.000938036 7.47265e-05 0)
(-0.000995087 7.4621e-05 0)
(-0.00105206 7.44959e-05 0)
(-0.00110894 7.43549e-05 0)
(-0.00116571 7.42001e-05 0)
(-0.00122237 7.40322e-05 0)
(-0.0012789 7.38516e-05 0)
(-0.00133529 7.36575e-05 0)
(-0.00139153 7.34492e-05 0)
(-0.0014476 7.32258e-05 0)
(-0.0015035 7.29864e-05 0)
(-0.00155921 7.27301e-05 0)
(-0.00161471 7.24561e-05 0)
(-0.00167001 7.21635e-05 0)
(-0.00172507 7.18517e-05 0)
(-0.00177989 7.15202e-05 0)
(-0.00183445 7.11685e-05 0)
(-0.00188872 7.07962e-05 0)
(-0.00194271 7.0403e-05 0)
(-0.00199638 6.99886e-05 0)
(-0.00204974 6.9553e-05 0)
(-0.00210275 6.9096e-05 0)
(-0.0021554 6.86175e-05 0)
(-0.00220767 6.81174e-05 0)
(-0.00225956 6.75959e-05 0)
(-0.00231103 6.7053e-05 0)
(-0.00236209 6.64886e-05 0)
(-0.00241269 6.5903e-05 0)
(-0.00246284 6.52961e-05 0)
(-0.0025125 6.46681e-05 0)
(-0.00256168 6.40187e-05 0)
(-0.00261034 6.33483e-05 0)
(-0.00265848 6.26571e-05 0)
(-0.00270608 6.19446e-05 0)
(-0.00275311 6.12112e-05 0)
(-0.00279957 6.04569e-05 0)
(-0.00284543 5.96812e-05 0)
(-0.00289069 5.8885e-05 0)
(-0.00293532 5.8067e-05 0)
(-0.0029793 5.72285e-05 0)
(-0.00302262 5.63686e-05 0)
(-0.00306526 5.5486e-05 0)
(-0.0031072 5.45833e-05 0)
(-0.00314843 5.36583e-05 0)
(-0.00318894 5.2711e-05 0)
(-0.00322869 5.17424e-05 0)
(-0.00326768 5.07508e-05 0)
(-0.00330589 4.97369e-05 0)
(-0.0033433 4.87002e-05 0)
(-0.00337988 4.76412e-05 0)
(-0.00341564 4.65599e-05 0)
(-0.00345053 4.5455e-05 0)
(-0.00348456 4.43268e-05 0)
(-0.00351769 4.31752e-05 0)
(-0.00354992 4.20027e-05 0)
(-0.00358123 4.08055e-05 0)
(-0.0036116 3.95856e-05 0)
(-0.00364101 3.83435e-05 0)
(-0.00366944 3.70775e-05 0)
(-0.00369686 3.57905e-05 0)
(-0.00372328 3.44798e-05 0)
(-0.00374868 3.31471e-05 0)
(-0.00377303 3.17928e-05 0)
(-0.00379632 3.04172e-05 0)
(-0.00381854 2.90198e-05 0)
(-0.00383967 2.76022e-05 0)
(-0.00385969 2.61637e-05 0)
(-0.0038786 2.4705e-05 0)
(-0.00389636 2.32276e-05 0)
(-0.00391299 2.17302e-05 0)
(-0.00392844 2.02149e-05 0)
(-0.00394273 1.86818e-05 0)
(-0.00395583 1.71312e-05 0)
(-0.00396773 1.5564e-05 0)
(-0.00397844 1.39807e-05 0)
(-0.00398792 1.23816e-05 0)
(-0.00399616 1.07684e-05 0)
(-0.00400317 9.14065e-06 0)
(-0.00400894 7.49965e-06 0)
(-0.00401344 5.84616e-06 0)
(-0.0040167 4.18071e-06 0)
(-0.00401867 2.50431e-06 0)
(-0.00401937 8.17441e-07 0)
(-0.00401878 -8.79332e-07 0)
(-0.00401691 -2.58371e-06 0)
(-0.00401375 -4.29643e-06 0)
(-0.00400928 -6.01574e-06 0)
(-0.00400351 -7.74019e-06 0)
(-0.00399644 -9.47093e-06 0)
(-0.00398805 -1.12044e-05 0)
(-0.00397838 -1.29411e-05 0)
(-0.00396739 -1.46796e-05 0)
(-0.0039551 -1.64198e-05 0)
(-0.00394149 -1.81578e-05 0)
(-0.00392659 -1.98953e-05 0)
(-0.00391037 -2.16295e-05 0)
(-0.00389287 -2.3359e-05 0)
(-0.00387405 -2.50829e-05 0)
(-0.00385395 -2.68013e-05 0)
(-0.00383257 -2.85102e-05 0)
(-0.00380991 -3.02094e-05 0)
(-0.00378599 -3.18991e-05 0)
(-0.0037608 -3.35741e-05 0)
(-0.00373436 -3.52378e-05 0)
(-0.00370669 -3.68842e-05 0)
(-0.00367779 -3.85149e-05 0)
(-0.00364767 -4.01263e-05 0)
(-0.00361634 -4.17187e-05 0)
(-0.00358385 -4.32903e-05 0)
(-0.00355018 -4.48394e-05 0)
(-0.00351535 -4.6365e-05 0)
(-0.00347939 -4.78653e-05 0)
(-0.00344233 -4.93399e-05 0)
(-0.00340415 -5.07875e-05 0)
(-0.0033649 -5.2206e-05 0)
(-0.00332459 -5.35964e-05 0)
(-0.00328326 -5.4957e-05 0)
(-0.0032409 -5.62856e-05 0)
(-0.00319756 -5.75836e-05 0)
(-0.00315326 -5.88496e-05 0)
(-0.003108 -6.00851e-05 0)
(-0.00306184 -6.12857e-05 0)
(-0.00301477 -6.24552e-05 0)
(-0.00296685 -6.35913e-05 0)
(-0.00291808 -6.46956e-05 0)
(-0.00286848 -6.57676e-05 0)
(-0.00281807 -6.68069e-05 0)
(-0.00276691 -6.78158e-05 0)
(-0.00271499 -6.8793e-05 0)
(-0.00266234 -6.974e-05 0)
(-0.002609 -7.06569e-05 0)
(-0.00255496 -7.15451e-05 0)
(-0.00250026 -7.2405e-05 0)
(-0.00244494 -7.32375e-05 0)
(-0.00238898 -7.40436e-05 0)
(-0.00233242 -7.48241e-05 0)
(-0.00227531 -7.558e-05 0)
(-0.00221763 -7.63123e-05 0)
(-0.00215939 -7.7022e-05 0)
(-0.00210064 -7.77097e-05 0)
(-0.00204139 -7.83767e-05 0)
(-0.00198163 -7.90234e-05 0)
(-0.0019214 -7.96514e-05 0)
(-0.0018607 -8.02619e-05 0)
(-0.00179957 -8.08542e-05 0)
(-0.00173799 -8.14295e-05 0)
(-0.00167601 -8.19897e-05 0)
(-0.00161361 -8.25338e-05 0)
(-0.0015508 -8.30626e-05 0)
(-0.00148762 -8.3577e-05 0)
(-0.00142407 -8.40751e-05 0)
(-0.00136015 -8.45574e-05 0)
(-0.00129589 -8.50214e-05 0)
(-0.00123131 -8.54643e-05 0)
(-0.00116643 -8.58817e-05 0)
(-0.00110125 -8.6268e-05 0)
(-0.00103582 -8.66107e-05 0)
(-0.000970189 -8.68994e-05 0)
(-0.000904405 -8.71142e-05 0)
(-0.000838516 -8.72285e-05 0)
(-0.000772639 -8.72091e-05 0)
(-0.000706891 -8.70129e-05 0)
(-0.000641422 -8.65831e-05 0)
(-0.000576429 -8.58466e-05 0)
(-0.000512203 -8.47158e-05 0)
(-0.000449042 -8.30821e-05 0)
(-0.00038738 -8.08169e-05 0)
(-0.000327717 -7.77726e-05 0)
(-0.000270661 -7.37814e-05 0)
(-0.000216927 -6.86732e-05 0)
(-0.000167334 -6.22827e-05 0)
(-0.000122779 -5.44825e-05 0)
(-8.41892e-05 -4.5234e-05 0)
(-5.24418e-05 -3.46729e-05 0)
(-2.82216e-05 -2.3234e-05 0)
(-1.18152e-05 -1.18423e-05 0)
(-2.88401e-06 -2.2439e-06 0)
(3.40242e-08 2.29877e-06 0)
(-3.60365e-07 -1.66974e-06 0)
(-5.44585e-06 6.05237e-06 0)
(-1.742e-05 2.03938e-05 0)
(-3.75251e-05 3.7466e-05 0)
(-6.59316e-05 5.49007e-05 0)
(-0.000102363 7.12873e-05 0)
(-0.000146173 8.58754e-05 0)
(-0.000196503 9.83634e-05 0)
(-0.000252416 0.000108734 0)
(-0.000312986 0.000117131 0)
(-0.000377351 0.00012378 0)
(-0.000444749 0.000128936 0)
(-0.000514521 0.000132855 0)
(-0.000586114 0.00013577 0)
(-0.000659079 0.000137888 0)
(-0.000733057 0.000139384 0)
(-0.000807757 0.000140405 0)
(-0.000882964 0.000141067 0)
(-0.000958501 0.000141463 0)
(-0.00103424 0.000141662 0)
(-0.0011101 0.00014172 0)
(-0.00118599 0.000141675 0)
(-0.00126187 0.000141555 0)
(-0.0013377 0.000141379 0)
(-0.00141344 0.000141161 0)
(-0.00148908 0.00014091 0)
(-0.00156457 0.000140628 0)
(-0.00163993 0.000140319 0)
(-0.00171512 0.000139984 0)
(-0.00179014 0.000139622 0)
(-0.00186495 0.000139231 0)
(-0.00193956 0.000138812 0)
(-0.00201393 0.000138361 0)
(-0.00208806 0.000137878 0)
(-0.00216193 0.000137361 0)
(-0.00223551 0.000136808 0)
(-0.00230879 0.000136219 0)
(-0.00238174 0.000135592 0)
(-0.00245435 0.000134926 0)
(-0.00252659 0.000134222 0)
(-0.00259845 0.000133477 0)
(-0.00266991 0.000132691 0)
(-0.00274092 0.000131865 0)
(-0.00281148 0.000130997 0)
(-0.00288156 0.000130089 0)
(-0.00295115 0.000129138 0)
(-0.00302021 0.000128147 0)
(-0.00308873 0.000127113 0)
(-0.00315667 0.000126039 0)
(-0.00322403 0.000124923 0)
(-0.00329077 0.000123765 0)
(-0.00335687 0.000122567 0)
(-0.00342231 0.000121327 0)
(-0.00348706 0.000120047 0)
(-0.00355111 0.000118725 0)
(-0.00361442 0.000117362 0)
(-0.00367698 0.000115958 0)
(-0.00373876 0.000114513 0)
(-0.00379974 0.000113027 0)
(-0.00385989 0.000111499 0)
(-0.00391919 0.000109929 0)
(-0.00397762 0.000108319 0)
(-0.00403516 0.000106667 0)
(-0.00409178 0.000104973 0)
(-0.00414745 0.000103237 0)
(-0.00420215 0.000101458 0)
(-0.00425586 9.96359e-05 0)
(-0.00430856 9.77715e-05 0)
(-0.00436022 9.58633e-05 0)
(-0.00441081 9.39118e-05 0)
(-0.00446032 9.19175e-05 0)
(-0.00450871 8.98792e-05 0)
(-0.00455596 8.77965e-05 0)
(-0.00460206 8.56701e-05 0)
(-0.00464696 8.35003e-05 0)
(-0.00469066 8.12859e-05 0)
(-0.00473314 7.90281e-05 0)
(-0.00477434 7.67269e-05 0)
(-0.00481429 7.43829e-05 0)
(-0.00485292 7.19948e-05 0)
(-0.00489022 6.95651e-05 0)
(-0.00492617 6.70924e-05 0)
(-0.00496076 6.4578e-05 0)
(-0.00499399 6.20224e-05 0)
(-0.00502577 5.94269e-05 0)
(-0.00505612 5.67921e-05 0)
(-0.00508504 5.41178e-05 0)
(-0.00511248 5.14059e-05 0)
(-0.00513843 4.86563e-05 0)
(-0.00516287 4.58712e-05 0)
(-0.00518581 4.30506e-05 0)
(-0.00520719 4.01968e-05 0)
(-0.00522703 3.73104e-05 0)
(-0.00524528 3.4392e-05 0)
(-0.00526196 3.14427e-05 0)
(-0.00527703 2.84647e-05 0)
(-0.00529051 2.54585e-05 0)
(-0.00530234 2.24255e-05 0)
(-0.00531253 1.93678e-05 0)
(-0.00532111 1.62857e-05 0)
(-0.00532801 1.31811e-05 0)
(-0.00533325 1.00556e-05 0)
(-0.00533682 6.90982e-06 0)
(-0.00533872 3.74596e-06 0)
(-0.00533892 5.66445e-07 0)
(-0.00533744 -2.62988e-06 0)
(-0.00533426 -5.83847e-06 0)
(-0.00532938 -9.05967e-06 0)
(-0.00532279 -1.2292e-05 0)
(-0.00531449 -1.55324e-05 0)
(-0.00530448 -1.87799e-05 0)
(-0.00529275 -2.20326e-05 0)
(-0.00527933 -2.52888e-05 0)
(-0.00526418 -2.85474e-05 0)
(-0.00524733 -3.18053e-05 0)
(-0.00522877 -3.50592e-05 0)
(-0.0052085 -3.83096e-05 0)
(-0.00518655 -4.1553e-05 0)
(-0.00516288 -4.47876e-05 0)
(-0.00513753 -4.80114e-05 0)
(-0.00511051 -5.12216e-05 0)
(-0.0050818 -5.44152e-05 0)
(-0.00505143 -5.75914e-05 0)
(-0.0050194 -6.07459e-05 0)
(-0.00498574 -6.38769e-05 0)
(-0.00495045 -6.69826e-05 0)
(-0.00491354 -7.00593e-05 0)
(-0.00487503 -7.31056e-05 0)
(-0.00483494 -7.61179e-05 0)
(-0.00479327 -7.90943e-05 0)
(-0.00475007 -8.20314e-05 0)
(-0.00470535 -8.4929e-05 0)
(-0.00465911 -8.77805e-05 0)
(-0.00461137 -9.05884e-05 0)
(-0.00456221 -9.33489e-05 0)
(-0.00451158 -9.60582e-05 0)
(-0.00445956 -9.87155e-05 0)
(-0.00440614 -0.000101321 0)
(-0.00435138 -0.000103871 0)
(-0.00429529 -0.000106365 0)
(-0.0042379 -0.0001088 0)
(-0.00417924 -0.000111177 0)
(-0.00411933 -0.000113495 0)
(-0.00405823 -0.000115752 0)
(-0.00399594 -0.000117948 0)
(-0.00393251 -0.000120085 0)
(-0.00386797 -0.000122161 0)
(-0.00380233 -0.000124177 0)
(-0.00373565 -0.000126133 0)
(-0.00366796 -0.00012803 0)
(-0.00359926 -0.000129868 0)
(-0.00352961 -0.00013165 0)
(-0.00345903 -0.000133374 0)
(-0.00338755 -0.000135044 0)
(-0.0033152 -0.000136661 0)
(-0.003242 -0.000138226 0)
(-0.00316799 -0.00013974 0)
(-0.0030932 -0.000141206 0)
(-0.00301765 -0.000142624 0)
(-0.00294135 -0.000143998 0)
(-0.00286436 -0.000145327 0)
(-0.00278667 -0.000146615 0)
(-0.00270831 -0.000147863 0)
(-0.00262931 -0.000149071 0)
(-0.00254969 -0.000150244 0)
(-0.00246947 -0.00015138 0)
(-0.00238867 -0.000152483 0)
(-0.00230729 -0.000153554 0)
(-0.00222538 -0.000154593 0)
(-0.00214294 -0.000155601 0)
(-0.00205999 -0.000156579 0)
(-0.00197654 -0.000157527 0)
(-0.00189262 -0.000158443 0)
(-0.00180824 -0.000159326 0)
(-0.00172345 -0.000160172 0)
(-0.00163823 -0.000160975 0)
(-0.00155262 -0.000161725 0)
(-0.00146669 -0.00016241 0)
(-0.00138044 -0.000163011 0)
(-0.00129395 -0.0001635 0)
(-0.0012073 -0.000163842 0)
(-0.00112056 -0.000163991 0)
(-0.00103387 -0.00016388 0)
(-0.000947404 -0.00016343 0)
(-0.000861352 -0.000162535 0)
(-0.000775987 -0.000161066 0)
(-0.000691655 -0.000158865 0)
(-0.000608767 -0.000155735 0)
(-0.000527842 -0.000151453 0)
(-0.000449515 -0.000145765 0)
(-0.000374527 -0.000138391 0)
(-0.000303741 -0.000129045 0)
(-0.000238128 -0.000117469 0)
(-0.00017874 -0.000103476 0)
(-0.000126654 -8.70415e-05 0)
(-8.28796e-05 -6.84222e-05 0)
(-4.82261e-05 -4.83439e-05 0)
(-2.3139e-05 -2.82316e-05 0)
(-7.67344e-06 -1.05771e-05 0)
(-6.19329e-07 3.65596e-07 0)
(-9.0379e-07 1.43395e-06 0)
(-9.6431e-06 1.68142e-05 0)
(-2.73965e-05 3.97965e-05 0)
(-5.50944e-05 6.58989e-05 0)
(-9.24394e-05 9.22085e-05 0)
(-0.000138941 0.000116902 0)
(-0.000193815 0.000138962 0)
(-0.000256094 0.000157958 0)
(-0.000324745 0.000173847 0)
(-0.00039875 0.000186811 0)
(-0.000477157 0.000197162 0)
(-0.000559115 0.000205265 0)
(-0.000643881 0.00021148 0)
(-0.000730831 0.000216153 0)
(-0.000819449 0.00021959 0)
(-0.000909313 0.000222054 0)
(-0.00100008 0.000223767 0)
(-0.0010915 0.000224905 0)
(-0.00118337 0.000225614 0)
(-0.00127551 0.000226001 0)
(-0.00136783 0.000226154 0)
(-0.00146022 0.000226133 0)
(-0.00155262 0.000225985 0)
(-0.00164497 0.000225741 0)
(-0.00173725 0.000225422 0)
(-0.00182941 0.000225044 0)
(-0.00192143 0.000224615 0)
(-0.00201328 0.000224138 0)
(-0.00210494 0.000223617 0)
(-0.0021964 0.00022305 0)
(-0.00228762 0.000222438 0)
(-0.00237859 0.000221776 0)
(-0.0024693 0.000221065 0)
(-0.00255971 0.0002203 0)
(-0.00264981 0.000219481 0)
(-0.00273957 0.000218604 0)
(-0.00282896 0.000217668 0)
(-0.00291797 0.000216672 0)
(-0.00300656 0.000215613 0)
(-0.00309471 0.000214491 0)
(-0.00318239 0.000213305 0)
(-0.00326958 0.000212051 0)
(-0.00335624 0.000210733 0)
(-0.00344236 0.000209348 0)
(-0.00352789 0.000207895 0)
(-0.00361282 0.000206377 0)
(-0.0036971 0.00020479 0)
(-0.00378073 0.000203135 0)
(-0.00386365 0.000201412 0)
(-0.00394586 0.000199622 0)
(-0.0040273 0.000197764 0)
(-0.00410797 0.000195839 0)
(-0.00418781 0.000193847 0)
(-0.00426682 0.000191785 0)
(-0.00434496 0.000189658 0)
(-0.00442219 0.000187461 0)
(-0.00449849 0.000185199 0)
(-0.00457382 0.000182867 0)
(-0.00464817 0.000180468 0)
(-0.00472149 0.000178001 0)
(-0.00479375 0.000175466 0)
(-0.00486495 0.000172862 0)
(-0.00493502 0.000170188 0)
(-0.00500395 0.000167446 0)
(-0.00507172 0.000164636 0)
(-0.00513827 0.000161753 0)
(-0.00520359 0.000158803 0)
(-0.00526764 0.000155781 0)
(-0.0053304 0.00015269 0)
(-0.00539184 0.000149526 0)
(-0.00545191 0.000146293 0)
(-0.00551061 0.000142987 0)
(-0.00556788 0.000139613 0)
(-0.0056237 0.000136167 0)
(-0.00567805 0.000132649 0)
(-0.0057309 0.000129061 0)
(-0.0057822 0.000125404 0)
(-0.00583197 0.000121676 0)
(-0.00588012 0.00011788 0)
(-0.00592665 0.000114016 0)
(-0.00597154 0.000110085 0)
(-0.00601477 0.000106087 0)
(-0.00605628 0.000102024 0)
(-0.0060961 9.78968e-05 0)
(-0.00613414 9.37059e-05 0)
(-0.00617042 8.94552e-05 0)
(-0.0062049 8.5144e-05 0)
(-0.00623758 8.07751e-05 0)
(-0.00626841 7.63496e-05 0)
(-0.00629741 7.18697e-05 0)
(-0.0063245 6.73353e-05 0)
(-0.00634972 6.27512e-05 0)
(-0.00637301 5.81185e-05 0)
(-0.00639441 5.34389e-05 0)
(-0.00641385 4.87142e-05 0)
(-0.00643134 4.39467e-05 0)
(-0.00644685 3.91384e-05 0)
(-0.00646038 3.42917e-05 0)
(-0.00647193 2.94091e-05 0)
(-0.00648148 2.44927e-05 0)
(-0.00648904 1.9544e-05 0)
(-0.00649456 1.45654e-05 0)
(-0.00649803 9.56061e-06 0)
(-0.0064995 4.52923e-06 0)
(-0.0064989 -5.23078e-07 0)
(-0.00649629 -5.59722e-06 0)
(-0.00649162 -1.0689e-05 0)
(-0.00648489 -1.57957e-05 0)
(-0.00647615 -2.09154e-05 0)
(-0.00646531 -2.60468e-05 0)
(-0.00645243 -3.11858e-05 0)
(-0.0064375 -3.63293e-05 0)
(-0.0064205 -4.14767e-05 0)
(-0.00640149 -4.66224e-05 0)
(-0.00638039 -5.17671e-05 0)
(-0.00635725 -5.69043e-05 0)
(-0.00633207 -6.20326e-05 0)
(-0.00630486 -6.7149e-05 0)
(-0.00627565 -7.22491e-05 0)
(-0.00624438 -7.73323e-05 0)
(-0.00621113 -8.23926e-05 0)
(-0.00617587 -8.74266e-05 0)
(-0.00613862 -9.24306e-05 0)
(-0.0060994 -9.74025e-05 0)
(-0.00605822 -0.000102337 0)
(-0.00601509 -0.000107232 0)
(-0.00597001 -0.000112082 0)
(-0.00592303 -0.000116885 0)
(-0.00587417 -0.000121632 0)
(-0.00582342 -0.000126328 0)
(-0.00577082 -0.00013096 0)
(-0.00571638 -0.000135531 0)
(-0.00566016 -0.000140034 0)
(-0.00560215 -0.000144467 0)
(-0.00554238 -0.000148827 0)
(-0.00548089 -0.00015311 0)
(-0.0054177 -0.000157312 0)
(-0.00535286 -0.000161433 0)
(-0.00528638 -0.000165467 0)
(-0.0052183 -0.000169414 0)
(-0.00514864 -0.00017327 0)
(-0.00507747 -0.000177037 0)
(-0.00500479 -0.000180711 0)
(-0.00493067 -0.00018429 0)
(-0.00485511 -0.000187776 0)
(-0.00477816 -0.000191166 0)
(-0.00469987 -0.000194462 0)
(-0.00462026 -0.000197663 0)
(-0.00453938 -0.000200769 0)
(-0.00445726 -0.000203781 0)
(-0.00437394 -0.000206703 0)
(-0.00428946 -0.000209532 0)
(-0.00420386 -0.000212272 0)
(-0.00411716 -0.000214925 0)
(-0.0040294 -0.000217491 0)
(-0.00394062 -0.000219974 0)
(-0.00385086 -0.000222377 0)
(-0.00376015 -0.000224701 0)
(-0.00366852 -0.000226949 0)
(-0.00357599 -0.000229124 0)
(-0.0034826 -0.000231228 0)
(-0.00338839 -0.000233264 0)
(-0.00329339 -0.000235235 0)
(-0.0031976 -0.000237143 0)
(-0.00310107 -0.00023899 0)
(-0.00300381 -0.00024078 0)
(-0.00290586 -0.000242515 0)
(-0.00280725 -0.000244196 0)
(-0.00270798 -0.000245823 0)
(-0.00260808 -0.0002474 0)
(-0.00250758 -0.000248927 0)
(-0.0024065 -0.000250404 0)
(-0.00230486 -0.000251828 0)
(-0.00220269 -0.000253195 0)
(-0.00210003 -0.000254498 0)
(-0.00199688 -0.000255729 0)
(-0.00189331 -0.000256871 0)
(-0.00178933 -0.000257901 0)
(-0.00168503 -0.00025879 0)
(-0.00158048 -0.000259496 0)
(-0.00147576 -0.000259958 0)
(-0.00137098 -0.000260104 0)
(-0.00126631 -0.000259832 0)
(-0.00116194 -0.000259016 0)
(-0.00105812 -0.000257496 0)
(-0.000955175 -0.000255071 0)
(-0.000853484 -0.000251502 0)
(-0.000753546 -0.000246496 0)
(-0.000655956 -0.000239724 0)
(-0.000561426 -0.000230809 0)
(-0.000470799 -0.000219351 0)
(-0.000385027 -0.000204946 0)
(-0.000305187 -0.000187238 0)
(-0.000232432 -0.000165984 0)
(-0.000167947 -0.000141171 0)
(-0.000112865 -0.000113174 0)
(-6.81452e-05 -8.29687e-05 0)
(-3.44786e-05 -5.23851e-05 0)
(-1.2457e-05 -2.44358e-05 0)
(-1.23956e-06 -3.9031e-06 0)
(-1.39331e-06 6.48527e-06 0)
(-1.35571e-05 3.22911e-05 0)
(-3.6794e-05 6.58623e-05 0)
(-7.16985e-05 0.000102439 0)
(-0.00011746 0.00013876 0)
(-0.000173323 0.0001727 0)
(-0.00023834 0.000203044 0)
(-0.000311427 0.000229263 0)
(-0.000391465 0.0002513 0)
(-0.000477364 0.00026939 0)
(-0.00056811 0.000283928 0)
(-0.000662793 0.000295388 0)
(-0.000760617 0.000304249 0)
(-0.000860907 0.000310971 0)
(-0.000963096 0.000315965 0)
(-0.00106673 0.000319589 0)
(-0.00117143 0.000322145 0)
(-0.00127689 0.000323879 0)
(-0.0013829 0.00032499 0)
(-0.00148927 0.000325634 0)
(-0.00159587 0.00032593 0)
(-0.00170258 0.000325966 0)
(-0.00180934 0.000325811 0)
(-0.00191607 0.000325508 0)