/*--------------------------------*- C++ -*----------------------------------*\
  =========                 |
  \\      /  F ield         | OpenFOAM: The Open Source CFD Toolbox
   \\    /   O peration     | Website:  https://openfoam.org
    \\  /    A nd           | Version:  6
     \\/     M anipulation  |
\*---------------------------------------------------------------------------*/
FoamFile
{
    version     2.0;
    format      ascii;
    class       volVectorField;
    location    "0";
    object      U;
}
// * * * * * * * * * * * * * * * * * * * * * * * * * * * * * * * * * * * * * //

dimensions      [0 1 -1 0 0 0 0];

internalField   nonuniform List<vector> 
13046
(
(-0.631516 0.348486 0)
(-0.555823 0.100632 -6.31288e-21)
(-0.317682 0.133809 -1.41105e-20)
(-0.625129 0.28056 0)
(-0.383007 0.198657 -1.26439e-20)
(-0.480093 0.0979124 0)
(-0.654882 0.292237 1.82071e-21)
(-0.478556 0.0730264 3.24881e-21)
(-0.364702 0.207308 -1.39504e-20)
(-0.81884 0.412005 6.06983e-21)
(-0.726407 -0.197108 0)
(-0.073455 0.0836979 9.50171e-21)
(-0.702172 0.363432 -5.76552e-21)
(-0.546666 0.0490853 -1.015e-20)
(-0.279915 0.14502 7.784e-21)
(-0.797592 0.475078 -7.87718e-21)
(-0.0793323 0.0510052 2.28404e-20)
(-0.758735 -0.124533 5.48909e-21)
(-0.48214 0.267572 0)
(-0.411474 0.112577 -6.85797e-21)
(-0.590245 0.209822 1.9125e-20)
(-0.804042 0.46466 -3.35173e-21)
(-0.0775743 0.0592731 -3.0489e-20)
(-0.7492 -0.139144 0)
(-0.594126 0.296079 7.69151e-21)
(-0.523985 0.124243 -1.54322e-20)
(-0.370579 0.161832 0)
(-0.702527 0.386215 -1.05325e-20)
(-0.56504 0.0448286 2.96095e-21)
(-0.259616 0.127464 -1.34445e-20)
(-0.631979 0.364986 0)
(-0.575612 0.104931 0)
(-0.29991 0.113865 1.43661e-20)
(-0.565279 0.275813 -8.9305e-21)
(-0.393814 0.165056 4.73916e-21)
(-0.519326 0.144659 2.68758e-20)
(-0.558907 0.258082 -1.37854e-20)
(-0.41719 0.183495 7.21185e-21)
(-0.501371 0.148807 -1.38505e-20)
(-0.561774 0.387956 9.93194e-21)
(-0.308511 0.0389462 2.67017e-21)
(-0.664329 0.152651 -9.47713e-21)
(-0.520296 0.21148 6.24405e-21)
(-0.474697 0.207513 1.07595e-20)
(-0.475169 0.171295 0)
(-0.545515 0.213817 3.92006e-21)
(-0.468628 0.223757 -1.64728e-20)
(-0.45424 0.151392 -2.0665e-21)
(-0.646643 0.34093 0)
(-0.537422 0.0834406 -4.55336e-22)
(-0.312967 0.147198 1.74798e-23)
(-0.336486 -0.0438422 1.67022e-20)
(-0.50134 0.420203 0)
(-0.761513 0.181392 -1.15839e-20)
(-0.359092 -0.0645877 -2.37924e-20)
(-0.786517 0.194687 -1.84425e-20)
(-0.470623 0.411732 1.56361e-20)
(-0.728717 0.00925999 -2.377e-21)
(-0.747827 0.535773 0)
(-0.151606 0.00794236 1.25579e-20)
(-0.801891 0.332614 -5.43571e-21)
(-0.515491 -0.0521917 6.12827e-21)
(-0.273476 0.22601 -3.25938e-20)
(-0.129632 0.114912 1.73156e-20)
(-0.667815 -0.123322 -3.97831e-21)
(-0.836021 0.420265 -9.16858e-21)
(-0.728793 0.545823 0)
(-0.7356 0.0324659 0)
(-0.167975 -0.00982643 0)
(-0.714173 0.536214 -4.29855e-21)
(-0.727421 0.0450679 0)
(-0.179899 -0.00807945 1.00082e-20)
(-0.744491 -0.00308208 0)
(-0.75845 0.542599 1.38513e-22)
(-0.138665 0.00270691 9.67617e-24)
(-0.497636 0.287153 0)
(-0.39144 0.0993072 7.46583e-21)
(-0.603585 0.196211 -1.3663e-20)
(-0.116936 0.021301 1.39363e-20)
(-0.777074 0.527015 -1.32832e-20)
(-0.742629 -0.0425061 0)
(-0.614165 0.300154 4.01584e-21)
(-0.509764 0.109369 0)
(-0.361908 0.17378 0)
(-0.114549 0.104583 -1.55696e-20)
(-0.686818 -0.139271 -3.11739e-21)
(-0.836959 0.424454 5.462e-21)
(-0.871515 0.354035 -9.62615e-21)
(-0.168894 0.185914 0)
(-0.608567 -0.16192 -3.08705e-21)
(-0.204699 0.255844 0)
(-0.909456 0.285372 0)
(-0.56473 -0.217356 4.16904e-22)
(-0.784046 0.416648 0)
(-0.801692 0.412565 5.08396e-21)
(-0.605444 -0.0297321 1.19669e-20)
(-0.608335 -0.0523032 -5.62278e-21)
(-0.196613 0.124752 -7.11835e-21)
(-0.187676 0.134888 1.82197e-20)
(-0.187967 0.206566 -8.69263e-22)
(-0.87699 0.338752 9.41822e-21)
(-0.589384 -0.166519 0)
(-0.571027 0.23087 -3.9548e-23)
(-0.448774 0.22342 8.67123e-21)
(-0.453484 0.132917 0)
(-0.432636 0.352298 0)
(-0.751664 0.227157 -5.64119e-21)
(-0.382447 -0.0242977 0)
(-0.508483 0.396404 1.72177e-20)
(-0.330786 -0.00802433 0)
(-0.721976 0.179664 -2.16901e-20)
(-0.753614 0.386371 0)
(-0.037348 0.0546624 0)
(-0.722145 -0.25231 -4.60501e-21)
(-0.678465 0.348527 1.59376e-20)
(-0.535744 0.0646278 4.2679e-21)
(-0.298113 0.153341 1.4047e-20)
(-0.790266 0.455083 6.45231e-21)
(-0.778448 0.440796 -1.21529e-20)
(-0.653446 -0.0398609 -1.01434e-20)
(-0.160402 0.0889848 8.18522e-21)
(-0.629373 -0.0241813 6.1821e-21)
(-0.179571 0.100196 -7.64884e-21)
(-0.80424 0.415123 -5.10177e-21)
(-0.737929 -0.207722 -6.36835e-21)
(-0.0618216 0.0725728 -4.26114e-21)
(-0.7468 0.41103 0)
(-0.588826 0.00667554 -7.87295e-21)
(-0.221842 0.118997 1.65128e-20)
(-0.587638 0.396694 0)
(-0.293281 0.0489217 -1.3244e-20)
(-0.650498 0.134781 5.6369e-22)
(-0.226458 0.272979 0)
(-0.904501 0.281591 0)
(-0.549098 -0.198719 0)
(-0.832874 0.395966 0)
(-0.614354 -0.0954793 -1.57624e-20)
(-0.178597 0.153081 -1.95826e-20)
(-0.654944 0.379342 0)
(-0.584993 0.0886048 0)
(-0.281528 0.104729 0)
(-0.73084 0.292805 0)
(-0.45795 0.00917126 0)
(-0.352796 0.2496 0)
(-0.491296 0.395097 0)
(-0.344099 -0.0222189 0)
(-0.740958 0.190409 1.1675e-20)
(-0.437427 0.340048 -1.81718e-21)
(-0.737656 0.230076 -1.20664e-20)
(-0.387373 -0.00989209 1.44172e-20)
(-0.812548 0.345021 1.29365e-20)
(-0.536339 -0.0639875 0)
(-0.250645 0.206709 4.24467e-20)
(-0.421059 0.285951 0)
(-0.691381 0.24746 1.29745e-20)
(-0.412181 0.0349033 -3.62939e-21)
(-0.410051 -0.0872629 0)
(-0.81763 0.230276 1.30357e-20)
(-0.437526 -0.0998974 0)
(-0.832812 0.248972 7.46985e-21)
(-0.401507 0.373089 0)
(-0.366349 0.348029 0)
(-0.747916 0.263951 1.65168e-21)
(-0.428002 -0.0123787 7.62937e-21)
(-0.379669 0.287092 -7.96609e-21)
(-0.835214 0.398433 -6.23595e-21)
(-0.0816256 0.0976232 0)
(-0.70654 -0.207192 -7.85277e-21)
(-0.773191 0.399397 -4.60821e-21)
(-0.0444429 0.0593539 -1.94963e-21)
(-0.737287 -0.234786 0)
(-0.832338 0.408096 -7.55075e-21)
(-0.631741 -0.0997122 0)
(-0.161657 0.13746 2.22763e-20)
(-0.618761 0.452452 0)
(-0.690191 0.116066 3.08913e-21)
(-0.261008 0.0129834 7.79606e-21)
(-0.733118 0.252715 1.09604e-20)
(-0.40178 0.303371 3.79767e-21)
(-0.412095 0.000475852 0)
(-0.104288 0.13206 0)
(-0.669007 -0.210265 0)
(-0.861374 0.372427 5.29803e-21)
(-0.598948 0.433104 0)
(-0.681971 0.130081 -6.6341e-21)
(-0.277156 0.0222547 2.0115e-21)
(-0.41966 0.299764 0)
(-0.702722 0.241787 0)
(-0.400379 0.0211954 0)
(-0.710173 0.282583 5.3965e-21)
(-0.451579 0.0233911 0)
(-0.364027 0.245155 0)
(-0.539655 0.0198504 -5.38163e-23)
(-0.269593 0.162262 -9.5259e-21)
(-0.734586 0.39512 1.66644e-20)
(-0.573783 0.0197145 0)
(-0.240011 0.129941 -2.06903e-20)
(-0.859513 0.385671 -9.78161e-21)
(-0.135675 0.143953 1.40704e-20)
(-0.652692 -0.162578 -1.50979e-20)
(-0.221331 0.251578 1.27733e-20)
(-0.888314 0.305804 5.84638e-21)
(-0.557391 -0.174472 1.54158e-20)
(-0.895889 0.318014 -1.64541e-20)
(-0.594641 -0.198814 0)
(-0.176093 0.216041 -1.2554e-20)
(-0.32724 -0.0768024 -8.58443e-22)
(-0.792374 0.163966 5.23345e-21)
(-0.521675 0.471414 0)
(-0.700065 0.318923 -2.44406e-20)
(-0.768596 0.538583 6.76047e-21)
(-0.121037 0.0114717 -8.59086e-21)
(-0.754004 -0.034187 0)
(-0.613158 -0.212412 0)
(-0.890236 0.329186 -1.49216e-20)
(-0.153905 0.19207 0)
(-0.579294 0.252797 -1.98493e-20)
(-0.42136 0.204592 -7.07887e-21)
(-0.475061 0.129138 2.04155e-20)
(-0.687858 0.395258 0)
(-0.580982 0.0607844 -4.26e-22)
(-0.263263 0.114927 -7.92103e-21)
(-0.232237 0.269071 9.75545e-21)
(-0.895623 0.293014 0)
(-0.546429 -0.184434 -1.77588e-20)
(-0.720878 0.331064 1.95952e-20)
(-0.523686 0.0164776 1.84254e-20)
(-0.284674 0.178585 0)
(-0.062746 0.0857505 0)
(-0.704316 -0.241037 6.8577e-21)
(-0.817135 0.383687 0)
(-0.493504 0.453434 0)
(-0.805502 0.174694 0)
(-0.345742 -0.0884882 0)
(-0.889203 0.321166 1.44389e-20)
(-0.582544 -0.182059 0)
(-0.189764 0.220765 -1.90272e-23)
(-0.790148 0.258149 4.84771e-21)
(-0.427849 -0.056126 -5.90503e-21)
(-0.369698 0.317181 0)
(-0.741804 0.426799 0)
(-0.60354 0.0129537 7.34779e-21)
(-0.213085 0.103707 1.30259e-20)
(-0.491814 -0.17486 -2.19102e-20)
(-0.89423 0.249579 -1.0605e-20)
(-0.305084 0.341829 7.66049e-21)
(-0.852848 0.245824 0)
(-0.4498 -0.121776 -8.55047e-21)
(-0.355022 0.353041 -2.74487e-22)
(-0.0602836 0.08863 -1.24668e-20)
(-0.687865 -0.254926 0)
(-0.81863 0.368052 -5.43339e-21)
(-0.552011 0.427546 9.15947e-21)
(-0.303892 -0.00580682 -9.72879e-21)
(-0.716605 0.155593 9.64298e-22)
(-0.698363 0.409047 4.97721e-21)
(-0.026371 0.032335 -1.83279e-20)
(-0.761144 -0.219943 0)
(-0.45407 0.249274 -4.10453e-21)
(-0.600038 0.225821 -1.54548e-20)
(-0.426771 0.107403 2.05488e-20)
(-0.786017 0.28983 5.8161e-21)
(-0.776981 0.269467 2.75812e-23)
(-0.461342 -0.0453475 -1.42191e-20)
(-0.436404 -0.0407966 0)
(-0.362343 0.299009 7.24151e-21)
(-0.328069 0.271404 -7.53106e-21)
(-0.104419 0.0265806 -1.82366e-20)
(-0.781729 0.518503 7.0289e-21)
(-0.752847 -0.0575086 -1.33293e-20)
(-0.722257 0.429499 0)
(-0.611571 0.0356175 0)
(-0.223563 0.093101 -1.71687e-20)
(-0.866023 0.258969 -2.76758e-21)
(-0.4733 -0.13889 0)
(-0.32668 0.335081 0)
(-0.812538 0.427928 -6.2269e-21)
(-0.636029 -0.0677272 0)
(-0.163476 0.117262 8.14292e-21)
(-0.51216 0.222852 4.22548e-21)
(-0.496762 0.180598 6.16511e-21)
(-0.461504 0.190313 -2.11161e-21)
(-0.819676 0.264236 -9.54354e-21)
(-0.448069 -0.0843602 0)
(-0.348458 0.32013 -1.26605e-20)
(-0.721198 0.445059 0)
(-0.629062 0.0361999 9.17188e-21)
(-0.212536 0.0774298 -1.11041e-20)
(-0.726375 0.3531 0)
(-0.745755 0.36182 1.95239e-21)
(-0.554975 0.440758 3.32256e-21)
(-0.299457 -0.0185912 2.82574e-20)
(-0.728921 0.153489 -2.32051e-20)
(-0.830413 0.279991 -9.80852e-21)
(-0.470022 -0.0950048 1.24715e-20)
(-0.317705 0.296209 1.15536e-20)
(-0.823715 0.423933 0)
(-0.15518 0.122715 -2.86669e-20)
(-0.642316 -0.0858309 -7.88541e-21)
(-0.513439 0.380126 -2.37557e-20)
(-0.333506 0.00626943 0)
(-0.704824 0.183561 7.33921e-21)
(-0.41268 0.394806 -1.46988e-20)
(-0.82742 0.219099 -7.55426e-21)
(-0.403222 -0.10191 0)
(-0.76045 0.474862 -6.23536e-21)
(-0.663396 -0.00277275 -8.14015e-21)
(-0.167099 0.0621257 5.09898e-21)
(-0.526125 0.439021 1.20521e-21)
(-0.32145 -0.0407931 0)
(-0.756577 0.170429 1.59642e-20)
(-0.773176 0.48251 0)
(-0.784546 0.473987 0)
(-0.676453 -0.017516 -5.31528e-21)
(-0.155033 0.06073 -1.32553e-20)
(-0.672866 -0.0352996 7.5204e-21)
(-0.150245 0.0724017 1.40957e-20)
(-0.109267 0.126172 -1.09454e-20)
(-0.675893 -0.191953 0)
(-0.856891 0.386898 -7.10587e-21)
(-0.761913 0.443211 7.19991e-21)
(-0.625394 -0.00710248 0)
(-0.188361 0.0931761 4.49459e-21)
(-0.674557 -0.264775 1.33593e-20)
(-0.0189481 0.0340058 1.6022e-20)
(-0.66671 0.35831 1.26094e-20)
(-0.655962 0.229874 -7.09348e-21)
(-0.446833 0.282227 0)
(-0.403074 0.0621452 0)
(-0.779505 0.330343 1.31375e-20)
(-0.505623 -0.0308747 0)
(-0.284027 0.218466 2.48854e-20)
(-0.146941 0.14381 -8.92616e-21)
(-0.853637 0.392181 1.9996e-20)
(-0.64167 -0.14082 1.12818e-20)
(-0.361871 -0.0782483 0)
(-0.800102 0.192856 6.87001e-21)
(-0.464552 0.425481 -1.77147e-20)
(-0.51116 -0.179429 -2.6924e-20)
(-0.896102 0.264588 -6.52301e-21)
(-0.276389 0.313988 0)
(-0.504599 0.0380415 -1.84106e-20)
(-0.312301 0.189946 0)
(-0.781653 0.370404 1.44192e-20)
(-0.548065 -0.0276258 6.76293e-21)
(-0.242389 0.170869 7.60638e-21)
(-0.487931 0.0296994 1.08407e-20)
(-0.325195 0.206349 8.1672e-23)
(-0.801547 0.478349 -4.77959e-22)
(-0.0901867 0.0528764 1.07198e-20)
(-0.744584 -0.107447 -8.06317e-21)
(-0.314996 -0.0875615 0)
(-0.798439 0.152594 1.68198e-21)
(-0.542856 0.493938 0)
(-0.796476 0.376149 -1.46915e-20)
(-0.562006 -0.0431242 -8.26015e-21)
(-0.228179 0.17243 -9.34673e-21)
(-0.742411 0.284611 0)
(-0.44586 -0.0059662 -1.10893e-20)
(-0.357886 0.265073 0)
(-0.753357 0.210132 0)
(-0.364825 -0.031755 0)
(-0.460056 0.373023 0)
(-0.638183 0.320787 -5.57364e-21)
(-0.520242 0.0923897 -1.0069e-20)
(-0.337209 0.16346 4.50514e-23)
(-0.438874 0.413895 1.82536e-20)
(-0.819158 0.205647 1.84122e-20)
(-0.385748 -0.0948797 1.21462e-20)
(-0.873426 0.362189 -8.76175e-21)
(-0.63218 -0.177815 1.28667e-20)
(-0.146313 0.16521 -1.3262e-20)
(-0.520222 -0.169561 1.81829e-20)
(-0.889955 0.278397 6.61267e-21)
(-0.264046 0.295792 9.70782e-21)
(-0.677856 0.529512 -1.3311e-20)
(-0.210485 -0.0190512 1.50591e-20)
(-0.731669 0.0745381 -1.13239e-20)
(-0.778742 0.507067 3.81287e-21)
(-0.771169 0.504535 -3.45296e-21)
(-0.701881 -0.0183979 -1.69522e-21)
(-0.715109 -0.0309847 0)
(-0.131337 0.0380861 -4.88883e-21)
(-0.142915 0.039423 -4.29252e-21)
(-0.0223563 0.0339025 -2.16822e-20)
(-0.70464 -0.251013 -1.47148e-20)
(-0.6808 0.370823 3.1535e-21)
(-0.713867 0.420405 -3.16597e-22)
(-0.0309529 0.033347 2.5361e-20)
(-0.774902 -0.210264 0)
(-0.80552 0.297794 -2.14085e-20)
(-0.479553 -0.0602451 -3.2196e-21)
(-0.313856 0.268737 0)
(-0.120971 0.128754 -2.70909e-20)
(-0.855056 0.3921 7.06517e-21)
(-0.669661 -0.169512 0)
(-0.725534 0.508652 1.88138e-20)
(-0.741595 0.505147 -1.41101e-20)
(-0.696394 0.0321168 8.69158e-21)
(-0.692622 0.0172159 3.333e-21)
(-0.181222 0.0216563 -8.48221e-21)
(-0.168881 0.0317458 -4.25104e-21)
(-0.128926 0.177982 0)
(-0.613374 -0.243798 0)
(-0.892311 0.311341 2.67758e-21)
(-0.654135 0.401765 -5.84468e-21)
(-0.0206154 0.0237419 0)
(-0.755704 -0.216074 0)
(-0.553832 0.187853 -6.26007e-23)
(-0.507391 0.261468 9.01773e-21)
(-0.412995 0.139146 4.55817e-21)
(-0.714282 0.388743 -1.0373e-20)
(-0.731324 -0.245196 6.73658e-21)
(-0.0288324 0.0414459 1.18726e-21)
(-0.651123 0.454383 0)
(-0.670853 0.0941765 -1.43232e-20)
(-0.243073 0.0305334 1.60757e-25)
(-0.868547 0.363411 8.43733e-23)
(-0.656758 -0.211 1.86222e-20)
(-0.117865 0.145167 7.34314e-24)
(-0.592921 -0.287397 4.04623e-22)
(-0.0172952 0.0347283 -9.21907e-21)
(-0.642736 0.291756 -4.97567e-21)
(-0.539286 0.364155 -8.58645e-21)
(-0.32839 0.0501099 8.44658e-21)
(-0.655168 0.16832 2.31498e-20)
(-0.626484 0.243461 0)
(-0.433977 0.0894762 -2.27755e-20)
(-0.429867 0.247268 1.16474e-20)
(-0.792652 0.428992 0)
(-0.0574958 0.0635118 1.27132e-20)
(-0.752055 -0.197428 8.38239e-24)
(-0.645096 0.246334 0)
(-0.423645 0.0743732 -8.04519e-21)
(-0.423219 0.259493 -1.64475e-20)
(-0.538777 0.192577 9.26123e-21)
(-0.500594 0.245228 -4.79281e-21)
(-0.431304 0.153431 2.39725e-21)
(-0.476456 0.458891 8.78195e-21)
(-0.828302 0.181276 -6.58695e-21)
(-0.364624 -0.111111 1.34241e-20)
(-0.620747 0.202073 0)
(-0.38394 0.0849552 0)
(-0.484955 0.300107 1.3484e-21)
(-0.647171 0.220182 1.12307e-20)
(-0.391347 0.0706926 6.21136e-21)
(-0.468653 0.298248 1.92042e-22)
(-0.657511 0.523773 2.02159e-20)
(-0.738709 0.0871289 -1.11274e-20)
(-0.226949 -0.0301697 -1.48614e-20)
(-0.0825433 0.0796807 1.91892e-20)
(-0.0842027 0.0868436 -1.94511e-20)
(-0.732657 -0.16359 5.50365e-21)
(-0.721074 -0.176036 3.82006e-21)
(-0.818773 0.43869 0)
(-0.826113 0.427815 -6.21487e-21)
(-0.878313 0.355843 1.07772e-20)
(-0.63692 -0.192357 -1.1572e-20)
(-0.137663 0.167061 1.64044e-20)
(-0.197646 -0.0281853 -9.64694e-21)
(-0.691199 0.547976 4.14086e-21)
(-0.743277 0.0642965 1.44427e-20)
(-0.570899 0.421363 -8.36484e-21)
(-0.293556 0.0118899 -8.86783e-21)
(-0.695157 0.144885 7.28188e-21)
(-0.862581 0.226039 0)
(-0.436928 -0.136115 8.84404e-21)
(-0.376838 0.383997 2.84073e-22)
(-0.614779 -0.295661 6.68244e-21)
(-0.0399203 0.0692209 -8.5738e-21)
(-0.758136 0.302707 -4.34026e-21)
(-0.184072 0.23403 0)
(-0.905398 0.298153 0)
(-0.579586 -0.21919 7.80802e-21)
(-0.796065 0.397222 5.32975e-21)
(-0.0549795 0.0724914 0)
(-0.727472 -0.231368 -6.72955e-21)
(-0.0119539 0.0255861 -3.40952e-32)
(-0.567359 -0.277973 -6.24961e-21)
(-0.591096 0.278637 5.02735e-21)
(-0.610049 -0.239059 6.99622e-21)
(-0.00967656 0.0188169 3.40165e-32)
(-0.565972 0.321679 -4.4708e-21)
(-0.521208 -0.0996001 -1.71958e-20)
(-0.841744 0.317507 0)
(-0.267103 0.248157 -2.49104e-20)
(-0.623579 -0.271183 -3.5942e-21)
(-0.0874383 0.132888 -8.75063e-21)
(-0.863523 0.310242 0)
(-0.844559 0.384726 -9.50035e-21)
(-0.60877 -0.112533 9.79306e-21)
(-0.179717 0.164954 1.30203e-20)
(-0.766205 0.479442 1.59149e-20)
(-0.0575082 0.0316233 7.77287e-21)
(-0.799301 -0.136566 0)
(-0.682252 0.328683 4.30259e-21)
(-0.318191 0.179794 -4.76207e-21)
(-0.511328 0.0551608 4.43071e-21)
(-0.604196 -0.236659 4.03826e-21)
(-0.14597 0.196505 9.22872e-21)
(-0.897767 0.307449 2.95565e-21)
(-0.851409 0.217338 -7.46433e-21)
(-0.399283 0.40077 -5.02973e-21)
(-0.419677 -0.125522 0)
(-0.486637 -0.135744 0)
(-0.864091 0.272473 0)
(-0.304075 0.31372 0)
(-0.0023802 0.0050086 0)
(-0.364093 -0.162784 -5.23645e-21)
(-0.339395 0.166763 3.6459e-21)
(-0.657723 -0.280557 6.66562e-21)
(-0.0222994 0.0405526 -1.11355e-20)
(-0.687594 0.343222 -5.29581e-21)
(-0.660588 0.315114 -1.10594e-20)
(-0.337782 0.182794 1.11974e-20)
(-0.503277 0.0715536 5.11408e-21)
(-0.637958 -0.233913 1.66118e-20)
(-0.880196 0.337604 -5.85044e-21)
(-0.113433 0.155295 0)
(-0.11971 0.172552 -9.69853e-21)
(-0.891879 0.304253 0)
(-0.608836 -0.257865 -1.24236e-20)
(-0.844325 0.413317 -6.46447e-21)
(-0.110684 0.111868 2.90689e-20)
(-0.685785 -0.157459 0)
(-0.104779 0.0484868 -2.20339e-20)
(-0.732986 -0.0763505 8.42291e-21)
(-0.796062 0.494088 0)
(-0.64161 0.536811 -2.54593e-20)
(-0.759008 0.0963925 1.41781e-20)
(-0.241527 -0.049447 -4.72801e-21)
(-0.709478 -0.000734312 2.53197e-21)
(-0.755197 0.519791 8.16385e-21)
(-0.152419 0.0246138 -1.34055e-20)
(-0.0852708 0.0298997 -1.97934e-20)
(-0.783246 0.505872 0)
(-0.771541 -0.089181 0)
(-0.676517 0.435176 -3.99551e-21)
(-0.698528 0.449026 0)
(-0.632813 0.0746418 -1.4919e-20)
(-0.640172 0.058394 1.59488e-20)
(-0.239089 0.066518 2.25489e-21)
(-0.221832 0.0631029 -2.40418e-21)
(-0.654694 0.437638 3.83371e-21)
(-0.648521 0.0915448 0)
(-0.249276 0.0513685 4.33564e-21)
(-0.715026 0.523159 0)
(-0.712005 0.0411579 -1.40419e-20)
(-0.183959 0.00631556 3.06023e-21)
(-0.510841 -0.154326 -8.99337e-21)
(-0.879632 0.280324 6.80109e-21)
(-0.274211 0.293546 -1.99873e-20)
(-0.624342 -0.2086 0)
(-0.882663 0.342538 1.63153e-20)
(-0.140249 0.177345 0)
(-0.237447 0.254013 -6.45132e-21)
(-0.877888 0.306832 -4.34111e-21)
(-0.544437 -0.154833 -5.88582e-21)
(-0.649779 -0.23821 -9.60946e-22)
(-0.0116048 0.0207688 5.94374e-21)
(-0.595451 0.344917 0)
(-0.585945 0.369089 7.7131e-21)
(-0.595654 0.358674 0)
(-0.310725 0.0799538 0)
(-0.616272 0.138274 2.84158e-20)
(-0.315886 0.0979935 0)
(-0.595525 0.128899 -1.80376e-20)
(-0.686157 0.503602 0)
(-0.6628 0.489975 0)
(-0.226693 0.00759833 3.29355e-23)
(-0.701924 0.0680088 8.69322e-21)
(-0.210744 0.010222 2.23371e-20)
(-0.699331 0.0829999 -1.83342e-20)
(-0.56982 -0.296863 0)
(-0.0215821 0.0428042 1.25353e-20)
(-0.670405 0.279995 0)
(-0.640366 -0.225004 -9.7725e-21)
(-0.88039 0.344845 1.79034e-21)
(-0.118516 0.154191 5.83386e-21)
(-0.578866 0.458519 -1.4438e-20)
(-0.285537 -0.0237254 -1.02024e-20)
(-0.732144 0.139185 2.41141e-20)
(-0.474426 -0.158311 1.94814e-20)
(-0.882046 0.245507 1.7756e-20)
(-0.325725 0.352346 0)
(-0.111327 0.0429895 2.35613e-20)
(-0.730355 -0.0637183 -8.96189e-21)
(-0.791362 0.500911 8.91727e-21)
(-0.68789 -0.27098 0)
(-0.766407 0.361432 0)
(-0.039006 0.062788 0)
(-0.680309 -0.267669 0)
(-0.792618 0.355574 4.88341e-21)
(-0.0502456 0.0783222 2.12082e-21)
(-0.745537 0.488553 -7.80028e-21)
(-0.673381 0.0114194 5.06138e-21)
(-0.172892 0.0484616 6.29215e-21)
(-0.497482 0.362746 -2.25774e-21)
(-0.347617 0.0162067 0)
(-0.697491 0.196212 -9.68589e-23)
(-0.837925 0.41469 7.53236e-21)
(-0.0982074 0.101948 1.69769e-20)
(-0.703054 -0.169999 -4.44976e-21)
(-0.523432 -0.1183 0)
(-0.854398 0.312053 0)
(-0.261436 0.259581 2.14654e-20)
(-0.135533 0.107351 5.47562e-21)
(-0.667277 -0.10015 1.35165e-20)
(-0.82505 0.436487 1.99211e-20)
(-0.64587 0.490184 0)
(-0.238047 -0.0036184 -1.49064e-20)
(-0.7098 0.0945211 9.34758e-21)
(-0.778929 0.24289 1.0145e-22)
(-0.406727 -0.0464546 8.66809e-21)
(-0.402311 0.33867 0)
(-0.551722 0.396297 1.37292e-22)
(-0.310086 0.0218568 -2.89281e-21)
(-0.685273 0.158244 -9.54315e-21)
(-0.0969428 0.109907 3.83019e-24)
(-0.695788 -0.190902 1.05671e-20)
(-0.844044 0.398307 8.38726e-21)
(-0.804173 0.44865 -3.66388e-21)
(-0.657304 -0.0607697 -3.96357e-21)
(-0.15207 0.0972558 0)
(-0.54894 0.354608 -8.36502e-21)
(-0.331239 0.0687284 1.8141e-20)
(-0.63308 0.162567 -1.5256e-20)
(-0.775617 0.501763 6.23553e-21)
(-0.0732592 0.0264191 8.82771e-21)
(-0.787981 -0.105308 -6.3946e-21)
(-0.647782 0.398556 -4.84982e-21)
(-0.606368 0.0911556 0)
(-0.270388 0.0860049 0)
(-0.693832 0.267391 -2.00928e-20)
(-0.432831 0.0363212 5.00456e-21)
(-0.390979 0.262002 0)
(-0.487559 -0.11582 0)
(-0.850623 0.281365 1.40231e-20)
(-0.301171 0.298541 0)
(-0.738775 0.444198 -3.46302e-21)
(-0.0398793 0.0344086 -2.72745e-21)
(-0.795409 -0.184325 7.37572e-21)
(-0.739949 0.457869 9.56967e-21)
(-0.0421001 0.0306208 0)
(-0.803911 -0.167132 -7.026e-21)
(-0.126388 0.0918388 5.0158e-21)
(-0.683313 -0.0945267 -8.05549e-21)
(-0.818336 0.449966 -1.82878e-20)
(-0.794491 0.227188 -6.61468e-21)
(-0.398574 -0.0664048 -8.69096e-21)
(-0.417028 0.364821 0)
(-0.0305254 0.0276242 2.49876e-21)
(-0.794407 -0.196996 -6.89525e-21)
(-0.703587 0.431422 0)
(-0.166491 0.161944 0)
(-0.620329 -0.131899 -8.27273e-21)
(-0.853561 0.380708 -2.2909e-21)
(-0.00862568 0.0194395 1.00163e-20)
(-0.488207 -0.267816 7.00886e-21)
(-0.526431 0.227515 0)
(-0.480531 0.295552 -5.05785e-21)
(-0.55902 -0.203837 0)
(-0.00606927 0.0109028 1.00395e-20)
(-0.0917165 0.0415997 1.88597e-23)
(-0.754253 -0.0917652 0)
(-0.79139 0.496384 0)
(-0.0768665 0.100922 0)
(-0.696592 -0.225334 0)
(-0.836838 0.384821 1.11836e-20)
(-0.81872 0.446815 -6.62279e-21)
(-0.823821 0.44526 5.3579e-21)
(-0.0906096 0.0760186 -9.62058e-21)
(-0.728144 -0.139226 -1.80268e-21)
(-0.102363 0.084749 -1.55718e-20)
(-0.709078 -0.128534 3.2413e-21)
(-0.861844 0.365006 4.43046e-21)
(-0.605791 -0.140607 5.45589e-21)
(-0.177266 0.179738 0)
(-0.359574 0.38595 0)
(-0.450548 -0.156402 0)
(-0.879604 0.22816 0)
(-0.593654 0.327422 0)
(-0.340938 0.128035 -2.46756e-20)
(-0.561073 0.128413 9.93757e-21)
(-0.866807 0.332742 1.26724e-20)
(-0.565211 -0.140703 2.00329e-21)
(-0.215384 0.222474 1.90474e-20)
(-0.235812 0.242245 1.23798e-20)
(-0.866857 0.320127 -1.76228e-20)
(-0.547386 -0.138762 -2.78041e-21)
(-0.777278 0.522833 7.08046e-21)
(-0.0921537 0.0198343 9.47514e-21)
(-0.772862 -0.0691051 1.39224e-20)
(-0.691254 0.516495 0)
(-0.71331 0.0631229 4.17077e-21)
(-0.202582 0.000633968 -2.18929e-20)
(-0.668302 0.469186 0)
(-0.67824 0.0822215 1.88131e-20)
(-0.229569 0.0248589 2.97931e-23)
(-0.831284 0.346199 -1.64359e-20)
(-0.548533 -0.0885004 2.41183e-21)
(-0.237642 0.210257 -1.08086e-20)
(-0.842076 0.337056 0)
(-0.544412 -0.10196 2.26466e-21)
(-0.24085 0.222213 9.94201e-21)
(-0.533314 0.333338 0)
(-0.349928 0.0814834 -2.86438e-20)
(-0.620951 0.17233 8.55883e-21)
(-0.701034 0.463013 0)
(-0.653783 0.053582 0)
(-0.211699 0.049282 3.27536e-21)
(-0.160443 0.217233 -1.99789e-20)
(-0.586801 -0.239556 -2.20217e-20)
(-0.907369 0.295239 0)
(-0.805956 0.336248 6.61329e-21)
(-0.0535916 0.0862467 0)
(-0.651428 -0.279978 4.8139e-21)
(-0.79373 0.31317 -1.40313e-22)
(-0.0501669 0.0837147 0)
(-0.629569 -0.288014 -1.3826e-20)
(-0.607632 0.419012 5.77653e-21)
(-0.277333 0.0426692 -3.15383e-21)
(-0.657844 0.122223 -1.30346e-22)
(-0.662342 -0.280739 1.92657e-22)
(-0.0314851 0.0542758 1.70305e-20)
(-0.738046 0.341263 0)
(-0.808762 0.458826 1.57414e-20)
(-0.134102 0.0861587 1.05339e-20)
(-0.67958 -0.0740369 0)
(-0.0317235 0.0572088 -2.52692e-21)
(-0.622269 -0.295002 -7.4969e-21)
(-0.730458 0.30986 0)
(-0.613885 0.264773 1.37824e-20)
(-0.407222 0.215442 1.48055e-20)
(-0.465176 0.106042 7.40336e-23)
(-0.751736 0.381187 -2.43533e-21)
(-0.557016 0.00384211 -2.45623e-21)
(-0.24903 0.153016 -1.11739e-20)
(-0.376922 -0.0574385 1.97832e-20)
(-0.781619 0.213096 1.55496e-20)
(-0.445893 0.382245 0)
(-0.0987077 0.144226 0)
(-0.627287 -0.260202 -4.49769e-21)
(-0.873923 0.318405 0)
(-0.509732 -0.125065 0)
(-0.858221 0.29864 0)
(-0.275477 0.276253 0)
(-0.0685396 0.0358891 0)
(-0.779985 0.485333 -5.82451e-21)
(-0.785207 -0.122269 6.26665e-21)
(-0.771578 0.386688 0)
(-0.56383 -0.0167127 1.21655e-21)
(-0.235346 0.155701 1.09322e-20)
(-0.582946 0.312771 0)
(-0.358304 0.139069 2.11718e-20)
(-0.549981 0.134731 0)
(-0.648253 -0.246511 -1.57194e-20)
(-0.865534 0.341158 5.55734e-21)
(-0.0970967 0.136451 0)
(-0.143978 0.131328 -1.14984e-20)
(-0.649344 -0.126527 5.26511e-22)
(-0.842229 0.408035 2.00239e-22)
(-0.766401 0.426705 0)
(-0.752941 0.419873 6.44692e-21)
(-0.0457674 0.0502792 -6.25958e-21)
(-0.0402965 0.0478433 -7.70228e-21)
(-0.766469 -0.202394 -4.52698e-21)
(-0.762657 -0.215006 3.72215e-21)
(-0.768684 0.301192 0)
(-0.467268 -0.0280833 3.31974e-20)
(-0.327275 0.254582 1.17866e-20)
(-0.501148 -0.0830595 2.41263e-20)
(-0.827183 0.308113 0)
(-0.282892 0.256691 -1.30436e-20)
(-0.670428 0.285319 -1.13367e-20)
(-0.46154 0.0573424 8.54297e-21)
(-0.367038 0.224125 1.81803e-20)
(-0.650432 -0.272828 1.04839e-20)
(-0.83581 0.334861 7.12224e-21)
(-0.633182 -0.278047 -5.0043e-21)
(-0.0677837 0.104699 0)
(-0.842863 0.318252 -6.87794e-21)
(-0.0729481 0.112693 0)
(-0.806919 0.398279 0)
(-0.590728 -0.0590036 0)
(-0.201987 0.15238 1.22317e-20)
(-0.854042 0.352396 9.83077e-21)
(-0.840564 0.348573 -1.83351e-20)
(-0.664742 -0.24629 6.87778e-21)
(-0.66685 -0.258674 -1.72253e-20)
(-0.0838327 0.119395 1.71563e-20)
(-0.071788 0.105892 4.49464e-25)
(-0.819719 0.297699 0)
(-0.481246 -0.0796545 -2.22147e-20)
(-0.309186 0.280899 1.69252e-20)
(-0.738527 0.330431 1.06246e-20)
(-0.513553 -0.000955165 -1.47825e-20)
(-0.283876 0.193526 0)
(-0.766236 0.466838 0)
(-0.0530474 0.0374015 0)
(-0.793144 -0.15544 6.74982e-21)
(-0.767304 0.316604 7.80564e-21)
(-0.485128 -0.0215017 -9.22378e-21)
(-0.308607 0.233988 -1.95983e-20)
(-0.695448 0.300145 4.56091e-21)
(-0.471935 0.0377047 -1.00156e-20)
(-0.346534 0.219083 1.06661e-20)
(-0.757358 0.438732 0)
(-0.046331 0.0435478 0)
(-0.782606 -0.189074 -9.29781e-21)
(-0.770336 0.40359 0)
(-0.586985 -0.0146956 2.61756e-21)
(-0.214231 0.13362 -1.21655e-20)
(-0.406087 -0.13155 0)
(-0.853672 0.205566 0)
(-0.421294 0.427103 -6.48622e-22)
(-0.641633 0.503433 -6.50197e-22)
(-0.726193 0.0984087 0)
(-0.238612 -0.0189592 2.31899e-20)
(-0.527069 -0.198664 1.0557e-20)
(-0.251921 0.303237 0)
(-0.907095 0.266221 0)
(-0.00509439 0.0108647 -2.41135e-20)
(-0.472547 -0.211231 7.32965e-21)
(-0.449365 0.227037 -5.10348e-21)
(-0.77131 0.349873 0)
(-0.521509 -0.0173391 9.08169e-21)
(-0.270532 0.19403 -1.0042e-20)
(-0.795663 0.457604 1.09482e-20)
(-0.0676891 0.0563506 3.2557e-20)
(-0.762741 -0.151507 0)
(-0.276878 -0.0684448 -6.20443e-21)
(-0.779166 0.12513 -9.22137e-21)
(-0.592657 0.518495 -5.81038e-21)
(-0.580359 0.362238 0)
(-0.0120335 0.0172973 -9.04784e-21)
(-0.688819 -0.223054 0)
(-0.455256 0.320671 1.12521e-20)
(-0.463084 0.34223 -1.15264e-20)
(-0.377523 0.0262388 0)
(-0.692337 0.220313 9.74402e-21)
(-0.368362 0.008159 -1.85396e-20)
(-0.711506 0.211931 -7.84283e-21)
(-0.667162 0.267648 1.06619e-20)
(-0.440096 0.0600039 1.1292e-20)
(-0.394103 0.24623 0)
(-0.511822 0.352237 9.89858e-21)
(-0.484169 0.33158 0)
(-0.343883 0.0408348 -1.02611e-20)
(-0.668716 0.185377 8.74778e-21)
(-0.362148 0.0443798 1.03372e-20)
(-0.668551 0.202105 7.44929e-23)
(-0.755294 0.346047 6.74031e-22)
(-0.493424 0.00735998 -6.41655e-21)
(-0.309501 0.211503 -1.31779e-20)
(-0.74368 0.318524 -1.82516e-20)
(-0.483095 0.000243253 1.70306e-22)
(-0.320246 0.227326 0)
(-0.0606252 0.0997449 0)
(-0.615925 -0.291016 0)
(-0.820873 0.30417 7.36919e-21)
(-0.633039 0.420356 -5.32592e-21)
(-0.643012 0.107052 0)
(-0.266185 0.0554425 5.84481e-21)
(-0.851565 0.369979 -1.77945e-20)
(-0.676691 -0.229387 7.90361e-21)
(-0.0867552 0.117348 -9.79248e-21)
(-0.832293 0.364458 0)
(-0.843091 0.368606 9.14454e-21)
(-0.571629 -0.0904581 -3.00466e-21)
(-0.586908 -0.105813 9.64002e-21)
(-0.213068 0.188434 -1.35042e-20)
(-0.198256 0.182816 -1.25758e-20)
(-0.630471 0.400398 0)
(-0.62187 0.105995 0)
(-0.277381 0.0738007 2.74422e-21)
(-0.71627 0.492441 6.28491e-21)
(-0.680937 0.0420683 0)
(-0.193729 0.0318516 7.29796e-21)
(-0.805531 0.365995 -4.70854e-21)
(-0.552753 -0.0582863 0)
(-0.232312 0.187375 0)
(-0.538114 0.275831 1.08659e-20)
(-0.544831 0.165356 -5.33013e-21)
(-0.39501 0.14496 5.69015e-21)
(-0.854786 0.344497 0)
(-0.566446 -0.122083 0)
(-0.216473 0.211946 -2.02511e-20)
(-0.575514 0.33473 0)
(-0.337392 0.108351 3.13443e-21)
(-0.584663 0.142456 0)
(-0.81281 0.317961 -1.0537e-20)
(-0.500199 -0.0688024 -1.23742e-20)
(-0.288109 0.247083 -1.68872e-21)
(-0.720184 0.473872 6.34062e-21)
(-0.661773 0.0366076 0)
(-0.196755 0.0480663 1.49962e-20)
(-0.548053 0.29642 -1.07749e-20)
(-0.533956 0.301287 -4.82571e-21)
(-0.559966 0.157508 5.21811e-21)
(-0.374985 0.131427 -1.12377e-20)
(-0.582101 0.167872 0)
(-0.371166 0.114632 -2.00855e-20)
(-0.507323 0.318085 -4.91027e-21)
(-0.363469 0.0738944 1.33833e-20)
(-0.487657 0.320846 3.16263e-21)
(-0.629842 0.187565 -1.18138e-20)
(-0.371468 0.0565009 -6.4146e-21)
(-0.655713 0.203743 2.17358e-22)
(-0.673905 0.417366 5.75128e-21)
(-0.697522 0.415018 0)
(-0.612527 0.0730993 1.1039e-20)
(-0.601399 0.0562887 -8.61457e-21)
(-0.249388 0.0836705 -1.30107e-20)
(-0.243109 0.0973911 2.16518e-20)
(-0.111986 0.0631863 0)
(-0.713795 -0.080486 -4.95479e-21)
(-0.803493 0.477756 -9.43887e-21)
(-0.445786 0.433319 7.85462e-21)
(-0.834473 0.1978 1.03906e-20)
(-0.386803 -0.113254 -2.10938e-20)
(-0.102797 0.0657867 -1.09692e-20)
(-0.108653 0.0789882 8.76232e-21)
(-0.721117 -0.100739 4.28288e-21)
(-0.705654 -0.109156 7.35956e-21)
(-0.808149 0.471738 2.41464e-20)
(-0.817782 0.457107 -1.2568e-20)
(-0.534459 0.46037 1.06511e-20)
(-0.316191 -0.0549794 -9.78145e-21)
(-0.769536 0.161318 2.30637e-21)
(-0.526772 0.24088 1.8285e-20)
(-0.436219 0.178064 0)
(-0.508308 0.172107 -1.82432e-20)
(-0.853912 0.358606 -4.39325e-21)
(-0.585668 -0.123389 -1.08837e-20)
(-0.198241 0.19311 0)
(-0.602157 0.385466 0)
(-0.293522 0.0679946 -2.61608e-21)
(-0.626549 0.126625 -9.22963e-21)
(-0.732925 0.473074 0)
(-0.658222 0.0254 0)
(-0.188899 0.0558071 -1.39744e-20)
(-0.788515 0.49484 -1.01627e-20)
(-0.792852 0.481071 0)
(-0.70952 -0.0489444 2.60182e-21)
(-0.12664 0.051382 -1.33707e-20)
(-0.693019 -0.0499926 -7.09929e-21)
(-0.133834 0.0647543 1.80853e-20)
(-0.821125 0.390443 8.909e-21)
(-0.594677 -0.0763054 1.00904e-20)