/*--------------------------------*- C++ -*----------------------------------*\
  =========                 |
  \\      /  F ield         | OpenFOAM: The Open Source CFD Toolbox
   \\    /   O peration     | Website:  https://openfoam.org
    \\  /    A nd           | Version:  6
     \\/     M anipulation  |
\*---------------------------------------------------------------------------*/
FoamFile
{
    version     2.0;
    format      ascii;
    class       volScalarField;
    location    "0";
    object      P_rec;
}
// * * * * * * * * * * * * * * * * * * * * * * * * * * * * * * * * * * * * * //

dimensions      [0 2 -2 0 0 0 0];

internalField   nonuniform List<scalar> 
918
(
1.94528
0.504313
0.135932
1.94183
-0.00349633
0.446907
-0.126758
1.32992
1.9598
0.346361
0.27176
1.57706
0.488079
0.420597
-0.453655
0.112207
1.55256
-0.39086
1.67087
0.131522
0.658242
1.99216
1.87932
1.69544
1.56004
0.323046
0.538744
0.00912355
-0.0458063
-0.0322873
-0.0100558
0.0551838
0.0232283
0.700149
0.466821
0.437317
1.64336
0.975685
0.0675658
0.0386845
-0.014672
-0.310482
1.37009
1.39863
0.636921
1.28057
1.22327
1.67869
1.93076
1.95995
1.88936
1.95056
1.98456
0.701895
0.313463
0.262835
0.358214
0.336889
0.364412
0.278667
0.275481
0.297061
0.242183
1.5187
1.57502
1.57656
1.58402
1.56401
0.500308
0.357321
0.378414
0.51413
0.577564
0.38502
0.554747
0.385985
0.450091
0.338472
0.31241
-0.5348
-1.01926
-0.110997
-0.0807204
0.0326289
0.121919
0.147375
1.55462
1.5609
1.52413
1.5289
1.09552
-0.218928
-0.439971
1.75397
1.73345
1.9415
1.8729
1.7599
1.68474
0.131002
0.12612
0.0767295
0.142244
0.107306
0.71795
0.852608
1.62721
1.69294
1.54845
1.55107
1.55153
1.2701
1.59648
1.57923
0.233794
0.486012
0.276386
0.403757
0.559012
0.494699
0.690483
0.794385
-0.0617538
-0.00926384
0.117638
0.0228329
0.0766764
1.63324
1.61076
1.65514
1.65211
1.67534
0.883524
0.792899
1.05286
1.13252
0.256368
0.240207
-0.274947
-0.221543
-0.452693
1.42929
1.41865
1.45875
0.461105
0.622695
0.436002
0.766797
0.738035
1.6886
1.66825
1.67214
1.70258
1.69194
1.70578
1.94949
1.9421
1.97553
0.683698
0.755285
0.703828
0.6236
0.0196449
0.175606
0.00132815
0.348038
0.348979
0.341774
0.41426
0.420642
0.341938
0.306592
0.289627
0.308996
0.171028
0.178507
1.52734
1.49285
1.51461
1.53914
1.62549
1.61183
1.58635
1.60739
0.687765
0.650002
0.573918
0.540894
-1.55146
-3.06015
-0.0438609
0.0349844
0.020397
0.012576
0.00592859
-0.0926697
0.000462819
-0.0535167
0.276353
0.231289
0.148989
0.206296
1.56184
1.58675
1.13427
1.18759
0.989298
1.01184
1.69945
1.72184
1.72962
1.72571
0.202508
0.124386
0.17267
1.15745
0.978847
1.06313
1.23573
1.12331
1.32584
1.38806
1.58062
1.58934
1.60182
0.205979
0.368575
0.924759
0.556968
0.937913
0.709174
0.510557
0.422383
0.564758
1.55102
1.5983
1.58304
1.67513
1.66127
1.67489
1.64105
1.64005
1.64014
0.634041
0.412614
1.33334
1.30076
1.17844
1.27568
1.43091
1.42383
1.51287
1.46871
1.49445
0.902705
0.902813
0.555841
0.516053
1.43763
1.45219
1.44109
0.55184
0.458984
0.529656
0.504357
0.470657
0.571703
0.452009
-0.42348
0.0248361
0.174606
0.0971146
0.141147
0.262459
0.349147
0.308391
1.14627
1.22349
0.791087
0.958684
0.902775
0.231493
0.299511
0.475659
0.303456
0.327506
0.476687
0.388941
1.33771
1.3057
1.36031
1.35105
1.3854
1.06166
1.00267
0.962008
0.470847
0.463536
0.458969
1.24309
1.30724
1.30101
1.63918
1.66421
-0.0431878
0.0310268
1.84613
1.86085
-0.0301684
0.00668276
0.162792
0.0459677
1.00421
1.734
1.66322
1.7926
0.338865
0.631349
0.265128
0.282254
0.163673
1.55038
1.4914
1.42678
-0.044811
0.117501
0.110912
0.134245
1.75314
1.7222
1.76427
1.77921
1.82109
0.0143763
0.0130046
0.081773
0.00408032
0.115715
0.124706
1.65468
1.62276
0.329466
1.74652
1.78271
1.80294
1.77567
1.80048
1.78689
0.042893
0.105133
0.115192
1.15455
1.31621
0.302372
0.352046
0.193196
0.122083
-0.0114061
0.268606
0.317775
0.276081
0.372447
1.40662
1.29487
1.09532
0.869489
1.06882
1.05768
1.70826
1.73187
1.69251
1.71452
1.76159
1.69769
1.79371
1.73787
1.74787
1.81183
0.386328
0.3924
0.442795
0.309033
0.78367
0.778675
0.64828
0.699276
0.453589
0.200708
0.266934
0.23952
0.289751
0.292846
0.368697
0.23897
0.440277
0.183995
0.327196
0.190821
0.368187
0.17723
1.53435
1.56859
1.5333
1.58672
1.55907
1.57493
1.51687
1.51987
1.56123
1.44065
1.45197
1.47023
0.0524346
0.0417136
0.0814384
0.163423
0.170864
-0.00574782
-0.0447753
-0.0161729
0.0313454
-0.0510375
0.111538
0.103669
0.277176
0.0592758
1.06976
0.914664
0.806829
1.68955
1.75097
1.70306
1.7671
1.81051
1.86728
1.8096
1.7436
1.64272
1.66777
1.615
1.64044
0.393142
0.324595
0.558134
0.48602
1.05944
1.55835
1.35839
1.31448
1.31185
1.43777
0.395472
0.1594
0.360146
0.303753
0.0610653
-0.0022276
-0.0146171
0.264069
0.431409
0.199092
0.380777
0.481629
0.365677
0.297298
0.742999
1.37397
0.707108
0.726811
1.00755
0.927561
0.740107
1.43827
1.46109
1.25089
1.18667
1.37435
1.33421
1.34444
1.35588
1.37592
1.366
1.1871
1.20125
1.13368
1.49765
1.39148
1.40367
1.31739
1.71872
1.73612
1.70023
1.68316
1.7406
1.67849
1.65346
1.62964
1.65737
1.70805
1.70736
1.6717
0.408888
0.377202
0.399192
0.233895
0.377055
0.284488
0.407883
0.624605
0.460458
0.655509
0.843681
0.664067
0.330451
0.547038
0.461315
0.726668
0.611431
0.544632
0.527195
0.59311
0.548752
0.638585
0.579954
0.342524
0.370943
0.397114
0.261408
0.475216
0.42053
0.50841
0.288784
0.373298
0.277547
0.206425
0.364272
0.510552
0.438721
0.412503
0.131396
0.131936
0.0136147
0.066626
0.442836
0.216109
1.63681
1.59844
1.61002
1.5484
1.59713
1.5769
1.49029
1.63212
1.64809
1.62018
1.52214
1.49678
1.48025
1.52326
1.54132
1.53633
1.6652
1.64003
1.55174
1.59699
1.49396
1.52306
1.4309
1.45865
1.51014
-0.0865302
0.0365193
-0.0403762
-0.0334472
0.0503392
0.110459
0.295653
0.188713
0.339507
0.256149
0.243255
0.0846363
0.147005
0.495565
0.6454
0.364167
0.230083
0.128346
1.11105
1.17265
1.02324
0.967477
1.0609
1.04834
1.0919
0.846669
0.839376
0.921256
1.31735
1.29649
1.70109
1.68197
1.72729
1.73276
1.70741
0.555939
0.770281
0.875194
0.997271
1.08266
1.05279
0.935044
0.944774
1.02781
1.01731
1.52695
1.54385
1.55006
1.58065
1.58888
1.3601
1.44485
1.47933
1.48835
1.46885
1.47819
1.49403
1.46133
1.44005
1.46247
1.46249
1.43183
1.45108
1.4212
1.44409
1.52987
1.51376
1.5245
1.51685
1.58538
1.49983
1.54904
1.60788
1.55105
1.45373
1.43577
1.45781
1.46199
1.48331
1.46893
1.4543
1.06221
1.23038
0.964893
0.83273
0.957455
0.787169
0.720933
0.871455
0.887929
0.566482
0.583419
0.273797
1.28337
0.369098
0.448589
-0.0230517
1.13716
1.18508
1.11922
0.95161
1.01677
1.46969
1.48745
1.50249
1.33775
1.30643
1.2792
1.28469
1.40203
1.28856
1.23662
1.2732
1.0842
1.15908
1.30177
1.24618
1.20479
1.26049
1.3198
1.24291
1.2467
1.33581
1.33703
1.37162
1.3968
1.44031
1.46739
1.41153
1.29977
1.36128
1.33111
1.38799
1.42428
1.39944
1.70044
1.6747
1.68376
1.66904
1.65641
1.68071
1.63047
1.70668
1.72924
1.75289
1.72748
0.323574
0.359728
0.399789
0.296336
0.547266
0.463809
0.361328
0.352902
0.468325
0.447244
0.408895
0.391959
0.534592
0.461324
0.590079
0.641161
0.595031
0.523283
0.770437
0.834339
0.818845
0.840649
0.741884
0.719045
0.791514
0.38971
0.434266
0.388672
0.349722
0.404158
0.218848
0.332582
0.264984
0.347222
0.323805
-0.00706996
0.199246
0.286887
0.0598493
0.169045
0.21298
1.60959
1.58025
1.51877
1.48124
1.51883
1.51838
1.61943
1.62439
1.64992
1.63757
1.63181
1.60231
1.62322
0.0856574
0.236336
0.266997
0.284669
0.140157
0.0826984
0.102611
0.928574
0.741383
0.822992
0.631791
0.458902
0.529279
1.17009
1.31339
1.26655
1.32548
1.1984
1.16862
1.29902
1.37563
1.10116
1.13026
1.06955
1.18326
1.21461
1.23676
1.15723
0.933977
1.05013
1.28102
0.895742
0.836807
1.07077
1.04272
1.04932
1.04776
1.19053
1.08087
1.08198
1.17645
1.05671
1.13562
1.1772
1.1315
1.20074
0.86573
0.947003
0.847662
1.47384
1.5132
1.53963
1.50061
1.52136
1.52271
1.54174
1.56022
1.59176
1.57913
0.26405
0.448466
-0.279122
0.262649
0.52287
1.34709
1.00298
1.47496
1.44507
0.995184
1.16121
1.31736
1.3131
1.37218
1.31394
1.26338
1.34274
1.29481
1.31776
1.21784
1.12693
1.44559
1.44467
1.43142
1.45451
1.42578
1.45529
1.56562
1.62075
1.60298
1.65543
1.67363
1.69881
0.58915
0.52254
0.599314
0.599169
0.615308
0.599968
0.0415044
0.0920608
0.36427
0.254236
0.180454
0.286475
0.863551
0.88342
0.737408
0.820357
0.650528
0.478674
0.493185
0.572757
0.720658
0.820622
1.11516
1.13971
1.11555
1.15094
1.09217
1.19522
1.23838
1.2267
1.26507
1.20841
1.20939
0.987776
0.674147
0.767165
1.20468
1.62887
1.48368
1.27302
0.83513
0.949467
1.39174
1.32398
1.311
1.37917
1.33121
0.859654
0.91896
0.895847
0.843358
1.08022
0.970484
0.960381
0.928971
0.938407
)
;

boundaryField
{
    wall-4
    {
        type            calculated;
        value           nonuniform List<scalar> 
100
(
1.94528
0.504313
0.135932
1.94183
0.446907
-0.126758
1.32992
0.346361
0.27176
1.57706
0.488079
0.420597
-0.453655
1.55256
-0.39086
1.67087
0.131522
0.658242
1.69544
1.56004
0.323046
0.538744
0.00912355
0.700149
1.64336
0.0386845
-0.310482
1.39863
0.636921
1.22327
1.67869
0.262835
0.336889
0.275481
0.242183
1.5187
1.57656
1.56401
0.577564
0.554747
0.450091
0.31241
-1.01926
-0.0807204
1.5609
1.5289
-0.439971
1.73345
1.68474
0.12612
0.107306
0.852608
1.69294
1.55153
1.2701
1.57923
0.233794
0.403757
0.494699
0.794385
1.61076
1.65514
1.67534
0.240207
-0.452693
1.45875
0.436002
0.738035
1.67214
1.70578
0.00132815
0.348979
0.308996
0.178507
1.49285
1.53914
1.62549
1.60739
0.540894
0.0349844
1.58675
1.69945
1.72571
0.17267
1.06313
1.12331
1.38806
1.60182
0.368575
0.709174
1.58304
1.67489
1.64014
1.49445
0.902813
1.44109
0.504357
0.141147
0.327506
0.962008
)
;
    }
    velocity-inlet-5
    {
        type            calculated;
        value           nonuniform List<scalar> 8(1.94528 1.94183 1.9598 1.99216 1.95995 1.98456 1.9415 1.97553);
    }
    velocity-inlet-6
    {
        type            calculated;
        value           nonuniform List<scalar> 4(0.504313 0.446907 0.437317 0.378414);
    }
    pressure-outlet-7
    {
        type            calculated;
        value           uniform 0;
    }
    wall-8
    {
        type            calculated;
        value           nonuniform List<scalar> 
34
(
-0.00349633
0.112207
0.0232283
0.975685
0.701895
0.364412
0.147375
1.09552
0.0766764
0.792899
1.13252
1.42929
0.755285
0.6236
0.41426
0.341938
-3.06015
0.276353
0.206296
1.18759
1.01184
0.412614
1.33334
1.27568
1.42383
0.516053
0.0248361
0.308391
1.22349
0.902775
1.36031
1.3854
0.458969
1.30101
)
;
    }
    frontAndBackPlanes
    {
        type            empty;
    }
}

