/*--------------------------------*- C++ -*----------------------------------*\
  =========                 |
  \\      /  F ield         | OpenFOAM: The Open Source CFD Toolbox
   \\    /   O peration     | Website:  https://openfoam.org
    \\  /    A nd           | Version:  6
     \\/     M anipulation  |
\*---------------------------------------------------------------------------*/
FoamFile
{
    version     2.0;
    format      ascii;
    class       volVectorField;
    location    "0";
    object      U;
}
// * * * * * * * * * * * * * * * * * * * * * * * * * * * * * * * * * * * * * //

dimensions      [0 1 -1 0 0 0 0];

internalField   nonuniform List<vector> 
13046
(
(0.405387 0.115268 0)
(0.576824 -0.196337 2.97758e-21)
(0.212408 -0.132842 6.63905e-21)
(0.404421 0.0384203 0)
(0.187739 -0.0645021 6.11877e-21)
(0.493852 -0.207407 0)
(0.440743 0.0593081 -9.06259e-22)
(0.540269 -0.241341 -1.5113e-21)
(0.161531 -0.0535645 6.709e-21)
(0.86594 0.368331 -2.3175e-21)
(0.992235 -0.443737 0)
(-0.0221203 -0.0297824 -4.10013e-21)
(0.511881 0.154517 5.729e-21)
(0.674377 -0.265417 4.40461e-21)
(0.137174 -0.101136 -3.60843e-21)
(0.814256 0.410896 -1.2955e-21)
(0.0185194 -0.0609902 -6.54074e-21)
(1.03992 -0.373532 -1.30386e-21)
(0.242856 0.00438939 0)
(0.375247 -0.185538 3.29169e-21)
(0.426677 -0.0523037 -9.47468e-21)
(0.825421 0.403315 1.31249e-21)
(0.00711601 -0.0527153 1.30987e-20)
(1.03136 -0.389492 -3.61324e-22)
(0.360375 0.0486123 -3.84071e-21)
(0.48871 -0.168215 5.61495e-21)
(0.22822 -0.111314 0)
(0.517967 0.181796 -1.20061e-22)
(0.698179 -0.262117 -1.30126e-21)
(0.142372 -0.115307 1.24886e-20)
(0.408499 0.135091 0)
(0.599857 -0.185008 0)
(0.223015 -0.151932 -6.7567e-21)
(0.333873 0.0217712 1.34658e-20)
(0.250662 -0.110888 -2.2823e-21)
(0.444982 -0.142099 -8.70086e-21)
(0.337417 0.000509158 2.70739e-23)
(0.253568 -0.0910836 0)
(0.418283 -0.139549 0)
(0.324307 0.137435 -4.84886e-21)
(0.372399 -0.265614 -6.03533e-21)
(0.593194 -0.101515 4.49272e-21)
(0.341286 -0.0595287 -3.08177e-21)
(0.288858 -0.0650973 3.15e-21)
(0.341234 -0.109293 0)
(0.364018 -0.0515347 -1.98166e-21)
(0.262045 -0.0445069 0)
(0.35485 -0.134053 1.00688e-21)
(0.425226 0.111078 0)
(0.585105 -0.216444 2.12281e-22)
(0.180871 -0.113195 3.51901e-23)
(0.538983 -0.394914 -7.22082e-21)
(0.270442 0.154423 0)
(0.656665 -0.0288147 5.21924e-21)
(0.594481 -0.429776 1.02808e-20)
(0.670271 -0.00554971 5.66606e-21)
(0.238874 0.138689 -7.3926e-21)
(0.949146 -0.24812 8.25752e-22)
(0.668922 0.386522 0)
(0.185799 -0.194523 -5.46271e-21)
(0.676067 0.17174 2.71528e-21)
(0.789013 -0.409993 -2.46733e-21)
(0.0549091 -0.0144802 1.49746e-20)
(0.00138907 -0.0481028 -7.61978e-21)
(0.979295 -0.428717 1.19637e-21)
(0.825803 0.330693 4.0465e-21)
(0.632565 0.379256 0)
(0.917495 -0.21517 -3.97656e-21)
(0.231995 -0.234492 -1.58409e-21)
(0.60168 0.35862 2.05293e-21)
(0.886988 -0.203401 5.3889e-21)
(0.248579 -0.244118 2.15542e-21)
(0.980394 -0.25548 7.80788e-24)
(0.696689 0.404721 -7.13805e-23)
(0.169355 -0.188247 3.28058e-23)
(0.25074 0.0248506 0)
(0.369719 -0.199929 -3.58073e-21)
(0.454812 -0.0689447 6.70461e-21)
(0.111942 -0.139859 -5.98974e-21)
(0.739565 0.412917 6.01114e-21)
(1.01001 -0.29632 1.67554e-21)
(0.38492 0.0582741 -2.01707e-21)
(0.507649 -0.188085 1.99933e-21)
(0.203192 -0.0929344 0)
(-0.00410288 -0.0455224 6.79021e-21)
(0.993617 -0.432084 0)
(0.842807 0.346188 -2.3878e-21)
(0.86595 0.264556 4.14549e-21)
(-0.00716753 -0.0163766 0)
(0.938903 -0.501933 9.7229e-22)
(0.0204786 0.0156905 0)
(0.928679 0.206594 0)
(0.905929 -0.580193 -1.18742e-22)
(0.679528 0.263591 5.35754e-21)
(0.715782 0.27273 -7.42309e-21)
(0.863503 -0.351308 -4.53785e-21)
(0.889201 -0.378341 2.11819e-21)
(0.0670222 -0.0841457 3.18246e-21)
(0.0456729 -0.0679779 -8.17665e-21)
(0.000253565 -0.00847323 3.88122e-22)
(0.864603 0.244197 -4.05586e-21)
(0.922141 -0.516837 0)
(0.375969 -0.0289529 1.5689e-23)
(0.23816 -0.0447191 0)
(0.389705 -0.160017 0)
(0.18142 0.0844296 -1.34518e-20)
(0.602398 0.0196148 2.66234e-21)
(0.582811 -0.375707 0)
(0.268236 0.134234 -2.04569e-21)
(0.485808 -0.340947 0)
(0.610499 -0.0484206 1.01688e-20)
(0.816105 0.368545 0)
(-0.0246063 -0.0170452 5.55025e-21)
(0.89959 -0.427099 2.12936e-22)
(0.472675 0.13197 -4.00514e-21)
(0.635931 -0.244971 -1.94485e-21)
(0.150813 -0.0978667 -6.53433e-21)
(0.715362 0.319679 -3.09576e-21)
(0.681122 0.291313 2.88949e-21)
(0.923721 -0.34271 -1.16889e-21)
(0.0726162 -0.10006 -3.63569e-21)
(0.883448 -0.332447 1.21539e-21)
(0.0810687 -0.101338 3.39635e-21)
(0.855501 0.377868 5.48113e-21)
(0.986341 -0.436712 9.19502e-22)
(-0.0223325 -0.0273598 1.82768e-21)
(0.603932 0.230587 0)
(0.790213 -0.308806 3.19041e-21)
(0.103931 -0.107093 -1.8965e-20)
(0.358768 0.152923 0)
(0.332415 -0.243714 6.079e-21)
(0.611339 -0.126863 -2.4153e-22)
(0.0321527 0.0237662 0)
(0.902076 0.191112 0)
(0.895209 -0.572102 0)
(0.781484 0.278943 0)
(0.924324 -0.42905 5.45717e-21)
(0.0149234 -0.0435721 8.20682e-21)
(0.444053 0.156265 0)
(0.63822 -0.205439 0)
(0.207147 -0.156445 0)
(0.547744 0.0871142 0)
(0.634768 -0.333394 0)
(0.115829 -0.00794554 0)
(0.249696 0.130235 1.89296e-21)
(0.527104 -0.367336 0)
(0.621819 -0.0282554 -5.50066e-21)
(0.184152 0.0724562 1.30307e-20)
(0.581979 0.0143881 5.87134e-21)
(0.568789 -0.357558 -6.53645e-21)
(0.702475 0.191277 -6.17513e-21)
(0.818846 -0.418976 0)
(0.0423229 -0.0250416 -1.94511e-20)
(0.17023 0.023332 0)
(0.509551 0.0174654 -1.28802e-20)
(0.525369 -0.295791 -1.69882e-21)
(0.689736 -0.469303 -2.81647e-21)
(0.695152 0.0543386 -5.99422e-21)
(0.734415 -0.484703 0)
(0.716097 0.0845295 -3.46621e-21)
(0.163866 0.0975119 -6.33038e-21)
(0.1288 0.0752676 6.08069e-21)
(0.577312 0.0602016 -8.19579e-22)
(0.623304 -0.363596 -3.34084e-21)
(0.129363 0.0258171 3.75531e-21)
(0.884654 0.353591 2.35992e-21)
(-0.0253263 -0.0277266 -2.13566e-21)
(0.975785 -0.461933 1.60568e-21)
(0.832805 0.375152 1.4724e-21)
(-0.024323 -0.0197281 8.33608e-22)
(0.941214 -0.429592 0)
(0.791043 0.297703 -1.10081e-22)
(0.941505 -0.424784 0)
(0.0123536 -0.0488584 -9.91245e-21)
(0.419062 0.21761 0)
(0.694507 -0.137425 -1.34744e-21)
(0.344528 -0.279134 -3.50501e-21)
(0.561867 0.0433113 -5.31929e-21)
(0.148435 0.0405283 0)
(0.591162 -0.344956 0)
(-0.0264336 -0.0237676 0)
(0.963442 -0.496336 0)
(0.906016 0.319372 -1.91839e-21)
(0.385178 0.193202 0)
(0.660588 -0.122306 3.00869e-21)
(0.358074 -0.273399 -9.12234e-22)
(0.165869 0.0370064 0)
(0.52598 0.0182725 0)
(0.533785 -0.311086 0)
(0.517819 0.0672945 -2.68288e-21)
(0.599526 -0.312555 0)
(0.127337 -0.0128054 0)
(0.717689 -0.306104 1.63483e-23)
(0.103844 -0.0780781 4.45126e-21)
(0.575993 0.207348 -8.30512e-21)
(0.758994 -0.296918 0)
(0.111582 -0.102186 1.9596e-20)
(0.870175 0.308209 4.70904e-21)
(-0.014593 -0.0291508 -6.16607e-21)
(0.970339 -0.476797 4.21007e-21)
(0.0210369 0.012535 -5.67238e-21)
(0.869553 0.205727 -2.5443e-21)
(0.89953 -0.544526 -5.01783e-21)
(0.913021 0.24125 6.68835e-21)
(0.928097 -0.543048 0)
(-0.00235107 -0.00171489 5.55712e-21)
(0.562486 -0.437658 2.89461e-21)
(0.714124 -0.0331029 -2.30174e-21)
(0.311496 0.203968 -6.20963e-21)
(0.501642 0.106005 5.27093e-21)
(0.727561 0.422774 -3.11829e-21)
(0.132135 -0.154953 3.68688e-21)
(1.01337 -0.285213 -7.80061e-24)
(0.934668 -0.540827 0)
(0.924025 0.261986 1.8656e-21)
(-0.0118332 -0.00943236 0)
(0.36549 -0.00228294 9.9573e-21)
(0.22848 -0.0648392 0)
(0.422374 -0.16436 -3.25314e-21)
(0.496567 0.186988 0)
(0.689976 -0.241861 1.88066e-22)
(0.171968 -0.135155 -3.70106e-21)
(0.0312519 0.0216605 -4.36665e-21)
(0.877998 0.193261 0)
(0.890629 -0.559371 5.78125e-21)
(0.533642 0.127649 0)
(0.701766 -0.313434 -7.95281e-21)
(0.101524 -0.0654452 0)
(-0.0292917 -0.0231316 0)
(0.935993 -0.463997 -8.94184e-22)
(0.880918 0.353507 0)
(0.276841 0.180314 6.7189e-21)
(0.711047 -0.0148802 0)
(0.597538 -0.460085 0)
(0.886711 0.23141 -5.86773e-21)
(0.920469 -0.533486 0)
(0.00280019 -0.00130891 3.70576e-23)
(0.643377 0.073286 -6.88192e-21)
(0.679171 -0.423558 -2.47917e-21)
(0.122335 0.0510642 8.59987e-21)
(0.60038 0.247665 0)
(0.798644 -0.294868 -2.9876e-21)
(0.119764 -0.120928 -1.96723e-21)
(0.83897 -0.574564 7.88871e-21)
(0.845603 0.129896 4.56821e-21)
(0.0926891 0.0673357 -3.43571e-21)
(0.753813 0.0939827 0)
(0.76649 -0.514097 3.31975e-21)
(0.12438 0.0782002 1.2531e-22)
(-0.0299492 -0.0227516 4.30866e-21)
(0.912233 -0.471171 0)
(0.887916 0.34209 1.42393e-21)
(0.326738 0.17252 -9.00686e-21)
(0.441772 -0.32715 4.35213e-21)
(0.643987 -0.0809247 4.32341e-22)
(0.748905 0.392423 -1.45305e-21)
(-0.0173283 -0.0116603 4.59725e-22)
(0.913174 -0.370697 0)
(0.221025 -0.0151971 -2.02838e-21)
(0.41421 -0.0300441 7.68707e-21)
(0.40498 -0.192883 -9.81009e-21)
(0.636942 0.109754 -2.77786e-21)
(0.622142 0.079715 -3.60983e-23)
(0.712066 -0.405944 6.05692e-21)
(0.671777 -0.403243 5.93178e-21)
(0.114638 0.0353175 -6.84113e-21)
(0.0877656 0.0148903 3.5227e-21)
(0.0877269 -0.119524 7.84032e-21)
(0.759535 0.418691 -3.21084e-21)
(1.03139 -0.308394 0)
(0.566234 0.240704 0)
(0.773861 -0.266212 0)
(0.153242 -0.141493 7.83058e-21)
(0.784459 0.118687 1.22081e-21)
(0.800817 -0.533786 0)
(0.100024 0.0640889 0)
(0.750814 0.303129 -2.68089e-21)
(0.928254 -0.383416 0)
(0.0372717 -0.0706985 -3.58348e-21)
(0.318444 -0.0455465 -2.09297e-21)
(0.355831 -0.097139 -3.01158e-21)
(0.297612 -0.0855085 1.04893e-21)
(0.694049 0.0970291 4.41036e-21)
(0.734391 -0.463031 0)
(0.106996 0.0535992 5.85398e-21)
(0.572503 0.258726 0)
(0.792512 -0.258914 -3.69784e-21)
(0.163243 -0.155314 4.97326e-21)
(0.546858 0.152698 -8.53299e-21)
(0.582054 0.172233 6.87134e-21)
(0.335477 0.185923 7.12646e-21)
(0.45336 -0.343667 -1.25802e-20)
(0.661787 -0.0761647 9.46623e-21)
(0.715734 0.122119 4.54394e-21)
(0.767599 -0.472961 -5.01409e-21)
(0.081333 0.0365053 -5.34002e-21)
(0.775958 0.309826 9.85065e-21)
(0.0231721 -0.0603458 1.27011e-20)
(0.946607 -0.401851 2.54081e-21)
(0.269276 0.119659 3.13784e-21)
(0.460631 -0.321572 0)
(0.59104 -0.0524005 -3.42035e-21)
(0.181561 0.116387 6.85612e-21)
(0.71395 0.047078 3.40592e-21)
(0.690708 -0.489382 0)
(0.662438 0.320021 1.0055e-21)
(0.894062 -0.290566 3.06088e-21)
(0.126017 -0.140275 -2.24303e-21)
(0.302702 0.176732 -5.82421e-22)
(0.51437 -0.385139 0)
(0.669583 -0.0447509 -7.2281e-21)
(0.692211 0.340268 0)
(0.714964 0.341649 0)
(0.927446 -0.304814 1.88527e-21)
(0.111491 -0.131921 5.85286e-21)
(0.940536 -0.328898 -2.66131e-21)
(0.0866127 -0.111982 -6.19937e-21)
(-0.022937 -0.0274606 4.75081e-21)
(0.973781 -0.482061 0)
(0.89237 0.328071 2.87525e-21)
(0.646921 0.280639 0)
(0.853171 -0.311235 1.44981e-21)
(0.104374 -0.116765 -2.03306e-21)
(0.789271 -0.387752 2.7616e-22)
(-0.0182657 -0.0104035 -6.83372e-21)
(0.723432 0.354304 -2.53142e-21)
(0.476964 -0.0117698 1.04296e-20)
(0.195463 0.0209663 0)
(0.466566 -0.255965 3.56568e-21)
(0.633254 0.155985 -6.45153e-21)
(0.75247 -0.380396 0)
(0.0665376 -0.0238798 -1.15256e-20)
(-0.00678009 -0.0347718 3.93685e-21)
(0.844032 0.301718 -8.69102e-21)
(0.960626 -0.460576 -3.40423e-21)
(0.614506 -0.449514 3.75014e-21)
(0.688712 0.00129532 0)
(0.236874 0.150286 8.37847e-21)
(0.857928 -0.571946 9.21639e-21)
(0.858297 0.152579 2.7666e-21)
(0.0673676 0.0478858 0)
(0.643865 -0.286519 4.20665e-21)
(0.121689 -0.0605427 0)
(0.651141 0.202083 -6.93403e-21)
(0.792525 -0.364016 -2.73846e-21)
(0.062163 -0.0575926 -3.50688e-21)
(0.634023 -0.30139 -1.44826e-22)
(0.116144 -0.045294 -1.29587e-23)
(0.806187 0.401936 6.56152e-21)
(0.0295576 -0.0714686 -9.22979e-21)
(1.03306 -0.365262 1.9168e-21)
(0.548721 -0.448427 -3.76677e-21)
(0.738977 -0.0460584 -7.12936e-22)
(0.344026 0.229296 0)
(0.682383 0.220709 7.06355e-21)
(0.831783 -0.381268 3.33979e-21)
(0.048717 -0.0509989 8.50102e-21)
(0.566692 0.0827619 0)
(0.63771 -0.353347 2.44834e-21)
(0.114735 0.00649016 0)
(0.616984 -0.000208537 3.39515e-21)
(0.563329 -0.385282 0)
(0.213191 0.105494 0)
(0.414226 0.086084 2.79523e-21)
(0.552187 -0.211161 4.67271e-21)
(0.183975 -0.0987821 -4.17328e-24)
(0.210173 0.136754 -8.50589e-21)
(0.708946 0.026933 -8.25954e-21)
(0.66233 -0.478079 -1.00562e-20)
(0.887846 0.284915 3.49175e-21)
(0.953837 -0.499167 -3.54307e-21)
(-0.0152574 -0.0208993 -9.2859e-23)
(0.865333 -0.555347 -6.29338e-21)
(0.847385 0.164567 -2.80396e-21)
(0.05312 0.0366379 -4.3966e-21)
(0.535436 0.324528 6.33764e-21)
(0.316503 -0.28743 -3.20724e-21)
(0.831981 -0.165832 0)
(0.726661 0.383847 -1.75417e-21)
(0.702926 0.367687 1.62699e-21)
(0.954074 -0.291962 5.95163e-22)
(0.980714 -0.301466 -2.35749e-21)
(0.10976 -0.134675 2.11787e-21)
(0.125273 -0.146526 1.89243e-21)
(-0.0194503 -0.0101774 6.94372e-21)
(0.829651 -0.383112 -3.0413e-22)
(0.736631 0.361278 -9.88702e-22)
(0.76305 0.398973 1.02295e-22)
(-0.0158749 -0.0149632 0)
(0.945763 -0.372475 0)
(0.671552 0.128756 1.02556e-20)
(0.752739 -0.426618 1.30999e-21)
(0.0771367 0.0145492 0)
(-0.0176653 -0.031008 1.18693e-20)
(0.876098 0.322486 -3.61966e-21)
(0.97982 -0.471837 0)
(0.608699 0.33274 -9.00751e-21)
(0.639153 0.34246 6.72059e-21)
(0.870693 -0.234236 -3.33246e-21)
(0.895405 -0.253566 -1.25343e-21)
(0.20991 -0.205491 3.73539e-21)
(0.177393 -0.181351 1.87555e-21)
(-0.0172429 -0.0133572 0)
(0.913834 -0.546494 0)
(0.953141 0.261149 -9.66028e-22)
(0.700044 0.388064 1.70639e-21)
(-0.0157559 -0.00722431 -4.29933e-21)
(0.880577 -0.347351 0)
(0.411665 -0.0831402 2.91176e-24)
(0.27489 -5.68414e-05 -4.48601e-21)
(0.323301 -0.148977 -2.20255e-21)
(0.771547 0.374078 2.66406e-21)
(0.887346 -0.401709 -3.11501e-22)
(-0.0214085 -0.0130261 -8.62743e-21)
(0.465684 0.23332 -7.83231e-21)
(0.721069 -0.170822 6.08239e-21)
(0.288729 -0.241986 4.73771e-23)
(0.912966 0.307086 -8.33966e-23)
(0.957093 -0.507385 -4.4649e-21)
(-0.0241137 -0.0213163 2.42504e-21)
(0.690678 -0.39311 -1.25194e-24)
(-0.0167583 -0.0140419 7.89558e-21)
(0.706529 0.295362 7.24247e-22)
(0.291932 0.110067 4.18573e-21)
(0.384468 -0.256645 2.59564e-22)
(0.558214 -0.0849696 -1.10477e-20)
(0.428718 -0.00542098 0)
(0.45177 -0.218145 1.08605e-20)
(0.19776 -0.0175634 -5.63436e-21)
(0.840013 0.392266 -5.5857e-21)
(-0.0180756 -0.0285509 -5.44587e-21)
(0.99576 -0.42212 5.91854e-23)
(0.450567 0.00528892 0)
(0.474028 -0.237991 3.74119e-21)
(0.183201 -0.00282253 7.97741e-21)
(0.388332 -0.0795934 -4.53126e-21)
(0.279894 -0.0190054 4.73834e-21)
(0.32171 -0.131628 -1.1681e-21)
(0.263085 0.179829 4.08719e-21)
(0.7365 0.00221101 2.86504e-21)
(0.642785 -0.497485 -5.50132e-21)
(0.468905 -0.0526106 0)
(0.397114 -0.217984 0)
(0.233859 0.0388918 -6.65162e-22)
(0.484541 -0.0264319 -5.61375e-21)
(0.442628 -0.244465 -2.89876e-21)
(0.215599 0.0379306 -9.40294e-23)
(0.50199 0.306064 -9.64364e-21)
(0.802328 -0.147029 4.49538e-21)
(0.353276 -0.316149 6.43345e-21)
(-0.0092432 -0.0402659 -8.25034e-21)
(-0.0153314 -0.0364748 8.40838e-21)
(1.01455 -0.424097 -1.12593e-21)
(1.00396 -0.437873 -8.40116e-22)
(0.848739 0.3832 -4.93982e-21)
(0.860098 0.373061 7.39428e-21)
(0.905258 0.288298 -4.33578e-21)
(0.954115 -0.507807 2.91865e-21)
(-0.018761 -0.0181145 0)
(0.304076 -0.289061 -4.16185e-21)
(0.565018 0.352062 -1.97896e-21)
(0.864756 -0.173645 0)
(0.34675 0.17246 0)
(0.398077 -0.296923 3.98229e-21)
(0.639246 -0.0996529 -3.3754e-21)
(0.771216 0.0764885 0)
(0.75802 -0.535578 -3.43531e-21)
(0.153729 0.102848 -1.2963e-22)
(0.771818 -0.454879 -6.74741e-22)
(-0.0256314 -0.0229662 0)
(0.840025 0.296375 2.36804e-21)
(0.00675339 0.00580572 0)
(0.932792 0.225588 0)
(0.913587 -0.570401 -2.06999e-21)
(0.85615 0.368172 -1.80529e-21)
(-0.0265054 -0.0227983 0)
(0.95296 -0.44611 8.77553e-22)
(-0.0133205 -0.010334 2.93221e-32)
(0.645803 -0.365315 -3.82785e-22)
(0.648567 0.285034 -6.91083e-22)
(0.676432 -0.320597 4.49694e-22)
(-0.0120604 -0.00478125 -2.92526e-32)
(0.613908 0.326387 6.27963e-22)
(0.832554 -0.469764 6.64399e-21)
(0.750729 0.176259 0)
(0.0443986 0.00550972 1.13091e-20)
(0.872208 -0.518324 5.30517e-22)
(-0.026111 -0.0225391 0)
(0.945787 0.281616 0)
(0.802109 0.272543 4.3614e-21)
(0.925389 -0.449505 -3.35213e-21)
(0.00795015 -0.0345775 -5.82973e-21)
(0.795458 0.430956 -6.35153e-21)
(0.0153644 -0.051382 -3.285e-21)
(1.05187 -0.351155 0)
(0.476059 0.11033 -2.13963e-21)
(0.139615 -0.0736441 2.23052e-21)
(0.622416 -0.263577 -2.03312e-21)
(0.917399 -0.556345 0)
(-0.0110159 -0.00784027 -4.03933e-21)
(0.94985 0.250558 -1.18511e-21)
(0.754081 0.0605648 3.32896e-21)
(0.1755 0.118705 2.32201e-21)
(0.731418 -0.522737 0)
(0.8143 -0.525286 0)
(0.783714 0.135909 0)
(0.0780616 0.0487658 -4.12358e-21)
(-0.0035797 -0.00178109 0)
(0.38242 -0.191266 -9.03559e-22)
(0.370777 0.176941 -7.09022e-23)
(0.781674 -0.409583 -2.02398e-22)
(-0.0201359 -0.013576 4.76966e-21)
(0.750325 0.339879 1.239e-21)
(0.445693 0.086937 5.55406e-21)
(0.157554 -0.0751247 -5.33454e-21)
(0.576062 -0.242712 -2.37041e-21)
(0.930478 -0.522676 -3.46252e-21)
(0.937604 0.289769 1.97715e-21)
(-0.0244233 -0.0185291 0)
(-0.01835 -0.0149647 4.21303e-21)
(0.963087 0.261485 0)
(0.894667 -0.547368 2.6447e-21)
(0.860735 0.342748 2.6381e-21)
(-0.0126429 -0.037546 -1.26793e-20)
(0.991894 -0.448477 -3.76232e-21)
(0.0583026 -0.0944017 9.47572e-21)
(1.02083 -0.340971 -2.45023e-21)
(0.778505 0.399345 0)
(0.483851 0.31117 1.21862e-20)
(0.801889 -0.130363 -5.72908e-21)
(0.397012 -0.351732 6.08655e-21)
(0.936646 -0.268477 -8.79093e-22)
(0.674006 0.369909 -3.88076e-21)
(0.162611 -0.175447 5.83433e-21)
(0.0536401 -0.0905255 8.47384e-21)
(0.784036 0.427371 0)
(1.05229 -0.331839 1.37596e-21)
(0.495003 0.224665 1.97369e-21)
(0.535345 0.249472 0)
(0.723498 -0.207929 6.36618e-21)
(0.766912 -0.228175 -6.80743e-21)
(0.22567 -0.187951 -4.11244e-21)
(0.203379 -0.182049 0)
(0.462949 0.217707 1.927e-21)
(0.704537 -0.182529 0)
(0.264659 -0.215982 -1.93604e-21)
(0.596823 0.34317 0)
(0.871402 -0.218237 5.38287e-21)
(0.236141 -0.228486 -1.34727e-21)
(0.849076 -0.539068 3.20798e-21)
(0.821925 0.156761 -3.01377e-21)
(0.0573021 0.0353366 8.99419e-21)
(0.942072 -0.530455 0)
(0.916099 0.277745 -6.72835e-22)
(-0.0176313 -0.0142413 0)
(0.0287778 0.0127344 2.90608e-21)
(0.836603 0.194214 1.85e-21)
(0.88258 -0.52741 2.05469e-21)
(0.728282 -0.329068 -8.56815e-23)
(-0.0136769 -0.00454284 -5.54821e-24)
(0.64318 0.344797 0)
(0.349081 0.125347 -3.83395e-21)
(0.359489 0.116187 0)
(0.301301 -0.204091 9.64397e-22)
(0.574708 -0.134199 -1.32735e-20)
(0.274488 -0.181542 -1.22041e-21)
(0.566247 -0.151129 8.49213e-21)
(0.539251 0.30358 0)
(0.496417 0.276201 1.24838e-21)
(0.302086 -0.263032 -1.69916e-23)
(0.81236 -0.191548 -3.58589e-21)
(0.274124 -0.245077 -9.8415e-21)
(0.771842 -0.171425 7.70847e-21)
(0.677221 -0.409528 0)
(-0.0189137 -0.0181881 -8.62405e-21)
(0.742164 0.283464 0)
(0.939106 -0.518448 2.26469e-21)
(0.929448 0.290669 -6.60052e-22)
(-0.0236556 -0.0190748 -2.5455e-21)
(0.37156 0.20918 2.33352e-21)
(0.436646 -0.344867 4.47997e-21)
(0.68853 -0.0925004 -1.06313e-20)
(0.813475 -0.557881 -7.09008e-21)
(0.81468 0.114149 -7.68374e-21)
(0.107621 0.0758603 0)
(0.0739056 -0.107994 -1.01334e-20)
(1.01253 -0.328996 2.60642e-21)
(0.764585 0.398135 0)
(0.864276 -0.444778 0)
(0.836209 0.346944 0)
(-0.0264401 -0.0187603 0)
(0.878875 -0.463196 0)
(0.86587 0.337191 -2.65085e-21)
(-0.0290265 -0.0214868 0)
(0.638523 0.324592 3.75956e-21)
(0.881292 -0.269694 -1.90068e-21)
(0.157229 -0.163324 -2.77609e-21)
(0.24738 0.101778 1.10418e-21)
(0.469742 -0.311255 0)
(0.569264 -0.0382728 -3.68929e-21)
(0.867342 0.354102 -3.07377e-21)
(-0.0159792 -0.0353946 -7.35154e-21)
(0.999187 -0.447915 5.36141e-21)
(0.845493 -0.492318 0)
(0.777286 0.179534 0)
(0.0411361 0.014086 -9.75769e-21)
(0.017412 -0.06023 -2.42787e-21)
(0.972513 -0.405765 -4.26403e-21)
(0.798427 0.335607 -9.00596e-21)
(0.47123 0.266964 -1.2717e-21)
(0.335973 -0.287205 6.60194e-21)
(0.754914 -0.154121 -4.00163e-21)
(0.633499 0.0504447 6.6617e-21)
(0.643491 -0.411368 -3.6692e-21)
(0.152941 0.0705681 -8.39474e-21)
(0.316207 0.143097 -7.14232e-23)
(0.403739 -0.290587 1.32276e-21)
(0.60542 -0.0889916 4.42147e-21)
(-0.0222895 -0.0295848 2.86612e-21)
(0.984979 -0.467273 -2.16071e-21)
(0.883959 0.344356 -3.17427e-21)
(0.74628 0.325725 1.7036e-21)
(0.94456 -0.366204 1.38384e-21)
(0.0507872 -0.0839081 0)
(0.301585 0.102508 4.15765e-21)
(0.352279 -0.228903 -8.4299e-21)
(0.545889 -0.0995353 7.3008e-21)
(0.788069 0.43489 -2.59847e-21)
(0.0414825 -0.0781117 -3.73928e-21)
(1.0612 -0.335381 -1.38246e-22)
(0.439138 0.173782 2.40341e-21)
(0.651596 -0.193489 0)
(0.231011 -0.178449 0)
(0.502655 0.0440461 9.92284e-21)
(0.554205 -0.29387 -2.28542e-21)
(0.147409 0.00221083 0)
(0.806298 -0.498138 0)
(0.756347 0.137376 -6.49454e-21)
(0.0709077 0.0386243 4.31911e-21)
(0.782862 0.413644 0)
(-0.00869196 -0.0252882 1.15442e-21)
(1.0033 -0.370843 -5.10882e-22)
(0.779515 0.423227 -2.32671e-21)
(-0.0016012 -0.0312233 -3.67742e-21)
(1.02239 -0.357947 8.74102e-22)
(0.0250958 -0.067984 -2.20305e-21)
(0.984974 -0.391086 2.34502e-21)
(0.794794 0.350925 8.29488e-21)
(0.660495 0.038305 2.98423e-21)
(0.654579 -0.440067 7.3709e-21)
(0.173983 0.0915297 0)
(-0.011343 -0.0168806 -1.05747e-21)
(0.969891 -0.360178 4.81367e-22)
(0.748157 0.407444 0)
(-0.00155226 -0.0303033 0)
(0.942346 -0.465204 2.50128e-21)
(0.831826 0.281364 1.01604e-21)
(-0.0100533 -0.00983564 -4.31518e-21)
(0.545406 -0.335968 1.77343e-22)
(0.579919 0.236716 0)
(0.519175 0.303354 8.95029e-22)
(0.599604 -0.263366 0)
(-0.00871622 -0.000959501 -4.31077e-21)
(0.0478094 -0.0854749 8.35466e-24)
(1.03953 -0.345887 2.58886e-22)
(0.789283 0.414307 0)
(-0.0286362 -0.0249259 0)
(0.958476 -0.473981 0)
(0.894324 0.345099 -3.8812e-21)
(0.837864 0.380666 2.79944e-21)
(0.830206 0.369221 -2.26466e-21)
(0.000826972 -0.0498815 4.14453e-21)
(1.02141 -0.407619 4.00735e-22)
(0.00443127 -0.0534485 0)
(1.01002 -0.409253 0)
(0.83768 0.264513 -1.98786e-21)
(0.931661 -0.481019 -1.71986e-21)
(-0.00107744 -0.0224822 0)
(0.142584 0.102024 0)
(0.784188 -0.560836 0)
(0.803927 0.0897135 0)
(0.355812 0.0838625 -5.20266e-21)
(0.248797 -0.146434 1.17491e-20)
(0.527345 -0.159021 -4.68976e-21)
(0.824267 0.22082 -5.73564e-21)
(0.895811 -0.501696 -6.87974e-22)
(0.0136882 -0.00419605 -8.55153e-21)
(0.0255168 0.00591075 -5.56202e-21)
(0.816356 0.202731 7.97661e-21)
(0.878384 -0.508752 9.53923e-22)
(0.767707 0.434508 -3.14498e-21)
(0.0776718 -0.111188 -4.04969e-21)
(1.05103 -0.310224 0)
(0.553121 0.320106 0)
(0.833828 -0.191598 -1.60052e-21)
(0.275512 -0.253094 9.64728e-21)
(0.497084 0.256294 0)
(0.753149 -0.182934 -7.98601e-21)
(0.276132 -0.240269 1.41654e-23)
(0.741705 0.206144 7.84275e-21)
(0.851426 -0.446306 -8.99879e-22)
(0.0305928 -0.0188046 4.9275e-21)
(0.761489 0.202258 0)
(0.85653 -0.463869 -8.53787e-22)
(0.029442 -0.00968062 -4.5123e-21)
(0.282334 0.0785939 0)
(0.355556 -0.21721 1.32896e-20)
(0.513707 -0.0897225 0)
(0.546382 0.266018 0)
(0.783935 -0.225807 4.35785e-21)
(0.208672 -0.193784 -1.47483e-21)
(-0.00208659 -0.000969578 8.74546e-21)
(0.906007 -0.569257 4.57711e-21)
(0.956173 0.235209 0)
(0.884721 0.319701 5.45971e-23)
(-0.0290252 -0.0230452 -2.65399e-21)
(0.848332 -0.475189 -5.43569e-22)
(0.877138 0.301297 1.66135e-22)
(-0.0276925 -0.023987 0)
(0.813811 -0.472503 1.45189e-21)
(0.391339 0.180872 -2.84358e-21)
(0.323843 -0.243903 1.43073e-21)
(0.646584 -0.140748 1.38264e-22)
(0.810486 -0.430242 -1.74768e-22)
(-0.0241059 -0.0177535 -1.09483e-20)
(0.809002 0.333564 0)
(0.770557 0.349262 -7.25667e-21)
(0.0433235 -0.0807084 0)
(0.97323 -0.370776 0)
(-0.0235543 -0.0201218 4.34489e-21)
(0.763908 -0.440069 4.16576e-22)
(0.806099 0.305965 -1.74592e-21)
(0.40054 0.0175995 -6.92109e-21)
(0.199633 -0.0493085 -7.16746e-21)
(0.463557 -0.197876 -2.83562e-23)
(0.599902 0.198335 1.21126e-21)
(0.765243 -0.323682 1.0308e-21)
(0.0909806 -0.0801905 4.50095e-21)
(0.611986 -0.424131 -8.49796e-21)
(0.651385 0.0156846 -1.08145e-20)
(0.204968 0.110544 0)
(-0.0250995 -0.0204523 0)
(0.893566 -0.52491 7.48611e-22)
(0.948953 0.282795 0)
(0.832883 -0.504873 0)
(0.779848 0.164029 0)
(0.0517824 0.0248424 0)
(0.0236768 -0.062392 0)
(0.801448 0.426837 2.29347e-21)
(1.05508 -0.352991 -1.26539e-21)
(0.639062 0.216886 0)
(0.798961 -0.347137 -5.30422e-22)
(0.0730629 -0.0716142 -5.28325e-24)
(0.344308 0.0655328 5.02633e-21)
(0.251488 -0.137118 -1.00954e-20)
(0.501302 -0.15236 0)
(0.920359 -0.515546 3.27312e-21)
(0.932519 0.302466 -1.87841e-21)
(-0.0276977 -0.0213372 0)
(-0.00047669 -0.0427131 5.05194e-21)
(0.963179 -0.443432 -1.56641e-22)
(0.825737 0.313866 -1.92084e-22)
(0.816958 0.396503 0)
(0.805967 0.394645 -2.0612e-21)
(-0.0168675 -0.0236884 -2.65773e-21)
(-0.0191422 -0.0197507 3.28975e-21)
(0.98489 -0.401061 4.40843e-22)
(0.963789 -0.402796 -3.62555e-22)
(0.608935 0.114428 0)
(0.695598 -0.382553 -7.03492e-21)
(0.0904098 0.000519084 -5.5082e-21)
(0.80018 -0.451222 -9.35595e-21)
(0.718336 0.156172 0)
(0.055027 0.00961343 5.99956e-21)
(0.463095 0.0570511 5.641e-21)
(0.549363 -0.261191 -3.88039e-21)
(0.147525 -0.034768 -8.74905e-21)
(0.876366 -0.495494 -1.56364e-21)
(0.913614 0.31141 -2.01574e-21)
(0.861401 -0.504775 6.77899e-22)
(-0.0296908 -0.0236157 2.81118e-21)
(0.925501 0.294968 1.8907e-21)
(-0.0280982 -0.0239772 0)
(0.717574 0.255643 0)
(0.873599 -0.393137 0)
(0.0398417 -0.0571535 -5.54895e-21)
(0.920291 0.316067 -2.22661e-21)
(0.913137 0.319525 5.67304e-21)
(0.926703 -0.501114 -1.0202e-21)
(0.907726 -0.492139 2.87621e-21)
(-0.0298507 -0.0230227 -7.43158e-21)
(-0.030412 -0.0232446 1.08404e-23)
(0.698891 0.139031 0)
(0.771621 -0.452615 8.93001e-21)
(0.0731958 0.0244596 -7.77907e-21)
(0.561696 0.134955 -5.27065e-21)
(0.719048 -0.33745 6.3108e-21)
(0.0849485 -0.0495791 0)
(0.801084 0.423646 0)
(0.003801 -0.0413553 -5.09105e-22)
(1.03822 -0.367085 -8.39736e-22)
(0.608939 0.133795 -3.88403e-21)
(0.713905 -0.371481 0)
(0.0802238 -0.0144542 9.10438e-21)
(0.495558 0.0823378 -2.28796e-21)
(0.599775 -0.291319 4.55401e-21)
(0.126873 -0.036039 -5.0626e-21)
(0.803605 0.405378 0)
(-0.0113633 -0.0268721 0)
(1.00554 -0.389232 1.22217e-21)
(0.646466 0.238608 0)
(0.82661 -0.33733 -1.04715e-21)
(0.0751305 -0.0847933 5.50382e-21)
(0.716742 -0.530675 0)
(0.761206 0.0457071 0)
(0.203672 0.141665 2.98485e-22)
(0.471312 0.278616 3.1212e-22)
(0.766714 -0.142143 0)
(0.358032 -0.309496 -5.05567e-21)
(0.876178 -0.585113 -3.53065e-21)
(0.0538814 0.0401065 0)
(0.893057 0.168787 0)
(-0.00691008 -0.00386695 1.03696e-20)
(0.508456 -0.258113 1.26546e-21)
(0.48932 0.234961 9.93001e-23)
(0.623193 0.17219 0)
(0.75245 -0.35865 -3.86827e-21)
(0.0706521 -0.0443926 0)
(0.826426 0.405454 -4.37835e-21)
(-7.21153e-05 -0.0443798 -1.39534e-20)
(1.0331 -0.389024 2.55082e-21)
(0.474048 -0.400991 0)
(0.765282 -0.0890762 3.85964e-21)
(0.413076 0.269805 0)
(0.622317 0.357434 0)
(-0.0137676 -0.00203641 2.55159e-21)
(0.769612 -0.317885 0)
(0.198855 0.058415 -5.43788e-21)
(0.209032 0.0779315 5.55848e-21)
(0.494191 -0.302288 0)
(0.532138 -0.0108051 -4.69838e-21)
(0.513473 -0.328649 8.40824e-21)
(0.561999 -0.0139639 3.73972e-21)
(0.466972 0.0356215 -5.31065e-21)
(0.521645 -0.259371 -5.25093e-21)
(0.159597 -0.0140746 0)
(0.259815 0.0942749 -4.82298e-21)
(0.228901 0.0710273 0)
(0.42388 -0.275202 0)
(0.546947 -0.0601777 0)
(0.442208 -0.272599 4.88994e-21)
(0.524133 -0.0400068 -2.82466e-23)
(0.592679 0.159584 -3.32473e-22)
(0.680651 -0.330734 2.8012e-21)
(0.0962922 -0.0375706 6.22549e-21)
(0.568723 0.122448 9.07395e-21)
(0.680336 -0.342404 0)
(0.0958053 -0.024133 0)
(-0.02728 -0.0252422 0)
(0.817164 -0.492457 0)
(0.907612 0.288568 -1.66247e-21)
(0.426029 0.192012 7.82682e-21)
(0.66597 -0.164358 0)
(0.282187 -0.218728 -2.64769e-21)
(0.908488 0.326943 5.2818e-21)
(0.951308 -0.492893 -1.46732e-21)
(-0.0293704 -0.0237508 4.24172e-21)
(0.756269 0.233107 0)
(0.785936 0.248707 -4.19877e-21)
(0.878789 -0.438772 1.12203e-21)
(0.903207 -0.451484 -3.31408e-21)
(0.0215019 -0.0288973 6.0999e-21)
(0.0126459 -0.0280855 5.62624e-21)
(0.414972 0.170251 0)
(0.640489 -0.171753 0)
(0.26409 -0.199613 -1.26427e-21)
(0.58482 0.308015 -3.02878e-21)
(0.837023 -0.22936 0)
(0.213619 -0.202515 -3.21616e-21)
(0.696759 0.214212 2.24413e-21)
(0.832021 -0.404176 0)
(0.0401953 -0.0381924 -5.61878e-21)
(0.30109 0.0188821 -5.42299e-21)
(0.436893 -0.113046 -2.60514e-21)
(0.288061 -0.137999 -2.72094e-21)
(0.799543 0.225473 0)
(0.890078 -0.480012 0)
(0.0155052 -0.0117336 9.09353e-21)
(0.332588 0.0872542 0)
(0.283849 -0.173366 -1.47661e-21)
(0.526589 -0.135834 0)
(0.691285 0.155295 5.07323e-21)
(0.780325 -0.434469 4.97414e-21)
(0.0604107 0.000315808 7.80357e-22)
(0.582885 0.289487 -3.06909e-21)
(0.822738 -0.242292 -4.96571e-21)
(0.190084 -0.184143 0)
(0.305529 0.0419406 5.37388e-21)
(0.287435 0.0445967 2.39722e-21)
(0.465934 -0.120727 -2.53364e-21)
(0.288619 -0.15275 5.3959e-21)
(0.471008 -0.104303 0)
(0.316843 -0.175532 9.5753e-21)
(0.253297 0.0601948 2.41468e-21)
(0.383491 -0.229452 -6.18354e-21)
(0.233022 0.0595035 -1.55355e-21)
(0.497023 -0.067317 0)
(0.431291 -0.259204 -3.14022e-21)
(0.508684 -0.0451007 5.37656e-21)
(0.484193 0.204576 -2.84643e-21)
(0.520212 0.213629 0)
(0.700917 -0.215311 -4.82687e-21)
(0.726118 -0.241625 3.76807e-21)
(0.208359 -0.170163 1.18933e-20)
(0.174683 -0.146976 -9.89626e-21)
(0.0461947 -0.0852024 0)
(1.00642 -0.358408 1.39396e-21)
(0.782818 0.381242 4.20253e-21)
(0.22552 0.152644 -1.01082e-20)
(0.735641 0.0251471 -4.51728e-21)
(0.676974 -0.504216 8.63956e-21)
(0.0295099 -0.0722785 4.73671e-21)
(0.0188539 -0.0646383 0)
(1.01618 -0.375921 -1.20584e-21)
(1.00529 -0.392364 -2.14399e-21)
(0.801843 0.386609 -1.06451e-20)
(0.811106 0.371143 5.51547e-21)
(0.320691 0.197123 0)
(0.52334 -0.402936 4.84085e-21)
(0.693195 -0.0497916 -1.05183e-21)
(0.313325 -0.0217601 -1.14153e-20)
(0.285458 -0.0994783 0)
(0.385507 -0.108017 8.92868e-21)
(0.809079 0.245997 1.97159e-21)
(0.908815 -0.473458 3.7415e-21)
(0.00828481 -0.0198517 0)
(0.373923 0.145751 0)
(0.294099 -0.214759 1.20452e-21)
(0.604239 -0.144685 4.28812e-21)
(0.605898 0.296895 0)
(0.841719 -0.258251 0)
(0.168442 -0.167846 7.73671e-22)
(0.745629 0.379033 0)
(0.744 0.362729 0)
(0.986672 -0.327371 -8.33924e-22)
(0.0837868 -0.114107 5.84178e-21)
(0.972681 -0.33686 2.26887e-21)
(0.0743437 -0.105435 -7.91224e-21)
(0.746597 0.25881 -4.2177e-21)
(0.893618 -0.411837 -3.57132e-21)
(0.0257382 -0.0470169 -2.65439e-21)
(0.683544 0.368092 -1.91659e-21)
(0.826558 -0.348065 0)
(-0.0164192 -0.00597864 3.14628e-21)
(0.498431 -0.410335 0)
(0.740321 -0.0727563 -3.1374e-21)