/*--------------------------------*- C++ -*----------------------------------*\
  =========                 |
  \\      /  F ield         | OpenFOAM: The Open Source CFD Toolbox
   \\    /   O peration     | Website:  https://openfoam.org
    \\  /    A nd           | Version:  6
     \\/     M anipulation  |
\*---------------------------------------------------------------------------*/
FoamFile
{
    version     2.0;
    format      ascii;
    class       volScalarField;
    location    "0";
    object      P_rec;
}
// * * * * * * * * * * * * * * * * * * * * * * * * * * * * * * * * * * * * * //

dimensions      [0 2 -2 0 0 0 0];

internalField   nonuniform List<scalar> 
918
(
0.823312
0.17496
0.0495521
0.803813
-0.00689417
0.173528
-0.577596
0.612324
0.80621
-0.0285459
0.064983
0.661981
0.247068
0.123691
-1.13723
0.0373246
0.734181
-0.710314
0.661499
0.0414164
0.442238
0.846743
0.787575
0.680633
0.686616
0.138801
0.202197
0.00689598
-0.0127339
-0.0166629
-0.0150248
0.00526163
-0.00598802
0.343132
0.159823
0.115424
0.675651
0.299285
-0.401148
-0.450251
-0.451472
-0.71083
0.635152
0.654077
-0.0600184
0.579897
0.551675
0.68363
0.794964
0.803868
0.790998
0.814073
0.825555
0.358036
-0.0588299
-0.111498
-0.00636768
0.00347237
0.142707
0.0599552
0.0489672
0.0858555
0.0549213
0.610635
0.657531
0.655189
0.670161
0.662482
0.151299
0.0308563
0.0325109
0.281499
0.255091
0.161094
0.232031
0.0934889
0.134541
0.0596471
0.0496055
-1.32997
-1.8958
-0.754539
-0.633702
0.0219433
0.0375122
0.0485264
0.73148
0.735233
0.717377
0.72655
0.707813
-0.578297
-0.792577
0.730555
0.714072
0.801942
0.771556
0.706289
0.67757
0.0344927
0.0264321
0.0281737
0.0500616
0.0310228
0.349756
0.394174
0.630063
0.676191
0.658447
0.66745
0.664073
0.42754
0.707666
0.709536
-0.0714959
0.154668
0.0729936
0.131173
0.208925
0.159349
0.302223
0.37949
-0.0222187
-0.00447675
0.0366217
-0.0103101
0.014345
0.669329
0.656668
0.685362
0.678096
0.692338
0.215252
0.0985663
0.384231
0.475013
-0.266485
-0.30505
-0.647871
-0.601677
-0.814083
0.829697
0.660825
0.688469
-0.124218
-0.0344838
-0.178016
0.0621736
0.0131599
0.703359
0.680533
0.687928
0.687894
0.68595
0.694122
0.809964
0.805695
0.811289
0.346465
0.414576
0.349696
0.293284
-0.351311
-0.167751
-0.347212
0.0310956
0.0352225
0.122705
0.161076
0.176614
0.134561
0.0239398
0.0452951
0.0455139
0.0212811
0.0356586
0.61839
0.594458
0.604015
0.620034
0.676361
0.670543
0.655011
0.667629
0.287734
0.26552
0.227622
0.206263
-2.49069
-4.16514
-0.503594
-0.388586
0.0118815
0.0110327
0.00411532
-0.045845
0.00140842
-0.0272186
0.11266
0.0971879
0.0399336
0.0722587
0.724426
0.737897
0.71925
0.765458
0.629064
0.646443
0.700991
0.711156
0.713165
0.711008
0.060057
0.0156415
0.0410406
0.513344
0.428341
0.470042
0.399925
0.305967
0.47263
0.517714
0.726906
0.725958
0.739199
-0.0591678
0.0519032
0.430164
0.264724
0.457322
0.36071
0.220507
0.124657
0.288098
0.624411
0.651331
0.641832
0.692052
0.683213
0.691538
0.684446
0.677185
0.679955
-0.0288841
-0.267183
0.729666
0.681606
0.538336
0.63457
0.831712
0.849452
0.716367
0.692256
0.709365
0.138288
0.118426
0.252665
0.220652
0.55639
0.566878
0.558886
0.208149
0.138052
0.192861
0.17103
0.142184
0.21132
-0.205282
-1.24812
-0.660421
-0.140533
-0.280296
-0.201395
0.0964042
0.146969
0.123724
0.732526
0.790228
0.446161
0.580141
0.545174
0.0181888
0.0372503
0.152935
0.0504973
0.0520444
0.14565
0.0861195
0.763556
0.730083
0.776659
0.811097
0.844747
0.25834
0.218502
0.175649
0.189348
0.184507
0.182728
0.789991
0.805031
0.825372
0.634805
0.666202
-0.0180611
0.00976519
0.767247
0.766887
-0.0121761
-0.00630805
-0.22345
-0.797076
0.272077
0.715788
0.68263
0.737742
-0.016965
0.300808
0.0615492
0.109196
0.0637458
0.646213
0.596593
0.557737
-0.0238912
0.0419494
0.0291007
-0.236319
0.71235
0.697544
0.723868
0.729549
0.758502
-0.00949759
-0.00228517
0.0386563
-0.0390379
0.0360389
0.0369509
0.683521
0.667231
-0.137274
0.709543
0.728035
0.745156
0.730793
0.746694
0.748089
-0.00510792
0.0390732
0.0344205
0.348299
0.483443
0.000416221
0.164162
-0.166853
-0.270292
-0.448913
-0.0825563
0.00978183
-0.0912134
0.0901941
0.647167
0.579949
0.350833
0.178829
0.310289
0.277823
0.698192
0.713871
0.69387
0.713449
0.720912
0.700484
0.733928
0.712894
0.717898
0.745133
0.0256817
0.0145037
0.0247364
-0.0644469
0.392614
0.421148
0.275417
0.331357
0.182166
0.0295732
0.069317
0.036105
0.0517523
0.0931473
0.155201
0.0652299
0.182802
0.0520003
0.1257
0.0369503
0.117438
0.0142732
0.6336
0.646263
0.635138
0.670135
0.63787
0.637091
0.609078
0.609839
0.63672
0.565816
0.565919
0.578892
0.0152981
0.00256721
0.0277104
0.0687135
0.0532471
-0.0380076
-0.0656401
-0.0620509
-0.0187775
-0.0562104
0.0279365
0.0102262
-0.144795
-0.324754
0.669915
0.570669
0.366735
0.699392
0.71894
0.69405
0.718963
0.750346
0.783977
0.755851
0.710894
0.677354
0.686262
0.661977
0.680656
-0.0763905
-0.164419
0.0394321
-0.0604839
0.334774
0.707139
0.498687
0.480764
0.464622
0.601071
-0.191362
-0.257346
0.219185
0.242066
-0.627045
-0.500809
-0.627098
-0.3234
-0.246955
-0.0640944
0.0770265
0.137829
0.0541767
-0.034442
0.0561071
0.596484
0.0739121
0.115508
0.335799
0.245261
0.243727
0.666688
0.684206
0.547497
0.516703
0.622388
0.595105
0.600908
0.611923
0.629581
0.58398
0.374419
0.396846
0.336912
0.695731
0.608935
0.625305
0.550983
0.71565
0.71891
0.704505
0.704369
0.724922
0.694782
0.684243
0.673833
0.674439
0.70058
0.702343
0.682586
0.0408617
0.0456942
-0.00989282
-0.1445
-0.0512197
-0.134043
-0.00915098
0.208926
0.0877983
0.275489
0.412365
0.226235
-0.0656178
0.0890645
0.0492629
0.270441
0.192256
0.165679
0.224915
0.229631
0.187527
0.290389
0.263423
0.110973
0.122552
0.0891236
0.0432252
0.199864
0.147637
0.199583
0.0983014
0.131708
0.0755058
0.0481985
0.0980492
0.167025
0.151957
0.100139
0.0359628
0.0394897
-0.0225298
-0.014509
0.197536
0.0559584
0.677246
0.664564
0.668687
0.647747
0.674887
0.675953
0.617519
0.666827
0.671322
0.659877
0.612862
0.59798
0.599449
0.623081
0.631998
0.630725
0.690669
0.677697
0.63501
0.655879
0.595352
0.617369
0.56466
0.571209
0.606614
-0.0729682
-0.0213761
-0.0628161
-0.0546696
0.00212332
0.0281935
0.107389
0.070701
0.147071
0.0970444
0.0977295
-0.0085981
0.0362351
0.020722
0.14529
-0.130251
-0.201426
-0.289791
0.676612
0.734005
0.603284
0.526727
0.579718
0.617493
0.659463
0.45023
0.48844
0.529713
0.74446
0.76606
0.677498
0.669832
0.709076
0.702251
0.691109
0.0507239
0.217146
0.268829
0.353807
0.414276
0.398828
0.432332
0.428636
0.512653
0.483675
0.690237
0.706159
0.686017
0.71206
0.721474
0.537387
0.61691
0.661474
0.633056
0.633773
0.650238
0.641209
0.631927
0.608487
0.612383
0.611222
0.557425
0.588399
0.5707
0.577732
0.62838
0.618725
0.626918
0.621632
0.666139
0.645953
0.660749
0.693833
0.668603
0.592963
0.57021
0.588
0.597064
0.598327
0.58417
0.584541
0.4326
0.536125
0.357837
0.0840009
0.213536
0.0929866
0.0379658
0.148891
0.269362
-0.164184
-0.13085
-0.509535
0.546282
-0.199076
-0.0431266
-0.306829
0.48097
0.487464
0.435268
0.359574
0.422881
0.676205
0.693637
0.702057
0.583618
0.574998
0.543005
0.560274
0.620604
0.571237
0.562572
0.537343
0.382858
0.440164
0.55088
0.511582
0.459556
0.483536
0.526572
0.44093
0.462206
0.546235
0.551836
0.546477
0.608854
0.655116
0.656658
0.624516
0.544531
0.583209
0.569786
0.615775
0.640904
0.630503
0.704593
0.687553
0.686373
0.680058
0.682103
0.69383
0.669676
0.709257
0.720039
0.737235
0.719418
0.0727186
0.0811723
0.0665758
0.0275717
0.154531
0.0823271
-0.0160821
-0.0282275
0.115562
0.0837663
0.0592483
0.0338143
0.142647
0.130304
0.207308
0.247448
0.23903
0.166494
0.326561
0.418557
0.424606
0.405789
0.305622
0.314033
0.371207
0.113933
0.14047
0.123023
0.0980363
0.118727
0.0306756
0.0879567
0.0723944
0.118513
0.108369
-0.0594396
0.0584208
0.0994781
-0.027274
0.0346222
0.0639266
0.658881
0.630774
0.58698
0.56384
0.592312
0.594217
0.663755
0.661989
0.685145
0.678966
0.671948
0.662105
0.676124
-0.0154135
0.0600256
0.0669839
0.108105
0.0184196
0.00489715
0.0287406
0.366351
0.213519
0.298918
0.142346
-0.0335349
0.035636
0.612529
0.72367
0.70619
0.747143
0.644003
0.621375
0.718716
0.777762
0.523343
0.594596
0.521012
0.716314
0.710234
0.747848
0.625167
0.364733
0.420159
0.573193
0.354504
0.301808
0.454379
0.370157
0.381012
0.412911
0.527772
0.439137
0.450837
0.516027
0.482304
0.485379
0.549483
0.480813
0.55837
0.364957
0.365835
0.281766
0.658305
0.690082
0.714385
0.678896
0.701538
0.661548
0.68122
0.690166
0.709154
0.694709
-0.419394
-0.205628
-1.05907
-0.655415
-0.326094
0.516015
0.372181
0.521285
0.584606
0.282272
0.427922
0.556608
0.560603
0.585221
0.546378
0.50391
0.57476
0.553195
0.545061
0.463843
0.38273
0.652308
0.654143
0.646224
0.667557
0.647281
0.665848
0.631408
0.663125
0.651875
0.68406
0.691581
0.702666
0.193851
0.162794
0.204176
0.18667
0.184515
0.203407
-0.0459999
-0.0239912
0.123388
0.0709878
0.0410383
0.0961067
0.359657
0.365369
0.226159
0.296639
0.111922
0.00627946
-0.0146451
0.118177
0.245203
0.274904
0.553358
0.637022
0.573032
0.6259
0.547359
0.624041
0.667558
0.607556
0.665628
0.607584
0.635131
0.182721
-0.0420478
-0.0456232
0.21235
0.538635
0.531467
0.355285
0.0109969
0.0749185
0.60753
0.572995
0.559362
0.592959
0.568339
0.136442
0.206907
0.23802
0.332196
0.433565
0.330864
0.352302
0.353137
0.365705
)
;

boundaryField
{
    wall-4
    {
        type            calculated;
        value           nonuniform List<scalar> 
100
(
0.823312
0.17496
0.0495521
0.803813
0.173528
-0.577596
0.612324
-0.0285459
0.064983
0.661981
0.247068
0.123691
-1.13723
0.734181
-0.710314
0.661499
0.0414164
0.442238
0.680633
0.686616
0.138801
0.202197
0.00689598
0.343132
0.675651
-0.450251
-0.71083
0.654077
-0.0600184
0.551675
0.68363
-0.111498
0.00347237
0.0489672
0.0549213
0.610635
0.655189
0.662482
0.255091
0.232031
0.134541
0.0496055
-1.8958
-0.633702
0.735233
0.72655
-0.792577
0.714072
0.67757
0.0264321
0.0310228
0.394174
0.676191
0.664073
0.42754
0.709536
-0.0714959
0.131173
0.159349
0.37949
0.656668
0.685362
0.692338
-0.30505
-0.814083
0.688469
-0.178016
0.0131599
0.687928
0.694122
-0.347212
0.0352225
0.0455139
0.0356586
0.594458
0.620034
0.676361
0.667629
0.206263
-0.388586
0.737897
0.700991
0.711008
0.0410406
0.470042
0.305967
0.517714
0.739199
0.0519032
0.36071
0.641832
0.691538
0.679955
0.709365
0.118426
0.558886
0.17103
-0.201395
0.0520444
0.175649
)
;
    }
    velocity-inlet-5
    {
        type            calculated;
        value           nonuniform List<scalar> 8(0.823312 0.803813 0.80621 0.846743 0.803868 0.825555 0.801942 0.811289);
    }
    velocity-inlet-6
    {
        type            calculated;
        value           nonuniform List<scalar> 4(0.17496 0.173528 0.115424 0.0325109);
    }
    pressure-outlet-7
    {
        type            calculated;
        value           uniform 0;
    }
    wall-8
    {
        type            calculated;
        value           nonuniform List<scalar> 
34
(
-0.00689417
0.0373246
-0.00598802
0.299285
0.358036
0.142707
0.0485264
0.707813
0.014345
0.0985663
0.475013
0.829697
0.414576
0.293284
0.161076
0.134561
-4.16514
0.11266
0.0722587
0.765458
0.646443
-0.267183
0.729666
0.63457
0.849452
0.220652
-0.660421
0.123724
0.790228
0.545174
0.776659
0.844747
0.182728
0.825372
)
;
    }
    frontAndBackPlanes
    {
        type            empty;
    }
}

