/*--------------------------------*- C++ -*----------------------------------*\
  =========                 |
  \\      /  F ield         | OpenFOAM: The Open Source CFD Toolbox
   \\    /   O peration     | Website:  https://openfoam.org
    \\  /    A nd           | Version:  6
     \\/     M anipulation  |
\*---------------------------------------------------------------------------*/
FoamFile
{
    version     2.0;
    format      ascii;
    class       volScalarField;
    location    "./ITHACAoutput/Offline/1";
    object      P_rec;
}
// * * * * * * * * * * * * * * * * * * * * * * * * * * * * * * * * * * * * * //

dimensions      [0 2 -2 0 0 0 0];

internalField   nonuniform List<scalar> 
40000
(
0.0146639
0.0146639
0.0146629
0.0146608
0.0146575
0.0146534
0.0146486
0.0146433
0.0146378
0.014632
0.0146263
0.0146206
0.014615
0.0146097
0.0146046
0.0145998
0.0145953
0.0145912
0.0145874
0.014584
0.0145809
0.0145782
0.0145758
0.0145738
0.0145721
0.0145707
0.0145696
0.0145688
0.0145684
0.0145681
0.0145682
0.0145686
0.0145692
0.01457
0.0145711
0.0145724
0.014574
0.0145758
0.0145779
0.0145802
0.0145827
0.0145855
0.0145885
0.0145918
0.0145953
0.0145991
0.0146031
0.0146074
0.014612
0.0146169
0.014622
0.0146274
0.0146331
0.0146391
0.0146454
0.014652
0.0146589
0.014666
0.0146735
0.0146813
0.0146894
0.0146978
0.0147064
0.0147154
0.0147246
0.0147341
0.0147438
0.0147538
0.014764
0.0147744
0.0147851
0.0147959
0.0148069
0.014818
0.0148293
0.0148406
0.0148521
0.0148636
0.0148751
0.0148867
0.0148982
0.0149096
0.014921
0.0149323
0.0149435
0.0149545
0.0149653
0.0149758
0.0149862
0.0149962
0.0150059
0.0150153
0.0150243
0.0150329
0.015041
0.0150488
0.015056
0.0150628
0.015069
0.0150746
0.0150797
0.0150843
0.0150882
0.0150915
0.0150942
0.0150962
0.0150976
0.0150983
0.0150984
0.0150978
0.0150966
0.0150946
0.0150921
0.0150888
0.0150849
0.0150803
0.0150751
0.0150693
0.0150628
0.0150557
0.015048
0.0150397
0.0150309
0.0150215
0.0150116
0.0150011
0.0149902
0.0149787
0.0149668
0.0149545
0.0149417
0.0149285
0.0149149
0.0149009
0.0148865
0.0148718
0.0148568
0.0148415
0.0148258
0.0148099
0.0147938
0.0147773
0.0147607
0.0147438
0.0147267
0.0147094
0.014692
0.0146744
0.0146567
0.0146389
0.0146209
0.0146029
0.0145848
0.0145666
0.0145485
0.0145303
0.0145121
0.014494
0.0144759
0.014458
0.0144401
0.0144224
0.0144048
0.0143875
0.0143703
0.0143534
0.0143368
0.0143206
0.0143046
0.014289
0.0142739
0.0142592
0.0142449
0.0142312
0.014218
0.0142053
0.0141933
0.0141819
0.0141711
0.014161
0.0141516
0.014143
0.0141351
0.014128
0.0141217
0.0141163
0.0141116
0.0141077
0.0141047
0.0141025
0.0141011
0.0141005
0.0141005
0.0141013
0.0141026
0.0141043
0.0141062
0.0141081
0.0141097
0.0141105
0.014664
0.0146639
0.0146631
0.0146611
0.0146581
0.0146543
0.01465
0.0146451
0.01464
0.0146347
0.0146293
0.014624
0.0146188
0.0146138
0.014609
0.0146044
0.0146001
0.0145962
0.0145926
0.0145892
0.0145863
0.0145836
0.0145813
0.0145793
0.0145776
0.0145762
0.0145751
0.0145743
0.0145738
0.0145735
0.0145735
0.0145738
0.0145743
0.0145751
0.0145761
0.0145774
0.0145788
0.0145806
0.0145825
0.0145847
0.0145871
0.0145898
0.0145927
0.0145959
0.0145992
0.0146029
0.0146068
0.014611
0.0146154
0.0146202
0.0146252
0.0146304
0.014636
0.0146419
0.014648
0.0146544
0.0146612
0.0146682
0.0146756
0.0146832
0.0146911
0.0146993
0.0147078
0.0147166
0.0147257
0.014735
0.0147445
0.0147543
0.0147644
0.0147746
0.0147851
0.0147957
0.0148066
0.0148175
0.0148286
0.0148398
0.0148511
0.0148624
0.0148738
0.0148852
0.0148966
0.0149079
0.0149191
0.0149302
0.0149412
0.0149521
0.0149627
0.0149732
0.0149833
0.0149932
0.0150028
0.015012
0.0150209
0.0150294
0.0150374
0.0150451
0.0150522
0.0150588
0.0150649
0.0150705
0.0150755
0.0150799
0.0150838
0.015087
0.0150896
0.0150916
0.0150929
0.0150936
0.0150936
0.015093
0.0150917
0.0150897
0.0150871
0.0150838
0.0150799
0.0150753
0.0150701
0.0150642
0.0150578
0.0150507
0.015043
0.0150348
0.0150259
0.0150166
0.0150067
0.0149963
0.0149854
0.014974
0.0149621
0.0149498
0.0149371
0.014924
0.0149104
0.0148965
0.0148822
0.0148676
0.0148527
0.0148375
0.014822
0.0148062
0.0147901
0.0147738
0.0147572
0.0147405
0.0147235
0.0147064
0.0146891
0.0146717
0.0146541
0.0146364
0.0146186
0.0146007
0.0145828
0.0145648
0.0145468
0.0145287
0.0145107
0.0144928
0.0144749
0.0144571
0.0144394
0.0144219
0.0144045
0.0143873
0.0143704
0.0143537
0.0143373
0.0143212
0.0143055
0.0142901
0.0142751
0.0142606
0.0142465
0.014233
0.0142199
0.0142074
0.0141956
0.0141843
0.0141737
0.0141637
0.0141545
0.014146
0.0141382
0.0141311
0.0141249
0.0141194
0.0141147
0.0141109
0.0141078
0.0141055
0.0141039
0.0141031
0.014103
0.0141034
0.0141044
0.0141058
0.0141074
0.0141091
0.0141105
0.0141113
0.0146649
0.0146648
0.0146639
0.014662
0.0146593
0.0146559
0.014652
0.0146476
0.014643
0.0146382
0.0146333
0.0146284
0.0146236
0.0146189
0.0146144
0.0146102
0.0146062
0.0146024
0.014599
0.0145958
0.014593
0.0145904
0.0145882
0.0145862
0.0145845
0.0145831
0.014582
0.0145812
0.0145806
0.0145803
0.0145802
0.0145804
0.0145808
0.0145815
0.0145824
0.0145835
0.0145849
0.0145865
0.0145883
0.0145904
0.0145926
0.0145952
0.0145979
0.0146009
0.0146042
0.0146076
0.0146114
0.0146154
0.0146197
0.0146242
0.0146291
0.0146342
0.0146395
0.0146452
0.0146512
0.0146574
0.014664
0.0146708
0.014678
0.0146854
0.0146931
0.0147011
0.0147094
0.014718
0.0147268
0.0147359
0.0147453
0.0147549
0.0147648
0.0147748
0.0147851
0.0147955
0.0148061
0.0148169
0.0148278
0.0148388
0.0148498
0.014861
0.0148721
0.0148833
0.0148945
0.0149056
0.0149167
0.0149276
0.0149384
0.0149491
0.0149596
0.0149699
0.0149799
0.0149896
0.014999
0.0150081
0.0150168
0.0150252
0.0150331
0.0150406
0.0150476
0.0150541
0.0150601
0.0150655
0.0150704
0.0150748
0.0150785
0.0150816
0.0150842
0.0150861
0.0150873
0.0150879
0.0150879
0.0150872
0.0150858
0.0150838
0.0150811
0.0150778
0.0150739
0.0150692
0.015064
0.0150581
0.0150517
0.0150446
0.0150369
0.0150287
0.0150199
0.0150106
0.0150007
0.0149903
0.0149795
0.0149681
0.0149564
0.0149441
0.0149315
0.0149184
0.014905
0.0148912
0.014877
0.0148625
0.0148477
0.0148325
0.0148171
0.0148015
0.0147855
0.0147694
0.014753
0.0147364
0.0147196
0.0147026
0.0146854
0.0146682
0.0146508
0.0146332
0.0146156
0.0145979
0.0145802
0.0145624
0.0145446
0.0145267
0.0145089
0.0144912
0.0144735
0.0144559
0.0144385
0.0144212
0.014404
0.0143871
0.0143704
0.0143539
0.0143377
0.0143218
0.0143063
0.0142912
0.0142764
0.0142621
0.0142483
0.0142349
0.0142221
0.0142098
0.0141981
0.014187
0.0141766
0.0141668
0.0141577
0.0141493
0.0141416
0.0141346
0.0141284
0.014123
0.0141183
0.0141144
0.0141112
0.0141088
0.0141071
0.0141061
0.0141057
0.0141059
0.0141066
0.0141077
0.014109
0.0141105
0.0141118
0.0141128
0.0146671
0.0146668
0.0146658
0.0146639
0.0146613
0.0146581
0.0146544
0.0146503
0.014646
0.0146416
0.014637
0.0146325
0.014628
0.0146236
0.0146194
0.0146154
0.0146117
0.0146081
0.0146048
0.0146018
0.0145991
0.0145966
0.0145944
0.0145925
0.0145908
0.0145895
0.0145883
0.0145875
0.0145869
0.0145865
0.0145864
0.0145865
0.0145868
0.0145874
0.0145882
0.0145892
0.0145905
0.0145919
0.0145936
0.0145955
0.0145977
0.0146
0.0146027
0.0146055
0.0146086
0.0146119
0.0146155
0.0146194
0.0146235
0.0146279
0.0146325
0.0146374
0.0146427
0.0146481
0.0146539
0.01466
0.0146664
0.014673
0.01468
0.0146872
0.0146948
0.0147026
0.0147107
0.0147191
0.0147277
0.0147367
0.0147458
0.0147553
0.0147649
0.0147748
0.0147848
0.0147951
0.0148055
0.0148161
0.0148269
0.0148377
0.0148486
0.0148595
0.0148706
0.0148816
0.0148926
0.0149036
0.0149145
0.0149253
0.014936
0.0149465
0.0149569
0.014967
0.0149769
0.0149865
0.0149958
0.0150048
0.0150134
0.0150216
0.0150294
0.0150368
0.0150437
0.0150501
0.015056
0.0150614
0.0150662
0.0150705
0.0150741
0.0150772
0.0150797
0.0150815
0.0150827
0.0150832
0.0150831
0.0150824
0.015081
0.0150789
0.0150762
0.0150728
0.0150688
0.0150642
0.0150589
0.015053
0.0150465
0.0150395
0.0150318
0.0150236
0.0150148
0.0150054
0.0149956
0.0149853
0.0149744
0.0149631
0.0149514
0.0149392
0.0149266
0.0149136
0.0149002
0.0148865
0.0148724
0.014858
0.0148432
0.0148282
0.0148129
0.0147973
0.0147815
0.0147654
0.0147491
0.0147327
0.014716
0.0146991
0.0146821
0.014665
0.0146477
0.0146303
0.0146129
0.0145953
0.0145777
0.0145601
0.0145425
0.0145248
0.0145072
0.0144896
0.0144721
0.0144547
0.0144374
0.0144203
0.0144033
0.0143866
0.01437
0.0143538
0.0143378
0.0143221
0.0143068
0.0142918
0.0142772
0.0142631
0.0142495
0.0142363
0.0142236
0.0142115
0.0142
0.014189
0.0141787
0.014169
0.01416
0.0141517
0.0141441
0.0141372
0.014131
0.0141256
0.0141209
0.0141169
0.0141137
0.0141112
0.0141094
0.0141083
0.0141077
0.0141078
0.0141083
0.0141092
0.0141105
0.0141119
0.0141135
0.0141147
0.0146704
0.0146698
0.0146685
0.0146665
0.0146638
0.0146607
0.0146572
0.0146533
0.0146492
0.014645
0.0146408
0.0146365
0.0146323
0.0146282
0.0146242
0.0146204
0.0146168
0.0146135
0.0146103
0.0146074
0.0146048
0.0146024
0.0146003
0.0145985
0.0145968
0.0145955
0.0145943
0.0145935
0.0145928
0.0145924
0.0145922
0.0145923
0.0145925
0.014593
0.0145937
0.0145946
0.0145957
0.0145971
0.0145986
0.0146004
0.0146024
0.0146046
0.0146071
0.0146098
0.0146127
0.0146159
0.0146193
0.014623
0.014627
0.0146312
0.0146356
0.0146404
0.0146454
0.0146507
0.0146563
0.0146622
0.0146684
0.0146749
0.0146817
0.0146888
0.0146961
0.0147037
0.0147117
0.0147199
0.0147284
0.0147371
0.0147461
0.0147554
0.0147649
0.0147746
0.0147845
0.0147946
0.0148049
0.0148153
0.0148259
0.0148366
0.0148473
0.0148582
0.014869
0.0148799
0.0148908
0.0149017
0.0149125
0.0149232
0.0149338
0.0149442
0.0149544
0.0149645
0.0149743
0.0149838
0.014993
0.0150019
0.0150104
0.0150186
0.0150263
0.0150336
0.0150405
0.0150468
0.0150526
0.015058
0.0150627
0.0150669
0.0150705
0.0150735
0.0150759
0.0150777
0.0150788
0.0150793
0.0150791
0.0150783
0.0150769
0.0150748
0.015072
0.0150686
0.0150646
0.0150599
0.0150546
0.0150487
0.0150422
0.0150351
0.0150274
0.0150191
0.0150104
0.015001
0.0149912
0.0149808
0.01497
0.0149587
0.014947
0.0149348
0.0149223
0.0149093
0.014896
0.0148823
0.0148682
0.0148539
0.0148392
0.0148242
0.014809
0.0147935
0.0147778
0.0147618
0.0147456
0.0147292
0.0147127
0.0146959
0.014679
0.014662
0.0146449
0.0146276
0.0146103
0.0145929
0.0145754
0.0145579
0.0145404
0.0145229
0.0145054
0.014488
0.0144706
0.0144534
0.0144362
0.0144193
0.0144024
0.0143859
0.0143695
0.0143533
0.0143375
0.014322
0.0143068
0.014292
0.0142776
0.0142636
0.0142501
0.0142371
0.0142245
0.0142126
0.0142012
0.0141903
0.0141801
0.0141705
0.0141616
0.0141534
0.0141458
0.014139
0.0141328
0.0141274
0.0141227
0.0141188
0.0141155
0.0141129
0.014111
0.0141098
0.0141091
0.0141091
0.0141095
0.0141104
0.0141117
0.0141132
0.0141151
0.0141167
0.0146746
0.0146736
0.0146719
0.0146697
0.0146669
0.0146637
0.0146602
0.0146565
0.0146526
0.0146486
0.0146445
0.0146404
0.0146364
0.0146325
0.0146288
0.0146252
0.0146218
0.0146186
0.0146156
0.0146128
0.0146103
0.014608
0.0146059
0.0146041
0.0146025
0.0146012
0.0146001
0.0145992
0.0145985
0.014598
0.0145978
0.0145978
0.0145979
0.0145983
0.0145989
0.0145997
0.0146008
0.014602
0.0146034
0.014605
0.0146069
0.014609
0.0146113
0.0146138
0.0146166
0.0146196
0.0146229
0.0146264
0.0146302
0.0146342
0.0146385
0.0146431
0.014648
0.0146531
0.0146585
0.0146642
0.0146702
0.0146765
0.0146831
0.01469
0.0146972
0.0147047
0.0147124
0.0147205
0.0147288
0.0147374
0.0147463
0.0147553
0.0147647
0.0147743
0.014784
0.014794
0.0148041
0.0148144
0.0148249
0.0148354
0.0148461
0.0148568
0.0148676
0.0148784
0.0148892
0.0149
0.0149107
0.0149213
0.0149318
0.0149422
0.0149523
0.0149623
0.014972
0.0149815
0.0149906
0.0149995
0.015008
0.0150161
0.0150238
0.015031
0.0150378
0.0150441
0.0150499
0.0150551
0.0150599
0.015064
0.0150676
0.0150705
0.0150729
0.0150746
0.0150757
0.0150761
0.0150759
0.0150751
0.0150736
0.0150714
0.0150686
0.0150652
0.0150611
0.0150564
0.0150511
0.0150451
0.0150386
0.0150314
0.0150237
0.0150154
0.0150066
0.0149973
0.0149874
0.0149771
0.0149662
0.0149549
0.0149432
0.0149311
0.0149185
0.0149055
0.0148922
0.0148786
0.0148646
0.0148502
0.0148356
0.0148207
0.0148055
0.0147901
0.0147744
0.0147585
0.0147424
0.0147261
0.0147096
0.014693
0.0146761
0.0146592
0.0146422
0.014625
0.0146078
0.0145905
0.0145731
0.0145557
0.0145383
0.0145209
0.0145036
0.0144863
0.014469
0.0144519
0.0144349
0.0144181
0.0144014
0.0143849
0.0143687
0.0143526
0.0143369
0.0143216
0.0143065
0.0142918
0.0142775
0.0142637
0.0142503
0.0142374
0.014225
0.0142131
0.0142018
0.014191
0.0141809
0.0141714
0.0141626
0.0141544
0.0141469
0.0141401
0.014134
0.0141285
0.0141239
0.0141199
0.0141166
0.0141139
0.014112
0.0141107
0.01411
0.0141099
0.0141103
0.0141112
0.0141126
0.0141143
0.0141165
0.0141184
0.0146795
0.0146781
0.0146759
0.0146733
0.0146704
0.0146671
0.0146636
0.0146599
0.014656
0.0146521
0.0146482
0.0146443
0.0146405
0.0146368
0.0146332
0.0146298
0.0146265
0.0146234
0.0146206
0.0146179
0.0146155
0.0146133
0.0146113
0.0146095
0.014608
0.0146066
0.0146055
0.0146046
0.0146039
0.0146034
0.0146031
0.014603
0.0146031
0.0146034
0.0146039
0.0146046
0.0146055
0.0146066
0.0146079
0.0146094
0.0146111
0.0146131
0.0146152
0.0146176
0.0146202
0.0146231
0.0146262
0.0146295
0.0146331
0.014637
0.0146411
0.0146455
0.0146502
0.0146551
0.0146604
0.0146659
0.0146718
0.0146779
0.0146843
0.0146911
0.0146981
0.0147054
0.014713
0.0147209
0.0147291
0.0147375
0.0147462
0.0147552
0.0147644
0.0147738
0.0147835
0.0147933
0.0148034
0.0148136
0.0148239
0.0148344
0.014845
0.0148556
0.0148663
0.0148771
0.0148878
0.0148985
0.0149091
0.0149197
0.0149302
0.0149405
0.0149506
0.0149605
0.0149702
0.0149797
0.0149888
0.0149976
0.0150061
0.0150141
0.0150218
0.015029
0.0150358
0.0150421
0.0150478
0.0150531
0.0150577
0.0150619
0.0150654
0.0150683
0.0150706
0.0150723
0.0150734
0.0150738
0.0150736
0.0150727
0.0150711
0.015069
0.0150661
0.0150626
0.0150585
0.0150537
0.0150484
0.0150424
0.0150358
0.0150286
0.0150209
0.0150125
0.0150037
0.0149943
0.0149844
0.014974
0.0149632
0.0149519
0.0149401
0.0149279
0.0149154
0.0149024
0.0148891
0.0148754
0.0148614
0.0148471
0.0148325
0.0148176
0.0148025
0.0147871
0.0147714
0.0147556
0.0147395
0.0147232
0.0147068
0.0146902
0.0146735
0.0146566
0.0146396
0.0146226
0.0146054
0.0145882
0.0145709
0.0145536
0.0145363
0.014519
0.0145017
0.0144845
0.0144674
0.0144503
0.0144334
0.0144167
0.0144001
0.0143837
0.0143676
0.0143517
0.0143361
0.0143208
0.0143058
0.0142913
0.0142771
0.0142633
0.01425
0.0142372
0.0142249
0.0142131
0.0142018
0.0141912
0.0141811
0.0141717
0.0141629
0.0141547
0.0141473
0.0141405
0.0141344
0.014129
0.0141243
0.0141203
0.014117
0.0141143
0.0141124
0.014111
0.0141103
0.0141102
0.0141107
0.0141117
0.0141131
0.0141151
0.0141176
0.0141198
0.014685
0.0146831
0.0146803
0.0146774
0.0146742
0.0146707
0.0146671
0.0146634
0.0146596
0.0146557
0.0146519
0.0146481
0.0146444
0.0146408
0.0146374
0.0146341
0.014631
0.014628
0.0146253
0.0146228
0.0146204
0.0146183
0.0146163
0.0146146
0.0146131
0.0146118
0.0146107
0.0146097
0.014609
0.0146085
0.0146081
0.014608
0.014608
0.0146082
0.0146086
0.0146092
0.01461
0.0146109
0.0146121
0.0146135
0.0146151
0.0146168
0.0146189
0.0146211
0.0146235
0.0146262
0.0146291
0.0146323
0.0146358
0.0146394
0.0146434
0.0146476
0.0146521
0.0146569
0.014662
0.0146674
0.014673
0.014679
0.0146853
0.0146918
0.0146987
0.0147059
0.0147133
0.0147211
0.0147291
0.0147375
0.014746
0.0147549
0.014764
0.0147733
0.0147829
0.0147927
0.0148026
0.0148127
0.014823
0.0148334
0.0148439
0.0148545
0.0148652
0.0148759
0.0148866
0.0148973
0.0149079
0.0149184
0.0149289
0.0149392
0.0149493
0.0149592
0.0149689
0.0149784
0.0149875
0.0149963
0.0150048
0.0150128
0.0150205
0.0150277
0.0150345
0.0150408
0.0150465
0.0150518
0.0150565
0.0150606
0.0150641
0.015067
0.0150693
0.015071
0.015072
0.0150724
0.0150721
0.0150712
0.0150696
0.0150674
0.0150645
0.015061
0.0150568
0.015052
0.0150466
0.0150406
0.0150339
0.0150267
0.0150189
0.0150105
0.0150016
0.0149922
0.0149823
0.0149718
0.0149609
0.0149496
0.0149378
0.0149256
0.014913
0.0149
0.0148866
0.0148729
0.0148589
0.0148446
0.01483
0.0148151
0.0147999
0.0147845
0.0147689
0.014753
0.014737
0.0147208
0.0147044
0.0146878
0.0146711
0.0146543
0.0146373
0.0146203
0.0146032
0.014586
0.0145688
0.0145515
0.0145343
0.014517
0.0144998
0.0144827
0.0144656
0.0144487
0.0144318
0.0144151
0.0143986
0.0143823
0.0143662
0.0143504
0.0143349
0.0143197
0.0143048
0.0142903
0.0142762
0.0142625
0.0142492
0.0142365
0.0142242
0.0142125
0.0142013
0.0141907
0.0141807
0.0141713
0.0141625
0.0141544
0.014147
0.0141402
0.0141341
0.0141288
0.014124
0.01412
0.0141167
0.0141141
0.0141121
0.0141108
0.01411
0.01411
0.0141105
0.0141116
0.0141132
0.0141153
0.0141182
0.0141207
0.0146908
0.0146884
0.0146851
0.0146817
0.0146782
0.0146745
0.0146708
0.014667
0.0146631
0.0146593
0.0146555
0.0146518
0.0146482
0.0146447
0.0146414
0.0146382
0.0146352
0.0146324
0.0146298
0.0146273
0.0146251
0.014623
0.0146211
0.0146194
0.0146179
0.0146166
0.0146155
0.0146146
0.0146138
0.0146132
0.0146128
0.0146126
0.0146126
0.0146127
0.014613
0.0146135
0.0146141
0.014615
0.014616
0.0146173
0.0146187
0.0146203
0.0146222
0.0146243
0.0146265
0.0146291
0.0146318
0.0146348
0.0146381
0.0146416
0.0146454
0.0146495
0.0146538
0.0146584
0.0146633
0.0146685
0.0146741
0.0146799
0.014686
0.0146924
0.0146992
0.0147062
0.0147135
0.0147211
0.0147291
0.0147373
0.0147458
0.0147545
0.0147636
0.0147728
0.0147823
0.014792
0.0148019
0.014812
0.0148222
0.0148326
0.0148431
0.0148537
0.0148643
0.014875
0.0148857
0.0148964
0.014907
0.0149176
0.0149281
0.0149384
0.0149485
0.0149585
0.0149682
0.0149777
0.0149868
0.0149957
0.0150042
0.0150123
0.01502
0.0150272
0.015034
0.0150403
0.0150461
0.0150514
0.0150561
0.0150602
0.0150637
0.0150666
0.0150689
0.0150706
0.0150716
0.015072
0.0150717
0.0150708
0.0150692
0.0150669
0.015064
0.0150604
0.0150562
0.0150514
0.0150459
0.0150398
0.0150331
0.0150258
0.0150179
0.0150095
0.0150005
0.014991
0.014981
0.0149705
0.0149595
0.0149481
0.0149363
0.014924
0.0149113
0.0148983
0.0148849
0.0148711
0.0148571
0.0148427
0.014828
0.0148131
0.0147979
0.0147825
0.0147668
0.0147509
0.0147349
0.0147186
0.0147022
0.0146857
0.0146689
0.0146521
0.0146352
0.0146182
0.0146011
0.0145839
0.0145667
0.0145495
0.0145323
0.0145151
0.0144979
0.0144808
0.0144638
0.0144468
0.01443
0.0144134
0.0143969
0.0143807
0.0143646
0.0143489
0.0143334
0.0143182
0.0143034
0.0142889
0.0142748
0.0142612
0.014248
0.0142353
0.0142231
0.0142114
0.0142002
0.0141896
0.0141797
0.0141703
0.0141616
0.0141535
0.014146
0.0141393
0.0141332
0.0141278
0.0141231
0.0141191
0.0141158
0.0141131
0.0141111
0.0141098
0.0141092
0.0141091
0.0141097
0.0141109
0.0141127
0.0141151
0.0141182
0.014121
0.0146969
0.0146939
0.01469
0.0146862
0.0146823
0.0146784
0.0146745
0.0146706
0.0146666
0.0146628
0.014659
0.0146554
0.0146518
0.0146484
0.0146452
0.0146421
0.0146392
0.0146365
0.0146339
0.0146316
0.0146294
0.0146274
0.0146255
0.0146239
0.0146224
0.0146211
0.01462
0.0146191
0.0146183
0.0146177
0.0146172
0.0146169
0.0146168
0.0146168
0.014617
0.0146174
0.014618
0.0146187
0.0146196
0.0146207
0.014622
0.0146235
0.0146252
0.0146271
0.0146292
0.0146316
0.0146342
0.0146371
0.0146401
0.0146435
0.0146471
0.014651
0.0146552
0.0146597
0.0146644
0.0146695
0.0146748
0.0146805
0.0146865
0.0146928
0.0146994
0.0147063
0.0147136
0.0147211
0.0147289
0.014737
0.0147455
0.0147541
0.0147631
0.0147723
0.0147818
0.0147914
0.0148013
0.0148114
0.0148216
0.014832
0.0148425
0.0148531
0.0148638
0.0148745
0.0148852
0.014896
0.0149066
0.0149173
0.0149278
0.0149381
0.0149484
0.0149584
0.0149682
0.0149777
0.0149869
0.0149958
0.0150044
0.0150125
0.0150203
0.0150276
0.0150345
0.0150408
0.0150466
0.0150519
0.0150567
0.0150608
0.0150644
0.0150673
0.0150696
0.0150713
0.0150723
0.0150727
0.0150724
0.0150714
0.0150698
0.0150675
0.0150646
0.015061
0.0150567
0.0150518
0.0150463
0.0150401
0.0150333
0.015026
0.015018
0.0150095
0.0150005
0.0149909
0.0149808
0.0149702
0.0149592
0.0149476
0.0149357
0.0149233
0.0149106
0.0148974
0.0148839
0.0148701
0.014856
0.0148415
0.0148268
0.0148118
0.0147965
0.014781
0.0147653
0.0147493
0.0147332
0.0147169
0.0147005
0.0146839
0.0146671
0.0146503
0.0146333
0.0146162
0.0145991
0.014582
0.0145648
0.0145475
0.0145303
0.0145131
0.0144959
0.0144788
0.0144618
0.0144449
0.0144281
0.0144115
0.014395
0.0143788
0.0143627
0.014347
0.0143315
0.0143164
0.0143016
0.0142871
0.0142731
0.0142594
0.0142463
0.0142336
0.0142214
0.0142097
0.0141986
0.014188
0.014178
0.0141687
0.01416
0.0141519
0.0141444
0.0141377
0.0141316
0.0141262
0.0141215
0.0141175
0.0141142
0.0141115
0.0141096
0.0141083
0.0141077
0.0141077
0.0141084
0.0141097
0.0141116
0.0141142
0.0141177
0.0141206
0.014703
0.0146995
0.014695
0.0146908
0.0146865
0.0146823
0.0146782
0.0146741
0.0146701
0.0146662
0.0146624
0.0146588
0.0146553
0.0146519
0.0146488
0.0146458
0.0146429
0.0146403
0.0146378
0.0146355
0.0146334
0.0146314
0.0146296
0.014628
0.0146266
0.0146253
0.0146242
0.0146232
0.0146224
0.0146217
0.0146212
0.0146209
0.0146207
0.0146207
0.0146208
0.014621
0.0146215
0.0146221
0.0146229
0.0146239
0.014625
0.0146264
0.0146279
0.0146297
0.0146316
0.0146339
0.0146363
0.014639
0.0146419
0.0146451
0.0146486
0.0146523
0.0146563
0.0146606
0.0146653
0.0146702
0.0146754
0.014681
0.0146868
0.014693
0.0146995
0.0147063
0.0147135
0.014721
0.0147287
0.0147368
0.0147451
0.0147538
0.0147627
0.0147719
0.0147814
0.014791
0.0148009
0.014811
0.0148213
0.0148317
0.0148422
0.0148529
0.0148636
0.0148744
0.0148852
0.014896
0.0149068
0.0149175
0.0149281
0.0149386
0.0149489
0.014959
0.0149689
0.0149785
0.0149878
0.0149968
0.0150055
0.0150137
0.0150216
0.015029
0.0150359
0.0150423
0.0150482
0.0150536
0.0150584
0.0150625
0.0150661
0.0150691
0.0150715
0.0150732
0.0150742
0.0150746
0.0150743
0.0150733
0.0150717
0.0150694
0.0150664
0.0150628
0.0150585
0.0150535
0.0150479
0.0150417
0.0150348
0.0150274
0.0150193
0.0150107
0.0150016
0.0149919
0.0149817
0.014971
0.0149598
0.0149482
0.0149361
0.0149236
0.0149107
0.0148975
0.0148839
0.0148699
0.0148556
0.0148411
0.0148262
0.0148111
0.0147957
0.0147801
0.0147643
0.0147482
0.014732
0.0147156
0.0146991
0.0146824
0.0146656
0.0146486
0.0146316
0.0146145
0.0145973
0.0145801
0.0145628
0.0145456
0.0145283
0.0145111
0.0144939
0.0144767
0.0144597
0.0144427
0.0144259
0.0144093
0.0143928
0.0143766
0.0143605
0.0143448
0.0143293
0.0143141
0.0142993
0.0142849
0.0142708
0.0142572
0.014244
0.0142313
0.0142191
0.0142075
0.0141963
0.0141858
0.0141758
0.0141664
0.0141577
0.0141496
0.0141422
0.0141354
0.0141293
0.0141239
0.0141192
0.0141152
0.0141119
0.0141092
0.0141073
0.0141061
0.0141055
0.0141056
0.0141064
0.0141078
0.0141099
0.0141127
0.0141164
0.0141196
0.0147091
0.0147051
0.0147001
0.0146953
0.0146907
0.0146862
0.0146818
0.0146775
0.0146734
0.0146694
0.0146656
0.014662
0.0146585
0.0146552
0.0146521
0.0146491
0.0146463
0.0146437
0.0146413
0.0146391
0.014637
0.0146351
0.0146334
0.0146318
0.0146304
0.0146291
0.014628
0.014627
0.0146261
0.0146255
0.0146249
0.0146245
0.0146242
0.0146241
0.0146241
0.0146243
0.0146246
0.0146251
0.0146258
0.0146266
0.0146276
0.0146288
0.0146303
0.0146319
0.0146337
0.0146357
0.014638
0.0146406
0.0146433
0.0146464
0.0146497
0.0146533
0.0146572
0.0146614
0.0146659
0.0146707
0.0146758
0.0146812
0.014687
0.0146931
0.0146995
0.0147063
0.0147134
0.0147208
0.0147285
0.0147365
0.0147449
0.0147535
0.0147625
0.0147717
0.0147811
0.0147908
0.0148008
0.0148109
0.0148212
0.0148317
0.0148424
0.0148531
0.014864
0.0148748
0.0148858
0.0148967
0.0149076
0.0149184
0.0149291
0.0149397
0.0149502
0.0149604
0.0149704
0.0149802
0.0149896
0.0149988
0.0150075
0.0150159
0.0150239
0.0150314
0.0150384
0.0150449
0.0150509
0.0150564
0.0150613
0.0150655
0.0150692
0.0150722
0.0150746
0.0150764
0.0150774
0.0150778
0.0150775
0.0150766
0.0150749
0.0150726
0.0150696
0.0150659
0.0150616
0.0150565
0.0150509
0.0150446
0.0150376
0.0150301
0.015022
0.0150132
0.015004
0.0149942
0.0149838
0.014973
0.0149617
0.0149499
0.0149376
0.014925
0.014912
0.0148985
0.0148847
0.0148706
0.0148562
0.0148414
0.0148264
0.0148111
0.0147956
0.0147798
0.0147638
0.0147477
0.0147313
0.0147148
0.0146981
0.0146813
0.0146643
0.0146473
0.0146301
0.0146129
0.0145956
0.0145783
0.014561
0.0145436
0.0145263
0.014509
0.0144917
0.0144745
0.0144574
0.0144404
0.0144236
0.0144069
0.0143904
0.0143741
0.014358
0.0143422
0.0143267
0.0143115
0.0142967
0.0142822
0.0142681
0.0142545
0.0142413
0.0142286
0.0142163
0.0142046
0.0141935
0.0141829
0.0141729
0.0141635
0.0141548
0.0141467
0.0141392
0.0141324
0.0141263
0.0141209
0.0141162
0.0141122
0.0141089
0.0141063
0.0141044
0.0141032
0.0141027
0.0141029
0.0141038
0.0141053
0.0141076
0.0141106
0.0141145
0.0141179
0.0147151
0.0147106
0.0147049
0.0146997
0.0146947
0.0146899
0.0146853
0.0146808
0.0146766
0.0146725
0.0146686
0.0146649
0.0146614
0.0146581
0.014655
0.0146521
0.0146494
0.0146469
0.0146445
0.0146423
0.0146403
0.0146384
0.0146367
0.0146352
0.0146338
0.0146325
0.0146314
0.0146304
0.0146295
0.0146288
0.0146282
0.0146277
0.0146274
0.0146271
0.0146271
0.0146272
0.0146274
0.0146278
0.0146283
0.014629
0.0146299
0.014631
0.0146323
0.0146337
0.0146354
0.0146373
0.0146395
0.0146418
0.0146445
0.0146474
0.0146506
0.0146541
0.0146578
0.0146619
0.0146663
0.014671
0.014676
0.0146813
0.014687
0.0146931
0.0146994
0.0147062
0.0147132
0.0147206
0.0147283
0.0147364
0.0147447
0.0147534
0.0147624
0.0147716
0.0147811
0.0147909
0.014801
0.0148112
0.0148216
0.0148322
0.014843
0.0148539
0.0148648
0.0148759
0.0148869
0.014898
0.0149091
0.0149201
0.014931
0.0149417
0.0149523
0.0149628
0.014973
0.0149829
0.0149925
0.0150018
0.0150107
0.0150192
0.0150274
0.015035
0.0150422
0.0150488
0.015055
0.0150605
0.0150655
0.0150699
0.0150736
0.0150767
0.0150792
0.015081
0.0150821
0.0150825
0.0150823
0.0150813
0.0150797
0.0150773
0.0150743
0.0150706
0.0150662
0.0150611
0.0150553
0.0150489
0.0150419
0.0150343
0.015026
0.0150172
0.0150077
0.0149978
0.0149873
0.0149762
0.0149648
0.0149528
0.0149403
0.0149275
0.0149143
0.0149006
0.0148866
0.0148723
0.0148576
0.0148427
0.0148274
0.0148119
0.0147962
0.0147802
0.014764
0.0147477
0.0147311
0.0147144
0.0146975
0.0146805
0.0146634
0.0146462
0.0146289
0.0146115
0.0145941
0.0145767
0.0145592
0.0145417
0.0145242
0.0145068
0.0144895
0.0144722
0.014455
0.0144379
0.014421
0.0144042
0.0143876
0.0143712
0.0143551
0.0143393
0.0143237
0.0143085
0.0142936
0.0142791
0.0142649
0.0142513
0.014238
0.0142253
0.014213
0.0142013
0.0141901
0.0141794
0.0141694
0.01416
0.0141512
0.0141431
0.0141356
0.0141288
0.0141227
0.0141172
0.0141125
0.0141085
0.0141052
0.0141026
0.0141007
0.0140996
0.0140991
0.0140994
0.0141004
0.0141021
0.0141045
0.0141077
0.0141119
0.0141154
0.0147209
0.0147159
0.0147096
0.0147039
0.0146986
0.0146934
0.0146885
0.0146839
0.0146795
0.0146753
0.0146713
0.0146676
0.0146641
0.0146608
0.0146577
0.0146548
0.0146522
0.0146497
0.0146473
0.0146452
0.0146432
0.0146414
0.0146397
0.0146382
0.0146368
0.0146355
0.0146343
0.0146333
0.0146324
0.0146317
0.014631
0.0146305
0.0146301
0.0146298
0.0146296
0.0146296
0.0146298
0.01463
0.0146304
0.0146311
0.0146318
0.0146328
0.0146339
0.0146352
0.0146368
0.0146386
0.0146406
0.0146428
0.0146453
0.0146481
0.0146512
0.0146545
0.0146582
0.0146622
0.0146665
0.0146711
0.0146761
0.0146814
0.014687
0.014693
0.0146993
0.014706
0.0147131
0.0147205
0.0147282
0.0147363
0.0147447
0.0147535
0.0147625
0.0147719
0.0147815
0.0147914
0.0148016
0.0148119
0.0148225
0.0148333
0.0148442
0.0148553
0.0148664
0.0148777
0.0148889
0.0149002
0.0149115
0.0149227
0.0149338
0.0149447
0.0149556
0.0149662
0.0149766
0.0149867
0.0149965
0.015006
0.0150152
0.0150239
0.0150322
0.01504
0.0150473
0.0150541
0.0150604
0.0150661
0.0150712
0.0150757
0.0150796
0.0150828
0.0150853
0.0150872
0.0150884
0.0150888
0.0150886
0.0150877
0.015086
0.0150837
0.0150806
0.0150768
0.0150724
0.0150672
0.0150614
0.0150549
0.0150478
0.01504
0.0150316
0.0150226
0.015013
0.0150028
0.0149921
0.0149809
0.0149692
0.014957
0.0149443
0.0149313
0.0149178
0.0149039
0.0148896
0.014875
0.0148601
0.0148449
0.0148294
0.0148136
0.0147976
0.0147814
0.0147649
0.0147483
0.0147315
0.0147145
0.0146974
0.0146802
0.0146628
0.0146454
0.0146279
0.0146103
0.0145927
0.0145751
0.0145574
0.0145398
0.0145222
0.0145046
0.0144871
0.0144697
0.0144523
0.0144351
0.0144181
0.0144012
0.0143845
0.0143681
0.0143519
0.0143359
0.0143203
0.014305
0.01429
0.0142754
0.0142612
0.0142475
0.0142342
0.0142213
0.014209
0.0141972
0.014186
0.0141753
0.0141653
0.0141558
0.014147
0.0141388
0.0141313
0.0141245
0.0141183
0.0141129
0.0141081
0.0141041
0.0141008
0.0140982
0.0140964
0.0140953
0.0140949
0.0140953
0.0140964
0.0140982
0.0141008
0.0141041
0.0141085
0.0141122
0.0147263
0.0147209
0.014714
0.0147079
0.0147021
0.0146966
0.0146915
0.0146866
0.014682
0.0146777
0.0146737
0.0146699
0.0146664
0.0146631
0.01466
0.0146572
0.0146545
0.014652
0.0146497
0.0146476
0.0146457
0.0146439
0.0146422
0.0146407
0.0146393
0.014638
0.0146369
0.0146358
0.0146349
0.0146341
0.0146334
0.0146328
0.0146323
0.014632
0.0146317
0.0146317
0.0146317
0.0146318
0.0146322
0.0146326
0.0146333
0.0146341
0.0146351
0.0146364
0.0146378
0.0146394
0.0146413
0.0146435
0.0146459
0.0146486
0.0146515
0.0146548
0.0146584
0.0146623
0.0146665
0.0146711
0.014676
0.0146813
0.0146869
0.0146929
0.0146992
0.014706
0.014713
0.0147205
0.0147283
0.0147365
0.014745
0.0147538
0.014763
0.0147725
0.0147823
0.0147924
0.0148027
0.0148132
0.014824
0.014835
0.0148461
0.0148574
0.0148688
0.0148803
0.0148918
0.0149033
0.0149148
0.0149263
0.0149376
0.0149488
0.0149599
0.0149708
0.0149814
0.0149918
0.0150019
0.0150116
0.015021
0.0150299
0.0150384
0.0150464
0.015054
0.015061
0.0150674
0.0150733
0.0150786
0.0150832
0.0150872
0.0150905
0.0150932
0.0150951
0.0150963
0.0150969
0.0150967
0.0150958
0.0150942
0.0150918
0.0150887
0.0150849
0.0150804
0.0150751
0.0150692
0.0150626
0.0150553
0.0150474
0.0150388
0.0150297
0.0150199
0.0150095
0.0149986
0.0149871
0.0149751
0.0149627
0.0149497
0.0149364
0.0149226
0.0149084
0.0148938
0.0148789
0.0148637
0.0148481
0.0148323
0.0148162
0.0147998
0.0147833
0.0147665
0.0147495
0.0147324
0.0147152
0.0146978
0.0146802
0.0146626
0.0146449
0.0146271
0.0146093
0.0145915
0.0145736
0.0145557
0.0145378
0.01452
0.0145022
0.0144845
0.014467
0.0144495
0.0144321
0.0144149
0.0143979