/*--------------------------------*- C++ -*----------------------------------*\
  =========                 |
  \\      /  F ield         | OpenFOAM: The Open Source CFD Toolbox
   \\    /   O peration     | Website:  https://openfoam.org
    \\  /    A nd           | Version:  6
     \\/     M anipulation  |
\*---------------------------------------------------------------------------*/
FoamFile
{
    version     2.0;
    format      ascii;
    class       volVectorField;
    location    "0";
    object      U_rec;
}
// * * * * * * * * * * * * * * * * * * * * * * * * * * * * * * * * * * * * * //

dimensions      [0 1 -1 0 0 0 0];

internalField   nonuniform List<vector> 
40000
(
(4.24503e-07 -4.24625e-07 0)
(2.69985e-06 -9.23437e-07 0)
(5.93481e-06 -1.10239e-06 0)
(9.31939e-06 -1.0016e-06 0)
(1.20155e-05 -7.43732e-07 0)
(1.35479e-05 -3.94742e-07 0)
(1.36457e-05 1.32931e-09 0)
(1.21682e-05 4.15047e-07 0)
(9.06702e-06 8.27433e-07 0)
(4.35663e-06 1.22631e-06 0)
(-1.90683e-06 1.60404e-06 0)
(-9.6405e-06 1.95606e-06 0)
(-1.87457e-05 2.27998e-06 0)
(-2.91142e-05 2.57491e-06 0)
(-4.06346e-05 2.84096e-06 0)
(-5.31964e-05 3.07897e-06 0)
(-6.66915e-05 3.29023e-06 0)
(-8.10169e-05 3.47636e-06 0)
(-9.60754e-05 3.63914e-06 0)
(-0.000111777 3.78047e-06 0)
(-0.000128037 3.90225e-06 0)
(-0.000144781 4.0064e-06 0)
(-0.00016194 4.09474e-06 0)
(-0.000179452 4.16906e-06 0)
(-0.000197261 4.23099e-06 0)
(-0.000215319 4.28211e-06 0)
(-0.000233584 4.32384e-06 0)
(-0.000252018 4.35748e-06 0)
(-0.00027059 4.38423e-06 0)
(-0.00028927 4.40514e-06 0)
(-0.000308036 4.42115e-06 0)
(-0.000326868 4.43309e-06 0)
(-0.000345749 4.44167e-06 0)
(-0.000364665 4.44751e-06 0)
(-0.000383604 4.45111e-06 0)
(-0.000402557 4.45289e-06 0)
(-0.000421515 4.4532e-06 0)
(-0.000440472 4.4523e-06 0)
(-0.000459421 4.45038e-06 0)
(-0.000478358 4.44758e-06 0)
(-0.000497278 4.44398e-06 0)
(-0.000516177 4.43961e-06 0)
(-0.00053505 4.43444e-06 0)
(-0.000553893 4.42845e-06 0)
(-0.000572702 4.42153e-06 0)
(-0.000591471 4.41359e-06 0)
(-0.000610196 4.40447e-06 0)
(-0.000628869 4.39404e-06 0)
(-0.000647486 4.3821e-06 0)
(-0.000666037 4.36847e-06 0)
(-0.000684517 4.35296e-06 0)
(-0.000702914 4.33535e-06 0)
(-0.00072122 4.31542e-06 0)
(-0.000739424 4.29295e-06 0)
(-0.000757515 4.26771e-06 0)
(-0.000775479 4.23946e-06 0)
(-0.000793305 4.20796e-06 0)
(-0.000810977 4.17299e-06 0)
(-0.00082848 4.13431e-06 0)
(-0.000845798 4.09168e-06 0)
(-0.000862914 4.04487e-06 0)
(-0.00087981 3.99366e-06 0)
(-0.000896466 3.9378e-06 0)
(-0.000912863 3.87709e-06 0)
(-0.000928981 3.81131e-06 0)
(-0.000944798 3.74022e-06 0)
(-0.000960291 3.66366e-06 0)
(-0.000975438 3.5814e-06 0)
(-0.000990213 3.49325e-06 0)
(-0.00100459 3.39906e-06 0)
(-0.00101855 3.29861e-06 0)
(-0.00103206 3.19177e-06 0)
(-0.0010451 3.07838e-06 0)
(-0.00105764 2.95829e-06 0)
(-0.00106965 2.83142e-06 0)
(-0.0010811 2.69763e-06 0)
(-0.00109197 2.55679e-06 0)
(-0.00110222 2.40888e-06 0)
(-0.00111184 2.25378e-06 0)
(-0.00112077 2.09149e-06 0)
(-0.00112901 1.92198e-06 0)
(-0.00113651 1.74525e-06 0)
(-0.00114326 1.56131e-06 0)
(-0.00114922 1.37021e-06 0)
(-0.00115436 1.17203e-06 0)
(-0.00115865 9.66844e-07 0)
(-0.00116206 7.54833e-07 0)
(-0.00116458 5.36066e-07 0)
(-0.00116616 3.10784e-07 0)
(-0.00116679 7.91886e-08 0)
(-0.00116644 -1.58473e-07 0)
(-0.00116509 -4.01903e-07 0)
(-0.00116272 -6.50806e-07 0)
(-0.00115929 -9.0482e-07 0)
(-0.0011548 -1.16356e-06 0)
(-0.00114923 -1.4266e-06 0)
(-0.00114256 -1.69348e-06 0)
(-0.00113477 -1.96371e-06 0)
(-0.00112586 -2.23675e-06 0)
(-0.00111581 -2.51204e-06 0)
(-0.00110461 -2.78897e-06 0)
(-0.00109228 -3.06691e-06 0)
(-0.00107879 -3.34519e-06 0)
(-0.00106415 -3.6231e-06 0)
(-0.00104836 -3.89993e-06 0)
(-0.00103144 -4.17491e-06 0)
(-0.00101339 -4.44727e-06 0)
(-0.00099422 -4.71621e-06 0)
(-0.000973955 -4.9809e-06 0)
(-0.000952603 -5.24051e-06 0)
(-0.0009302 -5.49421e-06 0)
(-0.000906764 -5.74113e-06 0)
(-0.000882328 -5.98042e-06 0)
(-0.000856919 -6.21124e-06 0)
(-0.000830586 -6.43273e-06 0)
(-0.00080336 -6.64405e-06 0)
(-0.000775283 -6.84439e-06 0)
(-0.000746408 -7.03297e-06 0)
(-0.000716787 -7.20897e-06 0)
(-0.000686464 -7.37169e-06 0)
(-0.0006555 -7.52039e-06 0)
(-0.000623953 -7.65443e-06 0)
(-0.000591884 -7.77319e-06 0)
(-0.00055936 -7.87608e-06 0)
(-0.000526441 -7.96262e-06 0)
(-0.000493201 -8.0323e-06 0)
(-0.000459705 -8.08477e-06 0)
(-0.000426025 -8.11965e-06 0)
(-0.000392236 -8.13671e-06 0)
(-0.000358408 -8.13576e-06 0)
(-0.000324617 -8.11666e-06 0)
(-0.000290934 -8.07934e-06 0)
(-0.000257439 -8.02387e-06 0)
(-0.000224202 -7.95033e-06 0)
(-0.000191297 -7.85892e-06 0)
(-0.000158798 -7.74984e-06 0)
(-0.000126776 -7.62344e-06 0)
(-9.53002e-05 -7.48012e-06 0)
(-6.44403e-05 -7.3203e-06 0)
(-3.42633e-05 -7.14456e-06 0)
(-4.83114e-06 -6.95341e-06 0)
(2.37922e-05 -6.74753e-06 0)
(5.15481e-05 -6.52767e-06 0)
(7.83804e-05 -6.29454e-06 0)
(0.000104236 -6.04888e-06 0)
(0.000129064 -5.79157e-06 0)
(0.000152819 -5.52348e-06 0)
(0.000175458 -5.24549e-06 0)
(0.00019694 -4.9585e-06 0)
(0.000217232 -4.66348e-06 0)
(0.0002363 -4.36134e-06 0)
(0.000254117 -4.05304e-06 0)
(0.000270658 -3.73954e-06 0)
(0.000285903 -3.42177e-06 0)
(0.000299837 -3.10067e-06 0)
(0.000312444 -2.77717e-06 0)
(0.000323718 -2.45217e-06 0)
(0.000333653 -2.12655e-06 0)
(0.000342246 -1.80116e-06 0)
(0.0003495 -1.47686e-06 0)
(0.000355418 -1.15442e-06 0)
(0.000360012 -8.34632e-07 0)
(0.00036329 -5.18236e-07 0)
(0.000365268 -2.0594e-07 0)
(0.000365964 1.01568e-07 0)
(0.000365397 4.03625e-07 0)
(0.000363591 6.99597e-07 0)
(0.000360571 9.88867e-07 0)
(0.000356367 1.27082e-06 0)
(0.000351008 1.54486e-06 0)
(0.000344528 1.81039e-06 0)
(0.000336965 2.06679e-06 0)
(0.000328356 2.31342e-06 0)
(0.000318744 2.5496e-06 0)
(0.000308173 2.77462e-06 0)
(0.000296692 2.98769e-06 0)
(0.000284352 3.18793e-06 0)
(0.000271209 3.37437e-06 0)
(0.000257324 3.54589e-06 0)
(0.000242762 3.70124e-06 0)
(0.000227593 3.83897e-06 0)
(0.000211894 3.95741e-06 0)
(0.000195752 4.05462e-06 0)
(0.000179258 4.12837e-06 0)
(0.000162516 4.17603e-06 0)
(0.000145641 4.19456e-06 0)
(0.00012876 4.18037e-06 0)
(0.000112016 4.12926e-06 0)
(9.5569e-05 4.03626e-06 0)
(7.95992e-05 3.89554e-06 0)
(6.43105e-05 3.70024e-06 0)
(4.99325e-05 3.44241e-06 0)
(3.67236e-05 3.11305e-06 0)
(2.49714e-05 2.70264e-06 0)
(1.4988e-05 2.20256e-06 0)
(7.09557e-06 1.60892e-06 0)
(1.59214e-06 9.29916e-07 0)
(-1.33439e-06 1.98594e-07 0)
(-1.84855e-06 -4.65203e-07 0)
(-6.80497e-07 -6.80581e-07 0)
(9.26711e-07 -2.70322e-06 0)
(5.78941e-06 -5.77633e-06 0)
(1.19532e-05 -6.65483e-06 0)
(1.78127e-05 -5.76929e-06 0)
(2.16881e-05 -3.68487e-06 0)
(2.25256e-05 -8.45449e-07 0)
(1.9662e-05 2.42768e-06 0)
(1.27151e-05 5.90599e-06 0)
(1.51807e-06 9.42895e-06 0)
(-1.39386e-05 1.28857e-05 0)
(-3.35517e-05 1.62016e-05 0)
(-5.71414e-05 1.93284e-05 0)
(-8.44761e-05 2.22371e-05 0)
(-0.000115294 2.49124e-05 0)
(-0.000149317 2.73492e-05 0)
(-0.000186263 2.95497e-05 0)
(-0.000225849 3.15212e-05 0)
(-0.000267805 3.32742e-05 0)
(-0.000311871 3.48216e-05 0)
(-0.000357801 3.61781e-05 0)
(-0.00040537 3.73587e-05 0)
(-0.000454367 3.83789e-05 0)
(-0.000504599 3.92539e-05 0)
(-0.000555894 3.99985e-05 0)
(-0.000608095 4.0627e-05 0)
(-0.000661062 4.11528e-05 0)
(-0.000714671 4.15883e-05 0)
(-0.000768813 4.1945e-05 0)
(-0.000823391 4.22335e-05 0)
(-0.000878324 4.24633e-05 0)
(-0.000933537 4.26429e-05 0)
(-0.000988972 4.27798e-05 0)
(-0.00104457 4.28806e-05 0)
(-0.00110029 4.29509e-05 0)
(-0.00115609 4.29956e-05 0)
(-0.00121194 4.30186e-05 0)
(-0.00126781 4.30232e-05 0)
(-0.00132368 4.30121e-05 0)
(-0.00137951 4.29872e-05 0)
(-0.0014353 4.295e-05 0)
(-0.00149103 4.29013e-05 0)
(-0.00154667 4.28416e-05 0)
(-0.00160222 4.2771e-05 0)
(-0.00165765 4.26892e-05 0)
(-0.00171294 4.25956e-05 0)
(-0.00176809 4.24894e-05 0)
(-0.00182307 4.23695e-05 0)
(-0.00187786 4.22345e-05 0)
(-0.00193244 4.20831e-05 0)
(-0.00198679 4.19137e-05 0)
(-0.00204087 4.17245e-05 0)
(-0.00209467 4.15137e-05 0)
(-0.00214815 4.12794e-05 0)
(-0.00220128 4.10198e-05 0)
(-0.00225402 4.07328e-05 0)
(-0.00230634 4.04163e-05 0)
(-0.0023582 4.00684e-05 0)
(-0.00240956 3.9687e-05 0)
(-0.00246036 3.92701e-05 0)
(-0.00251057 3.88156e-05 0)
(-0.00256014 3.83215e-05 0)
(-0.002609 3.77857e-05 0)
(-0.00265712 3.72064e-05 0)
(-0.00270442 3.65816e-05 0)
(-0.00275086 3.59093e-05 0)
(-0.00279636 3.51881e-05 0)
(-0.00284088 3.44157e-05 0)
(-0.00288433 3.35907e-05 0)
(-0.00292666 3.27116e-05 0)
(-0.00296779 3.17765e-05 0)
(-0.00300765 3.07844e-05 0)
(-0.00304618 2.97336e-05 0)
(-0.00308329 2.86229e-05 0)
(-0.0031189 2.74513e-05 0)
(-0.00315295 2.62178e-05 0)
(-0.00318536 2.49215e-05 0)
(-0.00321603 2.35614e-05 0)
(-0.00324491 2.21372e-05 0)
(-0.00327189 2.06487e-05 0)
(-0.00329692 1.9095e-05 0)
(-0.00331989 1.74766e-05 0)
(-0.00334073 1.57935e-05 0)
(-0.00335937 1.40457e-05 0)
(-0.00337572 1.22343e-05 0)
(-0.0033897 1.03595e-05 0)
(-0.00340124 8.42295e-06 0)
(-0.00341025 6.42523e-06 0)
(-0.00341668 4.36819e-06 0)
(-0.00342043 2.25369e-06 0)
(-0.00342145 8.3685e-08 0)
(-0.00341967 -2.13941e-06 0)
(-0.00341502 -4.41307e-06 0)
(-0.00340745 -6.7342e-06 0)
(-0.00339688 -9.09951e-06 0)
(-0.00338329 -1.15055e-05 0)
(-0.00336662 -1.39483e-05 0)
(-0.00334682 -1.64236e-05 0)
(-0.00332386 -1.89269e-05 0)
(-0.00329772 -2.14534e-05 0)
(-0.00326835 -2.39979e-05 0)
(-0.00323576 -2.65549e-05 0)
(-0.00319993 -2.91187e-05 0)
(-0.00316085 -3.16832e-05 0)
(-0.00311853 -3.42422e-05 0)
(-0.00307299 -3.6789e-05 0)
(-0.00302424 -3.93169e-05 0)
(-0.0029723 -4.18189e-05 0)
(-0.00291724 -4.42879e-05 0)
(-0.00285908 -4.67164e-05 0)
(-0.00279789 -4.90971e-05 0)
(-0.00273372 -5.14224e-05 0)
(-0.00266667 -5.36848e-05 0)
(-0.00259681 -5.58765e-05 0)
(-0.00252423 -5.799e-05 0)
(-0.00244904 -6.00178e-05 0)
(-0.00237135 -6.19524e-05 0)
(-0.00229129 -6.37867e-05 0)
(-0.00220898 -6.55133e-05 0)
(-0.00212457 -6.71254e-05 0)
(-0.00203819 -6.86166e-05 0)
(-0.00195003 -6.99806e-05 0)
(-0.00186021 -7.12114e-05 0)
(-0.00176894 -7.23034e-05 0)
(-0.00167637 -7.32513e-05 0)
(-0.00158269 -7.40516e-05 0)
(-0.0014881 -7.46985e-05 0)
(-0.00139278 -7.51899e-05 0)
(-0.00129693 -7.55221e-05 0)
(-0.00120076 -7.56932e-05 0)
(-0.00110446 -7.5701e-05 0)
(-0.00100825 -7.55447e-05 0)
(-0.000912314 -7.52231e-05 0)
(-0.000816877 -7.47375e-05 0)
(-0.00072214 -7.40878e-05 0)
(-0.000628306 -7.32761e-05 0)
(-0.000535575 -7.23039e-05 0)
(-0.000444154 -7.11744e-05 0)
(-0.000354231 -6.98911e-05 0)
(-0.000266 -6.84574e-05 0)
(-0.000179647 -6.68784e-05 0)
(-9.5351e-05 -6.51592e-05 0)
(-1.3286e-05 -6.33053e-05 0)
(6.63844e-05 -6.13227e-05 0)
(0.000143498 -5.9218e-05 0)
(0.000217908 -5.69981e-05 0)
(0.000289471 -5.46707e-05 0)
(0.000358058 -5.22429e-05 0)
(0.000423543 -4.97228e-05 0)
(0.000485817 -4.71188e-05 0)
(0.000544775 -4.44388e-05 0)
(0.000600326 -4.16912e-05 0)
(0.00065239 -3.88846e-05 0)
(0.000700892 -3.60274e-05 0)
(0.000745777 -3.3128e-05 0)
(0.000786988 -3.0195e-05 0)
(0.000824495 -2.72366e-05 0)
(0.000858262 -2.4261e-05 0)
(0.000888267 -2.12763e-05 0)
(0.000914508 -1.82901e-05 0)
(0.000936983 -1.53104e-05 0)
(0.000955702 -1.23443e-05 0)
(0.000970685 -9.39906e-06 0)
(0.000981961 -6.48172e-06 0)
(0.000989566 -3.59894e-06 0)
(0.000993545 -7.57225e-07 0)
(0.000993954 2.03705e-06 0)
(0.000990852 4.77772e-06 0)
(0.000984315 7.45879e-06 0)
(0.000974412 1.00742e-05 0)
(0.000961238 1.26181e-05 0)
(0.000944879 1.50843e-05 0)
(0.00092544 1.74668e-05 0)
(0.000903032 1.97591e-05 0)
(0.000877772 2.19544e-05 0)
(0.000849787 2.40456e-05 0)
(0.000819215 2.60248e-05 0)
(0.000786205 2.78833e-05 0)
(0.000750917 2.96117e-05 0)
(0.000713523 3.11994e-05 0)
(0.000674213 3.26343e-05 0)
(0.000633189 3.39029e-05 0)
(0.000590673 3.49897e-05 0)
(0.000546907 3.58771e-05 0)
(0.000502159 3.65451e-05 0)
(0.00045672 3.69706e-05 0)
(0.000410912 3.71273e-05 0)
(0.000365091 3.6985e-05 0)
(0.000319652 3.65092e-05 0)
(0.000275029 3.56603e-05 0)
(0.000231708 3.43937e-05 0)
(0.000190223 3.26595e-05 0)
(0.000151165 3.04035e-05 0)
(0.000115177 2.75704e-05 0)
(8.29497e-05 2.4111e-05 0)
(5.51992e-05 1.99979e-05 0)
(3.26218e-05 1.52573e-05 0)
(1.58039e-05 1.00307e-05 0)
(5.05119e-06 4.68727e-06 0)
(7.03749e-08 7.58577e-08 0)
(-4.66446e-07 -1.84997e-06 0)
(1.11299e-06 -5.95788e-06 0)
(6.70313e-06 -1.19542e-05 0)
(1.30568e-05 -1.29973e-05 0)
(1.8156e-05 -1.02807e-05 0)
(1.99221e-05 -4.92144e-06 0)
(1.69973e-05 2.18229e-06 0)
(8.47877e-06 1.03426e-05 0)
(-6.1853e-06 1.9044e-05 0)
(-2.72629e-05 2.79068e-05 0)
(-5.48009e-05 3.66579e-05 0)
(-8.86827e-05 4.51053e-05 0)
(-0.000128673 5.31197e-05 0)
(-0.000174455 6.06186e-05 0)
(-0.000225657 6.75547e-05 0)
(-0.000281879 7.39071e-05 0)
(-0.000342706 7.96739e-05 0)
(-0.000407719 8.48672e-05 0)
(-0.000476512 8.95091e-05 0)
(-0.00054869 9.36285e-05 0)
(-0.000623879 9.72587e-05 0)
(-0.000701727 0.000100435 0)
(-0.000781909 0.000103196 0)
(-0.000864126 0.000105578 0)
(-0.000948099 0.000107617 0)
(-0.00103358 0.00010935 0)
(-0.00112036 0.000110809 0)
(-0.00120821 0.000112026 0)
(-0.00129698 0.000113031 0)
(-0.0013865 0.00011385 0)
(-0.00147663 0.000114508 0)
(-0.00156725 0.000115027 0)
(-0.00165826 0.000115426 0)
(-0.00174956 0.000115722 0)
(-0.00184108 0.000115931 0)
(-0.00193275 0.000116064 0)
(-0.0020245 0.000116133 0)
(-0.00211628 0.000116146 0)
(-0.00220805 0.000116111 0)
(-0.00229977 0.000116032 0)
(-0.00239139 0.000115914 0)
(-0.00248289 0.00011576 0)
(-0.00257423 0.00011557 0)
(-0.00266538 0.000115346 0)
(-0.0027563 0.000115087 0)
(-0.00284697 0.000114792 0)
(-0.00293735 0.000114459 0)
(-0.00302741 0.000114084 0)
(-0.0031171 0.000113666 0)
(-0.0032064 0.0001132 0)
(-0.00329526 0.000112683 0)
(-0.00338363 0.00011211 0)
(-0.00347146 0.000111477 0)
(-0.00355872 0.000110778 0)
(-0.00364533 0.00011001 0)
(-0.00373125 0.000109168 0)
(-0.00381641 0.000108245 0)
(-0.00390075 0.000107237 0)
(-0.00398419 0.000106139 0)
(-0.00406666 0.000104945 0)
(-0.0041481 0.000103651 0)
(-0.00422841 0.000102251 0)
(-0.00430751 0.000100741 0)
(-0.00438532 9.9115e-05 0)
(-0.00446174 9.73686e-05 0)
(-0.00453668 9.54969e-05 0)
(-0.00461004 9.34956e-05 0)
(-0.00468172 9.136e-05 0)
(-0.00475161 8.90864e-05 0)
(-0.00481961 8.66706e-05 0)
(-0.00488561 8.41085e-05 0)
(-0.0049495 8.13962e-05 0)
(-0.00501115 7.85313e-05 0)
(-0.00507046 7.55106e-05 0)
(-0.0051273 7.23307e-05 0)
(-0.00518155 6.89897e-05 0)
(-0.0052331 6.54854e-05 0)
(-0.00528181 6.18171e-05 0)
(-0.00532756 5.79815e-05 0)
(-0.00537022 5.39788e-05 0)
(-0.00540968 4.9809e-05 0)
(-0.0054458 4.54713e-05 0)
(-0.00547846 4.09673e-05 0)
(-0.00550753 3.62968e-05 0)
(-0.0055329 3.1462e-05 0)
(-0.00555443 2.6465e-05 0)
(-0.00557202 2.13091e-05 0)
(-0.00558553 1.59967e-05 0)
(-0.00559488 1.05334e-05 0)
(-0.00559992 4.9227e-06 0)
(-0.00560057 -8.29482e-07 0)
(-0.00559671 -6.71623e-06 0)
(-0.00558826 -1.27316e-05 0)
(-0.00557513 -1.88668e-05 0)
(-0.00555721 -2.51139e-05 0)
(-0.00553446 -3.14632e-05 0)
(-0.00550677 -3.79044e-05 0)
(-0.00547411 -4.44266e-05 0)
(-0.00543641 -5.10182e-05 0)
(-0.00539364 -5.76661e-05 0)
(-0.00534574 -6.43571e-05 0)
(-0.00529269 -7.1077e-05 0)
(-0.0052345 -7.78109e-05 0)
(-0.00517117 -8.45431e-05 0)
(-0.00510269 -9.12573e-05 0)
(-0.00502908 -9.79365e-05 0)
(-0.00495039 -0.000104563 0)
(-0.00486667 -0.00011112 0)
(-0.00477798 -0.000117587 0)
(-0.00468439 -0.000123946 0)
(-0.00458599 -0.000130178 0)
(-0.0044829 -0.000136263 0)
(-0.00437523 -0.000142183 0)
(-0.00426313 -0.000147917 0)
(-0.00414673 -0.000153445 0)
(-0.00402619 -0.000158748 0)
(-0.00390172 -0.000163808 0)
(-0.00377349 -0.000168606 0)
(-0.0036417 -0.000173123 0)
(-0.00350659 -0.000177341 0)
(-0.00336837 -0.000181244 0)
(-0.00322731 -0.000184816 0)
(-0.00308365 -0.00018804 0)
(-0.00293765 -0.000190905 0)
(-0.00278962 -0.000193395 0)
(-0.00263982 -0.0001955 0)
(-0.00248856 -0.000197208 0)
(-0.00233612 -0.000198511 0)
(-0.00218284 -0.000199401 0)
(-0.00202901 -0.000199872 0)
(-0.00187496 -0.000199919 0)
(-0.00172102 -0.000199539 0)
(-0.0015675 -0.000198731 0)
(-0.00141472 -0.000197495 0)
(-0.00126302 -0.000195834 0)
(-0.0011127 -0.00019375 0)
(-0.0009641 -0.00019125 0)
(-0.000817517 -0.00018834 0)
(-0.000673263 -0.000185028 0)
(-0.000531641 -0.000181326 0)
(-0.000392936 -0.000177243 0)
(-0.000257444 -0.000172795 0)
(-0.00012543 -0.000167994 0)
(2.84315e-06 -0.000162857 0)
(0.000127122 -0.0001574 0)
(0.000247171 -0.00015164 0)
(0.000362763 -0.000145597 0)
(0.000473688 -0.00013929 0)
(0.000579753 -0.000132739 0)
(0.000680777 -0.000125965 0)
(0.000776594 -0.000118989 0)
(0.000867056 -0.000111833 0)
(0.000952032 -0.000104518 0)
(0.0010314 -9.70667e-05 0)
(0.00110507 -8.95007e-05 0)
(0.00117295 -8.18416e-05 0)
(0.00123497 -7.41111e-05 0)
(0.0012911 -6.63303e-05 0)
(0.00134128 -5.85201e-05 0)
(0.0013855 -5.07012e-05 0)
(0.00142376 -4.28934e-05 0)
(0.00145607 -3.51164e-05 0)
(0.00148245 -2.73888e-05 0)
(0.00150295 -1.97292e-05 0)
(0.00151762 -1.21556e-05 0)
(0.00152652 -4.68518e-06 0)
(0.00152974 2.66486e-06 0)
(0.00152738 9.87791e-06 0)
(0.00151953 1.69378e-05 0)
(0.00150634 2.3828e-05 0)
(0.00148791 3.05324e-05 0)
(0.00146441 3.70343e-05 0)
(0.001436 4.33171e-05 0)
(0.00140284 4.93629e-05 0)
(0.00136513 5.51532e-05 0)
(0.00132306 6.06687e-05 0)
(0.00127687 6.58876e-05 0)
(0.00122678 7.07867e-05 0)
(0.00117306 7.53408e-05 0)
(0.00111598 7.9521e-05 0)
(0.00105585 8.3296e-05 0)
(0.000992974 8.66297e-05 0)
(0.000927731 8.94821e-05 0)
(0.000860499 9.18084e-05 0)
(0.000791701 9.35568e-05 0)
(0.000721798 9.46693e-05 0)
(0.000651299 9.5081e-05 0)
(0.000580758 9.47175e-05 0)
(0.000510785 9.34961e-05 0)
(0.000442048 9.13242e-05 0)
(0.000375277 8.80994e-05 0)
(0.00031127 8.37122e-05 0)
(0.000250889 7.80489e-05 0)
(0.000195053 7.10027e-05 0)
(0.000144724 6.24919e-05 0)
(0.00010087 5.24984e-05 0)
(6.43953e-05 4.11349e-05 0)
(3.60317e-05 2.87639e-05 0)
(1.61639e-05 1.61915e-05 0)
(4.66563e-06 5.05039e-06 0)
(1.94155e-07 -1.34421e-06 0)
(1.02107e-06 -9.38383e-06 0)
(5.84833e-06 -1.78518e-05 0)
(1.03719e-05 -1.8101e-05 0)
(1.234e-05 -1.22646e-05 0)
(9.52367e-06 -2.08038e-06 0)
(4.29751e-07 1.1053e-05 0)
(-1.59608e-05 2.603e-05 0)
(-4.02898e-05 4.1994e-05 0)
(-7.28826e-05 5.82936e-05 0)
(-0.00011381 7.44454e-05 0)
(-0.000162946 9.00996e-05 0)
(-0.00022002 0.000105014 0)
(-0.000284652 0.000119027 0)
(-0.000356394 0.000132042 0)
(-0.000434751 0.000144011 0)
(-0.000519206 0.00015492 0)
(-0.000609235 0.000164783 0)
(-0.000704318 0.000173635 0)
(-0.000803952 0.000181522 0)
(-0.000907652 0.0001885 0)
(-0.00101496 0.000194633 0)
(-0.00112546 0.000199985 0)
(-0.00123875 0.000204623 0)
(-0.00135447 0.000208612 0)
(-0.00147228 0.000212017 0)
(-0.00159188 0.000214899 0)
(-0.00171301 0.000217316 0)
(-0.00183542 0.000219322 0)
(-0.0019589 0.000220966 0)
(-0.00208325 0.000222294 0)
(-0.00220831 0.000223346 0)
(-0.00233393 0.00022416 0)
(-0.00245997 0.000224767 0)
(-0.00258632 0.000225195 0)
(-0.00271289 0.000225469 0)
(-0.00283957 0.000225609 0)
(-0.0029663 0.000225632 0)
(-0.003093 0.000225551 0)
(-0.00321962 0.000225376 0)
(-0.00334608 0.000225117 0)
(-0.00347234 0.000224779 0)
(-0.00359835 0.000224364 0)
(-0.00372405 0.000223874 0)
(-0.0038494 0.000223309 0)
(-0.00397434 0.000222666 0)
(-0.00409883 0.000221942 0)
(-0.00422282 0.000221134 0)
(-0.00434624 0.000220234 0)
(-0.00446904 0.000219237 0)
(-0.00459116 0.000218136 0)
(-0.00471254 0.000216923 0)
(-0.00483311 0.000215591 0)
(-0.0049528 0.000214129 0)
(-0.00507152 0.00021253 0)
(-0.00518919 0.000210784 0)
(-0.00530574 0.000208882 0)
(-0.00542107 0.000206815 0)
(-0.00553508 0.000204572 0)
(-0.00564768 0.000202146 0)
(-0.00575876 0.000199526 0)
(-0.0058682 0.000196702 0)
(-0.00597591 0.000193666 0)
(-0.00608175 0.00019041 0)
(-0.00618561 0.000186923 0)
(-0.00628735 0.000183197 0)
(-0.00638685 0.000179225 0)
(-0.00648397 0.000174997 0)
(-0.00657857 0.000170508 0)
(-0.00667051 0.000165748 0)
(-0.00675964 0.000160712 0)
(-0.0068458 0.000155393 0)
(-0.00692886 0.000149785 0)
(-0.00700865 0.000143883 0)
(-0.00708502 0.000137682 0)
(-0.00715779 0.000131177 0)
(-0.00722682 0.000124366 0)
(-0.00729196 0.000117245 0)
(-0.007353 0.000109812 0)
(-0.00740982 0.000102067 0)
(-0.00746222 9.40071e-05 0)
(-0.00751008 8.56344e-05 0)
(-0.00755319 7.69497e-05 0)
(-0.0075914 6.79553e-05 0)
(-0.00762457 5.86547e-05 0)
(-0.00765255 4.90526e-05 0)
(-0.00767512 3.91538e-05 0)
(-0.0076922 2.89655e-05 0)
(-0.00770358 1.84961e-05 0)
(-0.00770919 7.75461e-06 0)
(-0.00770882 -3.24902e-06 0)
(-0.00770239 -1.45017e-05 0)
(-0.00768975 -2.59905e-05 0)
(-0.00767081 -3.77001e-05 0)
(-0.00764542 -4.96152e-05 0)
(-0.00761352 -6.1717e-05 0)
(-0.00757498 -7.39863e-05 0)
(-0.00752976 -8.64029e-05 0)
(-0.0074778 -9.89436e-05 0)
(-0.007419 -0.000111585 0)
(-0.00735333 -0.000124302 0)
(-0.00728082 -0.000137068 0)
(-0.00720139 -0.000149855 0)
(-0.00711506 -0.000162633 0)
(-0.00702185 -0.000175371 0)
(-0.00692181 -0.000188039 0)
(-0.00681496 -0.000200603 0)
(-0.00670141 -0.000213029 0)
(-0.00658122 -0.000225283 0)
(-0.00645447 -0.000237329 0)
(-0.00632135 -0.000249132 0)
(-0.00618194 -0.000260655 0)
(-0.00603643 -0.000271861 0)
(-0.00588501 -0.000282715 0)
(-0.00572785 -0.000293179 0)
(-0.00556519 -0.000303218 0)
(-0.00539728 -0.000312795 0)
(-0.00522436 -0.000321877 0)
(-0.00504669 -0.000330428 0)
(-0.00486458 -0.000338416 0)
(-0.00467834 -0.000345809 0)
(-0.00448829 -0.000352578 0)
(-0.00429476 -0.000358694 0)
(-0.00409814 -0.00036413 0)
(-0.00389875 -0.000368862 0)
(-0.003697 -0.000372868 0)
(-0.00349327 -0.000376128 0)
(-0.00328797 -0.000378626 0)
(-0.00308151 -0.000380346 0)
(-0.00287428 -0.000381277 0)
(-0.00266673 -0.000381411 0)
(-0.00245928 -0.000380742 0)
(-0.00225235 -0.000379266 0)
(-0.00204638 -0.000376986 0)
(-0.00184177 -0.000373903 0)
(-0.00163898 -0.000370026 0)
(-0.0014384 -0.000365362 0)
(-0.00124048 -0.000359926 0)
(-0.00104559 -0.000353733 0)
(-0.000854147 -0.000346802 0)
(-0.000666544 -0.000339154 0)
(-0.000483154 -0.000330813 0)
(-0.000304341 -0.000321806 0)
(-0.000130455 -0.000312161 0)
(3.81693e-05 -0.000301909 0)
(0.000201214 -0.000291084 0)
(0.000358378 -0.00027972 0)
(0.00050938 -0.000267852 0)
(0.000653956 -0.000255519 0)
(0.000791859 -0.00024276 0)
(0.000922871 -0.000229613 0)
(0.00104679 -0.00021612 0)
(0.00116343 -0.00020232 0)
(0.00127264 -0.000188255 0)
(0.00137427 -0.000173965 0)
(0.00146821 -0.000159492 0)
(0.00155437 -0.000144876 0)
(0.00163266 -0.000130156 0)
(0.00170305 -0.000115373 0)
(0.00176549 -0.000100565 0)
(0.00181998 -8.57695e-05 0)
(0.00186653 -7.10241e-05 0)
(0.00190516 -5.63648e-05 0)
(0.00193592 -4.18265e-05 0)
(0.00195888 -2.74438e-05 0)
(0.00197412 -1.32502e-05 0)
(0.00198176 7.21472e-07 0)
(0.0019819 1.44393e-05 0)
(0.0019747 2.78711e-05 0)
(0.00196031 4.09853e-05 0)
(0.0019389 5.37502e-05 0)
(0.00191068 6.61333e-05 0)
(0.00187585 7.81016e-05 0)
(0.00183464 8.96202e-05 0)
(0.00178731 0.000100654 0)
(0.00173413 0.000111163 0)
(0.0016754 0.000121107 0)
(0.00161143 0.00013044 0)
(0.00154256 0.000139115 0)
(0.00146919 0.000147074 0)
(0.00139169 0.00015426 0)
(0.00131053 0.000160604 0)
(0.00122616 0.000166031 0)
(0.00113911 0.000170458 0)
(0.00104994 0.00017379 0)
(0.00095926 0.000175921 0)
(0.000867741 0.000176735 0)
(0.000776104 0.000176099 0)
(0.000685142 0.00017387 0)
(0.00059571 0.000169888 0)
(0.000508737 0.000163982 0)
(0.00042522 0.000155975 0)
(0.000346224 0.00014569 0)
(0.000272867 0.000132971 0)
(0.000206295 0.000117721 0)
(0.000147646 9.99533e-05 0)
(9.79747e-05 7.99046e-05 0)
(5.81454e-05 5.81913e-05 0)
(2.87143e-05 3.60552e-05 0)
(9.99227e-06 1.57839e-05 0)
(9.21286e-07 1.5637e-06 0)
(7.68514e-07 -1.21351e-05 0)
(3.75336e-06 -2.17546e-05 0)
(4.92493e-06 -1.98225e-05 0)
(1.93447e-06 -9.39602e-06 0)
(-7.40607e-06 7.15554e-06 0)
(-2.4607e-05 2.79285e-05 0)
(-5.07108e-05 5.13919e-05 0)
(-8.63799e-05 7.63326e-05 0)
(-0.000131951 0.000101807 0)
(-0.000187494 0.000127096 0)
(-0.000252865 0.000151672 0)
(-0.000327759 0.000175156 0)
(-0.000411748 0.000197293 0)
(-0.000504321 0.000217921 0)
(-0.00060491 0.000236953 0)
(-0.000712918 0.000254358 0)
(-0.000827731 0.000270148 0)
(-0.000948741 0.000284366 0)
(-0.00107536 0.000297077 0)
(-0.00120701 0.000308364 0)
(-0.00134314 0.000318316 0)
(-0.00148324 0.000327034 0)
(-0.00162684 0.000334617 0)
(-0.0017735 0.000341164 0)
(-0.0019228 0.000346774 0)
(-0.00207439 0.000351541 0)
(-0.00222792 0.000355556 0)
(-0.00238309 0.000358901 0)
(-0.00253963 0.000361654 0)
(-0.0026973 0.000363887 0)
(-0.00285589 0.000365663 0)
(-0.0030152 0.00036704 0)
(-0.00317506 0.00036807 0)
(-0.00333533 0.000368797 0)
(-0.00349587 0.000369259 0)
(-0.00365656 0.00036949 0)
(-0.0038173 0.000369516 0)
(-0.00397799 0.000369359 0)
(-0.00413853 0.000369037 0)
(-0.00429886 0.000368563 0)
(-0.00445889 0.000367946 0)
(-0.00461856 0.000367193 0)
(-0.00477779 0.000366305 0)
(-0.00493652 0.000365283 0)
(-0.00509467 0.000364124 0)
(-0.00525217 0.000362824 0)
(-0.00540897 0.000361375 0)
(-0.00556497 0.000359769 0)
(-0.0057201 0.000357998 0)
(-0.00587429 0.00035605 0)
(-0.00602744 0.000353913 0)
(-0.00617947 0.000351575 0)
(-0.00633028 0.000349022 0)
(-0.00647978 0.000346242 0)
(-0.00662786 0.00034322 0)
(-0.00677441 0.000339941 0)
(-0.00691931 0.000336391 0)
(-0.00706245 0.000332556 0)
(-0.0072037 0.000328421 0)
(-0.00734293 0.000323971 0)
(-0.00748 0.000319191 0)
(-0.00761476 0.000314069 0)
(-0.00774709 0.000308591 0)
(-0.00787681 0.000302741 0)
(-0.00800377 0.000296507 0)
(-0.0081278 0.000289877 0)
(-0.00824876 0.000282838 0)
(-0.00836644 0.00027538 0)
(-0.00848071 0.00026749 0)
(-0.00859135 0.000259158 0)
(-0.00869821 0.000250376 0)
(-0.00880108 0.000241132 0)
(-0.00889978 0.000231421 0)
(-0.00899411 0.000221233 0)
(-0.00908389 0.000210564 0)
(-0.00916892 0.000199409 0)
(-0.00924902 0.000187763 0)
(-0.00932394 0.000175621 0)
(-0.00939354 0.000162987 0)
(-0.00945758 0.000149855 0)
(-0.00951588 0.000136228 0)
(-0.00956826 0.000122112 0)
(-0.0096145 0.000107506 0)
(-0.0096544 9.24172e-05 0)
(-0.00968781 7.68535e-05 0)
(-0.00971453 6.08246e-05 0)
(-0.00973431 4.43414e-05 0)
(-0.0097471 2.74176e-05 0)
(-0.00975262 1.00665e-05 0)
(-0.00975078 -7.6932e-06 0)
(-0.00974138 -2.58432e-05 0)
(-0.00972428 -4.43604e-05 0)
(-0.00969934 -6.32224e-05 0)
(-0.00966648 -8.24022e-05 0)
(-0.00962554 -0.000101871 0)
(-0.0095764 -0.000121599 0)
(-0.00951903 -0.000141553 0)
(-0.00945324 -0.000161697 0)
(-0.0093791 -0.000181992 0)
(-0.00929652 -0.0002024 0)
(-0.00920545 -0.000222877 0)
(-0.00910585 -0.00024338 0)
(-0.00899779 -0.00026386 0)
(-0.00888126 -0.000284271 0)
(-0.00875632 -0.000304562 0)
(-0.00862304 -0.00032468 0)
(-0.0084815 -0.000344573 0)
(-0.00833179 -0.000364185 0)
(-0.00817406 -0.000383461 0)
(-0.00800846 -0.000402344 0)
(-0.00783516 -0.000420776 0)
(-0.00765438 -0.0004387 0)
(-0.00746635 -0.000456059 0)
(-0.00727127 -0.000472794 0)
(-0.00706947 -0.000488848 0)
(-0.00686115 -0.000504166 0)
(-0.0066467 -0.000518692 0)
(-0.00642645 -0.000532373 0)
(-0.00620071 -0.000545156 0)
(-0.00596992 -0.000556991 0)
(-0.00573443 -0.000567833 0)
(-0.00549467 -0.000577633 0)
(-0.00525104 -0.000586354 0)
(-0.00500405 -0.000593953 0)
(-0.0047541 -0.000600397 0)
(-0.0045017 -0.000605656 0)
(-0.00424737 -0.000609702 0)
(-0.00399152 -0.000612511 0)
(-0.00373475 -0.000614068 0)
(-0.0034775 -0.000614352 0)
(-0.00322032 -0.000613363 0)
(-0.00296372 -0.000611088 0)
(-0.00270824 -0.000607534 0)
(-0.00245439 -0.000602701 0)
(-0.0022027 -0.000596605 0)
(-0.00195364 -0.000589257 0)
(-0.00170778 -0.000580677 0)
(-0.00146557 -0.00057089 0)
(-0.00122752 -0.000559928 0)
(-0.000994103 -0.000547819 0)
(-0.000765776 -0.000534602 0)
(-0.000542985 -0.000520321 0)
(-0.000326166 -0.000505021 0)
(-0.000115726 -0.000488748 0)
(8.79399e-05 -0.000471554 0)
(0.000284462 -0.000453495 0)
(0.000473493 -0.000434628 0)
(0.000654705 -0.000415011 0)
(0.000827795 -0.000394703 0)
(0.000992488 -0.000373772 0)
(0.00114853 -0.000352274 0)
(0.00129569 -0.00033028 0)
(0.00143378 -0.000307851 0)
(0.00156261 -0.000285053 0)
(0.00168203 -0.000261949 0)
(0.00179192 -0.000238605 0)
(0.00189219 -0.000215085 0)
(0.00198277 -0.000191451 0)
(0.00206361 -0.000167765 0)
(0.00213468 -0.000144088 0)
(0.002196 -0.000120479 0)
(0.00224759 -9.69957e-05 0)
(0.0022895 -7.36958e-05 0)
(0.00232182 -5.06341e-05 0)
(0.00234463 -2.7865e-05 0)
(0.00235807 -5.44185e-06 0)
(0.00236227 1.65825e-05 0)
(0.00235742 3.81565e-05 0)
(0.00234368 5.92276e-05 0)
(0.00232129 7.97438e-05 0)
(0.00229048 9.96523e-05 0)
(0.0022515 0.000118898 0)
(0.00220464 0.000137425 0)
(0.0021502 0.000155173 0)
(0.00208853 0.00017208 0)
(0.00201998 0.000188078 0)
(0.00194496 0.000203094 0)
(0.00186387 0.000217049 0)
(0.0017772 0.000229855 0)
(0.00168542 0.000241416 0)
(0.00158908 0.000251625 0)
(0.00148877 0.000260365 0)
(0.00138511 0.000267503 0)
(0.0012788 0.000272895 0)
(0.00117056 0.000276378 0)
(0.0010612 0.000277775 0)
(0.000951601 0.000276889 0)
(0.000842689 0.000273506 0)
(0.000735478 0.000267396 0)
(0.000631051 0.000258316 0)
(0.000530561 0.00024602 0)
(0.000435224 0.000230274 0)
(0.000346303 0.000210881 0)
(0.000265087 0.000187734 0)
(0.000192847 0.000160895 0)
(0.000130783 0.000130718 0)
(7.993e-05 9.80389e-05 0)
(4.11081e-05 6.44289e-05 0)
(1.52166e-05 3.25815e-05 0)
(1.59713e-06 7.04013e-06 0)
(4.16165e-07 -1.371e-05 0)
(8.23216e-07 -2.25287e-05 0)
(-2.47949e-06 -1.66703e-05 0)
(-1.18294e-05 4.05275e-09 0)
(-2.92228e-05 2.45333e-05 0)
(-5.60918e-05 5.45298e-05 0)
(-9.34295e-05 8.80504e-05 0)
(-0.00014186 0.000123529 0)
(-0.00020169 0.000159727 0)
(-0.000272958 0.000195684 0)
(-0.000355488 0.000230681 0)
(-0.000448936 0.000264193 0)
(-0.000552826 0.000295858 0)
(-0.000666592 0.000325443 0)
(-0.000789604 0.000352813 0)
(-0.000921201 0.000377913 0)
(-0.0010607 0.000400748 0)
(-0.00120741 0.000421369 0)
(-0.00136067 0.000439859 0)
(-0.00151983 0.000456326 0)
(-0.00168427 0.000470891 0)
(-0.0018534 0.000483688 0)
(-0.00202667 0.000494855 0)
(-0.00220358 0.000504528 0)
(-0.00238365 0.000512844 0)
(-0.00256645 0.000519934 0)
(-0.00275159 0.000525924 0)
(-0.00293871 0.000530932 0)
(-0.00312749 0.000535066 0)
(-0.00331763 0.000538429 0)
(-0.0035089 0.000541111 0)
(-0.00370104 0.000543195 0)
(-0.00389385 0.000544753 0)
(-0.00408715 0.00054585 0)
(-0.00428077 0.00054654 0)
(-0.00447456 0.000546871 0)
(-0.00466839 0.000546884 0)