/*--------------------------------*- C++ -*----------------------------------*\
  =========                 |
  \\      /  F ield         | OpenFOAM: The Open Source CFD Toolbox
   \\    /   O peration     | Website:  https://openfoam.org
    \\  /    A nd           | Version:  6
     \\/     M anipulation  |
\*---------------------------------------------------------------------------*/
FoamFile
{
    version     2.0;
    format      ascii;
    class       volScalarField;
    location    "0";
    object      p;
}
// * * * * * * * * * * * * * * * * * * * * * * * * * * * * * * * * * * * * * //

dimensions      [0 2 -2 0 0 0 0];

internalField   nonuniform List<scalar> 
918
(
0.19461
0.96365
0.00676033
0.194029
0.000565724
0.932381
-0.847035
0.37855
0.172765
-0.23833
0.0180437
0.165803
0.783386
0.54735
-1.5166
0.0127068
0.331998
-0.730397
0.171763
0.00617121
0.448992
0.179123
0.182369
0.174355
0.23026
0.522441
0.655952
0.00271384
-0.00371251
-0.00162244
0.0033071
-0.000290628
0.00284144
0.80547
0.851708
0.870378
0.144366
-0.00960163
-0.719209
-0.784437
-0.755091
-0.902089
0.36706
0.369817
-0.519451
0.38053
0.394165
0.159858
0.17205
0.172822
0.174477
0.173161
0.174634
0.231177
-0.301659
-0.384035
-0.153431
-0.110771
0.0624429
0.0183144
0.0109576
0.0276995
0.0256144
0.101757
0.162189
0.160522
0.172771
0.181483
0.889123
0.861252
0.883997
0.808496
0.82594
0.757626
0.729615
0.568726
0.592289
0.532493
0.51946
-1.98575
-2.96216
-0.922705
-0.640788
0.00160575
0.018898
0.0235339
0.320552
0.323229
0.328712
0.342216
0.767402
-0.717383
-0.833765
0.170915
0.170303
0.178171
0.179755
0.176079
0.17558
0.0136661
0.0208959
-0.000110943
0.00380397
0.00397626
0.425163
0.425021
0.173788
0.171319
0.190111
0.213709
0.20383
-0.0612524
0.242445
0.259681
0.350561
0.513641
0.509208
0.518319
0.630266
0.598635
0.687232
0.711989
0.00763386
0.002053
0.00961153
0.00686335
0.00999911
0.13906
0.132267
0.15431
0.145688
0.147742
-0.101672
-0.245516
0.0635994
0.0828134
-0.63504
-0.684375
-0.781352
-0.803173
-0.862922
0.160382
0.356871
0.359947
-0.529464
-0.454711
-0.590598
-0.39322
-0.459485
0.15137
0.157985
0.15452
0.167999
0.161833
0.164114
0.175928
0.173194
0.174724
0.268196
0.351632
0.166266
0.166864
-0.615363
-0.466079
-0.567137
-0.0577003
-0.04047
0.0700096
0.079926
0.0565599
0.0511796
-0.0101984
0.0115113
-0.0012928
0.0248022
0.0249596
0.0948577
0.0836904
0.110702
0.11651
0.15452
0.154616
0.156563
0.156355
0.677405
0.700869
0.708664
0.684892
-3.96533
-6.68067
-0.286159
-0.121181
0.00189733
0.00278194
0.000991824
0.00246977
0.00355984
0.00149192
0.0310374
0.0303016
0.0275337
0.0310472
0.307891
0.311767
0.710576
0.701629
0.714639
0.675091
0.160605
0.161968
0.167212
0.163522
0.0232527
0.022138
0.0239141
0.392704
0.410588
0.406522
-0.0973485
-0.187037
-0.013103
0.0160137
0.297174
0.276424
0.297069
0.415394
0.456199
0.725545
0.74942
0.737235
0.753124
0.801362
0.821454
0.786055
0.120483
0.128759
0.124049
0.15934
0.156146
0.157006
0.154223
0.153666
0.151093
-0.377528
-0.74977
0.119686
0.123907
0.110732
0.111578
0.24804
0.343702
0.33407
0.346887
0.344118
-0.345138
-0.396284
0.147552
0.134944
0.0422213
0.0707135
0.0564963
0.653679
0.615959
0.663391
0.63913
0.602162
0.625424
-0.68213
-2.46688
-1.41578
0.288227
0.0823004
0.1796
0.048219
0.0334511
0.0431179
0.669643
0.71566
0.430239
0.586217
0.55002
0.484227
0.511605
0.573365
0.502493
0.538575
0.572577
0.54798
0.127428
0.120399
0.112329
0.425343
0.48453
-0.222104
-0.285294
-0.32295
0.0870336
0.116936
0.112711
0.691227
0.553793
0.642145
0.171779
0.171779
0.0120752
0.0224231
0.17485
0.175046
0.00591232
0.00671841
0.184223
-1.27941
-0.201283
0.164411
0.155855
0.17072
-0.300358
0.284506
0.0173005
0.0759414
0.0502385
0.163655
0.11252
0.0750002
0.00713052
0.0165265
0.0137206
-0.526282
0.169385
0.167232
0.170284
0.171432
0.172248
0.00873856
0.0106527
0.00731942
0.0121825
0.0112088
0.00878766
0.139089
0.15209
-0.505011
0.170364
0.172457
0.172183
0.166199
0.170965
0.168951
0.0138962
0.00871949
0.00860283
-0.11598
0.00991649
0.399874
0.503186
0.32989
0.148849
-0.143664
0.320611
0.381581
0.292013
0.444363
0.339547
0.357332
-0.143634
-0.291214
-0.146648
-0.205842
0.162277
0.160399
0.152734
0.150054
0.165727
0.16376
0.16831
0.166026
0.16864
0.169694
-0.20349
-0.135494
-0.370992
-0.443464
0.228161
0.371031
0.188085
0.164418
0.117712
0.020842
0.0244011
0.0169876
0.0164931
0.0399406
0.0518574
0.0704567
0.0564373
0.0473055
0.0361316
0.0382102
0.045472
0.0479299
0.158396
0.155445
0.162246
0.169729
0.119771
0.121639
0.0943832
0.109029
0.100064
0.0465682
0.075344
0.0551085
0.00754084
0.00799771
0.00558671
0.0204721
0.0257451
0.0130849
0.0108386
0.0143834
0.0112538
0.0102645
0.0164469
0.0202531
-0.516253
-0.600335
0.619448
0.530381
-0.423783
0.158783
0.163297
0.160561
0.165301
0.168192
0.168881
0.16709
0.16406
0.152951
0.155426
0.15016
0.151558
-0.446146
-0.562031
-0.397412
-0.468644
-0.191584
0.28161
0.0183122
-0.0329276
-0.0442045
0.166834
0.356048
0.312975
0.436172
0.430187
-0.727113
-0.311275
-0.652003
-0.108851
-0.133951
0.420519
0.466357
0.484838
0.439639
0.3903
-0.379789
0.168746
-0.377108
-0.344411
-0.167098
-0.259703
0.382649
0.320323
0.328983
0.346171
0.371551
0.33613
0.317718
0.311784
0.340992
0.349245
0.152543
-0.078814
-0.114413
-0.157824
0.305151
0.189775
0.2432
0.151925
0.156791
0.159831
0.15921
0.143544
0.14822
0.144563
0.150334
0.153286
0.161157
0.161813
0.157675
0.159385
-0.0876172
-0.0545325
-0.352539
-0.528695
-0.482838
-0.533297
-0.490226
-0.469815
-0.292175
-0.438162
-0.0546366
-0.642511
-0.614476
-0.617355
-0.631187
-0.523057
-0.557244
0.0748307
0.137166
0.108383
0.149452
0.1592
0.163011
0.0307379
0.032751
0.0136005
0.0218704
0.0699896
0.0765795
0.086079
0.0345449
0.0336927
0.0238212
0.0227734
0.0211592
0.0116514
0.0188316
0.0250363
0.0201445
0.0218096
0.0256061
0.0286678
0.0329935
0.0379707
0.150888
0.152693
0.152094
0.166083
0.174325
0.188176
0.162184
0.137618
0.129535
0.131191
0.109324
0.115681
0.114012
0.124368
0.142572
0.149545
0.147538
0.149318
0.136835
0.138049
0.123615
0.127812
0.109165
0.0943029
0.0836525
0.0162919
0.0104991
0.0130121
0.0139354
0.0100919
0.0114677
0.0359508
0.0283479
0.0326371
0.0287709
0.0320383
0.0174202
0.0165863
-0.476933
-0.470044
-0.540699
-0.558861
-0.627886
0.51361
0.637232
0.438563
0.233622
0.215142
0.47206
0.580683
0.304799
0.378644
0.452351
0.127365
0.437124
0.162799
0.162777
0.160575
0.159551
0.160545
-0.36568
-0.271896
-0.247133
-0.200137
-0.0721424
0.0342277
-0.079348
-0.144758
-0.0157731
0.0282666
0.279271
0.294022
0.233826
0.260398
0.260806
0.0859208
0.166245
0.21139
0.160387
0.214735
0.244603
0.202928
0.236514
0.170549
0.130516
0.124907
0.0717338
0.105176
0.0850531
0.0608722
0.153078
0.134167
0.142805
0.135399
0.153854
0.184681
0.179428
0.198055
0.216196
0.141593
0.0978492
0.112742
0.137904
0.0978017
0.11118
0.127849
-0.183432
-0.278601
-0.151586
-0.453646
-0.341147
-0.321206
-0.358582
-0.416351
-0.117156
-0.761883
-0.695195
-1.38239
0.109425
0.504559
0.341309
0.349824
0.368483
0.34502
0.351299
0.375621
0.386824
0.294449
0.311837
0.31376
0.273984
0.305739
0.316558
0.320678
0.136476
0.0641914
0.0421889
0.00460238
-0.130717
-0.0948119
0.0818979
0.0217232
-0.044053
-0.0396788
0.123151
0.00816203
0.0744858
0.114443
0.0638046
0.00382169
0.202587
0.265452
0.250546
0.222253
0.143568
0.161566
0.182218
0.218618
0.244693
0.275899
0.15088
0.154872
0.156066
0.154464
0.150381
0.153893
0.154172
0.15551
0.156866
0.159451
0.158506
0.0105166
0.00335847
-0.0282152
-0.00188333
-0.159643
-0.198306
-0.24348
-0.241835
0.00319516
-0.0174169
-0.1014
-0.0592516
-0.0277309
-0.0129354
0.0118702
0.0227619
-0.118599
-0.141845
-0.231563
0.0190919
0.0963346
-0.0416319
-0.294137
-0.200268
-0.114962
0.0398714
0.0606458
0.0540647
0.0520827
0.0521987
0.028637
0.0259944
0.0255039
0.0279996
0.0283302
0.0238586
0.0218398
0.0232609
0.0241073
0.0232609
0.0222949
0.137608
0.131248
0.133235
0.127887
0.127533
0.139147
0.143131
0.144518
0.148795
0.150792
0.142967
0.146843
0.149917
0.0252298
0.0202423
0.0217064
0.0229244
0.0213843
0.0195537
0.0196164
-0.13245
-0.377068
-0.322722
-0.395405
-0.486868
-0.449176
0.149367
0.0765328
0.107307
0.296217
0.164932
0.0441455
0.111762
0.245395
0.0193954
0.141769
0.0132705
0.504297
0.374164
0.524839
0.180285
-0.120047
0.0185517
0.0408961
-0.115976
-0.023469
-0.0217564
-0.141155
-0.103549
-0.0806923
-0.00516201
-0.102737
-0.14149
-0.379378
-0.221934
-0.0698886
-0.0909897
0.0405575
0.091835
-0.122192
-0.203654
-0.247424
0.263309
0.286741
0.300659
0.267971
0.292248
0.222503
0.212283
0.229111
0.241253
0.234138
-1.0389
-0.657092
-1.80623
-1.19531
-0.74662
0.144451
0.123625
0.368402
0.278071
0.352314
0.337712
0.287151
0.253407
0.266506
0.300937
0.00577669
0.111674
0.0732243
0.0968204
0.0236503
-0.0541812
0.231485
0.229905
0.257307
0.283039
0.256471
0.284759
0.146424
0.146574
0.149699
0.147129
0.143456
0.145168
-0.00508549
0.00364793
-0.0817998
-0.117407
-0.133831
-0.082632
0.0302477
0.0287225
0.024174
0.0238954
0.0288749
0.0308565
-0.165241
-0.206018
-0.339279
-0.231017
-0.361456
-0.428921
-0.448713
-0.356656
-0.256656
-0.267458
0.0610082
0.300612
0.145775
0.262336
0.0158669
0.121054
0.109067
0.0888988
0.114997
0.017511
0.111705
-0.350295
-0.58252
-0.61749
0.421902
0.3894
0.192024
-0.0666638
-0.180436
0.109981
0.171006
0.139186
0.171258
0.219363
0.214141
-0.379247
-0.274775
-0.204511
0.103027
-0.142355
-0.110196
-0.13441
0.0394168
-0.0156048
)
;

boundaryField
{
    wall-4
    {
        type            zeroGradient;
    }
    velocity-inlet-5
    {
        type            zeroGradient;
    }
    velocity-inlet-6
    {
        type            zeroGradient;
    }
    pressure-outlet-7
    {
        type            fixedValue;
        value           uniform 0;
    }
    wall-8
    {
        type            zeroGradient;
    }
    frontAndBackPlanes
    {
        type            empty;
    }
}

