/*--------------------------------*- C++ -*----------------------------------*\
  =========                 |
  \\      /  F ield         | OpenFOAM: The Open Source CFD Toolbox
   \\    /   O peration     | Website:  https://openfoam.org
    \\  /    A nd           | Version:  6
     \\/     M anipulation  |
\*---------------------------------------------------------------------------*/
FoamFile
{
    version     2.0;
    format      ascii;
    class       volScalarField;
    location    "0";
    object      p;
}
// * * * * * * * * * * * * * * * * * * * * * * * * * * * * * * * * * * * * * //

dimensions      [0 2 -2 0 0 0 0];

internalField   nonuniform List<scalar> 
145945
(
3.55113e-06
3.54984e-06
3.54878e-06
3.54771e-06
3.54689e-06
3.54623e-06
3.54577e-06
3.54549e-06
3.54539e-06
3.54546e-06
3.54571e-06
3.54613e-06
3.54675e-06
3.54752e-06
3.54859e-06
3.54969e-06
3.55108e-06
3.54984e-06
3.54878e-06
3.54771e-06
3.54665e-06
3.54578e-06
3.5451e-06
3.54462e-06
3.54432e-06
3.54422e-06
3.54429e-06
3.54455e-06
3.545e-06
3.54564e-06
3.54645e-06
3.54752e-06
3.54865e-06
3.54979e-06
3.54878e-06
3.54771e-06
3.54658e-06
3.54552e-06
3.54463e-06
3.54394e-06
3.54345e-06
3.54315e-06
3.54304e-06
3.54312e-06
3.54339e-06
3.54384e-06
3.54449e-06
3.54533e-06
3.54639e-06
3.54759e-06
3.54874e-06
3.54771e-06
3.54665e-06
3.54552e-06
3.54445e-06
3.54355e-06
3.54284e-06
3.54234e-06
3.54203e-06
3.54191e-06
3.54199e-06
3.54227e-06
3.54274e-06
3.5434e-06
3.54427e-06
3.54533e-06
3.54653e-06
3.54766e-06
3.54689e-06
3.54578e-06
3.54463e-06
3.54355e-06
3.54262e-06
3.5419e-06
3.54138e-06
3.54107e-06
3.54095e-06
3.54103e-06
3.54132e-06
3.5418e-06
3.54248e-06
3.54336e-06
3.54444e-06
3.54568e-06
3.54685e-06
3.54623e-06
3.5451e-06
3.54394e-06
3.54284e-06
3.5419e-06
3.54117e-06
3.54064e-06
3.54032e-06
3.54019e-06
3.54028e-06
3.54057e-06
3.54106e-06
3.54175e-06
3.54266e-06
3.54375e-06
3.54499e-06
3.54619e-06
3.54577e-06
3.54462e-06
3.54345e-06
3.54234e-06
3.54138e-06
3.54064e-06
3.54011e-06
3.53978e-06
3.53965e-06
3.53974e-06
3.54004e-06
3.54054e-06
3.54124e-06
3.54215e-06
3.54327e-06
3.54452e-06
3.54574e-06
3.54549e-06
3.54433e-06
3.54315e-06
3.54203e-06
3.54107e-06
3.54032e-06
3.53978e-06
3.53944e-06
3.53932e-06
3.53941e-06
3.53971e-06
3.54021e-06
3.54092e-06
3.54184e-06
3.54296e-06
3.54422e-06
3.54545e-06
3.54539e-06
3.54422e-06
3.54304e-06
3.54191e-06
3.54095e-06
3.54019e-06
3.53965e-06
3.53932e-06
3.5392e-06
3.53928e-06
3.53958e-06
3.54009e-06
3.5408e-06
3.54173e-06
3.54285e-06
3.54411e-06
3.54535e-06
3.54546e-06
3.54429e-06
3.54312e-06
3.54199e-06
3.54103e-06
3.54028e-06
3.53974e-06
3.53941e-06
3.53928e-06
3.53937e-06
3.53967e-06
3.54018e-06
3.54089e-06
3.54181e-06
3.54293e-06
3.54419e-06
3.54542e-06
3.54571e-06
3.54456e-06
3.54339e-06
3.54227e-06
3.54132e-06
3.54057e-06
3.54004e-06
3.53971e-06
3.53958e-06
3.53967e-06
3.53997e-06
3.54047e-06
3.54117e-06
3.54209e-06
3.5432e-06
3.54445e-06
3.54567e-06
3.54613e-06
3.545e-06
3.54384e-06
3.54274e-06
3.5418e-06
3.54106e-06
3.54054e-06
3.54021e-06
3.54009e-06
3.54018e-06
3.54047e-06
3.54096e-06
3.54165e-06
3.54255e-06
3.54365e-06
3.54489e-06
3.54609e-06
3.54675e-06
3.54564e-06
3.54449e-06
3.54341e-06
3.54248e-06
3.54175e-06
3.54124e-06
3.54092e-06
3.5408e-06
3.54089e-06
3.54117e-06
3.54165e-06
3.54233e-06
3.54322e-06
3.5443e-06
3.54553e-06
3.54671e-06
3.54752e-06
3.54645e-06
3.54533e-06
3.54427e-06
3.54336e-06
3.54266e-06
3.54215e-06
3.54184e-06
3.54173e-06
3.54181e-06
3.54209e-06
3.54255e-06
3.54322e-06
3.54408e-06
3.54514e-06
3.54634e-06
3.54748e-06
3.54859e-06
3.54752e-06
3.54639e-06
3.54533e-06
3.54444e-06
3.54375e-06
3.54327e-06
3.54296e-06
3.54285e-06
3.54293e-06
3.5432e-06
3.54365e-06
3.5443e-06
3.54514e-06
3.5462e-06
3.5474e-06
3.54855e-06
3.54969e-06
3.54865e-06
3.54759e-06
3.54653e-06
3.54568e-06
3.54499e-06
3.54452e-06
3.54422e-06
3.54411e-06
3.54419e-06
3.54445e-06
3.54489e-06
3.54553e-06
3.54634e-06
3.5474e-06
3.54852e-06
3.54964e-06
3.55108e-06
3.54979e-06
3.54874e-06
3.54766e-06
3.54685e-06
3.54619e-06
3.54574e-06
3.54545e-06
3.54535e-06
3.54542e-06
3.54567e-06
3.54609e-06
3.54671e-06
3.54748e-06
3.54855e-06
3.54964e-06
3.55102e-06
3.49457e-06
3.49376e-06
3.49306e-06
3.49235e-06
3.4918e-06
3.49137e-06
3.49107e-06
3.49088e-06
3.49081e-06
3.49085e-06
3.491e-06
3.49127e-06
3.49166e-06
3.49216e-06
3.49285e-06
3.49358e-06
3.49444e-06
3.49376e-06
3.49311e-06
3.49244e-06
3.49175e-06
3.49119e-06
3.49076e-06
3.49045e-06
3.49026e-06
3.49019e-06
3.49023e-06
3.49039e-06
3.49066e-06
3.49105e-06
3.49156e-06
3.49222e-06
3.49294e-06
3.49363e-06
3.49306e-06
3.49244e-06
3.49176e-06
3.49109e-06
3.49053e-06
3.4901e-06
3.48979e-06
3.4896e-06
3.48953e-06
3.48957e-06
3.48973e-06
3.49e-06
3.49039e-06
3.4909e-06
3.49155e-06
3.49227e-06
3.49294e-06
3.49235e-06
3.49175e-06
3.49109e-06
3.49043e-06
3.48987e-06
3.48944e-06
3.48913e-06
3.48894e-06
3.48887e-06
3.48891e-06
3.48907e-06
3.48934e-06
3.48973e-06
3.49024e-06
3.49088e-06
3.49159e-06
3.49223e-06
3.4918e-06
3.4912e-06
3.49053e-06
3.48987e-06
3.48931e-06
3.48888e-06
3.48857e-06
3.48837e-06
3.4883e-06
3.48834e-06
3.4885e-06
3.48878e-06
3.48917e-06
3.48968e-06
3.49032e-06
3.49104e-06
3.49168e-06
3.49137e-06
3.49076e-06
3.4901e-06
3.48944e-06
3.48888e-06
3.48844e-06
3.48813e-06
3.48793e-06
3.48786e-06
3.4879e-06
3.48807e-06
3.48834e-06
3.48874e-06
3.48925e-06
3.48989e-06
3.4906e-06
3.49124e-06
3.49107e-06
3.49045e-06
3.48979e-06
3.48913e-06
3.48857e-06
3.48813e-06
3.48781e-06
3.48762e-06
3.48754e-06
3.48759e-06
3.48775e-06
3.48803e-06
3.48843e-06
3.48895e-06
3.48959e-06
3.4903e-06
3.49094e-06
3.49088e-06
3.49026e-06
3.48961e-06
3.48894e-06
3.48837e-06
3.48793e-06
3.48762e-06
3.48742e-06
3.48735e-06
3.48739e-06
3.48756e-06
3.48784e-06
3.48824e-06
3.48876e-06
3.4894e-06
3.49011e-06
3.49076e-06
3.49081e-06
3.49019e-06
3.48953e-06
3.48887e-06
3.4883e-06
3.48786e-06
3.48754e-06
3.48735e-06
3.48727e-06
3.48731e-06
3.48748e-06
3.48776e-06
3.48816e-06
3.48868e-06
3.48933e-06
3.49004e-06
3.49068e-06
3.49085e-06
3.49023e-06
3.48957e-06
3.48891e-06
3.48834e-06
3.4879e-06
3.48759e-06
3.48739e-06
3.48731e-06
3.48736e-06
3.48752e-06
3.48781e-06
3.48821e-06
3.48873e-06
3.48937e-06
3.49008e-06
3.49072e-06
3.491e-06
3.49039e-06
3.48973e-06
3.48907e-06
3.4885e-06
3.48807e-06
3.48775e-06
3.48756e-06
3.48748e-06
3.48752e-06
3.48769e-06
3.48797e-06
3.48837e-06
3.48889e-06
3.48953e-06
3.49023e-06
3.49088e-06
3.49127e-06
3.49066e-06
3.49e-06
3.48934e-06
3.48878e-06
3.48835e-06
3.48803e-06
3.48784e-06
3.48776e-06
3.48781e-06
3.48797e-06
3.48825e-06
3.48864e-06
3.48916e-06
3.48979e-06
3.4905e-06
3.49115e-06
3.49166e-06
3.49105e-06
3.49039e-06
3.48973e-06
3.48917e-06
3.48874e-06
3.48843e-06
3.48824e-06
3.48816e-06
3.48821e-06
3.48837e-06
3.48864e-06
3.48904e-06
3.48955e-06
3.49018e-06
3.4909e-06
3.49154e-06
3.49216e-06
3.49156e-06
3.4909e-06
3.49024e-06
3.48968e-06
3.48925e-06
3.48895e-06
3.48876e-06
3.48868e-06
3.48873e-06
3.48889e-06
3.48916e-06
3.48955e-06
3.49005e-06
3.49069e-06
3.4914e-06
3.49204e-06
3.49285e-06
3.49223e-06
3.49155e-06
3.49088e-06
3.49032e-06
3.48989e-06
3.48959e-06
3.4894e-06
3.48933e-06
3.48937e-06
3.48952e-06
3.48979e-06
3.49018e-06
3.49069e-06
3.49133e-06
3.49206e-06
3.49272e-06
3.49358e-06
3.49294e-06
3.49227e-06
3.49159e-06
3.49104e-06
3.4906e-06
3.4903e-06
3.49011e-06
3.49004e-06
3.49008e-06
3.49023e-06
3.4905e-06
3.4909e-06
3.4914e-06
3.49206e-06
3.49277e-06
3.49345e-06
3.49444e-06
3.49363e-06
3.49294e-06
3.49223e-06
3.49168e-06
3.49124e-06
3.49094e-06
3.49076e-06
3.49068e-06
3.49072e-06
3.49088e-06
3.49114e-06
3.49154e-06
3.49204e-06
3.49272e-06
3.49345e-06
3.49431e-06
3.45784e-06
3.45778e-06
3.45771e-06
3.4576e-06
3.45752e-06
3.45743e-06
3.45736e-06
3.45731e-06
3.45729e-06
3.45729e-06
3.45733e-06
3.45738e-06
3.45746e-06
3.45752e-06
3.45761e-06
3.45765e-06
3.45772e-06
3.45778e-06
3.45771e-06
3.45761e-06
3.45748e-06
3.45736e-06
3.45725e-06
3.45716e-06
3.4571e-06
3.45708e-06
3.45708e-06
3.45713e-06
3.4572e-06
3.4573e-06
3.45739e-06
3.4575e-06
3.45758e-06
3.45766e-06
3.45771e-06
3.45761e-06
3.45745e-06
3.45728e-06
3.45713e-06
3.457e-06
3.4569e-06
3.45683e-06
3.4568e-06
3.45681e-06
3.45686e-06
3.45695e-06
3.45706e-06
3.45719e-06
3.45733e-06
3.45748e-06
3.45759e-06
3.4576e-06
3.45748e-06
3.45728e-06
3.45708e-06
3.4569e-06
3.45675e-06
3.45663e-06
3.45655e-06
3.45652e-06
3.45653e-06
3.45659e-06
3.45669e-06
3.45682e-06
3.45698e-06
3.45715e-06
3.45734e-06
3.45748e-06
3.45752e-06
3.45736e-06
3.45713e-06
3.4569e-06
3.4567e-06
3.45653e-06
3.4564e-06
3.45631e-06
3.45628e-06
3.45629e-06
3.45636e-06
3.45647e-06
3.45662e-06
3.4568e-06
3.457e-06
3.45722e-06
3.4574e-06
3.45743e-06
3.45725e-06
3.457e-06
3.45675e-06
3.45653e-06
3.45634e-06
3.45621e-06
3.45611e-06
3.45608e-06
3.45609e-06
3.45616e-06
3.45628e-06
3.45645e-06
3.45664e-06
3.45686e-06
3.45711e-06
3.45731e-06
3.45736e-06
3.45716e-06
3.4569e-06
3.45663e-06
3.4564e-06
3.45621e-06
3.45606e-06
3.45596e-06
3.45592e-06
3.45594e-06
3.45602e-06
3.45614e-06
3.45631e-06
3.45652e-06
3.45676e-06
3.45702e-06
3.45724e-06
3.45731e-06
3.4571e-06
3.45683e-06
3.45655e-06
3.45631e-06
3.45611e-06
3.45596e-06
3.45587e-06
3.45583e-06
3.45584e-06
3.45592e-06
3.45605e-06
3.45623e-06
3.45644e-06
3.45669e-06
3.45696e-06
3.45719e-06
3.45729e-06
3.45708e-06
3.4568e-06
3.45652e-06
3.45628e-06
3.45608e-06
3.45592e-06
3.45583e-06
3.45578e-06
3.4558e-06
3.45588e-06
3.45601e-06
3.45619e-06
3.45641e-06
3.45666e-06
3.45693e-06
3.45716e-06
3.45729e-06
3.45708e-06
3.45681e-06
3.45653e-06
3.45629e-06
3.45609e-06
3.45594e-06
3.45584e-06
3.4558e-06
3.45582e-06
3.4559e-06
3.45603e-06
3.45621e-06
3.45642e-06
3.45667e-06
3.45694e-06
3.45717e-06
3.45733e-06
3.45713e-06
3.45686e-06
3.45659e-06
3.45636e-06
3.45616e-06
3.45602e-06
3.45592e-06
3.45588e-06
3.4559e-06
3.45598e-06
3.4561e-06
3.45627e-06
3.45648e-06
3.45672e-06
3.45699e-06
3.4572e-06
3.45738e-06
3.4572e-06
3.45695e-06
3.45669e-06
3.45647e-06
3.45628e-06
3.45614e-06
3.45605e-06
3.45601e-06
3.45603e-06
3.4561e-06
3.45622e-06
3.45639e-06
3.45659e-06
3.45681e-06
3.45706e-06
3.45726e-06
3.45746e-06
3.4573e-06
3.45706e-06
3.45683e-06
3.45662e-06
3.45645e-06
3.45631e-06
3.45623e-06
3.45619e-06
3.45621e-06
3.45627e-06
3.45639e-06
3.45654e-06
3.45672e-06
3.45692e-06
3.45716e-06
3.45734e-06
3.45753e-06
3.45739e-06
3.45719e-06
3.45698e-06
3.4568e-06
3.45664e-06
3.45652e-06
3.45644e-06
3.45641e-06
3.45642e-06
3.45648e-06
3.45659e-06
3.45672e-06
3.45688e-06
3.45706e-06
3.45725e-06
3.45741e-06
3.45761e-06
3.4575e-06
3.45733e-06
3.45715e-06
3.457e-06
3.45686e-06
3.45676e-06
3.45669e-06
3.45666e-06
3.45667e-06
3.45672e-06
3.45681e-06
3.45692e-06
3.45706e-06
3.45721e-06
3.45737e-06
3.45749e-06
3.45766e-06
3.45759e-06
3.45748e-06
3.45734e-06
3.45722e-06
3.45711e-06
3.45702e-06
3.45696e-06
3.45693e-06
3.45694e-06
3.45699e-06
3.45706e-06
3.45716e-06
3.45725e-06
3.45737e-06
3.45746e-06
3.45754e-06
3.45772e-06
3.45766e-06
3.45759e-06
3.45748e-06
3.4574e-06
3.45731e-06
3.45724e-06
3.45719e-06
3.45716e-06
3.45717e-06
3.45721e-06
3.45726e-06
3.45734e-06
3.45741e-06
3.45749e-06
3.45754e-06
3.4576e-06
3.41371e-06
3.41407e-06
3.41443e-06
3.41477e-06
3.41504e-06
3.41522e-06
3.41535e-06
3.41542e-06
3.41544e-06
3.41542e-06
3.41535e-06
3.41523e-06
3.41506e-06
3.4148e-06
3.41446e-06
3.41405e-06
3.41363e-06
3.41407e-06
3.41434e-06
3.41465e-06
3.41495e-06
3.41518e-06
3.41533e-06
3.41543e-06
3.41549e-06
3.41551e-06
3.41549e-06
3.41544e-06
3.41534e-06
3.41519e-06
3.41497e-06
3.41468e-06
3.41432e-06
3.41399e-06
3.41443e-06
3.41465e-06
3.41491e-06
3.41515e-06
3.41534e-06
3.41546e-06
3.41554e-06
3.41558e-06
3.4156e-06
3.41558e-06
3.41554e-06
3.41546e-06
3.41534e-06
3.41517e-06
3.41493e-06
3.41462e-06
3.41435e-06
3.41477e-06
3.41495e-06
3.41515e-06
3.41535e-06
3.41549e-06
3.41558e-06
3.41564e-06
3.41567e-06
3.41568e-06
3.41567e-06
3.41564e-06
3.41558e-06
3.4155e-06
3.41536e-06
3.41516e-06
3.41492e-06
3.41469e-06
3.41504e-06
3.41518e-06
3.41534e-06
3.41549e-06
3.41561e-06
3.41567e-06
3.41571e-06
3.41573e-06
3.41574e-06
3.41573e-06
3.41571e-06
3.41567e-06
3.4156e-06
3.4155e-06
3.41535e-06
3.41515e-06
3.41497e-06
3.41522e-06
3.41533e-06
3.41546e-06
3.41558e-06
3.41567e-06
3.41572e-06
3.41574e-06
3.41576e-06
3.41576e-06
3.41575e-06
3.41574e-06
3.41571e-06
3.41567e-06
3.41559e-06
3.41546e-06
3.4153e-06
3.41515e-06
3.41535e-06
3.41543e-06
3.41554e-06
3.41564e-06
3.41571e-06
3.41574e-06
3.41576e-06
3.41577e-06
3.41577e-06
3.41576e-06
3.41575e-06
3.41574e-06
3.4157e-06
3.41565e-06
3.41554e-06
3.4154e-06
3.41528e-06
3.41542e-06
3.41549e-06
3.41558e-06
3.41567e-06
3.41573e-06
3.41576e-06
3.41577e-06
3.41577e-06
3.41577e-06
3.41576e-06
3.41576e-06
3.41575e-06
3.41572e-06
3.41567e-06
3.41558e-06
3.41546e-06
3.41535e-06
3.41544e-06
3.41551e-06
3.4156e-06
3.41568e-06
3.41574e-06
3.41576e-06
3.41577e-06
3.41577e-06
3.41577e-06
3.41576e-06
3.41576e-06
3.41575e-06
3.41573e-06
3.41568e-06
3.4156e-06
3.41548e-06
3.41537e-06
3.41542e-06
3.41549e-06
3.41558e-06
3.41567e-06
3.41573e-06
3.41575e-06
3.41576e-06
3.41576e-06
3.41576e-06
3.41576e-06
3.41576e-06
3.41574e-06
3.41572e-06
3.41567e-06
3.41558e-06
3.41546e-06
3.41535e-06
3.41535e-06
3.41544e-06
3.41554e-06
3.41564e-06
3.41571e-06
3.41574e-06
3.41575e-06
3.41576e-06
3.41576e-06
3.41576e-06
3.41575e-06
3.41573e-06
3.4157e-06
3.41564e-06
3.41554e-06
3.4154e-06
3.41528e-06
3.41523e-06
3.41534e-06
3.41546e-06
3.41558e-06
3.41567e-06
3.41571e-06
3.41574e-06
3.41575e-06
3.41575e-06
3.41574e-06
3.41573e-06
3.41571e-06
3.41566e-06
3.41559e-06
3.41547e-06
3.41531e-06
3.41516e-06
3.41506e-06
3.41519e-06
3.41534e-06
3.4155e-06
3.4156e-06
3.41567e-06
3.4157e-06
3.41572e-06
3.41573e-06
3.41572e-06
3.4157e-06
3.41566e-06
3.4156e-06
3.41551e-06
3.41535e-06
3.41516e-06
3.41499e-06
3.4148e-06
3.41497e-06
3.41517e-06
3.41536e-06
3.4155e-06
3.41559e-06
3.41565e-06
3.41568e-06
3.41568e-06
3.41567e-06
3.41564e-06
3.41559e-06
3.41551e-06
3.41538e-06
3.41519e-06
3.41495e-06
3.41473e-06
3.41446e-06
3.41468e-06
3.41493e-06
3.41516e-06
3.41535e-06
3.41547e-06
3.41554e-06
3.41558e-06
3.4156e-06
3.41558e-06
3.41554e-06
3.41547e-06
3.41535e-06
3.41519e-06
3.41495e-06
3.41465e-06
3.41438e-06
3.41405e-06
3.41432e-06
3.41463e-06
3.41492e-06
3.41515e-06
3.4153e-06
3.4154e-06
3.41546e-06
3.41548e-06
3.41546e-06
3.41541e-06
3.41531e-06
3.41516e-06
3.41495e-06
3.41465e-06
3.41429e-06
3.41397e-06
3.41363e-06
3.41399e-06
3.41436e-06
3.4147e-06
3.41497e-06
3.41516e-06
3.41528e-06
3.41535e-06
3.41538e-06
3.41535e-06
3.41528e-06
3.41516e-06
3.41499e-06
3.41473e-06
3.41438e-06
3.41397e-06
3.41356e-06
3.37183e-06
3.37238e-06
3.37289e-06
3.37339e-06
3.3738e-06
3.3741e-06
3.37431e-06
3.37443e-06
3.37448e-06
3.37444e-06
3.37432e-06
3.37412e-06
3.37384e-06
3.37344e-06
3.37291e-06
3.37234e-06
3.37172e-06
3.37238e-06
3.37282e-06
3.37329e-06
3.37375e-06
3.37414e-06
3.37442e-06
3.37461e-06
3.37472e-06
3.37476e-06
3.37473e-06
3.37462e-06
3.37443e-06
3.37417e-06
3.3738e-06
3.37331e-06
3.37277e-06
3.37227e-06
3.37289e-06
3.37329e-06
3.37372e-06
3.37413e-06
3.37448e-06
3.37473e-06
3.3749e-06
3.375e-06
3.37504e-06
3.37501e-06
3.37491e-06
3.37475e-06
3.3745e-06
3.37417e-06
3.37373e-06
3.37324e-06
3.37278e-06
3.37339e-06
3.37375e-06
3.37413e-06
3.3745e-06
3.37481e-06
3.37503e-06
3.37519e-06
3.37528e-06
3.37531e-06
3.37528e-06
3.3752e-06
3.37505e-06
3.37483e-06
3.37453e-06
3.37414e-06
3.3737e-06
3.37329e-06
3.3738e-06
3.37414e-06
3.37448e-06
3.37481e-06
3.37509e-06
3.37529e-06
3.37542e-06
3.3755e-06
3.37553e-06
3.3755e-06
3.37543e-06
3.3753e-06
3.3751e-06
3.37483e-06
3.37448e-06
3.37408e-06
3.3737e-06
3.3741e-06
3.37442e-06
3.37473e-06
3.37503e-06
3.37529e-06
3.37547e-06
3.37559e-06
3.37566e-06
3.37569e-06
3.37567e-06
3.3756e-06
3.37548e-06
3.3753e-06
3.37505e-06
3.37473e-06
3.37436e-06
3.374e-06
3.37431e-06
3.37461e-06
3.3749e-06
3.37519e-06
3.37542e-06
3.37559e-06
3.37571e-06
3.37577e-06
3.37579e-06
3.37577e-06
3.37571e-06
3.3756e-06
3.37543e-06
3.37521e-06
3.3749e-06
3.37455e-06
3.37421e-06
3.37443e-06
3.37472e-06
3.375e-06
3.37528e-06
3.3755e-06
3.37566e-06
3.37577e-06
3.37584e-06
3.37586e-06
3.37584e-06
3.37578e-06
3.37567e-06
3.37551e-06
3.37529e-06
3.375e-06
3.37466e-06
3.37433e-06
3.37448e-06
3.37476e-06
3.37504e-06
3.37531e-06
3.37553e-06
3.37569e-06
3.37579e-06
3.37586e-06
3.37588e-06
3.37586e-06
3.3758e-06
3.37569e-06
3.37554e-06
3.37532e-06
3.37504e-06
3.3747e-06
3.37438e-06
3.37444e-06
3.37473e-06
3.37501e-06
3.37528e-06
3.3755e-06
3.37567e-06
3.37577e-06
3.37584e-06
3.37586e-06
3.37584e-06
3.37578e-06
3.37567e-06
3.37552e-06
3.3753e-06
3.37501e-06
3.37467e-06
3.37434e-06
3.37432e-06
3.37462e-06
3.37491e-06
3.3752e-06
3.37543e-06
3.3756e-06
3.37571e-06
3.37578e-06
3.3758e-06
3.37578e-06
3.37571e-06
3.3756e-06
3.37544e-06
3.37521e-06
3.37491e-06
3.37456e-06
3.37423e-06
3.37412e-06
3.37444e-06
3.37475e-06
3.37505e-06
3.3753e-06
3.37548e-06
3.3756e-06
3.37567e-06
3.37569e-06
3.37567e-06
3.3756e-06
3.37549e-06
3.37531e-06
3.37507e-06
3.37475e-06
3.37438e-06
3.37402e-06
3.37384e-06
3.37417e-06
3.3745e-06
3.37483e-06
3.3751e-06
3.3753e-06
3.37543e-06
3.37551e-06
3.37554e-06
3.37552e-06
3.37544e-06
3.37531e-06
3.37512e-06
3.37486e-06
3.37451e-06
3.37411e-06
3.37374e-06
3.37344e-06
3.3738e-06
3.37417e-06
3.37453e-06
3.37484e-06
3.37506e-06
3.37521e-06
3.37529e-06
3.37533e-06
3.3753e-06
3.37521e-06
3.37507e-06
3.37486e-06
3.37456e-06
3.37418e-06
3.37374e-06
3.37334e-06
3.37291e-06
3.37331e-06
3.37374e-06
3.37414e-06
3.37448e-06
3.37473e-06
3.3749e-06
3.375e-06
3.37504e-06
3.37501e-06
3.37491e-06
3.37475e-06
3.37451e-06
3.37418e-06
3.37375e-06
3.37326e-06
3.37281e-06
3.37234e-06
3.37277e-06
3.37324e-06
3.3737e-06
3.37408e-06
3.37436e-06
3.37455e-06
3.37467e-06
3.37471e-06
3.37467e-06
3.37456e-06
3.37438e-06
3.37411e-06
3.37374e-06
3.37326e-06
3.37273e-06
3.37224e-06
3.37172e-06
3.37228e-06
3.37279e-06
3.37329e-06
3.3737e-06
3.37401e-06
3.37421e-06
3.37434e-06
3.37438e-06
3.37434e-06
3.37423e-06
3.37403e-06
3.37374e-06
3.37334e-06
3.37281e-06
3.37224e-06
3.37162e-06
3.33155e-06
3.3322e-06
3.33279e-06
3.3334e-06
3.3339e-06
3.33427e-06
3.33453e-06
3.33469e-06
3.33474e-06
3.3347e-06
3.33455e-06
3.3343e-06
3.33395e-06
3.33347e-06
3.33283e-06
3.33216e-06
3.33145e-06
3.3322e-06
3.33272e-06
3.33328e-06
3.33384e-06
3.33432e-06
3.33468e-06
3.33493e-06
3.33508e-06
3.33513e-06
3.33509e-06
3.33495e-06
3.33471e-06
3.33437e-06
3.33391e-06
3.33331e-06
3.33268e-06
3.33209e-06
3.33279e-06
3.33328e-06
3.3338e-06
3.33432e-06
3.33477e-06
3.3351e-06
3.33534e-06
3.33547e-06
3.33552e-06
3.33548e-06
3.33535e-06
3.33513e-06
3.33481e-06
3.33438e-06
3.33384e-06
3.33323e-06
3.33269e-06
3.3334e-06
3.33384e-06
3.33432e-06
3.33481e-06
3.33522e-06
3.33553e-06
3.33574e-06
3.33587e-06
3.33591e-06
3.33588e-06
3.33576e-06
3.33555e-06
3.33526e-06
3.33486e-06
3.33436e-06
3.33379e-06
3.33329e-06
3.3339e-06
3.33432e-06
3.33477e-06
3.33522e-06
3.3356e-06
3.33589e-06
3.33608e-06
3.3362e-06
3.33625e-06
3.33621e-06
3.3361e-06
3.33591e-06
3.33564e-06
3.33527e-06
3.3348e-06
3.33427e-06
3.3338e-06
3.33427e-06
3.33468e-06
3.3351e-06
3.33553e-06
3.33589e-06
3.33615e-06
3.33634e-06
3.33645e-06
3.33649e-06
3.33646e-06
3.33636e-06
3.33618e-06
3.33592e-06
3.33557e-06
3.33513e-06
3.33463e-06
3.33417e-06
3.33453e-06
3.33493e-06
3.33534e-06
3.33574e-06
3.33608e-06
3.33634e-06
3.33652e-06
3.33663e-06
3.33666e-06
3.33663e-06
3.33653e-06
3.33636e-06
3.33612e-06
3.33578e-06
3.33536e-06
3.33488e-06
3.33444e-06
3.33469e-06
3.33508e-06
3.33547e-06
3.33587e-06
3.3362e-06
3.33645e-06
3.33663e-06
3.33673e-06
3.33677e-06
3.33674e-06
3.33664e-06
3.33648e-06
3.33624e-06
3.33591e-06
3.3355e-06
3.33503e-06
3.33459e-06
3.33474e-06
3.33513e-06
3.33552e-06
3.33591e-06
3.33625e-06
3.33649e-06
3.33667e-06
3.33677e-06
3.3368e-06
3.33677e-06
3.33668e-06
3.33651e-06
3.33628e-06
3.33596e-06
3.33555e-06
3.33508e-06
3.33465e-06
3.3347e-06
3.33509e-06
3.33548e-06
3.33588e-06
3.33621e-06
3.33646e-06
3.33663e-06
3.33674e-06
3.33677e-06
3.33674e-06
3.33665e-06
3.33648e-06
3.33624e-06
3.33592e-06
3.33551e-06
3.33504e-06
3.3346e-06
3.33455e-06
3.33495e-06
3.33536e-06
3.33576e-06
3.3361e-06
3.33636e-06
3.33654e-06
3.33664e-06
3.33668e-06
3.33665e-06
3.33655e-06
3.33638e-06
3.33613e-06
3.3358e-06
3.33538e-06
3.3349e-06
3.33446e-06
3.33431e-06
3.33471e-06
3.33513e-06
3.33555e-06
3.33591e-06
3.33618e-06
3.33636e-06
3.33648e-06
3.33652e-06
3.33648e-06
3.33638e-06
3.3362e-06
3.33595e-06
3.3356e-06
3.33516e-06
3.33466e-06
3.33421e-06
3.33395e-06
3.33437e-06
3.33481e-06
3.33526e-06
3.33564e-06
3.33592e-06
3.33612e-06
3.33624e-06
3.33628e-06
3.33624e-06
3.33613e-06
3.33595e-06
3.33567e-06
3.33531e-06
3.33484e-06
3.33432e-06
3.33385e-06
3.33347e-06
3.33391e-06
3.33439e-06
3.33486e-06
3.33527e-06
3.33557e-06
3.33579e-06
3.33591e-06
3.33596e-06
3.33592e-06
3.3358e-06
3.3356e-06
3.33531e-06
3.33492e-06
3.33442e-06
3.33386e-06
3.33337e-06
3.33283e-06
3.33332e-06
3.33384e-06
3.33436e-06
3.3348e-06
3.33513e-06
3.33536e-06
3.3355e-06
3.33555e-06
3.33551e-06
3.33538e-06
3.33516e-06
3.33484e-06
3.33442e-06
3.33387e-06
3.33327e-06
3.33273e-06
3.33216e-06
3.33268e-06
3.33323e-06
3.33379e-06
3.33427e-06
3.33463e-06
3.33488e-06
3.33503e-06
3.33509e-06
3.33504e-06
3.3349e-06
3.33466e-06
3.33432e-06
3.33386e-06
3.33327e-06
3.33264e-06
3.33206e-06
3.33145e-06
3.33209e-06
3.33269e-06
3.3333e-06
3.3338e-06
3.33417e-06
3.33444e-06
3.33459e-06
3.33465e-06
3.3346e-06
3.33446e-06
3.33421e-06
3.33385e-06
3.33337e-06
3.33273e-06
3.33206e-06
3.33135e-06
3.29241e-06
3.29304e-06
3.29363e-06
3.29425e-06
3.29476e-06
3.29515e-06
3.29542e-06
3.29559e-06
3.29565e-06
3.2956e-06
3.29545e-06
3.29519e-06
3.29481e-06
3.29432e-06
3.29367e-06
3.29301e-06
3.29231e-06
3.29304e-06
3.29356e-06
3.29412e-06
3.2947e-06
3.29519e-06
3.29558e-06
3.29584e-06
3.29601e-06
3.29606e-06
3.29602e-06
3.29587e-06
3.29561e-06
3.29525e-06
3.29477e-06
3.29416e-06
3.29352e-06
3.29294e-06
3.29363e-06
3.29412e-06
3.29465e-06
3.2952e-06
3.29567e-06
3.29603e-06
3.29628e-06
3.29643e-06
3.29649e-06
3.29645e-06
3.2963e-06
3.29606e-06
3.29572e-06
3.29527e-06
3.29469e-06
3.29407e-06
3.29352e-06
3.29425e-06
3.2947e-06
3.2952e-06
3.29571e-06
3.29615e-06
3.29649e-06
3.29673e-06
3.29687e-06
3.29692e-06
3.29688e-06
3.29675e-06
3.29652e-06
3.2962e-06
3.29577e-06
3.29524e-06
3.29465e-06
3.29414e-06
3.29476e-06
3.29519e-06
3.29567e-06
3.29615e-06
3.29657e-06
3.29689e-06
3.29711e-06
3.29725e-06
3.2973e-06
3.29726e-06
3.29714e-06
3.29692e-06
3.29662e-06
3.29621e-06
3.2957e-06
3.29515e-06
3.29466e-06
3.29515e-06
3.29558e-06
3.29603e-06
3.29649e-06
3.29689e-06
3.29719e-06
3.29741e-06
3.29754e-06
3.29759e-06
3.29755e-06
3.29743e-06
3.29723e-06
3.29693e-06
3.29655e-06
3.29606e-06
3.29553e-06
3.29505e-06
3.29542e-06
3.29584e-06
3.29628e-06
3.29673e-06
3.29711e-06
3.29741e-06
3.29762e-06
3.29774e-06
3.29779e-06
3.29775e-06
3.29764e-06
3.29744e-06
3.29716e-06
3.29678e-06
3.29631e-06
3.2958e-06
3.29533e-06
3.29559e-06
3.29601e-06
3.29643e-06
3.29687e-06
3.29725e-06
3.29754e-06
3.29774e-06
3.29786e-06
3.29791e-06
3.29787e-06
3.29776e-06
3.29757e-06
3.29729e-06
3.29693e-06
3.29646e-06
3.29596e-06
3.29549e-06
3.29565e-06
3.29606e-06
3.29649e-06
3.29692e-06
3.2973e-06
3.29759e-06
3.29779e-06
3.29791e-06
3.29795e-06
3.29792e-06
3.29781e-06
3.29762e-06
3.29734e-06
3.29698e-06
3.29652e-06
3.29602e-06
3.29555e-06
3.2956e-06
3.29602e-06
3.29645e-06
3.29688e-06
3.29726e-06
3.29755e-06
3.29775e-06
3.29787e-06
3.29792e-06
3.29788e-06
3.29777e-06
3.29758e-06
3.2973e-06
3.29694e-06
3.29648e-06
3.29597e-06
3.29551e-06
3.29545e-06
3.29587e-06
3.29631e-06
3.29675e-06
3.29714e-06
3.29743e-06
3.29764e-06
3.29776e-06
3.29781e-06
3.29777e-06
3.29766e-06
3.29746e-06
3.29718e-06
3.29681e-06
3.29634e-06
3.29582e-06
3.29535e-06
3.29519e-06
3.29561e-06
3.29607e-06
3.29652e-06
3.29692e-06
3.29723e-06
3.29744e-06
3.29757e-06
3.29762e-06
3.29758e-06
3.29746e-06
3.29726e-06
3.29697e-06
3.29658e-06
3.2961e-06
3.29557e-06
3.29509e-06
3.29481e-06
3.29525e-06
3.29572e-06
3.2962e-06
3.29662e-06
3.29693e-06
3.29716e-06
3.29729e-06
3.29734e-06
3.2973e-06
3.29718e-06
3.29697e-06
3.29666e-06
3.29626e-06
3.29576e-06
3.2952e-06
3.29471e-06
3.29432e-06
3.29477e-06
3.29527e-06
3.29577e-06
3.29621e-06
3.29655e-06
3.29678e-06
3.29693e-06
3.29698e-06
3.29694e-06
3.29681e-06
3.29658e-06
3.29626e-06
3.29584e-06
3.2953e-06
3.29472e-06
3.29422e-06
3.29367e-06
3.29416e-06
3.2947e-06
3.29524e-06
3.29571e-06
3.29606e-06
3.29631e-06
3.29647e-06
3.29652e-06
3.29648e-06
3.29634e-06
3.2961e-06
3.29576e-06
3.29531e-06
3.29474e-06
3.29412e-06
3.29357e-06
3.29301e-06
3.29352e-06
3.29407e-06
3.29465e-06
3.29515e-06
3.29553e-06
3.2958e-06
3.29596e-06
3.29602e-06
3.29597e-06
3.29582e-06
3.29557e-06
3.2952e-06
3.29472e-06
3.29412e-06
3.29348e-06
3.2929e-06
3.29231e-06
3.29294e-06
3.29353e-06
3.29415e-06
3.29466e-06
3.29505e-06
3.29533e-06
3.29549e-06
3.29555e-06
3.29551e-06
3.29535e-06
3.29509e-06
3.29471e-06
3.29422e-06
3.29357e-06
3.2929e-06
3.2922e-06
3.25441e-06
3.25497e-06
3.25549e-06
3.25606e-06
3.25654e-06
3.25691e-06
3.25717e-06
3.25732e-06
3.25738e-06
3.25733e-06
3.25719e-06
3.25694e-06
3.25659e-06
3.25613e-06
3.25553e-06
3.25493e-06
3.2543e-06
3.25497e-06
3.25544e-06
3.25594e-06
3.25647e-06
3.25694e-06
3.2573e-06
3.25756e-06
3.25772e-06
3.25777e-06
3.25773e-06
3.25758e-06
3.25734e-06
3.25699e-06
3.25654e-06
3.25597e-06
3.25539e-06
3.25486e-06
3.25549e-06
3.25594e-06
3.25643e-06
3.25694e-06
3.25739e-06
3.25773e-06
3.25798e-06
3.25813e-06
3.25818e-06
3.25814e-06
3.258e-06
3.25777e-06
3.25743e-06
3.257e-06
3.25646e-06
3.25589e-06
3.25539e-06
3.25606e-06
3.25647e-06
3.25694e-06
3.25742e-06
3.25785e-06
3.25818e-06
3.25841e-06
3.25855e-06
3.2586e-06
3.25856e-06
3.25843e-06
3.25821e-06
3.25789e-06
3.25748e-06
3.25697e-06
3.25642e-06
3.25596e-06
3.25654e-06
3.25694e-06
3.25739e-06
3.25785e-06
3.25825e-06
3.25857e-06
3.25879e-06
3.25893e-06
3.25898e-06
3.25894e-06
3.25881e-06
3.2586e-06
3.2583e-06
3.2579e-06
3.25742e-06
3.25689e-06
3.25644e-06
3.25691e-06
3.2573e-06
3.25773e-06
3.25818e-06
3.25857e-06
3.25887e-06
3.25909e-06
3.25922e-06
3.25926e-06
3.25923e-06
3.25911e-06
3.2589e-06
3.25861e-06
3.25823e-06
3.25776e-06
3.25725e-06
3.25681e-06
3.25717e-06
3.25756e-06
3.25798e-06
3.25841e-06
3.25879e-06
3.25909e-06
3.25929e-06
3.25942e-06
3.25947e-06
3.25943e-06
3.25932e-06
3.25912e-06
3.25883e-06
3.25846e-06
3.258e-06
3.25751e-06
3.25707e-06
3.25732e-06
3.25772e-06
3.25813e-06
3.25855e-06
3.25893e-06
3.25922e-06
3.25942e-06
3.25955e-06
3.25959e-06
3.25956e-06
3.25944e-06
3.25925e-06
3.25897e-06
3.2586e-06
3.25815e-06
3.25766e-06
3.25723e-06
3.25738e-06
3.25777e-06
3.25818e-06
3.2586e-06
3.25898e-06
3.25926e-06
3.25947e-06
3.25959e-06
3.25964e-06
3.2596e-06
3.25949e-06
3.25929e-06
3.25902e-06
3.25866e-06
3.25821e-06
3.25772e-06
3.25728e-06
3.25733e-06
3.25773e-06
3.25814e-06
3.25856e-06
3.25894e-06
3.25923e-06
3.25943e-06
3.25956e-06
3.2596e-06
3.25957e-06
3.25945e-06
3.25926e-06
3.25898e-06
3.25862e-06
3.25817e-06
3.25768e-06
3.25724e-06
3.25719e-06
3.25758e-06
3.258e-06
3.25843e-06
3.25881e-06
3.25911e-06
3.25932e-06
3.25944e-06
3.25949e-06
3.25945e-06
3.25934e-06
3.25914e-06
3.25886e-06
3.25849e-06
3.25803e-06
3.25753e-06
3.25709e-06
3.25694e-06
3.25734e-06
3.25777e-06
3.25821e-06
3.2586e-06
3.2589e-06
3.25912e-06
3.25925e-06
3.25929e-06
3.25926e-06
3.25914e-06
3.25893e-06
3.25864e-06
3.25827e-06
3.2578e-06
3.25729e-06
3.25684e-06
3.25659e-06
3.25699e-06
3.25743e-06
3.25789e-06
3.2583e-06
3.25861e-06
3.25883e-06
3.25897e-06
3.25902e-06
3.25898e-06
3.25886e-06
3.25865e-06
3.25834e-06
3.25795e-06
3.25747e-06
3.25694e-06
3.25649e-06
3.25613e-06
3.25654e-06
3.257e-06
3.25748e-06
3.2579e-06
3.25823e-06
3.25846e-06
3.25861e-06
3.25866e-06
3.25862e-06
3.25849e-06
3.25827e-06
3.25795e-06
3.25754e-06
3.25703e-06
3.25649e-06
3.25603e-06
3.25553e-06
3.25597e-06
3.25646e-06
3.25697e-06
3.25742e-06
3.25776e-06
3.25801e-06
3.25816e-06
3.25821e-06
3.25817e-06
3.25803e-06
3.2578e-06
3.25747e-06
3.25703e-06
3.2565e-06
3.25592e-06
3.25543e-06
3.25493e-06
3.25539e-06
3.25589e-06
3.25643e-06
3.25689e-06
3.25725e-06
3.25751e-06
3.25767e-06
3.25772e-06
3.25768e-06
3.25753e-06
3.25729e-06
3.25694e-06
3.25649e-06
3.25592e-06
3.25534e-06
3.25482e-06
3.2543e-06
3.25486e-06
3.25539e-06
3.25596e-06
3.25644e-06
3.25681e-06
3.25707e-06
3.25723e-06
3.25728e-06
3.25724e-06
3.25709e-06
3.25684e-06
3.25649e-06
3.25603e-06
3.25543e-06
3.25482e-06
3.2542e-06
3.21729e-06
3.21776e-06
3.2182e-06
3.2187e-06
3.21912e-06
3.21944e-06
3.21968e-06
3.21982e-06
3.21987e-06
3.21983e-06
3.2197e-06
3.21948e-06
3.21916e-06
3.21875e-06
3.21823e-06
3.21772e-06
3.21719e-06
3.21776e-06
3.21816e-06
3.21858e-06
3.21905e-06
3.21946e-06
3.21979e-06
3.22002e-06
3.22016e-06
3.22021e-06
3.22017e-06
3.22004e-06
3.21982e-06
3.21951e-06
3.21911e-06
3.21861e-06
3.21811e-06
3.21766e-06
3.2182e-06
3.21858e-06
3.219e-06
3.21945e-06
3.21985e-06
3.22016e-06
3.22039e-06
3.22052e-06
3.22057e-06
3.22053e-06
3.22041e-06
3.22019e-06
3.21989e-06
3.21951e-06
3.21903e-06
3.21853e-06
3.21811e-06
3.2187e-06
3.21905e-06
3.21945e-06
3.21988e-06
3.22026e-06
3.22056e-06
3.22078e-06
3.22091e-06
3.22095e-06
3.22092e-06
3.2208e-06
3.22059e-06
3.2203e-06
3.21993e-06
3.21948e-06
3.219e-06
3.2186e-06
3.21912e-06
3.21946e-06
3.21985e-06
3.22026e-06
3.22063e-06
3.22092e-06
3.22112e-06
3.22125e-06
3.2213e-06
3.22126e-06
3.22114e-06
3.22095e-06
3.22067e-06
3.22031e-06
3.21988e-06
3.21941e-06
3.21902e-06
3.21944e-06
3.21979e-06
3.22016e-06
3.22056e-06
3.22092e-06
3.2212e-06
3.2214e-06
3.22152e-06
3.22156e-06
3.22153e-06
3.22142e-06
3.22123e-06
3.22096e-06
3.22061e-06
3.22019e-06
3.21973e-06
3.21935e-06
3.21968e-06
3.22002e-06
3.22039e-06
3.22078e-06
3.22112e-06
3.2214e-06
3.22159e-06
3.22171e-06
3.22175e-06
3.22172e-06
3.22161e-06
3.22142e-06
3.22116e-06
3.22082e-06
3.22041e-06
3.21997e-06
3.21958e-06
3.21982e-06
3.22016e-06
3.22052e-06
3.22091e-06
3.22125e-06
3.22152e-06
3.22171e-06
3.22183e-06
3.22187e-06
3.22184e-06
3.22173e-06
3.22155e-06
3.22129e-06
3.22095e-06
3.22054e-06
3.22011e-06
3.21972e-06
3.21987e-06
3.22021e-06
3.22057e-06
3.22095e-06
3.2213e-06
3.22156e-06
3.22175e-06
3.22187e-06
3.22191e-06
3.22188e-06
3.22177e-06
3.22159e-06
3.22133e-06
3.221e-06
3.22059e-06
3.22016e-06
3.21977e-06
3.21983e-06