/*--------------------------------*- C++ -*----------------------------------*\
  =========                 |
  \\      /  F ield         | OpenFOAM: The Open Source CFD Toolbox
   \\    /   O peration     | Website:  https://openfoam.org
    \\  /    A nd           | Version:  6
     \\/     M anipulation  |
\*---------------------------------------------------------------------------*/
FoamFile
{
    version     2.0;
    format      ascii;
    class       volScalarField;
    location    "0";
    object      p;
}
// * * * * * * * * * * * * * * * * * * * * * * * * * * * * * * * * * * * * * //

dimensions      [0 2 -2 0 0 0 0];

internalField   nonuniform List<scalar> 
918
(
0.317813
0.893881
-0.00492722
0.303463
0.00265499
0.864024
-0.751621
0.321997
0.298138
-0.125489
0.00694114
0.255525
0.71065
0.464179
-1.49272
0.0260749
0.371145
-0.880161
0.237738
0.0165635
0.465916
0.325368
0.307386
0.263073
0.298672
0.543684
0.57587
-9.78593e-05
-0.000289071
-0.00823798
-0.00605634
-0.00216362
0.0060196
0.737372
0.783583
0.802332
0.249671
-0.0211445
-0.541582
-0.611849
-0.571314
-0.868023
0.328937
0.345217
-0.367971
0.306742
0.308194
0.258983
0.292845
0.296233
0.305144
0.301115
0.30602
0.254746
-0.151779
-0.243131
-0.10539
-0.0657919
0.0639979
0.00616649
0.0153735
0.020599
0.0248227
0.209882
0.250475
0.256779
0.263951
0.262556
0.819319
0.792636
0.814663
0.737662
0.756635
0.683684
0.656068
0.477376
0.52452
0.438585
0.445634
-1.85713
-2.58304
-1.01521
-0.737136
0.0013927
0.0225837
0.0279747
0.369994
0.381247
0.367034
0.377945
0.657169
-0.745232
-0.958792
0.287794
0.265077
0.301912
0.294484
0.245829
0.267086
0.00435757
0.00652035
0.00871178
0.0144727
0.00437564
0.358057
0.335126
0.221739
0.238471
0.267982
0.271675
0.270153
0.0528117
0.305386
0.324336
0.20694
0.417088
0.483169
0.459625
0.541622
0.531882
0.610231
0.638402
0.010931
0.00685055
0.00218528
0.0110329
0.00572914
0.243013
0.238265
0.261914
0.250114
0.254863
-0.110699
-0.277434
0.118581
0.257176
-0.406329
-0.493108
-0.804502
-0.713215
-0.995855
0.758451
0.339156
0.357266
-0.312268
-0.287716
-0.409061
-0.226196
-0.284249
0.265321
0.256531
0.259736
0.24967
0.257148
0.262777
0.300922
0.294832
0.296519
0.272891
0.344041
0.220172
0.208889
-0.506882
-0.261009
-0.464692
-0.0418245
-0.0498575
0.0768468
0.0897851
0.0604736
0.0652624
-0.0222262
-0.000614343
-0.0024035
0.0214965
0.00771471
0.210917
0.192845
0.208007
0.225797
0.25603
0.256519
0.249103
0.25127
0.60023
0.627056
0.632013
0.603732
-3.30198
-5.21466
-0.4619
-0.261838
0.00965924
0.00656831
0.00202516
-0.00480503
0.00243811
-0.00148391
0.0537316
0.0500643
0.0238177
0.0087602
0.358669
0.365214
0.643499
0.691464
0.581055
0.568611
0.263953
0.265032
0.267733
0.261518
0.0157071
0.00644607
0.0116729
0.297335
0.303485
0.307658
0.023228
-0.0668533
0.0912565
0.122675
0.348291
0.342658
0.35156
0.329122
0.38903
0.65013
0.675266
0.663623
0.682576
0.733002
0.75563
0.715464
0.227403
0.23582
0.229998
0.269433
0.254837
0.263845
0.260622
0.255399
0.257851
-0.342925
-0.580931
0.655111
0.574097
0.37911
0.511659
0.735831
0.769419
0.365804
0.35709
0.369168
-0.199397
-0.259454
0.181479
0.138694
0.156027
0.173365
0.163094
0.577622
0.559704
0.585557
0.551414
0.544899
0.543692
-0.495723
-1.6826
-0.914121
0.16427
-0.0819447
0.029749
0.061032
0.0345745
0.0440984
0.67
0.726934
0.379833
0.470994
0.467276
0.456768
0.449508
0.49547
0.446869
0.448206
0.497632
0.459925
0.723378
0.67959
0.730172
0.732881
0.742595
-0.100377
-0.144914
-0.178231
0.0964928
0.131805
0.120589
0.713162
0.713735
0.752054
0.221096
0.260226
0.0148921
0.0232232
0.296359
0.276563
0.00870926
0.0158329
-0.0535899
-1.33477
-0.0371061
0.263969
0.264937
0.280734
-0.101607
0.243902
0.0105827
0.0752496
0.0704458
0.245962
0.216937
0.183108
0.0196756
0.0114744
-0.00439076
-0.357001
0.257138
0.253148
0.280847
0.280653
0.293349
0.0120357
0.0132875
0.0127488
-0.00526851
0.0155797
0.0205524
0.245702
0.247886
-0.234742
0.268735
0.275469
0.282965
0.259984
0.283298
0.291321
0.0124844
0.0101253
-0.00103296
-0.00462745
0.122802
0.311892
0.541033
0.148592
-0.122381
-0.427155
0.200396
0.267655
0.117765
0.38584
0.314272
0.288153
0.0347348
-0.0751663
-0.02142
-0.0789127
0.262207
0.262618
0.251166
0.268281
0.258807
0.273516
0.254672
0.264261
0.257113
0.256193
-0.0526189
-0.0873869
-0.114737
-0.159591
0.276183
0.352513
0.188213
0.199459
0.118227
0.0186441
0.0226753
0.00932126
0.00428538
0.0542924
0.0602913
0.0570916
0.0541265
0.037374
0.0288716
0.0522172
0.0322296
0.0400296
0.247771
0.247473
0.243271
0.261936
0.233069
0.228116
0.204288
0.211169
0.213148
0.170795
0.170397
0.173581
0.0116822
0.00582859
0.00628036
0.0185365
0.0156234
0.0190564
0.0161848
-0.0229304
-0.0034318
0.013445
0.0129905
0.0148972
-0.270531
-0.400443
0.596511
0.519794
0.306225
0.278065
0.274692
0.262773
0.244017
0.271867
0.288731
0.282883
0.254531
0.255406
0.25529
0.251867
0.259292
-0.141552
-0.25176
-0.0558753
-0.163383
-0.000447648
0.32621
0.10671
0.120313
0.0811763
0.240808
-0.028165
0.16932
0.512042
0.471271
-1.02375
-0.628806
-0.870164
-0.551137
-0.790834
0.35812
0.400876
0.37877
0.360816
0.299068
-0.27606
0.0716721
-0.141011
-0.0566013
0.0906878
-0.00119328
0.215818
0.327178
0.348289
0.263396
0.272641
0.292275
0.269492
0.280078
0.290296
0.309162
0.208296
0.0059056
0.018578
-0.0319436
0.349731
0.24334
0.264167
0.225043
0.26771
0.264645
0.268401
0.264903
0.269295
0.260736
0.259569
0.260495
0.264997
0.265285
0.258538
0.260334
-0.0481891
-0.025533
-0.0845128
-0.221392
-0.199839
-0.297655
-0.121957
0.0885702
0.0172327
0.244414
0.347305
0.0630101
-0.0950434
-0.0674615
0.00227842
0.118811
0.0893249
0.0987745
0.13453
0.167764
0.12832
0.189925
0.17503
0.0168496
0.0420224
0.0140499
0.00941193
0.0803541
0.0916093
0.0935799
0.0396946
0.0538327
0.015644
0.0281825
0.0666079
0.0451815
0.0643982
0.0608263
0.0197956
0.0174717
0.0282422
0.0208372
0.06167
0.0241093
0.248063
0.255199
0.254565
0.244231
0.256558
0.275838
0.239372
0.234813
0.236249
0.236955
0.210493
0.219641
0.216353
0.232916
0.233071
0.244139
0.25626
0.256095
0.239554
0.232293
0.2287
0.23541
0.189565
0.17631
0.187929
0.0322754
0.00254036
0.0184706
0.0271898
0.0115419
0.0125488
0.0441909
0.0409463
0.063018
0.0221276
0.0512205
-0.00208115
0.0125745
-0.0980889
0.0210559
-0.222625
-0.30999
-0.367181
0.592591
0.652898
0.508352
0.438015
0.451225
0.532204
0.565137
0.358666
0.449194
0.415855
0.674564
0.672898
0.226385
0.222172
0.254599
0.246365
0.24867
0.0317982
0.182994
0.151733
0.251546
0.19854
0.188764
0.424278
0.419752
0.485652
0.442585
0.315486
0.330307
0.287448
0.317622
0.331351
0.167734
0.239898
0.285926
0.240449
0.264272
0.281449
0.249784
0.263799
0.246794
0.234625
0.225995
0.165062
0.198155
0.186556
0.189317
0.230828
0.228806
0.226412
0.220551
0.249147
0.272085
0.260136
0.269855
0.277107
0.215607
0.183784
0.196586
0.214227
0.192543
0.183612
0.198254
0.477057
0.495035
0.262116
-0.21465
-0.134238
-0.24166
-0.277264
-0.115285
0.139136
-0.535238
-0.441142
-0.880925
0.0298364
-0.156971
0.0650584
0.0625713
0.249754
0.207627
0.171739
0.225285
0.265543
0.333537
0.339245
0.347978
0.230013
0.252373
0.208008
0.241719
0.172
0.280216
0.2904
0.232424
0.14137
0.159653
0.225531
0.207117
0.15815
0.133254
0.187221
0.0839615
0.122678
0.206679
0.216062
0.154679
0.250831
0.317084
0.303405
0.281775
0.220701
0.242021
0.240408
0.273242
0.282955
0.29015
0.249094
0.259008
0.25576
0.255019
0.25247
0.256725
0.253007
0.261516
0.265221
0.286246
0.275826
0.00578047
0.0121131
-0.013678
-0.0147055
0.0623337
0.00506403
-0.0461705
-0.0487649
0.0287198
0.028963
0.0178788
-0.0258383
-0.00232052
0.0245457
0.155506
0.166758
0.165035
0.105556
0.216398
0.310937
0.357044
0.305352
0.186955
0.213472
0.25659
0.0663741
0.0746177
0.0633734
0.0870458
0.0867556
0.0108307
0.0021498
0.00496709
0.0271482
0.00907952
0.00772897
0.0174879
0.0157023
0.0177585
0.0237566
0.0190768
0.23878
0.218222
0.183332
0.182814
0.191484
0.21499
0.241811
0.241247
0.254935
0.250342
0.242087
0.246825
0.253712
-0.00292432
0.00922726
-0.00127119
0.0134274
0.0342541
0.0245791
0.0230314
0.284826
0.135264
0.247677
0.0610022
-0.155763
-0.058612
0.531174
0.62438
0.65519
0.639578
0.576874
0.573021
0.636299
0.674701
0.410956
0.528149
0.4659
0.631365
0.637352
0.665391
0.539598
0.398863
0.23351
0.25452
0.458014
0.363215
0.281589
0.175128
0.16583
0.284479
0.326105
0.319355
0.358986
0.410417
0.413946
0.351943
0.411849
0.323581
0.412771
0.354908
0.401399
0.312587
0.305479
0.32593
0.351212
0.317801
0.343939
0.291837
0.295017
0.295289
0.310309
0.298937
-0.821319
-0.769248
-1.63373
-1.26451
-0.901936
-0.218339
-0.00470306
-0.322523
-0.106151
-0.000347722
0.0877246
0.172983
0.18043
0.103418
0.12742
0.181101
0.24257
0.252058
0.208188
0.140456
0.0638779
0.287283
0.283895
0.298013
0.317053
0.306744
0.314562
0.235318
0.247175
0.244626
0.247357
0.237649
0.232298
0.105078
0.0897819
0.112986
0.080309
0.050634
0.0866951
0.0161692
-0.00220913
0.006783
0.0248933
0.0113613
0.0355091
0.300556
0.31441
0.119169
0.234353
0.0239942
-0.0624268
-0.0977781
0.084665
0.190278
0.201175
0.443964
0.536707
0.479054
0.514059
0.399481
0.432219
0.612428
0.500186
0.587704
0.48878
0.547996
-0.49663
-0.677971
-0.690896
-0.695512
-0.654943
-0.475472
-0.586445
-0.755747
-0.808075
0.178844
0.206174
0.187489
0.150082
0.158469
-0.328684
-0.130777
-0.173333
0.140718
0.388992
0.128962
0.26102
0.224611
0.409156
)
;

boundaryField
{
    wall-4
    {
        type            zeroGradient;
    }
    velocity-inlet-5
    {
        type            zeroGradient;
    }
    velocity-inlet-6
    {
        type            zeroGradient;
    }
    pressure-outlet-7
    {
        type            fixedValue;
        value           uniform 0;
    }
    wall-8
    {
        type            zeroGradient;
    }
    frontAndBackPlanes
    {
        type            empty;
    }
}

