/*--------------------------------*- C++ -*----------------------------------*\
  =========                 |
  \\      /  F ield         | OpenFOAM: The Open Source CFD Toolbox
   \\    /   O peration     | Website:  https://openfoam.org
    \\  /    A nd           | Version:  6
     \\/     M anipulation  |
\*---------------------------------------------------------------------------*/
FoamFile
{
    version     2.0;
    format      ascii;
    class       volVectorField;
    location    "./ITHACAoutput/Offline/1";
    object      U_rec;
}
// * * * * * * * * * * * * * * * * * * * * * * * * * * * * * * * * * * * * * //

dimensions      [0 1 -1 0 0 0 0];

internalField   nonuniform List<vector> 
13046
(
(-0.31817 0.0957505 0)
(-0.727201 -0.335211 -3.24443e-21)
(-0.196873 -0.165962 -6.56017e-21)
(-0.325853 -0.00183535 0)
(-0.119874 -0.0876293 -6.23699e-21)
(-0.60987 -0.329037 0)
(-0.365296 0.0222044 1.00756e-21)
(-0.691335 -0.380433 1.60015e-21)
(-0.0851546 -0.0708272 -6.71664e-21)
(-1.01228 0.430389 2.35328e-21)
(-1.45386 -0.72686 0)
(0.0673053 0.00775414 3.79551e-21)
(-0.45076 0.138272 -3.21669e-21)
(-0.905011 -0.44226 -4.53078e-21)
(-0.0901051 -0.111291 3.46945e-21)
(-0.936714 0.479382 -3.27146e-21)
(0.0132467 -0.017289 9.02547e-21)
(-1.50947 -0.636702 3.10977e-22)
(-0.147487 -0.0205935 0)
(-0.431282 -0.271254 -3.42605e-21)
(-0.413033 -0.12318 1.05374e-20)
(-0.951304 0.470064 -1.3071e-21)
(0.0289362 -0.00896376 -1.20615e-20)
(-1.50045 -0.657266 0)
(-0.270135 0.0174556 4.15154e-21)
(-0.582988 -0.280102 -8.12904e-21)
(-0.198196 -0.150548 0)
(-0.462541 0.171421 -5.77459e-21)
(-0.942083 -0.442216 1.35605e-21)
(-0.10771 -0.126034 -6.07287e-21)
(-0.324694 0.119667 0)
(-0.758548 -0.323899 0)
(-0.221385 -0.187469 6.67597e-21)
(-0.247768 -0.0129157 -4.82344e-21)
(-0.224777 -0.156308 2.34098e-21)
(-0.503266 -0.238406 1.41606e-20)
(-0.261698 -0.0399523 -7.40037e-21)
(-0.216155 -0.13431 3.63274e-21)
(-0.464949 -0.229537 -7.20614e-21)
(-0.23545 0.125962 4.96635e-21)
(-0.458801 -0.35445 1.16918e-21)
(-0.687566 -0.212787 -5.08014e-21)
(-0.305469 -0.115972 3.32258e-21)
(-0.242059 -0.112666 5.56679e-21)
(-0.339003 -0.175828 0)
(-0.328894 -0.109194 2.19763e-21)
(-0.195495 -0.0823288 -8.58548e-21)
(-0.376064 -0.208088 -1.05913e-21)
(-0.341233 0.0884815 0)
(-0.75006 -0.361337 -2.27277e-22)
(-0.147289 -0.138377 -7.51307e-23)
(-0.722187 -0.551292 6.92287e-21)
(-0.193246 0.14403 0)
(-0.711323 -0.119284 -5.90342e-21)
(-0.813316 -0.612663 -9.86858e-21)
(-0.703318 -0.0889194 -9.61076e-21)
(-0.160203 0.126451 7.21483e-21)
(-1.34362 -0.458909 -7.19484e-22)
(-0.712314 0.424342 0)
(-0.206688 -0.196865 5.06428e-21)
(-0.658173 0.155486 -3.08531e-21)
(-1.11581 -0.651386 2.31054e-21)
(0.0403815 -0.00997326 -1.43473e-20)
(0.0567531 -0.0171568 7.09498e-21)
(-1.42828 -0.713713 -7.33169e-22)
(-0.913894 0.367867 -4.38709e-21)
(-0.664006 0.411674 0)
(-1.28276 -0.408426 0)
(-0.271088 -0.254392 0)
(-0.619771 0.384585 -2.09103e-21)
(-1.22838 -0.389438 0)
(-0.2934 -0.272222 4.0337e-21)
(-1.39513 -0.47036 0)
(-0.75532 0.449092 3.88346e-23)
(-0.185696 -0.184612 -5.75736e-23)
(-0.148963 0.00173659 0)
(-0.430902 -0.286209 3.67502e-21)
(-0.458315 -0.15019 -7.43446e-21)
(-0.108 -0.117445 5.51063e-21)
(-0.816683 0.466275 -6.2307e-21)
(-1.45072 -0.528128 0)
(-0.297307 0.026583 2.20775e-21)
(-0.622805 -0.30806 0)
(-0.159639 -0.122974 0)
(0.0587246 -0.0113008 -6.3019e-21)
(-1.4516 -0.718419 -3.29825e-22)
(-0.94695 0.390968 2.58226e-21)
(-0.949908 0.281534 -4.65286e-21)
(0.0835394 -0.00153351 0)
(-1.38019 -0.811473 -6.37715e-22)
(0.0472138 0.00952175 0)
(-1.0272 0.206907 0)
(-1.34834 -0.915134 5.81383e-23)
(-0.687387 0.273568 0)
(-0.737419 0.286008 2.65443e-21)
(-1.22517 -0.591322 4.14893e-21)
(-1.2706 -0.631625 -1.91395e-21)
(-0.0146228 -0.0708699 -2.9828e-21)
(0.0143781 -0.0503539 7.69144e-21)
(0.0797139 0.00148624 -3.64036e-22)
(-0.940342 0.254491 4.55264e-21)
(-1.35618 -0.828941 0)
(-0.328431 -0.0834294 -1.23885e-23)
(-0.1659 -0.0775711 4.41914e-21)
(-0.438451 -0.247876 0)
(-0.0800529 0.0736608 0)
(-0.594552 -0.0466857 -3.0647e-21)
(-0.786569 -0.546671 0)
(-0.179862 0.123142 8.39858e-21)
(-0.637188 -0.47328 0)
(-0.661509 -0.142424 -1.16712e-20)
(-0.983083 0.441776 0)
(0.0547815 0.0179542 0)
(-1.30734 -0.679325 1.72161e-21)
(-0.399661 0.111983 8.87851e-21)
(-0.840885 -0.406684 2.06025e-21)
(-0.103737 -0.112088 6.36648e-21)
(-0.75158 0.345724 3.36813e-21)
(-0.697871 0.308435 -6.36711e-21)
(-1.32053 -0.587428 -3.43792e-21)
(-0.0372736 -0.0810744 3.39874e-21)
(-1.25488 -0.567825 1.85728e-21)
(-0.0430641 -0.0875218 -3.17488e-21)
(-1.00832 0.445246 -1.62053e-21)
(-1.44181 -0.712207 9.84174e-22)
(0.0631389 0.0121841 -1.69032e-21)
(-0.581915 0.230227 0)
(-1.09827 -0.521278 -3.1391e-21)
(-0.06245 -0.10528 7.24716e-21)
(-0.276502 0.142245 0)
(-0.398247 -0.316682 -5.94423e-21)
(-0.73616 -0.250124 2.91247e-22)
(0.0398012 0.0160766 0)
(-0.980586 0.18381 0)
(-1.32778 -0.900191 0)
(-0.829276 0.296734 0)
(-1.33798 -0.70675 -4.3361e-21)
(0.0573792 -0.0227814 -8.17323e-21)
(-0.371228 0.144156 0)
(-0.826303 -0.358752 0)
(-0.202876 -0.187832 0)
(-0.492912 0.0490223 0)
(-0.859775 -0.515394 0)
(-0.0136969 -0.0136784 0)
(-0.160952 0.119489 0)
(-0.701429 -0.516736 0)
(-0.659769 -0.116081 6.34622e-21)
(-0.0795246 0.0619615 -8.49652e-22)
(-0.569832 -0.0537402 -6.75567e-21)
(-0.765101 -0.521365 6.53691e-21)
(-0.698112 0.180262 7.03437e-21)
(-1.16396 -0.67075 0)
(0.0487456 -0.0168958 1.86073e-20)
(-0.0626858 0.0119315 0)
(-0.470942 -0.0418926 7.22804e-21)
(-0.685331 -0.439227 -1.68869e-21)
(-0.96668 -0.694725 0)
(-0.696144 -0.00551851 6.94181e-21)
(-1.04038 -0.728665 0)
(-0.7122 0.0356755 4.01183e-21)
(-0.0768413 0.0852644 0)
(-0.0389771 0.0648914 0)
(-0.536643 0.0102561 9.42823e-22)
(-0.846215 -0.547515 3.31831e-21)
(-0.0221229 0.0195861 -3.68024e-21)
(-1.0315 0.411132 -2.41311e-21)
(0.0748368 0.00547664 0)
(-1.43201 -0.753043 1.91888e-22)
(-0.996492 0.446954 -1.27384e-21)
(0.0580753 0.018659 -7.72763e-22)
(-1.36986 -0.690582 0)
(-0.849456 0.321541 -3.81218e-21)
(-1.36394 -0.703832 0)
(0.0537751 -0.0245864 9.28478e-21)
(-0.364553 0.213898 0)
(-0.874139 -0.276644 1.4844e-21)
(-0.425112 -0.354144 3.36964e-21)
(-0.526514 -0.0113847 6.12158e-21)
(-0.0404404 0.0326213 1.79909e-21)
(-0.793516 -0.512953 0)
(0.0839315 0.000364048 0)
(-1.42326 -0.804087 0)
(-1.04309 0.362634 1.95753e-21)
(-0.318171 0.187163 0)
(-0.8112 -0.250876 -3.34044e-21)
(-0.442181 -0.351576 8.84335e-22)
(-0.0572119 0.0264224 0)
(-0.492628 -0.0407629 0)
(-0.701561 -0.459202 0)
(-0.457836 0.0253856 3.0267e-21)
(-0.802261 -0.482018 0)
(-0.0264191 -0.0200464 0)
(-0.982525 -0.503137 1.59706e-23)
(-0.0402919 -0.0800754 -4.33282e-21)
(-0.540681 0.202224 9.13009e-21)
(-1.04758 -0.499327 0)
(-0.0663621 -0.103146 -9.07791e-21)
(-0.973288 0.341906 -4.61312e-21)
(0.081615 -0.00422888 5.75047e-21)
(-1.42626 -0.779821 -2.01623e-21)
(0.059412 0.0122083 5.29906e-21)
(-0.935903 0.202219 2.89915e-21)
(-1.32474 -0.862785 3.46316e-21)
(-1.01392 0.253256 -7.42041e-21)
(-1.37686 -0.86724 0)
(0.0746303 0.0021174 -5.19727e-21)
(-0.763002 -0.604942 -3.47587e-22)
(-0.802648 -0.131385 2.61091e-21)
(-0.255341 0.193897 0)
(-0.43314 0.077003 -1.36202e-20)
(-0.802685 0.478316 3.21687e-21)
(-0.135778 -0.136774 -3.39413e-21)
(-1.45206 -0.51487 0)
(-1.38788 -0.865801 0)
(-1.04223 0.283233 -6.32891e-21)
(0.0796853 -0.00129292 0)
(-0.298024 -0.0480437 -1.09297e-20)
(-0.168258 -0.0989017 -3.56821e-21)
(-0.486413 -0.260362 1.05091e-20)
(-0.437405 0.179715 0)
(-0.921986 -0.414935 -1.99843e-22)
(-0.153513 -0.153702 -3.47774e-21)
(0.0463188 0.0170751 4.0912e-21)
(-0.944203 0.185432 0)
(-1.31423 -0.880874 -3.99259e-21)
(-0.473062 0.103088 1.08946e-20)
(-0.95907 -0.508458 8.05487e-21)
(-0.0287427 -0.0677793 0)
(0.0715265 0.00786951 0)
(-1.37249 -0.744901 -1.27503e-21)
(-1.04427 0.416484 0)
(-0.215096 0.168161 0)
(-0.772605 -0.104553 0)
(-0.818804 -0.647147 0)
(-0.969978 0.237585 6.50811e-21)
(-1.3605 -0.850338 0)
(0.0742899 0.00403423 -3.67368e-23)
(-0.618298 0.0243447 2.65333e-21)
(-0.944171 -0.637008 -2.3908e-21)
(-0.0206616 0.0434172 0)
(-0.581357 0.251755 0)
(-1.1096 -0.504681 2.95028e-21)
(-0.0901504 -0.121062 5.70022e-21)
(-1.22735 -0.882199 -6.40227e-21)
(-0.885456 0.0973855 -5.25255e-21)
(-0.0199346 0.0536663 3.21105e-21)
(-0.760657 0.0480608 0)
(-1.09709 -0.77623 -2.93186e-21)
(-0.0403593 0.0663711 -1.18812e-22)
(0.070281 0.00427608 -5.01034e-21)
(-1.34244 -0.751195 0)
(-1.05609 0.403061 -1.06982e-21)
(-0.252004 0.163478 4.51368e-21)
(-0.570154 -0.439846 -4.20619e-21)
(-0.743697 -0.19224 4.86799e-22)
(-0.906629 0.474889 1.09916e-21)
(0.0416855 0.0311701 -7.22574e-21)
(-1.31371 -0.597124 0)
(-0.129839 -0.0397196 -2.11717e-21)
(-0.377722 -0.0919086 -8.51921e-21)
(-0.476713 -0.288767 1.0271e-20)
(-0.604068 0.0735831 3.19328e-21)
(-0.589545 0.0339739 3.53793e-23)
(-0.993934 -0.626526 -5.9329e-21)
(-0.928846 -0.610703 0)
(-0.00953181 0.0289204 3.34528e-21)
(0.0157676 0.0119721 -3.42784e-21)
(-0.0770431 -0.0896128 -7.21279e-21)
(-0.849622 0.477395 3.34117e-21)
(-1.48662 -0.546557 -1.64765e-21)
(-0.536996 0.243975 0)
(-1.06227 -0.462204 0)
(-0.138291 -0.150452 -7.47335e-21)
(-0.800048 0.0816894 -1.41043e-21)
(-1.15467 -0.814768 0)
(-0.0166396 0.0538139 0)
(-0.794819 0.32655 -3.25232e-21)
(-1.33503 -0.643912 0)
(0.0172502 -0.0478375 3.33149e-21)
(-0.267954 -0.0947932 2.21349e-21)
(-0.351222 -0.163484 3.23227e-21)
(-0.267554 -0.137982 -1.11168e-21)
(-0.680138 0.0545878 -5.10449e-21)
(-1.03693 -0.702239 0)
(-0.0100945 0.0461705 -5.61188e-21)
(-0.55085 0.265468 0)
(-1.08946 -0.455079 3.70491e-21)
(-0.157412 -0.165738 -4.69024e-21)
(-0.492557 0.134639 0)
(-0.539283 0.158353 1.08072e-21)
(-0.267138 0.177395 1.61633e-21)
(-0.589574 -0.461682 1.2118e-20)
(-0.768179 -0.18711 -1.15508e-20)
(-0.706555 0.0876656 -5.25415e-21)
(-1.09017 -0.726367 4.63699e-21)
(0.0154812 0.0320012 5.12083e-21)
(-0.831179 0.336594 0)
(0.0349235 -0.0353213 -1.18521e-20)
(-1.36977 -0.672548 -1.80149e-21)
(-0.176303 0.108185 -1.16451e-20)
(-0.596187 -0.445605 0)
(-0.638701 -0.146542 3.8896e-21)
(-0.102835 0.102814 -6.59239e-21)
(-0.725702 -0.0161352 -3.92452e-21)
(-0.970649 -0.720311 0)
(-0.683505 0.342724 -3.22008e-21)
(-1.26423 -0.512165 -2.87844e-21)
(-0.114699 -0.133234 2.08233e-21)
(-0.232481 0.167556 5.80169e-22)
(-0.684223 -0.529392 0)
(-0.749505 -0.144393 8.16597e-21)
(-0.727355 0.369943 0)
(-0.757613 0.373578 0)
(-1.32035 -0.536297 -1.61248e-21)
(-0.0969537 -0.119252 -5.45077e-21)
(-1.34448 -0.571103 2.28158e-21)
(-0.0616543 -0.0930061 5.76528e-21)
(0.0822577 0.000122507 -4.40832e-21)
(-1.43343 -0.785893 0)
(-1.02112 0.373425 -3.06469e-21)
(-0.650348 0.293585 3.78621e-21)
(-1.20223 -0.53508 0)
(-0.0754988 -0.109229 1.92694e-21)
(-1.14154 -0.608732 -6.92773e-21)
(0.037204 0.0199418 6.33888e-21)
(-0.883114 0.430705 1.0463e-21)
(-0.447725 -0.0773411 -4.01049e-21)
(-0.0890571 0.00642246 0)
(-0.588468 -0.375706 0)
(-0.60067 0.135618 7.36538e-21)
(-1.05408 -0.604819 0)
(0.0277968 -0.0206161 1.11278e-20)
(0.0756461 -0.00951177 -3.66917e-21)
(-0.929197 0.330399 9.55149e-21)
(-1.40653 -0.755271 2.04859e-21)
(-0.845863 -0.642597 0)
(-0.724329 -0.0792752 3.50907e-21)
(-0.162872 0.137153 -8.17817e-21)
(-1.25902 -0.886962 -6.93804e-21)
(-0.90634 0.128995 -3.16169e-21)
(0.00723137 0.0368093 0)
(-0.863356 -0.461372 -8.64802e-21)
(-0.0472961 -0.0678146 0)
(-0.633872 0.194855 7.75382e-21)
(-1.11352 -0.594 2.62826e-21)
(0.0138854 -0.0500765 3.36536e-21)
(-0.85097 -0.478901 4.96783e-21)
(-0.030858 -0.051359 -2.70008e-23)
(-0.916872 0.463373 -2.16979e-22)
(0.00138711 -0.0307804 4.27761e-21)
(-1.49903 -0.626037 -4.57479e-22)
(-0.74313 -0.614336 0)
(-0.853829 -0.152538 7.94911e-22)
(-0.298004 0.221134 0)
(-0.677894 0.219358 -7.89867e-21)
(-1.18002 -0.623444 -3.20149e-21)
(0.0283638 -0.0405964 -4.024e-21)
(-0.517934 0.0415241 0)
(-0.866985 -0.541158 -4.81822e-21)
(-0.00990999 0.00109331 0)
(-0.628052 -0.0762628 0)
(-0.757457 -0.55279 0)
(-0.119281 0.0945833 0)
(-0.329223 0.0581415 -3.05624e-21)
(-0.696792 -0.348038 -4.96841e-21)
(-0.140252 -0.123706 -9.78486e-24)
(-0.135385 0.123703 8.17234e-21)
(-0.733517 -0.0448191 9.51414e-21)
(-0.923599 -0.694445 4.57484e-21)
(-0.99219 0.311155 -3.76409e-21)
(-1.4053 -0.808595 1.62587e-21)
(0.0860339 -0.00193544 -5.44435e-21)
(-1.26943 -0.866834 4.81253e-21)
(-0.892536 0.145292 3.20433e-21)
(0.0267525 0.0290411 4.15452e-21)
(-0.530432 0.338585 -6.38893e-21)
(-0.389732 -0.342254 6.02423e-21)
(-1.12156 -0.331151 -4.39844e-21)
(-0.78879 0.428216 1.83161e-21)
(-0.751203 0.404526 -1.70518e-21)
(-1.36183 -0.519953 -5.12621e-22)
(-1.40536 -0.535834 0)
(-0.101273 -0.115116 -1.95401e-21)
(-0.120654 -0.133724 -1.76319e-21)
(0.0412436 0.0242655 -8.58766e-21)
(-1.19591 -0.605621 7.63227e-21)
(-0.897011 0.43792 8.49625e-22)
(-0.920263 0.481327 -8.74657e-23)
(0.042363 0.0306671 9.99751e-21)
(-1.36013 -0.603917 0)
(-0.648924 0.0982471 -1.17759e-20)
(-1.06237 -0.662632 -1.2353e-21)
(0.0250553 0.0130909 0)
(0.0800831 -0.00249768 -1.10643e-20)
(-0.990911 0.362288 3.04897e-21)
(-1.44004 -0.772934 0)
(-0.619513 0.354783 9.39492e-21)
(-0.66032 0.368937 -6.98083e-21)
(-1.21111 -0.43097 3.28095e-21)
(-1.25641 -0.46025 1.18722e-21)
(-0.235861 -0.221966 -3.49663e-21)
(-0.190358 -0.186207 -1.75111e-21)
(0.0744819 -0.00774168 0)
(-1.36522 -0.872428 0)
(-1.0996 0.286763 1.02062e-21)
(-0.851396 0.471765 -1.29008e-21)
(0.0370379 0.0347351 0)
(-1.26203 -0.55984 0)
(-0.415454 -0.158524 3.02126e-23)
(-0.187067 -0.0307541 4.74782e-21)
(-0.341723 -0.217911 2.29221e-21)
(-0.934199 0.450967 -1.77425e-21)
(-1.28463 -0.640868 -2.51813e-21)
(0.0473169 0.0244164 4.70314e-22)
(-0.420737 0.233163 0)
(-0.938979 -0.325567 -6.51152e-21)
(-0.341957 -0.294662 -7.726e-23)
(-1.0474 0.346473 1.128e-22)
(-1.41514 -0.820524 8.9134e-22)
(0.0857192 -0.000933944 7.14928e-24)
(-1.00675 -0.606026 -1.93712e-22)
(0.0316609 0.00600724 -3.68159e-21)
(-0.867538 0.361231 8.76765e-24)
(-0.193374 0.0968205 -4.29001e-21)
(-0.47296 -0.349172 3.83315e-21)
(-0.622604 -0.185543 1.24573e-20)
(-0.378163 -0.0621172 0)
(-0.555731 -0.329838 -1.14011e-20)
(-0.105006 -0.0386792 5.72286e-21)
(-0.990679 0.46453 0)
(0.0557733 0.0141037 5.03675e-21)
(-1.45083 -0.693999 -1.61621e-22)
(-0.401679 -0.0501945 0)
(-0.595136 -0.35789 -3.85336e-21)
(-0.084022 -0.0196671 -8.1338e-21)
(-0.381818 -0.149581 4.89508e-21)
(-0.20284 -0.0545797 -2.50833e-21)
(-0.329199 -0.197336 1.22874e-21)
(-0.204548 0.166198 3.93498e-21)
(-0.791678 -0.0827005 -3.28148e-21)
(-0.894784 -0.710124 5.05119e-21)
(-0.470015 -0.128944 0)
(-0.478675 -0.312174 0)
(-0.128209 0.0192872 6.89299e-22)
(-0.473917 -0.0980512 6.3465e-21)
(-0.55065 -0.354088 2.94216e-21)
(-0.108499 0.0227515 9.68541e-23)
(-0.487627 0.315313 9.70776e-21)
(-1.05929 -0.300995 -4.79781e-21)
(-0.443998 -0.388671 -6.00872e-21)
(0.0532271 -0.000214612 7.61386e-21)
(0.0625729 0.00186922 -7.7854e-21)
(-1.48063 -0.70597 -1.14652e-22)
(-1.46858 -0.722582 3.63918e-23)
(-0.979029 0.445759 0)
(-0.993159 0.432812 -2.40957e-21)
(-1.02067 0.318029 4.68814e-21)
(-1.41086 -0.821416 -8.64753e-22)
(0.0864504 -0.00166855 6.75525e-21)
(-0.373931 -0.339586 -3.87883e-21)
(-0.57379 0.372391 2.01075e-21)
(-1.17752 -0.344772 5.60475e-21)
(-0.272039 0.164215 -4.12078e-21)
(-0.50248 -0.392353 -3.8629e-21)
(-0.756254 -0.217111 3.81543e-21)
(-0.788202 0.0228967 0)
(-1.08546 -0.800457 3.03479e-21)
(-0.0800078 0.0881083 1.22783e-22)
(-1.13738 -0.70711 -1.74088e-21)
(0.0524542 -0.00758115 -3.43884e-21)
(-1.02071 0.355342 -4.74789e-22)
(0.0606312 0.00356777 0)
(-1.04108 0.233528 0)
(-1.3592 -0.905591 7.84332e-22)
(-1.01748 0.435596 1.69404e-21)
(0.0651629 0.0130266 0)
(-1.39322 -0.720038 1.25245e-21)
(0.0248076 0.00973104 -1.37233e-32)
(-0.938841 -0.56347 3.89318e-21)
(-0.799991 0.35099 -1.5432e-22)
(-0.973652 -0.501791 -4.39845e-21)
(0.0239288 0.0212405 1.36908e-32)
(-0.755614 0.401774 1.21319e-22)
(-1.19587 -0.740359 -5.97687e-21)
(-0.759045 0.160417 0)
(0.0513114 0.00885997 -1.0733e-20)
(-1.30271 -0.822831 5.80642e-22)
(0.0707187 -0.0134411 -3.52829e-21)
(-1.11946 0.323055 0)
(-0.856136 0.288882 -4.89583e-21)
(-1.3438 -0.735255 2.61444e-21)
(0.0682478 -0.0151397 5.48425e-21)
(-0.934227 0.511454 6.24779e-21)
(0.0099975 -0.0022263 3.0108e-21)
(-1.52021 -0.598163 0)
(-0.402304 0.0841075 2.39228e-21)
(-0.0742073 -0.085426 -2.19153e-21)
(-0.825801 -0.428414 2.12356e-21)
(-1.3698 -0.887408 2.9535e-22)
(0.0720073 -0.00504819 3.75235e-21)
(-1.08529 0.27071 1.31742e-21)
(-0.772679 0.000790108 -3.83183e-21)
(-0.103298 0.103515 -2.21276e-21)
(-1.04071 -0.773669 0)
(-1.17494 -0.808625 0)
(-0.799123 0.105583 0)
(0.00866345 0.0409097 0)
(0.00663547 0.0101032 0)
(-0.548523 -0.293529 4.59058e-21)
(-0.457647 0.220367 -8.54171e-22)
(-1.13669 -0.638427 -2.76558e-21)
(0.040364 0.0132647 -4.43674e-21)
(-0.914933 0.41257 -7.09606e-22)
(-0.36675 0.0567778 -6.14988e-21)
(-0.0942162 -0.092032 5.3257e-21)
(-0.746194 -0.392612 2.53705e-21)
(-1.3845 -0.83857 -3.45889e-22)
(-1.08435 0.325604 -1.96865e-21)
(0.0815275 -0.00516582 0)
(0.0713493 -0.0114472 -3.91093e-21)
(-1.1205 0.290276 0)
(-1.33918 -0.871973 1.82782e-22)
(-0.973598 0.388304 -2.78268e-21)
(0.0691439 -0.00454234 1.17731e-20)
(-1.45455 -0.740915 0)
(-0.0349166 -0.0602779 -8.70632e-21)
(-1.47543 -0.593438 1.44928e-21)
(-0.869489 0.454626 0)
(-0.46883 0.31937 -1.21843e-20)
(-1.04253 -0.278665 6.11189e-21)
(-0.5091 -0.442303 -1.89295e-21)
(-1.32659 -0.486288 7.65102e-22)
(-0.713204 0.404032 4.06624e-21)
(-0.17288 -0.173237 -5.40835e-21)
(-0.0344111 -0.0505931 -7.78434e-21)
(-0.894849 0.49539 0)
(-1.52194 -0.580097 0)
(-0.448901 0.223959 -2.08019e-21)
(-0.504152 0.2534 0)
(-0.962331 -0.375659 -6.71817e-21)
(-1.03997 -0.410574 7.19016e-21)
(-0.245554 -0.218508 9.79646e-22)
(-0.216048 -0.204723 -1.04363e-21)
(-0.410525 0.215811 1.99678e-21)
(-0.919893 -0.339045 0)
(-0.303156 -0.260745 1.83664e-21)
(-0.608346 0.365809 0)
(-1.20555 -0.409968 -5.31646e-21)
(-0.274065 -0.253189 1.26157e-21)
(-1.23838 -0.838843 -2.57473e-21)
(-0.854944 0.134254 3.46153e-21)
(0.0268703 0.0293314 -8.46226e-21)
(-1.39613 -0.854872 0)
(-1.03623 0.304422 6.95532e-21)
(0.0835608 -0.00192163 0)
(0.0567997 0.0133338 -2.74137e-21)
(-0.88394 0.185627 -2.09433e-21)
(-1.29289 -0.833636 -1.60353e-21)
(-1.04374 -0.515596 6.4782e-22)
(0.0281096 0.0255852 2.36228e-21)
(-0.790118 0.422169 0)
(-0.257004 0.110904 4.01246e-21)
(-0.266695 0.0995642 0)
(-0.343982 -0.265319 0)
(-0.687961 -0.253934 1.46786e-20)
(-0.299995 -0.234693 0)
(-0.68588 -0.275407 -9.39761e-21)
(-0.527373 0.316104 0)
(-0.469157 0.281578 0)
(-0.365255 -0.317071 3.23616e-23)
(-1.09751 -0.365342 3.79814e-21)
(-0.325761 -0.284894 9.24089e-21)
(-1.02232 -0.332242 -8.29428e-21)
(-0.990331 -0.630267 0)
(0.0357054 -0.00228254 5.03084e-21)
(-0.911229 0.346699 0)
(-1.39299 -0.832648 -2.99063e-22)
(-1.06851 0.325027 6.85148e-22)
(0.0838351 -0.00292802 2.36666e-21)
(-0.314689 0.203635 -6.94178e-21)
(-0.564925 -0.456108 -4.2699e-21)
(-0.82519 -0.213919 1.18891e-20)
(-1.18116 -0.850552 5.84548e-21)
(-0.841588 0.0751468 8.84478e-21)
(-0.0322213 0.0624393 0)
(-0.0552664 -0.0777803 9.31105e-21)
(-1.4593 -0.57675 -1.54084e-21)
(-0.848187 0.450984 4.29844e-21)
(-1.26429 -0.700961 0)
(-1.00982 0.414951 0)
(0.0564928 0.00973482 0)
(-1.29194 -0.733762 0)
(-1.03948 0.40013 1.31269e-21)
(0.0640615 0.00348596 8.49362e-22)
(-0.653689 0.347 -3.96282e-21)
(-1.23712 -0.482627 1.77136e-21)
(-0.159732 -0.16475 2.5889e-21)
(-0.147866 0.0901117 -1.11477e-21)
(-0.606798 -0.435632 0)
(-0.598616 -0.124703 -5.92882e-23)
(-0.993548 0.406316 3.24229e-21)
(0.0688624 -0.00056995 6.81293e-21)
(-1.46518 -0.739003 -4.19033e-23)
(-1.22079 -0.77483 0)
(-0.795846 0.165004 0)
(0.0519048 0.0153785 9.26251e-21)
(0.0356393 -0.0304134 2.26697e-21)
(-1.41064 -0.681606 2.89967e-21)
(-0.873004 0.372021 9.7778e-21)
(-0.438984 0.270165 0)
(-0.415144 -0.35499 -6.2672e-21)
(-0.982935 -0.307003 4.36752e-21)
(-0.617096 -0.00738774 4.95249e-23)
(-0.885751 -0.609283 3.50541e-21)
(-0.052958 0.0614375 0)
(-0.23021 0.132425 2.95046e-23)
(-0.508776 -0.39067 -1.30035e-21)
(-0.692749 -0.198033 -4.99658e-21)
(0.0767801 0.00202354 7.17515e-24)
(-1.44669 -0.765043 -2.58089e-22)
(-1.01919 0.395904 3.24598e-21)
(-0.795593 0.35557 -1.84616e-21)
(-1.35799 -0.622637 -1.14709e-21)
(-0.00768633 -0.0600882 0)
(-0.201661 0.0875343 -4.35156e-21)
(-0.420495 -0.309135 8.40781e-21)
(-0.617965 -0.203525 -8.21854e-21)
(-0.910905 0.509586 2.60178e-21)
(-0.0210036 -0.0338001 3.42405e-21)
(-1.53477 -0.582527 1.2378e-22)
(-0.36964 0.164428 -2.5619e-21)
(-0.841495 -0.34488 0)
(-0.244593 -0.2163 0)
(-0.449375 -0.00509869 -1.12051e-20)
(-0.72727 -0.445362 2.32997e-21)
(-0.0436671 -0.00728388 0)
(-1.15877 -0.769765 0)
(-0.761757 0.108078 7.50947e-21)
(0.0222427 0.0337743 0)
(-0.935287 0.496505 -1.1398e-21)
(0.0363385 0.0238118 -1.06412e-21)
(-1.44719 -0.613557 -2.32869e-21)
(-0.928295 0.507341 3.19144e-21)
(0.027612 0.0194259 0)
(-1.47343 -0.598743 1.34288e-21)
(0.0207171 -0.036178 2.02064e-21)
(-1.42796 -0.661899 -1.34119e-21)
(-0.874157 0.392025 -8.98997e-21)
(-0.656941 -0.0266698 -3.46132e-21)
(-0.909719 -0.648707 -3.56862e-21)
(-0.0820776 0.0801144 0)
(0.0362324 0.031607 9.74861e-22)
(-1.39283 -0.590967 2.16814e-21)
(-0.900913 0.491789 0)
(0.0762312 -0.0093365 0)
(-1.3763 -0.76036 -1.5147e-21)
(-0.903956 0.30248 -1.12799e-21)
(0.017795 0.00518721 4.04422e-21)
(-0.792839 -0.515031 -3.8431e-21)
(-0.71936 0.295144 0)
(-0.639964 0.374871 -1.23021e-22)
(-0.861872 -0.415867 0)
(0.0176792 0.0225059 4.03476e-21)
(-0.0241392 -0.0464994 -1.38912e-23)
(-1.50424 -0.600888 0)
(-0.895105 0.47765 0)
(0.0766906 0.00508211 0)
(-1.41148 -0.767198 0)
(-1.04891 0.401483 3.81421e-21)
(-0.958448 0.439003 -2.93674e-21)
(-0.937519 0.421089 2.37566e-21)
(0.0423393 -0.0097039 -3.82545e-21)
(-1.48974 -0.684227 -3.27465e-23)
(0.0416282 -0.0156612 -6.26083e-21)
(-1.47307 -0.68759 3.43502e-22)
(-0.90612 0.280174 2.23463e-21)
(-1.36328 -0.780905 1.12896e-21)
(0.0796871 -0.00556138 0)
(-0.0730212 0.0858514 0)
(-1.13218 -0.843481 0)
(-0.8299 0.0409422 0)
(-0.260752 0.061507 0)
(-0.24728 -0.191146 -1.18225e-20)
(-0.633001 -0.277627 5.11194e-21)
(-0.873047 0.221 6.57156e-21)
(-1.3075 -0.801341 5.24496e-22)
(0.0725346 0.00335915 8.04786e-21)
(0.0629692 0.0096955 5.235e-21)
(-0.856926 0.196747 -9.14058e-21)
(-1.27951 -0.806934 -7.26657e-22)
(-0.870723 0.500991 3.23433e-21)
(-0.0661416 -0.0761648 3.71822e-21)
(-1.51667 -0.549661 1.71932e-21)
(-0.549165 0.335232 0)
(-1.13292 -0.368024 1.59221e-21)
(-0.329661 -0.293332 -9.05866e-21)
(-0.464429 0.261117 0)
(-0.996648 -0.346745 8.54805e-21)
(-0.325402 -0.286738 -2.41778e-23)
(-0.7535 0.20015 -8.93357e-21)
(-1.2227 -0.715534 7.78591e-22)
(0.0601389 -0.00951741 -4.69239e-21)
(-0.779406 0.194915 0)
(-1.23396 -0.738898 7.43928e-22)
(0.0624418 -0.0019152 4.28416e-21)
(-0.178676 0.0616162 0)
(-0.419841 -0.298441 -1.32707e-20)
(-0.562454 -0.185295 4.60891e-21)
(-0.523512 0.272758 0)
(-1.06546 -0.408983 0)
(-0.226952 -0.217684 1.40267e-21)
(0.0631024 -0.00336493 -8.1175e-21)
(-1.35389 -0.904121 -1.88143e-21)
(-1.0862 0.249932 0)
(-1.06274 0.379004 1.25801e-21)
(0.0639637 -0.0033544 0)
(-1.24989 -0.748337 -1.11415e-21)
(-1.05897 0.357872 -2.61394e-22)
(0.0593994 -0.00821123 0)
(-1.20334 -0.740233 3.46677e-21)
(-0.319825 0.172992 2.96049e-21)
(-0.389748 -0.311083 -1.37955e-21)
(-0.80146 -0.274764 -1.7907e-22)
(-1.1832 -0.671326 2.87819e-22)
(0.0493355 0.00726754 6.79756e-21)
(-0.983201 0.401674 0)
(-0.837827 0.387692 7.82769e-21)
(-0.0032445 -0.051917 4.29377e-21)
(-1.40457 -0.632266 0)
(0.0468955 -0.00130624 -1.01132e-21)
(-1.12156 -0.684153 2.69969e-21)
(-0.982162 0.369154 0)
(-0.331527 -0.028415 7.60164e-21)
(-0.124994 -0.0735223 7.30614e-21)
(-0.562637 -0.309385 1.25197e-23)
(-0.567547 0.190762 -1.34829e-21)
(-1.0639 -0.536412 -1.03004e-21)
(-0.0289045 -0.0780498 -4.93171e-21)
(-0.838549 -0.613554 8.16549e-21)
(-0.661199 -0.0576699 8.18172e-21)
(-0.116806 0.0991074 0)
(0.0744431 -0.0106672 0)
(-1.33264 -0.835709 5.08045e-22)
(-1.11394 0.321293 0)
(-1.20172 -0.788455 0)
(-0.796749 0.143846 0)
(0.0401883 0.0233458 0)
(0.00225105 -0.0160162 0)
(-0.931475 0.501859 -2.22776e-21)
(-1.52783 -0.605014 -1.22047e-22)
(-0.621533 0.214135 0)
(-1.11997 -0.573286 5.4551e-22)
(-0.00704504 -0.0651411 4.8173e-21)
(-0.248837 0.0398919 0)
(-0.244086 -0.182874 1.01666e-20)
(-0.590047 -0.263111 0)
(-1.36809 -0.826172 3.27206e-22)
(-1.09047 0.34566 1.87153e-21)
(0.0795425 -0.00576748 0)
(0.0653818 -0.0151182 -4.69977e-21)
(-1.40466 -0.733446 9.26533e-23)
(-0.906195 0.345613 2.34305e-22)
(-0.972956 0.473014 0)
(-0.965247 0.47273 1.77384e-21)
(0.0497062 0.0210974 -2.47681e-21)
(0.0503013 0.0237255 -3.0327e-21)
(-1.42768 -0.6555 1.15706e-21)
(-1.39622 -0.65449 -9.51884e-22)
(-0.568287 0.0810205 0)
(-0.963654 -0.594854 1.38767e-20)
(0.0123217 -0.00169967 5.35742e-21)
(-1.13988 -0.706195 8.42965e-21)
(-0.712477 0.133502 0)
(0.0428873 0.010892 -5.74314e-21)
(-0.393529 0.0173211 -6.30209e-21)
(-0.71211 -0.406343 3.99943e-21)
(-0.0596189 -0.0478715 8.75898e-21)
(-1.29861 -0.785599 -1.58498e-21)
(-1.08784 0.36421 1.64886e-21)
(-1.2815 -0.798596 9.04319e-22)
(0.0701041 -0.00580757 0)
(-1.10292 0.343199 -1.59083e-21)
(0.0685101 -0.0105982 0)
(-0.73417 0.263873 0)
(-1.2475 -0.64899 0)
(0.029944 -0.0411901 5.25578e-21)
(-1.08081 0.363735 2.86914e-21)
(-1.08202 0.371699 -5.18137e-21)
(-1.37382 -0.803289 -1.05312e-21)
(-1.34359 -0.784784 1.92408e-21)
(0.0783378 -0.00221411 6.91453e-21)
(0.0741595 -0.00173304 -1.23095e-23)
(-0.684682 0.110859 0)
(-1.09534 -0.701344 -8.22427e-21)
(0.0266291 0.0218489 7.44521e-21)
(-0.507517 0.110555 5.97506e-21)
(-0.993486 -0.542975 -6.32849e-21)
(-0.00174635 -0.0492774 0)
(-0.944168 0.503792 0)
(0.0243948 0.00788015 0)
(-1.50202 -0.618364 -1.29042e-21)
(-0.567752 0.106678 4.42946e-21)
(-0.98977 -0.584245 -3.8574e-21)
(0.0190011 -0.0143609 -8.81028e-21)
(-0.427362 0.046849 2.54899e-21)
(-0.796054 -0.457097 -4.69832e-21)
(-0.0366382 -0.0441841 5.008e-21)
(-0.956094 0.484306 0)
(0.042506 0.0203421 0)
(-1.45633 -0.642496 1.68148e-21)
(-0.637865 0.241299 0)
(-1.16343 -0.564381 1.00971e-21)
(-0.0197528 -0.0758764 -5.21004e-21)
(-1.01921 -0.779145 0)
(-0.792288 -0.0218434 0)
(-0.138798 0.125306 -2.84316e-22)
(-0.443799 0.283161 -3.15085e-22)
(-0.993976 -0.291392 0)
(-0.449269 -0.385734 9.59243e-21)
(-1.29749 -0.915013 2.56716e-21)
(0.0157089 0.0276064 0)
(-0.960841 0.152846 0)
(0.0129774 0.0127548 -9.71252e-21)
(-0.737121 -0.404093 -6.42194e-21)
(-0.607316 0.295461 1.1954e-21)
(-0.590811 0.156762 0)
(-1.04911 -0.577306 3.8602e-21)
(0.014352 -0.040655 -4.44131e-21)
(-0.961848 0.475945 4.40368e-21)
(0.0351416 0.000823349 1.28641e-20)
(-1.50273 -0.653441 0)
(-0.626708 -0.528039 -2.48073e-21)
(-0.94238 -0.218141 -4.25675e-21)
(-0.382452 0.26839 -2.70976e-21)
(-0.761717 0.437199 0)
(0.0295164 0.0323743 -3.56365e-21)
(-1.10142 -0.506612 0)
(-0.0908631 0.046794 5.46877e-21)
(-0.104761 0.0666355 -5.58174e-21)
(-0.640501 -0.437312 0)
(-0.521463 -0.0816084 5.32324e-21)
(-0.676298 -0.472675 -8.42485e-21)
(-0.563073 -0.0895414 -4.25025e-21)
(-0.40761 -0.0122491 5.94213e-21)
(-0.670086 -0.396131 5.42065e-21)
(-0.0626469 -0.0273826 0)
(-0.157245 0.0814151 4.93723e-21)
(-0.121833 0.0571243 0)
(-0.532877 -0.382655 -4.77577e-21)
(-0.5851 -0.151155 4.74988e-21)
(-0.558325 -0.386301 4.81343e-21)
(-0.535215 -0.119269 2.8898e-23)
(-0.549612 0.141473 3.7445e-22)
(-0.93057 -0.525019 -2.83304e-21)
(-0.00649323 -0.0399783 -6.11091e-21)
(-0.516352 0.09353 -1.03174e-20)
(-0.932495 -0.538638 7.30622e-23)
(0.00038653 -0.0267387 0)
(0.0617816 -0.0134263 0)
(-1.21344 -0.772161 0)
(-1.09057 0.339638 1.101e-21)
(-0.360973 0.186316 -2.73276e-21)
(-0.848842 -0.308656 0)
(-0.326018 -0.270691 2.54585e-21)
(-1.05998 0.376073 -6.23979e-21)
(-1.40626 -0.795611 -5.59706e-22)
(0.0806947 0.00158573 -3.94215e-21)
(-0.780528 0.235523 0)
(-0.826179 0.256995 4.71222e-21)
(-1.26647 -0.711149 -9.71437e-22)
(-1.30846 -0.733589 2.56567e-21)
(0.0627652 -0.0152137 -5.7712e-21)
(0.0693164 -0.0125563 -5.29269e-21)
(-0.341347 0.161538 0)
(-0.812941 -0.314324 0)
(-0.29442 -0.248224 1.23482e-21)
(-0.582536 0.324385 3.12859e-21)
(-1.15344 -0.420454 0)
(-0.238609 -0.222367 3.01028e-21)
(-0.694883 0.2102 -2.53396e-21)
(-1.1822 -0.655441 0)
(0.0432149 -0.0277452 0)
(-0.209493 -0.0111699 5.77841e-21)
(-0.471505 -0.201467 -2.78135e-21)
(-0.289184 -0.196137 2.77384e-21)
(-0.838594 0.226437 0)
(-1.29318 -0.770153 0)
(0.0719896 -0.00179804 -8.56225e-21)
(-0.234392 0.0677269 0)
(-0.306572 -0.229905 1.47053e-21)
(-0.617215 -0.248716 0)
(-0.676335 0.132503 -5.81915e-21)
(-1.10498 -0.682512 -4.65064e-21)
(0.0382614 0.00235908 -7.48337e-22)
(-0.57425 0.302536 3.21837e-21)
(-1.13504 -0.436698 0)
(-0.202333 -0.199646 6.20669e-21)
(-0.207932 0.0159491 -5.72521e-21)
(-0.186312 0.0212448 -2.52498e-21)
(-0.516485 -0.2166 2.76745e-21)
(-0.299944 -0.212094 -5.51857e-21)
(-0.509691 -0.196954 0)
(-0.349001 -0.24469 -9.75406e-21)
(-0.147214 0.0431192 -2.49395e-21)
(-0.461419 -0.32178 6.18577e-21)
(-0.125539 0.0441251 1.60197e-21)
(-0.519329 -0.152361 -6.45939e-21)
(-0.539248 -0.36913 -3.04182e-21)
(-0.516488 -0.125412 1.36975e-22)
(-0.429771 0.200037 3.03347e-21)
(-0.473819 0.211322 0)
(-0.929386 -0.381941 5.12692e-21)
(-0.978882 -0.420298 -4.0072e-21)
(-0.215417 -0.197611 -5.71497e-21)
(-0.164735 -0.16336 9.49698e-21)
(-0.0152552 -0.0514959 0)
(-1.45559 -0.618272 -7.39392e-22)
(-0.868805 0.431187 -4.44551e-21)
(-0.159292 0.138427 3.47639e-21)
(-0.771635 -0.0500021 5.17384e-21)
(-0.950818 -0.731657 -7.96748e-21)
(0.00574532 -0.0347919 -4.36723e-21)
(0.0232203 -0.0281787 3.49867e-21)
(-1.47429 -0.643402 6.40372e-22)
(-1.46072 -0.664103 1.22751e-21)
(-0.900227 0.441113 1.12634e-20)
(-0.907388 0.421148 -5.83965e-21)
(-0.259559 0.18825 5.02869e-21)
(-0.701075 -0.552507 -4.02579e-21)
(-0.788055 -0.153899 1.16953e-21)
(-0.245087 -0.0635613 9.80964e-21)
(-0.261464 -0.151342 0)
(-0.399807 -0.184171 -9.61356e-21)
(-0.858388 0.254033 -2.2171e-21)
(-1.3218 -0.76532 -2.89825e-21)
(0.0749872 -0.0058778 0)
(-0.290471 0.133632 0)
(-0.337598 -0.275216 -1.17586e-21)
(-0.738926 -0.271955 -4.70814e-21)
(-0.604442 0.312223 0)
(-1.17024 -0.461138 0)
(-0.171786 -0.17562 -5.77572e-21)