/*--------------------------------*- C++ -*----------------------------------*\
  =========                 |
  \\      /  F ield         | OpenFOAM: The Open Source CFD Toolbox
   \\    /   O peration     | Website:  https://openfoam.org
    \\  /    A nd           | Version:  6
     \\/     M anipulation  |
\*---------------------------------------------------------------------------*/
FoamFile
{
    version     2.0;
    format      ascii;
    class       volVectorField;
    location    "0";
    object      U_rec;
}
// * * * * * * * * * * * * * * * * * * * * * * * * * * * * * * * * * * * * * //

dimensions      [0 1 -1 0 0 0 0];

internalField   nonuniform List<vector> 
13046
(
(-0.884583 0.46974 0)
(-0.631069 0.0899086 -8.11631e-21)
(-0.295929 -0.0127421 -1.79233e-20)
(-0.843924 0.373271 0)
(-0.381184 0.0923952 -1.61396e-20)
(-0.516374 0.042034 0)
(-0.911613 0.412444 2.32557e-21)
(-0.512585 0.0110527 4.16052e-21)
(-0.354769 0.0914661 -1.77793e-20)
(-1.38787 0.744032 5.67993e-21)
(-0.766157 -0.207634 0)
(-0.0321044 -0.138358 1.18535e-20)
(-1.05981 0.555721 -7.34835e-21)
(-0.600838 0.0193155 -1.29918e-20)
(-0.243294 -0.0220626 9.81757e-21)
(-1.37978 0.844314 -7.93333e-21)
(-0.0630459 -0.163256 2.85401e-20)
(-0.807482 -0.116139 6.94801e-21)
(-0.55511 0.240101 0)
(-0.422599 0.0166625 -8.76728e-21)
(-0.738377 0.255105 2.46069e-20)
(-1.3877 0.833251 -3.18992e-21)
(-0.0553038 -0.1566 -3.81098e-20)
(-0.795256 -0.135482 0)
(-0.780187 0.364282 9.86099e-21)
(-0.588755 0.0993724 -1.98382e-20)
(-0.363338 0.0456203 0)
(-1.06708 0.590249 -1.31551e-20)
(-0.625341 0.025371 3.79515e-21)
(-0.223514 -0.0469241 -1.70041e-20)
(-0.895987 0.494339 0)
(-0.663787 0.109408 0)
(-0.278182 -0.040782 1.82434e-20)
(-0.714664 0.315981 -1.14481e-20)
(-0.396352 0.06489 6.05448e-21)
(-0.587168 0.121302 3.45649e-20)
(-0.695392 0.288162 -1.77279e-20)
(-0.432321 0.0988988 9.23131e-21)
(-0.55896 0.114894 -1.78057e-20)
(-0.749008 0.453858 1.26195e-20)
(-0.312733 -0.11553 3.36725e-21)
(-0.855156 0.227748 -1.21788e-20)
(-0.606832 0.202096 8.0291e-21)
(-0.52799 0.165733 1.37846e-20)
(-0.52156 0.122611 0)
(-0.654757 0.225204 5.05368e-21)
(-0.521379 0.180732 -2.11302e-20)
(-0.486398 0.088861 -2.64897e-21)
(-0.91441 0.472544 0)
(-0.598629 0.0591557 -5.8465e-22)
(-0.286155 0.0011743 3.8916e-24)
(-0.373207 -0.197663 2.10609e-20)
(-0.63971 0.437873 0)
(-1.0947 0.334267 -1.47457e-20)
(-0.400314 -0.211982 -3.00019e-20)
(-1.16383 0.369892 -2.306e-20)
(-0.578603 0.39745 1.97796e-20)
(-0.83571 0.0549195 -3.0341e-21)
(-1.26149 0.873549 0)
(-0.166641 -0.198624 1.57495e-20)
(-1.29231 0.595071 -6.78917e-21)
(-0.555916 -0.125261 7.76697e-21)
(-0.226277 0.0500947 -4.11268e-20)
(-0.0775679 -0.108522 2.16741e-20)
(-0.71202 -0.145042 -5.03415e-21)
(-1.43458 0.769476 -9.87175e-21)
(-1.2117 0.86496 0)
(-0.870465 0.0931838 0)
(-0.192153 -0.213744 0)
(-1.17049 0.832766 -5.26066e-21)
(-0.870205 0.107713 0)
(-0.20314 -0.208864 1.2578e-20)
(-0.84668 0.04357 0)
(-1.2927 0.8982 2.36968e-22)
(-0.155207 -0.206037 -1.04558e-23)
(-0.58871 0.273882 0)
(-0.396184 -0.00950922 9.52117e-21)
(-0.757553 0.242279 -1.75738e-20)
(-0.121893 -0.189403 1.74448e-20)
(-1.33865 0.902501 -1.48964e-20)
(-0.818547 -0.0137649 0)
(-0.826522 0.389199 5.13827e-21)
(-0.56334 0.0755419 0)
(-0.350852 0.0557919 0)
(-0.0656026 -0.120188 -1.94686e-20)
(-0.729885 -0.156724 -3.93791e-21)
(-1.43954 0.777847 5.82728e-21)
(-1.48389 0.678332 -1.03096e-20)
(-0.0996756 -0.0391103 0)
(-0.65063 -0.213209 -3.88548e-21)
(-0.139532 0.0354173 0)
(-1.53511 0.582156 0)
(-0.607562 -0.29277 5.22062e-22)
(-1.29352 0.714987 0)
(-1.33677 0.72341 5.95348e-21)
(-0.656807 -0.0542324 1.52393e-20)
(-0.656718 -0.0821344 -7.15467e-21)
(-0.150075 -0.0793785 -8.92845e-21)
(-0.136365 -0.0732792 2.29046e-20)
(-0.118495 -0.0147527 -1.08888e-21)
(-1.48612 0.657682 1.01039e-20)
(-0.63142 -0.226584 0)
(-0.709043 0.265935 -6.05091e-23)
(-0.487954 0.164833 1.10944e-20)
(-0.482957 0.0666268 0)
(-0.491441 0.300981 0)
(-1.10015 0.395311 -7.07525e-21)
(-0.413504 -0.152844 0)
(-0.644649 0.417475 2.18915e-20)
(-0.354858 -0.157279 0)
(-0.999795 0.305719 -2.76274e-20)
(-1.23021 0.665363 0)
(-0.0101749 -0.144709 0)
(-0.760701 -0.260029 -5.81208e-21)
(-0.997942 0.516158 2.02993e-20)
(-0.589339 0.0340089 5.46472e-21)
(-0.265873 -0.00329913 1.77978e-20)
(-1.33153 0.785983 7.66034e-21)
(-1.2924 0.750591 -1.45331e-20)
(-0.711036 -0.046182 -1.29352e-20)
(-0.126303 -0.122276 1.02788e-20)
(-0.686648 -0.0352436 7.88098e-21)
(-0.141711 -0.105993 -9.60304e-21)
(-1.35743 0.742219 -4.31405e-21)
(-0.777782 -0.214955 -8.03445e-21)
(-0.0267281 -0.144642 -5.3132e-21)
(-1.19255 0.669505 0)
(-0.646244 -0.013762 -1.00597e-20)
(-0.179921 -0.0733185 2.08536e-20)
(-0.807358 0.491259 0)
(-0.29222 -0.111248 -1.67565e-20)
(-0.816437 0.194603 7.15174e-22)
(-0.168975 0.0638119 0)
(-1.5259 0.576675 0)
(-0.593541 -0.28013 0)
(-1.40869 0.723275 0)
(-0.659061 -0.134648 -1.9952e-20)
(-0.118632 -0.0629872 -2.45607e-20)
(-0.953215 0.531133 0)
(-0.671633 0.0921097 0)
(-0.256483 -0.0606253 0)
(-1.08871 0.4752 0)
(-0.487636 -0.0779457 0)
(-0.340568 0.123055 0)
(-0.610541 0.397317 0)
(-0.374275 -0.169338 0)
(-1.05195 0.335306 1.4851e-20)
(-0.495867 0.285633 -2.30592e-21)
(-1.06682 0.388002 -1.53079e-20)
(-0.413893 -0.136185 1.82619e-20)
(-1.32554 0.621109 1.54415e-20)
(-0.577923 -0.129917 0)
(-0.195887 0.0184022 5.34721e-20)
(-0.454861 0.213331 0)
(-0.970169 0.378253 1.65858e-20)
(-0.430882 -0.0713306 -4.62801e-21)
(-0.45598 -0.216893 0)
(-1.26969 0.446859 1.61032e-20)
(-0.48383 -0.219321 0)
(-1.31915 0.485395 9.11262e-21)
(-0.444169 0.293298 0)
(-0.379519 0.236188 0)
(-1.11645 0.445956 2.09926e-21)
(-0.457131 -0.118244 9.69232e-21)
(-0.386602 0.180619 -1.00962e-20)
(-1.41405 0.728404 -5.84068e-21)
(-0.0325534 -0.12901 0)
(-0.744703 -0.224318 -9.87915e-21)
(-1.27893 0.69621 -3.72004e-21)
(-0.0157769 -0.146884 -2.43267e-21)
(-0.776284 -0.240717 0)
(-1.41528 0.744487 -8.39552e-21)
(-0.677069 -0.132141 0)
(-0.104228 -0.0814086 2.79286e-20)
(-0.899459 0.597011 0)
(-0.877294 0.192749 3.9498e-21)
(-0.272902 -0.163644 9.82953e-21)
(-1.07539 0.421289 1.39008e-20)
(-0.425739 0.217974 4.82155e-21)
(-0.439475 -0.11096 0)
(-0.0414332 -0.101512 0)
(-0.707276 -0.240696 0)
(-1.4611 0.697415 4.81495e-21)
(-0.848773 0.552118 0)
(-0.872597 0.209097 -8.51444e-21)
(-0.28724 -0.147583 2.54253e-21)
(-0.45547 0.232113 0)
(-0.993437 0.379818 0)
(-0.420497 -0.0896456 0)
(-1.03652 0.442667 6.86651e-21)
(-0.478355 -0.0627464 0)
(-0.356019 0.126102 0)
(-0.586126 -0.0222358 -5.52947e-23)
(-0.227453 -0.0108619 -1.20658e-20)
(-1.15464 0.634001 2.08377e-20)
(-0.629395 -0.00383336 0)
(-0.198457 -0.0557966 -2.61313e-20)
(-1.46917 0.724182 -1.03197e-20)
(-0.0720825 -0.0857509 1.75967e-20)
(-0.693777 -0.197029 -1.89843e-20)
(-0.159028 0.041769 1.59861e-20)
(-1.49864 0.608837 6.49619e-21)
(-0.601715 -0.250554 1.93303e-20)
(-1.51975 0.628536 -1.7099e-20)
(-0.636046 -0.259591 0)
(-0.104921 -0.0116303 -1.56998e-20)
(-0.376253 -0.241214 -1.081e-21)
(-1.15538 0.328507 6.59851e-21)
(-0.698501 0.521631 0)
(-1.03326 0.490172 -3.08537e-20)
(-1.32237 0.912735 7.79252e-21)
(-0.133285 -0.198792 -1.07528e-20)
(-0.839241 0.00154589 0)
(-0.652694 -0.265837 0)
(-1.50737 0.644922 -1.45318e-20)
(-0.0805515 -0.0416045 0)
(-0.733602 0.299237 -2.55741e-20)
(-0.441243 0.125454 -9.06272e-21)
(-0.514208 0.0756264 2.62233e-20)
(-1.03582 0.588417 0)
(-0.65406 0.0531595 -5.47156e-22)
(-0.233416 -0.0594339 -1.00006e-20)
(-0.174557 0.0639795 1.22143e-20)
(-1.50806 0.593774 0)
(-0.591043 -0.266118 -2.22666e-20)
(-1.08595 0.524252 2.46457e-20)
(-0.565669 -0.0349799 2.35197e-20)
(-0.244338 0.0118135 0)
(-0.0170203 -0.135411 0)
(-0.740513 -0.257001 8.62422e-21)
(-1.35725 0.688753 0)
(-0.636156 0.469707 0)
(-1.2003 0.352037 0)
(-0.395582 -0.245886 0)
(-1.50858 0.634559 1.49933e-20)
(-0.624632 -0.245749 0)
(-0.120395 -0.00101193 -4.09769e-23)
(-1.21617 0.468394 6.03808e-21)
(-0.465732 -0.169198 -7.47033e-21)
(-0.376995 0.208318 0)
(-1.18648 0.689286 0)
(-0.666952 0.00255617 9.3913e-21)
(-0.177585 -0.0901017 1.64312e-20)
(-0.542282 -0.28269 -2.74423e-20)
(-1.48218 0.520699 -1.21818e-20)
(-0.286146 0.18186 9.60295e-21)
(-1.3701 0.493109 0)
(-0.498827 -0.240152 -1.07392e-20)
(-0.364055 0.231305 -3.45129e-22)
(-0.0119899 -0.132647 -1.55361e-20)
(-0.722945 -0.273268 0)
(-1.35044 0.663253 -3.89364e-21)
(-0.745355 0.497658 1.16457e-20)
(-0.326421 -0.167822 -1.22956e-20)
(-0.967378 0.266337 1.22707e-21)
(-1.14614 0.689281 3.7526e-21)
(-0.0183604 -0.148686 -2.29092e-20)
(-0.805245 -0.217637 0)
(-0.502144 0.197928 -5.25735e-21)
(-0.76614 0.281857 -1.99013e-20)
(-0.443223 0.0212959 2.62608e-20)
(-1.22832 0.516861 7.01622e-21)
(-1.18986 0.477215 1.33251e-23)
(-0.498049 -0.139326 -1.80292e-20)
(-0.471413 -0.147759 0)
(-0.362449 0.183491 9.1791e-21)
(-0.306059 0.130824 -9.52311e-21)
(-0.106701 -0.18475 -2.28365e-20)
(-1.35368 0.897667 8.01334e-21)
(-0.821646 -0.0316337 -1.69323e-20)
(-1.13875 0.672013 0)
(-0.687044 0.0362361 0)
(-0.195038 -0.0974436 -2.16378e-20)
(-1.41354 0.522413 -3.23996e-21)
(-0.522178 -0.24981 0)
(-0.31542 0.190854 0)
(-1.37475 0.760143 -7.28292e-21)
(-0.685038 -0.0896095 0)
(-0.115312 -0.0972277 1.01902e-20)
(-0.596426 0.212124 5.42569e-21)
(-0.558614 0.148462 7.92459e-21)
(-0.503592 0.1372 -2.71359e-21)
(-1.29591 0.499313 -1.16441e-20)
(-0.491457 -0.195177 0)
(-0.344412 0.194532 -1.59764e-20)
(-1.1442 0.696877 0)
(-0.712229 0.0450576 1.17499e-20)
(-0.18978 -0.115784 -1.39859e-20)
(-1.11023 0.558158 0)
(-1.16276 0.589849 2.42948e-21)
(-0.757728 0.517357 4.21169e-21)
(-0.327304 -0.183298 3.56878e-20)
(-0.992785 0.272321 -2.95671e-20)
(-1.33473 0.532869 -1.17162e-20)
(-0.513519 -0.195889 1.57675e-20)
(-0.293974 0.147889 1.45734e-20)
(-1.3999 0.762967 0)
(-0.104221 -0.0951398 -3.59321e-20)
(-0.689601 -0.109742 -9.99214e-21)
(-0.649458 0.398734 -3.02105e-20)
(-0.350449 -0.140895 0)
(-0.961623 0.299853 9.37336e-21)
(-0.470098 0.328321 -1.85662e-20)
(-1.2861 0.435746 -9.39825e-21)
(-0.452469 -0.237195 0)
(-1.26451 0.786517 -7.51932e-21)
(-0.738215 0.0101346 -1.03916e-20)
(-0.149259 -0.142979 6.40425e-21)
(-0.695131 0.484992 1.53127e-21)
(-0.358017 -0.201441 0)
(-1.07251 0.316536 2.03587e-20)
(-1.30066 0.812673 0)
(-1.32685 0.813265 0)
(-0.747473 -0.00571978 -6.77544e-21)
(-0.13782 -0.148384 -1.66321e-20)
(-0.735708 -0.0320567 9.58654e-21)
(-0.12575 -0.138965 1.76833e-20)
(-0.0493999 -0.105692 -1.36514e-20)
(-0.714731 -0.219684 0)
(-1.45994 0.722292 -7.03303e-21)
(-1.24899 0.736641 8.67014e-21)
(-0.687989 -0.0128421 0)
(-0.154701 -0.108586 5.65198e-21)
(-0.714889 -0.27412 1.6932e-20)
(-0.00461742 -0.134082 1.99751e-20)
(-1.06409 0.599395 7.68492e-21)
(-0.884548 0.328711 -9.16119e-21)
(-0.49724 0.227575 0)
(-0.416282 -0.0439653 0)
(-1.23504 0.574162 1.61878e-20)
(-0.543429 -0.101949 0)
(-0.240576 0.0492035 3.1439e-20)
(-0.0846495 -0.0818762 -1.11653e-20)
(-1.45961 0.733021 2.13399e-20)
(-0.68363 -0.175671 1.42228e-20)
(-0.408385 -0.226305 0)
(-1.19567 0.375402 8.54087e-21)
(-0.571803 0.414029 -2.2406e-20)
(-0.55936 -0.277671 -3.37194e-20)
(-1.49522 0.547446 -7.27063e-21)
(-0.240205 0.134601 0)
(-0.543636 -0.0165178 -2.35476e-20)
(-0.280898 0.040152 0)
(-1.25884 0.635351 1.7431e-20)
(-0.590666 -0.0765174 8.5983e-21)
(-0.190932 -0.0176429 9.59271e-21)
(-0.522196 -0.0360613 1.38582e-20)
(-0.296961 0.0636301 7.69979e-23)
(-1.38867 0.850893 -5.06562e-22)
(-0.0725817 -0.161991 1.3415e-20)
(-0.795463 -0.0987986 -1.02059e-20)
(-0.366229 -0.258211 0)
(-1.15557 0.314167 2.11937e-21)
(-0.748589 0.570726 0)
(-1.30001 0.658105 -1.77805e-20)
(-0.606118 -0.0910862 -1.04998e-20)
(-0.174449 -0.0230084 -1.17546e-20)
(-1.11154 0.474611 0)
(-0.475418 -0.100602 -1.40847e-20)
(-0.350039 0.143886 0)
(-1.0951 0.373201 0)
(-0.396423 -0.170259 0)
(-0.546591 0.342764 0)
(-0.890934 0.438914 -7.12537e-21)
(-0.574791 0.0597197 -1.29069e-20)
(-0.31605 0.0298869 4.65516e-23)
(-0.520921 0.373174 2.30563e-20)
(-1.25585 0.409468 2.26777e-20)
(-0.435355 -0.237577 1.52651e-20)
(-1.49024 0.692087 -8.79154e-21)
(-0.672391 -0.220861 1.61645e-20)
(-0.0775065 -0.0655486 -1.65752e-20)
(-0.567225 -0.261732 2.2784e-20)
(-1.48554 0.566275 7.36736e-21)
(-0.219933 0.109835 1.21888e-20)
(-1.07172 0.772772 -1.64872e-20)
(-0.241003 -0.214137 1.89301e-20)
(-0.914477 0.155781 -1.44384e-20)
(-1.33273 0.865485 4.3646e-21)
(-1.30812 0.849379 -4.07258e-21)
(-0.779703 0.00451451 -2.16014e-21)
(-0.789028 -0.0082746 0)
(-0.126227 -0.172908 -6.13643e-21)
(-0.137276 -0.170022 -5.3905e-21)
(-0.00838613 -0.138961 -2.70436e-20)
(-0.746093 -0.25692 -1.86443e-20)
(-1.09415 0.619343 2.44924e-21)
(-1.18078 0.714522 -2.57759e-22)
(-0.0225877 -0.153178 3.1689e-20)
(-0.8186 -0.206193 0)
(-1.28072 0.541796 -2.61774e-20)
(-0.519244 -0.152033 -4.06711e-21)
(-0.285344 0.116162 0)
(-0.0607355 -0.101109 -3.38855e-20)
(-1.46384 0.732831 6.9978e-21)
(-0.710175 -0.19833 0)
(-1.18507 0.800425 2.27532e-20)
(-1.22878 0.815513 -1.70172e-20)
(-0.810937 0.0736627 1.10786e-20)
(-0.791954 0.0503436 4.2586e-21)
(-0.18732 -0.179322 -1.06543e-20)
(-0.169569 -0.172013 -5.34048e-21)
(-0.054629 -0.061109 0)
(-0.649816 -0.291811 0)
(-1.49751 0.60828 2.47074e-21)
(-1.0622 0.665589 -4.40447e-21)
(-0.0181467 -0.143846 0)
(-0.802634 -0.213856 0)
(-0.66068 0.198979 -8.56141e-23)
(-0.599097 0.252713 1.15871e-20)
(-0.424052 0.048783 5.83063e-21)
(-1.15964 0.657985 -7.18213e-21)
(-0.772293 -0.24972 8.50143e-21)
(-0.0113518 -0.144708 1.48268e-21)
(-0.976826 0.633696 0)
(-0.821685 0.150298 -1.84025e-20)
(-0.246008 -0.151611 -4.63041e-24)
(-1.46853 0.68718 1.77972e-22)
(-0.694959 -0.247314 2.33474e-20)
(-0.0503123 -0.089962 1.14624e-23)
(-0.629163 -0.302782 5.09807e-22)
(0.00576726 -0.122381 -1.14655e-20)
(-1.00722 0.497454 -2.59655e-21)
(-0.694852 0.404012 -1.09294e-20)
(-0.331814 -0.0941797 1.06931e-20)
(-0.847218 0.244501 2.97762e-20)
(-0.827 0.32347 0)
(-0.452629 0.00505653 -2.91195e-20)
(-0.461513 0.1775 1.48464e-20)
(-1.34227 0.76144 0)
(-0.0300009 -0.14978 1.58491e-20)
(-0.792899 -0.200194 8.35229e-24)
(-0.868901 0.344007 0)
(-0.441292 -0.0159648 -1.0274e-20)
(-0.452951 0.189458 -2.09757e-20)
(-0.635377 0.19443 1.19094e-20)
(-0.582399 0.228781 -6.15305e-21)
(-0.451393 0.0761511 3.07299e-21)
(-0.60587 0.459692 1.10882e-20)
(-1.25852 0.375619 -8.07314e-21)
(-0.418755 -0.266502 1.6859e-20)
(-0.794572 0.265015 0)
(-0.390522 -0.0268196 0)
(-0.56923 0.285363 1.72317e-21)
(-0.86098 0.311725 1.45091e-20)
(-0.402463 -0.0415995 7.90401e-21)
(-0.538871 0.26487 2.45306e-22)
(-1.01912 0.739495 2.5104e-20)
(-0.946389 0.177661 -1.41504e-20)
(-0.260753 -0.221505 -1.86907e-20)
(-0.0470404 -0.141954 2.3949e-20)
(-0.0427312 -0.136624 -2.42739e-20)
(-0.775505 -0.170021 6.95642e-21)
(-0.762341 -0.18687 4.81962e-21)
(-1.40497 0.791994 0)
(-1.41365 0.779109 -5.81627e-21)
(-1.49559 0.680091 1.09542e-20)
(-0.67668 -0.234638 -1.45149e-20)
(-0.0684685 -0.0663941 2.05201e-20)
(-0.231827 -0.226597 -1.21206e-20)
(-1.11329 0.820509 5.06413e-21)
(-0.92154 0.145869 1.84007e-20)
(-0.781731 0.506701 -1.06354e-20)
(-0.308094 -0.151712 -1.11972e-20)
(-0.91425 0.237472 9.32663e-21)
(-1.38517 0.465869 0)
(-0.488967 -0.263595 1.11095e-20)
(-0.408027 0.281309 3.57174e-22)
(-0.647542 -0.317044 8.35242e-21)
(0.00585892 -0.129499 -1.06566e-20)
(-1.202 0.538101 -2.71745e-21)
(-0.113638 0.00700557 0)
(-1.52981 0.60014 0)
(-0.62109 -0.287051 9.75926e-21)
(-1.32358 0.702205 4.5131e-21)
(-0.0180635 -0.142649 0)
(-0.765685 -0.241282 -8.46291e-21)
(0.00450127 -0.113727 -4.25584e-32)
(-0.603963 -0.29297 -7.91343e-21)
(-0.925868 0.472873 2.47506e-21)
(-0.6517 -0.248475 8.86334e-21)
(-0.00453011 -0.114674 4.2455e-32)
(-0.894689 0.532752 -2.21694e-21)
(-0.564496 -0.180545 -2.16876e-20)
(-1.38443 0.599051 0)
(-0.218229 0.0644076 -3.13012e-20)
(-0.656492 -0.306281 -4.47985e-21)
(-0.019232 -0.10192 -1.08861e-20)
(-1.41909 0.586669 0)
(-1.43083 0.713231 -1.08102e-20)
(-0.652406 -0.156744 1.23886e-20)
(-0.116823 -0.0526339 1.63394e-20)
(-1.32203 0.841641 1.55622e-20)
(-0.0548207 -0.172675 9.71873e-21)
(-0.849196 -0.119699 0)
(-0.993794 0.490859 5.46625e-21)
(-0.28972 0.0324275 -6.03486e-21)
(-0.553746 0.00757935 5.66629e-21)
(-0.64235 -0.290928 5.0418e-21)
(-0.0714461 -0.0406734 1.15143e-20)
(-1.50987 0.606499 2.95205e-21)
(-1.35132 0.446653 -9.10125e-21)
(-0.45003 0.320471 -6.34538e-21)
(-0.4725 -0.259441 0)
(-0.534528 -0.238719 0)
(-1.41655 0.541789 0)
(-0.277675 0.155576 0)
(0.000152556 -0.0614927 0)
(-0.39315 -0.173556 -6.69611e-21)
(-0.527678 0.27843 1.07604e-21)
(-0.695755 -0.293052 8.38946e-21)
(-4.21293e-05 -0.133928 -1.38674e-20)
(-1.09085 0.582902 -3.51146e-21)
(-0.93576 0.44969 -1.40583e-20)
(-0.315848 0.0483989 1.42332e-20)
(-0.545982 0.0232859 6.56578e-21)
(-0.674294 -0.273157 2.07648e-20)
(-1.48025 0.646786 -5.12661e-21)
(-0.0431282 -0.0827399 0)
(-0.0453485 -0.0674668 -1.20645e-20)
(-1.48767 0.594361 0)
(-0.643769 -0.304587 -1.54965e-20)
(-1.45031 0.764025 -6.47647e-21)
(-0.0581448 -0.115264 3.63537e-20)
(-0.727092 -0.177749 0)
(-0.092403 -0.165587 -2.75557e-20)
(-0.791302 -0.0629632 1.07012e-20)
(-1.3763 0.868646 0)
(-0.98527 0.743087 -3.17895e-20)
(-0.998449 0.202776 1.8015e-20)
(-0.283545 -0.24001 -5.93624e-21)
(-0.802572 0.0321192 3.2311e-21)
(-1.27077 0.856342 9.73406e-21)
(-0.156437 -0.182832 -1.68203e-20)
(-0.0839411 -0.180487 -2.47727e-20)
(-1.36148 0.888324 0)
(-0.830246 -0.0679773 0)
(-1.02998 0.633468 -5.03438e-21)
(-1.08789 0.676425 0)
(-0.74099 0.10202 -1.91258e-20)
(-0.741855 0.0827009 2.0453e-20)
(-0.225767 -0.116015 2.8471e-21)
(-0.207586 -0.126321 -3.03418e-21)
(-0.976589 0.614044 4.82742e-21)
(-0.778638 0.133303 0)
(-0.243557 -0.128338 5.46873e-21)
(-1.16536 0.81388 0)
(-0.842889 0.0935023 -1.79023e-20)
(-0.199144 -0.194028 3.84332e-21)
(-0.557534 -0.247887 -1.12978e-20)
(-1.46133 0.562708 7.76496e-21)
(-0.232904 0.113592 -2.50492e-20)
(-0.663701 -0.256375 0)
(-1.49745 0.662588 1.59603e-20)
(-0.068101 -0.0570226 0)
(-0.179701 0.0526082 -8.09521e-21)
(-1.47257 0.605447 -4.70895e-21)
(-0.588926 -0.233616 -7.39539e-21)
(-0.692456 -0.24566 -1.22271e-21)
(-0.00725885 -0.123013 7.42523e-21)
(-0.945633 0.568723 0)
(-0.795394 0.455735 9.86397e-21)
(-0.809752 0.449689 0)
(-0.301688 -0.0708252 0)
(-0.75125 0.178254 3.65242e-20)
(-0.302327 -0.0499274 0)
(-0.709473 0.151251 -2.31779e-20)
(-1.08386 0.748238 0)
(-1.01743 0.698898 0)
(-0.241965 -0.181015 1.64435e-23)
(-0.851858 0.128486 1.11203e-20)
(-0.224879 -0.183949 2.81188e-20)
(-0.864835 0.149195 -2.34429e-20)
(-0.603235 -0.3152 0)
(0.00929878 -0.122869 1.55965e-20)
(-1.05012 0.487531 0)
(-0.676921 -0.264161 -1.22445e-20)
(-1.48736 0.661995 1.66183e-21)
(-0.0485183 -0.0821952 7.27479e-21)
(-0.814147 0.560012 -1.82832e-20)
(-0.31476 -0.195427 -1.28776e-20)
(-0.988523 0.253286 3.07382e-20)
(-0.525408 -0.271376 2.44057e-20)
(-1.44789 0.50835 2.0516e-20)
(-0.319193 0.20895 0)
(-0.102188 -0.170277 2.94701e-20)
(-0.793195 -0.0473326 -1.13852e-20)
(-1.36576 0.87348 1.00702e-20)
(-0.724072 -0.2844 0)
(-1.24091 0.629963 0)
(-0.00364709 -0.13975 0)
(-0.715443 -0.284982 0)
(-1.28636 0.628915 3.90121e-21)
(-0.00564977 -0.135127 2.64128e-21)
(-1.22965 0.794533 -9.43529e-21)
(-0.760603 0.033601 6.45299e-21)
(-0.163692 -0.154813 7.90486e-21)
(-0.61484 0.364822 -2.88111e-21)
(-0.363758 -0.124021 0)
(-0.954494 0.31449 -1.54369e-22)
(-1.43517 0.762004 7.54643e-21)
(-0.0490825 -0.124688 2.11968e-20)
(-0.744228 -0.186734 -5.61393e-21)
(-0.568287 -0.201297 0)
(-1.41236 0.59893 0)
(-0.211206 0.0748528 2.69889e-20)
(-0.0889191 -0.113153 6.85721e-21)
(-0.714496 -0.117918 1.71216e-20)
(-1.41327 0.789839 2.19878e-20)
(-0.977732 0.680213 0)
(-0.258657 -0.189496 -1.87428e-20)
(-0.897257 0.172775 1.19469e-20)
(-1.18307 0.440697 1.61355e-22)
(-0.443409 -0.169289 1.0964e-20)
(-0.435139 0.254911 0)
(-0.73203 0.455167 2.09611e-22)
(-0.320645 -0.133613 -3.6607e-21)
(-0.902356 0.249216 -1.22245e-20)
(-0.0432978 -0.119304 -8.72306e-24)
(-0.735267 -0.212095 1.32953e-20)
(-1.43613 0.734403 7.85444e-21)
(-1.364 0.788699 -4.18301e-21)
(-0.710335 -0.0720467 -5.04407e-21)
(-0.112884 -0.117462 0)
(-0.710657 0.401898 -1.06966e-20)
(-0.329324 -0.0731155 2.30514e-20)
(-0.79738 0.220577 -1.96296e-20)
(-1.3471 0.881915 6.36768e-21)
(-0.0740947 -0.181468 1.10329e-20)
(-0.843945 -0.0837486 -8.10484e-21)
(-0.942912 0.553082 -6.1029e-21)
(-0.708622 0.1083 0)
(-0.251621 -0.0829956 0)
(-0.990156 0.411803 -2.5672e-20)
(-0.455956 -0.0576872 6.38217e-21)
(-0.401174 0.166834 0)
(-0.533766 -0.21423 0)
(-1.38691 0.546639 1.67685e-20)
(-0.270534 0.139229 0)
(-1.24625 0.767315 -3.05493e-21)
(-0.0324811 -0.161011 -3.40386e-21)
(-0.840881 -0.175144 9.34444e-21)
(-1.25666 0.792462 8.51712e-21)
(-0.0391333 -0.165495 0)
(-0.851089 -0.153715 -8.9002e-21)
(-0.0870774 -0.127525 6.26448e-21)
(-0.732458 -0.104777 -1.02125e-20)
(-1.40547 0.806921 -2.02442e-20)
(-1.20886 0.426415 -8.09128e-21)
(-0.439143 -0.196926 -1.0964e-20)
(-0.468139 0.293077 0)
(-0.0273398 -0.157024 3.11681e-21)
(-0.84061 -0.188774 -8.73486e-21)
(-1.16893 0.731098 0)
(-0.101876 -0.060535 0)
(-0.663064 -0.174631 -1.04283e-20)
(-1.45374 0.713451 -2.49799e-21)
(0.00705004 -0.0986397 1.24992e-20)
(-0.521557 -0.284649 8.8198e-21)
(-0.820792 0.390654 0)
(-0.755617 0.487478 -2.74835e-21)
(-0.601054 -0.212822 0)
(-0.00666227 -0.0985567 1.25319e-20)
(-0.0826898 -0.171398 2.12999e-23)
(-0.810542 -0.0763952 0)
(-1.37185 0.876309 0)
(-0.0252309 -0.126403 0)
(-0.733598 -0.244758 0)
(-1.40603 0.703874 9.8219e-21)
(-1.41176 0.806602 -6.80096e-21)
(-1.42065 0.806206 5.50198e-21)
(-0.0569711 -0.144561 -1.20122e-20)
(-0.773062 -0.143209 -2.27908e-21)
(-0.0644498 -0.136782 -1.94725e-20)
(-0.754122 -0.136375 4.09465e-21)
(-1.46425 0.692189 4.926e-21)
(-0.648019 -0.190475 6.86767e-21)
(-0.110769 -0.041608 0)
(-0.38044 0.272593 0)
(-0.503615 -0.280968 0)
(-1.42797 0.478397 0)
(-0.794621 0.407408 0)
(-0.326549 -0.00634795 -3.14436e-20)
(-0.649554 0.12777 1.27774e-20)
(-1.45791 0.641325 1.43836e-20)
(-0.608826 -0.208295 2.52308e-21)
(-0.151018 0.0133746 2.3894e-20)
(-0.176408 0.0414965 1.55288e-20)
(-1.45145 0.621996 -2.00201e-20)
(-0.591723 -0.21463 -3.50125e-21)
(-1.35228 0.910397 7.74066e-21)
(-0.098583 -0.189772 1.18624e-20)
(-0.839054 -0.0412537 1.76825e-20)
(-1.10171 0.772432 0)
(-0.866816 0.127142 5.31824e-21)
(-0.221765 -0.19555 -2.75631e-20)
(-1.02392 0.673513 0)
(-0.824971 0.137201 2.4174e-20)
(-0.234353 -0.162197 8.2828e-24)
(-1.3718 0.637442 -1.96301e-20)
(-0.590884 -0.154451 3.05022e-21)
(-0.179784 0.01404 -1.35924e-20)
(-1.39484 0.631312 0)
(-0.587183 -0.172483 2.85814e-21)
(-0.183372 0.0258975 1.24865e-20)
(-0.671433 0.362175 0)
(-0.348581 -0.050365 -3.64105e-20)
(-0.780703 0.225649 1.10458e-20)
(-1.1013 0.702024 0)
(-0.7609 0.0824404 0)
(-0.202554 -0.142325 4.12356e-21)
(-0.0868652 -0.0174575 -2.49105e-20)
(-0.625407 -0.300693 -2.74998e-20)
(-1.52635 0.592582 0)
(-1.30521 0.604998 4.69309e-21)
(-0.00287891 -0.129997 0)
(-0.684477 -0.301733 6.01688e-21)
(-1.2729 0.56295 -3.52736e-22)
(0.001422 -0.12806 0)
(-0.661942 -0.310599 -1.72832e-20)
(-0.861507 0.541809 7.33058e-21)
(-0.278232 -0.125309 -3.98725e-21)
(-0.81978 0.182211 -1.70835e-22)
(-0.698529 -0.294836 2.195e-22)
(0.000861346 -0.136474 2.12001e-20)
(-1.18131 0.590614 0)
(-1.38537 0.813103 1.7758e-20)
(-0.099431 -0.130769 1.31919e-20)
(-0.732248 -0.0803535 0)
(0.00609403 -0.131174 -3.14216e-21)
(-0.656557 -0.313472 -9.40879e-21)
(-1.15732 0.541799 0)
(-0.812921 0.345097 1.77695e-20)
(-0.420259 0.126836 1.89018e-20)
(-0.496619 0.0425657 7.39827e-23)
(-1.18631 0.625946 -3.02962e-21)
(-0.604418 -0.034087 -3.13106e-21)
(-0.203763 -0.0315474 -1.40807e-20)
(-0.415706 -0.195877 2.49512e-20)
(-1.16673 0.397543 1.94953e-20)
(-0.52424 0.339218 0)
(-0.0287905 -0.0928979 0)
(-0.661107 -0.297786 -5.60252e-21)
(-1.4495 0.607877 0)
(-0.555263 -0.214932 0)
(-1.41575 0.580652 0)
(-0.231359 0.0993973 0)
(-0.0626865 -0.173028 0)
(-1.35088 0.856486 -5.59203e-21)
(-0.836337 -0.106378 7.94367e-21)
(-1.24063 0.654582 0)
(-0.609846 -0.0573092 1.55118e-21)
(-0.18693 -0.0353061 1.37672e-20)
(-0.765712 0.380449 0)
(-0.348335 0.0145711 2.69842e-20)
(-0.633963 0.128013 0)
(-0.683352 -0.28083 -1.96471e-20)
(-1.4423 0.643127 4.87677e-21)
(-0.0298001 -0.100144 0)
(-0.0858888 -0.0924875 -1.44007e-20)
(-0.692504 -0.156367 6.65447e-22)
(-1.43961 0.753365 4.27032e-22)
(-1.28697 0.744853 0)
(-1.25267 0.726743 5.20573e-21)
(-0.0265425 -0.153816 -7.81333e-21)
(-0.0220556 -0.152304 -9.62014e-21)
(-0.80799 -0.200791 -5.71454e-21)
(-0.80383 -0.21449 4.6986e-21)
(-1.18743 0.522142 0)
(-0.50131 -0.116638 4.21278e-20)
(-0.303294 0.11221 1.49032e-20)
(-0.543478 -0.167734 3.04291e-20)
(-1.34583 0.574203 0)
(-0.240597 0.0848655 -1.64119e-20)
(-0.943819 0.415394 -1.44988e-20)
(-0.490077 -0.0153769 1.09184e-20)
(-0.358906 0.112368 2.31784e-20)
(-0.683454 -0.299067 1.30981e-20)
(-1.36943 0.614622 5.37202e-21)
(-0.665652 -0.307924 -6.26643e-21)
(-0.00922499 -0.121693 0)
(-1.37555 0.590994 -5.17958e-21)
(-0.0101206 -0.115907 0)
(-1.34091 0.706455 0)
(-0.636417 -0.0986322 0)
(-0.146602 -0.0532429 1.53855e-20)
(-1.42553 0.654617 8.04589e-21)
(-1.38914 0.639094 -1.48532e-20)
(-0.699763 -0.274269 8.58951e-21)
(-0.701031 -0.283405 -2.155e-20)
(-0.0222459 -0.113214 2.13832e-20)
(-0.0142246 -0.122073 -2.82522e-24)
(-1.31429 0.555587 0)
(-0.523479 -0.174671 -2.80958e-20)
(-0.280501 0.126948 2.13234e-20)
(-1.12786 0.540747 1.33183e-20)
(-0.552514 -0.0601289 -1.88326e-20)
(-0.24168 0.0260025 0)
(-1.31524 0.819686 0)
(-0.0455648 -0.166759 0)
(-0.840459 -0.143061 8.55105e-21)
(-1.19679 0.545578 9.78495e-21)
(-0.52041 -0.101034 -1.17199e-20)
(-0.275387 0.0795124 -2.47791e-20)
(-1.0118 0.459159 5.78028e-21)
(-0.502623 -0.0343375 -1.2803e-20)
(-0.327226 0.0897662 1.3548e-20)
(-1.27597 0.764474 0)
(-0.0317092 -0.158481 0)
(-0.826446 -0.183505 -1.17515e-20)
(-1.25141 0.680498 0)
(-0.637932 -0.0433561 3.33796e-21)
(-0.167357 -0.0637661 -1.53315e-20)
(-0.460735 -0.272888 0)
(-1.3427 0.429818 0)
(-0.496329 0.370621 -8.16664e-22)
(-0.974346 0.695296 -8.12491e-22)
(-0.932315 0.187786 0)
(-0.267009 -0.205771 2.91846e-20)
(-0.573587 -0.290265 1.32084e-20)
(-0.206815 0.108859 0)
(-1.52261 0.554274 0)
(0.000135634 -0.0853503 -3.00857e-20)
(-0.507598 -0.223604 9.37689e-21)
(-0.703333 0.381098 -1.50611e-21)
(-1.22222 0.594909 0)
(-0.56117 -0.0769184 1.15617e-20)
(-0.223776 0.0186152 -1.26646e-20)
(-1.36901 0.817371 1.06673e-20)
(-0.0472929 -0.157125 4.06952e-20)
(-0.808186 -0.14624 0)
(-0.324709 -0.249384 -7.8075e-21)
(-1.07804 0.260987 -1.16248e-20)
(-0.867336 0.659536 -7.32257e-21)
(-0.921929 0.590494 0)
(-0.0120584 -0.125948 -1.1299e-20)
(-0.735563 -0.227082 0)
(-0.522149 0.280833 1.4325e-20)
(-0.542069 0.309181 -1.46677e-20)
(-0.393473 -0.0959479 0)
(-0.960443 0.344505 1.24481e-20)
(-0.388328 -0.122089 -2.34867e-20)
(-0.999259 0.344065 -1.00241e-20)
(-0.928181 0.390507 1.36286e-20)
(-0.462973 -0.024749 1.44185e-20)
(-0.403531 0.153775 0)
(-0.635638 0.364377 1.25704e-20)
(-0.577166 0.320232 0)
(-0.352392 -0.0973993 -1.30288e-20)
(-0.886146 0.277829 1.12194e-20)
(-0.372151 -0.0830345 1.3127e-20)
(-0.895301 0.299187 7.9547e-23)
(-1.17919 0.575082 8.41991e-22)
(-0.5288 -0.0613238 -8.17996e-21)
(-0.275771 0.0587016 -1.67099e-20)
(-1.13394 0.526958 -2.28477e-20)
(-0.51687 -0.0765605 2.16789e-22)
(-0.291505 0.0801074 0)
(-0.00157537 -0.121122 0)
(-0.647401 -0.318614 0)
(-1.3241 0.559517 4.92439e-21)
(-0.920724 0.569443 -6.75286e-21)
(-0.780285 0.15198 0)
(-0.260279 -0.116902 7.38358e-21)
(-1.43203 0.686221 -1.58059e-20)
(-0.713338 -0.255176 9.90917e-21)
(-0.0277478 -0.114302 -1.22036e-20)
(-1.38768 0.670543 0)
(-1.41866 0.685255 1.0387e-20)
(-0.614772 -0.145836 -3.80046e-21)
(-0.630471 -0.158007 1.21671e-20)
(-0.152009 -0.016612 -1.69587e-20)
(-0.135105 -0.029021 -1.5771e-20)
(-0.90396 0.537812 0)
(-0.743236 0.137059 0)
(-0.265001 -0.0933513 3.47369e-21)
(-1.1545 0.764127 7.75196e-21)
(-0.794773 0.080865 0)
(-0.194572 -0.166062 9.17223e-21)
(-1.31591 0.652232 -5.58505e-21)
(-0.595468 -0.114092 0)
(-0.17609 -0.00665219 0)
(-0.66076 0.293802 1.39441e-20)
(-0.637489 0.164921 -6.86127e-21)
(-0.398188 0.0440888 7.25954e-21)
(-1.43401 0.654105 0)
(-0.609776 -0.186428 0)
(-0.153473 0.00424184 -2.53945e-20)
(-0.758232 0.400034 0)
(-0.326258 -0.0281165 3.9878e-21)
(-0.697657 0.163274 0)
(-1.30852 0.578681 -1.28463e-20)
(-0.540337 -0.15173 -1.56795e-20)
(-0.245897 0.0782484 -2.12774e-21)
(-1.15449 0.739046 7.79081e-21)
(-0.762365 0.063293 0)
(-0.187972 -0.148642 1.88403e-20)
(-0.687122 0.327782 -1.38293e-20)
(-0.661766 0.321016 -6.18394e-21)
(-0.660881 0.163841 6.719e-21)
(-0.371633 0.0179949 -1.43502e-20)
(-0.7065 0.191736 0)
(-0.368506 -0.00174504 -2.56072e-20)
(-0.616137 0.32123 -6.27245e-21)
(-0.366001 -0.0508419 1.70181e-20)
(-0.580307 0.306269 4.03948e-21)
(-0.807171 0.25264 -1.51543e-20)
(-0.379309 -0.0673089 -8.16346e-21)
(-0.867172 0.290935 3.61985e-22)
(-1.01437 0.607077 7.2467e-21)
(-1.07239 0.627784 0)
(-0.707989 0.0877766 1.41656e-20)
(-0.681751 0.058876 -1.10567e-20)
(-0.229356 -0.0944535 -1.64393e-20)
(-0.216263 -0.0845982 2.73361e-20)
(-0.0898126 -0.15257 0)
(-0.768528 -0.0753878 -6.28759e-21)
(-1.38707 0.845219 -1.02796e-20)
(-0.540914 0.399915 9.89609e-21)
(-1.28758 0.406132 1.27501e-20)
(-0.439885 -0.259991 -2.65158e-20)
(-0.0778118 -0.151386 -1.37159e-20)
(-0.07484 -0.140438 1.09506e-20)
(-0.771777 -0.0985461 5.43525e-21)
(-0.753787 -0.114136 9.33073e-21)
(-1.39635 0.840988 2.5992e-20)
(-1.41075 0.822124 -1.34503e-20)
(-0.72061 0.520735 1.3489e-20)
(-0.357798 -0.219769 -1.23334e-20)
(-1.0935 0.309691 2.98587e-21)
(-0.628852 0.243094 2.35202e-20)
(-0.461012 0.105691 0)
(-0.576055 0.148129 -2.3453e-20)
(-1.44133 0.676688 -4.89061e-21)
(-0.628936 -0.179868 -1.37388e-20)
(-0.133308 -0.0207276 0)
(-0.836545 0.490469 0)
(-0.284401 -0.0912047 -3.31046e-21)
(-0.763902 0.168246 -1.18684e-20)
(-1.18741 0.752428 0)
(-0.74883 0.0460806 0)
(-0.176243 -0.1434 -1.75564e-20)
(-1.35218 0.856772 -1.1475e-20)
(-1.35581 0.835963 0)
(-0.774384 -0.0360481 3.31086e-21)
(-0.112897 -0.161697 -1.67645e-20)
(-0.754155 -0.0437763 -9.03138e-21)
(-0.112443 -0.148877 2.2669e-20)
(-1.375 0.703976 1.04768e-20)
(-0.639274 -0.117953 1.27823e-20)
(-0.135939 -0.0504248 9.23608e-21)
(-1.01881 0.621593 5.32415e-21)