/*--------------------------------*- C++ -*----------------------------------*\
  =========                 |
  \\      /  F ield         | OpenFOAM: The Open Source CFD Toolbox
   \\    /   O peration     | Website:  https://openfoam.org
    \\  /    A nd           | Version:  6
     \\/     M anipulation  |
\*---------------------------------------------------------------------------*/
FoamFile
{
    version     2.0;
    format      ascii;
    class       volScalarField;
    location    "0";
    object      p;
}
// * * * * * * * * * * * * * * * * * * * * * * * * * * * * * * * * * * * * * //

dimensions      [0 2 -2 0 0 0 0];

internalField   nonuniform List<scalar> 
13046
(
0.54624
0.523865
0.586345
0.552731
0.580046
0.539638
0.533375
0.54318
0.588151
0.277408
0.246466
0.552329
0.53224
0.493259
0.580338
0.344599
0.553628
0.274343
0.581365
0.56937
0.543511
0.334397
0.555218
0.271911
0.550238
0.550929
0.579251
0.517814
0.492742
0.582746
0.555883
0.501837
0.579691
0.563734
0.581905
0.547616
0.562579
0.584076
0.558313
0.558327
0.57281
0.485914
0.561549
0.580964
0.567791
0.558981
0.572388
0.569761
0.533914
0.523081
0.586761
0.541247
0.561869
0.4402
0.54848
0.421949
0.566754
0.354705
0.472406
0.560352
0.462633
0.480585
0.575459
0.561212
0.350741
0.379809
0.488446
0.358851
0.556452
0.502137
0.369424
0.557432
0.334823
0.459195
0.559458
0.581133
0.580595
0.527638
0.561281
0.427287
0.331461
0.544005
0.547172
0.578666
0.558367
0.329308
0.356306
0.35189
0.561555
0.379056
0.554335
0.303885
0.382205
0.468792
0.450449
0.436989
0.42672
0.571082
0.572865
0.562616
0.353317
0.394625
0.5573
0.576347
0.56425
0.579957
0.452494
0.55164
0.560372
0.562958
0.46054
0.179297
0.54667
0.152968
0.536802
0.507854
0.577516
0.453651
0.468093
0.399474
0.567804
0.424351
0.569042
0.257849
0.220398
0.550893
0.504422
0.449961
0.581049
0.5533
0.573389
0.48558
0.554117
0.321108
0.408803
0.418795
0.405466
0.567447
0.547695
0.493118
0.576935
0.493217
0.538502
0.578127
0.557764
0.5508
0.460509
0.576691
0.46893
0.559724
0.457235
0.460535
0.572625
0.58991
0.504602
0.555385
0.520368
0.417404
0.508277
0.412352
0.568192
0.568831
0.492936
0.522221
0.571888
0.270923
0.552237
0.258914
0.212609
0.548054
0.175696
0.411071
0.387375
0.566964
0.552287
0.443421
0.571124
0.496678
0.571579
0.531968
0.555477
0.293241
0.281087
0.554648
0.459449
0.565319
0.587717
0.491742
0.550861
0.504518
0.539609
0.576452
0.487456
0.584318
0.509709
0.469089
0.577952
0.341966
0.558869
0.345017
0.560129
0.348863
0.411642
0.309047
0.371816
0.553652
0.533978
0.407078
0.552498
0.516648
0.434036
0.556792
0.328214
0.343965
0.300088
0.554318
0.554109
0.583618
0.559489
0.526525
0.496635
0.580974
0.559666
0.337656
0.419943
0.505376
0.498161
0.586775
0.549343
0.215214
0.218867
0.554863
0.405084
0.52599
0.332737
0.392668
0.558131
0.448296
0.518465
0.576075
0.49762
0.453204
0.580538
0.457233
0.35278
0.554061
0.39468
0.495015
0.562432
0.548586
0.215042
0.19805
0.565193
0.568582
0.4494
0.205888
0.545915
0.113025
0.577907
0.54684
0.561799
0.458323
0.463004
0.509562
0.521896
0.57971
0.571975
0.554662
0.409833
0.311552
0.512761
0.461491
0.575905
0.391484
0.47275
0.5647
0.432601
0.403384
0.567763
0.56889
0.559882
0.581705
0.431554
0.504716
0.5708
0.515043
0.443578
0.57535
0.509046
0.504577
0.567303
0.562181
0.435018
0.427361
0.488926
0.569429
0.409888
0.565797
0.394892
0.575425
0.562504
0.470849
0.567684
0.405288
0.513471
0.475854
0.403231
0.565437
0.561818
0.545838
0.436787
0.458983
0.450046
0.391701
0.564061
0.387035
0.566793
0.555783
0.30628
0.299862
0.479179
0.436167
0.572061
0.0753552
0.54443
0.126949
0.529562
0.574387
0.549061
0.477718
0.490891
0.576407
0.562037
0.365011
0.367392
0.542503
0.405088
0.564123
0.440057
0.349099
0.556433
0.521702
0.582807
0.467813
0.477686
0.576883
0.514945
0.5834
0.369237
0.555592
0.295594
0.541885
0.390657
0.553331
0.454649
0.467167
0.573485
0.486062
0.531107
0.580949
0.457686
0.541816
0.57155
0.547612
0.527439
0.58436
0.558739
0.409206
0.520241
0.327289
0.355239
0.557593
0.445429
0.348844
0.55994
0.512028
0.554391
0.391781
0.441823
0.455197
0.371265
0.35284
0.557397
0.560681
0.545196
0.0922734
0.151694
0.224704
0.546617
0.129455
0.446969
0.500406
0.567302
0.55694
0.332245
0.322407
0.492675
0.485817
0.399086
0.38928
0.566296
0.56367
0.548296
0.315263
0.250276
0.189917
0.544779
0.0839546
0.543978
0.577218
0.576507
0.178352
0.122047
0.546476
0.543887
0.445266
0.567712
0.287869
0.306222
0.555323
0.0979855
0.544648
0.0638668
0.563396
0.570165
0.498785
0.532427
0.569021
0.580072
0.266461
0.551193
0.211152
0.523644
0.562471
0.579932
0.551523
0.577308
0.577368
0.561909
0.385904
0.527724
0.518777
0.5777
0.57751
0.533816
0.55134
0.571881
0.523112
0.397074
0.553343
0.555021
0.55604
0.273023
0.272335
0.31361
0.306097
0.301472
0.344321
0.55578
0.560597
0.508122
0.369824
0.555231
0.562102
0.464416
0.384538
0.489688
0.555096
0.171754
0.543851
0.106641
0.554466
0.296866
0.366046
0.226079
0.549361
0.200813
0.545243
0.0741754
0.0566314
0.0347213
0.545413
0.0960124
0.46809
0.418681
0.565841
0.262596
0.545321
0.18869
0.400226
0.405654
0.566801
0.319072
0.548409
0.21783
0.5268
0.580404
0.531141
0.333869
0.550844
0.26867
0.391977
0.555782
0.497705
0.465459
0.391901
0.567446
0.546707
-0.0334819
-0.00919477
0.105883
0.544342
0.103897
0.53748
0.583849
0.531857
0.305706
0.2478
0.55056
0.548351
0.224197
0.302431
0.33437
0.55716
0.321389
0.556737
0.324216
0.396278
0.534874
0.385579
0.555426
0.370651
0.471498
0.565698
0.554582
0.379096
0.274731
0.531871
0.523602
0.460976
0.44795
0.57417
0.576405
0.539025
0.462129
0.57284
0.504718
0.386357
0.567921
0.454913
0.368715
0.561417
0.334461
0.298195
0.556845
0.560499
0.369675
0.43134
0.0377972
0.545328
0.120523
0.565508
0.559055
0.580324
0.499859
0.583747
0.509316
0.526624
0.52239
0.564962
0.405779
0.566726
0.428255
0.112706
0.543457
0.0681098
0.315183
0.265914
0.552324
0.550211
0.551278
0.436111
0.471932
0.365899
0.557495
0.557442
0.331897
0.410729
0.161282
0.158355
0.546704
0.1887
0.169508
0.546969
0.487756
0.40403
0.570327
0.578638
0.556566
0.483087
0.318935
0.555407
0.294503
0.460723
0.401279
0.569482
0.565146
0.364578
0.39942
0.529992
0.566539
0.428528
0.454866
0.525825
0.571104
0.562304
0.568748
0.47452
0.554561
0.288056
0.297434
0.434206
0.390895
0.566601
0.567701
0.574735
0.505453
0.356786
0.551231
0.251958
0.536472
0.490856
0.579914
0.516146
0.539428
0.58368
0.475874
0.405624
0.565996
0.260416
0.547475
0.162738
0.278569
0.547442
0.172069
0.563898
0.35329
0.399971
0.434524
0.532537
0.565157
0.545201
0.130318
0.232184
0.563487
0.384751
0.382079
0.544304
0.0527095
0.0296263
0.0738808
0.0069944
0.544437
0.557075
0.291221
0.382744
0.551556
0.248745
0.248109
0.343119
0.359017
0.554778
0.28887
0.557637
0.315366
0.371464
0.397094
0.563397
0.563673
0.484511
0.360598
0.565792
0.580002
0.522072
0.38303
0.419792
0.565226
0.565426
0.389929
0.431667
0.396313
0.554698
0.282458
0.520766
0.39112
0.565398
0.533282
0.435612
0.563638
0.426231
0.45859
0.573402
0.416539
0.453501
0.571046
0.570903
0.56785
0.52044
0.522098
0.433956
0.578765
0.550775
0.345219
0.264451
0.155817
0.546175
0.198879
0.132502
0.545542
0.200068
0.551309
0.573952
0.472391
0.142435
0.545519
0.125769
0.419504
0.564734
0.365066
0.544338
0.14924
0.0990484
0.55449
0.580842
0.54904
0.498434
0.484357
0.578354
0.535523
0.440613
0.566654
0.546947
0.277433
0.213301
0.458319
0.403853
0.567069
0.550829
0.34024
0.24578
0.479472
0.475202
0.580186
0.569706
0.583095
0.528337
0.274727
0.22957
0.549812
0.564048
0.367105
0.381744
0.251662
0.231011
0.548489
0.547577
0.184336
0.163361
0.474955
0.515595
0.579287
0.478857
0.432004
0.566426
0.524037
0.542356
0.588637
0.229658
0.180773
0.236806
0.547217
0.176869
0.545734
0.450481
0.437731
0.575028
0.227799
0.204233
0.259333
0.23877
0.550368
0.548401
0.432726
0.494649
0.5769
0.498086
0.504822
0.579595
0.300658
0.549678
0.206876
0.489088
0.499211
0.577914
0.520068
0.525161
0.581728
0.260275
0.547714
0.184206
0.48542
0.447963
0.573341
0.511651
0.375538
0.55659
0.535258
0.409492
0.562713
0.424919
0.552301
0.322941
0.545599
-0.00613822
0.0175317
0.477718
0.490225
0.577949
0.315912
0.551759
0.245483
0.549235
0.386791
0.544194
0.128029
0.543705
0.0509596
0.578688
0.570816
0.553867
0.496493
0.555617
0.484061
0.526744
0.544581
0.583594
0.566005
0.576221
0.564214
0.499546
0.573351
0.493905
0.489567
0.513901
0.585283
0.498049
0.518258
0.583547
0.544559
0.216876
0.144001
0.546015
0.473947
0.570486
0.250972
0.267091
0.552167
0.422332
0.407288
0.441003
0.421545
0.569308
0.56596
0.540718
0.494864
0.575368
0.504062
0.414251
0.565801
0.450509
0.461714
0.576711
0.569054
0.54704
0.57555
0.399935
0.429204
0.566924
0.561876
0.573955
0.524369
0.447512
0.487598
0.576196
0.502044
0.431391
0.566688
0.567966
0.570016
0.535505
0.582599
0.534154
0.578732
0.571254
0.562054
0.578739
0.522244
0.57965
0.502354
0.532886
0.527223
0.473962
0.473551
0.578433
0.574963
0.558758
0.33287
0.402645
0.555752
0.391789
0.519489
0.559819
0.560472
0.317943
0.328929
0.38244
0.378434
0.556709
0.551195
0.417896
0.569089
0.577278
0.559141
0.396653
0.413617
0.566244
0.560325
0.576495
0.489095
0.49488
0.426671
0.56751
0.43416
0.436256
0.349896
0.563179
0.363203
0.564078
0.432816
0.429403
0.569732
0.151483
0.0785418
0.544552
0.544436
0.398863
0.546698
0.537406
0.540871
0.551948
0.395644
0.560912
0.406759
0.381576
0.444923
0.563334
0.510458
0.42342
0.568083
0.556215
0.549793
0.41724
0.538501
0.544947
0.556593
0.571214
0.437377
0.433012
0.536042
0.563312
0.416331
0.435354
0.441925
0.572538
0.567386
0.573967
0.527169
0.285726
0.550672
0.225866
0.552735
0.552935
0.405574
0.500616
0.486066
0.430928
0.422727
0.567981
0.572576
0.552144
0.246624
0.304825
0.302051
0.550915
0.21913
0.282757
0.549575
0.208891
0.419853
0.562995
0.354502
0.5174
0.439076
0.57047
0.326712
0.381053
0.505122
0.331358
0.463238
0.192002
0.421841
0.362507
0.298271
0.453271
0.45035
0.279914
0.326671
0.453568
0.359748
0.329012
0.33775
0.357461
0.376323
0.424655
0.380055
0.352779
0.463123
0.546968
0.513323
0.386641
0.47386
0.283019
0.397003
0.316983
0.291541
0.416308
0.381239
0.36847
0.306018
0.391522
0.497744
0.461248
0.347062
0.409766
0.343243
0.545296
0.319447
0.45177
0.485857
0.342457
0.348954
0.329703
0.282867
0.319591
0.516345
0.379214
0.33164
0.34557
0.291584
0.510903
0.427396
0.38472
0.330048
0.44612
0.317254
0.323757
0.513994
0.374185
0.384257
0.429293
0.391924
0.542933
0.462375
0.463008
0.268526
0.292696
0.349445
0.437416
0.283683
0.366245
0.385621
0.300734
0.439722
0.482047
0.3579
0.37522
0.286379
0.321232
0.336403
0.447159
0.336774
0.332804
0.358211
0.519656
0.329323
0.445172
0.51271
0.369827
0.327553
0.130716
0.312379
0.332587
0.327273
0.264788
0.415968
0.466654
0.494625
0.546658
0.323366
0.322302
0.281353
0.339242
0.314409
0.495987
0.470854
0.422093
0.306988
0.290969
0.416234
0.473244
0.353055
0.333256
0.262729
0.352428
0.366619
0.529174
0.539733
0.440226
0.390302
0.355254
0.283621
0.5312
0.295081
0.434791
0.264132
0.515042
0.2889
0.266443
0.314611
0.480756
0.359015
0.237768
0.318991
0.421559
0.323454
0.448808
0.420651
0.333742
0.48386
0.346626
0.314185
0.489318
0.319171
0.358633
0.280828
0.398509
0.345466
0.486201
0.444293
0.346663
0.438127
0.450103
0.502656
0.387115
0.347611
0.331511
0.455873
0.296009
0.406621
0.285885
0.541596
0.354512
0.490305
0.52796
0.385656
0.53488
0.490123
0.500361
0.303502
0.259008
0.281867
0.505423
0.303086
0.292121
0.28829
0.294268
0.3568
0.345693
0.3908
0.528446
0.442111
0.341528
0.446426
0.338407
0.542794
0.248246
0.478596
0.335713
0.255469
0.51693
0.530324
0.330993
0.332649
0.540926
0.398836
0.340522
0.313314
0.438064
0.494831
0.442767
0.319292
0.330401
0.463793
0.39196
0.314554
0.408659
0.282416
0.297637
0.355153
0.473994
0.266222
0.355051
0.467333
0.3343
0.262044
0.350868
0.334548
0.349621
0.410119
0.416567
0.319824
0.289144
0.306874
0.426908
0.436693
0.337124
0.416546
0.348603
0.30463
0.39971
0.343326
0.247989
0.441955
0.488061
0.387911
0.522377
0.497617
0.544178
0.328619
0.236108
0.360104
0.347379
0.348362
0.272618
0.404861
0.512739
0.438415
0.39624
0.314376
0.34464
0.453279
0.379675
0.431069
0.320386
0.365779
0.339952
0.273144
0.319707
0.334195
0.327991
0.307373
0.418625
0.390189
0.34724
0.424597
0.337513
0.354872
0.320509
0.350079
0.324419
0.33729
0.394707
0.268891
0.225534
0.369993
0.276177
0.256507
0.39468
0.255212
0.260173
0.486259
0.419913
0.319738
0.446906
0.296055
0.414957
0.408861
0.283
0.332843
0.471447
0.360718
0.452068
0.186625
0.310845
0.48927
0.337206
0.314701
0.213557
0.266822
0.253175
0.271059
0.342591
0.424927
0.302717
0.255544
0.310974
0.335878
0.543182
0.316301
0.43748
0.408863
0.263923
0.363107
0.317224
0.287165
0.411265
0.350556
0.51292
0.435604
0.316675
0.344451
0.381327
0.54757
0.450359
0.498476
0.443759
0.34571
0.389181
0.354733
0.3063
0.271351
0.332004
0.344736
0.432196
0.325442
0.277304
0.332432
0.353861
0.328553
0.338349
0.475167
0.346163
0.338327
0.509899
0.48355
0.320199
0.394118
0.496216
0.296234
0.249207
0.347286
0.303338
0.288036
0.493274
0.315401
0.361926
0.504257
0.259959
0.393032
0.328203
0.387614
0.348091
0.328116
0.137732
0.360449
0.280359
0.310242
0.344443
0.341358
0.447391
0.512767
0.326395
0.393558
0.356352
0.306614
0.244551
0.470341
0.418861
0.313911
0.278674
0.404443
0.27827
0.331096
0.320339
0.313441
0.463676
0.511411
0.342073
0.444801
0.545633
0.474198
0.478847
0.50286
0.340797
0.337556
0.289892
0.544168
0.47141
0.489571
0.326488
0.335177
0.260441
0.452372
0.352268
0.311809
0.491065
0.427267
0.301059
0.358284
0.325441
0.331345
0.325803
0.343806
0.349171
0.300409
0.344607
0.270694
0.362877
0.301365
0.42753
0.374362
0.266697
0.496587
0.507045
0.442255
0.340609
0.396554
0.250759
0.450442
0.378712
0.273477
0.494054
0.218258
0.514608
0.279879
0.357284
0.372526
0.439478
0.462444
0.32831
0.526856
0.329559
0.477405
0.358697
0.425965
0.339294
0.320231
0.330626
0.482338
0.370822
0.541762
0.428503
0.26903
0.320263
0.417192
0.234242
0.341636
0.359783
0.302598
0.518566
0.296044
0.283934
0.45925
0.330915
0.512767
0.536376
0.337008
0.54418
0.524565
0.477653
0.492083
0.40208
0.281673
0.317075
0.350454
0.468655
0.353432
0.219173
0.525554
0.302162
0.345844
0.312702
0.501013
0.542036
0.313259
0.474359
0.410386
0.51277
0.361606
0.448136
0.334753
0.528151
0.539861
0.433418
0.317343
0.465053
0.346353
0.388893
0.379945
0.365621
0.410103
0.33287
0.225117
0.290222
0.371165
0.420441
0.39549
0.490558
0.30959
0.348248
0.425352
0.293992
0.505535
0.319683
0.334203
0.505666
0.482861
0.401893
0.531037
0.319311
0.336116
0.451722
0.384336
0.372177
0.354951
0.331544
0.416915
0.434551
0.331786
0.324842
0.398646
0.268381
0.298577
0.514344
0.54375
0.54245
0.360793
0.550543
0.541728
0.5217
0.245433
0.411163
0.408154
0.530692
0.344678
0.325418
0.284339
0.31619
0.204581
0.526291
0.357711
0.363815
0.450761
0.432536
0.340357
0.33521
0.541264
0.529017
0.496768
0.436068
0.32058
0.444321
0.422624
0.341653
0.371907
0.292349
0.315092
0.389895
0.369488
0.33952
0.515492
0.513092
0.246599
0.48017
0.331068
0.320709
0.354115
0.512058
0.355887
0.435583
0.357935
0.498404
0.343502
0.360986
0.540546
0.264427
0.26525
0.321241
0.305101
0.23026
0.114129
0.313251
0.238778
0.37468
0.247962
0.300233
0.368615
0.30795
0.313083
0.344157
0.288567
0.131512
0.525538
0.483178
0.344163
0.278807
0.487792
0.324524
0.325308
0.537389
0.31956
0.537422
0.35972
0.48602
0.359782
0.267717
0.294893
0.39426
0.394576
0.375123
0.268587
0.34765
0.30327
0.307622
0.332833
0.267271
0.289949
0.523137
0.314946
0.43296
0.456454
0.345809
0.462756
0.458287
0.28347
0.118668
0.359045
0.272926
0.233637
0.439707
0.44262
0.343659
0.418746
0.340485
0.540638
0.522574
0.351812
0.335455
0.529007
0.49165
0.412432
0.413767
0.340732
0.543507
0.390153
0.24608
0.501756
0.474348
0.514296
0.393963
0.319007
0.351082
0.444088
0.413212
0.0707051
0.545211
0.358173
0.318439
0.37784
0.495752
0.542578
0.537876
0.418808
0.377852
0.462592
0.493239
0.508342
0.43651
0.470677
0.279471
0.326457
0.406017
0.290171
0.278753
0.264871
0.356896
0.458259
0.272727
0.38598
0.328049
0.474031
0.537904
0.354992
0.280902
0.256444
0.446893
0.332888
0.31364
0.266556
0.512462
0.397101
0.402203
0.272108
0.406804
0.316999
0.326136
0.448295
0.454957
0.515438
0.542378
0.313662
0.497045
0.249029
0.503844
0.51139
0.513554
0.464002
0.301904
0.301932
0.343586
0.243504
0.38684
0.26381
0.411964
0.27656
0.490184
0.344609
0.252438
0.482934
0.45768
0.364333
0.369209
0.431331
0.51193
0.397995
0.377998
0.25146
0.474254
0.386664
0.529548
0.235218
0.369566
0.502661
0.443822
0.531825
0.449407
0.348699
0.217604
0.251462
0.367054
0.275863
0.524569
0.242383
0.336954
0.364945
0.318207
0.46957
0.239172
0.508345
0.443954
0.404996
0.229952
0.428323
0.315263
0.350545
0.360966
0.366071
0.333439
0.319106
0.460727
0.301879
0.549042
0.333261
0.366888
0.426557
0.451219
0.526626
0.332874
0.338745
0.312413
0.376289
0.325207
0.518895
0.314182
0.382763
0.340319
0.476797
0.305033
0.391839
0.288111
0.538752
0.242859
0.300029
0.327339
0.482813
0.255572
0.272078
0.298337
0.279716
0.512524
0.379052
0.439224
0.486147
0.429503
0.376652
0.538913
0.381235
0.456096
0.423132
0.394045
0.264391
0.400675
0.355583
0.337581
0.402703
0.297634
0.26886
0.380976
0.340617
0.305017
0.471859
0.377573
0.434773
0.355022
0.523888
0.365102
0.362162
0.424583
0.274825
0.309577
0.339652
0.39376
0.400532
0.412577
0.509028
0.449479
0.466067
0.388663
0.497423
0.527726
0.522913
0.388074
0.386297
0.409668
0.282924
0.536773
0.490475
0.477076
0.369329
0.298324
0.263181
0.409375
0.444245
0.317864
0.476766
0.49149
0.414218
0.329787
0.392974
0.339899
0.316398
0.369229
0.329815
0.401678
0.265338
0.405572
0.372717
0.352674
0.240288
0.401084
0.384061
0.433595
0.342341
0.396837
0.507662
0.518382
0.399774
0.361164
0.466823
0.383556
0.311254
0.313694
0.355699
0.276671
0.508449
0.375292
0.390153
0.444816
0.437924
0.425186
0.294173
0.546315
0.429131
0.320107
0.376111
0.375866
0.466488
0.504105
0.430683
0.410031
0.254417
0.304067
0.350568
0.411621
0.383381
0.398773
0.328521
0.515257
0.417394
0.467095
0.493951
0.394818
0.322962
0.393063
0.534641
0.308847
0.250767
0.392548
0.540804
0.334925
0.353741
0.461008
0.444879
0.480362
0.370072
0.257118
0.409325
0.283931
0.338425
0.479288
0.360728
0.286984
0.315317
0.334079
0.41752
0.345528
0.335462
0.500345
0.322394
0.539653
0.47782
0.278421
0.228859
0.378691
0.452927
0.491958
0.36522
0.350564
0.313613
0.345199
0.368196
0.542225
0.503414
0.4496
0.348648
0.261397
0.514077
0.546072
0.514775
0.467695
0.502722
0.390405
0.292164
0.239988
0.250829
0.526454
0.380726
0.2931
0.354051
0.545429
0.340553
0.329003
0.273691
0.367416
0.311746
0.547001
0.408598
0.450687
0.499983
0.490653
0.341235
0.420494
0.387015
0.444489
0.301075
0.416855
0.328598
0.518485
0.273025
0.337266
0.28368
0.350976
0.506502
0.348217
0.47723
0.496012
0.502129
0.291866
0.384413
0.351106
0.322412
0.513436
0.394284
0.398376
0.405791
0.200371
0.355594
0.519718
0.424428
0.516363
0.245205
0.302332
0.33996
0.522646
0.307874
0.371119
0.304967
0.292625
0.349997
0.52576
0.360753
0.353321
0.273493
0.544976
0.534127
0.202151
0.517204
0.344795
0.293241
0.302854
0.377532
0.280311
0.423777
0.350702
0.337703
0.353704
0.500075
0.368655
0.477147
0.360326
0.293457
0.354715
0.244416
0.263006
0.360079
0.339535
0.404748
0.303633
0.366613
0.495097
0.417312
0.338247
0.263323
0.504666
0.363474
0.371173
0.552529
0.401892
0.335798
0.323153
0.289236
0.527395
0.342066
0.367958
0.416302
0.279237
0.50788
0.275881
0.498117
0.382886
0.456557
0.307583
0.472102
0.361558
0.282165
0.309943
0.383193
0.506606
0.225292
0.326093
0.322364
0.526547
0.548089
0.308573
0.331144
0.42121
0.531481
0.365382
0.511392
0.489653
0.475575
0.458936
0.395539
0.437198
0.425993
0.515086
0.37218
0.392156
0.310399
0.33213
0.373006
0.306069
0.528374
0.288042
0.510948
0.36998
0.522813
0.332308
0.532722
0.453867
0.497685
0.523959
0.507758
0.551596
0.347832
0.49601
0.381429
0.341685
0.32946
0.302826
0.516312
0.289252
0.404807
0.417181
0.356383
0.418706
0.325422
0.518567
0.377408
0.466423
0.241892
0.317718
0.346985
0.547903
0.313658
0.428869
0.336952
0.34801
0.287008
0.357777
0.34491
0.470562
0.519308
0.271641
0.400115
0.342105
0.336
0.482058
0.315188
0.330389
0.531126
0.250886
0.399148
0.444858
0.505526
0.536823
0.334589
0.324575
0.282488
0.346406
0.322321
0.341397
0.463166
0.339691
0.290562
0.353709
0.385278
0.342439
0.327673
0.322326
0.383081
0.279482
0.463903
0.455315
0.337999
0.465595
0.272229
0.273881
0.307878
0.261871
0.530901
0.347314
0.340869
0.328116
0.492053
0.514075
0.390977
0.463169
0.327486
0.320128
0.38869
0.343149
0.324276
0.515077
0.408138
0.435741
0.535207
0.47075
0.377582
0.524577
0.26718
0.393515
0.389481
0.413937
0.346798
0.52507
0.33675
0.408443
0.37404
0.342002
0.308161
0.328274
0.453821
0.483743
0.498182
0.391068
0.400326
0.525544
0.475344
0.359769
0.403588
0.291889
0.343565
0.475253
0.272386
0.493716
0.336955
0.501677
0.550231
0.517689
0.328209
0.498125
0.491124
0.251661
0.526011
0.318726
0.521165
0.471754
0.340465
0.305525
0.410108
0.347991
0.336862
0.323553
0.477578
0.339522
0.52753
0.298039
0.336262
0.31987
0.296775
0.340751
0.48451
0.54124
0.294718
0.466563
0.382771
0.408558
0.36511
0.420199
0.509964
0.474641
0.336586
0.504217
0.480714
0.536934
0.298414
0.310393
0.327602
0.461961
0.533079
0.486115
0.36832
0.532883
0.379831
0.269597
0.303742
0.225773
0.37653
0.284299
0.537914
0.540024
0.398465
0.553356
0.476287
0.384825
0.529713
0.287635
0.523966
0.341446
0.51435
0.350041
0.302456
0.459004
0.398366
0.521401
0.509888
0.513079
0.311507
0.308688
0.255847
0.49737
0.473627
0.309981
0.389394
0.475305
0.250462
0.329824
0.311115
0.331995
0.409991
0.330617
0.389365
0.456894
0.386238
0.397554
0.455824
0.344827
0.355791
0.408105
0.388245
0.346922
0.497209
0.52205
0.309265
0.471215
0.247004
0.32656
0.502679
0.466087
0.325047
0.516876
0.288912
0.454987
0.363241
0.364155
0.501862
0.351899
0.463541
0.462491
0.438499
0.545001
0.441541
0.281614
0.422288
0.371173
0.463553
0.541049
0.437029
0.380388
0.324178
0.365252
0.503158
0.29925
0.491124
0.315714
0.413405
0.471127
0.456803
0.376211
0.501257
0.53237
0.353448
0.345782
0.395295
0.310615
0.287372
0.391512
0.461715
0.316388
0.278017
0.312538
0.273902
0.451318
0.37809
0.466058
0.33435
0.514865
0.388422
0.491537
0.540632
0.320497
0.508362
0.353914
0.395489
0.390288
0.499766
0.327413
0.361459
0.393734
0.303422
0.347827
0.304148
0.284082
0.24679
0.532985
0.543872
0.31641
0.331684
0.460221
0.264745
0.311922
0.341616
0.44435
0.454314
0.261706
0.246132
0.509929
0.332486
0.414803
0.331264
0.276984
0.303221
0.402743
0.491186
0.41561
0.271777
0.516445
0.489962
0.315549
0.410776
0.337947
0.53951
0.347797
0.367692
0.287438
0.431276
0.523179
0.416597
0.396438
0.32403
0.377683
0.419712
0.530563
0.554137
0.327295
0.534009
0.32947
0.397959
0.400882
0.359817
0.339788
0.498865
0.345792
0.403664
0.31155
0.299145
0.357403
0.305505
0.441717
0.515068
0.312634
0.329742
0.39632
0.341335
0.317053
0.23888
0.346003
0.501469
0.239877
0.317167
0.457734
0.394036
0.370798
0.428566
0.486176
0.293469
0.297606
0.485205
0.363221
0.30288
0.383883
0.498598
0.430952
0.397486
0.327682
0.328083
0.323226
0.531378
0.485787
0.540779
0.367353
0.440591
0.295612
0.383091
0.492444
0.26935
0.277319
0.455277
0.488086
0.26956
0.337552
0.325301
0.29177
0.325426
0.552976
0.369571
0.334826
0.394807
0.324323
0.4591
0.406445
0.292813
0.339522
0.472488
0.376738
0.533384
0.2831
0.331128
0.432994
0.418925
0.357578
0.414449
0.304307
0.536464
0.520203
0.434843
0.502275
0.315056
0.497229
0.425194
0.431145
0.524656
0.264755
0.341219
0.539116
0.427195
0.260652
0.315155
0.48738
0.537472
0.379767
0.461328
0.325476
0.28354
0.313172
0.251921
0.491653
0.325619
0.381082
0.527288
0.320679
0.297387
0.323994
0.398322
0.33424
0.327207
0.326373
0.29588
0.37621
0.472812
0.523077
0.452517
0.345342
0.340467
0.254791
0.334046
0.423302
0.403881
0.443673
0.458972
0.340705
0.367261
0.483303
0.490398
0.539082
0.503072
0.527143
0.377749
0.287027
0.313146
0.296583
0.531059
0.395787
0.32854
0.52344
0.293084
0.4773
0.455419
0.340857
0.331239
0.342351
0.328282
0.488695
0.345401
0.444543
0.377424
0.521276
0.408021
0.543057
0.312432
0.376681
0.314037
0.241934
0.346297
0.469454
0.295725
0.18815
0.395969
0.521105
0.464507
0.325613
0.284415
0.316413
0.294203
0.333199
0.299076
0.358792
0.299951
0.456547
0.315878
0.334158
0.510879
0.381809
0.428688
0.481975
0.347326
0.379022
0.307314
0.472835
0.335997
0.344718
0.370935
0.306547
0.280731
0.331189
0.311266
0.464175
0.541377
0.495726
0.402131
0.449693
0.273298
0.534154
0.413456
0.463066
0.327846
0.45368
0.319485
0.3483
0.47587
0.522722
0.467582
0.401539
0.349332
0.543651
0.355372
0.481665
0.529289
0.437774
0.360042
0.269553
0.480578
0.409107
0.299894
0.428583
0.40458
0.519091
0.322855
0.5283
0.53999
0.35813
0.314229
0.527923
0.287219
0.302242
0.348815
0.299097
0.347694
0.308311
0.285072
0.375729
0.334944
0.314474
0.336421
0.403543
0.308876
0.319307
0.423245
0.381868
0.28543
0.514831
0.545387
0.533654
0.330859
0.276376
0.54394
0.280416
0.373028
0.317161
0.338546
0.325399
0.45498
0.34221
0.335023
0.275099
0.268373
0.300956
0.344936
0.27112
0.373666
0.394988
0.364639
0.521514
0.400071
0.439415
0.362002
0.486754
0.325516
0.343968
0.556944
0.349961
0.403586
0.284889
0.439165
0.544785
0.337064
0.423506
0.4066
0.308323
0.325126
0.318214
0.300377
0.458306
0.304266
0.364904
0.335354
0.358311
0.318473
0.319406
0.372456
0.339494
0.336283
0.54442
0.371944
0.362127
0.396363
0.521512
0.347115
0.270167
0.475849
0.28748
0.355028
0.32769
0.380714
0.322966
0.343837
0.380037
0.537726
0.493281
0.27237
0.335179
0.270453
0.32146
0.25792
0.303901
0.350294
0.311682
0.350964
0.424791
0.552078
0.343755
0.452162
0.390072
0.531016
0.339977
0.544492
0.416722
0.295368
0.42464
0.459374
0.335549
0.493989
0.328283
0.499237
0.327919
0.194082
0.369374
0.550325
0.5408
0.456919
0.430363
0.449716
0.277844
0.319538
0.451078
0.542249
0.212128
0.381671
0.327982
0.326099
0.36372
0.315631
0.292649
0.326457
0.303924
0.335382
0.33608
0.366451
0.543437
0.489202
0.259243
0.472984
0.311171
0.317636
0.478557
0.329197
0.353869
0.441846
0.229855
0.315119
0.378934
0.495165
0.296984
0.321739
0.351523
0.421171
0.29551
0.520365
0.271515
0.34254
0.350341
0.323811
0.432141
0.423936
0.522889
0.325012
0.467343
0.392849
0.418805
0.327771
0.432415
0.30903
0.28755
0.24919
0.412871
0.364121
0.350425
0.508062
0.380102
0.400518
0.431633
0.318508
0.304122
0.344549
0.41463
0.334902
0.550332
0.287245
0.271119
0.346235
0.3357
0.333536
0.32068
0.454866
0.346642
0.370986
0.298826
0.33059
0.365234
0.283635
0.547354
0.536637
0.302401
0.317213
0.491542
0.393384
0.32296
0.283345
0.31762
0.301385
0.392429
0.51216
0.324331
0.279399
0.423716
0.374244
0.27221
0.298973
0.374251
0.447089
0.552742
0.292887
0.265657
0.404376
0.491435
0.345645
0.402627
0.346733
0.328756
0.345155
0.420073
0.359648
0.329943
0.471293
0.349179
0.247147
0.390126
0.333797
0.476889
0.543839
0.337388
0.340254
0.338566
0.341878
0.293694
0.344173
0.30309
0.524041
0.481822
0.44494
0.349681
0.280256
0.468203
0.533982
0.319158
0.386889
0.327863
0.247749
0.375588
0.337668
0.242765
0.306902
0.429439
0.294828
0.272803
0.300029
0.481737
0.288511
0.475376
0.372715
0.325344
0.334612
0.313944
0.476695
0.256078
0.346663
0.354634
0.28771
0.402583
0.451796
0.404126
0.365242
0.460746
0.29831
0.301078
0.510704
0.326229
0.507027
0.406252
0.34194
0.408206
0.4959
0.374242
0.268928
0.519768
0.321341
0.350465
0.497171
0.316911
0.528636
0.323841
0.351197
0.246028
0.355209
0.301981
0.378927
0.300518
0.24993
0.296983
0.294891
0.251715
0.51243
0.295465
0.350148
0.406205
0.378804
0.535504
0.538276
0.323189
0.377233
0.480588
0.314246
0.512914
0.260254
0.338211
0.394137
0.320265
0.483118
0.330731
0.33776
0.342409
0.324358
0.321122
0.248646
0.49879
0.137144
0.528674
0.448681
0.30056
0.272016
0.304192
0.554335
0.45459
0.427656
0.370708
0.404902
0.354248
0.497066
0.468771
0.315498
0.421336
0.532029
0.357734
0.384277
0.430211
0.265856
0.299703
0.482309
0.346881
0.368566
0.529243
0.291919
0.261981
0.32904
0.36725
0.354269
0.543333
0.321495
0.281505
0.317902
0.36624
0.322896
0.505191
0.375002
0.309251
0.324518
0.318974
0.318296
0.341949
0.420293
0.387578
0.310642
0.504914
0.337459
0.486456
0.311183
0.292933
0.35468
0.500959
0.534077
0.478152
0.368087
0.359277
0.47536
0.538466
0.289612
0.514064
0.300157
0.43667
0.417117
0.503677
0.369029
0.494213
0.520209
0.334365
0.33189
0.351103
0.384892
0.303525
0.289231
0.28791
0.453314
0.483831
0.286846
0.519344
0.372459
0.462787
0.366763
0.303866
0.481309
0.468908
0.334163
0.339375
0.301424
0.538387
0.453981
0.543323
0.284017
0.302522
0.356343
0.487772
0.425908
0.509812
0.40019
0.540366
0.325644
0.360638
0.384008
0.332398
0.4053
0.26479
0.47526
0.373621
0.392356
0.514974
0.278382
0.288767
0.260922
0.416155
0.500472
0.341161
0.432823
0.272053
0.279646
0.370344
0.333151
0.324883
0.50599
0.387905
0.315645
0.357594
0.413953
0.525228
0.4179
0.344689
0.498563
0.388292
0.528124
0.375148
0.442449
0.342974
0.284041
0.549581
0.307548
0.406241
0.398869
0.511291
0.438654
0.363198
0.330491
0.542804
0.361434
0.310311
0.457761
0.53507
0.452405
0.426027
0.279854
0.245447
0.382668
0.313316
0.348279
0.383289
0.310115
0.523288
0.537985
0.517376
0.335686
0.342479
0.324951
0.344282
0.442825
0.290123
0.440047
0.523218
0.294098
0.335522
0.325627
0.487932
0.427418
0.341514
0.31431
0.449001
0.321159
0.260905
0.294867
0.550489
0.253747
0.472696
0.426067
0.32582
0.529781
0.391331
0.554223
0.222601
0.338626
0.39639
0.517563
0.346233
0.513029
0.391644
0.252781
0.359622
0.328608
0.347815
0.246858
0.47396
0.335796
0.314506
0.265981
0.364136
0.507526
0.218541
0.338848
0.499202
0.361358
0.495214
0.256777
0.320906
0.325021
0.350909
0.308308
0.281302
0.320085
0.223763
0.343014
0.341059
0.464715
0.401522
0.501289
0.31598
0.345391
0.282785
0.391588
0.227119
0.349291
0.54439
0.370826
0.338635
0.554908
0.31099
0.398731
0.425462
0.281666
0.332649
0.371998
0.410958
0.523759
0.534247
0.535297
0.416079
0.366703
0.34033
0.303269
0.493304
0.44203
0.32625
0.337789
0.339473
0.367855
0.55418
0.353992
0.552253
0.319994
0.432709
0.304432
0.32269
0.281417
0.332474
0.508489
0.342125
0.288688
0.304348
0.547935
0.336532
0.309603
0.306282
0.321128
0.451932
0.397457
0.40603
0.362292
0.458929
0.272732