/*--------------------------------*- C++ -*----------------------------------*\
  =========                 |
  \\      /  F ield         | OpenFOAM: The Open Source CFD Toolbox
   \\    /   O peration     | Website:  https://openfoam.org
    \\  /    A nd           | Version:  6
     \\/     M anipulation  |
\*---------------------------------------------------------------------------*/
FoamFile
{
    version     2.0;
    format      ascii;
    class       volVectorField;
    location    "0";
    object      U;
}
// * * * * * * * * * * * * * * * * * * * * * * * * * * * * * * * * * * * * * //

dimensions      [0 1 -1 0 0 0 0];

internalField   nonuniform List<vector> 
13046
(
(-0.710618 0.235148 0)
(-0.817507 -0.178702 -1.10051e-20)
(-0.380213 -0.17923 -2.4639e-20)
(-0.694939 0.123569 0)
(-0.358054 -0.0798097 -2.25984e-20)
(-0.71515 -0.210975 0)
(-0.75752 0.160473 3.34857e-21)
(-0.757315 -0.250597 5.59006e-21)
(-0.321167 -0.0689934 -2.47526e-20)
(-1.63263 0.743589 9.93876e-21)
(-1.19878 -0.455626 0)
(-0.0191445 -0.0703147 1.61654e-20)
(-0.90024 0.318796 -1.07885e-20)
(-0.901556 -0.253852 -1.70457e-20)
(-0.282514 -0.151646 1.34902e-20)
(-1.53865 0.812747 -1.34995e-20)
(-0.088405 -0.134348 3.86848e-20)
(-1.259 -0.359292 7.94603e-21)
(-0.441264 0.0348052 0)
(-0.578034 -0.211228 -1.20496e-20)
(-0.691595 -0.000719155 3.44744e-20)
(-1.55961 0.804257 -5.551e-21)
(-0.0716544 -0.11956 -5.16809e-20)
(-1.24719 -0.380348 0)
(-0.62719 0.124798 1.40866e-20)
(-0.722762 -0.1558 -2.71733e-20)
(-0.407802 -0.138047 0)
(-0.912458 0.361512 -1.97417e-20)
(-0.928065 -0.246476 4.99519e-21)
(-0.286823 -0.172859 -2.34374e-20)
(-0.717571 0.264534 0)
(-0.84732 -0.158237 0)
(-0.388581 -0.207936 2.50689e-20)
(-0.581136 0.0817758 -1.63594e-20)
(-0.437584 -0.130935 8.37244e-21)
(-0.679755 -0.128486 4.74256e-20)
(-0.582622 0.0516962 -2.50226e-20)
(-0.445219 -0.101062 1.28429e-20)
(-0.646782 -0.131931 -2.44682e-20)
(-0.569094 0.247497 1.82762e-20)
(-0.54662 -0.336565 4.56915e-21)
(-0.885858 -0.0427334 -1.66949e-20)
(-0.571972 -0.0330728 1.12299e-20)
(-0.498016 -0.0531342 1.93295e-20)
(-0.55793 -0.106504 0)
(-0.60559 -0.0173019 7.13484e-21)
(-0.465477 -0.0303617 -2.96038e-20)
(-0.56717 -0.138186 -3.65666e-21)
(-0.742731 0.23309 0)
(-0.81894 -0.204689 -7.8644e-22)
(-0.341498 -0.155303 -9.78846e-24)
(-0.708175 -0.480301 2.77448e-20)
(-0.466591 0.262618 0)
(-1.02706 0.0687904 -2.02015e-20)
(-0.762263 -0.512187 -3.95037e-20)
(-1.07482 0.105672 -3.25444e-20)
(-0.410921 0.233896 2.83139e-20)
(-1.19831 -0.200631 -3.7598e-21)
(-1.22924 0.733652 0)
(-0.306969 -0.309954 2.11984e-20)
(-1.19357 0.374711 -1.0185e-20)
(-0.981111 -0.430072 9.92328e-21)
(-0.152588 -0.032808 -5.71905e-20)
(-0.0721097 -0.101535 2.96977e-20)
(-1.17863 -0.425624 -5.99879e-21)
(-1.52665 0.665532 -1.63436e-20)
(-1.15431 0.713228 0)
(-1.17902 -0.1595 0)
(-0.360446 -0.356517 0)
(-1.09103 0.669627 -8.0249e-21)
(-1.15302 -0.147704 0)
(-0.380975 -0.363775 1.68353e-20)
(-1.22755 -0.205959 0)
(-1.28734 0.772017 2.40372e-22)
(-0.284515 -0.305987 -8.2487e-24)
(-0.453264 0.0669817 0)
(-0.566395 -0.233516 1.30439e-20)
(-0.725996 -0.0195716 -2.45438e-20)
(-0.215551 -0.246027 2.35038e-20)
(-1.37688 0.800778 -2.41624e-20)
(-1.24465 -0.258281 0)
(-0.669308 0.145072 7.42454e-21)
(-0.737209 -0.180345 0)
(-0.376096 -0.117557 0)
(-0.0612389 -0.0992256 -2.66409e-20)
(-1.19333 -0.430344 -4.57082e-21)
(-1.56725 0.696121 9.69484e-21)
(-1.58338 0.555329 -1.68981e-20)
(-0.0419347 -0.0396301 0)
(-1.11789 -0.522787 -4.66802e-21)
(-0.0507569 0.0216198 0)
(-1.67891 0.463433 0)
(-1.06496 -0.626631 6.15545e-22)
(-1.2227 0.524137 0)
(-1.29351 0.545002 9.40414e-21)
(-1.07589 -0.338196 1.91368e-20)
(-1.09603 -0.371376 -8.96398e-21)
(-0.179735 -0.147182 -1.2247e-20)
(-0.147812 -0.125122 3.14303e-20)
(-0.0477195 -0.024946 -1.50872e-21)
(-1.57039 0.524371 1.65385e-20)
(-1.09627 -0.543772 0)
(-0.629529 0.0191893 -1.35775e-23)
(-0.431573 -0.0370594 1.56331e-20)
(-0.603646 -0.167555 0)
(-0.32961 0.141102 0)
(-0.98918 0.129275 -1.016e-20)
(-0.762793 -0.437225 0)
(-0.469076 0.23243 3.14653e-20)
(-0.66026 -0.415606 0)
(-0.948371 0.0345109 -3.83863e-20)
(-1.56882 0.745765 0)
(0.00384504 -0.0397395 0)
(-1.12163 -0.469694 -5.8531e-21)
(-0.828336 0.276062 2.97441e-20)
(-0.863778 -0.234043 7.26169e-21)
(-0.302326 -0.142755 2.46569e-20)
(-1.30461 0.626618 1.20253e-20)
(-1.2336 0.571566 -2.26764e-20)
(-1.14187 -0.319983 -1.6186e-20)
(-0.181206 -0.177717 1.40288e-20)
(-1.10165 -0.31154 9.73881e-21)
(-0.19589 -0.174752 -1.31068e-20)
(-1.62379 0.76225 -7.7556e-21)
(-1.19877 -0.452479 -8.64774e-21)
(-0.0155476 -0.0670373 -7.23289e-21)
(-1.07692 0.45764 0)
(-1.01425 -0.292491 -1.29298e-20)
(-0.232127 -0.172639 2.86673e-20)
(-0.628525 0.278999 0)
(-0.502975 -0.316564 -2.26918e-20)
(-0.892705 -0.0745335 9.60592e-22)
(-0.0703854 0.0341029 0)
(-1.62309 0.434464 0)
(-1.05358 -0.618104 0)
(-1.42019 0.568745 0)
(-1.12054 -0.430777 -2.4495e-20)
(-0.0965564 -0.0887978 -3.37591e-20)
(-0.779262 0.302017 0)
(-0.884285 -0.176661 0)
(-0.366938 -0.219416 0)
(-0.939832 0.220051 0)
(-0.833615 -0.359421 0)
(-0.247766 -0.0118032 0)
(-0.43641 0.220949 0)
(-0.702005 -0.441738 0)
(-0.978639 0.0645551 2.06965e-20)
(-0.33772 0.121876 -3.25885e-21)
(-0.953764 0.120432 -2.18729e-20)
(-0.752097 -0.414978 2.43703e-20)
(-1.24739 0.410094 2.3807e-20)
(-1.01251 -0.433885 0)
(-0.134313 -0.0522742 7.43468e-20)
(-0.326947 0.0464991 0)
(-0.847586 0.114084 2.36759e-20)
(-0.72201 -0.335235 -6.19645e-21)
(-0.859508 -0.538727 0)
(-1.16539 0.197082 2.32725e-20)
(-0.904111 -0.546764 0)
(-1.22151 0.245563 1.34677e-20)
(-0.287801 0.158203 0)
(-0.232367 0.118356 0)
(-0.976645 0.18838 3.015e-21)
(-0.814911 -0.403283 1.27798e-20)
(-0.257442 0.0403164 -1.42203e-20)
(-1.66248 0.719232 -1.01569e-20)
(-0.0129694 -0.0629228 0)
(-1.1739 -0.48052 -1.09827e-20)
(-1.59459 0.754847 -6.70135e-21)
(-0.00256176 -0.0495663 -3.30994e-21)
(-1.16107 -0.459766 0)
(-1.44603 0.602811 -1.36777e-20)
(-1.14068 -0.424206 0)
(-0.0925104 -0.0992295 3.83759e-20)
(-0.733519 0.393605 0)
(-0.985549 -0.0766127 5.28041e-21)
(-0.504025 -0.373311 1.32134e-20)
(-0.940029 0.161175 1.98551e-20)
(-0.287154 0.0661876 6.84047e-21)
(-0.782049 -0.388293 0)
(-0.00711693 -0.0511438 0)
(-1.14978 -0.519084 0)
(-1.687 0.656531 8.42184e-21)
(-0.673885 0.34769 0)
(-0.952786 -0.061019 -1.1452e-20)
(-0.522826 -0.360318 3.4389e-21)
(-0.317044 0.0671856 0)
(-0.872199 0.116474 0)
(-0.726377 -0.354719 0)
(-0.884756 0.185423 9.92595e-21)
(-0.801045 -0.336919 0)
(-0.266226 -0.0169352 0)
(-0.935214 -0.303794 -6.18877e-23)
(-0.236544 -0.123185 -1.66871e-20)
(-1.02251 0.41339 3.12565e-20)
(-0.982445 -0.281537 0)
(-0.244413 -0.162466 -3.59213e-20)
(-1.60469 0.634177 -1.71366e-20)
(-0.0376094 -0.0651102 2.4174e-20)
(-1.15801 -0.4878 -2.22739e-20)
(-0.066198 0.0123575 2.22007e-20)
(-1.56687 0.457351 1.03106e-20)
(-1.06621 -0.583129 2.33585e-20)
(-1.66263 0.517852 -2.80928e-20)
(-1.0958 -0.575807 0)
(-0.0306211 -0.0098641 -2.18208e-20)
(-0.723899 -0.539019 -1.42492e-21)
(-1.10179 0.068947 9.04869e-21)
(-0.533807 0.349791 0)
(-0.871889 0.241918 -4.52286e-20)
(-1.35425 0.814916 1.24399e-20)
(-0.238563 -0.265953 -1.44356e-20)
(-1.25288 -0.246304 0)
(-1.10584 -0.573115 0)
(-1.69329 0.56141 -2.46655e-20)
(-0.0171534 -0.0221414 0)
(-0.623408 0.0548931 -3.61766e-20)
(-0.415159 -0.0680409 -1.26139e-20)
(-0.642554 -0.167018 3.59333e-20)
(-0.875519 0.363135 0)
(-0.926745 -0.221559 -7.19987e-22)
(-0.32341 -0.197333 -1.36761e-20)
(-0.0748965 0.0287428 1.70572e-20)
(-1.57635 0.439902 0)
(-1.05225 -0.603934 -2.69258e-20)
(-0.929173 0.279893 3.62899e-20)
(-0.915084 -0.317026 3.07801e-20)
(-0.233523 -0.103593 0)
(0.00326931 -0.0492435 0)
(-1.13667 -0.496508 9.17416e-21)
(-1.66551 0.721132 0)
(-0.47187 0.305334 0)
(-1.12329 0.0939641 0)
(-0.759627 -0.556092 0)
(-1.6108 0.502182 2.46221e-20)
(-1.08931 -0.564742 0)
(-0.0427948 -0.0107773 -6.56817e-23)
(-1.09289 0.216991 8.80025e-21)
(-0.859714 -0.474878 -9.74349e-21)
(-0.234949 0.079978 0)
(-1.07261 0.483724 0)
(-1.02644 -0.273569 1.20909e-20)
(-0.251085 -0.192457 2.25089e-20)
(-0.996751 -0.636092 -3.40931e-20)
(-1.48278 0.329322 -1.85185e-20)
(-0.160011 0.104868 1.34936e-20)
(-1.29444 0.263742 0)
(-0.932068 -0.5772 -1.36378e-20)
(-0.220423 0.122855 -4.88256e-22)
(0.00946516 -0.0437156 -2.13357e-20)
(-1.10964 -0.509571 0)
(-1.67951 0.701038 -7.13986e-21)
(-0.568693 0.303976 1.68777e-20)
(-0.610011 -0.413631 -1.63692e-20)
(-0.967201 -0.00701194 1.6782e-21)
(-1.4641 0.791094 6.7578e-21)
(-0.00654209 -0.0413055 -3.10654e-20)
(-1.15952 -0.405144 0)
(-0.40799 0.00149729 -7.40568e-21)
(-0.684365 0.0274092 -2.78833e-20)
(-0.612349 -0.213193 3.58466e-20)
(-1.10273 0.272522 1.06204e-20)
(-1.06163 0.225097 1.01728e-22)
(-0.898955 -0.440872 -2.34999e-20)
(-0.856918 -0.449075 0)
(-0.230023 0.0548389 1.29284e-20)
(-0.19345 0.0193969 -1.33529e-20)
(-0.182783 -0.219857 -3.07656e-20)
(-1.42147 0.814079 1.29049e-20)
(-1.26303 -0.273057 -1.98271e-20)
(-1.00844 0.462481 0)
(-1.00924 -0.238582 0)
(-0.293174 -0.21713 -2.96307e-20)
(-1.36444 0.308662 -4.89034e-21)
(-0.966224 -0.593218 0)
(-0.180711 0.0982868 0)
(-1.36998 0.604513 -1.15087e-20)
(-1.13496 -0.372344 0)
(-0.133103 -0.133793 1.39491e-20)
(-0.543104 -0.0175067 7.55388e-21)
(-0.580473 -0.0865735 1.09805e-20)
(-0.505531 -0.081458 -3.7818e-21)
(-1.19229 0.260846 -1.71574e-20)
(-0.910239 -0.515281 0)
(-0.205744 0.0817524 -2.24655e-20)
(-1.02224 0.494249 0)
(-1.0324 -0.22817 1.50702e-20)
(-0.301784 -0.237704 -1.90251e-20)
(-0.958902 0.320407 0)
(-1.02574 0.359112 3.64815e-21)
(-0.5829 0.326353 6.12597e-21)
(-0.618752 -0.435575 4.76348e-20)
(-0.992328 0.00141345 -4.01447e-20)
(-1.24447 0.303624 -1.76785e-20)
(-0.944053 -0.518027 2.01827e-20)
(-0.167841 0.0518331 2.05051e-20)
(-1.41857 0.618643 0)
(-0.110702 -0.118493 -4.92166e-20)
(-1.14932 -0.394327 -1.20529e-20)
(-0.472834 0.209473 -4.34732e-20)
(-0.637333 -0.393495 0)
(-0.918755 0.0290979 1.2962e-20)
(-0.311884 0.19064 -2.64444e-20)
(-1.18836 0.188287 -1.3316e-20)
(-0.856704 -0.56683 0)
(-1.20362 0.614549 -1.16572e-20)
(-1.12527 -0.256463 -1.30898e-20)
(-0.247485 -0.231141 8.69017e-21)
(-0.521797 0.30418 2.21071e-21)
(-0.681189 -0.476802 0)
(-1.02882 0.0497109 2.79019e-20)
(-1.26397 0.655044 0)
(-1.30904 0.664581 0)
(-1.15544 -0.272082 -8.37068e-21)
(-0.227504 -0.223464 -2.2626e-20)
(-1.16326 -0.302703 1.18448e-20)
(-0.19643 -0.196878 2.40129e-20)
(-0.019284 -0.0610805 -1.87005e-20)
(-1.16236 -0.498254 0)
(-1.66028 0.673599 -1.20151e-20)
(-1.16619 0.546513 1.34513e-20)
(-1.0769 -0.287629 0)
(-0.227052 -0.193535 7.73207e-21)
(-1.02442 -0.45723 1.63168e-20)
(0.00729627 -0.0226101 2.72215e-20)
(-1.42871 0.728345 1.40088e-20)
(-0.782049 0.0660194 -1.28135e-20)
(-0.367256 0.0467891 0)
(-0.665899 -0.291218 0)
(-1.11343 0.341923 2.43685e-20)
(-0.949042 -0.397959 0)
(-0.174148 -0.0448099 4.37829e-20)
(-0.0550051 -0.0755781 -1.53341e-20)
(-1.55139 0.618847 3.52894e-20)
(-1.15038 -0.467363 1.69417e-20)
(-0.780019 -0.534927 0)
(-1.1073 0.114376 1.2051e-20)
(-0.405847 0.253675 -3.20819e-20)
(-1.01732 -0.627801 -4.13254e-20)
(-1.5202 0.369062 -1.13454e-20)
(-0.122894 0.0726949 0)
(-0.858583 -0.291694 -3.12006e-20)
(-0.26369 -0.0905824 0)
(-1.15659 0.417771 2.67115e-20)
(-0.99686 -0.366028 1.09718e-20)
(-0.173862 -0.100416 1.32986e-20)
(-0.845045 -0.313049 1.83249e-20)
(-0.254283 -0.0682093 5.97865e-23)
(-1.51592 0.793243 -8.4586e-22)
(-0.10683 -0.149603 1.81673e-20)
(-1.25137 -0.345693 -1.16813e-20)
(-0.706319 -0.557951 0)
(-1.1215 0.0543081 2.8637e-21)
(-0.590976 0.397526 0)
(-1.21772 0.45177 -2.72473e-20)
(-1.03299 -0.383335 -1.3379e-20)
(-0.152754 -0.0933219 -1.62254e-20)
(-0.969572 0.219932 0)
(-0.832328 -0.386875 -1.85617e-20)
(-0.241007 0.0104646 0)
(-0.995945 0.106392 0)
(-0.740115 -0.455453 0)
(-0.376947 0.176814 0)
(-0.723329 0.194482 -1.02832e-20)
(-0.78332 -0.202808 -1.73392e-20)
(-0.348578 -0.132994 -1.92933e-23)
(-0.358906 0.226394 3.27707e-20)
(-1.16102 0.156964 3.24637e-20)
(-0.82809 -0.560198 1.97261e-20)
(-1.63333 0.594397 -1.4791e-20)
(-1.13363 -0.518401 1.88854e-20)
(-0.0292098 -0.0478153 -2.28878e-20)
(-1.02744 -0.604717 2.79815e-20)
(-1.5045 0.38599 1.15042e-20)
(-0.106949 0.0530427 1.7104e-20)
(-0.956714 0.593144 -2.476e-20)
(-0.459007 -0.405928 2.52629e-20)
(-1.11539 -0.102803 -1.84834e-20)
(-1.34367 0.742137 7.00494e-21)
(-1.29196 0.707607 -6.41517e-21)
(-1.18645 -0.253586 -2.66323e-21)
(-1.21157 -0.263793 0)
(-0.217716 -0.234522 -8.29114e-21)
(-0.239405 -0.247353 -7.32131e-21)
(0.00447889 -0.0273266 -3.68495e-20)
(-1.06815 -0.441307 -1.79784e-20)
(-1.44715 0.73535 4.47088e-21)
(-1.48433 0.800433 -4.60167e-22)
(-0.0135461 -0.0513258 4.29857e-20)
(-1.18755 -0.399158 0)
(-1.16993 0.306113 -3.904e-20)
(-0.938077 -0.459708 -5.21507e-21)
(-0.175635 0.0156682 0)
(-0.0322905 -0.0694692 -4.65393e-20)
(-1.62588 0.659963 1.19642e-20)
(-1.17119 -0.481417 0)
(-1.09963 0.626568 3.50961e-20)
(-1.16244 0.650221 -2.63117e-20)
(-1.12361 -0.187382 1.41211e-20)
(-1.14067 -0.210373 5.36802e-21)
(-0.34325 -0.313042 -1.4384e-20)
(-0.304791 -0.285689 -7.23117e-21)
(0.000140922 -0.0222874 0)
(-1.08052 -0.585894 0)
(-1.75901 0.55619 4.26727e-21)
(-1.3798 0.788048 -7.92835e-21)
(-0.00462781 -0.03355 0)
(-1.13907 -0.389563 0)
(-0.659417 -0.0508016 -9.42946e-24)
(-0.488963 0.0368019 1.63208e-20)
(-0.523167 -0.168805 8.0367e-21)
(-1.49867 0.757149 -1.31336e-20)
(-1.12271 -0.446896 8.56339e-21)
(0.00208398 -0.0357514 2.01455e-21)
(-0.820709 0.428011 0)
(-0.994534 -0.119191 -2.40781e-20)
(-0.443534 -0.334923 -4.95334e-23)
(-1.69089 0.640219 2.53953e-22)
(-1.13972 -0.532659 2.66015e-20)
(-0.00919887 -0.0457087 9.48403e-24)
(-0.90818 -0.479702 4.94478e-22)
(0.0115357 -0.0178612 -1.57073e-20)
(-1.40251 0.630474 -4.8615e-21)
(-0.517183 0.199629 -1.572e-20)
(-0.564271 -0.318914 1.4457e-20)
(-0.851063 -0.0255137 4.09139e-20)
(-0.716654 0.064019 0)
(-0.659478 -0.239058 -3.96493e-20)
(-0.374203 -0.006636 2.08804e-20)
(-1.60009 0.78822 0)
(-0.02283 -0.072772 2.15641e-20)
(-1.21218 -0.435206 -3.49542e-23)
(-0.752758 0.0832128 0)
(-0.678615 -0.263464 -1.38415e-20)
(-0.351985 0.0122078 -2.95139e-20)
(-0.62974 -0.0512683 1.65254e-20)
(-0.494138 0.0109798 -8.68012e-21)
(-0.525689 -0.143929 4.24215e-21)
(-0.446289 0.304222 1.58834e-20)
(-1.17924 0.122626 -1.14304e-20)
(-0.802267 -0.595238 2.18024e-20)
(-0.749896 0.00289694 0)
(-0.592587 -0.254856 0)
(-0.42784 0.0852369 2.45926e-21)
(-0.78246 0.0468401 2.02833e-20)
(-0.63965 -0.282437 1.07012e-20)
(-0.398583 0.0752522 3.49014e-22)
(-0.891757 0.556352 3.759e-20)
(-1.09773 -0.08112 -1.84776e-20)
(-0.500409 -0.434346 -2.50039e-20)
(-0.0466187 -0.0932554 3.25501e-20)
(-0.0358366 -0.0846182 -3.31218e-20)
(-1.22322 -0.425643 7.79166e-21)
(-1.20899 -0.443399 5.44182e-21)
(-1.59728 0.76678 0)
(-1.61681 0.753996 -1.01777e-20)
(-1.66788 0.597677 1.83156e-20)
(-1.13218 -0.530089 -1.66693e-20)
(-0.0193297 -0.0406394 2.83599e-20)
(-0.442018 -0.414093 -1.62054e-20)
(-1.01759 0.650779 7.72998e-21)
(-1.14686 -0.110262 2.35535e-20)
(-0.604048 0.305908 -1.54093e-20)
(-0.566601 -0.380424 -1.50202e-20)
(-0.944942 -0.0326947 1.2737e-20)
(-1.31244 0.23778 0)
(-0.919326 -0.609439 1.41132e-20)
(-0.261041 0.165394 5.05166e-22)
(-0.966479 -0.524034 8.64539e-21)
(0.0191475 -0.0287776 -1.46915e-20)
(-1.61282 0.626155 -5.05151e-21)
(-0.0340448 0.00546207 0)
(-1.69552 0.495913 0)
(-1.07572 -0.614181 1.132e-20)
(-1.6255 0.743476 8.11888e-21)
(-0.00229343 -0.0532749 0)
(-1.16447 -0.473354 -9.00305e-21)
(0.00893195 -0.0126326 -5.8193e-32)
(-0.865172 -0.459935 -7.31762e-21)
(-1.31631 0.619093 4.49016e-21)
(-0.918815 -0.401427 8.18908e-21)
(0.00580274 -0.0105038 5.80553e-32)
(-1.2495 0.695346 -4.00608e-21)
(-1.01308 -0.49926 -2.74003e-20)
(-1.32919 0.392676 0)
(-0.122131 -0.00233321 -4.36304e-20)
(-1.04495 -0.565094 -4.79585e-21)
(0.016242 -0.0318329 -1.5066e-20)
(-1.76543 0.594117 0)
(-1.45793 0.562076 -1.72647e-20)
(-1.11622 -0.457535 1.51569e-20)
(-0.0817281 -0.0733907 2.25728e-20)
(-1.52449 0.854631 2.67642e-20)
(-0.0752771 -0.123878 1.30803e-20)
(-1.28427 -0.338986 0)
(-0.829201 0.244749 7.89992e-21)
(-0.289576 -0.106774 -8.36803e-21)
(-0.842052 -0.263807 7.51801e-21)
(-1.08202 -0.596366 5.7941e-21)
(-0.00850032 -0.0146418 1.59698e-20)
(-1.74326 0.538703 4.98351e-21)
(-1.26801 0.212376 -1.31569e-20)
(-0.297345 0.193404 -8.99981e-21)
(-0.893288 -0.601228 0)
(-0.982106 -0.57918 0)
(-1.37191 0.333617 0)
(-0.150613 0.0723228 0)
(0.00240116 -3.81475e-05 0)
(-0.55291 -0.267055 -5.67522e-21)
(-0.79236 0.410037 1.80141e-21)
(-1.00723 -0.481708 8.30846e-21)
(0.0103251 -0.0236782 -1.8977e-20)
(-1.46869 0.70671 -6.29321e-21)
(-0.771305 0.202025 -2.04616e-20)
(-0.314609 -0.103793 1.97601e-20)
(-0.798636 -0.242881 8.83739e-21)
(-1.10478 -0.555495 2.31641e-20)
(-1.73904 0.607776 -8.96723e-21)
(0.00234268 -0.0343225 0)
(0.00550272 -0.0218524 -1.66935e-20)
(-1.78068 0.558464 0)
(-1.05876 -0.592211 -1.73195e-20)
(-1.6019 0.692758 -1.10205e-20)
(-0.0442971 -0.0837346 4.9762e-20)
(-1.18787 -0.452067 0)
(-0.148256 -0.182101 -3.72458e-20)
(-1.24314 -0.314416 1.26743e-20)
(-1.45383 0.782397 0)
(-0.856838 0.565034 -4.72758e-20)
(-1.11299 -0.0585439 2.35267e-20)
(-0.545987 -0.474477 -7.9124e-21)
(-1.17845 -0.226183 3.99993e-21)
(-1.23454 0.707964 1.52162e-20)
(-0.283541 -0.283929 -2.26505e-20)
(-0.135275 -0.181669 -3.33852e-20)
(-1.48009 0.839573 0)
(-1.28136 -0.304286 0)
(-0.875811 0.420574 -7.47341e-21)
(-0.950149 0.469456 0)
(-0.977307 -0.169229 -2.5006e-20)
(-1.01677 -0.189147 2.67642e-20)
(-0.377432 -0.270126 3.87674e-21)
(-0.348554 -0.268712 -4.12818e-21)
(-0.815302 0.402485 7.16781e-21)
(-0.968714 -0.137602 0)
(-0.421293 -0.301246 7.38143e-21)
(-1.07869 0.644107 0)
(-1.13289 -0.168266 -2.28378e-20)
(-0.370508 -0.342206 5.17997e-21)
(-1.01409 -0.586743 -1.40052e-20)
(-1.45435 0.371395 1.20688e-20)
(-0.117452 0.0498533 -3.5059e-20)
(-1.1165 -0.56104 0)
(-1.68631 0.586044 2.70691e-20)
(-0.0129447 -0.0310202 0)
(-0.0826833 0.0114224 -1.12678e-20)
(-1.49732 0.434415 -7.57505e-21)
(-1.05213 -0.563718 -9.1098e-21)
(-0.973862 -0.402557 -1.1195e-21)
(0.00474451 -0.0142232 1.01145e-20)
(-1.29823 0.718143 0)
(-0.615388 0.236551 1.42227e-20)
(-0.63219 0.225016 0)
(-0.47538 -0.26545 0)
(-0.843228 -0.0919428 4.96087e-20)
(-0.448452 -0.237186 0)
(-0.824979 -0.117013 -3.15755e-20)
(-0.963247 0.561694 0)
(-0.878592 0.503939 0)
(-0.451815 -0.366963 -2.01647e-23)
(-1.08337 -0.137077 1.4479e-20)
(-0.417889 -0.353114 3.77953e-20)
(-1.04938 -0.115159 -3.07218e-20)
(-0.877467 -0.498324 0)
(0.0145459 -0.0206427 2.14599e-20)
(-1.46651 0.615662 0)
(-1.11407 -0.548933 -1.3893e-20)
(-1.7223 0.610337 2.90118e-21)
(-0.00280184 -0.0382669 1.00288e-20)
(-0.645683 0.368358 -2.65873e-20)
(-0.598995 -0.442853 -1.71487e-20)
(-1.0116 -0.0156974 4.15485e-20)
(-0.973104 -0.621627 3.04052e-20)
(-1.41612 0.301326 3.1139e-20)
(-0.186122 0.119311 0)
(-0.169332 -0.200996 3.98438e-20)
(-1.23773 -0.299767 -1.34784e-20)
(-1.42434 0.77699 1.63149e-20)
(-1.07641 -0.495937 0)
(-1.60715 0.708741 0)
(0.011147 -0.0349693 0)
(-1.08151 -0.509785 0)
(-1.64446 0.690288 7.01128e-21)
(0.0133309 -0.0372807 3.62334e-21)
(-1.15747 0.621716 -1.46048e-20)
(-1.1208 -0.232193 8.1081e-21)
(-0.284676 -0.260436 1.07004e-20)
(-0.44047 0.178181 -4.11834e-21)
(-0.650505 -0.377329 0)
(-0.89573 0.0450724 -1.26776e-22)
(-1.62178 0.717063 1.28405e-20)
(-0.0363194 -0.0805664 2.89521e-20)
(-1.1989 -0.452888 -6.33659e-21)
(-1.02196 -0.527264 0)
(-1.37887 0.4015 0)
(-0.110697 0.0125441 3.7652e-20)
(-0.099605 -0.121517 9.40856e-21)
(-1.17696 -0.397399 2.05895e-20)
(-1.47181 0.672782 3.5974e-20)
(-0.831882 0.48518 0)
(-0.488349 -0.392704 -2.51894e-20)
(-1.04302 -0.0940897 1.57439e-20)
(-1.06333 0.183539 2.07683e-22)
(-0.822977 -0.469614 1.429e-20)
(-0.281122 0.113395 0)
(-0.553282 0.255067 1.91725e-22)
(-0.577001 -0.365363 -4.94106e-21)
(-0.911698 -0.0228664 -1.66856e-20)
(-0.0216422 -0.0669131 2.17572e-23)
(-1.17983 -0.480995 1.47628e-20)
(-1.65229 0.701275 1.36585e-20)
(-1.36548 0.642978 -6.72508e-21)
(-1.15707 -0.348834 -6.21252e-21)
(-0.150612 -0.155725 0)
(-0.534039 0.190963 -1.54217e-20)
(-0.532813 -0.286813 3.13669e-20)
(-0.826262 -0.0483597 -2.69905e-20)
(-1.49683 0.858718 1.07914e-20)
(-0.115613 -0.165302 1.48279e-20)
(-1.29197 -0.311987 -9.08014e-21)
(-0.772023 0.329157 -9.04612e-21)
(-0.904203 -0.160296 0)
(-0.391465 -0.247354 0)
(-0.848935 0.151791 -3.66752e-20)
(-0.755503 -0.324381 8.54843e-21)
(-0.295671 0.0100584 0)
(-0.979275 -0.543792 0)
(-1.32258 0.330032 2.5299e-20)
(-0.147548 0.0544925 0)
(-1.51264 0.827962 -5.42075e-21)
(-0.0315216 -0.0755696 -4.5994e-21)
(-1.24213 -0.380954 9.59231e-21)
(-1.50403 0.844302 1.5093e-20)
(-0.0437832 -0.0890375 0)
(-1.26145 -0.360158 -9.47243e-21)
(-0.109766 -0.135857 8.54489e-21)
(-1.19381 -0.377775 -1.21003e-20)
(-1.47046 0.697042 -3.31232e-20)
(-1.09605 0.168858 -1.16986e-20)
(-0.827684 -0.507041 -1.43599e-20)
(-0.308376 0.149429 0)
(-0.0216267 -0.0596806 4.21249e-21)
(-1.21781 -0.381903 -8.96585e-21)
(-1.45365 0.81659 0)
(-0.0627103 -0.0664461 0)
(-1.1304 -0.474916 -1.2418e-20)
(-1.52118 0.582812 -4.0889e-21)
(0.00733695 -0.00920823 1.71233e-20)
(-0.74558 -0.440074 8.29407e-21)
(-1.20511 0.539869 0)
(-1.07604 0.664813 -4.85831e-21)
(-0.841174 -0.3439 0)
(0.00431067 -0.00444277 1.7115e-20)
(-0.130704 -0.171983 -2.00244e-23)
(-1.26391 -0.321253 0)
(-1.48258 0.817424 0)
(-0.00218554 -0.0539364 0)
(-1.15408 -0.499064 0)
(-1.6823 0.705081 1.72956e-20)
(-1.57382 0.758732 -1.15003e-20)
(-1.54996 0.736513 9.3024e-21)
(-0.0652804 -0.111179 -1.63349e-20)
(-1.23167 -0.399054 -2.58096e-21)
(-0.0737201 -0.115551 -2.65104e-20)
(-1.21641 -0.400636 4.7568e-21)
(-1.52541 0.5536 7.91969e-21)
(-1.11428 -0.497131 8.25862e-21)
(-0.0585557 -0.0515252 0)
(-0.239571 0.165335 0)
(-0.941441 -0.636108 0)
(-1.37876 0.261339 0)
(-0.62422 0.176433 0)
(-0.426002 -0.189353 -4.33562e-20)
(-0.774394 -0.134312 1.7336e-20)
(-1.48349 0.477135 2.27534e-20)
(-1.07307 -0.528665 3.09559e-21)
(-0.071192 -0.0184879 3.31425e-20)
(-0.0850081 -0.0011507 2.16367e-20)
(-1.46302 0.448799 -3.16808e-20)
(-1.05337 -0.541036 -4.29196e-21)
(-1.44741 0.849761 1.27318e-20)
(-0.166363 -0.211556 1.59667e-20)
(-1.28457 -0.275697 2.06942e-20)
(-0.990691 0.591336 0)
(-1.10659 -0.136235 6.80406e-21)
(-0.416095 -0.366127 -3.70495e-20)
(-0.879789 0.472485 0)
(-1.02355 -0.130309 3.16198e-20)
(-0.426819 -0.338175 -1.72053e-23)
(-1.32248 0.439421 -3.02521e-20)
(-1.03906 -0.465695 3.80909e-21)
(-0.112579 -0.0431451 -1.88711e-20)
(-1.35883 0.437301 0)
(-1.04019 -0.48745 3.58509e-21)
(-0.10486 -0.0279986 1.73909e-20)
(-0.503583 0.151564 0)
(-0.541897 -0.267042 -4.95539e-20)
(-0.7901 -0.0393795 1.51498e-20)
(-0.973351 0.500965 0)
(-1.03683 -0.185091 0)
(-0.351758 -0.286326 5.58706e-21)
(-0.0170641 -0.0024165 -3.45923e-20)
(-1.06437 -0.614115 -3.17071e-20)
(-1.74675 0.515095 0)
(-1.6785 0.664271 8.61823e-21)
(0.017268 -0.0350402 0)
(-1.03958 -0.529063 6.2833e-21)
(-1.66921 0.62919 -5.61529e-22)
(0.0195026 -0.0321645 0)
(-1.00341 -0.531271 -1.79474e-20)
(-0.685441 0.330182 1.07367e-20)
(-0.489611 -0.324241 -5.3941e-21)
(-0.926109 -0.0891447 -3.15427e-22)
(-1.02534 -0.493103 3.49432e-22)
(0.0130023 -0.0288638 2.90299e-20)
(-1.56857 0.688361 0)
(-1.42125 0.689982 2.87515e-20)
(-0.136976 -0.154516 1.79793e-20)
(-1.18626 -0.35205 0)
(0.0164178 -0.0265201 -4.31866e-21)
(-0.968621 -0.513676 -9.46119e-21)
(-1.56344 0.643214 0)
(-0.681784 0.0937035 2.51557e-20)
(-0.376178 -0.0547706 2.64733e-20)
(-0.68125 -0.205746 5.21979e-23)
(-1.06066 0.403972 -4.54995e-21)
(-0.979536 -0.31794 -4.04246e-21)
(-0.217595 -0.131075 -1.94535e-20)
(-0.784536 -0.49732 3.27334e-20)
(-1.06208 0.136471 2.75193e-20)
(-0.358524 0.1837 0)
(0.0117805 -0.0313969 0)
(-1.06484 -0.56733 -6.06556e-21)
(-1.76529 0.596692 0)
(-1.00669 -0.545465 0)
(-1.37767 0.379354 0)
(-0.120787 0.0306813 0)
(-0.0910472 -0.139978 0)
(-1.52564 0.844404 -9.6826e-21)
(-1.28278 -0.335631 8.91635e-21)
(-1.13695 0.442348 0)
(-1.00802 -0.345862 2.0248e-21)
(-0.191314 -0.121635 1.90146e-20)
(-0.603539 0.148618 0)
(-0.43265 -0.17346 3.72053e-20)
(-0.745465 -0.13095 0)
(-1.09897 -0.551939 -2.189e-20)
(-1.73578 0.632105 8.5378e-21)
(0.00866651 -0.0373506 0)
(-0.0690228 -0.0904224 -1.96918e-20)
(-1.15801 -0.446119 7.90789e-22)
(-1.51893 0.639284 5.62883e-22)
(-1.56776 0.793206 0)
(-1.55059 0.791994 9.34372e-21)
(-0.0201887 -0.0659502 -1.06199e-20)
(-0.0126265 -0.056573 -1.30494e-20)
(-1.20993 -0.417215 -5.95858e-21)
(-1.19187 -0.425641 4.90076e-21)
(-1.05506 0.27798 0)
(-0.887913 -0.413697 5.49445e-20)
(-0.203388 -0.00235137 2.08883e-20)
(-0.981703 -0.481855 3.84958e-20)
(-1.26503 0.354908 0)
(-0.139176 0.00634882 -2.30041e-20)
(-0.792918 0.161377 -2.07968e-20)
(-0.760547 -0.277323 1.45534e-20)
(-0.300004 -0.0435307 3.2287e-20)
(-1.06133 -0.543018 1.40476e-20)
(-1.72062 0.646367 9.70067e-21)
(-1.04112 -0.554484 -6.66951e-21)
(0.0168937 -0.037129 0)
(-1.73836 0.619349 -9.34492e-21)
(0.0184308 -0.0345553 0)
(-1.29276 0.520753 0)
(-1.07614 -0.392117 0)
(-0.139161 -0.107073 2.12251e-20)
(-1.72388 0.651118 1.4385e-20)
(-1.71786 0.657373 -2.66095e-20)
(-1.11178 -0.535344 9.1894e-21)
(-1.09583 -0.531594 -2.33687e-20)
(0.00946702 -0.0425226 2.93935e-20)
(0.0131213 -0.041085 -2.57602e-23)
(-1.21943 0.329063 0)
(-0.951537 -0.494082 -3.60176e-20)
(-0.1635 0.0321181 2.98002e-20)
(-0.980634 0.298391 1.96853e-20)
(-0.925393 -0.34494 -2.44893e-20)
(-0.207744 -0.0814446 0)
(-1.53669 0.842714 0)
(-0.0572721 -0.105448 0)
(-1.26978 -0.362575 9.10464e-21)
(-1.06319 0.306998 1.44631e-20)
(-0.910334 -0.395047 -1.52777e-20)
(-0.192833 -0.0273536 -3.45436e-20)
(-0.854757 0.20687 8.44754e-21)
(-0.809222 -0.305988 -1.70924e-20)
(-0.26925 -0.0518948 1.89124e-20)
(-1.54072 0.812844 0)
(-0.0303614 -0.075584 0)
(-1.2363 -0.39923 -1.25474e-20)
(-1.15584 0.476468 0)
(-1.04043 -0.325919 4.26353e-21)
(-0.192782 -0.14408 -2.10795e-20)
(-0.875149 -0.617806 0)
(-1.26268 0.191829 0)
(-0.342349 0.234768 -1.16402e-21)
(-0.832727 0.505722 -1.20901e-21)
(-1.06374 -0.0769217 0)
(-0.50902 -0.420782 3.903e-20)
(-1.03088 -0.639456 1.60961e-20)
(-0.0987055 0.0615141 0)
(-1.59328 0.398478 0)
(0.00439436 -0.00373322 -4.1162e-20)
(-0.71805 -0.350385 7.9433e-21)
(-1.03271 0.539927 -2.52032e-21)
(-1.10046 0.365296 0)
(-0.955394 -0.366988 1.50132e-20)
(-0.185284 -0.0767771 -1.75568e-20)
(-1.56757 0.80858 1.84151e-20)
(-0.0572702 -0.106019 5.51655e-20)
(-1.25271 -0.382342 0)
(-0.627522 -0.518494 -1.03211e-20)
(-1.10984 -0.00323773 -1.55844e-20)
(-0.721136 0.479178 -1.06865e-20)
(-1.24447 0.739427 0)
(0.00226747 -0.0158711 -1.53071e-20)
(-1.03047 -0.385017 0)
(-0.366558 0.104156 2.03855e-20)
(-0.378371 0.134611 -2.08642e-20)
(-0.68306 -0.35291 0)
(-0.864412 0.0771056 1.75138e-20)
(-0.697412 -0.386465 -3.13518e-20)
(-0.905874 0.0762179 -1.39895e-20)
(-0.789669 0.131841 1.95498e-20)
(-0.728774 -0.28222 1.94226e-20)
(-0.316732 -0.0106369 0)
(-0.462758 0.168936 1.80948e-20)
(-0.415086 0.129895 0)
(-0.60718 -0.334941 -1.75915e-20)
(-0.851267 0.00819813 1.55613e-20)
(-0.629716 -0.324429 1.7729e-20)
(-0.83399 0.0314283 1.0568e-22)
(-1.04288 0.33985 1.25158e-21)
(-0.886274 -0.345961 -1.07178e-20)
(-0.223421 -0.0600269 -2.32747e-20)
(-0.988081 0.281175 -3.38052e-20)
(-0.881713 -0.363095 2.84042e-22)
(-0.220144 -0.0396229 0)
(0.0207184 -0.0328355 0)
(-0.99636 -0.551088 0)
(-1.71517 0.609563 9.02571e-21)
(-0.748598 0.354496 -9.89702e-21)
(-0.933533 -0.117777 0)
(-0.444181 -0.298655 1.00233e-20)
(-1.7002 0.672507 -2.77675e-20)
(-1.14008 -0.520423 1.087e-20)
(0.00171572 -0.0491024 -1.6763e-20)
(-1.35874 0.487085 0)
(-1.41967 0.517757 1.65864e-20)
(-1.06894 -0.45095 -4.74952e-21)
(-1.09202 -0.463202 1.49235e-20)
(-0.102488 -0.061227 -2.34476e-20)
(-0.086991 -0.0610245 -2.17846e-20)
(-0.72871 0.317414 0)
(-0.901225 -0.132777 0)
(-0.428845 -0.27076 4.73157e-21)
(-1.05135 0.579557 1.17332e-20)
(-1.0906 -0.183515 0)
(-0.351443 -0.304839 1.23934e-20)
(-1.24143 0.447311 -8.68356e-21)
(-1.02888 -0.414375 0)
(-0.136105 -0.0733138 0)
(-0.530423 0.0694402 1.98534e-20)
(-0.680852 -0.0871493 -9.3537e-21)
(-0.480882 -0.161608 9.96155e-21)
(-1.43822 0.482536 0)
(-1.0716 -0.501908 0)
(-0.0815066 -0.0318946 -3.5229e-20)
(-0.586521 0.175123 0)
(-0.463752 -0.220971 5.48241e-21)
(-0.78326 -0.100868 0)
(-1.21452 0.352969 -1.93857e-20)
(-0.966943 -0.463485 -1.99915e-20)
(-0.153405 -0.00853236 -2.97446e-21)
(-1.04507 0.546831 1.18709e-20)
(-1.07006 -0.202946 0)
(-0.327698 -0.279137 2.55274e-20)
(-0.539651 0.104224 -1.96794e-20)
(-0.511774 0.103165 -8.84131e-21)
(-0.715376 -0.0928983 9.25445e-21)
(-0.477417 -0.184318 -1.97786e-20)
(-0.730656 -0.0681613 0)
(-0.50692 -0.210764 -3.50881e-20)
(-0.456973 0.117693 -8.94407e-21)
(-0.573225 -0.275679 2.31379e-20)
(-0.423795 0.112893 5.76083e-21)
(-0.780212 -0.0105985 -2.11368e-20)
(-0.621539 -0.307372 -1.10675e-20)
(-0.80986 0.0222765 3.20614e-22)
(-0.85433 0.387286 1.0729e-20)
(-0.921667 0.409081 0)
(-0.949548 -0.182913 1.86284e-20)
(-0.965897 -0.21411 -1.45615e-20)
(-0.361512 -0.244604 -2.24578e-20)
(-0.322336 -0.218461 3.73565e-20)
(-0.135064 -0.166402 0)
(-1.2244 -0.335926 -7.41153e-21)
(-1.45753 0.749394 -1.6965e-20)
(-0.381688 0.254287 1.41228e-20)
(-1.20043 0.157845 1.80427e-20)
(-0.838313 -0.593378 -3.43307e-20)
(-0.110554 -0.147956 -1.85944e-20)
(-0.0970584 -0.134016 1.49009e-20)
(-1.23093 -0.358658 6.41331e-21)
(-1.21527 -0.379204 1.10663e-20)
(-1.49772 0.764249 4.30854e-20)
(-1.51129 0.738159 -2.23797e-20)
(-0.551903 0.341223 1.95487e-20)
(-0.686477 -0.500944 -1.63458e-20)
(-1.05703 0.0430845 4.02328e-21)
(-0.541669 0.0138555 3.31627e-20)
(-0.486448 -0.105538 0)
(-0.61525 -0.0932567 -3.2565e-20)
(-1.46423 0.517769 -7.86871e-21)
(-1.09337 -0.491051 -1.68588e-20)
(-0.0742924 -0.0466254 0)
(-0.656745 0.271523 0)
(-0.463749 -0.283662 -4.50634e-21)
(-0.873829 -0.10013 -1.61142e-20)
(-1.09049 0.564445 0)
(-1.08331 -0.221285 0)
(-0.301742 -0.260601 -2.37897e-20)
(-1.38025 0.739102 -1.85942e-20)
(-1.37274 0.708278 0)
(-1.21248 -0.297663 4.01162e-21)
(-0.18609 -0.206202 -2.2724e-20)
(-1.1944 -0.309616 -1.09372e-20)
(-0.176792 -0.191641 3.07408e-20)
(-1.34799 0.527658 1.64286e-20)
(-1.09109 -0.412885 1.57666e-20)
(-0.115148 -0.0921304 1.27486e-20)
(-1.34983 0.753537 9.79023e-21)