/*--------------------------------*- C++ -*----------------------------------*\
  =========                 |
  \\      /  F ield         | OpenFOAM: The Open Source CFD Toolbox
   \\    /   O peration     | Website:  https://openfoam.org
    \\  /    A nd           | Version:  6
     \\/     M anipulation  |
\*---------------------------------------------------------------------------*/
FoamFile
{
    version     2.0;
    format      ascii;
    class       volVectorField;
    location    "0";
    object      U_rec;
}
// * * * * * * * * * * * * * * * * * * * * * * * * * * * * * * * * * * * * * //

dimensions      [0 1 -1 0 0 0 0];

internalField   nonuniform List<vector> 
918
(
(0.98329 -0.00515864 0)
(-0.0013201 2.98157 0)
(-0.014406 1.69153 0)
(0.976002 0.00746972 0)
(-0.00213506 1.65109 5.91103e-17)
(-0.00180164 2.9707 -4.70252e-17)
(0.949345 1.44612 6.93613e-20)
(0.465638 0.234713 1.46613e-19)
(0.992892 -0.000291835 0)
(0.0106229 1.46703 0)
(0.000123068 1.53903 0)
(0.881439 -0.00288631 0)
(0.00163633 2.98633 0)
(0.00502285 2.8964 0)
(0.00137497 2.89397 1.27957e-17)
(-0.00728495 1.61692 3.49932e-17)
(0.641341 0.130239 7.97925e-18)
(0.165992 1.55817 -4.1659e-17)
(0.982552 0.00612235 0)
(0.0035037 1.61038 0)
(-0.0272737 0.00269763 9.52614e-19)
(0.983734 0.00899908 0)
(1.00428 0.0112564 0)
(1.01524 7.8185e-05 0)
(0.79749 -0.00172269 0)
(0.0186391 2.93831 0)
(-0.0085177 2.94398 -8.96908e-17)
(-0.0151211 1.71913 0)
(0.00222096 1.76446 0)
(-0.00729935 1.71639 0)
(-0.0111634 1.79115 0)
(-0.0123599 1.66302 5.9129e-17)
(-0.00742744 1.62087 0)
(-0.0105009 3.01007 -6.4191e-23)
(0.00288583 3.0206 -4.38801e-17)
(0.0204128 3.00194 0)
(0.929555 -0.00381734 0)
(0.596965 1.10749 -8.99662e-18)
(0.97324 1.45122 -3.61404e-18)
(1.0888 1.28667 1.98941e-17)
(0.825889 1.57918 1.08295e-17)
(0.797454 1.55663 1.09724e-17)
(0.484454 0.306261 1.66478e-19)
(0.5174 0.226164 0)
(1.27384 0.681326 0)
(0.414812 0.318792 5.36108e-19)
(0.392446 0.220857 4.46199e-19)
(0.956842 -0.00290294 0)
(0.997379 0.00224302 0)
(0.993023 0.00370423 0)
(0.990995 0.00211375 0)
(0.982556 0.00822804 0)
(0.993875 0.013536 0)
(0.0393296 1.58808 -4.79118e-19)
(0.00715508 1.52478 0)
(0.0191192 1.43396 0)
(-0.00477142 1.56757 0)
(-0.000553036 1.51121 0)
(-0.0106629 1.65024 0)
(-0.00122362 1.63893 0)
(0.0027591 1.54703 0)
(-0.0117182 1.64714 0)
(-0.00560843 1.54727 0)
(0.95386 0.00140675 0)
(0.928524 0.0119292 0)
(0.89691 0.00125977 0)
(0.918054 0.0138272 0)
(0.868177 -0.00317223 0)
(-0.0252281 3.03873 3.21225e-17)
(0.005428 2.96675 0)
(-0.0269899 3.00389 0)
(0.0365035 3.04023 1.38311e-23)
(-0.000576151 3.03198 3.0519e-17)
(0.0172561 3.00894 0)
(0.00242074 2.95739 0)
(0.00524606 2.96918 9.59831e-25)
(0.00368198 2.90332 0)
(0.00112829 2.97598 0)
(0.00537384 2.88614 0)
(0.269871 3.17093 0)
(-0.0634392 3.25438 0)
(0.090354 2.95231 1.25435e-17)
(0.00165279 2.8002 0)
(-0.00563565 1.76895 0)
(-0.0034469 1.68678 3.50746e-17)
(-0.00391148 1.62632 3.49288e-17)
(0.676098 0.170683 -7.51394e-18)
(0.669355 0.0982635 -2.42072e-19)
(0.636695 0.204982 1.34537e-17)
(0.60779 0.164191 -1.44333e-17)
(0.22419 1.23215 0)
(0.268255 1.6408 -4.35531e-17)
(0.364285 1.61927 -4.33272e-17)
(0.993756 0.00626275 0)
(0.96904 0.0030161 0)
(0.992274 -0.00623687 0)
(1.00157 0.000864719 0)
(1.00476 0.0138225 1.12941e-16)
(1.00529 0.0153163 1.51515e-16)
(-0.00765642 1.67009 0)
(-0.00343847 1.60175 0)
(-0.00886992 1.7177 0)
(-0.0128322 1.68794 0)
(-0.00136471 1.62725 0)
(-0.0521851 0.248318 -1.25003e-18)
(0.167426 0.156863 0)
(1.01516 -0.0158635 0)
(0.984086 -0.00355204 0)
(0.895563 0.0243973 0)
(0.857339 0.0462706 0)
(0.840319 0.00147737 0)
(1.08808 -0.0024513 0)
(0.810779 0.0467935 0)
(0.740345 -0.00119294 3.44086e-17)
(-0.016346 2.87401 2.95149e-17)
(0.00942936 2.98865 0)
(-0.0500915 3.0302 0)
(0.00629155 2.87653 0)
(-0.00629718 2.98525 -2.95186e-17)
(-0.00504902 2.93246 0)
(-0.0120107 2.98926 -3.18311e-17)
(-0.0120209 2.95475 3.08028e-17)
(0.00330414 1.7793 0)
(-0.00024856 1.77876 0)
(0.000646989 1.68647 -1.6763e-20)
(-0.00409202 1.67406 0)
(-0.00248366 1.61918 0)
(0.963296 -0.000236374 0)
(0.927716 -0.00263828 0)
(0.923006 0.00612865 0)
(0.968063 -0.001415 0)
(0.939924 -0.00225191 0)
(0.645163 1.2332 -8.34472e-18)
(0.734748 1.27732 0)
(0.53727 1.05991 -9.92145e-19)
(0.499854 0.983583 0)
(1.0873 1.28981 1.98532e-17)
(1.18908 1.08101 -1.1642e-20)
(0.482206 1.68396 0)
(0.672482 1.66814 0)
(0.589012 1.62382 0)
(0.301182 0.627969 -7.33314e-18)
(0.535459 0.284393 0)
(0.553638 0.207272 -3.00523e-18)
(1.16119 1.1034 0)
(1.22138 0.901557 0)
(1.24165 0.869567 5.65774e-20)
(1.26639 0.711626 0)
(1.29265 0.499877 -2.986e-17)
(0.974245 0.00177467 0)
(0.977075 -0.00404527 0)
(0.946507 -0.00217939 0)
(0.997717 -0.00815512 0)
(0.988127 -0.00859748 0)
(0.969735 -0.00208314 0)
(0.989385 -0.00391726 0)
(0.988094 3.07272e-05 0)
(0.993725 -0.00182031 0)
(0.0381216 1.66814 3.33298e-17)
(0.0417862 1.54559 0)
(0.0373898 1.69257 1.113e-18)
(0.0241354 1.6123 -4.0226e-19)
(0.100934 1.56449 -4.17724e-17)
(0.0284575 1.51034 0)
(0.062276 1.46117 0)
(-0.00373986 1.62098 0)
(0.00745009 1.53728 0)
(-0.00827163 1.71137 4.41884e-21)
(0.000922023 1.65678 0)
(-0.00983684 1.70512 -3.49315e-17)
(0.00151765 1.64715 2.02397e-19)
(0.00508225 1.64014 0)
(0.00482101 1.64159 0)
(0.00886702 1.54375 0)
(-0.0112802 1.65639 0)
(-0.00657195 1.566 0)
(0.997536 0.0177017 0)
(0.97255 0.00555447 0)
(0.981271 0.00957732 0)
(0.943745 0.00239866 0)
(0.902181 -0.00394541 0)
(0.945823 0.00222394 0)
(0.938121 0.00838929 0)
(0.898483 -0.00198203 0)
(0.00985904 3.03743 -7.45155e-21)
(0.0147365 3.03367 0)
(0.00543198 2.99347 0)
(0.00296091 2.94177 0)
(0.980202 3.68493 0)
(1.36563 2.7294 -2.78005e-18)
(0.0068666 2.87469 0)
(-0.00974548 2.79861 0)
(-0.00636292 1.76709 0)
(-0.00821523 1.76903 0)
(-0.00926822 1.76878 0)
(-0.0063918 1.78345 -7.8728e-17)
(-0.0115041 1.77041 0)
(-0.00649923 1.77661 0)
(0.00198565 1.63204 -7.00221e-17)
(0.0035072 1.69814 -3.49501e-17)
(-0.0057498 1.69448 3.50499e-17)
(-0.000227828 1.63023 0)
(0.708033 0.133426 -1.51858e-17)
(0.69591 0.0645599 -1.58961e-17)
(0.186051 1.39725 0)
(0.276283 1.09047 -1.53652e-19)
(0.120897 1.47529 -3.08425e-17)
(0.146361 1.36948 -2.97246e-17)
(0.949212 0.00593525 0)
(0.979243 0.0049017 0)
(0.984465 0.00836053 0)
(0.956186 0.00539441 0)
(-0.0110565 1.66219 0)
(-0.00535783 1.66403 0)
(-0.00752363 1.58588 0)
(0.33501 0.315421 2.27135e-18)
(0.198983 0.28326 -3.23932e-18)
(0.306562 0.204656 0)
(1.17787 0.101962 -9.21589e-20)
(1.18317 0.0591248 0)
(1.09194 0.0473651 0)
(1.03026 0.00467608 0)
(0.723896 0.0916495 0)
(0.754293 0.050233 1.5488e-17)
(0.705208 0.02806 -1.53864e-17)
(-0.0169429 2.95438 -2.93262e-17)
(-0.008918 2.90426 -5.9424e-17)
(0.00567983 3.02878 -2.34581e-20)
(0.0305429 3.01913 -3.3688e-17)
(-0.0162775 3.00289 9.26439e-21)
(-0.010537 2.9819 -8.34749e-23)
(-0.0105494 3.02381 -6.87033e-18)
(0.00240771 2.98522 -6.23056e-18)
(0.0431831 3.02071 -3.45813e-17)
(0.976117 0.0054025 0)
(0.969208 0.00927187 0)
(0.934941 0.00277804 0)
(0.974246 0.00746531 0)
(0.964502 0.00940851 0)
(0.935076 0.00623324 0)
(0.94943 0.000937216 0)
(0.956052 0.00846356 0)
(0.907059 0.000897727 0)
(0.790604 1.44887 -3.34417e-19)
(0.873335 1.50995 0)
(0.402451 0.825954 1.89352e-18)
(0.383048 0.879863 9.25446e-19)
(0.446854 0.963121 -1.55362e-17)
(0.426533 0.90207 -1.382e-17)
(0.377004 0.939659 7.25196e-18)
(0.287087 0.655835 2.14841e-17)
(0.607842 0.232907 -7.24489e-18)
(0.575872 0.258007 -2.37344e-18)
(0.586628 0.188712 6.91135e-18)
(1.29146 0.52446 -3.00227e-17)
(1.28964 0.333078 -1.60576e-19)
(0.0195431 1.70577 -3.35943e-17)
(0.0123201 1.63323 0)
(1.04364 0.0315273 0)
(1.0149 0.0206 0)
(0.995712 0.00114136 0)
(0.0135665 3.04519 0)
(0.014331 2.97399 -2.94707e-17)
(0.00994714 2.98507 0)
(0.00310433 2.92371 -3.1086e-17)
(0.0110448 3.05735 1.76063e-17)
(0.0104436 3.04992 0)
(0.853089 1.7426 -2.62676e-18)
(1.19957 2.31429 -1.34688e-17)
(0.944288 1.82533 -1.34291e-17)
(-0.0288579 2.91666 2.88508e-17)
(-0.0273991 2.87713 0)
(-0.0184902 2.83575 0)
(-0.0104755 1.69417 6.95345e-17)
(0.00206599 1.68992 -4.56552e-19)
(-0.00926831 1.6315 6.94278e-17)
(0.242553 1.31072 -1.39604e-17)
(0.293199 0.915274 -1.43952e-17)
(0.0384961 1.626 -3.09922e-17)
(0.0755824 1.56283 -3.17969e-17)
(0.066646 1.47313 -6.2692e-17)
(-0.0199676 3.06845 1.19065e-16)
(-0.00788274 3.06548 1.2108e-16)
(0.00681051 2.98606 3.08547e-17)
(-0.0171791 2.97938 -3.0257e-17)
(-0.00204924 2.93417 2.97478e-17)
(0.0164591 3.06121 -1.0601e-16)
(-0.0065668 3.05647 -1.21068e-16)
(0.333239 0.892437 0)
(0.312387 0.843938 -1.29236e-17)
(0.352813 0.678561 -1.4194e-17)
(0.354196 1.01131 3.57589e-17)
(0.30696 0.69419 2.03515e-17)
(1.26783 0.201343 -5.78818e-19)
(1.29307 0.361611 0)
(1.26281 0.176121 -9.54866e-20)
(-0.00970518 1.71779 5.39438e-22)
(0.0112086 1.71737 0)
(0.000765351 1.64733 0)
(0.295215 1.23382 1.18116e-19)
(0.348535 1.14376 -3.57395e-17)
(0.284546 0.787989 -2.74342e-17)
(1.00213 -0.024091 0)
(1.00154 -0.0138304 1.92072e-17)
(0.00202731 1.77469 0)
(-0.0104059 1.79034 0)
(1.0006 -0.00200319 4.75047e-19)
(1.00127 0.00133105 2.87738e-17)
(0.000867082 1.78365 -7.87476e-17)
(-0.000349445 1.77964 0)
(-0.0212692 2.96758 3.00447e-17)
(0.302206 2.98595 0)
(1.09635 0.700668 -2.87537e-17)
(1.00443 0.00793807 8.76879e-17)
(1.01319 -0.00592101 0)
(1.00481 -0.00143452 3.67927e-19)
(-0.114553 1.59805 0)
(-0.0520249 1.94336 0)
(-0.00708278 1.79076 0)
(0.00638652 1.76409 -7.72376e-17)
(-0.00729887 1.7664 7.74093e-17)
(0.988236 0.0113936 8.59461e-17)
(1.03574 0.020612 0)
(1.06022 0.0323722 0)
(-0.00298544 1.77259 0)
(0.000241937 1.77409 0)
(-0.0172725 1.77732 0)
(0.237892 1.52274 -8.50476e-17)
(1.00477 -0.0135646 0)
(1.00638 -0.0148255 0)
(0.995379 0.00563031 -1.37853e-17)
(0.996345 -0.00512503 1.79996e-17)
(0.994981 -0.00353832 0)
(-0.0017909 1.76612 0)
(-0.00276222 1.7668 0)
(-0.00278684 1.76374 0)
(-0.00995067 1.77826 0)
(-0.0269447 1.77755 0)
(-0.0150316 1.7708 0)
(1.01207 0.00146361 0)
(1.01066 0.00740531 8.78655e-17)
(0.839216 1.42141 -3.62073e-18)
(1.00159 -0.00729181 1.41543e-17)
(0.998751 0.00473872 -1.76879e-17)
(1.00195 0.0033066 0)
(1.0014 0.0107937 4.43619e-17)
(1.00617 0.0136876 4.22429e-17)
(1.00425 0.0109119 0)
(0.00220623 1.77682 0)
(0.00487666 1.77623 -3.9614e-17)
(-0.00228938 1.77313 -3.55336e-17)
(1.1622 0.25977 -5.35359e-17)
(1.09958 0.0820547 0)
(-0.243723 2.96766 2.40337e-17)
(-0.262001 3.23626 3.04246e-19)
(-0.0403941 3.01266 5.75576e-17)
(-0.0423054 2.96595 3.52656e-17)
(0.0459474 2.94044 0)
(-0.0273204 3.02478 1.57439e-17)
(-0.105597 3.12798 2.92813e-17)
(-0.0853084 3.00873 1.51504e-17)
(-0.0628579 3.09651 0)
(0.640996 0.336642 0)
(0.525096 0.384659 0)
(1.07675 0.823515 3.50919e-17)
(1.07412 0.90255 3.33555e-17)
(1.14074 0.638608 0)
(1.15784 0.558956 0)
(1.00735 0.00554447 1.27974e-18)
(1.00387 0.0042803 1.36364e-18)
(1.01505 -0.00695886 0)
(1.00823 -0.014371 0)
(0.999316 0.0105311 0)
(1.00573 0.00389984 0)
(1.00508 0.0063264 0)
(1.00198 0.0062393 0)
(1.00365 0.00510171 0)
(0.993488 0.00608653 0)
(-0.0966323 1.61741 0)
(-0.10271 1.6548 0)
(-0.0666327 1.5731 0)
(-0.0240749 1.57059 0)
(-0.0468982 1.97679 0)
(0.00532699 1.97346 3.48527e-17)
(-0.0381075 1.92859 0)
(-0.0426083 1.8783 3.46622e-17)
(-0.00786388 1.78044 -7.37017e-17)
(-0.0133659 1.79156 0)
(-0.0048621 1.78962 0)
(-0.0015248 1.78936 0)
(-0.0074504 1.78563 0)
(0.00456774 1.77747 -7.80256e-17)
(-0.0227093 1.75785 -4.93569e-17)
(0.0078921 1.76667 3.95025e-17)
(-0.00427812 1.77204 0)
(0.0156232 1.77191 3.15005e-17)
(0.00428409 1.77504 -7.45339e-17)
(-0.0234178 1.79375 -1.18429e-16)
(-0.0194626 1.74287 -4.96206e-17)
(0.00355321 1.75076 3.91994e-17)
(0.992097 0.0178006 2.75879e-18)
(0.995392 0.00347563 -1.64697e-18)
(0.987447 0.0242504 2.29668e-18)
(0.975477 0.0170521 1.78371e-18)
(1.03138 0.0127805 0)
(1.03076 0.00903003 0)
(1.04429 0.0341167 0)
(1.03831 0.0307167 0)
(1.04147 0.014832 0)
(1.08667 0.0725934 0)
(1.06488 0.0615445 0)
(1.08041 0.0407737 0)
(-0.0135488 1.78362 1.02437e-17)
(-0.00255433 1.76019 0)
(-0.0153725 1.7688 0)
(-0.00381135 1.77278 -1.51586e-17)
(-0.00161051 1.77483 1.33632e-20)
(-0.0126669 1.78817 4.58707e-17)
(-0.0255882 1.77624 4.57975e-17)
(-0.00596346 1.76897 0)
(-0.0292736 1.7744 0)
(-0.015369 1.76653 0)
(-0.00749327 1.77996 0)
(-0.010893 1.78454 0)
(0.418628 1.56929 -6.04549e-17)
(0.428339 1.61459 4.21559e-17)
(0.410188 1.97886 -4.97225e-19)
(0.216479 2.00493 3.22102e-17)
(0.320145 2.02384 3.8493e-17)
(1.01221 -0.0122151 0)
(1.01125 -0.00655587 0)
(1.01484 -0.00844036 0)
(1.00527 0.00368427 0)
(0.997693 -0.00427864 0)
(0.990566 -0.00169935 0)
(1.00218 -0.00135931 0)
(1.00469 -0.000717121 0)
(1.00782 0.00567332 3.50042e-18)
(1.00345 0.00712904 -1.47379e-18)
(1.01112 0.00898999 1.61701e-18)
(1.00656 0.00793504 1.36308e-18)
(0.762478 1.52123 0)
(0.726784 1.55674 -8.15932e-17)
(0.901361 1.37455 7.16025e-17)
(0.949505 1.29638 7.17934e-17)
(1.00197 2.09307 -1.83966e-17)
(0.822793 0.116486 -1.70851e-17)
(1.11212 0.134742 0)
(1.15789 0.188565 -1.04329e-16)
(1.13636 0.14028 -1.49495e-19)
(0.95179 0.140696 0)
(-0.0917712 2.69309 5.85978e-17)
(-0.389437 2.60812 6.48285e-17)
(-0.845358 2.68354 1.14319e-17)
(-0.677699 0.193515 -1.39058e-17)
(0.193813 2.97724 -1.25401e-17)
(0.0383415 2.97127 0)
(0.138238 2.94721 -1.26224e-17)
(0.0189481 2.68937 6.98625e-17)
(0.193807 2.71834 0)
(-0.0237219 3.05158 -9.01382e-20)
(-0.0346502 3.07191 -2.73414e-17)
(-0.00528839 3.09411 -2.6312e-17)
(-0.045167 3.11087 0)
(-0.0484599 3.04977 0)
(1.13866 2.15414 0)
(0.489445 1.05477 4.80546e-17)
(1.02012 1.09806 -3.40168e-17)
(0.991031 1.22741 0)
(0.827025 1.09372 -1.62007e-17)
(1.04321 1.04289 -6.38383e-17)
(0.167333 0.422602 -6.22389e-18)
(0.650687 0.33606 1.24642e-17)
(0.670985 0.299054 1.52499e-17)
(0.463193 0.454051 2.15336e-19)
(0.426329 0.390972 -3.59237e-18)
(0.604716 0.382243 0)
(0.593953 0.480114 1.50967e-17)
(0.61576 0.432571 0)
(0.544098 0.409267 0)
(0.586142 0.352168 0)
(0.676966 0.690745 3.75873e-17)
(1.17286 0.343137 3.32212e-17)
(1.18263 0.463398 0)
(1.17343 0.387152 0)
(0.744665 0.231243 2.3767e-17)
(0.721562 0.625437 3.52617e-17)
(0.609574 0.568265 1.55496e-17)
(0.872862 0.427833 -8.88045e-17)
(1.00244 0.00530521 4.20865e-17)
(1.00322 0.0146475 4.07446e-17)
(0.997604 0.0102362 0)
(1.0078 0.00413074 0)
(1.00633 -0.0165816 -4.10601e-17)
(0.998213 -0.0116374 -3.91722e-17)
(1.0165 0.000471699 0)
(1.00533 0.00602015 0)
(1.00866 0.000577979 0)
(1.00369 0.00250912 0)
(1.00945 -0.00160357 0)
(1.00593 -0.00549723 0)
(-0.0785848 1.69802 0)
(-0.061997 1.71377 0)
(-0.131718 1.51776 -5.49938e-17)
(0.183522 1.55675 -4.15087e-17)
(0.0456276 1.54395 7.94364e-17)
(0.0867803 1.52492 3.79746e-17)
(-0.0332576 1.52787 0)
(-0.135098 1.89331 7.38879e-17)
(-0.200121 1.84259 0)
(0.207995 2.0772 3.84551e-17)
(0.162694 2.09469 -4.45777e-17)
(-0.0624532 1.79843 7.39434e-17)
(0.169472 1.45481 -4.26633e-17)
(-0.00531984 1.51314 -4.26817e-17)
(0.184093 1.46367 -1.15447e-17)
(0.0531601 1.84719 0)
(0.16558 1.84774 -5.32723e-17)
(-0.0708714 1.78202 5.50116e-18)
(-0.0140273 1.79948 0)
(-0.111097 1.83671 -7.42704e-17)
(-0.0991129 1.78929 0)
(-0.0258683 1.8558 3.43597e-17)
(-0.0166723 1.81559 0)
(0.0103402 1.77666 5.54555e-17)
(0.0101764 1.78312 0)
(-0.0104717 1.7785 0)
(-0.00517611 1.78888 5.57348e-17)
(-0.0146191 1.75713 -1.21684e-16)
(0.00308349 1.77531 -7.04079e-17)
(-0.00719594 1.77073 4.8175e-21)
(-0.000174183 1.76593 8.00388e-17)
(-0.0245379 1.78686 -4.05483e-17)
(-0.0124048 1.78813 0)
(-0.011604 1.7944 0)
(-0.0534519 1.80011 3.29102e-17)
(-0.0484759 1.78605 2.81442e-17)
(-0.0274716 1.79411 6.07327e-17)
(-0.117326 1.81024 0)
(0.000128086 1.77791 1.05265e-16)
(-0.0104815 1.77224 1.78868e-17)
(0.0030735 1.77673 -2.015e-17)
(0.00690191 1.78195 7.98856e-17)
(0.0135601 1.74361 -4.20241e-18)
(0.00113001 1.75027 -4.55164e-17)
(1.00422 0.0130985 4.06402e-17)
(0.999135 0.00588012 4.14134e-17)
(0.999336 0.00808289 0)
(0.989953 0.0479241 -6.04362e-17)
(0.966626 0.0502484 2.79074e-18)
(0.949241 0.0334572 6.59457e-18)
(0.98404 0.0898432 9.21483e-20)
(1.01692 0.00731997 0)
(1.02247 0.0120728 -4.04467e-17)
(1.01933 0.0058943 -4.12715e-17)
(1.02621 0.0379627 2.93857e-18)
(1.02889 0.0359645 -6.05573e-18)
(1.01956 0.0496282 0)
(1.01134 0.044258 -1.26284e-18)
(1.00468 0.0269963 0)
(0.999953 0.0289926 0)
(1.01788 0.0226855 0)
(1.00593 0.0105366 0)
(1.0116 0.029154 7.418e-18)
(1.01165 0.021899 2.41515e-17)
(1.02513 0.0311966 -9.61316e-18)
(1.01833 0.0294856 6.90277e-18)
(1.01748 0.0673149 3.58029e-17)
(1.03869 0.0617276 0)
(1.02935 0.0914931 0)
(0.000114553 1.78539 -5.56007e-17)
(0.0163606 1.76502 -9.04783e-19)
(-0.00605985 1.77332 0)
(0.00739252 1.78255 -5.54993e-17)
(0.00148262 1.78779 9.35572e-18)
(0.00262338 1.77933 -4.17522e-18)
(-0.00339817 1.77496 -7.93303e-17)
(0.00441091 1.76856 -2.26874e-19)
(0.00886417 1.76215 -4.98398e-18)
(-0.00396498 1.77226 3.49666e-17)
(-0.00277582 1.77547 3.52987e-17)
(0.00211459 1.76482 -2.39188e-17)
(-0.00242459 1.77877 -3.96857e-17)
(0.407432 1.42995 2.97619e-17)
(0.371634 1.53688 -5.34302e-18)
(0.678917 1.62249 -8.15537e-17)
(0.549811 1.63952 4.21428e-17)
(0.582721 1.62821 0)
(0.433719 1.96818 -2.99479e-18)
(0.503039 1.95148 4.55411e-19)
(0.27185 2.00353 -7.61768e-18)
(0.225434 2.1353 -3.83854e-17)
(0.318236 2.11504 -2.72778e-17)
(0.367601 1.99151 0)
(0.333999 1.97152 -1.48043e-17)
(0.0574196 2.01121 5.47965e-18)
(0.160416 2.021 6.41834e-17)
(0.114746 1.98529 1.14187e-18)
(0.753773 1.92577 -3.23634e-17)
(0.656052 1.95322 0)
(1.00926 0.00892494 7.8303e-20)
(1.00823 -0.00387929 3.41845e-20)
(1.00382 -0.019125 -1.25268e-17)
(1.01425 -0.00809039 -1.18027e-17)
(1.01019 0.00194506 0)
(0.700345 1.44999 0)
(0.632615 1.37522 0)
(0.768496 1.23131 0)
(0.680202 1.29385 0)
(0.983613 2.10807 3.0049e-17)
(0.9311 1.93334 0)
(0.691464 1.88482 -1.08567e-18)
(0.707089 2.03365 0)
(0.729658 2.06712 7.20606e-17)
(0.786102 2.02071 7.26001e-17)
(0.804053 0.149916 0)
(0.788383 0.155309 6.64842e-20)
(0.881647 0.135017 1.71696e-17)
(0.840714 0.112521 -3.24936e-17)
(0.851451 0.0841924 -9.28895e-18)
(1.01672 0.25491 -3.81517e-17)
(0.897292 0.299954 2.96619e-17)
(0.855044 0.286328 3.37889e-17)
(0.946747 0.232244 1.95484e-17)
(0.889244 0.165765 3.07276e-17)
(0.867858 0.195026 -1.00441e-17)
(0.864954 0.263612 -1.26875e-18)
(0.85081 0.22708 0)
(0.950009 0.20263 2.82232e-17)
(0.989249 0.184246 0)
(0.981687 0.254341 0)
(1.0497 0.124495 -9.87624e-18)
(1.00003 0.184164 3.26407e-17)
(0.991979 0.21618 2.04884e-17)
(1.03345 0.202325 0)
(0.994645 0.026371 -3.19744e-17)
(1.00458 0.0347162 3.94239e-17)
(1.00662 0.0347736 -3.30092e-17)
(1.00507 0.0553265 3.94801e-17)
(0.982257 0.0501944 -6.48602e-17)
(0.945641 0.147098 0)
(0.957899 0.0721759 0)
(0.945544 0.0556863 4.16242e-17)
(0.920332 0.0535961 1.0697e-17)
(0.988457 0.0971054 -3.32556e-17)
(1.01409 0.124884 -3.62726e-17)
(1.00939 0.150179 -1.92612e-18)
(0.97596 0.148973 0)
(1.01687 0.0983891 0)
(1.01028 0.0848279 3.3474e-17)
(0.992083 0.0853289 -3.31816e-17)
(0.549748 1.32983 3.04061e-17)
(0.56758 1.55142 -2.39772e-17)
(0.921369 2.21124 1.63828e-17)
(0.986091 2.46983 -1.51156e-18)
(1.04058 2.18826 -3.82764e-17)
(1.09917 2.23423 8.8696e-18)
(1.09689 1.97059 8.52686e-18)
(1.0118 2.37188 -2.05985e-17)
(1.0121 2.34665 -8.69329e-18)
(1.04944 2.57556 5.64836e-19)
(1.17744 2.44716 5.20748e-19)
(1.24382 2.40008 0)
(0.467497 1.11379 -3.98513e-18)
(-0.180714 1.41989 -1.23439e-17)
(0.0283879 0.59844 -3.11243e-18)
(-0.103606 0.82115 -1.34493e-17)
(0.341675 0.456373 -4.43488e-18)
(0.357837 0.510449 -5.10724e-18)
(0.304984 0.601863 4.7562e-20)
(0.211897 0.471912 2.16457e-19)
(0.304601 0.386738 -2.27532e-18)
(0.727504 0.274066 2.25764e-17)
(0.681972 0.304511 0)
(0.704523 0.261037 6.38562e-18)
(0.596975 0.569204 -9.51733e-18)
(0.511287 0.541838 3.95759e-18)
(0.424638 0.579204 -6.10451e-18)
(0.492977 0.492227 0)
(0.571972 0.937147 -2.23961e-17)
(0.738547 0.906124 5.41398e-17)
(0.682043 1.04596 4.81532e-17)
(0.775697 0.931906 1.19443e-17)
(0.89359 0.926012 -5.22987e-18)
(0.894126 0.991375 -5.14103e-18)
(0.781315 0.75763 -1.52399e-18)
(0.84334 0.806525 1.22091e-17)
(0.929888 0.85538 0)
(0.926031 0.735012 2.42302e-17)
(0.949341 0.326062 5.52946e-17)
(1.05837 0.32574 -1.61489e-17)
(0.996228 0.313735 -4.78562e-17)
(0.904912 0.399064 4.50857e-17)
(0.99452 0.451418 0)
(1.03033 0.423849 0)
(0.817926 0.390501 5.22908e-17)
(0.783045 0.290772 0)
(0.778288 0.291507 -1.20771e-17)
(0.871255 0.317978 7.12235e-17)
(0.828531 0.499499 -6.88509e-17)
(0.753247 0.554122 4.96752e-18)
(0.792951 0.50925 3.19138e-18)
(0.721201 0.467339 4.0511e-18)
(0.706381 0.479836 -3.22469e-18)
(0.670243 0.459616 -3.73037e-18)
(1.01714 -0.00231433 -4.16509e-17)
(1.0106 -0.0103441 0)
(1.01847 -0.00201669 1.63723e-17)
(1.00837 0.00579968 -2.6617e-17)
(1.02146 0.00390882 -1.92228e-17)
(1.01142 0.0148591 -9.2059e-18)
(1.00816 0.011228 0)
(1.00906 0.00431383 1.11219e-17)
(1.01156 0.00808697 5.3877e-18)
(1.00562 0.0084725 -6.64514e-18)
(1.00918 0.00356311 1.1478e-17)
(-0.0306303 1.7731 0)
(-0.0351979 1.79459 0)
(-0.0389808 1.73642 0)
(-0.0280009 1.75178 0)
(-0.166994 1.74848 -1.72169e-18)
(-0.168438 1.67282 -1.13976e-16)
(-0.20439 1.84249 -3.53051e-17)
(-0.245963 1.76271 -8.85585e-17)
(-0.101798 1.78708 5.68544e-17)
(-0.0946542 1.79476 6.62353e-17)
(-0.139195 1.75008 1.25441e-16)
(-0.115502 1.753 5.72464e-17)
(-0.0753707 1.76412 1.02076e-17)
(-0.0673136 1.79045 1.22652e-18)
(-0.125909 1.8757 -7.46706e-17)
(-0.106746 1.93704 0)
(-0.185111 1.96486 -4.15582e-17)
(-0.222041 1.88015 -4.29393e-18)
(0.0110565 1.9923 -1.96342e-17)
(0.0068879 2.07637 0)
(0.036337 2.07351 5.31753e-17)
(0.0711392 2.09906 5.37562e-17)
(-0.0662457 1.99236 -6.74696e-17)
(-0.126221 1.99235 -8.49578e-17)
(-0.0965965 2.0162 0)
(-0.035793 1.76724 3.13941e-17)
(-0.0218359 1.73276 -2.54349e-17)
(-0.0195333 1.75564 0)
(-0.0208744 1.76465 2.19559e-17)
(-0.0683635 1.77931 1.94343e-17)
(-0.00618868 1.78748 1.01557e-17)
(-0.00951643 1.78124 -1.08114e-16)
(-0.0225582 1.78929 -6.8192e-17)
(-0.028292 1.7807 4.9783e-17)
(-0.00929643 1.78213 0)
(0.0106307 1.79138 0)
(-0.00900735 1.78116 -3.98909e-17)
(-0.00463805 1.77361 -4.12741e-18)
(-0.00325658 1.78226 0)
(-0.00818526 1.78928 3.54874e-17)
(-0.00954262 1.78372 -5.65504e-19)
(1.01857 0.0340071 0)
(1.02877 0.0268776 -5.56919e-19)
(1.011 0.0224296 4.06545e-17)
(1.02026 0.0150198 0)
(1.0181 0.00819485 0)
(1.021 0.00520187 2.23319e-17)
(1.01601 0.0118235 -4.76957e-17)
(1.00961 0.00850415 -6.66297e-18)
(1.00614 0.00812519 0)
(1.00742 0.0103463 0)
(1.00725 0.0160968 3.63386e-17)
(1.00205 0.0172142 0)
(1.00602 0.0152592 0)
(-0.00241484 1.78085 0)
(0.000494463 1.77581 -4.31681e-17)
(0.000110159 1.77047 4.49733e-17)
(-0.00582286 1.76751 0)
(0.00888275 1.78251 -4.03096e-17)
(-0.00431784 1.7708 -2.00724e-17)
(-0.00883063 1.76401 0)
(0.516726 1.72545 0)
(0.362008 1.57048 1.87715e-17)
(0.359983 1.68659 0)
(0.500911 1.44004 9.30535e-17)
(0.524545 1.48616 0)
(0.52215 1.47987 3.24646e-17)
(0.823972 2.09913 -4.15822e-19)
(0.775751 1.9094 -3.36442e-17)
(0.722099 1.75013 -1.43263e-17)
(0.672968 1.93201 -7.13453e-18)
(0.702484 2.02471 0)
(0.743892 2.00786 0)
(0.712079 1.92455 0)
(0.707084 1.91913 -8.21304e-18)
(0.565563 2.09922 -4.38048e-17)
(0.67355 2.01651 3.22243e-18)
(0.667299 2.0584 3.33227e-18)
(0.518648 1.9632 0)
(0.600642 1.95749 0)
(0.582887 1.9582 -4.34404e-19)
(0.626546 2.04989 0)
(0.616622 1.25126 0)
(0.565596 1.16154 -7.16303e-17)
(0.555762 1.14432 -6.56677e-18)
(0.574419 1.24663 0)
(0.571788 1.19792 -6.65605e-17)
(0.722481 1.05819 -1.21519e-17)
(0.774111 1.19285 0)
(0.787849 1.11451 -2.79324e-17)
(0.681551 1.20308 0)
(0.61514 1.15053 0)
(0.916908 2.17791 1.09023e-17)
(0.900936 2.25204 -1.31778e-17)
(0.735864 1.99491 -3.67107e-17)
(0.723766 1.96296 -4.52313e-18)
(0.899003 2.14445 0)
(0.849886 2.12359 -3.23506e-18)
(0.891643 1.99726 -8.02239e-18)
(0.838781 1.8173 -7.97413e-18)
(0.544879 1.47464 0)
(0.527321 1.3279 3.01675e-17)
(0.562135 1.38541 0)
(0.817821 0.214944 0)
(0.778141 0.187914 0)
(0.760248 0.199211 0)
(0.802313 0.252832 -1.28238e-17)
(0.748615 0.231368 7.95673e-18)
(0.927466 0.0773744 1.02379e-17)
(0.921113 0.117567 0)
(0.898254 0.094272 6.82902e-19)
(0.85943 0.0781807 9.12571e-19)
(0.866731 0.0558036 -9.0986e-18)
(1.03978 2.73952 -1.25546e-17)
(0.976365 2.64108 0)
(0.937133 2.81463 -5.00416e-17)
(0.586385 3.02139 -3.69458e-17)
(0.719761 2.54042 9.30479e-18)
(0.445958 1.19192 -2.19661e-17)
(0.526682 1.10395 0)
(0.233206 0.833865 6.23559e-18)
(0.255122 0.9321 4.89678e-17)
(0.185938 0.801698 8.94766e-18)
(0.260411 0.639347 6.9006e-18)
(0.489232 0.6378 -5.97645e-18)
(0.512437 0.687637 0)
(0.457145 0.783789 0)
(0.351313 0.738469 0)
(0.902893 0.688371 1.31266e-17)
(0.826351 0.604138 3.15872e-18)
(0.841923 0.643153 1.32224e-18)
(0.864622 0.527355 1.74817e-17)
(0.976418 0.553053 0)
(0.978021 0.618921 -1.25031e-17)
(0.773369 0.417557 4.14993e-18)
(0.773131 0.368706 1.79175e-17)
(0.718234 0.397963 7.52916e-19)
(0.718686 0.373641 -2.31737e-18)
(0.76224 0.333553 -1.32682e-17)
(0.743081 0.313377 -1.24593e-17)
(1.02724 0.000289911 -4.58341e-17)
(1.02638 -0.0018702 -2.41973e-17)
(1.02341 0.00283966 4.53657e-17)
(1.02325 0.0024223 4.41331e-17)
(1.0171 0.021207 0)
(1.00221 0.014954 -2.9243e-17)
(-0.128713 1.81662 2.7983e-17)
(-0.13039 1.82066 0)
(-0.209491 1.86282 -4.35625e-17)
(-0.219938 1.86188 -6.40206e-17)
(-0.226802 1.83602 -3.50996e-17)
(-0.19883 1.8445 0)
(0.0232878 1.79046 0)
(0.01554 1.78322 -2.04021e-17)
(0.00132914 1.76994 -2.03534e-17)
(0.000172533 1.77572 -5.12438e-17)
(-0.00805906 1.78086 -1.09352e-17)
(0.0213867 1.78378 -4.14707e-18)
(0.584576 1.47253 -1.22498e-16)
(0.602607 1.52653 -1.26612e-16)
(0.560686 1.46967 7.42649e-17)
(0.605613 1.50275 -4.78002e-18)
(0.663506 1.47922 0)
(0.604423 1.52905 7.44463e-17)
(0.642331 1.51473 7.45936e-17)
(0.576198 1.43446 7.44596e-17)
(0.613792 1.4476 0)
(0.61093 1.42959 0)
(0.572874 2.11461 -4.32253e-17)
(0.516997 2.05418 -6.12362e-17)
(0.56574 2.05556 -6.23429e-17)
(0.453447 2.06554 -3.21084e-18)
(0.416154 2.22195 3.87104e-18)
(0.34841 2.1646 -2.42011e-17)
(0.790004 1.87318 -1.58685e-17)
(0.836243 1.90047 0)
(0.765158 1.74274 -8.32715e-19)
(0.852502 2.09137 0)
(0.820787 2.0952 0)
(0.558409 2.01562 -6.8919e-18)
(0.919423 2.46697 -7.58537e-18)
(0.798261 2.47512 3.29743e-18)
(0.167894 1.24542 0)
(0.204033 1.19787 -1.75621e-17)
(0.436259 1.10896 -4e-17)
(0.377399 1.95966 0)
(0.369548 2.31995 9.47611e-18)
(0.203799 2.29442 0)
(0.599143 0.850803 -2.17079e-17)
(0.634845 0.843809 -3.97531e-17)
(0.650129 0.79686 -3.36661e-17)
(0.484424 0.820537 -2.67735e-18)
(0.56184 0.717906 -1.94074e-18)
(0.834224 2.28129 -7.39492e-18)
(0.887759 2.26374 -1.38409e-17)
(0.64664 1.9897 1.68416e-17)
(0.626195 1.68341 2.61127e-17)
(0.67969 1.75924 3.42587e-17)
(0.842404 2.05054 -3.08787e-17)
(0.843794 2.05854 -1.43508e-17)
(0.712757 1.72314 1.10183e-18)
(0.554518 1.46083 3.62618e-17)
)
;

boundaryField
{
    wall-4
    {
        type            calculated;
        value           uniform (0 0 0);
    }
    velocity-inlet-5
    {
        type            calculated;
        value           uniform (1 0 0);
    }
    velocity-inlet-6
    {
        type            calculated;
        value           uniform (0 3 0);
    }
    pressure-outlet-7
    {
        type            calculated;
        value           nonuniform List<vector> 8((-0.0143409 1.69173 0) (-0.00220949 1.65089 5.91103e-17) (0.00254537 1.76458 0) (-0.0107925 1.79113 0) (-0.00551953 1.76882 0) (-3.40999e-05 1.77858 0) (-0.00921057 1.76863 0) (-0.00629943 1.77647 0));
    }
    wall-8
    {
        type            calculated;
        value           uniform (0 0 0);
    }
    frontAndBackPlanes
    {
        type            empty;
    }
}

