/*--------------------------------*- C++ -*----------------------------------*\
  =========                 |
  \\      /  F ield         | OpenFOAM: The Open Source CFD Toolbox
   \\    /   O peration     | Website:  https://openfoam.org
    \\  /    A nd           | Version:  6
     \\/     M anipulation  |
\*---------------------------------------------------------------------------*/
FoamFile
{
    version     2.0;
    format      ascii;
    class       volVectorField;
    location    "0";
    object      U;
}
// * * * * * * * * * * * * * * * * * * * * * * * * * * * * * * * * * * * * * //

dimensions      [0 1 -1 0 0 0 0];

internalField   nonuniform List<vector> 
918
(
(0.985889 0.0038345 0)
(-0.00403943 2.96742 0)
(0.000346193 1.66213 0)
(0.980901 -0.00217003 0)
(-0.00580139 1.63389 -8.52024e-22)
(0.00138443 2.951 -1.39911e-18)
(0.845012 1.1409 5.11426e-19)
(0.509518 0.236885 -5.61464e-21)
(0.999944 -0.000355355 0)
(0.0690034 1.38249 0)
(-0.014046 1.44049 0)
(0.846425 -0.00566306 0)
(0.00889513 2.93465 0)
(0.00309847 2.79715 0)
(-0.00180666 3.20258 7.88732e-19)
(-0.00500459 1.54798 -1.16059e-20)
(0.605097 0.104151 3.45443e-19)
(0.25618 1.39406 3.62306e-19)
(0.966795 0.00798746 0)
(0.00701514 1.53643 0)
(0.22547 0.278435 -3.06827e-19)
(1.00125 -0.00515089 0)
(1.0013 -0.0086593 0)
(0.976981 -0.00539605 0)
(0.76846 -0.0148123 0)
(0.0310397 2.63502 0)
(-0.0110959 2.91556 4.69225e-19)
(-0.00877189 1.68567 0)
(-0.010445 1.76859 0)
(-0.0100635 1.68402 0)
(0.0021083 1.79934 0)
(0.00388877 1.64687 6.67079e-22)
(-0.00535027 1.55989 0)
(-0.0198182 2.98957 -4.9085e-23)
(-0.0137659 3.00797 1.10146e-18)
(0.00163033 2.99972 0)
(0.888808 -0.00637641 0)
(0.35497 0.891783 -7.69576e-21)
(0.83827 1.15964 -7.308e-19)
(0.982069 1.01371 6.81125e-19)
(0.705271 1.24317 -1.18186e-19)
(0.682771 1.24258 6.5781e-19)
(0.54933 0.306461 5.4759e-21)
(0.543134 0.206487 0)
(1.20967 0.55841 0)
(0.499313 0.325253 2.51545e-20)
(0.473062 0.243964 -2.6109e-20)
(0.923902 -0.00190927 0)
(1.00043 0.000207765 0)
(0.999967 0.000315986 0)
(1.00431 -0.00705609 0)
(1.00037 -0.000403571 0)
(1.00008 4.24171e-05 0)
(0.0458484 1.58039 -3.92458e-19)
(0.0332391 1.53589 0)
(0.100086 1.41508 0)
(0.0253155 1.55005 0)
(0.0384949 1.39577 0)
(0.00581316 1.60137 0)
(-0.0221313 1.56372 0)
(-0.0136412 1.42108 0)
(-0.0188138 1.59606 0)
(-0.0140032 1.46908 0)
(0.919642 0.00496895 0)
(0.914855 0.0045325 0)
(0.859226 -0.000739929 0)
(0.909523 0.00913996 0)
(0.830923 -0.00134332 0)
(0.0137645 3.00356 5.04879e-19)
(0.0116081 3.0044 0)
(0.00742857 3.00384 0)
(0.0106639 2.99804 5.64683e-24)
(0.00625007 2.9619 -7.59701e-19)
(0.0118089 2.98439 0)
(0.00834343 2.90898 0)
(0.0220918 2.9328 1.03155e-24)
(0.00457294 2.82723 0)
(0.0263152 2.91903 0)
(-0.00131465 2.74556 0)
(0.308415 3.60409 0)
(-0.128136 3.68597 0)
(0.148477 3.29322 -7.30901e-19)
(0.00487447 3.02387 0)
(0.0073904 1.77042 0)
(-0.00231255 1.65118 1.14474e-20)
(-0.00257417 1.55353 -1.84985e-20)
(0.674563 0.154464 -1.1841e-19)
(0.623787 0.0546157 -1.13032e-19)
(0.636232 0.193958 -3.55223e-19)
(0.597372 0.132262 -2.37622e-19)
(0.266859 1.19946 0)
(0.190936 1.41414 -4.026e-19)
(0.390102 1.31054 6.74218e-19)
(0.989574 0.0104292 0)
(0.948732 0.0104961 0)
(0.999816 0.000841766 0)
(1.00364 0.00778928 0)
(1.00319 0.00980601 -5.88861e-19)
(0.992908 0.00639949 4.51211e-19)
(-0.00242396 1.63936 0)
(0.00411939 1.54218 0)
(-0.0120788 1.69456 0)
(-0.00769874 1.65314 0)
(0.00600059 1.54447 0)
(0.258203 0.30453 9.37252e-20)
(0.31235 0.275889 0)
(0.993337 -0.00611418 0)
(0.957111 -0.00316738 0)
(0.88277 0.0274215 0)
(0.84778 0.0351843 0)
(0.801429 0.00954685 0)
(1.04148 0.00553701 0)
(0.807139 0.0253077 0)
(0.695775 -0.0379303 4.45143e-19)
(-0.0336164 2.86722 2.73101e-19)
(0.0369159 2.91267 0)
(0.0459877 2.88953 0)
(0.00464339 2.69919 0)
(-0.00770076 2.98768 4.36357e-19)
(-0.0123625 2.89923 0)
(-0.00974773 2.99228 -1.37098e-18)
(-0.009698 2.93192 4.72099e-19)
(-0.00554888 1.80929 0)
(-0.00317072 1.80438 0)
(0.00114472 1.65736 -2.28369e-22)
(0.00416405 1.64499 0)
(-0.00396494 1.5475 0)
(0.943811 -0.000264577 0)
(0.886815 0.00312988 0)
(0.873709 -0.00027898 0)
(0.945397 -0.00248265 0)
(0.891953 -0.0026395 0)
(0.485663 1.07951 2.21927e-21)
(0.526075 1.15385 0)
(0.311735 0.823581 5.42605e-21)
(0.241125 0.701098 0)
(0.955263 1.0512 -2.00615e-19)
(1.08852 0.864457 4.08636e-19)
(0.379931 1.33943 0)
(0.557548 1.30941 0)
(0.548328 1.27845 0)
(0.135597 -0.0845933 -5.30282e-20)
(0.581654 0.288767 0)
(0.574552 0.195859 6.93452e-20)
(1.04913 0.915477 0)
(1.12721 0.757836 0)
(1.15727 0.697911 -3.5598e-19)
(1.19756 0.608367 0)
(1.25026 0.409589 3.51083e-20)
(0.954547 -0.00265693 0)
(0.959631 -0.0046011 0)
(0.909335 -0.00430819 0)
(0.986919 -0.00446573 0)
(0.976389 -0.00295319 0)
(0.94367 -0.00196021 0)
(0.99993 0.00247923 0)
(1.00056 0.0011154 0)
(1.00011 0.00061829 0)
(0.0289673 1.66231 2.14287e-19)
(0.0769781 1.54408 0)
(0.00992368 1.69793 3.41048e-19)
(0.0203134 1.59207 -2.89842e-19)
(0.0655992 1.47195 -3.02004e-19)
(0.02994 1.52631 0)
(0.126035 1.39176 0)
(0.00164631 1.56033 0)
(0.0212793 1.37454 0)
(0.00357123 1.67594 -8.33349e-22)
(0.0100779 1.59066 0)
(-0.00239989 1.6919 -4.24297e-20)
(-0.00771834 1.59949 8.08985e-20)
(0.00617452 1.55324 0)
(-0.0154456 1.55139 0)
(0.00497916 1.39493 0)
(-0.0169891 1.61911 0)
(-0.00860055 1.49285 0)
(0.982513 0.0177714 0)
(0.937728 0.0101673 0)
(0.966731 0.0096332 0)
(0.910549 0.00380481 0)
(0.86491 -0.00700942 0)
(0.93367 0.00243456 0)
(0.927001 0.010484 0)
(0.862 0.00324288 0)
(0.00959347 3.06469 -4.32466e-21)
(0.0137522 3.0571 0)
(0.0122634 2.97238 0)
(0.00752248 2.88087 0)
(0.905394 4.00676 0)
(1.20775 3.38076 7.48692e-19)
(0.0805956 3.10672 0)
(-0.0155607 2.92533 0)
(-0.0064619 1.797 0)
(-0.00222699 1.77673 0)
(0.00082828 1.78181 0)
(0.00302703 1.78439 2.42297e-21)
(0.00349053 1.77311 0)
(0.00870239 1.77655 0)
(-0.00214275 1.5597 2.95436e-21)
(-0.00232469 1.66981 2.44171e-20)
(-0.00263268 1.6633 1.88942e-20)
(-0.00374029 1.55721 0)
(0.693534 0.127518 1.71677e-19)
(0.664632 0.0504606 -1.67042e-19)
(0.227408 1.31104 0)
(0.319595 1.02553 -1.82888e-19)
(0.166826 1.42846 -5.42554e-19)
(0.202222 1.3518 5.42216e-19)
(0.911854 0.0139623 0)
(0.972379 0.016885 0)
(0.977683 0.0114244 0)
(0.933921 0.0121468 0)
(-0.0162434 1.63042 0)
(-0.00502503 1.63732 0)
(-0.00336567 1.5149 0)
(0.461569 0.347506 2.30154e-19)
(0.39065 0.31733 -2.80244e-19)
(0.395136 0.252495 0)
(1.15995 0.0874022 -5.56236e-21)
(1.14716 0.0373656 0)
(1.07244 0.0379088 0)
(0.986997 -0.00277111 0)
(0.719922 0.0939899 0)
(0.755271 0.038437 -7.23178e-19)
(0.675165 0.0228986 2.8305e-19)
(0.0112388 2.98217 3.29914e-19)
(-0.0277275 2.8682 3.25367e-20)
(0.0059486 3.05047 -9.3006e-21)
(0.0155988 3.04106 3.53382e-19)
(-0.00971539 3.00018 1.56964e-20)
(-0.00861363 2.95403 -6.40518e-23)
(-0.0150748 3.01285 -2.99661e-19)
(0.0125383 3.02383 2.12298e-19)
(0.00603867 3.032 -3.40317e-19)
(0.962603 0.00813165 0)
(0.95538 0.00686349 0)
(0.896102 0.00593866 0)
(0.960333 0.0150507 0)
(0.943346 0.0143146 0)
(0.881546 0.0133773 0)
(0.934964 -0.00344441 0)
(0.932673 -0.00170571 0)
(0.864746 -0.00987764 0)
(0.66337 1.3916 1.90847e-19)
(0.687071 1.50925 0)
(0.209828 0.268009 1.15389e-20)
(0.146849 0.474206 1.55016e-19)
(0.195973 0.638888 -8.92283e-20)
(0.211799 0.535397 1.80436e-19)
(0.393869 0.601195 4.04373e-19)
(0.171666 0.075777 1.94968e-19)
(0.630139 0.220546 2.57804e-19)
(0.609837 0.250697 6.32464e-20)
(0.586917 0.153452 1.31705e-19)
(1.23742 0.460052 2.29114e-19)
(1.26268 0.250198 2.39544e-19)
(-0.0052305 1.70149 1.34587e-19)
(-0.00210933 1.58676 0)
(1.02644 0.0234963 0)
(1.00032 0.0153145 0)
(0.957726 -0.00322585 0)
(0.0105268 3.07194 0)
(0.0173773 2.94579 5.99735e-19)
(0.0142785 2.95868 0)
(0.00615116 2.85405 -5.96326e-19)
(0.00874828 3.0882 1.41449e-19)
(0.0112406 3.08048 0)
(0.702556 1.80931 -1.60851e-19)
(1.25167 2.61242 5.32248e-19)
(0.686415 1.98434 -1.10812e-18)
(0.0228889 2.98463 -2.53356e-19)
(0.0418267 3.01261 0)
(-0.0311423 2.88588 0)
(-0.0131348 1.67566 -6.10252e-21)
(-0.0042556 1.67336 -5.64697e-20)
(-0.00771624 1.57694 -3.67204e-21)
(0.27794 1.21403 5.90849e-19)
(0.339808 0.849124 -3.97595e-19)
(0.0438536 1.62272 3.60617e-19)
(0.0863105 1.54811 -4.35331e-19)
(0.125323 1.46554 5.17126e-20)
(0.00554512 3.11697 -8.37517e-19)
(0.0210894 3.11591 9.20936e-19)
(-0.00436338 2.98243 3.8772e-19)
(0.000672421 2.97825 -3.54243e-19)
(-0.0151776 2.88386 -3.95e-19)
(0.012147 3.09582 -1.038e-18)
(0.00501434 3.10517 1.02578e-18)
(0.276651 0.506975 0)
(0.101706 0.430255 -6.439e-20)
(0.160529 -0.0556589 2.72129e-20)
(0.399544 0.757535 5.28688e-19)
(0.3237 0.31521 -8.07672e-19)
(1.24194 0.172748 -5.0721e-20)
(1.25744 0.310254 0)
(1.23785 0.119897 9.58557e-20)
(-0.00131327 1.67432 -1.06724e-21)
(-0.012971 1.68235 0)
(-0.00101199 1.5742 0)
(0.313195 1.05814 -2.09379e-19)
(0.35829 0.940227 -4.51964e-19)
(0.323742 0.607949 7.58871e-19)
(1.00357 -0.00843805 0)
(1.00596 -0.00741323 1.07919e-19)
(-0.0051249 1.80291 0)
(-0.00923429 1.8084 0)
(1.00216 0.00271638 8.7848e-22)
(1.00319 0.00883844 2.20158e-19)
(0.00305187 1.78713 -3.16168e-21)
(0.00246199 1.78734 0)
(0.0489257 3.18491 1.26726e-19)
(0.379513 3.55181 0)
(1.07319 0.681357 5.46946e-20)
(1.0099 0.0073938 -1.3814e-21)
(1.00814 -0.0190394 0)
(1.00106 0.000456988 1.79455e-22)
(-0.0390406 1.72743 0)
(0.0274555 1.86317 0)
(-0.0248514 1.79074 0)
(0.016155 1.80625 5.92456e-20)
(-0.0138378 1.80195 2.89505e-20)
(1.00502 0.00880916 1.40081e-21)
(1.04597 0.0165289 0)
(1.0774 0.0271338 0)
(-0.00788247 1.78106 0)
(-0.00559062 1.79696 0)
(-0.00800892 1.79518 0)
(-0.0105207 1.47608 -2.77947e-19)
(1.01073 -0.00842628 0)
(1.01302 -0.0153277 0)
(1.00361 -0.00021374 1.36006e-19)
(1.00521 -0.00547939 -1.62599e-19)
(1.00107 -0.00136007 0)
(-0.010578 1.78621 0)
(-0.00549403 1.79837 0)
(-0.00657023 1.79274 0)
(-0.0061805 1.7979 0)
(-0.00623517 1.79541 0)
(-0.00666302 1.79787 0)
(1.02053 0.0117909 0)
(1.02449 0.00424696 -5.11088e-22)
(0.733472 1.25442 3.67879e-19)
(1.00227 -0.00020085 -1.34924e-19)
(1.00278 0.00337261 1.65527e-19)
(1.00104 0.00188563 0)
(1.00934 0.00798282 1.34209e-19)
(1.00775 0.00914352 -1.63426e-19)
(1.00812 0.00821724 0)
(-0.00506482 1.7968 0)
(0.00228298 1.78975 1.01302e-20)
(0.000667301 1.79104 -7.231e-21)
(1.17301 0.270392 -9.87995e-20)
(1.11241 0.081101 0)
(0.0620788 3.08599 -4.05896e-19)
(0.0541697 2.86377 -3.09926e-20)
(0.12744 3.2033 5.2891e-19)
(0.128285 3.21936 -4.35186e-20)
(0.158585 3.26524 0)
(0.0245269 3.13784 9.76591e-20)
(0.0759171 3.16267 3.98053e-19)
(0.0724948 3.18574 -1.8763e-19)
(0.0306567 3.12599 0)
(0.707026 0.35687 0)
(0.61555 0.397308 0)
(1.07688 0.714072 -1.98462e-19)
(1.02705 0.866392 2.94924e-19)
(1.10675 0.587602 0)
(1.13718 0.548781 0)
(1.01127 0.00674137 -2.53574e-19)
(1.00835 0.00702596 3.13905e-19)
(1.00832 -0.0197814 0)
(1.00771 -0.0189043 0)
(1.0118 -0.00425513 0)
(1.01337 0.000781298 0)
(1.00367 0.00340178 0)
(1.00868 0.00737619 0)
(1.00729 0.00493752 0)
(1.00388 0.0050075 0)
(-0.0236875 1.7442 0)
(-0.0256993 1.76327 0)
(-0.0551314 1.71946 0)
(-0.0809948 1.68348 0)
(0.0275674 1.86823 0)
(0.0590928 1.85995 -2.2281e-19)
(0.0118639 1.86198 0)
(0.00301701 1.84563 1.07246e-19)
(-0.0193515 1.81942 -1.10028e-19)
(-0.0272115 1.79043 0)
(-0.0261733 1.79034 0)
(-0.016553 1.7952 0)
(-0.0113824 1.79679 0)
(-0.00558323 1.80437 -3.06901e-20)
(-0.00832918 1.80273 3.93204e-20)
(0.010802 1.80989 4.86332e-20)
(0.00171496 1.80487 0)
(-0.0107995 1.80637 -6.478e-20)
(-0.00909782 1.8044 -3.82136e-20)
(-0.00435462 1.80477 2.52457e-20)
(-0.0104423 1.79993 -5.06996e-20)
(-0.00499543 1.80677 -6.08693e-20)
(1.0101 0.0143273 2.36045e-19)
(1.00792 0.00299453 -2.99513e-19)
(1.00699 0.0190051 -2.48214e-19)
(0.991549 0.0206784 3.19878e-19)
(1.03961 0.0167701 0)
(1.04327 0.0102855 0)
(1.06385 0.0336346 0)
(1.04622 0.0182939 0)
(1.06082 0.00969107 0)
(1.10022 0.0642237 0)
(1.07634 0.0430314 0)
(1.09987 0.0431323 0)
(-3.45457e-05 1.7812 -1.04536e-21)
(-0.0072726 1.77473 0)
(-0.00371264 1.77585 0)
(-0.006305 1.79984 1.03746e-20)
(-0.00408009 1.79873 -5.26809e-22)
(-0.0128436 1.77982 1.07968e-20)
(-0.0106701 1.78514 -1.08243e-20)
(-0.00887557 1.79432 0)
(-0.00836778 1.79565 0)
(-0.0101152 1.79679 0)
(-0.00982272 1.79479 0)
(-0.0104187 1.798 0)
(0.130602 1.38446 5.69114e-19)
(0.261511 1.3378 2.12302e-19)
(0.394148 1.95856 -1.44151e-19)
(0.266455 1.81987 3.4721e-19)
(-0.141626 2.34052 4.39106e-20)
(1.00964 -0.0179846 0)
(1.01447 -0.0151214 0)
(1.01172 -0.0196966 0)
(1.01003 -0.00341731 0)
(1.00474 -0.00133894 0)
(1.00529 -0.00388007 0)
(1.00852 -0.00488946 0)
(1.0075 -0.0092956 0)
(1.02505 0.00440794 2.28031e-19)
(1.02211 0.00821351 -2.96414e-19)
(1.02423 0.00372095 -2.22084e-19)
(1.02117 0.00430021 2.80645e-19)
(0.746535 1.2775 0)
(0.600228 1.33451 4.45421e-19)
(0.847528 1.17537 2.54508e-19)
(0.877958 1.16329 -3.39296e-19)
(1.13556 2.5879 -2.92523e-19)
(0.81095 0.117868 1.74907e-19)
(1.11587 0.0910745 0)
(1.16871 0.182031 8.59623e-20)
(1.1512 0.146503 4.05573e-21)
(0.972883 0.137056 0)
(0.121696 3.02586 -3.56263e-20)
(0.11202 2.89826 -4.80476e-19)
(0.051234 2.33894 3.23395e-19)
(0.187058 0.100601 -1.37572e-19)
(0.349644 3.45932 -3.16519e-19)
(0.197647 3.34629 0)
(0.231759 3.40923 4.12108e-19)
(0.23662 3.08078 -1.72607e-19)
(0.290335 3.21201 0)
(0.00662561 3.11948 2.13693e-20)
(0.0184855 3.12859 -2.65426e-19)
(0.0166154 3.1241 3.89921e-19)
(0.0384035 3.13824 0)
(0.0365352 3.14995 0)
(1.22026 2.58209 0)
(0.503045 0.821297 -1.34212e-19)
(0.961839 1.03837 -1.4513e-19)
(0.969433 1.06421 0)
(0.846146 0.930571 5.30328e-20)
(1.01451 0.888162 1.9663e-20)
(0.437992 0.464518 -3.36149e-19)
(0.731703 0.337303 -1.64286e-20)
(0.739154 0.288179 1.36216e-19)
(0.612544 0.433158 1.07851e-20)
(0.554273 0.431391 -4.45211e-19)
(0.705891 0.37153 0)
(0.663652 0.438135 2.27761e-19)
(0.675818 0.444862 0)
(0.66705 0.403546 0)
(0.678429 0.36457 0)
(0.718827 0.629029 6.73074e-20)
(1.16597 0.275745 6.44692e-20)
(1.16662 0.414024 0)
(1.16998 0.393479 0)
(0.791972 0.21687 2.01687e-19)
(0.780444 0.528875 -1.08794e-19)
(0.695944 0.496059 1.77586e-19)
(0.867542 0.416883 -1.53608e-19)
(1.01787 0.0119009 1.59862e-19)
(1.01161 0.0108973 -1.66584e-19)
(1.01237 0.014613 0)
(1.01761 0.00802204 0)
(1.01076 -0.00914317 -1.45808e-19)
(1.00552 -0.00849512 1.45013e-19)
(1.02681 0.00758346 0)
(1.02444 0.00495337 0)
(1.01627 0.00459585 0)
(1.01853 0.011204 0)
(1.02662 0.00307541 0)
(1.01996 -0.000333137 0)
(-0.0224297 1.77324 0)
(-0.0214875 1.77471 0)
(-0.0814288 1.74102 5.22517e-20)
(-0.0351487 1.54337 1.17907e-19)
(-0.0735185 1.67038 2.31507e-19)
(-0.0770265 1.59021 -3.87366e-19)
(-0.136598 1.72502 0)
(-0.110424 1.8649 -6.56077e-20)
(-0.0725324 1.8519 0)
(-0.124162 2.31533 -6.08389e-20)
(0.0212853 2.16586 3.01476e-19)
(-0.154969 1.8935 5.8193e-20)
(-0.167092 1.61878 8.29661e-20)
(-0.162048 1.69718 -6.6322e-20)
(-0.220799 1.61845 1.98216e-19)
(-0.170213 1.98735 0)
(-0.183361 2.02932 -1.04884e-19)
(-0.0301984 1.81268 -2.80792e-20)
(-0.0209337 1.82231 0)
(-0.0222375 1.80971 1.2736e-19)
(-0.030115 1.8118 0)
(-0.00460386 1.83944 -1.19046e-19)
(-0.0107439 1.83154 0)
(-0.00686607 1.79749 -2.43002e-20)
(-0.00222675 1.79963 0)
(-0.00669487 1.80254 0)
(-0.00844705 1.80021 2.69194e-20)
(0.00545532 1.81288 1.2306e-21)
(-0.010731 1.8226 1.33936e-19)
(0.00830297 1.81473 8.75208e-22)
(-0.0123659 1.79347 2.20111e-20)
(-0.0119731 1.79444 1.26851e-20)
(-0.0230556 1.7947 0)
(-0.018137 1.79641 0)
(-0.0132804 1.79767 7.06067e-20)
(-0.00603732 1.79662 4.4599e-20)
(-0.00461482 1.79789 -6.57548e-20)
(-0.0253893 1.80644 0)
(-0.010575 1.78983 -3.75105e-20)
(-0.00980502 1.79901 1.75846e-20)
(-0.00966716 1.79885 -5.37746e-21)
(-0.0119833 1.79414 -2.70922e-20)
(-0.00571871 1.80227 -9.08624e-21)
(-0.00930981 1.80427 4.40319e-20)
(1.02008 0.00567686 -1.51653e-19)
(1.01191 0.00927141 1.57465e-19)
(1.01295 0.00545897 0)
(0.994734 0.0474305 2.24906e-19)
(0.989534 0.0313341 -2.70531e-19)
(0.965417 0.0317223 3.13642e-19)
(0.98922 0.0930195 -2.95995e-20)
(1.02513 0.0110006 0)
(1.03577 0.0102231 1.30055e-19)
(1.0351 0.00674669 -1.29402e-19)
(1.0327 0.0394694 -6.83757e-21)
(1.03278 0.0255067 6.04217e-20)
(1.01002 0.0458253 0)
(1.00386 0.0423943 -2.33294e-20)
(1.00972 0.0212475 0)
(1.01635 0.0156083 0)
(1.02465 0.00968344 0)
(1.02172 0.00549208 0)
(1.01575 0.0211056 4.76874e-20)
(1.0227 0.0140812 -1.0969e-19)
(1.02145 0.0341961 -4.76299e-20)
(1.01536 0.0385311 -5.64194e-20)
(1.00984 0.0445167 9.58505e-20)
(1.04763 0.044676 0)
(1.04107 0.084046 0)
(-0.0110733 1.78994 -1.49913e-20)
(-0.00977244 1.78195 -1.20406e-21)
(-0.010242 1.78353 0)
(-0.00608248 1.7925 1.57057e-20)
(-0.00551666 1.78891 2.11348e-21)
(-0.00288658 1.79182 -2.55833e-21)
(-0.00584516 1.80486 3.40838e-20)
(-0.00558342 1.80283 -1.98218e-21)
(-0.00508869 1.80168 9.44641e-21)
(-0.0035176 1.80252 -1.68068e-20)
(-0.00400561 1.80256 2.01618e-20)
(-0.0125484 1.78427 5.19617e-22)
(-0.014086 1.7812 1.60351e-20)
(0.0108342 1.2978 -2.98272e-19)
(-0.178968 1.65239 -3.82815e-19)
(0.608304 1.30396 -4.30965e-19)
(0.437124 1.26093 -2.04086e-19)
(0.486508 1.32915 0)
(0.417705 2.04858 1.4536e-19)
(0.618584 1.90726 2.13715e-19)
(0.27668 1.83491 6.07877e-20)
(0.226343 2.10091 -3.21951e-19)
(0.2198 2.20921 3.61124e-19)
(0.3739 1.92842 0)
(0.331964 1.83571 -3.20113e-19)
(0.0926715 1.85034 5.85269e-19)
(0.210337 1.82905 -4.91241e-20)
(0.138731 1.81489 -7.87773e-19)
(0.91788 2.46282 -1.12789e-19)
(0.808003 2.32492 0)
(1.00988 -0.0110744 5.34385e-21)
(1.00877 -0.0122774 -4.43481e-21)
(1.00663 -0.0137993 -7.73736e-20)
(1.01729 -0.0156303 7.75103e-20)
(1.02228 -0.0137152 0)
(0.728485 1.17028 0)
(0.726519 1.14167 0)
(0.765543 1.07763 0)
(0.692808 1.15638 0)
(1.15524 2.61528 3.22967e-20)
(1.05364 2.32418 0)
(1.03824 2.20991 1.82337e-22)
(0.866973 2.64151 0)
(1.06659 2.64442 5.99895e-20)
(1.07708 2.56755 -3.92693e-20)
(0.82003 0.148567 0)
(0.801235 0.161495 5.05846e-20)
(0.879866 0.125362 2.53644e-19)
(0.849705 0.0972946 -1.0535e-19)
(0.860947 0.0721583 -3.00843e-19)
(1.00826 0.218352 -1.29904e-19)
(0.922023 0.245848 -8.70119e-21)
(0.908849 0.264765 2.19125e-19)
(0.961662 0.184572 1.592e-19)
(0.901702 0.168959 -3.12824e-19)
(0.875644 0.177972 4.13373e-20)
(0.935282 0.240556 -7.4168e-20)
(0.896353 0.18967 0)
(0.978152 0.163462 1.47272e-19)
(1.00054 0.179759 0)
(0.998262 0.190908 0)
(1.04477 0.0969013 3.87514e-20)
(1.0122 0.162395 -7.17497e-21)
(1.00069 0.226706 -2.36401e-20)
(1.03873 0.195563 0)
(1.00721 0.0247797 1.17219e-19)
(1.00539 0.0365697 1.36186e-19)
(1.00969 0.0299469 -1.15324e-19)
(1.00808 0.0403517 -9.15857e-20)
(0.999587 0.0524829 -1.59321e-19)
(0.956856 0.135042 0)
(0.990024 0.0925839 0)
(0.964397 0.0417718 -1.13505e-19)
(0.923205 0.0557298 4.92704e-20)
(1.00418 0.0829407 1.32202e-19)
(1.00714 0.0957931 -1.24666e-19)
(1.01504 0.145826 1.17371e-19)
(1.01171 0.132471 0)
(1.02104 0.0787994 0)
(1.00967 0.07058 -5.33116e-20)
(1.01253 0.0680732 -1.03851e-19)
(0.586841 1.2163 -3.28755e-20)
(0.568632 1.51508 5.3495e-20)
(1.08669 2.76063 1.93883e-20)
(1.16599 3.13834 -5.26933e-20)
(1.21977 2.72619 3.35723e-19)
(1.25929 2.70897 -1.80043e-19)
(1.2267 2.30772 -1.87488e-20)
(1.14985 3.03019 1.38479e-19)
(1.17373 2.97422 -1.22044e-19)
(1.15888 3.28767 -1.80567e-19)
(1.3754 2.98787 2.15475e-19)
(1.39257 2.9242 0)
(0.497501 0.858279 -6.84793e-21)
(0.254347 1.28591 1.85392e-19)
(0.482218 0.543568 2.17691e-19)
(0.340965 0.330525 2.60121e-19)
(0.556799 0.450297 2.47649e-19)
(0.537541 0.511735 -3.89892e-19)
(0.537092 0.512125 3.25414e-19)
(0.521323 0.464052 -1.30923e-19)
(0.503022 0.428036 2.99531e-19)
(0.785836 0.256621 -1.10496e-19)
(0.7552 0.2888 0)
(0.756969 0.261144 8.29551e-21)
(0.680536 0.523279 1.1545e-19)
(0.641229 0.486208 -4.29036e-19)
(0.610589 0.500434 1.51935e-20)
(0.625167 0.463121 0)
(0.666794 0.716722 7.53666e-20)
(0.750437 0.764399 3.09576e-20)
(0.704087 0.786326 -4.07894e-20)
(0.782234 0.801379 -3.76337e-21)
(0.879333 0.828972 1.31192e-20)
(0.883285 0.843169 -1.34582e-20)
(0.792324 0.624408 -1.16122e-19)
(0.865703 0.711009 3.50585e-21)
(0.930565 0.710609 0)
(0.934075 0.67799 5.20565e-21)
(0.955063 0.290339 3.26415e-20)
(1.07602 0.269474 -1.3189e-20)
(0.995059 0.241176 5.24343e-20)
(0.928411 0.332083 -7.74178e-20)
(0.963041 0.42829 0)
(1.05249 0.380207 0)
(0.823652 0.368109 2.4363e-21)
(0.842322 0.277709 0)
(0.839341 0.251964 1.18831e-19)
(0.88532 0.265788 3.84463e-21)
(0.867677 0.429497 4.20256e-19)
(0.820909 0.486478 1.03196e-19)
(0.821387 0.448737 -1.41147e-19)
(0.756128 0.426051 1.50863e-19)
(0.737071 0.435604 1.08062e-19)
(0.719473 0.44134 -1.05403e-19)
(1.02108 0.00925925 1.25722e-19)
(1.03019 0.000946705 0)
(1.02607 -0.00383378 8.48663e-20)
(1.01655 -0.00116206 -1.89372e-19)
(1.03412 0.00585227 9.03413e-20)
(1.03032 0.00693219 -1.94423e-19)
(1.02681 0.00717635 0)
(1.02226 0.00902613 -3.96089e-20)
(1.02925 0.00491746 1.01193e-19)
(1.02383 0.0101868 -5.1762e-20)
(1.02316 0.0105824 3.74066e-20)
(-0.00249263 1.80048 0)
(-0.00914297 1.80318 0)
(-0.00954246 1.78799 0)
(-0.000330458 1.79068 0)
(-0.046153 1.78084 -1.79069e-20)
(-0.0456762 1.76031 4.04994e-21)
(-0.0769326 1.83858 -2.11127e-20)
(-0.0886915 1.76372 -4.2946e-20)
(-0.0170115 1.7989 -3.53982e-20)
(-0.0285957 1.796 2.532e-20)
(-0.0369443 1.78652 -4.42457e-21)
(-0.0243493 1.80423 9.81695e-21)
(-0.0137318 1.80167 1.09557e-21)
(-0.0122947 1.80246 -3.22731e-21)
(-0.0197445 1.82114 -1.35532e-19)
(-0.0101637 1.84022 0)
(-0.0314207 1.83086 7.86645e-20)
(-0.0395112 1.83372 5.07522e-20)
(-0.0388988 1.99266 -5.23094e-20)
(0.072764 1.92894 0)
(0.0485198 1.97407 -3.43891e-19)
(0.0573812 2.07604 2.38575e-19)
(-0.0071069 1.91271 -1.53409e-19)
(-0.0310678 1.86566 8.51163e-20)
(-0.00392572 1.87391 0)
(-0.0109793 1.80267 -9.00745e-20)
(-0.00551551 1.80686 -1.18922e-19)
(-0.00496443 1.80517 0)
(-0.00891078 1.81395 -2.93886e-21)
(-0.0239053 1.81425 4.56111e-20)
(-0.0226587 1.79354 3.30802e-21)
(-0.0248932 1.79234 -5.98446e-20)
(-0.0247432 1.78652 1.2693e-20)
(-0.018924 1.78594 2.50204e-20)
(-0.012189 1.79973 0)
(-0.0209464 1.78472 0)
(-0.0124087 1.79776 1.94996e-20)
(-0.0123552 1.78313 -6.20788e-21)
(-0.0196259 1.78462 0)
(-0.0178905 1.79831 1.56156e-20)
(-0.0133701 1.79949 -2.97115e-20)
(1.02382 0.0191657 0)
(1.02576 0.0169821 -1.18215e-20)
(1.02201 0.0130149 -8.74004e-20)
(1.02306 0.0177625 0)
(1.02369 0.0228741 0)
(1.02417 0.00808542 -3.56719e-21)
(1.02446 0.00917718 1.46407e-19)
(1.0211 0.00872162 1.8019e-19)
(1.02065 0.00816392 0)
(1.01843 0.00791128 0)
(1.01985 0.0128054 8.96573e-20)
(1.01807 0.0113387 0)
(1.01918 0.0109823 0)
(-0.0104027 1.79122 0)
(-0.0136837 1.78008 1.52584e-21)
(-0.0140439 1.78301 8.74561e-21)
(-0.0119498 1.78328 0)
(-0.0128556 1.78142 1.22382e-20)
(-0.0105062 1.78294 -5.67685e-21)
(-0.00991886 1.78216 0)
(0.254064 2.41453 0)
(-0.256347 1.80607 8.00178e-19)
(-0.105331 2.2609 0)
(0.138391 1.30276 -1.07655e-18)
(0.337872 1.03417 0)
(0.179094 1.22311 4.76513e-19)
(1.10104 2.79134 2.2923e-21)
(0.944569 2.50664 1.3835e-19)
(0.78865 2.19003 5.52495e-20)
(0.874371 2.39018 8.3775e-20)
(0.991291 2.62343 0)
(1.0093 2.57276 0)
(0.88508 2.4407 0)
(0.920228 2.34825 -2.59212e-19)
(0.476422 2.7162 3.98785e-20)
(0.843564 2.70351 1.41993e-20)
(0.849869 2.66634 -1.16406e-20)
(0.564446 2.18792 0)
(0.768083 2.31386 0)
(0.715596 2.1487 -1.93889e-19)
(0.691978 2.66479 0)
(0.594126 1.10099 0)
(0.482299 0.909916 -1.94271e-20)
(0.500657 0.968707 -1.12042e-22)
(0.468505 1.09192 0)
(0.47254 1.04882 3.43741e-20)
(0.752486 0.83878 1.63032e-20)
(0.779615 0.981592 0)
(0.752008 0.944066 -6.22499e-20)
(0.601014 1.03153 0)
(0.608081 0.925585 0)
(1.13986 2.74942 9.5668e-21)
(1.11431 2.81773 1.4659e-20)
(0.907147 2.32242 -6.79497e-20)
(0.944195 2.28655 6.8096e-21)
(1.11591 2.7426 0)
(1.11121 2.7045 -9.20823e-21)
(1.05583 2.47043 -8.17314e-20)
(0.929135 2.15076 -1.89456e-20)
(0.818099 1.52719 0)
(0.716051 1.16214 2.89299e-20)
(0.712077 1.16321 0)
(0.843026 0.199786 0)
(0.81437 0.170595 0)
(0.785804 0.188275 0)
(0.838623 0.200764 -1.88279e-19)
(0.801889 0.206799 1.15859e-19)
(0.924272 0.0545022 -9.94539e-20)
(0.926677 0.0977917 0)
(0.895464 0.102771 4.68651e-20)
(0.883656 0.0620842 1.87337e-19)
(0.889848 0.0585627 -1.16155e-19)
(1.09916 3.37917 -6.48618e-19)
(1.15706 3.30654 0)
(1.12586 3.44946 -1.37917e-18)
(0.658567 3.59736 1.17922e-18)
(0.986879 3.10479 3.04793e-19)
(0.508145 0.833037 1.14276e-19)
(0.460403 0.832388 0)
(0.395629 0.549697 -4.86145e-20)
(0.409852 0.673898 2.18837e-19)
(0.498243 0.533645 -7.00919e-20)
(0.493243 0.547967 7.67047e-20)
(0.610465 0.531503 1.5543e-19)
(0.629229 0.570577 0)
(0.580306 0.607885 0)
(0.536531 0.552664 0)
(0.915185 0.574751 -3.86081e-20)
(0.855846 0.52529 -9.84313e-20)
(0.887172 0.567211 2.86311e-20)
(0.907624 0.482009 -7.19849e-20)
(0.991324 0.464565 0)
(0.9868 0.565821 1.62364e-21)
(0.793077 0.376161 -2.33709e-19)
(0.802637 0.352878 -2.80824e-19)
(0.778564 0.397019 1.82335e-19)
(0.782852 0.345739 -2.15605e-19)
(0.83218 0.287744 -1.51505e-19)
(0.814711 0.28922 1.89034e-19)
(1.03283 0.00748053 -9.24605e-20)
(1.03216 0.00957789 1.91548e-19)
(1.02335 0.0140415 1.19005e-19)
(1.02717 0.0168515 -1.42387e-19)
(1.02378 0.0221021 0)
(1.02653 0.0119041 -2.32728e-19)
(-0.0251175 1.80909 1.68094e-20)
(-0.0348197 1.80796 0)
(-0.0311147 1.80781 1.4244e-19)
(-0.0299191 1.82622 -1.3178e-19)
(-0.0615367 1.82847 3.895e-20)
(-0.0533297 1.8189 0)
(-0.0128516 1.79079 0)
(-0.0137873 1.78522 -6.58777e-21)
(-0.0133092 1.78143 5.73293e-21)
(-0.01263 1.78133 1.19861e-21)
(-0.0103026 1.7894 -1.20337e-20)
(-0.010463 1.79133 7.55007e-21)
(0.881953 1.55571 5.82165e-19)
(0.77513 1.68422 -6.08274e-19)
(0.347124 1.33811 6.14228e-19)
(0.444253 1.84467 -3.96064e-20)
(0.757532 1.09334 0)
(0.536011 1.02902 4.56365e-19)
(0.597386 1.10674 -4.41063e-19)
(0.475338 0.918531 -6.0019e-19)
(0.783448 1.01141 0)
(0.782907 1.13272 0)
(0.310115 2.68499 -6.09828e-20)
(0.450923 2.52976 5.7953e-19)
(0.562687 2.58136 -3.93424e-19)
(0.35227 2.50312 -1.22434e-19)
(0.084866 2.57545 1.51667e-19)
(0.159219 2.38898 -4.21313e-19)
(0.92227 2.37625 -3.71617e-20)
(0.967846 2.36118 0)
(0.821419 2.08233 -1.83854e-19)
(1.09695 2.69423 0)
(1.06868 2.72483 0)
(0.608766 2.34981 2.26395e-19)
(1.08613 3.1152 2.9173e-19)
(0.949997 2.98776 -3.13979e-19)
(0.352766 0.958553 0)
(0.364847 0.855491 -7.70426e-20)
(0.521257 0.758551 -3.27731e-20)
(0.391748 2.18757 0)
(0.426035 2.79166 -2.17367e-19)
(0.425047 2.54087 0)
(0.666533 0.673 -1.57372e-19)
(0.722163 0.679998 2.23321e-19)
(0.716937 0.630648 -2.23935e-19)
(0.607885 0.641581 -2.52468e-20)
(0.660329 0.605632 -1.08831e-19)
(0.937881 2.80396 -2.20327e-19)
(0.992337 2.85341 1.79251e-19)
(0.555762 2.24272 -9.76086e-20)
(0.61835 1.84632 3.71946e-20)
(0.636965 1.96428 9.19017e-21)
(0.935789 2.47298 -8.53379e-20)
(0.942181 2.47048 -3.51472e-20)
(0.637028 1.8953 -7.26479e-22)
(0.402308 1.40853 -1.80724e-20)
)
;

boundaryField
{
    wall-4
    {
        type            noSlip;
    }
    velocity-inlet-5
    {
        type            fixedValue;
        value           uniform (1 0 0);
    }
    velocity-inlet-6
    {
        type            fixedValue;
        value           uniform (0 3 0);
    }
    pressure-outlet-7
    {
        type            zeroGradient;
    }
    wall-8
    {
        type            noSlip;
    }
    frontAndBackPlanes
    {
        type            empty;
    }
}

