/*--------------------------------*- C++ -*----------------------------------*\
  =========                 |
  \\      /  F ield         | OpenFOAM: The Open Source CFD Toolbox
   \\    /   O peration     | Website:  https://openfoam.org
    \\  /    A nd           | Version:  6
     \\/     M anipulation  |
\*---------------------------------------------------------------------------*/
FoamFile
{
    version     2.0;
    format      ascii;
    class       volScalarField;
    location    "0";
    object      p;
}
// * * * * * * * * * * * * * * * * * * * * * * * * * * * * * * * * * * * * * //

dimensions      [0 2 -2 0 0 0 0];

internalField   nonuniform List<scalar> 
40000
(
0.017155
0.0171556
0.017156
0.0171555
0.0171542
0.0171519
0.0171487
0.0171446
0.0171397
0.0171342
0.0171281
0.0171215
0.0171144
0.017107
0.0170992
0.0170912
0.0170829
0.0170745
0.0170658
0.0170571
0.0170482
0.0170391
0.01703
0.0170208
0.0170115
0.0170021
0.0169926
0.016983
0.0169733
0.0169635
0.0169536
0.0169435
0.0169334
0.0169232
0.0169129
0.0169025
0.016892
0.0168814
0.0168707
0.0168599
0.016849
0.0168381
0.0168272
0.0168162
0.0168052
0.0167942
0.0167832
0.0167722
0.0167613
0.0167505
0.0167398
0.0167292
0.0167187
0.0167085
0.0166984
0.0166886
0.016679
0.0166697
0.0166608
0.0166521
0.0166439
0.0166361
0.0166287
0.0166218
0.0166154
0.0166095
0.0166042
0.0165995
0.0165954
0.016592
0.0165892
0.0165871
0.0165858
0.0165853
0.0165855
0.0165865
0.0165884
0.016591
0.0165946
0.016599
0.0166042
0.0166104
0.0166174
0.0166253
0.016634
0.0166436
0.0166541
0.0166653
0.0166774
0.0166902
0.0167038
0.016718
0.0167329
0.0167483
0.0167643
0.0167808
0.0167977
0.0168148
0.0168323
0.0168499
0.0168675
0.0168851
0.0169026
0.0169198
0.0169367
0.0169531
0.016969
0.0169841
0.0169984
0.0170118
0.0170242
0.0170354
0.0170452
0.0170537
0.0170606
0.0170659
0.0170694
0.0170711
0.0170708
0.0170685
0.0170641
0.0170574
0.0170485
0.0170373
0.0170238
0.0170078
0.0169894
0.0169685
0.0169453
0.0169195
0.0168914
0.0168609
0.0168281
0.0167929
0.0167556
0.0167161
0.0166746
0.0166311
0.0165858
0.0165387
0.0164901
0.0164399
0.0163884
0.0163358
0.016282
0.0162274
0.016172
0.016116
0.0160595
0.0160028
0.0159459
0.015889
0.0158322
0.0157758
0.0157198
0.0156643
0.0156095
0.0155556
0.0155025
0.0154505
0.0153997
0.01535
0.0153017
0.0152548
0.0152093
0.0151654
0.015123
0.0150823
0.0150433
0.015006
0.0149704
0.0149366
0.0149047
0.0148746
0.0148463
0.0148198
0.0147952
0.0147725
0.0147517
0.0147328
0.0147157
0.0147006
0.0146873
0.0146759
0.0146664
0.0146587
0.0146529
0.0146489
0.0146467
0.0146462
0.0146473
0.0146499
0.0146539
0.0146591
0.0146651
0.0146715
0.0146778
0.0146834
0.0146874
0.0146891
0.0171544
0.017155
0.0171553
0.0171548
0.0171535
0.0171513
0.0171482
0.0171443
0.0171397
0.0171344
0.0171286
0.0171223
0.0171155
0.0171083
0.0171008
0.0170931
0.0170851
0.0170769
0.0170685
0.0170599
0.0170512
0.0170424
0.0170334
0.0170244
0.0170152
0.017006
0.0169966
0.0169871
0.0169775
0.0169679
0.0169581
0.0169482
0.0169382
0.0169281
0.0169179
0.0169076
0.0168972
0.0168868
0.0168762
0.0168656
0.0168549
0.0168441
0.0168333
0.0168225
0.0168116
0.0168008
0.0167899
0.0167791
0.0167684
0.0167578
0.0167472
0.0167368
0.0167265
0.0167164
0.0167065
0.0166969
0.0166874
0.0166783
0.0166695
0.016661
0.0166529
0.0166452
0.016638
0.0166312
0.0166248
0.016619
0.0166138
0.0166091
0.0166051
0.0166016
0.0165989
0.0165968
0.0165954
0.0165948
0.0165949
0.0165958
0.0165975
0.0166
0.0166033
0.0166075
0.0166125
0.0166183
0.016625
0.0166326
0.0166409
0.0166501
0.0166601
0.0166709
0.0166825
0.0166948
0.0167077
0.0167214
0.0167356
0.0167505
0.0167658
0.0167815
0.0167977
0.0168141
0.0168308
0.0168476
0.0168644
0.0168812
0.0168978
0.0169142
0.0169303
0.0169459
0.0169609
0.0169752
0.0169887
0.0170013
0.0170128
0.0170232
0.0170323
0.01704
0.0170462
0.0170508
0.0170537
0.0170547
0.0170539
0.017051
0.0170461
0.017039
0.0170297
0.0170182
0.0170043
0.0169881
0.0169695
0.0169486
0.0169252
0.0168995
0.0168714
0.016841
0.0168084
0.0167735
0.0167364
0.0166973
0.0166562
0.0166131
0.0165683
0.0165218
0.0164737
0.0164242
0.0163734
0.0163215
0.0162685
0.0162146
0.01616
0.0161049
0.0160493
0.0159934
0.0159374
0.0158814
0.0158255
0.01577
0.0157148
0.0156602
0.0156064
0.0155533
0.0155011
0.0154499
0.0153999
0.015351
0.0153034
0.0152573
0.0152125
0.0151693
0.0151276
0.0150875
0.015049
0.0150123
0.0149773
0.014944
0.0149125
0.0148828
0.0148548
0.0148287
0.0148045
0.014782
0.0147614
0.0147427
0.0147257
0.0147106
0.0146974
0.014686
0.0146763
0.0146685
0.0146625
0.0146582
0.0146556
0.0146546
0.0146552
0.0146571
0.0146604
0.0146647
0.0146698
0.0146753
0.0146807
0.0146856
0.0146891
0.0146909
0.0171541
0.0171547
0.017155
0.0171545
0.0171531
0.017151
0.017148
0.0171444
0.01714
0.0171351
0.0171295
0.0171235
0.0171171
0.0171103
0.0171031
0.0170957
0.017088
0.0170801
0.017072
0.0170637
0.0170552
0.0170466
0.0170379
0.0170291
0.0170201
0.017011
0.0170018
0.0169925
0.0169831
0.0169736
0.016964
0.0169543
0.0169444
0.0169345
0.0169245
0.0169143
0.0169041
0.0168938
0.0168834
0.0168729
0.0168624
0.0168518
0.0168412
0.0168305
0.0168199
0.0168092
0.0167986
0.016788
0.0167775
0.0167671
0.0167567
0.0167465
0.0167364
0.0167265
0.0167168
0.0167074
0.0166981
0.0166892
0.0166806
0.0166722
0.0166643
0.0166567
0.0166496
0.0166429
0.0166367
0.016631
0.0166258
0.0166212
0.0166171
0.0166137
0.0166109
0.0166088
0.0166073
0.0166066
0.0166066
0.0166073
0.0166088
0.0166111
0.0166141
0.016618
0.0166226
0.0166281
0.0166344
0.0166415
0.0166493
0.016658
0.0166674
0.0166776
0.0166885
0.0167002
0.0167124
0.0167253
0.0167388
0.0167528
0.0167673
0.0167822
0.0167975
0.016813
0.0168287
0.0168445
0.0168604
0.0168762
0.0168918
0.0169072
0.0169223
0.0169368
0.0169508
0.0169641
0.0169766
0.0169882
0.0169988
0.0170082
0.0170164
0.0170232
0.0170286
0.0170323
0.0170344
0.0170347
0.0170332
0.0170297
0.0170242
0.0170166
0.0170068
0.0169948
0.0169806
0.0169641
0.0169453
0.0169242
0.0169008
0.016875
0.016847
0.0168167
0.0167843
0.0167496
0.0167129
0.0166742
0.0166335
0.016591
0.0165468
0.0165009
0.0164535
0.0164048
0.0163548
0.0163036
0.0162515
0.0161986
0.016145
0.0160908
0.0160362
0.0159813
0.0159264
0.0158714
0.0158166
0.0157621
0.0157081
0.0156546
0.0156017
0.0155497
0.0154985
0.0154484
0.0153993
0.0153514
0.0153048
0.0152596
0.0152157
0.0151733
0.0151324
0.0150931
0.0150554
0.0150194
0.014985
0.0149523
0.0149214
0.0148922
0.0148648
0.0148391
0.0148152
0.0147931
0.0147728
0.0147542
0.0147375
0.0147225
0.0147093
0.0146978
0.0146881
0.0146801
0.0146738
0.0146691
0.014666
0.0146645
0.0146644
0.0146656
0.0146681
0.0146714
0.0146756
0.0146802
0.0146848
0.0146891
0.0146927
0.0146948
0.0171545
0.0171552
0.0171555
0.017155
0.0171536
0.0171515
0.0171487
0.0171452
0.017141
0.0171363
0.017131
0.0171252
0.0171191
0.0171125
0.0171056
0.0170985
0.017091
0.0170834
0.0170755
0.0170675
0.0170592
0.0170509
0.0170423
0.0170337
0.0170249
0.017016
0.017007
0.0169979
0.0169886
0.0169792
0.0169698
0.0169602
0.0169505
0.0169407
0.0169308
0.0169208
0.0169108
0.0169006
0.0168903
0.01688
0.0168697
0.0168592
0.0168488
0.0168383
0.0168278
0.0168173
0.0168069
0.0167965
0.0167861
0.0167758
0.0167657
0.0167556
0.0167457
0.016736
0.0167264
0.0167171
0.0167081
0.0166993
0.0166908
0.0166826
0.0166747
0.0166673
0.0166602
0.0166536
0.0166475
0.0166418
0.0166366
0.016632
0.016628
0.0166245
0.0166217
0.0166195
0.0166179
0.016617
0.0166169
0.0166174
0.0166187
0.0166207
0.0166235
0.0166271
0.0166314
0.0166365
0.0166424
0.016649
0.0166565
0.0166646
0.0166736
0.0166832
0.0166935
0.0167046
0.0167162
0.0167284
0.0167412
0.0167545
0.0167683
0.0167824
0.0167969
0.0168116
0.0168265
0.0168415
0.0168565
0.0168715
0.0168863
0.0169008
0.016915
0.0169287
0.0169418
0.0169543
0.0169659
0.0169767
0.0169864
0.0169951
0.0170025
0.0170086
0.0170132
0.0170163
0.0170177
0.0170174
0.0170153
0.0170113
0.0170052
0.0169972
0.016987
0.0169747
0.0169602
0.0169434
0.0169244
0.0169032
0.0168796
0.0168539
0.0168259
0.0167957
0.0167633
0.0167289
0.0166924
0.0166539
0.0166136
0.0165715
0.0165277
0.0164823
0.0164355
0.0163873
0.016338
0.0162875
0.0162361
0.0161839
0.016131
0.0160776
0.0160238
0.0159698
0.0159157
0.0158616
0.0158077
0.0157541
0.015701
0.0156483
0.0155964
0.0155452
0.015495
0.0154457
0.0153975
0.0153505
0.0153047
0.0152602
0.0152171
0.0151755
0.0151353
0.0150967
0.0150597
0.0150243
0.0149905
0.0149584
0.014928
0.0148993
0.0148723
0.014847
0.0148235
0.0148017
0.0147817
0.0147633
0.0147467
0.0147319
0.0147187
0.0147072
0.0146974
0.0146893
0.0146827
0.0146778
0.0146744
0.0146724
0.0146718
0.0146725
0.0146743
0.0146771
0.0146807
0.0146848
0.0146891
0.0146934
0.0146975
0.0147004
0.0171559
0.0171566
0.0171569
0.0171563
0.0171549
0.0171529
0.0171501
0.0171466
0.0171426
0.017138
0.0171329
0.0171274
0.0171214
0.0171151
0.0171084
0.0171015
0.0170943
0.0170869
0.0170792
0.0170714
0.0170634
0.0170552
0.0170469
0.0170384
0.0170298
0.0170211
0.0170122
0.0170032
0.0169942
0.0169849
0.0169756
0.0169662
0.0169566
0.016947
0.0169372
0.0169274
0.0169174
0.0169074
0.0168973
0.0168871
0.0168769
0.0168666
0.0168563
0.016846
0.0168356
0.0168253
0.016815
0.0168047
0.0167945
0.0167844
0.0167744
0.0167645
0.0167547
0.0167451
0.0167357
0.0167266
0.0167176
0.0167089
0.0167005
0.0166924
0.0166847
0.0166773
0.0166703
0.0166637
0.0166576
0.016652
0.0166468
0.0166422
0.0166381
0.0166346
0.0166316
0.0166293
0.0166276
0.0166266
0.0166263
0.0166266
0.0166277
0.0166294
0.0166319
0.0166352
0.0166392
0.0166439
0.0166494
0.0166557
0.0166626
0.0166704
0.0166788
0.0166879
0.0166977
0.0167081
0.0167192
0.0167308
0.0167429
0.0167556
0.0167686
0.0167821
0.0167958
0.0168098
0.016824
0.0168383
0.0168525
0.0168667
0.0168808
0.0168945
0.0169079
0.0169209
0.0169333
0.016945
0.0169559
0.016966
0.016975
0.016983
0.0169897
0.0169952
0.0169992
0.0170017
0.0170026
0.0170017
0.0169991
0.0169946
0.0169882
0.0169797
0.0169692
0.0169566
0.0169418
0.0169248
0.0169056
0.0168842
0.0168606
0.0168348
0.0168067
0.0167766
0.0167443
0.01671
0.0166737
0.0166354
0.0165954
0.0165536
0.0165101
0.0164651
0.0164187
0.016371
0.0163222
0.0162722
0.0162214
0.0161698
0.0161175
0.0160648
0.0160117
0.0159584
0.015905
0.0158516
0.0157985
0.0157456
0.0156932
0.0156414
0.0155902
0.0155398
0.0154904
0.0154418
0.0153944
0.0153481
0.0153031
0.0152593
0.015217
0.015176
0.0151365
0.0150986
0.0150622
0.0150274
0.0149942
0.0149626
0.0149327
0.0149045
0.0148779
0.0148531
0.0148299
0.0148084
0.0147886
0.0147705
0.0147541
0.0147393
0.0147262
0.0147148
0.0147049
0.0146967
0.01469
0.0146848
0.0146811
0.0146788
0.0146778
0.0146781
0.0146795
0.0146819
0.0146852
0.0146891
0.0146934
0.0146981
0.014703
0.0147068
0.0171583
0.0171588
0.0171591
0.0171584
0.017157
0.0171549
0.0171521
0.0171487
0.0171447
0.0171402
0.0171353
0.0171299
0.0171241
0.017118
0.0171115
0.0171048
0.0170978
0.0170906
0.0170831
0.0170755
0.0170677
0.0170597
0.0170515
0.0170432
0.0170348
0.0170263
0.0170176
0.0170087
0.0169998
0.0169907
0.0169816
0.0169723
0.0169628
0.0169533
0.0169437
0.016934
0.0169242
0.0169143
0.0169043
0.0168943
0.0168842
0.016874
0.0168639
0.0168537
0.0168435
0.0168333
0.0168231
0.0168129
0.0168029
0.0167929
0.016783
0.0167732
0.0167636
0.0167541
0.0167448
0.0167357
0.0167268
0.0167182
0.0167099
0.0167019
0.0166942
0.0166869
0.0166799
0.0166734
0.0166672
0.0166616
0.0166564
0.0166517
0.0166475
0.0166439
0.0166409
0.0166384
0.0166366
0.0166354
0.0166349
0.016635
0.0166358
0.0166373
0.0166395
0.0166424
0.0166461
0.0166505
0.0166556
0.0166614
0.0166679
0.0166752
0.0166831
0.0166917
0.016701
0.0167109
0.0167213
0.0167324
0.0167439
0.0167559
0.0167684
0.0167812
0.0167943
0.0168076
0.0168211
0.0168347
0.0168483
0.0168618
0.0168751
0.0168882
0.016901
0.0169133
0.016925
0.0169361
0.0169464
0.0169558
0.0169642
0.0169716
0.0169778
0.0169827
0.0169861
0.0169881
0.0169885
0.0169872
0.0169842
0.0169793
0.0169725
0.0169637
0.0169528
0.0169399
0.0169249
0.0169077
0.0168883
0.0168668
0.0168431
0.0168172
0.0167891
0.016759
0.0167268
0.0166925
0.0166563
0.0166182
0.0165784
0.0165368
0.0164936
0.0164489
0.0164028
0.0163555
0.016307
0.0162575
0.0162071
0.016156
0.0161042
0.016052
0.0159995
0.0159467
0.015894
0.0158412
0.0157887
0.0157365
0.0156848
0.0156336
0.0155831
0.0155334
0.0154846
0.0154368
0.0153901
0.0153445
0.0153001
0.0152571
0.0152153
0.015175
0.0151362
0.0150989
0.015063
0.0150288
0.0149962
0.0149651
0.0149357
0.0149079
0.0148818
0.0148573
0.0148345
0.0148133
0.0147938
0.014776
0.0147597
0.0147451
0.0147321
0.0147206
0.0147108
0.0147024
0.0146956
0.0146903
0.0146864
0.0146838
0.0146826
0.0146826
0.0146837
0.0146859
0.014689
0.0146929
0.0146975
0.0147026
0.0147085
0.0147132
0.0171616
0.017162
0.0171621
0.0171613
0.0171597
0.0171575
0.0171547
0.0171513
0.0171474
0.0171429
0.0171381
0.0171328
0.0171272
0.0171212
0.0171149
0.0171083
0.0171015
0.0170945
0.0170872
0.0170797
0.0170721
0.0170643
0.0170563
0.0170482
0.0170399
0.0170315
0.017023
0.0170143
0.0170055
0.0169966
0.0169876
0.0169784
0.0169691
0.0169597
0.0169503
0.0169407
0.016931
0.0169212
0.0169113
0.0169014
0.0168915
0.0168814
0.0168714
0.0168613
0.0168512
0.0168411
0.016831
0.016821
0.016811
0.0168011
0.0167914
0.0167817
0.0167721
0.0167627
0.0167535
0.0167445
0.0167357
0.0167272
0.0167189
0.0167109
0.0167032
0.0166959
0.0166889
0.0166824
0.0166762
0.0166705
0.0166653
0.0166605
0.0166562
0.0166525
0.0166493
0.0166467
0.0166447
0.0166433
0.0166425
0.0166424
0.016643
0.0166442
0.0166461
0.0166487
0.016652
0.016656
0.0166607
0.0166661
0.0166722
0.016679
0.0166864
0.0166946
0.0167033
0.0167127
0.0167226
0.0167331
0.0167441
0.0167555
0.0167673
0.0167795
0.016792
0.0168048
0.0168177
0.0168307
0.0168436
0.0168566
0.0168693
0.0168818
0.0168939
0.0169057
0.0169168
0.0169273
0.0169371
0.016946
0.0169539
0.0169607
0.0169664
0.0169708
0.0169739
0.0169754
0.0169754
0.0169737
0.0169703
0.0169651
0.016958
0.0169489
0.0169378
0.0169246
0.0169094
0.016892
0.0168725
0.0168508
0.016827
0.016801
0.0167729
0.0167427
0.0167105
0.0166763
0.0166402
0.0166022
0.0165624
0.016521
0.016478
0.0164335
0.0163877
0.0163406
0.0162924
0.0162432
0.0161932
0.0161424
0.0160911
0.0160393
0.0159872
0.0159349
0.0158826
0.0158304
0.0157784
0.0157268
0.0156756
0.015625
0.0155751
0.015526
0.0154778
0.0154306
0.0153845
0.0153395
0.0152958
0.0152533
0.0152122
0.0151725
0.0151342
0.0150975
0.0150622
0.0150285
0.0149964
0.0149658
0.0149369
0.0149096
0.0148839
0.0148598
0.0148373
0.0148165
0.0147972
0.0147796
0.0147635
0.014749
0.0147361
0.0147248
0.0147149
0.0147065
0.0146997
0.0146942
0.0146901
0.0146874
0.014686
0.0146858
0.0146868
0.0146889
0.014692
0.0146961
0.014701
0.0147067
0.0147135
0.0147192
0.0171659
0.0171661
0.0171658
0.0171648
0.0171631
0.0171608
0.0171579
0.0171544
0.0171505
0.0171461
0.0171413
0.0171361
0.0171306
0.0171247
0.0171185
0.0171121
0.0171055
0.0170986
0.0170915
0.0170842
0.0170767
0.0170691
0.0170612
0.0170533
0.0170452
0.0170369
0.0170285
0.01702
0.0170114
0.0170026
0.0169937
0.0169846
0.0169755
0.0169662
0.0169568
0.0169473
0.0169378
0.0169281
0.0169184
0.0169086
0.0168987
0.0168888
0.0168788
0.0168688
0.0168588
0.0168488
0.0168389
0.0168289
0.016819
0.0168092
0.0167995
0.0167899
0.0167804
0.0167711
0.0167619
0.0167529
0.0167442
0.0167356
0.0167274
0.0167194
0.0167117
0.0167044
0.0166974
0.0166908
0.0166845
0.0166788
0.0166734
0.0166685
0.0166641
0.0166602
0.0166569
0.0166541
0.0166519
0.0166503
0.0166493
0.0166489
0.0166491
0.01665
0.0166516
0.0166539
0.0166568
0.0166604
0.0166647
0.0166697
0.0166753
0.0166817
0.0166887
0.0166963
0.0167046
0.0167134
0.0167228
0.0167328
0.0167432
0.0167541
0.0167654
0.0167771
0.016789
0.0168012
0.0168136
0.016826
0.0168384
0.0168508
0.016863
0.016875
0.0168866
0.0168978
0.0169085
0.0169185
0.0169278
0.0169362
0.0169437
0.0169502
0.0169555
0.0169595
0.0169621
0.0169633
0.016963
0.016961
0.0169573
0.0169518
0.0169444
0.0169351
0.0169237
0.0169104
0.016895
0.0168774
0.0168577
0.016836
0.016812
0.016786
0.0167578
0.0167276
0.0166954
0.0166612
0.016625
0.0165871
0.0165474
0.0165061
0.0164632
0.0164188
0.0163731
0.0163262
0.0162783
0.0162293
0.0161795
0.016129
0.016078
0.0160265
0.0159748
0.0159229
0.015871
0.0158191
0.0157676
0.0157164
0.0156657
0.0156156
0.0155662
0.0155176
0.0154699
0.0154232
0.0153776
0.0153332
0.01529
0.0152481
0.0152075
0.0151684
0.0151307
0.0150944
0.0150597
0.0150265
0.0149949
0.0149648
0.0149363
0.0149094
0.0148841
0.0148604
0.0148383
0.0148178
0.0147988
0.0147814
0.0147656
0.0147512
0.0147385
0.0147272
0.0147174
0.014709
0.0147021
0.0146966
0.0146924
0.0146896
0.0146881
0.0146878
0.0146888
0.0146909
0.0146941
0.0146983
0.0147036
0.0147099
0.0147177
0.0147243
0.017171
0.0171709
0.0171704
0.0171691
0.0171671
0.0171646
0.0171616
0.0171581
0.0171541
0.0171497
0.0171449
0.0171397
0.0171343
0.0171285
0.0171224
0.0171161
0.0171096
0.0171029
0.0170959
0.0170888
0.0170814
0.0170739
0.0170663
0.0170585
0.0170505
0.0170424
0.0170341
0.0170258
0.0170172
0.0170086
0.0169998
0.0169909
0.0169818
0.0169727
0.0169634
0.016954
0.0169446
0.016935
0.0169254
0.0169156
0.0169059
0.016896
0.0168862
0.0168762
0.0168663
0.0168564
0.0168465
0.0168366
0.0168268
0.016817
0.0168074
0.0167978
0.0167883
0.016779
0.0167699
0.0167609
0.0167522
0.0167437
0.0167354
0.0167274
0.0167196
0.0167122
0.0167052
0.0166985
0.0166922
0.0166862
0.0166808
0.0166757
0.0166712
0.0166671
0.0166636
0.0166606
0.0166581
0.0166562
0.0166549
0.0166542
0.0166542
0.0166548
0.016656
0.0166579
0.0166604
0.0166636
0.0166675
0.0166721
0.0166773
0.0166832
0.0166897
0.0166968
0.0167046
0.016713
0.0167219
0.0167313
0.0167413
0.0167516
0.0167624
0.0167736
0.016785
0.0167967
0.0168086
0.0168205
0.0168324
0.0168443
0.0168561
0.0168676
0.0168788
0.0168896
0.0168998
0.0169094
0.0169183
0.0169264
0.0169335
0.0169396
0.0169446
0.0169483
0.0169506
0.0169516
0.0169509
0.0169487
0.0169447
0.016939
0.0169314
0.0169219
0.0169104
0.0168969
0.0168813
0.0168636
0.0168439
0.0168219
0.0167979
0.0167718
0.0167436
0.0167133
0.016681
0.0166468
0.0166107
0.0165727
0.0165331
0.0164918
0.0164489
0.0164046
0.0163591
0.0163123
0.0162644
0.0162156
0.016166
0.0161157
0.0160648
0.0160136
0.0159621
0.0159105
0.0158588
0.0158074
0.0157561
0.0157053
0.015655
0.0156052
0.0155562
0.0155081
0.0154609
0.0154146
0.0153695
0.0153256
0.0152828
0.0152414
0.0152014
0.0151627
0.0151255
0.0150898
0.0150555
0.0150228
0.0149916
0.014962
0.014934
0.0149075
0.0148826
0.0148593
0.0148375
0.0148173
0.0147986
0.0147815
0.0147658
0.0147517
0.014739
0.0147279
0.0147181
0.0147098
0.0147029
0.0146974
0.0146932
0.0146903
0.0146888
0.0146885
0.0146895
0.0146916
0.014695
0.0146995
0.0147052
0.0147122
0.0147208
0.0147282
0.0171769
0.0171765
0.0171755
0.0171739
0.0171718
0.017169
0.0171658
0.0171622
0.0171581
0.0171537
0.0171489
0.0171437
0.0171383
0.0171326
0.0171266
0.0171204
0.017114
0.0171073
0.0171005
0.0170935
0.0170863
0.0170789
0.0170714
0.0170637
0.0170559
0.0170479
0.0170398
0.0170316
0.0170232
0.0170146
0.0170059
0.0169971
0.0169882
0.0169792
0.01697
0.0169607
0.0169513
0.0169419
0.0169323
0.0169227
0.016913
0.0169032
0.0168934
0.0168835
0.0168737
0.0168638
0.0168539
0.0168441
0.0168343
0.0168246
0.0168149
0.0168054
0.0167959
0.0167866
0.0167775
0.0167685
0.0167597
0.0167511
0.0167428
0.0167347
0.0167269
0.0167194
0.0167123
0.0167054
0.016699
0.0166929
0.0166873
0.0166821
0.0166773
0.016673
0.0166692
0.016666
0.0166632
0.016661
0.0166594
0.0166584
0.016658
0.0166583
0.0166591
0.0166606
0.0166627
0.0166655
0.016669
0.0166731
0.0166778
0.0166833
0.0166893
0.016696
0.0167033
0.0167111
0.0167196
0.0167285
0.016738
0.0167479
0.0167582
0.0167689
0.0167798
0.016791
0.0168024
0.0168139
0.0168254
0.0168369
0.0168483
0.0168594
0.0168702
0.0168806
0.0168905
0.0168998
0.0169083
0.0169161
0.0169229
0.0169288
0.0169335
0.0169369
0.0169391
0.0169398
0.0169389
0.0169365
0.0169324
0.0169265
0.0169188
0.0169091
0.0168975
0.0168838
0.0168682
0.0168504
0.0168305
0.0168085
0.0167844
0.0167582
0.0167299
0.0166996
0.0166673
0.016633
0.0165968
0.0165589
0.0165192
0.0164779
0.0164351
0.0163908
0.0163452
0.0162985
0.0162507
0.016202
0.0161524
0.0161022
0.0160515
0.0160005
0.0159491
0.0158977
0.0158463
0.015795
0.015744
0.0156935
0.0156434
0.015594
0.0155454
0.0154975
0.0154507
0.0154049
0.0153601
0.0153166
0.0152743
0.0152333
0.0151937
0.0151555
0.0151187
0.0150835
0.0150497
0.0150174
0.0149867
0.0149575
0.0149299
0.0149038
0.0148793
0.0148563
0.0148349
0.014815
0.0147966
0.0147797
0.0147643
0.0147504
0.0147379
0.0147268
0.0147172
0.014709
0.0147021
0.0146966
0.0146924
0.0146896
0.014688
0.0146878
0.0146888
0.0146911
0.0146947
0.0146995
0.0147056
0.0147131
0.0147226
0.0147306
0.0171836
0.0171828
0.0171813
0.0171794
0.0171769
0.0171739
0.0171705
0.0171667
0.0171625
0.017158
0.0171531
0.017148
0.0171426
0.0171369
0.017131
0.0171248
0.0171185
0.017112
0.0171052
0.0170983
0.0170913
0.017084
0.0170766
0.0170691
0.0170614
0.0170535
0.0170455
0.0170374
0.0170291
0.0170207
0.0170121
0.0170034
0.0169946
0.0169856
0.0169766
0.0169674
0.0169581
0.0169487
0.0169392
0.0169296
0.0169199
0.0169102
0.0169005
0.0168907
0.0168808
0.016871
0.0168611
0.0168513
0.0168415
0.0168318
0.0168222
0.0168126
0.0168031
0.0167938
0.0167846
0.0167755
0.0167667
0.016758
0.0167496
0.0167414
0.0167335
0.0167259
0.0167186
0.0167116
0.016705
0.0166987
0.0166928
0.0166874
0.0166824
0.0166778
0.0166738
0.0166702
0.0166672
0.0166647
0.0166627
0.0166613
0.0166605
0.0166604
0.0166608
0.0166619
0.0166636
0.0166659
0.0166689
0.0166726
0.0166769
0.0166818
0.0166874
0.0166936
0.0167004
0.0167077
0.0167157
0.0167242
0.0167331
0.0167426
0.0167524
0.0167626
0.0167732
0.0167839
0.0167949
0.016806
0.0168171
0.0168282
0.0168392
0.01685
0.0168605
0.0168706
0.0168802
0.0168892
0.0168975
0.016905
0.0169117
0.0169173
0.0169218
0.0169251
0.016927
0.0169276
0.0169267
0.0169241
0.0169199
0.0169139
0.0169061
0.0168963
0.0168846
0.0168709
0.0168552
0.0168373
0.0168174
0.0167953
0.0167712
0.0167449
0.0167166
0.0166862
0.0166538
0.0166195
0.0165833
0.0165453
0.0165056
0.0164643
0.0164214
0.0163771
0.0163315
0.0162848
0.016237
0.0161883
0.0161388
0.0160887
0.016038
0.015987
0.0159358
0.0158844
0.0158331
0.015782
0.0157312
0.0156809
0.015631
0.0155819
0.0155335
0.015486
0.0154394
0.0153939
0.0153495
0.0153063
0.0152644
0.0152238
0.0151846
0.0151468
0.0151104
0.0150756
0.0150422
0.0150104
0.0149801
0.0149513
0.0149241
0.0148984
0.0148743
0.0148516
0.0148305
0.014811
0.0147929
0.0147762
0.0147611
0.0147473
0.014735
0.0147241
0.0147146
0.0147065
0.0146997
0.0146942
0.0146901
0.0146873
0.0146858
0.0146856
0.0146867
0.0146892
0.0146929
0.0146981
0.0147046
0.0147126
0.0147227
0.0147314
0.0171909
0.0171896
0.0171877
0.0171853
0.0171825
0.0171793
0.0171756
0.0171716
0.0171673
0.0171626
0.0171577
0.0171525
0.0171471
0.0171414
0.0171355
0.0171295
0.0171232
0.0171167
0.0171101
0.0171033
0.0170963
0.0170892
0.0170819
0.0170745
0.0170669
0.0170592
0.0170513
0.0170433
0.0170351
0.0170268
0.0170183
0.0170097
0.0170009
0.0169921
0.0169831
0.0169739
0.0169647
0.0169554
0.0169459
0.0169364
0.0169268
0.0169171
0.0169073
0.0168976
0.0168877
0.0168779
0.0168681
0.0168582
0.0168484
0.0168387
0.016829
0.0168194
0.0168098
0.0168004
0.0167911
0.016782
0.0167731
0.0167643
0.0167557
0.0167474
0.0167393
0.0167315
0.016724
0.0167168
0.01671
0.0167035
0.0166974
0.0166916
0.0166863
0.0166815
0.0166771
0.0166732
0.0166698
0.0166669
0.0166646
0.0166628
0.0166616
0.016661
0.016661
0.0166616
0.0166628
0.0166647
0.0166672
0.0166704
0.0166742
0.0166786
0.0166837
0.0166894
0.0166957
0.0167026
0.01671
0.016718
0.0167265
0.0167355
0.0167449
0.0167547
0.0167648
0.0167751
0.0167857
0.0167964
0.0168072
0.016818
0.0168286
0.0168391
0.0168493
0.0168592
0.0168685
0.0168773
0.0168855
0.0168928
0.0168993
0.0169048
0.0169091
0.0169123
0.0169142
0.0169147
0.0169137
0.0169111
0.0169068
0.0169008
0.0168929
0.0168832
0.0168714
0.0168577
0.0168419
0.0168241
0.0168041
0.0167821
0.0167579
0.0167316
0.0167032
0.0166728
0.0166404
0.0166061
0.0165698
0.0165318
0.016492
0.0164507
0.0164078
0.0163634
0.0163178
0.016271
0.0162232
0.0161745
0.016125
0.0160748
0.0160242
0.0159732
0.015922
0.0158707
0.0158195
0.0157685
0.0157178
0.0156675
0.0156178
0.0155689
0.0155207
0.0154733
0.015427
0.0153818
0.0153377
0.0152948
0.0152532
0.0152129
0.0151741
0.0151366
0.0151006
0.0150661
0.0150332
0.0150017
0.0149718
0.0149434
0.0149166
0.0148913
0.0148675
0.0148452
0.0148244
0.0148052
0.0147874
0.014771
0.0147561
0.0147426
0.0147305
0.0147197
0.0147103
0.0147023
0.0146956
0.0146903
0.0146862
0.0146835
0.0146821
0.014682
0.0146832
0.0146858
0.0146898
0.0146952
0.014702
0.0147105
0.0147212
0.0147304
0.0171987
0.017197
0.0171945
0.0171917
0.0171885
0.017185
0.0171811
0.0171768
0.0171723
0.0171676
0.0171625
0.0171573
0.0171518
0.0171461
0.0171403
0.0171342
0.017128
0.0171216
0.0171151
0.0171084
0.0171015
0.0170945
0.0170873
0.01708
0.0170725
0.0170648
0.0170571
0.0170491
0.017041
0.0170328
0.0170244
0.0170159
0.0170072
0.0169984
0.0169895
0.0169804
0.0169712
0.0169619
0.0169525
0.016943
0.0169334
0.0169237
0.016914
0.0169042
0.0168944
0.0168845
0.0168746
0.0168648
0.0168549
0.0168451
0.0168353
0.0168256
0.016816
0.0168065
0.0167971
0.0167879
0.0167788
0.0167698
0.0167611
0.0167526
0.0167443
0.0167363
0.0167285
0.0167211
0.016714
0.0167072
0.0167007
0.0166947
0.0166891
0.0166838
0.0166791
0.0166748
0.016671
0.0166676
0.0166649
0.0166626
0.016661
0.0166599
0.0166594
0.0166595
0.0166602
0.0166616
0.0166636
0.0166662
0.0166695
0.0166734
0.0166779
0.0166831
0.0166889
0.0166953
0.0167022
0.0167097
0.0167178
0.0167263
0.0167352
0.0167446
0.0167543
0.0167643
0.0167745
0.0167848
0.0167953
0.0168057
0.0168161
0.0168264
0.0168363
0.016846
0.0168552
0.0168638
0.0168718
0.016879
0.0168854
0.0168908
0.0168951
0.0168983
0.0169001
0.0169006
0.0168996
0.016897
0.0168928
0.0168868
0.016879
0.0168692
0.0168576
0.0168439
0.0168282
0.0168103
0.0167904
0.0167684
0.0167442
0.016718
0.0166896
0.0166592
0.0166268
0.0165924
0.0165562
0.0165181
0.0164783
0.0164369
0.0163939
0.0163496
0.0163039
0.016257
0.0162092
0.0161604
0.0161108
0.0160606
0.0160099
0.0159589
0.0159077
0.0158564
0.0158052
0.0157542
0.0157036
0.0156534
0.0156038
0.0155549
0.0155069
0.0154597
0.0154136
0.0153685
0.0153246
0.015282
0.0152407
0.0152007
0.0151621
0.015125
0.0150893
0.0150552
0.0150226
0.0149915
0.0149619
0.0149339
0.0149074
0.0148824
0.014859
0.0148371
0.0148166
0.0147977
0.0147801
0.0147641
0.0147494
0.0147361
0.0147242
0.0147136
0.0147044
0.0146965
0.0146899
0.0146847
0.0146807
0.0146781
0.0146768
0.0146768
0.0146781
0.0146809
0.014685
0.0146907
0.0146978
0.0147067
0.0147179
0.0147275
0.017207
0.0172048
0.0172018
0.0171985
0.0171949
0.017191
0.0171868
0.0171824
0.0171777
0.0171727
0.0171676
0.0171622
0.0171567
0.017151
0.0171452
0.0171391
0.0171329
0.0171266
0.0171201
0.0171135
0.0171067
0.0170998
0.0170927
0.0170854
0.017078
0.0170705
0.0170628
0.017055
0.017047
0.0170388
0.0170305
0.017022
0.0170134
0.0170047
0.0169958
0.0169867
0.0169776
0.0169683
0.0169589
0.0169494
0.0169398
0.0169301
0.0169204
0.0169106
0.0169007
0.0168908
0.0168809
0.0168709
0.016861
0.0168511
0.0168412
0.0168314
0.0168216
0.016812
0.0168024
0.016793
0.0167837
0.0167746
0.0167656
0.0167569
0.0167483
0.01674
0.016732
0.0167242
0.0167168
0.0167096
0.0167029
0.0166964
0.0166904
0.0166848
0.0166796
0.0166748
0.0166705
0.0166667
0.0166634
0.0166607
0.0166585
0.0166569
0.0166558
0.0166554
0.0166556
0.0166564
0.0166578
0.0166599
0.0166626
0.0166659
0.0166699
0.0166745
0.0166798
0.0166856
0.016692
0.016699
0.0167066
0.0167146
0.0167231
0.016732
0.0167413
0.0167509
0.0167608
0.0167708
0.0167809
0.0167911
0.0168013
0.0168113
0.0168211
0.0168305
0.0168396
0.0168481
0.016856
0.0168632
0.0168695
0.0168749
0.0168792
0.0168824
0.0168843
0.0168849
0.0168839
0.0168815
0.0168773
0.0168714
0.0168637
0.0168541
0.0168426
0.016829
0.0168134
0.0167957
0.0167759
0.0167539
0.0167299
0.0167037
0.0166754
0.016645
0.0166127
0.0165783
0.0165421
0.016504
0.0164642
0.0164227
0.0163797
0.0163353
0.0162896
0.0162427
0.0161947
0.0161459
0.0160963
0.016046
0.0159953
0.0159442
0.0158929
0.0158416
0.0157904
0.0157393
0.0156887
0.0156385
0.015589
0.0155402
0.0154922
0.0154451
0.0153991
0.0153542
0.0153105
0.0152681
0.0152269
0.0151872
0.0151489
0.015112
0.0150766
0.0150428
0.0150105
0.0149797
0.0149505
0.0149228
0.0148966
0.014872
0.0148489
0.0148273
0.0148072
0.0147885
0.0147712
0.0147554
0.014741
0.0147279
0.0147162
0.0147059
0.0146968
0.0146891
0.0146826
0.0146775
0.0146736
0.0146711
0.0146699
0.01467
0.0146715
0.0146743
0.0146787
0.0146845
0.014692
0.0147011
0.0147128
0.0147227
0.0172157
0.017213
0.0172094
0.0172057
0.0172016
0.0171974
0.0171928
0.0171881
0.0171832
0.0171781
0.0171728
0.0171674
0.0171618
0.017156
0.0171501
0.0171441
0.0171379
0.0171316
0.0171252
0.0171186
0.0171119
0.0171051
0.017098
0.0170909
0.0170836
0.0170761
0.0170685
0.0170607
0.0170528
0.0170447
0.0170365
0.017028
0.0170195
0.0170108
0.0170019
0.0169929
0.0169838
0.0169745
0.0169651
0.0169556
0.0169459
0.0169362
0.0169264
0.0169166
0.0169066
0.0168966
0.0168866
0.0168766
0.0168665
0.0168565
0.0168465
0.0168365
0.0168266
0.0168167
0.016807
0.0167973
0.0167878
0.0167784
0.0167692
0.0167601
0.0167513
0.0167427
0.0167343
0.0167262
0.0167183
0.0167108
0.0167036
0.0166967
0.0166902
0.0166841
0.0166784
0.0166731
0.0166683
0.0166639
0.0166601
0.0166568
0.016654
0.0166518
0.0166501
0.0166491
0.0166486
0.0166488
0.0166496
0.016651
0.0166531
0.0166558
0.0166592
0.0166632
0.0166679
0.0166732
0.0166791
0.0166855
0.0166925
0.0167001
0.0167081
0.0167166
0.0167255
0.0167347
0.0167442
0.0167539
0.0167637
0.0167736
0.0167835
0.0167933
0.016803
0.0168123
0.0168212
0.0168297
0.0168376
0.0168447
0.0168511
0.0168566
0.016861
0.0168642
0.0168663
0.016867
0.0168662
0.0168639
0.0168599
0.0168542
0.0168467
0.0168373
0.0168259
0.0168126
0.0167972
0.0167796
0.01676
0.0167383
0.0167144
0.0166883
0.0166602
0.0166299
0.0165977
0.0165634
0.0165272
0.0164892
0.0164494
0.016408
0.016365
0.0163205
0.0162748
0.0162278
0.0161798
0.0161309
0.0160812
0.0160308
0.01598
0.0159289
0.0158775
0.0158261
0.0157748
0.0157238
0.0156731
0.0156229
0.0155734
0.0155246
0.0154766
0.0154296
0.0153837
0.0153389
0.0152953
0.015253
0.015212