/*--------------------------------*- C++ -*----------------------------------*\
  =========                 |
  \\      /  F ield         | OpenFOAM: The Open Source CFD Toolbox
   \\    /   O peration     | Website:  https://openfoam.org
    \\  /    A nd           | Version:  6
     \\/     M anipulation  |
\*---------------------------------------------------------------------------*/
FoamFile
{
    version     2.0;
    format      ascii;
    class       volVectorField;
    location    "0";
    object      U_rec;
}
// * * * * * * * * * * * * * * * * * * * * * * * * * * * * * * * * * * * * * //

dimensions      [0 1 -1 0 0 0 0];

internalField   nonuniform List<vector> 
40000
(
(5.75264e-07 -5.75336e-07 0)
(2.94025e-06 -9.55521e-07 0)
(5.66316e-06 -9.1919e-07 0)
(7.81208e-06 -6.16304e-07 0)
(8.60695e-06 -1.94579e-07 0)
(7.70438e-06 2.75873e-07 0)
(4.97838e-06 7.53739e-07 0)
(4.22186e-07 1.21575e-06 0)
(-5.90009e-06 1.65003e-06 0)
(-1.38852e-05 2.051e-06 0)
(-2.34101e-05 2.41659e-06 0)
(-3.43432e-05 2.74661e-06 0)
(-4.65522e-05 3.04205e-06 0)
(-5.99066e-05 3.30453e-06 0)
(-7.4282e-05 3.53607e-06 0)
(-8.95605e-05 3.73884e-06 0)
(-0.000105632 3.91515e-06 0)
(-0.000122395 4.06727e-06 0)
(-0.000139757 4.19746e-06 0)
(-0.000157632 4.30793e-06 0)
(-0.000175944 4.40074e-06 0)
(-0.000194625 4.47791e-06 0)
(-0.000213613 4.54125e-06 0)
(-0.000232855 4.59249e-06 0)
(-0.000252302 4.63322e-06 0)
(-0.000271915 4.66487e-06 0)
(-0.000291656 4.68874e-06 0)
(-0.000311494 4.706e-06 0)
(-0.000331405 4.71771e-06 0)
(-0.000351365 4.72478e-06 0)
(-0.000371355 4.72803e-06 0)
(-0.000391361 4.72816e-06 0)
(-0.000411369 4.72577e-06 0)
(-0.000431368 4.72138e-06 0)
(-0.000451351 4.71541e-06 0)
(-0.000471311 4.70823e-06 0)
(-0.000491241 4.70009e-06 0)
(-0.000511138 4.69122e-06 0)
(-0.000530998 4.68178e-06 0)
(-0.000550817 4.67188e-06 0)
(-0.000570594 4.66157e-06 0)
(-0.000590326 4.65088e-06 0)
(-0.00061001 4.63978e-06 0)
(-0.000629645 4.62822e-06 0)
(-0.000649226 4.61614e-06 0)
(-0.000668752 4.60342e-06 0)
(-0.000688219 4.58994e-06 0)
(-0.000707624 4.57557e-06 0)
(-0.00072696 4.56015e-06 0)
(-0.000746225 4.54352e-06 0)
(-0.00076541 4.52549e-06 0)
(-0.000784511 4.50589e-06 0)
(-0.00080352 4.48452e-06 0)
(-0.000822429 4.4612e-06 0)
(-0.000841228 4.43572e-06 0)
(-0.00085991 4.40788e-06 0)
(-0.000878461 4.3775e-06 0)
(-0.000896873 4.34437e-06 0)
(-0.000915132 4.30828e-06 0)
(-0.000933226 4.26907e-06 0)
(-0.00095114 4.22651e-06 0)
(-0.000968862 4.18043e-06 0)
(-0.000986375 4.13066e-06 0)
(-0.00100366 4.07699e-06 0)
(-0.00102071 4.01928e-06 0)
(-0.0010375 3.95736e-06 0)
(-0.00105401 3.89103e-06 0)
(-0.00107023 3.82019e-06 0)
(-0.00108614 3.74467e-06 0)
(-0.00110171 3.66432e-06 0)
(-0.00111692 3.57905e-06 0)
(-0.00113176 3.48872e-06 0)
(-0.00114621 3.39321e-06 0)
(-0.00116024 3.29244e-06 0)
(-0.00117383 3.18631e-06 0)
(-0.00118695 3.07475e-06 0)
(-0.00119959 2.95771e-06 0)
(-0.00121172 2.83512e-06 0)
(-0.00122333 2.70699e-06 0)
(-0.00123438 2.57325e-06 0)
(-0.00124485 2.43392e-06 0)
(-0.00125472 2.289e-06 0)
(-0.00126397 2.13853e-06 0)
(-0.00127257 1.98255e-06 0)
(-0.00128051 1.82112e-06 0)
(-0.00128776 1.65434e-06 0)
(-0.00129429 1.48227e-06 0)
(-0.00130009 1.30507e-06 0)
(-0.00130514 1.12288e-06 0)
(-0.00130941 9.35857e-07 0)
(-0.00131289 7.44176e-07 0)
(-0.00131556 5.48025e-07 0)
(-0.0013174 3.47647e-07 0)
(-0.00131839 1.43282e-07 0)
(-0.00131852 -6.4806e-08 0)
(-0.00131778 -2.76329e-07 0)
(-0.00131614 -4.90987e-07 0)
(-0.00131361 -7.08454e-07 0)
(-0.00131016 -9.2839e-07 0)
(-0.00130579 -1.15042e-06 0)
(-0.0013005 -1.37416e-06 0)
(-0.00129426 -1.59922e-06 0)
(-0.0012871 -1.82518e-06 0)
(-0.00127899 -2.05161e-06 0)
(-0.00126994 -2.27806e-06 0)
(-0.00125994 -2.50407e-06 0)
(-0.00124901 -2.72917e-06 0)
(-0.00123715 -2.95289e-06 0)
(-0.00122436 -3.17471e-06 0)
(-0.00121066 -3.39415e-06 0)
(-0.00119605 -3.61072e-06 0)
(-0.00118056 -3.82388e-06 0)
(-0.00116418 -4.03315e-06 0)
(-0.00114695 -4.238e-06 0)
(-0.00112887 -4.43793e-06 0)
(-0.00110998 -4.63246e-06 0)
(-0.00109029 -4.82107e-06 0)
(-0.00106983 -5.00327e-06 0)
(-0.00104863 -5.1786e-06 0)
(-0.00102672 -5.34661e-06 0)
(-0.00100412 -5.50682e-06 0)
(-0.000980877 -5.65881e-06 0)
(-0.00095702 -5.80217e-06 0)
(-0.000932582 -5.93655e-06 0)
(-0.000907607 -6.06151e-06 0)
(-0.000882127 -6.17678e-06 0)
(-0.000856189 -6.28201e-06 0)
(-0.000829832 -6.37694e-06 0)
(-0.000803098 -6.46128e-06 0)
(-0.00077603 -6.5348e-06 0)
(-0.000748676 -6.59734e-06 0)
(-0.000721081 -6.64877e-06 0)
(-0.000693287 -6.68884e-06 0)
(-0.000665343 -6.71761e-06 0)
(-0.000637297 -6.7349e-06 0)
(-0.000609193 -6.74074e-06 0)
(-0.00058108 -6.73512e-06 0)
(-0.000553006 -6.7181e-06 0)
(-0.000525014 -6.68974e-06 0)
(-0.000497153 -6.65012e-06 0)
(-0.00046947 -6.59942e-06 0)
(-0.000442007 -6.53781e-06 0)
(-0.000414812 -6.46544e-06 0)
(-0.000387926 -6.38253e-06 0)
(-0.000361394 -6.2894e-06 0)
(-0.000335256 -6.18624e-06 0)
(-0.000309554 -6.07338e-06 0)
(-0.000284327 -5.95112e-06 0)
(-0.000259612 -5.8198e-06 0)
(-0.000235449 -5.67975e-06 0)
(-0.000211872 -5.53132e-06 0)
(-0.000188914 -5.37491e-06 0)
(-0.000166608 -5.21088e-06 0)
(-0.000144987 -5.03961e-06 0)
(-0.000124078 -4.86152e-06 0)
(-0.000103908 -4.67699e-06 0)
(-8.45079e-05 -4.48641e-06 0)
(-6.58985e-05 -4.2902e-06 0)
(-4.81039e-05 -4.08875e-06 0)
(-3.11457e-05 -3.88248e-06 0)
(-1.50421e-05 -3.67177e-06 0)
(1.86163e-07 -3.45702e-06 0)
(1.45249e-05 -3.23864e-06 0)
(2.79579e-05 -3.01702e-06 0)
(4.0472e-05 -2.79254e-06 0)
(5.20558e-05 -2.56561e-06 0)
(6.26998e-05 -2.33662e-06 0)
(7.23947e-05 -2.10596e-06 0)
(8.11349e-05 -1.87403e-06 0)
(8.89144e-05 -1.64126e-06 0)
(9.57313e-05 -1.40806e-06 0)
(0.000101583 -1.17487e-06 0)
(0.000106471 -9.42157e-07 0)
(0.000110397 -7.10407e-07 0)
(0.000113367 -4.8015e-07 0)
(0.000115387 -2.51976e-07 0)
(0.000116469 -2.6503e-08 0)
(0.000116623 1.95543e-07 0)
(0.000115867 4.13375e-07 0)
(0.00011422 6.26067e-07 0)
(0.000111706 8.32584e-07 0)
(0.000108353 1.0317e-06 0)
(0.000104197 1.22203e-06 0)
(9.92768e-05 1.40192e-06 0)
(9.36411e-05 1.56944e-06 0)
(8.73463e-05 1.72233e-06 0)
(8.04598e-05 1.85792e-06 0)
(7.30599e-05 1.97304e-06 0)
(6.52391e-05 2.06395e-06 0)
(5.71063e-05 2.1262e-06 0)
(4.87884e-05 2.15444e-06 0)
(4.04355e-05 2.14224e-06 0)
(3.22235e-05 2.08174e-06 0)
(2.4359e-05 1.96319e-06 0)
(1.70847e-05 1.77459e-06 0)
(1.06833e-05 1.50176e-06 0)
(5.47548e-06 1.13071e-06 0)
(1.80075e-06 6.52712e-07 0)
(-7.4561e-08 9.31705e-08 0)
(-2.94516e-07 -2.94558e-07 0)
(9.58475e-07 -2.94309e-06 0)
(5.12286e-06 -5.11272e-06 0)
(9.13855e-06 -4.53925e-06 0)
(1.12003e-05 -2.19908e-06 0)
(9.7649e-06 1.13108e-06 0)
(4.0429e-06 4.93398e-06 0)
(-6.31896e-06 8.88367e-06 0)
(-2.14009e-05 1.27823e-05 0)
(-4.11046e-05 1.65143e-05 0)
(-6.52221e-05 2.0015e-05 0)
(-9.34805e-05 2.32511e-05 0)
(-0.00012557 2.62093e-05 0)
(-0.00016117 2.88878e-05 0)
(-0.000199953 3.12933e-05 0)
(-0.000241601 3.3437e-05 0)
(-0.000285807 3.53334e-05 0)
(-0.000332279 3.6999e-05 0)
(-0.000380747 3.84511e-05 0)
(-0.000430958 3.97076e-05 0)
(-0.00048268 4.0786e-05 0)
(-0.000535702 4.17037e-05 0)
(-0.000589833 4.24774e-05 0)
(-0.0006449 4.31226e-05 0)
(-0.000700751 4.36544e-05 0)
(-0.000757249 4.40863e-05 0)
(-0.000814274 4.44311e-05 0)
(-0.000871721 4.47005e-05 0)
(-0.000929501 4.49048e-05 0)
(-0.000987533 4.50537e-05 0)
(-0.00104575 4.51555e-05 0)
(-0.00110409 4.52176e-05 0)
(-0.00116252 4.52467e-05 0)
(-0.00122098 4.52483e-05 0)
(-0.00127944 4.52274e-05 0)
(-0.00133787 4.51879e-05 0)
(-0.00139626 4.51334e-05 0)
(-0.00145458 4.50665e-05 0)
(-0.00151281 4.49895e-05 0)
(-0.00157094 4.49039e-05 0)
(-0.00162896 4.4811e-05 0)
(-0.00168685 4.47114e-05 0)
(-0.00174462 4.46056e-05 0)
(-0.00180223 4.44935e-05 0)
(-0.00185969 4.43749e-05 0)
(-0.00191699 4.42492e-05 0)
(-0.00197412 4.41155e-05 0)
(-0.00203105 4.3973e-05 0)
(-0.00208779 4.38205e-05 0)
(-0.00214431 4.36565e-05 0)
(-0.0022006 4.34797e-05 0)
(-0.00225664 4.32886e-05 0)
(-0.00231241 4.30817e-05 0)
(-0.00236789 4.2857e-05 0)
(-0.00242305 4.2613e-05 0)
(-0.00247787 4.2348e-05 0)
(-0.00253231 4.20602e-05 0)
(-0.00258635 4.17477e-05 0)
(-0.00263996 4.14088e-05 0)
(-0.00269309 4.10417e-05 0)
(-0.00274571 4.06446e-05 0)
(-0.00279779 4.0216e-05 0)
(-0.00284927 3.9754e-05 0)
(-0.00290012 3.9257e-05 0)
(-0.00295029 3.87235e-05 0)
(-0.00299973 3.81518e-05 0)
(-0.0030484 3.75404e-05 0)
(-0.00309623 3.68881e-05 0)
(-0.00314318 3.61933e-05 0)
(-0.00318919 3.54547e-05 0)
(-0.0032342 3.46712e-05 0)
(-0.00327817 3.38416e-05 0)
(-0.00332102 3.2965e-05 0)
(-0.0033627 3.20404e-05 0)
(-0.00340314 3.10667e-05 0)
(-0.00344229 3.00436e-05 0)
(-0.00348008 2.89701e-05 0)
(-0.00351644 2.78462e-05 0)
(-0.00355132 2.66711e-05 0)
(-0.00358464 2.54445e-05 0)
(-0.00361634 2.41669e-05 0)
(-0.00364636 2.28376e-05 0)
(-0.00367463 2.14572e-05 0)
(-0.0037011 2.00263e-05 0)
(-0.00372568 1.85447e-05 0)
(-0.00374833 1.70136e-05 0)
(-0.00376898 1.54337e-05 0)
(-0.00378756 1.38063e-05 0)
(-0.00380403 1.21322e-05 0)
(-0.00381832 1.04129e-05 0)
(-0.00383038 8.64999e-06 0)
(-0.00384015 6.84526e-06 0)
(-0.00384759 5.00066e-06 0)
(-0.00385263 3.11822e-06 0)
(-0.00385526 1.20027e-06 0)
(-0.00385541 -7.50696e-07 0)
(-0.00385305 -2.73195e-06 0)
(-0.00384814 -4.74065e-06 0)
(-0.00384065 -6.77386e-06 0)
(-0.00383056 -8.82834e-06 0)
(-0.00381784 -1.09007e-05 0)
(-0.00380246 -1.29874e-05 0)
(-0.00378442 -1.50848e-05 0)
(-0.00376371 -1.71892e-05 0)
(-0.00374032 -1.92964e-05 0)
(-0.00371426 -2.14026e-05 0)
(-0.00368551 -2.35034e-05 0)
(-0.0036541 -2.55946e-05 0)
(-0.00362005 -2.76719e-05 0)
(-0.00358337 -2.97308e-05 0)
(-0.00354409 -3.17668e-05 0)
(-0.00350224 -3.37754e-05 0)
(-0.00345786 -3.5752e-05 0)
(-0.003411 -3.76921e-05 0)
(-0.00336171 -3.95909e-05 0)
(-0.00331004 -4.14442e-05 0)
(-0.00325604 -4.32475e-05 0)
(-0.00319979 -4.49959e-05 0)
(-0.00314136 -4.66858e-05 0)
(-0.00308083 -4.83124e-05 0)
(-0.00301828 -4.98717e-05 0)
(-0.00295379 -5.13598e-05 0)
(-0.00288746 -5.27728e-05 0)
(-0.00281939 -5.41073e-05 0)
(-0.00274966 -5.53594e-05 0)
(-0.00267841 -5.65261e-05 0)
(-0.00260572 -5.76044e-05 0)
(-0.00253172 -5.85916e-05 0)
(-0.00245652 -5.94848e-05 0)
(-0.00238023 -6.02817e-05 0)
(-0.00230299 -6.09808e-05 0)
(-0.00222491 -6.15797e-05 0)
(-0.00214613 -6.20775e-05 0)
(-0.00206676 -6.24723e-05 0)
(-0.00198694 -6.27642e-05 0)
(-0.0019068 -6.2952e-05 0)
(-0.00182647 -6.30353e-05 0)
(-0.00174608 -6.30145e-05 0)
(-0.00166576 -6.28897e-05 0)
(-0.00158565 -6.26614e-05 0)
(-0.00150586 -6.23307e-05 0)
(-0.00142654 -6.18986e-05 0)
(-0.0013478 -6.13664e-05 0)
(-0.00126977 -6.0736e-05 0)
(-0.00119258 -6.0009e-05 0)
(-0.00111634 -5.91878e-05 0)
(-0.00104117 -5.82745e-05 0)
(-0.000967193 -5.72718e-05 0)
(-0.000894509 -5.61822e-05 0)
(-0.00082323 -5.50085e-05 0)
(-0.000753463 -5.37539e-05 0)
(-0.000685309 -5.24214e-05 0)
(-0.000618863 -5.10143e-05 0)
(-0.000554215 -4.9536e-05 0)
(-0.000491464 -4.79897e-05 0)
(-0.00043068 -4.6379e-05 0)
(-0.000371961 -4.47074e-05 0)
(-0.000315369 -4.29784e-05 0)
(-0.000260975 -4.11956e-05 0)
(-0.000208849 -3.93627e-05 0)
(-0.000159065 -3.74831e-05 0)
(-0.000111664 -3.55606e-05 0)
(-6.67041e-05 -3.35987e-05 0)
(-2.42447e-05 -3.1601e-05 0)
(1.56811e-05 -2.95713e-05 0)
(5.30334e-05 -2.75131e-05 0)
(8.77708e-05 -2.54299e-05 0)
(0.000119868 -2.33256e-05 0)
(0.000149293 -2.1204e-05 0)
(0.000176034 -1.90687e-05 0)
(0.000200072 -1.69239e-05 0)
(0.000221388 -1.47735e-05 0)
(0.000239988 -1.26218e-05 0)
(0.000255864 -1.04734e-05 0)
(0.000269029 -8.33316e-06 0)
(0.00027949 -6.20616e-06 0)
(0.000287274 -4.09826e-06 0)
(0.000292406 -2.01564e-06 0)
(0.000294922 3.4602e-08 0)
(0.000294871 2.04471e-06 0)
(0.000292305 4.00564e-06 0)
(0.0002873 5.90735e-06 0)
(0.000279936 7.73817e-06 0)
(0.000270316 9.48484e-06 0)
(0.000258552 1.11318e-05 0)
(0.000244789 1.26613e-05 0)
(0.000229187 1.40525e-05 0)
(0.000211936 1.52815e-05 0)
(0.000193261 1.63205e-05 0)
(0.000173417 1.71374e-05 0)
(0.000152705 1.76947e-05 0)
(0.00013147 1.79495e-05 0)
(0.000110111 1.7852e-05 0)
(8.90839e-05 1.73451e-05 0)
(6.89071e-05 1.63636e-05 0)
(5.01667e-05 1.48358e-05 0)
(3.35107e-05 1.26913e-05 0)
(1.96261e-05 9.88565e-06 0)
(9.18514e-06 6.46347e-06 0)
(2.74143e-06 2.74682e-06 0)
(9.22039e-08 -7.56019e-08 0)
(9.27412e-07 -5.68059e-06 0)
(4.5699e-06 -9.1368e-06 0)
(6.83451e-06 -6.80157e-06 0)
(5.56117e-06 -7.52326e-07 0)
(-1.07702e-06 7.48619e-06 0)
(-1.4093e-05 1.68494e-05 0)
(-3.39885e-05 2.66235e-05 0)
(-6.09159e-05 3.63477e-05 0)
(-9.47814e-05 4.57343e-05 0)
(-0.00013533 5.46101e-05 0)
(-0.0001822 6.28769e-05 0)
(-0.00023497 7.04858e-05 0)
(-0.000293184 7.74204e-05 0)
(-0.000356372 8.36862e-05 0)
(-0.000424068 8.93033e-05 0)
(-0.000495817 9.43014e-05 0)
(-0.000571182 9.87167e-05 0)
(-0.000649753 0.000102589 0)
(-0.000731142 0.00010596 0)
(-0.000814994 0.000108872 0)
(-0.000900978 0.000111367 0)
(-0.000988798 0.000113486 0)
(-0.00107818 0.000115268 0)
(-0.00116888 0.000116751 0)
(-0.00126069 0.000117968 0)
(-0.0013534 0.000118953 0)
(-0.00144687 0.000119735 0)
(-0.00154091 0.00012034 0)
(-0.00163541 0.000120794 0)
(-0.00173027 0.000121118 0)
(-0.00182538 0.000121331 0)
(-0.00192065 0.000121451 0)
(-0.00201603 0.000121493 0)
(-0.00211143 0.000121469 0)
(-0.00220683 0.000121391 0)
(-0.00230216 0.000121267 0)
(-0.0023974 0.000121105 0)
(-0.00249251 0.000120912 0)
(-0.00258748 0.00012069 0)
(-0.00268226 0.000120445 0)
(-0.00277684 0.000120177 0)
(-0.0028712 0.000119889 0)
(-0.00296532 0.00011958 0)
(-0.00305918 0.00011925 0)
(-0.00315277 0.000118898 0)
(-0.00324605 0.000118521 0)
(-0.00333902 0.000118118 0)
(-0.00343163 0.000117686 0)
(-0.00352387 0.000117221 0)
(-0.00361571 0.000116719 0)
(-0.00370712 0.000116177 0)
(-0.00379805 0.000115591 0)
(-0.00388849 0.000114957 0)
(-0.00397837 0.000114269 0)
(-0.00406766 0.000113524 0)
(-0.00415632 0.000112717 0)
(-0.00424428 0.000111843 0)
(-0.00433149 0.000110898 0)
(-0.00441791 0.000109878 0)
(-0.00450346 0.000108777 0)
(-0.00458808 0.000107591 0)
(-0.0046717 0.000106316 0)
(-0.00475426 0.000104948 0)
(-0.00483567 0.000103483 0)
(-0.00491587 0.000101915 0)
(-0.00499476 0.000100242 0)
(-0.00507227 9.84603e-05 0)
(-0.0051483 9.65657e-05 0)
(-0.00522278 9.45553e-05 0)
(-0.00529561 9.2426e-05 0)
(-0.0053667 9.01752e-05 0)
(-0.00543595 8.77997e-05 0)
(-0.00550326 8.52972e-05 0)
(-0.00556854 8.26659e-05 0)
(-0.00563169 7.99043e-05 0)
(-0.00569261 7.70109e-05 0)
(-0.00575118 7.3983e-05 0)
(-0.00580733 7.08216e-05 0)
(-0.00586093 6.75259e-05 0)
(-0.00591188 6.40947e-05 0)
(-0.0059601 6.05299e-05 0)
(-0.00600546 5.68306e-05 0)
(-0.00604788 5.2999e-05 0)
(-0.00608724 4.90365e-05 0)
(-0.00612345 4.49446e-05 0)
(-0.00615642 4.07257e-05 0)
(-0.00618606 3.6383e-05 0)
(-0.00621224 3.19194e-05 0)
(-0.00623491 2.73386e-05 0)
(-0.00625399 2.26461e-05 0)
(-0.00626937 1.78445e-05 0)
(-0.00628097 1.29413e-05 0)
(-0.00628872 7.94014e-06 0)
(-0.00629258 2.84865e-06 0)
(-0.00629244 -2.32749e-06 0)
(-0.00628828 -7.5806e-06 0)
(-0.00628001 -1.29034e-05 0)
(-0.00626761 -1.82877e-05 0)
(-0.00625102 -2.37252e-05 0)
(-0.00623022 -2.92073e-05 0)
(-0.00620518 -3.47245e-05 0)
(-0.00617588 -4.02671e-05 0)
(-0.00614228 -4.58252e-05 0)
(-0.0061044 -5.13886e-05 0)
(-0.00606225 -5.69465e-05 0)
(-0.00601583 -6.2488e-05 0)
(-0.00596516 -6.80024e-05 0)
(-0.00591024 -7.34779e-05 0)
(-0.00585116 -7.89033e-05 0)
(-0.00578793 -8.42665e-05 0)
(-0.00572061 -8.95564e-05 0)
(-0.00564926 -9.47614e-05 0)
(-0.00557393 -9.98682e-05 0)
(-0.00549475 -0.000104867 0)
(-0.00541178 -0.000109744 0)
(-0.0053251 -0.00011449 0)
(-0.00523485 -0.000119092 0)
(-0.00514111 -0.00012354 0)
(-0.00504404 -0.000127821 0)
(-0.00494376 -0.000131927 0)
(-0.00484038 -0.000135847 0)
(-0.00473407 -0.00013957 0)
(-0.00462499 -0.000143088 0)
(-0.00451328 -0.000146392 0)
(-0.0043991 -0.000149472 0)
(-0.00428265 -0.000152322 0)
(-0.0041641 -0.000154935 0)
(-0.00404362 -0.000157302 0)
(-0.00392141 -0.00015942 0)
(-0.00379765 -0.000161282 0)
(-0.00367254 -0.000162884 0)
(-0.00354628 -0.000164222 0)
(-0.00341907 -0.000165294 0)
(-0.00329111 -0.000166096 0)
(-0.00316261 -0.000166628 0)
(-0.00303377 -0.000166888 0)
(-0.00290481 -0.000166877 0)
(-0.00277591 -0.000166594 0)
(-0.0026473 -0.000166042 0)
(-0.00251917 -0.000165223 0)
(-0.00239172 -0.000164139 0)
(-0.00226516 -0.000162794 0)
(-0.00213969 -0.000161191 0)
(-0.00201548 -0.000159337 0)
(-0.00189275 -0.000157235 0)
(-0.00177166 -0.000154893 0)
(-0.00165241 -0.000152316 0)
(-0.00153516 -0.00014951 0)
(-0.00142011 -0.000146484 0)
(-0.0013074 -0.000143245 0)
(-0.00119719 -0.0001398 0)
(-0.00108966 -0.000136158 0)
(-0.000984933 -0.000132328 0)
(-0.000883173 -0.000128318 0)
(-0.000784491 -0.000124136 0)
(-0.000689034 -0.000119793 0)
(-0.000596924 -0.000115296 0)
(-0.000508266 -0.000110656 0)
(-0.00042317 -0.000105882 0)
(-0.000341749 -0.000100982 0)
(-0.000264089 -9.5967e-05 0)
(-0.000190284 -9.08452e-05 0)
(-0.0001204 -8.56266e-05 0)
(-5.45287e-05 -8.03204e-05 0)
(7.27657e-06 -7.49366e-05 0)
(6.49532e-05 -6.94843e-05 0)
(0.000118448 -6.3973e-05 0)
(0.000167724 -5.84141e-05 0)
(0.000212741 -5.28167e-05 0)
(0.000253465 -4.71914e-05 0)
(0.000289893 -4.15494e-05 0)
(0.000322001 -3.59028e-05 0)
(0.000349792 -3.02632e-05 0)
(0.00037328 -2.46434e-05 0)
(0.000392481 -1.9059e-05 0)
(0.000407431 -1.35245e-05 0)
(0.000418172 -8.05699e-06 0)
(0.000424764 -2.67541e-06 0)
(0.000427283 2.59799e-06 0)
(0.000425823 7.7399e-06 0)
(0.000420491 1.27239e-05 0)
(0.000411428 1.75179e-05 0)
(0.000398793 2.20862e-05 0)
(0.000382777 2.63896e-05 0)
(0.000363602 3.0381e-05 0)
(0.000341526 3.40074e-05 0)
(0.000316856 3.72074e-05 0)
(0.000289934 3.99117e-05 0)
(0.000261167 4.20405e-05 0)
(0.000231015 4.35042e-05 0)
(0.000200001 4.42005e-05 0)
(0.000168723 4.40163e-05 0)
(0.000137849 4.28263e-05 0)
(0.000108122 4.04955e-05 0)
(8.03588e-05 3.68863e-05 0)
(5.54327e-05 3.18799e-05 0)
(3.42346e-05 2.54262e-05 0)
(1.76213e-05 1.76592e-05 0)
(6.43676e-06 9.18198e-06 0)
(6.48368e-07 1.79093e-06 0)
(6.28962e-07 -7.85466e-06 0)
(2.23213e-06 -1.12095e-05 0)
(7.59131e-07 -5.51878e-06 0)
(-6.05448e-06 6.02816e-06 0)
(-2.0021e-05 2.11349e-05 0)
(-4.22075e-05 3.815e-05 0)
(-7.3168e-05 5.59201e-05 0)
(-0.000113082 7.3669e-05 0)
(-0.000161857 9.08887e-05 0)
(-0.000219206 0.00010726 0)
(-0.000284713 0.000122588 0)
(-0.000357878 0.00013677 0)
(-0.000438151 0.000149757 0)
(-0.000524958 0.000161547 0)
(-0.000617722 0.000172165 0)
(-0.000715871 0.000181656 0)
(-0.000818854 0.000190078 0)
(-0.000926146 0.000197498 0)
(-0.00103725 0.000203989 0)
(-0.0011517 0.000209625 0)
(-0.00126908 0.000214478 0)
(-0.00138899 0.000218624 0)
(-0.00151106 0.000222133 0)
(-0.00163498 0.000225072 0)
(-0.00176047 0.000227504 0)
(-0.00188725 0.00022949 0)
(-0.0020151 0.000231085 0)
(-0.00214381 0.000232336 0)
(-0.0022732 0.000233292 0)
(-0.00240312 0.000233992 0)
(-0.00253345 0.000234474 0)
(-0.00266404 0.00023477 0)
(-0.00279481 0.000234907 0)
(-0.00292566 0.000234911 0)
(-0.00305653 0.000234801 0)
(-0.00318735 0.000234597 0)
(-0.00331805 0.000234312 0)
(-0.0034486 0.000233957 0)
(-0.00357896 0.000233543 0)
(-0.00370908 0.000233075 0)
(-0.00383892 0.000232558 0)
(-0.00396846 0.000231994 0)
(-0.00409767 0.000231385 0)
(-0.00422652 0.000230731 0)
(-0.00435496 0.000230027 0)
(-0.00448298 0.000229272 0)
(-0.00461054 0.000228462 0)
(-0.00473759 0.00022759 0)
(-0.00486411 0.000226653 0)
(-0.00499005 0.000225641 0)
(-0.00511535 0.000224549 0)
(-0.00523999 0.000223368 0)
(-0.00536388 0.000222092 0)
(-0.005487 0.000220711 0)
(-0.00560927 0.000219217 0)
(-0.00573062 0.000217602 0)
(-0.00585098 0.000215858 0)
(-0.00597027 0.000213975 0)
(-0.00608843 0.000211945 0)
(-0.00620535 0.00020976 0)
(-0.00632096 0.000207412 0)
(-0.00643515 0.000204891 0)
(-0.00654785 0.00020219 0)
(-0.00665893 0.000199301 0)
(-0.00676829 0.000196218 0)
(-0.00687584 0.000192932 0)
(-0.00698144 0.000189437 0)
(-0.00708499 0.000185726 0)
(-0.00718636 0.000181794 0)
(-0.00728543 0.000177633 0)
(-0.00738209 0.00017324 0)
(-0.00747619 0.000168609 0)
(-0.00756761 0.000163738 0)
(-0.00765621 0.00015862 0)
(-0.00774187 0.000153252 0)
(-0.00782444 0.000147635 0)
(-0.00790378 0.000141763 0)
(-0.00797978 0.000135637 0)
(-0.00805228 0.000129255 0)
(-0.00812114 0.000122618 0)
(-0.00818623 0.000115727 0)
(-0.00824742 0.000108583 0)
(-0.00830458 0.000101188 0)
(-0.00835755 9.35465e-05 0)
(-0.0084062 8.56607e-05 0)
(-0.00845046 7.75359e-05 0)
(-0.00849013 6.91789e-05 0)
(-0.00852514 6.05951e-05 0)
(-0.00855534 5.17924e-05 0)
(-0.00858066 4.27786e-05 0)
(-0.00860093 3.35639e-05 0)
(-0.0086161 2.41572e-05 0)
(-0.00862604 1.45695e-05 0)
(-0.00863069 4.81353e-06 0)
(-0.00862993 -5.0981e-06 0)
(-0.00862373 -1.51521e-05 0)
(-0.00861198 -2.53341e-05 0)
(-0.00859463 -3.56283e-05 0)
(-0.00857165 -4.60194e-05 0)
(-0.00854298 -5.64903e-05 0)
(-0.00850857 -6.7023e-05 0)
(-0.0084684 -7.76e-05 0)
(-0.0084225 -8.82019e-05 0)
(-0.00837082 -9.88093e-05 0)
(-0.00831337 -0.000109403 0)
(-0.0082502 -0.000119961 0)
(-0.0081813 -0.000130464 0)
(-0.00810673 -0.000140889 0)
(-0.00802654 -0.000151215 0)
(-0.00794078 -0.000161421 0)
(-0.00784955 -0.000171485 0)
(-0.00775291 -0.000181383 0)
(-0.00765096 -0.000191096 0)
(-0.00754383 -0.000200599 0)
(-0.00743161 -0.000209873 0)
(-0.00731445 -0.000218895 0)
(-0.00719248 -0.000227643 0)
(-0.00706587 -0.000236098 0)
(-0.00693478 -0.000244239 0)
(-0.00679937 -0.000252045 0)
(-0.00665984 -0.0002595 0)
(-0.00651638 -0.000266583 0)
(-0.00636918 -0.000273278 0)
(-0.00621847 -0.000279568 0)
(-0.00606448 -0.000285437 0)
(-0.00590741 -0.00029087 0)
(-0.00574751 -0.000295857 0)
(-0.00558501 -0.000300382 0)
(-0.00542018 -0.000304434 0)
(-0.00525327 -0.000308007 0)
(-0.00508452 -0.000311089 0)
(-0.00491419 -0.000313674 0)
(-0.00474258 -0.000315756 0)
(-0.00456994 -0.000317331 0)
(-0.00439653 -0.000318395 0)
(-0.00422263 -0.000318949 0)
(-0.00404852 -0.00031899 0)
(-0.00387446 -0.00031852 0)
(-0.00370073 -0.000317542 0)
(-0.0035276 -0.000316059 0)
(-0.00335533 -0.000314076 0)
(-0.00318419 -0.000311601 0)
(-0.00301445 -0.00030864 0)
(-0.00284635 -0.000305202 0)
(-0.00268016 -0.000301296 0)
(-0.00251612 -0.000296933 0)
(-0.00235447 -0.000292126 0)
(-0.00219545 -0.000286885 0)
(-0.00203929 -0.000281225 0)
(-0.0018862 -0.00027516 0)
(-0.00173642 -0.000268705 0)
(-0.00159014 -0.000261874 0)
(-0.00144757 -0.000254682 0)
(-0.00130889 -0.000247148 0)
(-0.00117428 -0.000239285 0)
(-0.00104393 -0.000231113 0)
(-0.000918004 -0.000222646 0)
(-0.00079665 -0.000213904 0)
(-0.000680012 -0.000204902 0)
(-0.000568245 -0.000195658 0)
(-0.000461463 -0.000186191 0)
(-0.000359791 -0.000176517 0)
(-0.000263348 -0.000166655 0)
(-0.000172222 -0.000156623 0)
(-8.65103e-05 -0.000146438 0)
(-6.29833e-06 -0.000136118 0)
(6.83529e-05 -0.000125684 0)
(0.000137375 -0.000115153 0)
(0.000200724 -0.000104546 0)
(0.000258352 -9.38836e-05 0)
(0.000310238 -8.31865e-05 0)
(0.000356357 -7.24767e-05 0)
(0.000396723 -6.17787e-05 0)
(0.000431337 -5.11184e-05 0)
(0.000460228 -4.0523e-05 0)
(0.00048344 -3.00224e-05 0)
(0.000501022 -1.96507e-05 0)
(0.000513079 -9.44436e-06 0)
(0.000519689 5.55175e-07 0)
(0.000520986 1.03021e-05 0)
(0.000517125 1.97441e-05 0)
(0.000508292 2.88218e-05 0)
(0.000494688 3.7468e-05 0)
(0.000476586 4.56074e-05 0)
(0.000454276 5.3152e-05 0)
(0.000428103 6.00041e-05 0)
(0.000398467 6.60522e-05 0)
(0.000365825 7.11687e-05 0)
(0.000330698 7.52124e-05 0)
(0.000293681 7.80257e-05 0)
(0.00025544 7.94322e-05 0)
(0.000216723 7.92427e-05 0)
(0.000178354 7.72542e-05 0)
(0.000141238 7.32569e-05 0)
(0.000106347 6.70495e-05 0)
(7.47068e-05 5.84712e-05 0)
(4.73545e-05 4.74725e-05 0)
(2.53229e-05 3.42573e-05 0)
(9.82424e-06 1.95884e-05 0)
(1.12028e-06 5.44162e-06 0)
(2.06358e-07 -8.67097e-06 0)
(-1.14605e-06 -9.74177e-06 0)
(-7.64077e-06 1.21387e-06 0)
(-2.14914e-05 2.00648e-05 0)
(-4.42876e-05 4.38109e-05 0)
(-7.70233e-05 7.02456e-05 0)
(-0.00012022 9.77851e-05 0)
(-0.000174034 0.000125329 0)
(-0.000238346 0.000152132 0)
(-0.000312837 0.000177709 0)
(-0.000397045 0.000201752 0)
(-0.000490411 0.000224085 0)
(-0.000592316 0.00024462 0)
(-0.000702108 0.000263336 0)
(-0.000819123 0.000280256 0)
(-0.0009427 0.00029544 0)
(-0.0010722 0.000308966 0)
(-0.001207 0.000320932 0)
(-0.00134651 0.000331441 0)
(-0.0014902 0.000340604 0)
(-0.00163754 0.000348532 0)
(-0.00178807 0.000355337 0)
(-0.00194133 0.000361127 0)
(-0.00209696 0.000366005 0)
(-0.00225458 0.00037007 0)
(-0.00241389 0.000373412 0)
(-0.00257458 0.00037612 0)
(-0.00273642 0.00037827 0)
(-0.00289918 0.000379935 0)
(-0.00306265 0.000381179 0)
(-0.00322667 0.000382059 0)
(-0.00339109 0.000382629 0)
(-0.00355577 0.000382932 0)
(-0.00372061 0.000383008 0)
(-0.00388549 0.00038289 0)
(-0.00405033 0.000382607 0)
(-0.00421507 0.000382182 0)
(-0.00437963 0.000381634 0)
(-0.00454396 0.000380979 0)
(-0.00470799 0.000380226 0)
(-0.00487169 0.000379385 0)
(-0.005035 0.000378459 0)
(-0.0051979 0.00037745 0)
(-0.00536031 0.000376358 0)
(-0.00552221 0.00037518 0)
(-0.00568355 0.000373911 0)
(-0.00584429 0.000372545 0)
(-0.00600436 0.000371073 0)
(-0.00616374 0.000369488 0)
(-0.00632234 0.000367777 0)
(-0.00648012 0.000365931 0)
(-0.006637 0.000363937 0)
(-0.00679293 0.000361782 0)
(-0.00694782 0.000359455 0)
(-0.00710159 0.000356941 0)
(-0.00725416 0.000354228 0)
(-0.00740544 0.000351301 0)
(-0.00755533 0.000348148 0)
(-0.00770373 0.000344754 0)
(-0.00785053 0.000341106 0)
(-0.00799562 0.000337192 0)
(-0.00813888 0.000332997 0)
(-0.00828018 0.000328509 0)
(-0.00841942 0.000323717 0)
(-0.00855643 0.000318609 0)
(-0.0086911 0.000313172 0)
(-0.00882327 0.000307397 0)
(-0.00895283 0.000301272 0)
(-0.00907958 0.000294789 0)
(-0.0092034 0.00028794 0)
(-0.00932412 0.000280712 0)
(-0.00944159 0.000273104 0)
(-0.00955564 0.000265105 0)
(-0.00966612 0.000256713 0)
(-0.00977284 0.000247919 0)
(-0.00987566 0.000238721 0)
(-0.00997438 0.000229117 0)
(-0.0100689 0.000219107 0)
(-0.0101589 0.000208685 0)
(-0.0102444 0.000197856 0)
(-0.0103251 0.000186621 0)
(-0.0104009 0.000174981 0)
(-0.0104716 0.000162941 0)
(-0.0105371 0.000150508 0)
(-0.0105971 0.000137687 0)
(-0.0106516 0.000124488 0)
(-0.0107004 0.000110918 0)
(-0.0107433 9.69886e-05 0)
(-0.0107802 8.27138e-05 0)
(-0.0108109 6.81053e-05 0)
(-0.0108355 5.318e-05 0)
(-0.0108536 3.79529e-05 0)
(-0.0108652 2.24425e-05 0)
(-0.0108702 6.66816e-06 0)
(-0.0108684 -9.35028e-06 0)
(-0.0108599 -2.55895e-05 0)
(-0.0108445 -4.20268e-05 0)
(-0.0108221 -5.86378e-05 0)
(-0.0107928 -7.53964e-05 0)
(-0.0107563 -9.22759e-05 0)
(-0.0107128 -0.000109248 0)
(-0.0106622 -0.000126283 0)
(-0.0106044 -0.000143351 0)
(-0.0105395 -0.000160422 0)
(-0.0104674 -0.000177463 0)
(-0.0103883 -0.000194441 0)
(-0.010302 -0.000211324 0)
(-0.0102088 -0.000228077 0)
(-0.0101087 -0.000244667 0)
(-0.0100017 -0.000261058 0)
(-0.00988796 -0.000277217 0)
(-0.00976755 -0.000293108 0)
(-0.00964059 -0.000308696 0)
(-0.00950726 -0.000323948 0)
(-0.00936761 -0.000338827 0)
(-0.00922194 -0.000353301 0)
(-0.00907035 -0.000367337 0)
(-0.00891302 -0.0003809 0)
(-0.00875018 -0.000393961 0)
(-0.00858205 -0.000406487 0)
(-0.00840882 -0.000418447 0)
(-0.00823075 -0.000429817 0)
(-0.00804812 -0.000440565 0)
(-0.00786112 -0.000450668 0)
(-0.0076701 -0.0004601 0)
(-0.00747528 -0.000468838 0)
(-0.00727695 -0.000476861 0)
(-0.00707544 -0.000484151 0)
(-0.00687101 -0.000490688 0)
(-0.00666402 -0.000496461 0)
(-0.00645475 -0.000501453 0)
(-0.00624354 -0.000505655 0)
(-0.00603069 -0.000509055 0)
(-0.00581653 -0.00051165 0)
(-0.00560139 -0.00051343 0)
(-0.00538565 -0.000514397 0)
(-0.00516956 -0.000514549 0)
(-0.00495351 -0.000513888 0)
(-0.00473782 -0.000512414 0)
(-0.0045228 -0.000510139 0)
(-0.0043088 -0.000507067 0)
(-0.00409613 -0.000503208 0)
(-0.00388511 -0.000498573 0)
(-0.00367607 -0.000493177 0)
(-0.0034693 -0.000487036 0)
(-0.00326511 -0.000480164 0)
(-0.0030638 -0.000472578 0)
(-0.00286566 -0.000464299 0)
(-0.00267096 -0.00045535 0)
(-0.00247999 -0.000445749 0)
(-0.002293 -0.000435522 0)
(-0.00211027 -0.00042469 0)
(-0.00193202 -0.00041328 0)
(-0.0017585 -0.000401316 0)
(-0.00158993 -0.000388824 0)
(-0.00142653 -0.00037583 0)
(-0.00126851 -0.000362361 0)
(-0.00111606 -0.000348445 0)
(-0.000969368 -0.000334108 0)
(-0.000828601 -0.000319378 0)
(-0.000693923 -0.000304283 0)
(-0.000565485 -0.000288853 0)
(-0.000443426 -0.000273114 0)
(-0.000327883 -0.000257095 0)
(-0.000218955 -0.000240826 0)
(-0.00011675 -0.000224337 0)
(-2.1365e-05 -0.000207657 0)
(6.71284e-05 -0.000190816 0)
(0.000148659 -0.000173849 0)
(0.000223186 -0.000156787 0)
(0.000290665 -0.000139666 0)
(0.000351072 -0.000122521 0)
(0.000404415 -0.000105393 0)
(0.000450698 -8.8322e-05 0)
(0.000489964 -7.13553e-05 0)
(0.000522247 -5.45406e-05 0)
(0.000547638 -3.79331e-05 0)
(0.000566221 -2.15927e-05 0)
(0.000578132 -5.58651e-06 0)
(0.000583528 1.00113e-05 0)
(0.000582591 2.51164e-05 0)
(0.000575557 3.96345e-05 0)
(0.00056268 5.34576e-05 0)
(0.00054428 6.64657e-05 0)
(0.000520711 7.85236e-05 0)
(0.000492408 8.94753e-05 0)
(0.000459839 9.91512e-05 0)
(0.000423556 0.000107356 0)
(0.00038418 0.000113879 0)
(0.000342407 0.000118482 0)
(0.000299018 0.000120913 0)
(0.000254873 0.000120898 0)
(0.000210915 0.000118155 0)
(0.000168162 0.000112403 0)
(0.000127704 0.000103376 0)
(9.0686e-05 9.08714e-05 0)
(5.82811e-05 7.48164e-05 0)
(3.17162e-05 5.54124e-05 0)
(1.25928e-05 3.34066e-05 0)
(1.48396e-06 1.06049e-05 0)
(-2.74246e-07 -7.75655e-06 0)
(-5.07751e-06 -3.86162e-06 0)
(-1.73723e-05 1.45409e-05 0)
(-3.92256e-05 4.26028e-05 0)
(-7.18649e-05 7.67325e-05 0)
(-0.000116116 0.000114234 0)
(-0.000172396 0.000153129 0)
(-0.000240788 0.000192011 0)
(-0.000321118 0.000229903 0)
(-0.000413019 0.000266148 0)
(-0.000515981 0.000300321 0)
(-0.000629392 0.000332163 0)
(-0.000752577 0.000361536 0)
(-0.000884821 0.000388396 0)
(-0.00102539 0.000412761 0)
(-0.00117356 0.000434698 0)
(-0.00132861 0.000454308 0)
(-0.00148985 0.000471717 0)
(-0.00165662 0.000487062 0)
(-0.0018283 0.000500491 0)
(-0.0020043 0.000512158 0)
(-0.00218409 0.000522216 0)
(-0.00236717 0.000530811 0)
(-0.00255308 0.00053809 0)
(-0.00274141 0.00054419 0)
(-0.00293179 0.000549239 0)
(-0.00312388 0.000553359 0)
(-0.00331739 0.00055666 0)
(-0.00351205 0.000559245 0)
(-0.00370762 0.000561206 0)
(-0.00390388 0.000562626 0)
(-0.00410068 0.000563578 0)