/*--------------------------------*- C++ -*----------------------------------*\
  =========                 |
  \\      /  F ield         | OpenFOAM: The Open Source CFD Toolbox
   \\    /   O peration     | Website:  https://openfoam.org
    \\  /    A nd           | Version:  6
     \\/     M anipulation  |
\*---------------------------------------------------------------------------*/
FoamFile
{
    version     2.0;
    format      ascii;
    class       volVectorField;
    location    "0";
    object      U_rec;
}
// * * * * * * * * * * * * * * * * * * * * * * * * * * * * * * * * * * * * * //

dimensions      [0 1 -1 0 0 0 0];

internalField   nonuniform List<vector> 
9000
(
(0.601794 0.154474 0)
(0.47835 0.0666818 0)
(0.289595 0.0226048 0)
(0.203675 0.0100292 0)
(0.15712 0.00579799 0)
(0.12958 0.00302039 0)
(0.112808 0.00270735 0)
(0.101256 0.000734592 0)
(0.0926231 -3.04481e-05 0)
(0.0871917 -0.000454004 0)
(0.0835066 0.00200523 0)
(0.0806952 0.00198718 0)
(0.0777817 0.00230925 0)
(0.0774289 0.00190093 0)
(0.0772268 -0.000107854 0)
(0.0760213 -0.0010943 0)
(0.0749656 -0.00105519 0)
(0.0741433 0.000468005 0)
(0.0739533 0.00127793 0)
(0.0743602 0.00256535 0)
(0.0748856 0.0013461 0)
(0.074483 0.00205731 0)
(0.0742094 0.00112362 0)
(0.0742186 0.00106033 0)
(0.0741498 0.00119865 0)
(0.074841 0.00158949 0)
(0.0736611 -0.00056936 0)
(0.0739167 0.000140631 0)
(0.0745904 -0.00108977 0)
(0.0736096 -0.00106862 0)
(0.074605 -9.4866e-06 0)
(0.0743897 -0.00173706 0)
(0.0740221 -0.00183526 0)
(0.0742188 -0.00162069 0)
(0.0734397 -0.00126086 0)
(0.0736054 -0.000869807 0)
(0.0738726 0.000215832 0)
(0.0743917 -0.00120085 0)
(0.0748157 -0.000528814 0)
(0.0754273 -0.000526028 0)
(0.0757636 -0.000334371 0)
(0.0752864 -0.000707632 0)
(0.0759146 -4.83378e-05 0)
(0.0768359 1.66444e-05 0)
(0.0789362 -0.00136277 0)
(0.0808868 -0.00276051 0)
(0.084247 -0.00251472 0)
(0.0934399 -0.00100484 0)
(0.113975 -0.00849479 0)
(0.165779 -0.0487995 0)
(0.953099 0.341478 0)
(0.867545 0.235037 0)
(0.659462 0.131916 0)
(0.520186 0.075692 0)
(0.426358 0.0457895 0)
(0.364003 0.0281335 0)
(0.32189 0.0209473 0)
(0.291286 0.0107538 0)
(0.26973 0.0072458 0)
(0.256659 0.00362157 0)
(0.246357 0.00656482 0)
(0.237032 0.00613005 0)
(0.229529 0.00483126 0)
(0.225969 0.00505018 0)
(0.224269 0.00146046 0)
(0.222581 -0.00047225 0)
(0.221435 -0.00183918 0)
(0.219807 0.000133026 0)
(0.219045 0.00260077 0)
(0.21842 0.00443506 0)
(0.219042 0.00370827 0)
(0.218421 0.00340975 0)
(0.217332 0.0023011 0)
(0.218008 0.00306575 0)
(0.218078 0.0037115 0)
(0.217735 0.00121971 0)
(0.215969 -0.000172545 0)
(0.21682 4.81213e-05 0)
(0.217458 -0.00345849 0)
(0.217494 -0.00111508 0)
(0.21807 -0.00141434 0)
(0.216821 -0.0030683 0)
(0.217425 -0.00412935 0)
(0.218127 -0.00392612 0)
(0.216687 -0.00203736 0)
(0.217326 -0.000879309 0)
(0.217274 -0.000444124 0)
(0.218694 -0.000837126 0)
(0.220654 -0.00148356 0)
(0.221491 -0.000509407 0)
(0.222211 -0.0016387 0)
(0.222656 -0.00352459 0)
(0.225229 -0.00272293 0)
(0.227088 -0.00360332 0)
(0.231892 -0.00451632 0)
(0.239733 -0.00798037 0)
(0.253 -0.0111567 0)
(0.274044 -0.0170583 0)
(0.311572 -0.0413225 0)
(0.384468 -0.104849 0)
(1.0317 0.326652 0)
(1.02426 0.320231 0)
(0.880222 0.226623 0)
(0.748239 0.149992 0)
(0.641713 0.100233 0)
(0.564903 0.0676926 0)
(0.50682 0.0463877 0)
(0.463724 0.0303538 0)
(0.433754 0.0223502 0)
(0.414215 0.0160837 0)
(0.399558 0.0124094 0)
(0.384296 0.00818971 0)
(0.373754 0.00738509 0)
(0.368098 0.00796576 0)
(0.363967 0.00341806 0)
(0.360856 0.00127277 0)
(0.359159 0.000957261 0)
(0.358372 0.000513686 0)
(0.357285 0.00334152 0)
(0.355796 0.00373201 0)
(0.355627 0.00537513 0)
(0.354337 0.00234851 0)
(0.354055 0.00281443 0)
(0.355261 0.00372182 0)
(0.352898 0.00393042 0)
(0.352597 0.000399041 0)
(0.352189 -0.00028157 0)
(0.351081 -0.00244466 0)
(0.353363 -0.00505105 0)
(0.353906 -0.00227355 0)
(0.353517 -0.00318568 0)
(0.352252 -0.00298406 0)
(0.35257 -0.00309225 0)
(0.355019 -0.00335961 0)
(0.354084 -0.00150467 0)
(0.353544 0.000369038 0)
(0.354167 0.000240928 0)
(0.355844 0.00125698 0)
(0.358382 -0.00159099 0)
(0.359941 -0.000469974 0)
(0.360123 -0.00244134 0)
(0.362677 -0.00494738 0)
(0.367295 -0.00664881 0)
(0.371739 -0.00831719 0)
(0.379723 -0.0105092 0)
(0.391028 -0.015522 0)
(0.410664 -0.0234026 0)
(0.43965 -0.0430783 0)
(0.483522 -0.0766251 0)
(0.548726 -0.150722 0)
(1.04367 0.281616 0)
(1.08265 0.352368 0)
(1.00185 0.296011 0)
(0.901968 0.217879 0)
(0.806536 0.158134 0)
(0.72722 0.112846 0)
(0.665343 0.0780088 0)
(0.618632 0.0580269 0)
(0.583468 0.0432032 0)
(0.558206 0.0320354 0)
(0.53827 0.0226488 0)
(0.522332 0.0143735 0)
(0.511181 0.0133536 0)
(0.501182 0.0105355 0)
(0.494851 0.00582672 0)
(0.492926 0.0034849 0)
(0.490251 0.00290111 0)
(0.488631 0.0016554 0)
(0.487582 0.00356402 0)
(0.485762 0.00190311 0)
(0.484453 0.00402326 0)
(0.482738 0.000831095 0)
(0.483397 0.00268256 0)
(0.484056 0.00251706 0)
(0.481194 0.00227578 0)
(0.479898 0.000456263 0)
(0.478791 -0.0021214 0)
(0.478406 -0.00142689 0)
(0.481785 -0.00396395 0)
(0.482781 -0.00298577 0)
(0.482493 -0.00144423 0)
(0.481455 -0.00202948 0)
(0.481471 -0.00102292 0)
(0.483809 -0.00253001 0)
(0.483864 -0.00243247 0)
(0.483501 0.00102334 0)
(0.483711 -4.11818e-05 0)
(0.484802 0.000417775 0)
(0.488265 -0.0016766 0)
(0.491247 -0.00251447 0)
(0.491763 -0.00508822 0)
(0.494778 -0.00615428 0)
(0.501294 -0.00981905 0)
(0.507658 -0.012534 0)
(0.518069 -0.0180171 0)
(0.533702 -0.0269906 0)
(0.555173 -0.0409985 0)
(0.587613 -0.0685467 0)
(0.631457 -0.109701 0)
(0.684192 -0.185746 0)
(1.03891 0.238522 0)
(1.09724 0.355501 0)
(1.06659 0.335526 0)
(1.00135 0.270704 0)
(0.926234 0.205922 0)
(0.855666 0.153727 0)
(0.798859 0.116526 0)
(0.753308 0.0863635 0)
(0.715333 0.0660281 0)
(0.688221 0.0491568 0)
(0.666631 0.0352846 0)
(0.649643 0.024826 0)
(0.637212 0.0201699 0)
(0.625562 0.0133488 0)
(0.618779 0.00889748 0)
(0.615642 0.00607284 0)
(0.612494 0.0028742 0)
(0.611593 0.00144381 0)
(0.609423 0.00380829 0)
(0.607341 0.00393871 0)
(0.606078 0.00297357 0)
(0.604466 0.000205861 0)
(0.605385 0.00109764 0)
(0.605293 0.00025929 0)
(0.601864 0.000702377 0)
(0.599555 0.000129185 0)
(0.60063 -0.00154273 0)
(0.599645 0.000631262 0)
(0.601684 -0.00143312 0)
(0.604749 -0.00241692 0)
(0.604002 0.000596796 0)
(0.60244 0.000388826 0)
(0.601986 0.000548905 0)
(0.604237 -0.00048324 0)
(0.606661 -0.000167414 0)
(0.605601 -0.000183223 0)
(0.604939 -0.0022889 0)
(0.60739 -0.00171772 0)
(0.61085 -0.00497605 0)
(0.613924 -0.00577987 0)
(0.615969 -0.0094666 0)
(0.620299 -0.0105722 0)
(0.627436 -0.0148709 0)
(0.635875 -0.0210968 0)
(0.647546 -0.0298882 0)
(0.664206 -0.0410163 0)
(0.687275 -0.0588452 0)
(0.72016 -0.0895315 0)
(0.759143 -0.136321 0)
(0.799246 -0.207272 0)
(1.03342 0.201319 0)
(1.09509 0.342723 0)
(1.09583 0.350929 0)
(1.06123 0.3034 0)
(1.01054 0.243337 0)
(0.958469 0.192647 0)
(0.90861 0.150295 0)
(0.866245 0.112996 0)
(0.832221 0.0874078 0)
(0.80403 0.0665218 0)
(0.781628 0.0484842 0)
(0.766129 0.0362635 0)
(0.7532 0.0266669 0)
(0.740198 0.017629 0)
(0.733654 0.0136258 0)
(0.730273 0.00954451 0)
(0.726673 0.00573059 0)
(0.727076 0.00518341 0)
(0.72612 0.00542683 0)
(0.721465 0.00463791 0)
(0.718037 0.00307803 0)
(0.717352 0.00130941 0)
(0.718585 0.000927377 0)
(0.718927 -0.000661887 0)
(0.716268 -0.000710316 0)
(0.713187 0.00235975 0)
(0.713797 -0.000311309 0)
(0.713361 0.000199569 0)
(0.714505 0.00111627 0)
(0.718738 -0.00111286 0)
(0.719451 0.00073601 0)
(0.716642 0.000408338 0)
(0.715877 0.0036504 0)
(0.718495 0.00376718 0)
(0.719451 0.0023945 0)
(0.718016 -0.000853868 0)
(0.719491 -0.00163647 0)
(0.721352 -0.00281888 0)
(0.725562 -0.00646818 0)
(0.729908 -0.00899415 0)
(0.732152 -0.0110216 0)
(0.737463 -0.0154115 0)
(0.744508 -0.0207402 0)
(0.753229 -0.0298338 0)
(0.767511 -0.0412185 0)
(0.786798 -0.05556 0)
(0.808185 -0.0744295 0)
(0.837692 -0.106579 0)
(0.871776 -0.156312 0)
(0.900878 -0.223397 0)
(1.02743 0.170302 0)
(1.08603 0.319036 0)
(1.1065 0.350018 0)
(1.09716 0.321732 0)
(1.07135 0.27344 0)
(1.03553 0.224127 0)
(0.995436 0.176571 0)
(0.961543 0.137037 0)
(0.932048 0.106176 0)
(0.906351 0.0801026 0)
(0.886298 0.0600666 0)
(0.871065 0.0454227 0)
(0.857598 0.0325573 0)
(0.846893 0.0232285 0)
(0.840944 0.0177486 0)
(0.836207 0.0125911 0)
(0.833671 0.00807735 0)
(0.834054 0.00850891 0)
(0.83078 0.0066199 0)
(0.826896 0.0030463 0)
(0.824754 0.00304337 0)
(0.82367 0.00154639 0)
(0.824108 -0.000684413 0)
(0.824276 -0.000283537 0)
(0.823822 -0.00170443 0)
(0.819553 0.00130019 0)
(0.819205 0.000490036 0)
(0.820674 -0.000322944 0)
(0.820799 0.00149059 0)
(0.82454 0.00179154 0)
(0.825333 0.00143042 0)
(0.824472 0.00119303 0)
(0.824063 0.00361998 0)
(0.823609 0.00372983 0)
(0.824486 0.00106589 0)
(0.824443 -0.00161358 0)
(0.82604 -0.00183202 0)
(0.827976 -0.00450796 0)
(0.83198 -0.00573716 0)
(0.837607 -0.0105372 0)
(0.840532 -0.0131141 0)
(0.84571 -0.0187717 0)
(0.853607 -0.0252791 0)
(0.862948 -0.0353592 0)
(0.877374 -0.0481034 0)
(0.897127 -0.0666194 0)
(0.918544 -0.0910462 0)
(0.942844 -0.123727 0)
(0.968838 -0.17246 0)
(0.989667 -0.235546 0)
(1.02372 0.144948 0)
(1.07687 0.291126 0)
(1.10863 0.337366 0)
(1.11879 0.326779 0)
(1.11172 0.290254 0)
(1.09216 0.241156 0)
(1.06446 0.195109 0)
(1.03991 0.154515 0)
(1.01643 0.118375 0)
(0.994982 0.0905509 0)
(0.978408 0.068572 0)
(0.965604 0.0515784 0)
(0.953918 0.0378918 0)
(0.943723 0.0292521 0)
(0.938034 0.0204434 0)
(0.934053 0.0141124 0)
(0.932467 0.00928654 0)
(0.933511 0.00738683 0)
(0.92922 0.00476046 0)
(0.925128 0.00572433 0)
(0.922771 0.00231565 0)
(0.920426 0.00154132 0)
(0.922374 1.62009e-05 0)
(0.923375 -0.000717713 0)
(0.922442 -0.00182527 0)
(0.919415 -0.00154354 0)
(0.917888 0.0022899 0)
(0.919249 0.000261534 0)
(0.920866 -0.000772272 0)
(0.923735 0.000891038 0)
(0.924359 -0.000495165 0)
(0.923194 0.00220134 0)
(0.92261 0.000739307 0)
(0.922448 0.000816798 0)
(0.922288 -0.00154831 0)
(0.923015 -0.00245388 0)
(0.925289 -0.00391395 0)
(0.927555 -0.00660779 0)
(0.93172 -0.00685734 0)
(0.936887 -0.0104044 0)
(0.940828 -0.0174869 0)
(0.946594 -0.0227271 0)
(0.954276 -0.0317597 0)
(0.96315 -0.04258 0)
(0.977302 -0.0557125 0)
(0.995501 -0.0774154 0)
(1.01531 -0.103654 0)
(1.03689 -0.139933 0)
(1.05657 -0.186672 0)
(1.06919 -0.242736 0)
(1.01968 0.125132 0)
(1.06683 0.262935 0)
(1.10667 0.317561 0)
(1.13162 0.318322 0)
(1.1388 0.291306 0)
(1.13227 0.247082 0)
(1.11895 0.205303 0)
(1.10309 0.166802 0)
(1.08728 0.128992 0)
(1.07273 0.0992384 0)
(1.06047 0.0754578 0)
(1.05008 0.0583786 0)
(1.0408 0.04329 0)
(1.03203 0.0323665 0)
(1.02644 0.0249747 0)
(1.0234 0.0172525 0)
(1.02235 0.0110125 0)
(1.02329 0.00767187 0)
(1.02112 0.00248563 0)
(1.01634 0.0048413 0)
(1.01288 0.00230719 0)
(1.01271 0.00364855 0)
(1.01277 0.00252884 0)
(1.01324 -0.00256888 0)
(1.01354 -0.0025813 0)
(1.01194 -0.00440585 0)
(1.01031 -0.000968149 0)
(1.00889 -0.000865896 0)
(1.01108 -0.00142308 0)
(1.01453 -0.00254101 0)
(1.01637 -0.00302832 0)
(1.01545 -0.00157933 0)
(1.01361 -0.00166585 0)
(1.01318 -0.00088294 0)
(1.01402 -0.0011169 0)
(1.01492 -0.00305082 0)
(1.01598 -0.00531392 0)
(1.01975 -0.00770462 0)
(1.02459 -0.00936414 0)
(1.02768 -0.0131524 0)
(1.03184 -0.0212231 0)
(1.03842 -0.0268928 0)
(1.04584 -0.0373155 0)
(1.05602 -0.0495863 0)
(1.0679 -0.0636797 0)
(1.08454 -0.0859024 0)
(1.10225 -0.11311 0)
(1.1183 -0.15023 0)
(1.13408 -0.196224 0)
(1.1416 -0.24868 0)
(1.0169 0.106047 0)
(1.05848 0.233663 0)
(1.10137 0.293547 0)
(1.13631 0.303414 0)
(1.15562 0.284564 0)
(1.16311 0.248017 0)
(1.16304 0.210146 0)
(1.15566 0.173104 0)
(1.14616 0.138849 0)
(1.13822 0.107938 0)
(1.13168 0.0812287 0)
(1.12553 0.0638151 0)
(1.1176 0.0475813 0)
(1.11178 0.0350822 0)
(1.10764 0.0282835 0)
(1.10372 0.0205826 0)
(1.10401 0.0151154 0)
(1.10514 0.00863034 0)
(1.10399 0.00411816 0)
(1.10098 0.00268238 0)
(1.09778 0.00492046 0)
(1.09612 0.00534367 0)
(1.0936 0.00224049 0)
(1.09544 -0.00267948 0)
(1.09657 -0.00336067 0)
(1.09491 -0.00488533 0)
(1.09478 -0.00292595 0)
(1.09382 -0.00315716 0)
(1.09448 -0.000656605 0)
(1.0976 -0.00322157 0)
(1.10006 -0.00381353 0)
(1.09938 -0.00515387 0)
(1.09883 -0.00368312 0)
(1.09921 -0.00258053 0)
(1.09749 -0.00154118 0)
(1.09723 -0.00343655 0)
(1.10002 -0.00456116 0)
(1.10375 -0.00793875 0)
(1.10845 -0.0124817 0)
(1.11128 -0.0166145 0)
(1.11628 -0.0234196 0)
(1.12267 -0.030738 0)
(1.12881 -0.0425639 0)
(1.13837 -0.0550787 0)
(1.14982 -0.0737169 0)
(1.16391 -0.0940823 0)
(1.17838 -0.125215 0)
(1.19073 -0.158622 0)
(1.20117 -0.20211 0)
(1.20585 -0.250199 0)
(1.01468 0.0898065 0)
(1.05241 0.206338 0)
(1.09764 0.267311 0)
(1.139 0.285467 0)
(1.16716 0.272418 0)
(1.1848 0.24382 0)
(1.19566 0.208267 0)
(1.19824 0.173161 0)
(1.1967 0.141042 0)
(1.19336 0.112393 0)
(1.19318 0.0862646 0)
(1.19118 0.0668337 0)
(1.18556 0.0502197 0)
(1.1834 0.0369274 0)
(1.18028 0.0273305 0)
(1.17777 0.0220673 0)
(1.1768 0.0172558 0)
(1.17808 0.0104261 0)
(1.17899 0.00606186 0)
(1.17767 0.00339423 0)
(1.17527 0.00515999 0)
(1.17129 0.00459676 0)
(1.16768 0.00147171 0)
(1.17005 0.000252985 0)
(1.17204 -0.00315763 0)
(1.17172 -0.00398409 0)
(1.17103 -0.00187735 0)
(1.16993 -0.00010294 0)
(1.17085 -0.00247147 0)
(1.17276 -0.00190758 0)
(1.17532 -0.00426139 0)
(1.17628 -0.00557774 0)
(1.17629 -0.00424428 0)
(1.17577 -0.00436024 0)
(1.17493 -0.00386857 0)
(1.17485 -0.00354728 0)
(1.17591 -0.00453522 0)
(1.17863 -0.00804068 0)
(1.18447 -0.0132768 0)
(1.18751 -0.0190377 0)
(1.19182 -0.0247983 0)
(1.19692 -0.0359624 0)
(1.20317 -0.0484075 0)
(1.21183 -0.0626523 0)
(1.22158 -0.0808941 0)
(1.23363 -0.103399 0)
(1.24577 -0.132537 0)
(1.25542 -0.167197 0)
(1.26089 -0.206437 0)
(1.26216 -0.249536 0)
(1.01375 0.0779437 0)
(1.04788 0.183126 0)
(1.09352 0.240991 0)
(1.13873 0.261567 0)
(1.17362 0.254054 0)
(1.2009 0.232258 0)
(1.22076 0.200219 0)
(1.23219 0.16781 0)
(1.2382 0.137742 0)
(1.24134 0.109672 0)
(1.24529 0.0861987 0)
(1.2475 0.0674732 0)
(1.245 0.0514685 0)
(1.24449 0.0358383 0)
(1.24518 0.0249896 0)
(1.24436 0.0200832 0)
(1.24309 0.0151702 0)
(1.2446 0.012017 0)
(1.24552 0.00724771 0)
(1.24591 0.00393294 0)
(1.24377 0.00361136 0)
(1.23877 0.00308291 0)
(1.23553 0.00145069 0)
(1.23721 0.00109507 0)
(1.23856 -0.00303427 0)
(1.2404 -0.00307142 0)
(1.24186 -0.00180118 0)
(1.23846 -0.00085427 0)
(1.23843 -0.00261606 0)
(1.24159 -0.00117556 0)
(1.24335 -0.00331218 0)
(1.24525 -0.00331788 0)
(1.24553 -0.00380403 0)
(1.24526 -0.00558085 0)
(1.24447 -0.00540419 0)
(1.24382 -0.00631042 0)
(1.24529 -0.00877255 0)
(1.24751 -0.0100121 0)
(1.2518 -0.0138258 0)
(1.2557 -0.0215493 0)
(1.25846 -0.0282544 0)
(1.26248 -0.0400803 0)
(1.26876 -0.0520919 0)
(1.27678 -0.0674327 0)
(1.28543 -0.0850035 0)
(1.29538 -0.108291 0)
(1.30349 -0.135562 0)
(1.30983 -0.171878 0)
(1.31336 -0.20766 0)
(1.31101 -0.247361 0)
(1.01276 0.0657965 0)
(1.04402 0.158022 0)
(1.0892 0.213283 0)
(1.13735 0.231321 0)
(1.17869 0.230817 0)
(1.21175 0.214701 0)
(1.23894 0.18566 0)
(1.2591 0.15703 0)
(1.27172 0.128357 0)
(1.28048 0.102868 0)
(1.29085 0.081438 0)
(1.2968 0.0636463 0)
(1.295 0.048918 0)
(1.29704 0.035179 0)
(1.30107 0.0250325 0)
(1.30259 0.0196371 0)
(1.30246 0.014505 0)
(1.30381 0.0110323 0)
(1.3042 0.00674517 0)
(1.30522 0.00343584 0)
(1.30443 0.00160859 0)
(1.29966 0.00128171 0)
(1.29581 0.00122338 0)
(1.2966 0.00118172 0)
(1.29887 -0.000179466 0)
(1.30198 0.000392823 0)
(1.3018 -0.00232347 0)
(1.29925 -0.00159266 0)
(1.30083 -0.000172256 0)
(1.30232 -0.00137873 0)
(1.30413 -0.00125124 0)
(1.3063 -0.00244687 0)
(1.30561 -0.00381067 0)
(1.30577 -0.006696 0)
(1.30583 -0.00803621 0)
(1.30491 -0.00967908 0)
(1.30679 -0.0114179 0)
(1.30966 -0.0114903 0)
(1.31231 -0.016411 0)
(1.3146 -0.0239931 0)
(1.31734 -0.0316524 0)
(1.32093 -0.0416623 0)
(1.3268 -0.0540257 0)
(1.33373 -0.0689673 0)
(1.34058 -0.0888902 0)
(1.34814 -0.111608 0)
(1.35277 -0.138049 0)
(1.35649 -0.171821 0)
(1.3579 -0.204224 0)
(1.3527 -0.242336 0)
(1.0124 0.0547592 0)
(1.04249 0.135154 0)
(1.08521 0.184525 0)
(1.13481 0.204427 0)
(1.18235 0.20408 0)
(1.21903 0.190906 0)
(1.25251 0.16544 0)
(1.27972 0.140559 0)
(1.29882 0.115388 0)
(1.31411 0.0944199 0)
(1.32804 0.0754293 0)
(1.33774 0.0578862 0)
(1.33995 0.0462047 0)
(1.34358 0.0354451 0)
(1.35015 0.0255284 0)
(1.35275 0.0207176 0)
(1.35291 0.0134718 0)
(1.35428 0.0106856 0)
(1.35559 0.00584568 0)
(1.35705 0.00266157 0)
(1.35702 -0.00118269 0)
(1.35292 -0.00167697 0)
(1.34966 -5.66023e-05 0)
(1.35038 0.00286814 0)
(1.35214 0.00402702 0)
(1.35347 0.00214664 0)
(1.35475 -0.00105179 0)
(1.35409 -0.000410224 0)
(1.35339 0.00128234 0)
(1.35584 0.000464134 0)
(1.35748 0.000148566 0)
(1.35866 -0.00118642 0)
(1.35854 -0.00372446 0)
(1.35894 -0.00532162 0)
(1.35922 -0.00832342 0)
(1.35887 -0.00937617 0)
(1.36229 -0.0107839 0)
(1.36319 -0.0126451 0)
(1.36373 -0.018974 0)
(1.36655 -0.0249847 0)
(1.36916 -0.0330513 0)
(1.37158 -0.0430186 0)
(1.37632 -0.0553478 0)
(1.38141 -0.0709186 0)
(1.38667 -0.090394 0)
(1.39308 -0.113208 0)
(1.3949 -0.13941 0)
(1.39634 -0.168201 0)
(1.39502 -0.200254 0)
(1.38718 -0.234879 0)
(1.01257 0.0441616 0)
(1.04089 0.112381 0)
(1.08338 0.153629 0)
(1.13289 0.176296 0)
(1.18195 0.175694 0)
(1.22312 0.162282 0)
(1.26138 0.145787 0)
(1.29623 0.122798 0)
(1.32169 0.101936 0)
(1.34157 0.0831932 0)
(1.35915 0.0679927 0)
(1.37303 0.0528023 0)
(1.37818 0.0412957 0)
(1.3822 0.0326739 0)
(1.39112 0.0258538 0)
(1.39439 0.0183064 0)
(1.39581 0.0112214 0)
(1.39867 0.00931288 0)
(1.39878 0.0056381 0)
(1.40034 0.000791992 0)
(1.40116 -0.001338 0)
(1.39966 -0.00413874 0)
(1.39788 -0.000227178 0)
(1.39809 0.00311142 0)
(1.39743 0.00335471 0)
(1.39781 0.00151837 0)
(1.39928 -0.000246608 0)
(1.39989 -0.00182025 0)
(1.40069 0.000846714 0)
(1.40121 0.00355895 0)
(1.40285 0.00136235 0)
(1.4039 0.000125377 0)
(1.40366 -0.00319674 0)
(1.40402 -0.0052041 0)
(1.4048 -0.00711294 0)
(1.40547 -0.00723478 0)
(1.40757 -0.0104395 0)
(1.40812 -0.014814 0)
(1.40856 -0.0207138 0)
(1.41079 -0.0276285 0)
(1.41207 -0.036293 0)
(1.41453 -0.044582 0)
(1.41825 -0.0566557 0)
(1.42163 -0.072272 0)
(1.42518 -0.0898465 0)
(1.42915 -0.112245 0)
(1.42999 -0.139756 0)
(1.42913 -0.164595 0)
(1.42472 -0.195778 0)
(1.41602 -0.227973 0)
(1.01317 0.0336626 0)
(1.04013 0.0895976 0)
(1.08191 0.123894 0)
(1.13179 0.142213 0)
(1.18047 0.143119 0)
(1.22706 0.133468 0)
(1.27044 0.123645 0)
(1.30721 0.104633 0)
(1.33838 0.0858769 0)
(1.3639 0.0701245 0)
(1.38516 0.0572881 0)
(1.40018 0.0444443 0)
(1.40879 0.0337261 0)
(1.41635 0.0277026 0)
(1.42483 0.0247837 0)
(1.42749 0.0147897 0)
(1.43152 0.0115943 0)
(1.43532 0.00658001 0)
(1.43445 0.00346851 0)
(1.43717 4.74272e-05 0)
(1.43789 -0.000168743 0)
(1.43794 -0.00257904 0)
(1.4385 -0.000158365 0)
(1.43684 0.00165898 0)
(1.43523 -0.00161782 0)
(1.43523 -0.000524821 0)
(1.4367 -0.00252964 0)
(1.43852 -0.00110277 0)
(1.44069 0.00105398 0)
(1.44045 0.00265365 0)
(1.43966 0.00209041 0)
(1.44077 -0.00095361 0)
(1.44086 -0.00348052 0)
(1.44252 -0.00717097 0)
(1.44431 -0.00671878 0)
(1.44386 -0.010026 0)
(1.44483 -0.0110864 0)
(1.44508 -0.0177564 0)
(1.44432 -0.0226471 0)
(1.4463 -0.0296266 0)
(1.44911 -0.0385878 0)
(1.45098 -0.0468238 0)
(1.45202 -0.0583494 0)
(1.45453 -0.0726117 0)
(1.45605 -0.0897288 0)
(1.45702 -0.11173 0)
(1.4566 -0.137627 0)
(1.45489 -0.162203 0)
(1.4469 -0.19056 0)
(1.43584 -0.220992 0)
(1.01407 0.0265809 0)
(1.03991 0.0667618 0)
(1.07976 0.0954336 0)
(1.12938 0.109136 0)
(1.1799 0.111601 0)
(1.23062 0.10778 0)
(1.27648 0.0970724 0)
(1.31581 0.0836398 0)
(1.35134 0.0684504 0)
(1.38055 0.0549502 0)
(1.4047 0.0445777 0)
(1.42231 0.0334387 0)
(1.43378 0.0254746 0)
(1.44395 0.0202029 0)
(1.45132 0.018007 0)
(1.45467 0.0127999 0)
(1.45981 0.0107968 0)
(1.46254 0.00537443 0)
(1.46361 0.0029254 0)
(1.46718 0.00166234 0)
(1.46827 0.00114099 0)
(1.46864 -0.00055863 0)
(1.4693 -0.00105383 0)
(1.46584 0.000764409 0)
(1.46496 -0.00217672 0)
(1.46633 -0.00197692 0)
(1.46757 -0.00137977 0)
(1.47031 0.000757078 0)
(1.47169 0.00195205 0)
(1.47104 0.00109438 0)
(1.47003 0.0010228 0)
(1.47028 0.000646969 0)
(1.47033 -0.00275402 0)
(1.4731 -0.00685 0)
(1.47442 -0.00733258 0)
(1.47454 -0.0114498 0)
(1.475 -0.0141959 0)
(1.47376 -0.0210114 0)
(1.47469 -0.0256575 0)
(1.47506 -0.0293543 0)
(1.4768 -0.0393851 0)
(1.47838 -0.049839 0)
(1.47935 -0.060486 0)
(1.47995 -0.0740562 0)
(1.47904 -0.0899323 0)
(1.47743 -0.110924 0)
(1.47669 -0.133533 0)
(1.47283 -0.158603 0)
(1.46302 -0.186726 0)
(1.45042 -0.212181 0)
(1.01213 0.0214502 0)
(1.03811 0.0465532 0)
(1.07945 0.0662831 0)
(1.12891 0.0760694 0)
(1.18116 0.0808761 0)
(1.2323 0.0785594 0)
(1.27981 0.0705219 0)
(1.32223 0.0600272 0)
(1.35965 0.0505021 0)
(1.39278 0.0397009 0)
(1.41901 0.0318865 0)
(1.43766 0.0233804 0)
(1.45154 0.0174617 0)
(1.46397 0.013862 0)
(1.47301 0.0079464 0)
(1.47649 0.00682298 0)
(1.48045 0.00471396 0)
(1.48368 0.00325795 0)
(1.48577 0.00383378 0)
(1.48969 0.0031976 0)
(1.49005 0.00319804 0)
(1.48997 -0.000496254 0)
(1.49261 -0.00138697 0)
(1.48952 0.000180478 0)
(1.48672 -0.000155129 0)
(1.48917 -0.000897246 0)
(1.49176 0.000735347 0)
(1.4942 0.00236585 0)
(1.49466 0.00144631 0)
(1.49398 0.001216 0)
(1.49375 -0.000411201 0)
(1.49327 -0.000337651 0)
(1.49137 -0.00295872 0)
(1.49502 -0.00544399 0)
(1.49732 -0.0103484 0)
(1.49585 -0.0114423 0)
(1.4961 -0.0161016 0)
(1.49538 -0.0231834 0)
(1.49729 -0.0280306 0)
(1.49659 -0.0318424 0)
(1.49635 -0.0414377 0)
(1.49833 -0.0508033 0)
(1.49806 -0.0623636 0)
(1.49761 -0.0755269 0)
(1.4952 -0.090896 0)
(1.49155 -0.108508 0)
(1.48877 -0.128831 0)
(1.48264 -0.152892 0)
(1.4725 -0.177597 0)
(1.45967 -0.202249 0)
(1.01041 0.0127909 0)
(1.03522 0.0291205 0)
(1.07717 0.0389212 0)
(1.12893 0.0447906 0)
(1.18222 0.0455019 0)
(1.23367 0.0438693 0)
(1.28187 0.0399985 0)
(1.32638 0.0337943 0)
(1.36628 0.0304658 0)
(1.3999 0.0242124 0)
(1.42783 0.0195825 0)
(1.4487 0.0140198 0)
(1.46428 0.00983321 0)
(1.47536 0.00946134 0)
(1.48456 0.00295141 0)
(1.49075 0.00147865 0)
(1.49573 0.00119289 0)
(1.49998 0.00180632 0)
(1.50187 0.00212134 0)
(1.50498 0.00220051 0)
(1.50394 0.00282179 0)
(1.50397 -9.3893e-05 0)
(1.50835 0.00030627 0)
(1.50468 -0.000223899 0)
(1.50225 0.000135281 0)
(1.50498 0.000858469 0)
(1.50795 0.00131231 0)
(1.50966 0.00287783 0)
(1.50979 0.00256184 0)
(1.50901 0.00215476 0)
(1.50824 0.00101899 0)
(1.50826 -0.00248179 0)
(1.50678 -0.00339446 0)
(1.50841 -0.00467827 0)
(1.51116 -0.0114703 0)
(1.51192 -0.0130187 0)
(1.50946 -0.0144938 0)
(1.50862 -0.0218097 0)
(1.51229 -0.0271609 0)
(1.51029 -0.0349847 0)
(1.50931 -0.0414239 0)
(1.51036 -0.0487773 0)
(1.50916 -0.0610392 0)
(1.50801 -0.0724029 0)
(1.50451 -0.088617 0)
(1.50003 -0.106135 0)
(1.49467 -0.123519 0)
(1.48766 -0.144792 0)
(1.47549 -0.166533 0)
(1.46024 -0.191124 0)
(1.01065 0.00461916 0)
(1.03469 0.00852021 0)
(1.07664 0.0103205 0)
(1.12745 0.0135594 0)
(1.18086 0.0112875 0)
(1.23439 0.0108063 0)
(1.28372 0.00926687 0)
(1.33001 0.0107258 0)
(1.37007 0.0103569 0)
(1.40434 0.00759906 0)
(1.43248 0.00424072 0)
(1.45288 0.00127803 0)
(1.47058 -0.00166313 0)
(1.48225 -0.00013071 0)
(1.49067 -0.000587086 0)
(1.49793 -0.000201683 0)
(1.50344 -0.000237843 0)
(1.50705 2.3742e-05 0)
(1.50895 -0.00111806 0)
(1.51293 0.000206771 0)
(1.51132 0.000586841 0)
(1.51138 0.00147879 0)
(1.5157 0.000865139 0)
(1.51222 -0.00216619 0)
(1.51045 0.000696706 0)
(1.51324 0.00142916 0)
(1.51646 0.00269372 0)
(1.51833 0.00257411 0)
(1.51781 0.00438115 0)
(1.51677 0.0023214 0)
(1.51516 0.00111335 0)
(1.51477 -0.00134223 0)
(1.51436 -0.0032784 0)
(1.51484 -0.00476884 0)
(1.51722 -0.0100131 0)
(1.51998 -0.0119919 0)
(1.5169 -0.014434 0)
(1.51458 -0.0175895 0)
(1.51688 -0.0236284 0)
(1.51608 -0.033332 0)
(1.51654 -0.0398317 0)
(1.5156 -0.0465342 0)
(1.5133 -0.0564838 0)
(1.51043 -0.0695629 0)
(1.50468 -0.0840594 0)
(1.50067 -0.101437 0)
(1.49476 -0.118862 0)
(1.48531 -0.138694 0)
(1.47191 -0.160358 0)
(1.45402 -0.182883 0)
(1.00889 -0.00184067 0)
(1.03202 -0.0112846 0)
(1.07647 -0.0156188 0)
(1.12793 -0.0196782 0)
(1.18089 -0.0230002 0)
(1.23452 -0.0225841 0)
(1.28528 -0.0225056 0)
(1.33163 -0.0160614 0)
(1.36994 -0.0119637 0)
(1.40256 -0.0111663 0)
(1.43056 -0.0119469 0)
(1.45219 -0.00908376 0)
(1.47066 -0.00980188 0)
(1.48389 -0.00859826 0)
(1.49202 -0.00653623 0)
(1.49852 -0.00522904 0)
(1.50359 -0.00186737 0)
(1.50678 -0.00298764 0)
(1.50947 -0.0024259 0)
(1.51364 -0.000622068 0)
(1.51236 -0.00250948 0)
(1.51175 0.000721694 0)
(1.51363 -0.00134901 0)
(1.51245 -0.00363404 0)
(1.51255 0.00168727 0)
(1.51435 0.00322777 0)
(1.51696 0.00392267 0)
(1.51902 0.00328009 0)
(1.51826 0.0037657 0)
(1.51536 0.00170981 0)
(1.51487 0.000558087 0)
(1.51451 -0.00254889 0)
(1.51384 -0.00442602 0)
(1.51369 -0.0040066 0)
(1.51659 -0.00722569 0)
(1.51973 -0.00815368 0)
(1.51735 -0.0139014 0)
(1.51478 -0.016122 0)
(1.51449 -0.0223099 0)
(1.51308 -0.0292368 0)
(1.51446 -0.0366936 0)
(1.51368 -0.0456602 0)
(1.50922 -0.0543293 0)
(1.50513 -0.0673494 0)
(1.49947 -0.0810256 0)
(1.49332 -0.0943625 0)
(1.48657 -0.114494 0)
(1.47586 -0.132104 0)
(1.46108 -0.152879 0)
(1.44299 -0.172345 0)
(1.00815 -0.0123821 0)
(1.0326 -0.0309521 0)
(1.07642 -0.0423206 0)
(1.12551 -0.0531355 0)
(1.17987 -0.0575192 0)
(1.2333 -0.0572499 0)
(1.28494 -0.052897 0)
(1.33228 -0.0455488 0)
(1.368 -0.0379848 0)
(1.39853 -0.0312466 0)
(1.42712 -0.0250388 0)
(1.44725 -0.0192519 0)
(1.46392 -0.0169439 0)
(1.47697 -0.0149562 0)
(1.48506 -0.0117773 0)
(1.49309 -0.0093684 0)
(1.49714 -0.00628319 0)
(1.49907 -0.00602995 0)
(1.50271 -0.00370694 0)
(1.50532 -0.00270911 0)
(1.50468 -0.00357349 0)
(1.50462 -0.00056204 0)
(1.5058 -0.000405643 0)
(1.50695 -0.000197874 0)
(1.50761 0.00253619 0)
(1.50741 0.00306233 0)
(1.50948 0.00453968 0)
(1.51168 0.00222497 0)
(1.51021 -0.000918708 0)
(1.50831 0.000806633 0)
(1.50578 0.000604639 0)
(1.50514 -0.00375677 0)
(1.50747 -0.00369423 0)
(1.50733 -0.0038742 0)
(1.50954 -0.0045652 0)
(1.51114 -0.00749608 0)
(1.5079 -0.0126428 0)
(1.50577 -0.0173016 0)
(1.50542 -0.0229896 0)
(1.50429 -0.0272054 0)
(1.50429 -0.0339379 0)
(1.50292 -0.0463228 0)
(1.49844 -0.0541526 0)
(1.49289 -0.0661682 0)
(1.48713 -0.0792137 0)
(1.4794 -0.0896506 0)
(1.47098 -0.106619 0)
(1.46037 -0.123985 0)
(1.44467 -0.142206 0)
(1.42728 -0.157798 0)
(1.00917 -0.0220377 0)
(1.03389 -0.050905 0)
(1.07633 -0.072552 0)
(1.1254 -0.0847981 0)
(1.17906 -0.0892228 0)
(1.23265 -0.0891822 0)
(1.28333 -0.08016 0)
(1.32801 -0.0704067 0)
(1.36274 -0.0598044 0)
(1.39245 -0.0485359 0)
(1.41841 -0.0389749 0)
(1.43616 -0.0311043 0)
(1.45187 -0.0249771 0)
(1.46474 -0.0212168 0)
(1.47265 -0.0149235 0)
(1.47915 -0.0114482 0)
(1.48267 -0.0115815 0)
(1.48533 -0.00837104 0)
(1.48844 -0.00356293 0)
(1.4908 -0.00488163 0)
(1.49078 -0.00243729 0)
(1.49095 -7.93035e-06 0)
(1.49139 0.00115367 0)
(1.49208 0.00194886 0)
(1.49238 0.000914903 0)
(1.49351 0.000784278 0)
(1.49433 0.00339967 0)
(1.4938 0.000154596 0)
(1.4954 -0.00330871 0)
(1.49448 -0.00140166 0)
(1.49022 -0.0014505 0)
(1.49048 -0.00233844 0)
(1.49263 -0.0027396 0)
(1.49224 -0.00554184 0)
(1.494 -0.00712778 0)
(1.49505 -0.0102603 0)
(1.49199 -0.014554 0)
(1.48938 -0.018516 0)
(1.48976 -0.0232787 0)
(1.48798 -0.0268938 0)
(1.48494 -0.0340853 0)
(1.48389 -0.0439441 0)
(1.4802 -0.051255 0)
(1.47339 -0.0640424 0)
(1.46923 -0.0751205 0)
(1.4607 -0.0864678 0)
(1.44912 -0.0997576 0)
(1.43775 -0.115771 0)
(1.42325 -0.130986 0)
(1.40533 -0.143972 0)
(1.01053 -0.0303154 0)
(1.03584 -0.0713276 0)
(1.0777 -0.10064 0)
(1.12605 -0.114384 0)
(1.17742 -0.120526 0)
(1.23055 -0.116578 0)
(1.28026 -0.106328 0)
(1.32262 -0.0939327 0)
(1.35469 -0.079244 0)
(1.38077 -0.064538 0)
(1.40511 -0.0502496 0)
(1.42094 -0.0407308 0)
(1.43359 -0.0299575 0)
(1.446 -0.0248338 0)
(1.45346 -0.0206542 0)
(1.45722 -0.0146588 0)
(1.46114 -0.0106911 0)
(1.4658 -0.00774049 0)
(1.46672 -0.00340439 0)
(1.46774 -0.00424017 0)
(1.4697 -0.0034306 0)
(1.46894 -0.000786295 0)
(1.46911 0.000500599 0)
(1.46915 0.00102405 0)
(1.46936 -0.00237954 0)
(1.47152 -0.00103195 0)
(1.47178 -1.29097e-05 0)
(1.4701 0.000265277 0)
(1.47218 -0.000611363 0)
(1.4723 -0.00179734 0)
(1.46821 -0.00253269 0)
(1.46776 -0.000981893 0)
(1.4692 -0.00436518 0)
(1.4683 -0.00547446 0)
(1.47081 -0.00826343 0)
(1.47136 -0.0111898 0)
(1.46807 -0.0157043 0)
(1.46565 -0.0185613 0)
(1.46632 -0.0234791 0)
(1.46445 -0.0278934 0)
(1.46091 -0.0321734 0)
(1.45954 -0.0397404 0)
(1.45399 -0.0476768 0)
(1.44666 -0.0573436 0)
(1.44229 -0.0678525 0)
(1.43346 -0.0814923 0)
(1.42212 -0.094404 0)
(1.41004 -0.106866 0)
(1.39557 -0.120036 0)
(1.3771 -0.131989 0)
(1.01187 -0.038891 0)
(1.03826 -0.0918667 0)
(1.0803 -0.13043 0)
(1.12741 -0.147876 0)
(1.17726 -0.150161 0)
(1.22828 -0.14264 0)
(1.2736 -0.129349 0)
(1.31247 -0.11432 0)
(1.34252 -0.0979132 0)
(1.36698 -0.0776647 0)
(1.38628 -0.0609079 0)
(1.39948 -0.048296 0)
(1.41057 -0.0354836 0)
(1.41815 -0.0292414 0)
(1.42613 -0.0257663 0)
(1.43236 -0.0171926 0)
(1.43355 -0.00948889 0)
(1.43675 -0.00665707 0)
(1.43731 -0.00644384 0)
(1.43735 -0.00334707 0)
(1.43996 -0.00419647 0)
(1.43992 -0.00281131 0)
(1.43946 -0.00106611 0)
(1.43735 -0.00129885 0)
(1.43822 -0.00369347 0)
(1.44195 -0.00144471 0)
(1.44243 -0.001532 0)
(1.44094 0.000390167 0)
(1.4419 -0.000300336 0)
(1.44103 -0.00134623 0)
(1.43873 -0.00269039 0)
(1.4374 -0.00206661 0)
(1.43835 -0.00632564 0)
(1.43859 -0.00658267 0)
(1.43922 -0.00899041 0)
(1.43977 -0.0121387 0)
(1.43672 -0.0148721 0)
(1.43457 -0.0187508 0)
(1.43483 -0.0220223 0)
(1.43396 -0.0281599 0)
(1.4296 -0.0314062 0)
(1.42684 -0.0385449 0)
(1.42213 -0.0458124 0)
(1.41417 -0.0521977 0)
(1.40788 -0.0633705 0)
(1.39853 -0.0755175 0)
(1.38811 -0.0867324 0)
(1.37604 -0.0974086 0)
(1.36148 -0.109498 0)
(1.34233 -0.122098 0)
(1.01358 -0.0475946 0)
(1.04013 -0.112974 0)
(1.08128 -0.160397 0)
(1.13045 -0.180341 0)
(1.17832 -0.178917 0)
(1.22458 -0.171336 0)
(1.26568 -0.15272 0)
(1.2991 -0.132333 0)
(1.32644 -0.11211 0)
(1.34725 -0.0903314 0)
(1.36207 -0.0730247 0)
(1.37255 -0.0564707 0)
(1.37932 -0.044058 0)
(1.38486 -0.0350443 0)
(1.39289 -0.0259945 0)
(1.3989 -0.0194457 0)
(1.39908 -0.0144499 0)
(1.39901 -0.00922161 0)
(1.40001 -0.0082997 0)
(1.40059 -0.00541519 0)
(1.40163 -0.00552611 0)