/*--------------------------------*- C++ -*----------------------------------*\
  =========                 |
  \\      /  F ield         | OpenFOAM: The Open Source CFD Toolbox
   \\    /   O peration     | Website:  https://openfoam.org
    \\  /    A nd           | Version:  6
     \\/     M anipulation  |
\*---------------------------------------------------------------------------*/
FoamFile
{
    version     2.0;
    format      ascii;
    class       volVectorField;
    location    "22647";
    object      U;
}
// * * * * * * * * * * * * * * * * * * * * * * * * * * * * * * * * * * * * * //

dimensions      [0 1 -1 0 0 0 0];

internalField   nonuniform List<vector> 
115600
(
(0.00653181 -0.00184551 0)
(0.0074584 -3.61209e-05 0)
(0.00796516 1.46179e-06 0)
(0.00828586 1.33457e-06 0)
(0.00852948 6.4858e-07 0)
(0.00868697 1.00283e-06 0)
(0.00875856 1.1868e-06 0)
(0.00877047 1.12453e-06 0)
(0.00874972 1.01709e-06 0)
(0.00870503 9.73286e-07 0)
(0.0086454 9.17276e-07 0)
(0.00857725 8.52333e-07 0)
(0.00850514 7.83794e-07 0)
(0.00843225 7.16014e-07 0)
(0.00836061 6.52908e-07 0)
(0.00829148 5.94499e-07 0)
(0.00822566 5.4046e-07 0)
(0.00816365 4.90354e-07 0)
(0.00810573 4.43708e-07 0)
(0.0080521 4.00091e-07 0)
(0.00800283 3.59136e-07 0)
(0.00795793 3.20524e-07 0)
(0.00791738 2.83983e-07 0)
(0.00788112 2.49281e-07 0)
(0.00784908 2.16229e-07 0)
(0.00782114 1.84658e-07 0)
(0.00779722 1.54417e-07 0)
(0.00777719 1.25371e-07 0)
(0.00776095 9.73973e-08 0)
(0.00774837 7.03645e-08 0)
(0.00773937 4.4067e-08 0)
(0.00773382 1.8044e-08 0)
(0.0077317 -1.57182e-08 0)
(0.00773411 -5.14696e-08 0)
(0.00774021 -7.91359e-08 0)
(0.00774974 -1.03587e-07 0)
(0.00776245 -1.27031e-07 0)
(0.00777818 -1.50361e-07 0)
(0.0077969 -1.74112e-07 0)
(0.0078186 -1.98863e-07 0)
(0.00784335 -2.25295e-07 0)
(0.00787129 -2.54206e-07 0)
(0.00790266 -2.8662e-07 0)
(0.0079378 -3.23844e-07 0)
(0.00797719 -3.67833e-07 0)
(0.00802156 -4.21449e-07 0)
(0.00807185 -4.87704e-07 0)
(0.00812951 -5.73749e-07 0)
(0.0081963 -6.83364e-07 0)
(0.00827572 -8.47993e-07 0)
(0.00837058 -1.04725e-06 0)
(0.00849418 -1.50089e-06 0)
(0.00864417 -1.90293e-06 0)
(0.00890925 -4.57672e-06 0)
(0.00921333 -1.0784e-05 0)
(0.0109197 -0.000213953 0)
(0.0197127 -0.000382163 0)
(0.0218172 -7.11479e-05 0)
(0.0235908 -4.57805e-05 0)
(0.0246873 -3.06924e-05 0)
(0.0254282 -2.04537e-05 0)
(0.0258893 -9.59743e-06 0)
(0.0261136 -1.24467e-06 0)
(0.0261675 3.83285e-06 0)
(0.0261192 6.71152e-06 0)
(0.0260016 8.56356e-06 0)
(0.0258398 9.58281e-06 0)
(0.0256521 9.99429e-06 0)
(0.0254513 9.98796e-06 0)
(0.0252467 9.71398e-06 0)
(0.0250442 9.28431e-06 0)
(0.024848 8.76521e-06 0)
(0.0246605 8.19707e-06 0)
(0.0244833 7.60503e-06 0)
(0.0243176 7.00495e-06 0)
(0.024164 6.40691e-06 0)
(0.0240228 5.81742e-06 0)
(0.0238942 5.24062e-06 0)
(0.0237781 4.67909e-06 0)
(0.0236744 4.13437e-06 0)
(0.0235828 3.60731e-06 0)
(0.0235032 3.09826e-06 0)
(0.0234352 2.60722e-06 0)
(0.0233785 2.13393e-06 0)
(0.0233327 1.67793e-06 0)
(0.0232975 1.23836e-06 0)
(0.0232725 8.13624e-07 0)
(0.0232574 3.95362e-07 0)
(0.0232524 -8.36963e-08 0)
(0.0232596 -5.77627e-07 0)
(0.0232772 -1.00162e-06 0)
(0.0233043 -1.38587e-06 0)
(0.0233401 -1.74601e-06 0)
(0.0233843 -2.09248e-06 0)
(0.0234365 -2.43288e-06 0)
(0.0234967 -2.77443e-06 0)
(0.0235648 -3.125e-06 0)
(0.0236412 -3.49375e-06 0)
(0.0237263 -3.89189e-06 0)
(0.0238207 -4.33384e-06 0)
(0.0239256 -4.83998e-06 0)
(0.0240426 -5.43779e-06 0)
(0.0241738 -6.16375e-06 0)
(0.0243225 -7.07481e-06 0)
(0.0244929 -8.25421e-06 0)
(0.0246928 -9.86758e-06 0)
(0.0249301 -1.21524e-05 0)
(0.025232 -1.58726e-05 0)
(0.0256075 -2.2229e-05 0)
(0.0262254 -3.83304e-05 0)
(0.0270507 -9.33157e-05 0)
(0.0299731 -0.000373311 0)
(0.0310013 -0.000463719 0)
(0.0342342 -0.00024001 0)
(0.0369921 -0.000164146 0)
(0.0387469 -0.000110878 0)
(0.0399407 -7.43971e-05 0)
(0.0407422 -4.31359e-05 0)
(0.0412309 -1.91229e-05 0)
(0.041485 -2.7433e-06 0)
(0.041567 7.76021e-06 0)
(0.0415391 1.46508e-05 0)
(0.0414335 1.90572e-05 0)
(0.0412751 2.16265e-05 0)
(0.0410825 2.28531e-05 0)
(0.0408698 2.31465e-05 0)
(0.0406471 2.28207e-05 0)
(0.0404217 2.20816e-05 0)
(0.040199 2.10662e-05 0)
(0.0399828 1.98675e-05 0)
(0.0397761 1.85497e-05 0)
(0.0395809 1.71587e-05 0)
(0.0393989 1.57273e-05 0)
(0.0392309 1.42795e-05 0)
(0.0390777 1.2833e-05 0)
(0.0389397 1.14005e-05 0)
(0.0388172 9.99163e-06 0)
(0.03871 8.61313e-06 0)
(0.0386182 7.26983e-06 0)
(0.0385415 5.96498e-06 0)
(0.0384795 4.70048e-06 0)
(0.0384321 3.47663e-06 0)
(0.0383987 2.29078e-06 0)
(0.0383791 1.11914e-06 0)
(0.0383734 -1.7077e-07 0)
(0.0383832 -1.48617e-06 0)
(0.0384069 -2.65233e-06 0)
(0.0384437 -3.71819e-06 0)
(0.0384925 -4.71749e-06 0)
(0.038553 -5.67411e-06 0)
(0.0386245 -6.60738e-06 0)
(0.038707 -7.53607e-06 0)
(0.0388005 -8.4806e-06 0)
(0.0389053 -9.46464e-06 0)
(0.0390218 -1.05169e-05 0)
(0.0391509 -1.16741e-05 0)
(0.039294 -1.2987e-05 0)
(0.0394532 -1.45233e-05 0)
(0.0396312 -1.63742e-05 0)
(0.0398319 -1.8677e-05 0)
(0.040061 -2.16397e-05 0)
(0.0403276 -2.56402e-05 0)
(0.0406423 -3.1306e-05 0)
(0.0410354 -4.02575e-05 0)
(0.0415249 -5.58117e-05 0)
(0.0422821 -9.14685e-05 0)
(0.043294 -0.00019558 0)
(0.0460027 -0.000506568 0)
(0.0409267 -0.000925098 0)
(0.0441067 -0.000460144 0)
(0.0470782 -0.000312443 0)
(0.0490545 -0.000213796 0)
(0.050451 -0.000146178 0)
(0.0514571 -9.19193e-05 0)
(0.0521588 -5.04082e-05 0)
(0.0526264 -2.06897e-05 0)
(0.0529102 -3.97887e-07 0)
(0.0530598 1.32525e-05 0)
(0.0531161 2.24215e-05 0)
(0.053103 2.8377e-05 0)
(0.0530392 3.19256e-05 0)
(0.0529394 3.37273e-05 0)
(0.0528146 3.43012e-05 0)
(0.0526734 3.40025e-05 0)
(0.0525227 3.30784e-05 0)
(0.0523676 3.17039e-05 0)
(0.0522124 3.00063e-05 0)
(0.0520604 2.80801e-05 0)
(0.0519142 2.59964e-05 0)
(0.0517758 2.38095e-05 0)
(0.0516467 2.15611e-05 0)
(0.0515282 1.92834e-05 0)
(0.0514211 1.70015e-05 0)
(0.051326 1.47346e-05 0)
(0.0512434 1.24975e-05 0)
(0.0511734 1.03012e-05 0)
(0.0511163 8.15375e-06 0)
(0.051072 6.05939e-06 0)
(0.0510404 4.0161e-06 0)
(0.0510214 1.98795e-06 0)
(0.0510153 -1.93123e-07 0)
(0.0510227 -2.4033e-06 0)
(0.0510428 -4.41238e-06 0)
(0.0510753 -6.27535e-06 0)
(0.0511198 -8.03717e-06 0)
(0.051176 -9.73237e-06 0)
(0.0512437 -1.13917e-05 0)
(0.0513229 -1.30463e-05 0)
(0.0514138 -1.47309e-05 0)
(0.0515169 -1.64859e-05 0)
(0.051633 -1.83605e-05 0)
(0.0517631 -2.04177e-05 0)
(0.0519088 -2.27431e-05 0)
(0.0520724 -2.54513e-05 0)
(0.0522569 -2.86963e-05 0)
(0.0524666 -3.27063e-05 0)
(0.0527072 -3.78298e-05 0)
(0.0529881 -4.4673e-05 0)
(0.0533201 -5.42932e-05 0)
(0.0537314 -6.91572e-05 0)
(0.0542403 -9.47408e-05 0)
(0.0549901 -0.000149444 0)
(0.0559402 -0.000292715 0)
(0.0580673 -0.000609782 0)
(0.0502168 -0.00129848 0)
(0.0525604 -0.000652434 0)
(0.0551579 -0.000455738 0)
(0.0569748 -0.000318272 0)
(0.0583119 -0.000222659 0)
(0.0593237 -0.0001479 0)
(0.0600787 -9.06537e-05 0)
(0.0606324 -4.86117e-05 0)
(0.0610258 -1.86225e-05 0)
(0.0612897 2.31091e-06 0)
(0.0614588 1.67642e-05 0)
(0.0615581 2.66758e-05 0)
(0.0616033 3.32182e-05 0)
(0.0616068 3.72471e-05 0)
(0.0615787 3.9443e-05 0)
(0.061527 4.02831e-05 0)
(0.0614581 4.01088e-05 0)
(0.0613773 3.91697e-05 0)
(0.0612891 3.7653e-05 0)
(0.0611969 3.57018e-05 0)
(0.0611037 3.34272e-05 0)
(0.0610118 3.09164e-05 0)
(0.0609232 2.82385e-05 0)
(0.0608394 2.54484e-05 0)
(0.0607618 2.25899e-05 0)
(0.0606913 1.9698e-05 0)
(0.0606287 1.68005e-05 0)
(0.0605746 1.39191e-05 0)
(0.0605295 1.10701e-05 0)
(0.0604937 8.26414e-06 0)
(0.0604675 5.50168e-06 0)
(0.0604512 2.74415e-06 0)
(0.0604451 -1.78448e-07 0)
(0.0604492 -3.13232e-06 0)
(0.0604636 -5.87492e-06 0)
(0.0604885 -8.45927e-06 0)
(0.0605237 -1.09335e-05 0)
(0.0605696 -1.33379e-05 0)
(0.0606261 -1.57115e-05 0)
(0.0606937 -1.8096e-05 0)
(0.0607729 -2.05389e-05 0)
(0.0608643 -2.3097e-05 0)
(0.0609689 -2.58394e-05 0)
(0.061088 -2.88546e-05 0)
(0.0612234 -3.22631e-05 0)
(0.0613776 -3.62249e-05 0)
(0.0615535 -4.09562e-05 0)
(0.0617557 -4.67725e-05 0)
(0.0619898 -5.41567e-05 0)
(0.0622648 -6.39247e-05 0)
(0.0625912 -7.75256e-05 0)
(0.0629943 -9.8123e-05 0)
(0.0634905 -0.000132937 0)
(0.0641973 -0.000203088 0)
(0.0650486 -0.000373095 0)
(0.0667353 -0.00069034 0)
(0.0592111 -0.00154303 0)
(0.0604579 -0.000799347 0)
(0.0623604 -0.000576434 0)
(0.0637676 -0.00041133 0)
(0.0648545 -0.000293853 0)
(0.0657172 -0.000202634 0)
(0.0663932 -0.000132409 0)
(0.0669173 -7.99916e-05 0)
(0.0673172 -4.1572e-05 0)
(0.0676144 -1.38758e-05 0)
(0.0678266 5.71618e-06 0)
(0.0679771 1.94909e-05 0)
(0.068079 2.90733e-05 0)
(0.0681416 3.55004e-05 0)
(0.0681729 3.95704e-05 0)
(0.0681793 4.18527e-05 0)
(0.0681663 4.27627e-05 0)
(0.0681384 4.26108e-05 0)
(0.0680995 4.16339e-05 0)
(0.0680528 4.00164e-05 0)
(0.0680011 3.79037e-05 0)
(0.0679466 3.54119e-05 0)
(0.0678913 3.26342e-05 0)
(0.0678369 2.9646e-05 0)
(0.0677846 2.65083e-05 0)
(0.0677357 2.32707e-05 0)
(0.0676911 1.99733e-05 0)
(0.0676517 1.66479e-05 0)
(0.067618 1.33192e-05 0)
(0.0675907 1.00039e-05 0)
(0.0675703 6.70571e-06 0)
(0.0675573 3.38858e-06 0)
(0.0675519 -1.03976e-07 0)
(0.0675544 -3.63786e-06 0)
(0.067565 -6.97917e-06 0)
(0.0675841 -1.01779e-05 0)
(0.0676122 -1.32829e-05 0)
(0.0676495 -1.63376e-05 0)
(0.0676965 -1.93872e-05 0)
(0.0677538 -2.24823e-05 0)
(0.0678221 -2.56821e-05 0)
(0.0679022 -2.9058e-05 0)
(0.0679953 -3.26983e-05 0)
(0.0681028 -3.67164e-05 0)
(0.0682267 -4.1266e-05 0)
(0.0683694 -4.65518e-05 0)
(0.068534 -5.28501e-05 0)
(0.068725 -6.05609e-05 0)
(0.0689478 -7.02954e-05 0)
(0.069211 -8.30623e-05 0)
(0.0695247 -0.000100672 0)
(0.0699115 -0.000126852 0)
(0.0703855 -0.000170271 0)
(0.0710449 -0.000253242 0)
(0.0718077 -0.000442852 0)
(0.0731962 -0.000757687 0)
(0.0678917 -0.00168024 0)
(0.0681174 -0.000890682 0)
(0.0692124 -0.000659267 0)
(0.0700714 -0.000480655 0)
(0.0707821 -0.00035 0)
(0.0713862 -0.000248027 0)
(0.0718863 -0.000168728 0)
(0.0722937 -0.000108703 0)
(0.0726207 -6.38981e-05 0)
(0.0728781 -3.08112e-05 0)
(0.0730757 -6.8307e-06 0)
(0.0732228 1.03209e-05 0)
(0.0733333 2.25623e-05 0)
(0.0734125 3.11795e-05 0)
(0.0734657 3.70363e-05 0)
(0.0734974 4.076e-05 0)
(0.0735117 4.2817e-05 0)
(0.0735119 4.35612e-05 0)
(0.073501 4.32667e-05 0)
(0.0734816 4.21492e-05 0)
(0.0734558 4.03804e-05 0)
(0.0734257 3.80989e-05 0)
(0.0733928 3.5417e-05 0)
(0.0733587 3.24265e-05 0)
(0.0733245 2.92023e-05 0)
(0.0732913 2.58061e-05 0)
(0.0732602 2.22882e-05 0)
(0.0732319 1.8689e-05 0)
(0.0732072 1.50404e-05 0)
(0.0731867 1.13644e-05 0)
(0.0731711 7.66803e-06 0)
(0.0731608 3.9189e-06 0)
(0.0731564 -2.06024e-08 0)
(0.073158 -4.01931e-06 0)
(0.073166 -7.85956e-06 0)
(0.073181 -1.15885e-05 0)
(0.0732035 -1.52553e-05 0)
(0.0732342 -1.89064e-05 0)
(0.0732735 -2.25926e-05 0)
(0.0733222 -2.63722e-05 0)
(0.0733811 -3.03152e-05 0)
(0.0734512 -3.45073e-05 0)
(0.0735339 -3.9055e-05 0)
(0.0736305 -4.40955e-05 0)
(0.0737431 -4.98152e-05 0)
(0.0738742 -5.64619e-05 0)
(0.0740269 -6.43706e-05 0)
(0.0742054 -7.40223e-05 0)
(0.0744152 -8.61516e-05 0)
(0.0746642 -0.000101945 0)
(0.074962 -0.000123549 0)
(0.0753292 -0.000155149 0)
(0.0757777 -0.000206642 0)
(0.076391 -0.000300541 0)
(0.0770776 -0.000505188 0)
(0.0782574 -0.000816178 0)
(0.0760948 -0.00173447 0)
(0.0755554 -0.000926761 0)
(0.075896 -0.000696379 0)
(0.07617 -0.000517438 0)
(0.0764402 -0.000383188 0)
(0.0767172 -0.000277245 0)
(0.0769753 -0.000193705 0)
(0.0772041 -0.000129577 0)
(0.0774005 -8.09926e-05 0)
(0.0775643 -4.45012e-05 0)
(0.0776968 -1.74834e-05 0)
(0.0777996 2.14827e-06 0)
(0.0778799 1.6347e-05 0)
(0.0779402 2.66425e-05 0)
(0.0779831 3.39195e-05 0)
(0.0780112 3.8829e-05 0)
(0.0780268 4.18645e-05 0)
(0.078032 4.34051e-05 0)
(0.0780287 4.37477e-05 0)
(0.0780186 4.31274e-05 0)
(0.0780031 4.17333e-05 0)
(0.0779837 3.97185e-05 0)
(0.0779614 3.72079e-05 0)
(0.0779375 3.43045e-05 0)
(0.0779128 3.1093e-05 0)
(0.0778882 2.76432e-05 0)
(0.0778646 2.40126e-05 0)
(0.0778427 2.0248e-05 0)
(0.0778231 1.63862e-05 0)
(0.0778064 1.24532e-05 0)
(0.0777933 8.45829e-06 0)
(0.0777843 4.37247e-06 0)
(0.0777798 7.80114e-08 0)
(0.07778 -4.29926e-06 0)
(0.0777855 -8.56082e-06 0)
(0.0777968 -1.27503e-05 0)
(0.0778146 -1.6918e-05 0)
(0.0778395 -2.11138e-05 0)
(0.0778722 -2.53941e-05 0)
(0.0779134 -2.9825e-05 0)
(0.0779641 -3.44869e-05 0)
(0.0780253 -3.94793e-05 0)
(0.0780985 -4.49264e-05 0)
(0.078185 -5.09888e-05 0)
(0.0782869 -5.78843e-05 0)
(0.0784067 -6.59029e-05 0)
(0.0785476 -7.54365e-05 0)
(0.0787135 -8.7044e-05 0)
(0.0789097 -0.000101578 0)
(0.0791438 -0.000120391 0)
(0.0794248 -0.00014594 0)
(0.0797715 -0.000182783 0)
(0.0801937 -0.000241864 0)
(0.0807642 -0.000345233 0)
(0.0813859 -0.000561816 0)
(0.0824121 -0.00086832 0)
(0.0836429 -0.00172883 0)
(0.0826444 -0.000918321 0)
(0.0824027 -0.000689177 0)
(0.0821494 -0.000518237 0)
(0.0819764 -0.000388515 0)
(0.081898 -0.000285287 0)
(0.0818766 -0.000202681 0)
(0.0818868 -0.000138377 0)
(0.0819129 -8.90202e-05 0)
(0.0819444 -5.14523e-05 0)
(0.0819749 -2.32089e-05 0)
(0.0820006 -2.40479e-06 0)
(0.0820201 1.28189e-05 0)
(0.082033 2.40459e-05 0)
(0.0820396 3.21536e-05 0)
(0.0820401 3.77877e-05 0)
(0.0820352 4.14441e-05 0)
(0.0820255 4.35082e-05 0)
(0.0820118 4.42839e-05 0)
(0.0819948 4.40134e-05 0)
(0.0819751 4.28925e-05 0)
(0.0819533 4.10803e-05 0)
(0.0819303 3.87076e-05 0)
(0.0819065 3.58822e-05 0)
(0.0818825 3.26936e-05 0)
(0.0818589 2.92157e-05 0)
(0.0818363 2.55097e-05 0)
(0.0818152 2.16255e-05 0)
(0.0817961 1.76023e-05 0)
(0.0817794 1.34679e-05 0)
(0.0817656 9.23255e-06 0)
(0.0817553 4.86964e-06 0)
(0.0817488 2.8032e-07 0)
(0.0817461 -4.41857e-06 0)
(0.0817481 -9.04877e-06 0)
(0.0817552 -1.36487e-05 0)
(0.081768 -1.82708e-05 0)
(0.0817872 -2.29694e-05 0)
(0.0818135 -2.78068e-05 0)
(0.0818476 -3.28576e-05 0)
(0.0818905 -3.82126e-05 0)
(0.0819434 -4.39852e-05 0)
(0.0820075 -5.0317e-05 0)
(0.0820844 -5.73915e-05 0)
(0.0821761 -6.54576e-05 0)
(0.082285 -7.48463e-05 0)
(0.0824142 -8.6005e-05 0)
(0.0825677 -9.9568e-05 0)
(0.0827504 -0.000116501 0)
(0.0829696 -0.000138311 0)
(0.0832337 -0.000167746 0)
(0.0835602 -0.000209668 0)
(0.0839569 -0.000275913 0)
(0.0844881 -0.000387632 0)
(0.0850545 -0.000613938 0)
(0.085962 -0.00091575 0)
(0.0904081 -0.00168235 0)
(0.0892096 -0.000880905 0)
(0.0886184 -0.000646794 0)
(0.0879761 -0.000485489 0)
(0.0874207 -0.000364814 0)
(0.0870023 -0.00026946 0)
(0.0866937 -0.000192501 0)
(0.0864669 -0.000131924 0)
(0.0862991 -8.49399e-05 0)
(0.0861731 -4.88177e-05 0)
(0.0860761 -2.14046e-05 0)
(0.0859993 -9.93573e-07 0)
(0.0859345 1.41119e-05 0)
(0.0858778 2.53381e-05 0)
(0.085827 3.35104e-05 0)
(0.0857804 3.92423e-05 0)
(0.0857369 4.3009e-05 0)
(0.0856956 4.51822e-05 0)
(0.0856561 4.60561e-05 0)
(0.0856181 4.58667e-05 0)
(0.0855812 4.48053e-05 0)
(0.0855456 4.30282e-05 0)
(0.0855111 4.06642e-05 0)
(0.0854779 3.78201e-05 0)
(0.0854462 3.45843e-05 0)
(0.0854161 3.10306e-05 0)
(0.0853879 2.72197e-05 0)
(0.0853617 2.32012e-05 0)
(0.0853379 1.90142e-05 0)
(0.0853168 1.46856e-05 0)
(0.0852986 1.0225e-05 0)
(0.0852838 5.60663e-06 0)
(0.0852726 7.49432e-07 0)
(0.085265 -4.24426e-06 0)
(0.0852616 -9.21761e-06 0)
(0.0852631 -1.42009e-05 0)
(0.0852699 -1.92501e-05 0)
(0.0852826 -2.44247e-05 0)
(0.0853019 -2.97941e-05 0)
(0.0853286 -3.54418e-05 0)
(0.0853636 -4.14697e-05 0)
(0.085408 -4.80052e-05 0)
(0.0854631 -5.52077e-05 0)
(0.0855305 -6.32833e-05 0)
(0.0856121 -7.2512e-05 0)
(0.0857103 -8.32651e-05 0)
(0.0858281 -9.60443e-05 0)
(0.0859692 -0.000111557 0)
(0.0861386 -0.000130879 0)
(0.0863431 -0.000155662 0)
(0.0865907 -0.000188926 0)
(0.0868975 -0.00023578 0)
(0.08727 -0.000308823 0)
(0.0877652 -0.000428022 0)
(0.0882838 -0.000662386 0)
(0.0890957 -0.000959518 0)
(0.0963203 -0.00160774 0)
(0.0950902 -0.000829338 0)
(0.0943756 -0.000583177 0)
(0.0935361 -0.000427293 0)
(0.0927204 -0.000315262 0)
(0.0920259 -0.000229944 0)
(0.0914572 -0.000161871 0)
(0.0909994 -0.000108297 0)
(0.0906324 -6.66147e-05 0)
(0.0903374 -3.44371e-05 0)
(0.0900979 -9.94637e-06 0)
(0.0899013 8.41955e-06 0)
(0.0897341 2.21197e-05 0)
(0.0895904 3.2267e-05 0)
(0.0894658 3.95974e-05 0)
(0.0893564 4.46687e-05 0)
(0.0892595 4.79119e-05 0)
(0.0891728 4.96643e-05 0)
(0.0890945 5.01939e-05 0)
(0.0890233 4.97162e-05 0)
(0.0889581 4.84068e-05 0)
(0.0888981 4.64095e-05 0)
(0.0888427 4.38435e-05 0)
(0.0887915 4.08075e-05 0)
(0.088744 3.73838e-05 0)
(0.0887001 3.36408e-05 0)
(0.0886597 2.9635e-05 0)
(0.0886226 2.54122e-05 0)
(0.0885889 2.10081e-05 0)
(0.0885587 1.64463e-05 0)
(0.088532 1.17334e-05 0)
(0.0885091 6.84322e-06 0)
(0.0884901 1.71189e-06 0)
(0.0884747 -3.57955e-06 0)
(0.0884637 -8.89812e-06 0)
(0.0884575 -1.42621e-05 0)
(0.0884565 -1.97325e-05 0)
(0.0884614 -2.5375e-05 0)
(0.0884726 -3.12669e-05 0)
(0.0884909 -3.75013e-05 0)
(0.0885173 -4.41922e-05 0)
(0.0885527 -5.14814e-05 0)
(0.0885984 -5.95466e-05 0)
(0.0886559 -6.86168e-05 0)
(0.0887272 -7.90028e-05 0)
(0.0888145 -9.11163e-05 0)
(0.0889207 -0.000105513 0)
(0.0890496 -0.000122971 0)
(0.0892057 -0.000144672 0)
(0.0893958 -0.000172408 0)
(0.0896271 -0.000209449 0)
(0.0899149 -0.000261111 0)
(0.0902642 -0.000340634 0)
(0.0907262 -0.000466631 0)
(0.0912029 -0.000707731 0)
(0.0919353 -0.00100031 0)
(0.101353 -0.00151348 0)
(0.100178 -0.000774573 0)
(0.0995019 -0.000513322 0)
(0.0986613 -0.000356208 0)
(0.0977536 -0.000247847 0)
(0.0968983 -0.000170633 0)
(0.0961384 -0.000112051 0)
(0.095487 -6.73069e-05 0)
(0.0949381 -3.3116e-05 0)
(0.0944792 -6.99325e-06 0)
(0.0940942 1.27824e-05 0)
(0.0937665 2.756e-05 0)
(0.0934856 3.84796e-05 0)
(0.0932432 4.63672e-05 0)
(0.0930327 5.18525e-05 0)
(0.0928486 5.54097e-05 0)
(0.0926866 5.74026e-05 0)
(0.0925431 5.81145e-05 0)
(0.0924152 5.77709e-05 0)
(0.0923006 5.65533e-05 0)
(0.0921974 5.46102e-05 0)
(0.092104 5.20637e-05 0)
(0.0920192 4.90149e-05 0)
(0.0919419 4.55484e-05 0)
(0.0918713 4.17342e-05 0)
(0.0918069 3.76309e-05 0)
(0.091748 3.32863e-05 0)
(0.0916943 2.87389e-05 0)
(0.0916455 2.40176e-05 0)
(0.0916014 1.91403e-05 0)
(0.0915619 1.41085e-05 0)
(0.091527 8.89342e-06 0)
(0.0914967 3.44781e-06 0)
(0.0914705 -2.17289e-06 0)
(0.0914491 -7.86435e-06 0)
(0.0914327 -1.36318e-05 0)
(0.0914219 -1.95401e-05 0)
(0.0914169 -2.56625e-05 0)
(0.0914184 -3.20853e-05 0)
(0.091427 -3.8912e-05 0)
(0.0914435 -4.62696e-05 0)
(0.0914688 -5.43149e-05 0)
(0.0915043 -6.32445e-05 0)
(0.0915513 -7.33109e-05 0)
(0.0916117 -8.4856e-05 0)
(0.0916876 -9.83319e-05 0)
(0.0917819 -0.000114347 0)
(0.0918982 -0.000133751 0)
(0.092041 -0.000157828 0)
(0.0922165 -0.000188502 0)
(0.0924318 -0.000229281 0)
(0.0927009 -0.000285646 0)
(0.0930281 -0.000371368 0)
(0.0934591 -0.000503619 0)
(0.0938983 -0.000750363 0)
(0.0945624 -0.00103859 0)
(0.105516 -0.00140655 0)
(0.10443 -0.000722882 0)
(0.103869 -0.000449216 0)
(0.103169 -0.000286213 0)
(0.102342 -0.000174764 0)
(0.101482 -9.99715e-05 0)
(0.100647 -4.79886e-05 0)
(0.0998809 -1.13763e-05 0)
(0.0991984 1.4861e-05 0)
(0.0985982 3.39072e-05 0)
(0.0980748 4.77227e-05 0)
(0.0976196 5.75867e-05 0)
(0.0972234 6.44073e-05 0)
(0.0968774 6.88701e-05 0)
(0.0965745 7.14899e-05 0)
(0.096308 7.26416e-05 0)
(0.0960727 7.26066e-05 0)
(0.095864 7.16009e-05 0)
(0.095678 6.97944e-05 0)
(0.0955117 6.73238e-05 0)
(0.0953623 6.43001e-05 0)
(0.0952277 6.08154e-05 0)
(0.095106 5.69456e-05 0)
(0.0949956 5.27544e-05 0)
(0.0948953 4.82943e-05 0)
(0.094804 4.36091e-05 0)
(0.0947207 3.87341e-05 0)
(0.0946449 3.36966e-05 0)
(0.0945759 2.85159e-05 0)
(0.0945132 2.32012e-05 0)
(0.0944566 1.77465e-05 0)
(0.0944057 1.21188e-05 0)
(0.0943604 6.28222e-06 0)
(0.0943203 2.74925e-07 0)
(0.0942853 -5.83757e-06 0)
(0.0942561 -1.2058e-05 0)
(0.0942328 -1.84443e-05 0)
(0.0942158 -2.50799e-05 0)
(0.0942055 -3.20612e-05 0)
(0.0942025 -3.95035e-05 0)
(0.0942075 -4.75469e-05 0)
(0.0942214 -5.63648e-05 0)
(0.0942454 -6.61731e-05 0)
(0.0942808 -7.72485e-05 0)
(0.0943293 -8.99643e-05 0)
(0.0943931 -0.000104814 0)
(0.0944749 -0.000122457 0)
(0.0945781 -0.000143816 0)
(0.0947071 -0.000170273 0)
(0.0948678 -0.000203881 0)
(0.095067 -0.000248366 0)
(0.0953177 -0.000309347 0)
(0.0956232 -0.00040102 0)
(0.0960248 -0.000539085 0)
(0.0964298 -0.000790548 0)
(0.0970339 -0.00107467 0)
(0.108854 -0.00129311 0)
(0.107866 -0.000676588 0)
(0.10743 -0.000397191 0)
(0.106923 -0.00022815 0)
(0.106294 -0.000109315 0)
(0.10558 -3.05066e-05 0)
(0.104824 2.08876e-05 0)
(0.104059 5.36045e-05 0)
(0.103322 7.41133e-05 0)
(0.102635 8.68364e-05 0)
(0.102011 9.44541e-05 0)
(0.10145 9.86309e-05 0)
(0.100951 0.00010042 0)
(0.100507 0.000100514 0)
(0.100112 9.93669e-05 0)
(0.0997618 9.72789e-05 0)
(0.0994496 9.44571e-05 0)
(0.0991709 9.10501e-05 0)
(0.0989214 8.71691e-05 0)
(0.0986974 8.29e-05 0)
(0.0984957 7.83112e-05 0)
(0.0983137 7.34581e-05 0)
(0.0981489 6.83862e-05 0)
(0.0979994 6.31328e-05 0)
(0.0978635 5.77286e-05 0)
(0.0977397 5.21982e-05 0)
(0.0976267 4.65604e-05 0)
(0.0975237 4.08282e-05 0)
(0.0974296 3.50084e-05 0)
(0.0973439 2.90986e-05 0)
(0.0972658 2.30832e-05 0)
(0.097195 1.69228e-05 0)
(0.097131 1.0584e-05 0)
(0.0970735 4.1044e-06 0)
(0.0970218 -2.49649e-06 0)
(0.0969767 -9.24119e-06 0)
(0.0969383 -1.61699e-05 0)
(0.0969067 -2.33736e-05 0)
(0.0968823 -3.09612e-05 0)
(0.0968657 -3.90605e-05 0)
(0.0968573 -4.78263e-05 0)
(0.096858 -5.74491e-05 0)
(0.0968689 -6.81648e-05 0)
(0.0968913 -8.0275e-05 0)
(0.0969267 -9.41854e-05 0)
(0.0969773 -0.00011043 0)
(0.0970456 -0.000129724 0)
(0.097135 -0.000153055 0)
(0.0972495 -0.000181907 0)
(0.0973949 -0.000218453 0)
(0.0975776 -0.000266623 0)
(0.0978098 -0.000332153 0)
(0.0980939 -0.000429553 0)
(0.0984671 -0.000573073 0)
(0.0988404 -0.000828452 0)
(0.0993905 -0.00110875 0)
(0.111442 -0.00117692 0)
(0.110549 -0.000635181 0)
(0.110215 -0.000358068 0)
(0.109885 -0.000186416 0)
(0.109477 -6.07135e-05 0)
(0.108996 2.55698e-05 0)
(0.108432 8.22398e-05 0)
(0.107801 0.000117336 0)
(0.107134 0.000137158 0)
(0.106463 0.000146799 0)
(0.105812 0.000149933 0)
(0.105198 0.000149067 0)
(0.10463 0.000145815 0)
(0.10411 0.00014117 0)
(0.103639 0.000135712 0)
(0.103212 0.000129773 0)
(0.102827 0.000123542 0)
(0.102479 0.000117132 0)
(0.102165 0.000110608 0)
(0.101881 0.000104013 0)
(0.101623 9.73747e-05 0)
(0.10139 9.07119e-05 0)
(0.101178 8.40373e-05 0)
(0.100985 7.736e-05 0)
(0.100809 7.06856e-05 0)
(0.100648 6.40167e-05 0)
(0.100501 5.7353e-05 0)
(0.100366 5.06906e-05 0)
(0.100242 4.40209e-05 0)
(0.100129 3.73279e-05 0)
(0.100026 3.05844e-05 0)
(0.0999313 2.37425e-05 0)
(0.099845 1.67643e-05 0)
(0.0997666 9.68785e-06 0)
(0.0996955 2.50916e-06 0)
(0.0996313 -4.83818e-06 0)
(0.0995748 -1.23963e-05 0)
(0.0995259 -2.02465e-05 0)
(0.099485 -2.85087e-05 0)
(0.0994523 -3.73259e-05 0)
(0.0994284 -4.68686e-05 0)
(0.099414 -5.73452e-05 0)
(0.0994101 -6.90128e-05 0)
(0.0994178 -8.21984e-05 0)
(0.0994387 -9.7341e-05 0)
(0.0994747 -0.000115016 0)
(0.0995283 -0.000135992 0)
(0.0996027 -0.000161326 0)
(0.0997019 -0.000192598 0)
(0.0998313 -0.000232099 0)
(0.0999969 -0.000283945 0)
(0.10021 -0.000353968 0)
(0.100473 -0.000456894 0)
(0.100818 -0.000605574 0)
(0.101161 -0.00086416 0)
(0.101662 -0.00114096 0)
(0.113364 -0.00106001 0)
(0.112564 -0.000597134 0)
(0.112308 -0.000329731 0)
(0.112109 -0.000159778 0)
(0.111883 -3.07128e-05 0)
(0.111618 6.21321e-05 0)
(0.111285 0.000126278 0)
(0.110876 0.000167948 0)
(0.110396 0.000192307 0)
(0.109863 0.000203989 0)
(0.109297 0.000206835 0)
(0.108722 0.000203886 0)
(0.108156 0.000197399 0)
(0.107612 0.000188935 0)
(0.1071 0.000179492 0)
(0.106622 0.000169664 0)
(0.106181 0.00015978 0)
(0.105776 0.000150013 0)
(0.105404 0.000140443 0)
(0.105064 0.000131104 0)
(0.104753 0.000122002 0)
(0.104468 0.00011313 0)
(0.104208 0.000104475 0)
(0.103969 9.60203e-05 0)
(0.10375 8.77479e-05 0)
(0.103549 7.96385e-05 0)
(0.103364 7.16719e-05 0)
(0.103194 6.38261e-05 0)
(0.103038 5.60759e-05 0)
(0.102894 4.83903e-05 0)
(0.102762 4.07289e-05 0)
(0.10264 3.30337e-05 0)
(0.102528 2.52589e-05 0)
(0.102426 1.74325e-05 0)
(0.102332 9.55008e-06 0)
(0.102247 1.51235e-06 0)
(0.102169 -6.76752e-06 0)
(0.1021 -1.53635e-05 0)
(0.10204 -2.43903e-05 0)
(0.101989 -3.40054e-05 0)
(0.101947 -4.43975e-05 0)
(0.101916 -5.57942e-05 0)
(0.101895 -6.84744e-05 0)
(0.101886 -8.27916e-05 0)
(0.101891 -9.92186e-05 0)
(0.101911 -0.000118373 0)
(0.101949 -0.000141077 0)
(0.102007 -0.000168456 0)
(0.10209 -0.000202184 0)
(0.102202 -0.000244668 0)
(0.10235 -0.000300192 0)
(0.102543 -0.000374667 0)
(0.102784 -0.000482934 0)
(0.103102 -0.000636531 0)
(0.103416 -0.000897693 0)
(0.10387 -0.00117136 0)
(0.114716 -0.000947493 0)
(0.114015 -0.000562354 0)
(0.113821 -0.000309967 0)
(0.113715 -0.000144846 0)
(0.113615 -1.58281e-05 0)
(0.113508 8.05897e-05 0)
(0.113366 0.000150304 0)
(0.113172 0.000198528 0)
(0.112915 0.000229507 0)
(0.112595 0.00024695 0)
(0.112215 0.000254028 0)
(0.111786 0.000253478 0)
(0.111325 0.000247608 0)
(0.110846 0.000238274 0)
(0.110364 0.000226883 0)
(0.109892 0.000214432 0)
(0.109437 0.000201586 0)
(0.109004 0.000188759 0)
(0.108597 0.000176188 0)
(0.108217 0.000163995 0)
(0.107863 0.000152229 0)
(0.107535 0.000140898 0)
(0.107231 0.000129989 0)
(0.106949 0.000119475 0)
(0.106689 0.000109325 0)
(0.106448 9.95043e-05 0)
(0.106225 8.99756e-05 0)
(0.106019 8.07013e-05 0)
(0.105829 7.16408e-05 0)
(0.105652 6.27486e-05 0)
(0.105488 5.39707e-05 0)
(0.105337 4.52389e-05 0)
(0.105197 3.64976e-05 0)
(0.105068 2.776e-05 0)
(0.104949 1.90166e-05 0)
(0.10484 1.01644e-05 0)
(0.104739 1.07472e-06 0)
(0.104648 -8.36592e-06 0)
(0.104567 -1.82654e-05 0)
(0.104495 -2.87778e-05 0)
(0.104433 -4.0109e-05 0)
(0.104382 -5.25084e-05 0)
(0.104343 -6.62781e-05 0)
(0.104316 -8.17983e-05 0)
(0.104303 -9.95765e-05 0)
(0.104305 -0.000120274 0)
(0.104325 -0.000144765 0)
(0.104366 -0.000174244 0)
(0.104431 -0.000210478 0)
(0.104526 -0.000255983 0)
(0.104654 -0.000315196 0)
(0.104828 -0.000394092 0)
(0.105046 -0.000507529 0)
(0.105336 -0.000665841 0)
(0.105621 -0.000929009 0)
(0.106031 -0.00119994 0)
(0.11564 -0.000847548 0)
(0.115044 -0.00053203 0)
(0.114902 -0.000297107 0)
(0.114861 -0.000138317 0)
(0.114843 -1.14816e-05 0)
(0.114837 8.5815e-05 0)
(0.114821 0.000158259 0)
(0.11478 0.000210639 0)
(0.114702 0.000246826 0)
(0.114577 0.000270044 0)
(0.114401 0.000282909 0)
(0.114172 0.000287595 0)
(0.113892 0.00028595 0)
(0.113568 0.000279553 0)
(0.113209 0.000269749 0)
(0.112826 0.000257647 0)
(0.11243 0.000244136 0)
(0.112031 0.000229896 0)
(0.111638 0.000215422 0)
(0.111255 0.000201048 0)
(0.110888 0.000186987 0)
(0.110538 0.000173357 0)
(0.110207 0.000160215 0)
(0.109895 0.000147575 0)
(0.109602 0.000135423 0)
(0.109328 0.000123733 0)
(0.109072 0.000112465 0)
(0.108832 0.000101577 0)
(0.108609 9.1019e-05 0)
(0.1084 8.07351e-05 0)
(0.108206 7.06611e-05 0)
(0.108025 6.07201e-05 0)
(0.107856 5.08474e-05 0)
(0.107699 4.10409e-05 0)
(0.107554 3.12793e-05 0)
(0.107419 2.14605e-05 0)
(0.107294 1.14469e-05 0)
(0.107179 1.07889e-06 0)
(0.107075 -9.79295e-06 0)
(0.10698 -2.13154e-05 0)
(0.106897 -3.36911e-05 0)
(0.106825 -4.71897e-05 0)
(0.106766 -6.21388e-05 0)
(0.106719 -7.89468e-05 0)
(0.106686 -9.81563e-05 0)
(0.10667 -0.000120472 0)
(0.106671 -0.000146822 0)
(0.106693 -0.000178469 0)
(0.106739 -0.000217267 0)
(0.106814 -0.000265842 0)
(0.106923 -0.000328761 0)
(0.107075 -0.000412058 0)
(0.107271 -0.000530505 0)
(0.107532 -0.00069336 0)
(0.107789 -0.000958019 0)
(0.108156 -0.00122667 0)
(0.116308 -0.000763924 0)
(0.115807 -0.000506345 0)
(0.115706 -0.000289456 0)
(0.115709 -0.000137536 0)
(0.115741 -1.39311e-05 0)
(0.115796 8.26074e-05 0)
(0.115856 0.000155799 0)
(0.115907 0.000210118 0)
(0.11594 0.000249243 0)
(0.115948 0.000276224 0)
(0.115923 0.000293499 0)
(0.115862 0.000303006 0)
(0.115759 0.000306288 0)
(0.115613 0.000304585 0)
(0.115425 0.000298916 0)
(0.115197 0.000290141 0)
(0.114935 0.000279012 0)
(0.114646 0.000266187 0)
(0.114336 0.000252235 0)
(0.114014 0.000237634 0)
(0.113687 0.000222761 0)
(0.11336 0.000207903 0)
(0.113038 0.000193262 0)
(0.112725 0.000178971 0)
(0.112424 0.000165104 0)
(0.112134 0.000151694 0)
(0.111859 0.000138743 0)
(0.111597 0.000126231 0)
(0.111349 0.000114121 0)
(0.111115 0.000102361 0)
(0.110895 9.08872e-05 0)
(0.110688 7.96221e-05 0)
(0.110493 6.84964e-05 0)
(0.11031 5.74957e-05 0)
(0.110139 4.65875e-05 0)
(0.109979 3.56659e-05 0)
(0.10983 2.45943e-05 0)
(0.109692 1.32036e-05 0)
(0.109565 1.29327e-06 0)
(0.109447 -1.13301e-05 0)
(0.109342 -2.48606e-05 0)
(0.109248 -3.95634e-05 0)
(0.109167 -5.57896e-05 0)
(0.1091 -7.3978e-05 0)
(0.109047 -9.47073e-05 0)
(0.10901 -0.000118726 0)
(0.108992 -0.000147014 0)
(0.108994 -0.000180903 0)
(0.109021 -0.000222333 0)
(0.109076 -0.000274032 0)
(0.109164 -0.000340682 0)
(0.109294 -0.000428363 0)
(0.109465 -0.000551667 0)
(0.109698 -0.000718913 0)
(0.109926 -0.00098459 0)
(0.110252 -0.00125147 0)
(0.116851 -0.000694844 0)
(0.116426 -0.000484435 0)
(0.116355 -0.00028545 0)
(0.116385 -0.000140628 0)
(0.116449 -2.07392e-05 0)
(0.11654 7.41838e-05 0)
(0.116642 0.000147054 0)
(0.116745 0.000202005 0)
(0.116841 0.000242523 0)
(0.116925 0.000271535 0)
(0.116992 0.000291409 0)
(0.117036 0.000304025 0)
(0.117055 0.000310853 0)
(0.117045 0.000313025 0)
(0.117003 0.00031141 0)
(0.116927 0.000306678 0)
(0.116817 0.00029937 0)
(0.116673 0.000289948 0)
(0.116497 0.000278825 0)
(0.116294 0.000266384 0)
(0.116067 0.000252979 0)
(0.115822 0.000238928 0)
(0.115564 0.000224511 0)
(0.115298 0.00020996 0)
(0.115028 0.000195458 0)
(0.114759 0.000181139 0)
(0.114494 0.000167091 0)
(0.114235 0.000153365 0)
(0.113983 0.000139978 0)
(0.11374 0.000126916 0)
(0.113507 0.000114142 0)
(0.113284 0.000101596 0)
(0.113072 8.92203e-05 0)
(0.11287 7.69987e-05 0)
(0.112679 6.48951e-05 0)
(0.112499 5.28028e-05 0)
(0.11233 4.05848e-05 0)
(0.112171 2.8076e-05 0)
(0.112023 1.50687e-05 0)
(0.111885 1.31199e-06 0)
(0.111758 -1.34408e-05 0)
(0.111644 -2.94427e-05 0)
(0.111542 -4.70391e-05 0)
(0.111454 -6.66966e-05 0)
(0.111381 -8.90319e-05 0)
(0.111325 -0.000114837 0)
(0.111286 -0.000145144 0)
(0.111269 -0.000181351 0)
(0.111275 -0.00022548 0)
(0.11131 -0.000280357 0)
(0.111377 -0.000350758 0)
(0.111484 -0.000442803 0)
(0.111631 -0.000570809 0)
(0.111835 -0.000742304 0)
(0.112034 -0.00100857 0)
(0.11232 -0.00127422 0)
(0.117346 -0.000637102 0)
(0.11698 -0.000465384 0)
(0.116926 -0.000283865 0)
(0.116973 -0.000146318 0)
(0.117056 -3.04241e-05 0)