/*--------------------------------*- C++ -*----------------------------------*\
  =========                 |
  \\      /  F ield         | OpenFOAM: The Open Source CFD Toolbox
   \\    /   O peration     | Website:  https://openfoam.org
    \\  /    A nd           | Version:  6
     \\/     M anipulation  |
\*---------------------------------------------------------------------------*/
FoamFile
{
    version     2.0;
    format      ascii;
    class       volScalarField;
    location    "./ITHACAoutput/Offline/1";
    object      P_rec;
}
// * * * * * * * * * * * * * * * * * * * * * * * * * * * * * * * * * * * * * //

dimensions      [0 2 -2 0 0 0 0];

internalField   nonuniform List<scalar> 
13046
(
0.95767
0.908287
0.947122
0.964335
0.957885
0.916548
0.950236
0.911317
0.958809
0.73963
0.392112
0.94514
0.95353
0.86015
0.946239
0.802189
0.927389
0.463325
0.972936
0.941941
0.946594
0.790707
0.932854
0.454721
0.961737
0.934923
0.945726
0.942319
0.853124
0.94243
0.966179
0.891321
0.939684
0.965398
0.955171
0.935672
0.960851
0.958902
0.943496
0.96299
0.923118
0.895202
0.95244
0.966182
0.954427
0.959138
0.957384
0.948428
0.949549
0.898236
0.949747
0.883336
0.964831
0.861823
0.879082
0.853155
0.967604
0.67003
0.910639
0.913408
0.903917
0.801234
0.957629
0.94323
0.586106
0.834459
0.921958
0.689983
0.907519
0.931922
0.716566
0.907254
0.629059
0.899172
0.913437
0.972356
0.946507
0.935165
0.920403
0.873443
0.594861
0.958352
0.926164
0.947004
0.940867
0.54316
0.8117
0.806623
0.958328
0.613769
0.968558
0.75477
0.610132
0.909217
0.894037
0.752571
0.727284
0.93893
0.943754
0.961994
0.806441
0.636145
0.961152
0.96122
0.940021
0.969238
0.884655
0.88409
0.963022
0.906591
0.885595
0.637458
0.944924
0.226334
0.958566
0.880968
0.944414
0.896468
0.908584
0.698382
0.931665
0.738209
0.932186
0.720111
0.348222
0.944136
0.933769
0.795711
0.94324
0.961669
0.926339
0.887289
0.96786
0.769707
0.648938
0.86924
0.684045
0.949825
0.962903
0.874327
0.93601
0.930975
0.882329
0.957897
0.961248
0.894617
0.887438
0.968194
0.903862
0.900263
0.899994
0.773874
0.957277
0.970813
0.925295
0.910643
0.840741
0.855327
0.820864
0.853169
0.967318
0.968227
0.925465
0.871092
0.964027
0.728463
0.949536
0.409228
0.673708
0.943751
0.266936
0.862348
0.654302
0.946485
0.961874
0.839778
0.918352
0.927853
0.964758
0.884161
0.956348
0.463516
0.741359
0.962636
0.861099
0.91507
0.970094
0.913381
0.899607
0.938438
0.893019
0.957676
0.842196
0.953905
0.939141
0.82175
0.941695
0.799131
0.953107
0.561232
0.965592
0.79894
0.661677
0.762356
0.585065
0.964703
0.872211
0.824939
0.960856
0.942806
0.882428
0.915007
0.597716
0.545569
0.756388
0.964965
0.956819
0.961092
0.939683
0.948777
0.865663
0.937676
0.967763
0.785747
0.66857
0.936858
0.851221
0.957078
0.952085
0.334435
0.674277
0.962098
0.82738
0.857867
0.784341
0.623478
0.963505
0.881446
0.845302
0.967733
0.928298
0.793423
0.941482
0.738015
0.796579
0.967018
0.837704
0.800019
0.966764
0.953785
0.323451
0.652211
0.967
0.910196
0.865988
0.659858
0.935647
0.178104
0.966866
0.955321
0.934688
0.899602
0.896774
0.838286
0.855384
0.966796
0.961289
0.915733
0.861389
0.560435
0.939878
0.816756
0.93357
0.830502
0.772706
0.968284
0.879123
0.685936
0.938883
0.957122
0.949272
0.964121
0.870678
0.823455
0.967165
0.94155
0.80073
0.930829
0.939342
0.93673
0.968238
0.90268
0.848483
0.86788
0.802102
0.965677
0.859704
0.939948
0.658488
0.971544
0.910346
0.885645
0.968605
0.835547
0.833426
0.91261
0.722219
0.922006
0.965351
0.890901
0.851044
0.899263
0.893248
0.692279
0.922366
0.679915
0.92804
0.952096
0.489038
0.758916
0.915742
0.761473
0.931339
0.110719
0.945391
0.574666
0.946237
0.966676
0.911796
0.91664
0.822612
0.955501
0.951101
0.818892
0.599647
0.866694
0.837682
0.966832
0.709671
0.792213
0.967282
0.877802
0.952156
0.908742
0.802965
0.949724
0.873318
0.959183
0.824264
0.926502
0.50429
0.879118
0.802626
0.962464
0.899467
0.780044
0.947332
0.917662
0.872936
0.963731
0.882476
0.882059
0.967415
0.960017
0.904912
0.952366
0.964425
0.840132
0.846213
0.781334
0.568743
0.956601
0.708294
0.796459
0.967454
0.936549
0.903892
0.757929
0.88693
0.896318
0.667653
0.634728
0.916411
0.917919
0.941831
0.135093
0.603519
0.679799
0.935031
0.211062
0.893811
0.822131
0.96008
0.951356
0.791306
0.525506
0.923075
0.919748
0.73711
0.721403
0.917667
0.917365
0.964744
0.484359
0.703876
0.645801
0.935938
0.129342
0.941797
0.969067
0.949829
0.63696
0.182329
0.942062
0.958324
0.833765
0.916982
0.747767
0.48574
0.959716
0.113382
0.949112
0.513174
0.964428
0.923944
0.910879
0.950074
0.936655
0.96097
0.724361
0.941436
0.340047
0.943163
0.924622
0.961403
0.946686
0.966469
0.954703
0.967867
0.811471
0.850364
0.93406
0.93857
0.96642
0.947366
0.915858
0.967704
0.943553
0.774896
0.900184
0.938955
0.944474
0.450803
0.446515
0.77621
0.766787
0.756358
0.540244
0.957527
0.908124
0.934553
0.729162
0.961743
0.909969
0.873576
0.823491
0.79819
0.964663
0.236964
0.957176
0.558851
0.967364
0.748817
0.580196
0.6883
0.946995
0.311257
0.947236
0.0716551
0.504232
0.0306878
0.941294
0.539299
0.766531
0.868796
0.96016
0.385571
0.963811
0.641063
0.851073
0.672455
0.952562
0.778892
0.922056
0.370828
0.951889
0.949476
0.894368
0.519707
0.966161
0.723609
0.825993
0.964422
0.815122
0.758528
0.8318
0.967506
0.942637
-0.0907388
0.431772
0.13961
0.948491
0.555912
0.958005
0.955706
0.904242
0.465246
0.701303
0.961129
0.966628
0.675015
0.457059
0.789932
0.944395
0.518767
0.922091
0.561209
0.848878
0.952599
0.770574
0.899129
0.684537
0.908279
0.919356
0.921029
0.835703
0.488152
0.950873
0.94588
0.836536
0.812767
0.926956
0.92993
0.955165
0.845599
0.923195
0.932715
0.733204
0.916403
0.730042
0.815083
0.966363
0.530923
0.754261
0.96249
0.964396
0.818793
0.697818
0.0502145
0.941194
0.564698
0.968507
0.965203
0.936298
0.901289
0.942588
0.904964
0.948131
0.942807
0.913879
0.778914
0.914455
0.805997
0.147635
0.953716
0.513204
0.484573
0.717002
0.960686
0.958436
0.896113
0.840788
0.762668
0.808695
0.967783
0.920158
0.583662
0.860882
0.232961
0.614748
0.950848
0.27528
0.627679
0.954064
0.921077
0.735997
0.924616
0.973137
0.907077
0.899444
0.778208
0.945229
0.478981
0.74832
0.848493
0.963194
0.941962
0.616675
0.85105
0.946938
0.912329
0.812852
0.886844
0.860008
0.966379
0.964893
0.916297
0.886109
0.949059
0.461687
0.757879
0.880897
0.67383
0.933761
0.967888
0.930813
0.912286
0.81702
0.919736
0.441813
0.953154
0.872767
0.935041
0.938028
0.899526
0.966053
0.775753
0.851333
0.965113
0.722798
0.930446
0.267304
0.740656
0.927627
0.2897
0.937493
0.603675
0.851906
0.873004
0.862449
0.965149
0.929503
0.211886
0.695385
0.953675
0.635253
0.8354
0.948671
0.0442432
0.472103
0.520537
-0.020848
0.938998
0.925217
0.512609
0.838189
0.952574
0.387597
0.705529
0.80151
0.815126
0.935036
0.484124
0.936393
0.527127
0.824063
0.644588
0.956292
0.970446
0.779967
0.800135
0.970694
0.94459
0.913982
0.832219
0.684726
0.962176
0.963877
0.838358
0.707521
0.850031
0.917513
0.514098
0.944135
0.755908
0.913074
0.950755
0.8143
0.913653
0.873746
0.75167
0.956606
0.86429
0.742629
0.960037
0.970083
0.928607
0.925713
0.944205
0.798064
0.929725
0.968713
0.536444
0.715077
0.607678
0.957677
0.289555
0.58544
0.95795
0.279024
0.960697
0.92461
0.870065
0.195257
0.950843
0.577695
0.868236
0.934063
0.632148
0.953859
0.201341
0.55136
0.962876
0.961335
0.926698
0.932242
0.823884
0.94742
0.871177
0.871124
0.966501
0.963866
0.415513
0.664985
0.751865
0.847913
0.96529
0.922603
0.800469
0.421618
0.917376
0.802902
0.947334
0.970985
0.948458
0.921667
0.419454
0.686797
0.961522
0.947861
0.609296
0.835398
0.708946
0.687882
0.93604
0.938054
0.294085
0.25766
0.911269
0.852265
0.963883
0.788434
0.878383
0.960196
0.940525
0.905117
0.961858
0.339935
0.633703
0.348763
0.95952
0.630448
0.962061
0.89429
0.742425
0.949829
0.685621
0.659787
0.393014
0.355611
0.958547
0.957689
0.872867
0.807527
0.965596
0.925953
0.845563
0.953146
0.761329
0.927763
0.349704
0.923828
0.841614
0.961583
0.942807
0.887831
0.959023
0.726176
0.932437
0.297588
0.92203
0.779271
0.940697
0.822914
0.808109
0.96602
0.951019
0.796712
0.906708
0.672989
0.968563
0.766749
0.943508
-0.0486204
0.460019
0.916166
0.825291
0.952936
0.775639
0.931353
0.407719
0.890428
0.786765
0.957606
0.582195
0.935228
0.0560333
0.968406
0.966607
0.906366
0.914971
0.905019
0.911089
0.944674
0.906728
0.964086
0.965558
0.967634
0.917216
0.915901
0.924125
0.91444
0.923937
0.859802
0.96051
0.929195
0.86184
0.962148
0.961523
0.311921
0.593801
0.95917
0.864958
0.922562
0.710382
0.414365
0.955713
0.870816
0.858202
0.728246
0.696918
0.953321
0.953259
0.955454
0.882997
0.928754
0.931644
0.763749
0.917107
0.893381
0.769943
0.954182
0.966678
0.938524
0.946052
0.8496
0.705049
0.96013
0.96771
0.935934
0.919198
0.888084
0.805455
0.962916
0.930764
0.780715
0.918398
0.965367
0.966522
0.931795
0.948241
0.934476
0.942527
0.969166
0.922306
0.969932
0.93252
0.93398
0.921395
0.951716
0.94979
0.849154
0.842974
0.932222
0.930796
0.926304
0.578515
0.855512
0.964363
0.82293
0.840484
0.931616
0.934721
0.544825
0.557783
0.837394
0.833331
0.963048
0.890324
0.834977
0.964371
0.955501
0.947489
0.847202
0.682631
0.957502
0.966848
0.930311
0.885594
0.92627
0.767729
0.92146
0.880868
0.882417
0.625143
0.925415
0.64166
0.927315
0.880211
0.720516
0.948777
0.607352
0.104979
0.936052
0.885559
0.806782
0.958581
0.953338
0.954288
0.8946
0.789441
0.900833
0.805234
0.828001
0.723667
0.965633
0.935278
0.782537
0.91822
0.963038
0.890193
0.826772
0.95182
0.956598
0.903971
0.915418
0.835939
0.829272
0.950741
0.906131
0.812518
0.881802
0.737727
0.952619
0.968291
0.935552
0.92746
0.743898
0.935946
0.364729
0.961364
0.891652
0.810576
0.9316
0.920632
0.774729
0.752646
0.923183
0.929494
0.935139
0.406044
0.768361
0.763766
0.93213
0.369174
0.744194
0.932561
0.339996
0.869728
0.929696
0.618963
0.939655
0.805039
0.921458
0.443351
0.582685
0.839405
0.45015
0.752525
0.207871
0.673694
0.545453
0.377645
0.748443
0.746298
0.341614
0.450568
0.73607
0.560568
0.45294
0.48832
0.525395
0.581282
0.700556
0.605705
0.517764
0.773979
0.917969
0.854018
0.587753
0.765622
0.357562
0.628525
0.440092
0.37189
0.674649
0.580424
0.588407
0.409196
0.597287
0.829664
0.765137
0.511863
0.635649
0.485604
0.931679
0.434884
0.738886
0.796783
0.511377
0.517611
0.452161
0.352213
0.433332
0.865215
0.61645
0.452348
0.490359
0.368385
0.861371
0.698865
0.58944
0.441153
0.724635
0.427675
0.446225
0.857558
0.567129
0.585787
0.703768
0.618407
0.893906
0.767715
0.749807
0.30337
0.352255
0.506666
0.721255
0.338919
0.589757
0.585521
0.401394
0.715526
0.806017
0.526529
0.576324
0.362046
0.430474
0.496258
0.724249
0.498349
0.490657
0.547312
0.865405
0.452261
0.725842
0.849544
0.594547
0.455584
0.145669
0.407808
0.45633
0.453255
0.301639
0.647434
0.779492
0.804967
0.89442
0.440654
0.46381
0.358774
0.462474
0.410217
0.829387
0.788565
0.699468
0.407577
0.356064
0.650933
0.769852
0.524087
0.490575
0.283006
0.520554
0.577561
0.865396
0.883412
0.728585
0.596503
0.513405
0.339679
0.885169
0.395685
0.716968
0.290942
0.858181
0.36319
0.387072
0.427466
0.805843
0.57719
0.253732
0.432303
0.686238
0.44885
0.734028
0.663847
0.462876
0.792425
0.486682
0.428238
0.817908
0.441527
0.528756
0.345409
0.611196
0.508104
0.803464
0.727618
0.518855
0.720186
0.734463
0.840052
0.589741
0.501579
0.457738
0.73912
0.39387
0.632359
0.36438
0.919809
0.519844
0.804921
0.884869
0.609914
0.889911
0.80884
0.840072
0.39996
0.285383
0.339211
0.843332
0.400378
0.378787
0.387866
0.381039
0.534114
0.486145
0.608119
0.884031
0.7256
0.492711
0.710458
0.471759
0.927107
0.353974
0.785158
0.455934
0.266492
0.867453
0.892078
0.449252
0.457169
0.916777
0.63501
0.50576
0.416547
0.726435
0.825804
0.70038
0.448229
0.442943
0.752888
0.597911
0.408145
0.651079
0.396162
0.38497
0.514546
0.754288
0.290834
0.533935
0.784048
0.488931
0.285208
0.50965
0.454615
0.507911
0.662376
0.677158
0.432209
0.373727
0.41992
0.705343
0.696163
0.530259
0.686563
0.492813
0.400541
0.647323
0.491563
0.268407
0.696733
0.816544
0.624646
0.853162
0.825827
0.934454
0.454848
0.239584
0.547304
0.511977
0.499763
0.297389
0.645168
0.856327
0.70402
0.641664
0.441546
0.534668
0.721107
0.594787
0.675665
0.446138
0.543776
0.485714
0.38366
0.42947
0.463743
0.456165
0.390543
0.682777
0.595011
0.516994
0.689137
0.460248
0.539812
0.430787
0.513685
0.493791
0.465339
0.63579
0.308859
0.240897
0.555207
0.3352
0.303547
0.642386
0.358626
0.302494
0.811033
0.692827
0.42992
0.706671
0.378633
0.681578
0.646442
0.400802
0.458672
0.772823
0.553988
0.724526
0.21337
0.421125
0.810178
0.478722
0.431227
0.213111
0.316675
0.282198
0.329705
0.487891
0.695396
0.396339
0.277598
0.412327
0.475365
0.929477
0.458483
0.725921
0.636669
0.372329
0.52191
0.43209
0.360217
0.666889
0.492729
0.862301
0.699636
0.432367
0.499367
0.617428
0.916741
0.714529
0.833175
0.734947
0.494364
0.610958
0.533829
0.404452
0.314678
0.462403
0.489096
0.685658
0.434549
0.34136
0.453176
0.518633
0.450906
0.477982
0.791267
0.502373
0.466624
0.850984
0.788823
0.4254
0.609741
0.825667
0.44133
0.349663
0.501783
0.401458
0.363087
0.815789
0.414369
0.532943
0.82959
0.298323
0.607165
0.437721
0.606848
0.502822
0.454581
0.171451
0.532064
0.338145
0.473472
0.510869
0.512211
0.712666
0.858935
0.44959
0.606004
0.512344
0.427773
0.263268
0.776699
0.661676
0.481067
0.339967
0.632971
0.341972
0.460096
0.445333
0.416902
0.734508
0.846166
0.48798
0.713404
0.899086
0.79002
0.780603
0.837907
0.501323
0.476761
0.365307
0.916654
0.76652
0.808137
0.445197
0.501639
0.274958
0.728644
0.5125
0.454735
0.809811
0.679434
0.404256
0.527036
0.432705
0.452359
0.439572
0.50046
0.51575
0.397701
0.492074
0.32272
0.523523
0.39733
0.675622
0.578981
0.290337
0.831422
0.852011
0.730313
0.466547
0.61484
0.354704
0.748762
0.601662
0.350333
0.824888
0.288187
0.864141
0.318371
0.529177
0.556014
0.731004
0.750593
0.453555
0.887432
0.467796
0.786293
0.525484
0.675085
0.479545
0.443704
0.458832
0.789281
0.555167
0.911025
0.709148
0.315355
0.460896
0.675538
0.306973
0.470903
0.529349
0.391464
0.868928
0.414501
0.394535
0.756852
0.453054
0.862474
0.901018
0.510797
0.911425
0.874154
0.799914
0.81518
0.626677
0.357239
0.427638
0.508856
0.77669
0.518015
0.29054
0.886241
0.39494
0.538111
0.419804
0.837587
0.923549
0.394247
0.790925
0.641715
0.85727
0.531233
0.73744
0.524629
0.88702
0.907035
0.686611
0.426578
0.753388
0.488892
0.599694
0.589662
0.539495
0.645606
0.475344
0.291785
0.370611
0.553219
0.659586
0.606677
0.808179
0.4089
0.513897
0.667177
0.371918
0.846494
0.442181
0.524844
0.828415
0.802376
0.624317
0.894593
0.44009
0.493357
0.73802
0.58875
0.570783
0.529718
0.463311
0.677214
0.703882
0.46468
0.442203
0.620821
0.311818
0.39487
0.863404
0.893285
0.908262
0.549849
0.903566
0.920272
0.875463
0.254819
0.636446
0.639441
0.891942
0.479351
0.449492
0.343738
0.426237
0.264338
0.884274
0.553131
0.569223
0.743426
0.692094
0.479735
0.522448
0.920427
0.879688
0.833598
0.690587
0.475005
0.716839
0.667586
0.481836
0.562679
0.362397
0.417157
0.593364
0.556582
0.480342
0.858497
0.862694
0.26509
0.802911
0.447525
0.453845
0.50868
0.851509
0.52018
0.699647
0.539723
0.835044
0.496387
0.537566
0.901591
0.267007
0.312249
0.437209
0.403482
0.238192
0.103656
0.412122
0.235365
0.564994
0.260559
0.368655
0.559362
0.458066
0.418114
0.489172
0.345606
0.143474
0.872634
0.778886
0.500714
0.346855
0.781594
0.483486
0.449532
0.904341
0.417705
0.90051
0.528161
0.813397
0.543557
0.362368
0.364686
0.605607
0.606656
0.567446
0.367762
0.498619
0.373363
0.402317
0.469034
0.291806
0.353494
0.879632
0.439499
0.717253
0.750738
0.482232
0.749259
0.755663
0.346533
0.11387
0.528805
0.313842
0.245786
0.713234
0.731412
0.504914
0.66456
0.486771
0.901647
0.871325
0.537429
0.47326
0.889713
0.817024
0.648784
0.651392
0.492691
0.90528
0.597128
0.262266
0.84018
0.771914
0.86135
0.605026
0.427304
0.505542
0.735092
0.673591
0.036507
0.936875
0.526802
0.436446
0.598665
0.79726
0.892231
0.908935
0.668356
0.56874
0.766678
0.822851
0.824657
0.70901
0.775708
0.374436
0.455544
0.627252
0.367225
0.365221
0.294957
0.522537
0.759217
0.316853
0.59435
0.464194
0.772017
0.909566
0.555474
0.353173
0.28509
0.726015
0.46162
0.42339
0.278715
0.839002
0.627218
0.644224
0.338935
0.636247
0.416787
0.44391
0.725523
0.75616
0.839612
0.922693
0.413607
0.82451
0.264148
0.841172
0.849653
0.859416
0.756511
0.393811
0.393602
0.51402
0.264272
0.588307
0.290554
0.64391
0.345425
0.810314
0.486166
0.277178
0.804789
0.731202
0.544703
0.544743
0.707339
0.843153
0.6176
0.574057
0.270111
0.780708
0.602003
0.871065
0.239957
0.559081
0.84269
0.724754
0.895003
0.719518
0.499698
0.225452
0.27554
0.550835
0.297984
0.879412
0.28138
0.469205
0.540934
0.411033
0.757474
0.241929
0.826996
0.736597
0.648284
0.290645
0.679059
0.425698
0.502741
0.56029
0.5412
0.49463
0.48702
0.761576
0.406652
0.899005
0.483271
0.562831
0.6922
0.726408
0.879149
0.496387
0.540389
0.422719
0.564899
0.468506
0.869048
0.425816
0.579741
0.489947
0.780541
0.448762
0.606167
0.347745
0.910612
0.259062
0.395118
0.483367
0.791793
0.283677
0.280546
0.380781
0.33722
0.858573
0.573566
0.699066
0.815181
0.673223
0.583481
0.912605
0.584034
0.731843
0.673243
0.607177
0.296769
0.619799
0.560512
0.477547
0.624012
0.406101
0.313732
0.609729
0.508714
0.391327
0.763278
0.568563
0.693566
0.555249
0.861404
0.53999
0.545394
0.677447
0.339237
0.419654
0.491969
0.606674
0.623396
0.674999
0.847853
0.718856
0.778001
0.600836
0.827383
0.883958
0.878537
0.608678
0.591058
0.639567
0.36226
0.892993
0.817555
0.788792
0.579235
0.403122
0.305587
0.641248
0.717717
0.439731
0.783103
0.817362
0.659988
0.45475
0.606315
0.475886
0.446939
0.583618
0.468399
0.643177
0.27854
0.642737
0.55979
0.537948
0.245518
0.621357
0.576733
0.706155
0.490712
0.630833
0.852431
0.865866
0.653654
0.531796
0.77786
0.602439
0.424598
0.41217
0.519439
0.326143
0.843894
0.560645
0.616746
0.739585
0.713472
0.670763
0.399664
0.90247
0.679143
0.424333
0.56745
0.589565
0.77746
0.851676
0.683159
0.651023
0.291206
0.393699
0.547485
0.651907
0.576763
0.657797
0.445924
0.861189
0.650059
0.743098
0.828254
0.62292
0.434845
0.602994
0.893176
0.475035
0.280565
0.59879
0.896255
0.472772
0.524871
0.768024
0.71102
0.797018
0.566334
0.294112
0.656782
0.345956
0.481166
0.797072
0.564102
0.36903
0.442349
0.467542
0.676244
0.49401
0.465786
0.828291
0.430388
0.913315
0.796568
0.346247
0.226738
0.568137
0.722613
0.820041
0.572975
0.545897
0.437335
0.511809
0.54574
0.920434
0.844183
0.721348
0.502264
0.311333
0.834311
0.908443
0.861021
0.778739
0.839097
0.594795
0.347095
0.260575
0.283742
0.873727
0.585016
0.425458
0.519983
0.90546
0.494317
0.457439
0.325075
0.571193
0.404343
0.88403
0.663887
0.737909
0.841171
0.79998
0.529652
0.694551
0.591526
0.712162
0.468352
0.659475
0.450959
0.871777
0.37638
0.471211
0.418567
0.510455
0.850239
0.493377
0.797598
0.812257
0.844348
0.377504
0.584108
0.541916
0.441224
0.861518
0.600964
0.618277
0.658094
0.234623
0.52749
0.846071
0.694324
0.864047
0.270609
0.388467
0.500867
0.875958
0.457804
0.555294
0.39178
0.393632
0.507935
0.851346
0.537855
0.552401
0.333728
0.875937
0.898992
0.244574
0.840022
0.4802
0.383123
0.397909
0.591056
0.305495
0.671568
0.498313
0.474253
0.521818
0.806676
0.578693
0.792198
0.528687
0.383513
0.519881
0.27015
0.303402
0.563596
0.497977
0.629934
0.3892
0.539161
0.815545
0.657644
0.475086
0.359804
0.83132
0.584063
0.555018
0.914541
0.622479
0.46837
0.483402
0.406884
0.884913
0.476809
0.551834
0.669067
0.325971
0.838709
0.386302
0.824884
0.579697
0.749876
0.396089
0.765333
0.547408
0.34582
0.418338
0.580166
0.842522
0.224053
0.44157
0.498069
0.877214
0.896799
0.430796
0.460938
0.66502
0.861027
0.537601
0.857049
0.820454
0.787802
0.744336
0.635291
0.695777
0.676685
0.865002
0.55753
0.601354
0.428942
0.455747
0.554995
0.405681
0.888832
0.379031
0.850049
0.541334
0.878648
0.45205
0.892843
0.749213
0.794875
0.88063
0.85253
0.911708
0.521485
0.830873
0.580817
0.49437
0.439719
0.393297
0.86408
0.380354
0.668245
0.675566
0.537973
0.666585
0.440109
0.844117
0.610696
0.763651
0.250879
0.431829
0.499423
0.877288
0.439686
0.700349
0.460293
0.50102
0.363178
0.528584
0.486837
0.78416
0.872141
0.319755
0.659855
0.501946
0.458652
0.805154
0.437062
0.453324
0.88331
0.286113
0.621192
0.722854
0.85853
0.907649
0.469983
0.446327
0.328227
0.510937
0.444726
0.499067
0.751199
0.480131
0.347138
0.547481
0.584298
0.482358
0.448766
0.494757
0.589492
0.348129
0.772119
0.752187
0.486255
0.766279
0.356024
0.320948
0.441991
0.268641
0.892664
0.487677
0.487164
0.44136
0.808229
0.863847
0.62452
0.744697
0.461262
0.423796
0.594987
0.488123
0.438122
0.86256
0.637703
0.690769
0.893123
0.779893
0.575228
0.880895
0.318861
0.629895
0.624473
0.681235
0.519015
0.856216
0.481939
0.667386
0.562433
0.485245
0.402979
0.454973
0.74929
0.808199
0.837604
0.595117
0.611396
0.865618
0.772336
0.554636
0.624691
0.36875
0.519187
0.795707
0.314001
0.820715
0.486199
0.831901
0.899108
0.869231
0.479057
0.801868
0.823569
0.312974
0.86101
0.46909
0.874859
0.782921
0.500438
0.380323
0.640418
0.523968
0.507487
0.460991
0.764711
0.490597
0.884711
0.389643
0.47113
0.439741
0.389281
0.488474
0.806692
0.899592
0.384589
0.754627
0.590705
0.672436
0.543402
0.659349
0.855974
0.790144
0.492864
0.845861
0.804847
0.900692
0.383328
0.474723
0.450067
0.750249
0.889098
0.814911
0.553292
0.896613
0.571269
0.330747
0.379036
0.22216
0.561528
0.361968
0.897126
0.916533
0.618039
0.904133
0.796554
0.625916
0.890214
0.370787
0.85242
0.51891
0.86333
0.502337
0.397069
0.750597
0.621191
0.876097
0.854816
0.860176
0.420787
0.424392
0.306737
0.818429
0.788171
0.420436
0.59292
0.789327
0.262999
0.460656
0.414109
0.512122
0.657894
0.503824
0.625393
0.724009
0.599331
0.611898
0.759951
0.494873
0.525533
0.667125
0.602305
0.498197
0.833364
0.867939
0.423613
0.78216
0.248696
0.454416
0.835613
0.764327
0.489557
0.869192
0.369523
0.753607
0.528432
0.530375
0.842642
0.505183
0.765058
0.754809
0.705174
0.921602
0.717847
0.331787
0.691689
0.561121
0.768798
0.917029
0.708673
0.574869
0.439405
0.532395
0.845141
0.360448
0.795336
0.428711
0.647498
0.772828
0.754668
0.592425
0.840569
0.897819
0.516006
0.496667
0.610897
0.411272
0.352716
0.631195
0.758567
0.413559
0.335041
0.446214
0.340186
0.747495
0.570844
0.775579
0.461278
0.865303
0.590095
0.807554
0.887883
0.434038
0.854253
0.50859
0.61735
0.599027
0.824348
0.45644
0.533032
0.606748
0.40677
0.506182
0.386235
0.365525
0.250482
0.89268
0.900971
0.410745
0.470573
0.766281
0.314833
0.444547
0.498625
0.731626
0.754074
0.290892
0.250468
0.852943
0.462886
0.660943
0.455232
0.321979
0.38252
0.624506
0.816454
0.669458
0.314404
0.868265
0.812491
0.42178
0.655079
0.486129
0.889826
0.505826
0.54645
0.347427
0.709201
0.86354
0.674261
0.622289
0.44805
0.566283
0.660584
0.893801
0.905915
0.450676
0.901382
0.456864
0.638917
0.632904
0.552864
0.483581
0.82891
0.523525
0.623674
0.441178
0.446305
0.531916
0.397532
0.709884
0.86532
0.425454
0.466662
0.625031
0.491938
0.445298
0.270098
0.492882
0.811883
0.296281
0.478948
0.738228
0.628606
0.555348
0.709375
0.800102
0.430538
0.425874
0.806501
0.542633
0.416025
0.584425
0.821373
0.694086
0.647796
0.45931
0.432801
0.445294
0.89347
0.811022
0.905119
0.550005
0.722933
0.36547
0.581976
0.817889
0.323279
0.329053
0.754398
0.815295
0.306269
0.4778
0.450746
0.412499
0.446987
0.904438
0.540134
0.474514
0.619179
0.437823
0.739889
0.636935
0.352327
0.483029
0.763266
0.561167
0.897591
0.348872
0.459131
0.692027
0.676371
0.565609
0.655726
0.405063
0.904796
0.831722
0.695657
0.829571
0.431089
0.819384
0.702684
0.685261
0.879589
0.316211
0.481241
0.90982
0.707077
0.303326
0.486295
0.792385
0.906718
0.584091
0.76276
0.456132
0.341278
0.423817
0.303888
0.818349
0.45156
0.607207
0.880279
0.424855
0.429971
0.458767
0.613225
0.470382
0.482002
0.439684
0.374963
0.568181
0.788692
0.878699
0.73037
0.507052
0.476409
0.285247
0.467091
0.687819
0.666719
0.707971
0.745335
0.477878
0.580671
0.789154
0.821982
0.909279
0.843792
0.884155
0.568043
0.36382
0.424528
0.381706
0.895001
0.61286
0.461234
0.878016
0.367425
0.787193
0.733226
0.484556
0.455374
0.480022
0.443848
0.81969
0.53149
0.733316
0.573317
0.874912
0.644708
0.925574
0.412239
0.580677
0.469399
0.240989
0.497268
0.751723
0.406565
0.217559
0.647856
0.854974
0.770441
0.445275
0.357082
0.429252
0.369173
0.45749
0.364254
0.550793
0.391096
0.756939
0.40464
0.464738
0.826722
0.579647
0.685814
0.806913
0.552054
0.608276
0.421873
0.768559
0.532684
0.484649
0.551178
0.390367
0.340685
0.462493
0.460115
0.759382
0.904195
0.828703
0.640953
0.731646
0.312208
0.89989
0.64582
0.748127
0.465798
0.745824
0.487287
0.502693
0.796873
0.867108
0.759643
0.654375
0.498785
0.916347
0.511051
0.791005
0.888649
0.719167
0.528613
0.30749
0.78912
0.63838
0.383555
0.706257
0.630354
0.871281
0.448345
0.880351
0.910752
0.540177
0.412288
0.887305
0.359006
0.394169
0.505687
0.39673
0.486589
0.393082
0.353192
0.570593
0.4678
0.423897
0.4755
0.6596
0.454158
0.43605
0.700443
0.60401
0.314408
0.867714
0.891484
0.887016
0.453343
0.311551
0.930658
0.347421
0.55315
0.447356
0.496913
0.465443
0.751091
0.479057
0.488507
0.335452
0.320621
0.383323
0.479075
0.292029
0.588513
0.632124
0.578674
0.876428
0.605331
0.705012
0.536109
0.8089
0.507381
0.493809
0.903243
0.513915
0.628723
0.359443
0.714491
0.899505
0.540037
0.673324
0.632131
0.486113
0.452137
0.422179
0.395577
0.762349
0.401502
0.539373
0.48642
0.543717
0.427201
0.423272
0.559543
0.523331
0.460945
0.886446
0.562596
0.530371
0.651035
0.870985
0.492867
0.324938
0.777174
0.36112
0.516088
0.451724
0.574648
0.480489
0.520601
0.576593
0.902275
0.826745
0.337919
0.459214
0.314626
0.440691
0.303031
0.399906
0.497966
0.411284
0.510367
0.680743
0.907896
0.490794
0.737827
0.59732
0.89367
0.480369
0.903219
0.681144
0.360076
0.673518
0.741844
0.494843
0.814436
0.450632
0.837374
0.451803
0.259133
0.565021
0.908975
0.887113
0.762462
0.682754
0.725141
0.321673
0.466512
0.726115
0.925095
0.27176
0.578121
0.454343
0.502593
0.538195
0.436595
0.3771
0.458696
0.390374
0.476473
0.517292
0.544929
0.91999
0.811118
0.296899
0.776924
0.41725
0.411389
0.792238
0.445841
0.514591
0.715977
0.315768
0.438817
0.577546
0.830587
0.378235
0.442596
0.504617
0.68048
0.382434
0.872612
0.310079
0.488174
0.511916
0.442774
0.68716
0.681904
0.874109
0.450765
0.755735
0.643958
0.67085
0.445967
0.688426
0.400172
0.371608
0.272298
0.646478
0.569844
0.511002
0.840466
0.577475
0.626735
0.683012
0.423952
0.402692
0.485589
0.658804
0.454302
0.905999
0.355563
0.31165
0.515293
0.488675
0.458805
0.449463
0.739184
0.502627
0.579614
0.370695
0.452532
0.583379
0.397392
0.905028
0.876474
0.38115
0.426801
0.804436
0.604001
0.434145
0.358173
0.440781
0.37377
0.636982
0.858395
0.433077
0.31663
0.679692
0.562474
0.311796
0.378419
0.566233
0.730189
0.900817
0.364535
0.327423
0.658459
0.814579
0.530062
0.63477
0.509423
0.451748
0.492569
0.68254
0.567378
0.454432
0.787466
0.508189
0.283832
0.622957
0.461208
0.793594
0.92171
0.458138
0.483869
0.494488
0.480221
0.367312
0.493219
0.37168
0.881593
0.802244
0.73255
0.50462
0.330091
0.78036
0.900551
0.432224
0.61639
0.481963
0.246524
0.601396
0.491572
0.258651
0.45902
0.679357
0.356325
0.316478
0.39126
0.773901
0.3406
0.791721
0.562922
0.454733
0.519535
0.419861
0.794275
0.282975
0.489786
0.534627
0.367003
0.627556
0.728653
0.648119
0.576387
0.76989
0.378747
0.379917
0.853412
0.449967
0.847946
0.663243
0.536003
0.636468
0.831908
0.561168
0.313134
0.86978
0.446619
0.540597
0.824695
0.435523
0.881648
0.437866
0.511861
0.313321
0.50255
0.393307
0.57025
0.394626
0.282387
0.376703
0.385997
0.251735
0.858703
0.384439
0.508006
0.637381
0.5735
0.903824
0.905244
0.473725
0.578435
0.796887
0.463186
0.860466
0.262099
0.515227
0.605297
0.433376
0.807059
0.482085
0.486786
0.475404
0.426305
0.444623
0.291607
0.833801
0.166821
0.86493
0.738867
0.399084
0.321783
0.384686
0.904915
0.735427
0.693898
0.54854
0.627128
0.534261
0.830201
0.769469
0.423139
0.668837
0.877565
0.550297
0.612114
0.681784
0.295151
0.376812
0.778438
0.497599
0.54669
0.883306
0.378798
0.267823
0.439698
0.550186
0.558254
0.88623
0.439821
0.337658
0.433299
0.543904
0.447929
0.849374
0.571517
0.384508
0.488518
0.429006
0.431952
0.50204
0.673107
0.600511
0.413991
0.839384
0.501726
0.784825
0.415474
0.375338
0.512663
0.83096
0.893169
0.786001
0.595012
0.569869
0.782164
0.879939
0.352927
0.864459
0.380731
0.708683
0.687797
0.842668
0.592061
0.832154
0.865976
0.459624
0.451918
0.510113
0.586804
0.376749
0.429403
0.372354
0.753954
0.81297
0.352776
0.872491
0.588394
0.772265
0.553165
0.409049
0.799584
0.77659
0.480654
0.48716
0.391349
0.911818
0.731298
0.929379
0.361023
0.376822
0.521761
0.814804
0.685189
0.815297
0.618963
0.882048
0.446326
0.532114
0.612882
0.464391
0.66743
0.344816
0.790978
0.566987
0.615433
0.865649
0.349578
0.357363
0.278457
0.65176
0.841315
0.476562
0.701341
0.355118
0.333063
0.553386
0.459802
0.437597
0.821094
0.593638
0.430174
0.523754
0.650315
0.866481
0.65678
0.517621
0.83453
0.593161
0.887409
0.606247
0.736375
0.523853
0.347123
0.904616
0.410369
0.63428
0.652679
0.859668
0.719654
0.569317
0.460165
0.917793
0.513364
0.395099
0.763419
0.901567
0.746173
0.696477
0.342793
0.272574
0.626869
0.416293
0.503242
0.6023
0.413885
0.866301
0.906293
0.866865
0.456072
0.49742
0.440333
0.491051
0.702067
0.37837
0.724576
0.877522
0.346297
0.487036
0.436398
0.799402
0.704608
0.49821
0.421757
0.742825
0.447587
0.3313
0.379264
0.917907
0.279165
0.7872
0.674601
0.45031
0.865669
0.635092
0.894983
0.313573
0.486382
0.602815
0.872157
0.49329
0.859
0.638836
0.280129
0.574774
0.453751
0.50124
0.273663
0.779344
0.489122
0.415206
0.321332
0.576458
0.826409
0.209318
0.462687
0.837691
0.535683
0.825494
0.261279
0.452414
0.448224
0.534367
0.469029
0.339336
0.44728
0.227225
0.511795
0.521856
0.773765
0.620806
0.841194
0.434623
0.494457
0.343376
0.598974
0.220123
0.495943
0.925333
0.55978
0.489979
0.911578
0.403514
0.622874
0.670458
0.317392
0.464667
0.555523
0.639592
0.879294
0.899065
0.902933
0.649891
0.535427
0.541107
0.385324
0.801605
0.706741
0.440767
0.500037
0.482763
0.549064
0.898417
0.528423
0.892958
0.488468
0.68066
0.388303
0.445214
0.327033
0.460472
0.852489
0.491112
0.351353
0.388851
0.911873
0.464491
0.409695
0.407625
0.44614
0.7282
0.613379
0.628799
0.537401
0.735852
0.325973