/*--------------------------------*- C++ -*----------------------------------*\
  =========                 |
  \\      /  F ield         | OpenFOAM: The Open Source CFD Toolbox
   \\    /   O peration     | Website:  https://openfoam.org
    \\  /    A nd           | Version:  6
     \\/     M anipulation  |
\*---------------------------------------------------------------------------*/
FoamFile
{
    version     2.0;
    format      ascii;
    class       volVectorField;
    location    "./ITHACAoutput/Offline/1";
    object      U_rec;
}
// * * * * * * * * * * * * * * * * * * * * * * * * * * * * * * * * * * * * * //

dimensions      [0 1 -1 0 0 0 0];

internalField   nonuniform List<vector> 
13046
(
(-0.298653 0.0809961 0)
(-0.730281 -0.345773 -2.86336e-21)
(-0.201751 -0.169987 -5.77252e-21)
(-0.315049 -0.0143673 0)
(-0.123613 -0.0927274 -5.51098e-21)
(-0.613218 -0.33786 0)
(-0.350661 0.00848104 8.96226e-22)
(-0.694059 -0.389198 1.4077e-21)
(-0.0888864 -0.0755307 -5.92943e-21)
(-0.949364 0.396921 2.10034e-21)
(-1.4439 -0.73208 0)
(0.0632417 0.00878788 3.30505e-21)
(-0.421099 0.12014 -2.86793e-21)
(-0.906606 -0.452689 -3.92698e-21)
(-0.0953239 -0.11414 3.05235e-21)
(-0.876177 0.442933 -2.90775e-21)
(0.00945038 -0.0171279 7.84933e-21)
(-1.50005 -0.644889 1.11434e-24)
(-0.145236 -0.028406 0)
(-0.435333 -0.277959 -3.02541e-21)
(-0.413028 -0.134347 9.37513e-21)
(-0.89014 0.433842 -1.16571e-21)
(0.0249772 -0.008672 -1.04904e-20)
(-1.49103 -0.664934 0)
(-0.259513 0.00564129 3.6923e-21)
(-0.586764 -0.289823 -7.20481e-21)
(-0.202934 -0.155721 0)
(-0.431082 0.151988 -5.14419e-21)
(-0.943535 -0.45308 1.17931e-21)
(-0.112838 -0.128639 -5.33527e-21)
(-0.302952 0.104365 0)
(-0.761494 -0.335113 0)
(-0.226044 -0.191249 5.87436e-21)
(-0.241421 -0.0234008 -4.28995e-21)
(-0.22937 -0.162148 2.06707e-21)
(-0.507009 -0.247901 1.25477e-20)
(-0.257912 -0.0502108 -6.57476e-21)
(-0.220302 -0.140596 3.21523e-21)
(-0.46885 -0.238516 -6.37913e-21)
(-0.217295 0.112886 4.39829e-21)
(-0.461587 -0.358549 1.02558e-21)
(-0.689092 -0.225395 -4.50741e-21)
(-0.306993 -0.125124 2.94734e-21)
(-0.244705 -0.120439 4.93461e-21)
(-0.342816 -0.183828 0)
(-0.329538 -0.118879 1.96075e-21)
(-0.197178 -0.0897941 -7.61347e-21)
(-0.380262 -0.215846 -9.37903e-22)
(-0.320745 0.0737091 0)
(-0.752926 -0.371664 -2.00007e-22)
(-0.152346 -0.14228 -7.33078e-23)
(-0.723206 -0.555172 6.01198e-21)
(-0.176807 0.131963 0)
(-0.705069 -0.133831 -5.2131e-21)
(-0.813939 -0.616789 -8.56834e-21)
(-0.691768 -0.104259 -8.52185e-21)
(-0.145902 0.115934 6.35885e-21)
(-1.34132 -0.471559 -5.79629e-22)
(-0.663821 0.391505 0)
(-0.209187 -0.197627 4.41396e-21)
(-0.617703 0.134128 -2.75532e-21)
(-1.11491 -0.659373 1.96028e-21)
(0.0375097 -0.0117652 -1.25883e-20)
(0.0518703 -0.0166871 6.19007e-21)
(-1.42245 -0.721873 -5.06545e-22)
(-0.854666 0.336395 -3.91195e-21)
(-0.618583 0.380021 0)
(-1.28198 -0.421712 0)
(-0.273187 -0.255288 0)
(-0.577007 0.354804 -1.8495e-21)
(-1.22837 -0.402835 0)
(-0.295516 -0.273345 3.512e-21)
(-1.39169 -0.482864 0)
(-0.704367 0.414731 3.14469e-23)
(-0.188152 -0.185163 -5.71645e-23)
(-0.14411 -0.00665891 0)
(-0.434863 -0.292455 3.24713e-21)
(-0.458574 -0.161534 -6.60276e-21)
(-0.110972 -0.117838 4.79458e-21)
(-0.762213 0.430285 -5.52783e-21)
(-1.44516 -0.53955 0)
(-0.284746 0.0140762 1.96509e-21)
(-0.626323 -0.317632 0)
(-0.16431 -0.127853 0)
(0.0539647 -0.0106902 -5.49042e-21)
(-1.4448 -0.726131 -1.54746e-22)
(-0.886039 0.358418 2.30239e-21)
(-0.889695 0.253833 -4.14879e-21)
(0.0800373 -0.000859743 0)
(-1.3755 -0.817699 -4.64966e-22)
(0.0474983 0.00955922 0)
(-0.965108 0.182376 0)
(-1.34413 -0.919201 3.57295e-23)
(-0.641051 0.247642 0)
(-0.688194 0.259123 2.36515e-21)
(-1.22338 -0.601604 3.44775e-21)
(-1.26808 -0.64133 -1.58567e-21)
(-0.0198519 -0.0718145 -2.60764e-21)
(0.00916628 -0.0509954 6.7235e-21)
(0.0769978 0.00192484 -3.18467e-22)
(-0.88128 0.227692 4.06039e-21)
(-1.35203 -0.83491 0)
(-0.326858 -0.0939129 -1.18524e-23)
(-0.167851 -0.084357 3.91427e-21)
(-0.442607 -0.255787 0)
(-0.0717578 0.0659731 0)
(-0.5814 -0.0616254 -2.72361e-21)
(-0.787541 -0.552135 0)
(-0.16456 0.111655 7.42791e-21)
(-0.638804 -0.477652 0)
(-0.658157 -0.156037 -1.03711e-20)
(-0.923513 0.409712 0)
(0.051853 0.0189096 0)
(-1.29464 -0.680905 1.95646e-21)
(-0.374611 0.0953021 7.91573e-21)
(-0.843028 -0.417013 1.80773e-21)
(-0.108864 -0.115403 5.58656e-21)
(-0.701001 0.316068 2.99858e-21)
(-0.65046 0.280894 -5.66718e-21)
(-1.31745 -0.598176 -2.84179e-21)
(-0.0420021 -0.0816549 2.96644e-21)
(-1.2529 -0.578711 1.4944e-21)
(-0.0479577 -0.0884119 -2.77103e-21)
(-0.945748 0.411337 -1.44776e-21)
(-1.43095 -0.716836 1.32531e-21)
(0.0593174 0.0131067 -1.47072e-21)
(-0.542021 0.207155 0)
(-1.09809 -0.532057 -2.67076e-21)
(-0.067643 -0.106994 6.35482e-21)
(-0.255608 0.127739 0)
(-0.401366 -0.320439 -5.21938e-21)
(-0.738616 -0.262671 2.57916e-22)
(0.0407125 0.0154894 0)
(-0.921363 0.160158 0)
(-1.32416 -0.904654 0)
(-0.775109 0.268655 0)
(-1.33429 -0.715244 -3.43425e-21)
(0.0524565 -0.0228256 -7.14149e-21)
(-0.345515 0.127488 0)
(-0.828934 -0.370193 0)
(-0.207586 -0.191095 0)
(-0.470084 0.0325275 0)
(-0.860905 -0.523172 0)
(-0.0149179 -0.0176468 0)
(-0.146752 0.108676 0)
(-0.702687 -0.521144 0)
(-0.653752 -0.130227 5.64834e-21)
(-0.0719686 0.0545205 -7.49086e-22)
(-0.55795 -0.0687404 -6.02659e-21)
(-0.766381 -0.527024 5.72972e-21)
(-0.653839 0.157853 6.27753e-21)
(-1.16259 -0.678912 0)
(0.0452052 -0.0182462 1.63225e-20)
(-0.0601161 0.00573951 0)
(-0.460371 -0.0560207 6.43217e-21)
(-0.687457 -0.446025 -1.47842e-21)
(-0.966571 -0.699528 0)
(-0.672044 -0.0225152 6.17471e-21)
(-1.03985 -0.733798 0)
(-0.681066 0.0175672 3.57005e-21)
(-0.0678651 0.0780811 0)
(-0.0325287 0.0593574 0)
(-0.516352 -0.00567669 8.42622e-22)
(-0.847154 -0.554227 2.88023e-21)
(-0.0197063 0.0146964 -3.24234e-21)
(-0.967703 0.378372 -2.153e-21)
(0.0707436 0.00675624 0)
(-1.42283 -0.757822 6.17783e-22)
(-0.935406 0.414115 -1.13753e-21)
(0.0548183 0.0195459 -6.71908e-22)
(-1.35757 -0.693412 0)
(-0.793854 0.292273 -3.40218e-21)
(-1.35971 -0.712408 0)
(0.0487793 -0.0245168 8.112e-21)
(-0.33731 0.195505 0)
(-0.876375 -0.290005 1.29904e-21)
(-0.427509 -0.356943 2.9515e-21)
(-0.510824 -0.0266277 5.45953e-21)
(-0.0367552 0.0267675 1.58777e-21)
(-0.794695 -0.519421 0)
(0.0800559 0.00186531 0)
(-1.41571 -0.809042 0)
(-0.978649 0.331877 1.74772e-21)
(-0.293843 0.17048 0)
(-0.813429 -0.264037 -2.94064e-21)
(-0.444641 -0.354789 7.74524e-22)
(-0.053522 0.0200766 0)
(-0.481664 -0.0546883 0)
(-0.703417 -0.465772 0)
(-0.438351 0.0102765 2.69909e-21)
(-0.803875 -0.489856 0)
(-0.0276978 -0.0243255 0)
(-0.983219 -0.513063 1.81012e-23)
(-0.045415 -0.0824496 -3.80966e-21)
(-0.503802 0.18075 8.13237e-21)
(-1.04796 -0.510051 0)
(-0.0715874 -0.105131 -7.95992e-21)
(-0.91165 0.3115 -4.11674e-21)
(0.0772241 -0.00328013 5.01676e-21)
(-1.42008 -0.786403 -1.17836e-21)
(0.0588472 0.0118364 4.63274e-21)
(-0.878315 0.177718 2.58259e-21)
(-1.32127 -0.868034 2.62312e-21)
(-0.951437 0.226967 -6.60363e-21)
(-1.37193 -0.872213 0)
(0.0727323 0.00289444 -4.54144e-21)
(-0.763595 -0.60801 -3.01396e-22)
(-0.796835 -0.146419 2.30396e-21)
(-0.235264 0.178905 0)
(-0.409463 0.0609617 -1.2146e-20)
(-0.749026 0.441913 2.85016e-21)
(-0.138385 -0.13719 -2.95338e-21)
(-1.44669 -0.5264 0)
(-1.3822 -0.870395 0)
(-0.978236 0.255369 -5.65203e-21)
(0.0772532 -7.26146e-05 0)
(-0.293856 -0.0588694 -9.72679e-21)
(-0.171622 -0.105089 -3.15818e-21)
(-0.490444 -0.268874 9.29366e-21)
(-0.407144 0.160368 0)
(-0.923808 -0.426063 -1.74327e-22)
(-0.158382 -0.156424 -3.04669e-21)
(0.046815 0.0163505 3.58115e-21)
(-0.886977 0.161441 0)
(-1.31089 -0.885685 -3.02406e-21)
(-0.445705 0.0856383 9.71724e-21)
(-0.959832 -0.517928 6.9671e-21)
(-0.0335529 -0.0703481 0)
(0.0679544 0.00933986 0)
(-1.3622 -0.748022 -1.63589e-21)
(-0.980946 0.384237 0)
(-0.19758 0.155156 0)
(-0.762691 -0.119695 0)
(-0.819204 -0.650467 0)
(-0.909574 0.211627 5.792e-21)
(-1.3562 -0.855809 0)
(0.0723829 0.00449211 -3.50833e-23)
(-0.592783 0.0075457 2.35974e-21)
(-0.944354 -0.643003 -2.05975e-21)
(-0.016315 0.0384129 0)
(-0.541209 0.227789 0)
(-1.10949 -0.515879 2.51225e-21)
(-0.0950668 -0.122716 4.99923e-21)
(-1.22526 -0.886449 -5.21803e-21)
(-0.8372 0.0767932 -4.66917e-21)
(-0.0148692 0.0499063 2.81034e-21)
(-0.725071 0.029342 0)
(-1.09616 -0.781115 -2.4663e-21)
(-0.0337598 0.0610818 -1.04217e-22)
(0.0669777 0.00596354 -4.36445e-21)
(-1.33226 -0.753712 0)
(-0.992567 0.371736 -9.54288e-22)
(-0.231837 0.149149 3.99397e-21)
(-0.571934 -0.443489 -3.67913e-21)
(-0.7434 -0.205757 4.2879e-22)
(-0.850113 0.441467 9.84537e-22)
(0.0391284 0.0312268 -6.27756e-21)
(-1.2985 -0.598761 0)
(-0.129619 -0.0465447 -1.87666e-21)
(-0.37547 -0.103163 -7.58259e-21)
(-0.480626 -0.296058 9.07201e-21)
(-0.572859 0.0554496 2.85784e-21)
(-0.564009 0.0169705 3.61534e-23)
(-0.993957 -0.633633 -5.11884e-21)
(-0.929189 -0.617147 0)
(-0.00687256 0.02438 2.94726e-21)
(0.0160921 0.00868474 -3.01616e-21)
(-0.0801356 -0.0898864 -6.27559e-21)
(-0.793287 0.440875 2.96162e-21)
(-1.47981 -0.557545 -8.85206e-22)
(-0.499429 0.221073 0)
(-1.06289 -0.473774 0)
(-0.142894 -0.152352 -6.55206e-21)
(-0.758243 0.0617421 -1.25387e-21)
(-1.15328 -0.81961 0)
(-0.0116298 0.0496529 0)
(-0.741962 0.297432 -2.89828e-21)
(-1.33147 -0.65362 0)
(0.0121206 -0.0481439 2.90448e-21)
(-0.269028 -0.1038 1.96409e-21)
(-0.354535 -0.172034 2.86285e-21)
(-0.271094 -0.145499 -9.87424e-22)
(-0.647845 0.0363843 -4.54129e-21)
(-1.03649 -0.708015 0)
(-0.00594168 0.0416524 -4.93219e-21)
(-0.512168 0.2416 0)
(-1.08993 -0.466943 3.15877e-21)
(-0.161658 -0.167537 -4.09745e-21)
(-0.4614 0.116109 0)
(-0.504431 0.13836 9.64096e-22)
(-0.24593 0.162393 1.42892e-21)
(-0.591159 -0.465112 1.05845e-20)
(-0.767598 -0.200957 -1.01627e-20)
(-0.668839 0.0683068 -4.68243e-21)
(-1.08936 -0.732464 3.933e-21)
(0.0177191 0.0287148 4.50066e-21)
(-0.776479 0.306894 0)
(0.0298412 -0.0353462 -1.03448e-20)
(-1.36553 -0.681747 -1.34964e-21)
(-0.161661 0.0972206 -1.03024e-20)
(-0.598186 -0.450113 0)
(-0.636072 -0.160293 3.44681e-21)
(-0.0921795 0.0946048 -5.79784e-21)
(-0.702541 -0.0328429 -3.47902e-21)
(-0.970445 -0.724607 0)
(-0.636717 0.314049 -2.86246e-21)
(-1.26254 -0.524042 -2.39631e-21)
(-0.118714 -0.134199 1.81463e-21)
(-0.21354 0.153768 5.12745e-22)
(-0.685352 -0.532914 0)
(-0.745743 -0.159072 7.20973e-21)
(-0.678042 0.33959 0)
(-0.706553 0.342614 0)
(-1.31765 -0.547917 -1.30093e-21)
(-0.100929 -0.119939 -4.75524e-21)
(-1.34108 -0.582126 1.8406e-21)
(-0.0659347 -0.0935678 5.02665e-21)
(0.0780282 0.00140415 -3.84198e-21)
(-1.42601 -0.791557 0)
(-0.957375 0.341859 -2.73625e-21)
(-0.605777 0.267225 3.36926e-21)
(-1.20108 -0.54628 0)
(-0.0802292 -0.110414 1.68764e-21)
(-1.12751 -0.607268 -7.59481e-21)
(0.0352564 0.0205315 5.50954e-21)
(-0.828913 0.400166 9.41625e-22)
(-0.442289 -0.0902912 -3.57961e-21)
(-0.085991 -0.000365519 0)
(-0.591298 -0.382413 0)
(-0.564096 0.115562 6.57493e-21)
(-1.05378 -0.61317 0)
(0.0246262 -0.0226776 9.77566e-21)
(0.0710219 -0.00885985 -3.20306e-21)
(-0.869572 0.300435 8.52085e-21)
(-1.40117 -0.762636 1.41527e-21)
(-0.846234 -0.646569 0)
(-0.711377 -0.0945147 3.10689e-21)
(-0.148407 0.126108 -7.2081e-21)
(-1.25652 -0.89136 -5.47661e-21)
(-0.854174 0.107309 -2.81009e-21)
(0.0105074 0.0343804 0)
(-0.864892 -0.470707 -7.56291e-21)
(-0.051807 -0.0710747 0)
(-0.59231 0.17254 6.90843e-21)
(-1.11288 -0.603375 2.23503e-21)
(0.00897657 -0.0515624 2.953e-21)
(-0.852433 -0.487726 4.3292e-21)
(-0.0346688 -0.0548047 -2.48055e-23)
(-0.857159 0.427565 -1.93021e-22)
(-0.00252687 -0.0307034 3.72453e-21)
(-1.4907 -0.635029 -1.91199e-24)
(-0.743721 -0.617011 0)
(-0.849483 -0.167647 6.97398e-22)
(-0.27555 0.204331 0)
(-0.633429 0.195649 -7.03658e-21)
(-1.17862 -0.632707 -2.72228e-21)
(0.023479 -0.0417295 -3.52413e-21)
(-0.495006 0.0249459 0)
(-0.8679 -0.548474 -4.18197e-21)
(-0.00975999 -0.00297299 0)
(-0.617652 -0.0910139 0)
(-0.758537 -0.557597 0)
(-0.10792 0.0856569 0)
(-0.311877 0.0443009 -2.72053e-21)
(-0.699822 -0.357874 -4.36927e-21)
(-0.145167 -0.12802 -9.21443e-24)
(-0.122687 0.113941 7.18712e-21)
(-0.715102 -0.0610305 8.43501e-21)
(-0.923614 -0.698466 3.91867e-21)
(-0.929762 0.282115 -3.34972e-21)
(-1.39959 -0.814549 9.16432e-22)
(0.0822192 -0.000885003 -4.75197e-21)
(-1.26683 -0.871713 3.82419e-21)
(-0.840132 0.123145 2.8477e-21)
(0.0287279 0.0271694 3.64114e-21)
(-0.493299 0.312424 -5.64147e-21)
(-0.391504 -0.343776 5.23375e-21)
(-1.12306 -0.344883 -3.73741e-21)
(-0.735848 0.394468 1.62485e-21)
(-0.700459 0.372257 -1.51257e-21)
(-1.35859 -0.531837 -4.13458e-22)
(-1.40107 -0.547441 0)
(-0.104702 -0.115556 -1.69955e-21)
(-0.1241 -0.134313 -1.53769e-21)
(0.0390032 0.0246777 -7.46398e-21)
(-1.18154 -0.605146 8.36762e-21)
(-0.841833 0.407068 7.64488e-22)
(-0.862753 0.447216 -7.81676e-23)
(0.0395853 0.030675 8.68572e-21)
(-1.34539 -0.606437 0)
(-0.6134 0.0787731 -1.0515e-20)
(-1.06187 -0.669705 -1.05374e-21)
(0.0250609 0.0101233 0)
(0.0756562 -0.00146267 -9.65168e-21)
(-0.92825 0.331062 2.7219e-21)
(-1.43317 -0.77942 0)
(-0.576709 0.3263 8.32987e-21)
(-0.614909 0.339226 -6.1858e-21)
(-1.21088 -0.443777 2.76582e-21)
(-1.25531 -0.472819 9.89871e-22)
(-0.238698 -0.223179 -3.05217e-21)
(-0.193475 -0.187247 -1.52837e-21)
(0.0722726 -0.00591262 0)
(-1.35885 -0.875897 0)
(-1.03328 0.259581 9.09855e-22)
(-0.798088 0.438802 -1.15559e-21)
(0.0347837 0.0344848 0)
(-1.24559 -0.560396 0)
(-0.417564 -0.168665 3.22507e-23)
(-0.184662 -0.0393008 4.21592e-21)
(-0.346176 -0.224542 2.02602e-21)
(-0.877015 0.418869 -1.5937e-21)
(-1.27067 -0.641779 -2.86162e-21)
(0.0447105 0.0249425 4.08818e-22)
(-0.38997 0.212956 0)
(-0.941351 -0.338562 -5.65805e-21)
(-0.34484 -0.297131 -7.49744e-23)
(-0.982983 0.316068 1.01438e-22)
(-1.4081 -0.82535 -1.1099e-22)
(0.0820174 0.000556877 6.36833e-24)
(-0.994197 -0.603307 -2.13545e-22)
(0.0301203 0.00709802 -3.20368e-21)
(-0.815123 0.334515 7.75233e-24)
(-0.178815 0.0853604 -3.79849e-21)
(-0.475864 -0.353839 3.3653e-21)
(-0.623496 -0.198003 1.1053e-20)
(-0.372461 -0.0741769 0)
(-0.55921 -0.337428 -1.00713e-20)
(-0.105563 -0.0448775 5.05392e-21)
(-0.928704 0.429725 0)
(0.0520742 0.0147964 4.38103e-21)
(-1.43956 -0.698812 -1.58023e-22)
(-0.39447 -0.062764 0)
(-0.598114 -0.365314 -3.38519e-21)
(-0.0838982 -0.0257285 -7.18716e-21)
(-0.384 -0.159298 4.33825e-21)
(-0.20221 -0.0629435 -2.22704e-21)
(-0.33354 -0.204345 1.0881e-21)
(-0.187799 0.153616 3.46082e-21)
(-0.777533 -0.0986553 -2.90369e-21)
(-0.894822 -0.713367 4.3333e-21)
(-0.46928 -0.140717 0)
(-0.482128 -0.318443 0)
(-0.123103 0.0108696 6.10886e-22)
(-0.470873 -0.110852 5.66436e-21)
(-0.553574 -0.360412 2.58706e-21)
(-0.10388 0.0149778 8.57719e-23)
(-0.453154 0.290877 8.57228e-21)
(-1.06119 -0.314816 -4.14923e-21)
(-0.445586 -0.390421 -5.2273e-21)
(0.0489725 0.000489283 6.623e-21)
(0.0582731 0.00271878 -6.78009e-21)
(-1.47145 -0.712608 -4.18646e-22)
(-1.45963 -0.72884 -1.73575e-22)
(-0.916908 0.411083 0)
(-0.930519 0.39847 -2.15054e-21)
(-0.957117 0.289078 4.171e-21)
(-1.40465 -0.826801 -2.39417e-22)
(0.0828098 -0.000391672 5.89723e-21)
(-0.375558 -0.340864 -3.37739e-21)
(-0.534038 0.343853 1.77886e-21)
(-1.17836 -0.358532 4.76227e-21)
(-0.250748 0.149391 -3.64625e-21)
(-0.504666 -0.395893 -3.37941e-21)
(-0.757535 -0.230411 3.37642e-21)
(-0.754864 0.00473538 0)
(-1.08455 -0.804637 2.55294e-21)
(-0.0709678 0.0814167 1.077e-22)
(-1.12698 -0.706651 -2.07733e-21)
(0.0501916 -0.00558418 -2.99449e-21)
(-0.961002 0.327722 -4.21105e-22)
(0.0598769 0.00417574 0)
(-0.977708 0.207957 0)
(-1.35455 -0.909648 3.67907e-22)
(-0.955384 0.402833 1.51308e-21)
(0.0616275 0.0141729 0)
(-1.38194 -0.723395 1.60675e-21)
(0.02356 0.0105149 -1.19431e-32)
(-0.925846 -0.559638 4.19402e-21)
(-0.750424 0.324904 -1.27331e-22)
(-0.958598 -0.498456 -4.73584e-21)
(0.0226624 0.0214424 1.19148e-32)
(-0.707865 0.372926 9.8348e-23)
(-1.19412 -0.747249 -5.00837e-21)
(-0.712965 0.138066 0)
(0.0500766 0.00725935 -9.40701e-21)
(-1.29478 -0.824959 7.62679e-22)
(0.0681989 -0.0110891 -3.07594e-21)
(-1.05346 0.295261 0)
(-0.800687 0.26091 -4.36718e-21)
(-1.33996 -0.743145 2.05621e-21)
(0.0636408 -0.0150371 4.79518e-21)
(-0.873939 0.473903 5.55341e-21)
(0.00683388 -0.00233349 2.61254e-21)
(-1.50809 -0.605362 0)
(-0.379643 0.0679485 2.13304e-21)
(-0.0789681 -0.0889523 -1.92589e-21)
(-0.827814 -0.437997 1.86309e-21)
(-1.36396 -0.891076 8.09804e-23)
(0.0701713 -0.00356855 3.27473e-21)
(-1.01963 0.243966 1.17681e-21)
(-0.744494 -0.0167405 -3.39739e-21)
(-0.092735 0.095597 -1.94329e-21)
(-1.04007 -0.777716 0)
(-1.17337 -0.813816 0)
(-0.755022 0.085134 0)
(0.0119108 0.0376701 0)
(0.00628028 0.0102909 0)
(-0.537837 -0.2891 4.83416e-21)
(-0.427494 0.203575 -7.49151e-22)
(-1.12357 -0.637093 -3.0969e-21)
(0.0383439 0.014214 -3.85982e-21)
(-0.859703 0.382548 -6.38745e-22)
(-0.348282 0.0421429 -5.4846e-21)
(-0.0988298 -0.0961376 4.69556e-21)
(-0.748781 -0.402049 2.2305e-21)
(-1.37741 -0.842528 -1.22559e-21)
(-1.01852 0.296593 -1.75258e-21)
(0.0784847 -0.00330615 0)
(0.0692537 -0.0094074 -3.41099e-21)
(-1.05368 0.263185 0)
(-1.33257 -0.874808 8.30428e-22)
(-0.911625 0.355924 -2.48135e-21)
(0.0645366 -0.00366747 1.0258e-20)
(-1.44729 -0.747921 0)
(-0.0386443 -0.0604075 -7.57068e-21)
(-1.46861 -0.6036 9.64549e-22)
(-0.812172 0.419159 0)
(-0.435685 0.294923 -1.07572e-20)
(-1.04414 -0.292698 5.28572e-21)
(-0.510351 -0.444068 -1.64553e-21)
(-1.32421 -0.498581 6.16368e-22)
(-0.664737 0.371993 3.60725e-21)
(-0.17585 -0.173994 -4.71396e-21)
(-0.0376481 -0.050761 -6.76884e-21)
(-0.836176 0.457896 0)
(-1.51295 -0.589671 0)
(-0.416537 0.203395 -1.84713e-21)
(-0.468364 0.230872 0)
(-0.964351 -0.387919 -5.82467e-21)
(-1.04126 -0.422899 6.23389e-21)
(-0.249326 -0.220954 8.58085e-22)
(-0.219868 -0.206753 -9.14122e-22)
(-0.38054 0.196234 1.77319e-21)
(-0.922297 -0.351577 0)
(-0.306498 -0.263385 1.60426e-21)
(-0.566237 0.336899 0)
(-1.20553 -0.422979 -4.48505e-21)
(-0.276488 -0.254431 1.10171e-21)
(-1.23616 -0.844048 -2.07795e-21)
(-0.805097 0.112568 3.08186e-21)
(0.0288054 0.0272495 -7.41125e-21)
(-1.39024 -0.859573 0)
(-0.972205 0.275738 6.21115e-21)
(0.080564 -0.000550022 0)
(0.0562924 0.0125732 -2.40097e-21)
(-0.829823 0.161864 -1.86602e-21)
(-1.28994 -0.839344 -1.27818e-21)
(-1.02848 -0.513009 6.94727e-22)
(0.0265983 0.0256596 2.05337e-21)
(-0.74038 0.392386 0)
(-0.238771 0.0973825 3.5624e-21)
(-0.248905 0.0860607 0)
(-0.347776 -0.269527 0)
(-0.690744 -0.265791 1.2953e-20)
(-0.304301 -0.238956 0)
(-0.688951 -0.286864 -8.30079e-21)
(-0.490117 0.290713 0)
(-0.435578 0.258752 0)
(-0.367582 -0.319058 3.42572e-23)
(-1.0988 -0.37858 3.28265e-21)
(-0.328175 -0.286582 8.06409e-21)
(-1.02437 -0.345565 -7.206e-21)
(-0.979204 -0.627783 0)
(0.0340401 -0.000790249 4.3797e-21)
(-0.856747 0.320162 0)
(-1.38616 -0.836932 2.27523e-22)
(-1.00308 0.295711 6.10357e-22)
(0.0805802 -0.00123004 2.06496e-21)
(-0.290599 0.186935 -6.13194e-21)
(-0.566525 -0.459054 -3.71782e-21)
(-0.825839 -0.227903 1.04537e-20)
(-1.17951 -0.854964 4.79075e-21)
(-0.798098 0.0553358 7.86098e-21)
(-0.026276 0.0578411 0)
(-0.0588664 -0.0780083 8.09655e-21)
(-1.45312 -0.587311 -1.02545e-21)
(-0.791991 0.415746 3.81976e-21)
(-1.2525 -0.701913 0)
(-0.949256 0.384191 0)
(0.0537384 0.0111115 0)
(-1.28112 -0.735347 0)
(-0.977763 0.369715 1.17026e-21)
(0.0610866 0.00520273 7.396e-22)
(-0.6087 0.318224 -3.5179e-21)
(-1.23595 -0.494829 1.47237e-21)
(-0.163316 -0.165873 2.25952e-21)
(-0.135594 0.0801894 -9.87216e-22)
(-0.608841 -0.440544 0)
(-0.595271 -0.138446 -5.23655e-23)
(-0.930804 0.373222 2.89119e-21)
(0.0643789 0.000380809 5.93387e-21)
(-1.45709 -0.745575 2.02406e-22)
(-1.21872 -0.781223 0)
(-0.747795 0.142392 0)
(0.0512124 0.0138069 8.11861e-21)
(0.0306886 -0.0302437 1.97894e-21)
(-1.40538 -0.690511 2.1254e-21)
(-0.81584 0.340298 8.71607e-21)
(-0.407226 0.248298 0)
(-0.417212 -0.357134 -5.47646e-21)
(-0.985104 -0.320423 3.81278e-21)
(-0.596854 -0.0237773 3.81006e-23)
(-0.886238 -0.614837 3.01997e-21)
(-0.0462079 0.0551034 0)
(-0.211994 0.119411 2.54293e-23)
(-0.511169 -0.394719 -1.14083e-21)
(-0.693236 -0.211118 -4.42154e-21)
(0.0724895 0.00322368 7.6727e-24)
(-1.43852 -0.770729 -8.31041e-22)
(-0.955609 0.363507 2.8962e-21)
(-0.742605 0.325137 -1.64419e-21)
(-1.3541 -0.632781 -9.15726e-22)
(-0.0125527 -0.0604135 0)
(-0.187531 0.0759074 -3.86348e-21)
(-0.423886 -0.31388 7.38367e-21)
(-0.619734 -0.215619 -7.29158e-21)
(-0.85152 0.471465 2.31024e-21)
(-0.0241177 -0.0339799 2.97321e-21)
(-1.52446 -0.591305 4.81369e-22)
(-0.343177 0.147139 -2.27696e-21)
(-0.844208 -0.356652 0)
(-0.248801 -0.219479 0)
(-0.435126 -0.0194768 -9.97339e-21)
(-0.729232 -0.452771 2.03988e-21)
(-0.043566 -0.0125323 0)
(-1.15736 -0.775619 0)
(-0.719416 0.0878106 6.69166e-21)
(0.0242941 0.0307825 0)
(-0.876201 0.460736 -1.01519e-21)
(0.0332919 0.0237635 -9.23957e-22)
(-1.43315 -0.617952 -2.71523e-21)
(-0.869185 0.470767 2.84067e-21)
(0.02462 0.0192477 0)
(-1.45962 -0.603974 1.7219e-21)
(0.0159486 -0.0360744 1.76117e-21)
(-1.42234 -0.67116 -8.80312e-22)
(-0.816795 0.359519 -8.00942e-21)
(-0.637219 -0.0430453 -3.07779e-21)
(-0.910025 -0.653707 -3.0892e-21)
(-0.0729353 0.0728883 0)
(0.0335123 0.0313574 8.46431e-22)
(-1.37753 -0.59391 2.52949e-21)
(-0.844332 0.456998 0)
(0.0717891 -0.00889049 0)
(-1.3718 -0.767784 -1.05086e-21)
(-0.845756 0.27373 -1.0064e-21)
(0.0168676 0.00597762 3.51999e-21)
(-0.781017 -0.51005 -4.17642e-21)
(-0.674022 0.272378 0)
(-0.598688 0.347435 -1.29008e-22)
(-0.846454 -0.4118 0)
(0.0167536 0.0224306 3.51015e-21)
(-0.0277242 -0.0465887 -1.27579e-23)
(-1.49605 -0.61042 0)
(-0.836539 0.440881 0)
(0.0728566 0.00657527 0)
(-1.40218 -0.771262 0)
(-0.984683 0.369387 3.40392e-21)
(-0.896914 0.404482 -2.61806e-21)
(-0.877016 0.387225 2.118e-21)
(0.0379634 -0.00920911 -3.32821e-21)
(-1.4813 -0.692018 6.73973e-23)
(0.0370793 -0.0152203 -5.45287e-21)
(-1.46564 -0.69577 1.61212e-22)
(-0.848234 0.252445 1.9941e-21)
(-1.35903 -0.787879 8.23176e-22)
(0.0757516 -0.00513984 0)
(-0.0645183 0.079485 0)
(-1.13092 -0.847456 0)
(-0.791928 0.0220351 0)
(-0.246366 0.0489317 0)
(-0.25202 -0.195839 -1.04188e-20)
(-0.63642 -0.288291 4.51166e-21)
(-0.818247 0.1959 5.86293e-21)
(-1.30427 -0.807769 4.12736e-22)
(0.0702098 0.00309881 7.04484e-21)
(0.0616352 0.00895174 4.58289e-21)
(-0.803867 0.1725 -8.15404e-21)
(-1.27673 -0.813106 -5.71784e-22)
(-0.813152 0.463114 2.87113e-21)
(-0.0690558 -0.076437 3.23238e-21)
(-1.50843 -0.560118 9.23548e-22)
(-0.510704 0.308764 0)
(-1.13388 -0.381343 1.34532e-21)
(-0.331874 -0.294875 -7.90509e-21)
(-0.430994 0.239057 0)
(-0.998692 -0.35987 7.42749e-21)
(-0.328224 -0.288854 -2.09426e-23)
(-0.705704 0.176519 -7.97192e-21)
(-1.22067 -0.723221 6.41064e-22)
(0.056773 -0.0104954 -4.11377e-21)
(-0.730396 0.171214 0)
(-1.23177 -0.746144 6.15964e-22)
(0.059831 -0.00285439 3.75469e-21)
(-0.167658 0.0510983 0)
(-0.423434 -0.303623 -1.16477e-20)
(-0.564006 -0.19716 4.08981e-21)
(-0.486456 0.249097 0)
(-1.06655 -0.421516 0)
(-0.230512 -0.219595 1.22842e-21)
(0.0620093 -0.00216654 -7.08597e-21)
(-1.34865 -0.907597 -7.1275e-22)
(-1.02076 0.223844 0)
(-0.99998 0.349352 1.12065e-21)
(0.061181 -0.00134789 0)
(-1.23998 -0.749388 -1.35883e-21)
(-0.996889 0.329797 -2.3193e-22)
(0.0568861 -0.00606345 0)
(-1.19346 -0.740798 4.16488e-21)
(-0.295706 0.156632 2.6261e-21)
(-0.392692 -0.314421 -1.20839e-21)
(-0.804031 -0.28744 -1.70463e-22)
(-1.17103 -0.671109 2.76901e-22)
(0.0469558 0.00863003 5.91461e-21)
(-0.924315 0.372006 0)
(-0.782349 0.355504 6.97194e-21)
(-0.00792994 -0.0520335 3.74471e-21)
(-1.39962 -0.64218 0)
(0.0447603 0.000370812 -8.80188e-22)
(-1.11029 -0.683139 3.07351e-21)
(-0.924039 0.34119 0)
(-0.324123 -0.0404993 6.76547e-21)
(-0.127878 -0.0791811 6.45575e-21)
(-0.566217 -0.317768 1.28555e-23)
(-0.529892 0.169233 -1.20283e-21)
(-1.0639 -0.546486 -8.85456e-22)
(-0.0341219 -0.0799258 -4.32776e-21)
(-0.839182 -0.618208 7.07774e-21)
(-0.646654 -0.0733804 7.25999e-21)
(-0.105346 0.0904016 0)
(0.0718244 -0.00846255 0)
(-1.32513 -0.838399 7.40299e-22)
(-1.04763 0.293058 0)
(-1.19987 -0.794429 0)
(-0.749852 0.121941 0)
(0.0407822 0.0212915 0)
(-0.0011044 -0.016048 0)
(-0.87114 0.464448 -1.98139e-21)
(-1.51703 -0.613123 -4.73101e-22)
(-0.580137 0.191025 0)
(-1.1193 -0.583064 4.73669e-22)
(-0.0121968 -0.0666634 4.22701e-21)
(-0.237165 0.0279551 0)
(-0.248855 -0.187932 8.96157e-21)
(-0.593536 -0.273422 0)
(-1.36026 -0.829477 1.15786e-21)
(-1.02499 0.316058 1.66575e-21)
(0.0764451 -0.00374723 0)
(0.0605215 -0.0146462 -4.09862e-21)
(-1.39941 -0.741278 6.28308e-23)
(-0.847601 0.314903 2.11344e-22)
(-0.912171 0.438507 0)
(-0.905439 0.438513 1.58405e-21)
(0.046355 0.0215416 -2.15374e-21)
(0.0471398 0.024189 -2.63463e-21)
(-1.41506 -0.659607 1.39651e-21)
(-1.38309 -0.657795 -1.14886e-21)
(-0.538566 0.0626658 0)
(-0.96395 -0.602347 1.19694e-20)
(0.0115493 -0.00484715 4.7139e-21)
(-1.13867 -0.713234 7.07353e-21)
(-0.670355 0.112578 0)
(0.0420931 0.00889676 -5.04228e-21)
(-0.378551 0.00347184 -5.60826e-21)
(-0.714518 -0.414741 3.49836e-21)
(-0.0624556 -0.0525502 7.73255e-21)
(-1.28948 -0.787395 -2.12543e-21)
(-1.02333 0.334807 1.46825e-21)
(-1.27285 -0.800225 1.16307e-21)
(0.0672067 -0.00367447 0)
(-1.038 0.314717 -1.41698e-21)
(0.0658866 -0.00830028 0)
(-0.685537 0.237692 0)
(-1.24521 -0.658227 0)
(0.0248311 -0.0418995 4.60262e-21)
(-1.01555 0.333712 2.55928e-21)
(-1.01719 0.341779 -4.61978e-21)
(-1.36523 -0.806574 -1.40807e-21)
(-1.33439 -0.787347 2.82279e-21)
(0.0750217 -0.000283505 6.02627e-21)
(0.0709721 0.000224917 -1.24046e-23)
(-0.646944 0.090508 0)
(-1.09448 -0.707905 -6.96997e-21)
(0.0273696 0.0189395 6.53726e-21)
(-0.478159 0.0922404 5.327e-21)
(-0.993907 -0.552127 -5.46327e-21)
(-0.00610272 -0.0516345 0)
(-0.883726 0.466814 0)
(0.0211226 0.00787774 0)
(-1.48964 -0.624697 -1.65462e-21)
(-0.535488 0.0875897 3.95476e-21)
(-0.989943 -0.592283 -3.32523e-21)
(0.0168261 -0.0170095 -7.74338e-21)
(-0.407085 0.0317366 2.2713e-21)
(-0.797884 -0.465616 -4.10979e-21)
(-0.0397514 -0.0481324 4.41325e-21)
(-0.896179 0.448907 0)
(0.0391739 0.0205535 0)
(-1.44334 -0.647173 2.1805e-21)
(-0.594763 0.217215 0)
(-1.16245 -0.574745 8.555e-22)
(-0.0250171 -0.077142 -4.55705e-21)
(-1.01866 -0.782753 0)
(-0.767638 -0.0393687 0)
(-0.126153 0.115869 -2.49618e-22)
(-0.411825 0.260668 -2.78414e-22)
(-0.995932 -0.305117 0)
(-0.451063 -0.387783 8.36998e-21)
(-1.29443 -0.919085 1.99693e-21)
(0.0182725 0.0259942 0)
(-0.904352 0.130229 0)
(0.0122949 0.0130324 -8.45166e-21)
(-0.72422 -0.399283 -6.76275e-21)
(-0.567943 0.273056 1.0484e-21)
(-0.553262 0.136249 0)
(-1.04898 -0.586309 3.33056e-21)
(0.0100358 -0.0426127 -3.89711e-21)
(-0.900485 0.4399 3.92263e-21)
(0.0313253 0.0011571 1.11849e-20)
(-1.49223 -0.66045 0)
(-0.627631 -0.530271 -2.15103e-21)
(-0.942247 -0.23274 -3.72147e-21)
(-0.354764 0.247883 -2.38813e-21)
(-0.713967 0.406718 0)
(0.0278752 0.0321011 -3.09489e-21)
(-1.08471 -0.504454 0)
(-0.0840645 0.0392248 4.83386e-21)
(-0.0957289 0.0584308 -4.93296e-21)
(-0.642624 -0.443197 0)
(-0.514544 -0.0950958 4.72705e-21)
(-0.678099 -0.478144 -7.38508e-21)
(-0.55576 -0.103409 -3.77458e-21)
(-0.395769 -0.025768 5.28894e-21)
(-0.672576 -0.403895 4.76285e-21)
(-0.0637853 -0.0327297 0)
(-0.145253 0.0712609 4.37187e-21)
(-0.113285 0.0482839 0)
(-0.53547 -0.387669 -4.19812e-21)
(-0.584238 -0.163956 4.21796e-21)
(-0.560912 -0.391902 4.23126e-21)
(-0.532432 -0.131946 2.67319e-23)
(-0.515268 0.121966 3.33598e-22)
(-0.931377 -0.533682 -2.45747e-21)
(-0.0101011 -0.0429182 -5.38357e-21)
(-0.488004 0.0754666 -9.20592e-21)
(-0.933178 -0.546894 6.31418e-23)
(-0.00233245 -0.02984 0)
(0.0593608 -0.0110525 0)
(-1.20455 -0.772839 0)
(-1.02686 0.31189 9.77082e-22)
(-0.334283 0.16863 -2.42437e-21)
(-0.851578 -0.321157 0)
(-0.3294 -0.273738 2.22773e-21)
(-0.995196 0.345007 -5.56992e-21)
(-1.39776 -0.799647 -9.77229e-22)
(0.0769802 0.00324196 -3.4357e-21)
(-0.730107 0.210302 0)
(-0.772849 0.230607 4.20428e-21)
(-1.2639 -0.719206 -7.99885e-22)
(-1.30525 -0.741415 2.02034e-21)
(0.058616 -0.0157586 -5.05267e-21)
(0.0650965 -0.0127361 -4.62763e-21)
(-0.316523 0.1449 0)
(-0.815821 -0.326333 0)
(-0.298237 -0.251527 1.08355e-21)
(-0.54187 0.29771 2.77102e-21)
(-1.15383 -0.433242 0)
(-0.241684 -0.223826 2.627e-21)
(-0.649882 0.186558 -2.2602e-21)
(-1.18062 -0.664067 0)
(0.0388598 -0.0288529 0)
(-0.204258 -0.0207466 5.13263e-21)
(-0.474629 -0.211542 -2.46107e-21)
(-0.293785 -0.202217 2.44783e-21)
(-0.785445 0.201119 0)
(-1.29019 -0.777152 0)
(0.0690003 -0.00212879 -7.49532e-21)
(-0.220403 0.0557633 0)
(-0.310902 -0.234695 1.29256e-21)
(-0.620431 -0.25996 0)
(-0.636332 0.111699 -5.19016e-21)
(-1.10411 -0.689783 -3.94555e-21)
(0.0368166 0.000214166 -6.57264e-22)
(-0.534114 0.276926 2.85432e-21)
(-1.13543 -0.449148 0)
(-0.205867 -0.201198 5.41392e-21)
(-0.20009 0.00575839 -5.0852e-21)
(-0.178444 0.0115774 -2.24144e-21)
(-0.519548 -0.22698 2.45186e-21)
(-0.304543 -0.217767 -4.87151e-21)
(-0.512041 -0.20778 0)
(-0.353329 -0.250392 -8.60488e-21)
(-0.138711 0.0338063 -2.21028e-21)
(-0.4648 -0.327384 5.42312e-21)
(-0.11796 0.035446 1.41974e-21)
(-0.519373 -0.16431 -5.74175e-21)
(-0.542218 -0.374858 -2.67465e-21)
(-0.514227 -0.137998 1.26335e-22)
(-0.399045 0.180498 2.69565e-21)
(-0.440413 0.190572 0)
(-0.931454 -0.39381 4.46554e-21)
(-0.980381 -0.431883 -3.49004e-21)
(-0.219603 -0.200277 -5.00751e-21)
(-0.169284 -0.165714 8.31955e-21)
(-0.0194094 -0.0515787 0)
(-1.44935 -0.628222 -4.55091e-22)
(-0.811496 0.396899 -3.95627e-21)
(-0.145268 0.12788 3.05403e-21)
(-0.752687 -0.0666604 4.57788e-21)
(-0.950639 -0.735262 -6.827e-21)
(0.00152518 -0.0347067 -3.80083e-21)
(0.0186983 -0.0279747 3.04456e-21)
(-1.46717 -0.652529 3.94212e-22)
(-1.45397 -0.673015 8.05787e-22)
(-0.841416 0.406247 1.00273e-20)
(-0.848255 0.38713 -5.19793e-21)
(-0.239018 0.173252 4.4359e-21)
(-0.702026 -0.555733 -3.4992e-21)
(-0.784452 -0.168547 1.02783e-21)
(-0.244056 -0.0728001 8.71344e-21)
(-0.265514 -0.158223 0)
(-0.40333 -0.193219 -8.51763e-21)
(-0.803401 0.22757 -1.97813e-21)
(-1.31833 -0.772524 -2.28167e-21)
(0.0713009 -0.00589674 0)
(-0.269193 0.119005 0)
(-0.341279 -0.278983 -1.03167e-21)
(-0.74167 -0.283973 -4.14466e-21)
(-0.56243 0.285757 0)
(-1.17004 -0.473394 0)