/*--------------------------------*- C++ -*----------------------------------*\
  =========                 |
  \\      /  F ield         | OpenFOAM: The Open Source CFD Toolbox
   \\    /   O peration     | Website:  https://openfoam.org
    \\  /    A nd           | Version:  6
     \\/     M anipulation  |
\*---------------------------------------------------------------------------*/
FoamFile
{
    version     2.0;
    format      ascii;
    class       volScalarField;
    location    "./ITHACAoutput/Offline/1";
    object      P_rec;
}
// * * * * * * * * * * * * * * * * * * * * * * * * * * * * * * * * * * * * * //

dimensions      [0 2 -2 0 0 0 0];

internalField   nonuniform List<scalar> 
13046
(
1.18096
1.12676
1.18341
1.18747
1.19327
1.1429
1.1683
1.13756
1.19654
0.813469
0.567708
1.17293
1.16902
1.07596
1.18221
0.915841
1.15533
0.63994
1.20645
1.17503
1.1693
0.897445
1.1609
0.632176
1.18576
1.15892
1.18252
1.1532
1.06671
1.17755
1.19119
1.10559
1.17615
1.19399
1.19088
1.16149
1.19016
1.19505
1.17243
1.19131
1.15551
1.09713
1.18283
1.19968
1.18527
1.18604
1.19159
1.18014
1.16875
1.11746
1.18593
1.1116
1.19582
1.04649
1.10625
1.02943
1.19939
0.849382
1.09837
1.14194
1.08976
1.01941
1.19189
1.17374
0.780704
0.970244
1.11944
0.866137
1.13568
1.13609
0.894495
1.13609
0.804931
1.07953
1.14148
1.20614
1.18008
1.15306
1.14826
1.03628
0.774267
1.18047
1.15046
1.18367
1.17085
0.733591
0.934786
0.931401
1.18811
0.816344
1.19582
0.858003
0.814696
1.09519
1.07051
0.95872
0.933191
1.17246
1.17678
1.19161
0.934917
0.841782
1.18632
1.1955
1.17137
1.20432
1.07324
1.11252
1.19306
1.13635
1.07602
0.652514
1.17144
0.382574
1.17644
1.09854
1.18085
1.07376
1.09456
0.896225
1.16366
0.940213
1.16495
0.781585
0.518234
1.17144
1.13505
1.00428
1.17789
1.18791
1.1593
1.0906
1.19555
0.885265
0.857043
1.02811
0.888844
1.18165
1.18455
1.0864
1.17202
1.13104
1.10735
1.19354
1.19103
1.12311
1.07555
1.20189
1.09615
1.12899
1.08076
0.988952
1.1901
1.20801
1.13476
1.14056
1.06504
1.0263
1.04357
1.02113
1.19956
1.20009
1.12411
1.09692
1.19669
0.800529
1.17736
0.589023
0.707268
1.17067
0.427895
1.01602
0.855664
1.17788
1.18744
1.03306
1.15
1.12908
1.19766
1.11136
1.1839
0.649527
0.82168
1.18993
1.05769
1.14713
1.20719
1.11921
1.12936
1.14346
1.1187
1.19306
1.05878
1.18937
1.14486
1.03299
1.17697
0.914374
1.18254
0.756883
1.19463
0.927044
0.870376
0.866474
0.786501
1.19233
1.09887
0.996076
1.19018
1.15221
1.05066
1.142
0.774154
0.742769
0.851033
1.19195
1.1835
1.19699
1.16913
1.16398
1.07801
1.17289
1.19652
0.910771
0.878495
1.14086
1.07017
1.19291
1.17891
0.506355
0.715588
1.19217
0.996347
1.08376
0.903488
0.828539
1.19232
1.06648
1.07021
1.20137
1.12815
0.999582
1.17517
0.953678
0.932974
1.19539
0.996681
1.02078
1.19731
1.18045
0.494685
0.681949
1.19813
1.14083
1.05634
0.682775
1.16241
0.325606
1.20065
1.17682
1.16595
1.08503
1.0871
1.06076
1.08046
1.20162
1.19483
1.14373
1.01279
0.738005
1.14798
1.02221
1.1676
0.985806
0.991613
1.19895
1.04628
0.887227
1.17113
1.18978
1.17964
1.19806
1.04655
1.0461
1.19936
1.14966
1.00261
1.16435
1.14601
1.13999
1.19957
1.13307
1.03622
1.04022
1.02258
1.19748
1.01536
1.17161
0.858643
1.20479
1.1418
1.08528
1.20069
1.0036
1.05752
1.10204
0.916591
1.15384
1.19581
1.11967
1.03674
1.08052
1.06872
0.884583
1.15339
0.873841
1.15899
1.18041
0.677482
0.850614
1.10833
0.96391
1.16417
0.251019
1.17127
0.553131
1.16065
1.1996
1.1426
1.10879
1.04181
1.19016
1.18121
0.949172
0.798397
1.0929
1.00662
1.19815
0.923298
0.924524
1.19595
1.09933
1.18855
1.09699
1.01728
1.18402
1.0962
1.19482
0.951694
1.15523
0.684894
1.10549
0.969982
1.19111
1.08123
0.992625
1.18154
1.11617
1.09869
1.19879
1.07281
1.11047
1.20052
1.18313
1.127
1.18896
1.19463
1.00836
1.07084
0.891892
0.766929
1.18581
0.92163
0.929856
1.19665
1.14723
1.13224
0.93578
1.05743
1.07541
0.854455
0.8192
1.14593
1.14785
1.16825
0.278155
0.596573
0.714987
1.16179
0.363126
1.07192
1.0427
1.19237
1.18028
0.898727
0.716784
1.12273
1.11432
0.923642
0.909098
1.14758
1.14761
1.19089
0.675883
0.77131
0.660284
1.16216
0.267528
1.16617
1.20212
1.18388
0.647005
0.331306
1.16853
1.18066
1.02938
1.1494
0.833323
0.675383
1.18709
0.254854
1.17484
0.461547
1.19447
1.15659
1.11698
1.16704
1.16676
1.19708
0.789442
1.16861
0.508364
1.15765
1.15482
1.19754
1.17373
1.19994
1.18852
1.19938
0.973257
1.07509
1.14769
1.17141
1.20108
1.16305
1.14745
1.19987
1.15998
0.951616
1.12852
1.16692
1.17236
0.630459
0.627002
0.872841
0.85841
0.853299
0.735462
1.18624
1.13595
1.14231
0.90324
1.19009
1.14125
1.06828
0.978106
1.01888
1.19409
0.397798
1.18244
0.536221
1.19472
0.846322
0.781782
0.731602
1.17389
0.478283
1.1733
0.205946
0.442658
0.158445
1.16798
0.494155
0.982653
1.03338
1.19156
0.566336
1.18929
0.670329
1.00157
0.877629
1.18397
0.874094
1.14904
0.535653
1.16589
1.18591
1.11547
0.715079
1.19266
0.802738
0.985647
1.19415
1.03713
0.976447
0.986515
1.1988
1.16952
0.0168893
0.324788
0.284004
1.17403
0.52687
1.17664
1.19215
1.12707
0.654627
0.766942
1.18831
1.19249
0.72896
0.645952
0.900702
1.17375
0.708313
1.15061
0.743914
0.994392
1.17416
0.94258
1.12701
0.869361
1.09547
1.1488
1.14863
0.968167
0.661414
1.16778
1.1585
1.0388
1.01313
1.16051
1.16332
1.17542
1.04602
1.15629
1.13786
0.916012
1.14577
0.945232
0.958972
1.19606
0.725835
0.846855
1.19011
1.19386
0.958554
0.909447
0.182317
1.16786
0.534163
1.19805
1.19216
1.17107
1.11208
1.17769
1.11843
1.16274
1.1581
1.14418
0.965286
1.145
0.993161
0.296519
1.17924
0.463006
0.676027
0.794436
1.18829
1.1855
1.12576
1.02655
0.980512
0.953679
1.19721
1.1488
0.766637
1.01471
0.391389
0.617819
1.17705
0.440034
0.639301
1.18016
1.11645
0.928735
1.15574
1.20758
1.13871
1.10241
0.877597
1.17404
0.663984
0.963928
1.00581
1.195
1.17271
0.812432
0.998092
1.16616
1.14217
0.998336
1.07394
1.08605
1.19897
1.19461
1.14813
1.0851
1.17737
0.646702
0.845715
1.04804
0.871565
1.16541
1.19847
1.16468
1.12263
0.936521
1.14674
0.611092
1.17237
1.08106
1.16941
1.14931
1.12748
1.20206
0.994181
1.01219
1.1963
0.781761
1.15706
0.422781
0.810813
1.15417
0.446833
1.16786
0.796346
0.998579
1.05098
1.08803
1.19661
1.15568
0.360489
0.738958
1.18425
0.837568
0.9748
1.17466
0.175244
0.391435
0.464137
0.0943648
1.16523
1.15343
0.690583
0.973431
1.17986
0.565595
0.763709
0.912966
0.937746
1.16415
0.665936
1.16596
0.713888
0.960628
0.849198
1.1867
1.20158
0.999396
0.945043
1.19909
1.1807
1.13332
0.976367
0.894436
1.19259
1.19428
0.986735
0.919582
0.991773
1.14503
0.68668
1.15588
0.938661
1.14275
1.1687
1.00742
1.14551
1.04223
0.965477
1.18975
1.02728
0.956538
1.19214
1.2016
1.16272
1.14078
1.1557
0.99498
1.16233
1.19523
0.734607
0.795921
0.613708
1.1836
0.458211
0.578707
1.18372
0.445919
1.18614
1.1574
1.07069
0.348925
1.17703
0.561365
1.02584
1.16492
0.825738
1.17925
0.356144
0.523251
1.18761
1.19712
1.15515
1.13285
1.03786
1.18234
1.09798
1.05372
1.19848
1.18984
0.600134
0.709108
0.968218
1.00574
1.1962
1.15001
0.909423
0.5918
1.11026
1.01587
1.18203
1.20111
1.18509
1.14316
0.603229
0.738727
1.18789
1.1784
0.807587
0.974219
0.763252
0.729591
1.16345
1.16512
0.457
0.416331
1.10396
1.07557
1.19818
1.00654
1.04966
1.19227
1.15642
1.13219
1.1992
0.514448
0.656011
0.524743
1.18546
0.64995
1.18741
1.07105
0.95124
1.18281
0.734524
0.694593
0.573148
0.531344
1.18524
1.18422
1.04721
1.02818
1.19909
1.12874
1.06463
1.18876
0.845601
1.15454
0.513795
1.12024
1.06309
1.19569
1.15492
1.11235
1.19518
0.787248
1.15933
0.457927
1.11533
0.988051
1.17529
1.04534
0.962918
1.19575
1.17146
0.977827
1.13605
0.88365
1.19597
0.886244
1.16999
0.0663618
0.369
1.10908
1.04282
1.18811
0.869798
1.15944
0.58069
1.11757
0.956375
1.18335
0.563555
1.16116
0.182332
1.20296
1.19909
1.13693
1.12119
1.13492
1.10974
1.15953
1.13525
1.20001
1.19638
1.2016
1.14916
1.12068
1.15626
1.11931
1.12268
1.08196
1.19623
1.13074
1.0849
1.19718
1.18688
0.484187
0.595365
1.18249
1.06762
1.15614
0.772445
0.595636
1.18288
1.03555
1.01329
0.938985
0.904846
1.18588
1.18501
1.17734
1.09021
1.16267
1.13652
0.954478
1.14808
1.07189
0.983679
1.18766
1.19722
1.1638
1.18133
1.00248
0.915616
1.1911
1.1955
1.17136
1.13661
1.06695
1.02492
1.19615
1.13559
0.975962
1.14992
1.19631
1.19816
1.15329
1.18362
1.15462
1.17741
1.20117
1.15545
1.20406
1.14626
1.16672
1.12892
1.16848
1.16436
1.05544
1.05055
1.16662
1.16571
1.15589
0.764919
1.00312
1.19413
0.98447
1.06436
1.16072
1.16427
0.729989
0.745967
0.973465
0.968142
1.19237
1.11828
1.01189
1.195
1.19031
1.17651
0.99638
0.890523
1.18847
1.19441
1.16491
1.09325
1.12704
0.963786
1.15311
1.04607
1.04933
0.812151
1.1551
0.832131
1.1578
1.04825
0.928404
1.18139
0.603009
0.240409
1.16221
1.1127
0.978272
1.1855
1.17685
1.17789
1.12246
0.962419
1.1289
0.981819
0.975041
0.937769
1.19562
1.14411
0.97306
1.14894
1.19215
1.11891
1.00694
1.17471
1.18003
1.13344
1.1459
1.02179
1.01714
1.17223
1.13473
0.992256
1.05198
0.948486
1.1855
1.19856
1.17054
1.14484
0.82085
1.16379
0.535381
1.18892
1.11995
0.987564
1.13354
1.11545
0.974087
0.951866
1.15607
1.16189
1.16324
0.580293
0.85686
0.849535
1.15943
0.536863
0.818862
1.16001
0.506422
1.02729
1.15995
0.809377
1.15107
0.999708
1.15294
0.636644
0.79495
1.05749
0.643893
0.96877
0.363305
0.888832
0.746653
0.58259
0.965334
0.963331
0.546883
0.648503
0.952132
0.774352
0.65509
0.685721
0.737227
0.794103
0.916939
0.820295
0.729161
0.99171
1.14419
1.07283
0.799902
0.981996
0.563801
0.843118
0.63647
0.578621
0.889986
0.793822
0.803097
0.617295
0.811109
1.04854
0.982545
0.712808
0.844396
0.69594
1.15862
0.643559
0.955156
1.01449
0.723628
0.729974
0.661779
0.557472
0.642168
1.08487
0.831725
0.654744
0.701159
0.574738
1.0811
0.914916
0.803064
0.650052
0.940599
0.636378
0.655186
1.07656
0.770159
0.799496
0.919932
0.832906
1.11753
0.98525
0.964723
0.509289
0.558826
0.715298
0.938104
0.545392
0.80473
0.795641
0.609429
0.930953
1.0246
0.73822
0.790082
0.567001
0.634555
0.708553
0.93984
0.710831
0.68953
0.760752
1.08469
0.656706
0.942142
1.06795
0.8095
0.655688
0.292665
0.615308
0.666032
0.653129
0.507667
0.861927
0.997277
1.02297
1.11936
0.643904
0.658574
0.564685
0.66714
0.617779
1.04816
1.00649
0.916301
0.613695
0.562983
0.860807
0.98566
0.736814
0.689222
0.488267
0.732393
0.791658
1.08604
1.10879
0.945446
0.809454
0.721756
0.544835
1.106
0.581851
0.933779
0.496745
1.0775
0.568086
0.568683
0.619573
1.02444
0.792051
0.459278
0.639946
0.90172
0.650582
0.949861
0.875139
0.669711
1.00902
0.697144
0.632275
1.03667
0.649575
0.74125
0.550477
0.8236
0.708958
1.02107
0.944002
0.731373
0.936736
0.950255
1.05828
0.800256
0.709721
0.664248
0.953858
0.579593
0.840595
0.570354
1.14524
0.731658
1.02177
1.10609
0.824353
1.1111
1.02654
1.0587
0.603985
0.491171
0.544389
1.06159
0.605997
0.583372
0.571619
0.585561
0.7465
0.696858
0.822325
1.10499
0.942191
0.703566
0.925925
0.681862
1.15329
0.53219
1.00163
0.663891
0.471952
1.08884
1.1148
0.657033
0.666918
1.14197
0.849782
0.703552
0.624387
0.943287
1.04421
0.912874
0.653415
0.651868
0.968013
0.809888
0.616243
0.860771
0.580931
0.592024
0.723184
0.971523
0.496095
0.734292
1.00182
0.70111
0.490807
0.721626
0.657488
0.71169
0.877689
0.892869
0.634793
0.578755
0.611685
0.92175
0.908585
0.744309
0.903021
0.703704
0.606073
0.862717
0.702059
0.473982
0.909469
1.03542
0.839723
1.07384
1.04341
1.16088
0.656008
0.44504
0.760386
0.724278
0.702633
0.502743
0.859956
1.0774
0.919666
0.857127
0.646685
0.748069
0.93483
0.809115
0.888272
0.654411
0.756232
0.69647
0.566902
0.633797
0.671398
0.659871
0.598116
0.898551
0.807626
0.729576
0.904963
0.658485
0.75273
0.639673
0.725923
0.706432
0.675184
0.850815
0.514041
0.446598
0.767392
0.540452
0.509134
0.858027
0.53894
0.507883
1.02852
0.909388
0.636734
0.919891
0.585286
0.897141
0.855281
0.585029
0.659389
0.988581
0.767533
0.9391
0.371027
0.624026
1.02748
0.689225
0.624956
0.41884
0.522371
0.488224
0.535089
0.698652
0.911184
0.603046
0.48293
0.620699
0.684894
1.15565
0.652059
0.942398
0.849872
0.55285
0.72773
0.636743
0.566733
0.882411
0.703556
1.08322
0.912363
0.63463
0.710402
0.832655
1.14249
0.927599
1.05216
0.951919
0.704467
0.825318
0.746569
0.612665
0.520019
0.672458
0.685729
0.898808
0.643399
0.547999
0.654228
0.720331
0.651839
0.674336
1.00848
0.706387
0.674024
1.07073
1.00501
0.629994
0.816218
1.04407
0.653908
0.528633
0.712591
0.608389
0.568596
1.03312
0.62271
0.74221
1.04818
0.504519
0.820511
0.643405
0.821244
0.713868
0.663879
0.324495
0.73585
0.544552
0.686802
0.723033
0.724763
0.926855
1.07879
0.649833
0.814263
0.712216
0.616608
0.468938
0.993488
0.873038
0.694369
0.546783
0.846108
0.547097
0.655328
0.647273
0.622892
0.950329
1.06432
0.697954
0.92675
1.12277
1.00725
0.996589
1.05646
0.699567
0.685382
0.570639
1.14258
0.982025
1.02508
0.654645
0.714133
0.480351
0.942663
0.717159
0.647599
1.02699
0.891614
0.591344
0.730133
0.638349
0.653754
0.646298
0.711718
0.728358
0.601666
0.700308
0.528471
0.729783
0.603376
0.887135
0.781632
0.495764
1.0505
1.07193
0.947026
0.676219
0.828429
0.533007
0.966236
0.816396
0.555481
1.04345
0.457327
1.08525
0.524382
0.741543
0.766609
0.948079
0.965556
0.653459
1.11007
0.668105
1.00326
0.737727
0.886351
0.688166
0.639453
0.66817
1.00603
0.764074
1.13575
0.925728
0.520777
0.655259
0.891038
0.479152
0.680753
0.741512
0.596156
1.0887
0.601902
0.5806
0.973033
0.662629
1.08331
1.12466
0.72376
1.13664
1.09397
1.01833
1.03235
0.841159
0.562869
0.636395
0.720287
0.994149
0.727815
0.459686
1.10862
0.602242
0.751896
0.628338
1.05671
1.14932
0.601701
1.00811
0.854221
1.07688
0.733895
0.95421
0.738604
1.10865
1.13165
0.901643
0.634903
0.968454
0.691146
0.804641
0.802785
0.748912
0.858829
0.671253
0.462741
0.575896
0.763482
0.873136
0.817854
1.02556
0.617176
0.71831
0.879571
0.576878
1.0663
0.639724
0.73885
1.04703
1.01995
0.836232
1.11756
0.641285
0.70538
0.954212
0.796009
0.773133
0.74225
0.672718
0.892977
0.919732
0.673955
0.646725
0.833702
0.517752
0.599176
1.08293
1.11615
1.13336
0.751417
1.12857
1.14595
1.09571
0.460405
0.850662
0.853275
1.11558
0.689685
0.647493
0.549185
0.634401
0.431204
1.1059
0.766832
0.783329
0.960293
0.907301
0.689956
0.736094
1.14619
1.09991
1.05314
0.9044
0.687425
0.930291
0.882406
0.692429
0.771931
0.569494
0.625631
0.803618
0.769676
0.68773
1.07809
1.08286
0.470726
1.02125
0.652931
0.658006
0.715504
1.07048
0.73145
0.913937
0.752857
1.05487
0.70767
0.750473
1.12528
0.472117
0.518243
0.639285
0.607602
0.443724
0.242569
0.616839
0.440761
0.778202
0.465855
0.575629
0.772439
0.670574
0.622608
0.696634
0.552219
0.291113
1.09249
0.996498
0.712696
0.552442
0.999904
0.695949
0.647155
1.1284
0.622197
1.12348
0.738134
1.0321
0.743937
0.54484
0.571717
0.81617
0.818049
0.78069
0.551785
0.70996
0.580376
0.606357
0.667692
0.497519
0.560381
1.10089
0.636526
0.933948
0.967305
0.692501
0.966036
0.972356
0.551706
0.253442
0.740979
0.519397
0.4514
0.929077
0.94813
0.716996
0.879185
0.696759
1.12478
1.09078
0.750651
0.68298
1.11231
1.03531
0.863513
0.865535
0.704005
1.1296
0.804536
0.467866
1.0598
0.98812
1.08125
0.817606
0.636067
0.712615
0.951929
0.889174
0.162627
1.16358
0.738823
0.639871
0.813172
1.01619
1.11671
1.13393
0.882595
0.77632
0.983015
1.04065
1.04394
0.925009
0.992937
0.556651
0.658993
0.838945
0.572343
0.546071
0.500527
0.734438
0.976434
0.522892
0.806494
0.662599
0.990931
1.13456
0.76927
0.559825
0.4907
0.941017
0.67161
0.63094
0.484028
1.05984
0.84159
0.859414
0.544153
0.850733
0.624301
0.649593
0.940169
0.973576
1.05969
1.14899
0.617464
1.04204
0.469752
1.05985
1.07082
1.0798
0.972576
0.598412
0.598047
0.72652
0.469763
0.794895
0.496376
0.852944
0.550547
1.02845
0.696804
0.482658
1.0222
0.945661
0.756582
0.757055
0.923481
1.0621
0.831877
0.78654
0.475619
0.997328
0.807413
1.09213
0.445412
0.772346
1.06245
0.940916
1.11784
0.9352
0.711061
0.431229
0.481356
0.763499
0.503534
1.09987
0.487043
0.665152
0.752276
0.619052
0.974045
0.447414
1.04775
0.953798
0.863148
0.461185
0.890302
0.61687
0.701753
0.773696
0.752445
0.707043
0.699778
0.978654
0.611541
1.12292
0.694809
0.764326
0.907823
0.940427
1.10134
0.709052
0.754952
0.626636
0.772567
0.67992
1.09067
0.634021
0.792042
0.701114
0.99681
0.660935
0.818804
0.554447
1.13559
0.464548
0.599311
0.677192
1.00824
0.489099
0.485736
0.58538
0.543708
1.07771
0.78523
0.913488
1.03392
0.88698
0.786289
1.13794
0.788369
0.945828
0.888099
0.816424
0.502158
0.830801
0.774746
0.67815
0.833468
0.59626
0.519326
0.824575
0.705541
0.597936
0.979205
0.774025
0.906255
0.76904
1.08109
0.750613
0.748472
0.89191
0.546028
0.627397
0.703294
0.817702
0.837184
0.89082
1.06622
0.932507
0.995894
0.81488
1.04516
1.10571
1.10064
0.814092
0.799448
0.852158
0.56718
1.11603
1.03528
1.00546
0.793407
0.608215
0.511089
0.854127
0.933751
0.640775
0.999515
1.03498
0.87514
0.657416
0.812335
0.679466
0.642228
0.798027
0.668882
0.858493
0.483905
0.857546
0.764502
0.751221
0.450919
0.83448
0.790187
0.921298
0.701254
0.84565
1.07223
1.08525
0.869614
0.742293
0.99589
0.816779
0.632519
0.620292
0.731425
0.532346
1.06189
0.771881
0.831436
0.956654
0.929594
0.881489
0.588962
1.12582
0.891169
0.632907
0.779844
0.803711
0.995573
1.07156
0.895339
0.865501
0.49661
0.601289
0.761193
0.866833
0.789429
0.874098
0.655252
1.08037
0.863061
0.95936
1.0464
0.837129
0.637441
0.812483
1.11472
0.688362
0.486177
0.807821
1.11805
0.682917
0.737187
0.985616
0.926688
1.01388
0.779985
0.499806
0.872115
0.552856
0.691555
1.01509
0.778103
0.573944
0.644547
0.677499
0.891557
0.700891
0.668082
1.04609
0.63917
1.13893
1.01353
0.551468
0.432243
0.778421
0.937819
1.03832
0.787111
0.759669
0.629743
0.724459
0.755126
1.14656
1.06282
0.937153
0.704781
0.516832
1.05564
1.13316
1.08013
0.996093
1.05768
0.804497
0.553584
0.466096
0.489447
1.09599
0.798965
0.612924
0.725774
1.13047
0.705619
0.660302
0.530464
0.78516
0.612201
1.11006
0.879582
0.952809
1.06083
1.01653
0.74327
0.910794
0.802767
0.925283
0.681743
0.874111
0.659865
1.09332
0.559929
0.681227
0.603934
0.721486
1.06999
0.70429
1.01583
1.0291
1.06315
0.585114
0.795564
0.755499
0.636109
1.08206
0.813626
0.827281
0.873604
0.395022
0.733757
1.06852
0.9104
1.08381
0.476203
0.593006
0.712892
1.0982
0.649204
0.763778
0.599556
0.579964
0.709208
1.07437
0.740435
0.766302
0.539399
1.10118
1.12215
0.407621
1.06266
0.69068
0.590755
0.602267
0.804518
0.511049
0.883737
0.703476
0.684556
0.732896
1.02784
0.79256
1.00975
0.737234
0.588015
0.729925
0.475793
0.509388
0.777173
0.693968
0.839974
0.596467
0.751002
1.0329
0.870597
0.685447
0.541882
1.05094
0.798931
0.764942
1.14101
0.834535
0.678439
0.676795
0.592092
1.10788
0.680654
0.764167
0.88456
0.532187
1.05822
0.569728
1.04262
0.790446
0.966506
0.603898
0.981654
0.760251
0.551549
0.626808
0.790685
1.06068
0.429694
0.643936
0.711503
1.09716
1.12247
0.622585
0.670505
0.876745
1.0852
0.747369
1.07611
1.03948
1.00486
0.960282
0.850523
0.907978
0.888003
1.08567
0.765736
0.813056
0.620885
0.65689
0.761318
0.609418
1.11201
0.561619
1.06911
0.749472
1.10086
0.66147
1.11695
0.966073
1.01426
1.10257
1.07256
1.13774
0.734077
1.05037
0.789948
0.705999
0.642366
0.600712
1.08373
0.563401
0.88479
0.891175
0.750654
0.87978
0.649205
1.06412
0.82583
0.97925
0.456352
0.637108
0.710988
1.1024
0.631963
0.916475
0.662425
0.712529
0.568089
0.739902
0.697371
1.00237
1.09287
0.525199
0.876323
0.713786
0.668195
1.02311
0.632701
0.653965
1.10406
0.491669
0.831123
0.939005
1.07832
1.13181
0.672331
0.652929
0.534038
0.717968
0.640558
0.710772
0.966884
0.690674
0.553135
0.761093
0.795555
0.690093
0.643438
0.708029
0.802166
0.554659
0.989672
0.969115
0.686019
0.98221
0.536336
0.527441
0.633974
0.473914
1.11544
0.698335
0.698118
0.650414
1.0254
1.08479
0.839521
0.959687
0.658343
0.632378
0.8049
0.699036
0.640623
1.08282
0.849449
0.902953
1.11599
0.996578
0.780859
1.10343
0.524143
0.84493
0.839492
0.89733
0.716947
1.07755
0.692822
0.883503
0.775003
0.691776
0.607023
0.66182
0.96646
1.02623
1.05712
0.806108
0.824209
1.08567
0.988668
0.768234
0.8335
0.575791
0.732257
1.01375
0.519268
1.0385
0.697812
1.04996
1.12421
1.09004
0.690717
1.02129
1.04189
0.485438
1.08123
0.662442
1.09621
1.0005
0.712733
0.587542
0.850481
0.736892
0.703318
0.658613
0.981788
0.690875
1.10637
0.594923
0.675752
0.634272
0.593643
0.699495
1.02395
1.12251
0.589806
0.970185
0.80438
0.888728
0.753959
0.870382
1.07638
1.00812
0.704762
1.0659
1.02349
1.12357
0.587971
0.687821
0.648726
0.965779
1.11155
1.03316
0.765537
1.12061
0.782289
0.535997
0.586348
0.427697
0.768398
0.568021
1.11903
1.14213
0.831039
1.12855
1.01488
0.841311
1.11352
0.578092
1.0738
0.732066
1.08385
0.711831
0.601477
0.966242
0.835148
1.09759
1.07412
1.08018
0.624001
0.62734
0.512214
1.0361
1.00601
0.610928
0.800988
1.00704
0.468412
0.670376
0.618595
0.7256
0.873043
0.717021
0.840346
0.938621
0.813
0.82544
0.977624
0.705214
0.733562
0.882855
0.816156
0.708998
1.05261
1.0872
0.614514
0.99991
0.45401
0.663435
1.05398
0.981124
0.702155
1.09002
0.575737
0.970437
0.736636
0.734694
1.06259
0.714936
0.981458
0.970005
0.920329
1.14759
0.933492
0.537879
0.907267
0.765785
0.986005
1.14293
0.923328
0.78508
0.641898
0.736357
1.0652
0.566422
1.0134
0.631173
0.858282
0.989214
0.971307
0.806895
1.05918
1.12145
0.723598
0.706839
0.824632
0.614927
0.559615
0.846338
0.973963
0.621863
0.541275
0.638716
0.545449
0.964749
0.781285
0.992882
0.665487
1.08495
0.803402
1.02451
1.11029
0.642943
1.07441
0.713161
0.831597
0.807209
1.04253
0.657036
0.743464
0.815361
0.611214
0.71661
0.590852
0.570524
0.45585
1.11434
1.12303
0.618774
0.673321
0.9837
0.520463
0.639231
0.710041
0.948019
0.970242
0.496188
0.455919
1.07209
0.663541
0.875396
0.656049
0.527795
0.589922
0.831654
1.03418
0.883235
0.520673
1.08831
1.03046
0.628673
0.870087
0.697187
1.1112
0.717364
0.755626
0.552604
0.925702
1.08233
0.889806
0.82915
0.653471
0.775256
0.873976
1.11716
1.13267
0.651121
1.12539
0.66262
0.854144
0.847685
0.766406
0.692876
1.04708
0.722078
0.836605
0.643637
0.659023
0.73212
0.601703
0.924538
1.08548
0.632661
0.675089
0.83951
0.701759
0.635885
0.47577
0.699511
1.031
0.467238
0.691885
0.952617
0.843505
0.767028
0.925365
1.01675
0.620762
0.613676
1.02456
0.754631
0.606087
0.794017
1.03957
0.909793
0.863455
0.658463
0.641307
0.646021
1.11687
1.02967
1.12846
0.761451
0.939402
0.570831
0.795046
1.03603
0.528874
0.53538
0.971667
1.03431
0.511675
0.682916
0.646868
0.59977
0.643761
1.1304
0.74799
0.6791
0.825494
0.640198
0.955458
0.845424
0.557927
0.685813
0.979006
0.770563
1.12108
0.555773
0.66887
0.905
0.890355
0.779723
0.870778
0.608841
1.1289
1.05373
0.908889
1.0477
0.639489
1.03667
0.919482
0.8969
1.10213
0.521749
0.689703
1.13524
0.923931
0.509181
0.699631
1.00973
1.13177
0.797523
0.980003
0.654769
0.546883
0.626883
0.509465
1.0362
0.659354
0.821933
1.1006
0.633453
0.619657
0.662945
0.825209
0.672003
0.694136
0.643171
0.582055
0.776707
1.00692
1.10032
0.94462
0.709097
0.685396
0.49072
0.677026
0.90332
0.883039
0.920818
0.960169
0.687038
0.794742
1.00553
1.04115
1.13413
1.0626
1.10716
0.778634
0.570701
0.629488
0.586247
1.11855
0.826234
0.6678
1.10022
0.574283
1.00435
0.948843
0.689307
0.654169
0.68824
0.652992
1.03871
0.744722
0.949832
0.786115
1.09586
0.859557
1.15135
0.619116
0.79383
0.681857
0.446266
0.706274
0.967172
0.595502
0.376419
0.863691
1.07775
0.987892
0.654667
0.562894
0.632
0.576454
0.65659
0.571114
0.76428
0.59715
0.974033
0.612405
0.66739
1.04911
0.787776
0.897885
1.02579
0.766434
0.823258
0.625069
0.984335
0.746954
0.686491
0.760175
0.597737
0.547439
0.66581
0.65164
0.976072
1.12876
1.04784
0.855968
0.947774
0.517942
1.1242
0.858037
0.963031
0.662778
0.961771
0.700371
0.712619
1.01509
1.08693
0.975391
0.86998
0.710155
1.14155
0.716065
1.00747
1.11166
0.935432
0.739278
0.512984
1.00546
0.847864
0.59061
0.922635
0.840952
1.09127
0.655464
1.10077
1.13553
0.753166
0.618946
1.10961
0.564019
0.601278
0.714983
0.603124
0.693789
0.599762
0.559871
0.783489
0.668992
0.626861
0.68591
0.875703
0.666394
0.64436
0.916652
0.81857
0.520018
1.08875
1.11554
1.1097
0.655124
0.517447
1.15687
0.552552
0.76485
0.641887
0.708856
0.661316
0.968052
0.689456
0.699943
0.541766
0.525905
0.590658
0.689383
0.497585
0.802869
0.847196
0.793145
1.09826
0.818554
0.918862
0.743148
1.02641
0.721082
0.705009
1.13007
0.720403
0.83717
0.56554
0.930634
1.12425
0.754845
0.886442
0.841503
0.700216
0.652056
0.630754
0.599634
0.979496
0.608816
0.750317
0.697795
0.756778
0.630403
0.631875
0.771177
0.736827
0.670514
1.11132
0.775177
0.739396
0.867146
1.09138
0.703754
0.530195
0.993066
0.566178
0.727464
0.649165
0.78097
0.69296
0.718313
0.781905
1.12558
1.04613
0.543122
0.668834
0.520319
0.636157
0.508956
0.603904
0.703435
0.617093
0.716549
0.896105
1.1326
0.701197
0.953977
0.809044
1.11687
0.690919
1.12658
0.897179
0.566526
0.887944
0.95781
0.707178
1.03209
0.647862
1.05681
0.661164
0.425986
0.778602
1.13462
1.10793
0.980335
0.897417
0.939995
0.527884
0.678505
0.9401
1.15072
0.439677
0.787963
0.650753
0.71601
0.750645
0.63881
0.581839
0.666757
0.596173
0.680056
0.730592
0.756491
1.14542
1.0283
0.502828
0.993921
0.620915
0.619389
1.0092
0.655084
0.726066
0.930303
0.489218
0.645884
0.790792
1.04872
0.584368
0.650876
0.716034
0.896093
0.586913
1.09276
0.516057
0.699056
0.723846
0.652063
0.901267
0.897421
1.09461
0.649593
0.971131
0.859675
0.886105
0.647496
0.901941
0.608128
0.576315
0.47814
0.856323
0.783969
0.722916
1.05908
0.789164
0.834718
0.896593
0.629855
0.609064
0.69623
0.871663
0.655531
1.12974
0.561877
0.517786
0.722708
0.700175
0.660778
0.642771
0.954408
0.712705
0.793793
0.576309
0.649223
0.797892
0.584989
1.13114
1.10103
0.586351
0.630464
1.02154
0.811494
0.637123
0.563368
0.639821
0.580808
0.852289
1.07914
0.635929
0.522616
0.895126
0.774483
0.517731
0.584421
0.77749
0.946496
1.12637
0.57029
0.532935
0.874146
1.03235
0.743504
0.848444
0.72132
0.650165
0.703652
0.898322
0.781577
0.654429
1.00585
0.71983
0.489382
0.83786
0.665281
1.01156
1.14768
0.659242
0.694634
0.705791
0.690716
0.572115
0.704549
0.578444
1.10374
1.01921
0.949008
0.710005
0.536374
0.997613
1.12422
0.640826
0.831191
0.693958
0.451772
0.816247
0.703433
0.464416
0.648078
0.890721
0.563041
0.522556
0.597079
0.992892
0.547017
1.00851
0.767175
0.660159
0.733212
0.623378
1.01243
0.488643
0.700597
0.747288
0.571854
0.841332
0.94264
0.863415
0.790372
0.987819
0.585132
0.585261
1.07208
0.649633
1.06656
0.878749
0.74999
0.846059
1.05114
0.77323
0.518431
1.0897
0.646035
0.754183
1.04227
0.637134
1.10155
0.642731
0.723508
0.48784
0.713722
0.597584
0.783236
0.602644
0.487872
0.584278
0.590317
0.456943
1.07889
0.58886
0.719131
0.851416
0.785758
1.12795
1.12938
0.685862
0.782253
1.01467
0.675493
1.08122
0.467258
0.728282
0.819185
0.64241
1.02569
0.693626
0.698254
0.681122
0.634686
0.63787
0.497179
1.05311
0.318381
1.08686
0.955115
0.60691
0.5277
0.592297
1.13195
0.949789
0.909639
0.760839
0.840785
0.747285
1.04871
0.985988
0.626471
0.882944
1.10043
0.763925
0.826887
0.894118
0.500738
0.581758
0.995872
0.708993
0.75746
1.10352
0.583831
0.473079
0.648528
0.760038
0.772373
1.1107
0.646004
0.544221
0.641439
0.754342
0.653988
1.06948
0.775139
0.591837
0.701143
0.637767
0.63449
0.70392
0.888041
0.806224
0.617536
1.05749
0.714175
1.00445
0.61909
0.580042
0.720786
1.04872
1.11565
1.0057
0.810269
0.784066
0.999321
1.10304
0.559347
1.08502
0.588231
0.923208
0.903946
1.06266
0.806782
1.05142
1.08666
0.659224
0.646088
0.721237
0.795689
0.583935
0.617414
0.553317
0.971598
1.03127
0.558276
1.09315
0.80244
0.990412
0.765665
0.614577
1.01709
0.993514
0.692168
0.687378
0.596177
1.13634
0.94648
1.15539
0.565948
0.584022
0.733962
1.03341
0.900203
1.03609
0.829175
1.10579
0.655577
0.741982
0.827717
0.674185
0.883653
0.522782
1.00891
0.779269
0.829339
1.08611
0.554647
0.56284
0.484051
0.861208
1.06018
0.68174
0.915563
0.534483
0.539603
0.764056
0.665801
0.641257
1.0419
0.79888
0.636081
0.735349
0.862676
1.08676
0.866622
0.730421
1.05396
0.802529
1.11049
0.82143
0.953532
0.737146
0.553901
1.13102
0.61453
0.842782
0.868195
1.08011
0.935907
0.783055
0.656314
1.14289
0.725009
0.602781
0.980954
1.12594
0.962501
0.912629
0.547853
0.478296
0.84271
0.61981
0.715247
0.816246
0.617349
1.08597
1.13149
1.0884
0.665416
0.709091
0.642518
0.700811
0.916624
0.585208
0.939882
1.09986
0.552747
0.698458
0.645337
1.01647
0.920475
0.70998
0.625063
0.959955
0.645528
0.50697
0.586945
1.14428
0.484518
1.00499
0.885717
0.646861
1.09073
0.850448
1.12071
0.486425
0.697801
0.816356
1.09287
0.702939
1.07871
0.854363
0.485526
0.78944
0.663405
0.711933
0.47911
0.995494
0.700739
0.620368
0.526779
0.790874
1.04794
0.414897
0.672406
1.05722
0.740017
1.04315
0.466526
0.648053
0.648453
0.747631
0.682107
0.544431
0.645103
0.432802
0.72459
0.735107
0.991655
0.831342
1.06086
0.636499
0.705631
0.548449
0.80602
0.425566
0.707022
1.15138
0.766336
0.697393
1.13703
0.61155
0.8373
0.885429
0.52333
0.674619
0.768232
0.850774
1.10081
1.12344
1.12725
0.861396
0.740712
0.755493
0.592865
1.01848
0.919809
0.647851
0.697442
0.689504
0.76185
1.12477
0.740319
1.11876
0.701711
0.891732
0.59603
0.645793
0.533247
0.667666
1.07279
0.694589
0.557127
0.593492
1.13798
0.674409
0.615105
0.611741
0.645893
0.94395
0.823983
0.837667
0.742541
0.950819
0.531885
0.771387
0.797281
0.71205
1.04513
1.0574
0.602774
1.0662
1.09354
1.04782
0.811265
0.724324
0.673015
0.744926
1.10666
0.767179
0.862635
1.06004
1.13101
1.09523
1.05288
0.651704
0.897143
0.785372
0.612283
0.516401
0.739119
1.04449
1.13522
1.10747
0.690874
0.587393
0.581767
0.552961
0.922554
1.12912
0.888916
0.96983
0.989156
0.988661
0.962509
0.638898
0.695022
0.659607
0.594307
0.653793
0.719541
0.569308
0.695884
0.657677
1.07835
0.869373
0.520703
1.11306
0.670694
0.651644
0.752411
0.605282
0.963681
0.95814
0.668863
0.886684
1.12286
1.13156
0.914148
0.942135
0.777778
0.801942
0.744919
0.548385
0.840684
0.843129
0.687511
0.914133
0.880559
0.559879
0.384897
0.67937
1.10569
0.688959
0.939523
0.708439
1.0848
0.743099
0.616807
1.00661
0.920069
0.923929
0.855074
0.573555
0.714848
0.556547
0.917728
0.632608
1.03155
0.706622
0.657517
0.866238
0.54267
0.730996
1.13924
0.547812
0.944852
0.678163
0.602488
0.725397
0.732413
1.04466
1.06378
0.714038
1.10715
0.520521
1.07338
1.01283
0.98442
0.649044
1.03935
0.591544
0.957817
0.902656
0.506228
0.719506
0.57893
1.1095
0.938922
0.540975
0.593483
0.764827
0.613029
0.93456
0.60605
0.845529
1.13784
0.67417
1.11718
0.854105