/*--------------------------------*- C++ -*----------------------------------*\
  =========                 |
  \\      /  F ield         | OpenFOAM: The Open Source CFD Toolbox
   \\    /   O peration     | Website:  https://openfoam.org
    \\  /    A nd           | Version:  6
     \\/     M anipulation  |
\*---------------------------------------------------------------------------*/
FoamFile
{
    version     2.0;
    format      ascii;
    class       volScalarField;
    location    "./ITHACAoutput/Offline/1";
    object      P_rec;
}
// * * * * * * * * * * * * * * * * * * * * * * * * * * * * * * * * * * * * * //

dimensions      [0 2 -2 0 0 0 0];

internalField   nonuniform List<scalar> 
40000
(
0.0161749
0.016176
0.0161772
0.0161779
0.0161777
0.0161764
0.0161741
0.0161706
0.016166
0.0161604
0.0161538
0.0161463
0.0161379
0.0161287
0.0161188
0.0161082
0.0160969
0.016085
0.0160726
0.0160596
0.0160461
0.0160321
0.0160177
0.0160028
0.0159874
0.0159717
0.0159555
0.0159389
0.0159219
0.0159044
0.0158866
0.0158684
0.0158499
0.0158309
0.0158116
0.0157919
0.0157718
0.0157514
0.0157306
0.0157095
0.0156881
0.0156663
0.0156443
0.015622
0.0155994
0.0155766
0.0155536
0.0155304
0.0155071
0.0154836
0.01546
0.0154363
0.0154125
0.0153888
0.0153651
0.0153414
0.0153179
0.0152945
0.0152712
0.0152482
0.0152256
0.0152032
0.0151812
0.0151596
0.0151385
0.015118
0.0150981
0.0150788
0.0150602
0.0150423
0.0150253
0.0150091
0.0149939
0.0149796
0.0149664
0.0149543
0.0149433
0.0149335
0.0149249
0.0149175
0.0149115
0.0149068
0.0149034
0.0149015
0.0149009
0.0149018
0.0149041
0.0149078
0.0149129
0.0149194
0.0149273
0.0149365
0.014947
0.0149588
0.0149717
0.0149858
0.0150009
0.015017
0.015034
0.0150517
0.01507
0.0150889
0.0151082
0.0151278
0.0151474
0.0151671
0.0151866
0.0152057
0.0152243
0.0152422
0.0152593
0.0152754
0.0152902
0.0153038
0.0153157
0.015326
0.0153344
0.0153408
0.015345
0.0153469
0.0153464
0.0153433
0.0153375
0.0153289
0.0153175
0.0153031
0.0152857
0.0152653
0.0152418
0.0152151
0.0151855
0.0151527
0.0151169
0.0150781
0.0150365
0.014992
0.0149447
0.0148949
0.0148426
0.0147879
0.014731
0.0146721
0.0146113
0.0145488
0.0144849
0.0144196
0.0143532
0.0142859
0.0142179
0.0141494
0.0140805
0.0140116
0.0139427
0.0138741
0.0138059
0.0137383
0.0136716
0.0136058
0.0135411
0.0134777
0.0134156
0.013355
0.0132961
0.0132388
0.0131834
0.0131299
0.0130784
0.0130288
0.0129814
0.0129361
0.0128929
0.0128519
0.0128132
0.0127767
0.0127424
0.0127104
0.0126807
0.0126532
0.0126279
0.012605
0.0125842
0.0125658
0.0125495
0.0125355
0.0125237
0.0125141
0.0125066
0.0125013
0.0124981
0.012497
0.0124977
0.0125002
0.0125044
0.01251
0.0125166
0.0125238
0.012531
0.0125375
0.0125421
0.0125442
0.0161739
0.0161749
0.016176
0.0161765
0.0161761
0.0161748
0.0161724
0.016169
0.0161645
0.016159
0.0161526
0.0161453
0.0161372
0.0161283
0.0161186
0.0161082
0.0160973
0.0160857
0.0160735
0.0160608
0.0160476
0.0160339
0.0160197
0.016005
0.01599
0.0159744
0.0159585
0.0159422
0.0159254
0.0159083
0.0158907
0.0158728
0.0158544
0.0158357
0.0158167
0.0157972
0.0157774
0.0157573
0.0157368
0.015716
0.0156948
0.0156734
0.0156517
0.0156297
0.0156074
0.0155849
0.0155623
0.0155394
0.0155163
0.0154932
0.0154699
0.0154465
0.0154231
0.0153997
0.0153762
0.0153529
0.0153296
0.0153065
0.0152836
0.0152609
0.0152385
0.0152163
0.0151946
0.0151732
0.0151524
0.015132
0.0151122
0.0150931
0.0150746
0.0150568
0.0150398
0.0150237
0.0150085
0.0149942
0.0149809
0.0149687
0.0149575
0.0149475
0.0149387
0.0149311
0.0149248
0.0149197
0.014916
0.0149136
0.0149126
0.0149129
0.0149146
0.0149177
0.0149222
0.014928
0.0149351
0.0149436
0.0149533
0.0149642
0.0149762
0.0149894
0.0150035
0.0150186
0.0150345
0.0150512
0.0150685
0.0150862
0.0151044
0.0151228
0.0151414
0.0151599
0.0151782
0.0151962
0.0152136
0.0152304
0.0152464
0.0152614
0.0152752
0.0152876
0.0152986
0.0153079
0.0153154
0.0153209
0.0153243
0.0153254
0.0153241
0.0153203
0.0153139
0.0153048
0.0152929
0.0152781
0.0152604
0.0152397
0.0152161
0.0151894
0.0151596
0.015127
0.0150913
0.0150528
0.0150114
0.0149672
0.0149205
0.0148711
0.0148194
0.0147654
0.0147092
0.0146511
0.0145911
0.0145295
0.0144665
0.0144022
0.0143368
0.0142705
0.0142036
0.0141361
0.0140684
0.0140006
0.0139328
0.0138653
0.0137983
0.0137319
0.0136662
0.0136015
0.0135379
0.0134755
0.0134145
0.0133549
0.013297
0.0132407
0.0131862
0.0131336
0.0130828
0.0130341
0.0129874
0.0129428
0.0129003
0.01286
0.0128218
0.0127858
0.012752
0.0127204
0.0126911
0.0126639
0.0126389
0.0126162
0.0125956
0.0125772
0.0125611
0.012547
0.0125351
0.0125254
0.0125177
0.012512
0.0125084
0.0125067
0.0125068
0.0125086
0.0125119
0.0125165
0.0125221
0.0125283
0.0125345
0.01254
0.0125442
0.0125463
0.0161727
0.0161738
0.0161749
0.0161752
0.0161747
0.0161733
0.0161708
0.0161675
0.0161631
0.0161578
0.0161516
0.0161446
0.0161367
0.0161281
0.0161188
0.0161088
0.0160981
0.0160869
0.0160751
0.0160627
0.0160498
0.0160364
0.0160226
0.0160083
0.0159935
0.0159783
0.0159627
0.0159467
0.0159302
0.0159134
0.0158962
0.0158786
0.0158606
0.0158422
0.0158234
0.0158044
0.0157849
0.0157651
0.015745
0.0157245
0.0157038
0.0156827
0.0156613
0.0156397
0.0156179
0.0155958
0.0155735
0.015551
0.0155284
0.0155056
0.0154827
0.0154597
0.0154367
0.0154136
0.0153906
0.0153676
0.0153447
0.015322
0.0152994
0.015277
0.0152549
0.015233
0.0152116
0.0151905
0.0151698
0.0151497
0.0151301
0.015111
0.0150927
0.015075
0.0150581
0.0150419
0.0150267
0.0150123
0.0149989
0.0149865
0.0149752
0.0149649
0.0149558
0.0149478
0.0149411
0.0149355
0.0149313
0.0149284
0.0149267
0.0149264
0.0149274
0.0149297
0.0149333
0.0149383
0.0149445
0.0149519
0.0149606
0.0149704
0.0149813
0.0149933
0.0150063
0.0150201
0.0150347
0.0150501
0.0150661
0.0150825
0.0150993
0.0151163
0.0151335
0.0151506
0.0151675
0.0151841
0.0152002
0.0152157
0.0152303
0.0152439
0.0152564
0.0152677
0.0152774
0.0152856
0.0152919
0.0152964
0.0152988
0.0152989
0.0152968
0.0152922
0.0152851
0.0152754
0.0152629
0.0152476
0.0152295
0.0152085
0.0151846
0.0151578
0.0151281
0.0150954
0.0150599
0.0150216
0.0149806
0.0149369
0.0148906
0.0148419
0.0147908
0.0147375
0.0146822
0.0146249
0.014566
0.0145054
0.0144434
0.0143803
0.0143161
0.014251
0.0141853
0.0141192
0.0140528
0.0139863
0.0139199
0.0138537
0.013788
0.013723
0.0136587
0.0135953
0.013533
0.0134719
0.0134122
0.0133539
0.0132971
0.013242
0.0131886
0.0131371
0.0130874
0.0130396
0.0129939
0.0129502
0.0129085
0.0128689
0.0128315
0.0127962
0.012763
0.0127319
0.0127031
0.0126763
0.0126517
0.0126293
0.0126089
0.0125907
0.0125746
0.0125605
0.0125485
0.0125386
0.0125306
0.0125246
0.0125204
0.0125181
0.0125175
0.0125184
0.0125208
0.0125244
0.0125289
0.012534
0.0125392
0.0125442
0.0125483
0.0125509
0.016172
0.0161734
0.0161746
0.0161749
0.0161743
0.0161728
0.0161704
0.0161671
0.0161628
0.0161576
0.0161516
0.0161448
0.0161372
0.0161288
0.0161197
0.01611
0.0160996
0.0160887
0.0160771
0.0160651
0.0160525
0.0160394
0.0160258
0.0160118
0.0159974
0.0159825
0.0159672
0.0159514
0.0159353
0.0159188
0.0159018
0.0158845
0.0158668
0.0158488
0.0158304
0.0158116
0.0157924
0.015773
0.0157531
0.015733
0.0157126
0.0156919
0.0156709
0.0156496
0.0156281
0.0156064
0.0155844
0.0155623
0.01554
0.0155176
0.015495
0.0154724
0.0154497
0.015427
0.0154043
0.0153816
0.015359
0.0153366
0.0153142
0.0152921
0.0152702
0.0152486
0.0152274
0.0152064
0.015186
0.0151659
0.0151464
0.0151275
0.0151092
0.0150915
0.0150746
0.0150584
0.015043
0.0150285
0.0150149
0.0150023
0.0149907
0.0149802
0.0149707
0.0149624
0.0149552
0.0149492
0.0149445
0.0149409
0.0149387
0.0149377
0.014938
0.0149396
0.0149424
0.0149465
0.0149519
0.0149584
0.0149661
0.014975
0.0149849
0.0149958
0.0150077
0.0150205
0.015034
0.0150482
0.015063
0.0150783
0.0150939
0.0151098
0.0151257
0.0151417
0.0151574
0.0151728
0.0151878
0.0152021
0.0152156
0.0152282
0.0152396
0.0152498
0.0152586
0.0152657
0.0152712
0.0152748
0.0152763
0.0152758
0.0152729
0.0152677
0.01526
0.0152497
0.0152368
0.0152211
0.0152027
0.0151814
0.0151573
0.0151304
0.0151006
0.015068
0.0150326
0.0149945
0.0149537
0.0149103
0.0148644
0.0148161
0.0147655
0.0147128
0.0146581
0.0146016
0.0145433
0.0144836
0.0144225
0.0143602
0.0142969
0.0142329
0.0141682
0.0141031
0.0140378
0.0139723
0.013907
0.013842
0.0137775
0.0137135
0.0136504
0.0135881
0.013527
0.013467
0.0134083
0.0133511
0.0132954
0.0132413
0.0131889
0.0131383
0.0130896
0.0130427
0.0129978
0.0129549
0.012914
0.0128751
0.0128384
0.0128037
0.0127711
0.0127406
0.0127122
0.0126858
0.0126616
0.0126394
0.0126193
0.0126012
0.0125852
0.0125712
0.0125591
0.012549
0.0125408
0.0125345
0.0125299
0.0125271
0.012526
0.0125263
0.012528
0.0125309
0.0125347
0.0125392
0.0125442
0.0125491
0.0125539
0.0125574
0.0161722
0.0161738
0.0161752
0.0161755
0.0161749
0.0161734
0.016171
0.0161676
0.0161634
0.0161583
0.0161524
0.0161458
0.0161383
0.0161302
0.0161213
0.0161118
0.0161017
0.016091
0.0160797
0.0160679
0.0160556
0.0160428
0.0160296
0.0160158
0.0160017
0.015987
0.015972
0.0159566
0.0159407
0.0159245
0.0159078
0.0158908
0.0158734
0.0158557
0.0158375
0.0158191
0.0158002
0.0157811
0.0157616
0.0157418
0.0157217
0.0157013
0.0156806
0.0156597
0.0156385
0.0156171
0.0155954
0.0155736
0.0155516
0.0155295
0.0155073
0.015485
0.0154626
0.0154402
0.0154177
0.0153953
0.015373
0.0153508
0.0153287
0.0153068
0.0152851
0.0152637
0.0152425
0.0152217
0.0152014
0.0151814
0.0151619
0.015143
0.0151247
0.015107
0.01509
0.0150737
0.0150582
0.0150435
0.0150297
0.0150168
0.0150049
0.014994
0.0149842
0.0149754
0.0149678
0.0149613
0.014956
0.0149519
0.014949
0.0149474
0.0149469
0.0149478
0.0149499
0.0149532
0.0149577
0.0149633
0.0149702
0.0149781
0.0149871
0.014997
0.0150079
0.0150197
0.0150322
0.0150454
0.0150591
0.0150733
0.0150879
0.0151027
0.0151177
0.0151325
0.0151473
0.0151617
0.0151756
0.0151889
0.0152015
0.0152131
0.0152236
0.015233
0.0152409
0.0152472
0.0152519
0.0152548
0.0152556
0.0152544
0.015251
0.0152452
0.015237
0.0152263
0.0152129
0.0151969
0.0151782
0.0151567
0.0151325
0.0151054
0.0150756
0.015043
0.0150076
0.0149696
0.014929
0.0148858
0.0148402
0.0147923
0.0147421
0.0146899
0.0146357
0.0145797
0.014522
0.0144629
0.0144025
0.014341
0.0142785
0.0142152
0.0141514
0.0140871
0.0140227
0.0139582
0.0138938
0.0138298
0.0137662
0.0137032
0.013641
0.0135798
0.0135196
0.0134606
0.0134029
0.0133467
0.0132919
0.0132387
0.0131873
0.0131376
0.0130897
0.0130437
0.0129996
0.0129574
0.0129173
0.0128791
0.012843
0.0128089
0.0127769
0.0127469
0.0127189
0.012693
0.0126691
0.0126473
0.0126274
0.0126095
0.0125936
0.0125796
0.0125675
0.0125573
0.012549
0.0125424
0.0125376
0.0125344
0.0125328
0.0125327
0.0125339
0.0125364
0.0125398
0.0125441
0.012549
0.0125543
0.0125601
0.0125646
0.0161735
0.0161752
0.0161767
0.016177
0.0161763
0.0161748
0.0161724
0.016169
0.0161649
0.0161599
0.0161541
0.0161475
0.0161402
0.0161322
0.0161236
0.0161143
0.0161044
0.0160939
0.0160829
0.0160713
0.0160593
0.0160468
0.0160337
0.0160203
0.0160064
0.015992
0.0159773
0.0159621
0.0159465
0.0159306
0.0159142
0.0158975
0.0158804
0.0158629
0.0158451
0.0158269
0.0158084
0.0157895
0.0157703
0.0157508
0.015731
0.0157109
0.0156905
0.0156699
0.015649
0.0156279
0.0156066
0.0155851
0.0155634
0.0155415
0.0155196
0.0154975
0.0154754
0.0154532
0.015431
0.0154089
0.0153868
0.0153647
0.0153428
0.0153211
0.0152995
0.0152782
0.0152572
0.0152365
0.0152161
0.0151962
0.0151767
0.0151577
0.0151393
0.0151215
0.0151044
0.0150879
0.0150722
0.0150573
0.0150432
0.01503
0.0150177
0.0150064
0.0149962
0.0149869
0.0149788
0.0149718
0.0149659
0.0149612
0.0149577
0.0149553
0.0149542
0.0149543
0.0149556
0.0149581
0.0149618
0.0149667
0.0149726
0.0149796
0.0149877
0.0149968
0.0150067
0.0150175
0.0150291
0.0150413
0.0150541
0.0150674
0.0150811
0.0150949
0.0151089
0.0151229
0.0151367
0.0151502
0.0151632
0.0151757
0.0151874
0.0151982
0.015208
0.0152166
0.0152237
0.0152294
0.0152335
0.0152357
0.015236
0.0152342
0.0152303
0.015224
0.0152154
0.0152043
0.0151906
0.0151744
0.0151554
0.0151337
0.0151093
0.0150821
0.0150522
0.0150196
0.0149843
0.0149464
0.0149059
0.0148629
0.0148175
0.0147698
0.01472
0.0146681
0.0146142
0.0145587
0.0145015
0.0144429
0.0143831
0.0143221
0.0142603
0.0141977
0.0141345
0.014071
0.0140073
0.0139436
0.01388
0.0138168
0.013754
0.0136919
0.0136306
0.0135702
0.0135109
0.0134528
0.013396
0.0133406
0.0132867
0.0132344
0.0131838
0.0131349
0.0130878
0.0130426
0.0129993
0.0129579
0.0129184
0.012881
0.0128455
0.012812
0.0127805
0.0127511
0.0127236
0.0126981
0.0126746
0.012653
0.0126334
0.0126157
0.0125999
0.012586
0.012574
0.0125637
0.0125552
0.0125485
0.0125434
0.01254
0.0125381
0.0125377
0.0125386
0.0125408
0.0125441
0.0125484
0.0125535
0.0125594
0.0125662
0.0125718
0.016176
0.0161777
0.0161791
0.0161794
0.0161787
0.0161771
0.0161747
0.0161713
0.0161671
0.0161622
0.0161564
0.01615
0.0161428
0.0161349
0.0161264
0.0161173
0.0161076
0.0160974
0.0160866
0.0160752
0.0160634
0.0160511
0.0160384
0.0160252
0.0160115
0.0159974
0.0159829
0.015968
0.0159527
0.0159371
0.015921
0.0159045
0.0158877
0.0158705
0.0158529
0.015835
0.0158168
0.0157982
0.0157793
0.0157601
0.0157405
0.0157207
0.0157006
0.0156803
0.0156597
0.0156388
0.0156178
0.0155965
0.0155751
0.0155535
0.0155318
0.01551
0.0154881
0.0154661
0.0154441
0.0154221
0.0154002
0.0153783
0.0153565
0.0153349
0.0153134
0.0152922
0.0152712
0.0152504
0.0152301
0.0152101
0.0151906
0.0151715
0.0151529
0.015135
0.0151176
0.0151009
0.0150849
0.0150697
0.0150553
0.0150417
0.015029
0.0150173
0.0150065
0.0149968
0.0149881
0.0149805
0.014974
0.0149687
0.0149645
0.0149615
0.0149596
0.014959
0.0149595
0.0149612
0.0149641
0.0149681
0.0149732
0.0149794
0.0149866
0.0149948
0.0150039
0.0150138
0.0150245
0.0150359
0.0150478
0.0150602
0.015073
0.015086
0.0150992
0.0151123
0.0151253
0.0151381
0.0151504
0.0151621
0.0151731
0.0151833
0.0151924
0.0152003
0.0152069
0.015212
0.0152155
0.0152172
0.015217
0.0152148
0.0152105
0.0152039
0.0151949
0.0151835
0.0151695
0.015153
0.0151339
0.015112
0.0150875
0.0150602
0.0150303
0.0149976
0.0149624
0.0149245
0.0148841
0.0148412
0.0147959
0.0147485
0.0146988
0.0146472
0.0145937
0.0145385
0.0144817
0.0144235
0.014364
0.0143036
0.0142422
0.0141801
0.0141176
0.0140546
0.0139915
0.0139284
0.0138655
0.013803
0.013741
0.0136796
0.013619
0.0135594
0.0135009
0.0134435
0.0133875
0.0133329
0.0132798
0.0132283
0.0131784
0.0131303
0.013084
0.0130395
0.0129969
0.0129562
0.0129175
0.0128806
0.0128458
0.0128129
0.012782
0.012753
0.012726
0.012701
0.0126778
0.0126566
0.0126373
0.0126198
0.0126042
0.0125904
0.0125784
0.0125681
0.0125596
0.0125528
0.0125476
0.0125439
0.0125418
0.0125412
0.012542
0.0125441
0.0125474
0.0125518
0.0125572
0.0125638
0.0125717
0.0125783
0.0161796
0.0161812
0.0161826
0.0161828
0.016182
0.0161803
0.0161778
0.0161744
0.0161702
0.0161653
0.0161596
0.0161531
0.0161461
0.0161383
0.0161299
0.016121
0.0161114
0.0161014
0.0160908
0.0160796
0.016068
0.016056
0.0160434
0.0160305
0.0160171
0.0160032
0.015989
0.0159743
0.0159593
0.0159439
0.015928
0.0159118
0.0158953
0.0158783
0.0158611
0.0158434
0.0158254
0.0158071
0.0157885
0.0157695
0.0157503
0.0157307
0.0157109
0.0156908
0.0156704
0.0156498
0.015629
0.015608
0.0155868
0.0155654
0.0155439
0.0155223
0.0155005
0.0154787
0.0154569
0.015435
0.0154132
0.0153914
0.0153697
0.0153481
0.0153266
0.0153054
0.0152844
0.0152636
0.0152432
0.0152231
0.0152034
0.0151841
0.0151654
0.0151472
0.0151295
0.0151125
0.0150962
0.0150806
0.0150658
0.0150518
0.0150386
0.0150264
0.0150151
0.0150048
0.0149955
0.0149873
0.0149802
0.0149741
0.0149692
0.0149655
0.0149629
0.0149615
0.0149613
0.0149622
0.0149642
0.0149674
0.0149717
0.0149771
0.0149835
0.0149908
0.0149991
0.0150082
0.0150181
0.0150286
0.0150398
0.0150514
0.0150634
0.0150757
0.0150881
0.0151006
0.0151129
0.015125
0.0151366
0.0151477
0.0151582
0.0151677
0.0151763
0.0151837
0.0151898
0.0151945
0.0151975
0.0151988
0.0151983
0.0151958
0.0151911
0.0151842
0.015175
0.0151634
0.0151492
0.0151325
0.0151132
0.0150913
0.0150666
0.0150393
0.0150093
0.0149766
0.0149414
0.0149035
0.0148632
0.0148204
0.0147752
0.0147279
0.0146784
0.014627
0.0145737
0.0145187
0.0144622
0.0144043
0.0143452
0.0142851
0.0142241
0.0141625
0.0141003
0.0140379
0.0139753
0.0139127
0.0138504
0.0137884
0.0137269
0.0136662
0.0136062
0.0135473
0.0134894
0.0134327
0.0133774
0.0133235
0.0132711
0.0132203
0.0131712
0.0131238
0.0130782
0.0130344
0.0129925
0.0129525
0.0129144
0.0128782
0.0128439
0.0128116
0.0127813
0.0127528
0.0127263
0.0127016
0.0126789
0.012658
0.012639
0.0126218
0.0126064
0.0125927
0.0125808
0.0125706
0.0125621
0.0125552
0.0125499
0.0125462
0.012544
0.0125432
0.0125439
0.012546
0.0125494
0.0125541
0.0125599
0.0125672
0.0125761
0.0125837
0.0161845
0.0161859
0.0161871
0.0161872
0.0161862
0.0161844
0.0161818
0.0161783
0.0161741
0.0161691
0.0161634
0.016157
0.01615
0.0161423
0.016134
0.0161252
0.0161158
0.0161059
0.0160954
0.0160845
0.0160731
0.0160613
0.0160489
0.0160362
0.016023
0.0160094
0.0159954
0.015981
0.0159662
0.015951
0.0159354
0.0159195
0.0159032
0.0158865
0.0158694
0.0158521
0.0158343
0.0158163
0.0157979
0.0157792
0.0157601
0.0157408
0.0157212
0.0157013
0.0156812
0.0156608
0.0156402
0.0156194
0.0155984
0.0155772
0.0155558
0.0155343
0.0155127
0.015491
0.0154693
0.0154475
0.0154257
0.015404
0.0153823
0.0153606
0.0153392
0.0153178
0.0152967
0.0152758
0.0152552
0.015235
0.0152151
0.0151956
0.0151765
0.015158
0.01514
0.0151226
0.0151059
0.0150899
0.0150746
0.01506
0.0150463
0.0150335
0.0150217
0.0150107
0.0150008
0.0149919
0.014984
0.0149773
0.0149717
0.0149672
0.0149638
0.0149616
0.0149606
0.0149607
0.014962
0.0149644
0.0149679
0.0149724
0.014978
0.0149845
0.014992
0.0150004
0.0150095
0.0150193
0.0150297
0.0150406
0.0150519
0.0150636
0.0150753
0.0150872
0.0150989
0.0151104
0.0151215
0.0151321
0.015142
0.0151512
0.0151593
0.0151663
0.015172
0.0151763
0.0151791
0.0151801
0.0151793
0.0151765
0.0151716
0.0151646
0.0151552
0.0151434
0.0151291
0.0151123
0.0150929
0.0150709
0.0150462
0.0150188
0.0149888
0.0149562
0.0149209
0.0148831
0.0148428
0.0148001
0.014755
0.0147078
0.0146584
0.0146071
0.014554
0.0144992
0.0144429
0.0143852
0.0143264
0.0142665
0.0142058
0.0141445
0.0140827
0.0140206
0.0139584
0.0138963
0.0138344
0.0137728
0.0137119
0.0136516
0.0135923
0.0135338
0.0134766
0.0134205
0.0133658
0.0133125
0.0132607
0.0132106
0.0131621
0.0131154
0.0130704
0.0130273
0.012986
0.0129467
0.0129092
0.0128736
0.0128399
0.0128082
0.0127784
0.0127504
0.0127244
0.0127002
0.0126778
0.0126573
0.0126386
0.0126217
0.0126065
0.012593
0.0125812
0.0125711
0.0125626
0.0125557
0.0125504
0.0125467
0.0125444
0.0125437
0.0125444
0.0125465
0.0125501
0.012555
0.0125613
0.0125692
0.0125791
0.0125876
0.0161905
0.0161917
0.0161926
0.0161925
0.0161913
0.0161894
0.0161866
0.016183
0.0161787
0.0161736
0.0161679
0.0161615
0.0161545
0.0161469
0.0161387
0.01613
0.0161207
0.0161109
0.0161006
0.0160899
0.0160787
0.016067
0.0160549
0.0160423
0.0160294
0.016016
0.0160022
0.015988
0.0159734
0.0159585
0.0159431
0.0159274
0.0159113
0.0158949
0.0158781
0.0158609
0.0158434
0.0158256
0.0158074
0.0157889
0.0157701
0.015751
0.0157316
0.0157119
0.0156919
0.0156717
0.0156513
0.0156306
0.0156098
0.0155887
0.0155674
0.0155461
0.0155245
0.0155029
0.0154812
0.0154594
0.0154376
0.0154158
0.0153941
0.0153724
0.0153508
0.0153293
0.0153081
0.015287
0.0152661
0.0152456
0.0152254
0.0152056
0.0151862
0.0151672
0.0151488
0.015131
0.0151138
0.0150972
0.0150813
0.0150662
0.0150519
0.0150385
0.0150259
0.0150143
0.0150036
0.014994
0.0149854
0.0149779
0.0149715
0.0149662
0.014962
0.014959
0.0149572
0.0149565
0.0149569
0.0149585
0.0149612
0.0149649
0.0149697
0.0149755
0.0149822
0.0149899
0.0149982
0.0150074
0.0150171
0.0150274
0.0150381
0.0150491
0.0150603
0.0150716
0.0150828
0.0150938
0.0151045
0.0151147
0.0151243
0.015133
0.0151408
0.0151476
0.015153
0.0151571
0.0151596
0.0151605
0.0151595
0.0151566
0.0151516
0.0151444
0.0151349
0.015123
0.0151087
0.0150919
0.0150725
0.0150504
0.0150258
0.0149984
0.0149684
0.0149358
0.0149006
0.0148628
0.0148226
0.0147799
0.014735
0.0146878
0.0146386
0.0145874
0.0145344
0.0144797
0.0144235
0.014366
0.0143073
0.0142477
0.0141872
0.0141261
0.0140646
0.0140028
0.0139409
0.0138791
0.0138175
0.0137564
0.0136958
0.013636
0.0135771
0.0135191
0.0134623
0.0134068
0.0133526
0.0132999
0.0132487
0.0131991
0.0131512
0.0131051
0.0130608
0.0130182
0.0129776
0.0129388
0.0129019
0.0128669
0.0128338
0.0128026
0.0127733
0.0127459
0.0127203
0.0126966
0.0126746
0.0126545
0.0126361
0.0126194
0.0126045
0.0125912
0.0125796
0.0125696
0.0125612
0.0125544
0.0125491
0.0125454
0.0125432
0.0125425
0.0125432
0.0125455
0.0125492
0.0125545
0.0125613
0.0125697
0.0125805
0.0125897
0.0161976
0.0161985
0.0161991
0.0161987
0.0161973
0.0161951
0.0161922
0.0161884
0.016184
0.0161789
0.0161731
0.0161667
0.0161597
0.0161521
0.016144
0.0161353
0.0161261
0.0161165
0.0161063
0.0160957
0.0160846
0.0160731
0.0160612
0.0160488
0.0160361
0.0160229
0.0160093
0.0159953
0.015981
0.0159662
0.0159511
0.0159356
0.0159197
0.0159035
0.0158869
0.01587
0.0158527
0.015835
0.015817
0.0157987
0.0157801
0.0157612
0.015742
0.0157224
0.0157026
0.0156826
0.0156622
0.0156417
0.0156209
0.0155999
0.0155787
0.0155574
0.0155359
0.0155143
0.0154925
0.0154707
0.0154488
0.0154269
0.0154051
0.0153832
0.0153614
0.0153398
0.0153182
0.0152968
0.0152757
0.0152548
0.0152342
0.015214
0.0151941
0.0151747
0.0151558
0.0151374
0.0151196
0.0151024
0.0150859
0.0150701
0.0150551
0.0150409
0.0150276
0.0150152
0.0150038
0.0149933
0.0149839
0.0149756
0.0149683
0.0149622
0.0149572
0.0149533
0.0149506
0.0149491
0.0149487
0.0149494
0.0149513
0.0149543
0.0149583
0.0149633
0.0149693
0.0149762
0.0149839
0.0149924
0.0150015
0.0150112
0.0150213
0.0150318
0.0150425
0.0150534
0.0150642
0.0150748
0.0150851
0.015095
0.0151042
0.0151127
0.0151203
0.0151269
0.0151322
0.0151361
0.0151385
0.0151393
0.0151382
0.0151353
0.0151303
0.0151231
0.0151136
0.0151018
0.0150875
0.0150707
0.0150514
0.0150294
0.0150048
0.0149775
0.0149476
0.0149151
0.0148799
0.0148422
0.0148021
0.0147595
0.0147147
0.0146676
0.0146184
0.0145673
0.0145144
0.0144599
0.0144038
0.0143465
0.0142879
0.0142284
0.0141681
0.0141072
0.0140458
0.0139842
0.0139226
0.013861
0.0137997
0.0137389
0.0136787
0.0136192
0.0135606
0.0135031
0.0134467
0.0133916
0.0133379
0.0132857
0.013235
0.0131859
0.0131386
0.013093
0.0130492
0.0130073
0.0129672
0.012929
0.0128926
0.0128582
0.0128257
0.012795
0.0127662
0.0127393
0.0127142
0.0126909
0.0126693
0.0126496
0.0126315
0.0126152
0.0126005
0.0125875
0.012576
0.0125662
0.0125579
0.0125512
0.012546
0.0125423
0.0125402
0.0125395
0.0125404
0.0125428
0.0125468
0.0125523
0.0125595
0.0125685
0.01258
0.0125898
0.0162057
0.0162063
0.0162065
0.0162058
0.0162041
0.0162017
0.0161985
0.0161946
0.01619
0.0161848
0.0161789
0.0161724
0.0161654
0.0161578
0.0161497
0.0161411
0.016132
0.0161225
0.0161124
0.0161019
0.016091
0.0160797
0.0160679
0.0160557
0.0160431
0.0160301
0.0160168
0.016003
0.0159888
0.0159743
0.0159593
0.015944
0.0159284
0.0159123
0.0158959
0.0158791
0.015862
0.0158446
0.0158268
0.0158086
0.0157902
0.0157714
0.0157523
0.0157329
0.0157132
0.0156932
0.0156729
0.0156524
0.0156317
0.0156107
0.0155896
0.0155682
0.0155467
0.015525
0.0155031
0.0154812
0.0154592
0.0154371
0.015415
0.015393
0.0153709
0.0153489
0.015327
0.0153053
0.0152837
0.0152624
0.0152413
0.0152206
0.0152001
0.0151801
0.0151606
0.0151415
0.015123
0.0151051
0.0150879
0.0150713
0.0150555
0.0150406
0.0150264
0.0150132
0.0150009
0.0149895
0.0149792
0.01497
0.0149618
0.0149548
0.0149489
0.0149441
0.0149405
0.0149381
0.0149369
0.0149368
0.0149378
0.01494
0.0149432
0.0149475
0.0149527
0.0149589
0.014966
0.0149738
0.0149823
0.0149915
0.0150011
0.0150111
0.0150214
0.0150318
0.0150423
0.0150526
0.0150627
0.0150723
0.0150814
0.0150897
0.0150972
0.0151036
0.0151088
0.0151128
0.0151152
0.015116
0.015115
0.0151121
0.0151071
0.0151001
0.0150907
0.015079
0.0150649
0.0150482
0.015029
0.0150072
0.0149827
0.0149556
0.0149259
0.0148935
0.0148585
0.014821
0.0147809
0.0147385
0.0146938
0.0146468
0.0145978
0.0145468
0.014494
0.0144395
0.0143836
0.0143263
0.0142679
0.0142085
0.0141484
0.0140876
0.0140264
0.0139649
0.0139035
0.0138421
0.013781
0.0137204
0.0136605
0.0136013
0.013543
0.0134858
0.0134298
0.0133751
0.0133217
0.0132699
0.0132197
0.0131711
0.0131242
0.0130791
0.0130359
0.0129944
0.0129549
0.0129172
0.0128814
0.0128475
0.0128155
0.0127853
0.0127571
0.0127306
0.012706
0.0126831
0.012662
0.0126426
0.0126249
0.0126089
0.0125945
0.0125817
0.0125705
0.0125608
0.0125527
0.0125461
0.012541
0.0125375
0.0125354
0.0125348
0.0125358
0.0125384
0.0125425
0.0125483
0.0125559
0.0125653
0.0125774
0.0125878
0.0162149
0.0162151
0.0162149
0.0162137
0.0162117
0.016209
0.0162056
0.0162014
0.0161967
0.0161913
0.0161853
0.0161788
0.0161717
0.0161641
0.016156
0.0161475
0.0161384
0.0161289
0.016119
0.0161086
0.0160978
0.0160866
0.016075
0.016063
0.0160505
0.0160377
0.0160245
0.0160109
0.0159969
0.0159825
0.0159678
0.0159527
0.0159372
0.0159213
0.0159051
0.0158884
0.0158715
0.0158542
0.0158365
0.0158185
0.0158001
0.0157814
0.0157624
0.0157431
0.0157235
0.0157036
0.0156833
0.0156629
0.0156421
0.0156211
0.0155999
0.0155784
0.0155568
0.0155349
0.0155129
0.0154908
0.0154686
0.0154462
0.0154239
0.0154014
0.015379
0.0153566
0.0153343
0.0153121
0.01529
0.0152681
0.0152464
0.0152251
0.015204
0.0151833
0.015163
0.0151432
0.0151239
0.0151052
0.0150871
0.0150696
0.015053
0.0150371
0.015022
0.0150078
0.0149945
0.0149822
0.0149709
0.0149607
0.0149516
0.0149435
0.0149367
0.0149309
0.0149264
0.0149231
0.0149209
0.0149199
0.0149201
0.0149214
0.0149239
0.0149274
0.0149319
0.0149374
0.0149438
0.0149511
0.014959
0.0149676
0.0149768
0.0149864
0.0149963
0.0150064
0.0150165
0.0150266
0.0150365
0.015046
0.0150549
0.0150632
0.0150706
0.0150771
0.0150824
0.0150863
0.0150889
0.0150898
0.015089
0.0150863
0.0150815
0.0150747
0.0150655
0.0150541
0.0150402
0.0150238
0.0150049
0.0149833
0.0149591
0.0149323
0.0149027
0.0148706
0.0148358
0.0147985
0.0147587
0.0147165
0.0146719
0.0146251
0.0145762
0.0145254
0.0144728
0.0144184
0.0143626
0.0143055
0.0142472
0.0141879
0.0141278
0.0140672
0.0140061
0.0139448
0.0138835
0.0138222
0.0137614
0.0137009
0.0136412
0.0135822
0.0135242
0.0134673
0.0134115
0.0133571
0.0133042
0.0132527
0.0132029
0.0131547
0.0131083
0.0130636
0.0130208
0.0129798
0.0129408
0.0129036
0.0128683
0.0128349
0.0128034
0.0127737
0.0127459
0.01272
0.0126958
0.0126733
0.0126526
0.0126336
0.0126163
0.0126006
0.0125865
0.012574
0.012563
0.0125535
0.0125456
0.0125392
0.0125342
0.0125307
0.0125288
0.0125283
0.0125294
0.0125321
0.0125365
0.0125425
0.0125503
0.0125602
0.0125727
0.0125835
0.016225
0.0162248
0.016224
0.0162224
0.0162201
0.016217
0.0162133
0.0162089
0.016204
0.0161984
0.0161923
0.0161857
0.0161785
0.0161709
0.0161628
0.0161543
0.0161453
0.0161358
0.016126
0.0161157
0.016105
0.0160939
0.0160824
0.0160705
0.0160582
0.0160456
0.0160325
0.0160191
0.0160052
0.015991
0.0159764
0.0159615
0.0159461
0.0159304
0.0159143
0.0158978
0.015881
0.0158638
0.0158462
0.0158283
0.01581
0.0157914
0.0157724
0.0157531
0.0157335
0.0157136
0.0156933
0.0156728
0.015652
0.0156309
0.0156095
0.0155879
0.0155661
0.015544
0.0155218
0.0154993
0.0154768
0.0154541
0.0154313
0.0154085
0.0153856
0.0153627
0.0153398
0.015317
0.0152943
0.0152717
0.0152494
0.0152272
0.0152054
0.0151839
0.0151627
0.015142
0.0151218
0.0151022
0.0150831
0.0150647
0.015047
0.01503
0.0150139
0.0149986
0.0149843
0.0149709
0.0149585
0.0149472
0.014937
0.014928
0.01492
0.0149133
0.0149078
0.0149034
0.0149003
0.0148984
0.0148977
0.0148981
0.0148997
0.0149025
0.0149062
0.0149111
0.0149168
0.0149234
0.0149309
0.014939
0.0149477
0.0149569
0.0149665
0.0149763
0.0149862
0.0149961
0.0150058
0.0150152
0.0150242
0.0150325
0.01504
0.0150465
0.015052
0.0150561
0.0150589
0.0150601
0.0150595
0.0150571
0.0150527
0.0150462
0.0150374
0.0150264
0.0150129
0.0149969
0.0149783
0.0149571
0.0149333
0.0149068
0.0148777
0.0148459
0.0148115
0.0147744
0.0147349
0.014693
0.0146487
0.0146022
0.0145535
0.0145029
0.0144504
0.0143963
0.0143406
0.0142836
0.0142255
0.0141663
0.0141064
0.0140458
0.0139849
0.0139237
0.0138625
0.0138014
0.0137407
0.0136804
0.0136208
0.0135621
0.0135043
0.0134475
0.0133921
0.0133379
0.0132853
0.0132341
0.0131846
0.0131368
0.0130908
0.0130465
0.0130041
0.0129636
0.012925
0.0128882
0.0128534
0.0128205
0.0127894
0.0127603
0.0127329
0.0127074
0.0126837
0.0126616
0.0126414
0.0126227
0.0126058
0.0125904
0.0125766
0.0125643
0.0125536
0.0125444
0.0125366
0.0125303
0.0125255
0.0125221
0.0125203
0.01252
0.0125212
0.012524
0.0125285
0.0125348
0.0125428
0.0125529
0.0125658
0.0125769
0.016236
0.0162353
0.016234
0.0162319
0.0162291
0.0162257
0.0162217
0.016217
0.0162118
0.0162061
0.0161998
0.0161931
0.0161859
0.0161782
0.0161701
0.0161615
0.0161525
0.0161431
0.0161333
0.0161231
0.0161125
0.0161015
0.0160902
0.0160784
0.0160663
0.0160537
0.0160408
0.0160275
0.0160138
0.0159997
0.0159852
0.0159704
0.0159552
0.0159396
0.0159236
0.0159072
0.0158904
0.0158733
0.0158558
0.0158379
0.0158197
0.0158011
0.0157821
0.0157628
0.0157432
0.0157232
0.0157028
0.0156822
0.0156612
0.0156399
0.0156184
0.0155965
0.0155744
0.015552
0.0155295
0.0155067
0.0154837
0.0154605
0.0154373
0.0154138
0.0153904
0.0153668
0.0153433
0.0153198
0.0152963
0.015273
0.0152498
0.0152268
0.015204
0.0151815
0.0151594
0.0151377
0.0151164
0.0150957
0.0150755
0.015056
0.0150371
0.015019
0.0150017
0.0149853
0.0149697
0.0149552
0.0149416
0.0149291
0.0149177
0.0149075
0.0148984
0.0148906
0.0148839
0.0148785
0.0148744
0.0148714
0.0148698
0.0148693
0.0148701
0.014872
0.014875
0.0148791
0.0148842
0.0148902
0.0148971
0.0149047
0.014913
0.0149219
0.0149311
0.0149407
0.0149505
0.0149602
0.0149699
0.0149793
0.0149883
0.0149967
0.0150044
0.0150111
0.0150168
0.0150213
0.0150244
0.015026
0.0150258
0.0150238
0.0150199
0.0150139
0.0150057
0.0149951
0.0149821
0.0149667
0.0149487
0.014928
0.0149047
0.0148787
0.0148501
0.0148188
0.0147848
0.0147483
0.0147092
0.0146676
0.0146237
0.0145775
0.0145292
0.0144789
0.0144267
0.0143728
0.0143174
0.0142606
0.0142026
0.0141437
0.0140839
0.0140235
0.0139627
0.0139017
0.0138406
0.0137796
0.013719
0.0136589
0.0135995
0.0135409
0.0134832
0.0134267
0.0133714
0.0133175
0.0132651
0.0132142