/*--------------------------------*- C++ -*----------------------------------*\
  =========                 |
  \\      /  F ield         | OpenFOAM: The Open Source CFD Toolbox
   \\    /   O peration     | Website:  https://openfoam.org
    \\  /    A nd           | Version:  6
     \\/     M anipulation  |
\*---------------------------------------------------------------------------*/
FoamFile
{
    version     2.0;
    format      ascii;
    class       volScalarField;
    location    "0";
    object      P_rec;
}
// * * * * * * * * * * * * * * * * * * * * * * * * * * * * * * * * * * * * * //

dimensions      [0 2 -2 0 0 0 0];

internalField   nonuniform List<scalar> 
13046
(
0.287145
0.287144
0.310746
0.29077
0.304828
0.293109
0.28358
0.294901
0.308113
0.214371
0.186076
0.311953
0.280556
0.278653
0.309002
0.230722
0.31445
0.193431
0.302501
0.30271
0.29001
0.228344
0.314253
0.192967
0.290193
0.296722
0.305565
0.276854
0.277604
0.312058
0.289383
0.280016
0.308525
0.295051
0.305795
0.293818
0.294538
0.305587
0.296929
0.292563
0.310757
0.273776
0.295843
0.303743
0.299856
0.295039
0.299542
0.302161
0.283117
0.287306
0.310901
0.304701
0.295401
0.257058
0.309139
0.251246
0.298387
0.22564
0.263426
0.316151
0.259744
0.278751
0.308012
0.311325
0.227837
0.237848
0.267776
0.228172
0.315152
0.271515
0.23268
0.314405
0.217525
0.259915
0.316637
0.301939
0.308052
0.285146
0.317341
0.251484
0.214969
0.287498
0.295892
0.305433
0.311488
0.219091
0.232077
0.230092
0.30901
0.243218
0.305355
0.216764
0.25054
0.261496
0.256481
0.260176
0.256058
0.310626
0.31189
0.308588
0.230016
0.250236
0.294136
0.301543
0.300523
0.303288
0.259178
0.305518
0.294915
0.310699
0.264821
0.192291
0.311682
0.148369
0.282925
0.284195
0.307033
0.257256
0.261078
0.244746
0.312589
0.254454
0.311613
0.210201
0.174982
0.312483
0.271857
0.262892
0.312694
0.290144
0.310702
0.273808
0.304294
0.220686
0.261316
0.247662
0.250123
0.310475
0.286583
0.277818
0.308283
0.271786
0.298409
0.305514
0.295104
0.307174
0.264642
0.302532
0.266048
0.308483
0.25873
0.271355
0.308317
0.306628
0.274883
0.301441
0.299049
0.248637
0.294671
0.246803
0.301566
0.303153
0.272106
0.293568
0.302734
0.21211
0.310906
0.192295
0.199966
0.312022
0.156966
0.245731
0.241924
0.311575
0.28835
0.258896
0.312951
0.273386
0.301428
0.297101
0.310687
0.207942
0.214161
0.289549
0.264481
0.309742
0.3056
0.270341
0.300802
0.275606
0.298402
0.304241
0.276899
0.311087
0.273549
0.270716
0.310403
0.228501
0.309916
0.228156
0.306258
0.228549
0.259385
0.218957
0.244063
0.305997
0.306073
0.246567
0.292281
0.27795
0.252957
0.317232
0.213288
0.232092
0.217527
0.307469
0.291635
0.305149
0.298554
0.279683
0.278979
0.311547
0.305816
0.225175
0.264014
0.274837
0.280785
0.311309
0.310777
0.175348
0.200284
0.29408
0.245763
0.303376
0.224427
0.251275
0.306771
0.256971
0.294315
0.304454
0.270589
0.263801
0.313797
0.281062
0.22931
0.301408
0.24159
0.291796
0.301798
0.310101
0.176295
0.195133
0.294604
0.312545
0.26067
0.199832
0.312746
0.129463
0.302034
0.291201
0.300804
0.26045
0.261219
0.291129
0.294431
0.305796
0.304477
0.315292
0.246905
0.207787
0.274727
0.267603
0.311608
0.239562
0.283074
0.303475
0.251451
0.247362
0.311676
0.29803
0.295818
0.304361
0.251964
0.291623
0.30388
0.275146
0.26043
0.312629
0.274901
0.272627
0.294915
0.310849
0.254821
0.25057
0.285461
0.304677
0.245684
0.311597
0.244392
0.298768
0.30747
0.265932
0.300794
0.243956
0.297388
0.263587
0.245826
0.312362
0.29444
0.306473
0.25521
0.259146
0.256683
0.241052
0.312938
0.238844
0.313882
0.310768
0.21244
0.21833
0.264542
0.258208
0.312601
0.116771
0.311084
0.182089
0.285331
0.30094
0.298495
0.264627
0.281585
0.307889
0.310527
0.233959
0.236047
0.308337
0.24605
0.297897
0.273178
0.228289
0.303018
0.289214
0.308741
0.262099
0.275883
0.310042
0.286763
0.308143
0.236479
0.314073
0.202138
0.310417
0.240993
0.291961
0.257991
0.272826
0.309626
0.268939
0.295348
0.306441
0.261291
0.302547
0.299924
0.287557
0.288741
0.308184
0.297369
0.246688
0.300777
0.223973
0.233904
0.308684
0.274087
0.228549
0.304672
0.275733
0.313162
0.241325
0.254458
0.257992
0.232778
0.22544
0.313364
0.313728
0.311667
0.122712
0.187251
0.20406
0.313226
0.135438
0.25778
0.289453
0.304
0.310169
0.226511
0.21853
0.269215
0.266641
0.243446
0.239751
0.315223
0.314061
0.306063
0.222326
0.204819
0.196553
0.313408
0.117745
0.290793
0.300564
0.304393
0.193177
0.134823
0.312247
0.284664
0.260401
0.311103
0.215299
0.214099
0.309929
0.12722
0.310392
0.166693
0.294532
0.308728
0.277072
0.285736
0.305002
0.303239
0.212748
0.313181
0.170086
0.282284
0.303135
0.303129
0.292979
0.300824
0.303916
0.296964
0.239192
0.305702
0.281893
0.308618
0.300486
0.286938
0.29921
0.299316
0.279233
0.243727
0.312805
0.313536
0.313185
0.195226
0.195716
0.222816
0.221085
0.217623
0.23038
0.308632
0.316909
0.27442
0.232748
0.290978
0.309244
0.266568
0.239202
0.291666
0.298932
0.160936
0.308554
0.174613
0.30613
0.215458
0.242928
0.202769
0.311833
0.168118
0.310397
0.116445
0.166333
0.0987587
0.310913
0.175628
0.2782
0.248358
0.305841
0.200498
0.306654
0.191279
0.242877
0.250941
0.310237
0.225501
0.315002
0.169334
0.281116
0.307684
0.29301
0.230174
0.306247
0.20896
0.240604
0.297942
0.29437
0.278939
0.239817
0.305035
0.310436
0.0690966
0.153571
0.130357
0.310964
0.17588
0.285075
0.307853
0.292013
0.216503
0.204492
0.307634
0.306666
0.198435
0.217658
0.226903
0.311067
0.216611
0.314499
0.21317
0.243069
0.28276
0.239334
0.314899
0.23182
0.262833
0.316243
0.316087
0.239561
0.192577
0.28097
0.278358
0.266096
0.261816
0.31171
0.312986
0.283693
0.266343
0.311648
0.272469
0.238289
0.316849
0.27672
0.233743
0.304478
0.226845
0.21753
0.309007
0.305531
0.234312
0.26652
0.0998336
0.310992
0.181281
0.293576
0.291782
0.310357
0.277479
0.311053
0.281395
0.27878
0.278922
0.313794
0.246189
0.314273
0.254989
0.135299
0.308687
0.167714
0.219446
0.20852
0.308062
0.289472
0.308109
0.256561
0.285728
0.232929
0.301359
0.314693
0.216264
0.246604
0.153515
0.18726
0.31056
0.16584
0.18937
0.310038
0.267133
0.245216
0.314988
0.300101
0.304109
0.269696
0.223571
0.311406
0.205882
0.275541
0.242656
0.307418
0.312752
0.23214
0.243168
0.281706
0.314816
0.254762
0.259605
0.297424
0.301848
0.293856
0.310198
0.269014
0.311089
0.204191
0.218128
0.252068
0.2416
0.312592
0.295473
0.308714
0.278932
0.234323
0.316001
0.182884
0.283851
0.276629
0.311848
0.278387
0.296241
0.305487
0.282286
0.244448
0.304594
0.212089
0.314612
0.148203
0.216427
0.315106
0.15125
0.31334
0.226889
0.243567
0.255047
0.30264
0.300114
0.314617
0.135195
0.205606
0.309768
0.243486
0.238149
0.309439
0.108562
0.161636
0.17145
0.0875523
0.31172
0.315599
0.199919
0.240108
0.310643
0.189158
0.206996
0.229861
0.233504
0.312416
0.201588
0.312462
0.212345
0.235322
0.249363
0.309241
0.302259
0.290569
0.231513
0.294031
0.306973
0.285742
0.237837
0.259359
0.307981
0.307201
0.239534
0.264773
0.24405
0.316416
0.195833
0.277252
0.240257
0.315208
0.28129
0.257293
0.310548
0.249693
0.271474
0.309616
0.247182
0.270447
0.308693
0.296779
0.304643
0.283713
0.277932
0.25612
0.315319
0.305594
0.235941
0.207212
0.185292
0.308921
0.171251
0.179567
0.308593
0.172469
0.288764
0.311895
0.269038
0.146132
0.310067
0.179894
0.248468
0.313226
0.231299
0.309507
0.150598
0.173422
0.291486
0.30391
0.29624
0.271096
0.277459
0.310244
0.302804
0.256383
0.29907
0.306584
0.206198
0.196719
0.275197
0.24353
0.306013
0.315046
0.230213
0.18087
0.265036
0.27365
0.312041
0.295346
0.307232
0.287304
0.203416
0.201389
0.30833
0.311626
0.234729
0.238133
0.209311
0.204784
0.312779
0.31263
0.158436
0.150432
0.265118
0.291006
0.307098
0.281844
0.252095
0.304755
0.280111
0.295159
0.308176
0.184615
0.190446
0.188774
0.308772
0.189684
0.307651
0.256604
0.260878
0.311849
0.201422
0.195887
0.195811
0.187462
0.30922
0.309003
0.252136
0.286367
0.307495
0.271062
0.285575
0.308696
0.221244
0.315142
0.165429
0.268534
0.284205
0.30728
0.278826
0.291001
0.306288
0.211518
0.313954
0.15785
0.266199
0.264207
0.30998
0.300939
0.235988
0.297837
0.283046
0.24784
0.314249
0.268953
0.302714
0.220986
0.310526
0.0813834
0.159464
0.265088
0.280808
0.308762
0.224111
0.313438
0.182662
0.312865
0.239531
0.287455
0.182089
0.313076
0.105162
0.301759
0.299325
0.302727
0.273043
0.305674
0.271258
0.282135
0.296465
0.30548
0.296502
0.300337
0.306598
0.277165
0.30931
0.27406
0.268325
0.287232
0.309718
0.271708
0.289662
0.308939
0.307535
0.18072
0.181841
0.286295
0.270586
0.309675
0.207057
0.197749
0.310201
0.248561
0.244742
0.264828
0.257985
0.30908
0.30874
0.285514
0.278037
0.310562
0.272159
0.249394
0.313319
0.256988
0.270197
0.310791
0.296872
0.292478
0.303866
0.242551
0.262074
0.308413
0.29321
0.305919
0.2864
0.256371
0.28249
0.308083
0.271487
0.255972
0.312559
0.295836
0.296727
0.288883
0.307708
0.288001
0.307028
0.297866
0.302893
0.301233
0.284422
0.310893
0.277149
0.281615
0.278976
0.270611
0.271644
0.311927
0.310189
0.313602
0.217617
0.244398
0.296504
0.241779
0.302621
0.314481
0.313705
0.2116
0.216847
0.239625
0.238204
0.293056
0.310625
0.250103
0.297895
0.302977
0.296665
0.241773
0.255336
0.309033
0.291604
0.309651
0.274498
0.269266
0.254193
0.312774
0.252609
0.25292
0.223815
0.315025
0.229767
0.313954
0.251481
0.259064
0.310184
0.186842
0.116122
0.313091
0.310392
0.243856
0.288944
0.284705
0.286298
0.312991
0.24331
0.315155
0.246565
0.237212
0.271516
0.305508
0.274561
0.252826
0.314259
0.291382
0.309155
0.249526
0.285749
0.286853
0.310748
0.315031
0.257364
0.25537
0.284705
0.315069
0.250372
0.252322
0.263737
0.31033
0.29559
0.305867
0.286757
0.216724
0.312839
0.17549
0.290119
0.311416
0.245604
0.270545
0.266468
0.256199
0.252648
0.311161
0.313688
0.31309
0.184016
0.22116
0.221174
0.314471
0.171599
0.216334
0.31365
0.167678
0.248691
0.313834
0.226447
0.277085
0.258086
0.313651
0.24911
0.305368
0.329151
0.25174
0.331807
0.171704
0.323252
0.258548
0.266375
0.327796
0.326512
0.262455
0.255529
0.330452
0.311575
0.265393
0.251592
0.307579
0.307311
0.322664
0.315794
0.30229
0.326444
0.316297
0.331345
0.306868
0.335011
0.267113
0.319801
0.248899
0.271799
0.321238
0.316573
0.31329
0.281184
0.321783
0.329368
0.32754
0.260075
0.284509
0.300009
0.311835
0.28623
0.328687
0.310462
0.307455
0.310204
0.298209
0.263384
0.28889
0.327363
0.314473
0.267102
0.311093
0.270138
0.32603
0.324462
0.317494
0.29953
0.328004
0.28849
0.287902
0.33066
0.263656
0.319786
0.324509
0.318681
0.319873
0.3274
0.308566
0.26951
0.278044
0.286162
0.32476
0.273988
0.312022
0.295923
0.279638
0.323501
0.327514
0.305013
0.317407
0.262663
0.268517
0.309145
0.326401
0.30889
0.250953
0.312938
0.327367
0.269893
0.328851
0.332245
0.313108
0.259167
0.144631
0.280465
0.300147
0.259016
0.267906
0.323922
0.326954
0.312795
0.317995
0.265874
0.243839
0.26313
0.274068
0.28183
0.329007
0.326957
0.321358
0.270621
0.280161
0.287039
0.31193
0.312685
0.252197
0.26452
0.304893
0.314151
0.322447
0.314341
0.324874
0.312341
0.285971
0.266078
0.325719
0.228815
0.324392
0.268499
0.324831
0.263565
0.203726
0.242445
0.326954
0.310281
0.255025
0.279896
0.321707
0.261332
0.326258
0.295854
0.278307
0.317098
0.31061
0.265227
0.327996
0.280849
0.312856
0.262617
0.308796
0.260627
0.331708
0.327686
0.30941
0.325725
0.326153
0.328246
0.297234
0.283882
0.2766
0.315972
0.228598
0.277956
0.26486
0.316083
0.307111
0.324034
0.325199
0.317058
0.325605
0.332397
0.328084
0.26325
0.265628
0.26479
0.32789
0.267763
0.261708
0.222175
0.262439
0.308502
0.307518
0.318523
0.326223
0.326688
0.299379
0.329982
0.304367
0.313068
0.196496
0.313682
0.285155
0.266693
0.323405
0.321794
0.282606
0.299109
0.316912
0.320002
0.247794
0.280623
0.324272
0.330044
0.302065
0.268461
0.300229
0.318512
0.306231
0.291556
0.263725
0.219051
0.27481
0.287544
0.292633
0.265761
0.254218
0.326539
0.308863
0.266173
0.312133
0.269645
0.270715
0.322594
0.323153
0.263943
0.262509
0.238764
0.322989
0.291161
0.305817
0.321067
0.312412
0.268568
0.319641
0.298242
0.259584
0.28677
0.327455
0.317449
0.318749
0.331285
0.311741
0.262367
0.25647
0.311705
0.311559
0.268885
0.268469
0.319817
0.324682
0.328426
0.318818
0.265186
0.308667
0.297471
0.317444
0.310248
0.280609
0.31152
0.300381
0.214024
0.2686
0.28164
0.267459
0.284199
0.322906
0.311602
0.312594
0.324804
0.260884
0.30907
0.292228
0.311452
0.303686
0.303717
0.31918
0.263102
0.250012
0.306952
0.261969
0.257902
0.31792
0.20431
0.259106
0.329419
0.321586
0.27588
0.287579
0.272609
0.319625
0.263049
0.214914
0.2633
0.316375
0.313888
0.320099
0.169772
0.26079
0.330567
0.298806
0.244387
0.247609
0.262349
0.264677
0.259755
0.309577
0.324036
0.273068
0.261335
0.286058
0.290887
0.313189
0.238211
0.324575
0.31475
0.205887
0.280036
0.267447
0.27054
0.322287
0.309198
0.323918
0.299868
0.261177
0.301884
0.315326
0.317369
0.304591
0.328731
0.325309
0.295845
0.320109
0.310937
0.283703
0.263891
0.299096
0.256962
0.310976
0.297634
0.27011
0.264775
0.265076
0.262608
0.2534
0.329663
0.269969
0.282438
0.319885
0.320733
0.269929
0.272585
0.330636
0.296329
0.200557
0.299611
0.27335
0.265446
0.330646
0.29205
0.290788
0.318347
0.268076
0.313318
0.276156
0.319358
0.30261
0.290725
0.149126
0.270062
0.27076
0.299777
0.307731
0.308371
0.318499
0.328009
0.259911
0.286745
0.262246
0.231885
0.259765
0.329227
0.298735
0.300589
0.275028
0.311602
0.262001
0.251127
0.260909
0.272478
0.289196
0.332538
0.293539
0.307058
0.32131
0.327184
0.316747
0.330842
0.252042
0.286106
0.265593
0.316227
0.318947
0.324913
0.296799
0.305195
0.267332
0.309653
0.273339
0.235142
0.322732
0.302347
0.232238
0.268558
0.275025
0.264848
0.277419
0.302937
0.311698
0.261365
0.284464
0.263862
0.280774
0.269069
0.297502
0.255649
0.266797
0.328104
0.326561
0.325778
0.306493
0.315548
0.198897
0.32536
0.316404
0.256796
0.329462
0.186872
0.32397
0.275412
0.311004
0.296946
0.324019
0.309586
0.260094
0.321305
0.2587
0.331514
0.312625
0.28569
0.286356
0.249387
0.291355
0.332596
0.289438
0.317937
0.322997
0.262328
0.242126
0.323728
0.193847
0.307231
0.311406
0.266008
0.32834
0.226691
0.221778
0.326227
0.299873
0.324142
0.320127
0.306645
0.317918
0.327266
0.327054
0.32601
0.322604
0.262801
0.287201
0.305153
0.32904
0.292047
0.183958
0.321495
0.276409
0.308925
0.285141
0.328781
0.314867
0.286019
0.328016
0.307642
0.32901
0.268326
0.327184
0.3054
0.323542
0.317694
0.327007
0.284553
0.316419
0.268376
0.26432
0.30945
0.291863
0.311078
0.249221
0.190914
0.265191
0.295522
0.315961
0.30167
0.333082
0.285981
0.270512
0.308197
0.265242
0.327278
0.251761
0.305222
0.317868
0.33037
0.303799
0.32109
0.259243
0.308617
0.328864
0.281938
0.256384
0.309975
0.290115
0.323275
0.327689
0.289578
0.269607
0.308951
0.266287
0.261767
0.326046
0.322202
0.317997
0.255391
0.319788
0.315541
0.327048
0.262737
0.322601
0.315868
0.319411
0.308442
0.255255
0.266253
0.283514
0.177394
0.32279
0.312343
0.311444
0.327326
0.326029
0.29925
0.305789
0.314926
0.326493
0.326352
0.316588
0.30403
0.304311
0.323861
0.307555
0.289931
0.280775
0.288491
0.297329
0.314992
0.280759
0.322798
0.326385
0.260298
0.327848
0.274668
0.265349
0.280398
0.324496
0.30278
0.316334
0.313664
0.326054
0.307487
0.314912
0.32025
0.269977
0.264903
0.262502
0.263719
0.253083
0.136436
0.26884
0.259606
0.315795
0.259515
0.28222
0.313491
0.299984
0.266832
0.281866
0.280423
0.145475
0.326747
0.30242
0.311688
0.264076
0.300246
0.305025
0.254584
0.319125
0.270677
0.321274
0.293893
0.327563
0.253065
0.214687
0.279847
0.298107
0.302108
0.316422
0.215953
0.310364
0.287053
0.265661
0.256989
0.271435
0.280137
0.324057
0.248847
0.323645
0.327295
0.310023
0.285514
0.327657
0.264461
0.138723
0.310389
0.265476
0.254166
0.328094
0.325727
0.310302
0.320719
0.294461
0.321749
0.328013
0.310358
0.292517
0.322022
0.330437
0.324098
0.318122
0.307199
0.319574
0.282421
0.2597
0.327239
0.330558
0.327941
0.309756
0.290979
0.280198
0.325672
0.322052
0.116962
0.310932
0.309102
0.264634
0.314347
0.305819
0.31881
0.317088
0.316774
0.284992
0.324356
0.329644
0.314362
0.327122
0.330384
0.218226
0.266048
0.304297
0.264604
0.21812
0.264837
0.309126
0.32743
0.268822
0.304611
0.254236
0.290764
0.316833
0.311102
0.268987
0.261607
0.278875
0.300671
0.27837
0.268176
0.312273
0.318287
0.321322
0.258478
0.322273
0.280982
0.273482
0.317169
0.326298
0.316275
0.313257
0.266606
0.326536
0.261537
0.330422
0.325111
0.32681
0.328975
0.265059
0.264523
0.310231
0.256536
0.280235
0.270056
0.286534
0.259682
0.312458
0.309273
0.259444
0.329295
0.297702
0.30424
0.311031
0.324606
0.321177
0.322611
0.30799
0.261014
0.329635
0.260281
0.32201
0.255554
0.316362
0.326758
0.327692
0.321202
0.330751
0.310006
0.247904
0.263231
0.310322
0.273154
0.326874
0.251388
0.25354
0.302369
0.29319
0.296561
0.258934
0.309666
0.3248
0.32052
0.192715
0.294314
0.24195
0.259767
0.309066
0.301915
0.307688
0.301003
0.328582
0.263439
0.321468
0.308748
0.253185
0.323934
0.299547
0.318835
0.307372
0.305432
0.26344
0.284746
0.30657
0.323537
0.281726
0.308375
0.30819
0.327019
0.299622
0.307765
0.277788
0.317103
0.256908
0.262451
0.236938
0.321022
0.260047
0.269963
0.265675
0.271844
0.328249
0.303346
0.320161
0.327259
0.319296
0.25149
0.315807
0.265295
0.304508
0.322449
0.29141
0.263031
0.300006
0.310908
0.261923
0.291686
0.233135
0.263416
0.316477
0.243296
0.274382
0.330147
0.276524
0.280596
0.309502
0.324166
0.298638
0.266462
0.319146
0.269963
0.278136
0.308272
0.298613
0.316717
0.320285
0.331965
0.297725
0.326748
0.319366
0.325368
0.322298
0.322175
0.255456
0.286752
0.308486
0.259979
0.320569
0.329691
0.327705
0.314911
0.263043
0.260596
0.309893
0.329561
0.258104
0.327728
0.322596
0.324602
0.265908
0.270547
0.270194
0.245446
0.314266
0.259252
0.32116
0.269423
0.322594
0.273643
0.311148
0.257839
0.313864
0.319394
0.319851
0.298336
0.321062
0.327096
0.328838
0.318564
0.296151
0.326823
0.318688
0.278797
0.285422
0.310448
0.270144
0.331519
0.302204
0.319288
0.32496
0.327219
0.291434
0.230752
0.322193
0.301231
0.291903
0.308816
0.316656
0.326559
0.325056
0.300338
0.318656
0.257592
0.28009
0.309984
0.324573
0.312201
0.317298
0.298591
0.329832
0.312513
0.292194
0.328241
0.316891
0.265363
0.29158
0.324764
0.298354
0.25858
0.290222
0.325315
0.295508
0.310151
0.326702
0.33072
0.327881
0.316073
0.260724
0.322714
0.27803
0.297335
0.329
0.312911
0.261286
0.25804
0.296222
0.322356
0.279388
0.266196
0.324666
0.295512
0.31522
0.325855
0.261236
0.253924
0.297041
0.3269
0.330064
0.313225
0.310144
0.241108
0.311365
0.291312
0.314442
0.327399
0.331888
0.268047
0.258083
0.310293
0.31899
0.327743
0.328177
0.322561
0.293549
0.281101
0.254936
0.258809
0.318283
0.317361
0.218864
0.27641
0.318326
0.305838
0.265287
0.262741
0.315233
0.28395
0.314246
0.321457
0.31449
0.326059
0.329884
0.307752
0.321857
0.300117
0.299402
0.295917
0.321612
0.288845
0.322859
0.217377
0.305084
0.211848
0.300295
0.327083
0.312559
0.327544
0.331236
0.326847
0.27757
0.302585
0.310549
0.249061
0.325905
0.31211
0.28885
0.321167
0.175864
0.276716
0.310882
0.323844
0.328623
0.257459
0.266109
0.308498
0.322012
0.226482
0.286973
0.28758
0.227343
0.263817
0.311144
0.266222
0.310772
0.262547
0.314234
0.320856
0.176303
0.307764
0.30647
0.277656
0.264222
0.310364
0.275466
0.303259
0.276034
0.302936
0.298557
0.298095
0.310574
0.329767
0.287048
0.261412
0.293437
0.256787
0.264879
0.308907
0.245931
0.293514
0.27899
0.308496
0.32215
0.310458
0.303267
0.211234
0.314288
0.311554
0.293604
0.317535
0.30553
0.302268
0.232202
0.219204
0.320853
0.271459
0.30851
0.32448
0.276096
0.316814
0.214156
0.322955
0.299057
0.329054
0.288296
0.302944
0.308708
0.265679
0.283442
0.297047
0.332325
0.254139
0.265951
0.302587
0.327792
0.317364
0.23802
0.292641
0.301434
0.310043
0.292928
0.32862
0.32704
0.327975
0.328516
0.31969
0.288524
0.275362
0.3257
0.286591
0.30324
0.239936
0.26444
0.280272
0.262928
0.319534
0.223208
0.323081
0.28733
0.321481
0.30128
0.319007
0.32798
0.302904
0.322603
0.326455
0.317858
0.309473
0.326706
0.290004
0.310612
0.268787
0.27831
0.328789
0.224159
0.318386
0.323367
0.308694
0.309631
0.296654
0.318439
0.314401
0.319405
0.25809
0.269743
0.312346
0.315105
0.239762
0.324826
0.267899
0.310771
0.262378
0.300904
0.310385
0.32699
0.325852
0.262926
0.317546
0.307712
0.303017
0.328857
0.246816
0.262475
0.325738
0.256789
0.293488
0.329182
0.324606
0.318611
0.265432
0.2758
0.270408
0.278364
0.250281
0.307148
0.298482
0.30243
0.271758
0.310804
0.301806
0.282704
0.25129
0.302965
0.306373
0.268613
0.327502
0.327991
0.25901
0.32282
0.215029
0.273283
0.235076
0.26844
0.321074
0.306024
0.307296
0.297169
0.320058
0.324428
0.318467
0.322272
0.252723
0.294571
0.294171
0.307089
0.265585
0.327151
0.303037
0.286255
0.320479
0.327426
0.274739
0.320981
0.260111
0.319409
0.318258
0.320933
0.247381
0.317695
0.302436
0.32049
0.310617
0.27816
0.26592
0.277071
0.327266
0.328974
0.326298
0.301255
0.314033
0.323434
0.306611
0.313428
0.287714
0.275848
0.310259
0.327375
0.264446
0.330788
0.310159
0.332364
0.319384
0.325405
0.306992
0.305076
0.328236
0.202801
0.322481
0.23429
0.324258
0.329048
0.310606
0.288042
0.293418
0.311171
0.23788
0.250623
0.297276
0.259321
0.32255
0.265726
0.271318
0.247732
0.26184
0.307697
0.327161
0.322097
0.264733
0.302813
0.315397
0.319629
0.295328
0.29851
0.325712
0.328248
0.309074
0.325955
0.326898
0.322228
0.264892
0.299619
0.257423
0.325112
0.320718
0.328407
0.307227
0.318819
0.301121
0.258737
0.286998
0.253254
0.282506
0.266331
0.324497
0.314903
0.311928
0.321717
0.327131
0.315742
0.320358
0.274165
0.316223
0.309051
0.326086
0.291382
0.263992
0.321375
0.318481
0.323864
0.328785
0.327485
0.262178
0.259249
0.254802
0.320701
0.328463
0.238891
0.286685
0.329333
0.261734
0.293934
0.266727
0.305503
0.3218
0.305828
0.317778
0.289516
0.314329
0.317063
0.325632
0.296789
0.283832
0.320555
0.317234
0.301038
0.327464
0.331324
0.238516
0.328546
0.260855
0.286923
0.331814
0.330816
0.304458
0.324947
0.267577
0.327215
0.286997
0.274319
0.325747
0.292767
0.327172
0.31138
0.324084
0.315776
0.324908
0.271281
0.323555
0.272819
0.328077
0.314729
0.31706
0.295277
0.264674
0.274111
0.325521
0.275339
0.307901
0.261087
0.297555
0.329223
0.328001
0.316316
0.322795
0.319486
0.282791
0.294806
0.317834
0.264646
0.275494
0.318089
0.312017
0.291896
0.268975
0.237913
0.260086
0.326204
0.296406
0.328243
0.270991
0.326256
0.316499
0.332394
0.32193
0.290434
0.326031
0.274088
0.319349
0.285896
0.319007
0.260071
0.297858
0.288254
0.263305
0.296081
0.268463
0.260705
0.260355
0.324629
0.325224
0.293738
0.264369
0.326927
0.26065
0.241134
0.304194
0.326105
0.320644
0.262185
0.260064
0.329436
0.261932
0.318589
0.263628
0.268039
0.286909
0.269541
0.330924
0.310763
0.271635
0.325258
0.331149
0.276124
0.321939
0.303288
0.325515
0.307058
0.290757
0.265186
0.324482
0.330342
0.323634
0.261115
0.271003
0.290249
0.313088
0.319742
0.317176
0.260703
0.318773
0.273294
0.319898
0.321839
0.312676
0.289553
0.321592
0.244495
0.313034
0.257389
0.297267
0.257498
0.265511
0.319765
0.326694
0.275467
0.282517
0.319239
0.290523
0.236129
0.25275
0.278818
0.310655
0.197014
0.302366
0.310249
0.319918
0.304023
0.32155
0.324802
0.223411
0.22351
0.329892
0.306308
0.234785
0.292993
0.31751
0.327354
0.318514
0.256646
0.299184
0.259658
0.320177
0.327969
0.321377
0.301268
0.326579
0.268723
0.314062
0.330976
0.261753
0.271706
0.326901
0.32733
0.264438
0.272858
0.251575
0.223823
0.253234
0.318358
0.2862
0.270163
0.259417
0.264533
0.325805
0.268732
0.270763
0.266442
0.328625
0.292456
0.319782
0.273297
0.296149
0.306787
0.312738
0.311007
0.324223
0.26197
0.318905
0.308635
0.308364
0.322106
0.283001
0.330119
0.322239
0.293385
0.321589
0.259735
0.285758
0.316387
0.322449
0.262321
0.300533
0.310285
0.316804
0.313782
0.328302
0.254959
0.267021
0.262233
0.253964
0.331074
0.280416
0.316809
0.326555
0.292474
0.226089
0.265646
0.306206
0.263494
0.306271
0.268141
0.276237
0.287877
0.327141
0.323687
0.312842
0.263231
0.289433
0.259389
0.297222
0.324689
0.318332
0.298293
0.315155
0.29025
0.31368
0.328664
0.326786
0.31757
0.329037
0.320559
0.297395
0.27181
0.267176
0.264145
0.319341
0.313107
0.275127
0.322066
0.274603
0.331329
0.328003
0.272342
0.259098
0.285367
0.298765
0.326765
0.308365
0.326112
0.310712
0.325495
0.322604
0.315169
0.275928
0.310756
0.301716
0.259179
0.288585
0.329955
0.230833
0.171715
0.317719
0.311543
0.328153
0.294389
0.264561
0.262979
0.279426
0.260564
0.284913
0.313518
0.269697
0.327393
0.293192
0.26639
0.302778
0.286559
0.272094
0.326622
0.307914
0.315556
0.259225
0.310181
0.305028
0.26735
0.289576
0.281743
0.274583
0.267067
0.228844
0.331167
0.318697
0.327929
0.321589
0.328887
0.267573
0.318002
0.307415
0.306064
0.250922
0.32354
0.302377
0.293404
0.327169
0.324987
0.328384
0.319494
0.313151
0.317592
0.275565
0.318455
0.321066
0.32535
0.298031
0.264639
0.324254
0.289497
0.276191
0.323596
0.296544
0.327488
0.276808
0.326034
0.317817
0.31228
0.275904
0.32304
0.263718
0.275556
0.289515
0.269009
0.282259
0.276257
0.272482
0.311641
0.263372
0.262805
0.300518
0.319401
0.300756
0.28341
0.321947
0.317727
0.275844
0.323429
0.319806
0.320478
0.264799
0.274335
0.313423
0.262307
0.306526
0.244084
0.308958
0.247063
0.327945
0.302513
0.307447
0.267549
0.260413
0.279176
0.30804
0.272523
0.315502
0.319847
0.312768
0.32284
0.318202
0.312847
0.281161
0.33049
0.303082
0.306886
0.317695
0.277515
0.285262
0.267194
0.327455
0.318561
0.304571
0.308975
0.289457
0.29759
0.25867
0.292852
0.26207
0.326993
0.276311
0.300075
0.307186
0.311917
0.265068
0.292995
0.303654
0.307671
0.304161
0.316659
0.309066
0.289479
0.317256
0.32287
0.305799
0.260594
0.319502
0.263722
0.304883
0.255117
0.280394
0.304596
0.241576
0.274281
0.32123
0.326592
0.258968
0.302177
0.264842
0.249511
0.260983
0.263293
0.276471
0.271337
0.278035
0.325501
0.320937
0.296956
0.328204
0.303854
0.320298
0.30566
0.321905
0.322288
0.275405
0.320012
0.331096
0.308798
0.318216
0.255132
0.327109
0.293221
0.174141
0.315667
0.318693
0.327479
0.325446
0.322529
0.320696
0.276079
0.304315
0.311461
0.315117
0.18383
0.293422
0.252628
0.303881
0.312294
0.259484
0.262906
0.280912
0.270719
0.267794
0.306834
0.304275
0.316691
0.328305
0.263786
0.33145
0.263677
0.293829
0.328636
0.299397
0.305189
0.313978
0.19011
0.274035
0.314998
0.327948
0.269743
0.282593
0.309766
0.324859
0.262904
0.326482
0.26956
0.309166
0.309682
0.29314
0.317356
0.326227
0.323125
0.256021
0.323595
0.316909
0.32405
0.264109
0.312803
0.285646
0.260465
0.264065
0.293775
0.313311
0.311006
0.322783
0.302654
0.265472
0.3153
0.273069
0.270434
0.303724
0.307311
0.266583
0.322427
0.270116
0.270657
0.278447
0.309016
0.267344
0.243314
0.322102
0.293779
0.315207
0.271767
0.255313
0.312387
0.222929
0.316212
0.313977
0.268959
0.265649
0.334239
0.281769
0.266316
0.261324
0.253503
0.280281
0.317806
0.325098
0.267064
0.274379
0.325786
0.305962
0.269343
0.270052
0.299559
0.32844
0.31901
0.269064
0.257594
0.320229
0.332164
0.309692
0.313011
0.307325
0.257319
0.308262
0.323832
0.312079
0.260985
0.326485
0.308498
0.254287
0.318896
0.270986
0.32863
0.315568
0.267201
0.306154
0.302538
0.304574
0.26609
0.311907
0.280134
0.322001
0.324093
0.326898
0.275259
0.27316
0.326534
0.319612
0.286514
0.31829
0.3065
0.261997
0.314959
0.30985
0.260375
0.220505
0.280284
0.283298
0.269384
0.268323
0.290828
0.280359
0.321307
0.270802
0.269788
0.305838
0.264544
0.328098
0.262831
0.310326
0.30924
0.262081
0.316552
0.304121
0.321594
0.313226
0.325788
0.271868
0.269243
0.32877
0.258703
0.327315
0.320399
0.307294
0.291588
0.327389
0.306927
0.262146
0.328715
0.255906
0.311112
0.329665
0.259259
0.328818
0.270651
0.308062
0.201294
0.308912
0.264361
0.315159
0.281546
0.256824
0.283132
0.261136
0.264054
0.326849
0.262173
0.302381
0.317629
0.307585
0.318532
0.319103
0.305378
0.262551
0.330149
0.302345
0.325135
0.267954
0.307442
0.319988
0.291404
0.327603
0.307719
0.310647
0.276693
0.297208
0.245087
0.254064
0.327926
0.146563
0.318354
0.323862
0.277844
0.264831
0.285869
0.316658
0.311451
0.324586
0.311037
0.316984
0.313251
0.329938
0.329275
0.264509
0.317094
0.317927
0.312404
0.31753
0.304605
0.265703
0.266939
0.303803
0.311523
0.298281
0.327864
0.263062
0.268907
0.300068
0.292906
0.310537
0.317352
0.273187
0.275862
0.281508
0.296714
0.272392
0.325409
0.265468
0.288404
0.304404
0.290173
0.26281
0.262745
0.32196
0.265578
0.263755
0.327715
0.308946
0.293644
0.26404
0.263421
0.285062
0.328279
0.322117
0.292604
0.312157
0.311283
0.331773
0.319455
0.272924
0.325445
0.282081
0.315141
0.32139
0.326608
0.31303
0.326302
0.320868
0.262133
0.252679
0.301916
0.289644
0.285684
0.215875
0.222314
0.325544
0.327317
0.265931
0.325837
0.312877
0.325866
0.308751
0.266899
0.330455
0.328654
0.309324
0.260155
0.266046
0.317815
0.326429
0.31383
0.261076
0.284998
0.316469
0.328293
0.321909
0.305568
0.295559
0.318001
0.292624
0.29317
0.31724
0.294533
0.318961
0.210716
0.328354
0.306699
0.315276
0.325883
0.260121
0.266228
0.268879
0.280686
0.328259
0.274803
0.312823
0.213721
0.273807
0.298159
0.275274
0.267763
0.307084
0.270944
0.270426
0.305713
0.30607
0.323073
0.284027
0.310827
0.327389
0.291532
0.320256
0.313941
0.32438
0.309122
0.275474
0.316567
0.264155
0.279148
0.318508
0.325256
0.326203
0.311547
0.252881
0.317393
0.311734
0.288601
0.326114
0.31823
0.325848
0.324193
0.262713
0.257961
0.314524
0.265117
0.312806
0.314738
0.263223
0.326279
0.316814
0.323266
0.303762
0.309956
0.264871
0.292957
0.323625
0.270568
0.318718
0.321761
0.281131
0.309209
0.297403
0.316078
0.320811
0.309987
0.263926
0.326287
0.252918
0.208237
0.281389
0.317122
0.259711
0.328165
0.290442
0.252567
0.309269
0.31757
0.318438
0.184261
0.311137
0.319318
0.324347
0.293342
0.32835
0.317135
0.259017
0.3109
0.296067
0.298907
0.256461
0.322517
0.308968
0.26994
0.259257
0.312688
0.305671
0.251403
0.304869
0.326763
0.272925
0.329308
0.263866
0.248024
0.259302
0.311367
0.299202
0.263966
0.251965
0.25083
0.310219
0.308312
0.326858
0.297148
0.326677
0.259654
0.311023
0.264314
0.280015
0.254141
0.313947
0.315111
0.279814
0.279214
0.32032
0.289164
0.323058
0.326473
0.276847
0.30222
0.314208
0.301741
0.323949
0.31799
0.318053
0.303488
0.277107
0.306007
0.2838
0.335945
0.305257
0.279038
0.248069
0.27782
0.313524
0.31728
0.304385
0.317984
0.302637
0.292569
0.285555
0.259141
0.277264
0.279422
0.325784
0.268577
0.268888
0.268162
0.316853
0.304089
0.269407
0.263988
0.256554
0.329085
0.297572
0.287041
0.275852
0.293823