/*--------------------------------*- C++ -*----------------------------------*\
  =========                 |
  \\      /  F ield         | OpenFOAM: The Open Source CFD Toolbox
   \\    /   O peration     | Website:  https://openfoam.org
    \\  /    A nd           | Version:  6
     \\/     M anipulation  |
\*---------------------------------------------------------------------------*/
FoamFile
{
    version     2.0;
    format      ascii;
    class       volScalarField;
    location    "./ITHACAoutput/Offline/1";
    object      p;
}
// * * * * * * * * * * * * * * * * * * * * * * * * * * * * * * * * * * * * * //

dimensions      [0 2 -2 0 0 0 0];

internalField   nonuniform List<scalar> 
40000
(
-29.2203
-29.2347
-29.2662
-29.3082
-29.3543
-29.3976
-29.4346
-29.4619
-29.4794
-29.4859
-29.4803
-29.4632
-29.4347
-29.3948
-29.344
-29.2826
-29.2114
-29.1307
-29.04
-28.9396
-28.8309
-28.7134
-28.5868
-28.4533
-28.3114
-28.1619
-28.0047
-27.8409
-27.6687
-27.4908
-27.3055
-27.1137
-26.9155
-26.7104
-26.4994
-26.2817
-26.0579
-25.8282
-25.5927
-25.3506
-25.1029
-24.8495
-24.5908
-24.3264
-24.0564
-23.7816
-23.5008
-23.2164
-22.9263
-22.6322
-22.3347
-22.0331
-21.7276
-21.4191
-21.109
-20.7958
-20.4811
-20.1657
-19.8491
-19.5338
-19.2187
-18.9057
-18.5943
-18.2869
-17.9824
-17.6839
-17.3917
-17.1055
-16.8271
-16.5581
-16.2994
-16.0516
-15.8164
-15.5943
-15.3866
-15.1947
-15.0199
-14.8629
-14.7248
-14.6069
-14.5103
-14.4355
-14.3841
-14.3569
-14.354
-14.3767
-14.4255
-14.5018
-14.6045
-14.7341
-14.892
-15.0774
-15.2902
-15.5305
-15.7988
-16.0933
-16.4131
-16.7581
-17.1279
-17.5206
-17.9346
-18.3691
-18.8235
-19.2938
-19.78
-20.2794
-20.7892
-21.3092
-21.8348
-22.365
-22.8969
-23.4278
-23.9553
-24.4758
-24.9886
-25.4894
-25.9754
-26.4455
-26.8969
-27.3262
-27.7309
-28.1101
-28.4601
-28.7806
-29.068
-29.3217
-29.5395
-29.7215
-29.8656
-29.9715
-30.0381
-30.0659
-30.0534
-30.0013
-29.9102
-29.7809
-29.614
-29.4106
-29.171
-28.898
-28.5909
-28.2552
-27.8891
-27.497
-27.0794
-26.6407
-26.1817
-25.7035
-25.2108
-24.7059
-24.1894
-23.6662
-23.1366
-22.6038
-22.0704
-21.5378
-21.0091
-20.4848
-19.968
-19.4606
-18.9621
-18.4768
-18.0043
-17.5461
-17.103
-16.6769
-16.2664
-15.8748
-15.5004
-15.1456
-14.8085
-14.4903
-14.1916
-13.9119
-13.6496
-13.4069
-13.1824
-12.9756
-12.7874
-12.6167
-12.4623
-12.3258
-12.2057
-12.102
-12.0149
-11.9434
-11.8879
-11.8495
-11.8261
-11.8184
-11.8261
-11.8494
-11.8872
-11.9376
-11.9982
-12.0664
-12.1348
-12.197
-12.242
-12.2623
-29.2055
-29.2204
-29.2486
-29.2844
-29.324
-29.3604
-29.3916
-29.416
-29.4296
-29.4338
-29.4272
-29.4099
-29.3811
-29.3421
-29.2929
-29.2334
-29.164
-29.0855
-28.9972
-28.9006
-28.7951
-28.6805
-28.5582
-28.4285
-28.2903
-28.1455
-27.9927
-27.8327
-27.6662
-27.4929
-27.313
-27.1267
-26.9334
-26.7344
-26.5285
-26.317
-26.0994
-25.8759
-25.6463
-25.4104
-25.1694
-24.9227
-24.6702
-24.4124
-24.1494
-23.8815
-23.6082
-23.3307
-23.0477
-22.7611
-22.4696
-22.1755
-21.8776
-21.5766
-21.273
-20.967
-20.6594
-20.3505
-20.0415
-19.7322
-19.4231
-19.1163
-18.8113
-18.5092
-18.2111
-17.9177
-17.6294
-17.3481
-17.0743
-16.809
-16.5532
-16.3085
-16.0757
-15.8547
-15.6484
-15.4561
-15.2817
-15.1247
-14.9853
-14.8653
-14.7658
-14.6883
-14.6334
-14.6012
-14.5929
-14.6096
-14.6514
-14.7195
-14.8138
-14.9351
-15.083
-15.2583
-15.4606
-15.6888
-15.9448
-16.2258
-16.5329
-16.8642
-17.219
-17.5968
-17.9956
-18.4154
-18.8526
-19.307
-19.7762
-20.2588
-20.7526
-21.2546
-21.7642
-22.2772
-22.7921
-23.3065
-23.8176
-24.3224
-24.8197
-25.3046
-25.7775
-26.2319
-26.6695
-27.0862
-27.4793
-27.8463
-28.1855
-28.4954
-28.7741
-29.0199
-29.2304
-29.4057
-29.5451
-29.6467
-29.7097
-29.7345
-29.7207
-29.6686
-29.579
-29.4519
-29.2877
-29.0877
-28.8524
-28.5854
-28.2854
-27.9556
-27.5991
-27.2152
-26.8076
-26.3785
-25.9294
-25.4638
-24.9833
-24.4891
-23.986
-23.4749
-22.9589
-22.4386
-21.9183
-21.3998
-20.8832
-20.3721
-19.8674
-19.3725
-18.8868
-18.4131
-17.9523
-17.5056
-17.0731
-16.6571
-16.2578
-15.8754
-15.5098
-15.1632
-14.834
-14.5239
-14.2322
-13.9584
-13.7029
-13.4657
-13.2462
-13.0438
-12.86
-12.6927
-12.5416
-12.4073
-12.2896
-12.188
-12.1014
-12.0311
-11.9755
-11.9357
-11.9116
-11.9005
-11.9056
-11.9243
-11.9555
-11.9988
-12.0513
-12.1094
-12.1691
-12.2226
-12.2623
-12.2819
-29.1744
-29.192
-29.2205
-29.252
-29.2855
-29.3162
-29.3421
-29.3611
-29.3717
-29.3735
-29.3651
-29.347
-29.3192
-29.2807
-29.2333
-29.1761
-29.1091
-29.0335
-28.9488
-28.8551
-28.7531
-28.6436
-28.5258
-28.4006
-28.2685
-28.1283
-27.9811
-27.8277
-27.6671
-27.4998
-27.3268
-27.1467
-26.9611
-26.7689
-26.5704
-26.3665
-26.1559
-25.9398
-25.7187
-25.4909
-25.2588
-25.0198
-24.7765
-24.527
-24.2729
-24.0139
-23.7497
-23.4798
-23.2066
-22.9293
-22.6475
-22.3615
-22.0729
-21.7802
-21.4856
-21.1886
-20.8896
-20.5893
-20.2888
-19.9878
-19.6863
-19.3869
-19.0888
-18.7938
-18.5025
-18.2145
-17.9323
-17.6557
-17.3868
-17.125
-16.8734
-16.6306
-16.3994
-16.181
-15.9753
-15.7839
-15.6089
-15.4494
-15.3078
-15.1858
-15.0829
-15.0002
-14.9386
-14.8999
-14.885
-14.8929
-14.9261
-14.9839
-15.0671
-15.177
-15.3122
-15.4743
-15.6624
-15.8765
-16.116
-16.3812
-16.6709
-16.9844
-17.3216
-17.6807
-18.0611
-18.4605
-18.8786
-19.313
-19.7625
-20.2244
-20.697
-21.1794
-21.6679
-22.1607
-22.656
-23.1507
-23.6419
-24.1276
-24.6054
-25.073
-25.5276
-25.9666
-26.3878
-26.7889
-27.1662
-27.5201
-27.8464
-28.1444
-28.4129
-28.6486
-28.8505
-29.0186
-29.1514
-29.2472
-29.3064
-29.3287
-29.3141
-29.2612
-29.1726
-29.0471
-28.8857
-28.6902
-28.4611
-28.1993
-27.9074
-27.5864
-27.2379
-26.8653
-26.4686
-26.0513
-25.6155
-25.1617
-24.6948
-24.2158
-23.7263
-23.2308
-22.7303
-22.2255
-21.7209
-21.2167
-20.7174
-20.2212
-19.7326
-19.2527
-18.7814
-18.3228
-17.8765
-17.4439
-17.025
-16.6217
-16.2351
-15.8643
-15.5108
-15.1747
-14.8565
-14.5555
-14.2725
-14.0078
-13.7597
-13.5292
-13.3168
-13.1211
-12.9422
-12.7794
-12.633
-12.5027
-12.3876
-12.288
-12.2034
-12.1336
-12.0789
-12.0375
-12.0118
-11.9981
-11.9986
-12.0121
-12.0371
-12.0726
-12.1154
-12.1644
-12.2143
-12.2622
-12.3023
-12.3275
-29.1318
-29.1561
-29.1882
-29.2204
-29.2513
-29.2789
-29.3017
-29.3181
-29.326
-29.3257
-29.3158
-29.298
-29.27
-29.2332
-29.186
-29.1307
-29.0657
-28.9928
-28.911
-28.8207
-28.7225
-28.6163
-28.5031
-28.3825
-28.2545
-28.1197
-27.978
-27.83
-27.6751
-27.5135
-27.3465
-27.1733
-26.9935
-26.8084
-26.6164
-26.4195
-26.2171
-26.0079
-25.7937
-25.5748
-25.3495
-25.1188
-24.8832
-24.6419
-24.3959
-24.1449
-23.8886
-23.6284
-23.3635
-23.0939
-22.8207
-22.5429
-22.2623
-21.9781
-21.6915
-21.4024
-21.1108
-20.8178
-20.5244
-20.2297
-19.9361
-19.642
-19.3506
-19.0609
-18.7742
-18.4911
-18.2137
-17.941
-17.6751
-17.4161
-17.1666
-16.9248
-16.6953
-16.477
-16.2705
-16.0791
-15.9009
-15.7391
-15.5945
-15.4675
-15.3594
-15.2709
-15.2039
-15.1579
-15.1349
-15.1343
-15.1576
-15.2054
-15.2782
-15.3758
-15.5002
-15.6486
-15.8228
-16.0232
-16.2483
-16.4981
-16.7736
-17.0709
-17.3918
-17.7349
-18.0979
-18.4803
-18.8811
-19.298
-19.7297
-20.1746
-20.6297
-21.0948
-21.5666
-22.0426
-22.5207
-22.9981
-23.4734
-23.9436
-24.4059
-24.8591
-25.2992
-25.7243
-26.1324
-26.5203
-26.8871
-27.2296
-27.5464
-27.8343
-28.0937
-28.3213
-28.5171
-28.6791
-28.8068
-28.8981
-28.9549
-28.9739
-28.9571
-28.9044
-28.8158
-28.6913
-28.5325
-28.3398
-28.1146
-27.8575
-27.5714
-27.2569
-26.9153
-26.5509
-26.1631
-25.7547
-25.3279
-24.8856
-24.4288
-23.9619
-23.4847
-23.0004
-22.5118
-22.0208
-21.5283
-21.0374
-20.5505
-20.0684
-19.593
-19.1255
-18.668
-18.2225
-17.7877
-17.3673
-16.9616
-16.5701
-16.1942
-15.8346
-15.4912
-15.1653
-14.8571
-14.5657
-14.2919
-14.0344
-13.7941
-13.5714
-13.3652
-13.1753
-13.0023
-12.8448
-12.7021
-12.576
-12.4635
-12.3667
-12.2839
-12.2153
-12.1608
-12.1197
-12.0917
-12.0766
-12.0748
-12.084
-12.1042
-12.1333
-12.1717
-12.2153
-12.262
-12.3097
-12.3554
-12.3886
-29.0861
-29.1167
-29.1551
-29.1898
-29.2207
-29.2471
-29.2681
-29.2824
-29.289
-29.288
-29.2776
-29.259
-29.2313
-29.1947
-29.1495
-29.0947
-29.032
-28.9609
-28.8819
-28.7952
-28.6998
-28.5977
-28.4885
-28.3716
-28.2483
-28.118
-27.9815
-27.8384
-27.6893
-27.5341
-27.3726
-27.2053
-27.0328
-26.853
-26.6684
-26.4784
-26.2826
-26.0812
-25.8748
-25.6624
-25.4447
-25.222
-24.9942
-24.7611
-24.5228
-24.2798
-24.0316
-23.7791
-23.5223
-23.2604
-22.9946
-22.7255
-22.4522
-22.176
-21.8958
-21.6141
-21.3301
-21.044
-20.7562
-20.4681
-20.1795
-19.8924
-19.6051
-19.3201
-19.0377
-18.7588
-18.4838
-18.214
-17.9499
-17.6928
-17.4435
-17.2031
-16.9728
-16.7532
-16.5449
-16.3504
-16.1695
-16.0041
-15.8544
-15.7228
-15.6084
-15.5142
-15.4394
-15.385
-15.3535
-15.3436
-15.3568
-15.3945
-15.4555
-15.5421
-15.6527
-15.7889
-15.9506
-16.1366
-16.3484
-16.5837
-16.843
-17.1263
-17.4316
-17.7584
-18.1062
-18.4742
-18.8592
-19.2601
-19.6758
-20.1053
-20.5456
-20.9948
-21.4508
-21.9119
-22.3753
-22.8392
-23.3005
-23.7577
-24.2073
-24.648
-25.076
-25.4898
-25.8869
-26.264
-26.6218
-26.9547
-27.2629
-27.5436
-27.796
-28.0172
-28.2067
-28.3636
-28.4874
-28.5753
-28.6289
-28.6467
-28.6281
-28.5752
-28.4858
-28.3626
-28.2056
-28.0151
-27.793
-27.5402
-27.2575
-26.9483
-26.6132
-26.2538
-25.8726
-25.4709
-25.0537
-24.6198
-24.1721
-23.7138
-23.2462
-22.7726
-22.2945
-21.8138
-21.3325
-20.8537
-20.3781
-19.9066
-19.4433
-18.9882
-18.5421
-18.1076
-17.6857
-17.2759
-16.8808
-16.5011
-16.136
-15.7869
-15.4548
-15.1377
-14.8389
-14.5566
-14.2907
-14.043
-13.8103
-13.5947
-13.3953
-13.212
-13.044
-12.8915
-12.7546
-12.6321
-12.5227
-12.4286
-12.3483
-12.2807
-12.2267
-12.1853
-12.1577
-12.1407
-12.1358
-12.1434
-12.1599
-12.1861
-12.2213
-12.263
-12.3095
-12.3595
-12.4145
-12.4578
-29.0425
-29.0795
-29.1242
-29.1616
-29.194
-29.2208
-29.241
-29.254
-29.2598
-29.2583
-29.2476
-29.2286
-29.2006
-29.1644
-29.1198
-29.0678
-29.0066
-28.9378
-28.8604
-28.7768
-28.685
-28.5862
-28.4802
-28.3682
-28.2492
-28.1233
-27.9911
-27.8536
-27.7096
-27.5597
-27.4041
-27.2431
-27.0763
-26.9036
-26.7258
-26.5423
-26.3533
-26.1594
-25.9599
-25.7545
-25.545
-25.3299
-25.1096
-24.8847
-24.6537
-24.4185
-24.1781
-23.9333
-23.6833
-23.4297
-23.1717
-22.9093
-22.6436
-22.3738
-22.1011
-21.826
-21.5478
-21.2675
-20.986
-20.7031
-20.4198
-20.1362
-19.8537
-19.5725
-19.2925
-19.0162
-18.7437
-18.4757
-18.2121
-17.9548
-17.7057
-17.4644
-17.2319
-17.0099
-16.7994
-16.6009
-16.4157
-16.2451
-16.0901
-15.9513
-15.8304
-15.7278
-15.6455
-15.5821
-15.54
-15.52
-15.5228
-15.5489
-15.5982
-15.6733
-15.7711
-15.8941
-16.0424
-16.2146
-16.412
-16.6338
-16.8789
-17.1477
-17.4383
-17.7513
-18.0836
-18.4365
-18.8067
-19.1939
-19.5954
-20.0105
-20.4371
-20.8729
-21.3161
-21.7637
-22.2147
-22.6664
-23.1168
-23.5616
-24.0013
-24.4302
-24.8479
-25.253
-25.6405
-26.0104
-26.3588
-26.6851
-26.9865
-27.2612
-27.5077
-27.7241
-27.9093
-28.0624
-28.182
-28.268
-28.3189
-28.3355
-28.3157
-28.2625
-28.1733
-28.0503
-27.8944
-27.7053
-27.4853
-27.2356
-26.9569
-26.6515
-26.3208
-25.9666
-25.5907
-25.1958
-24.7845
-24.3576
-23.9184
-23.4672
-23.0084
-22.5433
-22.0742
-21.6029
-21.1321
-20.6626
-20.1963
-19.7358
-19.2828
-18.8381
-18.4025
-17.9797
-17.5674
-17.1692
-16.7843
-16.4146
-16.0601
-15.721
-15.3989
-15.0921
-14.8023
-14.5297
-14.2725
-14.033
-13.8078
-13.6002
-13.4079
-13.2307
-13.0695
-12.9231
-12.7902
-12.6709
-12.5668
-12.4754
-12.3968
-12.3321
-12.2786
-12.2387
-12.2095
-12.1925
-12.1858
-12.191
-12.2054
-12.2307
-12.2637
-12.305
-12.3525
-12.4077
-12.471
-12.5244
-29.0051
-29.0479
-29.0984
-29.1393
-29.1732
-29.2004
-29.2205
-29.2339
-29.2388
-29.2357
-29.2251
-29.2063
-29.1788
-29.1437
-29.1003
-29.0481
-28.9891
-28.9221
-28.8478
-28.766
-28.6769
-28.5814
-28.4789
-28.371
-28.2559
-28.1349
-28.0077
-27.8748
-27.7362
-27.5917
-27.4418
-27.2864
-27.1256
-26.96
-26.7881
-26.6111
-26.4295
-26.242
-26.0498
-25.8522
-25.6495
-25.4417
-25.2286
-25.011
-24.788
-24.5594
-24.3268
-24.089
-23.8472
-23.6004
-23.3489
-23.0939
-22.8345
-22.5709
-22.3041
-22.0348
-21.7626
-21.4871
-21.2108
-20.9318
-20.6525
-20.3729
-20.0928
-19.8142
-19.5371
-19.2616
-18.9895
-18.7213
-18.4584
-18.2
-17.9487
-17.7054
-17.4694
-17.2446
-17.0287
-16.8252
-16.6345
-16.4582
-16.2955
-16.1487
-16.0201
-15.9081
-15.8153
-15.7427
-15.6908
-15.6596
-15.6503
-15.665
-15.7024
-15.7637
-15.8493
-15.959
-16.0936
-16.2525
-16.4356
-16.6439
-16.8748
-17.1286
-17.4062
-17.7049
-18.0242
-18.3634
-18.7198
-19.0933
-19.4823
-19.8852
-20.2988
-20.723
-21.1543
-21.5909
-22.0316
-22.4725
-22.9124
-23.3484
-23.7776
-24.1996
-24.6091
-25.0062
-25.3868
-25.7501
-26.0931
-26.4138
-26.7093
-26.9792
-27.2214
-27.4343
-27.6164
-27.767
-27.884
-27.9676
-28.0179
-28.0326
-28.0132
-27.9593
-27.8708
-27.7487
-27.5933
-27.4067
-27.1889
-26.9413
-26.6658
-26.3631
-26.0369
-25.6865
-25.3159
-24.9256
-24.5192
-24.098
-23.6651
-23.2208
-22.7682
-22.3111
-21.8499
-21.3863
-20.9227
-20.4625
-20.0062
-19.555
-19.1106
-18.6758
-18.2504
-17.8362
-17.4343
-17.0458
-16.6711
-16.3117
-15.9673
-15.6383
-15.3249
-15.0278
-14.7477
-14.483
-14.2361
-14.0034
-13.7878
-13.5875
-13.4016
-13.2328
-13.0772
-12.9355
-12.8085
-12.6946
-12.5947
-12.5061
-12.431
-12.368
-12.3167
-12.2768
-12.2475
-12.2306
-12.224
-12.2277
-12.2408
-12.2652
-12.2977
-12.34
-12.3893
-12.4487
-12.5211
-12.5825
-28.9766
-29.0237
-29.0794
-29.1237
-29.1586
-29.187
-29.2077
-29.2206
-29.2256
-29.2223
-29.2118
-29.1927
-29.1659
-29.1303
-29.0878
-29.0377
-28.9795
-28.9141
-28.8418
-28.7626
-28.6763
-28.5845
-28.4854
-28.3805
-28.2692
-28.1526
-28.0302
-27.902
-27.7679
-27.6293
-27.4851
-27.3353
-27.1807
-27.021
-26.8553
-26.6851
-26.5096
-26.3296
-26.1437
-25.9533
-25.7574
-25.5567
-25.3508
-25.1398
-24.9239
-24.7034
-24.4769
-24.246
-24.0108
-23.7703
-23.5263
-23.2771
-23.0236
-22.7654
-22.5048
-22.2399
-21.9719
-21.7014
-21.4284
-21.1533
-20.8769
-20.5995
-20.3213
-20.0437
-19.7675
-19.4923
-19.2196
-18.9501
-18.685
-18.4247
-18.1699
-17.9226
-17.6825
-17.4512
-17.2305
-17.0201
-16.8227
-16.638
-16.4672
-16.3123
-16.1725
-16.0508
-15.9476
-15.8635
-15.7994
-15.7565
-15.7351
-15.7367
-15.7616
-15.8094
-15.8811
-15.9769
-16.0977
-16.2433
-16.4126
-16.6069
-16.8237
-17.0648
-17.3286
-17.6139
-17.9199
-18.2462
-18.5903
-18.9522
-19.3294
-19.7206
-20.123
-20.5375
-20.9576
-21.3851
-21.8167
-22.2487
-22.6805
-23.1092
-23.5315
-23.9462
-24.3499
-24.741
-25.1166
-25.4745
-25.8138
-26.1295
-26.4222
-26.6899
-26.9287
-27.1392
-27.3195
-27.4689
-27.5843
-27.6682
-27.7167
-27.7325
-27.7131
-27.6591
-27.5715
-27.4512
-27.2971
-27.1124
-26.8965
-26.6509
-26.3781
-26.0787
-25.7548
-25.4089
-25.042
-24.6565
-24.2545
-23.838
-23.4102
-22.9716
-22.5259
-22.0738
-21.6195
-21.1634
-20.7078
-20.2544
-19.8052
-19.3619
-18.9268
-18.5007
-18.0839
-17.6798
-17.2868
-16.9073
-16.5421
-16.1919
-15.8571
-15.5378
-15.2339
-14.9461
-14.6751
-14.4198
-14.1804
-13.9571
-13.7494
-13.5572
-13.3792
-13.2167
-13.0679
-12.9329
-12.8108
-12.7017
-12.6059
-12.5216
-12.4502
-12.3885
-12.3395
-12.3011
-12.2734
-12.2565
-12.2492
-12.2526
-12.2659
-12.2889
-12.3215
-12.3652
-12.4169
-12.4808
-12.5605
-12.6284
-28.9592
-29.0092
-29.0691
-29.1153
-29.1522
-29.181
-29.2023
-29.2154
-29.2197
-29.2168
-29.2058
-29.187
-29.1601
-29.1257
-29.0836
-29.0344
-28.9779
-28.9137
-28.8431
-28.7664
-28.6828
-28.5938
-28.4983
-28.3967
-28.2888
-28.1769
-28.0585
-27.9351
-27.8066
-27.6726
-27.5333
-27.389
-27.2403
-27.0865
-26.9274
-26.7634
-26.5944
-26.4201
-26.2413
-26.0572
-25.8689
-25.6751
-25.4755
-25.2708
-25.0617
-24.847
-24.6282
-24.4034
-24.174
-23.9404
-23.7011
-23.4579
-23.2091
-22.957
-22.6994
-22.44
-22.1749
-21.9077
-21.6373
-21.364
-21.0892
-20.8137
-20.5357
-20.2587
-19.9806
-19.7046
-19.4298
-19.1578
-18.8886
-18.6245
-18.3645
-18.1116
-17.8659
-17.6279
-17.3997
-17.1818
-16.9741
-16.7808
-16.5997
-16.434
-16.2833
-16.15
-16.0347
-15.9379
-15.8617
-15.8049
-15.7704
-15.7585
-15.769
-15.8027
-15.8607
-15.9428
-16.0492
-16.1804
-16.3358
-16.5161
-16.7196
-16.9473
-17.1981
-17.4708
-17.7641
-18.0782
-18.411
-18.7613
-19.1279
-19.5084
-19.9023
-20.3065
-20.7188
-21.1384
-21.5616
-21.987
-22.4123
-22.834
-23.2514
-23.6605
-24.0606
-24.4478
-24.8198
-25.1752
-25.5107
-25.8253
-26.1169
-26.3815
-26.6205
-26.8308
-27.0111
-27.1594
-27.2763
-27.3593
-27.4093
-27.4253
-27.4073
-27.355
-27.2698
-27.1504
-26.999
-26.8154
-26.6023
-26.3598
-26.0893
-25.7929
-25.4725
-25.1302
-24.7659
-24.3842
-23.9868
-23.5746
-23.1511
-22.7176
-22.2775
-21.8312
-21.3826
-20.9325
-20.4834
-20.0372
-19.5952
-19.1595
-18.7319
-18.3129
-17.9045
-17.5084
-17.1243
-16.7542
-16.3975
-16.0562
-15.7302
-15.4196
-15.1255
-14.8471
-14.5848
-14.3383
-14.1079
-13.8926
-13.6928
-13.5087
-13.339
-13.1829
-13.0407
-12.9127
-12.7958
-12.6932
-12.6021
-12.5223
-12.4533
-12.3957
-12.3483
-12.3115
-12.2848
-12.2687
-12.2619
-12.2653
-12.279
-12.3019
-12.3351
-12.3793
-12.4336
-12.5008
-12.5856
-12.6585
-28.9525
-29.0055
-29.0677
-29.1156
-29.154
-29.1836
-29.2052
-29.2182
-29.2225
-29.2187
-29.2084
-29.1891
-29.1627
-29.1286
-29.0868
-29.0388
-28.9832
-28.9207
-28.8522
-28.7771
-28.6967
-28.6098
-28.5172
-28.4189
-28.3153
-28.2073
-28.0928
-27.974
-27.8497
-27.7209
-27.5868
-27.4482
-27.3044
-27.1568
-27.0036
-26.8452
-26.6829
-26.5151
-26.3423
-26.1643
-25.9817
-25.7945
-25.6014
-25.4035
-25.2008
-24.9919
-24.7791
-24.5599
-24.3363
-24.1064
-23.8728
-23.6335
-23.3898
-23.1412
-22.8879
-22.6302
-22.369
-22.1035
-21.8347
-21.5631
-21.2882
-21.0116
-20.7335
-20.4544
-20.1746
-19.8947
-19.6169
-19.34
-19.0659
-18.7965
-18.53
-18.2694
-18.0154
-17.7691
-17.5311
-17.3029
-17.0856
-16.8802
-16.6875
-16.5095
-16.3467
-16.2001
-16.0707
-15.9605
-15.8698
-15.7992
-15.7498
-15.7232
-15.7185
-15.7377
-15.7801
-15.848
-15.9401
-16.0564
-16.1976
-16.3638
-16.5539
-16.7685
-17.0061
-17.2657
-17.5477
-17.8506
-18.1722
-18.5123
-18.8683
-19.2401
-19.6249
-20.0207
-20.4269
-20.8389
-21.2558
-21.6763
-22.0963
-22.5143
-22.9271
-23.3337
-23.7301
-24.1159
-24.4868
-24.8405
-25.1753
-25.4896
-25.7812
-26.0468
-26.2863
-26.4972
-26.6781
-26.8291
-26.948
-27.0332
-27.0853
-27.1038
-27.0882
-27.0393
-26.9557
-26.8393
-26.6905
-26.5106
-26.3006
-26.0603
-25.7941
-25.5006
-25.1834
-24.8446
-24.4846
-24.1065
-23.7131
-23.3055
-22.8867
-22.4578
-22.0219
-21.5811
-21.1372
-20.6928
-20.2498
-19.8091
-19.3743
-18.9449
-18.5243
-18.1128
-17.7124
-17.3235
-16.9472
-16.5854
-16.2381
-15.9049
-15.588
-15.2861
-15.0007
-14.7313
-14.4774
-14.2399
-14.0184
-13.8119
-13.6207
-13.4435
-13.2811
-13.1332
-12.9982
-12.8753
-12.7654
-12.6677
-12.5817
-12.5064
-12.4416
-12.387
-12.3426
-12.3079
-12.2832
-12.2676
-12.2621
-12.265
-12.2786
-12.3024
-12.3361
-12.3812
-12.4373
-12.5069
-12.5958
-12.673
-28.9583
-29.0123
-29.0758
-29.1253
-29.1646
-29.1948
-29.2162
-29.2289
-29.2334
-29.2299
-29.2187
-29.1995
-29.1729
-29.1392
-29.098
-29.05
-28.9961
-28.9354
-28.8684
-28.7957
-28.7168
-28.6326
-28.5429
-28.4479
-28.3477
-28.2429
-28.1329
-28.0179
-27.8989
-27.7747
-27.6456
-27.5119
-27.3742
-27.2309
-27.0838
-26.931
-26.7739
-26.6117
-26.4455
-26.2733
-26.0968
-25.9145
-25.728
-25.5354
-25.338
-25.1352
-24.9272
-24.7132
-24.4943
-24.2697
-24.0397
-23.8044
-23.564
-23.3182
-23.0677
-22.8117
-22.5509
-22.2868
-22.0176
-21.7453
-21.4698
-21.1914
-20.9101
-20.6273
-20.3436
-20.0596
-19.7758
-19.4931
-19.2119
-18.9339
-18.6595
-18.3898
-18.1257
-17.8685
-17.6195
-17.3793
-17.1496
-16.9307
-16.7251
-16.5324
-16.3548
-16.1935
-16.05
-15.9239
-15.8168
-15.731
-15.6655
-15.6223
-15.6021
-15.605
-15.6329
-15.6841
-15.7607
-15.8622
-15.9898
-16.1407
-16.3174
-16.5181
-16.7426
-16.9916
-17.2607
-17.5527
-17.8642
-18.1944
-18.5419
-18.9045
-19.2816
-19.6715
-20.0702
-20.4771
-20.8889
-21.3051
-21.7214
-22.1367
-22.5482
-22.953
-23.3488
-23.7331
-24.1044
-24.4591
-24.7959
-25.1117
-25.4049
-25.6726
-25.9151
-26.1296
-26.3139
-26.4681
-26.5903
-26.6797
-26.7361
-26.7585
-26.7468
-26.7009
-26.6223
-26.5108
-26.3661
-26.1905
-25.9843
-25.7492
-25.4862
-25.1976
-24.8848
-24.5489
-24.1936
-23.8202
-23.4302
-23.0272
-22.6128
-22.1884
-21.7571
-21.3215
-20.8828
-20.4438
-20.006
-19.5723
-19.1426
-18.7205
-18.3056
-17.9008
-17.5081
-17.1263
-16.7585
-16.4043
-16.0644
-15.7398
-15.4301
-15.1377
-14.8606
-14.5998
-14.3548
-14.1257
-13.9126
-13.7142
-13.5313
-13.3629
-13.2083
-13.0676
-12.9392
-12.8241
-12.72
-12.6284
-12.5465
-12.4762
-12.4156
-12.3654
-12.3234
-12.2919
-12.2686
-12.2543
-12.2493
-12.253
-12.2673
-12.2908
-12.3246
-12.3702
-12.4266
-12.4981
-12.5895
-12.6679
-28.9758
-29.0311
-29.0949
-29.1453
-29.1844
-29.2147
-29.2358
-29.2477
-29.2523
-29.2484
-29.2371
-29.2175
-29.1913
-29.1573
-29.1164
-29.0696
-29.0162
-28.9564
-28.8915
-28.8207
-28.7442
-28.662
-28.5742
-28.4824
-28.386
-28.2846
-28.1786
-28.0679
-27.9527
-27.8326
-27.7086
-27.5793
-27.4467
-27.3088
-27.1671
-27.0202
-26.8683
-26.7112
-26.5506
-26.384
-26.2131
-26.0362
-25.8542
-25.6674
-25.4752
-25.2767
-25.073
-24.8631
-24.6484
-24.4269
-24.1998
-23.9673
-23.7282
-23.4842
-23.2347
-22.9792
-22.7192
-22.4536
-22.1831
-21.9089
-21.6301
-21.348
-21.0626
-20.775
-20.4852
-20.1947
-19.9023
-19.6117
-19.3218
-19.033
-18.7481
-18.4667
-18.1907
-17.9207
-17.6578
-17.4039
-17.1595
-16.9255
-16.7034
-16.4956
-16.3016
-16.1232
-15.9625
-15.819
-15.6953
-15.5915
-15.5089
-15.4488
-15.4107
-15.3973
-15.407
-15.4429
-15.5037
-15.5897
-15.7006
-15.838
-15.9998
-16.1876
-16.3984
-16.6347
-16.8928
-17.1735
-17.4757
-17.7959
-18.1354
-18.4904
-18.8605
-19.2443
-19.6376
-20.0403
-20.4487
-20.8616
-21.2764
-21.6903
-22.1019
-22.5068
-22.9034
-23.2895
-23.6629
-24.02
-24.3597
-24.6794
-24.9768
-25.2496
-25.4976
-25.7167
-25.9069
-26.0668
-26.1941
-26.2895
-26.3516
-26.3811
-26.3751
-26.3363
-26.264
-26.1569
-26.0188
-25.8491
-25.648
-25.4187
-25.1605
-24.8777
-24.57
-24.2399
-23.8892
-23.5213
-23.1365
-22.7383
-22.3285
-21.9088
-21.4826
-21.0529
-20.6193
-20.1855
-19.7534
-19.324
-18.9011
-18.4849
-18.0761
-17.6785
-17.2918
-16.9172
-16.556
-16.2096
-15.8777
-15.5607
-15.2602
-14.976
-14.7068
-14.4539
-14.2177
-13.997
-13.792
-13.6022
-13.4278
-13.2668
-13.1201
-12.9868
-12.8663
-12.7577
-12.6598
-12.5741
-12.4984
-12.4318
-12.3762
-12.3292
-12.2912
-12.2613
-12.2403
-12.2278
-12.2242
-12.2291
-12.2425
-12.2672
-12.3004
-12.3455
-12.4027
-12.474
-12.5654
-12.6438
-29.005
-29.0605
-29.1244
-29.1743
-29.2134
-29.2436
-29.2643
-29.2763
-29.2794
-29.2752
-29.263
-29.243
-29.2167
-29.1835
-29.1433
-29.0963
-29.0437
-28.9848
-28.9208
-28.8518
-28.7771
-28.6976
-28.6131
-28.524
-28.4303
-28.3322
-28.2299
-28.1231
-28.0113
-27.896
-27.7761
-27.6521
-27.5233
-27.3907
-27.2531
-27.1111
-26.9644
-26.8133
-26.6566
-26.4959
-26.3286
-26.1569
-25.9795
-25.7965
-25.6082
-25.4137
-25.2134
-25.0074
-24.7939
-24.5763
-24.351
-24.1195
-23.8817
-23.6384
-23.3877
-23.1312
-22.8691
-22.6012
-22.328
-22.049
-21.7659
-21.4778
-21.1866
-20.8907
-20.593
-20.293
-19.9918
-19.6899
-19.388
-19.0876
-18.7896
-18.4949
-18.204
-17.9191
-17.6397
-17.369
-17.1083
-16.8565
-16.6176
-16.3909
-16.1782
-15.9806
-15.8009
-15.6382
-15.4953
-15.3721
-15.2709
-15.1915
-15.1358
-15.1032
-15.096
-15.1133
-15.1563
-15.2259
-15.3211
-15.4427
-15.59
-15.7632
-15.9619
-16.1847
-16.432
-16.7017
-16.9931
-17.3051
-17.6367
-17.9852
-18.3487
-18.7269
-19.1164
-19.5156
-19.9222
-20.3338
-20.7477
-21.1626
-21.5749
-21.9819
-22.3813
-22.7707
-23.1482
-23.5106
-23.8563
-24.1811
-24.486
-24.7654
-25.0199
-25.2474
-25.4453
-25.6128
-25.7497
-25.8532
-25.9241
-25.9615
-25.9644
-25.934
-25.8701
-25.7717
-25.6413
-25.4791
-25.2864
-25.0644
-24.8133
-24.5379
-24.2367
-23.913
-23.5697
-23.2071
-22.828
-22.4359
-22.031
-21.6179
-21.1978
-20.7727
-20.3446
-19.9163
-19.4902
-19.067
-18.6498
-18.2393
-17.837
-17.446
-17.0657
-16.6982
-16.344
-16.005
-15.6793
-15.3707
-15.0779
-14.8011
-14.5406
-14.2956
-14.068
-13.855
-13.6587
-13.4772
-13.3103
-13.158
-13.0186
-12.8927
-12.7785
-12.6772
-12.586
-12.5063
-12.436
-12.3753
-12.3235
-12.281
-12.2456
-12.2186
-12.1998
-12.1894
-12.1861
-12.1917
-12.2067
-12.2298
-12.2635
-12.308
-12.3641
-12.4338
-12.5242
-12.6025
-29.0473
-29.1023
-29.1651
-29.2144
-29.2521
-29.2816
-29.3016
-29.3127
-29.315
-29.31
-29.2976
-29.2769
-29.2501
-29.2163
-29.1761
-29.1298
-29.0783
-29.0208
-28.9577
-28.8904
-28.8175
-28.7401
-28.6582
-28.5712
-28.4806
-28.3857
-28.2861
-28.1827
-28.0752
-27.9639
-27.8482
-27.728
-27.604
-27.4752
-27.342
-27.205
-27.0623
-26.9155
-26.7637
-26.6061
-26.4439
-26.2756
-26.103
-25.923
-25.7377
-25.546
-25.3477
-25.1438
-24.9325
-24.7156
-24.4904
-24.259
-24.0205
-23.7751
-23.523
-23.2639
-22.9978
-22.7265
-22.4474
-22.1631
-21.8722
-21.5765
-21.2766
-20.9717
-20.6636
-20.3515
-20.0372
-19.7224
-19.4069
-19.0919
-18.7782
-18.4661
-18.1582
-17.8551
-17.5585
-17.2684
-16.9875
-16.7165
-16.4563
-16.209
-15.9753
-15.7575
-15.5555
-15.3722
-15.2077
-15.064
-14.9409
-14.841
-14.765
-14.7117
-14.6848
-14.6838
-14.7083
-14.7601
-14.8386
-14.9429
-15.0762
-15.2341
-15.4188
-15.6291
-15.8646
-16.1239
-16.4057
-16.7091
-17.0331
-17.3747
-17.7335
-18.1068
-18.4936
-18.8899
-19.2952
-19.7072
-20.1226
-20.5384
-20.9541
-21.3642
-21.7693
-22.1646
-22.5481
-22.9176
-23.271
-23.605
-23.9182
-24.2078
-24.4723
-24.7097
-24.9186
-25.0978
-25.2452
-25.3606
-25.4425
-25.4908
-25.5062
-25.4864
-25.4332
-25.3458
-25.2263
-25.0749
-24.8921
-24.6796
-24.439
-24.171
-23.8795
-23.5643
-23.2282
-22.8735
-22.5022
-22.1174
-21.7212
-21.3136
-20.8997
-20.4815
-20.0598
-19.6381
-19.2171
-18.8004
-18.3894
-17.9852
-17.5891
-17.2042
-16.8307
-16.4701
-16.1225
-15.7901
-15.4729
-15.1712
-14.8857
-14.6169
-14.3641
-14.1269
-13.907
-13.7025
-13.5137
-13.3404
-13.1815
-13.0363
-12.9051
-12.7863
-12.6795
-12.5847
-12.4999
-12.426
-12.3605
-12.3051
-12.2577
-12.2189
-12.1874
-12.1643
-12.1476
-12.1371
-12.1362
-12.1431
-12.1565
-12.18
-12.2128
-12.256
-12.3104
-12.3783
-12.4664
-12.5414
-29.101
-29.1544
-29.2166
-29.2642
-29.3019
-29.3289
-29.3482
-29.3577
-29.3598
-29.3531
-29.3392
-29.3187
-29.2909
-29.257
-29.2174
-29.171
-29.1203
-29.063
-29.0018
-28.9348
-28.864
-28.7884
-28.7084
-28.6246
-28.5367
-28.4442
-28.3478
-28.2482
-28.1436
-28.036
-27.9231
-27.8074
-27.6871
-27.562
-27.4333
-27.2995
-27.161
-27.0182
-26.8693
-26.7158
-26.5567
-26.3921
-26.2216
-26.0445
-25.8609
-25.6717
-25.4748
-25.2716
-25.06
-24.8423
-24.6168
-24.3835
-24.1428
-23.8941
-23.6383
-23.3742
-23.103
-22.8237
-22.5381
-22.2445
-21.9452
-21.6392
-21.3273
-21.0102
-20.6884
-20.3628
-20.034
-19.7033
-19.3705
-19.0377
-18.7052
-18.3748
-18.0465
-17.7228
-17.4045
-17.0923
-16.7888
-16.4951
-16.2114
-15.9408
-15.6843
-15.442
-15.2167
-15.0093
-14.8216
-14.6542
-14.5087
-14.3855
-14.2868
-14.2126
-14.1644
-14.1418
-14.1467
-14.1797
-14.2397
-14.3276
-14.4434
-14.5866
-14.7571
-14.9547
-15.1769
-15.4252
-15.6984
-15.9926
-16.3089
-16.6451
-16.9985
-17.3688
-17.7524
-18.1481
-18.5539
-18.9674
-19.3845
-19.8048
-20.2242
-20.6411
-21.0521
-21.4552
-21.848
-22.2276
-22.5909
-22.9364
-23.2609
-23.5633
-23.8407
-24.0923
-24.3151
-24.5083
-24.6704
-24.7995
-24.897
-24.9597
-24.9889
-24.9843
-24.9449
-24.8724
-24.7664
-24.6282
-24.4581
-24.2587
-24.0298
-23.7745
-23.4938
-23.1892
-22.8634
-22.5199
-22.1575
-21.7817
-21.393
-20.9951
-20.5884
-20.1779
-19.7635
-19.3487
-18.935
-18.525
-18.1205
-17.7228
-17.3339
-16.9553
-16.5887
-16.2349
-15.8945
-15.5684
-15.2582
-14.9643
-14.6856
-14.4239
-14.1786
-13.9497
-13.7372
-13.5405
-13.3593
-13.1938
-13.0425
-12.9046
-12.7804
-12.669
-12.5693
-12.4802
-12.4032
-12.3348
-12.2748
-12.2244
-12.1815
-12.1469
-12.119
-12.0976
-12.0834
-12.0764
-12.0753
-12.0813
-12.096
-12.1186
-12.1493
-12.1911
-12.243
-12.3078
-12.3916
-12.4633
-29.1668
-29.2188
-29.2789
-29.3245
-29.3604
-29.386
-29.4027
-29.4117
-29.4111
-29.4044
-29.3891
-29.3678
-29.34
-29.3056
-29.2655
-29.2195
-29.1687
-29.1131
-29.0517
-28.9869
-28.9168
-28.8431
-28.7646
-28.6832
-28.5978
-28.5076
-28.4148
-28.3173
-28.216
-28.1112
-28.002
-27.8896
-27.7724
-27.6516
-27.5259
-27.3952
-27.2602
-27.1202
-26.9746
-26.8233
-26.6664
-26.5036
-26.335
-26.1594
-25.9771
-25.7874
-25.5906
-25.387
-25.1741
-24.9539
-24.7261
-24.4897
-24.2441
-23.9903
-23.7282
-23.4569
-23.178
-22.89
-22.5943
-22.2905
-21.9784
-21.6595
-21.3345
-21.0016
-20.6639
-20.3215
-19.9746
-19.6244
-19.2719
-18.9176
-18.5637
-18.2104
-17.8592
-17.5117
-17.1687
-16.8324
-16.5034
-16.1833
-15.8736
-15.5768
-15.2933
-15.0244
-14.7731
-14.539
-14.3247
-14.1316
-13.9604
-13.8126
-13.6896
-13.5911
-13.5201
-13.4752
-13.4599
-13.4714
-13.5117
-13.5807
-13.6796
-13.806
-13.9619
-14.1453
-14.3556
-14.5924
-14.8554
-15.1409
-15.4501
-15.7801
-16.1299
-16.4968
-16.8793
-17.2751
-17.6817
-18.0988
-18.5191
-18.9441
-19.3711
-19.7955
-20.216
-20.6297
-21.0334
-21.4244
-21.8016
-22.1615
-22.5006
-22.8191
-23.1133
-23.381
-23.6221
-23.8325
-24.0115
-24.1609
-24.2757
-24.3577
-24.4054
-24.4179
-24.3974
-24.3423
-24.2535
-24.1322
-23.9792
-23.7946
-23.5818
-23.3418
-23.075
-22.7836
-22.4718
-22.1398
-21.7898
-21.4249
-21.0475
-20.6588
-20.2625
-19.8605
-19.455
-19.0489
-18.6433
-18.2408
-17.8441
-17.4532
-17.0721
-16.7011
-16.3409
-15.9935
-15.6602
-15.3418
-15.0382
-14.7507
-14.4798
-14.2252
-13.9873
-13.7657
-13.5601
-13.3707
-13.1976
-13.0391
-12.8948
-12.7644
-12.6479
-12.5425
-12.45
-12.3682
-12.2956
-12.233
-12.1794
-12.1338
-12.0947
-12.0639
-12.0393
-12.0208
-12.0085
-12.003
-12.0033
-12.0095
-12.0236
-12.0446
-12.0743
-12.1126
-12.1616
-12.2228
-12.3011
-12.3681
-29.2443
-29.2942
-29.3515
-29.3948
-29.4284
-29.4518
-29.467
-29.4735
-29.4724
-29.4637
-29.4478
-29.4254
-29.3962
-29.3612
-29.321
-29.2751
-29.2246
-29.1692
-29.1088
-29.0445
-28.9766
-28.9037
-28.8281
-28.7478
-28.664
-28.5769
-28.4853
-28.391
-28.2923
-28.1903
-28.0843
-27.9743
-27.8603
-27.742
-27.6185
-27.491
-27.358
-27.2196
-27.0764
-26.9266
-26.7716
-26.6098
-26.4416
-26.2662
-26.083
-25.8925
-25.6942
-25.4877
-25.2725
-25.0485
-24.8162
-24.5736
-24.3216
-24.0613
-23.7901
-23.5099
-23.2201
-22.9204
-22.6122
-22.294
-21.9676
-21.6328
-21.29
-20.9397
-20.583
-20.2195
-19.851
-19.4784
-19.1023
-18.7239
-18.3456
-17.966
-17.5886
-17.2133
-16.8426
-16.4772
-16.1196
-15.7702
-15.4319
-15.1046
-14.7919
-14.4938
-14.2123
-13.9493
-13.7064
-13.4837
-13.2854
-13.11
-12.9592
-12.8356
-12.739
-12.67