/*--------------------------------*- C++ -*----------------------------------*\
  =========                 |
  \\      /  F ield         | OpenFOAM: The Open Source CFD Toolbox
   \\    /   O peration     | Website:  https://openfoam.org
    \\  /    A nd           | Version:  6
     \\/     M anipulation  |
\*---------------------------------------------------------------------------*/
FoamFile
{
    version     2.0;
    format      ascii;
    class       volScalarField;
    location    "0";
    object      p;
}
// * * * * * * * * * * * * * * * * * * * * * * * * * * * * * * * * * * * * * //

dimensions      [0 2 -2 0 0 0 0];

internalField   nonuniform List<scalar> 
918
(
0.185206
0.953178
0.00618995
0.184479
0.000945915
0.921963
-0.855558
0.370322
0.163228
-0.147645
0.020005
0.157066
0.773301
0.539951
-1.5296
0.0156041
0.324082
-0.690981
0.162391
0.00506234
0.442105
0.16971
0.172976
0.165128
0.217615
0.515279
0.645786
0.00125195
-0.0037896
-0.00149609
0.00354272
0.000804808
0.00564275
0.795035
0.841332
0.860023
0.134847
-0.0250476
-0.721399
-0.791424
-0.772039
-0.877308
0.358212
0.360108
-0.531073
0.370147
0.381868
0.151509
0.162452
0.163212
0.16491
0.163668
0.164925
0.286608
-0.181583
-0.254539
-0.0827743
-0.0626586
0.0747048
0.0191821
0.0101704
0.0229716
0.0242833
0.0932265
0.152219
0.147853
0.162878
0.172284
0.878665
0.85063
0.873391
0.79848
0.815685
0.747469
0.719678
0.559707
0.582727
0.526327
0.513931
-1.99888
-2.97128
-0.935891
-0.653007
0.00172894
0.0211417
0.0248996
0.309308
0.311569
0.318612
0.330765
0.801409
-0.669344
-0.772215
0.161157
0.160206
0.168476
0.170191
0.166515
0.166099
0.0130892
0.0227611
0.000137627
0.00617058
0.00605316
0.416688
0.414211
0.164678
0.162024
0.180321
0.203306
0.194052
-0.0709781
0.232706
0.251942
0.342082
0.507339
0.5018
0.511095
0.619905
0.588718
0.677487
0.702008
0.00600399
0.00163029
0.0107666
0.00821449
0.00981248
0.129889
0.124311
0.142446
0.136131
0.137274
-0.114577
-0.255002
0.0458012
0.0690729
-0.645993
-0.699239
-0.748257
-0.799429
-0.859728
0.153805
0.347066
0.351434
-0.542969
-0.466239
-0.604549
-0.404099
-0.469808
0.140071
0.148818
0.144755
0.158862
0.153432
0.155114
0.166225
0.163534
0.165088
0.311275
0.381844
0.244476
0.219075
-0.486505
-0.325961
-0.452141
-0.0329005
-0.0254415
0.0858846
0.0983301
0.0654585
0.0633883
0.00394651
0.0121936
0.00784123
0.0242791
0.0273069
0.0876965
0.0767098
0.100729
0.107586
0.144141
0.143702
0.146261
0.147445
0.667675
0.690672
0.698911
0.675293
-3.96945
-6.67252
-0.295929
-0.130921
0.00225213
0.00316948
0.00138135
0.00370277
0.00373064
0.00113586
0.0394001
0.0388449
0.0291586
0.0353544
0.296523
0.299326
0.781668
0.797517
0.733194
0.693519
0.149538
0.151919
0.157796
0.154173
0.0277752
0.0250605
0.0290645
0.381297
0.398021
0.396685
-0.106272
-0.194617
-0.02233
0.00511008
0.288209
0.266626
0.291642
0.405854
0.448375
0.715037
0.739304
0.726981
0.742974
0.790975
0.810858
0.775891
0.113006
0.12249
0.11747
0.149046
0.146008
0.146951
0.143863
0.14384
0.142448
-0.385581
-0.754172
0.134464
0.128827
0.0993957
0.106798
0.226525
0.303026
0.326407
0.336872
0.336654
-0.352269
-0.405023
0.182441
0.168977
0.0301418
0.0623
0.0459602
0.643864
0.606306
0.653597
0.629057
0.592441
0.614941
-0.686403
-2.46497
-1.41523
0.279423
0.0729219
0.170823
0.0548156
0.0432882
0.0476377
0.756194
0.752405
0.436487
0.577179
0.54149
0.4761
0.503917
0.563217
0.496127
0.529548
0.561327
0.536843
0.118975
0.142009
0.117449
0.37916
0.450023
-0.228287
-0.292013
-0.329865
0.108989
0.141423
0.12622
0.674696
0.533647
0.623894
0.162835
0.162493
0.0115169
0.0201452
0.165081
0.165161
0.00684686
0.00825396
0.173677
-1.30199
-0.21345
0.155847
0.146425
0.161156
-0.144057
0.290408
0.0180423
0.082313
0.05773
0.152706
0.102606
0.0653141
0.00763029
0.0197436
0.0163837
-0.470106
0.159942
0.157568
0.160643
0.16186
0.162599
0.00931936
0.0108463
0.00731286
0.0134814
0.0111976
0.0103483
0.131315
0.141803
-0.503241
0.16088
0.162876
0.162563
0.157399
0.161318
0.159434
0.0150254
0.0105213
0.00976511
-0.123887
0.00250402
0.391648
0.496366
0.319903
0.138371
-0.150854
0.310796
0.372719
0.281171
0.436072
0.327961
0.346428
-0.161953
-0.303451
-0.149067
-0.210993
0.153154
0.151617
0.143849
0.140675
0.155932
0.153945
0.158707
0.156646
0.159363
0.160328
-0.0824796
-0.0640602
-0.195849
-0.271299
0.32055
0.406376
0.195219
0.231821
0.134238
0.0227786
0.0219931
0.0173465
0.015934
0.0505681
0.0612186
0.0750389
0.0640321
0.0473821
0.0461121
0.0510248
0.0576467
0.0622717
0.147903
0.146755
0.151061
0.159168
0.110613
0.113222
0.0839007
0.10133
0.0923521
0.0378373
0.0660542
0.0436315
0.00837337
0.00916475
0.00766309
0.0238384
0.0267764
0.0153632
0.0130882
0.0136521
0.0111129
0.0118208
0.0197823
0.0223372
-0.512959
-0.593621
0.702839
0.635668
-0.585325
0.149736
0.153504
0.151526
0.155785
0.158488
0.158789
0.157032
0.154778
0.142894
0.145388
0.140164
0.141258
-0.457525
-0.598957
-0.407346
-0.48211
-0.20259
0.271824
0.011139
-0.0438137
-0.0526659
0.160607
0.351158
0.306921
0.431441
0.424392
-0.747864
-0.316565
-0.665042
-0.115407
-0.148858
0.410533
0.456717
0.477093
0.430823
0.380976
-0.387514
0.156236
-0.38812
-0.364726
-0.196082
-0.265349
0.37315
0.311058
0.31915
0.334416
0.360795
0.317448
0.304655
0.30018
0.328409
0.335179
0.140255
-0.0801852
-0.125721
-0.165273
0.294127
0.178602
0.230373
0.144129
0.147119
0.150396
0.14986
0.136247
0.138069
0.135195
0.140741
0.143409
0.15128
0.151884
0.147757
0.14926
-0.0365114
-0.019006
-0.172619
-0.413895
-0.290546
-0.379074
-0.272141
-0.0213938
0.0403789
-0.274136
0.112213
-0.20717
-0.503557
-0.369341
-0.598681
-0.20928
-0.37035
0.088945
0.146026
0.156313
0.137729
0.19548
0.1776
0.0357809
0.0431901
0.0279916
0.0268541
0.0857533
0.105873
0.106581
0.044865
0.0484146
0.0239867
0.0248472
0.060194
0.038635
0.0481296
0.0582689
0.0199427
0.0232938
0.0277119
0.0351387
0.0374622
0.0386289
0.141521
0.144275
0.141656
0.15545
0.164156
0.17763
0.152013
0.128967
0.118694
0.123363
0.102456
0.107225
0.108608
0.116714
0.13358
0.139885
0.138722
0.139894
0.126813
0.128192
0.114043
0.118904
0.102275
0.0850164
0.0737535
0.0177552
0.0115315
0.0152722
0.0149964
0.0105228
0.0121841
0.0411655
0.0319483
0.0354533
0.0308581
0.0374423
0.0175066
0.018547
-0.634343
-0.699618
-0.562868
-0.600316
-0.628693
0.60341
0.651893
0.546857
0.277705
0.258985
0.491287
0.681666
0.387577
0.476239
0.491367
0.100833
0.37804
0.153969
0.153634
0.150936
0.150566
0.1515
-0.373354
-0.273836
-0.257425
-0.215151
-0.0831008
0.0200158
0.0351444
-0.183106
-0.043346
0.022173
0.269945
0.282334
0.226683
0.248357
0.246111
0.0808404
0.157927
0.197409
0.157912
0.206408
0.232771
0.188122
0.220546
0.162802
0.124746
0.12254
0.0657754
0.0948056
0.0769724
0.054703
0.142931
0.124448
0.133271
0.125114
0.143385
0.175635
0.169357
0.188763
0.206371
0.133158
0.089648
0.103865
0.131756
0.0881538
0.101229
0.118259
-0.195801
-0.273617
-0.161763
-0.496767
-0.352504
-0.333088
-0.369087
-0.438421
-0.134835
-0.783868
-0.70557
-1.38567
0.0918753
0.498565
0.33227
0.343456
0.35814
0.333989
0.337737
0.364088
0.37393
0.285798
0.302918
0.305852
0.258217
0.290984
0.305511
0.307453
0.121006
0.0533954
0.0360855
-0.00445635
-0.142037
-0.113731
0.0726947
0.0130416
-0.0580891
-0.0577911
0.115204
0.00671826
0.0687652
0.10741
0.0564102
-0.00545309
0.200087
0.257573
0.247103
0.215889
0.132354
0.150797
0.167755
0.204155
0.234238
0.26691
0.140877
0.144984
0.147348
0.144915
0.140304
0.143829
0.14458
0.145593
0.146278
0.148346
0.14716
0.0143313
0.0156592
-0.000828252
0.0096648
-0.0263141
-0.0552218
0.000785361
-0.0651849
0.026318
0.0211866
-0.0140934
-0.0147777
-0.00367525
0.00833222
0.106012
0.115579
0.100828
0.0621706
-0.0194626
0.278638
0.257505
0.135419
0.0333766
0.127472
0.237672
0.069453
0.0775643
0.0683427
0.0851057
0.0805961
0.031989
0.0278854
0.033213
0.0414805
0.0366339
0.0302979
0.0236636
0.0256699
0.0282613
0.0272986
0.0277548
0.127872
0.122148
0.125331
0.119009
0.118052
0.130889
0.134207
0.134898
0.13924
0.141166
0.133366
0.137383
0.140681
0.027414
0.0218291
0.023688
0.0238869
0.022844
0.0203932
0.0210924
-0.360141
-0.725909
-0.731151
-0.553687
-0.566997
-0.564829
0.149318
0.0514146
0.128713
0.247825
0.139589
0.0435448
0.0953923
0.19231
-0.144197
0.0581728
-0.109288
0.496761
0.346539
0.491315
0.114997
-0.139151
-0.00845104
0.018514
-0.140916
-0.0498141
-0.0308647
-0.156881
-0.125611
-0.0956175
-0.0169582
-0.112772
-0.14656
-0.34317
-0.138182
-0.0827125
-0.100389
0.0324175
0.0864849
-0.0408781
-0.175089
-0.233429
0.252711
0.272918
0.28777
0.261238
0.280999
0.211523
0.20084
0.219634
0.229118
0.224007
-1.03703
-0.6518
-1.81361
-1.22101
-0.765124
0.117919
0.095524
0.346646
0.262758
0.338172
0.326008
0.275332
0.240281
0.253852
0.289278
-0.00311763
0.101333
0.0632998
0.0862729
0.0183945
-0.0550493
0.216073
0.222472
0.248123
0.275709
0.249377
0.278576
0.137553
0.137649
0.139704
0.13777
0.132801
0.134821
0.0697069
0.0552351
0.0503444
0.0377329
0.0349472
0.0398778
0.0313087
0.0292966
0.0252946
0.0253258
0.0286526
0.0333775
-0.191662
-0.320473
-0.455387
-0.391504
-0.38016
-0.49254
-0.482798
-0.40516
-0.273995
-0.296319
-0.115225
0.242425
0.015567
0.239669
-0.181128
0.0674274
0.134189
0.0958266
0.127199
0.0272125
0.129517
-0.359026
-0.559423
-0.591711
0.410993
0.368379
0.159589
-0.0991098
-0.205002
0.0945375
0.153682
0.118457
0.155649
0.207062
0.201547
-0.397489
-0.328176
-0.22199
0.0642234
-0.151686
-0.159849
-0.14599
-0.0209969
-0.051319
)
;

boundaryField
{
    wall-4
    {
        type            zeroGradient;
    }
    velocity-inlet-5
    {
        type            zeroGradient;
    }
    velocity-inlet-6
    {
        type            zeroGradient;
    }
    pressure-outlet-7
    {
        type            fixedValue;
        value           uniform 0;
    }
    wall-8
    {
        type            zeroGradient;
    }
    frontAndBackPlanes
    {
        type            empty;
    }
}

