/*--------------------------------*- C++ -*----------------------------------*\
  =========                 |
  \\      /  F ield         | OpenFOAM: The Open Source CFD Toolbox
   \\    /   O peration     | Website:  https://openfoam.org
    \\  /    A nd           | Version:  6
     \\/     M anipulation  |
\*---------------------------------------------------------------------------*/
FoamFile
{
    version     2.0;
    format      ascii;
    class       volVectorField;
    location    "0";
    object      U;
}
// * * * * * * * * * * * * * * * * * * * * * * * * * * * * * * * * * * * * * //

dimensions      [0 1 -1 0 0 0 0];

internalField   nonuniform List<vector> 
13046
(
(0.367831 0.165943 0)
(0.404202 -0.0195655 3.58669e-21)
(0.200943 0.0331997 8.01847e-21)
(0.369935 0.11923 0)
(0.223896 0.0755264 7.21198e-21)
(0.348974 -0.0180767 0)
(0.388687 0.127332 -1.05608e-21)
(0.363739 -0.0390191 -1.83776e-21)
(0.210091 0.0835076 7.96501e-21)
(0.502442 0.234815 -3.91919e-21)
(0.625954 -0.236922 0)
(0.0371118 0.0551833 -5.42378e-21)
(0.413476 0.175937 6.70477e-21)
(0.435695 -0.0636067 5.68797e-21)
(0.166467 0.0497118 -4.43527e-21)
(0.479848 0.26929 -1.75734e-21)
(0.0453027 0.0311607 -8.67939e-21)
(0.657591 -0.186822 -2.92757e-21)
(0.277802 0.116174 0)
(0.285356 0.00125921 3.89776e-21)
(0.367744 0.0671245 -1.09952e-20)
(0.485297 0.2629 2.16593e-21)
(0.0424247 0.0371512 1.73803e-20)
(0.650488 -0.197469 -9.61787e-22)
(0.347671 0.130949 -4.43514e-21)
(0.363253 0.00170935 6.59346e-21)
(0.228024 0.0474477 0)
(0.413041 0.19136 -6.17888e-23)
(0.451046 -0.0662605 -1.66312e-21)
(0.158111 0.0393893 1.53244e-20)
(0.36669 0.177831 0)
(0.419138 -0.0164865 0)
(0.196318 0.0202041 -8.16326e-21)
(0.331506 0.117717 1.55134e-20)
(0.243614 0.0469902 -2.6961e-21)
(0.348088 0.0187819 -1.02273e-20)
(0.330715 0.105043 3.49143e-23)
(0.254049 0.0588674 0)
(0.333118 0.0230481 0)
(0.321945 0.193807 -5.75651e-21)
(0.243776 -0.0461008 -7.45874e-21)
(0.446249 0.0230201 5.43409e-21)
(0.318283 0.0717262 -3.57261e-21)
(0.286574 0.0720625 3.64221e-21)
(0.300864 0.0440547 0)
(0.333715 0.0729055 -2.25979e-21)
(0.277414 0.0850375 0)
(0.296178 0.029461 1.17748e-21)
(0.37814 0.160544 0)
(0.400265 -0.0322004 2.58027e-22)
(0.191125 0.0445302 -5.42415e-24)
(0.310873 -0.122233 -9.39766e-21)
(0.285943 0.216594 0)
(0.493913 0.0502468 6.68013e-21)
(0.338441 -0.143504 1.33845e-20)
(0.502875 0.0608816 7.21335e-21)
(0.268377 0.212091 -9.04853e-21)
(0.605941 -0.0914225 1.31336e-21)
(0.437408 0.291333 0)
(0.122426 -0.027748 -7.13023e-21)
(0.484715 0.16153 3.22468e-21)
(0.468611 -0.14847 -3.40485e-21)
(0.14877 0.110228 1.85933e-20)
(0.0685268 0.0616094 -9.86919e-21)
(0.599377 -0.198516 2.15266e-21)
(0.506868 0.229378 5.72122e-21)
(0.424239 0.295014 0)
(0.594604 -0.0720377 -6.14302e-21)
(0.14333 -0.0477444 -2.08335e-21)
(0.415075 0.288505 2.57391e-21)
(0.579149 -0.0616909 8.32488e-21)
(0.153548 -0.0505109 2.83272e-21)
(0.62486 -0.10097 1.36423e-23)
(0.44418 0.296902 -6.86647e-23)
(0.112066 -0.0276131 4.68673e-24)
(0.285636 0.128803 0)
(0.275597 -0.00717984 -4.24767e-21)
(0.381023 0.0561288 7.82888e-21)
(0.0857667 -0.00493466 -7.923e-21)
(0.458678 0.290133 8.22661e-21)
(0.637669 -0.129745 2.89684e-21)
(0.360231 0.133346 -2.33021e-21)
(0.36401 -0.0100692 2.35839e-21)
(0.21814 0.0581306 0)
(0.0601431 0.0585937 8.88343e-21)
(0.612372 -0.207623 0)
(0.508356 0.23412 -3.41672e-21)
(0.53597 0.187036 5.97171e-21)
(0.0899265 0.100669 0)
(0.560297 -0.231875 1.67621e-21)
(0.115731 0.140472 0)
(0.569373 0.14433 0)
(0.528744 -0.274831 -2.24943e-22)
(0.467389 0.216566 6.7064e-21)
(0.480452 0.216068 -9.36291e-21)
(0.529768 -0.129999 -6.61925e-21)
(0.541398 -0.147913 3.10564e-21)
(0.112708 0.0518538 4.05153e-21)
(0.104258 0.0613294 -1.03702e-20)
(0.101381 0.111157 4.97056e-22)
(0.540933 0.175539 -5.8417e-21)
(0.546547 -0.23659 0)
(0.345973 0.084311 1.54278e-23)
(0.263507 0.0866031 0)
(0.306185 0.0139964 0)
(0.243224 0.176731 -1.61297e-20)
(0.46907 0.0836377 3.29311e-21)
(0.343339 -0.112794 0)
(0.28977 0.200734 -2.47911e-21)
(0.289634 -0.0906819 0)
(0.468249 0.0464389 1.25416e-20)
(0.464145 0.224722 0)
(0.0184911 0.0449475 7.42963e-21)
(0.586689 -0.2502 2.33886e-21)
(0.398217 0.166192 -4.65091e-21)
(0.417608 -0.0494243 -2.40989e-21)
(0.177767 0.0528631 -7.98549e-21)
(0.470299 0.243146 -3.90665e-21)
(0.462371 0.232277 3.64735e-21)
(0.571036 -0.136003 -1.83805e-21)
(0.0965411 0.0339616 -4.65285e-21)
(0.545966 -0.124128 1.78779e-21)
(0.107445 0.0372199 4.34723e-21)
(0.49323 0.238474 1.02932e-20)
(0.627731 -0.238991 3.30448e-21)
(0.0309142 0.050767 2.4333e-21)
(0.441849 0.209408 0)
(0.494526 -0.0998247 4.38332e-21)
(0.132273 0.0407501 -2.35107e-20)
(0.338088 0.198762 0)
(0.225173 -0.0341984 7.50606e-21)
(0.448278 0.00853018 -3.3066e-22)
(0.127621 0.147999 0)
(0.564581 0.139679 0)
(0.518877 -0.26294 0)
(0.504415 0.208783 0)
(0.557636 -0.182097 8.62623e-21)
(0.0952885 0.0772085 1.05023e-20)
(0.381099 0.187243 0)
(0.436008 -0.0310798 0)
(0.184344 0.016568 0)
(0.43979 0.129643 0)
(0.389769 -0.0928322 0)
(0.196208 0.115779 0)
(0.279277 0.201241 2.29407e-21)
(0.309102 -0.1056 0)
(0.476252 0.0555897 -6.76478e-21)
(0.246072 0.168356 1.56308e-20)
(0.459198 0.0843636 7.03204e-21)
(0.339972 -0.10116 -8.14994e-21)
(0.491262 0.170611 -7.78031e-21)
(0.487823 -0.158596 0)
(0.135815 0.100814 -2.42154e-20)
(0.236753 0.133828 0)
(0.422912 0.0953513 -1.5113e-20)
(0.334291 -0.0657067 -2.0766e-21)
(0.391631 -0.16972 -3.74857e-21)
(0.511292 0.0900175 -7.65863e-21)
(0.418352 -0.18275 0)
(0.517063 0.104516 -4.42327e-21)
(0.226777 0.192332 -7.83974e-21)
(0.205753 0.17946 7.52965e-21)
(0.455733 0.109874 -9.67146e-22)
(0.374812 -0.108742 -4.27942e-21)
(0.211271 0.138829 4.55906e-21)
(0.514082 0.225191 4.02118e-21)
(0.0417156 0.0623876 -2.81747e-21)
(0.612936 -0.245523 4.13514e-21)
(0.475316 0.232182 3.08464e-21)
(0.0218766 0.0465265 1.11433e-21)
(0.609038 -0.245921 0)
(0.503461 0.217619 -7.11264e-23)
(0.570927 -0.184073 0)
(0.0862029 0.06962 -1.2691e-20)
(0.357292 0.233556 0)
(0.490942 -0.00626413 -1.75717e-21)
(0.216263 -0.0571603 -4.41971e-21)
(0.448991 0.101672 -6.38331e-21)
(0.224219 0.147447 0)
(0.357247 -0.0958701 0)
(0.0544912 0.0786893 0)
(0.592937 -0.255647 0)
(0.532456 0.20642 -3.42652e-21)
(0.34479 0.221837 0)
(0.475848 0.0052937 3.78218e-21)
(0.227027 -0.0527519 -1.13887e-21)
(0.235178 0.142959 0)
(0.431365 0.0924446 0)
(0.332674 -0.0757052 0)
(0.426595 0.12204 -3.14682e-21)
(0.374625 -0.0799553 0)
(0.20344 0.111498 0)
(0.449711 -0.0878764 3.13578e-23)
(0.154596 0.0644241 5.42458e-21)
(0.434069 0.198802 -9.84176e-21)
(0.477119 -0.0891168 0)
(0.142551 0.0457748 2.42803e-20)
(0.527079 0.209458 6.87417e-21)
(0.070889 0.0803951 -8.03234e-21)
(0.589641 -0.228265 8.11457e-21)
(0.12219 0.13483 -7.32286e-21)
(0.550765 0.15357 -3.57688e-21)
(0.524672 -0.244888 -8.41048e-21)
(0.556794 0.166236 1.02486e-20)
(0.549572 -0.258975 0)
(0.0967667 0.119413 7.20225e-21)
(0.315064 -0.147288 3.85969e-21)
(0.523217 0.0395515 -3.0264e-21)
(0.298661 0.247357 -7.69205e-21)
(0.415198 0.146888 6.16242e-21)
(0.452795 0.297356 -4.15296e-21)
(0.0932264 -0.0138041 4.87775e-21)
(0.642778 -0.122727 -1.36273e-23)
(0.559626 -0.265648 0)
(0.554234 0.174779 3.10745e-21)
(0.0841418 0.108201 0)
(0.345589 0.100267 1.14335e-20)
(0.249563 0.0749476 0)
(0.324372 0.00929678 -3.87082e-21)
(0.4028 0.197591 0)
(0.453409 -0.053748 2.40071e-22)
(0.16686 0.0283527 -4.52067e-21)
(0.129704 0.144567 -5.60589e-21)
(0.557084 0.144743 0)
(0.516918 -0.252522 9.68597e-21)
(0.428484 0.155808 0)
(0.438263 -0.0899944 -1.03209e-20)
(0.161241 0.0741252 0)
(0.0321461 0.0590244 0)
(0.596467 -0.25965 -3.54425e-21)
(0.505476 0.218985 0)
(0.282139 0.237322 8.32358e-21)
(0.523084 0.0489067 0)
(0.334438 -0.161046 0)
(0.550378 0.165353 -8.99667e-21)
(0.542384 -0.248161 0)
(0.103771 0.119767 8.3592e-24)
(0.485699 0.108251 -8.50505e-21)
(0.394885 -0.145525 -3.26022e-21)
(0.205772 0.159096 1.04894e-20)
(0.437685 0.219803 0)
(0.502973 -0.0939767 -4.09318e-21)
(0.13175 0.0308733 -2.45048e-21)
(0.475719 -0.246798 1.20856e-20)
(0.559663 0.113156 6.39859e-21)
(0.17349 0.181767 -4.41741e-21)
(0.531131 0.104643 0)
(0.434216 -0.201988 4.74943e-21)
(0.200216 0.183824 1.58169e-22)
(0.0315867 0.0609094 5.71895e-21)
(0.580554 -0.267188 0)
(0.507532 0.209259 3.69043e-21)
(0.316279 0.218832 -1.07372e-20)
(0.264778 -0.0828843 5.50815e-21)
(0.479584 0.0269566 5.52545e-22)
(0.425296 0.241112 -3.39319e-21)
(0.0119103 0.0337342 6.15987e-22)
(0.60321 -0.216896 0)
(0.26164 0.105322 -2.37614e-21)
(0.366856 0.0797236 8.8874e-21)
(0.300326 -0.0046777 -1.16685e-20)
(0.477474 0.130357 -3.47687e-21)
(0.475034 0.11515 -2.65984e-23)
(0.419492 -0.139236 7.95642e-21)
(0.395399 -0.133526 7.81388e-21)
(0.200955 0.147605 -8.31836e-21)
(0.180693 0.133204 4.30651e-21)
(0.0736877 0.00339888 1.03689e-20)
(0.462982 0.288193 -4.32444e-21)
(0.650253 -0.140094 0)
(0.42423 0.221109 0)
(0.495926 -0.0757602 0)
(0.144755 0.0199417 9.76335e-21)
(0.538748 0.115185 1.66048e-21)
(0.455894 -0.217443 0)
(0.183712 0.175226 0)
(0.487359 0.227834 -3.66282e-21)
(0.56725 -0.158803 0)
(0.0910235 0.054454 -4.63913e-21)
(0.30893 0.0809499 -2.41718e-21)
(0.313384 0.0498608 -3.51482e-21)
(0.283443 0.059815 1.20845e-21)
(0.505134 0.114955 5.64733e-21)
(0.422492 -0.171132 0)
(0.193894 0.163175 7.26188e-21)
(0.42322 0.231246 0)
(0.509189 -0.0744149 -5.11295e-21)
(0.142413 0.0097833 6.30037e-21)
(0.430455 0.170329 -1.0101e-20)
(0.443363 0.176987 8.12784e-21)
(0.31791 0.227371 8.47584e-21)
(0.267238 -0.092817 -1.59714e-20)
(0.489511 0.0263511 1.22318e-20)
(0.509932 0.126731 5.86974e-21)
(0.443369 -0.181336 -6.93665e-21)
(0.175841 0.151208 -6.62679e-21)
(0.495894 0.227107 1.30594e-20)
(0.0844745 0.0602973 1.63305e-20)
(0.576697 -0.172408 4.29455e-21)
(0.292498 0.190338 3.72462e-21)
(0.282624 -0.0788174 0)
(0.456759 0.047506 -4.22676e-21)
(0.233992 0.205185 8.49531e-21)
(0.521128 0.082954 4.41098e-21)
(0.389181 -0.180881 0)
(0.448209 0.253357 1.25667e-21)
(0.561611 -0.105085 4.51924e-21)
(0.112566 0.0103698 -2.89451e-21)
(0.300782 0.227241 -7.00549e-22)
(0.296653 -0.116216 0)
(0.498329 0.0408295 -9.1908e-21)
(0.456819 0.259534 0)
(0.465697 0.255355 0)
(0.579986 -0.116588 2.93051e-21)
(0.103248 0.0130248 7.53223e-21)
(0.584614 -0.130938 -4.14608e-21)
(0.0948184 0.0238505 -8.00731e-21)
(0.0566251 0.0745132 6.2529e-21)
(0.600347 -0.243931 0)
(0.52758 0.214038 4.53281e-21)
(0.450643 0.232051 0)
(0.532229 -0.109978 2.07699e-21)
(0.116853 0.0291809 -2.55597e-21)
(0.523635 -0.235017 -6.67463e-21)
(0.00919583 0.0344184 -9.17642e-21)
(0.408261 0.208312 -8.8632e-21)
(0.403438 0.082587 1.21603e-20)
(0.25274 0.129923 0)
(0.310995 -0.0411518 4.38236e-21)
(0.468588 0.15822 -7.81727e-21)
(0.451022 -0.129503 0)
(0.155345 0.103142 -1.41871e-20)
(0.0771198 0.0777382 5.09083e-21)
(0.520636 0.210815 -1.24687e-20)
(0.582049 -0.213644 -6.10341e-21)
(0.346272 -0.155328 5.02929e-21)
(0.512206 0.0615606 0)
(0.264852 0.220778 1.02546e-20)
(0.490565 -0.250036 1.47677e-20)
(0.559177 0.124235 3.96816e-21)
(0.156269 0.167207 0)
(0.40985 -0.070623 5.20197e-21)
(0.17804 0.0782446 0)
(0.467714 0.18493 -8.6208e-21)
(0.481904 -0.127693 -3.76735e-21)
(0.134087 0.0762496 -4.35712e-21)
(0.400342 -0.077139 -1.84643e-22)
(0.183044 0.0886038 -4.74663e-23)
(0.480637 0.268591 9.82095e-21)
(0.0531522 0.0288573 -1.21909e-20)
(0.64954 -0.177197 4.30118e-21)
(0.305582 -0.154076 -5.02768e-21)
(0.535379 0.0301261 -9.69328e-22)
(0.311616 0.260373 0)
(0.478103 0.19053 8.77686e-21)
(0.501909 -0.140704 4.59988e-21)
(0.124911 0.0799708 1.06523e-20)
(0.449173 0.123905 0)
(0.38684 -0.10433 3.12617e-21)
(0.198424 0.125798 0)
(0.475951 0.0705234 4.23354e-21)
(0.330119 -0.116971 0)
(0.25993 0.18883 0)
(0.373968 0.146837 3.22948e-21)
(0.382978 -0.0253451 5.69547e-21)
(0.202812 0.0539533 -2.24236e-23)
(0.249647 0.215676 -1.05425e-20)
(0.52041 0.0726135 -1.08065e-20)
(0.372308 -0.172674 -1.36272e-20)
(0.537959 0.194395 5.52213e-21)
(0.575431 -0.240127 -6.90983e-21)
(0.0775973 0.0920508 -1.20562e-22)
(0.497071 -0.242113 -9.98377e-21)
(0.553068 0.133041 -4.02142e-21)
(0.148112 0.157071 -5.57713e-21)
(0.392416 0.282491 7.89877e-21)
(0.187375 -0.0694925 -4.22215e-21)
(0.557145 -0.0369584 0)
(0.460064 0.27717 -2.34335e-21)
(0.454622 0.273495 2.09912e-21)
(0.599636 -0.115435 9.35566e-22)
(0.615615 -0.124641 -4.0796e-21)
(0.0920321 0.00341827 2.77514e-21)
(0.101364 0.000231181 2.43867e-21)
(0.0105455 0.0345851 9.3137e-21)
(0.550388 -0.229883 7.34796e-21)
(0.416413 0.217115 -2.12453e-21)
(0.434489 0.247441 2.12129e-22)
(0.0143602 0.0337598 0)
(0.622513 -0.215272 0)
(0.490259 0.137301 1.27004e-20)
(0.441146 -0.153306 1.79223e-21)
(0.172588 0.133738 0)
(0.062777 0.0737076 1.54676e-20)
(0.524122 0.215444 -5.64983e-21)
(0.59989 -0.231008 0)
(0.423936 0.271279 -1.13077e-20)
(0.434625 0.270782 8.48976e-21)
(0.562585 -0.0745353 -4.86803e-21)
(0.571718 -0.0869522 -1.85312e-21)
(0.142063 -0.0264048 4.81115e-21)
(0.127369 -0.0145849 2.41305e-21)
(0.0720824 0.103267 0)
(0.551611 -0.281856 0)
(0.557872 0.167227 -1.71553e-21)
(0.397691 0.237504 3.98583e-21)
(0.00870094 0.0293686 -5.79714e-21)
(0.586068 -0.204345 0)
(0.350742 0.0519617 2.37822e-23)
(0.295495 0.110265 -5.17129e-21)
(0.27087 0.02324 -2.59487e-21)
(0.43805 0.227789 7.15539e-21)
(0.583164 -0.236684 -3.4218e-21)
(0.013704 0.0384143 -1.15483e-20)
(0.377497 0.235244 -9.31156e-21)
(0.495063 -0.0248877 8.0759e-21)
(0.191628 -0.0375059 6.29639e-24)
(0.538706 0.199334 -3.88911e-23)
(0.585947 -0.2581 -9.91274e-21)
(0.0623574 0.0851813 3.18371e-21)
(0.456365 -0.244374 -2.04741e-22)
(0.01003 0.033795 1.05741e-20)
(0.395581 0.166253 3.55912e-21)
(0.307761 0.179235 4.95449e-21)
(0.255474 -0.040237 3.17582e-22)
(0.431148 0.0354979 -1.32723e-20)
(0.379406 0.0921164 0)
(0.317451 -0.0206667 1.29315e-20)
(0.246352 0.105718 -6.66053e-21)
(0.484128 0.247521 -1.03124e-20)
(0.0285607 0.0460004 -7.25937e-21)
(0.637061 -0.229899 3.8947e-25)
(0.391405 0.094773 0)
(0.320875 -0.0326633 4.54699e-21)
(0.240186 0.115167 9.40864e-21)
(0.338317 0.0562103 -5.28579e-21)
(0.29426 0.0987046 5.46156e-21)
(0.277932 0.0329725 -1.36599e-21)
(0.272668 0.241247 5.09997e-21)
(0.535858 0.0551156 3.8643e-21)
(0.356957 -0.182854 -7.52178e-21)
(0.391046 0.0620571 0)
(0.280735 -0.018466 0)
(0.276451 0.138318 -7.7657e-22)
(0.403343 0.0747895 -6.48656e-21)
(0.298675 -0.0329087 -3.51944e-21)
(0.265777 0.139371 -1.10201e-22)
(0.379924 0.277985 -1.19838e-20)
(0.547389 -0.025736 6.32318e-21)
(0.205674 -0.0838367 8.39492e-21)
(0.0425954 0.0499968 -1.0939e-20)
(0.043078 0.0543336 1.11014e-20)
(0.637754 -0.216984 -2.90285e-21)
(0.629174 -0.226248 -2.02237e-21)
(0.498327 0.248503 -8.04068e-21)
(0.504435 0.241139 1.21803e-20)
(0.54282 0.192599 -6.77079e-21)
(0.576808 -0.249235 6.17952e-21)
(0.0732163 0.0947229 0)
(0.178019 -0.0731328 -5.4491e-21)
(0.40034 0.293652 -2.48129e-21)
(0.574613 -0.045231 0)
(0.327767 0.214783 0)
(0.246305 -0.0656657 5.01415e-21)
(0.471763 0.0179446 -4.17797e-21)
(0.541502 0.0919355 0)
(0.425859 -0.212626 -4.91304e-21)
(0.214337 0.201426 -1.63646e-22)
(0.498589 -0.274356 -3.44608e-21)
(0.0231606 0.0522422 0)
(0.471881 0.169615 8.93566e-21)
(0.103198 0.129498 0)
(0.565912 0.153832 0)
(0.537879 -0.273991 -4.18882e-21)
(0.490782 0.229196 -3.51965e-21)
(0.0274621 0.0523867 0)
(0.610625 -0.250436 3.47821e-21)
(0.00700032 0.0281622 3.91227e-32)
(0.428986 -0.227833 3.12249e-21)
(0.361558 0.158545 -3.64808e-21)
(0.453993 -0.196885 -3.49011e-21)
(0.00438107 0.0248236 -3.90323e-32)
(0.34359 0.185882 3.24424e-21)
(0.487053 -0.187324 9.52012e-21)
(0.514303 0.154164 0)
(0.145656 0.12667 1.42452e-20)
(0.540509 -0.286599 1.87762e-21)
(0.0495511 0.0828942 0)
(0.540499 0.170191 0)
(0.51352 0.20206 5.80634e-21)
(0.556001 -0.195133 -5.3525e-21)
(0.0954339 0.0850658 -7.43079e-21)
(0.460253 0.276419 -1.0254e-20)
(0.0333176 0.0247002 -4.42686e-21)
(0.675938 -0.185109 0)
(0.402634 0.152501 -2.50187e-21)
(0.184459 0.0698828 2.70857e-21)
(0.40411 -0.0565786 -2.50829e-21)
(0.549092 -0.2805 0)
(0.0816602 0.112094 -5.30661e-21)
(0.561767 0.163296 -1.86071e-21)
(0.536965 0.0847764 4.40336e-21)
(0.227148 0.210065 2.90288e-21)
(0.409534 -0.202216 0)
(0.466255 -0.215111 0)
(0.535191 0.125222 0)
(0.169684 0.163689 -5.18776e-21)
(0.0013054 0.0112675 0)
(0.26045 -0.121492 2.57859e-21)
(0.206805 0.0958965 -2.7857e-21)
(0.515267 -0.249846 -3.38089e-21)
(0.0117423 0.0377696 6.38559e-21)
(0.423326 0.197487 3.68196e-21)
(0.389593 0.143209 6.44935e-21)
(0.197221 0.0691317 -6.37719e-21)
(0.385001 -0.0423393 -2.8909e-21)
(0.56802 -0.272189 -8.77612e-21)
(0.547975 0.184408 3.79834e-21)
(0.0617387 0.0916633 0)
(0.0677968 0.101688 5.58224e-21)
(0.558753 0.163452 0)
(0.542966 -0.288126 6.58367e-21)
(0.514914 0.228452 4.10374e-21)
(0.0573793 0.0644473 -1.65898e-20)
(0.610985 -0.220091 -8.30458e-21)
(0.0666398 0.0201512 1.25235e-20)
(0.639732 -0.156396 -4.57066e-21)
(0.474362 0.274111 0)
(0.370389 0.285132 1.50658e-20)
(0.553256 -0.017594 -8.06245e-21)
(0.225709 -0.103368 8.01384e-21)
(0.594803 -0.100639 -1.39948e-21)
(0.4434 0.280777 -4.94123e-21)
(0.115862 -0.0149791 7.61178e-21)
(0.0559366 0.0132024 1.12632e-20)
(0.466531 0.284793 0)
(0.666303 -0.160641 3.33479e-21)
(0.393937 0.223488 2.34712e-21)
(0.408093 0.232797 0)
(0.483577 -0.0420427 8.39869e-21)
(0.502474 -0.0563025 -8.97331e-21)
(0.17107 -0.00610343 -5.11154e-21)
(0.157551 -0.00458526 0)
(0.379993 0.224634 2.30232e-21)
(0.481633 -0.0276976 0)
(0.186692 -0.0212996 -2.45439e-21)
(0.416719 0.279801 0)
(0.567949 -0.0662534 7.86156e-21)
(0.151172 -0.0398703 -1.73736e-21)
(0.488 -0.230244 4.94388e-21)
(0.545038 0.132576 -4.12515e-21)
(0.153304 0.154597 1.148e-20)
(0.567195 -0.261484 0)
(0.547874 0.184041 -1.13953e-21)
(0.0756145 0.100434 0)
(0.130763 0.134337 3.68811e-21)
(0.542171 0.151879 2.67512e-21)
(0.513671 -0.230463 3.22824e-21)
(0.488984 -0.201192 4.73876e-22)
(0.00499465 0.0266765 -2.18467e-25)
(0.361437 0.200851 0)
(0.337027 0.180938 -4.46458e-21)
(0.343872 0.17357 0)
(0.222863 -0.0104186 1.16481e-21)
(0.424394 0.0106042 -1.61718e-20)
(0.217049 0.00363669 -1.47354e-21)
(0.41447 0.00333224 1.02792e-20)
(0.399013 0.266602 0)
(0.38451 0.257438 1.53057e-21)
(0.189012 -0.0522208 -2.47565e-23)
(0.540573 -0.0454185 -4.90823e-21)
(0.173996 -0.0447237 -1.26601e-20)
(0.523642 -0.0320734 1.03932e-20)
(0.445292 -0.255236 0)
(0.0131447 0.0380877 -1.1539e-20)
(0.414173 0.157044 0)
(0.572904 -0.267265 5.18889e-21)
(0.54669 0.187636 -1.15427e-21)
(0.0641063 0.0902778 -3.3429e-21)
(0.332543 0.238115 2.80949e-21)
(0.2564 -0.0939922 5.75383e-21)
(0.500785 0.0147079 -1.38125e-20)
(0.460067 -0.233074 -1.07554e-20)
(0.551468 0.108209 -1.06883e-20)
(0.18493 0.185972 0)
(0.0735359 0.013752 -1.33914e-20)
(0.635193 -0.147309 4.86387e-21)
(0.470227 0.276713 0)
(0.560574 -0.263176 0)
(0.47384 0.207853 0)
(0.0203882 0.0490571 0)
(0.563962 -0.268717 0)
(0.492456 0.203066 -6.33602e-21)
(0.0266191 0.0565026 0)
(0.438159 0.260075 4.69071e-21)
(0.559697 -0.0927472 -2.8072e-21)
(0.123366 -0.00246098 -3.5718e-21)
(0.282191 0.179994 1.30313e-21)
(0.29126 -0.0724643 0)
(0.446762 0.0575474 -4.4659e-21)
(0.512356 0.23184 -4.78165e-21)
(0.05059 0.0611819 -9.69157e-21)
(0.620135 -0.226002 1.20305e-20)
(0.492465 -0.202079 0)
(0.52438 0.151914 0)
(0.143038 0.134307 -1.22865e-20)
(0.0736711 0.0545073 -3.11976e-21)
(0.596645 -0.181464 -7.34658e-21)
(0.4976 0.237012 -1.23463e-20)
(0.373712 0.257028 -1.55909e-21)
(0.204375 -0.0648025 8.4428e-21)
(0.520203 -0.0222344 -5.31972e-21)
(0.482404 0.0962994 8.2707e-21)
(0.374204 -0.13509 -4.85085e-21)
(0.225265 0.170638 -1.02458e-20)
(0.316048 0.199329 -7.35284e-23)
(0.254544 -0.0610628 1.63846e-21)
(0.456787 0.0277042 5.47422e-21)
(0.0498284 0.0668328 3.78301e-21)
(0.612025 -0.239796 -5.56392e-21)
(0.518971 0.222974 -5.40891e-21)
(0.480943 0.241061 2.249e-21)
(0.581213 -0.15224 2.1758e-21)
(0.0879128 0.0425866 0)
(0.314014 0.172516 4.84194e-21)
(0.246447 -0.0240952 -1.02679e-20)
(0.420124 0.0305232 8.7466e-21)
(0.463018 0.285077 -3.97781e-21)
(0.0471007 0.0150827 -5.02356e-21)
(0.67581 -0.168485 -3.23227e-23)
(0.376289 0.199302 2.8459e-21)
(0.44824 -0.0276897 0)
(0.18569 0.00271588 0)
(0.419525 0.110425 1.16653e-20)
(0.352151 -0.0666618 -2.82115e-21)
(0.218991 0.120156 0)
(0.463512 -0.199216 0)
(0.524091 0.13021 -8.38534e-21)
(0.167016 0.154349 5.43204e-21)
(0.447975 0.259917 0)
(0.0199108 0.0322269 1.55619e-21)
(0.653504 -0.207348 -3.77194e-21)
(0.447067 0.267481 -4.21866e-21)
(0.0220876 0.0289411 -4.97048e-21)
(0.664601 -0.197283 3.64043e-21)
(0.0703412 0.0458767 -2.85278e-21)
(0.607437 -0.175943 4.35301e-21)
(0.492135 0.246097 1.13207e-20)
(0.496488 0.0858014 3.892e-21)
(0.374516 -0.15101 9.73806e-21)
(0.235334 0.186022 0)
(0.0144722 0.030289 -1.42571e-21)
(0.638229 -0.205992 3.528e-21)
(0.427317 0.254449 0)
(0.0879384 0.0858584 0)
(0.56676 -0.209184 4.47604e-21)
(0.520965 0.201943 1.41945e-21)
(0.00566679 0.0233852 -5.75384e-21)
(0.363988 -0.21153 -3.54994e-21)
(0.321573 0.127904 0)
(0.291016 0.170648 3.65294e-21)
(0.405447 -0.161311 0)
(0.00219098 0.018967 -5.75804e-21)
(0.0578485 0.0197852 -8.90446e-24)
(0.655287 -0.165063 5.69261e-22)
(0.472775 0.2781 0)
(0.03962 0.0651005 0)
(0.601969 -0.256412 0)
(0.51702 0.217562 -7.29632e-21)
(0.495814 0.251418 4.19626e-21)
(0.49807 0.247907 -3.39491e-21)
(0.0482493 0.0453881 5.48371e-21)
(0.638514 -0.202497 9.5535e-22)
(0.0547984 0.0478571 0)
(0.627102 -0.197507 0)
(0.527374 0.191569 -2.72608e-21)
(0.556984 -0.216234 -2.96272e-21)
(0.0942074 0.0954752 0)
(0.20512 0.203582 0)
(0.440187 -0.230123 0)
(0.553066 0.0951697 0)
(0.344227 0.152845 -5.95852e-21)
(0.22059 0.0249327 1.40233e-20)
(0.389506 0.00334888 -5.64662e-21)
(0.532422 0.168881 -7.72872e-21)
(0.527349 -0.218727 -1.09561e-21)
(0.116399 0.116934 -1.08865e-20)
(0.12856 0.126988 -7.0893e-21)
(0.533384 0.15948 1.07419e-20)
(0.513845 -0.21809 1.52029e-21)
(0.460532 0.292885 -4.42653e-21)
(0.0651907 0.00282495 -5.39095e-21)
(0.665825 -0.146189 0)
(0.401734 0.274913 0)
(0.552695 -0.0484318 -2.33493e-21)
(0.17108 -0.0506246 1.2409e-20)
(0.388056 0.244684 0)
(0.509841 -0.0348611 -1.06049e-20)
(0.182314 -0.0384271 -1.92941e-23)
(0.50495 0.173155 9.88072e-21)
(0.504649 -0.17809 -1.33037e-21)
(0.128035 0.10527 6.16859e-21)
(0.513362 0.167805 0)
(0.50512 -0.188821 -1.25061e-21)
(0.129991 0.113015 -5.68207e-21)
(0.304843 0.158906 0)
(0.254888 -0.0166478 1.62004e-20)
(0.405591 0.0385812 0)
(0.409439 0.241474 0)
(0.513983 -0.0587871 5.95544e-21)
(0.154604 -0.013395 -1.86036e-21)
(0.0910307 0.12278 1.14995e-20)
(0.538207 -0.284162 9.45854e-21)
(0.56896 0.153991 0)
(0.50156 0.189399 1.40151e-22)
(0.0295447 0.0604796 -3.53529e-21)
(0.542661 -0.276973 -2.48359e-21)
(0.494587 0.175569 4.64312e-23)
(0.0284947 0.0593223 0)
(0.520517 -0.278778 7.1312e-21)
(0.350489 0.212462 -3.36783e-21)
(0.216002 -0.0354539 1.78576e-21)
(0.463324 -0.00171325 8.34252e-23)
(0.529553 -0.260347 -1.16306e-22)
(0.0170032 0.0449015 -1.46544e-20)
(0.455681 0.195426 0)
(0.484212 0.249683 -9.70603e-21)
(0.0776326 0.0394521 0)
(0.601147 -0.160965 0)
(0.0181986 0.0461193 5.81116e-21)
(0.497274 -0.267947 3.82444e-21)
(0.452825 0.17518 -6.95895e-21)
(0.366147 0.107782 -7.94337e-21)
(0.23698 0.0851516 -8.44623e-21)
(0.333487 -0.0101798 -4.41033e-23)
(0.446905 0.190087 1.44256e-21)
(0.473827 -0.102072 1.37499e-21)
(0.142526 0.0617423 5.57492e-21)
(0.351667 -0.140439 -1.11162e-20)
(0.493177 0.0743533 -1.36733e-20)
(0.252538 0.195326 0)
(0.0552498 0.087922 0)
(0.550236 -0.283911 2.35333e-21)
(0.546411 0.174091 0)
(0.482451 -0.207432 0)
(0.528252 0.142565 0)
(0.151819 0.143459 0)
(0.0407484 0.0238204 0)
(0.467856 0.277246 3.77594e-21)
(0.672468 -0.180316 -3.31743e-21)
(0.460428 0.194845 0)
(0.489944 -0.118407 -6.85268e-22)
(0.132206 0.0662551 1.3011e-23)
(0.338803 0.142726 5.75537e-21)
(0.228558 0.0310778 -1.20376e-20)
(0.377134 0.00917058 0)
(0.568453 -0.275832 8.30484e-21)
(0.539932 0.188434 -3.60486e-21)
(0.0527065 0.0832381 0)
(0.0757731 0.0698524 6.5493e-21)
(0.586336 -0.202563 -2.84446e-22)
(0.511883 0.220128 -9.60652e-23)
(0.467606 0.248686 0)
(0.460372 0.245461 -4.31631e-21)
(0.0224402 0.0407413 -3.56169e-21)
(0.0193802 0.0405131 4.39924e-21)
(0.637226 -0.22468 2.31898e-21)
(0.626897 -0.229118 -1.90668e-21)
(0.464778 0.136589 0)
(0.415905 -0.12465 -9.30642e-21)
(0.180287 0.122151 -6.73616e-21)
(0.467322 -0.173217 -1.3365e-20)
(0.504162 0.14672 0)
(0.154697 0.129745 7.46444e-21)
(0.400093 0.122848 6.57153e-21)
(0.36065 -0.0505731 -4.8097e-21)
(0.208159 0.0955888 -1.03827e-20)
(0.552821 -0.28103 -5.45485e-21)
(0.520906 0.187309 -4.91231e-21)
(0.540432 -0.285591 2.59022e-21)
(0.037343 0.0691089 3.74497e-21)
(0.526723 0.176263 4.60507e-21)
(0.0411294 0.0731614 0)
(0.485059 0.20579 0)
(0.529201 -0.153605 0)
(0.110404 0.0712824 -6.9717e-21)
(0.530849 0.196993 -4.8286e-21)
(0.522768 0.196025 1.2134e-20)
(0.577216 -0.272478 -3.57794e-21)
(0.570756 -0.274933 9.00024e-21)
(0.0448378 0.0749305 -9.83354e-21)
(0.0387038 0.0691649 -3.10868e-25)
(0.501141 0.13807 0)
(0.44938 -0.168824 1.23568e-20)
(0.169765 0.141898 -9.6756e-21)
(0.441024 0.155661 -6.24755e-21)
(0.440812 -0.104482 8.27399e-21)
(0.158067 0.0851054 0)
(0.462185 0.269904 0)
(0.0288736 0.0299758 -6.84407e-22)
(0.668008 -0.196958 -3.49594e-21)
(0.461683 0.147856 -4.60105e-21)
(0.429434 -0.120185 0)
(0.169301 0.110562 1.11765e-20)
(0.414571 0.133549 -2.669e-21)
(0.382222 -0.0692451 5.63832e-21)
(0.195053 0.0950505 -6.08402e-21)
(0.461159 0.255543 0)
(0.0232311 0.0365449 0)
(0.650603 -0.215929 4.8242e-21)
(0.458353 0.207023 0)
(0.508509 -0.117596 -1.45391e-21)
(0.122688 0.0541705 6.91862e-21)
(0.398682 -0.205263 0)
(0.543207 0.0754256 0)
(0.24067 0.224551 3.75101e-22)
(0.370747 0.26535 3.8369e-22)
(0.529765 -0.0181293 0)
(0.211883 -0.0779701 -6.55635e-21)
(0.503048 -0.263959 -5.77993e-21)
(0.143277 0.163414 0)
(0.567549 0.127933 0)
(0.00272729 0.0173042 1.38388e-20)
(0.342747 -0.161543 -3.6105e-21)
(0.272236 0.128769 3.90002e-21)
(0.461326 0.170575 0)
(0.456721 -0.118936 -5.08326e-21)
(0.149195 0.0878146 0)
(0.481349 0.26143 -7.03249e-21)
(0.0361473 0.0381864 -1.85626e-20)
(0.655438 -0.202691 7.1391e-21)
(0.26544 -0.128769 0)
(0.543107 0.00626759 5.30237e-21)
(0.341133 0.2741 0)
(0.352746 0.213107 0)
(0.00458484 0.0251531 3.45462e-21)
(0.516758 -0.190907 0)
(0.256399 0.154764 -6.46812e-21)
(0.261474 0.168394 6.62196e-21)
(0.310734 -0.0686271 0)
(0.431523 0.0760054 -5.62083e-21)
(0.313599 -0.0833199 1.04811e-20)
(0.446881 0.0707913 4.528e-21)
(0.401526 0.110117 -6.18556e-21)
(0.34335 -0.0467634 -6.38295e-21)
(0.222672 0.108657 0)
(0.290942 0.172708 -5.70942e-21)
(0.274267 0.160173 0)
(0.274292 -0.0509033 0)
(0.431157 0.049092 0)
(0.28722 -0.0506159 5.87468e-21)
(0.423116 0.0621248 -2.99776e-23)
(0.450471 0.167203 -3.97008e-22)
(0.419409 -0.0962872 3.60302e-21)
(0.172087 0.0942042 7.51753e-21)
(0.445743 0.147414 1.07571e-20)
(0.415735 -0.101627 0)
(0.177166 0.104153 0)
(0.0350489 0.0672523 0)
(0.517559 -0.286581 0)
(0.512873 0.168227 -5.04131e-21)
(0.366248 0.213615 9.27863e-21)
(0.465672 -0.0147852 0)
(0.198952 -0.0216627 -3.30995e-21)
(0.527535 0.207122 9.68256e-21)
(0.591391 -0.263343 -4.14786e-21)
(0.0455001 0.0729025 5.60898e-21)
(0.504775 0.186315 0)
(0.512654 0.190802 -5.59483e-21)
(0.523851 -0.179019 1.65775e-21)
(0.538968 -0.190856 -5.27128e-21)
(0.114094 0.0944601 7.70081e-21)
(0.1057 0.0934552 7.17466e-21)
(0.364993 0.200767 0)
(0.449412 -0.0155172 0)
(0.198039 -0.00904446 -1.55624e-21)
(0.418441 0.260621 -3.73675e-21)
(0.543977 -0.0674773 0)
(0.148475 -0.0219427 -4.13855e-21)
(0.485533 0.184006 2.83742e-21)
(0.499099 -0.152821 0)
(0.12578 0.0896316 -7.02891e-21)
(0.313445 0.119011 -6.25646e-21)
(0.354958 0.0342095 -3.04253e-21)
(0.253902 0.0303213 -3.23436e-21)
(0.522757 0.175163 0)
(0.526018 -0.204313 0)
(0.116325 0.109879 1.15733e-20)
(0.331797 0.158269 0)
(0.228788 0.00885303 -1.77875e-21)
(0.397419 0.0144579 0)
(0.493793 0.15068 6.2664e-21)
(0.45977 -0.161532 6.87495e-21)
(0.157446 0.122493 9.65932e-22)
(0.421478 0.249194 -3.7808e-21)
(0.531879 -0.0721227 -6.79238e-21)
(0.142943 -0.0100189 0)
(0.317665 0.132813 6.20101e-21)
(0.307767 0.136882 2.78013e-21)
(0.369482 0.0276742 -2.97767e-21)
(0.245424 0.0217122 6.39145e-21)
(0.378659 0.0353605 0)
(0.251854 0.00792142 1.14171e-20)
(0.288837 0.150081 2.82481e-21)
(0.269065 -0.0247963 -7.55852e-21)
(0.276836 0.152784 -1.81851e-21)
(0.402903 0.0508684 0)
(0.287121 -0.0416839 -3.7367e-21)
(0.414493 0.0623533 6.42844e-21)
(0.392821 0.211831 -3.37014e-21)
(0.40824 0.211147 0)
(0.46827 -0.0430596 -6.22004e-21)
(0.47405 -0.0580015 4.85284e-21)
(0.170535 0.00555598 1.47747e-20)
(0.158859 0.0187184 -1.22853e-20)
(0.0674363 0.0289066 0)
(0.627067 -0.162141 2.67337e-21)
(0.480061 0.264008 5.888e-21)
(0.254493 0.227292 -1.26242e-20)
(0.53355 0.0678642 -6.09071e-21)
(0.377545 -0.187773 1.18031e-20)
(0.0593631 0.0339996 6.24454e-21)
(0.0603648 0.0418484 0)
(0.634144 -0.176125 -2.31072e-21)
(0.624053 -0.184073 -3.97674e-21)
(0.484971 0.262458 -1.51105e-20)
(0.492256 0.252967 7.87238e-21)
(0.306249 0.239779 0)
(0.297334 -0.126815 6.2981e-21)
(0.510977 0.0349002 -1.31346e-21)
(0.312842 0.0942469 -1.31543e-20)
(0.270216 0.0525926 0)
(0.326048 0.0417632 1.04119e-20)
(0.521521 0.185483 2.70119e-21)
(0.540645 -0.204573 5.9508e-21)
(0.105684 0.100489 0)
(0.346986 0.191408 0)
(0.213774 -0.01739 1.48349e-21)
(0.438163 0.00116641 5.23659e-21)
(0.429985 0.249526 0)
(0.538389 -0.0818671 0)
(0.133499 -0.00156116 9.89092e-22)
(0.468138 0.270747 0)
(0.471432 0.262021 0)
(0.616736 -0.139005 -1.42031e-21)
(0.0831692 0.015116 7.60388e-21)
(0.605206 -0.141329 3.87119e-21)
(0.0842823 0.0231188 -1.02844e-20)
(0.495427 0.202947 -5.38978e-21)
(0.53832 -0.167304 -5.53547e-21)
(0.104704 0.0775505 -3.35214e-21)
(0.387769 0.222146 -5.52462e-21)
(0.551444 -0.207899 0)
(0.00764849 0.0293937 4.22828e-21)
(0.28007 -0.13293 0)
(0.532779 0.0171031 -4.31824e-21)
(0.32815 0.262849 0)
(0.354528 0.274769 -3.88759e-21)
(0.349205 0.264298 4.17221e-21)
(0.244282 -0.110095 4.10229e-21)
(0.541247 -0.00365928 0)
(0.24662 -0.103534 0)
(0.528698 0.000624704 0)
(0.539793 0.143156 9.41714e-21)
(0.496982 -0.225342 -1.12302e-20)
(0.143998 0.14342 -5.28766e-22)
(0.408274 0.259723 7.67927e-21)