/*--------------------------------*- C++ -*----------------------------------*\
  =========                 |
  \\      /  F ield         | OpenFOAM: The Open Source CFD Toolbox
   \\    /   O peration     | Website:  https://openfoam.org
    \\  /    A nd           | Version:  6
     \\/     M anipulation  |
\*---------------------------------------------------------------------------*/
FoamFile
{
    version     2.0;
    format      ascii;
    class       volScalarField;
    location    "0";
    object      P_rec;
}
// * * * * * * * * * * * * * * * * * * * * * * * * * * * * * * * * * * * * * //

dimensions      [0 2 -2 0 0 0 0];

internalField   nonuniform List<scalar> 
13046
(
0.554996
0.52882
0.535583
0.563271
0.544161
0.523694
0.554611
0.522776
0.542744
0.474962
0.185544
0.526508
0.557683
0.491094
0.531229
0.492996
0.518379
0.230755
0.559342
0.537619
0.551368
0.490403
0.521715
0.223787
0.557565
0.544902
0.53449
0.550702
0.491695
0.530174
0.559406
0.515041
0.528386
0.558885
0.544436
0.540991
0.555623
0.547213
0.544553
0.550401
0.522368
0.529189
0.548142
0.557494
0.550563
0.556221
0.547195
0.544558
0.551565
0.521373
0.537292
0.494558
0.542584
0.513429
0.498933
0.511552
0.544071
0.377046
0.529485
0.511968
0.540535
0.449073
0.535316
0.524612
0.310012
0.51249
0.530416
0.393253
0.508065
0.534822
0.411094
0.507378
0.348986
0.524266
0.512701
0.558546
0.543634
0.545635
0.517377
0.517342
0.32368
0.556548
0.537151
0.53442
0.523358
0.28149
0.501889
0.503814
0.531688
0.32599
0.534194
0.482885
0.323146
0.539292
0.534788
0.423116
0.404509
0.523129
0.526323
0.533281
0.503167
0.339771
0.560403
0.549773
0.538804
0.547626
0.525458
0.502636
0.546106
0.514992
0.528241
0.429962
0.528246
0.0851571
0.559004
0.506502
0.529813
0.532671
0.537152
0.388705
0.519175
0.415782
0.519076
0.466573
0.15862
0.526497
0.550971
0.448803
0.528556
0.550958
0.522765
0.522487
0.534815
0.487312
0.349277
0.527879
0.373976
0.528431
0.558334
0.504802
0.524426
0.551663
0.506362
0.539481
0.543209
0.505498
0.532784
0.548408
0.539192
0.516033
0.54152
0.430527
0.535631
0.551052
0.542367
0.517927
0.472899
0.517165
0.460439
0.51716
0.541237
0.540993
0.552355
0.489987
0.543769
0.468501
0.52815
0.192214
0.446059
0.527692
0.108541
0.525209
0.35416
0.526585
0.549347
0.491817
0.516663
0.551947
0.545065
0.498958
0.530207
0.230472
0.477625
0.548836
0.505563
0.512871
0.549494
0.534892
0.509923
0.554148
0.511764
0.539966
0.478085
0.536774
0.551365
0.467639
0.526654
0.500977
0.529191
0.29269
0.534531
0.500043
0.356688
0.484531
0.307518
0.534085
0.488066
0.496707
0.537773
0.554582
0.519601
0.512996
0.32713
0.281711
0.486074
0.533197
0.55432
0.548465
0.540957
0.551696
0.50211
0.526391
0.535271
0.493053
0.361458
0.553444
0.483463
0.539171
0.529605
0.145261
0.446108
0.537947
0.499587
0.479133
0.492446
0.331438
0.534041
0.526969
0.474571
0.543032
0.545869
0.452745
0.528891
0.407087
0.497139
0.535048
0.511978
0.447325
0.538334
0.530917
0.140053
0.436778
0.549297
0.515461
0.513555
0.438535
0.525089
0.053253
0.553427
0.558601
0.53376
0.538621
0.534083
0.47382
0.482017
0.543224
0.539083
0.51255
0.513452
0.300211
0.54814
0.470073
0.522128
0.510419
0.426491
0.537432
0.527279
0.377976
0.522895
0.549618
0.54563
0.5553
0.52551
0.461495
0.540876
0.548667
0.459077
0.52088
0.552489
0.5524
0.549006
0.508503
0.499855
0.526138
0.446612
0.539412
0.519228
0.52296
0.360163
0.551832
0.513386
0.519866
0.540448
0.505005
0.465489
0.534657
0.408279
0.514273
0.543422
0.498818
0.504703
0.528775
0.530023
0.388528
0.514457
0.377947
0.518096
0.528338
0.245534
0.482948
0.538477
0.432542
0.520021
0.0181237
0.528041
0.402906
0.557413
0.550495
0.51418
0.545919
0.463495
0.534978
0.5288
0.506891
0.317514
0.491245
0.50526
0.542816
0.387136
0.496346
0.534747
0.503792
0.535536
0.539879
0.455482
0.531531
0.495239
0.541389
0.502513
0.517817
0.257683
0.494918
0.481924
0.538825
0.53613
0.441011
0.528435
0.544413
0.495755
0.543211
0.525155
0.495544
0.545542
0.558492
0.520592
0.538673
0.538526
0.509616
0.474322
0.491876
0.295602
0.531188
0.388528
0.495855
0.53642
0.533492
0.505926
0.443073
0.52296
0.525829
0.37335
0.350286
0.510882
0.512765
0.527802
0.0309747
0.414981
0.446538
0.524609
0.0695955
0.53941
0.465359
0.537618
0.528776
0.498041
0.269603
0.534113
0.535156
0.424811
0.41006
0.514981
0.512581
0.533877
0.242711
0.461936
0.431995
0.525407
0.0304917
0.54505
0.557608
0.543471
0.430489
0.0603412
0.527898
0.549021
0.485523
0.512784
0.481345
0.24367
0.531003
0.0261211
0.532958
0.376029
0.551259
0.522651
0.537354
0.556391
0.540599
0.546761
0.46628
0.525644
0.150604
0.552819
0.530309
0.545902
0.546809
0.555992
0.547681
0.540111
0.491556
0.478254
0.547298
0.538513
0.552528
0.558165
0.515204
0.552394
0.535365
0.456363
0.50417
0.522612
0.525891
0.222369
0.218642
0.486794
0.485114
0.480378
0.278659
0.531033
0.511449
0.533428
0.422962
0.54677
0.511271
0.517283
0.506158
0.443892
0.535436
0.0936485
0.53319
0.396348
0.533674
0.480541
0.303092
0.453102
0.527912
0.135552
0.532975
0.00496884
0.373921
-0.0238433
0.529474
0.389073
0.428165
0.528161
0.535279
0.181255
0.53425
0.433994
0.520164
0.365826
0.529963
0.483899
0.517065
0.172171
0.557577
0.534425
0.518451
0.265417
0.533714
0.471297
0.504798
0.535466
0.453963
0.417018
0.510913
0.537464
0.532585
-0.0831545
0.344954
0.0391774
0.530473
0.39438
0.560027
0.540619
0.52124
0.229087
0.457594
0.533026
0.5341
0.447358
0.225578
0.49337
0.525284
0.265311
0.515204
0.29845
0.510005
0.538683
0.455846
0.505363
0.385022
0.530505
0.515554
0.516254
0.505483
0.250442
0.549288
0.547983
0.485078
0.469854
0.519429
0.521498
0.549593
0.493484
0.517653
0.537787
0.422736
0.515288
0.401668
0.503493
0.536612
0.272313
0.48434
0.531868
0.535193
0.507504
0.380487
-0.0175577
0.528074
0.400008
0.557111
0.557102
0.529447
0.525869
0.534512
0.528419
0.544029
0.539083
0.513377
0.451438
0.512245
0.475013
0.0415266
0.532287
0.3762
0.239586
0.463648
0.532823
0.542061
0.500868
0.497973
0.422568
0.500002
0.536293
0.514247
0.313835
0.513818
0.0897446
0.421387
0.530921
0.115139
0.427616
0.531176
0.53797
0.418582
0.517725
0.552202
0.509558
0.528266
0.490539
0.525625
0.240434
0.414872
0.518382
0.536142
0.52468
0.330944
0.517904
0.539891
0.514172
0.481574
0.530576
0.483276
0.543113
0.549875
0.517797
0.523549
0.527289
0.227732
0.482654
0.527155
0.371242
0.520118
0.554964
0.526749
0.534478
0.497623
0.515425
0.220024
0.55151
0.510441
0.52703
0.551086
0.509993
0.54711
0.430583
0.519885
0.538083
0.463325
0.522125
0.10861
0.469736
0.520713
0.121066
0.522434
0.323363
0.517473
0.525908
0.488057
0.541639
0.522144
0.0757183
0.451004
0.529874
0.341088
0.515265
0.532429
-0.0114692
0.360735
0.380543
-0.0437889
0.529059
0.517679
0.265256
0.507599
0.529457
0.179782
0.46034
0.497543
0.502644
0.52091
0.244835
0.521733
0.272474
0.508936
0.346947
0.531334
0.538153
0.433782
0.493379
0.561659
0.533766
0.528062
0.514013
0.371256
0.534426
0.535191
0.517185
0.386083
0.509756
0.514638
0.268783
0.542036
0.436725
0.512073
0.5449
0.473184
0.509415
0.527764
0.418425
0.533488
0.525664
0.410998
0.534911
0.556042
0.522711
0.540933
0.5474
0.46127
0.523415
0.533779
0.273786
0.464743
0.418021
0.532332
0.119845
0.408689
0.533934
0.116745
0.550518
0.521302
0.51121
0.0680396
0.531865
0.40435
0.522721
0.520626
0.342793
0.532289
0.0748794
0.392397
0.56119
0.547083
0.529414
0.550136
0.47125
0.531273
0.490475
0.521715
0.542768
0.534123
0.197167
0.444075
0.414201
0.519919
0.537094
0.51681
0.492323
0.205248
0.543379
0.456679
0.530897
0.561395
0.537554
0.531652
0.201191
0.454173
0.532246
0.526838
0.324171
0.513637
0.459427
0.450721
0.524077
0.5251
0.121024
0.0999261
0.543275
0.482744
0.541977
0.4419
0.531589
0.535581
0.548826
0.517416
0.544621
0.151748
0.429475
0.158682
0.532288
0.430238
0.53316
0.536685
0.413154
0.53057
0.453315
0.44137
0.184739
0.161561
0.53198
0.53258
0.527392
0.453307
0.539839
0.547096
0.483158
0.534807
0.478575
0.520043
0.158265
0.550422
0.473585
0.540314
0.553513
0.504801
0.541221
0.465452
0.521818
0.128634
0.545415
0.439258
0.524651
0.462722
0.493684
0.536777
0.540692
0.469685
0.510124
0.365102
0.534071
0.484737
0.531617
-0.0612705
0.356331
0.543748
0.468098
0.533459
0.484993
0.520693
0.194859
0.501114
0.468484
0.538516
0.40426
0.52674
-0.00334062
0.54968
0.547854
0.512622
0.537708
0.513462
0.540719
0.554231
0.515701
0.547339
0.550467
0.551911
0.518521
0.542403
0.528361
0.539099
0.545798
0.488777
0.541292
0.551084
0.490189
0.542491
0.533506
0.13469
0.411963
0.550734
0.505867
0.516724
0.463397
0.198598
0.530368
0.52673
0.52305
0.403509
0.382452
0.531072
0.53029
0.550186
0.519326
0.522119
0.538184
0.440448
0.512965
0.536429
0.430396
0.533439
0.557649
0.542965
0.537066
0.521052
0.385712
0.533905
0.558082
0.527028
0.535334
0.535282
0.451647
0.538945
0.538951
0.450872
0.512926
0.555865
0.555318
0.540871
0.540069
0.544558
0.535647
0.554125
0.519522
0.554415
0.54689
0.536727
0.542971
0.551546
0.551451
0.492259
0.486564
0.523462
0.519987
0.51627
0.308581
0.515554
0.536973
0.501073
0.472322
0.520004
0.521096
0.284882
0.292904
0.509499
0.508771
0.541905
0.502294
0.499147
0.556711
0.546115
0.546337
0.520213
0.370903
0.532422
0.55591
0.523639
0.516042
0.538627
0.440747
0.514509
0.524432
0.525922
0.340862
0.517142
0.351523
0.517342
0.530396
0.39916
0.5287
0.414968
0.0192235
0.526751
0.497098
0.481929
0.538382
0.537311
0.540137
0.502672
0.46945
0.509252
0.479632
0.511306
0.396615
0.536129
0.538373
0.455635
0.515319
0.542846
0.498756
0.489974
0.53998
0.545946
0.507275
0.51738
0.496383
0.48967
0.539438
0.512174
0.483124
0.531791
0.409264
0.531291
0.556634
0.528349
0.541639
0.472201
0.523016
0.165331
0.541929
0.50107
0.480454
0.543151
0.540357
0.441868
0.426825
0.51402
0.519583
0.521859
0.193966
0.483128
0.481155
0.521269
0.171258
0.472564
0.521914
0.151466
0.522255
0.518394
0.335323
0.54179
0.468965
0.517164
0.232839
0.365245
0.496337
0.237463
0.471859
0.0902439
0.430961
0.288392
0.224436
0.465971
0.463648
0.205879
0.240225
0.464005
0.374643
0.251122
0.254496
0.349696
0.369206
0.442267
0.397654
0.337632
0.473196
0.517306
0.507347
0.369045
0.482185
0.218936
0.410808
0.231073
0.231453
0.428844
0.386543
0.389605
0.260567
0.402443
0.497081
0.471809
0.271354
0.352683
0.320521
0.524436
0.27867
0.462339
0.452456
0.347244
0.354195
0.304648
0.210901
0.2822
0.504882
0.401351
0.254098
0.34134
0.227303
0.501784
0.44369
0.391918
0.300582
0.456482
0.279298
0.285448
0.507587
0.302687
0.395116
0.44544
0.40553
0.506535
0.472787
0.430519
0.201197
0.232601
0.30341
0.453681
0.221908
0.388881
0.347719
0.255548
0.443959
0.486758
0.345831
0.388954
0.213143
0.247542
0.346333
0.451853
0.347333
0.252305
0.37182
0.503812
0.257725
0.459913
0.506717
0.392047
0.245431
0.0481536
0.258553
0.309346
0.244414
0.198494
0.422422
0.475594
0.459249
0.505151
0.247624
0.237705
0.21349
0.267558
0.261123
0.495703
0.47823
0.442094
0.2423
0.23731
0.36174
0.443574
0.361672
0.253511
0.185433
0.344184
0.385273
0.496778
0.495787
0.455504
0.382782
0.305462
0.209269
0.509785
0.198543
0.451868
0.194798
0.496847
0.2143
0.18319
0.220422
0.485659
0.382062
0.162885
0.266707
0.43228
0.246153
0.455196
0.377572
0.274823
0.45952
0.338286
0.241605
0.491361
0.272112
0.362336
0.206738
0.380299
0.269909
0.489999
0.458495
0.353593
0.453741
0.454781
0.495045
0.352694
0.297939
0.270162
0.436768
0.197719
0.34529
0.218216
0.519836
0.347251
0.474457
0.512283
0.400279
0.511864
0.493278
0.496374
0.227942
0.188908
0.207624
0.495779
0.235419
0.218384
0.192082
0.220011
0.355844
0.333834
0.401071
0.513041
0.45718
0.323311
0.454084
0.322111
0.522507
0.161599
0.452068
0.283969
0.182232
0.505378
0.513487
0.277479
0.308187
0.519534
0.413555
0.260654
0.262631
0.453681
0.495683
0.400835
0.254033
0.302255
0.446541
0.370533
0.275252
0.34788
0.194464
0.241062
0.308662
0.419793
0.190172
0.278357
0.475598
0.343259
0.189251
0.353281
0.257898
0.280572
0.427745
0.434577
0.241282
0.217744
0.214704
0.444109
0.388175
0.358193
0.436485
0.344653
0.236746
0.419051
0.320166
0.174442
0.384628
0.490525
0.407952
0.487226
0.495193
0.524059
0.249178
0.159091
0.368026
0.354651
0.275738
0.196743
0.41606
0.504519
0.45018
0.416667
0.24595
0.360992
0.405405
0.396807
0.403499
0.272754
0.36381
0.322813
0.184785
0.24683
0.280201
0.256017
0.257229
0.435689
0.379974
0.359235
0.441163
0.248599
0.360722
0.286495
0.354468
0.337742
0.318043
0.413548
0.192698
0.152113
0.359076
0.202453
0.185915
0.416032
0.16685
0.186242
0.487521
0.439527
0.259243
0.391176
0.234919
0.428316
0.34662
0.194423
0.251422
0.451189
0.376109
0.438447
0.0894881
0.234428
0.488696
0.317237
0.22377
0.138524
0.19667
0.186571
0.197825
0.337951
0.440385
0.242531
0.179359
0.269887
0.301188
0.523406
0.231911
0.452017
0.399097
0.177432
0.300486
0.246525
0.225127
0.429365
0.338986
0.503224
0.398825
0.238177
0.329908
0.403
0.516972
0.410272
0.497049
0.458324
0.316591
0.406023
0.361441
0.263309
0.197376
0.310827
0.262374
0.409429
0.295573
0.217696
0.250739
0.280218
0.24653
0.254226
0.481662
0.277475
0.282389
0.486785
0.46294
0.247236
0.329868
0.496654
0.310638
0.160502
0.326494
0.245074
0.217885
0.49063
0.278769
0.320491
0.476688
0.197526
0.389173
0.261965
0.403351
0.332129
0.293357
0.0601953
0.290615
0.217243
0.329123
0.346945
0.350337
0.431553
0.506043
0.244469
0.341475
0.276728
0.216201
0.172616
0.475383
0.381331
0.332357
0.223828
0.392847
0.204784
0.242824
0.243183
0.24837
0.406852
0.505099
0.310763
0.414206
0.510256
0.476703
0.453993
0.501034
0.261311
0.292469
0.219348
0.516609
0.451837
0.477988
0.299912
0.341748
0.186496
0.423521
0.286159
0.226705
0.474243
0.393979
0.205165
0.286901
0.258393
0.250581
0.264769
0.332452
0.356902
0.224949
0.295906
0.200955
0.301708
0.23623
0.385189
0.304607
0.191698
0.496148
0.501462
0.456917
0.322427
0.39562
0.163821
0.464316
0.398687
0.20278
0.494971
0.130876
0.504501
0.214968
0.358488
0.33994
0.455394
0.431963
0.245026
0.510371
0.249997
0.482798
0.359827
0.372849
0.294086
0.232662
0.295915
0.484949
0.32598
0.516223
0.445918
0.195589
0.234133
0.434015
0.141175
0.325648
0.358455
0.22917
0.508712
0.20625
0.192747
0.462919
0.307282
0.503268
0.514668
0.348853
0.513628
0.507238
0.48365
0.483015
0.41473
0.212197
0.277948
0.33946
0.477745
0.318134
0.128397
0.50959
0.247599
0.364381
0.2715
0.499173
0.523398
0.261446
0.478183
0.388785
0.506488
0.289042
0.461658
0.355688
0.510761
0.51329
0.440448
0.272637
0.443235
0.270507
0.320898
0.376441
0.324393
0.396759
0.248096
0.132673
0.220441
0.336471
0.409709
0.365764
0.493147
0.268031
0.282239
0.396718
0.220431
0.501343
0.233524
0.355457
0.475378
0.487026
0.375724
0.513308
0.239643
0.343278
0.462362
0.327943
0.301475
0.35761
0.295859
0.435032
0.450278
0.295016
0.253439
0.385015
0.200107
0.224945
0.501335
0.508754
0.512681
0.287263
0.511318
0.521028
0.509784
0.173051
0.415625
0.404227
0.511672
0.331945
0.240473
0.211898
0.270214
0.112034
0.507465
0.373827
0.37787
0.463847
0.440907
0.317044
0.354044
0.520289
0.508143
0.495392
0.42081
0.332265
0.412105
0.428793
0.332111
0.329338
0.241003
0.275285
0.352553
0.376113
0.285123
0.494634
0.504874
0.174035
0.485599
0.263328
0.251319
0.2949
0.49368
0.338773
0.424982
0.369689
0.496731
0.338856
0.370129
0.511937
0.185628
0.198904
0.241956
0.230743
0.154203
0.0291495
0.24033
0.161389
0.380251
0.170152
0.24527
0.374237
0.3211
0.240378
0.290027
0.232888
0.0480879
0.505713
0.438251
0.350308
0.210453
0.437622
0.336451
0.239048
0.514813
0.24548
0.513547
0.324671
0.489069
0.28464
0.17504
0.240596
0.358549
0.366426
0.38228
0.177451
0.344784
0.253439
0.23105
0.250379
0.198534
0.236059
0.508795
0.2302
0.449618
0.464239
0.335229
0.413042
0.467017
0.209984
0.0349965
0.356557
0.199565
0.15905
0.453156
0.457005
0.349567
0.422265
0.311786
0.514054
0.506786
0.363435
0.30388
0.512613
0.493821
0.423768
0.412591
0.337404
0.513771
0.333406
0.172354
0.498905
0.474786
0.506542
0.380247
0.283025
0.293572
0.458335
0.430738
-0.00621635
0.526362
0.353099
0.244144
0.392691
0.449592
0.503264
0.517192
0.41566
0.324462
0.462959
0.491953
0.470787
0.450929
0.479006
0.184632
0.253754
0.377174
0.218292
0.17939
0.191274
0.351357
0.469253
0.205537
0.367605
0.244084
0.425761
0.517112
0.372645
0.220405
0.18354
0.396397
0.312834
0.260859
0.188647
0.474321
0.406769
0.420255
0.199795
0.41642
0.262633
0.259727
0.434505
0.467536
0.479626
0.5193
0.23737
0.485361
0.175457
0.501456
0.504702
0.506087
0.466929
0.228519
0.227606
0.354333
0.168765
0.327228
0.19653
0.358598
0.203717
0.461265
0.336397
0.177601
0.485239
0.410386
0.350691
0.36317
0.446407
0.486406
0.411241
0.367421
0.176736
0.476285
0.318271
0.498906
0.157999
0.380101
0.499192
0.456966
0.513066
0.459356
0.344431
0.143855
0.181914
0.365277
0.203382
0.511048
0.169506
0.249629
0.344688
0.278494
0.422862
0.16339
0.466104
0.459076
0.417987
0.133438
0.383323
0.219941
0.270354
0.36799
0.343906
0.343803
0.331659
0.47143
0.231154
0.511469
0.3384
0.294753
0.439324
0.410082
0.498169
0.34467
0.362699
0.236876
0.322888
0.329871
0.507187
0.267976
0.369579
0.337879
0.470708
0.316392
0.378049
0.230624
0.517694
0.167359
0.225366
0.24611
0.465147
0.180475
0.191799
0.22313
0.218241
0.502843
0.357704
0.430813
0.488987
0.419657
0.306721
0.516869
0.312095
0.417692
0.42849
0.349008
0.189289
0.367447
0.375952
0.258254
0.356828
0.205171
0.19686
0.401434
0.260148
0.242634
0.470811
0.31471
0.37991
0.369251
0.497277
0.336759
0.292643
0.4228
0.216992
0.259415
0.339247
0.360513
0.4004
0.428719
0.504665
0.404533
0.475635
0.399808
0.484806
0.505977
0.508271
0.321715
0.336041
0.389148
0.210519
0.506715
0.490151
0.476325
0.38754
0.229138
0.19001
0.39218
0.458177
0.238528
0.473793
0.477227
0.430081
0.253179
0.327153
0.267668
0.22993
0.388672
0.251148
0.420167
0.190257
0.420687
0.307692
0.365396
0.16283
0.392868
0.390689
0.433646
0.320126
0.415046
0.502551
0.506898
0.421772
0.330679
0.476577
0.40115
0.262891
0.268254
0.353558
0.211285
0.501593
0.350845
0.407335
0.459125
0.452944
0.376609
0.200862
0.51328
0.39103
0.282834
0.366444
0.393139
0.476335
0.498245
0.392091
0.41408
0.179889
0.252972
0.368175
0.427291
0.375652
0.421857
0.302447
0.507435
0.39955
0.41284
0.492227
0.402217
0.243384
0.348528
0.5129
0.326692
0.177967
0.345058
0.515424
0.309227
0.355683
0.471698
0.45697
0.478526
0.383462
0.185973
0.426807
0.230392
0.31549
0.485044
0.379412
0.214583
0.237506
0.308013
0.430972
0.288198
0.258393
0.484652
0.290609
0.516795
0.475158
0.206199
0.151285
0.343779
0.451371
0.493856
0.382573
0.368413
0.22491
0.355667
0.326521
0.520444
0.495703
0.462673
0.275671
0.18878
0.471047
0.513863
0.502918
0.475955
0.485267
0.348285
0.234199
0.165278
0.179478
0.495168
0.392147
0.206241
0.293008
0.511149
0.335454
0.253289
0.199633
0.384935
0.262951
0.499235
0.428162
0.434801
0.496919
0.482151
0.359235
0.438499
0.358396
0.403226
0.321012
0.422453
0.288433
0.505765
0.183141
0.32254
0.203583
0.331316
0.501517
0.345167
0.483191
0.489378
0.495853
0.243195
0.359779
0.36705
0.231294
0.505026
0.382303
0.349581
0.425261
0.102498
0.296277
0.477064
0.441723
0.508118
0.172608
0.227521
0.345018
0.508053
0.225238
0.3232
0.262729
0.196146
0.274203
0.480651
0.289567
0.371961
0.20312
0.495416
0.514523
0.10474
0.47246
0.329751
0.244659
0.228605
0.379703
0.208975
0.39176
0.284679
0.321078
0.332393
0.450604
0.378016
0.483089
0.313332
0.219589
0.321961
0.17177
0.195142
0.369503
0.259001
0.361718
0.248814
0.355547
0.476017
0.399102
0.322277
0.170632
0.47205
0.386012
0.333807
0.51525
0.378071
0.317487
0.243832
0.200284
0.510508
0.269671
0.360781
0.434058
0.218936
0.478764
0.185325
0.480641
0.351658
0.467691
0.265316
0.431468
0.361456
0.212173
0.268104
0.348216
0.502978
0.150677
0.246819
0.340965
0.509887
0.504905
0.218748
0.299381
0.386655
0.485477
0.326743
0.503118
0.491388
0.47693
0.462237
0.415643
0.385277
0.368121
0.50643
0.322789
0.367249
0.219608
0.252065
0.313307
0.22965
0.509096
0.188387
0.491074
0.318223
0.507231
0.308894
0.512936
0.466487
0.447622
0.508824
0.501801
0.513424
0.354616
0.495355
0.337515
0.345059
0.24815
0.249752
0.507843
0.19016
0.427871
0.43399
0.358671
0.401069
0.296716
0.483817
0.399141
0.452375
0.165673
0.249779
0.349148
0.4992
0.224973
0.4451
0.258105
0.346857
0.213366
0.338951
0.338122
0.479225
0.508521
0.198576
0.423839
0.34318
0.314014
0.486372
0.227759
0.248059
0.509134
0.1778
0.357409
0.459323
0.498084
0.516678
0.25853
0.264723
0.21179
0.291997
0.233106
0.340783
0.420111
0.32325
0.221251
0.368963
0.358439
0.289315
0.235761
0.339995
0.370453
0.217812
0.474114
0.46763
0.259192
0.459211
0.173933
0.21346
0.221461
0.184993
0.511331
0.331574
0.334547
0.297806
0.469994
0.504819
0.409262
0.44896
0.242476
0.286462
0.348127
0.334512
0.246053
0.506848
0.378945
0.381379
0.507512
0.471919
0.313926
0.50796
0.193356
0.412758
0.409047
0.432931
0.268535
0.487569
0.325028
0.429476
0.368296
0.282615
0.231802
0.269909
0.466566
0.487905
0.495938
0.360347
0.38902
0.499151
0.438481
0.375837
0.351743
0.236482
0.358373
0.481369
0.197165
0.493212
0.342043
0.500539
0.507848
0.507248
0.334931
0.451605
0.491342
0.149293
0.494378
0.235162
0.508786
0.47976
0.34969
0.257866
0.366152
0.360254
0.260119
0.239489
0.427771
0.260736
0.506965
0.228434
0.267064
0.230176
0.22293
0.335849
0.481636
0.511613
0.22496
0.426269
0.388991
0.429645
0.333078
0.37999
0.503072
0.481769
0.343368
0.499685
0.485708
0.515901
0.223895
0.327915
0.241981
0.456739
0.504922
0.489138
0.359117
0.513166
0.352574
0.196794
0.256169
0.14858
0.319332
0.219426
0.514489
0.517426
0.388527
0.513994
0.482688
0.406683
0.512429
0.235304
0.484727
0.356337
0.505946
0.311229
0.228117
0.451149
0.40316
0.508768
0.503996
0.505928
0.234385
0.232806
0.183259
0.474876
0.48098
0.215702
0.337022
0.482388
0.174594
0.301606
0.238753
0.350085
0.424338
0.347055
0.408266
0.401247
0.389369
0.397249
0.468326
0.318939
0.306479
0.427068
0.395702
0.327659
0.495963
0.5126
0.216683
0.479448
0.167787
0.28739
0.501638
0.4755
0.337631
0.506273
0.223933
0.465842
0.312711
0.296578
0.498225
0.31511
0.467054
0.436189
0.440942
0.518613
0.447494
0.214886
0.437455
0.305596
0.47297
0.519164
0.429415
0.343746
0.244308
0.297374
0.49885
0.231552
0.450845
0.237231
0.373754
0.472927
0.466988
0.39488
0.486734
0.513748
0.301786
0.316421
0.398176
0.233446
0.229504
0.410837
0.43923
0.278405
0.212921
0.225809
0.202211
0.464478
0.343511
0.475173
0.262448
0.503137
0.388786
0.490061
0.506781
0.28492
0.501996
0.28611
0.405308
0.337809
0.474908
0.247042
0.332858
0.345089
0.230787
0.321973
0.228959
0.212258
0.168087
0.514578
0.51788
0.279057
0.256666
0.470853
0.19368
0.224239
0.334727
0.456575
0.451971
0.185623
0.167602
0.504471
0.252046
0.416488
0.249556
0.206631
0.257541
0.335846
0.492398
0.404439
0.208658
0.50303
0.492715
0.256835
0.423
0.328275
0.511555
0.34192
0.325468
0.210988
0.448632
0.507086
0.433933
0.331682
0.257755
0.332241
0.404722
0.511725
0.509118
0.24519
0.514479
0.264368
0.416066
0.416407
0.373473
0.301848
0.47984
0.267049
0.392001
0.236183
0.314344
0.280933
0.229511
0.433498
0.506348
0.257126
0.284179
0.408117
0.30754
0.226845
0.166564
0.286723
0.460948
0.138959
0.333086
0.427955
0.412577
0.352989
0.441089
0.474041
0.207376
0.211088
0.489065
0.353367
0.210362
0.342411
0.471742
0.446579
0.418441
0.24483
0.296345
0.242182
0.512839
0.489182
0.516326
0.346949
0.455583
0.223596
0.381607
0.494327
0.198209
0.214483
0.467434
0.490743
0.194962
0.271741
0.237871
0.202185
0.236698
0.509504
0.316276
0.266523
0.329999
0.244068
0.455378
0.342244
0.221467
0.265526
0.466951
0.334151
0.512644
0.225552
0.304348
0.405195
0.410457
0.376525
0.427367
0.22869
0.515352
0.47173
0.409084
0.481155
0.27163
0.490512
0.444334
0.384908
0.509158
0.193126
0.293953
0.518365
0.446001
0.19177
0.333786
0.451324
0.515924
0.383305
0.47203
0.241886
0.212407
0.236509
0.181186
0.493891
0.274413
0.400744
0.50917
0.28391
0.209859
0.253562
0.376166
0.256703
0.336671
0.250485
0.239704
0.328807
0.480551
0.509606
0.429029
0.271695
0.298453
0.180464
0.309088
0.438359
0.425994
0.40013
0.438031
0.300425
0.384914
0.476361
0.491955
0.51596
0.499915
0.50982
0.344884
0.228632
0.243026
0.22164
0.512074
0.390518
0.268988
0.508466
0.234196
0.483599
0.457699
0.273689
0.245784
0.29263
0.301304
0.490575
0.358657
0.457656
0.372698
0.509327
0.420729
0.521801
0.252515
0.376263
0.326892
0.162404
0.304178
0.465342
0.203608
0.0930467
0.418015
0.481336
0.474532
0.29605
0.21504
0.238745
0.242241
0.247922
0.24676
0.374329
0.234847
0.468135
0.275437
0.258008
0.464106
0.331416
0.372024
0.486966
0.369007
0.400018
0.232312
0.440774
0.358546
0.268157
0.326074
0.253133
0.223739
0.257855
0.228753
0.474391
0.51308
0.495421
0.419309
0.460557
0.201978
0.513361
0.388758
0.426671
0.243805
0.454024
0.336005
0.315379
0.482157
0.501074
0.466214
0.421689
0.349435
0.517633
0.289245
0.460618
0.512188
0.451235
0.332567
0.195727
0.468685
0.35966
0.24252
0.445375
0.36579
0.508315
0.267346
0.508116
0.516398
0.366503
0.252491
0.51313
0.213523
0.24561
0.309253
0.23603
0.289893
0.245832
0.225321
0.373412
0.25547
0.236564
0.318258
0.425489
0.320092
0.273771
0.440034
0.400782
0.213303
0.5037
0.50596
0.50408
0.251211
0.210355
0.524404
0.20755
0.356103
0.228567
0.344397
0.240588
0.467336
0.322756
0.337138
0.211197
0.194685
0.247259
0.331259
0.199966
0.391762
0.414274
0.384869
0.507958
0.395915
0.42005
0.30596
0.488917
0.345683
0.336986
0.510073
0.292351
0.349489
0.21994
0.453623
0.507689
0.362371
0.40291
0.357843
0.332516
0.243986
0.283342
0.224925
0.468812
0.249656
0.340264
0.335821
0.367223
0.241184
0.284125
0.353663
0.356879
0.316379
0.501329
0.366028
0.317684
0.419282
0.498438
0.333576
0.196539
0.456777
0.214546
0.341259
0.240785
0.321153
0.334791
0.267489
0.315492
0.515311
0.493653
0.199754
0.312986
0.198877
0.231447
0.189933
0.228127
0.285197
0.244624
0.291699
0.437985
0.514313
0.317573
0.461648
0.366719
0.512297
0.328422
0.512822
0.435507
0.23178
0.422635
0.466954
0.345483
0.469977
0.240149
0.497177
0.296609
0.107171
0.381952
0.512803
0.513804
0.469662
0.430442
0.439919
0.217126
0.328358
0.425038
0.522569
0.120157
0.341331
0.240225
0.344415
0.363796
0.237284
0.21933
0.278427
0.236144
0.264188
0.352794
0.349346
0.520019
0.484424
0.191079
0.480627
0.235115
0.279372
0.478364
0.303268
0.341704
0.426654
0.141854
0.259717
0.382551
0.491812
0.229924
0.275389
0.345705
0.438154
0.220861
0.507697
0.204093
0.3377
0.349737
0.292989
0.422031
0.440631
0.500428
0.24089
0.455819
0.414821
0.432086
0.245959
0.413948
0.263742
0.214335
0.181875
0.368464
0.381756
0.351687
0.486692
0.358265
0.334928
0.41508
0.252143
0.240443
0.32773
0.394367
0.251448
0.515895
0.222866
0.206238
0.293599
0.340212
0.256446
0.231743
0.447741
0.316053
0.388057
0.229929
0.240656
0.385564
0.192425
0.508201
0.494053
0.229577
0.241957
0.493314
0.335959
0.245002
0.210394
0.234725
0.244897
0.412683
0.503988
0.244474
0.212762
0.43855
0.359277
0.204167
0.230601
0.349053
0.460417
0.509389
0.224135
0.194001
0.42431
0.494563
0.361878
0.397518
0.344847
0.242115
0.338478
0.437391
0.379638
0.246444
0.479853
0.345536
0.173874
0.409387
0.262837
0.483078
0.51941
0.254706
0.331014
0.330421
0.326518
0.218682
0.345484
0.243223
0.508818
0.474783
0.458606
0.28594
0.216922
0.472258
0.514808
0.277764
0.40622
0.336589
0.168209
0.396591
0.344301
0.171779
0.229733
0.37156
0.241117
0.206222
0.232833
0.42965
0.23056
0.4662
0.305671
0.258197
0.353553
0.237593
0.483289
0.184062
0.339966
0.35835
0.214361
0.4014
0.416072
0.422379
0.382551
0.472185
0.233848
0.229543
0.501144
0.242783
0.496839
0.424719
0.361768
0.362277
0.495439
0.36051
0.194328
0.510311
0.23893
0.367973
0.492568
0.238004
0.512364
0.253331
0.345748
0.148099
0.342685
0.226567
0.379566
0.25595
0.17597
0.250641
0.220469
0.172514
0.505174
0.221049
0.333986
0.407184
0.365686
0.514735
0.515005
0.332837
0.306867
0.486097
0.325606
0.504463
0.181382
0.352097
0.40173
0.286573
0.487476
0.336414
0.342303
0.276707
0.290597
0.231225
0.176464
0.497451
0.0557363
0.49192
0.45372
0.251879
0.201972
0.257688
0.508351
0.428939
0.440992
0.364338
0.402081
0.367343
0.497117
0.47256
0.238388
0.41566
0.495966
0.372567
0.403439
0.397571
0.19248
0.224415
0.438778
0.34665
0.339279
0.512072
0.220689
0.185098
0.300916
0.330692
0.374138
0.500344
0.257821
0.223818
0.270311
0.334988
0.259533
0.49966
0.305623
0.260621
0.337481
0.2823
0.239925
0.26862
0.427698
0.320191
0.234217
0.494006
0.348088
0.436065
0.235051
0.218819
0.303907
0.491224
0.511506
0.433966
0.392022
0.378523
0.483167
0.499221
0.225926
0.505133
0.250661
0.425987
0.435595
0.50015
0.389916
0.493467
0.493253
0.249758
0.238215
0.333758
0.338941
0.253408
0.206578
0.185504
0.466789
0.486253
0.215194
0.508312
0.385473
0.474127
0.362217
0.237206
0.486222
0.475063
0.338467
0.261474
0.228916
0.517726
0.452683
0.522998
0.210903
0.252469
0.365157
0.490665
0.431426
0.460612
0.35958
0.499339
0.293203
0.325168
0.403375
0.303729
0.426867
0.167
0.481746
0.362281
0.396575
0.505961
0.205461
0.217096
0.190051
0.357009
0.497864
0.274537
0.418819
0.172396
0.219494
0.340959
0.268592
0.248328
0.462498
0.321139
0.249917
0.345537
0.388867
0.49919
0.362746
0.357461
0.496993
0.344264
0.510157
0.397564
0.457767
0.35844
0.227217
0.509211
0.233658
0.347258
0.418673
0.503061
0.452756
0.376641
0.244216
0.519096
0.352048
0.265427
0.469207
0.514889
0.459573
0.44311
0.205349
0.174083
0.407112
0.236135
0.352766
0.391657
0.233102
0.502593
0.516665
0.505738
0.313385
0.3451
0.244872
0.310101
0.438063
0.232474
0.437844
0.508122
0.234337
0.339701
0.296198
0.460977
0.437433
0.345762
0.237387
0.46308
0.236028
0.159959
0.249081
0.516209
0.17794
0.479772
0.376831
0.238624
0.482984
0.412102
0.506544
0.137614
0.342709
0.397873
0.505186
0.311027
0.506081
0.413056
0.177621
0.381608
0.302277
0.324754
0.171936
0.462044
0.340773
0.243424
0.193946
0.384014
0.464094
0.141537
0.319
0.496938
0.295541
0.49149
0.176147
0.235508
0.242984
0.364983
0.325555
0.20595
0.235627
0.147482
0.354547
0.356226
0.47503
0.363699
0.49811
0.237665
0.343849
0.208061
0.332166
0.148646
0.348661
0.521103
0.31353
0.286213
0.515617
0.269986
0.414784
0.435209
0.216194
0.315502
0.372964
0.376684
0.50969
0.513518
0.514595
0.383158
0.301198
0.362948
0.254653
0.495144
0.408587
0.268092
0.257586
0.281196
0.370008
0.507275
0.345471
0.506063
0.337629
0.381612
0.258865
0.241559
0.220852
0.275977
0.502207
0.270894
0.218655
0.230154
0.512965
0.31901
0.240942
0.231991
0.23947
0.458288
0.361191
0.352701