/*--------------------------------*- C++ -*----------------------------------*\
  =========                 |
  \\      /  F ield         | OpenFOAM: The Open Source CFD Toolbox
   \\    /   O peration     | Website:  https://openfoam.org
    \\  /    A nd           | Version:  6
     \\/     M anipulation  |
\*---------------------------------------------------------------------------*/
FoamFile
{
    version     2.0;
    format      ascii;
    class       volScalarField;
    location    "0";
    object      P_rec;
}
// * * * * * * * * * * * * * * * * * * * * * * * * * * * * * * * * * * * * * //

dimensions      [0 2 -2 0 0 0 0];

internalField   nonuniform List<scalar> 
13046
(
1.3863
1.34812
1.3868
1.40276
1.39851
1.36104
1.37842
1.35826
1.39978
0.860648
0.723986
1.32312
1.36914
1.28766
1.3739
0.989615
1.31267
0.801122
1.41741
1.39277
1.39027
0.968856
1.31736
0.791981
1.3954
1.38427
1.39132
1.34522
1.28146
1.36881
1.39431
1.31922
1.37688
1.40943
1.40438
1.38415
1.40893
1.41064
1.39666
1.38217
1.35879
1.30483
1.40321
1.42026
1.4069
1.40614
1.40674
1.40075
1.37204
1.3389
1.38743
1.30602
1.36791
1.23273
1.30641
1.20827
1.36967
1.02561
1.23572
1.31295
1.26769
1.22387
1.36499
1.33185
0.959091
1.08313
1.26174
1.04053
1.30805
1.28634
1.07115
1.31079
0.975979
1.20786
1.31106
1.41565
1.39965
1.371
1.31438
1.15345
0.947414
1.38949
1.37417
1.3892
1.32732
0.906249
1.03348
1.04593
1.33865
0.995975
1.33225
0.960023
0.986633
1.25908
1.22774
1.1592
1.13041
1.34583
1.34694
1.34015
1.0567
1.02277
1.40683
1.4082
1.39244
1.38808
1.26295
1.3217
1.37451
1.33982
1.27081
0.638599
1.3206
0.524095
1.37821
1.31386
1.3754
1.22233
1.25371
1.08822
1.33353
1.13867
1.33781
0.814829
0.669904
1.321
1.31722
1.20684
1.36044
1.37842
1.35955
1.29937
1.33462
1.00009
1.03406
1.17067
1.07939
1.34341
1.38279
1.29839
1.36808
1.32631
1.32536
1.3819
1.36801
1.32366
1.26919
1.38741
1.29161
1.34196
1.25367
1.18887
1.36024
1.40641
1.34263
1.35597
1.26316
1.19909
1.24106
1.18989
1.36444
1.36199
1.32249
1.30308
1.37812
0.849023
1.32512
0.743981
0.7106
1.32124
0.571979
1.15161
1.04229
1.33903
1.36924
1.22968
1.34279
1.33002
1.38177
1.31871
1.32786
0.812289
0.886299
1.37455
1.25739
1.34131
1.40218
1.32249
1.34241
1.34312
1.33609
1.38406
1.26905
1.37688
1.33136
1.2404
1.36131
1.01371
1.33376
0.931573
1.33969
1.0526
1.05164
0.964336
0.959257
1.33369
1.28676
1.17034
1.35265
1.35244
1.16912
1.30586
0.944955
0.911414
0.939551
1.33044
1.40165
1.40997
1.39202
1.35691
1.29344
1.36527
1.339
1.03515
1.05933
1.33574
1.28229
1.38134
1.32345
0.653328
0.734384
1.35399
1.168
1.27194
1.01696
1.00602
1.33791
1.25135
1.27343
1.3746
1.30488
1.20473
1.35786
1.13782
1.07124
1.33792
1.15655
1.21423
1.35249
1.32477
0.641186
0.690705
1.38206
1.34082
1.25189
0.668071
1.31669
0.460059
1.40932
1.39566
1.38414
1.26675
1.27594
1.26778
1.28712
1.38003
1.36972
1.30758
1.11673
0.908057
1.32956
1.22875
1.35193
1.14358
1.18048
1.35058
1.19028
1.07908
1.33802
1.40982
1.40047
1.41917
1.22266
1.2458
1.3645
1.32798
1.20453
1.34789
1.33944
1.32939
1.38036
1.32951
1.22573
1.21239
1.21964
1.36056
1.14843
1.33512
1.04836
1.39354
1.3454
1.28611
1.36146
1.17375
1.25061
1.25519
1.10928
1.32843
1.36774
1.31244
1.22402
1.22455
1.21163
1.07446
1.32481
1.0629
1.32848
1.32775
0.842998
0.924017
1.27342
1.16496
1.34077
0.384653
1.3183
0.501236
1.37502
1.39753
1.35383
1.29249
1.24915
1.36794
1.33598
1.06335
0.977767
1.29073
1.17875
1.3647
1.10522
1.05943
1.33825
1.31753
1.38099
1.27112
1.22572
1.36157
1.30943
1.38664
1.03997
1.31542
0.851412
1.29307
1.14007
1.35078
1.24784
1.19894
1.35499
1.31232
1.31176
1.38414
1.26528
1.31148
1.37948
1.39334
1.34622
1.39221
1.35422
1.17996
1.2634
0.990174
0.940054
1.33523
1.10733
1.0628
1.34255
1.30169
1.3103
1.1156
1.18405
1.21189
1.03866
0.998962
1.31297
1.31819
1.31958
0.411804
0.557039
0.712067
1.31576
0.498118
1.24685
1.24873
1.36227
1.33132
0.987225
0.886826
1.27768
1.26593
1.11299
1.09569
1.32521
1.32194
1.32811
0.836137
0.831328
0.635767
1.31502
0.399971
1.38631
1.4168
1.4023
0.624093
0.470081
1.32013
1.36204
1.22683
1.33829
0.906321
0.840059
1.32851
0.393554
1.32464
0.384554
1.38938
1.36258
1.32747
1.381
1.38982
1.4039
0.823449
1.31902
0.656853
1.36948
1.37511
1.40069
1.39503
1.41713
1.40843
1.35817
1.13766
1.26483
1.36166
1.38995
1.40754
1.37994
1.35686
1.39904
1.31903
1.13137
1.30882
1.31847
1.32259
0.792328
0.787626
0.938371
0.923576
0.937807
0.905225
1.33259
1.31388
1.29193
1.07773
1.37361
1.33787
1.26803
1.13449
1.207
1.34422
0.540186
1.3238
0.492673
1.33169
0.94102
0.951222
0.747602
1.32172
0.626741
1.32626
0.343817
0.353054
0.28974
1.32337
0.417062
1.18128
1.19224
1.35277
0.717668
1.3261
0.687974
1.13838
1.06657
1.3434
0.92381
1.30651
0.685245
1.36816
1.38117
1.33716
0.879336
1.32907
0.876512
1.14707
1.34592
1.2255
1.16599
1.1428
1.35284
1.32885
0.147898
0.188602
0.421823
1.32038
0.470578
1.38441
1.39216
1.34717
0.813978
0.820448
1.32976
1.32677
0.774982
0.802819
0.989365
1.32751
0.878301
1.31279
0.917191
1.09928
1.33479
1.11759
1.3082
1.05163
1.23848
1.32116
1.3093
1.05425
0.823174
1.35217
1.33805
1.24367
1.21593
1.35007
1.34993
1.35998
1.25073
1.34755
1.29525
1.10069
1.32366
1.13343
1.102
1.34565
0.89386
0.931615
1.33041
1.34324
1.09493
1.09551
0.313417
1.32153
0.471115
1.39977
1.39496
1.37595
1.32563
1.38346
1.3357
1.33045
1.32591
1.32931
1.15265
1.32683
1.18669
0.435418
1.3235
0.387728
0.836752
0.861194
1.33084
1.35892
1.31561
1.21521
1.16739
1.09952
1.34371
1.31244
0.94115
1.1265
0.533501
0.59541
1.32363
0.585624
0.628168
1.32377
1.2743
1.12083
1.33183
1.39847
1.343
1.30637
0.952978
1.32581
0.829479
1.15935
1.1596
1.35358
1.33333
0.994815
1.12101
1.33648
1.32954
1.19139
1.262
1.2883
1.37271
1.38294
1.35028
1.28904
1.32622
0.809379
0.911508
1.18788
1.06141
1.33242
1.39848
1.37212
1.33599
1.0078
1.30525
0.768165
1.36461
1.29488
1.36603
1.35713
1.34123
1.39751
1.18831
1.17178
1.35492
0.798969
1.31178
0.56402
0.836863
1.30945
0.588577
1.32904
0.976909
1.11752
1.23032
1.28968
1.36539
1.31004
0.496957
0.739896
1.33982
1.02126
1.10051
1.32535
0.311329
0.28125
0.374791
0.223823
1.32088
1.31364
0.856425
1.06663
1.3252
0.718904
0.800525
0.992399
1.03098
1.32052
0.831677
1.32381
0.885261
1.08561
1.03381
1.34089
1.35083
1.18681
1.09155
1.40856
1.38747
1.35112
1.11533
1.08103
1.3457
1.34702
1.13178
1.10784
1.08408
1.30741
0.849032
1.31836
1.12191
1.32256
1.34363
1.20194
1.33045
1.20204
1.16514
1.35584
1.18408
1.15302
1.35389
1.40424
1.37022
1.35703
1.33216
1.19465
1.34871
1.32822
0.897772
0.873296
0.601059
1.32453
0.60184
0.55406
1.32637
0.590008
1.3746
1.3549
1.27682
0.488079
1.32467
0.519214
1.15412
1.32909
1.00909
1.32285
0.497911
0.471694
1.40585
1.40486
1.37383
1.31728
1.24947
1.36534
1.29715
1.23788
1.36949
1.32742
0.752667
0.742826
1.15998
1.16271
1.35218
1.30834
0.973262
0.747923
1.28708
1.22525
1.36204
1.41426
1.39528
1.36197
0.758803
0.777242
1.32633
1.33507
0.988578
1.09478
0.782576
0.73672
1.31756
1.31776
0.600556
0.557281
1.29324
1.28563
1.37766
1.20748
1.21592
1.3567
1.36556
1.35152
1.39966
0.662466
0.661719
0.67407
1.32451
0.655417
1.32421
1.2328
1.14966
1.35258
0.766941
0.711502
0.726852
0.681276
1.32699
1.32706
1.22097
1.2314
1.367
1.32498
1.27864
1.37302
0.887988
1.30977
0.661634
1.31116
1.27018
1.37519
1.3603
1.32691
1.38917
0.808832
1.31266
0.6043
1.28844
1.19073
1.35282
1.23576
1.12044
1.34669
1.33866
1.16322
1.32191
1.06231
1.3322
1.00814
1.32587
0.198582
0.248377
1.29101
1.2526
1.3681
0.926055
1.31591
0.73693
1.30218
1.12868
1.34424
0.509292
1.31601
0.313921
1.39627
1.38585
1.34671
1.32742
1.34325
1.31042
1.37088
1.35197
1.40011
1.38909
1.3997
1.3562
1.33023
1.37095
1.32689
1.3102
1.2959
1.38375
1.32745
1.2988
1.38286
1.32426
0.629333
0.581372
1.37072
1.27422
1.35003
0.816376
0.752252
1.32635
1.1884
1.15607
1.13578
1.09688
1.35035
1.34565
1.36876
1.30421
1.3595
1.29896
1.1473
1.32757
1.2403
1.18642
1.35902
1.41113
1.38597
1.39516
1.14861
1.10633
1.34767
1.40007
1.37728
1.35554
1.24294
1.22858
1.36599
1.30231
1.17412
1.32977
1.40822
1.40752
1.37402
1.39772
1.37549
1.39099
1.40207
1.3644
1.40548
1.36087
1.38465
1.3399
1.3571
1.35233
1.26443
1.25923
1.35869
1.35418
1.31794
0.940949
1.1141
1.34893
1.14902
1.25523
1.32037
1.32331
0.902232
0.920491
1.07464
1.07197
1.36069
1.31136
1.19226
1.41322
1.40802
1.39887
1.1362
1.07885
1.34542
1.39132
1.36579
1.30352
1.29149
1.1615
1.33131
1.17283
1.18124
0.991492
1.32097
1.01527
1.32427
1.20031
1.12463
1.34769
0.563272
0.373358
1.31673
1.29837
1.15178
1.34764
1.33832
1.34379
1.30633
1.13909
1.31705
1.16456
1.12076
1.12591
1.34663
1.30955
1.16826
1.33111
1.36265
1.30842
1.18886
1.34541
1.35648
1.32248
1.33834
1.21264
1.21081
1.33893
1.32343
1.17824
1.20971
1.14656
1.35252
1.40416
1.37981
1.36412
0.863314
1.31772
0.685991
1.35614
1.30842
1.16696
1.30275
1.27977
1.17247
1.14922
1.33476
1.3386
1.3177
0.737194
0.909481
0.89667
1.31343
0.688358
0.855728
1.31479
0.655333
1.15151
1.32404
0.990676
1.32289
1.19877
1.3378
0.791333
1.00651
1.23406
0.798021
1.17786
0.509392
1.10969
0.902768
0.785336
1.17349
1.17103
0.757384
0.809334
1.16434
1.01695
0.827816
0.83875
0.97338
1.01231
1.13435
1.05593
0.957747
1.19074
1.30372
1.25154
1.01144
1.1928
0.777694
1.07522
0.795593
0.795404
1.10904
1.03194
1.04411
0.838995
1.05464
1.23408
1.18605
0.868084
1.00784
0.927639
1.31826
0.86633
1.16441
1.18271
0.969411
0.978504
0.900022
0.765352
0.869676
1.25523
1.06571
0.831329
0.951944
0.789168
1.25104
1.13392
1.04098
0.890238
1.1533
0.864764
0.87705
1.25341
0.928053
1.04363
1.13745
1.06668
1.28598
1.18826
1.13475
0.742336
0.789671
0.91138
1.15391
0.775127
1.04494
0.983025
0.831786
1.13507
1.2169
0.96954
1.03539
0.769798
0.821992
0.964304
1.14629
0.966713
0.839785
1.00899
1.25491
0.83967
1.15908
1.24858
1.04932
0.819762
0.433214
0.834884
0.906175
0.817625
0.739745
1.09092
1.19462
1.19373
1.29165
0.823422
0.809502
0.771912
0.852742
0.838042
1.23186
1.20002
1.13644
0.814961
0.796521
1.02476
1.15691
0.989195
0.83968
0.718192
0.966771
1.03386
1.25741
1.28121
1.1574
1.03061
0.914724
0.759024
1.27118
0.732312
1.15094
0.732065
1.24612
0.770747
0.719496
0.77321
1.2155
1.03417
0.689622
0.850545
1.11574
0.822091
1.15338
1.04374
0.865566
1.18099
0.946586
0.815421
1.22518
0.860051
0.990067
0.758557
1.03024
0.864597
1.21535
1.15837
0.978846
1.15225
1.1528
1.23311
0.991125
0.903464
0.858396
1.13295
0.730279
1.00282
0.778401
1.30354
0.969352
1.19829
1.27352
1.05879
1.27601
1.22075
1.2356
0.793489
0.724454
0.757671
1.23534
0.804987
0.779343
0.721199
0.78132
0.984376
0.942608
1.05777
1.27313
1.1575
0.934378
1.14467
0.924603
1.31199
0.678937
1.17189
0.875657
0.71079
1.26302
1.28139
0.866743
0.905376
1.30195
1.08052
0.856024
0.842731
1.15475
1.2302
1.08265
0.836627
0.892379
1.14845
1.015
0.853019
1.03227
0.730401
0.809575
0.919097
1.15135
0.725202
0.888302
1.19536
0.958668
0.723939
0.97355
0.836352
0.878714
1.10477
1.11769
0.812988
0.778222
0.765551
1.13755
1.07506
0.993891
1.12557
0.956252
0.806019
1.09244
0.929623
0.705125
1.0787
1.22447
1.07381
1.24577
1.22674
1.31579
0.825187
0.680787
1.00326
0.976989
0.869553
0.733885
1.08549
1.25875
1.13998
1.08911
0.826385
0.99442
1.1033
1.05126
1.07332
0.86228
0.995054
0.931853
0.714549
0.821426
0.872864
0.837621
0.828448
1.12046
1.02583
0.984048
1.12822
0.819566
0.993236
0.873483
0.97701
0.956986
0.917816
1.08202
0.733206
0.676541
0.992441
0.751977
0.727812
1.08951
0.684836
0.726633
1.21442
1.13077
0.840318
1.09091
0.800493
1.11115
1.02935
0.735388
0.827276
1.16284
1.01578
1.12885
0.515976
0.804718
1.2146
0.923342
0.781159
0.654871
0.742063
0.722595
0.746462
0.947764
1.12791
0.813564
0.711277
0.850139
0.902961
1.3129
0.80233
1.15062
1.05852
0.702478
0.907196
0.822988
0.78515
1.10854
0.949769
1.25748
1.08114
0.809833
0.943473
1.06757
1.30148
1.09838
1.23527
1.16238
0.925425
1.06503
0.991622
0.840906
0.740593
0.910626
0.843127
1.08431
0.883377
0.772692
0.825211
0.879684
0.820145
0.831779
1.20203
0.874366
0.875221
1.23711
1.18031
0.821175
0.976259
1.23088
0.914954
0.673867
0.93978
0.818524
0.776104
1.21842
0.859115
0.938064
1.21834
0.738606
1.04178
0.842501
1.06102
0.946601
0.888337
0.467255
0.897745
0.770432
0.946001
0.968435
0.973966
1.11734
1.25488
0.81744
0.981199
0.87188
0.767703
0.701973
1.18976
1.04589
0.951125
0.778553
1.05117
0.755871
0.811512
0.818189
0.823168
1.12754
1.24481
0.917581
1.10091
1.28903
1.19635
1.16959
1.23946
0.852496
0.891484
0.777831
1.30143
1.15963
1.20304
0.892845
0.962465
0.717099
1.11656
0.887512
0.795009
1.2008
1.06611
0.74268
0.89122
0.837133
0.825643
0.848098
0.947111
0.981533
0.790115
0.899044
0.748096
0.909743
0.805959
1.05604
0.942473
0.727159
1.23478
1.24839
1.15871
0.922006
1.05113
0.679983
1.17469
1.0569
0.758127
1.22975
0.604321
1.25992
0.76046
0.985565
0.968134
1.15871
1.13575
0.81785
1.2768
0.829086
1.20091
0.985485
1.05111
0.894114
0.796495
0.892214
1.20299
0.949401
1.29573
1.14119
0.739447
0.804666
1.11528
0.625881
0.927052
0.984641
0.79364
1.26016
0.75148
0.728804
1.16909
0.902655
1.25702
1.28833
0.974087
1.29512
1.26209
1.21141
1.21118
1.07815
0.769384
0.863873
0.95709
1.19528
0.933052
0.604927
1.2746
0.819801
1.0009
0.854456
1.2396
1.31
0.833164
1.198
1.04818
1.25395
0.89444
1.16579
0.989541
1.27396
1.29171
1.1222
0.856819
1.14592
0.85929
0.966984
1.02298
0.944138
1.05951
0.825189
0.609819
0.780337
0.962972
1.07768
1.01102
1.2191
0.846839
0.883795
1.06312
0.779654
1.24685
0.80041
0.989587
1.2176
1.21188
1.02798
1.28268
0.811934
0.959587
1.16372
0.960408
0.933195
0.985644
0.893867
1.11838
1.14146
0.892951
0.832394
1.03968
0.744237
0.7902
1.2512
1.28493
1.29317
0.906565
1.29591
1.30652
1.26493
0.699237
1.07977
1.06765
1.28389
0.937476
0.809669
0.763973
0.853555
0.575945
1.27011
1.01398
1.02406
1.1701
1.12491
0.922107
0.985529
1.30619
1.26701
1.2365
1.09879
0.944871
1.10127
1.10439
0.939366
0.955949
0.803205
0.85713
0.990477
1.014
0.882421
1.24659
1.25596
0.703825
1.21385
0.845943
0.833219
0.899039
1.24001
0.959064
1.10771
1.00341
1.23992
0.952668
1.00212
1.2869
0.711906
0.743573
0.814492
0.797765
0.676291
0.383889
0.810441
0.681101
1.02061
0.696862
0.808248
1.01238
0.929575
0.812354
0.890154
0.788154
0.434371
1.26102
1.17051
0.968147
0.764349
1.17667
0.951574
0.807233
1.29053
0.816739
1.28495
0.942797
1.22123
0.901106
0.694127
0.802826
1.00163
1.01228
1.02371
0.701443
0.959622
0.817796
0.796532
0.827041
0.735181
0.794523
1.26866
0.795852
1.14757
1.17046
0.941568
1.14546
1.17545
0.762237
0.393451
0.982641
0.743052
0.683836
1.14651
1.15891
0.969204
1.09604
0.918416
1.28699
1.25938
0.996838
0.905841
1.27943
1.22561
1.09381
1.08065
0.950441
1.29188
0.969737
0.701074
1.242
1.18526
1.2563
1.02894
0.868554
0.897604
1.16167
1.11186
0.299314
1.32031
0.977791
0.819139
1.04858
1.19176
1.28237
1.29789
1.08864
0.949445
1.17239
1.2233
1.21802
1.14367
1.19541
0.706988
0.834618
1.02982
0.776826
0.694735
0.729037
0.974435
1.1811
0.751109
1.01173
0.818886
1.16834
1.29798
1.01366
0.7789
0.719136
1.11762
0.912335
0.84188
0.720156
1.23232
1.0694
1.09188
0.751184
1.0821
0.841556
0.841868
1.12567
1.17944
1.23398
1.30845
0.805881
1.21665
0.70466
1.24128
1.25852
1.25734
1.17245
0.793482
0.792195
0.978542
0.698273
0.959314
0.733557
1.01613
0.756552
1.19656
0.945037
0.710516
1.20998
1.11446
0.980086
0.994383
1.13933
1.23324
1.0711
1.00731
0.707201
1.19082
0.970462
1.26248
0.679866
1.01949
1.24354
1.15498
1.28209
1.15374
0.959543
0.664209
0.715122
0.999796
0.741085
1.26802
0.70613
0.822507
0.970742
0.85684
1.14667
0.68568
1.22168
1.16494
1.08849
0.608808
1.057
0.770311
0.860914
1.00817
0.969816
0.961901
0.949729
1.18322
0.800919
1.29262
0.949808
0.923479
1.12565
1.10803
1.2661
0.964361
1.00375
0.809071
0.946892
0.935903
1.2663
0.851915
1.01035
0.949779
1.18371
0.920875
1.02755
0.786979
1.29858
0.695141
0.790048
0.831313
1.18412
0.714975
0.723073
0.783531
0.771191
1.24937
0.994466
1.11337
1.22149
1.09207
0.953055
1.29992
0.947232
1.11505
1.10567
0.990502
0.727205
1.01623
1.02076
0.840776
1.00521
0.750186
0.740791
1.06242
0.859543
0.811773
1.17783
0.937878
1.07721
1.00996
1.25142
0.959912
0.90506
1.09925
0.771947
0.840005
0.952353
1.00539
1.05897
1.11133
1.24533
1.10003
1.19543
1.05404
1.21802
1.27018
1.27116
0.983447
0.970511
1.04779
0.767922
1.27901
1.21958
1.1938
1.03696
0.798305
0.731573
1.05229
1.15417
0.810811
1.18847
1.20746
1.10577
0.831888
0.972957
0.854884
0.795045
1.04046
0.830549
1.09216
0.721333
1.09015
0.926723
0.999294
0.685737
1.04784
1.03456
1.12096
0.929452
1.08171
1.24969
1.2566
1.1
0.951705
1.19733
1.05771
0.845811
0.84754
0.976627
0.760112
1.24013
0.98246
1.06934
1.16459
1.14774
1.04721
0.742727
1.2902
1.06244
0.866859
1.00395
1.04514
1.19715
1.24468
1.06625
1.0834
0.717054
0.825612
1.0066
1.09997
1.01686
1.10257
0.895073
1.25474
1.06258
1.13545
1.22648
1.06282
0.815381
0.989057
1.27779
0.943977
0.712644
0.983391
1.28374
0.912432
0.981383
1.1872
1.14928
1.19865
1.02672
0.724771
1.1026
0.786966
0.921841
1.21042
1.0242
0.773641
0.812362
0.909117
1.11148
0.888427
0.839943
1.21914
0.876931
1.30137
1.1955
0.759298
0.669793
0.974581
1.14397
1.22643
1.02997
1.0068
0.78244
0.979281
0.948431
1.30841
1.23623
1.15866
0.869593
0.73262
1.23212
1.2943
1.25079
1.19356
1.22592
0.986546
0.789291
0.693992
0.715427
1.26204
1.04186
0.762944
0.898932
1.29253
0.948744
0.833382
0.746227
1.03131
0.839245
1.2935
1.10779
1.13129
1.24009
1.20232
0.992536
1.12809
0.999388
1.0927
0.936923
1.09508
0.881147
1.26478
0.708414
0.924524
0.757553
0.948126
1.24767
0.956999
1.20926
1.21447
1.23703
0.811328
0.998935
1.00364
0.792661
1.25684
1.02959
0.995355
1.10224
0.541333
0.905704
1.24566
1.13108
1.25814
0.704354
0.79042
0.963336
1.27138
0.799478
0.946328
0.834903
0.730257
0.868955
1.25458
0.898006
1.0129
0.753425
1.2852
1.28553
0.553172
1.24304
0.936184
0.814083
0.794215
1.02823
0.748509
1.06032
0.882162
0.924869
0.952621
1.21297
1.02544
1.20502
0.928087
0.781752
0.938535
0.703694
0.737097
1.01151
0.849144
1.01286
0.818861
0.98306
1.20598
1.06461
0.92669
0.688909
1.2199
1.0401
0.960183
1.30408
1.03026
0.918966
0.831769
0.743182
1.27862
0.85765
0.993733
1.11425
0.767296
1.22772
0.71713
1.2144
0.987346
1.17455
0.838703
1.15127
0.995761
0.765747
0.850404
0.98315
1.24123
0.669037
0.820242
0.964884
1.26598
1.29219
0.77363
0.897278
1.05261
1.26929
0.947148
1.24893
1.22708
1.19521
1.16384
1.0855
1.07428
1.05802
1.26002
0.945601
1.01232
0.773367
0.82787
0.931905
0.796218
1.27887
0.710731
1.23805
0.935618
1.27083
0.903678
1.28761
1.1743
1.19511
1.27152
1.24924
1.30056
0.98079
1.23575
0.970406
0.959973
0.82048
0.82168
1.25747
0.713827
1.11291
1.11606
0.989566
1.06967
0.88685
1.23795
1.06139
1.15911
0.690637
0.827539
0.965078
1.29156
0.78397
1.13622
0.837198
0.963048
0.7703
0.961895
0.94677
1.2022
1.26404
0.743943
1.1061
0.960911
0.910879
1.21344
0.790405
0.822202
1.27038
0.714311
1.00506
1.15729
1.24501
1.29323
0.841599
0.849939
0.75987
0.897688
0.797203
0.957127
1.13475
0.92968
0.775347
1.00714
0.997074
0.888134
0.798096
0.96228
1.01541
0.774416
1.19072
1.17654
0.843717
1.1671
0.686537
0.761625
0.782667
0.712964
1.27991
0.940375
0.944649
0.888113
1.19783
1.25942
1.07469
1.14684
0.814205
0.870263
0.986168
0.944693
0.819232
1.2582
1.03523
1.07018
1.27876
1.18611
0.940386
1.27352
0.738136
1.08001
1.0746
1.11842
0.87175
1.25037
0.933411
1.11236
1.0051
0.879128
0.797493
0.858346
1.17581
1.21619
1.23765
1.0013
1.04001
1.25629
1.15838
1.01599
1.00017
0.800084
0.986433
1.20568
0.739533
1.22385
0.954444
1.23574
1.29338
1.26245
0.945965
1.1983
1.22475
0.632923
1.25141
0.813528
1.26785
1.19945
0.968722
0.824854
1.02141
0.988618
0.861462
0.812832
1.15798
0.847945
1.27072
0.794067
0.855072
0.790783
0.786633
0.946606
1.20639
1.28413
0.788937
1.13938
1.03867
1.11414
0.95758
1.04308
1.25333
1.20523
0.95911
1.24607
1.21558
1.28638
0.785627
0.944044
0.812063
1.15809
1.27433
1.21993
0.992158
1.28768
0.986718
0.745614
0.823015
0.665876
0.94127
0.779063
1.28182
1.30235
1.04225
1.29721
1.20895
1.07429
1.28275
0.800778
1.24812
0.984684
1.25839
0.920509
0.793682
1.15341
1.06167
1.26838
1.24968
1.25568
0.804278
0.803925
0.726363
1.20768
1.20299
0.763833
0.971645
1.20431
0.702321
0.899954
0.80945
0.978122
1.09913
0.971493
1.07385
1.11256
1.04096
1.05188
1.1823
0.929062
0.919068
1.10713
1.04908
0.940141
1.23552
1.2625
0.766971
1.19995
0.69084
0.881865
1.23889
1.18715
0.955409
1.26119
0.785933
1.17423
0.926145
0.90353
1.24353
0.926319
1.17627
1.14105
1.12806
1.30457
1.14032
0.764832
1.12272
0.925006
1.18721
1.30565
1.11565
0.976657
0.817533
0.904379
1.24522
0.789072
1.18651
0.808445
1.03197
1.18444
1.17503
1.04941
1.22778
1.28655
0.910772
0.92661
1.05298
0.800952
0.787989
1.0788
1.14564
0.858479
0.76455
0.788579
0.753776
1.17343
0.975385
1.19181
0.846371
1.25401
1.03634
1.21392
1.28014
0.872815
1.25045
0.885811
1.0648
0.974956
1.21224
0.822656
0.953639
0.986028
0.799478
0.935757
0.790632
0.770506
0.692127
1.27923
1.28871
0.857311
0.840763
1.18505
0.73846
0.788753
0.949654
1.15714
1.15694
0.721476
0.692203
1.24932
0.829582
1.08816
0.824183
0.75324
0.826092
0.995659
1.22173
1.07597
0.754257
1.25602
1.22206
0.835961
1.09614
0.938449
1.27978
0.959335
0.947008
0.763344
1.14417
1.25567
1.11551
0.997005
0.84074
0.95985
1.07227
1.28282
1.30228
0.818412
1.28949
0.850597
1.0863
1.08291
1.01269
0.905503
1.21631
0.876348
1.04724
0.811247
0.920765
0.887542
0.794078
1.11961
1.25838
0.838167
0.880703
1.07075
0.915296
0.787707
0.699285
0.885956
1.20514
0.615935
0.949552
1.12539
1.07877
0.984424
1.13346
1.19515
0.766978
0.765196
1.21692
0.982418
0.757507
0.976598
1.20901
1.13447
1.09326
0.819111
0.88254
0.814774
1.28417
1.22081
1.28995
0.976473
1.15441
0.781635
1.02593
1.2257
0.745233
0.7644
1.17822
1.22517
0.735688
0.862947
0.804417
0.747819
0.802682
1.29919
0.932739
0.855419
0.994603
0.816864
1.15434
1.01134
0.776018
0.853792
1.17278
0.960945
1.28499
0.783358
0.902206
1.08228
1.08456
1.02169
1.10098
0.795524
1.29125
1.24045
1.08782
1.21852
0.85726
1.21926
1.13948
1.06304
1.27445
0.738363
0.8942
1.30144
1.14261
0.733636
0.954037
1.18064
1.29683
1.03006
1.18494
0.814399
0.764302
0.807315
0.723918
1.22435
0.864259
1.06036
1.26729
0.868138
0.766771
0.836928
1.02555
0.838549
0.950173
0.826354
0.805549
0.955635
1.20473
1.27049
1.12199
0.867516
0.898777
0.715893
0.909776
1.12253
1.10915
1.08827
1.13703
0.90153
1.03382
1.19235
1.22864
1.29562
1.24087
1.27804
0.976617
0.79067
0.817857
0.782545
1.2842
1.04477
0.858354
1.27209
0.797119
1.20304
1.15482
0.866155
0.817252
0.891764
0.892674
1.22586
0.990708
1.1594
1.01356
1.26646
1.09043
1.30777
0.828323
1.02072
0.9388
0.683136
0.910462
1.16688
0.746416
0.522977
1.09379
1.25248
1.19043
0.888785
0.772549
0.809915
0.806747
0.820256
0.808075
1.01279
0.802658
1.17883
0.851131
0.839933
1.23466
0.961566
1.07327
1.21872
1.01204
1.06123
0.803474
1.15453
0.995952
0.854889
0.948991
0.823529
0.778539
0.840488
0.802831
1.18435
1.29154
1.23358
1.08939
1.16022
0.745263
1.28987
1.04824
1.13217
0.817798
1.15587
0.955257
0.926163
1.20765
1.25601
1.17128
1.09806
0.964327
1.29952
0.890715
1.18001
1.28099
1.14764
0.953226
0.737078
1.18493
1.01436
0.810459
1.13901
1.01748
1.26118
0.855013
1.26718
1.29612
0.999497
0.827891
1.27814
0.769172
0.816848
0.919042
0.806104
0.888401
0.815758
0.783497
1.01381
0.835526
0.806839
0.922919
1.10629
0.926442
0.860503
1.13129
1.05881
0.755729
1.2593
1.2879
1.27442
0.827628
0.753303
1.31407
0.760386
0.986822
0.792822
0.961395
0.813926
1.17613
0.928397
0.949737
0.763398
0.740044
0.816063
0.936602
0.735828
1.04459
1.08238
1.03555
1.26904
1.04732
1.10323
0.919274
1.21532
0.973473
0.949772
1.30739
0.898068
0.999843
0.7789
1.14885
1.28865
1.00454
1.07426
1.00967
0.956672
0.81709
0.866677
0.789473
1.18101
0.823835
0.965121
0.947611
1.0015
0.812784
0.867852
0.986095
0.987963
0.913982
1.28866
1.00302
0.934
1.09731
1.25627
0.944658
0.743108
1.1691
0.771067
0.960766
0.809293
0.947146
0.949474
0.876286
0.942474
1.28772
1.23252
0.750581
0.910222
0.743078
0.793856
0.732222
0.793587
0.883198
0.817585
0.895092
1.12017
1.29662
0.926305
1.16307
1.0105
1.2828
0.934949
1.28785
1.12126
0.790948
1.09773
1.16855
0.963054
1.20235
0.807815
1.23879
0.89111
0.568833
1.02446
1.29782
1.27923
1.1854
1.10932
1.13126
0.764218
0.936701
1.11622
1.30833
0.585577
0.974278
0.808321
0.969548
0.993679
0.810233
0.779977
0.871522
0.803035
0.851788
0.981206
0.977265
1.30365
1.21012
0.731024
1.19643
0.804842
0.857695
1.19727
0.895668
0.961221
1.11483
0.634802
0.844394
1.02649
1.22648
0.79383
0.864209
0.962217
1.12183
0.782284
1.26253
0.747539
0.947939
0.970439
0.884633
1.10004
1.12442
1.25862
0.811903
1.15856
1.08872
1.11094
0.81902
1.09063
0.839021
0.773811
0.714233
1.02557
1.02847
0.972228
1.22934
0.996251
1.001
1.08944
0.829039
0.812109
0.936118
1.05992
0.825529
1.29509
0.781051
0.750586
0.901621
0.953167
0.834492
0.795273
1.14457
0.927056
1.03752
0.789961
0.807387
1.03748
0.73189
1.29593
1.27867
0.791968
0.814541
1.21727
0.975618
0.817718
0.76701
0.804064
0.809787
1.08277
1.25654
0.816047
0.757628
1.12081
0.99402
0.747827
0.794312
0.982592
1.16075
1.29917
0.78341
0.742785
1.10211
1.22378
0.994605
1.05887
0.964853
0.811966
0.950591
1.12236
1.02609
0.81964
1.20438
0.964021
0.710222
1.07412
0.846496
1.20697
1.30528
0.829958
0.939417
0.943848
0.932761
0.775479
0.958708
0.806309
1.27239
1.19766
1.16012
0.886165
0.766888
1.18897
1.28819
0.864273
1.06877
0.949797
0.690064
1.05526
0.959387
0.700515
0.806297
1.05927
0.799694
0.751798
0.800208
1.17748
0.783641
1.18525
0.926377
0.843175
0.984705
0.807784
1.20843
0.718919
0.950313
0.988293
0.772397
1.06111
1.11184
1.09567
1.02984
1.18991
0.798708
0.791833
1.24482
0.814653
1.23896
1.10252
0.99854
1.01554
1.23452
0.995035
0.737162
1.26247
0.81005
1.0042
1.22418
0.809893
1.26856
0.831746
0.965208
0.637429
0.957492
0.790356
1.02029
0.830072
0.710992
0.818075
0.783128
0.695444
1.25546
0.78322
0.950399
1.07083
1.00422
1.29064
1.29128
0.94397
0.940164
1.21038
0.934676
1.25745
0.706707
0.979067
1.05636
0.874808
1.2179
0.947838
0.954166
0.868226
0.874435
0.791922
0.715364
1.23782
0.458887
1.25882
1.15507
0.826831
0.748955
0.827485
1.30366
1.12453
1.12824
0.996448
1.06126
0.999099
1.23326
1.18377
0.808934
1.08811
1.26825
1.0114
1.06451
1.07016
0.730219
0.784791
1.16855
0.961519
0.965275
1.26993
0.782745
0.712573
0.88999
0.955446
1.01773
1.28466
0.839866
0.776986
0.856171
0.958887
0.843885
1.24711
0.932393
0.829324
0.954599
0.868249
0.811783
0.862108
1.10513
0.966231
0.802787
1.23218
0.968355
1.18699
0.804136
0.778585
0.912482
1.22517
1.28009
1.18221
1.05104
1.02522
1.20131
1.27428
0.783313
1.25802
0.81909
1.11186
1.123
1.24584
1.04516
1.23248
1.25094
0.823313
0.79995
0.950617
0.973113
0.81948
0.767904
0.702252
1.17936
1.21646
0.770396
1.26384
1.03627
1.19382
0.996218
0.809169
1.21013
1.19012
0.948457
0.847209
0.793561
1.29649
1.14717
1.31118
0.767528
0.81858
0.989535
1.22334
1.11254
1.22007
1.00642
1.27941
0.885631
0.944581
1.06502
0.903135
1.10964
0.671297
1.20476
0.999246
1.05374
1.25894
0.759194
0.773459
0.722556
1.02465
1.23817
0.865368
1.1014
0.682534
0.771331
0.968463
0.8562
0.823716
1.21941
0.958531
0.828479
0.967977
1.05038
1.25722
1.03049
0.983583
1.23775
0.981248
1.27917
1.05908
1.16301
0.988786
0.783743
1.2989
0.802685
1.00489
1.09364
1.25415
1.14924
1.02114
0.81393
1.30078
0.971099
0.838179
1.1832
1.2918
1.16342
1.13344
0.756105
0.706827
1.07737
0.804823
0.971266
1.0454
0.801422
1.25599
1.29826
1.26412
0.908786
0.961064
0.817664
0.916883
1.12196
0.798829
1.13069
1.27208
0.789192
0.951893
0.884818
1.18729
1.12756
0.962326
0.807712
1.17047
0.804619
0.655582
0.817572
1.30364
0.710777
1.201
1.0509
0.805659
1.26761
1.08202
1.29835
0.632357
0.953929
1.04959
1.26116
0.917925
1.25449
1.08469
0.711134
1.03218
0.898347
0.937419
0.704097
1.17452
0.954359
0.815824
0.740325
1.03377
1.22647
0.655438
0.917709
1.23889
0.904594
1.22307
0.702386
0.802532
0.815573
0.997991
0.939804
0.755588
0.804327
0.666816
0.978917
0.985838
1.19388
1.01197
1.24135
0.809575
0.956922
0.758918
0.969723
0.664647
0.961669
1.30813
0.934157
0.886683
1.30179
0.846291
1.07731
1.11256
0.760844
0.915632
1.00863
1.03205
1.27038
1.29025
1.29133
1.04251
0.911229
1.00313
0.82426
1.2176
1.09263
0.853053
0.848974
0.87753
1.00405
1.30245
0.970327
1.2987
0.958152
1.05791
0.830095
0.814039
0.769453
0.867114
1.25172
0.862947
0.773647
0.793018
1.29888
0.919063
0.812269
0.799969
0.811005
1.15484
1.00695
1.00329
0.910159
1.12097
0.751248
0.984061
1.03843
0.875063
1.2321
1.23984
0.837191
1.24627
1.26506
1.23321
1.05217
0.977169
0.88181
0.993494
1.27174
1.0034
1.04818
1.2431
1.29476
1.26566
1.23987
0.809105
1.12399
0.999642
0.846221
0.732364
0.954126
1.22992
1.29774
1.27556
0.850765
0.817526
0.784149
0.705002
1.09063
1.29455
1.11286
1.18032
1.19186
1.18507
1.16859
0.797659
0.904323
0.873684
0.789415
0.834265
0.94323
0.770717
0.854929
0.820442
1.25089
1.10078
0.737091
1.29265
0.832441
0.837837
0.979308
0.793534
1.13318
1.16901
0.83596
1.05189
1.28605
1.29564
1.13802
1.15659
0.945576
1.04016
0.992735
0.754793
1.05318
1.07635
0.846252
1.12694
1.10678
0.774454
0.527534
0.831337
1.27054
0.867594
1.15115
0.958783
1.26531
0.969568
0.800278
1.20216
1.12161
1.09967
1.03982
0.802872
0.880112
0.759975
1.11768
0.805355
1.20564
0.960065
0.838088
1.09601
0.761506
0.901463
1.30174
0.784974
1.15806
0.845602
0.805388
0.885715
0.984502
1.22865
1.24352
0.964864
1.27315
0.736652
1.24867
1.20836
1.15444
0.831122
1.21505
0.785245
1.16847
1.12442
0.65606
0.927697
0.778128
1.27573
1.15562
0.74677
0.795827
0.974486
0.851434
1.13749
0.843275
1.0285
1.29785
0.823665
1.28075
1.03306
1.11743
0.746996
1.22254
0.834685
1.23695
0.505089
0.807217
1.11729
1.18752
1.04854
1.11845
0.820009
0.912829
1.17105
1.12627
0.830145
1.17221
1.11369
1.23325
0.681762
0.968632
0.686622
1.04077
1.14303
1.04015
0.597609
0.867296
1.25418
1.0958
0.890043
1.24817
0.932681
1.14469
0.733367
0.925476
0.815106
1.23896
1.27572
1.14951
1.0105
0.960981
0.773544
1.13741
0.818524
1.21401
0.727549
1.01839
0.744992
0.729424
1.03865
1.25147
1.01834
1.00614
0.841507
0.83012
1.21126
1.005
1.01548
1.30884
1.1267
0.83264
1.17416
1.23059
0.941665
0.756543
0.789997
1.03942
0.816905
0.949304
0.612735
1.12386
0.988782
1.2361
0.797003
1.17413
1.22657
0.985627
0.797006
0.909807
0.828244
0.985377
0.700333
1.08053
1.06434
1.02198
1.21934
1.21849
0.7481
1.26905