/*--------------------------------*- C++ -*----------------------------------*\
  =========                 |
  \\      /  F ield         | OpenFOAM: The Open Source CFD Toolbox
   \\    /   O peration     | Website:  https://openfoam.org
    \\  /    A nd           | Version:  6
     \\/     M anipulation  |
\*---------------------------------------------------------------------------*/
FoamFile
{
    version     2.0;
    format      ascii;
    class       volScalarField;
    location    "0";
    object      p;
}
// * * * * * * * * * * * * * * * * * * * * * * * * * * * * * * * * * * * * * //

dimensions      [0 2 -2 0 0 0 0];

internalField   nonuniform List<scalar> 
13046
(
0.638039
0.622056
0.683105
0.63468
0.671523
0.639548
0.623523
0.642295
0.679998
0.538155
0.515756
0.698583
0.625499
0.612867
0.68428
0.573589
0.699435
0.514537
0.663823
0.660178
0.629151
0.567388
0.699547
0.516422
0.638351
0.639814
0.673153
0.623149
0.610349
0.689991
0.643944
0.609824
0.679986
0.646461
0.669413
0.637402
0.644571
0.668569
0.643908
0.658371
0.681091
0.592769
0.646052
0.660886
0.651875
0.640807
0.6579
0.657102
0.630097
0.624589
0.68441
0.671499
0.673517
0.563088
0.678203
0.553358
0.679486
0.530073
0.627987
0.697362
0.583608
0.625202
0.689527
0.69613
0.560672
0.568184
0.636995
0.529672
0.694969
0.641074
0.533655
0.69342
0.522044
0.625041
0.69843
0.664805
0.669209
0.619542
0.700688
0.609346
0.527749
0.63305
0.639647
0.674301
0.69697
0.552115
0.561765
0.543651
0.696538
0.58873
0.698411
0.511666
0.605133
0.601761
0.592724
0.591936
0.589799
0.691955
0.694886
0.697019
0.540169
0.599455
0.638356
0.662294
0.654063
0.681818
0.571408
0.670388
0.667667
0.679457
0.575417
0.510084
0.699546
0.472239
0.627868
0.620292
0.680318
0.602135
0.605304
0.56949
0.695352
0.581626
0.693604
0.534143
0.501617
0.699308
0.617177
0.590591
0.692754
0.653781
0.681952
0.593952
0.695742
0.51675
0.619695
0.575887
0.586706
0.694418
0.640531
0.606973
0.681444
0.598236
0.652031
0.68133
0.669453
0.673744
0.574218
0.678073
0.58114
0.672277
0.583758
0.614965
0.689581
0.679946
0.602631
0.658752
0.663043
0.551374
0.656965
0.550382
0.685497
0.68817
0.59419
0.647236
0.677626
0.53241
0.698071
0.526895
0.521236
0.698991
0.481734
0.575527
0.575991
0.696433
0.6574
0.569267
0.687662
0.59513
0.674866
0.652461
0.700027
0.547108
0.527085
0.657503
0.577893
0.681861
0.680333
0.594971
0.659524
0.604577
0.650716
0.677606
0.613008
0.688427
0.617805
0.601311
0.688863
0.547939
0.696281
0.567664
0.695785
0.532006
0.613396
0.521771
0.597449
0.695378
0.674765
0.543343
0.674372
0.615069
0.613414
0.700348
0.522349
0.580396
0.52118
0.697961
0.637599
0.669248
0.647815
0.629393
0.60963
0.688717
0.696866
0.524685
0.621773
0.610208
0.620407
0.689129
0.699201
0.507667
0.515762
0.677306
0.542599
0.671136
0.529925
0.60491
0.695656
0.570451
0.653308
0.685786
0.618299
0.591539
0.693777
0.64252
0.522772
0.691621
0.541188
0.65402
0.688331
0.699377
0.512076
0.506066
0.66788
0.684518
0.569377
0.529435
0.698701
0.442509
0.664315
0.630927
0.655976
0.578926
0.57878
0.645057
0.651087
0.685808
0.683566
0.698549
0.602477
0.51921
0.625798
0.593185
0.690301
0.540177
0.641552
0.691923
0.588484
0.579509
0.695186
0.651573
0.645135
0.661471
0.561119
0.650038
0.687187
0.629151
0.580793
0.691671
0.613763
0.610595
0.6709
0.682546
0.561075
0.560926
0.641186
0.688423
0.579312
0.696236
0.579571
0.671738
0.67452
0.581912
0.687021
0.543869
0.661714
0.6168
0.564759
0.693339
0.672739
0.674391
0.56065
0.611309
0.604891
0.561401
0.694945
0.560552
0.696973
0.698887
0.551042
0.535758
0.611444
0.584856
0.694294
0.429547
0.69939
0.498979
0.617295
0.667651
0.655247
0.591764
0.627243
0.687892
0.696439
0.556802
0.576431
0.678305
0.544203
0.680849
0.632531
0.524134
0.69379
0.632849
0.68479
0.594708
0.61709
0.690793
0.631015
0.682879
0.581232
0.698321
0.523309
0.681857
0.534709
0.676104
0.588704
0.614395
0.691641
0.593421
0.64938
0.683719
0.572835
0.666557
0.677659
0.634425
0.628846
0.678952
0.681597
0.545334
0.666192
0.537911
0.579577
0.69588
0.634546
0.527169
0.694517
0.647852
0.689775
0.542834
0.609766
0.614062
0.548107
0.539744
0.695617
0.695572
0.698986
0.43738
0.507482
0.536193
0.698829
0.448975
0.574085
0.643084
0.68368
0.696245
0.547421
0.555078
0.631877
0.62684
0.554413
0.550374
0.695421
0.694641
0.697227
0.573526
0.503614
0.526787
0.699194
0.426178
0.632524
0.658819
0.663535
0.51475
0.452056
0.699164
0.649961
0.572956
0.686458
0.525811
0.555278
0.699496
0.451066
0.700194
0.471358
0.659792
0.676234
0.599127
0.621684
0.660276
0.669808
0.541916
0.699512
0.493862
0.615477
0.658796
0.671721
0.637638
0.658178
0.661498
0.684055
0.531972
0.675435
0.612112
0.670416
0.665482
0.618715
0.657297
0.663971
0.653335
0.544285
0.688693
0.700453
0.700264
0.52165
0.524362
0.553459
0.548145
0.528185
0.578401
0.697307
0.695782
0.648176
0.530336
0.660251
0.680087
0.579659
0.534716
0.654477
0.686428
0.497243
0.700156
0.47436
0.698683
0.512741
0.596308
0.52227
0.699389
0.495529
0.69933
0.436453
0.47212
0.408412
0.698445
0.49082
0.630034
0.562506
0.689239
0.549434
0.698492
0.488881
0.566833
0.591901
0.69522
0.571495
0.69953
0.483254
0.621678
0.681653
0.636418
0.582092
0.69811
0.506929
0.536472
0.684961
0.657232
0.636169
0.543288
0.693251
0.698251
0.36987
0.455189
0.451857
0.700297
0.485988
0.627491
0.679311
0.634825
0.566297
0.508465
0.697864
0.699765
0.494865
0.569914
0.552492
0.697356
0.553101
0.698678
0.532557
0.591592
0.660877
0.535189
0.691314
0.54188
0.623344
0.698333
0.700006
0.591645
0.50434
0.639193
0.636205
0.585999
0.58087
0.688286
0.690932
0.645134
0.584175
0.687438
0.639142
0.543662
0.697336
0.635868
0.53537
0.692702
0.572768
0.524341
0.699785
0.692781
0.540613
0.620594
0.407049
0.697985
0.500271
0.654695
0.649466
0.680364
0.602792
0.681403
0.610304
0.646481
0.646004
0.690583
0.551317
0.692669
0.563449
0.461793
0.699689
0.469423
0.568882
0.515362
0.697474
0.664043
0.679259
0.562912
0.647913
0.528
0.690588
0.69849
0.533533
0.597844
0.481952
0.498332
0.699446
0.498992
0.497971
0.699655
0.623932
0.560255
0.696377
0.672334
0.668456
0.588712
0.548764
0.697681
0.538226
0.628992
0.553415
0.69387
0.697429
0.562788
0.577966
0.65125
0.691547
0.561755
0.571922
0.657544
0.681294
0.662789
0.680168
0.584893
0.698419
0.53936
0.538612
0.593178
0.56897
0.696274
0.658747
0.676253
0.604601
0.585207
0.700274
0.494577
0.639485
0.602311
0.686605
0.609352
0.648495
0.677755
0.638685
0.551171
0.689852
0.549103
0.699975
0.461757
0.557693
0.69996
0.463312
0.697914
0.553868
0.581837
0.561242
0.666517
0.680647
0.700285
0.44616
0.540803
0.695183
0.583997
0.559785
0.699107
0.425997
0.464202
0.486596
0.393127
0.699255
0.699789
0.515082
0.589038
0.698934
0.524744
0.522924
0.565044
0.568333
0.697253
0.526647
0.697351
0.540382
0.553078
0.595028
0.695407
0.693457
0.655186
0.52379
0.6489
0.674666
0.621
0.550285
0.608531
0.694822
0.694166
0.549832
0.61486
0.600699
0.699812
0.504146
0.646407
0.543278
0.694069
0.646564
0.569323
0.686643
0.570244
0.619418
0.694218
0.564471
0.619649
0.693729
0.658918
0.669323
0.613626
0.637948
0.571448
0.694336
0.69899
0.59174
0.502148
0.489599
0.699739
0.508917
0.479613
0.69997
0.513524
0.653109
0.685004
0.586628
0.474685
0.699381
0.48821
0.590305
0.697078
0.556298
0.700617
0.482044
0.475893
0.634628
0.669036
0.645351
0.610882
0.615225
0.688777
0.66714
0.56334
0.678953
0.697716
0.555712
0.496384
0.628409
0.552286
0.692332
0.699502
0.576754
0.496065
0.6018
0.61201
0.693331
0.649878
0.673995
0.624433
0.547988
0.505315
0.699225
0.697417
0.570948
0.565222
0.539825
0.533215
0.698567
0.698739
0.479621
0.470326
0.588206
0.642774
0.686032
0.633894
0.567499
0.686643
0.616997
0.644237
0.68135
0.525833
0.49391
0.532318
0.700113
0.489614
0.699485
0.589252
0.597665
0.694876
0.5087
0.502589
0.537761
0.528386
0.699168
0.698693
0.566154
0.641295
0.691652
0.603757
0.630012
0.686983
0.562763
0.700367
0.48016
0.595673
0.630445
0.685421
0.614092
0.637289
0.679509
0.54481
0.699782
0.475316
0.607028
0.595443
0.689938
0.668887
0.528157
0.686203
0.65619
0.550246
0.690669
0.630897
0.694789
0.514365
0.698729
0.387534
0.464939
0.596023
0.623823
0.688301
0.561842
0.698371
0.504314
0.686595
0.533646
0.668709
0.504236
0.700172
0.413849
0.673677
0.671476
0.663399
0.596608
0.668647
0.589656
0.616792
0.648284
0.676026
0.663754
0.66952
0.67204
0.599214
0.673859
0.596642
0.601303
0.63345
0.68739
0.601603
0.638203
0.686703
0.700006
0.52414
0.480034
0.647894
0.590121
0.683246
0.518839
0.536554
0.699426
0.571851
0.566846
0.609413
0.601317
0.692885
0.692929
0.643591
0.602488
0.684385
0.633744
0.562117
0.692552
0.584742
0.613143
0.693909
0.651853
0.634689
0.666141
0.558774
0.609362
0.693987
0.649975
0.673312
0.619695
0.575454
0.633058
0.690728
0.629316
0.573168
0.692332
0.652248
0.655528
0.626566
0.672686
0.623598
0.671456
0.661273
0.665523
0.668851
0.61463
0.675002
0.602339
0.637198
0.631321
0.59434
0.597071
0.688441
0.687319
0.697691
0.538089
0.589638
0.68267
0.536252
0.670184
0.699177
0.698787
0.534083
0.542866
0.582112
0.576626
0.672682
0.681502
0.550446
0.65046
0.662077
0.64468
0.560535
0.599658
0.694464
0.653327
0.681108
0.598146
0.625042
0.57238
0.693051
0.603936
0.601362
0.540173
0.698363
0.549414
0.697255
0.580931
0.598043
0.693356
0.51011
0.428228
0.70011
0.682297
0.539626
0.669747
0.66302
0.663043
0.687617
0.540271
0.690762
0.545595
0.542807
0.626094
0.693034
0.637809
0.564953
0.693049
0.669851
0.680806
0.550639
0.657881
0.657613
0.683357
0.690588
0.563951
0.562188
0.65886
0.690652
0.552371
0.579122
0.605371
0.693922
0.65466
0.671671
0.619791
0.549364
0.698461
0.500019
0.669627
0.684858
0.544424
0.623914
0.617271
0.576414
0.574193
0.691038
0.695241
0.698768
0.507532
0.554275
0.559161
0.699754
0.488627
0.551335
0.699125
0.48808
0.593649
0.697724
0.54809
0.639038
0.572855
0.691602
0.633828
0.692873
0.708046
0.637796
0.713828
0.525074
0.706369
0.633542
0.665454
0.707309
0.705308
0.662365
0.643082
0.712506
0.696072
0.657913
0.630878
0.698824
0.693888
0.701602
0.698411
0.693384
0.704471
0.700285
0.7109
0.6953
0.717588
0.666244
0.703613
0.632575
0.671105
0.70262
0.704728
0.694844
0.678568
0.70928
0.708628
0.706624
0.64173
0.664494
0.694709
0.697474
0.682764
0.709797
0.686382
0.696481
0.699835
0.695213
0.66276
0.686007
0.706158
0.694183
0.660336
0.706089
0.669854
0.704032
0.704757
0.704847
0.699314
0.709581
0.686068
0.683729
0.710013
0.639312
0.70736
0.704525
0.702723
0.698284
0.706236
0.687124
0.674664
0.682049
0.677961
0.703555
0.677289
0.692413
0.683853
0.676855
0.704801
0.706099
0.695912
0.703888
0.661138
0.66403
0.698609
0.708497
0.697762
0.629682
0.699512
0.705586
0.663588
0.709835
0.71186
0.693769
0.648047
0.481638
0.679424
0.697309
0.648189
0.67221
0.709895
0.705114
0.689617
0.695728
0.659351
0.620351
0.660662
0.669093
0.681152
0.707791
0.705115
0.698891
0.667393
0.683329
0.66651
0.690029
0.702059
0.631666
0.671179
0.695191
0.69817
0.700611
0.690546
0.703592
0.700266
0.677845
0.668544
0.705517
0.603853
0.703155
0.67447
0.702617
0.662756
0.555761
0.624158
0.705069
0.69058
0.65834
0.676321
0.70297
0.65126
0.70724
0.677468
0.672854
0.695375
0.70686
0.659021
0.70683
0.675904
0.703253
0.662668
0.696431
0.643173
0.711747
0.708136
0.69838
0.705337
0.707572
0.706669
0.684628
0.675884
0.671137
0.696985
0.603931
0.654192
0.662826
0.70048
0.698449
0.703556
0.705108
0.700737
0.705705
0.712653
0.70616
0.659122
0.670814
0.666443
0.706074
0.664342
0.65819
0.592573
0.659266
0.697797
0.703017
0.703959
0.70618
0.706511
0.691797
0.714014
0.700828
0.698449
0.548171
0.691011
0.681846
0.674804
0.70358
0.703235
0.678929
0.696001
0.701069
0.703229
0.620793
0.678207
0.70272
0.709253
0.683542
0.660807
0.699899
0.699241
0.694484
0.6926
0.625042
0.584137
0.673657
0.679377
0.663011
0.672331
0.628108
0.704497
0.698857
0.672329
0.704197
0.664181
0.659049
0.704413
0.703936
0.657726
0.659466
0.618195
0.701965
0.666681
0.687962
0.6995
0.707756
0.665532
0.700477
0.691598
0.663879
0.660532
0.706002
0.698725
0.696042
0.710728
0.697785
0.65292
0.661987
0.699226
0.701865
0.657398
0.675549
0.702989
0.704488
0.711489
0.699351
0.656781
0.693539
0.674572
0.701691
0.695608
0.675157
0.701745
0.693633
0.576949
0.664181
0.676616
0.659568
0.685485
0.703436
0.700099
0.701927
0.705949
0.65181
0.696409
0.690351
0.702237
0.690306
0.701141
0.700907
0.667161
0.65132
0.696259
0.662295
0.657998
0.697745
0.562711
0.660695
0.708204
0.699836
0.672296
0.660163
0.672082
0.699534
0.624559
0.575898
0.654484
0.694982
0.699915
0.703248
0.520174
0.652921
0.710196
0.692547
0.626471
0.649974
0.663647
0.668851
0.659055
0.704286
0.704694
0.670923
0.666632
0.684453
0.684942
0.69885
0.610779
0.703562
0.701321
0.562595
0.670528
0.661615
0.670653
0.703299
0.704894
0.703422
0.678806
0.653173
0.694198
0.695551
0.701173
0.685756
0.707913
0.704002
0.689295
0.704654
0.699434
0.682025
0.667023
0.69466
0.639468
0.694713
0.69714
0.670903
0.657492
0.648805
0.654458
0.634754
0.708724
0.658221
0.67796
0.695892
0.700572
0.6666
0.648176
0.710157
0.682097
0.557293
0.692084
0.670508
0.66464
0.710389
0.69218
0.681574
0.695401
0.671881
0.699883
0.673687
0.703993
0.6953
0.686232
0.485281
0.655028
0.672812
0.683544
0.697565
0.696568
0.702311
0.707062
0.649717
0.670836
0.645303
0.603745
0.664261
0.709141
0.681143
0.684509
0.677353
0.697134
0.661899
0.63417
0.65118
0.669517
0.65989
0.712472
0.686831
0.687835
0.70166
0.705823
0.696098
0.710039
0.62914
0.68015
0.664629
0.700256
0.699498
0.703744
0.694045
0.692941
0.675321
0.690153
0.662061
0.606037
0.70141
0.684082
0.608671
0.653416
0.672266
0.657531
0.673864
0.694866
0.701502
0.65625
0.677332
0.66537
0.67135
0.666121
0.678593
0.622342
0.673467
0.706956
0.705653
0.705036
0.704806
0.701886
0.55251
0.703444
0.69882
0.651985
0.70849
0.539574
0.703707
0.681835
0.70135
0.686556
0.701868
0.688263
0.650244
0.702625
0.645542
0.712036
0.703841
0.660756
0.680372
0.633355
0.686908
0.713868
0.678603
0.701157
0.701504
0.664407
0.618234
0.705048
0.551185
0.705091
0.702603
0.66362
0.707466
0.59624
0.590689
0.70612
0.697366
0.703646
0.702537
0.693309
0.701379
0.705911
0.705309
0.704536
0.707962
0.660898
0.684261
0.697309
0.70826
0.683354
0.534367
0.702248
0.674702
0.692852
0.682401
0.707995
0.700234
0.688368
0.706762
0.692991
0.708564
0.652573
0.70695
0.687763
0.703273
0.700653
0.711667
0.681808
0.697064
0.658335
0.634822
0.695309
0.682666
0.69586
0.62823
0.547874
0.66358
0.685316
0.701652
0.689071
0.713589
0.684713
0.65767
0.69343
0.664264
0.706502
0.637457
0.687602
0.695151
0.709861
0.689789
0.703005
0.649274
0.698924
0.709872
0.665919
0.624809
0.699403
0.684793
0.704051
0.70947
0.684355
0.66412
0.694684
0.669573
0.656681
0.703763
0.701509
0.701133
0.627391
0.700905
0.700171
0.706058
0.669419
0.709397
0.701166
0.701696
0.705156
0.642283
0.667773
0.680721
0.526446
0.70249
0.697471
0.695148
0.707004
0.709511
0.69418
0.689276
0.699382
0.705212
0.704857
0.701046
0.691988
0.683207
0.708428
0.70285
0.67832
0.68322
0.687266
0.685232
0.703676
0.674065
0.699514
0.705651
0.665065
0.706312
0.670606
0.656276
0.671662
0.702145
0.694546
0.698776
0.701591
0.704539
0.700287
0.704193
0.702174
0.681096
0.666744
0.654856
0.65911
0.656896
0.4728
0.666173
0.667134
0.704468
0.665581
0.685561
0.701663
0.686768
0.662383
0.674959
0.685117
0.48346
0.705588
0.676181
0.703048
0.663547
0.673484
0.692955
0.641614
0.701773
0.668587
0.70305
0.685111
0.706025
0.623722
0.582022
0.682195
0.685132
0.689335
0.704712
0.583413
0.703775
0.691398
0.663185
0.642576
0.678915
0.68356
0.703704
0.632439
0.702131
0.707207
0.706901
0.650021
0.707251
0.665137
0.475326
0.701406
0.66914
0.657435
0.709952
0.70497
0.70102
0.704638
0.687822
0.703658
0.706689
0.697154
0.686646
0.703604
0.709975
0.70901
0.702942
0.699827
0.701941
0.665433
0.664438
0.706369
0.712246
0.707707
0.6973
0.689237
0.671381
0.704577
0.702851
0.445343
0.697516
0.700321
0.657565
0.697203
0.680534
0.698777
0.700887
0.700068
0.672086
0.703318
0.70843
0.690767
0.708237
0.710515
0.5866
0.657528
0.690899
0.663298
0.588736
0.669745
0.700895
0.706608
0.6726
0.691452
0.639097
0.657419
0.70032
0.695184
0.668531
0.665493
0.641298
0.696788
0.674941
0.676649
0.686701
0.702315
0.703503
0.656147
0.707601
0.679504
0.668989
0.698591
0.704585
0.692412
0.69791
0.663349
0.7054
0.666885
0.709669
0.705137
0.706809
0.710381
0.662005
0.661394
0.698895
0.659911
0.663369
0.676581
0.666157
0.657579
0.687477
0.704725
0.663173
0.708179
0.673713
0.69371
0.701779
0.704765
0.69852
0.708759
0.696288
0.666073
0.710145
0.627621
0.699613
0.660693
0.704549
0.70589
0.70846
0.702565
0.713976
0.70357
0.649146
0.667856
0.699112
0.68153
0.706345
0.649703
0.636931
0.693037
0.694899
0.668655
0.665203
0.684115
0.703023
0.703507
0.551832
0.673545
0.623546
0.642206
0.694574
0.69281
0.696476
0.686765
0.708158
0.657858
0.701335
0.700529
0.62059
0.705152
0.676281
0.695468
0.695486
0.685756
0.657167
0.671923
0.698577
0.704016
0.6782
0.697127
0.701259
0.707756
0.687488
0.694052
0.681342
0.700926
0.660893
0.658091
0.603488
0.700244
0.663763
0.679593
0.664867
0.674161
0.706903
0.692191
0.70416
0.705385
0.705376
0.613423
0.699679
0.639503
0.683584
0.706128
0.676734
0.6673
0.686111
0.693657
0.649583
0.675371
0.609603
0.665796
0.698362
0.612124
0.673604
0.712666
0.660006
0.649186
0.693677
0.702525
0.689642
0.647387
0.702637
0.67042
0.674302
0.700703
0.684969
0.702776
0.700347
0.711774
0.674842
0.705047
0.705762
0.703568
0.701414
0.702951
0.616486
0.67191
0.694164
0.656519
0.700501
0.708677
0.707073
0.698779
0.657271
0.662345
0.695464
0.711615
0.647313
0.707918
0.700327
0.707722
0.658099
0.645221
0.661856
0.626106
0.697202
0.646037
0.70327
0.678327
0.706284
0.656586
0.697842
0.663826
0.700834
0.708707
0.701053
0.691443
0.704279
0.706069
0.707906
0.697617
0.686905
0.705208
0.702852
0.674505
0.684481
0.70189
0.673381
0.711154
0.692312
0.70285
0.703198
0.708103
0.670256
0.606232
0.70315
0.683393
0.691212
0.697778
0.700921
0.704597
0.703551
0.681568
0.702434
0.659455
0.679428
0.694129
0.708516
0.701615
0.695036
0.69662
0.708874
0.698796
0.663791
0.70614
0.701252
0.660056
0.676796
0.705646
0.681761
0.661177
0.675667
0.706136
0.689587
0.700179
0.705006
0.714045
0.707186
0.70259
0.663077
0.704759
0.680901
0.690914
0.708157
0.696905
0.658067
0.6472
0.69118
0.704017
0.671358
0.657472
0.703031
0.694805
0.699235
0.704352
0.659856
0.659002
0.68631
0.710752
0.709212
0.696917
0.694262
0.619357
0.700561
0.681181
0.699112
0.705415
0.714801
0.655816
0.657967
0.684477
0.701732
0.705998
0.70732
0.69973
0.680243
0.686439
0.657735
0.661023
0.695037
0.703185
0.579762
0.665263
0.700608
0.698142
0.656731
0.664365
0.700333
0.683637
0.689458
0.702026
0.694029
0.704508
0.711373
0.691883
0.700735
0.687432
0.677795
0.678346
0.705822
0.685101
0.702994
0.584504
0.701538
0.565513
0.692131
0.706279
0.707621
0.706029
0.712016
0.704327
0.676517
0.69101
0.695834
0.633562
0.705616
0.700581
0.672331
0.701927
0.52832
0.664635
0.68476
0.703889
0.707974
0.660405
0.664486
0.698902
0.702954
0.588687
0.67518
0.688817
0.601602
0.648325
0.68483
0.648021
0.694559
0.662559
0.68993
0.702641
0.527871
0.679675
0.702497
0.6762
0.660589
0.695196
0.68435
0.68598
0.667512
0.698447
0.689011
0.666433
0.694537
0.709166
0.677515
0.657402
0.684578
0.65924
0.667917
0.693313
0.617793
0.67699
0.679071
0.699929
0.700462
0.69519
0.698451
0.576173
0.68968
0.692351
0.683034
0.700598
0.691953
0.69825
0.594335
0.582857
0.702796
0.663803
0.697962
0.706589
0.681426
0.69236
0.577255
0.700928
0.687653
0.70935
0.689535
0.677856
0.696288
0.66618
0.680241
0.685247
0.712491
0.658925
0.660337
0.686299
0.706868
0.696742
0.615142
0.687793
0.684386
0.682464
0.683578
0.70726
0.70559
0.707221
0.710553
0.701287
0.663134
0.642455
0.705346
0.674911
0.690453
0.618897
0.656208
0.667032
0.658262
0.701279
0.59602
0.700251
0.677664
0.702311
0.699454
0.701872
0.707631
0.676053
0.703422
0.705695
0.700634
0.69833
0.705224
0.676672
0.702873
0.665807
0.677364
0.708032
0.597355
0.695916
0.704663
0.696779
0.692714
0.694934
0.695736
0.694654
0.699061
0.663422
0.664659
0.705382
0.689964
0.616657
0.705146
0.661214
0.703762
0.660589
0.691356
0.706132
0.705092
0.705484
0.664705
0.694876
0.69857
0.70127
0.707593
0.629509
0.65393
0.705067
0.658072
0.677943
0.710709
0.702887
0.701566
0.655807
0.670769
0.674901
0.668024
0.635201
0.698462
0.672449
0.696994
0.674886
0.69605
0.690377
0.676405
0.636979
0.687368
0.692881
0.668577
0.70607
0.70746
0.643556
0.702427
0.583895
0.67713
0.607887
0.67794
0.702445
0.701711
0.701217
0.695973
0.698424
0.703877
0.700564
0.705098
0.636896
0.694435
0.681101
0.701307
0.65965
0.706716
0.688291
0.659861
0.700312
0.70716
0.656799
0.702224
0.66105
0.701409
0.700047
0.700002
0.617386
0.694712
0.695618
0.699883
0.699866
0.670767
0.663456
0.671591
0.706577
0.707512
0.704824
0.689692
0.702735
0.701113
0.682553
0.698998
0.670039
0.676266
0.697179
0.70571
0.66834
0.710324
0.702226
0.7121
0.699586
0.705493
0.697906
0.678809
0.706334
0.568255
0.700863
0.601611
0.704636
0.708247
0.700699
0.691775
0.675951
0.698828
0.600611
0.633307
0.669664
0.643732
0.701751
0.66261
0.663568
0.63115
0.65734
0.701323
0.705654
0.703616
0.661622
0.678835
0.701662
0.697968
0.685162
0.681569
0.705069
0.707193
0.69985
0.704894
0.704905
0.704104
0.663021
0.683962
0.646211
0.707033
0.699829
0.706634
0.696393
0.701433
0.690584
0.657462
0.690241
0.658305
0.66938
0.664832
0.705783
0.698956
0.698599
0.702913
0.705283
0.695468
0.702463
0.672945
0.69261
0.69553
0.706085
0.684134
0.660274
0.701865
0.704448
0.704072
0.707846
0.706845
0.655775
0.650362
0.653058
0.698768
0.707244
0.618589
0.671933
0.708544
0.668117
0.688906
0.662478
0.689735
0.704184
0.691265
0.699589
0.661687
0.700219
0.704261
0.703412
0.68981
0.673816
0.700543
0.703265
0.694202
0.706313
0.711318
0.617218
0.70778
0.668279
0.681761
0.711476
0.711325
0.691612
0.704266
0.665988
0.706434
0.678118
0.661329
0.704438
0.685416
0.707113
0.689962
0.707014
0.700536
0.706428
0.674882
0.704429
0.655685
0.707114
0.699252
0.698328
0.683477
0.658518
0.660823
0.704204
0.679122
0.683029
0.653105
0.68118
0.710025
0.70776
0.699775
0.699371
0.70175
0.673581
0.687628
0.704808
0.66077
0.677308
0.699624
0.689757
0.692285
0.670933
0.612327
0.658628
0.704964
0.685218
0.707393
0.664659
0.704029
0.704891
0.713224
0.700406
0.68783
0.705219
0.663701
0.704657
0.670109
0.696178
0.649084
0.689298
0.672306
0.658072
0.68803
0.668707
0.657439
0.667186
0.705446
0.706388
0.6953
0.654014
0.705508
0.6613
0.619359
0.695578
0.705865
0.699316
0.666797
0.666323
0.708498
0.651436
0.702277
0.655661
0.67162
0.689452
0.641012
0.710343
0.692869
0.675937
0.702988
0.711017
0.673053
0.705068
0.696005
0.704999
0.699162
0.680684
0.666592
0.703874
0.710235
0.705102
0.625089
0.66483
0.678727
0.698072
0.701751
0.697632
0.651108
0.701398
0.667229
0.702034
0.705708
0.698672
0.683172
0.699041
0.612101
0.700328
0.645843
0.682807
0.63393
0.663141
0.70251
0.705836
0.671168
0.67591
0.703468
0.682702
0.609095
0.653014
0.670996
0.686252
0.559536
0.688043
0.690411
0.702553
0.693713
0.700492
0.704332
0.588426
0.587946
0.709356
0.696082
0.611581
0.680591
0.694437
0.709558
0.698271
0.643529
0.700113
0.649681
0.702411
0.706798
0.703654
0.690668
0.706585
0.669615
0.70236
0.710676
0.662344
0.674988
0.705841
0.705798
0.668525
0.664793
0.636278
0.591555
0.639978
0.69899
0.676239
0.661298
0.622151
0.658341
0.708099
0.637177
0.673637
0.655488
0.711361
0.681774
0.702161
0.674462
0.692094
0.688623
0.694486
0.693918
0.708122
0.65652
0.701716
0.681585
0.690308
0.700107
0.679022
0.710087
0.700323
0.671624
0.703006
0.659807
0.679701
0.700472
0.700564
0.664254
0.684102
0.686641
0.700348
0.700458
0.707622
0.641116
0.668806
0.655273
0.651769
0.71035
0.675255
0.699207
0.705399
0.691831
0.593376
0.65639
0.693538
0.652738
0.695577
0.662909
0.676462
0.675506
0.705491
0.704103
0.693817
0.64748
0.684284
0.662458
0.692588
0.706295
0.696324
0.676829
0.695556
0.684951
0.697209
0.70981
0.70507
0.700847
0.707509
0.7023
0.686345
0.671359
0.661847
0.662289
0.701558
0.699383
0.668354
0.703218
0.67524
0.711681
0.710754
0.663523
0.648458
0.67976
0.697369
0.705049
0.694249
0.705608
0.698889
0.705568
0.706748
0.699834
0.673815
0.697305
0.68891
0.666662
0.681523
0.713949
0.605554
0.523018
0.69666
0.684872
0.70725
0.691179
0.663109
0.656401
0.6806
0.650744
0.689494
0.699614
0.66755
0.706522
0.695712
0.657775
0.671902
0.672867
0.634748
0.704381
0.689345
0.696916
0.650213
0.687761
0.686123
0.657008
0.678752
0.682727
0.677011
0.658564
0.592404
0.71205
0.70095
0.7069
0.704371
0.710392
0.67196
0.700935
0.693203
0.684073
0.632737
0.70364
0.687347
0.685857
0.705178
0.702896
0.710301
0.699529
0.707104
0.701341
0.665451
0.696974
0.702901
0.705241
0.689323
0.66856
0.70419
0.670998
0.675925
0.70284
0.681019
0.706687
0.67126
0.704919
0.701343
0.700474
0.674208
0.704439
0.663071
0.673904
0.681604
0.665443
0.676283
0.676551
0.673508
0.699921
0.653194
0.656565
0.694981
0.698617
0.688706
0.679733
0.700938
0.701067
0.684217
0.703
0.698181
0.699311
0.657126
0.681003
0.699343
0.661698
0.697451
0.624227
0.699731
0.626027
0.707578
0.698025
0.699122
0.668538
0.661243
0.679539
0.704799
0.681064
0.699061
0.701967
0.695206
0.703403
0.707421
0.695109
0.670001
0.709854
0.685874
0.700114
0.696406
0.666847
0.666246
0.666327
0.708623
0.699458
0.683891
0.691983
0.67117
0.677874
0.647418
0.692271
0.657616
0.705872
0.674109
0.690941
0.699276
0.699619
0.659647
0.692466
0.693023
0.692347
0.702175
0.692472
0.69758
0.6805
0.695438
0.700179
0.700389
0.661139
0.69924
0.662689
0.697053
0.64229
0.665354
0.69259
0.605759
0.655641
0.703496
0.704946
0.657171
0.699977
0.667818
0.634254
0.662098
0.65921
0.668014
0.668659
0.66839
0.708292
0.703509
0.690373
0.70901
0.691541
0.702306
0.70061
0.703936
0.702134
0.678138
0.704342
0.713454
0.698087
0.695412
0.642673
0.706082
0.689443
0.520617
0.702305
0.701334
0.707591
0.702852
0.706924
0.703201
0.681683
0.693885
0.692625
0.700255
0.537499
0.681332
0.637763
0.687959
0.702743
0.650215
0.660142
0.674791
0.669685
0.657969
0.69191
0.694797
0.700897
0.707482
0.666879
0.711851
0.658275
0.695596
0.708354
0.697728
0.697162
0.694934
0.542061
0.66799
0.702907
0.705999
0.668963
0.678118
0.703294
0.706475
0.660036
0.704667
0.67424
0.703623
0.701062
0.689904
0.701181
0.708567
0.700702
0.643551
0.705575
0.695834
0.706939
0.657511
0.696184
0.685761
0.65669
0.669097
0.676381
0.697332
0.702741
0.700453
0.690797
0.632806
0.700008
0.669956
0.667228
0.698628
0.690594
0.661198
0.70421
0.670852
0.675223
0.667425
0.700806
0.660319
0.621894
0.703601
0.685938
0.699323
0.673385
0.643221
0.694214
0.592755
0.697395
0.688162
0.668813
0.660197
0.715704
0.663498
0.661222
0.659086
0.639966
0.682614
0.698315
0.704643
0.663117
0.680683
0.708351
0.695278
0.673991
0.669665
0.687931
0.709201
0.698177
0.669548
0.655623
0.700384
0.711983
0.695238
0.697528
0.69802
0.646166
0.702188
0.704815
0.695096
0.651596
0.70414
0.700572
0.654331
0.701224
0.664532
0.707597
0.700129
0.661416
0.700503
0.693842
0.700041
0.666653
0.705485
0.683332
0.7026
0.702009
0.706884
0.6653
0.677118
0.705182
0.701859
0.683508
0.700785
0.696201
0.670412
0.696455
0.70097
0.664913
0.574607
0.65144
0.688098
0.673331
0.665932
0.65697
0.685917
0.698977
0.651948
0.662323
0.689579
0.659353
0.706703
0.6674
0.70555
0.697709
0.659746
0.702482
0.682771
0.70351
0.696968
0.703295
0.671474
0.669176
0.707297
0.648114
0.705287
0.700786
0.690169
0.673857
0.705808
0.696543
0.66456
0.70842
0.64348
0.69625
0.708631
0.649587
0.709176
0.66597
0.700052
0.564533
0.703863
0.661577
0.704421
0.679981
0.658749
0.684303
0.656711
0.673198
0.706401
0.658537
0.694631
0.702765
0.696369
0.701111
0.701771
0.694724
0.635625
0.70971
0.690415
0.705087
0.678276
0.693699
0.707002
0.688775
0.705975
0.699083
0.703272
0.6706
0.698196
0.625768
0.653208
0.707191
0.481889
0.695427
0.703417
0.675219
0.666674
0.687742
0.696368
0.691621
0.705968
0.701648
0.703467
0.700967
0.709033
0.709925
0.65924
0.70117
0.694866
0.698093
0.700013
0.687372
0.670955
0.66669
0.678497
0.705003
0.688497
0.707881
0.659749
0.678777
0.699925
0.682321
0.693449
0.69432
0.668157
0.679423
0.677535
0.687082
0.666404
0.704419
0.641692
0.692062
0.691442
0.688128
0.655804
0.647289
0.705004
0.637304
0.658713
0.706138
0.697898
0.661045
0.659
0.661391
0.676722
0.707306
0.702801
0.658381
0.691714
0.693928
0.712303
0.697455
0.674983
0.704578
0.683079
0.696124
0.700378
0.705847
0.694335
0.704407
0.698279
0.65317
0.639431
0.694023
0.676006
0.688982
0.572847
0.595705
0.703385
0.70541
0.666211
0.705328
0.696482
0.70329
0.697493
0.662142
0.709979
0.708021
0.701631
0.644986
0.663623
0.701103
0.709612
0.699212
0.658639
0.68798
0.70845
0.707291
0.704451
0.678205
0.680969
0.695028
0.689271
0.683896
0.69958
0.689631
0.697193
0.577295
0.707313
0.69512
0.700184
0.705295
0.658074
0.666299
0.676528
0.656191
0.706628
0.667865
0.694082
0.581964
0.677134
0.688104
0.66977
0.662788
0.679993
0.64785
0.665297
0.697286
0.690579
0.700896
0.660482
0.698811
0.706224
0.677783
0.702068
0.694099
0.702375
0.69512
0.67786
0.697333
0.659172
0.655631
0.69833
0.704484
0.706507
0.69591
0.636876
0.701063
0.706105
0.690587
0.70428
0.701258
0.70556
0.70443
0.663312
0.660653
0.692629
0.660998
0.704892
0.699486
0.658074
0.704989
0.700591
0.70351
0.702606
0.701915
0.658904
0.686431
0.708268
0.668019
0.698296
0.702871
0.686863
0.701332
0.696507
0.693767
0.700411
0.701507
0.658318
0.70515
0.638975
0.575319
0.681403
0.700971
0.663956
0.70705
0.668426
0.637955
0.682238
0.697895
0.697005
0.530635
0.704119
0.707779
0.703246
0.687199
0.707435
0.696696
0.66263
0.692034
0.692233
0.691617
0.659165
0.702394
0.700584
0.667145
0.658933
0.695086
0.676818
0.656408
0.702996
0.705591
0.658757
0.708123
0.671989
0.629446
0.648927
0.698051
0.683647
0.665505
0.637113
0.654228
0.698442
0.694226
0.7051
0.682442
0.705485
0.650378
0.704937
0.665613
0.661386
0.660187
0.708953
0.700328
0.665794
0.670667
0.70309
0.689794
0.708162
0.711201
0.684131
0.69821
0.704196
0.68739
0.704239
0.700986
0.700779
0.688856
0.665054
0.686962
0.685091
0.718204
0.686177
0.675703
0.622314
0.670216
0.703278
0.695274
0.694068
0.694934
0.687252
0.671759
0.68673
0.648852
0.683022
0.674182
0.705348
0.657726
0.670527
0.667658
0.70004
0.701052
0.666241
0.659383
0.644528
0.711851
0.683475
0.668585
0.662906
0.667092
0.665979
0.690276
0.690171
0.654052
0.707899
0.708635
0.687952