/*--------------------------------*- C++ -*----------------------------------*\
  =========                 |
  \\      /  F ield         | OpenFOAM: The Open Source CFD Toolbox
   \\    /   O peration     | Website:  https://openfoam.org
    \\  /    A nd           | Version:  6
     \\/     M anipulation  |
\*---------------------------------------------------------------------------*/
FoamFile
{
    version     2.0;
    format      ascii;
    class       volVectorField;
    location    "0";
    object      U_rec;
}
// * * * * * * * * * * * * * * * * * * * * * * * * * * * * * * * * * * * * * //

dimensions      [0 1 -1 0 0 0 0];

internalField   nonuniform List<vector> 
13046
(
(-0.348725 0.186134 0)
(-0.3704 -0.00177025 -3.70453e-21)
(-0.167121 0.0736951 -8.27846e-21)
(-0.344827 0.140776 0)
(-0.197851 0.110117 -7.43653e-21)
(-0.312116 0.00676256 0)
(-0.363907 0.147607 1.08865e-21)
(-0.329355 -0.0160324 1.90216e-21)
(-0.186583 0.118797 -8.21863e-21)
(-0.469036 0.235059 4.08591e-21)
(-0.711429 -0.28332 0)
(-0.0321891 0.0936189 5.61605e-21)
(-0.39274 0.193051 -3.48125e-21)
(-0.411862 -0.0515657 -5.886e-21)
(-0.139173 0.0912641 4.57425e-21)
(-0.451432 0.271184 -5.25246e-21)
(-0.0282316 0.0769778 1.34586e-20)
(-0.731595 -0.225194 3.00385e-21)
(-0.256507 0.144426 0)
(-0.246709 0.0340961 -4.02692e-21)
(-0.334068 0.0898349 1.13284e-20)
(-0.455869 0.264485 -2.2595e-21)
(-0.0280192 0.0813918 -1.79769e-20)
(-0.726082 -0.23722 0)
(-0.325379 0.153887 4.57022e-21)
(-0.32577 0.0246248 -9.08343e-21)
(-0.195601 0.0840878 0)
(-0.393019 0.207461 -6.43496e-21)
(-0.429525 -0.0569765 1.72057e-21)
(-0.128918 0.0825479 -7.89706e-21)
(-0.349045 0.197356 0)
(-0.386358 -0.000240592 0)
(-0.161175 0.062121 8.42834e-21)
(-0.307547 0.14205 -5.30831e-21)
(-0.210441 0.0818446 2.78291e-21)
(-0.310441 0.0434645 1.5814e-20)
(-0.304195 0.129989 -8.157e-21)
(-0.222049 0.0921478 4.24284e-21)
(-0.295323 0.0495644 -8.1366e-21)
(-0.310125 0.215309 5.95556e-21)
(-0.205985 -0.00481947 1.57075e-21)
(-0.412448 0.0378719 -5.59706e-21)
(-0.28613 0.0988106 3.68367e-21)
(-0.255697 0.101628 6.34759e-21)
(-0.265259 0.0733836 0)
(-0.301502 0.0981887 2.32466e-21)
(-0.249602 0.114563 -9.7208e-21)
(-0.258813 0.059536 -1.21505e-21)
(-0.358204 0.179999 0)
(-0.367283 -0.0147076 -2.6671e-22)
(-0.160295 0.0843187 8.75599e-24)
(-0.285733 -0.0878856 9.76424e-21)
(-0.279604 0.23898 0)
(-0.462604 0.0632767 -6.8694e-21)
(-0.319733 -0.114339 -1.39101e-20)
(-0.472184 0.0740422 -1.10378e-20)
(-0.26381 0.235927 9.39337e-21)
(-0.623561 -0.105414 -1.35121e-21)
(-0.416693 0.298993 0)
(-0.0886174 0.027584 7.36711e-21)
(-0.457922 0.174971 -3.32598e-21)
(-0.471689 -0.145684 3.54145e-21)
(-0.13993 0.146654 -1.92187e-20)
(-0.0578805 0.103957 1.02118e-20)
(-0.653883 -0.228011 -2.225e-21)
(-0.476542 0.235178 -5.94409e-21)
(-0.405325 0.303561 0)
(-0.602464 -0.0819674 0)
(-0.108418 0.00802719 0)
(-0.397174 0.298208 -2.68631e-21)
(-0.580296 -0.0681607 0)
(-0.118278 0.00428901 5.86277e-21)
(-0.651561 -0.119495 0)
(-0.422482 0.303493 7.27477e-23)
(-0.0791391 0.0283047 -4.80839e-24)
(-0.266876 0.156057 0)
(-0.236759 0.0270748 4.38913e-21)
(-0.346691 0.0779695 -8.07008e-21)
(-0.0563771 0.0489125 8.18846e-21)
(-0.434917 0.295344 -8.60383e-21)
(-0.678747 -0.154471 0)
(-0.337533 0.155094 2.40177e-21)
(-0.326932 0.012482 0)
(-0.1879 0.0945073 0)
(-0.0502628 0.10079 -9.20182e-21)
(-0.675289 -0.241729 -1.71984e-21)
(-0.477245 0.238634 3.55037e-21)
(-0.502471 0.194062 -6.17433e-21)
(-0.089315 0.137819 0)
(-0.614351 -0.26031 -1.74115e-21)
(-0.121837 0.173943 0)
(-0.53181 0.15132 0)
(-0.589574 -0.30671 2.32954e-22)
(-0.442961 0.227914 0)
(-0.454501 0.226446 3.20105e-21)
(-0.540055 -0.137219 6.86312e-21)
(-0.56017 -0.15871 -3.22122e-21)
(-0.0912713 0.0966448 -4.18687e-21)
(-0.0864134 0.104937 1.07181e-20)
(-0.102321 0.147421 -5.15156e-22)
(-0.507288 0.183371 6.04017e-21)
(-0.597525 -0.263276 0)
(-0.315318 0.108399 -1.40758e-23)
(-0.237005 0.117369 5.11301e-21)
(-0.267885 0.0436328 0)
(-0.237112 0.203596 0)
(-0.43826 0.0992481 -3.38786e-21)
(-0.319572 -0.0852459 0)
(-0.28181 0.223626 1.03026e-20)
(-0.25787 -0.0540141 0)
(-0.435849 0.0608505 -1.28998e-20)
(-0.430718 0.219808 0)
(-0.0171712 0.0768841 0)
(-0.679498 -0.302702 -2.30008e-21)
(-0.377496 0.184353 9.61196e-21)
(-0.389379 -0.0341412 2.49505e-21)
(-0.14968 0.0932077 8.24801e-21)
(-0.445533 0.252168 4.05435e-21)
(-0.438598 0.242757 -7.60998e-21)
(-0.593601 -0.150697 -5.80293e-21)
(-0.0724934 0.0818724 4.8099e-21)
(-0.558322 -0.13335 3.51511e-21)
(-0.0828576 0.0841721 -4.49403e-21)
(-0.460254 0.237527 -3.52225e-21)
(-0.716511 -0.287553 -3.34069e-21)
(-0.0260459 0.088477 -2.51957e-21)
(-0.420019 0.222976 0)
(-0.487674 -0.0991438 -4.53529e-21)
(-0.106365 0.0857815 9.70036e-21)
(-0.325148 0.218965 0)
(-0.186962 0.00886528 -7.76882e-21)
(-0.415253 0.0223881 3.38051e-22)
(-0.132989 0.180979 0)
(-0.528783 0.147816 0)
(-0.572442 -0.288482 0)
(-0.475425 0.217719 0)
(-0.592302 -0.200313 -8.95185e-21)
(-0.0846904 0.118418 -1.15369e-20)
(-0.363479 0.205585 0)
(-0.406374 -0.0178049 0)
(-0.149914 0.0602337 0)
(-0.413486 0.14688 0)
(-0.366755 -0.0736595 0)
(-0.183068 0.149688 0)
(-0.272367 0.224828 0)
(-0.28103 -0.0715979 0)
(-0.444233 0.0699489 6.95604e-21)
(-0.238367 0.195946 -1.07416e-21)
(-0.428382 0.100823 -7.23226e-21)
(-0.31377 -0.0728716 8.46248e-21)
(-0.464152 0.183313 8.0296e-21)
(-0.496738 -0.16063 0)
(-0.127069 0.138809 2.50384e-20)
(-0.223453 0.163896 0)
(-0.393209 0.114251 7.75391e-21)
(-0.301691 -0.0374672 -2.11881e-21)
(-0.385883 -0.151735 0)
(-0.481287 0.103489 7.87483e-21)
(-0.420217 -0.171351 0)
(-0.487301 0.11772 4.55184e-21)
(-0.224934 0.219488 0)
(-0.205067 0.208449 0)
(-0.42745 0.126448 9.94666e-22)
(-0.352855 -0.087259 4.44226e-21)
(-0.202894 0.17009 -4.71148e-21)
(-0.47933 0.225948 -4.18818e-21)
(-0.0388399 0.10007 0)
(-0.697175 -0.29211 -4.23129e-21)
(-0.442089 0.228668 -3.22876e-21)
(-0.0190789 0.0807551 -1.15485e-21)
(-0.702062 -0.297373 0)
(-0.474441 0.225644 -4.83388e-21)
(-0.610132 -0.20504 0)
(-0.0747447 0.111701 1.31239e-20)
(-0.344548 0.250829 0)
(-0.46338 0.00270178 1.80847e-21)
(-0.17946 -0.010277 4.57346e-21)
(-0.419689 0.118599 6.56491e-21)
(-0.215218 0.177263 2.25126e-21)
(-0.331474 -0.0706408 0)
(-0.0548401 0.115711 0)
(-0.671698 -0.299512 0)
(-0.496357 0.208738 3.56338e-21)
(-0.332596 0.240417 0)
(-0.445584 0.0165806 -3.89627e-21)
(-0.18993 -0.00756785 1.17805e-21)
(-0.224109 0.172074 0)
(-0.401381 0.110314 0)
(-0.301331 -0.0475334 0)
(-0.400361 0.140043 3.24129e-21)
(-0.347331 -0.0586763 0)
(-0.188838 0.14515 0)
(-0.4332 -0.0786998 -3.74778e-23)
(-0.131823 0.105282 -5.59666e-21)
(-0.412582 0.213386 1.01735e-20)
(-0.465167 -0.0847795 0)
(-0.116545 0.0896282 -1.21563e-20)
(-0.493639 0.214719 -6.34363e-21)
(-0.0673 0.119436 8.32187e-21)
(-0.653068 -0.262451 -8.3967e-21)
(-0.125493 0.16905 7.60397e-21)
(-0.516655 0.162319 3.68905e-21)
(-0.571808 -0.267472 8.75884e-21)
(-0.520157 0.172473 -1.05903e-20)
(-0.612717 -0.292259 0)
(-0.100854 0.15445 -7.48199e-21)
(-0.295023 -0.111952 -5.01184e-22)
(-0.494106 0.04987 3.10893e-21)
(-0.292414 0.267346 0)
(-0.391685 0.164763 -1.47566e-20)
(-0.429841 0.302406 4.34499e-21)
(-0.0623948 0.041123 -5.04006e-21)
(-0.682336 -0.146797 0)
(-0.628938 -0.30427 0)
(-0.516756 0.179862 -9.78133e-21)
(-0.0882168 0.143679 0)
(-0.317747 0.124072 -1.17786e-20)
(-0.221135 0.107449 -4.16562e-21)
(-0.28606 0.0368924 1.19833e-20)
(-0.383813 0.214148 0)
(-0.429639 -0.0436397 -2.48259e-22)
(-0.134584 0.0725373 -4.64486e-21)
(-0.13406 0.177998 5.82281e-21)
(-0.522593 0.153649 0)
(-0.564765 -0.274928 -1.00892e-20)
(-0.404855 0.17277 1.18463e-20)
(-0.420602 -0.0791736 1.0701e-20)
(-0.14042 0.113703 0)
(-0.0319146 0.0939433 0)
(-0.68648 -0.310706 3.57285e-21)
(-0.46944 0.217177 0)
(-0.277456 0.258858 0)
(-0.493422 0.0598861 0)
(-0.318588 -0.130523 0)
(-0.515522 0.172944 9.29661e-21)
(-0.597457 -0.276557 0)
(-0.106801 0.154979 -4.73118e-24)
(-0.456766 0.123 2.93296e-21)
(-0.383658 -0.128564 -3.4346e-21)
(-0.201895 0.189083 0)
(-0.41637 0.232918 0)
(-0.496351 -0.0942252 4.23548e-21)
(-0.103332 0.0772427 7.64863e-21)
(-0.507978 -0.256341 -1.26066e-20)
(-0.526847 0.123605 -6.57444e-21)
(-0.177188 0.212024 4.60048e-21)
(-0.500748 0.117026 0)
(-0.44416 -0.195328 -4.94678e-21)
(-0.200862 0.212845 -1.64409e-22)
(-0.0330583 0.0946156 -7.4263e-21)
(-0.670953 -0.319213 0)
(-0.470344 0.206733 -3.86223e-21)
(-0.306816 0.239333 5.51102e-21)
(-0.2311 -0.0416809 -5.70696e-21)
(-0.448054 0.039527 5.68134e-22)
(-0.396445 0.23559 3.56279e-21)
(-0.00689305 0.0653883 -1.08484e-20)
(-0.697085 -0.265553 0)
(-0.239713 0.135171 -2.41799e-21)
(-0.335235 0.102217 -9.15629e-21)
(-0.261652 0.0263008 1.20656e-20)
(-0.450053 0.145241 3.57779e-21)
(-0.446719 0.130567 2.7283e-23)
(-0.410807 -0.127391 -8.27369e-21)
(-0.381365 -0.116352 0)
(-0.195158 0.178657 4.28282e-21)
(-0.174355 0.166105 -4.45213e-21)
(-0.0466349 0.0558763 -1.07158e-20)
(-0.43815 0.292372 4.52242e-21)
(-0.700944 -0.167823 -7.36216e-21)
(-0.404271 0.235054 0)
(-0.483446 -0.0734081 0)
(-0.11311 0.0670163 -1.00811e-20)
(-0.507809 0.127087 -1.70681e-21)
(-0.474014 -0.217839 0)
(-0.185409 0.205487 0)
(-0.46053 0.236682 -3.92316e-21)
(-0.596791 -0.175586 0)
(-0.0734488 0.0992145 4.8029e-21)
(-0.278472 0.108453 2.49324e-21)
(-0.278133 0.0779918 3.62548e-21)
(-0.250289 0.0901315 -1.24533e-21)
(-0.47596 0.128632 -5.81001e-21)
(-0.421925 -0.160316 0)
(-0.19215 0.193646 -7.52094e-21)
(-0.403648 0.244559 0)
(-0.498781 -0.0733487 5.28085e-21)
(-0.109669 0.058184 -6.51091e-21)
(-0.407928 0.186716 0)
(-0.420216 0.192421 1.19395e-21)
(-0.308785 0.24728 2.00998e-21)
(-0.235167 -0.0513967 1.65461e-20)
(-0.458709 0.0380795 -1.36842e-20)
(-0.480818 0.139891 -6.04112e-21)
(-0.448951 -0.17633 7.22477e-21)
(-0.174617 0.183125 6.86434e-21)
(-0.46782 0.235004 0)
(-0.0695768 0.104025 -1.68912e-20)
(-0.614145 -0.19279 -4.44878e-21)
(-0.283409 0.213815 -1.4221e-20)
(-0.248897 -0.0417479 0)
(-0.423827 0.0629644 4.34982e-21)
(-0.232503 0.231222 -8.82132e-21)
(-0.491019 0.0957003 -4.53248e-21)
(-0.385441 -0.162636 0)
(-0.426133 0.263274 -3.90096e-21)
(-0.571818 -0.114999 -4.66773e-21)
(-0.0823774 0.0609541 2.99192e-21)
(-0.293365 0.248218 7.26207e-22)
(-0.269721 -0.0786941 0)
(-0.467497 0.0529977 9.45249e-21)
(-0.433658 0.268225 0)
(-0.441386 0.263544 0)
(-0.59892 -0.130275 -3.03036e-21)
(-0.0741787 0.0639065 -7.78445e-21)
(-0.609502 -0.146915 4.28722e-21)
(-0.0685113 0.0733291 8.27802e-21)
(-0.0546088 0.112726 -6.48347e-21)
(-0.67596 -0.285522 0)
(-0.492611 0.217084 -4.69502e-21)
(-0.428263 0.243399 4.49344e-21)
(-0.536458 -0.1163 0)
(-0.0895094 0.0767901 2.63997e-21)
(-0.609938 -0.284816 6.42899e-21)
(-0.00881788 0.0607196 9.51472e-21)
(-0.378474 0.200397 9.32158e-21)
(-0.372 0.102495 -4.21961e-21)
(-0.23721 0.159078 0)
(-0.27452 -0.0101474 0)
(-0.442921 0.172592 8.06002e-21)
(-0.44592 -0.122453 0)
(-0.144051 0.139681 1.46602e-20)
(-0.0712033 0.11776 -5.26894e-21)
(-0.488885 0.217271 1.29291e-20)
(-0.636583 -0.242914 6.32279e-21)
(-0.330911 -0.127521 0)
(-0.481813 0.0740867 4.10755e-21)
(-0.261034 0.244189 -1.0645e-20)
(-0.528579 -0.264506 -1.54094e-20)
(-0.525748 0.134179 -4.08383e-21)
(-0.16052 0.198687 0)
(-0.384704 -0.0548312 -1.07549e-20)
(-0.156065 0.116206 0)
(-0.442936 0.198394 8.91198e-21)
(-0.480909 -0.12688 3.91719e-21)
(-0.117618 0.116896 4.47923e-21)
(-0.375177 -0.0600483 6.3132e-21)
(-0.163996 0.125195 4.85659e-23)
(-0.452643 0.271764 -3.13146e-22)
(-0.0341564 0.0759605 6.30436e-21)
(-0.715553 -0.212165 -4.41401e-21)
(-0.285103 -0.117456 0)
(-0.507994 0.0389378 9.95148e-22)
(-0.304546 0.279075 0)
(-0.452384 0.202897 -9.07445e-21)
(-0.509419 -0.143649 -4.78232e-21)
(-0.110145 0.120734 -5.50715e-21)
(-0.422078 0.140479 0)
(-0.365792 -0.0851323 -6.45581e-21)
(-0.187918 0.158501 0)
(-0.444677 0.0853299 0)
(-0.305573 -0.0870541 0)
(-0.254009 0.214154 0)
(-0.352569 0.167324 -3.32898e-21)
(-0.348226 -0.00534172 -5.89116e-21)
(-0.173213 0.092043 2.48523e-23)
(-0.247135 0.240333 1.0944e-20)
(-0.490191 0.0852062 1.11021e-20)
(-0.364086 -0.150204 7.06851e-21)
(-0.503277 0.200014 -5.72459e-21)
(-0.638991 -0.274649 7.1475e-21)
(-0.0771773 0.129567 -7.88437e-21)
(-0.534601 -0.256846 1.04138e-20)
(-0.519993 0.143044 4.13983e-21)
(-0.151907 0.189445 5.79292e-21)
(-0.376966 0.294274 -8.23462e-21)
(-0.152263 -0.016613 8.79973e-21)
(-0.546316 -0.037947 -6.53836e-21)
(-0.436223 0.283793 2.44794e-21)
(-0.431648 0.281156 -2.18893e-21)
(-0.623566 -0.132279 -9.66893e-22)
(-0.647968 -0.144921 0)
(-0.0629106 0.0559765 -2.86955e-21)
(-0.0709449 0.0529845 -2.52147e-21)
(-0.00898218 0.0624975 -1.28747e-20)
(-0.639254 -0.279515 -7.07826e-21)
(-0.386502 0.210256 2.21771e-21)
(-0.40562 0.242982 -2.22307e-22)
(-0.00785576 0.0675762 1.50085e-20)
(-0.717149 -0.263794 0)
(-0.462463 0.151532 -1.30699e-20)
(-0.439929 -0.145678 -1.86696e-21)
(-0.167241 0.167487 0)
(-0.0588972 0.112952 -1.60246e-20)
(-0.490555 0.219586 4.66632e-21)
(-0.668379 -0.268017 0)
(-0.404814 0.281771 1.17759e-20)
(-0.414254 0.280457 -8.84902e-21)
(-0.562906 -0.0810909 5.01861e-21)
(-0.578431 -0.0958861 1.911e-21)
(-0.106876 0.0269533 -4.97334e-21)
(-0.0935176 0.0385393 -2.49287e-21)
(-0.078076 0.137586 0)
(-0.63018 -0.327683 0)
(-0.517604 0.170103 1.7739e-21)
(-0.37093 0.231341 -4.18436e-21)
(-0.00376346 0.058932 0)
(-0.677899 -0.251214 0)
(-0.31553 0.0761409 -2.66424e-23)
(-0.271867 0.137242 5.33012e-21)
(-0.233627 0.0564468 2.67963e-21)
(-0.406945 0.222023 -7.50814e-21)
(-0.675795 -0.287742 3.36527e-21)
(-0.0113853 0.0690248 7.03658e-22)
(-0.362748 0.251213 0)
(-0.47099 -0.0179836 -8.32143e-21)
(-0.154339 0.0109682 -5.26338e-24)
(-0.501924 0.202491 3.91279e-23)
(-0.662448 -0.301246 1.02182e-20)
(-0.0635922 0.121976 2.10559e-25)
(-0.535023 -0.294079 1.98177e-22)
(-0.0121923 0.0570149 -5.49634e-21)
(-0.364512 0.158476 -3.74853e-21)
(-0.29551 0.202258 -5.11974e-21)
(-0.217484 -0.000932222 4.95043e-21)
(-0.396474 0.0523067 1.36696e-20)
(-0.349713 0.113718 0)
(-0.279467 0.00860387 -1.33725e-20)
(-0.225382 0.136841 6.88021e-21)
(-0.452398 0.246283 0)
(-0.0217419 0.084404 7.51567e-21)
(-0.726473 -0.277747 -1.26524e-23)
(-0.361716 0.115235 0)
(-0.283928 -0.00359581 -4.70655e-21)
(-0.221643 0.14574 -9.71589e-21)
(-0.303545 0.0815055 5.45243e-21)
(-0.268179 0.126267 -2.83606e-21)
(-0.241466 0.0649171 1.40957e-21)
(-0.269116 0.26341 5.31894e-21)
(-0.506543 0.0659794 -3.96597e-21)
(-0.348073 -0.15712 7.82818e-21)
(-0.357099 0.0827494 0)
(-0.24184 0.0155962 0)
(-0.259559 0.165278 8.01307e-22)
(-0.370279 0.0948968 6.67788e-21)
(-0.261207 1.65043e-05 3.6438e-21)
(-0.25004 0.167296 1.13683e-22)
(-0.365987 0.291097 1.24925e-20)
(-0.531352 -0.0244167 -6.50038e-21)
(-0.171313 -0.0326036 -8.68667e-21)
(-0.0328585 0.0914879 1.13241e-20)
(-0.0356268 0.0948113 -1.14944e-20)
(-0.716373 -0.259064 2.9609e-21)
(-0.70802 -0.269159 2.06948e-21)
(-0.466852 0.250029 0)
(-0.472073 0.242649 -4.18323e-21)
(-0.506845 0.197052 7.01836e-21)
(-0.64651 -0.287059 -6.37935e-21)
(-0.0741527 0.131484 9.75574e-21)
(-0.143134 -0.0189605 -5.65209e-21)
(-0.384253 0.304167 2.58943e-21)
(-0.569424 -0.0490177 8.34082e-21)
(-0.316993 0.234749 -5.03191e-21)
(-0.210292 -0.0228463 -5.19434e-21)
(-0.439955 0.0304156 4.30127e-21)
(-0.510913 0.103712 0)
(-0.43664 -0.204457 5.11727e-21)
(-0.215048 0.228841 1.70098e-22)
(-0.583886 -0.328294 3.45045e-21)
(-0.0275775 0.0803029 -5.1371e-21)
(-0.433372 0.164007 -3.14062e-21)
(-0.109024 0.163587 0)
(-0.527955 0.159895 0)
(-0.602156 -0.30895 4.34077e-21)
(-0.456405 0.226824 3.67717e-21)
(-0.0252453 0.0877168 0)
(-0.702264 -0.301428 -3.50535e-21)
(-0.00856792 0.0489635 -2.0311e-32)
(-0.50264 -0.274473 -2.94489e-21)
(-0.333791 0.150595 3.83643e-21)
(-0.52962 -0.238934 3.28954e-21)
(-0.00387572 0.0456257 2.02642e-32)
(-0.318657 0.177068 -3.41092e-21)
(-0.504402 -0.191717 -9.91621e-21)
(-0.48498 0.166198 0)
(-0.142831 0.161767 -1.47582e-20)
(-0.6273 -0.338974 -1.90396e-21)
(-0.0556541 0.115707 -5.24772e-21)
(-0.498597 0.169364 0)
(-0.48344 0.210694 -6.00701e-21)
(-0.594515 -0.215409 5.55408e-21)
(-0.0877694 0.125067 7.69128e-21)
(-0.432911 0.276171 1.07543e-20)
(-0.0166912 0.0693144 4.57916e-21)
(-0.7616 -0.227747 0)
(-0.380195 0.171041 2.57809e-21)
(-0.159732 0.108315 -2.79865e-21)
(-0.375799 -0.0395305 2.60259e-21)
(-0.623845 -0.323468 2.23599e-21)
(-0.0877421 0.146558 5.52199e-21)
(-0.521987 0.167283 1.92186e-21)
(-0.506707 0.0967183 -4.5232e-21)
(-0.226862 0.236264 -3.01641e-21)
(-0.414719 -0.188961 0)
(-0.486436 -0.217851 0)
(-0.504288 0.1369 0)
(-0.171369 0.195048 0)
(-0.00154998 0.0217241 0)
(-0.303537 -0.145517 -2.309e-21)
(-0.192258 0.0903363 2.93466e-21)
(-0.601366 -0.301507 3.30861e-21)
(-0.0127304 0.0643193 -6.63043e-21)
(-0.391377 0.189975 -3.86916e-21)
(-0.366749 0.162937 -6.64654e-21)
(-0.171464 0.106586 6.58121e-21)
(-0.352519 -0.0225107 2.98818e-21)
(-0.648482 -0.318182 9.01972e-21)
(-0.50901 0.18649 -3.94383e-21)
(-0.0658439 0.126788 0)
(-0.0745186 0.135466 -5.8157e-21)
(-0.517268 0.165294 0)
(-0.62467 -0.336856 -6.77094e-21)
(-0.482481 0.232186 -4.26935e-21)
(-0.0503322 0.105023 1.71849e-20)
(-0.679678 -0.257084 0)
(-0.0432441 0.0698022 -1.29499e-20)
(-0.692994 -0.185437 4.7076e-21)
(-0.448006 0.278532 0)
(-0.357584 0.298643 -1.57056e-20)
(-0.536093 -0.0156823 8.28756e-21)
(-0.193516 -0.0534576 -2.76332e-21)
(-0.611737 -0.114835 1.43958e-21)
(-0.421969 0.289009 5.15025e-21)
(-0.0829256 0.0391526 -7.8638e-21)
(-0.0328755 0.0631737 -1.16386e-20)
(-0.440428 0.287447 0)
(-0.732492 -0.195096 0)
(-0.377039 0.239026 -2.43101e-21)
(-0.390034 0.246975 0)
(-0.461476 -0.0352991 -8.67301e-21)
(-0.486414 -0.052999 9.26697e-21)
(-0.134875 0.0415392 1.32293e-21)
(-0.122386 0.0442895 -1.41056e-21)
(-0.364494 0.241035 2.33357e-21)
(-0.456542 -0.0195791 0)
(-0.149308 0.0262725 2.53779e-21)
(-0.398524 0.290198 0)
(-0.567103 -0.0722141 -8.09822e-21)
(-0.1155 0.0141858 1.79558e-21)
(-0.51867 -0.241089 -5.15382e-21)
(-0.512983 0.14336 4.24885e-21)
(-0.156135 0.187054 -1.19276e-20)
(-0.637529 -0.300585 0)
(-0.511003 0.188538 1.0697e-20)
(-0.0786242 0.13634 0)
(-0.132755 0.168664 -3.82174e-21)
(-0.509553 0.161706 -2.75979e-21)
(-0.552059 -0.247744 -3.36212e-21)
(-0.568962 -0.244403 -4.4391e-22)
(-0.00371606 0.0495467 3.52888e-21)
(-0.335697 0.19233 0)
(-0.322187 0.202166 4.60933e-21)
(-0.327585 0.194752 0)
(-0.184567 0.031143 0)
(-0.389869 0.0272815 1.66764e-20)
(-0.179506 0.0447395 0)
(-0.37966 0.0208102 -1.05996e-20)
(-0.382581 0.279176 0)
(-0.369622 0.271396 0)
(-0.15223 -0.00169695 2.72607e-23)
(-0.528463 -0.0455057 5.0529e-21)
(-0.137554 0.00731178 1.30864e-20)
(-0.505164 -0.0289504 -1.07073e-20)
(-0.522417 -0.306511 0)
(-0.016513 0.0619306 7.50349e-21)
(-0.380595 0.149829 0)
(-0.650536 -0.311632 -5.34757e-21)
(-0.508812 0.190574 1.19656e-21)
(-0.0673257 0.126075 3.46935e-21)
(-0.322527 0.256662 -8.742e-21)
(-0.224019 -0.0503925 -5.96047e-21)
(-0.471827 0.0244495 1.4209e-20)
(-0.48411 -0.236416 1.12183e-20)
(-0.519747 0.11936 1.09854e-20)
(-0.187649 0.215559 0)
(-0.0481755 0.0646958 1.38471e-20)
(-0.682735 -0.174065 -5.0091e-21)
(-0.444695 0.281716 5.7484e-21)
(-0.651649 -0.316343 0)
(-0.43829 0.202631 0)
(-0.0215538 0.0798044 0)
(-0.655008 -0.321992 0)
(-0.455065 0.198973 3.39436e-21)
(-0.0287229 0.0882944 1.26229e-21)
(-0.417337 0.270341 -4.88225e-21)
(-0.565217 -0.10088 2.90324e-21)
(-0.0907049 0.049282 3.68961e-21)
(-0.272613 0.204544 -1.34578e-21)
(-0.257432 -0.0366014 0)
(-0.413673 0.0740429 -4.84218e-23)
(-0.479398 0.234495 4.97468e-21)
(-0.0440476 0.101378 1.00374e-20)
(-0.695076 -0.266506 -2.41023e-21)
(-0.515639 -0.209605 0)
(-0.494014 0.163198 0)
(-0.142182 0.168632 1.27307e-20)
(-0.0589765 0.0986936 3.22819e-21)
(-0.643494 -0.207098 7.60572e-21)
(-0.468868 0.243626 1.28318e-20)
(-0.360001 0.271857 0)
(-0.16819 -0.0151712 -8.73728e-21)
(-0.498924 -0.0178777 5.48434e-21)
(-0.45268 0.111341 4.48681e-23)
(-0.35835 -0.11319 5.04109e-21)
(-0.220812 0.19896 0)
(-0.30538 0.220949 7.3773e-23)
(-0.218044 -0.0203464 -1.69644e-21)
(-0.423661 0.0421223 -5.63593e-21)
(-0.0462298 0.105457 1.00705e-23)
(-0.690742 -0.282934 5.69344e-21)
(-0.484496 0.225074 5.63365e-21)
(-0.454691 0.24922 -2.33744e-21)
(-0.612312 -0.170596 -2.25111e-21)
(-0.0671139 0.0892477 0)
(-0.300142 0.19556 -4.99896e-21)
(-0.207765 0.0154297 1.06163e-20)
(-0.385009 0.0483507 -9.00845e-21)
(-0.436796 0.286709 4.17468e-21)
(-0.0257637 0.063858 5.19231e-21)
(-0.750255 -0.206536 -3.44346e-21)
(-0.359896 0.217187 -2.94371e-21)
(-0.419178 -0.0158718 0)
(-0.149432 0.0475238 0)
(-0.39167 0.129102 -1.20146e-20)
(-0.321065 -0.0413101 2.92187e-21)
(-0.204291 0.152001 0)
(-0.478513 -0.199825 0)
(-0.494025 0.142426 8.63119e-21)
(-0.167323 0.186461 0)
(-0.419496 0.257247 -2.39624e-21)
(-0.00993367 0.0703961 -1.61105e-21)
(-0.747437 -0.254925 3.73148e-21)
(-0.419433 0.265378 6.61817e-21)
(-0.00977919 0.0690665 0)
(-0.757192 -0.243526 -3.64911e-21)
(-0.0534008 0.0913818 2.95631e-21)
(-0.655852 -0.202531 -4.48983e-21)
(-0.46389 0.252165 -1.17738e-20)
(-0.46629 0.099979 -3.99881e-21)
(-0.361947 -0.129303 -5.07401e-21)
(-0.232069 0.213107 0)
(-0.00597109 0.0655929 1.47618e-21)
(-0.733373 -0.254198 -3.48977e-21)
(-0.399843 0.250465 0)
(-0.0824883 0.125195 0)
(-0.614142 -0.23425 -4.63691e-21)
(-0.48951 0.209555 -1.47056e-21)
(-0.00759612 0.0409803 5.97375e-21)
(-0.426998 -0.25393 3.39315e-21)
(-0.297002 0.121014 0)
(-0.270652 0.162233 -3.83937e-21)
(-0.472759 -0.196413 0)
(-0.00122207 0.0363618 5.97684e-21)
(-0.0357524 0.0688604 6.59779e-24)
(-0.718098 -0.198558 0)
(-0.446005 0.281472 0)
(-0.0389532 0.10141 0)
(-0.688305 -0.305002 0)
(-0.481043 0.217597 7.59862e-21)
(-0.4653 0.254107 -4.36913e-21)
(-0.467962 0.251743 3.53676e-21)
(-0.0357059 0.0888049 -5.67602e-21)
(-0.71026 -0.240593 -9.76992e-22)
(-0.0417392 0.0916426 -9.17656e-21)
(-0.692008 -0.232157 1.78847e-21)
(-0.495426 0.199516 2.81941e-21)
(-0.604189 -0.240688 3.07802e-21)
(-0.0909982 0.13367 0)
(-0.206963 0.231356 0)
(-0.458551 -0.227415 0)
(-0.521917 0.106337 0)
(-0.325216 0.174959 0)
(-0.184963 0.0639538 -1.44749e-20)
(-0.353356 0.023498 5.83204e-21)
(-0.50059 0.178335 7.97274e-21)
(-0.565629 -0.236949 1.1389e-21)
(-0.115995 0.152987 1.12752e-20)
(-0.128816 0.162048 7.35196e-21)
(-0.501723 0.169651 -1.1082e-20)
(-0.547787 -0.233036 -1.58019e-21)
(-0.435617 0.296017 4.63365e-21)
(-0.0391222 0.0549813 5.57076e-21)
(-0.72571 -0.177765 7.6918e-21)
(-0.385138 0.286623 0)
(-0.543688 -0.0502265 2.40143e-21)
(-0.135042 0.00233597 -1.28267e-20)
(-0.372495 0.259447 0)
(-0.489783 -0.0306654 1.09274e-20)
(-0.145356 0.0113987 2.19024e-23)
(-0.476545 0.184709 -1.01982e-20)
(-0.523228 -0.18536 1.38423e-21)
(-0.121704 0.142899 -6.38131e-21)
(-0.484081 0.179069 0)
(-0.527357 -0.197362 1.30257e-21)
(-0.125944 0.149653 5.88428e-21)
(-0.289611 0.183196 0)
(-0.216032 0.0213807 -1.67525e-20)
(-0.370169 0.0578989 5.04754e-21)
(-0.391609 0.255042 0)
(-0.500162 -0.057119 0)
(-0.119148 0.0365973 1.92245e-21)
(-0.0978496 0.156786 -1.19774e-20)
(-0.610504 -0.325637 -1.22243e-20)
(-0.528928 0.15858 0)
(-0.462554 0.185395 4.69041e-21)
(-0.0333273 0.0916587 0)
(-0.631579 -0.330889 2.49507e-21)
(-0.454799 0.170925 -4.07921e-23)
(-0.0331382 0.0891757 0)
(-0.608128 -0.332942 -7.15172e-21)
(-0.337205 0.231199 3.48578e-21)
(-0.178025 0.0095571 -1.84715e-21)
(-0.432517 0.0100869 -8.89446e-23)
(-0.617926 -0.313119 1.42247e-22)
(-0.0188718 0.0732761 1.0148e-20)
(-0.420568 0.188981 0)
(-0.457213 0.256515 1.00948e-20)
(-0.0573902 0.0863479 6.19797e-21)
(-0.641878 -0.184193 0)
(-0.0216429 0.0732731 -1.51013e-21)
(-0.582188 -0.321407 -3.77363e-21)
(-0.41667 0.168715 0)
(-0.338849 0.129967 8.18312e-21)
(-0.211696 0.118205 8.70894e-21)
(-0.295621 0.0168907 4.9947e-23)
(-0.423917 0.204614 -1.48955e-21)
(-0.464906 -0.0976443 -1.42896e-21)
(-0.120478 0.103993 -6.57906e-21)
(-0.333855 -0.113991 1.15587e-20)
(-0.462544 0.0884509 9.3114e-21)
(-0.248272 0.220895 0)
(-0.0609358 0.121525 0)
(-0.63514 -0.334548 -2.40223e-21)
(-0.505351 0.174565 0)
(-0.504067 -0.213649 0)
(-0.497725 0.15412 0)
(-0.152149 0.176821 0)
(-0.0224848 0.0701879 0)
(-0.440388 0.278222 -3.96161e-21)
(-0.751829 -0.220207 3.37287e-21)
(-0.436492 0.208217 0)
(-0.488363 -0.117422 7.13591e-22)
(-0.112322 0.108435 6.43372e-21)
(-0.318564 0.165669 0)
(-0.193321 0.0688281 1.24246e-20)
(-0.340308 0.030968 0)
(-0.653081 -0.325021 -8.53221e-21)
(-0.50055 0.189036 3.74357e-21)
(-0.0568507 0.117914 0)
(-0.0669012 0.111221 -6.77488e-21)
(-0.637546 -0.230451 2.94154e-22)
(-0.481283 0.226707 9.73472e-23)
(-0.436579 0.246169 0)
(-0.429343 0.24197 4.51501e-21)
(-0.0154205 0.0777079 -3.70113e-21)
(-0.0137348 0.0758007 -4.55608e-21)
(-0.730025 -0.273299 -2.3162e-21)
(-0.720952 -0.278986 1.90461e-21)
(-0.438084 0.152058 0)
(-0.403355 -0.111335 1.93102e-20)
(-0.171259 0.155985 6.96418e-21)
(-0.476555 -0.172298 1.39085e-20)
(-0.475572 0.15954 0)
(-0.151098 0.163882 -7.72553e-21)
(-0.374354 0.142279 -6.77299e-21)
(-0.327568 -0.0272402 4.97804e-21)
(-0.187997 0.129774 1.07125e-20)
(-0.641587 -0.334115 5.53152e-21)
(-0.481184 0.184862 4.96516e-21)
(-0.628267 -0.338862 -2.61806e-21)
(-0.0417477 0.101743 0)
(-0.485659 0.174205 -4.79861e-21)
(-0.0466011 0.105418 0)
(-0.458666 0.216797 0)
(-0.546353 -0.163089 0)
(-0.0951687 0.113465 7.20462e-21)
(-0.492471 0.196816 6.75781e-21)
(-0.483958 0.194449 -1.26407e-20)
(-0.663936 -0.322386 3.63002e-21)
(-0.659537 -0.326714 -9.15715e-21)
(-0.0478832 0.109702 1.02124e-20)
(-0.0419633 0.102918 -8.78129e-25)
(-0.472596 0.151374 0)
(-0.454452 -0.163299 -1.28592e-20)
(-0.166488 0.174821 1.00169e-20)
(-0.416685 0.17184 6.44249e-21)
(-0.426901 -0.0948955 -8.58765e-21)
(-0.14108 0.123558 0)
(-0.434009 0.269043 0)
(-0.0150145 0.0724281 0)
(-0.756138 -0.241591 3.50515e-21)
(-0.435858 0.163127 4.74149e-21)
(-0.41856 -0.108376 -5.35723e-21)
(-0.158472 0.145748 -1.15458e-20)
(-0.389784 0.151843 2.75239e-21)
(-0.353669 -0.0491892 -5.83491e-21)
(-0.176658 0.130391 6.27728e-21)
(-0.43136 0.253579 0)
(-0.0140242 0.0750001 0)
(-0.743188 -0.263941 -4.84823e-21)
(-0.434756 0.219656 0)
(-0.510564 -0.119817 1.50589e-21)
(-0.100804 0.0980735 -7.15005e-21)
(-0.40247 -0.189634 0)
(-0.513159 0.0868351 0)
(-0.239763 0.249386 -3.90408e-22)
(-0.357513 0.279923 -3.99469e-22)
(-0.509248 -0.014135 0)
(-0.176862 -0.0283272 1.3581e-20)
(-0.551369 -0.285544 6.03372e-21)
(-0.148652 0.195401 0)
(-0.532427 0.136713 0)
(-0.00311427 0.0321609 -1.43694e-20)
(-0.401881 -0.196482 3.23081e-21)
(-0.252916 0.122394 -4.10836e-21)
(-0.436604 0.185025 0)
(-0.449221 -0.112734 5.27876e-21)
(-0.134068 0.126398 -5.91245e-21)
(-0.451739 0.262144 7.33454e-21)
(-0.0233545 0.0808942 1.92079e-20)
(-0.73755 -0.245052 0)
(-0.238445 -0.0845351 -3.62265e-21)
(-0.519738 0.0118536 -5.44219e-21)
(-0.331233 0.290092 -3.54106e-21)
(-0.328457 0.205411 0)
(-0.00185481 0.0490369 -5.36277e-21)
(-0.599794 -0.234009 0)
(-0.245658 0.18198 6.68274e-21)
(-0.252579 0.194775 -6.84304e-21)
(-0.277234 -0.0371085 0)
(-0.399766 0.0937882 5.78749e-21)
(-0.282288 -0.0515369 -1.08834e-20)
(-0.41491 0.0875909 -4.66002e-21)
(-0.373858 0.129777 6.3741e-21)
(-0.309008 -0.0205581 6.60645e-21)
(-0.204471 0.140923 0)
(-0.279397 0.197011 5.89759e-21)
(-0.262207 0.186064 0)
(-0.237463 -0.0136927 -6.02065e-21)
(-0.396946 0.0663009 5.18725e-21)
(-0.250573 -0.0159633 6.06574e-21)
(-0.389647 0.0803064 2.99462e-23)
(-0.426384 0.182438 4.09721e-22)
(-0.40077 -0.082398 -3.74094e-21)
(-0.155835 0.130953 -7.75586e-21)
(-0.420597 0.163698 -1.10875e-20)
(-0.398184 -0.0868175 9.89835e-23)
(-0.163138 0.139835 0)
(-0.040801 0.0979647 0)
(-0.60447 -0.340709 0)
(-0.471592 0.164759 5.26417e-21)
(-0.351531 0.231447 -3.21672e-21)
(-0.436851 -0.00397802 0)
(-0.161159 0.0243742 3.42288e-21)
(-0.49072 0.207934 -1.20517e-20)
(-0.675526 -0.311255 4.23352e-21)
(-0.0466068 0.108972 -5.82286e-21)
(-0.476234 0.196933 0)
(-0.483016 0.200413 5.78702e-21)
(-0.54815 -0.190162 -1.72498e-21)
(-0.571279 -0.20666 5.47464e-21)
(-0.106353 0.133332 -7.96711e-21)
(-0.0991293 0.132447 -7.42676e-21)
(-0.349641 0.219362 0)
(-0.418949 -0.00300091 0)
(-0.160459 0.0357087 1.60914e-21)
(-0.399857 0.272343 3.8876e-21)
(-0.538241 -0.0707567 0)
(-0.113013 0.0302554 4.27828e-21)
(-0.459022 0.196123 -2.93273e-21)
(-0.509306 -0.156324 0)
(-0.114268 0.129019 0)
(-0.290849 0.1444 6.44986e-21)
(-0.31825 0.058114 -3.12931e-21)
(-0.217905 0.0651175 3.34069e-21)
(-0.492128 0.185096 0)
(-0.559209 -0.219713 0)
(-0.11356 0.146804 -1.19867e-20)
(-0.314492 0.180854 0)
(-0.191291 0.0483042 1.83806e-21)
(-0.361263 0.0338682 0)
(-0.466048 0.164105 -6.46013e-21)
(-0.463437 -0.158894 -7.14951e-21)
(-0.151455 0.157638 -9.9816e-22)
(-0.40253 0.261404 3.92988e-21)
(-0.524833 -0.0742574 0)
(-0.108375 0.0409683 8.78713e-21)
(-0.29727 0.157348 -6.39304e-21)
(-0.2889 0.161974 -2.86705e-21)
(-0.332768 0.0501944 3.07124e-21)
(-0.208432 0.0579163 -6.59911e-21)
(-0.342505 0.0569952 0)
(-0.213613 0.0441746 -1.17978e-20)
(-0.27383 0.175753 -2.91473e-21)
(-0.23054 0.0112995 7.8192e-21)
(-0.263141 0.179335 1.87641e-21)
(-0.368303 0.0703766 -6.99618e-21)
(-0.24973 -0.0070842 -3.76141e-21)
(-0.380908 0.0815012 1.20891e-22)
(-0.375501 0.228021 3.4867e-21)
(-0.389463 0.226559 0)
(-0.444292 -0.0345435 6.42641e-21)
(-0.454038 -0.0510663 -5.01378e-21)
(-0.135249 0.0517385 -7.63115e-21)
(-0.12581 0.0646509 1.26962e-20)
(-0.0460305 0.0771387 0)
(-0.677558 -0.189915 -2.7513e-21)
(-0.453143 0.269133 -6.14112e-21)
(-0.252212 0.251217 4.72364e-21)
(-0.503642 0.0795533 6.25169e-21)
(-0.373334 -0.166549 -1.22846e-20)
(-0.0406717 0.0808477 -6.45657e-21)
(-0.0441181 0.0873804 5.16834e-21)
(-0.692732 -0.207754 2.37857e-21)
(-0.681673 -0.215317 4.10258e-21)
(-0.456961 0.266689 1.5756e-20)
(-0.463517 0.257649 -8.21059e-21)
(-0.298971 0.259794 6.44098e-21)
(-0.272131 -0.0887351 -5.71817e-21)
(-0.481286 0.0457207 1.35275e-21)
(-0.285023 0.120761 1.0815e-20)
(-0.236555 0.0845418 0)
(-0.289581 0.0686092 -1.07396e-20)
(-0.490728 0.194641 -2.79402e-21)
(-0.578209 -0.222889 -6.18106e-21)
(-0.101731 0.13841 0)
(-0.332626 0.211495 0)
(-0.175718 0.0257467 -1.53405e-21)
(-0.405129 0.0156774 -5.40111e-21)
(-0.410058 0.261092 0)
(-0.535677 -0.0858308 0)
(-0.100144 0.0492033 -8.18636e-21)
(-0.443138 0.277085 -6.55218e-21)
(-0.44616 0.268965 0)