/*--------------------------------*- C++ -*----------------------------------*\
  =========                 |
  \\      /  F ield         | OpenFOAM: The Open Source CFD Toolbox
   \\    /   O peration     | Website:  https://openfoam.org
    \\  /    A nd           | Version:  6
     \\/     M anipulation  |
\*---------------------------------------------------------------------------*/
FoamFile
{
    version     2.0;
    format      ascii;
    class       volVectorField;
    location    "0";
    object      U;
}
// * * * * * * * * * * * * * * * * * * * * * * * * * * * * * * * * * * * * * //

dimensions      [0 1 -1 0 0 0 0];

internalField   nonuniform List<vector> 
13046
(
(-0.823319 0.514703 0)
(-0.630048 0.183779 -7.24424e-21)
(-0.324112 0.158137 -1.59397e-20)
(-0.797591 0.426677 0)
(-0.421963 0.252556 -1.42858e-20)
(-0.525 0.163001 0)
(-0.845417 0.448583 2.0463e-21)
(-0.515358 0.132786 3.72731e-21)
(-0.398469 0.256811 -1.5743e-20)
(-1.08823 0.586572 5.5435e-21)
(-0.720962 -0.150935 0)
(-0.048626 0.029033 1.04792e-20)
(-0.939862 0.552329 -6.41266e-21)
(-0.593077 0.117528 -1.1684e-20)
(-0.278844 0.157537 8.72475e-21)
(-1.08779 0.686713 -7.43268e-21)
(-0.0559068 0.00423168 2.52543e-20)
(-0.768161 -0.0682027 6.38804e-21)
(-0.576922 0.36741 0)
(-0.439561 0.162113 -7.81011e-21)
(-0.720698 0.329135 2.17801e-20)
(-1.09293 0.673257 -3.07819e-21)
(-0.0535687 0.0112592 -3.37008e-20)
(-0.75453 -0.0852314 0)
(-0.751772 0.437129 8.68227e-21)
(-0.596232 0.205764 -1.76792e-20)
(-0.397372 0.206509 0)
(-0.943559 0.581708 -1.15135e-20)
(-0.616422 0.116017 3.41028e-21)
(-0.251986 0.132833 -1.51042e-20)
(-0.830216 0.535507 0)
(-0.657696 0.193153 0)
(-0.299137 0.131207 1.62288e-20)
(-0.702843 0.403563 -1.00785e-20)
(-0.42936 0.218588 5.38193e-21)
(-0.59583 0.229643 3.07818e-20)
(-0.688162 0.379819 -1.56484e-20)
(-0.465066 0.247065 8.18791e-21)
(-0.571921 0.230655 -1.58483e-20)
(-0.724757 0.53994 1.10444e-20)
(-0.299649 0.0491228 2.99789e-21)
(-0.811323 0.269211 -1.08311e-20)
(-0.61684 0.311598 7.10968e-21)
(-0.551305 0.293581 1.22053e-20)
(-0.542371 0.249792 0)
(-0.65615 0.322052 4.45818e-21)
(-0.546449 0.31132 -1.87063e-20)
(-0.507902 0.220994 -2.35601e-21)
(-0.844978 0.50906 0)
(-0.598863 0.158529 -5.22885e-22)
(-0.320259 0.172821 9.68337e-25)
(-0.322191 -0.0393595 1.88912e-20)
(-0.640726 0.554581 0)
(-0.975406 0.317881 -1.31127e-20)
(-0.344577 -0.0578099 -2.69221e-20)
(-1.01992 0.33833 -2.05603e-20)
(-0.592613 0.530682 1.73035e-20)
(-0.802869 0.0903805 -2.75056e-21)
(-1.04501 0.784155 0)
(-0.130546 -0.022772 1.39923e-20)
(-1.08535 0.523364 -5.93771e-21)
(-0.516411 -0.0105959 7.02303e-21)
(-0.282661 0.239998 -3.63288e-20)
(-0.104266 0.075466 1.91731e-20)
(-0.668237 -0.0717975 -4.60435e-21)
(-1.14303 0.628474 -9.04278e-21)
(-1.01771 0.794821 0)
(-0.831674 0.119735 0)
(-0.148215 -0.0381091 0)
(-0.994516 0.778545 -4.5776e-21)
(-0.830426 0.134728 0)
(-0.160139 -0.0335914 1.11822e-20)
(-0.812801 0.0768162 0)
(-1.06086 0.794451 1.9699e-22)
(-0.117855 -0.03075 1.56436e-24)
(-0.604225 0.395341 0)
(-0.411306 0.140727 8.48958e-21)
(-0.736486 0.31382 -1.55795e-20)
(-0.0947408 -0.0158118 1.54669e-20)
(-1.08235 0.774873 -1.33259e-20)
(-0.786642 0.0275901 0)
(-0.784457 0.448634 4.50848e-21)
(-0.570531 0.185146 0)
(-0.387964 0.218528 0)
(-0.0883034 0.0605932 -1.7208e-20)
(-0.68592 -0.0881346 -3.61713e-21)
(-1.14058 0.629576 5.3571e-21)
(-1.18045 0.540292 -9.56161e-21)
(-0.152818 0.15562 0)
(-0.596778 -0.121557 -3.55158e-21)
(-0.205781 0.235466 0)
(-1.21496 0.442829 0)
(-0.545102 -0.188365 4.7679e-22)
(-1.07764 0.634331 0)
(-1.10157 0.628333 5.29374e-21)
(-0.629333 0.0308715 1.38214e-20)
(-0.623335 0.00425749 -6.49282e-21)
(-0.177732 0.107633 -7.91658e-21)
(-0.168412 0.115328 2.02914e-20)
(-0.177107 0.182031 -9.60906e-22)
(-1.18577 0.522447 9.36069e-21)
(-0.575906 -0.129034 0)
(-0.698956 0.350331 -6.29114e-23)
(-0.518431 0.303925 9.80548e-21)
(-0.501046 0.198364 0)
(-0.524748 0.448232 0)
(-0.976081 0.378984 -6.27743e-21)
(-0.374311 -0.00519895 0)
(-0.645252 0.530377 1.91636e-20)
(-0.319297 0.000913277 0)
(-0.912739 0.312532 -2.45367e-20)
(-0.966784 0.521371 0)
(-0.018933 -0.00336619 0)
(-0.719122 -0.215871 -5.42565e-21)
(-0.899769 0.527823 1.7741e-20)
(-0.585209 0.13465 4.90738e-21)
(-0.302479 0.173267 1.57726e-20)
(-1.09309 0.684263 6.7612e-21)
(-1.07372 0.665412 -1.28063e-20)
(-0.681589 0.0244254 -1.17345e-20)
(-0.136347 0.0608905 9.11901e-21)
(-0.660508 0.0405272 7.15989e-21)
(-0.157507 0.078066 -8.52099e-21)
(-1.06299 0.584353 -4.42565e-21)
(-0.733635 -0.162769 -7.44313e-21)
(-0.0383845 0.0170209 -4.69546e-21)
(-1.01944 0.622748 0)
(-0.627967 0.0727503 -9.08073e-21)
(-0.206273 0.111329 1.84939e-20)
(-0.766622 0.560553 0)
(-0.283214 0.0563356 -1.49667e-20)
(-0.782533 0.243867 6.37656e-22)
(-0.23482 0.263238 0)
(-1.21376 0.443057 0)
(-0.529964 -0.170781 0)
(-1.14069 0.604491 0)
(-0.616051 -0.045945 -1.81731e-20)
(-0.159699 0.128242 -2.17316e-20)
(-0.869477 0.559346 0)
(-0.663942 0.174162 0)
(-0.275618 0.114409 0)
(-0.964622 0.4636 0)
(-0.468039 0.0506369 0)
(-0.391177 0.297063 0)
(-0.619396 0.52037 0)
(-0.33223 -0.012842 0)
(-0.946788 0.329075 1.31885e-20)
(-0.528434 0.434255 -2.03115e-21)
(-0.954811 0.381311 -1.35299e-20)
(-0.382071 0.0116931 1.63858e-20)
(-1.10419 0.540302 1.37402e-20)
(-0.537828 -0.0211028 0)
(-0.251146 0.210234 4.72481e-20)
(-0.493575 0.365994 0)
(-0.88834 0.397471 1.46162e-20)
(-0.420625 0.0706601 -4.14736e-21)
(-0.396086 -0.0730195 0)
(-1.08163 0.387662 1.43551e-20)
(-0.423803 -0.0818121 0)
(-1.11036 0.413379 8.12605e-21)
(-0.484848 0.455513 0)
(-0.43063 0.410797 0)
(-0.984364 0.427336 1.8485e-21)
(-0.42779 0.0180047 8.71731e-21)
(-0.436009 0.349387 -8.89885e-21)
(-1.10868 0.571183 -5.70888e-21)
(-0.0562253 0.0422719 0)
(-0.698482 -0.16278 -9.11779e-21)
(-1.00325 0.54665 -3.90502e-21)
(-0.0243272 0.00208868 -2.14782e-21)
(-0.733878 -0.194696 0)
(-1.14136 0.619316 -7.60868e-21)
(-0.634469 -0.0487768 0)
(-0.139674 0.107817 2.47178e-20)
(-0.827791 0.640831 0)
(-0.830218 0.224902 3.53451e-21)
(-0.244417 0.00745216 8.77366e-21)
(-0.957561 0.410651 1.2292e-20)
(-0.469819 0.37853 4.24255e-21)
(-0.411655 0.0295519 0)
(-0.079646 0.0800567 0)
(-0.656738 -0.168311 0)
(-1.14763 0.543715 4.79935e-21)
(-0.79346 0.609971 0)
(-0.825445 0.242171 -7.60126e-21)
(-0.262625 0.0214876 2.26873e-21)
(-0.494765 0.383334 0)
(-0.904732 0.391722 0)
(-0.403631 0.0526139 0)
(-0.93079 0.446316 6.03994e-21)
(-0.464941 0.06647 0)
(-0.405422 0.29654 0)
(-0.57112 0.0801775 -5.0744e-23)
(-0.26847 0.172575 -1.06934e-20)
(-0.997406 0.599506 1.82312e-20)
(-0.613657 0.08659 0)
(-0.228648 0.128224 -2.31733e-20)
(-1.16354 0.577337 -9.58168e-21)
(-0.112474 0.102369 1.55374e-20)
(-0.644162 -0.117456 -1.74199e-20)
(-0.223725 0.240832 1.40783e-20)
(-1.198 0.479259 5.96598e-21)
(-0.540975 -0.143005 1.76105e-20)
(-1.20235 0.486473 -1.61327e-20)
(-0.577594 -0.16398 0)
(-0.165477 0.185315 -1.38189e-20)
(-0.311359 -0.07963 -9.67925e-22)
(-1.01604 0.295433 5.89142e-21)
(-0.682032 0.624229 0)
(-0.925353 0.492974 -2.71319e-20)
(-1.07185 0.787812 6.89434e-21)
(-0.100069 -0.0251318 -9.54738e-21)
(-0.806171 0.0387775 0)
(-0.596331 -0.176309 0)
(-1.18843 0.496718 -1.41077e-20)
(-0.137808 0.152147 0)
(-0.717402 0.379458 -2.25365e-20)
(-0.475919 0.273048 -8.03573e-21)
(-0.529516 0.199829 2.33607e-20)
(-0.922747 0.589534 0)
(-0.644982 0.138814 -4.91244e-22)
(-0.255059 0.119636 -8.90159e-21)
(-0.240399 0.262842 1.07481e-20)
(-1.2054 0.462932 0)
(-0.528628 -0.155564 -2.02876e-20)
(-0.960003 0.512461 2.16923e-20)
(-0.550343 0.0731515 2.11767e-20)
(-0.289636 0.194952 0)
(-0.0389866 0.0259687 0)
(-0.695583 -0.200791 8.00577e-21)
(-1.06484 0.536153 0)
(-0.636021 0.589615 0)
(-1.04371 0.310723 0)
(-0.329892 -0.0881639 0)
(-1.19953 0.49742 1.41534e-20)
(-0.566587 -0.147117 0)
(-0.181596 0.196695 -4.00685e-23)
(-1.04754 0.423468 5.35145e-21)
(-0.419314 -0.0324036 -6.72209e-21)
(-0.428681 0.379844 0)
(-1.01458 0.642285 0)
(-0.649259 0.0827392 8.47421e-21)
(-0.195263 0.092681 1.45942e-20)
(-0.473712 -0.155508 -2.48664e-20)
(-1.19988 0.407876 -1.11136e-20)
(-0.346728 0.37304 8.42657e-21)
(-1.1397 0.408309 0)
(-0.434427 -0.104347 -9.6993e-21)
(-0.416402 0.409934 -3.02795e-22)
(-0.0369232 0.0271515 -1.36969e-20)
(-0.677568 -0.21682 0)
(-1.06018 0.513219 -4.40532e-21)
(-0.719214 0.585284 1.01616e-20)
(-0.290029 -0.00355987 -1.09898e-20)
(-0.892405 0.27995 1.09503e-21)
(-0.898949 0.544928 4.08269e-21)
(-0.013022 -0.018753 -2.02038e-20)
(-0.766348 -0.184416 0)
(-0.532439 0.336094 -4.64882e-21)
(-0.742309 0.351107 -1.76031e-20)
(-0.458142 0.160455 2.34517e-20)
(-1.05134 0.466311 6.24942e-21)
(-1.02997 0.438108 4.78645e-24)
(-0.458223 -0.0126243 -1.62612e-20)
(-0.431678 -0.0127508 0)
(-0.414517 0.356949 8.08942e-21)
(-0.362309 0.311861 -8.40357e-21)
(-0.0821639 -0.0128221 -2.02419e-20)
(-1.08589 0.759652 7.12839e-21)
(-0.787635 0.0095388 -1.54995e-20)
(-0.985382 0.641473 0)
(-0.671172 0.112461 0)
(-0.206623 0.0840603 -1.92234e-20)
(-1.16193 0.425014 -2.933e-21)
(-0.457413 -0.119058 0)
(-0.374333 0.377109 0)
(-1.11947 0.648148 -6.47856e-21)
(-0.649491 -0.0107361 0)
(-0.14035 0.0894863 9.02664e-21)
(-0.608682 0.323836 4.81125e-21)
(-0.574763 0.267313 7.03926e-21)
(-0.528613 0.269432 -2.40432e-21)
(-1.09468 0.432698 -1.03909e-20)
(-0.436869 -0.0615733 0)
(-0.400083 0.373051 -1.40521e-20)
(-0.986953 0.661723 0)
(-0.694119 0.114904 1.06039e-20)
(-0.193622 0.0647655 -1.24312e-20)
(-0.974228 0.542101 0)
(-1.0061 0.557001 2.13111e-21)
(-0.72748 0.602046 3.66937e-21)
(-0.284318 -0.0187448 3.19042e-20)
(-0.909914 0.278345 -2.63715e-20)
(-1.1158 0.454673 -1.04966e-20)
(-0.458925 -0.0688793 1.4243e-20)
(-0.353971 0.332977 1.28209e-20)
(-1.13278 0.641413 0)
(-0.131629 0.0919888 -3.18223e-20)
(-0.650189 -0.0311472 -9.12211e-21)
(-0.650084 0.511709 -2.64399e-20)
(-0.323982 0.0180283 0)
(-0.885926 0.316141 8.3259e-21)
(-0.50602 0.485601 -1.62477e-20)
(-1.09271 0.372452 -8.39053e-21)
(-0.387965 -0.091166 0)
(-1.05429 0.707518 -6.59763e-21)
(-0.713782 0.0706737 -9.4095e-21)
(-0.143585 0.0366702 5.68467e-21)
(-0.68202 0.587727 1.33463e-21)
(-0.306427 -0.0397998 0)
(-0.961514 0.303448 1.80979e-20)
(-1.07369 0.718803 0)
(-1.08748 0.708226 0)
(-0.720434 0.0537766 -6.15376e-21)
(-0.131017 0.0315447 -1.47636e-20)
(-0.706472 0.0317608 8.70879e-21)
(-0.125783 0.0419808 1.57006e-20)
(-0.0842856 0.0761362 -1.20579e-20)
(-0.665901 -0.147643 0)
(-1.14848 0.567816 -6.72131e-21)
(-1.04955 0.667242 7.62767e-21)
(-0.666083 0.061474 0)
(-0.166734 0.0740482 5.02304e-21)
(-0.676436 -0.238822 1.58376e-20)
(-0.00744961 -0.0186075 1.76217e-20)
(-0.838494 0.469204 9.57147e-21)
(-0.829267 0.367953 -8.08095e-21)
(-0.529934 0.370615 0)
(-0.415633 0.100205 0)
(-1.05203 0.519696 1.42606e-20)
(-0.511283 0.0128334 0)
(-0.295171 0.236381 2.77975e-20)
(-0.124425 0.107012 -9.8758e-21)
(-1.16286 0.592815 1.97128e-20)
(-0.636055 -0.0941162 1.30153e-20)
(-0.346928 -0.0725871 0)
(-1.04035 0.335921 7.64045e-21)
(-0.586571 0.546353 -1.96003e-20)
(-0.492869 -0.156708 -3.06429e-20)
(-1.20441 0.427191 -6.70706e-21)
(-0.304591 0.330261 0)
(-0.534869 0.0961267 -2.11473e-20)
(-0.326398 0.217726 0)
(-1.06342 0.573081 1.54269e-20)
(-0.563433 0.0247401 7.78404e-21)
(-0.236188 0.170843 8.4961e-21)
(-0.51128 0.0820797 1.24488e-20)
(-0.346137 0.240132 7.67114e-23)
(-1.10001 0.698546 -4.64952e-22)
(-0.0657944 0.00848186 1.18815e-20)
(-0.757385 -0.0488602 -9.38212e-21)
(-0.298868 -0.0937146 0)
(-1.01802 0.281039 1.89683e-21)
(-0.71788 0.659995 0)
(-1.08643 0.581398 -1.57287e-20)
(-0.573114 0.0080894 -9.5091e-21)
(-0.219259 0.167437 -1.04093e-20)
(-0.979629 0.455045 0)
(-0.449897 0.0303825 -1.26713e-20)
(-0.401734 0.316898 0)
(-0.973699 0.35696 0)
(-0.3537 -0.0184272 0)
(-0.569981 0.481215 0)
(-0.828604 0.48169 -6.25861e-21)
(-0.57777 0.166223 -1.15585e-20)
(-0.353993 0.198471 6.18426e-23)
(-0.546908 0.519226 2.01883e-20)
(-1.07536 0.353758 2.02813e-20)
(-0.370538 -0.0873628 1.37312e-20)
(-1.17891 0.546585 -8.3861e-21)
(-0.62015 -0.136254 1.48426e-20)
(-0.125644 0.125684 -1.46139e-20)
(-0.502996 -0.143959 2.07006e-20)
(-1.19859 0.447079 6.7941e-21)
(-0.284823 0.306165 1.07182e-20)
(-0.93596 0.758347 -1.4342e-20)
(-0.19193 -0.0396667 1.68644e-20)
(-0.861598 0.173333 -1.30208e-20)
(-1.0843 0.749615 3.87877e-21)
(-1.07396 0.74733 -3.58628e-21)
(-0.751327 0.0547925 -1.96336e-21)
(-0.758503 0.0405517 0)
(-0.107649 0.0033544 -5.44038e-21)
(-0.119257 0.00729041 -4.78453e-21)
(-0.00969922 -0.0184894 -2.38536e-20)
(-0.707845 -0.221839 -1.74494e-20)
(-0.861508 0.487385 2.63119e-21)
(-0.9257 0.566216 -2.69024e-22)
(-0.0161358 -0.0175767 2.79561e-20)
(-0.779763 -0.171863 0)
(-1.08269 0.477815 -2.32775e-20)
(-0.475217 -0.0274626 -3.68074e-21)
(-0.342815 0.301444 0)
(-0.0962903 0.0831472 -2.99174e-20)
(-1.15509 0.582042 6.68492e-21)
(-0.661552 -0.123793 0)
(-1.00613 0.745968 1.99208e-20)
(-1.03067 0.744392 -1.49013e-20)
(-0.7817 0.117022 1.00087e-20)
(-0.764449 0.0978717 3.85152e-21)
(-0.15969 -0.00251413 -9.47893e-21)
(-0.146545 0.00559269 -4.74555e-21)
(-0.109793 0.127569 0)
(-0.59474 -0.208788 0)
(-1.17625 0.461228 2.4638e-21)
(-0.835094 0.527398 -4.79303e-21)
(-0.0101058 -0.023926 0)
(-0.765109 -0.184462 0)
(-0.659543 0.291965 -9.0914e-23)
(-0.612415 0.368243 1.02288e-20)
(-0.448682 0.194665 5.18736e-21)
(-0.912139 0.517583 -8.23646e-21)
(-0.732179 -0.211268 7.93576e-21)
(-0.0137156 -0.0130437 1.30798e-21)
(-0.879466 0.653884 0)
(-0.788554 0.194156 -1.65052e-20)
(-0.2256 0.0222877 -9.71422e-24)
(-1.15517 0.534209 1.26701e-22)
(-0.643447 -0.170177 2.14853e-20)
(-0.0942656 0.0951422 1.44951e-23)
(-0.591479 -0.266228 4.77824e-22)
(-0.00484878 -0.0179092 -1.01232e-20)
(-0.796734 0.383178 -3.58114e-21)
(-0.685424 0.503036 -9.59005e-21)
(-0.324095 0.0672685 9.56247e-21)
(-0.804264 0.288197 2.64568e-20)
(-0.78737 0.379701 0)
(-0.462919 0.141235 -2.6018e-20)
(-0.49699 0.32492 1.31257e-20)
(-1.0509 0.601959 0)
(-0.0354482 0.00928738 1.40098e-20)
(-0.74992 -0.151418 8.48646e-24)
(-0.817005 0.387759 0)
(-0.445016 0.121343 -9.19925e-21)
(-0.490628 0.337923 -1.85431e-20)
(-0.638983 0.294152 1.05739e-20)
(-0.598325 0.346905 -5.42802e-21)
(-0.476712 0.217033 2.73307e-21)
(-0.611432 0.587824 9.66681e-21)
(-1.07983 0.320402 -7.25194e-21)
(-0.348609 -0.109961 1.51414e-20)
(-0.76392 0.325032 0)
(-0.398408 0.122991 0)
(-0.587958 0.408785 1.5154e-21)
(-0.811502 0.35475 1.27988e-20)
(-0.402732 0.107153 7.06732e-21)
(-0.564124 0.398247 2.16e-22)
(-0.902795 0.744054 2.18236e-20)
(-0.884542 0.189949 -1.27154e-20)
(-0.208839 -0.0481622 -1.66496e-20)
(-0.0574278 0.0290826 2.11931e-20)
(-0.0585151 0.0354716 -2.14591e-20)
(-0.731797 -0.112906 6.41394e-21)
(-0.717614 -0.127448 4.43879e-21)
(-1.10446 0.633131 0)
(-1.1107 0.619539 -5.67643e-21)
(-1.17933 0.532454 1.03862e-20)
(-0.623368 -0.151544 -1.33486e-20)
(-0.116677 0.123994 1.80835e-20)
(-0.179447 -0.0515568 -1.07793e-20)
(-0.959755 0.787745 4.40646e-21)
(-0.868904 0.160923 1.66009e-20)
(-0.74677 0.584648 -9.28177e-21)
(-0.279944 0.0140161 -1.00152e-20)
(-0.855238 0.263104 8.30512e-21)
(-1.14996 0.380113 0)
(-0.420248 -0.1235 1.00321e-20)
(-0.45334 0.453877 3.13404e-22)
(-0.604647 -0.266385 7.78218e-21)
(-0.0196 0.00585076 -9.39459e-21)
(-0.950332 0.410427 -3.35386e-21)
(-0.177931 0.205581 0)
(-1.20853 0.457504 0)
(-0.560481 -0.18786 8.93888e-21)
(-1.03833 0.550285 4.62683e-21)
(-0.0325764 0.0142172 0)
(-0.7216 -0.189858 -7.85593e-21)
(-0.00229116 -0.021683 -3.75213e-32)
(-0.569054 -0.261186 -7.44669e-21)
(-0.730454 0.36361 3.5478e-21)
(-0.618197 -0.222402 8.33988e-21)
(-0.00336853 -0.0246462 3.74286e-32)
(-0.70422 0.41474 -3.16165e-21)
(-0.513024 -0.0650811 -1.96802e-20)
(-1.14068 0.504251 0)
(-0.279068 0.257863 -2.76176e-20)
(-0.606179 -0.236506 -4.1508e-21)
(-0.0643206 0.0704278 -9.58333e-21)
(-1.11538 0.443232 0)
(-1.15393 0.589601 -9.75405e-21)
(-0.606265 -0.0659784 1.12905e-20)
(-0.162212 0.13999 1.44331e-20)
(-1.03655 0.679031 1.4728e-20)
(-0.0382107 -0.0154569 8.58963e-21)
(-0.810239 -0.0826125 0)
(-0.898885 0.503254 4.82254e-21)
(-0.332179 0.208093 -5.35473e-21)
(-0.549822 0.118133 5.08608e-21)
(-0.585321 -0.20264 4.62766e-21)
(-0.130214 0.152175 1.01278e-20)
(-1.1881 0.460299 2.83251e-21)
(-1.13021 0.368207 -8.15405e-21)
(-0.488362 0.484282 -5.55639e-21)
(-0.40331 -0.115325 0)
(-0.471503 -0.11266 0)
(-1.16245 0.44223 0)
(-0.340015 0.345278 0)
(-0.000286681 -0.0189414 0)
(-0.371484 -0.159232 -6.32677e-21)
(-0.413661 0.212305 2.25598e-21)
(-0.656398 -0.254027 7.84742e-21)
(-0.0083894 -0.0148831 -1.2233e-20)
(-0.861566 0.453041 -4.14975e-21)
(-0.860962 0.479617 -1.23446e-20)
(-0.358123 0.219126 1.26311e-20)
(-0.54646 0.13638 5.87587e-21)
(-0.621609 -0.196004 1.91646e-20)
(-1.1624 0.495484 -5.23258e-21)
(-0.0910599 0.101954 0)
(-0.099823 0.11814 -1.06287e-20)
(-1.16778 0.44756 0)
(-0.589577 -0.223541 -1.4279e-20)
(-1.14527 0.611801 -6.12869e-21)
(-0.0846802 0.0654902 3.21212e-20)
(-0.680945 -0.108639 0)
(-0.0804386 0.0079526 -2.44373e-20)
(-0.755941 -0.0131457 9.77921e-21)
(-1.10089 0.727534 0)
(-0.879215 0.755754 -2.75808e-20)
(-0.921127 0.203837 1.61915e-20)
(-0.22447 -0.0667892 -5.29195e-21)
(-0.773742 0.0771303 2.92928e-21)
(-1.05267 0.766324 8.54544e-21)
(-0.129858 -0.005597 -1.49373e-20)
(-0.0633991 -0.0128472 -2.19295e-20)
(-1.08006 0.735053 0)
(-0.793672 -0.027177 0)
(-0.915494 0.637355 -4.38799e-21)
(-0.952269 0.661217 0)
(-0.722403 0.164429 -1.7192e-20)
(-0.721898 0.144907 1.8385e-20)
(-0.222792 0.0607753 2.53155e-21)
(-0.203251 0.0520923 -2.69922e-21)
(-0.880904 0.634132 4.20853e-21)
(-0.754416 0.188009 0)
(-0.233558 0.0465071 4.87193e-21)
(-0.992567 0.762641 0)
(-0.808519 0.12946 -1.61691e-20)
(-0.163419 -0.0178945 3.41855e-21)
(-0.49481 -0.128497 -1.02612e-20)
(-1.18599 0.451294 7.06854e-21)
(-0.297043 0.308346 -2.20456e-20)
(-0.60848 -0.170654 0)
(-1.18001 0.512992 1.54818e-20)
(-0.120953 0.13456 0)
(-0.243623 0.250213 -7.13859e-21)
(-1.18687 0.484777 -4.36399e-21)
(-0.52967 -0.123224 -6.72456e-21)
(-0.658279 -0.218881 -1.14909e-21)
(-0.00446917 -0.0245131 6.54376e-21)
(-0.744708 0.445819 0)
(-0.758787 0.526324 8.6356e-21)
(-0.770151 0.516331 0)
(-0.307791 0.0961555 0)
(-0.731593 0.243131 3.25813e-20)
(-0.316618 0.117864 0)
(-0.698066 0.22687 -2.06659e-20)
(-0.944216 0.728883 0)
(-0.90375 0.703832 0)
(-0.207855 -0.00717689 3.29551e-23)
(-0.813778 0.163478 9.99428e-21)
(-0.191085 -0.00824117 2.50191e-20)
(-0.823356 0.182062 -2.10486e-20)
(-0.564839 -0.274397 0)
(-0.00651929 -0.0132367 1.37479e-20)
(-0.830499 0.371923 0)
(-0.624827 -0.186241 -1.12743e-20)
(-1.1688 0.510057 1.64194e-21)
(-0.0959394 0.10318 6.40831e-21)
(-0.767586 0.631594 -1.59199e-20)
(-0.269131 -0.0285398 -1.15098e-20)
(-0.908445 0.259615 2.74333e-20)
(-0.457161 -0.140412 2.21129e-20)
(-1.18249 0.404832 1.86709e-20)
(-0.376217 0.395059 0)
(-0.0872344 0.00402995 2.61317e-20)
(-0.75955 0.0016997 -1.04043e-20)
(-1.09735 0.738549 8.98342e-21)
(-0.681493 -0.237101 0)
(-0.976387 0.489267 0)
(-0.0194822 0.00212589 0)
(-0.670895 -0.231941 0)
(-1.01317 0.486679 4.15069e-21)
(-0.0284074 0.0157889 2.33035e-21)
(-1.03298 0.724465 -8.25722e-21)
(-0.736179 0.0891507 5.85087e-21)
(-0.150044 0.0240418 7.0243e-21)
(-0.623165 0.485245 -2.52448e-21)
(-0.340957 0.0326715 0)
(-0.879586 0.331517 -1.43734e-22)
(-1.12927 0.606005 7.14121e-21)
(-0.0720936 0.0523148 1.87305e-20)
(-0.698066 -0.121579 -5.17091e-21)
(-0.512489 -0.085756 0)
(-1.15612 0.495796 0)
(-0.273555 0.269181 2.37928e-20)
(-0.110173 0.0708776 6.07439e-21)
(-0.673961 -0.0452817 1.5638e-20)
(-1.13324 0.65472 1.9933e-20)
(-0.877741 0.698435 0)
(-0.219737 -0.0168229 -1.67265e-20)
(-0.84733 0.198517 1.07174e-20)
(-1.02589 0.402958 1.40904e-22)
(-0.397209 -0.0264135 9.86781e-21)
(-0.478877 0.417019 0)
(-0.711342 0.546313 1.73846e-22)
(-0.299466 0.0299404 -3.27202e-21)
(-0.845624 0.279668 -1.08864e-20)
(-0.0712533 0.0579466 -6.35799e-24)
(-0.687775 -0.145295 1.22697e-20)
(-1.12847 0.578767 7.67755e-21)
(-1.11012 0.674758 -3.7399e-21)
(-0.676793 -7.90251e-05 -4.58795e-21)
(-0.127464 0.0665061 0)
(-0.697836 0.49537 -9.36576e-21)
(-0.330675 0.0890728 2.05785e-20)
(-0.767483 0.276749 -1.74352e-20)
(-1.0632 0.722588 5.90038e-21)
(-0.0526355 -0.0177395 9.76534e-21)
(-0.806546 -0.0458757 -7.46299e-21)
(-0.86086 0.582775 -5.3376e-21)
(-0.696401 0.180896 0)
(-0.260574 0.0911572 0)
(-0.900008 0.424441 -2.26224e-20)
(-0.44536 0.0773042 5.71854e-21)
(-0.44648 0.328098 0)
(-0.474825 -0.0897466 0)
(-1.1457 0.455251 1.50168e-20)
(-0.332102 0.328308 0)
(-0.975249 0.610588 -3.04317e-21)
(-0.0228116 -0.0155254 -3.00742e-21)
(-0.801269 -0.139306 8.68948e-21)
(-0.983754 0.633335 8.43477e-21)
(-0.0251691 -0.0177857 0)
(-0.811771 -0.119454 -8.24234e-21)
(-0.100475 0.053633 5.54643e-21)
(-0.693513 -0.0374093 -9.34087e-21)
(-1.12596 0.671063 -1.83243e-20)
(-1.04499 0.382674 -7.25327e-21)
(-0.385852 -0.0513496 -9.85728e-21)
(-0.505282 0.451338 0)
(-0.0162462 -0.0211276 2.75486e-21)
(-0.802166 -0.156607 -8.12239e-21)
(-0.916647 0.58183 0)
(-0.147362 0.131505 0)
(-0.614425 -0.0865567 -9.54345e-21)
(-1.16301 0.580031 -2.28875e-21)
(-0.000264934 -0.0223055 1.10189e-20)
(-0.490169 -0.255884 8.29493e-21)
(-0.645937 0.296917 0)
(-0.594517 0.377884 -3.67559e-21)
(-0.571045 -0.192459 0)
(-0.00289895 -0.0250232 1.1051e-20)
(-0.0682409 -0.0012163 2.25012e-23)
(-0.773682 -0.0302266 0)
(-1.09008 0.724933 0)
(-0.0517744 0.0435086 0)
(-0.686541 -0.183272 0)
(-1.10229 0.548414 9.95241e-21)
(-1.11326 0.651264 -6.33552e-21)
(-1.12542 0.655426 5.12544e-21)
(-0.0650576 0.0283114 -1.06287e-20)
(-0.730845 -0.0857493 -2.09838e-21)
(-0.0762812 0.0396464 -1.72384e-20)
(-0.712221 -0.0746996 3.76076e-21)
(-1.17235 0.560102 4.4899e-21)
(-0.597153 -0.0981093 6.27637e-21)
(-0.161432 0.152524 0)
(-0.429388 0.449282 0)
(-0.433093 -0.142974 0)
(-1.17439 0.382102 0)
(-0.760457 0.476676 0)
(-0.352739 0.158993 -2.79527e-20)
(-0.64841 0.218987 1.14026e-20)
(-1.17579 0.51942 1.30611e-20)
(-0.553685 -0.104204 2.2957e-21)
(-0.211533 0.210387 2.10825e-20)
(-0.239305 0.238487 1.36769e-20)
(-1.174 0.503919 -1.81717e-20)
(-0.534937 -0.104909 -3.18656e-21)
(-1.07776 0.761698 6.98194e-21)
(-0.0712239 -0.0209465 1.05e-20)
(-0.803702 -0.00363408 1.61855e-20)
(-0.954703 0.746538 0)
(-0.826181 0.157874 4.79962e-21)
(-0.182924 -0.0199429 -2.45223e-20)
(-0.909615 0.678409 0)
(-0.791793 0.17973 2.16832e-20)
(-0.210685 0.012461 1.50535e-23)
(-1.13049 0.541982 -1.74647e-20)
(-0.545823 -0.0473061 2.77218e-21)
(-0.236351 0.207896 -1.20139e-20)
(-1.14401 0.529692 0)
(-0.538019 -0.0637419 2.59499e-21)
(-0.242446 0.220724 1.10256e-20)
(-0.668993 0.46448 0)
(-0.355206 0.108916 -3.25066e-20)
(-0.754023 0.286865 9.80771e-21)
(-0.95911 0.680509 0)
(-0.738766 0.139748 0)
(-0.191752 0.0351036 3.67154e-21)
(-0.148886 0.17804 -2.18761e-20)
(-0.566774 -0.207568 -2.52096e-20)
(-1.20187 0.446846 0)
(-1.02789 0.463626 5.35876e-21)
(-0.0311173 0.0222435 0)
(-0.639795 -0.245983 5.60267e-21)
(-1.00451 0.429672 -2.44329e-22)
(-0.0281792 0.0190099 0)
(-0.617448 -0.255893 -1.60968e-20)
(-0.803286 0.595867 6.39627e-21)
(-0.264363 0.044633 -3.55713e-21)
(-0.786026 0.228812 -1.47088e-22)
(-0.657266 -0.250601 1.97104e-22)
(-0.013875 -0.00537359 1.87067e-20)
(-0.931022 0.457219 0)
(-1.11688 0.685637 1.59336e-20)
(-0.108495 0.0505787 1.16884e-20)
(-0.696503 -0.0136326 0)
(-0.013498 -0.00357476 -2.77229e-21)
(-0.61498 -0.267127 -8.79247e-21)
(-0.914288 0.415766 0)
(-0.775282 0.404513 1.56451e-20)
(-0.458576 0.280589 1.67268e-20)
(-0.507593 0.169215 7.99032e-23)
(-1.01909 0.58372 -2.65775e-21)
(-0.585424 0.0638739 -2.82734e-21)
(-0.241954 0.154336 -1.24776e-20)
(-0.363793 -0.0458373 2.2422e-20)
(-1.01935 0.36297 1.73544e-20)
(-0.550758 0.484791 0)
(-0.0759993 0.085042 0)
(-0.60976 -0.224595 -5.19539e-21)
(-1.13817 0.460325 0)
(-0.497129 -0.095966 0)
(-1.1594 0.478183 0)
(-0.294688 0.292472 0)
(-0.0474679 -0.0104305 0)
(-1.06261 0.695555 -5.32963e-21)
(-0.797596 -0.0657565 7.31429e-21)
(-1.0508 0.594128 0)
(-0.585694 0.0399323 1.39791e-21)
(-0.226563 0.15275 1.22096e-20)
(-0.739674 0.455784 0)
(-0.377237 0.17702 2.39854e-20)
(-0.635358 0.224202 0)
(-0.632473 -0.208796 -1.81369e-20)
(-1.13252 0.491962 4.97411e-21)
(-0.073438 0.0782196 0)
(-0.12022 0.0947588 -1.27422e-20)
(-0.647583 -0.0771102 6.08971e-22)
(-1.15003 0.614805 3.04497e-22)
(-1.00754 0.589414 0)
(-0.98182 0.573812 5.46341e-21)
(-0.0262696 -0.00330166 -6.90075e-21)
(-0.0220802 -0.00642774 -8.49033e-21)
(-0.766667 -0.158507 -5.31616e-21)
(-0.762745 -0.173471 4.37084e-21)
(-1.02581 0.480497 0)
(-0.468872 0.00871029 3.79742e-20)
(-0.35831 0.292686 1.31537e-20)
(-0.493757 -0.0491106 2.76056e-20)
(-1.11893 0.491496 0)
(-0.300652 0.274848 -1.44464e-20)
(-0.867791 0.442706 -1.27655e-20)
(-0.488354 0.11012 9.79519e-21)
(-0.405281 0.27732 2.05137e-20)
(-0.636434 -0.237363 1.2152e-20)
(-1.07632 0.469699 5.95104e-21)
(-0.617538 -0.243816 -5.81564e-21)
(-0.0440583 0.0411705 0)
(-1.08228 0.448346 -5.74221e-21)
(-0.0494659 0.0485765 0)
(-1.10592 0.611699 0)
(-0.601276 -0.00625759 0)
(-0.186257 0.137101 1.36221e-20)
(-1.11811 0.503718 8.48394e-21)
(-1.09058 0.491406 -1.57435e-20)
(-0.6506 -0.207648 7.97856e-21)
(-0.653628 -0.221245 -1.99743e-20)
(-0.0594017 0.0599909 1.88569e-20)
(-0.0476414 0.0441631 5.21108e-26)
(-1.10239 0.478752 0)
(-0.473036 -0.0496278 -2.53643e-20)
(-0.339938 0.31348 1.88167e-20)
(-0.986257 0.515245 1.17303e-20)
(-0.531665 0.0504101 -1.6991e-20)
(-0.290745 0.210497 0)
(-1.02989 0.657403 0)
(-0.0335193 -0.0113263 0)
(-0.800496 -0.104414 7.91911e-21)
(-1.02953 0.500277 8.60826e-21)
(-0.490124 0.0193162 -1.05592e-20)
(-0.330286 0.262853 -2.18988e-20)
(-0.912272 0.467582 5.07623e-21)
(-0.494378 0.0884118 -1.14833e-20)
(-0.376553 0.262119 1.19845e-20)
(-0.999565 0.607495 0)
(-0.0270146 -0.00814212 0)
(-0.785688 -0.143064 -1.08937e-20)
(-1.05468 0.615113 0)
(-0.613508 0.0459122 3.01922e-21)
(-0.199045 0.123147 -1.35767e-20)
(-0.389416 -0.124692 0)
(-1.12761 0.353205 0)
(-0.525133 0.52507 -7.14585e-22)
(-0.874181 0.713453 -7.06444e-22)
(-0.872876 0.204637 0)
(-0.220518 -0.0332519 2.60213e-20)
(-0.507413 -0.174337 1.20083e-20)
(-0.271705 0.306936 0)
(-1.21644 0.424983 0)
(-0.000942512 -0.0225885 -2.65275e-20)
(-0.479651 -0.202906 8.85931e-21)
(-0.552125 0.291737 -3.15776e-21)
(-1.04346 0.544803 0)
(-0.534873 0.0322566 1.04349e-20)
(-0.274103 0.20579 -1.12168e-20)
(-1.07422 0.655327 1.01909e-20)
(-0.0447474 0.00675813 3.59718e-20)
(-0.766521 -0.0991756 0)
(-0.26036 -0.0802994 -6.97278e-21)
(-0.971321 0.24387 -1.04189e-20)
(-0.800115 0.712628 -6.36643e-21)
(-0.727573 0.466288 0)
(-0.00540643 -0.026174 -9.96679e-21)
(-0.700973 -0.201543 0)
(-0.551008 0.419851 1.25914e-20)
(-0.566606 0.446678 -1.28971e-20)
(-0.377446 0.0526683 0)
(-0.882246 0.362846 1.103e-20)
(-0.363326 0.028894 -2.10706e-20)
(-0.90974 0.35348 -8.88634e-21)
(-0.857903 0.419842 1.20012e-20)
(-0.461024 0.107834 1.29093e-20)
(-0.447201 0.312118 0)
(-0.641134 0.478145 1.10528e-20)
(-0.594987 0.444853 0)
(-0.34054 0.0603429 -1.16552e-20)
(-0.832082 0.312703 9.94996e-21)
(-0.363285 0.0699882 1.17413e-20)
(-0.837807 0.334221 9.58058e-23)
(-1.0177 0.537604 7.40972e-22)
(-0.509944 0.056052 -7.3642e-21)
(-0.326962 0.239681 -1.47892e-20)
(-0.991267 0.500418 -2.01176e-20)
(-0.494826 0.0448498 1.95142e-22)
(-0.344073 0.260386 0)
(-0.037771 0.0340555 0)
(-0.601002 -0.258773 0)
(-1.04374 0.423517 5.85294e-21)
(-0.844048 0.605857 -5.89277e-21)
(-0.755402 0.207006 0)
(-0.252944 0.0555802 6.58028e-21)
(-1.12333 0.532146 -1.59286e-20)
(-0.664321 -0.188421 9.15969e-21)
(-0.0615696 0.0608125 -1.07673e-20)
(-1.13566 0.565564 0)
(-1.15084 0.569411 9.3793e-21)
(-0.570348 -0.0460819 -3.45322e-21)
(-0.583521 -0.0615086 1.10881e-20)
(-0.203574 0.176845 -1.5006e-20)
(-0.185522 0.164951 -1.39391e-20)
(-0.834401 0.579524 0)
(-0.725659 0.202462 0)
(-0.267621 0.0790431 3.09652e-21)
(-0.989047 0.722631 6.76265e-21)
(-0.76758 0.128422 0)
(-0.172467 0.0112109 8.1581e-21)
(-1.09657 0.569021 -4.97327e-21)
(-0.558055 -0.0114366 0)
(-0.226119 0.184862 0)
(-0.661674 0.395411 1.22726e-20)
(-0.639743 0.262035 -6.11676e-21)
(-0.42611 0.195754 6.4687e-21)
(-1.16217 0.537253 0)
(-0.55792 -0.0830463 0)
(-0.211157 0.200341 -2.2416e-20)
(-0.733966 0.480107 0)
(-0.344525 0.135774 3.54879e-21)
(-0.688761 0.242292 0)
(-1.09764 0.50621 -1.14005e-20)
(-0.496758 -0.0325796 -1.41819e-20)
(-0.304881 0.267669 -1.87431e-21)
(-0.991294 0.699465 6.80184e-21)
(-0.739697 0.11936 0)
(-0.17549 0.0295054 1.67717e-20)
(-0.681395 0.423841 -1.2174e-20)
(-0.661808 0.424911 -5.43363e-21)
(-0.658969 0.255255 5.97194e-21)
(-0.397188 0.174203 -1.27674e-20)
(-0.696105 0.273261 0)
(-0.388514 0.153903 -2.28206e-20)
(-0.626839 0.436661 -5.51805e-21)
(-0.37068 0.103807 1.52012e-20)
(-0.597335 0.431808 3.55392e-21)
(-0.773946 0.30828 -1.34434e-20)
(-0.376906 0.085821 -7.29892e-21)
(-0.817724 0.334148 3.08585e-22)
(-0.906908 0.614605 6.33753e-21)
(-0.944151 0.617431 0)
(-0.694139 0.159149 1.27209e-20)
(-0.668922 0.136479 -9.92752e-21)
(-0.235836 0.0825719 -1.46228e-20)
(-0.229589 0.0950057 2.43328e-20)
(-0.0866627 0.0234424 0)
(-0.732381 -0.0190116 -5.75436e-21)
(-1.1102 0.706488 -9.32478e-21)
(-0.561399 0.543563 8.66069e-21)
(-1.09559 0.34301 1.14484e-20)
(-0.370771 -0.108252 -2.38347e-20)
(-0.0774016 0.0232392 -1.21478e-20)
(-0.0825375 0.0366272 9.68922e-21)
(-0.733526 -0.042164 4.97381e-21)
(-0.714189 -0.0526463 8.53354e-21)
(-1.11124 0.694124 2.3708e-20)
(-1.12264 0.676065 -1.23017e-20)
(-0.699009 0.616972 1.17478e-20)
(-0.300466 -0.0570772 -1.10248e-20)
(-0.977331 0.291839 2.64903e-21)
(-0.635979 0.349538 2.07678e-20)
(-0.489588 0.246761 0)
(-0.588817 0.26082 -2.08184e-20)
(-1.16296 0.554481 -4.45488e-21)
(-0.578414 -0.0818015 -1.25205e-20)
(-0.187213 0.174514 0)
(-0.787946 0.551473 0)
(-0.285822 0.0778844 -2.95197e-21)
(-0.741974 0.229695 -1.05902e-20)
(-1.01071 0.701189 0)
(-0.726599 0.105067 0)
(-0.167038 0.0358009 -1.56284e-20)
(-1.09457 0.733487 -1.02343e-20)
(-1.09956 0.71606 0)
(-0.74231 0.0182573 3.01626e-21)
(-0.102042 0.0154832 -1.48613e-20)
(-0.722139 0.0158211 -8.2315e-21)
(-0.108857 0.0301891 2.01053e-20)
(-1.12511 0.599681 9.33679e-21)
(-0.599512 -0.0261824 1.16336e-20)
(-0.178156 0.140653 8.16911e-21)
(-0.803278 0.49116 6.21968e-21)
(-0.727533 -0.202809 0)