/*--------------------------------*- C++ -*----------------------------------*\
  =========                 |
  \\      /  F ield         | OpenFOAM: The Open Source CFD Toolbox
   \\    /   O peration     | Website:  https://openfoam.org
    \\  /    A nd           | Version:  6
     \\/     M anipulation  |
\*---------------------------------------------------------------------------*/
FoamFile
{
    version     2.0;
    format      ascii;
    class       volVectorField;
    location    "0";
    object      U;
}
// * * * * * * * * * * * * * * * * * * * * * * * * * * * * * * * * * * * * * //

dimensions      [0 1 -1 0 0 0 0];

internalField   nonuniform List<vector> 
11644
(
(1.00009 -0.000294049 0)
(1.00004 -0.000866607 0)
(1.00004 -0.00142019 0)
(1.00004 -0.001975 0)
(1.00004 -0.00253526 0)
(1.00004 -0.00309641 0)
(1.00004 -0.00365149 0)
(1.00004 -0.0041905 0)
(1.00004 -0.00469899 0)
(1.00003 -0.00515701 0)
(1.00003 -0.00553849 0)
(1.00002 -0.00581128 0)
(1.00001 -0.0059383 0)
(0.999995 -0.00588042 0)
(0.999976 -0.00560152 0)
(0.999954 -0.00507558 0)
(0.99993 -0.00429378 0)
(0.999908 -0.00327139 0)
(0.99989 -0.00205071 0)
(0.99988 -0.000698906 3.76638e-30)
(0.99988 0.000698812 -3.76638e-30)
(0.99989 0.00205062 0)
(0.999908 0.00327131 0)
(0.99993 0.00429371 0)
(0.999954 0.00507552 0)
(0.999976 0.00560147 0)
(0.999995 0.00588038 0)
(1.00001 0.00593827 0)
(1.00002 0.00581126 0)
(1.00003 0.00553848 0)
(1.00003 0.005157 0)
(1.00004 0.00469899 0)
(1.00004 0.0041905 0)
(1.00004 0.00365149 0)
(1.00004 0.00309641 0)
(1.00004 0.00253527 0)
(1.00004 0.001975 0)
(1.00004 0.00142019 0)
(1.00004 0.000866608 0)
(1.00009 0.00029405 0)
(1.00165 -0.000859835 0)
(1.00155 -0.00256042 0)
(1.00155 -0.00423654 0)
(1.00157 -0.00591613 0)
(1.00158 -0.00760667 0)
(1.00157 -0.00930023 0)
(1.00155 -0.0109794 0)
(1.00149 -0.0126161 0)
(1.00139 -0.0141682 0)
(1.00123 -0.0155765 0)
(1.00098 -0.016762 0)
(1.00064 -0.0176262 0)
(1.00018 -0.018054 0)
(0.99961 -0.0179231 0)
(0.998936 -0.0171187 0)
(0.9982 -0.0155532 0)
(0.99746 -0.0131922 0)
(0.996796 -0.0100742 0)
(0.99629 -0.00632548 0)
(0.996016 -0.00215761 -1.55155e-29)
(0.996016 0.00215733 1.55155e-29)
(0.99629 0.0063252 0)
(0.996796 0.0100739 0)
(0.99746 0.013192 0)
(0.9982 0.015553 0)
(0.998936 0.0171185 0)
(0.99961 0.017923 0)
(1.00018 0.0180539 0)
(1.00064 0.0176262 0)
(1.00098 0.016762 0)
(1.00123 0.0155764 0)
(1.00139 0.0141682 0)
(1.00149 0.0126161 0)
(1.00155 0.0109794 0)
(1.00157 0.00930024 0)
(1.00158 0.00760668 0)
(1.00157 0.00591614 0)
(1.00155 0.00423655 0)
(1.00155 0.00256042 0)
(1.00165 0.000859837 0)
(1.00469 -0.00141234 0)
(1.00456 -0.00422564 0)
(1.00456 -0.0070273 0)
(1.0046 -0.00984315 0)
(1.00463 -0.012683 0)
(1.00462 -0.0155393 0)
(1.00456 -0.0183891 0)
(1.00441 -0.0211911 0)
(1.00413 -0.0238801 0)
(1.00366 -0.0263612 0)
(1.00295 -0.028504 0)
(1.00195 -0.0301401 0)
(1.00061 -0.031065 0)
(0.998926 -0.0310488 0)
(0.996925 -0.0298614 0)
(0.994709 -0.0273141 0)
(0.992458 -0.0233047 0)
(0.990411 -0.0178821 0)
(0.988841 -0.0112677 0)
(0.987986 -0.00385068 -3.21588e-29)
(0.987986 0.00385018 3.21588e-29)
(0.988841 0.0112673 0)
(0.990411 0.0178817 0)
(0.992458 0.0233043 0)
(0.994708 0.0273138 0)
(0.996925 0.0298612 0)
(0.998926 0.0310486 0)
(1.00061 0.0310649 0)
(1.00195 0.03014 0)
(1.00295 0.0285039 0)
(1.00366 0.0263611 0)
(1.00413 0.0238801 0)
(1.00441 0.0211911 0)
(1.00456 0.0183891 0)
(1.00462 0.0155393 0)
(1.00463 0.012683 0)
(1.0046 0.00984317 0)
(1.00456 0.00702731 0)
(1.00456 0.00422565 0)
(1.00469 0.00141235 0)
(1.00925 -0.00195544 0)
(1.00912 -0.00586514 0)
(1.00914 -0.00978497 0)
(1.00921 -0.0137426 0)
(1.00929 -0.0177543 0)
(1.00931 -0.0218189 0)
(1.00923 -0.0259152 0)
(1.00899 -0.0299974 0)
(1.00848 -0.0339862 0)
(1.00762 -0.0377583 0)
(1.00629 -0.0411342 0)
(1.00435 -0.0438663 0)
(1.0017 -0.0456364 0)
(0.998288 -0.0460692 0)
(0.994159 -0.0447673 0)
(0.989528 -0.0413734 0)
(0.98474 -0.0356707 0)
(0.980337 -0.0276226 0)
(0.976913 -0.0175207 0)
(0.975032 -0.0060081 0)
(0.975032 0.00600736 0)
(0.976913 0.01752 0)
(0.980337 0.027622 0)
(0.98474 0.0356702 0)
(0.989528 0.0413729 0)
(0.994158 0.044767 0)
(0.998287 0.0460689 0)
(1.0017 0.0456362 0)
(1.00435 0.0438662 0)
(1.00629 0.0411342 0)
(1.00762 0.0377583 0)
(1.00848 0.0339862 0)
(1.00899 0.0299974 0)
(1.00923 0.0259152 0)
(1.00931 0.0218189 0)
(1.00929 0.0177543 0)
(1.00921 0.0137426 0)
(1.00914 0.00978499 0)
(1.00912 0.00586515 0)
(1.00925 0.00195545 0)
(1.0153 -0.00248292 0)
(1.01518 -0.0074592 0)
(1.01525 -0.0124754 0)
(1.01542 -0.0175684 0)
(1.01559 -0.0227681 0)
(1.01572 -0.028088 0)
(1.01569 -0.03352 0)
(1.01542 -0.0390271 0)
(1.01474 -0.044532 0)
(1.01349 -0.0499013 0)
(1.01144 -0.0549237 0)
(1.00835 -0.0592854 0)
(1.00399 -0.0625497 0)
(0.998231 -0.0641499 0)
(0.991066 -0.0634105 0)
(0.982726 -0.0596358 0)
(0.973922 -0.0521798 0)
(0.965475 -0.0409305 0)
(0.958769 -0.0262204 0)
(0.955043 -0.00903917 -7.38637e-29)
(0.955043 0.00903812 7.38637e-29)
(0.958769 0.0262194 0)
(0.965475 0.0409296 0)
(0.973922 0.0521791 0)
(0.982725 0.0596352 0)
(0.991066 0.0634101 0)
(0.998231 0.0641496 0)
(1.00399 0.0625495 0)
(1.00835 0.0592854 0)
(1.01144 0.0549236 0)
(1.01349 0.0499013 0)
(1.01474 0.0445321 0)
(1.01542 0.0390272 0)
(1.01569 0.03352 0)
(1.01572 0.028088 0)
(1.01559 0.0227681 0)
(1.01542 0.0175684 0)
(1.01525 0.0124754 0)
(1.01518 0.00745922 0)
(1.0153 0.00248293 0)
(1.02275 -0.00298162 0)
(1.02269 -0.00896869 0)
(1.02286 -0.0150338 0)
(1.02319 -0.0212312 0)
(1.02357 -0.0276125 0)
(1.02391 -0.0342168 0)
(1.02409 -0.0410639 0)
(1.02396 -0.048146 0)
(1.02329 -0.0554142 0)
(1.02183 -0.0627587 0)
(1.01922 -0.0699743 0)
(1.01506 -0.0767025 0)
(1.00887 -0.0823606 0)
(1.00018 -0.0861164 0)
(0.98883 -0.0868239 0)
(0.975194 -0.0831888 0)
(0.959987 -0.0746636 0)
(0.945206 -0.0599083 0)
(0.933108 -0.0389913 0)
(0.92617 -0.0135569 -1.64906e-28)
(0.92617 0.0135555 1.64906e-28)
(0.933107 0.03899 0)
(0.945205 0.0599072 0)
(0.959987 0.0746626 0)
(0.975194 0.0831881 0)
(0.98883 0.0868234 0)
(1.00018 0.0861161 0)
(1.00887 0.0823605 0)
(1.01506 0.0767025 0)
(1.01922 0.0699743 0)
(1.02183 0.0627587 0)
(1.02329 0.0554143 0)
(1.02396 0.0481461 0)
(1.02409 0.041064 0)
(1.02391 0.0342168 0)
(1.02357 0.0276125 0)
(1.02319 0.0212313 0)
(1.02286 0.0150339 0)
(1.02269 0.00896871 0)
(1.02275 0.00298163 0)
(1.03151 -0.00343267 0)
(1.03154 -0.010337 0)
(1.03188 -0.0173649 0)
(1.03247 -0.0245941 0)
(1.0332 -0.0321062 0)
(1.03394 -0.0399772 0)
(1.03456 -0.0482715 0)
(1.03486 -0.0570344 0)
(1.03454 -0.0662802 0)
(1.03325 -0.0759725 0)
(1.03045 -0.0859863 0)
(1.02546 -0.096042 0)
(1.01738 -0.105528 0)
(1.00522 -0.113347 0)
(0.988971 -0.118242 0)
(0.967865 -0.118305 0)
(0.953369 -0.102707 0)
(0.929703 -0.0879216 0)
(0.908897 -0.0624793 0)
(0.894872 -0.0283805 -2.24442e-23)
(0.891683 0.0102453 0)
(0.900353 0.0472497 2.06778e-22)
(0.918157 0.0771904 0)
(0.940557 0.0976864 0)
(0.967864 0.118305 0)
(0.98897 0.118241 0)
(1.00522 0.113347 0)
(1.01738 0.105528 0)
(1.02546 0.096042 0)
(1.03045 0.0859864 0)
(1.03325 0.0759726 0)
(1.03454 0.0662803 0)
(1.03486 0.0570345 0)
(1.03456 0.0482717 0)
(1.03394 0.0399773 0)
(1.0332 0.0321063 0)
(1.03247 0.0245942 0)
(1.03189 0.017365 0)
(1.03154 0.0103371 0)
(1.03151 0.00343268 0)
(1.04141 -0.00381276 0)
(1.04158 -0.0114934 0)
(1.04219 -0.0193467 0)
(1.04316 -0.0274775 0)
(1.0444 -0.0360026 0)
(1.04578 -0.0450445 0)
(1.04715 -0.0547274 0)
(1.04828 -0.0651739 0)
(1.04884 -0.0765033 0)
(1.04839 -0.0888273 0)
(1.04627 -0.102222 0)
(1.04159 -0.116615 0)
(1.03319 -0.131569 0)
(1.01828 -0.136237 0)
(1.00001 -0.146649 0)
(0.974031 -0.15345 0)
(0.939338 -0.150594 0)
(0.89927 -0.134435 0)
(0.859512 -0.100326 0)
(0.831177 -0.047399 2.61398e-23)
(0.82482 0.0161644 0)
(0.843179 0.0759688 -2.61405e-23)
(0.878719 0.119935 0)
(0.919939 0.1443 0)
(0.956973 0.154145 0)
(0.98741 0.150823 0)
(1.00943 0.141672 0)
(1.03319 0.131569 0)
(1.04159 0.116616 0)
(1.04627 0.102223 0)
(1.04839 0.0888276 0)
(1.04884 0.0765035 0)
(1.04828 0.0651741 0)
(1.04715 0.0547276 0)
(1.04578 0.0450447 0)
(1.0444 0.0360028 0)
(1.04316 0.0274776 0)
(1.04219 0.0193468 0)
(1.04158 0.0114935 0)
(1.04141 0.00381277 0)
(1.05225 -0.0040962 0)
(1.05261 -0.012359 0)
(1.05355 -0.0208408 0)
(1.05504 -0.0296722 0)
(1.05698 -0.0390053 0)
(1.05926 -0.0490112 0)
(1.06174 -0.0598807 0)
(1.0642 -0.0718286 0)
(1.06633 -0.0851026 0)
(1.06766 -0.100007 0)
(1.06753 -0.116926 0)
(1.06495 -0.136222 0)
(1.05835 -0.15791 0)
(1.04034 -0.169356 0)
(1.01976 -0.190515 0)
(0.985729 -0.21129 0)
(0.941208 -0.212935 0)
(0.878501 -0.207216 0)
(0.805823 -0.170743 4.646e-23)
(0.744306 -0.0932738 0)
(0.723709 0.0142136 -2.75917e-23)
(0.756547 0.116829 0)
(0.823567 0.183918 -3.49504e-22)
(0.895249 0.211172 0)
(0.954164 0.211672 0)
(1.00475 0.201325 0)
(1.03153 0.17965 0)
(1.05835 0.157911 0)
(1.06495 0.136222 0)
(1.06753 0.116927 0)
(1.06766 0.100008 0)
(1.06633 0.085103 0)
(1.0642 0.0718289 0)
(1.06174 0.059881 0)
(1.05926 0.0490114 0)
(1.05698 0.0390054 0)
(1.05504 0.0296723 0)
(1.05355 0.0208409 0)
(1.05261 0.012359 0)
(1.05225 0.00409622 0)
(1.06372 -0.00425867 0)
(1.06432 -0.0128583 0)
(1.06567 -0.0217126 0)
(1.06778 -0.0309701 0)
(1.07058 -0.0408102 0)
(1.07402 -0.0514436 0)
(1.07796 -0.0631182 0)
(1.08227 -0.0761317 0)
(1.08669 -0.0908501 0)
(1.09086 -0.10775 0)
(1.09427 -0.127497 0)
(1.09612 -0.150986 0)
(1.09505 -0.179238 0)
(1.07773 -0.20067 0)
(1.06177 -0.236149 0)
(1.02587 -0.267091 0)
(0.969725 -0.300364 0)
(0.876251 -0.329324 0)
(0.735995 -0.312952 2.21238e-22)
(0.582427 -0.198867 0)
(0.516307 0.0145657 4.9771e-22)
(0.599331 0.21963 5.65046e-22)
(0.755681 0.319309 -2.06087e-22)
(0.890555 0.327204 0)
(0.986313 0.298807 0)
(1.04795 0.257376 0)
(1.07151 0.216973 0)
(1.09505 0.179239 0)
(1.09612 0.150987 0)
(1.09427 0.127498 0)
(1.09086 0.10775 0)
(1.08669 0.0908505 0)
(1.08227 0.0761321 0)
(1.07796 0.0631185 0)
(1.07402 0.0514438 0)
(1.07058 0.0408104 0)
(1.06778 0.0309702 0)
(1.06567 0.0217127 0)
(1.06432 0.0128583 0)
(1.06372 0.00425869 0)
(1.07547 -0.00428174 0)
(1.07633 -0.0129335 0)
(1.07814 -0.0218564 0)
(1.08094 -0.0312035 0)
(1.08473 -0.0411644 0)
(1.08947 -0.0519664 0)
(1.09513 -0.0638848 0)
(1.10165 -0.0772601 0)
(1.10892 -0.0925216 0)
(1.1168 -0.110225 0)
(1.12504 -0.13115 0)
(1.1334 -0.156501 0)
(1.1415 -0.188337 0)
(1.13081 -0.219931 0)
(1.13013 -0.267434 0)
(1.10581 -0.323355 0)
(1.0589 -0.398164 5.20128e-24)
(0.946678 -0.493532 -6.54522e-23)
(0.687284 -0.52763 -4.12088e-22)
(0.272607 -0.342995 -1.51829e-20)
(0.0740103 0.0107466 0)
(0.297181 0.362961 -3.31093e-21)
(0.709668 0.529985 4.35291e-22)
(0.967254 0.482168 1.82997e-23)
(1.07852 0.384403 -1.20511e-24)
(1.1257 0.298861 0)
(1.13174 0.240905 0)
(1.1415 0.188338 0)
(1.1334 0.156502 0)
(1.12504 0.131151 0)
(1.1168 0.110226 0)
(1.10892 0.0925221 0)
(1.10165 0.0772605 0)
(1.09513 0.0638851 0)
(1.08947 0.0519667 0)
(1.08473 0.0411646 0)
(1.08095 0.0312037 0)
(1.07814 0.0218565 0)
(1.07633 0.0129335 0)
(1.07547 0.00428176 0)
(1.0871 -0.00415795 0)
(1.08823 -0.0125605 0)
(1.09051 -0.0212263 0)
(1.09402 -0.030296 0)
(1.0988 -0.0399465 0)
(1.10488 -0.0503909 0)
(1.1123 -0.0618868 0)
(1.12113 -0.0747527 0)
(1.13142 -0.0893859 0)
(1.14327 -0.106274 0)
(1.15685 -0.126033 0)
(1.17248 -0.14966 0)
(1.19087 -0.179369 0)
(1.19181 -0.215708 0)
(1.21192 -0.261575 0)
(1.21179 -0.323054 0)
(1.18564 -0.392631 -2.43742e-23)
(1.02202 -0.422512 2.38294e-22)
(0.321549 -0.170371 -8.93489e-21)
(0.397003 0.205381 2.06319e-21)
(1.04977 0.417341 3.61001e-23)
(1.20174 0.373725 0)
(1.22043 0.291257 0)
(1.20214 0.235836 0)
(1.19087 0.17937 0)
(1.17248 0.149661 0)
(1.15685 0.126034 0)
(1.14327 0.106274 0)
(1.13142 0.0893865 0)
(1.12113 0.0747531 0)
(1.1123 0.0618871 0)
(1.10488 0.0503911 0)
(1.0988 0.0399467 0)
(1.09402 0.0302962 0)
(1.09051 0.0212264 0)
(1.08823 0.0125606 0)
(1.0871 0.00415798 0)
(1.09822 -0.00389408 0)
(1.09959 -0.0117595 0)
(1.1023 -0.0198552 0)
(1.10645 -0.0282934 0)
(1.11212 -0.0372156 0)
(1.1194 -0.0467895 0)
(1.12839 -0.05721 0)
(1.13923 -0.0687067 0)
(1.15212 -0.0815491 0)
(1.16734 -0.0960289 0)
(1.18527 -0.112437 0)
(1.20653 -0.131235 0)
(1.23181 -0.153705 0)
(1.24337 -0.185346 0)
(1.27001 -0.211829 0)
(1.26799 -0.240437 0)
(1.18122 -0.225564 0)
(0.819072 -0.104276 3.98166e-22)
(0.0120621 0.00225068 4.66258e-20)
(0.0382134 -0.00603945 -1.90128e-20)
(0.85572 0.115764 0)
(1.20951 0.225847 0)
(1.27564 0.223367 0)
(1.25778 0.197757 0)
(1.23181 0.153706 0)
(1.20653 0.131236 0)
(1.18527 0.112437 0)
(1.16734 0.0960295 0)
(1.15212 0.0815496 0)
(1.13923 0.0687071 0)
(1.12839 0.0572103 0)
(1.1194 0.0467898 0)
(1.11212 0.0372158 0)
(1.10645 0.0282935 0)
(1.1023 0.0198553 0)
(1.09959 0.0117596 0)
(1.09822 0.0038941 0)
(1.10844 -0.00351151 0)
(1.11002 -0.0105961 0)
(1.11308 -0.017859 0)
(1.11773 -0.0253735 0)
(1.1241 -0.0332321 0)
(1.13228 -0.0415389 0)
(1.14241 -0.0504048 0)
(1.15467 -0.0599441 0)
(1.1693 -0.070268 0)
(1.18661 -0.0814512 0)
(1.20697 -0.0934741 0)
(1.23065 -0.106265 0)
(1.25673 -0.11974 0)
(1.27101 -0.140207 0)
(1.28042 -0.142907 0)
(1.23801 -0.133611 0)
(1.05448 -0.0733807 0)
(0.613398 0.0255322 5.02335e-24)
(0.13754 0.0347892 0)
(0.161176 -0.0381259 1.56895e-21)
(0.679349 -0.0153681 0)
(1.10279 0.084481 0)
(1.26428 0.135957 0)
(1.27988 0.142778 0)
(1.25673 0.119741 0)
(1.23065 0.106266 0)
(1.20697 0.0934747 0)
(1.18661 0.0814517 0)
(1.1693 0.0702685 0)
(1.15468 0.0599445 0)
(1.14241 0.0504051 0)
(1.13228 0.0415391 0)
(1.1241 0.0332322 0)
(1.11773 0.0253737 0)
(1.11308 0.0178591 0)
(1.11002 0.0105962 0)
(1.10844 0.00351153 0)
(1.11748 -0.0030427 0)
(1.11921 -0.00917058 0)
(1.1225 -0.0154156 0)
(1.12749 -0.0218101 0)
(1.13429 -0.0283946 0)
(1.14301 -0.0352087 0)
(1.15377 -0.0422813 0)
(1.16674 -0.0496206 0)
(1.18209 -0.0571972 0)
(1.20002 -0.0649021 0)
(1.2206 -0.0724768 0)
(1.24317 -0.0794704 0)
(1.26459 -0.084838 0)
(1.27438 -0.094014 0)
(1.25569 -0.0804159 0)
(1.17002 -0.0539423 0)
(0.943614 0.000347944 0)
(0.556816 0.0478426 -4.84584e-23)
(0.195296 0.0358425 -1.65945e-24)
(0.0123345 0.00116655 -9.86274e-23)
(-0.024454 0.000347718 -3.723e-23)
(0.0251422 -0.00402024 -1.55087e-21)
(0.23212 -0.0402161 -8.12977e-22)
(0.608327 -0.0447626 4.84592e-23)
(0.997964 0.00889488 0)
(1.21579 0.0645313 0)
(1.27228 0.0892765 0)
(1.26459 0.0848382 0)
(1.24317 0.0794707 0)
(1.2206 0.0724771 0)
(1.20002 0.0649024 0)
(1.18209 0.0571975 0)
(1.16674 0.0496208 0)
(1.15377 0.0422815 0)
(1.14301 0.0352088 0)
(1.13429 0.0283947 0)
(1.12749 0.0218102 0)
(1.1225 0.0154157 0)
(1.11921 0.00917063 0)
(1.11748 0.00304272 0)
(1.12514 -0.00252479 0)
(1.12696 -0.00759743 0)
(1.13038 -0.0127269 0)
(1.13552 -0.0179098 0)
(1.14249 -0.0231415 0)
(1.15138 -0.0284083 0)
(1.1623 -0.033677 0)
(1.17533 -0.0388823 0)
(1.19056 -0.0439064 0)
(1.20801 -0.0485372 0)
(1.22734 -0.0523974 0)
(1.24704 -0.0547906 0)
(1.26193 -0.0537915 0)
(1.26151 -0.0542012 0)
(1.21715 -0.0334457 0)
(1.07285 0.00639466 0)
(0.851673 0.0400333 0)
(0.518459 0.0624767 0)
(0.220761 0.0503141 3.63555e-23)
(0.0396626 0.0224519 -1.47047e-22)
(-0.00879042 -0.00305475 0)
(0.0723482 -0.0295025 0)
(0.286148 -0.0559015 -6.52693e-22)
(0.602958 -0.0602114 0)
(0.926852 -0.0301814 0)
(1.16122 0.0158589 0)
(1.24892 0.0459536 0)
(1.26193 0.0537914 0)
(1.24704 0.0547906 0)
(1.22734 0.0523975 0)
(1.20801 0.0485373 0)
(1.19056 0.0439065 0)
(1.17533 0.0388824 0)
(1.1623 0.0336772 0)
(1.15139 0.0284085 0)
(1.14249 0.0231416 0)
(1.13552 0.0179099 0)
(1.13038 0.012727 0)
(1.12696 0.00759747 0)
(1.12514 0.00252481 0)
(1.13133 -0.00199291 0)
(1.13319 -0.00598439 0)
(1.13663 -0.0099804 0)
(1.14177 -0.0139505 0)
(1.14869 -0.0178564 0)
(1.15748 -0.021646 0)
(1.16817 -0.0252446 0)
(1.18081 -0.0285415 0)
(1.19537 -0.0313655 0)
(1.21163 -0.0334253 0)
(1.22875 -0.034191 0)
(1.244 -0.0326947 0)
(1.24922 -0.0271618 0)
(1.22329 -0.0120863 0)
(1.17441 0.00121117 0)
(1.02022 0.0346965 0)
(0.808111 0.0589772 0)
(0.516102 0.0709288 0)
(0.252117 0.0583225 0)
(0.0811946 0.0296531 0)
(0.0327951 -0.00430486 7.77495e-24)
(0.11307 -0.0376452 -2.53585e-22)
(0.31127 -0.0634783 0)
(0.589769 -0.0702456 0)
(0.904627 -0.0508959 0)
(1.11075 -0.0173867 0)
(1.22329 0.0120856 0)
(1.24922 0.0271614 0)
(1.244 0.0326945 0)
(1.22876 0.034191 0)
(1.21163 0.0334253 0)
(1.19537 0.0313656 0)
(1.18081 0.0285415 0)
(1.16817 0.0252447 0)
(1.15748 0.0216461 0)
(1.14869 0.0178565 0)
(1.14177 0.0139506 0)
(1.13663 0.00998045 0)
(1.13319 0.00598443 0)
(1.13133 0.00199293 0)
(1.13606 -0.00147562 0)
(1.1379 -0.00441842 0)
(1.14128 -0.00732483 0)
(1.14631 -0.0101467 0)
(1.15303 -0.0128235 0)
(1.16151 -0.0152792 0)
(1.17174 -0.0174148 0)
(1.18369 -0.0190958 0)
(1.19722 -0.0201258 0)
(1.21184 -0.0201805 0)
(1.22617 -0.0186786 0)
(1.2363 -0.0146101 0)
(1.23263 -0.00634292 0)
(1.19604 0.00943348 0)
(1.13531 0.0241462 0)
(0.980124 0.0512969 0)
(0.781971 0.0692403 0)
(0.519585 0.0746544 0)
(0.283027 0.0604576 0)
(0.126641 0.031321 0)
(0.0816132 -0.00459025 0)
(0.156098 -0.0395582 0)
(0.336403 -0.0657077 0)
(0.585279 -0.0751141 0)
(0.871719 -0.0633566 0)
(1.06874 -0.0376113 0)
(1.19604 -0.00943431 0)
(1.23263 0.00634242 0)
(1.2363 0.0146099 0)
(1.22617 0.0186785 0)
(1.21185 0.0201804 0)
(1.19722 0.0201258 0)
(1.18369 0.0190959 0)
(1.17174 0.0174148 0)
(1.16151 0.0152792 0)
(1.15303 0.0128236 0)
(1.14631 0.0101468 0)
(1.14128 0.00732487 0)
(1.1379 0.00441845 0)
(1.13606 0.00147563 0)
(1.1394 -0.000993368 0)
(1.14119 -0.00296135 0)
(1.14446 -0.00486412 0)
(1.14929 -0.0066442 0)
(1.15571 -0.00822916 0)
(1.16375 -0.00953155 0)
(1.17338 -0.010443 0)
(1.18448 -0.0108225 0)
(1.19679 -0.0104702 0)
(1.20958 -0.00906315 0)
(1.22094 -0.00602882 0)
(1.22614 -0.000391032 0)
(1.21506 0.00929319 0)
(1.17007 0.0250929 0)
(1.10201 0.0391924 0)
(0.94928 0.0607166 0)
(0.765076 0.0738389 0)
(0.527562 0.0750265 0)
(0.314302 0.0595761 0)
(0.172346 0.0308141 0)
(0.131228 -0.00452035 0)
(0.199179 -0.0389081 0)
(0.362517 -0.0649072 0)
(0.586765 -0.0762686 0)
(0.848055 -0.0696191 0)
(1.03463 -0.0500744 0)
(1.17007 -0.0250938 0)
(1.21506 -0.00929372 0)
(1.22614 0.000390721 0)
(1.22094 0.00602866 0)
(1.20958 0.00906309 0)
(1.19679 0.0104702 0)
(1.18448 0.0108225 0)
(1.17338 0.010443 0)
(1.16375 0.00953161 0)
(1.15571 0.00822922 0)
(1.14929 0.00664425 0)
(1.14446 0.00486416 0)
(1.14119 0.00296137 0)
(1.1394 0.000993376 0)
(1.14147 -0.000558919 0)
(1.14319 -0.0016513 0)
(1.14632 -0.00266088 0)
(1.1509 -0.00352735 0)
(1.15697 -0.00417481 0)
(1.16452 -0.00451344 0)
(1.17347 -0.00443515 0)
(1.18367 -0.00380157 0)
(1.19472 -0.00241641 0)
(1.20563 3.62925e-05 0)
(1.21406 0.00410363 0)
(1.21472 0.0106846 0)
(1.19728 0.0209957 0)
(1.14553 0.0361801 0)
(1.07427 0.0488531 0)
(0.926061 0.0656428 0)
(0.754669 0.0749896 0)
(0.538549 0.0732918 0)
(0.345424 0.0572133 0)
(0.216608 0.029429 0)
(0.17921 -0.00431351 0)
(0.240991 -0.0371879 0)
(0.389101 -0.0625092 0)
(0.592221 -0.0750488 0)
(0.831529 -0.0720747 0)
(1.00767 -0.0574951 0)
(1.14553 -0.0361809 0)
(1.19728 -0.0209962 0)
(1.21472 -0.0106849 0)
(1.21406 -0.00410376 0)
(1.20563 -3.63339e-05 0)
(1.19472 0.00241642 0)
(1.18367 0.00380161 0)
(1.17347 0.00443522 0)
(1.16452 0.00451351 0)
(1.15697 0.00417487 0)
(1.1509 0.0035274 0)
(1.14632 0.00266092 0)
(1.14319 0.00165133 0)
(1.14147 0.000558928 0)
(1.14243 -0.000178472 0)
(1.14405 -0.000506388 0)
(1.14702 -0.000743177 0)
(1.15135 -0.000830354 0)
(1.15705 -0.00069418 0)
(1.16409 -0.000248328 0)
(1.17237 0.000609646 0)
(1.18167 0.00201099 0)
(1.19147 0.00414476 0)
(1.20056 0.00731447 0)
(1.20623 0.0120175 0)
(1.20291 0.0189909 0)
(1.18062 0.0291186 0)
(1.12543 0.0435869 0)
(1.05104 0.0547203 0)
(0.909406 0.067222 0)
(0.748509 0.0742742 0)
(0.551142 0.0704508 0)
(0.375559 0.0542449 0)
(0.258549 0.0277588 0)
(0.224681 -0.0040518 -3.68107e-33)
(0.281054 -0.0350815 0)
(0.415829 -0.0593879 0)
(0.600731 -0.0725296 0)
(0.820889 -0.0720327 0)
(0.987916 -0.0612289 0)
(1.12543 -0.0435875 0)
(1.18062 -0.029119 0)
(1.20291 -0.018991 0)
(1.20623 -0.0120175 0)
(1.20056 -0.00731444 0)
(1.19147 -0.0041447 0)
(1.18167 -0.0020109 0)
(1.17237 -0.000609551 0)
(1.16409 0.00024842 0)
(1.15705 0.000694263 0)
(1.15135 0.000830422 0)
(1.14702 0.000743227 0)
(1.14405 0.000506419 0)
(1.14243 0.000178482 0)
(1.14241 0.000146892 0)
(1.14395 0.000470813 0)
(1.14675 0.000887133 0)
(1.15083 0.00144967 0)
(1.15616 0.00222651 0)
(1.16272 0.00329715 0)
(1.17036 0.00475567 0)
(1.1788 0.00672379 0)
(1.18742 0.00937967 0)
(1.19479 0.0130081 0)
(1.19795 0.0180591 0)
(1.19116 0.0251558 0)
(1.16485 0.034948 0)
(1.10606 0.0475898 0)
(0.999927 0.0611305 0)
(0.893042 0.0682549 0)
(0.723994 0.0716377 0)
(0.545107 0.0652616 0)
(0.3918 0.0480656 0)
(0.295024 0.0223203 0)
(0.274823 -0.00751193 9.38464e-34)
(0.335404 -0.0359512 0)
(0.464184 -0.0578682 0)
(0.634789 -0.0697918 0)
(0.813466 -0.0707128 0)
(0.999922 -0.061131 0)
(1.10606 -0.0475901 0)
(1.16485 -0.0349482 0)
(1.19116 -0.0251558 0)
(1.19795 -0.018059 0)
(1.19479 -0.013008 0)
(1.18742 -0.00937952 0)
(1.1788 -0.00672364 0)
(1.17036 -0.00475553 0)
(1.16272 -0.00329702 0)
(1.15617 -0.0022264 0)
(1.15083 -0.00144958 0)
(1.14676 -0.000887069 0)
(1.14395 -0.000470775 0)
(1.14242 -0.000146879 0)
(1.14159 0.00041975 0)
(1.14303 0.00128869 0)
(1.14568 0.00224637 0)
(1.14951 0.0033405 0)
(1.15451 0.00463172 0)
(1.16062 0.00619119 0)
(1.16767 0.0081039 0)
(1.17532 0.0104819 0)
(1.18285 0.013492 0)
(1.18865 0.0173985 0)
(1.18956 0.0226017 0)
(1.17979 0.0296094 0)
(1.15027 0.0388473 0)
(1.08935 0.0501576 0)
(0.986764 0.0612265 0)
(0.847375 0.0677917 0)
(0.68675 0.067419 0)
(0.52835 0.0578637 0)
(0.401102 0.0392021 0)
(0.330251 0.0138794 -1.62577e-33)
(0.330249 -0.0138798 1.62577e-33)
(0.401098 -0.0392024 0)
(0.528344 -0.057864 0)
(0.686744 -0.0674193 0)
(0.847369 -0.0677919 0)
(0.98676 -0.0612266 0)
(1.08935 -0.0501576 0)
(1.15027 -0.0388472 0)
(1.17979 -0.0296092 0)
(1.18956 -0.0226014 0)
(1.18865 -0.0173983 0)
(1.18285 -0.0134917 0)
(1.17533 -0.0104817 0)
(1.16767 -0.00810369 0)
(1.16062 -0.00619102 0)
(1.15452 -0.00463157 0)
(1.14952 -0.00334038 0)
(1.14568 -0.00224629 0)
(1.14303 -0.00128864 0)
(1.14159 -0.000419734 0)
(1.14009 0.000645072 0)
(1.14145 0.00196276 0)
(1.14395 0.00336241 0)
(1.14757 0.00488523 0)
(1.15226 0.00658393 0)
(1.15796 0.00852115 0)
(1.16448 0.0107733 0)
(1.17143 0.0134437 0)
(1.17795 0.0166883 0)
(1.18233 0.0207503 0)
(1.18125 0.0259795 0)
(1.16899 0.0327771 0)
(1.13702 0.0413808 0)
(1.0752 0.0513772 0)
(0.976075 0.0605896 0)
(0.843852 0.0655731 0)
(0.693477 0.0640156 0)
(0.547141 0.0543075 0)
(0.430607 0.0365504 0)
(0.366038 0.0129022 -1.77901e-34)
(0.366036 -0.012902 1.77901e-34)
(0.430603 -0.0365502 0)
(0.547135 -0.0543073 0)
(0.693471 -0.0640153 0)
(0.843846 -0.0655729 0)
(0.976071 -0.0605893 0)
(1.0752 -0.0513768 0)
(1.13702 -0.0413804 0)
(1.16899 -0.0327767 0)
(1.18125 -0.0259791 0)
(1.18233 -0.0207499 0)
(1.17795 -0.0166879 0)
(1.17143 -0.0134433 0)
(1.16448 -0.010773 0)
(1.15796 -0.00852092 0)
(1.15226 -0.00658375 0)
(1.14757 -0.0048851 0)
(1.14395 -0.00336231 0)
(1.14145 -0.0019627 0)
(1.14009 -0.000645053 0)
(1.13803 0.000829174 0)
(1.13932 0.00251247 0)
(1.14169 0.00426934 0)
(1.14511 0.00613476 0)
(1.14955 0.00815385 0)
(1.15489 0.0103814 0)
(1.16094 0.0128862 0)
(1.16724 0.0157644 0)
(1.17286 0.0191618 0)
(1.17596 0.0233006 0)
(1.17314 0.0284829 0)
(1.15881 0.0350151 0)
(1.12507 0.0429816 0)
(1.06315 0.0517969 0)
(0.967571 0.0594852 0)
(0.842445 0.06321 0)
(0.701612 0.0608301 0)
(0.565713 0.0510521 0)
(0.458056 0.0341083 0)
(0.398554 0.0119952 0)
(0.398552 -0.0119941 0)
(0.458052 -0.0341073 0)
(0.565708 -0.0510511 0)
(0.701606 -0.0608292 0)
(0.842439 -0.0632092 0)
(0.967567 -0.0594844 0)
(1.06315 -0.0517961 0)
(1.12506 -0.0429808 0)
(1.15881 -0.0350144 0)
(1.17314 -0.0284823 0)
(1.17596 -0.0233001 0)
(1.17286 -0.0191613 0)
(1.16724 -0.015764 0)
(1.16094 -0.0128859 0)
(1.15489 -0.0103811 0)
(1.14955 -0.00815363 0)
(1.14512 -0.0061346 0)
(1.14169 -0.00426923 0)
(1.13932 -0.0025124 0)
(1.13803 -0.000829153 0)
(1.13553 0.000978821 0)
(1.13675 0.00295853 0)
(1.13901 0.00500296 0)
(1.14227 0.00714153 0)
(1.14647 0.00941257 0)
(1.1515 0.0118641 0)
(1.15714 0.0145587 0)
(1.16286 0.0175862 0)
(1.16767 0.0210833 0)
(1.16961 0.0252515 0)
(1.16528 0.0303473 0)
(1.14926 0.0365934 0)
(1.11428 0.0439522 0)
(1.0528 0.0517379 0)
(0.960772 0.0581663 0)
(0.842299 0.060826 0)
(0.710217 0.0577883 0)
(0.583632 0.0480193 0)
(0.483788 0.0318673 0)
(0.428729 0.01117 0)
(0.428727 -0.0111679 0)
(0.483784 -0.0318653 0)
(0.583626 -0.0480175 0)
(0.710211 -0.0577866 0)
(0.842293 -0.0608245 0)
(0.960767 -0.058165 0)
(1.0528 -0.0517367 0)
(1.11428 -0.0439512 0)
(1.14926 -0.0365924 0)
(1.16528 -0.0303465 0)
(1.16962 -0.0252508 0)
(1.16767 -0.0210827 0)
(1.16286 -0.0175857 0)
(1.15714 -0.0145583 0)
(1.15151 -0.0118638 0)
(1.14647 -0.00941233 0)
(1.14227 -0.00714135 0)
(1.13901 -0.00500284 0)
(1.13675 -0.00295846 0)
(1.13553 -0.000978798 0)
(1.13267 0.00110047 0)
(1.13382 0.00332064 0)
(1.13599 0.00559705 0)
(1.1391 0.00795443 0)
(1.14311 0.0104254 0)
(1.14787 0.0130524 0)
(1.15314 0.015893 0)
(1.15835 0.0190317 0)
(1.16241 0.0225959 0)
(1.16334 0.0267665 0)
(1.1577 0.0317562 0)
(1.14031 0.0377127 0)
(1.10453 0.0445027 0)
(1.04388 0.0513878 0)
(0.955363 0.056754 0)
(0.843117 0.0585182 0)
(0.719095 0.0549775 0)
(0.600944 0.0452999 0)
(0.508095 0.0298964 0)
(0.45699 0.0104512 -2.42733e-34)
(0.456989 -0.010448 2.42733e-34)
(0.508092 -0.0298935 0)
(0.600938 -0.0452972 0)
(0.719089 -0.0549751 0)
(0.843111 -0.0585161 0)
(0.955359 -0.0567522 0)
(1.04388 -0.0513863 0)
(1.10453 -0.0445014 0)
(1.14031 -0.0377116 0)
(1.1577 -0.0317553 0)
(1.16334 -0.0267657 0)
(1.16242 -0.0225953 0)
(1.15835 -0.0190312 0)
(1.15314 -0.0158926 0)
(1.14788 -0.0130521 0)
(1.14311 -0.0104252 0)
(1.1391 -0.00795425 0)
(1.13599 -0.00559693 0)
(1.13382 -0.00332057 0)
(1.13267 -0.00110044 0)
(1.12951 0.00119972 0)
(1.13061 0.00361585 0)
(1.13269 0.00608069 0)
(1.13569 0.00861531 0)
(1.13952 0.0112478 0)
(1.14405 0.0140162 0)
(1.14899 0.0169739 0)
(1.15373 0.0202006 0)
(1.15713 0.0238143 0)
(1.15714 0.0279746 0)
(1.15039 0.0328523 0)
(1.13193 0.0385285 0)
(1.09573 0.0447953 0)
(1.03619 0.0508939 0)
(0.95115 0.0553601 0)
(0.844764 0.0563769 0)
(0.728184 0.0524527 0)
(0.617698 0.04291 0)
(0.531138 0.0281873 0)
(0.483567 0.00983167 0)
(0.483566 -0.00982758 0)
(0.531135 -0.0281834 0)
(0.617693 -0.0429065 0)
(0.728178 -0.0524497 0)
(0.844759 -0.0563743 0)
(0.951146 -0.055358 0)
(1.03619 -0.0508921 0)
(1.09572 -0.0447939 0)
(1.13193 -0.0385273 0)
(1.15039 -0.0328514 0)
(1.15714 -0.0279738 0)
(1.15713 -0.0238136 0)
(1.15373 -0.0202001 0)
(1.14899 -0.0169735 0)
(1.14405 -0.0140159 0)
(1.13952 -0.0112476 0)
(1.13569 -0.00861515 0)
(1.13269 -0.00608058 0)
(1.13061 -0.00361579 0)
(1.12951 -0.0011997 0)
(1.12611 0.00128123 0)
(1.12717 0.00385817 0)
(1.12917 0.0064776 0)
(1.13206 0.00915796 0)
(1.13575 0.0119241 0)
(1.14008 0.0148108 0)
(1.14471 0.017868 0)
(1.14903 0.0211707 0)
(1.15183 0.0248269 0)
(1.15104 0.0289748 0)
(1.14334 0.0337452 0)
(1.12408 0.0391603 0)
(1.08775 0.0449551 0)
(1.02956 0.0503695 0)
(0.947962 0.0540698 0)
(0.847108 0.054458 0)
(0.737412 0.0502307 0)
(0.633924 0.0408328 0)
(0.553057 0.0267135 0)
(0.50867 0.0092994 0)
(0.508669 -0.00929462 0)
(0.553054 -0.026709 0)
(0.63392 -0.0408288 0)
(0.737408 -0.0502272 0)
(0.847104 -0.0544552 0)
(0.947959 -0.0540676 0)
(1.02956 -0.0503677 0)
(1.08775 -0.0449537 0)
(1.12408 -0.0391591 0)
(1.14334 -0.0337443 0)
(1.15104 -0.0289741 0)
(1.15183 -0.0248263 0)
(1.14903 -0.0211702 0)
(1.14472 -0.0178677 0)
(1.14008 -0.0148105 0)
(1.13575 -0.011924 0)
(1.13206 -0.00915783 0)
(1.12918 -0.00647751 0)
(1.12717 -0.00385812 0)
(1.12611 -0.00128122 0)
(1.12251 0.00134893 0)
(1.12353 0.00405943 0)
(1.12547 0.00680754 0)
(1.12827 0.00961023 0)
(1.13182 0.0124904 0)
(1.13596 0.0154803 0)
(1.14033 0.0186275 0)
(1.14426 0.022002 0)
(1.14651 0.0257016 0)
(1.14501 0.0298425 0)
(1.13653 0.0345176 0)
(1.1167 0.0396974 0)
(1.08051 0.0450731 0)
(1.02384 0.0498939 0)
(0.945645 0.0529393 0)
(0.85003 0.0527933 0)
(0.74673 0.0483165 0)
(0.64967 0.0390543 0)
(0.573997 0.0254569 0)
(0.532507 0.0088465 0)
(0.532506 -0.00884138 0)
(0.573995 -0.0254521 0)
(0.649667 -0.0390501 0)
(0.746726 -0.0483129 0)
(0.850026 -0.0527904 0)
(0.945642 -0.0529371 0)
(1.02384 -0.0498922 0)
(1.08051 -0.0450718 0)
(1.1167 -0.0396964 0)
(1.13653 -0.0345169 0)
(1.14501 -0.029842 0)
(1.14651 -0.0257012 0)
(1.14426 -0.0220017 0)
(1.14033 -0.0186272 0)
(1.13596 -0.0154801 0)
(1.13183 -0.0124902 0)
(1.12827 -0.00961015 0)
(1.12548 -0.00680749 0)
(1.12354 -0.00405941 0)
(1.12251 -0.00134892 0)
(1.11875 0.0014066 0)
(1.11974 0.00423096 0)
(1.12162 0.00708925 0)
(1.12433 0.00999806 0)
(1.12776 0.0129793 0)
(1.13172 0.0160641 0)
(1.13584 0.0192976 0)
(1.1394 0.0227453 0)
(1.14116 0.0264938 0)
(1.13904 0.0306378 0)
(1.12994 0.035234 0)
(1.10973 0.0402078 0)
(1.07391 0.0452159 0)
(1.0189 0.0495228 0)
(0.944071 0.0520058 0)
(0.85344 0.0514015 0)
(0.756117 0.0467111 0)
(0.665004 0.0375631 0)
(0.594109 0.0244045 0)
(0.555276 0.00846729 0)
(0.555275 -0.00846226 0)
(0.594107 -0.0243998 0)
(0.665001 -0.037559 0)
(0.756114 -0.0467077 0)
(0.853437 -0.0513989 0)
(0.94407 -0.0520039 0)
(1.0189 -0.0495215 0)
(1.07391 -0.0452149 0)
(1.10973 -0.0402071 0)
(1.12994 -0.0352336 0)
(1.13904 -0.0306375 0)
(1.14116 -0.0264936 0)
(1.13941 -0.0227451 0)
(1.13584 -0.0192975 0)
(1.13172 -0.016064 0)
(1.12776 -0.0129793 0)
(1.12433 -0.00999805 0)
(1.12162 -0.00708924 0)
(1.11974 -0.00423096 0)
(1.11875 -0.0014066 0)
(1.11484 0.00145828 0)
(1.1158 0.0043848 0)
(1.11763 0.00734265 0)
(1.12025 0.0103488 0)
(1.12357 0.0134251 0)
(1.12736 0.0166019 0)
(1.13124 0.0199229 0)
(1.13447 0.0234485 0)
(1.13577 0.0272544 0)
(1.13312 0.0314136 0)
(1.12352 0.0359491 0)
(1.10313 0.040746 0)
(1.06786 0.0454345 0)
(1.01464 0.0492965 0)
(0.943138 0.0512936 0)
(0.857274 0.0502906 0)
(0.765572 0.0454089 0)
(0.68 0.0363456 0)
(0.613536 0.0235428 0)
(0.57716 0.00815639 0)
(0.57716 -0.00815189 0)
(0.613535 -0.0235386 0)
(0.679998 -0.0363421 0)
(0.76557 -0.0454061 0)
(0.857273 -0.0502886 0)
(0.943138 -0.0512922 0)
(1.01464 -0.0492957 0)
(1.06786 -0.0454341 0)
(1.10313 -0.0407458 0)
(1.12352 -0.035949 0)