/*--------------------------------*- C++ -*----------------------------------*\
  =========                 |
  \\      /  F ield         | OpenFOAM: The Open Source CFD Toolbox
   \\    /   O peration     | Website:  https://openfoam.org
    \\  /    A nd           | Version:  6
     \\/     M anipulation  |
\*---------------------------------------------------------------------------*/
FoamFile
{
    version     2.0;
    format      ascii;
    class       volVectorField;
    location    "0";
    object      U;
}
// * * * * * * * * * * * * * * * * * * * * * * * * * * * * * * * * * * * * * //

dimensions      [0 1 -1 0 0 0 0];

internalField   nonuniform List<vector> 
13046
(
(0.286627 0.0292941 0)
(0.587097 -0.254546 1.73959e-21)
(0.236085 -0.15304 3.95439e-21)
(0.322794 -0.0380213 0)
(0.191703 -0.0930652 3.7482e-21)
(0.511834 -0.256882 0)
(0.3418 -0.0232983 -5.69199e-22)
(0.557651 -0.289202 -8.67405e-22)
(0.165006 -0.0788141 4.12005e-21)
(0.609225 0.227165 -1.7961e-21)
(0.915346 -0.448977 0)
(-0.00796347 0.00557942 -2.44542e-21)
(0.350487 0.0524399 3.71499e-21)
(0.683375 -0.319001 2.38571e-21)
(0.158451 -0.111707 -2.18618e-21)
(0.557983 0.252898 -9.16323e-22)
(0.0351186 -0.0348216 -3.81973e-21)
(0.969428 -0.396327 -2.4922e-22)
(0.207323 -0.0435605 0)
(0.397118 -0.223774 1.95122e-21)
(0.401019 -0.120135 -5.841e-21)
(0.567843 0.246889 1.01642e-21)
(0.0236545 -0.0249277 7.65015e-21)
(0.960671 -0.409034 -1.53106e-23)
(0.281085 -0.0233674 -2.41737e-21)
(0.50103 -0.223466 3.36002e-21)
(0.2449 -0.14031 0)
(0.348933 0.0746334 -4.57213e-23)
(0.704871 -0.316898 -7.13828e-22)
(0.166711 -0.123772 7.46724e-21)
(0.280304 0.047062 0)
(0.607783 -0.246627 0)
(0.248616 -0.170326 -4.02423e-21)
(0.275266 -0.0428723 8.43258e-21)
(0.265193 -0.144424 -1.37081e-21)
(0.453792 -0.197356 -5.19919e-21)
(0.291523 -0.062658 -1.21515e-23)
(0.26206 -0.128023 0)
(0.428554 -0.19225 0)
(0.213744 0.0629078 -3.12268e-21)
(0.396496 -0.287353 -3.48546e-21)
(0.575413 -0.173908 2.70715e-21)
(0.327737 -0.115303 -1.88248e-21)
(0.282879 -0.11235 1.93273e-21)
(0.347472 -0.156929 0)
(0.343851 -0.110915 -1.24216e-21)
(0.249662 -0.0902523 0)
(0.368763 -0.17926 6.06622e-22)
(0.3019 0.0240329 0)
(0.597749 -0.272005 1.22331e-22)
(0.202506 -0.132193 3.54607e-23)
(0.551485 -0.415208 -3.90657e-21)
(0.170281 0.088984 0)
(0.58933 -0.112814 3.12592e-21)
(0.603347 -0.450362 5.55443e-21)
(0.578378 -0.0940461 3.50854e-21)
(0.149684 0.0823003 -4.79148e-21)
(0.922286 -0.303244 3.72281e-22)
(0.439678 0.229826 0)
(0.204272 -0.188585 -3.11643e-21)
(0.472944 0.0570207 1.77778e-21)
(0.784026 -0.446123 -1.23251e-21)
(0.0535197 -0.0163883 9.21654e-21)
(0.0193945 -0.0248683 -4.57407e-21)
(0.933613 -0.454855 4.12599e-22)
(0.56443 0.18555 2.89731e-21)
(0.413608 0.22618 0)
(0.895962 -0.275484 -1.92124e-21)
(0.249248 -0.23168 -8.84094e-22)
(0.391753 0.212382 1.39191e-21)
(0.869352 -0.266125 2.60355e-21)
(0.266309 -0.243752 1.20298e-21)
(0.946436 -0.307628 3.09765e-24)
(0.460168 0.243104 -4.03259e-23)
(0.186853 -0.179788 2.08379e-23)
(0.201655 -0.0265925 0)
(0.39342 -0.234872 -2.13072e-21)
(0.430951 -0.137452 4.0954e-21)
(0.130337 -0.126368 -3.42493e-21)
(0.493453 0.247587 4.27422e-21)
(0.965486 -0.339597 6.5688e-22)
(0.29635 -0.0177931 -1.28003e-21)
(0.522868 -0.241714 1.18935e-21)
(0.217867 -0.119847 0)
(0.0137665 -0.0194864 4.05759e-21)
(0.940468 -0.454151 0)
(0.578877 0.19917 -1.71776e-21)
(0.601022 0.133811 2.91384e-21)
(-0.000992676 0.00548464 0)
(0.899618 -0.519474 3.57773e-22)
(0.00823311 0.0318682 0)
(0.660983 0.0907991 0)
(0.867286 -0.58532 -3.60982e-23)
(0.454294 0.13186 3.61987e-21)
(0.481226 0.138254 -5.03087e-21)
(0.849832 -0.396229 -2.15881e-21)
(0.870045 -0.419005 9.98945e-22)
(0.0893915 -0.0775523 1.90761e-21)
(0.0661344 -0.0580412 -4.88142e-21)
(0.00151419 0.0106871 2.41175e-22)
(0.602674 0.116436 -2.85045e-21)
(0.886349 -0.533122 0)
(0.341833 -0.0933943 3.05318e-24)
(0.227691 -0.0860988 0)
(0.40704 -0.205673 0)
(0.119237 0.0420804 -8.55529e-21)
(0.505994 -0.0691144 1.66455e-21)
(0.595372 -0.403813 0)
(0.172341 0.0699808 -1.31578e-21)
(0.503702 -0.364059 0)
(0.559959 -0.128326 6.2411e-21)
(0.587429 0.242095 0)
(-0.0150163 0.0249034 3.29057e-21)
(0.803436 -0.410608 -5.94087e-22)
(0.329935 0.0362746 -2.57893e-21)
(0.647698 -0.299199 -1.10131e-21)
(0.170848 -0.11232 -3.91074e-21)
(0.476751 0.175289 -2.10909e-21)
(0.452605 0.15383 1.969e-21)
(0.89923 -0.387101 -5.08381e-22)
(0.0960222 -0.0893378 -2.13972e-21)
(0.867147 -0.379602 5.71004e-22)
(0.104984 -0.0940719 1.99894e-21)
(0.60388 0.237243 4.45506e-21)
(0.903456 -0.437836 -2.63791e-22)
(-0.00900793 0.00922961 1.08327e-21)
(0.402139 0.109054 0)
(0.787475 -0.359668 1.62812e-21)
(0.128178 -0.107542 -1.13342e-20)
(0.235768 0.0708914 0)
(0.357568 -0.26312 3.51568e-21)
(0.602496 -0.196848 -1.46399e-22)
(0.0154638 0.0344334 0)
(0.641221 0.0762257 0)
(0.861814 -0.581297 0)
(0.531976 0.142435 0)
(0.895365 -0.460861 2.31218e-21)
(0.0303636 -0.0278404 4.95098e-21)
(0.298945 0.0619671 0)
(0.645581 -0.266507 0)
(0.233467 -0.171224 0)
(0.412551 -0.0090072 0)
(0.646917 -0.373306 0)
(0.102508 -0.0275342 0)
(0.159279 0.0704847 1.21758e-21)
(0.542195 -0.390569 0)
(0.556972 -0.111445 -3.40156e-21)
(0.12499 0.0309532 8.2859e-21)
(0.491338 -0.0743984 3.70645e-21)
(0.583364 -0.386899 -3.68157e-21)
(0.485448 0.0728634 -4.11784e-21)
(0.809658 -0.454509 0)
(0.0457493 -0.0226956 -1.19768e-20)
(0.134706 -0.0118357 0)
(0.426769 -0.0671813 -8.02045e-21)
(0.544287 -0.332335 -9.70626e-22)
(0.691274 -0.491843 -1.48026e-21)
(0.552728 -0.042426 -3.79792e-21)
(0.731781 -0.507589 0)
(0.547114 -0.0169591 -2.22543e-21)
(0.101012 0.0612219 -4.05477e-21)
(0.0788722 0.049461 3.89521e-21)
(0.451318 -0.0332779 -5.22493e-22)
(0.635118 -0.398259 -1.81264e-21)
(0.0963941 0.000407462 2.36087e-21)
(0.623979 0.214678 1.81784e-21)
(-0.0114645 0.0083475 -1.28481e-21)
(0.903001 -0.464984 1.00014e-22)
(0.594848 0.243232 1.26299e-21)
(-0.0134979 0.020248 4.92093e-22)
(0.848243 -0.420215 0)
(0.537639 0.157584 -5.44559e-23)
(0.908387 -0.456195 0)
(0.0296755 -0.031124 -5.97942e-21)
(0.26916 0.118307 0)
(0.683111 -0.209624 -7.69814e-22)
(0.366481 -0.292489 -2.0004e-21)
(0.454942 -0.0469746 -3.35337e-21)
(0.108301 0.00861359 0)
(0.6052 -0.379068 0)
(-0.0149662 0.0103252 0)
(0.900676 -0.501007 0)
(0.638632 0.185403 -1.49485e-21)
(0.247595 0.101852 0)
(0.647946 -0.195119 1.75113e-21)
(0.380533 -0.28957 -5.23596e-22)
(0.124889 0.000943929 0)
(0.44096 -0.0657568 0)
(0.551855 -0.346092 0)
(0.396562 -0.0226287 -1.70605e-21)
(0.614668 -0.353559 0)
(0.114192 -0.0349057 0)
(0.722957 -0.355433 -3.90914e-24)
(0.121447 -0.084667 2.69001e-21)
(0.385787 0.0919098 -5.43653e-21)
(0.760182 -0.348776 0)
(0.134764 -0.105351 1.17109e-20)
(0.603304 0.169791 3.38706e-21)
(-0.0018753 -0.00229147 -3.73367e-21)
(0.920695 -0.493824 1.23709e-21)
(0.0106398 0.0246177 -3.5561e-21)
(0.612339 0.0858384 -1.7379e-21)
(0.868571 -0.558813 -1.93109e-21)
(0.643257 0.118451 4.73923e-21)
(0.884905 -0.552048 0)
(-0.00410121 0.0204102 3.47514e-21)
(0.570669 -0.453086 1.53342e-21)
(0.646127 -0.117617 -1.38265e-21)
(0.195717 0.124872 -4.04785e-21)
(0.363865 0.0122436 3.37241e-21)
(0.484511 0.255953 -2.18933e-21)
(0.149278 -0.142433 2.08948e-21)
(0.968803 -0.329827 -3.09528e-24)
(0.88556 -0.546225 0)
(0.65296 0.136018 1.38698e-21)
(-0.00976717 0.0177964 0)
(0.317096 -0.0690619 6.20299e-21)
(0.228934 -0.101508 0)
(0.438447 -0.213282 -1.91226e-21)
(0.332551 0.0808134 0)
(0.696205 -0.299273 1.04248e-22)
(0.19769 -0.145121 -2.23164e-21)
(0.015762 0.0310704 -2.77136e-21)
(0.622159 0.0755209 0)
(0.860263 -0.571423 2.22458e-21)
(0.380706 0.0278477 0)
(0.708388 -0.36069 -4.26232e-21)
(0.114989 -0.0736965 0)
(-0.0172429 0.0173112 0)
(0.854444 -0.456439 3.75042e-22)
(0.630257 0.221549 0)
(0.173307 0.111649 4.38101e-21)
(0.624051 -0.100978 0)
(0.603901 -0.476482 0)
(0.621182 0.107511 -4.15895e-21)
(0.88313 -0.546584 0)
(0.000340958 0.0176498 3.26755e-23)
(0.496143 -0.0238592 -4.34392e-21)
(0.684133 -0.452685 -1.30574e-21)
(0.0810356 0.026367 5.45195e-21)
(0.397497 0.122872 0)
(0.794905 -0.347623 -1.52882e-21)
(0.145104 -0.121226 -1.14892e-21)
(0.819582 -0.587336 3.48149e-21)
(0.618211 0.0228726 3.01945e-21)
(0.0535078 0.0559764 -2.21238e-21)
(0.569042 -0.00897051 0)
(0.759479 -0.534378 1.60287e-21)
(0.0747257 0.05488 8.05399e-23)
(-0.0186215 0.0190849 2.6266e-21)
(0.830861 -0.45986 0)
(0.638686 0.214578 1.31675e-21)
(0.20852 0.0936475 -5.85135e-21)
(0.46056 -0.346166 2.43772e-21)
(0.61074 -0.158402 2.55158e-22)
(0.533859 0.262898 -1.32395e-21)
(-0.0103044 0.0269535 2.70301e-22)
(0.804192 -0.356129 0)
(0.197266 -0.0569705 -1.25656e-21)
(0.375214 -0.0990725 4.74927e-21)
(0.426617 -0.23431 -5.78077e-21)
(0.468322 0.0068942 -1.85433e-21)
(0.475469 -0.0183585 -4.46815e-23)
(0.715454 -0.439845 3.20196e-21)
(0.678301 -0.435018 3.12343e-21)
(0.0812262 0.013079 -4.30968e-21)
(0.0672438 0.00105499 2.19757e-21)
(0.105305 -0.103207 4.48281e-21)
(0.509384 0.253415 -2.258e-21)
(0.979071 -0.348157 0)
(0.373124 0.120151 0)
(0.772742 -0.322501 0)
(0.179353 -0.144713 4.64663e-21)
(0.578165 0.0117686 7.98153e-22)
(0.789039 -0.552339 0)
(0.0590081 0.0487254 0)
(0.505018 0.161773 -1.8735e-21)
(0.900688 -0.421735 0)
(0.0584702 -0.0568377 -2.13215e-21)
(0.30168 -0.10042 -1.28163e-21)
(0.357213 -0.148569 -1.81409e-21)
(0.299849 -0.130648 6.45074e-22)
(0.521267 -0.00517966 2.82564e-21)
(0.73296 -0.489476 0)
(0.067805 0.033429 3.70983e-21)
(0.375456 0.134556 0)
(0.789073 -0.316429 -1.90558e-21)
(0.189058 -0.157784 2.89525e-21)
(0.378687 0.0485778 -5.56483e-21)
(0.399667 0.0623245 4.47802e-21)
(0.212819 0.104296 4.62481e-21)
(0.470467 -0.361512 -7.04154e-21)
(0.626167 -0.154839 5.55667e-21)
(0.522859 0.0154761 2.97516e-21)
(0.762478 -0.499619 -2.49632e-21)
(0.0523793 0.0246001 -3.38735e-21)
(0.524769 0.167297 6.81346e-21)
(0.0430909 -0.0435489 7.57599e-21)
(0.913614 -0.436309 9.8156e-22)
(0.175877 0.057537 2.02256e-21)
(0.480663 -0.345673 0)
(0.545911 -0.132683 -2.0709e-21)
(0.111157 0.0748126 4.43378e-21)
(0.574511 -0.0478858 2.11033e-21)
(0.690863 -0.50931 0)
(0.436451 0.178107 6.82501e-22)
(0.876821 -0.342799 1.47684e-21)
(0.149984 -0.134831 -1.29813e-21)
(0.19082 0.102414 -3.7889e-22)
(0.527674 -0.4036 0)
(0.614473 -0.128184 -4.3191e-21)
(0.457998 0.192674 0)
(0.475478 0.192672 0)
(0.903706 -0.354175 8.43583e-22)
(0.134674 -0.123534 3.42205e-21)
(0.913016 -0.37445 -1.19061e-21)
(0.109625 -0.101084 -3.60434e-21)
(-0.0098972 0.0048632 2.86743e-21)
(0.912913 -0.491242 0)
(0.624927 0.189773 2.14312e-21)
(0.428011 0.146916 0)
(0.842007 -0.361392 7.09748e-22)
(0.129375 -0.112673 -1.20638e-21)
(0.686924 -0.357249 2.54594e-21)
(-0.0125025 0.0316576 -4.05773e-21)
(0.524061 0.239487 -2.75799e-21)
(0.41907 -0.0896725 6.48427e-21)
(0.156525 -0.0191769 0)
(0.48848 -0.29296 2.0229e-21)
(0.444261 0.045614 -4.22516e-21)
(0.752781 -0.419773 0)
(0.0669031 -0.0284077 -7.10447e-21)
(0.00725117 -0.0112601 2.38069e-21)
(0.580465 0.162199 -6.19993e-21)
(0.917605 -0.482868 -1.17134e-21)
(0.62088 -0.46897 1.96165e-21)
(0.590357 -0.086809 0)
(0.147498 0.0917534 5.4312e-21)
(0.834783 -0.584459 3.80241e-21)
(0.618218 0.0420775 1.85948e-21)
(0.0373997 0.0451579 0)
(0.65559 -0.334716 2.37804e-21)
(0.132381 -0.0746085 0)
(0.443197 0.0831351 -4.60495e-21)
(0.788827 -0.406847 -1.38363e-21)
(0.0767011 -0.0566037 -2.12598e-21)
(0.646416 -0.347217 -7.88442e-23)
(0.120354 -0.0608103 -1.45533e-23)
(0.548884 0.243442 4.84907e-21)
(0.0475645 -0.0480518 -5.36158e-21)
(0.970449 -0.392899 3.66401e-22)
(0.556607 -0.461228 -1.99535e-21)
(0.67763 -0.129667 -4.19154e-22)
(0.217934 0.141404 0)
(0.464109 0.0969689 4.6885e-21)
(0.822178 -0.421986 1.68721e-21)
(0.0629343 -0.0467993 5.16525e-21)
(0.43094 -0.013736 0)
(0.648663 -0.390745 1.33485e-21)
(0.0939847 -0.0137169 0)
(0.531809 -0.0870979 2.1008e-21)
(0.576485 -0.41038 0)
(0.13648 0.0563699 0)
(0.304779 0.00321318 1.77274e-21)
(0.566469 -0.265247 2.68181e-21)
(0.201426 -0.121009 1.12283e-23)
(0.129689 0.0863901 -5.49193e-21)
(0.587841 -0.0654752 -5.1586e-21)
(0.664786 -0.497138 -5.20165e-21)
(0.618537 0.151635 2.54156e-21)
(0.906476 -0.512685 -1.01444e-21)
(-0.00621184 0.00561399 -5.66494e-23)
(0.841845 -0.570061 -2.6382e-21)
(0.605807 0.0515667 -1.88412e-21)
(0.0291493 0.0373231 -2.79491e-21)
(0.346067 0.192133 4.24064e-21)
(0.333368 -0.2917 -1.75608e-21)
(0.817475 -0.233817 0)
(0.483104 0.225727 -1.23092e-21)
(0.465274 0.213518 1.12134e-21)
(0.925323 -0.341222 2.66229e-22)
(0.94514 -0.347854 -9.2423e-22)
(0.130378 -0.122841 1.2113e-21)
(0.146825 -0.137323 1.0983e-21)
(-0.0129576 0.0310463 4.13036e-21)
(0.724899 -0.357665 -2.80338e-21)
(0.531441 0.243733 -8.70251e-22)
(0.541573 0.264734 8.77007e-23)
(-0.00757774 0.0222951 0)
(0.839499 -0.362438 0)
(0.486787 0.0210921 6.70319e-21)
(0.751405 -0.459038 6.64086e-22)
(0.0586989 0.00387971 0)
(-0.00395887 -0.0019667 7.17949e-21)
(0.6085 0.182584 -2.68843e-21)
(0.924848 -0.487111 0)
(0.397539 0.191094 -6.109e-21)
(0.41891 0.196651 4.5709e-21)
(0.85646 -0.293458 -1.67967e-21)
(0.878113 -0.310094 -6.09307e-22)
(0.231512 -0.204642 2.13852e-21)
(0.199343 -0.17798 1.0825e-21)
(-0.0139481 0.0195884 0)
(0.857743 -0.543345 0)
(0.681158 0.141729 -7.33888e-22)
(0.500065 0.262948 1.55515e-21)
(-0.0107406 0.0307858 -2.49259e-21)
(0.765674 -0.328468 0)
(0.402009 -0.144136 -2.25654e-23)
(0.237877 -0.0527301 -2.79039e-21)
(0.342127 -0.187211 -1.31372e-21)
(0.554879 0.249511 2.57629e-21)
(0.784413 -0.382612 8.69035e-22)
(-0.0136964 0.0279171 -5.1123e-21)
(0.300632 0.125365 -5.14035e-21)
(0.716373 -0.239051 3.35972e-21)
(0.312495 -0.252412 5.1248e-23)
(0.644895 0.174255 -4.75789e-23)
(0.897797 -0.511866 -8.42092e-22)
(-0.0141613 0.0116821 1.49294e-21)
(0.59779 -0.355577 6.72285e-23)
(-0.0102256 0.0285744 4.77334e-21)
(0.51771 0.197642 9.51436e-22)
(0.197394 0.043551 2.67116e-21)
(0.408788 -0.281901 1.50555e-22)
(0.536272 -0.158035 -6.65988e-21)
(0.371098 -0.0795753 0)
(0.473569 -0.260367 6.39098e-21)
(0.179066 -0.0546817 -3.47726e-21)
(0.590515 0.24856 -4.50779e-21)
(-0.00512115 0.00707582 -3.21838e-21)
(0.910376 -0.424734 4.98607e-23)
(0.385185 -0.0716734 0)
(0.495508 -0.278942 2.14737e-21)
(0.160512 -0.0387599 4.92802e-21)
(0.379488 -0.138338 -2.73883e-21)
(0.252847 -0.0704077 2.94763e-21)
(0.336673 -0.172557 -7.03763e-22)
(0.164339 0.114655 2.66371e-21)
(0.631367 -0.0874797 1.77802e-21)
(0.645077 -0.512304 -2.82174e-21)
(0.438115 -0.123265 0)
(0.420813 -0.252593 0)
(0.183618 -0.0121192 -4.19313e-22)
(0.439065 -0.103341 -3.49496e-21)
(0.465143 -0.279535 -1.67778e-21)
(0.16824 -0.00834222 -5.90837e-23)
(0.32341 0.181207 -6.44703e-21)
(0.786141 -0.217139 2.47913e-21)
(0.369584 -0.322568 3.57356e-21)
(0.00689133 -0.00918788 -4.85725e-21)
(0.00044198 -0.00433101 5.01861e-21)
(0.943616 -0.438117 -7.92243e-23)
(0.934251 -0.449386 -1.07122e-22)
(0.588912 0.233774 -3.7595e-21)
(0.599092 0.22537 5.65791e-21)
(0.634527 0.157126 -3.13294e-21)
(0.90211 -0.517598 6.61309e-22)
(-0.0102549 0.0106251 0)
(0.319718 -0.291155 -2.31647e-21)
(0.366517 0.210428 -1.34226e-21)
(0.847144 -0.240282 0)
(0.222833 0.0903115 0)
(0.419452 -0.315468 2.2524e-21)
(0.617204 -0.174627 -2.01617e-21)
(0.593997 -0.0232503 0)
(0.750666 -0.552629 -1.65871e-21)
(0.0928006 0.0716473 -8.33102e-23)
(0.68804 -0.426273 5.36558e-22)
(-0.016091 0.0228432 0)
(0.61774 0.190353 2.60073e-21)
(8.14895e-05 0.0266451 0)
(0.662141 0.107006 0)
(0.871341 -0.574669 -5.2762e-22)
(0.610886 0.234632 -1.49165e-21)
(-0.0147 0.0168102 0)
(0.866007 -0.439884 -3.68076e-22)
(-0.00800112 0.0298334 1.75214e-32)
(0.55259 -0.324419 -1.40016e-21)
(0.473523 0.19178 -9.78439e-22)
(0.573441 -0.285236 1.58858e-21)
(-0.00921476 0.033505 -1.74806e-32)
(0.443878 0.222886 8.78876e-22)
(0.819263 -0.497756 3.19402e-21)
(0.527993 0.0588859 0)
(0.0342805 0.00648037 7.04698e-21)
(0.803973 -0.50497 -1.38631e-22)
(-0.0184391 0.018373 0)
(0.685815 0.166314 0)
(0.548842 0.137113 2.99913e-21)
(0.89468 -0.477599 -1.39946e-21)
(0.0206502 -0.0176692 -3.55432e-21)
(0.547963 0.273759 -4.88918e-21)
(0.0282282 -0.0233344 -1.87375e-21)
(0.9639 -0.367169 0)
(0.342986 0.0164662 -1.36285e-21)
(0.153082 -0.0897882 1.34139e-21)
(0.635611 -0.313907 -1.14752e-21)
(0.865483 -0.555554 0)
(-0.010602 0.0214438 -2.5414e-21)
(0.677284 0.131188 -8.63515e-22)
(0.595481 -0.0366867 2.09574e-21)
(0.106639 0.0799697 1.49911e-21)
(0.726868 -0.540201 0)
(0.80088 -0.545308 0)
(0.5692 0.0269946 0)
(0.0457604 0.0391712 -2.61302e-21)
(-0.00246133 0.0226276 0)
(0.31299 -0.159863 -1.69529e-21)
(0.268993 0.121227 -5.18169e-22)
(0.683983 -0.378148 9.52139e-22)
(-0.013039 0.0297905 2.86943e-21)
(0.546772 0.227107 1.24436e-21)
(0.330059 9.6303e-05 3.5623e-21)
(0.169554 -0.0957209 -3.23641e-21)
(0.591364 -0.29359 -1.36134e-21)
(0.869921 -0.521507 -2.61753e-22)
(0.6676 0.163923 1.55591e-21)
(-0.0168727 0.0164542 0)
(-0.0145766 0.0201869 2.64624e-21)
(0.692647 0.144465 0)
(0.835839 -0.539748 2.48527e-22)
(0.594983 0.197838 1.95988e-21)
(0.00365694 -0.00890969 -7.58782e-21)
(0.934835 -0.466088 -7.44067e-22)
(0.0774996 -0.0756244 5.46246e-21)
(0.968767 -0.376721 -8.2153e-22)
(0.524699 0.238596 0)
(0.311439 0.186981 8.13777e-21)
(0.779839 -0.202764 -3.16008e-21)
(0.410758 -0.358578 3.34327e-21)
(0.911652 -0.321352 -3.96364e-22)
(0.44404 0.215901 -2.65927e-21)
(0.183294 -0.168982 3.32849e-21)
(0.0697505 -0.0694547 4.85816e-21)
(0.531095 0.2626 0)
(0.986001 -0.362826 1.97089e-22)
(0.32273 0.114268 1.29391e-21)
(0.349312 0.130818 0)
(0.724393 -0.271083 3.4717e-21)
(0.765019 -0.289691 -3.71224e-21)
(0.251792 -0.196787 -2.40674e-21)
(0.229077 -0.187469 0)
(0.300685 0.11202 1.27815e-21)
(0.703378 -0.248511 0)
(0.290001 -0.227022 -1.10531e-21)
(0.388894 0.200009 0)
(0.85595 -0.279386 2.72218e-21)
(0.255837 -0.228497 -7.70802e-22)
(0.829485 -0.556548 1.39774e-21)
(0.588101 0.0444003 -2.01687e-21)
(0.0327228 0.0340251 5.71222e-21)
(0.891156 -0.536629 0)
(0.645395 0.148946 -5.0225e-22)
(-0.0122543 0.0148847 0)
(0.0170002 0.0211978 1.8151e-21)
(0.588852 0.0750831 1.28147e-21)
(0.857 -0.545511 8.72443e-22)
(0.62222 -0.296606 -2.42097e-22)
(-0.0103167 0.0344311 -1.50261e-23)
(0.464016 0.235634 0)
(0.237158 0.0470791 -2.4525e-21)
(0.249089 0.0373122 0)
(0.327413 -0.225947 5.70252e-22)
(0.571704 -0.201882 -7.78581e-21)
(0.300585 -0.20359 -7.21708e-22)
(0.568141 -0.21589 4.99931e-21)
(0.349143 0.174125 0)
(0.320305 0.156694 8.26194e-22)
(0.323008 -0.270444 -1.30327e-23)
(0.802125 -0.257171 -1.95284e-21)
(0.294725 -0.249373 -5.57788e-21)
(0.762924 -0.239146 4.27375e-21)
(0.591227 -0.372368 0)
(-0.010872 0.0257947 -5.25498e-21)
(0.546046 0.186568 0)
(0.880896 -0.519735 3.64303e-22)
(0.65841 0.16204 -5.05363e-22)
(-0.0155264 0.0144662 -1.56724e-21)
(0.236159 0.119453 1.52195e-21)
(0.453756 -0.360055 2.47896e-21)
(0.659274 -0.169991 -6.22087e-21)
(0.798686 -0.573132 -3.17292e-21)
(0.60267 0.0088201 -5.0632e-21)
(0.063152 0.0586313 0)
(0.0934667 -0.0913255 -5.84148e-21)
(0.96479 -0.367702 8.73957e-22)
(0.513231 0.236972 0)
(0.773001 -0.424498 0)
(0.606129 0.226002 0)
(-0.0167247 0.0249442 0)
(0.792984 -0.446309 0)
(0.628211 0.215908 -2.34517e-21)
(-0.0186971 0.0222252 0)
(0.419228 0.182253 2.55134e-21)
(0.865859 -0.32472 -9.10364e-22)
(0.18072 -0.159964 -1.60222e-21)
(0.164674 0.0450161 7.07862e-22)
(0.489859 -0.33788 0)
(0.520449 -0.119369 -2.25916e-21)
(0.603172 0.209397 -2.28355e-21)
(-7.72144e-05 -0.00437067 -4.39988e-21)
(0.935275 -0.461689 9.91642e-22)
(0.828703 -0.516905 0)
(0.548503 0.0621213 0)
(0.02865 0.0158086 -6.09084e-21)
(0.0373559 -0.0401544 -1.45479e-21)
(0.9315 -0.437052 -1.5928e-21)
(0.541792 0.187823 -6.37431e-21)
(0.302974 0.152344 -8.41621e-22)
(0.355785 -0.29624 3.74868e-21)
(0.74318 -0.223861 -2.25619e-21)
(0.507384 -0.0446169 4.22156e-21)
(0.651326 -0.43921 -1.9314e-21)
(0.0992485 0.0375725 -5.33372e-21)
(0.205992 0.0696726 -4.48161e-23)
(0.426169 -0.312044 7.59733e-22)
(0.579397 -0.164245 2.64061e-21)
(-0.00801786 0.00377438 1.70241e-21)
(0.918895 -0.475678 -1.34578e-22)
(0.619685 0.204151 -2.4453e-21)
(0.500567 0.17973 1.18662e-21)
(0.914287 -0.406177 6.0186e-22)
(0.073181 -0.0699353 0)
(0.208436 0.0343699 2.65959e-21)
(0.377561 -0.254499 -4.89768e-21)
(0.531812 -0.170219 4.40047e-21)
(0.536851 0.270845 -1.95661e-21)
(0.0560845 -0.0547312 -2.12782e-21)
(0.985916 -0.361117 -1.30033e-22)
(0.291257 0.0771512 1.56717e-21)
(0.656286 -0.256225 0)
(0.257876 -0.192655 0)
(0.403734 -0.0423013 6.20181e-21)
(0.571659 -0.333695 -1.28732e-21)
(0.125729 -0.026621 0)
(0.795466 -0.521873 0)
(0.547217 0.0281527 -4.25043e-21)
(0.0437526 0.029884 2.73714e-21)
(0.549412 0.269752 0)
(0.00140153 0.00877649 6.67719e-22)
(0.902149 -0.370991 7.94333e-22)
(0.543671 0.27488 -1.89277e-21)
(0.00865051 0.000805672 -2.1051e-21)
(0.922984 -0.362886 -4.08959e-22)
(0.0456264 -0.0479458 -1.31008e-21)
(0.941364 -0.423677 7.68997e-22)
(0.538263 0.200388 5.86182e-21)
(0.535257 -0.0561283 1.89421e-21)
(0.660474 -0.464408 3.90365e-21)
(0.109317 0.0537272 0)
(-0.00333863 0.0184644 -6.11701e-22)
(0.861007 -0.352774 -7.39305e-22)
(0.528722 0.270348 0)
(0.0102324 -0.00977854 0)
(0.905646 -0.48932 8.64471e-22)
(0.571668 0.145208 7.15942e-22)
(-0.00486292 0.0270557 -2.59019e-21)
(0.461841 -0.291733 1.32866e-21)
(0.424166 0.158666 0)
(0.374634 0.207716 1.1152e-21)
(0.499255 -0.229194 0)
(-0.0079852 0.0330406 -2.56156e-21)
(0.0653849 -0.0641898 2.14372e-23)
(0.978118 -0.376977 5.63561e-23)
(0.535098 0.251635 0)
(-0.0159124 0.0130698 0)
(0.884262 -0.472441 0)
(0.635101 0.210345 -3.09374e-21)
(0.576588 0.229147 2.07046e-21)
(0.568558 0.21783 -1.67498e-21)
(0.0183048 -0.0221446 2.44205e-21)
(0.956827 -0.428473 5.56945e-23)
(0.0227839 -0.0278054 0)
(0.952843 -0.433431 0)
(0.577971 0.131837 -1.37703e-21)
(0.896368 -0.503005 -6.32862e-22)
(0.00706919 -0.00291666 0)
(0.0856638 0.0739079 0)
(0.772795 -0.575286 0)
(0.61077 -0.0121295 0)
(0.260024 0.0088678 -3.30547e-21)
(0.27228 -0.171494 7.00652e-21)
(0.534543 -0.219631 -2.74023e-21)
(0.573764 0.09651 -3.89832e-21)
(0.868595 -0.523215 -2.862e-22)
(0.0114896 0.008464 -5.30515e-21)
(0.0175256 0.0145188 -3.48421e-21)
(0.571823 0.0812239 5.41921e-21)
(0.854776 -0.530078 3.96812e-22)
(0.51666 0.266439 -2.27571e-21)
(0.0934344 -0.0929776 -2.31251e-21)
(0.989549 -0.34619 0)
(0.358525 0.186236 0)
(0.82122 -0.25683 -8.15066e-22)
(0.294823 -0.256336 5.46775e-21)
(0.321221 0.140739 0)
(0.747549 -0.250028 -4.41079e-21)
(0.299341 -0.248201 1.25758e-23)
(0.512586 0.0838978 5.22846e-21)
(0.83614 -0.477628 -4.15919e-22)
(0.0332067 -0.0127954 3.03304e-21)
(0.528707 0.0802914 0)
(0.839389 -0.492548 -3.98426e-22)
(0.0276884 -0.00326476 -2.80225e-21)
(0.203443 0.0159505 0)
(0.380645 -0.245927 7.70254e-21)
(0.498027 -0.159601 0)
(0.355806 0.143006 0)
(0.779841 -0.287478 2.30219e-21)
(0.233662 -0.198281 -8.56207e-22)
(-0.00540213 0.025235 5.51948e-21)
(0.857934 -0.567905 1.09389e-21)
(0.682984 0.117768 0)
(0.643901 0.201891 4.90983e-23)
(-0.0187816 0.0213778 -1.62781e-21)
(0.767393 -0.455301 3.39638e-22)
(0.641921 0.190828 7.71647e-23)
(-0.0178426 0.0212343 0)
(0.732988 -0.449419 -1.06533e-21)
(0.254206 0.0901348 -1.84787e-21)
(0.348437 -0.260364 8.21216e-22)
(0.639867 -0.210486 1.09149e-22)
(0.717286 -0.40379 -1.22049e-22)
(-0.0152125 0.0266734 -6.60979e-21)
(0.589357 0.219395 0)
(0.518571 0.198417 -5.09596e-21)
(0.0649728 -0.0636338 0)
(0.934896 -0.407841 0)
(-0.0145677 0.0251734 2.63664e-21)
(0.675722 -0.409307 -9.03112e-22)
(0.591472 0.19973 -1.97865e-21)
(0.334879 -0.0563827 -4.3165e-21)
(0.196473 -0.0823758 -4.3908e-21)
(0.482578 -0.245399 -1.31044e-23)
(0.406629 0.0824539 7.96127e-22)
(0.765537 -0.371787 5.39436e-22)
(0.110064 -0.0826531 2.7228e-21)
(0.620805 -0.447572 -4.55636e-21)
(0.547231 -0.0752649 -6.69546e-21)
(0.128784 0.0639848 0)
(-0.0180012 0.0182184 0)
(0.828662 -0.515518 -1.01605e-22)
(0.683829 0.163592 0)
(0.817696 -0.52785 0)
(0.555135 0.0494486 0)
(0.032696 0.023158 0)
(0.0382993 -0.0362978 0)
(0.549304 0.267083 1.78893e-21)
(0.975905 -0.37454 -8.7621e-23)
(0.431859 0.0951161 0)
(0.794621 -0.39241 -2.86105e-22)
(0.0913633 -0.0706772 6.12206e-24)
(0.260667 -0.00629914 3.19382e-21)
(0.27288 -0.164908 -6.02642e-21)
(0.508584 -0.211629 0)
(0.854036 -0.509976 2.47459e-22)
(0.668577 0.177238 -1.47715e-21)
(-0.0189816 0.0169489 0)
(0.0159869 -0.020312 3.01381e-21)
(0.921421 -0.468796 -5.27579e-23)
(0.565278 0.171051 -1.12043e-22)
(0.57658 0.256268 0)
(0.572104 0.257728 -1.76821e-21)
(-0.00536271 0.0127186 -1.55449e-21)
(-0.00884181 0.0181832 1.92757e-21)
(0.891086 -0.399309 -3.84063e-22)
(0.866358 -0.396382 3.15851e-22)
(0.446447 0.0106943 0)
(0.701103 -0.419148 -3.69227e-21)
(0.075583 -0.0126043 -3.43593e-21)
(0.792035 -0.481577 -4.51399e-21)
(0.509329 0.0434185 0)
(0.0419433 0.00656746 3.75226e-21)
(0.362098 -0.0265922 3.53724e-21)
(0.567017 -0.306481 -2.17908e-21)
(0.144338 -0.0598763 -5.37337e-21)
(0.800624 -0.480177 3.98769e-22)
(0.661813 0.191667 -1.76805e-21)
(0.788376 -0.488375 -2.54441e-22)
(-0.01967 0.0192591 1.72435e-21)
(0.672798 0.179041 1.65842e-21)
(-0.0192039 0.0189511 0)
(0.485126 0.123534 0)
(0.856555 -0.431809 0)
(0.0573436 -0.0481159 -3.36009e-21)
(0.658554 0.189549 -1.87364e-21)
(0.657328 0.195834 4.74884e-21)
(0.855847 -0.495084 2.6602e-22)
(0.832304 -0.481422 -3.68397e-22)
(-0.0195463 0.0162922 -4.54531e-21)
(-0.019843 0.0180705 1.94703e-23)
(0.506116 0.028342 0)
(0.766504 -0.482061 4.43446e-21)
(0.0513113 0.0148438 -4.87146e-21)
(0.400875 0.0312737 -3.38564e-21)
(0.724209 -0.382022 3.35304e-21)
(0.0938939 -0.0565231 0)
(0.555261 0.270085 0)
(0.0163617 -0.0109828 -2.93737e-22)
(0.947974 -0.378158 3.92782e-22)
(0.436535 0.0272461 -2.5095e-21)
(0.718158 -0.410716 0)
(0.0736529 -0.0238049 5.61876e-21)
(0.37172 -0.00741615 -1.46309e-21)
(0.614869 -0.336303 2.55777e-21)
(0.12559 -0.055701 -3.11059e-21)
(0.565237 0.261665 0)
(0.000273475 0.00778584 0)
(0.91017 -0.390598 -4.82706e-22)
(0.432709 0.113369 0)
(0.819078 -0.384462 -5.26151e-22)
(0.0968289 -0.0815574 3.27964e-21)
(0.71278 -0.545917 0)
(0.615428 -0.0509367 0)
(0.125206 0.0944107 1.9409e-22)
(0.302597 0.162137 2.07453e-22)
(0.75134 -0.213473 0)
(0.375743 -0.318212 -2.81469e-21)
(0.847104 -0.593843 -1.40831e-21)
(0.028684 0.043351 0)
(0.640315 0.0570286 0)
(-0.00475853 0.0278516 6.19316e-21)
(0.423069 -0.221248 2.37391e-21)
(0.354994 0.159925 7.25554e-22)
(0.430444 0.0599481 0)
(0.753586 -0.401384 -2.04991e-21)
(0.0793462 -0.0479213 0)
(0.571876 0.252206 -3.33935e-21)
(0.0150472 -0.0144146 -8.14061e-21)
(0.954437 -0.404343 -1.22128e-23)
(0.485049 -0.411364 0)
(0.727925 -0.167659 2.23515e-21)
(0.263951 0.163703 0)
(0.448118 0.245423 0)
(-0.0111015 0.0357196 1.47268e-21)
(0.655911 -0.288041 0)
(0.142013 0.014592 -3.44612e-21)
(0.142063 0.0311233 3.52419e-21)
(0.514271 -0.334125 0)
(0.466213 -0.0921311 -2.88148e-21)
(0.531928 -0.357815 4.736e-21)
(0.493104 -0.0967738 2.29006e-21)
(0.379672 -0.0463977 -3.33023e-21)
(0.540821 -0.301841 -3.0139e-21)
(0.144934 -0.0441341 0)
(0.177442 0.0353105 -3.0774e-21)
(0.162893 0.0190407 0)
(0.446786 -0.302655 0)
(0.512916 -0.136066 0)
(0.464625 -0.303152 2.86255e-21)
(0.47995 -0.11642 -1.77175e-23)
(0.412135 0.0512105 -2.14563e-22)
(0.689071 -0.374331 1.51388e-21)
(0.0991182 -0.0490288 3.83277e-21)
(0.411651 0.0197107 5.84997e-21)
(0.688445 -0.383847 0)
(0.0923586 -0.0369585 0)
(-0.0179412 0.0194829 0)
(0.742051 -0.470476 0)
(0.663925 0.178169 -1.61152e-21)
(0.277501 0.09475 5.10301e-21)
(0.664623 -0.231726 0)
(0.307779 -0.232918 -1.52755e-21)
(0.645285 0.194966 4.16707e-21)
(0.882329 -0.491671 3.36552e-23)
(-0.0176209 0.0134978 2.59103e-21)
(0.518239 0.105634 0)
(0.538849 0.118202 -2.88964e-21)
(0.858915 -0.470718 5.18637e-22)
(0.877754 -0.480737 -1.3879e-21)
(0.0299505 -0.0187881 3.72438e-21)
(0.0218551 -0.0144613 3.43047e-21)
(0.27418 0.0771852 0)
(0.642076 -0.236939 0)
(0.290653 -0.215374 -7.37379e-22)
(0.381037 0.173375 -2.02625e-21)
(0.827099 -0.290107 0)
(0.236569 -0.203752 -1.84176e-21)
(0.47691 0.0911007 1.50481e-21)
(0.821069 -0.441766 0)
(0.0500717 -0.0336056 -3.42345e-21)
(0.24885 -0.0401122 -3.40021e-21)
(0.43667 -0.172503 -1.57592e-21)
(0.306948 -0.1729 -1.61976e-21)
(0.553702 0.0992938 0)
(0.865556 -0.505289 0)
(0.0166468 0.000163304 5.64106e-21)
(0.239189 0.0158505 0)
(0.309132 -0.199122 -8.72653e-22)
(0.527698 -0.200344 0)
(0.48984 0.0424123 3.31554e-21)
(0.775505 -0.466814 2.48465e-21)
(0.0507629 -0.00402245 4.84859e-22)
(0.380573 0.15874 -2.05412e-21)
(0.815197 -0.301451 -2.62335e-21)
(0.214609 -0.185608 0)
(0.240513 -0.0203989 3.36885e-21)
(0.222852 -0.014697 1.51411e-21)
(0.465382 -0.181674 -1.51945e-21)
(0.310706 -0.184626 3.22684e-21)
(0.462924 -0.168334 0)
(0.340863 -0.207506 5.67466e-21)
(0.186778 0.00439536 1.52593e-21)
(0.407874 -0.260529 -3.56557e-21)
(0.171254 0.00806502 -9.83082e-22)
(0.47122 -0.138516 0)
(0.454486 -0.290812 -1.8579e-21)
(0.468013 -0.120885 3.29861e-21)
(0.318516 0.098048 -1.85467e-21)
(0.343539 0.101721 0)
(0.704301 -0.276751 -2.66858e-21)
(0.729408 -0.300253 2.08314e-21)
(0.234938 -0.180211 6.97108e-21)
(0.201029 -0.154327 -5.82166e-21)
(0.0663217 -0.0662429 0)
(0.958405 -0.393767 4.32571e-22)
(0.527828 0.224539 3.01992e-21)
(0.139486 0.0986539 -6.57641e-21)
(0.611644 -0.068229 -2.80235e-21)
(0.677062 -0.520507 4.42013e-21)
(0.0487093 -0.0502236 2.76059e-21)
(0.0384241 -0.0419036 0)
(0.961816 -0.406278 -3.74177e-22)
(0.953337 -0.421333 -7.03038e-22)
(0.544407 0.229853 -7.68466e-21)
(0.551823 0.217398 3.98765e-21)
(0.20212 0.116961 0)
(0.535031 -0.419413 2.6385e-21)
(0.637957 -0.132561 -6.09215e-22)
(0.283371 -0.078449 -7.06975e-21)
(0.293865 -0.140288 0)
(0.389005 -0.161949 5.39273e-21)
(0.557568 0.116287 1.36495e-21)
(0.880411 -0.498931 1.56613e-21)
(0.014159 -0.00475731 0)
(0.248745 0.062285 0)
(0.320367 -0.2339 7.02522e-22)
(0.601802 -0.212236 2.49356e-21)
(0.396714 0.16291 0)
(0.832217 -0.315392 0)
(0.193054 -0.167375 4.47646e-22)
(0.49817 0.22164 0)
(0.496983 0.209013 0)
(0.947538 -0.369837 -3.27429e-22)
(0.104805 -0.0999427 3.39582e-21)
(0.936889 -0.37929 8.82909e-22)
(0.0962128 -0.0914332 -4.60539e-21)
(0.506643 0.126441 -2.85155e-21)
(0.872025 -0.447496 -1.5575e-21)
(0.0411271 -0.0352976 -1.61418e-21)
(0.491855 0.250601 -1.91653e-21)
(0.714308 -0.323014 0)
(-0.011671 0.0331645 1.85181e-21)