/*--------------------------------*- C++ -*----------------------------------*\
  =========                 |
  \\      /  F ield         | OpenFOAM: The Open Source CFD Toolbox
   \\    /   O peration     | Website:  https://openfoam.org
    \\  /    A nd           | Version:  6
     \\/     M anipulation  |
\*---------------------------------------------------------------------------*/
FoamFile
{
    version     2.0;
    format      ascii;
    class       volScalarField;
    location    "0";
    object      P_rec;
}
// * * * * * * * * * * * * * * * * * * * * * * * * * * * * * * * * * * * * * //

dimensions      [0 2 -2 0 0 0 0];

internalField   nonuniform List<scalar> 
13046
(
1.13669
1.08499
1.10087
1.14794
1.12085
1.08659
1.13239
1.0822
1.11844
0.820722
0.517242
1.0525
1.13515
1.02486
1.09176
0.904315
1.03461
0.594589
1.14657
1.11069
1.12923
0.890738
1.0411
0.584329
1.14026
1.11339
1.10727
1.11811
1.02221
1.08495
1.14485
1.06165
1.09015
1.14618
1.12256
1.11374
1.14366
1.12919
1.12235
1.12807
1.0704
1.06718
1.13209
1.14381
1.13248
1.1402
1.13195
1.12185
1.1281
1.07389
1.10282
1.01785
1.11277
1.02224
1.01728
1.01069
1.11284
0.814038
1.05478
1.02669
1.07371
0.952212
1.09271
1.05748
0.723318
0.965721
1.06754
0.83297
1.02076
1.08209
0.861426
1.02282
0.769392
1.038
1.02514
1.14576
1.11486
1.11621
1.0312
1.00627
0.736946
1.13805
1.10176
1.10649
1.05304
0.67717
0.932132
0.936859
1.07281
0.745679
1.0775
0.872493
0.729414
1.07143
1.05309
0.906756
0.878437
1.06584
1.0687
1.07642
0.941048
0.767221
1.14461
1.13362
1.11291
1.12218
1.05307
1.03459
1.11863
1.05095
1.05175
0.665016
1.05244
0.347459
1.13838
1.04848
1.09285
1.05031
1.0683
0.848628
1.05221
0.892695
1.05614
0.789755
0.471902
1.05045
1.10804
0.954041
1.07787
1.12839
1.07147
1.05876
1.07955
0.89644
0.770929
1.02003
0.827629
1.07012
1.13941
1.04219
1.08205
1.1051
1.04478
1.10793
1.11195
1.03602
1.05435
1.1221
1.07496
1.05411
1.06753
0.922059
1.08932
1.13202
1.10525
1.07233
0.978202
1.01375
0.95825
1.01036
1.10473
1.10175
1.1014
1.02175
1.11185
0.808655
1.05685
0.531206
0.717455
1.05149
0.388327
1.00919
0.796596
1.06475
1.12552
1.00266
1.05359
1.10402
1.11629
1.03546
1.06311
0.588205
0.833856
1.12628
1.02626
1.05245
1.12941
1.09034
1.05812
1.11384
1.05562
1.11026
1.0042
1.09665
1.11382
0.982717
1.07874
0.919495
1.0653
0.692705
1.08032
0.934409
0.789742
0.877318
0.708473
1.07541
0.997832
0.977371
1.10312
1.12149
1.01667
1.02241
0.738698
0.667725
0.866522
1.07222
1.13965
1.13061
1.11533
1.12348
1.03584
1.07987
1.08148
0.919254
0.794431
1.11273
1.01402
1.10172
1.0577
0.452328
0.729153
1.10231
0.979323
0.983914
0.911169
0.750382
1.07714
1.04983
0.990788
1.10932
1.09719
0.954989
1.07477
0.862077
0.936134
1.08431
0.989627
0.932887
1.0951
1.06062
0.440827
0.697539
1.12704
1.05104
1.03204
0.689109
1.04431
0.298149
1.13709
1.13741
1.10359
1.06698
1.06822
0.988549
1.00509
1.11117
1.10157
1.02463
0.985797
0.699142
1.11006
0.979332
1.06736
0.984927
0.90263
1.09262
1.0297
0.833698
1.05966
1.13618
1.1281
1.14078
1.03472
0.964483
1.10227
1.11062
0.961126
1.06241
1.11507
1.11214
1.1268
1.03957
1.01016
1.03123
0.941992
1.0976
1.00227
1.05833
0.804186
1.13259
1.05685
1.05587
1.10404
0.992186
0.965511
1.06718
0.875158
1.04387
1.11494
1.02357
1.01182
1.04797
1.04314
0.843165
1.04134
0.829666
1.0466
1.06029
0.615625
0.859049
1.07767
0.919248
1.05783
0.233019
1.05215
0.567129
1.12698
1.12971
1.0706
1.08899
0.977115
1.0938
1.06567
0.949454
0.734792
1.00191
0.99138
1.10959
0.833709
0.931499
1.08308
1.04536
1.10077
1.07463
0.961146
1.08425
1.03603
1.10975
0.937849
1.03601
0.638652
1.00328
0.951043
1.1045
1.06146
0.935628
1.07804
1.09345
1.03064
1.11225
1.05096
1.02484
1.11793
1.1428
1.07729
1.10949
1.10022
0.99544
0.976895
0.899331
0.69695
1.0694
0.836636
0.933295
1.08518
1.08498
1.02209
0.906479
1.02587
1.0407
0.815609
0.779122
1.02939
1.03394
1.05082
0.256276
0.608522
0.719744
1.04266
0.329874
1.05735
0.970967
1.09615
1.06266
0.903968
0.655113
1.07596
1.073
0.891463
0.871979
1.03867
1.03617
1.07177
0.60061
0.790642
0.666487
1.04273
0.251164
1.12163
1.14586
1.12046
0.65765
0.304631
1.05052
1.12403
0.994523
1.04975
0.847368
0.60977
1.06562
0.239395
1.06122
0.480006
1.13133
1.07473
1.08594
1.13116
1.10782
1.12791
0.794126
1.0473
0.462495
1.12392
1.09194
1.12604
1.12719
1.14433
1.12802
1.10537
0.959648
0.976496
1.11421
1.10391
1.1377
1.12904
1.07304
1.1334
1.0934
0.924257
1.01988
1.04513
1.0513
0.580059
0.573979
0.871665
0.861771
0.86262
0.666082
1.06817
1.02512
1.08148
0.874226
1.122
1.04905
1.04008
0.970984
0.924742
1.09025
0.354169
1.06455
0.555688
1.07557
0.861629
0.699756
0.742525
1.0532
0.433085
1.06171
0.201362
0.460216
0.158883
1.05549
0.509034
0.909538
1.02471
1.08735
0.499492
1.06977
0.692075
0.996856
0.813761
1.07203
0.864148
1.02757
0.496872
1.13097
1.10008
1.06541
0.637382
1.07293
0.821818
0.976795
1.09249
0.941462
0.890596
0.985993
1.09235
1.06225
0.0502102
0.343963
0.262751
1.05599
0.543059
1.139
1.11151
1.07503
0.583327
0.782554
1.06937
1.07139
0.748781
0.571287
0.901762
1.05572
0.650234
1.03225
0.700779
0.973378
1.10344
0.918197
1.01824
0.832536
1.05676
1.03577
1.02793
0.948489
0.621279
1.12006
1.11323
1.00124
0.975334
1.06296
1.06312
1.12274
1.01161
1.05963
1.08785
0.885435
1.03625
0.8607
0.959195
1.08697
0.654674
0.861413
1.06951
1.08281
0.960753
0.82928
0.175835
1.0531
0.548181
1.1432
1.14104
1.08804
1.07631
1.09624
1.08151
1.10842
1.09868
1.04081
0.932639
1.03851
0.964932
0.269388
1.06301
0.481074
0.603673
0.809354
1.06915
1.11205
1.0267
0.9993
0.888802
0.951967
1.08891
1.03085
0.724398
0.990147
0.35287
0.633452
1.05888
0.394371
0.655919
1.06049
1.07876
0.890258
1.04651
1.13436
1.05521
1.07263
0.881359
1.05445
0.608058
0.888199
1.00238
1.08837
1.05718
0.757755
0.98874
1.10316
1.04062
0.973121
1.05606
1.004
1.11028
1.12781
1.06141
1.05702
1.05721
0.587815
0.85315
1.02918
0.821732
1.05258
1.13893
1.08445
1.08854
0.918769
1.0246
0.572598
1.12499
1.04454
1.07927
1.11866
1.06003
1.1237
0.912332
1.00649
1.09317
0.78074
1.03621
0.389473
0.806571
1.03256
0.411762
1.05153
0.744841
0.987235
1.0337
1.00348
1.1058
1.03497
0.332683
0.739236
1.07022
0.772306
0.974521
1.06236
0.174576
0.408576
0.478709
0.111525
1.05244
1.03315
0.647218
0.955955
1.05912
0.508115
0.775469
0.908863
0.931878
1.04445
0.615969
1.04764
0.661999
0.960525
0.780726
1.07307
1.09493
0.905711
0.941487
1.15043
1.10266
1.08845
0.978577
0.819545
1.0812
1.08394
0.988556
0.84217
0.967091
1.02456
0.647555
1.10148
0.907368
1.03447
1.11267
0.971904
1.04245
1.03209
0.898962
1.08435
1.02119
0.88614
1.08555
1.14187
1.08396
1.1032
1.11049
0.959964
1.06146
1.07386
0.6513
0.813961
0.633319
1.06384
0.404736
0.600028
1.06652
0.395074
1.12746
1.06645
1.03994
0.315002
1.06061
0.577822
1.00971
1.04977
0.775847
1.06182
0.321703
0.541234
1.14714
1.1279
1.0967
1.10459
0.9861
1.08524
1.01026
1.03401
1.11055
1.0704
0.52908
0.729808
0.887627
1.00398
1.08989
1.02884
0.896266
0.551313
1.08617
0.963476
1.08196
1.15252
1.11023
1.09727
0.53691
0.756655
1.06674
1.06235
0.746962
0.971799
0.767949
0.735979
1.04411
1.04555
0.415228
0.378124
1.0844
1.00689
1.10684
0.933378
1.03863
1.09067
1.1225
1.0735
1.12032
0.455581
0.675024
0.463948
1.06461
0.671346
1.06689
1.05621
0.893094
1.07643
0.750925
0.712008
0.51151
0.472927
1.06505
1.06507
1.03804
0.954146
1.0997
1.10514
1.00751
1.0952
0.840365
1.0329
0.474231
1.10017
0.995411
1.10338
1.12387
1.05082
1.11273
0.787584
1.0378
0.421613
1.08992
0.934979
1.07191
0.949562
0.954269
1.09453
1.10579
0.951487
1.03248
0.794223
1.07935
0.896983
1.05985
0.0883174
0.386989
1.08643
0.983309
1.0914
0.864626
1.03934
0.53552
1.01211
0.934723
1.1042
0.574329
1.04526
0.182774
1.12899
1.12296
1.06085
1.09213
1.0558
1.08303
1.12717
1.07152
1.12507
1.12873
1.1335
1.06884
1.09175
1.0829
1.09112
1.09724
1.02182
1.10691
1.10793
1.0226
1.10828
1.06708
0.425599
0.616793
1.12732
1.03236
1.06201
0.78594
0.535537
1.06201
1.02559
1.00702
0.874229
0.839226
1.07842
1.07509
1.12476
1.05551
1.07224
1.08889
0.919681
1.04078
1.05787
0.922205
1.08462
1.14561
1.11782
1.11241
1.00083
0.843971
1.08108
1.1433
1.09137
1.09567
1.05567
0.954228
1.09701
1.0907
0.939503
1.04394
1.14378
1.14258
1.11113
1.11286
1.11522
1.10538
1.13773
1.07886
1.13789
1.10987
1.0962
1.10013
1.12357
1.12268
1.01652
1.00764
1.07187
1.0683
1.03785
0.718618
0.985178
1.09677
0.972062
0.967981
1.04182
1.04593
0.682052
0.695473
0.960243
0.957932
1.11059
1.02153
0.990972
1.14422
1.12817
1.12605
0.994925
0.821133
1.07735
1.13911
1.07778
1.05707
1.08612
0.925338
1.04612
1.0213
1.02618
0.76878
1.03887
0.786933
1.04261
1.03569
0.868265
1.07302
0.613112
0.228864
1.04569
1.00879
0.955986
1.10408
1.10147
1.10504
1.01626
0.938734
1.02728
0.960782
0.976506
0.855913
1.08625
1.09269
0.941279
1.04381
1.11456
1.0189
0.982044
1.10493
1.11624
1.03372
1.04884
0.995445
0.99163
1.10241
1.03399
0.969082
1.04042
0.886005
1.07884
1.14256
1.0938
1.10584
0.820975
1.04355
0.488461
1.11162
1.01856
0.963907
1.09538
1.08279
0.931532
0.908747
1.0499
1.05466
1.04272
0.53342
0.854153
0.846693
1.03742
0.494712
0.818157
1.03944
0.464133
1.00868
1.04375
0.762345
1.10048
0.966508
1.05067
0.537865
0.696529
0.932374
0.543228
0.86339
0.330376
0.792103
0.640612
0.492777
0.858874
0.856498
0.462031
0.544267
0.848503
0.694326
0.549423
0.580787
0.656307
0.698801
0.816474
0.734001
0.644042
0.879387
1.02348
0.950234
0.701892
0.878508
0.479031
0.754621
0.535153
0.494924
0.791477
0.711593
0.720777
0.533871
0.732173
0.930112
0.87341
0.601288
0.727906
0.61493
1.04604
0.559984
0.849198
0.890726
0.648387
0.656717
0.586785
0.470526
0.561364
0.957678
0.743431
0.551774
0.6322
0.490268
0.95323
0.815857
0.720466
0.577789
0.837506
0.556403
0.570245
0.952932
0.662643
0.721048
0.819731
0.745658
0.996136
0.875927
0.841944
0.438529
0.485335
0.613345
0.837172
0.471376
0.72148
0.685497
0.526555
0.822301
0.909407
0.654605
0.712388
0.476882
0.535852
0.640171
0.832762
0.642403
0.579227
0.68544
0.95776
0.554113
0.841852
0.94631
0.726054
0.548893
0.26951
0.532353
0.592213
0.547115
0.43599
0.772119
0.883944
0.901598
1.00178
0.541214
0.556892
0.475891
0.566299
0.534944
0.927809
0.890609
0.817985
0.520368
0.490309
0.743011
0.862863
0.665612
0.578783
0.416515
0.650433
0.710855
0.963899
0.991151
0.841502
0.716513
0.618639
0.462348
0.978347
0.495491
0.833689
0.427778
0.949556
0.477751
0.498968
0.523149
0.908264
0.710322
0.387849
0.550198
0.798869
0.545918
0.840287
0.754588
0.571498
0.884811
0.628053
0.530194
0.919707
0.558646
0.66827
0.463809
0.722009
0.597193
0.906316
0.841711
0.656796
0.835363
0.840229
0.931515
0.692121
0.607294
0.565468
0.832393
0.494532
0.727622
0.482205
1.02537
0.65195
0.897855
0.981553
0.737637
0.984138
0.912219
0.933221
0.506401
0.42095
0.461367
0.934761
0.512086
0.489396
0.490596
0.491468
0.66567
0.624836
0.736951
0.980394
0.840854
0.620903
0.827791
0.608721
1.03828
0.464077
0.877135
0.574948
0.405956
0.969383
0.993776
0.567021
0.591951
1.02256
0.759953
0.600944
0.539857
0.838764
0.924792
0.792776
0.549067
0.5797
0.847384
0.707754
0.543309
0.765236
0.498858
0.508132
0.621418
0.869123
0.423798
0.628844
0.885423
0.634381
0.420887
0.65148
0.554989
0.600167
0.784691
0.798069
0.532255
0.486318
0.51658
0.820027
0.791891
0.669081
0.806369
0.63592
0.51315
0.771475
0.617941
0.402954
0.799574
0.918964
0.751908
0.952942
0.921641
1.04487
0.550515
0.377449
0.682046
0.654161
0.593184
0.43196
0.766797
0.962324
0.821926
0.767706
0.539548
0.670754
0.81794
0.728259
0.773237
0.560951
0.676182
0.617482
0.486627
0.534436
0.57528
0.555077
0.522065
0.801405
0.712991
0.659932
0.809097
0.552908
0.672861
0.563141
0.654693
0.633862
0.602523
0.760831
0.434415
0.374977
0.678371
0.456103
0.429467
0.768046
0.463323
0.428265
0.907617
0.811958
0.544131
0.811663
0.500672
0.794243
0.764063
0.507875
0.553712
0.864942
0.692013
0.823655
0.333639
0.523446
0.90781
0.609832
0.527451
0.351558
0.443
0.418082
0.450599
0.62849
0.810119
0.515102
0.41001
0.542417
0.596151
1.03964
0.553879
0.834997
0.747532
0.48132
0.621557
0.535858
0.48465
0.788532
0.631825
0.962322
0.790794
0.530946
0.628803
0.745246
1.02049
0.807681
0.932145
0.847019
0.616759
0.742687
0.670081
0.533892
0.44189
0.596637
0.583683
0.783167
0.571113
0.469931
0.549784
0.609623
0.545545
0.573397
0.892013
0.594948
0.578312
0.942207
0.881653
0.53278
0.704423
0.925552
0.5892
0.455456
0.627615
0.51977
0.48084
0.912734
0.548918
0.638756
0.923995
0.433685
0.727055
0.550316
0.73855
0.632141
0.580108
0.293015
0.622674
0.468051
0.619909
0.647686
0.651377
0.812642
0.956201
0.545435
0.696016
0.606816
0.527541
0.398855
0.879004
0.753721
0.625506
0.472913
0.741544
0.460884
0.554702
0.541319
0.529221
0.847417
0.942137
0.609823
0.806359
0.999973
0.888019
0.873056
0.935594
0.593789
0.590157
0.483292
1.02113
0.859843
0.901658
0.580032
0.640213
0.413285
0.82113
0.606208
0.548825
0.90133
0.772224
0.503468
0.617743
0.544703
0.549321
0.552542
0.631165
0.657846
0.503725
0.601368
0.448893
0.622924
0.511036
0.767131
0.68329
0.424886
0.931238
0.949521
0.84275
0.606281
0.735231
0.463922
0.860466
0.733788
0.465955
0.924501
0.401353
0.965174
0.455513
0.665179
0.664955
0.842991
0.842057
0.546841
0.988392
0.559084
0.890058
0.664349
0.77098
0.593001
0.537513
0.584069
0.892868
0.654442
1.0142
0.82383
0.441154
0.553532
0.7959
0.417938
0.61077
0.664919
0.503138
0.962875
0.514586
0.494333
0.858602
0.588866
0.961753
1.00331
0.650536
1.01235
0.966319
0.903119
0.909329
0.756667
0.474216
0.556113
0.640749
0.883426
0.629705
0.403611
0.985815
0.518018
0.676533
0.547436
0.936873
1.03461
0.527155
0.889105
0.744524
0.954624
0.622604
0.850306
0.664527
0.983234
1.00916
0.80494
0.551601
0.846999
0.583456
0.701745
0.708388
0.644929
0.751822
0.5695
0.403615
0.486456
0.661098
0.768299
0.709888
0.910333
0.539001
0.604368
0.763553
0.486827
0.946662
0.536935
0.66454
0.923907
0.903007
0.726038
0.99592
0.537054
0.636515
0.848565
0.678061
0.67312
0.6651
0.586595
0.798599
0.822929
0.586361
0.545824
0.730745
0.442484
0.502532
0.953978
0.99427
1.00958
0.645975
1.00832
1.02906
0.969478
0.394463
0.761081
0.754295
0.997753
0.619887
0.544265
0.466956
0.549101
0.378812
0.979051
0.690268
0.70123
0.855195
0.808047
0.60943
0.661017
1.02915
0.972561
0.934459
0.792829
0.620098
0.808653
0.78669
0.621348
0.660457
0.49642
0.548499
0.692753
0.692266
0.587508
0.951129
0.958806
0.40086
0.905671
0.555807
0.54999
0.609199
0.943092
0.645888
0.801252
0.679762
0.938266
0.63375
0.678639
1.00091
0.407013
0.44208
0.53603
0.510674
0.373787
0.23425
0.520731
0.376357
0.699455
0.3947
0.502459
0.692029
0.604335
0.524557
0.595571
0.481773
0.269122
0.965536
0.883302
0.644834
0.467835
0.891273
0.627068
0.54293
1.00673
0.527579
0.99886
0.639524
0.915195
0.643268
0.465557
0.497302
0.703974
0.710076
0.702137
0.470016
0.639491
0.510127
0.508648
0.561506
0.430138
0.488074
0.976283
0.53397
0.830811
0.857376
0.623677
0.86646
0.862468
0.466669
0.241952
0.663398
0.443198
0.381501
0.829003
0.843215
0.646833
0.780515
0.609548
1.00044
0.962738
0.674054
0.597478
0.991227
0.918925
0.773613
0.766551
0.631023
1.0071
0.688206
0.398289
0.940714
0.875348
0.958291
0.718602
0.558841
0.606695
0.846319
0.792573
0.170886
1.05092
0.659564
0.536431
0.726838
0.903454
0.992886
1.01675
0.777237
0.662205
0.864414
0.918097
0.926255
0.825992
0.883268
0.478982
0.553175
0.728612
0.483355
0.468813
0.427551
0.65602
0.867573
0.448593
0.704138
0.554648
0.885524
1.01725
0.690198
0.477826
0.417726
0.842085
0.597551
0.541403
0.416455
0.941432
0.750382
0.770465
0.457025
0.762151
0.539757
0.550972
0.82198
0.865935
0.941585
1.03277
0.519287
0.915485
0.40132
0.938099
0.960768
0.959953
0.860921
0.503718
0.503018
0.655407
0.397082
0.679686
0.42853
0.73499
0.462832
0.903681
0.626543
0.409644
0.902358
0.829062
0.667116
0.676512
0.8218
0.93831
0.749038
0.694028
0.404951
0.881179
0.706814
0.969159
0.376905
0.696701
0.942927
0.838529
0.995238
0.8369
0.639697
0.361859
0.411314
0.681475
0.436735
0.97365
0.408
0.564352
0.660199
0.547011
0.861891
0.38162
0.931543
0.849614
0.76919
0.403111
0.771105
0.522092
0.597312
0.688243
0.66
0.637835
0.626405
0.869887
0.51228
1.00322
0.627064
0.665836
0.808192
0.820279
0.974622
0.639898
0.678659
0.524417
0.659175
0.612645
0.973035
0.548089
0.698415
0.630007
0.877603
0.595921
0.718223
0.481643
1.01791
0.393429
0.502379
0.585903
0.884591
0.414586
0.419423
0.492136
0.467954
0.95017
0.68642
0.80445
0.91585
0.782131
0.696781
1.02031
0.680517
0.824703
0.78958
0.700306
0.427033
0.718339
0.696668
0.569961
0.71671
0.505166
0.441485
0.739749
0.6093
0.512889
0.867881
0.660109
0.800604
0.687589
0.956708
0.653589
0.634583
0.787082
0.468532
0.538404
0.632129
0.706172
0.74287
0.792341
0.942573
0.813644
0.884339
0.732255
0.91762
0.978762
0.980538
0.723565
0.683188
0.743055
0.476228
0.989971
0.913555
0.886686
0.71357
0.508747
0.432849
0.745838
0.836492
0.536749
0.881544
0.907758
0.785154
0.552386
0.702964
0.5737
0.538793
0.717119
0.559898
0.770361
0.417164
0.769283
0.65096
0.676
0.382604
0.735459
0.712972
0.809627
0.617387
0.759744
0.950268
0.958472
0.778845
0.646111
0.886019
0.73495
0.543884
0.541095
0.656736
0.457497
0.937702
0.674798
0.747023
0.849771
0.830282
0.763376
0.499751
1.00224
0.770456
0.557143
0.689752
0.722216
0.886044
0.946513
0.774929
0.767347
0.418125
0.521233
0.682944
0.778979
0.701335
0.781588
0.581983
0.955218
0.755803
0.853486
0.922442
0.744436
0.534331
0.697936
0.98766
0.61849
0.41192
0.69386
0.993628
0.601125
0.660947
0.875097
0.831314
0.89225
0.703398
0.424239
0.781794
0.480502
0.609719
0.901351
0.700411
0.482119
0.535833
0.597449
0.793424
0.597012
0.562456
0.920041
0.565402
1.02223
0.89001
0.46484
0.36612
0.673522
0.831906
0.920085
0.706799
0.682825
0.532614
0.655031
0.650367
1.03154
0.935277
0.840989
0.594514
0.435216
0.942029
1.01045
0.95251
0.882195
0.928491
0.692614
0.483272
0.392946
0.414572
0.970135
0.719328
0.531058
0.61417
1.0077
0.630231
0.554001
0.448817
0.707651
0.533612
1.00309
0.787266
0.830409
0.939467
0.897331
0.668177
0.80995
0.696842
0.80455
0.611399
0.77817
0.574818
0.972268
0.47785
0.608559
0.530135
0.635911
0.948023
0.636518
0.90082
0.909616
0.936089
0.505909
0.693373
0.679842
0.535704
0.960408
0.717233
0.708882
0.781541
0.353812
0.620512
0.955111
0.812402
0.959999
0.403088
0.499906
0.641441
0.980481
0.560452
0.653919
0.526176
0.493587
0.59931
0.964481
0.627924
0.688961
0.455982
0.994874
0.999841
0.362088
0.953582
0.619162
0.509041
0.50572
0.711892
0.443955
0.764749
0.597255
0.609334
0.642433
0.928115
0.705379
0.894949
0.632394
0.492559
0.633959
0.402571
0.434932
0.69124
0.597265
0.722753
0.515595
0.66743
0.907881
0.759898
0.610843
0.461989
0.927382
0.716428
0.660258
1.0208
0.726425
0.603797
0.589203
0.512688
0.990206
0.57559
0.677743
0.793673
0.461983
0.934357
0.489692
0.916119
0.685249
0.859939
0.530016
0.862916
0.67658
0.468329
0.544052
0.683132
0.937587
0.364521
0.540128
0.639779
0.97047
1.00327
0.525727
0.587933
0.758277
0.979837
0.646566
0.949264
0.922355
0.886755
0.851296
0.763537
0.793693
0.785071
0.964078
0.654442
0.708089
0.524241
0.552507
0.648596
0.510537
0.991947
0.481242
0.941755
0.642917
0.980617
0.58961
1.00207
0.859611
0.908431
0.980823
0.950684
1.01668
0.658826
0.933069
0.677703
0.637666
0.538437
0.518506
0.959133
0.483279
0.792205
0.796457
0.670141
0.765834
0.574727
0.944932
0.738911
0.857453
0.38778
0.537891
0.643007
1.00102
0.535313
0.81788
0.558896
0.642377
0.477793
0.650574
0.627916
0.891939
0.969289
0.445864
0.78492
0.640419
0.59629
0.905367
0.532236
0.548682
0.977062
0.414968
0.71365
0.83999
0.948214
1.01094
0.564579
0.555672
0.458707
0.607523
0.538195
0.637088
0.848478
0.614369
0.47511
0.683756
0.692689
0.591879
0.541438
0.637197
0.704496
0.473343
0.87873
0.862138
0.576805
0.861941
0.461927
0.455968
0.536662
0.408387
0.992411
0.623923
0.625914
0.576148
0.900723
0.964151
0.752606
0.842523
0.55309
0.559148
0.691222
0.62653
0.538643
0.961028
0.735954
0.790657
0.990106
0.877366
0.664157
0.984162
0.441143
0.758104
0.752499
0.799353
0.618217
0.958135
0.616941
0.791705
0.688646
0.58821
0.509567
0.563749
0.861319
0.908407
0.936305
0.699346
0.727535
0.962117
0.868197
0.692274
0.716258
0.496541
0.661826
0.897169
0.440695
0.917735
0.631222
0.930444
1.0043
0.967691
0.623018
0.910425
0.919628
0.422965
0.957741
0.568778
0.974951
0.888409
0.644725
0.516799
0.732892
0.664633
0.6146
0.551496
0.873813
0.580481
0.979493
0.501864
0.570495
0.534706
0.49827
0.627542
0.901305
0.99642
0.496732
0.850764
0.719113
0.794132
0.653603
0.751936
0.955844
0.895354
0.636166
0.946557
0.908403
0.999981
0.494815
0.618712
0.544675
0.850298
0.984406
0.913269
0.677397
1.00292
0.681639
0.450474
0.515075
0.361869
0.65634
0.481529
0.992741
1.02418
0.730923
1.00894
0.900458
0.752336
0.995848
0.49708
0.956456
0.66026
0.962069
0.617031
0.505131
0.847685
0.743616
0.97599
0.949583
0.957662
0.521629
0.523306
0.429896
0.910921
0.892838
0.51738
0.685607
0.894003
0.399378
0.589317
0.521282
0.653266
0.779569
0.646538
0.75227
0.832277
0.723362
0.735041
0.869323
0.618931
0.625669
0.787378
0.729289
0.626719
0.932887
0.963755
0.520034
0.888961
0.387212
0.576302
0.93432
0.873675
0.631515
0.966661
0.488469
0.860537
0.631771
0.624993
0.943425
0.621788
0.865907
0.845596
0.814675
1.02628
0.826381
0.462748
0.805016
0.649884
0.874833
1.02798
0.808677
0.677671
0.537467
0.626882
0.945718
0.488989
0.896754
0.528774
0.740039
0.874494
0.861503
0.726077
0.929854
1.00163
0.61801
0.618463
0.734779
0.515325
0.483342
0.757165
0.849216
0.5485
0.463113
0.54094
0.459033
0.859111
0.674591
0.879965
0.561907
0.956816
0.717808
0.906579
0.989023
0.563624
0.952418
0.60429
0.744606
0.68961
0.916848
0.550314
0.647229
0.699035
0.511911
0.62676
0.498705
0.478554
0.38872
0.989481
0.999639
0.547057
0.563348
0.872763
0.440155
0.535599
0.632172
0.841864
0.849889
0.421245
0.388453
0.948625
0.557113
0.773648
0.549945
0.452391
0.517759
0.727328
0.91484
0.769563
0.449456
0.959899
0.91441
0.5383
0.776827
0.621478
0.987498
0.640924
0.649712
0.46778
0.826231
0.957483
0.795701
0.733155
0.551783
0.665915
0.765153
0.996744
1.01495
0.545682
1.00567
0.560852
0.764776
0.761342
0.689591
0.601046
0.918935
0.624231
0.736432
0.534037
0.594775
0.626315
0.505503
0.811514
0.961409
0.540026
0.580196
0.750549
0.609675
0.544885
0.399522
0.595396
0.91456
0.409252
0.624189
0.83043
0.756855
0.673634
0.818291
0.893291
0.528385
0.530113
0.909105
0.667513
0.512873
0.681635
0.914376
0.815383
0.772137
0.551707
0.570593
0.541269
0.997819
0.914265
1.00492
0.667259
0.837617
0.486085
0.708388
0.918876
0.447409
0.460896
0.864392
0.919585
0.435896
0.576995
0.544606
0.512327
0.540734
1.01166
0.641198
0.571655
0.732134
0.537024
0.844129
0.742538
0.477732
0.576835
0.864573
0.664366
0.999503
0.479391
0.590275
0.785312
0.77722
0.698377
0.780662
0.510077
1.00785
0.951421
0.789673
0.921489
0.552637
0.91519
0.821213
0.777954
0.984553
0.440758
0.594174
1.02125
0.824642
0.432833
0.628763
0.889327
1.01536
0.711326
0.871769
0.548462
0.466284
0.525322
0.427159
0.917472
0.565138
0.737684
0.972868
0.558192
0.528106
0.554291
0.720193
0.564046
0.626218
0.542695
0.502472
0.664258
0.895032
0.978683
0.823694
0.596193
0.594921
0.415705
0.597476
0.804229
0.788732
0.801109
0.837935
0.596979
0.711201
0.88654
0.924264
1.01374
0.938504
0.989727
0.674524
0.488833
0.529343
0.491965
0.998729
0.730897
0.565946
0.981464
0.494757
0.892035
0.842266
0.582076
0.549325
0.592643
0.579809
0.921134
0.667886
0.84398
0.697617
0.972673
0.770017
1.03164
0.53012
0.704155
0.614244
0.379414
0.609022
0.857084
0.504407
0.337956
0.772542
0.961657
0.878196
0.577325
0.476246
0.528773
0.500975
0.551293
0.500919
0.688948
0.506839
0.865075
0.541395
0.561434
0.947293
0.673355
0.801925
0.911819
0.687774
0.738433
0.522081
0.861818
0.671025
0.579845
0.653635
0.518896
0.47354
0.559712
0.562608
0.870146
1.00694
0.929997
0.76802
0.844414
0.443907
1.00619
0.745986
0.84125
0.558022
0.84622
0.630209
0.620037
0.899248
0.960687
0.862175
0.777373
0.642668
1.01893
0.607722
0.882441
0.993244
0.831198
0.64562
0.437062
0.882364
0.729568
0.508473
0.821479
0.724166
0.964783
0.558593
0.973055
1.0144
0.677222
0.530317
0.988801
0.475514
0.51595
0.617177
0.510481
0.59443
0.516061
0.480978
0.696535
0.561859
0.524868
0.608377
0.785134
0.601419
0.556727
0.813692
0.735886
0.451834
0.965423
0.997147
0.983921
0.550615
0.448448
1.04103
0.46582
0.674554
0.539129
0.638965
0.557978
0.861669
0.613539
0.62887
0.462222
0.443172
0.511847
0.619327
0.43104
0.721476
0.76039
0.712009
0.977532
0.730512
0.801631
0.631271
0.907661
0.648317
0.63137
1.01788
0.6102
0.718402
0.480863
0.831184
1.00154
0.679067
0.772296
0.724384
0.630264
0.546286
0.556115
0.502359
0.86806
0.522616
0.656807
0.626856
0.679558
0.529739
0.557335
0.676198
0.663379
0.599015
0.997974
0.687265
0.63611
0.776007
0.962186
0.628027
0.446639
0.869693
0.477485
0.645704
0.545482
0.666071
0.624991
0.626072
0.66749
1.0022
0.929088
0.456139
0.595875
0.44299
0.535489
0.431619
0.506588
0.597349
0.523938
0.607617
0.801289
1.01048
0.615714
0.848576
0.705221
0.996298
0.617944
1.00087
0.801797
0.488995
0.784822
0.853914
0.638801
0.90666
0.544506
0.936934
0.581096
0.371359
0.701364
1.01278
0.985952
0.872568
0.795506
0.824549
0.458491
0.612311
0.819034
1.03268
0.384951
0.677676
0.547997
0.644493
0.673677
0.532525
0.489032
0.571928
0.507703
0.571475
0.656832
0.665353
1.02495
0.905508
0.428757
0.884193
0.520197
0.547521
0.889348
0.582429
0.645491
0.812365
0.426043
0.548469
0.707029
0.923072
0.49693
0.561694
0.643053
0.802181
0.492475
0.96661
0.444284
0.628557
0.650147
0.573801
0.792008
0.804628
0.964852
0.544625
0.853782
0.767526
0.791693
0.542112
0.787496
0.531616
0.483347
0.409637
0.738084
0.704779
0.651057
0.932817
0.689078
0.733142
0.783822
0.535967
0.516851
0.620566
0.757304
0.54913
1.00789
0.481002
0.446418
0.610807
0.631214
0.556352
0.544397
0.837853
0.620259
0.71415
0.493022
0.545357
0.714426
0.49459
1.0106
0.988016
0.498173
0.530098
0.908019
0.695268
0.535346
0.47369
0.536354
0.505279
0.76149
0.960083
0.533607
0.453018
0.801317
0.682043
0.444929
0.497683
0.676917
0.844327
1.00983
0.486266
0.44696
0.781544
0.915869
0.670236
0.746646
0.645231
0.54531
0.631766
0.802891
0.702401
0.548223
0.89462
0.644857
0.411591
0.751924
0.562316
0.897654
1.02724
0.553984
0.621664
0.627019
0.616605
0.482129
0.636948
0.502656
0.982314
0.894856
0.844197
0.60142
0.463147
0.879005
1.0037
0.557767
0.746371
0.626241
0.385986
0.732315
0.636083
0.396246
0.5733
0.783735
0.49285
0.448894
0.505676
0.8962
0.477452
0.883166
0.653558
0.555285
0.65991
0.523435
0.899247
0.416577
0.631118
0.668119
0.480464
0.745763
0.820687
0.774377
0.70713
0.877988
0.500225
0.497443
0.944827
0.544473
0.939025
0.782802
0.673964
0.728806
0.931392
0.682234
0.439027
0.965413
0.541057
0.679874
0.920194
0.533644
0.973704
0.543568
0.646722
0.423991
0.639815
0.501547
0.700993
0.523375
0.411369
0.510421
0.494805
0.391119
0.957744
0.494074
0.636406
0.755261
0.691894
1.0074
1.00756
0.619512
0.675218
0.900937
0.609737
0.961262
0.402022
0.655265
0.735755
0.56466
0.910851
0.625403
0.631255
0.579321
0.56312
0.539869
0.417375
0.935044
0.288402
0.966503
0.842904
0.523078
0.449058
0.519507
1.01579
0.827856
0.810279
0.679126
0.746338
0.67513
0.928563
0.872821
0.525338
0.777287
0.97711
0.687696
0.742026
0.775017
0.428397
0.491971
0.880468
0.640312
0.659654
0.975721
0.491176
0.407781
0.577218
0.65508
0.693832
0.994007
0.547195
0.471689
0.553621
0.654653
0.55264
0.948507
0.665099
0.521347
0.630244
0.559085
0.531617
0.590625
0.788695
0.69888
0.518077
0.931626
0.644671
0.904119
0.519273
0.487296
0.617271
0.923328
0.991482
0.898108
0.727424
0.701998
0.889501
0.982775
0.481678
0.961979
0.512673
0.806678
0.804412
0.945391
0.722225
0.930059
0.957351
0.55282
0.544256
0.63718
0.682039
0.512092
0.53608
0.475789
0.86563
0.909798
0.47419
0.969019
0.715615
0.882067
0.679569
0.517503
0.900836
0.87929
0.625145
0.578945
0.502606
1.0156
0.836465
1.03723
0.475214
0.511402
0.665868
0.917069
0.797585
0.932482
0.713175
0.988291
0.575694
0.642174
0.742544
0.592518
0.789378
0.451017
0.895333
0.686273
0.736652
0.962796
0.465777
0.477588
0.417679
0.74823
0.935768
0.578644
0.797576
0.459953
0.466716
0.6638
0.565491
0.539598
0.930079
0.688132
0.536674
0.652596
0.749339
0.963009
0.751647
0.659445
0.935414
0.689027
0.991611
0.736189
0.847687
0.664461
0.478978
1.01257
0.515957
0.728572
0.77331
0.957714
0.832776
0.699633
0.554356
1.02105
0.651964
0.529867
0.870696
1.00847
0.850838
0.814879
0.461003
0.405152
0.754899
0.51985
0.647912
0.726268
0.517104
0.960038
1.01685
0.970558
0.594344
0.639405
0.538309
0.610389
0.810976
0.498897
0.822263
0.98162
0.483387
0.629871
0.572548
0.892315
0.812725
0.640309
0.524289
0.855473
0.540138
0.439637
0.510424
1.0222
0.410153
0.891166
0.767528
0.544541
0.977794
0.760512
1.00818
0.426795
0.630853
0.730686
0.966644
0.611819
0.955582
0.76333
0.41073
0.708424
0.586044
0.626031
0.40386
0.871823
0.632032
0.524925
0.443597
0.710197
0.937607
0.350824
0.602182
0.93734
0.6268
0.918933
0.398951
0.544964
0.543707
0.674101
0.61414
0.459714
0.540357
0.364059
0.6546
0.661751
0.882231
0.717323
0.940552
0.532356
0.636332
0.46335
0.690829
0.360416
0.640166
1.03166
0.650684
0.592841
1.01612
0.537304
0.755066
0.793563
0.455531
0.600375
0.688911
0.735406
0.978485
1.00653
1.00832
0.745384
0.629778
0.678399
0.517471
0.907566
0.799179
0.555861
0.593779
0.585894
0.683618
1.01282
0.654791
1.00769
0.632708
0.774708
0.522195
0.541155
0.463801
0.571276
0.953536
0.584171
0.475472
0.501459
1.01604
0.603239
0.520297
0.513091
0.540935
0.839999
0.710705
0.720352
0.629294
0.837875
0.451808
0.675233
0.714686
0.599439
0.927441
0.936906
0.528868
0.945142
0.97345
0.928687
0.728932
0.652463
0.580137
0.670627
0.979839
0.684518
0.748395
0.942518
1.01289
0.972923
0.934834
0.548333
0.804895
0.689478
0.537535
0.434862
0.645866
0.92624
1.01344
0.984415
0.578819
0.511685
0.490403
0.472944
0.810029
1.00794
0.792884
0.865497
0.879609
0.873841
0.854288
0.537321
0.601402
0.570357
0.499734
0.550906
0.632185
0.478206
0.588846
0.553281
0.951619
0.779601
0.43953
1.00247
0.565389
0.552195
0.664967
0.507263
0.843176
0.853591
0.560469
0.772897
0.998734
1.01364
0.819042
0.839886
0.663787
0.718351
0.670101
0.460908
0.741338
0.754492
0.581975
0.811124
0.786838
0.476653
0.339958
0.569347
0.97866
0.581202
0.835053
0.638026
0.975181
0.656166
0.516642
0.891805