/*--------------------------------*- C++ -*----------------------------------*\
  =========                 |
  \\      /  F ield         | OpenFOAM: The Open Source CFD Toolbox
   \\    /   O peration     | Website:  https://openfoam.org
    \\  /    A nd           | Version:  6
     \\/     M anipulation  |
\*---------------------------------------------------------------------------*/
FoamFile
{
    version     2.0;
    format      ascii;
    class       volScalarField;
    location    "0";
    object      p;
}
// * * * * * * * * * * * * * * * * * * * * * * * * * * * * * * * * * * * * * //

dimensions      [0 2 -2 0 0 0 0];

internalField   nonuniform List<scalar> 
13046
(
0.810416
0.801993
0.829517
0.83348
0.830703
0.808475
0.807483
0.813473
0.83503
0.320003
0.241813
0.74411
0.797576
0.74519
0.811338
0.437853
0.744029
0.325644
0.84416
0.83702
0.827976
0.420167
0.746234
0.314524
0.818835
0.834053
0.832314
0.770246
0.748969
0.810047
0.819334
0.768046
0.819744
0.837853
0.842976
0.827398
0.840247
0.848494
0.839357
0.799575
0.812798
0.753926
0.839386
0.85605
0.84408
0.84035
0.840085
0.84248
0.796701
0.796592
0.828037
0.764827
0.781985
0.684094
0.77758
0.65523
0.784058
0.51908
0.661599
0.758829
0.703672
0.699456
0.789981
0.758769
0.465278
0.526895
0.685013
0.531213
0.755642
0.708539
0.553521
0.75951
0.478277
0.636529
0.75647
0.842851
0.848542
0.807947
0.755805
0.586243
0.463825
0.814261
0.825806
0.827483
0.753883
0.419665
0.480177
0.494386
0.757186
0.499598
0.741637
0.418238
0.484628
0.689002
0.660397
0.644195
0.620245
0.781099
0.780135
0.757508
0.504575
0.526157
0.840479
0.839329
0.836963
0.809248
0.702395
0.792672
0.789409
0.800446
0.716618
0.117959
0.737221
0.0381615
0.804109
0.768473
0.812317
0.653487
0.682588
0.58051
0.771657
0.626437
0.775978
0.277741
0.18679
0.741718
0.746678
0.67383
0.799862
0.796038
0.81052
0.75209
0.743329
0.455257
0.53655
0.609072
0.571568
0.770096
0.80588
0.754053
0.811423
0.754174
0.794238
0.809047
0.780277
0.782962
0.716856
0.806889
0.726981
0.81052
0.689213
0.666462
0.783828
0.834014
0.778227
0.814975
0.737811
0.644342
0.720767
0.633979
0.778417
0.776088
0.759795
0.760358
0.796554
0.312192
0.743281
0.263394
0.183439
0.739285
0.0887662
0.590787
0.53699
0.767558
0.788167
0.687258
0.797054
0.767245
0.799918
0.773757
0.745414
0.32451
0.344369
0.79254
0.712364
0.792563
0.828989
0.760226
0.803517
0.770925
0.797872
0.810902
0.732281
0.811154
0.758314
0.705918
0.799552
0.463317
0.754145
0.439829
0.75309
0.503359
0.550555
0.419709
0.470001
0.744265
0.7454
0.630127
0.763596
0.781366
0.598388
0.748253
0.460784
0.418067
0.396793
0.742496
0.833946
0.845115
0.836358
0.77902
0.75949
0.80868
0.751097
0.487188
0.561675
0.762379
0.746362
0.815059
0.738679
0.168686
0.207642
0.764425
0.626201
0.734019
0.46858
0.514811
0.751248
0.693612
0.745768
0.793962
0.730852
0.683325
0.798319
0.626458
0.524176
0.745055
0.60302
0.694945
0.764043
0.738121
0.159558
0.168139
0.799247
0.801565
0.70031
0.151769
0.7367
-0.0294652
0.836535
0.830324
0.829583
0.701304
0.714987
0.74006
0.756198
0.802015
0.790339
0.746907
0.553361
0.420626
0.752681
0.70152
0.794826
0.595041
0.658978
0.763154
0.624644
0.576799
0.771322
0.845408
0.836963
0.856629
0.66498
0.721441
0.780757
0.752051
0.673964
0.79236
0.764894
0.758252
0.798962
0.789815
0.676839
0.654866
0.696752
0.776776
0.58486
0.766624
0.554192
0.814019
0.802716
0.732694
0.775324
0.625314
0.722732
0.682943
0.598094
0.770595
0.782921
0.768614
0.67955
0.653114
0.641915
0.573191
0.76631
0.560238
0.768278
0.747503
0.357531
0.379192
0.699534
0.651923
0.781539
-0.118383
0.7335
0.00249987
0.812616
0.81946
0.803492
0.726265
0.720493
0.794821
0.758893
0.508616
0.487373
0.764606
0.626684
0.777797
0.596628
0.513353
0.747257
0.782103
0.815473
0.699485
0.707316
0.793136
0.767893
0.816781
0.485124
0.748339
0.372006
0.755138
0.602877
0.763494
0.677219
0.685909
0.78612
0.746806
0.779298
0.809059
0.712371
0.773054
0.796385
0.821061
0.797913
0.829907
0.764952
0.632147
0.731643
0.44262
0.452077
0.752285
0.606958
0.51177
0.753685
0.719422
0.759229
0.596747
0.616342
0.641396
0.540084
0.502487
0.753745
0.760097
0.736035
-0.0834733
0.0505689
0.190636
0.736686
0.00996793
0.680027
0.725281
0.780733
0.751414
0.439259
0.395007
0.699825
0.691245
0.601822
0.580915
0.772591
0.766882
0.73596
0.351155
0.297698
0.119864
0.734949
-0.0904222
0.824275
0.846768
0.844907
0.106641
-0.0202499
0.737818
0.782216
0.686944
0.788426
0.363315
0.350195
0.744771
-0.0960179
0.735721
-0.110247
0.808264
0.813774
0.772682
0.810553
0.842554
0.834477
0.2879
0.740934
0.175922
0.800435
0.829514
0.829859
0.83202
0.849577
0.849376
0.76975
0.594266
0.735694
0.797252
0.840976
0.834394
0.82026
0.802745
0.819118
0.735211
0.608718
0.760227
0.745254
0.746609
0.308699
0.302126
0.389931
0.377736
0.393318
0.42358
0.748713
0.766167
0.711219
0.558252
0.789411
0.791307
0.721453
0.586014
0.682583
0.752198
0.0550024
0.732314
-0.012557
0.741862
0.40009
0.454306
0.216289
0.739854
0.142171
0.738128
-0.14776
-0.134622
-0.212562
0.738626
-0.0702446
0.667759
0.629803
0.771027
0.239363
0.732758
0.166229
0.578697
0.564634
0.767991
0.378006
0.737027
0.211244
0.793489
0.816515
0.801311
0.390751
0.738193
0.338868
0.60098
0.7549
0.69562
0.648211
0.592656
0.767228
0.742655
-0.364808
-0.278767
-0.0696017
0.733463
-0.0319399
0.809834
0.826514
0.802049
0.336511
0.286917
0.740704
0.734493
0.246453
0.320745
0.439809
0.751233
0.396467
0.749307
0.434323
0.536931
0.750572
0.591428
0.763532
0.545873
0.665497
0.766845
0.745486
0.496226
0.339476
0.773623
0.759982
0.707686
0.6855
0.796819
0.796856
0.779408
0.712942
0.797037
0.71704
0.584195
0.77435
0.628148
0.54908
0.757958
0.401963
0.388686
0.745524
0.756758
0.542314
0.59112
-0.195256
0.737809
-0.0209558
0.822517
0.817833
0.824437
0.772042
0.829884
0.784037
0.751984
0.741836
0.779661
0.62085
0.778117
0.660236
-0.061478
0.732772
-0.101368
0.359679
0.324406
0.74298
0.773447
0.769932
0.676969
0.6532
0.550411
0.752385
0.750798
0.454823
0.562233
0.0463512
0.08064
0.736954
0.101487
0.108979
0.736529
0.699878
0.605612
0.777099
0.81929
0.79755
0.750184
0.406195
0.748657
0.342988
0.64921
0.601985
0.772524
0.763653
0.499176
0.560742
0.751362
0.783076
0.663497
0.706294
0.754341
0.789562
0.800904
0.805865
0.73781
0.746604
0.324254
0.367984
0.621539
0.559022
0.768215
0.820045
0.821734
0.781091
0.452804
0.74003
0.289788
0.784046
0.755544
0.812543
0.791752
0.795114
0.823649
0.670243
0.615147
0.769396
0.263855
0.736832
0.0834845
0.298176
0.736107
0.11003
0.761224
0.481774
0.556851
0.673296
0.760904
0.77882
0.734047
0.0146635
0.208373
0.762073
0.520904
0.544345
0.736323
-0.188122
-0.1925
-0.111802
-0.272473
0.736994
0.749128
0.370322
0.50808
0.741622
0.236418
0.267841
0.442352
0.477329
0.74847
0.34549
0.752372
0.39949
0.529791
0.538907
0.761453
0.761273
0.670546
0.543887
0.834734
0.829804
0.796968
0.56112
0.576136
0.763553
0.763902
0.577694
0.596764
0.524057
0.746042
0.361851
0.739873
0.594779
0.774078
0.763286
0.669123
0.77953
0.637914
0.656396
0.781114
0.622895
0.643784
0.775901
0.826225
0.816591
0.800891
0.754333
0.664611
0.797968
0.7364
0.411521
0.336869
0.0872892
0.734551
0.117733
0.0424557
0.73493
0.111054
0.792961
0.806584
0.732309
0.0016167
0.736339
0.0137793
0.59083
0.763811
0.510425
0.733183
0.01084
-0.0318588
0.838444
0.835874
0.818841
0.744182
0.72676
0.79978
0.762363
0.684701
0.783746
0.734663
0.273666
0.217251
0.642817
0.608414
0.767983
0.740506
0.4226
0.271142
0.715314
0.708014
0.796903
0.842891
0.837702
0.804205
0.275337
0.246326
0.737809
0.761378
0.494008
0.537267
0.252473
0.210823
0.739476
0.738188
0.119725
0.0738874
0.727389
0.756238
0.801389
0.688228
0.653829
0.775102
0.798076
0.808233
0.832695
0.180071
0.141961
0.190594
0.734892
0.136397
0.732444
0.665699
0.637097
0.7833
0.23652
0.186693
0.245904
0.201209
0.739664
0.738326
0.660711
0.712576
0.788116
0.757443
0.751463
0.804152
0.344914
0.738148
0.183435
0.746806
0.734124
0.79911
0.79199
0.780991
0.818855
0.270542
0.737497
0.123995
0.718769
0.664684
0.787895
0.714338
0.57474
0.755646
0.755519
0.631727
0.777039
0.566009
0.739476
0.46375
0.739596
-0.308026
-0.2245
0.720513
0.725336
0.798036
0.381166
0.743269
0.258174
0.759968
0.595668
0.757732
0.00251596
0.734569
-0.174023
0.819225
0.804043
0.802034
0.768818
0.801287
0.749835
0.804494
0.805411
0.828577
0.807038
0.822627
0.809443
0.773902
0.829109
0.764302
0.739853
0.764241
0.813752
0.760138
0.767703
0.810544
0.731395
0.14706
0.0700806
0.78975
0.731846
0.798473
0.281011
0.268223
0.741978
0.625136
0.595205
0.628711
0.591231
0.775339
0.769055
0.786084
0.76431
0.807474
0.721013
0.628292
0.774443
0.673628
0.672285
0.787578
0.839264
0.828998
0.836379
0.590333
0.599208
0.767765
0.822332
0.821122
0.803269
0.680468
0.707648
0.788227
0.723557
0.655686
0.776018
0.836231
0.833568
0.815894
0.841925
0.816997
0.836804
0.82351
0.812516
0.829406
0.802706
0.841228
0.775717
0.779008
0.775775
0.727138
0.7228
0.805071
0.798031
0.753681
0.449371
0.552468
0.758232
0.602847
0.727472
0.753698
0.7551
0.415879
0.432148
0.515927
0.513929
0.773968
0.773038
0.648914
0.844667
0.846144
0.838747
0.57881
0.572793
0.766589
0.812517
0.815351
0.755255
0.714238
0.644615
0.775944
0.606576
0.614844
0.493287
0.760412
0.515326
0.763037
0.635971
0.616849
0.775755
0.0507897
-0.113884
0.735413
0.7557
0.615937
0.759902
0.751936
0.757403
0.762278
0.609265
0.776601
0.629971
0.56818
0.615255
0.760719
0.729438
0.648007
0.779525
0.777811
0.766666
0.647005
0.758376
0.772976
0.774902
0.794892
0.678817
0.672205
0.752755
0.780882
0.645192
0.645119
0.635696
0.77983
0.827175
0.825568
0.808637
0.324781
0.741664
0.209408
0.7716
0.768791
0.627693
0.727462
0.706056
0.649211
0.63271
0.778399
0.781065
0.743772
0.255058
0.364922
0.352811
0.740658
0.205925
0.315834
0.740084
0.177675
0.587397
0.760464
0.493863
0.741858
0.674181
0.785915
0.322396
0.455902
0.680428
0.330405
0.61504
0.0547095
0.544166
0.413358
0.265181
0.601156
0.596865
0.229827
0.325684
0.600663
0.435278
0.328488
0.356354
0.412259
0.452456
0.555272
0.475339
0.400656
0.617565
0.73485
0.6909
0.465148
0.632031
0.24222
0.502186
0.309399
0.258723
0.538025
0.466668
0.457453
0.294035
0.485463
0.667186
0.613995
0.375844
0.502707
0.37582
0.739914
0.32197
0.598179
0.648168
0.392645
0.403991
0.34441
0.238373
0.32191
0.694202
0.478534
0.332136
0.384352
0.256389
0.687069
0.557307
0.474262
0.337101
0.587669
0.316854
0.331663
0.691928
0.437152
0.473549
0.560849
0.492862
0.734618
0.615956
0.606494
0.203014
0.253573
0.380968
0.576953
0.236802
0.456072
0.454345
0.285007
0.574724
0.64718
0.41184
0.460235
0.24648
0.312157
0.383388
0.587305
0.385402
0.350638
0.430065
0.701606
0.33011
0.588168
0.690747
0.461635
0.328006
-0.0452765
0.299065
0.35005
0.327211
0.198722
0.530056
0.622269
0.663141
0.743043
0.317902
0.326691
0.238137
0.346186
0.302396
0.664569
0.628391
0.554742
0.28809
0.252613
0.518985
0.626366
0.413902
0.350764
0.18715
0.403709
0.452026
0.717466
0.733023
0.581003
0.476792
0.389408
0.233957
0.714211
0.264166
0.573488
0.192564
0.69381
0.248733
0.239964
0.300697
0.645079
0.443769
0.149126
0.316073
0.546621
0.321041
0.591759
0.525646
0.34294
0.644518
0.383193
0.302575
0.656526
0.321618
0.420705
0.233196
0.487551
0.37245
0.650954
0.586637
0.402795
0.576856
0.593488
0.676171
0.458682
0.376441
0.336963
0.594766
0.265055
0.502517
0.24685
0.729592
0.407282
0.655755
0.709256
0.482928
0.71902
0.656962
0.672764
0.279857
0.184723
0.23157
0.680418
0.280764
0.258472
0.254564
0.26213
0.417008
0.382677
0.487873
0.709763
0.583241
0.37629
0.584971
0.365481
0.734793
0.200326
0.635543
0.345384
0.173128
0.696191
0.713103
0.336023
0.350852
0.729047
0.50662
0.371005
0.304847
0.577622
0.664541
0.567216
0.317941
0.338408
0.609988
0.473057
0.304026
0.528676
0.252393
0.271547
0.390456
0.642432
0.195087
0.401363
0.623084
0.378473
0.188301
0.404009
0.336712
0.377907
0.526972
0.539728
0.310629
0.253325
0.288217
0.558933
0.560364
0.402025
0.544099
0.39023
0.281743
0.510972
0.377
0.166414
0.574353
0.655126
0.490602
0.707773
0.669835
0.736634
0.329017
0.140858
0.429793
0.402148
0.371563
0.204807
0.515823
0.691248
0.574518
0.506423
0.306338
0.40804
0.59057
0.472766
0.54641
0.323749
0.431946
0.373471
0.235734
0.31012
0.344175
0.330138
0.286754
0.544259
0.475456
0.405365
0.55353
0.342198
0.419151
0.322898
0.404686
0.369951
0.360622
0.50084
0.204916
0.13143
0.436324
0.22363
0.190123
0.505439
0.204295
0.193216
0.652739
0.54969
0.313433
0.58455
0.265947
0.537116
0.53159
0.261004
0.335812
0.623329
0.435281
0.589317
0.0507535
0.296185
0.656882
0.366214
0.303618
0.106681
0.207123
0.177398
0.2152
0.379586
0.551475
0.280876
0.177755
0.303262
0.358435
0.734928
0.319605
0.574289
0.510897
0.224441
0.399082
0.307722
0.249444
0.529916
0.391864
0.690501
0.555896
0.30705
0.383501
0.481526
0.734256
0.582547
0.668425
0.586712
0.378707
0.488781
0.417406
0.294059
0.211064
0.352736
0.363692
0.551899
0.329747
0.230949
0.333691
0.386908
0.327489
0.351545
0.636415
0.370475
0.349745
0.687069
0.643959
0.308969
0.478527
0.665187
0.320824
0.194365
0.385909
0.284249
0.248802
0.662495
0.308287
0.40678
0.678158
0.191757
0.484407
0.324745
0.485481
0.388991
0.340591
-0.0231643
0.39935
0.232519
0.35137
0.39496
0.393778
0.57974
0.689344
0.325447
0.471858
0.387281
0.293909
0.160339
0.627704
0.522759
0.357332
0.232194
0.501296
0.229013
0.335332
0.316485
0.299138
0.62065
0.688424
0.371152
0.573768
0.735942
0.633166
0.635481
0.676003
0.365884
0.355681
0.251682
0.731786
0.622624
0.655385
0.337975
0.380884
0.182452
0.587563
0.382508
0.311723
0.656453
0.539823
0.274833
0.395286
0.320035
0.332006
0.323427
0.384458
0.406324
0.275553
0.370453
0.214018
0.400098
0.278696
0.538379
0.452183
0.195457
0.667285
0.681367
0.583703
0.363805
0.49209
0.201365
0.599056
0.474067
0.22738
0.66301
0.128151
0.692798
0.222651
0.417696
0.430612
0.581075
0.605981
0.328451
0.709091
0.335561
0.638746
0.418258
0.539312
0.359532
0.314453
0.345988
0.64548
0.425978
0.726907
0.562268
0.207731
0.323748
0.538304
0.154976
0.3679
0.420003
0.275401
0.697316
0.276121
0.251158
0.60873
0.346293
0.689994
0.72083
0.390809
0.730095
0.706612
0.640817
0.660431
0.508032
0.238913
0.317022
0.396536
0.62538
0.394469
0.130918
0.706827
0.281635
0.413745
0.308012
0.672947
0.732571
0.295694
0.634257
0.509203
0.689059
0.40158
0.592446
0.39749
0.709043
0.724492
0.562738
0.31464
0.611044
0.364867
0.473597
0.460468
0.414577
0.512422
0.344662
0.136624
0.254131
0.427313
0.532513
0.47827
0.658719
0.29934
0.379837
0.534544
0.257759
0.679778
0.314215
0.397452
0.680955
0.647432
0.492362
0.714388
0.313468
0.380994
0.59812
0.45384
0.440413
0.415474
0.348088
0.540882
0.569753
0.349089
0.320538
0.490823
0.207005
0.271785
0.692094
0.735964
0.728597
0.416301
0.741827
0.731641
0.701514
0.157808
0.520197
0.51248
0.71576
0.377152
0.323375
0.236773
0.312306
0.0991513
0.706726
0.431648
0.441707
0.597077
0.562723
0.369686
0.395246
0.731296
0.713291
0.667865
0.558543
0.358603
0.573236
0.542269
0.374912
0.431283
0.257491
0.309952
0.463342
0.444286
0.356901
0.69593
0.69006
0.163845
0.644296
0.331974
0.321489
0.382404
0.689972
0.405457
0.560998
0.426582
0.671165
0.384841
0.428712
0.724705
0.182058
0.20384
0.314142
0.282339
0.134311
-0.0868152
0.296207
0.142153
0.453044
0.162235
0.268402
0.44318
0.339096
0.297954
0.366131
0.244059
-0.0453485
0.70836
0.649608
0.392832
0.232525
0.659042
0.36577
0.322784
0.722241
0.305677
0.720381
0.405383
0.651799
0.413559
0.217403
0.260737
0.473888
0.476856
0.454317
0.220886
0.392191
0.273394
0.285351
0.339446
0.19667
0.249921
0.703271
0.306567
0.569489
0.604512
0.379357
0.627354
0.608158
0.2365
-0.0749744
0.418265
0.212294
0.141082
0.578489
0.583806
0.394288
0.535616
0.369731
0.724857
0.704392
0.418217
0.358388
0.711557
0.65932
0.527295
0.524363
0.380755
0.728757
0.462858
0.161289
0.674422
0.632889
0.691527
0.481352
0.319083
0.378851
0.586417
0.533008
-0.174309
0.739464
0.415174
0.310612
0.469015
0.670543
0.7302
0.726135
0.533672
0.436492
0.613389
0.66292
0.688286
0.570593
0.627443
0.237063
0.327234
0.497812
0.252302
0.231431
0.195447
0.412241
0.60948
0.213904
0.464038
0.331355
0.643523
0.726101
0.428186
0.239377
0.18262
0.599138
0.353391
0.305996
0.188082
0.695445
0.49959
0.513525
0.220936
0.515821
0.307511
0.325013
0.582785
0.60505
0.700384
0.734334
0.295921
0.667137
0.16458
0.677672
0.69058
0.69082
0.615368
0.275116
0.275423
0.398873
0.160041
0.455666
0.192605
0.50708
0.22824
0.656222
0.38042
0.174314
0.647594
0.599642
0.424224
0.435247
0.566217
0.691155
0.501532
0.45236
0.169736
0.63315
0.477191
0.718092
0.140264
0.446972
0.675931
0.584935
0.714385
0.591957
0.394044
0.115993
0.172111
0.435073
0.20793
0.705125
0.163552
0.345229
0.421671
0.308988
0.627117
0.145269
0.689889
0.588338
0.517253
0.140571
0.541453
0.3009
0.376436
0.43343
0.422616
0.380022
0.360647
0.612461
0.278983
0.741698
0.371574
0.433554
0.555136
0.586639
0.710342
0.381475
0.409433
0.296698
0.432351
0.356387
0.699109
0.310991
0.459848
0.378841
0.63499
0.33145
0.477452
0.245811
0.726669
0.156681
0.273424
0.349679
0.642643
0.179976
0.195153
0.266404
0.231082
0.689812
0.44967
0.567926
0.651777
0.548976
0.464111
0.728172
0.453663
0.593606
0.544619
0.473917
0.195172
0.487314
0.43347
0.349606
0.488385
0.271728
0.207498
0.478938
0.378269
0.281311
0.627771
0.436005
0.568287
0.427664
0.708249
0.418103
0.409427
0.544351
0.227561
0.300212
0.379504
0.473541
0.499855
0.53411
0.685592
0.582859
0.622978
0.483864
0.66753
0.709268
0.704049
0.490761
0.455907
0.508267
0.242245
0.721169
0.658503
0.637641
0.454121
0.274613
0.197323
0.509044
0.584232
0.312239
0.63606
0.657973
0.532439
0.330618
0.47705
0.351617
0.310921
0.456421
0.335225
0.51384
0.188426
0.517321
0.426335
0.419612
0.147596
0.496806
0.469473
0.561134
0.37504
0.50449
0.682863
0.697643
0.515808
0.409957
0.624711
0.478358
0.305786
0.304838
0.410273
0.222609
0.68559
0.440348
0.492029
0.588466
0.574352
0.533019
0.264693
0.734266
0.542124
0.318462
0.448431
0.464133
0.624159
0.677267
0.544391
0.520196
0.182287
0.284925
0.420301
0.528325
0.462608
0.516447
0.34017
0.693196
0.523046
0.626278
0.663874
0.494614
0.315158
0.46866
0.717055
0.348764
0.173919
0.4653
0.726195
0.359797
0.411305
0.613992
0.583631
0.642676
0.45014
0.186603
0.526064
0.240069
0.367843
0.641424
0.439821
0.248942
0.307103
0.355903
0.540298
0.368564
0.341663
0.671764
0.324166
0.729804
0.63831
0.230843
0.127651
0.440774
0.5929
0.660416
0.447235
0.420606
0.303838
0.400877
0.418724
0.734052
0.677204
0.592505
0.372452
0.197861
0.700826
0.731752
0.693372
0.624782
0.675346
0.462902
0.248109
0.154537
0.175377
0.70887
0.467382
0.28629
0.388571
0.731804
0.380001
0.330464
0.216872
0.450995
0.298507
0.754305
0.527966
0.586817
0.671943
0.656865
0.404426
0.548144
0.461569
0.572538
0.338005
0.532523
0.338483
0.697941
0.230762
0.361835
0.275333
0.394735
0.680983
0.389415
0.638709
0.667072
0.674825
0.264607
0.45838
0.420488
0.316128
0.689935
0.480735
0.48347
0.522682
0.079571
0.393449
0.710524
0.55458
0.694203
0.164774
0.274245
0.38758
0.704338
0.317274
0.424451
0.285396
0.260724
0.37699
0.721545
0.403676
0.426585
0.220606
0.750953
0.717457
0.0857572
0.710998
0.377598
0.266882
0.277976
0.460163
0.216115
0.532312
0.374441
0.365238
0.400201
0.6906
0.448254
0.638327
0.402138
0.261835
0.397627
0.163023
0.197526
0.433288
0.366027
0.493203
0.280919
0.427959
0.663634
0.524216
0.36558
0.207934
0.680277
0.451515
0.428538
0.742354
0.491855
0.35901
0.347908
0.268273
0.711084
0.354545
0.434089
0.538894
0.225735
0.686126
0.241389
0.668495
0.453141
0.606521
0.289932
0.626305
0.425395
0.235574
0.303908
0.45105
0.682245
0.122756
0.321956
0.372407
0.70918
0.740958
0.295133
0.348251
0.526771
0.734983
0.414045
0.688451
0.657829
0.634934
0.606511
0.504431
0.564095
0.549088
0.692939
0.426776
0.47308
0.296278
0.333989
0.423677
0.284794
0.712048
0.249041
0.689009
0.416308
0.704149
0.347324
0.719255
0.602698
0.679033
0.705109
0.682009
0.740514
0.405319
0.666942
0.4479
0.386002
0.32436
0.282464
0.694315
0.251145
0.527577
0.540989
0.4183
0.526206
0.332922
0.703222
0.474625
0.615977
0.152095
0.309332
0.393833
0.761683
0.305638
0.560671
0.341695
0.394631
0.246631
0.409212
0.381077
0.629938
0.698035
0.212989
0.519626
0.387958
0.355312
0.646113
0.306808
0.331294
0.714747
0.176472
0.485886
0.58645
0.678039
0.722287
0.343124
0.325018
0.229096
0.377622
0.318385
0.38562
0.610213
0.370354
0.24559
0.424939
0.458795
0.362096
0.326231
0.370819
0.461325
0.234902
0.618733
0.605154
0.353169
0.616311
0.219929
0.215923
0.301387
0.180119
0.713483
0.384576
0.377368
0.336574
0.658351
0.69192
0.494592
0.608698
0.331088
0.318581
0.461857
0.380164
0.318345
0.692358
0.503056
0.561172
0.718468
0.627192
0.439928
0.70689
0.207721
0.499357
0.493076
0.537408
0.386696
0.712496
0.368998
0.530412
0.446246
0.360139
0.285956
0.333061
0.602782
0.64908
0.669379
0.468851
0.493166
0.710053
0.631235
0.434342
0.48961
0.258977
0.40299
0.634926
0.210943
0.662844
0.377717
0.675578
0.743791
0.696188
0.365639
0.676166
0.659576
0.175016
0.711523
0.331855
0.701252
0.629975
0.390328
0.279383
0.503348
0.407835
0.376242
0.325649
0.642765
0.357217
0.708539
0.27022
0.34566
0.312835
0.267717
0.377872
0.648973
0.725587
0.264091
0.616128
0.470329
0.530901
0.418958
0.524916
0.685953
0.635224
0.381006
0.678264
0.644765
0.720217
0.26734
0.350026
0.326429
0.609785
0.716379
0.652547
0.434169
0.718754
0.448351
0.215151
0.277294
0.122385
0.431204
0.244952
0.721273
0.729896
0.491508
0.745455
0.637753
0.488235
0.714059
0.255818
0.712583
0.400813
0.69168
0.381545
0.277223
0.604102
0.498541
0.701275
0.685859
0.689655
0.29618
0.293259
0.189897
0.66731
0.632863
0.292063
0.459641
0.635333
0.166196
0.347236
0.293481
0.388345
0.526295
0.383242
0.493447
0.606323
0.47598
0.493709
0.607328
0.37891
0.396061
0.526212
0.480934
0.385795
0.667661
0.702681
0.29285
0.629838
0.155052
0.338197
0.675894
0.620058
0.368846
0.694412
0.252486
0.604053
0.403641
0.402155
0.675411
0.386268
0.616011
0.606005
0.571419
0.732925
0.578278
0.23009
0.546066
0.427106
0.617791
0.732152
0.564732
0.445185
0.317524
0.404303
0.677174
0.26293
0.660946
0.302957
0.511475
0.627789
0.607063
0.467905
0.673957
0.717093
0.389435
0.380621
0.491609
0.291992
0.246001
0.498339
0.605935
0.309464
0.226936
0.307987
0.223459
0.598982
0.443377
0.622627
0.339594
0.693078
0.476011
0.65992
0.731537
0.323958
0.683169
0.381393
0.495976
0.464066
0.671114
0.328171
0.411645
0.471274
0.281786
0.387784
0.275025
0.244153
0.155883
0.71511
0.730456
0.306699
0.33972
0.612138
0.202957
0.304766
0.381951
0.586327
0.598562
0.189798
0.152457
0.68591
0.336861
0.528243
0.333919
0.220876
0.278663
0.502541
0.659552
0.523803
0.211468
0.694764
0.656811
0.306882
0.526093
0.372593
0.730009
0.393937
0.419457
0.239747
0.567362
0.706743
0.539987
0.497326
0.323909
0.437636
0.529252
0.714628
0.749496
0.326124
0.719635
0.333805
0.508313
0.509228
0.43373
0.365589
0.66905
0.392985
0.500369
0.302359
0.326789
0.400664
0.281112
0.571712
0.69287
0.305523
0.344571
0.499588
0.371888
0.314828
0.156889
0.368554
0.678248
0.15356
0.358928
0.596644
0.499898
0.434915
0.560665
0.649469
0.284167
0.287729
0.649457
0.423421
0.282039
0.452652
0.669288
0.562012
0.509802
0.3294
0.330768
0.318979
0.715816
0.651607
0.724729
0.428054
0.580398
0.258199
0.465486
0.660455
0.211259
0.224579
0.605048
0.655596
0.204828
0.351097
0.323671
0.271476
0.322421
0.747089
0.414107
0.345167
0.49645
0.317591
0.601835
0.511738
0.250016
0.353468
0.627123
0.434726
0.717537
0.241667
0.349556
0.550605
0.530543
0.434945
0.531544
0.282328
0.721834
0.72084
0.55476
0.674928
0.313599
0.667686
0.559068
0.547838
0.707239
0.203393
0.361955
0.728959
0.562719
0.194161
0.359978
0.65215
0.726123
0.463217
0.613561
0.325404
0.235385
0.299244
0.185154
0.660641
0.330925
0.477641
0.70945
0.319087
0.287026
0.325966
0.487079
0.341747
0.367252
0.321395
0.266792
0.436363
0.633165
0.703619
0.588209
0.371028
0.360658
0.18042
0.356466
0.547089
0.524443
0.571589
0.600243
0.362091
0.449959
0.645315
0.659078
0.725651
0.676978
0.710744
0.440002
0.25131
0.300224
0.26502
0.71568
0.488276
0.334867
0.705325
0.259657
0.638382
0.600784
0.357488
0.332412
0.361931
0.338269
0.656344
0.408455
0.587486
0.454109
0.700778
0.520574
0.731803
0.298545
0.456258
0.349899
0.147107
0.37554
0.622689
0.26955
0.0547329
0.508761
0.711276
0.619108
0.336198
0.240296
0.304584
0.262509
0.335608
0.264435
0.43163
0.2743
0.607189
0.302764
0.339628
0.70824
0.446215
0.566429
0.64763
0.421084
0.476857
0.291025
0.625218
0.402353
0.361221
0.423003
0.284982
0.234896
0.335613
0.320756
0.617268
0.726682
0.665673
0.512709
0.593946
0.212105
0.720836
0.514704
0.607282
0.332189
0.59712
0.364156
0.383214
0.636515
0.705897
0.621626
0.516262
0.395119
0.730108
0.38485
0.640779
0.712914
0.575948
0.408067
0.205424
0.640099
0.502569
0.273535
0.56115
0.494299
0.698042
0.325859
0.7111
0.726403
0.425318
0.300795
0.709998
0.245
0.280552
0.382815
0.274419
0.368994
0.286671
0.24398
0.451972
0.341893
0.301265
0.363747
0.523092
0.337788
0.320241
0.55405
0.478117
0.225412
0.692505
0.740878
0.718138
0.331447
0.214505
0.735378
0.233766
0.437871
0.312526
0.385004
0.330522
0.604279
0.373798
0.373049
0.224081
0.209619
0.276416
0.377486
0.201125
0.463082
0.502479
0.450054
0.701866
0.494565
0.564912
0.404848
0.652874
0.380279
0.384611
0.760199
0.381743
0.49421
0.244732
0.577537
0.73188
0.408395
0.535345
0.495014
0.356417
0.323546
0.315489
0.274444
0.610275
0.286762
0.420141
0.372613
0.426844
0.306533
0.317695
0.437032
0.400337
0.355199
0.745324
0.443125
0.406028
0.511328
0.704195
0.386333
0.213374
0.63072
0.247187
0.404399
0.326994
0.443158
0.363988
0.389919
0.443153
0.721569
0.66337
0.220993
0.354058
0.209853
0.314997
0.191469
0.279899
0.373728
0.295745
0.381175
0.551084
0.740659
0.376292
0.597765
0.470719
0.714774
0.371304
0.729821
0.541805
0.258219
0.543918
0.608351
0.381866
0.661949
0.327268
0.671008
0.341244
0.0824367
0.448314
0.739081
0.731338
0.610062
0.554889
0.586077
0.221552
0.352571
0.585474
0.731489
0.11018
0.447596
0.327954
0.378352
0.428596
0.305717
0.258875
0.336561
0.278546
0.346383
0.393423
0.425623
0.730893
0.656302
0.190581
0.631313
0.294138
0.308538
0.639828
0.339718
0.403077
0.571585
0.156379
0.313185
0.461167
0.665259
0.264508
0.325672
0.399499
0.547002
0.264139
0.70064
0.209958
0.380124
0.401764
0.332823
0.554285
0.550751
0.703799
0.323029
0.617971
0.503079
0.541221
0.32527
0.552645
0.294274
0.251143
0.169416
0.511216
0.445502
0.402561
0.684356
0.451327
0.503242
0.549424
0.307367
0.282969
0.380569
0.518026
0.336719
0.739124
0.247601
0.210624
0.37963
0.376101
0.338549
0.318147
0.59707
0.382247
0.456192
0.265635
0.330321
0.450619
0.251693
0.736904
0.736506
0.271205
0.305253
0.659327
0.469906
0.314296
0.239223
0.310787
0.273
0.499328
0.689224
0.316142
0.22063
0.549767
0.442647
0.211239
0.267646
0.439038
0.590715
0.750394
0.256062
0.206714
0.520711
0.660651
0.410215
0.50256
0.394589
0.327947
0.385433
0.546376
0.440026
0.331226
0.631669
0.397827
0.171534
0.493127
0.340558
0.637256
0.732151
0.34147
0.374102
0.376147
0.374297
0.255779
0.387279
0.272378
0.705155
0.643791
0.588528
0.376152
0.228086
0.623039
0.718506
0.319697
0.487343
0.367729
0.155464
0.470001
0.381961
0.154571
0.323202
0.555488
0.255869
0.213958
0.274616
0.661663
0.241577
0.632539
0.429279
0.326597
0.39504
0.298833
0.638045
0.181198
0.385661
0.416425
0.249687
0.50314
0.586719
0.517139
0.445818
0.615455
0.268229
0.269772
0.68757
0.325135
0.682462
0.521751
0.408872
0.499246
0.666121
0.442938
0.206779
0.698929
0.317775
0.419413
0.66871
0.308837
0.711116
0.318279
0.400419
0.16816
0.401844
0.27522
0.458216
0.28249
0.173978
0.270052
0.264859
0.161728
0.688978
0.264779
0.394321
0.511175
0.452179
0.720998
0.723205
0.360397
0.448317
0.642889
0.347361
0.690294
0.175274
0.394543
0.490445
0.324185
0.64787
0.36834
0.378064
0.355566
0.322863
0.316062
0.176687
0.670325
-0.0261707
0.717597
0.590057
0.283478
0.213442
0.281934
0.752046
0.592174
0.557255
0.438421
0.506276
0.419533
0.667857
0.623954
0.301594
0.536711
0.719889
0.430655
0.483366
0.54519
0.196365
0.265649
0.646531
0.39227
0.423837
0.711485
0.258315
0.179707
0.336011
0.421951
0.43026
0.740809
0.318005
0.233905
0.317156
0.419299
0.323224
0.679596
0.438571
0.286517
0.367557
0.319711
0.30924
0.364932
0.541093
0.470941
0.292889
0.680149
0.388055
0.666419
0.29383
0.258826
0.388199
0.673254
0.716905
0.650337
0.461367
0.438401
0.635076
0.73089
0.248809
0.69126
0.274946
0.562988
0.542498
0.677899
0.458246
0.663653
0.700387
0.338316
0.333107
0.395387
0.453547
0.275606
0.286132
0.24558
0.603888
0.649013
0.242279
0.698349
0.457841
0.619399
0.433621
0.284408
0.645257
0.625415
0.371308
0.354782
0.273928
0.724591
0.597637
0.733358
0.243229
0.274627
0.418302
0.65472
0.550519
0.701017
0.485435
0.736233
0.335496
0.40832
0.483758
0.352318
0.525567
0.204092
0.634783
0.44319
0.488173
0.692693
0.232304
0.245952
0.18411
0.522008
0.67282
0.354602
0.554854
0.217097
0.230114
0.429145
0.33925
0.318217
0.690844
0.463256
0.307038
0.41079
0.514647
0.709227
0.523324
0.402131
0.669779
0.459835
0.711784
0.471697
0.586052
0.40451
0.241107
0.741535
0.287921
0.501512
0.510547
0.687108
0.574944
0.441251
0.333802
0.729019
0.41485
0.292592
0.609223
0.721853
0.598079
0.556545
0.230984
0.165261
0.488483
0.297279
0.399111
0.474236
0.292682
0.705783
0.727233
0.697147
0.351592
0.387889
0.319918
0.373332
0.575603
0.260196
0.571754
0.705098
0.251082
0.374953
0.331329
0.651422
0.557527
0.387511
0.30019
0.595879
0.31698
0.19477
0.268445
0.738686
0.176599
0.630542
0.538553
0.323829
0.72627
0.498125
0.756525
0.152283
0.378511
0.49099
0.695994
0.376537
0.689794
0.499745
0.176195
0.443221
0.3444
0.385211
0.167033
0.628965
0.377393
0.299108
0.206762
0.447659
0.695163
0.109991
0.361214
0.67091
0.403364
0.665665
0.169474
0.318412
0.323278
0.417065
0.345813
0.230695
0.315284
0.123056
0.39844
0.401337
0.62093
0.487257
0.67352
0.30688
0.387629
0.234414
0.465705
0.123113
0.393898
0.733459
0.425618
0.361493
0.745697
0.297705
0.503615
0.548802
0.223492
0.3517
0.445866
0.507747
0.704272
0.721185
0.721342
0.518708
0.406775
0.41012
0.280146
0.66259
0.568927
0.326784
0.363982
0.356192
0.438202
0.757046
0.407186
0.757279
0.366582
0.551121
0.283886
0.319537
0.228021
0.341508
0.68479
0.361115
0.244634
0.276997
0.735593
0.359195
0.291289
0.285649
0.316993