/*--------------------------------*- C++ -*----------------------------------*\
  =========                 |
  \\      /  F ield         | OpenFOAM: The Open Source CFD Toolbox
   \\    /   O peration     | Website:  https://openfoam.org
    \\  /    A nd           | Version:  6
     \\/     M anipulation  |
\*---------------------------------------------------------------------------*/
FoamFile
{
    version     2.0;
    format      ascii;
    class       volScalarField;
    location    "0";
    object      p;
}
// * * * * * * * * * * * * * * * * * * * * * * * * * * * * * * * * * * * * * //

dimensions      [0 2 -2 0 0 0 0];

internalField   nonuniform List<scalar> 
145945
(
2.82764e-06
2.82711e-06
2.82689e-06
2.82668e-06
2.82663e-06
2.82657e-06
2.82657e-06
2.82656e-06
2.82658e-06
2.82659e-06
2.82662e-06
2.82664e-06
2.82673e-06
2.8268e-06
2.82704e-06
2.82725e-06
2.82783e-06
2.82711e-06
2.82678e-06
2.82657e-06
2.82641e-06
2.82635e-06
2.82629e-06
2.82629e-06
2.82628e-06
2.8263e-06
2.82631e-06
2.82634e-06
2.82637e-06
2.82645e-06
2.82653e-06
2.82673e-06
2.82693e-06
2.8273e-06
2.82689e-06
2.82657e-06
2.82635e-06
2.82622e-06
2.82616e-06
2.82612e-06
2.82611e-06
2.82611e-06
2.82613e-06
2.82614e-06
2.82617e-06
2.8262e-06
2.82627e-06
2.82635e-06
2.82652e-06
2.82673e-06
2.82708e-06
2.82668e-06
2.82641e-06
2.82622e-06
2.82612e-06
2.82607e-06
2.82604e-06
2.82603e-06
2.82603e-06
2.82605e-06
2.82606e-06
2.82609e-06
2.82612e-06
2.82619e-06
2.82627e-06
2.82641e-06
2.82659e-06
2.82688e-06
2.82663e-06
2.82635e-06
2.82616e-06
2.82607e-06
2.82602e-06
2.82599e-06
2.82598e-06
2.82598e-06
2.82599e-06
2.82601e-06
2.82604e-06
2.82608e-06
2.82614e-06
2.82622e-06
2.82636e-06
2.82654e-06
2.82684e-06
2.82657e-06
2.82629e-06
2.82612e-06
2.82604e-06
2.82599e-06
2.82596e-06
2.82595e-06
2.82595e-06
2.82596e-06
2.82598e-06
2.82601e-06
2.82605e-06
2.82611e-06
2.82619e-06
2.82632e-06
2.82649e-06
2.82678e-06
2.82657e-06
2.82629e-06
2.82611e-06
2.82603e-06
2.82598e-06
2.82595e-06
2.82594e-06
2.82594e-06
2.82595e-06
2.82597e-06
2.826e-06
2.82604e-06
2.8261e-06
2.82619e-06
2.82631e-06
2.82648e-06
2.82678e-06
2.82656e-06
2.82628e-06
2.82611e-06
2.82603e-06
2.82598e-06
2.82595e-06
2.82594e-06
2.82594e-06
2.82595e-06
2.82597e-06
2.826e-06
2.82604e-06
2.8261e-06
2.82619e-06
2.82631e-06
2.82648e-06
2.82677e-06
2.82658e-06
2.8263e-06
2.82613e-06
2.82605e-06
2.82599e-06
2.82596e-06
2.82595e-06
2.82595e-06
2.82596e-06
2.82598e-06
2.82601e-06
2.82605e-06
2.82612e-06
2.8262e-06
2.82633e-06
2.8265e-06
2.82679e-06
2.82659e-06
2.82631e-06
2.82614e-06
2.82606e-06
2.82601e-06
2.82598e-06
2.82597e-06
2.82597e-06
2.82598e-06
2.826e-06
2.82603e-06
2.82607e-06
2.82613e-06
2.82622e-06
2.82634e-06
2.82651e-06
2.8268e-06
2.82662e-06
2.82634e-06
2.82617e-06
2.82609e-06
2.82604e-06
2.82601e-06
2.826e-06
2.826e-06
2.82601e-06
2.82603e-06
2.82606e-06
2.8261e-06
2.82616e-06
2.82625e-06
2.82637e-06
2.82654e-06
2.82683e-06
2.82664e-06
2.82637e-06
2.8262e-06
2.82612e-06
2.82608e-06
2.82605e-06
2.82604e-06
2.82604e-06
2.82605e-06
2.82607e-06
2.8261e-06
2.82614e-06
2.8262e-06
2.82628e-06
2.8264e-06
2.82656e-06
2.82685e-06
2.82673e-06
2.82645e-06
2.82627e-06
2.82619e-06
2.82614e-06
2.82611e-06
2.8261e-06
2.8261e-06
2.82612e-06
2.82613e-06
2.82616e-06
2.8262e-06
2.82626e-06
2.82634e-06
2.82647e-06
2.82664e-06
2.82693e-06
2.8268e-06
2.82653e-06
2.82635e-06
2.82627e-06
2.82622e-06
2.8262e-06
2.82619e-06
2.82619e-06
2.82621e-06
2.82622e-06
2.82625e-06
2.82628e-06
2.82634e-06
2.82642e-06
2.82655e-06
2.82672e-06
2.827e-06
2.82704e-06
2.82673e-06
2.82652e-06
2.82641e-06
2.82636e-06
2.82632e-06
2.82631e-06
2.82631e-06
2.82633e-06
2.82634e-06
2.82637e-06
2.8264e-06
2.82647e-06
2.82655e-06
2.8267e-06
2.82691e-06
2.82724e-06
2.82725e-06
2.82693e-06
2.82674e-06
2.82659e-06
2.82654e-06
2.82649e-06
2.82648e-06
2.82648e-06
2.8265e-06
2.82651e-06
2.82654e-06
2.82656e-06
2.82664e-06
2.82672e-06
2.82691e-06
2.82709e-06
2.82744e-06
2.82783e-06
2.8273e-06
2.82708e-06
2.82689e-06
2.82684e-06
2.82678e-06
2.82678e-06
2.82677e-06
2.82679e-06
2.8268e-06
2.82683e-06
2.82685e-06
2.82693e-06
2.827e-06
2.82724e-06
2.82744e-06
2.82801e-06
2.75698e-06
2.75674e-06
2.75672e-06
2.75671e-06
2.75679e-06
2.75687e-06
2.75695e-06
2.75701e-06
2.75704e-06
2.75704e-06
2.757e-06
2.75694e-06
2.75688e-06
2.75681e-06
2.75683e-06
2.75684e-06
2.75709e-06
2.75674e-06
2.75666e-06
2.75668e-06
2.75673e-06
2.75683e-06
2.75693e-06
2.75702e-06
2.75709e-06
2.75713e-06
2.75712e-06
2.75708e-06
2.75701e-06
2.75693e-06
2.75684e-06
2.75681e-06
2.75678e-06
2.75685e-06
2.75672e-06
2.75668e-06
2.75672e-06
2.75681e-06
2.75693e-06
2.75705e-06
2.75716e-06
2.75724e-06
2.75727e-06
2.75727e-06
2.75722e-06
2.75714e-06
2.75704e-06
2.75693e-06
2.75685e-06
2.75681e-06
2.75684e-06
2.75671e-06
2.75673e-06
2.75681e-06
2.75693e-06
2.75708e-06
2.75721e-06
2.75733e-06
2.75741e-06
2.75745e-06
2.75744e-06
2.75739e-06
2.7573e-06
2.75719e-06
2.75706e-06
2.75696e-06
2.75687e-06
2.75684e-06
2.75679e-06
2.75683e-06
2.75693e-06
2.75708e-06
2.75724e-06
2.75738e-06
2.7575e-06
2.75759e-06
2.75763e-06
2.75762e-06
2.75757e-06
2.75748e-06
2.75736e-06
2.75722e-06
2.75709e-06
2.75698e-06
2.75692e-06
2.75687e-06
2.75693e-06
2.75705e-06
2.75721e-06
2.75738e-06
2.75754e-06
2.75766e-06
2.75775e-06
2.75779e-06
2.75778e-06
2.75773e-06
2.75763e-06
2.75751e-06
2.75736e-06
2.75722e-06
2.75708e-06
2.757e-06
2.75695e-06
2.75702e-06
2.75716e-06
2.75733e-06
2.75751e-06
2.75766e-06
2.75779e-06
2.75788e-06
2.75792e-06
2.75791e-06
2.75786e-06
2.75776e-06
2.75763e-06
2.75748e-06
2.75733e-06
2.75718e-06
2.75709e-06
2.75701e-06
2.75709e-06
2.75724e-06
2.75741e-06
2.75759e-06
2.75775e-06
2.75788e-06
2.75797e-06
2.75801e-06
2.758e-06
2.75795e-06
2.75785e-06
2.75772e-06
2.75756e-06
2.7574e-06
2.75725e-06
2.75715e-06
2.75704e-06
2.75713e-06
2.75727e-06
2.75745e-06
2.75763e-06
2.75779e-06
2.75792e-06
2.75801e-06
2.75805e-06
2.75805e-06
2.75799e-06
2.75789e-06
2.75776e-06
2.7576e-06
2.75744e-06
2.75729e-06
2.75718e-06
2.75704e-06
2.75712e-06
2.75727e-06
2.75744e-06
2.75762e-06
2.75778e-06
2.75791e-06
2.758e-06
2.75805e-06
2.75804e-06
2.75798e-06
2.75788e-06
2.75775e-06
2.75759e-06
2.75744e-06
2.75728e-06
2.75717e-06
2.757e-06
2.75708e-06
2.75722e-06
2.75739e-06
2.75757e-06
2.75773e-06
2.75786e-06
2.75795e-06
2.75799e-06
2.75798e-06
2.75793e-06
2.75783e-06
2.7577e-06
2.75754e-06
2.75739e-06
2.75724e-06
2.75714e-06
2.75694e-06
2.75701e-06
2.75714e-06
2.7573e-06
2.75748e-06
2.75763e-06
2.75776e-06
2.75785e-06
2.75789e-06
2.75788e-06
2.75783e-06
2.75773e-06
2.7576e-06
2.75745e-06
2.7573e-06
2.75716e-06
2.75708e-06
2.75688e-06
2.75693e-06
2.75704e-06
2.75719e-06
2.75736e-06
2.75751e-06
2.75763e-06
2.75772e-06
2.75776e-06
2.75775e-06
2.7577e-06
2.7576e-06
2.75748e-06
2.75733e-06
2.7572e-06
2.75708e-06
2.75701e-06
2.75681e-06
2.75684e-06
2.75693e-06
2.75706e-06
2.75722e-06
2.75736e-06
2.75748e-06
2.75756e-06
2.7576e-06
2.75759e-06
2.75754e-06
2.75745e-06
2.75733e-06
2.7572e-06
2.75708e-06
2.75698e-06
2.75694e-06
2.75683e-06
2.75681e-06
2.75686e-06
2.75696e-06
2.75709e-06
2.75722e-06
2.75733e-06
2.7574e-06
2.75744e-06
2.75744e-06
2.75739e-06
2.7573e-06
2.7572e-06
2.75708e-06
2.757e-06
2.75694e-06
2.75696e-06
2.75684e-06
2.75678e-06
2.75681e-06
2.75687e-06
2.75698e-06
2.75708e-06
2.75718e-06
2.75725e-06
2.75729e-06
2.75728e-06
2.75724e-06
2.75716e-06
2.75708e-06
2.75698e-06
2.75694e-06
2.7569e-06
2.75696e-06
2.75709e-06
2.75685e-06
2.75684e-06
2.75684e-06
2.75692e-06
2.757e-06
2.75709e-06
2.75715e-06
2.75718e-06
2.75717e-06
2.75714e-06
2.75708e-06
2.75701e-06
2.75694e-06
2.75696e-06
2.75696e-06
2.75721e-06
2.71108e-06
2.71181e-06
2.71249e-06
2.71308e-06
2.71362e-06
2.71402e-06
2.71432e-06
2.71449e-06
2.71457e-06
2.71452e-06
2.71438e-06
2.71412e-06
2.71374e-06
2.71322e-06
2.71262e-06
2.71187e-06
2.71111e-06
2.71181e-06
2.71249e-06
2.71314e-06
2.71373e-06
2.71426e-06
2.71466e-06
2.71495e-06
2.71513e-06
2.7152e-06
2.71516e-06
2.71502e-06
2.71475e-06
2.71438e-06
2.71387e-06
2.71326e-06
2.71254e-06
2.71185e-06
2.71249e-06
2.71314e-06
2.71374e-06
2.7143e-06
2.71481e-06
2.71521e-06
2.71549e-06
2.71567e-06
2.71574e-06
2.7157e-06
2.71556e-06
2.7153e-06
2.71493e-06
2.71444e-06
2.71384e-06
2.71318e-06
2.71253e-06
2.71308e-06
2.71373e-06
2.7143e-06
2.71485e-06
2.71534e-06
2.71573e-06
2.71601e-06
2.71618e-06
2.71625e-06
2.71621e-06
2.71607e-06
2.71582e-06
2.71546e-06
2.71498e-06
2.7144e-06
2.71377e-06
2.71311e-06
2.71362e-06
2.71426e-06
2.71481e-06
2.71534e-06
2.71582e-06
2.7162e-06
2.71648e-06
2.71665e-06
2.71671e-06
2.71668e-06
2.71654e-06
2.71629e-06
2.71594e-06
2.71547e-06
2.7149e-06
2.7143e-06
2.71365e-06
2.71402e-06
2.71466e-06
2.71521e-06
2.71573e-06
2.7162e-06
2.71658e-06
2.71685e-06
2.71702e-06
2.71708e-06
2.71705e-06
2.71691e-06
2.71667e-06
2.71632e-06
2.71586e-06
2.7153e-06
2.7147e-06
2.71406e-06
2.71432e-06
2.71495e-06
2.71549e-06
2.71601e-06
2.71648e-06
2.71685e-06
2.71712e-06
2.71728e-06
2.71735e-06
2.71731e-06
2.71718e-06
2.71694e-06
2.71659e-06
2.71614e-06
2.71558e-06
2.71499e-06
2.71435e-06
2.71449e-06
2.71513e-06
2.71567e-06
2.71618e-06
2.71665e-06
2.71702e-06
2.71728e-06
2.71745e-06
2.71751e-06
2.71748e-06
2.71734e-06
2.7171e-06
2.71676e-06
2.71631e-06
2.71576e-06
2.71517e-06
2.71453e-06
2.71457e-06
2.7152e-06
2.71574e-06
2.71625e-06
2.71671e-06
2.71708e-06
2.71735e-06
2.71751e-06
2.71758e-06
2.71754e-06
2.71741e-06
2.71717e-06
2.71683e-06
2.71638e-06
2.71583e-06
2.71524e-06
2.7146e-06
2.71453e-06
2.71516e-06
2.7157e-06
2.71621e-06
2.71668e-06
2.71705e-06
2.71731e-06
2.71748e-06
2.71754e-06
2.71751e-06
2.71737e-06
2.71713e-06
2.71679e-06
2.71634e-06
2.71579e-06
2.7152e-06
2.71456e-06
2.71438e-06
2.71502e-06
2.71556e-06
2.71607e-06
2.71654e-06
2.71691e-06
2.71718e-06
2.71734e-06
2.71741e-06
2.71737e-06
2.71724e-06
2.717e-06
2.71665e-06
2.7162e-06
2.71565e-06
2.71505e-06
2.71441e-06
2.71412e-06
2.71475e-06
2.7153e-06
2.71582e-06
2.71629e-06
2.71667e-06
2.71694e-06
2.71711e-06
2.71717e-06
2.71713e-06
2.717e-06
2.71675e-06
2.71641e-06
2.71595e-06
2.71539e-06
2.71479e-06
2.71415e-06
2.71375e-06
2.71438e-06
2.71493e-06
2.71546e-06
2.71594e-06
2.71632e-06
2.71659e-06
2.71676e-06
2.71683e-06
2.71679e-06
2.71665e-06
2.71641e-06
2.71606e-06
2.71559e-06
2.71503e-06
2.71442e-06
2.71378e-06
2.71322e-06
2.71387e-06
2.71444e-06
2.71498e-06
2.71547e-06
2.71586e-06
2.71614e-06
2.71631e-06
2.71638e-06
2.71634e-06
2.7162e-06
2.71595e-06
2.71559e-06
2.71511e-06
2.71454e-06
2.71391e-06
2.71326e-06
2.71262e-06
2.71326e-06
2.71385e-06
2.7144e-06
2.71491e-06
2.7153e-06
2.71559e-06
2.71576e-06
2.71583e-06
2.71579e-06
2.71565e-06
2.71539e-06
2.71503e-06
2.71454e-06
2.71395e-06
2.7133e-06
2.71265e-06
2.71187e-06
2.71254e-06
2.71318e-06
2.71377e-06
2.7143e-06
2.7147e-06
2.71499e-06
2.71517e-06
2.71524e-06
2.7152e-06
2.71505e-06
2.71479e-06
2.71442e-06
2.71391e-06
2.7133e-06
2.71258e-06
2.7119e-06
2.71111e-06
2.71185e-06
2.71253e-06
2.71311e-06
2.71365e-06
2.71406e-06
2.71435e-06
2.71453e-06
2.7146e-06
2.71456e-06
2.71441e-06
2.71415e-06
2.71378e-06
2.71326e-06
2.71265e-06
2.7119e-06
2.71115e-06
2.66179e-06
2.66326e-06
2.66461e-06
2.6659e-06
2.66699e-06
2.66779e-06
2.66837e-06
2.66871e-06
2.66885e-06
2.66877e-06
2.66847e-06
2.66795e-06
2.66721e-06
2.66619e-06
2.66492e-06
2.66344e-06
2.66187e-06
2.66326e-06
2.6645e-06
2.6658e-06
2.66705e-06
2.6681e-06
2.66888e-06
2.66943e-06
2.66977e-06
2.6699e-06
2.66982e-06
2.66954e-06
2.66903e-06
2.66832e-06
2.66734e-06
2.66611e-06
2.66468e-06
2.66334e-06
2.66461e-06
2.6658e-06
2.66704e-06
2.66823e-06
2.66923e-06
2.66997e-06
2.6705e-06
2.67082e-06
2.67095e-06
2.67087e-06
2.6706e-06
2.67012e-06
2.66944e-06
2.66851e-06
2.66733e-06
2.66597e-06
2.6647e-06
2.6659e-06
2.66705e-06
2.66823e-06
2.66937e-06
2.67032e-06
2.67103e-06
2.67154e-06
2.67185e-06
2.67197e-06
2.6719e-06
2.67164e-06
2.67118e-06
2.67053e-06
2.66964e-06
2.66851e-06
2.66722e-06
2.66599e-06
2.66699e-06
2.6681e-06
2.66922e-06
2.67032e-06
2.67123e-06
2.67192e-06
2.67241e-06
2.6727e-06
2.67282e-06
2.67275e-06
2.6725e-06
2.67207e-06
2.67144e-06
2.67059e-06
2.6695e-06
2.66826e-06
2.66707e-06
2.66779e-06
2.66888e-06
2.66997e-06
2.67103e-06
2.67192e-06
2.67259e-06
2.67306e-06
2.67335e-06
2.67347e-06
2.6734e-06
2.67316e-06
2.67273e-06
2.67212e-06
2.6713e-06
2.67024e-06
2.66904e-06
2.66788e-06
2.66836e-06
2.66943e-06
2.6705e-06
2.67154e-06
2.67241e-06
2.67306e-06
2.67353e-06
2.67381e-06
2.67392e-06
2.67386e-06
2.67362e-06
2.67321e-06
2.67261e-06
2.6718e-06
2.67077e-06
2.6696e-06
2.66845e-06
2.66871e-06
2.66977e-06
2.67082e-06
2.67185e-06
2.6727e-06
2.67335e-06
2.67381e-06
2.67409e-06
2.6742e-06
2.67414e-06
2.67391e-06
2.6735e-06
2.6729e-06
2.67211e-06
2.67109e-06
2.66993e-06
2.6688e-06
2.66885e-06
2.6699e-06
2.67095e-06
2.67197e-06
2.67282e-06
2.67347e-06
2.67392e-06
2.6742e-06
2.67431e-06
2.67425e-06
2.67402e-06
2.67361e-06
2.67302e-06
2.67223e-06
2.67121e-06
2.67006e-06
2.66894e-06
2.66877e-06
2.66982e-06
2.67087e-06
2.6719e-06
2.67275e-06
2.6734e-06
2.67386e-06
2.67414e-06
2.67425e-06
2.67419e-06
2.67395e-06
2.67354e-06
2.67295e-06
2.67216e-06
2.67114e-06
2.66999e-06
2.66886e-06
2.66847e-06
2.66954e-06
2.6706e-06
2.67164e-06
2.6725e-06
2.67316e-06
2.67362e-06
2.67391e-06
2.67402e-06
2.67395e-06
2.67372e-06
2.6733e-06
2.6727e-06
2.6719e-06
2.67087e-06
2.6697e-06
2.66856e-06
2.66795e-06
2.66903e-06
2.67012e-06
2.67118e-06
2.67207e-06
2.67274e-06
2.67321e-06
2.6735e-06
2.67361e-06
2.67354e-06
2.6733e-06
2.67288e-06
2.67227e-06
2.67145e-06
2.6704e-06
2.6692e-06
2.66804e-06
2.66721e-06
2.66832e-06
2.66944e-06
2.67053e-06
2.67144e-06
2.67212e-06
2.67261e-06
2.6729e-06
2.67302e-06
2.67295e-06
2.6727e-06
2.67227e-06
2.67164e-06
2.6708e-06
2.66972e-06
2.66849e-06
2.6673e-06
2.66619e-06
2.66734e-06
2.66851e-06
2.66964e-06
2.67059e-06
2.6713e-06
2.6718e-06
2.67211e-06
2.67223e-06
2.67216e-06
2.6719e-06
2.67145e-06
2.6708e-06
2.66992e-06
2.6688e-06
2.66751e-06
2.66628e-06
2.66492e-06
2.66611e-06
2.66734e-06
2.66852e-06
2.6695e-06
2.67025e-06
2.67077e-06
2.67109e-06
2.67121e-06
2.67114e-06
2.67087e-06
2.6704e-06
2.66972e-06
2.6688e-06
2.66763e-06
2.66628e-06
2.665e-06
2.66345e-06
2.66468e-06
2.66597e-06
2.66722e-06
2.66827e-06
2.66904e-06
2.6696e-06
2.66993e-06
2.67007e-06
2.66999e-06
2.6697e-06
2.6692e-06
2.66849e-06
2.66751e-06
2.66628e-06
2.66485e-06
2.66353e-06
2.66187e-06
2.66334e-06
2.6647e-06
2.66599e-06
2.66707e-06
2.66788e-06
2.66845e-06
2.6688e-06
2.66894e-06
2.66886e-06
2.66856e-06
2.66804e-06
2.6673e-06
2.66628e-06
2.665e-06
2.66353e-06
2.66194e-06
2.61287e-06
2.6146e-06
2.61615e-06
2.61767e-06
2.61895e-06
2.61991e-06
2.6206e-06
2.62102e-06
2.62118e-06
2.62108e-06
2.62072e-06
2.62009e-06
2.6192e-06
2.61799e-06
2.61646e-06
2.61478e-06
2.61292e-06
2.6146e-06
2.61605e-06
2.61757e-06
2.61905e-06
2.6203e-06
2.62125e-06
2.62193e-06
2.62234e-06
2.6225e-06
2.62241e-06
2.62205e-06
2.62143e-06
2.62055e-06
2.61937e-06
2.61788e-06
2.61622e-06
2.61466e-06
2.61615e-06
2.61757e-06
2.61905e-06
2.62048e-06
2.62169e-06
2.6226e-06
2.62326e-06
2.62366e-06
2.62381e-06
2.62372e-06
2.62338e-06
2.62278e-06
2.62193e-06
2.62079e-06
2.61936e-06
2.61773e-06
2.61621e-06
2.61767e-06
2.61905e-06
2.62048e-06
2.62186e-06
2.62302e-06
2.62391e-06
2.62454e-06
2.62493e-06
2.62508e-06
2.62499e-06
2.62466e-06
2.62408e-06
2.62326e-06
2.62216e-06
2.62078e-06
2.61921e-06
2.61773e-06
2.61895e-06
2.6203e-06
2.62169e-06
2.62302e-06
2.62415e-06
2.62501e-06
2.62563e-06
2.626e-06
2.62615e-06
2.62606e-06
2.62574e-06
2.62518e-06
2.62439e-06
2.62332e-06
2.62198e-06
2.62046e-06
2.61901e-06
2.61991e-06
2.62125e-06
2.6226e-06
2.62391e-06
2.62501e-06
2.62586e-06
2.62645e-06
2.62682e-06
2.62697e-06
2.62688e-06
2.62657e-06
2.62602e-06
2.62524e-06
2.62421e-06
2.6229e-06
2.62141e-06
2.61997e-06
2.6206e-06
2.62193e-06
2.62326e-06
2.62454e-06
2.62563e-06
2.62645e-06
2.62704e-06
2.62741e-06
2.62755e-06
2.62746e-06
2.62716e-06
2.62662e-06
2.62586e-06
2.62484e-06
2.62355e-06
2.62209e-06
2.62067e-06
2.62102e-06
2.62234e-06
2.62366e-06
2.62493e-06
2.626e-06
2.62682e-06
2.62741e-06
2.62777e-06
2.6279e-06
2.62782e-06
2.62752e-06
2.62699e-06
2.62623e-06
2.62522e-06
2.62395e-06
2.6225e-06
2.62109e-06
2.62118e-06
2.6225e-06
2.62381e-06
2.62508e-06
2.62615e-06
2.62697e-06
2.62755e-06
2.6279e-06
2.62804e-06
2.62796e-06
2.62766e-06
2.62713e-06
2.62638e-06
2.62537e-06
2.6241e-06
2.62266e-06
2.62125e-06
2.62108e-06
2.6224e-06
2.62372e-06
2.62499e-06
2.62606e-06
2.62688e-06
2.62746e-06
2.62782e-06
2.62796e-06
2.62788e-06
2.62757e-06
2.62705e-06
2.62629e-06
2.62528e-06
2.62401e-06
2.62257e-06
2.62115e-06
2.62072e-06
2.62205e-06
2.62338e-06
2.62466e-06
2.62574e-06
2.62657e-06
2.62716e-06
2.62752e-06
2.62766e-06
2.62757e-06
2.62727e-06
2.62673e-06
2.62597e-06
2.62495e-06
2.62367e-06
2.62221e-06
2.62079e-06
2.62009e-06
2.62143e-06
2.62278e-06
2.62408e-06
2.62518e-06
2.62602e-06
2.62662e-06
2.62699e-06
2.62713e-06
2.62705e-06
2.62673e-06
2.62619e-06
2.62542e-06
2.62438e-06
2.62308e-06
2.62159e-06
2.62016e-06
2.6192e-06
2.62055e-06
2.62193e-06
2.62326e-06
2.62439e-06
2.62525e-06
2.62586e-06
2.62623e-06
2.62638e-06
2.62629e-06
2.62597e-06
2.62542e-06
2.62462e-06
2.62356e-06
2.62223e-06
2.62071e-06
2.61926e-06
2.61799e-06
2.61937e-06
2.62079e-06
2.62217e-06
2.62332e-06
2.62421e-06
2.62484e-06
2.62522e-06
2.62537e-06
2.62528e-06
2.62495e-06
2.62438e-06
2.62356e-06
2.62247e-06
2.6211e-06
2.61953e-06
2.61806e-06
2.61646e-06
2.61788e-06
2.61936e-06
2.62079e-06
2.62199e-06
2.6229e-06
2.62355e-06
2.62395e-06
2.6241e-06
2.62401e-06
2.62367e-06
2.62308e-06
2.62223e-06
2.6211e-06
2.61967e-06
2.61805e-06
2.61652e-06
2.61478e-06
2.61622e-06
2.61773e-06
2.61921e-06
2.62046e-06
2.62141e-06
2.62209e-06
2.62251e-06
2.62267e-06
2.62257e-06
2.62221e-06
2.62159e-06
2.62071e-06
2.61953e-06
2.61805e-06
2.61639e-06
2.61484e-06
2.61292e-06
2.61466e-06
2.61621e-06
2.61774e-06
2.61901e-06
2.61998e-06
2.62067e-06
2.62109e-06
2.62125e-06
2.62115e-06
2.62079e-06
2.62016e-06
2.61926e-06
2.61806e-06
2.61652e-06
2.61484e-06
2.61298e-06
2.56732e-06
2.56914e-06
2.57075e-06
2.57237e-06
2.57371e-06
2.57473e-06
2.57546e-06
2.57591e-06
2.57608e-06
2.57597e-06
2.57558e-06
2.57491e-06
2.57396e-06
2.57269e-06
2.57105e-06
2.5693e-06
2.56735e-06
2.56914e-06
2.57067e-06
2.57227e-06
2.57385e-06
2.57518e-06
2.5762e-06
2.57693e-06
2.57737e-06
2.57754e-06
2.57743e-06
2.57705e-06
2.57638e-06
2.57543e-06
2.57417e-06
2.57257e-06
2.57082e-06
2.56917e-06
2.57075e-06
2.57227e-06
2.57385e-06
2.57538e-06
2.57668e-06
2.57767e-06
2.57838e-06
2.57881e-06
2.57898e-06
2.57887e-06
2.5785e-06
2.57785e-06
2.57692e-06
2.57569e-06
2.57415e-06
2.57241e-06
2.57079e-06
2.57237e-06
2.57385e-06
2.57538e-06
2.57686e-06
2.57812e-06
2.57909e-06
2.57978e-06
2.5802e-06
2.58036e-06
2.58026e-06
2.57989e-06
2.57926e-06
2.57836e-06
2.57717e-06
2.57567e-06
2.57398e-06
2.5724e-06
2.57371e-06
2.57518e-06
2.57668e-06
2.57812e-06
2.57935e-06
2.5803e-06
2.58097e-06
2.58138e-06
2.58154e-06
2.58144e-06
2.58108e-06
2.58047e-06
2.57959e-06
2.57842e-06
2.57696e-06
2.57531e-06
2.57374e-06
2.57473e-06
2.5762e-06
2.57767e-06
2.57909e-06
2.5803e-06
2.58123e-06
2.58189e-06
2.58229e-06
2.58245e-06
2.58235e-06
2.582e-06
2.5814e-06
2.58053e-06
2.57939e-06
2.57795e-06
2.57633e-06
2.57477e-06
2.57546e-06
2.57693e-06
2.57838e-06
2.57978e-06
2.58097e-06
2.58189e-06
2.58254e-06
2.58294e-06
2.58309e-06
2.583e-06
2.58265e-06
2.58206e-06
2.5812e-06
2.58007e-06
2.57865e-06
2.57706e-06
2.5755e-06
2.57591e-06
2.57737e-06
2.57881e-06
2.5802e-06
2.58138e-06
2.58229e-06
2.58294e-06
2.58334e-06
2.58349e-06
2.58339e-06
2.58305e-06
2.58246e-06
2.58161e-06
2.58049e-06
2.57909e-06
2.5775e-06
2.57595e-06
2.57608e-06
2.57754e-06
2.57898e-06
2.58036e-06
2.58154e-06
2.58245e-06
2.58309e-06
2.58349e-06
2.58364e-06
2.58355e-06
2.58321e-06
2.58262e-06
2.58177e-06
2.58065e-06
2.57925e-06
2.57767e-06
2.57612e-06
2.57597e-06
2.57743e-06
2.57887e-06
2.58026e-06
2.58144e-06
2.58235e-06
2.583e-06
2.58339e-06
2.58355e-06
2.58345e-06
2.58311e-06
2.58252e-06
2.58167e-06
2.58055e-06
2.57915e-06
2.57757e-06
2.57601e-06
2.57558e-06
2.57705e-06
2.5785e-06
2.57989e-06
2.58109e-06
2.582e-06
2.58265e-06
2.58305e-06
2.58321e-06
2.58311e-06
2.58276e-06
2.58217e-06
2.58132e-06
2.58019e-06
2.57877e-06
2.57718e-06
2.57562e-06
2.57491e-06
2.57638e-06
2.57785e-06
2.57926e-06
2.58047e-06
2.5814e-06
2.58206e-06
2.58246e-06
2.58262e-06
2.58252e-06
2.58217e-06
2.58157e-06
2.5807e-06
2.57956e-06
2.57813e-06
2.57651e-06
2.57495e-06
2.57396e-06
2.57543e-06
2.57692e-06
2.57836e-06
2.57959e-06
2.58053e-06
2.5812e-06
2.58161e-06
2.58177e-06
2.58167e-06
2.58132e-06
2.5807e-06
2.57983e-06
2.57866e-06
2.57721e-06
2.57556e-06
2.574e-06
2.57269e-06
2.57417e-06
2.57569e-06
2.57717e-06
2.57842e-06
2.57939e-06
2.58007e-06
2.58049e-06
2.58065e-06
2.58055e-06
2.58019e-06
2.57956e-06
2.57866e-06
2.57747e-06
2.57598e-06
2.5743e-06
2.57273e-06
2.57105e-06
2.57257e-06
2.57415e-06
2.57567e-06
2.57696e-06
2.57795e-06
2.57866e-06
2.57909e-06
2.57925e-06
2.57915e-06
2.57878e-06
2.57813e-06
2.57721e-06
2.57598e-06
2.57445e-06
2.57271e-06
2.57109e-06
2.5693e-06
2.57082e-06
2.57241e-06
2.57398e-06
2.57531e-06
2.57633e-06
2.57706e-06
2.5775e-06
2.57768e-06
2.57757e-06
2.57718e-06
2.57651e-06
2.57556e-06
2.5743e-06
2.57271e-06
2.57097e-06
2.56934e-06
2.56735e-06
2.56917e-06
2.57079e-06
2.57241e-06
2.57374e-06
2.57477e-06
2.5755e-06
2.57595e-06
2.57612e-06
2.57601e-06
2.57562e-06
2.57495e-06
2.574e-06
2.57273e-06
2.57109e-06
2.56934e-06
2.56739e-06
2.52448e-06
2.52626e-06
2.52785e-06
2.52948e-06
2.53082e-06
2.53185e-06
2.53259e-06
2.53304e-06
2.53321e-06
2.5331e-06
2.53271e-06
2.53203e-06
2.53107e-06
2.5298e-06
2.52815e-06
2.52642e-06
2.52451e-06
2.52626e-06
2.52778e-06
2.52936e-06
2.53095e-06
2.5323e-06
2.53333e-06
2.53407e-06
2.53453e-06
2.5347e-06
2.53459e-06
2.53419e-06
2.53351e-06
2.53255e-06
2.53127e-06
2.52966e-06
2.52792e-06
2.52629e-06
2.52785e-06
2.52936e-06
2.53096e-06
2.5325e-06
2.53382e-06
2.53483e-06
2.53556e-06
2.536e-06
2.53617e-06
2.53606e-06
2.53568e-06
2.53501e-06
2.53407e-06
2.53282e-06
2.53125e-06
2.5295e-06
2.52789e-06
2.52948e-06
2.53095e-06
2.5325e-06
2.53401e-06
2.5353e-06
2.53629e-06
2.537e-06
2.53744e-06
2.5376e-06
2.5375e-06
2.53712e-06
2.53647e-06
2.53554e-06
2.53432e-06
2.5328e-06
2.53108e-06
2.52951e-06
2.53082e-06
2.5323e-06
2.53382e-06
2.5353e-06
2.53656e-06
2.53754e-06
2.53823e-06
2.53866e-06
2.53883e-06
2.53872e-06
2.53835e-06
2.53771e-06
2.5368e-06
2.5356e-06
2.53411e-06
2.53243e-06
2.53085e-06
2.53185e-06
2.53333e-06
2.53483e-06
2.53629e-06
2.53754e-06
2.5385e-06
2.53919e-06
2.53961e-06
2.53977e-06
2.53967e-06
2.5393e-06
2.53867e-06
2.53778e-06
2.53659e-06
2.53512e-06
2.53346e-06
2.53188e-06
2.53259e-06
2.53407e-06
2.53556e-06
2.537e-06
2.53823e-06
2.53919e-06
2.53987e-06
2.54028e-06
2.54044e-06
2.54034e-06
2.53998e-06
2.53936e-06
2.53847e-06
2.5373e-06
2.53584e-06
2.5342e-06
2.53262e-06
2.53304e-06
2.53453e-06
2.536e-06
2.53743e-06
2.53866e-06
2.53961e-06
2.54028e-06
2.5407e-06
2.54086e-06
2.54076e-06
2.5404e-06
2.53978e-06
2.5389e-06
2.53773e-06
2.53628e-06
2.53466e-06
2.53308e-06
2.53321e-06
2.5347e-06
2.53617e-06
2.5376e-06
2.53883e-06
2.53977e-06
2.54044e-06
2.54086e-06
2.54102e-06
2.54092e-06
2.54056e-06
2.53994e-06
2.53906e-06
2.5379e-06
2.53645e-06
2.53483e-06
2.53325e-06
2.5331e-06
2.53459e-06
2.53606e-06
2.5375e-06
2.53872e-06
2.53967e-06
2.54034e-06
2.54076e-06
2.54092e-06
2.54082e-06
2.54046e-06
2.53984e-06
2.53896e-06
2.53779e-06
2.53634e-06
2.53472e-06
2.53314e-06
2.53271e-06
2.53419e-06
2.53568e-06
2.53712e-06
2.53835e-06
2.5393e-06
2.53998e-06
2.5404e-06
2.54056e-06
2.54046e-06
2.54009e-06
2.53947e-06
2.53859e-06
2.53742e-06
2.53596e-06
2.53432e-06
2.53274e-06
2.53203e-06
2.53351e-06
2.53501e-06
2.53647e-06
2.53771e-06
2.53867e-06
2.53936e-06
2.53978e-06
2.53994e-06
2.53984e-06
2.53947e-06
2.53885e-06
2.53795e-06
2.53677e-06
2.5353e-06
2.53364e-06
2.53206e-06
2.53107e-06
2.53255e-06
2.53407e-06
2.53554e-06
2.5368e-06
2.53778e-06
2.53847e-06
2.5389e-06
2.53906e-06
2.53896e-06
2.53859e-06
2.53795e-06
2.53704e-06
2.53585e-06
2.53435e-06
2.53268e-06
2.5311e-06
2.5298e-06
2.53127e-06
2.53282e-06
2.53432e-06
2.5356e-06
2.53659e-06
2.5373e-06
2.53773e-06
2.5379e-06
2.53779e-06
2.53742e-06
2.53677e-06
2.53585e-06
2.53463e-06
2.53311e-06
2.5314e-06
2.52983e-06
2.52815e-06
2.52966e-06
2.53125e-06
2.5328e-06
2.53411e-06
2.53512e-06
2.53584e-06
2.53628e-06
2.53645e-06
2.53634e-06
2.53596e-06
2.5353e-06
2.53435e-06
2.53311e-06
2.53155e-06
2.5298e-06
2.52818e-06
2.52642e-06
2.52792e-06
2.5295e-06
2.53109e-06
2.53243e-06
2.53346e-06
2.5342e-06
2.53466e-06
2.53483e-06
2.53472e-06
2.53433e-06
2.53365e-06
2.53268e-06
2.5314e-06
2.5298e-06
2.52807e-06
2.52645e-06
2.52451e-06
2.5263e-06
2.52789e-06
2.52951e-06
2.53085e-06
2.53189e-06
2.53263e-06
2.53308e-06
2.53325e-06
2.53314e-06
2.53275e-06
2.53207e-06
2.5311e-06
2.52983e-06
2.52818e-06
2.52645e-06
2.52454e-06
2.4839e-06
2.48555e-06
2.48704e-06
2.48858e-06
2.48984e-06
2.49083e-06
2.49154e-06
2.49197e-06
2.49214e-06
2.49203e-06
2.49165e-06
2.491e-06
2.49008e-06
2.48888e-06
2.48731e-06
2.4857e-06
2.48393e-06
2.48555e-06
2.48697e-06
2.48846e-06
2.48997e-06
2.49125e-06
2.49224e-06
2.49296e-06
2.49339e-06
2.49356e-06
2.49345e-06
2.49307e-06
2.49242e-06
2.49149e-06
2.49027e-06
2.48874e-06
2.48711e-06
2.48558e-06
2.48704e-06
2.48846e-06
2.48997e-06
2.49145e-06
2.49271e-06
2.49369e-06
2.49439e-06
2.49482e-06
2.49498e-06
2.49488e-06
2.4945e-06
2.49386e-06
2.49295e-06
2.49175e-06
2.49025e-06
2.48859e-06
2.48707e-06
2.48858e-06
2.48997e-06
2.49145e-06
2.49289e-06
2.49414e-06
2.4951e-06
2.49579e-06
2.49621e-06
2.49638e-06
2.49627e-06
2.4959e-06
2.49527e-06
2.49437e-06
2.49319e-06
2.49173e-06
2.49009e-06
2.48861e-06
2.48984e-06
2.49125e-06
2.49271e-06
2.49414e-06
2.49536e-06
2.49632e-06
2.497e-06
2.49741e-06
2.49757e-06
2.49747e-06
2.49711e-06
2.49648e-06
2.4956e-06
2.49443e-06
2.49299e-06
2.49137e-06
2.48987e-06
2.49083e-06
2.49224e-06
2.49369e-06
2.4951e-06
2.49632e-06
2.49726e-06
2.49793e-06
2.49834e-06
2.4985e-06
2.4984e-06
2.49804e-06
2.49742e-06
2.49655e-06
2.49539e-06
2.49396e-06
2.49237e-06
2.49086e-06
2.49154e-06
2.49296e-06
2.49439e-06
2.49579e-06
2.497e-06
2.49793e-06
2.4986e-06
2.49901e-06
2.49917e-06
2.49907e-06
2.49871e-06
2.4981e-06
2.49722e-06
2.49608e-06
2.49466e-06
2.49308e-06
2.49157e-06
2.49197e-06
2.49339e-06
2.49482e-06
2.49621e-06
2.49741e-06
2.49834e-06
2.49901e-06
2.49942e-06
2.49958e-06
2.49948e-06
2.49912e-06
2.49851e-06
2.49764e-06
2.4965e-06
2.49509e-06
2.49352e-06
2.492e-06
2.49214e-06
2.49356e-06
2.49498e-06
2.49638e-06
2.49758e-06
2.4985e-06
2.49917e-06
2.49958e-06
2.49973e-06
2.49963e-06
2.49928e-06
2.49867e-06
2.4978e-06
2.49666e-06
2.49525e-06
2.49368e-06
2.49217e-06
2.49203e-06
2.49345e-06
2.49488e-06
2.49627e-06
2.49747e-06
2.4984e-06
2.49907e-06
2.49948e-06
2.49963e-06
2.49953e-06
2.49918e-06
2.49857e-06
2.4977e-06
2.49656e-06
2.49515e-06
2.49358e-06
2.49206e-06
2.49165e-06
2.49307e-06
2.4945e-06
2.4959e-06
2.49711e-06
2.49804e-06
2.49871e-06
2.49912e-06
2.49928e-06
2.49918e-06
2.49882e-06
2.49821e-06
2.49734e-06
2.49619e-06
2.49477e-06
2.4932e-06
2.49168e-06
2.491e-06
2.49242e-06
2.49386e-06
2.49527e-06
2.49648e-06
2.49743e-06
2.4981e-06
2.49851e-06
2.49867e-06
2.49857e-06
2.49821e-06
2.49759e-06
2.49671e-06
2.49556e-06
2.49413e-06
2.49254e-06
2.49103e-06
2.49008e-06
2.49149e-06
2.49295e-06
2.49437e-06
2.4956e-06
2.49655e-06
2.49723e-06
2.49764e-06
2.4978e-06
2.4977e-06
2.49734e-06
2.49671e-06
2.49583e-06
2.49466e-06
2.49322e-06
2.49161e-06
2.49011e-06
2.48888e-06
2.49027e-06
2.49175e-06
2.49319e-06
2.49443e-06
2.49539e-06
2.49608e-06
2.4965e-06
2.49667e-06
2.49656e-06
2.49619e-06
2.49556e-06
2.49466e-06
2.49349e-06
2.49203e-06
2.4904e-06
2.48891e-06
2.48732e-06
2.48874e-06
2.49025e-06
2.49173e-06
2.49299e-06
2.49396e-06
2.49466e-06
2.49509e-06
2.49525e-06
2.49515e-06
2.49478e-06
2.49413e-06
2.49322e-06
2.49203e-06
2.49053e-06
2.48887e-06
2.48734e-06
2.4857e-06
2.48711e-06
2.48859e-06
2.4901e-06
2.49137e-06
2.49237e-06
2.49308e-06
2.49352e-06
2.49369e-06
2.49358e-06
2.4932e-06
2.49254e-06
2.49161e-06
2.4904e-06
2.48887e-06
2.48724e-06
2.48573e-06
2.48393e-06
2.48558e-06
2.48707e-06
2.48861e-06
2.48987e-06
2.49086e-06
2.49157e-06
2.492e-06
2.49217e-06
2.49206e-06
2.49168e-06
2.49103e-06
2.49011e-06
2.48891e-06
2.48734e-06
2.48573e-06
2.48396e-06
2.44536e-06
2.44684e-06
2.44818e-06
2.44959e-06
2.45074e-06
2.45165e-06
2.4523e-06
2.4527e-06
2.45285e-06
2.45275e-06
2.4524e-06
2.45181e-06
2.45096e-06
2.44986e-06
2.44843e-06
2.44697e-06
2.44538e-06
2.44684e-06
2.44812e-06
2.44948e-06
2.45086e-06
2.45203e-06
2.45295e-06
2.45361e-06
2.45401e-06
2.45417e-06
2.45407e-06
2.45372e-06
2.45311e-06
2.45225e-06
2.45113e-06
2.44973e-06
2.44824e-06
2.44686e-06
2.44819e-06
2.44948e-06
2.45086e-06
2.45221e-06
2.45338e-06
2.45429e-06
2.45494e-06
2.45534e-06
2.45549e-06
2.45539e-06
2.45504e-06
2.45444e-06
2.4536e-06
2.45249e-06
2.45111e-06
2.44959e-06
2.44821e-06
2.44959e-06
2.45086e-06
2.45221e-06
2.45355e-06
2.4547e-06
2.4556e-06
2.45624e-06
2.45664e-06
2.45679e-06
2.45669e-06
2.45635e-06
2.45576e-06
2.45492e-06
2.45382e-06
2.45247e-06
2.45097e-06
2.44961e-06
2.45074e-06
2.45203e-06
2.45338e-06
2.4547e-06
2.45584e-06
2.45673e-06
2.45737e-06
2.45777e-06
2.45792e-06
2.45782e-06
2.45748e-06
2.45689e-06
2.45606e-06
2.45497e-06
2.45363e-06
2.45214e-06
2.45076e-06
2.45165e-06
2.45295e-06
2.45429e-06
2.4556e-06
2.45673e-06
2.45762e-06
2.45825e-06
2.45864e-06
2.45879e-06
2.4587e-06
2.45836e-06
2.45777e-06
2.45695e-06
2.45587e-06
2.45454e-06
2.45306e-06
2.45167e-06
2.4523e-06
2.45361e-06
2.45494e-06
2.45624e-06
2.45737e-06
2.45825e-06
2.45888e-06
2.45927e-06
2.45942e-06
2.45933e-06
2.45899e-06
2.45841e-06
2.45759e-06
2.45651e-06
2.45519e-06
2.45372e-06
2.45232e-06
2.4527e-06
2.45401e-06
2.45534e-06
2.45664e-06
2.45777e-06
2.45864e-06
2.45927e-06
2.45966e-06
2.45981e-06
2.45971e-06
2.45938e-06
2.4588e-06
2.45798e-06
2.45691e-06
2.45559e-06
2.45412e-06
2.45272e-06
2.45285e-06
2.45417e-06
2.45549e-06
2.45679e-06
2.45792e-06
2.45879e-06
2.45942e-06
2.45981e-06
2.45996e-06
2.45986e-06
2.45952e-06
2.45895e-06
2.45813e-06
2.45706e-06
2.45574e-06
2.45428e-06
2.45288e-06
2.45275e-06
2.45407e-06
2.45539e-06
2.4567e-06
2.45782e-06