/*--------------------------------*- C++ -*----------------------------------*\
  =========                 |
  \\      /  F ield         | OpenFOAM: The Open Source CFD Toolbox
   \\    /   O peration     | Website:  https://openfoam.org
    \\  /    A nd           | Version:  6
     \\/     M anipulation  |
\*---------------------------------------------------------------------------*/
FoamFile
{
    version     2.0;
    format      ascii;
    class       volScalarField;
    location    "0";
    object      p;
}
// * * * * * * * * * * * * * * * * * * * * * * * * * * * * * * * * * * * * * //

dimensions      [0 2 -2 0 0 0 0];

internalField   nonuniform List<scalar> 
13046
(
1.29667
1.27481
1.34314
1.31802
1.34126
1.29653
1.2845
1.29986
1.35004
0.678067
0.645631
1.25795
1.26758
1.21075
1.32501
0.828856
1.25578
0.719634
1.35044
1.33942
1.31136
0.805637
1.25853
0.711516
1.30867
1.31995
1.34381
1.23814
1.20895
1.32435
1.30625
1.23464
1.33169
1.33329
1.35236
1.31565
1.33548
1.35839
1.33283
1.29784
1.31822
1.2046
1.3365
1.36086
1.34339
1.33236
1.34486
1.34372
1.27726
1.26981
1.34236
1.26059
1.28708
1.10897
1.27037
1.07248
1.29242
0.9196
1.11201
1.26744
1.13419
1.16514
1.3047
1.27201
0.887882
0.921285
1.14548
0.93023
1.2627
1.17439
0.956984
1.26651
0.872503
1.08156
1.26526
1.34941
1.35315
1.28468
1.26565
1.01496
0.859096
1.2993
1.31123
1.33957
1.2673
0.836562
0.867306
0.872528
1.27128
0.938464
1.25644
0.77004
0.934355
1.12753
1.0889
1.08677
1.06091
1.29445
1.29446
1.27187
0.882591
0.969982
1.32971
1.34604
1.33598
1.32104
1.13638
1.28487
1.29274
1.30022
1.15257
0.449864
1.25275
0.430401
1.27894
1.23946
1.32535
1.08589
1.12215
1.00791
1.28407
1.06195
1.28861
0.630847
0.585623
1.25576
1.20058
1.12239
1.31435
1.29003
1.31767
1.20333
1.25744
0.815815
0.990512
1.01809
1.01051
1.28384
1.28868
1.21581
1.32314
1.20772
1.27809
1.32315
1.28511
1.27973
1.14893
1.31765
1.16862
1.30427
1.11624
1.12597
1.29736
1.34803
1.24017
1.30884
1.22193
1.05492
1.19992
1.04211
1.29028
1.28895
1.20661
1.24577
1.30702
0.667738
1.25734
0.672112
0.524039
1.25417
0.482213
0.99681
0.970123
1.28144
1.27885
1.12006
1.30346
1.21668
1.309
1.26315
1.25986
0.743927
0.698142
1.28617
1.15149
1.29842
1.34241
1.21567
1.29657
1.23114
1.28398
1.32353
1.19674
1.32603
1.21745
1.16104
1.31353
0.83932
1.26766
0.867373
1.26691
0.877071
1.00242
0.779473
0.911879
1.25769
1.24074
1.03544
1.26763
1.2464
1.03083
1.25692
0.851604
0.854119
0.750239
1.25601
1.32417
1.35528
1.33122
1.25312
1.21896
1.32228
1.26572
0.856631
1.0162
1.22215
1.21486
1.3309
1.25352
0.573481
0.546958
1.27098
1.03017
1.22645
0.838717
0.960067
1.26523
1.12136
1.22794
1.30696
1.18658
1.12761
1.31207
1.09429
0.897818
1.25824
1.0003
1.17167
1.27647
1.25366
0.566462
0.500061
1.30068
1.30405
1.13322
0.493718
1.25151
0.350338
1.34378
1.31379
1.32862
1.1337
1.15021
1.21774
1.23873
1.31612
1.30289
1.25662
0.973051
0.814679
1.21747
1.14761
1.30732
0.986282
1.13078
1.27646
1.04615
1.00923
1.28485
1.34611
1.33351
1.36172
1.0813
1.19924
1.29308
1.21656
1.11389
1.30435
1.22695
1.21374
1.30028
1.29132
1.10416
1.06765
1.16978
1.2896
0.9973
1.28036
0.984538
1.31938
1.30338
1.17764
1.2869
1.02919
1.20706
1.13014
1.02226
1.2813
1.28595
1.26643
1.10302
1.09385
1.07501
0.992426
1.27702
0.980698
1.27993
1.26179
0.776747
0.741608
1.14741
1.08875
1.29414
0.264996
1.24928
0.320101
1.28347
1.3269
1.29968
1.1657
1.18908
1.30957
1.27257
0.896372
0.917499
1.25613
1.03484
1.28626
1.05969
0.885075
1.26101
1.25784
1.33065
1.14002
1.16573
1.30794
1.24548
1.33073
0.884016
1.25992
0.770506
1.25131
1.00254
1.26618
1.11023
1.14088
1.30112
1.1953
1.26282
1.32324
1.14499
1.26626
1.30549
1.30458
1.27702
1.34313
1.27385
1.03698
1.21913
0.813165
0.884477
1.26627
1.06817
0.888492
1.26791
1.19622
1.26457
1.00337
1.04859
1.08118
0.950609
0.908772
1.26335
1.26982
1.25188
0.29932
0.375937
0.538958
1.25092
0.390366
1.10536
1.19885
1.29265
1.26454
0.811428
0.817168
1.1614
1.14519
1.01637
0.996099
1.28122
1.27613
1.25009
0.783643
0.634862
0.459708
1.24988
0.283511
1.31092
1.35051
1.34987
0.439127
0.365237
1.25321
1.26653
1.12235
1.29622
0.716876
0.774462
1.25891
0.294319
1.25334
0.191189
1.30865
1.31881
1.22941
1.28824
1.34008
1.34541
0.646754
1.25456
0.569725
1.27267
1.32574
1.34094
1.32294
1.35343
1.35392
1.27885
0.98981
1.2258
1.2675
1.34461
1.34143
1.29182
1.30167
1.3243
1.21829
1.01595
1.26425
1.2585
1.26013
0.711585
0.708032
0.764009
0.746684
0.75507
0.854015
1.26349
1.27217
1.1845
0.957923
1.28712
1.29493
1.16038
0.976889
1.16115
1.2638
0.461604
1.24917
0.293334
1.25662
0.751031
0.898848
0.559183
1.25449
0.54096
1.25584
0.237558
0.163666
0.164084
1.25574
0.238149
1.13057
1.03945
1.28406
0.662158
1.24807
0.487077
0.980908
1.00497
1.2821
0.760981
1.24866
0.592329
1.26531
1.33068
1.27845
0.827328
1.25241
0.680224
0.994718
1.26536
1.17753
1.11689
0.985648
1.28131
1.26113
0.0015178
0.00222756
0.319837
1.24984
0.279932
1.28803
1.33994
1.28281
0.763104
0.628401
1.25578
1.25018
0.576838
0.751701
0.818519
1.26479
0.813538
1.25982
0.83555
0.949792
1.23788
0.992454
1.2668
0.953617
1.11326
1.27656
1.25625
0.901794
0.728135
1.25104
1.23213
1.15168
1.12437
1.30736
1.30817
1.26219
1.1554
1.30622
1.18275
0.993331
1.28273
1.09166
0.934776
1.27157
0.833939
0.743895
1.25994
1.26976
0.926961
1.04707
0.182293
1.25416
0.294439
1.3184
1.31079
1.33409
1.23381
1.34078
1.25039
1.22648
1.22249
1.28637
1.03917
1.28591
1.08259
0.336239
1.25019
0.196624
0.786899
0.673197
1.25781
1.27086
1.27103
1.10093
1.12475
0.93247
1.26524
1.26097
0.856264
0.981598
0.444484
0.403211
1.25284
0.50549
0.432672
1.25223
1.15289
1.02738
1.28784
1.32603
1.29739
1.20014
0.77746
1.26216
0.755598
1.11084
1.00255
1.28737
1.27703
0.922001
0.965766
1.23704
1.28878
1.08413
1.13539
1.24083
1.30008
1.30089
1.30974
1.18302
1.26061
0.738424
0.730212
1.0447
0.985507
1.28108
1.31996
1.32857
1.24364
0.850893
1.25086
0.67371
1.26668
1.21114
1.32386
1.2564
1.28493
1.33623
1.13994
1.01689
1.28262
0.625451
1.25023
0.463128
0.667062
1.24891
0.487747
1.27406
0.899528
0.963429
1.09382
1.24835
1.28919
1.24783
0.390143
0.563408
1.27559
0.957697
0.93641
1.25425
0.196468
0.0961295
0.193938
0.0954821
1.25407
1.2604
0.765237
0.913294
1.25607
0.646291
0.614443
0.825831
0.867394
1.2611
0.750369
1.26511
0.809828
0.919596
0.979426
1.2754
1.27588
1.14608
0.925429
1.3284
1.34028
1.27303
0.95127
1.02682
1.27735
1.2775
0.969068
1.05223
0.937802
1.2563
0.74894
1.21249
1.00649
1.28143
1.24372
1.09968
1.2868
1.05369
1.11295
1.29679
1.03166
1.10086
1.29063
1.32747
1.32223
1.27076
1.22552
1.09707
1.30895
1.25152
0.85148
0.677709
0.405425
1.2508
0.526884
0.353519
1.25194
0.521356
1.28466
1.31426
1.17778
0.398238
1.25314
0.327989
1.00668
1.27632
0.929481
1.25019
0.411581
0.274781
1.32436
1.3459
1.31169
1.19831
1.18579
1.31412
1.25303
1.10819
1.29268
1.24948
0.698521
0.545425
1.10703
1.00711
1.28151
1.25193
0.812716
0.65724
1.16028
1.16324
1.31264
1.33835
1.34862
1.2843
0.697132
0.580815
1.25258
1.27529
0.921811
0.931699
0.606937
0.559223
1.2535
1.25253
0.50883
0.461334
1.16828
1.23396
1.31539
1.15543
1.06984
1.28736
1.27014
1.29518
1.34774
0.594028
0.465437
0.608155
1.25084
0.455453
1.24777
1.09265
1.08286
1.29802
0.572946
0.517177
0.661855
0.614437
1.25461
1.25374
1.07846
1.18402
1.30304
1.21162
1.22098
1.31919
0.719907
1.25038
0.565971
1.19032
1.20787
1.31252
1.25865
1.26352
1.33218
0.630385
1.25098
0.509563
1.16378
1.11365
1.30159
1.19806
0.964176
1.2666
1.24201
1.04617
1.28184
1.02417
1.25324
0.825664
1.25755
0.0637206
0.0640535
1.1646
1.19102
1.31303
0.759169
1.25589
0.652132
1.26026
0.996046
1.25393
0.326703
1.25064
0.197026
1.32846
1.31142
1.29865
1.22452
1.29825
1.19847
1.27546
1.2962
1.34085
1.31037
1.3299
1.31158
1.2299
1.33077
1.22123
1.19036
1.23891
1.32926
1.21234
1.24444
1.32557
1.24796
0.562427
0.381823
1.27709
1.17965
1.30711
0.626004
0.683061
1.25666
1.03873
1.00036
1.07951
1.03767
1.2897
1.28279
1.27327
1.2194
1.31728
1.1865
1.05059
1.28336
1.1016
1.12796
1.30295
1.33816
1.31583
1.34382
0.989202
1.05047
1.28159
1.31722
1.33002
1.27669
1.10454
1.1756
1.30279
1.18805
1.08482
1.28538
1.33506
1.33454
1.29688
1.35108
1.29553
1.34458
1.327
1.31529
1.33705
1.2725
1.34423
1.23778
1.25625
1.24777
1.17752
1.17479
1.31679
1.31019
1.265
0.857145
0.963567
1.26756
1.00016
1.21462
1.26577
1.26764
0.82127
0.842829
0.918356
0.913223
1.27661
1.271
1.06276
1.34367
1.3524
1.33342
0.976411
1.01917
1.28036
1.30594
1.32432
1.21185
1.17345
1.0738
1.28614
1.0323
1.04039
0.901646
1.27146
0.929518
1.27455
1.05434
1.0615
1.28978
0.380513
0.261927
1.25135
1.25458
1.02024
1.25881
1.24444
1.25069
1.2642
1.01399
1.279
1.04016
0.956844
1.07608
1.27399
1.20055
1.0714
1.28808
1.2773
1.26638
1.06299
1.25102
1.26336
1.27791
1.30047
1.10205
1.09735
1.24375
1.28441
1.06002
1.0645
1.08578
1.29457
1.32655
1.33312
1.28287
0.691087
1.25503
0.60327
1.2694
1.26895
1.03881
1.18567
1.15631
1.08388
1.06433
1.28934
1.29328
1.25693
0.652483
0.736666
0.725689
1.25331
0.594256
0.682227
1.25329
0.566626
1.00454
1.27233
0.907634
1.21617
1.10457
1.29485
0.78444
0.955865
1.19092
0.793454
1.12408
0.465343
1.04934
0.876341
0.759592
1.11108
1.10679
0.726117
0.797796
1.10855
0.937869
0.811973
0.819448
0.912969
0.953732
1.06323
0.979219
0.900937
1.12876
1.24634
1.20561
0.964814
1.14161
0.739788
1.00628
0.778145
0.756792
1.04352
0.968816
0.961557
0.792919
0.9884
1.18109
1.12497
0.846655
0.981641
0.875611
1.25611
0.820829
1.1067
1.14302
0.893731
0.905189
0.844433
0.73417
0.821302
1.20788
0.983513
0.816412
0.884807
0.753992
1.20097
1.06507
0.976716
0.837247
1.09525
0.81632
0.8306
1.20677
0.90226
0.976186
1.06881
0.99674
1.24045
1.12709
1.09959
0.702974
0.753146
0.87614
1.08604
0.736353
0.960335
0.949008
0.783897
1.07991
1.16044
0.91226
0.963049
0.740933
0.801818
0.884695
1.09338
0.886826
0.816095
0.932308
1.21143
0.818824
1.09666
1.20437
0.965983
0.805122
0.355395
0.797466
0.850131
0.804029
0.698577
1.03384
1.13364
1.15752
1.24742
0.804587
0.786003
0.73447
0.835438
0.800987
1.1782
1.14004
1.063
0.783358
0.752518
0.997918
1.1209
0.915439
0.816798
0.686476
0.904394
0.955001
1.21968
1.23596
1.09023
0.978004
0.883618
0.73082
1.22572
0.713147
1.08242
0.69261
1.20235
0.743298
0.666918
0.760535
1.15803
0.947709
0.648515
0.813304
1.05243
0.80286
1.09844
1.0134
0.836892
1.14328
0.883472
0.791619
1.17002
0.818975
0.922024
0.728862
0.986931
0.844027
1.16351
1.09537
0.904073
1.08566
1.10008
1.18765
0.954487
0.870694
0.830466
1.09465
0.713033
0.974728
0.743118
1.2433
0.907914
1.15987
1.22309
0.98649
1.23037
1.16982
1.18622
0.770375
0.684746
0.728257
1.19083
0.774982
0.751209
0.697506
0.754684
0.918133
0.88296
0.991192
1.22385
1.09228
0.876458
1.09138
0.865622
1.25021
0.625106
1.13271
0.842607
0.673399
1.2096
1.22683
0.832969
0.850846
1.24303
1.01109
0.828555
0.803036
1.08669
1.17849
1.05553
0.808178
0.838467
1.11036
0.972136
0.803974
0.987799
0.694339
0.769794
0.885504
1.11858
0.694277
0.861339
1.1344
0.879625
0.688182
0.904967
0.822474
0.859614
1.03318
1.04658
0.796144
0.747401
0.747527
1.06704
1.04103
0.904722
1.05173
0.890725
0.776192
1.01683
0.876798
0.665976
1.04852
1.16851
0.995724
1.20767
1.18118
1.25217
0.809572
0.640828
0.93154
0.903344
0.852132
0.704222
1.02001
1.2052
1.08129
1.01222
0.796263
0.91057
1.07322
0.976357
1.04227
0.820832
0.933059
0.873643
0.674869
0.800301
0.840094
0.816615
0.786338
1.05095
0.975978
0.906982
1.06063
0.815402
0.920811
0.822685
0.905789
0.871186
0.860741
1.00619
0.702753
0.630789
0.936921
0.7201
0.688003
1.01136
0.638188
0.690967
1.1642
1.05758
0.809036
1.05896
0.763774
1.04299
0.988241
0.696349
0.815221
1.123
0.9379
1.09059
0.463073
0.782374
1.16763
0.866313
0.766416
0.60672
0.705207
0.677448
0.711817
0.880014
1.05885
0.777808
0.676893
0.802738
0.857091
1.2504
0.774143
1.08291
1.01162
0.655759
0.886584
0.798148
0.747541
1.03631
0.892143
1.20371
1.04562
0.791128
0.883824
0.986539
1.24524
1.07129
1.18234
1.09622
0.877877
0.992724
0.918848
0.793438
0.708962
0.852833
0.829312
1.04883
0.829823
0.729984
0.814423
0.86061
0.807712
0.816108
1.14748
0.853187
0.845324
1.1916
1.14442
0.800373
0.948194
1.17902
0.821726
0.625421
0.885789
0.781207
0.744658
1.17317
0.808186
0.902316
1.17865
0.691852
0.986088
0.818673
0.98915
0.889305
0.839918
0.383481
0.877403
0.731558
0.852855
0.89601
0.895129
1.08028
1.20443
0.803503
0.956191
0.856673
0.742945
0.660209
1.13737
1.01356
0.858949
0.732013
1.00198
0.724895
0.79956
0.798711
0.794009
1.09501
1.20169
0.870169
1.0672
1.24371
1.14367
1.13394
1.19033
0.828669
0.85291
0.747288
1.24379
1.1232
1.16116
0.837867
0.882213
0.682623
1.08229
0.86643
0.764077
1.16073
1.03211
0.72569
0.871941
0.81364
0.813611
0.818639
0.884945
0.90767
0.765681
0.865504
0.712137
0.88834
0.773955
1.02604
0.907665
0.695003
1.18147
1.19567
1.09293
0.863929
0.994154
0.628338
1.10946
0.978285
0.72171
1.17697
0.551168
1.20631
0.722741
0.918841
0.927817
1.09039
1.0999
0.805694
1.2226
0.811496
1.14953
0.919441
1.01725
0.856497
0.781632
0.845143
1.15567
0.918519
1.23833
1.07059
0.705595
0.781527
1.04494
0.581599
0.868039
0.920941
0.768464
1.21221
0.722544
0.697093
1.11612
0.846338
1.20337
1.23352
0.8925
1.24096
1.21791
1.15369
1.16763
1.0122
0.734895
0.816289
0.897017
1.13678
0.891613
0.550413
1.22
0.779827
0.916382
0.807166
1.18755
1.24814
0.795396
1.14476
1.00756
1.20432
0.876343
1.10206
0.900053
1.22205
1.23528
1.06776
0.813459
1.10999
0.845329
0.935248
0.961979
0.909808
1.01282
0.806418
0.56328
0.749323
0.924089
1.03359
0.974761
1.17076
0.798896
0.861794
1.03061
0.75238
1.19434
0.785324
0.899954
1.17972
1.15971
0.989285
1.22809
0.794166
0.882008
1.10609
0.935981
0.898775
0.916819
0.847053
1.0477
1.07728
0.847729
0.81041
0.991019
0.706181
0.763006
1.20416
1.2422
1.23975
0.876105
1.24962
1.24632
1.21607
0.658174
1.02355
1.01463
1.22909
0.877379
0.79602
0.73388
0.810902
0.517578
1.21899
0.934364
0.944698
1.10696
1.06805
0.869507
0.897652
1.24591
1.22337
1.18139
1.05927
0.859824
1.06493
1.04696
0.875231
0.923724
0.75734
0.809589
0.957643
0.946132
0.851105
1.20203
1.20491
0.663696
1.15727
0.823914
0.808215
0.873199
1.19723
0.905511
1.06265
0.928528
1.18488
0.885407
0.930529
1.23501
0.682259
0.702995
0.797749
0.773099
0.634003
0.307079
0.788245
0.642489
0.955034
0.661661
0.768247
0.944911
0.840165
0.788968
0.859978
0.744199
0.357117
1.21834
1.1348
0.893925
0.729357
1.14283
0.867113
0.794552
1.2347
0.797404
1.23174
0.902604
1.16488
0.870864
0.660437
0.760461
0.968312
0.974
0.956348
0.666066
0.892825
0.773508
0.776311
0.811571
0.696915
0.74988
1.21701
0.776574
1.07814
1.11349
0.87962
1.10129
1.11759
0.732667
0.318852
0.919298
0.71081
0.640824
1.08564
1.09303
0.895347
1.03948
0.869072
1.23594
1.21574
0.920123
0.857522
1.22559
1.17293
1.03141
1.02699
0.881389
1.23907
0.944622
0.661125
1.18872
1.14017
1.20677
0.98136
0.81882
0.870166
1.09579
1.03971
0.208874
1.25598
0.915977
0.797653
0.97275
1.1578
1.23722
1.24032
1.03611
0.923893
1.12067
1.17491
1.18237
1.07858
1.13872
0.678619
0.813038
0.994264
0.747293
0.671901
0.694771
0.913001
1.12014
0.713352
0.963508
0.80247
1.12337
1.24012
0.931213
0.737785
0.681876
1.06983
0.853535
0.803368
0.688079
1.19096
1.00305
1.01901
0.716422
1.01963
0.805619
0.81738
1.08376
1.1156
1.19643
1.24893
0.78612
1.17481
0.664667
1.19222
1.20501
1.20596
1.1227
0.767713
0.767569
0.900392
0.659177
0.935877
0.692871
0.988736
0.723447
1.15331
0.88075
0.673401
1.15889
1.08239
0.924603
0.936292
1.07378
1.19332
1.00499
0.953152
0.669434
1.14217
0.935301
1.22167
0.640092
0.949159
1.19024
1.09316
1.22729
1.09881
0.894647
0.615778
0.672191
0.936395
0.70815
1.21953
0.661565
0.810419
0.921225
0.80904
1.10876
0.645562
1.1828
1.09813
1.02151
0.567435
1.02614
0.759104
0.844809
0.93556
0.922065
0.881363
0.86198
1.12304
0.771196
1.24855
0.872337
0.888972
1.06149
1.07308
1.2169
0.882783
0.912507
0.785852
0.920418
0.857237
1.21299
0.809187
0.960113
0.879439
1.14119
0.832294
0.977568
0.745639
1.24058
0.656097
0.764566
0.797572
1.14518
0.678855
0.69511
0.759831
0.730482
1.20315
0.948669
1.07023
1.16469
1.05033
0.914119
1.24215
0.918983
1.08339
1.04892
0.962465
0.693915
0.982018
0.936724
0.825795
0.976484
0.727758
0.705845
0.983417
0.829053
0.778675
1.13441
0.915072
1.03866
0.930163
1.21286
0.916447
0.881862
1.04745
0.726785
0.797936
0.880151
0.968613
1.00229
1.04069
1.19983
1.06749
1.13469
0.987035
1.17504
1.22016
1.21735
0.942822
0.942876
1.00679
0.736166
1.23003
1.17055
1.14581
0.957681
0.766959
0.695505
1.0088
1.09258
0.792234
1.14318
1.16395
1.03805
0.814812
0.94492
0.836715
0.77537
0.96017
0.811801
1.01929
0.688642
1.02216
0.903824
0.921663
0.647495
0.997883
0.971731
1.06605
0.875008
1.00909
1.19769
1.21125
1.02225
0.90806
1.13674
0.982413
0.803392
0.804119
0.911233
0.721985
1.19741
0.939006
0.996294
1.09807
1.08259
1.01645
0.7192
1.24309
1.03236
0.818326
0.949196
0.967892
1.13598
1.19029
1.03434
1.02374
0.680354
0.783873
0.923152
1.0335
0.963654
1.02311
0.840165
1.20796
1.02264
1.10264
1.17623
0.997868
0.800741
0.958638
1.22952
0.850235
0.672976
0.954605
1.23742
0.85942
0.912404
1.12498
1.09106
1.15142
0.952957
0.685553
1.03183
0.739982
0.867606
1.15407
0.943002
0.742855
0.789702
0.855834
1.04575
0.860446
0.824311
1.17801
0.824117
1.24388
1.1469
0.72654
0.627811
0.937383
1.09816
1.17407
0.950383
0.92343
0.762659
0.902352
0.913765
1.24913
1.18929
1.10028
0.851806
0.695253
1.19365
1.24148
1.20553
1.13618
1.18191
0.95512
0.748245
0.653617
0.674486
1.21464
0.970504
0.72311
0.874862
1.24092
0.8806
0.814749
0.714247
0.953958
0.797781
1.25427
1.03443
1.08761
1.1854
1.16405
0.906919
1.05575
0.958787
1.05992
0.839412
1.03655
0.837383
1.21102
0.674265
0.862072
0.706702
0.894618
1.19571
0.889957
1.15115
1.17484
1.18767
0.763804
0.956652
0.92285
0.7814
1.20429
0.981218
0.968715
1.02871
0.493988
0.879856
1.20522
1.06207
1.20942
0.663961
0.767122
0.888568
1.21759
0.758998
0.915876
0.785282
0.709612
0.850964
1.21565
0.87637
0.929573
0.717893
1.24909
1.23047
0.501794
1.20246
0.877849
0.766021
0.769595
0.962125
0.716368
1.02594
0.861836
0.865441
0.899896
1.17359
0.951045
1.15033
0.895812
0.754068
0.895404
0.662294
0.696942
0.935591
0.821081
0.982295
0.779789
0.928409
1.16659
1.02322
0.865838
0.64983
1.17799
0.955488
0.923956
1.25215
0.989871
0.859224
0.79162
0.70728
1.22469
0.840422
0.935049
1.04521
0.72588
1.18522
0.679401
1.17328
0.949616
1.11591
0.789862
1.11402
0.927011
0.732865
0.802865
0.946598
1.19626
0.623209
0.806643
0.874355
1.22138
1.24701
0.752431
0.847704
1.0195
1.22926
0.910348
1.20209
1.17136
1.14471
1.11382
1.00983
1.04167
1.01715
1.20785
0.917164
0.970875
0.755069
0.814752
0.908505
0.77431
1.22448
0.691689
1.19489
0.908422
1.21698
0.847411
1.23293
1.11263
1.16273
1.21865
1.19616
1.2496
0.906662
1.18063
0.939062
0.886785
0.810551
0.781073
1.20935
0.694874
1.0348
1.04734
0.91973
1.02536
0.832907
1.2014
0.979428
1.11783
0.651927
0.801245
0.894551
1.25766
0.762905
1.06847
0.825048
0.895319
0.74106
0.909033
0.881418
1.14201
1.21283
0.710652
1.02649
0.888838
0.855324
1.15883
0.773272
0.810687
1.22561
0.674945
0.975033
1.09503
1.19058
1.23561
0.824881
0.819209
0.728098
0.867647
0.785252
0.886405
1.09595
0.870572
0.744147
0.927252
0.956673
0.856919
0.790794
0.87263
0.961929
0.733412
1.12997
1.11523
0.825732
1.12119
0.659686
0.715882
0.754998
0.680345
1.22605
0.884748
0.877827
0.836552
1.15958
1.20581
0.999337
1.11054
0.799471
0.818477
0.954335
0.880585
0.80373
1.20725
0.999005
1.03683
1.22796
1.13615
0.916789
1.21963
0.70468
1.0045
0.998
1.04457
0.841202
1.21194
0.869422
1.0374
0.947353
0.851916
0.776987
0.827403
1.11313
1.1619
1.18288
0.965428
0.99387
1.21533
1.12146
0.937082
0.97324
0.758065
0.90489
1.14693
0.708949
1.1756
0.878548
1.18887
1.25027
1.21081
0.866382
1.16305
1.1727
0.60502
1.21395
0.780083
1.21554
1.14175
0.891445
0.779465
0.991464
0.909799
0.822387
0.794145
1.12367
0.829949
1.22008
0.764315
0.833539
0.77751
0.759405
0.878363
1.1584
1.23574
0.758283
1.10389
0.972806
1.038
0.915913
1.01431
1.20021
1.14759
0.881891
1.19209
1.15748
1.23322
0.760585
0.851465
0.800705
1.11469
1.22529
1.16564
0.93487
1.23227
0.946235
0.711181
0.777304
0.622626
0.917214
0.741951
1.23347
1.24385
0.992288
1.25313
1.15013
0.993541
1.22786
0.754737
1.21016
0.90267
1.20668
0.87955
0.768949
1.10851
1.00111
1.21533
1.20082
1.20472
0.783393
0.779213
0.686879
1.169
1.14491
0.749043
0.945844
1.14742
0.666034
0.847063
0.78486
0.890479
1.0314
0.885082
0.998088
1.08119
0.978178
0.995806
1.11811
0.878562
0.8881
1.03276
0.983602
0.885841
1.18152
1.21775
0.749857
1.14181
0.655164
0.83668
1.19018
1.13041
0.870069
1.20816
0.749534
1.1138
0.896912
0.883758
1.18906
0.88449
1.12419
1.10272
1.07618
1.24542
1.08453
0.729344
1.05314
0.903186
1.12848
1.24693
1.06716
0.940492
0.802422
0.884946
1.19074
0.761318
1.15041
0.787992
1.00184
1.13606
1.11645
0.971704
1.18138
1.23064
0.88132
0.879552
0.993992
0.781375
0.745426
1.00321
1.1039
0.80935
0.725926
0.763359
0.719383
1.10923
0.938815
1.13379
0.827491
1.2059
0.978001
1.17007
1.23719
0.82352
1.19724
0.866046
0.999425
0.948977
1.17219
0.80654
0.909951
0.957935
0.772821
0.886771
0.76876
0.738327
0.655921
1.22858
1.24175
0.806694
0.821751
1.12295
0.700922
0.766249
0.882576
1.0949
1.10497
0.688488
0.652692
1.20079
0.81523
1.03174
0.813525
0.71976
0.77862
0.966247
1.17215
1.02517
0.711443
1.20739
1.17016
0.802972
1.03088
0.8731
1.23782
0.894621
0.913726
0.736079
1.07577
1.21675
1.04631
0.955724
0.814956
0.929857
1.02954
1.22777
1.25669
0.80484
1.23326
0.825243
1.01334
1.01373
0.936053
0.863289
1.17401
0.843813
1.00089
0.785349
0.827743
0.863728
0.772606
1.07445
1.2077
0.80166
0.841059
1.00337
0.869941
0.76503
0.655573
0.859774
1.16953
0.581718
0.860287
1.09147
1.00472
0.934542
1.06756
1.15472
0.728708
0.72947
1.16234
0.924099
0.737227
0.945157
1.16913
1.06932
1.01582
0.803669
0.830896
0.798642
1.22927
1.16495
1.23645
0.927263
1.08921
0.754467
0.967148
1.174
0.708963
0.724156
1.11555
1.16896
0.703406
0.839582
0.791383
0.715962
0.792047
1.25409
0.905717
0.832309
0.952995
0.80223
1.1079
0.975488
0.747678
0.835109
1.13264
0.92895
1.23027
0.740912
0.849359
1.04593
1.03223
0.938307
1.03648
0.771813
1.23493
1.20805
1.05091
1.17866
0.812034
1.17725
1.0675
1.03143
1.2207
0.700929
0.858467
1.24372
1.07132
0.693187
0.861727
1.14439
1.24012
0.965408
1.12435
0.79849
0.732943
0.78606
0.682281
1.17373
0.827351
0.982092
1.22147
0.81905
0.732717
0.812571
0.985218
0.821771
0.868322
0.809088
0.765603
0.926637
1.14548
1.21772
1.08566
0.846508
0.858803
0.679152
0.856288
1.05407
1.03139
1.05724
1.09922
0.860444
0.953597
1.15189
1.17256
1.23848
1.19123
1.2239
0.937104
0.749798
0.791673
0.757932
1.22899
0.989987
0.827744
1.21873
0.758417
1.1499
1.10665
0.844383
0.807039
0.858176
0.838281
1.16959
0.910345
1.09631
0.955345
1.21536
1.02513
1.24589
0.795296
0.957893
0.850851
0.647137
0.872328
1.12759
0.722645
0.469963
1.01488
1.20808
1.13029
0.836013
0.737027
0.790774
0.762119
0.811048
0.764561
0.934265
0.770184
1.11756
0.802814
0.82314
1.19439
0.934273
1.03034
1.1606
0.924307
0.98141
0.77753
1.11845
0.905188
0.840992
0.916622
0.784229
0.734572
0.820709
0.764284
1.12738
1.23734
1.17954
1.01788
1.10224
0.711251
1.23428
1.01182
1.09804
0.799148
1.10388
0.865809
0.881711
1.14865
1.21324
1.12704
1.02237
0.895787
1.24225
0.870463
1.14114
1.22662
1.08384
0.907142
0.704092
1.14464
0.986287
0.772069
1.06934
0.985914
1.21271
0.820866
1.22216
1.23905
0.927059
0.797224
1.22458
0.740178
0.778501
0.879572
0.770394
0.862339
0.784268
0.743009
0.953435
0.821167
0.787854
0.863934
1.02983
0.838644
0.818478
1.06156
0.982185
0.725501
1.20547
1.24539
1.22631
0.813872
0.71472
1.25086
0.729394
0.937821
0.774555
0.885911
0.793252
1.11449
0.873834
0.873744
0.722911
0.706568
0.775511
0.87764
0.701355
0.966644
1.00758
0.95364
1.21544
0.996292
1.06404
0.893331
1.16492
0.882463
0.885099
1.26559
0.87048
0.974683
0.742096
1.08565
1.23974
0.911584
1.03342
0.980239
0.858425
0.800985
0.815369
0.765123
1.12071
0.7846
0.919119
0.873273
0.928603
0.794158
0.817538
0.936638
0.90265
0.855338
1.24646
0.944158
0.900833
1.01772
1.21122
0.886599
0.710065
1.13147
0.742095
0.904704
0.798162
0.924897
0.865065
0.838573
0.918956
1.23429
1.17691
0.716586
0.854161
0.708428
0.781632
0.690366
0.770494
0.861916
0.79013
0.869904
1.05704
1.24969
0.875786
1.10573
0.968734
1.22794
0.871597
1.23983
1.04906
0.75713
1.04706
1.11597
0.883238
1.16228
0.798012
1.18522
0.84088
0.501897
0.950985
1.24844
1.23965
1.12109
1.0587
1.08881
0.721743
0.853529
1.08154
1.24618
0.533384
0.941189
0.79612
0.880332
0.929794
0.789406
0.752171
0.832832
0.774293
0.830766
0.895591
0.925669
1.244
1.16526
0.690047
1.14208
0.783063
0.808531
1.14931
0.839852
0.903477
1.07184
0.580535
0.807962
0.963028
1.17753
0.761353
0.823349
0.900068
1.05367
0.756609
1.21404
0.709686
0.880567
0.902659
0.832523
1.05584
1.05746
1.21262
0.797427
1.1205
1.00897
1.04673
0.807458
1.05144
0.793853
0.744183
0.669635
0.997765
0.948509
0.903453
1.18867
0.950146
0.964064
1.0498
0.801715
0.77872
0.880599
1.01659
0.818213
1.24824
0.745586
0.710468
0.869908
0.876719
0.821333
0.777142
1.10048
0.880718
0.959625
0.762555
0.799901
0.954527
0.700062
1.24466
1.23531
0.766412
0.793855
1.17106
0.949989
0.80127
0.734487
0.785732
0.772362
1.00485
1.20314
0.802803
0.720623
1.05593
0.942786
0.710815
0.764129
0.93731
1.09937
1.25604
0.752892
0.703555
1.02703
1.17356
0.91242
1.00436
0.895458
0.801615
0.88591
1.05326
0.943436
0.808612
1.14384
0.898552
0.669616
0.998023
0.828005
1.14955
1.24525
0.822565
0.874473
0.87672
0.874483
0.750496
0.88785
0.771773
1.21839
1.15081
1.09736
0.863102
0.727812
1.1337
1.23186
0.818795
0.992029
0.868702
0.655645
0.974428
0.882932
0.654851
0.756957
1.02584
0.75602
0.713522
0.769687
1.1379
0.741755
1.13832
0.903426
0.816706
0.897291
0.787378
1.15048
0.68077
0.886043
0.917843
0.743555
1.00551
1.07752
1.02288
0.949329
1.1267
0.765532
0.765321
1.19988
0.801701
1.19352
1.02805
0.911593
0.986093
1.18007
0.943213
0.704438
1.21432
0.793496
0.921922
1.17908
0.790834
1.22471
0.809287
0.901181
0.601241
0.902172
0.767015
0.959822
0.781764
0.672445
0.76983
0.756413
0.661935
1.20377
0.756873
0.894479
1.01397
0.952546
1.2341
1.23542
0.861394
0.91123
1.15537
0.848345
1.20465
0.675511
0.896286
0.993451
0.823852
1.16082
0.869006
0.878889
0.846299
0.822957
0.7768
0.674355
1.18471
0.37637
1.2187
1.09783
0.781988
0.712052
0.781773
1.25858
1.08833
1.06404
0.939271
1.0082
0.921679
1.18204
1.13295
0.789566
1.0388
1.22356
0.933244
0.98777
1.0382
0.695871
0.760297
1.13318
0.892968
0.92213
1.22487
0.752245
0.679989
0.836011
0.917616
0.933457
1.243
0.811453
0.733782
0.815032
0.917129
0.815598
1.19322
0.905749
0.786542
0.869094
0.819309
0.79421
0.840692
1.04557
0.934416
0.781704
1.18921
0.88929
1.14638
0.782809
0.752206
0.881867
1.18272
1.22844
1.13256
0.965908
0.941881
1.14652
1.23377
0.747605
1.20561
0.774554
1.06473
1.04986
1.19231
0.962433
1.17683
1.20663
0.814775
0.796658
0.89548
0.943584
0.775646
0.721058
0.686272
1.11457
1.16208
0.739111
1.21296
0.960701
1.13099
0.934714
0.777928
1.1573
1.13551
0.872217
0.828665
0.767299
1.23802
1.10219
1.24803
0.737396
0.774602
0.919379
1.16838
1.05507
1.18676
0.976381
1.23825
0.835143
0.905033
0.988209
0.851879
1.03245
0.641129
1.14687
0.943892
0.990767
1.20743
0.727225
0.742539
0.684436
0.995284
1.18726
0.843878
1.05577
0.65545
0.729794
0.926813
0.831405
0.806351
1.18063
0.932772
0.800028
0.911207
1.0117
1.21526
0.999956
0.903953
1.18369
0.950839
1.22485
0.97645
1.09567
0.906523
0.740759
1.2491
0.778392
0.975423
1.01653
1.20074
1.08347
0.943687
0.800725
1.24161
0.91519
0.792548
1.11998
1.2356
1.1062
1.06433
0.726816
0.66468
0.994049
0.786086
0.90006
0.977027
0.781091
1.21442
1.24157
1.21052
0.851692
0.888668
0.804081
0.872003
1.07849
0.757874
1.07643
1.21833
0.751113
0.875515
0.831353
1.14948
1.0641
0.888325
0.78793
1.10589
0.789094
0.628691
0.768092
1.24948
0.675451
1.14234
1.02004
0.792811
1.22364
1.00363
1.2601
0.570498
0.879381
0.993109
1.20968
0.875006
1.20478
1.00541
0.674939
0.947018
0.844242
0.885044
0.665732
1.13319
0.87808
0.792118
0.703868
0.951338
1.18466
0.610418
0.861268
1.18479
0.883446
1.17672
0.669493
0.783796
0.801217
0.919116
0.847207
0.727031
0.787061
0.622862
0.900061
0.903248
1.13251
0.97986
1.18733
0.789728
0.888164
0.730546
0.944386
0.623386
0.894322
1.2472
0.909676
0.854147
1.25505
0.797602
1.00786
1.05381
0.723712
0.852028
0.94718
1.00111
1.21818
1.23469
1.23452
1.01193
0.890686
0.913157
0.779863
1.17354
1.06047
0.822613
0.822525
0.848499
0.939723
1.26102
0.907953
1.25921
0.868225
1.0318
0.783673
0.798426
0.728224
0.836266
1.19918
0.843583
0.742334
0.77045
1.24547
0.859318
0.784966
0.776146
0.793849
1.1022
0.973064
0.976955
0.889197
1.08538
0.714012
0.934314
0.951738
0.854241
1.17899
1.18869
0.790603
1.19591
1.22263
1.18115
0.972
0.891327
0.842975
0.918103
1.22463
0.937903
1.0137
1.1884
1.23768
1.2124
1.19321
0.803933
1.0659
0.952324
0.798843
0.697983
0.906232
1.17379
1.24756
1.22484
0.830462
0.775126
0.753394
0.675116
1.05402
1.24649
1.03664
1.12414
1.13311
1.12773
1.10296
0.785306
0.864254
0.831319
0.763842
0.815689
0.892262
0.741837
0.840486
0.809227
1.20627
1.02935
0.705775
1.25089
0.820376
0.82027
0.921741
0.770493
1.09986
1.10704
0.816468
1.02182
1.235
1.23816
1.07244
1.09151
0.921714
0.967376
0.916634
0.719258
1.00459
0.997082
0.829965
1.06938
1.03915
0.741906
0.448197
0.807428
1.22519
0.842838
1.08433
0.889034
1.22508
0.915127
0.778358
1.14755
1.07165
1.06447
1.00063
0.761502
0.865167
0.727699
1.07091
0.783852
1.16862
0.892132
0.822915
1.02585
0.728447
0.879269
1.24285
0.747797
1.09177
0.834898
0.778245
0.864395
0.89968
1.17279
1.19202
0.892027
1.22116
0.701136
1.20351
1.15528
1.11995
0.808127
1.16977
0.760686
1.10087
1.05315
0.618357
0.887135
0.751851
1.22291
1.09126
0.708724
0.769206
0.925998
0.802952
1.09628
0.794147
0.989694
1.24516
0.799742
1.22975
1.00022
1.07784
0.717481
1.1653
0.806939
1.19562
0.428658
0.774073
1.06178
1.14002
0.975785
1.08794
0.781478
0.889437
1.10922
1.07055
0.811877
1.10692
1.07554
1.19214
0.64424
0.898712
0.64245
1.0037
1.10455
1.00517
0.536721
0.84307
1.21174
1.02628
0.855975
1.19787
0.911114
1.10253
0.710573
0.902152
0.790834
1.19335
1.22362
1.0831
0.938763
0.894085
0.755966
1.06679
0.810036
1.17495
0.706023
0.936481
0.732359
0.690702
1.00885
1.19911
0.936952
0.931728
0.808154
0.794904
1.15233
0.92501
0.942561