/*--------------------------------*- C++ -*----------------------------------*\
  =========                 |
  \\      /  F ield         | OpenFOAM: The Open Source CFD Toolbox
   \\    /   O peration     | Website:  https://openfoam.org
    \\  /    A nd           | Version:  6
     \\/     M anipulation  |
\*---------------------------------------------------------------------------*/
FoamFile
{
    version     2.0;
    format      ascii;
    class       volScalarField;
    location    "0";
    object      TRec;
}
// * * * * * * * * * * * * * * * * * * * * * * * * * * * * * * * * * * * * * //

dimensions      [0 0 0 1 0 0 0];

internalField   nonuniform List<scalar> 
10000
(
299.011
299.032
299.053
299.073
299.093
299.111
299.129
299.145
299.16
299.174
299.187
299.2
299.211
299.222
299.232
299.241
299.25
299.258
299.266
299.273
299.28
299.287
299.293
299.299
299.305
299.311
299.317
299.322
299.327
299.332
299.337
299.342
299.347
299.351
299.356
299.36
299.365
299.369
299.374
299.378
299.382
299.386
299.39
299.394
299.398
299.401
299.405
299.408
299.411
299.414
299.416
299.419
299.421
299.423
299.425
299.427
299.429
299.43
299.432
299.433
299.434
299.435
299.437
299.438
299.439
299.441
299.442
299.444
299.445
299.447
299.449
299.451
299.453
299.455
299.457
299.46
299.463
299.466
299.47
299.474
299.478
299.484
299.491
299.499
299.509
299.521
299.537
299.556
299.582
299.614
299.656
299.71
299.78
299.87
299.983
300.123
300.292
300.488
300.705
300.934
299.011
299.033
299.054
299.074
299.094
299.113
299.13
299.147
299.162
299.176
299.19
299.202
299.213
299.224
299.234
299.243
299.252
299.26
299.267
299.275
299.281
299.288
299.294
299.3
299.306
299.312
299.317
299.322
299.327
299.332
299.337
299.342
299.346
299.351
299.356
299.36
299.364
299.369
299.373
299.377
299.382
299.386
299.39
299.394
299.397
299.401
299.404
299.408
299.411
299.414
299.416
299.419
299.421
299.423
299.425
299.427
299.429
299.43
299.432
299.433
299.434
299.436
299.437
299.438
299.44
299.441
299.442
299.444
299.445
299.447
299.449
299.451
299.453
299.455
299.457
299.46
299.463
299.466
299.469
299.473
299.478
299.483
299.49
299.497
299.507
299.519
299.533
299.552
299.576
299.607
299.648
299.7
299.768
299.856
299.968
300.107
300.277
300.476
300.697
300.931
299.011
299.034
299.056
299.077
299.097
299.117
299.135
299.152
299.168
299.182
299.196
299.209
299.22
299.231
299.241
299.25
299.258
299.266
299.273
299.279
299.286
299.292
299.298
299.303
299.309
299.314
299.319
299.324
299.328
299.333
299.338
299.342
299.347
299.351
299.355
299.36
299.364
299.368
299.372
299.376
299.381
299.385
299.389
299.393
299.396
299.4
299.404
299.407
299.41
299.413
299.416
299.419
299.421
299.423
299.425
299.427
299.429
299.431
299.432
299.434
299.435
299.436
299.438
299.439
299.44
299.442
299.443
299.445
299.446
299.448
299.45
299.451
299.453
299.455
299.458
299.46
299.463
299.466
299.469
299.473
299.477
299.482
299.488
299.495
299.504
299.515
299.529
299.546
299.569
299.598
299.636
299.686
299.752
299.838
299.948
300.089
300.261
300.463
300.689
300.929
299.012
299.036
299.059
299.081
299.103
299.123
299.142
299.161
299.177
299.193
299.207
299.22
299.232
299.243
299.253
299.261
299.269
299.276
299.282
299.289
299.294
299.3
299.305
299.31
299.314
299.319
299.323
299.327
299.331
299.336
299.34
299.344
299.348
299.352
299.356
299.36
299.364
299.368
299.372
299.376
299.38
299.384
299.388
299.391
299.395
299.399
299.403
299.406
299.409
299.413
299.416
299.418
299.421
299.423
299.426
299.428
299.43
299.431
299.433
299.435
299.436
299.437
299.439
299.44
299.442
299.443
299.444
299.446
299.447
299.449
299.451
299.452
299.454
299.456
299.458
299.461
299.463
299.466
299.469
299.473
299.477
299.481
299.487
299.493
299.502
299.512
299.524
299.54
299.561
299.589
299.625
299.673
299.737
299.822
299.932
300.073
300.247
300.453
300.683
300.926
299.013
299.038
299.063
299.087
299.11
299.133
299.153
299.173
299.191
299.208
299.223
299.237
299.249
299.26
299.27
299.278
299.286
299.292
299.298
299.302
299.308
299.312
299.316
299.32
299.323
299.327
299.33
299.334
299.337
299.34
299.343
299.347
299.35
299.354
299.357
299.361
299.364
299.368
299.372
299.375
299.379
299.383
299.387
299.391
299.394
299.398
299.402
299.405
299.409
299.412
299.415
299.418
299.421
299.424
299.426
299.428
299.431
299.432
299.434
299.436
299.438
299.439
299.441
299.442
299.443
299.445
299.446
299.448
299.449
299.451
299.452
299.454
299.456
299.458
299.46
299.462
299.464
299.467
299.47
299.473
299.477
299.481
299.486
299.492
299.499
299.509
299.52
299.535
299.555
299.581
299.616
299.663
299.726
299.81
299.92
300.062
300.238
300.446
300.679
300.925
299.014
299.041
299.068
299.095
299.12
299.144
299.167
299.189
299.209
299.227
299.243
299.258
299.271
299.282
299.292
299.3
299.307
299.313
299.318
299.321
299.325
299.328
299.331
299.334
299.336
299.338
299.341
299.343
299.345
299.347
299.349
299.352
299.354
299.357
299.36
299.363
299.366
299.369
299.372
299.376
299.379
299.383
299.387
299.39
299.394
299.398
299.402
299.405
299.409
299.412
299.415
299.419
299.422
299.424
299.427
299.429
299.432
299.434
299.436
299.438
299.44
299.441
299.443
299.444
299.446
299.447
299.449
299.45
299.452
299.453
299.455
299.456
299.458
299.46
299.462
299.464
299.466
299.468
299.471
299.474
299.477
299.481
299.486
299.491
299.498
299.507
299.518
299.532
299.551
299.576
299.61
299.656
299.718
299.802
299.913
300.056
300.233
300.443
300.677
300.924
299.015
299.045
299.075
299.104
299.132
299.159
299.184
299.207
299.229
299.249
299.267
299.282
299.296
299.307
299.317
299.325
299.332
299.337
299.341
299.344
299.346
299.349
299.35
299.351
299.352
299.353
299.354
299.355
299.356
299.357
299.358
299.359
299.361
299.362
299.364
299.367
299.369
299.372
299.375
299.378
299.381
299.384
299.387
299.391
299.395
299.398
299.402
299.405
299.409
299.413
299.416
299.419
299.422
299.425
299.428
299.431
299.433
299.436
299.438
299.44
299.442
299.444
299.445
299.447
299.449
299.45
299.452
299.453
299.455
299.456
299.458
299.459
299.461
299.462
299.464
299.466
299.468
299.47
299.473
299.476
299.479
299.482
299.487
299.492
299.498
299.506
299.516
299.53
299.548
299.572
299.606
299.651
299.713
299.798
299.909
300.053
300.232
300.443
300.677
300.924
299.017
299.049
299.082
299.114
299.145
299.174
299.202
299.228
299.252
299.273
299.292
299.309
299.323
299.336
299.346
299.354
299.36
299.364
299.368
299.37
299.368
299.372
299.372
299.372
299.371
299.371
299.37
299.369
299.369
299.368
299.368
299.368
299.369
299.37
299.371
299.372
299.374
299.376
299.378
299.38
299.383
299.386
299.389
299.392
299.396
299.399
299.403
299.406
299.41
299.414
299.417
299.42
299.424
299.427
299.43
299.433
299.436
299.438
299.44
299.443
299.445
299.447
299.449
299.45
299.452
299.454
299.455
299.457
299.458
299.46
299.461
299.463
299.464
299.466
299.468
299.469
299.471
299.473
299.476
299.478
299.481
299.484
299.488
299.493
299.499
299.506
299.516
299.529
299.547
299.571
299.604
299.65
299.712
299.797
299.909
300.054
300.234
300.445
300.679
300.925
299.018
299.054
299.09
299.124
299.158
299.191
299.221
299.249
299.275
299.299
299.319
299.337
299.353
299.365
299.376
299.384
299.39
299.394
299.397
299.398
299.399
299.398
299.397
299.395
299.393
299.39
299.388
299.386
299.384
299.382
299.381
299.379
299.379
299.378
299.378
299.379
299.38
299.381
299.382
299.384
299.387
299.389
299.392
299.395
299.398
299.401
299.405
299.408
299.412
299.415
299.419
299.422
299.426
299.429
299.432
299.435
299.438
299.441
299.443
299.446
299.448
299.45
299.452
299.454
299.456
299.457
299.459
299.461
299.462
299.464
299.465
299.467
299.468
299.47
299.471
299.473
299.475
299.477
299.479
299.481
299.484
299.487
299.491
299.495
299.501
299.508
299.517
299.53
299.547
299.571
299.604
299.65
299.713
299.799
299.912
300.058
300.238
300.448
300.681
300.926
299.02
299.059
299.098
299.136
299.172
299.208
299.241
299.272
299.3
299.325
299.348
299.367
299.383
299.397
299.407
299.415
299.421
299.425
299.427
299.428
299.427
299.424
299.423
299.419
299.416
299.412
299.408
299.405
299.401
299.398
299.395
299.392
299.39
299.389
299.388
299.387
299.387
299.388
299.388
299.39
299.391
299.393
299.396
299.398
299.401
299.404
299.407
299.411
299.414
299.418
299.421
299.425
299.428
299.432
299.435
299.438
299.441
299.444
299.447
299.449
299.452
299.454
299.456
299.458
299.46
299.462
299.464
299.465
299.467
299.468
299.47
299.471
299.473
299.474
299.476
299.477
299.479
299.481
299.483
299.485
299.487
299.49
299.494
299.498
299.503
299.51
299.52
299.532
299.549
299.573
299.607
299.653
299.717
299.803
299.917
300.063
300.243
300.453
300.684
300.927
299.021
299.064
299.106
299.147
299.187
299.225
299.261
299.294
299.325
299.352
299.376
299.397
299.414
299.428
299.439
299.448
299.453
299.457
299.458
299.458
299.456
299.45
299.449
299.445
299.44
299.435
299.43
299.425
299.42
299.415
299.411
299.407
299.404
299.401
299.399
299.397
299.396
299.396
299.396
299.396
299.397
299.399
299.401
299.403
299.405
299.408
299.411
299.414
299.418
299.421
299.425
299.428
299.431
299.435
299.438
299.442
299.445
299.448
299.451
299.453
299.456
299.458
299.461
299.463
299.465
299.467
299.468
299.47
299.472
299.473
299.475
299.476
299.478
299.479
299.481
299.482
299.484
299.485
299.487
299.489
299.491
299.494
299.497
299.501
299.507
299.514
299.523
299.535
299.552
299.577
299.61
299.657
299.722
299.809
299.924
300.07
300.25
300.459
300.688
300.928
299.023
299.069
299.114
299.158
299.201
299.242
299.281
299.317
299.349
299.379
299.404
299.426
299.445
299.46
299.471
299.48
299.486
299.489
299.49
299.489
299.486
299.48
299.477
299.472
299.466
299.46
299.453
299.446
299.44
299.434
299.428
299.423
299.418
299.414
299.411
299.409
299.407
299.405
299.404
299.404
299.405
299.406
299.407
299.409
299.411
299.413
299.416
299.419
299.422
299.425
299.429
299.432
299.436
299.439
299.442
299.446
299.449
299.452
299.455
299.458
299.461
299.463
299.465
299.468
299.47
299.472
299.474
299.475
299.477
299.478
299.48
299.482
299.483
299.485
299.486
299.487
299.489
299.49
299.492
299.494
299.496
299.499
299.502
299.506
299.511
299.517
299.527
299.539
299.557
299.581
299.615
299.663
299.728
299.816
299.931
300.078
300.258
300.465
300.692
300.93
299.024
299.073
299.122
299.169
299.215
299.259
299.3
299.339
299.374
299.405
299.432
299.455
299.475
299.491
299.503
299.512
299.517
299.52
299.521
299.52
299.516
299.511
299.506
299.499
299.492
299.484
299.476
299.468
299.461
299.453
299.446
299.44
299.434
299.429
299.425
299.421
299.418
299.416
299.415
299.414
299.413
299.414
299.414
299.416
299.417
299.419
299.422
299.424
299.427
299.43
299.434
299.437
299.44
299.444
299.447
299.45
299.454
299.457
299.46
299.463
299.466
299.468
299.471
299.473
299.475
299.477
299.479
299.481
299.482
299.484
299.486
299.487
299.489
299.49
299.492
299.493
299.494
299.496
299.497
299.499
299.501
299.504
299.507
299.51
299.515
299.522
299.531
299.544
299.561
299.586
299.621
299.669
299.735
299.824
299.94
300.087
300.266
300.472
300.697
300.931
299.026
299.078
299.13
299.18
299.229
299.276
299.32
299.36
299.397
299.43
299.459
299.484
299.504
299.521
299.533
299.543
299.548
299.551
299.551
299.55
299.546
299.542
299.535
299.527
299.518
299.509
299.5
299.491
299.482
299.473
299.465
299.458
299.451
299.445
299.44
299.435
299.431
299.428
299.426
299.424
299.423
299.423
299.423
299.424
299.425
299.427
299.429
299.431
299.434
299.436
299.439
299.443
299.446
299.449
299.452
299.456
299.459
299.462
299.465
299.468
299.471
299.474
299.476
299.479
299.481
299.483
299.485
299.487
299.488
299.49
299.491
299.493
299.495
299.496
299.497
299.499
299.5
299.501
299.503
299.505
299.507
299.509
299.512
299.516
299.52
299.527
299.536
299.549
299.567
299.592
299.627
299.676
299.743
299.832
299.949
300.096
300.274
300.479
300.701
300.933
299.028
299.083
299.137
299.191
299.243
299.292
299.338
299.381
299.42
299.455
299.486
299.511
299.533
299.55
299.563
299.572
299.578
299.581
299.581
299.578
299.574
299.569
299.561
299.553
299.543
299.533
299.523
299.513
299.503
299.494
299.485
299.476
299.469
299.462
299.455
299.45
299.445
299.441
299.438
299.436
299.434
299.433
299.433
299.433
299.434
299.435
299.437
299.439
299.441
299.443
299.446
299.449
299.452
299.455
299.459
299.462
299.465
299.468
299.471
299.474
299.477
299.48
299.482
299.485
299.487
299.489
299.491
299.493
299.495
299.496
299.498
299.499
299.501
299.502
299.504
299.505
299.506
299.508
299.509
299.511
299.513
299.515
299.518
299.521
299.526
299.533
299.542
299.555
299.573
299.598
299.634
299.684
299.751
299.841
299.959
300.106
300.283
300.486
300.706
300.935
299.029
299.087
299.145
299.201
299.256
299.308
299.357
299.402
299.443
299.479
299.511
299.538
299.56
299.578
299.591
299.601
299.606
299.609
299.608
299.606
299.601
299.595
299.586
299.577
299.567
299.556
299.545
299.535
299.524
299.514
299.504
299.495
299.486
299.479
299.472
299.465
299.46
299.455
299.452
299.449
299.446
299.445
299.444
299.443
299.444
299.444
299.445
299.447
299.449
299.451
299.454
299.456
299.459
299.462
299.465
299.468
299.471
299.474
299.477
299.48
299.483
299.486
299.488
299.491
299.493
299.495
299.497
299.499
299.501
299.502
299.504
299.505
299.507
299.509
299.51
299.511
299.513
299.514
299.515
299.517
299.519
299.521
299.524
299.527
299.532
299.539
299.548
299.561
299.58
299.606
299.642
299.692
299.76
299.851
299.969
300.116
300.292
300.493
300.71
300.936
299.031
299.092
299.152
299.211
299.269
299.323
299.375
299.422
299.465
299.503
299.536
299.564
299.587
299.605
299.618
299.628
299.633
299.635
299.635
299.631
299.626
299.619
299.609
299.6
299.589
299.578
299.567
299.555
299.544
299.534
299.523
299.514
299.504
299.496
299.488
299.481
299.475
299.47
299.466
299.462
299.459
299.457
299.455
299.454
299.454
299.454
299.455
299.456
299.458
299.46
299.462
299.464
299.467
299.47
299.472
299.475
299.478
299.481
299.484
299.487
299.49
299.492
299.495
299.497
299.5
299.502
299.504
299.506
299.508
299.509
299.511
299.512
299.513
299.515
299.517
299.518
299.519
299.521
299.522
299.524
299.525
299.527
299.53
299.534
299.539
299.545
299.555
299.568
299.587
299.613
299.65
299.701
299.769
299.861
299.979
300.126
300.301
300.5
300.715
300.938
299.032
299.096
299.159
299.221
299.281
299.338
299.392
299.441
299.486
299.525
299.559
299.588
299.611
299.63
299.644
299.653
299.658
299.66
299.659
299.655
299.649
299.641
299.631
299.621
299.61
299.599
299.587
299.575
299.564
299.553
299.542
299.532
299.522
299.513
299.505
299.498
299.491
299.485
299.48
299.476
299.473
299.47
299.468
299.466
299.466
299.465
299.466
299.466
299.468
299.469
299.471
299.473
299.475
299.478
299.48
299.483
299.486
299.489
299.491
299.494
299.497
299.499
299.502
299.504
299.507
299.509
299.511
299.513
299.515
299.516
299.518
299.519
299.521
299.522
299.524
299.525
299.526
299.528
299.529
299.531
299.532
299.534
299.537
299.541
299.545
299.552
299.562
299.575
299.594
299.621
299.658
299.709
299.779
299.871
299.989
300.136
300.31
300.507
300.719
300.939
299.033
299.1
299.166
299.231
299.294
299.353
299.409
299.46
299.506
299.547
299.582
299.611
299.635
299.654
299.667
299.676
299.681
299.683
299.681
299.676
299.67
299.661
299.651
299.641
299.629
299.618
299.606
299.594
299.582
299.571
299.56
299.549
299.54
299.53
299.522
299.514
299.507
299.501
299.495
299.49
299.486
299.483
299.481
299.479
299.477
299.477
299.477
299.477
299.478
299.479
299.48
299.482
299.484
299.486
299.489
299.491
299.494
299.496
299.499
299.502
299.504
299.507
299.509
299.512
299.514
299.516
299.518
299.52
299.522
299.524
299.525
299.526
299.528
299.529
299.531
299.532
299.534
299.535
299.537
299.538
299.54
299.542
299.544
299.548
299.553
299.559
299.569
299.583
299.602
299.629
299.667
299.719
299.789
299.881
299.999
300.146
300.319
300.514
300.724
300.941
299.035
299.104
299.173
299.241
299.306
299.367
299.425
299.478
299.525
299.567
299.603
299.633
299.657
299.676
299.689
299.698
299.703
299.703
299.701
299.696
299.689
299.68
299.669
299.658
299.647
299.635
299.623
299.611
299.599
299.588
299.577
299.566
299.556
299.547
299.538
299.53
299.522
299.516
299.51
299.505
299.5
299.497
299.494
299.491
299.49
299.489
299.488
299.488
299.488
299.489
299.49
299.492
299.493
299.495
299.497
299.5
299.502
299.504
299.507
299.509
299.512
299.514
299.517
299.519
299.521
299.524
299.526
299.528
299.53
299.531
299.533
299.534
299.536
299.537
299.538
299.54
299.542
299.543
299.545
299.546
299.548
299.55
299.552
299.556
299.561
299.567
299.577
299.591
299.61
299.637
299.675
299.728
299.799
299.891
300.01
300.156
300.327
300.521
300.728
300.942
299.036
299.108
299.18
299.25
299.317
299.381
299.441
299.495
299.544
299.587
299.624
299.654
299.678
299.697
299.71
299.718
299.722
299.722
299.719
299.713
299.706
299.696
299.686
299.674
299.663
299.651
299.639
299.627
299.615
299.604
299.593
299.582
299.572
299.562
299.553
299.545
299.537
299.53
299.524
299.519
299.514
299.51
299.507
299.504
299.502
299.501
299.5
299.499
299.499
299.5
299.5
299.502
299.503
299.505
299.506
299.509
299.511
299.513
299.515
299.518
299.52
299.522
299.525
299.527
299.529
299.532
299.534
299.536
299.538
299.54
299.541
299.543
299.544
299.546
299.547
299.548
299.55
299.552
299.553
299.555
299.556
299.558
299.561
299.564
299.569
299.576
299.585
299.599
299.619
299.646
299.685
299.738
299.809
299.902
300.02
300.166
300.336
300.527
300.732
300.944
299.037
299.112
299.186
299.259
299.329
299.395
299.456
299.512
299.562
299.606
299.643
299.673
299.698
299.716
299.728
299.736
299.739
299.738
299.735
299.728
299.72
299.711
299.7
299.688
299.677
299.665
299.653
299.641
299.629
299.618
299.607
299.596
299.586
299.577
299.568
299.559
299.552
299.545
299.538
299.533
299.528
299.523
299.52
299.517
299.514
299.513
299.511
299.511
299.51
299.51
299.511
299.512
299.513
299.514
299.516
299.518
299.52
299.522
299.524
299.526
299.529
299.531
299.533
299.536
299.538
299.54
299.542
299.544
299.546
299.548
299.55
299.552
299.553
299.555
299.556
299.557
299.559
299.561
299.562
299.564
299.566
299.568
299.57
299.573
299.578
299.584
299.594
299.608
299.628
299.655
299.694
299.747
299.819
299.912
300.031
300.175
300.345
300.534
300.736
300.945
299.039
299.116
299.193
299.268
299.34
299.408
299.471
299.528
299.579
299.624
299.661
299.692
299.716
299.733
299.745
299.752
299.754
299.753
299.748
299.742
299.733
299.724
299.713
299.701
299.69
299.678
299.666
299.654
299.642
299.631
299.62
299.61
299.6
299.59
299.581
299.573
299.565
299.558
299.552
299.546
299.541
299.536
299.532
299.529
299.527
299.525
299.523
299.522
299.521
299.521
299.522
299.522
299.523
299.524
299.526
299.527
299.529
299.531
299.533
299.536
299.538
299.54
299.542
299.545
299.547
299.549
299.551
299.554
299.556
299.558
299.56
299.562
299.563
299.565
299.567
299.567
299.568
299.57
299.572
299.574
299.575
299.577
299.58
299.583
299.587
299.594
299.604
299.617
299.637
299.665
299.704
299.758
299.829
299.923
300.041
300.185
300.353
300.541
300.741
300.946
299.04
299.12
299.199
299.276
299.35
299.42
299.485
299.544
299.596
299.64
299.678
299.708
299.732
299.749
299.761
299.766
299.768
299.765
299.76
299.754
299.745
299.735
299.724
299.712
299.701
299.689
299.677
299.666
299.655
299.643
299.632
299.621
299.612
299.602
299.594
299.585
299.578
299.571
299.564
299.558
299.553
299.549
299.545
299.541
299.539
299.536
299.535
299.533
299.533
299.532
299.532
299.533
299.534
299.535
299.536
299.538
299.539
299.541
299.543
299.545
299.548
299.55
299.552
299.554
299.557
299.559
299.561
299.564
299.566
299.568
299.57
299.572
299.574
299.576
299.577
299.579
299.579
299.581
299.582
299.584
299.585
299.587
299.589
299.592
299.597
299.604
299.614
299.627
299.647
299.675
299.714
299.768
299.84
299.934
300.052
300.195
300.362
300.547
300.745
300.948
299.041
299.123
299.205
299.284
299.361
299.432
299.499
299.558
299.611
299.656
299.694
299.724
299.748
299.764
299.774
299.779
299.78
299.777
299.772
299.764
299.755
299.745
299.734
299.722
299.711
299.699
299.687
299.676
299.665
299.653
299.642
299.632
299.623
299.614
299.605
299.597
299.589
299.582
299.576
299.57
299.565
299.561
299.557
299.553
299.55
299.548
299.546
299.545
299.544
299.544
299.544
299.544
299.544
299.545
299.547
299.548
299.55
299.552
299.554
299.556
299.558
299.56
299.563
299.565
299.567
299.57
299.572
299.575
299.577
299.579
299.582
299.584
299.586
299.588
299.589
299.591
299.591
299.592
299.594
299.595
299.597
299.598
299.6
299.603
299.608
299.615
299.624
299.638
299.658
299.686
299.725
299.779
299.851
299.945
300.062
300.205
300.37
300.554
300.749
300.949
299.042
299.127
299.21
299.292
299.37
299.444
299.512
299.572
299.625
299.671
299.708
299.739
299.762
299.777
299.786
299.79
299.791
299.787
299.782
299.774
299.765
299.754
299.743
299.731
299.72
299.708
299.696
299.685
299.674
299.663
299.652
299.642
299.633
299.624
299.615
299.608
299.601
299.593
299.587
299.581
299.576
299.572
299.568
299.565
299.562
299.559
299.558
299.556
299.555
299.555
299.555
299.555
299.556
299.557
299.558
299.559
299.561
299.563
299.565
299.567
299.569
299.571
299.574
299.576
299.579
299.581
299.584
299.587
299.589
299.592
299.595
299.597
299.599
299.601
299.602
299.603
299.605
299.605
299.607
299.608
299.609
299.61
299.612
299.615
299.62
299.627
299.636
299.649
299.669
299.697
299.736
299.79
299.862
299.956
300.073
300.215
300.379
300.56
300.753
300.951
299.043
299.13
299.216
299.3
299.38
299.455
299.524
299.586
299.639
299.684
299.722
299.753
299.774
299.788
299.797
299.801
299.801
299.797
299.791
299.783
299.773
299.763
299.751
299.739
299.727
299.716
299.704
299.693
299.682
299.671
299.661
299.651
299.642
299.633
299.625
299.618
299.611
299.604
299.598
299.592
299.587
299.583
299.579
299.576
299.573
299.571
299.569
299.568
299.567
299.566
299.566
299.567
299.567
299.568
299.569
299.571
299.572
299.574
299.576
299.579
299.581
299.583
299.586
299.589
299.591
299.594
299.597
299.6
299.603
299.606
299.609
299.611
299.613
299.614
299.616
299.617
299.619
299.62
299.621
299.622
299.623
299.624
299.626
299.629
299.633
299.639
299.648
299.661
299.68
299.708
299.747
299.801
299.873
299.967
300.084
300.224
300.387
300.566
300.757
300.952
299.045
299.133
299.221
299.307
299.389
299.466
299.536
299.598
299.652
299.698
299.736
299.764
299.784
299.799
299.807
299.811
299.81
299.806
299.799
299.791
299.781
299.77
299.758
299.746
299.735
299.723
299.711
299.7
299.689
299.679
299.669
299.659
299.651
299.642
299.634
299.627
299.62
299.614
299.608
299.603
299.598
299.594
299.59
299.587
299.584
299.582
299.58
299.579
299.579
299.578
299.578
299.579
299.579
299.58
299.582
299.583
299.585
299.587
299.589
299.591
299.594
299.597
299.599
299.602
299.605
299.608
299.611
299.614
299.618
299.621
299.624
299.626
299.628
299.629
299.631
299.632
299.634
299.636
299.637
299.637
299.638
299.639
299.64
299.643
299.647
299.652
299.661
299.673
299.692
299.72
299.759
299.813
299.885
299.978
300.095
300.234
300.395
300.573
300.76
300.953
299.046
299.137
299.227
299.314
299.398
299.476
299.547
299.61
299.664
299.711
299.747
299.773
299.795
299.809
299.817
299.82
299.818
299.814
299.807
299.798
299.788
299.777
299.765
299.753
299.741
299.729
299.718
299.707
299.696
299.686
299.676
299.667
299.659
299.65
299.643
299.636
299.629
299.623
299.618
299.613
299.608
299.604
299.601
299.598
299.596
299.594
299.592
299.591
299.591
299.59
299.591
299.591
299.592
299.593
299.595
299.596
299.598
299.6
299.603
299.605
299.608
299.611
299.614
299.617
299.62
299.623
299.627
299.63
299.634
299.637
299.64
299.641
299.643
299.645
299.647
299.649
299.651
299.653
299.654
299.654
299.655
299.655
299.656
299.658
299.661
299.666
299.674
299.686
299.705
299.732
299.771
299.825
299.897
299.99
300.105
300.244
300.403
300.579
300.764
300.954
299.047
299.14
299.232
299.321
299.407
299.486
299.558
299.621
299.677
299.722
299.756
299.784
299.805
299.818
299.826
299.828
299.826
299.821
299.814
299.805
299.795
299.783
299.771
299.759
299.748
299.736
299.725
299.714
299.703
299.693
299.684
299.675
299.667
299.659
299.651
299.645
299.639
299.633
299.628
299.623
299.619
299.615
299.612
299.609
299.607
299.606
299.604
299.604
299.603
299.603
299.604
299.604
299.605
299.607
299.609
299.61
299.613
299.615
299.618
299.62
299.623
299.626
299.63
299.633
299.636
299.64
299.644
299.648
299.652
299.654
299.656
299.658
299.66
299.662
299.665
299.667
299.67
299.671
299.672
299.672
299.673
299.673
299.673
299.674
299.676
299.68
299.688
299.7
299.718
299.745
299.784
299.837
299.909
300.001
300.116
300.254
300.412
300.585
300.768
300.956
299.048
299.143
299.237
299.328
299.415
299.496
299.568
299.632
299.688
299.73
299.766
299.794
299.814
299.827
299.834
299.836
299.834
299.828
299.821
299.812
299.802
299.79
299.778
299.766
299.754
299.742
299.731
299.72
299.71
299.7
299.691
299.683
299.675
299.667
299.66
299.654
299.648
299.643
299.638
299.634
299.63
299.627
299.624
299.621
299.62
299.618
299.617
299.617
299.616
299.617
299.617
299.618
299.62
299.621
299.623
299.625
299.628
299.63
299.633
299.636
299.64
299.643
299.646
299.65
299.654
299.658
299.662
299.666
299.669
299.671
299.673
299.675
299.677
299.681
299.684
299.687
299.689
299.69
299.691
299.691
299.691
299.691
299.69
299.69
299.692
299.695
299.702
299.714
299.731
299.758
299.796
299.85
299.921
300.013
300.127
300.264
300.42
300.591
300.772
300.957
299.048
299.145
299.241
299.334
299.423
299.505
299.578
299.644
299.696
299.738
299.776
299.804
299.823
299.836
299.842
299.843
299.841
299.835
299.828
299.819
299.809
299.797
299.785
299.773
299.761
299.749
299.738
299.728
299.718
299.708
299.699
299.691
299.683
299.676
299.67
299.664
299.658
299.653
299.649
299.645
299.641
299.639
299.636
299.634
299.633
299.631
299.631
299.631
299.631
299.631
299.632
299.633
299.635
299.637
299.639
299.641
299.644
299.647
299.65
299.653
299.657
299.661
299.665
299.669
299.673
299.677
299.681
299.684
299.685
299.688
299.69
299.693
299.697
299.701
299.704
299.707
299.708
299.709
299.71
299.71
299.71
299.709
299.708
299.707
299.708
299.711
299.717
299.728
299.745
299.771
299.809
299.862
299.933
300.025
300.139
300.274
300.428
300.598
300.776
300.958
299.049
299.148
299.246
299.341
299.431
299.514
299.588
299.652
299.704
299.749
299.785
299.813
299.832
299.844
299.85
299.851
299.848
299.843
299.835
299.827
299.815
299.803
299.792
299.78
299.768
299.757
299.746
299.736
299.726
299.717
299.708
299.7
299.693
299.686
299.68
299.674
299.669
299.665
299.661
299.657
299.654
299.651
299.649
299.648
299.646
299.646
299.645
299.645
299.646
299.647
299.648
299.649
299.651
299.653
299.656
299.658
299.661
299.665
299.668
299.672
299.675
299.68
299.684
299.688
299.692
299.696
299.698
299.7
299.703
299.706
299.71
299.714
299.718
299.722
299.725
299.727
299.728
299.729
299.729
299.729
299.729
299.728
299.726
299.725
299.725
299.727
299.733
299.743
299.759
299.785
299.823
299.875
299.946
300.037
300.15
300.284
300.437
300.604
300.78
300.959
299.05
299.151
299.25
299.347
299.438
299.523
299.599
299.659
299.712
299.758
299.795
299.822
299.841
299.852
299.858
299.859
299.856
299.85
299.844
299.834
299.823
299.811
299.799
299.788
299.776
299.765
299.755
299.745
299.735
299.726
299.718
299.711
299.704
299.697
299.691
299.686
299.681
299.677
299.674
299.67
299.668
299.665
299.664
299.662
299.661
299.661
299.661
299.661
299.662
299.663
299.664
299.666
299.668
299.671
299.673
299.676
299.679
299.683
299.687
299.691
299.695
299.699
299.703
299.707
299.71
299.712
299.714
299.717
299.721
299.726
299.731
299.735
299.739
299.742
299.745
299.746
299.748
299.749
299.749
299.749
299.748
299.747
299.745
299.743
299.742
299.744
299.749
299.758
299.774
299.799
299.837
299.889
299.959
300.049
300.161
300.294
300.445
300.61
300.784
300.961
299.051
299.154
299.255
299.353
299.446
299.531
299.605
299.668
299.721
299.768
299.804
299.831
299.849
299.86
299.866
299.866
299.863
299.858
299.852
299.842
299.83
299.819
299.808
299.796
299.785
299.774
299.764
299.754
299.745
299.737
299.729
299.722
299.715
299.709
299.704
299.699
299.695
299.691
299.688
299.685
299.682
299.68
299.679
299.678
299.677
299.677
299.677
299.678
299.679
299.68
299.682
299.684
299.686
299.689
299.692
299.695
299.699
299.702
299.706
299.71
299.715
299.718
299.722
299.724
299.726
299.729
299.732
299.737
299.742
299.747
299.752
299.756
299.759
299.762
299.764
299.766
299.767
299.768
299.769
299.768
299.768
299.766
299.764
299.762
299.76
299.761
299.765
299.774
299.789
299.814
299.851
299.902
299.972
300.062
300.173
300.304
300.454
300.617
300.787
300.962
299.052
299.156
299.259
299.359
299.453
299.54
299.611
299.678
299.731
299.777
299.813
299.839
299.857
299.868
299.874
299.874
299.872
299.867
299.86
299.85
299.839
299.828
299.817
299.805
299.795
299.784
299.774
299.765
299.757
299.749
299.741
299.735
299.728
299.723
299.718
299.713
299.709
299.706
299.703
299.701
299.698
299.697
299.696
299.695
299.694
299.695
299.695
299.696
299.697
299.698
299.7
299.702
299.705
299.708
299.711
299.714
299.718
299.722
299.726
299.73
299.733
299.735
299.737
299.739
299.743
299.747
299.752
299.758
299.763
299.767
299.772
299.775
299.779
299.781
299.784
299.785
299.787
299.788
299.788
299.788
299.787
299.785
299.784
299.781
299.779
299.778
299.782
299.79
299.804
299.829
299.865
299.916
299.985
300.074
300.184
300.314
300.462
300.623
300.79
300.963
299.053
299.159
299.264
299.365
299.461
299.547
299.621
299.686
299.74
299.786
299.822
299.848
299.866
299.877
299.882
299.882
299.879
299.876
299.868
299.858
299.848
299.837
299.826
299.815
299.805
299.795
299.786
299.777
299.769
299.762
299.755
299.748
299.743
299.738
299.733
299.729
299.725
299.722
299.72
299.717
299.716
299.714
299.713
299.713
299.713
299.713
299.713
299.714
299.716
299.717
299.719
299.722
299.724
299.727
299.731
299.734
299.738
299.741
299.744
299.746
299.748
299.75
299.753
299.758
299.762
299.767
299.773
299.778
299.782
299.787
299.791
299.794
299.798
299.801
299.803
299.805
299.807
299.808
299.808
299.808
299.807
299.805
299.803
299.8
299.797
299.796
299.799
299.806
299.82
299.844
299.879
299.93
299.999
300.087
300.196
300.325
300.471
300.629
300.793
300.964
299.054
299.162
299.268
299.372
299.469
299.553
299.632
299.695
299.749