/*--------------------------------*- C++ -*----------------------------------*\
  =========                 |
  \\      /  F ield         | OpenFOAM: The Open Source CFD Toolbox
   \\    /   O peration     | Website:  https://openfoam.org
    \\  /    A nd           | Version:  6
     \\/     M anipulation  |
\*---------------------------------------------------------------------------*/
FoamFile
{
    version     2.0;
    format      ascii;
    class       volVectorField;
    location    "0";
    object      U_rec;
}
// * * * * * * * * * * * * * * * * * * * * * * * * * * * * * * * * * * * * * //

dimensions      [0 1 -1 0 0 0 0];

internalField   nonuniform List<vector> 
9000
(
(0.605735 0.155478 0)
(0.481485 0.0671176 0)
(0.291497 0.0227527 0)
(0.205015 0.0100948 0)
(0.158155 0.00583596 0)
(0.130434 0.00304022 0)
(0.113552 0.00272513 0)
(0.101923 0.000739486 0)
(0.0932332 -3.0523e-05 0)
(0.0877654 -0.000456861 0)
(0.0840552 0.0020184 0)
(0.0812247 0.00200025 0)
(0.0782916 0.00232438 0)
(0.0779359 0.00191337 0)
(0.0777321 -0.000108519 0)
(0.0765184 -0.00110145 0)
(0.0754556 -0.00106207 0)
(0.0746277 0.000471099 0)
(0.0744364 0.00128633 0)
(0.0748459 0.00258213 0)
(0.0753748 0.0013549 0)
(0.0749695 0.0020707 0)
(0.0746942 0.00113089 0)
(0.0747035 0.00106723 0)
(0.0746344 0.00120644 0)
(0.0753302 0.0015998 0)
(0.0741428 -0.000573169 0)
(0.0744002 0.000141548 0)
(0.0750785 -0.00109687 0)
(0.0740916 -0.00107566 0)
(0.0750937 -9.56637e-06 0)
(0.0748772 -0.00174843 0)
(0.0745075 -0.00184726 0)
(0.0747058 -0.00163131 0)
(0.0739221 -0.0012691 0)
(0.0740892 -0.000875549 0)
(0.0743584 0.000217201 0)
(0.0748813 -0.00120873 0)
(0.0753085 -0.000532308 0)
(0.0759246 -0.000529501 0)
(0.0762634 -0.00033662 0)
(0.0757836 -0.000712284 0)
(0.0764162 -4.87335e-05 0)
(0.0773437 1.67343e-05 0)
(0.0794578 -0.00137168 0)
(0.081421 -0.0027786 0)
(0.0848025 -0.00253115 0)
(0.0940539 -0.00101119 0)
(0.114718 -0.0085492 0)
(0.166846 -0.049107 0)
(0.959329 0.343695 0)
(0.873228 0.236571 0)
(0.663793 0.132778 0)
(0.523608 0.076187 0)
(0.429166 0.0460895 0)
(0.366402 0.0283184 0)
(0.324012 0.0210853 0)
(0.293205 0.0108253 0)
(0.271506 0.00729436 0)
(0.258346 0.00364635 0)
(0.247975 0.00660866 0)
(0.238587 0.00617102 0)
(0.231034 0.00486356 0)
(0.227449 0.00508376 0)
(0.225737 0.00147044 0)
(0.224036 -0.000474993 0)
(0.222882 -0.00185095 0)
(0.221243 0.000134052 0)
(0.220476 0.00261795 0)
(0.219846 0.00446409 0)
(0.220473 0.0037325 0)
(0.219848 0.00343194 0)
(0.218752 0.002316 0)
(0.219432 0.00308563 0)
(0.219503 0.00373558 0)
(0.219158 0.00122742 0)
(0.217381 -0.000174 0)
(0.218238 4.81846e-05 0)
(0.218881 -0.0034813 0)
(0.218918 -0.0011227 0)
(0.219498 -0.00142392 0)
(0.218241 -0.00308869 0)
(0.21885 -0.00415671 0)
(0.219558 -0.00395216 0)
(0.218109 -0.00205103 0)
(0.218754 -0.000885524 0)
(0.218702 -0.000447512 0)
(0.220132 -0.000843093 0)
(0.222106 -0.00149374 0)
(0.22295 -0.000513234 0)
(0.223676 -0.00164994 0)
(0.224124 -0.00354805 0)
(0.226714 -0.00274109 0)
(0.228586 -0.00362696 0)
(0.233421 -0.00454565 0)
(0.241312 -0.00803192 0)
(0.254663 -0.0112281 0)
(0.275839 -0.0171661 0)
(0.313602 -0.0415836 0)
(0.386952 -0.105508 0)
(1.03843 0.328764 0)
(1.03096 0.322312 0)
(0.886 0.2281 0)
(0.75316 0.150972 0)
(0.645938 0.100889 0)
(0.568625 0.0681374 0)
(0.510159 0.0466937 0)
(0.466778 0.0305553 0)
(0.436608 0.0224994 0)
(0.416938 0.0161918 0)
(0.402182 0.0124932 0)
(0.386817 0.00824563 0)
(0.376204 0.00743535 0)
(0.370509 0.0080195 0)
(0.366348 0.00344171 0)
(0.363216 0.00128206 0)
(0.361507 0.000964166 0)
(0.360714 0.000517493 0)
(0.359619 0.00336371 0)
(0.35812 0.00375647 0)
(0.35795 0.0054102 0)
(0.356651 0.00236373 0)
(0.356368 0.0028326 0)
(0.357582 0.0037458 0)
(0.355204 0.00395568 0)
(0.354901 0.000401162 0)
(0.354491 -0.000284032 0)
(0.353377 -0.00246128 0)
(0.355675 -0.00508469 0)
(0.356222 -0.00228919 0)
(0.355831 -0.00320736 0)
(0.354559 -0.00300444 0)
(0.354881 -0.00311348 0)
(0.357347 -0.00338254 0)
(0.356407 -0.00151551 0)
(0.355866 0.000370294 0)
(0.356494 0.000241281 0)
(0.358183 0.00126394 0)
(0.360739 -0.00160265 0)
(0.36231 -0.000474329 0)
(0.362494 -0.00245849 0)
(0.365066 -0.00498071 0)
(0.369715 -0.00669286 0)
(0.374188 -0.00837156 0)
(0.382223 -0.010577 0)
(0.393599 -0.0156211 0)
(0.413359 -0.0235507 0)
(0.442527 -0.0433502 0)
(0.486672 -0.0771067 0)
(0.55228 -0.151667 0)
(1.05049 0.283427 0)
(1.08974 0.354648 0)
(1.00843 0.297935 0)
(0.907897 0.2193 0)
(0.811844 0.159169 0)
(0.732009 0.113588 0)
(0.669725 0.0785236 0)
(0.622704 0.0584118 0)
(0.587306 0.0434913 0)
(0.561875 0.0322503 0)
(0.541804 0.0228019 0)
(0.525758 0.0144718 0)
(0.514531 0.0134446 0)
(0.504464 0.0106075 0)
(0.498089 0.00586729 0)
(0.49615 0.00350953 0)
(0.493455 0.00292133 0)
(0.491824 0.00166713 0)
(0.490767 0.00358787 0)
(0.488936 0.00191574 0)
(0.487617 0.00404946 0)
(0.485892 0.000836227 0)
(0.486555 0.00269961 0)
(0.487219 0.0025329 0)
(0.484339 0.00228989 0)
(0.483034 0.000458342 0)
(0.481921 -0.00213631 0)
(0.481535 -0.00143739 0)
(0.484937 -0.00399109 0)
(0.48594 -0.0030067 0)
(0.485651 -0.00145525 0)
(0.484608 -0.00204442 0)
(0.484626 -0.00103144 0)
(0.486981 -0.00254841 0)
(0.487038 -0.00245032 0)
(0.486674 0.00102787 0)
(0.486887 -4.37239e-05 0)
(0.487987 0.000418179 0)
(0.491475 -0.00168988 0)
(0.494478 -0.00253315 0)
(0.494998 -0.00512347 0)
(0.498034 -0.00619604 0)
(0.504593 -0.00988393 0)
(0.510999 -0.0126155 0)
(0.521476 -0.0181327 0)
(0.537208 -0.0271619 0)
(0.558812 -0.0412571 0)
(0.591455 -0.0689778 0)
(0.635571 -0.110388 0)
(0.688633 -0.186908 0)
(1.04569 0.240048 0)
(1.10442 0.357792 0)
(1.07358 0.3377 0)
(1.00792 0.272466 0)
(0.932325 0.207268 0)
(0.861297 0.154737 0)
(0.804116 0.117294 0)
(0.758264 0.0869363 0)
(0.720036 0.0664683 0)
(0.692742 0.0494865 0)
(0.671007 0.035523 0)
(0.653903 0.0249951 0)
(0.641387 0.0203075 0)
(0.629658 0.0134408 0)
(0.622827 0.00895947 0)
(0.619668 0.00611548 0)
(0.616498 0.00289505 0)
(0.61559 0.00145464 0)
(0.613405 0.00383401 0)
(0.611309 0.00396487 0)
(0.610037 0.00299297 0)
(0.608415 0.000206812 0)
(0.609341 0.00110413 0)
(0.609248 0.000260012 0)
(0.605797 0.000705775 0)
(0.603474 0.000128546 0)
(0.604557 -0.00155443 0)
(0.603566 0.000633564 0)
(0.60562 -0.00144446 0)
(0.608707 -0.00243493 0)
(0.607956 0.000598235 0)
(0.606385 0.000388654 0)
(0.60593 0.000549631 0)
(0.608198 -0.000489428 0)
(0.610639 -0.000171687 0)
(0.609574 -0.000187786 0)
(0.60891 -0.0023074 0)
(0.611379 -0.00173254 0)
(0.614863 -0.00501204 0)
(0.617959 -0.00582086 0)
(0.620019 -0.00953122 0)
(0.624379 -0.0106432 0)
(0.631562 -0.0149687 0)
(0.640055 -0.0212334 0)
(0.6518 -0.0300794 0)
(0.668564 -0.0412761 0)
(0.691777 -0.0592151 0)
(0.724867 -0.0900922 0)
(0.764091 -0.137172 0)
(0.804442 -0.208565 0)
(1.04016 0.202599 0)
(1.10225 0.344922 0)
(1.10301 0.353195 0)
(1.06819 0.30537 0)
(1.01718 0.244924 0)
(0.964771 0.19391 0)
(0.914585 0.151286 0)
(0.87194 0.113745 0)
(0.837689 0.0879907 0)
(0.809309 0.066968 0)
(0.786756 0.0488116 0)
(0.771151 0.0365099 0)
(0.758134 0.0268494 0)
(0.745043 0.017751 0)
(0.738453 0.0137202 0)
(0.735048 0.00961105 0)
(0.731423 0.00577102 0)
(0.731828 0.00521929 0)
(0.730864 0.00546351 0)
(0.726178 0.00466885 0)
(0.722727 0.00309819 0)
(0.722038 0.00131754 0)
(0.723279 0.000932509 0)
(0.723624 -0.00066758 0)
(0.720948 -0.000716692 0)
(0.717848 0.00237316 0)
(0.718463 -0.000315595 0)
(0.718025 0.000198314 0)
(0.719178 0.00112077 0)
(0.72344 -0.00112326 0)
(0.72416 0.000737351 0)
(0.721334 0.000407232 0)
(0.720566 0.00367026 0)
(0.723203 0.00378751 0)
(0.724167 0.00240568 0)
(0.722725 -0.000864149 0)
(0.724212 -0.00165202 0)
(0.726087 -0.00284214 0)
(0.730327 -0.00651504 0)
(0.734703 -0.00905709 0)
(0.736963 -0.011097 0)
(0.742309 -0.0155144 0)
(0.749399 -0.0208761 0)
(0.758176 -0.0300263 0)
(0.772549 -0.0414815 0)
(0.791957 -0.0559112 0)
(0.813477 -0.074896 0)
(0.843166 -0.107244 0)
(0.877462 -0.157286 0)
(0.906742 -0.224789 0)
(1.03413 0.171378 0)
(1.09313 0.321073 0)
(1.11375 0.352269 0)
(1.10435 0.323815 0)
(1.07838 0.275221 0)
(1.04233 0.225596 0)
(1.00198 0.177734 0)
(0.967859 0.137945 0)
(0.938167 0.106884 0)
(0.912298 0.0806403 0)
(0.892109 0.0604726 0)
(0.876773 0.0457316 0)
(0.863213 0.0327806 0)
(0.852435 0.023389 0)
(0.846445 0.0178715 0)
(0.841675 0.0126788 0)
(0.83912 0.00813411 0)
(0.839505 0.00856721 0)
(0.836208 0.00666475 0)
(0.832298 0.00306701 0)
(0.830142 0.0030633 0)
(0.829051 0.0015559 0)
(0.829492 -0.000690112 0)
(0.829662 -0.000287116 0)
(0.829205 -0.0017178 0)
(0.824909 0.00130614 0)
(0.824561 0.000490284 0)
(0.82604 -0.000328402 0)
(0.826167 0.00149658 0)
(0.829935 0.00179913 0)
(0.830734 0.00143527 0)
(0.829869 0.00119594 0)
(0.82946 0.00363841 0)
(0.829004 0.0037486 0)
(0.82989 0.001067 0)
(0.829848 -0.00163019 0)
(0.831458 -0.00185018 0)
(0.833409 -0.00454348 0)
(0.837441 -0.00578039 0)
(0.843106 -0.0106111 0)
(0.846051 -0.0132037 0)
(0.851263 -0.0188965 0)
(0.859212 -0.025444 0)
(0.868612 -0.0355865 0)
(0.883129 -0.0484089 0)
(0.903006 -0.0670391 0)
(0.924556 -0.0916162 0)
(0.949005 -0.124499 0)
(0.97516 -0.173533 0)
(0.996117 -0.237012 0)
(1.0304 0.145858 0)
(1.0839 0.292975 0)
(1.11588 0.339528 0)
(1.12611 0.328889 0)
(1.11901 0.292141 0)
(1.09932 0.242734 0)
(1.07145 0.196394 0)
(1.04674 0.155539 0)
(1.02309 0.119165 0)
(1.00151 0.0911596 0)
(0.98482 0.0690361 0)
(0.971927 0.0519299 0)
(0.960162 0.0381521 0)
(0.949896 0.0294538 0)
(0.944168 0.0205855 0)
(0.940159 0.0142112 0)
(0.938562 0.00935219 0)
(0.93961 0.00743844 0)
(0.935291 0.00479353 0)
(0.931172 0.00576266 0)
(0.928799 0.0023308 0)
(0.926438 0.00155061 0)
(0.9284 1.4863e-05 0)
(0.929408 -0.000724478 0)
(0.92847 -0.00183987 0)
(0.925424 -0.00155678 0)
(0.923888 0.00230116 0)
(0.925259 0.000259062 0)
(0.926888 -0.000782034 0)
(0.929777 0.000891723 0)
(0.930407 -0.000503943 0)
(0.929236 0.00220967 0)
(0.92865 0.000737643 0)
(0.928489 0.000815247 0)
(0.928331 -0.0015657 0)
(0.929065 -0.00247732 0)
(0.931355 -0.00394694 0)
(0.933637 -0.00665819 0)
(0.937831 -0.00690889 0)
(0.943034 -0.0104782 0)
(0.947002 -0.0176054 0)
(0.952805 -0.0228776 0)
(0.960537 -0.0319661 0)
(0.969468 -0.0428528 0)
(0.983708 -0.0560652 0)
(1.00202 -0.077902 0)
(1.02195 -0.104302 0)
(1.04366 -0.140805 0)
(1.06347 -0.187833 0)
(1.07616 -0.244246 0)
(1.02633 0.125913 0)
(1.07379 0.264597 0)
(1.1139 0.319589 0)
(1.13902 0.320371 0)
(1.14626 0.293196 0)
(1.13969 0.248697 0)
(1.12628 0.206654 0)
(1.11032 0.167908 0)
(1.09441 0.129853 0)
(1.07976 0.0999058 0)
(1.06741 0.0759691 0)
(1.05695 0.0587767 0)
(1.04761 0.0435874 0)
(1.03878 0.0325902 0)
(1.03315 0.0251478 0)
(1.03008 0.017373 0)
(1.02903 0.0110902 0)
(1.02997 0.00772593 0)
(1.0278 0.00250422 0)
(1.02298 0.00487396 0)
(1.0195 0.0023222 0)
(1.01933 0.00367139 0)
(1.01938 0.0025436 0)
(1.01986 -0.00258818 0)
(1.02017 -0.00260132 0)
(1.01856 -0.00443845 0)
(1.01692 -0.000978976 0)
(1.01549 -0.000876563 0)
(1.01769 -0.00143797 0)
(1.02116 -0.00256379 0)
(1.02302 -0.00305481 0)
(1.0221 -0.00159685 0)
(1.02025 -0.00168447 0)
(1.01982 -0.000896859 0)
(1.02066 -0.00113277 0)
(1.02157 -0.00307946 0)
(1.02264 -0.00535727 0)
(1.02643 -0.00776326 0)
(1.0313 -0.0094329 0)
(1.03442 -0.0132447 0)
(1.03861 -0.0213662 0)
(1.04523 -0.0270703 0)
(1.0527 -0.0375573 0)
(1.06294 -0.0499032 0)
(1.07489 -0.064082 0)
(1.09165 -0.0864414 0)
(1.10946 -0.113815 0)
(1.12561 -0.151166 0)
(1.14148 -0.197444 0)
(1.14905 -0.250227 0)
(1.02354 0.106704 0)
(1.06539 0.235133 0)
(1.10856 0.295414 0)
(1.14373 0.305362 0)
(1.16318 0.286406 0)
(1.17072 0.249636 0)
(1.17065 0.211528 0)
(1.16323 0.174251 0)
(1.15366 0.139775 0)
(1.14567 0.108664 0)
(1.13908 0.0817792 0)
(1.13289 0.0642503 0)
(1.1249 0.0479082 0)
(1.11905 0.035325 0)
(1.11488 0.0284794 0)
(1.11093 0.0207257 0)
(1.11122 0.0152206 0)
(1.11236 0.00869114 0)
(1.1112 0.00414771 0)
(1.10817 0.00270101 0)
(1.10495 0.00495241 0)
(1.10328 0.00537732 0)
(1.10075 0.0022529 0)
(1.1026 -0.0027 0)
(1.10374 -0.00338638 0)
(1.10206 -0.00492177 0)
(1.10193 -0.00295032 0)
(1.10097 -0.00318365 0)
(1.10164 -0.000667379 0)
(1.10478 -0.00324981 0)
(1.10726 -0.00384628 0)
(1.10658 -0.00519593 0)
(1.10602 -0.00371615 0)
(1.1064 -0.00260682 0)
(1.10468 -0.001561 0)
(1.10441 -0.0034689 0)
(1.10722 -0.00460073 0)
(1.11098 -0.00799993 0)
(1.11571 -0.0125716 0)
(1.11857 -0.0167299 0)
(1.1236 -0.0235772 0)
(1.13003 -0.0309404 0)
(1.1362 -0.0428391 0)
(1.14583 -0.05543 0)
(1.15735 -0.0741826 0)
(1.17153 -0.0946718 0)
(1.18609 -0.125997 0)
(1.19852 -0.159609 0)
(1.20902 -0.203366 0)
(1.21372 -0.251754 0)
(1.0213 0.0903596 0)
(1.05927 0.20763 0)
(1.1048 0.269005 0)
(1.14644 0.287295 0)
(1.17478 0.274178 0)
(1.19254 0.245409 0)
(1.20347 0.209635 0)
(1.20607 0.174308 0)
(1.20452 0.141983 0)
(1.20116 0.113148 0)
(1.20098 0.086849 0)
(1.19896 0.0672896 0)
(1.19331 0.0505648 0)
(1.19113 0.037183 0)
(1.18799 0.0275208 0)
(1.18547 0.0222207 0)
(1.18449 0.0173754 0)
(1.18577 0.0104989 0)
(1.18669 0.0061043 0)
(1.18536 0.00341751 0)
(1.18295 0.00519338 0)
(1.17894 0.00462525 0)
(1.17531 0.00147874 0)
(1.17769 0.000251121 0)
(1.1797 -0.00318259 0)
(1.17938 -0.00401528 0)
(1.17868 -0.00189552 0)
(1.17757 -0.000110303 0)
(1.17851 -0.00249502 0)
(1.18043 -0.00192822 0)
(1.183 -0.00429809 0)
(1.18397 -0.00562372 0)
(1.18398 -0.00428214 0)
(1.18346 -0.00439936 0)
(1.18262 -0.00390473 0)
(1.18254 -0.00358144 0)
(1.18361 -0.00457559 0)
(1.18635 -0.00810336 0)
(1.19223 -0.0133726 0)
(1.19529 -0.0191693 0)
(1.19962 -0.0249649 0)
(1.20476 -0.0361984 0)
(1.21106 -0.0487201 0)
(1.21977 -0.0630517 0)
(1.22958 -0.0814049 0)
(1.2417 -0.104047 0)
(1.25391 -0.133364 0)
(1.26363 -0.168238 0)
(1.26913 -0.207721 0)
(1.27041 -0.251087 0)
(1.02037 0.0784216 0)
(1.05472 0.184269 0)
(1.10065 0.242513 0)
(1.14616 0.263237 0)
(1.18127 0.255693 0)
(1.20874 0.233769 0)
(1.22873 0.201533 0)
(1.24023 0.168921 0)
(1.24628 0.138661 0)
(1.24945 0.11041 0)
(1.25342 0.0867829 0)
(1.25565 0.0679336 0)
(1.25312 0.0518221 0)
(1.25262 0.0360873 0)
(1.25332 0.025165 0)
(1.25249 0.0202238 0)
(1.25121 0.0152763 0)
(1.25273 0.0121003 0)
(1.25365 0.00729793 0)
(1.25404 0.00395967 0)
(1.25189 0.00363445 0)
(1.24686 0.00310123 0)
(1.2436 0.00145727 0)
(1.24529 0.00109827 0)
(1.24665 -0.00305896 0)
(1.2485 -0.00309731 0)
(1.24998 -0.00181952 0)
(1.24655 -0.000867299 0)
(1.24652 -0.00264146 0)
(1.24971 -0.00119232 0)
(1.25148 -0.00334364 0)
(1.2534 -0.00335014 0)
(1.25367 -0.00384009 0)
(1.25341 -0.00562898 0)
(1.25262 -0.00545143 0)
(1.25196 -0.00636359 0)
(1.25344 -0.00884152 0)
(1.25568 -0.0100884 0)
(1.26 -0.0139257 0)
(1.26393 -0.0216977 0)
(1.2667 -0.0284436 0)
(1.27074 -0.0403427 0)
(1.27707 -0.0524276 0)
(1.28513 -0.0678621 0)
(1.29385 -0.0855396 0)
(1.30386 -0.108969 0)
(1.31202 -0.136407 0)
(1.31839 -0.172948 0)
(1.32194 -0.208951 0)
(1.31959 -0.248898 0)
(1.01937 0.0661979 0)
(1.05082 0.159003 0)
(1.0963 0.214626 0)
(1.14476 0.232794 0)
(1.18636 0.232303 0)
(1.21965 0.216096 0)
(1.24702 0.186877 0)
(1.26731 0.158069 0)
(1.28002 0.129213 0)
(1.28883 0.10356 0)
(1.29927 0.0819905 0)
(1.30526 0.0640814 0)
(1.30345 0.0492547 0)
(1.3055 0.0354235 0)
(1.30956 0.0252081 0)
(1.31109 0.0197746 0)
(1.31096 0.0146066 0)
(1.31233 0.0111091 0)
(1.31272 0.00679192 0)
(1.31374 0.00345913 0)
(1.31295 0.00161838 0)
(1.30815 0.00128796 0)
(1.30428 0.00122804 0)
(1.30507 0.00118505 0)
(1.30735 -0.000186085 0)
(1.31049 0.000388957 0)
(1.31031 -0.00234591 0)
(1.30774 -0.00161127 0)
(1.30933 -0.000182501 0)
(1.31083 -0.00139768 0)
(1.31266 -0.00127013 0)
(1.31484 -0.00247436 0)
(1.31415 -0.00384774 0)
(1.31431 -0.00675235 0)
(1.31437 -0.00810158 0)
(1.31344 -0.00975511 0)
(1.31535 -0.0115049 0)
(1.31823 -0.0115768 0)
(1.3209 -0.0165282 0)
(1.3232 -0.0241575 0)
(1.32596 -0.0318637 0)
(1.32957 -0.0419347 0)
(1.33548 -0.0543734 0)
(1.34245 -0.0694057 0)
(1.34935 -0.0894504 0)
(1.35695 -0.112307 0)
(1.36162 -0.138909 0)
(1.36536 -0.17289 0)
(1.36678 -0.205493 0)
(1.36155 -0.243841 0)
(1.019 0.0550916 0)
(1.04928 0.135991 0)
(1.09227 0.185684 0)
(1.1422 0.205725 0)
(1.19004 0.205391 0)
(1.22697 0.192144 0)
(1.26067 0.166524 0)
(1.28805 0.141489 0)
(1.30728 0.116158 0)
(1.32267 0.0950556 0)
(1.3367 0.0759412 0)
(1.34646 0.0582826 0)
(1.3487 0.0465229 0)
(1.35235 0.0356905 0)
(1.35896 0.0257065 0)
(1.36158 0.0208618 0)
(1.36174 0.0135663 0)
(1.36312 0.0107597 0)
(1.36444 0.00588615 0)
(1.36591 0.00267947 0)
(1.36588 -0.00119144 0)
(1.36175 -0.00169032 0)
(1.35848 -6.06654e-05 0)
(1.3592 0.00288202 0)
(1.36097 0.0040474 0)
(1.36231 0.00215374 0)
(1.3636 -0.00106656 0)
(1.36294 -0.000421763 0)
(1.36223 0.00128088 0)
(1.3647 0.000456443 0)
(1.36636 0.000138033 0)
(1.36754 -0.00120645 0)
(1.36742 -0.00376171 0)
(1.36783 -0.00536978 0)
(1.36811 -0.00839143 0)
(1.36775 -0.00945098 0)
(1.3712 -0.0108673 0)
(1.37211 -0.0127396 0)
(1.37265 -0.0191082 0)
(1.37549 -0.0251557 0)
(1.37811 -0.0332717 0)
(1.38055 -0.0432996 0)
(1.38533 -0.0557036 0)
(1.39045 -0.0713691 0)
(1.39574 -0.0909632 0)
(1.40219 -0.113917 0)
(1.40402 -0.140279 0)
(1.40547 -0.169246 0)
(1.40414 -0.201498 0)
(1.39626 -0.236338 0)
(1.01918 0.0444282 0)
(1.04767 0.113075 0)
(1.09043 0.154591 0)
(1.14026 0.177415 0)
(1.18964 0.176821 0)
(1.23107 0.163334 0)
(1.26959 0.146741 0)
(1.30466 0.12361 0)
(1.33029 0.102617 0)
(1.35031 0.0837534 0)
(1.36801 0.0684541 0)
(1.38198 0.0531638 0)
(1.38716 0.0415802 0)
(1.39121 0.0329 0)
(1.40019 0.0260329 0)
(1.40349 0.0184339 0)
(1.40492 0.0113004 0)
(1.4078 0.00937729 0)
(1.40791 0.00567662 0)
(1.40948 0.00079722 0)
(1.41031 -0.00134818 0)
(1.40881 -0.0041685 0)
(1.40701 -0.000232692 0)
(1.40722 0.00312648 0)
(1.40656 0.00337031 0)
(1.40695 0.00152087 0)
(1.40842 -0.000256677 0)
(1.40903 -0.00184157 0)
(1.40984 0.000841807 0)
(1.41036 0.00357087 0)
(1.41202 0.0013591 0)
(1.41307 0.000113261 0)
(1.41283 -0.00323121 0)
(1.4132 -0.00525211 0)
(1.41398 -0.00717369 0)
(1.41466 -0.00729618 0)
(1.41677 -0.0105211 0)
(1.41733 -0.0149232 0)
(1.41777 -0.0208597 0)
(1.42002 -0.027817 0)
(1.42131 -0.0365344 0)
(1.42378 -0.044873 0)
(1.42752 -0.0570197 0)
(1.43092 -0.0727309 0)
(1.4345 -0.0904118 0)
(1.43849 -0.112947 0)
(1.43934 -0.140627 0)
(1.43848 -0.165618 0)
(1.43404 -0.196994 0)
(1.42528 -0.229389 0)
(1.01978 0.0338643 0)
(1.04691 0.0901487 0)
(1.08895 0.124667 0)
(1.13915 0.143112 0)
(1.18814 0.144035 0)
(1.23503 0.134332 0)
(1.27869 0.124454 0)
(1.31571 0.105324 0)
(1.34708 0.0864498 0)
(1.37277 0.0705968 0)
(1.39418 0.057677 0)
(1.4093 0.0447488 0)
(1.41797 0.033959 0)
(1.42558 0.0278943 0)
(1.43412 0.0249542 0)
(1.43681 0.014893 0)
(1.44086 0.0116746 0)
(1.44469 0.00662567 0)
(1.44382 0.00349212 0)
(1.44656 4.7173e-05 0)
(1.44728 -0.000171832 0)
(1.44733 -0.00259916 0)
(1.44789 -0.000163862 0)
(1.44622 0.00166421 0)
(1.4446 -0.00163516 0)
(1.4446 -0.000536125 0)
(1.44608 -0.00255506 0)
(1.44791 -0.00111986 0)
(1.4501 0.00105 0)
(1.44986 0.00265919 0)
(1.44907 0.00209138 0)
(1.45018 -0.00097331 0)
(1.45027 -0.00351738 0)
(1.45195 -0.00723239 0)
(1.45375 -0.00677748 0)
(1.4533 -0.010106 0)
(1.45428 -0.0111727 0)
(1.45452 -0.0178851 0)
(1.45376 -0.0228059 0)
(1.45576 -0.0298282 0)
(1.45859 -0.0388442 0)
(1.46047 -0.0471293 0)
(1.46151 -0.0587243 0)
(1.46403 -0.0730726 0)
(1.46557 -0.0902934 0)
(1.46654 -0.112429 0)
(1.46613 -0.138485 0)
(1.4644 -0.163211 0)
(1.45636 -0.191744 0)
(1.44524 -0.222365 0)
(1.02068 0.0267402 0)
(1.04668 0.0671707 0)
(1.08679 0.0960282 0)
(1.13672 0.109825 0)
(1.18756 0.112315 0)
(1.23861 0.108477 0)
(1.28477 0.0977066 0)
(1.32436 0.0841919 0)
(1.36013 0.0689069 0)
(1.38953 0.0553205 0)
(1.41384 0.0448806 0)
(1.43158 0.0336683 0)
(1.44312 0.025651 0)
(1.45336 0.0203433 0)
(1.46078 0.0181313 0)
(1.46415 0.0128884 0)
(1.46934 0.0108706 0)
(1.47208 0.00541111 0)
(1.47317 0.00294457 0)
(1.47675 0.00167187 0)
(1.47786 0.00114586 0)
(1.47823 -0.000566098 0)
(1.4789 -0.00106565 0)
(1.47542 0.000763399 0)
(1.47453 -0.0021981 0)
(1.4759 -0.00199802 0)
(1.47716 -0.00139799 0)
(1.47991 0.000751823 0)
(1.4813 0.00195357 0)
(1.48065 0.00108941 0)
(1.47964 0.00101646 0)
(1.47989 0.000637377 0)
(1.47993 -0.00278647 0)
(1.48273 -0.00690971 0)
(1.48405 -0.00739561 0)
(1.48418 -0.0115394 0)
(1.48464 -0.0143029 0)
(1.4834 -0.0211615 0)
(1.48433 -0.025836 0)
(1.4847 -0.0295542 0)
(1.48645 -0.0396468 0)
(1.48805 -0.0501642 0)
(1.48901 -0.0608749 0)
(1.48963 -0.0745267 0)
(1.4887 -0.0904986 0)
(1.48709 -0.111619 0)
(1.48634 -0.134365 0)
(1.48246 -0.15959 0)
(1.47259 -0.187887 0)
(1.45991 -0.2135 0)
(1.01874 0.0215799 0)
(1.04487 0.0468374 0)
(1.08648 0.0666949 0)
(1.13624 0.0765487 0)
(1.18883 0.0813926 0)
(1.24029 0.0790669 0)
(1.28812 0.0709824 0)
(1.33081 0.0604232 0)
(1.36848 0.0508386 0)
(1.40183 0.0399683 0)
(1.42824 0.0321032 0)
(1.44702 0.0235411 0)
(1.461 0.0175829 0)
(1.47351 0.0139585 0)
(1.48261 0.0080028 0)
(1.48611 0.00687058 0)
(1.4901 0.00474644 0)
(1.49336 0.00327956 0)
(1.49546 0.00385793 0)
(1.49942 0.00321638 0)
(1.49978 0.00321575 0)
(1.4997 -0.000503739 0)
(1.50236 -0.00140131 0)
(1.49924 0.000175321 0)
(1.49643 -0.000163549 0)
(1.49889 -0.000911513 0)
(1.5015 0.000730678 0)
(1.50396 0.00237088 0)
(1.50442 0.00144434 0)
(1.50373 0.0012116 0)
(1.50351 -0.000427136 0)
(1.50302 -0.000353913 0)
(1.50111 -0.00299276 0)
(1.50479 -0.00549475 0)
(1.5071 -0.0104313 0)
(1.50562 -0.0115321 0)
(1.50587 -0.0162212 0)
(1.50515 -0.0233477 0)
(1.50707 -0.0282246 0)
(1.50637 -0.0320585 0)
(1.50613 -0.0417127 0)
(1.50812 -0.0511348 0)
(1.50785 -0.0627649 0)
(1.5074 -0.0760074 0)
(1.50497 -0.0914692 0)
(1.50129 -0.109188 0)
(1.4985 -0.129634 0)
(1.49234 -0.153844 0)
(1.48213 -0.178702 0)
(1.46923 -0.203507 0)
(1.017 0.0128682 0)
(1.04196 0.0292986 0)
(1.08418 0.0391625 0)
(1.13626 0.0450722 0)
(1.18989 0.0457917 0)
(1.24167 0.0441522 0)
(1.29018 0.0402594 0)
(1.33499 0.0340172 0)
(1.37515 0.0306686 0)
(1.409 0.0243751 0)
(1.43712 0.0197152 0)
(1.45812 0.0141157 0)
(1.47381 0.0099012 0)
(1.48498 0.00952617 0)
(1.49424 0.00297267 0)
(1.50047 0.0014893 0)
(1.50549 0.00120067 0)
(1.50976 0.00181706 0)
(1.51167 0.00213318 0)
(1.5148 0.00221199 0)
(1.51375 0.00283639 0)
(1.51379 -9.92541e-05 0)
(1.51819 0.0003026 0)
(1.5145 -0.000231992 0)
(1.51206 0.000128594 0)
(1.51481 0.000855528 0)
(1.5178 0.0013113 0)
(1.51951 0.00288606 0)
(1.51965 0.00256702 0)
(1.51886 0.00215628 0)
(1.51809 0.00101216 0)
(1.51811 -0.00251229 0)
(1.51662 -0.00343152 0)
(1.51826 -0.00472417 0)
(1.52103 -0.0115606 0)
(1.5218 -0.0131189 0)
(1.51932 -0.0146028 0)
(1.51847 -0.0219652 0)
(1.52216 -0.0273493 0)
(1.52015 -0.0352212 0)
(1.51916 -0.0416989 0)
(1.52022 -0.0490957 0)
(1.51902 -0.0614322 0)
(1.51785 -0.0728636 0)
(1.51434 -0.0891762 0)
(1.50983 -0.1068 0)
(1.50444 -0.124289 0)
(1.49739 -0.145694 0)
(1.48514 -0.167568 0)
(1.4698 -0.192313 0)
(1.01725 0.00464724 0)
(1.04143 0.00857174 0)
(1.08365 0.0103834 0)
(1.13477 0.0136441 0)
(1.18852 0.0113585 0)
(1.2424 0.0108755 0)
(1.29205 0.00932695 0)
(1.33863 0.0107962 0)
(1.37896 0.0104253 0)
(1.41346 0.00764967 0)
(1.4418 0.00426944 0)
(1.46233 0.00128714 0)
(1.48015 -0.00167361 0)
(1.4919 -0.000131636 0)
(1.50038 -0.000591525 0)
(1.50769 -0.000204145 0)
(1.51324 -0.000241185 0)
(1.51688 2.147e-05 0)
(1.51879 -0.00112849 0)
(1.5228 0.000204403 0)
(1.52119 0.000586213 0)
(1.52125 0.0014832 0)
(1.5256 0.000864731 0)
(1.52209 -0.00218725 0)
(1.52031 0.000693498 0)
(1.52311 0.00142983 0)
(1.52636 0.0027017 0)
(1.52824 0.00258034 0)
(1.52772 0.00439817 0)
(1.52667 0.00232393 0)
(1.52505 0.0011071 0)
(1.52466 -0.00136533 0)
(1.52425 -0.00331473 0)
(1.52473 -0.0048153 0)
(1.52713 -0.0100938 0)
(1.52991 -0.0120853 0)
(1.5268 -0.0145426 0)
(1.52447 -0.0177173 0)
(1.52679 -0.0237936 0)
(1.52598 -0.0335578 0)
(1.52644 -0.0400965 0)
(1.52549 -0.0468382 0)
(1.52317 -0.0568474 0)
(1.52029 -0.0700058 0)
(1.5145 -0.08459 0)
(1.51047 -0.102074 0)
(1.50452 -0.119604 0)
(1.49502 -0.139559 0)
(1.48154 -0.161356 0)
(1.46354 -0.184022 0)
(1.01547 -0.00185059 0)
(1.03875 -0.0113543 0)
(1.08347 -0.0157167 0)
(1.13526 -0.0198034 0)
(1.18855 -0.0231484 0)
(1.24252 -0.0227309 0)
(1.29362 -0.0226531 0)
(1.34027 -0.0161678 0)
(1.37883 -0.012044 0)
(1.41168 -0.0112419 0)
(1.43986 -0.0120278 0)
(1.46164 -0.00914614 0)
(1.48023 -0.009869 0)
(1.49356 -0.0086576 0)
(1.50175 -0.0065822 0)
(1.50829 -0.00526657 0)
(1.5134 -0.00188313 0)
(1.51661 -0.00301092 0)
(1.51932 -0.00244582 0)
(1.52352 -0.000630651 0)
(1.52223 -0.0025309 0)
(1.52162 0.000720796 0)
(1.52351 -0.00136409 0)
(1.52232 -0.00366486 0)
(1.52242 0.00169044 0)
(1.52423 0.00324018 0)
(1.52687 0.00393868 0)
(1.52894 0.00329099 0)
(1.52817 0.00377882 0)
(1.52525 0.0017085 0)
(1.52476 0.000548345 0)
(1.52439 -0.00257967 0)
(1.52372 -0.00446972 0)
(1.52357 -0.00404788 0)
(1.52648 -0.00728804 0)
(1.52965 -0.00822179 0)
(1.52725 -0.0140063 0)
(1.52466 -0.0162401 0)
(1.52437 -0.0224664 0)
(1.52296 -0.0294359 0)
(1.52434 -0.0369379 0)
(1.52356 -0.0459589 0)
(1.51906 -0.0546794 0)
(1.51496 -0.0677786 0)
(1.50926 -0.0815376 0)
(1.50307 -0.0949546 0)
(1.49627 -0.11521 0)
(1.48551 -0.132928 0)
(1.47063 -0.153832 0)
(1.45243 -0.173419 0)
(1.01473 -0.0124567 0)
(1.03933 -0.0311423 0)
(1.08342 -0.0425843 0)
(1.13282 -0.053472 0)
(1.18752 -0.057888 0)
(1.2413 -0.0576209 0)
(1.29327 -0.0532432 0)
(1.34093 -0.0458496 0)
(1.37688 -0.038238 0)
(1.40762 -0.031457 0)
(1.4364 -0.0252092 0)
(1.45667 -0.0193846 0)
(1.47346 -0.0170612 0)
(1.48659 -0.0150602 0)
(1.49474 -0.0118602 0)
(1.50283 -0.00943511 0)
(1.50691 -0.00632951 0)
(1.50885 -0.00607446 0)
(1.51252 -0.0037362 0)
(1.51515 -0.00273205 0)
(1.5145 -0.00360234 0)
(1.51444 -0.000571605 0)
(1.51563 -0.00041473 0)
(1.51678 -0.000206292 0)
(1.51745 0.00254496 0)
(1.51725 0.00307375 0)
(1.51933 0.00455986 0)
(1.52155 0.00222907 0)
(1.52006 -0.000936041 0)
(1.51815 0.000799685 0)
(1.51561 0.000595503 0)
(1.51497 -0.0037951 0)
(1.51731 -0.00373281 0)
(1.51716 -0.00391428 0)
(1.51939 -0.00460982 0)
(1.521 -0.00755957 0)
(1.51774 -0.0127392 0)
(1.51559 -0.0174272 0)
(1.51524 -0.0231503 0)
(1.5141 -0.0273911 0)
(1.5141 -0.0341643 0)
(1.51273 -0.0466261 0)
(1.50821 -0.0545022 0)
(1.50263 -0.0665907 0)
(1.49683 -0.0797153 0)
(1.48906 -0.0902138 0)
(1.48059 -0.107286 0)
(1.46991 -0.124759 0)
(1.45411 -0.143093 0)
(1.43662 -0.158782 0)
(1.01575 -0.0221713 0)
(1.04063 -0.0512178 0)
(1.08333 -0.0730049 0)
(1.13271 -0.0853348 0)
(1.18671 -0.0897944 0)
(1.24065 -0.0897599 0)
(1.29166 -0.0806844 0)
(1.33663 -0.0708716 0)
(1.37159 -0.060203 0)
(1.4015 -0.0488627 0)
(1.42764 -0.0392399 0)
(1.4455 -0.0313178 0)
(1.46133 -0.0251501 0)
(1.47428 -0.0213645 0)
(1.48225 -0.0150293 0)
(1.48879 -0.0115305 0)
(1.49234 -0.0116641 0)
(1.49502 -0.00843206 0)
(1.49815 -0.0035922 0)
(1.50052 -0.00491938 0)
(1.50051 -0.0024591 0)
(1.50068 -1.4089e-05 0)
(1.50113 0.00115465 0)
(1.50182 0.00195452 0)
(1.50212 0.000913196 0)
(1.50326 0.000780978 0)
(1.50408 0.00341261 0)
(1.50355 0.000145446 0)
(1.50516 -0.00334135 0)
(1.50423 -0.00142268 0)
(1.49994 -0.00147264 0)
(1.5002 -0.00236712 0)
(1.50237 -0.00277146 0)
(1.50198 -0.00559239 0)
(1.50374 -0.00718874 0)
(1.5048 -0.0103415 0)
(1.50172 -0.0146624 0)
(1.49909 -0.0186491 0)
(1.49948 -0.0234411 0)
(1.49768 -0.0270774 0)
(1.49462 -0.0343128 0)
(1.49356 -0.0442323 0)
(1.48986 -0.0515864 0)
(1.483 -0.0644521 0)
(1.47882 -0.0755968 0)
(1.47023 -0.0870122 0)
(1.45859 -0.100383 0)
(1.44714 -0.116495 0)
(1.43255 -0.131804 0)
(1.41452 -0.14487 0)
(1.01713 -0.0304991 0)
(1.04259 -0.0717664 0)
(1.08471 -0.101269 0)
(1.13337 -0.115108 0)
(1.18507 -0.121298 0)
(1.23853 -0.117333 0)
(1.28857 -0.107024 0)
(1.33121 -0.0945531 0)
(1.3635 -0.0797723 0)
(1.38975 -0.0649724 0)
(1.41426 -0.0505915 0)
(1.43019 -0.0410103 0)
(1.44293 -0.0301659 0)
(1.45542 -0.0250077 0)
(1.46293 -0.0207995 0)
(1.46672 -0.0147638 0)
(1.47067 -0.0107692 0)
(1.47537 -0.00779846 0)
(1.47629 -0.00343339 0)
(1.47732 -0.00427425 0)
(1.47929 -0.00345922 0)
(1.47853 -0.000797746 0)
(1.4787 0.000497274 0)
(1.47874 0.00102377 0)
(1.47895 -0.0024026 0)
(1.48112 -0.00104686 0)
(1.48139 -2.19545e-05 0)
(1.47969 0.000257237 0)
(1.48179 -0.000625948 0)
(1.48191 -0.00182046 0)
(1.47779 -0.00256143 0)
(1.47733 -0.00100119 0)
(1.47878 -0.00440711 0)
(1.47788 -0.00552402 0)
(1.4804 -0.00833137 0)
(1.48095 -0.0112766 0)
(1.47764 -0.0158198 0)
(1.47521 -0.0186943 0)
(1.47587 -0.0236426 0)
(1.474 -0.0280834 0)
(1.47043 -0.0323884 0)
(1.46906 -0.0400014 0)
(1.46347 -0.0479855 0)
(1.45609 -0.0577107 0)
(1.4517 -0.068283 0)
(1.44281 -0.0820063 0)
(1.43139 -0.0949967 0)
(1.41925 -0.107534 0)
(1.40469 -0.120786 0)
(1.3861 -0.132812 0)
(1.01847 -0.0391269 0)
(1.04503 -0.0924327 0)
(1.08733 -0.131247 0)
(1.13474 -0.148813 0)
(1.18491 -0.151124 0)
(1.23626 -0.143564 0)
(1.28188 -0.130195 0)
(1.321 -0.115075 0)
(1.35125 -0.0985659 0)
(1.37587 -0.0781877 0)
(1.39531 -0.0613222 0)
(1.4086 -0.0486277 0)
(1.41977 -0.0357305 0)
(1.4274 -0.0294461 0)
(1.43543 -0.0259468 0)
(1.4417 -0.0173156 0)
(1.44291 -0.00956025 0)
(1.44613 -0.0067088 0)
(1.44669 -0.0064933 0)
(1.44674 -0.00337572 0)
(1.44936 -0.00423031 0)
(1.44932 -0.00283608 0)
(1.44886 -0.00107959 0)
(1.44673 -0.00131415 0)
(1.44761 -0.0037249 0)
(1.45136 -0.00146201 0)
(1.45184 -0.00155056 0)
(1.45034 0.000383367 0)
(1.45131 -0.000312393 0)
(1.45043 -0.00136584 0)
(1.44812 -0.00271959 0)
(1.44677 -0.00209235 0)
(1.44773 -0.00637976 0)
(1.44797 -0.00663881 0)
(1.44861 -0.00906244 0)
(1.44915 -0.0122311 0)
(1.44609 -0.0149816 0)
(1.44392 -0.0188846 0)
(1.44418 -0.022176 0)
(1.44331 -0.0283515 0)
(1.43892 -0.0316163 0)
(1.43614 -0.0387983 0)
(1.4314 -0.0461095 0)
(1.42338 -0.0525323 0)
(1.41705 -0.0637733 0)
(1.40765 -0.0759945 0)
(1.39716 -0.0872776 0)
(1.38502 -0.0980184 0)
(1.37037 -0.110183 0)
(1.35111 -0.12286 0)
(1.0202 -0.0478837 0)
(1.04691 -0.113672 0)
(1.08832 -0.161403 0)
(1.13781 -0.181486 0)
(1.18598 -0.180065 0)
(1.23254 -0.172447 0)
(1.27391 -0.15372 0)
(1.30756 -0.133208 0)
(1.33508 -0.112858 0)
(1.35602 -0.0909395 0)
(1.37094 -0.0735206 0)
(1.3815 -0.0568579 0)
(1.38832 -0.0443629 0)
(1.39389 -0.0352885 0)
(1.40197 -0.0261779 0)
(1.40803 -0.0195846 0)
(1.40821 -0.0145544 0)
(1.40814 -0.00929068 0)
(1.40914 -0.00836173 0)
(1.40973 -0.00545754 0)
(1.41078 -0.00556874 0)