/*--------------------------------*- C++ -*----------------------------------*\
  =========                 |
  \\      /  F ield         | OpenFOAM: The Open Source CFD Toolbox
   \\    /   O peration     | Website:  https://openfoam.org
    \\  /    A nd           | Version:  6
     \\/     M anipulation  |
\*---------------------------------------------------------------------------*/
FoamFile
{
    version     2.0;
    format      ascii;
    class       volVectorField;
    location    "0";
    object      U;
}
// * * * * * * * * * * * * * * * * * * * * * * * * * * * * * * * * * * * * * //

dimensions      [0 1 -1 0 0 0 0];

internalField   nonuniform List<vector> 
40000
(
(-0.00151513 0.00151504 0)
(0.00174266 -0.00125661 0)
(0.0156614 -0.00471974 0)
(0.040389 -0.00749258 0)
(0.0740865 -0.00970226 0)
(0.115258 -0.0115146 0)
(0.162708 -0.0129902 0)
(0.215195 -0.0141149 0)
(0.271315 -0.0148523 0)
(0.329545 -0.0151899 0)
(0.388385 -0.015152 0)
(0.446454 -0.01479 0)
(0.50261 -0.0141654 0)
(0.555863 -0.0133354 0)
(0.605486 -0.0123472 0)
(0.650909 -0.0112387 0)
(0.691663 -0.0100407 0)
(0.727425 -0.00877761 0)
(0.757989 -0.00746975 0)
(0.78315 -0.0061344 0)
(0.802829 -0.00478738 0)
(0.816983 -0.00344235 0)
(0.825629 -0.00211294 0)
(0.82886 -0.00081192 0)
(0.826813 0.000449123 0)
(0.819639 0.00166024 0)
(0.807559 0.00281203 0)
(0.79085 0.00389639 0)
(0.769748 0.00490714 0)
(0.744586 0.0058383 0)
(0.71571 0.00668616 0)
(0.683418 0.0074475 0)
(0.648121 0.00812053 0)
(0.610119 0.00870458 0)
(0.569819 0.0092005 0)
(0.527559 0.00961026 0)
(0.483718 0.0099362 0)
(0.438593 0.010182 0)
(0.392525 0.0103526 0)
(0.345834 0.0104535 0)
(0.298783 0.0104908 0)
(0.25163 0.0104712 0)
(0.204589 0.0104023 0)
(0.157901 0.0102912 0)
(0.111679 0.0101464 0)
(0.0661086 0.00997517 0)
(0.021265 0.00978593 0)
(-0.0227791 0.00958629 0)
(-0.0659781 0.00938374 0)
(-0.108297 0.00918521 0)
(-0.14981 0.00899711 0)
(-0.190495 0.00882589 0)
(-0.230426 0.00867645 0)
(-0.269708 0.00855348 0)
(-0.308455 0.0084607 0)
(-0.346741 0.0084007 0)
(-0.384716 0.00837722 0)
(-0.422505 0.00839042 0)
(-0.460265 0.00844082 0)
(-0.498148 0.00852948 0)
(-0.536313 0.00865639 0)
(-0.574824 0.00881739 0)
(-0.613901 0.00901404 0)
(-0.653672 0.00924262 0)
(-0.694099 0.00949961 0)
(-0.735656 0.00978276 0)
(-0.778055 0.0100897 0)
(-0.821569 0.0104154 0)
(-0.866292 0.010756 0)
(-0.912115 0.0111101 0)
(-0.959219 0.0114712 0)
(-1.00765 0.0118368 0)
(-1.05726 0.0122041 0)
(-1.10837 0.0125683 0)
(-1.16061 0.0129269 0)
(-1.21416 0.0132764 0)
(-1.26906 0.0136146 0)
(-1.32482 0.0139387 0)
(-1.38198 0.0142467 0)
(-1.43994 0.0145361 0)
(-1.49924 0.0148059 0)
(-1.55932 0.015055 0)
(-1.62022 0.0152818 0)
(-1.68186 0.0154853 0)
(-1.74411 0.0156655 0)
(-1.80698 0.0158229 0)
(-1.87033 0.0159558 0)
(-1.93399 0.0160651 0)
(-1.99819 0.0161512 0)
(-2.06255 0.0162145 0)
(-2.12681 0.0162545 0)
(-2.19142 0.0162724 0)
(-2.25573 0.0162683 0)
(-2.32007 0.0162426 0)
(-2.38424 0.0161956 0)
(-2.44795 0.0161276 0)
(-2.51132 0.0160384 0)
(-2.57433 0.0159282 0)
(-2.63681 0.0157966 0)
(-2.69856 0.0156435 0)
(-2.75987 0.0154679 0)
(-2.82019 0.0152693 0)
(-2.8796 0.0150465 0)
(-2.93805 0.0147982 0)
(-2.99552 0.0145236 0)
(-3.05166 0.0142206 0)
(-3.1067 0.0138877 0)
(-3.1601 0.0135229 0)
(-3.21194 0.0131245 0)
(-3.26207 0.0126908 0)
(-3.31059 0.0122195 0)
(-3.35698 0.0117091 0)
(-3.40122 0.0111565 0)
(-3.4431 0.0105611 0)
(-3.48252 0.00992226 0)
(-3.51931 0.00923648 0)
(-3.55311 0.00850438 0)
(-3.58403 0.00772441 0)
(-3.61154 0.00689688 0)
(-3.63577 0.00602097 0)
(-3.65652 0.00509694 0)
(-3.67329 0.00412665 0)
(-3.68595 0.00311166 0)
(-3.69473 0.00205288 0)
(-3.69899 0.0009539 0)
(-3.69893 -0.000181163 0)
(-3.6943 -0.00135168 0)
(-3.68483 -0.00255047 0)
(-3.67048 -0.00377387 0)
(-3.65128 -0.00501627 0)
(-3.62711 -0.00627316 0)
(-3.59778 -0.00753629 0)
(-3.56349 -0.00880088 0)
(-3.5241 -0.0100594 0)
(-3.47972 -0.0113051 0)
(-3.43037 -0.0125308 0)
(-3.37617 -0.0137295 0)
(-3.31718 -0.0148931 0)
(-3.25359 -0.0160157 0)
(-3.18557 -0.0170894 0)
(-3.11334 -0.0181083 0)
(-3.03708 -0.0190655 0)
(-2.9571 -0.0199552 0)
(-2.8736 -0.0207726 0)
(-2.78692 -0.0215121 0)
(-2.69739 -0.0221695 0)
(-2.60529 -0.0227419 0)
(-2.511 -0.0232261 0)
(-2.41488 -0.0236193 0)
(-2.31723 -0.0239209 0)
(-2.21849 -0.0241301 0)
(-2.119 -0.0242465 0)
(-2.01909 -0.0242716 0)
(-1.91922 -0.0242067 0)
(-1.81961 -0.0240542 0)
(-1.72074 -0.0238169 0)
(-1.62292 -0.0234985 0)
(-1.52633 -0.0231033 0)
(-1.4315 -0.0226358 0)
(-1.33849 -0.022101 0)
(-1.24776 -0.0215043 0)
(-1.15943 -0.0208519 0)
(-1.07375 -0.0201497 0)
(-0.990978 -0.0194036 0)
(-0.911152 -0.0186204 0)
(-0.834546 -0.0178065 0)
(-0.761241 -0.0169681 0)
(-0.691239 -0.0161114 0)
(-0.624718 -0.0152424 0)
(-0.561746 -0.0143675 0)
(-0.502288 -0.0134922 0)
(-0.446344 -0.0126215 0)
(-0.393918 -0.0117606 0)
(-0.344931 -0.010914 0)
(-0.299373 -0.0100854 0)
(-0.257153 -0.00927897 0)
(-0.21818 -0.00849695 0)
(-0.182357 -0.00774113 0)
(-0.149578 -0.00701415 0)
(-0.119747 -0.00631478 0)
(-0.0927575 -0.00564451 0)
(-0.0684963 -0.00499834 0)
(-0.0468653 -0.00437545 0)
(-0.0277996 -0.00376971 0)
(-0.0112288 -0.00317908 0)
(0.00292072 -0.00260029 0)
(0.0146721 -0.00203364 0)
(0.0241141 -0.00148519 0)
(0.0313569 -0.000967491 0)
(0.0365397 -0.000498354 0)
(0.0399036 -9.18417e-05 0)
(0.0416946 0.000250258 0)
(0.0421266 0.000554945 0)
(0.0412498 0.000885934 0)
(0.0388301 0.00132834 0)
(0.0343855 0.00193216 0)
(0.0274398 0.00262524 0)
(0.0182009 0.00312479 0)
(0.00863128 0.00282114 0)
(0.00137446 0.00136142 0)
(0.00124663 -0.00173538 0)
(0.021525 -0.0215453 0)
(0.0655591 -0.0443558 0)
(0.133374 -0.0643235 0)
(0.221536 -0.0812142 0)
(0.327353 -0.095591 0)
(0.448331 -0.107547 0)
(0.581625 -0.116762 0)
(0.723846 -0.122873 0)
(0.871261 -0.125732 0)
(1.02008 -0.125484 0)
(1.1668 -0.122481 0)
(1.30836 -0.117174 0)
(1.44226 -0.110008 0)
(1.5664 -0.10138 0)
(1.67917 -0.0916194 0)
(1.77929 -0.0809828 0)
(1.86576 -0.0697007 0)
(1.93787 -0.0579487 0)
(1.99508 -0.0458923 0)
(2.0371 -0.0336753 0)
(2.06377 -0.0214363 0)
(2.07509 -0.00929666 0)
(2.07128 0.00262753 0)
(2.05258 0.0142287 0)
(2.01956 0.0254088 0)
(1.97265 0.0360821 0)
(1.91256 0.0461746 0)
(1.84009 0.0556212 0)
(1.75598 0.0643682 0)
(1.66127 0.072373 0)
(1.5567 0.0796054 0)
(1.44341 0.0860473 0)
(1.32237 0.091682 0)
(1.19462 0.0965192 0)
(1.06084 0.100565 0)
(0.922639 0.103841 0)
(0.780351 0.106377 0)
(0.635179 0.108208 0)
(0.48802 0.109382 0)
(0.33957 0.109951 0)
(0.190775 0.109973 0)
(0.0420232 0.109507 0)
(-0.105667 0.108624 0)
(-0.25211 0.107387 0)
(-0.397121 0.105868 0)
(-0.539774 0.104136 0)
(-0.680242 0.102256 0)
(-0.817978 0.1003 0)
(-0.953336 0.0983249 0)
(-1.08577 0.0963917 0)
(-1.21581 0.094558 0)
(-1.34339 0.0928698 0)
(-1.46875 0.091371 0)
(-1.59197 0.0900987 0)
(-1.71329 0.0890786 0)
(-1.83318 0.0883366 0)
(-1.95173 0.0878938 0)
(-2.06966 0.0877547 0)
(-2.18714 0.0879199 0)
(-2.30453 0.0883963 0)
(-2.42201 0.0891725 0)
(-2.5403 0.0902399 0)
(-2.65952 0.0915782 0)
(-2.77999 0.0931713 0)
(-2.90201 0.0949818 0)
(-3.02564 0.0970012 0)
(-3.15155 0.0991844 0)
(-3.27974 0.101517 0)
(-3.41024 0.103963 0)
(-3.54323 0.106489 0)
(-3.67877 0.109076 0)
(-3.81722 0.11167 0)
(-3.95817 0.114267 0)
(-4.10189 0.116823 0)
(-4.2482 0.119322 0)
(-4.39701 0.121744 0)
(-4.54844 0.124063 0)
(-4.7022 0.126256 0)
(-4.85798 0.128316 0)
(-5.01579 0.130219 0)
(-5.17573 0.131961 0)
(-5.33723 0.133535 0)
(-5.50014 0.134932 0)
(-5.66453 0.136143 0)
(-5.82981 0.137167 0)
(-5.99598 0.138005 0)
(-6.16291 0.138659 0)
(-6.3303 0.139123 0)
(-6.49777 0.1394 0)
(-6.66529 0.139498 0)
(-6.83263 0.139419 0)
(-6.99946 0.13916 0)
(-7.16596 0.138729 0)
(-7.33153 0.138125 0)
(-7.49642 0.137349 0)
(-7.65969 0.1364 0)
(-7.82174 0.135279 0)
(-7.98231 0.133981 0)
(-8.14108 0.132504 0)
(-8.29797 0.130839 0)
(-8.45267 0.12898 0)
(-8.60472 0.126916 0)
(-8.7542 0.124639 0)
(-8.9008 0.122138 0)
(-9.04397 0.119394 0)
(-9.18384 0.116397 0)
(-9.3198 0.113129 0)
(-9.45141 0.109573 0)
(-9.57877 0.105716 0)
(-9.70108 0.101541 0)
(-9.81832 0.097021 0)
(-9.92975 0.0921567 0)
(-10.035 0.0869212 0)
(-10.1336 0.0812942 0)
(-10.2253 0.07529 0)
(-10.3093 0.0688793 0)
(-10.3855 0.0620607 0)
(-10.453 0.0548311 0)
(-10.5117 0.0471903 0)
(-10.5608 0.0391364 0)
(-10.5999 0.0306938 0)
(-10.6286 0.0218599 0)
(-10.6462 0.0126599 0)
(-10.6525 0.00309553 0)
(-10.6471 -0.00677947 0)
(-10.6293 -0.0169478 0)
(-10.5993 -0.0273834 0)
(-10.5565 -0.0380194 0)
(-10.5005 -0.0488438 0)
(-10.4311 -0.0597936 0)
(-10.3486 -0.0708148 0)
(-10.2526 -0.0818563 0)
(-10.143 -0.0928658 0)
(-10.0201 -0.103778 0)
(-9.88381 -0.114539 0)
(-9.73458 -0.125083 0)
(-9.57252 -0.135346 0)
(-9.39793 -0.145283 0)
(-9.21139 -0.154818 0)
(-9.01345 -0.16389 0)
(-8.80448 -0.172458 0)
(-8.58511 -0.180464 0)
(-8.35625 -0.187873 0)
(-8.1182 -0.194613 0)
(-7.87227 -0.20067 0)
(-7.61906 -0.206003 0)
(-7.35947 -0.210576 0)
(-7.09433 -0.214383 0)
(-6.82486 -0.217397 0)
(-6.55198 -0.21961 0)
(-6.27604 -0.221024 0)
(-5.99914 -0.221638 0)
(-5.72112 -0.221465 0)
(-5.44376 -0.220517 0)
(-5.16747 -0.218821 0)
(-4.89341 -0.2164 0)
(-4.62259 -0.213291 0)
(-4.35549 -0.209528 0)
(-4.09306 -0.205154 0)
(-3.83603 -0.200212 0)
(-3.58544 -0.194752 0)
(-3.34124 -0.188825 0)
(-3.10449 -0.182481 0)
(-2.87556 -0.175779 0)
(-2.6549 -0.168772 0)
(-2.44272 -0.161513 0)
(-2.23975 -0.154056 0)
(-2.04567 -0.146461 0)
(-1.8612 -0.138773 0)
(-1.68603 -0.131045 0)
(-1.52045 -0.123329 0)
(-1.3643 -0.115659 0)
(-1.21763 -0.108086 0)
(-1.08021 -0.100641 0)
(-0.951964 -0.0933572 0)
(-0.832798 -0.086263 0)
(-0.722204 -0.0793797 0)
(-0.62023 -0.0727181 0)
(-0.526486 -0.0662901 0)
(-0.440674 -0.0600785 0)
(-0.362593 -0.0540814 0)
(-0.291989 -0.048277 0)
(-0.228656 -0.042631 0)
(-0.172366 -0.0371256 0)
(-0.123073 -0.0317412 0)
(-0.0804915 -0.026498 0)
(-0.0444041 -0.0214434 0)
(-0.0145162 -0.0166831 0)
(0.00957953 -0.0123406 0)
(0.0284968 -0.00852257 0)
(0.0428434 -0.00523561 0)
(0.0531884 -0.00226651 0)
(0.0597027 0.000837815 0)
(0.0619769 0.00467156 0)
(0.0590336 0.00955862 0)
(0.0499389 0.0149296 0)
(0.0349915 0.0187501 0)
(0.0176698 0.017638 0)
(0.00285185 0.00861169 0)
(0.00470091 -0.0156323 0)
(0.0443148 -0.0655731 0)
(0.117141 -0.11717 0)
(0.222326 -0.162691 0)
(0.355076 -0.202008 0)
(0.512132 -0.23598 0)
(0.690209 -0.264437 0)
(0.885368 -0.286413 0)
(1.09283 -0.300944 0)
(1.30723 -0.307625 0)
(1.52323 -0.306726 0)
(1.73568 -0.299017 0)
(1.94005 -0.285514 0)
(2.13253 -0.267263 0)
(2.30994 -0.245216 0)
(2.46974 -0.220181 0)
(2.60991 -0.192824 0)
(2.72885 -0.163707 0)
(2.82536 -0.133303 0)
(2.8986 -0.102031 0)
(2.948 -0.0702905 0)
(2.97325 -0.0384179 0)
(2.97443 -0.00675491 0)
(2.95169 0.0244053 0)
(2.90553 0.0547816 0)
(2.83646 0.0841019 0)
(2.74563 0.112152 0)
(2.63358 0.138708 0)
(2.50194 0.163642 0)
(2.35169 0.186769 0)
(2.18434 0.207996 0)
(2.00158 0.227227 0)
(1.80441 0.244397 0)
(1.59479 0.259482 0)
(1.37417 0.272473 0)
(1.14416 0.283406 0)
(0.906436 0.292314 0)
(0.662229 0.299262 0)
(0.41335 0.304356 0)
(0.161134 0.307702 0)
(-0.0932571 0.309424 0)
(-0.348542 0.309661 0)
(-0.60367 0.308585 0)
(-0.857604 0.306373 0)
(-1.10948 0.303164 0)
(-1.35822 0.299153 0)
(-1.60362 0.294502 0)
(-1.84537 0.289397 0)
(-2.08266 0.284011 0)
(-2.31563 0.278505 0)
(-2.54394 0.273033 0)
(-2.76763 0.267718 0)
(-2.98668 0.262718 0)
(-3.20171 0.258124 0)
(-3.41257 0.254033 0)
(-3.61986 0.250534 0)
(-3.824 0.247703 0)
(-4.02508 0.245555 0)
(-4.22409 0.244156 0)
(-4.42125 0.243503 0)
(-4.61726 0.243606 0)
(-4.81235 0.244448 0)
(-5.00746 0.245993 0)
(-5.20247 0.248215 0)
(-5.39855 0.25107 0)
(-5.59564 0.254484 0)
(-5.79431 0.258427 0)
(-5.99501 0.2628 0)
(-6.19792 0.267547 0)
(-6.40312 0.272588 0)
(-6.61104 0.277855 0)
(-6.82181 0.283274 0)
(-7.03571 0.28877 0)
(-7.25257 0.294273 0)
(-7.47229 0.299721 0)
(-7.69524 0.305048 0)
(-7.92054 0.310203 0)
(-8.14883 0.315126 0)
(-8.37984 0.319779 0)
(-8.61346 0.324124 0)
(-8.84886 0.328126 0)
(-9.08657 0.331751 0)
(-9.32632 0.334983 0)
(-9.56735 0.337807 0)
(-9.80953 0.340212 0)
(-10.053 0.342182 0)
(-10.2966 0.343724 0)
(-10.5412 0.344828 0)
(-10.7858 0.345514 0)
(-11.0303 0.345753 0)
(-11.2741 0.345588 0)
(-11.5179 0.345006 0)
(-11.7607 0.344012 0)
(-12.0021 0.342611 0)
(-12.2425 0.340809 0)
(-12.4803 0.338599 0)
(-12.717 0.335991 0)
(-12.9519 0.332979 0)
(-13.1839 0.329544 0)
(-13.4126 0.325684 0)
(-13.6387 0.321377 0)
(-13.8621 0.316604 0)
(-14.0802 0.31134 0)
(-14.296 0.305562 0)
(-14.507 0.299227 0)
(-14.7133 0.292297 0)
(-14.9141 0.284756 0)
(-15.1094 0.276547 0)
(-15.2985 0.267635 0)
(-15.481 0.257962 0)
(-15.6565 0.247505 0)
(-15.8242 0.236211 0)
(-15.9837 0.224039 0)
(-16.1341 0.210955 0)
(-16.275 0.196908 0)
(-16.406 0.181906 0)
(-16.5251 0.165887 0)
(-16.6331 0.14885 0)
(-16.7279 0.130785 0)
(-16.8098 0.111698 0)
(-16.8774 0.0915756 0)
(-16.9308 0.0704515 0)
(-16.9686 0.0483466 0)
(-16.9902 0.0253241 0)
(-16.9947 0.00139028 0)
(-16.982 -0.0233593 0)
(-16.9511 -0.0488624 0)
(-16.9018 -0.0750299 0)
(-16.8333 -0.10176 0)
(-16.7455 -0.128964 0)
(-16.6377 -0.156514 0)
(-16.5095 -0.184281 0)
(-16.3617 -0.212156 0)
(-16.1936 -0.239965 0)
(-16.0049 -0.267587 0)
(-15.7966 -0.294876 0)
(-15.568 -0.321668 0)
(-15.3202 -0.347815 0)
(-15.0535 -0.373164 0)
(-14.7681 -0.397562 0)
(-14.4653 -0.420889 0)
(-14.1454 -0.442976 0)
(-13.8094 -0.463693 0)
(-13.4584 -0.482948 0)
(-13.0934 -0.500577 0)
(-12.7156 -0.516526 0)
(-12.326 -0.530685 0)
(-11.9263 -0.542957 0)
(-11.5174 -0.553326 0)
(-11.1012 -0.561717 0)
(-10.6785 -0.568101 0)
(-10.2513 -0.572485 0)
(-9.82081 -0.57484 0)
(-9.38846 -0.575203 0)
(-8.95586 -0.573594 0)
(-8.52445 -0.570073 0)
(-8.09541 -0.564705 0)
(-7.6703 -0.557552 0)
(-7.25038 -0.548712 0)
(-6.83667 -0.538265 0)
(-6.43058 -0.526342 0)
(-6.03331 -0.513049 0)
(-5.64563 -0.498511 0)
(-5.26824 -0.482863 0)
(-4.90258 -0.466244 0)
(-4.5491 -0.448776 0)
(-4.20822 -0.430594 0)
(-3.88088 -0.411864 0)
(-3.56717 -0.392701 0)
(-3.26748 -0.373248 0)
(-2.98209 -0.353612 0)
(-2.71124 -0.333936 0)
(-2.45466 -0.31434 0)
(-2.21272 -0.294914 0)
(-1.98499 -0.275761 0)
(-1.77164 -0.256956 0)
(-1.57222 -0.2386 0)
(-1.38622 -0.220716 0)
(-1.2138 -0.203363 0)
(-1.05403 -0.186536 0)
(-0.907015 -0.170276 0)
(-0.772244 -0.154521 0)
(-0.649322 -0.139227 0)
(-0.537931 -0.124354 0)
(-0.437803 -0.109851 0)
(-0.348664 -0.0956905 0)
(-0.270287 -0.0819269 0)
(-0.202136 -0.0687014 0)
(-0.143803 -0.0562376 0)
(-0.0946654 -0.0448252 0)
(-0.0538088 -0.0347089 0)
(-0.0203053 -0.0258722 0)
(0.00663894 -0.0178671 0)
(0.0274018 -0.00966296 0)
(0.0415769 3.2433e-05 0)
(0.0480747 0.0119325 0)
(0.04573 0.0249116 0)
(0.0347036 0.0348665 0)
(0.0186856 0.034974 0)
(0.00314123 0.0181929 0)
(0.00746998 -0.0403332 0)
(0.064333 -0.133415 0)
(0.162839 -0.222412 0)
(0.300686 -0.300443 0)
(0.471224 -0.368324 0)
(0.670443 -0.427311 0)
(0.894376 -0.476792 0)
(1.13818 -0.51492 0)
(1.39599 -0.539878 0)
(1.66132 -0.550904 0)
(1.92755 -0.548389 0)
(2.1884 -0.533618 0)
(2.43817 -0.508311 0)
(2.67209 -0.474208 0)
(2.88607 -0.433063 0)
(3.07683 -0.386269 0)
(3.24168 -0.335053 0)
(3.37857 -0.280452 0)
(3.48568 -0.22333 0)
(3.56222 -0.164511 0)
(3.60705 -0.104742 0)
(3.61989 -0.044608 0)
(3.60089 0.0151854 0)
(3.54974 0.0741061 0)
(3.46771 0.131591 0)
(3.35482 0.187174 0)
(3.21296 0.240399 0)
(3.04296 0.290936 0)
(2.84683 0.338379 0)
(2.62544 0.382485 0)
(2.38127 0.423017 0)
(2.11585 0.459772 0)
(1.83149 0.492698 0)
(1.53024 0.521682 0)
(1.21407 0.546693 0)
(0.885337 0.56781 0)
(0.546011 0.585075 0)
(0.197944 0.598613 0)
(-0.156855 0.608569 0)
(-0.515956 0.615199 0)
(-0.878049 0.618664 0)
(-1.24122 0.619293 0)
(-1.60435 0.617349 0)
(-1.96577 0.613123 0)
(-2.32362 0.60697 0)
(-2.67819 0.599153 0)
(-3.02746 0.590049 0)
(-3.37118 0.579956 0)
(-3.70877 0.569211 0)
(-4.0399 0.558099 0)
(-4.36412 0.546924 0)
(-4.68148 0.53595 0)
(-4.992 0.525427 0)
(-5.29605 0.515555 0)
(-5.59359 0.506514 0)
(-5.88509 0.498489 0)
(-6.17113 0.491561 0)
(-6.45227 0.485884 0)
(-6.7288 0.481498 0)
(-7.00167 0.478414 0)
(-7.27134 0.476677 0)
(-7.53861 0.476278 0)
(-7.80375 0.477152 0)
(-8.06783 0.479249 0)
(-8.33107 0.482483 0)
(-8.59414 0.486761 0)
(-8.85785 0.491971 0)
(-9.12218 0.498017 0)
(-9.38769 0.504767 0)
(-9.65445 0.512077 0)
(-9.92411 0.519832 0)
(-10.1945 0.527883 0)
(-10.4675 0.536128 0)
(-10.7432 0.544439 0)
(-11.0209 0.552686 0)
(-11.3017 0.560752 0)
(-11.584 0.568573 0)
(-11.8686 0.576038 0)
(-12.1556 0.583058 0)
(-12.4443 0.589585 0)
(-12.7348 0.595527 0)
(-13.0271 0.600886 0)
(-13.3204 0.605578 0)
(-13.6148 0.609601 0)
(-13.91 0.612931 0)
(-14.2055 0.615539 0)
(-14.5015 0.617445 0)
(-14.7971 0.618636 0)
(-15.0922 0.619116 0)
(-15.3871 0.618879 0)
(-15.6809 0.617955 0)
(-15.9732 0.616342 0)
(-16.2651 0.61406 0)
(-16.5542 0.611101 0)
(-16.8422 0.607472 0)
(-17.1276 0.603174 0)
(-17.4106 0.598208 0)
(-17.691 0.592552 0)
(-17.9685 0.586189 0)
(-18.2423 0.579099 0)
(-18.5128 0.571251 0)
(-18.7794 0.56259 0)
(-19.0414 0.553084 0)
(-19.2988 0.542674 0)
(-19.5513 0.53129 0)
(-19.7979 0.518875 0)
(-20.0383 0.505351 0)
(-20.2724 0.490648 0)
(-20.4992 0.474682 0)
(-20.7189 0.457366 0)
(-20.9283 0.438631 0)
(-21.1294 0.418396 0)
(-21.3215 0.39657 0)
(-21.5015 0.373096 0)
(-21.6704 0.347897 0)
(-21.8271 0.32092 0)
(-21.9704 0.292128 0)
(-22.0993 0.261496 0)
(-22.2129 0.228961 0)
(-22.3103 0.194553 0)
(-22.3911 0.15822 0)
(-22.4534 0.120101 0)
(-22.4973 0.0802209 0)
(-22.5204 0.0385469 0)
(-22.5236 -0.00474765 0)
(-22.5048 -0.0496022 0)
(-22.4638 -0.0958606 0)
(-22.3996 -0.143357 0)
(-22.3116 -0.19196 0)
(-22.1996 -0.241483 0)
(-22.0629 -0.291668 0)
(-21.901 -0.342329 0)
(-21.7136 -0.393299 0)
(-21.5006 -0.444247 0)
(-21.2623 -0.494924 0)
(-20.9983 -0.545064 0)
(-20.7093 -0.594357 0)
(-20.3952 -0.642622 0)
(-20.057 -0.689536 0)
(-19.6949 -0.734849 0)
(-19.3099 -0.77816 0)
(-18.903 -0.819409 0)
(-18.4747 -0.858261 0)
(-18.0272 -0.894453 0)
(-17.5607 -0.927833 0)
(-17.077 -0.958187 0)
(-16.5778 -0.985326 0)
(-16.0642 -1.00913 0)
(-15.5381 -1.02942 0)
(-15.0016 -1.04618 0)
(-14.456 -1.05933 0)
(-13.9035 -1.06877 0)
(-13.3454 -1.07451 0)
(-12.7838 -1.0766 0)
(-12.2206 -1.07507 0)
(-11.6576 -1.07 0)
(-11.0969 -1.06146 0)
(-10.5396 -1.04963 0)
(-9.98794 -1.03462 0)
(-9.44352 -1.01658 0)
(-8.90765 -0.99578 0)
(-8.38191 -0.972326 0)
(-7.86766 -0.946516 0)
(-7.36628 -0.918525 0)
(-6.87869 -0.888647 0)
(-6.40603 -0.857118 0)
(-5.94914 -0.824151 0)
(-5.50893 -0.790045 0)
(-5.08573 -0.755009 0)
(-4.68047 -0.719356 0)
(-4.29328 -0.683229 0)
(-3.92445 -0.646946 0)
(-3.57415 -0.610676 0)
(-3.24241 -0.574633 0)
(-2.92949 -0.53898 0)
(-2.63471 -0.5039 0)
(-2.3582 -0.469513 0)
(-2.09937 -0.435956 0)
(-1.85844 -0.403277 0)
(-1.63422 -0.37159 0)
(-1.42685 -0.3408 0)
(-1.23583 -0.310915 0)
(-1.06021 -0.281897 0)
(-0.900386 -0.253635 0)
(-0.75542 -0.226097 0)
(-0.625114 -0.199221 0)
(-0.509132 -0.173126 0)
(-0.406868 -0.148081 0)
(-0.317669 -0.124467 0)
(-0.240777 -0.102788 0)
(-0.174983 -0.0834417 0)
(-0.119192 -0.0664326 0)
(-0.0722874 -0.0509766 0)
(-0.0337143 -0.0353856 0)
(-0.0037713 -0.017575 0)
(0.016532 0.00373228 0)
(0.0258642 0.026905 0)
(0.0241297 0.0457167 0)
(0.014597 0.0497088 0)
(0.00260447 0.0273727 0)
(0.00969398 -0.074042 0)
(0.0814042 -0.221753 0)
(0.202664 -0.355458 0)
(0.369508 -0.471172 0)
(0.573105 -0.57165 0)
(0.808336 -0.658857 0)
(1.07042 -0.731768 0)
(1.3536 -0.787506 0)
(1.65117 -0.823395 0)
(1.95567 -0.83821 0)
(2.25962 -0.832501 0)
(2.55582 -0.808065 0)
(2.83776 -0.767412 0)
(3.09989 -0.713173 0)
(3.33747 -0.647839 0)
(3.54661 -0.573616 0)
(3.72406 -0.492331 0)
(3.86726 -0.405591 0)
(3.97441 -0.314771 0)
(4.04388 -0.221188 0)
(4.07477 -0.125915 0)
(4.0668 -0.0300921 0)
(4.01914 0.0653622 0)
(3.9329 0.159485 0)
(3.80833 0.251403 0)
(3.64648 0.340375 0)
(3.44863 0.425659 0)
(3.21651 0.506662 0)
(2.95175 0.582825 0)
(2.65647 0.653706 0)
(2.33278 0.7189 0)
(1.98295 0.77815 0)
(1.60977 0.831227 0)
(1.21567 0.878024 0)
(0.803395 0.918488 0)
(0.375126 0.952674 0)
(-0.0658994 0.980677 0)
(-0.517386 1.00265 0)
(-0.977217 1.01887 0)
(-1.44249 1.02967 0)
(-1.91119 1.03535 0)
(-2.3812 1.03636 0)
(-2.85033 1.03312 0)
(-3.31757 1.02612 0)
(-3.78042 1.01588 0)
(-4.23802 1.00285 0)
(-4.68878 0.987591 0)
(-5.13213 0.970607 0)
(-5.56724 0.952378 0)
(-5.99326 0.933401 0)
(-6.41015 0.914151 0)
(-6.81732 0.895032 0)
(-7.21499 0.876429 0)
(-7.60352 0.858674 0)
(-7.98261 0.842123 0)
(-8.35314 0.826957 0)
(-8.71496 0.813462 0)
(-9.06916 0.801776 0)
(-9.41633 0.791991 0)
(-9.75696 0.784199 0)
(-10.0919 0.778419 0)
(-10.4216 0.774666 0)
(-10.7472 0.772837 0)
(-11.0688 0.772893 0)
(-11.3878 0.774701 0)
(-11.7046 0.77815 0)
(-12.0191 0.783073 0)
(-12.3328 0.789263 0)
(-12.646 0.796594 0)
(-12.9587 0.804776 0)
(-13.2715 0.813765 0)
(-13.5847 0.823274 0)
(-13.8989 0.833162 0)
(-14.2138 0.843166 0)
(-14.5296 0.853235 0)
(-14.8459 0.863056 0)
(-15.1641 0.872608 0)
(-15.4826 0.881688 0)
(-15.8027 0.89019 0)
(-16.1231 0.898077 0)
(-16.4438 0.905164 0)
(-16.7657 0.911491 0)
(-17.0869 0.916901 0)
(-17.4095 0.921419 0)
(-17.7316 0.924968 0)
(-18.0527 0.927559 0)
(-18.3728 0.929194 0)
(-18.6945 0.92986 0)
(-19.0135 0.929547 0)
(-19.3319 0.928308 0)
(-19.6491 0.92611 0)
(-19.9649 0.922991 0)
(-20.277 0.918958 0)
(-20.589 0.914019 0)
(-20.8983 0.908164 0)
(-21.2043 0.901397 0)
(-21.5091 0.893717 0)
(-21.8114 0.885081 0)
(-22.1095 0.875458 0)
(-22.4039 0.864804 0)
(-22.6952 0.853075 0)
(-22.9823 0.840191 0)
(-23.2651 0.826063 0)
(-23.5438 0.810633 0)
(-23.8165 0.793766 0)
(-24.0848 0.775374 0)
(-24.3461 0.755321 0)
(-24.6 0.733517 0)
(-24.8476 0.709793 0)
(-25.0869 0.684046 0)
(-25.3176 0.656135 0)
(-25.5378 0.625933 0)
(-25.7478 0.593361 0)
(-25.9468 0.558227 0)
(-26.1331 0.520392 0)
(-26.3058 0.479918 0)
(-26.4643 0.436536 0)
(-26.6077 0.390396 0)
(-26.7349 0.341346 0)
(-26.8437 0.289319 0)
(-26.9334 0.234343 0)
(-27.0038 0.17655 0)
(-27.0529 0.115946 0)
(-27.08 0.0526703 0)
(-27.0842 -0.0133297 0)
(-27.0635 -0.0816321 0)
(-27.0183 -0.152271 0)
(-26.9467 -0.22489 0)
(-26.8483 -0.299339 0)
(-26.7226 -0.375221 0)
(-26.5683 -0.452323 0)
(-26.3854 -0.530331 0)
(-26.1733 -0.608845 0)
(-25.9317 -0.687517 0)
(-25.6607 -0.765826 0)
(-25.3602 -0.843593 0)
(-25.03 -0.920248 0)
(-24.6709 -0.995466 0)
(-24.2832 -1.06866 0)
(-23.8672 -1.13957 0)
(-23.4242 -1.20772 0)
(-22.9546 -1.27267 0)
(-22.4601 -1.33416 0)
(-21.9416 -1.39173 0)
(-21.4002 -1.44502 0)
(-20.838 -1.49379 0)
(-20.2561 -1.53772 0)
(-19.6565 -1.57665 0)
(-19.0409 -1.6102 0)
(-18.4118 -1.63835 0)
(-17.7704 -1.66096 0)
(-17.1193 -1.67788 0)
(-16.4603 -1.68912 0)
(-15.7956 -1.69468 0)
(-15.1277 -1.69462 0)
(-14.4584 -1.689 0)
(-13.7902 -1.67797 0)
(-13.1246 -1.66175 0)
(-12.464 -1.64049 0)
(-11.8105 -1.61446 0)
(-11.1659 -1.58394 0)
(-10.5318 -1.54922 0)
(-9.90974 -1.51064 0)
(-9.30203 -1.46855 0)
(-8.70926 -1.42334 0)
(-8.13333 -1.37535 0)
(-7.5751 -1.32501 0)
(-7.03583 -1.27267 0)
(-6.51615 -1.21876 0)
(-6.01686 -1.1636 0)
(-5.53858 -1.10761 0)
(-5.08186 -1.05112 0)
(-4.64668 -0.994535 0)
(-4.23345 -0.938121 0)
(-3.84241 -0.882163 0)
(-3.4729 -0.826962 0)
(-3.1254 -0.772696 0)
(-2.79911 -0.719591 0)
(-2.49387 -0.667767 0)
(-2.20919 -0.617303 0)
(-1.94512 -0.568235 0)
(-1.70025 -0.52052 0)
(-1.47499 -0.474113 0)
(-1.26851 -0.428856 0)
(-1.08059 -0.384734 0)
(-0.910409 -0.341744 0)
(-0.757731 -0.300007 0)
(-0.621981 -0.259935 0)
(-0.502353 -0.222149 0)
(-0.39765 -0.187337 0)
(-0.30677 -0.156145 0)
(-0.228251 -0.128562 0)
(-0.160865 -0.103478 0)
(-0.103818 -0.0785756 0)
(-0.0571813 -0.0508109 0)
(-0.021924 -0.0182164 0)
(0.000605638 0.0171777 0)
(0.00993483 0.0472947 0)
(0.00871373 0.0581322 0)
(0.00184498 0.0340741 0)
(0.0115529 -0.115361 0)
(0.096169 -0.328113 0)
(0.237593 -0.513326 0)
(0.43023 -0.671201 0)
(0.662914 -0.807276 0)
(0.929191 -0.924656 0)
(1.22323 -1.022 0)
(1.53845 -1.09552 0)
(1.8673 -1.1417 0)
(2.2016 -1.15886 0)
(2.53311 -1.14773 0)
(2.85399 -1.11066 0)
(3.15717 -1.05101 0)
(3.43653 -0.972335 0)
(3.68679 -0.877996 0)
(3.90352 -0.770977 0)
(4.08319 -0.653866 0)
(4.22297 -0.528881 0)
(4.32075 -0.397997 0)
(4.37444 -0.263055 0)
(4.38324 -0.125612 0)
(4.34645 0.0127496 0)
(4.26416 0.150619 0)
(4.13635 0.286691 0)
(3.96393 0.419643 0)
(3.74772 0.548396 0)
(3.48985 0.671945 0)
(3.19188 0.789361 0)
(2.85581 0.899836 0)
(2.48391 1.00271 0)
(2.07899 1.09743 0)
(1.64362 1.18354 0)
(1.18122 1.26075 0)
(0.694017 1.32883 0)
(0.185797 1.38776 0)
(-0.340498 1.4375 0)
(-0.882182 1.47825 0)
(-1.43593 1.51023 0)
(-1.99879 1.53375 0)
(-2.56786 1.54933 0)
(-3.14057 1.55735 0)
(-3.71447 1.55848 0)
(-4.28699 1.55327 0)
(-4.85597 1.54248 0)
(-5.41943 1.52672 0)
(-5.97598 1.50681 0)
(-6.52375 1.48342 0)
(-7.06153 1.45731 0)
(-7.58867 1.42919 0)
(-8.10416 1.39976 0)
(-8.60726 1.36964 0)
(-9.09805 1.33948 0)
(-9.57587 1.30975 0)
(-10.0414 1.28118 0)
(-10.4941 1.25399 0)
(-10.9347 1.22863 0)
(-11.3637 1.2055 0)
(-11.7814 1.18467 0)
(-12.1888 1.16652 0)
(-12.5861 1.15108 0)
(-12.9747 1.13831 0)
(-13.3549 1.12833 0)
(-13.7274 1.12104 0)
(-14.0942 1.1164 0)
(-14.4536 1.11416 0)
(-14.8079 1.11425 0)
(-15.1589 1.11643 0)
(-15.5045 1.12045 0)
(-15.8473 1.1261 0)
(-16.187 1.13312 0)
(-16.5256 1.14123 0)
(-16.8607 1.15025 0)
(-17.1958 1.15976 0)
(-17.5282 1.16967 0)
(-17.8604 1.17977 0)
(-18.1896 1.18969 0)
(-18.5204 1.19943 0)
(-18.8487 1.20862 0)
(-19.1773 1.21726 0)
(-19.504 1.22509 0)
(-19.832 1.23212 0)
(-20.1568 1.23822 0)
(-20.4812 1.24323 0)
(-20.8059 1.24726 0)
(-21.1262 1.25013 0)
(-21.4496 1.25182 0)
(-21.77 1.25252 0)
(-22.0895 1.25201 0)
(-22.4047 1.25033 0)
(-22.7213 1.2476 0)
(-23.0353 1.24379 0)
(-23.3474 1.23888 0)
(-23.6581 1.23293 0)
(-23.9659 1.22589 0)
(-24.2723 1.21779 0)
(-24.5779 1.2086 0)
(-24.8797 1.19831 0)
(-25.1783 1.18689 0)
(-25.4765 1.17423 0)
(-25.7701 1.16032 0)
(-26.0619 1.14503 0)
(-26.3486 1.12827 0)
(-26.6328 1.10992 0)
(-26.915 1.08985 0)
(-27.1906 1.06789 0)
(-27.4634 1.0439 0)
(-27.7278 1.01769 0)
(-27.9882 0.98907 0)
(-28.2431 0.957866 0)
(-28.4886 0.9239 0)
(-28.7248 0.887005 0)
(-28.9548 0.846893 0)
(-29.1739 0.803405 0)
(-29.3817 0.756484 0)
(-29.5779 0.705832 0)
(-29.7611 0.651418 0)
(-29.9305 0.593102 0)
(-30.0837 0.530722 0)
(-30.2211 0.464328 0)
(-30.3389 0.393729 0)
(-30.4385 0.319071 0)
(-30.5173 0.240276 0)
(-30.5738 0.15749 0)
(-30.609 0.0708622 0)
(-30.6183 -0.0194758 0)
(-30.6026 -0.113357 0)
(-30.5616 -0.210505 0)
(-30.4909 -0.310683 0)
(-30.3924 -0.413422 0)
(-30.2641 -0.518469 0)
(-30.1061 -0.625382 0)
(-29.9161 -0.733687 0)
(-29.6949 -0.842907 0)
(-29.4416 -0.952645 0)
(-29.1557 -1.06221 0)
(-28.8374 -1.17104 0)
(-28.4864 -1.27864 0)
(-28.1034 -1.38449 0)
(-27.6882 -1.48779 0)
(-27.2414 -1.5882 0)
(-26.7641 -1.685 0)
(-26.257 -1.77766 0)
(-25.721 -1.8656 0)
(-25.1576 -1.94837 0)
(-24.5676 -2.02542 0)
(-23.9532 -2.09639 0)
(-23.3155 -2.16066 0)
(-22.6569 -2.21802 0)
(-21.979 -2.26822 0)
(-21.2839 -2.31092 0)
(-20.574 -2.3459 0)
(-19.8509 -2.37299 0)
(-19.1177 -2.39218 0)
(-18.3759 -2.4034 0)
(-17.6289 -2.40674 0)
(-16.8783 -2.40226 0)
(-16.1267 -2.39011 0)
(-15.3765 -2.37054 0)
(-14.6301 -2.34379 0)
(-13.8894 -2.31018 0)
(-13.1572 -2.27009 0)
(-12.435 -2.22391 0)
(-11.7247 -2.1721 0)
(-11.0291 -2.11511 0)
(-10.3489 -2.0535 0)
(-9.68621 -1.9877 0)
(-9.04223 -1.91835 0)
(-8.41852 -1.84591 0)
(-7.81581 -1.77097 0)
(-7.23539 -1.69405 0)
(-6.67784 -1.6157 0)
(-6.144 -1.53641 0)
(-5.63405 -1.45666 0)
(-5.14877 -1.37693 0)
(-4.68783 -1.29762 0)
(-4.25164 -1.21915 0)
(-3.83987 -1.14184 0)
(-3.45255 -1.06592 0)
(-3.08913 -0.991713 0)
(-2.7493 -0.9192 0)
(-2.4328 -0.848561 0)
(-2.13912 -0.779757 0)
(-1.86759 -0.712721 0)
(-1.61796 -0.647313 0)
(-1.38983 -0.583516 0)
(-1.18254 -0.521284 0)
(-0.995379 -0.460953 0)
(-0.827994 -0.402976 0)
(-0.679305 -0.348182 0)
(-0.548236 -0.297753 0)
(-0.433316 -0.252263 0)
(-0.333153 -0.211842 0)
(-0.246118 -0.175149 0)
(-0.171368 -0.139078 0)
(-0.108698 -0.0996573 0)
(-0.0590862 -0.0541532 0)
(-0.0238939 -0.00465416 0)
(-0.00380909 0.03899 0)
(0.0030424 0.0596446 0)
(0.00114031 0.0379603 0)
(0.0131092 -0.163184 0)
(0.108749 -0.450237 0)
(0.267543 -0.693091 0)
(0.482336 -0.896955 0)
(0.739702 -1.07082 0)
(1.03175 -1.21933 0)
(1.35157 -1.3411 0)
(1.69168 -1.43158 0)
(2.04373 -1.48642 0)
(2.39894 -1.5037 0)
(2.74854 -1.48429 0)
(3.08421 -1.43126 0)
(3.39843 -1.34876 0)
(3.68465 -1.24133 0)
(3.93721 -1.11323 0)
(4.15156 -0.968363 0)
(4.32354 -0.809976 0)
(4.45043 -0.641096 0)
(4.52912 -0.464266 0)
(4.5586 -0.28188 0)
(4.53722 -0.0961005 0)
(4.46426 0.0909447 0)
(4.33975 0.277434 0)
(4.16403 0.461494 0)
(3.93796 0.64151 0)
(3.66297 0.815881 0)
(3.34044 0.983259 0)
(2.97248 1.14237 0)
(2.56199 1.29216 0)
(2.111 1.43166 0)
(1.62299 1.56013 0)
(1.10077 1.67696 0)
(0.548235 1.78171 0)
(-0.0321499 1.87406 0)
(-0.636057 1.95392 0)
(-1.26036 2.0213 0)
(-1.90106 2.07637 0)
(-2.55491 2.11941 0)
(-3.21862 2.15092 0)
(-3.88876 2.17145 0)
(-4.56215 2.18161 0)
(-5.23611 2.18214 0)
(-5.90746 2.17393 0)
(-6.57359 2.15785 0)
(-7.23283 2.13493 0)
(-7.88257 2.10595 0)
(-8.52131 2.07209 0)
(-9.14732 2.03419 0)
(-9.75957 1.99329 0)
(-10.3571 1.9503 0)
(-10.9389 1.90612 0)
(-11.5047 1.86154 0)
(-12.054 1.81738 0)
(-12.5867 1.77432 0)
(-13.1036 1.73299 0)
(-13.6035 1.69373 0)
(-14.0882 1.65719 0)
(-14.5578 1.62368 0)
(-15.0137 1.59346 0)
(-15.4547 1.56659 0)
(-15.8831 1.54326 0)
(-16.299 1.52363 0)
(-16.7046 1.50734 0)
(-17.0989 1.49455 0)
(-17.4832 1.48502 0)
(-17.8578 1.47855 0)
(-18.2264 1.47485 0)
(-18.5864 1.47354 0)
(-18.9395 1.47459 0)
(-19.2878 1.47756 0)
(-19.6296 1.48201 0)
(-19.966 1.48776 0)
(-20.2993 1.49456 0)
(-20.628 1.50198 0)
(-20.9522 1.50971 0)
(-21.273 1.51759 0)
(-21.592 1.52532 0)
(-21.9071 1.53285 0)
(-22.2173 1.53967 0)
(-22.5286 1.54587 0)
(-22.8353 1.55121 0)
(-23.1403 1.55566 0)
(-23.4439 1.55909 0)
(-23.7422 1.56143 0)
(-24.0414 1.56268 0)
(-24.3357 1.56274 0)
(-24.6305 1.56179 0)
(-24.9226 1.55959 0)
(-25.2121 1.55623 0)
(-25.5025 1.55181 0)
(-25.7882 1.54628 0)
(-26.0742 1.53964 0)
(-26.3573 1.53201 0)
(-26.641 1.52322 0)
(-26.9218 1.51334 0)
(-27.2011 1.50236 0)
(-27.4805 1.4902 0)
(-27.7579 1.47677 0)
(-28.0333 1.46204 0)
(-28.3074 1.44583 0)
(-28.5817 1.42808 0)
(-28.8538 1.40859 0)
(-29.1242 1.38722 0)
(-29.3903 1.36374 0)
(-29.6556 1.33795 0)
(-29.9152 1.30963 0)