/*--------------------------------*- C++ -*----------------------------------*\
  =========                 |
  \\      /  F ield         | OpenFOAM: The Open Source CFD Toolbox
   \\    /   O peration     | Website:  https://openfoam.org
    \\  /    A nd           | Version:  6
     \\/     M anipulation  |
\*---------------------------------------------------------------------------*/
FoamFile
{
    version     2.0;
    format      ascii;
    class       volVectorField;
    location    "./ITHACAoutput/Offline/1";
    object      U_rec;
}
// * * * * * * * * * * * * * * * * * * * * * * * * * * * * * * * * * * * * * //

dimensions      [0 1 -1 0 0 0 0];

internalField   nonuniform List<vector> 
13046
(
(-0.595329 0.275055 0)
(-0.682967 -0.206242 -6.27133e-21)
(-0.149394 -0.108561 -1.30255e-20)
(-0.535005 0.157171 0)
(-0.132457 -0.0173132 -1.20173e-20)
(-0.55468 -0.216421 0)
(-0.6086 0.192662 1.84581e-21)
(-0.632589 -0.268857 3.16083e-21)
(-0.101208 -0.00516425 -1.30457e-20)
(-1.48519 0.696442 3.42952e-21)
(-1.55854 -0.685889 0)
(0.0881926 -0.0243119 7.77842e-21)
(-0.801233 0.348744 -5.80376e-21)
(-0.853961 -0.317762 -9.43901e-21)
(-0.054764 -0.0713281 6.88906e-21)
(-1.41379 0.780038 -5.11948e-21)
(0.0489465 -0.0349346 1.87235e-20)
(-1.59731 -0.565001 2.89605e-21)
(-0.258126 0.0865634 0)
(-0.376042 -0.180719 -6.67016e-21)
(-0.484416 0.0191881 1.95141e-20)
(-1.43045 0.769453 -1.93625e-21)
(0.0623206 -0.0295194 -2.49926e-20)
(-1.5899 -0.590901 0)
(-0.473748 0.168359 7.68462e-21)
(-0.54331 -0.158336 -1.54794e-20)
(-0.171286 -0.0783825 0)
(-0.819879 0.391097 -1.03266e-20)
(-0.893614 -0.315502 2.78567e-21)
(-0.0619046 -0.0893523 -1.21064e-20)
(-0.616817 0.303575 0)
(-0.718238 -0.188765 0)
(-0.16612 -0.132712 1.32574e-20)
(-0.408009 0.123454 -8.92601e-21)
(-0.202325 -0.0762874 4.5539e-21)
(-0.477933 -0.118058 2.69695e-20)
(-0.392565 0.0930841 -1.38267e-20)
(-0.210915 -0.04856 6.97889e-21)
(-0.438315 -0.113882 -1.38138e-20)
(-0.486537 0.289589 9.34536e-21)
(-0.394689 -0.289505 2.37481e-21)
(-0.71745 -0.0618196 -9.47383e-21)
(-0.352445 0.00327169 6.26845e-21)
(-0.273511 -0.00898448 1.05672e-20)
(-0.331243 -0.0709592 0)
(-0.391657 0.0160785 4.01653e-21)
(-0.246713 0.018401 -1.62699e-20)
(-0.345763 -0.106799 -2.03226e-21)
(-0.626231 0.26943 0)
(-0.6988 -0.236454 -4.46081e-22)
(-0.108749 -0.0838635 -7.99307e-23)
(-0.672588 -0.483766 1.46649e-20)
(-0.413308 0.296659 0)
(-0.866186 0.0509785 -1.10933e-20)
(-0.768216 -0.542636 -2.09147e-20)
(-0.918 0.0902132 -1.75356e-20)
(-0.35923 0.264094 1.39075e-20)
(-1.34448 -0.33052 -1.83677e-21)
(-1.15086 0.736293 0)
(-0.158998 -0.179505 1.05326e-20)
(-1.08356 0.382903 -5.42958e-21)
(-1.08661 -0.552345 5.26047e-21)
(0.00728165 0.0202656 -2.84451e-20)
(0.0829314 -0.031212 1.44555e-20)
(-1.47013 -0.63232 -2.63852e-21)
(-1.40772 0.647623 -7.11585e-21)
(-1.08402 0.72014 0)
(-1.27448 -0.271519 0)
(-0.223966 -0.230914 0)
(-1.02522 0.680562 -3.8254e-21)
(-1.21476 -0.249073 0)
(-0.244944 -0.244605 8.44934e-21)
(-1.40853 -0.346769 0)
(-1.20477 0.769713 1.47482e-22)
(-0.140034 -0.171377 -6.70251e-23)
(-0.28988 0.116539 0)
(-0.370717 -0.200722 7.17122e-21)
(-0.5218 -0.00629697 -1.38787e-20)
(-0.063153 -0.113198 1.14975e-20)
(-1.28134 0.790685 -1.05934e-20)
(-1.48543 -0.419475 0)
(-0.520147 0.185718 4.04365e-21)
(-0.573441 -0.188392 0)
(-0.140632 -0.0552694 0)
(0.0857551 -0.0296317 -1.29039e-20)
(-1.50802 -0.644765 -1.80392e-21)
(-1.44235 0.672862 4.16402e-21)
(-1.45619 0.533731 -7.52402e-21)
(0.071004 -0.00874416 0)
(-1.41242 -0.743301 -2.11056e-21)
(-0.0042131 0.0217877 0)
(-1.54178 0.430211 0)
(-1.3826 -0.867605 2.51451e-22)
(-1.13082 0.535879 0)
(-1.19576 0.550977 4.55346e-21)
(-1.20767 -0.477575 9.93772e-21)
(-1.26277 -0.524726 -4.63371e-21)
(0.0237048 -0.058621 -6.05467e-21)
(0.0458002 -0.0433081 1.56251e-20)
(0.0540878 0.000428635 -7.27795e-22)
(-1.44386 0.502629 7.36466e-21)
(-1.38285 -0.762651 0)
(-0.426459 0.0516643 -3.28239e-23)
(-0.213895 0.0156342 8.39835e-21)
(-0.395039 -0.144485 0)
(-0.241473 0.181302 0)
(-0.826253 0.131414 -5.54359e-21)
(-0.734711 -0.465173 0)
(-0.398655 0.27094 1.59492e-20)
(-0.579554 -0.402435 0)
(-0.777567 0.020903 -2.13848e-20)
(-1.39966 0.675254 0)
(0.0690845 -0.0237994 0)
(-1.4548 -0.681649 -1.8706e-22)
(-0.720895 0.309035 1.60305e-20)
(-0.786802 -0.282278 4.10584e-21)
(-0.0715026 -0.0657041 1.27047e-20)
(-1.21148 0.630873 5.84833e-21)
(-1.14367 0.581837 -1.11229e-20)
(-1.32066 -0.474701 -8.32711e-21)
(0.00959217 -0.0748345 6.97392e-21)
(-1.24064 -0.450399 4.83173e-21)
(0.00351444 -0.0762132 -6.51411e-21)
(-1.47177 0.709856 -2.10382e-21)
(-1.55921 -0.679597 -1.87031e-21)
(0.0840295 -0.021746 -3.4728e-21)
(-0.989157 0.477115 0)
(-1.063 -0.398943 -6.94894e-21)
(-0.0175648 -0.0815591 1.45859e-20)
(-0.548663 0.319624 0)
(-0.334039 -0.256911 -1.19994e-20)
(-0.73918 -0.101988 5.22642e-22)
(-0.0212184 0.0376286 0)
(-1.49108 0.406453 0)
(-1.35186 -0.845176 0)
(-1.31145 0.563042 0)
(-1.34879 -0.61435 -1.19295e-20)
(0.0719108 -0.0239184 -1.6549e-20)
(-0.688998 0.339691 0)
(-0.78293 -0.223012 0)
(-0.146298 -0.13887 0)
(-0.805841 0.241996 0)
(-0.805161 -0.41365 0)
(-0.0756596 0.0454046 0)
(-0.368759 0.25963 0)
(-0.647439 -0.444795 0)
(-0.811755 0.053119 1.15309e-20)
(-0.236435 0.166267 -1.64242e-21)
(-0.789467 0.125265 -1.21297e-20)
(-0.709174 -0.438342 1.33034e-20)
(-1.14137 0.415243 1.21181e-20)
(-1.14137 -0.572049 0)
(0.0278262 0.00557262 3.69126e-20)
(-0.174763 0.0993782 0)
(-0.677751 0.130694 1.32068e-20)
(-0.623389 -0.34608 -3.42525e-21)
(-0.931162 -0.619372 0)
(-1.02327 0.187766 1.23948e-20)
(-1.01098 -0.651825 0)
(-1.08937 0.237356 7.08924e-21)
(-0.230355 0.187497 0)
(-0.169564 0.147708 0)
(-0.833563 0.198499 1.67888e-21)
(-0.793495 -0.454844 6.97394e-21)
(-0.127363 0.0921737 -7.13982e-21)
(-1.51265 0.673383 -3.51316e-21)
(0.091561 -0.0270569 0)
(-1.5294 -0.715936 -3.41227e-21)
(-1.43162 0.691734 -1.52522e-21)
(0.0750266 -0.0203748 -1.59024e-21)
(-1.50965 -0.679116 0)
(-1.33558 0.594683 -6.28188e-21)
(-1.38219 -0.612402 0)
(0.0752155 -0.0294277 1.88075e-20)
(-0.673449 0.4255 0)
(-0.872599 -0.122795 2.9069e-21)
(-0.365771 -0.302838 6.89483e-21)
(-0.785552 0.170611 1.10027e-20)
(-0.160709 0.117292 3.46033e-21)
(-0.738302 -0.422279 0)
(0.0896048 -0.0274325 0)
(-1.50161 -0.761947 0)
(-1.53942 0.616568 2.77214e-21)
(-0.609578 0.383472 0)
(-0.818052 -0.0973473 -6.43168e-21)
(-0.381544 -0.295909 1.80382e-21)
(-0.180637 0.116724 0)
(-0.70304 0.129156 0)
(-0.640988 -0.368186 0)
(-0.744538 0.207125 5.46391e-21)
(-0.743473 -0.379424 0)
(-0.0876143 0.0421408 0)
(-0.93591 -0.384474 -2.31175e-23)
(-0.0179252 -0.0465868 -8.58533e-21)
(-0.932563 0.436892 1.63467e-20)
(-1.00614 -0.375666 0)
(-0.0253279 -0.0752564 -1.8278e-20)
(-1.47497 0.607901 -7.37184e-21)
(0.0892739 -0.0220006 1.16632e-20)
(-1.47761 -0.713939 -9.16186e-21)
(0.00812363 0.0275083 1.05932e-20)
(-1.43965 0.435152 4.81934e-21)
(-1.34309 -0.799185 1.07055e-20)
(-1.52716 0.488793 -1.18794e-20)
(-1.41875 -0.813754 0)
(0.0436156 -0.000204857 -1.0397e-20)
(-0.720638 -0.544333 -7.41022e-22)
(-0.952989 0.0396818 4.87696e-21)
(-0.494622 0.374338 0)
(-0.748925 0.268585 -2.44796e-20)
(-1.26194 0.804726 5.59974e-21)
(-0.0923294 -0.130451 -7.09497e-21)
(-1.48605 -0.40476 0)
(-1.44133 -0.819613 0)
(-1.55123 0.525731 -9.5298e-21)
(0.0579973 -0.0131807 0)
(-0.432515 0.0915824 -2.02073e-20)
(-0.187569 -0.0140991 -6.85364e-21)
(-0.443241 -0.150785 2.02507e-20)
(-0.785974 0.396712 0)
(-0.87534 -0.284321 -4.04363e-22)
(-0.100539 -0.113473 -7.04703e-21)
(-0.0144444 0.0389531 8.12686e-21)
(-1.44777 0.415602 0)
(-1.33241 -0.821007 -1.23442e-20)
(-0.814426 0.305271 1.95327e-20)
(-0.911068 -0.393585 1.69869e-20)
(-0.0192232 -0.0310587 0)
(0.0849827 -0.0308013 0)
(-1.48982 -0.728459 1.75127e-21)
(-1.5028 0.66318 0)
(-0.433113 0.330002 0)
(-0.972002 0.0685958 0)
(-0.778654 -0.583945 0)
(-1.48069 0.478089 1.0413e-20)
(-1.39106 -0.789091 0)
(0.0405083 0.00542585 -5.67394e-23)
(-0.955038 0.218073 4.76327e-21)
(-0.902085 -0.551414 -5.19089e-21)
(-0.140674 0.11929 0)
(-0.98782 0.503976 0)
(-1.07524 -0.379269 6.50977e-21)
(-0.0393509 -0.0974302 1.14909e-20)
(-1.22615 -0.820137 -1.66264e-20)
(-1.35635 0.306507 -9.00093e-21)
(-0.122561 0.115613 6.37199e-21)
(-1.16489 0.25154 0)
(-1.07479 -0.702757 -6.92727e-21)
(-0.167605 0.146818 -2.33876e-22)
(0.0808296 -0.0360696 -1.01681e-20)
(-1.46093 -0.741371 0)
(-1.51181 0.641835 -9.23407e-22)
(-0.50778 0.338814 8.52615e-21)
(-0.512802 -0.376848 -8.67227e-21)
(-0.809253 -0.0321354 9.24596e-22)
(-1.30184 0.715385 1.07129e-21)
(0.0570104 -0.00601047 -1.49327e-20)
(-1.48638 -0.598132 0)
(-0.212898 0.0553567 -4.00903e-21)
(-0.485196 0.051791 -1.57711e-20)
(-0.419781 -0.191898 2.00121e-20)
(-0.978035 0.279723 5.4989e-21)
(-0.925161 0.231068 1.75629e-23)
(-0.952595 -0.532314 -1.27534e-20)
(-0.883807 -0.521185 0)
(-0.115686 0.0983089 6.49084e-21)
(-0.0622354 0.0649033 -6.70244e-21)
(-0.0343835 -0.0904434 -1.50483e-20)
(-1.32016 0.79864 5.76497e-21)
(-1.53625 -0.444021 -7.88746e-21)
(-0.927564 0.487998 0)
(-1.02421 -0.331577 0)
(-0.0826872 -0.121276 -1.50837e-20)
(-1.23892 0.293087 -2.4377e-21)
(-1.14002 -0.743828 0)
(-0.127657 0.120481 0)
(-1.2687 0.604196 -5.57272e-21)
(-1.34202 -0.540952 0)
(0.0527161 -0.0469958 6.83158e-21)
(-0.326333 0.0230324 4.19809e-21)
(-0.355707 -0.0519476 6.16082e-21)
(-0.275596 -0.0378788 -2.09754e-21)
(-1.06322 0.257043 -9.02993e-21)
(-1.0047 -0.619708 0)
(-0.123448 0.116545 -1.09965e-20)
(-0.944825 0.516995 0)
(-1.05476 -0.322537 8.09678e-21)
(-0.100321 -0.137263 -9.62803e-21)
(-0.855933 0.346551 0)
(-0.925492 0.381104 1.91766e-21)
(-0.52812 0.359001 3.05742e-21)
(-0.53477 -0.400133 2.50858e-20)
(-0.837975 -0.0250971 -2.20594e-20)
(-1.12186 0.299442 -9.11111e-21)
(-1.06332 -0.642717 1.0612e-20)
(-0.0776841 0.0866347 1.00305e-20)
(-1.31226 0.614512 0)
(0.0660641 -0.0390601 -2.42012e-20)
(-1.38708 -0.576126 -5.59005e-21)
(-0.394462 0.250778 -2.20742e-20)
(-0.53548 -0.374012 0)
(-0.742988 0.0186748 7.23279e-21)
(-0.266424 0.216137 -1.28396e-20)
(-1.04529 0.173536 -7.12456e-21)
(-0.937946 -0.649198 0)
(-1.12134 0.625807 -5.69163e-21)
(-1.25021 -0.387002 -6.7623e-21)
(-0.0614771 -0.117644 4.31759e-21)
(-0.471481 0.336891 1.10278e-21)
(-0.634086 -0.465422 0)
(-0.871332 0.026382 1.53818e-20)
(-1.17771 0.661991 0)
(-1.21682 0.667198 0)
(-1.3178 -0.415871 -4.1618e-21)
(-0.045453 -0.108359 -1.12281e-20)
(-1.34943 -0.457042 5.88441e-21)
(-0.01265 -0.0865969 1.19171e-20)
(0.0926218 -0.0259647 -8.98425e-21)
(-1.50712 -0.735466 0)
(-1.51863 0.637165 -4.66322e-21)
(-1.08046 0.561565 6.65246e-21)
(-1.17917 -0.413343 0)
(-0.0247277 -0.0924747 3.90394e-21)
(-1.30747 -0.642021 -1.65288e-21)
(0.04637 -0.0225166 1.30155e-20)
(-1.25092 0.643527 -7.60129e-22)
(-0.597491 0.0822934 -7.31033e-21)
(-0.208111 0.10122 0)
(-0.524616 -0.284391 0)
(-1.0036 0.355878 1.2891e-20)
(-1.0163 -0.501153 0)
(-0.000648801 0.0120875 2.19674e-20)
(0.0865215 -0.0228677 -7.44805e-21)
(-1.42893 0.600314 1.53892e-20)
(-1.44485 -0.679864 7.42616e-21)
(-0.804659 -0.573687 0)
(-0.952965 0.0976087 6.41796e-21)
(-0.360102 0.280381 -1.57595e-20)
(-1.26436 -0.825773 -1.95677e-20)
(-1.3937 0.345333 -5.32255e-21)
(-0.0794375 0.0825251 0)
(-0.808643 -0.346265 -1.75158e-20)
(-0.0451306 -0.021689 0)
(-1.05779 0.432752 1.36051e-20)
(-1.08066 -0.484106 5.89622e-21)
(0.0248652 -0.0285403 6.70139e-21)
(-0.79577 -0.367706 1.02018e-20)
(-0.0475292 -0.00226525 -2.90433e-23)
(-1.39791 0.767737 -3.5158e-22)
(0.0400491 -0.0442004 8.85915e-21)
(-1.57103 -0.544614 -4.26009e-21)
(-0.701821 -0.557774 0)
(-0.982093 0.0185352 1.51826e-21)
(-0.553259 0.418503 0)
(-1.11769 0.464113 -1.38745e-20)
(-1.15669 -0.51627 -7.1852e-21)
(0.0386532 -0.0235462 -8.08499e-21)
(-0.832316 0.235585 0)
(-0.814876 -0.443406 -1.0128e-20)
(-0.0888237 0.0627099 0)
(-0.831752 0.0998109 0)
(-0.705504 -0.476763 0)
(-0.304226 0.215601 0)
(-0.593149 0.231242 -5.59676e-21)
(-0.645219 -0.226065 -9.80536e-21)
(-0.11434 -0.0639032 1.88573e-23)
(-0.315576 0.252511 1.59198e-20)
(-1.01351 0.140026 1.71561e-20)
(-0.887705 -0.625324 1.01958e-20)
(-1.50041 0.5675 -5.87302e-21)
(-1.45348 -0.748098 7.68207e-21)
(0.0816155 -0.0173588 -1.09913e-20)
(-1.27486 -0.801825 1.33452e-20)
(-1.37974 0.366359 5.39643e-21)
(-0.0509789 0.0667647 8.20443e-21)
(-0.899083 0.610988 -1.1907e-20)
(-0.340744 -0.305697 1.27253e-20)
(-1.10739 -0.183071 -9.51623e-21)
(-1.25175 0.739122 3.15633e-21)
(-1.20517 0.709765 -3.00006e-21)
(-1.36733 -0.400129 -1.31847e-21)
(-1.42322 -0.420893 0)
(-0.0531103 -0.109175 -4.08313e-21)
(-0.0704394 -0.123496 -3.64412e-21)
(0.0525469 -0.0168452 -1.7632e-20)
(-1.36362 -0.628813 1.82131e-21)
(-1.27385 0.654759 9.30437e-22)
(-1.3263 0.730262 -1.04956e-22)
(0.0603531 -0.0043802 2.06597e-20)
(-1.52563 -0.59586 0)
(-1.05009 0.312274 -2.06131e-20)
(-1.02825 -0.569859 -2.77106e-21)
(-0.0480986 0.0616337 0)
(0.0919969 -0.0242588 -2.24613e-20)
(-1.49213 0.630053 4.6426e-21)
(-1.50147 -0.710598 0)
(-1.02871 0.640817 1.68675e-20)
(-1.0863 0.66131 -1.25411e-20)
(-1.19174 -0.295633 7.33758e-21)
(-1.2417 -0.328793 2.76682e-21)
(-0.182216 -0.196369 -7.22157e-21)
(-0.137264 -0.165525 -3.61434e-21)
(0.057191 -0.0281701 0)
(-1.43382 -0.842799 0)
(-1.60415 0.513227 1.4783e-21)
(-1.21882 0.704289 -1.25705e-21)
(0.0498985 -0.0013769 0)
(-1.44817 -0.571569 0)
(-0.444617 -0.0293243 -2.01531e-23)
(-0.299871 0.0834011 8.92357e-21)
(-0.300067 -0.128578 4.44341e-21)
(-1.33016 0.681039 -1.14727e-21)
(-1.44584 -0.649813 2.73537e-22)
(0.0607226 -0.0161927 9.68263e-22)
(-0.756812 0.458772 0)
(-0.915747 -0.177525 -1.32035e-20)
(-0.281584 -0.249962 -8.38212e-23)
(-1.54407 0.599574 2.15087e-22)
(-1.48675 -0.777784 9.48245e-21)
(0.0856085 -0.0257894 1.87729e-23)
(-1.15941 -0.65318 -3.69215e-23)
(0.0389832 -0.0376541 -7.49595e-21)
(-1.21689 0.547199 1.11414e-21)
(-0.419622 0.244699 -8.09938e-21)
(-0.408103 -0.278307 7.73455e-21)
(-0.668931 -0.0341444 2.32535e-20)
(-0.530703 0.0915734 0)
(-0.493925 -0.230107 -2.22087e-20)
(-0.176743 0.0483285 1.10365e-20)
(-1.45078 0.734918 0)
(0.0787216 -0.0185757 1.03665e-20)
(-1.57207 -0.659813 -1.98115e-22)
(-0.571616 0.10775 0)
(-0.532111 -0.25945 -7.69768e-21)
(-0.166327 0.0661789 -1.56421e-20)
(-0.411277 -0.0247523 9.2924e-21)
(-0.290969 0.0566237 -4.7186e-21)
(-0.298863 -0.103888 2.35766e-21)
(-0.412292 0.323793 7.64315e-21)
(-1.03201 0.097197 -5.95689e-21)
(-0.860073 -0.647844 1.12184e-20)
(-0.549498 0.0171643 0)
(-0.415516 -0.226468 0)
(-0.271757 0.134481 1.29985e-21)
(-0.591307 0.0607166 1.15704e-20)
(-0.487086 -0.266477 5.87292e-21)
(-0.245735 0.129852 1.83488e-22)
(-0.837724 0.576002 1.81209e-20)
(-1.05354 -0.150429 -9.74488e-21)
(-0.39488 -0.347112 -1.25673e-20)
(0.0814558 -0.0258968 1.57259e-20)
(0.0873342 -0.025417 -1.59468e-20)
(-1.57177 -0.649205 2.43604e-21)
(-1.55801 -0.669373 1.80924e-21)
(-1.4615 0.728872 0)
(-1.47741 0.714458 -3.512e-21)
(-1.52926 0.56782 7.38961e-21)
(-1.46856 -0.76814 -6.22667e-21)
(0.0811345 -0.0192891 1.36371e-20)
(-0.327399 -0.306392 -8.12631e-21)
(-0.95784 0.662886 3.68132e-21)
(-1.16678 -0.198514 1.21255e-20)
(-0.539143 0.343806 -7.78527e-21)
(-0.442354 -0.331757 -7.93529e-21)
(-0.791756 -0.0607191 7.16191e-21)
(-1.17994 0.219408 0)
(-1.06465 -0.732675 7.16987e-21)
(-0.22269 0.184643 2.41742e-22)
(-1.26593 -0.731738 1.06221e-21)
(0.0591308 -0.0532573 -6.95124e-21)
(-1.4251 0.554017 1.0585e-23)
(0.0202644 0.00629932 0)
(-1.55581 0.461751 0)
(-1.39999 -0.86054 4.38479e-21)
(-1.46591 0.684145 2.20227e-21)
(0.0817906 -0.0250314 0)
(-1.52045 -0.70209 -1.71973e-21)
(0.0312831 -0.0315308 -2.795e-32)
(-1.09575 -0.621193 1.6174e-21)
(-1.13055 0.532071 -1.48934e-21)
(-1.15168 -0.552434 -1.84603e-21)
(0.0294652 -0.0174166 2.78826e-32)
(-1.07542 0.599834 1.29714e-21)
(-1.18141 -0.653619 -1.41898e-20)
(-1.21564 0.390839 0)
(-0.00247322 0.0380591 -2.12993e-20)
(-1.39717 -0.814629 -9.61879e-22)
(0.0660967 -0.0480956 -7.09356e-21)
(-1.59453 0.53952 0)
(-1.34491 0.55339 -8.21322e-21)
(-1.3586 -0.649087 7.32308e-21)
(0.0738286 -0.0172951 1.10379e-20)
(-1.39324 0.809474 9.5062e-21)
(0.0409429 -0.0224057 6.30707e-21)
(-1.64261 -0.540676 0)
(-0.708196 0.276697 4.33984e-21)
(-0.0627628 -0.0360684 -4.34826e-21)
(-0.769454 -0.31044 4.25892e-21)
(-1.42965 -0.852835 2.1482e-21)
(0.0475951 -0.0181926 7.52548e-21)
(-1.59345 0.497934 2.01765e-21)
(-1.13052 0.193082 -6.86476e-21)
(-0.260202 0.213615 -4.33797e-21)
(-1.01545 -0.705803 0)
(-1.16262 -0.735346 0)
(-1.24915 0.320092 0)
(-0.087388 0.0959126 0)
(0.00838194 -0.0145235 0)
(-0.675375 -0.350428 2.92781e-21)
(-0.659096 0.337585 -2.58177e-21)
(-1.29355 -0.67119 -9.78342e-23)
(0.0495303 -0.030778 -9.05326e-21)
(-1.2879 0.623456 -2.00803e-22)
(-0.640124 0.235738 -1.11202e-20)
(-0.0862041 -0.034941 1.04191e-20)
(-0.689085 -0.274876 4.99629e-21)
(-1.46066 -0.805721 7.1548e-21)
(-1.58436 0.564704 -2.71401e-21)
(0.0750378 -0.0313966 0)
(0.0554477 -0.0347208 -7.85823e-21)
(-1.6196 0.511727 0)
(-1.41415 -0.851195 -5.38616e-21)
(-1.47105 0.665707 -4.2971e-21)
(0.0907435 -0.0266824 2.40835e-20)
(-1.51971 -0.675241 0)
(0.00792359 -0.0659532 -1.81614e-20)
(-1.52593 -0.497463 5.44742e-21)
(-1.34653 0.766632 0)
(-0.806745 0.581435 -2.28515e-20)
(-1.05249 -0.124457 1.24098e-20)
(-0.462902 -0.399097 -3.99331e-21)
(-1.32528 -0.361107 1.95318e-21)
(-1.1538 0.711846 7.20114e-21)
(-0.122525 -0.157483 -1.12422e-20)
(0.00430503 -0.0593346 -1.62366e-20)
(-1.36773 0.812837 0)
(-1.59963 -0.493974 0)
(-0.802419 0.451832 -3.8168e-21)
(-0.87766 0.496149 0)
(-0.92455 -0.235603 -1.38075e-20)
(-1.00399 -0.271916 1.47767e-20)
(-0.184453 -0.178443 1.99283e-21)
(-0.156398 -0.170513 -2.1235e-21)
(-0.745291 0.43578 3.66128e-21)
(-0.88963 -0.195148 0)
(-0.241344 -0.215873 3.79142e-21)
(-1.01121 0.656378 0)
(-1.18899 -0.272202 -1.18507e-20)
(-0.222683 -0.225245 2.60716e-21)
(-1.23681 -0.769288 -6.84172e-21)
(-1.33188 0.354973 5.86603e-21)
(-0.0533779 0.0691728 -1.67596e-20)
(-1.45212 -0.808111 0)
(-1.54376 0.551054 1.05086e-20)
(0.0705803 -0.0186673 0)
(0.00147232 0.0335455 -5.44982e-21)
(-1.37548 0.418074 -3.42883e-21)
(-1.3013 -0.763277 -4.39515e-21)
(-1.22278 -0.558551 2.92751e-22)
(0.0350448 -0.0133625 4.84605e-21)
(-1.12442 0.626849 0)
(-0.517095 0.279051 7.47401e-21)
(-0.525396 0.267334 0)
(-0.280464 -0.202705 0)
(-0.679882 -0.110197 2.81596e-20)
(-0.238834 -0.172614 0)
(-0.665247 -0.136119 -1.79651e-20)
(-0.90105 0.581754 0)
(-0.818507 0.528527 0)
(-0.309369 -0.276639 2.59259e-23)
(-1.07587 -0.220392 7.80306e-21)
(-0.271337 -0.249709 1.9173e-20)
(-1.00241 -0.184838 -1.67129e-20)
(-1.1278 -0.675994 0)
(0.0432644 -0.0472101 1.01892e-20)
(-1.27492 0.533253 0)
(-1.46432 -0.795689 -4.80673e-21)
(-1.57217 0.570336 9.9964e-22)
(0.0781351 -0.0277907 4.78165e-21)
(-0.594284 0.399863 -1.31772e-20)
(-0.510982 -0.399463 -8.94617e-21)
(-0.87347 -0.0524752 2.27728e-20)
(-1.17213 -0.784641 1.49438e-20)
(-1.28982 0.281853 1.52099e-20)
(-0.145764 0.134347 0)
(-0.0108026 -0.0797469 1.94206e-20)
(-1.5013 -0.475847 -5.79139e-21)
(-1.32199 0.764816 7.29339e-21)
(-1.40419 -0.709638 0)
(-1.42952 0.638698 0)
(0.0677282 -0.0341648 0)
(-1.42012 -0.735335 0)
(-1.46994 0.624331 1.5586e-21)
(0.0737949 -0.0396682 1.72749e-21)
(-1.07904 0.633709 -7.06075e-21)
(-1.22036 -0.353454 4.19511e-21)
(-0.105251 -0.144706 5.34551e-21)
(-0.350159 0.221791 -2.10767e-21)
(-0.545576 -0.360114 0)
(-0.715893 0.0409654 -1.38283e-22)
(-1.48511 0.682217 5.00686e-21)
(0.0909911 -0.0260408 1.39366e-20)
(-1.54329 -0.680797 -2.10575e-21)
(-1.21283 -0.693681 0)
(-1.26156 0.39512 0)
(-0.00656174 0.045434 1.83668e-20)
(0.0691276 -0.0393731 4.62016e-21)
(-1.44283 -0.591422 9.39622e-21)
(-1.36001 0.659898 1.61395e-20)
(-0.774923 0.510756 0)
(-0.360083 -0.310943 -1.29436e-20)
(-0.972765 -0.157009 8.64205e-21)
(-0.915075 0.182527 1.54e-22)
(-0.839966 -0.526837 7.61195e-21)
(-0.196126 0.153038 0)
(-0.477832 0.295309 8.71917e-23)
(-0.446209 -0.32518 -2.63474e-21)
(-0.743658 -0.0415805 -9.38188e-21)
(0.0928807 -0.0262519 -1.35094e-23)
(-1.53016 -0.716819 4.5864e-21)
(-1.50897 0.661987 4.723e-21)
(-1.26599 0.642036 -3.12407e-21)
(-1.36898 -0.517287 -3.0573e-21)
(0.0347895 -0.0592073 0)
(-0.42742 0.236683 -8.10532e-21)
(-0.355694 -0.238762 1.68734e-20)
(-0.643841 -0.0558919 -1.53539e-20)
(-1.37829 0.824337 4.11934e-21)
(0.0147582 -0.0460414 7.17407e-21)
(-1.63062 -0.50654 -2.82472e-21)
(-0.687584 0.366076 -4.68044e-21)
(-0.802925 -0.20711 0)
(-0.183527 -0.167482 0)
(-0.692483 0.170782 -2.04433e-20)
(-0.666718 -0.346229 4.72538e-21)
(-0.124712 0.0675999 0)
(-1.14139 -0.690163 0)
(-1.20207 0.322864 1.30352e-20)
(-0.0661155 0.0845596 0)
(-1.36508 0.766271 -1.55605e-21)
(0.0594559 -0.00609652 -2.212e-21)
(-1.59934 -0.586109 8.18039e-22)
(-1.36226 0.785991 4.41077e-21)
(0.0526302 -0.00716977 0)
(-1.62087 -0.562885 -1.77422e-21)
(0.0586781 -0.0450695 4.14323e-21)
(-1.46429 -0.56981 -5.19206e-21)
(-1.3595 0.684009 -1.4897e-20)
(-0.948172 0.162816 -6.15048e-21)
(-0.867235 -0.571135 -7.63765e-21)
(-0.241561 0.18288 0)
(0.0556427 -0.000216179 2.02634e-21)
(-1.56153 -0.578981 -7.72951e-22)
(-1.30239 0.746718 0)
(0.0795587 -0.0171278 0)
(-1.40246 -0.681205 -5.45358e-21)
(-1.40168 0.567086 -1.8404e-21)
(0.0236651 -0.0326645 8.21674e-21)
(-0.936848 -0.584095 -1.29815e-21)
(-1.02205 0.454896 0)
(-0.915519 0.563202 1.01538e-21)
(-1.04277 -0.472622 0)
(0.0207003 -0.0112094 8.23213e-21)
(0.0160686 -0.0559471 -9.42738e-24)
(-1.57275 -0.51392 0)
(-1.37015 0.792369 0)
(0.0895909 -0.0298306 0)
(-1.51292 -0.737898 0)
(-1.52584 0.655342 5.20493e-21)
(-1.44564 0.728002 -4.61485e-21)
(-1.42721 0.711347 3.73303e-21)
(0.0746053 -0.0304337 -7.89779e-21)
(-1.56723 -0.613907 -8.73462e-22)
(0.074516 -0.0334722 -1.28976e-20)
(-1.53633 -0.610998 1.87856e-21)
(-1.40516 0.53821 3.69353e-21)
(-1.38786 -0.705272 3.73637e-21)
(0.0721479 -0.0104946 0)
(-0.207178 0.178972 0)
(-1.11798 -0.779224 0)
(-1.2484 0.240754 0)
(-0.496163 0.219599 0)
(-0.197752 -0.125078 -2.32622e-20)
(-0.603045 -0.146014 9.87844e-21)
(-1.36447 0.463512 1.09724e-20)
(-1.31783 -0.725541 1.47946e-21)
(0.03805 0.0132247 1.60631e-20)
(0.015097 0.0279705 1.04141e-20)
(-1.34326 0.434929 -1.52746e-20)
(-1.28353 -0.731276 -2.05009e-21)
(-1.3417 0.82691 5.38435e-21)
(-0.0264905 -0.0799228 7.76725e-21)
(-1.58404 -0.454562 8.22848e-21)
(-0.928872 0.608873 0)
(-1.11431 -0.223823 3.52352e-21)
(-0.277661 -0.259246 -1.87951e-20)
(-0.816736 0.500959 0)
(-0.971426 -0.19952 1.73363e-20)
(-0.266447 -0.2464 -4.25345e-23)
(-1.2135 0.440655 -1.53987e-20)
(-1.21064 -0.623442 1.94006e-21)
(0.0367078 0.00782291 -9.33405e-21)
(-1.24684 0.434536 0)
(-1.22568 -0.651088 1.83019e-21)
(0.0282857 0.0162335 8.51033e-21)
(-0.379451 0.199628 0)
(-0.355996 -0.222996 -2.66743e-20)
(-0.59736 -0.0395509 8.66151e-21)
(-0.902605 0.524839 0)
(-1.03279 -0.270204 0)
(-0.167794 -0.184357 2.86161e-21)
(0.030584 -0.00948384 -1.6271e-20)
(-1.40673 -0.86981 -1.19927e-20)
(-1.59843 0.474859 0)
(-1.49989 0.598457 1.03608e-21)
(0.0708971 -0.0467696 0)
(-1.36951 -0.75555 9.38269e-22)
(-1.4855 0.56306 -5.04463e-22)
(0.0651806 -0.0525963 0)
(-1.32461 -0.753099 -2.36731e-21)
(-0.61354 0.367184 5.50175e-21)
(-0.326666 -0.255641 -2.81415e-21)
(-0.793778 -0.126343 -2.47417e-22)
(-1.32976 -0.693039 4.09069e-22)
(0.0592667 -0.0377417 1.38534e-20)
(-1.38531 0.613707 0)
(-1.3169 0.68214 1.31419e-20)
(0.0391944 -0.0559414 8.81488e-21)
(-1.43046 -0.532491 0)
(0.0549681 -0.0471557 -2.05246e-21)
(-1.25964 -0.714581 -3.46372e-22)
(-1.37531 0.568224 0)
(-0.505866 0.125832 1.40452e-20)
(-0.156088 0.00526517 1.40757e-20)
(-0.507524 -0.200767 3.5583e-23)
(-0.966238 0.424348 -2.39181e-21)
(-1.02419 -0.418578 -2.21998e-21)
(-0.00225217 -0.0511876 -9.85695e-21)
(-0.792399 -0.53871 1.73999e-20)
(-0.90668 0.126177 1.49102e-20)
(-0.296399 0.217724 0)
(0.0676634 -0.0417488 0)
(-1.41977 -0.819689 -1.47476e-21)
(-1.5997 0.545525 0)
(-1.19145 -0.710081 0)
(-1.2589 0.369802 0)
(-0.0316218 0.0608206 0)
(0.0364018 -0.0331306 0)
(-1.40002 0.806317 -3.32511e-21)
(-1.63262 -0.536518 2.77842e-21)
(-1.04153 0.458382 0)
(-1.08794 -0.459717 1.13619e-21)
(0.016806 -0.0434602 9.63265e-21)
(-0.461961 0.191686 0)
(-0.200715 -0.11213 1.99851e-20)
(-0.562973 -0.134472 0)
(-1.45621 -0.803073 -6.75505e-21)
(-1.57491 0.581884 2.58375e-21)
(0.0774094 -0.0377513 0)
(0.0846553 -0.0274341 -9.60668e-21)
(-1.4397 -0.653194 3.44519e-22)
(-1.4001 0.62234 4.55018e-22)
(-1.41493 0.734723 0)
(-1.39273 0.727644 2.13364e-21)
(0.0716698 -0.0128109 -5.10624e-21)
(0.06977 -0.0124496 -6.27152e-21)
(-1.56653 -0.63043 -8.25337e-22)
(-1.54329 -0.638347 6.79065e-22)
(-0.930246 0.289437 0)
(-0.918847 -0.496761 2.98332e-20)
(-0.052897 0.0478924 1.04786e-20)
(-1.11699 -0.616127 1.99215e-20)
(-1.15033 0.355666 0)
(-0.0176554 0.0465017 -1.13138e-20)
(-0.641474 0.188633 -1.15296e-20)
(-0.651649 -0.298526 8.10589e-21)
(-0.0945039 0.0179178 1.70087e-20)
(-1.40736 -0.782683 2.99733e-21)
(-1.5473 0.587798 1.72381e-21)
(-1.3855 -0.797093 -1.28187e-21)
(0.0740416 -0.0459932 0)
(-1.56316 0.560231 -1.66018e-21)
(0.068592 -0.049822 0)
(-1.19228 0.525797 0)
(-1.23683 -0.545344 0)
(0.0505457 -0.0322223 1.05655e-20)
(-1.56194 0.600898 3.57223e-21)
(-1.55026 0.602427 -6.33422e-21)
(-1.47098 -0.781883 1.95977e-21)
(-1.45048 -0.772886 -5.71954e-21)
(0.0820211 -0.0373138 1.40053e-20)
(0.0796517 -0.0401715 -4.11888e-24)
(-1.09848 0.329984 0)
(-1.06837 -0.613355 -1.88679e-20)
(-0.0530806 0.070807 1.46762e-20)
(-0.864188 0.319676 1.06493e-20)
(-0.947391 -0.431515 -1.34673e-20)
(-0.00643801 -0.0144039 0)
(-1.39962 0.793763 0)
(0.053174 -0.016189 0)
(-1.63004 -0.569465 1.70633e-21)
(-0.946391 0.320235 7.83882e-21)
(-0.946406 -0.481634 -8.29897e-21)
(-0.0266022 0.027228 -1.73565e-20)
(-0.719479 0.230431 4.60214e-21)
(-0.737456 -0.348075 -9.51811e-21)
(-0.0676422 0.0123169 9.76976e-21)
(-1.3928 0.754051 0)
(0.0667479 -0.010587 0)
(-1.59651 -0.611663 -2.45593e-21)
(-1.06538 0.491684 0)
(-1.13548 -0.447327 2.27615e-21)
(0.0157661 -0.0584338 -1.05638e-20)
(-0.993525 -0.714924 0)
(-1.12231 0.169979 0)
(-0.310392 0.251839 -5.57178e-22)
(-0.778946 0.528722 -5.8947e-22)
(-0.991953 -0.138828 0)
(-0.396762 -0.341721 1.98182e-20)
(-1.31382 -0.860812 7.50396e-21)
(-0.0601163 0.0638781 0)
(-1.46295 0.37043 0)
(0.0162537 -0.0193421 -1.9774e-20)
(-0.890925 -0.468612 -4.09536e-21)
(-0.870235 0.451145 3.61273e-21)
(-0.996205 0.382216 0)
(-1.00935 -0.468227 8.24222e-21)
(0.00847154 -0.0110793 -8.84402e-21)
(-1.4335 0.767434 6.69741e-21)
(0.0659744 -0.0231343 2.66596e-20)
(-1.60841 -0.595217 0)
(-0.582625 -0.477259 -5.29116e-21)
(-1.00032 -0.0537726 -8.24696e-21)
(-0.678573 0.498718 -5.17857e-21)
(-1.08275 0.646459 0)
(0.0371489 -0.00436106 -7.36292e-21)
(-1.29364 -0.545384 0)
(-0.245993 0.152231 1.04462e-20)
(-0.277052 0.179571 -1.06715e-20)
(-0.578302 -0.352558 0)
(-0.685988 0.0839778 9.82233e-21)
(-0.615791 -0.391439 -1.71324e-20)
(-0.731748 0.0779232 -7.84288e-21)
(-0.626546 0.155882 1.0856e-20)
(-0.608475 -0.293827 1.08121e-20)
(-0.126161 0.0480967 0)
(-0.360361 0.215251 9.3026e-21)
(-0.295747 0.176941 0)
(-0.468835 -0.307187 -9.57688e-21)
(-0.665547 0.00482603 8.79709e-21)
(-0.494305 -0.305315 9.65153e-21)
(-0.645135 0.0367472 5.25158e-23)
(-0.936494 0.360149 6.68644e-22)
(-0.880489 -0.416416 -5.93497e-21)
(-0.0278282 0.00305541 -1.195e-20)
(-0.867379 0.300505 -1.83008e-20)
(-0.883298 -0.433508 1.55428e-22)
(-0.037376 0.0198051 0)
(0.0639045 -0.0557126 0)
(-1.32308 -0.78257 0)
(-1.53318 0.546197 5.86786e-22)
(-0.675515 0.391091 -5.07253e-21)
(-0.824255 -0.163209 0)
(-0.263128 -0.220395 5.20385e-21)
(-1.54472 0.625154 -8.62371e-21)
(-1.49812 -0.764786 2.98425e-21)
(0.0884507 -0.031313 -7.99256e-21)
(-1.25093 0.486096 0)
(-1.30873 0.512307 7.89245e-21)
(-1.26184 -0.618023 -2.42007e-21)
(-1.31381 -0.644931 7.18959e-21)
(0.0555966 -0.00600664 -1.15699e-20)
(0.0644285 -0.00869895 -1.06515e-20)
(-0.646305 0.357005 0)
(-0.783691 -0.173077 0)
(-0.231509 -0.195947 2.49211e-21)
(-0.981315 0.597951 5.73206e-21)
(-1.12809 -0.282531 0)
(-0.182455 -0.193828 6.21817e-21)
(-1.13789 0.45494 -4.36096e-21)
(-1.16229 -0.553532 0)
(0.0405884 -0.0105155 0)
(-0.356425 0.114992 1.07786e-20)
(-0.472218 -0.0739041 -5.3351e-21)
(-0.250627 -0.112941 5.4363e-21)
(-1.32289 0.473397 0)
(-1.29797 -0.688069 0)
(0.0454398 0.00751305 -1.70867e-20)
(-0.463575 0.220584 0)
(-0.248569 -0.161413 2.9307e-21)
(-0.603987 -0.110503 0)
(-1.10052 0.357582 -1.01656e-20)
(-1.07639 -0.58983 -1.05906e-20)
(-0.0151804 0.0388013 -1.47516e-21)
(-0.972179 0.567962 5.83306e-21)
(-1.10598 -0.301453 0)
(-0.144963 -0.17148 1.28455e-20)
(-0.382533 0.149275 -1.06837e-20)
(-0.360007 0.150146 -4.72128e-21)
(-0.514686 -0.0863478 5.25368e-21)
(-0.251644 -0.133616 -1.07729e-20)
(-0.528477 -0.0614398 0)
(-0.292596 -0.165257 -1.916e-20)
(-0.323317 0.16784 -4.70119e-21)
(-0.397622 -0.241824 1.24779e-20)
(-0.292553 0.161892 3.02066e-21)
(-0.584371 -0.00549717 -1.19543e-20)
(-0.474115 -0.286704 -6.06984e-21)
(-0.618341 0.0306103 2.82931e-22)
(-0.775391 0.419919 5.55101e-21)
(-0.84009 0.439597 0)
(-0.88835 -0.245052 1.04002e-20)
(-0.935387 -0.286934 -8.12687e-21)
(-0.155513 -0.156181 -1.15839e-20)
(-0.108281 -0.127394 1.92587e-20)
(0.0273777 -0.057993 0)
(-1.49898 -0.522432 -3.09899e-21)
(-1.34969 0.735233 -7.31886e-21)
(-0.345887 0.27539 6.79437e-21)
(-1.05547 0.136464 9.40012e-21)
(-0.918848 -0.666504 -1.77403e-20)
(0.0452699 -0.0463378 -9.0479e-21)
(0.0606051 -0.0411442 7.22347e-21)
(-1.53042 -0.556631 2.68357e-21)
(-1.5131 -0.578935 4.75175e-21)
(-1.3831 0.743262 1.839e-20)
(-1.39457 0.718135 -9.5051e-21)
(-0.506879 0.369257 9.61584e-21)
(-0.653564 -0.491046 -8.50348e-21)
(-0.906254 0.0152053 2.27232e-21)
(-0.338038 0.0571574 1.83509e-20)
(-0.253377 -0.0589416 0)
(-0.395503 -0.0674253 -1.82763e-20)
(-1.34854 0.507181 -3.66872e-21)
(-1.33326 -0.683188 -8.12525e-21)
(0.0610548 -0.00309616 0)
(-0.570504 0.312211 0)
(-0.273667 -0.216747 -2.37419e-21)
(-0.72557 -0.128275 -9.12764e-21)
(-1.01427 0.582998 0)
(-1.14386 -0.328692 0)
(-0.115317 -0.151157 -1.19494e-20)
(-1.28283 0.73237 -8.31185e-21)
(-1.27538 0.704122 0)
(-1.44333 -0.466125 1.85919e-21)
(-0.0178535 -0.0871809 -1.1184e-20)
(-1.41764 -0.476918 -5.05862e-21)
(-0.00177747 -0.0790843 1.51518e-20)
(-1.24431 0.528982 8.11901e-21)
(-1.28288 -0.578264 7.80275e-21)