/*--------------------------------*- C++ -*----------------------------------*\
  =========                 |
  \\      /  F ield         | OpenFOAM: The Open Source CFD Toolbox
   \\    /   O peration     | Website:  https://openfoam.org
    \\  /    A nd           | Version:  6
     \\/     M anipulation  |
\*---------------------------------------------------------------------------*/
FoamFile
{
    version     2.0;
    format      ascii;
    class       volVectorField;
    location    "0";
    object      uRec;
}
// * * * * * * * * * * * * * * * * * * * * * * * * * * * * * * * * * * * * * //

dimensions      [0 1 -1 0 0 0 0];

internalField   nonuniform List<vector> 
10000
(
(1.20421e-05 1.43121e-05 0)
(6.48226e-05 -8.95445e-07 0)
(0.000157117 -1.43414e-05 0)
(0.000303166 -2.3903e-05 0)
(0.000492428 -3.0858e-05 0)
(0.000713742 -3.55263e-05 0)
(0.000955071 -3.77178e-05 0)
(0.00120348 -3.72287e-05 0)
(0.00144697 -3.42584e-05 0)
(0.00167539 -2.9327e-05 0)
(0.00188086 -2.32073e-05 0)
(0.00205789 -1.66865e-05 0)
(0.00220343 -1.03826e-05 0)
(0.00231682 -4.77102e-06 0)
(0.00239919 -2.20059e-07 0)
(0.00245491 2.83046e-06 0)
(0.00248145 2.28617e-06 0)
(0.00250774 1.06847e-05 0)
(0.0024822 1.68282e-05 0)
(0.00244918 1.2347e-05 0)
(0.00240485 1.23036e-05 0)
(0.00235058 1.26839e-05 0)
(0.00228783 1.28298e-05 0)
(0.00221836 1.28005e-05 0)
(0.00214432 1.24161e-05 0)
(0.00206705 1.18754e-05 0)
(0.00198836 1.12929e-05 0)
(0.00190972 1.05261e-05 0)
(0.00183161 9.77724e-06 0)
(0.00175507 9.18175e-06 0)
(0.00168103 8.49671e-06 0)
(0.00160926 7.76287e-06 0)
(0.00153992 7.26418e-06 0)
(0.0014738 6.85869e-06 0)
(0.00141072 6.30592e-06 0)
(0.00135013 5.7786e-06 0)
(0.00129228 5.491e-06 0)
(0.00123751 5.26462e-06 0)
(0.00118542 4.87052e-06 0)
(0.0011355 4.47752e-06 0)
(0.00108793 4.28535e-06 0)
(0.001043 4.15779e-06 0)
(0.00100034 3.91033e-06 0)
(0.000959549 3.60351e-06 0)
(0.000920723 3.3972e-06 0)
(0.000884085 3.29461e-06 0)
(0.000849546 3.14659e-06 0)
(0.000816784 2.90894e-06 0)
(0.000785724 2.69497e-06 0)
(0.000756586 2.56619e-06 0)
(0.000729464 2.46147e-06 0)
(0.000704201 2.30521e-06 0)
(0.000680624 2.08675e-06 0)
(0.000658749 1.8731e-06 0)
(0.000638759 1.72001e-06 0)
(0.000620753 1.58778e-06 0)
(0.000604661 1.41584e-06 0)
(0.000590313 1.20079e-06 0)
(0.000577697 9.15816e-07 0)
(0.00056722 8.29929e-07 0)
(0.000557895 9.90382e-07 0)
(0.000549863 9.57453e-07 0)
(0.000542739 8.28077e-07 0)
(0.000536073 7.6034e-07 0)
(0.000530187 5.64754e-07 0)
(0.000525477 2.97246e-07 0)
(0.000522464 9.2423e-08 0)
(0.00052106 -5.65887e-08 0)
(0.000520988 -1.58304e-07 0)
(0.000521974 -2.46051e-07 0)
(0.000523817 -3.31514e-07 0)
(0.000526417 -3.9418e-07 0)
(0.000529764 -4.19987e-07 0)
(0.000533891 -4.46105e-07 0)
(0.000538835 -5.26777e-07 0)
(0.000544685 -6.6441e-07 0)
(0.000551704 -8.48679e-07 0)
(0.000560335 -1.12286e-06 0)
(0.000571143 -1.53635e-06 0)
(0.000584835 -2.10153e-06 0)
(0.000602333 -2.84945e-06 0)
(0.000624771 -3.85915e-06 0)
(0.000653446 -5.20861e-06 0)
(0.000689838 -6.943e-06 0)
(0.000735603 -9.10736e-06 0)
(0.00079237 -1.17345e-05 0)
(0.000861453 -1.4787e-05 0)
(0.000943559 -1.81482e-05 0)
(0.00103839 -2.16263e-05 0)
(0.001144 -2.49119e-05 0)
(0.00125611 -2.75099e-05 0)
(0.00136729 -2.86996e-05 0)
(0.00146662 -2.75914e-05 0)
(0.00153741 -2.22642e-05 0)
(0.00155845 -1.12824e-05 0)
(0.00149885 8.01843e-06 0)
(0.00132365 3.8222e-05 0)
(0.0010036 7.73338e-05 0)
(0.000554644 0.000111838 0)
(0.000110445 0.000104359 0)
(1.42677e-05 -1.93315e-05 0)
(0.000150796 -0.000128309 0)
(0.000403334 -0.000233282 0)
(0.000762081 -0.000321741 0)
(0.00120922 -0.000391075 0)
(0.00172274 -0.000439078 0)
(0.00227882 -0.000464475 0)
(0.00285268 -0.000467439 0)
(0.00342123 -0.000449978 0)
(0.00396481 -0.000415533 0)
(0.00446755 -0.000368519 0)
(0.00491763 -0.000313487 0)
(0.00530707 -0.000254624 0)
(0.00563146 -0.000195681 0)
(0.00588967 -0.000139938 0)
(0.00608185 -8.99533e-05 0)
(0.00622036 -4.97598e-05 0)
(0.00627236 -1.25419e-05 0)
(0.00635039 3.51604e-05 0)
(0.00630624 7.1938e-05 0)
(0.00625357 9.07591e-05 0)
(0.00616633 0.000108948 0)
(0.0060503 0.000124111 0)
(0.00591031 0.000135977 0)
(0.00575165 0.000144376 0)
(0.00557882 0.000149376 0)
(0.005396 0.000151673 0)
(0.00520727 0.000151734 0)
(0.00501551 0.000149897 0)
(0.00482324 0.000146708 0)
(0.00463295 0.000142597 0)
(0.00444611 0.000137778 0)
(0.00426368 0.000132534 0)
(0.00408685 0.000127099 0)
(0.00391629 0.000121579 0)
(0.00375213 0.000116085 0)
(0.00359459 0.000110731 0)
(0.00344383 0.000105569 0)
(0.00329975 0.000100531 0)
(0.00316211 9.56854e-05 0)
(0.00303083 9.11127e-05 0)
(0.00290584 8.67121e-05 0)
(0.00278678 8.2403e-05 0)
(0.0026734 7.82507e-05 0)
(0.0025657 7.42837e-05 0)
(0.00246363 7.04417e-05 0)
(0.00236695 6.66281e-05 0)
(0.00227544 6.28274e-05 0)
(0.00218909 5.91381e-05 0)
(0.002108 5.55709e-05 0)
(0.00203215 5.20002e-05 0)
(0.00196135 4.83669e-05 0)
(0.00189547 4.47196e-05 0)
(0.00183458 4.11243e-05 0)
(0.00177883 3.7584e-05 0)
(0.00172823 3.40204e-05 0)
(0.00168256 3.03551e-05 0)
(0.00164173 2.65869e-05 0)
(0.00160618 2.29121e-05 0)
(0.00157484 1.94916e-05 0)
(0.00154963 1.65572e-05 0)
(0.00152907 1.51106e-05 0)
(0.00150912 1.39554e-05 0)
(0.00149203 1.22379e-05 0)
(0.00147644 1.03816e-05 0)
(0.0014628 7.63751e-06 0)
(0.00145321 4.50604e-06 0)
(0.00144765 1.72016e-06 0)
(0.00144564 -6.68185e-07 0)
(0.00144665 -2.67588e-06 0)
(0.00145026 -4.37627e-06 0)
(0.00145621 -5.86227e-06 0)
(0.00146432 -7.23955e-06 0)
(0.00147452 -8.67344e-06 0)
(0.00148694 -1.03784e-05 0)
(0.00150185 -1.25395e-05 0)
(0.00151976 -1.5319e-05 0)
(0.0015415 -1.8962e-05 0)
(0.00156826 -2.37931e-05 0)
(0.00160151 -3.01353e-05 0)
(0.00164302 -3.83348e-05 0)
(0.00169493 -4.87927e-05 0)
(0.00175967 -6.18789e-05 0)
(0.00183985 -7.78035e-05 0)
(0.00193811 -9.65607e-05 0)
(0.0020568 -0.00011782 0)
(0.0021973 -0.000140683 0)
(0.00235932 -0.000163491 0)
(0.0025401 -0.000183687 0)
(0.00273324 -0.000197604 0)
(0.00292737 -0.000200204 0)
(0.00310465 -0.00018494 0)
(0.00324059 -0.000143715 0)
(0.00329731 -6.86041e-05 0)
(0.00324154 5.47667e-05 0)
(0.00300849 0.000237754 0)
(0.00255174 0.000473754 0)
(0.0018453 0.000717704 0)
(0.000957759 0.000839798 0)
(0.000144906 0.000568678 0)
(1.58684e-05 -0.00011869 0)
(0.0002127 -0.00037469 0)
(0.000574175 -0.000613357 0)
(0.00107481 -0.000817675 0)
(0.0016886 -0.000979109 0)
(0.00238623 -0.00109149 0)
(0.00313755 -0.00115274 0)
(0.00391303 -0.00116469 0)
(0.00468589 -0.00113232 0)
(0.00543304 -0.00106284 0)
(0.00613564 -0.000964612 0)
(0.00677912 -0.000846227 0)
(0.0073528 -0.000715739 0)
(0.00784948 -0.000580428 0)
(0.00826528 -0.000446627 0)
(0.00859852 -0.000319536 0)
(0.00884974 -0.000202136 0)
(0.00903026 -0.000103112 0)
(0.00911146 1.05961e-06 0)
(0.00917707 9.21802e-05 0)
(0.00916265 0.000150254 0)
(0.00910122 0.000210585 0)
(0.00898947 0.000263565 0)
(0.008837 0.00030611 0)
(0.00865083 0.00033888 0)
(0.00843738 0.000362386 0)
(0.00820308 0.000377571 0)
(0.00795326 0.000385957 0)
(0.00769238 0.000388684 0)
(0.00742522 0.00038664 0)
(0.0071557 0.000380928 0)
(0.00688623 0.000372471 0)
(0.00661936 0.000361889 0)
(0.00635779 0.000349861 0)
(0.00610283 0.000337002 0)
(0.00585507 0.000323635 0)
(0.00561566 0.000309969 0)
(0.00538553 0.000296401 0)
(0.00516468 0.000283154 0)
(0.00495286 0.000270188 0)
(0.00475028 0.000257489 0)
(0.00455715 0.000245187 0)
(0.00437316 0.000233344 0)
(0.00419782 0.0002219 0)
(0.004031 0.000210701 0)
(0.00387278 0.000199683 0)
(0.00372299 0.000188921 0)
(0.00358131 0.00017841 0)
(0.00344758 0.000168048 0)
(0.00332181 0.000157754 0)
(0.00320402 0.000147487 0)
(0.0030941 0.00013727 0)
(0.00299188 0.000127152 0)
(0.00289731 0.000117118 0)
(0.00281044 0.000107094 0)
(0.00273128 9.70319e-05 0)
(0.00265961 8.69229e-05 0)
(0.00259533 7.67766e-05 0)
(0.00253803 6.67657e-05 0)
(0.00248901 5.7028e-05 0)
(0.0024463 4.78064e-05 0)
(0.00240979 4.01892e-05 0)
(0.00238637 3.62353e-05 0)
(0.00236017 3.33777e-05 0)
(0.00233844 2.92896e-05 0)
(0.00231711 2.34058e-05 0)
(0.00229893 1.54281e-05 0)
(0.00228728 7.50647e-06 0)
(0.00228111 7.55882e-07 0)
(0.00227973 -4.97919e-06 0)
(0.00228248 -9.8685e-06 0)
(0.00228893 -1.42132e-05 0)
(0.00229876 -1.83347e-05 0)
(0.00231181 -2.2552e-05 0)
(0.00232813 -2.72617e-05 0)
(0.00234804 -3.29325e-05 0)
(0.00237215 -4.00328e-05 0)
(0.00240136 -4.90822e-05 0)
(0.00243699 -6.07387e-05 0)
(0.0024807 -7.57501e-05 0)
(0.00253447 -9.48568e-05 0)
(0.00260058 -0.00011876 0)
(0.00268159 -0.000148037 0)
(0.0027801 -0.000182916 0)
(0.0028985 -0.000223032 0)
(0.00303856 -0.000267164 0)
(0.0032007 -0.000312843 0)
(0.00338307 -0.000355896 0)
(0.0035805 -0.000390061 0)
(0.00378331 -0.000406638 0)
(0.00397582 -0.000394144 0)
(0.00413485 -0.000338083 0)
(0.00422783 -0.000221242 0)
(0.00421622 -2.51081e-05 0)
(0.00403794 0.000273261 0)
(0.00364734 0.00068435 0)
(0.00300071 0.00117844 0)
(0.00209567 0.00164461 0)
(0.00104057 0.00181175 0)
(0.000136621 0.00115031 0)
(1.69827e-05 -0.000241538 0)
(0.000251791 -0.00069109 0)
(0.000683348 -0.00109385 0)
(0.00127495 -0.00143505 0)
(0.00199375 -0.00170301 0)
(0.00280495 -0.00188945 0)
(0.00367431 -0.0019926 0)
(0.0045702 -0.00201676 0)
(0.00546471 -0.00197082 0)
(0.00633425 -0.00186633 0)
(0.00715962 -0.00171584 0)
(0.00792584 -0.00153188 0)
(0.00862171 -0.00132618 0)
(0.00923918 -0.00110921 0)
(0.0097733 -0.000890126 0)
(0.0102211 -0.000676679 0)
(0.0105831 -0.000474969 0)
(0.0108624 -0.000288895 0)
(0.0110417 -0.000131605 0)
(0.0112371 1.98576e-05 0)
(0.0112419 0.000173441 0)
(0.011226 0.000288039 0)
(0.0111478 0.000390155 0)
(0.0110183 0.000475425 0)
(0.0108452 0.000544026 0)
(0.010634 0.000597207 0)
(0.0103914 0.00063608 0)
(0.0101241 0.00066226 0)
(0.00983675 0.000677601 0)
(0.00953483 0.000683659 0)
(0.00922363 0.000681915 0)
(0.00890697 0.000673898 0)
(0.00858826 0.000660944 0)
(0.00827108 0.000644156 0)
(0.00795798 0.000624553 0)
(0.00765069 0.000603054 0)
(0.00735113 0.000580362 0)
(0.00706086 0.000557022 0)
(0.00678048 0.000533452 0)
(0.00651038 0.00050997 0)
(0.00625127 0.000486809 0)
(0.00600357 0.000464155 0)
(0.00576706 0.000442033 0)
(0.0055414 0.000420389 0)
(0.00532665 0.000399211 0)
(0.00512296 0.000378511 0)
(0.00493013 0.000358262 0)
(0.00474768 0.00033836 0)
(0.00457542 0.000318671 0)
(0.00441344 0.000299141 0)
(0.00426173 0.000279796 0)
(0.0041201 0.000260635 0)
(0.00398827 0.00024161 0)
(0.00386614 0.000222668 0)
(0.00375374 0.000203796 0)
(0.00365103 0.000185036 0)
(0.0035578 0.000166437 0)
(0.00347373 0.000148002 0)
(0.00339863 0.000129629 0)
(0.0033319 0.000111503 0)
(0.00327493 9.40957e-05 0)
(0.00322773 7.76024e-05 0)
(0.00318401 6.41799e-05 0)
(0.00316174 5.76584e-05 0)
(0.00313546 5.39912e-05 0)
(0.00311138 4.71656e-05 0)
(0.00308525 3.4529e-05 0)
(0.00306491 1.96861e-05 0)
(0.00305249 6.71665e-06 0)
(0.00304611 -4.23766e-06 0)
(0.00304509 -1.36804e-05 0)
(0.00304878 -2.20706e-05 0)
(0.00305681 -2.99543e-05 0)
(0.00306888 -3.78965e-05 0)
(0.0030849 -4.65052e-05 0)
(0.00310508 -5.64924e-05 0)
(0.00312996 -6.866e-05 0)
(0.00316035 -8.38777e-05 0)
(0.00319737 -0.000103129 0)
(0.00324249 -0.000127512 0)
(0.00329749 -0.000158107 0)
(0.00336434 -0.000195843 0)
(0.00344512 -0.000241368 0)
(0.00354188 -0.000294753 0)
(0.00365627 -0.000355073 0)
(0.00378911 -0.000419927 0)
(0.00393968 -0.0004849 0)
(0.00410475 -0.000542896 0)
(0.00427757 -0.000583495 0)
(0.00444651 -0.000592415 0)
(0.00459375 -0.000551141 0)
(0.00469362 -0.000436727 0)
(0.00471153 -0.0002231 0)
(0.00460447 0.000121058 0)
(0.00431945 0.000620014 0)
(0.00381262 0.00127269 0)
(0.00305696 0.00201955 0)
(0.00207193 0.00267515 0)
(0.000987888 0.00282711 0)
(0.000115518 0.00171852 0)
(1.70024e-05 -0.000377882 0)
(0.000274576 -0.00104932 0)
(0.000750832 -0.00163691 0)
(0.00140057 -0.00212804 0)
(0.00218501 -0.00250964 0)
(0.00306498 -0.0027735 0)
(0.00400328 -0.0029198 0)
(0.00496694 -0.00295664 0)
(0.00592791 -0.00289748 0)
(0.00686323 -0.00275856 0)
(0.00775456 -0.00255687 0)
(0.00858774 -0.00230877 0)
(0.00935226 -0.00202945 0)
(0.0100405 -0.00173226 0)
(0.0106476 -0.00142868 0)
(0.0111701 -0.00112866 0)
(0.011607 -0.000839961 0)
(0.0119553 -0.000570207 0)
(0.0122318 -0.000332058 0)
(0.0123543 -9.02072e-05 0)
(0.0125364 0.000123599 0)
(0.0125859 0.000304567 0)
(0.0125781 0.000467577 0)
(0.0125028 0.000606909 0)
(0.012373 0.000722187 0)
(0.0121958 0.000815071 0)
(0.0119781 0.000887324 0)
(0.0117266 0.000940795 0)
(0.0114469 0.0009775 0)
(0.0111448 0.000999545 0)
(0.010826 0.00100901 0)
(0.0104949 0.00100779 0)
(0.0101556 0.000997663 0)
(0.00981258 0.00098034 0)
(0.00946931 0.000957425 0)
(0.00912819 0.000930254 0)
(0.00879192 0.00089992 0)
(0.00846297 0.000867401 0)
(0.00814278 0.00083356 0)
(0.00783236 0.000799079 0)
(0.00753291 0.000764395 0)
(0.00724539 0.000729818 0)
(0.00697001 0.000695606 0)
(0.00670679 0.000661934 0)
(0.00645601 0.000628865 0)
(0.00621796 0.0005964 0)
(0.00599246 0.000564488 0)
(0.00577911 0.000533047 0)
(0.00557777 0.000502006 0)
(0.00538851 0.000471332 0)
(0.00521127 0.000441003 0)
(0.00504576 0.000410952 0)
(0.00489162 0.000381119 0)
(0.00474868 0.000351499 0)
(0.00461698 0.000322134 0)
(0.00449643 0.000293086 0)
(0.00438667 0.000264416 0)
(0.0042873 0.000236154 0)
(0.00419801 0.000208293 0)
(0.00411848 0.000180732 0)
(0.00404821 0.000153644 0)
(0.00398742 0.000128017 0)
(0.00393927 0.000104119 0)
(0.00389256 8.45722e-05 0)
(0.00387313 7.65924e-05 0)
(0.00385174 7.30292e-05 0)
(0.00382647 6.18111e-05 0)
(0.00379592 4.08784e-05 0)
(0.00377532 1.95674e-05 0)
(0.0037619 2.23574e-06 0)
(0.00375451 -1.26822e-05 0)
(0.00375255 -2.59512e-05 0)
(0.00375544 -3.828e-05 0)
(0.00376281 -5.04866e-05 0)
(0.00377442 -6.34074e-05 0)
(0.00379029 -7.79727e-05 0)
(0.00381076 -9.52705e-05 0)
(0.00383639 -0.000116499 0)
(0.003868 -0.000142928 0)
(0.00390667 -0.000175897 0)
(0.00395375 -0.000216715 0)
(0.00401067 -0.000266464 0)
(0.00407884 -0.000325757 0)
(0.00415955 -0.000394353 0)
(0.00425365 -0.00047064 0)
(0.00436105 -0.00055096 0)
(0.00448009 -0.000628857 0)
(0.00460666 -0.000694228 0)
(0.00473314 -0.000732455 0)
(0.00484721 -0.000723719 0)
(0.00493057 -0.000642589 0)
(0.00495704 -0.000457973 0)
(0.00489374 -0.000134566 0)
(0.00469519 0.000365854 0)
(0.00432153 0.00106435 0)
(0.00373622 0.00194687 0)
(0.00292689 0.00291691 0)
(0.00193015 0.00371384 0)
(0.000885578 0.00379708 0)
(9.25672e-05 0.00222971 0)
(1.65411e-05 -0.000522356 0)
(0.00028833 -0.00143385 0)
(0.000794207 -0.00222039 0)
(0.00148194 -0.00286959 0)
(0.00230721 -0.00336767 0)
(0.00322717 -0.00370816 0)
(0.00420236 -0.00389524 0)
(0.00519903 -0.00394215 0)
(0.00618951 -0.00386777 0)
(0.00715181 -0.0036934 0)
(0.00806902 -0.00344067 0)
(0.00892836 -0.00312983 0)
(0.00972072 -0.00277922 0)
(0.0104399 -0.00240495 0)
(0.0110818 -0.00202041 0)
(0.0116441 -0.00163701 0)
(0.0121263 -0.00126389 0)
(0.0125274 -0.000908533 0)
(0.012852 -0.000575665 0)
(0.0130951 -0.000290329 0)
(0.0132889 -2.99701e-05 0)
(0.0133789 0.000244893 0)
(0.0134237 0.000480077 0)
(0.0134015 0.000681766 0)
(0.013323 0.000851642 0)
(0.0131932 0.000992039 0)
(0.013018 0.00110516 0)
(0.0128034 0.00119336 0)
(0.0125546 0.001259 0)
(0.0122771 0.00130441 0)
(0.0119767 0.00133195 0)
(0.0116577 0.001344 0)
(0.0113245 0.00134284 0)
(0.010982 0.00133054 0)
(0.0106341 0.00130905 0)
(0.0102835 0.00128015 0)
(0.00993381 0.00124543 0)
(0.00958801 0.00120632 0)
(0.00924824 0.00116407 0)
(0.00891612 0.00111963 0)
(0.00859346 0.00107382 0)
(0.00828184 0.0010273 0)
(0.00798207 0.000980593 0)
(0.00769458 0.00093406 0)
(0.00741996 0.000887932 0)
(0.00715877 0.000842319 0)
(0.00691113 0.000797267 0)
(0.00667678 0.000752819 0)
(0.00645566 0.000708959 0)
(0.00624788 0.000665636 0)
(0.00605333 0.000622815 0)
(0.00587166 0.00058045 0)
(0.00570249 0.000538504 0)
(0.00554564 0.000497 0)
(0.005401 0.000455998 0)
(0.0052684 0.000415571 0)
(0.00514742 0.000375794 0)
(0.00503755 0.000336734 0)
(0.00493837 0.000298452 0)
(0.00484954 0.000261018 0)
(0.00477061 0.000224505 0)
(0.00470122 0.000188891 0)
(0.00464004 0.00015533 0)
(0.00459393 0.000124364 0)
(0.0045458 9.87713e-05 0)
(0.00453691 9.23226e-05 0)
(0.00451717 8.86222e-05 0)
(0.00448998 7.00322e-05 0)
(0.00445634 4.22044e-05 0)
(0.00443495 1.65339e-05 0)
(0.00441934 -4.47523e-06 0)
(0.00440942 -2.30486e-05 0)
(0.00440456 -4.01231e-05 0)
(0.00440421 -5.66991e-05 0)
(0.00440798 -7.38565e-05 0)
(0.00441568 -9.2752e-05 0)
(0.00442737 -0.000114687 0)
(0.00444332 -0.000141094 0)
(0.00446402 -0.000173467 0)
(0.00449011 -0.000213319 0)
(0.00452238 -0.000262091 0)
(0.00456167 -0.000320934 0)
(0.00460873 -0.000390348 0)
(0.00466413 -0.000469727 0)
(0.00472798 -0.000556732 0)
(0.00479948 -0.000646489 0)
(0.00487634 -0.000730585 0)
(0.00495401 -0.00079601 0)
(0.00502463 -0.000824103 0)
(0.00507585 -0.000789775 0)
(0.00508981 -0.000661056 0)
(0.00504141 -0.000399095 0)
(0.00489785 3.89574e-05 0)
(0.00462392 0.000691829 0)
(0.00418269 0.00157845 0)
(0.0035483 0.00266786 0)
(0.00272055 0.00382456 0)
(0.00174853 0.00471587 0)
(0.000773246 0.00468969 0)
(7.20557e-05 0.00267447 0)
(1.6362e-05 -0.000672181 0)
(0.000298479 -0.00183608 0)
(0.000825239 -0.00283061 0)
(0.00153837 -0.00364184 0)
(0.0023883 -0.00425573 0)
(0.0033289 -0.0046692 0)
(0.00431916 -0.00489219 0)
(0.00532509 -0.00494434 0)
(0.00631972 -0.00485079 0)
(0.00728223 -0.00463842 0)
(0.00819724 -0.00433362 0)
(0.00905377 -0.00396072 0)
(0.00984424 -0.00354104 0)
(0.0105641 -0.0030932 0)
(0.0112107 -0.0026327 0)
(0.0117826 -0.00217217 0)
(0.0122801 -0.00172207 0)
(0.0127032 -0.00129122 0)
(0.0130533 -0.000886282 0)
(0.0133319 -0.000518763 0)
(0.0135251 -0.000167925 0)
(0.0136865 0.000152102 0)
(0.013783 0.000446539 0)
(0.0138156 0.000705714 0)
(0.0137903 0.00092947 0)
(0.0137126 0.0011193 0)
(0.0135875 0.00127677 0)
(0.0134203 0.00140399 0)
(0.0132156 0.00150334 0)
(0.0129782 0.00157734 0)
(0.0127134 0.00162857 0)
(0.0124254 0.00165959 0)
(0.0121183 0.00167293 0)
(0.0117969 0.00167098 0)
(0.0114649 0.00165599 0)
(0.0111257 0.0016301 0)
(0.0107829 0.00159525 0)
(0.0104399 0.00155319 0)
(0.0100993 0.00150553 0)
(0.00976331 0.00145358 0)
(0.0094342 0.00139852 0)
(0.00911409 0.00134139 0)
(0.00880427 0.00128298 0)
(0.0085057 0.00122387 0)
(0.0082194 0.00116453 0)
(0.00794629 0.00110534 0)
(0.00768683 0.00104655 0)
(0.00744105 0.000988312 0)
(0.00720901 0.000930693 0)
(0.00699092 0.000873721 0)
(0.00678677 0.000817422 0)
(0.00659622 0.000761813 0)
(0.00641887 0.000706901 0)
(0.00625446 0.000652728 0)
(0.00610286 0.000599371 0)
(0.0059638 0.000546921 0)
(0.00583673 0.000495473 0)
(0.00572104 0.000445144 0)
(0.0056163 0.000396074 0)
(0.0055221 0.000348404 0)
(0.00543795 0.000302256 0)
(0.00536318 0.000257692 0)
(0.00529728 0.000214364 0)
(0.00523823 0.000173706 0)
(0.0051962 0.000135886 0)
(0.00514279 0.000105813 0)
(0.00515388 0.000105025 0)
(0.0051276 0.000101427 0)
(0.00509579 7.33958e-05 0)
(0.00506385 4.04996e-05 0)
(0.00504066 1.26853e-05 0)
(0.00502177 -1.12682e-05 0)
(0.00500762 -3.30204e-05 0)
(0.00499757 -5.37237e-05 0)
(0.00499109 -7.4676e-05 0)
(0.00498782 -9.72491e-05 0)
(0.00498757 -0.000122896 0)
(0.00499032 -0.000153184 0)
(0.00499621 -0.000189773 0)
(0.00500544 -0.000234315 0)
(0.0050183 -0.000288301 0)
(0.00503507 -0.000352842 0)
(0.00505592 -0.0004283 0)
(0.0050808 -0.000513739 0)
(0.00510921 -0.000606149 0)
(0.00513987 -0.0006995 0)
(0.00517018 -0.00078359 0)
(0.00519548 -0.000842767 0)
(0.00520808 -0.000854708 0)
(0.0051961 -0.000789574 0)
(0.00514277 -0.000609586 0)
(0.00502344 -0.000269141 0)
(0.00481123 0.000282283 0)
(0.00447411 0.00108087 0)
(0.00398297 0.00213982 0)
(0.00332003 0.00340974 0)
(0.00249488 0.00471641 0)
(0.00156506 0.00566052 0)
(0.000668301 0.00549594 0)
(5.53931e-05 0.00305549 0)
(1.67262e-05 -0.00082673 0)
(0.000307868 -0.00225221 0)
(0.00085025 -0.0034598 0)
(0.00158014 -0.00443314 0)
(0.00244314 -0.00515911 0)
(0.00339045 -0.00563969 0)
(0.00438013 -0.00589198 0)
(0.00537841 -0.00594313 0)
(0.0063592 -0.00582521 0)
(0.00730305 -0.00557118 0)
(0.00819607 -0.00521226 0)
(0.0090292 -0.00477692 0)
(0.0097967 -0.0042897 0)
(0.0104955 -0.00377134 0)
(0.0111248 -0.0032391 0)
(0.0116845 -0.00270675 0)
(0.0121758 -0.00218514 0)
(0.0125995 -0.0016832 0)
(0.0129559 -0.00120792 0)
(0.0132496 -0.000767336 0)
(0.0134644 -0.000371889 0)
(0.0136376 -1.08246e-05 0)
(0.013779 0.00035251 0)
(0.013855 0.000675351 0)
(0.0138759 0.000954759 0)
(0.0138465 0.0011948 0)
(0.0137709 0.00139759 0)
(0.0136536 0.00156538 0)
(0.0134981 0.00170076 0)
(0.0133086 0.00180636 0)
(0.0130892 0.00188487 0)
(0.0128437 0.00193894 0)
(0.0125756 0.00197113 0)
(0.0122893 0.00198405 0)
(0.0119885 0.00198017 0)
(0.0116763 0.00196179 0)
(0.0113563 0.00193109 0)
(0.0110322 0.0018901 0)
(0.0107066 0.00184066 0)
(0.0103821 0.00178445 0)
(0.0100614 0.00172296 0)
(0.00974691 0.00165747 0)
(0.00944037 0.00158909 0)
(0.00914309 0.00151875 0)
(0.0088566 0.00144716 0)
(0.00858226 0.00137495 0)
(0.0083208 0.00130262 0)
(0.00807253 0.00123053 0)
(0.0078378 0.0011589 0)
(0.00761702 0.0010879 0)
(0.00741031 0.00101767 0)
(0.0072174 0.000948353 0)
(0.00703794 0.000880033 0)
(0.00687169 0.000812795 0)
(0.00671844 0.000746731 0)
(0.00657782 0.000681971 0)
(0.00644927 0.000618673 0)
(0.00633213 0.000557008 0)
(0.00622584 0.00049715 0)
(0.0061299 0.000439275 0)
(0.00604379 0.000383556 0)
(0.00596681 0.000330123 0)
(0.00589813 0.000278963 0)
(0.00583672 0.000229528 0)
(0.00578178 0.000183892 0)
(0.00574224 0.000139942 0)
(0.00568874 0.000113526 0)
(0.00571247 0.000117639 0)
(0.00568186 0.000107189 0)
(0.00564338 7.23352e-05 0)
(0.00561326 3.7746e-05 0)
(0.00558634 9.50836e-06 0)
(0.0055627 -1.59536e-05 0)
(0.00554225 -4.00058e-05 0)
(0.00552437 -6.39023e-05 0)
(0.00550861 -8.91121e-05 0)
(0.00549462 -0.000117195 0)
(0.00548212 -0.000149802 0)
(0.0054709 -0.000188664 0)
(0.00546085 -0.00023549 0)
(0.00545184 -0.000291782 0)
(0.00544363 -0.00035858 0)
(0.0054359 -0.000436092 0)
(0.0054281 -0.000523075 0)
(0.00541933 -0.000615942 0)
(0.005408 -0.00070762 0)
(0.00539133 -0.000786268 0)
(0.00536475 -0.000833789 0)
(0.00532084 -0.00082434 0)
(0.00524828 -0.000723298 0)
(0.00513121 -0.000486281 0)
(0.00494841 -6.12544e-05 0)
(0.00468388 0.000588055 0)
(0.0042947 0.00152017 0)
(0.00376648 0.00273286 0)
(0.00308863 0.00415663 0)
(0.00227787 0.00557942 0)
(0.00139683 0.00654145 0)
(0.000577272 0.00621912 0)
(4.25376e-05 0.00338088 0)
(1.74731e-05 -0.000985947 0)
(0.000317228 -0.00267996 0)
(0.000871615 -0.00410246 0)
(0.00161141 -0.0052349 0)
(0.00247827 -0.00606681 0)
(0.00342143 -0.00660689 0)
(0.00439861 -0.00688072 0)
(0.00537655 -0.0069238 0)
(0.00633016 -0.00677562 0)
(0.00724151 -0.0064755 0)
(0.00809834 -0.00605988 0)
(0.00889325 -0.00556119 0)
(0.00962251 -0.00500731 0)
(0.0102849 -0.00442125 0)
(0.0108811 -0.0038216 0)
(0.0114129 -0.00322306 0)
(0.0118826 -0.00263687 0)
(0.0122924 -0.0020716 0)
(0.0126438 -0.00153375 0)
(0.012941 -0.00102835 0)
(0.0131796 -0.000563303 0)
(0.0133546 -0.000166548 0)
(0.0135145 0.000229071 0)
(0.0136188 0.000607551 0)
(0.0136707 0.00093715 0)
(0.0136805 0.0012237 0)
(0.0136489 0.00146948 0)
(0.013579 0.00167673 0)
(0.0134727 0.00184807 0)
(0.0133329 0.00198613 0)
(0.0131629 0.00209357 0)
(0.0129653 0.00217304 0)
(0.0127433 0.00222707 0)
(0.0125006 0.00225823 0)
(0.0122404 0.00226907 0)
(0.0119656 0.00226198 0)
(0.0116797 0.00223923 0)
(0.0113861 0.00220307 0)
(0.0110876 0.00215555 0)
(0.0107868 0.00209852 0)
(0.0104864 0.00203372 0)
(0.0101893 0.00196269 0)
(0.00989737 0.00188682 0)
(0.00961228 0.00180731 0)
(0.00933584 0.00172519 0)
(0.00906973 0.00164132 0)
(0.0088151 0.00155645 0)
(0.00857253 0.00147119 0)
(0.00834259 0.00138599 0)
(0.00812594 0.00130121 0)
(0.00792293 0.00121718 0)
(0.00773346 0.00113418 0)
(0.00755722 0.00105243 0)
(0.00739397 0.000972072 0)
(0.00724354 0.000893284 0)
(0.00710562 0.000816279 0)
(0.00697957 0.000741278 0)
(0.00686462 0.000668472 0)
(0.00676019 0.000598065 0)
(0.00666574 0.0005303 0)
(0.00658068 0.000465405 0)
(0.00650428 0.000403535 0)
(0.00643565 0.000344737 0)
(0.00637401 0.000288818 0)
(0.00631715 0.00023514 0)
(0.0062712 0.000186483 0)
(0.00622473 0.000137454 0)
(0.00620443 0.000122972 0)
(0.00620666 0.000130143 0)
(0.00617415 0.000109445 0)
(0.00613158 7.28264e-05 0)
(0.00609802 3.95548e-05 0)
(0.00606513 1.11746e-05 0)
(0.00603432 -1.5177e-05 0)
(0.00600499 -4.08502e-05 0)
(0.00597645 -6.73682e-05 0)
(0.00594819 -9.63797e-05 0)
(0.00591978 -0.000129575 0)
(0.00589075 -0.000168663 0)
(0.00586067 -0.000215332 0)
(0.00582911 -0.000271081 0)
(0.00579546 -0.000336893 0)
(0.00575896 -0.000412796 0)
(0.00571871 -0.000497251 0)
(0.00567354 -0.000586201 0)
(0.00562171 -0.000671746 0)
(0.0055605 -0.000740653 0)
(0.00548572 -0.000772729 0)
(0.00539087 -0.000739188 0)
(0.00526665 -0.000601773 0)
(0.00509691 -0.00031431 0)
(0.00487326 0.0001681 0)
(0.00453989 0.000940593 0)
(0.00411023 0.0019983 0)
(0.00355525 0.0033466 0)
(0.00287183 0.00489916 0)
(0.00208167 0.00640821 0)
(0.00125008 0.00735983 0)
(0.000501418 0.00686769 0)
(3.29303e-05 0.00366002 0)
(1.84318e-05 -0.00114991 0)
(0.000326204 -0.00311723 0)
(0.000889254 -0.00475385 0)
(0.00163282 -0.00603994 0)
(0.00249559 -0.00696981 0)
(0.00342561 -0.00756068 0)
(0.00438062 -0.00784756 0)
(0.00532818 -0.00787503 0)
(0.00624437 -0.00769035 0)
(0.00711268 -0.00733938 0)
(0.00792264 -0.00686408 0)
(0.0086686 -0.00630102 0)
(0.00934861 -0.00568118 0)
(0.00996344 -0.00502987 0)
(0.0105155 -0.00436705 0)
(0.0110081 -0.00370811 0)
(0.0114449 -0.00306457 0)
(0.0118294 -0.00244493 0)
(0.0121649 -0.0018556 0)
(0.0124565 -0.00130072 0)
(0.012696 -0.000791314 0)
(0.0129154 -0.000341002 0)
(0.0130417 9.29261e-05 0)
(0.0131705 0.000522452 0)
(0.0132413 0.000892721 0)
(0.0132833 0.00121714 0)
(0.0132906 0.00149947 0)
(0.0132639 0.00174192 0)
(0.013204 0.00194678 0)
(0.0131124 0.00211625 0)
(0.0129916 0.00225262 0)
(0.0128432 0.00235829 0)
(0.0126696 0.00243569 0)
(0.0124742 0.00248718 0)
(0.0122596 0.00251521 0)
(0.0120282 0.00252221 0)
(0.0117831 0.00251051 0)
(0.0115277 0.00248237 0)
(0.0112644 0.00243998 0)
(0.0109958 0.00238536 0)
(0.0107247 0.00232037 0)
(0.0104539 0.00224678 0)
(0.0101855 0.00216617 0)
(0.00992121 0.00207997 0)
(0.0096632 0.0019895 0)
(0.00941339 0.00189587 0)
(0.00917312 0.00180007 0)
(0.00894323 0.00170294 0)
(0.00872456 0.00160521 0)
(0.00851804 0.00150751 0)
(0.00832421 0.00141036 0)
(0.00814312 0.00131419 0)
(0.00797458 0.00121937 0)
(0.00781846 0.00112624 0)
(0.00767468 0.00103508 0)
(0.00754294 0.000946181 0)
(0.00742258 0.000859823 0)
(0.00731283 0.000776278 0)
(0.00721308 0.000695811 0)
(0.00712274 0.000618686 0)
(0.00704115 0.000545151 0)
(0.00696752 0.000475412 0)
(0.00690093 0.000409573 0)
(0.00684031 0.000347557 0)
(0.00678494 0.000288727 0)
(0.00673013 0.000232828 0)
(0.00669202 0.000180832 0)
(0.00662375 0.000137275 0)
(0.00664797 0.000139576 0)
(0.00662233 0.000141496 0)
(0.0065853 0.000111686 0)
(0.00654534 7.68679e-05 0)
(0.00650695 4.72056e-05 0)
(0.00646753 2.01789e-05 0)
(0.00642793 -5.83529e-06 0)
(0.00638748 -3.2202e-05 0)
(0.00634564 -6.05259e-05 0)
(0.0063019 -9.24855e-05 0)
(0.00625568 -0.000129755 0)
(0.00620628 -0.000173953 0)
(0.00615299 -0.000226514 0)
(0.00609497 -0.000288363 0)
(0.00603119 -0.000359381 0)
(0.00596041 -0.000437756 0)
(0.00588124 -0.000519024 0)
(0.00579189 -0.000594652 0)
(0.00568964 -0.000650291 0)
(0.00557051 -0.000663962 0)
(0.00542849 -0.000604294 0)
(0.00525447 -0.000429153 0)
(0.00503634 -8.53343e-05 0)
(0.00474572 0.000497981 0)
(0.00438551 0.00134277 0)
(0.00392726 0.00250499 0)
(0.00335749 0.00397084 0)
(0.00267615 0.00563054 0)
(0.00190984 0.00720105 0)
(0.00112543 0.00812015 0)
(0.00043956 0.00745164 0)
(2.58748e-05 0.00390165 0)
(1.95104e-05 -0.00131848 0)
(0.000334047 -0.00356173 0)
(0.000902039 -0.00540921 0)
(0.00164354 -0.00684158 0)
(0.00249499 -0.0078602 0)
(0.00340403 -0.00849248 0)
(0.0043288 -0.0087837 0)
(0.00523779 -0.00878781 0)
(0.00610842 -0.00856027 0)
(0.00692564 -0.00815372 0)
(0.00768065 -0.00761567 0)
(0.00836967 -0.00698708 0)
(0.00899258 -0.00630203 0)
(0.00955195 -0.00558793 0)
(0.0100519 -0.00486602 0)
(0.0104973 -0.00415225 0)
(0.0108932 -0.00345809 0)
(0.0112437 -0.00279179 0)
(0.0115535 -0.00215969 0)
(0.0118248 -0.00156686 0)
(0.0120598 -0.00102161 0)
(0.0122962 -0.000505899 0)
(0.0123713 -3.21652e-05 0)
(0.0125331 0.000419387 0)
(0.0126286 0.000818448 0)
(0.0127052 0.00117416 0)
(0.0127503 0.00148864 0)
(0.0127642 0.00176315 0)
(0.0127473 0.00199921 0)
(0.0127008 0.00219854 0)
(0.0126265 0.00236304 0)
(0.0125256 0.00249474 0)
(0.0123999 0.00259583 0)
(0.012252 0.00266857 0)
(0.0120843 0.00271523 0)
(0.0118986 0.00273816 0)
(0.0116976 0.00273967 0)
(0.0114844 0.00272202 0)
(0.0112611 0.00268741 0)
(0.01103 0.00263794 0)
(0.0107939 0.00257557 0)
(0.0105555 0.00250219 0)
(0.0103169 0.00241956 0)
(0.0100799 0.00232928 0)
(0.00984674 0.00223286 0)
(0.0096194 0.00213164 0)
(0.00939945 0.00202685 0)
(0.00918796 0.00191962 0)
(0.00898594 0.00181091 0)
(0.00879451 0.00170158 0)
(0.00861438 0.00159238 0)
(0.00844579 0.00148397 0)
(0.00828876 0.00137693 0)
(0.00814322 0.00127175 0)
(0.00800917 0.00116885 0)
(0.00788641 0.00106864 0)
(0.00777434 0.000971528 0)
(0.0076722 0.000877868 0)
(0.00757933 0.000787979 0)
(0.00749516 0.000702152 0)
(0.00741901 0.000620684 0)
(0.00735008 0.000543854 0)
(0.0072874 0.000471852 0)
(0.00722996 0.00040472 0)
(0.00717672 0.000342277 0)
(0.00712689 0.000283392 0)
(0.00707669 0.000228748 0)
(0.00703832 0.000173915 0)
(0.00698163 0.000145566 0)
(0.00700792 0.000159193 0)
(0.00697205 0.00015185 0)
(0.00692504 0.000120687 0)
(0.00688198 8.98479e-05 0)
(0.00683579 6.39162e-05 0)
(0.00678755 3.94308e-05 0)
(0.00673691 1.49709e-05 0)
(0.00668318 -1.08895e-05 0)
(0.00662577 -3.97436e-05 0)
(0.00656403 -7.32009e-05 0)
(0.00649714 -0.000112775 0)
(0.00642417 -0.000159767 0)
(0.00634409 -0.000214992 0)
(0.00625571 -0.00027823 0)
(0.00615758 -0.000347452 0)
(0.00604809 -0.000417833 0)
(0.00592537 -0.000480283 0)
(0.00578682 -0.00051951 0)
(0.00562866 -0.000511926 0)
(0.00544533 -0.000423709 0)
(0.00522849 -0.000209254 0)
(0.00496518 0.000187927 0)
(0.00464299 0.000827936 0)
(0.00425004 0.00176381 0)
(0.00376605 0.00302832 0)