/*--------------------------------*- C++ -*----------------------------------*\
  =========                 |
  \\      /  F ield         | OpenFOAM: The Open Source CFD Toolbox
   \\    /   O peration     | Website:  https://openfoam.org
    \\  /    A nd           | Version:  6
     \\/     M anipulation  |
\*---------------------------------------------------------------------------*/
FoamFile
{
    version     2.0;
    format      ascii;
    class       volScalarField;
    location    "0";
    object      p;
}
// * * * * * * * * * * * * * * * * * * * * * * * * * * * * * * * * * * * * * //

dimensions      [0 2 -2 0 0 0 0];

internalField   nonuniform List<scalar> 
9000
(
106.933
59.425
46.2577
40.6932
37.798
36.1426
35.0716
34.2969
33.6834
33.1609
32.69
32.2477
31.8203
31.3994
30.9802
30.5599
30.1372
29.7113
29.2822
28.85
28.4152
27.9782
27.5393
27.0991
26.6578
26.2159
25.7736
25.3314
24.8895
24.4483
24.0079
23.5688
23.1312
22.6957
22.2626
21.8326
21.4062
20.9844
20.5682
20.159
19.7588
19.3701
18.9968
18.6443
18.3204
18.036
17.796
17.5737
17.5771
16.6163
80.547
56.4181
46.8476
41.7095
38.6921
36.8198
35.5649
34.6537
33.9419
33.3485
32.8262
32.3465
31.8917
31.4507
31.0168
30.5859
30.1553
29.7239
29.2908
28.8559
28.4192
27.9808
27.5411
27.1003
26.6587
26.2166
25.7743
25.332
24.89
24.4487
24.0082
23.5688
23.1309
22.6948
22.2608
21.8296
21.4016
20.9774
20.558
20.1443
19.7375
19.3393
18.9516
18.5769
18.2171
17.8723
17.5314
17.1501
16.7161
15.326
64.5682
53.0453
46.7281
42.2518
39.316
37.3569
35.9876
34.9757
34.1839
33.5292
32.9605
32.4458
31.9647
31.5041
31.0556
30.6138
30.1753
29.738
29.3007
28.8628
28.4239
27.9841
27.5434
27.1019
26.6599
26.2175
25.775
25.3325
24.8904
24.4489
24.0081
23.5684
23.1299
22.6931
22.2581
21.8254
21.3954
20.9685
20.5452
20.1261
19.7118
19.3027
18.8991
18.5002
18.1027
17.6977
17.2612
16.7304
16.0325
14.729
55.9286
49.8002
45.6306
42.049
39.4577
37.5953
36.2265
35.1834
34.3538
33.6639
33.0653
32.5263
32.0259
31.5502
31.09
30.6392
30.1939
29.7516
29.3105
28.8698
28.429
27.9877
27.5459
27.1037
26.6611
26.2184
25.7756
25.3329
24.8905
24.4487
24.0076
23.5674
23.1283
22.6906
22.2545
21.8203
21.3881
20.9583
20.5311
20.1067
19.6849
19.2654
18.8469
18.4266
17.9981
17.5483
17.0504
16.4465
15.6704
14.5249
50.2079
46.9146
44.1993
41.4682
39.3
37.6234
36.3248
35.2988
34.4635
33.7593
33.1445
32.5901
32.0763
31.5895
31.1202
30.6622
30.2113
29.7645
29.3201
28.8769
28.4341
27.9914
27.5486
27.1056
26.6625
26.2193
25.7761
25.3331
24.8905
24.4483
24.0067
23.566
23.1262
22.6876
22.2502
21.8143
21.38
20.9473
20.5162
20.0864
19.6576
19.2284
18.7967
18.3583
17.9055
17.4243
16.8904
16.2588
15.4803
14.4725
46.0992
44.4648
42.7555
40.7307
38.9698
37.5093
36.3178
35.3399
34.5219
33.8199
33.2002
32.6383
32.1165
31.6221
31.1462
30.6827
30.2271
29.7767
29.3293
28.8838
28.4393
27.9952
27.5514
27.1076
26.6639
26.2202
25.7766
25.3332
24.8902
24.4476
24.0056
23.5642
23.1236
22.684
22.2454
21.8078
21.3712
20.9357
20.5008
20.0661
19.6307
19.1929
18.75
18.2971
17.8264
17.3248
16.7722
16.1363
15.3846
14.4913
43.1217
42.4401
41.4108
39.9414
38.5413
37.2983
36.231
35.3203
34.5361
33.849
33.234
32.6714
32.1464
31.6478
31.1677
30.7002
30.2411
29.7877
29.3379
28.8904
28.4443
27.999
27.5542
27.1096
26.6652
26.221
25.777
25.3332
24.8898
24.4467
24.0041
23.5621
23.1208
22.6801
22.2402
21.8009
21.3623
20.924
20.4856
20.0464
19.6053
19.1602
18.7082
18.2445
17.7616
17.2485
16.6893
16.0626
15.3492
14.55
40.9294
40.7831
40.2058
39.1612
38.0665
37.0268
36.0874
35.2537
34.514
33.8511
33.2481
32.6906
32.1665
31.6668
31.1846
30.7146
30.2531
29.7975
29.3457
28.8966
28.4491
28.0026
27.5569
27.1116
26.6666
26.2218
25.7773
25.3331
24.8892
24.4456
24.0025
23.5598
23.1177
22.676
22.2348
21.794
21.3533
20.9125
20.471
20.0279
19.5819
19.131
18.6722
18.2009
17.7108
17.1928
16.6355
16.0253
15.3526
14.6298
39.2783
39.4293
39.1511
38.4259
37.5823
36.7237
35.9074
35.1537
34.464
33.8314
33.2458
32.6975
32.1779
31.6796
31.1971
30.726
30.2631
29.8059
29.3526
28.9021
28.4535
28.006
27.5594
27.1134
26.6678
26.2225
25.7775
25.3328
24.8884
24.4444
24.0007
23.5574
23.1144
22.6718
22.2294
21.7871
21.3446
20.9015
20.4573
20.011
19.5611
19.1058
18.6422
18.1663
17.6728
17.1548
16.6045
16.0139
15.38
14.7185
38.009
38.322
38.242
37.7543
37.1128
36.4107
35.7076
35.032
34.3943
33.7951
33.2304
32.6945
32.1817
31.6869
31.2057
30.7347
30.2711
29.813
29.3587
28.9071
28.4574
28.0091
27.5618
27.1151
26.6689
26.2231
25.7776
25.3325
24.8876
24.4431
23.9988
23.5548
23.1111
22.6675
22.224
21.7804
21.3363
20.8913
20.4448
19.9958
19.5431
19.0846
18.618
18.1399
17.646
17.1314
16.591
16.021
15.4219
14.8096
37.0169
37.4149
37.4661
37.1541
36.6733
36.1033
35.501
34.8986
34.312
33.7473
33.2052
32.6836
32.1795
31.6896
31.2109
30.7408
30.2774
29.8188
29.3638
28.9114
28.461
28.0119
27.5639
27.1166
26.6699
26.2236
25.7776
25.332
24.8867
24.4416
23.9968
23.5522
23.1077
22.6633
22.2188
21.774
21.3285
20.882
20.4337
19.9827
19.5279
19.0675
18.5994
18.1209
17.6289
17.1198
16.5907
16.0406
15.472
14.8994
36.2314
36.671
36.8094
36.6269
36.2726
35.8122
35.2977
34.7617
34.2233
33.6925
33.1735
32.6671
32.1726
31.6886
31.2132
30.7449
30.282
29.8234
29.368
28.9151
28.4641
28.0144
27.5658
27.1179
26.6707
26.2239
25.7775
25.3314
24.8857
24.4401
23.9948
23.5496
23.1044
22.6592
22.2138
21.768
21.3214
20.8736
20.4239
19.9716
19.5154
19.0541
18.5858
18.1084
17.6196
17.1174
16.6001
16.0685
15.5262
14.9857
35.6042
36.0617
36.2581
36.1709
35.9153
35.5449
35.1052
34.6279
34.1336
33.6347
33.1381
32.647
32.1626
31.6849
31.2134
30.7471
30.2853
29.827
29.3715
28.9182
28.4667
28.0165
27.5674
27.119
26.6713
26.2241
25.7773
25.3308
24.8846
24.4385
23.9927
23.547
23.1012
22.6553
22.2092
21.7625
21.315
20.8662
20.4156
19.9623
19.5056
19.0441
18.5765
18.1013
17.6168
17.122
16.6164
16.1016
15.5818
15.0673
35.1021
35.5649
35.7999
35.7828
35.6038
35.306
34.9289
34.5023
34.0472
33.5774
33.1017
32.6252
32.1507
31.6795
31.2119
30.748
30.2874
29.8296
29.3742
28.9208
28.4689
28.0183
27.5687
27.1199
26.6718
26.2242
25.7769
25.33
24.8834
24.437
23.9906
23.5444
23.0981
22.6516
22.2049
21.7575
21.3093
20.8598
20.4086
19.9549
19.4981
19.0371
18.571
18.0986
17.6191
17.1318
16.6373
16.1376
15.6369
15.1438
34.7019
35.1637
35.4246
35.4587
35.3386
35.0985
34.7728
34.3889
33.9676
33.5234
33.0665
32.6034
32.1381
31.6731
31.2095
30.748
30.2887
29.8315
29.3763
28.9228
28.4707
28.0197
27.5698
27.1206
26.6721
26.2241
25.7765
25.3292
24.8822
24.4353
23.9886
23.5419
23.0951
22.6482
22.2009
21.753
21.3042
20.8543
20.4028
19.9491
19.4927
19.0327
18.5686
18.0995
17.625
17.1453
16.6611
16.1748
15.6902
15.2147
34.3873
34.8454
35.1235
35.195
35.1193
34.9243
34.6397
34.2907
33.8975
33.4751
33.0344
32.583
32.126
31.6665
31.2066
30.7473
30.2893
29.8328
29.3779
28.9243
28.472
28.0208
27.5706
27.1211
26.6722
26.2238
25.7759
25.3283
24.8809
24.4337
23.9866
23.5395
23.0923
22.6449
22.1972
21.7489
21.2998
20.8497
20.3981
19.9447
19.489
19.0304
18.5685
18.103
17.6337
17.1611
16.6863
16.2117
15.7409
15.2799
34.1469
34.6007
34.8902
34.9881
34.9453
34.7844
34.5314
34.2099
33.8391
33.4343
33.007
32.5653
32.1152
31.6604
31.2036
30.7464
30.2895
29.8337
29.3789
28.9254
28.473
28.0216
27.571
27.1213
26.6721
26.2234
25.7752
25.3273
24.8796
24.432
23.9846
23.5371
23.0896
22.6419
22.1938
21.7452
21.296
20.8458
20.3944
19.9415
19.4867
19.0297
18.5703
18.1084
17.6441
17.1782
16.7119
16.2475
15.7884
15.3395
33.9726
34.4226
34.7193
34.8355
34.8157
34.6792
34.4493
34.148
33.7941
33.4026
32.9854
32.5512
32.1064
31.6554
31.201
30.7454
30.2895
29.8341
29.3796
28.9261
28.4736
28.022
27.5712
27.1212
26.6718
26.2229
25.7744
25.3262
24.8782
24.4304
23.9826
23.5349
23.087
22.639
22.1907
21.7419
21.2926
20.8425
20.3914
19.9392
19.4855
19.0303
18.5734
18.115
17.6555
17.1956
16.7369
16.2814
15.8322
15.3934
33.8591
34.3064
34.6074
34.7349
34.7298
34.609
34.3942
34.1062
33.7634
33.3808
32.9705
32.5414
32.1003
31.6518
31.1991
30.7445
30.2893
29.8343
29.3799
28.9264
28.4738
28.0221
27.5712
27.121
26.6713
26.2222
25.7734
25.325
24.8768
24.4287
23.9806
23.5326
23.0845
22.6363
22.1878
21.7389
21.2896
20.8397
20.389
19.9375
19.4851
19.0316
18.5772
18.1222
17.6671
17.2128
16.7607
16.3129
15.8721
15.4416
33.8032
34.249
34.552
34.6849
34.687
34.5739
34.3665
34.0852
33.7479
33.3698
32.9629
32.5363
32.097
31.6498
31.1981
30.744
30.2891
29.8342
29.3799
28.9264
28.4737
28.0219
27.5708
27.1205
26.6707
26.2213
25.7724
25.3237
24.8753
24.4269
23.9787
23.5304
23.0821
22.6337
22.1851
21.7361
21.2869
20.8372
20.387
19.9363
19.4851
19.0333
18.5813
18.1295
17.6784
17.229
16.7828
16.3416
15.9078
15.4844
33.8032
34.249
34.552
34.6849
34.687
34.5738
34.3665
34.0852
33.7479
33.3697
32.9628
32.5363
32.097
31.6497
31.1979
30.7439
30.2889
29.834
29.3796
28.926
28.4733
28.0214
27.5702
27.1197
26.6698
26.2203
25.7712
25.3224
24.8737
24.4252
23.9767
23.5283
23.0798
22.6312
22.1824
21.7335
21.2843
20.8349
20.3852
19.9353
19.4852
19.0351
18.5854
18.1364
17.6889
17.2438
16.8027
16.3671
15.9392
15.5216
33.8591
34.3063
34.6074
34.7349
34.7298
34.6089
34.3942
34.1062
33.7633
33.3807
32.9703
32.5412
32.1
31.6515
31.1988
30.7441
30.2888
29.8336
29.3791
28.9254
28.4726
28.0206
27.5694
27.1188
26.6688
26.2192
25.77
25.321
24.8721
24.4234
23.9748
23.5261
23.0775
22.6287
22.1799
21.7309
21.2819
20.8327
20.3835
19.9343
19.4853
19.0367
18.589
18.1425
17.6982
17.2569
16.82
16.3892
15.9662
15.5534
33.9725
34.4225
34.7193
34.8354
34.8157
34.6791
34.4493
34.148
33.7939
33.4024
32.9852
32.551
32.1061
31.6549
31.2005
30.7446
30.2886
29.833
29.3782
28.9244
28.4715
28.0195
27.5682
27.1177
26.6676
26.2179
25.7686
25.3195
24.8705
24.4216
23.9728
23.524
23.0752
22.6263
22.1774
21.7284
21.2794
20.8305
20.3817
19.9331
19.4851
19.0379
18.5918
18.1476
17.706
17.2679
16.8346
16.4077
15.9888
15.5799
34.1467
34.6006
34.89
34.988
34.9452
34.7843
34.5313
34.2098
33.839
33.4341
33.0067
32.565
32.1147
31.6598
31.2028
30.7454
30.2883
29.8321
29.377
28.923
28.4701
28.0181
27.5669
27.1163
26.6662
26.2165
25.7671
25.3179
24.8688
24.4198
23.9708
23.5219
23.0728
22.6238
22.1748
21.7258
21.2768
20.8281
20.3796
19.9316
19.4844
19.0383
18.5937
18.1514
17.712
17.2766
16.8463
16.4226
16.0069
15.6012
34.3871
34.8453
35.1234
35.1948
35.1192
34.9242
34.6396
34.2906
33.8973
33.4748
33.0341
32.5826
32.1254
31.6657
31.2056
30.7461
30.2878
29.8309
29.3755
28.9214
28.4684
28.0164
27.5653
27.1148
26.6647
26.215
25.7656
25.3163
24.8671
24.418
23.9688
23.5197
23.0705
22.6213
22.1721
21.723
21.2741
20.8254
20.3772
19.9296
19.483
19.0378
18.5944
18.1536
17.716
17.2827
16.8548
16.4337
16.0206
15.6173
34.7017
35.1635
35.4244
35.4586
35.3385
35.0984
34.7727
34.3888
33.9673
33.5231
33.0661
32.6029
32.1374
31.6722
31.2083
30.7465
30.2869
29.8292
29.3735
28.9193
28.4664
28.0145
27.5635
27.113
26.6631
26.2134
25.764
25.3146
24.8654
24.4161
23.9668
23.5175
23.0681
22.6187
22.1694
21.7202
21.2711
20.8225
20.3744
19.927
19.4809
19.0363
18.5938
18.1541
17.7179
17.2862
16.8602
16.4409
16.0298
15.6284
35.1018
35.5647
35.7998
35.7826
35.6037
35.3058
34.9287
34.5021
34.047
33.5771
33.1013
32.6246
32.1499
31.6785
31.2106
30.7464
30.2853
29.827
29.371
28.9167
28.464
28.0123
27.5614
27.1112
26.6613
26.2117
25.7623
25.3129
24.8636
24.4142
23.9648
23.5152
23.0657
22.6161
22.1665
21.7171
21.2679
20.8191
20.371
19.9238
19.4778
19.0336
18.5917
18.1527
17.7175
17.287
16.8622
16.4443
16.0346
15.6344
35.6039
36.0615
36.2579
36.1707
35.9152
35.5447
35.105
34.6277
34.1334
33.6344
33.1376
32.6464
32.1618
31.6838
31.212
30.7453
30.283
29.8241
29.3679
28.9137
28.4612
28.0098
27.5592
27.1091
26.6595
26.21
25.7606
25.3112
24.8618
24.4123
23.9627
23.513
23.0632
22.6133
22.1635
21.7138
21.2643
20.8153
20.367
19.9197
19.4738
19.0297
18.588
18.1495
17.7148
17.285
16.8609
16.4439
16.035
15.6356
36.2311
36.6708
36.8092
36.6267
36.2724
35.8121
35.2975
34.7615
34.2231
33.6922
33.173
32.6664
32.1718
31.6875
31.2118
30.7429
30.2795
29.8203
29.3641
28.9103
28.4581
28.007
27.5568
27.107
26.6575
26.2082
25.7589
25.3095
24.8601
24.4104
23.9607
23.5107
23.0606
22.6105
22.1603
21.7103
21.2605
20.8111
20.3625
19.9149
19.4687
19.0245
18.5828
18.1442
17.7097
17.2801
16.8563
16.4396
16.0311
15.6319
37.0166
37.4147
37.4659
37.1539
36.6732
36.1032
35.5009
34.8984
34.3118
33.747
33.2047
32.683
32.1786
31.6884
31.2094
30.7389
30.2748
29.8155
29.3596
28.9063
28.4546
28.004
27.5542
27.1048
26.6556
26.2064
25.7572
25.3079
24.8584
24.4086
23.9586
23.5084
23.0581
22.6075
22.157
21.7065
21.2563
20.8064
20.3573
19.9092
19.4626
19.018
18.5758
18.137
17.7022
17.2723
16.8484
16.4315
16.0228
15.6234
38.0087
38.3218
38.2418
37.7541
37.1127
36.4106
35.7074
35.0318
34.3941
33.7948
33.2299
32.6939
32.1809
31.6858
31.2042
30.7327
30.2685
29.8096
29.3544
28.9017
28.4507
28.0008
27.5515
27.1025
26.6536
26.2047
25.7556
25.3063
24.8567
24.4068
23.9567
23.5062
23.0555
22.6046
22.1536
21.7026
21.2517
20.8013
20.3515
19.9028
19.4555
19.0101
18.5673
18.1277
17.6922
17.2617
16.8372
16.4197
16.0103
15.6103
39.278
39.4291
39.151
38.4258
37.5822
36.7236
35.9073
35.1536
34.4639
33.8311
33.2454
32.697
32.1771
31.6785
31.1956
30.7241
30.2605
29.8025
29.3483
28.8966
28.4465
27.9974
27.5487
27.1002
26.6517
26.203
25.7541
25.3048
24.8552
24.4052
23.9548
23.504
23.0529
22.6016
22.15
21.6984
21.2469
20.7957
20.3451
19.8955
19.4472
19.0009
18.5571
18.1165
17.6799
17.2483
16.8227
16.4042
15.9937
15.5926
40.9292
40.783
40.2057
39.1611
38.0665
37.0267
36.0874
35.2537
34.5138
33.8509
33.2478
32.6901
32.1658
31.6658
31.1832
30.7127
30.2506
29.7941
29.3414
28.891
28.442
27.9938
27.5459
27.098
26.6499
26.2015
25.7527
25.3034
24.8538
24.4036
23.953
23.5019
23.0504
22.5986
22.1464
21.6941
21.2418
20.7898
20.3382
19.8875
19.438
18.9904
18.5453
18.1033
17.6653
17.2322
16.8051
16.3849
15.973
15.5703
43.1215
42.44
41.4107
39.9414
38.5413
37.2983
36.231
35.3202
34.536
33.8488
33.2337
32.671
32.1458
31.647
31.1664
30.6984
30.2387
29.7845
29.3337
28.885
28.4374
27.9902
27.5431
27.0958
26.6482
26.2
25.7514
25.3023
24.8525
24.4022
23.9514
23.4999
23.048
22.5956
22.1428
21.6898
21.2366
20.7835
20.3308
19.8788
19.4279
18.9788
18.5319
18.0882
17.6483
17.2134
16.7843
16.3621
15.9482
15.5435
46.099
44.4647
42.7554
40.7306
38.9698
37.5093
36.3179
35.34
34.5219
33.8198
33.2001
32.6381
32.1161
31.6214
31.1452
30.6811
30.225
29.7737
29.3254
28.8786
28.4325
27.9866
27.5404
27.0938
26.6466
26.1988
25.7504
25.3013
24.8515
24.401
23.9499
23.4981
23.0457
22.5928
22.1393
21.6853
21.2312
20.7769
20.3229
19.8694
19.4169
18.966
18.5172
18.0713
17.6292
17.1919
16.7604
16.3358
15.9194
15.5123
50.2078
46.9146
44.1992
41.4682
39.3
37.6235
36.3249
35.2989
34.4636
33.7594
33.1445
32.59
32.0761
31.589
31.1194
30.661
30.2094
29.7619
29.3165
28.872
28.4277
27.9831
27.5379
27.092
26.6454
26.1979
25.7496
25.3006
24.8507
24.4001
23.9487
23.4966
23.0437
22.5901
22.1358
21.681
21.2257
20.7702
20.3147
19.8596
19.4052
18.9522
18.5011
18.0528
17.6081
17.168
16.7336
16.3061
15.8868
15.4768
55.9285
49.8002
45.6306
42.049
39.4578
37.5955
36.2267
35.1836
34.3541
33.6642
33.0655
32.5264
32.0258
31.5499
31.0894
30.6383
30.1924
29.7493
29.3073
28.8654
28.4231
27.9799
27.5357
27.0906
26.6444
26.1973
25.7492
25.3002
24.8503
24.3995
23.9478
23.4953
23.0419
22.5876
22.1325
21.6767
21.2203
20.7634
20.3064
19.8494
19.3929
18.9375
18.4839
18.0327
17.585
17.1417
16.704
16.2731
15.8503
15.437
64.5681
53.0453
46.7281
42.2519
39.3161
37.3572
35.9879
34.976
34.1843
33.5296
32.9609
32.4461
31.9649
31.5042
31.0554
30.6132
30.1742
29.7362
29.2981
28.859
28.4187
27.977
27.5339
27.0895
26.6439
26.197
25.7491
25.3001
24.8502
24.3992
23.9472
23.4943
23.0404
22.5854
22.1295
21.6727
21.215
20.7566
20.2978
19.8388
19.38
18.922
18.4654
18.011
17.5597
17.1127
16.6712
16.2363
15.8096
15.3923
80.547
56.4181
46.8477
41.7097
38.6923
36.8201
35.5653
34.6542
33.9424
33.349
32.8268
32.3471
31.8922
31.4511
31.017
30.5857
30.1548
29.7227
29.2889
28.8529
28.4148
27.9747
27.5327
27.089
26.6438
26.1973
25.7495
25.3006
24.8505
24.3993
23.9471
23.4937
23.0392
22.5836
22.1268
21.6688
21.2098
20.7497
20.2889
19.8276
19.3661
18.905
18.4449
17.9868
17.5314
17.08
16.6338
16.1942
15.7627
15.3407
106.933
59.425
46.2578
40.6933
37.7982
36.1429
35.0721
34.2974
33.6841
33.1616
32.6908
32.2485
31.8211
31.4001
30.9808
30.5603
30.1372
29.7108
29.2809
28.8479
28.4118
27.9731
27.532
27.089
26.6442
26.1979
25.7502
25.3012
24.8511
24.3998
23.9472
23.4935
23.0385
22.5822
22.1246
21.6656
21.2052
20.7436
20.2809
19.8173
19.3532
18.8892
18.4258
17.9639
17.5044
17.0486
16.5979
16.1535
15.7172
15.2906
7.71154
9.50706
9.60214
9.95478
10.145
10.2809
10.361
10.4041
10.4178
10.409
10.3819
10.3399
10.2856
10.221
10.1477
10.0669
9.97971
9.88708
9.78975
9.6884
9.58359
9.47582
9.36552
9.25306
9.13877
9.02293
8.9058
8.78759
8.66848
8.54863
8.42818
8.30726
8.18596
8.06437
7.94255
7.82058
7.6985
7.57636
7.45418
7.33199
7.20983
7.0877
6.96561
6.84358
6.72161
6.59971
6.47788
6.35612
6.23442
6.11279
5.99123
5.86972
5.74828
5.62688
5.50554
5.38424
5.26298
5.14176
5.02058
4.89942
4.7783
4.6572
4.53612
4.41506
4.29402
4.17299
4.05197
3.93097
3.80998
3.68899
3.56801
3.44704
3.32607
3.20511
3.08415
2.9632
2.84224
2.72129
2.60034
2.47939
2.35844
2.2375
2.11655
1.9956
1.87466
1.75371
1.63277
1.51182
1.39088
1.26993
1.14899
1.02804
0.907098
0.786154
0.665209
0.544264
0.423321
0.302373
0.181438
0.0604633
9.95887
10.4591
10.1796
10.3254
10.4065
10.4756
10.5121
10.5242
10.5148
10.4878
10.4463
10.3925
10.3283
10.2555
10.1752
10.0886
9.99656
9.89982
9.79906
9.69485
9.58768
9.47798
9.36612
9.25242
9.13717
9.02059
8.90292
8.78432
8.66497
8.54499
8.4245
8.3036
8.18238
8.06091
7.93925
7.81746
7.69558
7.57363
7.45166
7.32968
7.20771
7.08577
6.96387
6.84202
6.72021
6.59846
6.47677
6.35514
6.23356
6.11204
5.99057
5.86915
5.74778
5.62646
5.50518
5.38393
5.26272
5.14155
5.0204
4.89928
4.77818
4.6571
4.53604
4.415
4.29397
4.17295
4.05195
3.93095
3.80997
3.68899
3.56801
3.44704
3.32608
3.20512
3.08416
2.96321
2.84225
2.7213
2.60035
2.4794
2.35845
2.23751
2.11656
1.99561
1.87467
1.75372
1.63278
1.51183
1.39088
1.26994
1.14899
1.02805
0.907102
0.786157
0.665212
0.544266
0.423321
0.302374
0.181435
0.0604689
11.1886
11.1499
10.7041
10.6888
10.6724
10.6765
10.6688
10.6489
10.6154
10.5696
10.513
10.4469
10.3726
10.2913
10.2039
10.1113
10.0142
9.9132
9.80891
9.70176
9.59216
9.48047
9.36701
9.25203
9.13576
9.01842
8.90017
8.78117
8.66155
8.54141
8.42086
8.29997
8.17882
8.05747
7.93596
7.81434
7.69265
7.5709
7.44913
7.32735
7.20558
7.08384
6.96212
6.84044
6.7188
6.5972
6.47565
6.35415
6.23269
6.11127
5.9899
5.86857
5.74728
5.62603
5.50481
5.38362
5.26246
5.14132
5.02021
4.89912
4.77805
4.657
4.53596
4.41493
4.29392
4.17292
4.05192
3.93094
3.80996
3.68898
3.56801
3.44705
3.32609
3.20513
3.08417
2.96322
2.84226
2.72131
2.60036
2.47941
2.35847
2.23752
2.11657
1.99562
1.87468
1.75373
1.63278
1.51184
1.39089
1.26995
1.149
1.02805
0.907106
0.78616
0.665214
0.544268
0.423322
0.302374
0.181431
0.0604743
12.0301
11.6918
11.1693
11.0317
10.9335
10.878
10.8277
10.776
10.7182
10.6533
10.5813
10.5026
10.4179
10.328
10.2333
10.1346
10.0323
9.92706
9.81916
9.70901
9.59694
9.48322
9.36811
9.25181
9.13451
9.01637
8.89753
8.7781
8.65819
8.53789
8.41726
8.29638
8.17529
8.05404
7.93268
7.81123
7.68971
7.56816
7.44659
7.32501
7.20344
7.08189
6.96035
6.83884
6.71737
6.59592
6.47452
6.35314
6.2318
6.1105
5.98923
5.86798
5.74677
5.62559
5.50443
5.3833
5.26219
5.1411
5.02002
4.89896
4.77792
4.65689
4.53587
4.41487
4.29387
4.17288
4.05189
3.93092
3.80994
3.68898
3.56801
3.44705
3.32609
3.20513
3.08418
2.96323
2.84228
2.72133
2.60038
2.47943
2.35848
2.23753
2.11658
1.99563
1.87469
1.75374
1.63279
1.51185
1.3909
1.26995
1.149
1.02806
0.90711
0.786163
0.665216
0.544269
0.423322
0.302375
0.181428
0.0604795
12.6411
12.1346
11.5774
11.3489
11.1842
11.076
10.9858
10.9035
10.8218
10.7379
10.6505
10.5592
10.464
10.3653
10.2632
10.1583
10.0509
9.94126
9.8297
9.71652
9.60193
9.48615
9.36936
9.25172
9.13337
9.01441
8.89496
8.77509
8.65489
8.5344
8.41369
8.2928
8.17177
8.05063
7.9294
7.80811
7.68678
7.56542
7.44405
7.32267
7.20129
7.07992
6.95857
6.83724
6.71593
6.59464
6.47337
6.35213
6.23091
6.10971
5.98854
5.86739
5.74626
5.62514
5.50405
5.38297
5.26191
5.14086
5.01983
4.8988
4.77779
4.65679
4.53579
4.4148
4.29382
4.17284
4.05186
3.9309
3.80993
3.68897
3.56801
3.44705
3.3261
3.20514
3.08419
2.96324
2.84229
2.72134
2.60039
2.47944
2.35849
2.23754
2.11659
1.99564
1.8747
1.75375
1.6328
1.51185
1.39091
1.26996
1.14901
1.02806
0.907115
0.786167
0.665219
0.544271
0.423323
0.302375
0.181425
0.0604847
13.0895
12.5006
11.933
11.6389
11.4213
11.2673
11.141
11.0299
10.9252
10.8226
10.7199
10.616
10.5104
10.4028
10.2934
10.1823
10.0697
9.95563
9.8404
9.72415
9.60703
9.48918
9.3707
9.25171
9.13229
9.01251
8.89244
8.77212
8.65161
8.53094
8.41014
8.28924
8.16826
8.04721
7.92612
7.80499
7.68384
7.56267
7.4415
7.32031
7.19913
7.07796
6.95679
6.83563
6.71448
6.59334
6.47222
6.3511
6.23001
6.10892
5.98785
5.86678
5.74573
5.62469
5.50366
5.38264
5.26163
5.14063
5.01963
4.89864
4.77766
4.65668
4.5357
4.41473
4.29376
4.1728
4.05183
3.93087
3.80992
3.68896
3.56801
3.44705
3.3261
3.20515
3.0842
2.96325
2.8423
2.72135
2.6004
2.47945
2.3585
2.23755
2.1166
1.99565
1.87471
1.75376
1.63281
1.51186
1.39091
1.26996
1.14902
1.02807
0.907119
0.78617
0.665221
0.544273
0.423324
0.302376
0.181422
0.0604896
13.4289
12.8073
12.2424
11.902
11.6428
11.4501
11.2915
11.1537
11.0271
10.9065
10.789
10.6727
10.5566
10.4404
10.3236
10.2063
10.0884
9.97002
9.85112
9.73182
9.61217
9.49223
9.37207
9.25172
9.13123
9.01063
8.88993
8.76917
8.64835
8.52749
8.4066
8.28569
8.16475
8.04381
7.92285
7.80188
7.68091
7.55993
7.43894
7.31796
7.19697
7.07599
6.955
6.83401
6.71303
6.59204
6.47106
6.35008
6.2291
6.10812
5.98715
5.86618
5.74521
5.62424
5.50328
5.38231
5.26135
5.14039
5.01943
4.89848
4.77752
4.65657
4.53561
4.41466
4.29371
4.17275
4.0518
3.93085
3.8099
3.68895
3.568
3.44705
3.3261
3.20516
3.08421
2.96326
2.84231
2.72136
2.60041
2.47946
2.35851
2.23756
2.11661
1.99566
1.87472
1.75377
1.63282
1.51187
1.39092
1.26997
1.14902
1.02807
0.907123
0.786173
0.665224
0.544275
0.423324
0.302376
0.181419
0.0604944
13.6956
13.0679
12.5121
12.1396
11.8481
11.623
11.4359
11.2737
11.1267
10.989
10.857
10.7286
10.6024
10.4776
10.3536
10.2301
10.1071
9.9843
9.86175
9.7394
9.61724
9.49524
9.3734
9.2517
9.13015
9.00872
8.88741
8.7662
8.64508
8.52404
8.40306
8.28213
8.16125
8.0404
7.91957
7.79876
7.67797
7.55718
7.43639
7.3156
7.19481
7.07401
6.95321
6.8324
6.71157
6.59074
6.4699
6.34905
6.2282
6.10733
5.98645
5.86557
5.74468
5.62379
5.50289
5.38198
5.26107
5.14015
5.01923
4.89831
4.77738
4.65645
4.53552
4.41459
4.29365
4.17271
4.05177
3.93083
3.80989
3.68895
3.568
3.44706
3.32611
3.20516
3.08421
2.96327
2.84232
2.72137
2.60042
2.47947
2.35852
2.23757
2.11662
1.99568
1.87473
1.75378
1.63283
1.51188
1.39093
1.26998
1.14903
1.02808
0.907127
0.786177
0.665227
0.544276
0.423325
0.302377
0.181416
0.060499
13.9121
13.2922
12.7479
12.3537
12.0373
11.7852
11.5733
11.3891
11.2231
11.0692
10.9235
10.7835
10.6474
10.5141
10.383
10.2535
10.1254
9.9983
9.87215
9.74681
9.62216
9.49812
9.37462
9.2516
9.129
9.00677
8.88485
8.7632
8.64179
8.52056
8.3995
8.27857
8.15774
8.03699
7.9163
7.79565
7.67503
7.55443
7.43384
7.31325
7.19265
7.07205
6.95142
6.83078
6.71012
6.58945
6.46875
6.34803
6.22729
6.10654
5.98576
5.86497
5.74416
5.62334
5.5025
5.38165
5.26079
5.13992
5.01904
4.89815
4.77725
4.65634
4.53543
4.41452
4.2936
4.17267
4.05174
3.93081
3.80988
3.68894
3.568
3.44706
3.32611
3.20517
3.08422
2.96328
2.84233
2.72138
2.60043
2.47948
2.35853
2.23759
2.11664
1.99569
1.87474
1.75378
1.63283
1.51188
1.39093
1.26998
1.14903
1.02808
0.907131
0.78618
0.665229
0.544278
0.423326
0.302378
0.181414
0.0605033
14.0927
13.487
12.9549
12.5463
12.2108
11.9364
11.7031
11.4992
11.3158
11.1468
10.988
10.8368
10.6911
10.5497
10.4117
10.2763
10.1432
10.0119
9.88221
9.75392
9.62684
9.5008
9.37569
9.25137
9.12775
9.00473
8.88222
8.76015
8.63845
8.51706
8.39592
8.27498
8.15421
8.03357
7.91302
7.79254
7.6721
7.55169
7.4313
7.31091
7.1905
7.07008
6.94964
6.82918
6.70868
6.58816
6.4676
6.34701
6.22639
6.10575
5.98507
5.86437
5.74364
5.62289
5.50212
5.38132
5.26051
5.13968
5.01884
4.89798
4.77712
4.65624
4.53535
4.41445
4.29354
4.17263
4.05171
3.93079
3.80986
3.68893
3.568
3.44706
3.32612
3.20518
3.08423
2.96329
2.84234
2.72139
2.60044
2.4795
2.35855
2.2376
2.11665
1.9957
1.87474
1.75379
1.63284
1.51189
1.39094
1.26999
1.14904
1.02809
0.907135
0.786184
0.665232
0.54428
0.423327
0.302378
0.181412
0.0605074
14.2466
13.6576
13.1373
12.7196
12.3694
12.0767
11.8248
11.6034
11.4041
11.221
11.0501
10.8882
10.7334
10.5841
10.4394
10.2983
10.1603
10.0249
9.89181
9.76065
9.63119
9.50322
9.37652
9.25095
9.12634
9.00256
8.87949
8.75702
8.63505
8.51351
8.3923
8.27138
8.15067
8.03014
7.90973
7.78942
7.66917
7.54896
7.42876
7.30857
7.18836
7.06813
6.94788
6.82758
6.70725
6.58688
6.46646
6.346
6.2255
6.10497
5.98439
5.86377
5.74313
5.62245
5.50174
5.381
5.26024
5.13945
5.01865
4.89782
4.77698
4.65613
4.53526
4.41438
4.29349
4.17259
4.05168
3.93077
3.80985
3.68892
3.56799
3.44706
3.32612
3.20518
3.08424
2.9633
2.84235
2.7214
2.60046
2.47951
2.35856
2.23761
2.11666
1.99571
1.87475
1.7538
1.63285
1.5119
1.39095
1.27
1.14904
1.02809
0.907139
0.786187
0.665234
0.544282
0.423328
0.302379
0.18141
0.0605112
14.3801
13.808
13.2986
12.8752
12.5139
12.2061
11.9383
11.7014
11.4877
11.2917
11.1093
10.9374
10.7738
10.6171
10.4658
10.3193
10.1766
10.0373
9.90082
9.76689
9.63514
9.50529
9.37708
9.2503
9.12474
9.00024
8.87663
8.75379
8.63158
8.5099
8.38864
8.26774
8.14711
8.0267
7.90645
7.78631
7.66625
7.54623
7.42624
7.30624
7.18623
7.0662
6.94612
6.826
6.70583
6.58561
6.46533
6.34501
6.22463
6.10419
5.98371
5.86319
5.74262
5.62201
5.50136
5.38068
5.25997
5.13923
5.01846
4.89767
4.77686
4.65602
4.53518
4.41431
4.29344
4.17255
4.05166
3.93075
3.80984
3.68892
3.56799
3.44706
3.32613
3.20519
3.08425
2.96331
2.84236
2.72142
2.60047
2.47952
2.35857
2.23762
2.11667
1.99572
1.87476
1.75381
1.63286
1.51191
1.39095
1.27
1.14905
1.0281
0.907143
0.78619
0.665237
0.544284
0.423329
0.30238
0.181408
0.0605147
14.4974
13.9411
13.4415
13.015
12.6451
12.3249
12.0435
11.7929
11.5663
11.3584
11.1653
10.984
10.8122
10.6483
10.4909
10.3391
10.1919
10.0488
9.90914
9.77255
9.6386
9.50695
9.37729
9.24936
9.12291
8.99773
8.87362
8.75044
8.62801
8.50621
8.38493
8.26407
8.14353
8.02324
7.90315
7.78319
7.66333
7.54351
7.42372
7.30393
7.18412
7.06427
6.94438
6.82443
6.70443
6.58436
6.46422
6.34402
6.22376
6.10344
5.98305
5.86261
5.74212
5.62158
5.501
5.38037
5.25971
5.13901
5.01828
4.89752
4.77673
4.65592
4.5351
4.41425
4.29339
4.17252
4.05163
3.93073
3.80983
3.68891
3.56799
3.44707
3.32613
3.2052
3.08426
2.96332
2.84237
2.72143
2.60048
2.47953
2.35858
2.23763
2.11668
1.99573
1.87477
1.75382
1.63287
1.51191
1.39096
1.27001
1.14905
1.0281
0.907148
0.786194
0.66524
0.544286
0.423331
0.302381
0.181406
0.0605179
14.6012
14.0593
13.5685
13.1404
12.7639
12.4335
12.1405
11.8779
11.6396
11.4209
11.2179
11.0278
10.8483
10.6777
10.5144
10.3575
10.2061
10.0593
9.91665
9.77753
9.64149
9.50814
9.37711
9.24809
9.1208
8.99499
8.87044
8.74694
8.62433
8.50244
8.38115
8.26034
8.13991
8.01977
7.89985
7.78008
7.66041
7.54081
7.42122
7.30164
7.18203
7.06237
6.94266
6.82289
6.70304
6.58312
6.46313
6.34306
6.22291
6.10269
5.98241
5.86205
5.74164
5.62117
5.50064
5.38007
5.25945
5.13879
5.0181
4.89737
4.77661
4.65583
4.53502
4.41419
4.29335
4.17248
4.05161
3.93072
3.80982
3.68891
3.56799
3.44707
3.32614
3.20521
3.08427
2.96333
2.84239
2.72144
2.60049
2.47954
2.35859
2.23764
2.11669
1.99574
1.87478
1.75383
1.63288
1.51192
1.39097
1.27001
1.14906
1.02811
0.907152
0.786198
0.665243
0.544288
0.423332
0.302381
0.181405
0.0605208
14.6935
14.1644
13.6813
13.2526
12.8711
12.5323
12.2293
11.9561
11.7074
11.4788
11.2669
11.0686
10.8819
10.7049
10.5361
10.3745
10.219
10.0688
9.92326
9.78174
9.64373
9.50878
9.37647
9.24645
9.11839
8.992
8.86704
8.74328
8.62052
8.49858
8.3773
8.25657
8.13626
8.01628
7.89654
7.77697
7.65751
7.53811
7.41874
7.29937
7.17996
7.0605
6.94097
6.82137
6.70168
6.58191
6.46206
6.34211
6.22208
6.10197
5.98177
5.86151
5.74117
5.62076
5.5003
5.37978
5.25921
5.13859
5.01793
4.89723
4.7765
4.65574
4.53495
4.41414
4.2933
4.17245
4.05159
3.9307
3.80981
3.68891
3.568
3.44708
3.32615
3.20522
3.08428
2.96334
2.8424
2.72145
2.60051
2.47956
2.3586
2.23765
2.1167
1.99575
1.87479
1.75384
1.63288
1.51193
1.39098
1.27002
1.14907
1.02811
0.907156
0.786201
0.665246
0.544291
0.423333
0.302382
0.181404
0.0605234
14.7757
14.2578
13.7813
13.3528
12.9674
12.6216
12.3101
12.0276
11.7697
11.5322
11.3119
11.1062
10.9127
10.7298
10.5559
10.3898
10.2305
10.0771
9.92886
9.7851
9.64525
9.50881
9.37532
9.24438
9.11562
8.98873
8.86342
8.73944
8.61656
8.4946
8.37337
8.25274
8.13257
8.01276
7.89322
7.77385
7.65461
7.53543
7.41628
7.29712
7.17791
7.05864
6.9393
6.81987
6.70035
6.58073
6.46101
6.34119
6.22127
6.10126
5.98116
5.86098
5.74071
5.62037
5.49997
5.3795
5.25897
5.13839
5.01777
4.8971
4.77639
4.65565
4.53488
4.41409
4.29327
4.17243
4.05157
3.93069
3.80981
3.68891
3.568
3.44708
3.32616
3.20523
3.08429
2.96335
2.84241
2.72147
2.60052
2.47957
2.35862
2.23766
2.11671
1.99576
1.8748
1.75385
1.63289
1.51194
1.39098
1.27003
1.14907
1.02812
0.907161
0.786205
0.665249
0.544293
0.423335
0.302384
0.181403
0.0605257
14.849
14.3407
13.87
13.4419
13.0534
12.7019
12.383
12.0925
11.8263
11.5808
11.353
11.1403
10.9407
10.7523
10.5736
10.4034
10.2405
10.0841
9.93335
9.78752
9.64598
9.50818
9.37362
9.24185
9.11248
8.98515
8.85954
8.7354
8.61245
8.4905
8.36935
8.24885
8.12885
8.00922
7.88989
7.77074
7.65173
7.53277
7.41384
7.29489
7.17589
7.05682
6.93767
6.81841
6.69905
6.57958
6.45999
6.3403
6.22049
6.10058
5.98057
5.86047
5.74028
5.62
5.49965
5.37923
5.25875
5.13821
5.01761
4.89697
4.77629
4.65557
4.53482
4.41404
4.29323
4.1724
4.05155
3.93069
3.8098
3.68891
3.568
3.44709
3.32617
3.20524
3.08431
2.96337
2.84242
2.72148
2.60053
2.47958
2.35863
2.23768
2.11672
1.99577
1.87481
1.75386
1.6329
1.51195
1.39099
1.27003
1.14908
1.02812
0.907165
0.786209
0.665252
0.544295
0.423337
0.302385
0.181403
0.0605277
14.914