/*--------------------------------*- C++ -*----------------------------------*\
  =========                 |
  \\      /  F ield         | OpenFOAM: The Open Source CFD Toolbox
   \\    /   O peration     | Website:  https://openfoam.org
    \\  /    A nd           | Version:  6
     \\/     M anipulation  |
\*---------------------------------------------------------------------------*/
FoamFile
{
    version     2.0;
    format      ascii;
    class       volVectorField;
    location    "0";
    object      U;
}
// * * * * * * * * * * * * * * * * * * * * * * * * * * * * * * * * * * * * * //

dimensions      [0 1 -1 0 0 0 0];

internalField   nonuniform List<vector> 
9000
(
(0.54583 0.119573 0)
(0.429697 0.0567283 0)
(0.265515 0.0184032 0)
(0.188226 0.0084739 0)
(0.146295 0.0042565 0)
(0.12107 0.00231515 0)
(0.104978 0.00137338 0)
(0.0942482 0.000867672 0)
(0.0868772 0.000570247 0)
(0.0817248 0.000383404 0)
(0.0780913 0.000260567 0)
(0.0755216 0.000177476 0)
(0.0737071 0.00012037 0)
(0.0724322 8.08504e-05 0)
(0.0715434 5.34955e-05 0)
(0.0709303 3.46606e-05 0)
(0.0705128 2.1826e-05 0)
(0.0702329 1.32189e-05 0)
(0.0700486 7.57899e-06 0)
(0.0699297 4.00706e-06 0)
(0.0698544 1.86156e-06 0)
(0.0698075 6.86601e-07 0)
(0.069778 1.60404e-07 0)
(0.0697587 5.7777e-08 0)
(0.0697444 2.22631e-07 0)
(0.069732 5.47677e-07 0)
(0.0697194 9.59384e-07 0)
(0.0697056 1.40678e-06 0)
(0.0696902 1.85303e-06 0)
(0.0696735 2.26902e-06 0)
(0.0696563 2.6283e-06 0)
(0.06964 2.90275e-06 0)
(0.0696265 3.05873e-06 0)
(0.0696188 3.05301e-06 0)
(0.0696206 2.82809e-06 0)
(0.0696371 2.30615e-06 0)
(0.0696754 1.38051e-06 0)
(0.069745 -9.75386e-08 0)
(0.0698592 -2.34073e-06 0)
(0.0700367 -5.66685e-06 0)
(0.0703044 -1.05856e-05 0)
(0.0707021 -1.80103e-05 0)
(0.0712921 -2.98482e-05 0)
(0.0721772 -5.07233e-05 0)
(0.0735441 -9.33128e-05 0)
(0.0757748 -0.000200273 0)
(0.0797179 -0.0005361 0)
(0.0871068 -0.00149544 0)
(0.106803 -0.00610094 0)
(0.155726 -0.0440604 0)
(0.876855 0.28415 0)
(0.794752 0.206726 0)
(0.605464 0.116404 0)
(0.479341 0.0667144 0)
(0.394816 0.0399353 0)
(0.337487 0.025185 0)
(0.298005 0.016615 0)
(0.270367 0.0113223 0)
(0.250761 0.00787851 0)
(0.236739 0.0055486 0)
(0.226671 0.00392928 0)
(0.219439 0.00278443 0)
(0.214259 0.0019672 0)
(0.210566 0.00138148 0)
(0.207953 0.000961815 0)
(0.20612 0.000662267 0)
(0.204849 0.000449934 0)
(0.203978 0.000300927 0)
(0.20339 0.000197766 0)
(0.202998 0.00012762 0)
(0.20274 8.10661e-05 0)
(0.202572 5.12033e-05 0)
(0.202462 3.29939e-05 0)
(0.202387 2.27748e-05 0)
(0.202333 1.78888e-05 0)
(0.202289 1.64047e-05 0)
(0.202249 1.6903e-05 0)
(0.202211 1.83105e-05 0)
(0.202172 1.97706e-05 0)
(0.202133 2.05377e-05 0)
(0.202098 1.9887e-05 0)
(0.20207 1.70309e-05 0)
(0.202057 1.10339e-05 0)
(0.202067 7.12943e-07 0)
(0.202113 -1.54872e-05 0)
(0.202212 -3.96684e-05 0)
(0.202387 -7.47361e-05 0)
(0.20267 -0.000124801 0)
(0.203104 -0.000195837 0)
(0.20375 -0.000296827 0)
(0.204697 -0.000441868 0)
(0.206075 -0.000654329 0)
(0.208084 -0.000975712 0)
(0.211046 -0.00148603 0)
(0.215506 -0.00235429 0)
(0.222452 -0.00397425 0)
(0.233761 -0.00735353 0)
(0.252928 -0.015162 0)
(0.289741 -0.0349239 0)
(0.356839 -0.0961933 0)
(0.950746 0.290525 0)
(0.941058 0.286879 0)
(0.808354 0.20318 0)
(0.689567 0.135497 0)
(0.594138 0.0901134 0)
(0.522289 0.0610001 0)
(0.469353 0.0421569 0)
(0.430585 0.0296319 0)
(0.402214 0.0210717 0)
(0.381458 0.0150844 0)
(0.36629 0.010825 0)
(0.355238 0.00776131 0)
(0.347219 0.00554429 0)
(0.341435 0.00393686 0)
(0.337295 0.00277304 0)
(0.334356 0.00193397 0)
(0.332292 0.00133314 0)
(0.330857 0.000906939 0)
(0.329872 0.000608293 0)
(0.329203 0.000402316 0)
(0.328754 0.000263153 0)
(0.328454 0.000171694 0)
(0.328252 0.000113862 0)
(0.328114 7.93181e-05 0)
(0.328013 6.04795e-05 0)
(0.327935 5.17641e-05 0)
(0.327868 4.90072e-05 0)
(0.327808 4.90065e-05 0)
(0.327752 4.91586e-05 0)
(0.327702 4.71612e-05 0)
(0.327662 4.07521e-05 0)
(0.327641 2.74638e-05 0)
(0.327649 4.3658e-06 0)
(0.327704 -3.22361e-05 0)
(0.327826 -8.71866e-05 0)
(0.328044 -0.000167019 0)
(0.3284 -0.000280751 0)
(0.328946 -0.000441121 0)
(0.329757 -0.000666594 0)
(0.330937 -0.000984773 0)
(0.332634 -0.00143848 0)
(0.335063 -0.00209713 0)
(0.338549 -0.00307926 0)
(0.343591 -0.00459935 0)
(0.350992 -0.00707027 0)
(0.362073 -0.0113378 0)
(0.379046 -0.0192318 0)
(0.405346 -0.0348095 0)
(0.447192 -0.0670145 0)
(0.507959 -0.137822 0)
(0.962404 0.253919 0)
(0.995285 0.319466 0)
(0.921949 0.266949 0)
(0.831882 0.198915 0)
(0.745563 0.143025 0)
(0.673391 0.102209 0)
(0.61636 0.0733211 0)
(0.572517 0.0528978 0)
(0.539303 0.0383312 0)
(0.514375 0.0278336 0)
(0.495797 0.0202037 0)
(0.482042 0.0146271 0)
(0.471928 0.010541 0)
(0.464545 0.00754794 0)
(0.459201 0.00536166 0)
(0.455366 0.00377267 0)
(0.452641 0.00262599 0)
(0.450724 0.00180617 0)
(0.449391 0.00122687 0)
(0.448472 0.000823507 0)
(0.447844 0.000547854 0)
(0.447417 0.000363982 0)
(0.447125 0.000245233 0)
(0.446922 0.00017188 0)
(0.446775 0.000129338 0)
(0.446662 0.000106767 0)
(0.446571 9.59964e-05 0)
(0.446492 9.06636e-05 0)
(0.446426 8.55314e-05 0)
(0.446373 7.59136e-05 0)
(0.44634 5.71698e-05 0)
(0.446339 2.42226e-05 0)
(0.446386 -2.89548e-05 0)
(0.446504 -0.00010994 0)
(0.446723 -0.000228637 0)
(0.447084 -0.000398351 0)
(0.447644 -0.00063737 0)
(0.448478 -0.000971387 0)
(0.449687 -0.00143738 0)
(0.451414 -0.00209004 0)
(0.453857 -0.00301287 0)
(0.457298 -0.00433804 0)
(0.462146 -0.00628336 0)
(0.469009 -0.00922321 0)
(0.478792 -0.0138287 0)
(0.492851 -0.0213475 0)
(0.513149 -0.0341566 0)
(0.542098 -0.0567642 0)
(0.582212 -0.0971153 0)
(0.631253 -0.16846 0)
(0.959603 0.216615 0)
(1.00966 0.323332 0)
(0.98142 0.304142 0)
(0.923846 0.247014 0)
(0.856255 0.189313 0)
(0.792993 0.141733 0)
(0.739125 0.10516 0)
(0.695491 0.0777578 0)
(0.661162 0.0573875 0)
(0.634656 0.0422623 0)
(0.614468 0.0310249 0)
(0.599258 0.0226746 0)
(0.587911 0.0164769 0)
(0.579525 0.0118896 0)
(0.573383 0.00850929 0)
(0.568929 0.00603333 0)
(0.565731 0.00423369 0)
(0.563456 0.00293797 0)
(0.561854 0.00201576 0)
(0.560737 0.00136857 0)
(0.559963 0.000922208 0)
(0.559428 0.000621018 0)
(0.559057 0.000423407 0)
(0.558796 0.000298383 0)
(0.558606 0.000222855 0)
(0.558463 0.000179525 0)
(0.55835 0.000155224 0)
(0.558258 0.000139589 0)
(0.558187 0.000123992 0)
(0.558138 0.00010063 0)
(0.558121 6.17236e-05 0)
(0.55815 -1.26648e-06 0)
(0.558246 -9.84675e-05 0)
(0.558439 -0.000242575 0)
(0.558766 -0.00045011 0)
(0.55928 -0.000743152 0)
(0.560052 -0.00115186 0)
(0.561173 -0.00171825 0)
(0.562769 -0.00250219 0)
(0.56501 -0.00359096 0)
(0.56813 -0.00511529 0)
(0.572452 -0.00727663 0)
(0.578427 -0.010395 0)
(0.586686 -0.0149939 0)
(0.598105 -0.0219521 0)
(0.613852 -0.0327689 0)
(0.635352 -0.049999 0)
(0.663802 -0.0778406 0)
(0.699119 -0.12232 0)
(0.736724 -0.190319 0)
(0.953843 0.183811 0)
(1.00761 0.311086 0)
(1.00968 0.319805 0)
(0.98094 0.278307 0)
(0.934831 0.225027 0)
(0.88533 0.175477 0)
(0.839456 0.134262 0)
(0.800082 0.101611 0)
(0.767782 0.076338 0)
(0.742052 0.0570055 0)
(0.721976 0.0423189 0)
(0.706559 0.0312189 0)
(0.694875 0.0228703 0)
(0.686124 0.0166249 0)
(0.679639 0.0119816 0)
(0.674884 0.00855439 0)
(0.671433 0.00604601 0)
(0.668953 0.00422812 0)
(0.667188 0.00292577 0)
(0.665941 0.00200543 0)
(0.665066 0.0013657 0)
(0.664454 0.000929878 0)
(0.664024 0.000640277 0)
(0.663717 0.000453599 0)
(0.663494 0.000337356 0)
(0.663326 0.00026702 0)
(0.663197 0.000223745 0)
(0.663097 0.00019255 0)
(0.663026 0.000160822 0)
(0.662987 0.000117044 0)
(0.662991 4.96516e-05 0)
(0.663056 -5.40821e-05 0)
(0.663207 -0.000209239 0)
(0.663479 -0.000434661 0)
(0.663916 -0.00075474 0)
(0.664581 -0.00120186 0)
(0.665554 -0.00181991 0)
(0.666941 -0.00266941 0)
(0.668883 -0.00383552 0)
(0.671569 -0.00544033 0)
(0.67525 -0.00766275 0)
(0.680262 -0.0107707 0)
(0.687053 -0.0151743 0)
(0.696214 -0.0215124 0)
(0.708494 -0.0307925 0)
(0.724763 -0.0446014 0)
(0.74584 -0.0653783 0)
(0.771905 -0.0966226 0)
(0.8014 -0.142439 0)
(0.829292 -0.2057 0)
(0.948553 0.155883 0)
(0.999942 0.290539 0)
(1.02083 0.320025 0)
(1.01493 0.294604 0)
(0.989273 0.249221 0)
(0.955226 0.2014 0)
(0.92004 0.158445 0)
(0.887671 0.122541 0)
(0.859798 0.0936402 0)
(0.836788 0.0708767 0)
(0.818339 0.0531963 0)
(0.803864 0.0396037 0)
(0.792702 0.0292426 0)
(0.784217 0.0214077 0)
(0.777851 0.0155306 0)
(0.773128 0.0111597 0)
(0.769663 0.00793906 0)
(0.767146 0.00559036 0)
(0.765334 0.0038975 0)
(0.764041 0.00269372 0)
(0.763122 0.00185119 0)
(0.76247 0.00127251 0)
(0.762005 0.000883865 0)
(0.761671 0.000629494 0)
(0.761425 0.000467262 0)
(0.761241 0.000365101 0)
(0.761102 0.000298161 0)
(0.761 0.000246484 0)
(0.760933 0.000193084 0)
(0.760907 0.000122299 0)
(0.760936 1.82954e-05 0)
(0.76104 -0.000136401 0)
(0.761247 -0.000362477 0)
(0.761595 -0.000685673 0)
(0.762136 -0.00113912 0)
(0.762938 -0.00176647 0)
(0.764089 -0.00262633 0)
(0.765703 -0.00379861 0)
(0.767929 -0.00539407 0)
(0.770962 -0.0075687 0)
(0.775054 -0.0105458 0)
(0.78053 -0.0146499 0)
(0.7878 -0.0203595 0)
(0.797369 -0.0283852 0)
(0.809805 -0.0397825 0)
(0.825657 -0.0560923 0)
(0.845202 -0.0794619 0)
(0.86791 -0.112586 0)
(0.891564 -0.157992 0)
(0.911552 -0.216222 0)
(0.944527 0.132625 0)
(0.991326 0.266353 0)
(1.02309 0.30979 0)
(1.03413 0.298626 0)
(1.02619 0.262477 0)
(1.00731 0.218818 0)
(0.983868 0.176506 0)
(0.960085 0.139263 0)
(0.938275 0.108133 0)
(0.919454 0.0829087 0)
(0.903859 0.0628883 0)
(0.891308 0.0472355 0)
(0.881431 0.0351444 0)
(0.873796 0.025903 0)
(0.867984 0.0189096 0)
(0.863618 0.0136696 0)
(0.860376 0.00978325 0)
(0.857994 0.00693226 0)
(0.85626 0.00486574 0)
(0.855006 0.00338789 0)
(0.854103 0.0023472 0)
(0.853454 0.00162732 0)
(0.852985 0.00113943 0)
(0.852643 0.000815986 0)
(0.852389 0.000605572 0)
(0.852199 0.000468771 0)
(0.852057 0.000374757 0)
(0.851957 0.000298518 0)
(0.851898 0.000218537 0)
(0.851889 0.000114774 0)
(0.851943 -3.31718e-05 0)
(0.852084 -0.000247877 0)
(0.852343 -0.000556038 0)
(0.85276 -0.000990734 0)
(0.853392 -0.00159427 0)
(0.854309 -0.00242191 0)
(0.855602 -0.0035471 0)
(0.85739 -0.0050687 0)
(0.859822 -0.00712162 0)
(0.863088 -0.00989215 0)
(0.867427 -0.0136406 0)
(0.873132 -0.0187341 0)
(0.880552 -0.0256938 0)
(0.890077 -0.0352587 0)
(0.902086 -0.0484642 0)
(0.916826 -0.0667153 0)
(0.934161 -0.0917906 0)
(0.953131 -0.125631 0)
(0.971366 -0.169594 0)
(0.984975 -0.222966 0)
(0.94166 0.113324 0)
(0.983514 0.241087 0)
(1.02106 0.292764 0)
(1.04414 0.293102 0)
(1.05071 0.266099 0)
(1.04563 0.227923 0)
(1.03387 0.187992 0)
(1.01932 0.151049 0)
(1.00452 0.119036 0)
(0.99088 0.0923837 0)
(0.979048 0.0707832 0)
(0.969198 0.0536168 0)
(0.961239 0.0401837 0)
(0.954955 0.0298088 0)
(0.950085 0.0218899 0)
(0.94637 0.0159132 0)
(0.943571 0.0114528 0)
(0.941487 0.0081622 0)
(0.939949 0.00576448 0)
(0.938821 0.00404089 0)
(0.937997 0.00282052 0)
(0.937394 0.00197106 0)
(0.936951 0.0013908 0)
(0.936623 0.00100184 0)
(0.936376 0.000744483 0)
(0.93619 0.000572585 0)
(0.936052 0.000449735 0)
(0.935958 0.000346081 0)
(0.93591 0.000235647 0)
(0.935918 9.39942e-05 0)
(0.935997 -0.000103938 0)
(0.936172 -0.000385966 0)
(0.936475 -0.000784938 0)
(0.93695 -0.00134138 0)
(0.937652 -0.00210677 0)
(0.938655 -0.00314774 0)
(0.940049 -0.00455186 0)
(0.941951 -0.00643545 0)
(0.944502 -0.00895456 0)
(0.94788 -0.0123204 0)
(0.952298 -0.0168209 0)
(0.958005 -0.0228501 0)
(0.965274 -0.0309465 0)
(0.974376 -0.0418399 0)
(0.985508 -0.0564966 0)
(0.998668 -0.0761363 0)
(1.01343 -0.10216 0)
(1.02864 -0.135874 0)
(1.04203 -0.177823 0)
(1.05046 -0.226689 0)
(0.939667 0.0971407 0)
(0.977008 0.21603 0)
(1.01724 0.271497 0)
(1.0486 0.280407 0)
(1.06663 0.261631 0)
(1.07352 0.229407 0)
(1.07268 0.192981 0)
(1.06735 0.157621 0)
(1.05994 0.125914 0)
(1.05204 0.0988296 0)
(1.04456 0.0764386 0)
(1.03797 0.0583643 0)
(1.03241 0.0440438 0)
(1.02787 0.0328717 0)
(1.02426 0.0242737 0)
(1.02145 0.0177394 0)
(1.01929 0.0128337 0)
(1.01764 0.00919544 0)
(1.01641 0.00653153 0)
(1.01549 0.00460756 0)
(1.0148 0.00323868 0)
(1.01428 0.00228061 0)
(1.0139 0.00162163 0)
(1.0136 0.00117559 0)
(1.01338 0.000876002 0)
(1.01321 0.000671049 0)
(1.01308 0.000519458 0)
(1.013 0.000387011 0)
(1.01296 0.000243581 0)
(1.01299 6.05145e-05 0)
(1.01309 -0.000191795 0)
(1.01329 -0.000546314 0)
(1.01363 -0.00104193 0)
(1.01414 -0.00172642 0)
(1.01489 -0.00265998 0)
(1.01595 -0.00391989 0)
(1.0174 -0.00560644 0)
(1.01935 -0.007851 0)
(1.02193 -0.0108269 0)
(1.0253 -0.0147637 0)
(1.02964 -0.019967 0)
(1.03514 -0.026842 0)
(1.042 -0.0359231 0)
(1.05038 -0.0479021 0)
(1.06031 -0.0636453 0)
(1.07161 -0.0841702 0)
(1.08367 -0.11053 0)
(1.09528 -0.143532 0)
(1.10441 -0.183186 0)
(1.10858 -0.227943 0)
(0.938293 0.0833375 0)
(0.971806 0.191769 0)
(1.01295 0.247693 0)
(1.04986 0.262453 0)
(1.07671 0.250584 0)
(1.09365 0.224193 0)
(1.1026 0.191883 0)
(1.10599 0.159033 0)
(1.10592 0.128614 0)
(1.10395 0.101996 0)
(1.10114 0.0795779 0)
(1.09813 0.0612138 0)
(1.0953 0.0464919 0)
(1.09279 0.0348969 0)
(1.09069 0.0259034 0)
(1.08896 0.0190238 0)
(1.08759 0.0138299 0)
(1.08651 0.00995916 0)
(1.08567 0.00711236 0)
(1.08502 0.0050476 0)
(1.08451 0.00357222 0)
(1.08412 0.00253463 0)
(1.08382 0.00181661 0)
(1.08358 0.00132637 0)
(1.08339 0.000992531 0)
(1.08324 0.000759008 0)
(1.08313 0.000580665 0)
(1.08306 0.000419641 0)
(1.08304 0.00024217 0)
(1.08308 1.57668e-05 0)
(1.0832 -0.000293414 0)
(1.08342 -0.000723192 0)
(1.08378 -0.00131814 0)
(1.08432 -0.00213276 0)
(1.08509 -0.00323527 0)
(1.08616 -0.00471231 0)
(1.08762 -0.00667505 0)
(1.08955 -0.00926699 0)
(1.09208 -0.0126741 0)
(1.09533 -0.0171379 0)
(1.09944 -0.0229714 0)
(1.10457 -0.0305778 0)
(1.11082 -0.0404696 0)
(1.11825 -0.0532815 0)
(1.12677 -0.069765 0)
(1.13606 -0.0907393 0)
(1.14544 -0.11696 0)
(1.1537 -0.148856 0)
(1.15912 -0.186109 0)
(1.15975 -0.227141 0)
(0.937345 0.0713309 0)
(0.967734 0.16851 0)
(1.00881 0.222455 0)
(1.04935 0.240708 0)
(1.08288 0.234302 0)
(1.10805 0.213267 0)
(1.12552 0.185294 0)
(1.13686 0.155566 0)
(1.14376 0.127201 0)
(1.14762 0.101821 0)
(1.14953 0.0800744 0)
(1.15026 0.0620166 0)
(1.15031 0.0473815 0)
(1.15001 0.0357526 0)
(1.14955 0.0266669 0)
(1.14905 0.0196746 0)
(1.14857 0.0143684 0)
(1.14814 0.0103962 0)
(1.14776 0.00746322 0)
(1.14743 0.00532798 0)
(1.14715 0.00379651 0)
(1.14692 0.00271496 0)
(1.14672 0.00196251 0)
(1.14655 0.00144466 0)
(1.1464 0.00108739 0)
(1.14629 0.000831975 0)
(1.1462 0.000630665 0)
(1.14615 0.000442862 0)
(1.14614 0.000231861 0)
(1.14619 -3.81063e-05 0)
(1.14632 -0.00040464 0)
(1.14656 -0.000909927 0)
(1.14692 -0.00160367 0)
(1.14747 -0.00254634 0)
(1.14824 -0.00381312 0)
(1.14929 -0.00549853 0)
(1.1507 -0.00772238 0)
(1.15256 -0.0106371 0)
(1.15495 -0.0144366 0)
(1.15798 -0.0193678 0)
(1.16175 -0.0257426 0)
(1.16635 -0.0339511 0)
(1.17184 -0.0444712 0)
(1.17816 -0.0578696 0)
(1.18515 -0.07478 0)
(1.1924 -0.0958401 0)
(1.19919 -0.12156 0)
(1.20441 -0.152099 0)
(1.2066 -0.186948 0)
(1.20425 -0.224602 0)
(0.936688 0.0606745 0)
(0.964583 0.146262 0)
(1.00511 0.196473 0)
(1.04797 0.216266 0)
(1.08649 0.213923 0)
(1.11827 0.197579 0)
(1.14296 0.173895 0)
(1.16135 0.147648 0)
(1.17463 0.121901 0)
(1.184 0.098393 0)
(1.19049 0.0779319 0)
(1.19491 0.0607301 0)
(1.19787 0.0466495 0)
(1.19983 0.0353704 0)
(1.20109 0.0264995 0)
(1.20188 0.0196348 0)
(1.20235 0.0144013 0)
(1.20262 0.0104679 0)
(1.20274 0.00755338 0)
(1.20277 0.00542478 0)
(1.20274 0.00389322 0)
(1.20268 0.00280777 0)
(1.2026 0.00204903 0)
(1.20251 0.00152294 0)
(1.20242 0.00115524 0)
(1.20234 0.000886424 0)
(1.20228 0.000667485 0)
(1.20225 0.000456164 0)
(1.20225 0.000213647 0)
(1.20232 -9.8426e-05 0)
(1.20245 -0.000520782 0)
(1.20269 -0.00109934 0)
(1.20305 -0.00188817 0)
(1.20358 -0.00295284 0)
(1.20432 -0.00437419 0)
(1.20532 -0.00625294 0)
(1.20665 -0.00871514 0)
(1.20836 -0.0119188 0)
(1.21055 -0.0160616 0)
(1.21327 -0.0213897 0)
(1.2166 -0.0282068 0)
(1.22058 -0.0368813 0)
(1.22518 -0.0478491 0)
(1.23031 -0.061604 0)
(1.23572 -0.0786669 0)
(1.24097 -0.0995172 0)
(1.24533 -0.124472 0)
(1.24781 -0.153501 0)
(1.2472 -0.185998 0)
(1.24232 -0.220581 0)
(0.936229 0.0510314 0)
(0.962162 0.124942 0)
(1.00195 0.170165 0)
(1.04625 0.189927 0)
(1.08845 0.190377 0)
(1.12547 0.177994 0)
(1.15615 0.158386 0)
(1.18061 0.135784 0)
(1.19957 0.113053 0)
(1.21397 0.0919172 0)
(1.22471 0.0732625 0)
(1.23264 0.0574052 0)
(1.23841 0.0443094 0)
(1.24257 0.0337434 0)
(1.24553 0.0253841 0)
(1.24761 0.0188837 0)
(1.24905 0.0139078 0)
(1.25003 0.0101552 0)
(1.25067 0.00736646 0)
(1.25107 0.00532439 0)
(1.25131 0.00385134 0)
(1.25143 0.00280432 0)
(1.25148 0.00206938 0)
(1.25148 0.00155612 0)
(1.25145 0.00119244 0)
(1.25141 0.000919985 0)
(1.25137 0.000689977 0)
(1.25136 0.000459641 0)
(1.25138 0.000188982 0)
(1.25145 -0.000162156 0)
(1.25158 -0.000636895 0)
(1.25181 -0.00128412 0)
(1.25215 -0.00216144 0)
(1.25265 -0.0033384 0)
(1.25333 -0.00490019 0)
(1.25425 -0.00695187 0)
(1.25545 -0.00962337 0)
(1.25698 -0.0130752 0)
(1.2589 -0.0175045 0)
(1.26125 -0.0231522 0)
(1.26406 -0.0303076 0)
(1.26733 -0.0393123 0)
(1.27099 -0.0505555 0)
(1.27488 -0.064459 0)
(1.27872 -0.0814404 0)
(1.28204 -0.101846 0)
(1.28416 -0.125844 0)
(1.2842 -0.153279 0)
(1.28116 -0.183508 0)
(1.27412 -0.215285 0)
(0.935908 0.0421477 0)
(0.960318 0.104424 0)
(0.999343 0.143774 0)
(1.0445 0.162266 0)
(1.08939 0.164416 0)
(1.13049 0.155279 0)
(1.16604 0.139442 0)
(1.1956 0.120521 0)
(1.21945 0.101066 0)
(1.23826 0.0826861 0)
(1.25284 0.0662653 0)
(1.26396 0.0521721 0)
(1.27233 0.0404431 0)
(1.27855 0.0309205 0)
(1.28312 0.0233483 0)
(1.28643 0.0174355 0)
(1.2888 0.0128938 0)
(1.29046 0.00945923 0)
(1.2916 0.00690096 0)
(1.29237 0.00502402 0)
(1.29287 0.00366764 0)
(1.29318 0.00270143 0)
(1.29336 0.00202072 0)
(1.29344 0.00154179 0)
(1.29348 0.0011972 0)
(1.29348 0.000931571 0)
(1.29347 0.000697863 0)
(1.29348 0.000453968 0)
(1.29351 0.000159688 0)
(1.29358 -0.000226079 0)
(1.29371 -0.000748043 0)
(1.29392 -0.00145723 0)
(1.29423 -0.00241382 0)
(1.29468 -0.00369023 0)
(1.29528 -0.00537455 0)
(1.29609 -0.00757442 0)
(1.29713 -0.0104213 0)
(1.29843 -0.0140753 0)
(1.30004 -0.0187299 0)
(1.30196 -0.0246162 0)
(1.3042 -0.0320057 0)
(1.30671 -0.0412092 0)
(1.30939 -0.0525686 0)
(1.31205 -0.0664374 0)
(1.31436 -0.083142 0)
(1.31587 -0.10292 0)
(1.31595 -0.125829 0)
(1.31383 -0.151632 0)
(1.30868 -0.179689 0)
(1.29978 -0.20889 0)
(0.935682 0.0338301 0)
(0.95893 0.0845727 0)
(0.997254 0.117426 0)
(1.04291 0.133695 0)
(1.08973 0.136637 0)
(1.13394 0.130097 0)
(1.17335 0.117703 0)
(1.20705 0.102415 0)
(1.23498 0.0863939 0)
(1.25754 0.0710535 0)
(1.27542 0.0572066 0)
(1.28933 0.045226 0)
(1.29999 0.0351907 0)
(1.30806 0.0270006 0)
(1.31407 0.0204606 0)
(1.3185 0.0153367 0)
(1.32171 0.0113906 0)
(1.324 0.00840045 0)
(1.32561 0.00616991 0)
(1.32672 0.00453169 0)
(1.32747 0.00334677 0)
(1.32795 0.00250157 0)
(1.32825 0.00190419 0)
(1.32842 0.00148042 0)
(1.32852 0.00116967 0)
(1.32856 0.00092141 0)
(1.32858 0.000691724 0)
(1.3286 0.000440341 0)
(1.32864 0.000127837 0)
(1.3287 -0.000286967 0)
(1.32882 -0.000849533 0)
(1.32901 -0.00161215 0)
(1.32928 -0.0026366 0)
(1.32966 -0.00399702 0)
(1.33017 -0.00578301 0)
(1.33084 -0.00810302 0)
(1.33169 -0.011088 0)
(1.33274 -0.0148952 0)
(1.334 -0.0197112 0)
(1.33546 -0.0257549 0)
(1.3371 -0.0332769 0)
(1.33883 -0.042556 0)
(1.34053 -0.053888 0)
(1.34197 -0.0675636 0)
(1.34283 -0.0838313 0)
(1.34267 -0.102842 0)
(1.3409 -0.124571 0)
(1.33688 -0.148738 0)
(1.3299 -0.174724 0)
(1.31942 -0.20155 0)
(0.935525 0.0259292 0)
(0.95791 0.0652525 0)
(0.995644 0.0911769 0)
(1.04157 0.104506 0)
(1.08975 0.107518 0)
(1.13627 0.103023 0)
(1.17863 0.0937561 0)
(1.21557 0.0820141 0)
(1.24674 0.069515 0)
(1.27234 0.0574157 0)
(1.29292 0.0464037 0)
(1.30914 0.0368143 0)
(1.32173 0.0287406 0)
(1.33134 0.0221248 0)
(1.33858 0.0168252 0)
(1.34396 0.0126631 0)
(1.3479 0.00945246 0)
(1.35074 0.00701716 0)
(1.35276 0.00519991 0)
(1.35416 0.00386553 0)
(1.35512 0.00290083 0)
(1.35576 0.00221263 0)
(1.35617 0.00172482 0)
(1.35642 0.00137514 0)
(1.35657 0.0011119 0)
(1.35665 0.000890985 0)
(1.35669 0.000672934 0)
(1.35673 0.000420391 0)
(1.35676 9.56346e-05 0)
(1.35683 -0.000341743 0)
(1.35693 -0.000937124 0)
(1.35708 -0.0017432 0)
(1.3573 -0.00282237 0)
(1.3576 -0.00424936 0)
(1.35801 -0.00611394 0)
(1.35853 -0.00852382 0)
(1.35917 -0.0116076 0)
(1.35994 -0.0155173 0)
(1.36082 -0.020431 0)
(1.36181 -0.0265526 0)
(1.36282 -0.0341109 0)
(1.36378 -0.0433526 0)
(1.36451 -0.05453 0)
(1.36479 -0.067878 0)
(1.3643 -0.0835797 0)
(1.36261 -0.101718 0)
(1.3592 -0.122212 0)
(1.3535 -0.144758 0)
(1.34496 -0.168775 0)
(1.33312 -0.193397 0)
(0.935419 0.0183258 0)
(0.957195 0.0463347 0)
(0.994476 0.0650384 0)
(1.04054 0.0749084 0)
(1.08964 0.0774435 0)
(1.13779 0.0745541 0)
(1.18227 0.0681464 0)
(1.2216 0.0598522 0)
(1.25519 0.0509173 0)
(1.28309 0.0421968 0)
(1.30572 0.034211 0)
(1.32372 0.027224 0)
(1.33779 0.02132 0)
(1.34862 0.016469 0)
(1.35682 0.0125758 0)
(1.36295 0.00951504 0)
(1.36746 0.00715336 0)
(1.37074 0.00536318 0)
(1.37308 0.00402949 0)
(1.37473 0.00305267 0)
(1.37586 0.00234862 0)
(1.37663 0.00184741 0)
(1.37713 0.00149115 0)
(1.37744 0.0012316 0)
(1.37763 0.00102764 0)
(1.37775 0.000842902 0)
(1.37781 0.000643543 0)
(1.37785 0.000396063 0)
(1.37789 6.52886e-05 0)
(1.37794 -0.000387626 0)
(1.37802 -0.0010072 0)
(1.37814 -0.00184568 0)
(1.3783 -0.00296517 0)
(1.37852 -0.00443992 0)
(1.3788 -0.00635863 0)
(1.37915 -0.00882685 0)
(1.37957 -0.0119692 0)
(1.38005 -0.0159311 0)
(1.38056 -0.0208799 0)
(1.38105 -0.027004 0)
(1.38145 -0.0345093 0)
(1.38164 -0.0436119 0)
(1.38146 -0.054524 0)
(1.38065 -0.0674322 0)
(1.37891 -0.0824658 0)
(1.37584 -0.0996554 0)
(1.37098 -0.118884 0)
(1.36383 -0.139839 0)
(1.35394 -0.161983 0)
(1.34096 -0.184555 0)
(0.935354 0.0109218 0)
(0.95674 0.0276978 0)
(0.993716 0.038994 0)
(1.03984 0.0450552 0)
(1.08951 0.0467315 0)
(1.1387 0.0451312 0)
(1.18456 0.041378 0)
(1.22545 0.0364471 0)
(1.26065 0.0310925 0)
(1.29008 0.0258382 0)
(1.3141 0.0210085 0)
(1.33331 0.0167714 0)
(1.3484 0.0131851 0)
(1.36005 0.0102362 0)
(1.36891 0.0078701 0)
(1.37556 0.00601253 0)
(1.38048 0.00458333 0)
(1.38406 0.00350497 0)
(1.38663 0.00270697 0)
(1.38844 0.0021277 0)
(1.3897 0.00171448 0)
(1.39056 0.00142276 0)
(1.39113 0.00121468 0)
(1.39149 0.00105752 0)
(1.39172 0.000922027 0)
(1.39185 0.000780679 0)
(1.39193 0.00060611 0)
(1.39198 0.000369479 0)
(1.39202 3.88824e-05 0)
(1.39206 -0.000422267 0)
(1.39211 -0.00105691 0)
(1.39218 -0.00191607 0)
(1.39228 -0.00306071 0)
(1.3924 -0.00456361 0)
(1.39256 -0.00651134 0)
(1.39274 -0.00900604 0)
(1.39293 -0.0121671 0)
(1.39311 -0.016132 0)
(1.39324 -0.0210564 0)
(1.39325 -0.0271124 0)
(1.39305 -0.0344836 0)
(1.39252 -0.0433572 0)
(1.39147 -0.0539095 0)
(1.38965 -0.0662858 0)
(1.38678 -0.0805722 0)
(1.38248 -0.0967605 0)
(1.37635 -0.11471 0)
(1.36796 -0.134113 0)
(1.35693 -0.154477 0)
(1.34299 -0.175132 0)
(0.935323 0.00363249 0)
(0.956519 0.00922676 0)
(0.993342 0.0130112 0)
(1.03949 0.0150618 0)
(1.08944 0.0156542 0)
(1.13912 0.0151519 0)
(1.18566 0.0139263 0)
(1.22733 0.012302 0)
(1.26333 0.0105315 0)
(1.29353 0.00879179 0)
(1.31826 0.00719294 0)
(1.33808 0.00579295 0)
(1.35368 0.00461255 0)
(1.36575 0.00364823 0)
(1.37496 0.00288226 0)
(1.38187 0.0022899 0)
(1.38699 0.00184412 0)
(1.39073 0.00151836 0)
(1.39343 0.00128797 0)
(1.39533 0.00113079 0)
(1.39666 0.00102698 0)
(1.39757 0.000958635 0)
(1.39817 0.000909105 0)
(1.39857 0.000862192 0)
(1.39882 0.000801296 0)
(1.39897 0.000708483 0)
(1.39906 0.000563512 0)
(1.39911 0.000342788 0)
(1.39914 1.82469e-05 0)
(1.39916 -0.000443857 0)
(1.39919 -0.00108426 0)
(1.39921 -0.00195209 0)
(1.39924 -0.0031064 0)
(1.39928 -0.00461765 0)
(1.39931 -0.00656931 0)
(1.39931 -0.00905914 0)
(1.39928 -0.0122002 0)
(1.39916 -0.0161213 0)
(1.39891 -0.0209657 0)
(1.39846 -0.0268891 0)
(1.3977 -0.0340538 0)
(1.39648 -0.0426202 0)
(1.39463 -0.0527334 0)
(1.3919 -0.0645038 0)
(1.38802 -0.0779833 0)
(1.38264 -0.0931358 0)
(1.37541 -0.109808 0)
(1.36596 -0.127703 0)
(1.35398 -0.146374 0)
(1.33925 -0.165234 0)
(0.935323 -0.00361949 0)
(0.956519 -0.00918968 0)
(0.993343 -0.0129505 0)
(1.0395 -0.0149766 0)
(1.08944 -0.0155425 0)
(1.13912 -0.0150108 0)
(1.18567 -0.013752 0)
(1.22734 -0.0120897 0)
(1.26334 -0.0102756 0)
(1.29354 -0.00848565 0)
(1.31827 -0.00682928 0)
(1.3381 -0.00536371 0)
(1.3537 -0.00410907 0)
(1.36578 -0.00306148 0)
(1.37499 -0.00220317 0)
(1.38191 -0.00150979 0)
(1.38704 -0.000955324 0)
(1.39079 -0.000515067 0)
(1.39349 -0.000167358 0)
(1.3954 0.000105572 0)
(1.39674 0.000317257 0)
(1.39766 0.000476929 0)
(1.39828 0.000589553 0)
(1.39868 0.000655856 0)
(1.39894 0.000672282 0)
(1.39909 0.000630826 0)
(1.39919 0.000518727 0)
(1.39924 0.000318008 0)
(1.39926 4.84337e-06 0)
(1.39927 -0.000451221 0)
(1.39926 -0.00108821 0)
(1.39924 -0.00195278 0)
(1.39921 -0.0031014 0)
(1.39915 -0.00460151 0)
(1.39904 -0.00653267 0)
(1.39888 -0.00898748 0)
(1.39862 -0.012072 0)
(1.39822 -0.0159055 0)
(1.39762 -0.0206189 0)
(1.39673 -0.0263518 0)
(1.39544 -0.0332465 0)
(1.3936 -0.0414394 0)
(1.39102 -0.051048 0)
(1.38748 -0.0621544 0)
(1.3827 -0.0747838 0)
(1.37639 -0.0888809 0)
(1.36823 -0.104287 0)
(1.3579 -0.120723 0)
(1.34515 -0.137784 0)
(1.3298 -0.154955 0)
(0.935354 -0.010909 0)
(0.956741 -0.0276613 0)
(0.993718 -0.0389341 0)
(1.03985 -0.0449711 0)
(1.08952 -0.0466212 0)
(1.13871 -0.0449919 0)
(1.18458 -0.0412058 0)
(1.22547 -0.0362373 0)
(1.26068 -0.0308394 0)
(1.29011 -0.0255356 0)
(1.31415 -0.0206489 0)
(1.33337 -0.0163469 0)
(1.34847 -0.0126871 0)
(1.36013 -0.00965574 0)
(1.36901 -0.00719819 0)
(1.37568 -0.00524054 0)
(1.38061 -0.00370362 0)
(1.38422 -0.00251173 0)
(1.38681 -0.00159732 0)
(1.38866 -0.000903103 0)
(1.38994 -0.0003826 0)
(1.39083 2.0256e-07 0)
(1.39143 0.000271611 0)
(1.39182 0.000449081 0)
(1.39207 0.000541992 0)
(1.39223 0.000552241 0)
(1.39232 0.000474609 0)
(1.39236 0.000296869 0)
(1.39238 -3.38568e-07 0)
(1.39237 -0.000443878 0)
(1.39233 -0.00106868 0)
(1.39227 -0.00191846 0)
(1.39217 -0.00304657 0)
(1.39202 -0.00451683 0)
(1.39179 -0.00640428 0)
(1.39147 -0.00879571 0)
(1.391 -0.0117897 0)
(1.39033 -0.0154957 0)
(1.3894 -0.0200325 0)
(1.38811 -0.025524 0)
(1.38633 -0.0320941 0)
(1.38393 -0.0398578 0)
(1.3807 -0.0489095 0)
(1.37645 -0.0593077 0)
(1.37091 -0.0710578 0)
(1.36382 -0.084092 0)
(1.35488 -0.0982524 0)
(1.34384 -0.113279 0)
(1.33048 -0.128808 0)
(1.31466 -0.144389 0)
(0.935419 -0.0183134 0)
(0.957196 -0.0462992 0)
(0.99448 -0.0649802 0)
(1.04055 -0.0748265 0)
(1.08966 -0.077336 0)
(1.13781 -0.0744182 0)
(1.1823 -0.0679782 0)
(1.22164 -0.0596473 0)
(1.25523 -0.0506701 0)
(1.28314 -0.0419009 0)
(1.30579 -0.0338595 0)
(1.32381 -0.0268088 0)
(1.3379 -0.0208329 0)
(1.34875 -0.0159011 0)
(1.35698 -0.0119182 0)
(1.36314 -0.00875917 0)
(1.36768 -0.0062917 0)
(1.371 -0.00438991 0)
(1.37338 -0.00294164 0)
(1.37508 -0.00185147 0)
(1.37626 -0.00104132 0)
(1.37707 -0.000449574 0)
(1.37762 -2.95736e-05 0)
(1.37799 0.000252085 0)
(1.37822 0.000417132 0)
(1.37837 0.000476967 0)
(1.37845 0.000433671 0)
(1.37849 0.000280682 0)
(1.37849 3.13739e-06 0)
(1.37847 -0.000422082 0)
(1.3784 -0.00102655 0)
(1.3783 -0.00185071 0)
(1.37814 -0.00294438 0)
(1.3779 -0.00436727 0)
(1.37756 -0.00618945 0)
(1.37709 -0.0084915 0)
(1.37643 -0.0113641 0)
(1.37552 -0.0149071 0)
(1.37429 -0.019227 0)
(1.37263 -0.0244334 0)
(1.37043 -0.0306332 0)
(1.36752 -0.0379227 0)
(1.36375 -0.0463765 0)
(1.35888 -0.0560348 0)
(1.3527 -0.066888 0)
(1.34496 -0.0788616 0)
(1.3354 -0.0918024 0)
(1.3238 -0.105471 0)
(1.30999 -0.119543 0)
(1.29384 -0.133622 0)
(0.935525 -0.0259174 0)
(0.957912 -0.0652186 0)
(0.99565 -0.091121 0)
(1.04158 -0.104427 0)
(1.08977 -0.107414 0)
(1.1363 -0.102892 0)
(1.17867 -0.093594 0)
(1.21562 -0.0818163 0)
(1.2468 -0.0692763 0)
(1.27242 -0.05713 0)
(1.29302 -0.0460641 0)
(1.30927 -0.036413 0)
(1.32188 -0.0282695 0)
(1.33152 -0.0215753 0)
(1.3388 -0.0161886 0)
(1.34422 -0.0119311 0)
(1.3482 -0.00861752 0)
(1.3511 -0.00607349 0)
(1.35317 -0.0041444 0)
(1.35464 -0.00269909 0)
(1.35567 -0.00163011 0)
(1.35637 -0.000852267 0)
(1.35685 -0.000300197 0)
(1.35717 7.40972e-05 0)
(1.35738 0.000303664 0)
(1.35751 0.000408644 0)
(1.35758 0.000397901 0)
(1.35761 0.000270221 0)
(1.35761 1.51006e-05 0)
(1.35756 -0.000386824 0)
(1.35748 -0.00096365 0)
(1.35733 -0.0017523 0)
(1.35712 -0.00279876 0)
(1.35681 -0.00415833 0)
(1.35637 -0.00589575 0)
(1.35576 -0.00808511 0)
(1.35492 -0.0108092 0)
(1.3538 -0.014158 0)
(1.3523 -0.0182267 0)
(1.35033 -0.0231114 0)
(1.34776 -0.0289037 0)
(1.34443 -0.0356835 0)
(1.34019 -0.0435093 0)
(1.33482 -0.0524067 0)
(1.32812 -0.0623558 0)
(1.31986 -0.0732791 0)
(1.30983 -0.0850312 0)
(1.29783 -0.0973941 0)
(1.2837 -0.110079 0)
(1.26737 -0.122741 0)
(0.935682 -0.0338191 0)
(0.958933 -0.0845408 0)
(0.997261 -0.117373 0)
(1.04292 -0.13362 0)
(1.08975 -0.136539 0)
(1.13397 -0.129973 0)
(1.1734 -0.117548 0)
(1.20711 -0.102227 0)
(1.23505 -0.0861663 0)
(1.25764 -0.070781 0)
(1.27554 -0.0568824 0)
(1.28948 -0.0448428 0)
(1.30018 -0.0347405 0)
(1.30828 -0.0264752 0)
(1.31434 -0.0198516 0)
(1.31882 -0.0146358 0)
(1.32209 -0.0105907 0)
(1.32445 -0.00749558 0)
(1.32614 -0.00515685 0)
(1.32732 -0.00341095 0)
(1.32815 -0.00212426 0)
(1.32872 -0.00119072 0)
(1.32911 -0.000528614 0)
(1.32937 -7.72064e-05 0)
(1.32954 0.000206421 0)
(1.32965 0.000350065 0)
(1.32971 0.000368598 0)
(1.32974 0.000265642 0)
(1.32972 3.47519e-05 0)
(1.32966 -0.000339808 0)
(1.32955 -0.000882641 0)
(1.32938 -0.00162704 0)
(1.32912 -0.00261499 0)
(1.32874 -0.00389711 0)
(1.32821 -0.00553265 0)
(1.32749 -0.00758908 0)
(1.3265 -0.0101412 0)
(1.3252 -0.0132698 0)
(1.32348 -0.0170589 0)
(1.32124 -0.0215922 0)
(1.31836 -0.0269479 0)
(1.31469 -0.0331919 0)
(1.31006 -0.0403692 0)
(1.3043 -0.0484942 0)
(1.2972 -0.0575405 0)
(1.28856 -0.0674308 0)
(1.27819 -0.0780294 0)
(1.26593 -0.0891395 0)
(1.25163 -0.100506 0)
(1.23525 -0.111828 0)
(0.935908 -0.0421376 0)
(0.960321 -0.104395 0)
(0.999352 -0.143725 0)
(1.04452 -0.162196 0)
(1.08941 -0.164324 0)
(1.13052 -0.155162 0)
(1.16609 -0.139298 0)
(1.19567 -0.120344 0)
(1.21954 -0.100852 0)
(1.23838 -0.0824295 0)
(1.25298 -0.0659598 0)