/*--------------------------------*- C++ -*----------------------------------*\
  =========                 |
  \\      /  F ield         | OpenFOAM: The Open Source CFD Toolbox
   \\    /   O peration     | Website:  https://openfoam.org
    \\  /    A nd           | Version:  6
     \\/     M anipulation  |
\*---------------------------------------------------------------------------*/
FoamFile
{
    version     2.0;
    format      ascii;
    class       volVectorField;
    location    "0";
    object      U;
}
// * * * * * * * * * * * * * * * * * * * * * * * * * * * * * * * * * * * * * //

dimensions      [0 1 -1 0 0 0 0];

internalField   nonuniform List<vector> 
40000
(
(5.31664e-07 -5.3169e-07 0)
(2.28832e-06 -7.0925e-07 0)
(3.83055e-06 -5.16017e-07 0)
(4.40005e-06 -1.42359e-07 0)
(3.47298e-06 2.92287e-07 0)
(8.76888e-07 7.38134e-07 0)
(-3.40414e-06 1.16859e-06 0)
(-9.30839e-06 1.57048e-06 0)
(-1.67325e-05 1.93832e-06 0)
(-2.55538e-05 2.27064e-06 0)
(-3.56434e-05 2.56805e-06 0)
(-4.68733e-05 2.83226e-06 0)
(-5.91207e-05 3.06548e-06 0)
(-7.22699e-05 3.27017e-06 0)
(-8.62135e-05 3.44879e-06 0)
(-0.000100853 3.60378e-06 0)
(-0.000116097 3.73745e-06 0)
(-0.000131866 3.85198e-06 0)
(-0.000148085 3.9494e-06 0)
(-0.000164687 4.03159e-06 0)
(-0.000181615 4.10026e-06 0)
(-0.000198814 4.15697e-06 0)
(-0.000216239 4.20313e-06 0)
(-0.000233848 4.24003e-06 0)
(-0.000251604 4.26881e-06 0)
(-0.000269475 4.29052e-06 0)
(-0.000287433 4.30606e-06 0)
(-0.000305453 4.31626e-06 0)
(-0.000323515 4.32184e-06 0)
(-0.000341599 4.32344e-06 0)
(-0.000359689 4.32161e-06 0)
(-0.000377772 4.31684e-06 0)
(-0.000395834 4.30956e-06 0)
(-0.000413867 4.30012e-06 0)
(-0.000431861 4.28883e-06 0)
(-0.000449808 4.27596e-06 0)
(-0.000467702 4.26172e-06 0)
(-0.000485537 4.24629e-06 0)
(-0.000503307 4.22982e-06 0)
(-0.000521008 4.21241e-06 0)
(-0.000538635 4.19416e-06 0)
(-0.000556186 4.17513e-06 0)
(-0.000573656 4.15536e-06 0)
(-0.000591043 4.13487e-06 0)
(-0.000608342 4.11367e-06 0)
(-0.000625551 4.09175e-06 0)
(-0.000642666 4.06911e-06 0)
(-0.000659684 4.0457e-06 0)
(-0.000676601 4.0215e-06 0)
(-0.000693414 3.99645e-06 0)
(-0.000710119 3.97052e-06 0)
(-0.000726713 3.94364e-06 0)
(-0.00074319 3.91576e-06 0)
(-0.000759547 3.88682e-06 0)
(-0.000775778 3.85676e-06 0)
(-0.00079188 3.82551e-06 0)
(-0.000807846 3.79301e-06 0)
(-0.000823672 3.7592e-06 0)
(-0.000839352 3.724e-06 0)
(-0.000854879 3.68737e-06 0)
(-0.000870249 3.64922e-06 0)
(-0.000885453 3.6095e-06 0)
(-0.000900486 3.56815e-06 0)
(-0.00091534 3.5251e-06 0)
(-0.000930009 3.48029e-06 0)
(-0.000944485 3.43365e-06 0)
(-0.00095876 3.38514e-06 0)
(-0.000972826 3.33468e-06 0)
(-0.000986675 3.28223e-06 0)
(-0.0010003 3.22773e-06 0)
(-0.00101369 3.17112e-06 0)
(-0.00102684 3.11235e-06 0)
(-0.00103973 3.05137e-06 0)
(-0.00105237 2.98813e-06 0)
(-0.00106473 2.92259e-06 0)
(-0.00107681 2.85471e-06 0)
(-0.00108861 2.78444e-06 0)
(-0.0011001 2.71174e-06 0)
(-0.00111128 2.63659e-06 0)
(-0.00112215 2.55895e-06 0)
(-0.00113268 2.4788e-06 0)
(-0.00114288 2.39611e-06 0)
(-0.00115272 2.31086e-06 0)
(-0.0011622 2.22304e-06 0)
(-0.00117131 2.13264e-06 0)
(-0.00118003 2.03964e-06 0)
(-0.00118836 1.94406e-06 0)
(-0.00119629 1.84588e-06 0)
(-0.0012038 1.74512e-06 0)
(-0.00121089 1.6418e-06 0)
(-0.00121754 1.53592e-06 0)
(-0.00122375 1.42752e-06 0)
(-0.00122949 1.31662e-06 0)
(-0.00123478 1.20327e-06 0)
(-0.00123958 1.0875e-06 0)
(-0.0012439 9.69361e-07 0)
(-0.00124772 8.48914e-07 0)
(-0.00125103 7.2622e-07 0)
(-0.00125383 6.0135e-07 0)
(-0.00125611 4.74382e-07 0)
(-0.00125786 3.454e-07 0)
(-0.00125906 2.14497e-07 0)
(-0.00125972 8.17703e-08 0)
(-0.00125983 -5.26724e-08 0)
(-0.00125937 -1.88718e-07 0)
(-0.00125834 -3.26247e-07 0)
(-0.00125675 -4.65131e-07 0)
(-0.00125457 -6.05238e-07 0)
(-0.00125181 -7.46427e-07 0)
(-0.00124846 -8.88552e-07 0)
(-0.00124452 -1.03146e-06 0)
(-0.00123998 -1.17499e-06 0)
(-0.00123485 -1.31899e-06 0)
(-0.00122912 -1.46327e-06 0)
(-0.00122279 -1.60768e-06 0)
(-0.00121587 -1.75203e-06 0)
(-0.00120834 -1.89613e-06 0)
(-0.00120022 -2.03981e-06 0)
(-0.0011915 -2.18287e-06 0)
(-0.00118219 -2.32512e-06 0)
(-0.00117229 -2.46636e-06 0)
(-0.00116181 -2.60641e-06 0)
(-0.00115075 -2.74506e-06 0)
(-0.00113912 -2.88212e-06 0)
(-0.00112692 -3.01739e-06 0)
(-0.00111416 -3.15068e-06 0)
(-0.00110085 -3.28178e-06 0)
(-0.001087 -3.4105e-06 0)
(-0.00107262 -3.53666e-06 0)
(-0.00105773 -3.66006e-06 0)
(-0.00104232 -3.78053e-06 0)
(-0.00102642 -3.89787e-06 0)
(-0.00101003 -4.01192e-06 0)
(-0.000993178 -4.12249e-06 0)
(-0.000975869 -4.22943e-06 0)
(-0.00095812 -4.33257e-06 0)
(-0.000939948 -4.43175e-06 0)
(-0.000921369 -4.52682e-06 0)
(-0.000902399 -4.61764e-06 0)
(-0.000883057 -4.70407e-06 0)
(-0.00086336 -4.78598e-06 0)
(-0.000843327 -4.86322e-06 0)
(-0.000822977 -4.93569e-06 0)
(-0.000802331 -5.00326e-06 0)
(-0.000781408 -5.06582e-06 0)
(-0.00076023 -5.12326e-06 0)
(-0.000738817 -5.17548e-06 0)
(-0.00071719 -5.22237e-06 0)
(-0.000695373 -5.26383e-06 0)
(-0.000673387 -5.29977e-06 0)
(-0.000651255 -5.33009e-06 0)
(-0.000629001 -5.35469e-06 0)
(-0.000606648 -5.37349e-06 0)
(-0.000584221 -5.38637e-06 0)
(-0.000561743 -5.39325e-06 0)
(-0.000539241 -5.39401e-06 0)
(-0.000516739 -5.38854e-06 0)
(-0.000494264 -5.37673e-06 0)
(-0.000471841 -5.35846e-06 0)
(-0.000449499 -5.33359e-06 0)
(-0.000427265 -5.30198e-06 0)
(-0.000405167 -5.26349e-06 0)
(-0.000383233 -5.21795e-06 0)
(-0.000361495 -5.16519e-06 0)
(-0.000339982 -5.10503e-06 0)
(-0.000318725 -5.03726e-06 0)
(-0.000297757 -4.96169e-06 0)
(-0.00027711 -4.87808e-06 0)
(-0.000256819 -4.78619e-06 0)
(-0.000236919 -4.68578e-06 0)
(-0.000217445 -4.57659e-06 0)
(-0.000198436 -4.45832e-06 0)
(-0.00017993 -4.33071e-06 0)
(-0.000161965 -4.19346e-06 0)
(-0.000144584 -4.04627e-06 0)
(-0.000127827 -3.88884e-06 0)
(-0.000111739 -3.72088e-06 0)
(-9.63624e-05 -3.54211e-06 0)
(-8.17437e-05 -3.35226e-06 0)
(-6.79286e-05 -3.15111e-06 0)
(-5.49641e-05 -2.93848e-06 0)
(-4.28972e-05 -2.71425e-06 0)
(-3.17754e-05 -2.47838e-06 0)
(-2.16454e-05 -2.23096e-06 0)
(-1.2553e-05 -1.97223e-06 0)
(-4.54216e-06 -1.70264e-06 0)
(2.34638e-06 -1.42295e-06 0)
(8.07636e-06 -1.1343e-06 0)
(1.26181e-05 -8.38378e-07 0)
(1.59514e-05 -5.3764e-07 0)
(1.80689e-05 -2.35608e-07 0)
(1.89821e-05 6.26353e-08 0)
(1.8728e-05 3.49721e-07 0)
(1.73802e-05 6.14858e-07 0)
(1.50643e-05 8.42016e-07 0)
(1.19792e-05 1.00725e-06 0)
(8.42396e-06 1.07616e-06 0)
(4.84627e-06 9.9986e-07 0)
(1.93094e-06 6.9811e-07 0)
(2.17325e-07 2.17942e-07 0)
(7.10902e-07 -2.2899e-06 0)
(3.12515e-06 -3.12042e-06 0)
(4.29786e-06 -1.57909e-06 0)
(2.77947e-06 1.23523e-06 0)
(-2.46448e-06 4.64242e-06 0)
(-1.18683e-05 8.24346e-06 0)
(-2.55382e-05 1.18089e-05 0)
(-4.3389e-05 1.52116e-05 0)
(-6.52201e-05 1.83852e-05 0)
(-9.07666e-05 2.12993e-05 0)
(-0.000119732 2.39446e-05 0)
(-0.00015181 2.63244e-05 0)
(-0.000186697 2.84494e-05 0)
(-0.000224098 3.03344e-05 0)
(-0.000263737 3.19962e-05 0)
(-0.000305353 3.34523e-05 0)
(-0.000348706 3.47206e-05 0)
(-0.000393575 3.58181e-05 0)
(-0.000439759 3.67614e-05 0)
(-0.000487076 3.75659e-05 0)
(-0.00053536 3.82462e-05 0)
(-0.000584464 3.88155e-05 0)
(-0.000634254 3.92862e-05 0)
(-0.000684613 3.96694e-05 0)
(-0.000735435 3.99755e-05 0)
(-0.000786627 4.02136e-05 0)
(-0.000838107 4.03921e-05 0)
(-0.000889802 4.05184e-05 0)
(-0.000941648 4.0599e-05 0)
(-0.000993591 4.06401e-05 0)
(-0.00104558 4.06466e-05 0)
(-0.00109757 4.06233e-05 0)
(-0.00114953 4.0574e-05 0)
(-0.00120143 4.05023e-05 0)
(-0.00125323 4.04112e-05 0)
(-0.00130492 4.03031e-05 0)
(-0.00135646 4.01802e-05 0)
(-0.00140785 4.00444e-05 0)
(-0.00145906 3.9897e-05 0)
(-0.00151008 3.97393e-05 0)
(-0.0015609 3.95721e-05 0)
(-0.0016115 3.93962e-05 0)
(-0.00166187 3.92121e-05 0)
(-0.001712 3.90201e-05 0)
(-0.00176188 3.88204e-05 0)
(-0.0018115 3.8613e-05 0)
(-0.00186085 3.83978e-05 0)
(-0.00190992 3.81747e-05 0)
(-0.00195869 3.79434e-05 0)
(-0.00200716 3.77036e-05 0)
(-0.00205532 3.74548e-05 0)
(-0.00210314 3.71968e-05 0)
(-0.00215063 3.69289e-05 0)
(-0.00219776 3.66508e-05 0)
(-0.00224452 3.63618e-05 0)
(-0.00229091 3.60615e-05 0)
(-0.00233689 3.57492e-05 0)
(-0.00238247 3.54245e-05 0)
(-0.00242761 3.50867e-05 0)
(-0.00247231 3.47352e-05 0)
(-0.00251655 3.43696e-05 0)
(-0.0025603 3.39892e-05 0)
(-0.00260355 3.35935e-05 0)
(-0.00264628 3.31819e-05 0)
(-0.00268847 3.27539e-05 0)
(-0.0027301 3.23089e-05 0)
(-0.00277114 3.18464e-05 0)
(-0.00281157 3.13659e-05 0)
(-0.00285137 3.08668e-05 0)
(-0.00289051 3.03487e-05 0)
(-0.00292898 2.98111e-05 0)
(-0.00296674 2.92535e-05 0)
(-0.00300377 2.86756e-05 0)
(-0.00304005 2.80768e-05 0)
(-0.00307554 2.74568e-05 0)
(-0.00311023 2.68152e-05 0)
(-0.00314407 2.61517e-05 0)
(-0.00317705 2.54659e-05 0)
(-0.00320914 2.47575e-05 0)
(-0.0032403 2.40263e-05 0)
(-0.00327052 2.3272e-05 0)
(-0.00329975 2.24945e-05 0)
(-0.00332797 2.16935e-05 0)
(-0.00335515 2.0869e-05 0)
(-0.00338127 2.00208e-05 0)
(-0.00340628 1.9149e-05 0)
(-0.00343017 1.82535e-05 0)
(-0.0034529 1.73343e-05 0)
(-0.00347443 1.63915e-05 0)
(-0.00349475 1.54253e-05 0)
(-0.00351383 1.44359e-05 0)
(-0.00353162 1.34234e-05 0)
(-0.00354812 1.23883e-05 0)
(-0.00356327 1.13307e-05 0)
(-0.00357707 1.02512e-05 0)
(-0.00358948 9.15026e-06 0)
(-0.00360047 8.02829e-06 0)
(-0.00361002 6.88594e-06 0)
(-0.00361811 5.72385e-06 0)
(-0.0036247 4.54273e-06 0)
(-0.00362978 3.34336e-06 0)
(-0.00363333 2.12657e-06 0)
(-0.00363531 8.93265e-07 0)
(-0.00363572 -3.55588e-07 0)
(-0.00363454 -1.61896e-06 0)
(-0.00363174 -2.89577e-06 0)
(-0.0036273 -4.18487e-06 0)
(-0.00362123 -5.48503e-06 0)
(-0.0036135 -6.79501e-06 0)
(-0.00360409 -8.11347e-06 0)
(-0.00359301 -9.43905e-06 0)
(-0.00358025 -1.07703e-05 0)
(-0.00356579 -1.21058e-05 0)
(-0.00354963 -1.34439e-05 0)
(-0.00353177 -1.47832e-05 0)
(-0.00351222 -1.61219e-05 0)
(-0.00349096 -1.74586e-05 0)
(-0.00346801 -1.87914e-05 0)
(-0.00344337 -2.01187e-05 0)
(-0.00341706 -2.14389e-05 0)
(-0.00338907 -2.275e-05 0)
(-0.00335942 -2.40504e-05 0)
(-0.00332813 -2.53383e-05 0)
(-0.00329521 -2.6612e-05 0)
(-0.00326068 -2.78696e-05 0)
(-0.00322457 -2.91094e-05 0)
(-0.00318689 -3.03297e-05 0)
(-0.00314768 -3.15286e-05 0)
(-0.00310695 -3.27046e-05 0)
(-0.00306474 -3.38558e-05 0)
(-0.00302109 -3.49806e-05 0)
(-0.00297602 -3.60774e-05 0)
(-0.00292957 -3.71446e-05 0)
(-0.00288178 -3.81806e-05 0)
(-0.00283269 -3.91839e-05 0)
(-0.00278234 -4.0153e-05 0)
(-0.00273078 -4.10865e-05 0)
(-0.00267804 -4.19829e-05 0)
(-0.00262418 -4.28411e-05 0)
(-0.00256925 -4.36596e-05 0)
(-0.0025133 -4.44372e-05 0)
(-0.00245637 -4.51727e-05 0)
(-0.00239852 -4.5865e-05 0)
(-0.00233981 -4.65129e-05 0)
(-0.00228029 -4.71155e-05 0)
(-0.00222003 -4.76715e-05 0)
(-0.00215907 -4.81801e-05 0)
(-0.00209748 -4.86402e-05 0)
(-0.00203533 -4.90509e-05 0)
(-0.00197266 -4.94112e-05 0)
(-0.00190956 -4.97201e-05 0)
(-0.00184608 -4.99768e-05 0)
(-0.00178229 -5.01802e-05 0)
(-0.00171825 -5.03293e-05 0)
(-0.00165405 -5.04231e-05 0)
(-0.00158974 -5.04606e-05 0)
(-0.00152539 -5.04406e-05 0)
(-0.0014611 -5.03621e-05 0)
(-0.00139692 -5.02236e-05 0)
(-0.00133293 -5.00241e-05 0)
(-0.00126922 -4.97619e-05 0)
(-0.00120586 -4.94358e-05 0)
(-0.00114293 -4.9044e-05 0)
(-0.00108053 -4.8585e-05 0)
(-0.00101873 -4.80569e-05 0)
(-0.000957627 -4.74577e-05 0)
(-0.000897312 -4.67856e-05 0)
(-0.00083788 -4.60382e-05 0)
(-0.000779426 -4.52135e-05 0)
(-0.000722051 -4.4309e-05 0)
(-0.000665858 -4.33223e-05 0)
(-0.000610954 -4.2251e-05 0)
(-0.000557447 -4.10923e-05 0)
(-0.00050545 -3.98437e-05 0)
(-0.000455078 -3.85027e-05 0)
(-0.000406451 -3.70666e-05 0)
(-0.000359691 -3.55331e-05 0)
(-0.000314921 -3.39e-05 0)
(-0.000272268 -3.21652e-05 0)
(-0.000231861 -3.03274e-05 0)
(-0.00019383 -2.83854e-05 0)
(-0.000158304 -2.63392e-05 0)
(-0.000125411 -2.41895e-05 0)
(-9.52792e-05 -2.19384e-05 0)
(-6.80283e-05 -1.95898e-05 0)
(-4.37726e-05 -1.71497e-05 0)
(-2.26152e-05 -1.46274e-05 0)
(-4.64385e-06 -1.20358e-05 0)
(1.0075e-05 -9.39348e-06 0)
(2.15038e-05 -6.72588e-06 0)
(2.96439e-05 -4.06818e-06 0)
(3.45491e-05 -1.46879e-06 0)
(3.6343e-05 1.00558e-06 0)
(3.52425e-05 3.26268e-06 0)
(3.15889e-05 5.1749e-06 0)
(2.58856e-05 6.56716e-06 0)
(1.8838e-05 7.2048e-06 0)
(1.14181e-05 6.78932e-06 0)
(5.00545e-06 5.01482e-06 0)
(6.94601e-07 1.92997e-06 0)
(5.19924e-07 -3.83876e-06 0)
(1.58948e-06 -4.29566e-06 0)
(-1.1484e-08 1.90089e-08 0)
(-5.96023e-06 6.9896e-06 0)
(-1.74333e-05 1.52946e-05 0)
(-3.49983e-05 2.41038e-05 0)
(-5.88357e-05 3.29022e-05 0)
(-8.88727e-05 4.13811e-05 0)
(-0.00012487 4.93639e-05 0)
(-0.000166486 5.67579e-05 0)
(-0.000213322 6.35233e-05 0)
(-0.000264951 6.96542e-05 0)
(-0.000320941 7.51656e-05 0)
(-0.000380865 8.00852e-05 0)
(-0.000444315 8.44482e-05 0)
(-0.000510903 8.82935e-05 0)
(-0.000580266 9.16617e-05 0)
(-0.000652069 9.45932e-05 0)
(-0.000726 9.71275e-05 0)
(-0.000801779 9.93022e-05 0)
(-0.000879146 0.000101153 0)
(-0.00095787 0.000102713 0)
(-0.00103774 0.000104013 0)
(-0.00111857 0.000105082 0)
(-0.00120018 0.000105946 0)
(-0.00128244 0.000106627 0)
(-0.0013652 0.000107149 0)
(-0.00144835 0.000107529 0)
(-0.00153178 0.000107785 0)
(-0.0016154 0.000107933 0)
(-0.00169913 0.000107986 0)
(-0.0017829 0.000107957 0)
(-0.00186665 0.000107855 0)
(-0.00195031 0.000107691 0)
(-0.00203385 0.000107472 0)
(-0.00211721 0.000107205 0)
(-0.00220037 0.000106896 0)
(-0.00228329 0.000106549 0)
(-0.00236594 0.000106169 0)
(-0.00244829 0.000105759 0)
(-0.00253032 0.000105322 0)
(-0.002612 0.00010486 0)
(-0.00269332 0.000104374 0)
(-0.00277426 0.000103865 0)
(-0.00285479 0.000103333 0)
(-0.0029349 0.00010278 0)
(-0.00301457 0.000102205 0)
(-0.00309379 0.000101607 0)
(-0.00317252 0.000100987 0)
(-0.00325076 0.000100343 0)
(-0.00332848 9.96745e-05 0)
(-0.00340567 9.89804e-05 0)
(-0.0034823 9.82595e-05 0)
(-0.00355835 9.75108e-05 0)
(-0.0036338 9.67328e-05 0)
(-0.00370863 9.59242e-05 0)
(-0.00378281 9.50836e-05 0)
(-0.00385631 9.42096e-05 0)
(-0.00392911 9.33007e-05 0)
(-0.00400118 9.23556e-05 0)
(-0.00407249 9.13726e-05 0)
(-0.00414302 9.03504e-05 0)
(-0.00421272 8.92876e-05 0)
(-0.00428157 8.81827e-05 0)
(-0.00434954 8.70342e-05 0)
(-0.0044166 8.58409e-05 0)
(-0.00448269 8.46013e-05 0)
(-0.0045478 8.33141e-05 0)
(-0.00461188 8.19781e-05 0)
(-0.0046749 8.05919e-05 0)
(-0.00473681 7.91543e-05 0)
(-0.00479758 7.76642e-05 0)
(-0.00485716 7.61204e-05 0)
(-0.00491552 7.45219e-05 0)
(-0.00497261 7.28676e-05 0)
(-0.00502839 7.11567e-05 0)
(-0.00508281 6.93881e-05 0)
(-0.00513583 6.75611e-05 0)
(-0.00518741 6.5675e-05 0)
(-0.0052375 6.3729e-05 0)
(-0.00528605 6.17226e-05 0)
(-0.00533302 5.96554e-05 0)
(-0.00537836 5.75268e-05 0)
(-0.00542203 5.53366e-05 0)
(-0.00546397 5.30847e-05 0)
(-0.00550414 5.07708e-05 0)
(-0.0055425 4.8395e-05 0)
(-0.00557899 4.59574e-05 0)
(-0.00561358 4.34584e-05 0)
(-0.0056462 4.08982e-05 0)
(-0.00567682 3.82774e-05 0)
(-0.0057054 3.55966e-05 0)
(-0.00573188 3.28567e-05 0)
(-0.00575622 3.00585e-05 0)
(-0.00577837 2.72031e-05 0)
(-0.0057983 2.42918e-05 0)
(-0.00581597 2.1326e-05 0)
(-0.00583133 1.83072e-05 0)
(-0.00584434 1.5237e-05 0)
(-0.00585496 1.21175e-05 0)
(-0.00586316 8.95056e-06 0)
(-0.00586891 5.73843e-06 0)
(-0.00587217 2.48347e-06 0)
(-0.0058729 -8.11815e-07 0)
(-0.00587108 -4.14474e-06 0)
(-0.00586669 -7.51246e-06 0)
(-0.00585969 -1.0912e-05 0)
(-0.00585007 -1.43402e-05 0)
(-0.0058378 -1.77937e-05 0)
(-0.00582287 -2.12692e-05 0)
(-0.00580526 -2.47631e-05 0)
(-0.00578496 -2.82715e-05 0)
(-0.00576196 -3.17908e-05 0)
(-0.00573625 -3.5317e-05 0)
(-0.00570783 -3.8846e-05 0)
(-0.0056767 -4.23736e-05 0)
(-0.00564286 -4.58956e-05 0)
(-0.00560632 -4.94077e-05 0)
(-0.00556708 -5.29054e-05 0)
(-0.00552517 -5.63843e-05 0)
(-0.00548059 -5.984e-05 0)
(-0.00543336 -6.32677e-05 0)
(-0.00538352 -6.66631e-05 0)
(-0.00533107 -7.00214e-05 0)
(-0.00527606 -7.33381e-05 0)
(-0.00521852 -7.66087e-05 0)
(-0.00515848 -7.98286e-05 0)
(-0.00509598 -8.29932e-05 0)
(-0.00503108 -8.60982e-05 0)
(-0.0049638 -8.91391e-05 0)
(-0.00489421 -9.21117e-05 0)
(-0.00482235 -9.50116e-05 0)
(-0.00474829 -9.78347e-05 0)
(-0.00467208 -0.000100577 0)
(-0.00459378 -0.000103234 0)
(-0.00451346 -0.000105803 0)
(-0.0044312 -0.00010828 0)
(-0.00434705 -0.00011066 0)
(-0.00426109 -0.000112941 0)
(-0.00417341 -0.000115119 0)
(-0.00408407 -0.000117191 0)
(-0.00399317 -0.000119153 0)
(-0.00390078 -0.000121003 0)
(-0.00380699 -0.000122738 0)
(-0.00371189 -0.000124354 0)
(-0.00361556 -0.00012585 0)
(-0.00351811 -0.000127222 0)
(-0.00341963 -0.000128467 0)
(-0.00332021 -0.000129584 0)
(-0.00321996 -0.000130569 0)
(-0.00311896 -0.000131419 0)
(-0.00301734 -0.000132133 0)
(-0.00291519 -0.000132708 0)
(-0.00281261 -0.00013314 0)
(-0.00270973 -0.000133428 0)
(-0.00260665 -0.000133568 0)
(-0.00250348 -0.000133556 0)
(-0.00240034 -0.000133391 0)
(-0.00229736 -0.000133069 0)
(-0.00219464 -0.000132585 0)
(-0.00209233 -0.000131937 0)
(-0.00199054 -0.000131119 0)
(-0.00188941 -0.000130129 0)
(-0.00178907 -0.000128961 0)
(-0.00168966 -0.000127611 0)
(-0.00159133 -0.000126073 0)
(-0.00149421 -0.000124343 0)
(-0.00139847 -0.000122413 0)
(-0.00130424 -0.00012028 0)
(-0.00121171 -0.000117935 0)
(-0.00112102 -0.000115374 0)
(-0.00103235 -0.000112589 0)
(-0.000945876 -0.000109574 0)
(-0.000861771 -0.000106322 0)
(-0.000780222 -0.000102827 0)
(-0.000701417 -9.90831e-05 0)
(-0.000625547 -9.50836e-05 0)
(-0.00055281 -9.08237e-05 0)
(-0.000483405 -8.62991e-05 0)
(-0.000417531 -8.15069e-05 0)
(-0.000355392 -7.64458e-05 0)
(-0.000297188 -7.11166e-05 0)
(-0.000243116 -6.55232e-05 0)
(-0.000193369 -5.96731e-05 0)
(-0.000148129 -5.35787e-05 0)
(-0.000107564 -4.72588e-05 0)
(-7.18239e-05 -4.07402e-05 0)
(-4.10311e-05 -3.40603e-05 0)
(-1.52723e-05 -2.72705e-05 0)
(5.41261e-06 -2.04398e-05 0)
(2.10459e-05 -1.36614e-05 0)
(3.17298e-05 -7.05955e-06 0)
(3.76704e-05 -8.00248e-07 0)
(3.92057e-05 4.89564e-06 0)
(3.68415e-05 9.73553e-06 0)
(3.12906e-05 1.33369e-05 0)
(2.35071e-05 1.52126e-05 0)
(1.47462e-05 1.47757e-05 0)
(6.76266e-06 1.1418e-05 0)
(9.92643e-07 4.8329e-06 0)
(1.46955e-07 -4.41616e-06 0)
(-1.23652e-06 -2.77142e-06 0)
(-7.02507e-06 5.98008e-06 0)
(-1.88943e-05 1.88305e-05 0)
(-3.79098e-05 3.38407e-05 0)
(-6.4643e-05 4.9729e-05 0)
(-9.92888e-05 6.56574e-05 0)
(-0.000141771 8.10952e-05 0)
(-0.000191826 9.572e-05 0)
(-0.000249066 0.000109349 0)
(-0.000313024 0.000121892 0)
(-0.000383194 0.000133322 0)
(-0.000459053 0.000143649 0)
(-0.000540078 0.000152914 0)
(-0.000625761 0.000161168 0)
(-0.000715614 0.000168477 0)
(-0.000809177 0.000174908 0)
(-0.00090602 0.00018053 0)
(-0.00100574 0.000185413 0)
(-0.00110798 0.000189623 0)
(-0.00121239 0.000193224 0)
(-0.00131867 0.000196276 0)
(-0.00142654 0.000198835 0)
(-0.00153575 0.000200953 0)
(-0.00164607 0.000202679 0)
(-0.00175731 0.000204055 0)
(-0.00186927 0.000205122 0)
(-0.00198181 0.000205916 0)
(-0.00209477 0.000206469 0)
(-0.00220803 0.00020681 0)
(-0.00232147 0.000206966 0)
(-0.002435 0.000206958 0)
(-0.00254853 0.000206808 0)
(-0.00266198 0.000206533 0)
(-0.00277529 0.000206148 0)
(-0.00288838 0.000205666 0)
(-0.00300122 0.0002051 0)
(-0.00311375 0.000204457 0)
(-0.00322592 0.000203747 0)
(-0.0033377 0.000202976 0)
(-0.00344906 0.000202149 0)
(-0.00355995 0.00020127 0)
(-0.00367036 0.000200343 0)
(-0.00378025 0.000199369 0)
(-0.00388959 0.000198349 0)
(-0.00399835 0.000197286 0)
(-0.00410652 0.000196177 0)
(-0.00421406 0.000195024 0)
(-0.00432095 0.000193826 0)
(-0.00442715 0.000192581 0)
(-0.00453265 0.000191287 0)
(-0.00463742 0.000189943 0)
(-0.00474141 0.000188546 0)
(-0.00484462 0.000187095 0)
(-0.00494699 0.000185588 0)
(-0.00504851 0.000184021 0)
(-0.00514913 0.000182392 0)
(-0.00524883 0.000180698 0)
(-0.00534756 0.000178938 0)
(-0.00544528 0.000177108 0)
(-0.00554197 0.000175205 0)
(-0.00563757 0.000173227 0)
(-0.00573205 0.000171171 0)
(-0.00582536 0.000169034 0)
(-0.00591745 0.000166814 0)
(-0.00600829 0.000164509 0)
(-0.00609782 0.000162115 0)
(-0.006186 0.00015963 0)
(-0.00627277 0.000157053 0)
(-0.00635808 0.00015438 0)
(-0.00644189 0.000151608 0)
(-0.00652413 0.000148738 0)
(-0.00660476 0.000145764 0)
(-0.00668372 0.000142687 0)
(-0.00676094 0.000139504 0)
(-0.00683638 0.000136214 0)
(-0.00690997 0.000132814 0)
(-0.00698166 0.000129303 0)
(-0.00705138 0.00012568 0)
(-0.00711908 0.000121944 0)
(-0.00718469 0.000118093 0)
(-0.00724815 0.000114127 0)
(-0.0073094 0.000110045 0)
(-0.00736838 0.000105847 0)
(-0.00742502 0.000101531 0)
(-0.00747927 9.70985e-05 0)
(-0.00753105 9.25489e-05 0)
(-0.00758031 8.78826e-05 0)
(-0.00762699 8.31001e-05 0)
(-0.00767102 7.82023e-05 0)
(-0.00771234 7.319e-05 0)
(-0.00775089 6.80647e-05 0)
(-0.00778661 6.28278e-05 0)
(-0.00781944 5.74811e-05 0)
(-0.00784933 5.20267e-05 0)
(-0.00787621 4.6467e-05 0)
(-0.00790004 4.08046e-05 0)
(-0.00792075 3.50424e-05 0)
(-0.00793831 2.91839e-05 0)
(-0.00795264 2.32324e-05 0)
(-0.00796372 1.71919e-05 0)
(-0.00797149 1.10664e-05 0)
(-0.0079759 4.86058e-06 0)
(-0.00797693 -1.42093e-06 0)
(-0.00797452 -7.77303e-06 0)
(-0.00796865 -1.41904e-05 0)
(-0.00795927 -2.06673e-05 0)
(-0.00794637 -2.71978e-05 0)
(-0.00792991 -3.37758e-05 0)
(-0.00790987 -4.03948e-05 0)
(-0.00788623 -4.7048e-05 0)
(-0.00785897 -5.37285e-05 0)
(-0.00782809 -6.04289e-05 0)
(-0.00779357 -6.71421e-05 0)
(-0.00775542 -7.38602e-05 0)
(-0.00771362 -8.05754e-05 0)
(-0.00766819 -8.72799e-05 0)
(-0.00761913 -9.39654e-05 0)
(-0.00756645 -0.000100624 0)
(-0.00751018 -0.000107246 0)
(-0.00745033 -0.000113825 0)
(-0.00738693 -0.000120351 0)
(-0.00732 -0.000126816 0)
(-0.00724959 -0.000133212 0)
(-0.00717574 -0.000139529 0)
(-0.00709848 -0.000145759 0)
(-0.00701787 -0.000151893 0)
(-0.00693396 -0.000157924 0)
(-0.0068468 -0.000163843 0)
(-0.00675646 -0.000169641 0)
(-0.00666301 -0.000175311 0)
(-0.00656651 -0.000180844 0)
(-0.00646703 -0.000186232 0)
(-0.00636467 -0.000191469 0)
(-0.0062595 -0.000196546 0)
(-0.0061516 -0.000201456 0)
(-0.00604107 -0.000206193 0)
(-0.005928 -0.000210749 0)
(-0.00581249 -0.000215118 0)
(-0.00569464 -0.000219293 0)
(-0.00557456 -0.000223269 0)
(-0.00545235 -0.000227038 0)
(-0.00532812 -0.000230596 0)
(-0.00520198 -0.000233936 0)
(-0.00507407 -0.000237054 0)
(-0.00494448 -0.000239944 0)
(-0.00481336 -0.0002426 0)
(-0.00468081 -0.000245018 0)
(-0.00454698 -0.000247192 0)
(-0.004412 -0.000249118 0)
(-0.00427599 -0.00025079 0)
(-0.00413909 -0.000252203 0)
(-0.00400146 -0.000253352 0)
(-0.00386322 -0.000254232 0)
(-0.00372452 -0.000254838 0)
(-0.00358552 -0.000255163 0)
(-0.00344636 -0.000255202 0)
(-0.00330721 -0.000254948 0)
(-0.00316821 -0.000254395 0)
(-0.00302954 -0.000253536 0)
(-0.00289137 -0.000252364 0)
(-0.00275385 -0.000250871 0)
(-0.00261718 -0.000249048 0)
(-0.00248153 -0.000246887 0)
(-0.00234708 -0.000244379 0)
(-0.00221403 -0.000241513 0)
(-0.00208257 -0.00023828 0)
(-0.00195291 -0.000234669 0)
(-0.00182525 -0.000230668 0)
(-0.00169981 -0.000226266 0)
(-0.00157681 -0.00022145 0)
(-0.00145647 -0.00021621 0)
(-0.00133903 -0.000210532 0)
(-0.00122472 -0.000204405 0)
(-0.0011138 -0.000197816 0)
(-0.00100651 -0.000190755 0)
(-0.000903099 -0.000183212 0)
(-0.00080384 -0.000175177 0)
(-0.00070899 -0.000166645 0)
(-0.000618813 -0.000157611 0)
(-0.000533574 -0.000148073 0)
(-0.000453534 -0.000138037 0)
(-0.000378948 -0.000127513 0)
(-0.000310061 -0.000116516 0)
(-0.000247107 -0.000105074 0)
(-0.000190294 -9.32261e-05 0)
(-0.000139808 -8.10268e-05 0)
(-9.57932e-05 -6.85503e-05 0)
(-5.8348e-05 -5.58963e-05 0)
(-2.75071e-05 -4.31972e-05 0)
(-3.22591e-06 -3.06269e-05 0)
(1.46414e-05 -1.84131e-05 0)
(2.63662e-05 -6.85203e-06 0)
(3.23754e-05 3.67301e-06 0)
(3.32855e-05 1.267e-05 0)
(2.99391e-05 1.95161e-05 0)
(2.34338e-05 2.34425e-05 0)
(1.51856e-05 2.35405e-05 0)
(7.1692e-06 1.88227e-05 0)
(1.06506e-06 8.38773e-06 0)
(-2.91054e-07 -3.48665e-06 0)
(-4.69036e-06 2.51999e-06 0)
(-1.54632e-05 1.75342e-05 0)
(-3.41579e-05 3.78975e-05 0)
(-6.15603e-05 6.1162e-05 0)
(-9.81406e-05 8.56448e-05 0)
(-0.000144044 0.0001102 0)
(-0.000199158 0.000134073 0)
(-0.000263184 0.000156781 0)
(-0.000335695 0.000178039 0)
(-0.000416177 0.000197693 0)
(-0.000504065 0.000215682 0)
(-0.00059877 0.000232007 0)
(-0.000699698 0.000246712 0)
(-0.000806267 0.000259868 0)
(-0.000917913 0.000271563 0)
(-0.0010341 0.000281894 0)
(-0.00115432 0.000290961 0)
(-0.00127809 0.000298868 0)
(-0.00140499 0.000305713 0)
(-0.00153461 0.000311594 0)
(-0.00166658 0.000316601 0)
(-0.00180056 0.000320822 0)
(-0.00193624 0.000324336 0)
(-0.00207335 0.000327217 0)
(-0.00221164 0.000329535 0)
(-0.00235088 0.000331352 0)
(-0.00249087 0.000332723 0)
(-0.00263144 0.000333702 0)
(-0.00277242 0.000334333 0)
(-0.00291367 0.000334659 0)
(-0.00305507 0.000334715 0)
(-0.0031965 0.000334534 0)
(-0.00333787 0.000334144 0)
(-0.00347908 0.000333571 0)
(-0.00362006 0.000332836 0)
(-0.00376073 0.000331957 0)
(-0.00390104 0.00033095 0)
(-0.00404093 0.000329827 0)
(-0.00418034 0.000328601 0)
(-0.00431922 0.000327279 0)
(-0.00445755 0.000325868 0)
(-0.00459526 0.000324374 0)
(-0.00473234 0.000322801 0)
(-0.00486873 0.000321151 0)
(-0.0050044 0.000319425 0)
(-0.00513932 0.000317625 0)
(-0.00527346 0.000315749 0)
(-0.00540678 0.000313796 0)
(-0.00553923 0.000311766 0)
(-0.0056708 0.000309655 0)
(-0.00580144 0.000307461 0)
(-0.00593111 0.000305181 0)
(-0.00605978 0.000302811 0)
(-0.0061874 0.000300348 0)
(-0.00631394 0.000297788 0)
(-0.00643935 0.000295127 0)
(-0.00656359 0.000292361 0)
(-0.0066866 0.000289486 0)
(-0.00680835 0.000286497 0)
(-0.00692879 0.000283392 0)
(-0.00704786 0.000280164 0)
(-0.00716551 0.00027681 0)
(-0.00728169 0.000273327 0)
(-0.00739634 0.000269709 0)
(-0.00750941 0.000265952 0)
(-0.00762083 0.000262054 0)
(-0.00773055 0.000258009 0)
(-0.0078385 0.000253815 0)
(-0.00794462 0.000249466 0)
(-0.00804884 0.000244961 0)
(-0.00815111 0.000240295 0)
(-0.00825134 0.000235465 0)
(-0.00834948 0.000230468 0)
(-0.00844546 0.000225302 0)
(-0.00853919 0.000219962 0)
(-0.00863062 0.000214448 0)
(-0.00871966 0.000208756 0)
(-0.00880624 0.000202884 0)
(-0.0088903 0.000196831 0)
(-0.00897175 0.000190595 0)
(-0.00905051 0.000184175 0)
(-0.00912652 0.000177569 0)
(-0.00919969 0.000170776 0)
(-0.00926996 0.000163797 0)
(-0.00933723 0.000156631 0)
(-0.00940144 0.000149278 0)
(-0.00946251 0.000141739 0)
(-0.00952036 0.000134014 0)
(-0.00957492 0.000126106 0)
(-0.00962611 0.000118015 0)
(-0.00967386 0.000109745 0)
(-0.0097181 0.000101296 0)
(-0.00975875 9.26726e-05 0)
(-0.00979574 8.38779e-05 0)
(-0.00982901 7.49157e-05 0)
(-0.00985849 6.57902e-05 0)
(-0.00988411 5.65063e-05 0)
(-0.0099058 4.70692e-05 0)
(-0.00992352 3.74845e-05 0)
(-0.0099372 2.77585e-05 0)
(-0.00994678 1.78979e-05 0)
(-0.00995221 7.90972e-06 0)
(-0.00995344 -2.19831e-06 0)
(-0.00995043 -1.24181e-05 0)
(-0.00994313 -2.27412e-05 0)
(-0.0099315 -3.31584e-05 0)
(-0.00991551 -4.36604e-05 0)
(-0.00989512 -5.42373e-05 0)
(-0.00987031 -6.48786e-05 0)
(-0.00984105 -7.55738e-05 0)
(-0.00980733 -8.63117e-05 0)
(-0.00976913 -9.70809e-05 0)
(-0.00972644 -0.000107869 0)
(-0.00967926 -0.000118665 0)
(-0.00962758 -0.000129456 0)
(-0.00957141 -0.000140229 0)
(-0.00951077 -0.000150972 0)
(-0.00944566 -0.00016167 0)
(-0.00937612 -0.000172312 0)
(-0.00930215 -0.000182883 0)
(-0.00922381 -0.00019337 0)
(-0.00914112 -0.000203759 0)
(-0.00905413 -0.000214038 0)
(-0.00896288 -0.000224191 0)
(-0.00886744 -0.000234206 0)
(-0.00876785 -0.000244069 0)
(-0.00866418 -0.000253767 0)
(-0.00855651 -0.000263286 0)
(-0.00844491 -0.000272614 0)
(-0.00832946 -0.000281737 0)
(-0.00821024 -0.000290643 0)
(-0.00808735 -0.000299319 0)
(-0.00796089 -0.000307754 0)
(-0.00783094 -0.000315935 0)
(-0.00769763 -0.000323851 0)
(-0.00756105 -0.00033149 0)
(-0.00742132 -0.000338843 0)
(-0.00727857 -0.000345897 0)
(-0.00713291 -0.000352644 0)
(-0.00698448 -0.000359072 0)
(-0.0068334 -0.000365173 0)
(-0.00667981 -0.000370937 0)
(-0.00652384 -0.000376355 0)
(-0.00636565 -0.000381418 0)
(-0.00620538 -0.000386117 0)
(-0.00604317 -0.000390445 0)
(-0.00587919 -0.000394392 0)
(-0.00571358 -0.000397951 0)
(-0.00554652 -0.000401113 0)
(-0.00537816 -0.000403869 0)
(-0.00520867 -0.000406213 0)
(-0.00503823 -0.000408135 0)
(-0.004867 -0.000409626 0)
(-0.00469518 -0.000410677 0)
(-0.00452293 -0.00041128 0)
(-0.00435045 -0.000411425 0)
(-0.00417794 -0.0004111 0)
(-0.00400557 -0.000410297 0)
(-0.00383357 -0.000409002 0)
(-0.00366213 -0.000407205 0)
(-0.00349146 -0.000404892 0)
(-0.00332178 -0.00040205 0)
(-0.00315331 -0.000398665 0)
(-0.00298629 -0.000394722 0)
(-0.00282094 -0.000390205 0)
(-0.0026575 -0.000385098 0)
(-0.00249624 -0.000379383 0)
(-0.0023374 -0.000373042 0)
(-0.00218124 -0.000366058 0)
(-0.00202804 -0.000358411 0)
(-0.00187807 -0.000350082 0)
(-0.00173163 -0.000341052 0)
(-0.001589 -0.000331303 0)
(-0.00145047 -0.000320817 0)
(-0.00131637 -0.000309576 0)
(-0.001187 -0.000297567 0)
(-0.00106266 -0.000284776 0)
(-0.000943694 -0.000271195 0)
(-0.000830405 -0.000256819 0)
(-0.000723113 -0.000241651 0)
(-0.000622131 -0.000225699 0)
(-0.000527761 -0.000208983 0)
(-0.000440295 -0.000191533 0)
(-0.000360002 -0.000173397 0)
(-0.000287126 -0.000154641 0)
(-0.000221877 -0.000135356 0)
(-0.000164416 -0.000115664 0)
(-0.000114846 -9.57261e-05 0)
(-7.31981e-05 -7.57522e-05 0)
(-3.94066e-05 -5.60135e-05 0)
(-1.32938e-05 -3.68579e-05 0)
(5.45774e-06 -1.87295e-05 0)
(1.73327e-05 -2.19009e-06 0)
(2.30142e-05 1.20558e-05 0)
(2.3417e-05 2.31363e-05 0)
(1.97142e-05 2.9993e-05 0)
(1.34046e-05 3.13788e-05 0)
(6.55537e-06 2.58777e-05 0)
(9.95216e-07 1.19182e-05 0)
(-7.46293e-07 -8.58091e-07 0)
(-8.38777e-06 1.2065e-05 0)
(-2.45301e-05 3.53293e-05 0)
(-5.05301e-05 6.48681e-05 0)
(-8.67926e-05 9.78605e-05 0)
(-0.00013361 0.000132301 0)
(-0.000191021 0.000166781 0)
(-0.00025884 0.000200338 0)
(-0.000336716 0.00023234 0)
(-0.000424176 0.000262394 0)
(-0.000520662 0.000290277 0)
(-0.000625562 0.000315891 0)
(-0.000738236 0.000339219 0)
(-0.000858038 0.000360309 0)
(-0.000984326 0.000379244 0)
(-0.00111648 0.000396135 0)
(-0.0012539 0.000411107 0)
(-0.00139601 0.000424295 0)
(-0.0015423 0.000435836 0)
(-0.00169226 0.000445864 0)
(-0.00184542 0.000454513 0)
(-0.00200138 0.000461907 0)
(-0.00215974 0.000468168 0)
(-0.00232014 0.000473407 0)
(-0.00248227 0.000477727 0)
(-0.00264583 0.000481227 0)
(-0.00281056 0.000483994 0)
(-0.00297622 0.000486109 0)