/*--------------------------------*- C++ -*----------------------------------*\
  =========                 |
  \\      /  F ield         | OpenFOAM: The Open Source CFD Toolbox
   \\    /   O peration     | Website:  https://openfoam.org
    \\  /    A nd           | Version:  6
     \\/     M anipulation  |
\*---------------------------------------------------------------------------*/
FoamFile
{
    version     2.0;
    format      ascii;
    class       volScalarField;
    location    "./ITHACAoutput/Offline/1";
    object      nut;
}
// * * * * * * * * * * * * * * * * * * * * * * * * * * * * * * * * * * * * * //

dimensions      [0 2 -1 0 0 0 0];

internalField   nonuniform List<scalar> 
115600
(
6.92335e-05
1.98687e-05
1.738e-05
1.65234e-05
1.56392e-05
1.44976e-05
1.32735e-05
1.211e-05
1.11162e-05
1.02432e-05
9.48026e-06
8.8167e-06
8.24131e-06
7.74291e-06
7.31114e-06
6.93692e-06
6.61252e-06
6.33143e-06
6.08818e-06
5.87814e-06
5.69741e-06
5.54264e-06
5.41097e-06
5.29993e-06
5.20738e-06
5.13149e-06
5.07063e-06
5.0234e-06
4.98856e-06
4.96501e-06
4.9518e-06
4.9492e-06
4.9605e-06
4.98287e-06
5.01369e-06
5.0515e-06
5.09523e-06
5.14399e-06
5.19699e-06
5.25356e-06
5.31309e-06
5.37514e-06
5.43932e-06
5.50543e-06
5.57343e-06
5.64361e-06
5.71663e-06
5.79398e-06
5.87816e-06
5.97459e-06
6.09159e-06
6.25463e-06
6.50218e-06
7.04422e-06
8.62889e-06
1.7397e-05
0.00440814
0.00242874
0.00215911
0.00204998
0.00191854
0.00174409
0.00155473
0.00137512
0.00122222
0.00109271
0.000983577
0.000891895
0.00081492
0.00075019
0.000695602
0.000649423
0.000610253
0.000576964
0.00054865
0.000524573
0.000504135
0.000486841
0.000472283
0.000460117
0.000450058
0.000441862
0.000435325
0.000430273
0.000426557
0.000424048
0.000422639
0.000422327
0.000423371
0.000425565
0.00042867
0.000432536
0.00043705
0.000442118
0.000447653
0.000453582
0.000459838
0.000466362
0.000473107
0.000480036
0.000487131
0.000494397
0.000501876
0.000509675
0.000518001
0.000527293
0.000538326
0.000553111
0.000575614
0.000621307
0.000749767
0.001164
0.0229074
0.0223731
0.0225806
0.0223584
0.0215042
0.0201329
0.0185008
0.0168212
0.0152393
0.0138216
0.0125681
0.0114709
0.0105171
0.00969113
0.00897743
0.00836159
0.00783096
0.0073745
0.00698275
0.00664756
0.00636192
0.0061198
0.00591599
0.00574599
0.00560589
0.00549233
0.00540242
0.00533365
0.0052839
0.0052513
0.00523432
0.00523249
0.00524757
0.00527777
0.0053206
0.0053741
0.00543662
0.00550671
0.00558301
0.00566425
0.00574922
0.00583683
0.00592603
0.00601589
0.00610559
0.00619451
0.0062823
0.00636911
0.00645594
0.0065455
0.00664386
0.00676499
0.00694403
0.00727652
0.00816977
0.0100215
0.0459101
0.055828
0.060272
0.0612558
0.0601545
0.0577684
0.0547147
0.0514355
0.0482292
0.045241
0.0425234
0.0400792
0.0378987
0.0359623
0.0342473
0.0327317
0.0313958
0.0302219
0.0291946
0.0283002
0.0275267
0.0268631
0.0262996
0.0258271
0.0254375
0.0251232
0.0248773
0.0246935
0.024566
0.0244899
0.0244606
0.0244757
0.0245358
0.024637
0.0247733
0.0249392
0.0251293
0.0253387
0.0255625
0.025796
0.0260349
0.0262748
0.0265117
0.0267418
0.0269612
0.0271665
0.0273546
0.0275228
0.0276698
0.0277966
0.0279095
0.0280265
0.0282012
0.0285688
0.029757
0.0323893
0.0635129
0.0861453
0.0983562
0.103141
0.103581
0.10148
0.0979693
0.0937941
0.0894517
0.0852354
0.0812891
0.0776659
0.0743821
0.0714295
0.0687896
0.0664406
0.0643601
0.0625265
0.0609193
0.0595198
0.0583106
0.0572758
0.0564006
0.0556712
0.0550749
0.0545998
0.0542346
0.0539693
0.0537944
0.0537015
0.0536829
0.0537335
0.0538508
0.054029
0.0542605
0.0545369
0.0548501
0.0551921
0.055555
0.0559313
0.0563134
0.0566943
0.0570672
0.0574253
0.0577621
0.0580713
0.0583468
0.0585831
0.058776
0.0589241
0.0590317
0.0591194
0.0592439
0.0595852
0.0608759
0.0643462
0.0757036
0.106797
0.127154
0.13759
0.141618
0.141719
0.139471
0.135896
0.131666
0.127236
0.122854
0.118674
0.114764
0.111156
0.107859
0.104872
0.102188
0.0997946
0.0976773
0.0958198
0.0942067
0.0928213
0.0916476
0.0906702
0.0898737
0.0892435
0.0887654
0.0884263
0.0882137
0.0881161
0.0881233
0.088227
0.0884207
0.0886973
0.0890474
0.0894612
0.0899282
0.0904374
0.0909783
0.0915405
0.0921138
0.0926888
0.0932559
0.0938061
0.0943311
0.0948219
0.0952713
0.0956717
0.0960185
0.0963102
0.0965533
0.0967757
0.0970494
0.0975963
0.0992873
0.103556
0.0850241
0.117856
0.143922
0.159931
0.168468
0.172047
0.172442
0.170845
0.168056
0.164623
0.160913
0.157128
0.153422
0.149871
0.146527
0.143421
0.140572
0.137988
0.135669
0.133612
0.13181
0.130254
0.128931
0.127831
0.126939
0.126243
0.125728
0.125381
0.125188
0.125139
0.12522
0.125421
0.125734
0.126148
0.126655
0.127245
0.127904
0.128621
0.129383
0.130179
0.130995
0.13182
0.132643
0.133454
0.134243
0.135001
0.135718
0.136388
0.137007
0.137576
0.138106
0.138633
0.139252
0.140193
0.142457
0.147255
0.0942045
0.121848
0.14983
0.169995
0.18289
0.190395
0.194159
0.1954
0.194972
0.193479
0.191339
0.188831
0.186136
0.183386
0.180677
0.178072
0.175617
0.173344
0.171271
0.169411
0.16777
0.16635
0.165149
0.164161
0.163381
0.162799
0.162406
0.162191
0.162142
0.162249
0.162502
0.162889
0.163399
0.164023
0.164754
0.165579
0.166487
0.167467
0.168504
0.169586
0.170699
0.171831
0.17297
0.174105
0.175225
0.176321
0.177385
0.17841
0.179395
0.180342
0.181269
0.182215
0.183293
0.184712
0.187542
0.192585
0.105547
0.121931
0.147338
0.169288
0.185602
0.196855
0.204198
0.208687
0.211141
0.212171
0.212223
0.211611
0.210545
0.2092
0.207708
0.20616
0.204626
0.203157
0.20179
0.200553
0.199465
0.19854
0.197786
0.197209
0.196809
0.196585
0.196532
0.196645
0.196917
0.19734
0.197908
0.198609
0.199435
0.200376
0.201426
0.202576
0.203814
0.20513
0.206511
0.207944
0.209416
0.210914
0.212427
0.213943
0.215453
0.216946
0.218415
0.219855
0.221266
0.222651
0.224033
0.225449
0.22702
0.228908
0.232187
0.237253
0.12054
0.121325
0.139658
0.160168
0.178165
0.192406
0.203112
0.210918
0.21648
0.220346
0.222954
0.224633
0.22562
0.226119
0.226283
0.226229
0.226045
0.225796
0.225536
0.225305
0.225135
0.225049
0.225067
0.225203
0.225465
0.22586
0.22639
0.227055
0.227853
0.228781
0.229837
0.231012
0.232298
0.233691
0.235183
0.236769
0.23844
0.240186
0.241996
0.243859
0.245763
0.247695
0.249644
0.251601
0.253554
0.255495
0.257418
0.259317
0.261193
0.263051
0.264911
0.266806
0.268855
0.271159
0.274741
0.279681
0.139949
0.122838
0.130618
0.14598
0.162994
0.178694
0.192006
0.202829
0.211444
0.218233
0.223571
0.227769
0.231085
0.233728
0.235867
0.23763
0.23912
0.240417
0.241585
0.242676
0.243731
0.244784
0.245861
0.246986
0.248174
0.249439
0.250788
0.252228
0.253763
0.255393
0.25712
0.258939
0.260847
0.262838
0.264912
0.267062
0.269283
0.271568
0.273908
0.276293
0.278712
0.281154
0.283611
0.286071
0.288526
0.290967
0.293389
0.295785
0.298157
0.300508
0.302857
0.305225
0.30772
0.310376
0.314133
0.318853
0.164607
0.128714
0.124213
0.131176
0.143821
0.15844
0.172772
0.185709
0.196915
0.206435
0.214479
0.221287
0.227083
0.232062
0.236388
0.240196
0.243599
0.246684
0.249526
0.252186
0.254713
0.257148
0.259525
0.261874
0.264218
0.266573
0.268957
0.271378
0.273846
0.276366
0.278943
0.281577
0.284266
0.287009
0.289806
0.292655
0.295553
0.298494
0.301471
0.304478
0.307505
0.310543
0.313584
0.316618
0.319637
0.322634
0.325602
0.328536
0.331435
0.3343
0.337145
0.339978
0.342887
0.345842
0.34968
0.354132
0.196295
0.140986
0.124006
0.120802
0.125924
0.136121
0.148755
0.161927
0.174554
0.186151
0.196574
0.205859
0.214118
0.221488
0.228105
0.234093
0.239562
0.244604
0.249298
0.25371
0.257896
0.261902
0.26577
0.269533
0.27322
0.276854
0.280454
0.284036
0.287612
0.291191
0.294781
0.298388
0.30201
0.30565
0.30931
0.31299
0.316688
0.320403
0.324129
0.32786
0.331592
0.335314
0.339021
0.342704
0.346355
0.349968
0.353535
0.357051
0.360512
0.363916
0.367268
0.370565
0.373868
0.377088
0.380949
0.38512
0.237857
0.16216
0.13307
0.11951
0.115397
0.118125
0.125593
0.135991
0.147807
0.159953
0.171771
0.182925
0.19329
0.20286
0.211687
0.219848
0.227424
0.234496
0.241138
0.247415
0.253383
0.259095
0.264591
0.269911
0.275087
0.280145
0.285109
0.289997
0.294826
0.299607
0.304352
0.309068
0.313758
0.318427
0.323076
0.327709
0.332326
0.336926
0.341507
0.346065
0.350595
0.355091
0.359547
0.363955
0.368308
0.3726
0.376822
0.380967
0.38503
0.389002
0.392882
0.39665
0.400341
0.403812
0.407672
0.411583
0.29353
0.196525
0.155277
0.131657
0.117988
0.111682
0.111264
0.115516
0.123181
0.133047
0.144095
0.155568
0.166973
0.178028
0.188595
0.198629
0.208133
0.217138
0.225689
0.233832
0.241616
0.249085
0.256281
0.26324
0.269995
0.276576
0.283006
0.289307
0.295497
0.30159
0.3076
0.313536
0.319405
0.325211
0.330958
0.336649
0.342287
0.347873
0.353405
0.358881
0.364298
0.369651
0.374934
0.380141
0.385264
0.390297
0.39523
0.400055
0.404763
0.409339
0.413773
0.41803
0.422116
0.425844
0.429711
0.433409
0.372147
0.252794
0.197916
0.16354
0.1399
0.12387
0.114138
0.109845
0.110158
0.114206
0.121102
0.129994
0.140134
0.150932
0.161963
0.17295
0.183725
0.1942
0.204337
0.214126
0.223579
0.232716
0.241561
0.25014
0.258481
0.266608
0.274542
0.282305
0.289913
0.297383
0.304725
0.311954
0.319076
0.326098
0.333023
0.339853
0.346592
0.353242
0.359803
0.366274
0.372652
0.378933
0.385112
0.391182
0.397137
0.402969
0.408667
0.41422
0.419615
0.424833
0.429852
0.434622
0.439124
0.443131
0.447042
0.450601
0.486619
0.343991
0.272286
0.224885
0.189801
0.16288
0.14252
0.128
0.118739
0.114131
0.113534
0.116283
0.121713
0.129184
0.138111
0.147997
0.158448
0.169174
0.179974
0.190714
0.201313
0.211724
0.221925
0.231908
0.241675
0.251232
0.260592
0.269765
0.278762
0.287594
0.296272
0.304805
0.313201
0.321467
0.329605
0.337616
0.345501
0.353263
0.360903
0.368418
0.375808
0.383067
0.390192
0.397175
0.40401
0.410686
0.417192
0.423514
0.429635
0.435529
0.441166
0.44648
0.451426
0.455752
0.459767
0.463283
0.634764
0.475355
0.385564
0.323454
0.27573
0.236955
0.204978
0.178941
0.158416
0.143052
0.132441
0.126106
0.123528
0.124176
0.127527
0.133072
0.140335
0.148886
0.158356
0.168441
0.178909
0.189586
0.200346
0.211104
0.221799
0.232395
0.242867
0.253202
0.263391
0.273432
0.283324
0.293067
0.302664
0.312117
0.321428
0.330593
0.33961
0.348479
0.357198
0.365766
0.374179
0.382433
0.390523
0.398441
0.406177
0.413722
0.421062
0.428179
0.435052
0.441649
0.44793
0.453817
0.459244
0.463939
0.468137
0.471729
0.782898
0.628698
0.528008
0.454186
0.395653
0.346528
0.304235
0.267567
0.235999
0.209316
0.18739
0.170059
0.157073
0.148103
0.142761
0.140635
0.141306
0.144362
0.149405
0.156062
0.16399
0.17289
0.182507
0.192634
0.203105
0.213794
0.224605
0.235466
0.246325
0.257141
0.267887
0.278542
0.289091
0.299522
0.309829
0.320003
0.330032
0.339908
0.349626
0.359179
0.368561
0.377767
0.386787
0.395612
0.404233
0.412634
0.4208
0.428709
0.436336
0.443644
0.450583
0.457064
0.463005
0.468125
0.472604
0.47641
0.895558
0.771724
0.675074
0.598121
0.53443
0.479411
0.430751
0.387122
0.347812
0.312499
0.281087
0.253587
0.230031
0.21041
0.194641
0.182563
0.173947
0.168513
0.165953
0.165946
0.168165
0.172292
0.17802
0.185065
0.193169
0.202106
0.211681
0.221735
0.232134
0.242774
0.253569
0.264453
0.275373
0.286289
0.297167
0.307981
0.318708
0.329324
0.339809
0.350149
0.36033
0.370339
0.380164
0.389789
0.3992
0.408379
0.417307
0.425956
0.434298
0.442287
0.449869
0.456946
0.463423
0.469022
0.473889
0.478063
0.965619
0.882698
0.803874
0.734097
0.672748
0.617746
0.567778
0.521887
0.479432
0.440027
0.403487
0.369768
0.33892
0.311047
0.286262
0.264659
0.246288
0.23114
0.219141
0.210159
0.204015
0.200492
0.199351
0.20034
0.203199
0.207678
0.213534
0.220539
0.22849
0.237205
0.246524
0.256312
0.266456
0.276862
0.287449
0.298154
0.308924
0.319709
0.330467
0.341163
0.351767
0.362252
0.372593
0.382768
0.392752
0.40252
0.412046
0.421297
0.430237
0.438816
0.446973
0.454606
0.461612
0.467729
0.473087
0.477789
1.00413
0.958056
0.903368
0.848342
0.795988
0.74662
0.700166
0.656368
0.614927
0.575602
0.538229
0.502724
0.469079
0.437344
0.407619
0.380033
0.354731
0.331855
0.311528
0.293839
0.278834
0.266509
0.25681
0.249637
0.244853
0.24229
0.241759
0.243061
0.245989
0.250339
0.255916
0.262534
0.270027
0.278241
0.287041
0.296308
0.305942
0.315852
0.325961
0.336202
0.346514
0.356846
0.367152
0.377388
0.387516
0.397499
0.407295
0.416865
0.426163
0.435131
0.443703
0.451774
0.459246
0.465875
0.471803
0.477183
1.02403
1.00485
0.973463
0.936165
0.89684
0.857166
0.818003
0.779769
0.742611
0.706552
0.671573
0.637651
0.604783
0.572991
0.542328
0.512876
0.484745
0.458065
0.432983
0.409649
0.388213
0.368808
0.351544
0.336501
0.323718
0.313195
0.304893
0.298738
0.294623
0.292416
0.29197
0.293126
0.295717
0.29958
0.304554
0.310488
0.317238
0.324676
0.332682
0.341153
0.349993
0.359115
0.368441
0.377901
0.387429
0.396965
0.406452
0.415832
0.425047
0.43403
0.442706
0.450974
0.458741
0.465794
0.472307
0.478466
1.03424
1.03249
1.01983
0.999369
0.974173
0.946148
0.916543
0.886199
0.85561
0.82506
0.794714
0.764668
0.734981
0.705704
0.676887
0.648588
0.620883
0.593861
0.567629
0.542308
0.518033
0.494949
0.473201
0.452934
0.434281
0.417357
0.402256
0.389041
0.377748
0.368378
0.360901
0.355259
0.351371
0.349134
0.348431
0.349137
0.351117
0.354238
0.358367
0.363382
0.369167
0.37561
0.382604
0.39005
0.397855
0.405934
0.414204
0.422588
0.431008
0.439387
0.447642
0.455672
0.463399
0.470648
0.477636
0.484566
1.0398
1.04863
1.04943
1.04287
1.03068
1.01435
0.995024
0.973656
0.950904
0.927224
0.902921
0.878207
0.853224
0.828075
0.802841
0.777592
0.752395
0.727321
0.702449
0.677866
0.653672
0.629979
0.606906
0.584585
0.563148
0.542733
0.523473
0.505494
0.488908
0.473811
0.46028
0.448364
0.438091
0.429462
0.422454
0.417022
0.413103
0.410614
0.40946
0.409541
0.410759
0.413011
0.416192
0.420198
0.424927
0.430277
0.436152
0.442458
0.449104
0.456001
0.463063
0.470194
0.477335
0.484351
0.491512
0.49902
1.04321
1.05837
1.06823
1.07213
1.07071
1.06481
1.05525
1.04285
1.02826
1.01198
0.9944
0.975788
0.956355
0.936258
0.915614
0.894522
0.873055
0.851289
0.829293
0.807139
0.784904
0.762671
0.740532
0.718585
0.696939
0.675708
0.655013
0.634978
0.615725
0.597377
0.580049
0.563847
0.548862
0.535172
0.522836
0.511893
0.502365
0.494253
0.487533
0.482159
0.478087
0.475261
0.473621
0.473095
0.473605
0.475068
0.477398
0.480509
0.484314
0.488728
0.493674
0.499072
0.504891
0.511042
0.517849
0.525499
1.04562
1.06463
1.08041
1.09176
1.09863
1.10131
1.10026
1.09605
1.0892
1.08018
1.06937
1.05705
1.04347
1.02882
1.01324
0.996852
0.97975
0.96202
0.94373
0.924952
0.905755
0.886206
0.866377
0.846344
0.826191
0.806008
0.78589
0.765938
0.74626
0.726966
0.708167
0.689975
0.672499
0.655844
0.640106
0.62537
0.611715
0.599204
0.587878
0.577748
0.568825
0.561118
0.554625
0.549333
0.545218
0.542245
0.540372
0.539549
0.539722
0.540838
0.542851
0.545715
0.549442
0.553999
0.559758
0.566898
1.04751
1.06902
1.08865
1.10513
1.11809
1.12744
1.13334
1.13611
1.13614
1.13375
1.12928
1.123
1.11515
1.10592
1.09546
1.08392
1.0714
1.05799
1.04377
1.02882
1.0132
0.996963
0.98019
0.962936
0.945266
0.927255
0.908977
0.89051
0.871942
0.853364
0.834868
0.816552
0.798517
0.780863
0.763692
0.747102
0.731188
0.716047
0.701748
0.688337
0.675868
0.664393
0.653959
0.644607
0.636369
0.629267
0.623314
0.618516
0.614873
0.612383
0.611053
0.610892
0.611969
0.614313
0.618342
0.624246
1.04908
1.07231
1.09447
1.11446
1.13175
1.14608
1.15742
1.16587
1.17165
1.175
1.17616
1.17536
1.1728
1.16867
1.16311
1.15625
1.14822
1.13911
1.129
1.11797
1.10609
1.09342
1.08001
1.06593
1.05124
1.03599
1.02025
1.00407
0.987536
0.97071
0.953668
0.936491
0.919268
0.90208
0.88502
0.86818
0.851654
0.835542
0.819915
0.804839
0.790383
0.776622
0.763627
0.751473
0.740229
0.729961
0.720728
0.712587
0.705592
0.699796
0.695263
0.692063
0.690326
0.690145
0.691975
0.696047
1.05038
1.07483
1.09872
1.12108
1.1414
1.15936
1.1748
1.18768
1.19811
1.20622
1.21216
1.21611
1.21823
1.21867
1.21756
1.21503
1.21119
1.20613
1.19995
1.19271
1.18449
1.17535
1.16534
1.15453
1.14297
1.13071
1.1178
1.1043
1.09026
1.07574
1.06081
1.04552
1.02996
1.01418
0.998267
0.982298
0.966365
0.950544
0.934905
0.919516
0.904447
0.88978
0.875596
0.861976
0.849011
0.836787
0.825388
0.814907
0.805434
0.797066
0.789911
0.784089
0.779778
0.777123
0.776606
0.778521
1.05142
1.07675
1.10181
1.12577
1.14818
1.1687
1.18713
1.20338
1.21742
1.22934
1.2392
1.24712
1.25322
1.25761
1.2604
1.26171
1.26163
1.26026
1.25767
1.25394
1.24914
1.24332
1.23657
1.22891
1.22041
1.21112
1.20108
1.19035
1.17896
1.16698
1.15445
1.14143
1.12796
1.11412
1.09997
1.08556
1.07099
1.05629
1.04155
1.02681
1.01216
0.997659
0.983392
0.969433
0.955881
0.942822
0.930354
0.918578
0.907605
0.897557
0.888564
0.880774
0.874394
0.869599
0.866881
0.86661
1.05219
1.07811
1.10394
1.12893
1.15273
1.17502
1.19557
1.21427
1.23105
1.2459
1.25886
1.26999
1.27936
1.28705
1.29316
1.29777
1.30096
1.30281
1.30341
1.30281
1.30109
1.29831
1.29453
1.28979
1.28415
1.27766
1.27037
1.26231
1.25354
1.24409
1.23402
1.22337
1.21217
1.2005
1.18839
1.1759
1.16309
1.15001
1.13671
1.12324
1.10967
1.09607
1.08249
1.06902
1.05574
1.04272
1.03008
1.0179
1.0063
0.995405
0.985349
0.976289
0.968437
0.96198
0.957393
0.955131
1.0527
1.07894
1.10518
1.13079
1.15544
1.17885
1.20083
1.22124
1.23999
1.25702
1.27235
1.28597
1.29795
1.30832
1.31715
1.3245
1.33045
1.33505
1.33839
1.34052
1.3415
1.34138
1.34024
1.33812
1.33507
1.33114
1.32636
1.32079
1.31446
1.30742
1.29971
1.29136
1.28242
1.27293
1.26294
1.25249
1.24161
1.23036
1.21878
1.20691
1.19481
1.18253
1.17013
1.15767
1.14523
1.13288
1.12069
1.10877
1.09722
1.08614
1.07568
1.06596
1.0572
1.04958
1.04353
1.0396
1.05295
1.07922
1.10557
1.13142
1.15649
1.18053
1.20336
1.22486
1.24493
1.26349
1.28052
1.29601
1.30996
1.32241
1.3334
1.34297
1.35116
1.35805
1.36368
1.36811
1.37139
1.37358
1.37474
1.3749
1.37413
1.37245
1.36993
1.36659
1.36248
1.35764
1.3521
1.34591
1.33909
1.33169
1.32375
1.31529
1.30635
1.29697
1.28719
1.27704
1.26658
1.25584
1.24486
1.23372
1.22245
1.21112
1.19981
1.18859
1.17754
1.16677
1.15638
1.14649
1.1373
1.12894
1.12184
1.1166
1.05291
1.07895
1.10511
1.13087
1.15597
1.1802
1.20341
1.22547
1.24629
1.26581
1.28396
1.30073
1.3161
1.33008
1.3427
1.35397
1.36394
1.37265
1.38014
1.38646
1.39166
1.39579
1.39889
1.40101
1.40219
1.40248
1.40192
1.40055
1.39841
1.39553
1.39195
1.3877
1.38282
1.37734
1.37129
1.36471
1.35762
1.35004
1.34203
1.3336
1.32479
1.31564
1.30618
1.29647
1.28653
1.27643
1.26622
1.25595
1.24569
1.23553
1.22554
1.21584
1.20656
1.19785
1.19006
1.18386
1.0526
1.07813
1.1038
1.12913
1.15391
1.17794
1.20109
1.22324
1.24433
1.26428
1.28303
1.30055
1.31682
1.33183
1.34558
1.35809
1.36938
1.37947
1.38842
1.39624
1.40298
1.40869
1.4134
1.41715
1.41999
1.42196
1.42309
1.42342
1.42299
1.42183
1.41997
1.41746
1.41431
1.41056
1.40623
1.40136
1.39596
1.39007
1.38372
1.37692
1.36971
1.36211
1.35417
1.34589
1.33733
1.32852
1.31949
1.3103
1.30099
1.29162
1.28225
1.27295
1.26386
1.25506
1.24689
1.24005
1.052
1.07675
1.10162
1.12621
1.15031
1.17376
1.19644
1.21827
1.23916
1.25907
1.27794
1.29572
1.31241
1.32796
1.34239
1.35568
1.36786
1.37894
1.38895
1.3979
1.40584
1.41279
1.41879
1.42388
1.42809
1.43146
1.43402
1.4358
1.43684
1.43718
1.43683
1.43583
1.43421
1.432
1.42921
1.42588
1.42202
1.41767
1.41284
1.40756
1.40184
1.39571
1.3892
1.38232
1.3751
1.36757
1.35975
1.35167
1.34337
1.33488
1.32624
1.31751
1.30878
1.30012
1.29182
1.28463
1.05112
1.07479
1.09855
1.12206
1.14513
1.16764
1.18947
1.21055
1.23082
1.25024
1.26877
1.28637
1.30301
1.31866
1.33332
1.34698
1.35965
1.37132
1.38202
1.39175
1.40055
1.40844
1.41544
1.42158
1.42689
1.43141
1.43515
1.43816
1.44045
1.44207
1.44302
1.44335
1.44308
1.44222
1.4408
1.43885
1.43639
1.43343
1.42999
1.42609
1.42176
1.417
1.41183
1.40627
1.40033
1.39404
1.3874
1.38043
1.37315
1.36558
1.35775
1.34968
1.34144
1.3331
1.32491
1.31762
1.04995
1.07222
1.09456
1.11664
1.13833
1.15951
1.18009
1.20003
1.21927
1.23779
1.25555
1.27252
1.28869
1.30402
1.3185
1.33213
1.34488
1.35678
1.36782
1.378
1.38734
1.39586
1.40358
1.4105
1.41667
1.4221
1.42681
1.43083
1.43418
1.43688
1.43896
1.44044
1.44135
1.44169
1.4415
1.44079
1.43958
1.43788
1.43572
1.4331
1.43003
1.42654
1.42263
1.41831
1.41359
1.40848
1.40298
1.3971
1.39085
1.38423
1.37725
1.36993
1.36231
1.35444
1.34656
1.33943
1.04846
1.06901
1.08957
1.10988
1.12981
1.14928
1.16824
1.18663
1.20444
1.22165
1.23823
1.25417
1.26946
1.28407
1.29798
1.31118
1.32367
1.33543
1.34647
1.35678
1.36636
1.37523
1.38339
1.39086
1.39764
1.40376
1.40923
1.41407
1.41829
1.42191
1.42496
1.42744
1.42938
1.4308
1.43171
1.43212
1.43205
1.43151
1.43052
1.42908
1.42721
1.42491
1.42219
1.41905
1.4155
1.41153
1.40715
1.40235
1.39713
1.39148
1.38541
1.37893
1.37205
1.36483
1.35749
1.35076
1.04662
1.06511
1.08352
1.10166
1.11945
1.13683
1.15376
1.17023
1.18622
1.20173
1.21676
1.23129
1.24532
1.25883
1.27181
1.28423
1.29611
1.3074
1.31812
1.32825
1.33779
1.34674
1.35509
1.36285
1.37003
1.37663
1.38267
1.38814
1.39307
1.39746
1.40133
1.40468
1.40755
1.40992
1.41182
1.41326
1.41424
1.41478
1.41489
1.41457
1.41383
1.41267
1.4111
1.4091
1.40669
1.40386
1.4006
1.39689
1.39274
1.38813
1.38306
1.37752
1.37154
1.36517
1.3586
1.35255
1.04441
1.06042
1.07629
1.09186
1.10711
1.12201
1.13653
1.1507
1.16451
1.17798
1.1911
1.20388
1.21631
1.22839
1.2401
1.25144
1.26237
1.2729
1.28301
1.29268
1.3019
1.31066
1.31896
1.3268
1.33416
1.34105
1.34746
1.35341
1.35889
1.36391
1.36847
1.37259
1.37626
1.3795
1.38231
1.3847
1.38668
1.38824
1.38941
1.39017
1.39053
1.39049
1.39005
1.38921
1.38795
1.38627
1.38416
1.38161
1.37861
1.37513
1.37118
1.36674
1.36186
1.35659
1.3511
1.34606
1.04175
1.05484
1.06772
1.08031
1.09261
1.10465
1.11642
1.12795
1.13926
1.15037
1.1613
1.17204
1.1826
1.19297
1.20314
1.2131
1.22284
1.23233
1.24157
1.25052
1.25918
1.26753
1.27556
1.28325
1.2906
1.29759
1.30421
1.31047
1.31636
1.32188
1.32702
1.3318
1.33619
1.34022
1.34388
1.34717
1.3501
1.35266
1.35486
1.35669
1.35816
1.35925
1.35998
1.36032
1.36027
1.35982
1.35895
1.35766
1.35592
1.35372
1.35107
1.34797
1.34445
1.34058
1.33654
1.33289
1.03856
1.04822
1.05765
1.06683
1.07583
1.08467
1.09339
1.10202
1.1106
1.11914
1.12766
1.13615
1.14464
1.15309
1.16152
1.16991
1.17823
1.18648
1.19463
1.20266
1.21055
1.21829
1.22584
1.23321
1.24036
1.24728
1.25396
1.2604
1.26656
1.27246
1.27809
1.28342
1.28847
1.29323
1.29769
1.30185
1.30571
1.30926
1.3125
1.31543
1.31804
1.32032
1.32227
1.32387
1.32513
1.32601
1.32652
1.32664
1.32635
1.32566
1.32456
1.32307
1.32124
1.31916
1.31699
1.31519
1.03476
1.04045
1.04598
1.05141
1.05681
1.06224
1.06774
1.07334
1.07907
1.08494
1.09095
1.09711
1.10342
1.10987
1.11644
1.12314
1.12992
1.13679
1.14371
1.15067
1.15764
1.16461
1.17154
1.17842
1.18523
1.19194
1.19855
1.20503
1.21137
1.21755
1.22356
1.2294
1.23504
1.24048
1.24571
1.25073
1.25552
1.26008
1.2644
1.26848
1.27229
1.27585
1.27912
1.28212
1.28481
1.2872
1.28927
1.29101
1.29241
1.29349
1.29425
1.29473
1.29498
1.29512
1.2953
1.29584
1.03031
1.03155
1.03288
1.03437
1.03611
1.03812
1.04044
1.04306
1.04601
1.04928
1.05286
1.05675
1.06094
1.06541
1.07016
1.07516
1.08039
1.08585
1.0915
1.09732
1.1033
1.10941
1.11562
1.12192
1.12829
1.1347
1.14113
1.14757
1.15399
1.16038
1.16672
1.173
1.1792
1.18531
1.19131
1.19719
1.20295
1.20855
1.21401
1.21931
1.22442
1.22935
1.23409
1.23861
1.24292
1.24699
1.25084
1.25444
1.25782
1.26097
1.26392
1.26674
1.26949
1.27229
1.2753
1.27862
1.0254
1.02204
1.01923
1.01699
1.01533
1.01423
1.01368
1.01366
1.01414
1.01511
1.01655
1.01843
1.02073
1.02344
1.02654
1.03001
1.03382
1.03797
1.04244
1.04719
1.05221
1.05749
1.06299
1.06871
1.07462
1.0807
1.08693
1.0933
1.09977
1.10634
1.11299
1.1197
1.12644
1.13321
1.13999
1.14676
1.1535
1.16021
1.16686
1.17344
1.17995
1.18636
1.19267
1.19886
1.20492
1.21086
1.21667
1.22235
1.22791
1.23339
1.23883
1.24429
1.24986
1.25565
1.26182
1.26822
1.02084
1.01346
1.00719
1.00195
0.997612
0.994115
0.991376
0.989345
0.987973
0.987212
0.987026
0.987387
0.988267
0.989642
0.991487
0.993784
0.996513
0.999657
1.0032
1.00712
1.0114
1.01604
1.021
1.02628
1.03185
1.03771
1.04382
1.05019
1.05677
1.06357
1.07056
1.07772
1.08503
1.09248
1.10004
1.10771
1.11545
1.12326
1.13111
1.139
1.1469
1.1548
1.1627
1.17057
1.17843
1.18626
1.19406
1.20186
1.20968
1.21754
1.22552
1.23367
1.2421
1.25091
1.26022
1.26963
1.01808
1.00834
1.00013
0.993215
0.987426
0.982639
0.978734
0.975644
0.973302
0.971638
0.970624
0.970212
0.97037
0.971073
0.972297
0.974022
0.976229
0.978903
0.982029
0.985592
0.989581
0.993981
0.99878
1.00396
1.00952
1.01543
1.02168
1.02825
1.03513
1.04229
1.04973
1.05742
1.06534
1.07348
1.08181
1.09032
1.09899
1.10779
1.11672
1.12575
1.13487
1.14407
1.15334
1.16267
1.17206
1.18151
1.19104
1.20067
1.21042
1.22035
1.23052
1.24099
1.25187
1.26325
1.27519
1.28706
1.01844
1.00899
1.001
0.994259
0.988631
0.98398
0.980223
0.977282
0.975084
0.973582
0.972737
0.972504
0.972859
0.973772
0.975224
0.977194
0.979668
0.982629
0.986066
0.989966
0.994315
0.999101
1.00431
1.00993
1.01595
1.02235
1.02912
1.03623
1.04367
1.05142
1.05946
1.06776
1.07632
1.08511
1.09411
1.1033
1.11268
1.1222
1.13188
1.14167
1.15159
1.16162
1.17175
1.18198
1.19232
1.20279
1.21339
1.22416
1.23514
1.24638
1.25794
1.26991
1.28236
1.29538
1.30899
1.32232
1.02195
1.0155
1.01001
1.00544
1.00171
0.998781
0.9966
0.995124
0.994316
0.994143
0.994572
0.995581
0.997147
0.999249
1.00187
1.005
1.00861
1.0127
1.01725
1.02224
1.02766
1.0335
1.03974
1.04636
1.05334
1.06067
1.06832
1.07627
1.0845
1.09299
1.10171
1.11065
1.11978
1.12909
1.13855
1.14815
1.15788
1.16773
1.17767
1.18771
1.19783
1.20805
1.21836
1.22877
1.2393
1.24996
1.26078
1.2718
1.28308
1.29465
1.3066
1.31899
1.33191
1.34542
1.35951
1.37314
1.0271
1.02532
1.02393
1.023
1.02257
1.02265
1.02326
1.02439
1.02604
1.02821
1.03087
1.03403
1.03768
1.04179
1.04636
1.05138
1.05683
1.0627
1.06897
1.07561
1.08262
1.08997
1.09763
1.10559
1.11383
1.1223
1.13101
1.1399
1.14897
1.1582
1.16754
1.177
1.18654
1.19614
1.2058
1.2155
1.22523
1.23499
1.24477
1.25458
1.26441
1.27427
1.28419
1.29416
1.30422
1.3144
1.32473
1.33527
1.34605
1.35714
1.36862
1.38054
1.39298
1.406
1.41956
1.43248
1.0324
1.03574
1.03909
1.04253
1.04615
1.05001
1.05417
1.05864
1.06345
1.06863
1.07417
1.08009
1.08638
1.09303
1.10004
1.1074
1.11509
1.12309
1.13138
1.13995
1.14876
1.15779
1.16701
1.17639
1.18592
1.19555
1.20526
1.21503
1.22484
1.23465
1.24446
1.25424
1.26398
1.27367
1.28328
1.29283
1.3023
1.31169
1.32103
1.33029
1.33951
1.3487
1.35787
1.36705
1.37628
1.38558
1.39501
1.4046
1.41442
1.42453
1.435
1.44588
1.45724
1.46913
1.48148
1.49306
1.03722
1.04545
1.05352
1.06148
1.06939
1.07735
1.08539
1.09356
1.10191
1.11045
1.11921
1.1282
1.13743
1.14689
1.15657
1.16646
1.17655
1.18681
1.19721
1.20774
1.21837
1.22905
1.23977
1.2505
1.2612
1.27185
1.28243
1.2929
1.30326
1.31348
1.32355
1.33346
1.34321
1.35277
1.36215
1.37136
1.38038
1.38924
1.39794
1.4065
1.41494
1.42327
1.43153
1.43974
1.44793
1.45616
1.46447
1.4729
1.48151
1.49037
1.49952
1.50904
1.51897
1.52935
1.54008
1.54994
1.04144
1.05411
1.06658
1.07884
1.09096
1.10297
1.11493
1.12687
1.13882
1.15083
1.1629
1.17505
1.18729
1.1996
1.21198
1.22441
1.23687
1.24933
1.26177
1.27415
1.28646
1.29865
1.31069
1.32257
1.33425
1.34572
1.35694
1.36791
1.37862
1.38904
1.39918
1.40903
1.41859
1.42787
1.43687
1.44558
1.45403
1.46223
1.47019
1.47794
1.48549
1.49287
1.50012
1.50727
1.51435
1.52141
1.52849
1.53564
1.54292
1.55037
1.55806
1.56604
1.57433
1.58297
1.59185
1.59975
1.04512
1.06172
1.07818
1.09442
1.11046
1.12632
1.14202
1.15758
1.17304
1.1884
1.20369
1.21891
1.23405
1.2491
1.26404
1.27886
1.29352
1.308
1.32227
1.33629
1.35005
1.3635
1.37663
1.38941
1.40183
1.41386
1.42551
1.43674
1.44758
1.458
1.46802
1.47764
1.48687
1.49571
1.50418
1.51229
1.52005
1.5275
1.53464
1.5415
1.5481
1.55449
1.56068
1.56671
1.57262
1.57846
1.58426
1.59007
1.59594
1.60192
1.60805
1.61437
1.6209
1.62767
1.63454
1.64033
1.04835
1.06845
1.08847
1.10831
1.12793
1.14732
1.16648
1.18541
1.20412
1.22262
1.2409
1.25895
1.27676
1.29431
1.31156
1.32851
1.3451
1.36132
1.37713
1.3925
1.40741
1.42184
1.43577
1.44917
1.46205
1.47441
1.48622
1.4975
1.50826
1.51849
1.52821
1.53743
1.54617
1.55445
1.56228
1.56968
1.57668
1.58329
1.58954
1.59546
1.60107
1.6064
1.61149
1.61638
1.62108
1.62566
1.63014
1.63457
1.63899
1.64343
1.64794
1.65253
1.65721
1.66201
1.66674
1.67032
1.0512
1.0744
1.09762
1.12067
1.14351
1.16608
1.18836
1.21033
1.23197
1.25328
1.27423
1.2948
1.31495
1.33467
1.35391
1.37264
1.39082
1.40843
1.42544
1.44182
1.45756
1.47264
1.48706
1.5008
1.51388
1.52628
1.53804
1.54914
1.55961
1.56947
1.57873
1.58741
1.59553
1.60313
1.61022
1.61682
1.62296
1.62867
1.63397
1.63889
1.64346
1.6477
1.65166
1.65535
1.65882
1.6621
1.66523
1.66823
1.67115
1.674
1.67682
1.67961
1.68237
1.68509
1.68759
1.68888
1.05372
1.07969
1.10574
1.13166
1.15735
1.18273
1.20777
1.2324
1.25661
1.28036
1.3036
1.3263
1.34841
1.3699
1.39072
1.41084
1.43022
1.44884
1.46667
1.4837
1.49992
1.51533
1.52993
1.54372
1.55672
1.56894
1.58041
1.59113
1.60113
1.61044
1.61908
1.62709
1.63447
1.64128
1.64752
1.65324
1.65845
1.66319
1.66748
1.67134
1.67481
1.67791
1.68068
1.68315
1.68533
1.68727
1.68899
1.69052
1.69188
1.69308
1.69414
1.69506
1.69581
1.69637
1.69655
1.69544
1.05595
1.08437
1.11293
1.14137
1.16955
1.19739
1.22479
1.25171
1.27808
1.30385
1.32896
1.35336
1.377
1.39983
1.4218
1.44288
1.46304
1.48227
1.50054
1.51785
1.53421
1.54962
1.5641
1.57766
1.59033
1.60213
1.61309
1.62323
1.63259
1.64119
1.64908
1.65627
1.66281
1.66871
1.67402
1.67876
1.68296
1.68666
1.68986
1.6926
1.6949
1.69681
1.69833
1.6995
1.70034
1.70088
1.70113
1.70111
1.70084
1.70032
1.69954
1.69851
1.69715
1.69546
1.69322
1.68964
1.05789
1.08848
1.11923
1.14986
1.18019
1.2101
1.2395
1.26829
1.29639
1.32375
1.35028
1.37593
1.40063
1.42434
1.44701
1.46862
1.48914
1.50856
1.52688
1.54412
1.56028
1.57538
1.58945
1.60252
1.61461
1.62576
1.63601
1.64539
1.65394
1.66169
1.66867
1.67493
1.68049
1.68539
1.68966
1.69333
1.69643
1.69898
1.70101
1.70255
1.70362
1.70424
1.70444
1.70424
1.70366
1.70271
1.70141
1.69976
1.69778
1.69545
1.69275
1.68966
1.68612
1.68209
1.67734
1.67123
1.05955
1.09202
1.12468
1.15716
1.1893
1.22092
1.2519
1.28214
1.31154
1.34003
1.36751
1.39393
1.41922