/*--------------------------------*- C++ -*----------------------------------*\
  =========                 |
  \\      /  F ield         | OpenFOAM: The Open Source CFD Toolbox
   \\    /   O peration     | Website:  https://openfoam.org
    \\  /    A nd           | Version:  6
     \\/     M anipulation  |
\*---------------------------------------------------------------------------*/
FoamFile
{
    version     2.0;
    format      ascii;
    class       volVectorField;
    location    "0";
    object      U_rec;
}
// * * * * * * * * * * * * * * * * * * * * * * * * * * * * * * * * * * * * * //

dimensions      [0 1 -1 0 0 0 0];

internalField   nonuniform List<vector> 
40000
(
(4.22185e-07 -4.22309e-07 0)
(2.69366e-06 -9.2186e-07 0)
(5.93029e-06 -1.10298e-06 0)
(9.32431e-06 -1.00452e-06 0)
(1.2038e-05 -7.48789e-07 0)
(1.35956e-05 -4.01688e-07 0)
(1.37255e-05 -7.24955e-09 0)
(1.2286e-05 4.05069e-07 0)
(9.2281e-06 8.16263e-07 0)
(4.56552e-06 1.21413e-06 0)
(-1.64619e-06 1.59098e-06 0)
(-9.3246e-06 1.94223e-06 0)
(-1.83714e-05 2.26544e-06 0)
(-2.86783e-05 2.55968e-06 0)
(-4.01342e-05 2.82505e-06 0)
(-5.26285e-05 3.06234e-06 0)
(-6.60529e-05 3.27284e-06 0)
(-8.03041e-05 3.45813e-06 0)
(-9.52848e-05 3.62002e-06 0)
(-0.000110904 3.76037e-06 0)
(-0.000127079 3.8811e-06 0)
(-0.000143732 3.98413e-06 0)
(-0.000160795 4.07128e-06 0)
(-0.000178205 4.14434e-06 0)
(-0.000195908 4.20498e-06 0)
(-0.000213855 4.25475e-06 0)
(-0.000232002 4.29511e-06 0)
(-0.000250313 4.32737e-06 0)
(-0.000268754 4.35272e-06 0)
(-0.000287299 4.37224e-06 0)
(-0.000305924 4.38688e-06 0)
(-0.000324609 4.39749e-06 0)
(-0.000343337 4.40476e-06 0)
(-0.000362094 4.40934e-06 0)
(-0.00038087 4.41174e-06 0)
(-0.000399654 4.41238e-06 0)
(-0.000418438 4.41162e-06 0)
(-0.000437217 4.40973e-06 0)
(-0.000455984 4.40689e-06 0)
(-0.000474735 4.40326e-06 0)
(-0.000493465 4.39891e-06 0)
(-0.00051217 4.39387e-06 0)
(-0.000530847 4.38814e-06 0)
(-0.000549492 4.38166e-06 0)
(-0.0005681 4.37434e-06 0)
(-0.000586667 4.36608e-06 0)
(-0.000605187 4.35674e-06 0)
(-0.000623655 4.34615e-06 0)
(-0.000642066 4.33415e-06 0)
(-0.000660412 4.32053e-06 0)
(-0.000678685 4.3051e-06 0)
(-0.000696876 4.28763e-06 0)
(-0.000714976 4.26792e-06 0)
(-0.000732976 4.24572e-06 0)
(-0.000750863 4.2208e-06 0)
(-0.000768625 4.19293e-06 0)
(-0.00078625 4.16187e-06 0)
(-0.000803723 4.12737e-06 0)
(-0.000821029 4.08921e-06 0)
(-0.000838152 4.04712e-06 0)
(-0.000855075 4.0009e-06 0)
(-0.000871781 3.95029e-06 0)
(-0.00088825 3.89506e-06 0)
(-0.000904462 3.835e-06 0)
(-0.000920398 3.76987e-06 0)
(-0.000936036 3.69945e-06 0)
(-0.000951353 3.62357e-06 0)
(-0.000966327 3.54198e-06 0)
(-0.000980932 3.4545e-06 0)
(-0.000995144 3.36096e-06 0)
(-0.00100894 3.26115e-06 0)
(-0.00102229 3.15492e-06 0)
(-0.00103517 3.04212e-06 0)
(-0.00104755 2.92258e-06 0)
(-0.00105941 2.79622e-06 0)
(-0.00107071 2.66288e-06 0)
(-0.00108143 2.52245e-06 0)
(-0.00109154 2.37488e-06 0)
(-0.001101 2.22006e-06 0)
(-0.0011098 2.05796e-06 0)
(-0.00111789 1.88856e-06 0)
(-0.00112525 1.71185e-06 0)
(-0.00113186 1.52784e-06 0)
(-0.00113767 1.33656e-06 0)
(-0.00114267 1.13808e-06 0)
(-0.00114682 9.32495e-07 0)
(-0.00115009 7.19959e-07 0)
(-0.00115246 5.00545e-07 0)
(-0.0011539 2.74488e-07 0)
(-0.00115438 4.19883e-08 0)
(-0.00115387 -1.96707e-07 0)
(-0.00115236 -4.41302e-07 0)
(-0.00114982 -6.91499e-07 0)
(-0.00114623 -9.46933e-07 0)
(-0.00114157 -1.20721e-06 0)
(-0.00113582 -1.47192e-06 0)
(-0.00112896 -1.74057e-06 0)
(-0.00112098 -2.01267e-06 0)
(-0.00111186 -2.28767e-06 0)
(-0.0011016 -2.565e-06 0)
(-0.00109019 -2.84404e-06 0)
(-0.00107763 -3.12414e-06 0)
(-0.00106391 -3.40461e-06 0)
(-0.00104903 -3.68473e-06 0)
(-0.00103299 -3.96376e-06 0)
(-0.00101581 -4.24093e-06 0)
(-0.000997488 -4.51542e-06 0)
(-0.000978043 -4.78642e-06 0)
(-0.000957492 -5.05309e-06 0)
(-0.000935848 -5.31456e-06 0)
(-0.000913145 -5.56997e-06 0)
(-0.000889403 -5.81844e-06 0)
(-0.000864654 -6.05909e-06 0)
(-0.000838928 -6.29105e-06 0)
(-0.000812273 -6.51343e-06 0)
(-0.000784722 -6.7254e-06 0)
(-0.000756318 -6.92609e-06 0)
(-0.000727115 -7.11472e-06 0)
(-0.000697166 -7.29045e-06 0)
(-0.000666517 -7.45254e-06 0)
(-0.00063523 -7.60027e-06 0)
(-0.000603364 -7.73296e-06 0)
(-0.000570983 -7.84999e-06 0)
(-0.000538154 -7.95077e-06 0)
(-0.000504939 -8.0348e-06 0)
(-0.000471414 -8.10157e-06 0)
(-0.000437646 -8.15074e-06 0)
(-0.000403707 -8.18192e-06 0)
(-0.000369675 -8.19489e-06 0)
(-0.000335621 -8.18948e-06 0)
(-0.000301622 -8.16555e-06 0)
(-0.000267753 -8.12305e-06 0)
(-0.000234092 -8.06207e-06 0)
(-0.000200712 -7.98271e-06 0)
(-0.000167689 -7.88519e-06 0)
(-0.000135096 -7.76974e-06 0)
(-0.000103006 -7.63673e-06 0)
(-7.14902e-05 -7.4866e-06 0)
(-4.0618e-05 -7.3198e-06 0)
(-1.04573e-05 -7.13693e-06 0)
(1.89293e-05 -6.93854e-06 0)
(4.74775e-05 -6.72536e-06 0)
(7.51285e-05 -6.49813e-06 0)
(0.000101826 -6.25764e-06 0)
(0.000127516 -6.00465e-06 0)
(0.00015215 -5.74007e-06 0)
(0.00017568 -5.46479e-06 0)
(0.000198065 -5.17975e-06 0)
(0.000219266 -4.88587e-06 0)
(0.000239247 -4.58413e-06 0)
(0.000257977 -4.27549e-06 0)
(0.00027543 -3.96093e-06 0)
(0.000291583 -3.64142e-06 0)
(0.000306414 -3.31793e-06 0)
(0.000319911 -2.99141e-06 0)
(0.000332061 -2.6628e-06 0)
(0.000342855 -2.33303e-06 0)
(0.000352292 -2.00297e-06 0)
(0.000360368 -1.67352e-06 0)
(0.00036709 -1.34549e-06 0)
(0.000372461 -1.0197e-06 0)
(0.000376493 -6.96917e-07 0)
(0.000379199 -3.77895e-07 0)
(0.000380593 -6.33384e-08 0)
(0.000380697 2.4607e-07 0)
(0.00037953 5.49671e-07 0)
(0.000377118 8.46839e-07 0)
(0.000373488 1.13696e-06 0)
(0.00036867 1.41943e-06 0)
(0.000362695 1.69367e-06 0)
(0.0003556 1.95907e-06 0)
(0.000347422 2.21502e-06 0)
(0.0003382 2.46091e-06 0)
(0.000327978 2.69605e-06 0)
(0.000316803 2.91972e-06 0)
(0.000304723 3.13115e-06 0)
(0.000291792 3.32946e-06 0)
(0.000278067 3.51365e-06 0)
(0.000263608 3.68262e-06 0)
(0.000248484 3.83509e-06 0)
(0.000232766 3.96958e-06 0)
(0.000216534 4.08441e-06 0)
(0.000199872 4.17761e-06 0)
(0.000182878 4.24689e-06 0)
(0.000165655 4.28959e-06 0)
(0.00014832 4.3026e-06 0)
(0.000131004 4.28227e-06 0)
(0.000113851 4.22434e-06 0)
(9.70252e-05 4.12376e-06 0)
(8.07093e-05 3.97462e-06 0)
(6.51107e-05 3.77e-06 0)
(5.04624e-05 3.50189e-06 0)
(3.70263e-05 3.16128e-06 0)
(2.50932e-05 2.73869e-06 0)
(1.4978e-05 2.22568e-06 0)
(7.00443e-06 1.61872e-06 0)
(1.46965e-06 9.26769e-07 0)
(-1.44351e-06 1.84243e-07 0)
(-1.9147e-06 -4.85601e-07 0)
(-6.96112e-07 -6.96192e-07 0)
(9.25128e-07 -2.69703e-06 0)
(5.78985e-06 -5.77671e-06 0)
(1.19703e-05 -6.67026e-06 0)
(1.78653e-05 -5.80178e-06 0)
(2.17955e-05 -3.73401e-06 0)
(2.27065e-05 -9.09966e-07 0)
(1.99337e-05 2.34935e-06 0)
(1.30934e-05 5.81543e-06 0)
(2.01718e-06 9.32764e-06 0)
(-1.33062e-05 1.2775e-05 0)
(-3.27746e-05 1.60825e-05 0)
(-5.62095e-05 1.92017e-05 0)
(-8.33797e-05 2.21033e-05 0)
(-0.000114024 2.47717e-05 0)
(-0.000147865 2.72016e-05 0)
(-0.000184618 2.93949e-05 0)
(-0.000224003 3.13588e-05 0)
(-0.000265746 3.31036e-05 0)
(-0.000309588 3.46422e-05 0)
(-0.000355283 3.59892e-05 0)
(-0.000402604 3.71597e-05 0)
(-0.000451338 3.8169e-05 0)
(-0.000501294 3.90325e-05 0)
(-0.000552298 3.97652e-05 0)
(-0.000604191 4.03812e-05 0)
(-0.000656834 4.0894e-05 0)
(-0.000710102 4.13163e-05 0)
(-0.000763885 4.16596e-05 0)
(-0.000818087 4.19347e-05 0)
(-0.000872627 4.21511e-05 0)
(-0.00092743 4.23173e-05 0)
(-0.000982436 4.24411e-05 0)
(-0.00103759 4.2529e-05 0)
(-0.00109285 4.25868e-05 0)
(-0.00114817 4.26195e-05 0)
(-0.00120353 4.2631e-05 0)
(-0.00125889 4.26248e-05 0)
(-0.00131423 4.26035e-05 0)
(-0.00136953 4.25691e-05 0)
(-0.00142477 4.25231e-05 0)
(-0.00147994 4.24664e-05 0)
(-0.00153501 4.23995e-05 0)
(-0.00158998 4.23225e-05 0)
(-0.00164482 4.22351e-05 0)
(-0.00169952 4.21368e-05 0)
(-0.00175407 4.20266e-05 0)
(-0.00180845 4.19036e-05 0)
(-0.00186263 4.17662e-05 0)
(-0.00191659 4.16133e-05 0)
(-0.00197032 4.1443e-05 0)
(-0.00202379 4.12537e-05 0)
(-0.00207697 4.10435e-05 0)
(-0.00212984 4.08105e-05 0)
(-0.00218235 4.05528e-05 0)
(-0.00223448 4.02683e-05 0)
(-0.00228619 3.9955e-05 0)
(-0.00233745 3.96107e-05 0)
(-0.0023882 3.92335e-05 0)
(-0.00243841 3.88211e-05 0)
(-0.00248804 3.83717e-05 0)
(-0.00253702 3.7883e-05 0)
(-0.00258531 3.73531e-05 0)
(-0.00263286 3.67799e-05 0)
(-0.00267961 3.61615e-05 0)
(-0.0027255 3.54959e-05 0)
(-0.00277046 3.47814e-05 0)
(-0.00281445 3.4016e-05 0)
(-0.00285738 3.31981e-05 0)
(-0.0028992 3.2326e-05 0)
(-0.00293983 3.13981e-05 0)
(-0.0029792 3.0413e-05 0)
(-0.00301725 2.93691e-05 0)
(-0.00305389 2.82651e-05 0)
(-0.00308904 2.71001e-05 0)
(-0.00312264 2.58727e-05 0)
(-0.0031546 2.45823e-05 0)
(-0.00318485 2.32276e-05 0)
(-0.00321329 2.18082e-05 0)
(-0.00323986 2.03239e-05 0)
(-0.00326447 1.87738e-05 0)
(-0.00328703 1.71583e-05 0)
(-0.00330747 1.54773e-05 0)
(-0.00332571 1.37306e-05 0)
(-0.00334167 1.19195e-05 0)
(-0.00335525 1.0044e-05 0)
(-0.0033664 8.10567e-06 0)
(-0.00337502 6.10508e-06 0)
(-0.00338104 4.04404e-06 0)
(-0.00338439 1.92435e-06 0)
(-0.003385 -2.52035e-07 0)
(-0.0033828 -2.48274e-06 0)
(-0.00337773 -4.76523e-06 0)
(-0.00336971 -7.09641e-06 0)
(-0.0033587 -9.47297e-06 0)
(-0.00334465 -1.18914e-05 0)
(-0.0033275 -1.43477e-05 0)
(-0.0033072 -1.68377e-05 0)
(-0.00328374 -1.93566e-05 0)
(-0.00325706 -2.18996e-05 0)
(-0.00322714 -2.44614e-05 0)
(-0.00319398 -2.70363e-05 0)
(-0.00315755 -2.96187e-05 0)
(-0.00311785 -3.22021e-05 0)
(-0.00307489 -3.47803e-05 0)
(-0.00302868 -3.73463e-05 0)
(-0.00297924 -3.98934e-05 0)
(-0.00292659 -4.24142e-05 0)
(-0.00287079 -4.49014e-05 0)
(-0.00281187 -4.73476e-05 0)
(-0.0027499 -4.97449e-05 0)
(-0.00268493 -5.20856e-05 0)
(-0.00261706 -5.4362e-05 0)
(-0.00254636 -5.65661e-05 0)
(-0.00247292 -5.86902e-05 0)
(-0.00239687 -6.07266e-05 0)
(-0.00231831 -6.26674e-05 0)
(-0.00223736 -6.45055e-05 0)
(-0.00215417 -6.62332e-05 0)
(-0.00206887 -6.78436e-05 0)
(-0.00198161 -6.93301e-05 0)
(-0.00189257 -7.06862e-05 0)
(-0.00180189 -7.19058e-05 0)
(-0.00170976 -7.29832e-05 0)
(-0.00161636 -7.39133e-05 0)
(-0.00152188 -7.4692e-05 0)
(-0.00142651 -7.53139e-05 0)
(-0.00133044 -7.57767e-05 0)
(-0.00123388 -7.60768e-05 0)
(-0.00113703 -7.62122e-05 0)
(-0.00104011 -7.61811e-05 0)
(-0.00094332 -7.59825e-05 0)
(-0.000846865 -7.56153e-05 0)
(-0.000750964 -7.50812e-05 0)
(-0.000655824 -7.43801e-05 0)
(-0.000561652 -7.35143e-05 0)
(-0.000468652 -7.24855e-05 0)
(-0.000377033 -7.12973e-05 0)
(-0.000286986 -6.99532e-05 0)
(-0.000198707 -6.84572e-05 0)
(-0.000112385 -6.68144e-05 0)
(-2.81994e-05 -6.50302e-05 0)
(5.36735e-05 -6.31105e-05 0)
(0.000133069 -6.10616e-05 0)
(0.000209825 -5.88905e-05 0)
(0.000283794 -5.66042e-05 0)
(0.000354834 -5.42108e-05 0)
(0.000422815 -5.17177e-05 0)
(0.000487612 -4.91333e-05 0)
(0.000549118 -4.64662e-05 0)
(0.000607228 -4.37246e-05 0)
(0.000661857 -4.09173e-05 0)
(0.000712922 -3.80529e-05 0)
(0.000760354 -3.51401e-05 0)
(0.0008041 -3.21877e-05 0)
(0.000844106 -2.92041e-05 0)
(0.000880346 -2.6198e-05 0)
(0.000912785 -2.31776e-05 0)
(0.000941408 -2.01511e-05 0)
(0.000966214 -1.71263e-05 0)
(0.000987207 -1.41111e-05 0)
(0.0010044 -1.11128e-05 0)
(0.00101782 -8.13871e-06 0)
(0.00102749 -5.19578e-06 0)
(0.00103346 -2.29074e-06 0)
(0.00103578 5.6994e-07 0)
(0.00103451 3.37991e-06 0)
(0.0010297 6.13303e-06 0)
(0.00102145 8.82335e-06 0)
(0.00100982 1.14449e-05 0)
(0.000994909 1.39918e-05 0)
(0.000976812 1.64581e-05 0)
(0.000955636 1.88376e-05 0)
(0.000931496 2.1124e-05 0)
(0.000904512 2.33105e-05 0)
(0.000874816 2.539e-05 0)
(0.000842547 2.73546e-05 0)
(0.000807862 2.91957e-05 0)
(0.000770922 3.09036e-05 0)
(0.000731904 3.24677e-05 0)
(0.000691001 3.38759e-05 0)
(0.000648419 3.51144e-05 0)
(0.000604386 3.61675e-05 0)
(0.00055915 3.70173e-05 0)
(0.00051298 3.76436e-05 0)
(0.000466175 3.80228e-05 0)
(0.000419064 3.81282e-05 0)
(0.000372008 3.79291e-05 0)
(0.000325407 3.73906e-05 0)
(0.000279707 3.64725e-05 0)
(0.000235399 3.51299e-05 0)
(0.000193026 3.33125e-05 0)
(0.000153186 3.0966e-05 0)
(0.000116532 2.80355e-05 0)
(8.37592e-05 2.44726e-05 0)
(5.55908e-05 2.02519e-05 0)
(3.2724e-05 1.54034e-05 0)
(1.57413e-05 1.0075e-05 0)
(4.93528e-06 4.64721e-06 0)
(-1.74021e-08 -1.18533e-08 0)
(-4.86899e-07 -1.91615e-06 0)
(1.11363e-06 -5.95349e-06 0)
(6.71907e-06 -1.19715e-05 0)
(1.31114e-05 -1.3051e-05 0)
(1.82765e-05 -1.03748e-05 0)
(2.01363e-05 -5.05547e-06 0)
(1.73321e-05 2.01081e-06 0)
(8.95955e-06 1.01369e-05 0)
(-5.53505e-06 1.88073e-05 0)
(-2.64217e-05 2.76426e-05 0)
(-5.37491e-05 3.6369e-05 0)
(-8.74023e-05 4.47941e-05 0)
(-0.000127147 5.27881e-05 0)
(-0.000172668 6.02675e-05 0)
(-0.000223594 6.71847e-05 0)
(-0.000279525 7.35179e-05 0)
(-0.000340044 7.92648e-05 0)
(-0.000404734 8.44372e-05 0)
(-0.000473185 8.90567e-05 0)
(-0.000545003 9.31521e-05 0)
(-0.000619812 9.67564e-05 0)
(-0.000697259 9.99056e-05 0)
(-0.000777018 0.000102637 0)
(-0.000858787 0.000104988 0)
(-0.000942288 0.000106995 0)
(-0.00102727 0.000108693 0)
(-0.00111352 0.000110118 0)
(-0.00120082 0.000111299 0)
(-0.00128901 0.000112268 0)
(-0.00137791 0.000113051 0)
(-0.0014674 0.000113672 0)
(-0.00155736 0.000114155 0)
(-0.00164767 0.000114518 0)
(-0.00173824 0.000114779 0)
(-0.00182901 0.000114953 0)
(-0.00191989 0.000115054 0)
(-0.00201083 0.000115091 0)
(-0.00210178 0.000115074 0)
(-0.0021927 0.00011501 0)
(-0.00228354 0.000114905 0)
(-0.00237426 0.000114762 0)
(-0.00246484 0.000114585 0)
(-0.00255524 0.000114375 0)
(-0.00264544 0.000114133 0)
(-0.00273539 0.000113858 0)
(-0.00282508 0.000113548 0)
(-0.00291446 0.000113203 0)
(-0.00300352 0.000112819 0)
(-0.0030922 0.000112393 0)
(-0.00318049 0.000111922 0)
(-0.00326832 0.000111401 0)
(-0.00335567 0.000110827 0)
(-0.00344248 0.000110195 0)
(-0.00352871 0.000109499 0)
(-0.00361431 0.000108735 0)
(-0.00369921 0.000107899 0)
(-0.00378335 0.000106984 0)
(-0.00386668 0.000105986 0)
(-0.00394913 0.000104898 0)
(-0.00403061 0.000103717 0)
(-0.00411107 0.000102437 0)
(-0.00419042 0.000101052 0)
(-0.00426857 9.95579e-05 0)
(-0.00434543 9.79489e-05 0)
(-0.00442093 9.62206e-05 0)
(-0.00449496 9.43677e-05 0)
(-0.00456743 9.23859e-05 0)
(-0.00463823 9.02705e-05 0)
(-0.00470727 8.80174e-05 0)
(-0.00477443 8.56224e-05 0)
(-0.00483961 8.30813e-05 0)
(-0.00490269 8.03899e-05 0)
(-0.00496356 7.75459e-05 0)
(-0.0050221 7.45456e-05 0)
(-0.0050782 7.13856e-05 0)
(-0.00513172 6.80639e-05 0)
(-0.00518254 6.4578e-05 0)
(-0.00523056 6.09268e-05 0)
(-0.00527563 5.71073e-05 0)
(-0.00531763 5.3119e-05 0)
(-0.00535644 4.89621e-05 0)
(-0.00539192 4.46353e-05 0)
(-0.00542395 4.01401e-05 0)
(-0.0054524 3.54763e-05 0)
(-0.00547715 3.06456e-05 0)
(-0.00549809 2.56501e-05 0)
(-0.00551507 2.0493e-05 0)
(-0.00552798 1.51765e-05 0)
(-0.00553673 9.70589e-06 0)
(-0.00554116 4.08482e-06 0)
(-0.00554119 -1.68095e-06 0)
(-0.00553671 -7.5846e-06 0)
(-0.00552763 -1.36202e-05 0)
(-0.00551386 -1.97789e-05 0)
(-0.00549528 -2.60528e-05 0)
(-0.00547184 -3.24321e-05 0)
(-0.00544344 -3.89064e-05 0)
(-0.00541005 -4.54646e-05 0)
(-0.0053716 -5.2095e-05 0)
(-0.00532804 -5.87842e-05 0)
(-0.00527932 -6.55188e-05 0)
(-0.00522543 -7.22843e-05 0)
(-0.00516636 -7.90654e-05 0)
(-0.00510211 -8.5846e-05 0)
(-0.00503267 -9.26095e-05 0)
(-0.00495807 -9.93384e-05 0)
(-0.00487835 -0.000106015 0)
(-0.00479356 -0.00011262 0)
(-0.00470376 -0.000119135 0)
(-0.00460903 -0.00012554 0)
(-0.00450946 -0.000131816 0)
(-0.00440515 -0.000137942 0)
(-0.00429624 -0.000143899 0)
(-0.00418287 -0.000149667 0)
(-0.00406518 -0.000155224 0)
(-0.00394332 -0.000160552 0)
(-0.00381752 -0.00016563 0)
(-0.00368794 -0.000170439 0)
(-0.00355479 -0.000174961 0)
(-0.00341832 -0.000179177 0)
(-0.00327874 -0.00018307 0)
(-0.00313633 -0.000186624 0)
(-0.00299133 -0.000189823 0)
(-0.00284401 -0.000192653 0)
(-0.00269469 -0.000195099 0)
(-0.00254363 -0.000197151 0)
(-0.00239115 -0.000198798 0)
(-0.00223754 -0.000200029 0)
(-0.00208314 -0.000200839 0)
(-0.00192826 -0.00020122 0)
(-0.00177322 -0.000201169 0)
(-0.00161836 -0.000200682 0)
(-0.00146401 -0.000199759 0)
(-0.00131049 -0.0001984 0)
(-0.00115813 -0.000196607 0)
(-0.00100726 -0.000194386 0)
(-0.000858211 -0.00019174 0)
(-0.000711289 -0.00018868 0)
(-0.000566811 -0.000185213 0)
(-0.000425082 -0.00018135 0)
(-0.000286391 -0.000177103 0)
(-0.000151037 -0.000172487 0)
(-1.92878e-05 -0.000167516 0)
(0.000108591 -0.000162207 0)
(0.000232346 -0.000156577 0)
(0.000351742 -0.000150645 0)
(0.000466549 -0.00014443 0)
(0.000576561 -0.000137953 0)
(0.000681583 -0.000131234 0)
(0.000781436 -0.000124294 0)
(0.000875959 -0.000117157 0)
(0.000965004 -0.000109844 0)
(0.00104845 -0.000102377 0)
(0.00112616 -9.47791e-05 0)
(0.00119807 -8.70727e-05 0)
(0.00126408 -7.92797e-05 0)
(0.00132414 -7.14223e-05 0)
(0.0013782 -6.35221e-05 0)
(0.00142622 -5.56002e-05 0)
(0.00146821 -4.76776e-05 0)
(0.00150415 -3.97744e-05 0)
(0.00153407 -3.19103e-05 0)
(0.00155799 -2.41042e-05 0)
(0.00157597 -1.63748e-05 0)
(0.00158807 -8.73999e-06 0)
(0.00159436 -1.21703e-06 0)
(0.00159493 6.17698e-06 0)
(0.00158988 1.34254e-05 0)
(0.00157932 2.05123e-05 0)
(0.00156339 2.74212e-05 0)
(0.00154222 3.41361e-05 0)
(0.00151596 4.06403e-05 0)
(0.00148479 4.69175e-05 0)
(0.00144888 5.29498e-05 0)
(0.00140843 5.87187e-05 0)
(0.00136365 6.4205e-05 0)
(0.00131476 6.93869e-05 0)
(0.00126201 7.42412e-05 0)
(0.00120565 7.87423e-05 0)
(0.00114598 8.28613e-05 0)
(0.00108331 8.65664e-05 0)
(0.00101796 8.98212e-05 0)
(0.000950296 9.25851e-05 0)
(0.000880716 9.48125e-05 0)
(0.000809651 9.64512e-05 0)
(0.000737569 9.74421e-05 0)
(0.000664989 9.77193e-05 0)
(0.000592473 9.72075e-05 0)
(0.000520644 9.58228e-05 0)
(0.000450179 9.34716e-05 0)
(0.000381821 9.0051e-05 0)
(0.000316379 8.54507e-05 0)
(0.000254725 7.95575e-05 0)
(0.000197792 7.22657e-05 0)
(0.000146548 6.34966e-05 0)
(0.000101967 5.32372e-05 0)
(6.49553e-05 4.16092e-05 0)
(3.62375e-05 2.89897e-05 0)
(1.61813e-05 1.62081e-05 0)
(4.62591e-06 4.93469e-06 0)
(1.79753e-07 -1.4534e-06 0)
(1.02418e-06 -9.38937e-06 0)
(5.88242e-06 -1.79054e-05 0)
(1.04693e-05 -1.82214e-05 0)
(1.25362e-05 -1.24568e-05 0)
(9.85316e-06 -2.34331e-06 0)
(9.259e-07 1.0723e-05 0)
(-1.52662e-05 2.56379e-05 0)
(-3.93671e-05 4.15452e-05 0)
(-7.17041e-05 5.77935e-05 0)
(-0.00011235 7.38988e-05 0)
(-0.000161181 8.95105e-05 0)
(-0.000217927 0.000104385 0)
(-0.00028221 0.00011836 0)
(-0.000353581 0.000131338 0)
(-0.000431546 0.000143269 0)
(-0.000515587 0.000154139 0)
(-0.000605178 0.000163961 0)
(-0.000699799 0.000172769 0)
(-0.000798944 0.000180608 0)
(-0.000902129 0.000187536 0)
(-0.0010089 0.000193615 0)
(-0.00111882 0.000198909 0)
(-0.00123149 0.000203487 0)
(-0.00134656 0.000207413 0)
(-0.00146369 0.000210753 0)
(-0.00158258 0.000213567 0)
(-0.00170295 0.000215915 0)
(-0.00182456 0.00021785 0)
(-0.0019472 0.000219422 0)
(-0.00207068 0.000220679 0)
(-0.00219481 0.00022166 0)
(-0.00231947 0.000222404 0)
(-0.00244451 0.000222942 0)
(-0.00256983 0.000223303 0)
(-0.00269532 0.000223512 0)
(-0.00282089 0.00022359 0)
(-0.00294647 0.000223553 0)
(-0.00307199 0.000223415 0)
(-0.00319739 0.000223188 0)
(-0.00332261 0.000222879 0)
(-0.0034476 0.000222495 0)
(-0.00357231 0.000222039 0)
(-0.00369669 0.000221511 0)
(-0.00382069 0.000220913 0)
(-0.00394428 0.000220241 0)
(-0.00406739 0.000219493 0)
(-0.00418998 0.000218664 0)
(-0.004312 0.000217748 0)
(-0.00443339 0.000216739 0)
(-0.00455409 0.000215631 0)
(-0.00467405 0.000214414 0)
(-0.00479319 0.000213082 0)
(-0.00491145 0.000211624 0)
(-0.00502874 0.000210033 0)
(-0.005145 0.000208299 0)
(-0.00526014 0.000206412 0)
(-0.00537407 0.000204363 0)
(-0.00548669 0.000202142 0)
(-0.00559791 0.00019974 0)
(-0.00570763 0.000197147 0)
(-0.00581574 0.000194354 0)
(-0.00592212 0.000191351 0)
(-0.00602666 0.000188129 0)
(-0.00612924 0.000184679 0)
(-0.00622973 0.000180992 0)
(-0.00632799 0.00017706 0)
(-0.00642391 0.000172875 0)
(-0.00651733 0.000168428 0)
(-0.00660811 0.000163712 0)
(-0.00669612 0.00015872 0)
(-0.00678119 0.000153446 0)
(-0.00686319 0.000147882 0)
(-0.00694194 0.000142024 0)
(-0.00701731 0.000135866 0)
(-0.0070891 0.000129403 0)
(-0.00715718 0.000122633 0)
(-0.0072214 0.000115551 0)
(-0.00728155 0.000108154 0)
(-0.00733749 0.000100442 0)
(-0.00738905 9.24124e-05 0)
(-0.00743608 8.40665e-05 0)
(-0.00747838 7.54047e-05 0)
(-0.0075158 6.64288e-05 0)
(-0.0075482 5.71421e-05 0)
(-0.00757542 4.75487e-05 0)
(-0.00759724 3.76533e-05 0)
(-0.00761357 2.74627e-05 0)
(-0.00762421 1.6985e-05 0)
(-0.00762907 6.22918e-06 0)
(-0.00762795 -4.79514e-06 0)
(-0.00762077 -1.6075e-05 0)
(-0.00760736 -2.75975e-05 0)
(-0.00758763 -3.93474e-05 0)
(-0.00756144 -5.13091e-05 0)
(-0.00752871 -6.3464e-05 0)
(-0.00748932 -7.57925e-05 0)
(-0.00744321 -8.82743e-05 0)
(-0.00739033 -0.000100886 0)
(-0.00733058 -0.000113603 0)
(-0.00726392 -0.000126401 0)
(-0.00719036 -0.000139251 0)
(-0.00710985 -0.000152126 0)
(-0.00702239 -0.000164995 0)
(-0.006928 -0.000177826 0)
(-0.00682673 -0.000190588 0)
(-0.0067186 -0.000203246 0)
(-0.00660371 -0.000215765 0)
(-0.00648213 -0.00022811 0)
(-0.00635395 -0.000240246 0)
(-0.00621935 -0.000252133 0)
(-0.00607841 -0.000263736 0)
(-0.00593132 -0.000275016 0)
(-0.00577828 -0.000285936 0)
(-0.00561947 -0.000296459 0)
(-0.00545512 -0.000306547 0)
(-0.00528549 -0.000316163 0)
(-0.00511084 -0.000325271 0)
(-0.0049314 -0.000333837 0)
(-0.00474753 -0.000341826 0)
(-0.00455952 -0.000349207 0)
(-0.00436771 -0.000355948 0)
(-0.00417244 -0.00036202 0)
(-0.00397408 -0.000367396 0)
(-0.003773 -0.000372052 0)
(-0.00356958 -0.000375965 0)
(-0.00336424 -0.000379115 0)
(-0.00315738 -0.000381484 0)
(-0.00294943 -0.000383059 0)
(-0.00274079 -0.000383828 0)
(-0.0025319 -0.000383783 0)
(-0.00232321 -0.000382917 0)
(-0.00211515 -0.00038123 0)
(-0.00190815 -0.000378723 0)
(-0.00170264 -0.000375398 0)
(-0.00149907 -0.000371266 0)
(-0.00129785 -0.000366334 0)
(-0.00109942 -0.000360619 0)
(-0.00090418 -0.000354136 0)
(-0.000712537 -0.000346906 0)
(-0.000524891 -0.000338951 0)
(-0.000341619 -0.000330296 0)
(-0.000163091 -0.000320971 0)
(1.03413e-05 -0.000311004 0)
(0.000178341 -0.000300428 0)
(0.000340589 -0.000289278 0)
(0.000496783 -0.000277589 0)
(0.000646643 -0.0002654 0)
(0.000789905 -0.000252749 0)
(0.000926325 -0.000239677 0)
(0.00105569 -0.000226223 0)
(0.00117779 -0.000212431 0)
(0.00129246 -0.000198341 0)
(0.00139953 -0.000183996 0)
(0.00149889 -0.000169438 0)
(0.0015904 -0.000154708 0)
(0.001674 -0.000139848 0)
(0.0017496 -0.000124898 0)
(0.00181718 -0.000109899 0)
(0.00187668 -9.489e-05 0)
(0.00192813 -7.99092e-05 0)
(0.00197153 -6.49941e-05 0)
(0.00200693 -5.01811e-05 0)
(0.00203437 -3.55054e-05 0)
(0.00205394 -2.10017e-05 0)
(0.00206572 -6.70329e-06 0)
(0.00206984 7.35677e-06 0)
(0.00206642 2.11467e-05 0)
(0.00205562 3.46345e-05 0)
(0.00203759 4.77889e-05 0)
(0.00201253 6.0578e-05 0)
(0.00198064 7.29698e-05 0)
(0.00194213 8.49313e-05 0)
(0.00189725 9.64279e-05 0)
(0.00184627 0.000107424 0)
(0.00178945 0.000117881 0)
(0.0017271 0.000127757 0)
(0.00165956 0.000137008 0)
(0.00158718 0.000145583 0)
(0.00151033 0.000153428 0)
(0.00142943 0.000160482 0)
(0.00134493 0.000166678 0)
(0.00125732 0.000171938 0)
(0.00116712 0.000176178 0)
(0.0010749 0.000179302 0)
(0.000981295 0.000181204 0)
(0.000886974 0.000181763 0)
(0.000792677 0.000180848 0)
(0.000699209 0.000178312 0)
(0.000607439 0.000173995 0)
(0.000518311 0.000167724 0)
(0.000432836 0.000159322 0)
(0.000352093 0.000148613 0)
(0.00027721 0.000135444 0)
(0.000209346 0.000119722 0)
(0.000149642 0.000101473 0)
(9.9156e-05 8.09465e-05 0)
(5.8744e-05 5.87834e-05 0)
(2.89449e-05 3.62613e-05 0)
(1.00386e-05 1.57228e-05 0)
(9.18246e-07 1.4415e-06 0)
(7.74e-07 -1.21595e-05 0)
(3.8058e-06 -2.18655e-05 0)
(5.06594e-06 -2.00389e-05 0)
(2.20755e-06 -9.72251e-06 0)
(-6.96031e-06 6.72118e-06 0)
(-2.39497e-05 2.73917e-05 0)
(-4.9805e-05 5.07595e-05 0)
(-8.51907e-05 7.56121e-05 0)
(-0.000130446 0.000101005 0)
(-0.000185642 0.000126222 0)
(-0.000250637 0.000150729 0)
(-0.000325127 0.000174149 0)
(-0.000408685 0.000196223 0)
(-0.0005008 0.00021679 0)
(-0.000600903 0.000235759 0)
(-0.000708397 0.000253099 0)
(-0.000822666 0.00026882 0)
(-0.000943101 0.000282965 0)
(-0.00106911 0.000295598 0)
(-0.00120011 0.000306801 0)
(-0.00133556 0.000316665 0)
(-0.00147494 0.000325288 0)
(-0.00161777 0.000332771 0)
(-0.00176362 0.000339215 0)
(-0.00191206 0.000344717 0)
(-0.00206274 0.000349373 0)
(-0.00221532 0.000353273 0)
(-0.00236948 0.000356502 0)
(-0.00252496 0.000359138 0)
(-0.00268153 0.000361254 0)
(-0.00283896 0.000362913 0)
(-0.00299705 0.000364174 0)
(-0.00315565 0.000365091 0)
(-0.00331461 0.000365706 0)
(-0.00347378 0.000366061 0)
(-0.00363306 0.000366188 0)
(-0.00379234 0.000366114 0)
(-0.00395153 0.000365863 0)
(-0.00411053 0.000365452 0)
(-0.00426928 0.000364895 0)
(-0.0044277 0.000364202 0)
(-0.00458572 0.000363378 0)
(-0.00474326 0.000362427 0)
(-0.00490028 0.000361348 0)
(-0.0050567 0.00036014 0)
(-0.00521244 0.000358797 0)
(-0.00536746 0.000357312 0)
(-0.00552167 0.000355679 0)
(-0.005675 0.000353886 0)
(-0.00582737 0.000351924 0)
(-0.00597871 0.00034978 0)
(-0.00612892 0.000347441 0)
(-0.00627791 0.000344895 0)
(-0.0064256 0.000342127 0)
(-0.00657187 0.000339124 0)
(-0.00671662 0.00033587 0)
(-0.00685974 0.000332351 0)
(-0.00700111 0.000328553 0)
(-0.00714061 0.000324459 0)
(-0.00727811 0.000320056 0)
(-0.00741348 0.000315328 0)
(-0.00754657 0.000310263 0)
(-0.00767724 0.000304845 0)
(-0.00780534 0.000299059 0)
(-0.00793072 0.000292893 0)
(-0.00805321 0.000286335 0)
(-0.00817266 0.000279369 0)
(-0.00828887 0.000271987 0)
(-0.0084017 0.000264175 0)
(-0.00851096 0.000255921 0)
(-0.00861646 0.000247219 0)
(-0.00871802 0.000238055 0)
(-0.00881546 0.000228423 0)
(-0.00890856 0.000218313 0)
(-0.00899717 0.000207722 0)
(-0.00908106 0.000196641 0)
(-0.00916005 0.000185067 0)
(-0.00923391 0.000172993 0)
(-0.00930249 0.000160422 0)
(-0.00936554 0.000147349 0)
(-0.00942289 0.000133775 0)
(-0.00947434 0.000119705 0)
(-0.00951969 0.000105138 0)
(-0.00955871 9.00812e-05 0)
(-0.00959127 7.4541e-05 0)
(-0.00961716 5.85265e-05 0)
(-0.00963612 4.20484e-05 0)
(-0.0096481 2.51198e-05 0)
(-0.00965281 7.75366e-06 0)
(-0.00965016 -1.00316e-05 0)
(-0.00963995 -2.8218e-05 0)
(-0.00962202 -4.67825e-05 0)
(-0.00959625 -6.57027e-05 0)
(-0.00956253 -8.49516e-05 0)
(-0.0095207 -0.000104501 0)
(-0.00947064 -0.000124319 0)
(-0.00941231 -0.000144374 0)
(-0.00934554 -0.000164627 0)
(-0.00927035 -0.000185041 0)
(-0.00918669 -0.000205576 0)
(-0.00909447 -0.000226187 0)
(-0.00899367 -0.00024683 0)
(-0.00888436 -0.000267456 0)
(-0.00876651 -0.000288016 0)
(-0.00864019 -0.000308458 0)
(-0.00850547 -0.000328728 0)
(-0.00836241 -0.000348773 0)
(-0.00821113 -0.000368535 0)
(-0.00805175 -0.000387957 0)
(-0.00788444 -0.00040698 0)
(-0.00770937 -0.000425546 0)
(-0.00752675 -0.000443594 0)
(-0.00733684 -0.000461066 0)
(-0.00713982 -0.000477901 0)
(-0.00693603 -0.000494042 0)
(-0.00672568 -0.00050943 0)
(-0.00650917 -0.000524008 0)
(-0.00628682 -0.000537721 0)
(-0.00605898 -0.000550515 0)
(-0.00582607 -0.00056234 0)
(-0.00558845 -0.000573148 0)
(-0.00534658 -0.000582889 0)
(-0.00510086 -0.000591526 0)
(-0.00485179 -0.000599014 0)
(-0.00459982 -0.00060532 0)
(-0.00434544 -0.000610414 0)
(-0.00408918 -0.000614267 0)
(-0.00383149 -0.000616855 0)
(-0.00357296 -0.000618165 0)
(-0.00331404 -0.000618174 0)
(-0.0030553 -0.000616883 0)
(-0.00279726 -0.000614281 0)
(-0.00254047 -0.000610374 0)
(-0.00228544 -0.000605166 0)
(-0.00203273 -0.000598671 0)
(-0.0017828 -0.000590904 0)
(-0.00153624 -0.000581886 0)
(-0.00129351 -0.000571643 0)
(-0.00105512 -0.000560211 0)
(-0.000821543 -0.000547617 0)
(-0.000593259 -0.000533906 0)
(-0.000370711 -0.000519121 0)
(-0.000154338 -0.00050331 0)
(5.54477e-05 -0.000486522 0)
(0.000258251 -0.00046881 0)
(0.000453698 -0.000450235 0)
(0.000641445 -0.000430854 0)
(0.000821162 -0.000410729 0)
(0.000992547 -0.00038992 0)
(0.00115533 -0.000368496 0)
(0.00130926 -0.000346518 0)
(0.00145411 -0.000324057 0)
(0.00158969 -0.000301176 0)
(0.00171583 -0.000277943 0)
(0.00183238 -0.000254423 0)
(0.00193923 -0.000230684 0)
(0.00203629 -0.000206789 0)
(0.0021235 -0.000182803 0)
(0.00220082 -0.000158788 0)
(0.00226824 -0.000134806 0)
(0.00232577 -0.000110917 0)
(0.00237346 -8.71797e-05 0)
(0.00241136 -6.36513e-05 0)
(0.00243957 -4.03873e-05 0)
(0.00245819 -1.74421e-05 0)
(0.00246735 5.13096e-06 0)
(0.00246722 2.72791e-05 0)
(0.00245798 4.89508e-05 0)
(0.00243981 7.00939e-05 0)
(0.00241295 9.06565e-05 0)
(0.00237765 0.000110586 0)
(0.00233417 0.000129828 0)
(0.00228281 0.000148325 0)
(0.00222389 0.00016602 0)
(0.00215775 0.000182848 0)
(0.00208477 0.000198743 0)
(0.00200535 0.00021363 0)
(0.00191993 0.00022743 0)
(0.00182898 0.000240056 0)
(0.00173301 0.000251409 0)
(0.00163257 0.000261382 0)
(0.00152825 0.000269856 0)
(0.0014207 0.000276697 0)
(0.00131062 0.000281758 0)
(0.00119876 0.000284877 0)
(0.00108593 0.00028587 0)
(0.000973032 0.000284541 0)
(0.000861006 0.000280673 0)
(0.000750881 0.000274035 0)
(0.00064376 0.000264381 0)
(0.000540808 0.000251467 0)
(0.000443259 0.000235058 0)
(0.000352389 0.000214966 0)
(0.000269496 0.00019109 0)
(0.000195861 0.000163507 0)
(0.000132683 0.000132593 0)
(8.09925e-05 9.92163e-05 0)
(4.15952e-05 6.49943e-05 0)
(1.5368e-05 3.26895e-05 0)
(1.60743e-06 6.95077e-06 0)
(4.23854e-07 -1.37617e-05 0)
(8.9318e-07 -2.27178e-05 0)
(-2.2964e-06 -1.70123e-05 0)
(-1.14818e-05 -4.92844e-07 0)
(-2.86643e-05 2.3886e-05 0)
(-5.52787e-05 5.37397e-05 0)
(-9.23203e-05 8.71266e-05 0)
(-0.000140416 0.000122481 0)
(-0.000199873 0.000158564 0)
(-0.000270733 0.000194415 0)
(-0.000352823 0.000229313 0)
(-0.000445796 0.00026273 0)
(-0.000549179 0.000294304 0)
(-0.000662406 0.000323797 0)
(-0.000784846 0.000351073 0)
(-0.000915836 0.000376075 0)
(-0.00105469 0.000398808 0)
(-0.00120072 0.000419319 0)
(-0.00135326 0.000437693 0)
(-0.00151165 0.000454035 0)
(-0.00167527 0.000468468 0)
(-0.00184353 0.000481124 0)
(-0.00201589 0.000492143 0)
(-0.00219183 0.000501661 0)
(-0.00237087 0.000509817 0)
(-0.00255258 0.000516741 0)
(-0.00273657 0.000522562 0)
(-0.00292249 0.000527397 0)
(-0.00310999 0.000531357 0)
(-0.00329881 0.000534545 0)
(-0.00348868 0.000537053 0)
(-0.00367936 0.000538963 0)
(-0.00387064 0.000540351 0)
(-0.00406236 0.000541282 0)
(-0.00425434 0.000541811 0)
(-0.00444642 0.000541986 0)