/*--------------------------------*- C++ -*----------------------------------*\
  =========                 |
  \\      /  F ield         | OpenFOAM: The Open Source CFD Toolbox
   \\    /   O peration     | Website:  https://openfoam.org
    \\  /    A nd           | Version:  6
     \\/     M anipulation  |
\*---------------------------------------------------------------------------*/
FoamFile
{
    version     2.0;
    format      ascii;
    class       volVectorField;
    location    "0";
    object      U_rec;
}
// * * * * * * * * * * * * * * * * * * * * * * * * * * * * * * * * * * * * * //

dimensions      [0 1 -1 0 0 0 0];

internalField   nonuniform List<vector> 
9000
(
(0.605833 0.155503 0)
(0.481562 0.0671284 0)
(0.291544 0.0227564 0)
(0.205048 0.0100964 0)
(0.15818 0.0058369 0)
(0.130455 0.00304071 0)
(0.11357 0.00272557 0)
(0.10194 0.000739607 0)
(0.0932483 -3.05248e-05 0)
(0.0877796 -0.000456932 0)
(0.0840688 0.00201872 0)
(0.0812378 0.00200057 0)
(0.0783042 0.00232476 0)
(0.0779485 0.00191368 0)
(0.0777446 -0.000108535 0)
(0.0765307 -0.00110163 0)
(0.0754677 -0.00106224 0)
(0.0746397 0.000471176 0)
(0.0744483 0.00128654 0)
(0.074858 0.00258254 0)
(0.0753869 0.00135512 0)
(0.0749816 0.00207103 0)
(0.0747062 0.00113107 0)
(0.0747155 0.0010674 0)
(0.0746464 0.00120664 0)
(0.0753424 0.00160005 0)
(0.0741547 -0.000573263 0)
(0.0744122 0.000141571 0)
(0.0750906 -0.00109704 0)
(0.0741035 -0.00107584 0)
(0.0751058 -9.56835e-06 0)
(0.0748893 -0.00174871 0)
(0.0745195 -0.00184756 0)
(0.0747178 -0.00163157 0)
(0.073934 -0.0012693 0)
(0.0741011 -0.000875692 0)
(0.0743704 0.000217235 0)
(0.0748935 -0.00120893 0)
(0.0753208 -0.000532395 0)
(0.0759369 -0.000529587 0)
(0.0762758 -0.000336675 0)
(0.0757959 -0.0007124 0)
(0.0764287 -4.87433e-05 0)
(0.0773563 1.67365e-05 0)
(0.0794708 -0.00137191 0)
(0.0814343 -0.00277904 0)
(0.0848162 -0.00253155 0)
(0.0940691 -0.00101135 0)
(0.114737 -0.00855055 0)
(0.166872 -0.0491147 0)
(0.959483 0.34375 0)
(0.873369 0.236608 0)
(0.6639 0.1328 0)
(0.523692 0.0761992 0)
(0.429236 0.0460969 0)
(0.366461 0.028323 0)
(0.324064 0.0210887 0)
(0.293253 0.010827 0)
(0.27155 0.00729557 0)
(0.258388 0.00364697 0)
(0.248015 0.00660975 0)
(0.238626 0.00617204 0)
(0.231071 0.00486436 0)
(0.227486 0.00508459 0)
(0.225773 0.00147069 0)
(0.224072 -0.00047506 0)
(0.222918 -0.00185124 0)
(0.221278 0.000134078 0)
(0.220511 0.00261838 0)
(0.219882 0.00446481 0)
(0.220508 0.0037331 0)
(0.219883 0.00343249 0)
(0.218787 0.00231637 0)
(0.219467 0.00308613 0)
(0.219538 0.00373618 0)
(0.219194 0.00122761 0)
(0.217416 -0.000174036 0)
(0.218274 4.81861e-05 0)
(0.218916 -0.00348186 0)
(0.218953 -0.00112289 0)
(0.219533 -0.00142415 0)
(0.218277 -0.0030892 0)
(0.218885 -0.00415738 0)
(0.219593 -0.0039528 0)
(0.218144 -0.00205137 0)
(0.218789 -0.000885678 0)
(0.218737 -0.000447596 0)
(0.220168 -0.000843241 0)
(0.222142 -0.00149399 0)
(0.222986 -0.000513329 0)
(0.223712 -0.00165022 0)
(0.224161 -0.00354864 0)
(0.226751 -0.00274154 0)
(0.228623 -0.00362755 0)
(0.233459 -0.00454638 0)
(0.241351 -0.0080332 0)
(0.254704 -0.0112299 0)
(0.275883 -0.0171687 0)
(0.313652 -0.0415901 0)
(0.387013 -0.105524 0)
(1.0386 0.328816 0)
(1.03113 0.322364 0)
(0.886144 0.228136 0)
(0.753282 0.150996 0)
(0.646043 0.100905 0)
(0.568717 0.0681484 0)
(0.510242 0.0467013 0)
(0.466854 0.0305603 0)
(0.436679 0.0225031 0)
(0.417006 0.0161945 0)
(0.402247 0.0124952 0)
(0.38688 0.00824702 0)
(0.376265 0.0074366 0)
(0.370568 0.00802084 0)
(0.366407 0.0034423 0)
(0.363275 0.00128229 0)
(0.361565 0.000964338 0)
(0.360772 0.000517588 0)
(0.359677 0.00336426 0)
(0.358177 0.00375708 0)
(0.358007 0.00541107 0)
(0.356709 0.00236411 0)
(0.356425 0.00283305 0)
(0.357639 0.0037464 0)
(0.355261 0.0039563 0)
(0.354959 0.000401215 0)
(0.354549 -0.000284093 0)
(0.353434 -0.0024617 0)
(0.355732 -0.00508552 0)
(0.35628 -0.00228958 0)
(0.355889 -0.0032079 0)
(0.354617 -0.00300494 0)
(0.354938 -0.003114 0)
(0.357405 -0.00338311 0)
(0.356465 -0.00151578 0)
(0.355923 0.000370325 0)
(0.356552 0.00024129 0)
(0.358241 0.00126411 0)
(0.360798 -0.00160294 0)
(0.362369 -0.000474437 0)
(0.362553 -0.00245891 0)
(0.365125 -0.00498153 0)
(0.369775 -0.00669395 0)
(0.374249 -0.0083729 0)
(0.382285 -0.0105786 0)
(0.393663 -0.0156236 0)
(0.413426 -0.0235544 0)
(0.442598 -0.0433569 0)
(0.48675 -0.0771186 0)
(0.552368 -0.15169 0)
(1.05066 0.283472 0)
(1.08991 0.354705 0)
(1.00859 0.297983 0)
(0.908044 0.219335 0)
(0.811975 0.159195 0)
(0.732128 0.113606 0)
(0.669833 0.0785364 0)
(0.622805 0.0584214 0)
(0.587402 0.0434984 0)
(0.561966 0.0322556 0)
(0.541892 0.0228057 0)
(0.525843 0.0144743 0)
(0.514614 0.0134468 0)
(0.504545 0.0106093 0)
(0.498169 0.0058683 0)
(0.496229 0.00351014 0)
(0.493535 0.00292183 0)
(0.491903 0.00166742 0)
(0.490846 0.00358847 0)
(0.489014 0.00191605 0)
(0.487695 0.00405011 0)
(0.48597 0.000836354 0)
(0.486633 0.00270003 0)
(0.487297 0.0025333 0)
(0.484417 0.00229024 0)
(0.483112 0.000458393 0)
(0.481999 -0.00213668 0)
(0.481612 -0.00143765 0)
(0.485015 -0.00399176 0)
(0.486018 -0.00300722 0)
(0.48573 -0.00145552 0)
(0.484686 -0.00204479 0)
(0.484704 -0.00103166 0)
(0.48706 -0.00254887 0)
(0.487116 -0.00245076 0)
(0.486753 0.00102799 0)
(0.486966 -4.37872e-05 0)
(0.488066 0.000418189 0)
(0.491554 -0.00169021 0)
(0.494558 -0.00253361 0)
(0.495079 -0.00512434 0)
(0.498115 -0.00619707 0)
(0.504675 -0.00988553 0)
(0.511081 -0.0126175 0)
(0.52156 -0.0181355 0)
(0.537294 -0.0271662 0)
(0.558902 -0.0412635 0)
(0.59155 -0.0689885 0)
(0.635673 -0.110405 0)
(0.688743 -0.186937 0)
(1.04586 0.240086 0)
(1.1046 0.357848 0)
(1.07376 0.337754 0)
(1.00809 0.272509 0)
(0.932476 0.207302 0)
(0.861436 0.154762 0)
(0.804247 0.117313 0)
(0.758387 0.0869505 0)
(0.720153 0.0664792 0)
(0.692854 0.0494946 0)
(0.671115 0.0355289 0)
(0.654009 0.0249993 0)
(0.641491 0.0203109 0)
(0.629759 0.0134431 0)
(0.622928 0.00896101 0)
(0.619768 0.00611654 0)
(0.616597 0.00289557 0)
(0.615689 0.00145491 0)
(0.613503 0.00383465 0)
(0.611407 0.00396552 0)
(0.610135 0.00299346 0)
(0.608513 0.000206835 0)
(0.609439 0.00110429 0)
(0.609346 0.00026003 0)
(0.605894 0.000705859 0)
(0.603571 0.00012853 0)
(0.604654 -0.00155472 0)
(0.603663 0.00063362 0)
(0.605718 -0.00144475 0)
(0.608805 -0.00243538 0)
(0.608053 0.00059827 0)
(0.606482 0.00038865 0)
(0.606027 0.000549648 0)
(0.608296 -0.000489582 0)
(0.610738 -0.000171793 0)
(0.609672 -0.0001879 0)
(0.609008 -0.00230786 0)
(0.611478 -0.0017329 0)
(0.614963 -0.00501293 0)
(0.618059 -0.00582188 0)
(0.620119 -0.00953283 0)
(0.62448 -0.010645 0)
(0.631665 -0.0149711 0)
(0.640159 -0.0212368 0)
(0.651906 -0.0300841 0)
(0.668672 -0.0412825 0)
(0.691888 -0.0592243 0)
(0.724984 -0.0901061 0)
(0.764214 -0.137194 0)
(0.80457 -0.208597 0)
(1.04033 0.20263 0)
(1.10242 0.344976 0)
(1.10319 0.353251 0)
(1.06836 0.305419 0)
(1.01734 0.244964 0)
(0.964927 0.193941 0)
(0.914733 0.15131 0)
(0.872081 0.113763 0)
(0.837825 0.0880051 0)
(0.80944 0.066979 0)
(0.786883 0.0488197 0)
(0.771276 0.036516 0)
(0.758256 0.0268539 0)
(0.745163 0.0177541 0)
(0.738572 0.0137226 0)
(0.735166 0.0096127 0)
(0.73154 0.00577202 0)
(0.731945 0.00522018 0)
(0.730982 0.00546442 0)
(0.726295 0.00466961 0)
(0.722843 0.00309869 0)
(0.722154 0.00131774 0)
(0.723396 0.000932636 0)
(0.723741 -0.000667721 0)
(0.721064 -0.00071685 0)
(0.717964 0.00237349 0)
(0.718579 -0.000315701 0)
(0.718141 0.000198283 0)
(0.719294 0.00112088 0)
(0.723557 -0.00112352 0)
(0.724276 0.000737384 0)
(0.72145 0.000407204 0)
(0.720682 0.00367075 0)
(0.72332 0.00378801 0)
(0.724284 0.00240596 0)
(0.722842 -0.000864404 0)
(0.724329 -0.0016524 0)
(0.726204 -0.00284272 0)
(0.730445 -0.0065162 0)
(0.734822 -0.00905865 0)
(0.737082 -0.0110989 0)
(0.742429 -0.0155169 0)
(0.749521 -0.0208794 0)
(0.758299 -0.0300311 0)
(0.772673 -0.041488 0)
(0.792085 -0.0559199 0)
(0.813608 -0.0749076 0)
(0.843302 -0.107261 0)
(0.877603 -0.15731 0)
(0.906887 -0.224824 0)
(1.0343 0.171405 0)
(1.0933 0.321123 0)
(1.11393 0.352325 0)
(1.10453 0.323867 0)
(1.07855 0.275265 0)
(1.0425 0.225632 0)
(1.00214 0.177763 0)
(0.968015 0.137968 0)
(0.938319 0.106901 0)
(0.912445 0.0806536 0)
(0.892253 0.0604826 0)
(0.876914 0.0457392 0)
(0.863352 0.0327861 0)
(0.852572 0.023393 0)
(0.846581 0.0178745 0)
(0.84181 0.012681 0)
(0.839255 0.00813551 0)
(0.83964 0.00856866 0)
(0.836342 0.00666587 0)
(0.832432 0.00306753 0)
(0.830275 0.00306379 0)
(0.829184 0.00155614 0)
(0.829625 -0.000690253 0)
(0.829795 -0.000287205 0)
(0.829338 -0.00171813 0)
(0.825042 0.00130629 0)
(0.824693 0.000490289 0)
(0.826173 -0.000328538 0)
(0.8263 0.00149673 0)
(0.830068 0.00179932 0)
(0.830868 0.00143539 0)
(0.830003 0.00119601 0)
(0.829593 0.00363887 0)
(0.829138 0.00374906 0)
(0.830024 0.00106703 0)
(0.829982 -0.0016306 0)
(0.831592 -0.00185063 0)
(0.833544 -0.00454436 0)
(0.837576 -0.00578146 0)
(0.843242 -0.0106129 0)
(0.846188 -0.013206 0)
(0.851401 -0.0188996 0)
(0.85935 -0.0254481 0)
(0.868752 -0.0355921 0)
(0.883271 -0.0484165 0)
(0.903152 -0.0670495 0)
(0.924705 -0.0916303 0)
(0.949158 -0.124518 0)
(0.975317 -0.17356 0)
(0.996276 -0.237048 0)
(1.03057 0.14588 0)
(1.08408 0.293021 0)
(1.11606 0.339581 0)
(1.12629 0.328941 0)
(1.11919 0.292188 0)
(1.0995 0.242773 0)
(1.07162 0.196426 0)
(1.0469 0.155564 0)
(1.02326 0.119185 0)
(1.00167 0.0911746 0)
(0.984979 0.0690476 0)
(0.972084 0.0519386 0)
(0.960316 0.0381586 0)
(0.950049 0.0294588 0)
(0.94432 0.0205891 0)
(0.94031 0.0142137 0)
(0.938713 0.00935381 0)
(0.939761 0.00743972 0)
(0.935442 0.00479435 0)
(0.931322 0.00576361 0)
(0.928948 0.00233117 0)
(0.926587 0.00155084 0)
(0.928549 1.48296e-05 0)
(0.929558 -0.000724646 0)
(0.928619 -0.00184023 0)
(0.925573 -0.00155711 0)
(0.924036 0.00230144 0)
(0.925408 0.000259 0)
(0.927037 -0.000782276 0)
(0.929927 0.000891739 0)
(0.930557 -0.000504162 0)
(0.929386 0.00220988 0)
(0.9288 0.000737601 0)
(0.928639 0.000815208 0)
(0.928481 -0.00156614 0)
(0.929215 -0.0024779 0)
(0.931506 -0.00394776 0)
(0.933788 -0.00665944 0)
(0.937983 -0.00691016 0)
(0.943186 -0.01048 0)
(0.947155 -0.0176083 0)
(0.952959 -0.0228813 0)
(0.960692 -0.0319712 0)
(0.969624 -0.0428595 0)
(0.983867 -0.0560739 0)
(1.00218 -0.0779141 0)
(1.02211 -0.104318 0)
(1.04383 -0.140827 0)
(1.06364 -0.187862 0)
(1.07633 -0.244284 0)
(1.0265 0.125932 0)
(1.07397 0.264638 0)
(1.11408 0.319639 0)
(1.1392 0.320422 0)
(1.14644 0.293243 0)
(1.13987 0.248737 0)
(1.12646 0.206688 0)
(1.1105 0.167935 0)
(1.09459 0.129874 0)
(1.07993 0.0999223 0)
(1.06759 0.0759817 0)
(1.05713 0.0587865 0)
(1.04778 0.0435947 0)
(1.03895 0.0325958 0)
(1.03331 0.0251521 0)
(1.03025 0.017376 0)
(1.0292 0.0110921 0)
(1.03014 0.00772727 0)
(1.02796 0.00250468 0)
(1.02315 0.00487477 0)
(1.01966 0.00232257 0)
(1.01949 0.00367196 0)
(1.01955 0.00254396 0)
(1.02003 -0.00258865 0)
(1.02033 -0.00260182 0)
(1.01872 -0.00443925 0)
(1.01708 -0.000979245 0)
(1.01565 -0.000876828 0)
(1.01786 -0.00143834 0)
(1.02133 -0.00256436 0)
(1.02318 -0.00305547 0)
(1.02226 -0.00159729 0)
(1.02041 -0.00168493 0)
(1.01998 -0.000897205 0)
(1.02083 -0.00113316 0)
(1.02174 -0.00308017 0)
(1.0228 -0.00535834 0)
(1.0266 -0.00776471 0)
(1.03147 -0.0094346 0)
(1.03459 -0.013247 0)
(1.03878 -0.0213698 0)
(1.0454 -0.0270747 0)
(1.05287 -0.0375633 0)
(1.06311 -0.049911 0)
(1.07507 -0.064092 0)
(1.09182 -0.0864547 0)
(1.10964 -0.113833 0)
(1.12579 -0.151189 0)
(1.14167 -0.197474 0)
(1.14924 -0.250265 0)
(1.02371 0.106721 0)
(1.06556 0.235169 0)
(1.10874 0.29546 0)
(1.14392 0.30541 0)
(1.16336 0.286452 0)
(1.17091 0.249676 0)
(1.17084 0.211562 0)
(1.16341 0.174279 0)
(1.15385 0.139798 0)
(1.14585 0.108682 0)
(1.13926 0.0817929 0)
(1.13307 0.064261 0)
(1.12508 0.0479163 0)
(1.11923 0.035331 0)
(1.11506 0.0284842 0)
(1.11111 0.0207292 0)
(1.1114 0.0152232 0)
(1.11254 0.00869264 0)
(1.11138 0.00414844 0)
(1.10835 0.00270147 0)
(1.10512 0.0049532 0)
(1.10345 0.00537816 0)
(1.10093 0.00225321 0)
(1.10277 -0.00270051 0)
(1.10391 -0.00338701 0)
(1.10224 -0.00492267 0)
(1.10211 -0.00295092 0)
(1.10115 -0.00318431 0)
(1.10181 -0.000667647 0)
(1.10496 -0.00325051 0)
(1.10744 -0.00384709 0)
(1.10676 -0.00519697 0)
(1.1062 -0.00371697 0)
(1.10658 -0.00260748 0)
(1.10486 -0.0015615 0)
(1.10459 -0.0034697 0)
(1.1074 -0.00460171 0)
(1.11116 -0.00800145 0)
(1.11589 -0.0125739 0)
(1.11875 -0.0167328 0)
(1.12378 -0.0235811 0)
(1.13021 -0.0309454 0)
(1.13639 -0.0428459 0)
(1.14601 -0.0554387 0)
(1.15754 -0.0741942 0)
(1.17172 -0.0946864 0)
(1.18628 -0.126016 0)
(1.19871 -0.159633 0)
(1.20922 -0.203397 0)
(1.21392 -0.251793 0)
(1.02147 0.0903733 0)
(1.05944 0.207662 0)
(1.10498 0.269047 0)
(1.14662 0.28734 0)
(1.17497 0.274221 0)
(1.19273 0.245448 0)
(1.20366 0.209669 0)
(1.20627 0.174336 0)
(1.20472 0.142006 0)
(1.20136 0.113167 0)
(1.20117 0.0868635 0)
(1.19916 0.0673009 0)
(1.1935 0.0505734 0)
(1.19133 0.0371894 0)
(1.18818 0.0275255 0)
(1.18566 0.0222245 0)
(1.18468 0.0173784 0)
(1.18596 0.0105007 0)
(1.18688 0.00610535 0)
(1.18555 0.00341809 0)
(1.18314 0.00519421 0)
(1.17913 0.00462595 0)
(1.1755 0.00147891 0)
(1.17788 0.000251074 0)
(1.17989 -0.00318321 0)
(1.17957 -0.00401606 0)
(1.17887 -0.00189597 0)
(1.17776 -0.000110486 0)
(1.1787 -0.0024956 0)
(1.18062 -0.00192873 0)
(1.18319 -0.004299 0)
(1.18416 -0.00562487 0)
(1.18417 -0.00428308 0)
(1.18365 -0.00440033 0)
(1.18281 -0.00390563 0)
(1.18273 -0.00358229 0)
(1.1838 -0.0045766 0)
(1.18654 -0.00810492 0)
(1.19242 -0.013375 0)
(1.19548 -0.0191726 0)
(1.19982 -0.0249691 0)
(1.20495 -0.0362042 0)
(1.21125 -0.0487278 0)
(1.21997 -0.0630616 0)
(1.22978 -0.0814176 0)
(1.2419 -0.104063 0)
(1.25412 -0.133384 0)
(1.26383 -0.168264 0)
(1.26934 -0.207752 0)
(1.27061 -0.251125 0)
(1.02053 0.0784335 0)
(1.05488 0.184297 0)
(1.10082 0.242551 0)
(1.14634 0.263279 0)
(1.18146 0.255733 0)
(1.20893 0.233806 0)
(1.22893 0.201566 0)
(1.24043 0.168948 0)
(1.24648 0.138684 0)
(1.24965 0.110428 0)
(1.25362 0.0867974 0)
(1.25585 0.067945 0)
(1.25333 0.0518309 0)
(1.25282 0.0360934 0)
(1.25352 0.0251693 0)
(1.25269 0.0202273 0)
(1.25141 0.0152789 0)
(1.25293 0.0121024 0)
(1.25385 0.00729917 0)
(1.25424 0.00396033 0)
(1.25209 0.00363502 0)
(1.24706 0.00310168 0)
(1.2438 0.00145744 0)
(1.24549 0.00109835 0)
(1.24685 -0.00305957 0)
(1.2487 -0.00309795 0)
(1.25018 -0.00181997 0)
(1.24675 -0.000867623 0)
(1.24672 -0.00264209 0)
(1.24991 -0.00119274 0)
(1.25168 -0.00334442 0)
(1.2536 -0.00335094 0)
(1.25388 -0.00384098 0)
(1.25361 -0.00563017 0)
(1.25282 -0.0054526 0)
(1.25216 -0.00636491 0)
(1.25364 -0.00884323 0)
(1.25588 -0.0100903 0)
(1.2602 -0.0139281 0)
(1.26413 -0.0217013 0)
(1.26691 -0.0284483 0)
(1.27095 -0.0403492 0)
(1.27727 -0.0524359 0)
(1.28534 -0.0678727 0)
(1.29405 -0.0855528 0)
(1.30407 -0.108986 0)
(1.31223 -0.136428 0)
(1.3186 -0.172975 0)
(1.32216 -0.208983 0)
(1.3198 -0.248936 0)
(1.01954 0.0662078 0)
(1.05099 0.159028 0)
(1.09648 0.214659 0)
(1.14494 0.23283 0)
(1.18655 0.23234 0)
(1.21984 0.216131 0)
(1.24722 0.186907 0)
(1.26751 0.158095 0)
(1.28023 0.129234 0)
(1.28904 0.103577 0)
(1.29948 0.0820042 0)
(1.30547 0.0640921 0)
(1.30366 0.0492631 0)
(1.30571 0.0354295 0)
(1.30977 0.0252124 0)
(1.3113 0.0197781 0)
(1.31117 0.0146091 0)
(1.31254 0.011111 0)
(1.31293 0.00679308 0)
(1.31395 0.00345971 0)
(1.31316 0.00161862 0)
(1.30836 0.00128811 0)
(1.30449 0.00122815 0)
(1.30528 0.00118513 0)
(1.30756 -0.00018625 0)
(1.3107 0.00038886 0)
(1.31052 -0.00234646 0)
(1.30795 -0.00161174 0)
(1.30955 -0.000182757 0)
(1.31104 -0.00139815 0)
(1.31287 -0.0012706 0)
(1.31505 -0.00247505 0)
(1.31436 -0.00384866 0)
(1.31452 -0.00675375 0)
(1.31458 -0.0081032 0)
(1.31365 -0.009757 0)
(1.31556 -0.0115071 0)
(1.31844 -0.0115789 0)
(1.32111 -0.0165311 0)
(1.32341 -0.0241616 0)
(1.32617 -0.031869 0)
(1.32979 -0.0419415 0)
(1.33569 -0.0543821 0)
(1.34267 -0.0694166 0)
(1.34957 -0.0894642 0)
(1.35717 -0.112325 0)
(1.36184 -0.13893 0)
(1.36558 -0.172917 0)
(1.367 -0.205524 0)
(1.36177 -0.243879 0)
(1.01917 0.0550999 0)
(1.04945 0.136012 0)
(1.09245 0.185713 0)
(1.14238 0.205757 0)
(1.19023 0.205423 0)
(1.22717 0.192175 0)
(1.26087 0.166551 0)
(1.28826 0.141512 0)
(1.30749 0.116177 0)
(1.32288 0.0950713 0)
(1.33691 0.0759539 0)
(1.34668 0.0582924 0)
(1.34891 0.0465308 0)
(1.35256 0.0356966 0)
(1.35918 0.0257109 0)
(1.3618 0.0208654 0)
(1.36196 0.0135686 0)
(1.36334 0.0107615 0)
(1.36466 0.00588715 0)
(1.36613 0.00267992 0)
(1.3661 -0.00119165 0)
(1.36197 -0.00169065 0)
(1.3587 -6.07666e-05 0)
(1.35942 0.00288236 0)
(1.36119 0.00404791 0)
(1.36253 0.00215392 0)
(1.36382 -0.00106692 0)
(1.36316 -0.00042205 0)
(1.36245 0.00128084 0)
(1.36492 0.00045625 0)
(1.36658 0.00013777 0)
(1.36776 -0.00120695 0)
(1.36764 -0.00376264 0)
(1.36805 -0.00537097 0)
(1.36833 -0.00839312 0)
(1.36797 -0.00945283 0)
(1.37142 -0.0108693 0)
(1.37233 -0.012742 0)
(1.37287 -0.0191115 0)
(1.37571 -0.02516 0)
(1.37834 -0.0332771 0)
(1.38078 -0.0433065 0)
(1.38555 -0.0557124 0)
(1.39067 -0.0713803 0)
(1.39597 -0.0909773 0)
(1.40241 -0.113934 0)
(1.40425 -0.1403 0)
(1.4057 -0.169272 0)
(1.40437 -0.201528 0)
(1.39648 -0.236374 0)
(1.01934 0.0444348 0)
(1.04784 0.113092 0)
(1.0906 0.154615 0)
(1.14045 0.177442 0)
(1.18983 0.176849 0)
(1.23127 0.16336 0)
(1.26979 0.146765 0)
(1.30487 0.12363 0)
(1.33051 0.102634 0)
(1.35053 0.0837672 0)
(1.36823 0.0684656 0)
(1.38221 0.0531727 0)
(1.38739 0.0415873 0)
(1.39144 0.0329056 0)
(1.40042 0.0260374 0)
(1.40372 0.0184371 0)
(1.40515 0.0113023 0)
(1.40803 0.00937888 0)
(1.40814 0.00567757 0)
(1.40971 0.00079735 0)
(1.41054 -0.00134843 0)
(1.40903 -0.00416924 0)
(1.40724 -0.000232829 0)
(1.40745 0.00312686 0)
(1.40679 0.0033707 0)
(1.40717 0.00152093 0)
(1.40865 -0.000256928 0)
(1.40926 -0.0018421 0)
(1.41007 0.000841684 0)
(1.41059 0.00357117 0)
(1.41224 0.00135902 0)
(1.4133 0.000112958 0)
(1.41306 -0.00323207 0)
(1.41342 -0.00525331 0)
(1.41421 -0.0071752 0)
(1.41489 -0.0072977 0)
(1.417 -0.0105231 0)
(1.41756 -0.0149259 0)
(1.418 -0.0208633 0)
(1.42025 -0.0278217 0)
(1.42154 -0.0365404 0)
(1.42401 -0.0448802 0)
(1.42775 -0.0570287 0)
(1.43115 -0.0727423 0)
(1.43473 -0.0904258 0)
(1.43872 -0.112964 0)
(1.43957 -0.140649 0)
(1.43871 -0.165643 0)
(1.43427 -0.197024 0)
(1.42551 -0.229424 0)
(1.01995 0.0338693 0)
(1.04708 0.0901624 0)
(1.08913 0.124686 0)
(1.13933 0.143135 0)
(1.18833 0.144057 0)
(1.23523 0.134353 0)
(1.2789 0.124474 0)
(1.31592 0.105341 0)
(1.3473 0.086464 0)
(1.37299 0.0706085 0)
(1.3944 0.0576866 0)
(1.40952 0.0447563 0)
(1.4182 0.0339648 0)
(1.42581 0.0278991 0)
(1.43435 0.0249584 0)
(1.43704 0.0148955 0)
(1.44109 0.0116766 0)
(1.44492 0.0066268 0)
(1.44405 0.0034927 0)
(1.44679 4.71666e-05 0)
(1.44751 -0.000171909 0)
(1.44756 -0.00259966 0)
(1.44812 -0.000163999 0)
(1.44645 0.00166433 0)
(1.44484 -0.00163559 0)
(1.44483 -0.000536407 0)
(1.44631 -0.00255569 0)
(1.44815 -0.00112028 0)
(1.45034 0.00104989 0)
(1.45009 0.00265933 0)
(1.4493 0.0020914 0)
(1.45042 -0.000973801 0)
(1.45051 -0.0035183 0)
(1.45219 -0.00723391 0)
(1.45399 -0.00677893 0)
(1.45353 -0.010108 0)
(1.45451 -0.0111748 0)
(1.45475 -0.0178883 0)
(1.454 -0.0228098 0)
(1.45599 -0.0298332 0)
(1.45882 -0.0388505 0)
(1.4607 -0.0471369 0)
(1.46175 -0.0587336 0)
(1.46427 -0.073084 0)
(1.4658 -0.0903073 0)
(1.46678 -0.112446 0)
(1.46636 -0.138506 0)
(1.46464 -0.163236 0)
(1.4566 -0.191773 0)
(1.44547 -0.222399 0)
(1.02085 0.0267442 0)
(1.04685 0.0671808 0)
(1.08696 0.0960429 0)
(1.1369 0.109842 0)
(1.18775 0.112332 0)
(1.23881 0.108495 0)
(1.28497 0.0977223 0)
(1.32457 0.0842056 0)
(1.36034 0.0689182 0)
(1.38975 0.0553297 0)
(1.41407 0.0448881 0)
(1.4318 0.033674 0)
(1.44336 0.0256554 0)
(1.45359 0.0203468 0)
(1.46101 0.0181344 0)
(1.46439 0.0128906 0)
(1.46957 0.0108724 0)
(1.47232 0.00541202 0)
(1.4734 0.00294504 0)
(1.47699 0.00167211 0)
(1.4781 0.00114598 0)
(1.47847 -0.000566284 0)
(1.47914 -0.00106595 0)
(1.47565 0.000763373 0)
(1.47476 -0.00219863 0)
(1.47614 -0.00199855 0)
(1.4774 -0.00139844 0)
(1.48015 0.000751691 0)
(1.48154 0.0019536 0)
(1.48088 0.00108929 0)
(1.47987 0.0010163 0)
(1.48012 0.000637137 0)
(1.48017 -0.00278727 0)
(1.48297 -0.00691119 0)
(1.48429 -0.00739717 0)
(1.48441 -0.0115416 0)
(1.48488 -0.0143056 0)
(1.48363 -0.0211652 0)
(1.48457 -0.0258404 0)
(1.48494 -0.0295591 0)
(1.48668 -0.0396533 0)
(1.48828 -0.0501723 0)
(1.48925 -0.0608845 0)
(1.48987 -0.0745383 0)
(1.48894 -0.0905126 0)
(1.48733 -0.111636 0)
(1.48658 -0.134386 0)
(1.4827 -0.159614 0)
(1.47282 -0.187916 0)
(1.46015 -0.213533 0)
(1.0189 0.0215831 0)
(1.04504 0.0468444 0)
(1.08665 0.0667051 0)
(1.13642 0.0765605 0)
(1.18902 0.0814054 0)
(1.24049 0.0790795 0)
(1.28832 0.0709938 0)
(1.33103 0.060433 0)
(1.3687 0.050847 0)
(1.40206 0.0399749 0)
(1.42847 0.0321085 0)
(1.44725 0.023545 0)
(1.46123 0.0175859 0)
(1.47375 0.0139609 0)
(1.48285 0.0080042 0)
(1.48635 0.00687176 0)
(1.49034 0.00474725 0)
(1.4936 0.00328009 0)
(1.4957 0.00385853 0)
(1.49966 0.00321684 0)
(1.50002 0.00321618 0)
(1.49994 -0.000503925 0)
(1.5026 -0.00140167 0)
(1.49948 0.000175193 0)
(1.49667 -0.000163758 0)
(1.49913 -0.000911868 0)
(1.50174 0.000730561 0)
(1.5042 0.002371 0)
(1.50466 0.00144429 0)
(1.50398 0.00121149 0)
(1.50375 -0.000427533 0)
(1.50326 -0.000354318 0)
(1.50136 -0.0029936 0)
(1.50503 -0.00549601 0)
(1.50734 -0.0104334 0)
(1.50587 -0.0115343 0)
(1.50612 -0.0162241 0)
(1.50539 -0.0233518 0)
(1.50731 -0.0282294 0)
(1.50661 -0.0320638 0)
(1.50637 -0.0417195 0)
(1.50836 -0.0511431 0)
(1.50809 -0.0627748 0)
(1.50764 -0.0760193 0)
(1.50522 -0.0914834 0)
(1.50153 -0.109205 0)
(1.49874 -0.129654 0)
(1.49258 -0.153868 0)
(1.48237 -0.178729 0)
(1.46946 -0.203538 0)
(1.01717 0.0128701 0)
(1.04213 0.029303 0)
(1.08435 0.0391685 0)
(1.13644 0.0450791 0)
(1.19008 0.0457989 0)
(1.24187 0.0441592 0)
(1.29039 0.0402659 0)
(1.3352 0.0340227 0)
(1.37537 0.0306736 0)
(1.40923 0.0243791 0)
(1.43735 0.0197185 0)
(1.45836 0.0141181 0)
(1.47405 0.00990288 0)
(1.48522 0.00952777 0)
(1.49448 0.0029732 0)
(1.50071 0.00148957 0)
(1.50573 0.00120087 0)
(1.51 0.00181732 0)
(1.51192 0.00213347 0)
(1.51504 0.00221227 0)
(1.514 0.00283675 0)
(1.51404 -9.93876e-05 0)
(1.51843 0.000302509 0)
(1.51475 -0.000232194 0)
(1.5123 0.000128428 0)
(1.51505 0.000855453 0)
(1.51805 0.00131127 0)
(1.51976 0.00288626 0)
(1.51989 0.00256714 0)
(1.5191 0.00215632 0)
(1.51833 0.00101199 0)
(1.51836 -0.00251305 0)
(1.51686 -0.00343244 0)
(1.51851 -0.00472531 0)
(1.52127 -0.0115629 0)
(1.52204 -0.0131213 0)
(1.51956 -0.0146055 0)
(1.51872 -0.021969 0)
(1.5224 -0.0273539 0)
(1.5204 -0.0352271 0)
(1.51941 -0.0417057 0)
(1.52046 -0.0491036 0)
(1.51926 -0.0614419 0)
(1.5181 -0.072875 0)
(1.51458 -0.0891901 0)
(1.51007 -0.106817 0)
(1.50468 -0.124308 0)
(1.49763 -0.145716 0)
(1.48538 -0.167594 0)
(1.47003 -0.192342 0)
(1.01741 0.00464794 0)
(1.0416 0.00857302 0)
(1.08382 0.0103849 0)
(1.13496 0.0136462 0)
(1.18871 0.0113603 0)
(1.24259 0.0108772 0)
(1.29225 0.00932843 0)
(1.33885 0.0107979 0)
(1.37918 0.010427 0)
(1.41369 0.00765093 0)
(1.44203 0.00427015 0)
(1.46256 0.00128736 0)
(1.48039 -0.00167387 0)
(1.49214 -0.000131659 0)
(1.50062 -0.000591635 0)
(1.50794 -0.000204207 0)
(1.51349 -0.000241268 0)
(1.51713 2.14133e-05 0)
(1.51904 -0.00112874 0)
(1.52305 0.000204343 0)
(1.52143 0.000586197 0)
(1.52149 0.00148331 0)
(1.52584 0.00086472 0)
(1.52234 -0.00218777 0)
(1.52055 0.000693417 0)
(1.52336 0.00142984 0)
(1.5266 0.00270189 0)
(1.52849 0.00258049 0)
(1.52797 0.00439859 0)
(1.52691 0.00232399 0)
(1.5253 0.00110694 0)
(1.52491 -0.00136591 0)
(1.52449 -0.00331564 0)
(1.52498 -0.00481645 0)
(1.52737 -0.0100958 0)
(1.53015 -0.0120876 0)
(1.52705 -0.0145453 0)
(1.52471 -0.0177205 0)
(1.52703 -0.0237977 0)
(1.52622 -0.0335634 0)
(1.52668 -0.040103 0)
(1.52574 -0.0468457 0)
(1.52342 -0.0568564 0)
(1.52054 -0.0700167 0)
(1.51475 -0.0846032 0)
(1.51072 -0.10209 0)
(1.50477 -0.119622 0)
(1.49526 -0.13958 0)
(1.48178 -0.161381 0)
(1.46377 -0.184051 0)
(1.01564 -0.00185083 0)
(1.03891 -0.0113561 0)
(1.08364 -0.0157192 0)
(1.13544 -0.0198065 0)
(1.18874 -0.023152 0)
(1.24272 -0.0227345 0)
(1.29382 -0.0226568 0)
(1.34048 -0.0161704 0)
(1.37905 -0.012046 0)
(1.4119 -0.0112438 0)
(1.44009 -0.0120298 0)
(1.46187 -0.00914769 0)
(1.48047 -0.00987067 0)
(1.49379 -0.00865908 0)
(1.50199 -0.00658334 0)
(1.50853 -0.00526751 0)
(1.51364 -0.00188353 0)
(1.51685 -0.0030115 0)
(1.51957 -0.00244631 0)
(1.52376 -0.000630865 0)
(1.52248 -0.00253144 0)
(1.52186 0.000720772 0)
(1.52375 -0.00136446 0)
(1.52256 -0.00366563 0)
(1.52267 0.00169052 0)
(1.52448 0.00324049 0)
(1.52711 0.00393908 0)
(1.52919 0.00329126 0)
(1.52842 0.00377914 0)
(1.5255 0.00170847 0)
(1.52501 0.000548102 0)
(1.52464 -0.00258043 0)
(1.52397 -0.0044708 0)
(1.52381 -0.00404891 0)
(1.52673 -0.00728959 0)
(1.52989 -0.00822348 0)
(1.5275 -0.0140089 0)
(1.52491 -0.016243 0)
(1.52462 -0.0224702 0)
(1.5232 -0.0294409 0)
(1.52459 -0.036944 0)
(1.5238 -0.0459663 0)
(1.51931 -0.0546881 0)
(1.5152 -0.0677893 0)
(1.5095 -0.0815503 0)
(1.50331 -0.0949692 0)
(1.49651 -0.115228 0)
(1.48575 -0.132948 0)
(1.47087 -0.153855 0)
(1.45266 -0.173446 0)
(1.0149 -0.0124586 0)
(1.03949 -0.0311471 0)
(1.0836 -0.0425909 0)
(1.133 -0.0534804 0)
(1.18771 -0.0578972 0)
(1.24149 -0.0576301 0)
(1.29348 -0.0532518 0)
(1.34114 -0.0458571 0)
(1.3771 -0.0382443 0)
(1.40784 -0.0314622 0)
(1.43663 -0.0252134 0)
(1.4569 -0.0193878 0)
(1.47369 -0.0170641 0)
(1.48683 -0.0150627 0)
(1.49498 -0.0118622 0)
(1.50307 -0.00943677 0)
(1.50715 -0.00633066 0)
(1.50909 -0.00607556 0)
(1.51276 -0.00373693 0)
(1.51539 -0.00273261 0)
(1.51474 -0.00360305 0)
(1.51468 -0.000571843 0)
(1.51587 -0.000414956 0)
(1.51703 -0.000206502 0)
(1.5177 0.00254518 0)
(1.51749 0.00307403 0)
(1.51958 0.00456035 0)
(1.52179 0.00222917 0)
(1.52031 -0.000936472 0)
(1.5184 0.000799511 0)
(1.51585 0.000595275 0)
(1.51521 -0.00379605 0)
(1.51755 -0.00373377 0)
(1.51741 -0.00391527 0)
(1.51964 -0.00461093 0)
(1.52125 -0.00756114 0)
(1.51798 -0.0127416 0)
(1.51583 -0.0174303 0)
(1.51549 -0.0231543 0)
(1.51435 -0.0273957 0)
(1.51435 -0.0341699 0)
(1.51297 -0.0466336 0)
(1.50846 -0.0545109 0)
(1.50288 -0.0666012 0)
(1.49707 -0.0797277 0)
(1.4893 -0.0902278 0)
(1.48083 -0.107302 0)
(1.47015 -0.124778 0)
(1.45435 -0.143115 0)
(1.43685 -0.158806 0)
(1.01591 -0.0221746 0)
(1.0408 -0.0512256 0)
(1.08351 -0.0730161 0)
(1.13289 -0.0853481 0)
(1.1869 -0.0898085 0)
(1.24085 -0.0897742 0)
(1.29186 -0.0806974 0)
(1.33684 -0.0708832 0)
(1.37181 -0.0602129 0)
(1.40172 -0.0488708 0)
(1.42787 -0.0392465 0)
(1.44574 -0.0313231 0)
(1.46156 -0.0251544 0)
(1.47452 -0.0213682 0)
(1.48248 -0.0150319 0)
(1.48903 -0.0115325 0)
(1.49258 -0.0116662 0)
(1.49526 -0.00843357 0)
(1.49839 -0.00359293 0)
(1.50077 -0.00492032 0)
(1.50075 -0.00245964 0)
(1.50092 -1.42425e-05 0)
(1.50137 0.00115468 0)
(1.50206 0.00195466 0)
(1.50237 0.000913152 0)
(1.5035 0.000780895 0)
(1.50432 0.00341293 0)
(1.50379 0.000145218 0)
(1.5054 -0.00334216 0)
(1.50447 -0.0014232 0)
(1.50018 -0.00147319 0)
(1.50045 -0.00236783 0)
(1.50261 -0.00277225 0)
(1.50222 -0.00559365 0)
(1.50398 -0.00719026 0)
(1.50504 -0.0103435 0)
(1.50196 -0.0146651 0)
(1.49933 -0.0186524 0)
(1.49972 -0.0234452 0)
(1.49792 -0.0270819 0)
(1.49486 -0.0343184 0)
(1.4938 -0.0442394 0)
(1.49009 -0.0515946 0)
(1.48324 -0.0644623 0)
(1.47905 -0.0756086 0)
(1.47047 -0.0870257 0)
(1.45882 -0.100398 0)
(1.44737 -0.116513 0)
(1.43278 -0.131824 0)
(1.41475 -0.144892 0)
(1.01729 -0.0305037 0)
(1.04276 -0.0717773 0)
(1.08489 -0.101284 0)
(1.13355 -0.115126 0)
(1.18525 -0.121317 0)
(1.23873 -0.117352 0)
(1.28878 -0.107041 0)
(1.33142 -0.0945684 0)
(1.36371 -0.0797853 0)
(1.38997 -0.0649831 0)
(1.41448 -0.0506 0)
(1.43042 -0.0410172 0)
(1.44316 -0.0301711 0)
(1.45566 -0.025012 0)
(1.46317 -0.0208031 0)
(1.46696 -0.0147664 0)
(1.47091 -0.0107712 0)
(1.47561 -0.0077999 0)
(1.47652 -0.00343411 0)
(1.47756 -0.0042751 0)
(1.47953 -0.00345993 0)
(1.47877 -0.00079803 0)
(1.47894 0.00049719 0)
(1.47898 0.00102377 0)
(1.47918 -0.00240317 0)
(1.48136 -0.00104723 0)
(1.48162 -2.218e-05 0)
(1.47993 0.000257037 0)
(1.48202 -0.000626311 0)
(1.48215 -0.00182104 0)
(1.47802 -0.00256214 0)
(1.47757 -0.00100167 0)
(1.47902 -0.00440815 0)
(1.47811 -0.00552525 0)
(1.48064 -0.00833306 0)
(1.48119 -0.0112788 0)
(1.47788 -0.0158227 0)
(1.47545 -0.0186976 0)
(1.47611 -0.0236466 0)
(1.47423 -0.0280881 0)
(1.47067 -0.0323938 0)
(1.46929 -0.0400078 0)
(1.46371 -0.0479931 0)
(1.45633 -0.0577198 0)
(1.45193 -0.0682936 0)
(1.44304 -0.082019 0)
(1.43162 -0.0950114 0)
(1.41948 -0.107551 0)
(1.40492 -0.120804 0)
(1.38633 -0.132832 0)
(1.01864 -0.0391327 0)
(1.0452 -0.0924467 0)
(1.08751 -0.131267 0)
(1.13492 -0.148836 0)
(1.1851 -0.151148 0)
(1.23646 -0.143587 0)
(1.28208 -0.130216 0)
(1.32121 -0.115094 0)
(1.35147 -0.0985821 0)
(1.37609 -0.0782006 0)
(1.39553 -0.0613325 0)
(1.40882 -0.0486359 0)
(1.41999 -0.0357367 0)
(1.42763 -0.0294512 0)
(1.43566 -0.0259512 0)
(1.44193 -0.0173186 0)
(1.44314 -0.00956202 0)
(1.44636 -0.00671008 0)
(1.44692 -0.00649452 0)
(1.44697 -0.00337643 0)
(1.44959 -0.00423115 0)
(1.44956 -0.0028367 0)
(1.44909 -0.00107993 0)
(1.44696 -0.00131453 0)
(1.44784 -0.00372568 0)
(1.45159 -0.00146244 0)
(1.45207 -0.00155102 0)
(1.45057 0.000383197 0)
(1.45154 -0.000312694 0)
(1.45066 -0.00136633 0)
(1.44835 -0.00272031 0)
(1.447 -0.00209299 0)
(1.44796 -0.0063811 0)
(1.4482 -0.0066402 0)
(1.44884 -0.00906422 0)
(1.44939 -0.0122334 0)
(1.44632 -0.0149843 0)
(1.44415 -0.0188879 0)
(1.44441 -0.0221798 0)
(1.44354 -0.0283563 0)
(1.43915 -0.0316215 0)
(1.43637 -0.0388046 0)
(1.43162 -0.0461169 0)
(1.42361 -0.0525406 0)
(1.41728 -0.0637832 0)
(1.40788 -0.0760063 0)
(1.39739 -0.0872911 0)
(1.38525 -0.0980335 0)
(1.3706 -0.110199 0)
(1.35132 -0.122879 0)
(1.02036 -0.0478909 0)
(1.04707 -0.113689 0)
(1.0885 -0.161428 0)
(1.13799 -0.181514 0)
(1.18617 -0.180093 0)
(1.23274 -0.172474 0)
(1.27412 -0.153745 0)
(1.30776 -0.13323 0)
(1.33529 -0.112876 0)
(1.35624 -0.0909546 0)
(1.37116 -0.0735329 0)
(1.38172 -0.0568675 0)
(1.38854 -0.0443705 0)
(1.39411 -0.0352946 0)
(1.4022 -0.0261824 0)
(1.40826 -0.019588 0)
(1.40843 -0.014557 0)
(1.40836 -0.0092924 0)
(1.40937 -0.00836327 0)
(1.40996 -0.00545859 0)
(1.411 -0.0055698 0)
(1.41153 -0.00453299 0)