/*--------------------------------*- C++ -*----------------------------------*\
  =========                 |
  \\      /  F ield         | OpenFOAM: The Open Source CFD Toolbox
   \\    /   O peration     | Website:  https://openfoam.org
    \\  /    A nd           | Version:  6
     \\/     M anipulation  |
\*---------------------------------------------------------------------------*/
FoamFile
{
    version     2.0;
    format      ascii;
    class       volScalarField;
    location    "./ITHACAoutput/Offline/1";
    object      P_rec;
}
// * * * * * * * * * * * * * * * * * * * * * * * * * * * * * * * * * * * * * //

dimensions      [0 2 -2 0 0 0 0];

internalField   nonuniform List<scalar> 
40000
(
0.00459408
0.0045942
0.004594
0.00459334
0.00459225
0.00459077
0.00458896
0.00458687
0.00458458
0.00458215
0.00457961
0.00457704
0.00457447
0.00457196
0.00456956
0.00456729
0.0045652
0.00456332
0.00456169
0.00456033
0.00455925
0.00455849
0.00455805
0.00455794
0.00455819
0.00455878
0.00455972
0.004561
0.00456263
0.0045646
0.00456688
0.00456948
0.00457238
0.00457556
0.00457901
0.00458272
0.00458666
0.00459082
0.00459519
0.00459976
0.0046045
0.00460941
0.00461447
0.00461968
0.00462502
0.00463049
0.00463608
0.00464181
0.00464764
0.0046536
0.00465967
0.00466587
0.00467219
0.00467865
0.00468524
0.00469199
0.00469889
0.00470597
0.00471324
0.00472071
0.0047284
0.00473633
0.00474452
0.004753
0.00476178
0.00477089
0.00478038
0.00479025
0.00480054
0.00481128
0.00482252
0.00483427
0.00484657
0.00485947
0.00487299
0.00488718
0.00490206
0.00491769
0.00493409
0.00495129
0.00496934
0.00498826
0.00500811
0.0050289
0.00505066
0.00507342
0.0050972
0.00512204
0.00514794
0.00517494
0.00520304
0.00523225
0.00526257
0.00529402
0.00532659
0.00536028
0.00539506
0.00543094
0.00546789
0.00550589
0.00554491
0.0055849
0.00562584
0.00566767
0.00571036
0.00575385
0.00579807
0.00584297
0.00588848
0.00593451
0.00598102
0.0060279
0.00607508
0.00612247
0.00616998
0.00621753
0.00626503
0.00631238
0.00635949
0.00640627
0.00645264
0.00649849
0.00654375
0.00658835
0.00663219
0.0066752
0.00671731
0.00675847
0.00679861
0.00683768
0.00687564
0.00691245
0.00694808
0.00698252
0.00701575
0.00704776
0.00707856
0.00710815
0.00713656
0.0071638
0.00718991
0.00721491
0.00723885
0.00726177
0.00728373
0.00730474
0.00732491
0.00734426
0.00736284
0.00738071
0.00739792
0.00741452
0.00743056
0.00744609
0.00746113
0.00747574
0.00748994
0.00750377
0.00751724
0.00753039
0.00754321
0.00755572
0.00756792
0.00757983
0.00759144
0.00760273
0.0076137
0.00762433
0.00763461
0.00764453
0.00765404
0.00766315
0.00767181
0.00768001
0.00768772
0.00769492
0.00770156
0.00770764
0.00771314
0.00771802
0.00772228
0.00772588
0.00772884
0.00773111
0.00773274
0.00773371
0.00773404
0.00773374
0.00773286
0.00773143
0.00772951
0.00772719
0.00772453
0.00772166
0.00771873
0.00771588
0.0077133
0.00771125
0.00770997
0.00770955
0.00459397
0.00459408
0.00459389
0.00459329
0.0045923
0.00459096
0.00458934
0.00458748
0.00458542
0.00458323
0.00458095
0.00457864
0.00457633
0.00457408
0.00457192
0.0045699
0.00456804
0.00456638
0.00456496
0.0045638
0.0045629
0.00456231
0.00456203
0.00456206
0.00456243
0.00456314
0.00456418
0.00456556
0.00456726
0.0045693
0.00457164
0.0045743
0.00457724
0.00458046
0.00458395
0.00458769
0.00459166
0.00459585
0.00460025
0.00460484
0.00460962
0.00461455
0.00461965
0.00462489
0.00463027
0.00463579
0.00464143
0.00464719
0.00465308
0.00465909
0.00466521
0.00467146
0.00467784
0.00468436
0.00469101
0.00469781
0.00470477
0.0047119
0.00471922
0.00472674
0.00473448
0.00474246
0.00475069
0.0047592
0.00476802
0.00477716
0.00478666
0.00479655
0.00480685
0.00481759
0.00482882
0.00484055
0.00485284
0.0048657
0.00487918
0.00489332
0.00490814
0.00492369
0.00494001
0.00495713
0.00497508
0.00499389
0.00501361
0.00503427
0.00505588
0.00507849
0.00510212
0.00512679
0.00515251
0.00517932
0.00520722
0.00523622
0.00526634
0.00529756
0.0053299
0.00536334
0.00539788
0.00543352
0.0054702
0.00550794
0.00554668
0.0055864
0.00562706
0.00566862
0.00571102
0.00575421
0.00579814
0.00584274
0.00588794
0.00593368
0.00597988
0.00602646
0.00607333
0.00612043
0.00616764
0.0062149
0.0062621
0.00630916
0.00635598
0.00640249
0.00644858
0.00649418
0.00653918
0.00658352
0.00662713
0.00666991
0.00671181
0.00675276
0.0067927
0.0068316
0.00686939
0.00690605
0.00694156
0.00697587
0.007009
0.00704093
0.00707165
0.00710119
0.00712956
0.00715677
0.00718287
0.00720788
0.00723183
0.00725479
0.00727677
0.00729786
0.00731808
0.0073375
0.00735616
0.00737411
0.00739141
0.00740811
0.00742424
0.00743985
0.007455
0.00746971
0.007484
0.00749791
0.00751146
0.00752468
0.00753757
0.00755014
0.00756241
0.00757436
0.007586
0.00759732
0.00760831
0.00761897
0.00762925
0.00763917
0.00764869
0.0076578
0.00766645
0.00767464
0.00768235
0.00768954
0.00769619
0.00770229
0.0077078
0.00771272
0.00771702
0.0077207
0.00772375
0.00772615
0.00772792
0.00772906
0.00772959
0.00772954
0.00772892
0.0077278
0.00772624
0.00772428
0.00772204
0.0077196
0.00771708
0.00771464
0.00771244
0.00771067
0.00770955
0.00770913
0.00459417
0.00459427
0.00459408
0.00459351
0.00459261
0.00459141
0.00458995
0.00458829
0.00458647
0.00458452
0.00458249
0.00458044
0.00457839
0.00457639
0.00457449
0.00457271
0.00457109
0.00456967
0.00456846
0.00456749
0.0045668
0.00456638
0.00456626
0.00456645
0.00456696
0.0045678
0.00456896
0.00457044
0.00457224
0.00457436
0.00457678
0.0045795
0.00458251
0.00458579
0.00458933
0.00459311
0.00459713
0.00460136
0.00460581
0.00461044
0.00461525
0.00462023
0.00462538
0.00463067
0.0046361
0.00464166
0.00464735
0.00465317
0.00465911
0.00466517
0.00467136
0.00467767
0.0046841
0.00469067
0.00469738
0.00470423
0.00471125
0.00471843
0.00472579
0.00473336
0.00474113
0.00474914
0.0047574
0.00476593
0.00477476
0.00478391
0.00479341
0.00480328
0.00481356
0.00482428
0.00483547
0.00484715
0.00485938
0.00487217
0.00488557
0.00489962
0.00491434
0.00492978
0.00494598
0.00496296
0.00498076
0.00499943
0.00501898
0.00503946
0.00506089
0.00508331
0.00510674
0.00513119
0.0051567
0.00518328
0.00521095
0.00523971
0.00526957
0.00530055
0.00533263
0.00536582
0.00540009
0.00543545
0.00547187
0.00550932
0.00554778
0.00558722
0.0056276
0.00566886
0.00571098
0.00575389
0.00579753
0.00584184
0.00588676
0.00593222
0.00597814
0.00602443
0.00607102
0.00611784
0.00616478
0.00621177
0.0062587
0.00630551
0.00635207
0.00639833
0.00644418
0.00648953
0.00653431
0.00657843
0.00662182
0.0066644
0.0067061
0.00674687
0.00678663
0.00682536
0.006863
0.00689953
0.0069349
0.0069691
0.00700212
0.00703395
0.0070646
0.00709407
0.00712238
0.00714955
0.00717562
0.00720061
0.00722456
0.00724753
0.00726954
0.00729065
0.00731091
0.00733037
0.00734909
0.00736711
0.00738447
0.00740124
0.00741746
0.00743315
0.00744838
0.00746317
0.00747754
0.00749154
0.00750517
0.00751846
0.00753142
0.00754406
0.00755639
0.0075684
0.00758009
0.00759146
0.00760249
0.00761317
0.00762348
0.00763342
0.00764296
0.00765207
0.00766074
0.00766895
0.00767666
0.00768387
0.00769055
0.00769667
0.00770223
0.00770719
0.00771157
0.00771533
0.00771848
0.00772101
0.00772294
0.00772427
0.00772501
0.0077252
0.00772486
0.00772405
0.00772281
0.00772122
0.00771935
0.0077173
0.00771515
0.00771306
0.00771113
0.00770954
0.00770842
0.00770786
0.00459482
0.00459487
0.00459465
0.00459409
0.00459322
0.0045921
0.00459077
0.00458924
0.00458758
0.00458581
0.00458397
0.00458211
0.00458027
0.00457848
0.00457677
0.0045752
0.00457376
0.00457253
0.0045715
0.00457071
0.00457017
0.00456991
0.00456994
0.00457027
0.00457091
0.00457186
0.00457314
0.00457472
0.00457662
0.00457883
0.00458133
0.00458413
0.00458721
0.00459055
0.00459416
0.004598
0.00460207
0.00460637
0.00461087
0.00461555
0.00462041
0.00462545
0.00463063
0.00463598
0.00464146
0.00464707
0.00465281
0.00465868
0.00466467
0.00467078
0.00467701
0.00468337
0.00468985
0.00469646
0.0047032
0.0047101
0.00471714
0.00472434
0.00473173
0.00473931
0.00474709
0.0047551
0.00476335
0.00477186
0.00478067
0.00478978
0.00479925
0.00480907
0.00481928
0.00482993
0.00484104
0.00485263
0.00486475
0.00487743
0.00489071
0.00490462
0.0049192
0.00493449
0.00495051
0.00496733
0.00498495
0.00500342
0.00502278
0.00504306
0.00506428
0.00508648
0.00510968
0.00513391
0.00515919
0.00518554
0.00521297
0.00524149
0.00527112
0.00530185
0.00533369
0.00536663
0.00540067
0.00543579
0.00547196
0.00550919
0.00554741
0.00558661
0.00562677
0.00566781
0.00570971
0.0057524
0.00579583
0.00583993
0.00588465
0.0059299
0.00597562
0.00602173
0.00606814
0.00611478
0.00616154
0.00620836
0.00625513
0.00630176
0.00634818
0.00639429
0.00643999
0.0064852
0.00652984
0.00657383
0.00661709
0.00665955
0.00670113
0.00674178
0.00678145
0.00682007
0.00685761
0.00689404
0.00692932
0.00696345
0.00699638
0.00702814
0.00705873
0.00708814
0.00711639
0.00714352
0.00716954
0.0071945
0.00721843
0.00724137
0.00726337
0.00728448
0.00730474
0.00732422
0.00734294
0.00736099
0.00737839
0.00739519
0.00741144
0.00742719
0.00744247
0.00745731
0.00747174
0.00748579
0.00749949
0.00751285
0.00752587
0.00753857
0.00755096
0.00756302
0.00757477
0.00758619
0.00759727
0.007608
0.00761836
0.00762833
0.00763792
0.00764706
0.00765577
0.00766401
0.00767176
0.00767901
0.00768573
0.00769191
0.00769751
0.00770255
0.007707
0.00771085
0.00771411
0.00771676
0.00771883
0.00772031
0.00772123
0.00772161
0.00772149
0.00772092
0.00771993
0.00771859
0.00771699
0.00771517
0.00771326
0.00771134
0.00770954
0.00770794
0.00770665
0.00770581
0.0045959
0.00459585
0.00459555
0.00459495
0.00459409
0.00459301
0.00459174
0.00459032
0.00458876
0.00458712
0.00458544
0.00458373
0.00458205
0.00458042
0.00457887
0.00457746
0.00457619
0.00457511
0.00457423
0.00457358
0.0045732
0.00457308
0.00457324
0.00457369
0.00457446
0.00457552
0.00457691
0.00457859
0.00458059
0.00458289
0.00458549
0.00458837
0.00459154
0.00459496
0.00459863
0.00460255
0.00460669
0.00461105
0.00461561
0.00462036
0.00462528
0.00463037
0.00463561
0.00464101
0.00464654
0.0046522
0.004658
0.00466391
0.00466995
0.00467609
0.00468237
0.00468875
0.00469526
0.0047019
0.00470866
0.00471557
0.00472262
0.00472982
0.0047372
0.00474476
0.00475252
0.00476049
0.00476869
0.00477715
0.0047859
0.00479494
0.00480431
0.00481404
0.00482415
0.00483467
0.00484564
0.00485709
0.00486906
0.00488157
0.00489467
0.0049084
0.00492279
0.00493787
0.00495369
0.00497028
0.00498768
0.00500592
0.00502505
0.00504508
0.00506606
0.00508801
0.00511097
0.00513495
0.00515997
0.00518608
0.00521325
0.00524153
0.00527091
0.00530141
0.00533301
0.00536573
0.00539954
0.00543443
0.00547039
0.00550741
0.00554543
0.00558444
0.0056244
0.00566527
0.00570699
0.00574951
0.00579278
0.00583674
0.00588131
0.00592643
0.00597202
0.006018
0.0060643
0.00611082
0.00615749
0.0062042
0.00625089
0.00629744
0.00634378
0.00638981
0.00643544
0.00648059
0.00652518
0.00656911
0.0066123
0.00665471
0.00669625
0.00673685
0.00677647
0.00681504
0.00685254
0.00688892
0.00692416
0.00695824
0.00699114
0.00702285
0.0070534
0.00708276
0.00711098
0.00713807
0.00716406
0.00718898
0.00721288
0.0072358
0.00725777
0.00727886
0.00729911
0.00731858
0.00733731
0.00735535
0.00737275
0.00738958
0.00740585
0.00742163
0.00743693
0.00745181
0.00746629
0.00748039
0.00749414
0.00750754
0.00752062
0.00753339
0.00754584
0.00755797
0.00756978
0.00758126
0.00759241
0.00760319
0.00761362
0.00762366
0.00763329
0.0076425
0.00765127
0.00765956
0.00766737
0.00767468
0.00768146
0.0076877
0.00769338
0.0076985
0.00770303
0.00770698
0.00771034
0.00771311
0.00771529
0.00771693
0.00771801
0.00771855
0.00771861
0.00771822
0.00771741
0.00771626
0.00771482
0.00771317
0.00771138
0.00770952
0.00770771
0.007706
0.00770445
0.00770324
0.00459735
0.00459716
0.00459673
0.00459606
0.00459516
0.00459409
0.00459286
0.00459148
0.00459001
0.00458846
0.00458689
0.00458529
0.00458373
0.00458223
0.00458082
0.00457953
0.0045784
0.00457745
0.00457671
0.00457619
0.00457593
0.00457593
0.00457621
0.00457679
0.00457767
0.00457885
0.00458034
0.00458215
0.00458425
0.00458665
0.00458934
0.00459232
0.00459557
0.00459907
0.00460283
0.00460683
0.00461105
0.00461547
0.00462011
0.00462492
0.00462991
0.00463506
0.00464036
0.00464581
0.00465139
0.0046571
0.00466294
0.0046689
0.00467496
0.00468114
0.00468743
0.00469384
0.00470036
0.004707
0.00471376
0.00472065
0.00472768
0.00473485
0.00474218
0.00474969
0.00475738
0.00476528
0.0047734
0.00478176
0.00479039
0.0047993
0.00480854
0.00481811
0.00482805
0.0048384
0.00484918
0.00486043
0.00487219
0.00488448
0.00489735
0.00491083
0.00492497
0.0049398
0.00495535
0.00497168
0.00498879
0.00500677
0.00502561
0.00504537
0.00506606
0.00508774
0.00511041
0.00513412
0.00515888
0.0051847
0.00521162
0.00523965
0.00526878
0.00529903
0.0053304
0.00536289
0.00539648
0.00543117
0.00546694
0.00550376
0.0055416
0.00558045
0.00562025
0.00566096
0.00570255
0.00574495
0.0057881
0.00583195
0.00587642
0.00592145
0.00596697
0.00601289
0.00605913
0.0061056
0.00615223
0.00619891
0.00624558
0.00629211
0.00633843
0.00638446
0.00643009
0.00647524
0.00651983
0.00656377
0.00660698
0.0066494
0.00669095
0.00673156
0.0067712
0.00680979
0.0068473
0.00688369
0.00691893
0.00695301
0.00698592
0.00701763
0.00704817
0.00707753
0.00710574
0.00713282
0.0071588
0.00718369
0.00720759
0.00723048
0.00725244
0.00727351
0.00729375
0.00731321
0.00733193
0.00734997
0.00736738
0.00738421
0.00740049
0.00741629
0.00743162
0.00744653
0.00746105
0.00747519
0.00748898
0.00750244
0.00751559
0.00752841
0.00754093
0.00755312
0.00756501
0.00757657
0.00758779
0.00759865
0.00760916
0.00761927
0.00762898
0.00763826
0.0076471
0.00765548
0.00766337
0.00767075
0.00767762
0.00768394
0.00768971
0.00769491
0.00769954
0.00770358
0.00770706
0.00770994
0.00771225
0.007714
0.00771521
0.0077159
0.0077161
0.00771585
0.00771519
0.00771417
0.00771284
0.00771127
0.00770953
0.00770766
0.00770577
0.00770388
0.00770198
0.00770038
0.0045991
0.00459872
0.00459814
0.00459736
0.00459641
0.0045953
0.00459406
0.00459272
0.00459129
0.0045898
0.00458829
0.00458678
0.00458531
0.0045839
0.00458259
0.00458141
0.00458039
0.00457954
0.00457891
0.00457851
0.00457836
0.00457847
0.00457887
0.00457956
0.00458055
0.00458184
0.00458344
0.00458535
0.00458755
0.00459006
0.00459286
0.00459593
0.00459928
0.00460288
0.00460673
0.00461081
0.00461511
0.00461962
0.00462432
0.00462921
0.00463426
0.00463948
0.00464483
0.00465033
0.00465596
0.00466171
0.00466758
0.00467356
0.00467965
0.00468584
0.00469214
0.00469854
0.00470504
0.00471166
0.00471838
0.00472522
0.00473219
0.0047393
0.00474655
0.00475395
0.00476153
0.00476931
0.00477728
0.00478549
0.00479394
0.00480267
0.0048117
0.00482107
0.00483078
0.00484089
0.00485141
0.0048624
0.00487387
0.00488588
0.00489846
0.00491164
0.00492547
0.00493998
0.00495521
0.00497122
0.00498802
0.00500566
0.00502418
0.00504361
0.005064
0.00508536
0.00510773
0.00513113
0.0051556
0.00518114
0.00520779
0.00523555
0.00526442
0.00529443
0.00532557
0.00535784
0.00539122
0.00542571
0.0054613
0.00549795
0.00553565
0.00557434
0.00561401
0.00565461
0.00569609
0.0057384
0.00578147
0.00582526
0.00586968
0.00591467
0.00596016
0.00600605
0.00605229
0.00609877
0.00614541
0.00619212
0.00623881
0.00628539
0.00633176
0.00637785
0.00642354
0.00646876
0.00651342
0.00655745
0.00660074
0.00664323
0.00668487
0.00672557
0.00676528
0.00680395
0.00684154
0.00687799
0.00691331
0.00694746
0.00698041
0.00701219
0.00704277
0.00707217
0.00710041
0.00712752
0.00715352
0.00717845
0.00720234
0.00722525
0.00724722
0.0072683
0.00728855
0.007308
0.00732672
0.00734477
0.0073622
0.00737903
0.00739534
0.00741115
0.00742651
0.00744145
0.007456
0.00747019
0.00748403
0.00749755
0.00751075
0.00752364
0.00753623
0.00754851
0.00756047
0.00757211
0.00758342
0.00759437
0.00760496
0.00761516
0.00762497
0.00763435
0.00764328
0.00765175
0.00765973
0.00766722
0.00767417
0.00768059
0.00768646
0.00769176
0.00769649
0.00770064
0.00770422
0.00770721
0.00770964
0.00771151
0.00771284
0.00771365
0.00771396
0.00771382
0.00771325
0.00771232
0.00771105
0.00770952
0.00770776
0.00770583
0.0077038
0.00770168
0.00769941
0.0076974
0.00460109
0.00460051
0.00459973
0.00459882
0.00459779
0.00459662
0.00459535
0.00459399
0.00459257
0.00459111
0.00458963
0.00458818
0.00458676
0.00458542
0.00458418
0.00458308
0.00458214
0.00458138
0.00458085
0.00458054
0.00458048
0.0045807
0.0045812
0.00458199
0.00458309
0.00458448
0.00458619
0.0045882
0.00459051
0.00459313
0.00459603
0.00459921
0.00460265
0.00460635
0.00461029
0.00461446
0.00461884
0.00462343
0.00462821
0.00463317
0.00463829
0.00464355
0.00464896
0.00465451
0.00466017
0.00466595
0.00467184
0.00467783
0.00468392
0.0046901
0.00469637
0.00470274
0.00470919
0.00471574
0.0047224
0.00472915
0.00473602
0.004743
0.00475011
0.00475736
0.00476478
0.00477236
0.00478013
0.00478812
0.00479634
0.00480481
0.00481358
0.00482265
0.00483207
0.00484186
0.00485206
0.00486272
0.00487384
0.0048855
0.00489771
0.00491052
0.00492398
0.00493812
0.00495298
0.0049686
0.00498503
0.0050023
0.00502046
0.00503954
0.00505956
0.00508058
0.00510262
0.0051257
0.00514986
0.0051751
0.00520146
0.00522895
0.00525757
0.00528733
0.00531825
0.0053503
0.00538349
0.0054178
0.00545322
0.00548972
0.00552727
0.00556585
0.00560542
0.00564593
0.00568734
0.00572958
0.00577261
0.00581637
0.00586077
0.00590577
0.00595126
0.0059972
0.00604346
0.00609
0.0061367
0.00618349
0.00623028
0.00627695
0.00632344
0.00636963
0.00641546
0.00646082
0.00650562
0.00654979
0.00659323
0.00663588
0.00667767
0.00671853
0.00675838
0.00679721
0.00683495
0.00687156
0.00690701
0.00694129
0.00697437
0.00700626
0.00703696
0.00706646
0.0070948
0.00712199
0.00714807
0.00717306
0.00719701
0.00721997
0.00724199
0.00726311
0.00728338
0.00730287
0.00732163
0.0073397
0.00735715
0.00737401
0.00739034
0.00740618
0.00742158
0.00743656
0.00745115
0.00746539
0.00747929
0.00749286
0.00750613
0.00751909
0.00753176
0.00754411
0.00755617
0.00756789
0.0075793
0.00759035
0.00760104
0.00761136
0.00762126
0.00763075
0.00763979
0.00764837
0.00765646
0.00766405
0.00767112
0.00767764
0.00768362
0.00768903
0.00769387
0.00769813
0.00770181
0.00770492
0.00770745
0.00770943
0.00771086
0.00771177
0.00771218
0.00771212
0.00771162
0.00771074
0.00770949
0.00770794
0.00770613
0.0077041
0.00770189
0.00769951
0.00769686
0.00769445
0.00460325
0.00460246
0.00460147
0.00460041
0.00459925
0.004598
0.00459667
0.00459527
0.00459383
0.00459236
0.0045909
0.00458946
0.00458808
0.00458678
0.00458559
0.00458454
0.00458366
0.00458297
0.0045825
0.00458227
0.0045823
0.0045826
0.0045832
0.00458407
0.00458527
0.00458677
0.00458858
0.0045907
0.00459312
0.00459583
0.00459883
0.00460212
0.00460566
0.00460945
0.00461349
0.00461775
0.00462222
0.00462689
0.00463174
0.00463676
0.00464193
0.00464725
0.00465271
0.00465827
0.00466397
0.00466975
0.00467564
0.00468161
0.00468767
0.00469381
0.00470003
0.00470632
0.00471269
0.00471914
0.00472567
0.00473228
0.00473899
0.00474579
0.00475271
0.00475974
0.00476692
0.00477424
0.00478174
0.00478943
0.00479734
0.00480549
0.00481389
0.00482261
0.00483165
0.00484106
0.00485085
0.0048611
0.0048718
0.00488303
0.00489481
0.00490719
0.00492021
0.00493391
0.00494835
0.00496354
0.00497955
0.00499641
0.00501416
0.00503284
0.00505248
0.00507314
0.00509481
0.00511755
0.00514139
0.00516632
0.00519239
0.0052196
0.00524796
0.00527749
0.00530818
0.00534002
0.00537302
0.00540717
0.00544243
0.00547881
0.00551624
0.00555473
0.00559421
0.00563466
0.00567602
0.00571823
0.00576125
0.00580501
0.00584943
0.00589446
0.00594002
0.00598601
0.00603236
0.00607899
0.00612581
0.00617273
0.00621965
0.00626649
0.00631314
0.00635952
0.00640553
0.00645109
0.0064961
0.00654048
0.00658415
0.00662703
0.00666905
0.00671013
0.00675023
0.00678929
0.00682725
0.00686409
0.00689977
0.00693425
0.00696755
0.00699962
0.00703051
0.00706019
0.00708869
0.00711603
0.00714225
0.00716737
0.00719145
0.00721452
0.00723662
0.00725783
0.00727819
0.00729775
0.00731657
0.0073347
0.00735219
0.00736911
0.0073855
0.00740138
0.00741683
0.00743186
0.00744651
0.00746079
0.00747476
0.0074884
0.00750175
0.00751479
0.00752754
0.00753998
0.00755213
0.00756396
0.00757546
0.00758662
0.00759743
0.00760784
0.00761787
0.00762747
0.00763664
0.00764533
0.00765354
0.00766125
0.00766844
0.00767507
0.00768117
0.0076867
0.00769166
0.00769603
0.00769982
0.00770303
0.00770567
0.00770775
0.00770927
0.00771027
0.00771074
0.00771075
0.0077103
0.00770943
0.00770818
0.00770658
0.00770468
0.00770251
0.00770011
0.00769746
0.00769444
0.00769163
0.00460552
0.0046045
0.0046033
0.00460207
0.00460077
0.00459942
0.004598
0.00459654
0.00459505
0.00459356
0.00459208
0.00459063
0.00458926
0.00458797
0.0045868
0.00458579
0.00458494
0.0045843
0.00458388
0.00458371
0.00458381
0.00458418
0.00458485
0.00458583
0.00458711
0.00458871
0.00459062
0.00459283
0.00459536
0.00459818
0.00460128
0.00460466
0.0046083
0.00461219
0.00461632
0.00462066
0.00462521
0.00462995
0.00463487
0.00463994
0.00464516
0.00465052
0.00465599
0.00466157
0.00466726
0.00467303
0.00467889
0.00468482
0.00469081
0.00469687
0.00470299
0.00470917
0.00471539
0.00472168
0.00472803
0.00473445
0.00474092
0.00474748
0.00475413
0.00476087
0.00476774
0.00477472
0.00478187
0.00478918
0.00479669
0.00480442
0.00481241
0.00482067
0.00482925
0.00483818
0.0048475
0.00485725
0.00486746
0.0048782
0.00488948
0.00490135
0.00491388
0.00492709
0.00494103
0.00495575
0.00497129
0.0049877
0.00500501
0.00502327
0.0050425
0.00506276
0.00508407
0.00510646
0.00512994
0.00515457
0.00518034
0.00520727
0.00523538
0.00526467
0.00529515
0.00532681
0.00535963
0.00539362
0.00542875
0.00546499
0.00550234
0.00554075
0.00558017
0.00562057
0.0056619
0.00570412
0.00574715
0.00579094
0.00583541
0.00588051
0.00592615
0.00597224
0.00601872
0.0060655
0.00611247
0.00615956
0.00620668
0.00625372
0.0063006
0.00634721
0.00639348
0.0064393
0.00648459
0.00652926
0.00657323
0.00661641
0.00665874
0.00670014
0.00674056
0.00677993
0.00681821
0.00685536
0.00689134
0.00692613
0.00695971
0.00699209
0.00702324
0.00705318
0.00708193
0.00710951
0.00713594
0.00716127
0.00718553
0.00720877
0.00723104
0.0072524
0.00727288
0.00729256
0.00731149
0.00732972
0.00734732
0.00736431
0.00738077
0.00739676
0.00741226
0.00742737
0.00744209
0.00745646
0.00747049
0.00748421
0.00749764
0.00751077
0.0075236
0.00753614
0.00754839
0.00756032
0.00757194
0.00758321
0.00759413
0.00760467
0.00761481
0.00762454
0.00763383
0.00764265
0.00765099
0.00765882
0.00766613
0.0076729
0.00767912
0.00768476
0.00768983
0.00769432
0.00769822
0.00770154
0.00770428
0.00770645
0.00770806
0.00770912
0.00770966
0.0077097
0.00770928
0.0077084
0.00770712
0.00770546
0.00770345
0.00770113
0.00769852
0.0076956
0.00769222
0.00768904
0.00460786
0.00460661
0.00460518
0.00460377
0.00460233
0.00460085
0.00459933
0.00459778
0.00459622
0.00459468
0.00459315
0.00459167
0.00459028
0.00458898
0.00458782
0.00458681
0.00458598
0.00458537
0.00458499
0.00458487
0.00458502
0.00458545
0.00458619
0.00458725
0.00458861
0.00459029
0.00459229
0.0045946
0.00459722
0.00460014
0.00460334
0.00460681
0.00461055
0.00461453
0.00461874
0.00462317
0.00462778
0.00463259
0.00463755
0.00464266
0.00464791
0.00465328
0.00465875
0.00466433
0.00466998
0.0046757
0.00468149
0.00468733
0.00469322
0.00469915
0.00470512
0.00471112
0.00471715
0.00472322
0.00472931
0.00473546
0.00474164
0.00474787
0.00475417
0.00476054
0.00476701
0.00477357
0.00478026
0.00478712
0.00479414
0.00480137
0.00480883
0.00481656
0.00482459
0.00483297
0.00484173
0.0048509
0.00486055
0.00487071
0.00488142
0.00489274
0.00490471
0.00491737
0.00493078
0.00494499
0.00496002
0.00497594
0.00499278
0.00501059
0.0050294
0.00504925
0.00507017
0.0050922
0.00511535
0.00513965
0.00516514
0.00519179
0.00521966
0.00524872
0.00527899
0.00531046
0.00534312
0.00537697
0.00541198
0.00544812
0.00548539
0.00552373
0.00556311
0.0056035
0.00564482
0.00568705
0.00573012
0.00577397
0.00581853
0.00586371
0.00590947
0.0059557
0.00600234
0.00604929
0.00609647
0.00614378
0.00619113
0.00623843
0.00628559
0.0063325
0.00637909
0.00642524
0.00647087
0.0065159
0.00656024
0.0066038
0.00664653
0.00668833
0.00672915
0.00676893
0.00680762
0.00684518
0.00688156
0.00691675
0.00695072
0.00698347
0.00701499
0.00704529
0.00707437
0.00710227
0.00712901
0.00715463
0.00717916
0.00720265
0.00722516
0.00724672
0.00726741
0.00728727
0.00730638
0.00732476
0.00734249
0.00735962
0.00737621
0.00739229
0.0074079
0.0074231
0.00743792
0.00745238
0.00746651
0.00748032
0.00749384
0.00750706
0.00751999
0.00753263
0.00754499
0.00755703
0.00756875
0.00758015
0.00759119
0.00760185
0.00761213
0.00762198
0.00763139
0.00764034
0.00764881
0.00765678
0.00766422
0.00767111
0.00767745
0.00768322
0.00768842
0.00769301
0.00769702
0.00770045
0.00770328
0.00770553
0.00770721
0.00770834
0.00770893
0.007709
0.00770857
0.00770768
0.00770635
0.00770461
0.00770249
0.0077
0.00769718
0.007694
0.00769026
0.00768675
0.00461022
0.00460875
0.00460707
0.00460548
0.00460388
0.00460226
0.00460062
0.00459897
0.00459732
0.0045957
0.0045941
0.00459258
0.00459114
0.00458981
0.00458862
0.00458761
0.00458678
0.00458619
0.00458583
0.00458574
0.00458592
0.00458642
0.00458721
0.00458833
0.00458976
0.00459152
0.00459361
0.00459601
0.00459871
0.00460172
0.00460501
0.00460857
0.00461239
0.00461645
0.00462073
0.00462522
0.00462989
0.00463474
0.00463973
0.00464487
0.00465012
0.00465548
0.00466092
0.00466644
0.00467202
0.00467766
0.00468333
0.00468904
0.00469477
0.00470052
0.00470627
0.00471203
0.0047178
0.00472357
0.00472934
0.00473512
0.00474093
0.00474675
0.00475261
0.00475851
0.00476448
0.00477053
0.00477669
0.00478298
0.00478942
0.00479605
0.0048029
0.00481001
0.0048174
0.00482514
0.00483326
0.00484179
0.0048508
0.00486032
0.0048704
0.0048811
0.00489247
0.00490454
0.00491737
0.00493102
0.00494553
0.00496094
0.00497729
0.00499463
0.00501299
0.00503243
0.00505296
0.00507463
0.00509744
0.00512142
0.00514662
0.00517302
0.00520064
0.00522948
0.00525956
0.00529086
0.00532337
0.00535709
0.00539199
0.00542805
0.00546525
0.00550355
0.00554291
0.00558329
0.00562464
0.0056669
0.00571003
0.00575395
0.00579861
0.00584392
0.00588982
0.00593623
0.00598305
0.00603022
0.00607763
0.0061252
0.00617284
0.00622045
0.00626793
0.0063152
0.00636216
0.00640871
0.00645476
0.00650022
0.006545
0.00658903
0.00663223
0.00667451
0.00671584
0.00675611
0.00679531
0.00683336
0.00687025
0.00690594
0.00694039
0.00697363
0.00700562
0.00703636
0.00706589
0.00709422
0.00712136
0.00714736
0.00717225
0.00719608
0.0072189
0.00724077
0.00726173
0.00728185
0.00730118
0.00731978
0.00733771
0.00735502
0.00737177
0.007388
0.00740377
0.0074191
0.00743404
0.00744862
0.00746286
0.00747678
0.0074904
0.00750374
0.00751678
0.00752953
0.00754199
0.00755415
0.00756598
0.0075775
0.00758865
0.00759944
0.00760983
0.00761982
0.00762936
0.00763844
0.00764704
0.00765514
0.0076627
0.00766974
0.0076762
0.00768209
0.00768739
0.00769212
0.00769623
0.00769975
0.00770267
0.00770499
0.00770675
0.00770793
0.00770855
0.00770864
0.00770821
0.00770729
0.0077059
0.00770407
0.00770182
0.00769917
0.00769614
0.00769269
0.00768864
0.00768479
0.00461256
0.00461087
0.00460897
0.00460717
0.0046054
0.00460363
0.00460186
0.00460008
0.00459833
0.00459661
0.00459494
0.00459335
0.00459183
0.00459046
0.00458924
0.0045882
0.00458736
0.00458675
0.0045864
0.00458633
0.00458654
0.00458707
0.00458792
0.00458909
0.00459059
0.00459242
0.00459457
0.00459704
0.00459982
0.00460291
0.00460628
0.00460991
0.0046138
0.00461793
0.00462226
0.0046268
0.0046315
0.00463637
0.00464137
0.0046465
0.00465172
0.00465703
0.0046624
0.00466783
0.0046733
0.0046788
0.0046843
0.00468982
0.00469532
0.00470082
0.00470629
0.00471173
0.00471715
0.00472254
0.00472791
0.00473325
0.00473857
0.00474388
0.00474921
0.00475455
0.00475993
0.00476536
0.00477088
0.00477651
0.00478228
0.00478821
0.00479436
0.00480075
0.00480744
0.00481446
0.00482186
0.00482968
0.00483797
0.0048468
0.0048562
0.00486623
0.00487695
0.00488839
0.00490063
0.00491369
0.00492764
0.00494251
0.00495837
0.00497523
0.00499316
0.00501218
0.00503232
0.00505361
0.0050761
0.00509979
0.0051247
0.00515085
0.00517823
0.00520688
0.00523678
0.00526792
0.0053003
0.0053339
0.00536872
0.00540471
0.00544186
0.00548013
0.00551948
0.00555987
0.00560126
0.00564357
0.00568678
0.0057308
0.00577558
0.00582104
0.0058671
0.0059137
0.00596074
0.00600815
0.00605584
0.00610371
0.00615167
0.00619964
0.0062475
0.00629516
0.00634256
0.00638956
0.00643609
0.00648205
0.00652737
0.00657193
0.00661569
0.00665855
0.00670045
0.00674132
0.00678112
0.00681978
0.00685727
0.00689355
0.00692862
0.00696243
0.00699499
0.00702631
0.00705638
0.00708523
0.00711288
0.00713937
0.00716472
0.00718899
0.00721222
0.00723448
0.0072558
0.00727625
0.00729589
0.00731477
0.00733297
0.00735052
0.00736749
0.00738392
0.00739987
0.00741538
0.00743048
0.0074452
0.00745958
0.00747363
0.00748738
0.00750083
0.00751399
0.00752686
0.00753943
0.0075517
0.00756366
0.0075753
0.00758657
0.00759748
0.00760801
0.00761811
0.00762778
0.00763699
0.00764572
0.00765394
0.00766164
0.00766878
0.00767537
0.00768138
0.0076868
0.00769163
0.00769584
0.00769945
0.00770246
0.00770486
0.00770667
0.00770789
0.00770854
0.00770864
0.0077082
0.00770724
0.00770579
0.00770386
0.00770147
0.00769865
0.00769543
0.00769174
0.00768738
0.00768324
0.00461487
0.00461295
0.00461082
0.00460883
0.00460689
0.00460495
0.00460303
0.00460112
0.00459924
0.00459741
0.00459564
0.00459396
0.00459238
0.00459094
0.00458966
0.00458857
0.00458771
0.00458708
0.00458672
0.00458665
0.00458688
0.00458743
0.00458832
0.00458953
0.00459107
0.00459295
0.00459517
0.00459771
0.00460055
0.0046037
0.00460713
0.00461082
0.00461476
0.00461893
0.0046233
0.00462785
0.00463257
0.00463742
0.0046424
0.00464747
0.00465263
0.00465786
0.00466311
0.0046684
0.0046737
0.004679
0.00468428
0.00468953
0.00469474
0.0046999
0.004705
0.00471005
0.00471503
0.00471995
0.0047248
0.00472961
0.00473435
0.00473906
0.00474374
0.00474842
0.0047531
0.00475782
0.00476259
0.00476747
0.00477246
0.00477762
0.00478297
0.00478857
0.00479446
0.00480068
0.00480729
0.00481434
0.00482187
0.00482995
0.00483862
0.00484795
0.00485798
0.00486877
0.00488038
0.00489284
0.00490623
0.00492057
0.00493592
0.00495231
0.0049698
0.00498841
0.00500817
0.00502912
0.00505129