/*--------------------------------*- C++ -*----------------------------------*\
  =========                 |
  \\      /  F ield         | OpenFOAM: The Open Source CFD Toolbox
   \\    /   O peration     | Website:  https://openfoam.org
    \\  /    A nd           | Version:  6
     \\/     M anipulation  |
\*---------------------------------------------------------------------------*/
FoamFile
{
    version     2.0;
    format      ascii;
    class       volScalarField;
    location    "0";
    object      P_rec;
}
// * * * * * * * * * * * * * * * * * * * * * * * * * * * * * * * * * * * * * //

dimensions      [0 2 -2 0 0 0 0];

internalField   nonuniform List<scalar> 
13046
(
0.525156
0.520051
0.582617
0.526568
0.570315
0.540091
0.513684
0.541186
0.57762
0.353995
0.418986
0.591756
0.50675
0.515325
0.583414
0.39318
0.59769
0.412678
0.560537
0.559625
0.525576
0.386842
0.597099
0.415756
0.53138
0.537943
0.571113
0.501141
0.508449
0.588931
0.529227
0.511445
0.58001
0.540576
0.56845
0.53634
0.53947
0.567261
0.542902
0.544073
0.580774
0.490148
0.542839
0.558431
0.550932
0.538047
0.554759
0.556527
0.516112
0.522456
0.583233
0.57407
0.555466
0.457297
0.576698
0.445682
0.561852
0.430328
0.473527
0.599923
0.459159
0.526628
0.584773
0.592051
0.461319
0.410198
0.485405
0.429693
0.59793
0.494144
0.43497
0.596345
0.421568
0.46507
0.600129
0.559203
0.567602
0.51636
0.602053
0.444172
0.421626
0.524703
0.53862
0.572406
0.59208
0.452143
0.39739
0.393908
0.58749
0.48966
0.579614
0.367257
0.508476
0.465367
0.453598
0.491634
0.488728
0.590263
0.592851
0.586754
0.394841
0.499221
0.534271
0.559948
0.553457
0.570445
0.462043
0.568107
0.552514
0.579446
0.470902
0.299385
0.589405
0.380841
0.512578
0.522613
0.57925
0.456484
0.4656
0.469137
0.594251
0.480697
0.592534
0.343293
0.406678
0.592601
0.48757
0.493912
0.59209
0.537774
0.582223
0.491815
0.577477
0.377213
0.519446
0.432349
0.487964
0.590764
0.523341
0.507685
0.581026
0.48573
0.550032
0.576443
0.55507
0.575525
0.467939
0.569161
0.473438
0.569568
0.455907
0.517097
0.585663
0.574844
0.494309
0.557521
0.562945
0.438216
0.555964
0.433945
0.57075
0.574446
0.482358
0.550834
0.572059
0.349662
0.589945
0.429884
0.317879
0.590431
0.388993
0.427932
0.477653
0.592971
0.533691
0.468591
0.588126
0.48568
0.568718
0.55632
0.59019
0.449903
0.355519
0.537259
0.476635
0.583604
0.573122
0.48572
0.558842
0.493682
0.55072
0.573292
0.514447
0.587726
0.492376
0.503851
0.587835
0.388667
0.589007
0.468951
0.582244
0.39254
0.513656
0.370809
0.496847
0.580845
0.579145
0.43707
0.549614
0.499755
0.448548
0.603281
0.416381
0.482707
0.365197
0.584424
0.531977
0.567174
0.547666
0.508966
0.507175
0.588272
0.580895
0.386941
0.520405
0.493321
0.520879
0.587751
0.588982
0.414012
0.321088
0.553821
0.434363
0.575403
0.383569
0.50329
0.582553
0.455007
0.552687
0.575586
0.48698
0.489147
0.59352
0.543435
0.396984
0.572397
0.422954
0.554344
0.572338
0.586862
0.417719
0.309303
0.549821
0.584128
0.466621
0.31271
0.591474
0.3538
0.561622
0.526745
0.555758
0.460792
0.463572
0.545642
0.551205
0.577973
0.5764
0.599287
0.432336
0.417543
0.497742
0.4922
0.589928
0.417704
0.54424
0.576596
0.442746
0.478002
0.592561
0.548128
0.54376
0.560177
0.44378
0.550204
0.576061
0.498536
0.482085
0.591844
0.494711
0.488487
0.550165
0.583127
0.458316
0.439885
0.542063
0.578162
0.430022
0.592676
0.476255
0.558238
0.574585
0.477363
0.568949
0.430426
0.563055
0.472712
0.463976
0.593503
0.55252
0.577509
0.455531
0.462955
0.455847
0.458235
0.594731
0.458598
0.59671
0.590341
0.452615
0.365782
0.474511
0.482026
0.59359
0.344619
0.588295
0.268546
0.511332
0.563324
0.556413
0.469453
0.528667
0.583797
0.590459
0.402123
0.475219
0.576901
0.435819
0.561076
0.533544
0.39392
0.575712
0.53162
0.582522
0.466731
0.514644
0.587838
0.532392
0.581052
0.406772
0.596809
0.421558
0.584392
0.429306
0.547652
0.45787
0.511957
0.587804
0.479543
0.548106
0.578388
0.464135
0.568171
0.564594
0.523113
0.52895
0.577926
0.562197
0.434409
0.568453
0.380269
0.479477
0.586008
0.532317
0.395311
0.578458
0.506673
0.593689
0.440657
0.451199
0.460451
0.445147
0.438205
0.596204
0.596127
0.588872
0.350287
0.282397
0.323856
0.593014
0.359623
0.454197
0.543464
0.576485
0.589332
0.382958
0.457844
0.48864
0.480959
0.450892
0.450626
0.596874
0.596518
0.57963
0.475498
0.33765
0.304522
0.592707
0.337141
0.530174
0.55434
0.56258
0.298453
0.36257
0.590171
0.524093
0.473841
0.587859
0.358878
0.458241
0.589032
0.36067
0.584958
0.234425
0.54832
0.577224
0.496401
0.516845
0.558813
0.565874
0.348362
0.594362
0.398437
0.509508
0.558126
0.566924
0.535493
0.55444
0.560409
0.559619
0.422999
0.576935
0.508754
0.570011
0.558621
0.513787
0.559718
0.559572
0.515462
0.441436
0.59234
0.596267
0.595394
0.42339
0.426877
0.37478
0.370118
0.366626
0.476982
0.585438
0.598197
0.502553
0.430453
0.542131
0.581712
0.476734
0.417861
0.556922
0.567069
0.404447
0.581976
0.259521
0.581317
0.36346
0.498755
0.32576
0.590741
0.401946
0.584478
0.346668
0.229207
0.323223
0.586067
0.248591
0.529886
0.434552
0.581081
0.45181
0.5793
0.304543
0.422301
0.49137
0.590035
0.378708
0.598012
0.384489
0.508039
0.579706
0.53375
0.483811
0.580573
0.347793
0.421796
0.564717
0.560892
0.537834
0.418049
0.579659
0.583769
0.285812
0.189185
0.362174
0.58745
0.257177
0.516459
0.578114
0.53447
0.466361
0.336588
0.582254
0.580289
0.323923
0.471635
0.385403
0.591077
0.452036
0.598375
0.429102
0.423994
0.523453
0.433005
0.594731
0.440433
0.471821
0.599571
0.600368
0.413703
0.404551
0.513813
0.507445
0.485776
0.48025
0.588913
0.590777
0.52139
0.483223
0.587886
0.495862
0.442077
0.598998
0.534546
0.405928
0.578094
0.474816
0.364657
0.587566
0.580727
0.404857
0.520592
0.324707
0.586931
0.263143
0.54184
0.536873
0.580576
0.501971
0.581085
0.50922
0.510497
0.514028
0.592605
0.453193
0.594266
0.460485
0.374044
0.581999
0.237128
0.468274
0.346285
0.583634
0.540194
0.582216
0.458656
0.548547
0.40532
0.571959
0.598618
0.430316
0.43255
0.390874
0.287444
0.586939
0.405768
0.294365
0.586166
0.48134
0.459388
0.597114
0.561519
0.569588
0.483924
0.376374
0.591546
0.440586
0.528442
0.423488
0.584046
0.594885
0.461978
0.422801
0.521049
0.593186
0.457487
0.459451
0.558845
0.570461
0.547473
0.580408
0.481876
0.590757
0.442064
0.364212
0.444338
0.46785
0.594569
0.547881
0.576662
0.502268
0.400942
0.60038
0.394676
0.52051
0.500347
0.586386
0.499601
0.55044
0.574304
0.539992
0.427107
0.57834
0.345278
0.596199
0.367802
0.355915
0.597511
0.36828
0.596082
0.453231
0.423751
0.450039
0.56602
0.567376
0.5958
0.353616
0.329832
0.589308
0.484958
0.411056
0.582695
0.338573
0.213954
0.237338
0.304145
0.587602
0.599726
0.415183
0.415352
0.589139
0.428922
0.337204
0.390418
0.399852
0.593543
0.428855
0.593893
0.440276
0.406074
0.49363
0.587987
0.57281
0.55562
0.404346
0.538793
0.574417
0.520949
0.41148
0.508956
0.585742
0.584419
0.415095
0.516833
0.424261
0.600698
0.404641
0.506956
0.444582
0.596128
0.517064
0.469268
0.588121
0.438683
0.517452
0.588137
0.432429
0.518345
0.586619
0.550624
0.570283
0.511543
0.506515
0.470863
0.594192
0.579222
0.49197
0.346165
0.286246
0.583812
0.416133
0.273304
0.581974
0.418642
0.534193
0.585511
0.484519
0.383997
0.585036
0.268743
0.435335
0.595701
0.455841
0.583988
0.390436
0.254974
0.528317
0.567494
0.546358
0.485991
0.512727
0.587171
0.568298
0.453956
0.564434
0.579816
0.457869
0.317612
0.530505
0.424224
0.581799
0.598327
0.390726
0.396395
0.473225
0.508329
0.591475
0.541147
0.573333
0.524957
0.45116
0.327189
0.584199
0.592991
0.470654
0.411436
0.339163
0.327714
0.592467
0.59198
0.386083
0.378181
0.470888
0.541877
0.580926
0.534442
0.442385
0.578611
0.50618
0.543642
0.578138
0.431107
0.300164
0.437332
0.584007
0.298288
0.58179
0.4532
0.496694
0.592616
0.326025
0.312655
0.441076
0.432631
0.585673
0.584326
0.44402
0.539576
0.583371
0.485336
0.528375
0.583859
0.368325
0.598296
0.383388
0.476457
0.532998
0.582092
0.501314
0.540059
0.576847
0.345437
0.595153
0.380314
0.474927
0.498086
0.588498
0.568556
0.415002
0.563562
0.523559
0.448418
0.59222
0.528611
0.574826
0.379473
0.584683
0.301684
0.205143
0.472457
0.524092
0.585216
0.376058
0.594877
0.405944
0.589918
0.430436
0.535951
0.269585
0.59099
0.322866
0.565363
0.562079
0.564627
0.489288
0.569083
0.483597
0.507939
0.549068
0.572766
0.553864
0.560597
0.572529
0.495044
0.57226
0.492213
0.479774
0.531775
0.584815
0.484847
0.536525
0.583512
0.58067
0.42987
0.280007
0.52763
0.489441
0.584007
0.338752
0.440293
0.588311
0.435763
0.426556
0.508157
0.501477
0.587291
0.586963
0.526044
0.4997
0.584468
0.495153
0.460508
0.593985
0.454048
0.511092
0.590174
0.546313
0.532582
0.565377
0.421668
0.509513
0.586565
0.540311
0.573316
0.518432
0.451797
0.532303
0.584736
0.493533
0.470622
0.593272
0.544806
0.548464
0.525233
0.571809
0.521532
0.57093
0.554069
0.566279
0.561267
0.511497
0.572783
0.498502
0.514287
0.50726
0.493611
0.498048
0.588306
0.587135
0.596704
0.437874
0.426004
0.560529
0.425607
0.571204
0.598049
0.596671
0.432855
0.441993
0.414498
0.411517
0.549702
0.582932
0.445186
0.546971
0.560733
0.543085
0.419396
0.500574
0.587843
0.537968
0.5808
0.496866
0.487573
0.470567
0.593899
0.445683
0.44647
0.439419
0.598815
0.448809
0.596858
0.441858
0.497018
0.589625
0.282845
0.337773
0.591251
0.586204
0.435617
0.54036
0.529551
0.532708
0.590811
0.437382
0.592268
0.442235
0.411439
0.527086
0.580738
0.501828
0.461816
0.594329
0.544603
0.583221
0.447541
0.53204
0.531621
0.586559
0.591268
0.459506
0.459881
0.52896
0.591927
0.448701
0.443666
0.504401
0.589762
0.546416
0.571404
0.517995
0.358608
0.593425
0.40278
0.541436
0.586294
0.441571
0.4887
0.47873
0.477255
0.473132
0.591256
0.5955
0.594283
0.410681
0.369389
0.368644
0.597059
0.392713
0.35744
0.594773
0.391542
0.436079
0.596972
0.447443
0.507333
0.469641
0.592837
0.523847
0.59385
0.613751
0.526756
0.617108
0.421791
0.610037
0.53082
0.55813
0.613877
0.612753
0.556521
0.534638
0.615811
0.603038
0.54952
0.525698
0.599914
0.596722
0.609785
0.605343
0.59424
0.612254
0.599727
0.616968
0.594656
0.620025
0.561992
0.608352
0.526591
0.566906
0.608219
0.606487
0.603523
0.576317
0.611797
0.615298
0.613317
0.537268
0.562237
0.593299
0.587732
0.580189
0.614136
0.591314
0.601605
0.603944
0.594433
0.55691
0.583959
0.613366
0.603801
0.551408
0.607746
0.564731
0.612131
0.611862
0.60711
0.597499
0.61376
0.583928
0.581631
0.616437
0.536358
0.6101
0.611777
0.607542
0.604335
0.613147
0.589455
0.569461
0.575887
0.574834
0.611158
0.572116
0.601974
0.58188
0.57507
0.609092
0.612585
0.596598
0.608296
0.554814
0.556055
0.604111
0.611637
0.603509
0.526575
0.604855
0.612295
0.556219
0.614866
0.617406
0.602981
0.540321
0.38681
0.574709
0.596447
0.540014
0.56763
0.611235
0.612905
0.592875
0.600821
0.551614
0.516837
0.557044
0.560286
0.576246
0.6151
0.612897
0.607876
0.562331
0.579328
0.564264
0.592691
0.605813
0.528366
0.563551
0.597353
0.604803
0.604898
0.596467
0.611317
0.60062
0.573707
0.56091
0.612038
0.498201
0.610654
0.568987
0.609749
0.555802
0.45829
0.516663
0.612251
0.600614
0.554386
0.572324
0.608309
0.544655
0.611588
0.576864
0.567297
0.599071
0.607221
0.552758
0.613422
0.57305
0.605615
0.55612
0.595298
0.538425
0.617155
0.613755
0.602843
0.612277
0.611287
0.613401
0.583155
0.571921
0.565665
0.599257
0.497641
0.552307
0.558343
0.597758
0.599689
0.60716
0.611499
0.606297
0.612038
0.617748
0.61367
0.552034
0.565943
0.559404
0.61284
0.558773
0.552396
0.487749
0.552891
0.600699
0.602545
0.607579
0.612616
0.613062
0.592778
0.615629
0.600503
0.590599
0.451719
0.595388
0.576404
0.568301
0.607835
0.606472
0.574081
0.594845
0.598789
0.608345
0.518385
0.574246
0.610822
0.615555
0.581866
0.556158
0.598364
0.601313
0.593441
0.589785
0.526829
0.483496
0.569809
0.575778
0.561545
0.564459
0.525529
0.612567
0.604117
0.566092
0.606225
0.554572
0.552554
0.611097
0.61086
0.549371
0.554269
0.512681
0.610009
0.567882
0.597922
0.608034
0.608611
0.559967
0.608248
0.591115
0.559037
0.559383
0.612805
0.606713
0.600182
0.615983
0.588455
0.544925
0.557176
0.603685
0.605772
0.550388
0.567268
0.607592
0.609137
0.614346
0.607352
0.552973
0.601553
0.574386
0.607324
0.593121
0.572602
0.603166
0.594138
0.477599
0.556441
0.57216
0.552778
0.581143
0.610004
0.599722
0.606717
0.61166
0.540187
0.601302
0.58844
0.605281
0.598392
0.60016
0.608419
0.559535
0.549293
0.597137
0.556366
0.554444
0.606216
0.465458
0.555469
0.614392
0.608449
0.566984
0.559694
0.567333
0.606686
0.523777
0.475311
0.545201
0.598907
0.605793
0.603552
0.42089
0.546843
0.615194
0.592854
0.519911
0.548452
0.558767
0.565371
0.554376
0.606209
0.611985
0.566297
0.560096
0.581944
0.58296
0.591054
0.50868
0.611738
0.601414
0.464087
0.563929
0.555506
0.565896
0.61048
0.603822
0.608663
0.58065
0.545972
0.595417
0.604591
0.602051
0.583992
0.614606
0.611629
0.58785
0.609747
0.603664
0.579691
0.560241
0.59474
0.53178
0.593896
0.595454
0.56732
0.547428
0.543193
0.545232
0.527595
0.614873
0.552507
0.572519
0.604056
0.603075
0.558492
0.546335
0.616473
0.592226
0.460004
0.592152
0.566464
0.558804
0.615182
0.58999
0.578643
0.600495
0.56885
0.601379
0.565936
0.608818
0.595786
0.58471
0.394326
0.549934
0.567969
0.593924
0.601589
0.602504
0.601943
0.613965
0.541523
0.5673
0.538044
0.499777
0.560059
0.614137
0.580643
0.594629
0.574266
0.598674
0.555791
0.525904
0.544652
0.563738
0.558654
0.617683
0.585595
0.588258
0.606439
0.612317
0.598548
0.616454
0.525672
0.577258
0.558712
0.599141
0.601551
0.608516
0.593022
0.599378
0.568283
0.591202
0.556034
0.505124
0.606255
0.584308
0.502059
0.547863
0.564635
0.547861
0.568122
0.596648
0.605071
0.549929
0.573108
0.560154
0.564974
0.560823
0.577982
0.521634
0.565973
0.613515
0.612185
0.612164
0.603964
0.603633
0.455609
0.61108
0.606099
0.549126
0.615083
0.441935
0.608704
0.575601
0.603669
0.58499
0.610332
0.590907
0.541388
0.605293
0.539087
0.616446
0.605677
0.561823
0.577005
0.526363
0.584816
0.617178
0.574809
0.602299
0.609867
0.55863
0.514599
0.612017
0.451213
0.6044
0.603961
0.556609
0.61458
0.493641
0.48929
0.611182
0.596562
0.609051
0.604501
0.600047
0.602904
0.613074
0.612262
0.609717
0.611284
0.556347
0.582019
0.598276
0.614671
0.581198
0.436806
0.605909
0.570935
0.601042
0.580138
0.614378
0.594118
0.582798
0.613112
0.592916
0.614969
0.546636
0.613443
0.597686
0.609887
0.60214
0.61306
0.578785
0.59872
0.549885
0.533468
0.598953
0.579292
0.597185
0.52268
0.448888
0.557933
0.583288
0.601344
0.586975
0.617914
0.582329
0.552447
0.591882
0.557391
0.61273
0.530719
0.597333
0.599367
0.615476
0.589103
0.605363
0.542339
0.603831
0.614333
0.562153
0.524579
0.602521
0.58304
0.610744
0.614343
0.582027
0.557012
0.595688
0.56438
0.55117
0.61207
0.606547
0.602446
0.525956
0.604935
0.595762
0.613439
0.564498
0.610162
0.602801
0.601882
0.604752
0.534415
0.561075
0.577638
0.430577
0.609056
0.604098
0.602021
0.613457
0.612132
0.592944
0.59857
0.594633
0.612125
0.611599
0.600772
0.599379
0.585242
0.610555
0.603894
0.57493
0.579499
0.584579
0.582735
0.606297
0.569559
0.606937
0.612113
0.56036
0.613059
0.562864
0.551086
0.566687
0.608904
0.594189
0.600725
0.606045
0.610991
0.60266
0.607472
0.606221
0.571534
0.562774
0.546879
0.552681
0.553136
0.375401
0.558232
0.561351
0.606666
0.559005
0.580434
0.604843
0.595606
0.555379
0.570055
0.580805
0.388887
0.612088
0.577682
0.606806
0.558769
0.573809
0.600136
0.533477
0.603183
0.559637
0.607377
0.582852
0.613071
0.521911
0.481278
0.577947
0.582833
0.587883
0.607468
0.483772
0.605584
0.586938
0.554623
0.535494
0.572762
0.579594
0.609975
0.527242
0.610351
0.612814
0.606997
0.55288
0.613163
0.55847
0.376747
0.602873
0.562444
0.554162
0.613996
0.612258
0.604928
0.607392
0.586765
0.607862
0.613695
0.602565
0.585094
0.606479
0.615978
0.611713
0.604688
0.602624
0.605082
0.562266
0.559856
0.612616
0.614541
0.613705
0.597074
0.587144
0.566662
0.612175
0.610205
0.348284
0.585994
0.601589
0.550834
0.603836
0.581511
0.603917
0.598247
0.602937
0.568031
0.609286
0.614697
0.593225
0.614348
0.616043
0.483561
0.551203
0.589066
0.557163
0.483623
0.563385
0.601768
0.612976
0.567258
0.592545
0.532653
0.561283
0.597897
0.603118
0.564961
0.560189
0.545442
0.596751
0.571277
0.568572
0.591793
0.606804
0.60986
0.551923
0.61025
0.574606
0.562064
0.601072
0.612197
0.595687
0.591147
0.554981
0.610856
0.562174
0.616009
0.609151
0.612143
0.613626
0.555367
0.554433
0.604397
0.555302
0.559495
0.571342
0.565114
0.552798
0.593973
0.605716
0.558037
0.614317
0.574381
0.59483
0.601954
0.610799
0.603537
0.611479
0.59717
0.560807
0.614269
0.526706
0.605038
0.555893
0.607953
0.612041
0.61381
0.60623
0.61622
0.604744
0.548082
0.563912
0.601285
0.573838
0.61334
0.548236
0.528455
0.592453
0.591586
0.570749
0.560337
0.58781
0.61079
0.608351
0.451352
0.573257
0.515308
0.535338
0.60005
0.591759
0.602446
0.595434
0.61447
0.553288
0.60617
0.605198
0.520019
0.610634
0.578237
0.603998
0.601688
0.596654
0.550889
0.568298
0.603525
0.607878
0.575043
0.596919
0.604291
0.610922
0.59594
0.595338
0.576552
0.598677
0.556233
0.551804
0.5023
0.603962
0.55827
0.570141
0.556762
0.569812
0.614044
0.591413
0.604512
0.612936
0.604114
0.512646
0.595991
0.537491
0.584213
0.608852
0.573477
0.560781
0.584396
0.602074
0.541992
0.573256
0.506001
0.560231
0.605964
0.509981
0.568076
0.614009
0.5558
0.550244
0.600938
0.607565
0.588115
0.543613
0.605066
0.567558
0.571563
0.604314
0.583758
0.604578
0.607284
0.617376
0.575688
0.612132
0.608689
0.609813
0.608495
0.606365
0.516326
0.569055
0.59396
0.551792
0.606737
0.614807
0.612015
0.605822
0.553115
0.557406
0.595837
0.616044
0.540906
0.611791
0.606679
0.61268
0.550141
0.543184
0.554288
0.521262
0.604763
0.540059
0.609327
0.570567
0.610895
0.552545
0.603482
0.558357
0.601317
0.609902
0.605672
0.591564
0.609701
0.612653
0.614744
0.606281
0.585392
0.611906
0.608896
0.571674
0.580888
0.603672
0.568218
0.616308
0.590407
0.60826
0.611326
0.614196
0.570273
0.503075
0.608545
0.582675
0.588585
0.598522
0.607435
0.611842
0.610547
0.581702
0.605973
0.554444
0.57557
0.602243
0.612472
0.601304
0.604726
0.595439
0.615834
0.597646
0.562927
0.613581
0.605325
0.550755
0.574783
0.611589
0.592384
0.557003
0.573302
0.611834
0.588941
0.603301
0.612591
0.617124
0.612454
0.6074
0.558748
0.610754
0.577701
0.590605
0.614484
0.604237
0.55298
0.542131
0.59052
0.609366
0.566438
0.549344
0.608573
0.593105
0.594691
0.610619
0.554741
0.555005
0.584345
0.611437
0.615521
0.604101
0.60229
0.514198
0.605283
0.578451
0.593047
0.61286
0.618125
0.549032
0.553743
0.587628
0.604772
0.613362
0.61343
0.607131
0.577826
0.581234
0.553666
0.557256
0.603137
0.607647
0.479891
0.560023
0.603762
0.601003
0.549587
0.558162
0.606088
0.579561
0.591703
0.609163
0.598513
0.611482
0.613374
0.600398
0.609257
0.586729
0.578745
0.590171
0.608566
0.58228
0.607344
0.483845
0.602471
0.467639
0.592044
0.612616
0.609054
0.613099
0.614694
0.612599
0.574266
0.589804
0.602565
0.525429
0.611376
0.600167
0.569359
0.60918
0.427011
0.56026
0.588473
0.610728
0.614673
0.556263
0.556602
0.603245
0.605835
0.489586
0.571906
0.586282
0.496633
0.542291
0.587788
0.543665
0.602588
0.557712
0.590948
0.605689
0.428998
0.58287
0.601725
0.574361
0.553754
0.600145
0.576303
0.58615
0.560695
0.598676
0.589623
0.567485
0.600866
0.615112
0.573908
0.551614
0.582721
0.555661
0.563501
0.600106
0.515026
0.575571
0.574609
0.599455
0.605099
0.595307
0.599135
0.477523
0.595673
0.601484
0.580255
0.602263
0.591374
0.598537
0.494718
0.481688
0.60403
0.555804
0.599292
0.611965
0.576489
0.598491
0.477395
0.606561
0.585489
0.614499
0.58684
0.580771
0.600201
0.560605
0.578254
0.583442
0.617572
0.556085
0.550759
0.59614
0.613666
0.601219
0.510714
0.586347
0.583918
0.584817
0.580988
0.614401
0.612243
0.612863
0.613389
0.608271
0.563226
0.544702
0.611131
0.571012
0.589737
0.513297
0.547055
0.562493
0.55101
0.602442
0.490114
0.607118
0.573118
0.605439
0.598436
0.600856
0.613749
0.575164
0.607299
0.612072
0.603264
0.60268
0.61195
0.573977
0.606227
0.554304
0.57338
0.614864
0.491391
0.60523
0.61061
0.600967
0.594989
0.593662
0.598725
0.603928
0.602597
0.558335
0.558616
0.607841
0.589149
0.512003
0.611724
0.55128
0.605745
0.554559
0.591677
0.607203
0.612348
0.611733
0.558884
0.604734
0.602455
0.599799
0.614239
0.523821
0.544475
0.611748
0.554219
0.575485
0.615493
0.610516
0.601925
0.548123
0.565648
0.567707
0.563978
0.527455
0.601906
0.575944
0.597406
0.567983
0.60252
0.58871
0.571678
0.527239
0.596774
0.594862
0.56494
0.613219
0.613676
0.537554
0.607014
0.480471
0.573564
0.505638
0.569835
0.606022
0.600275
0.603205
0.593872
0.602511
0.609473
0.607241
0.605405
0.529945
0.592338
0.578723
0.602568
0.550769
0.612906
0.587521
0.560242
0.606716
0.612355
0.553301
0.604456
0.555262
0.608428
0.607332
0.608564
0.515801
0.598671
0.597594
0.607646
0.600844
0.565513
0.554974
0.566674
0.613054
0.614285
0.611713
0.587002
0.60134
0.606975
0.585579
0.605369
0.567842
0.572547
0.603648
0.613264
0.560995
0.615953
0.606277
0.617447
0.603416
0.610791
0.603251
0.580028
0.613657
0.463165
0.605352
0.500865
0.609325
0.614643
0.605427
0.587692
0.574649
0.604626
0.500351
0.528118
0.569836
0.537857
0.608858
0.557035
0.556964
0.523642
0.551643
0.603784
0.611862
0.608774
0.556349
0.580861
0.605053
0.606998
0.583401
0.579556
0.61097
0.613569
0.604504
0.611145
0.612282
0.60799
0.555778
0.59409
0.537422
0.609207
0.606923
0.613868
0.597683
0.601044
0.58841
0.552777
0.586416
0.55463
0.564895
0.560557
0.611266
0.594489
0.599409
0.60697
0.612648
0.604738
0.603435
0.570497
0.596158
0.602184
0.611468
0.582083
0.553546
0.605479
0.606918
0.608982
0.614654
0.613305
0.548808
0.545316
0.550104
0.603299
0.614134
0.511565
0.568603
0.614915
0.561985
0.588344
0.555834
0.598645
0.609472
0.599457
0.606578
0.56028
0.603517
0.605122
0.611346
0.589055
0.569856
0.608707
0.606566
0.593711
0.612996
0.617235
0.511128
0.613912
0.561811
0.579593
0.617309
0.616455
0.599308
0.610612
0.561811
0.612918
0.573878
0.555492
0.610813
0.5834
0.612111
0.593683
0.609481
0.598409
0.610584
0.568987
0.611865
0.551171
0.613553
0.593571
0.601979
0.581542
0.549614
0.554822
0.6106
0.571139
0.585281
0.546439
0.579503
0.613748
0.613424
0.606287
0.607554
0.602588
0.568824
0.585986
0.606385
0.552525
0.573238
0.606502
0.59471
0.589514
0.566311
0.509327
0.553949
0.612173
0.582842
0.61347
0.5567
0.612283
0.605707
0.616679
0.605954
0.585846
0.611522
0.557307
0.608108
0.567077
0.601619
0.54173
0.587439
0.569698
0.552316
0.5868
0.559716
0.552722
0.561044
0.611069
0.61164
0.592721
0.547395
0.612945
0.557041
0.515888
0.598683
0.612123
0.605737
0.560018
0.561225
0.615249
0.54334
0.605427
0.545827
0.565235
0.585957
0.538807
0.61608
0.597093
0.571639
0.611492
0.616583
0.567683
0.60955
0.598435
0.610325
0.600921
0.577299
0.559062
0.610837
0.614847
0.611008
0.526186
0.558829
0.575051
0.598256
0.603002
0.601225
0.542624
0.601388
0.561089
0.608025
0.610357
0.604275
0.580342
0.605621
0.510704
0.599761
0.541981
0.592842
0.530328
0.554928
0.604511
0.612488
0.567058
0.572915
0.607824
0.580981
0.504409
0.550685
0.565456
0.588447
0.456744
0.596911
0.591724
0.60887
0.593411
0.608037
0.608369
0.489454
0.48668
0.615661
0.597555
0.50679
0.577642
0.599709
0.614488
0.606835
0.536372
0.597653
0.542142
0.603575
0.613335
0.607383
0.590423
0.613055
0.562272
0.603638
0.616496
0.5577
0.570289
0.612694
0.612571
0.561778
0.558591
0.528477
0.490131
0.531379
0.602965
0.57192
0.555616
0.522851
0.549269
0.610235
0.537364
0.565959
0.548916
0.61227
0.578487
0.603724
0.57058
0.590821
0.589805
0.599148
0.602493
0.611864
0.550091
0.602354
0.580209
0.591467
0.605361
0.576761
0.614341
0.608688
0.57159
0.605104
0.555637
0.57592
0.596414
0.60867
0.560346
0.594469
0.589515
0.597468
0.603624
0.61415
0.534309
0.562285
0.548571
0.549535
0.616383
0.571634
0.606579
0.612821
0.58943
0.49312
0.551272
0.591909
0.54553
0.601825
0.554299
0.572066
0.571906
0.612423
0.608824
0.595316
0.54268
0.581156
0.557247
0.591587
0.613026
0.605551
0.576867
0.598044
0.582154
0.604998
0.612363
0.612016
0.600346
0.614652
0.60363
0.584896
0.567611
0.556016
0.5548
0.602137
0.601037
0.563939
0.606027
0.570582
0.616447
0.612527
0.557142
0.539029
0.575407
0.59595
0.612058
0.600938
0.612037
0.600414
0.611204
0.610479
0.596193
0.568552
0.600541
0.597079
0.5601
0.578456
0.613373
0.502079
0.423651
0.605867
0.590591
0.613894
0.589903
0.558804
0.548915
0.57713
0.540778
0.584881
0.605674
0.562218
0.613007
0.592356
0.550015
0.573503
0.569401
0.536247
0.611755
0.599273
0.604855
0.545609
0.590647
0.596839
0.548624
0.575744
0.577957
0.573219
0.551611
0.492793
0.616792
0.603464
0.613397
0.610056
0.614523
0.565551
0.599678
0.591741
0.585931
0.527201
0.608668
0.596611
0.584062
0.612944
0.609498
0.612255
0.607651
0.60897
0.601542
0.558997
0.60111
0.60473
0.611519
0.588248
0.562047
0.607868
0.569243
0.57151
0.610638
0.579439
0.613724
0.566796
0.612075
0.60103
0.60451
0.568037
0.60786
0.556607
0.569893
0.578965
0.561855
0.570153
0.569964
0.569384
0.601741
0.545018
0.548955
0.595569
0.606582
0.596816
0.576652
0.60855
0.607449
0.575769
0.608291
0.602606
0.606199
0.548117
0.575153
0.591747
0.555783
0.596207
0.518949
0.603993
0.521382
0.613732
0.59668
0.603884
0.56463
0.555561
0.575175
0.604088
0.573678
0.605678
0.608551
0.603201
0.607339
0.606128
0.596374
0.56547
0.6156
0.596084
0.601708
0.59925
0.562539
0.563531
0.561863
0.613696
0.604218
0.595493
0.593095
0.570149
0.590501
0.540043
0.590231
0.55103
0.612427
0.570216
0.589447
0.603366
0.603993
0.551634
0.590102
0.593051
0.600534
0.601887
0.597088
0.599248
0.576828
0.605005
0.60805
0.599965
0.555414
0.602236
0.556303
0.597012
0.533589
0.560533
0.599632
0.50541
0.55207
0.606513
0.61175
0.552512
0.598948
0.561921
0.526486
0.558755
0.552135
0.561495
0.562049
0.563104
0.612403
0.607168
0.58944
0.613663
0.590358
0.604182
0.601903
0.608522
0.609626
0.571761
0.605964
0.616165
0.603785
0.600583
0.533593
0.612472
0.587805
0.427717
0.607045
0.603969
0.611948
0.61092
0.608221
0.604957
0.576947
0.600436
0.593513
0.595472
0.439754
0.578701
0.529657
0.597327
0.604293
0.544063
0.553981
0.571532
0.56301
0.551725
0.600127
0.594695
0.59937
0.612645
0.562686
0.61675
0.551259
0.592509
0.613329
0.596847
0.597519
0.597688
0.445335
0.564386
0.605131
0.613309
0.563607
0.574951
0.603779
0.612193
0.553255
0.612661
0.56868
0.605451
0.603559
0.588541
0.602114
0.613598
0.60901
0.536005
0.606597
0.605335
0.611055
0.547663
0.596567
0.58231
0.551418
0.565399
0.573993
0.604011
0.605062
0.606225
0.590633
0.532291
0.600068
0.563622
0.562845
0.597454
0.592554
0.549594
0.608609
0.565365
0.570171
0.564036
0.605376
0.550828
0.51608
0.606326
0.584654
0.605921
0.565817
0.53325
0.603075
0.492364
0.60111
0.592997
0.561185
0.552781
0.61894
0.56075
0.552427
0.554093
0.534068
0.576983
0.606736
0.610114
0.552966
0.574302
0.612936
0.595262
0.568191
0.56334
0.587646
0.614356
0.602256
0.562883
0.552517
0.608357
0.617308
0.60224
0.600231
0.601179
0.537033
0.603489
0.610935
0.603242
0.54228
0.611757
0.602413
0.551195
0.608164
0.556451
0.614362
0.597481
0.54986
0.60212
0.597108
0.59967
0.558481
0.608126
0.577012
0.606597
0.608415
0.612683
0.559607
0.571995
0.611808
0.603265
0.580983
0.607779
0.602185
0.563255
0.604765
0.605366
0.561712
0.476122
0.550813
0.58358
0.568063
0.560042
0.557554
0.580891
0.605651
0.548097
0.556936
0.598382
0.551808
0.613601
0.562106
0.606383
0.601652
0.553716
0.604193
0.584342
0.610009
0.604697
0.611309
0.565908
0.561854
0.61426
0.539752
0.612567
0.608909
0.599295
0.572478
0.612966
0.596397
0.558296
0.614869
0.536704
0.603445
0.614095
0.543018
0.615227
0.558762
0.601641
0.46331
0.60222
0.554085
0.60545
0.577851
0.554342
0.581536
0.550821
0.56548
0.612393
0.552251
0.594758
0.605064
0.596697
0.60152
0.603376
0.60107
0.533708
0.615718
0.598069
0.610055
0.569504
0.600811
0.609092
0.587072
0.613063
0.604236
0.607077
0.563553
0.595869
0.518699
0.550327
0.613249
0.389874
0.600071
0.609353
0.57272
0.561898
0.583991
0.600078
0.593481
0.611253
0.601703
0.604254
0.606369
0.615473
0.61414
0.551415
0.602949
0.601659
0.604172
0.606983
0.586576
0.564589
0.558819
0.580165
0.606952
0.58722
0.614356
0.554584
0.570556
0.598184
0.579897
0.601988
0.599101
0.562695
0.575171
0.574367
0.585644
0.560992
0.610515
0.539275
0.587165
0.599227
0.585932
0.547977
0.542618
0.608688
0.536399
0.55132
0.612137
0.60351
0.56276
0.551689
0.554504
0.572516
0.612813
0.608112
0.564443
0.601623
0.602603
0.617246
0.602191
0.569301
0.61109
0.579453
0.59999
0.608937
0.611665
0.603331
0.611855
0.605868
0.542848
0.528126
0.594146
0.573
0.584631
0.474839
0.488427
0.611174
0.612682
0.560205
0.611747
0.603169
0.611124
0.599757
0.557378
0.615577
0.613859
0.605772
0.539151
0.556909
0.600658
0.610762
0.593211
0.553029
0.583755
0.610629
0.61352
0.608122
0.577686
0.578537
0.599739
0.587747
0.581411
0.606468
0.588454
0.606486
0.474645
0.61414
0.596556
0.603867
0.611512
0.552888
0.56021
0.570457
0.554835
0.614024
0.560962
0.597736
0.478363
0.572548
0.586402
0.56337
0.554205
0.582582
0.545178
0.559925
0.597502
0.590873
0.606701
0.560018
0.604679
0.612859
0.575343
0.603371
0.603353
0.610445
0.601986
0.57387
0.600748
0.552735
0.554494
0.607157
0.610688
0.613369
0.602678
0.528967
0.601035
0.604688
0.586867
0.612015
0.60015
0.611282
0.611204
0.556402
0.557087
0.60295
0.552578
0.607409
0.604203
0.550511
0.610984
0.597203
0.607521
0.60177
0.605252
0.549456
0.584658
0.607935
0.564933
0.604454
0.605445
0.580664
0.605703
0.594863
0.597725
0.607147
0.605344
0.55072
0.612185
0.532175
0.470883
0.579347
0.601889
0.557927
0.614129
0.568109
0.530027
0.587423
0.606443
0.59953
0.435795
0.60765
0.608085
0.610288
0.584684
0.614289
0.605857
0.557027
0.601476
0.591243
0.591379
0.55444
0.606353
0.604929
0.559643
0.554597
0.603474
0.580676
0.553306
0.601625
0.612115
0.553338
0.614188
0.564464
0.524012
0.540964
0.603895
0.593813
0.558219
0.530944
0.551148
0.604032
0.601234
0.612297
0.580706
0.612163
0.543873
0.60701
0.558309
0.558577
0.555661
0.610135
0.596303
0.561558
0.566625
0.605831
0.58713
0.612431
0.613378
0.577633
0.599751
0.605155
0.584842
0.609307
0.599508
0.600446
0.586121
0.559276
0.597538
0.581393
0.620162
0.585976
0.569794
0.519778
0.56556
0.605032
0.598714
0.596601
0.59797
0.596554
0.569381
0.583357
0.541306
0.577902
0.568986
0.610684
0.551212
0.564134
0.559149
0.601495
0.600865
0.560017
0.552623
0.537807
0.614343
0.582117
0.566364
0.557146
0.56849
0.561428
0.590859