/*--------------------------------*- C++ -*----------------------------------*\
  =========                 |
  \\      /  F ield         | OpenFOAM: The Open Source CFD Toolbox
   \\    /   O peration     | Website:  https://openfoam.org
    \\  /    A nd           | Version:  6
     \\/     M anipulation  |
\*---------------------------------------------------------------------------*/
FoamFile
{
    version     2.0;
    format      ascii;
    class       volScalarField;
    location    "./ITHACAoutput/POD/1";
    object      P_rec;
}
// * * * * * * * * * * * * * * * * * * * * * * * * * * * * * * * * * * * * * //

dimensions      [0 2 -2 0 0 0 0];

internalField   nonuniform List<scalar> 
145945
(
-3.06485e-05
-3.06627e-05
-3.06565e-05
-3.06822e-05
-3.07204e-05
-3.07561e-05
-3.07808e-05
-3.07958e-05
-3.08001e-05
-3.07943e-05
-3.07781e-05
-3.0753e-05
-3.07174e-05
-3.06753e-05
-3.06318e-05
-3.06248e-05
-3.06164e-05
-3.06625e-05
-3.07262e-05
-3.07517e-05
-3.07755e-05
-3.08067e-05
-3.0838e-05
-3.08625e-05
-3.08775e-05
-3.08816e-05
-3.08748e-05
-3.08593e-05
-3.08337e-05
-3.0798e-05
-3.07599e-05
-3.07224e-05
-3.06915e-05
-3.06311e-05
-3.06564e-05
-3.07515e-05
-3.08062e-05
-3.08396e-05
-3.0872e-05
-3.09035e-05
-3.09287e-05
-3.09435e-05
-3.09478e-05
-3.09413e-05
-3.09248e-05
-3.08975e-05
-3.08612e-05
-3.08185e-05
-3.07758e-05
-3.07165e-05
-3.06224e-05
-3.06828e-05
-3.07754e-05
-3.084e-05
-3.08805e-05
-3.09165e-05
-3.09516e-05
-3.09784e-05
-3.09935e-05
-3.0999e-05
-3.09917e-05
-3.09738e-05
-3.09447e-05
-3.09049e-05
-3.08586e-05
-3.08094e-05
-3.07396e-05
-3.06461e-05
-3.07207e-05
-3.08067e-05
-3.08722e-05
-3.09166e-05
-3.0958e-05
-3.09943e-05
-3.10231e-05
-3.10408e-05
-3.10453e-05
-3.10385e-05
-3.10196e-05
-3.0987e-05
-3.09442e-05
-3.08941e-05
-3.08406e-05
-3.07674e-05
-3.06817e-05
-3.07564e-05
-3.0838e-05
-3.09038e-05
-3.09514e-05
-3.09941e-05
-3.10331e-05
-3.10644e-05
-3.10825e-05
-3.1088e-05
-3.10798e-05
-3.10604e-05
-3.10259e-05
-3.09808e-05
-3.09268e-05
-3.0871e-05
-3.07971e-05
-3.07166e-05
-3.07809e-05
-3.08623e-05
-3.09287e-05
-3.0978e-05
-3.10226e-05
-3.1064e-05
-3.10953e-05
-3.11154e-05
-3.11216e-05
-3.11132e-05
-3.10911e-05
-3.10559e-05
-3.10093e-05
-3.09531e-05
-3.08945e-05
-3.082e-05
-3.07404e-05
-3.07959e-05
-3.08773e-05
-3.09435e-05
-3.09939e-05
-3.10403e-05
-3.10821e-05
-3.11151e-05
-3.11343e-05
-3.11421e-05
-3.11335e-05
-3.11109e-05
-3.10753e-05
-3.10261e-05
-3.09693e-05
-3.09089e-05
-3.08353e-05
-3.07547e-05
-3.08e-05
-3.0881e-05
-3.09473e-05
-3.09988e-05
-3.10454e-05
-3.1088e-05
-3.11212e-05
-3.11421e-05
-3.11476e-05
-3.11389e-05
-3.11168e-05
-3.10803e-05
-3.1031e-05
-3.09738e-05
-3.09126e-05
-3.08389e-05
-3.07595e-05
-3.0794e-05
-3.08742e-05
-3.09409e-05
-3.09914e-05
-3.10384e-05
-3.10796e-05
-3.11131e-05
-3.11332e-05
-3.11387e-05
-3.11308e-05
-3.11083e-05
-3.10723e-05
-3.1024e-05
-3.09668e-05
-3.09059e-05
-3.08328e-05
-3.0753e-05
-3.07782e-05
-3.08585e-05
-3.09244e-05
-3.09733e-05
-3.10182e-05
-3.10597e-05
-3.10905e-05
-3.11105e-05
-3.11167e-05
-3.11083e-05
-3.10866e-05
-3.10511e-05
-3.10045e-05
-3.09486e-05
-3.0889e-05
-3.08167e-05
-3.07369e-05
-3.07524e-05
-3.08329e-05
-3.08969e-05
-3.09446e-05
-3.09869e-05
-3.10256e-05
-3.10553e-05
-3.10747e-05
-3.10804e-05
-3.10725e-05
-3.10512e-05
-3.10173e-05
-3.09724e-05
-3.09195e-05
-3.08634e-05
-3.07919e-05
-3.07125e-05
-3.07166e-05
-3.07979e-05
-3.0861e-05
-3.09049e-05
-3.09443e-05
-3.09801e-05
-3.1009e-05
-3.10262e-05
-3.10305e-05
-3.1024e-05
-3.10045e-05
-3.09722e-05
-3.09298e-05
-3.08801e-05
-3.08278e-05
-3.07586e-05
-3.0677e-05
-3.06745e-05
-3.07593e-05
-3.08183e-05
-3.08586e-05
-3.0894e-05
-3.09267e-05
-3.09529e-05
-3.09693e-05
-3.0974e-05
-3.09671e-05
-3.09486e-05
-3.09195e-05
-3.08802e-05
-3.08351e-05
-3.0788e-05
-3.07224e-05
-3.0637e-05
-3.06309e-05
-3.07219e-05
-3.07759e-05
-3.08095e-05
-3.08408e-05
-3.08714e-05
-3.08944e-05
-3.09089e-05
-3.09129e-05
-3.09062e-05
-3.08896e-05
-3.08636e-05
-3.08277e-05
-3.07883e-05
-3.0746e-05
-3.06883e-05
-3.0598e-05
-3.06247e-05
-3.06913e-05
-3.07165e-05
-3.07398e-05
-3.07681e-05
-3.07977e-05
-3.08211e-05
-3.08358e-05
-3.08396e-05
-3.08336e-05
-3.08177e-05
-3.07927e-05
-3.07591e-05
-3.07228e-05
-3.06884e-05
-3.06594e-05
-3.0596e-05
-3.06167e-05
-3.06317e-05
-3.06217e-05
-3.06466e-05
-3.0682e-05
-3.07178e-05
-3.07418e-05
-3.07563e-05
-3.07602e-05
-3.07541e-05
-3.07379e-05
-3.07134e-05
-3.0678e-05
-3.06384e-05
-3.05981e-05
-3.05959e-05
-3.0587e-05
-3.06873e-05
-3.06853e-05
-3.0675e-05
-3.06865e-05
-3.07114e-05
-3.07373e-05
-3.07566e-05
-3.07677e-05
-3.07713e-05
-3.07672e-05
-3.07542e-05
-3.0735e-05
-3.07084e-05
-3.06798e-05
-3.06579e-05
-3.06608e-05
-3.06691e-05
-3.06859e-05
-3.0714e-05
-3.07227e-05
-3.07315e-05
-3.07505e-05
-3.07728e-05
-3.07904e-05
-3.08002e-05
-3.08029e-05
-3.07991e-05
-3.07866e-05
-3.07684e-05
-3.07448e-05
-3.07189e-05
-3.07008e-05
-3.06902e-05
-3.06665e-05
-3.06759e-05
-3.0723e-05
-3.07471e-05
-3.07599e-05
-3.07781e-05
-3.07976e-05
-3.08128e-05
-3.08212e-05
-3.08233e-05
-3.08194e-05
-3.08085e-05
-3.07907e-05
-3.07687e-05
-3.07437e-05
-3.07236e-05
-3.06957e-05
-3.0654e-05
-3.06866e-05
-3.07317e-05
-3.07599e-05
-3.07757e-05
-3.07937e-05
-3.08128e-05
-3.08283e-05
-3.08359e-05
-3.08372e-05
-3.08333e-05
-3.08224e-05
-3.08061e-05
-3.07833e-05
-3.07577e-05
-3.07347e-05
-3.07022e-05
-3.06614e-05
-3.07113e-05
-3.07507e-05
-3.0778e-05
-3.07937e-05
-3.08121e-05
-3.083e-05
-3.08444e-05
-3.08533e-05
-3.08546e-05
-3.08501e-05
-3.08395e-05
-3.08219e-05
-3.07995e-05
-3.07734e-05
-3.07505e-05
-3.07179e-05
-3.06837e-05
-3.07372e-05
-3.07724e-05
-3.07974e-05
-3.08122e-05
-3.08299e-05
-3.08491e-05
-3.08628e-05
-3.08717e-05
-3.08724e-05
-3.08685e-05
-3.0857e-05
-3.08393e-05
-3.08167e-05
-3.07905e-05
-3.0767e-05
-3.07371e-05
-3.07071e-05
-3.07567e-05
-3.07902e-05
-3.08125e-05
-3.08278e-05
-3.08443e-05
-3.08622e-05
-3.08777e-05
-3.08857e-05
-3.0887e-05
-3.08821e-05
-3.08711e-05
-3.08535e-05
-3.08299e-05
-3.08043e-05
-3.07804e-05
-3.07523e-05
-3.07245e-05
-3.0767e-05
-3.07993e-05
-3.08201e-05
-3.08355e-05
-3.08526e-05
-3.08716e-05
-3.08853e-05
-3.08933e-05
-3.08948e-05
-3.08903e-05
-3.08787e-05
-3.08609e-05
-3.0838e-05
-3.08117e-05
-3.07886e-05
-3.07621e-05
-3.07349e-05
-3.07703e-05
-3.08022e-05
-3.08232e-05
-3.08362e-05
-3.08542e-05
-3.08719e-05
-3.08866e-05
-3.08947e-05
-3.08959e-05
-3.08908e-05
-3.088e-05
-3.08629e-05
-3.08391e-05
-3.08129e-05
-3.07897e-05
-3.07641e-05
-3.07372e-05
-3.07663e-05
-3.0798e-05
-3.08182e-05
-3.08322e-05
-3.08495e-05
-3.08677e-05
-3.08815e-05
-3.08893e-05
-3.08907e-05
-3.08861e-05
-3.08748e-05
-3.08575e-05
-3.08337e-05
-3.08078e-05
-3.07846e-05
-3.07588e-05
-3.07324e-05
-3.07531e-05
-3.0786e-05
-3.08071e-05
-3.08212e-05
-3.08389e-05
-3.08556e-05
-3.08706e-05
-3.08783e-05
-3.08796e-05
-3.08747e-05
-3.08635e-05
-3.08467e-05
-3.08233e-05
-3.07979e-05
-3.07753e-05
-3.07486e-05
-3.07215e-05
-3.07339e-05
-3.0768e-05
-3.07899e-05
-3.0805e-05
-3.08212e-05
-3.08386e-05
-3.08522e-05
-3.08601e-05
-3.08624e-05
-3.08573e-05
-3.08466e-05
-3.08288e-05
-3.08068e-05
-3.07815e-05
-3.07588e-05
-3.07315e-05
-3.07036e-05
-3.07072e-05
-3.07443e-05
-3.07676e-05
-3.07822e-05
-3.0799e-05
-3.08162e-05
-3.08299e-05
-3.08374e-05
-3.08391e-05
-3.08344e-05
-3.08234e-05
-3.08068e-05
-3.07849e-05
-3.07597e-05
-3.07387e-05
-3.07092e-05
-3.06793e-05
-3.06788e-05
-3.07188e-05
-3.07439e-05
-3.07577e-05
-3.07731e-05
-3.07906e-05
-3.08043e-05
-3.08119e-05
-3.08128e-05
-3.08082e-05
-3.07977e-05
-3.07818e-05
-3.07601e-05
-3.07374e-05
-3.07164e-05
-3.06872e-05
-3.06529e-05
-3.06574e-05
-3.07007e-05
-3.07237e-05
-3.07355e-05
-3.07512e-05
-3.07679e-05
-3.07809e-05
-3.0789e-05
-3.07906e-05
-3.07857e-05
-3.0776e-05
-3.07601e-05
-3.07389e-05
-3.07163e-05
-3.06984e-05
-3.06732e-05
-3.06355e-05
-3.06607e-05
-3.06899e-05
-3.06962e-05
-3.07034e-05
-3.07194e-05
-3.07381e-05
-3.0754e-05
-3.0764e-05
-3.07656e-05
-3.07608e-05
-3.07501e-05
-3.07329e-05
-3.07107e-05
-3.06882e-05
-3.06734e-05
-3.06655e-05
-3.06443e-05
-3.06688e-05
-3.06667e-05
-3.06551e-05
-3.06633e-05
-3.06855e-05
-3.07096e-05
-3.07275e-05
-3.07372e-05
-3.074e-05
-3.07348e-05
-3.07238e-05
-3.07056e-05
-3.06808e-05
-3.06541e-05
-3.06363e-05
-3.06446e-05
-3.06539e-05
-3.0966e-05
-3.09516e-05
-3.09393e-05
-3.09354e-05
-3.09388e-05
-3.09452e-05
-3.09508e-05
-3.09547e-05
-3.09553e-05
-3.09532e-05
-3.09482e-05
-3.09414e-05
-3.09344e-05
-3.0929e-05
-3.09281e-05
-3.09405e-05
-3.09579e-05
-3.09513e-05
-3.09556e-05
-3.09536e-05
-3.09505e-05
-3.09533e-05
-3.09587e-05
-3.09631e-05
-3.0966e-05
-3.09667e-05
-3.09641e-05
-3.09602e-05
-3.09531e-05
-3.09468e-05
-3.0942e-05
-3.09407e-05
-3.09428e-05
-3.09412e-05
-3.09386e-05
-3.09536e-05
-3.09609e-05
-3.0963e-05
-3.09661e-05
-3.097e-05
-3.09742e-05
-3.09758e-05
-3.09759e-05
-3.09745e-05
-3.097e-05
-3.09645e-05
-3.09576e-05
-3.09517e-05
-3.09472e-05
-3.09392e-05
-3.09267e-05
-3.09342e-05
-3.09498e-05
-3.09628e-05
-3.0967e-05
-3.09717e-05
-3.09769e-05
-3.09808e-05
-3.09828e-05
-3.09826e-05
-3.09803e-05
-3.0976e-05
-3.09701e-05
-3.09628e-05
-3.09542e-05
-3.09474e-05
-3.09346e-05
-3.09203e-05
-3.09378e-05
-3.09528e-05
-3.09655e-05
-3.09714e-05
-3.09775e-05
-3.09834e-05
-3.09883e-05
-3.09902e-05
-3.09904e-05
-3.09879e-05
-3.09833e-05
-3.09763e-05
-3.09671e-05
-3.09584e-05
-3.0949e-05
-3.09362e-05
-3.09221e-05
-3.09442e-05
-3.09573e-05
-3.09693e-05
-3.09765e-05
-3.09828e-05
-3.09901e-05
-3.09935e-05
-3.09966e-05
-3.09968e-05
-3.09936e-05
-3.09894e-05
-3.09816e-05
-3.09717e-05
-3.09615e-05
-3.09518e-05
-3.09387e-05
-3.09263e-05
-3.09487e-05
-3.09614e-05
-3.09726e-05
-3.09795e-05
-3.09873e-05
-3.09935e-05
-3.09988e-05
-3.10015e-05
-3.10018e-05
-3.09995e-05
-3.09933e-05
-3.09854e-05
-3.09758e-05
-3.09642e-05
-3.09533e-05
-3.09421e-05
-3.09304e-05
-3.09525e-05
-3.0964e-05
-3.09743e-05
-3.09818e-05
-3.09891e-05
-3.09961e-05
-3.1001e-05
-3.10044e-05
-3.10042e-05
-3.1001e-05
-3.09956e-05
-3.09872e-05
-3.0978e-05
-3.09656e-05
-3.0955e-05
-3.0944e-05
-3.09333e-05
-3.09528e-05
-3.09651e-05
-3.09741e-05
-3.09802e-05
-3.09886e-05
-3.09955e-05
-3.10013e-05
-3.10038e-05
-3.10036e-05
-3.10008e-05
-3.09953e-05
-3.09873e-05
-3.09765e-05
-3.09651e-05
-3.09539e-05
-3.09427e-05
-3.09332e-05
-3.09503e-05
-3.09624e-05
-3.09717e-05
-3.09784e-05
-3.09866e-05
-3.09925e-05
-3.09983e-05
-3.10002e-05
-3.10006e-05
-3.09977e-05
-3.0991e-05
-3.09839e-05
-3.09732e-05
-3.09626e-05
-3.09513e-05
-3.09414e-05
-3.09306e-05
-3.09454e-05
-3.09577e-05
-3.09672e-05
-3.09742e-05
-3.09813e-05
-3.09881e-05
-3.09925e-05
-3.09946e-05
-3.09948e-05
-3.09909e-05
-3.09862e-05
-3.09783e-05
-3.09689e-05
-3.09583e-05
-3.09472e-05
-3.09367e-05
-3.09259e-05
-3.09388e-05
-3.09509e-05
-3.09623e-05
-3.09681e-05
-3.09744e-05
-3.09804e-05
-3.09845e-05
-3.09866e-05
-3.09865e-05
-3.09835e-05
-3.0978e-05
-3.0971e-05
-3.09619e-05
-3.09517e-05
-3.09426e-05
-3.0932e-05
-3.0921e-05
-3.09324e-05
-3.09452e-05
-3.09557e-05
-3.09614e-05
-3.09665e-05
-3.09711e-05
-3.09754e-05
-3.09777e-05
-3.09764e-05
-3.09734e-05
-3.09694e-05
-3.09621e-05
-3.09543e-05
-3.09451e-05
-3.09382e-05
-3.09267e-05
-3.09148e-05
-3.09269e-05
-3.09409e-05
-3.095e-05
-3.09537e-05
-3.09582e-05
-3.09621e-05
-3.09646e-05
-3.09661e-05
-3.09653e-05
-3.09633e-05
-3.09589e-05
-3.09525e-05
-3.09459e-05
-3.09398e-05
-3.09342e-05
-3.09237e-05
-3.09127e-05
-3.09272e-05
-3.09403e-05
-3.09475e-05
-3.09483e-05
-3.09501e-05
-3.09531e-05
-3.09549e-05
-3.09565e-05
-3.09552e-05
-3.09528e-05
-3.09486e-05
-3.09439e-05
-3.09391e-05
-3.09351e-05
-3.09322e-05
-3.09257e-05
-3.09165e-05
-3.09398e-05
-3.09426e-05
-3.09402e-05
-3.09362e-05
-3.09381e-05
-3.09414e-05
-3.09448e-05
-3.09463e-05
-3.09454e-05
-3.09435e-05
-3.09388e-05
-3.09337e-05
-3.09282e-05
-3.09249e-05
-3.09267e-05
-3.09309e-05
-3.09313e-05
-3.0958e-05
-3.09428e-05
-3.0928e-05
-3.09227e-05
-3.09243e-05
-3.09296e-05
-3.09338e-05
-3.09366e-05
-3.09366e-05
-3.09336e-05
-3.0929e-05
-3.09241e-05
-3.09169e-05
-3.09144e-05
-3.09182e-05
-3.09317e-05
-3.09518e-05
-3.04249e-05
-3.04065e-05
-3.03968e-05
-3.03928e-05
-3.0396e-05
-3.04008e-05
-3.04059e-05
-3.04093e-05
-3.04108e-05
-3.04099e-05
-3.04074e-05
-3.04028e-05
-3.03984e-05
-3.03959e-05
-3.03992e-05
-3.04099e-05
-3.04291e-05
-3.04058e-05
-3.03971e-05
-3.0394e-05
-3.03922e-05
-3.03955e-05
-3.04002e-05
-3.04048e-05
-3.04087e-05
-3.04097e-05
-3.04083e-05
-3.04056e-05
-3.04011e-05
-3.03972e-05
-3.03946e-05
-3.03956e-05
-3.04002e-05
-3.04086e-05
-3.03955e-05
-3.0393e-05
-3.03952e-05
-3.03956e-05
-3.03988e-05
-3.04034e-05
-3.04065e-05
-3.0409e-05
-3.04098e-05
-3.04094e-05
-3.04069e-05
-3.04029e-05
-3.03995e-05
-3.03965e-05
-3.0396e-05
-3.03955e-05
-3.0398e-05
-3.03907e-05
-3.03908e-05
-3.03946e-05
-3.03961e-05
-3.04e-05
-3.04036e-05
-3.0407e-05
-3.04096e-05
-3.041e-05
-3.04091e-05
-3.04061e-05
-3.04025e-05
-3.04e-05
-3.03967e-05
-3.03948e-05
-3.03928e-05
-3.03918e-05
-3.03929e-05
-3.03933e-05
-3.03975e-05
-3.03992e-05
-3.04026e-05
-3.04057e-05
-3.04093e-05
-3.04113e-05
-3.0412e-05
-3.04103e-05
-3.04081e-05
-3.04057e-05
-3.04011e-05
-3.03977e-05
-3.03964e-05
-3.0394e-05
-3.0393e-05
-3.03974e-05
-3.03975e-05
-3.04011e-05
-3.04021e-05
-3.0405e-05
-3.04086e-05
-3.04117e-05
-3.04136e-05
-3.04145e-05
-3.04128e-05
-3.04105e-05
-3.04071e-05
-3.04035e-05
-3.03998e-05
-3.03987e-05
-3.03972e-05
-3.0398e-05
-3.04021e-05
-3.04015e-05
-3.04037e-05
-3.04051e-05
-3.04081e-05
-3.04115e-05
-3.04137e-05
-3.0416e-05
-3.04161e-05
-3.04158e-05
-3.04131e-05
-3.04095e-05
-3.04053e-05
-3.04018e-05
-3.04006e-05
-3.04003e-05
-3.04017e-05
-3.04047e-05
-3.04051e-05
-3.04061e-05
-3.04069e-05
-3.04092e-05
-3.04121e-05
-3.04152e-05
-3.04169e-05
-3.04173e-05
-3.04167e-05
-3.04135e-05
-3.041e-05
-3.04061e-05
-3.04033e-05
-3.0402e-05
-3.04032e-05
-3.04038e-05
-3.04066e-05
-3.04057e-05
-3.04061e-05
-3.04071e-05
-3.04097e-05
-3.04129e-05
-3.04151e-05
-3.0417e-05
-3.04174e-05
-3.04163e-05
-3.04133e-05
-3.04099e-05
-3.04066e-05
-3.04039e-05
-3.04021e-05
-3.04036e-05
-3.04055e-05
-3.04053e-05
-3.04045e-05
-3.04054e-05
-3.0406e-05
-3.04081e-05
-3.0411e-05
-3.04143e-05
-3.04159e-05
-3.04162e-05
-3.04151e-05
-3.04122e-05
-3.04086e-05
-3.04052e-05
-3.0402e-05
-3.04006e-05
-3.04027e-05
-3.04034e-05
-3.04027e-05
-3.04014e-05
-3.04031e-05
-3.04032e-05
-3.04057e-05
-3.04087e-05
-3.04118e-05
-3.04129e-05
-3.04131e-05
-3.0412e-05
-3.04096e-05
-3.04061e-05
-3.04028e-05
-3.0399e-05
-3.03984e-05
-3.04001e-05
-3.04012e-05
-3.03982e-05
-3.03976e-05
-3.04e-05
-3.04002e-05
-3.04035e-05
-3.0406e-05
-3.04089e-05
-3.04099e-05
-3.04095e-05
-3.04087e-05
-3.04065e-05
-3.04031e-05
-3.03997e-05
-3.03965e-05
-3.03963e-05
-3.03956e-05
-3.03974e-05
-3.03945e-05
-3.03942e-05
-3.03966e-05
-3.03977e-05
-3.03999e-05
-3.04025e-05
-3.04052e-05
-3.04063e-05
-3.04071e-05
-3.04057e-05
-3.04033e-05
-3.04001e-05
-3.03962e-05
-3.0394e-05
-3.03938e-05
-3.03939e-05
-3.03943e-05
-3.0393e-05
-3.03923e-05
-3.03957e-05
-3.03958e-05
-3.03977e-05
-3.04003e-05
-3.04026e-05
-3.04047e-05
-3.04047e-05
-3.04035e-05
-3.03999e-05
-3.03977e-05
-3.03944e-05
-3.03925e-05
-3.0393e-05
-3.03927e-05
-3.03936e-05
-3.03979e-05
-3.0395e-05
-3.03968e-05
-3.03954e-05
-3.03978e-05
-3.04e-05
-3.0403e-05
-3.04045e-05
-3.04044e-05
-3.04031e-05
-3.04005e-05
-3.03986e-05
-3.03956e-05
-3.03936e-05
-3.03956e-05
-3.0397e-05
-3.03997e-05
-3.04089e-05
-3.04009e-05
-3.03962e-05
-3.03947e-05
-3.03963e-05
-3.04e-05
-3.04036e-05
-3.04066e-05
-3.04069e-05
-3.04059e-05
-3.04031e-05
-3.03986e-05
-3.03956e-05
-3.03941e-05
-3.03976e-05
-3.04031e-05
-3.04132e-05
-3.04296e-05
-3.04095e-05
-3.03998e-05
-3.03944e-05
-3.03963e-05
-3.04012e-05
-3.04057e-05
-3.04083e-05
-3.04092e-05
-3.04074e-05
-3.04044e-05
-3.04007e-05
-3.03966e-05
-3.03959e-05
-3.04008e-05
-3.04136e-05
-3.04342e-05
-3.04023e-05
-3.03772e-05
-3.03559e-05
-3.03381e-05
-3.0327e-05
-3.03205e-05
-3.03182e-05
-3.03162e-05
-3.03156e-05
-3.03169e-05
-3.03182e-05
-3.03214e-05
-3.03268e-05
-3.03375e-05
-3.03557e-05
-3.03794e-05
-3.04072e-05
-3.03764e-05
-3.03602e-05
-3.03461e-05
-3.03319e-05
-3.03221e-05
-3.03173e-05
-3.03143e-05
-3.03129e-05
-3.03127e-05
-3.03131e-05
-3.0314e-05
-3.03166e-05
-3.03225e-05
-3.03309e-05
-3.03461e-05
-3.03625e-05
-3.03805e-05
-3.03541e-05
-3.0345e-05
-3.03358e-05
-3.03237e-05
-3.03168e-05
-3.03121e-05
-3.03088e-05
-3.03075e-05
-3.03069e-05
-3.0307e-05
-3.03083e-05
-3.0311e-05
-3.0315e-05
-3.03228e-05
-3.03344e-05
-3.03472e-05
-3.03582e-05
-3.03353e-05
-3.033e-05
-3.03229e-05
-3.03131e-05
-3.03077e-05
-3.03034e-05
-3.03011e-05
-3.03002e-05
-3.02992e-05
-3.02999e-05
-3.03006e-05
-3.03021e-05
-3.03059e-05
-3.03116e-05
-3.03219e-05
-3.03317e-05
-3.03391e-05
-3.03237e-05
-3.03192e-05
-3.03146e-05
-3.03068e-05
-3.03009e-05
-3.02973e-05
-3.02955e-05
-3.0294e-05
-3.02942e-05
-3.02936e-05
-3.02947e-05
-3.02957e-05
-3.02992e-05
-3.03048e-05
-3.03119e-05
-3.03209e-05
-3.03271e-05
-3.03169e-05
-3.03139e-05
-3.03092e-05
-3.03019e-05
-3.02965e-05
-3.02935e-05
-3.02917e-05
-3.02908e-05
-3.02902e-05
-3.02908e-05
-3.02908e-05
-3.02919e-05
-3.02948e-05
-3.02986e-05
-3.03063e-05
-3.03143e-05
-3.03198e-05
-3.03141e-05
-3.03104e-05
-3.03056e-05
-3.02989e-05
-3.02944e-05
-3.02911e-05
-3.02896e-05
-3.02879e-05
-3.02878e-05
-3.02876e-05
-3.02878e-05
-3.02895e-05
-3.02918e-05
-3.02956e-05
-3.03023e-05
-3.03115e-05
-3.0316e-05
-3.03114e-05
-3.03089e-05
-3.03039e-05
-3.02971e-05
-3.0292e-05
-3.02896e-05
-3.02872e-05
-3.02869e-05
-3.02867e-05
-3.02857e-05
-3.02858e-05
-3.02875e-05
-3.02894e-05
-3.02928e-05
-3.03006e-05
-3.03089e-05
-3.03141e-05
-3.03112e-05
-3.03084e-05
-3.03029e-05
-3.02959e-05
-3.02917e-05
-3.02887e-05
-3.02871e-05
-3.02861e-05
-3.02849e-05
-3.02845e-05
-3.02847e-05
-3.0286e-05
-3.02886e-05
-3.02919e-05
-3.02985e-05
-3.03082e-05
-3.03136e-05
-3.0312e-05
-3.03083e-05
-3.03034e-05
-3.02967e-05
-3.02913e-05
-3.02891e-05
-3.02862e-05
-3.0285e-05
-3.02844e-05
-3.02841e-05
-3.02844e-05
-3.02857e-05
-3.02882e-05
-3.02916e-05
-3.02991e-05
-3.03076e-05
-3.03132e-05
-3.03138e-05
-3.03095e-05
-3.03042e-05
-3.02974e-05
-3.02917e-05
-3.02893e-05
-3.02869e-05
-3.02853e-05
-3.02846e-05
-3.02843e-05
-3.02848e-05
-3.02864e-05
-3.02887e-05
-3.02934e-05
-3.03008e-05
-3.03097e-05
-3.03145e-05
-3.03168e-05
-3.03127e-05
-3.03073e-05
-3.02998e-05
-3.02936e-05
-3.02908e-05
-3.02887e-05
-3.02872e-05
-3.02859e-05
-3.02858e-05
-3.02867e-05
-3.0288e-05
-3.02903e-05
-3.02953e-05
-3.03032e-05
-3.03121e-05
-3.03189e-05
-3.03232e-05
-3.03186e-05
-3.03123e-05
-3.03039e-05
-3.02974e-05
-3.02934e-05
-3.02911e-05
-3.02893e-05
-3.0289e-05
-3.02884e-05
-3.02892e-05
-3.02904e-05
-3.02951e-05
-3.02995e-05
-3.0309e-05
-3.03184e-05
-3.03258e-05
-3.03346e-05
-3.0328e-05
-3.03211e-05
-3.03106e-05
-3.03034e-05
-3.02983e-05
-3.02959e-05
-3.02934e-05
-3.02926e-05
-3.02928e-05
-3.02946e-05
-3.0296e-05
-3.02999e-05
-3.0307e-05
-3.03175e-05
-3.03281e-05
-3.03371e-05
-3.03535e-05
-3.0344e-05
-3.03327e-05
-3.03217e-05
-3.03127e-05
-3.03068e-05
-3.03038e-05
-3.03019e-05
-3.03005e-05
-3.03e-05
-3.03025e-05
-3.03043e-05
-3.03102e-05
-3.03182e-05
-3.03307e-05
-3.0345e-05
-3.03569e-05
-3.03776e-05
-3.03618e-05
-3.03471e-05
-3.03317e-05
-3.0322e-05
-3.03157e-05
-3.03133e-05
-3.03115e-05
-3.03103e-05
-3.03102e-05
-3.03118e-05
-3.03141e-05
-3.03197e-05
-3.03291e-05
-3.03452e-05
-3.0364e-05
-3.03815e-05
-3.04067e-05
-3.03802e-05
-3.03583e-05
-3.03398e-05
-3.03286e-05
-3.03216e-05
-3.03183e-05
-3.03171e-05
-3.03159e-05
-3.03156e-05
-3.03171e-05
-3.03206e-05
-3.03273e-05
-3.03381e-05
-3.03575e-05
-3.0382e-05
-3.04109e-05
-3.01152e-05
-3.00962e-05
-3.00803e-05
-3.00645e-05
-3.0053e-05
-3.00452e-05
-3.0042e-05
-3.00403e-05
-3.00387e-05
-3.004e-05
-3.00424e-05
-3.00476e-05
-3.00545e-05
-3.00658e-05
-3.00833e-05
-3.01032e-05
-3.01251e-05
-3.00954e-05
-3.00823e-05
-3.0071e-05
-3.00587e-05
-3.00492e-05
-3.00417e-05
-3.00384e-05
-3.00366e-05
-3.00367e-05
-3.00364e-05
-3.00384e-05
-3.0043e-05
-3.005e-05
-3.00597e-05
-3.00742e-05
-3.00893e-05
-3.01043e-05
-3.00791e-05
-3.00703e-05
-3.00623e-05
-3.00513e-05
-3.00428e-05
-3.0037e-05
-3.0033e-05
-3.00315e-05
-3.00306e-05
-3.00314e-05
-3.00336e-05
-3.00374e-05
-3.00441e-05
-3.00526e-05
-3.00647e-05
-3.00765e-05
-3.00868e-05
-3.00622e-05
-3.0057e-05
-3.00506e-05
-3.00414e-05
-3.00345e-05
-3.00286e-05
-3.00259e-05
-3.00242e-05
-3.00229e-05
-3.00243e-05
-3.00255e-05
-3.00289e-05
-3.00344e-05
-3.00423e-05
-3.00533e-05
-3.00628e-05
-3.00706e-05
-3.00505e-05
-3.00464e-05
-3.00414e-05
-3.00331e-05
-3.00278e-05
-3.00221e-05
-3.00196e-05
-3.00176e-05
-3.0017e-05
-3.00177e-05
-3.00193e-05
-3.00224e-05
-3.0027e-05
-3.00336e-05
-3.0044e-05
-3.00523e-05
-3.00582e-05
-3.00417e-05
-3.0039e-05
-3.00347e-05
-3.00276e-05
-3.00216e-05
-3.00173e-05
-3.00144e-05
-3.00134e-05
-3.00121e-05
-3.00134e-05
-3.00145e-05
-3.00166e-05
-3.00212e-05
-3.00277e-05
-3.00363e-05
-3.00448e-05
-3.00501e-05
-3.00379e-05
-3.00351e-05
-3.00305e-05
-3.00239e-05
-3.00183e-05
-3.00139e-05
-3.00106e-05
-3.00095e-05
-3.0009e-05
-3.00099e-05
-3.00109e-05
-3.0014e-05
-3.0017e-05
-3.00232e-05
-3.00319e-05
-3.00402e-05
-3.0046e-05
-3.00362e-05
-3.00329e-05
-3.00283e-05
-3.00218e-05
-3.00157e-05
-3.00126e-05
-3.00094e-05
-3.00078e-05
-3.00069e-05
-3.00069e-05
-3.00083e-05
-3.00112e-05
-3.00154e-05
-3.00211e-05
-3.00291e-05
-3.00378e-05
-3.00435e-05
-3.00345e-05
-3.00326e-05
-3.00274e-05
-3.00201e-05
-3.00149e-05
-3.00107e-05
-3.00082e-05
-3.00063e-05
-3.00061e-05
-3.00064e-05
-3.00076e-05
-3.00098e-05
-3.00137e-05
-3.00196e-05
-3.00278e-05
-3.00367e-05
-3.00421e-05
-3.00359e-05
-3.00325e-05
-3.00278e-05
-3.00214e-05
-3.00153e-05
-3.00117e-05
-3.00086e-05
-3.00063e-05
-3.00058e-05
-3.00064e-05
-3.00072e-05
-3.00096e-05
-3.00141e-05
-3.00194e-05
-3.00286e-05
-3.00384e-05
-3.00428e-05
-3.00385e-05
-3.0035e-05
-3.00302e-05
-3.00224e-05
-3.00169e-05
-3.00124e-05
-3.00094e-05
-3.00079e-05
-3.00073e-05
-3.0007e-05
-3.00084e-05
-3.00117e-05
-3.0016e-05
-3.00219e-05
-3.00303e-05
-3.00399e-05
-3.00453e-05
-3.00432e-05
-3.00393e-05
-3.00339e-05
-3.0026e-05
-3.00202e-05
-3.00147e-05
-3.00128e-05
-3.00097e-05
-3.00096e-05
-3.00093e-05
-3.00117e-05
-3.00143e-05
-3.00187e-05
-3.00248e-05
-3.00347e-05
-3.00437e-05
-3.005e-05
-3.00512e-05
-3.00464e-05
-3.00414e-05
-3.00324e-05
-3.00252e-05
-3.00205e-05
-3.00164e-05
-3.00143e-05
-3.00138e-05
-3.00141e-05
-3.00158e-05
-3.00187e-05
-3.0024e-05
-3.00309e-05
-3.0041e-05
-3.00512e-05
-3.00575e-05
-3.00628e-05
-3.00571e-05
-3.00498e-05
-3.00408e-05
-3.00328e-05
-3.0027e-05
-3.00228e-05
-3.0021e-05
-3.00193e-05
-3.00199e-05
-3.0022e-05
-3.00252e-05
-3.00315e-05
-3.0039e-05
-3.00504e-05
-3.00622e-05
-3.00704e-05
-3.00809e-05
-3.0072e-05
-3.00631e-05
-3.00519e-05
-3.00427e-05
-3.00363e-05
-3.00326e-05
-3.00291e-05
-3.00284e-05
-3.00295e-05
-3.00314e-05
-3.0035e-05
-3.00414e-05
-3.00505e-05
-3.00643e-05
-3.00777e-05
-3.00879e-05
-3.01014e-05
-3.00879e-05
-3.00754e-05
-3.00624e-05
-3.00522e-05
-3.00458e-05
-3.00409e-05
-3.00388e-05
-3.00379e-05
-3.00384e-05
-3.00411e-05
-3.0045e-05
-3.00514e-05
-3.00625e-05
-3.00775e-05
-3.00927e-05
-3.01085e-05
-3.01233e-05
-3.01028e-05
-3.00863e-05
-3.00701e-05
-3.00585e-05
-3.00508e-05
-3.00468e-05
-3.00439e-05
-3.00441e-05
-3.00449e-05
-3.00466e-05
-3.00509e-05
-3.00583e-05
-3.00706e-05
-3.00881e-05
-3.01082e-05
-3.01311e-05
-2.98227e-05
-2.98109e-05
-2.97988e-05
-2.97848e-05
-2.97727e-05
-2.9766e-05
-2.97604e-05
-2.97579e-05
-2.97575e-05
-2.97589e-05
-2.97608e-05
-2.9766e-05
-2.97749e-05
-2.97854e-05
-2.98009e-05
-2.98173e-05
-2.98319e-05
-2.98103e-05
-2.98015e-05
-2.97932e-05
-2.97819e-05
-2.97716e-05
-2.97642e-05
-2.97598e-05
-2.97571e-05
-2.9756e-05
-2.97569e-05
-2.97597e-05
-2.97636e-05
-2.97718e-05
-2.97822e-05
-2.97955e-05
-2.98082e-05
-2.98188e-05
-2.97975e-05
-2.97925e-05
-2.97857e-05
-2.97763e-05
-2.97674e-05
-2.97607e-05
-2.97564e-05
-2.97541e-05
-2.97531e-05
-2.9754e-05
-2.9757e-05
-2.97607e-05
-2.97671e-05
-2.97764e-05
-2.97886e-05
-2.97986e-05
-2.98051e-05
-2.97829e-05
-2.97808e-05
-2.97756e-05
-2.9767e-05
-2.97596e-05
-2.97538e-05
-2.97503e-05
-2.97468e-05
-2.97475e-05
-2.97476e-05
-2.975e-05
-2.9754e-05
-2.97594e-05
-2.97671e-05
-2.97772e-05
-2.97866e-05
-2.97913e-05
-2.97705e-05
-2.97691e-05
-2.97659e-05
-2.97589e-05
-2.97522e-05
-2.97469e-05
-2.97442e-05
-2.97416e-05
-2.97406e-05
-2.97413e-05
-2.97435e-05
-2.97468e-05
-2.9752e-05
-2.97591e-05
-2.97682e-05
-2.97759e-05
-2.97794e-05
-2.97629e-05
-2.97619e-05
-2.97585e-05
-2.97526e-05
-2.97464e-05
-2.97423e-05
-2.97387e-05
-2.97371e-05
-2.97357e-05
-2.97363e-05
-2.97391e-05
-2.97417e-05
-2.97465e-05
-2.97521e-05
-2.9761e-05
-2.97673e-05
-2.97709e-05
-2.97569e-05
-2.97572e-05
-2.9754e-05
-2.97484e-05
-2.9743e-05
-2.97385e-05
-2.97355e-05
-2.97334e-05
-2.97329e-05
-2.97331e-05
-2.97355e-05
-2.97379e-05
-2.9742e-05
-2.97483e-05
-2.97554e-05
-2.97627e-05
-2.97655e-05
-2.97544e-05
-2.97539e-05
-2.97514e-05
-2.97451e-05
-2.974e-05
-2.97362e-05
-2.97332e-05
-2.97319e-05
-2.97309e-05
-2.97316e-05
-2.97329e-05
-2.97359e-05
-2.97396e-05
-2.97453e-05
-2.97525e-05
-2.97586e-05
-2.97616e-05
-2.97536e-05
-2.97525e-05
-2.97504e-05
-2.97448e-05
-2.97391e-05
-2.97348e-05
-2.97319e-05
-2.97306e-05
-2.97295e-05
-2.97302e-05
-2.97318e-05
-2.97347e-05
-2.97379e-05
-2.97436e-05
-2.97512e-05
-2.97581e-05
-2.97616e-05
-2.97547e-05
-2.97535e-05
-2.97507e-05
-2.9745e-05
-2.97396e-05
-2.97353e-05
-2.97321e-05
-2.9731e-05
-2.97299e-05
-2.97307e-05
-2.97315e-05
-2.97351e-05
-2.97387e-05
-2.97442e-05
-2.97513e-05
-2.97589e-05
-2.97617e-05
-2.97574e-05
-2.9756e-05
-2.97538e-05
-2.97473e-05
-2.97413e-05
-2.97368e-05
-2.9734e-05
-2.97318e-05
-2.97313e-05
-2.97316e-05
-2.97335e-05
-2.97366e-05
-2.97409e-05
-2.97465e-05
-2.97541e-05
-2.97621e-05
-2.9765e-05
-2.97624e-05
-2.97602e-05
-2.97575e-05
-2.97512e-05
-2.97446e-05
-2.97396e-05
-2.97364e-05
-2.97348e-05
-2.97343e-05
-2.97349e-05
-2.97365e-05
-2.97391e-05
-2.97438e-05
-2.97498e-05
-2.97583e-05
-2.97664e-05
-2.97694e-05
-2.97711e-05
-2.97692e-05
-2.97643e-05
-2.97568e-05
-2.975e-05
-2.97448e-05
-2.97408e-05
-2.97387e-05
-2.97378e-05
-2.97382e-05
-2.97412e-05
-2.97437e-05
-2.97497e-05
-2.97569e-05
-2.97657e-05
-2.97746e-05
-2.9778e-05
-2.97827e-05
-2.97794e-05
-2.9774e-05
-2.97645e-05
-2.97574e-05
-2.97506e-05
-2.97475e-05
-2.97449e-05
-2.97433e-05
-2.97446e-05
-2.97461e-05
-2.97499e-05
-2.97565e-05
-2.97647e-05
-2.9775e-05
-2.97849e-05
-2.97899e-05
-2.97982e-05
-2.97933e-05
-2.97865e-05
-2.97756e-05
-2.97669e-05
-2.97596e-05
-2.97547e-05
-2.97518e-05
-2.97508e-05
-2.97513e-05
-2.97542e-05
-2.97587e-05
-2.9766e-05
-2.97751e-05
-2.97872e-05
-2.97985e-05
-2.98061e-05
-2.98159e-05
-2.98061e-05
-2.97962e-05
-2.97849e-05
-2.97745e-05
-2.97672e-05
-2.97622e-05
-2.97597e-05
-2.97584e-05
-2.97587e-05
-2.97622e-05
-2.97665e-05
-2.97743e-05
-2.97848e-05
-2.97981e-05
-2.98115e-05
-2.98229e-05
-2.98299e-05
-2.98165e-05
-2.98031e-05
-2.97905e-05
-2.9778e-05
-2.97698e-05
-2.97652e-05
-2.97621e-05
-2.97615e-05
-2.97624e-05
-2.97653e-05
-2.97703e-05
-2.97777e-05
-2.97895e-05
-2.98056e-05
-2.98226e-05
-2.98379e-05
-2.94834e-05
-2.94798e-05
-2.94746e-05
-2.94669e-05
-2.94587e-05
-2.94512e-05
-2.94479e-05
-2.94455e-05
-2.94447e-05
-2.94449e-05
-2.94481e-05
-2.94514e-05
-2.94573e-05
-2.94667e-05
-2.94755e-05
-2.9485e-05
-2.94912e-05
-2.94795e-05
-2.9478e-05
-2.94738e-05
-2.94669e-05
-2.94591e-05
-2.94536e-05
-2.94488e-05
-2.94473e-05
-2.94468e-05
-2.94463e-05
-2.94487e-05
-2.94531e-05
-2.94586e-05
-2.94662e-05
-2.94754e-05
-2.94818e-05
-2.94862e-05
-2.94736e-05
-2.94733e-05
-2.94713e-05
-2.94642e-05
-2.9458e-05
-2.94521e-05
-2.94484e-05
-2.94458e-05
-2.94455e-05
-2.94463e-05
-2.94483e-05
-2.94519e-05
-2.94571e-05
-2.9464e-05
-2.94725e-05
-2.9477e-05
-2.94802e-05
-2.94658e-05
-2.94657e-05
-2.94634e-05
-2.94578e-05
-2.94537e-05
-2.94482e-05
-2.94448e-05
-2.94426e-05
-2.9443e-05
-2.94423e-05
-2.94445e-05
-2.94483e-05
-2.94525e-05
-2.94579e-05
-2.9465e-05
-2.94696e-05
-2.94717e-05
-2.94568e-05
-2.94573e-05
-2.94568e-05
-2.9453e-05
-2.94476e-05
-2.94434e-05
-2.94405e-05
-2.94389e-05
-2.94376e-05
-2.94388e-05
-2.944e-05
-2.94436e-05
-2.94466e-05
-2.94513e-05
-2.94576e-05
-2.94619e-05
-2.94627e-05
-2.94492e-05
-2.94512e-05
-2.94503e-05
-2.94474e-05
-2.94427e-05
-2.94394e-05
-2.94366e-05
-2.94359e-05
-2.94347e-05
-2.94352e-05
-2.94366e-05
-2.94387e-05
-2.94418e-05
-2.94467e-05
-2.94522e-05
-2.9456e-05
-2.94558e-05
-2.94449e-05
-2.94461e-05
-2.94465e-05
-2.9443e-05
-2.94393e-05
-2.94364e-05
-2.94338e-05
-2.94328e-05
-2.94324e-05
-2.94327e-05
-2.94335e-05
-2.94355e-05
-2.9439e-05
-2.9442e-05
-2.94487e-05
-2.94514e-05
-2.94516e-05
-2.94419e-05
-2.94442e-05
-2.94432e-05
-2.94404e-05
-2.94376e-05
-2.94349e-05
-2.94322e-05
-2.94308e-05
-2.94306e-05
-2.9431e-05
-2.94322e-05
-2.94338e-05
-2.94372e-05
-2.94408e-05
-2.94456e-05
-2.94488e-05
-2.94484e-05
-2.94413e-05
-2.94437e-05
-2.94424e-05
-2.94403e-05
-2.94362e-05
-2.94339e-05
-2.94315e-05
-2.94301e-05
-2.943e-05
-2.943e-05
-2.94313e-05
-2.94329e-05
-2.94363e-05
-2.9439e-05
-2.94441e-05
-2.94476e-05
-2.94484e-05
-2.94413e-05
-2.94435e-05
-2.94428e-05
-2.94401e-05
-2.94364e-05
-2.94338e-05
-2.94316e-05
-2.94304e-05
-2.94298e-05
-2.94295e-05
-2.9431e-05
-2.94327e-05
-2.94356e-05
-2.94403e-05
-2.94444e-05
-2.94481e-05
-2.94484e-05
-2.94445e-05
-2.94456e-05
-2.94452e-05
-2.94419e-05
-2.94375e-05
-2.9435e-05
-2.9432e-05
-2.94313e-05
-2.94306e-05
-2.94307e-05
-2.94324e-05
-2.9434e-05
-2.94367e-05
-2.94413e-05
-2.94463e-05
-2.94503e-05
-2.94505e-05
-2.94481e-05
-2.94497e-05
-2.94491e-05
-2.94459e-05
-2.94415e-05
-2.94369e-05
-2.94343e-05
-2.94327e-05
-2.94325e-05
-2.94323e-05
-2.94339e-05
-2.94359e-05
-2.94396e-05
-2.94442e-05
-2.94494e-05
-2.94545e-05
-2.94547e-05
-2.94543e-05
-2.94555e-05
-2.9454e-05
-2.945e-05
-2.94443e-05
-2.944e-05
-2.94378e-05
-2.9436e-05
-2.94356e-05
-2.94354e-05
-2.94364e-05
-2.94393e-05
-2.94441e-05
-2.94484e-05
-2.94543e-05
-2.94596e-05
-2.94601e-05
-2.94639e-05
-2.9463e-05
-2.94606e-05
-2.94548e-05
-2.94495e-05
-2.94447e-05
-2.94408e-05
-2.94392e-05
-2.94389e-05
-2.94395e-05
-2.94406e-05
-2.9444e-05
-2.94482e-05
-2.94544e-05
-2.94618e-05
-2.94673e-05
-2.94691e-05
-2.94732e-05
-2.94724e-05
-2.94696e-05
-2.94627e-05
-2.94559e-05
-2.94506e-05
-2.94464e-05
-2.94441e-05
-2.94434e-05
-2.94437e-05
-2.94456e-05
-2.94498e-05