/*--------------------------------*- C++ -*----------------------------------*\
  =========                 |
  \\      /  F ield         | OpenFOAM: The Open Source CFD Toolbox
   \\    /   O peration     | Website:  https://openfoam.org
    \\  /    A nd           | Version:  6
     \\/     M anipulation  |
\*---------------------------------------------------------------------------*/
FoamFile
{
    version     2.0;
    format      ascii;
    class       volScalarField;
    location    "0";
    object      p;
}
// * * * * * * * * * * * * * * * * * * * * * * * * * * * * * * * * * * * * * //

dimensions      [0 2 -2 0 0 0 0];

internalField   nonuniform List<scalar> 
13046
(
1.36147
1.25841
1.52612
1.34988
1.50649
1.34222
1.30611
1.33742
1.52878
0.734127
0.697461
1.43768
1.29403
1.20687
1.52661
0.878043
1.444
0.732181
1.48313
1.43926
1.32365
0.854537
1.44864
0.732932
1.37981
1.33928
1.49879
1.27586
1.18326
1.53273
1.37847
1.21577
1.51167
1.40795
1.49199
1.34755
1.40107
1.49246
1.37911
1.42973
1.47354
1.15019
1.40265
1.46117
1.42457
1.38289
1.457
1.43231
1.32788
1.26183
1.53048
1.38662
1.45252
1.0281
1.38044
0.995501
1.46608
0.85998
1.17183
1.46056
1.10137
1.19141
1.52168
1.47805
0.896452
0.93965
1.21469
0.863466
1.4484
1.2477
0.886535
1.4519
0.822138
1.13979
1.45355
1.48008
1.46342
1.28598
1.4617
1.0643
0.816854
1.35476
1.33444
1.50442
1.46703
0.852797
0.893936
0.867329
1.47753
0.968255
1.44362
0.752098
0.984547
1.14542
1.09941
1.0652
1.04664
1.51278
1.51668
1.47994
0.867087
1.0025
1.36978
1.47666
1.41436
1.50154
1.07789
1.38108
1.45017
1.43203
1.08501
0.544724
1.40997
0.523465
1.31466
1.24032
1.51793
1.11496
1.14892
0.977841
1.49939
1.02916
1.50671
0.696154
0.647948
1.4304
1.2251
1.10264
1.53203
1.40967
1.48369
1.14957
1.44645
0.78657
1.03658
1.01684
1.01403
1.50129
1.35835
1.18971
1.51063
1.19298
1.32596
1.51956
1.45362
1.40497
1.07447
1.50168
1.11922
1.39657
1.0914
1.14617
1.51675
1.52668
1.21313
1.38921
1.30755
0.981975
1.27133
0.97427
1.48232
1.48844
1.16025
1.31886
1.50669
0.719561
1.43891
0.725171
0.6082
1.41599
0.565344
1.00222
0.974357
1.49875
1.39265
1.04793
1.47802
1.16928
1.50072
1.34635
1.45161
0.793605
0.734244
1.40664
1.08319
1.46824
1.51997
1.17792
1.38283
1.22122
1.33646
1.51397
1.19419
1.53892
1.24422
1.14363
1.5255
0.854583
1.46867
0.894174
1.46996
0.847562
1.04402
0.776332
0.954569
1.44856
1.36837
0.942234
1.42278
1.25457
1.07978
1.45136
0.804108
0.900356
0.756705
1.45038
1.37016
1.49644
1.39048
1.30632
1.18304
1.52798
1.46429
0.823562
1.06006
1.23266
1.22135
1.54411
1.42453
0.646322
0.6177
1.43229
0.939033
1.34515
0.823556
0.997941
1.46431
1.05856
1.29915
1.50823
1.22458
1.08836
1.52889
1.15066
0.838496
1.44874
0.93154
1.24102
1.47201
1.42009
0.644561
0.575866
1.44268
1.45315
1.06031
0.589084
1.40418
0.44771
1.4855
1.3332
1.41604
1.0934
1.09718
1.26895
1.30556
1.51869
1.50831
1.44682
1.01996
0.787745
1.26699
1.1036
1.51818
0.915979
1.19459
1.47873
1.06245
0.994225
1.50108
1.42509
1.40113
1.46316
1.01605
1.26316
1.49873
1.27
1.06577
1.51344
1.24488
1.22203
1.44085
1.43971
1.02682
1.00637
1.22456
1.49958
1.01452
1.49585
0.975964
1.47417
1.43587
1.11432
1.47321
0.947053
1.29755
1.1761
0.973794
1.49047
1.4441
1.40206
1.01649
1.13971
1.11184
0.946729
1.48626
0.943954
1.49427
1.45486
0.816921
0.774488
1.18269
1.04711
1.51281
0.379841
1.39955
0.431958
1.26587
1.49242
1.39448
1.14069
1.21391
1.5252
1.48163
0.905986
0.934307
1.36408
0.956965
1.45723
1.11221
0.833909
1.45539
1.272
1.53297
1.14231
1.16213
1.52817
1.27534
1.53267
0.927716
1.45124
0.771522
1.38079
0.909313
1.4136
1.11097
1.13871
1.51937
1.16353
1.31752
1.52511
1.07141
1.37788
1.48276
1.34883
1.29083
1.5216
1.45432
0.952162
1.31791
0.822721
0.917029
1.46317
1.11586
0.847384
1.46542
1.29045
1.44349
0.919648
1.09435
1.12972
0.900506
0.868323
1.46304
1.47248
1.40097
0.409048
0.483569
0.627161
1.40789
0.480365
1.06855
1.24417
1.50037
1.46113
0.834787
0.849144
1.23156
1.20389
0.945419
0.936354
1.48095
1.47985
1.42467
0.839864
0.662388
0.561723
1.39784
0.386287
1.34024
1.45825
1.46035
0.540329
0.464111
1.40641
1.36188
1.05621
1.48262
0.744045
0.822464
1.45227
0.413501
1.39794
0.316885
1.44473
1.46592
1.18291
1.30468
1.41414
1.49773
0.713735
1.43115
0.629413
1.27479
1.40265
1.50098
1.36546
1.45544
1.457
1.44259
0.901434
1.33425
1.25808
1.45771
1.47774
1.26953
1.41109
1.48242
1.32077
0.928341
1.43676
1.4513
1.45374
0.742748
0.745668
0.811072
0.792306
0.773624
0.892729
1.45394
1.44853
1.27217
0.880274
1.42119
1.45435
1.09063
0.900537
1.23691
1.45184
0.561102
1.39801
0.39801
1.44552
0.743453
0.948907
0.634628
1.42317
0.614225
1.39792
0.362513
0.292852
0.292795
1.39783
0.362803
1.16372
1.00288
1.49689
0.733949
1.40853
0.550203
0.977603
1.01578
1.49831
0.820534
1.41997
0.626668
1.29097
1.525
1.28517
0.878765
1.43286
0.694602
0.910978
1.45019
1.26094
1.17497
0.923774
1.48745
1.39916
0.141152
0.142531
0.431805
1.39961
0.394565
1.32003
1.52539
1.30157
0.818286
0.666074
1.43072
1.41957
0.614459
0.813246
0.848445
1.46242
0.838619
1.45958
0.817254
0.992416
1.34359
0.901926
1.43127
0.895956
1.16895
1.47837
1.44113
0.949424
0.725545
1.32623
1.30276
1.09799
1.06735
1.50589
1.50906
1.35304
1.09454
1.49697
1.25554
0.918839
1.47702
1.13976
0.886753
1.47278
0.879633
0.758026
1.4575
1.47555
0.89208
1.08597
0.309253
1.39821
0.413179
1.42382
1.40561
1.49864
1.1977
1.50851
1.224
1.31026
1.32216
1.47182
0.966815
1.47636
1.00122
0.452628
1.39419
0.31343
0.837417
0.702829
1.43909
1.40716
1.42724
1.01563
1.18589
0.867498
1.45661
1.46094
0.829394
1.02462
0.541161
0.499513
1.40971
0.592957
0.52187
1.41222
1.20622
0.969978
1.49683
1.48654
1.42322
1.14372
0.814882
1.4533
0.78965
1.14928
0.961084
1.49976
1.48979
0.918348
0.986942
1.34494
1.46915
0.997172
1.06695
1.32643
1.49542
1.43955
1.46074
1.12103
1.44933
0.780791
0.770442
1.06932
0.96348
1.49678
1.44459
1.47811
1.20762
0.901884
1.42966
0.684037
1.34895
1.16623
1.51414
1.23764
1.35314
1.52262
1.19457
0.961447
1.48868
0.702734
1.41233
0.533043
0.738714
1.41221
0.54859
1.48494
0.891714
0.990532
1.02418
1.33636
1.48035
1.40309
0.472972
0.64957
1.48751
0.975622
0.935018
1.39422
0.326049
0.22389
0.32449
0.222207
1.39409
1.45222
0.760553
0.957646
1.43472
0.707818
0.672708
0.867077
0.902097
1.4502
0.770985
1.46262
0.820236
0.914782
1.00042
1.48656
1.46103
1.21732
0.856486
1.40904
1.50195
1.27142
0.923912
1.05842
1.49051
1.49069
0.931535
1.08926
0.986593
1.43915
0.73544
1.29477
0.933647
1.47032
1.3363
1.03123
1.47619
1.0311
1.1327
1.51564
1.00204
1.12637
1.50929
1.45455
1.46388
1.24601
1.29768
1.03381
1.50884
1.42989
0.902243
0.685564
0.493097
1.40885
0.616418
0.450266
1.40409
0.614219
1.39681
1.4885
1.117
0.504204
1.4028
0.433861
1.03481
1.48754
0.912107
1.39966
0.516812
0.384618
1.35254
1.50151
1.37232
1.21588
1.17033
1.52807
1.35586
1.03209
1.4761
1.41616
0.764893
0.596428
1.15408
0.955389
1.49397
1.43007
0.86601
0.677181
1.16966
1.14759
1.53482
1.41605
1.50259
1.29486
0.760137
0.630904
1.42783
1.48827
0.93168
0.942226
0.682036
0.641741
1.41862
1.4141
0.580222
0.541917
1.13478
1.27644
1.5263
1.19258
1.02931
1.49826
1.27422
1.34039
1.53129
0.673083
0.539503
0.686539
1.41438
0.528581
1.41005
1.09392
1.07626
1.52308
0.630165
0.585192
0.727825
0.688569
1.42881
1.4192
1.0293
1.22909
1.51782
1.20168
1.23119
1.5305
0.783137
1.42376
0.611123
1.15954
1.24247
1.52733
1.25544
1.30681
1.52442
0.704216
1.4162
0.57386
1.17894
1.0979
1.51761
1.28388
0.882482
1.44452
1.35101
0.96161
1.45488
1.07095
1.44158
0.787195
1.3973
0.200699
0.202044
1.15829
1.20272
1.52915
0.814552
1.43497
0.686337
1.40784
0.90461
1.3804
0.445101
1.3937
0.312074
1.49677
1.48457
1.40526
1.18069
1.40749
1.14928
1.27228
1.36199
1.51779
1.46189
1.48261
1.44399
1.18332
1.44556
1.1873
1.1865
1.26112
1.53998
1.19353
1.27455
1.53699
1.40264
0.649101
0.467015
1.37576
1.12379
1.49028
0.676678
0.742285
1.43741
1.02488
0.990633
1.09117
1.05267
1.50663
1.49692
1.36951
1.16695
1.50257
1.25729
0.983383
1.48452
1.09055
1.13453
1.5267
1.43211
1.33923
1.47414
0.963942
1.07552
1.49815
1.41801
1.48816
1.26252
1.06562
1.20893
1.52218
1.25324
1.02105
1.49314
1.42952
1.44474
1.30809
1.49112
1.29505
1.48067
1.46531
1.44363
1.48629
1.251
1.45656
1.21351
1.32718
1.30254
1.13169
1.13572
1.51528
1.5149
1.46712
0.843316
1.0003
1.44314
0.915423
1.31058
1.46729
1.47201
0.816721
0.842215
0.956333
0.946223
1.43019
1.40533
0.975943
1.42596
1.46648
1.38764
0.959915
1.04083
1.49635
1.41086
1.4943
1.16879
1.23113
1.01554
1.4965
1.07259
1.07664
0.869234
1.47689
0.899312
1.48287
1.05214
1.06027
1.50886
0.492996
0.371937
1.39767
1.39753
0.928007
1.39559
1.36367
1.37579
1.42123
0.923016
1.43833
0.950069
0.910609
1.12075
1.48176
1.2811
0.996034
1.48571
1.41721
1.41398
0.977095
1.38016
1.38089
1.44276
1.47202
1.01452
1.01702
1.36667
1.44891
0.971976
1.0552
1.092
1.51593
1.43907
1.47887
1.26936
0.752939
1.43027
0.653853
1.4044
1.41751
0.951229
1.23546
1.19738
1.03656
1.01722
1.50028
1.51048
1.43717
0.692301
0.791863
0.785466
1.42919
0.637866
0.747846
1.42425
0.620481
1.03759
1.48091
0.885802
1.30064
1.03178
1.49281
0.823265
0.938024
1.2123
0.829565
1.10964
0.581347
1.02292
0.917044
0.776905
1.10233
1.09899
0.74314
0.826542
1.08871
0.90267
0.83226
0.857351
0.885527
0.931199
1.04515
0.946104
0.879081
1.12995
1.40903
1.23505
0.946768
1.1294
0.749875
0.974831
0.813475
0.763587
1.01804
0.935476
0.92741
0.788201
0.953486
1.20786
1.12301
0.875571
1.01125
0.855323
1.39354
0.813416
1.08963
1.19902
0.860535
0.870574
0.824694
0.750591
0.810453
1.25543
0.952341
0.836579
0.853333
0.76365
1.24634
1.04625
0.943419
0.818966
1.07578
0.805699
0.821779
1.23974
0.941662
0.940677
1.05099
0.96437
1.37948
1.1265
1.12738
0.706727
0.752861
0.877484
1.07279
0.738299
0.926223
0.946934
0.779521
1.06013
1.17414
0.88788
0.927492
0.757643
0.820549
0.844931
1.07316
0.847066
0.852268
0.89517
1.26294
0.835376
1.07877
1.22852
0.932269
0.829532
0.47552
0.799018
0.828719
0.828485
0.702181
1.00344
1.13702
1.21651
1.39596
0.824519
0.829367
0.749369
0.85083
0.801087
1.20302
1.1465
1.04482
0.796962
0.747463
1.02644
1.15128
0.877492
0.851513
0.696265
0.878698
0.919577
1.30637
1.38307
1.07845
0.953158
0.887095
0.745154
1.31046
0.773711
1.06759
0.695549
1.25697
0.759848
0.740881
0.805916
1.17235
0.912421
0.660467
0.816843
1.02732
0.825945
1.08034
1.02903
0.846738
1.17284
0.853409
0.810698
1.19099
0.819845
0.886994
0.744875
0.969368
0.871128
1.16891
1.07881
0.868663
1.07086
1.08235
1.20994
0.95105
0.874079
0.842565
1.09587
0.774917
1.01304
0.757128
1.38327
0.879851
1.17567
1.30383
0.953878
1.32371
1.17756
1.20921
0.789183
0.690664
0.743195
1.21774
0.790379
0.770221
0.763707
0.773125
0.888058
0.853989
0.958365
1.30059
1.07838
0.855971
1.0673
0.840199
1.38528
0.706447
1.16671
0.844981
0.677453
1.28087
1.32631
0.837887
0.830358
1.37797
0.979999
0.87383
0.803178
1.07433
1.19557
1.07602
0.824176
0.818827
1.11211
0.957024
0.790372
1.04241
0.760362
0.774029
0.88748
1.1841
0.704094
0.904541
1.13816
0.839367
0.694954
0.869154
0.841709
0.875869
1.00784
1.0229
0.816471
0.76566
0.795432
1.04961
1.08218
0.865891
1.03088
0.857933
0.792411
0.989352
0.858774
0.675886
1.10058
1.1899
0.965439
1.29572
1.18931
1.39188
0.832259
0.650883
0.898171
0.866523
0.87144
0.712721
0.990908
1.26765
1.05609
0.984098
0.812416
0.872922
1.1164
0.941456
1.03532
0.820329
0.902496
0.851135
0.745555
0.818002
0.845842
0.834889
0.780125
1.02633
0.952001
0.868001
1.03692
0.840231
0.888782
0.8082
0.869839
0.833966
0.836395
0.977402
0.715047
0.644291
0.913496
0.735897
0.702514
0.983242
0.716326
0.70497
1.16824
1.03802
0.819196
1.11356
0.772144
1.0191
1.03872
0.766195
0.837205
1.13949
0.900808
1.07945
0.578629
0.804721
1.17
0.845619
0.808614
0.619205
0.717649
0.680051
0.728741
0.849266
1.03954
0.786228
0.687841
0.793928
0.847139
1.38803
0.823681
1.06972
0.98998
0.731571
0.899783
0.816263
0.754484
1.01125
0.862478
1.26681
1.06666
0.812714
0.860874
0.955407
1.40921
1.09231
1.21094
1.08614
0.864271
0.959478
0.884658
0.786452
0.721991
0.831445
0.862343
1.04097
0.811314
0.733255
0.835232
0.884942
0.829175
0.851015
1.14487
0.869804
0.852285
1.25834
1.16108
0.81801
0.986553
1.19875
0.777987
0.705696
0.866937
0.788559
0.760506
1.17832
0.793368
0.900831
1.23688
0.692594
0.96058
0.832743
0.95488
0.866705
0.828963
0.499324
0.898873
0.736494
0.810013
0.862996
0.859115
1.0693
1.24853
0.827583
0.967205
0.88741
0.799159
0.668403
1.12922
1.02191
0.816984
0.728789
0.983813
0.741111
0.83561
0.820572
0.808018
1.15956
1.22236
0.859349
1.07798
1.38225
1.14248
1.15746
1.21124
0.867461
0.852213
0.763701
1.39725
1.1314
1.17533
0.818065
0.846509
0.688685
1.09449
0.880933
0.816469
1.18249
1.03902
0.782223
0.894073
0.828318
0.834277
0.82911
0.859846
0.869186
0.785432
0.867952
0.723854
0.899828
0.786774
1.04315
0.957327
0.702987
1.20763
1.23965
1.08049
0.838428
0.966935
0.709577
1.1036
0.944417
0.741564
1.19624
0.643826
1.27201
0.722572
0.886194
0.920767
1.0791
1.12427
0.829253
1.31587
0.835598
1.14413
0.885661
1.0608
0.855591
0.816991
0.833562
1.14949
0.918721
1.38317
1.0541
0.719551
0.826456
1.02169
0.670618
0.841319
0.888827
0.786846
1.26074
0.782497
0.761263
1.10399
0.825093
1.26509
1.3532
0.854623
1.39497
1.27963
1.16454
1.18249
0.979735
0.751456
0.8068
0.871209
1.13629
0.884456
0.644679
1.31056
0.782799
0.878133
0.79894
1.21663
1.38371
0.792088
1.14217
0.996439
1.24547
0.899756
1.09171
0.860679
1.31196
1.37839
1.0405
0.809186
1.11801
0.864841
0.982755
0.938331
0.906966
0.997206
0.845735
0.655712
0.765695
0.918764
1.01421
0.966464
1.17246
0.789621
0.876652
1.02516
0.769555
1.23484
0.817418
0.860404
1.24072
1.16198
0.980035
1.33107
0.817719
0.844128
1.08812
0.949771
0.949111
0.883926
0.837727
1.02326
1.05539
0.838519
0.828247
0.973483
0.714125
0.783359
1.254
1.36956
1.38537
0.920787
1.40972
1.38207
1.27595
0.66332
0.992704
0.991064
1.33542
0.848862
0.825458
0.748243
0.807543
0.618808
1.30917
0.897418
0.908954
1.09816
1.04207
0.849462
0.858609
1.37962
1.29743
1.21546
1.04547
0.818367
1.08296
1.01907
0.846451
0.921707
0.751134
0.798715
0.954122
0.911176
0.858516
1.26574
1.25513
0.671945
1.16771
0.838678
0.825025
0.884175
1.24691
0.883692
1.04974
0.890934
1.22209
0.855583
0.89304
1.3717
0.686425
0.708921
0.819151
0.793413
0.645714
0.435613
0.804883
0.649936
0.921003
0.671994
0.764487
0.912505
0.797586
0.807403
0.866338
0.739234
0.479713
1.28398
1.20211
0.855792
0.744253
1.2192
0.826258
0.824523
1.36028
0.814721
1.35523
0.895367
1.18385
0.918264
0.732257
0.757407
0.964456
0.965668
0.922041
0.735991
0.860773
0.764352
0.793553
0.839808
0.698269
0.744335
1.29387
0.811033
1.06338
1.1017
0.850696
1.16929
1.10734
0.748363
0.44328
0.888402
0.722236
0.652492
1.0625
1.08134
0.859381
1.01418
0.855298
1.36351
1.27012
0.883858
0.845012
1.32071
1.1886
1.00003
1.00219
0.850671
1.38436
0.962806
0.670734
1.22537
1.12806
1.25318
0.961023
0.805648
0.879672
1.08524
1.01637
0.341341
1.39411
0.886616
0.817399
0.939268
1.23333
1.38051
1.36538
1.01594
0.932695
1.11414
1.18445
1.25593
1.06066
1.13723
0.749139
0.832434
0.986332
0.764261
0.744871
0.70409
0.883059
1.1139
0.718837
0.948586
0.831957
1.20136
1.36468
0.894937
0.743951
0.692037
1.1356
0.830556
0.806844
0.693216
1.28308
0.97318
0.98974
0.734224
0.988279
0.808314
0.831003
1.07702
1.11159
1.27671
1.38284
0.805049
1.193
0.672663
1.2153
1.26579
1.25837
1.10786
0.786438
0.786311
0.863468
0.671429
0.95513
0.694179
1.01576
0.74131
1.21046
0.851227
0.685522
1.16068
1.13058
0.903468
0.906455
1.05223
1.25389
0.970526
0.930254
0.679438
1.13392
0.984409
1.3141
0.65093
0.913283
1.22912
1.07536
1.3333
1.07599
0.862767
0.629308
0.677633
0.906338
0.711089
1.28546
0.678486
0.845113
0.902774
0.795445
1.17315
0.653926
1.27326
1.0888
0.99184
0.662367
1.05082
0.805837
0.876193
0.903674
0.904978
0.841947
0.82418
1.11786
0.790861
1.39319
0.834569
0.940327
1.03785
1.1109
1.32693
0.842783
0.873957
0.806195
0.929925
0.81739
1.28739
0.806307
0.938696
0.848296
1.13648
0.789807
0.960089
0.743199
1.3692
0.668024
0.784292
0.852962
1.16137
0.691129
0.700865
0.77623
0.733442
1.24069
0.933057
1.05271
1.18445
1.02903
0.965084
1.36938
0.960649
1.11283
1.02301
0.966732
0.705692
0.977982
0.899966
0.848509
0.987075
0.78213
0.718304
0.950632
0.880783
0.78733
1.12086
0.935009
1.09331
0.895014
1.28354
0.904297
0.908288
1.02623
0.729017
0.799796
0.848338
0.964895
0.974878
1.01523
1.22115
1.10732
1.13725
0.952515
1.19784
1.31657
1.30216
0.992177
0.952048
0.99395
0.755054
1.35674
1.17796
1.14247
0.922535
0.785181
0.709706
0.994296
1.07468
0.816419
1.13837
1.18825
1.0099
0.834736
0.985487
0.854528
0.81381
0.925319
0.836414
0.989061
0.693693
0.991635
0.925817
0.884786
0.657486
0.974539
0.937305
1.04773
0.856543
0.976904
1.2388
1.25554
0.995711
0.898214
1.13975
0.949058
0.803965
0.797703
0.879334
0.726807
1.21605
0.92378
0.962939
1.08903
1.06569
1.04599
0.776631
1.3835
1.04172
0.80557
0.925125
0.933699
1.14018
1.23508
1.04906
0.997516
0.69429
0.782122
0.886197
1.00345
0.936726
0.997337
0.819879
1.24498
1.00661
1.16618
1.1914
0.968192
0.819774
0.964842
1.32783
0.808305
0.685095
0.963751
1.34605
0.842436
0.879832
1.12456
1.06966
1.15014
0.916701
0.696932
1.00382
0.734582
0.848748
1.16291
0.906746
0.761967
0.813006
0.839267
1.01938
0.870263
0.845064
1.20719
0.806928
1.37215
1.14837
0.744113
0.63838
0.932389
1.0788
1.18857
0.914863
0.886063
0.807412
0.862819
0.913475
1.38228
1.21619
1.08033
0.871664
0.710629
1.28899
1.39883
1.24818
1.13311
1.22423
0.957968
0.743866
0.666402
0.685917
1.32464
0.935639
0.789759
0.886077
1.39902
0.851678
0.835093
0.728762
0.917462
0.793976
1.39516
1.00837
1.08973
1.22327
1.16429
0.868359
1.03627
0.95206
1.08996
0.797422
1.00937
0.829896
1.28624
0.742077
0.837152
0.774636
0.875156
1.23596
0.857101
1.16191
1.17731
1.21623
0.760035
0.944041
0.885397
0.818554
1.26076
0.958347
0.978413
1.00134
0.601909
0.89042
1.31009
1.04034
1.25474
0.675645
0.784609
0.8534
1.30351
0.820634
0.920323
0.77337
0.771149
0.876089
1.32494
0.903078
0.892595
0.731776
1.38182
1.34166
0.609
1.30437
0.850214
0.760804
0.788315
0.93598
0.718008
1.02925
0.876393
0.841105
0.884055
1.25974
0.919325
1.15152
0.898721
0.773246
0.887061
0.674508
0.704225
0.904031
0.869742
0.990897
0.780564
0.901713
1.19569
1.01004
0.840999
0.724137
1.25254
0.920236
0.919475
1.4279
0.979281
0.835875
0.850081
0.775211
1.3216
0.857988
0.908806
1.01824
0.724112
1.25565
0.751262
1.20511
0.941157
1.10305
0.778201
1.16878
0.896115
0.746677
0.795501
0.942317
1.21297
0.631923
0.825542
0.833672
1.28472
1.40727
0.800135
0.834379
1.02434
1.34684
0.907032
1.23706
1.195
1.14181
1.09754
0.979787
1.08711
1.07549
1.26553
0.922039
0.96057
0.800938
0.836294
0.92263
0.793716
1.32667
0.760635
1.24862
0.914729
1.30403
0.825356
1.34434
1.10277
1.23989
1.3031
1.24284
1.42495
0.871445
1.21304
0.941688
0.850571
0.827271
0.781545
1.25317
0.762726
1.01061
1.02125
0.889319
1.01545
0.81441
1.2807
0.947692
1.12093
0.662243
0.817177
0.85884
1.38003
0.809468
1.04822
0.844798
0.862182
0.758914
0.890594
0.851196
1.14891
1.27529
0.724945
1.00106
0.85645
0.83157
1.16632
0.810985
0.83271
1.30894
0.689352
0.97809
1.07808
1.23713
1.35885
0.844044
0.829592
0.736923
0.874092
0.820283
0.854614
1.15201
0.846858
0.75305
0.890283
0.945579
0.862809
0.826061
0.831812
0.943454
0.740074
1.12944
1.10599
0.852641
1.11754
0.736013
0.713286
0.805579
0.685126
1.33141
0.857879
0.848114
0.818656
1.1912
1.26822
0.966987
1.1029
0.831533
0.801765
0.954249
0.851839
0.824104
1.25938
0.994687
1.08622
1.35219
1.12942
0.939115
1.31146
0.719291
0.974145
0.966665
1.02278
0.890875
1.30867
0.844275
1.01252
0.919887
0.862714
0.794532
0.837071
1.10626
1.16994
1.2179
0.956562
0.969547
1.29311
1.17071
0.900257
0.991966
0.759054
0.865422
1.1562
0.721555
1.18415
0.839899
1.20207
1.40381
1.27354
0.828426
1.24281
1.18689
0.693886
1.29472
0.836316
1.28871
1.14354
0.852294
0.769381
1.00318
0.871293
0.87754
0.827283
1.19163
0.856614
1.31457
0.78144
0.850208
0.815683
0.779484
0.848305
1.1638
1.36476
0.775704
1.15177
0.941438
1.01483
0.907047
1.0219
1.25225
1.15374
0.844471
1.23657
1.17306
1.34651
0.778527
0.809702
0.827929
1.10288
1.34297
1.17726
0.910364
1.34388
0.933812
0.728145
0.767369
0.632777
0.929643
0.753806
1.34004
1.37407
0.971088
1.40817
1.16113
0.96355
1.33001
0.754515
1.30804
0.863498
1.26218
0.876115
0.787968
1.10233
0.971102
1.29067
1.23566
1.252
0.803908
0.802208
0.704307
1.20652
1.15013
0.798094
0.957643
1.15156
0.674991
0.831751
0.803782
0.850675
1.00287
0.844678
0.966536
1.13961
0.949616
0.966521
1.11567
0.863522
0.891303
1.00859
0.951764
0.86417
1.21202
1.25949
0.798273
1.14494
0.663923
0.830004
1.20894
1.12294
0.831331
1.27215
0.761558
1.10356
0.902287
0.902715
1.23083
0.879066
1.11334
1.1233
1.0544
1.40207
1.0645
0.734942
1.03305
0.923905
1.12326
1.37777
1.05479
0.937691
0.822043
0.904537
1.23499
0.770628
1.21618
0.810744
1.00784
1.12593
1.10466
0.936716
1.22121
1.34
0.886323
0.866495
0.963324
0.799951
0.744026
0.971605
1.12259
0.795165
0.733245
0.811999
0.736445
1.10293
0.932161
1.12956
0.844101
1.25641
0.947
1.16881
1.35711
0.810947
1.24582
0.88257
0.967638
0.960899
1.22052
0.830224
0.896932
0.968693
0.791928
0.870794
0.784571
0.756907
0.664945
1.32286
1.358
0.79118
0.840613
1.12146
0.715215
0.80937
0.855539
1.07956
1.09937
0.700347
0.66046
1.23371
0.838348
1.00747
0.834037
0.728878
0.76772
1.01367
1.17909
1.01324
0.71179
1.26532
1.18104
0.811116
1.002
0.847198
1.33915
0.865347
0.912508
0.751866
1.05765
1.26008
1.0201
1.0107
0.829658
0.931886
1.01367
1.33325
1.43294
0.828303
1.34694
0.838757
0.982027
0.981629
0.899549
0.856191
1.21293
0.89551
0.979431
0.808597
0.783874
0.902996
0.790205
1.05941
1.25907
0.807963
0.841243
0.971946
0.860651
0.819383
0.670264
0.869896
1.24273
0.676359
0.818468
1.10799
0.973402
0.915024
1.04844
1.1644
0.790414
0.792422
1.17506
0.899902
0.789149
0.944701
1.22095
1.04699
0.9885
0.830894
0.812612
0.822907
1.33609
1.18296
1.36559
0.91057
1.07413
0.769283
0.937882
1.18772
0.723384
0.726713
1.11001
1.1916
0.715403
0.853943
0.824875
0.778374
0.824044
1.424
0.914252
0.849174
1.00726
0.822008
1.09364
1.0279
0.759644
0.855201
1.12054
0.929316
1.34429
0.741821
0.831102
1.04887
1.01879
0.902718
1.00643
0.792238
1.35678
1.29694
1.05189
1.21977
0.807387
1.18596
1.04995
1.06137
1.31096
0.716053
0.859569
1.36998
1.05431
0.703519
0.820373
1.1995
1.36305
0.935089
1.12075
0.827261
0.746011
0.807697
0.699415
1.18258
0.83136
0.949358
1.29274
0.806077
0.793604
0.830563
0.970435
0.843994
0.828516
0.828206
0.767033
0.930231
1.15351
1.29643
1.09067
0.870072
0.855557
0.691713
0.837065
1.03314
1.00683
1.0885
1.10516
0.855365
0.91956
1.14862
1.19795
1.37006
1.21579
1.32156
0.931605
0.753889
0.809264
0.774894
1.33569
0.966228
0.839033
1.30525
0.761821
1.14756
1.08768
0.859242
0.832972
0.860912
0.818083
1.19306
0.874162
1.08143
0.928601
1.28273
0.994036
1.38895
0.803282
0.930727
0.810127
0.65613
0.869503
1.11058
0.778403
0.581188
0.98769
1.31907
1.12953
0.819274
0.751931
0.812044
0.758163
0.835738
0.757132
0.896988
0.782899
1.10994
0.788664
0.8436
1.28633
0.942044
1.08624
1.17787
0.88717
0.948378
0.800605
1.15356
0.866396
0.861543
0.919466
0.781478
0.73328
0.839636
0.824888
1.11814
1.37978
1.20775
0.987561
1.08438
0.720211
1.34948
1.00028
1.13258
0.833743
1.09237
0.824678
0.871886
1.15894
1.28112
1.11319
0.995505
0.860942
1.38978
0.885464
1.16391
1.32632
1.0649
0.895609
0.715522
1.14951
1.00484
0.775791
1.05222
0.988643
1.26563
0.827865
1.29803
1.37474
0.89157
0.806333
1.31439
0.757379
0.782695
0.875333
0.783209
0.870884
0.792817
0.746452
0.924853
0.843233
0.808126
0.841758
1.00357
0.796229
0.815314
1.04042
0.948238
0.728244
1.27234
1.3827
1.34493
0.835126
0.715087
1.3926
0.746022
0.915928
0.815508
0.849719
0.832439
1.10625
0.849635
0.840787
0.730122
0.72154
0.774261
0.849127
0.703717
0.931674
0.976636
0.918053
1.29534
0.96652
1.05941
0.901685
1.16864
0.842123
0.855594
1.43264
0.880139
0.994823
0.753707
1.06596
1.39562
0.872656
1.02671
0.998235
0.815918
0.826441
0.800032
0.784661
1.11329
0.787986
0.90438
0.84014
0.893695
0.814828
0.802191
0.91907
0.863517
0.831897
1.38446
0.917961
0.900758
0.991042
1.28863
0.859921
0.725232
1.14321
0.758901
0.880019
0.827806
0.939663
0.824607
0.892533
0.943916
1.35278
1.20616
0.733812
0.83177
0.719022
0.817988
0.70079
0.790003
0.876257
0.803854
0.880432
1.0305
1.41027
0.859698
1.08953
0.954963
1.33473
0.844781
1.37705
1.02669
0.761754
1.02447
1.09774
0.843181
1.20397
0.828245
1.21831
0.825927
0.601937
0.914888
1.41382
1.33192
1.11959
1.03498
1.07637
0.719295
0.812183
1.0879
1.38604
0.630536
0.940028
0.829128
0.839876
0.897339
0.812437
0.770303
0.834839
0.788051
0.848746
0.856396
0.905353
1.38979
1.17063
0.697361
1.13675
0.80336
0.793299
1.14528
0.819918
0.87783
1.06714
0.668329
0.815546
0.931149
1.19344
0.774019
0.822221
0.868847
1.0288
0.77465
1.27447
0.714121
0.849666
0.870322
0.816548
1.03976
1.0326
1.29187
0.825376
1.11348
0.981218
1.01851
0.827485
1.04199
0.78543
0.763083
0.673706
1.00914
0.911788
0.869327
1.23699
0.936265
1.01467
1.03618
0.816002
0.791459
0.854365
1.00847
0.836753
1.39591
0.753876
0.712536
0.874736
0.841042
0.840387
0.820824
1.08943
0.868861
0.924212
0.775591
0.830411
0.920277
0.762664
1.41972
1.3647
0.782547
0.813831
1.17066
0.970949
0.821366
0.75232
0.815156
0.771321
0.976203
1.26176
0.820943
0.721305
1.02939
0.921758
0.715739
0.776986
0.926217
1.08262
1.41475
0.765465
0.720357
1.00113
1.18029
0.873753
0.982999
0.864226
0.828901
0.855802
1.02882
0.907643
0.831409
1.15193
0.867984
0.685295
0.966752
0.844626
1.15789
1.39534
0.841731
0.846534
0.850893
0.84867
0.766063
0.852539
0.773059
1.30557
1.16027
1.08135
0.876552
0.730063
1.12913
1.34538
0.811618
0.960165
0.829725
0.663647
0.941349
0.844522
0.660077
0.820027
1.07723
0.749387
0.718216
0.783315
1.21121
0.737333
1.1485
0.929091
0.830926
0.857859
0.807487
1.15968
0.688898
0.855164
0.885842
0.76098
0.979189
1.10421
0.99448
0.914804
1.12729
0.775237
0.781158
1.2318
0.826624
1.22532
1.00331
0.873023
1.00012
1.20847
0.920681
0.718366
1.26442
0.820492
0.883681
1.19028
0.814347
1.28813
0.826381
0.871677
0.690125
0.873152
0.785189
0.928045
0.775023
0.686108
0.760897
0.775878
0.668706
1.25393
0.775759
0.871802
0.98762
0.930894
1.35297
1.36478
0.820314
0.954422
1.16208
0.806291
1.26317
0.680639
0.858199
0.960612
0.809525
1.17744
0.832051
0.840542
0.859991
0.806268
0.818213
0.69016
1.21553
0.493797
1.32254
1.0843
0.780371
0.723135
0.772392
1.4351
1.09868
1.04038
0.909931
0.981881
0.883641
1.20099
1.12294
0.809597
1.01884
1.34281
0.896023
0.954991
1.04176
0.704552
0.777179
1.1973
0.858891
0.912171
1.29389
0.770979
0.684436
0.815043
0.912389
0.896916
1.38148
0.82413
0.731612
0.814669
0.908255
0.827902
1.23989
0.942931
0.777127
0.828636
0.806848
0.814604
0.863481
1.01973
0.979965
0.80175
1.2153
0.851031
1.22689
0.802832
0.769273
0.886613
1.20081
1.33886
1.21585
0.932117
0.906607
1.14515
1.35548
0.753694
1.26225
0.768735
1.0558
1.02919
1.23412
0.928863
1.20675
1.28921
0.837265
0.83171
0.87394
0.948298
0.768081
0.787285
0.75821
1.11066
1.17262
0.754206
1.27504
0.928647
1.13335
0.907736
0.793897
1.15866
1.12948
0.832783
0.855368
0.785272
1.36599
1.08376
1.39082
0.754989
0.767389
0.881421
1.18606
1.03112
1.27233
0.97801
1.36786
0.82115
0.898751
0.955263
0.836003
1.00837
0.720307
1.15487
0.922152
0.962769
1.26302
0.74464
0.757188
0.687526
1.03654
1.21229
0.8591
1.04878
0.732719
0.72984
0.916134
0.844677
0.824942
1.26855
0.969576
0.813823
0.885757
1.0056
1.29518
1.03733
0.865032
1.2168
0.954716
1.32468
0.944016
1.08546
0.867743
0.739387
1.42364
0.798241
1.01181
0.990152
1.25639
1.06901
0.910248
0.833828
1.3862
0.884244
0.782297
1.11794
1.35259
1.09245
1.04436
0.742163
0.675244
0.963949
0.804708
0.86133
0.946552
0.800524
1.27701
1.36532
1.28386
0.829078
0.853897
0.82341
0.86305
1.05707
0.762608
1.06448
1.30565
0.747523
0.839355
0.812397
1.18839
1.04399
0.853026
0.807977
1.09743
0.819516
0.712995
0.760126
1.42144
0.68739
1.14869
1.05158
0.825566
1.35435
0.974691
1.41247
0.658442
0.840532
0.961491
1.27516
0.865778
1.2471
0.977043
0.687221
0.911692
0.825059
0.868059
0.678805
1.13634
0.841667
0.808071
0.719816
0.916045
1.27776
0.620471
0.835961
1.21971
0.900124
1.18734
0.677166
0.820267
0.825333
0.881191
0.804602
0.742174
0.818595
0.635233
0.860654
0.864774
1.13463
0.98101
1.22547
0.812789
0.855157
0.74571
0.967714
0.633292
0.858965
1.39761
0.921125
0.859433
1.42197
0.78571
0.975371
1.02505
0.722775
0.82947
0.914497
0.997815
1.29665
1.35015
1.3538
1.00745
0.906569
0.87499
0.772933
1.16938
1.07237
0.830161
0.866409
0.858812
0.906794
1.42291
0.883513
1.40354
0.826705
1.0631
0.774584
0.82236
0.725556
0.843877
1.24836
0.860607
0.754631
0.786667
1.41418
0.833785
0.801085
0.795416
0.820481
1.08189
0.972191
0.997658
0.901927
1.14479
0.72556
0.919748
0.916905
0.873689
1.20171
1.21574
0.780604
1.23127
1.33689
1.20295
0.938063
0.851531
0.841469
0.881748
1.32484
0.907353
1.00767
1.22959
1.35894
1.28503
1.20968
0.834696
1.03726
0.933513
0.787462
0.712607
0.893214
1.20094
1.43025
1.30721
0.853588
0.771911
0.769269
0.745612
1.10938
1.41718
1.01246
1.11261
1.13201
1.12238
1.09531
0.819749
0.861006
0.828177
0.782285
0.835219
0.874584
0.758772
0.868033
0.836085
1.24335
1.00071
0.720077
1.3978
0.847114
0.839212
0.898407
0.790177
1.13804
1.09509
0.83839
1.06412
1.35728
1.35957
1.05068
1.07624
0.937194
0.933202
0.880754
0.737558
0.982254
0.967266
0.859779
1.04543
1.01062
0.754366
0.554375
0.839978
1.33011
0.855871
1.07088
0.855583
1.34339
0.892865
0.798749
1.1466
1.0529
1.07086
0.999246
0.759656
0.885775
0.745295
1.05365
0.807905
1.24912
0.858686
0.841448
0.99602
0.740603
0.892692
1.37197
0.744474
1.07796
0.857204
0.794449
0.883624
0.860291
1.19891
1.22437
0.857492
1.30821
0.716668
1.23383
1.15564
1.1627
0.825745
1.18497
0.778676
1.09263
1.03023
0.703115
0.880487
0.768455
1.31266
1.07502
0.728227
0.786188
0.913976
0.78905
1.07632
0.781423
0.989653
1.40727
0.83293
1.33151
1.00159
1.13683
0.730796
1.18584
0.822451
1.22576
0.536687
0.784938
1.03947
1.13273
0.941621
1.12995
0.786796
0.901144
1.09889
1.04663
0.840894
1.10057
1.13873
1.22316
0.721662
0.864399
0.656559
1.05776
1.17256
1.05724
0.629932
0.883686
1.30819
0.996982
0.859388
1.23358
0.930476
1.09532
0.771867
0.917178
0.806679
1.2296
1.31619
1.06614
0.903789
0.862233
0.800561
1.04825
0.834237
1.18311
0.768015