/*--------------------------------*- C++ -*----------------------------------*\
  =========                 |
  \\      /  F ield         | OpenFOAM: The Open Source CFD Toolbox
   \\    /   O peration     | Website:  https://openfoam.org
    \\  /    A nd           | Version:  6
     \\/     M anipulation  |
\*---------------------------------------------------------------------------*/
FoamFile
{
    version     2.0;
    format      ascii;
    class       volVectorField;
    location    "0";
    object      U;
}
// * * * * * * * * * * * * * * * * * * * * * * * * * * * * * * * * * * * * * //

dimensions      [0 1 -1 0 0 0 0];

internalField   nonuniform List<vector> 
918
(
(0.649335 -0.244204 0)
(0.11178 2.93398 0)
(-0.289237 1.73305 0)
(0.56145 0.219094 0)
(0.187636 1.77309 -1.35569e-19)
(-0.226365 2.73432 -2.51891e-18)
(1.10045 1.81543 1.84571e-19)
(0.450152 0.269653 -1.95063e-20)
(0.670549 0.00719834 0)
(0.01873 1.78938 0)
(0.0103921 1.73707 0)
(0.943446 0.00345194 0)
(0.105827 3.17493 0)
(0.116424 3.00637 0)
(-0.138062 2.65041 -2.42849e-19)
(-0.0147505 1.71612 -9.82068e-20)
(0.695122 0.171548 1.61132e-18)
(0.181559 2.06689 1.01144e-19)
(0.977633 0.0302863 0)
(0.0145686 1.72584 0)
(0.102003 -0.156363 6.8994e-19)
(0.461937 -0.0497503 0)
(0.820026 0.0824943 0)
(1.07753 0.0463602 0)
(0.861643 0.0526754 0)
(0.329415 3.02338 0)
(-0.0113389 2.91531 5.5294e-19)
(-0.521317 1.82987 0)
(-0.0419444 1.67245 0)
(-0.336593 1.78472 0)
(-0.0089687 1.65301 0)
(-0.195675 1.63754 1.05711e-19)
(-0.0229676 1.70869 0)
(-0.344386 3.06012 -6.41614e-23)
(0.0281796 2.97109 1.95606e-18)
(0.0582986 3.05378 0)
(0.991761 -0.00581058 0)
(0.817898 1.33287 4.92836e-19)
(1.16929 1.68486 8.29729e-21)
(1.25336 1.62189 1.50254e-20)
(0.966254 1.88194 -4.56494e-20)
(0.896864 1.99263 3.03877e-19)
(0.484631 0.30769 1.89939e-20)
(0.519067 0.27017 0)
(1.39026 0.80822 0)
(0.401921 0.313506 7.79772e-20)
(0.37097 0.252389 -8.11376e-20)
(0.997313 -0.00938168 0)
(0.910058 0.00907419 0)
(0.672815 0.00204515 0)
(0.901032 -0.164125 0)
(0.867648 0.0449526 0)
(0.685197 0.0453177 0)
(0.00255303 1.61457 -8.35062e-19)
(0.0448668 1.83691 0)
(0.0250407 1.8481 0)
(-0.0113993 1.81926 0)
(-0.00159646 1.82478 0)
(-0.00459963 1.73449 0)
(0.0357397 1.76975 0)
(0.000769008 1.76668 0)
(-0.00689616 1.73906 0)
(-0.00117012 1.71961 0)
(1.01753 -0.00185606 0)
(0.964755 0.023355 0)
(0.96537 0.00216535 0)
(0.951467 0.00299253 0)
(0.944985 0.00229665 0)
(-0.0752083 2.75071 8.7504e-19)
(0.320322 2.55323 0)
(-0.174121 2.71581 0)
(0.00994879 3.32982 2.57432e-24)
(-0.356851 3.05289 -1.40437e-18)
(0.157142 3.0973 0)
(0.0815307 2.9209 0)
(0.0899978 3.05471 1.41103e-24)
(0.0396716 2.96537 0)
(0.111727 2.9921 0)
(-0.185067 2.93179 0)
(0.1454 2.71565 0)
(-0.0752453 2.80858 0)
(-0.00256898 2.69244 2.2269e-19)
(-0.0495737 2.66617 0)
(0.00278185 1.72011 0)
(-0.0402534 1.74684 9.68529e-20)
(0.00631173 1.74049 -1.29481e-19)
(0.721627 0.174168 -5.54543e-19)
(0.7334 0.147753 -5.45505e-19)
(0.686225 0.218834 -1.68552e-18)
(0.658689 0.207345 -1.07612e-18)
(0.175116 1.41439 0)
(0.36077 2.12067 -1.89848e-19)
(0.426018 2.14439 3.38232e-19)
(0.998004 -0.00463979 0)
(0.988198 -0.00151853 0)
(0.656873 -0.0158261 0)
(0.970191 0.0456334 0)
(0.971259 0.147436 -5.68252e-18)
(1.10661 0.313763 4.23741e-18)
(0.038606 1.76535 0)
(-0.00394048 1.75951 0)
(0.0330112 1.66708 0)
(-0.0315169 1.75562 0)
(-0.0230048 1.74646 0)
(0.414927 0.114291 -1.37026e-19)
(0.236566 0.214168 0)
(1.05204 -0.0072883 0)
(1.01375 -0.00900411 0)
(0.935616 0.05089 0)
(0.892254 0.154784 0)
(0.906086 0.0191359 0)
(1.14828 -0.00985508 0)
(0.853696 0.0533439 0)
(0.821558 0.0362943 2.56786e-18)
(-0.0765558 2.86195 5.66806e-19)
(-0.0437341 3.08837 0)
(-0.0616806 3.19873 0)
(0.127951 2.96725 0)
(0.0629792 2.95524 5.26857e-19)
(0.0594969 2.93926 0)
(0.0356322 2.9242 -1.60435e-18)
(-0.0370045 2.88452 5.33571e-19)
(0.0667447 1.72806 0)
(-0.0126026 1.74497 0)
(-0.0011325 1.72695 -3.87598e-21)
(-0.0523824 1.73085 0)
(0.0068869 1.72095 0)
(1.00201 0.0030211 0)
(0.992768 -0.00587526 0)
(0.985731 -0.00207145 0)
(0.999302 -0.0107009 0)
(0.987259 0.00557558 0)
(0.894286 1.42905 -5.83718e-19)
(0.943464 1.39639 0)
(0.825291 1.34541 7.52579e-20)
(0.79099 1.2996 0)
(1.2173 1.47716 2.0887e-20)
(1.35565 1.32772 -1.38661e-19)
(0.575783 2.12235 0)
(0.783381 2.03227 0)
(0.671765 2.11343 0)
(0.535255 1.2919 -4.23356e-19)
(0.54323 0.301143 0)
(0.563053 0.253404 2.82556e-19)
(1.2624 1.23075 0)
(1.28009 0.993562 0)
(1.38833 1.0616 2.9379e-19)
(1.33692 0.755982 0)
(1.39844 0.636884 4.55087e-20)
(0.997326 0.0124435 0)
(1.00395 -0.0141774 0)
(0.994216 -0.00307604 0)
(1.00706 0.00194376 0)
(1.00227 -0.0248406 0)
(0.989754 0.00146883 0)
(0.874024 -0.0145151 0)
(0.882301 -0.00981211 0)
(0.678064 -0.000444353 0)
(-0.000898163 1.62734 4.2715e-19)
(0.0139184 1.5832 0)
(0.0326732 1.66015 7.87492e-19)
(0.0169806 1.66876 -7.02355e-19)
(0.0687789 2.03302 -7.73303e-20)
(0.0175696 1.92656 0)
(0.0118245 1.97683 0)
(0.0060736 1.80711 0)
(0.00845809 1.73548 0)
(-0.0218321 1.74139 -1.99779e-21)
(-0.0141449 1.7263 0)
(0.0206542 1.74789 -1.47063e-19)
(0.011932 1.7387 2.62185e-19)
(0.0134474 1.75592 0)
(0.0196215 1.77372 0)
(0.00124803 1.75372 0)
(-0.00395282 1.76737 0)
(-0.00376306 1.79923 0)
(1.03351 0.0193243 0)
(1.03021 0.00236184 0)
(1.02021 -0.00369155 0)
(1.0027 0.000193235 0)
(0.979802 -0.00080468 0)
(0.975442 0.00304796 0)
(0.968257 0.00989425 0)
(0.95613 0.000668124 0)
(0.0506974 3.05058 -5.16353e-21)
(-0.00305697 3.07368 0)
(-6.84208e-06 2.97313 0)
(-0.0663046 2.94844 0)
(0.60493 3.03217 0)
(0.902642 2.48923 2.50168e-19)
(-0.0579483 2.69308 0)
(-0.107676 2.65799 0)
(-0.0206145 1.81132 0)
(-0.0047583 1.67471 0)
(0.00653415 1.73331 0)
(0.186816 1.86712 -1.03444e-19)
(0.0371093 1.79736 0)
(0.0654541 1.77743 0)
(0.0122967 1.7378 2.47987e-20)
(0.0189763 1.73529 1.19717e-19)
(0.00279378 1.73333 1.32452e-19)
(0.00647831 1.70148 0)
(0.751977 0.169933 8.9741e-19)
(0.752703 0.0924828 -8.88416e-19)
(0.217346 1.42407 0)
(0.224633 1.36729 -2.54354e-19)
(0.147289 1.5001 -7.40629e-19)
(0.0855699 1.49966 7.40948e-19)
(0.994129 -0.00263469 0)
(0.993695 -0.0144108 0)
(0.992885 0.00520281 0)
(0.978739 0.0027631 0)
(0.0123071 1.78424 0)
(0.00509426 1.7542 0)
(0.00936365 1.73402 0)
(0.320969 0.28922 6.58713e-19)
(0.254503 0.244035 -5.6866e-19)
(0.291276 0.224581 0)
(1.19072 0.107925 9.09925e-20)
(1.26358 0.0526127 0)
(1.12629 0.0391631 0)
(1.08213 0.00126906 0)
(0.779621 0.0985062 0)
(0.816312 0.0565305 -4.1723e-18)
(0.776113 0.0551352 1.58036e-18)
(-0.109105 2.9272 4.85371e-19)
(-0.115226 2.9276 -8.00116e-20)
(-0.000149473 3.09484 -1.14254e-20)
(0.0539571 3.14926 3.04164e-19)
(-0.0294949 2.89322 1.93735e-20)
(-0.225044 2.90717 -4.25375e-23)
(-0.366206 2.98102 -5.10692e-19)
(0.435097 2.98173 3.6825e-19)
(0.307942 3.1696 -2.81523e-19)
(1.013 0.00476896 0)
(1.00236 0.0403447 0)
(1.00071 0.0125389 0)
(0.991192 -0.00928712 0)
(0.986698 -0.00769173 0)
(0.972164 -0.000791074 0)
(0.985031 -0.00677129 0)
(0.992206 0.0120804 0)
(0.976421 0.0021697 0)
(0.994375 1.42774 -4.78767e-19)
(0.994868 1.43441 0)
(0.649959 1.26888 1.22113e-19)
(0.692653 1.34641 9.48152e-19)
(0.767601 1.3506 -5.72273e-19)
(0.727223 1.32229 1.11101e-18)
(0.503172 1.32387 2.00849e-18)
(0.485056 1.29485 3.70958e-19)
(0.649479 0.243793 1.12346e-18)
(0.599097 0.273246 2.81068e-19)
(0.622297 0.236782 5.29704e-19)
(1.31501 0.569128 -5.12797e-19)
(1.35724 0.414676 -5.62523e-19)
(0.00915498 1.69238 3.25682e-19)
(0.00571236 1.67502 0)
(1.07789 0.0377903 0)
(1.05201 0.0106878 0)
(1.04903 -0.000960642 0)
(0.00615027 3.05828 0)
(0.060767 3.01325 7.9341e-19)
(0.010491 3.00446 0)
(-0.00955945 2.96108 -7.92767e-19)
(-0.072885 3.03314 1.96421e-19)
(0.0155596 3.03319 0)
(1.06958 1.48093 6.00764e-20)
(1.0771 1.82678 -2.06545e-19)
(0.975503 1.49477 -1.14679e-19)
(-0.0749495 2.87431 -5.18463e-19)
(-0.0807015 2.80109 0)
(-0.0691016 2.78277 0)
(-0.0387748 1.74423 -5.2399e-21)
(0.0385863 1.72659 -2.91221e-19)
(-0.017005 1.69987 3.05369e-20)
(0.263205 1.37803 8.01813e-19)
(0.280192 1.31768 -5.37817e-19)
(0.0504048 1.59103 5.56461e-19)
(0.0859323 1.55155 -6.31744e-19)
(0.0306135 1.5425 5.32211e-20)
(-0.0462463 3.11003 -7.10992e-19)
(-0.147807 3.11524 8.07409e-19)
(0.0341693 2.96122 5.36308e-19)
(-0.0460264 3.03545 -4.37212e-19)
(0.265665 2.92508 -5.46696e-19)
(-0.061398 3.00548 -1.39409e-18)
(-0.166448 3.03608 1.52964e-18)
(0.538713 1.32521 0)
(0.598824 1.31282 -2.03689e-18)
(0.581739 1.24659 9.05421e-19)
(0.428753 1.34478 1.11783e-18)
(0.41013 1.30002 -1.74304e-18)
(1.26823 0.203714 3.21511e-19)
(1.30741 0.382248 0)
(1.34549 0.253609 -2.95016e-19)
(-0.014255 1.74174 -4.235e-21)
(0.000914825 1.71205 0)
(0.0148551 1.71571 0)
(0.304069 1.37144 -2.75988e-19)
(0.370789 1.35678 -6.47683e-19)
(0.368035 1.34648 1.21262e-18)
(0.993411 -0.0799986 0)
(1.11831 -0.149618 1.0433e-18)
(0.106919 1.71521 0)
(0.0462187 1.66195 0)
(1.04153 -0.0749162 5.68797e-20)
(0.873484 -0.115249 2.23783e-18)
(0.0844556 1.88286 1.3949e-19)
(0.12317 1.75621 0)
(-0.102438 2.81934 5.48397e-19)
(0.0485523 2.44175 0)
(1.22018 0.640816 -3.22061e-19)
(1.09012 -0.0100376 -2.10963e-20)
(1.102 0.0421661 0)
(0.965655 -0.003886 -1.91281e-21)
(0.0128903 1.95819 0)
(0.160868 1.81385 0)
(-0.0284385 1.87225 0)
(0.139848 1.91224 1.5128e-19)
(0.0436912 1.90113 5.59898e-20)
(1.03784 -0.00465741 1.40048e-20)
(1.13241 0.0763686 0)
(1.13941 0.0458673 0)
(-0.0111857 1.67572 0)
(0.034389 1.82926 0)
(-0.0355447 1.87283 0)
(0.252855 2.04125 5.86268e-20)
(1.01496 -0.134068 0)
(0.976836 -0.0644578 0)
(0.953212 0.160818 1.35107e-18)
(0.924492 0.0628324 -1.55287e-18)
(1.12777 -0.0731796 0)
(0.0966057 1.73431 0)
(-0.0605924 1.70423 0)
(-0.0241704 1.80431 0)
(-0.0326441 1.859 0)
(-0.123783 1.8089 0)
(0.023161 1.61358 0)
(1.05837 -1.38765e-05 0)
(1.07314 -0.0102979 1.28893e-21)
(0.951799 1.71672 -4.1251e-21)
(0.982077 -0.178305 -1.34842e-18)
(1.00251 0.0757372 1.65641e-18)
(1.1521 0.0743962 0)
(0.980324 -0.010319 1.32189e-18)
(1.06326 0.113198 -1.66872e-18)
(0.961886 0.0246358 0)
(0.0123003 1.81623 0)
(0.142236 1.75726 1.37293e-19)
(-0.0287517 1.66945 -9.67741e-20)
(1.24241 0.297482 1.8451e-18)
(1.17858 0.0806401 0)
(-0.683708 2.86384 -6.81514e-19)
(-0.0423177 3.29783 -3.12555e-20)
(-0.361063 2.7084 1.56198e-18)
(-0.0128384 2.79359 -2.62954e-19)
(0.0232935 2.68698 0)
(-0.0235308 2.92378 2.24092e-19)
(-0.297128 3.10321 6.28532e-19)
(-0.063684 2.89755 -4.04077e-19)
(-0.343886 3.0214 0)
(0.647854 0.293888 0)
(0.473801 0.348376 0)
(1.06311 0.886147 9.5313e-19)
(1.14936 0.93524 -1.1677e-18)
(1.16688 0.53818 0)
(1.14262 0.609574 0)
(1.0539 0.0570737 -2.4623e-18)
(0.972408 0.03269 3.19622e-18)
(1.10791 -0.159985 0)
(0.972655 -0.083442 0)
(0.849792 0.0970178 0)
(1.09513 -0.0659675 0)
(1.00109 0.0847443 0)
(0.957763 -0.0274322 0)
(1.04322 -0.162911 0)
(0.950146 -0.000934704 0)
(0.00518834 1.90445 0)
(0.0177587 1.74176 0)
(0.0548443 1.87093 0)
(0.16812 1.8462 0)
(0.222711 1.74088 0)
(0.0889653 1.61237 -4.48789e-19)
(0.149484 1.71794 0)
(-0.0010667 1.63449 2.87386e-19)
(0.128954 1.80861 -3.25753e-19)
(0.048486 1.85098 0)
(0.108838 1.71962 0)
(-0.088169 1.76409 0)
(-0.0933961 1.72918 0)
(-0.036305 1.85063 -4.64306e-20)
(0.0147121 1.7439 2.82214e-19)
(-0.0309797 1.85375 1.93951e-19)
(-0.0361784 1.68834 0)
(-0.0460689 1.84478 -2.34166e-19)
(-0.0636312 1.7184 -3.33324e-19)
(0.180178 1.92578 -1.73081e-20)
(-0.232778 1.50299 -3.60359e-19)
(0.0293066 1.61263 -2.478e-19)
(1.00085 -0.0477779 2.285e-18)
(0.971874 -0.0710232 -2.94555e-18)
(1.00441 0.0430447 -2.34975e-18)
(0.914204 0.0276208 3.11573e-18)
(1.09847 0.121587 0)
(0.992901 0.0398088 0)
(1.04287 0.0600404 0)
(1.07983 -0.0457146 0)
(0.950222 -0.0104147 0)
(1.10836 0.102122 0)
(1.10511 -0.008957 0)
(0.981837 0.0243892 0)
(-0.266541 1.62759 -1.43005e-20)
(-0.0398359 1.77642 0)
(-0.0149571 1.7482 0)
(0.0959787 1.74263 4.9943e-20)
(0.107036 1.74624 -3.77969e-21)
(-7.97775e-05 1.80629 1.1233e-19)
(-0.259819 1.66312 -1.1195e-19)
(-0.139327 1.74369 0)
(0.0751941 1.82837 0)
(0.159035 1.74171 0)
(-0.0931168 1.76967 0)
(-0.127882 1.77081 0)
(0.326388 1.91961 -2.42502e-19)
(0.443315 1.97297 -4.12607e-20)
(0.359623 1.50523 -1.89099e-19)
(0.259232 1.65041 5.1775e-19)
(0.35464 1.85656 9.68963e-20)
(1.03565 0.0504837 0)
(0.997551 0.0704151 0)
(0.995207 0.0791923 0)
(0.952994 -0.0468573 0)
(1.01485 -0.0870038 0)
(0.906699 0.0501345 0)
(1.00557 0.194981 0)
(1.03408 0.00912723 0)
(1.00634 -0.0461527 2.40763e-18)
(0.985771 -0.0506726 -3.083e-18)
(1.03798 0.0420434 -2.36786e-18)
(0.965288 0.0430267 3.05662e-18)
(0.919774 1.68385 0)
(0.860803 1.70668 -2.48864e-19)
(0.857635 1.61614 -2.50351e-19)
(0.964173 1.48801 3.26715e-19)
(0.90093 1.56941 1.61916e-18)
(0.868756 0.10234 1.0066e-18)
(1.13703 0.0692902 0)
(1.17279 0.303568 -1.50049e-18)
(1.06456 0.109008 -6.28245e-20)
(1.00302 0.127464 0)
(-0.857646 2.45882 8.06953e-19)
(-0.982253 2.41346 -9.76257e-19)
(-0.905277 3.33288 7.13346e-20)
(-1.35994 1.48723 -5.74199e-20)
(-0.178824 2.42986 2.9045e-19)
(-0.0223756 2.64599 0)
(-0.0698813 2.60611 -3.57867e-19)
(-0.492808 2.45218 -2.18636e-18)
(-0.263336 2.25992 0)
(-0.0659969 3.00508 3.8184e-20)
(-0.021292 3.09636 -2.70349e-19)
(0.0589204 3.08575 3.61643e-19)
(-0.106587 2.99406 0)
(-0.126146 2.93296 0)
(1.07516 1.71361 0)
(0.315206 1.2168 -8.53233e-19)
(1.08249 1.17797 3.57091e-19)
(0.914993 1.4776 0)
(0.806102 1.13762 -3.59988e-19)
(1.00892 1.1595 4.71043e-20)
(0.0731922 -0.0101044 -8.43974e-19)
(0.641946 0.250481 -4.11176e-22)
(0.60831 0.288115 6.10922e-19)
(0.399694 0.437668 3.45964e-20)
(0.295854 0.322189 -1.31939e-18)
(0.555518 0.431035 0)
(0.562899 0.540316 9.66057e-19)
(0.577512 0.326049 0)
(0.440249 0.352393 0)
(0.464866 0.334515 0)
(0.591987 0.750156 7.91963e-19)
(1.24672 0.184911 -1.48769e-18)
(1.11917 0.554228 0)
(1.19368 0.248612 0)
(0.786204 0.218048 9.41293e-19)
(0.584092 0.70931 -6.26219e-19)
(0.549046 0.515054 1.17207e-18)
(0.858316 0.402449 -1.30123e-18)
(0.992901 -0.0497447 1.69502e-18)
(1.01213 0.175354 -1.72101e-18)
(0.967296 0.0608949 0)
(0.997179 -0.0368052 0)
(0.983924 -0.0344841 -1.60092e-18)
(0.973063 0.0363537 1.58694e-18)
(0.970295 0.100137 0)
(0.944536 0.0293164 0)
(1.07296 -0.0231233 0)
(0.932905 -0.0439933 0)
(1.06393 -0.022225 0)
(0.981195 -0.0724477 0)
(0.215772 1.81692 0)
(0.182713 1.78331 0)
(0.216359 1.85284 -3.94636e-19)
(0.316683 2.01077 -8.4977e-20)
(0.353433 1.89477 -2.90902e-19)
(0.231127 1.91826 4.15426e-19)
(-0.0649832 1.82082 0)
(0.208643 1.78859 -3.82819e-19)
(-0.0862116 1.94156 0)
(0.296982 1.76347 -1.37463e-19)
(0.144242 1.60583 7.28047e-19)
(0.343613 1.65612 3.30861e-19)
(0.147133 1.7493 -1.60106e-19)
(0.0345227 1.73046 1.31857e-19)
(0.158534 1.88013 -3.97262e-19)
(0.262223 1.77944 0)
(0.285693 1.69138 2.9511e-19)
(0.129764 1.6699 -1.48479e-19)
(0.150329 1.73686 0)
(-0.000917131 1.78202 3.76807e-19)
(-0.122762 1.69498 0)
(0.0171041 1.68915 -3.20471e-19)
(0.0238219 1.62337 0)
(-0.0102486 1.7697 -1.48151e-19)
(0.10359 1.71331 0)
(0.0202124 1.75018 0)
(0.0449157 1.76029 1.63593e-19)
(0.165841 1.76932 1.84082e-19)
(0.0151578 1.7598 4.1322e-19)
(0.0226463 1.65653 3.61447e-21)
(0.195288 1.7724 8.22965e-20)
(0.0705216 1.52021 5.04687e-20)
(-0.166026 1.71561 0)
(-0.161897 1.75792 0)
(-0.00913529 1.69476 2.42028e-19)
(-0.0988137 1.72971 3.45321e-19)
(0.0874791 1.7858 -3.7973e-19)
(-0.0473392 1.83657 0)
(0.086342 1.80334 -4.36093e-19)
(-0.0937292 1.60618 1.13621e-19)
(-0.102729 1.78498 -1.50311e-20)
(0.173084 1.98442 -9.75936e-20)
(0.219252 1.56318 -1.11368e-19)
(-0.0217417 1.59364 2.50796e-19)
(0.988406 0.0675288 -1.63676e-18)
(0.9928 -0.149613 1.60095e-18)
(0.959167 0.0416692 0)
(0.97958 -0.0974512 2.28208e-18)
(0.903483 0.183252 -2.51041e-18)
(0.959827 0.0289516 2.72176e-18)
(0.961621 -0.0562804 -2.86998e-19)
(1.09735 -0.129834 0)
(1.0097 -0.00762308 1.59735e-18)
(0.964752 -0.0652233 -1.58124e-18)
(0.930902 -0.049154 -9.02823e-20)
(0.944215 0.162108 7.64174e-19)
(1.01262 0.12001 0)
(0.944038 0.0659702 -2.73736e-19)
(1.01267 0.0422616 0)
(0.926844 0.0886058 0)
(1.03701 0.0813572 0)
(0.943456 -0.0206305 0)
(1.01648 0.093168 5.54172e-19)
(1.06777 0.0385892 -1.26105e-18)
(0.996434 -0.0208172 -5.9977e-19)
(0.980557 -0.0189294 -6.52565e-19)
(1.14785 0.0807338 1.26788e-18)
(0.941051 0.0757817 0)
(0.911175 -0.0235965 0)
(0.0171821 1.93196 -5.27005e-20)
(0.291424 1.79154 -2.23082e-20)
(0.106806 1.63019 0)
(0.0267232 1.74999 5.3462e-20)
(-0.238744 1.71855 3.65259e-20)
(-0.129585 1.71602 -3.8485e-20)
(-0.1544 1.77332 2.85286e-19)
(-0.0567332 1.75849 -1.51947e-20)
(0.249186 1.68476 9.18478e-20)
(0.0924189 1.74462 -1.32985e-19)
(-0.109683 1.75204 1.58983e-19)
(-0.0221764 1.6433 -1.8288e-20)
(0.0325638 1.84954 2.53291e-19)
(0.481093 1.73206 1.75247e-19)
(0.277162 1.85111 4.80156e-19)
(0.761662 1.7918 2.48445e-19)
(0.576256 1.92013 3.96444e-20)
(0.657951 1.93222 0)
(0.352262 1.45941 2.27894e-19)
(0.261906 1.37432 2.79058e-19)
(0.257891 1.49789 4.98736e-20)
(0.36032 1.51408 -7.96917e-19)
(0.531376 1.4785 7.44929e-19)
(0.204842 1.52811 0)
(0.160361 1.41288 -5.10133e-19)
(0.0871011 1.63469 1.10478e-18)
(0.00365436 1.63965 1.10426e-20)
(0.00833456 1.52163 -1.38547e-18)
(0.727503 1.41141 1.15347e-18)
(0.497431 1.45685 0)
(1.04347 0.224462 5.26971e-20)
(1.00314 -0.178529 -4.48961e-20)
(0.914299 -0.14633 -8.15828e-19)
(1.01144 0.0234635 8.25962e-19)
(0.95829 0.0339339 0)
(0.750119 1.5717 0)
(0.934957 1.668 0)
(0.895415 1.30042 0)
(0.703166 1.43458 0)
(0.881096 1.57686 4.59401e-20)
(0.725561 1.50196 0)
(0.560824 1.42767 9.20517e-21)
(0.434217 1.47075 0)
(0.583411 1.6061 -8.72848e-19)
(0.620985 1.43204 5.72186e-19)
(0.817423 0.0820823 0)
(0.802877 0.110552 2.63735e-19)
(0.858465 0.130007 1.65293e-18)
(0.85551 0.0537926 -5.92187e-19)
(0.830439 0.105404 -1.92534e-18)
(1.16152 0.198037 -1.94389e-18)
(0.687113 0.45583 -3.91401e-20)
(0.992759 0.10691 1.42458e-18)
(0.90909 0.0393035 1.43709e-18)
(0.840712 0.195388 -2.20063e-18)
(0.925803 0.283401 2.63312e-19)
(0.67682 0.317185 -6.59012e-19)
(0.844933 0.318153 0)
(0.940979 0.13366 1.08196e-18)
(0.996896 0.188293 0)
(1.04514 0.0792273 0)
(0.939834 0.223236 6.47381e-19)
(0.940633 0.384424 -1.19211e-20)
(0.846214 0.0541749 -3.72244e-19)
(0.938063 0.0489434 0)
(0.920543 0.0398612 1.1986e-18)
(0.932628 -0.150445 1.54272e-18)
(1.12342 0.0827781 -1.18732e-18)
(0.997756 0.178998 -1.03867e-18)
(0.939308 -0.0456441 -1.61985e-18)
(0.860208 0.21372 0)
(0.932176 0.0013044 0)
(0.897646 0.116702 -9.64554e-19)
(0.914782 -0.0806994 3.55586e-19)
(1.01811 0.156494 1.38799e-18)
(1.07729 0.0925627 -1.79071e-18)
(0.9354 0.143305 1.59475e-18)
(0.892124 0.233326 0)
(1.05233 0.155735 0)
(0.894542 0.0960781 -6.97392e-19)
(0.940781 0.0767943 -1.13875e-18)
(0.552627 1.5877 4.32203e-19)
(0.583522 1.4881 -4.07372e-19)
(0.777573 1.52099 -5.94199e-19)
(0.688005 1.63677 1.65474e-19)
(0.819256 1.54406 -1.51856e-18)
(1.04865 1.7116 4.58371e-19)
(0.938283 1.52954 1.04983e-20)
(0.830796 1.65523 -5.88672e-19)
(0.776453 1.63148 9.11519e-19)
(0.723043 1.81708 2.12521e-19)
(1.02805 1.87379 -2.19779e-19)
(1.06971 2.01251 0)
(0.518687 1.41489 -9.00484e-20)
(-0.650771 1.71365 5.84868e-19)
(-0.519226 0.355454 5.02881e-19)
(-0.55473 0.385534 -2.08181e-20)
(0.231962 0.412144 7.50525e-19)
(0.206195 0.374007 -1.43755e-18)
(0.145148 0.535993 1.16995e-18)
(0.00159858 0.299863 -2.9201e-19)
(0.201063 0.24597 6.17777e-19)
(0.725656 0.296625 -5.54184e-19)
(0.626116 0.342124 0)
(0.640068 0.264498 7.22367e-21)
(0.566096 0.469571 5.21743e-19)
(0.316623 0.601256 -1.89011e-18)
(0.275727 0.492087 -3.46877e-20)
(0.419183 0.388156 0)
(0.499147 0.970744 7.06643e-19)
(0.708771 0.878254 7.77325e-19)
(0.679735 1.25495 -9.13119e-19)
(0.667468 0.913301 -3.65335e-19)
(0.88742 0.902595 -1.31479e-19)
(0.96226 1.12273 1.33723e-19)
(0.683783 0.728233 -1.33531e-18)
(0.7383 1.01093 3.45055e-19)
(1.03916 0.827729 0)
(0.895157 0.770877 -4.9584e-19)
(0.868514 0.369215 4.42115e-19)
(0.93422 0.426425 8.18056e-19)
(1.10655 0.319469 7.67177e-19)
(0.889414 0.436983 -8.68404e-19)
(1.04876 0.356424 0)
(0.997058 0.343897 0)
(0.677019 0.425497 -7.74263e-21)
(0.812373 0.239448 0)
(0.620121 0.340694 6.87312e-19)
(0.930225 0.260186 -7.73057e-21)
(0.91936 0.611935 3.59645e-18)
(0.709658 0.551414 1.01627e-18)
(0.683515 0.541738 -9.36885e-19)
(0.662803 0.455048 1.01995e-18)
(0.640234 0.579233 5.81773e-19)
(0.56606 0.37716 -5.69413e-19)
(1.02035 0.12301 1.32699e-18)
(0.931278 -0.157276 0)
(0.952401 0.0258295 8.84573e-19)
(0.864296 0.239524 -1.97173e-18)
(1.07093 -0.0233877 9.48909e-19)
(0.911437 0.0416369 -1.97546e-18)
(1.05067 -0.0237361 0)
(0.968961 -0.0253038 -4.17462e-19)
(0.97532 0.107942 1.05766e-18)
(0.960676 -0.00372507 -5.46948e-19)
(0.933042 -0.167619 3.97167e-19)
(-0.13363 1.78454 0)
(0.266716 1.66533 0)
(-0.108763 1.77018 0)
(-0.0707063 1.7928 0)
(0.0240514 1.87548 5.03004e-19)
(0.0194312 1.75987 -1.0901e-19)
(0.100677 1.60556 -1.8288e-19)
(0.265859 1.57821 2.48265e-19)
(-0.228677 1.80724 -5.32705e-19)
(0.0823662 1.66439 3.99604e-19)
(-0.0201286 1.89337 5.65735e-20)
(0.0157646 1.67794 -3.56151e-19)
(0.0728988 1.71855 -6.11859e-20)
(0.334709 1.76228 -5.14004e-20)
(-0.0128737 1.68505 -4.03022e-19)
(0.0700106 1.63256 0)
(-0.0036201 1.71444 2.04663e-19)
(-0.0118826 1.76325 1.16943e-19)
(0.136896 1.61705 -2.03273e-19)
(0.11262 1.6771 0)
(0.220825 1.55357 -7.57084e-19)
(0.128287 1.63474 5.50675e-19)
(0.359064 1.64356 -5.53514e-19)
(0.229521 1.62668 3.93001e-19)
(-0.152204 1.38677 0)
(0.0995912 1.5705 -2.83572e-19)
(-0.0559508 1.47684 -5.71679e-19)
(-0.095312 1.63447 0)
(0.0563982 1.77293 1.84898e-20)
(0.0487461 1.84277 1.43691e-19)
(0.00668932 1.73925 4.54017e-20)
(0.0591715 1.61233 -7.7403e-19)
(-0.0534389 1.81323 2.84175e-19)
(-0.148374 1.49629 1.91031e-19)
(0.106088 1.98869 0)
(0.0104623 1.9503 0)
(-0.126271 1.77565 1.48623e-19)
(0.179912 1.70863 -5.53977e-20)
(-0.0168834 1.79598 0)
(0.120202 1.78128 9.85181e-20)
(0.107458 1.72322 -2.00237e-19)
(0.951252 0.318327 0)
(1.13196 0.119227 -1.48943e-19)
(0.937724 0.149892 -1.01462e-18)
(0.883539 -0.0204194 0)
(0.88989 -0.236208 0)
(1.14415 -0.103572 -3.56881e-20)
(1.02574 -0.215055 1.64785e-18)
(0.932886 0.00729963 2.03676e-18)
(1.01734 0.012298 0)
(0.98935 -0.0049963 0)
(0.942528 -0.0699052 1.01944e-18)
(0.967484 0.038692 0)
(0.930713 0.16455 0)
(-0.0770036 1.8208 0)
(-0.0602863 1.5542 8.41963e-20)
(-0.099363 1.57431 7.62626e-20)
(-0.0064657 1.75282 0)
(0.277407 1.79972 1.8705e-19)
(0.119459 1.76986 -4.32597e-20)
(0.0518912 1.64564 0)
(0.289658 1.58981 0)
(0.30287 1.42515 -8.68899e-19)
(0.318986 1.44951 0)
(0.49253 1.80353 9.61515e-19)
(0.558542 1.73721 0)
(0.578353 1.77446 -3.79913e-19)
(0.472587 1.46407 -2.62419e-20)
(0.701934 1.37182 -1.38587e-18)
(0.613623 1.37648 1.81641e-18)
(0.506249 1.39159 3.4563e-19)
(0.412094 1.44004 0)
(0.540616 1.46095 0)
(0.565182 1.45678 0)
(0.418141 1.34143 -1.28034e-18)
(0.416277 1.45017 -8.4816e-19)
(0.288516 1.43206 -1.89794e-19)
(0.504723 1.51821 1.50437e-19)
(0.278212 1.44125 0)
(0.500981 1.43104 0)
(0.401171 1.36501 -3.46687e-19)
(0.385358 1.45062 0)
(0.477262 1.46414 0)
(0.733167 1.38189 -9.95305e-19)
(0.469423 1.17179 -6.94906e-20)
(0.795629 1.48329 0)
(0.729214 1.55162 1.52564e-18)
(0.779516 1.47613 -2.92853e-19)
(1.1229 1.17332 0)
(0.900112 1.00242 5.31993e-19)
(0.318032 1.62195 0)
(0.34691 1.27386 0)
(0.745247 1.40973 -6.29193e-19)
(0.716893 1.53462 -4.0174e-19)
(0.805661 1.51625 7.05428e-19)
(0.749757 1.5875 -2.31496e-19)
(0.747606 1.42827 0)
(0.692603 1.47965 3.01905e-19)
(0.722704 1.45799 -5.6361e-19)
(0.779428 1.40266 4.4794e-21)
(0.585927 1.4764 0)
(0.492024 1.59693 -3.77974e-19)
(0.569301 1.43699 0)
(0.81167 0.149935 0)
(0.809828 0.218328 0)
(0.694129 0.199472 0)
(0.769856 0.32557 -1.07831e-18)
(0.757923 0.180809 5.86011e-19)
(1.03255 -0.065306 -7.26773e-19)
(0.88306 -0.0430627 0)
(0.91488 -0.0385938 3.13495e-19)
(0.825077 0.16441 1.26638e-18)
(0.757679 0.0692012 -8.16774e-19)
(0.920361 2.25313 1.20399e-19)
(0.822728 2.013 0)
(0.869402 2.302 3.59084e-19)
(0.173063 2.43343 -2.88404e-19)
(0.238983 1.87878 -5.67872e-19)
(0.137444 1.45229 1.00779e-18)
(0.265478 1.50878 0)
(0.131829 0.928844 -2.12531e-19)
(-0.00264818 1.12794 1.37199e-18)
(-0.287515 0.869396 -2.73382e-19)
(0.0640711 0.575811 3.51029e-19)
(0.253276 0.614149 7.03286e-19)
(0.552719 0.632983 0)
(0.223614 0.878663 0)
(0.111117 0.868751 0)
(0.820203 0.759302 3.99952e-19)
(0.77313 0.573874 -9.83803e-19)
(0.933251 0.634652 8.28601e-19)
(0.794273 0.416352 -7.32512e-19)
(1.04191 0.691132 0)
(0.948226 0.670327 -2.47308e-19)
(0.798844 0.333663 -1.35566e-18)
(0.751574 0.222901 -1.6886e-18)
(0.593183 0.465453 1.07065e-18)
(0.601183 0.451998 -1.00842e-18)
(0.758837 0.371553 -8.03861e-19)
(0.681051 0.321955 1.00031e-18)
(1.10039 -0.00352763 -9.77563e-19)
(1.10178 0.0200377 2.04602e-18)
(1.08966 0.0337968 1.2466e-18)
(1.05231 -0.0955803 -1.48299e-18)
(0.776583 0.0845494 0)
(0.730738 -0.0532282 -2.61789e-18)
(0.178037 1.58128 1.08446e-19)
(-0.129701 1.74867 0)
(0.2038 1.80898 6.62437e-19)
(0.130837 1.70118 -6.22365e-19)
(0.0340793 1.76186 3.30221e-19)
(0.112776 1.77688 0)
(-0.0199379 1.83416 0)
(0.107177 1.61824 -7.19866e-20)
(0.0126881 1.56317 6.47006e-20)
(0.234846 1.62108 -1.02903e-20)
(-0.317017 1.86963 -1.50675e-19)
(-0.17476 1.68527 9.19369e-20)
(0.529732 1.58766 -1.10196e-18)
(0.729702 1.63331 1.18362e-18)
(0.461162 1.73904 -4.98235e-19)
(0.760191 1.61361 5.17619e-20)
(0.528315 1.73611 0)
(0.670086 1.75159 -4.93512e-19)
(0.552406 1.71916 4.79778e-19)
(0.49329 1.65662 4.81513e-19)
(0.604978 1.73049 0)
(0.707346 1.66043 0)
(0.769348 1.37952 1.28218e-18)
(0.263124 1.54053 1.58175e-18)
(0.17328 1.54808 -1.12254e-18)
(0.125349 1.56233 -1.94487e-19)
(0.460277 1.38919 4.2482e-19)
(0.357282 1.30411 -1.00901e-18)
(0.638538 1.41976 -9.96918e-19)
(0.635092 1.45294 0)
(0.583562 1.41107 -1.09742e-18)
(0.743238 1.45725 0)
(0.666505 1.59727 0)
(0.541055 1.81737 -6.23153e-19)
(0.505476 1.83323 -4.53979e-19)
(0.238056 1.9323 5.59182e-19)
(-0.418537 1.53237 0)
(-0.0534409 1.42462 -5.11873e-19)
(0.0919957 1.51604 -6.25249e-19)
(0.527925 1.62656 0)
(0.466877 1.96369 4.28586e-19)
(-0.00329848 2.09337 0)
(0.557659 0.976428 -1.49177e-18)
(0.62186 1.0056 2.00742e-18)
(0.745656 0.796601 -1.97705e-18)
(0.345859 0.78328 -1.84011e-19)
(0.379596 0.81096 -7.22498e-19)
(0.670872 1.69817 3.46956e-19)
(0.688966 1.65435 -8.51913e-19)
(0.51892 1.82619 1.02347e-18)
(0.518862 1.63553 -7.03979e-19)
(0.61051 1.58714 -1.04393e-18)
(0.618745 1.67953 -7.27453e-20)
(0.705274 1.53922 8.3364e-19)
(0.538616 1.62802 6.27499e-20)
(0.544938 1.47454 4.68418e-19)
)
;

boundaryField
{
    wall-4
    {
        type            noSlip;
    }
    velocity-inlet-5
    {
        type            fixedValue;
        value           uniform (1 0 0);
    }
    velocity-inlet-6
    {
        type            fixedValue;
        value           uniform (0 3 0);
    }
    pressure-outlet-7
    {
        type            zeroGradient;
    }
    wall-8
    {
        type            noSlip;
    }
    frontAndBackPlanes
    {
        type            empty;
    }
}

