/*--------------------------------*- C++ -*----------------------------------*\
  =========                 |
  \\      /  F ield         | OpenFOAM: The Open Source CFD Toolbox
   \\    /   O peration     | Website:  https://openfoam.org
    \\  /    A nd           | Version:  6
     \\/     M anipulation  |
\*---------------------------------------------------------------------------*/
FoamFile
{
    version     2.0;
    format      ascii;
    class       volVectorField;
    location    "0";
    object      U;
}
// * * * * * * * * * * * * * * * * * * * * * * * * * * * * * * * * * * * * * //

dimensions      [0 1 -1 0 0 0 0];

internalField   nonuniform List<vector> 
9000
(
(0.556461 0.121884 0)
(0.43807 0.0578311 0)
(0.270701 0.0187615 0)
(0.191907 0.0086387 0)
(0.14916 0.00433941 0)
(0.123442 0.00236035 0)
(0.107035 0.00140031 0)
(0.0960944 0.000884779 0)
(0.0885776 0.000581569 0)
(0.0833225 0.000391075 0)
(0.0796162 0.000265824 0)
(0.0769946 0.000181088 0)
(0.0751432 0.000122841 0)
(0.0738422 8.25241e-05 0)
(0.0729351 5.46113e-05 0)
(0.0723092 3.53877e-05 0)
(0.071883 2.22847e-05 0)
(0.0715973 1.34948e-05 0)
(0.0714092 7.73274e-06 0)
(0.0712879 4.08141e-06 0)
(0.0712112 1.88623e-06 0)
(0.0711634 6.81944e-07 0)
(0.0711336 1.40054e-07 0)
(0.0711142 3.05992e-08 0)
(0.0711 1.94125e-07 0)
(0.0710877 5.20989e-07 0)
(0.0710753 9.36023e-07 0)
(0.0710617 1.3871e-06 0)
(0.0710465 1.83658e-06 0)
(0.0710301 2.25472e-06 0)
(0.0710132 2.6145e-06 0)
(0.0709973 2.88729e-06 0)
(0.0709844 3.03884e-06 0)
(0.0709774 3.02515e-06 0)
(0.0709801 2.78775e-06 0)
(0.070998 2.24748e-06 0)
(0.071038 1.29581e-06 0)
(0.07111 -2.18555e-07 0)
(0.0712276 -2.51211e-06 0)
(0.0714097 -5.90835e-06 0)
(0.0716836 -1.09263e-05 0)
(0.0720901 -1.84962e-05 0)
(0.0726923 -3.05614e-05 0)
(0.0735952 -5.18333e-05 0)
(0.0749888 -9.52304e-05 0)
(0.0772622 -0.000204218 0)
(0.0812799 -0.000546391 0)
(0.0888081 -0.00152385 0)
(0.108875 -0.00621642 0)
(0.158707 -0.0448863 0)
(0.893899 0.289635 0)
(0.810236 0.210737 0)
(0.617289 0.118666 0)
(0.488716 0.0680122 0)
(0.402546 0.0407136 0)
(0.344099 0.0256772 0)
(0.303844 0.016941 0)
(0.275661 0.0115455 0)
(0.255668 0.0080348 0)
(0.241367 0.00565939 0)
(0.231097 0.00400828 0)
(0.223719 0.00284081 0)
(0.218433 0.00200731 0)
(0.214665 0.00140984 0)
(0.211998 0.000981675 0)
(0.210128 0.000676001 0)
(0.20883 0.000459278 0)
(0.207942 0.000307153 0)
(0.207341 0.000201803 0)
(0.206941 0.000130141 0)
(0.206679 8.25563e-05 0)
(0.206507 5.20082e-05 0)
(0.206395 3.33552e-05 0)
(0.20632 2.28584e-05 0)
(0.206265 1.78048e-05 0)
(0.206222 1.62222e-05 0)
(0.206183 1.66609e-05 0)
(0.206144 1.8025e-05 0)
(0.206106 1.944e-05 0)
(0.206068 2.01451e-05 0)
(0.206034 1.94016e-05 0)
(0.206008 1.64074e-05 0)
(0.205996 1.021e-05 0)
(0.206009 -3.94376e-07 0)
(0.206058 -1.69882e-05 0)
(0.206162 -4.17103e-05 0)
(0.206343 -7.75172e-05 0)
(0.206634 -0.000128592 0)
(0.207079 -0.000201017 0)
(0.207741 -0.000303937 0)
(0.208709 -0.000451705 0)
(0.210116 -0.000668122 0)
(0.212165 -0.000995457 0)
(0.215185 -0.00151521 0)
(0.219731 -0.00239956 0)
(0.226809 -0.00404965 0)
(0.23833 -0.00749199 0)
(0.257855 -0.0154464 0)
(0.295355 -0.0355781 0)
(0.363696 -0.0979924 0)
(0.969214 0.296113 0)
(0.959385 0.292424 0)
(0.824135 0.207118 0)
(0.703051 0.138129 0)
(0.605769 0.0918688 0)
(0.532518 0.0621924 0)
(0.478545 0.0429843 0)
(0.439014 0.0302164 0)
(0.410082 0.0214898 0)
(0.388913 0.0153855 0)
(0.373442 0.0110426 0)
(0.362166 0.00791833 0)
(0.353984 0.00565721 0)
(0.348082 0.00401755 0)
(0.343857 0.0028302 0)
(0.340858 0.001974 0)
(0.338751 0.00136078 0)
(0.337286 0.000925679 0)
(0.336281 0.000620717 0)
(0.335599 0.000410311 0)
(0.335141 0.000268088 0)
(0.334835 0.000174555 0)
(0.33463 0.000115344 0)
(0.33449 7.99037e-05 0)
(0.334389 6.0493e-05 0)
(0.33431 5.14123e-05 0)
(0.334244 4.84093e-05 0)
(0.334184 4.82141e-05 0)
(0.33413 4.81699e-05 0)
(0.334081 4.59283e-05 0)
(0.334043 3.91836e-05 0)
(0.334025 2.54228e-05 0)
(0.334037 1.66293e-06 0)
(0.334096 -3.58555e-05 0)
(0.334223 -9.20621e-05 0)
(0.33445 -0.000173605 0)
(0.334816 -0.000289661 0)
(0.335377 -0.000453195 0)
(0.336208 -0.000683003 0)
(0.337414 -0.00100719 0)
(0.339148 -0.00146935 0)
(0.341627 -0.00214018 0)
(0.345182 -0.0031404 0)
(0.350322 -0.00468849 0)
(0.357863 -0.00720499 0)
(0.369153 -0.0115514 0)
(0.386443 -0.019592 0)
(0.413232 -0.0354595 0)
(0.455854 -0.0682646 0)
(0.517743 -0.140392 0)
(0.981093 0.258778 0)
(1.01466 0.325617 0)
(0.939937 0.272109 0)
(0.848141 0.202773 0)
(0.760151 0.145809 0)
(0.686574 0.104206 0)
(0.628426 0.0747601 0)
(0.58372 0.0539413 0)
(0.54985 0.0390917 0)
(0.524424 0.0283893 0)
(0.505474 0.0206096 0)
(0.491442 0.0149229 0)
(0.481122 0.0107556 0)
(0.473589 0.00770256 0)
(0.468135 0.00547209 0)
(0.464221 0.00385068 0)
(0.461439 0.00268037 0)
(0.459483 0.00184347 0)
(0.458122 0.00125193 0)
(0.457185 0.000839924 0)
(0.456545 0.000558233 0)
(0.45611 0.000370214 0)
(0.455813 0.000248663 0)
(0.455607 0.00017345 0)
(0.455459 0.000129683 0)
(0.455346 0.000106298 0)
(0.455255 9.49504e-05 0)
(0.455178 8.91466e-05 0)
(0.455112 8.35417e-05 0)
(0.455062 7.33565e-05 0)
(0.455032 5.38622e-05 0)
(0.455035 1.98878e-05 0)
(0.455087 -3.47013e-05 0)
(0.455211 -0.000117616 0)
(0.455439 -0.000238935 0)
(0.455812 -0.000412198 0)
(0.456388 -0.000656013 0)
(0.457242 -0.000996533 0)
(0.45848 -0.0014714 0)
(0.460245 -0.00213628 0)
(0.462738 -0.00307622 0)
(0.466248 -0.0044258 0)
(0.471192 -0.00640683 0)
(0.478186 -0.00940065 0)
(0.488154 -0.0140908 0)
(0.502476 -0.0217482 0)
(0.523152 -0.0347942 0)
(0.552637 -0.057821 0)
(0.593492 -0.0989218 0)
(0.643436 -0.171593 0)
(0.978234 0.220737 0)
(1.0293 0.329532 0)
(1.00055 0.310004 0)
(0.941889 0.251796 0)
(0.872997 0.192993 0)
(0.808507 0.144501 0)
(0.753586 0.107224 0)
(0.709094 0.0792919 0)
(0.674084 0.0585263 0)
(0.647051 0.0431061 0)
(0.626457 0.0316483 0)
(0.610941 0.0231332 0)
(0.599364 0.0168123 0)
(0.590806 0.0121331 0)
(0.584539 0.00868448 0)
(0.579993 0.00615802 0)
(0.576727 0.00432132 0)
(0.574406 0.00299862 0)
(0.572771 0.00205696 0)
(0.571631 0.00139591 0)
(0.570842 0.000939787 0)
(0.570297 0.000631828 0)
(0.56992 0.000429588 0)
(0.569655 0.000301437 0)
(0.569464 0.000223805 0)
(0.56932 0.000179034 0)
(0.569207 0.000153678 0)
(0.569117 0.000137162 0)
(0.569047 0.00012068 0)
(0.569001 9.62764e-05 0)
(0.568988 5.60232e-05 0)
(0.569022 -8.77464e-06 0)
(0.569125 -0.000108426 0)
(0.569326 -0.000255849 0)
(0.569665 -0.000467856 0)
(0.570195 -0.000766915 0)
(0.570986 -0.00118371 0)
(0.572134 -0.00176102 0)
(0.573766 -0.00255977 0)
(0.576056 -0.00366883 0)
(0.57924 -0.00522128 0)
(0.583648 -0.00742229 0)
(0.589738 -0.0105977 0)
(0.598155 -0.0152808 0)
(0.609788 -0.0223666 0)
(0.62583 -0.0333822 0)
(0.647728 -0.0509301 0)
(0.676703 -0.0792866 0)
(0.71267 -0.12459 0)
(0.750966 -0.193853 0)
(0.97236 0.187288 0)
(1.0272 0.317023 0)
(1.02935 0.325948 0)
(1.00008 0.283682 0)
(0.953094 0.229396 0)
(0.902636 0.178901 0)
(0.855867 0.136896 0)
(0.815719 0.103616 0)
(0.782779 0.0778531 0)
(0.756536 0.058144 0)
(0.736058 0.0431696 0)
(0.720329 0.0318505 0)
(0.708408 0.023336 0)
(0.699478 0.0169654 0)
(0.69286 0.0122283 0)
(0.688007 0.00873115 0)
(0.684485 0.00617112 0)
(0.681953 0.00431539 0)
(0.680151 0.00298557 0)
(0.67888 0.00204553 0)
(0.677988 0.00139183 0)
(0.677364 0.000946239 0)
(0.676926 0.000649882 0)
(0.676615 0.000458578 0)
(0.67639 0.000339167 0)
(0.676221 0.000266608 0)
(0.676092 0.000221666 0)
(0.675994 0.000189049 0)
(0.675925 0.000155889 0)
(0.675889 0.000110445 0)
(0.675898 4.09316e-05 0)
(0.675969 -6.56093e-05 0)
(0.676128 -0.00022453 0)
(0.67641 -0.000455002 0)
(0.676862 -0.000781846 0)
(0.677546 -0.00123802 0)
(0.678543 -0.00186817 0)
(0.679962 -0.00273392 0)
(0.681947 -0.00392192 0)
(0.68469 -0.00555648 0)
(0.688445 -0.00781976 0)
(0.693555 -0.0109846 0)
(0.700477 -0.0154686 0)
(0.709812 -0.0219224 0)
(0.722322 -0.0313722 0)
(0.738894 -0.0454343 0)
(0.760361 -0.0665934 0)
(0.786906 -0.0984144 0)
(0.816943 -0.145079 0)
(0.845344 -0.209514 0)
(0.966967 0.158814 0)
(1.01937 0.296058 0)
(1.0407 0.326151 0)
(1.03472 0.30028 0)
(1.00858 0.254052 0)
(0.973879 0.205326 0)
(0.938009 0.161552 0)
(0.905005 0.124959 0)
(0.87658 0.0954989 0)
(0.853112 0.0722926 0)
(0.834292 0.0542659 0)
(0.819525 0.0404051 0)
(0.808135 0.0298381 0)
(0.799477 0.0218462 0)
(0.79298 0.0158504 0)
(0.78816 0.0113903 0)
(0.784623 0.00810332 0)
(0.782054 0.00570571 0)
(0.780205 0.00397716 0)
(0.778885 0.00274761 0)
(0.777948 0.00188669 0)
(0.777284 0.00129504 0)
(0.776812 0.000897355 0)
(0.776472 0.000636718 0)
(0.776224 0.000470126 0)
(0.77604 0.000364848 0)
(0.775901 0.000295516 0)
(0.7758 0.000241764 0)
(0.775735 0.000186264 0)
(0.775714 0.000113049 0)
(0.775748 5.98606e-06 0)
(0.775859 -0.000152716 0)
(0.776075 -0.000384113 0)
(0.776435 -0.000714397 0)
(0.776993 -0.00117728 0)
(0.777816 -0.00181718 0)
(0.778995 -0.00269373 0)
(0.780645 -0.00388828 0)
(0.782919 -0.00551354 0)
(0.786015 -0.00772832 0)
(0.790189 -0.0107599 0)
(0.795772 -0.014939 0)
(0.803182 -0.0207525 0)
(0.812931 -0.0289244 0)
(0.8256 -0.0405297 0)
(0.841745 -0.0571379 0)
(0.861651 -0.0809366 0)
(0.884777 -0.114671 0)
(0.908865 -0.160917 0)
(0.929217 -0.220227 0)
(0.962861 0.135102 0)
(1.01058 0.27139 0)
(1.04298 0.315699 0)
(1.05427 0.304365 0)
(1.04619 0.267555 0)
(1.02696 0.223079 0)
(1.00306 0.179965 0)
(0.978814 0.14201 0)
(0.956573 0.110279 0)
(0.937377 0.0845653 0)
(0.921468 0.0641532 0)
(0.908664 0.0481917 0)
(0.898586 0.0358603 0)
(0.890795 0.0264337 0)
(0.884863 0.019299 0)
(0.880407 0.013952 0)
(0.877098 0.00998563 0)
(0.874666 0.00707526 0)
(0.872897 0.00496515 0)
(0.871617 0.00345565 0)
(0.870697 0.00239224 0)
(0.870036 0.00165623 0)
(0.869559 0.001157 0)
(0.869212 0.000825604 0)
(0.868956 0.000609588 0)
(0.868765 0.000468709 0)
(0.868623 0.000371504 0)
(0.868524 0.000292451 0)
(0.868468 0.000209601 0)
(0.868463 0.000102526 0)
(0.868524 -4.95562e-05 0)
(0.868672 -0.000269633 0)
(0.868941 -0.000584874 0)
(0.869372 -0.00102894 0)
(0.870022 -0.00164487 0)
(0.870962 -0.00248892 0)
(0.872287 -0.00363579 0)
(0.874114 -0.00518612 0)
(0.876598 -0.00727721 0)
(0.879931 -0.0100987 0)
(0.884356 -0.0139156 0)
(0.890171 -0.0191019 0)
(0.897733 -0.0261881 0)
(0.907437 -0.0359268 0)
(0.919671 -0.0493728 0)
(0.934683 -0.0679572 0)
(0.952337 -0.0934922 0)
(0.971656 -0.127956 0)
(0.990225 -0.17273 0)
(1.00408 -0.227093 0)
(0.959939 0.115427 0)
(1.00261 0.245624 0)
(1.0409 0.298328 0)
(1.06445 0.29872 0)
(1.07116 0.271237 0)
(1.066 0.232355 0)
(1.05401 0.191674 0)
(1.03918 0.154027 0)
(1.02409 0.121399 0)
(1.01018 0.0942298 0)
(0.99811 0.0722072 0)
(0.98806 0.0547026 0)
(0.979939 0.0410026 0)
(0.973526 0.0304197 0)
(0.968556 0.0223407 0)
(0.964764 0.0162421 0)
(0.961908 0.0116897 0)
(0.959781 0.00833048 0)
(0.958211 0.00588216 0)
(0.957061 0.00412162 0)
(0.95622 0.00287458 0)
(0.955607 0.00200608 0)
(0.955156 0.00141232 0)
(0.954823 0.00101381 0)
(0.954574 0.000749633 0)
(0.954387 0.000572688 0)
(0.95425 0.000445816 0)
(0.954157 0.000338554 0)
(0.954113 0.000224411 0)
(0.954125 7.84768e-05 0)
(0.95421 -0.000124777 0)
(0.954393 -0.000413669 0)
(0.954708 -0.00082163 0)
(0.955197 -0.0013899 0)
(0.955919 -0.00217084 0)
(0.956946 -0.00323227 0)
(0.958373 -0.00466329 0)
(0.960316 -0.00658226 0)
(0.962921 -0.00914803 0)
(0.966368 -0.0125756 0)
(0.970873 -0.0171582 0)
(0.97669 -0.0232968 0)
(0.984097 -0.03154 0)
(0.99337 -0.0426311 0)
(1.00471 -0.0575543 0)
(1.01811 -0.0775521 0)
(1.03315 -0.104052 0)
(1.04863 -0.138386 0)
(1.06227 -0.181109 0)
(1.07085 -0.230882 0)
(0.957908 0.098933 0)
(0.995969 0.220077 0)
(1.037 0.276639 0)
(1.06898 0.285767 0)
(1.08737 0.266674 0)
(1.09441 0.233862 0)
(1.09356 0.196757 0)
(1.08812 0.160727 0)
(1.08057 0.128413 0)
(1.07251 0.100805 0)
(1.06489 0.0779767 0)
(1.05816 0.0595465 0)
(1.05248 0.0449416 0)
(1.04785 0.0335456 0)
(1.04417 0.0247736 0)
(1.0413 0.0181059 0)
(1.03909 0.013099 0)
(1.03742 0.0093849 0)
(1.03616 0.0066647 0)
(1.03521 0.00469945 0)
(1.03451 0.00330061 0)
(1.03399 0.00232101 0)
(1.0336 0.00164666 0)
(1.0333 0.00118966 0)
(1.03307 0.000882142 0)
(1.0329 0.000671228 0)
(1.03277 0.000514794 0)
(1.03269 0.00037793 0)
(1.03266 0.000229913 0)
(1.03269 4.15396e-05 0)
(1.0328 -0.000217346 0)
(1.03301 -0.000580302 0)
(1.03336 -0.00108691 0)
(1.03389 -0.00178576 0)
(1.03466 -0.00273813 0)
(1.03574 -0.00402263 0)
(1.03722 -0.0057413 0)
(1.03921 -0.00802786 0)
(1.04185 -0.0110587 0)
(1.04528 -0.0150676 0)
(1.04971 -0.0203654 0)
(1.05532 -0.027365 0)
(1.06231 -0.0366105 0)
(1.07085 -0.0488065 0)
(1.08096 -0.0648355 0)
(1.09247 -0.0857341 0)
(1.10475 -0.112576 0)
(1.11657 -0.146184 0)
(1.12587 -0.186569 0)
(1.13011 -0.232157 0)
(0.956507 0.0848665 0)
(0.990661 0.195346 0)
(1.0326 0.252369 0)
(1.07023 0.267457 0)
(1.09762 0.255404 0)
(1.1149 0.228542 0)
(1.12403 0.195634 0)
(1.12749 0.162165 0)
(1.12742 0.131166 0)
(1.12541 0.104035 0)
(1.12254 0.0811794 0)
(1.11948 0.062454 0)
(1.11658 0.0474398 0)
(1.11403 0.0356124 0)
(1.11188 0.026437 0)
(1.11012 0.0194168 0)
(1.10872 0.0141157 0)
(1.10761 0.0101641 0)
(1.10676 0.00725711 0)
(1.10609 0.00514797 0)
(1.10558 0.00364022 0)
(1.10518 0.00257925 0)
(1.10487 0.00184442 0)
(1.10463 0.00134209 0)
(1.10444 0.000999396 0)
(1.10429 0.000759106 0)
(1.10418 0.00057516 0)
(1.10412 0.000408931 0)
(1.1041 0.000225993 0)
(1.10414 -6.76118e-06 0)
(1.10427 -0.000323799 0)
(1.1045 -0.000763618 0)
(1.10487 -0.00137158 0)
(1.10542 -0.00220313 0)
(1.10622 -0.00332767 0)
(1.10732 -0.00483337 0)
(1.1088 -0.00683333 0)
(1.11078 -0.00947359 0)
(1.11335 -0.0129434 0)
(1.11667 -0.0174887 0)
(1.12087 -0.023428 0)
(1.12609 -0.031172 0)
(1.13246 -0.0412426 0)
(1.14003 -0.0542863 0)
(1.14871 -0.0710687 0)
(1.15817 -0.0924244 0)
(1.16772 -0.119124 0)
(1.17613 -0.151605 0)
(1.18165 -0.189545 0)
(1.18229 -0.231339 0)
(0.955541 0.0726329 0)
(0.986506 0.171641 0)
(1.02837 0.226641 0)
(1.0697 0.245285 0)
(1.10389 0.238801 0)
(1.12955 0.217398 0)
(1.14737 0.188913 0)
(1.15894 0.158629 0)
(1.16597 0.129724 0)
(1.16991 0.103856 0)
(1.17186 0.081686 0)
(1.1726 0.0632732 0)
(1.17265 0.0483477 0)
(1.17235 0.0364856 0)
(1.17188 0.0272161 0)
(1.17137 0.0200809 0)
(1.17088 0.014665 0)
(1.17044 0.0106099 0)
(1.17005 0.00761471 0)
(1.16972 0.00543346 0)
(1.16944 0.0038683 0)
(1.1692 0.00276228 0)
(1.169 0.00199212 0)
(1.16882 0.00146142 0)
(1.16868 0.00109461 0)
(1.16856 0.000831783 0)
(1.16848 0.000624208 0)
(1.16843 0.000430473 0)
(1.16842 0.000213157 0)
(1.16848 -6.41858e-05 0)
(1.16862 -0.000439843 0)
(1.16886 -0.000956756 0)
(1.16924 -0.00166549 0)
(1.1698 -0.0026276 0)
(1.17059 -0.00391953 0)
(1.17166 -0.00563747 0)
(1.17311 -0.00790333 0)
(1.175 -0.0108722 0)
(1.17744 -0.0147415 0)
(1.18053 -0.0197625 0)
(1.18438 -0.0262528 0)
(1.18907 -0.0346095 0)
(1.19465 -0.0453195 0)
(1.2011 -0.05896 0)
(1.20822 -0.0761766 0)
(1.2156 -0.0976193 0)
(1.22252 -0.123809 0)
(1.22783 -0.154908 0)
(1.23006 -0.190399 0)
(1.22767 -0.228752 0)
(0.954871 0.0617769 0)
(0.98329 0.14897 0)
(1.02459 0.200159 0)
(1.06827 0.220369 0)
(1.10754 0.218023 0)
(1.13994 0.201401 0)
(1.16512 0.177289 0)
(1.18388 0.150553 0)
(1.19742 0.124319 0)
(1.20698 0.100359 0)
(1.2136 0.0795005 0)
(1.2181 0.0619608 0)
(1.22113 0.0476008 0)
(1.22312 0.0360956 0)
(1.22441 0.0270452 0)
(1.22522 0.02004 0)
(1.2257 0.0146982 0)
(1.22597 0.0106825 0)
(1.2261 0.00770612 0)
(1.22613 0.00553153 0)
(1.22611 0.00396613 0)
(1.22604 0.00285598 0)
(1.22596 0.00207925 0)
(1.22587 0.00153998 0)
(1.22578 0.00116236 0)
(1.22571 0.000885691 0)
(1.22565 0.000659962 0)
(1.22561 0.000442075 0)
(1.22562 0.000192461 0)
(1.22569 -0.000127957 0)
(1.22583 -0.000560649 0)
(1.22608 -0.00115235 0)
(1.22645 -0.00195807 0)
(1.22699 -0.00304452 0)
(1.22775 -0.00449395 0)
(1.22878 -0.0064088 0)
(1.23013 -0.00891735 0)
(1.23188 -0.0121804 0)
(1.23411 -0.0163991 0)
(1.23689 -0.0218241 0)
(1.24029 -0.0287645 0)
(1.24434 -0.0375955 0)
(1.24903 -0.048761 0)
(1.25425 -0.0627641 0)
(1.25977 -0.0801356 0)
(1.26511 -0.101364 0)
(1.26955 -0.126774 0)
(1.27208 -0.156335 0)
(1.27146 -0.189431 0)
(1.26649 -0.224656 0)
(0.954404 0.0519548 0)
(0.98082 0.127247 0)
(1.02136 0.173349 0)
(1.0665 0.193522 0)
(1.10952 0.19402 0)
(1.14726 0.181434 0)
(1.17854 0.161474 0)
(1.20349 0.138454 0)
(1.22282 0.115294 0)
(1.2375 0.0937537 0)
(1.24847 0.0747371 0)
(1.25655 0.0585685 0)
(1.26244 0.0452129 0)
(1.26669 0.0344351 0)
(1.26971 0.0259065 0)
(1.27183 0.019273 0)
(1.2733 0.014194 0)
(1.2743 0.0103627 0)
(1.27495 0.00751462 0)
(1.27537 0.00542825 0)
(1.27561 0.00392249 0)
(1.27574 0.00285145 0)
(1.27579 0.00209891 0)
(1.27579 0.00157259 0)
(1.27576 0.00119896 0)
(1.27572 0.000918439 0)
(1.27569 0.000681282 0)
(1.27568 0.000443864 0)
(1.2757 0.000165424 0)
(1.27577 -0.000194943 0)
(1.27591 -0.000681136 0)
(1.27615 -0.00134291 0)
(1.2765 -0.00223886 0)
(1.27701 -0.00343976 0)
(1.27771 -0.00503224 0)
(1.27865 -0.00712321 0)
(1.27987 -0.00984486 0)
(1.28144 -0.0133605 0)
(1.2834 -0.0178709 0)
(1.28579 -0.023621 0)
(1.28866 -0.0309057 0)
(1.29199 -0.0400726 0)
(1.29572 -0.0515183 0)
(1.29968 -0.0656725 0)
(1.30359 -0.0829607 0)
(1.30697 -0.103737 0)
(1.30913 -0.128172 0)
(1.30918 -0.156109 0)
(1.30608 -0.186895 0)
(1.29891 -0.219262 0)
(0.954075 0.0429076 0)
(0.978937 0.106345 0)
(1.01869 0.146457 0)
(1.06471 0.165332 0)
(1.11046 0.167557 0)
(1.15235 0.158276 0)
(1.1886 0.142159 0)
(1.21874 0.12289 0)
(1.24306 0.103069 0)
(1.26225 0.0843378 0)
(1.27712 0.0675988 0)
(1.28847 0.0532292 0)
(1.29701 0.0412676 0)
(1.30336 0.031554 0)
(1.30802 0.0238284 0)
(1.3114 0.0177943 0)
(1.31381 0.0131584 0)
(1.31551 0.00965161 0)
(1.31668 0.00703867 0)
(1.31747 0.00512082 0)
(1.31798 0.00373408 0)
(1.3183 0.00274546 0)
(1.31848 0.0020482 0)
(1.31857 0.00155685 0)
(1.31861 0.00120259 0)
(1.31861 0.000928941 0)
(1.31861 0.000687908 0)
(1.31861 0.000436559 0)
(1.31864 0.000133932 0)
(1.31872 -0.000261831 0)
(1.31885 -0.000796242 0)
(1.31907 -0.00152122 0)
(1.31939 -0.00249799 0)
(1.31985 -0.00380022 0)
(1.32047 -0.00551752 0)
(1.32129 -0.00775939 0)
(1.32235 -0.0106596 0)
(1.32369 -0.014381 0)
(1.32533 -0.0191206 0)
(1.32729 -0.0251136 0)
(1.32957 -0.0326364 0)
(1.33213 -0.0420056 0)
(1.33486 -0.0535694 0)
(1.33756 -0.067688 0)
(1.33992 -0.0846943 0)
(1.34146 -0.104831 0)
(1.34154 -0.128157 0)
(1.33938 -0.154432 0)
(1.33413 -0.183006 0)
(1.32508 -0.21275 0)
(0.953845 0.0344383 0)
(0.97752 0.0861249 0)
(1.01656 0.119613 0)
(1.06307 0.136217 0)
(1.11079 0.139244 0)
(1.15586 0.132606 0)
(1.19603 0.119994 0)
(1.23039 0.104427 0)
(1.25887 0.0881055 0)
(1.28189 0.0724725 0)
(1.30012 0.0583575 0)
(1.31432 0.0461421 0)
(1.3252 0.0359076 0)
(1.33343 0.0275533 0)
(1.33956 0.0208806 0)
(1.34408 0.0156515 0)
(1.34736 0.0116233 0)
(1.3497 0.00857006 0)
(1.35135 0.0062916 0)
(1.35249 0.0046174 0)
(1.35325 0.00340567 0)
(1.35374 0.00254055 0)
(1.35405 0.00192831 0)
(1.35423 0.0014932 0)
(1.35432 0.00117344 0)
(1.35437 0.00091745 0)
(1.35439 0.000680454 0)
(1.35441 0.0004214 0)
(1.35445 0.000100121 0)
(1.35452 -0.00032531 0)
(1.35464 -0.000901162 0)
(1.35483 -0.00168064 0)
(1.35511 -0.00272658 0)
(1.3555 -0.0041144 0)
(1.35603 -0.00593524 0)
(1.35671 -0.00829943 0)
(1.35758 -0.0113402 0)
(1.35865 -0.0152175 0)
(1.35994 -0.0201214 0)
(1.36143 -0.0262745 0)
(1.3631 -0.0339321 0)
(1.36486 -0.0433781 0)
(1.36659 -0.0549138 0)
(1.36806 -0.0688356 0)
(1.36894 -0.0853969 0)
(1.36877 -0.104752 0)
(1.36698 -0.126877 0)
(1.36288 -0.151486 0)
(1.35577 -0.177951 0)
(1.3451 -0.205275 0)
(0.953685 0.0263942 0)
(0.976479 0.0664477 0)
(1.01491 0.0928723 0)
(1.0617 0.106474 0)
(1.1108 0.109567 0)
(1.15822 0.105007 0)
(1.2014 0.0955803 0)
(1.23906 0.0836245 0)
(1.27085 0.0708917 0)
(1.29696 0.0585619 0)
(1.31795 0.0473369 0)
(1.3345 0.0375595 0)
(1.34734 0.0293256 0)
(1.35715 0.0225769 0)
(1.36454 0.0171696 0)
(1.37003 0.0129218 0)
(1.37406 0.00964417 0)
(1.37696 0.00715719 0)
(1.37902 0.00530059 0)
(1.38046 0.00393654 0)
(1.38144 0.00294962 0)
(1.38209 0.00224479 0)
(1.38251 0.00174439 0)
(1.38277 0.0013849 0)
(1.38292 0.00111361 0)
(1.383 0.000885498 0)
(1.38305 0.000660341 0)
(1.38308 0.000400066 0)
(1.38312 6.62554e-05 0)
(1.38319 -0.000382225 0)
(1.38329 -0.000991556 0)
(1.38345 -0.00181533 0)
(1.38367 -0.00291704 0)
(1.38399 -0.00437268 0)
(1.3844 -0.00627355 0)
(1.38493 -0.00872922 0)
(1.38558 -0.0118705 0)
(1.38637 -0.0158522 0)
(1.38727 -0.0208554 0)
(1.38827 -0.0270878 0)
(1.38931 -0.0347822 0)
(1.39028 -0.04419 0)
(1.39103 -0.0555682 0)
(1.39132 -0.0691563 0)
(1.39082 -0.0851413 0)
(1.38909 -0.103608 0)
(1.38563 -0.124475 0)
(1.37983 -0.147434 0)
(1.37112 -0.171893 0)
(1.35907 -0.196972 0)
(0.953578 0.0186539 0)
(0.975748 0.0471821 0)
(1.01372 0.0662463 0)
(1.06065 0.0763181 0)
(1.11068 0.0789184 0)
(1.15975 0.0759894 0)
(1.2051 0.0694715 0)
(1.24519 0.0610269 0)
(1.27945 0.0519252 0)
(1.3079 0.0430386 0)
(1.33099 0.0348984 0)
(1.34936 0.0277743 0)
(1.36371 0.021753 0)
(1.37476 0.0168044 0)
(1.38313 0.0128319 0)
(1.38939 0.00970781 0)
(1.394 0.00729651 0)
(1.39734 0.00546796 0)
(1.39974 0.00410496 0)
(1.40142 0.00310595 0)
(1.40258 0.00238515 0)
(1.40336 0.00187124 0)
(1.40387 0.00150517 0)
(1.40419 0.00123772 0)
(1.40439 0.00102693 0)
(1.4045 0.000835756 0)
(1.40457 0.00062967 0)
(1.40462 0.000374555 0)
(1.40466 3.45986e-05 0)
(1.40471 -0.000429733 0)
(1.40479 -0.00106373 0)
(1.40491 -0.00192053 0)
(1.40507 -0.00306332 0)
(1.4053 -0.00456758 0)
(1.40559 -0.00652356 0)
(1.40595 -0.0090386 0)
(1.40637 -0.0122395 0)
(1.40686 -0.0162743 0)
(1.40738 -0.0213132 0)
(1.40788 -0.0275479 0)
(1.40829 -0.0351884 0)
(1.40849 -0.0444544 0)
(1.4083 -0.0555624 0)
(1.40748 -0.0687027 0)
(1.4057 -0.0840074 0)
(1.40258 -0.101508 0)
(1.39763 -0.121086 0)
(1.39035 -0.142425 0)
(1.38028 -0.164976 0)
(1.36706 -0.187967 0)
(0.953511 0.0111171 0)
(0.975284 0.0282039 0)
(1.01294 0.0397175 0)
(1.05993 0.0459025 0)
(1.11054 0.0476209 0)
(1.16067 0.0459995 0)
(1.20742 0.0421821 0)
(1.24911 0.0371619 0)
(1.285 0.0317073 0)
(1.31502 0.026353 0)
(1.33953 0.0214297 0)
(1.35913 0.0171094 0)
(1.37452 0.0134516 0)
(1.38641 0.010443 0)
(1.39546 0.00802835 0)
(1.40224 0.00613197 0)
(1.40726 0.00467227 0)
(1.41092 0.00357025 0)
(1.41354 0.0027541 0)
(1.4154 0.00216096 0)
(1.41669 0.00173713 0)
(1.41756 0.00143715 0)
(1.41814 0.00122241 0)
(1.41851 0.00105954 0)
(1.41874 0.00091869 0)
(1.41888 0.000771826 0)
(1.41896 0.000591064 0)
(1.41901 0.000347039 0)
(1.41905 7.28099e-06 0)
(1.41909 -0.000465432 0)
(1.41914 -0.00111477 0)
(1.41922 -0.00199264 0)
(1.41932 -0.00316102 0)
(1.41945 -0.00469394 0)
(1.41961 -0.00667944 0)
(1.41979 -0.00922141 0)
(1.41999 -0.0124413 0)
(1.42017 -0.016479 0)
(1.4203 -0.0214931 0)
(1.42031 -0.0276584 0)
(1.42011 -0.0351623 0)
(1.41957 -0.0441952 0)
(1.41849 -0.0549369 0)
(1.41665 -0.0675356 0)
(1.41372 -0.0820795 0)
(1.40934 -0.0985606 0)
(1.4031 -0.116836 0)
(1.39456 -0.136594 0)
(1.38332 -0.157333 0)
(1.36913 -0.178372 0)
(0.95348 0.00369739 0)
(0.975058 0.0093952 0)
(1.01256 0.0132524 0)
(1.05957 0.0153448 0)
(1.11046 0.0159518 0)
(1.1611 0.015443 0)
(1.20854 0.0141963 0)
(1.25103 0.0125425 0)
(1.28773 0.0107389 0)
(1.31853 0.00896578 0)
(1.34376 0.00733568 0)
(1.36398 0.00590782 0)
(1.3799 0.00470348 0)
(1.39222 0.00371916 0)
(1.40161 0.00293687 0)
(1.40867 0.00233145 0)
(1.4139 0.00187535 0)
(1.41772 0.00154151 0)
(1.42047 0.00130481 0)
(1.42242 0.00114263 0)
(1.42378 0.00103475 0)
(1.4247 0.000962906 0)
(1.42532 0.000910113 0)
(1.42573 0.00085986 0)
(1.42598 0.000795233 0)
(1.42613 0.000697969 0)
(1.42622 0.000547464 0)
(1.42628 0.000319714 0)
(1.42631 -1.38287e-05 0)
(1.42633 -0.00048748 0)
(1.42636 -0.00114266 0)
(1.42638 -0.00202933 0)
(1.42641 -0.00320753 0)
(1.42645 -0.00474892 0)
(1.42648 -0.00673838 0)
(1.42648 -0.00927535 0)
(1.42644 -0.0124749 0)
(1.42633 -0.0164679 0)
(1.42607 -0.0214004 0)
(1.42561 -0.0274308 0)
(1.42483 -0.0347243 0)
(1.42359 -0.0434445 0)
(1.42171 -0.0537391 0)
(1.41893 -0.0657211 0)
(1.41497 -0.0794433 0)
(1.4095 -0.0948698 0)
(1.40213 -0.111845 0)
(1.39252 -0.130067 0)
(1.38032 -0.149082 0)
(1.36532 -0.168292 0)
(0.95348 -0.0036842 0)
(0.975058 -0.00935758 0)
(1.01256 -0.0131908 0)
(1.05957 -0.0152584 0)
(1.11046 -0.0158387 0)
(1.1611 -0.0153003 0)
(1.20855 -0.0140201 0)
(1.25103 -0.0123281 0)
(1.28774 -0.0104805 0)
(1.31855 -0.00865703 0)
(1.34377 -0.00696917 0)
(1.364 -0.00547549 0)
(1.37992 -0.00419669 0)
(1.39225 -0.00312892 0)
(1.40165 -0.00225416 0)
(1.40871 -0.00154768 0)
(1.41395 -0.000982991 0)
(1.41778 -0.000534944 0)
(1.42053 -0.000181477 0)
(1.42249 9.55137e-05 0)
(1.42386 0.000309825 0)
(1.42479 0.000470873 0)
(1.42542 0.000583731 0)
(1.42584 0.000649158 0)
(1.4261 0.000663554 0)
(1.42626 0.000618792 0)
(1.42635 0.000501909 0)
(1.4264 0.000294635 0)
(1.42643 -2.72431e-05 0)
(1.42643 -0.000494682 0)
(1.42643 -0.00114634 0)
(1.42641 -0.00202964 0)
(1.42637 -0.003202 0)
(1.42631 -0.00473199 0)
(1.4262 -0.00670053 0)
(1.42603 -0.00920179 0)
(1.42577 -0.0123437 0)
(1.42536 -0.0162475 0)
(1.42475 -0.0210466 0)
(1.42384 -0.0268831 0)
(1.42252 -0.0339017 0)
(1.42064 -0.0422415 0)
(1.41802 -0.0520226 0)
(1.41441 -0.0633284 0)
(1.40955 -0.0761852 0)
(1.40313 -0.0905372 0)
(1.39481 -0.106223 0)
(1.3843 -0.12296 0)
(1.37131 -0.140335 0)
(1.35568 -0.157824 0)
(0.953512 -0.0111041 0)
(0.975285 -0.0281668 0)
(1.01294 -0.0396567 0)
(1.05994 -0.0458172 0)
(1.11055 -0.0475092 0)
(1.16068 -0.0458586 0)
(1.20744 -0.042008 0)
(1.24913 -0.03695 0)
(1.28503 -0.0314519 0)
(1.31506 -0.0260477 0)
(1.33957 -0.0210673 0)
(1.35918 -0.0166818 0)
(1.37459 -0.0129503 0)
(1.38649 -0.0098591 0)
(1.39556 -0.00735285 0)
(1.40236 -0.00535635 0)
(1.4074 -0.00378902 0)
(1.41108 -0.00257376 0)
(1.41373 -0.00164174 0)
(1.41561 -0.00093457 0)
(1.41693 -0.000404869 0)
(1.41783 -1.58978e-05 0)
(1.41844 0.00025919 0)
(1.41884 0.000438224 0)
(1.4191 0.000530807 0)
(1.41926 0.000538923 0)
(1.41935 0.000457307 0)
(1.41939 0.000273565 0)
(1.41941 -3.19603e-05 0)
(1.41939 -0.000486559 0)
(1.41936 -0.00112573 0)
(1.41929 -0.0019939 0)
(1.41919 -0.00314531 0)
(1.41903 -0.00464484 0)
(1.4188 -0.00656881 0)
(1.41847 -0.00900549 0)
(1.41799 -0.0120551 0)
(1.41731 -0.0158292 0)
(1.41636 -0.0204484 0)
(1.41504 -0.0260391 0)
(1.41323 -0.0327273 0)
(1.41078 -0.0406303 0)
(1.4075 -0.0498443 0)
(1.40316 -0.0604292 0)
(1.39752 -0.0723908 0)
(1.3903 -0.0856605 0)
(1.3812 -0.100078 0)
(1.36995 -0.115379 0)
(1.35635 -0.131194 0)
(1.34023 -0.147064 0)
(0.953578 -0.0186413 0)
(0.97575 -0.0471461 0)
(1.01372 -0.0661872 0)
(1.06065 -0.0762351 0)
(1.11069 -0.0788095 0)
(1.15977 -0.0758519 0)
(1.20512 -0.0693015 0)
(1.24523 -0.0608199 0)
(1.27949 -0.0516757 0)
(1.30796 -0.0427402 0)
(1.33106 -0.0345441 0)
(1.34945 -0.0273562 0)
(1.36382 -0.0212627 0)
(1.37489 -0.0162331 0)
(1.38329 -0.0121707 0)
(1.38958 -0.00894836 0)
(1.39422 -0.00643135 0)
(1.39761 -0.00449146 0)
(1.40004 -0.0030144 0)
(1.40177 -0.00190292 0)
(1.40297 -0.00107739 0)
(1.4038 -0.000474966 0)
(1.40437 -4.80415e-05 0)
(1.40474 0.000237489 0)
(1.40498 0.000403837 0)
(1.40512 0.000462684 0)
(1.40521 0.00041622 0)
(1.40525 0.000257831 0)
(1.40525 -2.75465e-05 0)
(1.40522 -0.000463381 0)
(1.40515 -0.00108175 0)
(1.40504 -0.00192374 0)
(1.40488 -0.00303999 0)
(1.40464 -0.00449122 0)
(1.40429 -0.00634867 0)
(1.4038 -0.00869427 0)
(1.40313 -0.0116203 0)
(1.4022 -0.0152283 0)
(1.40094 -0.0196267 0)
(1.39925 -0.0249271 0)
(1.397 -0.0312384 0)
(1.39405 -0.0386586 0)
(1.3902 -0.047264 0)
(1.38525 -0.0570957 0)
(1.37895 -0.0681442 0)
(1.37107 -0.0803341 0)
(1.36133 -0.0935098 0)
(1.34952 -0.107428 0)
(1.33545 -0.121759 0)
(1.31901 -0.136099 0)
(0.953685 -0.0263822 0)
(0.976481 -0.0664133 0)
(1.01492 -0.0928157 0)
(1.06171 -0.106395 0)
(1.11082 -0.109463 0)
(1.15824 -0.104875 0)
(1.20143 -0.0954164 0)
(1.23911 -0.0834247 0)
(1.27091 -0.0706508 0)
(1.29704 -0.0582737 0)
(1.31805 -0.0469945 0)
(1.33463 -0.0371553 0)
(1.3475 -0.0288513 0)
(1.35734 -0.022024 0)
(1.36476 -0.0165295 0)
(1.3703 -0.0121863 0)
(1.37436 -0.0088058 0)
(1.37732 -0.00621033 0)
(1.37944 -0.00424237 0)
(1.38094 -0.00276822 0)
(1.38198 -0.00167833 0)
(1.3827 -0.000885769 0)
(1.38319 -0.000323867 0)
(1.38352 5.63776e-05 0)
(1.38373 0.000288726 0)
(1.38386 0.000393782 0)
(1.38393 0.000380661 0)
(1.38396 0.000248209 0)
(1.38395 -1.41913e-05 0)
(1.38391 -0.000426177 0)
(1.38382 -0.00101628 0)
(1.38367 -0.001822 0)
(1.38345 -0.00289009 0)
(1.38312 -0.00427675 0)
(1.38267 -0.00604781 0)
(1.38205 -0.00827862 0)
(1.3812 -0.0110534 0)
(1.38005 -0.0144637 0)
(1.37852 -0.0186064 0)
(1.37651 -0.0235792 0)
(1.37389 -0.0294757 0)
(1.3705 -0.0363771 0)
(1.36617 -0.0443432 0)
(1.36071 -0.0534003 0)
(1.35388 -0.0635283 0)
(1.34547 -0.0746489 0)
(1.33526 -0.0866143 0)
(1.32303 -0.0992028 0)
(1.30865 -0.112121 0)
(1.29201 -0.125017 0)
(0.953845 -0.0344271 0)
(0.977523 -0.0860925 0)
(1.01657 -0.119559 0)
(1.06309 -0.136141 0)
(1.11081 -0.139145 0)
(1.15589 -0.13248 0)
(1.19608 -0.119838 0)
(1.23046 -0.104237 0)
(1.25895 -0.0878759 0)
(1.28199 -0.0721976 0)
(1.30025 -0.0580307 0)
(1.31447 -0.045756 0)
(1.32539 -0.0354545 0)
(1.33366 -0.0270247 0)
(1.33984 -0.0202682 0)
(1.34441 -0.0149472 0)
(1.34775 -0.01082 0)
(1.35016 -0.00766206 0)
(1.35188 -0.00527586 0)
(1.35309 -0.00349474 0)
(1.35393 -0.00218244 0)
(1.35452 -0.00123079 0)
(1.35491 -0.000556402 0)
(1.35518 -9.7284e-05 0)
(1.35535 0.000190395 0)
(1.35546 0.000335056 0)
(1.35552 0.000351945 0)
(1.35554 0.000244841 0)
(1.35552 7.27094e-06 0)
(1.35546 -0.000376705 0)
(1.35535 -0.000932057 0)
(1.35517 -0.0016926 0)
(1.3549 -0.00270098 0)
(1.35451 -0.00400869 0)
(1.35397 -0.00567593 0)
(1.35322 -0.00777131 0)
(1.35222 -0.010371 0)
(1.35088 -0.013557 0)
(1.34913 -0.017415 0)
(1.34685 -0.0220302 0)
(1.34391 -0.0274822 0)
(1.34017 -0.0338382 0)
(1.33546 -0.0411442 0)
(1.32959 -0.049415 0)
(1.32235 -0.058624 0)
(1.31356 -0.0686928 0)
(1.303 -0.0794836 0)
(1.2905 -0.0907964 0)
(1.27595 -0.102372 0)
(1.25927 -0.113903 0)
(0.954076 -0.0428974 0)
(0.97894 -0.106315 0)
(1.0187 -0.146407 0)
(1.06472 -0.165261 0)
(1.11048 -0.167464 0)
(1.15239 -0.158158 0)
(1.18865 -0.142013 0)
(1.21881 -0.122711 0)
(1.24315 -0.102853 0)
(1.26237 -0.084079 0)
(1.27727 -0.0672909 0)
(1.28865 -0.0528652 0)