/*--------------------------------*- C++ -*----------------------------------*\
  =========                 |
  \\      /  F ield         | OpenFOAM: The Open Source CFD Toolbox
   \\    /   O peration     | Website:  https://openfoam.org
    \\  /    A nd           | Version:  6
     \\/     M anipulation  |
\*---------------------------------------------------------------------------*/
FoamFile
{
    version     2.0;
    format      ascii;
    class       volScalarField;
    location    "./ITHACAoutput/Offline/1";
    object      P_rec;
}
// * * * * * * * * * * * * * * * * * * * * * * * * * * * * * * * * * * * * * //

dimensions      [0 2 -2 0 0 0 0];

internalField   nonuniform List<scalar> 
40000
(
0.0167494
0.01675
0.0167504
0.0167499
0.0167486
0.0167462
0.0167429
0.0167388
0.0167339
0.0167282
0.016722
0.0167152
0.0167079
0.0167003
0.0166923
0.0166839
0.0166753
0.0166665
0.0166574
0.0166482
0.0166388
0.0166292
0.0166194
0.0166095
0.0165994
0.0165892
0.0165789
0.0165684
0.0165577
0.0165469
0.0165359
0.0165248
0.0165135
0.016502
0.0164904
0.0164787
0.0164667
0.0164547
0.0164425
0.0164302
0.0164177
0.0164052
0.0163925
0.0163798
0.016367
0.0163541
0.0163412
0.0163283
0.0163154
0.0163026
0.0162898
0.016277
0.0162644
0.0162519
0.0162395
0.0162273
0.0162153
0.0162035
0.016192
0.0161808
0.0161699
0.0161593
0.0161491
0.0161393
0.0161299
0.016121
0.0161126
0.0161047
0.0160974
0.0160906
0.0160845
0.0160789
0.016074
0.0160698
0.0160662
0.0160634
0.0160613
0.01606
0.0160594
0.0160596
0.0160605
0.0160623
0.0160648
0.0160681
0.0160722
0.016077
0.0160826
0.0160889
0.0160959
0.0161036
0.016112
0.0161209
0.0161304
0.0161404
0.0161509
0.0161617
0.0161729
0.0161844
0.016196
0.0162077
0.0162195
0.0162311
0.0162426
0.0162538
0.0162646
0.016275
0.0162848
0.0162938
0.0163021
0.0163094
0.0163157
0.0163208
0.0163247
0.0163272
0.0163283
0.0163277
0.0163255
0.0163215
0.0163156
0.0163078
0.016298
0.0162861
0.016272
0.0162558
0.0162373
0.0162165
0.0161935
0.0161681
0.0161405
0.0161106
0.0160785
0.0160441
0.0160075
0.0159689
0.0159282
0.0158855
0.0158409
0.0157945
0.0157465
0.0156969
0.0156458
0.0155934
0.0155399
0.0154852
0.0154297
0.0153734
0.0153164
0.015259
0.0152012
0.0151433
0.0150853
0.0150274
0.0149698
0.0149125
0.0148558
0.0147996
0.0147442
0.0146897
0.0146362
0.0145837
0.0145325
0.0144824
0.0144337
0.0143865
0.0143407
0.0142965
0.0142539
0.0142129
0.0141736
0.014136
0.0141002
0.0140662
0.014034
0.0140036
0.013975
0.0139483
0.0139234
0.0139004
0.0138793
0.0138601
0.0138427
0.0138272
0.0138136
0.0138018
0.0137919
0.0137839
0.0137777
0.0137733
0.0137706
0.0137697
0.0137704
0.0137726
0.0137762
0.0137809
0.0137865
0.0137926
0.0137987
0.0138041
0.013808
0.0138097
0.0167487
0.0167494
0.0167497
0.0167492
0.0167478
0.0167456
0.0167424
0.0167385
0.0167338
0.0167284
0.0167224
0.0167159
0.0167089
0.0167015
0.0166937
0.0166857
0.0166773
0.0166687
0.0166599
0.0166508
0.0166416
0.0166321
0.0166225
0.0166128
0.0166029
0.0165928
0.0165826
0.0165722
0.0165616
0.0165509
0.01654
0.016529
0.0165178
0.0165065
0.016495
0.0164833
0.0164715
0.0164596
0.0164475
0.0164353
0.016423
0.0164106
0.0163981
0.0163855
0.0163728
0.0163601
0.0163474
0.0163346
0.0163219
0.0163092
0.0162965
0.0162839
0.0162714
0.016259
0.0162468
0.0162348
0.0162229
0.0162113
0.0161999
0.0161888
0.016178
0.0161676
0.0161575
0.0161478
0.0161385
0.0161297
0.0161213
0.0161135
0.0161062
0.0160994
0.0160932
0.0160876
0.0160827
0.0160784
0.0160748
0.0160719
0.0160696
0.0160681
0.0160673
0.0160673
0.016068
0.0160695
0.0160717
0.0160747
0.0160784
0.0160829
0.0160881
0.0160939
0.0161005
0.0161077
0.0161155
0.0161239
0.0161328
0.0161422
0.016152
0.0161622
0.0161727
0.0161835
0.0161944
0.0162054
0.0162164
0.0162272
0.016238
0.0162484
0.0162585
0.016268
0.016277
0.0162853
0.0162928
0.0162993
0.0163049
0.0163093
0.0163124
0.0163143
0.0163146
0.0163134
0.0163106
0.016306
0.0162996
0.0162913
0.016281
0.0162687
0.0162543
0.0162377
0.016219
0.016198
0.0161748
0.0161494
0.0161217
0.0160918
0.0160597
0.0160255
0.0159891
0.0159507
0.0159102
0.0158679
0.0158237
0.0157778
0.0157303
0.0156812
0.0156307
0.0155789
0.015526
0.0154721
0.0154173
0.0153617
0.0153055
0.0152489
0.0151919
0.0151348
0.0150777
0.0150206
0.0149639
0.0149074
0.0148515
0.0147962
0.0147417
0.014688
0.0146353
0.0145836
0.0145331
0.0144838
0.0144358
0.0143893
0.0143442
0.0143006
0.0142586
0.0142182
0.0141795
0.0141424
0.0141071
0.0140735
0.0140417
0.0140117
0.0139835
0.0139571
0.0139325
0.0139098
0.0138888
0.0138697
0.0138525
0.013837
0.0138234
0.0138116
0.0138016
0.0137934
0.013787
0.0137823
0.0137793
0.0137779
0.0137781
0.0137797
0.0137825
0.0137864
0.0137912
0.0137964
0.0138016
0.0138063
0.0138097
0.0138115
0.0167483
0.016749
0.0167494
0.0167488
0.0167475
0.0167453
0.0167423
0.0167385
0.016734
0.0167289
0.0167233
0.0167171
0.0167104
0.0167033
0.0166959
0.0166881
0.01668
0.0166717
0.0166631
0.0166543
0.0166453
0.0166361
0.0166267
0.0166171
0.0166074
0.0165975
0.0165874
0.0165772
0.0165668
0.0165562
0.0165455
0.0165346
0.0165235
0.0165123
0.016501
0.0164895
0.0164778
0.016466
0.0164541
0.016442
0.0164299
0.0164176
0.0164053
0.0163928
0.0163804
0.0163678
0.0163553
0.0163427
0.0163301
0.0163176
0.0163051
0.0162927
0.0162804
0.0162683
0.0162562
0.0162443
0.0162326
0.0162212
0.01621
0.016199
0.0161884
0.016178
0.0161681
0.0161585
0.0161493
0.0161405
0.0161322
0.0161244
0.0161171
0.0161103
0.0161041
0.0160985
0.0160935
0.0160891
0.0160853
0.0160823
0.0160798
0.0160781
0.0160771
0.0160768
0.0160772
0.0160783
0.0160802
0.0160827
0.016086
0.01609
0.0160946
0.0161
0.0161059
0.0161125
0.0161196
0.0161273
0.0161356
0.0161442
0.0161532
0.0161626
0.0161723
0.0161822
0.0161922
0.0162023
0.0162124
0.0162224
0.0162321
0.0162416
0.0162507
0.0162593
0.0162674
0.0162747
0.0162813
0.0162869
0.0162915
0.0162951
0.0162974
0.0162983
0.0162979
0.0162959
0.0162924
0.0162871
0.0162801
0.0162712
0.0162603
0.0162475
0.0162327
0.0162157
0.0161966
0.0161754
0.016152
0.0161265
0.0160987
0.0160688
0.0160368
0.0160027
0.0159665
0.0159284
0.0158883
0.0158463
0.0158026
0.0157572
0.0157102
0.0156617
0.0156119
0.0155609
0.0155087
0.0154556
0.0154016
0.015347
0.0152917
0.015236
0.01518
0.0151239
0.0150678
0.0150117
0.0149559
0.0149005
0.0148456
0.0147913
0.0147378
0.0146851
0.0146334
0.0145827
0.0145331
0.0144847
0.0144377
0.014392
0.0143477
0.0143049
0.0142637
0.014224
0.014186
0.0141496
0.0141149
0.0140819
0.0140506
0.0140211
0.0139933
0.0139673
0.0139431
0.0139206
0.0139
0.0138811
0.013864
0.0138486
0.013835
0.0138232
0.0138131
0.0138047
0.013798
0.0137929
0.0137895
0.0137876
0.0137871
0.0137879
0.01379
0.013793
0.0137968
0.0138011
0.0138056
0.0138097
0.0138132
0.0138153
0.0167488
0.0167495
0.0167499
0.0167493
0.016748
0.0167458
0.0167429
0.0167393
0.016735
0.0167301
0.0167247
0.0167187
0.0167123
0.0167055
0.0166983
0.0166908
0.016683
0.0166748
0.0166665
0.0166579
0.0166491
0.0166401
0.0166309
0.0166215
0.0166119
0.0166022
0.0165923
0.0165821
0.0165719
0.0165615
0.0165509
0.0165401
0.0165292
0.0165181
0.0165069
0.0164955
0.016484
0.0164723
0.0164605
0.0164486
0.0164366
0.0164244
0.0164122
0.0164
0.0163876
0.0163752
0.0163628
0.0163504
0.016338
0.0163257
0.0163133
0.0163011
0.0162889
0.0162769
0.016265
0.0162532
0.0162417
0.0162304
0.0162193
0.0162084
0.0161979
0.0161876
0.0161778
0.0161682
0.0161591
0.0161504
0.0161421
0.0161343
0.016127
0.0161202
0.0161139
0.0161083
0.0161031
0.0160986
0.0160947
0.0160915
0.0160889
0.0160869
0.0160857
0.0160851
0.0160852
0.016086
0.0160874
0.0160896
0.0160924
0.016096
0.0161002
0.016105
0.0161104
0.0161164
0.016123
0.0161301
0.0161376
0.0161456
0.016154
0.0161627
0.0161716
0.0161807
0.01619
0.0161993
0.0162086
0.0162178
0.0162268
0.0162354
0.0162437
0.0162516
0.0162588
0.0162653
0.0162711
0.016276
0.0162798
0.0162826
0.0162842
0.0162845
0.0162834
0.0162808
0.0162766
0.0162708
0.0162632
0.0162538
0.0162425
0.0162293
0.016214
0.0161967
0.0161774
0.016156
0.0161324
0.0161067
0.0160789
0.016049
0.016017
0.0159829
0.0159469
0.0159089
0.0158691
0.0158274
0.015784
0.015739
0.0156924
0.0156445
0.0155952
0.0155447
0.0154931
0.0154406
0.0153873
0.0153333
0.0152788
0.0152239
0.0151687
0.0151134
0.015058
0.0150028
0.0149479
0.0148933
0.0148393
0.0147858
0.0147331
0.0146813
0.0146304
0.0145805
0.0145317
0.0144842
0.0144379
0.014393
0.0143494
0.0143074
0.0142668
0.0142278
0.0141904
0.0141546
0.0141204
0.014088
0.0140572
0.0140281
0.0140008
0.0139752
0.0139513
0.0139291
0.0139087
0.01389
0.013873
0.0138577
0.0138442
0.0138323
0.0138221
0.0138136
0.0138067
0.0138013
0.0137975
0.0137952
0.0137942
0.0137945
0.013796
0.0137985
0.0138017
0.0138056
0.0138097
0.0138139
0.0138179
0.0138208
0.0167502
0.0167509
0.0167513
0.0167507
0.0167493
0.0167472
0.0167443
0.0167408
0.0167366
0.0167319
0.0167266
0.0167208
0.0167146
0.016708
0.016701
0.0166937
0.0166861
0.0166782
0.0166701
0.0166617
0.0166531
0.0166442
0.0166352
0.016626
0.0166166
0.016607
0.0165972
0.0165872
0.0165771
0.0165668
0.0165563
0.0165457
0.0165349
0.016524
0.0165129
0.0165016
0.0164902
0.0164787
0.016467
0.0164552
0.0164433
0.0164313
0.0164192
0.0164071
0.0163949
0.0163826
0.0163704
0.0163581
0.0163458
0.0163336
0.0163214
0.0163092
0.0162972
0.0162853
0.0162735
0.0162619
0.0162504
0.0162392
0.0162282
0.0162175
0.016207
0.0161968
0.016187
0.0161775
0.0161684
0.0161597
0.0161514
0.0161436
0.0161362
0.0161294
0.016123
0.0161172
0.016112
0.0161073
0.0161033
0.0160998
0.016097
0.0160949
0.0160933
0.0160925
0.0160923
0.0160927
0.0160938
0.0160956
0.0160981
0.0161012
0.0161049
0.0161092
0.0161141
0.0161196
0.0161256
0.0161321
0.0161391
0.0161465
0.0161542
0.0161622
0.0161705
0.016179
0.0161876
0.0161962
0.0162048
0.0162133
0.0162215
0.0162295
0.0162371
0.0162442
0.0162507
0.0162566
0.0162617
0.0162659
0.0162691
0.0162712
0.0162722
0.0162719
0.0162702
0.016267
0.0162623
0.016256
0.0162479
0.0162381
0.0162264
0.0162128
0.0161973
0.0161797
0.0161601
0.0161384
0.0161147
0.0160889
0.016061
0.016031
0.015999
0.015965
0.0159291
0.0158912
0.0158515
0.0158101
0.0157669
0.0157222
0.015676
0.0156284
0.0155795
0.0155295
0.0154784
0.0154264
0.0153736
0.0153202
0.0152663
0.015212
0.0151574
0.0151028
0.0150481
0.0149936
0.0149394
0.0148855
0.0148322
0.0147795
0.0147276
0.0146765
0.0146263
0.0145771
0.0145291
0.0144823
0.0144367
0.0143924
0.0143496
0.0143082
0.0142682
0.0142299
0.014193
0.0141578
0.0141242
0.0140922
0.0140619
0.0140333
0.0140063
0.0139811
0.0139575
0.0139356
0.0139154
0.0138969
0.0138801
0.013865
0.0138515
0.0138396
0.0138294
0.0138207
0.0138136
0.013808
0.013804
0.0138013
0.0138
0.0137999
0.013801
0.0138031
0.013806
0.0138097
0.0138138
0.0138183
0.0138231
0.0138269
0.0167526
0.0167532
0.0167535
0.0167528
0.0167514
0.0167492
0.0167464
0.0167429
0.0167388
0.0167341
0.016729
0.0167234
0.0167173
0.0167109
0.0167041
0.016697
0.0166896
0.0166819
0.0166739
0.0166657
0.0166572
0.0166486
0.0166397
0.0166307
0.0166214
0.016612
0.0166023
0.0165925
0.0165825
0.0165724
0.016562
0.0165515
0.0165408
0.01653
0.016519
0.0165079
0.0164966
0.0164851
0.0164736
0.0164619
0.0164501
0.0164382
0.0164263
0.0164142
0.0164021
0.01639
0.0163779
0.0163657
0.0163535
0.0163414
0.0163293
0.0163173
0.0163054
0.0162936
0.0162819
0.0162703
0.0162589
0.0162478
0.0162369
0.0162262
0.0162157
0.0162056
0.0161958
0.0161863
0.0161772
0.0161685
0.0161602
0.0161523
0.0161449
0.0161379
0.0161315
0.0161256
0.0161202
0.0161154
0.0161112
0.0161075
0.0161045
0.0161021
0.0161003
0.0160991
0.0160986
0.0160987
0.0160995
0.0161009
0.0161029
0.0161056
0.0161088
0.0161127
0.0161171
0.0161221
0.0161276
0.0161335
0.0161399
0.0161467
0.0161539
0.0161613
0.016169
0.0161769
0.0161848
0.0161928
0.0162008
0.0162086
0.0162163
0.0162236
0.0162306
0.016237
0.0162429
0.0162482
0.0162527
0.0162563
0.0162589
0.0162605
0.016261
0.0162601
0.0162579
0.0162543
0.0162492
0.0162424
0.0162339
0.0162237
0.0162117
0.0161978
0.0161819
0.0161641
0.0161442
0.0161224
0.0160985
0.0160725
0.0160446
0.0160145
0.0159825
0.0159485
0.0159126
0.0158748
0.0158353
0.0157939
0.015751
0.0157065
0.0156605
0.0156132
0.0155646
0.0155149
0.0154642
0.0154126
0.0153603
0.0153073
0.0152539
0.0152001
0.0151461
0.015092
0.0150379
0.014984
0.0149303
0.0148771
0.0148244
0.0147724
0.0147211
0.0146706
0.0146211
0.0145726
0.0145252
0.014479
0.0144341
0.0143905
0.0143482
0.0143074
0.0142681
0.0142303
0.014194
0.0141593
0.0141262
0.0140947
0.0140649
0.0140367
0.0140101
0.0139852
0.013962
0.0139404
0.0139205
0.0139022
0.0138855
0.0138705
0.013857
0.0138452
0.0138349
0.0138262
0.013819
0.0138132
0.0138089
0.013806
0.0138044
0.0138041
0.0138049
0.0138068
0.0138096
0.0138133
0.0138176
0.0138225
0.0138283
0.013833
0.016756
0.0167565
0.0167565
0.0167557
0.0167542
0.0167519
0.0167491
0.0167456
0.0167415
0.0167369
0.0167319
0.0167264
0.0167205
0.0167142
0.0167075
0.0167006
0.0166933
0.0166858
0.016678
0.0166699
0.0166616
0.0166532
0.0166444
0.0166355
0.0166264
0.0166171
0.0166076
0.0165979
0.0165881
0.016578
0.0165678
0.0165574
0.0165469
0.0165361
0.0165252
0.0165142
0.016503
0.0164917
0.0164802
0.0164687
0.016457
0.0164452
0.0164333
0.0164214
0.0164094
0.0163974
0.0163853
0.0163732
0.0163612
0.0163491
0.0163371
0.0163252
0.0163133
0.0163016
0.01629
0.0162785
0.0162672
0.0162561
0.0162451
0.0162345
0.0162241
0.0162139
0.0162041
0.0161946
0.0161855
0.0161767
0.0161683
0.0161604
0.0161529
0.0161458
0.0161393
0.0161332
0.0161277
0.0161227
0.0161182
0.0161144
0.0161111
0.0161084
0.0161063
0.0161049
0.016104
0.0161038
0.0161042
0.0161052
0.0161068
0.0161091
0.0161119
0.0161153
0.0161193
0.0161238
0.0161287
0.0161342
0.0161401
0.0161463
0.016153
0.0161598
0.016167
0.0161743
0.0161817
0.0161891
0.0161965
0.0162037
0.0162108
0.0162176
0.016224
0.01623
0.0162353
0.01624
0.016244
0.0162471
0.0162493
0.0162504
0.0162504
0.0162491
0.0162465
0.0162424
0.0162369
0.0162298
0.016221
0.0162104
0.0161981
0.0161839
0.0161678
0.0161497
0.0161297
0.0161077
0.0160836
0.0160575
0.0160294
0.0159993
0.0159673
0.0159332
0.0158973
0.0158596
0.0158201
0.0157789
0.015736
0.0156917
0.0156458
0.0155987
0.0155504
0.0155009
0.0154505
0.0153992
0.0153472
0.0152946
0.0152416
0.0151882
0.0151346
0.0150809
0.0150273
0.0149738
0.0149207
0.014868
0.0148159
0.0147643
0.0147136
0.0146637
0.0146147
0.0145668
0.01452
0.0144744
0.01443
0.014387
0.0143453
0.0143051
0.0142663
0.014229
0.0141933
0.0141591
0.0141265
0.0140955
0.0140661
0.0140383
0.0140121
0.0139876
0.0139647
0.0139434
0.0139237
0.0139056
0.0138891
0.0138742
0.0138608
0.013849
0.0138388
0.01383
0.0138227
0.0138169
0.0138124
0.0138094
0.0138076
0.0138071
0.0138078
0.0138095
0.0138124
0.0138161
0.0138208
0.0138263
0.013833
0.0138386
0.0167604
0.0167606
0.0167604
0.0167594
0.0167577
0.0167553
0.0167523
0.0167488
0.0167447
0.0167402
0.0167352
0.0167298
0.0167239
0.0167177
0.0167112
0.0167044
0.0166973
0.0166899
0.0166823
0.0166744
0.0166662
0.0166579
0.0166493
0.0166406
0.0166316
0.0166224
0.016613
0.0166035
0.0165937
0.0165838
0.0165737
0.0165634
0.016553
0.0165424
0.0165316
0.0165206
0.0165095
0.0164983
0.016487
0.0164755
0.0164639
0.0164522
0.0164404
0.0164285
0.0164166
0.0164047
0.0163927
0.0163807
0.0163687
0.0163567
0.0163448
0.0163329
0.0163211
0.0163094
0.0162978
0.0162863
0.0162751
0.016264
0.0162531
0.0162424
0.016232
0.0162218
0.016212
0.0162024
0.0161932
0.0161844
0.0161759
0.0161678
0.0161602
0.016153
0.0161463
0.0161401
0.0161344
0.0161291
0.0161245
0.0161204
0.0161168
0.0161138
0.0161115
0.0161097
0.0161085
0.0161079
0.016108
0.0161086
0.0161098
0.0161116
0.016114
0.016117
0.0161205
0.0161245
0.016129
0.016134
0.0161394
0.0161451
0.0161512
0.0161576
0.0161642
0.016171
0.0161779
0.0161848
0.0161917
0.0161985
0.0162051
0.0162114
0.0162173
0.0162228
0.0162277
0.0162319
0.0162355
0.0162381
0.0162399
0.0162406
0.0162402
0.0162385
0.0162356
0.0162312
0.0162254
0.0162179
0.0162088
0.016198
0.0161854
0.016171
0.0161547
0.0161364
0.0161162
0.016094
0.0160698
0.0160436
0.0160154
0.0159852
0.0159531
0.015919
0.0158831
0.0158454
0.0158058
0.0157647
0.0157219
0.0156776
0.0156319
0.0155849
0.0155367
0.0154874
0.0154372
0.0153861
0.0153343
0.015282
0.0152292
0.0151761
0.0151228
0.0150695
0.0150162
0.0149632
0.0149105
0.0148582
0.0148065
0.0147554
0.0147051
0.0146557
0.0146072
0.0145598
0.0145135
0.0144684
0.0144246
0.014382
0.0143409
0.0143012
0.0142629
0.0142261
0.0141909
0.0141572
0.014125
0.0140944
0.0140655
0.0140381
0.0140123
0.0139881
0.0139655
0.0139445
0.0139251
0.0139072
0.0138909
0.0138762
0.0138629
0.0138512
0.013841
0.0138322
0.0138249
0.013819
0.0138144
0.0138112
0.0138094
0.0138088
0.0138094
0.0138112
0.0138141
0.0138181
0.0138231
0.0138292
0.0138368
0.0138433
0.0167656
0.0167655
0.016765
0.0167638
0.0167618
0.0167593
0.0167562
0.0167526
0.0167485
0.0167439
0.0167389
0.0167335
0.0167278
0.0167217
0.0167153
0.0167085
0.0167016
0.0166943
0.0166868
0.016679
0.016671
0.0166628
0.0166544
0.0166458
0.0166369
0.0166279
0.0166186
0.0166092
0.0165996
0.0165898
0.0165797
0.0165696
0.0165592
0.0165487
0.016538
0.0165271
0.0165161
0.016505
0.0164937
0.0164823
0.0164708
0.0164592
0.0164475
0.0164357
0.0164238
0.0164119
0.0164
0.016388
0.0163761
0.0163641
0.0163522
0.0163404
0.0163286
0.0163169
0.0163053
0.0162939
0.0162826
0.0162715
0.0162606
0.0162499
0.0162394
0.0162292
0.0162193
0.0162096
0.0162003
0.0161914
0.0161828
0.0161746
0.0161668
0.0161595
0.0161526
0.0161461
0.0161402
0.0161347
0.0161298
0.0161254
0.0161216
0.0161183
0.0161156
0.0161135
0.016112
0.016111
0.0161107
0.0161109
0.0161117
0.0161131
0.0161151
0.0161176
0.0161207
0.0161242
0.0161283
0.0161328
0.0161377
0.016143
0.0161486
0.0161545
0.0161607
0.016167
0.0161734
0.0161799
0.0161863
0.0161926
0.0161988
0.0162047
0.0162102
0.0162152
0.0162197
0.0162236
0.0162268
0.0162291
0.0162305
0.0162309
0.0162302
0.0162282
0.016225
0.0162203
0.0162142
0.0162065
0.0161972
0.0161862
0.0161734
0.0161588
0.0161423
0.0161239
0.0161035
0.0160812
0.0160569
0.0160306
0.0160023
0.015972
0.0159398
0.0159057
0.0158697
0.0158319
0.0157924
0.0157511
0.0157084
0.0156641
0.0156184
0.0155715
0.0155234
0.0154742
0.0154241
0.0153731
0.0153215
0.0152693
0.0152167
0.0151638
0.0151108
0.0150577
0.0150047
0.014952
0.0148996
0.0148476
0.0147962
0.0147455
0.0146956
0.0146466
0.0145986
0.0145516
0.0145057
0.0144611
0.0144177
0.0143756
0.014335
0.0142957
0.0142579
0.0142216
0.0141868
0.0141535
0.0141218
0.0140917
0.0140631
0.0140361
0.0140107
0.0139869
0.0139646
0.0139439
0.0139247
0.0139071
0.013891
0.0138764
0.0138633
0.0138516
0.0138415
0.0138327
0.0138254
0.0138194
0.0138149
0.0138117
0.0138097
0.0138091
0.0138098
0.0138116
0.0138147
0.013819
0.0138244
0.0138311
0.0138395
0.0138467
0.0167716
0.0167712
0.0167703
0.0167688
0.0167666
0.0167639
0.0167606
0.0167569
0.0167527
0.0167481
0.0167431
0.0167377
0.016732
0.0167259
0.0167196
0.0167129
0.0167061
0.0166989
0.0166915
0.0166839
0.016676
0.0166679
0.0166596
0.0166511
0.0166424
0.0166334
0.0166243
0.016615
0.0166055
0.0165958
0.0165859
0.0165758
0.0165655
0.0165551
0.0165445
0.0165337
0.0165228
0.0165117
0.0165005
0.0164891
0.0164777
0.0164661
0.0164544
0.0164427
0.0164309
0.016419
0.0164071
0.0163952
0.0163832
0.0163713
0.0163594
0.0163476
0.0163358
0.0163241
0.0163125
0.0163011
0.0162897
0.0162786
0.0162676
0.0162568
0.0162463
0.016236
0.016226
0.0162162
0.0162068
0.0161977
0.016189
0.0161806
0.0161726
0.0161651
0.0161579
0.0161513
0.0161451
0.0161394
0.0161341
0.0161295
0.0161253
0.0161217
0.0161187
0.0161162
0.0161143
0.0161129
0.0161122
0.016112
0.0161124
0.0161134
0.0161149
0.016117
0.0161196
0.0161228
0.0161264
0.0161304
0.0161349
0.0161397
0.0161449
0.0161504
0.0161561
0.016162
0.016168
0.016174
0.01618
0.016186
0.0161917
0.0161972
0.0162024
0.0162071
0.0162113
0.0162149
0.0162177
0.0162198
0.0162209
0.016221
0.01622
0.0162179
0.0162144
0.0162095
0.0162032
0.0161954
0.0161859
0.0161747
0.0161618
0.016147
0.0161304
0.0161118
0.0160913
0.0160689
0.0160445
0.016018
0.0159897
0.0159593
0.015927
0.0158928
0.0158568
0.0158189
0.0157794
0.0157381
0.0156953
0.015651
0.0156054
0.0155584
0.0155103
0.0154611
0.0154111
0.0153602
0.0153086
0.0152565
0.0152041
0.0151513
0.0150984
0.0150455
0.0149927
0.0149401
0.014888
0.0148363
0.0147851
0.0147347
0.0146852
0.0146365
0.0145888
0.0145421
0.0144967
0.0144524
0.0144094
0.0143678
0.0143275
0.0142887
0.0142513
0.0142154
0.014181
0.0141482
0.0141169
0.0140872
0.014059
0.0140324
0.0140073
0.0139838
0.0139619
0.0139414
0.0139225
0.0139051
0.0138893
0.0138748
0.0138619
0.0138504
0.0138403
0.0138316
0.0138243
0.0138184
0.0138138
0.0138106
0.0138087
0.0138081
0.0138088
0.0138108
0.013814
0.0138186
0.0138244
0.0138317
0.0138409
0.0138487
0.0167784
0.0167776
0.0167763
0.0167744
0.0167719
0.0167689
0.0167655
0.0167616
0.0167573
0.0167526
0.0167476
0.0167422
0.0167365
0.0167305
0.0167242
0.0167176
0.0167108
0.0167037
0.0166964
0.0166889
0.0166811
0.0166732
0.016665
0.0166566
0.016648
0.0166391
0.0166301
0.0166209
0.0166115
0.0166019
0.0165921
0.0165821
0.0165719
0.0165615
0.016551
0.0165403
0.0165294
0.0165184
0.0165072
0.0164959
0.0164845
0.016473
0.0164613
0.0164496
0.0164378
0.016426
0.0164141
0.0164022
0.0163902
0.0163783
0.0163664
0.0163545
0.0163427
0.016331
0.0163193
0.0163078
0.0162964
0.0162852
0.0162741
0.0162633
0.0162526
0.0162422
0.016232
0.0162221
0.0162125
0.0162033
0.0161943
0.0161857
0.0161775
0.0161697
0.0161624
0.0161554
0.0161489
0.0161429
0.0161374
0.0161324
0.0161279
0.0161239
0.0161205
0.0161176
0.0161153
0.0161136
0.0161124
0.0161118
0.0161118
0.0161123
0.0161134
0.016115
0.0161172
0.0161199
0.0161231
0.0161266
0.0161307
0.0161351
0.0161399
0.0161449
0.0161502
0.0161557
0.0161613
0.016167
0.0161726
0.0161782
0.0161836
0.0161888
0.0161937
0.0161981
0.016202
0.0162053
0.0162079
0.0162098
0.0162107
0.0162106
0.0162094
0.0162071
0.0162035
0.0161985
0.016192
0.016184
0.0161744
0.0161632
0.0161501
0.0161352
0.0161185
0.0160999
0.0160793
0.0160568
0.0160323
0.0160058
0.0159774
0.0159469
0.0159146
0.0158803
0.0158442
0.0158063
0.0157667
0.0157254
0.0156825
0.0156382
0.0155924
0.0155455
0.0154973
0.0154481
0.015398
0.0153472
0.0152956
0.0152436
0.0151911
0.0151384
0.0150856
0.0150327
0.0149801
0.0149277
0.0148756
0.0148241
0.0147732
0.014723
0.0146737
0.0146252
0.0145778
0.0145315
0.0144863
0.0144424
0.0143997
0.0143584
0.0143186
0.0142801
0.0142431
0.0142076
0.0141736
0.0141412
0.0141103
0.0140809
0.0140531
0.0140269
0.0140022
0.013979
0.0139574
0.0139372
0.0139186
0.0139014
0.0138858
0.0138715
0.0138587
0.0138474
0.0138374
0.0138288
0.0138216
0.0138157
0.0138112
0.013808
0.0138061
0.0138056
0.0138064
0.0138085
0.013812
0.0138168
0.013823
0.0138308
0.0138407
0.0138491
0.0167858
0.0167846
0.0167828
0.0167805
0.0167778
0.0167745
0.0167709
0.0167668
0.0167624
0.0167576
0.0167524
0.016747
0.0167413
0.0167353
0.016729
0.0167225
0.0167157
0.0167088
0.0167015
0.0166941
0.0166864
0.0166786
0.0166705
0.0166622
0.0166537
0.016645
0.016636
0.0166269
0.0166176
0.016608
0.0165983
0.0165884
0.0165783
0.016568
0.0165575
0.0165468
0.016536
0.016525
0.0165139
0.0165027
0.0164913
0.0164797
0.0164681
0.0164564
0.0164446
0.0164328
0.0164209
0.0164089
0.016397
0.016385
0.016373
0.0163611
0.0163493
0.0163375
0.0163257
0.0163141
0.0163026
0.0162913
0.0162801
0.0162691
0.0162583
0.0162477
0.0162374
0.0162273
0.0162175
0.016208
0.0161988
0.01619
0.0161815
0.0161734
0.0161657
0.0161585
0.0161516
0.0161453
0.0161394
0.016134
0.0161291
0.0161248
0.0161209
0.0161177
0.0161149
0.0161128
0.0161111
0.0161101
0.0161096
0.0161097
0.0161103
0.0161115
0.0161132
0.0161154
0.0161181
0.0161213
0.0161249
0.0161289
0.0161332
0.0161379
0.0161428
0.0161479
0.0161531
0.0161585
0.0161638
0.0161691
0.0161742
0.0161791
0.0161837
0.0161879
0.0161916
0.0161947
0.0161971
0.0161988
0.0161995
0.0161993
0.016198
0.0161956
0.0161919
0.0161868
0.0161803
0.0161722
0.0161626
0.0161512
0.0161381
0.0161232
0.0161065
0.0160878
0.0160672
0.0160447
0.0160201
0.0159936
0.0159651
0.0159346
0.0159022
0.0158679
0.0158317
0.0157937
0.015754
0.0157127
0.0156697
0.0156253
0.0155795
0.0155325
0.0154843
0.015435
0.0153849
0.015334
0.0152824
0.0152303
0.0151778
0.0151251
0.0150723
0.0150195
0.0149669
0.0149145
0.0148626
0.0148112
0.0147604
0.0147104
0.0146612
0.0146129
0.0145657
0.0145196
0.0144747
0.0144311
0.0143887
0.0143477
0.0143082
0.01427
0.0142334
0.0141983
0.0141646
0.0141325
0.014102
0.014073
0.0140456
0.0140197
0.0139953
0.0139724
0.0139511
0.0139313
0.0139129
0.013896
0.0138806
0.0138665
0.0138539
0.0138427
0.0138328
0.0138243
0.0138172
0.0138114
0.013807
0.0138038
0.013802
0.0138016
0.0138025
0.0138048
0.0138084
0.0138135
0.0138201
0.0138283
0.0138388
0.0138477
0.0167938
0.0167922
0.0167899
0.0167872
0.016784
0.0167805
0.0167766
0.0167723
0.0167677
0.0167628
0.0167576
0.0167521
0.0167463
0.0167403
0.0167341
0.0167276
0.0167209
0.016714
0.0167068
0.0166994
0.0166919
0.0166841
0.0166761
0.0166679
0.0166595
0.0166508
0.016642
0.0166329
0.0166237
0.0166142
0.0166046
0.0165947
0.0165847
0.0165744
0.016564
0.0165534
0.0165426
0.0165317
0.0165205
0.0165093
0.0164979
0.0164864
0.0164748
0.016463
0.0164512
0.0164393
0.0164274
0.0164154
0.0164034
0.0163914
0.0163793
0.0163674
0.0163554
0.0163435
0.0163317
0.0163199
0.0163083
0.0162968
0.0162854
0.0162742
0.0162633
0.0162525
0.0162419
0.0162316
0.0162215
0.0162118
0.0162023
0.0161932
0.0161844
0.016176
0.0161679
0.0161603
0.0161531
0.0161464
0.0161401
0.0161343
0.016129
0.0161242
0.0161199
0.0161161
0.0161129
0.0161103
0.0161082
0.0161067
0.0161057
0.0161053
0.0161055
0.0161062
0.0161074
0.0161091
0.0161114
0.0161141
0.0161173
0.0161208
0.0161247
0.016129
0.0161335
0.0161383
0.0161432
0.0161482
0.0161532
0.0161582
0.0161631
0.0161677
0.0161721
0.0161761
0.0161796
0.0161825
0.0161848
0.0161864
0.016187
0.0161868
0.0161854
0.0161829
0.0161792
0.0161741
0.0161675
0.0161595
0.0161498
0.0161385
0.0161255
0.0161106
0.0160938
0.0160752
0.0160546
0.0160321
0.0160075
0.015981
0.0159525
0.015922
0.0158896
0.0158552
0.015819
0.015781
0.0157412
0.0156998
0.0156568
0.0156123
0.0155665
0.0155193
0.015471
0.0154217
0.0153715
0.0153205
0.0152688
0.0152167
0.0151641
0.0151114
0.0150585
0.0150057
0.0149531
0.0149007
0.0148488
0.0147975
0.0147467
0.0146968
0.0146477
0.0145996
0.0145526
0.0145066
0.0144619
0.0144185
0.0143764
0.0143357
0.0142964
0.0142585
0.0142222
0.0141874
0.0141541
0.0141223
0.0140921
0.0140635
0.0140363
0.0140108
0.0139867
0.0139642
0.0139432
0.0139236
0.0139055
0.0138888
0.0138736
0.0138598
0.0138474
0.0138363
0.0138266
0.0138182
0.0138112
0.0138055
0.0138011
0.0137981
0.0137964
0.013796
0.013797
0.0137995
0.0138033
0.0138087
0.0138156
0.0138242
0.0138351
0.0138444
0.0168023
0.0168003
0.0167974
0.0167943
0.0167908
0.0167869
0.0167827
0.0167782
0.0167734
0.0167683
0.016763
0.0167574
0.0167516
0.0167456
0.0167393
0.0167329
0.0167262
0.0167193
0.0167122
0.0167049
0.0166974
0.0166897
0.0166818
0.0166737
0.0166653
0.0166568
0.016648
0.016639
0.0166299
0.0166205
0.0166109
0.0166011
0.0165911
0.0165809
0.0165705
0.0165599
0.0165491
0.0165382
0.0165271
0.0165158
0.0165044
0.0164929
0.0164812
0.0164695
0.0164576
0.0164457
0.0164337
0.0164216
0.0164095
0.0163974
0.0163853
0.0163731
0.0163611
0.016349
0.016337
0.0163251
0.0163133
0.0163016
0.0162901
0.0162787
0.0162674
0.0162564
0.0162456
0.0162349
0.0162246
0.0162145
0.0162047
0.0161952
0.0161861
0.0161773
0.0161689
0.0161608
0.0161532
0.016146
0.0161392
0.016133
0.0161272
0.0161219
0.0161171
0.0161129
0.0161091
0.016106
0.0161034
0.0161013
0.0160998
0.0160989
0.0160985
0.0160987
0.0160995
0.0161007
0.0161025
0.0161047
0.0161074
0.0161105
0.016114
0.0161179
0.016122
0.0161264
0.016131
0.0161357
0.0161404
0.0161451
0.0161498
0.0161542
0.0161584
0.0161622
0.0161656
0.0161685
0.0161707
0.0161722
0.0161728
0.0161725
0.0161711
0.0161687
0.0161649
0.0161599
0.0161534
0.0161454
0.0161359
0.0161246
0.0161116
0.0160968
0.0160802
0.0160616
0.0160411
0.0160186
0.0159942
0.0159677
0.0159393
0.0159088
0.0158764
0.0158421
0.0158059
0.0157679
0.0157281
0.0156866
0.0156435
0.015599
0.0155531
0.0155058
0.0154575
0.015408
0.0153577
0.0153066
0.0152548
0.0152026
0.01515
0.0150971
0.0150442
0.0149913
0.0149386
0.0148862
0.0148343
0.0147829
0.0147322
0.0146823
0.0146333
0.0145853
0.0145383
0.0144925
0.014448
0.0144047
0.0143628
0.0143223
0.0142832
0.0142456
0.0142095
0.014175
0.014142
0.0141106
0.0140806
0.0140523
0.0140255
0.0140002
0.0139765
0.0139543
0.0139335
0.0139142
0.0138964
0.01388
0.013865
0.0138514
0.0138391
0.0138282
0.0138187
0.0138105
0.0138036
0.013798
0.0137937
0.0137907
0.0137891
0.0137889
0.01379
0.0137926
0.0137966
0.0138022
0.0138093
0.0138182
0.0138295
0.0138392
0.0168112
0.0168087
0.0168053
0.0168017
0.0167978
0.0167936
0.0167891
0.0167843
0.0167793
0.0167741
0.0167686
0.016763
0.0167571
0.016751
0.0167448
0.0167383
0.0167316
0.0167248
0.0167177
0.0167105
0.0167031
0.0166954
0.0166876
0.0166795
0.0166712
0.0166628
0.0166541
0.0166451
0.016636
0.0166267
0.0166171
0.0166074
0.0165974
0.0165872
0.0165768
0.0165662
0.0165555
0.0165445
0.0165334
0.0165221
0.0165107
0.0164991
0.0164874
0.0164756
0.0164637
0.0164517
0.0164396
0.0164274
0.0164152
0.016403
0.0163907
0.0163784
0.0163662
0.016354
0.0163418
0.0163297
0.0163177
0.0163057
0.0162939
0.0162822
0.0162707
0.0162594
0.0162482
0.0162373
0.0162266
0.0162161
0.0162059
0.0161961
0.0161865
0.0161772
0.0161683
0.0161598
0.0161517
0.016144
0.0161367
0.0161299
0.0161236
0.0161177
0.0161124
0.0161076
0.0161033
0.0160995
0.0160964
0.0160937
0.0160917
0.0160902
0.0160893
0.0160889
0.0160891
0.0160898
0.016091
0.0160928
0.016095
0.0160977
0.0161007
0.0161042
0.0161079
0.0161119
0.0161162
0.0161206
0.016125
0.0161295
0.0161339
0.0161382
0.0161422
0.0161459
0.0161492
0.016152
0.0161541
0.0161556
0.0161562
0.016156
0.0161547
0.0161523
0.0161486
0.0161437
0.0161374
0.0161295
0.0161201
0.016109
0.0160962
0.0160816
0.0160651
0.0160467
0.0160264
0.016004
0.0159797
0.0159534
0.015925
0.0158947
0.0158624
0.0158281
0.0157919
0.015754
0.0157142
0.0156727
0.0156297
0.0155851
0.0155391
0.0154918
0.0154434
0.0153938
0.0153434
0.0152922
0.0152404
0.015188
0.0151353
0.0150823
0.0150293
0.0149763
0.0149235
0.0148711
0.014819
0.0147676
0.0147169
0.014667
0.014618
0.01457
0.0145231
0.0144774
0.0144329
0.0143898
0.014348
0.0143076