/*--------------------------------*- C++ -*----------------------------------*\
  =========                 |
  \\      /  F ield         | OpenFOAM: The Open Source CFD Toolbox
   \\    /   O peration     | Website:  https://openfoam.org
    \\  /    A nd           | Version:  6
     \\/     M anipulation  |
\*---------------------------------------------------------------------------*/
FoamFile
{
    version     2.0;
    format      ascii;
    class       volVectorField;
    location    "0";
    object      uRec;
}
// * * * * * * * * * * * * * * * * * * * * * * * * * * * * * * * * * * * * * //

dimensions      [0 1 -1 0 0 0 0];

internalField   nonuniform List<vector> 
10000
(
(4.78943e-06 5.78064e-06 0)
(7.11391e-05 -7.01261e-06 0)
(0.000203152 -2.1925e-05 0)
(0.000398612 -3.39954e-05 0)
(0.000650301 -4.30439e-05 0)
(0.000942826 -4.8959e-05 0)
(0.00125932 -5.12048e-05 0)
(0.0015815 -4.94921e-05 0)
(0.00189259 -4.42192e-05 0)
(0.00217878 -3.62697e-05 0)
(0.00242986 -2.68594e-05 0)
(0.00263929 -1.7185e-05 0)
(0.00280414 -8.18516e-06 0)
(0.00292479 -5.71912e-07 0)
(0.00300436 5.09041e-06 0)
(0.00304882 8.11624e-06 0)
(0.00306112 9.04741e-06 0)
(0.00306382 1.90662e-05 0)
(0.00301026 2.44605e-05 0)
(0.00294878 1.93244e-05 0)
(0.00287488 1.88176e-05 0)
(0.00279055 1.86168e-05 0)
(0.00269786 1.81545e-05 0)
(0.00259917 1.7521e-05 0)
(0.00249709 1.65192e-05 0)
(0.00239324 1.54021e-05 0)
(0.00228974 1.42827e-05 0)
(0.00218823 1.29931e-05 0)
(0.00208914 1.17857e-05 0)
(0.00199359 1.08163e-05 0)
(0.00190251 9.78973e-06 0)
(0.00181548 8.74011e-06 0)
(0.00173252 8.01784e-06 0)
(0.00165441 7.44861e-06 0)
(0.00158081 6.72218e-06 0)
(0.00151089 6.04805e-06 0)
(0.00144481 5.68248e-06 0)
(0.00138286 5.41755e-06 0)
(0.00132449 4.96619e-06 0)
(0.00126898 4.50747e-06 0)
(0.00121642 4.29878e-06 0)
(0.0011671 4.18494e-06 0)
(0.00112057 3.93045e-06 0)
(0.00107626 3.60721e-06 0)
(0.00103423 3.40044e-06 0)
(0.000994687 3.31543e-06 0)
(0.00095752 3.18548e-06 0)
(0.000922353 2.94663e-06 0)
(0.000889055 2.7296e-06 0)
(0.000857848 2.61653e-06 0)
(0.000828852 2.52972e-06 0)
(0.000801894 2.37736e-06 0)
(0.00077677 2.15141e-06 0)
(0.000753497 1.92554e-06 0)
(0.000732281 1.7636e-06 0)
(0.000713251 1.62417e-06 0)
(0.000696374 1.43772e-06 0)
(0.000681454 1.21729e-06 0)
(0.000668432 9.35534e-07 0)
(0.000657689 9.01661e-07 0)
(0.000647972 1.11302e-06 0)
(0.000639496 1.06682e-06 0)
(0.000631863 9.35002e-07 0)
(0.000624594 8.67053e-07 0)
(0.000618085 6.5107e-07 0)
(0.000612802 3.66232e-07 0)
(0.000609293 1.57385e-07 0)
(0.000607407 2.06914e-08 0)
(0.000606775 -5.54304e-08 0)
(0.000607035 -1.08021e-07 0)
(0.000607897 -1.47197e-07 0)
(0.000609183 -1.51416e-07 0)
(0.000610824 -1.06289e-07 0)
(0.000612805 -5.23279e-08 0)
(0.000615119 -5.01967e-08 0)
(0.000617823 -1.04388e-07 0)
(0.000621174 -2.05769e-07 0)
(0.000625649 -4.03976e-07 0)
(0.000631881 -7.55381e-07 0)
(0.000640699 -1.28151e-06 0)
(0.000653235 -2.03104e-06 0)
(0.000670934 -3.10458e-06 0)
(0.00069551 -4.60279e-06 0)
(0.000729 -6.60306e-06 0)
(0.000773764 -9.19653e-06 0)
(0.00083228 -1.24583e-05 0)
(0.000906826 -1.6373e-05 0)
(0.000999141 -2.08333e-05 0)
(0.00110991 -2.56497e-05 0)
(0.00123795 -3.04834e-05 0)
(0.00137925 -3.47389e-05 0)
(0.00152603 -3.75107e-05 0)
(0.00166569 -3.75807e-05 0)
(0.001779 -3.28885e-05 0)
(0.00183805 -2.13073e-05 0)
(0.00180559 1.29398e-06 0)
(0.0016317 3.92508e-05 0)
(0.00126973 9.18827e-05 0)
(0.00072473 0.000143251 0)
(0.000151824 0.000142551 0)
(1.4336e-05 -4.46428e-05 0)
(0.00018785 -0.000179424 0)
(0.000517275 -0.000312865 0)
(0.00098229 -0.000426454 0)
(0.00156071 -0.000515375 0)
(0.00222188 -0.000574917 0)
(0.00293281 -0.000602649 0)
(0.00365966 -0.000599025 0)
(0.00437154 -0.000567477 0)
(0.00504271 -0.000513499 0)
(0.00565319 -0.000443783 0)
(0.0061888 -0.000365013 0)
(0.00664074 -0.000283191 0)
(0.00700506 -0.00020354 0)
(0.00728188 -0.000130455 0)
(0.00747471 -6.74264e-05 0)
(0.00759279 -1.7147e-05 0)
(0.00762492 3.17723e-05 0)
(0.00766061 8.61564e-05 0)
(0.00757123 0.000124152 0)
(0.007467 0.000145621 0)
(0.00732337 0.000164932 0)
(0.00714796 0.000179836 0)
(0.00694692 0.000190445 0)
(0.00672687 0.00019675 0)
(0.00649337 0.000198995 0)
(0.00625153 0.0001981 0)
(0.00600622 0.000194699 0)
(0.00576078 0.000189255 0)
(0.00551814 0.000182443 0)
(0.00528103 0.000174822 0)
(0.00505103 0.00016665 0)
(0.00482906 0.000158262 0)
(0.00461625 0.000149937 0)
(0.00441317 0.000141772 0)
(0.00421969 0.000133901 0)
(0.00403581 0.000126438 0)
(0.00386148 0.000119424 0)
(0.00369631 0.000112765 0)
(0.00353982 0.000106497 0)
(0.00339169 0.000100712 0)
(0.00325163 9.52856e-05 0)
(0.00311909 9.00779e-05 0)
(0.00299356 8.51548e-05 0)
(0.00287489 8.05422e-05 0)
(0.00276293 7.61414e-05 0)
(0.0026573 7.18386e-05 0)
(0.00255766 6.7596e-05 0)
(0.0024639 6.35039e-05 0)
(0.00237609 5.95828e-05 0)
(0.00229419 5.56792e-05 0)
(0.00221793 5.17016e-05 0)
(0.00214713 4.77038e-05 0)
(0.00208189 4.37595e-05 0)
(0.00202235 3.98578e-05 0)
(0.00196854 3.59018e-05 0)
(0.00192025 3.18013e-05 0)
(0.00187735 2.7564e-05 0)
(0.00184058 2.35473e-05 0)
(0.00180835 2.00417e-05 0)
(0.00178293 1.72818e-05 0)
(0.00176166 1.61406e-05 0)
(0.00174053 1.51245e-05 0)
(0.00172216 1.34515e-05 0)
(0.00170491 1.15553e-05 0)
(0.00168975 8.66811e-06 0)
(0.00167878 5.48883e-06 0)
(0.00167188 2.76635e-06 0)
(0.00166838 6.05247e-07 0)
(0.00166753 -1.01348e-06 0)
(0.00166875 -2.17707e-06 0)
(0.00167158 -2.98851e-06 0)
(0.00167568 -3.5658e-06 0)
(0.00168087 -4.10559e-06 0)
(0.00168718 -4.8646e-06 0)
(0.00169481 -6.06096e-06 0)
(0.00170427 -7.89388e-06 0)
(0.00171646 -1.06815e-05 0)
(0.00173275 -1.48557e-05 0)
(0.00175491 -2.08634e-05 0)
(0.00178517 -2.92026e-05 0)
(0.00182635 -4.04729e-05 0)
(0.00188179 -5.52868e-05 0)
(0.00195521 -7.41209e-05 0)
(0.00205067 -9.72346e-05 0)
(0.00217215 -0.000124526 0)
(0.00232286 -0.000155223 0)
(0.00250431 -0.000187638 0)
(0.00271528 -0.000218939 0)
(0.00295038 -0.000244838 0)
(0.0031982 -0.000259208 0)
(0.0034394 -0.000253815 0)
(0.00364531 -0.000218216 0)
(0.00377336 -0.000139736 0)
(0.00377356 -6.78035e-07 0)
(0.00356929 0.000217155 0)
(0.00308975 0.000515328 0)
(0.00228509 0.000845983 0)
(0.00121829 0.001047 0)
(0.000193035 0.000746541 0)
(1.84255e-05 -0.000163333 0)
(0.000265433 -0.000493642 0)
(0.000725766 -0.00080043 0)
(0.00136277 -0.00106244 0)
(0.00214203 -0.00126692 0)
(0.00302321 -0.00140403 0)
(0.0039654 -0.00147063 0)
(0.00492936 -0.00147002 0)
(0.00588037 -0.00141038 0)
(0.00678938 -0.00130286 0)
(0.00763342 -0.00115986 0)
(0.00839548 -0.000993675 0)
(0.00906372 -0.00081546 0)
(0.00963085 -0.000635 0)
(0.0100936 -0.000460545 0)
(0.0104514 -0.000298565 0)
(0.0107081 -0.000154551 0)
(0.0108701 -3.33208e-05 0)
(0.0109416 9.23365e-05 0)
(0.0109556 0.000197733 0)
(0.0108929 0.000263637 0)
(0.0107728 0.000330591 0)
(0.0105962 0.0003875 0)
(0.0103742 0.000431393 0)
(0.0101154 0.000463247 0)
(0.00982749 0.000483846 0)
(0.00951832 0.000494506 0)
(0.00919434 0.000497174 0)
(0.00886083 0.000493353 0)
(0.00852351 0.000484187 0)
(0.00818693 0.000471079 0)
(0.00785386 0.00045519 0)
(0.00752715 0.000437276 0)
(0.00720985 0.000418182 0)
(0.00690334 0.000398636 0)
(0.00660807 0.000379027 0)
(0.00632514 0.000359588 0)
(0.00605543 0.000340746 0)
(0.00579868 0.000322772 0)
(0.00555435 0.000305591 0)
(0.00532238 0.000289131 0)
(0.00510281 0.000273516 0)
(0.00489504 0.000258773 0)
(0.00469826 0.00024479 0)
(0.00451209 0.000231379 0)
(0.00433644 0.000218403 0)
(0.00417095 0.000205896 0)
(0.00401509 0.00019384 0)
(0.00386856 0.000182085 0)
(0.00373127 0.0001705 0)
(0.00360312 0.00015902 0)
(0.00348395 0.000147639 0)
(0.00337351 0.000136389 0)
(0.00327168 0.000125247 0)
(0.00317849 0.00011412 0)
(0.00309394 0.000102922 0)
(0.00301778 9.16144e-05 0)
(0.00294986 8.01845e-05 0)
(0.0028896 6.89291e-05 0)
(0.00283907 5.8277e-05 0)
(0.00279559 4.88851e-05 0)
(0.00275918 4.18458e-05 0)
(0.00273585 3.87682e-05 0)
(0.00270804 3.65399e-05 0)
(0.0026845 3.25886e-05 0)
(0.00266017 2.64366e-05 0)
(0.00263964 1.81914e-05 0)
(0.00262573 1.04159e-05 0)
(0.00261718 4.16603e-06 0)
(0.00261298 -6.6297e-07 0)
(0.00261223 -4.24936e-06 0)
(0.00261425 -6.95059e-06 0)
(0.00261852 -9.14489e-06 0)
(0.00262468 -1.12033e-05 0)
(0.00263264 -1.35954e-05 0)
(0.00264268 -1.68953e-05 0)
(0.00265538 -2.17024e-05 0)
(0.00267174 -2.87053e-05 0)
(0.00269328 -3.87888e-05 0)
(0.00272207 -5.29935e-05 0)
(0.00276068 -7.24299e-05 0)
(0.0028122 -9.82518e-05 0)
(0.00288024 -0.000131554 0)
(0.00296877 -0.000173109 0)
(0.00308181 -0.000223068 0)
(0.00322301 -0.000280633 0)
(0.00339479 -0.000343529 0)
(0.00359723 -0.00040737 0)
(0.00382677 -0.000465091 0)
(0.00407453 -0.000506396 0)
(0.00432434 -0.000517181 0)
(0.0045505 -0.00047905 0)
(0.00471584 -0.000369368 0)
(0.00477033 -0.000162026 0)
(0.00464674 0.000177142 0)
(0.00427079 0.000670088 0)
(0.00357947 0.00129588 0)
(0.00255036 0.00193038 0)
(0.00129617 0.00223267 0)
(0.000177161 0.00148312 0)
(2.006e-05 -0.000315952 0)
(0.000312477 -0.000892383 0)
(0.000854724 -0.00140752 0)
(0.00159811 -0.00184155 0)
(0.00249859 -0.00217665 0)
(0.00350873 -0.00240039 0)
(0.00458267 -0.00251088 0)
(0.00567914 -0.00251567 0)
(0.00676289 -0.00242892 0)
(0.00780518 -0.00226817 0)
(0.00878349 -0.0020517 0)
(0.00968106 -0.00179709 0)
(0.010486 -0.00152024 0)
(0.0111902 -0.00123483 0)
(0.0117894 -0.000952493 0)
(0.0122813 -0.000682727 0)
(0.0126682 -0.000433083 0)
(0.0129508 -0.00021043 0)
(0.0131184 -1.96422e-05 0)
(0.0132996 0.000162916 0)
(0.0132667 0.000336385 0)
(0.0132056 0.000466852 0)
(0.0130721 0.00058004 0)
(0.0128802 0.000671991 0)
(0.0126391 0.00074343 0)
(0.0123556 0.000796079 0)
(0.012038 0.000831535 0)
(0.0116939 0.000851919 0)
(0.0113294 0.000859626 0)
(0.0109506 0.000856652 0)
(0.0105638 0.000844857 0)
(0.0101737 0.000826166 0)
(0.00978405 0.000802216 0)
(0.00939916 0.000774385 0)
(0.00902192 0.000743917 0)
(0.00865421 0.000711906 0)
(0.0082982 0.000679215 0)
(0.0079556 0.000646479 0)
(0.00762694 0.000614183 0)
(0.00731246 0.0005827 0)
(0.00701278 0.000552253 0)
(0.00672821 0.000523027 0)
(0.00645826 0.00049503 0)
(0.00620231 0.000468129 0)
(0.00596017 0.000442258 0)
(0.0057318 0.000417384 0)
(0.00551678 0.000393407 0)
(0.00531439 0.000370145 0)
(0.0051242 0.000347408 0)
(0.00494616 0.000325075 0)
(0.00478015 0.000303112 0)
(0.00462581 0.000281487 0)
(0.00448275 0.000260118 0)
(0.00435077 0.000238906 0)
(0.00422982 0.000217804 0)
(0.00411982 0.00019685 0)
(0.00402045 0.000176078 0)
(0.00393132 0.000155465 0)
(0.00385216 0.00013484 0)
(0.00378208 0.000114514 0)
(0.00372319 9.54551e-05 0)
(0.00367627 7.87317e-05 0)
(0.00363327 6.66083e-05 0)
(0.00361218 6.19814e-05 0)
(0.0035851 6.01393e-05 0)
(0.00355786 5.36915e-05 0)
(0.00352732 4.02805e-05 0)
(0.00350375 2.53316e-05 0)
(0.00348792 1.31831e-05 0)
(0.00347779 3.71142e-06 0)
(0.0034723 -3.57368e-06 0)
(0.0034705 -9.21109e-06 0)
(0.00347178 -1.38399e-05 0)
(0.00347567 -1.812e-05 0)
(0.00348188 -2.27905e-05 0)
(0.00349053 -2.87486e-05 0)
(0.00350216 -3.7021e-05 0)
(0.00351767 -4.87514e-05 0)
(0.00353841 -6.52916e-05 0)
(0.00356623 -8.82307e-05 0)
(0.0036035 -0.000119251 0)
(0.003653 -0.000159974 0)
(0.0037179 -0.000211828 0)
(0.00380157 -0.000275712 0)
(0.00390726 -0.000351493 0)
(0.00403758 -0.000437358 0)
(0.00419377 -0.000529088 0)
(0.00437448 -0.000619142 0)
(0.0045744 -0.000695716 0)
(0.0047826 -0.000741861 0)
(0.00498064 -0.000734731 0)
(0.00514024 -0.000645026 0)
(0.00522103 -0.000438228 0)
(0.00517206 -7.12732e-05 0)
(0.00492441 0.000496811 0)
(0.00441604 0.00128164 0)
(0.00360096 0.00222889 0)
(0.00248478 0.00312618 0)
(0.00120877 0.00345344 0)
(0.000146007 0.00218785 0)
(2.01982e-05 -0.000484036 0)
(0.000339668 -0.00133922 0)
(0.000934273 -0.00208673 0)
(0.00174487 -0.0027068 0)
(0.00271907 -0.00317858 0)
(0.00380362 -0.00349016 0)
(0.00494917 -0.00364346 0)
(0.00611336 -0.00365229 0)
(0.00726155 -0.00353785 0)
(0.00836661 -0.00332444 0)
(0.00940795 -0.00303647 0)
(0.0103705 -0.00269657 0)
(0.0112438 -0.00232493 0)
(0.012021 -0.00193863 0)
(0.012698 -0.00155184 0)
(0.0132725 -0.00117635 0)
(0.013744 -0.000820933 0)
(0.0141122 -0.000495278 0)
(0.0143828 -0.000211109 0)
(0.0145063 7.06818e-05 0)
(0.0146668 0.000319269 0)
(0.0146913 0.000525316 0)
(0.0146455 0.000708639 0)
(0.0145234 0.000862327 0)
(0.0143395 0.000986557 0)
(0.0141022 0.0010836 0)
(0.0138196 0.00115588 0)
(0.0134997 0.00120586 0)
(0.0131489 0.00123612 0)
(0.0127741 0.00124935 0)
(0.0123819 0.00124812 0)
(0.0119775 0.00123481 0)
(0.0115657 0.00121159 0)
(0.0111518 0.00118052 0)
(0.0107398 0.00114359 0)
(0.0103326 0.0011024 0)
(0.00993313 0.00105828 0)
(0.00954443 0.00101242 0)
(0.00916813 0.000965838 0)
(0.0088053 0.000919342 0)
(0.00845721 0.000873461 0)
(0.0081249 0.000828519 0)
(0.00780849 0.0007848 0)
(0.0075078 0.000742481 0)
(0.00722298 0.000701565 0)
(0.00695415 0.000661992 0)
(0.00670093 0.000623657 0)
(0.0064627 0.000586383 0)
(0.00623909 0.000550008 0)
(0.00602997 0.000514439 0)
(0.00583512 0.000479587 0)
(0.00565409 0.000445299 0)
(0.00548633 0.000411454 0)
(0.0053315 0.000378016 0)
(0.00518955 0.000344991 0)
(0.0050603 0.000312419 0)
(0.00494327 0.000280349 0)
(0.00483784 0.000248807 0)
(0.00474361 0.000217763 0)
(0.00466011 0.000187044 0)
(0.00458669 0.000156808 0)
(0.00452341 0.000128803 0)
(0.00447658 0.000104868 0)
(0.00443175 8.76429e-05 0)
(0.00441376 8.31784e-05 0)
(0.00439427 8.33277e-05 0)
(0.00436318 7.26036e-05 0)
(0.00432753 5.05882e-05 0)
(0.00430261 3.01001e-05 0)
(0.00428435 1.47992e-05 0)
(0.00427151 2.87976e-06 0)
(0.00426309 -6.48683e-06 0)
(0.00425828 -1.41547e-05 0)
(0.00425645 -2.11194e-05 0)
(0.00425718 -2.84098e-05 0)
(0.00426039 -3.71875e-05 0)
(0.00426641 -4.88471e-05 0)
(0.00427588 -6.49968e-05 0)
(0.00428977 -8.7436e-05 0)
(0.00430953 -0.000118157 0)
(0.00433704 -0.000159255 0)
(0.00437448 -0.000212737 0)
(0.00442421 -0.000280263 0)
(0.0044887 -0.000362697 0)
(0.00457025 -0.000459438 0)
(0.00467045 -0.000567555 0)
(0.00478942 -0.000680802 0)
(0.00492474 -0.000788429 0)
(0.00507015 -0.000873883 0)
(0.00521394 -0.000913632 0)
(0.0053372 -0.000876237 0)
(0.00541108 -0.000721829 0)
(0.00539799 -0.000402877 0)
(0.00524257 0.000133559 0)
(0.00489021 0.000931385 0)
(0.00428924 0.00199319 0)
(0.00341186 0.00322458 0)
(0.00228615 0.00432302 0)
(0.00106662 0.00460531 0)
(0.00011399 0.00281023 0)
(1.98248e-05 -0.000662212 0)
(0.000357307 -0.00181749 0)
(0.000987959 -0.00281336 0)
(0.00184298 -0.00362711 0)
(0.00286197 -0.00423601 0)
(0.00398681 -0.00463125 0)
(0.00516562 -0.00482155 0)
(0.00635573 -0.004829 0)
(0.00752375 -0.00468297 0)
(0.00864459 -0.00441505 0)
(0.0097001 -0.00405592 0)
(0.0106776 -0.00363323 0)
(0.011569 -0.00317101 0)
(0.0123695 -0.00268946 0)
(0.0130764 -0.00220473 0)
(0.013689 -0.00172995 0)
(0.0142079 -0.00127514 0)
(0.0146336 -0.000848199 0)
(0.0149709 -0.000457749 0)
(0.0152114 -0.000127258 0)
(0.0154059 0.000176384 0)
(0.0154798 0.000488848 0)
(0.0155013 0.000754868 0)
(0.0154474 0.00097942 0)
(0.0153304 0.00116535 0)
(0.0151561 0.00131584 0)
(0.014931 0.00143385 0)
(0.014662 0.00152246 0)
(0.0143548 0.00158465 0)
(0.0140158 0.00162336 0)
(0.0136516 0.00164148 0)
(0.0132672 0.00164189 0)
(0.0128677 0.00162737 0)
(0.0124587 0.00160039 0)
(0.0120448 0.0015633 0)
(0.0116293 0.00151824 0)
(0.0112162 0.00146711 0)
(0.0108093 0.00141165 0)
(0.010411 0.00135335 0)
(0.0100232 0.00129336 0)
(0.00964807 0.00123265 0)
(0.00928741 0.00117206 0)
(0.00894216 0.00111213 0)
(0.00861271 0.00105329 0)
(0.00829961 0.000995798 0)
(0.00800344 0.000939723 0)
(0.00772419 0.000885053 0)
(0.00746141 0.000831786 0)
(0.00721486 0.000779833 0)
(0.0069845 0.000729044 0)
(0.00677003 0.000679309 0)
(0.00657086 0.000630507 0)
(0.00638646 0.000582525 0)
(0.00621646 0.000535331 0)
(0.00606058 0.000488948 0)
(0.00591849 0.000443427 0)
(0.00578963 0.000398834 0)
(0.00567329 0.00035523 0)
(0.00556886 0.000312668 0)
(0.00547577 0.00027121 0)
(0.0053934 0.000230905 0)
(0.0053214 0.00019152 0)
(0.00525731 0.000155144 0)
(0.00521347 0.000124746 0)
(0.00516849 0.000102786 0)
(0.00516146 0.000102478 0)
(0.00514542 0.000104085 0)
(0.00510944 8.58099e-05 0)
(0.00507081 5.78775e-05 0)
(0.00504369 3.47141e-05 0)
(0.00502168 1.75354e-05 0)
(0.00500442 3.97306e-06 0)
(0.00499095 -7.07565e-06 0)
(0.0049805 -1.68398e-05 0)
(0.00497255 -2.66381e-05 0)
(0.00496675 -3.79326e-05 0)
(0.0049631 -5.24378e-05 0)
(0.00496192 -7.21093e-05 0)
(0.00496385 -9.90792e-05 0)
(0.00496981 -0.000135648 0)
(0.00498105 -0.000184227 0)
(0.004999 -0.000247124 0)
(0.00502523 -0.00032612 0)
(0.00506134 -0.000421926 0)
(0.00510869 -0.00053342 0)
(0.00516798 -0.000656627 0)
(0.00523853 -0.000783398 0)
(0.00531731 -0.000899897 0)
(0.00539774 -0.000985001 0)
(0.00546813 -0.00100893 0)
(0.00551002 -0.000932157 0)
(0.00549576 -0.000705123 0)
(0.00538856 -0.000270376 0)
(0.00514175 0.000434926 0)
(0.00470739 0.00144955 0)
(0.00404602 0.00276092 0)
(0.00314524 0.00423135 0)
(0.00204998 0.0054711 0)
(0.000918607 0.00565448 0)
(8.64108e-05 0.00334294 0)
(1.99465e-05 -0.000847896 0)
(0.000371975 -0.00231854 0)
(0.00102947 -0.0035725 0)
(0.00191448 -0.00458203 0)
(0.00295902 -0.00532372 0)
(0.00410078 -0.0057947 0)
(0.00528644 -0.00601311 0)
(0.00647383 -0.0060111 0)
(0.00763126 -0.00582729 0)
(0.00873587 -0.00550115 0)
(0.00977212 -0.00506969 0)
(0.0107301 -0.00456569 0)
(0.011604 -0.00401672 0)
(0.0123915 -0.00344573 0)
(0.0130919 -0.002871 0)
(0.0137059 -0.00230668 0)
(0.0142353 -0.00176395 0)
(0.0146814 -0.00125183 0)
(0.0150468 -0.000777743 0)
(0.0153295 -0.000353907 0)
(0.0155241 4.22608e-05 0)
(0.0156806 0.000411021 0)
(0.0157674 0.000742827 0)
(0.0157829 0.00103082 0)
(0.0157352 0.0012765 0)
(0.0156293 0.00148204 0)
(0.0154708 0.00164955 0)
(0.0152654 0.00178178 0)
(0.0150179 0.00188168 0)
(0.0147339 0.00195232 0)
(0.0144193 0.00199683 0)
(0.0140785 0.00201824 0)
(0.0137164 0.00201956 0)
(0.0133382 0.00200362 0)
(0.0129486 0.00197307 0)
(0.0125512 0.00193043 0)
(0.0121503 0.00187802 0)
(0.0117501 0.0018179 0)
(0.0113537 0.001752 0)
(0.0109635 0.00168193 0)
(0.0105824 0.00160905 0)
(0.010213 0.00153465 0)
(0.00985681 0.00145969 0)
(0.00951492 0.00138485 0)
(0.00918851 0.00131065 0)
(0.0088786 0.00123755 0)
(0.00858567 0.0011658 0)
(0.00830971 0.00109552 0)
(0.00805065 0.00102672 0)
(0.00780854 0.000959381 0)
(0.00758327 0.000893461 0)
(0.00737433 0.000828898 0)
(0.00718108 0.000765627 0)
(0.00700305 0.000703633 0)
(0.00683994 0.000642957 0)
(0.00669134 0.000583665 0)
(0.00655645 0.000525836 0)
(0.00643443 0.000469577 0)
(0.00632463 0.000415048 0)
(0.00622647 0.000362415 0)
(0.00613918 0.000311806 0)
(0.00606187 0.000263221 0)
(0.00599399 0.000215882 0)
(0.00593189 0.000172413 0)
(0.00589317 0.000136205 0)
(0.0058431 0.000111541 0)
(0.00586071 0.000120942 0)
(0.00583307 0.000123718 0)
(0.00579201 9.57462e-05 0)
(0.0057548 6.5054e-05 0)
(0.00572445 4.20014e-05 0)
(0.00569744 2.41496e-05 0)
(0.00567392 9.76202e-06 0)
(0.00565304 -2.55486e-06 0)
(0.0056341 -1.44222e-05 0)
(0.00561659 -2.76043e-05 0)
(0.00560025 -4.40295e-05 0)
(0.00558508 -6.58495e-05 0)
(0.00557134 -9.54663e-05 0)
(0.00555942 -0.000135468 0)
(0.00554994 -0.000188483 0)
(0.00554368 -0.000256945 0)
(0.00554148 -0.000342684 0)
(0.00554414 -0.000446299 0)
(0.00555226 -0.000566225 0)
(0.00556583 -0.000697511 0)
(0.0055837 -0.000830278 0)
(0.00560266 -0.000947904 0)
(0.00561623 -0.00102514 0)
(0.00561317 -0.00102656 0)
(0.00557613 -0.000905307 0)
(0.00547855 -0.000602938 0)
(0.00528816 -5.00679e-05 0)
(0.00496393 0.000814255 0)
(0.00446721 0.00202694 0)
(0.00376819 0.00355644 0)
(0.00286697 0.00522091 0)
(0.00182035 0.00654911 0)
(0.000784872 0.00659448 0)
(6.47093e-05 0.0037929 0)
(2.08386e-05 -0.00104091 0)
(0.000386445 -0.00283874 0)
(0.00106472 -0.00435532 0)
(0.00196891 -0.00555748 0)
(0.00302425 -0.00642361 0)
(0.00416527 -0.00695963 0)
(0.00533826 -0.00719532 0)
(0.00650218 -0.00717432 0)
(0.00762733 -0.00694533 0)
(0.00869326 -0.00655613 0)
(0.00968697 -0.00605014 0)
(0.0106014 -0.00546518 0)
(0.0114335 -0.00483249 0)
(0.0121828 -0.00417723 0)
(0.0128513 -0.0035193 0)
(0.0134414 -0.00287363 0)
(0.0139558 -0.00225136 0)
(0.0143969 -0.00166111 0)
(0.014765 -0.00110978 0)
(0.0150675 -0.000605958 0)
(0.0152739 -0.000163546 0)
(0.0154559 0.000247141 0)
(0.015599 0.000655126 0)
(0.015671 0.00101249 0)
(0.0156837 0.00131926 0)
(0.0156413 0.00158024 0)
(0.0155479 0.001798 0)
(0.0154085 0.00197541 0)
(0.0152267 0.00211561 0)
(0.0150067 0.00222176 0)
(0.0147531 0.00229707 0)
(0.0144698 0.00234462 0)
(0.0141607 0.00236734 0)
(0.0138306 0.00236829 0)
(0.0134839 0.0023503 0)
(0.013124 0.00231599 0)
(0.0127551 0.00226797 0)
(0.0123816 0.00220858 0)
(0.0120069 0.00213998 0)
(0.0116336 0.0020642 0)
(0.0112652 0.00198301 0)
(0.0109048 0.00189796 0)
(0.0105543 0.00181039 0)
(0.0102154 0.00172142 0)
(0.00988992 0.00163192 0)
(0.00957947 0.00154262 0)
(0.00928494 0.0014541 0)
(0.00900663 0.00136676 0)
(0.00874489 0.00128083 0)
(0.00850017 0.00119644 0)
(0.00827245 0.00111373 0)
(0.00806128 0.00103275 0)
(0.00786618 0.000953572 0)
(0.00768672 0.000876226 0)
(0.00752247 0.000800765 0)
(0.00737288 0.000727283 0)
(0.00723716 0.000655934 0)
(0.0071144 0.000586905 0)
(0.00700382 0.000520391 0)
(0.00690466 0.000456585 0)
(0.00681613 0.00039568 0)
(0.00673732 0.000337815 0)
(0.00666709 0.000282888 0)
(0.00660417 0.000229731 0)
(0.00654642 0.000182016 0)
(0.0065106 0.000140969 0)
(0.00645899 0.000123933 0)
(0.00649629 0.000142209 0)
(0.00645621 0.000137456 0)
(0.00641049 0.000103923 0)
(0.00637347 7.48057e-05 0)
(0.00633778 5.39573e-05 0)
(0.00630421 3.72681e-05 0)
(0.00627234 2.31747e-05 0)
(0.00624137 1.00608e-05 0)
(0.00621074 -3.96987e-06 0)
(0.00618002 -2.09945e-05 0)
(0.00614894 -4.33233e-05 0)
(0.00611733 -7.35308e-05 0)
(0.00608519 -0.000114374 0)
(0.00605267 -0.000168607 0)
(0.00601993 -0.000238728 0)
(0.00598714 -0.000326597 0)
(0.00595447 -0.000432732 0)
(0.00592194 -0.000555212 0)
(0.00588908 -0.000688217 0)
(0.00585442 -0.000820306 0)
(0.00581474 -0.000932335 0)
(0.00576382 -0.000995194 0)
(0.00569103 -0.000967894 0)
(0.0055799 -0.00079575 0)
(0.00540796 -0.000412166 0)
(0.00515113 0.00024473 0)
(0.00476278 0.00125594 0)
(0.00421814 0.00264587 0)
(0.0034966 0.00436228 0)
(0.00260757 0.00617963 0)
(0.00161561 0.00755205 0)
(0.000671997 0.00743257 0)
(4.84954e-05 0.00417282 0)
(2.22402e-05 -0.00124137 0)
(0.000400826 -0.00337528 0)
(0.00109479 -0.00515459 0)
(0.0020086 -0.00654202 0)
(0.00306213 -0.0075212 0)
(0.00418803 -0.00810967 0)
(0.00533303 -0.00835074 0)
(0.00645768 -0.00830059 0)
(0.00753437 -0.00801853 0)
(0.00854525 -0.00756094 0)
(0.00947993 -0.00697787 0)
(0.0103339 -0.00631191 0)
(0.0111068 -0.00559799 0)
(0.011801 -0.0048635 0)
(0.0124202 -0.00412936 0)
(0.0129689 -0.00341099 0)
(0.0134516 -0.00271929 0)
(0.0138722 -0.00206182 0)
(0.0142328 -0.00144399 0)
(0.0145376 -0.000868946 0)
(0.0147819 -0.000352168 0)
(0.0149545 8.38989e-05 0)
(0.0151284 0.00052708 0)
(0.0152364 0.000944062 0)
(0.015291 0.00130533 0)
(0.0153004 0.00161707 0)
(0.0152651 0.00188198 0)
(0.0151882 0.00210291 0)
(0.0150713 0.00228314 0)
(0.0149171 0.00242575 0)
(0.0147288 0.00253384 0)
(0.014509 0.00261047 0)
(0.014261 0.00265842 0)
(0.0139889 0.00268055 0)
(0.0136962 0.00267979 0)
(0.0133862 0.00265879 0)
(0.0130629 0.00262013 0)
(0.0127304 0.00256641 0)
(0.0123919 0.00250003 0)
(0.0120505 0.00242316 0)
(0.0117096 0.00233784 0)
(0.0113726 0.00224595 0)
(0.0110418 0.00214914 0)
(0.0107194 0.00204887 0)
(0.0104075 0.0019464 0)
(0.0101081 0.00184277 0)
(0.00982277 0.00173887 0)
(0.00955215 0.00163544 0)
(0.00929689 0.00153298 0)
(0.0090577 0.00143189 0)
(0.00883495 0.00133252 0)
(0.00862847 0.00123517 0)
(0.00843779 0.00114002 0)
(0.00826248 0.00104721 0)
(0.00810221 0.00095686 0)
(0.00795651 0.000869208 0)
(0.0078245 0.000784486 0)
(0.00770514 0.000702876 0)
(0.00759756 0.000624592 0)
(0.00750101 0.000549929 0)
(0.00741466 0.000479174 0)
(0.00733752 0.000412502 0)
(0.00726838 0.00034991 0)
(0.00720612 0.000290998 0)
(0.00714759 0.000234441 0)
(0.00710056 0.000185487 0)
(0.00705597 0.000141005 0)
(0.00704206 0.000141785 0)
(0.0070551 0.000165478 0)
(0.00700896 0.000149872 0)
(0.0069605 0.000118106 0)
(0.00691809 9.35215e-05 0)
(0.00687486 7.53529e-05 0)
(0.00683225 6.05257e-05 0)
(0.00678941 4.73571e-05 0)
(0.00674554 3.38525e-05 0)
(0.00670009 1.77796e-05 0)
(0.00665254 -3.28049e-06 0)
(0.00660247 -3.19377e-05 0)
(0.00654954 -7.09899e-05 0)
(0.00649349 -0.000123288 0)
(0.00643404 -0.000191418 0)
(0.00637078 -0.000277233 0)
(0.00630338 -0.000381147 0)
(0.00623147 -0.00050097 0)
(0.00615431 -0.00063024 0)
(0.00607035 -0.000756241 0)
(0.00597661 -0.0008577 0)
(0.0058677 -0.000902241 0)
(0.00573489 -0.000844439 0)
(0.0055617 -0.000626121 0)
(0.00533682 -0.000183434 0)
(0.00500256 0.000598583 0)
(0.00456326 0.00174721 0)
(0.00398265 0.00329396 0)
(0.00324906 0.00516815 0)
(0.00237882 0.00710235 0)
(0.00144117 0.00848309 0)
(0.000580237 0.00818134 0)
(3.67804e-05 0.00449603 0)
(2.38971e-05 -0.00144921 0)
(0.000414088 -0.00392484 0)
(0.00111826 -0.00596312 0)
(0.00203247 -0.00752527 0)
(0.00307287 -0.00860405 0)
(0.00417145 -0.00923141 0)
(0.00527595 -0.00946554 0)
(0.00634885 -0.00937599 0)
(0.00736477 -0.00903298 0)
(0.00830832 -0.00850159 0)
(0.00917184 -0.00783875 0)
(0.00995342 -0.00709188 0)
(0.0106553 -0.00629923 0)
(0.0112822 -0.00549035 0)
(0.0118403 -0.00468707 0)
(0.0123359 -0.00390495 0)
(0.0127752 -0.00315454 0)
(0.0131632 -0.00244274 0)
(0.0135048 -0.0017742 0)
(0.0138029 -0.0011508 0)
(0.0140607 -0.000586763 0)
(0.0142758 -9.87606e-05 0)
(0.0144236 0.000381089 0)
(0.0145603 0.000851654 0)
(0.0146415 0.0012554 0)
(0.0146936 0.00160687 0)
(0.0147098 0.00191061 0)
(0.0146901 0.00216957 0)
(0.0146344 0.00238664 0)
(0.0145435 0.00256441 0)
(0.0144197 0.00270535 0)
(0.0142642 0.0028121 0)
(0.0140795 0.00288727 0)
(0.0138691 0.00293336 0)
(0.0136359 0.002953 0)
(0.0133824 0.00294893 0)
(0.0131123 0.0029237 0)
(0.0128295 0.00287985 0)
(0.012537 0.0028199 0)
(0.0122375 0.00274617 0)
(0.0119346 0.00266087 0)
(0.0116317 0.00256607 0)
(0.0113314 0.00246369 0)
(0.0110359 0.00235544 0)
(0.0107478 0.00224292 0)
(0.0104693 0.0021275 0)
(0.0102024 0.00201039 0)
(0.00994786 0.0018926 0)
(0.00970684 0.00177499 0)
(0.00948042 0.00165833 0)
(0.00926922 0.00154322 0)
(0.00907323 0.00143012 0)
(0.00889218 0.00131944 0)
(0.00872584 0.00121154 0)
(0.00857397 0.00110673 0)
(0.00843614 0.0010053 0)
(0.00831144 0.000907556 0)
(0.0081988 0.000813776 0)
(0.00809739 0.000724271 0)
(0.00800641 0.000639364 0)
(0.00792491 0.000559351 0)
(0.00785181 0.000484461 0)
(0.00778592 0.000414798 0)
(0.00772576 0.000350213 0)
(0.00767039 0.000289686 0)
(0.00761276 0.000232499 0)
(0.00757564 0.000182594 0)
(0.00750419 0.000147914 0)
(0.00754417 0.000171842 0)
(0.00751687 0.000189229 0)
(0.00747006 0.000165371 0)
(0.00742348 0.000140121 0)
(0.00737493 0.000122426 0)
(0.00732374 0.000108656 0)
(0.00727057 9.69581e-05 0)
(0.00721462 8.54892e-05 0)
(0.00715532 7.202e-05 0)
(0.00709212 5.41132e-05 0)
(0.00702444 2.91637e-05 0)
(0.00695166 -5.60794e-06 0)
(0.00687319 -5.30833e-05 0)
(0.00678842 -0.000115922 0)
(0.00669658 -0.000195978 0)
(0.0065969 -0.00029355 0)
(0.00648868 -0.000406235 0)
(0.00637098 -0.000527147 0)
(0.00624216 -0.000642595 0)
(0.00609936 -0.0007295 0)
(0.00593758 -0.000752591 0)
(0.00574837 -0.000661833 0)
(0.00551902 -0.000390972 0)
(0.00522028 0.000149285 0)
(0.00484873 0.00101079 0)
(0.00437158 0.00227611 0)
(0.00376801 0.0039599 0)
(0.00303083 0.00596677 0)
(0.00218275 0.00798781 0)
(0.00129608 0.00934872 0)
(0.000507111 0.00885436 0)
(2.84754e-05 0.0047744 0)
(2.56625e-05 -0.00166382 0)
(0.000424939 -0.00448336 0)
(0.00113302 -0.00677332 0)
(0.00203862 -0.0084973 0)
(0.00305554 -0.00966109 0)
(0.00411625 -0.0103135 0)
(0.00516997 -0.0105286 0)
(0.00618118 -0.0103896 0)
(0.00712688 -0.00997804 0)
(0.00799409 -0.00936779 0)
(0.00877773 -0.00862267 0)
(0.00947857 -0.0077951 0)
(0.0101013 -0.00692649 0)
(0.0106531 -0.00604818 0)
(0.0111423 -0.00518273 0)
(0.011577 -0.00434556 0)
(0.0119647 -0.00354642 0)
(0.0123113 -0.00279137 0)
(0.0126231 -0.00208451 0)
(0.0128991 -0.00142957 0)
(0.0131554 -0.000831395 0)
(0.013404 -0.000272748 0)
(0.0134906 0.000245137 0)
(0.0136686 0.000736747 0)
(0.0137838 0.00116687 0)
(0.0138826 0.00154871 0)
(0.0139499 0.00188521 0)
(0.0139846 0.00217817 0)
(0.0139859 0.0024293 0)
(0.0139542 0.00264044 0)
(0.013891 0.00281347 0)
(0.0137971 0.00295034 0)
(0.0136742 0.00305327 0)
(0.0135249 0.00312459 0)
(0.0133519 0.00316664 0)
(0.013157 0.00318191 0)
(0.0129434 0.00317293 0)
(0.0127145 0.00314218 0)
(0.0124729 0.00309212 0)
(0.0122213 0.00302513 0)
(0.0119629 0.00294351 0)
(0.0117012 0.00284945 0)
(0.0114386 0.00274503 0)
(0.0111776 0.00263221 0)
(0.0109207 0.00251281 0)
(0.0106705 0.00238847 0)
(0.0104289 0.00226068 0)
(0.0101972 0.00213083 0)
(0.00997688 0.00200011 0)
(0.00976908 0.00186957 0)
(0.00957469 0.00174008 0)
(0.00939401 0.00161241 0)
(0.00922703 0.00148725 0)
(0.00907361 0.00136517 0)
(0.00893363 0.00124665 0)
(0.00880678 0.00113211 0)
(0.00869226 0.00102202 0)
(0.00858903 0.000916795 0)
(0.00849622 0.000816805 0)
(0.00841301 0.000722381 0)
(0.00833844 0.000633872 0)
(0.00827147 0.000551622 0)
(0.00821087 0.00047587 0)
(0.00815523 0.000406638 0)
(0.00810312 0.000343613 0)
(0.00805357 0.000284952 0)
(0.00799991 0.000231484 0)
(0.00796284 0.000181566 0)
(0.00790589 0.000169706 0)
(0.00795001 0.00020837 0)
(0.00790157 0.000213971 0)
(0.00784807 0.000192678 0)
(0.00779586 0.000175655 0)
(0.00773815 0.000164988 0)
(0.0076766 0.000156773 0)
(0.00761063 0.000149184 0)
(0.00753948 0.000140176 0)
(0.00746261 0.00012739 0)
(0.00737935 0.000108254 0)
(0.0072889 8.0043e-05 0)
(0.00719042 3.99427e-05 0)
(0.00708306 -1.46901e-05 0)
(0.00696585 -8.57342e-05 0)
(0.00683771 -0.000173431 0)
(0.0066976 -0.000275208 0)
(0.00654443 -0.00038383 0)
(0.00637652 -0.000484823 0)
(0.00619113 -0.000553494 0)
(0.00598365 -0.000551864 0)
(0.00574634 -0.000425741 0)
(0.00546576 -0.000104312 0)
(0.00512721 0.000494603 0)
(0.00471539 0.00145139 0)
(0.0042052 0.0028297 0)
(0.00358221 0.00463617 0)
(0.00284423 0.00675461 0)
(0.00201812 0.00883764 0)
(0.00117719 0.0101568 0)