/*--------------------------------*- C++ -*----------------------------------*\
  =========                 |
  \\      /  F ield         | OpenFOAM: The Open Source CFD Toolbox
   \\    /   O peration     | Website:  https://openfoam.org
    \\  /    A nd           | Version:  6
     \\/     M anipulation  |
\*---------------------------------------------------------------------------*/
FoamFile
{
    version     2.0;
    format      ascii;
    class       volVectorField;
    location    "25350";
    object      U;
}
// * * * * * * * * * * * * * * * * * * * * * * * * * * * * * * * * * * * * * //

dimensions      [0 1 -1 0 0 0 0];

internalField   nonuniform List<vector> 
115600
(
(0.00653181 -0.00184551 0)
(0.00745843 -3.61214e-05 0)
(0.00796524 1.46141e-06 0)
(0.00828599 1.33422e-06 0)
(0.00852965 6.48208e-07 0)
(0.00868721 1.00242e-06 0)
(0.00875886 1.18649e-06 0)
(0.00877083 1.12418e-06 0)
(0.00875016 1.0165e-06 0)
(0.00870556 9.7254e-07 0)
(0.00864604 9.1636e-07 0)
(0.00857801 8.51208e-07 0)
(0.00850605 7.82437e-07 0)
(0.00843333 7.14362e-07 0)
(0.00836191 6.50863e-07 0)
(0.00829303 5.91996e-07 0)
(0.00822751 5.37422e-07 0)
(0.00816585 4.86687e-07 0)
(0.00810836 4.393e-07 0)
(0.00805523 3.9481e-07 0)
(0.00800655 3.52821e-07 0)
(0.00796236 3.12989e-07 0)
(0.00792264 2.75005e-07 0)
(0.00788737 2.38604e-07 0)
(0.00785649 2.03533e-07 0)
(0.00782993 1.69572e-07 0)
(0.00780764 1.36489e-07 0)
(0.00778955 1.04054e-07 0)
(0.0077756 7.19993e-08 0)
(0.00776577 3.99677e-08 0)
(0.00776 6.28398e-09 0)
(0.00775858 -3.74722e-08 0)
(0.00776271 -8.41129e-08 0)
(0.00777165 -1.23167e-07 0)
(0.00778525 -1.60252e-07 0)
(0.00780341 -1.98204e-07 0)
(0.00782619 -2.38482e-07 0)
(0.00785379 -2.8215e-07 0)
(0.00788653 -3.30113e-07 0)
(0.00792484 -3.84267e-07 0)
(0.00796935 -4.46745e-07 0)
(0.00802087 -5.19133e-07 0)
(0.00808044 -6.04283e-07 0)
(0.00814941 -7.06669e-07 0)
(0.00822953 -8.31129e-07 0)
(0.00832314 -9.85179e-07 0)
(0.00843323 -1.17769e-06 0)
(0.00856414 -1.43066e-06 0)
(0.00872099 -1.74986e-06 0)
(0.00891416 -2.23591e-06 0)
(0.00914988 -2.78389e-06 0)
(0.00946912 -4.13463e-06 0)
(0.00984717 -4.93312e-06 0)
(0.0105672 -1.26467e-05 0)
(0.0112183 -2.06903e-05 0)
(0.0156116 -0.000335691 0)
(0.0197127 -0.000382164 0)
(0.0218173 -7.11521e-05 0)
(0.023591 -4.57852e-05 0)
(0.0246875 -3.06974e-05 0)
(0.0254286 -2.04592e-05 0)
(0.0258898 -9.60367e-06 0)
(0.0261142 -1.25106e-06 0)
(0.0261683 3.82606e-06 0)
(0.0261201 6.70329e-06 0)
(0.0260028 8.55358e-06 0)
(0.0258413 9.57083e-06 0)
(0.0256538 9.98002e-06 0)
(0.0254534 9.97103e-06 0)
(0.0252492 9.69376e-06 0)
(0.0250473 9.25995e-06 0)
(0.0248516 8.73594e-06 0)
(0.0246648 8.16206e-06 0)
(0.0244885 7.5633e-06 0)
(0.0243238 6.95532e-06 0)
(0.0241714 6.348e-06 0)
(0.0240316 5.74756e-06 0)
(0.0239047 5.15785e-06 0)
(0.0237905 4.58106e-06 0)
(0.0236892 4.01834e-06 0)
(0.0236004 3.46996e-06 0)
(0.0235241 2.93565e-06 0)
(0.02346 2.41461e-06 0)
(0.0234078 1.90555e-06 0)
(0.0233675 1.40634e-06 0)
(0.0233388 9.14336e-07 0)
(0.0233216 4.09546e-07 0)
(0.0233166 -1.81528e-07 0)
(0.0233266 -8.00058e-07 0)
(0.0233497 -1.3561e-06 0)
(0.0233854 -1.88595e-06 0)
(0.0234332 -2.41127e-06 0)
(0.0234933 -2.94809e-06 0)
(0.0235659 -3.50952e-06 0)
(0.0236517 -4.10867e-06 0)
(0.0237516 -4.76346e-06 0)
(0.023867 -5.49465e-06 0)
(0.0239997 -6.3244e-06 0)
(0.0241519 -7.28282e-06 0)
(0.0243268 -8.41066e-06 0)
(0.0245285 -9.76006e-06 0)
(0.0247622 -1.14031e-05 0)
(0.0250349 -1.34412e-05 0)
(0.0253564 -1.60315e-05 0)
(0.0257389 -1.93899e-05 0)
(0.0262046 -2.39635e-05 0)
(0.0267724 -3.02873e-05 0)
(0.0275208 -4.04053e-05 0)
(0.02844 -5.63143e-05 0)
(0.0300225 -9.54311e-05 0)
(0.0317957 -0.000205635 0)
(0.0388744 -0.000673948 0)
(0.0310013 -0.000463723 0)
(0.0342343 -0.000240019 0)
(0.0369923 -0.000164157 0)
(0.0387472 -0.00011089 0)
(0.0399412 -7.44113e-05 0)
(0.0407428 -4.31521e-05 0)
(0.0412317 -1.91409e-05 0)
(0.041486 -2.7628e-06 0)
(0.0415683 7.73806e-06 0)
(0.0415407 1.46243e-05 0)
(0.0414355 1.90254e-05 0)
(0.0412774 2.15888e-05 0)
(0.0410853 2.28084e-05 0)
(0.0408732 2.30931e-05 0)
(0.0406511 2.27566e-05 0)
(0.0404266 2.20049e-05 0)
(0.0402048 2.09747e-05 0)
(0.0399898 1.97585e-05 0)
(0.0397845 1.84203e-05 0)
(0.039591 1.70052e-05 0)
(0.0394108 1.55455e-05 0)
(0.0392451 1.40643e-05 0)
(0.0390947 1.25783e-05 0)
(0.0389599 1.10993e-05 0)
(0.0388412 9.63532e-06 0)
(0.0387385 8.19157e-06 0)
(0.038652 6.77082e-06 0)
(0.0385816 5.37358e-06 0)
(0.0385271 3.99762e-06 0)
(0.0384886 2.63687e-06 0)
(0.0384659 1.24299e-06 0)
(0.03846 -3.31544e-07 0)
(0.038473 -1.96703e-06 0)
(0.0385036 -3.47588e-06 0)
(0.0385513 -4.92101e-06 0)
(0.0386156 -6.35015e-06 0)
(0.0386968 -7.80055e-06 0)
(0.0387951 -9.3054e-06 0)
(0.0389114 -1.08992e-05 0)
(0.0390468 -1.26261e-05 0)
(0.0392031 -1.45378e-05 0)
(0.0393825 -1.66923e-05 0)
(0.039588 -1.91653e-05 0)
(0.0398236 -2.20559e-05 0)
(0.0400945 -2.54935e-05 0)
(0.0404074 -2.96541e-05 0)
(0.0407712 -3.47839e-05 0)
(0.041198 -4.12509e-05 0)
(0.0417033 -4.95899e-05 0)
(0.0423135 -6.07795e-05 0)
(0.0430542 -7.62687e-05 0)
(0.0440099 -0.000100083 0)
(0.045193 -0.000138474 0)
(0.0470825 -0.000221844 0)
(0.0492824 -0.000432583 0)
(0.0558882 -0.0010025 0)
(0.0409267 -0.000925104 0)
(0.0441068 -0.000460157 0)
(0.0470784 -0.00031246 0)
(0.0490548 -0.000213816 0)
(0.0504514 -0.000146202 0)
(0.0514577 -9.19472e-05 0)
(0.0521596 -5.04405e-05 0)
(0.0526275 -2.0726e-05 0)
(0.0529117 -4.38637e-07 0)
(0.0530616 1.32049e-05 0)
(0.0531183 2.23646e-05 0)
(0.0531056 2.83094e-05 0)
(0.0530425 3.18452e-05 0)
(0.0529433 3.36314e-05 0)
(0.0528193 3.41861e-05 0)
(0.0526791 3.38647e-05 0)
(0.0525294 3.29139e-05 0)
(0.0523757 3.1508e-05 0)
(0.0522222 2.97737e-05 0)
(0.0520721 2.78042e-05 0)
(0.0519281 2.56694e-05 0)
(0.0517923 2.34222e-05 0)
(0.0516664 2.11026e-05 0)
(0.0515516 1.87409e-05 0)
(0.0514489 1.63596e-05 0)
(0.0513591 1.39749e-05 0)
(0.0512827 1.1598e-05 0)
(0.0512201 9.23498e-06 0)
(0.0511717 6.88646e-06 0)
(0.0511377 4.54387e-06 0)
(0.0511186 2.13249e-06 0)
(0.0511153 -5.30272e-07 0)
(0.0511286 -3.28184e-06 0)
(0.0511583 -5.88263e-06 0)
(0.0512046 -8.4079e-06 0)
(0.0512678 -1.09241e-05 0)
(0.0513483 -1.34876e-05 0)
(0.0514469 -1.61528e-05 0)
(0.0515647 -1.89784e-05 0)
(0.0517031 -2.20389e-05 0)
(0.0518643 -2.54221e-05 0)
(0.052051 -2.92295e-05 0)
(0.0522665 -3.359e-05 0)
(0.0525154 -3.86719e-05 0)
(0.0528033 -4.46942e-05 0)
(0.0531376 -5.1953e-05 0)
(0.0535277 -6.08594e-05 0)
(0.0539864 -7.20163e-05 0)
(0.0545299 -8.63146e-05 0)
(0.0551844 -0.000105293 0)
(0.0559769 -0.000131406 0)
(0.0569848 -0.00017056 0)
(0.0582275 -0.000233409 0)
(0.0601075 -0.000359863 0)
(0.0622513 -0.000654753 0)
(0.0677322 -0.00127593 0)
(0.0502168 -0.00129849 0)
(0.0525605 -0.000652452 0)
(0.0551581 -0.000455762 0)
(0.056975 -0.000318301 0)
(0.0583124 -0.000222694 0)
(0.0593243 -0.00014794 0)
(0.0600796 -9.07011e-05 0)
(0.0606336 -4.86666e-05 0)
(0.0610272 -1.86853e-05 0)
(0.0612916 2.23857e-06 0)
(0.0614611 1.66792e-05 0)
(0.0615609 2.65748e-05 0)
(0.0616067 3.3098e-05 0)
(0.061611 3.71035e-05 0)
(0.0615837 3.92708e-05 0)
(0.061533 4.00771e-05 0)
(0.0614653 3.9863e-05 0)
(0.061386 3.88772e-05 0)
(0.0612995 3.73056e-05 0)
(0.0612093 3.52897e-05 0)
(0.0611185 3.29387e-05 0)
(0.0610295 3.03378e-05 0)
(0.0609443 2.75534e-05 0)
(0.0608645 2.46374e-05 0)
(0.0607917 2.16299e-05 0)
(0.0607268 1.85615e-05 0)
(0.0606708 1.54545e-05 0)
(0.0606247 1.23232e-05 0)
(0.060589 9.17325e-06 0)
(0.0605644 5.99527e-06 0)
(0.0605516 2.69749e-06 0)
(0.0605518 -8.92214e-07 0)
(0.060565 -4.5927e-06 0)
(0.060592 -8.16966e-06 0)
(0.0606334 -1.17006e-05 0)
(0.0606901 -1.52614e-05 0)
(0.0607629 -1.8922e-05 0)
(0.0608531 -2.27549e-05 0)
(0.0609621 -2.6842e-05 0)
(0.0610918 -3.12867e-05 0)
(0.0612446 -3.62133e-05 0)
(0.0614235 -4.17669e-05 0)
(0.0616322 -4.81311e-05 0)
(0.0618754 -5.55433e-05 0)
(0.062159 -6.4313e-05 0)
(0.0624907 -7.48554e-05 0)
(0.06288 -8.77442e-05 0)
(0.0633396 -0.000103809 0)
(0.0638856 -0.000124283 0)
(0.0645429 -0.000151219 0)
(0.0653379 -0.000187998 0)
(0.0663398 -0.000242073 0)
(0.0675679 -0.000327831 0)
(0.0693589 -0.000490579 0)
(0.0713438 -0.000850065 0)
(0.0759213 -0.00150233 0)
(0.0592111 -0.00154304 0)
(0.060458 -0.00079937 0)
(0.0623605 -0.000576464 0)
(0.0637679 -0.000411367 0)
(0.0648549 -0.000293898 0)
(0.0657178 -0.000202687 0)
(0.0663941 -0.000132472 0)
(0.0669185 -8.00657e-05 0)
(0.0673187 -4.16583e-05 0)
(0.0676162 -1.3976e-05 0)
(0.0678289 5.60012e-06 0)
(0.0679799 1.93542e-05 0)
(0.0680824 2.891e-05 0)
(0.0681458 3.53052e-05 0)
(0.068178 3.93365e-05 0)
(0.0681854 4.15731e-05 0)
(0.0681736 4.24294e-05 0)
(0.0681472 4.22143e-05 0)
(0.0681101 4.11629e-05 0)
(0.0680655 3.94576e-05 0)
(0.0680162 3.72413e-05 0)
(0.0679647 3.46271e-05 0)
(0.0679128 3.17047e-05 0)
(0.0678625 2.85454e-05 0)
(0.0678151 2.52052e-05 0)
(0.067772 2.17277e-05 0)
(0.0677343 1.81454e-05 0)
(0.0677029 1.44803e-05 0)
(0.0676789 1.07428e-05 0)
(0.0676631 6.92321e-06 0)
(0.0676564 2.91952e-06 0)
(0.06766 -1.41208e-06 0)
(0.0676739 -5.88473e-06 0)
(0.0676992 -1.02942e-05 0)
(0.0677368 -1.47194e-05 0)
(0.067788 -1.92429e-05 0)
(0.0678539 -2.39463e-05 0)
(0.067936 -2.89187e-05 0)
(0.068036 -3.42633e-05 0)
(0.0681561 -4.01119e-05 0)
(0.0682987 -4.66243e-05 0)
(0.0684672 -5.39891e-05 0)
(0.0686653 -6.24444e-05 0)
(0.068898 -7.22967e-05 0)
(0.0691711 -8.39452e-05 0)
(0.0694922 -9.79224e-05 0)
(0.0698708 -0.000114961 0)
(0.0703194 -0.000136111 0)
(0.0708534 -0.00016293 0)
(0.0714964 -0.000197942 0)
(0.0722733 -0.000245401 0)
(0.0732468 -0.000313982 0)
(0.0744331 -0.000421412 0)
(0.0761212 -0.00061526 0)
(0.0779427 -0.00102738 0)
(0.0818649 -0.00169963 0)
(0.0678917 -0.00168026 0)
(0.0681175 -0.00089071 0)
(0.0692126 -0.000659305 0)
(0.0700716 -0.000480701 0)
(0.0707825 -0.000350056 0)
(0.0713868 -0.000248094 0)
(0.0718871 -0.000168808 0)
(0.0722948 -0.000108797 0)
(0.0726221 -6.40083e-05 0)
(0.07288 -3.09405e-05 0)
(0.073078 -6.98005e-06 0)
(0.0732256 1.01466e-05 0)
(0.0733367 2.23544e-05 0)
(0.0734166 3.09305e-05 0)
(0.0734707 3.67381e-05 0)
(0.0735035 4.04038e-05 0)
(0.073519 4.23925e-05 0)
(0.0735206 4.30563e-05 0)
(0.0735115 4.2667e-05 0)
(0.0734942 4.14376e-05 0)
(0.0734709 3.95367e-05 0)
(0.0734437 3.70991e-05 0)
(0.0734143 3.42326e-05 0)
(0.0733842 3.10236e-05 0)
(0.0733549 2.75409e-05 0)
(0.0733275 2.38383e-05 0)
(0.0733032 1.99566e-05 0)
(0.073283 1.59238e-05 0)
(0.0732679 1.17537e-05 0)
(0.0732589 7.43653e-06 0)
(0.0732568 2.86338e-06 0)
(0.073263 -2.07917e-06 0)
(0.0732776 -7.20373e-06 0)
(0.0733016 -1.23412e-05 0)
(0.0733363 -1.75732e-05 0)
(0.0733829 -2.29897e-05 0)
(0.0734429 -2.86838e-05 0)
(0.0735178 -3.47607e-05 0)
(0.0736096 -4.13446e-05 0)
(0.0737204 -4.8595e-05 0)
(0.073853 -5.67068e-05 0)
(0.0740106 -6.59117e-05 0)
(0.0741971 -7.65015e-05 0)
(0.0744174 -8.88511e-05 0)
(0.0746775 -0.000103448 0)
(0.0749846 -0.00012094 0)
(0.075348 -0.000142216 0)
(0.0757798 -0.000168533 0)
(0.0762948 -0.000201766 0)
(0.0769153 -0.000244869 0)
(0.0776646 -0.000302917 0)
(0.0786 -0.000385556 0)
(0.0797343 -0.000513551 0)
(0.0813214 -0.000734528 0)
(0.0829949 -0.00119094 0)
(0.0864364 -0.00187627 0)
(0.0760948 -0.00173449 0)
(0.0755555 -0.000926794 0)
(0.0758962 -0.000696423 0)
(0.0761703 -0.000517494 0)
(0.0764407 -0.000383255 0)
(0.0767178 -0.000277326 0)
(0.0769761 -0.000193801 0)
(0.0772052 -0.00012969 0)
(0.0774019 -8.11268e-05 0)
(0.0775661 -4.46592e-05 0)
(0.077699 -1.76674e-05 0)
(0.0778024 1.93453e-06 0)
(0.0778832 1.60936e-05 0)
(0.0779442 2.63386e-05 0)
(0.077988 3.35555e-05 0)
(0.0780172 3.83944e-05 0)
(0.078034 4.13467e-05 0)
(0.0780407 4.27894e-05 0)
(0.0780391 4.30164e-05 0)
(0.078031 4.22598e-05 0)
(0.0780179 4.07045e-05 0)
(0.0780013 3.84991e-05 0)
(0.0779825 3.57632e-05 0)
(0.0779625 3.2593e-05 0)
(0.0779426 2.90655e-05 0)
(0.0779237 2.52413e-05 0)
(0.0779068 2.11663e-05 0)
(0.0778929 1.68721e-05 0)
(0.0778827 1.23739e-05 0)
(0.0778773 7.66088e-06 0)
(0.0778775 2.61976e-06 0)
(0.0778845 -2.83768e-06 0)
(0.0778985 -8.52725e-06 0)
(0.0779207 -1.43123e-05 0)
(0.0779523 -2.02787e-05 0)
(0.0779946 -2.65251e-05 0)
(0.078049 -3.31571e-05 0)
(0.0781173 -4.02964e-05 0)
(0.0782013 -4.80881e-05 0)
(0.0783034 -5.67194e-05 0)
(0.0784262 -6.64198e-05 0)
(0.0785731 -7.74636e-05 0)
(0.0787479 -9.01959e-05 0)
(0.0789554 -0.000105059 0)
(0.0792014 -0.000122627 0)
(0.0794932 -0.00014366 0)
(0.0798396 -0.000169199 0)
(0.0802523 -0.000200703 0)
(0.0807456 -0.000240349 0)
(0.0813404 -0.000291489 0)
(0.0820587 -0.000359979 0)
(0.0829533 -0.000456228 0)
(0.0840337 -0.000603808 0)
(0.0855279 -0.00084888 0)
(0.0870738 -0.00134365 0)
(0.0901496 -0.00203784 0)
(0.0836429 -0.00172886 0)
(0.0826445 -0.000918359 0)
(0.0824029 -0.000689228 0)
(0.0821497 -0.000518302 0)
(0.0819768 -0.000388594 0)
(0.0818986 -0.000285382 0)
(0.0818774 -0.000202794 0)
(0.0818879 -0.000138511 0)
(0.0819142 -8.91786e-05 0)
(0.0819461 -5.16391e-05 0)
(0.0819771 -2.34274e-05 0)
(0.0820033 -2.65851e-06 0)
(0.0820233 1.25189e-05 0)
(0.082037 2.36858e-05 0)
(0.0820444 3.17227e-05 0)
(0.0820459 3.72734e-05 0)
(0.0820422 4.08318e-05 0)
(0.082034 4.27804e-05 0)
(0.082022 4.34196e-05 0)
(0.0820069 4.2988e-05 0)
(0.0819895 4.16766e-05 0)
(0.0819706 3.9639e-05 0)
(0.0819508 3.69997e-05 0)
(0.081931 3.38587e-05 0)
(0.0819116 3.02962e-05 0)
(0.0818936 2.63752e-05 0)
(0.0818776 2.21432e-05 0)
(0.0818642 1.76323e-05 0)
(0.0818543 1.28568e-05 0)
(0.0818485 7.80327e-06 0)
(0.0818478 2.35615e-06 0)
(0.0818528 -3.55634e-06 0)
(0.0818643 -9.75776e-06 0)
(0.0818831 -1.61378e-05 0)
(0.0819105 -2.27882e-05 0)
(0.0819478 -2.98174e-05 0)
(0.0819963 -3.73448e-05 0)
(0.0820577 -4.55092e-05 0)
(0.082134 -5.44774e-05 0)
(0.0822275 -6.44643e-05 0)
(0.0823407 -7.57345e-05 0)
(0.0824769 -8.86044e-05 0)
(0.08264 -0.000103472 0)
(0.0828347 -0.000120846 0)
(0.0830666 -0.000141387 0)
(0.0833427 -0.000165965 0)
(0.0836718 -0.000195769 0)
(0.0840649 -0.000232453 0)
(0.0845357 -0.000278487 0)
(0.0851042 -0.000337597 0)
(0.0857911 -0.00041638 0)
(0.0866455 -0.000525858 0)
(0.0876743 -0.000692204 0)
(0.0890849 -0.000959104 0)
(0.0905221 -0.00148775 0)
(0.0933083 -0.00218815 0)
(0.0904081 -0.00168238 0)
(0.0892097 -0.000880948 0)
(0.0886185 -0.000646852 0)
(0.0879764 -0.000485563 0)
(0.0874211 -0.000364904 0)
(0.0870029 -0.000269569 0)
(0.0866945 -0.000192631 0)
(0.0864679 -0.000132079 0)
(0.0863005 -8.51225e-05 0)
(0.0861748 -4.90327e-05 0)
(0.0860782 -2.16559e-05 0)
(0.0860019 -1.28755e-06 0)
(0.0859377 1.37629e-05 0)
(0.0858817 2.49204e-05 0)
(0.0858317 3.30114e-05 0)
(0.0857861 3.86475e-05 0)
(0.0857437 4.23013e-05 0)
(0.0857039 4.43412e-05 0)
(0.085666 4.50577e-05 0)
(0.0856299 4.46823e-05 0)
(0.0855953 4.34009e-05 0)
(0.0855624 4.13635e-05 0)
(0.0855312 3.86915e-05 0)
(0.0855018 3.54826e-05 0)
(0.0854747 3.18148e-05 0)
(0.0854499 2.77488e-05 0)
(0.085428 2.33298e-05 0)
(0.0854094 1.85872e-05 0)
(0.0853946 1.35317e-05 0)
(0.0853841 8.14516e-06 0)
(0.0853786 2.31248e-06 0)
(0.0853785 -4.03273e-06 0)
(0.0853847 -1.07275e-05 0)
(0.0853979 -1.76804e-05 0)
(0.0854194 -2.49905e-05 0)
(0.0854501 -3.27772e-05 0)
(0.0854916 -4.11747e-05 0)
(0.0855455 -5.03403e-05 0)
(0.0856134 -6.04629e-05 0)
(0.0856978 -7.17862e-05 0)
(0.0858011 -8.461e-05 0)
(0.0859266 -9.92933e-05 0)
(0.086078 -0.000116287 0)
(0.0862598 -0.000136166 0)
(0.0864776 -0.000159676 0)
(0.0867382 -0.000187795 0)
(0.08705 -0.000221858 0)
(0.0874237 -0.000263711 0)
(0.0878724 -0.000316109 0)
(0.0884152 -0.00038313 0)
(0.0890717 -0.000472079 0)
(0.0898879 -0.000594479 0)
(0.0908686 -0.000778909 0)
(0.0922041 -0.00106594 0)
(0.0935482 -0.00162484 0)
(0.0960966 -0.00232972 0)
(0.0963203 -0.00160777 0)
(0.0950903 -0.000829386 0)
(0.0943757 -0.000583242 0)
(0.0935363 -0.000427377 0)
(0.0927208 -0.000315364 0)
(0.0920265 -0.000230068 0)
(0.091458 -0.000162019 0)
(0.0910004 -0.000108472 0)
(0.0906338 -6.68214e-05 0)
(0.0903391 -3.46793e-05 0)
(0.0900999 -1.02303e-05 0)
(0.0899039 8.08401e-06 0)
(0.0897372 2.17203e-05 0)
(0.0895943 3.17906e-05 0)
(0.0894704 3.90294e-05 0)
(0.089362 4.39925e-05 0)
(0.0892662 4.71078e-05 0)
(0.0891808 4.87092e-05 0)
(0.0891041 4.90603e-05 0)
(0.0890348 4.83717e-05 0)
(0.0889719 4.68126e-05 0)
(0.0889146 4.452e-05 0)
(0.0888623 4.16043e-05 0)
(0.0888148 3.81543e-05 0)
(0.0887718 3.42401e-05 0)
(0.0887331 2.99156e-05 0)
(0.0886989 2.52195e-05 0)
(0.0886691 2.01748e-05 0)
(0.0886441 1.47858e-05 0)
(0.0886242 9.02761e-06 0)
(0.0886098 2.78891e-06 0)
(0.0886011 -4.00374e-06 0)
(0.0885988 -1.12077e-05 0)
(0.0886037 -1.8742e-05 0)
(0.0886168 -2.6715e-05 0)
(0.0886392 -3.52584e-05 0)
(0.088672 -4.45221e-05 0)
(0.0887168 -5.46828e-05 0)
(0.0887753 -6.59529e-05 0)
(0.0888498 -7.86056e-05 0)
(0.0889425 -9.29766e-05 0)
(0.0890568 -0.000109468 0)
(0.0891961 -0.000128584 0)
(0.0893649 -0.000150966 0)
(0.0895685 -0.000177443 0)
(0.0898136 -0.000209104 0)
(0.0901083 -0.000247425 0)
(0.0904629 -0.000294442 0)
(0.0908901 -0.000353187 0)
(0.0914081 -0.000428078 0)
(0.0920356 -0.000527096 0)
(0.0928159 -0.000662178 0)
(0.093752 -0.00086411 0)
(0.0950195 -0.00117 0)
(0.0962829 -0.00175601 0)
(0.09863 -0.00246424 0)
(0.101353 -0.00151351 0)
(0.100178 -0.000774626 0)
(0.099502 -0.000513395 0)
(0.0986615 -0.000356301 0)
(0.0977539 -0.000247962 0)
(0.0968988 -0.000170772 0)
(0.0961392 -0.000112216 0)
(0.0954879 -6.75025e-05 0)
(0.0949393 -3.33459e-05 0)
(0.0944808 -7.26302e-06 0)
(0.0940962 1.24637e-05 0)
(0.093769 2.71815e-05 0)
(0.0934887 3.80294e-05 0)
(0.093247 4.58313e-05 0)
(0.0930373 5.12145e-05 0)
(0.0928541 5.46509e-05 0)
(0.0926932 5.6501e-05 0)
(0.0925511 5.70441e-05 0)
(0.0924247 5.65009e-05 0)
(0.092312 5.50473e-05 0)
(0.0922109 5.28249e-05 0)
(0.0921201 4.99477e-05 0)
(0.0920384 4.65076e-05 0)
(0.0919647 4.25775e-05 0)
(0.0918985 3.82142e-05 0)
(0.0918391 3.34598e-05 0)
(0.0917862 2.83423e-05 0)
(0.0917397 2.28749e-05 0)
(0.0916994 1.70523e-05 0)
(0.0916653 1.08406e-05 0)
(0.0916377 4.13572e-06 0)
(0.0916165 -3.15447e-06 0)
(0.0916023 -1.09157e-05 0)
(0.0915958 -1.90703e-05 0)
(0.0915978 -2.77374e-05 0)
(0.0916093 -3.7062e-05 0)
(0.0916313 -4.7211e-05 0)
(0.0916653 -5.83817e-05 0)
(0.0917129 -7.08106e-05 0)
(0.0917761 -8.48017e-05 0)
(0.0918572 -0.000100728 0)
(0.0919593 -0.000119034 0)
(0.0920859 -0.00014028 0)
(0.0922411 -0.000165172 0)
(0.0924303 -0.000194626 0)
(0.0926597 -0.000229837 0)
(0.0929373 -0.000272425 0)
(0.0932731 -0.000324612 0)
(0.0936793 -0.000389701 0)
(0.0941734 -0.000472442 0)
(0.0947731 -0.000581459 0)
(0.0955196 -0.000729042 0)
(0.0964141 -0.000947966 0)
(0.0976194 -0.00127172 0)
(0.0988113 -0.00188206 0)
(0.100984 -0.00259286 0)
(0.105516 -0.00140659 0)
(0.10443 -0.000722939 0)
(0.103869 -0.000449296 0)
(0.103169 -0.000286316 0)
(0.102343 -0.000174891 0)
(0.101482 -0.000100126 0)
(0.100648 -4.81708e-05 0)
(0.0998818 -1.15917e-05 0)
(0.0991996 1.46067e-05 0)
(0.0985998 3.36073e-05 0)
(0.0980768 4.7367e-05 0)
(0.0976221 5.71646e-05 0)
(0.0972264 6.39058e-05 0)
(0.0968811 6.82739e-05 0)
(0.0965789 7.07809e-05 0)
(0.0963134 7.17991e-05 0)
(0.0960792 7.16062e-05 0)
(0.0958718 7.04137e-05 0)
(0.0956874 6.83864e-05 0)
(0.0955228 6.56544e-05 0)
(0.0953756 6.23216e-05 0)
(0.0952435 5.84708e-05 0)
(0.0951248 5.41676e-05 0)
(0.095018 4.94631e-05 0)
(0.0949218 4.43949e-05 0)
(0.0948355 3.89888e-05 0)
(0.0947582 3.32579e-05 0)
(0.0946893 2.72019e-05 0)
(0.0946286 2.0803e-05 0)
(0.0945757 1.40161e-05 0)
(0.0945306 6.74463e-06 0)
(0.094493 -1.12518e-06 0)
(0.0944632 -9.51905e-06 0)
(0.094442 -1.83636e-05 0)
(0.0944299 -2.77838e-05 0)
(0.0944278 -3.794e-05 0)
(0.0944366 -4.90175e-05 0)
(0.0944576 -6.12348e-05 0)
(0.0944923 -7.48542e-05 0)
(0.0945426 -9.02112e-05 0)
(0.0946106 -0.000107717 0)
(0.0946994 -0.000127861 0)
(0.0948121 -0.000151258 0)
(0.094953 -0.000178682 0)
(0.095127 -0.000211133 0)
(0.0953404 -0.000249916 0)
(0.0956007 -0.000296793 0)
(0.0959177 -0.00035417 0)
(0.0963031 -0.000425619 0)
(0.0967738 -0.00051621 0)
(0.0973468 -0.000635179 0)
(0.0980609 -0.000795127 0)
(0.0989162 -0.00103059 0)
(0.100064 -0.00137143 0)
(0.101191 -0.00200356 0)
(0.103209 -0.00271639 0)
(0.108854 -0.00129314 0)
(0.107866 -0.000676648 0)
(0.10743 -0.000397278 0)
(0.106924 -0.000228262 0)
(0.106294 -0.000109455 0)
(0.105581 -3.06751e-05 0)
(0.104825 2.06882e-05 0)
(0.10406 5.33685e-05 0)
(0.103323 7.38331e-05 0)
(0.102637 8.65044e-05 0)
(0.102013 9.40608e-05 0)
(0.101453 9.81646e-05 0)
(0.100954 9.98669e-05 0)
(0.10051 9.98565e-05 0)
(0.100117 9.85856e-05 0)
(0.0997672 9.63512e-05 0)
(0.099456 9.33562e-05 0)
(0.0991786 8.97444e-05 0)
(0.0989306 8.5621e-05 0)
(0.0987083 8.10651e-05 0)
(0.0985088 7.6137e-05 0)
(0.0983292 7.08821e-05 0)
(0.0981674 6.53345e-05 0)
(0.0980214 5.95177e-05 0)
(0.0978896 5.3446e-05 0)
(0.0977706 4.71241e-05 0)
(0.0976635 4.0547e-05 0)
(0.0975672 3.36973e-05 0)
(0.0974812 2.65418e-05 0)
(0.097405 1.90217e-05 0)
(0.0973383 1.10413e-05 0)
(0.0972806 2.482e-06 0)
(0.0972314 -6.63943e-06 0)
(0.097192 -1.62741e-05 0)
(0.0971626 -2.65345e-05 0)
(0.097144 -3.75984e-05 0)
(0.0971369 -4.96714e-05 0)
(0.0971425 -6.29948e-05 0)
(0.0971621 -7.78574e-05 0)
(0.0971974 -9.46277e-05 0)
(0.0972506 -0.000113756 0)
(0.0973244 -0.000135779 0)
(0.097422 -0.000161364 0)
(0.0975474 -0.000191357 0)
(0.0977053 -0.000226842 0)
(0.0979019 -0.000269233 0)
(0.0981444 -0.000320436 0)
(0.0984423 -0.00038304 0)
(0.0988069 -0.00046088 0)
(0.0992544 -0.000559342 0)
(0.0998012 -0.00068824 0)
(0.100484 -0.000860454 0)
(0.101302 -0.00111203 0)
(0.102394 -0.00146933 0)
(0.103463 -0.00212089 0)
(0.105341 -0.00283542 0)
(0.111442 -0.00117695 0)
(0.110549 -0.000635245 0)
(0.110215 -0.00035816 0)
(0.109885 -0.000186536 0)
(0.109477 -6.08643e-05 0)
(0.108997 2.53874e-05 0)
(0.108433 8.2022e-05 0)
(0.107802 0.000117077 0)
(0.107136 0.00013685 0)
(0.106464 0.000146434 0)
(0.105814 0.000149501 0)
(0.1052 0.000148555 0)
(0.104633 0.000145208 0)
(0.104114 0.000140449 0)
(0.103643 0.000134857 0)
(0.103217 0.000128758 0)
(0.102833 0.000122339 0)
(0.102486 0.000115705 0)
(0.102174 0.000108917 0)
(0.101892 0.00010201 0)
(0.101636 9.50018e-05 0)
(0.101405 8.79011e-05 0)
(0.101196 8.07081e-05 0)
(0.101007 7.34167e-05 0)
(0.100834 6.60148e-05 0)
(0.100678 5.84834e-05 0)
(0.100537 5.07962e-05 0)
(0.100409 4.29164e-05 0)
(0.100293 3.47927e-05 0)
(0.100189 2.63506e-05 0)
(0.100097 1.74865e-05 0)
(0.100015 8.09367e-06 0)
(0.0999435 -1.87064e-06 0)
(0.0998824 -1.24138e-05 0)
(0.0998325 -2.36288e-05 0)
(0.0997943 -3.57012e-05 0)
(0.0997685 -4.88603e-05 0)
(0.099756 -6.33718e-05 0)
(0.0997581 -7.95519e-05 0)
(0.0997763 -9.78034e-05 0)
(0.0998127 -0.000118617 0)
(0.0998698 -0.000142577 0)
(0.0999507 -0.000170407 0)
(0.100059 -0.000203021 0)
(0.1002 -0.000241594 0)
(0.100378 -0.000287646 0)
(0.100602 -0.000343228 0)
(0.10088 -0.000411111 0)
(0.101224 -0.000495392 0)
(0.101648 -0.000601764 0)
(0.102169 -0.000740582 0)
(0.102821 -0.000924991 0)
(0.103602 -0.00119228 0)
(0.104642 -0.00156554 0)
(0.105654 -0.00223429 0)
(0.107406 -0.00295031 0)
(0.113364 -0.00106004 0)
(0.112564 -0.000597201 0)
(0.112308 -0.000329828 0)
(0.11211 -0.000159906 0)
(0.111883 -3.08735e-05 0)
(0.111618 6.19362e-05 0)
(0.111285 0.000126041 0)
(0.110876 0.000167665 0)
(0.110397 0.000191971 0)
(0.109864 0.000203591 0)
(0.109299 0.000206363 0)
(0.108724 0.000203327 0)
(0.108158 0.000196737 0)
(0.107616 0.00018815 0)
(0.107104 0.000178562 0)
(0.106627 0.000168561 0)
(0.106187 0.000158472 0)
(0.105783 0.000148463 0)
(0.105413 0.000138607 0)
(0.105075 0.00012893 0)
(0.104765 0.000119427 0)
(0.104483 0.00011008 0)
(0.104226 0.000100864 0)
(0.10399 9.17436e-05 0)
(0.103775 8.2683e-05 0)
(0.103579 7.36393e-05 0)
(0.1034 6.4564e-05 0)
(0.103237 5.53999e-05 0)
(0.103088 4.60764e-05 0)
(0.102953 3.65018e-05 0)
(0.102832 2.65602e-05 0)
(0.102723 1.61499e-05 0)
(0.102626 5.20384e-06 0)
(0.10254 -6.36669e-06 0)
(0.102466 -1.86718e-05 0)
(0.102405 -3.18782e-05 0)
(0.102358 -4.62364e-05 0)
(0.102325 -6.20394e-05 0)
(0.102307 -7.9632e-05 0)
(0.102306 -9.94528e-05 0)
(0.102323 -0.000122034 0)
(0.102362 -0.000148008 0)
(0.102424 -0.000178156 0)
(0.102514 -0.000213465 0)
(0.102636 -0.000255194 0)
(0.102796 -0.000304978 0)
(0.103 -0.000365007 0)
(0.103257 -0.00043824 0)
(0.103579 -0.000529024 0)
(0.103979 -0.00064336 0)
(0.104473 -0.000792105 0)
(0.105094 -0.000988656 0)
(0.10584 -0.00127126 0)
(0.106828 -0.00166005 0)
(0.107787 -0.00234388 0)
(0.10942 -0.00306132 0)
(0.114716 -0.00094753 0)
(0.114015 -0.000562424 0)
(0.113821 -0.000310069 0)
(0.113716 -0.000144981 0)
(0.113616 -1.59983e-05 0)
(0.113509 8.03805e-05 0)
(0.113367 0.00015005 0)
(0.113172 0.000198223 0)
(0.112916 0.000229143 0)
(0.112596 0.000246518 0)
(0.112216 0.000253516 0)
(0.111788 0.000252871 0)
(0.111327 0.000246889 0)
(0.110849 0.000237422 0)
(0.110368 0.000225874 0)
(0.109897 0.000213237 0)
(0.109443 0.000200171 0)
(0.109011 0.000187083 0)
(0.108606 0.000174204 0)
(0.108228 0.000161646 0)
(0.107876 0.000149447 0)
(0.10755 0.000137605 0)
(0.107248 0.00012609 0)
(0.10697 0.000114859 0)
(0.106714 0.00010386 0)
(0.106478 9.30315e-05 0)
(0.10626 8.23079e-05 0)
(0.106061 7.16132e-05 0)
(0.105878 6.08588e-05 0)
(0.10571 4.99362e-05 0)
(0.105557 3.8716e-05 0)
(0.105418 2.70881e-05 0)
(0.105293 1.49867e-05 0)
(0.105181 2.268e-06 0)
(0.105081 -1.12544e-05 0)
(0.104995 -2.574e-05 0)
(0.104924 -4.14311e-05 0)
(0.104868 -5.86477e-05 0)
(0.104827 -7.77665e-05 0)
(0.104805 -9.92628e-05 0)
(0.104801 -0.000123712 0)
(0.104819 -0.000151795 0)
(0.104861 -0.000184353 0)
(0.104931 -0.000222443 0)
(0.105032 -0.000267415 0)
(0.105171 -0.000321015 0)
(0.105355 -0.000385577 0)
(0.10559 -0.000464242 0)
(0.105889 -0.000561608 0)
(0.106265 -0.000683977 0)
(0.106732 -0.000842662 0)
(0.107322 -0.00105131 0)
(0.108031 -0.00134885 0)
(0.108968 -0.00175279 0)
(0.109876 -0.00244964 0)
(0.111395 -0.00316855 0)
(0.11564 -0.000847585 0)
(0.115044 -0.000532101 0)
(0.114902 -0.000297213 0)
(0.114861 -0.000138458 0)
(0.114843 -1.16605e-05 0)
(0.114837 8.5594e-05 0)
(0.114822 0.000157989 0)
(0.114781 0.000210314 0)
(0.114703 0.000246437 0)
(0.114578 0.000269579 0)
(0.114402 0.000282357 0)
(0.114174 0.00028694 0)
(0.113894 0.000285173 0)
(0.113571 0.000278633 0)
(0.113212 0.000268659 0)
(0.11283 0.000256357 0)
(0.112436 0.000242609 0)
(0.112038 0.00022809 0)
(0.111646 0.000213285 0)
(0.111265 0.000198519 0)
(0.1109 0.000183994 0)
(0.110552 0.000169816 0)
(0.110224 0.000156024 0)
(0.109915 0.000142613 0)
(0.109627 0.000129549 0)
(0.109357 0.000116778 0)
(0.109106 0.000104228 0)
(0.108873 9.18164e-05 0)
(0.108657 7.94422e-05 0)
(0.108457 6.69849e-05 0)
(0.108273 5.4304e-05 0)
(0.108105 4.12774e-05 0)
(0.10795 2.78324e-05 0)
(0.10781 1.38212e-05 0)
(0.107684 -1.02007e-06 0)
(0.107571 -1.69163e-05 0)
(0.107474 -3.40868e-05 0)
(0.107393 -5.28521e-05 0)
(0.107329 -7.3623e-05 0)
(0.107283 -9.69142e-05 0)
(0.107257 -0.000123345 0)
(0.107253 -0.000153646 0)
(0.107273 -0.000188719 0)
(0.107321 -0.000229693 0)
(0.107401 -0.000278008 0)
(0.107518 -0.000335523 0)
(0.107679 -0.000404715 0)
(0.107892 -0.000488909 0)
(0.108167 -0.000592943 0)
(0.108517 -0.000723419 0)
(0.108956 -0.000892061 0)
(0.109514 -0.00111277 0)
(0.110186 -0.00142483 0)
(0.111072 -0.00184357 0)
(0.111928 -0.00255147 0)
(0.11334 -0.00327198 0)
(0.116308 -0.000763962 0)
(0.115807 -0.000506418 0)
(0.115707 -0.000289566 0)
(0.115709 -0.000137683 0)
(0.115742 -1.4118e-05 0)
(0.115797 8.23756e-05 0)
(0.115856 0.000155516 0)
(0.115907 0.000209775 0)
(0.115941 0.000248832 0)
(0.115949 0.000275731 0)
(0.115925 0.000292911 0)
(0.115863 0.000302306 0)
(0.115761 0.000305456 0)
(0.115615 0.000303598 0)
(0.115428 0.000297745 0)
(0.115201 0.000288755 0)
(0.114941 0.000277371 0)
(0.114652 0.000264246 0)
(0.114344 0.00024994 0)
(0.114024 0.00023492 0)
(0.113699 0.000219551 0)
(0.113374 0.000204106 0)
(0.113055 0.00018877 0)
(0.112745 0.000173656 0)
(0.112447 0.000158814 0)
(0.112163 0.000144248 0)
(0.111892 0.000129927 0)
(0.111637 0.000115786 0)
(0.111397 0.000101736 0)
(0.111171 8.76579e-05 0)
(0.110961 7.34105e-05 0)
(0.110766 5.88655e-05 0)
(0.110585 4.3938e-05 0)
(0.110419 2.84861e-05 0)
(0.110267 1.22348e-05 0)
(0.110129 -5.14835e-06 0)
(0.110007 -2.39218e-05 0)
(0.109901 -4.43694e-05 0)
(0.109812 -6.6918e-05 0)
(0.109743 -9.21255e-05 0)
(0.109693 -0.000120656 0)
(0.109665 -0.00015329 0)
(0.109663 -0.000190989 0)
(0.109688 -0.000234956 0)
(0.109746 -0.000286723 0)
(0.10984 -0.000348259 0)
(0.109978 -0.000422186 0)
(0.110167 -0.000512009 0)
(0.110417 -0.000622805 0)
(0.110741 -0.000761462 0)
(0.111151 -0.000940071 0)
(0.111675 -0.00117279 0)
(0.11231 -0.00149895 0)
(0.113143 -0.00193213 0)
(0.113947 -0.00264917 0)
(0.115255 -0.0033715 0)
(0.116851 -0.000694883 0)
(0.116427 -0.000484511 0)
(0.116355 -0.000285564 0)
(0.116385 -0.000140781 0)
(0.116449 -2.09337e-05 0)
(0.11654 7.3942e-05 0)
(0.116643 0.000146757 0)
(0.116746 0.000201646 0)
(0.116842 0.000242091 0)
(0.116926 0.000271017 0)
(0.116993 0.00029079 0)
(0.117038 0.000303286 0)
(0.117057 0.000309971 0)
(0.117048 0.000311976 0)
(0.117006 0.000310164 0)
(0.116931 0.0003052 0)
(0.116821 0.000297618 0)
(0.116678 0.000287874 0)
(0.116504 0.000276371 0)
(0.116302 0.000263482 0)
(0.116078 0.000249546 0)
(0.115835 0.000234869 0)
(0.115579 0.000219711 0)
(0.115316 0.000204283 0)
(0.115051 0.000188742 0)
(0.114786 0.000173191 0)
(0.114526 0.000157684 0)
(0.114273 0.000142224 0)
(0.114028 0.000126772 0)
(0.113794 0.000111246 0)
(0.113571 9.55288e-05 0)
(0.11336 7.95053e-05 0)
(0.113162 6.30898e-05 0)
(0.112977 4.61424e-05 0)
(0.112805 2.84129e-05 0)
(0.112647 9.53866e-06 0)
(0.112503 -1.08639e-05 0)
(0.112375 -3.30848e-05 0)
(0.112264 -5.75118e-05 0)
(0.112172 -8.4736e-05 0)
(0.1121 -0.000115468 0)
(0.11205 -0.000150538 0)
(0.112025 -0.000190966 0)
(0.112028 -0.00023803 0)
(0.112063 -0.000293351 0)
(0.112135 -0.000359012 0)
(0.112249 -0.000437775 0)
(0.112414 -0.000533326 0)
(0.112638 -0.000650967 0)
(0.112935 -0.00079787 0)
(0.113316 -0.000986439 0)
(0.113806 -0.00123108 0)
(0.114401 -0.00157089 0)
(0.115181 -0.00201812 0)
(0.115932 -0.00274242 0)
(0.117137 -0.00346689 0)
(0.117346 -0.000637142 0)
(0.11698 -0.000465462 0)
(0.116926 -0.000283982 0)
(0.116973 -0.000146476 0)
(0.117056 -3.06261e-05 0)
(0.117168 6.21655e-05 0)