/*--------------------------------*- C++ -*----------------------------------*\
  =========                 |
  \\      /  F ield         | OpenFOAM: The Open Source CFD Toolbox
   \\    /   O peration     | Website:  https://openfoam.org
    \\  /    A nd           | Version:  6
     \\/     M anipulation  |
\*---------------------------------------------------------------------------*/
FoamFile
{
    version     2.0;
    format      ascii;
    class       volScalarField;
    location    "0";
    object      p;
}
// * * * * * * * * * * * * * * * * * * * * * * * * * * * * * * * * * * * * * //

dimensions      [0 2 -2 0 0 0 0];

internalField   nonuniform List<scalar> 
13046
(
0.567129
0.544794
0.611
0.573538
0.603824
0.562007
0.553571
0.565582
0.612371
0.285822
0.262588
0.576935
0.551808
0.51427
0.605038
0.355863
0.578872
0.290403
0.604279
0.592786
0.564531
0.345179
0.580324
0.288123
0.571492
0.572708
0.603387
0.537091
0.513285
0.607747
0.576866
0.522353
0.604372
0.585537
0.60564
0.569472
0.584416
0.607704
0.580544
0.580357
0.597638
0.504754
0.583771
0.603856
0.59038
0.580674
0.595325
0.592785
0.554303
0.544199
0.611397
0.565992
0.584594
0.457028
0.573218
0.43803
0.589817
0.371073
0.489479
0.586152
0.479149
0.502607
0.599934
0.586086
0.369379
0.392525
0.506408
0.374999
0.582269
0.520719
0.385757
0.58321
0.350833
0.475638
0.585237
0.604008
0.604321
0.548172
0.586968
0.442263
0.347812
0.564854
0.569092
0.602842
0.583238
0.34746
0.368107
0.363661
0.585957
0.399244
0.578111
0.313969
0.403283
0.485532
0.466378
0.456978
0.446691
0.596153
0.597932
0.58695
0.365293
0.415393
0.578651
0.599479
0.58722
0.60352
0.469647
0.575825
0.582938
0.587715
0.478068
0.183577
0.570971
0.166369
0.556762
0.529102
0.602074
0.469683
0.484849
0.418256
0.593128
0.443678
0.594323
0.265412
0.235701
0.575504
0.522584
0.469964
0.606168
0.574918
0.5983
0.504617
0.577846
0.332032
0.43056
0.433196
0.425494
0.592244
0.568271
0.513497
0.601746
0.5115
0.561487
0.602257
0.58051
0.575428
0.477703
0.600196
0.486571
0.583873
0.473373
0.482087
0.59708
0.61375
0.523795
0.578915
0.544436
0.432827
0.532004
0.427468
0.591768
0.592578
0.510886
0.545533
0.595587
0.279152
0.576699
0.275805
0.218227
0.572459
0.189766
0.425101
0.406835
0.591894
0.573559
0.461334
0.596452
0.5149
0.595094
0.555516
0.57989
0.311081
0.289837
0.576215
0.477697
0.590453
0.611473
0.510491
0.574515
0.523324
0.562613
0.600425
0.5086
0.609048
0.528306
0.489521
0.602928
0.353177
0.583386
0.364066
0.584191
0.360775
0.43314
0.3193
0.392376
0.57755
0.558961
0.422611
0.574886
0.535811
0.449346
0.582622
0.344188
0.363707
0.309717
0.578359
0.575521
0.607195
0.582031
0.546322
0.516994
0.606053
0.583628
0.349306
0.441826
0.524061
0.519678
0.611461
0.573627
0.230993
0.224938
0.577501
0.420403
0.550788
0.344003
0.413655
0.582196
0.464861
0.54201
0.599925
0.515807
0.472889
0.605737
0.48028
0.365213
0.577625
0.409
0.518624
0.586062
0.572697
0.230892
0.203289
0.587529
0.593655
0.466912
0.210809
0.570408
0.124947
0.601024
0.567747
0.585022
0.475022
0.480079
0.532548
0.545278
0.603732
0.595983
0.580267
0.423907
0.327639
0.531721
0.481154
0.601135
0.405389
0.495905
0.588525
0.447758
0.422804
0.592861
0.591405
0.582184
0.60473
0.447258
0.52813
0.594653
0.53398
0.462675
0.60069
0.527882
0.522934
0.589598
0.587299
0.452219
0.442713
0.511929
0.593391
0.424186
0.590855
0.414274
0.598221
0.587123
0.48916
0.591122
0.420359
0.537628
0.493036
0.421535
0.590905
0.584324
0.570758
0.453662
0.475491
0.465996
0.409798
0.58956
0.405243
0.592258
0.580311
0.324396
0.3094
0.496593
0.4555
0.59742
0.0861644
0.5686
0.128634
0.549464
0.597576
0.572614
0.494889
0.512939
0.600899
0.586703
0.377283
0.386848
0.56725
0.420507
0.587127
0.462631
0.36126
0.580153
0.543594
0.607373
0.484822
0.498913
0.601672
0.53709
0.607702
0.381481
0.58086
0.31215
0.567101
0.405884
0.575522
0.471052
0.488272
0.59831
0.504063
0.554191
0.605046
0.474909
0.566155
0.594786
0.568297
0.549051
0.608686
0.58184
0.424391
0.544633
0.338068
0.374925
0.581894
0.467925
0.361168
0.583803
0.531564
0.580065
0.408177
0.457388
0.471492
0.388643
0.3699
0.582976
0.586266
0.569434
0.103595
0.15444
0.230486
0.571224
0.141978
0.463081
0.523263
0.591298
0.581445
0.342921
0.340795
0.510965
0.503505
0.416402
0.406689
0.591979
0.58934
0.571981
0.334462
0.257948
0.194223
0.569298
0.0945193
0.56542
0.599866
0.599943
0.182352
0.134263
0.570814
0.564564
0.463544
0.593072
0.296931
0.324592
0.579657
0.109425
0.56849
0.0632287
0.585694
0.594759
0.517956
0.552765
0.592217
0.603607
0.274321
0.575925
0.226162
0.543574
0.585759
0.603503
0.573288
0.600009
0.600595
0.584822
0.400561
0.552543
0.538742
0.601562
0.600483
0.553846
0.575075
0.594809
0.54327
0.413394
0.578985
0.580024
0.58089
0.289537
0.289022
0.323624
0.315739
0.311324
0.363815
0.580017
0.586412
0.527273
0.385761
0.577165
0.587137
0.482476
0.398479
0.513484
0.578455
0.186249
0.567521
0.108124
0.578339
0.306598
0.386635
0.232368
0.573796
0.215746
0.569061
0.0845522
0.0553511
0.0437443
0.569421
0.0960559
0.49034
0.433496
0.590031
0.28031
0.56889
0.193797
0.413996
0.425919
0.591498
0.329052
0.573621
0.232202
0.546497
0.604887
0.552988
0.353588
0.574614
0.277133
0.406285
0.579029
0.52171
0.488304
0.4058
0.591439
0.570495
-0.0275018
-0.0137422
0.11761
0.568398
0.104964
0.557694
0.608114
0.553803
0.324522
0.255422
0.574454
0.572024
0.230929
0.321365
0.34532
0.581887
0.339553
0.582213
0.341036
0.409881
0.555487
0.401347
0.58114
0.387685
0.488504
0.591434
0.580069
0.391725
0.290188
0.551907
0.543156
0.480053
0.466847
0.599445
0.601735
0.559551
0.480952
0.598121
0.523428
0.40315
0.593698
0.477553
0.381786
0.585299
0.35377
0.307748
0.581099
0.584524
0.382469
0.453218
0.0472236
0.569428
0.121614
0.587326
0.580575
0.605013
0.519659
0.608382
0.529524
0.546327
0.542491
0.590507
0.423004
0.59238
0.445641
0.125142
0.567126
0.0675799
0.334242
0.274302
0.576336
0.571996
0.57645
0.453217
0.49528
0.379008
0.581061
0.582988
0.348737
0.424953
0.175161
0.161783
0.570767
0.203574
0.173543
0.571
0.505486
0.422011
0.595933
0.601649
0.580959
0.501695
0.329096
0.580098
0.311937
0.482964
0.415457
0.593768
0.590214
0.383247
0.413036
0.550571
0.59209
0.445689
0.471635
0.549658
0.594674
0.584521
0.593601
0.492923
0.579126
0.3056
0.30675
0.449409
0.409718
0.591867
0.589918
0.599261
0.525139
0.368461
0.57668
0.266889
0.556988
0.510601
0.604924
0.535463
0.562576
0.607543
0.498736
0.420064
0.589953
0.267883
0.572365
0.175799
0.286806
0.572457
0.185323
0.589083
0.371454
0.413591
0.450642
0.556702
0.588582
0.57003
0.142358
0.238531
0.58809
0.404669
0.394984
0.568008
0.0623887
0.0269236
0.0730043
0.0143142
0.568528
0.582514
0.307303
0.395566
0.575896
0.265438
0.255385
0.354195
0.370873
0.579745
0.305673
0.582643
0.332865
0.384151
0.417532
0.5879
0.587268
0.508224
0.373773
0.587371
0.604286
0.543134
0.396187
0.441067
0.589542
0.589665
0.403362
0.453328
0.409664
0.58028
0.29786
0.540184
0.40792
0.591123
0.553504
0.453693
0.589072
0.441384
0.480185
0.598028
0.431218
0.475211
0.595519
0.593279
0.59213
0.540647
0.541543
0.452351
0.604201
0.574484
0.365513
0.272981
0.159356
0.570019
0.214464
0.135131
0.569223
0.21559
0.572683
0.599058
0.491115
0.155722
0.569425
0.127766
0.433961
0.589997
0.383317
0.568145
0.162747
0.100137
0.575485
0.60442
0.571728
0.516601
0.505362
0.60317
0.559872
0.45711
0.5899
0.57059
0.295673
0.219417
0.48072
0.418016
0.591184
0.576114
0.351178
0.260859
0.496868
0.496063
0.605188
0.591476
0.60725
0.549626
0.292582
0.23631
0.573771
0.588921
0.386299
0.394637
0.258747
0.237229
0.573143
0.572147
0.198562
0.176981
0.492329
0.538388
0.603488
0.501333
0.447387
0.590524
0.54389
0.564962
0.61281
0.246184
0.18544
0.253625
0.571094
0.181357
0.569444
0.466397
0.458168
0.599971
0.234369
0.209795
0.276574
0.255439
0.574415
0.572328
0.448384
0.517474
0.601172
0.516434
0.526685
0.604176
0.309873
0.574794
0.221094
0.506676
0.521531
0.602192
0.539439
0.547637
0.605844
0.267874
0.572579
0.197965
0.502797
0.468231
0.598321
0.536017
0.389563
0.579744
0.55592
0.426185
0.588287
0.447249
0.575938
0.33414
0.569457
0.000964072
0.0141625
0.495123
0.511931
0.60258
0.325828
0.576741
0.261051
0.574715
0.402274
0.565645
0.129852
0.568067
0.0599378
0.601986
0.593946
0.577839
0.51534
0.579839
0.502343
0.546537
0.567564
0.607392
0.588632
0.599244
0.588617
0.518545
0.597536
0.512865
0.507503
0.536059
0.609763
0.516268
0.540679
0.607916
0.568168
0.233207
0.147165
0.566972
0.493024
0.595595
0.258468
0.284339
0.576438
0.437193
0.421404
0.462097
0.442293
0.593922
0.590521
0.561634
0.514445
0.600397
0.522817
0.432052
0.591399
0.466596
0.482939
0.601483
0.591206
0.568633
0.599288
0.413776
0.450473
0.591343
0.583594
0.598336
0.545077
0.463563
0.510008
0.600557
0.52076
0.449764
0.592245
0.590088
0.592347
0.556636
0.606614
0.554987
0.602797
0.59387
0.586146
0.60177
0.542325
0.603762
0.521681
0.552943
0.546843
0.493515
0.493407
0.603599
0.600116
0.584131
0.35013
0.416367
0.578763
0.406442
0.544018
0.585121
0.585677
0.335055
0.346519
0.395303
0.391158
0.579056
0.576303
0.43405
0.591333
0.600578
0.581361
0.41025
0.434399
0.590746
0.581877
0.60133
0.508671
0.51316
0.44513
0.593045
0.449264
0.451472
0.367164
0.58871
0.380971
0.589524
0.447989
0.449884
0.594534
0.154361
0.0888271
0.568949
0.569748
0.414516
0.568475
0.558494
0.562134
0.577487
0.41154
0.58643
0.422922
0.394885
0.467152
0.587363
0.529714
0.441186
0.593673
0.578226
0.575003
0.433708
0.559796
0.566105
0.581889
0.596625
0.454488
0.450308
0.557095
0.588814
0.432878
0.450696
0.462817
0.597294
0.58953
0.598221
0.547782
0.294392
0.575468
0.241228
0.574517
0.578277
0.421755
0.518921
0.503678
0.449818
0.441549
0.593399
0.598037
0.577045
0.262381
0.314304
0.31135
0.575949
0.233833
0.291274
0.574456
0.223535
0.434326
0.588371
0.372273
0.53701
0.457264
0.595953
0.347539
0.403832
0.530436
0.352293
0.487409
0.206624
0.445331
0.384258
0.319405
0.477394
0.474458
0.300841
0.347907
0.477592
0.38231
0.350479
0.358988
0.379763
0.399076
0.448359
0.40297
0.375031
0.487517
0.57223
0.538613
0.409477
0.498135
0.304073
0.420102
0.337897
0.3127
0.439788
0.403972
0.391263
0.327455
0.41438
0.522656
0.485553
0.368772
0.432953
0.365255
0.569535
0.341081
0.47583
0.510872
0.364629
0.371184
0.351444
0.303844
0.341208
0.541869
0.402218
0.353113
0.367545
0.312716
0.53635
0.451066
0.407521
0.351686
0.470043
0.33883
0.345469
0.539323
0.396263
0.407024
0.453006
0.41495
0.568872
0.48671
0.487524
0.28926
0.313756
0.371581
0.461333
0.304649
0.389057
0.408434
0.322118
0.463612
0.506799
0.380221
0.397908
0.307421
0.342633
0.358466
0.471131
0.358865
0.354178
0.380685
0.545305
0.35091
0.469084
0.537991
0.392672
0.348924
0.143365
0.333804
0.354356
0.348634
0.285513
0.439244
0.491091
0.519733
0.572545
0.344791
0.343071
0.302384
0.360912
0.335853
0.520893
0.49537
0.445837
0.328326
0.312044
0.439632
0.497977
0.375358
0.354664
0.283347
0.374689
0.3893
0.554938
0.565524
0.464189
0.413191
0.377432
0.304549
0.557018
0.314679
0.458671
0.284808
0.540666
0.309959
0.28441
0.335155
0.505493
0.381731
0.258189
0.340571
0.44516
0.344822
0.47286
0.444274
0.355495
0.508829
0.368572
0.335551
0.514149
0.340826
0.380963
0.301782
0.421559
0.367193
0.510884
0.468227
0.368906
0.462005
0.474181
0.527957
0.409972
0.369699
0.3532
0.480235
0.315593
0.429597
0.306966
0.566518
0.376773
0.515364
0.553504
0.408604
0.560725
0.514855
0.525571
0.324746
0.279622
0.302793
0.530789
0.324366
0.313231
0.30739
0.315405
0.379162
0.367687
0.413752
0.554001
0.466036
0.36358
0.470232
0.360268
0.567214
0.265793
0.503478
0.35747
0.275985
0.54216
0.5556
0.352687
0.354433
0.565891
0.421989
0.361653
0.334808
0.462004
0.519761
0.466819
0.340835
0.352044
0.488281
0.414891
0.335975
0.430837
0.301414
0.318889
0.377341
0.49796
0.286877
0.376642
0.491797
0.356315
0.282665
0.373042
0.356066
0.371579
0.433466
0.440054
0.341214
0.31022
0.327227
0.450646
0.460438
0.35948
0.44016
0.370613
0.325893
0.422956
0.365378
0.268502
0.46558
0.51289
0.410977
0.547997
0.522678
0.568459
0.350032
0.256458
0.382556
0.369558
0.370179
0.293331
0.428097
0.537932
0.46216
0.419458
0.335904
0.366986
0.477406
0.402513
0.454814
0.342075
0.388221
0.361955
0.291868
0.341125
0.355978
0.34953
0.328694
0.442167
0.413063
0.369447
0.4482
0.358944
0.377271
0.342102
0.372288
0.346449
0.359112
0.417842
0.289653
0.245866
0.39254
0.297071
0.277194
0.417913
0.273333
0.28088
0.511123
0.443583
0.341266
0.470543
0.317254
0.438497
0.430899
0.301775
0.354299
0.49616
0.383233
0.476232
0.201423
0.33213
0.51415
0.359157
0.335402
0.233732
0.287612
0.273787
0.291909
0.364545
0.448533
0.32403
0.276115
0.332443
0.357812
0.56762
0.33679
0.461363
0.432092
0.281993
0.385226
0.338646
0.308254
0.434658
0.372603
0.538134
0.459544
0.338038
0.366547
0.404345
0.572979
0.474562
0.523426
0.467782
0.367774
0.412127
0.377086
0.327713
0.292137
0.35382
0.366007
0.456018
0.347039
0.29828
0.353894
0.37572
0.349995
0.359418
0.499754
0.368072
0.360123
0.535493
0.508477
0.341607
0.416779
0.521098
0.31792
0.267062
0.369412
0.324692
0.309089
0.518233
0.336863
0.384284
0.529621
0.280656
0.416002
0.349727
0.410544
0.370219
0.349884
0.151093
0.382545
0.301319
0.332188
0.366621
0.363541
0.471441
0.538023
0.347756
0.416571
0.377965
0.326444
0.265026
0.494819
0.442437
0.3359
0.299639
0.42764
0.299194
0.352063
0.341727
0.334832
0.487448
0.536673
0.36409
0.468929
0.571591
0.498848
0.503712
0.527937
0.362102
0.359463
0.310942
0.569371
0.496086
0.514595
0.348181
0.35731
0.280988
0.476673
0.374298
0.332173
0.516182
0.451012
0.320826
0.380315
0.346938
0.352803
0.34739
0.365911
0.371417
0.321632
0.366633
0.291528
0.385045
0.322659
0.451248
0.396041
0.287362
0.52157
0.532186
0.466218
0.362415
0.419574
0.268414
0.474628
0.401609
0.294406
0.51896
0.234674
0.539822
0.300721
0.379612
0.395084
0.463473
0.486975
0.349712
0.552059
0.351006
0.501946
0.380999
0.449423
0.361228
0.341145
0.352434
0.506936
0.393395
0.567071
0.452286
0.28981
0.340994
0.440644
0.25123
0.363475
0.382111
0.323788
0.544022
0.315592
0.303222
0.483552
0.352654
0.537974
0.561713
0.359208
0.569702
0.550286
0.502338
0.517144
0.425176
0.302679
0.33866
0.372629
0.493064
0.375692
0.235445
0.550768
0.323489
0.368249
0.334229
0.526042
0.566617
0.334608
0.499004
0.433716
0.537992
0.383641
0.472166
0.35707
0.553722
0.565258
0.457027
0.338909
0.489589
0.368081
0.411057
0.402741
0.388054
0.433436
0.353869
0.241904
0.311293
0.393709
0.443907
0.418532
0.515329
0.33103
0.370299
0.44901
0.315087
0.53064
0.340806
0.356523
0.531031
0.507578
0.425089
0.556301
0.340654
0.358151
0.475765
0.407161
0.393833
0.377287
0.353387
0.440411
0.458261
0.353646
0.34633
0.421761
0.289164
0.319752
0.539923
0.569725
0.567934
0.382497
0.576462
0.566486
0.547232
0.265866
0.43436
0.431394
0.555809
0.366596
0.34658
0.30529
0.337748
0.220477
0.551934
0.380226
0.386492
0.474846
0.456186
0.362322
0.357488
0.565958
0.554837
0.521762
0.459878
0.342495
0.468436
0.446085
0.363582
0.394564
0.313469
0.336596
0.412789
0.392036
0.361412
0.541117
0.53841
0.26709
0.504883
0.352654
0.342264
0.376179
0.537617
0.378169
0.459444
0.38035
0.523443
0.36555
0.383389
0.566241
0.284969
0.286028
0.342636
0.326323
0.25059
0.125729
0.334584
0.259113
0.397296
0.268442
0.321396
0.391166
0.329749
0.334429
0.366121
0.309567
0.144162
0.551288
0.507767
0.366256
0.299738
0.512298
0.346494
0.346462
0.562682
0.340923
0.563022
0.382058
0.510808
0.381243
0.286451
0.316028
0.417294
0.417608
0.397748
0.28751
0.369718
0.324451
0.328904
0.354124
0.28794
0.311008
0.548618
0.335901
0.456815
0.480647
0.367723
0.486274
0.482514
0.304426
0.130346
0.381376
0.293722
0.254008
0.463518
0.466587
0.365781
0.442176
0.362501
0.566319
0.548269
0.374203
0.357374
0.554255
0.516465
0.4357
0.437104
0.362752
0.569125
0.41298
0.266552
0.5268
0.498829
0.539587
0.416933
0.340577
0.373138
0.468093
0.436652
0.0802795
0.569293
0.380485
0.33984
0.400727
0.520587
0.568538
0.562813
0.4423
0.400472
0.487034
0.518255
0.533594
0.460259
0.495064
0.298327
0.347968
0.429244
0.31123
0.297518
0.285554
0.37918
0.482519
0.293547
0.40885
0.349309
0.498048
0.562796
0.377503
0.301941
0.27706
0.470019
0.354697
0.335157
0.287194
0.537802
0.420189
0.425428
0.293002
0.429977
0.338481
0.34772
0.472448
0.479188
0.540841
0.566919
0.334966
0.522268
0.269522
0.528966
0.536567
0.53876
0.488303
0.323097
0.323134
0.365771
0.263987
0.409557
0.284467
0.435253
0.297494
0.515297
0.366563
0.272999
0.507723
0.481877
0.386793
0.391688
0.455101
0.537421
0.42101
0.400703
0.271982
0.498814
0.408691
0.555347
0.255569
0.392117
0.527732
0.467727
0.557175
0.473277
0.370789
0.237842
0.27202
0.389566
0.296588
0.550137
0.262952
0.358004
0.387389
0.339645
0.493825
0.25953
0.533548
0.468017
0.428249
0.246793
0.452009
0.335712
0.372026
0.383535
0.388523
0.355496
0.341117
0.484978
0.32313
0.574991
0.355198
0.388404
0.450183
0.47541
0.552467
0.354958
0.361198
0.333774
0.398861
0.347027
0.544124
0.335752
0.405515
0.362303
0.501471
0.326752
0.4148
0.309137
0.563719
0.263314
0.321217
0.347687
0.507732
0.276172
0.29274
0.319494
0.300664
0.537998
0.401772
0.463075
0.510946
0.453101
0.397941
0.563744
0.403468
0.480436
0.446633
0.417092
0.285078
0.423829
0.378162
0.359131
0.425854
0.317711
0.289637
0.403928
0.361524
0.326302
0.496265
0.400044
0.458016
0.377549
0.549605
0.387525
0.384298
0.448158
0.295787
0.331069
0.361648
0.41678
0.423627
0.436082
0.53428
0.473593
0.490523
0.41156
0.522685
0.553483
0.548146
0.409651
0.409132
0.432982
0.303938
0.562654
0.515421
0.501751
0.392041
0.319566
0.283898
0.432699
0.468082
0.339196
0.50141
0.516668
0.43756
0.351283
0.415523
0.36158
0.337219
0.391979
0.351238
0.424913
0.285924
0.428781
0.395056
0.375074
0.260673
0.424175
0.406774
0.457439
0.364378
0.419952
0.532855
0.543919
0.423114
0.383531
0.4913
0.40644
0.332793
0.335167
0.377954
0.297551
0.533757
0.397913
0.413169
0.468876
0.461714
0.448738
0.314117
0.57225
0.452941
0.341654
0.398754
0.398646
0.490963
0.52923
0.454483
0.433343
0.275059
0.325404
0.373018
0.434907
0.406113
0.42216
0.350207
0.540645
0.440818
0.491077
0.519024
0.417886
0.344398
0.415995
0.560387
0.3308
0.271341
0.415424
0.566638
0.356839
0.376025
0.485343
0.468652
0.505151
0.392691
0.277773
0.432648
0.304941
0.360397
0.50391
0.383325
0.308028
0.336684
0.355946
0.441009
0.3675
0.357004
0.525639
0.343966
0.564422
0.502626
0.299359
0.249136
0.401339
0.476929
0.516828
0.387884
0.373018
0.334055
0.367396
0.390649
0.566839
0.52876
0.473448
0.370467
0.282149
0.539287
0.571732
0.540313
0.49216
0.528172
0.413282
0.313182
0.260446
0.271419
0.552282
0.403511
0.312312
0.376207
0.571147
0.362587
0.350512
0.294537
0.390069
0.333161
0.572533
0.431992
0.474987
0.525032
0.51555
0.363569
0.444131
0.409878
0.468573
0.322969
0.440234
0.350344
0.54372
0.291927
0.359098
0.302186
0.373177
0.531662
0.370225
0.501858
0.521007
0.52742
0.313089
0.407227
0.373538
0.343341
0.538612
0.417213
0.421547
0.429121
0.21558
0.377829
0.545028
0.448073
0.541712
0.265716
0.323523
0.36205
0.547872
0.327692
0.393636
0.326274
0.312196
0.371735
0.551039
0.382792
0.375826
0.294382
0.570454
0.559443
0.217666
0.542279
0.36675
0.31449
0.324075
0.400326
0.301075
0.447446
0.372622
0.359596
0.375984
0.524391
0.391381
0.501739
0.382623
0.314592
0.376984
0.264921
0.283732
0.382659
0.360378
0.427961
0.324929
0.389038
0.520284
0.440794
0.360145
0.281982
0.530036
0.386243
0.393737
0.578145
0.425048
0.357641
0.343215
0.308255
0.552591
0.363769
0.390475
0.439734
0.300103
0.533311
0.294669
0.5234
0.405664
0.480712
0.328917
0.496661
0.384058
0.30312
0.331456
0.405952
0.531807
0.245537
0.347548
0.344469
0.552257
0.573995
0.328911
0.352964
0.444814
0.556657
0.387784
0.536814
0.514527
0.500214
0.483112
0.418705
0.46089
0.448888
0.540344
0.394731
0.415106
0.330792
0.353558
0.395424
0.327337
0.553555
0.307193
0.536508
0.392352
0.548064
0.354028
0.557801
0.478008
0.52228
0.549294
0.532876
0.577323
0.370097
0.520986
0.404205
0.36372
0.350976
0.324154
0.541694
0.308459
0.428299
0.440662
0.378771
0.442236
0.347061
0.544063
0.40037
0.491001
0.262305
0.33918
0.369057
0.573244
0.334074
0.452566
0.358481
0.3701
0.308044
0.380113
0.366853
0.495096
0.544661
0.292448
0.423537
0.3642
0.357771
0.506793
0.336055
0.351837
0.556948
0.271484
0.422348
0.468738
0.530671
0.561946
0.356191
0.346191
0.303383
0.368549
0.343349
0.363474
0.487518
0.361634
0.311579
0.376182
0.408098
0.364361
0.348659
0.344403
0.405913
0.30049
0.488274
0.479487
0.359491
0.490113
0.290846
0.294743
0.328161
0.282416
0.556319
0.369336
0.362843
0.349774
0.517191
0.539304
0.414059
0.487551
0.348658
0.341654
0.411612
0.365139
0.345682
0.540329
0.431472
0.459293
0.561019
0.495328
0.400164
0.5498
0.287984
0.416626
0.412547
0.437468
0.367903
0.550692
0.3587
0.431905
0.396642
0.363888
0.329436
0.349963
0.477985
0.508515
0.523197
0.414008
0.42336
0.551253
0.500031
0.382286
0.426718
0.313042
0.365821
0.499839
0.293174
0.518672
0.358927
0.526722
0.57619
0.542976
0.350118
0.522924
0.516109
0.269102
0.551756
0.339021
0.54648
0.496227
0.362561
0.326752
0.433415
0.370275
0.357245
0.344719
0.501849
0.361106
0.55324
0.319227
0.357951
0.340674
0.317926
0.362727
0.509408
0.567089
0.315867
0.491057
0.405583
0.432052
0.387584
0.443784
0.535127
0.499209
0.358611
0.529314
0.505439
0.562395
0.319566
0.332324
0.348896
0.486301
0.558961
0.510962
0.390846
0.557957
0.402543
0.290451
0.324966
0.24602
0.399017
0.305367
0.563664
0.564773
0.42153
0.579319
0.500917
0.407911
0.554852
0.308803
0.549497
0.363702
0.539576
0.372154
0.323673
0.483388
0.421415
0.546685
0.535181
0.538322
0.332827
0.329961
0.276558
0.522624
0.498156
0.330243
0.412219
0.499841
0.270946
0.351638
0.332419
0.354206
0.433324
0.352764
0.412433
0.480687
0.409111
0.420554
0.480112
0.366904
0.378083
0.431507
0.411145
0.36903
0.522182
0.547487
0.329542
0.4957
0.267426
0.348335
0.527714
0.490355
0.347063
0.542128
0.310022
0.479182
0.385519
0.386226
0.526947
0.374042
0.487932
0.487053
0.462313
0.570098
0.465449
0.30253
0.445839
0.39361
0.487906
0.565705
0.460947
0.403113
0.345634
0.387321
0.528262
0.320324
0.516003
0.337036
0.436853
0.495603
0.481014
0.39904
0.526677
0.55749
0.37565
0.367881
0.418276
0.331929
0.308449
0.414638
0.486271
0.337854
0.298937
0.332937
0.294799
0.475472
0.400802
0.490487
0.355986
0.540419
0.411247
0.516387
0.56654
0.342118
0.5335
0.375877
0.41851
0.413207
0.525087
0.348797
0.383839
0.416707
0.324683
0.370004
0.325343
0.305109
0.267225
0.558557
0.569694
0.337834
0.353323
0.484524
0.285508
0.33264
0.363688
0.468331
0.478681
0.28236
0.266585
0.535192
0.353925
0.438216
0.352745
0.297836
0.324466
0.425314
0.51607
0.439151
0.292591
0.542038
0.514738
0.33704
0.434095
0.359926
0.56545
0.369942
0.390171
0.308437
0.455069
0.548812
0.440062
0.418406
0.345614
0.400321
0.443224
0.555742
0.580025
0.348668
0.559083
0.351136
0.421152
0.424018
0.382328
0.36178
0.524218
0.366882
0.426798
0.332905
0.320878
0.379046
0.326751
0.465665
0.540428
0.334159
0.351589
0.419395
0.363408
0.33719
0.259374
0.367962
0.526553
0.256978
0.33913
0.482144
0.41713
0.393355
0.452353
0.511136
0.313208
0.316971
0.509895
0.385656
0.322986
0.40672
0.52389
0.454582
0.420751
0.348976
0.349657
0.344562
0.556588
0.510556
0.566326
0.389868
0.464482
0.316689
0.405845
0.517275
0.290164
0.298216
0.479487
0.51292
0.290303
0.359327
0.346321
0.31126
0.346557
0.578912
0.391903
0.356527
0.416618
0.345774
0.48331
0.428963
0.31384
0.3612
0.496962
0.399326
0.558694
0.304141
0.352938
0.456862
0.442498
0.380168
0.437776
0.325548
0.561658
0.545095
0.458747
0.527647
0.33665
0.522289
0.448963
0.454893
0.549867
0.285527
0.36316
0.563914
0.451002
0.28136
0.337171
0.512313
0.562374
0.402529
0.485601
0.346706
0.304488
0.334476
0.272598
0.51652
0.347329
0.404011
0.553037
0.342224
0.317192
0.345575
0.421409
0.355762
0.349161
0.347824
0.317087
0.398866
0.497382
0.548408
0.476802
0.367147
0.362385
0.275402
0.355911
0.446834
0.427334
0.467718
0.48341
0.362636
0.38995
0.508069
0.515293
0.56422
0.528272
0.552325
0.40041
0.308147
0.334536
0.317743
0.556177
0.418804
0.350251
0.548713
0.314234
0.501828
0.479497
0.362665
0.352561
0.364276
0.349949
0.513559
0.367738
0.468541
0.400109
0.54664
0.431263
0.56784
0.333857
0.399409
0.335912
0.262307
0.36838
0.493786
0.315608
0.203046
0.419248
0.546517
0.488858
0.347314
0.305442
0.337748
0.31537
0.354564
0.320199
0.381279
0.3212
0.480776
0.337261
0.355702
0.535503
0.404542
0.451334
0.506749
0.369843
0.401972
0.32857
0.497539
0.358376
0.366372
0.393424
0.327859
0.301709
0.352755
0.331161
0.488394
0.566889
0.520661
0.425332
0.473681
0.294088
0.559188
0.43687
0.487565
0.348908
0.47792
0.341503
0.370443
0.500486
0.548437
0.491962
0.424842
0.371397
0.568906
0.377373
0.506605
0.554496
0.461645
0.382382
0.290305
0.505421
0.432389
0.321142
0.452329
0.427855
0.544582
0.344528
0.554095
0.56519
0.380544
0.335657
0.55318
0.30824
0.323557
0.370966
0.320367
0.369634
0.329624
0.306119
0.398391
0.356459
0.335829
0.358331
0.426947
0.330643
0.34094
0.446949
0.404775
0.306258
0.540053
0.571294
0.559539
0.352316
0.297163
0.568407
0.301367
0.395574
0.337958
0.360601
0.346319
0.479141
0.364171
0.356992
0.296019
0.289183
0.322224
0.366857
0.291794
0.396456
0.41812
0.387354
0.546744
0.423036
0.463394
0.384337
0.511558
0.347696
0.366008
0.58277
0.372089
0.426803
0.305942
0.462985
0.570658
0.359532
0.44714
0.429767
0.330378
0.346438
0.339736
0.321585
0.482606
0.32564
0.387341
0.357322
0.380745
0.33982
0.340941
0.395035
0.361786
0.358046
0.570144
0.394543
0.384468
0.419688
0.547316
0.369168
0.291002
0.500629
0.30851
0.377271
0.348866
0.403345
0.344925
0.364545
0.402538
0.56316
0.518228
0.293263
0.356954
0.291252
0.342424
0.278624
0.32513
0.372213
0.33306
0.373047
0.448319
0.577965
0.365815
0.476206
0.413006
0.556289
0.361894
0.570354
0.440267
0.316474
0.448187
0.483462
0.357604
0.519192
0.349477
0.524264
0.34967
0.209856
0.391981
0.576082
0.56669
0.481253
0.453982
0.473844
0.29869
0.341379
0.475344
0.566957
0.22838
0.404431
0.349065
0.348239
0.386123
0.336978
0.313758
0.348234
0.325169
0.357059
0.35831
0.38892
0.568476
0.514179
0.279926
0.497394
0.332474
0.339068
0.503275
0.350872
0.376097
0.465904
0.246748
0.336716
0.401638
0.520303
0.318155
0.343416
0.373658
0.444687
0.316663
0.54593
0.292297
0.364511
0.37253
0.345495
0.455867
0.447462
0.548705
0.34625
0.491819
0.416079
0.442259
0.349255
0.456217
0.330417
0.308625
0.269714
0.436296
0.38678
0.372605
0.533539
0.402838
0.422827
0.455369
0.33995
0.32544
0.366559
0.438105
0.356456
0.576243
0.308304
0.291914
0.368443
0.35766
0.355032
0.341289
0.479107
0.368778
0.39371
0.319929
0.351783
0.387967
0.30318
0.573141
0.562221
0.323575
0.338567
0.516273
0.416242
0.344355
0.304364
0.338803
0.322592
0.415586
0.537339
0.345776
0.30024
0.447227
0.39686
0.293003
0.320161
0.396895
0.471046
0.578666
0.313984
0.286489
0.427721
0.516252
0.367989
0.425824
0.368905
0.350059
0.36718
0.443618
0.382268
0.351375
0.495872
0.371334
0.267732
0.413179
0.355398
0.501463
0.568826
0.35892
0.362203
0.360606
0.363824
0.314777
0.366178
0.324273
0.549329
0.506728
0.468931
0.371663
0.301159
0.492761
0.559153
0.340768
0.40989
0.349809
0.268157
0.398479
0.359686
0.263236
0.325916
0.452675
0.315896
0.293622
0.321281
0.505544
0.309481
0.500214
0.395053
0.346986
0.356887
0.335263
0.501299
0.276685
0.368652
0.376999
0.308775
0.425714
0.476086
0.427387
0.387897
0.485138
0.31951
0.322236
0.536146
0.347588
0.532444
0.429602
0.364335
0.431455
0.520873
0.396847
0.289704
0.545164
0.342599
0.37288
0.522255
0.338245
0.554347
0.34532
0.373391
0.263594
0.377354
0.323191
0.401585
0.321863
0.270515
0.318199
0.316047
0.272154
0.53764
0.316616
0.372328
0.42941
0.401505
0.560625
0.563609
0.34509
0.399352
0.505196
0.33608
0.538105
0.280762
0.360432
0.417069
0.341884
0.507856
0.352652
0.359721
0.364198
0.345886
0.341752
0.269276
0.523783
0.150333
0.554394
0.472816
0.32193
0.292847
0.32547
0.580213
0.478939
0.451307
0.393207
0.428034
0.376606
0.522048
0.493183
0.336838
0.444854
0.557887
0.380232
0.407244
0.454019
0.286539
0.320851
0.506976
0.368941
0.391052
0.554966
0.31302
0.282517
0.350663
0.389771
0.376821
0.569163
0.343058
0.302457
0.339511
0.388701
0.34452
0.530314
0.397195
0.330523
0.34652
0.34056
0.339692
0.363725
0.443779
0.409904
0.331934
0.530267
0.359558
0.510521
0.33248
0.314054
0.37684
0.526202
0.559721
0.502315
0.39096
0.381899
0.499802
0.564347
0.310665
0.539343
0.321406
0.460609
0.440697
0.528757
0.391835
0.519177
0.54601
0.355816
0.352896
0.373298
0.40771
0.324734
0.308286
0.306904
0.477559
0.508699
0.307853
0.544745
0.39523
0.487229
0.389278
0.325182
0.505989
0.493361
0.356089
0.360869
0.322614
0.563441
0.47808
0.567907
0.305045
0.323731
0.378568
0.512589
0.449512
0.534546
0.423352
0.566179
0.347351
0.383005
0.406988
0.354246
0.428748
0.283072
0.499807
0.396256
0.415359
0.540294
0.299344
0.309804
0.281503
0.439335
0.525627
0.362911
0.456723
0.290569
0.30058
0.392888
0.354841
0.346348
0.530976
0.410401
0.337133
0.379897
0.437374
0.550942
0.441195
0.366917
0.523552
0.411174
0.553306
0.39809
0.466496
0.36527
0.305056
0.575372
0.328817
0.429276
0.422139
0.536465
0.46249
0.385811
0.351515
0.567951
0.38366
0.331646
0.482054
0.560097
0.476573
0.449696
0.300798
0.265971
0.405795
0.334651
0.370411
0.40618
0.331432
0.548993
0.56286
0.542604
0.357415
0.364535
0.34641
0.366322
0.466665
0.311325
0.464085
0.548433
0.315124
0.357473
0.347241
0.512988
0.451194
0.363571
0.335645
0.473109
0.342318
0.278856
0.316095
0.575971
0.274326
0.497195
0.44968
0.346865
0.555215
0.414481
0.580078
0.239179
0.360582
0.419311
0.543064
0.368296
0.538315
0.414826
0.273363
0.382314
0.350371
0.369941
0.267398
0.498711
0.357777
0.335884
0.286775
0.386833
0.532453
0.238708
0.360647
0.524222
0.383552
0.520308
0.277303
0.341778
0.346391
0.37328
0.330202
0.302232
0.341173
0.244027
0.365214
0.363335
0.489137
0.424662
0.526331
0.337306
0.367411
0.303734
0.41435
0.247358
0.371313
0.569258
0.393342
0.360626
0.580749
0.33238
0.421771
0.448915
0.302499
0.354446
0.394529
0.434352
0.54913
0.559265
0.56036
0.439583
0.388916
0.362772
0.324545
0.518007
0.466107
0.347877
0.358941
0.361344
0.390348
0.579998
0.376311
0.578025
0.342036
0.456442
0.325732
0.344052
0.302297
0.354226
0.533668
0.36394
0.309699
0.325546
0.5735
0.35834
0.330927
0.327551
0.342394
0.475917
0.420531
0.429191
0.384574
0.482992
0.293581
0.394031
0.383433