/*--------------------------------*- C++ -*----------------------------------*\
  =========                 |
  \\      /  F ield         | OpenFOAM: The Open Source CFD Toolbox
   \\    /   O peration     | Website:  https://openfoam.org
    \\  /    A nd           | Version:  6
     \\/     M anipulation  |
\*---------------------------------------------------------------------------*/
FoamFile
{
    version     2.0;
    format      ascii;
    class       volVectorField;
    location    "0";
    object      U;
}
// * * * * * * * * * * * * * * * * * * * * * * * * * * * * * * * * * * * * * //

dimensions      [0 1 -1 0 0 0 0];

internalField   nonuniform List<vector> 
13046
(
(-0.575878 0.258308 0)
(-0.681314 -0.218782 -6.45303e-21)
(-0.151866 -0.118137 -1.34044e-20)
(-0.52104 0.141197 0)
(-0.130837 -0.0281421 -1.23895e-20)
(-0.555145 -0.228446 0)
(-0.592575 0.176147 1.91029e-21)
(-0.632921 -0.280355 3.24752e-21)
(-0.0993567 -0.0155522 -1.3453e-20)
(-1.46153 0.68042 3.90077e-21)
(-1.54502 -0.684808 0)
(0.0874056 -0.0254295 8.067e-21)
(-0.777679 0.33082 -6.02535e-21)
(-0.852223 -0.328648 -9.71799e-21)
(-0.0566488 -0.079694 7.10503e-21)
(-1.38896 0.76168 -5.67793e-21)
(0.0468653 -0.037554 1.93724e-20)
(-1.584 -0.566121 3.07628e-21)
(-0.24967 0.0734226 0)
(-0.377754 -0.192117 -6.85504e-21)
(-0.478659 0.00415675 2.01172e-20)
(-1.40566 0.751137 -2.1906e-21)
(0.0603429 -0.0318851 -2.58673e-20)
(-1.57674 -0.59165 0)
(-0.459621 0.152676 7.93991e-21)
(-0.542526 -0.171268 -1.59128e-20)
(-0.1723 -0.0891795 0)
(-0.795683 0.372895 -1.07713e-20)
(-0.891199 -0.326241 2.86779e-21)
(-0.0645874 -0.0973636 -1.24802e-20)
(-0.595936 0.286838 0)
(-0.716049 -0.201487 0)
(-0.169027 -0.142041 1.3643e-20)
(-0.396764 0.10854 -9.22279e-21)
(-0.202852 -0.0876217 4.68452e-21)
(-0.476998 -0.131337 2.77294e-20)
(-0.383377 0.0782526 -1.42548e-20)
(-0.210318 -0.0603677 7.18389e-21)
(-0.437706 -0.127055 -1.41971e-20)
(-0.466816 0.274065 9.71091e-21)
(-0.397576 -0.298774 2.4426e-21)
(-0.711954 -0.0760275 -9.78384e-21)
(-0.348402 -0.0107563 6.45456e-21)
(-0.270551 -0.0219763 1.08824e-20)
(-0.3303 -0.0838362 0)
(-0.386556 0.00174225 4.14074e-21)
(-0.242535 0.00551336 -1.67542e-20)
(-0.346053 -0.119238 -2.08926e-21)
(-0.606534 0.252587 0)
(-0.697665 -0.24846 -4.58689e-22)
(-0.110746 -0.0933145 -7.89999e-23)
(-0.674342 -0.492467 1.50599e-20)
(-0.394064 0.282161 0)
(-0.855252 0.0362562 -1.15324e-20)
(-0.769581 -0.551117 -2.14763e-20)
(-0.904545 0.0750844 -1.82971e-20)
(-0.341185 0.250442 1.44885e-20)
(-1.33451 -0.337765 -1.9165e-21)
(-1.1244 0.715793 0)
(-0.161238 -0.185513 1.08543e-20)
(-1.05771 0.365216 -5.66455e-21)
(-1.08464 -0.560291 5.41321e-21)
(0.0112367 0.012975 -2.94598e-20)
(0.0816924 -0.0346176 1.49752e-20)
(-1.46114 -0.635428 -2.75363e-21)
(-1.38061 0.629392 -7.69499e-21)
(-1.05786 0.699566 0)
(-1.26472 -0.279751 0)
(-0.226097 -0.237402 0)
(-0.999163 0.660332 -4.03127e-21)
(-1.2057 -0.258053 0)
(-0.247126 -0.251443 8.69521e-21)
(-1.39753 -0.353141 0)
(-1.1784 0.749102 1.4423e-22)
(-0.142109 -0.176989 -6.31475e-23)
(-0.279192 0.103047 0)
(-0.372835 -0.211643 7.36818e-21)
(-0.51628 -0.0212795 -1.4303e-20)
(-0.0654733 -0.11798 1.18666e-20)
(-1.2552 0.770162 -1.13807e-20)
(-1.47397 -0.424178 0)
(-0.504938 0.169677 4.18513e-21)
(-0.573114 -0.200925 0)
(-0.1412 -0.0658234 0)
(0.0843917 -0.0325699 -1.33747e-20)
(-1.49786 -0.646905 -1.89773e-21)
(-1.41579 0.654836 4.51508e-21)
(-1.42846 0.516991 -8.13105e-21)
(0.073876 -0.0126149 0)
(-1.40525 -0.746236 -2.1914e-21)
(0.00367844 0.0164929 0)
(-1.51441 0.415866 0)
(-1.37599 -0.869615 2.62047e-22)
(-1.10327 0.51672 0)
(-1.16802 0.532027 4.82174e-21)
(-1.2027 -0.485162 1.02709e-20)
(-1.25742 -0.531501 -4.78857e-21)
(0.0214275 -0.0646422 -6.26018e-21)
(0.0440833 -0.0488318 1.61486e-20)
(0.0583792 -0.00390722 -7.5626e-22)
(-1.41613 0.486031 7.95744e-21)
(-1.37636 -0.765844 0)
(-0.419329 0.036785 -2.85095e-23)
(-0.209882 0.00324538 8.66157e-21)
(-0.395826 -0.156768 0)
(-0.22692 0.169115 0)
(-0.81209 0.115443 -5.77067e-21)
(-0.736037 -0.47434 0)
(-0.380161 0.256501 1.65707e-20)
(-0.581804 -0.411509 0)
(-0.768436 0.00598183 -2.21809e-20)
(-1.37965 0.661743 0)
(0.0686863 -0.0229737 0)
(-1.43852 -0.677072 -3.75357e-22)
(-0.699088 0.291585 1.66385e-20)
(-0.785596 -0.293685 4.22072e-21)
(-0.0731317 -0.0746304 1.31042e-20)
(-1.18393 0.611216 6.17902e-21)
(-1.11616 0.562329 -1.17319e-20)
(-1.31357 -0.481197 -8.61974e-21)
(0.00671457 -0.0801973 7.20158e-21)
(-1.23477 -0.457882 5.01612e-21)
(0.000659017 -0.082089 -6.72677e-21)
(-1.44888 0.694095 -2.54951e-21)
(-1.54472 -0.677682 -2.09365e-21)
(0.0831519 -0.0224886 -3.60168e-21)
(-0.962725 0.458187 0)
(-1.05925 -0.408117 -7.17353e-21)
(-0.0202344 -0.0885364 1.50468e-20)
(-0.527784 0.303414 0)
(-0.33711 -0.266 -1.23328e-20)
(-0.734514 -0.115699 5.47918e-22)
(-0.0126149 0.0316377 0)
(-1.46347 0.391695 0)
(-1.34619 -0.848198 0)
(-1.28353 0.54466 0)
(-1.34264 -0.619524 -1.2353e-20)
(0.0717514 -0.028593 -1.71367e-20)
(-0.666414 0.322468 0)
(-0.780395 -0.235225 0)
(-0.149401 -0.147711 0)
(-0.786278 0.224811 0)
(-0.805438 -0.423506 0)
(-0.0698765 0.0357463 0)
(-0.350701 0.245645 0)
(-0.649384 -0.45376 0)
(-0.801109 0.0379777 1.19637e-20)
(-0.222606 0.154046 -1.70248e-21)
(-0.775854 0.109054 -1.2589e-20)
(-0.710606 -0.447698 1.36548e-20)
(-1.11452 0.3974 1.27572e-20)
(-1.13865 -0.579412 0)
(0.0307779 -0.00114259 3.8237e-20)
(-0.165276 0.0878689 0)
(-0.664666 0.114233 1.36695e-20)
(-0.624866 -0.356402 -3.51738e-21)
(-0.931464 -0.627382 0)
(-1.00447 0.172054 1.29652e-20)
(-1.01054 -0.659372 0)
(-1.06782 0.221319 7.43171e-21)
(-0.215179 0.175895 0)
(-0.156051 0.137271 0)
(-0.815595 0.18187 1.74206e-21)
(-0.794316 -0.464225 7.1638e-21)
(-0.117598 0.0817964 -7.40198e-21)
(-1.48856 0.65752 -3.99813e-21)
(0.0912537 -0.0281738 0)
(-1.51648 -0.714727 -3.65418e-21)
(-1.4105 0.677398 -1.9482e-21)
(0.0744215 -0.0201534 -1.64967e-21)
(-1.49378 -0.675546 0)
(-1.30778 0.576144 -6.72954e-21)
(-1.37527 -0.617151 0)
(0.0744213 -0.0337603 1.94757e-20)
(-0.650117 0.408031 0)
(-0.866621 -0.135743 3.01336e-21)
(-0.36853 -0.311275 7.08665e-21)
(-0.769759 0.154214 1.14196e-20)
(-0.149881 0.106142 3.58804e-21)
(-0.739503 -0.431913 0)
(0.0906703 -0.0291655 0)
(-1.49049 -0.761613 0)
(-1.51412 0.600939 3.19887e-21)
(-0.587122 0.366626 0)
(-0.81236 -0.110785 -6.64903e-21)
(-0.384335 -0.304628 1.85443e-21)
(-0.169973 0.105178 0)
(-0.689789 0.112961 0)
(-0.642564 -0.378212 0)
(-0.72641 0.190339 5.66517e-21)
(-0.744106 -0.389609 0)
(-0.0820001 0.0321574 0)
(-0.933998 -0.394464 -2.07673e-23)
(-0.0188654 -0.0544146 -8.85627e-21)
(-0.906799 0.418341 1.70488e-20)
(-1.00308 -0.385445 0)
(-0.0277048 -0.0826109 -1.88557e-20)
(-1.44803 0.590783 -8.00657e-21)
(0.0900007 -0.0249759 1.21057e-20)
(-1.46843 -0.715906 -9.57678e-21)
(0.0152923 0.0219389 1.10275e-20)
(-1.4119 0.419334 5.16273e-21)
(-1.3377 -0.802889 1.10826e-20)
(-1.49967 0.473519 -1.29726e-20)
(-1.41114 -0.815646 0)
(0.0489103 -0.00435116 -1.08255e-20)
(-0.722202 -0.552665 -7.61223e-22)
(-0.941706 0.0258922 5.08617e-21)
(-0.474001 0.358634 0)
(-0.728329 0.251427 -2.54281e-20)
(-1.236 0.784246 5.97964e-21)
(-0.0944135 -0.135366 -7.31757e-21)
(-1.47418 -0.409703 0)
(-1.43263 -0.820529 0)
(-1.52461 0.510482 -1.06182e-20)
(0.0623627 -0.0164368 0)
(-0.423218 0.0764096 -2.08415e-20)
(-0.185466 -0.0259139 -7.05508e-21)
(-0.443612 -0.163354 2.08124e-20)
(-0.761969 0.378588 0)
(-0.872542 -0.295608 -4.16582e-22)
(-0.103611 -0.121683 -7.25941e-21)
(-0.00611554 0.0329344 8.46826e-21)
(-1.42018 0.400052 0)
(-1.32717 -0.824568 -1.27782e-20)
(-0.792309 0.287779 2.03064e-20)
(-0.909599 -0.403555 1.74758e-20)
(-0.0191821 -0.0391364 0)
(0.0849702 -0.0309799 0)
(-1.47563 -0.725467 1.98863e-21)
(-1.48049 0.648642 0)
(-0.413557 0.315193 0)
(-0.958971 0.0545559 0)
(-0.779998 -0.592167 0)
(-1.45284 0.462101 1.13728e-20)
(-1.38439 -0.791881 0)
(0.0458729 0.000937047 -5.66661e-23)
(-0.935243 0.201661 4.96545e-21)
(-0.902366 -0.559936 -5.3333e-21)
(-0.128886 0.109105 0)
(-0.961291 0.484865 0)
(-1.07094 -0.388511 6.71993e-21)
(-0.0424105 -0.104333 1.18444e-20)
(-1.22323 -0.825241 -1.71341e-20)
(-1.33042 0.29169 -9.58213e-21)
(-0.110224 0.106666 6.65364e-21)
(-1.14209 0.235875 0)
(-1.07382 -0.709773 -7.12601e-21)
(-0.154013 0.13658 -2.43936e-22)
(0.0811569 -0.0360457 -1.05766e-20)
(-1.44678 -0.737894 0)
(-1.48983 0.627857 -1.47525e-21)
(-0.486983 0.323064 8.87205e-21)
(-0.515194 -0.385725 -8.90371e-21)
(-0.801648 -0.0463735 9.59659e-22)
(-1.28264 0.701473 1.56123e-21)
(0.0563197 -0.00512748 -1.54837e-20)
(-1.46837 -0.593768 0)
(-0.20633 0.042916 -4.13282e-21)
(-0.477487 0.0365939 -1.6255e-20)
(-0.421348 -0.203496 2.05567e-20)
(-0.955479 0.262675 5.77604e-21)
(-0.905153 0.21429 2.2989e-23)
(-0.952253 -0.540783 -1.31044e-20)
(-0.88408 -0.529984 0)
(-0.105445 0.0883882 6.72911e-21)
(-0.0543512 0.0560382 -6.94397e-21)
(-0.0365974 -0.0947748 -1.55316e-20)
(-1.29422 0.778549 6.1686e-21)
(-1.52414 -0.447924 -8.34955e-21)
(-0.901457 0.469102 0)
(-1.01993 -0.341652 0)
(-0.0859629 -0.128583 -1.55506e-20)
(-1.21429 0.277386 -2.58239e-21)
(-1.13823 -0.750156 0)
(-0.115149 0.111157 0)
(-1.24087 0.585066 -5.90178e-21)
(-1.33531 -0.546704 0)
(0.0506385 -0.0519228 7.06972e-21)
(-0.32162 0.00908885 4.31839e-21)
(-0.353953 -0.0653383 6.33737e-21)
(-0.273973 -0.0506016 -2.15822e-21)
(-1.04101 0.240746 -9.46685e-21)
(-1.00423 -0.627524 0)
(-0.111703 0.10681 -1.1429e-20)
(-0.918574 0.497924 0)
(-1.04981 -0.3325 8.3704e-21)
(-0.103603 -0.144453 -9.92387e-21)
(-0.832156 0.328666 0)
(-0.900585 0.362984 2.00138e-21)
(-0.506838 0.343062 3.18727e-21)
(-0.53703 -0.408915 2.57677e-20)
(-0.83002 -0.0392122 -2.29087e-20)
(-1.09765 0.28287 -9.59128e-21)
(-1.06218 -0.650039 1.09142e-20)
(-0.0675824 0.0779757 1.04268e-20)
(-1.28447 0.595578 0)
(0.064353 -0.0435273 -2.50359e-20)
(-1.37979 -0.581117 -5.81428e-21)
(-0.376333 0.236516 -2.29347e-20)
(-0.537822 -0.383282 0)
(-0.734575 0.00345154 7.49529e-21)
(-0.250179 0.203967 -1.33841e-20)
(-1.02702 0.158303 -7.4457e-21)
(-0.938217 -0.657011 0)
(-1.09412 0.605963 -5.9983e-21)
(-1.24313 -0.394786 -7.01417e-21)
(-0.064587 -0.123754 4.45443e-21)
(-0.45114 0.321568 1.14862e-21)
(-0.635983 -0.47412 0)
(-0.861512 0.0118619 1.59762e-20)
(-1.1504 0.641989 0)
(-1.18951 0.647295 0)
(-1.30987 -0.422869 -4.32178e-21)
(-0.0484648 -0.114044 -1.15901e-20)
(-1.34147 -0.463413 6.11229e-21)
(-0.0156041 -0.0919037 1.22985e-20)
(0.0930612 -0.0279504 -9.32328e-21)
(-1.49617 -0.735757 0)
(-1.49295 0.620788 -5.17578e-21)
(-1.05327 0.542048 7.00526e-21)
(-1.1737 -0.421515 0)
(-0.0278527 -0.0987862 4.02702e-21)
(-1.29036 -0.635586 -1.04564e-21)
(0.0461317 -0.0204927 1.3518e-20)
(-1.23345 0.631587 6.89282e-22)
(-0.587454 0.0664405 -7.54182e-21)
(-0.198354 0.089107 0)
(-0.526517 -0.295067 0)
(-0.978634 0.338118 1.34785e-20)
(-1.01485 -0.509757 0)
(0.00269773 0.00448198 2.27372e-20)
(0.0868119 -0.0263082 -7.72033e-21)
(-1.40145 0.582532 1.66641e-20)
(-1.43662 -0.682856 7.7353e-21)
(-0.805833 -0.582013 0)
(-0.938858 0.0827898 6.70813e-21)
(-0.34194 0.266518 -1.64184e-20)
(-1.26065 -0.830334 -2.02031e-20)
(-1.36684 0.330304 -5.70116e-21)
(-0.0684962 0.0747348 0)
(-0.807954 -0.356929 -1.79994e-20)
(-0.0445775 -0.0305444 0)
(-1.0312 0.414286 1.42879e-20)
(-1.0779 -0.492435 6.07237e-21)
(0.0248062 -0.0353651 6.9275e-21)
(-0.795516 -0.378126 1.04859e-20)
(-0.0454551 -0.0113314 -2.75898e-23)
(-1.37233 0.74886 -3.82717e-22)
(0.0377778 -0.0473646 9.15578e-21)
(-1.5586 -0.546665 -4.52535e-21)
(-0.703409 -0.565945 0)
(-0.971212 0.00513713 1.58638e-21)
(-0.531953 0.402073 0)
(-1.09054 0.445589 -1.45691e-20)
(-1.15324 -0.523968 -7.40019e-21)
(0.0386897 -0.0299644 -8.36158e-21)
(-0.813023 0.218525 0)
(-0.815258 -0.452941 -1.04038e-20)
(-0.0813699 0.053049 0)
(-0.818916 0.0842101 0)
(-0.707112 -0.485716 0)
(-0.287633 0.202711 0)
(-0.575167 0.214669 -5.79232e-21)
(-0.64461 -0.238236 -1.00791e-20)
(-0.115409 -0.07384 1.3459e-23)
(-0.298264 0.23946 1.65912e-20)
(-0.997131 0.125053 1.7973e-20)
(-0.8884 -0.633337 1.04766e-20)
(-1.47321 0.550928 -6.48926e-21)
(-1.44484 -0.749897 8.03401e-21)
(0.0836669 -0.020491 -1.14244e-20)
(-1.27096 -0.806458 1.37747e-20)
(-1.3526 0.350823 5.78044e-21)
(-0.0411404 0.0595223 8.5455e-21)
(-0.873805 0.591403 -1.25098e-20)
(-0.342966 -0.313173 1.3092e-20)
(-1.09898 -0.193502 -9.924e-21)
(-1.22495 0.7189 3.37286e-21)
(-1.17821 0.689448 -3.1825e-21)
(-1.35815 -0.406593 -1.37105e-21)
(-1.41328 -0.426627 0)
(-0.0557529 -0.114294 -4.21325e-21)
(-0.073226 -0.129036 -3.75956e-21)
(0.052151 -0.0151692 -1.83118e-20)
(-1.34622 -0.623032 1.15243e-21)
(-1.25581 0.642363 1.22692e-21)
(-1.3065 0.715741 -1.33874e-22)
(0.0594396 -0.00395411 2.14216e-20)
(-1.50794 -0.592096 0)
(-1.0261 0.295063 -2.15752e-20)
(-1.02724 -0.577856 -2.8491e-21)
(-0.0404927 0.0530776 0)
(0.0922718 -0.0268068 -2.33118e-20)
(-1.46566 0.613083 5.15213e-21)
(-1.4914 -0.711995 0)
(-1.00232 0.620746 1.77876e-20)
(-1.05958 0.64115 -1.32398e-20)
(-1.1838 -0.304557 7.62958e-21)
(-1.23365 -0.337101 2.87291e-21)
(-0.184952 -0.203092 -7.43679e-21)
(-0.140049 -0.171902 -3.72519e-21)
(0.061345 -0.0305976 0)
(-1.42392 -0.841909 0)
(-1.57866 0.499448 1.68895e-21)
(-1.20089 0.690966 -1.83238e-21)
(0.049402 -5.25964e-05 0)
(-1.42949 -0.566657 0)
(-0.441167 -0.0436081 -1.41154e-23)
(-0.291519 0.0697739 9.19917e-21)
(-0.301324 -0.140271 4.56705e-21)
(-1.31107 0.667821 -2.2376e-21)
(-1.42868 -0.644861 5.49077e-22)
(0.0602918 -0.0150681 1.00452e-21)
(-0.732411 0.440667 0)
(-0.910271 -0.189646 -1.36672e-20)
(-0.284571 -0.258091 -8.49946e-23)
(-1.51869 0.583993 2.1035e-22)
(-1.47621 -0.777677 1.00061e-20)
(0.0873773 -0.0278208 1.69479e-23)
(-1.1436 -0.645737 -1.93187e-23)
(0.0390014 -0.0352249 -7.79522e-21)
(-1.20062 0.53721 4.91218e-22)
(-0.401791 0.229884 -8.4024e-21)
(-0.410883 -0.287971 7.94704e-21)
(-0.66321 -0.0487827 2.40026e-20)
(-0.520451 0.0757857 0)
(-0.495308 -0.241544 -2.28112e-20)
(-0.170947 0.0364406 1.13916e-20)
(-1.42799 0.718867 0)
(0.0776106 -0.0193542 1.07487e-20)
(-1.5572 -0.657968 -1.95119e-22)
(-0.560423 0.0918012 0)
(-0.533606 -0.270579 -7.90544e-21)
(-0.159535 0.0545442 -1.61441e-20)
(-0.407961 -0.0388937 9.56213e-21)
(-0.284347 0.0431074 -4.86597e-21)
(-0.299407 -0.115961 2.4238e-21)
(-0.39323 0.309271 7.98538e-21)
(-1.01728 0.0830778 -6.25549e-21)
(-0.860984 -0.655763 1.15237e-20)
(-0.543072 0.00198752 0)
(-0.417754 -0.237217 0)
(-0.26061 0.121115 1.34449e-21)
(-0.582897 0.0449469 1.19363e-20)
(-0.489148 -0.277105 6.03166e-21)
(-0.234748 0.117012 1.89739e-22)
(-0.812998 0.556843 1.90284e-20)
(-1.04527 -0.161444 -1.01594e-20)
(-0.397116 -0.354872 -1.29343e-20)
(0.079945 -0.027782 1.62897e-20)
(0.0861535 -0.0271503 -1.65398e-20)
(-1.55898 -0.649436 2.61762e-21)
(-1.54549 -0.669385 1.92936e-21)
(-1.43669 0.711545 0)
(-1.45268 0.697212 -3.99447e-21)
(-1.50244 0.551859 8.13422e-21)
(-1.45922 -0.769191 -6.54869e-21)
(0.0833638 -0.02213 1.41731e-20)
(-0.329459 -0.313602 -8.36273e-21)
(-0.932401 0.64273 3.87987e-21)
(-1.15756 -0.208263 1.2646e-20)
(-0.517889 0.32769 -8.10095e-21)
(-0.445037 -0.34064 -8.15207e-21)
(-0.785309 -0.0746666 7.41034e-21)
(-1.15812 0.204504 0)
(-1.06383 -0.739562 7.37551e-21)
(-0.20757 0.173445 2.52122e-22)
(-1.25142 -0.72564 1.29347e-21)
(0.0598387 -0.0519199 -7.24514e-21)
(-1.40626 0.542991 -4.75442e-22)
(0.0269387 0.00180288 0)
(-1.52861 0.44726 0)
(-1.39268 -0.862014 4.58519e-21)
(-1.44404 0.669524 2.66777e-21)
(0.0813667 -0.0251659 0)
(-1.50545 -0.6991 -1.9524e-21)
(0.0311667 -0.0288109 -2.90455e-32)
(-1.07997 -0.613331 1.31036e-21)
(-1.11525 0.522461 -8.39051e-22)
(-1.13446 -0.545481 -1.50092e-21)
(0.0293266 -0.0147274 2.89755e-32)
(-1.06036 0.589161 7.20629e-22)
(-1.17867 -0.660168 -1.46114e-20)
(-1.18883 0.373562 0)
(0.00387991 0.0310986 -2.2114e-20)
(-1.3851 -0.811471 -1.07373e-21)
(0.0687196 -0.0489376 -7.40068e-21)
(-1.57162 0.526968 0)
(-1.31694 0.535207 -8.74637e-21)
(-1.35239 -0.653747 7.58543e-21)
(0.0745511 -0.0218121 1.14418e-20)
(-1.36999 0.791757 1.06881e-20)
(0.0392856 -0.0243657 6.52247e-21)
(-1.62695 -0.54037 0)
(-0.687851 0.259316 4.49563e-21)
(-0.0629405 -0.0452359 -4.48359e-21)
(-0.768758 -0.32156 4.373e-21)
(-1.42052 -0.852709 2.25336e-21)
(0.0525638 -0.0213098 7.84886e-21)
(-1.56741 0.483973 2.22569e-21)
(-1.11051 0.178329 -7.20994e-21)
(-0.244122 0.201635 -4.52359e-21)
(-1.01516 -0.713098 0)
(-1.16044 -0.741535 0)
(-1.22364 0.304242 0)
(-0.0762733 0.0873978 0)
(0.00832472 -0.011747 0)
(-0.66394 -0.344743 2.61371e-21)
(-0.650489 0.332011 -2.02094e-21)
(-1.27706 -0.664604 1.75923e-22)
(0.0494163 -0.0288074 -9.41263e-21)
(-1.2703 0.611711 -7.76327e-22)
(-0.621777 0.218899 -1.15298e-20)
(-0.0860807 -0.0447027 1.07365e-20)
(-0.688839 -0.286419 5.13801e-21)
(-1.44983 -0.804699 7.62422e-21)
(-1.55915 0.550141 -3.20387e-21)
(0.0777009 -0.0332665 0)
(0.0595238 -0.0368403 -8.19808e-21)
(-1.59477 0.498457 0)
(-1.4037 -0.849482 -5.73007e-21)
(-1.44471 0.648077 -4.75532e-21)
(0.0899341 -0.0292003 2.49674e-20)
(-1.50909 -0.676663 0)
(0.00544424 -0.0699324 -1.87623e-20)
(-1.51459 -0.500996 5.71877e-21)
(-1.32033 0.746891 0)
(-0.782546 0.562355 -2.3973e-20)
(-1.04365 -0.135717 1.29389e-20)
(-0.464961 -0.406922 -4.10741e-21)
(-1.31609 -0.368276 2.03818e-21)
(-1.12713 0.69133 7.62025e-21)
(-0.125117 -0.1634 -1.15857e-20)
(0.00227438 -0.06277 -1.67715e-20)
(-1.3426 0.793444 0)
(-1.58615 -0.496119 0)
(-0.77753 0.433502 -3.98065e-21)
(-0.851987 0.477342 0)
(-0.920122 -0.247132 -1.42635e-20)
(-0.998965 -0.282708 1.52633e-20)
(-0.187782 -0.186437 2.05175e-21)
(-0.159663 -0.178068 -2.18628e-21)
(-0.721093 0.417775 3.8187e-21)
(-0.884878 -0.207268 0)
(-0.244542 -0.224102 3.90077e-21)
(-0.985114 0.636235 0)
(-1.18056 -0.281343 -1.23264e-20)
(-0.225119 -0.232109 2.68458e-21)
(-1.23351 -0.774484 -7.05771e-21)
(-1.30504 0.339147 6.24106e-21)
(-0.0435626 0.0617366 -1.74599e-20)
(-1.44311 -0.808891 0)
(-1.51726 0.535554 1.1692e-20)
(0.073925 -0.0214628 0)
(0.00873867 0.0275385 -5.66386e-21)
(-1.34784 0.401806 -3.69601e-21)
(-1.29676 -0.767798 -4.5386e-21)
(-1.20519 -0.552001 2.43822e-22)
(0.0347858 -0.0109452 5.03302e-21)
(-1.10848 0.615511 0)
(-0.497609 0.26312 7.74649e-21)
(-0.506391 0.251275 0)
(-0.283482 -0.21222 0)
(-0.676294 -0.124036 2.90315e-20)
(-0.241845 -0.182258 0)
(-0.662396 -0.14962 -1.85156e-20)
(-0.875491 0.56236 0)
(-0.793663 0.509679 0)
(-0.31206 -0.284371 2.2343e-23)
(-1.06858 -0.231028 8.09747e-21)
(-0.273917 -0.257113 1.97287e-20)
(-0.995617 -0.196218 -1.7336e-20)
(-1.11305 -0.668561 0)
(0.0433778 -0.0449186 1.06131e-20)
(-1.25821 0.523249 0)
(-1.45385 -0.795092 -5.08106e-21)
(-1.54649 0.555204 1.14042e-21)
(0.0806164 -0.029812 4.97334e-21)
(-0.572007 0.383245 -1.3746e-20)
(-0.513316 -0.408004 -9.19257e-21)
(-0.865792 -0.0660296 2.36537e-20)
(-1.16999 -0.790454 1.53956e-20)
(-1.26494 0.266774 1.6172e-20)
(-0.132745 0.124756 0)
(-0.0133354 -0.0840756 2.00632e-20)
(-1.49025 -0.479927 -6.08018e-21)
(-1.29563 0.744851 7.81412e-21)
(-1.38859 -0.704652 0)
(-1.40956 0.625866 0)
(0.0677393 -0.0331703 0)
(-1.40533 -0.730921 0)
(-1.44937 0.611402 2.01118e-21)
(0.0741884 -0.0390735 1.79641e-21)
(-1.05223 0.613651 -7.44395e-21)
(-1.21307 -0.361778 4.34753e-21)
(-0.10828 -0.151082 5.5097e-21)
(-0.333355 0.208058 -2.18653e-21)
(-0.547817 -0.369654 0)
(-0.707105 0.0255475 -1.31046e-22)
(-1.45966 0.665093 5.54077e-21)
(0.0901383 -0.0281026 1.44591e-20)
(-1.53171 -0.681466 -2.24589e-21)
(-1.20969 -0.699679 0)
(-1.23465 0.378202 0)
(0.000512351 0.0385525 1.90742e-20)
(0.0672297 -0.0432661 4.78145e-21)
(-1.43429 -0.595424 9.78319e-21)
(-1.33273 0.640976 1.73398e-20)
(-0.750507 0.492195 0)
(-0.362678 -0.318873 -1.3312e-20)
(-0.965779 -0.168841 8.96076e-21)
(-0.897687 0.166212 1.48624e-22)
(-0.840776 -0.535612 7.82091e-21)
(-0.182528 0.141867 0)
(-0.458035 0.279946 8.57663e-23)
(-0.44891 -0.334329 -2.70696e-21)
(-0.737171 -0.0560222 -9.70719e-21)
(0.0926641 -0.0279559 -7.80533e-24)
(-1.51842 -0.716751 4.91167e-21)
(-1.48397 0.645638 5.37533e-21)
(-1.23847 0.622588 -3.33058e-21)
(-1.36144 -0.522945 -3.17277e-21)
(0.0321821 -0.0640855 0)
(-0.410001 0.221676 -8.40083e-21)
(-0.358525 -0.248597 1.73411e-20)
(-0.639136 -0.0704022 -1.58449e-20)
(-1.35399 0.805391 4.55511e-21)
(0.0129086 -0.0489597 7.41219e-21)
(-1.61617 -0.50771 -3.05323e-21)
(-0.664723 0.348608 -4.87534e-21)
(-0.799675 -0.219403 0)
(-0.186855 -0.17615 0)
(-0.677119 0.154225 -2.11629e-20)
(-0.667821 -0.356667 4.85246e-21)
(-0.117588 0.0568106 0)
(-1.13949 -0.696788 0)
(-1.17668 0.306549 1.37207e-20)
(-0.0561555 0.0761989 0)
(-1.34388 0.750475 -1.84746e-21)
(0.0582676 -0.00660006 -2.29111e-21)
(-1.58222 -0.583619 1.12345e-21)
(-1.34069 0.769634 5.20866e-21)
(0.0513618 -0.00808099 0)
(-1.60395 -0.560964 -2.04599e-21)
(0.0564122 -0.0489394 4.2904e-21)
(-1.4551 -0.573726 -5.43625e-21)
(-1.33243 0.664961 -1.59936e-20)
(-0.931043 0.146924 -6.44899e-21)
(-0.868024 -0.579539 -7.84378e-21)
(-0.226325 0.171114 0)
(0.0546788 -7.55779e-05 2.09882e-21)
(-1.54353 -0.575473 -1.05823e-21)
(-1.28267 0.731839 0)
(0.0806041 -0.0210771 0)
(-1.39542 -0.684994 -5.6798e-21)
(-1.37389 0.54935 -1.98095e-21)
(0.0234497 -0.0297006 8.54285e-21)
(-0.922612 -0.575849 -9.77012e-22)
(-1.00846 0.446712 0)
(-0.90265 0.553435 3.9181e-22)
(-1.02609 -0.465973 0)
(0.0207273 -0.00829661 8.55132e-21)
(0.0138435 -0.0594218 -1.43135e-23)
(-1.56021 -0.516392 0)
(-1.34471 0.772962 0)
(0.0897365 -0.0306271 0)
(-1.49988 -0.736077 0)
(-1.50224 0.640116 6.14264e-21)
(-1.42013 0.710078 -5.0686e-21)
(-1.40102 0.693045 4.1001e-21)
(0.0727662 -0.0329584 -8.18021e-21)
(-1.55516 -0.615229 -9.31655e-22)
(0.0726331 -0.0364039 -1.33479e-20)
(-1.52531 -0.613063 1.9761e-21)
(-1.37722 0.520757 3.95315e-21)
(-1.38118 -0.709009 3.87934e-21)
(0.0743129 -0.014631 0)
(-0.192492 0.168051 0)
(-1.11655 -0.785527 0)
(-1.22529 0.225984 0)
(-0.479318 0.203842 0)
(-0.200122 -0.135248 -2.39284e-20)
(-0.601276 -0.159291 1.01646e-20)
(-1.3366 0.446629 1.16834e-20)
(-1.31281 -0.730114 1.52976e-21)
(0.0430198 0.007937 1.66819e-20)
(0.021408 0.0220563 1.08314e-20)
(-1.31568 0.418178 -1.62625e-20)
(-1.27925 -0.73628 -2.11985e-21)
(-1.31631 0.806974 5.82631e-21)
(-0.0284258 -0.0838416 8.02126e-21)
(-1.57079 -0.457509 8.71153e-21)
(-0.903242 0.589238 0)
(-1.1064 -0.234081 3.66751e-21)
(-0.280077 -0.266561 -1.93399e-20)
(-0.791692 0.482327 0)
(-0.965451 -0.21106 1.79449e-20)
(-0.269385 -0.254205 -4.3779e-23)
(-1.18614 0.422832 -1.62099e-20)
(-1.20714 -0.629926 2.00139e-21)
(0.040037 0.00162308 -9.67101e-21)
(-1.2194 0.41695 0)
(-1.2221 -0.657226 1.88628e-21)
(0.0327881 0.0100901 8.83166e-21)
(-0.364039 0.185086 0)
(-0.358679 -0.233216 -2.74143e-20)
(-0.592639 -0.0541986 8.92243e-21)
(-0.87679 0.505743 0)
(-1.02721 -0.28074 0)
(-0.170992 -0.191775 2.9458e-21)
(0.0365788 -0.0131992 -1.69769e-20)
(-1.39828 -0.869909 -1.25592e-20)
(-1.57203 0.461005 0)
(-1.47916 0.585895 1.71373e-21)
(0.071704 -0.0461962 0)
(-1.35544 -0.750789 1.10012e-21)
(-1.46543 0.551454 -4.88853e-22)
(0.0661477 -0.0518133 0)
(-1.3105 -0.747888 -2.84043e-21)
(-0.59128 0.35027 5.72584e-21)
(-0.329722 -0.264428 -2.89318e-21)
(-0.788933 -0.139593 -2.45527e-22)
(-1.31384 -0.687133 4.01031e-22)
(0.0592924 -0.0362471 1.44052e-20)
(-1.36635 0.601736 0)
(-1.28964 0.662731 1.40529e-20)
(0.036604 -0.060295 9.11458e-21)
(-1.42174 -0.537215 0)
(0.0552959 -0.0454646 -2.13694e-21)
(-1.24449 -0.708105 -6.36317e-22)
(-1.35699 0.557197 0)
(-0.494179 0.11004 1.44886e-20)
(-0.153162 -0.00617502 1.45119e-20)
(-0.508311 -0.212792 3.286e-23)
(-0.940475 0.405872 -2.4963e-21)
(-1.02144 -0.427885 -2.28545e-21)
(-0.00358544 -0.0584895 -1.01784e-20)
(-0.793614 -0.547307 1.78671e-20)
(-0.891871 0.110608 1.55452e-20)
(-0.279779 0.205073 0)
(0.0705266 -0.0430345 0)
(-1.40826 -0.817244 -1.60886e-21)
(-1.57581 0.532207 0)
(-1.18872 -0.716112 0)
(-1.23236 0.353181 0)
(-0.0231025 0.0534466 0)
(0.0345299 -0.0356067 0)
(-1.37593 0.788036 -3.76829e-21)
(-1.61802 -0.53716 3.00205e-21)
(-1.01496 0.43963 0)
(-1.08471 -0.468302 1.16807e-21)
(0.0157032 -0.0503045 9.94672e-21)
(-0.44685 0.176149 0)
(-0.202622 -0.122696 2.05574e-20)
(-0.561419 -0.147814 0)
(-1.44458 -0.801211 -7.19937e-21)
(-1.55101 0.567827 3.04894e-21)
(0.0795865 -0.0389357 0)
(0.0840885 -0.0309949 -9.94669e-21)
(-1.4315 -0.656554 3.59493e-22)
(-1.37276 0.604123 4.45978e-22)
(-1.39325 0.719292 0)
(-1.37187 0.712715 2.72472e-21)
(0.0705266 -0.0131747 -5.29385e-21)
(0.0688369 -0.0123891 -6.50168e-21)
(-1.55045 -0.627825 -9.96252e-22)
(-1.52676 -0.635077 8.19626e-22)
(-0.908124 0.272053 0)
(-0.918508 -0.505658 3.06592e-20)
(-0.0463709 0.0391734 1.08559e-20)
(-1.11508 -0.623338 2.05104e-20)
(-1.12437 0.338528 0)
(-0.0108316 0.0390849 -1.17445e-20)
(-0.625464 0.172145 -1.1928e-20)
(-0.652266 -0.309613 8.32827e-21)
(-0.0911404 0.00760352 1.75401e-20)
(-1.39408 -0.778859 3.32805e-21)
(-1.52528 0.57481 2.41559e-21)
(-1.37266 -0.793267 -1.44534e-21)
(0.0753705 -0.0460431 0)
(-1.54118 0.547745 -2.32829e-21)
(0.0705406 -0.0500135 0)
(-1.16463 0.506881 0)
(-1.23212 -0.552126 0)
(0.0497419 -0.0378894 1.09267e-20)
(-1.53827 0.58676 4.45919e-21)
(-1.52757 0.588832 -8.00771e-21)
(-1.45849 -0.779664 2.17734e-21)
(-1.43728 -0.76974 -6.25726e-21)
(0.0834029 -0.0381304 1.45692e-20)
(0.08075 -0.0405183 -7.23668e-24)
(-1.07408 0.312834 0)
(-1.06702 -0.62092 -1.94038e-20)
(-0.0445043 0.062451 1.52309e-20)
(-0.841595 0.301974 1.10783e-20)
(-0.946042 -0.440953 -1.38529e-20)
(-0.00526477 -0.0223243 0)
(-1.37678 0.776546 0)
(0.0516031 -0.0176979 0)
(-1.61426 -0.568502 1.96736e-21)
(-0.922983 0.302691 8.1587e-21)
(-0.945645 -0.490634 -8.53142e-21)
(-0.0218147 0.0190073 -1.79638e-20)
(-0.700729 0.213573 4.77487e-21)
(-0.737733 -0.358703 -9.77877e-21)
(-0.0644657 0.00266144 1.0089e-20)
(-1.37126 0.738162 0)
(0.0654666 -0.0112028 0)
(-1.5802 -0.609431 -2.8005e-21)
(-1.03827 0.472853 0)
(-1.13147 -0.455698 2.34827e-21)
(0.0137301 -0.0649459 -1.09109e-20)
(-0.993408 -0.722218 0)
(-1.10371 0.155371 0)
(-0.293292 0.238941 -5.81816e-22)
(-0.754591 0.510106 -6.17709e-22)
(-0.984421 -0.150638 0)
(-0.399155 -0.349653 2.0385e-20)
(-1.30904 -0.864312 7.7529e-21)
(-0.0499694 0.0568133 0)
(-1.43568 0.35582 0)
(0.0161725 -0.0163743 -2.05498e-20)
(-0.876536 -0.461546 -3.65612e-21)
(-0.858427 0.4433 2.8279e-21)
(-0.97069 0.36413 0)
(-1.00757 -0.477126 8.47668e-21)
(0.00982678 -0.0185471 -9.14241e-21)
(-1.40947 0.749825 7.50069e-21)
(0.0642238 -0.0250355 2.76008e-20)
(-1.59437 -0.595174 0)
(-0.584504 -0.485377 -5.43686e-21)
(-0.990975 -0.0661917 -8.61573e-21)
(-0.655726 0.48083 -5.41831e-21)
(-1.06721 0.634779 0)
(0.0369169 -0.00211651 -7.63576e-21)
(-1.27513 -0.539124 0)
(-0.23289 0.139804 1.08264e-20)
(-0.262308 0.166836 -1.10611e-20)
(-0.580311 -0.362456 0)
(-0.675129 0.0680936 1.01608e-20)
(-0.617799 -0.401001 -1.75854e-20)
(-0.720585 0.062242 -8.12073e-21)
(-0.612432 0.139535 1.12311e-20)
(-0.609609 -0.304805 1.11041e-20)
(-0.12063 0.0371624 0)
(-0.343921 0.20123 9.65103e-21)
(-0.281597 0.163639 0)
(-0.471391 -0.316963 -9.83402e-21)
(-0.658505 -0.0102388 9.0952e-21)
(-0.496607 -0.315323 9.91066e-21)
(-0.636937 0.0213384 4.95448e-23)
(-0.911899 0.34221 6.96564e-22)
(-0.879805 -0.426197 -6.10048e-21)
(-0.0253066 -0.00545468 -1.23433e-20)
(-0.845363 0.282868 -1.90459e-20)
(-0.882788 -0.443104 1.5977e-22)
(-0.033478 0.0110939 0)
(0.0655103 -0.0553832 0)
(-1.30987 -0.777737 0)
(-1.51233 0.534496 1.37409e-21)
(-0.6523 0.373668 -5.27974e-21)
(-0.819882 -0.175945 0)
(-0.266315 -0.228974 5.3538e-21)
(-1.52059 0.610119 -1.00965e-20)
(-1.48587 -0.763274 3.22764e-21)
(0.0892606 -0.0324088 -8.3122e-21)
(-1.22312 0.468027 0)
(-1.28072 0.494346 8.40643e-21)
(-1.25743 -0.624054 -2.49652e-21)
(-1.30859 -0.650232 7.43985e-21)
(0.057426 -0.0115717 -1.19833e-20)
(0.0661297 -0.0137449 -1.1041e-20)
(-0.623915 0.339827 0)
(-0.779982 -0.185867 0)
(-0.234798 -0.204739 2.56315e-21)
(-0.955017 0.578223 6.01835e-21)
(-1.12109 -0.292156 0)
(-0.185383 -0.200843 6.40397e-21)
(-1.11086 0.436572 -4.5971e-21)
(-1.15898 -0.56087 0)
(0.0418717 -0.0168529 0)
(-0.345832 0.100679 1.11307e-20)
(-0.469992 -0.0878257 -5.48324e-21)
(-0.251965 -0.12431 5.58756e-21)
(-1.29503 0.455973 0)
(-1.29325 -0.693198 0)
(0.0493975 0.00217067 -1.77441e-20)
(-0.446722 0.205143 0)
(-0.2513 -0.171527 3.01443e-21)
(-0.601342 -0.124309 0)
(-1.07508 0.339926 -1.06486e-20)
(-1.07469 -0.597414 -1.0899e-20)
(-0.00923476 0.031158 -1.52923e-21)
(-0.945831 0.548419 6.12671e-21)
(-1.09971 -0.311113 0)
(-0.14814 -0.178509 1.32384e-20)
(-0.369915 0.134664 -1.10323e-20)
(-0.347175 0.135855 -4.8823e-21)
(-0.512278 -0.100241 5.40626e-21)
(-0.253621 -0.144551 -1.10773e-20)
(-0.524968 -0.0756891 0)
(-0.294919 -0.176041 -1.96908e-20)
(-0.309534 0.154002 -4.86419e-21)
(-0.400124 -0.252168 1.28245e-20)
(-0.279235 0.148561 3.12584e-21)
(-0.578413 -0.0204436 -1.23417e-20)
(-0.476427 -0.296919 -6.23361e-21)
(-0.610608 0.0151158 2.7394e-22)
(-0.751061 0.401803 5.78125e-21)
(-0.814977 0.421183 0)
(-0.884653 -0.256641 1.07256e-20)
(-0.931826 -0.297912 -8.38113e-21)
(-0.158848 -0.164345 -1.19292e-20)
(-0.111537 -0.135244 1.98358e-20)
(0.024843 -0.0619944 0)
(-1.4886 -0.526234 -3.25522e-21)
(-1.32308 0.715773 -7.90766e-21)
(-0.328011 0.261934 7.09156e-21)
(-1.03893 0.121858 9.87032e-21)
(-0.919337 -0.674247 -1.82266e-20)
(0.0429239 -0.049796 -9.35592e-21)
(0.0583581 -0.0445371 7.47892e-21)
(-1.51935 -0.559435 2.81862e-21)
(-1.50264 -0.581856 4.97487e-21)
(-1.35693 0.724208 1.99234e-20)
(-1.36812 0.69926 -1.03108e-20)
(-0.486019 0.35343 1.00332e-20)
(-0.655397 -0.499568 -8.73594e-21)
(-0.896248 0.00112557 2.34876e-21)
(-0.33115 0.0430125 1.89168e-20)
(-0.252832 -0.0711656 0)
(-0.394022 -0.0809535 -1.88054e-20)
(-1.32055 0.489626 -3.92596e-21)
(-1.32778 -0.687954 -8.40825e-21)
(0.063783 -0.0079297 0)
(-0.549502 0.295868 0)
(-0.276824 -0.225914 -2.44186e-21)
(-0.721735 -0.141709 -9.40693e-21)
(-0.987642 0.563316 0)
(-1.1375 -0.337877 0)
(-0.118508 -0.157936 -1.23156e-20)
(-1.25605 0.712343 -8.90539e-21)
(-1.24826 0.684274 0)
(-1.43348 -0.471267 1.94087e-21)
(-0.0205606 -0.0919381 -1.15478e-20)
(-1.40858 -0.482312 -5.27856e-21)
(-0.00457879 -0.0838974 1.56446e-20)
(-1.21639 0.510429 8.58047e-21)
(-1.27776 -0.58438 8.0738e-21)
(0.061919 -0.0297207 6.51328e-21)