/*--------------------------------*- C++ -*----------------------------------*\
  =========                 |
  \\      /  F ield         | OpenFOAM: The Open Source CFD Toolbox
   \\    /   O peration     | Website:  https://openfoam.org
    \\  /    A nd           | Version:  6
     \\/     M anipulation  |
\*---------------------------------------------------------------------------*/
FoamFile
{
    version     2.0;
    format      ascii;
    class       surfaceScalarField;
    location    "0";
    object      Phi_rec;
}
// * * * * * * * * * * * * * * * * * * * * * * * * * * * * * * * * * * * * * //

dimensions      [0 3 -1 0 0 0 0];

internalField   nonuniform List<scalar> 
17780
(
0.00130037
0.000955599
0.000924475
0.000581254
0.000593766
0.000297667
0.000434278
0.000165127
0.000345075
9.93676e-05
0.000291735
6.00025e-05
0.000257646
4.55548e-05
0.000233357
2.21174e-05
0.000216437
1.38851e-05
0.000205473
6.08869e-06
0.000197662
1.64983e-05
0.000190779
1.56262e-05
0.000186854
1.3747e-05
0.000186193
1.3384e-05
0.000184503
2.60046e-06
0.000181784
-3.02155e-06
0.000179526
-5.57843e-06
0.000178309
1.15576e-06
0.00017857
7.46924e-06
0.000179693
1.34848e-05
0.000179841
9.73669e-06
0.000179026
1.05333e-05
0.000178707
6.59962e-06
0.000178634
7.95036e-06
0.000179381
9.46109e-06
0.000178791
5.4153e-06
0.000177677
-1.42473e-06
0.000178793
3.66331e-07
0.00017842
-8.75969e-06
0.000178434
-4.20232e-06
0.00017937
-2.73903e-06
0.000178665
-9.25305e-06
0.000178455
-1.14859e-05
0.000177749
-1.06808e-05
0.000177006
-6.34968e-06
0.000177522
-3.36378e-06
0.000178464
-4.34087e-07
0.000179593
-3.92017e-06
0.000180834
-3.87092e-06
0.00018197
-1.98888e-06
0.000181795
-3.79448e-06
0.000181972
-8.14785e-06
0.000183834
-5.33366e-06
0.00018747
-6.90807e-06
0.000192348
-1.13272e-05
0.000198748
-2.06969e-05
0.000213877
-2.63527e-05
0.00024971
-3.48387e-05
0.00033694
-9.60754e-05
-0.000296387
0.000570155
0.00219193
0.00128746
0.00183825
0.00106981
0.00141998
0.000690731
0.00113933
0.000434754
0.000951299
0.00028127
0.000825548
0.000184561
0.000738029
0.000129669
0.000675263
7.91418e-05
0.000633606
5.6966e-05
0.000605497
3.79161e-05
0.000581897
3.6513e-05
0.000561662
2.75496e-05
0.000548364
2.35039e-05
0.000542048
2.50492e-05
0.000537982
9.379e-06
0.000534582
1.52791e-06
0.000531252
-1.70852e-06
0.000528377
1.23929e-06
0.000526709
1.14413e-05
0.000526706
1.57316e-05
0.00052671
1.74988e-05
0.00052465
1.1095e-05
0.000524148
9.85837e-06
0.000525042
1.30807e-05
0.000524709
1.47278e-05
0.000522165
3.12641e-06
0.000521059
-8.64584e-07
0.000522846
-4.60691e-06
0.000523648
-1.63835e-05
0.000524376
-6.51574e-06
0.000523558
-8.84838e-06
0.000522772
-1.16459e-05
0.000524335
-1.38965e-05
0.000523434
-1.40204e-05
0.000522455
-6.80852e-06
0.000523148
-9.6545e-07
0.000524782
-3.73026e-07
0.000528836
8.27652e-07
0.00053219
-5.90388e-06
0.000534051
-1.86743e-06
0.000535442
-7.84105e-06
0.000539066
-1.63047e-05
0.000544396
-1.8043e-05
0.000552419
-2.29623e-05
0.000567652
-2.89565e-05
0.000593093
-4.53062e-05
0.000634457
-6.66423e-05
0.000705083
-0.000115989
0.000838256
-0.000227515
-0.00049304
0.00101976
0.00247527
0.0011723
0.00229269
0.00129604
0.00196026
0.00100695
0.00167306
0.000708696
0.00145233
0.000497681
0.00128995
0.000347719
0.00116818
0.000239548
0.00108026
0.000170159
0.0010207
0.000126184
0.000979577
9.26044e-05
0.000943598
6.74525e-05
0.000912569
4.33917e-05
0.000893099
3.98888e-05
0.000881342
3.55889e-05
0.000872644
1.77679e-05
0.000866874
9.13458e-06
0.000863896
7.41211e-06
0.000861647
4.16385e-06
0.000858551
1.32928e-05
0.000856556
1.08525e-05
0.000854799
1.81064e-05
0.000852906
6.12971e-06
0.000854013
1.05969e-05
0.000852615
1.20286e-05
0.000849402
1.19684e-05
0.000848542
1.66263e-06
0.000846709
-4.61102e-06
0.000848111
-7.43839e-06
0.000851501
-1.73461e-05
0.000851674
-1.01077e-05
0.000849666
-8.8925e-06
0.00084851
-9.6303e-06
0.000851826
-7.89653e-06
0.000853631
-1.13149e-05
0.000851835
-7.55241e-06
0.000851917
2.71789e-06
0.000854668
4.22462e-07
0.000859723
3.26479e-06
0.000864636
-6.25594e-06
0.000866712
-5.71115e-06
0.00086999
-1.44704e-05
0.000878616
-2.13586e-05
0.000889523
-3.17092e-05
0.000904494
-4.01714e-05
0.000927741
-5.49856e-05
0.00096504
-8.19748e-05
0.00102367
-0.000124214
0.00111153
-0.000215317
0.0012431
-0.000359462
-0.000649157
0.00137788
0.00256005
0.00100265
0.00250948
0.00136421
0.00229177
0.0012169
0.00205653
0.000941308
0.00184612
0.000701292
0.00167615
0.000513431
0.00154546
0.000374616
0.00144694
0.000277998
0.00137425
0.000210265
0.00131989
0.000156257
0.00127676
0.000111463
0.00124419
7.53916e-05
0.00121876
6.4476e-05
0.00119914
4.59246e-05
0.00118923
2.8296e-05
0.00118371
1.836e-05
0.00117855
1.10895e-05
0.00117535
5.9454e-06
0.00117191
1.41869e-05
0.00116814
1.12469e-05
0.0011645
1.34798e-05
0.00116323
2.00509e-06
0.00116481
7.29467e-06
0.00116215
5.36537e-06
0.00115714
5.75816e-06
0.00115423
1.15354e-06
0.00115243
-7.02979e-06
0.00115602
-1.50036e-06
0.00116127
-1.03622e-05
0.00116211
-1.03684e-05
0.00116049
-1.58887e-06
0.00115924
-3.11311e-06
0.00116206
-8.62402e-07
0.00116491
-5.75181e-06
0.00116452
-4.95295e-06
0.00116431
1.67786e-06
0.00116585
-4.42599e-06
0.00117131
-2.44036e-06
0.00117905
-1.27531e-05
0.00118324
-1.59192e-05
0.00118748
-2.79869e-05
0.00119894
-3.2184e-05
0.00121445
-4.75476e-05
0.00123466
-6.48033e-05
0.00126606
-9.2351e-05
0.00131079
-0.00013115
0.00137581
-0.000192596
0.00146781
-0.000304963
0.00158431
-0.000474675
-0.000758316
0.00168295
0.00257189
0.000848044
0.00260503
0.00134583
0.00248941
0.00132287
0.00232031
0.00110616
0.00214486
0.000865465
0.00199151
0.000667148
0.00186832
0.000513825
0.00176781
0.000383832
0.00168951
0.000295356
0.00163094
0.000222627
0.00158455
0.000161172
0.00154919
0.000117506
0.00152024
9.00743e-05
0.00149809
5.95495e-05
0.00148617
4.32889e-05
0.00147863
3.00083e-05
0.00147378
1.65216e-05
0.00147009
1.27298e-05
0.00146498
1.77683e-05
0.00146096
1.65106e-05
0.0014575
1.16576e-05
0.00145666
2.92784e-06
0.00145765
3.91836e-06
0.0014534
-7.50298e-07
0.00144649
1.62746e-08
0.00144499
4.8323e-06
0.00144509
-3.52989e-06
0.00144634
1.64777e-06
0.00145247
-5.5897e-07
0.00145524
-6.74195e-06
0.00145244
2.63143e-06
0.00144999
1.60559e-06
0.00145213
8.16346e-06
0.00145773
6.40508e-06
0.00145935
4.37271e-06
0.00145725
-1.91083e-06
0.00145937
-7.47125e-06
0.00146646
-8.64829e-06
0.00147431
-2.19591e-05
0.00148045
-2.83807e-05
0.00148811
-3.94016e-05
0.00150191
-5.00107e-05
0.00152067
-6.85903e-05
0.00154491
-9.81508e-05
0.00157906
-0.000137091
0.00162697
-0.00018626
0.00169446
-0.000257109
0.00178114
-0.000378384
0.00187655
-0.000564653
-0.000831018
0.00194728
0.00256274
0.000716673
0.00263771
0.00127576
0.00259677
0.00135097
0.00249396
0.00120459
0.00237017
0.000995594
0.00224743
0.000802773
0.00213642
0.000629465
0.0020445
0.000481397
0.00196966
0.000372635
0.00190881
0.000282177
0.00186324
0.00020885
0.00182907
0.000157127
0.0017979
0.000113886
0.00177441
7.85397e-05
0.00176249
6.03059e-05
0.00175412
4.25383e-05
0.00175029
2.65244e-05
0.00174963
2.63259e-05
0.00174289
2.31763e-05
0.00173316
1.47874e-05
0.00172821
1.17913e-05
0.00172887
5.51232e-06
0.00173076
4.91313e-07
0.00172796
-1.78785e-06
0.00172104
-4.60899e-06
0.00171805
7.09957e-06
0.00171824
4.0046e-07
0.00171908
-1.73952e-07
0.00172554
5.09229e-06
0.00173147
1.38558e-06
0.00172892
4.25934e-06
0.0017246
3.17835e-06
0.0017268
1.4105e-05
0.00173108
1.45488e-05
0.00173047
6.77736e-06
0.0017305
-4.63707e-06
0.00173448
-6.5626e-06
0.00174176
-1.39968e-05
0.00175204
-2.34008e-05
0.00175996
-3.75253e-05
0.00176904
-4.64159e-05
0.00178391
-6.58041e-05
0.00180291
-8.86509e-05
0.00183063
-0.000125654
0.0018711
-0.000172231
0.00192015
-0.000235661
0.00198154
-0.000319252
0.00205825
-0.000444398
0.00213448
-0.000634424
-0.000885614
0.00218175
0.00254465
0.000608102
0.00263973
0.00117649
0.00265296
0.001325
0.00261049
0.00124976
0.00253622
0.00108605
0.0024448
0.000896246
0.00235573
0.000715781
0.00227945
0.00056134
0.00221306
0.000432239
0.00215803
0.000328407
0.00211561
0.00024749
0.00208111
0.000186574
0.00205206
0.000135462
0.00203205
0.00010089
0.00201922
7.34054e-05
0.00201049
5.13111e-05
0.00200792
3.33532e-05
0.00200445
3.05562e-05
0.00199584
2.18846e-05
0.00198859
1.6877e-05
0.00198471
1.03229e-05
0.00198392
5.96299e-06
0.00198465
-1.25839e-06
0.00198429
-1.88775e-06
0.00197859
-6.74673e-06
0.00197302
-4.07329e-07
0.00197436
5.42697e-06
0.00197626
-3.70923e-08
0.0019809
1.47501e-06
0.00198633
5.26742e-06
0.00198623
1.91001e-06
0.00198467
6.65689e-06
0.00198361
8.52399e-06
0.00198409
8.89326e-06
0.00198507
-7.87685e-07
0.00198691
-7.69021e-06
0.00199113
-1.09223e-05
0.00199826
-2.127e-05
0.00200983
-2.41274e-05
0.00202011
-4.02251e-05
0.00202986
-5.88612e-05
0.0020456
-7.98982e-05
0.00206637
-0.000109894
0.00209502
-0.000150241
0.00213622
-0.000200206
0.00218587
-0.000277842
0.00224102
-0.000375654
0.0023017
-0.000508771
0.0023582
-0.000693032
-0.000922959
0.00238945
0.00252917
0.000521084
0.00263132
0.00106851
0.00268165
0.00126261
0.00268524
0.00124331
0.00265311
0.00112055
0.00259617
0.000940505
0.00253326
0.000771134
0.00247546
0.000618657
0.0024214
0.000476153
0.00237567
0.000365221
0.00234036
0.000277088
0.00231092
0.000211484
0.00228463
0.000156095
0.00226554
0.000118456
0.00225392
8.72938e-05
0.00224724
6.02658e-05
0.00224661
3.89882e-05
0.00224272
2.89306e-05
0.00223263
1.39122e-05
0.00222488
2.03325e-05
0.00221922
8.90591e-06
0.00221874
1.0017e-05
0.00222228
4.93739e-06
0.00222235
-6.2818e-06
0.00221757
-8.4259e-06
0.00221207
-1.13858e-05
0.00221186
2.6346e-06
0.00221543
-1.06512e-06
0.00222081
-4.11787e-06
0.00222499
-3.05651e-06
0.00222432
-6.65552e-06
0.00222218
1.34118e-06
0.00222126
-1.63138e-06
0.00222084
3.47675e-08
0.0022215
-4.96327e-06
0.00222508
-1.04305e-05
0.00223052
-1.76035e-05
0.00223824
-2.74039e-05
0.00224946
-3.10945e-05
0.0022604
-4.52492e-05
0.00227209
-7.44758e-05
0.00228828
-9.55461e-05
0.00230823
-0.000133099
0.00233599
-0.000177684
0.002375
-0.000230267
0.00242082
-0.000315062
0.00247075
-0.00041825
0.00252053
-0.000559926
0.0025595
-0.000738901
-0.000948322
0.00257561
0.00251223
0.000446123
0.00261693
0.000957854
0.00269485
0.0011783
0.00273344
0.00119841
0.00273413
0.00110967
0.00271016
0.000953771
0.00267502
0.00080012
0.00263692
0.000654457
0.00260038
0.000515563
0.00256813
0.000398679
0.0025409
0.000301429
0.00251727
0.000235017
0.00249557
0.000174725
0.00247831
0.000129655
0.00246794
0.000102369
0.00246305
7.27085e-05
0.00246293
5.02013e-05
0.00246145
3.13146e-05
0.0024531
1.26676e-05
0.00244319
1.44707e-05
0.00243882
1.39261e-05
0.00243868
1.73469e-05
0.00243931
9.23074e-06
0.00244023
-1.00508e-05
0.00243866
-1.1372e-05
0.00243475
-1.78086e-05
0.00243107
-7.39636e-06
0.00243198
-7.63274e-06
0.00243873
-3.87599e-06
0.00244508
-1.09569e-05
0.00244617
-1.30233e-05
0.00244282
-1.28026e-05
0.00244007
-1.01241e-05
0.00244054
-6.48233e-06
0.00244261
-4.92285e-06
0.00244492
-1.22966e-05
0.00245071
-1.8825e-05
0.00246106
-2.99454e-05
0.00247059
-4.19119e-05
0.00247931
-5.71999e-05
0.00249224
-8.59014e-05
0.00250911
-0.000110984
0.00253032
-0.000153932
0.00255691
-0.000201795
0.0025913
-0.000265
0.00263272
-0.000347234
0.00267344
-0.000459859
0.00271185
-0.000596006
0.00273998
-0.000768704
-0.000962732
0.00274471
0.00249887
0.000378037
0.00260056
0.000848833
0.0026942
0.00108155
0.00275943
0.00113519
0.00279163
0.00107336
0.00280051
0.000947539
0.00279153
0.000805854
0.00277121
0.00066671
0.00275022
0.000538761
0.0027328
0.000423999
0.00271753
0.000322219
0.00270062
0.000251277
0.00268409
0.000188048
0.00267214
0.000138417
0.00266245
0.000106888
0.00265809
8.19681e-05
0.00265982
6.22166e-05
0.00265979
3.66117e-05
0.00265479
1.95518e-05
0.00264732
1.16823e-05
0.00264146
1.94246e-05
0.00263644
1.91794e-05
0.00263561
7.2031e-06
0.00263919
-4.60385e-06
0.00263851
-1.24696e-05
0.00263633
-1.69815e-05
0.00263502
-9.13275e-06
0.00263464
-6.14485e-06
0.00263918
-5.87626e-06
0.00264588
-9.71506e-06
0.00264799
-1.53755e-05
0.00264648
-2.04799e-05
0.00264627
-1.50654e-05
0.00264463
-1.31543e-05
0.0026422
-1.01987e-05
0.00264521
-1.32283e-05
0.00265306
-1.73021e-05
0.00266319
-3.05729e-05
0.00267224
-4.94337e-05
0.00268167
-6.85276e-05
0.00269538
-9.27875e-05
0.00271046
-0.000128464
0.00272938
-0.000175318
0.00275472
-0.000226996
0.00278551
-0.000298205
0.00281996
-0.000380994
0.00285232
-0.000497343
0.00287981
-0.00062875
0.00289805
-0.000788422
-0.000964395
0.00289648
0.00248889
0.000323854
0.0025888
0.00075145
0.00269305
0.000980319
0.0027767
0.00105462
0.00283177
0.00101464
0.00286604
0.000917227
0.00288219
0.000786759
0.00288343
0.000656527
0.00287755
0.000536631
0.00287333
0.000427333
0.00287072
0.000331781
0.00286154
0.000258309
0.00285221
0.000195522
0.00284587
0.000139861
0.00283909
0.000100532
0.00283491
8.09978e-05
0.00283528
6.23161e-05
0.00283793
4.31312e-05
0.00283744
2.55781e-05
0.00283297
1.40921e-05
0.00282529
1.69061e-05
0.00281614
1.48303e-05
0.00281463
5.68883e-06
0.00281986
2.6775e-06
0.00282185
-1.18289e-05
0.00282063
-1.34732e-05
0.00281846
-6.95183e-06
0.00281823
-1.6915e-06
0.00282163
-9.63128e-06
0.00282698
-5.75328e-06
0.0028312
-1.43882e-05
0.00283235
-1.69194e-05
0.00283171
-1.52743e-05
0.00283005
-1.891e-05
0.00282891
-1.7617e-05
0.00283006
-1.87425e-05
0.00283458
-2.53946e-05
0.00284489
-3.45507e-05
0.00285557
-5.20101e-05
0.00286442
-7.80272e-05
0.00287575
-0.000102101
0.00288942
-0.000146471
0.0029074
-0.000193691
0.0029296
-0.000250823
0.00295587
-0.000319984
0.00298504
-0.000408409
0.00301131
-0.000517321
0.00302956
-0.000654325
0.0030377
-0.000799134
-0.000958923
0.00302952
0.00248233
0.000277546
0.00257841
0.000658314
0.00268783
0.000876217
0.00278426
0.000950329
0.00285907
0.000934531
0.00291579
0.000861168
0.00295342
0.000743245
0.00297439
0.000625479
0.00298541
0.000512212
0.00299394
0.000408991
0.00300135
0.000322488
0.00300101
0.000252169
0.00299739
0.000193013
0.00299761
0.000136491
0.00299745
9.61032e-05
0.00299493
7.63153e-05
0.00299523
5.70168e-05
0.00299815
4.42994e-05
0.00299971
2.6896e-05
0.0029976
1.4175e-05
0.002989
1.00689e-05
0.00297908
8.4505e-06
0.00297718
5.21852e-06
0.00298083
4.47605e-06
0.00298467
-6.07972e-06
0.00298862
-5.02786e-06
0.00298628
-7.79662e-06
0.00298213
-4.54497e-06
0.00298588
-5.18348e-06
0.0029918
-4.71542e-06
0.00299619
-8.56934e-06
0.00299878
-1.08669e-05
0.00299875
-1.44169e-05
0.00299746
-2.33882e-05
0.00299571
-2.56241e-05
0.00299667
-3.05354e-05
0.00300111
-3.86358e-05
0.00300894
-4.11824e-05
0.00301879
-5.80381e-05
0.0030268
-8.75687e-05
0.00303493
-0.000115306
0.00304735
-0.00015746
0.00306459
-0.000204531
0.00308468
-0.000263012
0.00310712
-0.000335418
0.00312891
-0.000424256
0.00314632
-0.000527969
0.00315822
-0.000663252
0.00315965
-0.000794874
-0.000945031
0.00314461
0.00247649
0.000232819
0.00256859
0.000565816
0.00268103
0.000767385
0.00278881
0.000840234
0.00287837
0.00083827
0.00295089
0.000781537
0.00300787
0.000676279
0.00304729
0.000573016
0.00307301
0.00046918
0.00309602
0.000379633
0.00311565
0.000301762
0.00312062
0.000233717
0.00312089
0.000182884
0.00312819
0.000135743
0.00313487
9.71492e-05
0.00313653
7.75437e-05
0.003138
5.37508e-05
0.0031401
4.17408e-05
0.00314179
2.42015e-05
0.00314206
1.17314e-05
0.00313535
8.39259e-07
0.00312496
-7.12678e-07
0.00312128
2.32345e-06
0.00312496
7.90146e-06
0.00313142
7.53455e-06
0.00313494
5.03603e-06
0.00313163
-6.33865e-06
0.00313046
-3.67435e-06
0.00313414
2.34285e-06
0.00313809
-1.539e-06
0.00314286
-1.8845e-06
0.00314463
-6.74254e-06
0.00314397
-1.42451e-05
0.0031442
-2.28704e-05
0.00314315
-3.12294e-05
0.0031443
-3.64239e-05
0.00315001
-4.24973e-05
0.00315664
-4.62432e-05
0.00316259
-6.79482e-05
0.00316864
-9.41834e-05
0.00317626
-0.000124549
0.00318765
-0.000163128
0.00320308
-0.000210816
0.0032197
-0.000269745
0.00323707
-0.000345825
0.00325175
-0.000433749
0.00326181
-0.000535399
0.003268
-0.000656173
0.00326343
-0.000780594
-0.000920952
0.00324257
0.00247422
0.00019107
0.00256199
0.000477787
0.00267322
0.000652377
0.00279022
0.000734181
0.00289164
0.000732065
0.00297611
0.00068057
0.00304917
0.000599495
0.00310488
0.000507109
0.00314624
0.000418323
0.00318139
0.00034177
0.0032098
0.000275895
0.00322411
0.000212857
0.00323113
0.000168226
0.00324338
0.000130939
0.00325439
9.87499e-05
0.00325771
7.4995e-05
0.00325952
4.74378e-05
0.00326274
3.84407e-05
0.00326607
2.20796e-05
0.00326779
6.64687e-06
0.00326281
-4.8292e-06
0.00325393
-1.11482e-05
0.00325087
-4.63339e-07
0.00325384
1.16282e-05
0.00325757
1.43521e-05
0.00326069
7.21492e-06
0.00326141
-2.32484e-06
0.00325978
-4.09955e-06
0.00326187
4.32001e-06
0.00326679
7.98787e-06
0.00327017
3.16568e-06
0.00327142
-1.77203e-06
0.00327174
-1.30472e-05
0.00327255
-1.99812e-05
0.00327244
-2.94356e-05
0.00327614
-3.17007e-05
0.00328134
-4.06013e-05
0.00328305
-5.26357e-05
0.0032871
-7.62303e-05
0.00329363
-0.000101183
0.00329967
-0.00013349
0.0033083
-0.000168758
0.00332016
-0.000215892
0.00333264
-0.000276124
0.00334669
-0.00034768
0.0033566
-0.000434984
0.00336053
-0.000538687
0.00336065
-0.00064224
0.00334961
-0.000764294
-0.000893237
0.00332466
0.00247249
0.000150353
0.00255788
0.000389898
0.00266878
0.000535459
0.00278755
0.000614252
0.00289621
0.000614592
0.00299183
0.000569918
0.00307982
0.000519006
0.00315241
0.00043794
0.00320696
0.000361522
0.00325201
0.000295019
0.00328984
0.000240997
0.0033127
0.000187006
0.0033237
0.000144227
0.00333925
0.000116057
0.00335391
9.73443e-05
0.00335952
6.35997e-05
0.00336466
4.38411e-05
0.00336823
3.05489e-05
0.00337022
1.75146e-05
0.00337309
1.62264e-06
0.00337226
-2.8655e-06
0.00336829
-1.28765e-05
0.00336638
-6.51069e-07
0.00336584
9.30695e-06
0.00336549
3.48694e-06
0.0033677
2.07891e-06
0.00337019
-5.16114e-06
0.0033719
-5.42258e-06
0.00337348
3.89134e-06
0.00337607
1.22173e-05
0.00337928
6.91919e-06
0.00338023
-1.31076e-06
0.00338036
-1.25642e-05
0.00338171
-2.3531e-05
0.00338346
-2.63318e-05
0.00338679
-3.29416e-05
0.00338997
-4.11729e-05
0.00339115
-6.2473e-05
0.00339437
-8.32997e-05
0.0033986
-0.000110123
0.0034031
-0.000144156
0.00341055
-0.000176091
0.00341909
-0.00022168
0.00342744
-0.000279391
0.00343651
-0.000346401
0.0034423
-0.000432135
0.00344227
-0.000535242
0.00343591
-0.000630661
0.00342008
-0.000745581
-0.000866427
0.00339127
0.00247232
0.000116404
0.00255523
0.000301874
0.00266573
0.000423211
0.00278449
0.000484769
0.00289925
0.000491066
0.00300758
0.000464907
0.00310406
0.000425182
0.00318583
0.000362545
0.00325404
0.000297068
0.00331031
0.00024067
0.00335392
0.00019595
0.00338231
0.000149762
0.00340173
0.0001138
0.003421
9.20778e-05
0.00343438
8.22661e-05
0.00344241
5.30244e-05
0.00345182
4.30503e-05
0.00345532
2.29833e-05
0.00345753
1.23065e-05
0.00346165
3.31423e-06
0.00346256
1.9223e-06
0.0034633
-5.96788e-06
0.00346196
-2.23379e-06
0.00345803
4.7937e-06
0.00345608
-7.15966e-06
0.00345783
-4.64612e-06
0.00346177
-7.33606e-06
0.00346657
-4.49308e-07
0.0034689
6.02922e-06
0.00346765
7.47808e-06
0.00346803
6.27457e-06
0.00346945
-2.96452e-07
0.00347155
-1.17021e-05
0.0034757
-2.66916e-05
0.0034773
-2.67458e-05
0.00347792
-4.10536e-05
0.00347938
-4.84007e-05
0.00347876
-7.44065e-05
0.00348022
-9.28193e-05
0.00348598
-0.000113447
0.00349164
-0.000150113
0.00349514
-0.000186219
0.0034994
-0.00022906
0.00350426
-0.000282829
0.00350726
-0.000346562
0.00350792
-0.000429582
0.00350531
-0.000523233
0.0034936
-0.000619085
0.00347063
-0.000728095
-0.000835938
0.00343939
0.00247313
9.27939e-05
0.00255238
0.000218799
0.00266026
0.000312071
0.00278095
0.000357226
0.00290292
0.000371085
0.00301924
0.000359102
0.00312179
0.000322855
0.00321188
0.000276657
0.00328977
0.000228978
0.00335395
0.000182128
0.00340417
0.000147085
0.0034391
0.000109251
0.0034651
8.25279e-05
0.00348617
6.54679e-05
0.00349902
4.98756e-05
0.00350921
3.77157e-05
0.00351867
2.98272e-05
0.00352322
1.66091e-05
0.00352878
1.303e-05
0.00353438
9.3994e-06
0.00353613
8.42106e-06
0.00353735
-1.94515e-06
0.00353396
-4.59174e-06
0.00352874
1.95335e-06
0.00352932
-4.33498e-06
0.00353245
-5.35785e-06
0.00353722
-1.04005e-06
0.00354217
6.2385e-06
0.00354306
6.79095e-06
0.00354106
4.71455e-06
0.00354014
1.46155e-06
0.00354049
8.96448e-07
0.0035439
-1.06907e-05
0.00354881
-2.33579e-05
0.00355053
-3.37321e-05
0.00355123
-4.37768e-05
0.00355029
-5.80569e-05
0.00354991
-8.48589e-05
0.00355147
-0.000103189
0.00355401
-0.000117716
0.00355801
-0.000155603
0.00356108
-0.000193886
0.00356297
-0.000236792
0.00356259
-0.00028844
0.00355954
-0.0003488
0.0035567
-0.000423354
0.00355112
-0.000506256
0.00353461
-0.000601105
0.00350757
-0.000703063
-0.000799759
0.00347198
0.00246864
6.61419e-05
0.00254985
0.000146123
0.00265934
0.000203034
0.00278194
0.000233134
0.00290652
0.000243662
0.00302534
0.000235947
0.00313362
0.000212912
0.0032297
0.000180673
0.00331458
0.000155865
0.00338597
0.000122987
0.00343993
9.90092e-05
0.00347902
7.19159e-05
0.00351062
5.24642e-05
0.00353641
4.48342e-05
0.00355144
2.09238e-05
0.00356036
1.5949e-05
0.00356897
1.13609e-05
0.00357534
9.76387e-06
0.00358257
1.15035e-05
0.00358772
1.0453e-05
0.00358804
1.16724e-05
0.0035911
-1.03987e-06
0.00359055
-1.96369e-06
0.00358346
5.62355e-08
0.00358303
1.2332e-07
0.00358908
1.08169e-07
0.00359515
4.15015e-06
0.00359864
1.0328e-05
0.00359836
7.9692e-06
0.00359726
6.76198e-06
0.0035964
1.45913e-06
0.00359355
-5.12569e-06
0.00359565
-1.19197e-05
0.0036028
-1.91703e-05
0.0036038
-4.16999e-05
0.00360234
-4.67967e-05
0.00360178
-5.86288e-05
0.00360319
-8.6396e-05
0.00360463
-0.000106086
0.00360351
-0.000128562
0.00360561
-0.000159531
0.00360766
-0.000191839
0.00360679
-0.000237852
0.00360334
-0.000285244
0.00359601
-0.000346249
0.00358824
-0.000414099
0.0035775
-0.000486927
0.00355786
-0.000574448
0.00353013
-0.000664097
-0.000759117
0.00349235
0.00246308
3.36292e-05
0.00254363
7.26867e-05
0.00265664
9.50485e-05
0.00278328
0.000112566
0.00290949
0.000109509
0.0030295
0.000105383
0.00314114
9.49136e-05
0.00324272
8.57373e-05
0.00333117
7.8592e-05
0.0034052
6.12222e-05
0.00346388
4.58312e-05
0.00350768
2.94146e-05
0.00353971
1.56944e-05
0.00356408
1.79428e-05
0.00358255
4.53981e-06
0.00359593
2.46163e-06
0.00360702
1.85926e-06
0.00361439
3.56309e-06
0.00362039
1.98827e-06
0.00362284
4.70877e-06
0.00362162
6.65591e-06
0.00362695
2.7757e-06
0.00362778
2.38314e-06
0.00362041
-4.45816e-06
0.00362077
1.7681e-06
0.00362763
4.59257e-06
0.00363327
7.9244e-06
0.00363547
1.07309e-05
0.00363469
1.36247e-05
0.00363283
8.89453e-06
0.00363192
4.39903e-06
0.00363017
-7.05787e-06
0.00363035
-1.25333e-05
0.00363563
-1.78686e-05
0.00363985
-4.10538e-05
0.0036378
-4.78556e-05
0.00363382
-5.54172e-05
0.00363723
-7.562e-05
0.00363924
-9.76065e-05
0.00363565
-0.000131432
0.00363574
-0.000156435
0.00363555
-0.00018361
0.00363272
-0.000226516
0.00362711
-0.000273741
0.00361748
-0.000333057
0.00360559
-0.000400447
0.00359065
-0.00046768
0.0035675
-0.000547039
0.00353441
-0.000630819
-0.000721729
0.0034939
0.00246275
5.35236e-06
0.00254236
-5.32365e-06
0.00265423
-1.02024e-05
0.00277986
-1.17821e-05
0.00290872
-2.25564e-05
0.00303263
-2.26815e-05
0.00314776
-2.54926e-05
0.00325168
-1.02666e-05
0.0033411
-3.08045e-06
0.00341617
-6.85403e-06
0.00347454
-1.48245e-05
0.00352032
-1.50123e-05
0.00355561
-2.2057e-05
0.00357972
-1.67805e-05
0.00359853
-1.36806e-05
0.00361385
-1.0413e-05
0.00362481
-3.99772e-06
0.00363142
-5.64284e-06
0.00363847
-6.74946e-06
0.00364131
-7.11156e-07
0.00363944
-3.60136e-06
0.00364471
4.35617e-06
0.00364571
-7.99139e-07
0.00363938
-1.10226e-05
0.00364061
4.76092e-06
0.00364784
9.1582e-06
0.00365397
1.29533e-05
0.00365559
1.15053e-05
0.0036537
1.5943e-05
0.00365052
8.03655e-06
0.00364813
3.51012e-06
0.00364716
-7.18895e-06
0.00364725
-1.45215e-05
0.0036507
-1.65772e-05
0.00365689
-3.28799e-05
0.0036565
-3.84863e-05
0.00365
-5.42793e-05
0.00364999
-6.46646e-05
0.0036518
-8.8263e-05
0.00365138
-0.000120359
0.00365081
-0.00014732
0.0036469
-0.000177599
0.00364065
-0.00021358
0.00363026
-0.000263988
0.0036185
-0.000318406
0.00360652
-0.000377733
0.00358796
-0.000450246
0.0035604
-0.000522537
0.00352267
-0.000604442
-0.000685467
0.0034791
0.00245742
-2.74889e-05
0.00253894
-8.15369e-05
0.00265461
-0.000111796
0.00278049
-0.000140419
0.00290893
-0.00015521
0.00303465
-0.000153833
0.00315157
-0.000145244
0.00325347
-0.000118636
0.00333882
-9.6143e-05
0.00341173
-8.16083e-05
0.00347139
-7.11442e-05
0.00351958
-5.44793e-05
0.00355768
-5.14186e-05
0.00358334
-4.52737e-05
0.00360089
-3.51807e-05
0.00361477
-2.80246e-05
0.00362468
-1.56059e-05
0.00363172
-1.72756e-05
0.00363997
-1.17159e-05
0.00364343
-6.31192e-06
0.00364114
-1.16046e-05
0.00364265
4.31677e-07
0.00364348
-3.24311e-06
0.00364219
-7.22858e-06
0.00364447
8.30483e-06
0.00364979
1.23035e-05
0.00365542
1.65079e-05
0.003657
1.08311e-05
0.00365259
5.73048e-06
0.00364851
5.11403e-06
0.00364749
2.52539e-06
0.00364624
-1.18462e-05
0.00364526
-1.53276e-05
0.00364858
-1.48595e-05
0.00365585
-2.23912e-05
0.00365677
-2.98312e-05
0.00365083
-5.08339e-05
0.00364738
-6.41142e-05
0.00364535
-8.70353e-05
0.00364533
-0.000108557
0.00364604
-0.000135963
0.00363971
-0.000177185
0.00362941
-0.000209077
0.00361765
-0.00025743
0.00360339
-0.000309043
0.00358783
-0.000354987
0.00356677
-0.000426608
0.003536
-0.000494139
0.00349634
-0.000569398
-0.000637055
0.00345225
0.00245722
-6.64855e-05
0.00253959
-0.000158031
0.00265163
-0.000221655
0.00277634
-0.000266016
0.0029062
-0.00028288
0.00303274
-0.000282172
0.00315192
-0.000256307
0.0032519
-0.000223288
0.00333159
-0.000188241
0.00340268
-0.000153522
0.00346126
-0.000123131
0.00350551
-9.6821e-05
0.00354123
-8.05796e-05
0.0035666
-6.9518e-05
0.00358596
-5.12842e-05
0.00360046
-3.99602e-05
0.00360763
-3.42834e-05
0.00361431
-2.76185e-05
0.00362182
-1.38855e-05
0.00362417
-1.45031e-05
0.00362331
-1.14563e-05
0.00362467
-9.68556e-07
0.00362747
1.58115e-06
0.00362963
3.52622e-06
0.00363018
6.81508e-06
0.00363243
7.59357e-06
0.00363759
1.54966e-05
0.00363847
4.80608e-06
0.00363442
-7.90259e-06
0.0036291
-8.86526e-07
0.00362528
-1.35178e-06
0.00362733
-1.14485e-05
0.00362997
-1.20878e-05
0.00363248
-1.78251e-05
0.00363708
-2.22106e-05
0.00363509
-3.38971e-05
0.00362864
-5.20985e-05
0.00362567
-6.87327e-05
0.00362389
-8.89054e-05
0.00362252
-0.000104044
0.00362089
-0.000130936
0.00361383
-0.000173871
0.00360173
-0.00020314
0.00358809
-0.000251036
0.00357182
-0.000297636
0.00355235
-0.000339737
0.00352938
-0.000398163
0.00349762
-0.000462607
0.0034577
-0.000527144
-0.000582309
0.00341325
0.00246
-0.000101119
0.00254102
-0.000235974
0.00265137
-0.000334173
0.0027752
-0.000384145
0.00290442
-0.000404347
0.00302999
-0.000396501
0.00314479
-0.000359233
0.00324037
-0.000316457
0.00331789
-0.000267663
0.00338486
-0.000217584
0.0034374
-0.000171624
0.00347762
-0.000138126
0.00351198
-0.000105583
0.00353692
-8.84879e-05
0.00355421
-6.83361e-05
0.00356625
-5.01108e-05
0.00357365
-4.2742e-05
0.00358056
-3.08891e-05
0.00358713
-1.32843e-05
0.00358995
-1.74403e-05
0.00359012
-1.11735e-05
0.00359086
-1.39604e-06
0.00359222
3.32864e-06
0.00359341
5.87841e-06
0.00359515
-2.65757e-06
0.00359748
-2.98207e-07
0.00359783
6.72085e-06
0.00359913
1.02381e-06
0.00359995
-7.31849e-06
0.00359372
-5.91175e-06
0.00358893
-7.40515e-06
0.00359186
-6.1128e-06
0.00359398
-1.33915e-05
0.00359563
-2.09182e-05
0.00359902
-2.93438e-05
0.00359663
-4.10217e-05
0.00358982
-5.80058e-05
0.00358711
-7.11674e-05
0.00358542
-8.98532e-05
0.00357962
-0.000105372
0.00357469
-0.000127536
0.00356899
-0.000161184
0.00355636
-0.000190649
0.00354313
-0.000234012
0.00352781
-0.000275717
0.00350353
-0.000323977
0.00347585
-0.000374577
0.00344465
-0.000429561
0.00340553
-0.000484356
-0.0005325
0.00335942
0.00246399
-0.00013367
0.00254502
-0.000315039
0.00265379
-0.000445828
0.00277396
-0.000505783
0.00289985
-0.000521816
0.00302369
-0.000499511
0.00313453
-0.000453983
0.00322413
-0.000401013
0.00329409
-0.00034102
0.00335472
-0.000273634
0.00340302
-0.00021381
0.00343723
-0.000171182
0.00346736
-0.000125765
0.00349123
-0.000103897
0.00350469
-8.91815e-05
0.0035139
-6.11427e-05
0.00352421
-3.8684e-05
0.0035309
-2.75668e-05
0.00353322
-1.88195e-05
0.0035368
-1.44741e-05
0.00353825
-1.45565e-05
0.00353755
-6.79321e-06
0.00353779
-9.47942e-07
0.00353809
-3.80706e-07
0.00354095
-1.15392e-05
0.00354387
-4.59822e-06
0.00354216
-2.78723e-06
0.00354264
1.46888e-06
0.00354532
-1.53319e-06
0.00354054
-5.81622e-06
0.00353507
-9.80496e-06
0.00353629
-5.60172e-06
0.00353694
-2.03122e-05
0.00353889
-2.29365e-05
0.0035426
-3.29439e-05
0.00353932
-4.4652e-05
0.00353246
-5.86294e-05
0.00353036
-7.1629e-05
0.00352894
-8.74397e-05
0.00352244
-0.000107814
0.0035165
-0.000122374
0.00350817
-0.000150776
0.00349264
-0.000180151
0.00347853
-0.000211171
0.00346261
-0.000253047
0.00343829
-0.000302838
0.00341003
-0.000349431
0.00337799
-0.00039412
0.00333826
-0.000442885
-0.000490276
0.00328974
0.0024685
-0.000167038
0.00255103
-0.00039541
0.00265851
-0.000561085
0.00277537
-0.000632948
0.00289687
-0.000634359
0.00301288
-0.000605012
0.00311421
-0.000543338
0.00319715
-0.000474949
0.00326274
-0.000404281
0.00331537
-0.000323266
0.00335444
-0.000257627
0.00338364
-0.000201451
0.00340607
-0.000152881
0.00342474
-0.000123527
0.00344183
-9.94348e-05
0.00345074
-7.03371e-05
0.00345599
-4.59056e-05
0.00346051
-3.04046e-05
0.00346122
-2.82384e-05
0.00346441
-1.67312e-05
0.00346748
-1.85897e-05
0.00346689
-1.39408e-05
0.00346382
-1.12536e-05
0.00346233
-1.04984e-05
0.00346787
-1.34386e-05
0.00347293
-3.38779e-06
0.00347173
-5.47496e-06
0.00347111
-2.45756e-06
0.00347123
-5.36187e-06
0.00346742
-7.26994e-06
0.00346306
-6.29746e-06
0.00346262
-8.43285e-06
0.00346407
-2.28776e-05
0.00346512
-2.84402e-05
0.00346656
-3.75037e-05
0.00346356
-4.84137e-05
0.00345732
-5.78644e-05
0.00345507
-6.9696e-05
0.00345435
-7.96395e-05
0.00344806
-0.000103059
0.00343949
-0.000116763
0.00343049
-0.000141998
0.0034152
-0.000169678
0.00339801
-0.000195236
0.00337915
-0.000237037
0.00335531
-0.000279896
0.00332819
-0.000315917
0.00329605
-0.000356599
0.00325538
-0.00040351
-0.000452652
0.00320538