/*--------------------------------*- C++ -*----------------------------------*\
  =========                 |
  \\      /  F ield         | OpenFOAM: The Open Source CFD Toolbox
   \\    /   O peration     | Website:  https://openfoam.org
    \\  /    A nd           | Version:  6
     \\/     M anipulation  |
\*---------------------------------------------------------------------------*/
FoamFile
{
    version     2.0;
    format      ascii;
    class       volScalarField;
    location    "0";
    object      p;
}
// * * * * * * * * * * * * * * * * * * * * * * * * * * * * * * * * * * * * * //

dimensions      [0 2 -2 0 0 0 0];

internalField   nonuniform List<scalar> 
40000
(
0.015885
0.0158863
0.0158882
0.0158897
0.0158904
0.0158899
0.0158882
0.0158852
0.0158808
0.0158751
0.0158682
0.01586
0.0158507
0.0158403
0.0158288
0.0158164
0.0158031
0.015789
0.0157741
0.0157584
0.015742
0.0157249
0.0157071
0.0156888
0.0156698
0.0156503
0.0156302
0.0156096
0.0155884
0.0155667
0.0155445
0.0155218
0.0154986
0.015475
0.0154508
0.0154262
0.0154012
0.0153757
0.0153497
0.0153233
0.0152965
0.0152694
0.0152418
0.0152139
0.0151856
0.015157
0.0151281
0.0150989
0.0150695
0.0150399
0.0150101
0.0149801
0.01495
0.0149199
0.0148898
0.0148597
0.0148297
0.0147998
0.0147701
0.0147406
0.0147114
0.0146827
0.0146543
0.0146265
0.0145992
0.0145726
0.0145467
0.0145217
0.0144975
0.0144742
0.014452
0.0144309
0.014411
0.0143924
0.0143751
0.0143593
0.0143449
0.0143321
0.014321
0.0143115
0.0143038
0.0142979
0.0142939
0.0142917
0.0142915
0.0142933
0.014297
0.0143028
0.0143105
0.0143202
0.0143319
0.0143456
0.0143611
0.0143785
0.0143977
0.0144187
0.0144412
0.0144653
0.0144909
0.0145177
0.0145458
0.0145748
0.0146048
0.0146355
0.0146667
0.0146983
0.0147301
0.0147618
0.0147934
0.0148245
0.0148549
0.0148845
0.014913
0.0149402
0.0149659
0.0149899
0.0150119
0.0150318
0.0150493
0.0150643
0.0150766
0.015086
0.0150924
0.0150956
0.0150954
0.0150919
0.0150848
0.0150741
0.0150598
0.0150418
0.01502
0.0149946
0.0149655
0.0149327
0.0148963
0.0148564
0.0148131
0.0147666
0.0147168
0.0146641
0.0146085
0.0145502
0.0144894
0.0144264
0.0143614
0.0142945
0.014226
0.0141561
0.014085
0.0140131
0.0139405
0.0138675
0.0137942
0.013721
0.013648
0.0135755
0.0135037
0.0134327
0.0133627
0.013294
0.0132267
0.0131609
0.0130968
0.0130344
0.012974
0.0129157
0.0128594
0.0128053
0.0127535
0.012704
0.0126568
0.0126121
0.0125698
0.0125299
0.0124925
0.0124576
0.0124251
0.0123952
0.0123677
0.0123427
0.0123202
0.0123001
0.0122825
0.0122673
0.0122545
0.0122441
0.0122361
0.0122305
0.0122271
0.0122259
0.0122269
0.0122298
0.0122345
0.0122408
0.0122481
0.0122561
0.0122642
0.0122713
0.0122764
0.0122787
0.0158837
0.015885
0.0158867
0.0158878
0.0158882
0.0158875
0.0158856
0.0158826
0.0158782
0.0158726
0.0158658
0.0158579
0.0158488
0.0158387
0.0158276
0.0158155
0.0158025
0.0157887
0.0157742
0.0157588
0.0157428
0.0157261
0.0157087
0.0156907
0.0156721
0.015653
0.0156333
0.015613
0.0155922
0.0155709
0.0155491
0.0155267
0.0155039
0.0154807
0.0154569
0.0154327
0.015408
0.0153829
0.0153573
0.0153314
0.015305
0.0152782
0.0152511
0.0152236
0.0151957
0.0151676
0.0151391
0.0151104
0.0150814
0.0150522
0.0150228
0.0149933
0.0149637
0.014934
0.0149042
0.0148745
0.0148449
0.0148154
0.0147861
0.014757
0.0147282
0.0146998
0.0146717
0.0146442
0.0146172
0.0145909
0.0145652
0.0145403
0.0145163
0.0144932
0.0144711
0.01445
0.0144302
0.0144115
0.0143942
0.0143782
0.0143637
0.0143507
0.0143393
0.0143295
0.0143214
0.0143151
0.0143106
0.014308
0.0143072
0.0143083
0.0143114
0.0143164
0.0143234
0.0143322
0.014343
0.0143557
0.0143703
0.0143866
0.0144047
0.0144245
0.0144459
0.0144688
0.014493
0.0145186
0.0145453
0.014573
0.0146016
0.0146309
0.0146607
0.0146909
0.0147213
0.0147516
0.0147818
0.0148115
0.0148405
0.0148688
0.0148959
0.0149218
0.0149463
0.014969
0.0149899
0.0150086
0.0150251
0.0150391
0.0150504
0.015059
0.0150645
0.015067
0.0150662
0.0150621
0.0150546
0.0150435
0.0150289
0.0150107
0.0149889
0.0149634
0.0149344
0.0149018
0.0148657
0.0148262
0.0147834
0.0147373
0.0146882
0.0146361
0.0145813
0.0145239
0.0144641
0.0144021
0.0143381
0.0142723
0.0142049
0.0141362
0.0140664
0.0139958
0.0139244
0.0138527
0.0137808
0.0137089
0.0136373
0.0135661
0.0134956
0.0134259
0.0133573
0.0132898
0.0132237
0.0131591
0.0130962
0.013035
0.0129757
0.0129184
0.0128631
0.01281
0.0127591
0.0127104
0.0126641
0.0126201
0.0125785
0.0125393
0.0125025
0.0124681
0.0124361
0.0124066
0.0123794
0.0123547
0.0123324
0.0123125
0.012295
0.0122798
0.0122669
0.0122564
0.0122482
0.0122422
0.0122384
0.0122366
0.0122369
0.012239
0.0122428
0.012248
0.0122542
0.0122611
0.012268
0.0122741
0.0122787
0.012281
0.0158819
0.0158834
0.015885
0.0158859
0.015886
0.0158851
0.0158831
0.0158799
0.0158756
0.0158701
0.0158635
0.0158558
0.015847
0.0158372
0.0158265
0.0158148
0.0158023
0.0157889
0.0157748
0.0157599
0.0157443
0.015728
0.0157111
0.0156936
0.0156755
0.0156568
0.0156375
0.0156177
0.0155974
0.0155766
0.0155552
0.0155334
0.0155111
0.0154883
0.015465
0.0154413
0.0154171
0.0153925
0.0153675
0.015342
0.0153161
0.0152899
0.0152633
0.0152363
0.015209
0.0151814
0.0151534
0.0151252
0.0150968
0.0150681
0.0150393
0.0150103
0.0149812
0.014952
0.0149228
0.0148936
0.0148645
0.0148355
0.0148066
0.014778
0.0147496
0.0147215
0.0146939
0.0146667
0.01464
0.0146139
0.0145885
0.0145638
0.0145399
0.014517
0.0144949
0.0144739
0.014454
0.0144353
0.0144178
0.0144017
0.0143869
0.0143736
0.0143618
0.0143516
0.0143431
0.0143362
0.0143311
0.0143277
0.0143262
0.0143265
0.0143287
0.0143327
0.0143386
0.0143464
0.0143561
0.0143676
0.0143809
0.0143959
0.0144126
0.014431
0.0144509
0.0144722
0.014495
0.0145189
0.014544
0.0145701
0.014597
0.0146246
0.0146527
0.0146812
0.0147098
0.0147385
0.0147669
0.0147949
0.0148223
0.014849
0.0148745
0.0148989
0.0149218
0.0149431
0.0149626
0.01498
0.0149952
0.015008
0.0150182
0.0150257
0.0150304
0.015032
0.0150305
0.0150257
0.0150176
0.0150061
0.0149912
0.0149727
0.0149508
0.0149253
0.0148964
0.014864
0.0148282
0.0147891
0.0147468
0.0147013
0.014653
0.0146017
0.0145478
0.0144914
0.0144327
0.0143718
0.014309
0.0142445
0.0141785
0.0141112
0.0140429
0.0139737
0.0139039
0.0138338
0.0137634
0.0136931
0.0136231
0.0135535
0.0134846
0.0134165
0.0133494
0.0132835
0.0132189
0.0131558
0.0130943
0.0130346
0.0129766
0.0129206
0.0128666
0.0128147
0.0127649
0.0127173
0.012672
0.012629
0.0125882
0.0125498
0.0125138
0.0124801
0.0124487
0.0124197
0.0123931
0.0123687
0.0123467
0.012327
0.0123096
0.0122945
0.0122816
0.0122709
0.0122623
0.0122559
0.0122516
0.0122492
0.0122487
0.0122499
0.0122526
0.0122567
0.0122617
0.0122674
0.0122732
0.0122787
0.0122833
0.0122861
0.0158804
0.0158822
0.0158841
0.015885
0.015885
0.015884
0.0158819
0.0158787
0.0158744
0.015869
0.0158625
0.015855
0.0158464
0.0158369
0.0158265
0.0158151
0.0158029
0.0157899
0.0157762
0.0157617
0.0157465
0.0157306
0.0157141
0.015697
0.0156793
0.015661
0.0156422
0.0156229
0.015603
0.0155826
0.0155617
0.0155403
0.0155184
0.0154961
0.0154732
0.01545
0.0154263
0.0154021
0.0153776
0.0153526
0.0153272
0.0153015
0.0152753
0.0152488
0.015222
0.0151949
0.0151674
0.0151397
0.0151118
0.0150836
0.0150552
0.0150267
0.0149981
0.0149693
0.0149406
0.0149118
0.0148831
0.0148544
0.0148259
0.0147976
0.0147696
0.0147418
0.0147145
0.0146875
0.0146611
0.0146352
0.0146099
0.0145853
0.0145615
0.0145385
0.0145165
0.0144954
0.0144754
0.0144565
0.0144388
0.0144224
0.0144074
0.0143937
0.0143815
0.0143708
0.0143617
0.0143543
0.0143485
0.0143444
0.0143422
0.0143417
0.014343
0.0143461
0.014351
0.0143578
0.0143664
0.0143767
0.0143888
0.0144027
0.0144182
0.0144352
0.0144538
0.0144738
0.0144952
0.0145177
0.0145414
0.014566
0.0145915
0.0146176
0.0146443
0.0146713
0.0146985
0.0147257
0.0147528
0.0147794
0.0148054
0.0148307
0.0148549
0.014878
0.0148997
0.0149198
0.0149381
0.0149545
0.0149687
0.0149805
0.0149898
0.0149965
0.0150004
0.0150013
0.0149992
0.0149939
0.0149854
0.0149735
0.0149583
0.0149396
0.0149176
0.0148921
0.0148632
0.0148309
0.0147954
0.0147566
0.0147147
0.0146697
0.0146219
0.0145713
0.0145181
0.0144624
0.0144045
0.0143446
0.0142828
0.0142193
0.0141544
0.0140882
0.014021
0.0139531
0.0138845
0.0138156
0.0137466
0.0136776
0.0136089
0.0135406
0.013473
0.0134063
0.0133405
0.0132759
0.0132127
0.0131508
0.0130906
0.0130321
0.0129753
0.0129205
0.0128676
0.0128167
0.012768
0.0127214
0.012677
0.0126349
0.012595
0.0125574
0.012522
0.012489
0.0124582
0.0124297
0.0124035
0.0123795
0.0123578
0.0123384
0.0123211
0.012306
0.0122931
0.0122823
0.0122735
0.0122668
0.0122621
0.0122592
0.0122581
0.0122586
0.0122606
0.0122639
0.0122682
0.0122732
0.0122787
0.0122842
0.0122894
0.0122933
0.0158797
0.0158819
0.015884
0.015885
0.015885
0.0158839
0.0158818
0.0158786
0.0158743
0.015869
0.0158626
0.0158552
0.0158469
0.0158375
0.0158273
0.0158163
0.0158044
0.0157917
0.0157783
0.0157641
0.0157493
0.0157338
0.0157177
0.015701
0.0156837
0.0156658
0.0156474
0.0156285
0.015609
0.015589
0.0155686
0.0155476
0.0155262
0.0155042
0.0154819
0.0154591
0.0154358
0.0154121
0.015388
0.0153635
0.0153386
0.0153133
0.0152876
0.0152616
0.0152352
0.0152085
0.0151815
0.0151543
0.0151268
0.015099
0.0150711
0.015043
0.0150148
0.0149865
0.0149581
0.0149297
0.0149013
0.014873
0.0148448
0.0148168
0.014789
0.0147615
0.0147343
0.0147075
0.0146812
0.0146554
0.0146302
0.0146056
0.0145818
0.0145588
0.0145366
0.0145154
0.0144952
0.0144761
0.0144581
0.0144414
0.0144259
0.0144118
0.0143991
0.0143879
0.0143782
0.0143701
0.0143636
0.0143588
0.0143558
0.0143544
0.0143548
0.014357
0.014361
0.0143668
0.0143743
0.0143836
0.0143946
0.0144072
0.0144215
0.0144374
0.0144547
0.0144735
0.0144936
0.0145149
0.0145372
0.0145606
0.0145848
0.0146096
0.014635
0.0146607
0.0146867
0.0147126
0.0147384
0.0147638
0.0147887
0.0148128
0.0148359
0.014858
0.0148786
0.0148977
0.0149151
0.0149305
0.0149438
0.0149549
0.0149635
0.0149695
0.0149727
0.0149731
0.0149704
0.0149647
0.0149558
0.0149436
0.0149282
0.0149093
0.0148872
0.0148617
0.0148328
0.0148007
0.0147653
0.0147267
0.0146851
0.0146405
0.0145931
0.014543
0.0144904
0.0144354
0.0143781
0.0143189
0.0142579
0.0141952
0.0141312
0.014066
0.0139998
0.0139328
0.0138653
0.0137975
0.0137295
0.0136616
0.0135941
0.013527
0.0134605
0.013395
0.0133304
0.013267
0.0132048
0.0131442
0.0130851
0.0130276
0.012972
0.0129182
0.0128663
0.0128165
0.0127688
0.0127231
0.0126796
0.0126383
0.0125992
0.0125624
0.0125277
0.0124953
0.0124651
0.0124371
0.0124114
0.0123878
0.0123665
0.0123472
0.0123301
0.0123152
0.0123022
0.0122914
0.0122825
0.0122755
0.0122705
0.0122672
0.0122656
0.0122657
0.0122672
0.01227
0.0122739
0.0122787
0.0122841
0.01229
0.0122963
0.0123013
0.0158802
0.0158826
0.015885
0.015886
0.015886
0.0158849
0.0158827
0.0158795
0.0158753
0.01587
0.0158637
0.0158564
0.0158482
0.0158391
0.0158291
0.0158183
0.0158066
0.0157942
0.0157811
0.0157673
0.0157528
0.0157377
0.0157219
0.0157056
0.0156887
0.0156712
0.0156532
0.0156346
0.0156155
0.015596
0.0155759
0.0155554
0.0155344
0.0155129
0.0154909
0.0154686
0.0154457
0.0154225
0.0153988
0.0153747
0.0153503
0.0153254
0.0153002
0.0152746
0.0152487
0.0152224
0.0151958
0.015169
0.0151419
0.0151146
0.015087
0.0150593
0.0150314
0.0150035
0.0149754
0.0149473
0.0149192
0.0148912
0.0148632
0.0148354
0.0148078
0.0147805
0.0147534
0.0147267
0.0147004
0.0146747
0.0146494
0.0146248
0.0146009
0.0145777
0.0145554
0.0145339
0.0145135
0.014494
0.0144757
0.0144585
0.0144426
0.0144279
0.0144147
0.0144029
0.0143925
0.0143837
0.0143765
0.0143709
0.014367
0.0143648
0.0143643
0.0143656
0.0143686
0.0143733
0.0143798
0.014388
0.0143979
0.0144094
0.0144226
0.0144373
0.0144535
0.0144711
0.01449
0.0145101
0.0145313
0.0145534
0.0145764
0.0146001
0.0146243
0.014649
0.0146738
0.0146986
0.0147233
0.0147477
0.0147715
0.0147947
0.0148169
0.014838
0.0148577
0.014876
0.0148926
0.0149073
0.0149199
0.0149303
0.0149383
0.0149437
0.0149464
0.0149463
0.0149433
0.0149372
0.014928
0.0149156
0.0148999
0.014881
0.0148587
0.0148332
0.0148043
0.0147723
0.014737
0.0146986
0.0146573
0.014613
0.0145659
0.0145162
0.014464
0.0144095
0.0143528
0.0142942
0.0142338
0.0141718
0.0141085
0.0140441
0.0139787
0.0139125
0.0138459
0.013779
0.013712
0.0136451
0.0135785
0.0135124
0.013447
0.0133824
0.0133188
0.0132565
0.0131954
0.0131358
0.0130777
0.0130213
0.0129667
0.0129139
0.012863
0.0128141
0.0127673
0.0127226
0.0126799
0.0126395
0.0126011
0.012565
0.012531
0.0124993
0.0124697
0.0124422
0.012417
0.0123938
0.0123728
0.0123538
0.012337
0.0123221
0.0123092
0.0122984
0.0122894
0.0122823
0.012277
0.0122734
0.0122716
0.0122713
0.0122724
0.0122749
0.0122787
0.0122834
0.0122891
0.0122956
0.0123031
0.0123093
0.015882
0.0158845
0.015887
0.0158881
0.0158881
0.0158869
0.0158847
0.0158815
0.0158772
0.0158719
0.0158657
0.0158585
0.0158504
0.0158415
0.0158316
0.015821
0.0158096
0.0157975
0.0157847
0.0157711
0.015757
0.0157421
0.0157267
0.0157107
0.0156942
0.0156771
0.0156594
0.0156412
0.0156226
0.0156034
0.0155837
0.0155636
0.015543
0.0155219
0.0155004
0.0154784
0.015456
0.0154332
0.01541
0.0153863
0.0153622
0.0153378
0.015313
0.0152878
0.0152623
0.0152364
0.0152102
0.0151838
0.015157
0.0151301
0.0151029
0.0150755
0.0150479
0.0150202
0.0149924
0.0149646
0.0149367
0.0149089
0.0148811
0.0148534
0.0148259
0.0147987
0.0147716
0.014745
0.0147187
0.0146928
0.0146675
0.0146427
0.0146186
0.0145952
0.0145726
0.0145508
0.0145299
0.0145101
0.0144913
0.0144736
0.0144571
0.0144419
0.014428
0.0144155
0.0144044
0.0143948
0.0143868
0.0143804
0.0143756
0.0143725
0.014371
0.0143713
0.0143733
0.014377
0.0143825
0.0143896
0.0143985
0.0144089
0.014421
0.0144346
0.0144497
0.0144662
0.014484
0.014503
0.0145231
0.0145442
0.0145661
0.0145887
0.0146119
0.0146356
0.0146594
0.0146833
0.0147071
0.0147306
0.0147535
0.0147758
0.0147972
0.0148176
0.0148366
0.0148542
0.0148702
0.0148843
0.0148963
0.0149062
0.0149137
0.0149187
0.014921
0.0149206
0.0149172
0.0149109
0.0149015
0.0148889
0.0148731
0.014854
0.0148317
0.0148061
0.0147773
0.0147453
0.0147102
0.014672
0.0146308
0.0145867
0.01454
0.0144906
0.0144387
0.0143846
0.0143284
0.0142702
0.0142103
0.0141489
0.0140862
0.0140223
0.0139576
0.0138922
0.0138263
0.0137601
0.0136939
0.0136278
0.013562
0.0134968
0.0134322
0.0133686
0.0133059
0.0132445
0.0131843
0.0131256
0.0130685
0.013013
0.0129593
0.0129075
0.0128575
0.0128096
0.0127636
0.0127197
0.0126779
0.0126382
0.0126007
0.0125653
0.012532
0.0125009
0.0124719
0.012445
0.0124202
0.0123975
0.0123768
0.0123581
0.0123415
0.0123268
0.0123141
0.0123032
0.0122942
0.012287
0.0122816
0.0122779
0.0122758
0.0122753
0.0122762
0.0122786
0.0122823
0.0122873
0.0122933
0.0123005
0.0123092
0.0123165
0.0158852
0.0158878
0.0158903
0.0158914
0.0158912
0.01589
0.0158878
0.0158845
0.0158802
0.0158749
0.0158687
0.0158615
0.0158535
0.0158447
0.015835
0.0158246
0.0158134
0.0158015
0.0157889
0.0157756
0.0157617
0.0157472
0.0157321
0.0157164
0.0157002
0.0156835
0.0156662
0.0156484
0.01563
0.0156113
0.015592
0.0155722
0.015552
0.0155313
0.0155102
0.0154886
0.0154666
0.0154442
0.0154214
0.0153981
0.0153744
0.0153504
0.0153259
0.0153011
0.015276
0.0152505
0.0152246
0.0151985
0.0151721
0.0151454
0.0151185
0.0150914
0.0150641
0.0150366
0.0150091
0.0149814
0.0149537
0.014926
0.0148983
0.0148707
0.0148432
0.0148159
0.0147888
0.0147621
0.0147357
0.0147096
0.0146841
0.0146591
0.0146347
0.0146109
0.0145879
0.0145657
0.0145444
0.014524
0.0145046
0.0144863
0.0144692
0.0144533
0.0144387
0.0144254
0.0144135
0.0144031
0.0143942
0.0143869
0.0143812
0.0143771
0.0143747
0.014374
0.014375
0.0143776
0.014382
0.0143881
0.0143959
0.0144053
0.0144163
0.0144289
0.0144429
0.0144583
0.0144751
0.0144931
0.0145122
0.0145323
0.0145533
0.014575
0.0145973
0.01462
0.014643
0.0146661
0.0146891
0.0147118
0.0147341
0.0147557
0.0147765
0.0147962
0.0148147
0.0148318
0.0148472
0.0148609
0.0148725
0.014882
0.0148892
0.0148938
0.0148959
0.0148952
0.0148917
0.0148852
0.0148756
0.0148629
0.014847
0.0148279
0.0148056
0.01478
0.0147513
0.0147194
0.0146843
0.0146463
0.0146052
0.0145614
0.0145148
0.0144657
0.0144141
0.0143603
0.0143044
0.0142467
0.0141872
0.0141262
0.0140639
0.0140006
0.0139364
0.0138715
0.0138062
0.0137406
0.0136751
0.0136097
0.0135446
0.0134801
0.0134163
0.0133534
0.0132916
0.0132309
0.0131716
0.0131138
0.0130575
0.0130029
0.01295
0.012899
0.0128499
0.0128028
0.0127577
0.0127146
0.0126736
0.0126347
0.0125979
0.0125632
0.0125306
0.0125001
0.0124717
0.0124453
0.012421
0.0123987
0.0123785
0.0123601
0.0123437
0.0123293
0.0123167
0.0123059
0.0122969
0.0122897
0.0122842
0.0122804
0.0122782
0.0122776
0.0122785
0.0122809
0.0122847
0.0122899
0.0122964
0.0123043
0.0123141
0.0123225
0.0158898
0.0158923
0.0158948
0.0158957
0.0158955
0.0158942
0.0158918
0.0158885
0.0158841
0.0158788
0.0158726
0.0158655
0.0158575
0.0158487
0.0158392
0.0158289
0.0158179
0.0158062
0.0157938
0.0157808
0.0157671
0.0157529
0.0157381
0.0157227
0.0157068
0.0156904
0.0156734
0.0156559
0.015638
0.0156195
0.0156006
0.0155812
0.0155614
0.0155411
0.0155204
0.0154992
0.0154775
0.0154555
0.015433
0.0154101
0.0153868
0.0153631
0.015339
0.0153145
0.0152897
0.0152645
0.015239
0.0152132
0.015187
0.0151606
0.0151339
0.015107
0.0150799
0.0150526
0.0150252
0.0149976
0.01497
0.0149423
0.0149146
0.014887
0.0148594
0.014832
0.0148048
0.0147779
0.0147512
0.0147249
0.0146991
0.0146737
0.0146489
0.0146247
0.0146012
0.0145784
0.0145565
0.0145355
0.0145155
0.0144965
0.0144786
0.0144619
0.0144465
0.0144323
0.0144196
0.0144082
0.0143984
0.0143901
0.0143834
0.0143783
0.0143749
0.0143731
0.014373
0.0143747
0.014378
0.0143831
0.0143898
0.0143981
0.0144081
0.0144196
0.0144326
0.0144471
0.0144629
0.0144799
0.0144981
0.0145173
0.0145374
0.0145583
0.0145798
0.0146018
0.0146241
0.0146465
0.0146688
0.0146909
0.0147126
0.0147337
0.014754
0.0147733
0.0147913
0.014808
0.0148231
0.0148364
0.0148478
0.014857
0.014864
0.0148685
0.0148704
0.0148696
0.0148659
0.0148594
0.0148497
0.014837
0.0148211
0.0148021
0.0147798
0.0147543
0.0147256
0.0146938
0.0146589
0.014621
0.0145801
0.0145364
0.0144901
0.0144412
0.0143898
0.0143363
0.0142807
0.0142232
0.0141641
0.0141034
0.0140415
0.0139786
0.0139148
0.0138504
0.0137856
0.0137205
0.0136555
0.0135907
0.0135262
0.0134623
0.0133992
0.013337
0.0132758
0.0132159
0.0131573
0.0131002
0.0130447
0.0129909
0.0129388
0.0128886
0.0128403
0.0127939
0.0127496
0.0127073
0.012667
0.0126288
0.0125928
0.0125587
0.0125268
0.0124969
0.0124691
0.0124433
0.0124195
0.0123977
0.0123778
0.0123599
0.0123438
0.0123295
0.0123171
0.0123065
0.0122976
0.0122904
0.0122849
0.0122811
0.0122789
0.0122782
0.0122792
0.0122816
0.0122856
0.0122911
0.012298
0.0123066
0.0123175
0.0123268
0.0158959
0.0158982
0.0159005
0.0159013
0.0159009
0.0158994
0.0158969
0.0158934
0.015889
0.0158836
0.0158773
0.0158702
0.0158623
0.0158536
0.0158441
0.0158339
0.0158231
0.0158115
0.0157993
0.0157865
0.0157731
0.0157591
0.0157446
0.0157295
0.0157139
0.0156977
0.0156811
0.015664
0.0156463
0.0156282
0.0156097
0.0155906
0.0155711
0.0155512
0.0155308
0.01551
0.0154887
0.015467
0.0154448
0.0154223
0.0153993
0.0153759
0.0153521
0.0153279
0.0153034
0.0152785
0.0152532
0.0152276
0.0152017
0.0151755
0.015149
0.0151222
0.0150952
0.015068
0.0150406
0.015013
0.0149854
0.0149576
0.0149299
0.0149021
0.0148744
0.0148468
0.0148193
0.0147921
0.0147651
0.0147384
0.0147121
0.0146863
0.0146609
0.0146362
0.0146121
0.0145886
0.014566
0.0145443
0.0145235
0.0145036
0.0144849
0.0144673
0.014451
0.0144359
0.0144221
0.0144098
0.0143989
0.0143896
0.0143818
0.0143757
0.0143711
0.0143683
0.0143671
0.0143677
0.0143699
0.0143739
0.0143796
0.0143869
0.0143958
0.0144063
0.0144184
0.0144319
0.0144468
0.0144629
0.0144802
0.0144986
0.014518
0.0145381
0.0145589
0.0145802
0.0146019
0.0146237
0.0146455
0.0146671
0.0146884
0.0147091
0.014729
0.0147479
0.0147657
0.0147821
0.014797
0.0148102
0.0148214
0.0148305
0.0148374
0.0148419
0.0148438
0.014843
0.0148393
0.0148328
0.0148232
0.0148106
0.0147948
0.0147758
0.0147537
0.0147283
0.0146998
0.0146681
0.0146334
0.0145956
0.0145549
0.0145114
0.0144653
0.0144166
0.0143655
0.0143122
0.0142568
0.0141996
0.0141407
0.0140804
0.0140188
0.0139562
0.0138928
0.0138287
0.0137643
0.0136997
0.0136351
0.0135707
0.0135067
0.0134434
0.0133808
0.0133192
0.0132586
0.0131993
0.0131414
0.0130849
0.0130301
0.012977
0.0129256
0.0128761
0.0128285
0.0127829
0.0127393
0.0126977
0.0126582
0.0126208
0.0125854
0.012552
0.0125208
0.0124915
0.0124643
0.012439
0.0124157
0.0123944
0.0123749
0.0123573
0.0123416
0.0123276
0.0123154
0.0123049
0.0122962
0.0122891
0.0122837
0.0122799
0.0122777
0.0122771
0.0122781
0.0122807
0.0122848
0.0122906
0.012298
0.0123073
0.0123191
0.0123292
0.0159033
0.0159054
0.0159074
0.015908
0.0159073
0.0159057
0.015903
0.0158993
0.0158948
0.0158893
0.015883
0.0158758
0.0158679
0.0158592
0.0158498
0.0158397
0.0158289
0.0158175
0.0158055
0.0157929
0.0157797
0.0157659
0.0157516
0.0157368
0.0157215
0.0157056
0.0156893
0.0156724
0.0156551
0.0156373
0.0156191
0.0156004
0.0155812
0.0155616
0.0155415
0.015521
0.0155
0.0154786
0.0154568
0.0154345
0.0154118
0.0153887
0.0153652
0.0153413
0.015317
0.0152923
0.0152672
0.0152418
0.015216
0.0151899
0.0151635
0.0151368
0.0151098
0.0150826
0.0150552
0.0150275
0.0149998
0.0149719
0.0149439
0.0149159
0.014888
0.01486
0.0148322
0.0148045
0.0147771
0.0147499
0.014723
0.0146966
0.0146706
0.0146451
0.0146202
0.014596
0.0145726
0.01455
0.0145283
0.0145075
0.0144878
0.0144692
0.0144518
0.0144356
0.0144208
0.0144073
0.0143954
0.0143849
0.014376
0.0143687
0.014363
0.014359
0.0143567
0.0143561
0.0143573
0.0143601
0.0143647
0.014371
0.0143789
0.0143884
0.0143995
0.0144121
0.0144261
0.0144414
0.0144579
0.0144756
0.0144942
0.0145137
0.0145339
0.0145546
0.0145757
0.0145971
0.0146185
0.0146397
0.0146607
0.0146811
0.0147007
0.0147195
0.0147371
0.0147535
0.0147683
0.0147814
0.0147926
0.0148018
0.0148087
0.0148133
0.0148153
0.0148146
0.0148111
0.0148047
0.0147953
0.0147829
0.0147673
0.0147486
0.0147266
0.0147015
0.0146732
0.0146417
0.0146072
0.0145697
0.0145292
0.0144859
0.01444
0.0143915
0.0143407
0.0142876
0.0142324
0.0141755
0.0141168
0.0140568
0.0139955
0.0139331
0.01387
0.0138063
0.0137422
0.0136779
0.0136137
0.0135497
0.0134862
0.0134233
0.0133612
0.0133
0.01324
0.0131812
0.0131239
0.013068
0.0130138
0.0129613
0.0129106
0.0128618
0.0128149
0.0127699
0.012727
0.0126861
0.0126473
0.0126105
0.0125758
0.0125431
0.0125125
0.0124838
0.0124572
0.0124325
0.0124097
0.0123888
0.0123698
0.0123526
0.0123372
0.0123235
0.0123116
0.0123013
0.0122927
0.0122858
0.0122804
0.0122767
0.0122746
0.0122741
0.0122752
0.0122779
0.0122823
0.0122884
0.0122962
0.012306
0.0123186
0.0123293
0.0159121
0.015914
0.0159155
0.0159158
0.0159149
0.0159129
0.01591
0.0159062
0.0159014
0.0158958
0.0158894
0.0158822
0.0158742
0.0158656
0.0158562
0.0158462
0.0158355
0.0158242
0.0158123
0.0157999
0.0157869
0.0157733
0.0157592
0.0157446
0.0157295
0.0157139
0.0156979
0.0156813
0.0156643
0.0156468
0.0156288
0.0156104
0.0155915
0.0155722
0.0155524
0.0155322
0.0155115
0.0154904
0.0154688
0.0154468
0.0154244
0.0154015
0.0153782
0.0153545
0.0153303
0.0153058
0.0152808
0.0152555
0.0152298
0.0152037
0.0151773
0.0151506
0.0151236
0.0150963
0.0150687
0.0150409
0.015013
0.0149848
0.0149565
0.0149282
0.0148998
0.0148714
0.0148431
0.0148149
0.0147868
0.014759
0.0147314
0.0147042
0.0146774
0.0146511
0.0146254
0.0146002
0.0145758
0.0145522
0.0145294
0.0145076
0.0144867
0.014467
0.0144484
0.0144311
0.014415
0.0144004
0.0143872
0.0143755
0.0143653
0.0143568
0.0143499
0.0143447
0.0143412
0.0143394
0.0143394
0.0143411
0.0143446
0.0143498
0.0143567
0.0143652
0.0143754
0.0143871
0.0144002
0.0144147
0.0144305
0.0144474
0.0144654
0.0144843
0.0145039
0.0145242
0.0145449
0.0145659
0.0145869
0.0146079
0.0146286
0.0146489
0.0146684
0.0146871
0.0147048
0.0147211
0.014736
0.0147492
0.0147606
0.0147699
0.0147771
0.0147819
0.0147841
0.0147837
0.0147805
0.0147745
0.0147654
0.0147533
0.014738
0.0147196
0.014698
0.0146732
0.0146452
0.0146141
0.0145798
0.0145426
0.0145025
0.0144595
0.0144138
0.0143656
0.014315
0.0142622
0.0142073
0.0141506
0.0140922
0.0140324
0.0139714
0.0139093
0.0138464
0.013783
0.0137192
0.0136552
0.0135913
0.0135277
0.0134645
0.013402
0.0133403
0.0132795
0.01322
0.0131617
0.0131048
0.0130495
0.0129958
0.0129439
0.0128938
0.0128456
0.0127993
0.012755
0.0127127
0.0126725
0.0126343
0.0125982
0.0125641
0.012532
0.012502
0.0124739
0.0124479
0.0124237
0.0124015
0.0123811
0.0123625
0.0123457
0.0123306
0.0123173
0.0123056
0.0122956
0.0122872
0.0122804
0.0122752
0.0122716
0.0122696
0.0122692
0.0122704
0.0122733
0.0122779
0.0122843
0.0122924
0.0123027
0.0123158
0.0123271
0.0159223
0.0159237
0.0159248
0.0159247
0.0159234
0.0159212
0.015918
0.0159139
0.015909
0.0159032
0.0158967
0.0158894
0.0158813
0.0158726
0.0158633
0.0158533
0.0158427
0.0158315
0.0158197
0.0158074
0.0157946
0.0157812
0.0157673
0.0157529
0.0157381
0.0157227
0.0157069
0.0156906
0.0156738
0.0156566
0.0156389
0.0156207
0.0156021
0.015583
0.0155635
0.0155435
0.0155231
0.0155022
0.0154809
0.0154591
0.0154368
0.0154141
0.015391
0.0153674
0.0153433
0.0153189
0.015294
0.0152687
0.015243
0.0152169
0.0151904
0.0151636
0.0151364
0.0151089
0.0150811
0.015053
0.0150247
0.0149962
0.0149675
0.0149386
0.0149097
0.0148807
0.0148518
0.0148228
0.014794
0.0147654
0.014737
0.0147089
0.0146811
0.0146538
0.014627
0.0146008
0.0145753
0.0145505
0.0145265
0.0145034
0.0144813
0.0144603
0.0144404
0.0144218
0.0144044
0.0143884
0.0143738
0.0143608
0.0143493
0.0143394
0.0143312
0.0143247
0.0143199
0.0143169
0.0143157
0.0143163
0.0143186
0.0143227
0.0143285
0.014336
0.0143452
0.014356
0.0143683
0.014382
0.0143971
0.0144133
0.0144307
0.014449
0.0144682
0.0144881
0.0145084
0.0145291
0.01455
0.0145708
0.0145914
0.0146116
0.0146312
0.01465
0.0146677
0.0146843
0.0146994
0.0147128
0.0147245
0.0147342
0.0147417
0.0147468
0.0147495
0.0147495
0.0147468
0.0147412
0.0147326
0.014721
0.0147062
0.0146882
0.0146671
0.0146428
0.0146152
0.0145845
0.0145508
0.0145139
0.0144742
0.0144316
0.0143863
0.0143384
0.0142882
0.0142357
0.0141811
0.0141247
0.0140666
0.014007
0.0139463
0.0138845
0.0138219
0.0137587
0.0136952
0.0136315
0.0135679
0.0135046
0.0134417
0.0133795
0.0133182
0.0132578
0.0131986
0.0131408
0.0130844
0.0130295
0.0129763
0.0129249
0.0128753
0.0128277
0.012782
0.0127383
0.0126966
0.0126569
0.0126194
0.0125838
0.0125504
0.0125189
0.0124895
0.012462
0.0124365
0.0124129
0.0123911
0.0123712
0.012353
0.0123366
0.012322
0.0123089
0.0122976
0.0122878
0.0122796
0.0122731
0.012268
0.0122646
0.0122627
0.0122624
0.0122637
0.0122668
0.0122715
0.0122781
0.0122866
0.0122972
0.0123108
0.0123224
0.0159337
0.0159347
0.0159353
0.0159347
0.015933
0.0159304
0.0159269
0.0159225
0.0159174
0.0159114
0.0159047
0.0158973
0.0158892
0.0158804
0.015871
0.0158611
0.0158505
0.0158394
0.0158277
0.0158155
0.0158028
0.0157896
0.0157759
0.0157617
0.015747
0.0157319
0.0157163
0.0157002
0.0156836
0.0156666
0.0156492
0.0156313
0.0156129
0.015594
0.0155747
0.015555
0.0155347
0.015514
0.0154928
0.0154712
0.0154491
0.0154265
0.0154034
0.0153799
0.0153559
0.0153315
0.0153066
0.0152812
0.0152554
0.0152292
0.0152025
0.0151754
0.015148
0.0151202
0.015092
0.0150635
0.0150347
0.0150057
0.0149764
0.014947
0.0149173
0.0148876
0.0148579
0.0148281
0.0147984
0.0147688
0.0147393
0.0147102
0.0146813
0.0146528
0.0146248
0.0145974
0.0145705
0.0145444
0.014519
0.0144946
0.014471
0.0144486
0.0144272
0.0144071
0.0143883
0.0143708
0.0143547
0.0143402
0.0143273
0.0143159
0.0143063
0.0142984
0.0142923
0.0142879
0.0142854
0.0142847
0.0142859
0.0142888
0.0142935
0.0143
0.0143083
0.0143181
0.0143296
0.0143425
0.0143568
0.0143725
0.0143893
0.0144072
0.0144259
0.0144454
0.0144655
0.014486
0.0145067
0.0145275
0.0145481
0.0145684
0.0145881
0.0146071
0.0146251
0.0146419
0.0146574
0.0146713
0.0146834
0.0146936
0.0147016
0.0147074
0.0147106
0.0147112
0.0147091
0.0147042
0.0146962
0.0146852
0.0146711
0.0146538
0.0146333
0.0146096
0.0145827
0.0145526
0.0145194
0.0144831
0.0144439
0.0144018
0.014357
0.0143096
0.0142598
0.0142077
0.0141535
0.0140974
0.0140397
0.0139805
0.01392
0.0138585
0.0137962
0.0137333
0.0136701
0.0136067
0.0135434
0.0134803
0.0134178
0.0133559
0.0132948
0.0132348
0.013176
0.0131186
0.0130625
0.0130081
0.0129554
0.0129044
0.0128553
0.0128082
0.012763
0.0127198
0.0126787
0.0126396
0.0126026
0.0125676
0.0125347
0.0125039
0.012475
0.0124481
0.0124231
0.0124
0.0123787
0.0123593
0.0123416
0.0123256
0.0123113
0.0122986
0.0122875
0.012278
0.0122701
0.0122637
0.0122588
0.0122555
0.0122538
0.0122536
0.0122551
0.0122582
0.0122631
0.0122699
0.0122785
0.0122894
0.0123033
0.0123152
0.0159463
0.0159468
0.0159468
0.0159456
0.0159435
0.0159405
0.0159367
0.015932
0.0159265
0.0159203
0.0159134
0.0159059
0.0158977
0.0158888
0.0158794
0.0158694
0.0158589
0.0158478
0.0158362
0.0158241
0.0158115
0.0157985
0.0157849
0.0157709
0.0157564
0.0157414
0.015726
0.0157101
0.0156938
0.015677
0.0156597
0.015642
0.0156238
0.0156051
0.015586
0.0155664
0.0155463
0.0155257
0.0155047
0.0154831
0.0154611
0.0154385
0.0154155
0.015392
0.0153679
0.0153434
0.0153184
0.0152929
0.0152669
0.0152404
0.0152134
0.015186
0.0151582
0.0151299
0.0151013
0.0150722
0.0150429
0.0150131
0.0149831
0.0149529
0.0149224
0.0148918
0.0148611
0.0148303
0.0147994
0.0147687
0.0147381
0.0147076
0.0146775
0.0146476
0.0146182
0.0145893
0.014561
0.0145334
0.0145065
0.0144804
0.0144553
0.0144312
0.0144082
0.0143865
0.014366
0.0143469
0.0143292
0.0143131
0.0142985
0.0142856
0.0142745
0.0142651
0.0142575
0.0142517
0.0142478
0.0142458
0.0142456
0.0142474
0.014251
0.0142564
0.0142636
0.0142725
0.0142831
0.0142953
0.0143089
0.0143239
0.0143402
0.0143576
0.014376
0.0143952
0.0144151
0.0144355
0.0144562
0.014477
0.0144977
0.0145182
0.0145382
0.0145575
0.0145759
0.0145932
0.0146092
0.0146237
0.0146364
0.0146472
0.014656
0.0146625
0.0146665
0.0146679
0.0146666
0.0146625
0.0146554
0.0146452
0.014632
0.0146155
0.0145958
0.014573
0.0145468
0.0145175
0.0144851
0.0144496
0.014411
0.0143696
0.0143254
0.0142786
0.0142294
0.0141778
0.0141241
0.0140686
0.0140113
0.0139525
0.0138924
0.0138313
0.0137693
0.0137067
0.0136438
0.0135807
0.0135177
0.013455
0.0133927
0.0133311
0.0132704
0.0132107
0.0131522
0.0130951
0.0130395
0.0129854
0.0129331
0.0128825
0.0128339
0.0127872
0.0127424