/*--------------------------------*- C++ -*----------------------------------*\
  =========                 |
  \\      /  F ield         | OpenFOAM: The Open Source CFD Toolbox
   \\    /   O peration     | Website:  https://openfoam.org
    \\  /    A nd           | Version:  6
     \\/     M anipulation  |
\*---------------------------------------------------------------------------*/
FoamFile
{
    version     2.0;
    format      ascii;
    class       volVectorField;
    location    "0";
    object      U;
}
// * * * * * * * * * * * * * * * * * * * * * * * * * * * * * * * * * * * * * //

dimensions      [0 1 -1 0 0 0 0];

internalField   nonuniform List<vector> 
40000
(
(-3.69886e-07 3.69762e-07 0)
(5.98804e-07 -4.02012e-07 0)
(4.54988e-06 -1.37152e-06 0)
(1.15001e-05 -2.12861e-06 0)
(2.07716e-05 -2.66088e-06 0)
(3.16529e-05 -2.9991e-06 0)
(4.35168e-05 -3.17897e-06 0)
(5.5839e-05 -3.2341e-06 0)
(6.81961e-05 -3.19249e-06 0)
(8.02523e-05 -3.07657e-06 0)
(9.17449e-05 -2.90409e-06 0)
(0.000102471 -2.68912e-06 0)
(0.000112276 -2.44281e-06 0)
(0.000121045 -2.174e-06 0)
(0.000128694 -1.88963e-06 0)
(0.000135164 -1.59517e-06 0)
(0.000140416 -1.29484e-06 0)
(0.000144428 -9.91871e-07 0)
(0.000147187 -6.88639e-07 0)
(0.000148691 -3.86852e-07 0)
(0.000148944 -8.76546e-08 0)
(0.000147953 2.08266e-07 0)
(0.000145728 5.00597e-07 0)
(0.00014228 7.89317e-07 0)
(0.000137622 1.07464e-06 0)
(0.000131762 1.35696e-06 0)
(0.000124711 1.6368e-06 0)
(0.000116476 1.91478e-06 0)
(0.000107059 2.19155e-06 0)
(9.64645e-05 2.46783e-06 0)
(8.46908e-05 2.74433e-06 0)
(7.17348e-05 3.02173e-06 0)
(5.75905e-05 3.30069e-06 0)
(4.22499e-05 3.58184e-06 0)
(2.57022e-05 3.86575e-06 0)
(7.93486e-06 4.15292e-06 0)
(-1.10664e-05 4.4438e-06 0)
(-3.13175e-05 4.73876e-06 0)
(-5.28354e-05 5.0381e-06 0)
(-7.56384e-05 5.34204e-06 0)
(-9.97449e-05 5.65075e-06 0)
(-0.000125174 5.96428e-06 0)
(-0.000151944 6.28265e-06 0)
(-0.000180075 6.60577e-06 0)
(-0.000209583 6.93349e-06 0)
(-0.000240487 7.26559e-06 0)
(-0.000272801 7.60176e-06 0)
(-0.00030654 7.94161e-06 0)
(-0.000341716 8.28471e-06 0)
(-0.000378339 8.6305e-06 0)
(-0.000416417 8.9784e-06 0)
(-0.000455954 9.32772e-06 0)
(-0.000496951 9.67768e-06 0)
(-0.000539407 1.00275e-05 0)
(-0.000583316 1.03762e-05 0)
(-0.000628667 1.07228e-05 0)
(-0.000675446 1.10662e-05 0)
(-0.000723634 1.14054e-05 0)
(-0.000773207 1.1739e-05 0)
(-0.000824136 1.20658e-05 0)
(-0.000876384 1.23845e-05 0)
(-0.000929912 1.26935e-05 0)
(-0.000984671 1.29915e-05 0)
(-0.00104061 1.32767e-05 0)
(-0.00109766 1.35477e-05 0)
(-0.00115577 1.38026e-05 0)
(-0.00121485 1.40399e-05 0)
(-0.00127482 1.42577e-05 0)
(-0.0013356 1.44542e-05 0)
(-0.00139709 1.46276e-05 0)
(-0.00145919 1.47761e-05 0)
(-0.00152178 1.48977e-05 0)
(-0.00158474 1.49907e-05 0)
(-0.00164795 1.50531e-05 0)
(-0.00171128 1.50832e-05 0)
(-0.00177458 1.50791e-05 0)
(-0.0018377 1.5039e-05 0)
(-0.00190049 1.49614e-05 0)
(-0.00196279 1.48445e-05 0)
(-0.00202444 1.46868e-05 0)
(-0.00208524 1.44868e-05 0)
(-0.00214504 1.42432e-05 0)
(-0.00220364 1.39547e-05 0)
(-0.00226085 1.36204e-05 0)
(-0.00231649 1.32391e-05 0)
(-0.00237035 1.28102e-05 0)
(-0.00242225 1.2333e-05 0)
(-0.00247197 1.18072e-05 0)
(-0.00251933 1.12324e-05 0)
(-0.00256412 1.06087e-05 0)
(-0.00260614 9.93639e-06 0)
(-0.0026452 9.21581e-06 0)
(-0.0026811 8.44769e-06 0)
(-0.00271365 7.63298e-06 0)
(-0.00274267 6.77288e-06 0)
(-0.00276798 5.86887e-06 0)
(-0.0027894 4.92268e-06 0)
(-0.00280677 3.93631e-06 0)
(-0.00281994 2.91205e-06 0)
(-0.00282875 1.85246e-06 0)
(-0.00283309 7.60345e-07 0)
(-0.00283282 -3.61198e-07 0)
(-0.00282784 -1.50883e-06 0)
(-0.00281805 -2.67894e-06 0)
(-0.00280338 -3.86771e-06 0)
(-0.00278377 -5.07106e-06 0)
(-0.00275916 -6.28472e-06 0)
(-0.00272954 -7.50422e-06 0)
(-0.0026949 -8.72491e-06 0)
(-0.00265523 -9.94198e-06 0)
(-0.00261059 -1.11505e-05 0)
(-0.002561 -1.23454e-05 0)
(-0.00250656 -1.35216e-05 0)
(-0.00244734 -1.4674e-05 0)
(-0.00238346 -1.57972e-05 0)
(-0.00231506 -1.68862e-05 0)
(-0.00224228 -1.79359e-05 0)
(-0.00216531 -1.89411e-05 0)
(-0.00208432 -1.9897e-05 0)
(-0.00199955 -2.07988e-05 0)
(-0.00191121 -2.16419e-05 0)
(-0.00181956 -2.24219e-05 0)
(-0.00172486 -2.31348e-05 0)
(-0.0016274 -2.37767e-05 0)
(-0.00152746 -2.43442e-05 0)
(-0.00142537 -2.48341e-05 0)
(-0.00132144 -2.52438e-05 0)
(-0.001216 -2.55708e-05 0)
(-0.00110939 -2.58133e-05 0)
(-0.00100195 -2.59699e-05 0)
(-0.000894043 -2.60397e-05 0)
(-0.00078601 -2.60221e-05 0)
(-0.00067821 -2.59173e-05 0)
(-0.000570994 -2.57256e-05 0)
(-0.000464712 -2.54483e-05 0)
(-0.000359709 -2.50868e-05 0)
(-0.000256323 -2.46432e-05 0)
(-0.000154881 -2.412e-05 0)
(-5.57009e-05 -2.35201e-05 0)
(4.09111e-05 -2.2847e-05 0)
(0.000134664 -2.21044e-05 0)
(0.000225284 -2.12967e-05 0)
(0.000312511 -2.04282e-05 0)
(0.000396108 -1.95039e-05 0)
(0.000475854 -1.85289e-05 0)
(0.000551551 -1.75085e-05 0)
(0.000623021 -1.64483e-05 0)
(0.000690109 -1.5354e-05 0)
(0.000752684 -1.42312e-05 0)
(0.000810636 -1.30858e-05 0)
(0.00086388 -1.19235e-05 0)
(0.000912352 -1.07502e-05 0)
(0.000956012 -9.57135e-06 0)
(0.000994843 -8.39253e-06 0)
(0.00102885 -7.21904e-06 0)
(0.00105806 -6.05597e-06 0)
(0.00108251 -4.90814e-06 0)
(0.00110227 -3.78011e-06 0)
(0.00111743 -2.6761e-06 0)
(0.00112808 -1.60002e-06 0)
(0.00113434 -5.55398e-07 0)
(0.00113633 4.54593e-07 0)
(0.00113421 1.42716e-06 0)
(0.00112811 2.35989e-06 0)
(0.00111821 3.25076e-06 0)
(0.00110467 4.0981e-06 0)
(0.00108767 4.90062e-06 0)
(0.0010674 5.65735e-06 0)
(0.00104404 6.36766e-06 0)
(0.00101777 7.03119e-06 0)
(0.000988801 7.64781e-06 0)
(0.000957311 8.21763e-06 0)
(0.000923495 8.74087e-06 0)
(0.000887547 9.21788e-06 0)
(0.000849657 9.64901e-06 0)
(0.000810018 1.00346e-05 0)
(0.000768819 1.03747e-05 0)
(0.000726253 1.06695e-05 0)
(0.000682514 1.09184e-05 0)
(0.000637797 1.11207e-05 0)
(0.000592304 1.12749e-05 0)
(0.000546245 1.13792e-05 0)
(0.00049984 1.14304e-05 0)
(0.000453323 1.14247e-05 0)
(0.000406944 1.13571e-05 0)
(0.00036098 1.1221e-05 0)
(0.000315732 1.10086e-05 0)
(0.000271538 1.071e-05 0)
(0.000228773 1.03137e-05 0)
(0.00018786 9.80581e-06 0)
(0.000149275 9.17058e-06 0)
(0.000113551 8.39009e-06 0)
(8.12818e-05 7.44514e-06 0)
(5.31169e-05 6.31684e-06 0)
(2.97436e-05 4.99072e-06 0)
(1.18432e-05 3.46677e-06 0)
(-1.12207e-09 1.77795e-06 0)
(-5.53154e-06 2.33591e-08 0)
(-5.45018e-06 -1.46958e-06 0)
(-1.78155e-06 -1.78131e-06 0)
(4.03088e-07 -6.00286e-07 0)
(6.0732e-06 -6.06498e-06 0)
(1.83443e-05 -1.24194e-05 0)
(3.71063e-05 -1.77966e-05 0)
(6.09577e-05 -2.17937e-05 0)
(8.84528e-05 -2.44449e-05 0)
(0.000118224 -2.59147e-05 0)
(0.000149059 -2.63975e-05 0)
(0.000179926 -2.60779e-05 0)
(0.000209976 -2.5117e-05 0)
(0.000238519 -2.36508e-05 0)
(0.000265004 -2.1792e-05 0)
(0.000288999 -1.96333e-05 0)
(0.00031017 -1.72505e-05 0)
(0.000328265 -1.47046e-05 0)
(0.0003431 -1.20447e-05 0)
(0.000354542 -9.30956e-06 0)
(0.000362504 -6.52946e-06 0)
(0.000366931 -3.7274e-06 0)
(0.000367794 -9.20386e-07 0)
(0.000365084 1.87962e-06 0)
(0.000358803 4.6648e-06 0)
(0.000348963 7.43075e-06 0)
(0.00033558 1.01758e-05 0)
(0.000318673 1.29006e-05 0)
(0.000298257 1.56072e-05 0)
(0.000274348 1.82994e-05 0)
(0.000246955 2.09814e-05 0)
(0.000216083 2.36585e-05 0)
(0.00018173 2.63359e-05 0)
(0.000143889 2.90194e-05 0)
(0.000102546 3.17143e-05 0)
(5.76815e-05 3.44259e-05 0)
(9.26899e-06 3.71593e-05 0)
(-4.27228e-05 3.99189e-05 0)
(-9.83301e-05 4.27087e-05 0)
(-0.000157593 4.55321e-05 0)
(-0.000220556 4.8392e-05 0)
(-0.000287265 5.12905e-05 0)
(-0.000357769 5.42291e-05 0)
(-0.000432117 5.72085e-05 0)
(-0.000510359 6.02289e-05 0)
(-0.000592542 6.32897e-05 0)
(-0.000678714 6.63895e-05 0)
(-0.00076892 6.95264e-05 0)
(-0.000863199 7.26975e-05 0)
(-0.000961589 7.58994e-05 0)
(-0.00106412 7.91279e-05 0)
(-0.00117082 8.23783e-05 0)
(-0.0012817 8.56449e-05 0)
(-0.00139678 8.89214e-05 0)
(-0.00151605 9.22009e-05 0)
(-0.0016395 9.54756e-05 0)
(-0.00176713 9.87372e-05 0)
(-0.00189888 0.000101977 0)
(-0.00203473 0.000105184 0)
(-0.00217461 0.000108349 0)
(-0.00231845 0.00011146 0)
(-0.00246617 0.000114506 0)
(-0.00261766 0.000117473 0)
(-0.00277281 0.00012035 0)
(-0.00293148 0.000123122 0)
(-0.00309351 0.000125775 0)
(-0.00325874 0.000128295 0)
(-0.00342697 0.000130666 0)
(-0.003598 0.000132873 0)
(-0.00377158 0.000134899 0)
(-0.00394747 0.000136728 0)
(-0.0041254 0.000138345 0)
(-0.00430508 0.000139732 0)
(-0.00448618 0.000140873 0)
(-0.00466839 0.000141751 0)
(-0.00485133 0.000142349 0)
(-0.00503464 0.000142651 0)
(-0.00521793 0.000142641 0)
(-0.00540077 0.000142303 0)
(-0.00558274 0.000141623 0)
(-0.00576338 0.000140586 0)
(-0.00594222 0.000139177 0)
(-0.00611879 0.000137385 0)
(-0.00629258 0.000135196 0)
(-0.00646308 0.000132601 0)
(-0.00662977 0.00012959 0)
(-0.00679212 0.000126153 0)
(-0.00694958 0.000122286 0)
(-0.00710161 0.000117981 0)
(-0.00724765 0.000113236 0)
(-0.00738715 0.000108048 0)
(-0.00751956 0.000102418 0)
(-0.00764432 9.63467e-05 0)
(-0.00776089 8.98388e-05 0)
(-0.00786872 8.29002e-05 0)
(-0.0079673 7.55389e-05 0)
(-0.00805611 6.77654e-05 0)
(-0.00813464 5.95924e-05 0)
(-0.00820241 5.10348e-05 0)
(-0.00825898 4.21099e-05 0)
(-0.00830389 3.28375e-05 0)
(-0.00833675 2.32395e-05 0)
(-0.00835717 1.33402e-05 0)
(-0.00836481 3.16614e-06 0)
(-0.00835935 -7.2538e-06 0)
(-0.00834054 -1.78887e-05 0)
(-0.00830813 -2.87055e-05 0)
(-0.00826194 -3.96692e-05 0)
(-0.00820182 -5.0743e-05 0)
(-0.00812767 -6.18883e-05 0)
(-0.00803945 -7.30651e-05 0)
(-0.00793716 -8.42318e-05 0)
(-0.00782086 -9.53457e-05 0)
(-0.00769064 -0.000106363 0)
(-0.00754668 -0.00011724 0)
(-0.0073892 -0.000127931 0)
(-0.00721846 -0.00013839 0)
(-0.00703478 -0.000148574 0)
(-0.00683857 -0.000158436 0)
(-0.00663024 -0.000167932 0)
(-0.0064103 -0.000177019 0)
(-0.00617928 -0.000185653 0)
(-0.00593778 -0.000193795 0)
(-0.00568645 -0.000201404 0)
(-0.00542597 -0.000208443 0)
(-0.00515707 -0.000214876 0)
(-0.00488053 -0.000220672 0)
(-0.00459717 -0.0002258 0)
(-0.00430782 -0.000230234 0)
(-0.00401337 -0.00023395 0)
(-0.00371472 -0.000236928 0)
(-0.00341278 -0.000239153 0)
(-0.00310851 -0.000240612 0)
(-0.00280286 -0.000241296 0)
(-0.00249678 -0.000241203 0)
(-0.00219125 -0.000240332 0)
(-0.00188722 -0.000238687 0)
(-0.00158564 -0.000236277 0)
(-0.00128746 -0.000233116 0)
(-0.000993603 -0.000229221 0)
(-0.000704962 -0.000224612 0)
(-0.000422411 -0.000219314 0)
(-0.00014679 -0.000213358 0)
(0.0001211 -0.000206775 0)
(0.000380497 -0.000199601 0)
(0.000630685 -0.000191876 0)
(0.000870995 -0.000183639 0)
(0.00110081 -0.000174937 0)
(0.00131958 -0.000165814 0)
(0.00152678 -0.000156318 0)
(0.00172198 -0.000146499 0)
(0.00190479 -0.000136406 0)
(0.00207489 -0.00012609 0)
(0.002232 -0.000115601 0)
(0.00237594 -0.000104991 0)
(0.00250657 -9.4307e-05 0)
(0.00262379 -8.35994e-05 0)
(0.0027276 -7.29152e-05 0)
(0.00281804 -6.22999e-05 0)
(0.00289519 -5.1797e-05 0)
(0.00295921 -4.14479e-05 0)
(0.00301029 -3.12911e-05 0)
(0.00304867 -2.13627e-05 0)
(0.00307465 -1.16958e-05 0)
(0.00308855 -2.32028e-06 0)
(0.00309073 6.737e-06 0)
(0.0030816 1.54524e-05 0)
(0.00306159 2.38054e-05 0)
(0.00303113 3.17788e-05 0)
(0.00299072 3.93582e-05 0)
(0.00294083 4.65323e-05 0)
(0.00288198 5.32924e-05 0)
(0.00281469 5.96322e-05 0)
(0.00273948 6.55475e-05 0)
(0.00265688 7.10359e-05 0)
(0.00256743 7.60963e-05 0)
(0.00247168 8.07282e-05 0)
(0.00237016 8.49315e-05 0)
(0.00226343 8.87055e-05 0)
(0.00215203 9.20487e-05 0)
(0.00203653 9.49574e-05 0)
(0.00191748 9.74253e-05 0)
(0.00179546 9.94423e-05 0)
(0.00167107 0.000100994 0)
(0.00154491 0.00010206 0)
(0.00141765 0.000102613 0)
(0.00128995 0.000102618 0)
(0.00116255 0.000102031 0)
(0.00103624 0.000100799 0)
(0.00091188 9.88554e-05 0)
(0.000790411 9.61238e-05 0)
(0.000672866 9.25148e-05 0)
(0.000560383 8.79277e-05 0)
(0.000454211 8.22526e-05 0)
(0.000355711 7.53753e-05 0)
(0.000266348 6.71881e-05 0)
(0.000187661 5.76107e-05 0)
(0.000121196 4.66309e-05 0)
(6.83802e-05 3.43838e-05 0)
(3.02968e-05 2.1304e-05 0)
(7.24447e-06 8.40497e-06 0)
(-2.10208e-06 -2.11209e-06 0)
(-1.47004e-06 -5.44949e-06 0)
(1.37815e-06 -4.56523e-06 0)
(1.24653e-05 -1.83508e-05 0)
(3.26548e-05 -3.25873e-05 0)
(6.14209e-05 -4.4588e-05 0)
(9.67478e-05 -5.3613e-05 0)
(0.000136781 -5.96631e-05 0)
(0.000179735 -6.30194e-05 0)
(0.000223969 -6.40577e-05 0)
(0.00026805 -6.31608e-05 0)
(0.000310757 -6.06809e-05 0)
(0.000351076 -5.69273e-05 0)
(0.000388177 -5.21646e-05 0)
(0.000421392 -4.6616e-05 0)
(0.000450196 -4.04667e-05 0)
(0.000474179 -3.38694e-05 0)
(0.000493033 -2.69482e-05 0)
(0.000506531 -1.98026e-05 0)
(0.00051451 -1.25111e-05 0)
(0.000516861 -5.13462e-06 0)
(0.000513515 2.28136e-06 0)
(0.000504432 9.70396e-06 0)
(0.000489598 1.71109e-05 0)
(0.000469008 2.44888e-05 0)
(0.000442672 3.18314e-05 0)
(0.0004106 3.91381e-05 0)
(0.000372803 4.64128e-05 0)
(0.00032929 5.36631e-05 0)
(0.000280065 6.08988e-05 0)
(0.000225125 6.81316e-05 0)
(0.000164457 7.5374e-05 0)
(9.80429e-05 8.26391e-05 0)
(2.58541e-05 8.994e-05 0)
(-5.21462e-05 9.7289e-05 0)
(-0.000136003 0.000104698 0)
(-0.000225769 0.000112177 0)
(-0.000321502 0.000119737 0)
(-0.000423267 0.000127384 0)
(-0.000531133 0.000135125 0)
(-0.000645171 0.000142964 0)
(-0.000765455 0.000150905 0)
(-0.00089206 0.000158949 0)
(-0.00102506 0.000167094 0)
(-0.00116452 0.000175338 0)
(-0.00131052 0.000183676 0)
(-0.00146311 0.000192103 0)
(-0.00162234 0.000200609 0)
(-0.00178828 0.000209185 0)
(-0.00196094 0.000217818 0)
(-0.00214037 0.000226494 0)
(-0.00232657 0.000235198 0)
(-0.00251955 0.000243912 0)
(-0.00271928 0.000252617 0)
(-0.00292575 0.000261291 0)
(-0.00313889 0.000269911 0)
(-0.00335863 0.000278451 0)
(-0.00358489 0.000286886 0)
(-0.00381756 0.000295186 0)
(-0.00405649 0.000303321 0)
(-0.00430153 0.000311259 0)
(-0.00455249 0.000318967 0)
(-0.00480916 0.00032641 0)
(-0.00507129 0.00033355 0)
(-0.00533861 0.000340351 0)
(-0.00561082 0.000346772 0)
(-0.00588759 0.000352775 0)
(-0.00616856 0.000358317 0)
(-0.00645333 0.000363357 0)
(-0.00674147 0.000367852 0)
(-0.00703253 0.000371759 0)
(-0.00732601 0.000375036 0)
(-0.00762139 0.000377638 0)
(-0.00791811 0.000379524 0)
(-0.00821558 0.000380651 0)
(-0.00851319 0.000380977 0)
(-0.00881027 0.000380461 0)
(-0.00910617 0.000379064 0)
(-0.00940016 0.000376749 0)
(-0.00969152 0.000373479 0)
(-0.00997948 0.00036922 0)
(-0.0102633 0.000363941 0)
(-0.0105421 0.000357614 0)
(-0.0108151 0.000350212 0)
(-0.0110815 0.000341713 0)
(-0.0113404 0.000332099 0)
(-0.011591 0.000321354 0)
(-0.0118324 0.000309468 0)
(-0.0120637 0.000296435 0)
(-0.0122841 0.000282251 0)
(-0.0124927 0.000266922 0)
(-0.0126886 0.000250454 0)
(-0.012871 0.000232861 0)
(-0.0130391 0.000214162 0)
(-0.013192 0.000194382 0)
(-0.013329 0.00017355 0)
(-0.0134493 0.000151702 0)
(-0.0135522 0.00012888 0)
(-0.0136369 0.000105132 0)
(-0.0137029 8.0511e-05 0)
(-0.0137495 5.50762e-05 0)
(-0.0137761 2.88925e-05 0)
(-0.0137823 2.03055e-06 0)
(-0.0137676 -2.54337e-05 0)
(-0.0137316 -5.34188e-05 0)
(-0.013674 -8.18386e-05 0)
(-0.0135945 -0.000110602 0)
(-0.013493 -0.000139614 0)
(-0.0133693 -0.000168774 0)
(-0.0132233 -0.00019798 0)
(-0.0130552 -0.000227124 0)
(-0.012865 -0.000256099 0)
(-0.012653 -0.000284792 0)
(-0.0124194 -0.000313091 0)
(-0.0121645 -0.000340881 0)
(-0.0118889 -0.000368048 0)
(-0.0115931 -0.000394477 0)
(-0.0112777 -0.000420055 0)
(-0.0109433 -0.000444671 0)
(-0.0105908 -0.000468213 0)
(-0.010221 -0.000490575 0)
(-0.0098349 -0.000511655 0)
(-0.00943342 -0.000531353 0)
(-0.00901768 -0.000549575 0)
(-0.00858881 -0.000566235 0)
(-0.00814801 -0.000581249 0)
(-0.00769654 -0.000594544 0)
(-0.0072357 -0.000606054 0)
(-0.00676686 -0.000615719 0)
(-0.00629141 -0.00062349 0)
(-0.00581076 -0.000629327 0)
(-0.00532637 -0.000633199 0)
(-0.0048397 -0.000635086 0)
(-0.00435224 -0.000634976 0)
(-0.00386548 -0.000632871 0)
(-0.00338089 -0.000628781 0)
(-0.00289994 -0.000622726 0)
(-0.00242408 -0.000614741 0)
(-0.00195475 -0.000604865 0)
(-0.00149332 -0.000593153 0)
(-0.00104116 -0.000579666 0)
(-0.000599563 -0.000564476 0)
(-0.000169783 -0.000547663 0)
(0.000246994 -0.000529318 0)
(0.000649644 -0.000509536 0)
(0.00103712 -0.000488422 0)
(0.00140844 -0.000466086 0)
(0.00176272 -0.000442642 0)
(0.00209915 -0.00041821 0)
(0.00241701 -0.000392915 0)
(0.00271567 -0.000366881 0)
(0.00299459 -0.000340236 0)
(0.00325334 -0.000313109 0)
(0.00349155 -0.000285627 0)
(0.00370898 -0.000257917 0)
(0.00390547 -0.000230103 0)
(0.00408093 -0.000202307 0)
(0.00423539 -0.000174645 0)
(0.00436895 -0.000147231 0)
(0.0044818 -0.000120171 0)
(0.00457419 -9.35667e-05 0)
(0.00464648 -6.75125e-05 0)
(0.00469907 -4.20958e-05 0)
(0.00473243 -1.73966e-05 0)
(0.00474709 6.51301e-06 0)
(0.00474366 2.95685e-05 0)
(0.00472275 5.17133e-05 0)
(0.00468505 7.28987e-05 0)
(0.00463129 9.30835e-05 0)
(0.0045622 0.000112234 0)
(0.00447856 0.000130322 0)
(0.00438118 0.000147327 0)
(0.00427087 0.000163232 0)
(0.00414847 0.000178027 0)
(0.00401482 0.000191702 0)
(0.00387078 0.000204251 0)
(0.00371721 0.000215669 0)
(0.00355499 0.000225949 0)
(0.003385 0.000235081 0)
(0.00320815 0.000243051 0)
(0.00302534 0.000249838 0)
(0.00283752 0.000255414 0)
(0.00264564 0.000259737 0)
(0.00245072 0.000262754 0)
(0.0022538 0.000264394 0)
(0.00205599 0.00026457 0)
(0.00185846 0.000263172 0)
(0.00166248 0.000260069 0)
(0.0014694 0.000255106 0)
(0.0012807 0.000248101 0)
(0.00109796 0.000238853 0)
(0.000922919 0.000227137 0)
(0.000757424 0.000212722 0)
(0.000603462 0.00019538 0)
(0.000463114 0.000174921 0)
(0.000338502 0.000151242 0)
(0.000231687 0.000124426 0)
(0.000144495 9.49036e-05 0)
(7.82315e-05 6.37404e-05 0)
(3.32547e-05 3.31171e-05 0)
(8.48908e-06 7.26323e-06 0)
(3.13672e-08 -5.51112e-06 0)
(2.1464e-06 -1.15572e-05 0)
(1.79108e-05 -3.71786e-05 0)
(4.47907e-05 -6.13855e-05 0)
(8.16735e-05 -8.14346e-05 0)
(0.000125861 -9.64749e-05 0)
(0.000175148 -0.000106526 0)
(0.000227467 -0.000111998 0)
(0.000280902 -0.000113461 0)
(0.000333752 -0.000111517 0)
(0.000384544 -0.00010674 0)
(0.00043203 -9.96485e-05 0)
(0.00047517 -9.06953e-05 0)
(0.000513113 -8.02704e-05 0)
(0.000545174 -6.87027e-05 0)
(0.000570811 -5.62667e-05 0)
(0.000589603 -4.31881e-05 0)
(0.00060123 -2.965e-05 0)
(0.000605457 -1.57985e-05 0)
(0.000602115 -1.74773e-06 0)
(0.000591087 1.24155e-05 0)
(0.000572298 2.66278e-05 0)
(0.000545701 4.08449e-05 0)
(0.000511271 5.50392e-05 0)
(0.000468994 6.91963e-05 0)
(0.000418867 8.33125e-05 0)
(0.000360885 9.73927e-05 0)
(0.000295042 0.000111448 0)
(0.000221328 0.000125495 0)
(0.000139724 0.000139554 0)
(5.02036e-05 0.000153644 0)
(-4.72698e-05 0.00016779 0)
(-0.000152742 0.000182013 0)
(-0.00026627 0.000196334 0)
(-0.000387919 0.000210775 0)
(-0.000517761 0.000225353 0)
(-0.000655879 0.000240083 0)
(-0.000802358 0.00025498 0)
(-0.00095729 0.000270052 0)
(-0.00112077 0.000285308 0)
(-0.00129289 0.00030075 0)
(-0.00147374 0.000316378 0)
(-0.00166342 0.00033219 0)
(-0.00186202 0.000348178 0)
(-0.00206961 0.000364331 0)
(-0.00228626 0.000380637 0)
(-0.00251204 0.000397076 0)
(-0.00274699 0.000413629 0)
(-0.00299115 0.000430269 0)
(-0.00324454 0.000446969 0)
(-0.00350715 0.000463697 0)
(-0.00377897 0.000480417 0)
(-0.00405996 0.000497089 0)
(-0.00435004 0.000513673 0)
(-0.00464913 0.00053012 0)
(-0.0049571 0.000546383 0)
(-0.0052738 0.000562408 0)
(-0.00559907 0.000578139 0)
(-0.00593267 0.000593517 0)
(-0.00627436 0.00060848 0)
(-0.00662387 0.000622962 0)
(-0.00698086 0.000636897 0)
(-0.00734499 0.000650212 0)
(-0.00771584 0.000662836 0)
(-0.00809299 0.000674694 0)
(-0.00847595 0.000685708 0)
(-0.0088642 0.000695801 0)
(-0.00925717 0.000704893 0)
(-0.00965425 0.000712904 0)
(-0.0100548 0.000719752 0)
(-0.0104581 0.000725357 0)
(-0.0108635 0.000729639 0)
(-0.0112701 0.000732517 0)
(-0.0116771 0.000733913 0)
(-0.0120837 0.00073375 0)
(-0.012489 0.000731953 0)
(-0.012892 0.000728451 0)
(-0.0132918 0.000723175 0)
(-0.0136874 0.000716061 0)
(-0.0140777 0.000707048 0)
(-0.0144617 0.000696081 0)
(-0.0148383 0.000683109 0)
(-0.0152065 0.000668089 0)
(-0.0155649 0.000650983 0)
(-0.0159127 0.00063176 0)
(-0.0162485 0.000610398 0)
(-0.0165713 0.000586881 0)
(-0.0168799 0.000561202 0)
(-0.0171732 0.000533364 0)
(-0.0174499 0.000503378 0)
(-0.0177091 0.000471264 0)
(-0.0179496 0.000437053 0)
(-0.0181703 0.000400785 0)
(-0.0183702 0.000362513 0)
(-0.0185482 0.000322297 0)
(-0.0187035 0.000280209 0)
(-0.0188349 0.000236333 0)
(-0.0189418 0.000190762 0)
(-0.0190232 0.0001436 0)
(-0.0190784 9.49613e-05 0)
(-0.0191067 4.49712e-05 0)
(-0.0191075 -6.23536e-06 0)
(-0.0190802 -5.85138e-05 0)
(-0.0190244 -0.00011171 0)
(-0.0189396 -0.000165661 0)
(-0.0188257 -0.000220197 0)
(-0.0186823 -0.000275137 0)
(-0.0185094 -0.000330297 0)
(-0.018307 -0.000385483 0)
(-0.0180751 -0.000440499 0)
(-0.017814 -0.000495143 0)
(-0.017524 -0.000549208 0)
(-0.0172054 -0.000602486 0)
(-0.0168588 -0.000654768 0)
(-0.0164849 -0.000705842 0)
(-0.0160842 -0.000755499 0)
(-0.0156577 -0.000803532 0)
(-0.0152063 -0.000849735 0)
(-0.0147311 -0.000893908 0)
(-0.0142331 -0.000935856 0)
(-0.0137136 -0.000975392 0)
(-0.0131739 -0.00101234 0)
(-0.0126155 -0.00104652 0)
(-0.0120398 -0.00107777 0)
(-0.0114483 -0.00110596 0)
(-0.0108428 -0.00113094 0)
(-0.010225 -0.00115259 0)
(-0.00959647 -0.00117081 0)
(-0.00895918 -0.00118551 0)
(-0.00831493 -0.00119661 0)
(-0.00766561 -0.00120405 0)
(-0.00701311 -0.00120781 0)
(-0.00635937 -0.00120785 0)
(-0.0057063 -0.00120418 0)
(-0.00505582 -0.00119682 0)
(-0.00440985 -0.00118581 0)
(-0.00377028 -0.00117119 0)
(-0.00313895 -0.00115305 0)
(-0.00251769 -0.00113149 0)
(-0.00190825 -0.00110661 0)
(-0.00131235 -0.00107854 0)
(-0.000731625 -0.00104742 0)
(-0.000167638 -0.00101343 0)
(0.000378127 -0.000976736 0)
(0.000904278 -0.000937521 0)
(0.00140952 -0.000895989 0)
(0.00189265 -0.000852349 0)
(0.00235259 -0.000806819 0)
(0.00278835 -0.000759625 0)
(0.00319908 -0.000710997 0)
(0.00358403 -0.000661169 0)
(0.00394256 -0.000610377 0)
(0.00427418 -0.000558856 0)
(0.00457848 -0.00050684 0)
(0.00485522 -0.000454559 0)
(0.00510422 -0.00040224 0)
(0.00532547 -0.0003501 0)
(0.00551904 -0.000298351 0)
(0.00568511 -0.000247195 0)
(0.00582397 -0.000196821 0)
(0.00593602 -0.000147409 0)
(0.00602174 -9.91272e-05 0)
(0.0060817 -5.21279e-05 0)
(0.00611655 -6.55158e-06 0)
(0.00612702 3.74759e-05 0)
(0.00611392 7.98427e-05 0)
(0.00607809 0.000120451 0)
(0.00602045 0.000159216 0)
(0.00594195 0.000196068 0)
(0.00584361 0.000230946 0)
(0.00572646 0.000263803 0)
(0.00559156 0.000294601 0)
(0.00544001 0.000323309 0)
(0.00527293 0.000349903 0)
(0.00509146 0.000374361 0)
(0.00489675 0.000396666 0)
(0.00468997 0.000416797 0)
(0.00447233 0.000434727 0)
(0.00424503 0.000450424 0)
(0.00400931 0.000463843 0)
(0.00376646 0.000474923 0)
(0.00351779 0.000483587 0)
(0.00326465 0.000489731 0)
(0.00300848 0.000493226 0)
(0.00275076 0.000493911 0)
(0.00249309 0.000491592 0)
(0.00223713 0.000486036 0)
(0.0019847 0.000476975 0)
(0.0017377 0.000464101 0)
(0.0014982 0.000447077 0)
(0.0012684 0.000425541 0)
(0.00105062 0.000399129 0)
(0.000847303 0.000367506 0)
(0.000660979 0.000330424 0)
(0.000494168 0.000287809 0)
(0.000349277 0.000239913 0)
(0.00022843 0.00018756 0)
(0.000133187 0.000132538 0)
(6.42561e-05 7.81887e-05 0)
(2.156e-05 3.04736e-05 0)
(1.80931e-06 9.8661e-08 0)
(2.69362e-06 -2.09121e-05 0)
(2.19921e-05 -6.11681e-05 0)
(5.39705e-05 -9.68177e-05 0)
(9.69275e-05 -0.000125654 0)
(0.000147491 -0.000147022 0)
(0.000203112 -0.000161094 0)
(0.000261483 -0.000168461 0)
(0.000320487 -0.000169904 0)
(0.000378242 -0.000166258 0)
(0.000433104 -0.000158327 0)
(0.000483662 -0.000146853 0)
(0.000528728 -0.000132497 0)
(0.000567311 -0.000115833 0)
(0.000598603 -9.7354e-05 0)
(0.000621953 -7.74739e-05 0)
(0.000636847 -5.6538e-05 0)
(0.000642885 -3.48286e-05 0)
(0.00063976 -1.25728e-05 0)
(0.000627247 1.00503e-05 0)
(0.000605179 3.29029e-05 0)
(0.00057344 5.58832e-05 0)
(0.000531946 7.8919e-05 0)
(0.000480643 0.000101964 0)
(0.00041949 0.000124992 0)
(0.000348458 0.000147993 0)
(0.000267521 0.000170973 0)
(0.000176651 0.000193946 0)
(7.58174e-05 0.000216935 0)
(-3.50188e-05 0.000239967 0)
(-0.000155905 0.000263072 0)
(-0.000286899 0.000286284 0)
(-0.000428069 0.000309635 0)
(-0.000579491 0.000333156 0)
(-0.000741253 0.000356877 0)
(-0.000913451 0.000380823 0)
(-0.00109619 0.000405016 0)
(-0.00128957 0.000429475 0)
(-0.0014937 0.000454213 0)
(-0.00170871 0.000479237 0)
(-0.0019347 0.000504552 0)
(-0.00217177 0.000530153 0)
(-0.00242004 0.000556033 0)
(-0.00267961 0.000582177 0)
(-0.00295054 0.000608567 0)
(-0.00323293 0.000635176 0)
(-0.00352683 0.000661973 0)
(-0.00383228 0.000688921 0)
(-0.0041493 0.000715978 0)
(-0.0044779 0.000743093 0)
(-0.00481805 0.000770214 0)
(-0.00516969 0.000797279 0)
(-0.00553275 0.000824224 0)
(-0.00590712 0.000850977 0)
(-0.00629264 0.00087746 0)
(-0.00668915 0.000903593 0)
(-0.00709641 0.000929287 0)
(-0.00751417 0.00095445 0)
(-0.00794213 0.000978984 0)
(-0.00837993 0.00100279 0)
(-0.0088272 0.00102575 0)
(-0.00928349 0.00104777 0)
(-0.00974832 0.00106873 0)
(-0.0102211 0.0010885 0)
(-0.0107014 0.00110698 0)
(-0.0111884 0.00112403 0)
(-0.0116815 0.00113953 0)
(-0.01218 0.00115335 0)
(-0.012683 0.00116536 0)
(-0.0131897 0.00117544 0)
(-0.0136992 0.00118345 0)
(-0.0142106 0.00118928 0)
(-0.0147228 0.00119279 0)
(-0.0152348 0.00119387 0)
(-0.0157456 0.00119238 0)
(-0.016254 0.00118823 0)
(-0.0167587 0.00118129 0)
(-0.0172587 0.00117147 0)
(-0.0177525 0.00115866 0)
(-0.0182391 0.00114277 0)
(-0.0187169 0.00112373 0)
(-0.0191847 0.00110145 0)
(-0.0196412 0.00107589 0)
(-0.0200848 0.00104697 0)
(-0.0205144 0.00101467 0)
(-0.0209284 0.000978953 0)
(-0.0213254 0.000939803 0)
(-0.0217041 0.000897217 0)
(-0.0220631 0.000851208 0)
(-0.0224009 0.000801802 0)
(-0.0227164 0.000749039 0)
(-0.0230081 0.000692978 0)
(-0.0232747 0.000633691 0)
(-0.0235151 0.000571266 0)
(-0.0237279 0.000505808 0)
(-0.0239122 0.00043744 0)
(-0.0240667 0.000366299 0)
(-0.0241905 0.00029254 0)
(-0.0242827 0.000216334 0)
(-0.0243422 0.000137866 0)
(-0.0243685 5.73404e-05 0)
(-0.0243607 -2.50269e-05 0)
(-0.0243183 -0.000109004 0)
(-0.0242407 -0.000194344 0)
(-0.0241275 -0.000280788 0)
(-0.0239785 -0.000368066 0)
(-0.0237935 -0.000455895 0)
(-0.0235723 -0.000543982 0)
(-0.0233151 -0.000632024 0)
(-0.0230219 -0.000719714 0)
(-0.0226931 -0.000806734 0)
(-0.0223291 -0.000892764 0)
(-0.0219304 -0.000977478 0)
(-0.0214976 -0.00106055 0)
(-0.0210316 -0.00114166 0)
(-0.0205333 -0.00122047 0)
(-0.0200036 -0.00129667 0)
(-0.0194438 -0.00136995 0)
(-0.018855 -0.00143998 0)
(-0.0182388 -0.00150647 0)
(-0.0175965 -0.00156914 0)
(-0.0169297 -0.0016277 0)
(-0.0162402 -0.00168189 0)
(-0.0155298 -0.00173147 0)
(-0.0148003 -0.00177621 0)
(-0.0140537 -0.0018159 0)
(-0.0132919 -0.00185035 0)
(-0.0125173 -0.00187941 0)
(-0.0117317 -0.00190293 0)
(-0.0109376 -0.0019208 0)
(-0.0101371 -0.00193293 0)
(-0.00933247 -0.00193926 0)
(-0.00852603 -0.00193977 0)
(-0.00772007 -0.00193444 0)
(-0.00691689 -0.00192331 0)
(-0.00611876 -0.00190642 0)
(-0.00532794 -0.00188388 0)
(-0.00454666 -0.00185578 0)
(-0.00377709 -0.00182228 0)
(-0.00302135 -0.00178355 0)
(-0.0022815 -0.00173977 0)
(-0.00155952 -0.00169117 0)
(-0.000857306 -0.001638 0)
(-0.000176659 -0.00158052 0)
(0.00048072 -0.00151903 0)
(0.00111324 -0.00145382 0)
(0.00171943 -0.00138523 0)
(0.00229794 -0.00131358 0)
(0.00284755 -0.00123923 0)
(0.00336716 -0.00116253 0)
(0.00385582 -0.00108384 0)
(0.00431272 -0.00100354 0)
(0.00473718 -0.000921976 0)
(0.00512867 -0.000839528 0)
(0.0054868 -0.000756553 0)
(0.00581132 -0.000673405 0)
(0.00610211 -0.000590428 0)
(0.0063592 -0.000507956 0)
(0.00658274 -0.00042631 0)
(0.006773 -0.000345792 0)
(0.00693041 -0.000266691 0)
(0.00705546 -0.000189276 0)
(0.00714879 -0.000113795 0)
(0.00721112 -4.04766e-05 0)
(0.00724329 3.04711e-05 0)
(0.0072462 9.88625e-05 0)
(0.00722084 0.000164533 0)
(0.00716828 0.000227338 0)
(0.00708964 0.000287155 0)
(0.0069861 0.000343877 0)
(0.00685891 0.000397417 0)
(0.00670935 0.000447701 0)
(0.00653872 0.000494669 0)
(0.0063484 0.000538269 0)
(0.00613975 0.000578456 0)
(0.00591421 0.000615187 0)
(0.00567321 0.000648419 0)
(0.00541822 0.000678099 0)
(0.00515075 0.000704167 0)
(0.00487235 0.000726543 0)
(0.0045846 0.000745125 0)
(0.00428913 0.000759786 0)
(0.00398764 0.000770362 0)
(0.0036819 0.000776653 0)
(0.00337375 0.000778413 0)
(0.00306513 0.000775348 0)
(0.00275811 0.000767117 0)
(0.00245484 0.000753324 0)
(0.00215764 0.000733529 0)
(0.00186894 0.000707255 0)
(0.00159132 0.000674006 0)
(0.00132748 0.000633295 0)
(0.00108022 0.000584702 0)
(0.000852389 0.000527946 0)
(0.000646816 0.000463018 0)
(0.000466211 0.000390368 0)
(0.00031301 0.000311208 0)
(0.000189161 0.000227952 0)
(9.60039e-05 0.00014484 0)
(3.49063e-05 6.89508e-05 0)
(3.53599e-06 1.21319e-05 0)
(3.04753e-06 -3.19232e-05 0)
(2.4719e-05 -8.88691e-05 0)
(6.01322e-05 -0.000137004 0)
(0.000107083 -0.000174992 0)
(0.000161616 -0.00020263 0)
(0.000220853 -0.00022039 0)
(0.000282271 -0.00022912 0)
(0.000343591 -0.000229851 0)
(0.0004028 -0.000223662 0)
(0.000458135 -0.000211601 0)
(0.000508075 -0.00019464 0)
(0.000551327 -0.000173654 0)
(0.000586804 -0.000149414 0)
(0.000613607 -0.000122584 0)
(0.000631001 -9.37311e-05 0)
(0.000638395 -6.33294e-05 0)
(0.000635323 -3.17704e-05 0)
(0.000621418 6.28383e-07 0)
(0.000596399 3.36148e-05 0)
(0.000560053 6.69935e-05 0)
(0.000512221 0.000100618 0)
(0.000452781 0.000134384 0)
(0.000381644 0.000168222 0)
(0.000298738 0.000202091 0)
(0.000204003 0.000235975 0)
(9.7386e-05 0.000269877 0)
(-2.11673e-05 0.000303813 0)
(-0.000151714 0.000337812 0)
(-0.000294319 0.000371909 0)
(-0.000449053 0.000406145 0)
(-0.000616 0.000440561 0)
(-0.00079525 0.0004752 0)
(-0.000986905 0.000510104 0)
(-0.00119108 0.000545309 0)
(-0.00140788 0.00058085 0)
(-0.00163744 0.000616753 0)
(-0.00187988 0.000653042 0)
(-0.00213533 0.00068973 0)
(-0.00240393 0.000726826 0)
(-0.00268579 0.000764329 0)
(-0.00298104 0.00080223 0)
(-0.00328979 0.000840515 0)
(-0.00361214 0.000879157 0)
(-0.00394818 0.000918125 0)
(-0.00429796 0.000957376 0)
(-0.00466156 0.000996861 0)
(-0.00503898 0.00103652 0)
(-0.00543024 0.00107629 0)
(-0.0058353 0.00111609 0)
(-0.00625411 0.00115585 0)
(-0.00668657 0.00119546 0)
(-0.00713256 0.00123483 0)
(-0.00759191 0.00127384 0)