/*--------------------------------*- C++ -*----------------------------------*\
  =========                 |
  \\      /  F ield         | OpenFOAM: The Open Source CFD Toolbox
   \\    /   O peration     | Website:  https://openfoam.org
    \\  /    A nd           | Version:  6
     \\/     M anipulation  |
\*---------------------------------------------------------------------------*/
FoamFile
{
    version     2.0;
    format      ascii;
    class       volScalarField;
    location    "0";
    object      p;
}
// * * * * * * * * * * * * * * * * * * * * * * * * * * * * * * * * * * * * * //

dimensions      [0 2 -2 0 0 0 0];

internalField   nonuniform List<scalar> 
13046
(
0.14773
0.112667
0.117078
0.156298
0.12663
0.100916
0.145373
0.103094
0.127119
0.0743506
-0.272879
0.0852979
0.154648
0.0628296
0.10883
0.0935987
0.0749955
-0.211168
0.147914
0.118577
0.139017
0.091271
0.0794534
-0.222531
0.146438
0.132169
0.117145
0.146254
0.0708798
0.108302
0.154991
0.0919556
0.106397
0.148879
0.128255
0.124427
0.144344
0.132621
0.128748
0.142537
0.0985695
0.116155
0.134186
0.146199
0.134935
0.143542
0.132837
0.12845
0.143403
0.104265
0.119408
0.0564884
0.133526
0.103986
0.0687021
0.100786
0.13466
-0.0483391
0.131113
0.070986
0.137144
0.0136175
0.112663
0.0895526
-0.134295
0.112162
0.131979
-0.028514
0.065267
0.136374
-0.0117949
0.0659687
-0.0770102
0.126473
0.0707706
0.148999
0.128698
0.130651
0.0764275
0.118708
-0.100906
0.146125
0.12191
0.116227
0.0868597
-0.164394
0.101403
0.101862
0.10113
-0.124107
0.107458
0.0819384
-0.139384
0.138371
0.133442
-0.00724479
-0.0282133
0.0944289
0.0976041
0.104502
0.10082
-0.109349
0.149845
0.134982
0.121458
0.136876
0.112367
0.077945
0.136552
0.0882547
0.117051
0.032243
0.0838675
-0.389517
0.154332
0.081262
0.107798
0.132666
0.136316
-0.0427978
0.0868491
-0.0125729
0.0884845
0.0662155
-0.303207
0.0835764
0.150271
0.014793
0.103602
0.144187
0.0978796
0.108409
0.109331
0.0854836
-0.105437
0.126906
-0.0670765
0.097787
0.154646
0.0825333
0.100753
0.14309
0.0856899
0.121834
0.131545
0.0731963
0.12533
0.136163
0.12753
0.0958116
0.139587
-0.00808888
0.110633
0.13924
0.130388
0.0954782
0.036016
0.109675
0.0232085
0.110831
0.12719
0.124977
0.147423
0.0549133
0.126054
0.0692869
0.0882989
-0.268961
0.0474113
0.0834833
-0.361056
0.124384
-0.0885242
0.0947679
0.146984
0.0729089
0.0877153
0.145772
0.12869
0.0656712
0.0937137
-0.229272
0.0765547
0.144472
0.0890017
0.0820819
0.138335
0.122396
0.0852585
0.145641
0.0889324
0.122296
0.0488344
0.114971
0.149175
0.0376283
0.101944
0.0995891
0.0949266
-0.1579
0.108305
0.0978028
-0.094774
0.0829551
-0.147036
0.104107
0.0432233
0.0895407
0.129817
0.1482
0.120498
0.0685233
-0.0953252
-0.178396
0.0848705
0.101171
0.14319
0.134458
0.123574
0.147087
0.0846337
0.103514
0.110558
0.0903331
-0.0890944
0.147239
0.0554191
0.119198
0.0881764
-0.32594
0.0479537
0.128563
0.0935185
0.0334409
0.0904998
-0.118928
0.105783
0.11958
0.0412642
0.127934
0.144135
0.0288579
0.103248
-0.0441178
0.0952446
0.114185
0.106976
0.00520475
0.120978
0.0907549
-0.331916
0.0388963
0.143916
0.0888385
0.0980414
0.0436089
0.0770134
-0.424259
0.139496
0.148173
0.113703
0.132274
0.126459
0.0421053
0.0503913
0.12747
0.119874
0.0689655
0.114602
-0.131075
0.146264
0.0478624
0.0954906
0.107081
-0.0227885
0.118598
0.126571
-0.0556799
0.0917178
0.136598
0.128833
0.142643
0.119725
0.0243392
0.123612
0.148096
0.0328586
0.0928285
0.147732
0.149386
0.145039
0.0777125
0.0826716
0.12174
0.00638536
0.120026
0.117662
0.091134
-0.0731856
0.14489
0.0860856
0.105367
0.127949
0.0979123
0.0230307
0.13502
-0.0181127
0.0806061
0.136374
0.0602552
0.094088
0.128757
0.130011
-0.0362589
0.0795962
-0.050996
0.0839664
0.0918055
-0.209657
0.0816997
0.137171
0.0084986
0.0908861
-0.473477
0.0812466
0.0107329
0.149522
0.135907
0.0872335
0.142275
0.0303539
0.113224
0.0959467
0.105537
-0.127004
0.0585605
0.0944631
0.133239
-0.0660909
0.0943166
0.11252
0.0825857
0.11626
0.135641
0.0289555
0.107913
0.0667712
0.122393
0.103597
0.0760772
-0.181805
0.0524341
0.0730666
0.133338
0.13191
0.013681
0.103254
0.136425
0.0702517
0.126689
0.115922
0.0615333
0.134646
0.15171
0.0995077
0.12048
0.125913
0.103805
0.0318753
0.0905467
-0.155991
0.0987674
-0.057501
0.0919415
0.11374
0.13235
0.0636159
0.0285936
0.124006
0.12673
-0.051475
-0.0778402
0.0707502
0.0748726
0.0811124
-0.454276
0.0211796
0.0509004
0.0762784
-0.405674
0.133773
0.0329285
0.116179
0.0926943
0.097417
-0.183864
0.134059
0.135851
0.00624922
-0.0152771
0.0799743
0.0757842
0.101114
-0.222253
0.0622825
0.0368803
0.0750554
-0.445933
0.129577
0.147056
0.127219
0.033748
-0.416871
0.081615
0.147363
0.0647569
0.0815895
0.0800159
-0.21671
0.0953657
-0.459008
0.090146
-0.0169131
0.142005
0.09802
0.124393
0.144169
0.125592
0.132776
0.0674109
0.0813503
-0.310883
0.140918
0.112066
0.131905
0.131419
0.144693
0.132602
0.131611
0.0840458
0.0357363
0.132294
0.121798
0.141955
0.150469
0.0866203
0.138294
0.133865
0.0438184
0.0624951
0.0814846
0.0856062
-0.22914
-0.236286
0.0857654
0.0844379
0.078565
-0.173486
0.0983871
0.0712812
0.134074
0.00359538
0.140227
0.0806117
0.104572
0.103682
-0.00473033
0.1185
-0.387127
0.0934108
0.000821156
0.105216
0.0794221
-0.159299
0.0534522
0.0849659
-0.332092
0.0896672
-0.482111
-0.0178878
-0.518899
0.0835994
-0.000797461
-0.00941121
0.124417
0.111296
-0.289269
0.0988174
0.03579
0.118424
-0.0750495
0.100058
0.0849618
0.069031
-0.275237
0.150903
0.114793
0.102264
-0.197919
0.102475
0.0706465
0.101493
0.120303
0.00485885
-0.0308776
0.107175
0.117606
0.0886361
-0.589204
-0.0454466
-0.444046
0.0857041
-0.000284784
0.153192
0.122353
0.100975
-0.232401
0.057405
0.0990899
0.101304
0.0484743
-0.241944
0.0926914
0.0888639
-0.182095
0.0741518
-0.133579
0.110348
0.138258
0.0425551
0.0639103
-0.0403539
0.132019
0.078742
0.0713413
0.106713
-0.188253
0.146893
0.14688
0.0640927
0.0479768
0.0919294
0.0943792
0.146614
0.0750051
0.0900744
0.139075
0.00178308
0.0798677
-0.0430999
0.0998131
0.114476
-0.186856
0.0829957
0.0991857
0.109676
0.105049
-0.0667083
-0.51555
0.0809232
0.010188
0.151408
0.150589
0.108008
0.107306
0.115326
0.110989
0.144684
0.136388
0.0793438
0.0277054
0.0778515
0.0618162
-0.450284
0.0905984
-0.0153845
-0.219673
0.0637106
0.0989594
0.136666
0.0630728
0.0873655
-0.0257328
0.0971209
0.117195
0.073475
-0.116737
0.114628
-0.388145
0.024548
0.0883336
-0.359183
0.029315
0.0900944
0.138612
-0.00659419
0.0851654
0.143923
0.0804586
0.114609
0.0898792
0.0871127
-0.212631
-0.025233
0.114002
0.113259
0.0904228
-0.108482
0.117574
0.136996
0.0812883
0.0702827
0.123673
0.048288
0.128551
0.142749
0.0919185
0.109719
0.0890233
-0.229055
0.0818931
0.126703
-0.0618354
0.0872346
0.147015
0.104287
0.119351
0.0984397
0.0683107
-0.220106
0.145897
0.0943845
0.104094
0.142723
0.0824183
0.131781
-0.0122591
0.11564
0.117228
0.0645175
0.0735188
-0.352712
0.0709897
0.0712322
-0.336617
0.0866979
-0.115418
0.117298
0.118806
0.0554164
0.127377
0.0721678
-0.390118
0.0521533
0.0983448
-0.104533
0.113923
0.0893581
-0.506597
-0.0292846
-0.010387
-0.532893
0.081803
0.0749857
-0.173987
0.108599
0.0898848
-0.284985
0.0610919
0.0976084
0.102518
0.0803389
-0.203544
0.083241
-0.171613
0.106833
-0.0965697
0.101303
0.122582
-0.0140925
0.089086
0.155312
0.113848
0.108213
0.11171
-0.0751871
0.107514
0.109586
0.114808
-0.0617093
0.111389
0.0693759
-0.167158
0.14315
0.0129129
0.075818
0.143561
0.0537302
0.0757298
0.123716
-0.0159342
0.109017
0.122025
-0.0267439
0.110417
0.146697
0.0979452
0.12712
0.147198
0.0381919
0.0964398
0.104211
-0.190286
0.0642046
0.0217486
0.0927408
-0.358662
0.0119876
0.0955477
-0.359641
0.145623
0.0954045
0.095196
-0.413287
0.0895399
0.0093645
0.122988
0.0855556
-0.0935923
0.0911088
-0.406421
-0.00276979
0.153038
0.130944
0.107185
0.14764
0.0484914
0.107558
0.0552696
0.113777
0.130723
0.0993023
-0.272198
0.0458268
-0.0315995
0.116881
0.114573
0.0705947
0.0932495
-0.238634
0.140272
0.0328365
0.107149
0.154549
0.119848
0.110948
-0.266191
0.0541786
0.0962622
0.0935041
-0.119358
0.112596
0.0617079
0.0533732
0.078705
0.0790342
-0.344547
-0.369819
0.136973
0.0543111
0.123515
0.00480742
0.127435
0.112923
0.139371
0.095815
0.129876
-0.322157
0.0318519
-0.315884
0.0941187
0.0326598
0.0958419
0.134869
-0.0204754
0.103292
0.0536338
0.0428202
-0.28197
-0.308249
0.0946921
0.0943592
0.121086
0.0194896
0.120732
0.140916
0.0589391
0.113973
0.0793875
0.0725527
-0.294675
0.146995
0.038951
0.119603
0.146538
0.0762256
0.123136
0.0650931
0.0748394
-0.330416
0.144603
0.00604056
0.0975067
0.0199887
0.0878763
0.123789
0.139165
0.0542325
0.0749722
-0.0872062
0.110234
0.0826618
0.0869087
-0.561508
-0.0335032
0.138998
0.0386639
0.111143
0.0857136
0.076925
-0.255707
0.0588365
0.0564475
0.135549
0.0096219
0.0778246
-0.480744
0.138449
0.135793
0.0857864
0.126386
0.0872599
0.130158
0.145486
0.0916284
0.132251
0.139824
0.141934
0.0932835
0.131559
0.110048
0.12447
0.140737
0.0638031
0.12252
0.145542
0.0650427
0.124066
0.0960029
-0.344255
0.0160026
0.146522
0.0883622
0.089061
0.0630843
-0.265184
0.0924891
0.123887
0.120742
-0.0324548
-0.0577867
0.10437
0.101726
0.143716
0.10665
0.0975469
0.137954
0.0200877
0.0788253
0.132892
-0.00134507
0.108965
0.147014
0.128299
0.118791
0.118659
-0.0571486
0.106962
0.149615
0.104881
0.120067
0.130513
0.0174338
0.117809
0.137677
0.0320282
0.0803573
0.146319
0.145208
0.124347
0.123627
0.130057
0.117502
0.143178
0.0943663
0.144528
0.134873
0.122001
0.127834
0.148413
0.149057
0.0716716
0.0634113
0.0988634
0.0939132
0.0770777
-0.128347
0.116004
0.124901
0.0957187
0.0297222
0.0804276
0.0831694
-0.154086
-0.147429
0.109828
0.10861
0.135333
0.06642
0.0887297
0.14466
0.130806
0.131184
0.118445
-0.0735209
0.103913
0.151063
0.10025
0.0978437
0.137614
0.0197612
0.0819544
0.125662
0.126725
-0.0917085
0.0790951
-0.0812117
0.0811403
0.128533
-0.0359097
0.100313
0.0192976
-0.457946
0.0785875
0.0540343
0.0720639
0.133469
0.134623
0.136865
0.0616544
0.0581708
0.0741066
0.0672024
0.108494
-0.0506861
0.112587
0.137355
0.0391373
0.0825334
0.138436
0.0604572
0.0765455
0.134225
0.142821
0.0705017
0.0879274
0.0874581
0.073982
0.135679
0.078322
0.071586
0.129235
-0.0260642
0.104708
0.147401
0.107069
0.127503
0.0735999
0.0792489
-0.291427
0.138634
0.0635904
0.0662259
0.142699
0.140209
0.0157031
0.000676958
0.0825629
0.0891818
0.0789669
-0.259841
0.0832941
0.0815314
0.0753056
-0.282998
0.0733134
0.0764869
-0.305126
0.122627
0.0815813
-0.0997808
0.139696
0.0529007
0.0860272
-0.26517
-0.230634
-0.00787567
-0.260759
-0.0833478
-0.376741
-0.153834
-0.200223
-0.383884
-0.0959671
-0.0994124
-0.421713
-0.280497
-0.0984032
-0.270883
-0.300516
-0.2434
-0.290836
-0.240378
-0.142968
-0.227839
-0.295365
-0.0757294
0.0664738
0.00369784
-0.220639
-0.0672464
-0.420966
-0.200393
-0.286326
-0.410175
-0.160239
-0.236627
-0.244677
-0.3887
-0.221993
-0.0218689
-0.0803827
-0.239561
-0.144846
-0.322338
0.0744278
-0.362065
-0.0994987
-0.0322413
-0.321102
-0.309669
-0.365101
-0.41341
-0.369532
0.0106506
-0.221587
-0.297838
-0.344657
-0.407836
0.00318218
-0.142839
-0.228881
-0.381844
-0.110607
-0.375668
-0.353324
0.0051432
-0.184484
-0.233891
-0.139018
-0.209818
0.0487464
-0.0778646
-0.0678146
-0.47944
-0.431546
-0.285015
-0.11938
-0.444803
-0.24429
-0.214404
-0.398116
-0.120477
-0.041468
-0.285918
-0.247323
-0.401202
-0.327731
-0.330737
-0.108491
-0.326766
-0.254296
-0.277993
0.0152577
-0.309511
-0.111611
0.00238006
-0.23922
-0.287575
-0.434461
-0.375963
-0.36232
-0.287569
-0.482272
-0.169638
-0.071102
-0.0184896
0.0528327
-0.315066
-0.260789
-0.416928
-0.296205
-0.37466
-0.0252944
-0.0645611
-0.140722
-0.367592
-0.444473
-0.132804
-0.0505835
-0.297882
-0.25469
-0.480511
-0.297539
-0.254329
0.0299027
0.0415313
-0.115583
-0.216131
-0.272495
-0.423289
0.0333592
-0.289532
-0.122682
-0.491738
0.00844755
-0.399725
-0.290404
-0.278683
-0.0441163
-0.256327
-0.511304
-0.353338
-0.151094
-0.301696
-0.104178
-0.136056
-0.313697
-0.0366708
-0.344956
-0.335541
-0.0320902
-0.349791
-0.289993
-0.417575
-0.195793
-0.243581
-0.0425958
-0.111895
-0.309386
-0.1211
-0.101264
-0.0122285
-0.211047
-0.285391
-0.317297
-0.0864659
-0.287249
-0.140096
-0.408319
0.064092
-0.296625
-0.0296918
0.031415
-0.219931
0.0386208
-0.0363948
-0.014727
-0.358959
-0.493153
-0.424114
-0.00713712
-0.369985
-0.384028
-0.287912
-0.380362
-0.287979
-0.333137
-0.214067
0.0311851
-0.114625
-0.322171
-0.114099
-0.351997
0.0694713
-0.316043
-0.0437341
-0.324242
-0.510767
0.0171625
0.0395237
-0.331584
-0.35723
0.0623233
-0.195303
-0.228112
-0.369847
-0.118995
-0.0255228
-0.0990423
-0.325974
-0.382899
-0.0719495
-0.209598
-0.405658
-0.115895
-0.290319
-0.400734
-0.274939
-0.0339453
-0.472883
-0.208853
-0.0706531
-0.336288
-0.486886
-0.311818
-0.296944
-0.254721
-0.1763
-0.161397
-0.319494
-0.393394
-0.28713
-0.139285
-0.0987354
-0.300087
-0.153136
-0.337254
-0.370248
-0.190523
-0.317293
-0.499936
-0.0859192
-0.0329923
-0.21153
0.0207678
-0.0215333
0.0733464
-0.292723
-0.524585
-0.277488
-0.313336
-0.256856
-0.466308
-0.183636
0.0121444
-0.125339
-0.19446
-0.33568
-0.298028
-0.0753773
-0.23195
-0.129173
-0.348
-0.272806
-0.328248
-0.300685
-0.331363
-0.320379
-0.30475
-0.404982
-0.155796
-0.216128
-0.308495
-0.146725
-0.269094
-0.286949
-0.378128
-0.30964
-0.343164
-0.357577
-0.20241
-0.454496
-0.524053
-0.257959
-0.429179
-0.4664
-0.194271
-0.31881
-0.462765
-0.0393133
-0.147215
-0.346038
-0.0767346
-0.401705
-0.160877
-0.112166
-0.281203
-0.285078
-0.0571286
-0.272803
-0.0951288
-0.385352
-0.332459
-0.0349812
-0.334445
-0.281276
-0.550594
-0.453358
-0.50607
-0.435957
-0.348109
-0.150378
-0.38324
-0.486275
-0.387831
-0.324415
0.0712874
-0.260851
-0.124603
-0.178922
-0.300317
-0.245027
-0.334122
-0.418694
-0.172034
-0.322915
0.00962187
-0.109988
-0.31914
-0.318654
-0.219073
0.0652401
-0.0854684
-0.0201286
-0.109514
-0.308515
-0.217113
-0.292791
-0.394705
-0.448629
-0.355444
-0.235514
-0.124627
-0.386995
-0.445024
-0.289991
-0.232956
-0.294728
-0.244477
-0.0586021
-0.262931
-0.313265
0.00155393
-0.0391155
-0.335239
-0.157021
-0.0257043
-0.383955
-0.323566
-0.308544
-0.380499
-0.405297
-0.0286079
-0.401278
-0.261637
-0.00528503
-0.497579
-0.20937
-0.329426
-0.219338
-0.311717
-0.348375
-0.430198
-0.230148
-0.442
-0.351655
-0.317154
-0.319798
-0.103474
0.00545807
-0.291228
-0.178472
-0.223954
-0.268329
-0.510569
-0.066745
-0.141573
-0.34628
-0.46019
-0.186737
-0.422073
-0.257431
-0.307684
-0.35636
-0.0506727
-0.000684363
-0.313666
-0.0971701
0.0520544
-0.0586674
-0.044616
-0.0130604
-0.236156
-0.316682
-0.401029
0.0637586
-0.0591735
-0.0309181
-0.370302
-0.33043
-0.496852
-0.0862511
-0.254626
-0.266173
-0.0288443
-0.127938
-0.283304
-0.231317
-0.332424
-0.292813
-0.335981
-0.32022
-0.305907
-0.360707
-0.293445
-0.447668
-0.246346
-0.376377
-0.123898
-0.167177
-0.476329
-0.0198486
-0.0029114
-0.113445
-0.363422
-0.203779
-0.315159
-0.0945036
-0.229077
-0.415327
-0.0264229
-0.349796
0.0127079
-0.469398
-0.291242
-0.244861
-0.114539
-0.0696756
-0.28822
0.0330847
-0.279588
-0.0564644
-0.293045
-0.114895
-0.311857
-0.280249
-0.341849
-0.0490947
-0.23562
0.0583459
-0.135197
-0.45062
-0.262305
-0.164453
-0.337289
-0.3587
-0.288538
-0.370347
0.0141594
-0.279467
-0.297462
-0.0853964
-0.367942
0.00876236
0.0494167
-0.317571
0.058816
0.0222475
-0.0487439
-0.0262556
-0.195661
-0.413647
-0.371615
-0.30708
-0.0689192
-0.280508
-0.348208
0.0295806
-0.391114
-0.290784
-0.37919
-0.0138689
0.0695801
-0.393749
-0.0591864
-0.169801
0.00420167
-0.222523
-0.104753
-0.304594
0.0324127
0.0546583
-0.136227
-0.367193
-0.0687735
-0.2619
-0.15414
-0.234577
-0.254076
-0.172218
-0.248494
-0.349997
-0.397954
-0.245978
-0.154545
-0.195064
-0.0349531
-0.393876
-0.254301
-0.141022
-0.391757
-0.00450811
-0.287472
-0.305123
-0.0032634
-0.0451678
-0.18332
0.0415595
-0.306579
-0.336809
-0.100058
-0.191797
-0.17578
-0.292255
-0.336238
-0.159727
-0.131363
-0.333498
-0.321037
-0.194032
-0.464162
-0.367211
0.00742169
0.04988
0.0559644
-0.197913
0.0598188
0.0657487
0.0205817
-0.522674
-0.17943
-0.179752
0.0416507
-0.346245
-0.282345
-0.420837
-0.367927
-0.368892
0.0294125
-0.274894
-0.261721
-0.0998321
-0.136026
-0.329294
-0.308477
0.0641628
0.0287722
-0.0177976
-0.125169
-0.351018
-0.0961892
-0.156228
-0.34837
-0.231085
-0.440379
-0.385115
-0.205602
-0.263418
-0.302898
0.0102605
0.00821085
-0.506359
-0.0456549
-0.316404
-0.314313
-0.269134
0.00420582
-0.288946
-0.12365
-0.283415
-0.0128609
-0.332253
-0.282206
0.0507717
-0.500919
-0.466533
-0.311774
-0.356812
-0.52581
-0.449521
-0.34921
-0.530566
-0.252704
-0.501836
-0.424619
-0.262612
-0.368114
-0.34371
-0.29347
-0.459438
-0.435349
0.0240345
-0.0282306
-0.325558
-0.424382
-0.0212574
-0.344414
-0.281795
0.0515377
-0.339492
0.0478883
-0.269965
-0.0374209
-0.195276
-0.315953
-0.429935
-0.194867
-0.198098
-0.253322
-0.317534
-0.327857
-0.437364
-0.356261
-0.268485
-0.494445
-0.449286
0.0253385
-0.291424
-0.127622
-0.0905279
-0.349701
-0.0450419
-0.087167
-0.417199
-0.440338
-0.288658
-0.451177
-0.520627
-0.121603
-0.11361
-0.322684
-0.160113
-0.318036
0.0506961
0.0192201
-0.289491
-0.328413
0.037104
-0.0315383
-0.175156
-0.168948
-0.337646
0.0557638
-0.182051
-0.50696
-0.0105911
-0.0602497
0.00863222
-0.205997
-0.379783
-0.273729
-0.110629
-0.16866
-0.48774
0.0780103
-0.290204
-0.323232
-0.232293
-0.0123979
0.0455188
0.0571652
-0.156933
-0.214675
-0.0779215
-0.0278157
0.00386828
-0.13018
-0.0680656
-0.297219
-0.305972
-0.176319
-0.398098
-0.300609
-0.472722
-0.293976
-0.0850203
-0.461596
-0.219621
-0.274791
-0.035704
0.0558797
-0.277528
-0.430288
-0.483029
-0.0656132
-0.359654
-0.363846
-0.490746
0.00831662
-0.201386
-0.189172
-0.426271
-0.18604
-0.365439
-0.324547
-0.100801
-0.0892687
0.0140115
0.0645397
-0.344251
-0.0212776
-0.508373
-0.0107371
0.0130387
0.00962172
-0.0798548
-0.369319
-0.36727
-0.315321
-0.499713
-0.185507
-0.497943
-0.142361
-0.418909
-0.0251881
-0.34514
-0.487551
-0.0449457
-0.0682976
-0.268483
-0.265924
-0.131697
0.00665418
-0.203894
-0.239676
-0.498091
-0.0608008
-0.151449
0.0313172
-0.522426
-0.261928
-0.00839622
-0.113945
0.0411899
-0.107465
-0.323256
-0.539894
-0.506356
-0.266654
-0.478947
0.0248041
-0.486677
-0.250464
-0.266993
-0.403035
-0.0465533
-0.526124
0.00247075
-0.106383
-0.184001
-0.34587
-0.117347
-0.27546
-0.230806
-0.268839
-0.26456
-0.332376
-0.349023
-0.0836086
-0.363985
0.0576095
-0.352233
-0.180604
-0.143959
-0.0808724
0.0262316
-0.330207
-0.290404
-0.339482
-0.219178
-0.361663
0.0214578
-0.365826
-0.229957
-0.344277
-0.054872
-0.378314
-0.208539
-0.445216
0.0582991
-0.504615
-0.366027
-0.232058
-0.0409591
-0.481565
-0.482212
-0.380933
-0.448033
0.00438133
-0.233639
-0.119574
-0.037715
-0.139222
-0.156086
0.0575571
-0.172566
-0.0761222
-0.151764
-0.183084
-0.467751
-0.182275
-0.270136
-0.26749
-0.167426
-0.295049
-0.454135
-0.224251
-0.217793
-0.383897
-0.0649512
-0.200126
-0.0890404
-0.276913
0.0225145
-0.263794
-0.21517
-0.147409
-0.450589
-0.372249
-0.343716
-0.196635
-0.196269
-0.163626
-0.00381951
-0.0830505
-0.0689553
-0.220475
-0.0203827
0.0303211
0.0267706
-0.139675
-0.196805
-0.172001
-0.401785
0.0414639
-0.0327845
-0.0537744
-0.25128
-0.369445
-0.460843
-0.173942
-0.116501
-0.305958
-0.0548785
-0.0278441
-0.171047
-0.298911
-0.156248
-0.282585
-0.279821
-0.247502
-0.280986
-0.18797
-0.493694
-0.185646
-0.206173
-0.288746
-0.518126
-0.194473
-0.235335
-0.132164
-0.320616
-0.200103
-0.000766391
0.0129474
-0.182558
-0.268917
-0.0659076
-0.227762
-0.36632
-0.382612
-0.300447
-0.453489
-0.0043622
-0.241953
-0.211411
-0.107471
-0.12638
-0.122878
-0.297862
0.0544608
-0.124245
-0.383292
-0.24585
-0.24203
-0.0667204
-0.00826722
-0.12118
-0.176676
-0.473272
-0.396121
-0.285131
-0.174704
-0.232869
-0.180276
-0.373073
0.00744653
-0.159516
-0.0470689
-0.0259862
-0.204838
-0.316424
-0.1897
0.0399174
-0.354255
-0.487918
-0.190681
0.0478214
-0.334209
-0.29913
-0.0798676
-0.117863
-0.0492571
-0.256963
-0.477122
-0.176177
-0.458823
-0.327647
-0.050197
-0.265912
-0.395805
-0.316002
-0.341588
-0.159604
-0.284329
-0.285469
-0.0142215
-0.38841
0.0584483
-0.0523021
-0.418606
-0.535991
-0.231816
-0.100096
-0.0302206
-0.257495
-0.284596
-0.274726
-0.311653
-0.24779
0.0656444
-0.0101171
-0.109869
-0.254328
-0.455501
0.0120839
0.0589334
0.00794124
-0.068844
-0.0105411
-0.198955
-0.453278
-0.503607
-0.48787
0.0251787
-0.237414
-0.270096
-0.254736
0.0565701
-0.335396
-0.29926
-0.439124
-0.255923
-0.38655
0.0563456
-0.172542
-0.0951532
-0.0137709
-0.0325208
-0.300431
-0.150716
-0.21345
-0.0932782
-0.365158
-0.165305
-0.345171
0.0187101
-0.307664
-0.363184
-0.269455
-0.297943
-0.003037
-0.339556
-0.0522797
-0.0231495
-0.0121601
-0.420757
-0.221033
-0.286462
-0.27586
0.00784147
-0.210149
-0.169452
-0.178545
-0.368155
-0.250898
0.0198526
-0.144266
0.0106949
-0.497197
-0.371261
-0.328919
0.027717
-0.254227
-0.232547
-0.422269
-0.292156
-0.241277
0.0284794
-0.219325
-0.278602
-0.436339
0.0530338
0.0449296
-0.370709
0.0185574
-0.338019
-0.419259
-0.363816
-0.237745
-0.474618
-0.137485
-0.26754
-0.348132
-0.28789
0.00140868
-0.252941
-0.0551401
-0.259552
-0.379282
-0.278865
-0.4984
-0.474526
-0.270141
-0.224818
-0.165559
-0.397728
-0.270647
-0.0208593
-0.156758
-0.34924
-0.32271
-0.00485539
-0.249486
-0.240422
0.0673453
-0.186391
-0.356462
-0.231098
-0.277322
0.0368839
-0.281179
-0.26427
-0.1631
-0.470056
0.000518499
-0.296891
-0.0167416
-0.2205
-0.0905109
-0.416921
-0.0479239
-0.278343
-0.422466
-0.380901
-0.220079
-0.00759992
-0.547086
-0.30884
-0.331135
0.0257458
0.0537707
-0.280047
-0.342528
-0.140511
0.0387727
-0.256515
0.00209724
-0.0294101
-0.0570962
-0.0882851
-0.197911
-0.094512
-0.101979
0.0127635
-0.229202
-0.204759
-0.2806
-0.289606
-0.219819
-0.351546
0.0358864
-0.291844
0.00317874
-0.241215
0.0269535
-0.371585
0.0464865
-0.0941078
-0.00556422
0.0287575
-0.00210881
0.0643105
-0.30562
-0.0187201
-0.210891
-0.33623
-0.310721
-0.394749
0.0103973
-0.290952
-0.16781
-0.159418
-0.287079
-0.1547
-0.378095
0.017278
-0.226076
-0.067306
-0.513291
-0.337347
-0.32936
0.0611919
-0.271329
-0.138375
-0.287153
-0.324826
-0.400393
-0.280484
-0.348342
-0.0607587
0.0179764
-0.444516
-0.1762
-0.327773
-0.363717
-0.0455907
-0.285245
-0.288817
0.0326481
-0.479902
-0.173543
-0.114057
-0.00906648
0.0529263
-0.283716
-0.331597
-0.441359
-0.274407
-0.277465
-0.329656
-0.0612523
-0.338471
-0.422918
-0.282051
-0.218717
-0.299608
-0.267607
-0.333961
-0.226227
-0.435174
-0.0750682
-0.0910861
-0.259182
-0.0719109
-0.308094
-0.478591
-0.273214
-0.501869
0.0398544
-0.324789
-0.343554
-0.372738
-0.0247006
0.0117056
-0.207599
-0.0764382
-0.269485
-0.393706
-0.202413
-0.337724
-0.312364
0.00990105
-0.169551
-0.0962127
0.0406817
-0.0657057
-0.196265
0.0301973
-0.445895
-0.203526
-0.209386
-0.161748
-0.212239
0.0243989
-0.34174
-0.16736
-0.251981
-0.292313
-0.356051
-0.324432
-0.0923917
-0.0420353
-0.0167558
-0.205294
-0.197661
0.0257542
-0.0441296
-0.273294
-0.161327
-0.420891
-0.306988
-0.0575281
-0.449742
-0.0284108
-0.344457
-0.0153922
0.0561496
0.0163356
-0.356566
-0.00795182
-0.0298277
-0.323919
0.0242337
-0.24778
0.0235059
-0.063673
-0.325902
-0.431847
-0.154123
-0.302103
-0.212372
-0.275431
-0.0327727
-0.256596
0.0300305
-0.378645
-0.294259
-0.276901
-0.372227
-0.344523
-0.0414214
0.0484737
-0.384813
-0.0560909
-0.231583
-0.166669
-0.256192
-0.137592
0.00374043
-0.0563607
-0.339073
-0.00542955
-0.0445059
0.0475934
-0.378179
-0.355082
-0.283291
-0.0802348
0.0361759
-0.0381084
-0.261504
0.0456741
-0.229885
-0.433698
-0.431275
-0.542168
-0.214891
-0.415141
0.0445913
0.0593333
-0.198194
0.06304
-0.0528369
-0.211865
0.0406186
-0.423574
0.0239985
-0.308165
0.0108812
-0.294596
-0.364148
-0.0829255
-0.201728
0.0231701
0.000541207
0.00660807
-0.335879
-0.33483
-0.458716
-0.0166576
-0.0599118
-0.279943
-0.191398
-0.0579369
-0.503488
-0.348219
-0.349625
-0.316547
-0.174846
-0.323603
-0.20891
-0.0608953
-0.222947
-0.203275
-0.0857133
-0.310791
-0.261491
-0.174573
-0.221722
-0.311607
-0.0193064
0.0172122
-0.280023
-0.0627847
-0.514852
-0.342095
-0.0143496
-0.0769485
-0.343906
0.012681
-0.407985
-0.0918629
-0.25652
-0.231313
-0.00850455
-0.291484
-0.0782045
-0.0713726
-0.123326
0.0670805
-0.11778
-0.444685
-0.156672
-0.205963
-0.0766691
0.0630741
-0.122233
-0.223538
-0.312271
-0.227931
-0.00648314
-0.406025
-0.019062
-0.324082
-0.151311
-0.0661327
-0.0895155
-0.236316
-0.0125511
0.0444096
-0.266322
-0.303625
-0.208337
-0.34544
-0.438489
-0.203517
-0.0724627
-0.39766
-0.445077
-0.269396
-0.42676
-0.0958488
-0.228116
-0.0716241
-0.29956
0.00903296
-0.224314
-0.033001
0.046049
-0.371011
-0.000461441
-0.255941
-0.206039
-0.186079
-0.0127628
-0.289757
-0.270685
-0.181089
-0.358705
-0.297722
-0.375134
-0.401701
-0.513007
0.0394155
0.0528654
-0.410668
-0.287928
-0.0825434
-0.455024
-0.281763
-0.328191
-0.11073
-0.0905891
-0.47224
-0.520486
-0.000291406
-0.281994
-0.166578
-0.288348
-0.446987
-0.429854
-0.135631
-0.032437
-0.162154
-0.477175
0.0118575
-0.0350003
-0.355174
-0.174446
-0.339254
0.0449519
-0.31661
-0.245831
-0.413683
-0.129904
0.0197434
-0.161507
-0.136383
-0.321912
-0.222353
-0.15421
0.0406519
0.0624957
-0.292186
0.0474557
-0.314135
-0.193578
-0.193943
-0.273315
-0.311811
-0.0161539
-0.210063
-0.188366
-0.321931
-0.378139
-0.20964
-0.36129
-0.116345
0.0112179
-0.357737
-0.323735
-0.202293
-0.305909
-0.2556
-0.497819
-0.282709
-0.00549936
-0.336896
-0.348369
-0.0779585
-0.203706
-0.253397
-0.136241
-0.0370505
-0.281057
-0.267946
-0.0428133
-0.274113
-0.286029
-0.210897
-0.0140132
-0.139845
-0.190157
-0.280711
-0.391326
-0.299597
0.0432821
-0.0372981
0.0531595
-0.256763
-0.117887
-0.397737
-0.233919
-0.0310316
-0.446503
-0.456643
-0.089707
-0.0318527
-0.458174
-0.291726
-0.273194
-0.283303
-0.278365
0.0610696
-0.241578
-0.293773
-0.135775
-0.311136
-0.0896037
-0.129244
-0.413184
-0.274393
-0.0635555
-0.229707
0.0456516
-0.438078
-0.350338
-0.122427
-0.157505
-0.269129
-0.170476
-0.353136
0.0514008
0.0272249
-0.119924
-0.00991341
-0.366375
-0.0217792
-0.136524
-0.111226
0.0316268
-0.452308
-0.30682
0.0598057
-0.132671
-0.47217
-0.342942
-0.0268587
0.054712
-0.237772
-0.0816576
-0.281985
-0.424821
-0.331542
-0.46433
-0.0312088
-0.335902
-0.225856
0.0267055
-0.384367
-0.277576
-0.309576
-0.192261
-0.281161
-0.347894
-0.314411
-0.410434
-0.220427
-0.0572906
0.0267008
-0.0890176
-0.250393
-0.316834
-0.479698
-0.343327
-0.156266
-0.172327
-0.0928825
-0.0796286
-0.316906
-0.255375
-0.0444904
-0.0277901
0.0560684
-0.0105843
0.035529
-0.233897
-0.420979
-0.343672
-0.379895
0.0416153
-0.204607
-0.318553
0.0295545
-0.415322
-0.0564525
-0.0929151
-0.282134
-0.279041
-0.305209
-0.3772
-0.0313398
-0.299646
-0.109406
-0.242665
0.0215462
-0.181264
0.067415
-0.365623
-0.241686
-0.362806
-0.520664
-0.296562
-0.0696399
-0.29267
-0.384504
-0.190139
0.0211712
-0.0752849
-0.365065
-0.415939
-0.326063
-0.427336
-0.277982
-0.443206
-0.276448
-0.383165
-0.0881537
-0.414257
-0.289148
0.0152043
-0.206491
-0.088243
-0.0403297
-0.280484
-0.224773
-0.337794
-0.0508274
-0.298188
-0.263122
-0.238699
-0.399067
-0.452754
-0.296895
-0.251179
-0.0805306
0.0543661
-0.0215635
-0.190541
-0.104261
-0.457622
0.0478457
-0.161744
-0.065169
-0.266052
-0.0947496
-0.341046
-0.29695
-0.0551042
0.0204057
-0.0710045
-0.184037
-0.330181
0.0618658
-0.254672
-0.0417695
0.0391316
-0.121505
-0.275198
-0.458546
-0.046897
-0.150387
-0.400484
-0.137182
-0.169029
0.0158981
-0.333798
0.0283151
0.0577706
-0.283449
-0.36145
0.0355315
-0.404915
-0.390082
-0.28966
-0.383825
-0.28721
-0.3802
-0.432273
-0.247394
-0.27939
-0.329816
-0.343267
-0.174609
-0.373018
-0.357339
-0.143789
-0.226574
-0.46083
0.0112794
0.0520076
0.0369672
-0.293986
-0.478638
0.0734962
-0.416745
-0.253358
-0.275623
-0.333308
-0.261898
-0.0918706
-0.331414
-0.351708
-0.446627
-0.444035
-0.40494
-0.344007
-0.487868
-0.24162
-0.200309
-0.253115
0.0238558
-0.202324
-0.114367
-0.245105
-0.0396961
-0.322006
-0.329838
0.0673726
-0.26614
-0.153956
-0.417016
-0.121596
0.0521859
-0.289408
-0.142067
-0.157965
-0.341377
-0.291908
-0.392315
-0.36347
-0.0844284
-0.384214
-0.263479
-0.350535
-0.281475
-0.327262
-0.388515
-0.250238
-0.305221
-0.370422
0.0512826
-0.25375
-0.259266
-0.186131
0.0175726
-0.322433
-0.439582
-0.0519685
-0.402116
-0.294914
-0.276944
-0.198621
-0.348675
-0.206583
-0.190874
0.0492247
-0.022664
-0.426961
-0.363149
-0.454755
-0.278803
-0.473523
-0.35862
-0.26973
-0.357274
-0.266285
-0.149677
0.062456
-0.314695
-0.0992292
-0.20834
0.042332
-0.348387
0.0527243
-0.157434
-0.416596
-0.148663
-0.0894161
-0.33071
-0.0209896
-0.276166
-0.0145951
-0.353877
-0.382294
-0.259008
0.0618052
0.0473074
-0.0819158
-0.13915
-0.10154
-0.477334
-0.360546
-0.0902095
0.0684821
-0.362814
-0.21722
-0.270364
-0.326055
-0.278307
-0.318982
-0.385878
-0.330414
-0.377782
-0.28664
-0.312763
-0.266118
0.0649977
-0.0337745
-0.48146
-0.0645599
-0.341704
-0.406896
-0.0527325
-0.377793
-0.297504
-0.109274
-0.338561
-0.345755
-0.241894
-0.0239723
-0.395631
-0.347913
-0.313778
-0.154681
-0.378536
0.0185557
-0.469015
-0.345093
-0.311182
-0.366507
-0.132032
-0.152128
0.019577
-0.285937
-0.067916
-0.19619
-0.159388
-0.300237
-0.127242
-0.399272
-0.390988
-0.513895
-0.145615
-0.260067
-0.313064
-0.00101587
-0.230551
-0.134676
-0.134709
-0.346295
-0.375078
-0.324546
-0.160604
-0.289879
0.0606102
-0.418686
-0.47304
-0.273227
-0.349899
-0.290443
-0.264174
-0.0913035
-0.299921
-0.248844
-0.395294
-0.271964
-0.252052
-0.30283
0.0576706
0.0413151
-0.381661
-0.331094
-0.0348871
-0.173701
-0.319486
-0.409425
-0.296944
-0.410697
-0.202031
0.00806199
-0.318065
-0.4684
-0.151676
-0.247209
-0.46612
-0.390655
-0.240164
-0.107772
0.061122
-0.40318
-0.445271
-0.179849
-0.0318858
-0.296883
-0.188259
-0.317132
-0.281044
-0.332678
-0.15413
-0.26437
-0.286215
-0.058309
-0.3142
-0.480804
-0.210268
-0.29745
-0.055029
0.0666731
-0.284501
-0.345412
-0.332559
-0.337847
-0.395398
-0.339465
-0.409442
0.0286152
-0.0442453
-0.109127
-0.265854
-0.455056
-0.0692981
0.0468367
-0.365915
-0.216429
-0.349703
-0.516283
-0.232218
-0.337253
-0.524677
-0.238366
-0.0987628
-0.451209
-0.463468
-0.379019
-0.0211745
-0.461592
-0.0538947
-0.199932
-0.317091
-0.309333
-0.336637
-0.053151
-0.489132
-0.338976
-0.290578
-0.396024
-0.19207
-0.0830746
-0.185021