/*--------------------------------*- C++ -*----------------------------------*\
  =========                 |
  \\      /  F ield         | OpenFOAM: The Open Source CFD Toolbox
   \\    /   O peration     | Website:  https://openfoam.org
    \\  /    A nd           | Version:  6
     \\/     M anipulation  |
\*---------------------------------------------------------------------------*/
FoamFile
{
    version     2.0;
    format      ascii;
    class       volVectorField;
    location    "0";
    object      U_rec;
}
// * * * * * * * * * * * * * * * * * * * * * * * * * * * * * * * * * * * * * //

dimensions      [0 1 -1 0 0 0 0];

internalField   nonuniform List<vector> 
13046
(
(-0.22624 0.120585 0)
(-0.499122 -0.172915 1.7047e-22)
(-0.139672 0.00219134 1.38063e-22)
(-0.245109 0.059281 0)
(-0.119 0.0488224 1.20054e-22)
(-0.412115 -0.148088 0)
(-0.261732 0.0674731 -3.864e-23)
(-0.463763 -0.186416 -7.46436e-23)
(-0.0993723 0.063162 8.26771e-23)
(-0.429797 0.191737 -7.24921e-22)
(-1.04108 -0.532898 0)
(0.0242535 0.107269 -2.6258e-22)
(-0.275542 0.125856 9.63875e-23)
(-0.617282 -0.256071 5.60622e-22)
(-0.0800873 0.041954 -5.43049e-23)
(-0.404917 0.227614 7.54158e-22)
(0.0140137 0.0940906 -6.262e-22)
(-1.08284 -0.475859 -1.40174e-21)
(-0.148967 0.0809422 0)
(-0.290038 -0.0871791 7.45998e-23)
(-0.305395 -0.0195425 -2.66983e-22)
(-0.410039 0.220463 3.67442e-22)
(0.0189133 0.0987874 8.44636e-22)
(-1.07524 -0.488886 0)
(-0.214177 0.08148 -8.51255e-23)
(-0.40194 -0.121562 1.78858e-22)
(-0.153367 0.00718988 0)
(-0.276494 0.143219 2.69206e-22)
(-0.645814 -0.264375 -1.508e-22)
(-0.0821127 0.0328454 1.59431e-22)
(-0.22541 0.134863 0)
(-0.522587 -0.172906 0)
(-0.148807 -0.0118719 -1.40383e-22)
(-0.205298 0.0676363 9.88364e-23)
(-0.172474 -0.000999503 -4.29418e-23)
(-0.352322 -0.0883875 -3.44855e-22)
(-0.214523 0.0501861 1.1425e-22)
(-0.172857 0.0115575 -3.54827e-23)
(-0.326287 -0.0759202 1.63014e-22)
(-0.185034 0.159741 -1.49783e-22)
(-0.286114 -0.129998 -3.06668e-23)
(-0.484818 -0.111616 3.03712e-22)
(-0.237261 0.00479786 -7.04841e-23)
(-0.196899 0.0166415 -5.0183e-23)
(-0.249482 -0.0295169 0)
(-0.252963 0.00260955 -2.0407e-23)
(-0.171853 0.0389733 8.44561e-23)
(-0.266114 -0.0503889 1.30632e-23)
(-0.237237 0.112149 0)
(-0.511105 -0.190882 1.26241e-23)
(-0.114306 0.0207094 -2.74822e-23)
(-0.460898 -0.273679 -4.68501e-22)
(-0.164738 0.18523 0)
(-0.494165 -0.0703236 7.06947e-22)
(-0.525073 -0.322332 6.70369e-22)
(-0.477727 -0.0531542 1.15168e-21)
(-0.150024 0.182058 -2.5823e-22)
(-0.954785 -0.340335 3.58978e-22)
(-0.346543 0.248055 0)
(-0.108129 -0.0124296 -2.76411e-22)
(-0.358801 0.101362 1.68969e-22)
(-0.76164 -0.399974 -4.03691e-22)
(-0.0321632 0.114288 5.55099e-22)
(0.0132086 0.102456 -4.06553e-22)
(-1.01304 -0.503516 7.08848e-22)
(-0.413524 0.182589 7.2819e-22)
(-0.332561 0.251903 0)
(-0.911815 -0.305854 0)
(-0.148007 -0.0504809 0)
(-0.319196 0.24537 1.48135e-22)
(-0.87103 -0.286466 0)
(-0.163648 -0.0627313 -2.41883e-22)
(-0.995365 -0.35679 0)
(-0.358653 0.253916 2.59446e-23)
(-0.094035 -0.00480137 -3.31063e-23)
(-0.150579 0.0941895 0)
(-0.285375 -0.0949291 -3.71228e-23)
(-0.334067 -0.0411508 2.43051e-22)
(-0.04753 0.0372591 -3.50798e-22)
(-0.375441 0.247317 8.35744e-22)
(-1.03596 -0.398996 0)
(-0.226354 0.0816175 -5.76736e-23)
(-0.424378 -0.141119 0)
(-0.132434 0.0265612 0)
(0.0171176 0.104127 4.02488e-22)
(-1.03399 -0.513807 6.79988e-22)
(-0.420794 0.188759 -4.5301e-22)
(-0.436258 0.134659 8.77577e-22)
(0.000642678 0.119674 0)
(-0.971667 -0.552281 4.61282e-22)
(-0.0347268 0.135274 0)
(-0.476788 0.0863244 0)
(-0.946033 -0.613618 -7.19488e-23)
(-0.348933 0.168151 0)
(-0.365162 0.166867 -2.67528e-22)
(-0.853537 -0.390958 -1.20706e-21)
(-0.887333 -0.420935 5.72224e-22)
(-0.0262811 0.0721337 1.3317e-22)
(-0.0134385 0.0855702 -3.49181e-22)
(-0.00809934 0.123784 1.93565e-23)
(-0.438549 0.120607 -8.5775e-22)
(-0.952142 -0.558444 0)
(-0.253663 0.0151916 -9.75815e-24)
(-0.153935 0.0466905 -7.13283e-23)
(-0.302163 -0.0791243 0)
(-0.113121 0.153887 0)
(-0.402798 -0.00990191 2.7996e-22)
(-0.511603 -0.282481 0)
(-0.15962 0.170097 -2.30492e-22)
(-0.402431 -0.218628 0)
(-0.465503 -0.0736647 9.27574e-22)
(-0.399127 0.183377 0)
(0.0209846 0.0966649 0)
(-0.932724 -0.500202 2.19953e-21)
(-0.258719 0.115897 -2.74881e-22)
(-0.571399 -0.225582 -1.2677e-22)
(-0.0907736 0.0400683 -2.28994e-22)
(-0.364424 0.19736 -2.96156e-22)
(-0.34904 0.185622 5.30782e-22)
(-0.929502 -0.407475 1.12034e-21)
(-0.0256347 0.0641549 -1.6926e-22)
(-0.878026 -0.38415 -8.26255e-22)
(-0.0330069 0.0603375 1.58169e-22)
(-0.4234 0.19602 7.53441e-22)
(-1.03287 -0.525915 2.27351e-21)
(0.0252553 0.106337 1.25934e-22)
(-0.314915 0.160732 0)
(-0.758819 -0.333033 6.61377e-22)
(-0.0525786 0.0486319 -2.32302e-22)
(-0.201655 0.162288 0)
(-0.246586 -0.101674 1.65385e-22)
(-0.516452 -0.138145 -4.84631e-23)
(-0.0409555 0.139796 0)
(-0.467182 0.0786373 0)
(-0.927102 -0.595262 0)
(-0.395567 0.158283 0)
(-0.938024 -0.477251 1.97874e-21)
(0.000673956 0.103878 4.15879e-22)
(-0.242132 0.144082 0)
(-0.569299 -0.203659 0)
(-0.135058 -0.0099247 0)
(-0.317833 0.0621433 0)
(-0.573017 -0.280652 0)
(-0.0694958 0.105855 0)
(-0.151114 0.172215 0)
(-0.447432 -0.251468 0)
(-0.459941 -0.0591453 -4.6855e-22)
(-0.112914 0.14644 2.61285e-23)
(-0.390381 -0.0102125 3.89682e-22)
(-0.497585 -0.264111 -2.09387e-22)
(-0.367355 0.112454 -6.62757e-22)
(-0.799657 -0.422818 0)
(-0.0234347 0.11001 -7.33785e-22)
(-0.102631 0.114022 0)
(-0.331628 0.0127338 -3.42152e-22)
(-0.44876 -0.211188 9.21764e-23)
(-0.638975 -0.393544 0)
(-0.438634 -0.00290508 -7.69642e-22)
(-0.695806 -0.427338 0)
(-0.426483 0.0203686 -4.44952e-22)
(-0.110554 0.168731 0)
(-0.0911868 0.160584 0)
(-0.350749 0.0314838 -3.99658e-23)
(-0.558841 -0.296296 -2.81276e-22)
(-0.0807741 0.125939 1.14422e-22)
(-0.439333 0.181675 7.71021e-22)
(0.0221036 0.108206 0)
(-1.02696 -0.546311 2.18311e-21)
(-0.409341 0.190737 7.23349e-22)
(0.0236102 0.101975 6.09851e-23)
(-0.979875 -0.510854 0)
(-0.398966 0.168404 5.25583e-22)
(-0.959702 -0.481437 0)
(0.00459416 0.101157 -4.75282e-22)
(-0.233724 0.194756 0)
(-0.613839 -0.174431 -2.15913e-22)
(-0.257035 -0.122794 -1.11169e-22)
(-0.355257 0.0199764 -3.66869e-22)
(-0.091428 0.131141 -5.10311e-23)
(-0.519901 -0.266117 0)
(0.0149111 0.111894 0)
(-1.01579 -0.572425 0)
(-0.452138 0.160441 -7.18325e-22)
(-0.216068 0.184763 0)
(-0.570143 -0.150417 3.37351e-22)
(-0.270551 -0.123292 -3.29641e-23)
(-0.100581 0.123166 0)
(-0.344256 0.00926968 0)
(-0.457317 -0.225327 0)
(-0.305662 0.0539223 -1.25891e-22)
(-0.532611 -0.25506 0)
(-0.0766291 0.099482 0)
(-0.670409 -0.299193 -6.65212e-24)
(-0.0563087 0.0643492 1.11721e-22)
(-0.302619 0.149966 -4.25932e-22)
(-0.720504 -0.310634 0)
(-0.0594126 0.0496936 2.90905e-22)
(-0.435841 0.161169 8.70707e-22)
(0.0127228 0.112883 -3.66943e-22)
(-1.01178 -0.545789 2.86351e-21)
(-0.0281742 0.134704 -3.12725e-22)
(-0.447529 0.0936765 -5.08278e-22)
(-0.923891 -0.568789 -1.96246e-21)
(-0.462514 0.112958 1.7917e-21)
(-0.970501 -0.59038 0)
(-0.01292 0.126299 3.26777e-22)
(-0.486053 -0.307355 2.61999e-23)
(-0.558467 -0.0928468 -3.69346e-22)
(-0.189989 0.210258 0)
(-0.280836 0.0892126 5.56463e-22)
(-0.370811 0.255113 -3.6576e-22)
(-0.0629169 0.0246822 2.14379e-22)
(-1.03815 -0.3897 0)
(-0.98279 -0.597491 0)
(-0.46577 0.123366 1.78352e-21)
(-0.00574119 0.121042 0)
(-0.23538 0.038751 1.90711e-22)
(-0.149675 0.0358296 3.48689e-23)
(-0.334739 -0.093697 -2.76471e-22)
(-0.265979 0.15238 0)
(-0.633745 -0.245292 2.13084e-23)
(-0.104705 0.0149088 1.19176e-22)
(-0.0378042 0.139197 -2.26164e-22)
(-0.455524 0.0827536 0)
(-0.915915 -0.578718 2.26122e-21)
(-0.294247 0.0989209 -4.70217e-22)
(-0.652 -0.297382 -9.5806e-22)
(-0.0558896 0.0725337 0)
(0.020493 0.103659 0)
(-0.985049 -0.54392 -2.51891e-21)
(-0.436179 0.1766 0)
(-0.173645 0.20245 0)
(-0.529114 -0.0740639 0)
(-0.527383 -0.342584 0)
(-0.450394 0.109651 -1.57288e-21)
(-0.954912 -0.573772 0)
(-0.0142885 0.127145 -1.85372e-23)
(-0.385823 0.027572 -2.30189e-22)
(-0.626354 -0.360765 2.52855e-22)
(-0.0814569 0.144114 0)
(-0.312856 0.172607 0)
(-0.769173 -0.32642 -6.12548e-22)
(-0.0622552 0.0381853 -1.76766e-22)
(-0.840636 -0.556545 1.9107e-21)
(-0.466936 0.0377379 9.41712e-22)
(-0.0786103 0.162015 -1.90901e-22)
(-0.440889 0.0214799 0)
(-0.737959 -0.465011 5.49682e-22)
(-0.0913765 0.16388 6.26803e-24)
(0.0171576 0.100791 3.7724e-22)
(-0.961829 -0.547486 0)
(-0.439085 0.167781 1.06687e-21)
(-0.189513 0.184218 -1.45914e-22)
(-0.355421 -0.188682 1.53452e-22)
(-0.524265 -0.111549 -6.17434e-23)
(-0.362372 0.199198 -8.4156e-22)
(0.0248761 0.0969017 6.04518e-22)
(-0.929826 -0.442726 0)
(-0.137307 0.0726144 3.50827e-23)
(-0.28353 0.00145956 1.71741e-22)
(-0.320017 -0.104192 -2.04376e-22)
(-0.359283 0.0600356 -2.69014e-22)
(-0.368003 0.037873 1.75036e-23)
(-0.666495 -0.365896 6.17166e-22)
(-0.616825 -0.343546 0)
(-0.0742218 0.134893 -1.03974e-22)
(-0.0566914 0.126253 1.06459e-22)
(-0.0297016 0.0535333 4.59296e-22)
(-0.383123 0.245836 -4.1767e-22)
(-1.06286 -0.414339 3.1384e-21)
(-0.297307 0.17617 0)
(-0.736527 -0.295383 0)
(-0.0878694 0.0186843 2.38846e-22)
(-0.44118 0.0374454 2.23829e-22)
(-0.784014 -0.500547 0)
(-0.0783781 0.158754 0)
(-0.380332 0.180291 3.27772e-22)
(-0.938896 -0.441675 0)
(-0.006065 0.0860755 -1.85783e-22)
(-0.215757 0.0212991 -5.21041e-24)
(-0.260005 -0.0251072 -7.89915e-23)
(-0.208006 0.00054167 1.62523e-24)
(-0.402473 0.0368721 5.81244e-22)
(-0.69453 -0.412769 0)
(-0.0753985 0.149344 2.25364e-22)
(-0.300577 0.186872 0)
(-0.758292 -0.295723 -8.10199e-22)
(-0.0947872 0.00835478 2.16098e-22)
(-0.294696 0.117139 0)
(-0.309556 0.123835 -5.35717e-23)
(-0.195253 0.191735 -5.93377e-23)
(-0.367687 -0.203144 -5.49969e-22)
(-0.541133 -0.113609 1.53278e-21)
(-0.399032 0.0540082 6.08934e-22)
(-0.736878 -0.439562 -7.66977e-22)
(-0.0598704 0.14236 -2.08809e-22)
(-0.391721 0.179552 0)
(0.00163695 0.0939371 6.11788e-22)
(-0.964901 -0.464086 1.22073e-21)
(-0.158958 0.160582 3.1819e-22)
(-0.377445 -0.198802 0)
(-0.450454 -0.0723163 -3.39703e-22)
(-0.122899 0.178284 2.87565e-22)
(-0.460878 -0.0139902 4.94795e-22)
(-0.640808 -0.408756 0)
(-0.341489 0.208886 2.43603e-22)
(-0.889141 -0.357094 9.36822e-22)
(-0.0629678 0.0299664 -1.15313e-22)
(-0.181079 0.193507 -1.87616e-23)
(-0.433236 -0.253833 0)
(-0.524407 -0.0899737 -9.49058e-22)
(-0.354722 0.215501 0)
(-0.364138 0.210679 0)
(-0.932118 -0.378533 7.01209e-22)
(-0.0510409 0.0393434 2.77759e-22)
(-0.94954 -0.401523 -9.99603e-22)
(-0.0333862 0.0558764 -3.09033e-22)
(0.0171291 0.111549 2.96582e-22)
(-1.02405 -0.560002 0)
(-0.445073 0.168413 7.65295e-22)
(-0.333944 0.18575 -2.98741e-22)
(-0.839202 -0.359143 0)
(-0.0494263 0.0460979 -6.71031e-23)
(-0.80125 -0.437533 -7.56886e-21)
(0.0151958 0.0808685 -5.37972e-22)
(-0.34473 0.167924 -2.86251e-21)
(-0.324596 -0.0036071 7.39199e-23)
(-0.117441 0.106041 0)
(-0.384901 -0.163642 0)
(-0.339382 0.0981766 -5.03327e-22)
(-0.716151 -0.363791 0)
(-0.0375891 0.105495 -3.77649e-22)
(0.0106862 0.110025 2.056e-22)
(-0.423545 0.161705 -1.71131e-21)
(-0.994795 -0.525022 -1.90036e-21)
(-0.547452 -0.343845 0)
(-0.488686 -0.0502065 -4.8372e-22)
(-0.1508 0.188926 2.92576e-22)
(-0.868202 -0.567709 2.86405e-21)
(-0.460738 0.0541585 6.20141e-22)
(-0.0628436 0.152359 0)
(-0.583042 -0.25599 5.91046e-22)
(-0.0703503 0.0702262 0)
(-0.339665 0.131407 -6.52355e-22)
(-0.765637 -0.372947 -4.58059e-22)
(-0.029189 0.0863432 -1.11847e-22)
(-0.571812 -0.263391 -4.19604e-22)
(-0.0677697 0.0805271 1.14072e-23)
(-0.402091 0.226248 3.80807e-23)
(0.00714319 0.0879168 -2.65793e-22)
(-1.07348 -0.466351 2.06011e-21)
(-0.470839 -0.311401 0)
(-0.597616 -0.11233 -1.4182e-22)
(-0.207634 0.221125 0)
(-0.353303 0.137921 6.64505e-22)
(-0.814658 -0.398512 5.59032e-22)
(-0.0204787 0.093606 1.564e-22)
(-0.332258 0.0524588 0)
(-0.576722 -0.296669 4.08629e-22)
(-0.0703028 0.115427 0)
(-0.430715 -0.0336096 0)
(-0.48941 -0.282015 0)
(-0.132128 0.163312 0)
(-0.236225 0.095874 8.00392e-23)
(-0.474 -0.174107 2.67925e-22)
(-0.117531 0.0286318 1.3709e-23)
(-0.138152 0.18627 -3.49897e-22)
(-0.479756 -0.0321459 -1.27914e-21)
(-0.604893 -0.385146 -5.43571e-22)
(-0.445348 0.144713 9.96628e-22)
(-0.996054 -0.561193 -2.46123e-21)
(0.00689607 0.116799 3.40142e-22)
(-0.876431 -0.55704 -1.87823e-21)
(-0.449903 0.0662131 -6.28688e-22)
(-0.0515816 0.14671 -2.1184e-22)
(-0.291085 0.239727 4.28643e-22)
(-0.226858 -0.110566 -4.30749e-22)
(-0.793296 -0.239962 1.31766e-21)
(-0.369727 0.234436 -2.19071e-22)
(-0.359955 0.230123 1.64583e-22)
(-0.965668 -0.37806 2.30296e-22)
(-0.999358 -0.393547 0)
(-0.0478164 0.0400465 1.27304e-22)
(-0.0600044 0.0291387 9.23302e-23)
(0.0187885 0.086531 7.32336e-22)
(-0.842848 -0.439909 8.33581e-21)
(-0.352878 0.176297 -5.01824e-22)
(-0.371333 0.205878 4.80185e-23)
(0.026625 0.100601 -8.30487e-22)
(-0.968222 -0.450754 0)
(-0.371825 0.0689471 9.671e-22)
(-0.717456 -0.396363 1.75173e-22)
(-0.0508976 0.12916 0)
(0.0162196 0.111306 7.07368e-22)
(-0.437541 0.168534 -7.60764e-22)
(-1.02452 -0.547001 0)
(-0.320262 0.228185 -7.20898e-22)
(-0.332654 0.227362 5.63482e-22)
(-0.854621 -0.306086 -9.89847e-22)
(-0.887235 -0.327789 -3.94479e-22)
(-0.1301 -0.0284922 1.707e-22)
(-0.102463 -0.00496966 8.52312e-23)
(-0.00607342 0.114447 0)
(-0.971237 -0.610327 0)
(-0.478589 0.119328 -3.77669e-22)
(-0.336293 0.19443 9.88262e-22)
(0.0239881 0.0922559 0)
(-0.884737 -0.410428 0)
(-0.304268 -0.0366576 4.05885e-24)
(-0.171512 0.0679299 -3.97877e-23)
(-0.238915 -0.0486125 -3.89634e-23)
(-0.374487 0.186116 2.00726e-21)
(-0.910579 -0.470111 -3.21724e-21)
(0.021557 0.0940416 -3.8655e-23)
(-0.254294 0.194933 0)
(-0.657367 -0.208178 1.06113e-21)
(-0.203876 -0.0806071 -3.69617e-23)
(-0.456873 0.152159 2.567e-23)
(-1.00902 -0.579183 -4.23955e-21)
(0.0107494 0.113711 4.90826e-24)
(-0.702101 -0.431687 -2.13684e-22)
(0.00693868 0.0670302 2.94801e-22)
(-0.333442 0.13159 1.31679e-21)
(-0.167907 0.146964 1.21402e-22)
(-0.298854 -0.129145 -1.09229e-22)
(-0.441036 -0.0866207 -7.03063e-22)
(-0.281935 0.0173202 0)
(-0.369566 -0.136219 2.30409e-22)
(-0.121676 0.077792 -1.04215e-22)
(-0.414819 0.205431 0)
(0.0263066 0.106012 -3.80812e-22)
(-1.04069 -0.513797 -7.00259e-23)
(-0.294254 0.0193349 0)
(-0.392524 -0.15578 1.55962e-22)
(-0.111259 0.0910043 1.42746e-22)
(-0.282684 -0.0258247 -1.23366e-22)
(-0.179412 0.0524193 1.44947e-23)
(-0.235833 -0.0371113 -1.51545e-23)
(-0.168535 0.20564 -1.74853e-22)
(-0.53163 -0.0643066 5.20302e-22)
(-0.581411 -0.389231 -5.5005e-22)
(-0.341562 -0.0321374 0)
(-0.311652 -0.113497 0)
(-0.139053 0.106798 -1.22236e-23)
(-0.342303 -0.0167209 -1.17336e-22)
(-0.358719 -0.144325 -8.35354e-23)
(-0.128364 0.113094 -1.91886e-24)
(-0.276991 0.235988 -6.20181e-22)
(-0.749816 -0.217131 1.08347e-21)
(-0.262697 -0.14342 4.04365e-22)
(0.022988 0.105153 -5.34507e-22)
(0.0233861 0.10671 5.3128e-22)
(-1.06104 -0.517044 -1.59379e-21)
(-1.05142 -0.527597 -1.01853e-21)
(-0.421542 0.205463 0)
(-0.427433 0.197171 7.42185e-22)
(-0.453514 0.144427 -1.199e-21)
(-1.00174 -0.572766 2.47199e-21)
(0.00685173 0.117192 -4.15211e-22)
(-0.214318 -0.108023 2.3282e-22)
(-0.304896 0.249934 -1.42269e-22)
(-0.835794 -0.256578 -1.67985e-21)
(-0.198309 0.179815 1.33217e-22)
(-0.310736 -0.154541 1.51699e-22)
(-0.533052 -0.12635 -3.19413e-22)
(-0.467167 0.00147498 0)
(-0.728152 -0.476564 -5.68778e-22)
(-0.110978 0.175964 -6.48302e-24)
(-0.808006 -0.511346 -2.61465e-21)
(0.00681984 0.0798411 2.75742e-22)
(-0.408751 0.133291 1.02799e-21)
(-0.0240388 0.129497 0)
(-0.474777 0.0987826 0)
(-0.957215 -0.612219 -1.48739e-21)
(-0.423342 0.186985 -7.86715e-22)
(0.0231838 0.103822 0)
(-0.998023 -0.529592 2.47158e-21)
(0.0062329 0.0608357 1.10199e-33)
(-0.648265 -0.394517 3.86929e-21)
(-0.300344 0.124945 -1.32647e-21)
(-0.66803 -0.350317 -4.36379e-21)
(0.0112155 0.0649769 -1.09933e-33)
(-0.282893 0.147107 1.16942e-21)
(-0.820595 -0.466486 1.26629e-21)
(-0.396653 0.0912878 0)
(-0.0327717 0.128955 4.83671e-22)
(-0.93126 -0.587625 1.17929e-21)
(0.00109835 0.10058 2.731e-22)
(-0.471364 0.128429 0)
(-0.405633 0.150441 6.353e-22)
(-0.94259 -0.496395 -1.25823e-21)
(0.00144807 0.109565 -2.76899e-22)
(-0.393342 0.235753 -1.62571e-21)
(0.0178531 0.0970265 -2.42458e-22)
(-1.09073 -0.457068 0)
(-0.265724 0.0977035 -7.69607e-23)
(-0.082881 0.0577651 6.34312e-23)
(-0.557779 -0.232209 -9.56339e-23)
(-0.971725 -0.614455 -8.22276e-22)
(-0.0112159 0.119432 -2.64034e-22)
(-0.479003 0.113193 -3.31473e-22)
(-0.475259 -0.0108573 5.48909e-22)
(-0.122347 0.181979 1.06537e-22)
(-0.692606 -0.450905 0)
(-0.801195 -0.50138 0)
(-0.430622 0.0527019 0)
(-0.0638223 0.151291 0)
(0.0023193 0.0300299 0)
(-0.364592 -0.193588 4.08415e-21)
(-0.16177 0.0727809 -1.21144e-21)
(-0.799903 -0.460449 -3.27557e-21)
(0.0128369 0.0798322 3.61984e-22)
(-0.359586 0.158357 1.07874e-21)
(-0.254945 0.0881645 1.82925e-22)
(-0.0968218 0.0510358 -9.64625e-23)
(-0.503446 -0.20261 -1.56123e-22)
(-0.987341 -0.592722 -4.31093e-21)
(-0.46891 0.138293 9.0253e-22)
(0.00446706 0.11205 0)
(-0.00702475 0.11097 2.80275e-22)
(-0.483096 0.117356 0)
(-0.955037 -0.612168 3.09423e-21)
(-0.429143 0.182925 6.66554e-22)
(0.0189083 0.108009 -7.58028e-22)
(-1.03674 -0.53002 0)
(-0.0107248 0.0722302 5.76613e-22)
(-1.0538 -0.439991 -1.68998e-21)
(-0.390904 0.23126 0)
(-0.270371 0.242645 6.85985e-22)
(-0.739615 -0.20381 -1.38082e-21)
(-0.305904 -0.180881 1.27427e-22)
(-0.940893 -0.354015 -3.82157e-22)
(-0.348312 0.23692 -3.53387e-22)
(-0.0892941 0.00371774 2.95517e-22)
(-0.00567964 0.0746709 5.2919e-22)
(-0.392159 0.242817 0)
(-1.09084 -0.440979 0)
(-0.265274 0.181391 8.51877e-23)
(-0.28443 0.189702 0)
(-0.66915 -0.235003 1.01936e-21)
(-0.723903 -0.265143 -1.0901e-21)
(-0.147624 -0.0283523 -3.47023e-23)
(-0.128013 -0.01794 3.69389e-23)
(-0.251374 0.184139 -8.17255e-23)
(-0.641532 -0.20995 0)
(-0.182087 -0.0573945 -8.55604e-23)
(-0.316065 0.236434 0)
(-0.85236 -0.293458 1.61673e-21)
(-0.152651 -0.0495056 -5.72405e-23)
(-0.851652 -0.534596 8.82747e-22)
(-0.439181 0.0643115 -5.48769e-22)
(-0.052119 0.145616 4.49553e-22)
(-0.9905 -0.591469 0)
(-0.459938 0.133889 -1.9181e-21)
(0.00116882 0.118231 0)
(-0.030696 0.134589 1.389e-22)
(-0.434216 0.0902933 4.09505e-22)
(-0.896811 -0.543653 6.29776e-22)
(-0.7229 -0.364819 6.35199e-22)
(0.0145722 0.0726323 -2.04208e-22)
(-0.299645 0.160709 0)
(-0.195768 0.143175 -7.92456e-23)
(-0.201779 0.133724 0)
(-0.218734 -0.067501 0)
(-0.481125 -0.128497 -1.05102e-21)
(-0.194623 -0.0461772 0)
(-0.47734 -0.138376 6.06997e-22)
(-0.289878 0.224314 0)
(-0.270962 0.216246 0)
(-0.21413 -0.0948366 4.04889e-23)
(-0.773068 -0.252973 -7.54749e-22)
(-0.188117 -0.0719655 -4.57941e-22)
(-0.719531 -0.225411 1.43618e-21)
(-0.695645 -0.450508 0)
(0.00525937 0.066244 -4.09946e-22)
(-0.351704 0.123486 0)
(-0.994015 -0.588058 2.31247e-21)
(-0.464994 0.140505 -2.4125e-22)
(0.00592116 0.113442 -1.60226e-22)
(-0.214103 0.201314 2.77983e-22)
(-0.349713 -0.196691 2.6038e-22)
(-0.582678 -0.137995 -1.6213e-21)
(-0.803634 -0.527337 -1.63009e-21)
(-0.460633 0.0287834 -1.54676e-21)
(-0.0858545 0.165204 0)
(-0.0213075 0.062073 -6.16911e-22)
(-1.04186 -0.427037 1.79768e-21)
(-0.385433 0.233913 -5.46636e-22)
(-0.900915 -0.512692 0)
(-0.408696 0.167728 0)
(0.0162814 0.0924522 0)
(-0.922965 -0.534974 0)
(-0.426734 0.162468 -8.2971e-22)
(0.0152179 0.0949723 -6.48021e-23)
(-0.331577 0.215839 2.92146e-22)
(-0.870627 -0.336401 -5.65614e-22)
(-0.0867776 0.00952248 -1.25928e-22)
(-0.146163 0.152163 2.18175e-23)
(-0.387175 -0.193871 0)
(-0.423062 -0.0536981 -3.01594e-23)
(-0.43171 0.187297 -7.76673e-22)
(0.0211375 0.108194 -4.64489e-22)
(-1.04653 -0.533451 1.18565e-21)
(-0.839551 -0.491771 0)
(-0.409834 0.0888808 0)
(-0.0338621 0.134245 -4.18915e-22)
(0.00688289 0.0948193 -1.16143e-22)
(-0.999383 -0.478966 -2.19849e-21)
(-0.400997 0.190332 -1.38675e-21)
(-0.260148 0.216273 0)
(-0.246666 -0.121304 2.68389e-22)
(-0.692704 -0.207469 -6.52377e-22)
(-0.399314 0.00768067 -8.83048e-24)
(-0.582687 -0.332716 -3.70942e-22)
(-0.0991048 0.151777 0)
(-0.182043 0.166131 2.68734e-23)
(-0.317486 -0.156157 3.86077e-23)
(-0.488961 -0.106115 4.18432e-22)
(0.0203848 0.109819 3.22573e-24)
(-1.03487 -0.549986 -2.937e-21)
(-0.440019 0.178533 -1.03728e-21)
(-0.378033 0.195084 2.14834e-22)
(-0.957961 -0.433731 5.31945e-22)
(-0.0117441 0.0773711 0)
(-0.172661 0.138385 8.59128e-23)
(-0.267612 -0.100885 -2.82215e-22)
(-0.436907 -0.0929901 4.52383e-22)
(-0.392607 0.243555 -5.54117e-22)
(0.00280789 0.0824384 -2.57629e-22)
(-1.10116 -0.445901 1.94407e-21)
(-0.239148 0.157387 9.95964e-23)
(-0.582832 -0.199917 0)
(-0.153746 -0.0290005 0)
(-0.311598 0.0370068 5.24774e-22)
(-0.480277 -0.222091 -1.27155e-22)
(-0.088907 0.104036 0)
(-0.787639 -0.475639 0)
(-0.414637 0.059873 -8.7012e-22)
(-0.0557656 0.145525 0)
(-0.384271 0.218324 4.50579e-22)
(0.0267526 0.103824 8.67839e-23)
(-1.03407 -0.462709 -3.38298e-21)
(-0.383363 0.225976 -1.2174e-21)
(0.0252673 0.1031 0)
(-1.0543 -0.455127 2.76231e-21)
(0.00479286 0.0900023 -1.20883e-22)
(-1.0137 -0.47093 1.56363e-21)
(-0.398902 0.200606 1.24671e-21)
(-0.426313 -0.0102589 4.40523e-22)
(-0.596575 -0.357618 2.8781e-22)
(-0.113696 0.163129 0)
(0.0270399 0.101844 -7.95408e-23)
(-0.99029 -0.442801 3.15802e-21)
(-0.365426 0.212526 0)
(0.00523534 0.112331 0)
(-0.96882 -0.519152 1.38402e-21)
(-0.418683 0.150897 1.81551e-22)
(0.00267161 0.0488448 -3.25515e-22)
(-0.542546 -0.353285 -3.93184e-21)
(-0.263516 0.0995858 0)
(-0.235095 0.132456 1.16722e-21)
(-0.580311 -0.282448 0)
(0.00989617 0.05513 -3.27602e-22)
(-0.00305566 0.0784175 -5.99359e-25)
(-1.07723 -0.450319 0)
(-0.394982 0.23543 0)
(0.0201186 0.107272 0)
(-1.01093 -0.555948 0)
(-0.443952 0.174008 -1.61422e-21)
(-0.416878 0.208339 6.0224e-22)
(-0.414212 0.203688 -4.87264e-22)
(0.0193331 0.101025 2.64421e-22)
(-1.06537 -0.501858 4.84282e-22)
(0.016615 0.0994566 3.90253e-22)
(-1.05128 -0.498805 -7.07542e-22)
(-0.423037 0.139104 -3.34655e-22)
(-0.958129 -0.528637 -8.16026e-22)
(0.000854467 0.11652 0)
(-0.106958 0.176989 0)
(-0.764704 -0.511763 0)
(-0.476288 0.00771873 0)
(-0.203692 0.109661 0)
(-0.17168 -0.0185771 2.44462e-22)
(-0.439115 -0.129893 -2.68538e-22)
(-0.422587 0.111252 -9.33442e-22)
(-0.910343 -0.527853 -2.37631e-22)
(-0.0154404 0.125894 -4.05865e-22)
(-0.0251564 0.130948 -2.80582e-22)
(-0.422579 0.0990093 1.29773e-21)
(-0.886863 -0.524017 3.29483e-22)
(-0.385637 0.250699 -4.91148e-22)
(-0.0215134 0.0597978 -2.56482e-22)
(-1.08681 -0.421431 -3.27825e-21)
(-0.297172 0.232028 0)
(-0.799566 -0.259996 -4.91445e-22)
(-0.188957 -0.0770123 4.48858e-22)
(-0.269567 0.203792 0)
(-0.699104 -0.229199 -1.39323e-21)
(-0.191549 -0.0743997 8.12223e-24)
(-0.384757 0.115679 8.41809e-22)
(-0.844185 -0.458425 -2.24524e-22)
(-0.0181193 0.115695 1.87239e-22)
(-0.395267 0.108668 0)
(-0.852342 -0.474476 -1.9277e-22)
(-0.0205678 0.121412 -1.91315e-22)
(-0.163645 0.125339 0)
(-0.270802 -0.0957418 4.93328e-22)
(-0.400714 -0.0754428 -1.8001e-22)
(-0.290438 0.19811 0)
(-0.744287 -0.269839 0)
(-0.131414 -0.0267191 -4.81486e-23)
(-0.0198136 0.123493 5.72349e-22)
(-0.959488 -0.621086 4.33038e-21)
(-0.484435 0.101944 0)
(-0.435581 0.149874 -1.34184e-21)
(0.0108327 0.0922859 0)
(-0.894844 -0.542811 -1.8138e-21)
(-0.430301 0.138119 -4.88969e-23)
(0.00744685 0.0867867 0)
(-0.858497 -0.536614 5.33444e-21)
(-0.217625 0.174446 -1.03073e-22)
(-0.237996 -0.0951648 5.17094e-23)
(-0.561362 -0.160329 -8.40705e-23)
(-0.838856 -0.488948 1.48233e-22)
(0.013076 0.084439 -5.48193e-22)
(-0.391224 0.156964 0)
(-0.388168 0.204453 -9.67468e-22)
(-0.0054063 0.0808267 -2.36849e-22)
(-0.995607 -0.448884 0)
(0.00829559 0.0779728 8.21294e-23)
(-0.793355 -0.493622 3.41054e-21)
(-0.389329 0.138829 0)
(-0.252273 0.0433269 -1.36289e-22)
(-0.126482 0.0559719 -1.40671e-22)
(-0.379606 -0.128664 3.45397e-23)
(-0.315616 0.138677 6.68256e-23)
(-0.730045 -0.330699 1.43004e-22)
(-0.0462783 0.0673781 1.47716e-22)
(-0.545552 -0.327553 -6.08207e-22)
(-0.44293 -0.0295332 -9.10403e-22)
(-0.130333 0.169658 0)
(0.00114777 0.105575 0)
(-0.953083 -0.594541 1.36898e-21)
(-0.473833 0.130243 0)
(-0.82377 -0.497107 0)
(-0.416326 0.0761438 0)
(-0.0432509 0.139608 0)
(0.0127833 0.0922065 0)
(-0.397791 0.236143 6.14946e-22)
(-1.0962 -0.459902 -1.90587e-21)
(-0.332725 0.143358 0)
(-0.772415 -0.360125 -4.88924e-23)
(-0.0337383 0.0766615 -1.44217e-22)
(-0.200993 0.0980067 0)
(-0.173808 -0.0146807 -2.00274e-22)
(-0.410514 -0.115039 0)
(-0.978148 -0.588298 4.07415e-21)
(-0.465803 0.143857 -8.5683e-22)
(0.00729259 0.107472 0)
(0.0110824 0.105476 2.72417e-22)
(-0.994139 -0.510189 -9.40873e-23)
(-0.414494 0.17169 6.38067e-23)
(-0.401437 0.207564 0)
(-0.395276 0.204001 -1.00788e-21)
(0.0268735 0.104821 1.9009e-22)
(0.0263098 0.103217 2.50591e-22)
(-1.02323 -0.489711 1.88893e-21)
(-0.998673 -0.487421 -1.55367e-21)
(-0.342428 0.0684032 0)
(-0.646687 -0.342585 -1.49975e-21)
(-0.055746 0.116445 -1.66596e-22)
(-0.7766 -0.436559 -1.7407e-21)
(-0.38486 0.0816248 0)
(-0.0387777 0.129039 2.29835e-22)
(-0.27745 0.0595966 2.34156e-22)
(-0.474693 -0.202404 -2.6748e-22)
(-0.0892472 0.0783317 -1.08016e-22)
(-0.929842 -0.566347 -3.47491e-21)
(-0.452749 0.146547 -1.36354e-21)
(-0.91649 -0.573516 1.76199e-21)
(0.00918252 0.097764 0)
(-0.459434 0.135429 1.31768e-21)
(0.00470603 0.0966061 0)
(-0.367043 0.154586 0)
(-0.868601 -0.427043 0)
(-0.0125516 0.0923217 -2.05548e-22)
(-0.458138 0.15344 -1.64357e-21)
(-0.45318 0.154202 3.1172e-21)
(-0.983201 -0.577079 -2.28287e-21)
(-0.961981 -0.566896 5.38054e-21)
(0.0120769 0.105833 -5.02435e-22)
(0.0124933 0.101881 -4.99573e-24)
(-0.385104 0.0690041 0)
(-0.742636 -0.422661 1.38693e-21)
(-0.051253 0.135837 -2.90121e-22)
(-0.308441 0.0966881 -3.05341e-22)
(-0.673867 -0.321797 7.56188e-22)
(-0.0462103 0.0855029 0)
(-0.395469 0.228637 0)
(0.0227479 0.1014 0)
(-1.07669 -0.468944 -2.65338e-21)
(-0.334369 0.0839783 -2.1799e-22)
(-0.668525 -0.340453 4.4858e-22)
(-0.0472746 0.108445 2.90836e-22)
(-0.285846 0.0715102 -9.0885e-23)
(-0.532101 -0.242677 3.14072e-22)
(-0.0756982 0.0837111 -1.15424e-22)
(-0.395869 0.214013 0)
(0.0266802 0.104716 0)
(-1.04249 -0.482264 3.52018e-21)
(-0.334517 0.157578 0)
(-0.806079 -0.364639 -2.17453e-22)
(-0.0330639 0.0687078 2.28108e-22)
(-0.675122 -0.449271 0)
(-0.499873 -0.0285745 0)
(-0.138849 0.192335 1.48165e-23)
(-0.261537 0.22402 1.75509e-23)
(-0.702124 -0.201761 0)
(-0.268055 -0.142441 -4.98487e-22)
(-0.901323 -0.595476 -1.18727e-21)
(-0.0563048 0.148253 0)
(-0.471302 0.061937 0)
(0.0046074 0.0437856 7.85192e-22)
(-0.496004 -0.271667 -5.71351e-21)
(-0.218749 0.0997509 1.69529e-21)
(-0.33007 0.114279 0)
(-0.715111 -0.35001 -4.53735e-22)
(-0.0372191 0.0921175 1.47694e-22)
(-0.40943 0.219392 -1.13304e-21)
(0.0224264 0.102142 -9.3768e-22)
(-1.07694 -0.489122 0)
(-0.387909 -0.244827 1.89581e-22)
(-0.666759 -0.159752 8.22869e-22)
(-0.239452 0.232315 1.38227e-22)
(-0.29284 0.17086 0)
(0.0181947 0.0772587 3.05077e-22)
(-0.759366 -0.358142 0)
(-0.119343 0.131465 -1.29554e-22)
(-0.125989 0.144078 1.34888e-22)
(-0.414213 -0.202894 0)
(-0.368288 -0.0179782 -3.28778e-22)
(-0.435022 -0.225702 2.69506e-22)
(-0.394234 -0.0294562 2.92775e-22)
(-0.29105 0.0400273 -2.18825e-22)
(-0.443808 -0.187937 -2.19214e-22)
(-0.0966358 0.0893399 0)
(-0.151655 0.143254 -1.39979e-22)
(-0.13517 0.132568 0)
(-0.33895 -0.155339 1.1743e-22)
(-0.415982 -0.0638807 -2.89106e-22)
(-0.358454 -0.162865 -1.18354e-22)
(-0.382047 -0.038568 1.04817e-23)
(-0.317301 0.111232 -2.15551e-23)
(-0.627311 -0.299516 2.70515e-22)
(-0.0548772 0.0902165 1.2875e-22)
(-0.316423 0.0848809 5.19178e-22)
(-0.627422 -0.305337 -8.0075e-24)
(-0.0556221 0.0992106 0)
(0.0035818 0.0894163 0)
(-0.867676 -0.556085 0)
(-0.447856 0.129955 -1.64743e-21)
(-0.233524 0.174296 9.5029e-23)
(-0.59246 -0.183656 0)
(-0.19891 -0.0661051 -1.03758e-22)
(-0.452349 0.162581 2.51655e-21)
(-1.00587 -0.571642 -2.31833e-21)
(0.0162214 0.108676 2.82724e-22)
(-0.387628 0.13174 0)
(-0.400061 0.13732 -6.11789e-22)
(-0.879478 -0.464811 2.79955e-22)
(-0.912851 -0.486684 -1.18504e-21)
(-0.00914773 0.110836 2.49784e-22)
(-0.00414474 0.112522 2.67355e-22)
(-0.227871 0.161064 0)
(-0.565525 -0.179633 0)
(-0.182816 -0.051319 -3.75322e-23)
(-0.308784 0.217617 -1.97869e-22)
(-0.811113 -0.291202 0)
(-0.134182 -0.0289797 -1.51961e-22)
(-0.361319 0.128897 2.39413e-22)
(-0.815845 -0.417015 0)
(-0.0181153 0.102264 0)
(-0.18451 0.0749467 -9.02222e-23)
(-0.33663 -0.0667342 8.5252e-23)
(-0.206513 -0.0299162 -4.27273e-23)
(-0.409813 0.118183 0)
(-0.899357 -0.505304 0)
(-0.0124966 0.121514 4.30135e-22)
(-0.190025 0.118996 0)
(-0.203124 -0.0453285 -4.19658e-23)
(-0.432007 -0.114777 0)
(-0.371559 0.0860915 4.82299e-22)
(-0.752103 -0.417779 8.13807e-22)
(-0.0393977 0.122945 2.65769e-23)
(-0.307182 0.205994 -2.15394e-22)
(-0.795204 -0.295874 0)
(-0.11483 -0.0139287 -3.18645e-22)
(-0.182295 0.0911177 8.94539e-23)
(-0.170323 0.098837 4.68833e-23)
(-0.366002 -0.0818721 -9.23011e-23)
(-0.20716 -0.038341 9.32176e-23)
(-0.364067 -0.0725661 0)
(-0.233729 -0.0615478 1.61629e-22)
(-0.148634 0.118855 4.40379e-23)
(-0.298971 -0.115923 -2.73011e-22)
(-0.137455 0.124455 -2.80152e-23)
(-0.373516 -0.0532109 2.89961e-22)
(-0.348426 -0.150264 8.64873e-23)
(-0.370571 -0.038116 8.13401e-23)
(-0.25999 0.168764 -1.18078e-22)
(-0.276208 0.166923 0)
(-0.643378 -0.231971 -6.22724e-22)
(-0.676478 -0.258795 4.90216e-22)
(-0.13345 -0.0149432 1.9455e-22)
(-0.105824 0.00881168 -3.24726e-22)
(-0.00446801 0.0785476 0)
(-1.03719 -0.450583 1.03508e-21)
(-0.392918 0.220425 6.84864e-22)
(-0.148603 0.19508 -1.76173e-22)
(-0.503919 -0.0421444 -8.20426e-22)
(-0.623807 -0.410085 9.27497e-22)
(0.00572439 0.0876059 2.82935e-22)
(0.009949 0.092616 -2.34248e-22)
(-1.05275 -0.470024 -8.95523e-22)
(-1.04128 -0.480921 -1.42976e-21)
(-0.40109 0.218849 -1.83907e-21)
(-0.405672 0.208637 9.79935e-22)
(-0.191921 0.203712 -2.0817e-22)
(-0.442588 -0.268321 2.65459e-22)
(-0.551946 -0.101425 -1.30895e-22)
(-0.20435 0.0405305 -1.6247e-22)
(-0.200293 -0.00434875 0)
(-0.289113 -0.0439622 2.39017e-22)
(-0.411323 0.131045 3.31758e-22)
(-0.923454 -0.508404 1.3421e-21)
(-0.00515535 0.117525 0)
(-0.208335 0.153283 0)
(-0.211486 -0.0724039 3.5804e-23)
(-0.516134 -0.147488 3.79173e-22)
(-0.316854 0.205658 0)
(-0.820116 -0.313895 0)