/*--------------------------------*- C++ -*----------------------------------*\
  =========                 |
  \\      /  F ield         | OpenFOAM: The Open Source CFD Toolbox
   \\    /   O peration     | Website:  https://openfoam.org
    \\  /    A nd           | Version:  6
     \\/     M anipulation  |
\*---------------------------------------------------------------------------*/
FoamFile
{
    version     2.0;
    format      ascii;
    class       volScalarField;
    location    "0";
    object      P_rec;
}
// * * * * * * * * * * * * * * * * * * * * * * * * * * * * * * * * * * * * * //

dimensions      [0 2 -2 0 0 0 0];

internalField   nonuniform List<scalar> 
918
(
0.560912
0.300311
0.106606
0.580368
-0.00270012
0.196329
-0.788403
0.52017
0.584198
-0.10968
0.0335777
0.45493
0.0496881
0.0299478
-1.23005
0.0220393
0.578546
-0.719292
0.418324
0.0248625
-0.0488634
0.584385
0.517375
0.415001
0.49983
-0.0451005
0.120677
-0.0336145
-0.0536371
-0.0408929
-0.00399541
0.0461527
0.00836167
0.188346
0.166727
0.203531
0.424042
0.214705
-0.653106
-0.705372
-0.695223
-0.862083
0.529032
0.542265
-0.286425
0.498302
0.473152
0.427709
0.563655
0.586954
0.52144
0.566601
0.593914
0.283428
-0.149592
-0.220946
-0.0703747
-0.0740809
0.078153
0.0265539
0.0115358
0.0608492
0.0479296
0.374658
0.446468
0.441467
0.465541
0.46544
0.261323
0.213431
0.256402
0.0497733
0.174028
0.0212081
0.132114
0.032089
0.0693281
0.00814909
-0.0085518
-1.50352
-2.26548
-0.755964
-0.616399
0.00626307
0.0243653
0.0337456
0.566548
0.568334
0.56452
0.573832
0.723636
-0.646742
-0.83376
0.451287
0.450303
0.570523
0.525695
0.468615
0.404062
0.0225872
0.0184273
0.0122021
0.0407369
0.0316608
0.123244
0.234575
0.393608
0.42678
0.465323
0.490649
0.478228
0.206804
0.538428
0.539932
-0.0867692
0.0829018
-0.0501666
0.029417
0.129647
0.0960535
0.201054
0.240573
-0.0587841
-0.0107134
0.037249
0.00232241
0.0270451
0.423427
0.413599
0.436946
0.42688
0.432772
0.116153
0.0137256
0.29085
0.323764
-0.531663
-0.571917
-0.746666
-0.771584
-0.891924
0.481021
0.545736
0.561582
-0.391084
-0.257308
-0.427999
-0.174202
-0.220276
0.430675
0.423069
0.423317
0.431643
0.434708
0.435828
0.572581
0.565479
0.599349
0.289204
0.364522
0.268418
0.220535
-0.440867
-0.307527
-0.421721
-0.0459723
-0.0111629
0.067442
0.102855
0.112363
0.0841626
-0.0103896
0.00665062
-0.00400037
0.0186761
0.0215149
0.377933
0.362438
0.376369
0.38637
0.440755
0.439031
0.4438
0.446271
0.208196
0.197111
0.15554
0.131693
-3.06443
-5.24189
-0.418393
-0.322305
-0.0022973
-0.0121411
-0.00455212
-0.0808577
-0.0145952
-0.0413935
0.0721107
0.0452255
0.0354917
0.0544659
0.563394
0.574704
0.7282
0.766756
0.640607
0.640011
0.446125
0.456376
0.452342
0.453989
0.0355861
0.0192843
0.0364304
0.439114
0.335471
0.387725
0.172593
0.079023
0.255122
0.294243
0.564726
0.548401
0.57122
-0.0872747
-0.00208697
0.341132
0.0957522
0.329737
0.161505
0.11823
0.150938
0.0920592
0.391669
0.409198
0.405579
0.434812
0.441009
0.441398
0.442347
0.435321
0.43923
-0.145479
-0.445257
0.380933
0.389641
0.360346
0.393409
0.558992
0.630887
0.56691
0.556572
0.56737
-0.0743262
-0.11261
0.170873
0.155252
0.325148
0.341091
0.331075
0.127692
0.0863345
0.125775
0.111332
0.0871189
0.137578
-0.414541
-1.79159
-1.01798
-0.118583
-0.208965
-0.174975
0.044261
0.106213
0.0739298
0.736704
0.782533
0.405339
0.562437
0.514479
-0.110417
-0.0332163
0.0717139
-0.0508708
-0.00305697
0.0782589
0.0314507
0.381774
0.339408
0.360633
0.660988
0.731063
0.0429698
-0.0214255
-0.0616495
0.126473
0.124547
0.118971
0.767551
0.730027
0.769024
0.401688
0.391787
-0.0560064
-0.00425227
0.500853
0.525889
-0.0573012
-0.0243239
-0.114118
-0.82615
0.0378921
0.453337
0.412011
0.46678
-0.131842
0.193016
0.00628536
0.0251645
-0.0234366
0.427201
0.357113
0.324114
-0.0579358
0.00970025
-0.000244605
-0.422177
0.460121
0.444465
0.451989
0.462963
0.476366
-0.00649332
-0.0136283
0.0296344
-0.0342719
0.0414055
0.0384582
0.433841
0.423124
-0.442702
0.446034
0.469534
0.46872
0.48148
0.482968
0.471603
-0.0130284
0.0322366
0.0372398
0.145283
0.25334
-0.00302509
-0.0454628
0.0099161
-0.128654
-0.32185
-0.0433077
-0.0289471
-0.0440614
-0.0150403
0.531107
0.498195
0.120645
-0.0579897
0.115028
0.0774177
0.448491
0.465644
0.439548
0.450291
0.46873
0.421135
0.48393
0.453565
0.450676
0.492523
-0.0915098
-0.0349079
-0.0834957
-0.208937
0.279502
0.360518
0.17843
0.24803
0.0968579
-0.0106567
0.0444159
-0.0189693
-0.000136008
0.00490637
0.104506
0.036651
0.136996
0.022044
0.109274
-0.033358
0.135565
-0.00202651
0.411153
0.430668
0.427109
0.467302
0.389166
0.406426
0.382422
0.382719
0.401135
0.332402
0.350686
0.34963
0.0134793
0.0128857
0.0430025
0.0252301
0.0460658
-0.028563
-0.0270425
-0.026503
-0.00470611
-0.0474352
-0.00620472
-0.000720904
-0.353781
-0.517741
0.679765
0.55667
0.0718477
0.421941
0.464253
0.438269
0.475795
0.486326
0.517716
0.483213
0.460665
0.429654
0.44503
0.427689
0.445324
-0.367917
-0.435661
-0.283976
-0.33411
0.13367
0.545654
0.300805
0.246196
0.237896
0.408205
0.336887
0.0909568
-0.147092
-0.258591
-0.547571
-0.394228
-0.562598
-0.101993
-0.0599008
-0.0808398
-0.000462853
0.0734557
0.00848926
-0.00953725
-0.112256
0.434166
-0.184455
-0.164775
0.0603541
-0.0197568
0.243617
0.531586
0.541409
0.476049
0.454083
0.514803
0.489087
0.487442
0.519131
0.525571
0.426774
0.192547
0.175574
0.111485
0.538215
0.448974
0.484596
0.373684
0.467506
0.472009
0.451587
0.442223
0.477559
0.440977
0.436468
0.415178
0.409337
0.446959
0.450421
0.421435
-0.00757203
-0.0201015
-0.0903919
-0.309865
-0.172
-0.271908
-0.131036
0.05276
-0.0357207
0.0974536
0.267883
0.029386
-0.231019
-0.0742776
-0.195593
0.114893
0.0220318
0.110337
0.130192
0.131616
0.126615
0.195387
0.168062
0.0351993
0.0428317
0.0691889
-0.00495936
0.12952
0.0904507
0.150699
0.0625926
0.112911
0.0660624
0.0292063
5.36932e-05
0.0979678
0.0497117
0.000323799
0.0302578
0.0191805
-0.0662989
-0.0627232
0.176092
0.0486931
0.4524
0.436397
0.438201
0.455358
0.488392
0.481428
0.427571
0.429906
0.454934
0.427169
0.396735
0.378764
0.371537
0.401917
0.413081
0.409696
0.4506
0.441616
0.412741
0.43329
0.380037
0.399446
0.353974
0.370861
0.3962
-0.0943955
0.0209538
-0.0368148
-0.0431962
0.0118016
0.0489157
0.110322
0.0339601
0.118061
0.0900405
0.0621423
0.0291868
0.0568063
-0.240209
-0.132779
-0.379382
-0.439552
-0.528652
0.657726
0.719972
0.5929
0.440097
0.498835
0.599082
0.687817
0.409938
0.440148
0.515186
0.360381
0.648016
0.448861
0.43473
0.454933
0.474285
0.451386
-0.221136
-0.0851938
-0.0340905
0.0690936
0.203246
0.265654
0.0835234
0.0349827
0.146248
0.150466
0.526483
0.546345
0.512642
0.544849
0.539183
0.342974
0.432536
0.463651
0.457209
0.462256
0.483608
0.485569
0.482985
0.415332
0.409846
0.415629
0.371213
0.395313
0.368445
0.365961
0.424613
0.403478
0.40543
0.415616
0.462776
0.444423
0.470657
0.514669
0.495619
0.397619
0.377633
0.40171
0.412587
0.390114
0.388864
0.385134
0.144391
0.180729
0.0934699
-0.119946
0.0144516
-0.0502278
-0.0994777
-0.0804819
0.0751771
-0.427667
-0.365704
-0.888394
0.325504
0.405679
0.195081
-0.0636493
0.433631
0.46681
0.452094
0.35958
0.370151
0.522831
0.544974
0.553379
0.476981
0.473733
0.492815
0.47983
0.427327
0.302104
0.242371
0.275943
0.117437
0.174916
0.335124
0.275234
0.229774
0.257991
0.35266
0.260638
0.289473
0.360673
0.322971
0.310307
0.441908
0.486772
0.504396
0.448902
0.357074
0.413488
0.402283
0.450204
0.491049
0.494915
0.451309
0.434373
0.443738
0.434818
0.424401
0.441282
0.411938
0.456645
0.462153
0.46974
0.463492
-0.0172439
0.00644943
0.0177473
-0.0259882
-0.0314376
-0.0764386
-0.0585434
-0.0840126
0.0635127
0.0372528
-0.0496929
-0.0163706
0.0797643
0.0331238
0.0998467
0.117865
0.0685376
0.0100967
0.207407
0.357298
0.335025
0.295527
0.196654
0.208873
0.30458
0.0329735
0.124241
0.0774938
0.0450217
0.0395032
0.019258
0.110411
0.0499647
0.0888654
0.0411358
-0.108242
0.0468534
0.0993159
-0.0462369
0.0118897
0.0444757
0.416616
0.41895
0.402408
0.383249
0.391205
0.390624
0.426785
0.450649
0.453381
0.451981
0.457648
0.441132
0.447474
0.0122679
0.127098
0.15467
0.0947862
0.0462883
-0.00333127
-0.0182806
-0.00939346
-0.101429
-0.0430452
-0.217307
-0.29382
-0.242502
0.278949
0.292858
0.284596
0.590471
0.424368
0.335523
0.424522
0.548384
0.194645
0.331753
0.19061
0.648973
0.585003
0.682561
0.426573
0.0434903
0.138197
0.275974
0.0215642
0.0241344
0.124253
0.118944
0.123501
0.123494
0.208691
0.185788
0.178761
0.0776381
0.0748521
0.225908
0.195291
0.306442
0.358997
0.00890122
0.0696759
-0.00827978
0.502519
0.527206
0.549736
0.523398
0.543125
0.482326
0.480632
0.512407
0.536666
0.525453
-0.733602
-0.465809
-1.32688
-0.649519
-0.347654
0.417787
0.172451
0.760598
0.603124
0.474785
0.4985
0.500857
0.462308
0.515909
0.518345
0.268519
0.362243
0.306419
0.344566
0.257939
0.185083
0.48397
0.472241
0.498749
0.519911
0.474207
0.518457
0.375725
0.415675
0.398302
0.431372
0.453084
0.472078
0.0806101
0.0184653
0.0647461
0.0567673
0.0436283
0.0165547
-0.0425768
-0.0115151
0.168922
0.108108
0.0514261
0.107418
-0.0932683
-0.0956329
-0.200367
-0.144427
-0.17302
-0.299093
-0.279048
-0.27782
-0.194955
-0.0980394
0.335548
0.531052
0.413503
0.576252
0.395698
0.552885
0.297203
0.3446
0.350861
0.256195
0.285663
-0.0181581
-0.311809
-0.22479
0.822423
0.911954
0.566567
0.304137
0.0620217
0.375818
0.450223
0.381904
0.40251
0.483552
0.446508
-0.114737
-0.0234179
-0.0646861
0.0142762
0.157773
0.0717199
0.0871512
0.0813372
0.0910786
)
;

boundaryField
{
    wall-4
    {
        type            calculated;
        value           nonuniform List<scalar> 
100
(
0.560912
0.300311
0.106606
0.580368
0.196329
-0.788403
0.52017
-0.10968
0.0335777
0.45493
0.0496881
0.0299478
-1.23005
0.578546
-0.719292
0.418324
0.0248625
-0.0488634
0.415001
0.49983
-0.0451005
0.120677
-0.0336145
0.188346
0.424042
-0.705372
-0.862083
0.542265
-0.286425
0.473152
0.427709
-0.220946
-0.0740809
0.0115358
0.0479296
0.374658
0.441467
0.46544
0.174028
0.132114
0.0693281
-0.0085518
-2.26548
-0.616399
0.568334
0.573832
-0.83376
0.450303
0.404062
0.0184273
0.0316608
0.234575
0.42678
0.478228
0.206804
0.539932
-0.0867692
0.029417
0.0960535
0.240573
0.413599
0.436946
0.432772
-0.571917
-0.891924
0.561582
-0.427999
-0.220276
0.423317
0.435828
-0.421721
-0.0111629
-0.00400037
0.0215149
0.362438
0.38637
0.440755
0.446271
0.131693
-0.322305
0.574704
0.446125
0.453989
0.0364304
0.387725
0.079023
0.294243
0.57122
-0.00208697
0.161505
0.405579
0.441398
0.43923
0.56737
-0.11261
0.331075
0.111332
-0.174975
-0.00305697
-0.0616495
)
;
    }
    velocity-inlet-5
    {
        type            calculated;
        value           nonuniform List<scalar> 8(0.560912 0.580368 0.584198 0.584385 0.586954 0.593914 0.570523 0.599349);
    }
    velocity-inlet-6
    {
        type            calculated;
        value           nonuniform List<scalar> 4(0.300311 0.196329 0.203531 0.256402);
    }
    pressure-outlet-7
    {
        type            calculated;
        value           uniform 0;
    }
    wall-8
    {
        type            calculated;
        value           nonuniform List<scalar> 
34
(
-0.00270012
0.0220393
0.00836167
0.214705
0.283428
0.078153
0.0337456
0.723636
0.0270451
0.0137256
0.323764
0.481021
0.364522
0.220535
0.102855
0.0841626
-5.24189
0.0721107
0.0544659
0.766756
0.640011
-0.445257
0.380933
0.393409
0.630887
0.155252
-1.01798
0.0739298
0.782533
0.514479
0.360633
0.731063
0.118971
0.769024
)
;
    }
    frontAndBackPlanes
    {
        type            empty;
    }
}

