/*--------------------------------*- C++ -*----------------------------------*\
  =========                 |
  \\      /  F ield         | OpenFOAM: The Open Source CFD Toolbox
   \\    /   O peration     | Website:  https://openfoam.org
    \\  /    A nd           | Version:  6
     \\/     M anipulation  |
\*---------------------------------------------------------------------------*/
FoamFile
{
    version     2.0;
    format      ascii;
    class       volScalarField;
    location    "0";
    object      p;
}
// * * * * * * * * * * * * * * * * * * * * * * * * * * * * * * * * * * * * * //

dimensions      [0 2 -2 0 0 0 0];

internalField   nonuniform List<scalar> 
13046
(
0.124844
0.112778
0.141511
0.128559
0.137085
0.115915
0.119203
0.118989
0.141769
0.0534926
-0.0252786
0.129379
0.121423
0.0943398
0.138045
0.0719022
0.129823
-0.0101256
0.139443
0.130839
0.122161
0.0692463
0.130938
-0.0125939
0.125622
0.12644
0.136013
0.11625
0.0970384
0.141085
0.129952
0.100712
0.136381
0.131331
0.137895
0.122156
0.129566
0.138892
0.126638
0.13085
0.134617
0.10073
0.128068
0.139057
0.131414
0.128523
0.132664
0.13218
0.119806
0.111958
0.142254
0.116278
0.133093
0.0849293
0.123623
0.0786739
0.136318
0.0361039
0.107096
0.131283
0.0983611
0.0869435
0.13809
0.132767
0.0250476
0.0794677
0.111302
0.0406039
0.128101
0.115281
0.0455208
0.127984
0.0264748
0.103931
0.13115
0.139955
0.138753
0.114977
0.133883
0.0943377
0.0227204
0.123177
0.123511
0.1357
0.13174
0.0147266
0.0726586
0.0686282
0.133955
0.037635
0.132157
0.0529937
0.0386017
0.103106
0.0975067
0.0688808
0.0627847
0.135751
0.137709
0.135034
0.0673655
0.0448474
0.129277
0.135288
0.128946
0.140819
0.0881125
0.124448
0.132245
0.130621
0.0931759
0.0278848
0.126679
-0.0701976
0.122692
0.102686
0.13565
0.0997379
0.102947
0.0515813
0.134996
0.0640671
0.134883
0.0485336
-0.0377156
0.128839
0.114432
0.0727994
0.140593
0.129073
0.134586
0.0996508
0.132091
0.0563209
0.0526451
0.0889558
0.0509587
0.135498
0.127621
0.0972316
0.135021
0.106832
0.118906
0.138222
0.130883
0.123103
0.0956153
0.139243
0.0964013
0.129791
0.0987564
0.0767512
0.137207
0.143752
0.106323
0.124024
0.107688
0.0798263
0.101652
0.0790596
0.136748
0.137438
0.108623
0.105985
0.135774
0.0503203
0.129563
-0.0214877
0.0373476
0.127121
-0.0593848
0.0872136
0.0420891
0.135583
0.130256
0.0793716
0.134011
0.108831
0.135227
0.111171
0.131921
-0.00373953
0.0516136
0.129968
0.0874083
0.129505
0.142923
0.100824
0.12132
0.110629
0.11839
0.136667
0.0909305
0.141707
0.114807
0.083398
0.137882
0.0682427
0.132331
0.0215693
0.134117
0.0650934
0.0531703
0.0553645
0.0345408
0.131173
0.11325
0.0740602
0.129922
0.115576
0.0955777
0.131027
0.0228343
0.0200375
0.0549807
0.13166
0.126108
0.139113
0.12689
0.118974
0.100485
0.139449
0.1347
0.0601595
0.0576497
0.112517
0.0959663
0.143354
0.128492
-0.0431872
0.0365085
0.130886
0.0744025
0.109058
0.0608022
0.0444206
0.133194
0.0898119
0.105442
0.139524
0.112036
0.0782383
0.141241
0.0763439
0.0638344
0.131826
0.0745033
0.0952469
0.134844
0.128365
-0.042482
0.0303525
0.134647
0.133438
0.085281
0.0392214
0.124994
-0.0909568
0.136871
0.125355
0.127173
0.0957597
0.0948462
0.102465
0.10723
0.14039
0.136419
0.129178
0.0902263
0.0119826
0.116143
0.0835289
0.137133
0.0743885
0.0818555
0.135857
0.0927293
0.052138
0.135395
0.131196
0.126249
0.138655
0.0859203
0.0991207
0.137567
0.117827
0.0743575
0.137024
0.113608
0.112891
0.136114
0.128812
0.0776879
0.0859641
0.0907753
0.136968
0.0857409
0.134985
0.0483163
0.138557
0.12768
0.0921732
0.136943
0.0743595
0.102708
0.106436
0.0560679
0.132608
0.13351
0.118512
0.0817549
0.101373
0.0990663
0.0509464
0.132702
0.046801
0.134987
0.131697
0.00252877
0.0562955
0.10567
0.0708161
0.136748
-0.109258
0.12491
0.0170736
0.119869
0.135763
0.118871
0.103345
0.0922852
0.13819
0.134058
0.0734467
0.0326952
0.12088
0.073209
0.13556
0.0668907
0.0633449
0.13284
0.109717
0.140011
0.100425
0.0884292
0.139158
0.103165
0.14048
0.0789682
0.13018
0.00040515
0.118643
0.0661378
0.131527
0.0964126
0.0837282
0.13748
0.1036
0.112809
0.140479
0.0915308
0.11663
0.136921
0.125719
0.111601
0.139645
0.132897
0.077404
0.106873
0.0620283
0.0260819
0.132191
0.071147
0.0622725
0.134631
0.117286
0.125605
0.0598221
0.0978252
0.100984
0.042065
0.0323826
0.129293
0.131099
0.125066
-0.100385
0.0235781
0.0438026
0.125542
-0.0842302
0.0938009
0.0987023
0.134636
0.131264
0.066926
0.0105856
0.111425
0.109878
0.0587789
0.0513184
0.134069
0.131996
0.128872
0.00724218
0.0411686
0.0348563
0.124519
-0.101294
0.120616
0.137026
0.13517
0.0301522
-0.0846613
0.125949
0.126844
0.0790145
0.131257
0.0528351
0.00195066
0.131915
-0.0938772
0.126328
-0.00293303
0.13203
0.132306
0.10562
0.118845
0.133617
0.137625
0.0516312
0.128973
-0.0436211
0.115198
0.129138
0.137703
0.123508
0.136546
0.135858
0.134873
0.0668753
0.111888
0.111894
0.137479
0.137346
0.121446
0.119433
0.134475
0.120512
0.0638295
0.124875
0.131205
0.131931
-0.0125197
-0.0136404
0.0620646
0.0601857
0.0541558
0.021435
0.131914
0.130859
0.117326
0.0481134
0.129774
0.128109
0.092405
0.0723177
0.09144
0.131645
-0.0605259
0.126547
0.00581547
0.132106
0.0516257
0.0303822
0.0399788
0.128127
-0.0476706
0.125848
-0.104393
-0.00215158
-0.126605
0.124564
0.0114358
0.0823115
0.0854157
0.135034
-0.0177715
0.127608
0.0255721
0.0826073
0.0512127
0.13582
0.0671952
0.126723
-0.0368582
0.11888
0.138406
0.116632
0.0159894
0.130245
0.0455691
0.0731632
0.131662
0.0949384
0.0781645
0.0748548
0.136894
0.125298
-0.157731
-0.01774
-0.0910447
0.126012
0.00767886
0.122812
0.139899
0.114675
0.00225051
0.0399706
0.129858
0.129651
0.0330127
0.000712682
0.0663391
0.131604
0.0106979
0.13076
0.0165347
0.0849406
0.124964
0.0595097
0.126953
0.0421066
0.106285
0.134674
0.129988
0.082713
-0.00763975
0.122316
0.12062
0.0847055
0.0783996
0.135464
0.137615
0.12478
0.0867878
0.134699
0.11588
0.0527966
0.135381
0.0752718
0.0681046
0.134755
0.0152358
0.054587
0.132921
0.133769
0.0709735
0.0632278
-0.127858
0.124036
0.0185516
0.133432
0.130912
0.13773
0.10218
0.140135
0.106678
0.122464
0.11945
0.13199
0.061046
0.132714
0.0762252
-0.0906292
0.125439
-0.00143639
0.00607809
0.0443135
0.130624
0.128896
0.121712
0.0815006
0.0834912
0.0665352
0.133049
0.130935
0.0208114
0.0889294
-0.0666271
0.0219013
0.126957
-0.0532034
0.023718
0.127518
0.110205
0.0570937
0.136373
0.139045
0.123315
0.0975674
0.0635781
0.130644
-0.00246549
0.0778595
0.0786957
0.137512
0.1352
0.0323612
0.0846544
0.121985
0.133417
0.0775047
0.0926992
0.108959
0.136897
0.132783
0.132292
0.0954542
0.130631
-0.00642354
0.0571547
0.0939065
0.0467715
0.134852
0.133992
0.134405
0.106293
0.0766927
0.128373
-0.0186955
0.122992
0.0998115
0.138879
0.113193
0.114946
0.140056
0.0848255
0.0798127
0.13568
0.051944
0.126572
-0.0644568
0.056987
0.126471
-0.0599573
0.134471
0.0274931
0.0855053
0.0865325
0.114648
0.135023
0.125478
-0.0793323
0.0439034
0.134211
0.0407522
0.0783393
0.125116
-0.116352
-0.00804679
0.00497894
-0.134442
0.124496
0.131401
-0.000609277
0.0829118
0.129539
-0.0261872
0.04422
0.0716081
0.0749381
0.129638
-0.00407983
0.13124
0.00881918
0.0735812
0.0471258
0.134749
0.13627
0.089517
0.0629302
0.133429
0.136237
0.109869
0.0759001
0.0569095
0.13565
0.135685
0.0774813
0.0623114
0.0878498
0.129725
-0.0026605
0.121143
0.0545268
0.132458
0.123425
0.0752793
0.128949
0.0870068
0.0776495
0.138707
0.0846471
0.0744486
0.13797
0.134571
0.128886
0.112447
0.120867
0.0720396
0.140157
0.130946
0.0201268
0.042031
0.0188714
0.127416
-0.0504936
0.011953
0.127455
-0.0474343
0.128718
0.135333
0.0929088
-0.075379
0.126359
0.013298
0.0909467
0.134386
0.0337581
0.126641
-0.0707072
0.00428804
0.128108
0.137246
0.120219
0.111625
0.0928195
0.139115
0.114652
0.0868726
0.135308
0.128157
-0.0119944
0.0319678
0.075064
0.0803265
0.136353
0.127981
0.0723962
-0.0231803
0.104581
0.087864
0.141145
0.134297
0.138048
0.111938
-0.0131937
0.0369457
0.129523
0.134847
0.0323721
0.0785516
0.049192
0.0437614
0.126786
0.126393
-0.0567494
-0.0667539
0.100966
0.105039
0.140251
0.0871684
0.0890888
0.134546
0.114778
0.117854
0.142669
-0.0351043
0.0244057
-0.0309138
0.128314
0.0239495
0.127645
0.0970665
0.0673264
0.139348
0.0374725
0.0314151
-0.0202373
-0.0299827
0.129472
0.128352
0.086802
0.0943978
0.140375
0.108073
0.101713
0.139456
0.0620339
0.127934
-0.0432538
0.107526
0.0951504
0.138877
0.115472
0.10834
0.13886
0.0505933
0.126825
-0.0532742
0.108334
0.0730037
0.135964
0.104436
0.0654966
0.133066
0.124815
0.0679144
0.130687
0.0605609
0.131724
0.0552113
0.125101
-0.143699
-0.0100401
0.103063
0.0932946
0.13875
0.0654462
0.128405
-0.0250836
0.123003
0.0617392
0.128095
0.0165145
0.124655
-0.112308
0.138748
0.135686
0.122504
0.104023
0.125138
0.101965
0.117381
0.117998
0.140013
0.133326
0.137954
0.128842
0.10749
0.135537
0.102986
0.106183
0.104282
0.142588
0.109143
0.106651
0.142149
0.127251
-0.0412972
0.0144346
0.126659
0.0925841
0.132335
0.0437648
-0.0164904
0.130198
0.08736
0.084101
0.0692797
0.0593809
0.136381
0.134856
0.123948
0.103373
0.135707
0.114513
0.0647825
0.132474
0.0956504
0.078844
0.139995
0.133173
0.122186
0.133512
0.0810137
0.0620223
0.136163
0.131309
0.132585
0.113487
0.0930466
0.0904894
0.13979
0.112778
0.0724444
0.132832
0.132708
0.133614
0.11709
0.138644
0.117552
0.136174
0.134596
0.125842
0.139133
0.114812
0.139531
0.1062
0.122483
0.120229
0.090012
0.0888466
0.13804
0.135363
0.131275
0.0192483
0.0870569
0.132161
0.0714849
0.107654
0.132765
0.133165
0.0110699
0.0158339
0.0816924
0.0796582
0.132105
0.123862
0.0759936
0.132629
0.135027
0.127151
0.0811778
0.0542425
0.13559
0.132069
0.135316
0.0978778
0.110879
0.069075
0.13353
0.0960854
0.0961029
0.0285841
0.13367
0.0345822
0.133752
0.0918352
0.0637196
0.136382
0.0221863
-0.102098
0.125198
0.119682
0.0682659
0.128377
0.125279
0.126748
0.124492
0.0653875
0.130676
0.0695026
0.0736429
0.0692681
0.135058
0.116145
0.0708424
0.134139
0.131792
0.121748
0.072985
0.124551
0.127896
0.125879
0.135638
0.0829288
0.0774721
0.1248
0.13177
0.0735555
0.0917588
0.0691924
0.137998
0.133169
0.132819
0.115197
0.0567707
0.128138
-0.0360198
0.13123
0.124406
0.0678353
0.113022
0.108806
0.0687438
0.0642667
0.132736
0.137057
0.128775
-0.0249238
0.0618864
0.0619796
0.128477
-0.0374587
0.0566297
0.1276
-0.0430226
0.0915127
0.133478
0.0295344
0.118141
0.0775653
0.134894
0.012296
0.00945228
0.0977615
0.0147053
0.0633062
-0.041287
0.0333791
0.0286581
-0.0349211
0.0551361
0.0531079
-0.0499822
0.00514269
0.0561264
-0.0161664
-0.00288322
0.0157113
-0.0153318
0.00282949
0.033581
-0.000164698
-0.0156492
0.0632309
0.126037
0.102434
0.0143075
0.0705703
-0.0524822
0.0129018
0.00102545
-0.0485749
0.0287806
0.00198157
-0.00846629
-0.0438132
0.00726882
0.0893867
0.0617779
0.0164866
0.0498323
-0.0230802
0.122382
-0.0345238
0.0550897
0.0888193
-0.0317036
-0.0266481
-0.0382961
-0.0476657
-0.037715
0.105135
-0.00016748
-0.00144175
-0.035269
-0.0464399
0.100743
0.0350567
0.00436857
-0.0419638
0.050797
-0.039867
-0.0316622
0.102748
0.0344395
0.00211793
0.036481
0.00915683
0.122116
0.0627038
0.0761366
-0.0713884
-0.0540842
-0.00408116
0.0436023
-0.059611
-0.00962238
0.0218356
-0.0481383
0.0481244
0.0787386
-0.0126546
-0.00486509
-0.0430408
-0.0136886
-0.0358245
0.0534676
-0.0348237
0.0100076
-0.0176186
0.107744
-0.00744653
0.0486697
0.102214
-0.00712447
0.00185769
-0.0764346
-0.0355204
-0.037376
0.00207386
-0.0735355
0.0288657
0.0656978
0.0951236
0.123391
-0.0089946
0.0077798
-0.0507816
-0.000925002
-0.0347675
0.0878032
0.0688167
0.0325955
-0.031365
-0.0610556
0.0533745
0.0822353
-0.0225951
0.0099169
-0.0690575
-0.0185286
-0.0110464
0.115351
0.117956
0.0455454
0.0135136
0.0022786
-0.0491173
0.116141
-0.000887771
0.0418131
-0.0754146
0.105043
-0.0415358
-0.0158444
0.00552153
0.0773633
-0.014794
-0.0849505
-0.0285464
0.0331302
-0.00475811
0.0542918
0.0518066
-0.011583
0.0874959
-0.0338996
-0.0181705
0.08365
-0.0293808
-0.0178875
-0.0485845
0.0243273
0.0151236
0.0809501
0.0484992
-0.0276393
0.0437122
0.056037
0.0954875
0.0219929
-0.00328036
-0.0123666
0.0677397
0.000644401
0.0501395
-0.047109
0.122623
-0.0179737
0.0900577
0.113404
0.00423532
0.118537
0.0837366
0.0932028
-0.0263315
-0.0765572
-0.0499391
0.0979291
-0.0321527
-0.0367766
-0.00229869
-0.035004
-0.0169302
-0.0291716
0.00889488
0.113871
0.0467158
-0.0249947
0.0513039
-0.0352745
0.121494
-0.0254395
0.0844071
-0.0158988
-0.0813076
0.104654
0.114826
-0.0187039
-0.0353952
0.122261
0.0144341
0.0178068
-0.0348531
0.0438913
0.0878253
0.0660228
-0.0168474
-0.0426487
0.073086
0.0198691
-0.0492618
0.0505197
-0.00780592
-0.0455698
0.00038614
0.0858824
-0.0664254
0.0247201
0.0660133
-0.0375484
-0.0727725
-0.0254937
-0.000710794
0.0116619
0.0215511
0.0269153
-0.0102125
-0.040911
0.000611005
0.0352642
0.0644088
-0.0313239
0.0279719
-0.0321248
-0.031733
0.0143829
-0.0215628
-0.0796848
0.0687045
0.0827926
0.00563099
0.11111
0.0911801
0.122254
-0.000190897
-0.0882203
-0.0158481
-0.0282275
0.0121077
-0.0630418
0.020154
0.102102
0.044676
0.0120669
-0.0198737
-0.0269511
0.0739969
-0.000770225
0.0530482
-0.0281989
-0.00984892
-0.0275843
-0.0130396
-0.0154163
-0.0147655
-0.00635566
-0.046299
0.0290786
0.0143477
-0.0274833
0.033389
0.0119973
-0.0192744
-0.0411748
-0.0257528
-0.0449417
-0.036318
0.0102408
-0.0608259
-0.0921377
-0.00223191
-0.0530975
-0.0695143
0.0112796
-0.0224168
-0.0663177
0.0823078
0.0305275
-0.0234661
0.0718123
-0.0447625
0.0276196
0.051497
-0.00645755
0.00372374
0.0788112
-0.0158058
0.0637052
-0.0477715
-0.0168821
0.0851097
-0.0291079
0.00361303
-0.101905
-0.0633401
-0.0833557
-0.0565473
-0.0369399
0.0325988
-0.038272
-0.0728878
-0.0438398
-0.0217887
0.122404
0.0054113
0.0426849
0.0290387
-0.0161801
0.0159872
-0.017652
-0.051295
0.0227184
-0.0250145
0.101386
0.059822
-0.0110331
-0.02445
0.00126974
0.126804
0.0709711
0.0900307
0.0482469
-0.0164127
0.005864
-0.0209587
-0.0463878
-0.0593369
-0.036169
0.0207061
0.0530818
-0.0445105
-0.0621928
0.00242671
0.0199941
7.78358e-05
0.0171118
0.0727796
0.0083943
-0.0110273
0.101491
0.0868117
-0.0162067
0.0436129
0.0881766
-0.0618235
-0.0251331
-0.0188413
-0.0379319
-0.044888
0.0884332
-0.0486694
0.00410578
0.0999934
-0.0810068
0.0147603
-0.0145123
0.00508164
-0.0209669
-0.0303255
-0.0769207
0.0208083
-0.0592581
-0.0511776
-0.0292182
-0.0324455
0.0609261
0.10163
0.000564701
0.0370055
0.0251386
0.00494946
-0.0842683
0.0701793
0.0487305
-0.0487058
-0.0682243
0.0261803
-0.050687
0.013151
-0.00738103
-0.0264667
0.0801589
0.101437
-0.0181754
0.0647635
0.123971
0.0737485
0.084834
0.0941769
0.0166303
-0.015767
-0.0429482
0.124321
0.078759
0.0885
-0.0401684
-0.0363925
-0.0753937
0.0689215
0.0114614
0.00311376
0.0902903
0.0532802
0.00217021
0.0204357
-0.0159849
0.00106089
-0.0190255
-0.0261322
-0.0255707
-0.0276862
-0.00666242
-0.0608658
0.015089
-0.0351495
0.0563204
0.0355871
-0.0677413
0.0893613
0.097049
0.0470172
-0.0379996
0.016393
-0.0238913
0.0540285
-0.00126621
-0.0513274
0.0872
-0.0366274
0.10279
-0.066813
-0.0181593
0.00873722
0.0452114
0.0750139
0.00226488
0.111563
0.00347492
0.0747849
-0.0179568
0.0585289
-0.0139701
0.00408302
-0.0278646
0.079239
0.0142497
0.122885
0.0366295
-0.0608077
0.00719389
0.0267229
-0.0281628
-0.0370123
-0.0159705
-0.0302926
0.106535
-0.00119506
-0.00817592
0.0625957
-0.0394309
0.101239
0.11932
-0.0334343
0.124589
0.111224
0.0752982
0.0897521
0.0164079
-0.0490849
-0.0383651
-0.0207409
0.0674018
-0.00519816
-0.0357906
0.110175
-0.0423806
-0.025574
-0.040981
0.0926953
0.122648
-0.0411322
0.0731384
0.0353139
0.101549
0.0243402
0.0513063
-0.0330048
0.11349
0.121495
0.0420762
-0.035165
0.0751222
0.0114079
0.0428296
0.00421119
0.00699011
0.0319855
0.0141807
-0.0335286
-0.0423073
0.00860364
0.0389425
0.0270643
0.0847492
-0.0457601
0.0101741
0.0486642
-0.038331
0.0961963
0.0012863
-0.0336364
0.101106
0.0792251
0.0306943
0.115546
-0.00640893
-0.0375854
0.0548631
0.032287
0.0340888
-0.0194856
-0.025867
0.0274429
0.0405784
-0.0246902
-0.0117569
0.0232617
-0.0666015
-0.0305724
0.103767
0.123229
0.123008
0.0272416
0.127298
0.122176
0.109092
-0.0874473
0.0256096
0.0268162
0.114157
-0.0332895
0.00392725
-0.0490031
-0.0352705
-0.0436999
0.11227
-0.0175474
-0.0124772
0.0533499
0.0412599
-0.0256344
-0.0331362
0.121073
0.114138
0.0893238
0.0521675
-0.0456744
0.0647078
0.0340612
-0.0357227
0.0150629
-0.0604528
-0.0424323
0.0251347
-0.00874339
-0.00869716
0.105322
0.102403
-0.0821952
0.0770832
-0.00996265
-0.0120014
0.00577165
0.103311
-0.012401
0.05078
-0.0184115
0.0909801
-0.0318301
-0.0162791
0.122192
-0.0738451
-0.0686778
-0.00750773
-0.0256943
-0.0903915
-0.0808871
-0.0218218
-0.0890873
-0.00409861
-0.078492
-0.0521826
-0.00872319
-0.0541183
-0.0205972
-0.00482727
-0.0656809
-0.0754161
0.112356
0.0898448
-0.0317161
-0.0529383
0.0927983
-0.0430434
0.00444977
0.119818
-0.0170705
0.120471
-0.000631875
0.0809331
0.0283793
-0.0157812
-0.0553603
0.028516
0.0254719
-0.00462028
-0.0169132
-0.0298938
-0.0578471
-0.0241035
0.00854626
-0.0757794
-0.0627142
0.109841
-0.00145108
0.0400178
0.0593951
-0.0349064
0.0781345
0.0603616
-0.047932
-0.0777204
-0.0158316
-0.0598466
-0.0887301
0.0452109
0.0470911
-0.0315964
0.0325477
-0.020778
0.122451
0.109939
-0.0220861
-0.0240471
0.113848
0.0850981
0.0247123
0.030346
-0.0344436
0.123946
0.0364133
-0.0821186
0.0933211
0.0748175
0.10325
0.0189735
-0.0412773
0.00319271
0.048213
0.0241933
-0.100183
0.122888
-0.0157789
-0.0131635
-0.00110119
0.0966448
0.121475
0.119617
0.0351846
0.024295
0.0663002
0.0877724
0.103781
0.0416573
0.0686409
-0.00708142
-0.00687925
0.0346132
-0.0416413
-0.00613438
-0.0677357
-0.0169728
0.0598633
-0.0651237
0.014501
0.00592383
0.0825872
0.118861
-0.0193803
-0.0567706
-0.0730602
0.0693781
-0.0376693
-0.0326134
-0.0711101
0.104197
0.0137445
0.0160144
-0.0540275
0.0208775
-0.0312714
-0.0140149
0.060817
0.0570295
0.107343
0.120222
-0.0192911
0.0927112
-0.0819685
0.0950271
0.10193
0.102735
0.0659283
-0.0302554
-0.0293635
-0.0306227
-0.080248
0.0357145
-0.0781905
0.0501871
-0.050646
0.0907699
-0.0344683
-0.0746189
0.0796848
0.0760219
-0.00575737
-0.00574418
0.0394739
0.104707
0.0128032
0.00477101
-0.0779033
0.0737934
0.0416266
0.115029
-0.0876863
-0.0091406
0.0941319
0.0482596
0.115864
0.053004
-0.0277974
-0.0984716
-0.0825459
-0.00804084
-0.0674821
0.11112
-0.0782024
0.0165126
-0.00305696
-0.0474409
0.0817538
-0.0883768
0.102055
0.0488751
0.0194199
-0.0295041
0.0583138
0.00715881
0.0222314
-0.013193
-0.00148523
-0.0373531
-0.0475114
0.0610354
-0.0298133
0.126883
-0.0422065
0.0311537
0.0357718
0.0708014
0.11131
-0.0376317
-0.029557
-0.0189109
0.0227343
-0.0452312
0.106482
-0.0351216
0.00945589
-0.0368946
0.0782883
-0.0571353
0.017626
-0.0603788
0.120369
-0.0814874
-0.0294895
0.0134732
0.0854903
-0.0721036
-0.0663068
-0.0336786
-0.061665
0.102591
0.00992603
0.0523731
0.0807683
0.0453297
0.0373479
0.119141
0.0377437
0.073784
0.0354026
0.0341534
-0.0659876
0.0328057
-0.0183088
0.00884037
0.0406096
-0.00381907
-0.0623008
0.000251535
0.019092
-0.0369502
0.0735672
0.0308543
0.0642538
-0.0189882
0.112168
0.000462257
0.0243378
0.038987
-0.0651069
-0.0369219
-0.0375237
0.027133
0.0192393
0.025616
0.0991182
0.0706339
0.0660322
0.00660848
0.0928983
0.113037
0.108816
0.0422238
0.0300361
0.0341418
-0.0444897
0.118756
0.0855563
0.0769466
-0.00884037
-0.0329333
-0.0652422
0.032521
0.0476846
-0.00670972
0.0773707
0.0896607
0.0248339
-0.00255033
0.0437247
0.00295278
0.00242677
-0.00841169
0.00291339
0.0159715
-0.0730828
0.0188868
0.0285676
-0.0218073
-0.085141
0.0224102
0.00289537
0.044707
-0.0229854
0.011635
0.0980688
0.106731
0.0154046
-0.0013496
0.0670997
0.00137018
-0.035393
-0.0400824
-0.0199948
-0.0624858
0.0993846
0.00767467
0.0073508
0.049017
0.0426616
0.0569992
-0.00513046
0.125534
0.055937
-0.0416581
0.00236091
-0.00430884
0.0665159
0.0940849
0.0570874
0.0255251
-0.070423
-0.0444299
-0.0224844
0.023286
0.00736776
0.0150853
-0.0407142
0.103949
0.0388444
0.0815468
0.0880029
0.0129154
-0.00820769
0.0321566
0.118703
-0.0524138
-0.0760002
0.0326643
0.122756
-0.0276934
-0.0216075
0.0615404
0.0484393
0.0791467
-0.00839227
-0.0720073
0.0214549
-0.0672962
-0.0258133
0.0758674
-0.0151806
-0.0417718
-0.011023
-0.0298725
0.0289908
-0.00116652
0.00269038
0.0959929
-0.0448409
0.119128
0.0776745
-0.0502305
-0.0930049
0.0146442
0.0595451
0.0856148
-0.011655
-0.0224195
0.004413
-0.028616
0.00963522
0.121182
0.0959031
0.0513004
0.0129106
-0.0645723
0.10579
0.12571
0.10438
0.0675359
0.0968701
0.0285426
-0.0619548
-0.082275
-0.0765422
0.111635
-7.62741e-05
-0.00339005
0.0100886
0.124613
-0.0333406
-0.0032492
-0.0562367
-0.0105187
-0.0405026
0.123326
0.0213401
0.0629353
0.091414
0.0887767
-0.0291051
0.0302861
0.0196133
0.0668439
-0.0584277
0.0301071
-0.0274165
0.105382
-0.0135211
-0.0397934
-0.00753811
-0.0154224
0.09714
-0.0332139
0.0742263
0.091898
0.0945062
-0.0556895
0.0156801
-0.022594
0.00700681
0.101806
0.0175501
0.0396232
0.0191125
-0.0396692
0.0109077
0.108209
0.0336779
0.104647
-0.079963
-0.0300886
-0.0342671
0.108854
0.00201535
0.0164511
-0.0555648
-0.00241973
0.0175361
0.111905
0.0236149
-0.0204635
-0.0569595
0.123099
0.117433
-0.0414785
0.106474
-0.0297687
-0.0545282
-0.0282512
0.000847369
-0.0656466
0.0497482
0.00772168
-0.0341405
-0.0114988
0.0978594
-0.0076123
0.0743917
0.0059103
-0.0351095
-0.00514283
-0.0805479
-0.071026
-0.0146896
0.019202
0.0408048
-0.043639
-0.0063003
0.093473
0.0395403
-0.0345584
-0.0189995
0.0993324
-0.0118398
0.0109541
0.129006
0.0292572
-0.0365348
0.0111879
-0.00321375
0.112624
0.00403534
-0.00555503
0.0267494
-0.0689695
0.101119
-0.0110572
0.09485
0.0174776
0.0583369
-0.0531414
0.0827961
-0.0132311
-0.0508854
-0.0418939
0.0187905
0.0976095
-0.0983769
-0.00535061
-0.0424788
0.112598
0.124294
0.00187658
-0.0289138
0.0490347
0.11478
0.00563768
0.101275
0.0842078
0.0750136
0.0624669
0.0111823
0.065336
0.0597429
0.103809
0.017835
0.0222602
0.00279141
0.00191905
0.0238204
-0.0233358
0.112041
-0.00172419
0.10257
0.0151543
0.108683
-0.0405015
0.115887
0.0559026
0.0984583
0.110299
0.0973915
0.128383
-0.0261835
0.0888937
0.0234232
-0.0352132
-0.00429123
-0.0438066
0.104705
-0.00137125
0.0200318
0.0280644
-0.0178981
0.040076
-0.0419693
0.109526
-0.00162766
0.0739151
-0.0838681
-0.0192844
-0.0316633
0.125083
0.00507063
0.0367628
0.00317772
-0.0293808
-0.0425488
-0.00912242
-0.03586
0.0694821
0.106811
-0.0585784
0.0163378
-0.0325162
-0.0376224
0.0782633
0.00124983
0.00238595
0.115871
-0.0736604
0.0369992
0.0481313
0.0943118
0.119324
0.00259192
-0.0186419
-0.0555375
0.00043215
0.00577396
-0.0327649
0.0775193
-0.0307958
-0.048953
-0.0206905
0.0172496
-0.00735282
0.0110282
-0.0429187
0.0100799
-0.0581685
0.0639392
0.0572016
0.0107778
0.070595
-0.0101265
-0.0729321
0.00127564
-0.0756639
0.115442
-0.0249381
-0.0353619
-0.0390367
0.0922195
0.102516
0.00801422
0.0715696
0.00764414
-0.0463577
0.0264941
-0.0323055
-0.00709224
0.103304
0.0368444
0.0647666
0.117869
0.0716658
0.0314071
0.109859
-0.0599394
0.00958822
0.0068066
0.0254063
0.0222457
0.112387
-0.0341148
0.022095
-0.000971882
-0.00356208
-0.0239668
-0.0161411
0.0561589
0.0797349
0.0901479
0.0235116
0.0224049
0.113115
0.0845347
-0.0163859
0.0435404
-0.053139
-0.0291683
0.0721889
-0.058938
0.08782
-0.0386503
0.0934635
0.12599
0.105663
-0.045349
0.0978219
0.0857783
-0.0164552
0.113257
0.00785519
0.108374
0.0699057
-0.0337702
-0.0564346
0.0451401
-0.0257403
0.0181863
0.0043877
0.0877216
0.0116822
0.112828
-0.0351361
-0.00227835
0.00578371
-0.0323009
-0.036175
0.0822506
0.122652
-0.0376796
0.0799689
0.00314308
0.021991
0.00342382
0.0509877
0.0994568
0.0725224
-0.0382506
0.0950301
0.0770603
0.120051
-0.0331405
-0.0519147
0.00436144
0.0677563
0.116334
0.0814012
-0.00416349
0.115678
0.0129776
-0.0564393
-0.0566667
-0.0957176
0.0253855
-0.0502871
0.120822
0.119362
0.0211336
0.129856
0.0735788
0.00393705
0.114033
-0.0560472
0.111854
-0.0303444
0.103279
-0.00852798
-0.0284079
0.0665398
0.0157163
0.108057
0.0999731
0.101953
-0.0174721
-0.0184145
-0.0669919
0.0953698
0.0712752
0.00436189
0.0329503
0.0725489
-0.0791169
-0.0321449
-0.0228651
-0.0359066
0.0228603
-0.0375702
0.0068453
0.0770316
0.00710064
0.0168296
0.0580096
-0.0185265
0.00502842
0.0206709
0.00686771
-0.0202694
0.0895204
0.108838
0.00341499
0.0697552
-0.0819856
-0.0276828
0.0936812
0.0650822
-0.0442692
0.103841
-0.0470399
0.0573919
0.00877498
0.0212617
0.0933232
-0.00782152
0.0657414
0.0739539
0.0477903
0.12512
0.0489486
-0.0581991
0.0303849
0.0279649
0.0640449
0.12036
0.0504009
0.017597
-0.00673022
0.022514
0.0942046
-0.0423883
0.093987
-0.0126581
0.0456879
0.0716873
0.0588162
-0.00336273
0.095084
0.115612
0.00388661
-0.0152363
0.0138097
-0.0201871
-0.0584737
0.00867061
0.0724336
-0.0467522
-0.0599564
0.00393771
-0.0538797
0.0542733
0.0151204
0.0660308
-0.00321722
0.103991
0.00865088
0.0869321
0.121579
-0.0385009
0.0978934
0.0121507
0.0123772
0.0343039
0.0967148
0.000592086
-0.00238631
0.0355992
-0.0273661
-0.0143449
-0.0304967
-0.0444085
-0.0817722
0.117362
0.124724
-0.0513067
0.000162293
0.0607419
-0.0640662
0.00066804
-0.0304662
0.0492937
0.061306
-0.0675185
-0.0846186
0.0997618
0.00410101
0.0301381
0.00254002
-0.0586361
-0.0570244
0.0495854
0.0855802
0.035171
-0.071755
0.105161
0.0839888
-0.0277295
0.0239618
-0.0338156
0.12137
-0.0257055
0.0100952
-0.0449471
0.0390993
0.110939
0.0271303
0.0453292
-0.0140417
0.0201721
0.03992
0.114285
0.127901
0.000567431
0.116636
-0.0108699
0.0135804
0.0153697
-0.01605
-0.0164341
0.0949829
0.0205243
0.025702
-0.0143605
-0.0598385
0.0262121
-0.0261939
0.0536908
0.103888
-0.0303303
-0.0198432
0.0128436
-0.015764
0.0103005
-0.082047
8.37614e-05
0.099606
-0.023271
-0.0476539
0.072394
0.00991937
0.00136935
0.0379717
0.0864279
-0.00632958
-8.75297e-05
0.0798629
-0.00868644
6.30908e-05
0.0232479
0.0962385
0.0374886
0.0132395
0.00399234
-0.0447538
-0.0029394
0.115539
0.0811247
0.122805
0.000250525
0.045552
-0.039887
0.00506991
0.085705
-0.0605134
-0.0642825
0.0573129
0.0829306
-0.0621932
-0.00245874
0.00730438
-0.00400554
0.00625
0.127832
0.0154197
-0.00295768
0.0448398
-0.00618755
0.0642599
0.0503414
-0.0449757
0.00550327
0.0753335
0.0171376
0.117243
-0.0594727
-0.03295
0.0548561
0.036481
-0.0170358
0.0260571
-0.0245305
0.119106
0.110566
0.0554162
0.0979907
-0.0360287
0.0924027
0.0349048
0.0603336
0.110487
-0.0632079
-0.0114825
0.119853
0.0364847
-0.0706127
-0.0475035
0.0914951
0.118381
0.00148387
0.0616212
0.00331106
-0.0507277
-0.015934
-0.0701988
0.0857072
-0.0224156
0.000324719
0.1129
-0.0419627
-0.00321242
-0.00943733
0.0263616
0.00364544
-0.0431234
-0.00797811
-0.0487355
0.020596
0.0712929
0.109702
0.0672321
0.0128644
-0.015988
-0.0720743
-0.0307621
0.030984
0.0188691
0.0672521
0.0705562
-0.0163886
-0.0103231
0.0831654
0.0846873
0.120588
0.0947423
0.111892
0.013005
-0.0532993
-0.0215335
-0.0339954
0.114375
0.0171763
-0.0142877
0.109921
-0.0498785
0.0743749
0.0606652
0.0015237
0.00646449
-0.00986412
-0.0418169
0.0832073
-0.0272172
0.0493444
0.00201243
0.108353
0.0214674
0.123158
-0.0308077
0.000563224
-0.0522038
-0.0846096
-0.00912496
0.0726717
-0.00364876
-0.0474004
0.0123941
0.108183
0.064184
-0.0376292
-0.0490396
-0.0132367
-0.0556508
0.00721981
-0.0595981
-0.0171811
-0.0373166
0.0583803
-0.0514454
0.00106701
0.103227
0.0266382
0.0614216
0.0783693
-0.0237776
-0.000578255
-0.0199131
0.0823499
-0.0316494
0.0109947
0.0138046
-0.043492
-0.0646221
-0.00289108
0.00410531
0.0634043
0.122299
0.088484
0.0159677
0.053212
-0.0623153
0.116312
0.0391897
0.0772639
0.00831857
0.0596988
-0.0450749
-0.0116003
0.0728358
0.110488
0.0705935
0.0161887
-0.0307944
0.124281
0.0123908
0.085185
0.11392
0.0444568
-0.0043053
-0.0625973
0.082424
0.0469826
-0.0445642
0.0364955
0.0386645
0.107045
-0.0209809
0.113842
0.121796
-0.0177297
-0.0286212
0.113416
-0.0436458
-0.0413423
-0.00745767
-0.0385536
-0.00118051
-0.0349459
-0.0564599
-0.000407794
0.00505848
-0.0147245
-0.0324633
0.0184874
-0.0549185
-0.0315969
0.0332225
0.000603691
-0.0598979
0.102369
0.123503
0.116674
0.000225113
-0.070024
0.123515
-0.0489035
0.00191103
0.00420016
-0.0359844
0.00858858
0.0568897
-0.0270402
-0.0417733
-0.0616039
-0.0591642
-0.046607
-0.0322718
-0.0718009
-0.00543231
0.0107653
-0.0115311
0.107823
0.0191944
0.0565547
0.0130878
0.0822809
-0.0397485
-0.0302671
0.129569
0.00479328
0.0455617
-0.0506054
0.0446787
0.12358
-0.0301682
0.0455002
0.0444531
-0.0509154
-0.000276431
-0.0458432
-0.0284196
0.0601333
-0.0399525
-0.000790688
-0.040689
-0.0175274
-0.0130714
-0.0441918
0.00302999
-0.0306199
-0.0405318
0.121952
-0.00211665
0.00586016
0.01311
0.108524
-0.0250602
-0.0575241
0.0813395
-0.0430525
-0.0152747
0.00667706
0.0310685
-0.0453999
0.0206585
0.0336978
0.120405
0.0868841
-0.0539963
-0.0374916
-0.062189
0.00554727
-0.0720134
-0.0260227
0.00668706
-0.0265274
0.00560087
0.0340353
0.129439
-0.0197589
0.0555427
0.0202228
0.115494
-0.0354919
0.124764
0.0275815
-0.0478167
0.0388463
0.0610546
-0.0357562
0.0932709
0.00743266
0.0914916
-0.033111
-0.0516058
-0.0089716
0.127608
0.123288
0.0591494
0.0424054
0.0600543
-0.0715771
-0.047723
0.06715
0.123046
-0.0396685
0.0208513
0.00886308
-0.0400309
-0.0124884
-0.0114294
-0.0372511
-0.0218254
-0.0337708
0.000158422
-0.0332525
-0.00334376
0.124006
0.0862335
-0.0738462
0.0707367
-0.0194614
-0.049412
0.0774893
-0.0422371
-0.0167641
0.0572231
-0.0326497
-0.0266059
0.000248905
0.0894053
-0.0407978
-0.0281885
-0.0238975
0.0303371
-0.0340312
0.108032
-0.0674672
-0.035892
-0.0250147
-0.0380545
0.0476051
0.0319656
0.109624
0.00242068
0.0739803
0.00997494
0.0297721
-0.00168747
0.0512464
-0.0460928
-0.0400614
-0.0861481
0.048103
-0.01282
-0.0260001
0.101479
0.0111946
0.0476455
0.0487673
-0.02183
-0.0346152
-0.0253177
0.0381629
0.00363601
0.128399
-0.0503901
-0.0698397
0.000196668
-0.0414746
0.00100059
0.00883293
0.06324
-0.0136197
-0.00746502
-0.0392376
0.00980802
-0.011017
-0.0104059
0.124641
0.116424
-0.0335332
-0.0151874
0.0857316
0.039436
-0.00953552
-0.0463358
-0.00303496
-0.0472296
0.00911491
0.101044
-0.00813493
-0.0659331
0.0327346
0.00311801
-0.0662367
-0.0384195
0.008004
0.0507523
0.127615
-0.0431828
-0.0611807
0.0181071
0.0853419
-0.0265714
0.0231721
-0.0272961
0.00559614
-0.0308853
0.0299309
-0.0155182
0.00333905
0.0701541
-0.0253655
-0.0748978
0.00695725
-0.00307579
0.0736934
0.124093
0.00562407
-0.0352141