/*--------------------------------*- C++ -*----------------------------------*\
  =========                 |
  \\      /  F ield         | OpenFOAM: The Open Source CFD Toolbox
   \\    /   O peration     | Website:  https://openfoam.org
    \\  /    A nd           | Version:  6
     \\/     M anipulation  |
\*---------------------------------------------------------------------------*/
FoamFile
{
    version     2.0;
    format      ascii;
    class       volVectorField;
    location    "0";
    object      U;
}
// * * * * * * * * * * * * * * * * * * * * * * * * * * * * * * * * * * * * * //

dimensions      [0 1 -1 0 0 0 0];

internalField   nonuniform List<vector> 
918
(
(0.776265 -0.170995 0)
(0.0119264 2.97292 0)
(-0.273208 1.77486 0)
(0.676717 0.181836 0)
(0.0244942 1.73355 -6.15878e-20)
(-0.077368 2.8879 -1.28092e-19)
(1.14459 1.75415 3.29801e-19)
(0.472366 0.284976 -1.44484e-20)
(0.809667 0.00724687 0)
(0.0412064 1.76826 0)
(0.025654 1.7354 0)
(0.934789 0.00911256 0)
(-0.0803738 3.14807 0)
(0.046503 2.96445 0)
(-0.0923043 2.70021 3.19909e-19)
(-0.028922 1.71569 -3.86053e-20)
(0.701088 0.166713 1.20388e-18)
(0.234316 2.04948 3.01514e-19)
(0.976661 0.065311 0)
(0.0379718 1.71495 0)
(0.606362 0.0218121 2.97093e-19)
(0.609543 -0.0301079 0)
(0.801947 0.0450119 0)
(1.07162 0.0628309 0)
(0.854314 0.0676396 0)
(0.0642419 2.99492 0)
(0.00326549 2.85462 4.81039e-20)
(-0.292438 1.78923 0)
(-0.0610671 1.65102 0)
(-0.335713 1.76176 0)
(0.0200113 1.72531 0)
(-0.122396 1.67261 4.80225e-20)
(-0.0349219 1.69705 0)
(-0.0332836 3.04132 6.85334e-24)
(0.00729996 3.00211 1.07491e-19)
(0.0372946 3.01167 0)
(0.986672 -0.0068092 0)
(0.811093 1.28941 2.71954e-19)
(1.18129 1.69353 -3.02814e-19)
(1.25982 1.5763 2.98389e-19)
(0.977516 1.86499 -7.97614e-20)
(0.925399 1.95385 4.95497e-19)
(0.518021 0.304184 1.40717e-20)
(0.531976 0.279431 0)
(1.3886 0.790332 0)
(0.452618 0.315369 5.72128e-20)
(0.408625 0.280433 -6.02278e-20)
(0.996691 -0.00986701 0)
(0.890341 0.0104248 0)
(0.812564 -0.000698852 0)
(0.851437 -0.130566 0)
(0.841698 0.0526627 0)
(0.828221 0.0356571 0)
(-0.0137258 1.58704 -5.44792e-19)
(0.0389549 1.83772 0)
(0.0201295 1.84397 0)
(-0.0173565 1.80706 0)
(-0.00864235 1.82181 0)
(-0.0263344 1.72036 0)
(0.0393211 1.77009 0)
(-0.000276766 1.75788 0)
(0.000275187 1.73456 0)
(0.00125466 1.71355 0)
(1.00648 -0.00703814 0)
(0.966595 0.0305809 0)
(0.962015 0.000928724 0)
(0.950094 -0.00149591 0)
(0.945513 0.00129982 0)
(-0.0136851 2.98903 5.81105e-20)
(0.0353092 2.91383 0)
(-0.0536717 2.96163 0)
(-0.107876 3.14465 -1.96625e-24)
(-0.184265 2.91386 -8.88112e-20)
(0.0054264 3.16237 0)
(0.0887295 3.00659 0)
(0.0338773 3.01068 -2.84493e-25)
(0.00964706 2.92774 0)
(0.0967833 3.00649 0)
(0.0924151 2.9123 0)
(0.138547 2.84627 0)
(-0.123573 2.8725 0)
(0.00526046 2.75298 -2.96076e-19)
(-0.115821 2.63483 0)
(0.00594234 1.72069 0)
(-0.0367344 1.74847 3.80694e-20)
(0.0171331 1.72704 -5.28617e-20)
(0.728082 0.170989 -4.14839e-19)
(0.738084 0.152816 -4.01373e-19)
(0.694408 0.223573 -1.24588e-18)
(0.66126 0.205687 -8.02369e-19)
(0.19943 1.40519 0)
(0.365147 2.11833 -3.34407e-19)
(0.465227 2.11453 5.69409e-19)
(0.985985 -0.00994972 0)
(0.981266 -0.00568125 0)
(0.798176 -0.0236298 0)
(0.941539 0.0185079 0)
(1.00292 0.159968 -4.02049e-18)
(1.10788 0.24588 2.9984e-18)
(0.0429349 1.7734 0)
(-0.0110718 1.74915 0)
(0.0530232 1.7109 0)
(-0.0237098 1.7429 0)
(-0.023809 1.74769 0)
(0.744376 0.125054 -3.67625e-20)
(0.373609 0.351502 0)
(1.05765 0.00803297 0)
(1.00912 -0.0100564 0)
(0.941319 0.0317305 0)
(0.894424 0.111247 0)
(0.903653 0.0247228 0)
(1.13984 -0.022775 0)
(0.850755 0.0487422 0)
(0.829607 0.0375607 1.89134e-18)
(-0.0931441 2.87117 -1.21314e-19)
(-0.0496522 2.97787 0)
(-0.0364447 3.08793 0)
(-0.00231744 2.94052 0)
(0.0133197 2.93097 -8.26916e-22)
(0.0857313 2.87644 0)
(-0.00319018 2.90989 -9.7196e-20)
(-0.103394 2.85851 5.06226e-20)
(0.0581372 1.7205 0)
(-0.0135479 1.74603 0)
(-0.0101659 1.72105 -1.81291e-21)
(-0.0535369 1.73234 0)
(0.0204986 1.71365 0)
(1.00452 0.00595366 0)
(0.98956 -0.0108922 0)
(0.981535 -0.00676313 0)
(0.999337 -0.00108307 0)
(0.982244 0.00979806 0)
(0.917793 1.3636 -3.41866e-19)
(0.904373 1.27644 0)
(0.810258 1.33731 4.51648e-20)
(0.782039 1.266 0)
(1.22412 1.45244 -7.11067e-20)
(1.37156 1.28286 8.13527e-20)
(0.571571 2.12537 0)
(0.796876 2.02382 0)
(0.702744 2.07332 0)
(0.525545 1.26244 -3.11512e-19)
(0.561711 0.306152 0)
(0.570287 0.252522 2.12535e-19)
(1.25162 1.2188 0)
(1.28152 0.965728 0)
(1.39133 1.02694 4.41601e-20)
(1.33865 0.753423 0)
(1.39069 0.620206 4.85321e-20)
(0.994425 0.0184616 0)
(1.00784 -0.0207735 0)
(0.988305 -0.0087959 0)
(1.0031 0.00477936 0)
(1.0028 -0.0140482 0)
(0.981843 0.00433487 0)
(0.844254 -0.0204695 0)
(0.85244 -0.0139764 0)
(0.821765 0.0036698 0)
(-0.0259064 1.63864 2.70909e-19)
(0.0345853 1.58637 0)
(0.0295984 1.6504 5.39287e-19)
(0.0272533 1.66844 -4.55151e-19)
(0.101177 2.01955 -2.49318e-19)
(-0.000472152 1.9169 0)
(0.0260276 1.96485 0)
(-0.00235093 1.81666 0)
(0.00840263 1.7529 0)
(-0.0420769 1.75054 -9.34353e-22)
(0.000288928 1.73645 0)
(0.0304918 1.74239 -1.08953e-19)
(0.0377438 1.74534 1.84213e-19)
(0.0218391 1.75565 0)
(0.0199378 1.76675 0)
(0.00451767 1.73861 0)
(-0.00712339 1.75617 0)
(-0.00708118 1.78447 0)
(1.03272 0.0267328 0)
(1.02969 0.00875332 0)
(1.02256 -0.0106415 0)
(1.0012 0.00372136 0)
(0.977694 -0.00318321 0)
(0.976862 0.00267883 0)
(0.966863 0.0118393 0)
(0.947751 0.000951861 0)
(0.0317513 3.10384 -3.99644e-22)
(0.0606384 3.06947 0)
(0.101129 2.98678 0)
(0.00245737 2.89961 0)
(0.623499 3.0433 0)
(0.88351 2.54167 3.68633e-19)
(-0.0655698 2.77648 0)
(-0.0740767 2.74089 0)
(-0.0189428 1.81586 0)
(-0.00567241 1.66842 0)
(0.00235468 1.73368 0)
(0.119801 1.8348 -7.72187e-20)
(0.00554405 1.81167 0)
(0.0976387 1.77257 0)
(0.0250295 1.73082 2.83218e-20)
(0.0205329 1.74223 7.37327e-20)
(0.00437988 1.72848 5.40404e-20)
(0.00972122 1.69804 0)
(0.759246 0.164746 6.59636e-19)
(0.753172 0.0851566 -6.52065e-19)
(0.219239 1.41681 0)
(0.227648 1.34196 -1.81372e-19)
(0.153646 1.50687 -5.34796e-19)
(0.0984042 1.48312 5.33998e-19)
(0.995813 -0.00684136 0)
(0.993083 -0.0192892 0)
(0.993134 0.00445913 0)
(0.968769 0.00693122 0)
(0.000366204 1.78778 0)
(0.013033 1.75725 0)
(0.0105938 1.74707 0)
(0.40745 0.294579 4.79088e-19)
(0.427238 0.25974 -4.08169e-19)
(0.36606 0.281046 0)
(1.18905 0.117776 6.08784e-20)
(1.26104 0.0457051 0)
(1.13235 0.0351413 0)
(1.0796 0.00854465 0)
(0.783501 0.101241 0)
(0.823003 0.052235 -3.07937e-18)
(0.772848 0.0506954 1.17167e-18)
(-0.0730787 2.97229 -1.15921e-19)
(0.0149615 2.92178 -1.09598e-20)
(0.148275 3.00267 -3.45938e-21)
(0.241377 3.03621 -8.5672e-20)
(-0.120889 2.90466 6.54695e-21)
(-0.177627 2.92465 5.9499e-24)
(-0.165236 3.04149 5.34314e-20)
(0.161198 2.97787 -3.92965e-20)
(0.265723 3.08842 9.51194e-20)
(1.01634 0.0121466 0)
(1.00141 0.040393 0)
(0.99641 0.0212732 0)
(0.994249 -0.0124477 0)
(0.985489 -0.011946 0)
(0.966343 -0.00136686 0)
(0.983231 -0.00985115 0)
(0.996426 0.0174219 0)
(0.968909 0.00657381 0)
(0.983014 1.31617 -2.33113e-19)
(0.930221 1.29592 0)
(0.671273 1.26277 8.72371e-20)
(0.701333 1.33933 6.66393e-19)
(0.781187 1.33356 -4.03498e-19)
(0.730755 1.28045 7.71811e-19)
(0.506665 1.31399 1.51093e-18)
(0.509117 1.28722 2.70532e-19)
(0.660668 0.241894 8.35963e-19)
(0.61646 0.271043 2.08529e-19)
(0.633178 0.240249 3.94293e-19)
(1.29658 0.562712 -2.71466e-19)
(1.34988 0.378179 -3.30406e-19)
(0.00611307 1.70111 1.95466e-19)
(0.00839111 1.67605 0)
(1.07773 0.0412842 0)
(1.05794 0.00476028 0)
(1.03881 -0.00662024 0)
(0.0235869 3.09716 0)
(0.00195977 2.98799 -5.58264e-20)
(-0.0232561 2.96911 0)
(-0.0320588 2.91271 5.90085e-20)
(0.00616038 3.07718 -1.33628e-20)
(0.0301117 3.08569 0)
(0.901601 1.35365 -2.55421e-20)
(0.893916 1.93433 7.10374e-20)
(0.721903 1.50614 -4.04306e-19)
(-0.0540784 2.91176 1.1904e-19)
(-0.0428204 2.83322 0)
(-0.0716344 2.79212 0)
(-0.0550072 1.76535 -2.25188e-21)
(0.0344675 1.71298 -2.04138e-19)
(-0.0451778 1.67656 3.11914e-20)
(0.255339 1.38195 5.62417e-19)
(0.28877 1.32176 -3.80944e-19)
(0.0470002 1.60899 3.70503e-19)
(0.0881433 1.55618 -4.52407e-19)
(0.0517563 1.54914 5.62298e-20)
(-0.101541 3.09616 3.87298e-19)
(-0.0813348 3.10846 -4.69061e-19)
(0.0186329 2.95617 -6.72247e-20)
(0.0802848 2.98943 1.21065e-19)
(0.125677 2.90345 6.84308e-20)
(0.011607 3.06337 1.73178e-19)
(-0.0783534 3.06173 -1.92476e-19)
(0.536447 1.32049 0)
(0.607073 1.32584 -1.45477e-18)
(0.584177 1.22752 6.51763e-19)
(0.426797 1.36276 7.99385e-19)
(0.414122 1.28692 -1.24834e-18)
(1.27239 0.180726 2.01699e-19)
(1.309 0.366264 0)
(1.33144 0.246845 -1.77395e-19)
(0.0111754 1.73916 -2.25267e-21)
(-0.0109418 1.71079 0)
(0.00730535 1.69553 0)
(0.310394 1.38251 -2.00995e-19)
(0.365181 1.35741 -4.61844e-19)
(0.380213 1.34473 8.64958e-19)
(1.01058 -0.0867733 0)
(1.11303 -0.145859 7.34617e-19)
(0.0623687 1.73356 0)
(0.00344861 1.73148 0)
(1.04786 -0.0438964 4.46816e-20)
(0.907131 -0.0955899 1.60952e-18)
(0.00851715 1.82899 1.03188e-19)
(0.0958329 1.79109 0)
(-0.077301 2.921 -7.39016e-20)
(-0.0397877 2.47842 0)
(1.19788 0.623261 -2.00526e-19)
(1.07131 -0.0134266 -2.15097e-20)
(1.0806 0.0499951 0)
(1.00341 -0.00286321 -3.5433e-21)
(0.0330556 1.93824 0)
(0.154608 1.79452 0)
(-0.0488367 1.81513 0)
(0.129522 1.86791 7.98921e-20)
(0.0246807 1.86405 1.09362e-20)
(1.01879 -0.00819194 7.80547e-21)
(1.11985 0.0799182 0)
(1.12725 0.0501821 0)
(-0.00823065 1.72914 0)
(0.0497593 1.79239 0)
(-0.0471421 1.82468 0)
(0.228138 2.00221 -9.60687e-20)
(0.992607 -0.103362 0)
(0.982556 -0.0693422 0)
(0.980137 0.110678 9.7078e-19)
(0.976173 0.0368174 -1.10773e-18)
(1.12633 -0.0492611 0)
(-0.00339555 1.7251 0)
(0.00761336 1.73083 0)
(-0.0133598 1.75235 0)
(-0.0356807 1.85092 0)
(-0.0514987 1.76309 0)
(0.00896991 1.69705 0)
(1.03794 0.00400587 0)
(1.05847 -0.0150132 -7.10062e-22)
(0.892392 1.72464 1.50989e-19)
(1.00386 -0.123901 -9.66077e-19)
(1.03471 0.0653727 1.19766e-18)
(1.14728 0.0639012 0)
(0.973194 -0.00206166 9.62192e-19)
(1.02676 0.0505765 -1.20941e-18)
(0.991563 0.0277726 0)
(0.0235237 1.81592 0)
(0.063233 1.74644 6.93163e-20)
(-0.020003 1.72289 -4.57539e-20)
(1.23451 0.320094 1.21323e-18)
(1.16611 0.089509 0)
(-0.362374 2.98851 1.16681e-19)
(-0.026808 3.16759 1.69852e-20)
(-0.190464 2.95115 1.71387e-19)
(-0.0363816 2.90147 6.73332e-20)
(-0.0333529 2.87125 0)
(-0.0562765 2.96091 -2.27056e-20)
(-0.107891 3.10058 -1.32559e-19)
(-0.0822574 3.00269 5.09726e-20)
(-0.101352 3.06883 0)
(0.661733 0.285987 0)
(0.501092 0.354017 0)
(1.07985 0.842106 5.73223e-19)
(1.14933 0.941133 -6.99437e-19)
(1.14123 0.580787 0)
(1.13952 0.633504 0)
(1.0576 0.0311473 -1.78458e-18)
(0.990146 0.0169175 2.32059e-18)
(1.08606 -0.0856679 0)
(0.997884 -0.0837157 0)
(0.892211 0.0763255 0)
(1.05099 -0.0373714 0)
(1.00304 0.030235 0)
(0.990182 -0.0544855 0)
(1.04559 -0.123566 0)
(0.970713 0.0227422 0)
(0.0169822 1.91302 0)
(-0.0031689 1.80529 0)
(0.111998 1.84601 0)
(0.19183 1.8733 0)
(0.12232 1.66717 0)
(0.0651899 1.64443 -2.91402e-19)
(0.161927 1.75202 0)
(0.0551181 1.67817 1.78689e-19)
(0.11185 1.78153 -1.38708e-19)
(-0.0040675 1.84385 0)
(0.0796725 1.74407 0)
(-0.0648321 1.76685 0)
(-0.0831816 1.7548 0)
(-0.055458 1.80494 -4.69592e-21)
(-0.0372369 1.70092 1.8666e-19)
(0.0646154 1.8571 5.66888e-20)
(-0.0113068 1.75512 0)
(0.0110327 1.83569 -8.61653e-20)
(-0.0121996 1.74537 -2.08157e-19)
(0.0686838 1.84093 -3.55059e-20)
(-0.140012 1.53433 -2.34249e-19)
(0.100127 1.72962 -7.11885e-20)
(0.993564 -0.035225 1.63619e-18)
(0.987679 -0.0770421 -2.11121e-18)
(1.00432 0.0290853 -1.68345e-18)
(0.922703 0.0132635 2.23927e-18)
(1.0703 0.0607521 0)
(1.0164 0.0257102 0)
(1.01465 0.0351302 0)
(1.08417 0.00278006 0)
(0.990529 -0.00988322 0)
(1.07151 0.079759 0)
(1.10605 0.0180968 0)
(1.02961 0.0223289 0)
(-0.210054 1.68385 -5.0382e-21)
(0.048927 1.79068 0)
(-0.0890141 1.73381 0)
(0.0683166 1.73871 1.83268e-20)
(0.081824 1.77653 -1.55308e-21)
(0.0254745 1.83855 2.36226e-21)
(-0.140115 1.71277 -2.32969e-21)
(-0.085748 1.76342 0)
(-0.0224791 1.81252 0)
(0.11276 1.76811 0)
(-0.0816359 1.75747 0)
(-0.0986699 1.79413 0)
(0.363012 1.89781 1.04111e-19)
(0.441006 1.99401 9.71852e-20)
(0.3275 1.49341 -1.32881e-19)
(0.244366 1.61617 3.37998e-19)
(0.333928 1.77912 4.09008e-20)
(1.01752 0.034065 0)
(0.99494 0.0354278 0)
(1.01537 0.0787863 0)
(0.971617 -0.051369 0)
(0.99745 -0.049053 0)
(0.900557 0.0404197 0)
(1.00403 0.167811 0)
(1.04581 0.081128 0)
(0.996455 -0.0410045 1.74528e-18)
(1.00338 -0.050399 -2.2518e-18)
(1.04195 0.0178037 -1.71453e-18)
(0.976756 0.0359939 2.25193e-18)
(0.873666 1.70988 0)
(0.836425 1.70607 2.50606e-20)
(0.853708 1.59415 -6.17133e-20)
(0.95581 1.5262 8.25547e-20)
(0.857942 1.54268 1.11099e-18)
(0.87504 0.0994522 7.41111e-19)
(1.14057 0.0902803 0)
(1.14622 0.262523 -9.97453e-19)
(1.09708 0.112515 -4.24746e-20)
(0.97624 0.154363 0)
(-0.745091 2.71156 1.73471e-19)
(-0.472857 2.73144 4.19404e-20)
(-0.350009 3.17152 -2.05757e-19)
(-0.575005 1.55658 2.32681e-19)
(-0.125052 2.65039 -5.89715e-20)
(0.014189 2.80828 0)
(0.0897134 2.72223 7.72989e-20)
(-0.600613 2.71232 -5.25012e-19)
(-0.552444 2.54939 0)
(-0.0649786 3.01034 -9.04376e-21)
(-0.107645 3.07385 1.77588e-20)
(-0.0460045 3.06534 -2.84798e-20)
(-0.0241853 3.08882 0)
(-0.0730914 2.98831 0)
(1.06715 1.77393 0)
(0.209679 1.16448 -6.25425e-19)
(1.07684 1.18799 1.93743e-19)
(0.920095 1.44777 0)
(0.811216 1.16924 -2.3455e-19)
(1.01109 1.15555 3.95215e-20)
(0.214218 -0.168367 -2.31437e-19)
(0.646788 0.267443 -1.17785e-23)
(0.620972 0.306951 4.42834e-19)
(0.460535 0.409119 2.48359e-20)
(0.370134 0.326668 -9.48825e-19)
(0.592834 0.400613 0)
(0.603344 0.471718 6.99926e-19)
(0.593781 0.345334 0)
(0.472322 0.364568 0)
(0.498029 0.348223 0)
(0.590643 0.760605 5.60194e-19)
(1.23963 0.243881 -9.61804e-19)
(1.13552 0.478247 0)
(1.20799 0.253964 0)
(0.788652 0.21808 6.90925e-19)
(0.593478 0.665958 -4.614e-19)
(0.575668 0.51682 8.55276e-19)
(0.849952 0.405467 -9.13965e-19)
(0.988984 -0.0147905 1.22401e-18)
(1.01014 0.134631 -1.25112e-18)
(0.982868 0.0788437 0)
(1.00567 -0.0278031 0)
(0.989243 -0.0483825 -1.18318e-18)
(0.993544 0.0227005 1.17237e-18)
(0.977935 0.0757694 0)
(0.964524 0.00836583 0)
(1.06281 -0.0226017 0)
(0.962081 -0.0178815 0)
(1.03531 -0.0415489 0)
(0.994274 -0.0700313 0)
(0.113169 1.8126 0)
(0.14904 1.79719 0)
(0.0675758 1.86308 -8.98167e-20)
(0.249695 1.98817 1.9846e-20)
(0.275675 1.90758 -2.54492e-20)
(0.179911 1.94493 2.19123e-21)
(-0.0293507 1.80593 0)
(0.296048 1.73022 -1.90851e-19)
(0.0339703 1.89831 0)
(0.311634 1.76483 -5.75828e-20)
(0.193356 1.61447 4.51491e-19)
(0.287325 1.71078 1.68084e-19)
(0.184115 1.81952 -3.77465e-20)
(0.0703766 1.71086 3.10437e-20)
(0.188472 1.86472 -1.18147e-19)
(0.23454 1.73499 0)
(0.241839 1.71957 9.17145e-20)
(0.0589656 1.69903 -7.3421e-20)
(0.056975 1.70025 0)
(-0.00157377 1.72928 1.92102e-19)
(-0.0541392 1.7208 0)
(0.00870652 1.70401 -1.99496e-19)
(0.0142049 1.6695 0)
(0.0256122 1.75447 -5.55282e-20)
(0.104857 1.75169 0)
(0.0585153 1.73098 0)
(0.0364056 1.7883 6.47628e-20)
(0.0781181 1.6958 9.05746e-20)
(0.0626549 1.78009 1.66334e-19)
(0.022427 1.6916 1.92243e-21)
(0.119827 1.67324 1.84236e-20)
(0.069325 1.60259 2.55422e-20)
(-0.0372168 1.7184 0)
(-0.143021 1.76694 0)
(-0.0310717 1.75073 8.69512e-20)
(-0.09781 1.76196 1.93828e-19)
(0.0352002 1.78326 -2.00185e-19)
(-0.031121 1.79242 0)
(0.0423834 1.72137 -2.04593e-19)
(-0.0852587 1.66388 2.20962e-20)
(-0.071621 1.81626 6.17873e-21)
(0.152603 1.92078 -2.20571e-20)
(0.137062 1.55557 -7.22017e-20)
(-0.0488069 1.6753 1.10526e-19)
(0.98831 0.0547856 -1.20493e-18)
(0.987434 -0.0892289 1.14494e-18)
(0.974889 0.0508944 0)
(0.986517 -0.0813891 1.64567e-18)
(0.907286 0.152241 -1.8126e-18)
(0.941855 0.0588975 1.97673e-18)
(0.970502 -0.0499223 -2.05441e-19)
(1.07968 -0.093173 0)
(1.01186 -0.0153957 1.15692e-18)
(0.99048 -0.064877 -1.1506e-18)
(0.941412 0.00323323 -6.37427e-20)
(0.969346 0.10825 5.35763e-19)
(0.993295 0.105241 0)
(0.956954 0.0543462 -1.957e-19)
(0.998045 0.0478174 0)
(0.953504 0.0707762 0)
(1.01549 0.0909989 0)
(0.967747 0.000562682 0)
(1.03608 0.0794332 4.00183e-19)
(1.03829 0.0463602 -9.28859e-19)
(0.966282 -0.0202409 -4.18932e-19)
(0.986205 -0.00428287 -4.65125e-19)
(1.10974 0.084173 8.94441e-19)
(0.9872 0.0723475 0)
(0.926873 0.00575178 0)
(0.0350359 1.88 6.3704e-20)
(0.193084 1.72992 -6.85135e-21)
(0.0673362 1.70456 0)
(0.0495579 1.79927 -6.49018e-20)
(-0.168227 1.76419 1.17034e-20)
(-0.0516549 1.71912 -2.00065e-20)
(-0.103115 1.77503 1.74251e-19)
(0.0628136 1.76706 -8.14985e-21)
(0.198795 1.69142 6.00047e-20)
(-0.0264776 1.75738 -7.64181e-20)
(-0.0952445 1.77259 8.88304e-20)
(0.028568 1.69984 -1.75017e-20)
(-0.0174376 1.76159 1.52774e-19)
(0.484721 1.77101 -8.64062e-21)
(0.364946 1.764 1.85752e-19)
(0.759574 1.77659 -2.46476e-20)
(0.588145 1.92802 -9.34337e-20)
(0.64595 1.93568 0)
(0.276044 1.44748 1.57792e-19)
(0.257732 1.40452 2.02845e-19)
(0.228378 1.47985 3.76277e-20)
(0.383631 1.51359 -4.92066e-19)
(0.415686 1.46535 4.91676e-19)
(0.289304 1.52288 0)
(0.171833 1.45281 -3.39886e-19)
(0.0683348 1.62273 7.36173e-19)
(0.136748 1.65595 1.05391e-20)
(0.0204129 1.55821 -9.46031e-19)
(0.669633 1.41396 8.41053e-19)
(0.47833 1.45526 0)
(1.02272 0.147082 3.74711e-20)
(1.01248 -0.134598 -3.24428e-20)
(0.940186 -0.129981 -5.92897e-19)
(0.989791 0.00372844 5.99842e-19)
(0.979368 0.0648827 0)
(0.811669 1.59302 0)
(0.843988 1.63846 0)
(0.932206 1.30842 0)
(0.6392 1.39948 0)
(0.861252 1.54314 6.32755e-21)
(0.823615 1.52695 0)
(0.605106 1.48008 5.908e-21)
(0.462991 1.49874 0)
(0.572258 1.52595 -5.57238e-19)
(0.569632 1.46926 3.70238e-19)
(0.838259 0.101144 0)
(0.809331 0.113066 1.95532e-19)
(0.884845 0.087956 1.20992e-18)
(0.852886 0.0799846 -4.31538e-19)
(0.833816 0.116309 -1.39311e-18)
(1.10367 0.152526 -1.34812e-18)
(0.763054 0.376148 -3.62065e-20)
(0.912502 0.192346 1.04515e-18)
(0.931724 0.0605595 1.01365e-18)
(0.853378 0.184628 -1.60267e-18)
(0.902028 0.26007 1.96286e-19)
(0.712031 0.319219 -4.63632e-19)
(0.87208 0.293234 0)
(0.952786 0.130998 7.69275e-19)
(0.96061 0.215444 0)
(1.03142 0.133126 0)
(0.972129 0.196624 4.53035e-19)
(0.945455 0.320602 -9.59082e-21)
(0.877901 0.0985769 -2.65728e-19)
(0.941772 0.0923379 0)
(0.955805 0.0580642 8.74585e-19)
(0.972405 -0.0904122 1.10402e-18)
(1.09045 0.0757888 -8.44689e-19)
(0.992543 0.127954 -7.43812e-19)
(0.924675 -0.0121413 -1.17865e-18)
(0.888771 0.1918 0)
(0.95128 -0.00614337 0)
(0.912646 0.101807 -7.02064e-19)
(0.911775 -0.0309361 2.56361e-19)
(1.01155 0.126068 9.98658e-19)
(1.06578 0.10491 -1.282e-18)
(0.953532 0.13076 1.12814e-18)
(0.911521 0.209189 0)
(1.00804 0.127973 0)
(0.930734 0.0922924 -4.90568e-19)
(0.959315 0.0933311 -8.16707e-19)
(0.630508 1.54497 2.59905e-19)
(0.587838 1.53849 -2.84577e-19)
(0.767392 1.56525 -3.68155e-19)
(0.725806 1.71836 1.00364e-19)
(0.880134 1.58215 -1.01506e-18)
(1.07852 1.73862 2.44898e-19)
(1.06728 1.62404 -4.06362e-20)
(0.856101 1.68562 -4.01194e-19)
(0.795897 1.64968 5.89103e-19)
(0.841635 2.02003 8.34056e-20)
(1.01871 1.97857 -8.66418e-20)
(1.05961 2.00066 0)
(0.440629 1.36042 -6.60607e-20)
(-0.85308 1.74272 2.00603e-19)
(-0.313197 0.249531 2.36156e-19)
(-0.52288 0.617035 -2.78353e-19)
(0.325821 0.3732 5.36742e-19)
(0.271238 0.347204 -1.00007e-18)
(0.2339 0.393393 7.9409e-19)
(0.187565 0.265589 -1.62156e-19)
(0.314744 0.220039 4.41139e-19)
(0.75619 0.284774 -4.04103e-19)
(0.6391 0.335255 0)
(0.65267 0.265112 8.75601e-21)
(0.551039 0.475498 3.77523e-19)
(0.373755 0.57285 -1.36893e-18)
(0.341276 0.430873 -3.30441e-20)
(0.414494 0.394297 0)
(0.482344 0.993565 5.24883e-19)
(0.710512 0.917797 5.74833e-19)
(0.648702 1.11418 -6.77797e-19)
(0.676874 0.942643 -2.5877e-19)
(0.902509 0.913836 -8.67696e-20)
(0.9096 1.05314 8.9729e-20)
(0.720221 0.696665 -9.49394e-19)
(0.742448 0.953292 2.43768e-19)
(0.989216 0.822733 0)
(0.873468 0.777897 -3.46509e-19)
(0.867999 0.393202 2.9393e-19)
(0.984472 0.38258 5.31783e-19)
(1.12454 0.298693 5.25922e-19)
(0.883585 0.434797 -6.017e-19)
(1.04669 0.345761 0)
(0.981747 0.368433 0)
(0.72057 0.409997 1.39199e-20)
(0.779154 0.276399 0)
(0.664481 0.347265 4.94248e-19)
(0.949527 0.23667 -1.63312e-20)
(0.891585 0.547572 2.52369e-18)
(0.698929 0.537568 7.3524e-19)
(0.72801 0.548945 -6.90189e-19)
(0.696009 0.423107 7.34571e-19)
(0.634342 0.533373 4.26702e-19)
(0.594234 0.395574 -4.16528e-19)
(0.991235 0.13099 9.60611e-19)
(0.958459 -0.129578 0)
(0.985062 0.0205842 6.43182e-19)
(0.900977 0.176476 -1.43553e-18)
(1.04241 -0.0399802 6.86721e-19)
(0.951024 0.0581171 -1.43128e-18)
(1.03761 -0.0127719 0)
(0.970597 -0.0505549 -3.06916e-19)
(0.98875 0.0970432 7.7502e-19)
(0.955821 0.00350428 -4.00078e-19)
(0.94832 -0.127584 2.90893e-19)
(-0.0846949 1.78573 0)
(0.233389 1.71193 0)
(0.0127962 1.7838 0)
(-0.0444676 1.82636 0)
(0.0582342 1.80528 1.53114e-19)
(0.0842473 1.76271 -4.68865e-20)
(0.083206 1.69078 -7.21756e-20)
(0.227848 1.65798 5.79922e-20)
(-0.078866 1.74855 -2.26168e-19)
(0.0552258 1.72554 1.64154e-19)
(0.00207762 1.8499 1.34649e-20)
(0.0370382 1.7525 -1.00133e-19)
(0.0055921 1.7142 -2.86599e-20)
(0.20753 1.78341 -2.45874e-20)
(0.0144665 1.67523 -2.06578e-19)
(0.0930456 1.66518 0)
(0.103177 1.7117 1.22342e-19)
(-0.0266466 1.81269 4.90334e-20)
(0.145644 1.64315 -1.16138e-19)
(0.155266 1.61753 0)
(0.157412 1.57664 -4.77092e-19)
(0.138188 1.61652 3.49928e-19)
(0.236214 1.65265 -3.00326e-19)
(0.209452 1.67906 2.18515e-19)
(-0.0641856 1.48696 0)
(0.0581732 1.6435 -9.94831e-20)
(-0.0141758 1.583 -2.79454e-19)
(-0.0713955 1.59489 0)
(0.0697922 1.80325 1.25289e-20)
(0.0625242 1.78331 5.61729e-20)
(0.00981955 1.8161 2.28e-20)
(0.043153 1.66492 -4.11266e-19)
(-0.0160041 1.74591 1.41358e-19)
(-0.0940678 1.65108 1.12551e-19)
(0.0534309 1.86099 0)
(-0.0058003 1.90957 0)
(-0.00411821 1.75937 1.02958e-19)
(0.0990074 1.70988 -4.012e-20)
(-0.0161117 1.8392 0)
(-0.00593703 1.78665 5.43717e-20)
(0.0851423 1.73778 -1.21726e-19)
(0.958964 0.244787 0)
(1.09092 0.176166 -1.07334e-19)
(0.974382 0.0969583 -6.93317e-19)
(0.900395 -0.0187808 0)
(0.943455 -0.159007 0)
(1.1214 -0.123471 -3.77798e-20)
(0.99593 -0.173379 1.22467e-18)
(0.971235 -0.00175452 1.42992e-18)
(0.990221 0.0012236 0)
(0.999687 -0.00772239 0)
(0.954984 -0.0466829 7.42705e-19)
(0.975869 0.0441544 0)
(0.953516 0.113748 0)
(-0.120971 1.84736 0)
(-0.0347235 1.6314 4.61022e-20)
(-0.0524067 1.63432 3.01001e-20)
(0.0213215 1.76264 0)
(0.195331 1.76948 9.48427e-20)
(0.118254 1.76538 -1.58557e-20)
(0.0279314 1.726 0)
(0.385702 1.6274 0)
(0.330795 1.53889 -3.80143e-19)
(0.345027 1.52796 0)
(0.461198 1.79104 3.93274e-19)
(0.549052 1.76334 0)
(0.544276 1.77601 -1.41799e-19)
(0.562495 1.51503 -1.87214e-20)
(0.589737 1.40981 -9.9742e-19)
(0.598243 1.41295 1.23862e-18)
(0.466189 1.40344 2.4655e-19)
(0.460074 1.44911 0)
(0.565609 1.50433 0)
(0.657209 1.44258 0)
(0.477184 1.38273 -9.16549e-19)
(0.365921 1.4835 -5.60318e-19)
(0.340618 1.46384 -1.22829e-19)
(0.44988 1.47912 1.01827e-19)
(0.335739 1.45173 0)
(0.480677 1.45251 0)
(0.439921 1.41152 -2.38641e-19)
(0.395543 1.43808 0)
(0.454958 1.50789 0)
(0.588146 1.39396 -6.3496e-19)
(0.484141 1.24929 -4.66959e-20)
(0.752742 1.52353 0)
(0.695377 1.57604 1.01856e-18)
(0.726522 1.3768 -1.94499e-19)
(0.992695 1.17253 0)
(0.82672 1.09451 3.48084e-19)
(0.356115 1.54989 0)
(0.418989 1.27658 0)
(0.749318 1.48518 -4.25366e-19)
(0.722893 1.54738 -2.60754e-19)
(0.730255 1.53645 4.72637e-19)
(0.732891 1.55912 -1.52725e-19)
(0.725969 1.44905 0)
(0.691439 1.48888 2.0736e-19)
(0.75392 1.49157 -3.66459e-19)
(0.757667 1.44674 -1.0959e-20)
(0.564707 1.51134 0)
(0.523851 1.59713 -2.27628e-19)
(0.630989 1.53039 0)
(0.816453 0.192693 0)
(0.816852 0.190899 0)
(0.717103 0.206306 0)
(0.790641 0.274356 -7.77068e-19)
(0.756163 0.199512 4.2989e-19)
(0.995806 -0.0460823 -5.2957e-19)
(0.902952 -0.00163601 0)
(0.895014 -0.0151179 2.32917e-19)
(0.8222 0.132446 9.35505e-19)
(0.81601 0.0426355 -5.98128e-19)
(0.820892 2.3147 -8.80622e-20)
(0.841842 2.10425 0)
(0.804882 2.3922 -1.10203e-19)
(0.147491 2.4771 1.08019e-19)
(0.342511 2.04326 -3.04252e-19)
(0.152458 1.51814 7.82017e-19)
(0.231389 1.54325 0)
(-0.0291641 0.847917 -1.36819e-19)
(-0.0153135 1.05055 1.00939e-18)
(-0.255449 0.562809 -1.63889e-19)
(0.0984454 0.508405 2.04596e-19)
(0.335865 0.543586 5.03332e-19)
(0.566257 0.551779 0)
(0.211403 0.80715 0)
(0.129953 0.753316 0)
(0.832 0.733476 2.64262e-19)
(0.746061 0.545371 -7.06883e-19)
(0.893487 0.632691 5.82939e-19)
(0.813618 0.474782 -5.25382e-19)
(1.05008 0.62455 0)
(0.986206 0.666032 -1.6966e-19)
(0.777296 0.320074 -1.00796e-18)
(0.735657 0.275465 -1.25038e-18)
(0.60487 0.467799 7.89585e-19)
(0.626696 0.422667 -7.53395e-19)
(0.763447 0.338261 -5.90667e-19)
(0.700624 0.32691 7.42156e-19)
(1.09042 -0.00910043 -7.0565e-19)
(1.08943 0.0213895 1.47852e-18)
(1.07698 0.0685635 9.02563e-19)
(1.04585 -0.0690942 -1.09004e-18)
(0.812774 0.0611623 0)
(0.766217 -0.0488099 -1.92596e-18)
(0.141316 1.66947 5.1703e-20)
(-0.0349389 1.74567 0)
(0.152755 1.77273 3.18741e-19)
(0.0272282 1.71578 -2.86133e-19)
(0.0443238 1.70868 1.37235e-19)
(0.0741148 1.78431 0)
(0.0951537 1.88302 0)
(0.0469464 1.70184 -4.1202e-20)
(0.00484478 1.54886 3.68267e-20)
(0.110365 1.60786 -1.14327e-21)
(-0.235327 1.83384 -7.97191e-20)
(-0.0501714 1.68004 5.84897e-20)
(0.525357 1.58913 -6.7206e-19)
(0.617647 1.62744 7.16648e-19)
(0.481043 1.69841 -2.46599e-19)
(0.683461 1.62751 3.05996e-20)
(0.588436 1.68929 0)
(0.603986 1.77003 -1.25559e-19)
(0.53162 1.76333 1.25171e-19)
(0.536233 1.69643 2.35153e-19)
(0.611433 1.72542 0)
(0.651875 1.61972 0)
(0.641813 1.42499 8.42627e-19)
(0.233129 1.524 1.10713e-18)
(0.250089 1.51828 -7.4674e-19)
(0.195379 1.52699 -1.34227e-19)
(0.465116 1.42641 2.81223e-19)
(0.291723 1.40172 -6.67488e-19)
(0.612814 1.44988 -7.15084e-19)
(0.724373 1.44773 0)
(0.620156 1.41997 -8.0417e-19)
(0.684913 1.46889 0)
(0.692493 1.50787 0)
(0.548131 1.8238 -4.14079e-19)
(0.471126 1.93384 -2.50496e-19)
(0.390336 1.99335 3.69926e-19)
(-0.588953 1.55071 0)
(-0.236409 1.47444 -4.04216e-19)
(0.0345887 1.5557 -4.7195e-19)
(0.480327 1.68756 0)
(0.162641 2.16614 2.1725e-19)
(-0.311411 2.18071 0)
(0.494243 0.917923 -1.10737e-18)
(0.643675 0.933452 1.45992e-18)
(0.680036 0.775525 -1.42038e-18)
(0.316337 0.748229 -1.34337e-19)
(0.427868 0.740348 -5.20671e-19)
(0.548649 1.79075 1.93221e-19)
(0.637329 1.68754 -5.28749e-19)
(0.546867 1.84734 6.56342e-19)
(0.532349 1.73012 -4.11071e-19)
(0.594977 1.54972 -7.17934e-19)
(0.631025 1.68944 -5.62705e-20)
(0.680911 1.63448 5.5438e-19)
(0.531569 1.67582 3.9242e-20)
(0.526961 1.53939 3.20344e-19)
)
;

boundaryField
{
    wall-4
    {
        type            noSlip;
    }
    velocity-inlet-5
    {
        type            fixedValue;
        value           uniform (1 0 0);
    }
    velocity-inlet-6
    {
        type            fixedValue;
        value           uniform (0 3 0);
    }
    pressure-outlet-7
    {
        type            zeroGradient;
    }
    wall-8
    {
        type            noSlip;
    }
    frontAndBackPlanes
    {
        type            empty;
    }
}

