/*--------------------------------*- C++ -*----------------------------------*\
  =========                 |
  \\      /  F ield         | OpenFOAM: The Open Source CFD Toolbox
   \\    /   O peration     | Website:  https://openfoam.org
    \\  /    A nd           | Version:  6
     \\/     M anipulation  |
\*---------------------------------------------------------------------------*/
FoamFile
{
    version     2.0;
    format      ascii;
    class       volScalarField;
    location    "0";
    object      p;
}
// * * * * * * * * * * * * * * * * * * * * * * * * * * * * * * * * * * * * * //

dimensions      [0 2 -2 0 0 0 0];

internalField   nonuniform List<scalar> 
13046
(
0.675515
0.658108
0.669245
0.696817
0.677261
0.655864
0.675496
0.659728
0.678607
0.298898
0.116824
0.595133
0.672337
0.598531
0.653428
0.392503
0.589685
0.200499
0.696182
0.680225
0.686978
0.378633
0.593156
0.188278
0.681195
0.686297
0.673609
0.648301
0.604788
0.650456
0.684214
0.626933
0.658968
0.695147
0.686959
0.67947
0.696347
0.692756
0.689044
0.660291
0.649786
0.627262
0.691268
0.704978
0.694037
0.69649
0.68931
0.688562
0.665262
0.650962
0.668771
0.600653
0.640676
0.572499
0.61278
0.551312
0.641861
0.399489
0.563464
0.597973
0.601556
0.543875
0.638547
0.606477
0.325482
0.464928
0.579138
0.41516
0.593948
0.597049
0.437347
0.59717
0.359996
0.544305
0.59635
0.695189
0.690392
0.670685
0.597527
0.507112
0.340355
0.678979
0.676447
0.669519
0.601883
0.282312
0.42675
0.437688
0.610219
0.351532
0.601358
0.373859
0.33326
0.588962
0.567642
0.499963
0.474999
0.62428
0.624382
0.611558
0.444725
0.374985
0.699331
0.688629
0.682237
0.662212
0.591261
0.629216
0.648528
0.636788
0.601412
0.131195
0.590634
-0.0693407
0.675514
0.621487
0.654352
0.561441
0.583413
0.442824
0.613791
0.486288
0.617661
0.264419
0.0668786
0.592878
0.634598
0.531084
0.641234
0.659147
0.647827
0.622991
0.603172
0.402215
0.381624
0.529733
0.424964
0.617988
0.674088
0.612895
0.650579
0.637338
0.636151
0.657082
0.639031
0.619495
0.604663
0.66039
0.613234
0.647946
0.591401
0.513043
0.63352
0.682198
0.651281
0.655087
0.574369
0.547638
0.558052
0.540445
0.634418
0.631786
0.643606
0.600711
0.649379
0.291002
0.595882
0.133326
0.186482
0.59171
-0.0233267
0.515755
0.393285
0.614576
0.654204
0.564325
0.633099
0.648303
0.653442
0.613655
0.59918
0.189845
0.31741
0.656151
0.587821
0.628771
0.678048
0.63581
0.642693
0.64949
0.640374
0.659388
0.583527
0.654794
0.641788
0.561453
0.641034
0.414113
0.60585
0.297591
0.609731
0.442429
0.396397
0.375072
0.320545
0.602657
0.581024
0.528615
0.625476
0.658172
0.516709
0.58922
0.340461
0.272987
0.359514
0.600107
0.692292
0.69082
0.684191
0.653186
0.617287
0.647704
0.608885
0.42758
0.405653
0.643669
0.595344
0.659045
0.593033
0.0457475
0.204782
0.625446
0.527119
0.569663
0.414027
0.36278
0.607791
0.587333
0.583886
0.64668
0.619164
0.542715
0.639425
0.466427
0.454729
0.605265
0.516433
0.532869
0.621574
0.593808
0.0366569
0.171457
0.658756
0.637098
0.583383
0.160993
0.587808
-0.128178
0.687436
0.691541
0.673435
0.596418
0.605344
0.580924
0.595247
0.652799
0.642102
0.588948
0.483144
0.297984
0.63423
0.562597
0.634424
0.512744
0.498358
0.619812
0.539368
0.434151
0.615782
0.695409
0.687959
0.70409
0.566662
0.559921
0.635246
0.63448
0.538587
0.631397
0.645278
0.642417
0.658983
0.624979
0.561012
0.560293
0.536749
0.630973
0.507485
0.612049
0.411039
0.66998
0.639096
0.609072
0.632289
0.529958
0.559069
0.581499
0.465365
0.610569
0.642643
0.604324
0.566278
0.557927
0.551572
0.440678
0.606955
0.425984
0.609861
0.599815
0.220547
0.345457
0.594569
0.512623
0.622192
-0.208611
0.587912
0.0349797
0.680504
0.672124
0.643993
0.61891
0.565486
0.642265
0.609143
0.448969
0.342816
0.599695
0.528467
0.636692
0.438187
0.447619
0.606351
0.630002
0.658814
0.595322
0.556603
0.638326
0.614139
0.662928
0.430624
0.593164
0.244175
0.590446
0.502714
0.626935
0.578542
0.535288
0.631495
0.630996
0.620104
0.658039
0.598966
0.609559
0.651594
0.686313
0.64931
0.672282
0.62409
0.535961
0.567862
0.395423
0.306402
0.606148
0.44844
0.444961
0.611787
0.600567
0.596459
0.48256
0.531132
0.548986
0.412171
0.375673
0.594726
0.600595
0.589414
-0.177267
0.0756801
0.193236
0.587173
-0.0932989
0.581051
0.56653
0.633808
0.603255
0.395673
0.256574
0.590088
0.586628
0.478055
0.45534
0.611108
0.605847
0.596171
0.209353
0.27716
0.134331
0.586095
-0.179536
0.680361
0.698792
0.689022
0.122962
-0.120104
0.590522
0.651998
0.560558
0.6249
0.333124
0.212695
0.599531
-0.188777
0.592846
-0.0616815
0.666885
0.65132
0.643933
0.677147
0.686187
0.682285
0.272095
0.59126
0.0572729
0.669423
0.671725
0.678104
0.686116
0.700461
0.694838
0.629794
0.500839
0.570911
0.664952
0.681675
0.686365
0.686637
0.642955
0.673478
0.61141
0.496519
0.596895
0.593376
0.596221
0.18058
0.173184
0.354925
0.345332
0.354414
0.279096
0.603527
0.60348
0.59568
0.446376
0.651173
0.627405
0.599937
0.501489
0.520289
0.611723
-0.0577472
0.591595
0.0199356
0.600782
0.359655
0.305159
0.213405
0.592494
0.0245074
0.594776
-0.232889
-0.080874
-0.290145
0.593007
-0.025473
0.51066
0.542572
0.624242
0.10666
0.593647
0.168748
0.504421
0.416412
0.617239
0.346162
0.582977
0.0964457
0.666717
0.659655
0.650574
0.246076
0.597899
0.311054
0.512433
0.614407
0.532919
0.488429
0.511188
0.622517
0.598359
-0.419851
-0.201345
-0.164942
0.589275
0.00485238
0.678422
0.670615
0.651308
0.196081
0.267361
0.598725
0.595216
0.233528
0.180902
0.393749
0.600898
0.258755
0.592531
0.306123
0.46981
0.623333
0.483828
0.599552
0.421249
0.567031
0.606372
0.589094
0.439889
0.219322
0.647482
0.637701
0.574638
0.552496
0.6346
0.635221
0.650002
0.582535
0.634069
0.603994
0.464472
0.612162
0.468945
0.475239
0.615238
0.259018
0.35277
0.60114
0.613039
0.47295
0.435165
-0.276806
0.591486
0.0162616
0.682571
0.679794
0.662499
0.637087
0.668753
0.646261
0.630478
0.617393
0.616642
0.5002
0.615054
0.540351
-0.161203
0.591369
-0.0540105
0.217831
0.297705
0.600048
0.637313
0.605631
0.56141
0.491941
0.474211
0.611692
0.593242
0.327191
0.489346
-0.0634162
0.0996355
0.592531
-0.0146914
0.123039
0.592775
0.594069
0.47578
0.616353
0.673483
0.634422
0.62485
0.368541
0.598758
0.209629
0.491713
0.520078
0.625415
0.609716
0.359597
0.490712
0.623456
0.619587
0.545934
0.597927
0.592039
0.644042
0.660677
0.64233
0.614092
0.598223
0.190378
0.337515
0.536965
0.420078
0.61142
0.678164
0.659786
0.648019
0.405565
0.584275
0.172525
0.654002
0.619255
0.651039
0.664575
0.636998
0.672334
0.510693
0.529234
0.624676
0.253628
0.585389
-0.0227362
0.281748
0.583788
0.00204987
0.606328
0.345264
0.487621
0.570644
0.5976
0.635153
0.583145
-0.085164
0.20744
0.612607
0.374361
0.478403
0.593795
-0.269087
-0.12895
-0.0606313
-0.337301
0.591032
0.593003
0.246037
0.449126
0.595487
0.107908
0.254663
0.397981
0.424771
0.595672
0.216033
0.599202
0.265986
0.464552
0.389429
0.613219
0.61968
0.508133
0.466037
0.694771
0.670588
0.653006
0.490077
0.422799
0.616997
0.618016
0.503374
0.441872
0.461334
0.588723
0.242696
0.621195
0.476475
0.611144
0.636828
0.543305
0.616268
0.548792
0.502015
0.630072
0.537795
0.488677
0.62679
0.682841
0.655396
0.664041
0.633653
0.534781
0.636128
0.59711
0.263612
0.306613
0.103916
0.592582
-0.00281176
0.0662035
0.594056
-0.00837546
0.65773
0.643477
0.604545
-0.103807
0.592896
0.0432101
0.51384
0.607681
0.374137
0.591187
-0.0955533
0.00382319
0.69946
0.683223
0.664886
0.630685
0.578337
0.64343
0.59876
0.577474
0.640244
0.594993
0.137403
0.210812
0.484922
0.52592
0.62248
0.585737
0.381559
0.152268
0.608429
0.559331
0.64004
0.700968
0.678787
0.659176
0.141011
0.235757
0.595628
0.609625
0.350945
0.472696
0.243903
0.209431
0.589544
0.589055
0.00572086
-0.0360385
0.617274
0.597981
0.651033
0.53044
0.561278
0.628007
0.667637
0.652927
0.677449
0.0538511
0.149052
0.0630907
0.593061
0.145023
0.592195
0.572247
0.489219
0.628997
0.228181
0.18684
0.114318
0.073715
0.59629
0.595612
0.564783
0.552997
0.639374
0.640531
0.598377
0.649441
0.319444
0.585215
0.0690637
0.635469
0.578227
0.648186
0.665855
0.626154
0.665575
0.259043
0.586238
0.0132693
0.612831
0.519689
0.630765
0.55035
0.488062
0.615998
0.627433
0.51739
0.613323
0.408411
0.60027
0.406791
0.595273
-0.37148
-0.155429
0.612066
0.572516
0.643804
0.348246
0.59064
0.135964
0.595671
0.491889
0.625263
0.0347127
0.586953
-0.251252
0.671756
0.659037
0.640536
0.643257
0.638914
0.62966
0.674435
0.648352
0.676575
0.664024
0.676283
0.647137
0.647328
0.667401
0.638892
0.626707
0.609499
0.659634
0.643937
0.611583
0.657864
0.59175
0.0226083
0.0885277
0.656895
0.600686
0.635612
0.265325
0.136548
0.596712
0.539637
0.517073
0.4768
0.440942
0.624338
0.61907
0.653291
0.629793
0.64512
0.606648
0.501849
0.612568
0.577395
0.520242
0.634367
0.694938
0.68271
0.678958
0.513356
0.446031
0.619891
0.68275
0.660519
0.662101
0.582235
0.550012
0.638644
0.608852
0.525302
0.614195
0.692291
0.689027
0.673159
0.683211
0.676317
0.677094
0.678812
0.651703
0.682452
0.668006
0.680172
0.648051
0.652374
0.651743
0.59083
0.583883
0.643285
0.636737
0.597153
0.318626
0.483725
0.61855
0.510674
0.563306
0.598405
0.600522
0.28506
0.298415
0.455084
0.453408
0.635494
0.6084
0.54245
0.698251
0.691765
0.689416
0.505051
0.421992
0.617901
0.67482
0.652848
0.621311
0.603121
0.512763
0.614751
0.525291
0.53172
0.36392
0.602363
0.382917
0.605197
0.54906
0.468309
0.622837
0.0753235
-0.200548
0.58757
0.591373
0.511867
0.625424
0.621487
0.625877
0.59805
0.502034
0.612297
0.521173
0.493431
0.457966
0.61663
0.61119
0.522935
0.61738
0.640604
0.602014
0.536317
0.626008
0.640931
0.611111
0.630899
0.563
0.554468
0.62259
0.616976
0.533524
0.555949
0.484968
0.627345
0.684558
0.665002
0.66907
0.301959
0.590785
0.0882474
0.636297
0.604061
0.518714
0.615473
0.600063
0.514288
0.496829
0.617449
0.621026
0.591919
0.131817
0.335489
0.326149
0.588211
0.0886277
0.295561
0.588521
0.0607976
0.511142
0.603593
0.360553
0.620545
0.546513
0.623666
0.176235
0.298746
0.522304
0.183745
0.457185
-0.0559889
0.385979
0.261766
0.112235
0.443516
0.43926
0.076682
0.176622
0.442556
0.276849
0.177117
0.207615
0.254646
0.294918
0.397286
0.316878
0.243512
0.460246
0.580588
0.534285
0.307961
0.47431
0.0882734
0.34383
0.162084
0.104419
0.379863
0.308403
0.298945
0.138669
0.326993
0.510802
0.45658
0.22479
0.345916
0.218949
0.591249
0.166323
0.44018
0.48698
0.234546
0.24579
0.18769
0.0852035
0.166
0.537124
0.320111
0.180738
0.226569
0.102375
0.530208
0.399313
0.315991
0.180563
0.429638
0.160961
0.175843
0.535373
0.283996
0.315054
0.402891
0.334456
0.573747
0.458589
0.446812
0.0485766
0.0987565
0.225821
0.419119
0.0821741
0.297549
0.298357
0.129686
0.416625
0.490288
0.254507
0.301756
0.0934305
0.159884
0.224901
0.429176
0.226903
0.20084
0.271538
0.542971
0.177536
0.430174
0.533727
0.303127
0.177822
-0.144748
0.144243
0.193211
0.177092
0.0442462
0.371801
0.465034
0.501466
0.580907
0.166094
0.180343
0.0846633
0.193406
0.147453
0.508095
0.471255
0.39671
0.134534
0.0974229
0.361141
0.466245
0.255399
0.200971
0.0332026
0.246252
0.293505
0.555784
0.570213
0.423234
0.319127
0.234472
0.0805513
0.556357
0.124436
0.415591
0.0380257
0.534771
0.0956525
0.106453
0.155862
0.488188
0.285216
-0.00469954
0.161426
0.388349
0.170276
0.433679
0.36786
0.188969
0.484573
0.225612
0.150321
0.49988
0.166709
0.262489
0.079991
0.330282
0.221353
0.493872
0.428695
0.244496
0.418984
0.435395
0.518312
0.302662
0.221545
0.183284
0.436245
0.125458
0.34549
0.0932865
0.577629
0.249666
0.496614
0.553374
0.324554
0.561218
0.499991
0.515644
0.127443
0.0304596
0.0782266
0.522268
0.127512
0.105856
0.117195
0.109463
0.259127
0.225149
0.329532
0.5538
0.425409
0.219312
0.426787
0.208298
0.585342
0.0695694
0.47552
0.190588
0.0186269
0.540459
0.558557
0.181409
0.19408
0.576689
0.348253
0.222033
0.14988
0.419833
0.507839
0.408269
0.165018
0.181804
0.451329
0.315995
0.148042
0.372224
0.115233
0.117016
0.23538
0.479862
0.0411648
0.250073
0.465864
0.219989
0.0341017
0.245761
0.185001
0.225206
0.368766
0.381554
0.158996
0.100476
0.14422
0.40097
0.40133
0.243417
0.385986
0.23234
0.128615
0.352672
0.220258
0.012443
0.414185
0.498455
0.332213
0.545613
0.512167
0.588316
0.178366
-0.0131672
0.271616
0.243829
0.219663
0.0507891
0.357595
0.535379
0.416239
0.348089
0.153333
0.249532
0.430218
0.314246
0.388567
0.168537
0.274008
0.21644
0.099957
0.157611
0.189629
0.178076
0.131331
0.386034
0.317883
0.246846
0.395336
0.192366
0.261082
0.166719
0.246397
0.211613
0.203532
0.34252
0.0511901
-0.0222852
0.278922
0.0703492
0.0366536
0.347089
0.0713801
0.0396725
0.495226
0.391625
0.159454
0.424373
0.11177
0.378952
0.375547
0.124007
0.185166
0.464255
0.276733
0.431021
-0.0611866
0.144755
0.499197
0.209337
0.157742
-0.0471879
0.0534334
0.0227817
0.0620104
0.221866
0.393495
0.126752
0.0238874
0.14758
0.202413
0.585681
0.174399
0.416509
0.353182
0.0915861
0.245713
0.155161
0.095172
0.37171
0.234289
0.534521
0.39759
0.155689
0.226312
0.323099
0.579386
0.423164
0.512049
0.429005
0.222356
0.330324
0.259171
0.13853
0.0574724
0.195869
0.215291
0.393944
0.173279
0.0763969
0.182718
0.235357
0.176573
0.204132
0.478894
0.217841
0.195366
0.526763
0.484432
0.156317
0.322895
0.508622
0.162261
0.0626987
0.229047
0.129959
0.0954849
0.50478
0.152187
0.251241
0.517453
0.0370302
0.326657
0.171409
0.326977
0.231812
0.184569
-0.127658
0.246598
0.0781338
0.192709
0.236883
0.235466
0.421599
0.533328
0.175157
0.315782
0.237113
0.152449
0.00620226
0.469929
0.365435
0.198705
0.0771338
0.343778
0.0758193
0.18833
0.165378
0.145691
0.458894
0.531245
0.214985
0.415241
0.576139
0.475541
0.475744
0.519366
0.216727
0.200442
0.0985607
0.577835
0.46363
0.496769
0.181364
0.222624
0.0281918
0.428688
0.22943
0.16692
0.497229
0.382136
0.134341
0.24286
0.166819
0.180928
0.169524
0.227077
0.247802
0.12328
0.215537
0.0602511
0.246362
0.125055
0.380472
0.299329
0.0413635
0.510809
0.525302
0.425916
0.206711
0.334171
0.0704823
0.441468
0.31555
0.074706
0.506399
0.0060418
0.536984
0.067894
0.259628
0.274374
0.423315
0.446382
0.178124
0.554264
0.185231
0.481165
0.260134
0.381035
0.20428
0.167299
0.189925
0.487805
0.270405
0.572727
0.404333
0.0542208
0.177399
0.380189
0.0293086
0.210705
0.26203
0.122708
0.540951
0.13606
0.112436
0.450763
0.189481
0.53406
0.566185
0.232341
0.574276
0.548478
0.483838
0.502081
0.34962
0.0856254
0.161237
0.239119
0.468053
0.238508
0.00858005
0.551894
0.126976
0.255158
0.152359
0.516629
0.582697
0.140508
0.476574
0.351967
0.533063
0.249243
0.434745
0.238866
0.553045
0.569556
0.40446
0.159279
0.452142
0.213304
0.319205
0.302842
0.258873
0.354978
0.197308
0.0125506
0.10102
0.271291
0.374776
0.321594
0.501399
0.143634
0.226606
0.376904
0.104772
0.523685
0.165678
0.238801
0.519718
0.490142
0.335307
0.559909
0.162767
0.222646
0.440093
0.298287
0.28847
0.257371
0.192158
0.38267
0.411626
0.193168
0.16803
0.333473
0.0528608
0.119494
0.534337
0.575225
0.572712
0.264235
0.582072
0.580344
0.545183
0.00338891
0.36192
0.354632
0.561299
0.219715
0.174663
0.0833532
0.157023
-0.02085
0.550032
0.273107
0.283156
0.439427
0.404466
0.212859
0.23667
0.580136
0.554592
0.511411
0.40066
0.20008
0.414625
0.384001
0.217387
0.27533
0.102175
0.154098
0.307089
0.285937
0.202568
0.536187
0.533993
0.00971183
0.487316
0.178887
0.168996
0.228494
0.53067
0.248336
0.403137
0.268059
0.514739
0.227113
0.270218
0.568001
0.0275382
0.049679
0.162845
0.130125
-0.0195841
-0.17876
0.143353
-0.0121265
0.294776
0.00824797
0.113282
0.285042
0.180554
0.145431
0.211679
0.0888918
-0.145625
0.549682
0.487255
0.234454
0.0791709
0.496112
0.207252
0.174162
0.567827
0.153019
0.564649
0.249375
0.495045
0.262646
0.0819969
0.105665
0.317386
0.320136
0.295977
0.0842928
0.234318
0.117889
0.132696
0.190338
0.0420049
0.0946643
0.547342
0.158863
0.411615
0.446726
0.221896
0.466439
0.45046
0.083264
-0.16779
0.260351
0.0585279
-0.012764
0.420276
0.426054
0.236038
0.377562
0.21343
0.568507
0.546223
0.259779
0.202231
0.556946
0.50261
0.368855
0.366403
0.222954
0.572477
0.30757
0.00730497
0.518207
0.474803
0.535524
0.32396
0.163006
0.224757
0.428708
0.374864
-0.252491
0.592428
0.2574
0.158716
0.310572
0.507351
0.569504
0.573348
0.375857
0.281565
0.455447
0.505448
0.525805
0.412651
0.470094
0.101445
0.175372
0.340795
0.099275
0.0962427
0.0414735
0.254434
0.451905
0.0595825
0.307055
0.182221
0.481239
0.573435
0.269685
0.0850277
0.0286975
0.439729
0.19641
0.151327
0.0337101
0.532681
0.341369
0.355145
0.0679313
0.357466
0.152788
0.171664
0.424615
0.447553
0.537817
0.583388
0.143605
0.508389
0.0104678
0.521062
0.534701
0.53511
0.457305
0.122492
0.122844
0.240514
0.00626234
0.300783
0.0379298
0.350175
0.0752731
0.495384
0.222821
0.02058
0.490068
0.438917
0.267034
0.277442
0.408071
0.530577
0.343018
0.294904
0.0158097
0.475216
0.322401
0.556775
-0.0136989
0.288532
0.519744
0.426975
0.559608
0.433843
0.236174
-0.0377302
0.0177671
0.277204
0.0534406
0.54885
0.0102748
0.197857
0.264704
0.152986
0.465396
-0.0088746
0.526567
0.430634
0.358887
0.0160996
0.383507
0.156696
0.226938
0.27524
0.265738
0.22155
0.202247
0.45495
0.126398
0.581309
0.213294
0.281846
0.397
0.426861
0.550276
0.222928
0.250785
0.144553
0.277554
0.198054
0.543611
0.155717
0.30252
0.221045
0.476641
0.172967
0.320263
0.0908221
0.573915
0.00288179
0.121065
0.20432
0.483549
0.0262581
0.0408498
0.113417
0.0765323
0.532454
0.292707
0.409916
0.495025
0.391039
0.311888
0.575652
0.29956
0.433942
0.386495
0.317692
0.0414279
0.330675
0.274894
0.198993
0.332185
0.129199
0.0538335
0.320453
0.229688
0.127241
0.46966
0.282013
0.408971
0.269238
0.547722
0.26165
0.256557
0.386426
0.0729098
0.145381
0.221635
0.316891
0.341853
0.375829
0.528615
0.42299
0.465699
0.325377
0.508682
0.551601
0.548757
0.336789
0.300376
0.350953
0.0895031
0.562493
0.501069
0.479672
0.295602
0.121807
0.0438321
0.351625
0.426277
0.161659
0.477946
0.498971
0.374115
0.179079
0.321796
0.199549
0.164226
0.297901
0.184997
0.355393
0.0340782
0.358994
0.272862
0.261129
-0.00642322
0.339105
0.31123
0.403066
0.218269
0.346016
0.526737
0.540428
0.357496
0.253692
0.467441
0.319888
0.150829
0.149352
0.252325
0.06823
0.527825
0.283546
0.333527
0.430798
0.416441
0.37549
0.122917
0.575575
0.383974
0.162417
0.290936
0.305648
0.466912
0.520937
0.38637
0.362086
0.0287023
0.129864
0.261783
0.370005
0.304895
0.358147
0.18352
0.536596
0.365492
0.464106
0.506561
0.336413
0.163326
0.312848
0.560364
0.190134
0.0201819
0.309835
0.568824
0.203234
0.253255
0.456624
0.425582
0.484609
0.291628
0.0328071
0.367742
0.0848367
0.211128
0.484425
0.281275
0.0962212
0.155953
0.199371
0.382048
0.214593
0.190365
0.512697
0.167787
0.577398
0.480232
0.0778146
-0.0263471
0.284768
0.434835
0.503636
0.288734
0.262058
0.159467
0.242317
0.263241
0.582939
0.519486
0.434515
0.220717
0.0444578
0.537256
0.575224
0.53565
0.467304
0.515988
0.307045
0.0930062
0.000794205
0.0215697
0.548357
0.308942
0.146202
0.234787
0.574391
0.222308
0.178863
0.0634086
0.292417
0.143244
0.590189
0.369691
0.428578
0.515565
0.498482
0.245857
0.390117
0.305069
0.413397
0.179387
0.37437
0.182752
0.542278
0.0944467
0.204658
0.138711
0.237846
0.524848
0.231517
0.481718
0.508723
0.51753
0.109407
0.301634
0.261941
0.169149
0.534226
0.323176
0.326839
0.364388
-0.0353746
0.239339
0.546819
0.396457
0.53808
0.0109662
0.121461
0.229393
0.548979
0.174012
0.269331
0.129612
0.120981
0.225917
0.557434
0.251355
0.268035
0.0670605
0.586566
0.562973
-0.0313998
0.546869
0.220223
0.11159
0.125437
0.302357
0.0615314
0.374774
0.221426
0.208065
0.243511
0.527124
0.290031
0.481027
0.247126
0.109268
0.24162
0.00927894
0.0433393
0.275082
0.218921
0.336755
0.12608
0.27043
0.504052
0.366703
0.208386
0.0731888
0.518439
0.292937
0.272582
0.585296
0.334862
0.201935
0.203348
0.130492
0.556229
0.202328
0.27645
0.380585
0.070882
0.524688
0.104986
0.509094
0.296722
0.448713
0.134133
0.465104
0.267293
0.082051
0.148307
0.294878
0.525164
-0.0314061
0.170225
0.213808
0.551497
0.579519
0.151179
0.19205
0.369394
0.570808
0.25835
0.53129
0.501196
0.47718
0.448484
0.346021
0.404655
0.391185
0.537282
0.271662
0.316288
0.152117
0.183206
0.269666
0.132562
0.557008
0.111892
0.529285
0.261582
0.548685
0.190526
0.565004
0.445002
0.51538
0.549667
0.526023
0.58279
0.247014
0.510489
0.292282
0.227772
0.172149
0.1276
0.538003
0.113792
0.369311
0.382729
0.260379
0.368796
0.176439
0.541079
0.316187
0.457357
-0.00186601
0.156329
0.235643
0.596999
0.161331
0.402601
0.190328
0.236666
0.0937293
0.252329
0.223437
0.472787
0.542342
0.059536
0.361326
0.229995
0.198371
0.489024
0.159769
0.180594
0.556522
0.0229577
0.329147
0.428515
0.521715
0.568935
0.191548
0.171136
0.0750337
0.223125
0.170667
0.227719
0.449358
0.213227
0.0915956
0.266394
0.302169
0.207588
0.17895
0.212227
0.304104
0.0806225
0.461385
0.447492
0.203162
0.458071
0.085558
0.060886
0.157363
0.0256942
0.558173
0.227202
0.2197
0.180098
0.49848
0.53614
0.336103
0.450207
0.182804
0.162302
0.305641
0.222605
0.166783
0.536539
0.346063
0.401843
0.560577
0.469216
0.285203
0.551546
0.0542591
0.340964
0.334639
0.379296
0.237659
0.549988
0.211716
0.37214
0.288509
0.206348
0.133347
0.179037
0.445191
0.492018
0.512966
0.312213
0.335461
0.54989
0.470249
0.275813
0.333408
0.104219
0.244406
0.477888
0.0572915
0.505593
0.219371
0.518501
0.582578
0.540551
0.207352
0.512817
0.502504
0.0476825
0.550057
0.186683
0.545769
0.472733
0.231855
0.123779
0.34676
0.249307
0.229772
0.177118
0.480484
0.206665
0.551353
0.117218
0.193044
0.166421
0.115352
0.220161
0.491056
0.567936
0.111123
0.455284
0.312174
0.372711
0.262608
0.367445
0.530061
0.478105
0.222686
0.522072
0.487865
0.565274
0.114551
0.191435
0.176963
0.451556
0.557679
0.495549
0.276699
0.564696
0.291758
0.062009
0.121711
-0.0316712
0.276928
0.0911861
0.564701
0.577837
0.333937
0.585555
0.480748
0.329844
0.559732
0.100907
0.549664
0.242232
0.536028
0.225912
0.124697
0.445898
0.340336
0.545906
0.529404
0.533747
0.14435
0.141892
0.0367319
0.507222
0.475729
0.148785
0.304347
0.478177
0.0121398
0.190876
0.141007
0.22975
0.367969
0.224641
0.335034
0.445061
0.318003
0.335699
0.449864
0.222429
0.241073
0.368032
0.322668
0.228776
0.511257
0.546245
0.149391
0.472613
0.000945838
0.182532
0.519257
0.462512
0.210409
0.538684
0.0987137
0.446333
0.248886
0.249636
0.519087
0.230485
0.458036
0.446772
0.413291
0.579934
0.420166
0.0758135
0.388075
0.272984
0.460265
0.580695
0.40683
0.289247
0.16583
0.251941
0.520882
0.10902
0.498678
0.151721
0.354376
0.469815
0.449266
0.309353
0.514956
0.563135
0.234798
0.224333
0.333409
0.139674
0.0910436
0.339848
0.446973
0.153412
0.0727451
0.163495
0.0703503
0.4414
0.287026
0.465107
0.187096
0.535699
0.317909
0.502098
0.570859
0.167905
0.527191
0.228663
0.337668
0.308346
0.510658
0.17782
0.25517
0.315569
0.129294
0.231272
0.121974
0.0913357
0.00180682
0.559493
0.573431
0.150605
0.187832
0.454744
0.0494679
0.158411
0.224428
0.428449
0.440549
0.0360428
-0.00171859
0.529452
0.186421
0.370215
0.182902
0.0668926
0.122984
0.34611
0.502337
0.36623
0.0566994
0.537375
0.499946
0.152718
0.367771
0.215219
0.57027
0.236203
0.263898
0.0864425
0.409349
0.548152
0.381717
0.342872
0.170779
0.282149
0.371596
0.560102
0.588543
0.175682
0.565923
0.180448
0.349772
0.350803
0.275249
0.209828
0.50949
0.24293
0.342769
0.151137
0.168189
0.249748
0.128462
0.413671
0.536754
0.1511
0.189448
0.34125
0.215869
0.171587
0.00335676
0.214669
0.515428
0.0281203
0.200327
0.437518
0.341465
0.277831
0.402651
0.490761
0.141719
0.147788
0.492614
0.265975
0.139414
0.29659
0.508587
0.40389
0.351491
0.179933
0.174363
0.168575
0.561337
0.494886
0.569458
0.271231
0.422523
0.104924
0.307542
0.503665
0.0577944
0.0700104
0.447499
0.498915
0.051129
0.198072
0.176143
0.131376
0.174097
0.586251
0.259653
0.192559
0.342415
0.165976
0.443824
0.355221
0.0963614
0.201804
0.468802
0.279232
0.562786
0.0868891
0.192976
0.392767
0.372913
0.276447
0.373131
0.130238
0.56789
0.556144
0.396859
0.515025
0.158184
0.509677
0.401058
0.389414
0.552102
0.050008
0.206901
0.576762
0.404723
0.0402785
0.20138
0.490617
0.573062
0.305153
0.456113
0.176306
0.0818149
0.147664
0.0319507
0.50362
0.176234
0.31917
0.551732
0.163011
0.144762
0.173542
0.329951
0.19081
0.208815
0.169417
0.112032
0.281004
0.476068
0.548261
0.429673
0.219364
0.205174
0.0267189
0.199788
0.389064
0.366184
0.412267
0.441539
0.20646
0.291522
0.486947
0.502462
0.57194
0.520175
0.555778
0.283889
0.0967693
0.147452
0.112131
0.561397
0.330589
0.181088
0.549952
0.105087
0.480993
0.442703
0.204633
0.182844
0.207047
0.181642
0.49966
0.250035
0.429619
0.296392
0.545145
0.362161
0.580821
0.144335
0.298453
0.191404
-0.00703106
0.220049
0.464366
0.128075
-0.0579124
0.350443
0.548036
0.46175
0.179761
0.0868801
0.153006
0.107349
0.185771
0.109066
0.273078
0.120642
0.449562
0.146803
0.188152
0.544127
0.290954
0.408268
0.490752
0.262509
0.318361
0.139631
0.464956
0.243733
0.21006
0.267802
0.129863
0.0799815
0.18374
0.177501
0.459638
0.570803
0.509225
0.35431
0.435961
0.0581155
0.566936
0.357317
0.447202
0.184373
0.439151
0.20558
0.227141
0.479492
0.546361
0.463386
0.357989
0.237007
0.576225
0.231865
0.481229
0.558306
0.41792
0.251652
0.0516589
0.481369
0.345745
0.118964
0.403201
0.337639
0.541639
0.171496
0.552897
0.572573
0.26696
0.146726
0.555423
0.0919741
0.126029
0.227177
0.120717
0.214857
0.132455
0.0894446
0.294085
0.191073
0.149467
0.206738
0.364761
0.179279
0.164909
0.395914
0.31959
0.0709273
0.536619
0.57903
0.558876
0.180333
0.0598051
0.586263
0.0806447
0.280625
0.166014
0.226749
0.183413
0.446648
0.216712
0.215068
0.0698758
0.0562148
0.121406
0.22011
0.0465589
0.304549
0.344047
0.291495
0.546538
0.336564
0.406964
0.250359
0.495547
0.22166
0.226981
0.597633
0.227686
0.337209
0.0909671
0.41948
0.572754
0.249714
0.37789
0.33887
0.197703
0.173692
0.159289
0.122099
0.452623
0.132103
0.263507
0.214628
0.268527
0.154737
0.161505
0.28006
0.24175
0.198222
0.581965
0.285486
0.250647
0.353008
0.54425
0.228923
0.0600045
0.471551
0.0941256
0.247097
0.178391
0.288458
0.205475
0.241726
0.288931
0.566639
0.506808
0.0679097
0.197152
0.0559802
0.167725
0.0375697
0.127577
0.220615
0.142292
0.227374
0.392829
0.582142
0.219666
0.439889
0.313785
0.560105
0.213954
0.57212
0.383656
0.103793
0.38592
0.45037
0.223371
0.501684
0.178633
0.514678
0.184989
-0.0366304
0.289813
0.581112
0.57193
0.452616
0.396807
0.427899
0.0666228
0.194107
0.426805
0.581055
-0.0109194
0.291569
0.180175
0.219751
0.270577
0.154561
0.106104
0.181682
0.125057
0.194266
0.234864
0.268474
0.578396
0.498171
0.0364005
0.473822
0.142081
0.15246
0.481848
0.183066
0.245709
0.413601
0.0302124
0.158923
0.303022
0.507779
0.110819
0.170529
0.241709
0.388792
0.111427
0.543732
0.0555617
0.222359
0.243794
0.176476
0.39646
0.392527
0.544608
0.173754
0.459423
0.344755
0.382882
0.173891
0.394825
0.138662
0.0984728
0.0149427
0.3542
0.286882
0.244448
0.524375
0.294492
0.347021
0.391588
0.153969
0.129287
0.223358
0.360746
0.185225
0.58077
0.0934813
0.0560154
0.224791
0.217941
0.187156
0.172829
0.438856
0.225995
0.297666
0.112121
0.181838
0.292136
0.111487
0.577899
0.572769
0.118079
0.153236
0.501952
0.314433
0.1625
0.0862151
0.161597
0.118071
0.340995
0.533371
0.164097
0.0659209
0.391502
0.285411
0.056881
0.113985
0.282479
0.432791
0.58855
0.102422
0.0534823
0.362457
0.503566
0.251629
0.344851
0.236663
0.178542
0.227759
0.388149
0.281495
0.180739
0.474534
0.240021
0.0181389
0.334696
0.188177
0.480226
0.579761
0.190215
0.216603
0.218733
0.217032
0.102605
0.229145
0.11766
0.549882
0.485513
0.43059
0.222905
0.0735084
0.465334
0.564584
0.164054
0.328902
0.209354
0.00127132
0.311518
0.223604
0.000170387
0.183523
0.396519
0.10058
0.0595677
0.121099
0.499181
0.0864845
0.474117
0.275656
0.173402
0.236424
0.14684
0.481022
0.0270782
0.227953
0.25836
0.0967737
0.345191
0.427355
0.358796
0.287366
0.458087
0.114256
0.116574
0.529875
0.175046
0.524422
0.363569
0.250261
0.342896
0.509691
0.285606
0.0532753
0.542926
0.168132
0.260822
0.510896
0.158007
0.553996
0.165554
0.242633
0.0399174
0.244278
0.122601
0.300111
0.127018
0.020365
0.11451
0.112409
0.00742631
0.533109
0.112212
0.237189
0.3532
0.294818
0.567172
0.568641
0.201907
0.294421
0.485844
0.188838
0.534547
0.0208469
0.236053
0.332143
0.168007
0.491047
0.210109
0.219748
0.202319
0.16657
0.170774
0.0233039
0.514004
-0.129746
0.555246
0.432149
0.128381
0.059628
0.126312
0.590423
0.433371
0.399058
0.280673
0.348408
0.26101
0.511217
0.466113
0.149645
0.378867
0.558152
0.272106
0.324894
0.387284
0.0423464
0.112611
0.48432
0.234221
0.26747
0.554379
0.105538
0.0252476
0.17943
0.265992
0.271711
0.57767
0.164419
0.0789711
0.162058
0.263083
0.169614
0.523395
0.285108
0.13093
0.209047
0.163674
0.157629
0.213358
0.382925
0.315671
0.140851
0.521658
0.229648
0.503713
0.141765
0.10591
0.233441
0.514938
0.560518
0.488052
0.302829
0.279907
0.477753
0.568463
0.0945129
0.535372
0.119597
0.405144
0.384429
0.521771
0.29977
0.507091
0.539997
0.187947
0.185826
0.238307
0.297937
0.12017
0.146289
0.109561
0.446366
0.491885
0.0889604
0.54247
0.299547
0.462072
0.275918
0.13125
0.487925
0.467788
0.212948
0.204744
0.121131
0.571689
0.439461
0.58355
0.0903025
0.119225
0.259833
0.497997
0.392413
0.536942
0.328813
0.573352
0.179257
0.252409
0.325265
0.195875
0.367348
0.0721301
0.477724
0.285797
0.330156
0.536785
0.0792939
0.0926115
0.0295772
0.364125
0.516136
0.201695
0.397023
0.0834885
0.0753275
0.27275
0.185812
0.166015
0.527248
0.308586
0.153598
0.25338
0.357485
0.549261
0.365769
0.243604
0.513431
0.304055
0.556913
0.313219
0.428322
0.245933
0.0861843
0.582051
0.135661
0.344672
0.352299
0.531175
0.41712
0.28289
0.186389
0.575981
0.257173
0.1369
0.451792
0.568274
0.440157
0.398484
0.0776769
0.0113535
0.330052
0.145044
0.240675
0.316015
0.14057
0.546666
0.574361
0.541433
0.194703
0.229772
0.168258
0.217299
0.417511
0.105822
0.413819
0.549787
0.0960316
0.21677
0.174844
0.491055
0.399441
0.229335
0.148272
0.438222
0.168257
0.0644376
0.112944
0.582929
0.0228146
0.473433
0.380343
0.176073
0.561897
0.339776
0.593304
0.0269616
0.220178
0.33281
0.539555
0.220511
0.533623
0.341412
0.0224436
0.28468
0.187812
0.228451
0.0133354
0.470275
0.219162
0.146038
0.0534551
0.289132
0.531433
-0.0441093
0.204158
0.514571
0.250161
0.507878
0.0152935
0.171567
0.172946
0.258524
0.1872
0.0773602
0.166901
-0.0307977
0.239892
0.242786
0.463632
0.330864
0.517248
0.155878
0.229679
0.0811038
0.310587
-0.0309815
0.235773
0.581956
0.270998