/*--------------------------------*- C++ -*----------------------------------*\
  =========                 |
  \\      /  F ield         | OpenFOAM: The Open Source CFD Toolbox
   \\    /   O peration     | Website:  https://openfoam.org
    \\  /    A nd           | Version:  6
     \\/     M anipulation  |
\*---------------------------------------------------------------------------*/
FoamFile
{
    version     2.0;
    format      ascii;
    class       volVectorField;
    location    "0";
    object      U_rec;
}
// * * * * * * * * * * * * * * * * * * * * * * * * * * * * * * * * * * * * * //

dimensions      [0 1 -1 0 0 0 0];

internalField   nonuniform List<vector> 
13046
(
(-0.71038 0.418389 0)
(-0.599076 0.136941 -6.65587e-21)
(-0.330657 0.148399 -1.47436e-20)
(-0.698651 0.341802 0)
(-0.40809 0.226471 -1.32038e-20)
(-0.511125 0.127451 0)
(-0.734492 0.356903 1.89782e-21)
(-0.505822 0.100245 3.4252e-21)
(-0.387041 0.23357 -1.4555e-20)
(-0.925699 0.478875 5.86426e-21)
(-0.726417 -0.175982 0)
(-0.0653262 0.0654047 9.8179e-21)
(-0.797319 0.44013 -5.97458e-21)
(-0.577282 0.0794386 -1.07262e-20)
(-0.288404 0.155478 8.10426e-21)
(-0.911688 0.557447 -7.66583e-21)
(-0.0724962 0.0346733 2.36461e-20)
(-0.766494 -0.0988324 5.8396e-21)
(-0.527075 0.313634 0)
(-0.435087 0.136519 -7.19698e-21)
(-0.652236 0.260369 2.00728e-20)
(-0.917757 0.545485 -3.239e-21)
(-0.0704043 0.0427496 -3.15566e-20)
(-0.754894 -0.114525 0)
(-0.66181 0.35653 8.0286e-21)
(-0.566544 0.160283 -1.62489e-20)
(-0.392233 0.185018 0)
(-0.799007 0.465792 -1.08325e-20)
(-0.597726 0.0762356 3.12973e-21)
(-0.265279 0.134489 -1.40089e-20)
(-0.712953 0.436704 0)
(-0.62183 0.142994 0)
(-0.309568 0.125214 1.50113e-20)
(-0.626371 0.331353 -9.32087e-21)
(-0.419364 0.191713 4.96401e-21)
(-0.563102 0.182337 2.82918e-20)
(-0.617808 0.31114 -1.44307e-20)
(-0.44745 0.21436 7.55011e-21)
(-0.54273 0.185471 -1.45701e-20)
(-0.629547 0.454692 1.02742e-20)
(-0.313158 0.0455525 2.78483e-21)
(-0.734027 0.200593 -9.97883e-21)
(-0.569302 0.255958 6.54867e-21)
(-0.515854 0.247086 1.12585e-20)
(-0.514248 0.207291 0)
(-0.599789 0.261166 4.11022e-21)
(-0.509181 0.264394 -1.72463e-20)
(-0.488434 0.183635 -2.16928e-21)
(-0.727991 0.411106 0)
(-0.575356 0.116542 -4.80312e-22)
(-0.325912 0.162695 9.53669e-24)
(-0.335275 -0.0408217 1.75059e-20)
(-0.560195 0.481487 0)
(-0.851992 0.234493 -1.21542e-20)
(-0.357385 -0.0608339 -2.49424e-20)
(-0.882613 0.249826 -1.92291e-20)
(-0.522661 0.467315 1.61219e-20)
(-0.767848 0.0444517 -2.52159e-21)
(-0.865172 0.635615 0)
(-0.146465 -0.00318241 1.30585e-20)
(-0.912981 0.40635 -5.5958e-21)
(-0.522046 -0.0330703 6.4659e-21)
(-0.282461 0.2391 -3.38002e-20)
(-0.123236 0.103794 1.79174e-20)
(-0.671808 -0.0997083 -4.22021e-21)
(-0.95628 0.500227 -9.07761e-21)
(-0.843383 0.646779 0)
(-0.784096 0.0695839 0)
(-0.163086 -0.0203066 0)
(-0.82567 0.635002 -4.3556e-21)
(-0.779088 0.0829426 0)
(-0.175289 -0.0173837 1.04248e-20)
(-0.780569 0.0318534 0)
(-0.877763 0.643385 1.56044e-22)
(-0.133283 -0.00961358 5.16788e-24)
(-0.546164 0.336538 0)
(-0.411421 0.119806 7.82967e-21)
(-0.66691 0.24587 -1.43497e-20)
(-0.111142 0.00785323 1.44635e-20)
(-0.897119 0.625105 -1.31792e-20)
(-0.767601 -0.0111798 0)
(-0.686264 0.362991 4.18085e-21)
(-0.547639 0.143075 0)
(-0.382751 0.197376 0)
(-0.107323 0.0912979 -1.6097e-20)
(-0.689836 -0.115821 -3.31203e-21)
(-0.956087 0.503184 5.39763e-21)
(-0.992242 0.423996 -9.58903e-21)
(-0.165494 0.180419 0)
(-0.606214 -0.143274 -3.26573e-21)
(-0.207601 0.255192 0)
(-1.02893 0.342604 0)
(-0.557838 -0.203845 4.40168e-22)
(-0.899492 0.502341 0)
(-0.919307 0.496881 5.13128e-21)
(-0.623147 -0.00244274 1.26753e-20)
(-0.621213 -0.0266577 -5.95538e-21)
(-0.195491 0.122777 -7.38231e-21)
(-0.185875 0.132271 1.89053e-20)
(-0.186582 0.203785 -8.97714e-22)
(-0.997609 0.407342 9.38305e-21)
(-0.586222 -0.149149 0)
(-0.630952 0.28233 -5.09752e-23)
(-0.485883 0.261551 9.05776e-21)
(-0.485501 0.163164 0)
(-0.473198 0.398604 0)
(-0.844394 0.286651 -5.87067e-21)
(-0.385329 -0.0148634 0)
(-0.566229 0.457153 1.78139e-20)
(-0.332426 -0.00278809 0)
(-0.805338 0.23246 -2.2745e-20)
(-0.839873 0.438849 0)
(-0.0306006 0.0338745 0)
(-0.72281 -0.23592 -4.93799e-21)
(-0.767833 0.42197 1.65253e-20)
(-0.568156 0.0956198 4.5065e-21)
(-0.309169 0.166914 1.46274e-20)
(-0.909163 0.545277 6.52072e-21)
(-0.894569 0.52954 -1.23082e-20)
(-0.672402 -0.0109732 -1.07534e-20)
(-0.156252 0.0813776 8.49848e-21)
(-0.650381 0.00475619 6.55823e-21)
(-0.176875 0.0953773 -7.94156e-21)
(-0.907095 0.480154 -4.85241e-21)
(-0.738359 -0.187212 -6.7938e-21)
(-0.053924 0.0535382 -4.40242e-21)
(-0.854689 0.495614 0)
(-0.614801 0.0361045 -8.33195e-21)
(-0.223132 0.120667 1.71797e-20)
(-0.661434 0.467535 0)
(-0.297501 0.0546023 -1.3856e-20)
(-0.715209 0.180066 5.93453e-22)
(-0.232455 0.276923 0)
(-1.02481 0.340374 0)
(-0.542643 -0.185736 0)
(-0.953231 0.476123 0)
(-0.619807 -0.0727921 -1.66872e-20)
(-0.175795 0.148939 -2.02808e-20)
(-0.741898 0.454506 0)
(-0.629841 0.125583 0)
(-0.288586 0.112766 0)
(-0.825339 0.360887 0)
(-0.471204 0.0283754 0)
(-0.37431 0.276145 0)
(-0.545754 0.452754 0)
(-0.344931 -0.0168867 0)
(-0.828839 0.244867 1.22366e-20)
(-0.477807 0.385613 -1.88575e-21)
(-0.82815 0.289751 -1.25915e-20)
(-0.392365 0.000814957 1.51347e-20)
(-0.926766 0.420333 1.31873e-20)
(-0.54289 -0.044333 0)
(-0.256061 0.21522 4.3994e-20)
(-0.455635 0.32536 0)
(-0.77466 0.308051 1.35504e-20)
(-0.425566 0.0520794 -3.81887e-21)
(-0.408102 -0.0803758 0)
(-0.922412 0.289718 1.35173e-20)
(-0.435505 -0.0913481 0)
(-0.941815 0.310785 7.70307e-21)
(-0.438349 0.41457 0)
(-0.395619 0.381764 0)
(-0.843726 0.328218 1.72127e-21)
(-0.435567 0.00198592 8.03144e-21)
(-0.40708 0.320014 -8.26432e-21)
(-0.943689 0.464246 -6.03337e-21)
(-0.0732384 0.0794881 0)
(-0.705216 -0.186802 -8.35171e-21)
(-0.865686 0.456459 -4.35064e-21)
(-0.0372829 0.0391486 -2.01404e-21)
(-0.73791 -0.216658 0)
(-0.9532 0.489357 -7.53895e-21)
(-0.637495 -0.0764223 0)
(-0.157432 0.130945 2.30699e-20)
(-0.703894 0.532646 0)
(-0.757557 0.160669 3.25838e-21)
(-0.260336 0.0125176 8.14545e-21)
(-0.825252 0.315067 1.1439e-20)
(-0.433784 0.341388 3.9392e-21)
(-0.419771 0.0143957 0)
(-0.0963717 0.116274 0)
(-0.665696 -0.190937 0)
(-0.97458 0.437043 5.11681e-21)
(-0.678554 0.509091 0)
(-0.7506 0.1759 -6.99803e-21)
(-0.27792 0.0239775 2.10269e-21)
(-0.454731 0.340782 0)
(-0.787822 0.302104 0)
(-0.410756 0.0363186 0)
(-0.800306 0.348472 5.61776e-21)
(-0.466983 0.0433385 0)
(-0.38711 0.273161 0)
(-0.562825 0.0469218 -5.13888e-23)
(-0.277206 0.172359 -9.91972e-21)
(-0.83885 0.477128 1.71432e-20)
(-0.60053 0.0494141 0)
(-0.243369 0.134328 -2.15254e-20)
(-0.978864 0.458264 -9.6818e-21)
(-0.129388 0.132849 1.45361e-20)
(-0.651773 -0.141757 -1.59978e-20)
(-0.225141 0.255023 1.31661e-20)
(-1.00885 0.369888 5.88517e-21)
(-0.552652 -0.159882 1.6261e-20)
(-1.01597 0.380273 -1.6334e-20)
(-0.589107 -0.18265 0)
(-0.17424 0.210695 -1.29329e-20)
(-0.323894 -0.0773221 -8.98554e-22)
(-0.885846 0.214283 5.48297e-21)
(-0.588801 0.53999 0)
(-0.791151 0.389387 -2.53396e-20)
(-0.887928 0.63765 6.74243e-21)
(-0.115422 -0.00200356 -8.92557e-21)
(-0.782551 -0.00175927 0)
(-0.607626 -0.195637 0)
(-1.00767 0.391117 -1.46419e-20)
(-0.149653 0.182497 0)
(-0.641766 0.307234 -2.07845e-20)
(-0.45326 0.237838 -7.41012e-21)
(-0.510136 0.161317 2.14787e-20)
(-0.782087 0.475054 0)
(-0.619266 0.0948999 -4.50573e-22)
(-0.268936 0.121261 -8.2579e-21)
(-0.238275 0.274482 1.00486e-20)
(-1.01607 0.355261 0)
(-0.540863 -0.171008 -1.87316e-20)
(-0.816812 0.403943 2.0293e-20)
(-0.544691 0.0420493 1.94557e-20)
(-0.294545 0.1915 0)
(-0.0543478 0.0653602 0)
(-0.702446 -0.22268 7.31484e-21)
(-0.916546 0.441998 0)
(-0.553745 0.515822 0)
(-0.903168 0.226399 0)
(-0.342324 -0.0877336 0)
(-1.01035 0.38638 1.43324e-20)
(-0.577843 -0.165887 0)
(-0.189138 0.218378 -2.69112e-23)
(-0.892725 0.321852 5.02487e-21)
(-0.429776 -0.0449368 -6.20802e-21)
(-0.397313 0.350591 0)
(-0.849864 0.513255 0)
(-0.63249 0.0438586 7.77527e-21)
(-0.213299 0.103469 1.35614e-20)
(-0.486231 -0.165809 -2.30371e-20)
(-1.01248 0.307218 -1.07997e-20)
(-0.32498 0.362977 7.87686e-21)
(-0.964801 0.306269 0)
(-0.446442 -0.113604 -8.984e-21)
(-0.383007 0.384498 -2.82665e-22)
(-0.0518404 0.0675921 -1.2847e-20)
(-0.685089 -0.237647 0)
(-0.915965 0.423453 -5.07767e-21)
(-0.621356 0.497059 9.45841e-21)
(-0.304164 -0.00333047 -1.01865e-20)
(-0.795695 0.205348 1.01348e-21)
(-0.779004 0.462298 4.65144e-21)
(-0.021568 0.0136101 -1.89444e-20)
(-0.765737 -0.204106 0)
(-0.493141 0.290346 -4.29194e-21)
(-0.665423 0.278786 -1.62188e-20)
(-0.451925 0.132489 2.15948e-20)
(-0.89093 0.358076 5.96244e-21)
(-0.877999 0.334856 1.6688e-23)
(-0.466355 -0.0301733 -1.49798e-20)
(-0.44081 -0.0275799 0)
(-0.387614 0.330399 7.51254e-21)
(-0.346458 0.295685 -7.81082e-21)
(-0.0984032 0.0123795 -1.8927e-20)
(-0.901259 0.613603 6.9995e-21)
(-0.773259 -0.0274039 -1.41755e-20)
(-0.826845 0.515453 0)
(-0.647016 0.0692809 0)
(-0.224391 0.093338 -1.78696e-20)
(-0.980912 0.320336 -2.82889e-21)
(-0.469462 -0.129595 0)
(-0.34916 0.360538 0)
(-0.932755 0.513626 -6.2834e-21)
(-0.647592 -0.0418665 0)
(-0.159473 0.110787 8.43123e-21)
(-0.560563 0.267894 4.43024e-21)
(-0.539893 0.21972 6.47688e-21)
(-0.499708 0.227009 -2.2142e-21)
(-0.927823 0.328194 -9.84701e-21)
(-0.447811 -0.0736898 0)
(-0.372889 0.349763 -1.30883e-20)
(-0.826823 0.532918 0)
(-0.66661 0.0705235 9.71883e-21)
(-0.212047 0.0757194 -1.15597e-20)
(-0.825319 0.429161 0)
(-0.84904 0.439619 2.00813e-21)
(-0.626384 0.511687 3.42222e-21)
(-0.298469 -0.0173356 2.95756e-20)
(-0.809609 0.203127 -2.43965e-20)
(-0.942018 0.34604 -1.00498e-20)
(-0.469586 -0.0829115 1.3136e-20)
(-0.335989 0.319265 1.19427e-20)
(-0.944772 0.508216 0)
(-0.15056 0.115248 -2.97023e-20)
(-0.650736 -0.0609329 -8.36209e-21)
(-0.571201 0.439738 -2.45783e-20)
(-0.336891 0.0129993 0)
(-0.785003 0.236647 7.70392e-21)
(-0.453532 0.439653 -1.51465e-20)
(-0.932647 0.276668 -7.86598e-21)
(-0.400204 -0.0966552 0)
(-0.876327 0.56774 -6.3186e-21)
(-0.693176 0.0296278 -8.62805e-21)
(-0.163057 0.0546439 5.29946e-21)
(-0.591392 0.505671 1.24299e-21)
(-0.319801 -0.0392636 0)
(-0.844463 0.222282 1.67582e-20)
(-0.891488 0.576456 0)
(-0.903571 0.566498 0)
(-0.702797 0.0141289 -5.63787e-21)
(-0.150421 0.0517128 -1.37661e-20)
(-0.694165 -0.00526967 7.9777e-21)
(-0.145484 0.0632751 1.46416e-20)
(-0.10155 0.111077 -1.1297e-20)
(-0.673868 -0.171518 0)
(-0.971944 0.455363 -6.95797e-21)
(-0.875357 0.532423 7.30689e-21)
(-0.651343 0.0233871 0)
(-0.186156 0.0892897 4.67413e-21)
(-0.676985 -0.253238 1.43784e-20)
(-0.0144842 0.0143411 1.65351e-20)
(-0.73643 0.401771 1.15692e-20)
(-0.732085 0.286556 -7.44722e-21)
(-0.485991 0.324629 0)
(-0.419004 0.08065 0)
(-0.886861 0.404324 1.35034e-20)
(-0.515213 -0.0108975 0)
(-0.294348 0.233048 2.58337e-20)
(-0.141433 0.134651 -9.23133e-21)
(-0.974672 0.468493 1.98294e-20)
(-0.642576 -0.119324 1.19511e-20)
(-0.35938 -0.0751407 0)
(-0.898213 0.247466 7.15924e-21)
(-0.516618 0.481846 -1.82638e-20)
(-0.505427 -0.168832 -2.83464e-20)
(-1.01552 0.323842 -6.59451e-21)
(-0.290754 0.328944 0)
(-0.527986 0.064236 -1.94284e-20)
(-0.326236 0.207561 0)
(-0.892624 0.450008 1.47208e-20)
(-0.562359 -0.00393155 7.14972e-21)
(-0.246506 0.177126 7.89888e-21)
(-0.507995 0.0535179 1.14386e-20)
(-0.341327 0.226748 7.9228e-23)
(-0.918779 0.564063 -4.70102e-22)
(-0.0833557 0.0375588 1.11116e-20)
(-0.754208 -0.0807643 -8.57681e-21)
(-0.311247 -0.0896043 0)
(-0.890728 0.20176 1.76438e-21)
(-0.615658 0.567465 0)
(-0.910315 0.45636 -1.50012e-20)
(-0.57361 -0.0199157 -8.73431e-21)
(-0.230714 0.176713 -9.69443e-21)
(-0.838123 0.35201 0)
(-0.455707 0.0109648 -1.16746e-20)
(-0.380963 0.293618 0)
(-0.845195 0.267444 0)
(-0.365948 -0.024806 0)
(-0.507531 0.424187 0)
(-0.716943 0.387973 -5.8036e-21)
(-0.556546 0.125147 -1.06193e-20)
(-0.354054 0.183106 5.41991e-23)
(-0.485575 0.464406 1.88172e-20)
(-0.921808 0.261403 1.91083e-20)
(-0.38279 -0.0910202 1.27377e-20)
(-0.993272 0.431481 -8.61616e-21)
(-0.629383 -0.158622 1.36355e-20)
(-0.140703 0.155469 -1.36775e-20)
(-0.515168 -0.157702 1.91457e-20)
(-1.00974 0.340379 6.68236e-21)
(-0.275326 0.308228 1.00079e-20)
(-0.781497 0.624514 -1.3553e-20)
(-0.206359 -0.0264953 1.5705e-20)
(-0.794167 0.115244 -1.19853e-20)
(-0.898861 0.60313 3.80245e-21)
(-0.890381 0.601098 -3.47017e-21)
(-0.730302 0.0140305 -1.79879e-21)
(-0.740327 0.000852797 0)
(-0.125723 0.0261538 -5.07756e-21)
(-0.13765 0.0285709 -4.46007e-21)
(-0.0175595 0.0144727 -2.238e-20)
(-0.707941 -0.238002 -1.58393e-20)
(-0.75409 0.416597 2.96723e-21)
(-0.798829 0.477476 -2.98944e-22)
(-0.0257284 0.014779 2.62144e-20)
(-0.779509 -0.193076 0)
(-0.914417 0.366954 -2.20538e-20)
(-0.483423 -0.0450377 -3.39335e-21)
(-0.329935 0.289844 0)
(-0.113858 0.115599 -2.79885e-20)
(-0.972963 0.46422 6.91822e-21)
(-0.6688 -0.148465 0)
(-0.837003 0.604992 1.90482e-20)
(-0.855907 0.601502 -1.4267e-20)
(-0.741387 0.0686169 9.19975e-21)
(-0.731667 0.0522397 3.53279e-21)
(-0.177111 0.0135545 -8.83114e-21)
(-0.164482 0.0231163 -4.42199e-21)
(-0.122921 0.163721 0)
(-0.606602 -0.227547 0)
(-1.0052 0.366649 2.60578e-21)
(-0.727099 0.45115 -5.46227e-21)
(-0.0168405 0.00596859 0)
(-0.762113 -0.202003 0)
(-0.607498 0.233032 -7.49519e-23)
(-0.556738 0.309762 9.433e-21)
(-0.439633 0.16592 4.78105e-21)
(-0.794418 0.43911 -9.62034e-21)
(-0.733774 -0.230025 7.22309e-21)
(-0.0232676 0.0215882 1.22662e-21)
(-0.743331 0.538029 0)
(-0.730122 0.135885 -1.51543e-20)
(-0.242412 0.029332 -2.89697e-24)
(-0.982039 0.427473 9.75762e-23)
(-0.652978 -0.192125 1.97451e-20)
(-0.110486 0.13049 1.07759e-23)
(-0.593263 -0.278037 4.34928e-22)
(-0.0123874 0.0147185 -9.50338e-21)
(-0.705803 0.326985 -4.50554e-21)
(-0.600846 0.425921 -8.90458e-21)
(-0.335686 0.0597912 8.84591e-21)
(-0.72523 0.217636 2.43697e-20)
(-0.697585 0.300407 0)
(-0.458073 0.113723 -2.39486e-20)
(-0.464386 0.284926 1.21401e-20)
(-0.895155 0.495735 0)
(-0.0501666 0.0446979 1.31363e-20)
(-0.753616 -0.176441 9.56863e-24)
(-0.719894 0.304857 0)
(-0.443926 0.096468 -8.46501e-21)
(-0.457236 0.297744 -1.71483e-20)
(-0.590143 0.237066 9.72924e-21)
(-0.548015 0.291335 -5.00869e-21)
(-0.461806 0.183608 2.51646e-21)
(-0.533761 0.518586 9.02314e-21)
(-0.929706 0.233465 -6.84048e-21)
(-0.36078 -0.110153 1.40642e-20)
(-0.687508 0.253545 0)
(-0.401231 0.103781 0)
(-0.531673 0.349943 1.40311e-21)
(-0.720849 0.275455 1.17927e-20)
(-0.406755 0.0887226 6.51897e-21)
(-0.512399 0.345068 1.99946e-22)
(-0.756428 0.615974 2.05988e-20)
(-0.80731 0.129026 -1.17413e-20)
(-0.223005 -0.0367137 -1.5502e-20)
(-0.0749021 0.0628515 1.98467e-20)
(-0.0761998 0.0699631 -2.01003e-20)
(-0.735197 -0.140328 5.86055e-21)
(-0.722311 -0.153778 4.06263e-21)
(-0.931379 0.513605 0)
(-0.938406 0.501349 -6.00453e-21)
(-0.99666 0.422199 1.06203e-20)
(-0.633121 -0.173468 -1.22678e-20)
(-0.13163 0.155812 1.69196e-20)
(-0.193242 -0.0369609 -1.00495e-20)
(-0.798583 0.64675 4.19434e-21)
(-0.803756 0.104221 1.5286e-20)
(-0.643587 0.492698 -8.63866e-21)
(-0.29459 0.0146122 -9.28062e-21)
(-0.769358 0.19276 7.66389e-21)
(-0.974597 0.282902 0)
(-0.432534 -0.130116 9.29204e-21)
(-0.410967 0.42076 2.92559e-22)
(-0.611499 -0.282539 7.12936e-21)
(-0.0321141 0.0462466 -8.82115e-21)
(-0.837425 0.343834 -4.01088e-21)
(-0.183935 0.229792 0)
(-1.02435 0.356421 0)
(-0.572925 -0.204588 8.24982e-21)
(-0.893281 0.456175 5.06991e-21)
(-0.0471521 0.0523093 0)
(-0.726985 -0.212474 -7.17911e-21)
(-0.00806919 0.00731964 -3.51871e-32)
(-0.568936 -0.270504 -6.75303e-21)
(-0.647431 0.311162 4.53306e-21)
(-0.614626 -0.231593 7.56083e-21)
(-0.00715503 0.00200585 3.51054e-32)
(-0.621532 0.357751 -4.03342e-21)
(-0.52207 -0.0836674 -1.81382e-20)
(-0.958323 0.388343 0)
(-0.275934 0.259861 -2.5755e-20)
(-0.617144 -0.255261 -3.81792e-21)
(-0.0792252 0.112453 -8.99457e-21)
(-0.965408 0.359903 0)
(-0.96544 0.463005 -9.55834e-21)
(-0.611878 -0.0911356 1.03687e-20)
(-0.177012 0.161091 1.34707e-20)
(-0.872805 0.557329 1.53785e-20)
(-0.0515262 0.0145384 8.05034e-21)
(-0.80742 -0.112028 0)
(-0.770255 0.399947 4.48105e-21)
(-0.33268 0.197309 -4.96204e-21)
(-0.538885 0.083398 4.67363e-21)
(-0.597424 -0.220844 4.26892e-21)
(-0.141527 0.185072 9.4913e-21)
(-1.01284 0.363618 2.91333e-21)
(-0.960604 0.273164 -7.72107e-21)
(-0.43847 0.442922 -5.18129e-21)
(-0.415565 -0.120584 0)
(-0.483213 -0.124989 0)
(-0.980012 0.335514 0)
(-0.321849 0.334845 0)
(-0.00151759 -0.00508841 0)
(-0.367401 -0.160841 -5.707e-21)
(-0.367923 0.183251 3.19651e-21)
(-0.658597 -0.268814 7.15081e-21)
(-0.0168806 0.0199219 -1.14806e-20)
(-0.758713 0.385906 -4.89957e-21)
(-0.743183 0.383045 -1.14888e-20)
(-0.355212 0.203451 1.16868e-20)
(-0.533264 0.100659 5.39544e-21)
(-0.632398 -0.21644 1.76193e-20)
(-0.99234 0.396456 -5.63722e-21)
(-0.106111 0.139439 0)
(-0.113186 0.15638 -9.96957e-21)
(-1.00212 0.35708 0)
(-0.601629 -0.241932 -1.3158e-20)
(-0.962545 0.489199 -6.32146e-21)
(-0.103175 0.0978791 3.00489e-20)
(-0.686586 -0.135029 0)
(-0.0983526 0.0345067 -2.28508e-20)
(-0.747899 -0.0477677 8.94887e-21)
(-0.915745 0.585545 0)
(-0.737732 0.628831 -2.59728e-20)
(-0.833115 0.139518 1.49574e-20)
(-0.237579 -0.0559475 -4.9306e-21)
(-0.744644 0.033393 2.68597e-21)
(-0.872589 0.618461 8.22861e-21)
(-0.147348 0.0141315 -1.39396e-20)
(-0.0790424 0.0144614 -2.05226e-20)
(-0.899873 0.595624 0)
(-0.78553 -0.0610829 0)
(-0.772399 0.518907 -4.11007e-21)
(-0.799986 0.536096 0)
(-0.681328 0.112961 -1.57828e-20)
(-0.685035 0.0955469 1.68736e-20)
(-0.24004 0.0672593 2.3507e-21)
(-0.221356 0.0616271 -2.50653e-21)
(-0.74603 0.519878 3.94315e-21)
(-0.703547 0.132213 0)
(-0.250252 0.052055 4.52441e-21)
(-0.825421 0.620641 0)
(-0.761418 0.0787765 -1.48639e-20)
(-0.179698 -0.00217042 3.18594e-21)
(-0.506675 -0.142351 -9.47535e-21)
(-0.998535 0.343478 6.89514e-21)
(-0.286442 0.307787 -2.05981e-20)
(-0.619344 -0.191029 0)
(-0.999768 0.405968 1.60374e-20)
(-0.134713 0.166382 0)
(-0.243002 0.260342 -6.66412e-21)
(-0.998089 0.372946 -4.34756e-21)
(-0.540863 -0.140179 -6.20613e-21)
(-0.654919 -0.229618 -1.03965e-21)
(-0.00877067 0.00347422 6.13696e-21)
(-0.655645 0.384473 0)
(-0.657493 0.43692 8.00878e-21)
(-0.668026 0.426386 0)
(-0.319282 0.0899189 0)
(-0.67498 0.18239 2.99619e-20)
(-0.326479 0.109893 0)
(-0.649643 0.170606 -1.90108e-20)
(-0.78944 0.596513 0)
(-0.759876 0.579264 0)
(-0.224044 0.00312767 3.70669e-23)
(-0.758031 0.108003 9.19334e-21)
(-0.207491 0.00429126 2.32843e-20)
(-0.760529 0.124123 -1.93747e-20)
(-0.568614 -0.286871 0)
(-0.0155898 0.0216184 1.29053e-20)
(-0.736133 0.315028 0)
(-0.63532 -0.207074 -1.03608e-20)
(-0.994586 0.406493 1.73751e-21)
(-0.111247 0.139309 6.00851e-21)
(-0.656589 0.533894 -1.48576e-20)
(-0.283586 -0.0245043 -1.06753e-20)
(-0.811513 0.187146 2.53663e-20)
(-0.469489 -0.149929 2.04835e-20)
(-0.998437 0.303852 1.81005e-20)
(-0.349232 0.378169 0)
(-0.105108 0.0294607 2.44344e-20)
(-0.748387 -0.0342339 -9.5216e-21)
(-0.91153 0.594315 8.86525e-21)
(-0.686766 -0.255825 0)
(-0.851808 0.410875 0)
(-0.0316844 0.0411166 0)
(-0.677815 -0.251532 0)
(-0.882456 0.405953 4.62421e-21)
(-0.0421981 0.0564072 2.18632e-21)
(-0.859176 0.583236 -7.89868e-21)
(-0.708777 0.045388 5.36487e-21)
(-0.168928 0.0409829 6.54566e-21)
(-0.551094 0.418839 -2.342e-21)
(-0.352706 0.0250919 0)
(-0.777697 0.25046 -1.15802e-22)
(-0.95272 0.487803 7.36579e-21)
(-0.0903188 0.0862985 1.75406e-20)
(-0.703626 -0.147788 -4.7327e-21)
(-0.522455 -0.103238 0)
(-0.971897 0.381285 0)
(-0.269945 0.271384 2.21875e-20)
(-0.129674 0.0970982 5.67093e-21)
(-0.674693 -0.075098 1.43339e-20)
(-0.945723 0.52074 1.98165e-20)
(-0.739618 0.577696 0)
(-0.235364 -0.00766028 -1.55546e-20)
(-0.775995 0.137221 9.87163e-21)
(-0.87819 0.304604 1.15357e-22)
(-0.40829 -0.0367768 9.11353e-21)
(-0.436835 0.378331 0)
(-0.618177 0.462547 1.49245e-22)
(-0.313287 0.0272745 -3.02845e-21)
(-0.75928 0.207598 -1.00448e-20)
(-0.0888767 0.093546 -2.90562e-24)
(-0.694721 -0.169944 1.12391e-20)
(-0.956503 0.467001 8.11438e-21)
(-0.924194 0.537076 -3.66783e-21)
(-0.671697 -0.0333156 -4.20361e-21)
(-0.147354 0.088882 0)
(-0.611759 0.416748 -8.68594e-21)
(-0.340872 0.0800831 1.9007e-20)
(-0.698234 0.210084 -1.60585e-20)
(-0.88872 0.58806 6.06362e-21)
(-0.0671473 0.0103021 9.14938e-21)
(-0.800049 -0.0783414 -6.81409e-21)
(-0.734145 0.475754 -4.99766e-21)
(-0.655602 0.129585 0)
(-0.275341 0.0916342 0)
(-0.77952 0.330731 -2.09797e-20)
(-0.44806 0.055581 5.26558e-21)
(-0.419527 0.29585 0)
(-0.485772 -0.103741 0)
(-0.965579 0.346614 1.43706e-20)
(-0.31703 0.318829 0)
(-0.832869 0.509055 -3.2959e-21)
(-0.0341716 0.0162955 -2.82083e-21)
(-0.800738 -0.16398 7.90266e-21)
(-0.836749 0.526348 9.11161e-21)
(-0.0365592 0.0129878 0)
(-0.810301 -0.145525 -7.50946e-21)
(-0.120195 0.0803437 5.18981e-21)
(-0.692391 -0.0684996 -8.55288e-21)
(-0.938875 0.535742 -1.81905e-20)
(-0.895283 0.286604 -6.85235e-21)
(-0.397964 -0.059061 -9.12207e-21)
(-0.45588 0.407842 0)
(-0.0255951 0.00971317 2.5842e-21)
(-0.80052 -0.178838 -7.38771e-21)
(-0.788916 0.49035 0)
(-0.162595 0.155845 0)
(-0.621352 -0.111028 -8.76387e-21)
(-0.974505 0.456409 -2.28249e-21)
(-0.00520082 0.0028722 1.03345e-20)
(-0.489523 -0.262332 7.55188e-21)
(-0.573988 0.253326 0)
(-0.525763 0.326817 -4.59083e-21)
(-0.564931 -0.198464 0)
(-0.00482597 -0.00339757 1.03642e-20)
(-0.085198 0.0265047 2.38734e-23)
(-0.767132 -0.063836 0)
(-0.908765 0.585603 0)
(-0.0682909 0.0820204 0)
(-0.694176 -0.206111 0)
(-0.942585 0.446997 1.07395e-20)
(-0.934588 0.525729 -6.48548e-21)
(-0.942276 0.526354 5.24706e-21)
(-0.0832107 0.0602413 -9.95111e-21)
(-0.73267 -0.114778 -1.91843e-21)
(-0.0951357 0.0703104 -1.61217e-20)
(-0.714063 -0.103904 3.44337e-21)
(-0.98312 0.438746 4.44044e-21)
(-0.605359 -0.121012 5.771e-21)
(-0.174437 0.175363 0)
(-0.390948 0.420087 0)
(-0.445486 -0.150069 0)
(-0.993982 0.284543 0)
(-0.663772 0.391455 0)
(-0.356662 0.145116 -2.5817e-20)
(-0.609439 0.167667 1.04767e-20)
(-0.987257 0.402801 1.27945e-20)
(-0.563471 -0.123836 2.11517e-21)
(-0.217258 0.225025 1.96836e-20)
(-0.240624 0.248456 1.27755e-20)
(-0.986378 0.388828 -1.7794e-20)
(-0.545275 -0.123087 -2.93605e-21)
(-0.895314 0.616751 6.98213e-21)
(-0.0862536 0.00488795 9.82639e-21)
(-0.791076 -0.039599 1.48056e-20)
(-0.796622 0.611265 0)
(-0.769512 0.102809 4.41423e-21)
(-0.198759 -0.00642856 -2.28213e-20)
(-0.76541 0.556276 0)
(-0.735685 0.123046 1.99066e-20)
(-0.227798 0.0218101 2.62214e-23)
(-0.948268 0.421182 -1.6757e-20)
(-0.552411 -0.0695733 2.54907e-21)
(-0.241767 0.216485 -1.11952e-20)
(-0.959915 0.410318 0)
(-0.546103 -0.0843558 2.39007e-21)
(-0.245726 0.229035 1.02826e-20)
(-0.591605 0.391735 0)
(-0.362654 0.0959744 -3.00164e-20)
(-0.685292 0.220209 9.01527e-21)
(-0.804087 0.552066 0)
(-0.699756 0.0905173 0)
(-0.21007 0.0460713 3.41393e-21)
(-0.157727 0.208187 -2.05215e-20)
(-0.579453 -0.224639 -2.327e-20)
(-1.02383 0.35058 0)
(-0.896504 0.384813 6.18444e-21)
(-0.045196 0.0638965 0)
(-0.647782 -0.264589 5.13382e-21)
(-0.880292 0.357633 -1.76131e-22)
(-0.0418727 0.0608571 0)
(-0.625492 -0.273548 -1.47464e-20)
(-0.687615 0.494636 5.96327e-21)
(-0.279727 0.0459057 -3.29653e-21)
(-0.721226 0.166453 -1.34362e-22)
(-0.661556 -0.267319 1.93091e-22)
(-0.0247248 0.0325477 1.75569e-20)
(-0.816859 0.386171 0)
(-0.929513 0.547245 1.57087e-20)
(-0.128395 0.0754931 1.09178e-20)
(-0.692245 -0.0466131 0)
(-0.0246526 0.0348807 -2.60259e-21)
(-0.620286 -0.282569 -8.02763e-21)
(-0.805976 0.350585 0)
(-0.684233 0.323484 1.4429e-20)
(-0.436949 0.247836 1.54602e-20)
(-0.495194 0.134993 7.71599e-23)
(-0.857693 0.461848 -2.50471e-21)
(-0.578248 0.0307781 -2.59619e-21)
(-0.253747 0.159243 -1.16054e-20)
(-0.376267 -0.0514929 2.07572e-20)
(-0.878659 0.270604 1.62166e-20)
(-0.491281 0.43144 0)
(-0.0908586 0.125516 0)
(-0.620886 -0.243759 -4.77627e-21)
(-0.980046 0.371184 0)
(-0.50785 -0.111572 0)
(-0.975351 0.365862 0)
(-0.28667 0.290897 0)
(-0.062234 0.0192443 0)
(-0.891233 0.567294 -5.60732e-21)
(-0.794195 -0.0965385 6.67868e-21)
(-0.881702 0.468547 0)
(-0.581363 0.00882664 1.28437e-21)
(-0.238929 0.16032 1.13563e-20)
(-0.649722 0.374336 0)
(-0.377178 0.159154 2.21517e-20)
(-0.597474 0.173729 0)
(-0.642868 -0.229134 -1.66755e-20)
(-0.972395 0.397613 5.35545e-21)
(-0.0890345 0.118064 0)
(-0.13833 0.121874 -1.19043e-20)
(-0.652374 -0.103809 5.58385e-22)
(-0.962739 0.487113 2.33097e-22)
(-0.862613 0.489885 0)
(-0.844611 0.479727 6.08976e-21)
(-0.0391208 0.031293 -6.46912e-21)
(-0.0339447 0.0284694 -7.9618e-21)
(-0.769022 -0.18251 -4.84274e-21)
(-0.765082 -0.196264 3.98159e-21)
(-0.870858 0.371173 0)
(-0.475221 -0.0110785 3.49755e-20)
(-0.344997 0.277671 1.22254e-20)
(-0.502784 -0.0673989 2.54448e-20)
(-0.941108 0.377979 0)
(-0.294201 0.271917 -1.34769e-20)
(-0.752542 0.34993 -1.18297e-20)
(-0.483996 0.0815501 9.00582e-21)
(-0.39035 0.252242 1.89662e-20)
(-0.645727 -0.256716 1.11539e-20)
(-0.93319 0.385916 6.72751e-21)
(-0.627614 -0.26248 -5.32964e-21)
(-0.0591246 0.0831556 0)
(-0.940149 0.367165 -6.49581e-21)
(-0.0644137 0.0910454 0)
(-0.924039 0.481219 0)
(-0.601499 -0.0350044 0)
(-0.201527 0.152006 1.26871e-20)
(-0.959641 0.409475 9.36375e-21)
(-0.941251 0.402727 -1.74346e-20)
(-0.660124 -0.228581 7.3188e-21)
(-0.662619 -0.241628 -1.83216e-20)
(-0.0753335 0.100133 1.76803e-20)
(-0.0631226 0.085244 2.33345e-24)
(-0.930433 0.366685 0)
(-0.482572 -0.0656804 -2.33916e-20)
(-0.325649 0.302132 1.75202e-20)
(-0.83728 0.403956 1.09953e-20)
(-0.530122 0.022299 -1.56132e-20)
(-0.293693 0.207094 0)
(-0.870362 0.541055 0)
(-0.0468302 0.0198517 0)
(-0.799446 -0.132259 7.21427e-21)
(-0.871034 0.388408 8.07571e-21)
(-0.494732 -0.00276835 -9.72169e-21)
(-0.32306 0.253155 -2.03477e-20)
(-0.783831 0.367952 4.73267e-21)
(-0.491899 0.0608602 -1.05571e-20)
(-0.36616 0.243328 1.11061e-20)
(-0.853876 0.504271 0)
(-0.0398996 0.0250459 0)
(-0.786666 -0.168219 -9.93114e-21)
(-0.882391 0.48722 0)
(-0.606487 0.0125277 2.77036e-21)
(-0.215064 0.13464 -1.26342e-20)
(-0.401663 -0.128158 0)
(-0.961485 0.260124 0)
(-0.46636 0.474942 -6.67048e-22)
(-0.735687 0.591758 -6.64492e-22)
(-0.795392 0.141634 0)
(-0.235371 -0.023692 2.4211e-20)
(-0.520415 -0.187315 1.11134e-20)
(-0.262656 0.312887 0)
(-1.02716 0.323744 0)
(-0.00339977 -0.0026792 -2.48841e-20)
(-0.475966 -0.207148 7.9901e-21)
(-0.489688 0.251016 -4.47439e-21)
(-0.878692 0.426582 0)
(-0.535205 0.00517234 9.59045e-21)
(-0.278584 0.205593 -1.04283e-20)
(-0.905441 0.534074 1.0624e-20)
(-0.060605 0.0391302 3.36882e-20)
(-0.767467 -0.127653 0)
(-0.272988 -0.0728409 -6.48433e-21)
(-0.863181 0.171472 -9.68339e-21)
(-0.677667 0.602086 -5.95681e-21)
(-0.639955 0.403128 0)
(-0.00952212 0.000669876 -9.35183e-21)
(-0.69584 -0.213405 0)
(-0.498027 0.367764 1.16795e-20)
(-0.508395 0.391583 -1.19635e-20)
(-0.386332 0.0393587 0)
(-0.774176 0.277714 1.02089e-20)
(-0.374135 0.0186682 -1.94623e-20)
(-0.796379 0.268439 -8.2237e-21)
(-0.747663 0.329966 1.11249e-20)
(-0.459809 0.0822631 1.18812e-20)
(-0.422634 0.279623 0)
(-0.567191 0.409341 1.02677e-20)
(-0.532727 0.383793 0)
(-0.351402 0.0513146 -1.07631e-20)
(-0.743163 0.237311 9.18794e-21)
(-0.372059 0.0574239 1.08424e-20)
(-0.744322 0.256109 8.51863e-23)
(-0.859222 0.42195 6.95962e-22)
(-0.509561 0.0295833 -6.77013e-21)
(-0.323536 0.22987 -1.37145e-20)
(-0.842513 0.390602 -1.88784e-20)
(-0.496721 0.0207221 1.79541e-22)
(-0.336307 0.247912 0)
(-0.0520919 0.0769328 0)
(-0.610573 -0.276451 0)
(-0.912143 0.349209 6.86509e-21)
(-0.718681 0.498662 -5.49662e-21)
(-0.700667 0.148991 0)
(-0.268708 0.058261 6.10247e-21)
(-0.959717 0.431211 -1.71197e-20)
(-0.673104 -0.2106 8.40231e-21)
(-0.0781693 0.0992757 -1.00943e-20)
(-0.950831 0.441498 0)
(-0.963253 0.44522 9.19824e-21)
(-0.576008 -0.0701487 -3.17528e-21)
(-0.5898 -0.0855038 1.01948e-20)
(-0.213983 0.190529 -1.39885e-20)
(-0.197503 0.182259 -1.30111e-20)
(-0.713508 0.476162 0)
(-0.676436 0.146877 0)
(-0.282211 0.0791322 2.86778e-21)
(-0.82477 0.586186 6.40264e-21)
(-0.726923 0.079062 0)
(-0.190395 0.0255003 7.5984e-21)
(-0.919709 0.444728 -4.78647e-21)
(-0.561197 -0.0369711 0)
(-0.235453 0.193057 0)
(-0.593841 0.328851 1.13409e-20)
(-0.59524 0.207462 -5.61746e-21)
(-0.419358 0.170047 5.96504e-21)
(-0.974631 0.41734 0)
(-0.566557 -0.104082 0)
(-0.218171 0.214525 -2.09287e-20)
(-0.642377 0.397869 0)
(-0.351115 0.123451 3.27847e-21)
(-0.639266 0.185012 0)
(-0.92446 0.390328 -1.08256e-20)
(-0.504334 -0.0520379 -1.30583e-20)
(-0.299545 0.263139 -1.74714e-21)
(-0.828015 0.565605 6.45491e-21)
(-0.704431 0.0723296 0)
(-0.194078 0.0429979 1.56109e-20)
(-0.606609 0.352614 -1.12477e-20)
(-0.590167 0.356379 -5.02708e-21)
(-0.612152 0.199816 5.49079e-21)
(-0.395679 0.153109 -1.17748e-20)
(-0.639567 0.212948 0)
(-0.389855 0.134553 -2.10531e-20)
(-0.559755 0.371858 -5.10964e-21)
(-0.377041 0.0892117 1.40306e-20)
(-0.53608 0.371978 3.2908e-21)
(-0.697455 0.237829 -1.24051e-20)
(-0.383895 0.0713118 -6.73196e-21)
(-0.729013 0.257365 2.5045e-22)
(-0.76757 0.499011 5.92926e-21)
(-0.79601 0.49785 0)
(-0.65803 0.110117 1.16747e-20)
(-0.640818 0.0911779 -9.11005e-21)
(-0.252163 0.0867758 -1.35663e-20)
(-0.245905 0.100439 2.25746e-20)
(-0.105567 0.0500366 0)
(-0.7268 -0.052621 -5.26479e-21)
(-0.923767 0.567057 -9.3317e-21)
(-0.495488 0.485848 8.08242e-21)
(-0.938608 0.252004 1.07931e-20)
(-0.383022 -0.1106 -2.2113e-20)
(-0.096043 0.0516214 -1.13642e-20)
(-0.101755 0.065384 9.06678e-21)
(-0.730851 -0.0740436 4.55037e-21)
(-0.713553 -0.083378 7.8132e-21)
(-0.927112 0.558227 2.3831e-20)
(-0.937358 0.541878 -1.23891e-20)
(-0.603038 0.530109 1.09588e-20)
(-0.31366 -0.0550218 -1.02332e-20)
(-0.858411 0.21203 2.4332e-21)
(-0.578968 0.289154 1.91466e-20)
(-0.469116 0.210696 0)
(-0.552941 0.211654 -1.91594e-20)
(-0.97447 0.432824 -4.40353e-21)
(-0.586285 -0.104238 -1.15103e-20)
(-0.197736 0.192505 0)
(-0.67847 0.456619 0)
(-0.299453 0.0751244 -2.734e-21)
(-0.685343 0.169967 -9.73303e-21)
(-0.843094 0.565289 0)
(-0.696602 0.0600354 0)
(-0.185969 0.0503853 -1.4548e-20)
(-0.90872 0.588829 -1.01016e-20)
(-0.913207 0.573464 0)
(-0.729676 -0.0187647 2.76201e-21)
(-0.120838 0.0393762 -1.38763e-20)
(-0.711682 -0.0203747 -7.53623e-21)
(-0.128287 0.053735 1.87704e-20)
(-0.94005 0.471325 9.02616e-21)
(-0.602211 -0.0534623 1.0682e-20)