/*--------------------------------*- C++ -*----------------------------------*\
  =========                 |
  \\      /  F ield         | OpenFOAM: The Open Source CFD Toolbox
   \\    /   O peration     | Website:  https://openfoam.org
    \\  /    A nd           | Version:  6
     \\/     M anipulation  |
\*---------------------------------------------------------------------------*/
FoamFile
{
    version     2.0;
    format      ascii;
    class       volScalarField;
    location    "0";
    object      p_rgh;
}
// * * * * * * * * * * * * * * * * * * * * * * * * * * * * * * * * * * * * * //

dimensions      [0 2 -2 0 0 0 0];

internalField   nonuniform List<scalar> 
10000
(
472.263
213.609
115.928
75.2286
54.9879
41.6577
32.1028
25.4717
21.2503
18.5417
16.4718
14.7998
13.5522
12.8561
12.6523
16.4684
9.76619
2.33609
6.90304
7.5568
5.06188
3.08903
1.5961
0.30248
0.477053
1.05419
1.52855
3.12382
4.75176
5.97074
8.26852
11.0604
13.461
16.529
20.67
24.2856
27.1985
30.989
35.6128
39.7399
43.6195
48.7288
55.2637
61.653
66.9483
72.1222
78.0842
84.0798
88.8889
92.4147
95.7211
99.4804
102.958
105.121
106.038
106.709
107.901
109.389
110.185
109.696
108.433
107.438
107.14
107.217
106.947
105.757
103.946
102.295
101.399
101.281
101.467
101.352
100.579
99.2198
97.6142
95.9382
93.847
90.559
85.4115
78.3226
69.7688
60.5163
51.2884
42.4696
34.0896
26.1565
18.8284
12.3146
6.72347
2.03023
-1.94878
-5.54511
-9.17211
-13.1988
-17.8561
-23.0093
-27.7226
-30.8454
-31.4964
-29.8473
215.67
141.645
94.7222
68.6588
53.3036
42.7374
34.6979
28.5092
23.9732
20.8362
18.5744
16.7445
15.0221
13.0332
10.7082
3.46953
6.49345
17.0258
15.4836
8.16702
3.79403
1.58401
0.441362
-0.56668
-0.515514
0.504428
1.22006
2.48259
4.45317
6.22376
8.29198
11.0284
14.126
17.4685
21.154
24.8372
28.4215
32.2634
36.2472
40.1937
44.6834
50.1923
56.2894
62.1429
67.5866
73.1852
79.0619
84.4244
88.7185
92.3418
95.9854
99.6608
102.607
104.272
105.085
105.987
107.385
108.788
109.326
108.586
106.767
105.562
106.251
106.859
105.986
104.369
102.587
101.213
100.673
100.758
100.916
100.667
99.8576
98.6767
97.3756
95.9395
93.9161
90.523
85.1414
77.8095
69.1529
59.9449
50.792
41.9969
33.5869
25.5994
18.2712
11.8852
6.51822
2.04647
-1.75862
-5.21142
-8.74959
-12.5332
-17.1931
-22.8032
-27.9619
-31.4465
-31.8328
-28.1677
121.644
98.8286
77.2007
61.3731
50.6033
42.7735
36.8655
32.2493
28.3769
25.2128
22.6467
20.4511
18.5946
16.6821
15.3063
13.1813
17.2501
-5.85823
-4.66457
18.9568
6.33628
2.90881
0.920233
-0.243229
-0.413884
0.0457672
0.976567
2.48109
3.87971
5.47697
8.27099
11.2813
13.8411
17.2377
21.7023
25.5584
28.5296
32.0716
36.5957
41.086
45.3552
50.4066
56.5957
62.9362
68.5886
73.7665
78.9913
84.1869
88.7504
92.4832
95.8168
98.9355
101.469
103.133
104.128
104.948
105.931
106.829
107.284
106.976
106.329
104.71
102.521
103.723
104.925
102.821
100.734
99.5717
99.2062
99.4271
99.6318
99.3776
98.6365
97.6718
96.6458
95.3528
93.2729
89.755
84.2947
76.9338
68.3308
59.292
50.3269
41.616
33.2248
25.3153
18.1919
12.0648
6.90376
2.57487
-1.07034
-4.29637
-7.29993
-11.7305
-17.0404
-22.3484
-27.1495
-30.1213
-29.6718
-24.0495
85.3079
77.7554
66.9281
56.9954
49.3529
43.6559
39.5204
36.397
33.5637
30.8028
28.1836
25.5298
23.161
20.804
18.8813
17.4618
15.2447
39.4116
21.0877
-13.118
-2.95136
-2.14589
-1.66867
-1.85386
-1.03431
-0.171983
0.279206
1.69351
3.56435
5.11139
7.29618
10.277
13.4167
17.079
21.2112
24.6803
27.8199
31.8656
36.5384
40.7592
44.8959
50.3055
57.0614
63.4949
68.672
73.4505
78.6795
84.0671
88.6578
92.0512
94.8727
97.7125
100.271
101.944
102.715
103.152
103.746
104.405
104.622
104.448
104.394
104.42
102.638
98.4161
99.6148
101.913
99.1103
97.4049
97.176
97.3581
97.6325
97.6439
97.1586
96.2905
95.281
94.0342
91.9761
88.4013
82.9208
75.7115
67.402
58.651
49.8457
41.2094
32.9973
25.4366
18.6812
12.7771
7.72012
3.56403
0.222528
-2.69447
-5.11801
-10.2237
-15.7512
-21.1705
-25.6309
-27.7822
-25.9173
-18.256
69.473
66.9583
61.2248
54.8734
49.6355
45.7727
42.8988
40.6832
38.5383
36.0106
33.1915
29.9956
26.7666
23.5442
19.9554
15.8897
10.0634
-0.634634
-7.01407
7.76146
19.7704
4.34046
1.62694
-0.113919
-0.739768
-0.476811
0.0586569
1.31058
2.56431
3.80502
6.187
9.35719
12.2782
15.5516
19.6163
23.3443
26.6131
30.5529
35.1107
39.4627
44.0515
49.8612
56.6726
62.9387
67.9332
72.6964
78.0925
83.4967
87.7652
90.7842
93.4464
96.2743
98.793
100.273
100.638
100.629
101.052
101.862
102.269
101.812
100.846
100.974
101.96
99.3702
93.573
95.713
98.6764
95.2891
94.3656
94.8372
95.3689
95.6169
95.2944
94.5081
93.5235
92.2624
90.1585
86.5962
81.3185
74.4646
66.4609
57.8746
49.224
40.8852
33.0815
25.8912
19.3818
13.6637
8.78241
4.72828
1.21932
-2.30566
-6.91053
-9.66475
-14.4594
-19.5114
-23.6306
-24.9727
-21.3971
-11.5391
60.167
60.2899
57.4203
53.5348
50.3946
48.2381
46.54
44.9649
43.0613
40.361
36.972
33.145
29.0325
25.3227
21.8054
18.1987
15.89
14.0861
20.0961
15.1605
-1.70722
0.280325
-1.33687
-1.82744
-1.55961
-1.18205
-1.06167
-0.138346
1.054
2.35446
4.58092
7.34806
9.99964
13.2823
17.3997
21.0584
24.0756
27.9266
32.7817
37.5352
42.3892
48.3411
55.1773
61.4636
66.6026
71.4586
76.7771
82.037
86.16
89.043
91.6614
94.5337
96.9273
97.9987
97.9574
97.8196
98.3113
99.2136
99.6934
99.2304
98.0641
96.7498
97.4879
99.8675
95.0888
88.4522
92.191
94.724
91.8605
92.2372
93.006
93.3743
93.2087
92.5296
91.4837
90.1045
88.0533
84.757
79.8123
73.2243
65.4128
57.0478
48.7277
40.7866
33.3467
26.453
20.2309
14.8326
10.2185
6.23952
2.64703
-0.490934
-5.05249
-8.73106
-12.9118
-17.6317
-21.3909
-21.8061
-16.3702
-4.30737
53.5386
55.252
54.5549
52.6508
51.1965
50.5705
50.0849
49.0025
46.9818
43.6993
39.2612
34.3936
29.074
23.9203
19.6829
15.3713
11.5993
7.85503
5.25236
0.605142
-9.74852
2.20333
-3.17107
-3.36294
-3.29248
-3.12895
-3.1435
-2.22937
-1.18956
-0.204011
1.80825
4.38833
6.92499
10.1291
14.0046
17.4068
20.3517
24.3334
29.48
34.5462
39.5158
45.5692
52.6832
59.2091
64.4046
69.2488
74.5476
79.729
83.848
86.8786
89.5373
92.1904
94.3245
95.2629
95.1256
94.895
95.4409
96.5535
97.1384
96.4956
95.0876
93.8752
93.2172
95.0596
98.5439
88.389
83.2376
91.0403
90.6919
89.0273
90.3933
91.1797
91.0842
90.2946
89.1596
87.8963
86.1355
83.1169
78.3465
71.9535
64.4786
56.5128
48.4962
40.753
33.5701
27.1057
21.3473
16.2044
11.5832
7.46159
3.86463
1.16054
-1.56306
-6.49644
-11.2554
-15.8964
-19.1122
-18.3563
-11.0734
2.97522
48.4505
51.0609
52.227
52.2203
52.3672
53.0805
53.576
52.7328
50.1452
45.9167
40.0902
33.5814
27.075
20.6523
15.1744
10.4322
6.64673
2.88769
0.409252
-11.9296
4.8277
13.5122
-3.51492
-5.15226
-5.82942
-5.81271
-5.91448
-5.2012
-4.45684
-3.84179
-1.97629
0.501971
2.79441
5.71933
9.35706
12.5641
15.5431
19.7462
25.0286
30.2399
35.4457
41.7308
49.0754
55.8899
61.2296
65.9657
71.2541
76.7119
81.0854
84.1064
86.6642
89.2854
91.3645
92.1804
92.0402
92.0322
92.8333
93.9947
94.4539
93.7269
92.3632
91.2658
90.837
90.7678
93.0587
98.2864
82.3918
75.6098
88.6462
87.829
87.8756
88.9485
88.7885
87.9266
86.9466
85.9741
84.4456
81.5819
77.0339
71.0133
63.9539
56.2674
48.3739
40.7796
33.9532
28.0068
22.6179
17.443
12.4971
7.96037
3.82095
0.435947
-2.36245
-6.72611
-11.0949
-15.0683
-17.2129
-15.023
-5.9967
9.78345
44.602
47.6683
50.1429
52.0361
53.9345
55.8367
56.8505
55.9134
52.2391
46.3874
38.9444
30.5777
22.3482
14.7903
8.49416
3.26913
-0.442036
-3.35932
-4.97483
-10.6475
15.362
-10.323
-26.536
-14.9549
-11.9577
-10.5026
-10.132
-9.45153
-8.8275
-8.39764
-6.76517
-4.49817
-2.50286
0.0915996
3.59633
6.75204
9.65395
13.9446
19.4378
24.7776
30.1298
36.788
44.4651
51.3429
56.716
61.6874
67.2726
72.9262
77.4685
80.6753
83.3256
85.8808
87.9024
88.8855
89.089
89.3366
90.2175
91.4366
92.0209
91.3779
89.9573
88.7297
88.2391
88.0958
87.7958
87.9495
90.9045
79.3562
74.873
87.1129
85.8372
86.3926
86.5017
85.8412
85.0701
84.2435
82.8573
80.2841
76.1937
70.6085
63.7746
56.1468
48.3899
41.1521
34.7786
29.153
23.8446
18.55
13.4626
8.85601
5.26383
0.165715
-3.3253
-7.15867
-11.1761
-14.4541
-15.5529
-12.0634
-1.47529
15.9197
41.5588
45.047
48.3799
51.9213
55.4429
58.309
59.2051
57.4554
52.4612
44.5919
34.8739
24.534
14.6599
5.96071
-0.93053
-6.34416
-9.80056
-11.774
-12.8562
-12.1915
-3.86728
-44.1156
-35.881
-17.5125
-14.7857
-13.9614
-14.2538
-14.1241
-13.8922
-13.7061
-12.4496
-10.5405
-8.74426
-6.33307
-3.07989
-0.025671
2.89862
7.11485
12.6108
18.2485
23.9275
30.7258
38.5231
45.6737
51.334
56.5116
62.34
68.379
73.2825
76.6017
79.2401
81.9646
84.3642
85.706
86.1272
86.5398
87.6721
89.1902
89.9377
89.2677
87.7762
86.5433
85.9715
85.4974
83.9676
82.8297
84.0173
78.4437
77.0711
84.1056
86.1259
83.8871
84.3255
83.9464
83.2856
82.6097
81.5557
79.4694
75.8359
70.5299
63.8119
56.2981
48.8178
42.0016
35.959
30.4027
25.0081
19.6321
14.4609
9.57958
6.00617
1.395
-3.30242
-7.49576
-11.291
-14.0023
-14.279
-9.65089
2.48673
21.5839
38.6078
42.8891
46.9712
51.7647
56.3175
59.563
59.9171
56.5242
49.4472
39.2872
27.2066
14.8638
3.5048
-6.09421
-13.2138
-18.2989
-20.9515
-21.6228
-21.6952
-11.867
-41.5614
-44.3181
-10.5979
-12.6499
-14.7868
-16.5389
-18.3923
-19.0889
-19.4523
-19.6882
-18.7017
-17.1036
-15.6765
-13.41
-10.2552
-7.49731
-4.79008
-0.474093
5.20183
10.8665
16.5978
23.6539
31.7648
39.0921
44.8939
50.4497
56.8128
63.254
68.3383
71.7882
74.7142
77.8795
80.6909
82.3395
83.0745
83.8645
85.3384
87.0638
87.9219
87.3744
86.0317
84.8548
84.1739
83.6017
82.5505
80.883
81.4267
89.144
76.8702
67.688
82.3948
82.7906
82.2759
82.0483
81.5715
81.234
80.674
79.0516
75.719
70.6212
64.1668
56.9898
49.8215
43.2444
37.3582
31.8897
26.5754
21.3189
16.2549
11.465
9.54894
2.55675
-3.28066
-7.68751
-11.2908
-13.6132
-13.2244
-7.45964
6.32893
27.2349
35.4244
40.7085
45.4636
50.9998
56.0145
58.8351
57.9193
52.3408
42.5565
29.7483
15.3982
1.28977
-11.1797
-21.1884
-28.0735
-32.5898
-34.7046
-35.6119
-37.6574
-34.9876
-57.3494
-2.61455
27.1786
-7.86542
-15.5457
-20.294
-23.4727
-24.7463
-25.3244
-25.853
-25.2475
-23.8167
-22.543
-20.6978
-17.981
-15.3881
-12.7024
-8.49944
-2.91249
2.83849
8.78352
15.9731
24.153
31.6675
37.8372
43.8548
50.6079
57.3512
62.7789
66.6456
69.9718
73.4918
76.6988
78.8467
80.0834
81.2366
82.9412
84.8916
86.036
85.7368
84.4535
83.1351
82.2684
81.5998
80.5295
78.6861
76.0128
75.9471
79.6989
75.7561
72.88
82.0787
79.8619
79.7033
79.903
80.1122
80.0136
78.7465
75.7228
70.9915
64.9901
58.2325
51.3012
44.8123
39.0495
33.7807
28.5433
22.9567
16.805
9.55764
3.09562
1.40695
-3.88331
-7.975
-11.3018
-13.2676
-12.1282
-5.03073
10.5292
33.2367
31.924
37.9636
43.3781
49.1472
53.9441
55.6456
52.6628
44.4349
31.635
16.0504
-0.424376
-15.8694
-28.7978
-38.4419
-44.2385
-47.253
-47.6409
-46.9325
-47.1336
-44.1832
-62.9974
7.9921
12.4598
-31.5113
-27.191
-28.8692
-30.109
-30.6632
-31.2141
-31.7046
-31.1959
-30.1856
-29.3698
-27.8472
-25.4131
-23.2099
-20.8607
-16.7759
-11.1218
-5.34164
0.555013
7.73569
16.1025
23.9392
30.4081
36.6779
43.771
50.9932
56.9135
61.1879
64.8934
68.8695
72.6207
75.3087
76.9502
78.3902
80.4047
82.733
84.1987
84.0274
82.6788
81.2313
80.3065
79.641
78.4808
76.4267
73.9442
72.5861
76.5757
74.6218
72.1901
79.0455
79.5355
77.9052
78.5661
79.1801
79.3904
78.4841
75.9557
71.7869
66.2696
59.8428
53.1258
46.8473
41.4373
36.6334
31.7704
26.3611
20.3659
14.3669
1.64577
-0.762362
-3.77451
-7.47652
-10.7082
-12.4144
-10.4854
-1.98599
15.2734
39.6095
28.2462
34.5399
40.3706
45.9943
49.8791
49.7397
44.087
32.8602
17.0436
-1.10201
-19.3291
-35.4978
-48.0612
-56.4553
-60.2947
-60.8693
-58.5099
-54.9522
-51.8723
-48.0795
-54.5377
-12.6271
-32.7254
-53.2458
-35.2415
-35.3054
-35.2294
-35.0967
-35.572
-36.4231
-36.4284
-35.8637
-35.4542
-34.4736
-32.6133
-30.8267
-28.6602
-24.687
-19.2108
-13.632
-7.77114
-0.476838
8.03241
15.9589
22.5959
29.1979
36.7452
44.4379
50.746
55.4024
59.6197
64.1894
68.4534
71.5312
73.5156
75.3551
77.8155
80.4838
82.0824
81.9131
80.5949
79.2306
78.3402
77.6227
76.3623
74.2514
71.9821
70.5355
72.3784
79.5771
77.1732
67.1889
75.9433
76.556
77.1281
78.1529
78.7667
78.3766
76.4913
72.9301
67.8351
61.6885
55.2833
49.4345
44.5133
40.1452
35.5248
30.0778
23.9591
16.4529
13.527
5.42814
-0.201361
-5.12965
-8.92833
-10.623
-8.03984
1.68967
20.3974
46.1241
24.3129
30.4983
36.3086
41.3801
43.7758
41.236
32.6293
18.3085
-0.23969
-20.4575
-39.7457
-55.7997
-67.0721
-73.2835
-74.2934
-71.7071
-66.0731
-59.2148
-52.2081
-45.4957
-38.9411
-33.3507
-60.6323
-59.7124
-39.0004
-37.6584
-37.1448
-37.2249
-38.2199
-39.6561
-40.3202
-40.4942
-40.8376
-40.5538
-39.2307
-37.814
-35.9542
-32.2605
-26.9709
-21.4985
-15.7225
-8.52673
-0.0699774
7.92809
14.8193
21.7584
29.6185
37.6454
44.3673
49.5313
54.2991
59.3605
64.0283
67.5007
69.9253
72.2036
75.0033
77.8568
79.5246
79.4202
78.2298
76.9966
76.1365
75.3566
74.064
71.9922
69.7166
68.188
67.713
69.5049
72.3732
73.2264
72.8301
76.2204
75.9743
77.1102
78.2584
78.4982
77.2245
74.174
69.4927
63.7603
57.8786
52.6622
48.3391
44.4468
40.2355
35.3528
30.5999
21.9293
15.4431
8.76486
2.80747
-2.5782
-6.61296
-8.1727
-5.01572
5.69769
25.5864
52.5389
20.0826
25.9274
31.2496
35.3346
35.8705
30.6954
19.0558
1.79001
-18.9645
-40.4503
-59.8126
-74.7021
-83.6153
-86.6572
-84.0697
-77.8855
-68.5675
-58.7481
-49.0191
-39.6038
-26.8878
-33.7745
-57.3133
-53.2779
-37.7633
-34.9044
-35.2586
-36.6034
-38.7745
-41.3259
-43.104
-44.3012
-45.4536
-45.8281
-45.1049
-44.1759
-42.6719
-39.2152
-34.1019
-28.8042
-23.282
-16.2882
-7.88998
0.182211
7.21749
14.3196
22.4108
30.8132
38.0196
43.6535
48.8106
54.2412
59.3648
63.3634
66.2476
68.8099
71.7404
74.7042
76.5454
76.6295
75.56
74.3861
73.5871
72.9209
71.8015
69.9079
67.7458
66.3417
66.1692
67.7594
73.0579
78.5774
70.7865
72.6932
75.0119
76.2394
77.9353
78.7599
77.9883
75.3821
71.1919
66.0505
60.8406
56.2987
52.5395
49.0705
45.216
41.0476
37.6633
32.8062
23.0064
14.5829
7.35497
1.12597
-3.37268
-5.01189
-1.55083
9.85003
30.7184
58.7957
15.6286
20.9303
25.4114
28.0877
26.5004
18.6899
4.24691
-15.4493
-37.698
-59.4314
-77.5716
-89.9986
-95.5358
-94.5554
-87.3703
-77.3294
-64.3842
-51.9955
-40.8721
-31.961
-22.2502
-25.6049
-30.8384
-27.2752
-25.6743
-26.8436
-30.2342
-33.8539
-37.8637
-41.9984
-45.1178
-47.4121
-49.3944
-50.4578
-50.3483
-49.8587
-48.6336
-45.4174
-40.5993
-35.5781
-30.3382
-23.5547
-15.2998
-7.29402
-0.235219
6.99625
15.3508
24.0947
31.6464
37.6003
43.0891
48.9368
54.577
59.0727
62.3006
65.0327
68.0509
71.133
73.1628
73.4482
72.5086
71.4284
70.8203
70.4582
69.618
67.8947
65.815
64.4997
64.5973
65.8602
66.9531
71.6959
76.809
70.2121
72.6541
75.7322
77.7378
78.9152
78.5893
76.4951
72.9267
68.5165
64.0436
60.1712
57.0259
54.0581
50.495
46.6295
38.3215
33.1627
26.771
19.2798
11.963
5.3942
0.51561
-1.35045
2.1741
14.0749
35.8481
64.9966
11.0598
15.5929
19.0485
20.1175
16.3477
6.0193
-10.7574
-32.0974
-54.7906
-75.5347
-91.2522
-99.922
-100.705
-95.0141
-82.6288
-68.5503
-51.6023
-37.2396
-25.63
-17.4073
-8.01524
-13.1419
-8.68357
-4.66951
-13.2527
-17.5344
-24.0244
-30.2028
-36.3733
-42.2289
-46.6946
-50.0562
-52.8563
-54.592
-54.9852
-54.8271
-53.85
-50.9455
-46.5035
-41.7972
-36.8177
-30.2869
-22.3018
-14.4795
-7.44009
-0.0868434
8.46081
17.3864
25.1236
31.3454
37.2154
43.5224
49.6165
54.4629
57.932
60.8592
64.047
67.2562
69.3913
69.8263
69.1084
68.2985
68.003
67.9699
67.4046
65.8812
64.0082
62.9841
63.4925
65.1874
66.5862
69.5413
79.4118
76.0956
71.0763
74.4929
77.6604
78.9742
78.9688
77.4835
74.6231
70.963
67.2458
64.0948
61.6592
59.3156
56.1982
51.5572
42.2919
38.5333
33.0603
25.5947
17.8646
10.7255
5.21752
2.85105
6.20884
18.487
41.0931
71.2252
6.58079
10.1691
12.5476
11.929
5.99225
-6.59428
-24.9173
-46.8823
-68.9452
-87.3807
-99.2286
-103.124
-98.1321
-86.9357
-68.5809
-51.1717
-29.6742
-13.7769
-2.63064
5.05292
15.7367
2.15734
8.01289
13.5254
-2.05363
-8.86798
-18.0598
-26.5242
-34.847
-42.4131
-48.2254
-52.5503
-55.9374
-58.2107
-59.0175
-59.1615
-58.4603
-55.8877
-51.8082
-47.4638
-42.8052
-36.6051
-28.9423
-21.3134
-14.3245
-6.95628
1.61624
10.5836
18.4563
24.9545
31.1965
37.8982
44.3515
49.4804
53.1714
56.3133
59.7083
63.064
65.3073
65.9249
65.5298
65.1092
65.1653
65.4275
65.1434
63.9368
62.45
61.8471
62.7324
64.6501
66.7999
68.5959
72.8649
84.3033
75.7826
72.134
76.6835
79.1592
79.257
78.2648
76.1416
73.2593
70.3579
68.1048
66.7583
65.8111
64.0897
56.0763
54.2931
47.7825
40.966
32.9615
24.6519
16.7897
10.4742
7.43213
10.5163
23.1138
46.4826
77.4574
2.42274
4.85999
6.01255
3.74164
-4.0234
-18.3485
-37.6006
-59.0795
-79.0665
-94.1207
-100.952
-98.8934
-87.3633
-70.8073
-45.8872
-26.8987
0.416283
16.2792
25.2859
31.8879
42.4371
18.9285
23.8711
29.6962
9.37364
-0.190698
-12.133
-22.9262
-33.7336
-43.111
-50.2243
-55.2003
-58.7282
-61.4097
-62.5735
-62.9622
-62.5437
-60.3298
-56.6158
-52.7143
-48.4564
-42.5855
-35.2284
-27.8168
-20.9685
-13.7252
-5.25095
3.69972
11.6985
18.4361
24.9508
31.9327
38.6899
44.1325
48.0985
51.4425
55.0028
58.5432
61.023
61.9355
61.895
61.8612
62.2639
62.8277
62.8875
62.1153
61.0988
60.9262
62.1787
64.4074
66.9831
68.6274
69.1309
79.3331
84.0659
73.4245
72.4066
77.78
79.6511
78.9921
77.2525
75.0772
73.1251
72.098
72.6025
73.3512
67.4926
66.3013
61.947
56.0561
49.1145
40.8368
31.9579
23.277
16.0134
12.2043
14.9899
27.8304
51.8311
83.4837
-1.27932
-0.0911201
-0.158874
-4.00304
-13.315
-28.6115
-47.9368
-68.1759
-84.9727
-95.5025
-96.4154
-87.8867
-69.6132
-48.0735
-14.9641
3.86637
45.719
54.9331
54.2313
56.985
61.9969
39.6878
42.0755
40.5354
15.7305
3.26996
-8.36949
-19.6162
-32.7355
-43.5778
-51.9117
-57.3717
-60.7354
-64.1008
-65.7884
-66.3068
-66.1645
-64.4342
-61.1112
-57.6709
-53.8448
-48.2579
-41.2177
-34.1114
-27.5103
-20.4876
-12.1565
-3.26622
4.78603
11.6696
18.3762
25.587
32.6151
38.3631
42.6227
46.1953
49.9507
53.7448
56.5751
57.87
58.1834
58.4943
59.253
60.1726
60.6248
60.3172
59.7803
60.0246
61.6245
64.2262
67.2117
68.8841
68.9589
73.8566
88.8098
84.062
72.0189
72.7042
77.9715
79.5067
78.6448
77.2097
76.1933
76.0334
77.1636
77.5031
72.0069
71.0088
69.1335
64.2738
57.4194
48.8696
39.3592
29.7971
21.5473
16.9559
19.4389
32.4586
56.9279
89.0866
-4.55218
-4.57096
-5.79591
-10.906
-21.3517
-37.1568
-55.6871
-73.8721
-86.7794
-92.1309
-86.6677
-71.3038
-43.747
-14.7838
32.2184
22.9198
49.0763
102.805
78.0846
70.2437
79.0763
64.0427
64.5606
60.053
34.8122
29.569
1.32645
-17.1339
-36.5028
-49.8399
-58.2284
-61.3273
-62.3234
-66.1898
-68.5399
-69.0246
-69.3205
-68.4038
-65.4672
-62.4464
-59.0956
-53.7465
-47.0903
-40.3625
-34.017
-27.2567
-19.1012
-10.3464
-2.35557
4.57095
11.4151
18.8364
26.0989
32.0983
36.642
40.5235
44.5947
48.7328
51.9626
53.6603
54.3213
54.9606
56.0919
57.4006
58.2235
58.3096
58.2133
58.8883
60.8775
63.8969
67.1301
69.1815
70.9131
72.8777
80.9078
93.075
82.0085
70.6927
71.6525
75.5213
77.4281
77.6149
77.3654
77.8571
77.7883
73.88
82.3487
81.6153
78.3797
73.3672
66.2496
57.168
46.8345
36.2445
26.9421
21.5414
23.6819
36.8192
61.6405
94.1785
-7.65608
-8.61881
-10.8032
-16.9376
-27.9979
-43.813
-60.9727
-76.5276
-85.0343
-85.4934
-73.719
-47.2307
-8.53664
-14.487
26.5735
0.825938
21.6916
112.889
189.975
189.3
147.866
95.2401
64.0114
36.5796
-2.90148
-9.46963
10.7766
-5.55192
-26.6828
-35.8259
-46.8156
-58.5356
-61.2418
-69.6104
-72.8006
-71.8053
-72.1894
-72.4482
-69.6618
-67.0421
-64.3531
-59.1399
-52.9917
-46.6969
-40.5118
-34.0619
-26.1331
-17.5973
-9.7401
-2.82364
4.07972
11.6281
19.0674
25.306
30.1588
34.4214
38.9083
43.4424
47.0533
49.1456
50.1816
51.1568
52.6363
54.312
55.469
55.8694
56.147
57.2846
59.7812
63.334
66.9271
70.1261
71.5134
69.9122
76.3381
89.8133
92.6205
77.5616
67.6006
68.0891
70.4736
71.5649
72.0328
72.8621
70.5078
81.7018
86.9814
88.5053
86.7337
82.2238
75.0115
65.4205
54.2447
42.6119
32.2438
25.9849
27.6948
40.8426
65.8996
98.697
-10.5162
-12.271
-15.149
-22.0039
-33.3085
-48.6665
-64.0833
-76.9371
-81.3896
-78.7687
-58.2817
-22.1863
-62.254
-67.738
-16.7546
196.384
295.145
239.818
198.926
119.052
60.4826
9.44689
-5.38027
-10.2385
-24.854
-18.8746
-2.75713
-35.3286
-74.1615
-110.929
-117.06
-65.4361
-53.7066
-58.5707
-71.7511
-71.0785
-74.5757
-77.6876
-74.0919
-71.6371
-69.866
-64.3419
-58.9252
-53.1944
-46.9907
-40.9572
-33.2792
-25.0508
-17.4013
-10.5136
-3.62286
3.95762
11.5001
17.9789
23.1941
27.8737
32.7856
37.7109
41.6759
44.146
45.5792
46.9079
48.6871
50.6545
52.1054
52.7993
53.4281
55.042
58.0963
62.214
66.365
70.8009
70.9256
68.7984
72.3629
80.4972
96.0928
91.378
74.7129
64.9071
63.6353
65.1842
65.9357
67.4466
84.5085
89.3304
94.4678
97.2373
96.0412
91.5604
83.9961
73.77
61.7089
49.0237
37.5778
30.3972
31.5566
44.5843
69.7576
102.686
-13.1659
-15.5741
-18.9345
-26.1107
-37.3053
-51.894
-65.3181
-75.687
-76.4108
-67.336
-30.8375
-65.545
-184.174
30.8361
303.729
392.006
268.932
129.394
43.1087
-2.13617
-6.69037
-13.8584
-3.28088
6.43126
-3.24988
-9.34185
-20.8204
-49.6576
-73.8586
-71.3487
-50.9106
-20.1485
-63.1819
-133.031
-104.753
-71.8916
-69.1971
-80.9623
-76.0118
-75.6544
-76.0924
-69.1155
-64.9758
-60.0009
-53.3455
-47.962
-40.4676
-32.6271
-25.3103
-18.4843
-11.6989
-4.1286
3.48455
10.1697
15.7244
20.7883
26.0813
31.363
35.6638
38.4938
40.3159
41.9949
44.0253
46.1916
47.8776
48.8751
49.8896
51.9842
55.5998
60.2569
65.7443
69.6484
67.42
67.9889
70.7205
76.3706
89.6016
98.3622
88.5676
74.5566
67.0388
64.6871
68.7479
87.2862
100.034
104.33
106.24
107.43
105.873
101.128
93.1194
82.2266
69.2874
55.5359
42.965
34.7931
35.3202
48.1468
73.3199
106.254
-15.8943
-18.6546
-22.2254
-29.3657
-40.0871
-53.6539
-65.2435
-73.7671
-67.8417
-49.2113
-73.4945
-225.522
40.7376
379.588
414.003
185.226
7.50765
-32.9336
-3.36423
40.0097
50.9952
38.4345
37.4597
31.7975
12.8726
0.469301
-12.7824
-27.9657
-38.413
-41.9952
-48.8209
-56.0752
-86.3627
-96.2583
-44.4296
-41.457
-117.398
-116.048
-80.0513
-76.5204
-81.1934
-70.9242
-71.2115
-67.4025
-59.236
-55.0885
-47.585
-40.2598
-33.453
-26.6423
-20.0899
-12.5638
-4.91459
1.89093
7.68284
13.0235
18.6091
24.1878
28.7944
31.9587
34.1326
36.1372
38.41
40.7463
42.626
43.9329
45.3576
47.9101
52.0599
57.3107
65.3428
64.6814
61.3523
64.3022
68.3438
72.3377
81.7402
93.5743
93.5609
85.6709
79.3809
80.2757
91.8023
107.315
107.239
110.968
115.183
116.824
115.438
110.608
102.246
90.7504
76.9601
62.1253
48.3707
39.1388
38.9657
51.5531
76.7206
109.607
-18.9148
-21.6649
-25.128
-31.9083
-41.8701
-54.3294
-65.0674
-70.7637
-54.5104
-100.857
-243.488
-37.8844
473.159
380.926
63.4896
-37.7426
24.5538
67.5421
72.1662
73.1407
54.3506
40.2717
37.3127
25.8338
9.53285
-2.70856
-15.9102
-29.237
-40.4976
-48.9332
-55.9277
-59.4083
-67.242
-69.6367
-67.4306
-82.8712
-113.835
-69.7132
-45.2497
-117.207
-105.736
-68.1557
-79.2957
-74.4727
-62.8746
-62.2988
-54.492
-48.044
-41.953
-34.8364
-28.7171
-21.2927
-13.6762
-6.88565
-0.987884
4.47681
10.2323
16.0172
20.855
24.3103
26.7921
29.0824
31.5896
34.1257
36.2286
37.8475
39.6682
42.6651
47.2601
54.6812
59.7649
54.8623
57.4748
60.2331
64.1873
66.8318
73.7298
81.4183
86.219
86.2741
86.7707
92.3999
104.016
116.354
118.336
120.492
124.208
126.045
124.826
119.94
111.262
99.1888
84.5609
68.6536
53.7238
43.4333
42.5403
54.8401
80.0176
112.903
-22.2998
-24.7173
-27.7541
-33.8514
-42.8773
-54.595
-65.5532
-63.2041
-76.3834
-263.739
-163.062
496.312
367.162
-9.84758
-21.6318
60.4684
80.4167
79.3533
63.1002
61.7066
49.0827
35.5389
31.1277
23.0623
11.5842
0.173895
-12.2618
-24.1999
-34.8073
-43.855
-51.854
-58.2612
-66.0307
-72.5241
-76.2033
-80.6495
-88.9703
-80.3828
-88.0967
-115.847
-67.4754
-52.9303
-118.045
-86.6494
-63.1977
-69.7363
-59.5289
-55.6928
-50.9055
-42.7638
-37.5391
-30.2386
-22.7347
-16.1766
-10.3125
-4.90534
0.875765
6.74806
11.6938
15.3728
18.1127
20.652
23.3994
26.1736
28.5305
30.4524
32.6532
36.0826
42.1122
49.8504
46.0128
42.2405
50.9644
55.6695
55.172
60.2672
63.8148
64.0572
68.2591
74.5853
81.4007
88.8511
102.441
115.398
121.343
126.551
131.77
134.605
133.885
129.059
120.098
107.417
91.9131
74.9201
58.8563
47.6133
46.0925
58.1684
83.3545
116.265
-26.0778
-27.8729
-30.1326
-35.0821
-42.7718
-53.9182
-60.9972
-50.1035
-200.047
-277.338
353.636
384.741
-40.7534
-5.35746
57.0839
75.3031
64.3401
66.2288
62.1579
63.8268
51.8497
37.8247
32.958
25.2226
14.7821
3.48702
-8.64244
-20.1613
-30.674
-40.1338
-48.4474
-55.5332
-62.9824
-69.9881
-75.514
-80.9083
-87.9272
-88.6244
-89.4019
-95.3632
-84.4629
-91.6296
-106.461
-53.2559
-73.4877
-92.9662
-64.2896
-65.971
-60.3791
-48.9848
-46.4321
-39.3656
-32.0388
-26.0072
-20.247
-15.1167
-9.47977
-3.63854
1.24434
5.04794
7.98374
10.7373
13.74
16.781
19.3917
21.5882
24.0563
28.7682
36.0014
31.5577
25.412
37.2853
43.8936
52.9543
46.0001
52.1981
47.5615
40.9886
46.0781
56.0663
66.013
76.6229
93.2259
111.783
122.409
131.303
138.68
142.795
142.723
138.023
128.776
115.439
98.9853
80.8644
63.6782
51.6081
49.6511
61.6341
86.8627
119.777
-30.357
-31.2105
-32.4686
-35.9445
-42.417
-52.1356
-44.7634
-93.2731
-324.621
123.34
421.281
-50.108
-21.1297
44.7551
45.7671
53.2362
57.8844
62.6575
61.6893
56.1209
49.1774
50.4703
42.3573
30.1743
19.4991
8.11156
-3.87031
-15.2667
-25.7889
-35.5231
-44.1991
-51.932
-59.7009
-67.0945
-73.4536
-79.3682
-85.6479
-88.8111
-90.3949
-94.3586
-92.406
-91.0283
-92.7229
-82.1517
-94.2219
-79.8509
-45.7695
-87.1558
-74.8109
-54.5935
-56.6704
-47.8352
-40.5183
-36.0909
-30.6297
-26.1159
-20.7832
-15.0254
-10.4255
-6.59697
-3.55306
-0.664723
2.58133
5.86901
8.59304
10.8272
15.0134
19.2177
12.7033
5.71916
20.3617
32.3707
38.0734
34.2822
40.9051
36.0651
19.7606
16.6506
27.9303
41.8387
52
63.9063
81.059
103.562
121.172
134.955
145.082
150.721
151.415
146.881
137.316
123.275
105.827
86.57
68.2976
55.4607
53.2391
65.2625
90.5685
123.383
-35.2017
-34.7504
-34.926
-37.0426
-44.0967
-51.6433
-41.3282
-234.957
-169.148
458.195
-1.55906
-65.9819
17.6898
17.9351
30.2851
44.787
54.3188
61.0499
62.1487
48.5116
41.3307
49.0662
43.143
33.1089
23.7922
12.9748
1.37911
-9.85596
-20.375
-30.2067
-39.0493
-47.1532
-55.2334
-62.9782
-69.9353
-76.4605
-82.7519
-86.9629
-89.5141
-92.8247
-93.6295
-92.9789
-93.7453
-88.9367
-88.4082
-83.5961
-81.8372
-89.763
-55.6275
-57.5685
-75.3425
-60.0396
-51.4718
-46.7084
-40.3266
-36.9765
-32.6216
-27.1439
-23.2369
-19.3992
-16.2743
-13.398
-9.99045
-6.65692
-4.3272
0.606509
-0.304789
-9.66935
-15.6797
1.96419
17.3216
23.7451
30.5812
31.6732
27.7488
5.61215
-5.64445
5.47698
26.7524
42.965
50.5643
58.5332
70.9012
97.3394
120.229
138.137
151.045
158.402
159.968
155.614
145.684
130.875
112.378
91.9868
72.7074
59.2139
56.8181
68.9699
94.2943
127.141
-40.5108
-38.3753
-36.9971
-37.3279
-43.3459
-40.4391
-95.2903
-309.543
267.73
153.049
-120.195
-21.8451
-14.1014
2.53007
22.0725
39.3713
53.3375
63.2124
57.8135
47.3614
57.1537
54.0725
47.3305
38.4963
29.123
18.6545
7.39481
-3.61492
-14.0531
-23.8873
-32.8108
-41.1307
-49.4466
-57.4928
-64.9086
-71.9394
-78.4996
-83.4508
-86.9484
-90.4245
-92.5265
-93.0381
-93.643
-91.7789
-91.2083
-89.6849
-85.3573
-83.916
-79.9134
-83.0658
-67.3976
-48.5107
-63.733
-63.3392
-53.9127
-51.9752
-44.3983
-38.264
-35.9868
-32.5019
-29.7198
-27.4418
-24.2655
-20.2054
-14.9966
-22.1513
-33.3803
-33.9139
-13.576
3.91237
10.6845
19.9336
18.5541
18.5635
-4.85295
-21.8847
-8.76065
21.9488
47.7395
62.901
66.3951
64.1301
67.022
95.9828
121.069
141.581
156.796
165.826
168.3
164.141
153.823
138.191
118.59
97.0594
76.822
62.7663
60.2829
72.7552
100.032
128.896
-46.2818
-42.3304
-39.3259
-39.2112
-43.551
-36.5691
-197.522
-24.8543
244.607
-138.298
-53.099
-46.7971
-27.7063
-5.87525
15.912
36.0228
54.5872
62.3603
38.6075
47.3575
63.9217
57.325
51.1236
43.5473
34.7398
24.8573
14.093
3.47115
-6.70775
-16.413
-25.3377
-33.772
-42.2438
-50.5356
-58.3544
-65.8427
-72.7648
-78.3235
-82.6308
-86.6173
-89.7204
-91.4533
-92.6501
-92.6131
-92.9384
-92.6895
-90.1231
-88.5928
-85.2023
-82.0457
-80.1026
-80.9947
-70.5172
-53.795
-51.0712
-69.0903
-63.7304
-52.7289
-53.2175
-46.225
-42.4063
-41.6159
-36.0348
-36.9236
-48.2562
-56.8083
-46.3801
-23.5371
-6.13452
0.0541
8.27955
6.00083
9.08762
-13.3334
-33.4381
-17.5765
22.1021
57.1448
79.4206
90.7165
92.9769
83.0747
72.321
94.0391
121.505
145.315
162.369
172.827
176.136
172.167
161.448
144.988
124.298
101.667
80.558
66.0044
63.433
75.9013
103.761
132.302
-52.1725
-46.1798
-41.1384
-40.0642
-38.9951
-76.3061
-252.21
209.12
8.22271
-106.553
-63.3227
-58.1744
-35.4964
-12.3966
11.2746
33.809
52.4853
40.8283
33.8542
64.3872
62.1991
58.844
55.182
48.875
40.8947
31.7444
21.6022
11.4849
1.7054
-7.73359
-16.5657
-25.043
-33.6147
-42.1046
-50.2831
-58.202
-65.5099
-71.5882
-76.5878
-81.2181
-85.2333
-88.1218
-90.2827
-91.7521
-93.2251
-94.0012
-92.958
-91.9468
-90.2498
-88.541
-86.6268
-82.8703
-79.6667
-82.6955
-73.7616
-61.0139
-60.5709
-56.1675
-69.7938
-66.4676
-57.9269
-58.7211
-64.564
-71.7862
-71.302
-49.5371
-24.941
-12.1258
-7.3009
-0.626102
-5.25031
1.47363
-18.9931
-41.4298
-22.1913
26.3583
65.4875
87.9018
101.754
112.156
117.556
110.076
93.8115
94.5293
124.408
150.667
168.047
179.319
183.21
179.371
168.26
150.996
129.257
105.574
83.672
68.6688
65.7237
77.4759
97.442
144.084
-58.202
-50.0803
-43.3755
-40.295
-29.5162
-124.336
5.59337
55.2746
-141.764
-75.9331
-80.5803
-65.0426
-42.1348
-17.5273
7.67188
31.3163
42.9333
18.7399
49.8621
72.4225
66.1597
64.1781
60.4122
54.6888
47.5762
39.2743
29.9184
20.4491
11.1834
2.13347
-6.51265
-14.9771
-23.6145
-32.2743
-40.7624
-49.0662
-56.7327
-63.251
-68.8294
-74.1142
-79.0106
-83.0055
-86.2594
-89.053
-91.7127
-93.6074
-93.9883
-93.8909
-93.461
-93.0158
-92.2438
-89.9841
-87.1182
-84.529
-83.0046
-86.9059
-81.5384
-66.1278
-62.7276
-62.2634
-72.9985
-92.2884
-95.6301
-76.4795
-43.5249
-21.9389
-15.679
-8.95854
-7.73651
-16.8428
-4.31537
-21.0869
-44.3461
-21.8347
29.3174
63.0742
80.1664
93.118
106.343
119.391
132.006
134.598
113.625
92.4659
138.829
159.828
174.099
185.163
189.235
185.447
173.984
156.007
133.316
108.678
86.0759
70.8961
67.9957
82.6908
97.8185
145.997
-64.1897
-53.8785
-46.1809
-41.983
-41.7484
-146.443
136.846
-77.4083
-118.957
-101.628
-89.4658
-70.6564
-47.1303
-21.2141
6.11845
29.7719
26.6227
20.1193
60.9227
65.0847
66.8212
67.4158
65.2105
60.6257
54.6006
47.32
38.9245
30.2527
21.6394
13.1138
4.75061
-3.64495
-12.322
-21.1327
-29.8757
-38.4866
-46.4555
-53.3549
-59.4492
-65.3511
-71.0523
-76.0479
-80.365
-84.333
-88.1035
-91.1022
-92.7944