/*--------------------------------*- C++ -*----------------------------------*\
  =========                 |
  \\      /  F ield         | OpenFOAM: The Open Source CFD Toolbox
   \\    /   O peration     | Website:  https://openfoam.org
    \\  /    A nd           | Version:  6
     \\/     M anipulation  |
\*---------------------------------------------------------------------------*/
FoamFile
{
    version     2.0;
    format      ascii;
    class       volScalarField;
    location    "0.008";
    object      p;
}
// * * * * * * * * * * * * * * * * * * * * * * * * * * * * * * * * * * * * * //

dimensions      [0 2 -2 0 0 0 0];

internalField   nonuniform List<scalar> 
16000
(
0.00385529
0.00836843
0.0109723
0.0126328
0.0133829
0.0132347
0.0123595
0.0109277
0.00907253
0.00689583
0.0044717
0.00185928
-0.000895866
-0.00376598
-0.00674858
-0.00985442
-0.0130881
-0.016441
-0.0199002
-0.0234624
-0.0271453
-0.0309781
-0.0349889
-0.0391999
-0.0436326
-0.0483136
-0.0532756
-0.0585715
-0.0642799
-0.070473
-0.0772068
-0.0845432
-0.092563
-0.101372
-0.111102
-0.121913
-0.133997
-0.14759
-0.162984
-0.180541
-0.200717
-0.224101
-0.251463
-0.283801
-0.322458
-0.369255
-0.426723
-0.498194
-0.587884
-0.710207
0.00509945
0.0111301
0.0141827
0.0155164
0.0157318
0.015044
0.0137187
0.0119661
0.00988575
0.00753642
0.00497229
0.00225194
-0.000567629
-0.00345685
-0.00643794
-0.00954816
-0.0127784
-0.016085
-0.0194734
-0.0229596
-0.0265592
-0.0303034
-0.0342248
-0.0383386
-0.0426535
-0.0471942
-0.0519915
-0.0570847
-0.0625504
-0.0684765
-0.0749172
-0.0819056
-0.0894912
-0.0977686
-0.106864
-0.116914
-0.128068
-0.140505
-0.154435
-0.170105
-0.187804
-0.207864
-0.230669
-0.256649
-0.2863
-0.32012
-0.358669
-0.402387
-0.451616
-0.50605
0.00572814
0.0125908
0.0161825
0.0176373
0.0176593
0.0166184
0.0149164
0.0128376
0.0105308
0.00806274
0.00545573
0.00272835
-7.70706e-05
-0.00291777
-0.00578397
-0.00874173
-0.0118677
-0.0151365
-0.0184511
-0.0217869
-0.0251798
-0.0287013
-0.032383
-0.0362231
-0.0402107
-0.0443723
-0.0487581
-0.053402
-0.0583332
-0.0635922
-0.0692394
-0.0753396
-0.0819305
-0.0890417
-0.0967273
-0.105064
-0.114143
-0.12406
-0.13491
-0.146791
-0.159798
-0.174003
-0.189439
-0.206103
-0.223885
-0.242521
-0.261508
-0.279927
-0.296308
-0.308484
0.0063235
0.0137677
0.0177588
0.0193616
0.0192438
0.0179359
0.0159614
0.0136632
0.0112043
0.0086503
0.00602657
0.00335195
0.000635235
-0.00211683
-0.00489747
-0.00770731
-0.0105576
-0.0135017
-0.0165854
-0.0197679
-0.0229889
-0.0262301
-0.029533
-0.0329302
-0.0364389
-0.0400709
-0.0438215
-0.0477091
-0.0517732
-0.0560279
-0.0605088
-0.0653118
-0.0704475
-0.0758263
-0.0814208
-0.0872832
-0.0934634
-0.0999798
-0.10683
-0.113986
-0.121388
-0.128943
-0.136495
-0.143757
-0.150331
-0.155707
-0.159077
-0.159321
-0.155122
-0.144956
0.00666218
0.014442
0.0186648
0.0203736
0.0202025
0.0187746
0.016687
0.01431
0.0118125
0.00926298
0.00668263
0.00407878
0.00145388
-0.00119024
-0.0038489
-0.0065172
-0.00919432
-0.0118812
-0.0145607
-0.0172365
-0.0199818
-0.0228629
-0.0258735
-0.0289496
-0.0320028
-0.0349867
-0.0379191
-0.0408569
-0.04386
-0.0469593
-0.0501726
-0.0534776
-0.0568094
-0.0601493
-0.0634877
-0.0667786
-0.0699813
-0.073052
-0.0759273
-0.0785211
-0.0807028
-0.0822848
-0.0830116
-0.0825595
-0.0804962
-0.0762117
-0.0689613
-0.0578193
-0.041722
-0.019807
0.0066821
0.0145051
0.0187654
0.0205095
0.0203919
0.0190451
0.0170502
0.0147618
0.0123471
0.00988006
0.00738926
0.00488618
0.00237651
-0.000136075
-0.00264766
-0.00515336
-0.00764941
-0.0101321
-0.0125966
-0.0150351
-0.0174432
-0.0198113
-0.0221415
-0.0244759
-0.0268393
-0.0291993
-0.031497
-0.0336948
-0.0357978
-0.0378087
-0.0397237
-0.0415068
-0.0430885
-0.0444567
-0.0455935
-0.04641
-0.0468193
-0.0467511
-0.0461235
-0.0448209
-0.0426956
-0.0395573
-0.0351671
-0.0292216
-0.0213453
-0.011062
0.00221336
0.0191978
0.0406751
0.0672475
0.00636955
0.0139294
0.0180157
0.0197084
0.019751
0.0187223
0.0170585
0.0150297
0.0127981
0.0104643
0.0080836
0.00568464
0.00328416
0.000893069
-0.00148015
-0.00382753
-0.00614152
-0.00841442
-0.0106371
-0.0128002
-0.0148914
-0.0168903
-0.0188049
-0.0206851
-0.0225296
-0.0242555
-0.0258015
-0.0271823
-0.0283921
-0.0293479
-0.0300267
-0.0304625
-0.0305932
-0.0303139
-0.0295686
-0.0283037
-0.0264359
-0.0238767
-0.0205338
-0.0162976
-0.0110376
-0.00459982
0.0031953
0.0125619
0.0237516
0.0370768
0.0529209
0.0718015
0.0943636
0.121372
0.00579265
0.0128157
0.0165468
0.018157
0.0184486
0.0178337
0.0165859
0.0149033
0.012936
0.0107984
0.00856734
0.00629211
0.00400457
0.00172599
-0.000528036
-0.00274447
-0.00491156
-0.00701792
-0.00905175
-0.0110005
-0.0128498
-0.0145828
-0.0161905
-0.017675
-0.0190199
-0.0201865
-0.0211462
-0.0218855
-0.0223718
-0.02255
-0.0223845
-0.0218471
-0.0208638
-0.0193469
-0.0172384
-0.0144839
-0.0110102
-0.00673479
-0.00157272
0.00456573
0.0117755
0.0201593
0.0298283
0.0409095
0.0535502
0.0679399
0.0843275
0.103229
0.125741
0.153293
0.00516803
0.0114112
0.014706
0.0163281
0.0169094
0.0166377
0.0157117
0.0143247
0.0126197
0.0107026
0.00865234
0.00652615
0.00436475
0.00219736
4.66604e-05
-0.00206756
-0.00412802
-0.006119
-0.00802525
-0.00983135
-0.0115211
-0.0130777
-0.014487
-0.015738
-0.0168105
-0.017665
-0.0182655
-0.0186055
-0.0186563
-0.0183582
-0.0176723
-0.0165531
-0.014923
-0.0127062
-0.00984298
-0.00627475
-0.00193934
0.00322641
0.00928626
0.0163024
0.0243334
0.033438
0.0436857
0.0551779
0.0680945
0.0827921
0.0998368
0.119851
0.143789
0.172633
0.00394383
0.00869882
0.0115674
0.0135177
0.0146102
0.014862
0.0144181
0.0134292
0.0120325
0.0103482
0.00847042
0.0064695
0.0043997
0.00230352
0.000213288
-0.00184668
-0.00385605
-0.00579678
-0.00765198
-0.00940513
-0.0110395
-0.0125382
-0.0138844
-0.0150616
-0.016047
-0.0168075
-0.0173082
-0.0175286
-0.0174422
-0.017008
-0.0161821
-0.0149039
-0.0131077
-0.010736
-0.00773377
-0.00404801
0.000372637
0.0055749
0.0115961
0.0184573
0.0261521
0.0346304
0.0437742
0.0533583
0.0630378
0.0724921
0.0808537
0.0825145
0.0660882
0.0515312
0.00374437
0.00835755
0.0111016
0.0128395
0.0136349
0.0134721
0.0125505
0.0110753
0.00918871
0.00698947
0.00454696
0.00191734
-0.000849411
-0.00372271
-0.0067025
-0.00980701
-0.01305
-0.0164166
-0.0198875
-0.0234516
-0.0271279
-0.0309521
-0.0349568
-0.0391641
-0.0435929
-0.0482663
-0.0532194
-0.0585068
-0.0642029
-0.0703849
-0.0771107
-0.084437
-0.0924437
-0.101234
-0.110937
-0.121714
-0.133756
-0.147299
-0.162628
-0.180104
-0.200174
-0.223419
-0.250601
-0.282756
-0.321208
-0.367733
-0.424947
-0.49658
-0.588871
-0.721545
0.00442502
0.0105193
0.0138759
0.0154333
0.0158109
0.0151872
0.0138286
0.0120351
0.009942
0.00759256
0.00502521
0.00228746
-0.000558033
-0.00345881
-0.00641428
-0.00948941
-0.0127287
-0.016073
-0.0194888
-0.0229988
-0.0266054
-0.0303457
-0.0342664
-0.0383912
-0.0427194
-0.0472661
-0.0520713
-0.0571755
-0.0626392
-0.0685668
-0.0750363
-0.0820712
-0.0897064
-0.0980268
-0.107161
-0.117253
-0.12846
-0.140963
-0.154976
-0.170747
-0.188572
-0.208787
-0.231774
-0.257951
-0.287825
-0.321918
-0.360781
-0.404923
-0.455506
-0.513104
0.00478993
0.0116544
0.0154994
0.0171562
0.0175238
0.0166679
0.0149843
0.0128721
0.0105415
0.0080726
0.00547413
0.00274213
-9.22298e-05
-0.00296667
-0.0058337
-0.00873001
-0.0117942
-0.015071
-0.018454
-0.0218281
-0.0252347
-0.028755
-0.0324392
-0.036293
-0.0403017
-0.044477
-0.0488678
-0.0535231
-0.0584685
-0.0637355
-0.0693906
-0.0755161
-0.0821557
-0.0893256
-0.0970714
-0.105468
-0.114611
-0.124601
-0.135541
-0.147529
-0.160657
-0.174992
-0.19055
-0.207311
-0.225178
-0.243858
-0.262966
-0.281639
-0.298326
-0.310408
0.00528926
0.0127567
0.0169699
0.0186596
0.0189614
0.0179061
0.0159825
0.0136677
0.011196
0.00863977
0.00601264
0.00332796
0.000603636
-0.00215554
-0.00494787
-0.00776711
-0.0106003
-0.0134887
-0.0165306
-0.0197229
-0.0229988
-0.0262725
-0.0295824
-0.0329789
-0.036493
-0.0401455
-0.0439155
-0.0478134
-0.0518864
-0.0561304
-0.0605666
-0.0653472
-0.070533
-0.0759868
-0.0816341
-0.087529
-0.0937339
-0.100273
-0.107143
-0.114316
-0.121734
-0.129307
-0.136903
-0.144235
-0.150884
-0.156325
-0.159684
-0.159879
-0.155495
-0.144949
0.00558223
0.0133929
0.0178403
0.0195906
0.0198699
0.0187139
0.0166835
0.0142935
0.0117885
0.0092414
0.00666435
0.00406167
0.001437
-0.00121062
-0.00387682
-0.00655518
-0.00924078
-0.0119427
-0.0146361
-0.0172932
-0.0199849
-0.022807
-0.0257707
-0.028851
-0.0319794
-0.0350505
-0.0380208
-0.0409419
-0.0439063
-0.0469497
-0.050118
-0.053425
-0.0567791
-0.0601377
-0.0635003
-0.0668108
-0.0700233
-0.0731028
-0.0759871
-0.0785851
-0.0807661
-0.0823396
-0.0830471
-0.0825671
-0.0804594
-0.0761172
-0.0687855
-0.0575383
-0.0412903
-0.0190093
0.00561704
0.0134759
0.0179598
0.0197476
0.0200692
0.0189767
0.017032
0.0147351
0.0123207
0.00986135
0.0073773
0.0048782
0.00237079
-0.000141326
-0.00265461
-0.00516341
-0.00766241
-0.0101477
-0.0126169
-0.0150663
-0.0174848
-0.0198504
-0.0221471
-0.0244434
-0.0267982
-0.0291666
-0.0314675
-0.0336568
-0.0357412
-0.0377217
-0.0396129
-0.0414038
-0.0429884
-0.0443419
-0.0454784
-0.0462969
-0.046691
-0.0465962
-0.0459336
-0.0445898
-0.0424171
-0.0392249
-0.0347754
-0.0287595
-0.0208048
-0.0104346
0.00292722
0.0199774
0.0414651
0.0681562
0.0053795
0.0129856
0.0172895
0.0190612
0.0194552
0.018646
0.0170456
0.0150277
0.0128044
0.0104765
0.00809721
0.00569764
0.00329632
0.000904367
-0.00146995
-0.00381859
-0.00613376
-0.0084082
-0.0106328
-0.012798
-0.0148935
-0.0168903
-0.0187806
-0.0206263
-0.0224557
-0.0241928
-0.0257373
-0.0270875
-0.0282829
-0.0292326
-0.0298668
-0.0302747
-0.0304078
-0.0301119
-0.0293371
-0.0280409
-0.026132
-0.0235202
-0.0201156
-0.0158082
-0.0104665
-0.0039352
0.00396513
0.0134481
0.0247605
0.038207
0.0541527
0.0730839
0.0955549
0.122354
0.00491815
0.0119734
0.0159476
0.0177312
0.0182625
0.0178091
0.0166148
0.0149492
0.0129919
0.0108543
0.0086164
0.0063332
0.00403935
0.00175632
-0.000500746
-0.00271899
-0.00488685
-0.00699323
-0.00902654
-0.0109744
-0.012822
-0.0145494
-0.0161423
-0.017608
-0.0189384
-0.0200917
-0.0210318
-0.0217494
-0.0222191
-0.0223768
-0.0221808
-0.0216205
-0.0206228
-0.019076
-0.0169187
-0.0141101
-0.0105783
-0.00623483
-0.000991654
0.00524227
0.0125634
0.021077
0.0308968
0.0421531
0.0549959
0.0696262
0.0863366
0.105708
0.128777
0.156461
0.00452318
0.0108423
0.0144203
0.0162264
0.0169384
0.0167554
0.0158437
0.0144453
0.0127244
0.0107885
0.00872036
0.00658003
0.0044092
0.0022355
8.01018e-05
-0.0020372
-0.00409921
-0.00609041
-0.00799571
-0.00979966
-0.0114858
-0.0130357
-0.0144348
-0.0156734
-0.0167301
-0.0175729
-0.01816
-0.0184741
-0.0185114
-0.0182057
-0.0174944
-0.0163498
-0.0147
-0.0124531
-0.0095457
-0.0059258
-0.00153106
0.00370591
0.00985102
0.0169685
0.0251187
0.0343634
0.0447775
0.0564733
0.0696576
0.0847618
0.102588
0.124363
0.151594
0.183058
0.00382778
0.00867949
0.0116787
0.0136975
0.0148352
0.0150889
0.0146186
0.0135953
0.012164
0.0104477
0.00854262
0.00651975
0.00443231
0.002323
0.0002234
-0.00184382
-0.00385908
-0.00580482
-0.00766449
-0.00942175
-0.0110599
-0.0125616
-0.0139103
-0.0150899
-0.0160791
-0.0168445
-0.0173549
-0.0175907
-0.0175208
-0.0171009
-0.0162874
-0.0150267
-0.0132526
-0.0109025
-0.00792264
-0.00426136
0.000132268
0.00530572
0.0112982
0.0181338
0.0258114
0.0342893
0.0434593
0.0531132
0.0629429
0.0726796
0.0813537
0.0823293
0.061448
0.0402472
0.00350758
0.00819813
0.0110436
0.0128877
0.0138087
0.0136841
0.0127419
0.0112299
0.00930798
0.00708078
0.0046144
0.00196204
-0.000822139
-0.00369985
-0.0066708
-0.00976854
-0.0130195
-0.0164134
-0.0199136
-0.0234968
-0.027175
-0.0309957
-0.0350013
-0.0392149
-0.043653
-0.0483377
-0.0533
-0.0585942
-0.0643017
-0.0705031
-0.0772576
-0.0846181
-0.0926616
-0.101496
-0.111251
-0.122085
-0.134196
-0.147825
-0.163264
-0.180879
-0.201136
-0.224636
-0.252178
-0.284847
-0.324173
-0.372247
-0.43227
-0.509582
-0.6146
-0.770448
0.00386967
0.0102512
0.0138837
0.0153403
0.0157966
0.0153042
0.0139694
0.0121525
0.0100381
0.00767298
0.0050879
0.00232539
-0.000545296
-0.00345979
-0.00640712
-0.00946384
-0.0127027
-0.0160695
-0.0194935
-0.0230322
-0.0266716
-0.0304241
-0.0343498
-0.0384865
-0.0428317
-0.0473976
-0.0522167
-0.0573327
-0.0628146
-0.0687668
-0.0752788
-0.0823712
-0.0900652
-0.0984541
-0.107673
-0.11786
-0.129176
-0.141813
-0.155995
-0.171982
-0.190085
-0.210668
-0.234162
-0.26105
-0.291875
-0.327248
-0.36807
-0.415172
-0.47009
-0.533823
0.00348872
0.0110931
0.015269
0.016518
0.0170449
0.0165261
0.014988
0.0128877
0.0105416
0.0080718
0.00547592
0.00275257
-0.000104305
-0.0030016
-0.0058792
-0.00874229
-0.0117719
-0.0150428
-0.0184771
-0.0218722
-0.0252765
-0.0288131
-0.0325105
-0.0363812
-0.0404197
-0.0446248
-0.0490359
-0.0537112
-0.0586772
-0.0639597
-0.0696308
-0.0757891
-0.0824879
-0.0897392
-0.0975775
-0.106075
-0.115327
-0.125443
-0.136536
-0.148712
-0.162073
-0.176701
-0.192648
-0.209898
-0.228332
-0.247613
-0.267326
-0.286547
-0.304363
-0.318353
0.00366504
0.0121213
0.0166485
0.0177639
0.0181486
0.0175225
0.0158315
0.013581
0.0111314
0.00859801
0.00598248
0.00329328
0.000574228
-0.00218202
-0.00498903
-0.00782608
-0.0106573
-0.0134999
-0.0164967
-0.019699
-0.0230252
-0.0263487
-0.0296435
-0.0330274
-0.0365365
-0.0402278
-0.0440437
-0.0479588
-0.0520461
-0.0562948
-0.0607048
-0.0654671
-0.0707165
-0.0762573
-0.0819536
-0.0879011
-0.0941744
-0.100782
-0.107725
-0.114981
-0.122493
-0.13016
-0.137822
-0.145223
-0.152012
-0.157708
-0.161488
-0.162286
-0.158429
-0.147566
0.00379187
0.0126959
0.0174776
0.0185955
0.0189065
0.0182203
0.0164629
0.0141528
0.0116825
0.00917259
0.00662176
0.00403023
0.0014127
-0.00123417
-0.00390382
-0.00659037
-0.00927865
-0.011995
-0.0147
-0.0173292
-0.0199734
-0.0227485
-0.0256972
-0.0287992
-0.0319931
-0.0350963
-0.0380959
-0.0410253
-0.0439905
-0.047011
-0.0501073
-0.0533882
-0.0567707
-0.0601492
-0.0635344
-0.0668755
-0.0701122
-0.0732146
-0.0761228
-0.0787443
-0.0809513
-0.0825601
-0.0833236
-0.0829017
-0.0808469
-0.0765722
-0.0692837
-0.0580568
-0.0417189
-0.0188676
0.00384546
0.0127982
0.0176243
0.0187735
0.0191167
0.0184888
0.0168058
0.0145799
0.0122045
0.00978956
0.00733738
0.00485555
0.00235854
-0.00014755
-0.002659
-0.00516825
-0.00766787
-0.0101533
-0.012624
-0.0150886
-0.0175272
-0.0198973
-0.0221614
-0.0244022
-0.0267321
-0.0291026
-0.0314149
-0.0336039
-0.0357067
-0.0376842
-0.0395048
-0.0412679
-0.0428693
-0.0442087
-0.0453413
-0.0461676
-0.0465471
-0.0464264
-0.0457347
-0.0443571
-0.0421467
-0.038914
-0.0344217
-0.0283665
-0.020374
-0.00995977
0.00343922
0.020521
0.0420283
0.0689972
0.00382203
0.0124167
0.0170353
0.0181928
0.0186629
0.0182698
0.0169006
0.0149386
0.0127444
0.0104511
0.00809344
0.00570344
0.00330705
0.000917961
-0.00145512
-0.00380345
-0.00611836
-0.0083929
-0.010617
-0.0127793
-0.0148684
-0.0168466
-0.0187083
-0.0205579
-0.0224113
-0.0241304
-0.0256486
-0.0269803
-0.0281571
-0.0290822
-0.0296623
-0.0300298
-0.0301705
-0.029853
-0.0290223
-0.0276887
-0.0257386
-0.0230654
-0.0195912
-0.0152073
-0.00978118
-0.00315821
0.0048385
0.0144201
0.0258244
0.0393463
0.0553185
0.0742025
0.0964608
0.122969
0.00371691
0.0115121
0.0158072
0.0171194
0.0177743
0.0176265
0.0166006
0.0149717
0.0130295
0.0109067
0.00867113
0.00638279
0.00408374
0.00179694
-0.000462786
-0.00268248
-0.0048504
-0.00695553
-0.00898638
-0.010931
-0.0127743
-0.0144944
-0.0160741
-0.0175242
-0.0188343
-0.0199591
-0.0208716
-0.0215645
-0.0220119
-0.022142
-0.0219059
-0.0213107
-0.0202931
-0.0187083
-0.016487
-0.0136066
-0.00999987
-0.00557331
-0.000234743
0.006108
0.0135494
0.0221937
0.0321536
0.0435592
0.0565582
0.0713596
0.0882462
0.107779
0.130667
0.1574
0.00402246
0.0106396
0.0144546
0.0161411
0.016895
0.0168663
0.0160052
0.0145959
0.0128575
0.0109022
0.00881336
0.00665492
0.00447143
0.00228959
0.00012843
-0.00199242
-0.00405584
-0.0060466
-0.00794983
-0.0097501
-0.0114306
-0.0129706
-0.0143515
-0.0155703
-0.0166119
-0.0174334
-0.0179927
-0.0182788
-0.018291
-0.0179655
-0.0172268
-0.0160479
-0.0143611
-0.0120667
-0.00909641
-0.00539713
-0.000911905
0.00442573
0.0106865
0.0179363
0.0262306
0.0356248
0.0461964
0.058058
0.0714142
0.0867438
0.105067
0.128332
0.158761
0.194204
0.0035979
0.00853152
0.0116172
0.0137297
0.0149728
0.0152777
0.0148154
0.0137768
0.0123186
0.0105727
0.00864044
0.0065952
0.0044902
0.00236801
0.000260001
-0.00181258
-0.00383099
-0.00577817
-0.00763787
-0.00939384
-0.0110292
-0.0125258
-0.0138667
-0.0150375
-0.0160185
-0.016775
-0.0172755
-0.017502
-0.0174244
-0.0169979
-0.0161767
-0.0149069
-0.013122
-0.010757
-0.00775696
-0.00407222
0.000346662
0.00554847
0.0115753
0.018456
0.0261991
0.0347754
0.0440895
0.0539624
0.0641279
0.0743419
0.0839101
0.0878012
0.0741265
0.0618347
0.00339702
0.0081354
0.0110088
0.0128414
0.0139066
0.0138481
0.0129074
0.0113715
0.00941813
0.00716264
0.00467078
0.0019913
-0.000814378
-0.00369905
-0.00666286
-0.0097504
-0.0129967
-0.0164095
-0.019938
-0.0235479
-0.0272359
-0.0310568
-0.0350667
-0.0392889
-0.0437374
-0.0484343
-0.0534077
-0.058714
-0.0644409
-0.0706722
-0.0774627
-0.0848604
-0.0929474
-0.101838
-0.111663
-0.122578
-0.134786
-0.148534
-0.164127
-0.181944
-0.202473
-0.226349
-0.254427
-0.287884
-0.328432
-0.378603
-0.442355
-0.526567
-0.645062
-0.822607
0.00329303
0.0103211
0.0140443
0.0149838
0.0155662
0.0152891
0.0140502
0.0122551
0.0101308
0.0077389
0.00512841
0.00233934
-0.000556487
-0.00348053
-0.00642412
-0.00947289
-0.0127204
-0.0160866
-0.0194734
-0.0230276
-0.026715
-0.0304984
-0.0344403
-0.03859
-0.0429451
-0.0475228
-0.0523589
-0.057494
-0.0629951
-0.0689819
-0.0755321
-0.0826589
-0.0904013
-0.0988563
-0.108161
-0.118453
-0.129889
-0.14267
-0.157035
-0.173259
-0.191675
-0.212683
-0.236773
-0.264507
-0.296584
-0.333705
-0.377082
-0.42795
-0.488047
-0.557477
0.0021905
0.0108761
0.0152739
0.0158806
0.0161444
0.0160597
0.0148425
0.0128412
0.010517
0.00805996
0.00546948
0.00271567
-0.000138975
-0.00303373
-0.0059044
-0.00878716
-0.0118198
-0.0150729
-0.0184982
-0.0219068
-0.0252818
-0.0288428
-0.0325669
-0.0364451
-0.0405018
-0.0447706
-0.0492143
-0.0539022
-0.0588818
-0.0641813
-0.0698702
-0.07605
-0.0827889
-0.0901145
-0.0980466
-0.106644
-0.11601
-0.126261
-0.137516
-0.149892
-0.163509
-0.178467
-0.19485
-0.212671
-0.231869
-0.252142
-0.272982
-0.293454
-0.312228
-0.327255
0.00210139
0.0118704
0.0166515
0.0169698
0.0167779
0.0166448
0.015436
0.0133755
0.0110002
0.00851786
0.0059305
0.00324871
0.000551964
-0.00219089
-0.00500755
-0.00785805
-0.0107222
-0.0135475
-0.0165417
-0.0197071
-0.0230471
-0.0264242
-0.0296857
-0.0330645
-0.0365564
-0.040257
-0.0441153
-0.0480785
-0.052226
-0.056475
-0.0608703
-0.0656672
-0.0709342
-0.0764977
-0.0822478
-0.0882543
-0.0946001
-0.101294
-0.10833
-0.115693
-0.123332
-0.131142
-0.138963
-0.146538
-0.153502
-0.159337
-0.16343
-0.164655
-0.161454
-0.150618
0.00206226
0.0124003
0.0174887
0.0177306
0.0172915
0.0171399
0.0159579
0.0138725
0.0114924
0.00905761
0.00655856
0.00399168
0.00138586
-0.00125524
-0.00391746
-0.0066043
-0.00929969
-0.0120111
-0.0147277
-0.0173342
-0.0199586
-0.0227744
-0.0257216
-0.028777
-0.031988
-0.0351108
-0.0381153
-0.0410807
-0.0440343
-0.047047
-0.0501972
-0.0534573
-0.0567762
-0.0601749
-0.0635992
-0.0669533
-0.0702049
-0.0733307
-0.07627
-0.078927
-0.0811733
-0.082828
-0.0836464
-0.083291
-0.0813178
-0.0771565
-0.0699625
-0.0586884
-0.0422054
-0.0186479
0.00209734
0.012499
0.0176499
0.0179373
0.017518
0.0174137
0.0162971
0.0142826
0.0119959
0.00966357
0.00727021
0.00481911
0.00234006
-0.000153888
-0.00265837
-0.0051642
-0.00766072
-0.0101446
-0.0126118
-0.0150876
-0.0175553
-0.0199321
-0.0221817
-0.0243805
-0.0266835
-0.0290582
-0.0313894
-0.0335849
-0.035642
-0.0376153
-0.0394797
-0.0412044
-0.0427498
-0.0441113
-0.045259
-0.0460577
-0.0464051
-0.0462674
-0.0455664
-0.0441734
-0.0419428
-0.0386885
-0.0341753
-0.0281011
-0.020093
-0.00967117
0.00377176
0.0209642
0.0426569
0.0700901
0.0022982
0.012201
0.0170562
0.0174123
0.017343
0.017476
0.0165584
0.0147228
0.0125846
0.010362
0.00805429
0.00568894
0.00330615
0.000925564
-0.00144251
-0.00378787
-0.0061003
-0.00837242
-0.010592
-0.0127473
-0.0148321
-0.0168034
-0.0186472
-0.02048
-0.0223562
-0.0241095
-0.0256024
-0.0268938
-0.0280583
-0.0289472
-0.0294773
-0.0298295
-0.0299541
-0.0296125
-0.0287567
-0.0273759
-0.0253731
-0.0226513
-0.0191272
-0.0146867
-0.0091992
-0.00251322
0.00554404
0.0151806
0.0266267
0.0401729
0.0561326
0.0749862
0.0971758
0.123654
0.00248648
0.0113594
0.0158544
0.0164973
0.0169346
0.0172006
0.0164619
0.0149013
0.0129857
0.010902
0.00869073
0.0064101
0.00411351
0.00182804
-0.000430984
-0.00264997
-0.00481639
-0.00691878
-0.0089455
-0.0108859
-0.012726
-0.014442
-0.0160108
-0.0174468
-0.0187479
-0.0198522
-0.0207365
-0.0214029
-0.0218276
-0.0219267
-0.0216519
-0.0210404
-0.0199955
-0.0183555
-0.016088
-0.0131624
-0.00948706
-0.00498154
0.000437352
0.00686561
0.0143956
0.023126
0.0331658
0.0446431
0.0577027
0.0725657
0.0895036
0.109058
0.131736
0.15777
0.00350061
0.010755
0.0146407
0.0158165
0.0166977
0.0168587
0.0160826
0.014683
0.0129422
0.0109833
0.0088854
0.00671574
0.00452227
0.00233333
0.000167999
-0.0019551
-0.00401913
-0.00600903
-0.00791007
-0.00970695
-0.0113829
-0.0129155
-0.0142821
-0.0154805
-0.0165058
-0.0173191
-0.0178563
-0.0181107
-0.0181142
-0.0177716
-0.0169842
-0.0157788
-0.0140769
-0.0117236
-0.00868584
-0.00492664
-0.000359614
0.00507514
0.0114414
0.0188087
0.0272238
0.0367165
0.0473667
0.0592864
0.0726549
0.0879776
0.106351
0.130042
0.161892
0.200944
0.00349558
0.00848464
0.0115937
0.0136922
0.0150454
0.0154134
0.0149713
0.013929
0.0124528
0.010684
0.00873023
0.00666717
0.00454916
0.00241758
0.000302851
-0.0017737
-0.00379388
-0.00574098
-0.007599
-0.00935179
-0.0109822
-0.0124715
-0.013802
-0.0149609
-0.0159295
-0.016674
-0.0171522
-0.017355
-0.0172689
-0.0168317
-0.0159937
-0.0147119
-0.0129103
-0.0105175
-0.00748744
-0.00377269
0.000678014
0.00591246
0.0119737
0.018895
0.0266946
0.0353651
0.0448091
0.0548662
0.0653269
0.0759659
0.0862724
0.0927772
0.0870316
0.0856291
0.00336342
0.00811612
0.011004
0.0127824
0.0139157
0.0139203
0.0130001
0.0114559
0.00948299
0.00721048
0.00470428
0.00200759
-0.000816708
-0.00371133
-0.00666984
-0.00974812
-0.0129884
-0.0164064
-0.0199486
-0.023575
-0.0272717
-0.0310934
-0.0351069
-0.0393367
-0.0437918
-0.0484931
-0.053473
-0.0587889
-0.0645284
-0.0707793
-0.0775901
-0.085005
-0.0931171
-0.102045
-0.111915
-0.122881
-0.135148
-0.148972
-0.164664
-0.182611
-0.203316
-0.227437
-0.255869
-0.289853
-0.33122
-0.38275
-0.448894
-0.537363
-0.6634
-0.852029
0.00294523
0.0103242
0.0140713
0.0147782
0.0152068
0.015136
0.0140535
0.0123141
0.0101852
0.0077676
0.00513127
0.00234374
-0.000570253
-0.00351015
-0.00645352
-0.00950525
-0.0127571
-0.0160998
-0.0194509
-0.0230077
-0.0267278
-0.0305393
-0.0344933
-0.0386523
-0.0430175
-0.0476
-0.0524381
-0.057587
-0.0631143
-0.0691268
-0.0757014
-0.0828296
-0.0905734
-0.0990766
-0.10845
-0.118808
-0.130317
-0.143187
-0.157667
-0.174039
-0.192654
-0.213936
-0.238411
-0.266697
-0.299596
-0.337907
-0.383002
-0.436298
-0.499433
-0.571791
0.00150788
0.010863
0.0152176
0.015379
0.0153868
0.0155569
0.014635
0.012753
0.0104658
0.00804151
0.00545753
0.00269708
-0.000188093
-0.00308525
-0.00593893
-0.00884792
-0.0118957
-0.0151178
-0.0185079
-0.0219089
-0.0252621
-0.0288435
-0.0325868
-0.0364832
-0.040563
-0.0448632
-0.0493232
-0.054011
-0.0589983
-0.0643193
-0.0700253
-0.0761974
-0.0829514
-0.090327
-0.0983255
-0.106983
-0.116414
-0.12675
-0.138107
-0.15061
-0.164389
-0.179558
-0.196222
-0.214415
-0.234113
-0.255049
-0.276755
-0.298129
-0.317671
-0.333024
0.00131204
0.0118877
0.0166546
0.016325
0.0157114
0.0158084
0.0150031
0.0131491
0.0108646
0.00843894
0.00588269
0.00320656
0.000536067
-0.00219365
-0.00501642
-0.00786884
-0.0107695
-0.0136167
-0.0166194
-0.0196918
-0.0230586
-0.026497
-0.0296827
-0.0330428
-0.0365902
-0.0402931
-0.0441623
-0.0481639
-0.0522973
-0.0565193
-0.0609701
-0.0658473
-0.0711172
-0.0766239
-0.0823884
-0.0884688
-0.0948622
-0.101604
-0.108701
-0.116138
-0.123862
-0.131772
-0.13971
-0.147422
-0.154537
-0.160539
-0.164727
-0.166118
-0.163209
-0.152321
0.00117251
0.0123974
0.0175239
0.0170253
0.0160494
0.0161297
0.0154259
0.013583
0.0113058
0.00894789
0.00650133
0.00395935
0.00136707
-0.00126945
-0.00392435
-0.00660644
-0.00930645
-0.0120103
-0.014741
-0.0173273
-0.0199301
-0.0227868
-0.0257704
-0.0287984
-0.0320186
-0.0351824
-0.0381046
-0.041095
-0.0440988
-0.0470572
-0.0501598
-0.0535294
-0.0568938
-0.0601953
-0.0635883
-0.0669894
-0.0702712
-0.0734121
-0.0763695
-0.0790493
-0.0813218
-0.0830067
-0.0838616
-0.0835485
-0.0816237
-0.077496
-0.0703655
-0.0591196
-0.0424576
-0.0182997
0.00116035
0.0124673
0.0176843
0.01726
0.0162867
0.0164007
0.0157604
0.0139819
0.0117941
0.00954242
0.00720634
0.004785
0.00232289
-0.000159847
-0.00265693
-0.0051578
-0.00765046
-0.0101336
-0.0126015
-0.0150804
-0.0175648
-0.0199421
-0.0222062
-0.0244174
-0.0266833
-0.0289962
-0.0313056
-0.0335694
-0.0356998
-0.0375985
-0.03937
-0.0411838
-0.0427682
-0.0440348
-0.0451779
-0.046007
-0.0463304
-0.0461715
-0.0454681
-0.0440721
-0.0418344
-0.0385727
-0.0340537
-0.0279763
-0.0199694
-0.00954939
0.00388192
0.021187
0.0430854
0.0709839
0.00152183
0.0122218
0.017052
0.0167843
0.0163056
0.01672
0.0161924
0.0144891
0.0124083
0.0102565
0.00800159
0.00566382
0.00329649
0.000925489
-0.00143682
-0.00377862
-0.00608855
-0.00835815
-0.0105733
-0.0127175
-0.0147813
-0.0167449
-0.0186312
-0.020525
-0.0223749
-0.024059
-0.0255546
-0.0268632
-0.0279875
-0.0288264
-0.0293676
-0.0297779
-0.0298604
-0.0294203
-0.0285761
-0.0272101
-0.0251607
-0.0224047
-0.018858
-0.0143898
-0.00887179
-0.00215667
0.00592477
0.0155776
0.0270276
0.0405686
0.0565089
0.0753531
0.0975688
0.124196
0.00183015
0.0113572
0.015805
0.0160553
0.0162112
0.0167416
0.0162682
0.0147868
0.0129003
0.0108574
0.00867668
0.0064107
0.00412168
0.00184099
-0.000415099
-0.00263207
-0.00479648
-0.00689618
-0.0089192
-0.0108559
-0.0126947
-0.0144117
-0.0159845
-0.0174176
-0.0186962
-0.0197792
-0.020652
-0.0213119
-0.0217279
-0.0218129
-0.0215042
-0.0208718
-0.0198308
-0.0181545
-0.0158343
-0.0128908
-0.0091965
-0.00464603
0.000819891
0.00729392
0.0148699
0.0236427
0.0337137
0.0452056
0.058268
0.0731383
0.0900752
0.109615
0.132237
0.158139
0.00318315
0.0107823
0.0146779
0.0156262
0.0164149
0.0167425
0.0160647
0.0146911
0.0129601
0.0110099
0.00891475
0.00674347
0.00454697
0.00235548
0.000188813
-0.00193481
-0.00399869
-0.00598774
-0.00788732
-0.00968219
-0.0113551
-0.0128824
-0.0142423
-0.0154336
-0.0164492
-0.0172489
-0.0177755
-0.0180195
-0.0180151
-0.0176742
-0.0168705
-0.0156253
-0.0139044
-0.011538
-0.00845576
-0.00465714
-5.90598e-05
0.00542055
0.0118379
0.0192595
0.0277379
0.0373156
0.0480474
0.0599915
0.0733093
0.088554
0.106865
0.130613
0.162974
0.204301
0.00346663
0.00847665
0.0116048
0.0136396
0.0150517
0.0154661
0.0150447
0.0140064
0.0125235
0.0107444
0.00878011
0.00670798
0.00458335
0.00244704
0.000328833
-0.0017498
-0.0037708
-0.00571765
-0.00757446
-0.00932513
-0.0109524
-0.0124373
-0.0137621
-0.0149145
-0.015876
-0.0166074
-0.0170727
-0.0172648
-0.0171695
-0.0167287
-0.0158781
-0.0145798
-0.0127686
-0.0103575
-0.00730208
-0.00356628
0.00090499
0.00616269
0.0122483
0.0191928
0.0270095
0.035681
0.0451415
0.0552895
0.0659451
0.0768595
0.0875854
0.0954216
0.0937143
0.097863
0.00336419
0.00811707
0.0110053
0.0127836
0.0139166
0.0139214
0.0130008
0.0114558
0.00948218
0.00720962
0.00470354
0.00200685
-0.000817521
-0.00371258
-0.00667112
-0.00974913
-0.0129891
-0.0164067
-0.0199487
-0.0235749
-0.0272717
-0.0310933
-0.0351069
-0.0393366
-0.0437918
-0.0484931
-0.053473
-0.0587889
-0.0645284
-0.0707793
-0.0775901
-0.085005
-0.0931171
-0.102045
-0.111915
-0.122881
-0.135148
-0.148972
-0.164664
-0.182611
-0.203316
-0.227437
-0.255869
-0.289853
-0.33122
-0.38275
-0.448894
-0.537363
-0.6634
-0.852029
0.00294551
0.0103247
0.014072
0.0147785
0.0152071
0.0151368
0.0140547
0.0123146
0.0101848
0.00776695
0.00513062
0.00234327
-0.000570865
-0.00351136
-0.00645559
-0.00950628
-0.012758
-0.0161001
-0.0194509
-0.0230076
-0.0267277
-0.0305392
-0.0344932
-0.0386523
-0.0430175
-0.0475999
-0.052438
-0.0575869
-0.0631143
-0.0691268
-0.0757014
-0.0828296
-0.0905734
-0.0990765
-0.10845
-0.118808
-0.130317
-0.143186
-0.157666
-0.174039
-0.192654
-0.213936
-0.238411
-0.266697
-0.299596
-0.337907
-0.383002
-0.436298
-0.499433
-0.571791
0.00150786
0.0108632
0.015218
0.0153795
0.0153875
0.0155579
0.0146359
0.0127533
0.0104656
0.00804093
0.00545729
0.00269799
-0.000188085
-0.00308704
-0.00594058
-0.00884852
-0.0118966
-0.0151188
-0.0185083
-0.0219088
-0.025262
-0.0288434
-0.0325867
-0.0364832
-0.0405629
-0.0448632
-0.0493232
-0.054011
-0.0589983
-0.0643193
-0.0700253
-0.0761974
-0.0829514
-0.090327
-0.0983254
-0.106983
-0.116414
-0.12675
-0.138107
-0.15061
-0.164389
-0.179558
-0.196222
-0.214415
-0.234112
-0.255049
-0.276755
-0.298129
-0.317671
-0.333024
0.0013118
0.0118879
0.0166549
0.0163251
0.0157111
0.0158082
0.0150031
0.013149
0.0108645
0.00843891
0.00588277
0.00320642
0.00053572
-0.00219439
-0.00501673
-0.00786932
-0.0107695
-0.0136168
-0.0166193
-0.0196917
-0.0230586
-0.0264971
-0.0296827
-0.0330428
-0.0365902
-0.0402931
-0.0441623
-0.0481638
-0.0522972
-0.0565193
-0.06097
-0.0658472
-0.0711171
-0.0766237
-0.0823883
-0.0884686
-0.094862
-0.101603
-0.108701
-0.116137
-0.123861
-0.131771
-0.139709
-0.147421
-0.154537
-0.160538
-0.164726
-0.166117
-0.163209
-0.152321
0.00116954
0.0123961
0.0175243
0.017025
0.0160474
0.0161278
0.0154249
0.0135827
0.0113059
0.00894817
0.00650172
0.00395967
0.00136736
-0.00126929
-0.00392428
-0.00660646
-0.00930644
-0.0120103
-0.014741
-0.0173274
-0.0199301
-0.0227867
-0.0257703
-0.0287984
-0.0320185
-0.0351824
-0.0381047
-0.041095
-0.0440987
-0.0470572
-0.0501597
-0.0535293
-0.0568936
-0.0601951
-0.0635881
-0.0669891
-0.0702708
-0.0734117
-0.0763689
-0.0790486
-0.0813209
-0.0830057
-0.0838604
-0.083547
-0.081622
-0.0774942
-0.0703637
-0.0591181
-0.0424567
-0.0183
0.00115457
0.0124649
0.0176855
0.0172598
0.0162825
0.0163961
0.015757
0.0139805
0.0117943
0.00954325
0.00720732
0.0047859