/*--------------------------------*- C++ -*----------------------------------*\
  =========                 |
  \\      /  F ield         | OpenFOAM: The Open Source CFD Toolbox
   \\    /   O peration     | Website:  https://openfoam.org
    \\  /    A nd           | Version:  6
     \\/     M anipulation  |
\*---------------------------------------------------------------------------*/
FoamFile
{
    version     2.0;
    format      ascii;
    class       volScalarField;
    location    "./ITHACAoutput/Offline/1";
    object      P_rec;
}
// * * * * * * * * * * * * * * * * * * * * * * * * * * * * * * * * * * * * * //

dimensions      [0 2 -2 0 0 0 0];

internalField   nonuniform List<scalar> 
40000
(
0.0163497
0.01635
0.0163496
0.0163483
0.0163459
0.0163427
0.0163387
0.016334
0.0163288
0.0163233
0.0163174
0.0163114
0.0163052
0.0162989
0.0162927
0.0162864
0.0162802
0.0162741
0.016268
0.0162621
0.0162563
0.0162506
0.016245
0.0162395
0.0162341
0.0162288
0.0162236
0.0162185
0.0162135
0.0162085
0.0162035
0.0161987
0.0161939
0.0161891
0.0161844
0.0161797
0.016175
0.0161704
0.0161659
0.0161614
0.016157
0.0161526
0.0161483
0.0161441
0.01614
0.0161361
0.0161322
0.0161285
0.0161249
0.0161215
0.0161183
0.0161152
0.0161124
0.0161099
0.0161075
0.0161054
0.0161036
0.016102
0.0161008
0.0160998
0.0160992
0.0160989
0.016099
0.0160994
0.0161002
0.0161013
0.0161029
0.0161048
0.0161071
0.0161098
0.0161128
0.0161163
0.0161201
0.0161243
0.0161289
0.0161339
0.0161393
0.016145
0.016151
0.0161574
0.016164
0.016171
0.0161782
0.0161857
0.0161935
0.0162014
0.0162095
0.0162177
0.016226
0.0162345
0.0162429
0.0162514
0.0162597
0.016268
0.0162762
0.0162842
0.0162919
0.0162993
0.0163064
0.0163131
0.0163194
0.0163251
0.0163302
0.0163347
0.0163385
0.0163416
0.0163438
0.0163452
0.0163456
0.0163451
0.0163434
0.0163407
0.0163369
0.0163318
0.0163255
0.0163178
0.0163089
0.0162985
0.0162867
0.0162735
0.0162589
0.0162427
0.0162251
0.016206
0.0161853
0.0161632
0.0161396
0.0161146
0.016088
0.0160601
0.0160308
0.0160001
0.0159681
0.0159349
0.0159005
0.015865
0.0158283
0.0157907
0.0157522
0.0157128
0.0156727
0.0156318
0.0155904
0.0155484
0.015506
0.0154633
0.0154203
0.0153772
0.015334
0.0152908
0.0152477
0.0152048
0.0151622
0.0151199
0.0150781
0.0150367
0.0149959
0.0149558
0.0149164
0.0148778
0.01484
0.014803
0.0147671
0.0147321
0.0146982
0.0146653
0.0146335
0.0146029
0.0145735
0.0145453
0.0145183
0.0144926
0.0144682
0.014445
0.0144233
0.0144028
0.0143837
0.014366
0.0143497
0.0143347
0.0143212
0.0143091
0.0142985
0.0142892
0.0142814
0.0142751
0.0142701
0.0142665
0.0142643
0.0142634
0.0142638
0.0142654
0.014268
0.0142715
0.0142757
0.0142802
0.0142848
0.0142889
0.0142918
0.0142931
0.0163495
0.0163497
0.0163494
0.0163481
0.0163459
0.0163429
0.0163392
0.0163348
0.01633
0.0163247
0.0163192
0.0163135
0.0163076
0.0163016
0.0162956
0.0162896
0.0162836
0.0162776
0.0162718
0.016266
0.0162603
0.0162547
0.0162491
0.0162437
0.0162384
0.0162331
0.0162279
0.0162228
0.0162178
0.0162128
0.0162079
0.016203
0.0161981
0.0161933
0.0161886
0.0161839
0.0161792
0.0161746
0.0161701
0.0161656
0.0161611
0.0161568
0.0161525
0.0161483
0.0161442
0.0161402
0.0161363
0.0161326
0.016129
0.0161256
0.0161224
0.0161194
0.0161166
0.016114
0.0161116
0.0161095
0.0161077
0.0161061
0.0161049
0.0161039
0.0161033
0.016103
0.016103
0.0161034
0.0161042
0.0161053
0.0161067
0.0161086
0.0161108
0.0161134
0.0161164
0.0161198
0.0161235
0.0161276
0.0161321
0.016137
0.0161422
0.0161477
0.0161536
0.0161598
0.0161663
0.016173
0.0161801
0.0161873
0.0161948
0.0162025
0.0162103
0.0162182
0.0162263
0.0162344
0.0162425
0.0162506
0.0162586
0.0162666
0.0162744
0.016282
0.0162893
0.0162964
0.0163031
0.0163093
0.0163152
0.0163204
0.0163252
0.0163292
0.0163326
0.0163353
0.0163371
0.0163381
0.0163381
0.0163371
0.0163351
0.016332
0.0163278
0.0163223
0.0163156
0.0163077
0.0162984
0.0162878
0.0162758
0.0162624
0.0162475
0.0162312
0.0162135
0.0161942
0.0161735
0.0161514
0.0161277
0.0161027
0.0160762
0.0160484
0.0160191
0.0159886
0.0159568
0.0159238
0.0158896
0.0158544
0.0158181
0.0157808
0.0157426
0.0157036
0.0156639
0.0156234
0.0155824
0.015541
0.015499
0.0154568
0.0154144
0.0153717
0.0153291
0.0152864
0.0152439
0.0152015
0.0151594
0.0151177
0.0150764
0.0150356
0.0149953
0.0149557
0.0149168
0.0148787
0.0148414
0.014805
0.0147694
0.0147349
0.0147014
0.014669
0.0146376
0.0146074
0.0145783
0.0145504
0.0145238
0.0144984
0.0144742
0.0144514
0.0144298
0.0144096
0.0143907
0.0143731
0.014357
0.0143421
0.0143287
0.0143166
0.014306
0.0142967
0.0142888
0.0142823
0.0142772
0.0142734
0.0142709
0.0142696
0.0142696
0.0142707
0.0142728
0.0142756
0.0142792
0.0142831
0.014287
0.0142905
0.0142931
0.0142945
0.0163498
0.01635
0.0163497
0.0163485
0.0163464
0.0163436
0.0163402
0.0163362
0.0163317
0.0163268
0.0163217
0.0163163
0.0163108
0.0163051
0.0162994
0.0162936
0.0162879
0.0162822
0.0162765
0.0162709
0.0162653
0.0162598
0.0162544
0.0162491
0.0162438
0.0162386
0.0162334
0.0162283
0.0162233
0.0162183
0.0162134
0.0162085
0.0162037
0.0161988
0.0161941
0.0161894
0.0161847
0.01618
0.0161754
0.0161709
0.0161665
0.0161621
0.0161578
0.0161535
0.0161494
0.0161454
0.0161415
0.0161378
0.0161342
0.0161308
0.0161276
0.0161246
0.0161217
0.0161192
0.0161168
0.0161147
0.0161128
0.0161113
0.01611
0.016109
0.0161083
0.016108
0.016108
0.0161083
0.016109
0.0161101
0.0161115
0.0161133
0.0161154
0.0161179
0.0161208
0.0161241
0.0161277
0.0161316
0.016136
0.0161407
0.0161457
0.0161511
0.0161567
0.0161627
0.016169
0.0161755
0.0161822
0.0161892
0.0161964
0.0162038
0.0162113
0.0162189
0.0162266
0.0162343
0.016242
0.0162497
0.0162574
0.0162649
0.0162722
0.0162793
0.0162862
0.0162928
0.016299
0.0163047
0.0163101
0.0163149
0.0163191
0.0163226
0.0163255
0.0163276
0.0163289
0.0163294
0.0163289
0.0163275
0.016325
0.0163214
0.0163167
0.0163109
0.0163038
0.0162955
0.0162858
0.0162749
0.0162626
0.0162489
0.0162338
0.0162173
0.0161993
0.0161799
0.0161591
0.0161369
0.0161133
0.0160882
0.0160618
0.016034
0.0160049
0.0159746
0.015943
0.0159102
0.0158763
0.0158414
0.0158054
0.0157685
0.0157307
0.0156922
0.0156529
0.015613
0.0155725
0.0155316
0.0154903
0.0154486
0.0154067
0.0153648
0.0153227
0.0152807
0.0152388
0.0151971
0.0151556
0.0151146
0.0150739
0.0150337
0.0149941
0.0149552
0.0149169
0.0148794
0.0148427
0.0148068
0.0147719
0.0147379
0.0147049
0.014673
0.0146421
0.0146124
0.0145838
0.0145563
0.0145301
0.0145051
0.0144813
0.0144588
0.0144375
0.0144175
0.0143989
0.0143815
0.0143655
0.0143508
0.0143375
0.0143255
0.0143148
0.0143055
0.0142975
0.0142908
0.0142855
0.0142814
0.0142786
0.0142769
0.0142764
0.0142769
0.0142784
0.0142806
0.0142834
0.0142867
0.01429
0.0142931
0.0142957
0.0142974
0.0163511
0.0163513
0.0163509
0.0163497
0.0163477
0.016345
0.0163417
0.016338
0.0163337
0.0163292
0.0163243
0.0163192
0.0163139
0.0163085
0.0163031
0.0162976
0.016292
0.0162865
0.016281
0.0162755
0.0162701
0.0162647
0.0162594
0.0162541
0.0162489
0.0162438
0.0162387
0.0162336
0.0162286
0.0162236
0.0162187
0.0162138
0.0162089
0.0162041
0.0161993
0.0161945
0.0161898
0.0161851
0.0161805
0.016176
0.0161715
0.0161671
0.0161627
0.0161585
0.0161543
0.0161503
0.0161464
0.0161427
0.0161391
0.0161356
0.0161324
0.0161293
0.0161265
0.0161238
0.0161214
0.0161193
0.0161174
0.0161158
0.0161145
0.0161135
0.0161128
0.0161124
0.0161124
0.0161127
0.0161133
0.0161143
0.0161156
0.0161174
0.0161194
0.0161218
0.0161246
0.0161278
0.0161313
0.0161351
0.0161394
0.0161439
0.0161488
0.0161539
0.0161595
0.0161652
0.0161713
0.0161776
0.0161841
0.0161909
0.0161978
0.0162049
0.0162121
0.0162194
0.0162268
0.0162342
0.0162416
0.016249
0.0162562
0.0162634
0.0162703
0.0162771
0.0162836
0.0162897
0.0162955
0.0163009
0.0163057
0.0163101
0.0163139
0.016317
0.0163195
0.0163212
0.0163221
0.0163221
0.0163212
0.0163193
0.0163164
0.0163125
0.0163074
0.0163012
0.0162938
0.0162851
0.0162752
0.016264
0.0162514
0.0162374
0.0162221
0.0162054
0.0161873
0.0161678
0.0161469
0.0161246
0.0161009
0.0160758
0.0160494
0.0160217
0.0159927
0.0159624
0.015931
0.0158984
0.0158647
0.01583
0.0157943
0.0157577
0.0157202
0.015682
0.0156431
0.0156036
0.0155635
0.015523
0.0154821
0.0154409
0.0153996
0.0153581
0.0153165
0.015275
0.0152337
0.0151925
0.0151516
0.0151111
0.015071
0.0150313
0.0149923
0.0149539
0.0149161
0.0148791
0.0148429
0.0148076
0.0147732
0.0147397
0.0147072
0.0146757
0.0146452
0.0146159
0.0145877
0.0145607
0.0145348
0.0145101
0.0144866
0.0144644
0.0144434
0.0144237
0.0144052
0.0143881
0.0143722
0.0143577
0.0143444
0.0143324
0.0143218
0.0143124
0.0143044
0.0142976
0.014292
0.0142877
0.0142846
0.0142827
0.0142818
0.0142819
0.0142829
0.0142847
0.0142871
0.01429
0.0142931
0.0142963
0.0142993
0.0143015
0.0163535
0.0163535
0.016353
0.0163517
0.0163496
0.016347
0.0163438
0.0163402
0.0163361
0.0163318
0.0163271
0.0163222
0.0163172
0.016312
0.0163068
0.0163015
0.0162961
0.0162908
0.0162854
0.0162801
0.0162748
0.0162695
0.0162643
0.0162591
0.016254
0.0162489
0.0162438
0.0162387
0.0162337
0.0162288
0.0162238
0.0162189
0.016214
0.0162092
0.0162044
0.0161996
0.0161949
0.0161902
0.0161855
0.0161809
0.0161764
0.0161719
0.0161676
0.0161633
0.0161591
0.016155
0.0161511
0.0161473
0.0161437
0.0161402
0.0161369
0.0161338
0.0161309
0.0161283
0.0161258
0.0161237
0.0161217
0.0161201
0.0161188
0.0161177
0.016117
0.0161165
0.0161164
0.0161167
0.0161172
0.0161182
0.0161194
0.0161211
0.016123
0.0161254
0.0161281
0.0161311
0.0161345
0.0161383
0.0161423
0.0161468
0.0161515
0.0161565
0.0161619
0.0161675
0.0161733
0.0161794
0.0161858
0.0161923
0.016199
0.0162059
0.0162128
0.0162199
0.016227
0.0162341
0.0162413
0.0162483
0.0162553
0.0162621
0.0162687
0.0162751
0.0162812
0.016287
0.0162925
0.0162975
0.016302
0.016306
0.0163094
0.0163121
0.0163142
0.0163155
0.016316
0.0163157
0.0163145
0.0163122
0.016309
0.0163047
0.0162993
0.0162928
0.0162851
0.0162761
0.0162659
0.0162544
0.0162416
0.0162274
0.0162119
0.016195
0.0161768
0.0161571
0.0161361
0.0161137
0.0160899
0.0160648
0.0160384
0.0160107
0.0159817
0.0159515
0.0159202
0.0158877
0.0158542
0.0158196
0.0157841
0.0157477
0.0157105
0.0156726
0.0156339
0.0155947
0.015555
0.0155148
0.0154743
0.0154335
0.0153925
0.0153515
0.0153104
0.0152693
0.0152284
0.0151877
0.0151472
0.0151071
0.0150675
0.0150284
0.0149898
0.0149518
0.0149146
0.014878
0.0148423
0.0148074
0.0147734
0.0147404
0.0147083
0.0146772
0.0146472
0.0146183
0.0145904
0.0145637
0.0145382
0.0145138
0.0144906
0.0144687
0.014448
0.0144285
0.0144102
0.0143932
0.0143775
0.0143631
0.0143499
0.014338
0.0143273
0.014318
0.0143098
0.0143029
0.0142973
0.0142928
0.0142895
0.0142872
0.0142861
0.0142859
0.0142866
0.0142881
0.0142903
0.0142931
0.0142962
0.0142996
0.0143032
0.0143061
0.0163569
0.0163566
0.0163558
0.0163543
0.0163522
0.0163495
0.0163464
0.0163428
0.0163389
0.0163346
0.0163301
0.0163255
0.0163206
0.0163156
0.0163105
0.0163054
0.0163002
0.016295
0.0162898
0.0162846
0.0162794
0.0162743
0.0162691
0.016264
0.016259
0.0162539
0.0162489
0.0162438
0.0162389
0.0162339
0.016229
0.016224
0.0162191
0.0162143
0.0162094
0.0162046
0.0161999
0.0161951
0.0161904
0.0161858
0.0161812
0.0161767
0.0161723
0.016168
0.0161637
0.0161596
0.0161557
0.0161518
0.0161481
0.0161446
0.0161413
0.0161381
0.0161352
0.0161325
0.01613
0.0161278
0.0161258
0.0161241
0.0161227
0.0161216
0.0161208
0.0161203
0.0161202
0.0161204
0.0161209
0.0161217
0.0161229
0.0161245
0.0161264
0.0161286
0.0161312
0.0161342
0.0161375
0.0161411
0.0161451
0.0161494
0.016154
0.0161589
0.0161641
0.0161695
0.0161752
0.0161812
0.0161873
0.0161936
0.0162001
0.0162068
0.0162135
0.0162204
0.0162272
0.0162341
0.016241
0.0162477
0.0162544
0.016261
0.0162673
0.0162734
0.0162792
0.0162847
0.0162899
0.0162945
0.0162987
0.0163024
0.0163055
0.0163079
0.0163096
0.0163106
0.0163108
0.0163101
0.0163086
0.016306
0.0163025
0.0162979
0.0162923
0.0162854
0.0162774
0.0162682
0.0162578
0.016246
0.016233
0.0162186
0.0162029
0.0161859
0.0161674
0.0161477
0.0161265
0.016104
0.0160802
0.016055
0.0160286
0.0160008
0.0159719
0.0159417
0.0159104
0.015878
0.0158445
0.0158101
0.0157747
0.0157385
0.0157015
0.0156637
0.0156253
0.0155863
0.0155468
0.0155069
0.0154667
0.0154262
0.0153856
0.0153448
0.0153041
0.0152634
0.0152228
0.0151825
0.0151424
0.0151028
0.0150635
0.0150248
0.0149866
0.0149491
0.0149122
0.0148761
0.0148408
0.0148063
0.0147727
0.0147401
0.0147084
0.0146777
0.014648
0.0146195
0.014592
0.0145656
0.0145404
0.0145163
0.0144934
0.0144717
0.0144512
0.0144319
0.0144139
0.0143971
0.0143815
0.0143672
0.0143541
0.0143422
0.0143316
0.0143222
0.014314
0.014307
0.0143013
0.0142966
0.0142932
0.0142907
0.0142894
0.014289
0.0142895
0.0142909
0.014293
0.0142957
0.014299
0.0143028
0.0143071
0.0143107
0.016361
0.0163604
0.0163593
0.0163576
0.0163553
0.0163526
0.0163494
0.0163458
0.0163419
0.0163378
0.0163334
0.0163288
0.0163241
0.0163193
0.0163144
0.0163094
0.0163043
0.0162993
0.0162942
0.0162891
0.0162841
0.016279
0.0162739
0.0162689
0.0162639
0.0162589
0.0162539
0.0162489
0.0162439
0.016239
0.016234
0.0162291
0.0162242
0.0162193
0.0162144
0.0162096
0.0162048
0.0162
0.0161953
0.0161906
0.0161859
0.0161814
0.0161769
0.0161725
0.0161682
0.0161641
0.01616
0.0161561
0.0161524
0.0161488
0.0161454
0.0161422
0.0161392
0.0161365
0.0161339
0.0161316
0.0161296
0.0161279
0.0161264
0.0161253
0.0161244
0.0161238
0.0161236
0.0161237
0.0161242
0.016125
0.0161261
0.0161276
0.0161294
0.0161316
0.0161341
0.0161369
0.0161402
0.0161437
0.0161476
0.0161517
0.0161562
0.016161
0.016166
0.0161713
0.0161769
0.0161827
0.0161887
0.0161948
0.0162012
0.0162076
0.0162142
0.0162208
0.0162275
0.0162342
0.0162408
0.0162473
0.0162538
0.0162601
0.0162662
0.016272
0.0162775
0.0162828
0.0162876
0.016292
0.016296
0.0162993
0.0163021
0.0163043
0.0163058
0.0163065
0.0163064
0.0163054
0.0163036
0.0163008
0.016297
0.0162921
0.0162862
0.0162791
0.0162709
0.0162615
0.0162508
0.0162388
0.0162256
0.016211
0.0161952
0.0161779
0.0161594
0.0161394
0.0161182
0.0160955
0.0160716
0.0160464
0.0160198
0.0159921
0.0159631
0.0159329
0.0159016
0.0158692
0.0158358
0.0158014
0.0157661
0.01573
0.015693
0.0156554
0.0156171
0.0155783
0.015539
0.0154993
0.0154593
0.0154191
0.0153787
0.0153382
0.0152977
0.0152573
0.015217
0.015177
0.0151372
0.0150979
0.015059
0.0150206
0.0149828
0.0149456
0.0149091
0.0148733
0.0148384
0.0148043
0.014771
0.0147387
0.0147074
0.014677
0.0146477
0.0146195
0.0145923
0.0145662
0.0145413
0.0145175
0.0144949
0.0144734
0.0144532
0.0144341
0.0144163
0.0143996
0.0143841
0.0143699
0.0143569
0.0143451
0.0143345
0.0143251
0.0143169
0.0143099
0.014304
0.0142993
0.0142957
0.0142932
0.0142917
0.0142912
0.0142916
0.0142929
0.014295
0.0142979
0.0143014
0.0143056
0.0143107
0.0143149
0.0163659
0.016365
0.0163635
0.0163614
0.016359
0.016356
0.0163528
0.0163492
0.0163453
0.0163412
0.0163369
0.0163324
0.0163278
0.016323
0.0163182
0.0163134
0.0163085
0.0163035
0.0162986
0.0162936
0.0162886
0.0162836
0.0162787
0.0162737
0.0162687
0.0162637
0.0162588
0.0162538
0.0162489
0.0162439
0.016239
0.0162341
0.0162292
0.0162242
0.0162193
0.0162145
0.0162096
0.0162048
0.0162
0.0161952
0.0161906
0.0161859
0.0161814
0.0161769
0.0161726
0.0161684
0.0161643
0.0161603
0.0161565
0.0161528
0.0161493
0.0161461
0.016143
0.0161402
0.0161376
0.0161353
0.0161332
0.0161314
0.0161298
0.0161286
0.0161277
0.0161271
0.0161268
0.0161268
0.0161272
0.0161279
0.016129
0.0161304
0.0161321
0.0161342
0.0161367
0.0161395
0.0161426
0.016146
0.0161498
0.0161539
0.0161582
0.0161629
0.0161678
0.016173
0.0161785
0.0161841
0.01619
0.016196
0.0162021
0.0162085
0.0162148
0.0162213
0.0162278
0.0162343
0.0162407
0.0162471
0.0162533
0.0162594
0.0162652
0.0162709
0.0162762
0.0162812
0.0162858
0.01629
0.0162937
0.0162968
0.0162994
0.0163013
0.0163025
0.016303
0.0163027
0.0163015
0.0162994
0.0162964
0.0162924
0.0162873
0.0162812
0.0162739
0.0162655
0.0162558
0.0162449
0.0162328
0.0162194
0.0162046
0.0161885
0.0161712
0.0161525
0.0161324
0.016111
0.0160882
0.0160642
0.0160389
0.0160122
0.0159844
0.0159553
0.0159251
0.0158937
0.0158613
0.0158279
0.0157935
0.0157582
0.0157221
0.0156852
0.0156476
0.0156095
0.0155708
0.0155316
0.015492
0.0154521
0.015412
0.0153718
0.0153314
0.0152911
0.015251
0.0152109
0.0151711
0.0151317
0.0150926
0.0150539
0.0150158
0.0149783
0.0149414
0.0149052
0.0148697
0.0148351
0.0148013
0.0147684
0.0147363
0.0147053
0.0146753
0.0146463
0.0146183
0.0145914
0.0145657
0.014541
0.0145175
0.0144951
0.0144739
0.0144538
0.014435
0.0144173
0.0144008
0.0143855
0.0143714
0.0143584
0.0143467
0.0143361
0.0143268
0.0143186
0.0143115
0.0143056
0.0143008
0.0142971
0.0142945
0.0142929
0.0142923
0.0142927
0.0142941
0.0142963
0.0142993
0.0143031
0.0143078
0.0143136
0.0143185
0.0163714
0.01637
0.0163681
0.0163657
0.016363
0.0163599
0.0163565
0.0163528
0.0163489
0.0163448
0.0163405
0.016336
0.0163315
0.0163268
0.0163222
0.0163174
0.0163126
0.0163077
0.0163029
0.016298
0.0162931
0.0162882
0.0162833
0.0162784
0.0162735
0.0162686
0.0162637
0.0162587
0.0162538
0.0162489
0.0162439
0.016239
0.016234
0.0162291
0.0162241
0.0162192
0.0162143
0.0162094
0.0162046
0.0161998
0.016195
0.0161903
0.0161857
0.0161812
0.0161768
0.0161725
0.0161683
0.0161643
0.0161604
0.0161566
0.0161531
0.0161498
0.0161466
0.0161437
0.016141
0.0161386
0.0161365
0.0161346
0.016133
0.0161317
0.0161307
0.01613
0.0161297
0.0161296
0.01613
0.0161306
0.0161316
0.0161329
0.0161346
0.0161366
0.016139
0.0161417
0.0161448
0.0161481
0.0161518
0.0161558
0.0161601
0.0161646
0.0161694
0.0161745
0.0161799
0.0161854
0.0161911
0.016197
0.0162031
0.0162092
0.0162155
0.0162218
0.0162281
0.0162345
0.0162407
0.0162469
0.0162529
0.0162589
0.0162646
0.01627
0.0162752
0.01628
0.0162844
0.0162884
0.0162919
0.0162948
0.0162972
0.0162989
0.0162999
0.0163002
0.0162997
0.0162983
0.016296
0.0162928
0.0162886
0.0162834
0.016277
0.0162696
0.0162609
0.0162511
0.0162401
0.0162278
0.0162142
0.0161993
0.0161831
0.0161655
0.0161467
0.0161264
0.0161049
0.016082
0.0160578
0.0160324
0.0160057
0.0159777
0.0159485
0.0159182
0.0158868
0.0158543
0.0158208
0.0157863
0.015751
0.0157149
0.015678
0.0156404
0.0156022
0.0155635
0.0155244
0.0154848
0.015445
0.015405
0.0153649
0.0153247
0.0152845
0.0152444
0.0152046
0.0151649
0.0151256
0.0150867
0.0150483
0.0150104
0.0149731
0.0149364
0.0149005
0.0148653
0.0148309
0.0147973
0.0147647
0.014733
0.0147022
0.0146724
0.0146437
0.014616
0.0145894
0.0145639
0.0145395
0.0145162
0.014494
0.014473
0.0144532
0.0144345
0.014417
0.0144006
0.0143855
0.0143714
0.0143586
0.014347
0.0143365
0.0143271
0.0143189
0.0143119
0.0143059
0.0143011
0.0142974
0.0142947
0.0142931
0.0142925
0.0142929
0.0142943
0.0142966
0.0142999
0.014304
0.0143092
0.0143156
0.0143211
0.0163773
0.0163756
0.0163731
0.0163704
0.0163674
0.016364
0.0163605
0.0163566
0.0163527
0.0163485
0.0163442
0.0163398
0.0163353
0.0163307
0.0163261
0.0163214
0.0163167
0.0163119
0.0163072
0.0163024
0.0162976
0.0162928
0.0162879
0.0162831
0.0162782
0.0162733
0.0162684
0.0162635
0.0162586
0.0162537
0.0162487
0.0162438
0.0162388
0.0162338
0.0162288
0.0162239
0.0162189
0.016214
0.0162091
0.0162042
0.0161994
0.0161946
0.0161899
0.0161853
0.0161808
0.0161764
0.0161722
0.016168
0.016164
0.0161603
0.0161566
0.0161532
0.01615
0.016147
0.0161443
0.0161418
0.0161395
0.0161376
0.0161359
0.0161345
0.0161335
0.0161327
0.0161323
0.0161322
0.0161325
0.016133
0.016134
0.0161352
0.0161369
0.0161388
0.0161411
0.0161438
0.0161467
0.01615
0.0161536
0.0161575
0.0161617
0.0161662
0.0161709
0.0161759
0.0161812
0.0161866
0.0161922
0.016198
0.0162039
0.01621
0.0162161
0.0162223
0.0162285
0.0162347
0.0162408
0.0162469
0.0162528
0.0162585
0.0162641
0.0162694
0.0162744
0.0162791
0.0162833
0.0162872
0.0162905
0.0162933
0.0162955
0.016297
0.0162979
0.016298
0.0162973
0.0162958
0.0162934
0.01629
0.0162857
0.0162803
0.0162738
0.0162661
0.0162574
0.0162474
0.0162362
0.0162237
0.01621
0.016195
0.0161786
0.0161609
0.0161419
0.0161215
0.0160999
0.0160768
0.0160525
0.0160269
0.0160001
0.015972
0.0159427
0.0159122
0.0158807
0.0158481
0.0158145
0.0157799
0.0157445
0.0157083
0.0156713
0.0156336
0.0155954
0.0155566
0.0155175
0.0154779
0.0154381
0.0153981
0.015358
0.0153178
0.0152777
0.0152377
0.0151979
0.0151584
0.0151192
0.0150804
0.0150421
0.0150044
0.0149672
0.0149307
0.014895
0.01486
0.0148258
0.0147925
0.01476
0.0147286
0.014698
0.0146685
0.01464
0.0146125
0.0145862
0.0145609
0.0145367
0.0145136
0.0144917
0.0144709
0.0144512
0.0144327
0.0144154
0.0143992
0.0143841
0.0143702
0.0143575
0.0143459
0.0143355
0.0143262
0.014318
0.0143109
0.014305
0.0143002
0.0142964
0.0142937
0.0142921
0.0142915
0.014292
0.0142935
0.014296
0.0142995
0.014304
0.0143096
0.0143167
0.0143227
0.0163837
0.0163815
0.0163785
0.0163754
0.016372
0.0163684
0.0163647
0.0163607
0.0163566
0.0163524
0.0163481
0.0163436
0.0163392
0.0163346
0.0163301
0.0163254
0.0163208
0.0163161
0.0163114
0.0163067
0.016302
0.0162972
0.0162924
0.0162876
0.0162828
0.0162779
0.0162731
0.0162682
0.0162633
0.0162583
0.0162534
0.0162484
0.0162434
0.0162384
0.0162334
0.0162284
0.0162234
0.0162184
0.0162134
0.0162085
0.0162036
0.0161987
0.0161939
0.0161893
0.0161847
0.0161802
0.0161758
0.0161716
0.0161675
0.0161637
0.0161599
0.0161564
0.0161531
0.0161501
0.0161472
0.0161447
0.0161423
0.0161403
0.0161386
0.0161371
0.016136
0.0161352
0.0161347
0.0161346
0.0161347
0.0161352
0.0161361
0.0161373
0.0161389
0.0161408
0.016143
0.0161456
0.0161485
0.0161517
0.0161552
0.0161591
0.0161632
0.0161676
0.0161723
0.0161772
0.0161824
0.0161877
0.0161933
0.0161989
0.0162048
0.0162107
0.0162168
0.0162228
0.0162289
0.016235
0.016241
0.016247
0.0162528
0.0162584
0.0162638
0.016269
0.0162739
0.0162784
0.0162826
0.0162863
0.0162895
0.0162921
0.0162942
0.0162957
0.0162964
0.0162964
0.0162956
0.0162939
0.0162914
0.0162879
0.0162834
0.0162779
0.0162713
0.0162635
0.0162546
0.0162445
0.0162332
0.0162206
0.0162068
0.0161916
0.0161751
0.0161572
0.0161381
0.0161176
0.0160958
0.0160726
0.0160481
0.0160224
0.0159953
0.0159671
0.0159376
0.0159071
0.0158753
0.0158426
0.0158088
0.0157741
0.0157386
0.0157022
0.0156651
0.0156273
0.015589
0.0155501
0.0155108
0.0154712
0.0154313
0.0153912
0.015351
0.0153108
0.0152707
0.0152307
0.0151909
0.0151514
0.0151123
0.0150736
0.0150354
0.0149977
0.0149607
0.0149243
0.0148887
0.0148538
0.0148198
0.0147866
0.0147544
0.0147231
0.0146927
0.0146634
0.0146351
0.0146079
0.0145817
0.0145566
0.0145327
0.0145098
0.014488
0.0144674
0.014448
0.0144296
0.0144124
0.0143964
0.0143815
0.0143677
0.014355
0.0143435
0.0143332
0.0143239
0.0143158
0.0143087
0.0143028
0.014298
0.0142942
0.0142916
0.01429
0.0142895
0.01429
0.0142917
0.0142943
0.0142981
0.0143029
0.0143089
0.0143166
0.0143231
0.0163903
0.0163877
0.0163842
0.0163806
0.0163769
0.016373
0.016369
0.0163649
0.0163607
0.0163563
0.016352
0.0163475
0.0163431
0.0163385
0.016334
0.0163294
0.0163248
0.0163202
0.0163156
0.0163109
0.0163062
0.0163015
0.0162968
0.0162921
0.0162873
0.0162825
0.0162776
0.0162728
0.0162678
0.0162629
0.0162579
0.0162529
0.0162479
0.0162429
0.0162378
0.0162327
0.0162277
0.0162226
0.0162176
0.0162125
0.0162076
0.0162026
0.0161978
0.016193
0.0161883
0.0161838
0.0161793
0.016175
0.0161708
0.0161669
0.016163
0.0161594
0.016156
0.0161529
0.01615
0.0161473
0.0161449
0.0161428
0.016141
0.0161395
0.0161383
0.0161374
0.0161369
0.0161366
0.0161368
0.0161372
0.016138
0.0161392
0.0161407
0.0161425
0.0161447
0.0161472
0.0161501
0.0161532
0.0161567
0.0161605
0.0161646
0.0161689
0.0161735
0.0161784
0.0161835
0.0161888
0.0161942
0.0161998
0.0162056
0.0162114
0.0162174
0.0162234
0.0162294
0.0162354
0.0162413
0.0162471
0.0162529
0.0162584
0.0162637
0.0162688
0.0162736
0.016278
0.0162821
0.0162857
0.0162888
0.0162914
0.0162933
0.0162947
0.0162953
0.0162952
0.0162943
0.0162926
0.01629
0.0162864
0.0162818
0.0162761
0.0162695
0.0162616
0.0162526
0.0162424
0.016231
0.0162183
0.0162043
0.016189
0.0161724
0.0161544
0.0161351
0.0161145
0.0160925
0.0160692
0.0160446
0.0160186
0.0159914
0.015963
0.0159334
0.0159026
0.0158707
0.0158378
0.0158038
0.0157689
0.0157332
0.0156966
0.0156593
0.0156214
0.0155828
0.0155438
0.0155043
0.0154646
0.0154246
0.0153843
0.0153441
0.0153038
0.0152635
0.0152235
0.0151836
0.0151441
0.0151049
0.0150662
0.015028
0.0149904
0.0149534
0.0149171
0.0148816
0.0148468
0.0148129
0.0147799
0.0147478
0.0147166
0.0146864
0.0146573
0.0146291
0.0146021
0.0145761
0.0145512
0.0145274
0.0145047
0.0144831
0.0144627
0.0144434
0.0144252
0.0144082
0.0143922
0.0143774
0.0143638
0.0143512
0.0143398
0.0143295
0.0143203
0.0143122
0.0143053
0.0142994
0.0142946
0.0142909
0.0142882
0.0142867
0.0142863
0.0142869
0.0142887
0.0142915
0.0142955
0.0143007
0.0143071
0.0143152
0.0143221
0.0163971
0.0163941
0.01639
0.016386
0.0163819
0.0163778
0.0163735
0.0163692
0.0163648
0.0163604
0.0163559
0.0163514
0.016347
0.0163424
0.0163379
0.0163333
0.0163288
0.0163242
0.0163196
0.016315
0.0163104
0.0163058
0.0163011
0.0162964
0.0162916
0.0162868
0.016282
0.0162772
0.0162723
0.0162673
0.0162623
0.0162573
0.0162522
0.0162471
0.016242
0.0162369
0.0162318
0.0162267
0.0162215
0.0162164
0.0162114
0.0162064
0.0162014
0.0161966
0.0161918
0.0161871
0.0161826
0.0161782
0.0161739
0.0161698
0.0161659
0.0161622
0.0161588
0.0161555
0.0161525
0.0161498
0.0161473
0.0161451
0.0161432
0.0161416
0.0161404
0.0161394
0.0161388
0.0161385
0.0161386
0.016139
0.0161398
0.0161409
0.0161423
0.0161441
0.0161462
0.0161487
0.0161515
0.0161546
0.016158
0.0161618
0.0161658
0.0161701
0.0161746
0.0161794
0.0161844
0.0161897
0.0161951
0.0162006
0.0162063
0.0162121
0.016218
0.0162239
0.0162298
0.0162357
0.0162416
0.0162473
0.016253
0.0162584
0.0162637
0.0162687
0.0162734
0.0162778
0.0162817
0.0162853
0.0162883
0.0162908
0.0162927
0.016294
0.0162946
0.0162944
0.0162935
0.0162917
0.016289
0.0162853
0.0162807
0.016275
0.0162682
0.0162603
0.0162512
0.016241
0.0162294
0.0162167
0.0162026
0.0161872
0.0161705
0.0161524
0.0161329
0.0161121
0.01609
0.0160666
0.0160418
0.0160157
0.0159883
0.0159597
0.0159298
0.0158988
0.0158667
0.0158336
0.0157994
0.0157643
0.0157283
0.0156915
0.015654
0.0156158
0.015577
0.0155378
0.0154981
0.0154581
0.0154179
0.0153775
0.015337
0.0152966
0.0152562
0.015216
0.0151761
0.0151364
0.0150972
0.0150584
0.0150202
0.0149825
0.0149455
0.0149092
0.0148737
0.014839
0.0148051
0.0147722
0.0147402
0.0147091
0.0146791
0.01465
0.014622
0.0145951
0.0145693
0.0145445
0.0145209
0.0144984
0.014477
0.0144567
0.0144375
0.0144195
0.0144026
0.0143868
0.0143721
0.0143586
0.0143461
0.0143348
0.0143246
0.0143155
0.0143074
0.0143005
0.0142946
0.0142899
0.0142862
0.0142836
0.0142822
0.0142818
0.0142826
0.0142845
0.0142875
0.0142917
0.0142972
0.0143039
0.0143125
0.0143198
0.0164041
0.0164006
0.016396
0.0163915
0.0163871
0.0163826
0.016378
0.0163735
0.016369
0.0163644
0.0163599
0.0163553
0.0163508
0.0163463
0.0163417
0.0163372
0.0163327
0.0163282
0.0163236
0.016319
0.0163145
0.0163098
0.0163052
0.0163005
0.0162958
0.0162911
0.0162863
0.0162814
0.0162765
0.0162715
0.0162665
0.0162615
0.0162564
0.0162513
0.0162461
0.0162409
0.0162357
0.0162305
0.0162253
0.0162201
0.016215
0.0162099
0.0162049
0.0161999
0.016195
0.0161903
0.0161856
0.0161811
0.0161768
0.0161726
0.0161686
0.0161648
0.0161612
0.0161579
0.0161548
0.016152
0.0161494
0.0161472
0.0161452
0.0161436
0.0161423
0.0161412
0.0161406
0.0161402
0.0161402
0.0161406
0.0161413
0.0161424
0.0161438
0.0161455
0.0161476
0.01615
0.0161528
0.0161559
0.0161592
0.0161629
0.0161669
0.0161711
0.0161756
0.0161804
0.0161853
0.0161905
0.0161958
0.0162013
0.0162069
0.0162127
0.0162185
0.0162243
0.0162302
0.016236
0.0162418
0.0162475
0.0162531
0.0162585
0.0162636
0.0162686
0.0162732
0.0162775
0.0162815
0.0162849
0.0162879
0.0162904
0.0162923
0.0162935
0.016294
0.0162938
0.0162928
0.016291
0.0162883
0.0162846
0.0162799
0.0162742
0.0162674
0.0162594
0.0162503
0.01624
0.0162284
0.0162155
0.0162014
0.0161859
0.0161691
0.0161509
0.0161313
0.0161104
0.0160882
0.0160645
0.0160396
0.0160133
0.0159857
0.0159569
0.0159269
0.0158957
0.0158633
0.0158299
0.0157955
0.0157601
0.0157238
0.0156868
0.015649
0.0156105
0.0155715
0.015532
0.015492
0.0154518
0.0154113
0.0153707
0.01533
0.0152893
0.0152487
0.0152083
0.0151682
0.0151283
0.015089
0.01505
0.0150117
0.014974
0.0149369
0.0149006
0.014865
0.0148303
0.0147965
0.0147636
0.0147316
0.0147006
0.0146706
0.0146417
0.0146138
0.014587
0.0145613
0.0145367
0.0145132
0.0144908
0.0144695
0.0144494
0.0144304
0.0144125
0.0143957
0.01438
0.0143655
0.014352
0.0143397
0.0143285
0.0143183
0.0143093
0.0143013
0.0142944
0.0142886
0.0142839
0.0142803
0.0142778
0.0142764
0.0142761
0.014277
0.014279
0.0142822
0.0142867
0.0142924
0.0142994
0.0143084
0.014316
0.0164111
0.0164071
0.0164019
0.0163971
0.0163922
0.0163874
0.0163826
0.0163778
0.0163731
0.0163684
0.0163638
0.0163591
0.0163546
0.01635
0.0163454
0.0163409
0.0163364
0.0163319
0.0163274
0.0163229
0.0163183
0.0163138
0.0163092
0.0163045
0.0162998
0.0162951
0.0162903
0.0162854
0.0162805
0.0162755
0.0162705
0.0162654
0.0162603
0.0162551
0.0162499
0.0162447
0.0162394
0.0162341
0.0162289
0.0162236
0.0162184
0.0162132
0.0162081
0.016203
0.016198
0.0161932
0.0161884
0.0161838
0.0161794
0.0161751
0.016171
0.0161671
0.0161635
0.0161601
0.0161569
0.016154
0.0161514
0.016149
0.016147
0.0161453
0.0161439
0.0161428
0.0161421
0.0161417
0.0161417
0.016142
0.0161427
0.0161437
0.016145
0.0161467
0.0161488
0.0161512
0.0161539
0.0161569
0.0161602
0.0161639
0.0161678
0.016172
0.0161765
0.0161811
0.016186
0.0161911
0.0161964
0.0162018
0.0162074
0.0162131
0.0162188
0.0162246
0.0162304
0.0162362
0.0162419
0.0162475
0.016253
0.0162583
0.0162635
0.0162684
0.0162729
0.0162772
0.0162811
0.0162845
0.0162875
0.0162899
0.0162917
0.016293
0.0162935
0.0162933
0.0162923
0.0162904
0.0162877
0.016284
0.0162793
0.0162735
0.0162667
0.0162587
0.0162496
0.0162392
0.0162276
0.0162147
0.0162005
0.016185
0.0161681
0.0161498
0.0161302
0.0161092
0.0160868
0.016063
0.0160379
0.0160114
0.0159837
0.0159547
0.0159244
0.0158929
0.0158603
0.0158267
0.015792
0.0157563
0.0157197
0.0156824
0.0156443
0.0156055
0.0155662
0.0155263
0.0154861
0.0154455
0.0154047
0.0153638
0.0153228
0.0152818
0.015241
0.0152003
0.0151599
0.0151199
0.0150803
0.0150412
0.0150027
0.0149648
0.0149277
0.0148913
0.0148556
0.0148209
0.014787
0.014754
0.0147221
0.0146911
0.0146612