/*--------------------------------*- C++ -*----------------------------------*\
  =========                 |
  \\      /  F ield         | OpenFOAM: The Open Source CFD Toolbox
   \\    /   O peration     | Website:  https://openfoam.org
    \\  /    A nd           | Version:  6
     \\/     M anipulation  |
\*---------------------------------------------------------------------------*/
FoamFile
{
    version     2.0;
    format      ascii;
    class       volScalarField;
    location    "0";
    object      p;
}
// * * * * * * * * * * * * * * * * * * * * * * * * * * * * * * * * * * * * * //

dimensions      [0 2 -2 0 0 0 0];

internalField   nonuniform List<scalar> 
145945
(
2.47779e-06
2.47744e-06
2.4774e-06
2.4774e-06
2.47751e-06
2.47758e-06
2.47768e-06
2.47772e-06
2.47776e-06
2.47775e-06
2.47772e-06
2.47765e-06
2.4776e-06
2.47751e-06
2.47755e-06
2.47754e-06
2.47792e-06
2.47744e-06
2.47727e-06
2.47727e-06
2.47732e-06
2.47744e-06
2.47752e-06
2.47762e-06
2.47767e-06
2.47771e-06
2.4777e-06
2.47767e-06
2.47759e-06
2.47754e-06
2.47744e-06
2.47743e-06
2.4774e-06
2.47757e-06
2.4774e-06
2.47727e-06
2.47727e-06
2.47736e-06
2.47749e-06
2.47759e-06
2.47769e-06
2.47775e-06
2.47779e-06
2.47778e-06
2.47774e-06
2.47767e-06
2.47759e-06
2.47749e-06
2.47744e-06
2.4774e-06
2.47754e-06
2.4774e-06
2.47732e-06
2.47736e-06
2.47749e-06
2.47763e-06
2.47775e-06
2.47785e-06
2.47792e-06
2.47795e-06
2.47794e-06
2.47791e-06
2.47783e-06
2.47775e-06
2.47763e-06
2.47754e-06
2.47747e-06
2.47754e-06
2.47751e-06
2.47744e-06
2.47749e-06
2.47763e-06
2.47779e-06
2.47791e-06
2.47801e-06
2.47808e-06
2.47812e-06
2.47811e-06
2.47807e-06
2.47799e-06
2.4779e-06
2.47779e-06
2.47768e-06
2.47759e-06
2.47766e-06
2.47758e-06
2.47752e-06
2.47759e-06
2.47775e-06
2.47791e-06
2.47804e-06
2.47815e-06
2.47822e-06
2.47825e-06
2.47824e-06
2.4782e-06
2.47813e-06
2.47803e-06
2.47791e-06
2.47779e-06
2.47769e-06
2.47773e-06
2.47768e-06
2.47762e-06
2.47769e-06
2.47785e-06
2.47801e-06
2.47815e-06
2.47825e-06
2.47832e-06
2.47835e-06
2.47835e-06
2.47831e-06
2.47823e-06
2.47813e-06
2.47801e-06
2.47789e-06
2.47778e-06
2.47783e-06
2.47772e-06
2.47767e-06
2.47775e-06
2.47792e-06
2.47808e-06
2.47822e-06
2.47832e-06
2.47839e-06
2.47842e-06
2.47842e-06
2.47838e-06
2.4783e-06
2.4782e-06
2.47808e-06
2.47795e-06
2.47784e-06
2.47788e-06
2.47776e-06
2.47771e-06
2.47779e-06
2.47795e-06
2.47812e-06
2.47825e-06
2.47835e-06
2.47842e-06
2.47846e-06
2.47846e-06
2.47841e-06
2.47834e-06
2.47824e-06
2.47811e-06
2.47799e-06
2.47787e-06
2.47791e-06
2.47775e-06
2.4777e-06
2.47778e-06
2.47795e-06
2.47811e-06
2.47824e-06
2.47835e-06
2.47842e-06
2.47846e-06
2.47845e-06
2.47841e-06
2.47833e-06
2.47823e-06
2.47811e-06
2.47798e-06
2.47786e-06
2.4779e-06
2.47772e-06
2.47767e-06
2.47774e-06
2.47791e-06
2.47807e-06
2.4782e-06
2.47831e-06
2.47838e-06
2.47841e-06
2.47841e-06
2.47837e-06
2.47829e-06
2.47819e-06
2.47807e-06
2.47794e-06
2.47783e-06
2.47787e-06
2.47765e-06
2.47759e-06
2.47767e-06
2.47783e-06
2.47799e-06
2.47813e-06
2.47823e-06
2.4783e-06
2.47834e-06
2.47833e-06
2.47829e-06
2.47821e-06
2.47811e-06
2.47799e-06
2.47786e-06
2.47776e-06
2.4778e-06
2.4776e-06
2.47754e-06
2.47759e-06
2.47775e-06
2.4779e-06
2.47803e-06
2.47813e-06
2.4782e-06
2.47824e-06
2.47823e-06
2.47819e-06
2.47811e-06
2.47802e-06
2.4779e-06
2.47779e-06
2.47769e-06
2.47775e-06
2.47751e-06
2.47744e-06
2.47749e-06
2.47763e-06
2.47779e-06
2.47791e-06
2.47801e-06
2.47808e-06
2.47812e-06
2.47811e-06
2.47807e-06
2.47799e-06
2.4779e-06
2.47778e-06
2.47768e-06
2.47759e-06
2.47766e-06
2.47755e-06
2.47743e-06
2.47744e-06
2.47754e-06
2.47768e-06
2.47779e-06
2.47789e-06
2.47795e-06
2.47799e-06
2.47798e-06
2.47794e-06
2.47786e-06
2.47779e-06
2.47768e-06
2.47761e-06
2.47757e-06
2.47769e-06
2.47754e-06
2.4774e-06
2.47741e-06
2.47747e-06
2.4776e-06
2.47769e-06
2.47778e-06
2.47784e-06
2.47787e-06
2.47786e-06
2.47783e-06
2.47776e-06
2.4777e-06
2.47759e-06
2.47757e-06
2.47753e-06
2.47768e-06
2.47792e-06
2.47757e-06
2.47754e-06
2.47755e-06
2.47766e-06
2.47774e-06
2.47783e-06
2.47788e-06
2.47792e-06
2.4779e-06
2.47788e-06
2.4778e-06
2.47775e-06
2.47766e-06
2.47769e-06
2.47768e-06
2.47805e-06
2.40472e-06
2.40464e-06
2.40484e-06
2.40505e-06
2.40532e-06
2.40555e-06
2.40574e-06
2.40586e-06
2.40592e-06
2.40589e-06
2.4058e-06
2.40563e-06
2.40543e-06
2.40518e-06
2.40498e-06
2.40475e-06
2.40481e-06
2.40464e-06
2.40473e-06
2.40497e-06
2.40524e-06
2.40554e-06
2.40579e-06
2.406e-06
2.40613e-06
2.40619e-06
2.40616e-06
2.40606e-06
2.40588e-06
2.40566e-06
2.40538e-06
2.40513e-06
2.40486e-06
2.40474e-06
2.40484e-06
2.40497e-06
2.40522e-06
2.40554e-06
2.40587e-06
2.40614e-06
2.40636e-06
2.40651e-06
2.40657e-06
2.40654e-06
2.40643e-06
2.40624e-06
2.40599e-06
2.40569e-06
2.40539e-06
2.4051e-06
2.40494e-06
2.40505e-06
2.40524e-06
2.40554e-06
2.4059e-06
2.40625e-06
2.40654e-06
2.40677e-06
2.40692e-06
2.40699e-06
2.40696e-06
2.40684e-06
2.40665e-06
2.40638e-06
2.40606e-06
2.40572e-06
2.40539e-06
2.40516e-06
2.40532e-06
2.40554e-06
2.40587e-06
2.40625e-06
2.40661e-06
2.40692e-06
2.40716e-06
2.40731e-06
2.40738e-06
2.40735e-06
2.40723e-06
2.40703e-06
2.40675e-06
2.40642e-06
2.40605e-06
2.40569e-06
2.40543e-06
2.40555e-06
2.40579e-06
2.40614e-06
2.40654e-06
2.40692e-06
2.40724e-06
2.40748e-06
2.40764e-06
2.40771e-06
2.40768e-06
2.40756e-06
2.40735e-06
2.40706e-06
2.40672e-06
2.40634e-06
2.40595e-06
2.40566e-06
2.40574e-06
2.406e-06
2.40636e-06
2.40677e-06
2.40716e-06
2.40748e-06
2.40773e-06
2.40789e-06
2.40796e-06
2.40793e-06
2.4078e-06
2.40759e-06
2.40731e-06
2.40695e-06
2.40656e-06
2.40616e-06
2.40585e-06
2.40586e-06
2.40613e-06
2.40651e-06
2.40692e-06
2.40731e-06
2.40764e-06
2.40789e-06
2.40805e-06
2.40812e-06
2.40809e-06
2.40796e-06
2.40775e-06
2.40746e-06
2.4071e-06
2.40671e-06
2.4063e-06
2.40597e-06
2.40592e-06
2.40619e-06
2.40657e-06
2.40699e-06
2.40738e-06
2.40771e-06
2.40796e-06
2.40812e-06
2.40819e-06
2.40816e-06
2.40803e-06
2.40782e-06
2.40753e-06
2.40717e-06
2.40677e-06
2.40636e-06
2.40603e-06
2.40589e-06
2.40616e-06
2.40654e-06
2.40696e-06
2.40735e-06
2.40768e-06
2.40793e-06
2.40809e-06
2.40816e-06
2.40813e-06
2.408e-06
2.40779e-06
2.4075e-06
2.40714e-06
2.40674e-06
2.40633e-06
2.40601e-06
2.4058e-06
2.40606e-06
2.40643e-06
2.40684e-06
2.40723e-06
2.40756e-06
2.4078e-06
2.40796e-06
2.40803e-06
2.408e-06
2.40788e-06
2.40767e-06
2.40738e-06
2.40702e-06
2.40663e-06
2.40623e-06
2.40591e-06
2.40563e-06
2.40588e-06
2.40624e-06
2.40665e-06
2.40703e-06
2.40735e-06
2.40759e-06
2.40775e-06
2.40782e-06
2.40779e-06
2.40767e-06
2.40746e-06
2.40717e-06
2.40682e-06
2.40644e-06
2.40604e-06
2.40574e-06
2.40543e-06
2.40566e-06
2.40599e-06
2.40638e-06
2.40675e-06
2.40707e-06
2.40731e-06
2.40746e-06
2.40753e-06
2.4075e-06
2.40738e-06
2.40717e-06
2.4069e-06
2.40655e-06
2.40618e-06
2.40582e-06
2.40554e-06
2.40518e-06
2.40538e-06
2.40569e-06
2.40606e-06
2.40642e-06
2.40672e-06
2.40695e-06
2.4071e-06
2.40717e-06
2.40714e-06
2.40702e-06
2.40682e-06
2.40655e-06
2.40623e-06
2.40588e-06
2.40553e-06
2.40529e-06
2.40499e-06
2.40513e-06
2.40539e-06
2.40572e-06
2.40606e-06
2.40634e-06
2.40656e-06
2.40671e-06
2.40677e-06
2.40674e-06
2.40663e-06
2.40644e-06
2.40619e-06
2.40588e-06
2.40557e-06
2.40527e-06
2.40509e-06
2.40475e-06
2.40486e-06
2.40511e-06
2.40539e-06
2.4057e-06
2.40595e-06
2.40616e-06
2.4063e-06
2.40636e-06
2.40633e-06
2.40623e-06
2.40604e-06
2.40582e-06
2.40553e-06
2.40527e-06
2.40498e-06
2.40485e-06
2.40481e-06
2.40474e-06
2.40494e-06
2.40516e-06
2.40543e-06
2.40566e-06
2.40585e-06
2.40598e-06
2.40603e-06
2.40601e-06
2.40591e-06
2.40574e-06
2.40554e-06
2.40529e-06
2.40509e-06
2.40485e-06
2.40491e-06
2.35373e-06
2.35477e-06
2.35575e-06
2.35662e-06
2.3574e-06
2.35799e-06
2.35841e-06
2.35867e-06
2.35877e-06
2.35871e-06
2.35849e-06
2.3581e-06
2.35755e-06
2.35679e-06
2.35591e-06
2.35482e-06
2.35373e-06
2.35477e-06
2.3557e-06
2.35665e-06
2.35753e-06
2.3583e-06
2.35888e-06
2.35931e-06
2.35957e-06
2.35967e-06
2.35961e-06
2.35938e-06
2.35899e-06
2.35845e-06
2.3577e-06
2.35681e-06
2.35575e-06
2.35478e-06
2.35575e-06
2.35665e-06
2.35754e-06
2.35838e-06
2.35913e-06
2.35971e-06
2.36013e-06
2.36038e-06
2.36048e-06
2.36042e-06
2.3602e-06
2.35982e-06
2.35928e-06
2.35855e-06
2.35768e-06
2.3567e-06
2.35576e-06
2.35662e-06
2.35753e-06
2.35838e-06
2.35921e-06
2.35993e-06
2.3605e-06
2.36091e-06
2.36117e-06
2.36127e-06
2.3612e-06
2.36099e-06
2.36061e-06
2.36008e-06
2.35937e-06
2.35852e-06
2.35756e-06
2.35663e-06
2.3574e-06
2.3583e-06
2.35913e-06
2.35993e-06
2.36064e-06
2.3612e-06
2.36161e-06
2.36186e-06
2.36196e-06
2.3619e-06
2.36168e-06
2.36131e-06
2.36079e-06
2.36009e-06
2.35925e-06
2.35833e-06
2.35741e-06
2.35799e-06
2.35888e-06
2.35971e-06
2.3605e-06
2.3612e-06
2.36176e-06
2.36216e-06
2.36241e-06
2.3625e-06
2.36245e-06
2.36223e-06
2.36187e-06
2.36135e-06
2.36066e-06
2.35983e-06
2.35892e-06
2.35799e-06
2.35841e-06
2.35931e-06
2.36013e-06
2.36091e-06
2.36161e-06
2.36216e-06
2.36256e-06
2.36281e-06
2.3629e-06
2.36284e-06
2.36263e-06
2.36227e-06
2.36175e-06
2.36107e-06
2.36025e-06
2.35935e-06
2.35842e-06
2.35867e-06
2.35957e-06
2.36038e-06
2.36117e-06
2.36186e-06
2.36241e-06
2.36281e-06
2.36305e-06
2.36315e-06
2.36309e-06
2.36288e-06
2.36252e-06
2.362e-06
2.36132e-06
2.3605e-06
2.35961e-06
2.35868e-06
2.35877e-06
2.35967e-06
2.36048e-06
2.36126e-06
2.36196e-06
2.3625e-06
2.3629e-06
2.36315e-06
2.36324e-06
2.36318e-06
2.36297e-06
2.36261e-06
2.3621e-06
2.36142e-06
2.3606e-06
2.35971e-06
2.35878e-06
2.35871e-06
2.35961e-06
2.36042e-06
2.3612e-06
2.3619e-06
2.36245e-06
2.36284e-06
2.36309e-06
2.36318e-06
2.36312e-06
2.36291e-06
2.36255e-06
2.36204e-06
2.36136e-06
2.36054e-06
2.35964e-06
2.35872e-06
2.35849e-06
2.35938e-06
2.3602e-06
2.36099e-06
2.36168e-06
2.36223e-06
2.36263e-06
2.36288e-06
2.36297e-06
2.36291e-06
2.3627e-06
2.36234e-06
2.36182e-06
2.36115e-06
2.36032e-06
2.35942e-06
2.3585e-06
2.3581e-06
2.35899e-06
2.35982e-06
2.36061e-06
2.36131e-06
2.36187e-06
2.36227e-06
2.36252e-06
2.36261e-06
2.36255e-06
2.36234e-06
2.36197e-06
2.36145e-06
2.36077e-06
2.35994e-06
2.35903e-06
2.3581e-06
2.35755e-06
2.35845e-06
2.35928e-06
2.36008e-06
2.36079e-06
2.36135e-06
2.36175e-06
2.362e-06
2.3621e-06
2.36204e-06
2.36182e-06
2.36145e-06
2.36093e-06
2.36024e-06
2.3594e-06
2.35848e-06
2.35756e-06
2.35679e-06
2.3577e-06
2.35855e-06
2.35937e-06
2.3601e-06
2.36066e-06
2.36107e-06
2.36133e-06
2.36142e-06
2.36136e-06
2.36115e-06
2.36077e-06
2.36024e-06
2.35954e-06
2.35868e-06
2.35774e-06
2.3568e-06
2.35591e-06
2.35681e-06
2.35768e-06
2.35852e-06
2.35926e-06
2.35983e-06
2.36025e-06
2.36051e-06
2.3606e-06
2.36054e-06
2.36032e-06
2.35994e-06
2.3594e-06
2.35868e-06
2.35782e-06
2.35685e-06
2.35592e-06
2.35482e-06
2.35576e-06
2.3567e-06
2.35757e-06
2.35833e-06
2.35892e-06
2.35935e-06
2.35961e-06
2.35971e-06
2.35964e-06
2.35942e-06
2.35903e-06
2.35848e-06
2.35774e-06
2.35685e-06
2.3558e-06
2.35483e-06
2.35373e-06
2.35478e-06
2.35576e-06
2.35663e-06
2.35741e-06
2.35799e-06
2.35842e-06
2.35868e-06
2.35878e-06
2.35872e-06
2.3585e-06
2.3581e-06
2.35756e-06
2.3568e-06
2.35592e-06
2.35483e-06
2.35374e-06
2.30185e-06
2.30369e-06
2.30537e-06
2.30696e-06
2.30831e-06
2.30931e-06
2.31002e-06
2.31046e-06
2.31063e-06
2.31052e-06
2.31014e-06
2.30948e-06
2.30855e-06
2.30728e-06
2.30569e-06
2.30386e-06
2.30188e-06
2.30369e-06
2.30524e-06
2.30687e-06
2.30843e-06
2.30974e-06
2.31072e-06
2.31142e-06
2.31184e-06
2.31201e-06
2.3119e-06
2.31153e-06
2.31089e-06
2.30998e-06
2.30874e-06
2.30719e-06
2.3054e-06
2.30373e-06
2.30537e-06
2.30687e-06
2.30844e-06
2.30993e-06
2.31118e-06
2.31213e-06
2.3128e-06
2.31321e-06
2.31337e-06
2.31327e-06
2.31291e-06
2.3123e-06
2.31142e-06
2.31023e-06
2.30874e-06
2.30702e-06
2.30541e-06
2.30696e-06
2.30843e-06
2.30993e-06
2.31137e-06
2.31257e-06
2.31349e-06
2.31413e-06
2.31453e-06
2.31468e-06
2.31459e-06
2.31424e-06
2.31365e-06
2.3128e-06
2.31166e-06
2.31022e-06
2.30857e-06
2.307e-06
2.30831e-06
2.30974e-06
2.31118e-06
2.31257e-06
2.31374e-06
2.31463e-06
2.31526e-06
2.31564e-06
2.31579e-06
2.3157e-06
2.31536e-06
2.31479e-06
2.31397e-06
2.31287e-06
2.31147e-06
2.30988e-06
2.30835e-06
2.30931e-06
2.31072e-06
2.31213e-06
2.31349e-06
2.31463e-06
2.3155e-06
2.31611e-06
2.31649e-06
2.31663e-06
2.31654e-06
2.31622e-06
2.31565e-06
2.31485e-06
2.31377e-06
2.31241e-06
2.31086e-06
2.30935e-06
2.31002e-06
2.31142e-06
2.3128e-06
2.31413e-06
2.31526e-06
2.31611e-06
2.31671e-06
2.31708e-06
2.31723e-06
2.31714e-06
2.31682e-06
2.31627e-06
2.31547e-06
2.31442e-06
2.31308e-06
2.31156e-06
2.31007e-06
2.31046e-06
2.31184e-06
2.31321e-06
2.31453e-06
2.31564e-06
2.31649e-06
2.31708e-06
2.31745e-06
2.31759e-06
2.3175e-06
2.31719e-06
2.31664e-06
2.31586e-06
2.31481e-06
2.31349e-06
2.31198e-06
2.3105e-06
2.31062e-06
2.31201e-06
2.31337e-06
2.31468e-06
2.31579e-06
2.31663e-06
2.31723e-06
2.31759e-06
2.31773e-06
2.31765e-06
2.31733e-06
2.31679e-06
2.316e-06
2.31496e-06
2.31364e-06
2.31215e-06
2.31067e-06
2.31052e-06
2.3119e-06
2.31327e-06
2.31459e-06
2.3157e-06
2.31654e-06
2.31714e-06
2.3175e-06
2.31765e-06
2.31756e-06
2.31724e-06
2.3167e-06
2.31591e-06
2.31487e-06
2.31354e-06
2.31204e-06
2.31056e-06
2.31014e-06
2.31153e-06
2.31291e-06
2.31424e-06
2.31536e-06
2.31622e-06
2.31682e-06
2.31719e-06
2.31733e-06
2.31724e-06
2.31692e-06
2.31637e-06
2.31558e-06
2.31453e-06
2.31319e-06
2.31168e-06
2.31019e-06
2.30948e-06
2.31089e-06
2.3123e-06
2.31365e-06
2.31479e-06
2.31566e-06
2.31627e-06
2.31664e-06
2.31679e-06
2.3167e-06
2.31637e-06
2.31581e-06
2.31501e-06
2.31394e-06
2.31258e-06
2.31104e-06
2.30953e-06
2.30855e-06
2.30998e-06
2.31142e-06
2.3128e-06
2.31397e-06
2.31485e-06
2.31548e-06
2.31586e-06
2.316e-06
2.31591e-06
2.31558e-06
2.31501e-06
2.31419e-06
2.31309e-06
2.31171e-06
2.31012e-06
2.3086e-06
2.30728e-06
2.30874e-06
2.31023e-06
2.31167e-06
2.31287e-06
2.31378e-06
2.31442e-06
2.31481e-06
2.31496e-06
2.31487e-06
2.31453e-06
2.31394e-06
2.3131e-06
2.31196e-06
2.31053e-06
2.30889e-06
2.30732e-06
2.30569e-06
2.30719e-06
2.30875e-06
2.31023e-06
2.31147e-06
2.31241e-06
2.31308e-06
2.31349e-06
2.31364e-06
2.31354e-06
2.31319e-06
2.31258e-06
2.31171e-06
2.31053e-06
2.30905e-06
2.30734e-06
2.30573e-06
2.30386e-06
2.3054e-06
2.30702e-06
2.30857e-06
2.30988e-06
2.31086e-06
2.31156e-06
2.31198e-06
2.31215e-06
2.31204e-06
2.31168e-06
2.31104e-06
2.31013e-06
2.30889e-06
2.30734e-06
2.30556e-06
2.3039e-06
2.30188e-06
2.30373e-06
2.30541e-06
2.307e-06
2.30835e-06
2.30935e-06
2.31007e-06
2.3105e-06
2.31067e-06
2.31056e-06
2.31019e-06
2.30953e-06
2.3086e-06
2.30732e-06
2.30573e-06
2.3039e-06
2.30192e-06
2.2509e-06
2.25303e-06
2.25492e-06
2.25678e-06
2.25834e-06
2.25952e-06
2.26036e-06
2.26087e-06
2.26107e-06
2.26094e-06
2.26049e-06
2.25972e-06
2.25862e-06
2.25714e-06
2.25526e-06
2.25321e-06
2.25092e-06
2.25303e-06
2.2548e-06
2.25667e-06
2.25849e-06
2.26003e-06
2.2612e-06
2.26203e-06
2.26254e-06
2.26273e-06
2.26261e-06
2.26216e-06
2.2614e-06
2.26031e-06
2.25885e-06
2.25702e-06
2.25497e-06
2.25306e-06
2.25492e-06
2.25667e-06
2.25851e-06
2.26027e-06
2.26175e-06
2.26289e-06
2.26369e-06
2.26418e-06
2.26437e-06
2.26425e-06
2.26382e-06
2.26308e-06
2.26203e-06
2.26062e-06
2.25885e-06
2.25683e-06
2.25495e-06
2.25678e-06
2.25849e-06
2.26027e-06
2.26197e-06
2.26341e-06
2.26451e-06
2.2653e-06
2.26577e-06
2.26596e-06
2.26584e-06
2.26542e-06
2.26471e-06
2.26368e-06
2.26231e-06
2.2606e-06
2.25864e-06
2.25682e-06
2.25834e-06
2.26003e-06
2.26175e-06
2.26341e-06
2.26482e-06
2.26589e-06
2.26665e-06
2.26712e-06
2.2673e-06
2.26718e-06
2.26678e-06
2.26608e-06
2.26508e-06
2.26375e-06
2.26208e-06
2.26018e-06
2.25837e-06
2.25952e-06
2.2612e-06
2.26289e-06
2.26451e-06
2.26589e-06
2.26694e-06
2.26769e-06
2.26815e-06
2.26832e-06
2.26821e-06
2.26782e-06
2.26713e-06
2.26615e-06
2.26484e-06
2.26321e-06
2.26135e-06
2.25955e-06
2.26036e-06
2.26203e-06
2.26369e-06
2.2653e-06
2.26665e-06
2.26769e-06
2.26843e-06
2.26888e-06
2.26905e-06
2.26894e-06
2.26855e-06
2.26788e-06
2.26691e-06
2.26562e-06
2.26401e-06
2.26218e-06
2.26039e-06
2.26087e-06
2.26254e-06
2.26418e-06
2.26577e-06
2.26712e-06
2.26815e-06
2.26888e-06
2.26933e-06
2.2695e-06
2.26939e-06
2.269e-06
2.26833e-06
2.26737e-06
2.2661e-06
2.2645e-06
2.26269e-06
2.26091e-06
2.26107e-06
2.26273e-06
2.26437e-06
2.26596e-06
2.2673e-06
2.26832e-06
2.26905e-06
2.2695e-06
2.26967e-06
2.26956e-06
2.26918e-06
2.26851e-06
2.26755e-06
2.26628e-06
2.26469e-06
2.26288e-06
2.2611e-06
2.26094e-06
2.26261e-06
2.26425e-06
2.26584e-06
2.26718e-06
2.26821e-06
2.26894e-06
2.26939e-06
2.26956e-06
2.26946e-06
2.26907e-06
2.2684e-06
2.26744e-06
2.26617e-06
2.26457e-06
2.26276e-06
2.26098e-06
2.26049e-06
2.26216e-06
2.26382e-06
2.26542e-06
2.26678e-06
2.26782e-06
2.26855e-06
2.269e-06
2.26918e-06
2.26907e-06
2.26867e-06
2.268e-06
2.26703e-06
2.26575e-06
2.26414e-06
2.26231e-06
2.26053e-06
2.25972e-06
2.2614e-06
2.26308e-06
2.26471e-06
2.26608e-06
2.26713e-06
2.26788e-06
2.26833e-06
2.26851e-06
2.2684e-06
2.268e-06
2.26732e-06
2.26634e-06
2.26504e-06
2.2634e-06
2.26155e-06
2.25975e-06
2.25862e-06
2.26031e-06
2.26203e-06
2.26368e-06
2.26508e-06
2.26615e-06
2.26691e-06
2.26737e-06
2.26755e-06
2.26744e-06
2.26703e-06
2.26634e-06
2.26534e-06
2.26401e-06
2.26235e-06
2.26046e-06
2.25865e-06
2.25714e-06
2.25885e-06
2.26062e-06
2.26231e-06
2.26375e-06
2.26485e-06
2.26562e-06
2.2661e-06
2.26628e-06
2.26617e-06
2.26575e-06
2.26504e-06
2.26401e-06
2.26265e-06
2.26095e-06
2.259e-06
2.25717e-06
2.25527e-06
2.25702e-06
2.25885e-06
2.2606e-06
2.26208e-06
2.26321e-06
2.26401e-06
2.2645e-06
2.26469e-06
2.26457e-06
2.26414e-06
2.2634e-06
2.26235e-06
2.26095e-06
2.25919e-06
2.25717e-06
2.25529e-06
2.25321e-06
2.25497e-06
2.25683e-06
2.25864e-06
2.26018e-06
2.26135e-06
2.26218e-06
2.26269e-06
2.26288e-06
2.26276e-06
2.26231e-06
2.26155e-06
2.26046e-06
2.259e-06
2.25717e-06
2.25513e-06
2.25324e-06
2.25092e-06
2.25306e-06
2.25495e-06
2.25682e-06
2.25837e-06
2.25955e-06
2.26039e-06
2.26091e-06
2.2611e-06
2.26098e-06
2.26053e-06
2.25975e-06
2.25865e-06
2.25717e-06
2.25529e-06
2.25324e-06
2.25094e-06
2.20374e-06
2.20596e-06
2.20791e-06
2.20988e-06
2.21149e-06
2.21273e-06
2.21362e-06
2.21416e-06
2.21436e-06
2.21423e-06
2.21376e-06
2.21294e-06
2.21178e-06
2.21024e-06
2.20824e-06
2.20613e-06
2.20375e-06
2.20596e-06
2.20782e-06
2.20976e-06
2.21168e-06
2.2133e-06
2.21453e-06
2.21542e-06
2.21596e-06
2.21616e-06
2.21603e-06
2.21556e-06
2.21474e-06
2.21358e-06
2.21204e-06
2.2101e-06
2.20797e-06
2.20597e-06
2.20791e-06
2.20976e-06
2.2117e-06
2.21356e-06
2.21514e-06
2.21634e-06
2.21721e-06
2.21773e-06
2.21793e-06
2.2178e-06
2.21734e-06
2.21654e-06
2.21541e-06
2.21391e-06
2.21203e-06
2.2099e-06
2.20792e-06
2.20988e-06
2.21168e-06
2.21356e-06
2.21537e-06
2.21691e-06
2.21809e-06
2.21893e-06
2.21944e-06
2.21964e-06
2.21951e-06
2.21906e-06
2.21828e-06
2.21718e-06
2.21571e-06
2.21388e-06
2.21181e-06
2.20989e-06
2.21149e-06
2.2133e-06
2.21514e-06
2.21691e-06
2.21841e-06
2.21957e-06
2.22039e-06
2.2209e-06
2.22109e-06
2.22096e-06
2.22052e-06
2.21976e-06
2.21868e-06
2.21724e-06
2.21545e-06
2.21342e-06
2.2115e-06
2.21273e-06
2.21453e-06
2.21634e-06
2.21809e-06
2.21957e-06
2.22071e-06
2.22152e-06
2.22202e-06
2.22221e-06
2.22208e-06
2.22165e-06
2.2209e-06
2.21983e-06
2.21842e-06
2.21666e-06
2.21466e-06
2.21274e-06
2.21362e-06
2.21542e-06
2.21721e-06
2.21893e-06
2.22039e-06
2.22152e-06
2.22232e-06
2.22281e-06
2.223e-06
2.22288e-06
2.22245e-06
2.22171e-06
2.22065e-06
2.21926e-06
2.21751e-06
2.21555e-06
2.21363e-06
2.21416e-06
2.21596e-06
2.21773e-06
2.21944e-06
2.2209e-06
2.22202e-06
2.22281e-06
2.2233e-06
2.22349e-06
2.22337e-06
2.22294e-06
2.22221e-06
2.22116e-06
2.21977e-06
2.21804e-06
2.21609e-06
2.21417e-06
2.21436e-06
2.21616e-06
2.21793e-06
2.21964e-06
2.22109e-06
2.22221e-06
2.223e-06
2.22349e-06
2.22367e-06
2.22355e-06
2.22313e-06
2.22239e-06
2.22135e-06
2.21997e-06
2.21824e-06
2.21629e-06
2.21438e-06
2.21423e-06
2.21603e-06
2.2178e-06
2.21951e-06
2.22096e-06
2.22208e-06
2.22288e-06
2.22337e-06
2.22355e-06
2.22343e-06
2.22301e-06
2.22227e-06
2.22122e-06
2.21984e-06
2.21811e-06
2.21616e-06
2.21424e-06
2.21376e-06
2.21556e-06
2.21734e-06
2.21906e-06
2.22052e-06
2.22165e-06
2.22245e-06
2.22294e-06
2.22313e-06
2.22301e-06
2.22258e-06
2.22184e-06
2.22078e-06
2.21939e-06
2.21765e-06
2.21568e-06
2.21377e-06
2.21294e-06
2.21474e-06
2.21654e-06
2.21828e-06
2.21976e-06
2.2209e-06
2.22171e-06
2.22221e-06
2.22239e-06
2.22227e-06
2.22184e-06
2.22109e-06
2.22003e-06
2.21862e-06
2.21686e-06
2.21487e-06
2.21295e-06
2.21178e-06
2.21358e-06
2.21541e-06
2.21718e-06
2.21868e-06
2.21983e-06
2.22065e-06
2.22116e-06
2.22135e-06
2.22122e-06
2.22078e-06
2.22003e-06
2.21894e-06
2.21751e-06
2.21573e-06
2.21371e-06
2.21179e-06
2.21024e-06
2.21204e-06
2.21391e-06
2.21571e-06
2.21724e-06
2.21842e-06
2.21926e-06
2.21977e-06
2.21997e-06
2.21984e-06
2.21939e-06
2.21862e-06
2.21751e-06
2.21606e-06
2.21423e-06
2.21217e-06
2.21025e-06
2.20825e-06
2.2101e-06
2.21203e-06
2.21388e-06
2.21546e-06
2.21666e-06
2.21752e-06
2.21804e-06
2.21824e-06
2.21811e-06
2.21765e-06
2.21686e-06
2.21573e-06
2.21424e-06
2.21236e-06
2.21024e-06
2.20826e-06
2.20613e-06
2.20797e-06
2.2099e-06
2.21181e-06
2.21342e-06
2.21466e-06
2.21555e-06
2.21609e-06
2.21629e-06
2.21616e-06
2.21569e-06
2.21487e-06
2.21371e-06
2.21217e-06
2.21023e-06
2.20812e-06
2.20614e-06
2.20375e-06
2.20597e-06
2.20792e-06
2.20989e-06
2.21151e-06
2.21274e-06
2.21363e-06
2.21417e-06
2.21438e-06
2.21424e-06
2.21377e-06
2.21295e-06
2.21179e-06
2.21025e-06
2.20825e-06
2.20614e-06
2.20376e-06
2.15993e-06
2.16209e-06
2.164e-06
2.16595e-06
2.16755e-06
2.16879e-06
2.16968e-06
2.17022e-06
2.17042e-06
2.17029e-06
2.16981e-06
2.16899e-06
2.16783e-06
2.16631e-06
2.16432e-06
2.16226e-06
2.15994e-06
2.16209e-06
2.16392e-06
2.16583e-06
2.16774e-06
2.16935e-06
2.1706e-06
2.17149e-06
2.17203e-06
2.17224e-06
2.1721e-06
2.17162e-06
2.1708e-06
2.16963e-06
2.16809e-06
2.16615e-06
2.16406e-06
2.1621e-06
2.164e-06
2.16583e-06
2.16776e-06
2.16962e-06
2.1712e-06
2.17242e-06
2.17329e-06
2.17383e-06
2.17403e-06
2.1739e-06
2.17343e-06
2.17262e-06
2.17148e-06
2.16997e-06
2.16808e-06
2.16596e-06
2.16401e-06
2.16596e-06
2.16774e-06
2.16962e-06
2.17144e-06
2.17299e-06
2.17419e-06
2.17505e-06
2.17557e-06
2.17577e-06
2.17564e-06
2.17518e-06
2.17439e-06
2.17327e-06
2.17178e-06
2.16994e-06
2.16786e-06
2.16596e-06
2.16755e-06
2.16935e-06
2.1712e-06
2.17299e-06
2.17452e-06
2.17571e-06
2.17655e-06
2.17706e-06
2.17726e-06
2.17713e-06
2.17668e-06
2.1759e-06
2.17479e-06
2.17333e-06
2.17152e-06
2.16947e-06
2.16756e-06
2.16879e-06
2.1706e-06
2.17242e-06
2.17419e-06
2.17571e-06
2.17687e-06
2.1777e-06
2.17821e-06
2.17841e-06
2.17828e-06
2.17783e-06
2.17706e-06
2.17597e-06
2.17453e-06
2.17274e-06
2.17072e-06
2.1688e-06
2.16968e-06
2.17149e-06
2.17329e-06
2.17505e-06
2.17655e-06
2.1777e-06
2.17853e-06
2.17903e-06
2.17922e-06
2.1791e-06
2.17865e-06
2.17789e-06
2.17681e-06
2.17538e-06
2.1736e-06
2.17161e-06
2.16969e-06
2.17022e-06
2.17203e-06
2.17383e-06
2.17557e-06
2.17706e-06
2.17821e-06
2.17903e-06
2.17954e-06
2.17973e-06
2.1796e-06
2.17916e-06
2.1784e-06
2.17732e-06
2.1759e-06
2.17414e-06
2.17215e-06
2.17022e-06
2.17042e-06
2.17224e-06
2.17403e-06
2.17577e-06
2.17726e-06
2.17841e-06
2.17923e-06
2.17973e-06
2.17992e-06
2.17979e-06
2.17935e-06
2.1786e-06
2.17752e-06
2.1761e-06
2.17434e-06
2.17236e-06
2.17043e-06
2.17029e-06
2.1721e-06
2.1739e-06
2.17564e-06
2.17713e-06
2.17828e-06
2.1791e-06
2.1796e-06
2.17979e-06
2.17967e-06
2.17923e-06
2.17847e-06
2.17739e-06
2.17597e-06
2.1742e-06
2.17222e-06
2.17029e-06
2.16981e-06
2.17162e-06
2.17343e-06
2.17518e-06
2.17668e-06
2.17783e-06
2.17866e-06
2.17916e-06
2.17935e-06
2.17923e-06
2.17878e-06
2.17802e-06
2.17694e-06
2.17551e-06
2.17374e-06
2.17175e-06
2.16982e-06
2.16899e-06
2.1708e-06
2.17262e-06
2.17439e-06
2.1759e-06
2.17706e-06
2.17789e-06
2.1784e-06
2.1786e-06
2.17847e-06
2.17802e-06
2.17726e-06
2.17616e-06
2.17473e-06
2.17294e-06
2.17092e-06
2.169e-06
2.16783e-06
2.16963e-06
2.17148e-06
2.17327e-06
2.17479e-06
2.17597e-06
2.17681e-06
2.17733e-06
2.17752e-06
2.17739e-06
2.17694e-06
2.17616e-06
2.17506e-06
2.17361e-06
2.1718e-06
2.16976e-06
2.16784e-06
2.16631e-06
2.1681e-06
2.16997e-06
2.17178e-06
2.17333e-06
2.17453e-06
2.17538e-06
2.17591e-06
2.1761e-06
2.17597e-06
2.17551e-06
2.17473e-06
2.17361e-06
2.17213e-06
2.17029e-06
2.16822e-06
2.16632e-06
2.16432e-06
2.16615e-06
2.16808e-06
2.16994e-06
2.17152e-06
2.17274e-06
2.17361e-06
2.17414e-06
2.17434e-06
2.17421e-06
2.17374e-06
2.17294e-06
2.1718e-06
2.17029e-06
2.16841e-06
2.16629e-06
2.16433e-06
2.16226e-06
2.16406e-06
2.16596e-06
2.16787e-06
2.16948e-06
2.17072e-06
2.17161e-06
2.17216e-06
2.17236e-06
2.17223e-06
2.17175e-06
2.17092e-06
2.16976e-06
2.16822e-06
2.16629e-06
2.16421e-06
2.16227e-06
2.15994e-06
2.1621e-06
2.16401e-06
2.16596e-06
2.16756e-06
2.1688e-06
2.16969e-06
2.17023e-06
2.17043e-06
2.17029e-06
2.16982e-06
2.169e-06
2.16784e-06
2.16632e-06
2.16433e-06
2.16226e-06
2.15994e-06
2.11892e-06
2.12092e-06
2.1227e-06
2.12454e-06
2.12604e-06
2.12722e-06
2.12806e-06
2.12858e-06
2.12877e-06
2.12864e-06
2.12819e-06
2.12741e-06
2.12631e-06
2.12488e-06
2.123e-06
2.12107e-06
2.11893e-06
2.12092e-06
2.12263e-06
2.12441e-06
2.12622e-06
2.12774e-06
2.12894e-06
2.12979e-06
2.13031e-06
2.13051e-06
2.13037e-06
2.12992e-06
2.12913e-06
2.12801e-06
2.12656e-06
2.12472e-06
2.12276e-06
2.12093e-06
2.1227e-06
2.12441e-06
2.12623e-06
2.12801e-06
2.12952e-06
2.13069e-06
2.13152e-06
2.13204e-06
2.13223e-06
2.1321e-06
2.13165e-06
2.13088e-06
2.12978e-06
2.12834e-06
2.12654e-06
2.12454e-06
2.1227e-06
2.12454e-06
2.12622e-06
2.12801e-06
2.12974e-06
2.13123e-06
2.13239e-06
2.13322e-06
2.13373e-06
2.13392e-06
2.13379e-06
2.13334e-06
2.13258e-06
2.1315e-06
2.13007e-06
2.12831e-06
2.12634e-06
2.12455e-06
2.12604e-06
2.12774e-06
2.12952e-06
2.13123e-06
2.13271e-06
2.13386e-06
2.13467e-06
2.13518e-06
2.13537e-06
2.13524e-06
2.1348e-06
2.13404e-06
2.13297e-06
2.13156e-06
2.12982e-06
2.12786e-06
2.12605e-06
2.12722e-06
2.12894e-06
2.13069e-06
2.13239e-06
2.13386e-06
2.13499e-06
2.1358e-06
2.1363e-06
2.13649e-06
2.13636e-06
2.13593e-06
2.13518e-06
2.13411e-06
2.13272e-06
2.13099e-06
2.12905e-06
2.12723e-06
2.12806e-06
2.12979e-06
2.13152e-06
2.13322e-06
2.13467e-06
2.1358e-06
2.13661e-06
2.1371e-06
2.13729e-06
2.13717e-06
2.13673e-06
2.13599e-06
2.13493e-06
2.13354e-06
2.13182e-06
2.1299e-06
2.12807e-06
2.12858e-06
2.13031e-06
2.13204e-06
2.13373e-06
2.13518e-06
2.1363e-06
2.1371e-06
2.13759e-06
2.13778e-06
2.13766e-06
2.13722e-06
2.13648e-06
2.13543e-06
2.13405e-06
2.13233e-06
2.13043e-06
2.12858e-06
2.12877e-06
2.13051e-06
2.13223e-06
2.13392e-06
2.13537e-06
2.13649e-06
2.13729e-06
2.13778e-06
2.13797e-06
2.13785e-06
2.13741e-06
2.13667e-06
2.13562e-06
2.13424e-06
2.13253e-06
2.13063e-06
2.12878e-06
2.12864e-06
2.13037e-06
2.1321e-06
2.13379e-06
2.13524e-06
2.13636e-06
2.13717e-06
2.13766e-06
2.13785e-06
2.13772e-06
2.13729e-06
2.13655e-06
2.1355e-06
2.13411e-06
2.1324e-06
2.13049e-06
2.12865e-06
2.12819e-06
2.12992e-06
2.13165e-06
2.13334e-06
2.1348e-06
2.13593e-06
2.13673e-06
2.13723e-06
2.13741e-06
2.13729e-06
2.13685e-06
2.13611e-06
2.13505e-06
2.13367e-06
2.13195e-06
2.13003e-06
2.1282e-06
2.12741e-06
2.12913e-06
2.13088e-06
2.13258e-06
2.13404e-06
2.13518e-06
2.13599e-06
2.13648e-06
2.13667e-06
2.13655e-06
2.13611e-06
2.13536e-06
2.1343e-06
2.13291e-06
2.13118e-06
2.12925e-06
2.12742e-06
2.12631e-06
2.12801e-06
2.12978e-06
2.1315e-06
2.13297e-06
2.13411e-06
2.13493e-06
2.13543e-06
2.13562e-06
2.1355e-06
2.13505e-06
2.1343e-06
2.13323e-06
2.13182e-06
2.13008e-06
2.12813e-06
2.12631e-06
2.12488e-06
2.12656e-06
2.12834e-06
2.13007e-06
2.13156e-06
2.13272e-06
2.13354e-06
2.13405e-06
2.13424e-06
2.13411e-06
2.13367e-06
2.13291e-06
2.13182e-06
2.1304e-06
2.12865e-06
2.12668e-06
2.12489e-06
2.123e-06
2.12472e-06
2.12654e-06
2.12831e-06
2.12982e-06
2.13099e-06
2.13182e-06
2.13234e-06
2.13253e-06
2.1324e-06
2.13195e-06
2.13118e-06
2.13008e-06
2.12865e-06
2.12685e-06
2.12484e-06
2.123e-06
2.12108e-06
2.12276e-06
2.12454e-06
2.12634e-06
2.12786e-06
2.12906e-06
2.12991e-06
2.13043e-06
2.13063e-06
2.13049e-06
2.13004e-06
2.12925e-06
2.12813e-06
2.12668e-06
2.12484e-06
2.1229e-06
2.12108e-06
2.11893e-06
2.12093e-06
2.1227e-06
2.12455e-06
2.12605e-06
2.12723e-06
2.12807e-06
2.12858e-06
2.12878e-06
2.12865e-06
2.1282e-06
2.12742e-06
2.12631e-06
2.12489e-06
2.123e-06
2.12108e-06
2.11894e-06
2.0804e-06
2.0822e-06
2.0838e-06
2.08548e-06
2.08684e-06
2.08793e-06
2.0887e-06
2.08917e-06
2.08935e-06
2.08923e-06
2.08881e-06
2.0881e-06
2.08708e-06
2.08579e-06
2.08406e-06
2.08233e-06
2.0804e-06
2.0822e-06
2.08374e-06
2.08535e-06
2.08701e-06
2.0884e-06
2.0895e-06
2.09028e-06
2.09077e-06
2.09095e-06
2.09083e-06
2.0904e-06
2.08968e-06
2.08865e-06
2.08732e-06
2.08563e-06
2.08386e-06
2.0822e-06
2.0838e-06
2.08535e-06
2.08702e-06
2.08865e-06
2.09004e-06
2.09112e-06
2.09189e-06
2.09237e-06
2.09255e-06
2.09243e-06
2.09201e-06
2.0913e-06
2.09028e-06
2.08895e-06
2.0873e-06
2.08547e-06
2.0838e-06
2.08548e-06
2.08701e-06
2.08865e-06
2.09024e-06
2.09163e-06
2.0927e-06
2.09347e-06
2.09394e-06
2.09412e-06
2.094e-06
2.09359e-06
2.09288e-06
2.09187e-06
2.09055e-06
2.08892e-06
2.08712e-06
2.08548e-06
2.08684e-06
2.0884e-06
2.09004e-06
2.09163e-06
2.093e-06
2.09407e-06
2.09483e-06
2.0953e-06
2.09548e-06
2.09536e-06
2.09495e-06
2.09424e-06
2.09324e-06
2.09193e-06
2.09031e-06
2.08851e-06
2.08685e-06
2.08793e-06
2.0895e-06
2.09112e-06
2.0927e-06
2.09407e-06
2.09513e-06
2.09589e-06
2.09636e-06
2.09653e-06
2.09642e-06
2.096e-06
2.0953e-06
2.0943e-06
2.093e-06
2.0914e-06
2.08961e-06
2.08793e-06
2.0887e-06
2.09028e-06
2.09189e-06
2.09347e-06
2.09483e-06
2.09589e-06
2.09664e-06
2.09711e-06
2.09729e-06
2.09717e-06
2.09676e-06
2.09606e-06
2.09507e-06
2.09377e-06
2.09217e-06
2.09039e-06
2.0887e-06
2.08917e-06
2.09077e-06
2.09237e-06
2.09394e-06
2.0953e-06
2.09636e-06
2.09711e-06
2.09758e-06
2.09775e-06
2.09764e-06
2.09723e-06
2.09653e-06
2.09554e-06
2.09424e-06
2.09265e-06
2.09087e-06
2.08917e-06
2.08935e-06
2.09095e-06
2.09255e-06
2.09412e-06
2.09548e-06
2.09653e-06
2.09729e-06
2.09775e-06
2.09793e-06
2.09781e-06
2.0974e-06
2.09671e-06
2.09572e-06
2.09442e-06
2.09283e-06
2.09106e-06
2.08935e-06
2.08923e-06
2.09083e-06