/*--------------------------------*- C++ -*----------------------------------*\
  =========                 |
  \\      /  F ield         | OpenFOAM: The Open Source CFD Toolbox
   \\    /   O peration     | Website:  https://openfoam.org
    \\  /    A nd           | Version:  6
     \\/     M anipulation  |
\*---------------------------------------------------------------------------*/
FoamFile
{
    version     2.0;
    format      ascii;
    class       volVectorField;
    location    "0";
    object      U_rec;
}
// * * * * * * * * * * * * * * * * * * * * * * * * * * * * * * * * * * * * * //

dimensions      [0 1 -1 0 0 0 0];

internalField   nonuniform List<vector> 
40000
(
(5.36875e-07 -5.36955e-07 0)
(2.89976e-06 -9.55805e-07 0)
(5.80077e-06 -9.82273e-07 0)
(8.33464e-06 -7.35811e-07 0)
(9.69739e-06 -3.58465e-07 0)
(9.50502e-06 8.00738e-08 0)
(7.58944e-06 5.37302e-07 0)
(3.9059e-06 9.88035e-07 0)
(-1.51298e-06 1.41837e-06 0)
(-8.58878e-06 1.82091e-06 0)
(-1.72173e-05 2.19209e-06 0)
(-2.72812e-05 2.53061e-06 0)
(-3.86584e-05 2.8366e-06 0)
(-5.12258e-05 3.11107e-06 0)
(-6.48642e-05 3.35556e-06 0)
(-7.94594e-05 3.57192e-06 0)
(-9.49037e-05 3.76219e-06 0)
(-0.000111097 3.92849e-06 0)
(-0.000127948 4.07295e-06 0)
(-0.000145371 4.19767e-06 0)
(-0.00016329 4.30467e-06 0)
(-0.000181636 4.39589e-06 0)
(-0.000200348 4.47314e-06 0)
(-0.000219372 4.5381e-06 0)
(-0.000238658 4.59235e-06 0)
(-0.000258166 4.63732e-06 0)
(-0.000277858 4.6743e-06 0)
(-0.000297703 4.70446e-06 0)
(-0.000317673 4.72884e-06 0)
(-0.000337746 4.74836e-06 0)
(-0.000357902 4.76384e-06 0)
(-0.000378124 4.77598e-06 0)
(-0.000398399 4.78536e-06 0)
(-0.000418715 4.7925e-06 0)
(-0.000439063 4.79782e-06 0)
(-0.000459435 4.80167e-06 0)
(-0.000479824 4.80431e-06 0)
(-0.000500225 4.80594e-06 0)
(-0.000520632 4.80674e-06 0)
(-0.000541042 4.80679e-06 0)
(-0.000561451 4.80613e-06 0)
(-0.000581855 4.8048e-06 0)
(-0.00060225 4.80274e-06 0)
(-0.000622633 4.79992e-06 0)
(-0.000642999 4.79625e-06 0)
(-0.000663345 4.79162e-06 0)
(-0.000683664 4.7859e-06 0)
(-0.000703953 4.77894e-06 0)
(-0.000724204 4.77059e-06 0)
(-0.000744411 4.76067e-06 0)
(-0.000764567 4.74901e-06 0)
(-0.000784663 4.73541e-06 0)
(-0.00080469 4.71967e-06 0)
(-0.000824639 4.7016e-06 0)
(-0.000844499 4.68098e-06 0)
(-0.000864259 4.6576e-06 0)
(-0.000883906 4.63127e-06 0)
(-0.000903428 4.60176e-06 0)
(-0.000922808 4.56887e-06 0)
(-0.000942035 4.53238e-06 0)
(-0.000961091 4.49209e-06 0)
(-0.00097996 4.44779e-06 0)
(-0.000998624 4.3993e-06 0)
(-0.00101707 4.34638e-06 0)
(-0.00103527 4.28888e-06 0)
(-0.0010532 4.2266e-06 0)
(-0.00107086 4.15935e-06 0)
(-0.00108821 4.08698e-06 0)
(-0.00110524 4.0093e-06 0)
(-0.00112192 3.92617e-06 0)
(-0.00113823 3.83745e-06 0)
(-0.00115415 3.743e-06 0)
(-0.00116965 3.64269e-06 0)
(-0.0011847 3.53641e-06 0)
(-0.00119929 3.42407e-06 0)
(-0.00121338 3.30558e-06 0)
(-0.00122696 3.18087e-06 0)
(-0.00123998 3.04989e-06 0)
(-0.00125244 2.91261e-06 0)
(-0.0012643 2.76899e-06 0)
(-0.00127554 2.61904e-06 0)
(-0.00128613 2.46277e-06 0)
(-0.00129604 2.30022e-06 0)
(-0.00130525 2.13144e-06 0)
(-0.00131374 1.95651e-06 0)
(-0.00132147 1.77553e-06 0)
(-0.00132843 1.5886e-06 0)
(-0.00133459 1.39588e-06 0)
(-0.00133992 1.19754e-06 0)
(-0.00134441 9.93751e-07 0)
(-0.00134804 7.84727e-07 0)
(-0.00135077 5.70692e-07 0)
(-0.0013526 3.51909e-07 0)
(-0.0013535 1.2866e-07 0)
(-0.00135346 -9.8757e-08 0)
(-0.00135246 -3.30015e-07 0)
(-0.00135049 -5.64768e-07 0)
(-0.00134753 -8.0265e-07 0)
(-0.00134357 -1.04327e-06 0)
(-0.0013386 -1.28621e-06 0)
(-0.00133262 -1.53104e-06 0)
(-0.00132561 -1.77731e-06 0)
(-0.00131758 -2.02455e-06 0)
(-0.00130852 -2.27227e-06 0)
(-0.00129843 -2.51997e-06 0)
(-0.00128731 -2.76712e-06 0)
(-0.00127517 -3.0132e-06 0)
(-0.00126201 -3.25767e-06 0)
(-0.00124784 -3.49995e-06 0)
(-0.00123267 -3.73949e-06 0)
(-0.00121652 -3.97572e-06 0)
(-0.00119939 -4.20805e-06 0)
(-0.00118132 -4.43593e-06 0)
(-0.0011623 -4.65875e-06 0)
(-0.00114239 -4.87594e-06 0)
(-0.00112158 -5.08693e-06 0)
(-0.00109991 -5.29114e-06 0)
(-0.00107742 -5.488e-06 0)
(-0.00105413 -5.67699e-06 0)
(-0.00103007 -5.85756e-06 0)
(-0.00100529 -6.02918e-06 0)
(-0.000979814 -6.19134e-06 0)
(-0.000953689 -6.34359e-06 0)
(-0.000926954 -6.48546e-06 0)
(-0.000899653 -6.61649e-06 0)
(-0.000871832 -6.73632e-06 0)
(-0.000843539 -6.84456e-06 0)
(-0.000814819 -6.94086e-06 0)
(-0.000785724 -7.02491e-06 0)
(-0.000756302 -7.09644e-06 0)
(-0.000726608 -7.15525e-06 0)
(-0.000696693 -7.20113e-06 0)
(-0.000666609 -7.23388e-06 0)
(-0.000636412 -7.25349e-06 0)
(-0.000606154 -7.25982e-06 0)
(-0.00057589 -7.25286e-06 0)
(-0.000545675 -7.23263e-06 0)
(-0.000515564 -7.19922e-06 0)
(-0.000485607 -7.15269e-06 0)
(-0.000455861 -7.0932e-06 0)
(-0.000426379 -7.02095e-06 0)
(-0.00039721 -6.93616e-06 0)
(-0.000368407 -6.83911e-06 0)
(-0.000340019 -6.73006e-06 0)
(-0.000312096 -6.60941e-06 0)
(-0.000284683 -6.47747e-06 0)
(-0.000257826 -6.33467e-06 0)
(-0.000231571 -6.18143e-06 0)
(-0.000205958 -6.01821e-06 0)
(-0.000181028 -5.84548e-06 0)
(-0.000156821 -5.66373e-06 0)
(-0.000133371 -5.47348e-06 0)
(-0.000110714 -5.27524e-06 0)
(-8.88818e-05 -5.06956e-06 0)
(-6.79049e-05 -4.85698e-06 0)
(-4.78097e-05 -4.63804e-06 0)
(-2.86244e-05 -4.4133e-06 0)
(-1.03706e-05 -4.18332e-06 0)
(6.93004e-06 -3.94863e-06 0)
(2.32583e-05 -3.7098e-06 0)
(3.85979e-05 -3.46736e-06 0)
(5.29339e-05 -3.22185e-06 0)
(6.62541e-05 -2.97381e-06 0)
(7.85483e-05 -2.72376e-06 0)
(8.98083e-05 -2.47222e-06 0)
(0.000100028 -2.2197e-06 0)
(0.000109205 -1.96672e-06 0)
(0.000117336 -1.71376e-06 0)
(0.000124422 -1.46133e-06 0)
(0.000130466 -1.20994e-06 0)
(0.000135473 -9.60101e-07 0)
(0.000139449 -7.12327e-07 0)
(0.000142404 -4.67162e-07 0)
(0.000144348 -2.2516e-07 0)
(0.000145298 1.30817e-08 0)
(0.000145268 2.46917e-07 0)
(0.000144279 4.75665e-07 0)
(0.000142354 6.9855e-07 0)
(0.000139519 9.14728e-07 0)
(0.000135802 1.12323e-06 0)
(0.000131241 1.32296e-06 0)
(0.000125874 1.51265e-06 0)
(0.000119746 1.69087e-06 0)
(0.000112909 1.85589e-06 0)
(0.000105423 2.00575e-06 0)
(9.73552e-05 2.13809e-06 0)
(8.87857e-05 2.25018e-06 0)
(7.9805e-05 2.33873e-06 0)
(7.0518e-05 2.39986e-06 0)
(6.10468e-05 2.42892e-06 0)
(5.15322e-05 2.42032e-06 0)
(4.21387e-05 2.36733e-06 0)
(3.30573e-05 2.2618e-06 0)
(2.45101e-05 2.09387e-06 0)
(1.67538e-05 1.85192e-06 0)
(1.00806e-05 1.52342e-06 0)
(4.80979e-06 1.09818e-06 0)
(1.25727e-06 5.74925e-07 0)
(-3.84537e-07 -4.10373e-09 0)
(-3.62453e-07 -3.62511e-07 0)
(9.58877e-07 -2.90273e-06 0)
(5.37046e-06 -5.35967e-06 0)
(1.00572e-05 -5.20668e-06 0)
(1.32555e-05 -3.27131e-06 0)
(1.33687e-05 -2.77404e-07 0)
(9.52554e-06 3.27341e-06 0)
(1.282e-06 7.05341e-06 0)
(-1.15284e-05 1.08547e-05 0)
(-2.88825e-05 1.45486e-05 0)
(-5.06339e-05 1.80578e-05 0)
(-7.65582e-05 2.1338e-05 0)
(-0.000106384 2.43667e-05 0)
(-0.000139818 2.71354e-05 0)
(-0.000176556 2.96451e-05 0)
(-0.000216294 3.19032e-05 0)
(-0.000258736 3.39211e-05 0)
(-0.000303601 3.57128e-05 0)
(-0.000350621 3.72942e-05 0)
(-0.000399549 3.86816e-05 0)
(-0.000450154 3.98918e-05 0)
(-0.000502226 4.09414e-05 0)
(-0.000555575 4.18463e-05 0)
(-0.000610027 4.2622e-05 0)
(-0.000665429 4.3283e-05 0)
(-0.000721643 4.38428e-05 0)
(-0.000778547 4.4314e-05 0)
(-0.000836036 4.47081e-05 0)
(-0.000894015 4.50353e-05 0)
(-0.000952404 4.53052e-05 0)
(-0.00101113 4.55261e-05 0)
(-0.00107014 4.57054e-05 0)
(-0.00112938 4.58496e-05 0)
(-0.0011888 4.59641e-05 0)
(-0.00124837 4.60539e-05 0)
(-0.00130806 4.61228e-05 0)
(-0.00136783 4.61742e-05 0)
(-0.00142767 4.62108e-05 0)
(-0.00148756 4.62345e-05 0)
(-0.00154747 4.6247e-05 0)
(-0.00160739 4.62494e-05 0)
(-0.00166731 4.62421e-05 0)
(-0.00172722 4.62255e-05 0)
(-0.0017871 4.61995e-05 0)
(-0.00184693 4.61638e-05 0)
(-0.00190669 4.61175e-05 0)
(-0.00196639 4.60599e-05 0)
(-0.00202599 4.599e-05 0)
(-0.00208548 4.59063e-05 0)
(-0.00214484 4.58076e-05 0)
(-0.00220405 4.56923e-05 0)
(-0.00226308 4.55588e-05 0)
(-0.00232191 4.54056e-05 0)
(-0.00238051 4.52306e-05 0)
(-0.00243885 4.50321e-05 0)
(-0.0024969 4.48084e-05 0)
(-0.00255463 4.45574e-05 0)
(-0.00261199 4.42774e-05 0)
(-0.00266895 4.39663e-05 0)
(-0.00272546 4.36224e-05 0)
(-0.00278148 4.32436e-05 0)
(-0.00283698 4.28282e-05 0)
(-0.00289188 4.23743e-05 0)
(-0.00294615 4.18802e-05 0)
(-0.00299974 4.13439e-05 0)
(-0.00305258 4.07639e-05 0)
(-0.00310462 4.01385e-05 0)
(-0.0031558 3.9466e-05 0)
(-0.00320606 3.87451e-05 0)
(-0.00325533 3.79741e-05 0)
(-0.00330355 3.71519e-05 0)
(-0.00335066 3.62772e-05 0)
(-0.00339658 3.53488e-05 0)
(-0.00344125 3.43656e-05 0)
(-0.0034846 3.33268e-05 0)
(-0.00352655 3.22316e-05 0)
(-0.00356703 3.10793e-05 0)
(-0.00360598 2.98695e-05 0)
(-0.0036433 2.86017e-05 0)
(-0.00367895 2.72757e-05 0)
(-0.00371283 2.58916e-05 0)
(-0.00374488 2.44493e-05 0)
(-0.00377503 2.29493e-05 0)
(-0.0038032 2.13921e-05 0)
(-0.00382931 1.97781e-05 0)
(-0.00385331 1.81083e-05 0)
(-0.00387512 1.63837e-05 0)
(-0.00389466 1.46057e-05 0)
(-0.00391189 1.27756e-05 0)
(-0.00392673 1.0895e-05 0)
(-0.00393912 8.96589e-06 0)
(-0.003949 6.99023e-06 0)
(-0.00395633 4.97029e-06 0)
(-0.00396103 2.90852e-06 0)
(-0.00396307 8.07618e-07 0)
(-0.00396239 -1.32958e-06 0)
(-0.00395897 -3.49994e-06 0)
(-0.00395276 -5.70022e-06 0)
(-0.00394371 -7.92701e-06 0)
(-0.00393181 -1.01767e-05 0)
(-0.00391703 -1.24453e-05 0)
(-0.00389936 -1.4729e-05 0)
(-0.00387876 -1.70235e-05 0)
(-0.00385525 -1.93247e-05 0)
(-0.00382881 -2.16279e-05 0)
(-0.00379944 -2.39286e-05 0)
(-0.00376716 -2.62221e-05 0)
(-0.00373197 -2.85036e-05 0)
(-0.00369391 -3.07681e-05 0)
(-0.00365298 -3.30107e-05 0)
(-0.00360924 -3.52263e-05 0)
(-0.0035627 -3.74098e-05 0)
(-0.00351342 -3.95559e-05 0)
(-0.00346146 -4.16595e-05 0)
(-0.00340687 -4.37155e-05 0)
(-0.00334971 -4.57188e-05 0)
(-0.00329005 -4.76642e-05 0)
(-0.00322798 -4.95465e-05 0)
(-0.00316356 -5.13611e-05 0)
(-0.0030969 -5.31029e-05 0)
(-0.00302809 -5.47672e-05 0)
(-0.00295723 -5.63495e-05 0)
(-0.00288443 -5.78453e-05 0)
(-0.00280979 -5.92505e-05 0)
(-0.00273343 -6.05608e-05 0)
(-0.00265548 -6.17727e-05 0)
(-0.00257606 -6.28823e-05 0)
(-0.0024953 -6.3887e-05 0)
(-0.00241333 -6.4783e-05 0)
(-0.0023303 -6.55681e-05 0)
(-0.00224634 -6.624e-05 0)
(-0.00216159 -6.67962e-05 0)
(-0.00207621 -6.72353e-05 0)
(-0.00199033 -6.75559e-05 0)
(-0.00190412 -6.77571e-05 0)
(-0.00181771 -6.78383e-05 0)
(-0.00173126 -6.77989e-05 0)
(-0.00164492 -6.76394e-05 0)
(-0.00155883 -6.73601e-05 0)
(-0.00147317 -6.69618e-05 0)
(-0.00138805 -6.6446e-05 0)
(-0.00130363 -6.5814e-05 0)
(-0.00122007 -6.50679e-05 0)
(-0.0011375 -6.42099e-05 0)
(-0.00105605 -6.32426e-05 0)
(-0.000975871 -6.21687e-05 0)
(-0.000897086 -6.09917e-05 0)
(-0.000819829 -5.97148e-05 0)
(-0.000744217 -5.83418e-05 0)
(-0.000670373 -5.68766e-05 0)
(-0.00059841 -5.53232e-05 0)
(-0.000528441 -5.36861e-05 0)
(-0.000460564 -5.19696e-05 0)
(-0.000394877 -5.01784e-05 0)
(-0.000331481 -4.83171e-05 0)
(-0.00027045 -4.63906e-05 0)
(-0.000211877 -4.44037e-05 0)
(-0.000155828 -4.23612e-05 0)
(-0.000102374 -4.02681e-05 0)
(-5.15739e-05 -3.81295e-05 0)
(-3.49617e-06 -3.595e-05 0)
(4.18235e-05 -3.37348e-05 0)
(8.43359e-05 -3.14886e-05 0)
(0.000123996 -2.92163e-05 0)
(0.000160782 -2.69229e-05 0)
(0.000194666 -2.46129e-05 0)
(0.000225626 -2.22913e-05 0)
(0.000253649 -1.99627e-05 0)
(0.000278727 -1.76321e-05 0)
(0.000300861 -1.5304e-05 0)
(0.000320057 -1.29834e-05 0)
(0.000336318 -1.06752e-05 0)
(0.000349672 -8.38446e-06 0)
(0.000360136 -6.11649e-06 0)
(0.000367747 -3.87688e-06 0)
(0.000372538 -1.67138e-06 0)
(0.000374561 4.93579e-07 0)
(0.000373871 2.61121e-06 0)
(0.000370532 4.67389e-06 0)
(0.000364619 6.67333e-06 0)
(0.000356219 8.60008e-06 0)
(0.000345432 1.04436e-05 0)
(0.000332373 1.21917e-05 0)
(0.000317173 1.38308e-05 0)
(0.00029998 1.53449e-05 0)
(0.000280966 1.67157e-05 0)
(0.000260327 1.79221e-05 0)
(0.000238285 1.89397e-05 0)
(0.000215097 1.97399e-05 0)
(0.000191054 2.02898e-05 0)
(0.000166491 2.05512e-05 0)
(0.000141789 2.04799e-05 0)
(0.00011738 2.00252e-05 0)
(9.37579e-05 1.91293e-05 0)
(7.14742e-05 1.7729e-05 0)
(5.1143e-05 1.57587e-05 0)
(3.34269e-05 1.3164e-05 0)
(1.90025e-05 9.93276e-06 0)
(8.48415e-06 6.16782e-06 0)
(2.28144e-06 2.28622e-06 0)
(-4.87879e-09 -3.85463e-07 0)
(9.91019e-07 -5.81933e-06 0)
(5.2405e-06 -1.00558e-05 0)
(8.72648e-06 -8.68903e-06 0)
(9.31088e-06 -3.56109e-06 0)
(5.0783e-06 3.90475e-06 0)
(-5.09081e-06 1.26807e-05 0)
(-2.18161e-05 2.20539e-05 0)
(-4.53649e-05 3.1545e-05 0)
(-7.57466e-05 4.08395e-05 0)
(-0.000112792 4.97368e-05 0)
(-0.000156213 5.81137e-05 0)
(-0.000205641 6.59005e-05 0)
(-0.000260665 7.3064e-05 0)
(-0.000320849 7.95966e-05 0)
(-0.000385752 8.55081e-05 0)
(-0.000454937 9.08205e-05 0)
(-0.000527982 9.5564e-05 0)
(-0.000604486 9.97738e-05 0)
(-0.000684069 0.000103488 0)
(-0.000766378 0.000106747 0)
(-0.000851088 0.00010959 0)
(-0.000937901 0.000112057 0)
(-0.00102655 0.000114185 0)
(-0.00111678 0.000116012 0)
(-0.00120838 0.00011757 0)
(-0.00130116 0.000118892 0)
(-0.00139494 0.000120007 0)
(-0.00148957 0.000120941 0)
(-0.00158491 0.000121719 0)
(-0.00168086 0.000122362 0)
(-0.0017773 0.00012289 0)
(-0.00187416 0.000123319 0)
(-0.00197135 0.000123664 0)
(-0.00206882 0.000123938 0)
(-0.0021665 0.000124151 0)
(-0.00226435 0.000124312 0)
(-0.00236232 0.000124427 0)
(-0.00246039 0.000124504 0)
(-0.00255851 0.000124545 0)
(-0.00265665 0.000124555 0)
(-0.00275479 0.000124534 0)
(-0.0028529 0.000124483 0)
(-0.00295095 0.000124404 0)
(-0.00304891 0.000124294 0)
(-0.00314677 0.000124152 0)
(-0.00324447 0.000123977 0)
(-0.00334202 0.000123765 0)
(-0.00343935 0.000123513 0)
(-0.00353644 0.000123218 0)
(-0.00363326 0.000122875 0)
(-0.00372975 0.000122482 0)
(-0.00382588 0.000122032 0)
(-0.0039216 0.000121523 0)
(-0.00401686 0.000120948 0)
(-0.0041116 0.000120304 0)
(-0.00420577 0.000119585 0)
(-0.0042993 0.000118787 0)
(-0.00439212 0.000117905 0)
(-0.00448418 0.000116933 0)
(-0.00457539 0.000115866 0)
(-0.00466567 0.000114701 0)
(-0.00475496 0.000113432 0)
(-0.00484317 0.000112055 0)
(-0.0049302 0.000110565 0)
(-0.00501596 0.000108957 0)
(-0.00510037 0.000107227 0)
(-0.00518333 0.000105372 0)
(-0.00526474 0.000103388 0)
(-0.00534449 0.00010127 0)
(-0.00542248 9.90165e-05 0)
(-0.0054986 9.66232e-05 0)
(-0.00557275 9.40875e-05 0)
(-0.00564481 9.14069e-05 0)
(-0.00571467 8.85791e-05 0)
(-0.00578222 8.56027e-05 0)
(-0.00584734 8.24761e-05 0)
(-0.00590991 7.91975e-05 0)
(-0.00596982 7.57667e-05 0)
(-0.00602696 7.21837e-05 0)
(-0.0060812 6.84479e-05 0)
(-0.00613243 6.45607e-05 0)
(-0.00618053 6.05225e-05 0)
(-0.00622541 5.63351e-05 0)
(-0.00626692 5.20006e-05 0)
(-0.00630497 4.75213e-05 0)
(-0.00633946 4.29002e-05 0)
(-0.00637027 3.81406e-05 0)
(-0.00639731 3.32471e-05 0)
(-0.00642047 2.82235e-05 0)
(-0.00643966 2.3076e-05 0)
(-0.0064548 1.78088e-05 0)
(-0.00646579 1.24295e-05 0)
(-0.00647255 6.94337e-06 0)
(-0.00647502 1.35863e-06 0)
(-0.00647312 -4.31773e-06 0)
(-0.00646678 -1.0077e-05 0)
(-0.00645596 -1.59108e-05 0)
(-0.00644059 -2.18099e-05 0)
(-0.00642064 -2.77646e-05 0)
(-0.00639608 -3.37651e-05 0)
(-0.00636689 -3.98007e-05 0)
(-0.00633302 -4.58605e-05 0)
(-0.00629448 -5.19333e-05 0)
(-0.00625128 -5.80074e-05 0)
(-0.00620341 -6.40709e-05 0)
(-0.0061509 -7.01115e-05 0)
(-0.00609375 -7.61169e-05 0)
(-0.00603202 -8.20742e-05 0)
(-0.00596574 -8.79705e-05 0)
(-0.00589499 -9.37926e-05 0)
(-0.0058198 -9.95275e-05 0)
(-0.00574027 -0.000105162 0)
(-0.00565647 -0.000110683 0)
(-0.0055685 -0.000116077 0)
(-0.00547647 -0.00012133 0)
(-0.00538048 -0.00012643 0)
(-0.00528067 -0.000131364 0)
(-0.00517715 -0.00013612 0)
(-0.00507007 -0.000140684 0)
(-0.00495961 -0.000145045 0)
(-0.00484588 -0.000149191 0)
(-0.00472908 -0.000153112 0)
(-0.00460939 -0.000156796 0)
(-0.00448697 -0.000160232 0)
(-0.00436202 -0.000163412 0)
(-0.00423475 -0.000166326 0)
(-0.00410536 -0.000168966 0)
(-0.00397405 -0.000171325 0)
(-0.00384104 -0.000173395 0)
(-0.00370655 -0.000175171 0)
(-0.00357081 -0.000176647 0)
(-0.00343403 -0.000177819 0)
(-0.00329647 -0.000178684 0)
(-0.00315834 -0.000179239 0)
(-0.00301988 -0.000179482 0)
(-0.00288132 -0.000179412 0)
(-0.00274291 -0.000179031 0)
(-0.00260488 -0.000178338 0)
(-0.00246745 -0.000177338 0)
(-0.00233087 -0.000176031 0)
(-0.00219536 -0.000174422 0)
(-0.00206115 -0.000172516 0)
(-0.00192847 -0.000170318 0)
(-0.00179753 -0.000167835 0)
(-0.00166854 -0.000165075 0)
(-0.00154171 -0.000162045 0)
(-0.00141725 -0.000158753 0)
(-0.00129534 -0.00015521 0)
(-0.00117619 -0.000151424 0)
(-0.00105997 -0.000147407 0)
(-0.000946844 -0.00014317 0)
(-0.000836996 -0.000138722 0)
(-0.000730568 -0.000134077 0)
(-0.000627721 -0.000129247 0)
(-0.000528579 -0.000124242 0)
(-0.000433286 -0.000119077 0)
(-0.000341957 -0.000113763 0)
(-0.000254702 -0.000108313 0)
(-0.000171621 -0.000102739 0)
(-9.28159e-05 -9.70552e-05 0)
(-1.83608e-05 -9.12732e-05 0)
(5.16617e-05 -8.54063e-05 0)
(0.000117203 -7.9467e-05 0)
(0.000178193 -7.34678e-05 0)
(0.000234598 -6.74217e-05 0)
(0.000286377 -6.13408e-05 0)
(0.000333506 -5.52376e-05 0)
(0.000375975 -4.91257e-05 0)
(0.000413774 -4.30172e-05 0)
(0.000446903 -3.69251e-05 0)
(0.000475391 -3.08629e-05 0)
(0.000499251 -2.48446e-05 0)
(0.000518523 -1.88841e-05 0)
(0.000533259 -1.29963e-05 0)
(0.000543518 -7.19808e-06 0)
(0.000549377 -1.50596e-06 0)
(0.000550919 4.06132e-06 0)
(0.000548252 9.4835e-06 0)
(0.000541496 1.47371e-05 0)
(0.000530792 1.97974e-05 0)
(0.000516294 2.46366e-05 0)
(0.000498193 2.92217e-05 0)
(0.000476696 3.35163e-05 0)
(0.000452044 3.74799e-05 0)
(0.000424509 4.10643e-05 0)
(0.000394401 4.42161e-05 0)
(0.000362075 4.68726e-05 0)
(0.000327929 4.89636e-05 0)
(0.000292418 5.04084e-05 0)
(0.000256055 5.11157e-05 0)
(0.000219414 5.09824e-05 0)
(0.000183144 4.98944e-05 0)
(0.000147961 4.77281e-05 0)
(0.000114653 4.43554e-05 0)
(8.4071e-05 3.96566e-05 0)
(5.71021e-05 3.35513e-05 0)
(3.46195e-05 2.60614e-05 0)
(1.74062e-05 1.74416e-05 0)
(6.14319e-06 8.48106e-06 0)
(5.71072e-07 1.24845e-06 0)
(7.49732e-07 -8.38118e-06 0)
(3.31167e-06 -1.32691e-05 0)
(3.58018e-06 -9.26575e-06 0)
(-7.25027e-07 7.12805e-07 0)
(-1.15518e-05 1.4507e-05 0)
(-3.00975e-05 3.0521e-05 0)
(-5.7053e-05 4.76053e-05 0)
(-9.27318e-05 6.49559e-05 0)
(-0.000137161 8.20233e-05 0)
(-0.000190158 9.84431e-05 0)
(-0.000251392 0.00011398 0)
(-0.000320432 0.000128494 0)
(-0.000396783 0.000141908 0)
(-0.000479915 0.000154198 0)
(-0.000569284 0.000165368 0)
(-0.000664344 0.000175451 0)
(-0.000764562 0.000184493 0)
(-0.000869427 0.000192553 0)
(-0.000978454 0.000199696 0)
(-0.00109119 0.000205991 0)
(-0.0012072 0.000211509 0)
(-0.0013261 0.000216319 0)
(-0.00144754 0.000220491 0)
(-0.0015712 0.00022409 0)
(-0.00169677 0.000227178 0)
(-0.00182399 0.000229812 0)
(-0.00195265 0.000232049 0)
(-0.00208252 0.000233934 0)
(-0.00221342 0.000235516 0)
(-0.0023452 0.000236833 0)
(-0.00247771 0.000237922 0)
(-0.00261083 0.000238814 0)
(-0.00274446 0.000239538 0)
(-0.00287848 0.000240116 0)
(-0.00301285 0.000240569 0)
(-0.00314747 0.000240914 0)
(-0.00328228 0.000241164 0)
(-0.00341723 0.000241331 0)
(-0.00355226 0.000241423 0)
(-0.00368734 0.000241446 0)
(-0.0038224 0.000241403 0)
(-0.00395742 0.000241297 0)
(-0.00409236 0.000241127 0)
(-0.00422716 0.000240893 0)
(-0.00436179 0.000240591 0)
(-0.0044962 0.000240218 0)
(-0.00463035 0.000239769 0)
(-0.00476418 0.000239238 0)
(-0.00489765 0.000238619 0)
(-0.0050307 0.000237904 0)
(-0.00516326 0.000237085 0)
(-0.00529529 0.000236155 0)
(-0.00542669 0.000235105 0)
(-0.00555742 0.000233927 0)
(-0.00568739 0.00023261 0)
(-0.00581651 0.000231147 0)
(-0.00594469 0.000229528 0)
(-0.00607186 0.000227743 0)
(-0.0061979 0.000225784 0)
(-0.00632272 0.000223641 0)
(-0.00644622 0.000221305 0)
(-0.00656827 0.000218768 0)
(-0.00668877 0.000216021 0)
(-0.0068076 0.000213054 0)
(-0.00692463 0.000209861 0)
(-0.00703973 0.000206433 0)
(-0.00715277 0.000202764 0)
(-0.00726362 0.000198845 0)
(-0.00737213 0.00019467 0)
(-0.00747817 0.000190234 0)
(-0.00758159 0.00018553 0)
(-0.00768223 0.000180554 0)
(-0.00777995 0.000175301 0)
(-0.0078746 0.000169767 0)
(-0.00796603 0.000163949 0)
(-0.00805408 0.000157846 0)
(-0.00813858 0.000151454 0)
(-0.0082194 0.000144774 0)
(-0.00829637 0.000137804 0)
(-0.00836934 0.000130546 0)
(-0.00843815 0.000123001 0)
(-0.00850266 0.000115171 0)
(-0.00856271 0.000107061 0)
(-0.00861815 9.86745e-05 0)
(-0.00866883 9.00158e-05 0)
(-0.00871464 8.10912e-05 0)
(-0.0087554 7.19088e-05 0)
(-0.00879101 6.24759e-05 0)
(-0.00882133 5.28019e-05 0)
(-0.00884624 4.28962e-05 0)
(-0.0088656 3.27709e-05 0)
(-0.00887934 2.2437e-05 0)
(-0.00888734 1.19074e-05 0)
(-0.0088895 1.19654e-06 0)
(-0.00888573 -9.68071e-06 0)
(-0.00887596 -2.07088e-05 0)
(-0.00886013 -3.18714e-05 0)
(-0.00883816 -4.31502e-05 0)
(-0.00881001 -5.45277e-05 0)
(-0.00877563 -6.59846e-05 0)
(-0.008735 -7.75005e-05 0)
(-0.00868809 -8.90555e-05 0)
(-0.00863491 -0.000100628 0)
(-0.00857545 -0.000112195 0)
(-0.00850973 -0.000123736 0)
(-0.00843778 -0.000135227 0)
(-0.00835963 -0.000146644 0)
(-0.00827533 -0.000157964 0)
(-0.00818497 -0.000169163 0)
(-0.0080886 -0.000180216 0)
(-0.00798632 -0.000191098 0)
(-0.00787823 -0.000201785 0)
(-0.00776446 -0.000212253 0)
(-0.00764512 -0.000222476 0)
(-0.00752036 -0.000232431 0)
(-0.00739034 -0.000242093 0)
(-0.00725521 -0.000251438 0)
(-0.00711516 -0.000260442 0)
(-0.00697038 -0.000269084 0)
(-0.00682107 -0.000277341 0)
(-0.00666743 -0.000285191 0)
(-0.00650971 -0.000292614 0)
(-0.00634811 -0.000299589 0)
(-0.00618291 -0.000306098 0)
(-0.00601434 -0.000312123 0)
(-0.00584267 -0.000317647 0)
(-0.00566817 -0.000322657 0)
(-0.00549111 -0.000327136 0)
(-0.00531178 -0.000331073 0)
(-0.00513047 -0.000334457 0)
(-0.00494747 -0.000337278 0)
(-0.00476309 -0.000339527 0)
(-0.00457763 -0.000341199 0)
(-0.0043914 -0.000342288 0)
(-0.0042047 -0.000342793 0)
(-0.00401784 -0.00034271 0)
(-0.00383114 -0.000342041 0)
(-0.0036449 -0.000340787 0)
(-0.00345945 -0.000338953 0)
(-0.00327506 -0.000336543 0)
(-0.00309206 -0.000333565 0)
(-0.00291075 -0.000330028 0)
(-0.0027314 -0.000325942 0)
(-0.00255433 -0.000321318 0)
(-0.00237981 -0.00031617 0)
(-0.00220811 -0.000310511 0)
(-0.0020395 -0.000304359 0)
(-0.00187425 -0.00029773 0)
(-0.0017126 -0.000290642 0)
(-0.0015548 -0.000283114 0)
(-0.00140108 -0.000275167 0)
(-0.00125166 -0.00026682 0)
(-0.00110675 -0.000258096 0)
(-0.000966547 -0.000249017 0)
(-0.000831246 -0.000239605 0)
(-0.00070102 -0.000229884 0)
(-0.000576037 -0.000219876 0)
(-0.000456443 -0.000209605 0)
(-0.000342379 -0.000199095 0)
(-0.000233978 -0.00018837 0)
(-0.000131348 -0.000177454 0)
(-3.45927e-05 -0.000166369 0)
(5.6191e-05 -0.000155142 0)
(0.000140937 -0.000143795 0)
(0.000219577 -0.000132353 0)
(0.000292057 -0.000120838 0)
(0.000358346 -0.000109277 0)
(0.000418416 -9.76919e-05 0)
(0.000472259 -8.61086e-05 0)
(0.00051987 -7.45524e-05 0)
(0.000561275 -6.30487e-05 0)
(0.000596495 -5.1624e-05 0)
(0.000625592 -4.03066e-05 0)
(0.000648618 -2.91258e-05 0)
(0.000665658 -1.81126e-05 0)
(0.000676809 -7.30051e-06 0)
(0.000682181 3.27367e-06 0)
(0.000681932 1.35708e-05 0)
(0.000676206 2.35464e-05 0)
(0.000665198 3.31525e-05 0)
(0.000649123 4.23345e-05 0)
(0.000628233 5.10311e-05 0)
(0.000602798 5.91734e-05 0)
(0.000573151 6.66843e-05 0)
(0.00053965 7.34747e-05 0)
(0.000502709 7.94457e-05 0)
(0.000462791 8.44843e-05 0)
(0.00042042 8.84628e-05 0)
(0.000376185 9.12384e-05 0)
(0.000330743 9.26528e-05 0)
(0.000284827 9.25298e-05 0)
(0.000239243 9.06815e-05 0)
(0.000194875 8.69102e-05 0)
(0.000152677 8.1022e-05 0)
(0.000113661 7.28485e-05 0)
(7.88666e-05 6.22951e-05 0)
(4.93135e-05 4.94288e-05 0)
(2.59616e-05 3.46398e-05 0)
(9.87459e-06 1.89664e-05 0)
(1.08859e-06 4.77874e-06 0)
(3.72402e-07 -9.77068e-06 0)
(2.74241e-07 -1.33579e-05 0)
(-4.03975e-06 -4.94388e-06 0)
(-1.48406e-05 1.16087e-05 0)
(-3.39038e-05 3.34498e-05 0)
(-6.23792e-05 5.84376e-05 0)
(-0.000100941 8.49904e-05 0)
(-0.000149893 0.000111969 0)
(-0.000209249 0.000138572 0)
(-0.000278802 0.00016425 0)
(-0.000358187 0.000188637 0)
(-0.000446923 0.000211504 0)
(-0.000544454 0.00023272 0)
(-0.000650178 0.000252232 0)
(-0.00076347 0.000270033 0)
(-0.000883702 0.000286161 0)
(-0.00101026 0.000300679 0)
(-0.00114253 0.000313669 0)
(-0.00127995 0.000325226 0)
(-0.00142197 0.000335451 0)
(-0.00156811 0.000344449 0)
(-0.00171787 0.000352327 0)
(-0.00187083 0.000359189 0)
(-0.0020266 0.000365135 0)
(-0.00218482 0.000370261 0)
(-0.00234518 0.000374657 0)
(-0.00250737 0.000378407 0)
(-0.00267115 0.000381589 0)
(-0.00283628 0.000384271 0)
(-0.00300256 0.000386519 0)
(-0.00316982 0.000388387 0)
(-0.00333789 0.000389929 0)
(-0.00350664 0.000391185 0)
(-0.00367594 0.000392197 0)
(-0.00384569 0.000392994 0)
(-0.00401579 0.000393604 0)
(-0.00418616 0.00039405 0)
(-0.00435672 0.000394349 0)
(-0.0045274 0.000394516 0)
(-0.00469813 0.000394558 0)
(-0.00486885 0.000394484 0)
(-0.00503951 0.000394297 0)
(-0.00521005 0.000393996 0)
(-0.0053804 0.00039358 0)
(-0.00555051 0.000393046 0)
(-0.00572031 0.000392387 0)
(-0.00588975 0.000391596 0)
(-0.00605876 0.000390663 0)
(-0.00622727 0.000389579 0)
(-0.0063952 0.000388332 0)
(-0.00656246 0.000386911 0)
(-0.00672899 0.000385301 0)
(-0.00689469 0.00038349 0)
(-0.00705946 0.000381464 0)
(-0.00722321 0.000379209 0)
(-0.00738582 0.00037671 0)
(-0.00754719 0.000373952 0)
(-0.00770719 0.000370922 0)
(-0.00786571 0.000367603 0)
(-0.00802261 0.000363983 0)
(-0.00817776 0.000360046 0)
(-0.008331 0.000355779 0)
(-0.00848221 0.000351168 0)
(-0.00863123 0.0003462 0)
(-0.0087779 0.000340862 0)
(-0.00892206 0.000335142 0)
(-0.00906353 0.000329029 0)
(-0.00920216 0.00032251 0)
(-0.00933777 0.000315577 0)
(-0.00947017 0.000308221 0)
(-0.00959919 0.000300431 0)
(-0.00972465 0.000292202 0)
(-0.00984635 0.000283526 0)
(-0.00996411 0.000274399 0)
(-0.0100777 0.000264814 0)
(-0.0101871 0.000254769 0)
(-0.0102918 0.000244263 0)
(-0.0103919 0.000233295 0)
(-0.0104871 0.000221864 0)
(-0.0105772 0.000209972 0)
(-0.0106621 0.000197624 0)
(-0.0107415 0.000184822 0)
(-0.0108152 0.000171574 0)
(-0.0108831 0.000157887 0)
(-0.010945 0.000143771 0)
(-0.0110008 0.000129235 0)
(-0.0110503 0.00011429 0)
(-0.0110932 9.8952e-05 0)
(-0.0111295 8.32357e-05 0)
(-0.011159 6.71567e-05 0)
(-0.0111817 5.07342e-05 0)
(-0.0111972 3.39874e-05 0)
(-0.0112056 1.69376e-05 0)
(-0.0112067 -3.92469e-07 0)
(-0.0112005 -1.79792e-05 0)
(-0.0111867 -3.57962e-05 0)
(-0.0111654 -5.38171e-05 0)
(-0.0111365 -7.20134e-05 0)
(-0.0111 -9.03559e-05 0)
(-0.0110557 -0.000108814 0)
(-0.0110037 -0.000127355 0)
(-0.0109439 -0.000145947 0)
(-0.0108763 -0.000164555 0)
(-0.0108011 -0.000183145 0)
(-0.0107181 -0.000201682 0)
(-0.0106274 -0.000220127 0)
(-0.010529 -0.000238445 0)
(-0.0104232 -0.000256598 0)
(-0.0103098 -0.000274547 0)
(-0.0101891 -0.000292255 0)
(-0.0100611 -0.000309682 0)
(-0.00992607 -0.00032679 0)
(-0.009784 -0.000343539 0)
(-0.00963513 -0.000359893 0)
(-0.00947958 -0.000375811 0)
(-0.00931761 -0.000391257 0)
(-0.0091494 -0.000406194 0)
(-0.00897516 -0.000420583 0)
(-0.00879513 -0.000434391 0)
(-0.00860958 -0.000447582 0)
(-0.00841873 -0.000460122 0)
(-0.00822288 -0.000471981 0)
(-0.00802233 -0.000483125 0)
(-0.00781733 -0.000493527 0)
(-0.00760824 -0.00050316 0)
(-0.00739534 -0.000511994 0)
(-0.00717898 -0.00052001 0)
(-0.00695949 -0.000527183 0)
(-0.0067372 -0.000533495 0)
(-0.0065125 -0.000538928 0)
(-0.00628572 -0.000543468 0)
(-0.00605724 -0.000547101 0)
(-0.00582741 -0.000549818 0)
(-0.0055966 -0.000551612 0)
(-0.0053652 -0.000552475 0)
(-0.00513358 -0.000552408 0)
(-0.00490212 -0.00055141 0)
(-0.00467118 -0.000549486 0)
(-0.00444115 -0.000546637 0)
(-0.0042124 -0.000542877 0)
(-0.0039853 -0.000538212 0)
(-0.00376019 -0.000532659 0)
(-0.00353745 -0.000526231 0)
(-0.00331744 -0.000518947 0)
(-0.00310048 -0.000510829 0)
(-0.00288692 -0.000501897 0)
(-0.0026771 -0.000492176 0)
(-0.00247131 -0.000481693 0)
(-0.00226987 -0.000470476 0)
(-0.00207309 -0.000458554 0)
(-0.00188124 -0.00044596 0)
(-0.00169459 -0.000432724 0)
(-0.00151341 -0.000418881 0)
(-0.00133794 -0.000404465 0)
(-0.00116843 -0.000389511 0)
(-0.00100507 -0.000374056 0)
(-0.000848089 -0.000358136 0)
(-0.000697667 -0.000341789 0)
(-0.000553984 -0.000325051 0)
(-0.000417195 -0.000307961 0)
(-0.000287448 -0.000290555 0)
(-0.000164875 -0.000272874 0)
(-4.95869e-05 -0.000254954 0)
(5.83107e-05 -0.000236833 0)
(0.000158741 -0.000218551 0)
(0.000251639 -0.000200146 0)
(0.000336947 -0.000181656 0)
(0.000414633 -0.000163121 0)
(0.000484677 -0.000144582 0)
(0.000547086 -0.000126079 0)
(0.000601868 -0.000107653 0)
(0.00064906 -8.93498e-05 0)
(0.000688726 -7.12134e-05 0)
(0.000720931 -5.32923e-05 0)
(0.000745781 -3.56384e-05 0)
(0.000763383 -1.83054e-05 0)
(0.000773897 -1.3532e-06 0)
(0.000777476 1.51535e-05 0)
(0.000774329 3.11434e-05 0)
(0.000764689 4.65383e-05 0)
(0.000748818 6.12505e-05 0)
(0.000727023 7.51827e-05 0)
(0.000699646 8.82245e-05 0)
(0.000667079 0.000100254 0)
(0.000629761 0.000111133 0)
(0.000588202 0.000120707 0)
(0.000542953 0.000128803 0)
(0.000494645 0.000135227 0)
(0.000443974 0.000139766 0)
(0.000391713 0.000142187 0)
(0.000338716 0.000142236 0)
(0.000285912 0.000139647 0)
(0.000234308 0.000134149 0)
(0.00018498 0.000125485 0)
(0.000139059 0.000113442 0)
(9.77107e-05 9.79085e-05 0)
(6.20975e-05 7.8971e-05 0)
(3.33867e-05 5.70773e-05 0)
(1.3068e-05 3.33253e-05 0)
(1.50664e-06 1.00072e-05 0)
(-7.54982e-08 -9.57406e-06 0)
(-3.40223e-06 -9.36698e-06 0)
(-1.31818e-05 5.53079e-06 0)
(-3.15762e-05 3.05069e-05 0)
(-6.00445e-05 6.21136e-05 0)
(-9.95931e-05 9.77168e-05 0)
(-0.000150809 0.000135333 0)
(-0.000213931 0.000173503 0)
(-0.000288928 0.000211175 0)
(-0.000375553 0.00024761 0)
(-0.000473397 0.000282304 0)
(-0.000581933 0.000314931 0)
(-0.000700554 0.000345298 0)
(-0.0008286 0.000373312 0)
(-0.000965382 0.000398953 0)
(-0.00111021 0.000422259 0)
(-0.00126239 0.000443308 0)
(-0.00142125 0.000462205 0)
(-0.00158615 0.000479073 0)
(-0.00175648 0.000494049 0)
(-0.00193166 0.000507277 0)
(-0.00211117 0.000518901 0)
(-0.00229449 0.000529064 0)
(-0.00248119 0.000537907 0)
(-0.00267085 0.000545562 0)
(-0.00286308 0.000552156 0)
(-0.00305756 0.000557806 0)
(-0.00325399 0.000562621 0)
(-0.00345208 0.000566702 0)
(-0.00365161 0.000570139 0)
(-0.00385234 0.000573011 0)
(-0.0040541 0.000575392 0)