/*--------------------------------*- C++ -*----------------------------------*\
  =========                 |
  \\      /  F ield         | OpenFOAM: The Open Source CFD Toolbox
   \\    /   O peration     | Website:  https://openfoam.org
    \\  /    A nd           | Version:  6
     \\/     M anipulation  |
\*---------------------------------------------------------------------------*/
FoamFile
{
    version     2.0;
    format      ascii;
    class       volVectorField;
    location    "0";
    object      U;
}
// * * * * * * * * * * * * * * * * * * * * * * * * * * * * * * * * * * * * * //

dimensions      [0 1 -1 0 0 0 0];

internalField   nonuniform List<vector> 
918
(
(0.985692 0.003846 0)
(-0.00401147 2.9674 0)
(-0.00285129 1.61801 0)
(0.980729 -0.00205804 0)
(-0.00776651 1.57636 4.75076e-22)
(0.0013593 2.95101 -1.41063e-18)
(0.848374 1.17622 4.82049e-19)
(0.463966 0.197861 -5.89648e-21)
(0.999912 -0.000293697 0)
(0.0182731 0.837836 0)
(-0.00323945 1.27012 0)
(0.794133 -0.00845103 0)
(0.00899929 2.93467 0)
(0.00427859 2.79727 0)
(-0.000878792 3.19954 7.85516e-19)
(-0.0108517 1.49122 -7.37013e-21)
(0.577152 0.0817881 3.71659e-19)
(0.189889 1.11191 4.38031e-19)
(0.965676 0.00377523 0)
(-0.00411426 1.39465 0)
(0.204667 0.257489 -3.13533e-19)
(1.00179 -0.00505246 0)
(1.00171 -0.00830358 0)
(0.977486 -0.00485619 0)
(0.715033 -0.0201966 0)
(0.030481 2.63733 0)
(-0.0105985 2.91559 4.72684e-19)
(-0.0188194 1.64259 0)
(-0.0186657 1.7548 0)
(-0.0211219 1.63895 0)
(-0.00571366 1.8244 0)
(0.000304602 1.5967 -3.71791e-22)
(-0.0106162 1.49191 0)
(-0.0197529 2.98961 -4.95373e-23)
(-0.0137446 3.00794 1.1102e-18)
(0.00163208 2.9997 0)
(0.874393 -0.00657712 0)
(0.370557 0.918369 -1.83133e-20)
(0.858977 1.18858 -7.20353e-19)
(0.995928 1.04942 6.51647e-19)
(0.722969 1.2647 -1.1338e-19)
(0.726256 1.24204 6.43502e-19)
(0.498776 0.27961 5.75105e-21)
(0.491554 0.172389 0)
(1.18727 0.539412 0)
(0.464454 0.31032 2.69195e-20)
(0.411841 0.20844 -2.79441e-20)
(0.922849 -0.00585301 0)
(1.0003 -2.67102e-05 0)
(0.999891 0.000332684 0)
(1.00323 -0.00754548 0)
(1.00092 -0.00111335 0)
(1.00017 -3.54018e-05 0)
(0.0847266 1.65964 -1.72313e-19)
(0.0179898 0.914716 0)
(0.0869286 0.800159 0)
(-0.0311554 0.980905 0)
(-0.0233014 0.919364 0)
(-0.00293778 1.58374 0)
(-0.0109347 1.42566 0)
(-0.0132741 1.24031 0)
(-0.0101405 1.47319 0)
(-0.00728342 1.28178 0)
(0.871987 0.000277235 0)
(0.881545 0.0120332 0)
(0.805601 -0.00241499 0)
(0.875436 0.0166718 0)
(0.774558 -0.00770687 0)
(0.0136968 3.00361 5.09116e-19)
(0.0115063 3.00453 0)
(0.0073551 3.00383 0)
(0.0106831 2.9982 5.69339e-24)
(0.0061686 2.96194 -7.66075e-19)
(0.0117868 2.98441 0)
(0.0084092 2.90902 0)
(0.021981 2.93285 1.04081e-24)
(0.00453424 2.82748 0)
(0.0272046 2.91941 0)
(-0.000967082 2.74679 0)
(0.31224 3.60522 0)
(-0.12795 3.68738 0)
(0.151025 3.29134 -7.27918e-19)
(0.00583139 3.02164 0)
(-0.0123348 1.80383 0)
(-0.00371111 1.63291 7.26933e-21)
(-0.00628215 1.50418 -1.24025e-20)
(0.629963 0.148886 -1.27822e-19)
(0.589155 0.043353 -1.23653e-19)
(0.605846 0.186517 -3.8612e-19)
(0.543031 0.113785 -2.57314e-19)
(0.284443 0.957959 0)
(0.291365 1.244 -4.35066e-19)
(0.36247 1.23782 7.16949e-19)
(0.989313 0.00659427 0)
(0.945757 0.00560201 0)
(0.999816 0.00077516 0)
(1.00378 0.00761502 0)
(1.00339 0.00866418 -6.91147e-19)
(0.992858 0.00735461 5.29091e-19)
(-0.0198132 1.5327 0)
(-0.00915609 1.37543 0)
(-0.0240467 1.64654 0)
(-0.0219822 1.57386 0)
(-0.00238795 1.43311 0)
(0.230152 0.282589 9.64949e-20)
(0.285518 0.254079 0)
(0.994774 -0.00606515 0)
(0.956221 -0.00549011 0)
(0.847902 0.0220915 0)
(0.813496 0.0354866 0)
(0.751205 -0.0154762 0)
(1.01994 -0.00428837 0)
(0.766951 0.0480927 0)
(0.637729 -0.0130212 4.86679e-19)
(-0.0344987 2.86818 2.78969e-19)
(0.035492 2.91395 0)
(0.04503 2.88997 0)
(0.0057364 2.70037 0)
(-0.00817721 2.98768 4.40892e-19)
(-0.0125904 2.89882 0)
(-0.00985331 2.99275 -1.38277e-18)
(-0.00927526 2.9325 4.75672e-19)
(-0.0144007 1.81331 0)
(-0.0113446 1.8084 0)
(-0.00230753 1.62865 -1.62591e-22)
(-0.000550275 1.59717 0)
(-0.0100522 1.49003 0)
(0.934275 -0.00350514 0)
(0.860634 -0.00740938 0)
(0.873226 0.00915032 0)
(0.948664 -0.0036856 0)
(0.890452 -0.00546959 0)
(0.499472 1.11786 1.55734e-20)
(0.548022 1.19052 0)
(0.328482 0.844499 3.54978e-21)
(0.270391 0.710853 0)
(0.962532 1.07607 -1.89745e-19)
(1.07619 0.876088 3.82848e-19)
(0.487146 1.33507 0)
(0.57141 1.33605 0)
(0.593389 1.25032 0)
(0.0999717 0.116525 -7.68741e-20)
(0.523424 0.250991 0)
(0.505692 0.156965 7.35949e-20)
(1.03858 0.925372 0)
(1.10693 0.763591 0)
(1.13725 0.698558 -3.32283e-19)
(1.1659 0.603758 0)
(1.22257 0.38937 3.26707e-20)
(0.957848 -0.00457325 0)
(0.963232 -0.00593296 0)
(0.905007 -0.00457014 0)
(0.985026 -0.0066979 0)
(0.976711 -0.0068384 0)
(0.939374 -0.00507806 0)
(0.999795 0.00218347 0)
(1.00086 0.00120077 0)
(0.999959 0.000719053 0)
(-0.00390262 1.8808 1.08883e-19)
(0.0897718 1.59116 0)
(0.0345092 1.8618 1.14253e-19)
(0.0288153 1.61802 -8.70303e-20)
(0.102766 1.1188 -3.63247e-19)
(0.0871556 0.990027 0)
(0.163171 0.9341 0)
(-0.0614958 1.12526 0)
(-0.0269544 1.06213 0)
(0.00940295 1.73438 -6.32747e-22)
(0.00473296 1.60055 0)
(-0.00602591 1.71855 -2.42893e-20)
(-0.0129237 1.56439 4.8119e-20)
(-0.0316759 1.26383 0)
(-0.0284702 1.36496 0)
(-0.0193143 1.17571 0)
(-0.0118196 1.4997 0)
(-0.00737242 1.30744 0)
(0.953877 0.0164718 0)
(0.89553 0.00402526 0)
(0.93388 0.0108397 0)
(0.861322 -2.62107e-05 0)
(0.817924 0.000516161 0)
(0.907943 0.00680417 0)
(0.896839 0.00535749 0)
(0.808963 -0.00507697 0)
(0.00873292 3.06511 -4.35861e-21)
(0.0135404 3.0573 0)
(0.0121263 2.97251 0)
(0.00734859 2.88116 0)
(0.914933 4.01368 0)
(1.21945 3.39163 7.55528e-19)
(0.0807477 3.10435 0)
(-0.0142274 2.92736 0)
(-0.0142685 1.79702 0)
(-0.0146781 1.79924 0)
(-0.0135342 1.79771 0)
(-0.00757308 1.81243 2.61505e-21)
(-0.01123 1.81105 0)
(-0.0095455 1.80936 0)
(-0.00254201 1.50627 1.51574e-21)
(0.00222423 1.65625 1.31921e-20)
(0.000885559 1.6465 1.26682e-20)
(-0.0014123 1.50242 0)
(0.647976 0.104909 1.89372e-19)
(0.582791 0.0132691 -1.84763e-19)
(0.207115 1.51015 0)
(0.328165 0.70089 -1.52925e-19)
(0.139335 1.61354 -5.21463e-19)
(0.206288 1.17909 5.2049e-19)
(0.907784 0.00872776 0)
(0.968731 0.0102199 0)
(0.97632 0.00978166 0)
(0.927326 0.00791559 0)
(-0.0165476 1.50841 0)
(-0.019247 1.51747 0)
(-0.00953403 1.33936 0)
(0.415861 0.312536 2.46392e-19)
(0.361085 0.287808 -2.99604e-19)
(0.373886 0.234332 0)
(1.13838 0.0859502 -3.52078e-21)
(1.1254 0.0416491 0)
(1.05313 0.0391902 0)
(0.960712 0.010282 0)
(0.658648 0.0765407 0)
(0.695348 0.0500566 -7.90836e-19)
(0.588048 -0.0119888 3.07416e-19)
(0.01109 2.98165 3.36459e-19)
(-0.0281975 2.86716 3.20571e-20)
(0.00679145 3.05002 -9.39228e-21)
(0.0156216 3.0412 3.57343e-19)
(-0.00950031 3.00008 1.58452e-20)
(-0.0088471 2.95409 -6.46475e-23)
(-0.0151092 3.01276 -3.02407e-19)
(0.0128151 3.02355 2.14148e-19)
(0.00616185 3.03211 -3.43793e-19)
(0.931925 0.00639935 0)
(0.934273 0.000229118 0)
(0.853467 -0.00357169 0)
(0.95817 0.0122131 0)
(0.946418 0.0109374 0)
(0.889687 0.00904906 0)
(0.921514 0.0111515 0)
(0.933268 0.0147168 0)
(0.845231 0.00886706 0)
(0.690013 1.42546 2.01904e-19)
(0.710456 1.53863 0)
(0.189659 0.377121 1.56351e-20)
(0.155126 0.534827 1.23255e-19)
(0.232756 0.658875 -7.44849e-20)
(0.198153 0.54843 1.35565e-19)
(0.286929 0.675206 4.5677e-19)
(0.119323 0.153456 1.47306e-19)
(0.570476 0.215658 2.7686e-19)
(0.550334 0.240175 6.82211e-20)
(0.527739 0.141051 1.37951e-19)
(1.21255 0.449379 2.13708e-19)
(1.23327 0.246998 2.22639e-19)
(0.0284415 1.79074 3.84559e-20)
(0.0296579 1.58016 0)
(1.0002 0.0308236 0)
(0.96758 0.0206874 0)
(0.919716 0.00124905 0)
(0.0114146 3.07281 0)
(0.0173763 2.94636 6.05208e-19)
(0.0139577 2.95919 0)
(0.00592861 2.85407 -6.01894e-19)
(0.00857556 3.08944 1.42987e-19)
(0.0102408 3.08029 0)
(0.730796 1.83315 -1.67513e-19)
(1.26381 2.62578 5.55891e-19)
(0.710841 2.00484 -1.13063e-18)
(0.0229058 2.98428 -2.58509e-19)
(0.0413785 3.01002 0)
(-0.0323663 2.88638 0)
(-0.00810953 1.67674 -3.5781e-21)
(-0.0018062 1.66717 -3.10368e-20)
(-0.0049249 1.5295 -4.11742e-21)
(0.240369 1.29065 4.84476e-19)
(0.290256 0.444667 -3.34863e-19)
(0.0304718 1.84985 3.30004e-19)
(0.0785108 1.78289 -4.23812e-19)
(0.150902 1.43014 6.89738e-20)
(0.00828499 3.11703 -7.81635e-19)
(0.0143026 3.1183 8.76236e-19)
(-0.00452243 2.98172 3.94965e-19)
(-0.000944766 2.9777 -3.60315e-19)
(-0.0156969 2.88216 -4.0239e-19)
(0.0120585 3.09626 -1.05041e-18)
(0.00421277 3.10314 1.0684e-18)
(0.18269 0.564331 0)
(0.126628 0.517137 -2.48325e-19)
(0.106003 0.167703 1.09829e-19)
(0.306939 0.776532 4.39744e-19)
(0.18461 0.199044 -6.7056e-19)
(1.22322 0.16929 -4.52251e-20)
(1.23095 0.304259 0)
(1.21826 0.112344 8.86378e-20)
(0.0178858 1.75083 -5.31569e-22)
(0.040442 1.76799 0)
(0.0267969 1.59208 0)
(0.26996 1.18739 -1.70907e-19)
(0.327258 1.00879 -3.64703e-19)
(0.224592 0.310734 6.22358e-19)
(1.0059 -0.0106445 0)
(1.00678 -0.00698422 1.27799e-19)
(-0.0152537 1.80275 0)
(-0.0252301 1.81201 0)
(1.00151 0.00329022 1.17756e-21)
(1.00318 0.008733 2.59292e-19)
(-0.00782658 1.81616 -3.49081e-21)
(-0.00850691 1.81489 0)
(0.0474792 3.17904 1.34001e-19)
(0.381751 3.5504 0)
(1.07848 0.681862 4.19294e-20)
(1.0114 0.0122067 -1.42395e-21)
(1.01989 -0.00928279 0)
(1.00155 5.27728e-05 3.7033e-23)
(-0.0875453 1.08918 0)
(-0.0198526 2.6893 0)
(-0.0927349 1.67864 0)
(-0.0657668 1.97828 4.86578e-20)
(-0.0535584 1.88687 2.71117e-20)
(1.0043 0.0120328 1.54747e-21)
(1.04555 0.0163305 0)
(1.07419 0.0268701 0)
(-0.0159898 1.8014 0)
(-0.00948929 1.82829 0)
(-0.0261698 1.79696 0)
(0.322277 1.40565 -3.03531e-19)
(1.00945 -0.0091443 0)
(1.00865 -0.0148133 0)
(1.00219 0.000373738 1.60478e-19)
(1.00524 -0.00512281 -1.92145e-19)
(1.00117 -0.00106959 0)
(-0.0184604 1.79822 0)
(-0.0167624 1.79762 0)
(-0.0160172 1.79887 0)
(-0.0272717 1.79768 0)
(-0.0248894 1.79433 0)
(-0.0282093 1.79754 0)
(1.02224 -0.0122601 0)
(1.01872 0.0142216 -8.32672e-22)
(0.765592 1.30204 3.57877e-19)
(1.00319 0.000347246 -1.60927e-19)
(1.00326 0.00464185 1.94434e-19)
(1.00132 0.00202168 0)
(1.01196 0.0106186 1.57394e-19)
(1.00728 0.00867252 -1.96132e-19)
(1.00899 0.0127386 0)
(-0.010502 1.82798 0)
(-0.0105302 1.82294 6.32538e-21)
(-0.0113097 1.82087 -4.51545e-21)
(1.18812 0.259981 -6.6226e-20)
(1.12514 0.0920751 0)
(0.0586006 3.08659 -4.09668e-19)
(0.0524427 2.86567 -3.11018e-20)
(0.121295 3.20486 5.28604e-19)
(0.130114 3.22118 -5.05971e-20)
(0.150443 3.26302 0)
(0.0237657 3.13725 1.01303e-19)
(0.0713357 3.16195 4.03047e-19)
(0.0692707 3.18373 -1.93616e-19)
(0.0302111 3.12529 0)
(0.676506 0.337493 0)
(0.641515 0.391895 0)
(1.07187 0.706202 -1.61249e-19)
(1.03237 0.856816 2.51849e-19)
(1.13251 0.603143 0)
(1.16415 0.545674 0)
(1.01466 0.0121487 -2.92771e-19)
(1.01317 0.0123992 3.64925e-19)
(1.02365 -0.00977964 0)
(1.0208 -0.0152826 0)
(1.0072 0.00279559 0)
(1.00979 0.00293159 0)
(1.00396 0.00235498 0)
(1.00805 0.00671959 0)
(1.0074 0.00520691 0)
(1.0039 0.00491268 0)
(-0.110728 1.12428 0)
(-0.149059 1.0964 0)
(0.0764271 1.09572 0)
(0.1199 1.1523 0)
(0.0395483 2.7077 0)
(0.118595 2.71274 -1.33053e-19)
(-0.102918 2.67994 0)
(-0.135291 2.59263 1.59016e-21)
(-0.0948901 2.21503 -6.12986e-20)
(-0.0752303 1.69333 0)
(-0.051657 1.71936 0)
(-0.112004 1.63831 0)
(-0.10664 1.57044 0)
(-0.180274 1.89798 -1.41117e-20)
(-0.0641336 1.91051 2.80916e-20)
(-0.0624652 1.97222 3.59038e-20)
(-0.0520948 1.9454 0)
(-0.0520746 1.8852 -6.08159e-20)
(-0.0347786 1.86774 -2.61114e-20)
(-0.157694 1.87676 1.13503e-20)
(-0.0980833 1.87998 -3.68081e-20)
(-0.0996732 1.92915 -4.64091e-20)
(1.01368 0.0225346 2.88897e-19)
(1.01401 0.0108877 -3.55136e-19)
(1.00554 0.0202588 -2.9865e-19)
(0.992637 0.0132076 3.84271e-19)
(1.04484 0.0186918 0)
(1.03284 0.00229338 0)
(1.06378 0.0402428 0)
(1.05295 0.0256522 0)
(1.05793 0.0143478 0)
(1.10481 0.0780296 0)
(1.08342 0.0521661 0)
(1.09633 0.0432776 0)
(-0.0107096 1.81856 -8.08938e-22)
(-0.0168389 1.80891 0)
(-0.0125093 1.81209 0)
(-0.0079925 1.83249 7.999e-21)
(-0.00540742 1.83431 -3.47116e-22)
(-0.0217058 1.8047 7.57698e-21)
(-0.0231313 1.80172 -7.61464e-21)
(-0.0265855 1.80109 0)
(-0.025102 1.80114 0)
(-0.0242626 1.80089 0)
(-0.0256491 1.79602 0)
(-0.0219201 1.78637 0)
(0.42203 1.46461 5.78977e-19)
(0.386661 1.47041 2.13949e-19)
(0.635372 2.41492 -1.13407e-19)
(0.412898 2.5368 3.16476e-19)
(0.436209 2.02892 -3.15422e-20)
(1.01987 -0.00703747 0)
(1.01404 -0.00967962 0)
(1.01697 -0.0140722 0)
(1.00738 -0.000919488 0)
(1.00427 -0.00120945 0)
(1.00655 -0.00385049 0)
(1.00998 -0.00487584 0)
(1.01276 -0.00529654 0)
(1.02003 0.0134851 2.83328e-19)
(1.01229 0.0108905 -3.58233e-19)
(1.02224 0.0161657 -2.8276e-19)
(1.01858 0.0160007 3.53841e-19)
(0.737615 1.33227 0)
(0.659845 1.37899 4.08537e-19)
(0.847874 1.2122 2.35625e-19)
(0.853119 1.2057 -3.12576e-19)
(1.15595 2.63057 -3.4507e-19)
(0.836082 0.127533 1.92022e-19)
(1.13002 0.0965376 0)
(1.16605 0.179731 5.45653e-20)
(1.15186 0.158342 2.56088e-21)
(0.97676 0.124964 0)
(0.108536 3.02651 -3.65192e-20)
(0.107833 2.90211 -4.80816e-19)
(0.0499861 2.34478 3.22449e-19)
(0.177839 0.062488 -1.42391e-19)
(0.352028 3.45691 -3.1102e-19)
(0.20119 3.34745 0)
(0.231313 3.40448 4.04944e-19)
(0.242777 3.08624 -1.79895e-19)
(0.278282 3.20889 0)
(0.00858181 3.1193 2.18147e-20)
(0.0203368 3.12836 -2.6709e-19)
(0.0185364 3.12413 3.92375e-19)
(0.0375758 3.13734 0)
(0.0352856 3.14957 0)
(1.25402 2.60362 0)
(0.489344 0.838638 -1.51755e-19)
(0.95767 1.04365 -1.32212e-19)
(0.944967 1.06298 0)
(0.799041 0.948519 3.46501e-20)
(1.02608 0.900132 1.93812e-20)
(0.433322 0.459998 -3.55479e-19)
(0.708487 0.33563 -1.63494e-20)
(0.699438 0.288538 1.46172e-19)
(0.643643 0.414593 1.15018e-20)
(0.5858 0.41487 -4.75442e-19)
(0.690792 0.346074 0)
(0.710018 0.421249 2.44172e-19)
(0.708823 0.420683 0)
(0.679505 0.378925 0)
(0.657997 0.336353 0)
(0.717355 0.610087 8.19474e-20)
(1.19194 0.284203 5.05001e-20)
(1.17076 0.41748 0)
(1.17842 0.388386 0)
(0.763303 0.226704 2.20448e-19)
(0.776174 0.516032 -1.22921e-19)
(0.724328 0.479868 2.01299e-19)
(0.908117 0.408136 -1.78591e-19)
(1.01817 0.0102087 1.9219e-19)
(1.0165 0.0117025 -1.9493e-19)
(1.01329 0.0106935 0)
(1.02354 -0.0139424 0)
(1.02386 -0.0132881 -1.75103e-19)
(1.01858 -0.0193705 1.73323e-19)
(1.03124 0.00552095 0)
(1.02738 0.015384 0)
(1.01195 0.0048954 0)
(1.01387 0.00844173 0)
(1.01622 0.00307723 0)
(1.01369 0.00166804 0)
(-0.207559 1.23209 0)
(-0.212063 1.25816 0)
(0.111835 1.00845 3.44849e-19)
(0.307785 1.38874 1.83366e-19)
(0.236682 1.20906 4.10783e-19)
(0.227832 1.27343 -6.55847e-19)
(0.30799 1.17627 0)
(0.238613 1.89406 4.36873e-19)
(0.0519329 1.78303 0)
(0.488678 2.12992 4.65338e-20)
(0.404318 2.42424 1.45046e-19)
(0.462323 1.48042 -3.80803e-19)
(0.424452 1.31522 1.64945e-19)
(0.365389 1.172 -1.32327e-19)
(0.508204 1.32457 3.07787e-19)
(0.521969 1.7589 0)
(0.480595 1.72223 -2.30347e-19)
(-0.336118 2.18154 3.53286e-20)
(-0.155706 2.34545 0)
(-0.301846 2.38338 -1.22501e-19)
(-0.320406 2.30171 0)
(-0.152576 2.54722 -2.34744e-21)
(-0.12836 2.41103 0)
(-0.173847 1.76255 7.1131e-22)
(-0.239877 1.8213 0)
(-0.216646 1.66585 0)
(-0.17955 1.68652 -8.01488e-22)
(-0.0874359 2.0386 -2.05354e-20)
(-0.0827371 2.18372 6.71644e-20)
(-0.0578008 2.08186 4.32973e-22)
(-0.0973623 1.83182 1.64286e-20)
(-0.117899 1.8258 5.88967e-21)
(-0.0386756 1.74648 0)
(-0.0239429 1.75987 0)
(-0.350735 1.9136 -4.92718e-20)
(-0.301536 1.69987 -5.83638e-20)
(-0.274984 1.82377 7.00801e-20)
(-0.424201 1.87026 0)
(-0.0181267 1.82348 -3.09658e-20)
(-0.0166761 1.83282 1.43396e-20)
(-0.0174318 1.83654 -4.28254e-21)
(-0.0760973 1.8207 -1.98631e-20)
(-0.0452997 1.8586 -7.67619e-21)
(-0.0571383 1.86491 4.16067e-20)
(1.02347 0.0148048 -1.87164e-19)
(1.02328 0.0126914 1.88682e-19)
(1.0192 0.010188 0)
(1.0013 0.0428005 2.70739e-19)
(0.994588 0.0318637 -3.18375e-19)
(0.971494 0.0276599 3.65462e-19)
(0.994463 0.081014 -3.56503e-20)
(1.02456 -0.0111066 0)
(1.03099 0.00435425 1.56334e-19)
(1.02279 -0.0101601 -1.55249e-19)
(1.04808 0.0374456 -8.50118e-21)
(1.04819 0.0310618 7.57525e-20)
(1.04405 0.0549773 0)
(1.03489 0.0442303 -2.87172e-20)
(1.02777 0.0301155 0)
(1.02397 0.0231919 0)
(1.03594 0.0088874 0)
(1.03178 0.0117002 0)
(1.03485 0.0288016 5.943e-20)
(1.03786 0.0216281 -1.3488e-19)
(1.03873 0.0327349 -5.95712e-20)
(1.03786 0.0321156 -6.9524e-20)
(1.04004 0.0587033 1.2258e-19)
(1.06692 0.0557436 0)
(1.05444 0.0932907 0)
(-0.0182901 1.82362 -1.12184e-20)
(-0.0176166 1.81298 -9.56991e-22)
(-0.0197161 1.81362 0)
(-0.0144495 1.82458 1.17651e-20)
(-0.012457 1.82025 1.70583e-21)
(-0.012932 1.82329 -1.62846e-21)
(-0.0295313 1.86266 2.18551e-20)
(-0.0187015 1.845 -1.65953e-21)
(-0.0293744 1.84946 8.11064e-21)
(-0.00645661 1.84266 -1.1513e-20)
(-0.0123065 1.84661 1.40776e-20)
(-0.0254019 1.80652 5.83672e-23)
(-0.0241505 1.80896 1.33166e-20)
(0.479287 1.40273 -2.83176e-19)
(0.473782 1.41767 -2.69779e-19)
(0.638203 1.41899 -3.95443e-19)
(0.502231 1.47542 -2.103e-19)
(0.523788 1.46214 0)
(0.607407 2.39473 9.57419e-20)
(0.694104 2.35639 1.6623e-19)
(0.423996 2.51301 6.81643e-20)
(0.445202 2.56894 -9.06116e-20)
(0.552523 2.50892 2.17484e-19)
(0.534108 2.4558 0)
(0.553351 2.46263 -2.55022e-19)
(0.243031 2.65623 4.03588e-19)
(0.383092 2.58323 -3.83895e-20)
(0.261343 2.68806 -6.51875e-19)
(0.924548 2.37838 1.37545e-19)
(0.825503 2.35304 0)
(1.01089 0.000783736 6.33449e-21)
(1.01435 -0.00478503 -5.24503e-21)
(1.01446 -0.00354005 -9.2478e-20)
(1.01368 -0.0015211 9.46842e-20)
(1.01322 0.000491874 0)
(0.627052 1.26531 0)
(0.645092 1.14478 0)
(0.743955 1.09078 0)
(0.633202 1.11505 0)
(1.18719 2.65059 2.95314e-20)
(1.06816 2.38365 0)
(0.839789 2.27941 -1.45586e-21)
(0.808147 2.50426 0)
(0.903737 2.59039 5.36181e-21)
(0.9367 2.54033 -3.54119e-21)
(0.835363 0.134488 0)
(0.808994 0.144887 5.57222e-20)
(0.921124 0.131379 2.83002e-19)
(0.864204 0.109449 -1.11788e-19)
(0.852955 0.0801349 -3.43742e-19)
(1.02613 0.209035 -1.58353e-19)
(0.945808 0.27124 -7.40876e-21)
(0.885797 0.298789 2.48164e-19)
(0.975794 0.208642 1.84815e-19)
(0.925872 0.168777 -3.56042e-19)
(0.895766 0.177403 4.73162e-20)
(0.910823 0.274915 -8.71306e-20)
(0.890347 0.191379 0)
(0.972058 0.170119 1.68846e-19)
(1.00348 0.170089 0)
(1.00493 0.184319 0)
(1.08309 0.105346 4.91468e-20)
(1.01209 0.14877 -6.77171e-21)
(1.01491 0.216306 -3.21167e-20)
(1.0582 0.182343 0)
(1.01686 0.0261605 1.43112e-19)
(1.02832 0.0443598 1.69259e-19)
(1.02492 0.0311114 -1.41113e-19)
(1.02026 0.0466198 -1.14261e-19)
(1.00497 0.0472199 -1.9087e-19)
(0.977702 0.127159 0)
(0.978911 0.0757013 0)
(0.971142 0.0462104 -1.31692e-19)
(0.934837 0.0604029 5.58773e-20)
(1.00486 0.081533 1.61609e-19)
(1.02477 0.107719 -1.56326e-19)
(1.01905 0.137383 1.46733e-19)
(0.997167 0.122631 0)
(1.03861 0.0972953 0)
(1.02331 0.0815023 -6.61816e-20)
(1.02161 0.0788023 -1.28546e-19)
(0.597744 1.08927 -7.19495e-20)
(0.625881 1.44924 1.42917e-19)
(1.15145 2.75506 4.5331e-20)
(1.20183 3.12744 -4.95752e-20)
(1.2496 2.75145 3.72754e-19)
(1.29296 2.72508 -1.90809e-19)
(1.25913 2.34761 -1.95703e-20)
(1.18693 3.03098 1.44442e-19)
(1.20478 2.98827 -1.44475e-19)
(1.18832 3.28088 -1.83742e-19)
(1.40296 2.99561 2.21352e-19)
(1.41795 2.92868 0)
(0.511427 0.854481 -7.66333e-21)
(0.244908 1.27492 1.93312e-19)
(0.48459 0.543909 2.30833e-19)
(0.33692 0.320702 2.69149e-19)
(0.58149 0.435788 2.6518e-19)
(0.54853 0.508095 -4.22283e-19)
(0.548177 0.51403 3.50885e-19)
(0.529868 0.475392 -1.39121e-19)
(0.509829 0.415073 3.19891e-19)
(0.769315 0.268317 -1.23655e-19)
(0.738383 0.285666 0)
(0.733387 0.253412 7.35638e-21)
(0.703826 0.514746 1.28361e-19)
(0.677729 0.482237 -4.72861e-19)
(0.636914 0.503123 1.5291e-20)
(0.653275 0.474485 0)
(0.651661 0.741553 9.23925e-20)
(0.738747 0.766256 5.3925e-20)
(0.694997 0.836586 -6.74882e-20)
(0.814686 0.7904 -1.27381e-20)
(0.872398 0.837194 9.17528e-21)
(0.875175 0.843618 -9.429e-21)
(0.792738 0.637446 -1.39908e-19)
(0.879661 0.700867 1.18655e-20)
(0.941342 0.7015 0)
(0.927599 0.669566 -6.35047e-21)
(0.976864 0.321269 3.96886e-20)
(1.0918 0.298067 -6.96729e-21)
(1.01017 0.254714 6.35115e-20)
(0.950051 0.351216 -9.23841e-20)
(0.985075 0.432698 0)
(1.0521 0.406532 0)
(0.88598 0.354819 7.52892e-21)
(0.817936 0.294214 0)
(0.835667 0.284987 1.29776e-19)
(0.879993 0.301223 -3.84763e-22)
(0.902146 0.414069 4.90682e-19)
(0.841522 0.485177 1.24909e-19)
(0.854734 0.431175 -1.64983e-19)
(0.804624 0.423196 1.75618e-19)
(0.796892 0.411968 1.18879e-19)
(0.787366 0.394872 -1.16222e-19)
(1.02263 -0.00986261 1.48849e-19)
(1.01938 -0.00695166 0)
(1.01731 -0.00466658 1.00265e-19)
(1.02251 -0.00671114 -2.25723e-19)
(1.02404 -0.0027231 1.09427e-19)
(1.02333 0.00787502 -2.31511e-19)
(1.02452 0.00990065 0)
(1.02253 0.0123964 -4.81641e-20)
(1.01715 0.00475092 1.2073e-19)
(1.01655 0.0095845 -6.13043e-20)
(1.01813 0.00793956 4.48133e-20)
(-0.165437 1.52698 0)
(-0.255952 1.62377 0)
(-0.21784 1.37851 0)
(-0.157705 1.42776 0)
(-0.358021 1.49854 -5.45107e-19)
(-0.236561 1.319 1.72585e-19)
(-0.167808 1.78245 1.77599e-19)
(-0.206505 1.52176 -1.81676e-19)
(-0.362266 1.69306 1.08503e-19)
(-0.375399 1.67581 -8.27765e-20)
(-0.348126 1.46729 8.0247e-20)
(-0.338042 1.47842 2.15954e-19)
(-0.297615 1.50321 2.03669e-20)
(-0.315361 1.58358 1.13198e-20)
(-0.281026 2.43365 1.3404e-19)
(-0.19694 2.55443 0)
(-0.162145 2.32895 -6.41916e-20)
(-0.213196 1.95286 -1.19561e-19)
(0.423836 2.16891 7.53691e-20)
(0.237016 2.55971 0)
(0.232682 2.52221 -8.14199e-20)
(0.415975 2.4669 5.79872e-20)
(0.31263 2.21137 2.0174e-19)
(0.0796001 2.34726 -1.09299e-19)
(0.0189647 2.6001 0)
(-0.297815 1.99816 3.54763e-20)
(-0.189419 1.99963 -6.21377e-20)
(-0.222295 1.94761 0)
(-0.223029 2.12481 -1.71944e-21)
(-0.319151 2.13122 -1.13531e-20)
(-0.113299 1.753 1.88657e-21)
(-0.0747224 1.7656 -2.56369e-20)
(-0.0705859 1.78216 7.57664e-21)
(-0.11319 1.78069 8.18708e-21)
(-0.151587 1.77448 0)
(-0.0543075 1.7831 0)
(-0.0231892 1.78754 1.35363e-20)
(-0.0308775 1.79616 -4.18814e-21)
(-0.0391225 1.79035 0)
(-0.0238169 1.77662 9.6978e-21)
(-0.0185539 1.77744 -1.97935e-20)
(1.0302 0.0114576 0)
(1.03896 0.014665 -1.47513e-20)
(1.04217 0.022356 -1.06509e-19)
(1.04192 0.0234035 0)
(1.04118 0.0237003 0)
(1.04285 0.00971888 -4.2595e-21)
(1.03952 0.00775852 1.80045e-19)
(1.03916 0.0130204 2.16488e-19)
(1.03295 0.0140304 0)
(1.02837 0.0126968 0)
(1.03666 0.0201996 1.08941e-19)
(1.02731 0.0145974 0)
(1.02804 0.0135254 0)
(-0.0298502 1.82593 0)
(-0.0255845 1.80965 1.61549e-21)
(-0.02444 1.82049 7.58444e-21)
(-0.0281616 1.80036 0)
(-0.0278204 1.81112 7.85168e-21)
(-0.0261435 1.80718 -4.26618e-21)
(-0.0285569 1.80171 0)
(0.354653 1.67351 0)
(0.398755 1.37247 4.18182e-19)
(0.373341 1.37928 0)
(0.432272 1.35177 -5.56998e-19)
(0.489782 1.43024 0)
(0.477639 1.42606 2.6128e-19)
(1.01679 2.71556 -2.74952e-21)
(0.942504 2.40979 -1.70687e-19)
(0.880402 2.15028 2.13744e-19)
(0.83941 2.34974 8.05369e-20)
(0.836516 2.52858 0)
(0.897864 2.53406 0)
(0.909847 2.36952 0)
(0.89117 2.33764 -2.79871e-19)
(0.67525 2.5009 -3.54963e-20)
(0.795685 2.50224 -1.37923e-20)
(0.792182 2.48038 1.08081e-20)
(0.6895 2.35157 0)
(0.790161 2.34862 0)
(0.754712 2.35689 -1.56896e-19)
(0.754511 2.49493 0)
(0.593846 1.05252 0)
(0.491353 0.904737 -3.21223e-20)
(0.498393 0.95506 -1.11018e-21)
(0.50661 1.0705 0)
(0.48886 1.00525 5.47413e-20)
(0.729178 0.881049 6.40277e-21)
(0.758859 1.0048 0)
(0.730174 0.979339 -3.83886e-20)
(0.610596 1.01132 0)
(0.597123 0.93516 0)
(1.15837 2.79029 3.64089e-20)
(1.13738 2.8508 8.9866e-20)
(0.934166 2.39251 -2.10487e-19)
(0.905045 2.36038 2.96957e-20)
(1.12321 2.76735 0)
(1.06815 2.7378 -3.63699e-20)
(1.08302 2.51232 -4.77937e-20)
(0.970838 2.24099 -1.951e-20)
(0.49841 1.40025 0)
(0.514436 1.06377 6.32287e-20)
(0.545279 1.13249 0)
(0.863547 0.200461 0)
(0.810897 0.152386 0)
(0.77343 0.168602 0)
(0.850201 0.217599 -2.04034e-19)
(0.792319 0.22343 1.28511e-19)
(0.936275 0.0583632 -1.13508e-19)
(0.940041 0.1052 0)
(0.927657 0.113231 5.30553e-20)
(0.883613 0.0772969 2.18216e-19)
(0.884044 0.0539119 -1.34088e-19)
(1.11615 3.37809 -6.51127e-19)
(1.17825 3.30267 0)
(1.13732 3.44896 -1.3679e-18)
(0.670865 3.59451 1.17291e-18)
(1.01122 3.11928 2.76686e-19)
(0.494357 0.846441 1.37751e-19)
(0.480589 0.823053 0)
(0.383961 0.560123 -5.33643e-20)
(0.408205 0.692769 2.47695e-19)
(0.501924 0.541313 -7.44212e-20)
(0.497032 0.562322 8.31072e-20)
(0.64376 0.557435 1.70033e-19)
(0.65754 0.572979 0)
(0.597748 0.634952 0)
(0.568835 0.577356 0)
(0.932681 0.582037 -3.06471e-20)
(0.858688 0.516878 -1.19496e-19)
(0.893186 0.567366 4.53118e-20)
(0.933879 0.475855 -8.67825e-20)
(0.994251 0.458894 0)
(1.02181 0.574814 -1.87068e-21)
(0.829656 0.371544 -2.63076e-19)
(0.826535 0.365716 -3.0977e-19)
(0.799711 0.369555 2.05817e-19)
(0.783294 0.341025 -2.31879e-19)
(0.821531 0.303168 -1.73382e-19)
(0.789484 0.299509 2.12723e-19)
(1.03108 -0.0028933 -1.14804e-19)
(1.03252 -0.0028618 2.36e-19)
(1.02471 -0.00983836 1.39371e-19)
(1.02587 -0.00993459 -1.7025e-19)
(1.03332 0.00621136 0)
(1.03543 0.00503661 -2.83843e-19)
(-0.455596 1.96767 -3.12679e-23)
(-0.425649 1.85685 0)
(-0.418532 1.93924 -4.49175e-19)
(-0.353551 1.92146 4.3321e-19)
(-0.328502 1.76358 -3.32605e-19)
(-0.416876 1.803 0)
(-0.0661385 1.821 0)
(-0.0509451 1.79713 -4.48113e-21)
(-0.0379693 1.80052 4.05792e-21)
(-0.0347477 1.8103 2.22396e-21)
(-0.044867 1.82793 -8.87543e-21)
(-0.0512962 1.82782 6.24258e-21)
(0.470865 1.41909 2.6105e-19)
(0.446804 1.41531 -2.78136e-19)
(0.427387 1.32332 2.79257e-19)
(0.398451 1.34894 -1.51561e-20)
(0.631118 1.28994 0)
(0.549531 1.39995 3.53346e-19)
(0.582222 1.35932 -3.42114e-19)
(0.450226 1.28827 -2.66694e-19)
(0.4794 1.23177 0)
(0.54198 1.16908 0)
(0.639503 2.45871 5.25954e-20)
(0.666209 2.45722 4.40521e-19)
(0.70742 2.47111 -2.99974e-19)
(0.644734 2.44249 -8.52548e-20)
(0.567205 2.56255 8.94544e-20)
(0.548749 2.52082 -2.54063e-19)
(0.956297 2.3807 -1.1749e-19)
(1.00092 2.41222 0)
(0.896661 2.14601 -1.46362e-19)
(1.0366 2.72186 0)
(1.03244 2.70631 0)
(0.613113 2.32585 2.2659e-19)
(1.11265 3.12762 2.97765e-19)
(0.984308 3.00287 -3.21709e-19)
(0.331254 0.942296 0)
(0.365368 0.847733 -9.18132e-20)
(0.538668 0.762179 -4.56151e-20)
(0.380041 2.16193 0)
(0.416318 2.77526 -1.96268e-19)
(0.430868 2.51666 0)
(0.640973 0.691581 -1.94992e-19)
(0.695442 0.672352 2.75082e-19)
(0.699545 0.636202 -2.73129e-19)
(0.620694 0.66921 -2.88701e-20)
(0.682054 0.618319 -1.22299e-19)
(0.980391 2.78974 -2.24994e-19)
(1.01999 2.80617 1.64479e-19)
(0.57514 2.24632 -7.81996e-20)
(0.608948 1.77267 2.20182e-20)
(0.701536 1.89293 1.32226e-20)
(0.983957 2.43624 -6.84338e-20)
(0.981151 2.39972 -5.28729e-20)
(0.658837 1.82101 1.60998e-22)
(0.457769 1.32745 -2.85341e-20)
)
;

boundaryField
{
    wall-4
    {
        type            noSlip;
    }
    velocity-inlet-5
    {
        type            fixedValue;
        value           uniform (1 0 0);
    }
    velocity-inlet-6
    {
        type            fixedValue;
        value           uniform (0 3 0);
    }
    pressure-outlet-7
    {
        type            zeroGradient;
    }
    wall-8
    {
        type            noSlip;
    }
    frontAndBackPlanes
    {
        type            empty;
    }
}

