/*--------------------------------*- C++ -*----------------------------------*\
  =========                 |
  \\      /  F ield         | OpenFOAM: The Open Source CFD Toolbox
   \\    /   O peration     | Website:  https://openfoam.org
    \\  /    A nd           | Version:  6
     \\/     M anipulation  |
\*---------------------------------------------------------------------------*/
FoamFile
{
    version     2.0;
    format      ascii;
    class       volScalarField;
    location    "0";
    object      p;
}
// * * * * * * * * * * * * * * * * * * * * * * * * * * * * * * * * * * * * * //

dimensions      [0 2 -2 0 0 0 0];

internalField   nonuniform List<scalar> 
10000
(
0
1.2305e-06
1.73913e-06
1.07655e-06
-1.14462e-06
-5.20952e-06
-1.12871e-05
-1.9425e-05
-2.95474e-05
-4.14671e-05
-5.49055e-05
-6.95207e-05
-8.49363e-05
-0.00010077
-0.000116656
-0.000132266
-0.00014733
-0.000161611
-0.000174892
-0.000187037
-0.000197976
-0.000207684
-0.000216168
-0.000223462
-0.000229619
-0.000234707
-0.000238801
-0.000241983
-0.000244336
-0.000245942
-0.000246882
-0.000247233
-0.000247068
-0.000246451
-0.000245447
-0.000244109
-0.000242489
-0.000240631
-0.000238576
-0.000236361
-0.000234015
-0.000231569
-0.000229046
-0.000226469
-0.000223856
-0.000221225
-0.00021859
-0.000215966
-0.000213364
-0.000210793
-0.000208264
-0.000205784
-0.000203361
-0.000201
-0.000198708
-0.000196488
-0.000194346
-0.000192286
-0.00019031
-0.000188421
-0.000186623
-0.000184917
-0.000183307
-0.000181795
-0.000180383
-0.000179071
-0.000177862
-0.000176758
-0.000175761
-0.000174874
-0.000174102
-0.00017345
-0.000172924
-0.000172533
-0.000172286
-0.000172198
-0.000172285
-0.000172569
-0.000173077
-0.000173846
-0.000174918
-0.000176351
-0.000178215
-0.000180598
-0.000183607
-0.00018737
-0.00019204
-0.000197787
-0.000204802
-0.000213284
-0.000223424
-0.000235392
-0.000249296
-0.000265162
-0.000282799
-0.000301646
-0.000320608
-0.000337836
-0.000349993
-0.000353199
-0.00984592
-0.0098443
-0.00984354
-0.00984394
-0.00984582
-0.00984945
-0.00985499
-0.0098625
-0.00987192
-0.00988307
-0.00989569
-0.00990944
-0.00992397
-0.0099389
-0.0099539
-0.00996863
-0.00998282
-0.00999631
-0.0100089
-0.0100204
-0.0100307
-0.0100398
-0.0100477
-0.0100546
-0.0100603
-0.010065
-0.0100688
-0.0100717
-0.0100738
-0.0100752
-0.010076
-0.0100762
-0.0100759
-0.0100752
-0.0100741
-0.0100727
-0.0100711
-0.0100692
-0.0100671
-0.0100649
-0.0100626
-0.0100602
-0.0100577
-0.0100551
-0.0100525
-0.0100499
-0.0100473
-0.0100448
-0.0100422
-0.0100397
-0.0100372
-0.0100347
-0.0100323
-0.01003
-0.0100277
-0.0100255
-0.0100234
-0.0100214
-0.0100194
-0.0100175
-0.0100157
-0.010014
-0.0100124
-0.0100109
-0.0100095
-0.0100082
-0.010007
-0.0100059
-0.0100049
-0.010004
-0.0100032
-0.0100025
-0.010002
-0.0100016
-0.0100013
-0.0100012
-0.0100013
-0.0100015
-0.010002
-0.0100027
-0.0100037
-0.0100051
-0.0100069
-0.0100091
-0.0100119
-0.0100153
-0.0100195
-0.0100246
-0.0100308
-0.010038
-0.0100465
-0.0100562
-0.0100672
-0.0100791
-0.0100918
-0.0101044
-0.0101162
-0.0101257
-0.0101305
-0.0101283
-0.0196911
-0.019689
-0.0196878
-0.0196878
-0.0196892
-0.0196924
-0.0196975
-0.0197045
-0.0197134
-0.019724
-0.019736
-0.0197492
-0.0197631
-0.0197774
-0.0197918
-0.0198058
-0.0198193
-0.0198321
-0.019844
-0.0198548
-0.0198645
-0.0198731
-0.0198805
-0.0198868
-0.0198921
-0.0198963
-0.0198997
-0.0199022
-0.019904
-0.0199052
-0.0199057
-0.0199057
-0.0199052
-0.0199044
-0.0199032
-0.0199017
-0.0198999
-0.019898
-0.0198959
-0.0198936
-0.0198913
-0.0198889
-0.0198864
-0.0198838
-0.0198813
-0.0198787
-0.0198761
-0.0198735
-0.019871
-0.0198685
-0.019866
-0.0198636
-0.0198612
-0.0198589
-0.0198567
-0.0198545
-0.0198524
-0.0198504
-0.0198484
-0.0198465
-0.0198448
-0.0198431
-0.0198415
-0.0198399
-0.0198385
-0.0198372
-0.019836
-0.0198349
-0.0198338
-0.0198329
-0.0198321
-0.0198314
-0.0198309
-0.0198305
-0.0198302
-0.01983
-0.01983
-0.0198303
-0.0198307
-0.0198313
-0.0198322
-0.0198335
-0.0198351
-0.0198371
-0.0198396
-0.0198426
-0.0198463
-0.0198508
-0.019856
-0.0198621
-0.019869
-0.0198768
-0.0198851
-0.0198937
-0.0199022
-0.01991
-0.0199163
-0.0199203
-0.0199204
-0.0199155
-0.0295354
-0.0295328
-0.0295312
-0.0295307
-0.0295318
-0.0295346
-0.0295393
-0.0295459
-0.0295545
-0.0295648
-0.0295765
-0.0295894
-0.0296029
-0.0296168
-0.0296306
-0.0296442
-0.0296571
-0.0296693
-0.0296805
-0.0296907
-0.0296998
-0.0297077
-0.0297145
-0.0297202
-0.029725
-0.0297287
-0.0297316
-0.0297337
-0.0297351
-0.0297359
-0.029736
-0.0297358
-0.029735
-0.029734
-0.0297326
-0.0297309
-0.029729
-0.029727
-0.0297248
-0.0297225
-0.0297201
-0.0297176
-0.0297151
-0.0297125
-0.0297099
-0.0297074
-0.0297048
-0.0297022
-0.0296997
-0.0296972
-0.0296948
-0.0296924
-0.02969
-0.0296877
-0.0296855
-0.0296833
-0.0296812
-0.0296792
-0.0296773
-0.0296754
-0.0296736
-0.0296719
-0.0296703
-0.0296688
-0.0296674
-0.0296661
-0.0296648
-0.0296637
-0.0296627
-0.0296617
-0.0296609
-0.0296602
-0.0296596
-0.0296592
-0.0296588
-0.0296586
-0.0296586
-0.0296588
-0.0296591
-0.0296596
-0.0296604
-0.0296615
-0.0296629
-0.0296646
-0.0296668
-0.0296695
-0.0296726
-0.0296764
-0.0296808
-0.0296858
-0.0296913
-0.0296973
-0.0297034
-0.0297094
-0.0297147
-0.0297189
-0.0297214
-0.0297217
-0.0297191
-0.0297129
-0.0393787
-0.0393758
-0.0393738
-0.0393731
-0.0393738
-0.0393763
-0.0393808
-0.0393873
-0.0393957
-0.0394059
-0.0394174
-0.0394301
-0.0394434
-0.0394569
-0.0394705
-0.0394836
-0.0394961
-0.0395077
-0.0395182
-0.0395278
-0.0395362
-0.0395435
-0.0395497
-0.0395548
-0.0395589
-0.039562
-0.0395644
-0.0395659
-0.0395669
-0.0395672
-0.039567
-0.0395663
-0.0395653
-0.0395639
-0.0395623
-0.0395604
-0.0395583
-0.0395561
-0.0395538
-0.0395514
-0.0395489
-0.0395463
-0.0395437
-0.0395411
-0.0395385
-0.0395359
-0.0395334
-0.0395308
-0.0395283
-0.0395258
-0.0395234
-0.039521
-0.0395186
-0.0395164
-0.0395141
-0.039512
-0.0395099
-0.0395079
-0.039506
-0.0395041
-0.0395023
-0.0395006
-0.039499
-0.0394975
-0.0394961
-0.0394947
-0.0394935
-0.0394923
-0.0394913
-0.0394904
-0.0394895
-0.0394888
-0.0394882
-0.0394877
-0.0394873
-0.039487
-0.039487
-0.039487
-0.0394873
-0.0394877
-0.0394884
-0.0394893
-0.0394904
-0.0394919
-0.0394938
-0.039496
-0.0394987
-0.0395018
-0.0395054
-0.0395094
-0.0395138
-0.0395183
-0.0395226
-0.0395265
-0.0395294
-0.039531
-0.0395308
-0.0395289
-0.0395248
-0.0395181
-0.0492212
-0.049218
-0.0492159
-0.0492149
-0.0492154
-0.0492177
-0.0492221
-0.0492286
-0.049237
-0.0492471
-0.0492587
-0.0492712
-0.0492844
-0.0492978
-0.049311
-0.0493238
-0.0493358
-0.0493469
-0.049357
-0.0493658
-0.0493736
-0.0493802
-0.0493857
-0.0493901
-0.0493935
-0.0493961
-0.0493978
-0.0493988
-0.0493992
-0.049399
-0.0493984
-0.0493973
-0.0493959
-0.0493942
-0.0493922
-0.0493901
-0.0493878
-0.0493854
-0.0493828
-0.0493803
-0.0493777
-0.049375
-0.0493723
-0.0493697
-0.049367
-0.0493644
-0.0493618
-0.0493592
-0.0493567
-0.0493542
-0.0493518
-0.0493494
-0.0493471
-0.0493448
-0.0493426
-0.0493404
-0.0493384
-0.0493364
-0.0493344
-0.0493326
-0.0493308
-0.0493291
-0.0493275
-0.049326
-0.0493245
-0.0493232
-0.0493219
-0.0493208
-0.0493197
-0.0493188
-0.0493179
-0.0493171
-0.0493165
-0.0493159
-0.0493155
-0.0493152
-0.0493151
-0.049315
-0.0493152
-0.0493155
-0.049316
-0.0493167
-0.0493177
-0.0493189
-0.0493204
-0.0493222
-0.0493244
-0.049327
-0.0493298
-0.049333
-0.0493363
-0.0493396
-0.0493426
-0.0493449
-0.0493461
-0.0493458
-0.0493439
-0.0493406
-0.0493357
-0.0493291
-0.0590629
-0.0590596
-0.0590573
-0.0590562
-0.0590566
-0.0590589
-0.0590633
-0.0590698
-0.0590783
-0.0590886
-0.0591002
-0.0591128
-0.0591259
-0.0591391
-0.0591521
-0.0591645
-0.0591761
-0.0591867
-0.0591962
-0.0592045
-0.0592115
-0.0592174
-0.0592222
-0.0592259
-0.0592287
-0.0592306
-0.0592317
-0.0592321
-0.0592319
-0.0592312
-0.05923
-0.0592285
-0.0592266
-0.0592246
-0.0592223
-0.0592198
-0.0592173
-0.0592146
-0.0592119
-0.0592091
-0.0592064
-0.0592036
-0.0592008
-0.0591981
-0.0591954
-0.0591927
-0.05919
-0.0591874
-0.0591849
-0.0591824
-0.0591799
-0.0591775
-0.0591752
-0.059173
-0.0591708
-0.0591686
-0.0591666
-0.0591646
-0.0591626
-0.0591608
-0.059159
-0.0591573
-0.0591557
-0.0591542
-0.0591528
-0.0591514
-0.0591501
-0.059149
-0.0591479
-0.0591469
-0.059146
-0.0591452
-0.0591445
-0.059144
-0.0591435
-0.0591431
-0.0591429
-0.0591428
-0.0591428
-0.059143
-0.0591434
-0.0591439
-0.0591446
-0.0591456
-0.0591468
-0.0591482
-0.05915
-0.059152
-0.0591542
-0.0591566
-0.0591591
-0.0591614
-0.0591633
-0.0591643
-0.0591643
-0.0591628
-0.0591599
-0.0591558
-0.0591507
-0.0591444
-0.0689039
-0.0689005
-0.0688981
-0.0688969
-0.0688973
-0.0688997
-0.0689043
-0.068911
-0.0689197
-0.0689301
-0.0689418
-0.0689545
-0.0689675
-0.0689806
-0.0689933
-0.0690054
-0.0690166
-0.0690267
-0.0690356
-0.0690433
-0.0690496
-0.0690548
-0.0690589
-0.0690619
-0.069064
-0.0690652
-0.0690656
-0.0690654
-0.0690646
-0.0690634
-0.0690617
-0.0690597
-0.0690574
-0.069055
-0.0690523
-0.0690496
-0.0690467
-0.0690438
-0.0690408
-0.0690379
-0.069035
-0.069032
-0.0690291
-0.0690263
-0.0690235
-0.0690207
-0.069018
-0.0690154
-0.0690128
-0.0690103
-0.0690078
-0.0690054
-0.0690031
-0.0690008
-0.0689986
-0.0689965
-0.0689945
-0.0689925
-0.0689906
-0.0689887
-0.068987
-0.0689853
-0.0689837
-0.0689821
-0.0689807
-0.0689793
-0.068978
-0.0689769
-0.0689758
-0.0689748
-0.0689739
-0.068973
-0.0689723
-0.0689717
-0.0689712
-0.0689707
-0.0689704
-0.0689702
-0.0689702
-0.0689702
-0.0689704
-0.0689708
-0.0689713
-0.068972
-0.0689729
-0.068974
-0.0689753
-0.0689768
-0.0689785
-0.0689802
-0.068982
-0.0689835
-0.0689845
-0.0689847
-0.0689838
-0.0689815
-0.068978
-0.0689735
-0.0689685
-0.0689627
-0.0787443
-0.0787408
-0.0787383
-0.0787372
-0.0787377
-0.0787402
-0.078745
-0.0787519
-0.0787609
-0.0787715
-0.0787834
-0.0787961
-0.0788091
-0.078822
-0.0788345
-0.0788462
-0.0788569
-0.0788664
-0.0788747
-0.0788818
-0.0788875
-0.0788919
-0.0788953
-0.0788976
-0.078899
-0.0788995
-0.0788993
-0.0788985
-0.0788972
-0.0788954
-0.0788932
-0.0788907
-0.078888
-0.0788852
-0.0788822
-0.0788791
-0.0788759
-0.0788727
-0.0788696
-0.0788664
-0.0788633
-0.0788602
-0.0788572
-0.0788542
-0.0788513
-0.0788485
-0.0788457
-0.078843
-0.0788404
-0.0788378
-0.0788354
-0.0788329
-0.0788306
-0.0788284
-0.0788262
-0.078824
-0.078822
-0.07882
-0.0788181
-0.0788163
-0.0788145
-0.0788129
-0.0788113
-0.0788097
-0.0788083
-0.0788069
-0.0788056
-0.0788044
-0.0788033
-0.0788023
-0.0788014
-0.0788005
-0.0787998
-0.0787991
-0.0787985
-0.078798
-0.0787976
-0.0787974
-0.0787972
-0.0787971
-0.0787972
-0.0787974
-0.0787977
-0.0787981
-0.0787987
-0.0787995
-0.0788004
-0.0788015
-0.0788026
-0.0788038
-0.0788049
-0.0788058
-0.0788061
-0.0788057
-0.0788041
-0.0788014
-0.0787976
-0.0787931
-0.0787883
-0.0787831
-0.0885839
-0.0885804
-0.0885779
-0.0885768
-0.0885775
-0.0885802
-0.0885853
-0.0885926
-0.0886019
-0.0886128
-0.0886248
-0.0886375
-0.0886505
-0.0886632
-0.0886753
-0.0886865
-0.0886967
-0.0887056
-0.0887133
-0.0887196
-0.0887247
-0.0887284
-0.088731
-0.0887326
-0.0887333
-0.0887333
-0.0887325
-0.0887311
-0.0887292
-0.0887269
-0.0887242
-0.0887213
-0.0887182
-0.088715
-0.0887116
-0.0887082
-0.0887048
-0.0887013
-0.0886979
-0.0886946
-0.0886913
-0.088688
-0.0886849
-0.0886818
-0.0886788
-0.0886758
-0.088673
-0.0886702
-0.0886676
-0.088665
-0.0886625
-0.0886601
-0.0886578
-0.0886555
-0.0886533
-0.0886512
-0.0886492
-0.0886472
-0.0886453
-0.0886435
-0.0886417
-0.0886401
-0.0886385
-0.088637
-0.0886355
-0.0886342
-0.0886329
-0.0886317
-0.0886305
-0.0886295
-0.0886285
-0.0886277
-0.0886269
-0.0886261
-0.0886255
-0.088625
-0.0886245
-0.0886241
-0.0886239
-0.0886237
-0.0886236
-0.0886236
-0.0886237
-0.0886239
-0.0886243
-0.0886247
-0.0886253
-0.088626
-0.0886267
-0.0886274
-0.088628
-0.0886283
-0.0886281
-0.0886272
-0.0886252
-0.0886223
-0.0886184
-0.088614
-0.0886095
-0.0886048
-0.0984228
-0.0984192
-0.0984168
-0.0984158
-0.0984167
-0.0984198
-0.0984252
-0.0984328
-0.0984424
-0.0984536
-0.0984658
-0.0984785
-0.0984913
-0.0985037
-0.0985154
-0.0985261
-0.0985357
-0.0985439
-0.0985509
-0.0985565
-0.0985608
-0.0985639
-0.0985658
-0.0985667
-0.0985668
-0.0985661
-0.0985647
-0.0985628
-0.0985604
-0.0985576
-0.0985545
-0.0985512
-0.0985477
-0.0985441
-0.0985405
-0.0985368
-0.0985331
-0.0985294
-0.0985258
-0.0985223
-0.0985188
-0.0985154
-0.0985121
-0.0985089
-0.0985058
-0.0985028
-0.0984999
-0.0984971
-0.0984944
-0.0984918
-0.0984892
-0.0984868
-0.0984845
-0.0984822
-0.09848
-0.0984779
-0.0984759
-0.0984739
-0.0984721
-0.0984703
-0.0984685
-0.0984669
-0.0984653
-0.0984638
-0.0984624
-0.098461
-0.0984597
-0.0984585
-0.0984573
-0.0984563
-0.0984553
-0.0984544
-0.0984536
-0.0984528
-0.0984521
-0.0984515
-0.098451
-0.0984505
-0.0984502
-0.0984499
-0.0984496
-0.0984495
-0.0984494
-0.0984494
-0.0984496
-0.0984497
-0.09845
-0.0984503
-0.0984507
-0.098451
-0.0984511
-0.098451
-0.0984504
-0.0984491
-0.0984469
-0.0984438
-0.09844
-0.0984358
-0.0984317
-0.0984274
-0.108261
-0.108257
-0.108255
-0.108254
-0.108255
-0.108259
-0.108265
-0.108273
-0.108282
-0.108294
-0.108306
-0.108319
-0.108331
-0.108343
-0.108355
-0.108365
-0.108374
-0.108381
-0.108387
-0.108392
-0.108396
-0.108398
-0.108399
-0.1084
-0.108399
-0.108398
-0.108396
-0.108393
-0.108391
-0.108387
-0.108384
-0.10838
-0.108376
-0.108373
-0.108369
-0.108365
-0.108361
-0.108357
-0.108353
-0.108349
-0.108346
-0.108342
-0.108339
-0.108336
-0.108332
-0.108329
-0.108326
-0.108323
-0.108321
-0.108318
-0.108316
-0.108313
-0.108311
-0.108308
-0.108306
-0.108304
-0.108302
-0.1083
-0.108298
-0.108297
-0.108295
-0.108293
-0.108292
-0.10829
-0.108289
-0.108287
-0.108286
-0.108285
-0.108284
-0.108283
-0.108282
-0.108281
-0.10828
-0.108279
-0.108278
-0.108278
-0.108277
-0.108277
-0.108276
-0.108276
-0.108275
-0.108275
-0.108275
-0.108275
-0.108275
-0.108275
-0.108275
-0.108275
-0.108275
-0.108275
-0.108274
-0.108274
-0.108273
-0.108271
-0.108269
-0.108266
-0.108262
-0.108258
-0.108254
-0.108251
-0.118098
-0.118095
-0.118092
-0.118092
-0.118093
-0.118097
-0.118103
-0.118112
-0.118122
-0.118133
-0.118146
-0.118158
-0.11817
-0.118182
-0.118192
-0.118202
-0.11821
-0.118217
-0.118222
-0.118226
-0.118229
-0.118231
-0.118231
-0.118231
-0.11823
-0.118228
-0.118226
-0.118223
-0.11822
-0.118216
-0.118212
-0.118208
-0.118204
-0.1182
-0.118196
-0.118192
-0.118188
-0.118184
-0.11818
-0.118176
-0.118172
-0.118169
-0.118165
-0.118162
-0.118158
-0.118155
-0.118152
-0.118149
-0.118147
-0.118144
-0.118141
-0.118139
-0.118137
-0.118134
-0.118132
-0.11813
-0.118128
-0.118126
-0.118124
-0.118122
-0.118121
-0.118119
-0.118118
-0.118116
-0.118115
-0.118113
-0.118112
-0.118111
-0.11811
-0.118109
-0.118108
-0.118107
-0.118106
-0.118105
-0.118104
-0.118104
-0.118103
-0.118102
-0.118102
-0.118101
-0.118101
-0.1181
-0.1181
-0.1181
-0.118099
-0.118099
-0.118099
-0.118099
-0.118098
-0.118098
-0.118098
-0.118097
-0.118096
-0.118094
-0.118091
-0.118088
-0.118085
-0.118081
-0.118078
-0.118074
-0.127934
-0.127931
-0.127929
-0.127928
-0.12793
-0.127934
-0.127941
-0.12795
-0.12796
-0.127972
-0.127984
-0.127996
-0.128008
-0.128019
-0.128029
-0.128038
-0.128045
-0.128051
-0.128055
-0.128059
-0.128061
-0.128062
-0.128062
-0.128061
-0.128059
-0.128057
-0.128054
-0.128051
-0.128047
-0.128043
-0.128039
-0.128035
-0.128031
-0.128027
-0.128022
-0.128018
-0.128014
-0.12801
-0.128006
-0.128002
-0.127998
-0.127994
-0.127991
-0.127987
-0.127984
-0.127981
-0.127978
-0.127975
-0.127972
-0.127969
-0.127967
-0.127964
-0.127962
-0.12796
-0.127957
-0.127955
-0.127953
-0.127951
-0.12795
-0.127948
-0.127946
-0.127945
-0.127943
-0.127942
-0.12794
-0.127939
-0.127938
-0.127936
-0.127935
-0.127934
-0.127933
-0.127932
-0.127931
-0.127931
-0.12793
-0.127929
-0.127928
-0.127928
-0.127927
-0.127926
-0.127926
-0.127925
-0.127925
-0.127924
-0.127924
-0.127924
-0.127923
-0.127923
-0.127922
-0.127922
-0.127921
-0.12792
-0.127918
-0.127917
-0.127914
-0.127911
-0.127908
-0.127904
-0.127901
-0.127898
-0.13777
-0.137766
-0.137764
-0.137764
-0.137766
-0.137771
-0.137778
-0.137787
-0.137797
-0.137809
-0.137821
-0.137833
-0.137844
-0.137855
-0.137864
-0.137872
-0.137878
-0.137883
-0.137887
-0.137889
-0.137891
-0.137891
-0.13789
-0.137889
-0.137887
-0.137884
-0.137881
-0.137877
-0.137874
-0.137869
-0.137865
-0.137861
-0.137857
-0.137852
-0.137848
-0.137843
-0.137839
-0.137835
-0.137831
-0.137827
-0.137823
-0.137819
-0.137816
-0.137812
-0.137809
-0.137806
-0.137802
-0.1378
-0.137797
-0.137794
-0.137791
-0.137789
-0.137787
-0.137784
-0.137782
-0.13778
-0.137778
-0.137776
-0.137775
-0.137773
-0.137771
-0.13777
-0.137768
-0.137767
-0.137765
-0.137764
-0.137763
-0.137762
-0.137761
-0.137759
-0.137758
-0.137757
-0.137757
-0.137756
-0.137755
-0.137754
-0.137753
-0.137753
-0.137752
-0.137751
-0.137751
-0.13775
-0.13775
-0.137749
-0.137748
-0.137748
-0.137747
-0.137747
-0.137746
-0.137745
-0.137744
-0.137743
-0.137742
-0.137739
-0.137737
-0.137734
-0.137731
-0.137728
-0.137725
-0.137722
-0.147604
-0.1476
-0.147598
-0.147598
-0.147601
-0.147606
-0.147613
-0.147623
-0.147633
-0.147645
-0.147657
-0.147668
-0.147679
-0.147688
-0.147697
-0.147703
-0.147709
-0.147713
-0.147716
-0.147718
-0.147719
-0.147718
-0.147717
-0.147715
-0.147713
-0.14771
-0.147706
-0.147702
-0.147698
-0.147694
-0.14769
-0.147685
-0.147681
-0.147677
-0.147672
-0.147668
-0.147663
-0.147659
-0.147655
-0.147651
-0.147647
-0.147644
-0.14764
-0.147636
-0.147633
-0.14763
-0.147627
-0.147624
-0.147621
-0.147618
-0.147616
-0.147613
-0.147611
-0.147609
-0.147607
-0.147605
-0.147603
-0.147601
-0.147599
-0.147598
-0.147596
-0.147594
-0.147593
-0.147591
-0.14759
-0.147589
-0.147588
-0.147586
-0.147585
-0.147584
-0.147583
-0.147582
-0.147581
-0.14758
-0.14758
-0.147579
-0.147578
-0.147577
-0.147577
-0.147576
-0.147575
-0.147575
-0.147574
-0.147573
-0.147573
-0.147572
-0.147571
-0.147571
-0.14757
-0.147569
-0.147568
-0.147566
-0.147565
-0.147563
-0.14756
-0.147557
-0.147554
-0.147551
-0.147549
-0.147546
-0.157436
-0.157433
-0.157431
-0.157432
-0.157435
-0.15744
-0.157448
-0.157457
-0.157468
-0.157479
-0.15749
-0.157501
-0.157511
-0.15752
-0.157527
-0.157533
-0.157538
-0.157541
-0.157543
-0.157544
-0.157544
-0.157544
-0.157542
-0.15754
-0.157537
-0.157534
-0.15753
-0.157526
-0.157522
-0.157518
-0.157513
-0.157509
-0.157504
-0.1575
-0.157496
-0.157491
-0.157487
-0.157483
-0.157479
-0.157475
-0.157471
-0.157467
-0.157464
-0.15746
-0.157457
-0.157454
-0.157451
-0.157448
-0.157445
-0.157442
-0.15744
-0.157437
-0.157435
-0.157433
-0.157431
-0.157429
-0.157427
-0.157425
-0.157423
-0.157422
-0.15742
-0.157419
-0.157417
-0.157416
-0.157414
-0.157413
-0.157412
-0.157411
-0.15741
-0.157409
-0.157408
-0.157407
-0.157406
-0.157405
-0.157404
-0.157403
-0.157402
-0.157402
-0.157401
-0.1574
-0.1574
-0.157399
-0.157398
-0.157398
-0.157397
-0.157396
-0.157395
-0.157394
-0.157394
-0.157392
-0.157391
-0.15739
-0.157388
-0.157386
-0.157383
-0.157381
-0.157378
-0.157375
-0.157372
-0.15737
-0.167268
-0.167265
-0.167263
-0.167264
-0.167267
-0.167273
-0.16728
-0.16729
-0.1673
-0.167311
-0.167322
-0.167332
-0.167341
-0.167349
-0.167356
-0.167361
-0.167365
-0.167367
-0.167369
-0.167369
-0.167368
-0.167367
-0.167365
-0.167363
-0.16736
-0.167356
-0.167352
-0.167348
-0.167344
-0.16734
-0.167336
-0.167331
-0.167327
-0.167322
-0.167318
-0.167314
-0.16731
-0.167306
-0.167302
-0.167298
-0.167294
-0.16729
-0.167287
-0.167283
-0.16728
-0.167277
-0.167274
-0.167271
-0.167268
-0.167266
-0.167263
-0.167261
-0.167259
-0.167256
-0.167254
-0.167252
-0.167251
-0.167249
-0.167247
-0.167246
-0.167244
-0.167242
-0.167241
-0.16724
-0.167238
-0.167237
-0.167236
-0.167235
-0.167234
-0.167233
-0.167232
-0.167231
-0.16723
-0.167229
-0.167228
-0.167227
-0.167227
-0.167226
-0.167225
-0.167224
-0.167224
-0.167223
-0.167222
-0.167221
-0.167221
-0.16722
-0.167219
-0.167218
-0.167217
-0.167216
-0.167215
-0.167213
-0.167211
-0.167209
-0.167207
-0.167204
-0.167201
-0.167199
-0.167196
-0.167194
-0.177098
-0.177095
-0.177094
-0.177095
-0.177098
-0.177104
-0.177112
-0.177121
-0.177131
-0.177142
-0.177152
-0.177161
-0.17717
-0.177177
-0.177182
-0.177186
-0.177189
-0.177191
-0.177192
-0.177192
-0.177191
-0.177189
-0.177187
-0.177184
-0.177181
-0.177177
-0.177174
-0.17717
-0.177165
-0.177161
-0.177157
-0.177153
-0.177148
-0.177144
-0.17714
-0.177136
-0.177132
-0.177128
-0.177124
-0.17712
-0.177116
-0.177113
-0.177109
-0.177106
-0.177103
-0.1771
-0.177097
-0.177094
-0.177091
-0.177089
-0.177086
-0.177084
-0.177082
-0.17708
-0.177078
-0.177076
-0.177074
-0.177072
-0.177071
-0.177069
-0.177067
-0.177066
-0.177065
-0.177063
-0.177062
-0.177061
-0.17706
-0.177059
-0.177058
-0.177057
-0.177056
-0.177055
-0.177054
-0.177053
-0.177052
-0.177051
-0.17705
-0.17705
-0.177049
-0.177048
-0.177047
-0.177047
-0.177046
-0.177045
-0.177045
-0.177044
-0.177043
-0.177042
-0.177041
-0.17704
-0.177038
-0.177037
-0.177035
-0.177033
-0.17703
-0.177027
-0.177025
-0.177022
-0.17702
-0.177018
-0.186927
-0.186924
-0.186923
-0.186924
-0.186928
-0.186934
-0.186942
-0.186951
-0.186961
-0.18697
-0.18698
-0.186988
-0.186996
-0.187002
-0.187006
-0.18701
-0.187012
-0.187013
-0.187013
-0.187012
-0.187011
-0.187009
-0.187007
-0.187004
-0.187001
-0.186997
-0.186993
-0.18699
-0.186986
-0.186981
-0.186977
-0.186973
-0.186969
-0.186965
-0.186961
-0.186957
-0.186953
-0.186949
-0.186945
-0.186942
-0.186938
-0.186935
-0.186931
-0.186928
-0.186925
-0.186922
-0.186919
-0.186916
-0.186914
-0.186911
-0.186909
-0.186907
-0.186905
-0.186903
-0.186901
-0.186899
-0.186897
-0.186895
-0.186894
-0.186892
-0.186891
-0.186889
-0.186888
-0.186887
-0.186885
-0.186884
-0.186883
-0.186882
-0.186881
-0.18688
-0.186879
-0.186878
-0.186877
-0.186876
-0.186876
-0.186875
-0.186874
-0.186873
-0.186873
-0.186872
-0.186871
-0.18687
-0.18687
-0.186869
-0.186868
-0.186867
-0.186866
-0.186866
-0.186864
-0.186863
-0.186862
-0.18686
-0.186858
-0.186856
-0.186853
-0.186851
-0.186848
-0.186846
-0.186844
-0.186842
-0.196755
-0.196752
-0.196751
-0.196752
-0.196756
-0.196762
-0.19677
-0.196778
-0.196788
-0.196797
-0.196806
-0.196813
-0.19682
-0.196825
-0.196829
-0.196831
-0.196833
-0.196833
-0.196833
-0.196832
-0.19683
-0.196828
-0.196825
-0.196823
-0.196819
-0.196816
-0.196812
-0.196809
-0.196805
-0.196801
-0.196797
-0.196793
-0.196789
-0.196785
-0.196781
-0.196777
-0.196773
-0.19677
-0.196766
-0.196763
-0.196759
-0.196756
-0.196753
-0.19675
-0.196747
-0.196744
-0.196741
-0.196739
-0.196736
-0.196734
-0.196731
-0.196729
-0.196727
-0.196725
-0.196723
-0.196721
-0.19672
-0.196718
-0.196716
-0.196715
-0.196713
-0.196712
-0.196711
-0.19671
-0.196708
-0.196707
-0.196706
-0.196705
-0.196704
-0.196703
-0.196702
-0.196701
-0.1967
-0.1967
-0.196699
-0.196698
-0.196697
-0.196697
-0.196696
-0.196695
-0.196694
-0.196694
-0.196693
-0.196692
-0.196692
-0.196691
-0.19669
-0.196689
-0.196688
-0.196687
-0.196685
-0.196683
-0.196681
-0.196679
-0.196677
-0.196674
-0.196672
-0.196669
-0.196667
-0.196665
-0.206581
-0.206578
-0.206578
-0.206579
-0.206583
-0.206589
-0.206596
-0.206604
-0.206613
-0.206622
-0.206629
-0.206636
-0.206642
-0.206646
-0.206649
-0.206651
-0.206651
-0.206651
-0.206651
-0.206649
-0.206648
-0.206645
-0.206643
-0.20664
-0.206637
-0.206634
-0.20663
-0.206627
-0.206623
-0.206619
-0.206616
-0.206612
-0.206608
-0.206604
-0.206601
-0.206597
-0.206594
-0.20659
-0.206587
-0.206583
-0.20658
-0.206577
-0.206574
-0.206571
-0.206568
-0.206565
-0.206563
-0.20656
-0.206558
-0.206556
-0.206553
-0.206551
-0.206549
-0.206547
-0.206545
-0.206544
-0.206542
-0.20654
-0.206539
-0.206537
-0.206536
-0.206535
-0.206533
-0.206532
-0.206531
-0.20653
-0.206529
-0.206528
-0.206527
-0.206526
-0.206525
-0.206524
-0.206523
-0.206523
-0.206522
-0.206521
-0.20652
-0.20652
-0.206519
-0.206518
-0.206518
-0.206517
-0.206516
-0.206516
-0.206515
-0.206514
-0.206513
-0.206512
-0.206511
-0.20651
-0.206508
-0.206507
-0.206505
-0.206502
-0.2065
-0.206497
-0.206495
-0.206493
-0.206491
-0.206489
-0.216405
-0.216403
-0.216403
-0.216404
-0.216408
-0.216414
-0.216421
-0.216429
-0.216437
-0.216444
-0.216451
-0.216457
-0.216462
-0.216465
-0.216467
-0.216469
-0.216469
-0.216469
-0.216468
-0.216466
-0.216464
-0.216462
-0.21646
-0.216457
-0.216454
-0.216451
-0.216447
-0.216444
-0.216441
-0.216437
-0.216434
-0.21643
-0.216427
-0.216423
-0.21642
-0.216417
-0.216413
-0.21641
-0.216407
-0.216404
-0.216401
-0.216398
-0.216395
-0.216392
-0.216389
-0.216387
-0.216384
-0.216382
-0.216379
-0.216377
-0.216375
-0.216373
-0.216371
-0.216369
-0.216367
-0.216366
-0.216364
-0.216363
-0.216361
-0.21636
-0.216358
-0.216357
-0.216356
-0.216355
-0.216354
-0.216352
-0.216351
-0.21635
-0.216349
-0.216349
-0.216348
-0.216347
-0.216346
-0.216345
-0.216344
-0.216344
-0.216343
-0.216342
-0.216342
-0.216341
-0.21634
-0.21634
-0.216339
-0.216338
-0.216338
-0.216337
-0.216336
-0.216335
-0.216334
-0.216333
-0.216331
-0.21633
-0.216328
-0.216325
-0.216323
-0.21632
-0.216318
-0.216316
-0.216314
-0.216312
-0.226229
-0.226227
-0.226226
-0.226228
-0.226232
-0.226237
-0.226244
-0.226251
-0.226258
-0.226265
-0.226271
-0.226276
-0.22628
-0.226283
-0.226284
-0.226285
-0.226285
-0.226284
-0.226283
-0.226282
-0.22628
-0.226278
-0.226275
-0.226273
-0.22627
-0.226267
-0.226264
-0.226261
-0.226258
-0.226255
-0.226251
-0.226248
-0.226245
-0.226242
-0.226239
-0.226235
-0.226232
-0.226229
-0.226226
-0.226223
-0.226221
-0.226218
-0.226215
-0.226212
-0.22621
-0.226207
-0.226205
-0.226203
-0.226201
-0.226198
-0.226196
-0.226195
-0.226193
-0.226191
-0.226189
-0.226188
-0.226186
-0.226185
-0.226183
-0.226182
-0.22618
-0.226179
-0.226178
-0.226177
-0.226176
-0.226175
-0.226174
-0.226173
-0.226172
-0.226171
-0.22617
-0.226169
-0.226168
-0.226168
-0.226167
-0.226166
-0.226165
-0.226165
-0.226164
-0.226164
-0.226163
-0.226162
-0.226162
-0.226161
-0.226161
-0.22616
-0.226159
-0.226158
-0.226157
-0.226156
-0.226154
-0.226153
-0.226151
-0.226148
-0.226146
-0.226143
-0.226141
-0.226139
-0.226137
-0.226135
-0.236051
-0.236049
-0.236049
-0.23605
-0.236054
-0.236059
-0.236065
-0.236072
-0.236078
-0.236085
-0.23609
-0.236094
-0.236097
-0.236099
-0.2361
-0.2361
-0.2361
-0.236099
-0.236098
-0.236097
-0.236095
-0.236093
-0.236091
-0.236088
-0.236086
-0.236083
-0.23608
-0.236078
-0.236075
-0.236072
-0.236069
-0.236066
-0.236063
-0.23606
-0.236057
-0.236054
-0.236051
-0.236048
-0.236046
-0.236043
-0.23604
-0.236038
-0.236035
-0.236033
-0.23603
-0.236028
-0.236026
-0.236024
-0.236022
-0.23602
-0.236018
-0.236016
-0.236014
-0.236012
-0.236011
-0.236009
-0.236008
-0.236006
-0.236005
-0.236003
-0.236002
-0.236001
-0.236
-0.235999
-0.235998
-0.235997
-0.235996
-0.235995
-0.235994
-0.235993
-0.235992
-0.235991
-0.23599
-0.23599
-0.235989
-0.235988
-0.235988
-0.235987
-0.235986
-0.235986
-0.235985
-0.235985
-0.235984
-0.235984
-0.235983
-0.235982
-0.235982
-0.235981
-0.23598
-0.235978
-0.235977
-0.235975
-0.235973
-0.235971
-0.235968
-0.235966
-0.235964
-0.235961
-0.23596
-0.235958
-0.245871
-0.24587
-0.24587
-0.245871
-0.245875
-0.24588
-0.245885
-0.245891
-0.245897
-0.245902
-0.245907
-0.24591
-0.245913
-0.245914
-0.245915
-0.245915
-0.245914
-0.245913
-0.245912
-0.245911
-0.245909
-0.245907
-0.245906
-0.245903
-0.245901
-0.245899
-0.245896
-0.245894
-0.245891
-0.245888
-0.245886
-0.245883
-0.24588
-0.245878
-0.245875
-0.245872
-0.24587
-0.245867
-0.245865
-0.245862
-0.24586
-0.245857
-0.245855
-0.245853
-0.24585
-0.245848
-0.245846
-0.245844
-0.245842
-0.24584
-0.245838
-0.245837
-0.245835
-0.245833
-0.245832
-0.24583
-0.245829
-0.245828
-0.245826
-0.245825
-0.245824
-0.245822
-0.245821
-0.24582
-0.245819
-0.245818
-0.245817
-0.245816
-0.245815
-0.245814
-0.245814
-0.245813
-0.245812
-0.245811
-0.245811
-0.24581
-0.245809
-0.245809
-0.245808
-0.245808
-0.245807
-0.245807
-0.245806
-0.245806
-0.245805
-0.245804
-0.245804
-0.245803
-0.245802
-0.245801
-0.245799
-0.245797
-0.245795
-0.245793
-0.245791
-0.245788
-0.245786
-0.245784
-0.245782
-0.245781
-0.255691
-0.25569
-0.25569
-0.255691
-0.255694
-0.255699
-0.255704
-0.255709
-0.255714
-0.255719
-0.255723
-0.255725
-0.255727
-0.255728
-0.255728
-0.255728
-0.255728
-0.255727
-0.255726
-0.255725
-0.255723
-0.255722
-0.25572
-0.255718
-0.255716
-0.255714
-0.255712
-0.25571
-0.255707
-0.255705
-0.255703
-0.2557
-0.255698
-0.255695
-0.255693
-0.25569
-0.255688
-0.255686
-0.255683
-0.255681
-0.255679
-0.255677
-0.255674
-0.255672
-0.25567
-0.255668
-0.255666
-0.255664
-0.255663
-0.255661
-0.255659
-0.255657
-0.255656
-0.255654
-0.255653
-0.255651
-0.25565
-0.255649
-0.255647
-0.255646
-0.255645
-0.255644
-0.255643
-0.255642
-0.25564
-0.255639
-0.255639
-0.255638
-0.255637
-0.255636
-0.255635
-0.255634
-0.255633
-0.255633
-0.255632
-0.255631
-0.255631
-0.25563
-0.25563
-0.255629
-0.255629
-0.255628
-0.255628
-0.255627
-0.255627
-0.255626
-0.255626
-0.255625
-0.255624
-0.255623
-0.255621
-0.255619
-0.255617
-0.255615
-0.255613
-0.25561
-0.255608
-0.255606
-0.255604
-0.255603
-0.26551
-0.265508
-0.265508
-0.26551
-0.265513
-0.265517
-0.265521
-0.265526
-0.265531
-0.265534
-0.265537
-0.26554
-0.265541
-0.265541
-0.265542
-0.265541
-0.265541
-0.26554
-0.265539
-0.265538
-0.265537
-0.265536
-0.265534
-0.265533
-0.265531
-0.265529
-0.265527
-0.265525
-0.265523
-0.265521
-0.265519
-0.265517
-0.265515
-0.265513
-0.26551
-0.265508
-0.265506
-0.265504
-0.265502
-0.2655
-0.265498
-0.265496
-0.265494
-0.265492
-0.26549
-0.265488
-0.265486
-0.265484
-0.265483
-0.265481
-0.265479
-0.265478
-0.265476
-0.265475
-0.265473
-0.265472
-0.265471
-0.265469
-0.265468
-0.265467
-0.265466
-0.265465
-0.265464
-0.265463
-0.265461
-0.26546
-0.26546
-0.265459
-0.265458
-0.265457
-0.265456
-0.265455
-0.265454
-0.265454
-0.265453
-0.265452
-0.265452
-0.265451
-0.265451
-0.26545
-0.26545
-0.265449
-0.265449
-0.265449
-0.265448
-0.265448
-0.265447
-0.265446
-0.265445
-0.265444
-0.265443
-0.265441
-0.265439
-0.265437
-0.265434
-0.265432
-0.26543
-0.265428
-0.265426
-0.265425
-0.275327
-0.275326
-0.275326
-0.275328
-0.27533
-0.275334
-0.275338
-0.275342
-0.275346
-0.275349
-0.275351
-0.275353
-0.275354
-0.275354
-0.275354
-0.275354
-0.275354
-0.275353
-0.275353
-0.275352
-0.275351
-0.27535
-0.275349
-0.275347
-0.275346
-0.275344
-0.275343
-0.275341
-0.275339
-0.275337
-0.275335
-0.275334
-0.275332
-0.27533