/*--------------------------------*- C++ -*----------------------------------*\
  =========                 |
  \\      /  F ield         | OpenFOAM: The Open Source CFD Toolbox
   \\    /   O peration     | Website:  https://openfoam.org
    \\  /    A nd           | Version:  6
     \\/     M anipulation  |
\*---------------------------------------------------------------------------*/
FoamFile
{
    version     2.0;
    format      ascii;
    class       volVectorField;
    location    "0";
    object      U;
}
// * * * * * * * * * * * * * * * * * * * * * * * * * * * * * * * * * * * * * //

dimensions      [0 1 -1 0 0 0 0];

internalField   nonuniform List<vector> 
13046
(
(0.273047 0.0829621 0)
(0.490803 -0.166719 1.00105e-21)
(0.190766 -0.0517242 2.43292e-21)
(0.295186 0.0248289 0)
(0.170721 -0.00393978 2.23354e-21)
(0.421943 -0.15876 0)
(0.311973 0.0346873 -3.1682e-22)
(0.459395 -0.188211 -5.14409e-22)
(0.150339 0.00933316 2.49384e-21)
(0.485365 0.197027 -8.09463e-22)
(0.798466 -0.383503 0)
(-0.00123855 0.0656043 -1.51421e-21)
(0.323015 0.094468 2.04837e-21)
(0.571258 -0.2272 1.35889e-21)
(0.13189 -0.0159455 -1.36711e-21)
(0.450921 0.225462 -4.62205e-22)
(0.0207563 0.0376984 -2.40645e-21)
(0.845802 -0.338052 3.56989e-24)
(0.198191 0.0332864 0)
(0.323305 -0.120067 1.17267e-21)
(0.346639 -0.045487 -3.33904e-21)
(0.457813 0.219426 4.71106e-22)
(0.0138805 0.0449717 4.81252e-21)
(0.837678 -0.348788 4.82534e-23)
(0.263643 0.0417516 -1.38406e-21)
(0.417245 -0.133298 1.97386e-21)
(0.204629 -0.0433908 0)
(0.321959 0.112518 -4.54597e-23)
(0.591467 -0.229391 -4.0715e-22)
(0.133971 -0.0257704 4.62056e-21)
(0.269613 0.0976163 0)
(0.509578 -0.163319 0)
(0.197984 -0.0658978 -2.47648e-21)
(0.255222 0.0268739 4.85507e-21)
(0.222534 -0.0487416 -8.25085e-22)
(0.379333 -0.108348 -3.06266e-21)
(0.264783 0.0102718 6.35067e-24)
(0.223527 -0.035813 0)
(0.357618 -0.100926 0)
(0.220612 0.118911 -1.78555e-21)
(0.312591 -0.167223 -2.1824e-21)
(0.490658 -0.107074 1.50702e-21)
(0.284591 -0.03282 -1.09499e-21)
(0.246479 -0.0264053 1.13915e-21)
(0.293119 -0.0661372 0)
(0.299437 -0.0321588 -7.16839e-22)
(0.222906 -0.00679772 0)
(0.30625 -0.0849515 3.63267e-22)
(0.284899 0.0763959 0)
(0.497832 -0.181917 7.12584e-23)
(0.16651 -0.0343415 2.07449e-23)
(0.442458 -0.280409 -2.4787e-21)
(0.189043 0.146539 0)
(0.508973 -0.0642932 1.63952e-21)
(0.487786 -0.313948 3.52458e-21)
(0.501063 -0.049066 1.8225e-21)
(0.172545 0.143373 -2.77947e-21)
(0.796148 -0.248199 1.68312e-22)
(0.378467 0.229141 0)
(0.148977 -0.0784654 -1.9995e-21)
(0.413283 0.0831814 9.53645e-22)
(0.656984 -0.337256 -7.35464e-22)
(0.0696089 0.0638105 5.56894e-21)
(0.0214234 0.0507705 -2.82565e-21)
(0.805527 -0.375606 1.84293e-22)
(0.464921 0.175321 1.41848e-21)
(0.361471 0.230633 0)
(0.772949 -0.223829 -8.84248e-22)
(0.184903 -0.113724 -5.66481e-22)
(0.347482 0.222237 7.53486e-22)
(0.748443 -0.212817 1.19829e-21)
(0.199379 -0.123822 7.70453e-22)
(0.819455 -0.255731 1.20406e-24)
(0.391054 0.237082 -3.7191e-23)
(0.134753 -0.071678 2.14941e-23)
(0.197982 0.0472406 0)
(0.318259 -0.128373 -1.30366e-21)
(0.370835 -0.0619952 2.33374e-21)
(0.0900774 -0.0296745 -2.19414e-21)
(0.411965 0.234358 2.1742e-21)
(0.837715 -0.285367 2.73075e-22)
(0.276236 0.0440147 -7.22153e-22)
(0.433378 -0.149252 7.06699e-22)
(0.184574 -0.0258926 0)
(0.0156793 0.053525 2.50766e-21)
(0.814249 -0.378833 0)
(0.472587 0.183863 -8.35026e-22)
(0.49542 0.130082 1.3883e-21)
(0.0234959 0.0780224 0)
(0.770911 -0.422663 1.91216e-22)
(0.0460017 0.103922 0)
(0.541882 0.0883415 0)
(0.740006 -0.474236 -1.94165e-23)
(0.395406 0.147177 1.89544e-21)
(0.413658 0.148864 -2.62027e-21)
(0.722657 -0.310031 -1.17893e-21)
(0.741276 -0.330983 5.47338e-22)
(0.0735475 0.0128302 1.1861e-21)
(0.0578321 0.0282459 -3.02697e-21)
(0.030376 0.0835514 1.45365e-22)
(0.498801 0.115939 -1.35804e-21)
(0.757708 -0.431296 0)
(0.301266 -0.0189366 8.97018e-24)
(0.205168 -0.00149121 0)
(0.335594 -0.108383 0)
(0.143401 0.109982 -5.0504e-21)
(0.44097 -0.0202062 8.75212e-22)
(0.482969 -0.277522 0)
(0.189197 0.129225 -7.55918e-22)
(0.401467 -0.236266 0)
(0.482834 -0.0721224 3.36632e-21)
(0.457974 0.199396 0)
(-0.00791366 0.0667746 2.0223e-21)
(0.704183 -0.355841 -5.7842e-22)
(0.306821 0.0829561 -1.43339e-21)
(0.539602 -0.207103 -6.49224e-22)
(0.142972 -0.0169265 -2.3758e-21)
(0.407753 0.179503 -1.10233e-21)
(0.392715 0.165109 1.02922e-21)
(0.770818 -0.311235 -2.57072e-22)
(0.0720342 0.00237351 -1.33845e-21)
(0.739823 -0.299979 3.11924e-22)
(0.0808036 -0.0010101 1.25045e-21)
(0.47882 0.203474 1.92573e-21)
(0.78944 -0.376088 -3.85047e-22)
(-0.00376383 0.0657758 6.7144e-22)
(0.35972 0.134961 0)
(0.665368 -0.273356 8.89909e-22)
(0.1027 -0.0116236 -7.0284e-21)
(0.23786 0.123061 0)
(0.28023 -0.145269 2.19994e-21)
(0.511754 -0.12742 -7.14125e-23)
(0.0534971 0.107194 0)
(0.53064 0.0788854 0)
(0.732813 -0.466417 0)
(0.448209 0.145718 0)
(0.765349 -0.369756 1.25009e-21)
(0.0367319 0.0518577 3.04807e-21)
(0.284963 0.108289 0)
(0.542307 -0.183814 0)
(0.184691 -0.0656847 0)
(0.368842 0.037831 0)
(0.533017 -0.261612 0)
(0.112153 0.0537449 0)
(0.179129 0.131276 6.99518e-22)
(0.434684 -0.260342 0)
(0.481518 -0.0588693 -1.83996e-21)
(0.146266 0.100821 4.89475e-21)
(0.429028 -0.0221423 2.01164e-21)
(0.47307 -0.262591 -2.30759e-21)
(0.421458 0.0950464 -2.12617e-21)
(0.681565 -0.349116 0)
(0.0607111 0.0585353 -7.24449e-21)
(0.14484 0.06425 0)
(0.376445 -0.00880902 -4.44982e-21)
(0.442633 -0.217625 -5.87717e-22)
(0.567084 -0.357604 -9.37244e-22)
(0.479644 -0.00619245 -1.95549e-21)
(0.604807 -0.376561 0)
(0.474162 0.0145951 -1.13952e-21)
(0.131896 0.129026 -2.38272e-21)
(0.112338 0.120186 2.28888e-21)
(0.398825 0.013361 -2.87159e-22)
(0.520333 -0.279657 -1.09994e-21)
(0.116976 0.0767047 1.39819e-21)
(0.497268 0.186681 8.11124e-22)
(-0.000484684 0.0688378 -7.88042e-22)
(0.787198 -0.395484 -1.26721e-22)
(0.466648 0.203578 5.23016e-22)
(-0.00740454 0.0675574 3.03875e-22)
(0.743 -0.363472 0)
(0.450461 0.156984 -4.04855e-23)
(0.778601 -0.368913 0)
(0.0328628 0.0482969 -3.68223e-21)
(0.264056 0.159934 0)
(0.582638 -0.147039 -4.04604e-22)
(0.284731 -0.167646 -1.27473e-21)
(0.400666 0.0024246 -1.81632e-21)
(0.127963 0.0827662 0)
(0.493291 -0.259923 0)
(0.00433477 0.0745392 0)
(0.78111 -0.421081 0)
(0.512294 0.163975 -6.45455e-22)
(0.2478 0.148009 0)
(0.552276 -0.131496 9.55552e-22)
(0.297275 -0.166324 -3.28346e-22)
(0.139879 0.0746742 0)
(0.388017 -0.0102371 0)
(0.447737 -0.229581 0)
(0.355983 0.0283175 -9.40006e-22)
(0.504922 -0.243291 0)
(0.12087 0.0469001 0)
(0.605111 -0.259456 8.11574e-24)
(0.106244 0.00684146 1.64829e-21)
(0.348514 0.122513 -2.96512e-21)
(0.640085 -0.260371 0)
(0.11003 -0.00989889 7.24987e-21)
(0.492588 0.157903 1.62276e-21)
(0.0141229 0.0687761 -2.27955e-21)
(0.794272 -0.408332 5.53648e-22)
(0.0459156 0.0977749 -2.12506e-21)
(0.509316 0.0902939 -8.37088e-22)
(0.738489 -0.446857 -1.13882e-21)
(0.526037 0.112827 2.17484e-21)
(0.758387 -0.450866 0)
(0.0289539 0.0916306 2.07402e-21)
(0.45736 -0.31057 9.80249e-22)
(0.557984 -0.0753537 -7.101e-22)
(0.209065 0.176146 -2.30614e-21)
(0.331685 0.0596265 1.86476e-21)
(0.405593 0.241929 -1.13372e-21)
(0.104574 -0.0427019 1.34579e-21)
(0.841348 -0.277097 -1.20307e-24)
(0.761949 -0.450386 0)
(0.529423 0.12506 6.11795e-22)
(0.0213547 0.0868857 0)
(0.285061 0.00219525 3.56298e-21)
(0.201344 -0.0132801 0)
(0.36258 -0.117669 -1.13101e-21)
(0.309911 0.119838 0)
(0.58521 -0.214002 5.90159e-23)
(0.156017 -0.0431931 -1.38815e-21)
(0.0529725 0.104094 -1.64527e-21)
(0.517716 0.0807076 0)
(0.730719 -0.456268 1.31174e-21)
(0.345167 0.0707031 0)
(0.591399 -0.261396 -2.47716e-21)
(0.104938 0.0159379 0)
(-0.00456485 0.0703808 0)
(0.746994 -0.391784 4.58051e-22)
(0.496801 0.187141 0)
(0.191875 0.167363 2.49599e-21)
(0.539872 -0.060814 0)
(0.487044 -0.333852 0)
(0.512299 0.106905 -1.90903e-21)
(0.754654 -0.443158 0)
(0.0327365 0.0899266 2.01005e-23)
(0.434209 0.0151637 -2.28748e-21)
(0.562542 -0.327926 -7.9837e-22)
(0.109944 0.0991952 3.22317e-21)
(0.35588 0.146745 0)
(0.673258 -0.265216 -8.35358e-22)
(0.112603 -0.0228745 -7.17823e-22)
(0.687554 -0.457036 2.1938e-21)
(0.523164 0.0382439 1.4558e-21)
(0.091398 0.128074 -1.29335e-21)
(0.49032 0.018223 0)
(0.629993 -0.401943 1.01122e-21)
(0.1096 0.125601 4.69492e-23)
(-0.00391858 0.0706031 1.58914e-21)
(0.725977 -0.395091 0)
(0.501701 0.17974 4.71398e-22)
(0.218183 0.145945 -3.36002e-21)
(0.36423 -0.217154 1.55806e-21)
(0.523953 -0.100178 1.33342e-22)
(0.415476 0.216291 -5.3487e-22)
(-0.0100592 0.0640345 1.66656e-22)
(0.70525 -0.309638 0)
(0.186925 0.0233908 -7.43683e-22)
(0.328793 -0.0274116 2.73026e-21)
(0.348066 -0.1316 -3.49057e-21)
(0.411912 0.0429616 -9.67509e-22)
(0.417827 0.0223213 -2.65982e-23)
(0.592329 -0.323046 1.94866e-21)
(0.558183 -0.313383 1.91926e-21)
(0.106475 0.0879559 -2.55789e-21)
(0.09058 0.0781136 1.31539e-21)
(0.0709613 -0.012214 2.87151e-21)
(0.421248 0.235642 -1.15546e-21)
(0.85079 -0.294492 0)
(0.338778 0.147747 0)
(0.654241 -0.242437 0)
(0.138062 -0.0420547 2.90363e-21)
(0.494954 0.0338421 3.91196e-22)
(0.658428 -0.422078 0)
(0.0956749 0.120754 0)
(0.428055 0.164948 -9.31347e-22)
(0.771525 -0.339349 0)
(0.0490472 0.0283691 -1.32671e-21)
(0.265036 -0.0190465 -7.66676e-22)
(0.303107 -0.0605628 -1.06157e-21)
(0.256497 -0.0416538 3.85166e-22)
(0.453308 0.0269293 1.44407e-21)
(0.606496 -0.363061 0)
(0.100193 0.106304 2.19619e-21)
(0.339954 0.159237 0)
(0.6699 -0.239709 -1.01927e-21)
(0.143729 -0.0528872 1.81339e-21)
(0.344072 0.0882613 -3.03275e-21)
(0.359402 0.0970034 2.44193e-21)
(0.221812 0.154755 2.66197e-21)
(0.372259 -0.22982 -4.46612e-21)
(0.537579 -0.0996571 2.90364e-21)
(0.453055 0.0432954 1.51217e-21)
(0.634547 -0.37702 -1.52388e-21)
(0.084944 0.0988345 -2.00281e-21)
(0.441046 0.166645 3.44318e-21)
(0.0386599 0.0384717 4.71046e-21)
(0.783977 -0.353607 4.82749e-22)
(0.191138 0.118321 1.16253e-21)
(0.383324 -0.220185 0)
(0.470013 -0.0732914 -1.11346e-21)
(0.141377 0.14049 2.57204e-21)
(0.497674 -0.01347 1.08044e-21)
(0.566217 -0.371185 0)
(0.379936 0.187446 3.63094e-22)
(0.750808 -0.273154 7.5182e-22)
(0.110186 -0.0341464 -8.18121e-22)
(0.205206 0.156118 -2.17272e-22)
(0.421327 -0.267871 0)
(0.52944 -0.0785641 -2.27337e-21)
(0.39379 0.196294 0)
(0.405458 0.193424 0)
(0.77623 -0.285555 4.23263e-22)
(0.0976812 -0.0250648 2.15514e-21)
(0.784653 -0.302911 -5.93875e-22)
(0.0795945 -0.00739582 -2.27486e-21)
(0.00584586 0.0708975 1.75876e-21)
(0.791964 -0.412093 0)
(0.503347 0.169605 9.8991e-22)
(0.37612 0.162816 0)
(0.716982 -0.282883 3.85099e-22)
(0.0984342 -0.0159711 -7.56054e-22)
(0.601965 -0.309769 2.33533e-21)
(-0.0076413 0.0590235 -2.48092e-21)
(0.40207 0.190097 -8.7041e-22)
(0.367272 -0.0255307 3.64958e-21)
(0.161969 0.0565028 0)
(0.395706 -0.181472 1.22358e-21)
(0.392604 0.0771526 -2.23954e-21)
(0.628719 -0.312495 0)
(0.0781662 0.0533877 -4.28645e-21)
(0.0198387 0.0626688 1.46536e-21)
(0.47848 0.155193 -2.99436e-21)
(0.789727 -0.396401 -5.73315e-22)
(0.502587 -0.330295 1.25373e-21)
(0.511365 -0.0450036 0)
(0.171043 0.151829 3.15044e-21)
(0.703551 -0.459057 2.34305e-21)
(0.520096 0.0535893 8.81358e-22)
(0.0759914 0.118037 0)
(0.544275 -0.234537 1.42049e-21)
(0.120482 0.0144229 0)
(0.390349 0.108933 -2.41126e-21)
(0.664139 -0.309492 -8.09733e-22)
(0.0744201 0.0303082 -1.3121e-21)
(0.535015 -0.243043 -4.65232e-23)
(0.115927 0.0256303 -2.23984e-23)
(0.446875 0.221007 2.34966e-21)
(0.030232 0.029163 -3.3912e-21)
(0.844892 -0.333225 -5.2474e-24)
(0.444781 -0.316022 -1.27615e-21)
(0.585207 -0.0881155 -2.10452e-22)
(0.225814 0.188569 0)
(0.404698 0.117562 2.45454e-21)
(0.694548 -0.325248 9.87849e-22)
(0.0637776 0.0385189 3.17386e-21)
(0.382935 0.0311819 0)
(0.533847 -0.275699 8.08229e-22)
(0.10955 0.0648925 0)
(0.461834 -0.0379423 1.11037e-21)
(0.465737 -0.280413 0)
(0.159995 0.12101 0)
(0.28524 0.0596834 1.00026e-21)
(0.470363 -0.172347 1.57384e-21)
(0.169727 -0.0256984 -7.49073e-24)
(0.156844 0.149135 -3.19381e-21)
(0.509093 -0.0284477 -2.61497e-21)
(0.54202 -0.357502 -3.32353e-21)
(0.504743 0.142218 1.15406e-21)
(0.780732 -0.42264 -4.51839e-22)
(0.0162854 0.0761039 -3.44417e-23)
(0.710512 -0.448654 -1.62645e-21)
(0.509871 0.0631904 -8.93054e-22)
(0.0670435 0.110682 -1.65237e-21)
(0.317062 0.212928 2.31936e-21)
(0.254409 -0.164103 -1.11282e-21)
(0.702282 -0.181675 0)
(0.407457 0.218953 -6.32373e-22)
(0.396833 0.212283 5.87489e-22)
(0.797663 -0.279238 1.30475e-22)
(0.816751 -0.287405 -3.84339e-22)
(0.0919625 -0.0258497 7.67962e-22)
(0.105005 -0.0367137 6.93519e-22)
(-0.00888053 0.0613491 2.51602e-21)
(0.635579 -0.310446 -2.57117e-21)
(0.409503 0.1964 -3.61791e-22)
(0.423421 0.220347 3.70262e-23)
(-0.00901975 0.0638627 0)
(0.736679 -0.315123 0)
(0.425596 0.0529576 3.51623e-21)
(0.625047 -0.342271 4.06915e-22)
(0.0834618 0.0814405 0)
(0.010024 0.0672487 4.38716e-21)
(0.493868 0.166817 -1.24778e-21)
(0.799952 -0.405677 0)
(0.352677 0.203957 -3.26781e-21)
(0.366846 0.205131 2.43829e-21)
(0.734863 -0.232408 -8.35458e-22)
(0.75385 -0.247693 -3.04868e-22)
(0.172147 -0.091272 1.36389e-21)
(0.146654 -0.0694605 6.87766e-22)
(0.0170855 0.0853227 0)
(0.740608 -0.453502 0)
(0.545035 0.125239 -3.1177e-22)
(0.387487 0.213916 6.28323e-22)
(-0.0108884 0.0619153 -1.54821e-21)
(0.671008 -0.285251 0)
(0.343275 -0.063419 -3.40029e-24)
(0.221669 0.0229233 -1.64154e-21)
(0.281326 -0.0878339 -7.90559e-22)
(0.430927 0.203966 9.54951e-22)
(0.687441 -0.331801 8.4614e-22)
(-0.00919406 0.0647244 -3.14242e-21)
(0.286852 0.161849 -2.86515e-21)
(0.609641 -0.172849 1.78472e-21)
(0.240546 -0.132866 3.2608e-23)
(0.518252 0.155063 -3.23936e-23)
(0.777463 -0.428093 -2.3371e-22)
(0.00824426 0.0771324 9.02008e-22)
(0.523022 -0.308746 6.07954e-23)
(-0.00298276 0.0516265 2.88998e-21)
(0.393152 0.152834 2.24094e-22)
(0.205906 0.104141 1.53688e-21)
(0.324296 -0.164076 9.32816e-23)
(0.458055 -0.0901494 -3.71822e-21)
(0.329084 -0.0119196 0)
(0.386156 -0.15606 3.85739e-21)
(0.17109 0.0270961 -2.0693e-21)
(0.468351 0.212891 -1.97155e-21)
(-0.00354938 0.0634736 -1.99676e-21)
(0.796487 -0.365216 2.83619e-23)
(0.341233 -0.00786663 0)
(0.403062 -0.172173 1.29467e-21)
(0.158798 0.040465 2.92878e-21)
(0.324562 -0.0562431 -1.595e-21)
(0.230125 0.00801898 1.73401e-21)
(0.279601 -0.0763978 -4.21432e-22)
(0.184705 0.171701 1.53421e-21)
(0.546296 -0.0509824 8.86736e-22)
(0.523368 -0.366435 -1.82388e-21)
(0.378148 -0.0522329 0)
(0.338744 -0.143941 0)
(0.184877 0.0598686 -2.44393e-22)
(0.381113 -0.0369669 -1.99596e-21)
(0.375549 -0.167819 -1.02812e-21)
(0.172984 0.0646964 -3.45064e-23)
(0.301622 0.207403 -3.53837e-21)
(0.675504 -0.166158 1.23814e-21)
(0.284405 -0.190828 2.27688e-21)
(0.00614949 0.0570259 -3.03305e-21)
(0.00382472 0.0606842 3.10637e-21)
(0.822366 -0.372113 1.11718e-22)
(0.813576 -0.381501 2.87646e-23)
(0.47344 0.206503 -1.72386e-21)
(0.480947 0.198868 2.57957e-21)
(0.51471 0.144259 -1.43031e-21)
(0.778219 -0.4287 2.43811e-22)
(0.0136745 0.0794889 0)
(0.242442 -0.163256 -1.4894e-21)
(0.330307 0.225294 -7.26528e-22)
(0.72965 -0.19054 0)
(0.229123 0.141354 0)
(0.329854 -0.190147 1.42357e-21)
(0.527645 -0.11321 -1.09979e-21)
(0.511309 0.00340714 0)
(0.621238 -0.414681 -1.0463e-21)
(0.126138 0.140084 -4.85679e-23)
(0.601308 -0.368766 5.26201e-22)
(-0.00110178 0.0612049 0)
(0.47558 0.15117 6.98367e-22)
(0.0362065 0.0977477 0)
(0.540014 0.101 0)
(0.745722 -0.468426 -2.61514e-22)
(0.481354 0.197973 -6.28975e-22)
(-0.0059765 0.0685049 0)
(0.757581 -0.378761 -4.49539e-22)
(-0.00294993 0.0472826 1.06435e-32)
(0.483293 -0.281225 -1.23713e-21)
(0.35684 0.146653 -2.47128e-22)
(0.502005 -0.246832 1.40432e-21)
(-0.00647022 0.0491604 -1.0619e-32)
(0.335396 0.171662 2.27488e-22)
(0.689211 -0.384519 1.93062e-21)
(0.453327 0.0787379 0)
(0.061728 0.0833409 4.23295e-21)
(0.698636 -0.428952 -1.5548e-22)
(0.0072433 0.0758734 0)
(0.539741 0.13943 0)
(0.460211 0.139555 1.50158e-21)
(0.764875 -0.384193 -7.54302e-22)
(0.0327277 0.0600833 -2.16871e-21)
(0.438143 0.238334 -2.30646e-21)
(0.0131781 0.0421365 -1.19082e-21)
(0.84401 -0.317858 0)
(0.315728 0.0657136 -7.61699e-22)
(0.134484 0.00172676 8.15962e-22)
(0.527564 -0.216087 -6.94146e-22)
(0.745326 -0.460431 0)
(0.0225413 0.0894374 -1.50777e-21)
(0.545106 0.11789 -3.93156e-22)
(0.513884 -0.00748971 1.05175e-21)
(0.137922 0.146311 8.70686e-22)
(0.598633 -0.400228 0)
(0.670234 -0.418937 0)
(0.486651 0.0470795 0)
(0.0824565 0.112218 -1.54845e-21)
(-0.0013796 0.0245436 0)
(0.274183 -0.138188 -1.46617e-21)
(0.197772 0.0889673 -2.73931e-23)
(0.59898 -0.328099 8.8193e-22)
(-0.0059363 0.0590797 1.74273e-21)
(0.41955 0.179727 4.42642e-22)
(0.304761 0.0544329 1.98926e-21)
(0.148654 -0.00404778 -1.96563e-21)
(0.489565 -0.195888 -7.88898e-22)
(0.75332 -0.437628 1.10949e-22)
(0.533493 0.143866 6.36933e-22)
(0.00941144 0.0805333 0)
(0.016201 0.0843261 1.57473e-21)
(0.551162 0.125159 0)
(0.72302 -0.452484 -5.00029e-24)
(0.48316 0.180356 9.14925e-22)
(0.0104627 0.0610107 -4.68171e-21)
(0.810045 -0.389955 -1.31305e-22)
(0.0517482 0.00961672 3.47022e-21)
(0.840979 -0.316613 -2.96323e-22)
(0.432737 0.221893 0)
(0.292843 0.214214 4.50739e-21)
(0.671551 -0.154585 -1.57855e-21)
(0.318678 -0.221698 2.15921e-21)
(0.785655 -0.261541 -1.7926e-22)
(0.382533 0.217473 -1.40527e-21)
(0.132895 -0.0621624 2.13485e-21)
(0.0439642 0.0119243 3.1016e-21)
(0.432885 0.237412 0)
(0.859754 -0.310035 -9.70312e-23)
(0.302736 0.149213 7.18142e-22)
(0.321612 0.159874 0)
(0.613576 -0.197269 1.89192e-21)
(0.649347 -0.216402 -2.02224e-21)
(0.193175 -0.0858993 -1.50487e-21)
(0.174443 -0.0775391 0)
(0.286898 0.150289 7.1201e-22)
(0.596802 -0.177708 0)
(0.223391 -0.111522 -6.97152e-22)
(0.346216 0.212373 0)
(0.735503 -0.221195 1.34341e-21)
(0.191322 -0.111039 -4.94291e-22)
(0.698358 -0.435168 8.47032e-22)
(0.497972 0.0595093 -9.85178e-22)
(0.069793 0.107633 3.38496e-21)
(0.767936 -0.443546 0)
(0.522486 0.135686 -2.20089e-22)
(0.015752 0.0829703 0)
(0.0511548 0.0952423 1.08677e-21)
(0.494482 0.0844097 6.07285e-22)
(0.726204 -0.4325 5.20288e-22)
(0.545258 -0.257082 -2.14908e-22)
(-0.00810193 0.0535852 -1.88312e-24)
(0.352791 0.184511 0)
(0.236707 0.102749 -1.40863e-21)
(0.245031 0.0935718 0)
(0.258623 -0.114299 3.53587e-22)
(0.483371 -0.12608 -4.36044e-21)
(0.238451 -0.0951327 -4.4737e-22)
(0.478611 -0.136025 2.81456e-21)
(0.319895 0.196485 0)
(0.300322 0.185919 4.55481e-22)
(0.247141 -0.147385 -2.7364e-23)
(0.686746 -0.196957 -1.01182e-21)
(0.22393 -0.12902 -3.56163e-21)
(0.652353 -0.179071 2.24644e-21)
(0.517326 -0.323601 0)
(-0.00158964 0.0517345 -3.15791e-21)
(0.414612 0.143813 0)
(0.76269 -0.435382 6.91559e-23)
(0.52822 0.144201 -2.17909e-22)
(0.00995494 0.0795478 -9.47072e-22)
(0.239701 0.16573 8.66817e-22)
(0.357461 -0.227003 1.56552e-21)
(0.565834 -0.115669 -3.25041e-21)
(0.66712 -0.440921 -1.99925e-21)
(0.513774 0.0285939 -2.44883e-21)
(0.100017 0.129973 0)
(0.0634968 -0.0021275 -3.71066e-21)
(0.836848 -0.307954 3.15275e-22)
(0.425714 0.222737 0)
(0.6767 -0.367484 0)
(0.470913 0.184488 0)
(-0.00600627 0.0663551 0)
(0.693274 -0.384761 0)
(0.490262 0.177568 -8.72014e-22)
(-0.00447981 0.0684648 0)
(0.36791 0.193161 1.36258e-21)
(0.741645 -0.257395 -4.71605e-22)
(0.133026 -0.0545856 -1.01801e-21)
(0.18046 0.108488 4.1194e-22)
(0.392181 -0.214523 0)
(0.448997 -0.0598517 -1.23087e-21)
(0.486274 0.187261 -1.06605e-21)
(0.00650155 0.0626341 -2.71469e-21)
(0.812304 -0.38902 1.19489e-22)
(0.698003 -0.401909 0)
(0.467748 0.0787251 0)
(0.0593761 0.0911652 -3.65262e-21)
(0.0319039 0.0395856 -9.02146e-22)
(0.802808 -0.358759 -7.6185e-22)
(0.450039 0.180283 -3.18165e-21)
(0.288023 0.18494 -4.6397e-22)
(0.274146 -0.169472 2.39555e-21)
(0.636066 -0.165529 -1.20196e-21)
(0.442757 -0.00217618 2.22396e-21)
(0.532521 -0.311671 -1.19362e-21)
(0.127179 0.107799 -3.14341e-21)
(0.215238 0.125561 -4.20599e-23)
(0.33668 -0.188833 4.76528e-22)
(0.495693 -0.100619 1.44062e-21)
(0.00358983 0.0682315 1.05074e-21)
(0.798669 -0.401185 1.7051e-22)
(0.497222 0.180649 -1.09109e-21)
(0.42344 0.1798 6.05203e-22)
(0.785164 -0.329067 3.04329e-22)
(0.0560333 0.0174618 0)
(0.213244 0.0954442 1.52768e-21)
(0.299786 -0.140377 -3.00315e-21)
(0.452559 -0.0979628 2.46059e-21)
(0.434147 0.241083 -9.47605e-22)
(0.0331914 0.0214085 -1.36232e-21)
(0.86141 -0.310884 -8.71988e-23)
(0.279543 0.121776 8.71096e-22)
(0.553338 -0.177816 0)
(0.20095 -0.0836648 0)
(0.359703 0.012393 3.41822e-21)
(0.467286 -0.222205 -7.7727e-22)
(0.132895 0.0525946 0)
(0.664741 -0.39932 0)
(0.470334 0.0510787 -2.15995e-21)
(0.0782538 0.103954 1.62182e-21)
(0.433493 0.228411 0)
(-0.00402727 0.0595453 4.1927e-22)
(0.791052 -0.32225 8.51928e-22)
(0.430506 0.23432 -8.49013e-22)
(-0.000179838 0.0551909 -1.33182e-21)
(0.809278 -0.315504 -5.58224e-22)
(0.0349982 0.0328584 -8.17929e-22)
(0.81281 -0.349711 3.03337e-22)
(0.446176 0.190619 2.93514e-21)
(0.465774 -0.0148682 9.59838e-22)
(0.539457 -0.33205 2.46642e-21)
(0.138051 0.121733 0)
(-0.00759718 0.061827 -3.84151e-22)
(0.755294 -0.306908 -7.93958e-22)
(0.414747 0.226019 0)
(0.0256112 0.0652763 0)
(0.776382 -0.397279 4.24853e-22)
(0.474434 0.142911 3.50017e-22)
(-0.000821341 0.039099 -1.56677e-21)
(0.404019 -0.2527 1.16053e-21)
(0.316314 0.118913 0)
(0.281127 0.157307 3.63889e-22)
(0.436727 -0.197583 0)
(-0.00621766 0.0423021 -1.56054e-21)
(0.0419806 0.0168405 3.813e-24)
(0.851567 -0.319864 1.10031e-24)
(0.437222 0.229163 0)
(-0.00187372 0.0712973 0)
(0.770749 -0.402549 0)
(0.503995 0.181132 -1.30912e-21)
(0.466493 0.206022 9.9418e-22)
(0.463426 0.199081 -8.04313e-22)
(0.0133919 0.0487966 1.52453e-21)
(0.832199 -0.362467 -1.45576e-23)
(0.017859 0.0460552 0)
(0.826765 -0.363786 0)
(0.480369 0.131538 -6.7838e-22)
(0.767304 -0.406944 -3.38148e-22)
(0.0274396 0.0716137 0)
(0.120034 0.14283 0)
(0.642168 -0.437045 0)
(0.523071 0.0106266 0)
(0.250586 0.0691884 -1.90344e-21)
(0.220354 -0.0689476 4.26144e-21)
(0.448007 -0.134521 -1.57649e-21)
(0.481592 0.103435 -1.92649e-21)
(0.738174 -0.416615 -1.64407e-22)
(0.0402532 0.0832855 -3.19979e-21)
(0.0488558 0.0891856 -2.08019e-21)
(0.481882 0.0912134 2.67749e-21)
(0.723978 -0.418605 2.28014e-22)
(0.423739 0.243228 -1.14401e-21)
(0.0611397 -0.00563502 -1.47925e-21)
(0.862224 -0.295564 0)
(0.325936 0.205532 0)
(0.704366 -0.199221 -3.95822e-22)
(0.223367 -0.134461 3.49112e-21)
(0.301411 0.172414 0)
(0.637359 -0.185433 -2.34319e-21)
(0.229067 -0.128825 -5.28713e-24)
(0.440139 0.100908 2.6997e-21)
(0.706598 -0.371859 -2.42307e-22)
(0.0520984 0.066515 1.84171e-21)
(0.451845 0.0959065 0)
(0.709435 -0.384548 -2.37636e-22)
(0.0512991 0.074406 -1.68815e-21)
(0.206658 0.0808695 0)
(0.303963 -0.134211 4.70575e-21)
(0.424525 -0.0862285 0)
(0.325817 0.169314 0)
(0.663689 -0.217368 1.22694e-21)
(0.176647 -0.0865739 -5.43093e-22)
(0.0298433 0.0945675 3.26991e-21)
(0.737416 -0.468361 5.33202e-22)
(0.551393 0.10673 0)
(0.501565 0.165063 1.72176e-23)
(-0.00198274 0.0681726 -9.79215e-22)
(0.670712 -0.392135 3.47664e-22)
(0.497584 0.154164 5.29112e-23)
(-0.000533724 0.0656138 0)
(0.640093 -0.38754 -1.05871e-21)
(0.252334 0.137274 -1.0396e-21)
(0.271497 -0.141577 5.1491e-22)
(0.543636 -0.141917 8.2533e-23)
(0.628035 -0.35046 -1.03995e-22)
(-0.00518513 0.0623486 -4.00866e-21)
(0.454309 0.17592 0)
(0.433492 0.191962 -2.58629e-21)
(0.0480071 0.0212368 0)
(0.80602 -0.33477 0)
(-0.00259754 0.0593482 1.5941e-21)
(0.590939 -0.354753 -8.45757e-22)
(0.454081 0.157919 -5.1084e-22)
(0.30184 0.00969832 -2.47517e-21)
(0.177881 0.00425638 -2.61607e-21)
(0.396656 -0.145917 -2.68723e-23)
(0.364048 0.112639 4.31946e-22)
(0.643821 -0.27792 3.14011e-22)
(0.0955386 0.00916031 1.68155e-21)
(0.504122 -0.314097 -2.88343e-21)
(0.475431 -0.0312248 -3.49908e-21)
(0.154775 0.128853 0)
(0.00877367 0.0786265 0)
(0.719289 -0.435924 -1.48394e-22)
(0.54122 0.13944 0)
(0.687061 -0.409064 0)
(0.473899 0.0674299 0)
(0.0663036 0.0977533 0)
(0.0210436 0.0347767 0)
(0.44198 0.235701 8.39004e-22)
(0.853059 -0.322238 1.69678e-22)
(0.381694 0.119851 0)
(0.670511 -0.297846 -1.70285e-22)
(0.0812957 0.0190131 3.00077e-24)
(0.249099 0.0570672 1.83885e-21)
(0.222945 -0.0641201 -3.66592e-21)
(0.426023 -0.125204 0)
(0.741696 -0.43086 -1.04926e-22)
(0.530749 0.152048 -6.04469e-22)
(0.00539467 0.0774992 0)
(0.0227053 0.0552829 1.86787e-21)
(0.793346 -0.384377 -2.38312e-23)
(0.467374 0.163871 -7.84603e-23)
(0.454566 0.217357 0)
(0.449366 0.216329 -7.33137e-22)
(-0.00573582 0.0639526 -9.62456e-22)
(-0.00768953 0.0654457 1.19667e-21)
(0.780925 -0.345606 -4.27979e-22)
(0.759576 -0.343477 3.51939e-22)
(0.394968 0.0486167 0)
(0.580734 -0.304729 -2.24707e-21)
(0.0933821 0.0663142 -2.05677e-21)
(0.663153 -0.367209 -2.73222e-21)
(0.44065 0.0679218 0)
(0.0687978 0.0831016 2.24471e-21)
(0.327647 0.0294039 1.97166e-21)
(0.465677 -0.202342 -1.29375e-21)
(0.138157 0.0249798 -3.25142e-21)
(0.698266 -0.411044 4.94401e-22)
(0.518914 0.159231 -6.39067e-22)
(0.686686 -0.417188 -2.93004e-22)
(0.000450712 0.0717178 1.03736e-21)
(0.527099 0.148206 6.00186e-22)
(0.00345147 0.0722233 0)
(0.417478 0.136602 0)
(0.728072 -0.339248 0)
(0.0555061 0.0366304 -2.07028e-21)
(0.521681 0.162135 -7.27778e-22)
(0.517573 0.165044 1.86146e-21)
(0.744792 -0.420641 3.27969e-22)
(0.725556 -0.411466 -6.22883e-22)
(0.00131741 0.074719 -2.74894e-21)
(-0.000566197 0.0727552 7.15169e-24)
(0.43971 0.0557511 0)
(0.639223 -0.362059 2.70398e-21)
(0.0799905 0.0905127 -2.91515e-21)
(0.360316 0.0708889 -1.83713e-21)
(0.604097 -0.280156 1.97382e-21)
(0.0924887 0.030262 0)
(0.442339 0.23338 0)
(0.00570276 0.050132 -1.85359e-22)
(0.830111 -0.327278 5.36073e-22)
(0.387247 0.0628827 -1.36135e-21)
(0.597061 -0.30007 0)
(0.0872482 0.0569248 3.38571e-21)
(0.336827 0.042928 -8.11592e-22)
(0.506758 -0.230701 1.51771e-21)
(0.123345 0.029481 -1.87352e-21)
(0.446724 0.222754 0)
(-0.00331913 0.0607473 0)
(0.797449 -0.338246 -6.60116e-22)
(0.381304 0.134566 0)
(0.693479 -0.295839 -2.93e-22)
(0.081202 0.00970191 2.02411e-21)
(0.585271 -0.402281 0)
(0.53119 -0.0207945 0)
(0.153253 0.158092 1.11976e-22)
(0.287399 0.193548 1.14808e-22)
(0.644274 -0.158762 0)
(0.290363 -0.187931 -1.80095e-21)
(0.717443 -0.472114 -8.67205e-22)
(0.0674481 0.116346 0)
(0.533276 0.0631199 0)
(-0.00265246 0.0347811 3.75948e-21)
(0.370113 -0.191134 2.05292e-21)
(0.263739 0.119386 3.83502e-23)
(0.381972 0.0910566 0)
(0.630665 -0.299102 -1.21559e-21)
(0.0816454 0.0374493 0)
(0.458283 0.221227 -1.5655e-21)
(0.0075714 0.050998 -5.10578e-21)
(0.833426 -0.346827 -4.43665e-22)
(0.382431 -0.269414 0)
(0.627576 -0.122525 1.11564e-21)
(0.2592 0.201672 0)
(0.342803 0.194117 0)
(-0.00999684 0.0555123 9.20763e-22)
(0.574172 -0.249114 0)
(0.157438 0.084621 -2.0173e-21)
(0.160684 0.0988513 2.06351e-21)
(0.414736 -0.215669 0)
(0.406213 -0.0332507 -1.57856e-21)
(0.428327 -0.235073 2.96811e-21)
(0.428612 -0.0401408 1.24789e-21)
(0.339726 0.0121405 -1.85672e-21)
(0.442013 -0.194801 -1.81728e-21)
(0.143973 0.0373092 0)
(0.189272 0.0990913 -1.77078e-21)
(0.174692 0.086756 0)
(0.356347 -0.183509 0)
(0.440565 -0.0712501 0)
(0.372484 -0.186634 1.78812e-21)
(0.414685 -0.0523891 -1.53221e-23)
(0.368752 0.0861095 -1.15644e-22)
(0.572143 -0.268656 9.01036e-22)
(0.100588 0.0359792 2.32388e-21)
(0.368486 0.0604629 3.17321e-21)
(0.570943 -0.275122 0)
(0.0991998 0.0461262 0)
(0.00275247 0.0681245 0)
(0.647248 -0.404114 0)
(0.516519 0.144719 -5.00534e-22)
(0.269739 0.138348 2.85831e-21)
(0.563422 -0.160434 0)
(0.238861 -0.117536 -9.54499e-22)
(0.513564 0.169064 1.7844e-21)
(0.767317 -0.416882 1.95664e-22)
(0.000581945 0.0737988 1.57062e-21)
(0.442167 0.117662 0)
(0.455295 0.125394 -1.44714e-21)
(0.728915 -0.370629 3.02074e-22)
(0.747379 -0.382591 -7.73832e-22)
(0.0444363 0.0606888 2.27672e-21)
(0.0375886 0.0636471 2.09363e-21)
(0.266877 0.123997 0)
(0.542642 -0.161368 0)
(0.226516 -0.103137 -4.58525e-22)
(0.342189 0.191501 -1.10379e-21)
(0.707523 -0.225813 0)
(0.177146 -0.0906212 -1.17122e-21)
(0.414169 0.110636 7.77679e-22)
(0.693285 -0.340835 0)
(0.0581051 0.049141 -2.09985e-21)
(0.234056 0.0315286 -1.96924e-21)
(0.368683 -0.0884118 -9.13152e-22)
(0.252926 -0.0737992 -9.87034e-22)
(0.467407 0.108135 0)
(0.735156 -0.400516 0)
(0.0410764 0.0763221 3.40308e-21)
(0.235123 0.0770515 0)
(0.247485 -0.0926343 -5.30978e-22)
(0.444608 -0.119902 0)
(0.426475 0.0698208 1.73327e-21)
(0.64856 -0.353256 1.48357e-21)
(0.0730899 0.0744287 2.92267e-22)
(0.342662 0.179238 -1.10832e-21)
(0.695539 -0.232858 -1.39866e-21)
(0.160732 -0.0757328 0)
(0.230703 0.0478509 1.95133e-21)
(0.217576 0.054234 8.7425e-22)
(0.392743 -0.0986599 -8.78278e-22)
(0.25286 -0.0827016 1.95369e-21)
(0.392992 -0.0889365 0)
(0.275244 -0.102671 3.46573e-21)
(0.191844 0.0728543 8.90132e-22)
(0.327093 -0.148766 -2.16452e-21)
(0.17938 0.0777806 -5.73539e-22)
(0.404515 -0.0680625 0)
(0.365069 -0.175803 -1.18156e-21)
(0.404422 -0.0537921 1.81431e-21)
(0.299726 0.135883 -1.03103e-21)
(0.317839 0.135836 0)
(0.594644 -0.198812 -1.48798e-21)
(0.615454 -0.219346 1.15968e-21)
(0.181583 -0.0724459 4.35072e-21)
(0.15606 -0.0505287 -3.62213e-21)
(0.0454826 0.017561 0)
(0.830158 -0.328314 1.4572e-22)
(0.436436 0.210601 1.50229e-21)
(0.164928 0.159909 -3.78986e-21)
(0.529088 -0.0336751 -1.39743e-21)
(0.552698 -0.377039 2.82802e-21)
(0.0329008 0.028978 1.74255e-21)
(0.0277348 0.0359643 0)
(0.834821 -0.340721 -1.26015e-22)
(0.826148 -0.352017 -2.77247e-22)
(0.446388 0.211773 -3.79588e-21)
(0.45283 0.201477 1.96259e-21)
(0.213911 0.168047 0)
(0.426729 -0.280617 1.68e-21)
(0.550107 -0.0850094 -3.25786e-22)
(0.254573 -0.000983664 -4.10992e-21)
(0.248889 -0.048098 0)
(0.328032 -0.0742976 3.14591e-21)
(0.468244 0.12136 6.72189e-22)
(0.750275 -0.39839 8.71627e-22)
(0.0350001 0.0713531 0)
(0.247122 0.114254 0)
(0.251422 -0.120076 4.36985e-22)
(0.509232 -0.13838 1.38859e-21)
(0.353602 0.180401 0)
(0.710331 -0.245542 0)
(0.143872 -0.0606069 2.81161e-22)
(0.417614 0.213274 0)
(0.418183 0.203424 0)
(0.819003 -0.305396 -1.42123e-22)
(0.0732967 -0.00784421 2.1509e-21)
(0.808137 -0.311207 3.87273e-22)
(0.0683496 -0.000622258 -2.9147e-21)
(0.432253 0.136085 -1.46357e-21)
(0.742417 -0.354672 -8.50615e-22)
(0.0453773 0.0466342 -9.89623e-22)
(0.378733 0.201306 -6.77947e-22)
(0.625781 -0.280168 0)
(-0.010115 0.059702 1.14136e-21)
(0.403796 -0.28081 0)
(0.599667 -0.107677 -8.99215e-22)
(0.242611 0.190766 0)