/*--------------------------------*- C++ -*----------------------------------*\
  =========                 |
  \\      /  F ield         | OpenFOAM: The Open Source CFD Toolbox
   \\    /   O peration     | Website:  https://openfoam.org
    \\  /    A nd           | Version:  6
     \\/     M anipulation  |
\*---------------------------------------------------------------------------*/
FoamFile
{
    version     2.0;
    format      ascii;
    class       volScalarField;
    location    "./ITHACAoutput/Offline/1";
    object      p;
}
// * * * * * * * * * * * * * * * * * * * * * * * * * * * * * * * * * * * * * //

dimensions      [0 2 -2 0 0 0 0];

internalField   nonuniform List<scalar> 
13046
(
1.06262
0.396945
0.440668
0.881801
0.767813
0.483409
0.92686
0.382577
0.644889
1.14003
-0.884977
-0.440035
0.828324
0.24662
0.331773
0.728143
-0.292671
-0.672267
1.05888
0.47313
0.754379
0.846888
-0.33751
-0.661543
1.12088
0.640892
0.489114
0.844174
0.159021
0.30046
0.979128
0.46637
0.367781
1.0046
0.657149
0.649213
1.03645
0.730383
0.662219
1.01432
0.358932
0.596453
0.813077
0.851118
0.830036
0.921936
0.856875
0.733384
0.984617
0.396246
0.460605
0.214714
0.844754
0.0402779
0.0778124
0.282432
0.84837
-0.141836
0.423527
0.218651
0.323675
-0.210812
0.342396
-0.272139
-0.679028
0.60686
0.408783
0.00254791
0.295868
0.456311
0.0126284
0.318535
-0.1294
0.404831
0.197622
1.02287
0.457148
0.833129
0.0387613
0.448543
-0.477846
1.01947
0.596831
0.520236
-0.339731
-0.67111
0.680111
0.511555
-0.11718
-0.724163
0.0469991
0.30125
-0.786968
0.450277
0.543012
-0.21876
-0.376914
-0.0159102
-0.0286669
-0.0407656
0.488978
-0.737587
0.937509
0.89832
0.589912
0.948407
0.486018
0.141778
0.92938
0.265747
0.48417
1.28676
-0.537025
-0.805133
0.759232
0.383192
0.354983
0.498671
0.480487
-0.323772
-0.0776353
-0.204131
-0.00104354
1.2288
-0.839621
-0.472819
0.763819
-0.0561886
0.180929
0.962295
0.340122
0.523864
0.0949458
0.174903
-0.738915
0.448227
-0.574591
-0.121669
0.86984
0.379212
0.286073
0.698334
0.221669
0.608806
0.916424
0.237788
0.361826
0.974127
0.691246
0.117304
0.368608
-0.325935
0.293106
0.941578
0.690055
0.28317
-0.0938417
0.142152
-0.225508
0.0806754
0.761743
0.64142
0.379675
0.095701
0.814314
1.00327
-0.459722
-0.769579
1.31837
-0.512076
-0.782213
0.57979
-0.585255
-0.151918
0.843907
0.286951
0.324459
0.349156
0.873614
0.140247
-0.381167
-0.888839
1.02938
0.900382
0.309885
0.349113
0.879286
0.451537
0.251193
0.648257
0.298061
0.665956
0.0190177
0.344284
0.68116
0.0656721
0.182535
0.792984
-0.273913
-0.746763
0.0896826
0.341691
-0.699072
0.485853
-0.792328
-0.113432
0.145197
-0.0682562
0.799505
0.69215
0.360165
0.103294
-0.459544
-0.856912
0.768978
-0.18717
0.92808
0.789622
0.660225
0.859903
0.21018
0.285519
0.122151
0.281338
-0.689592
0.712361
0.0195898
0.395499
-0.510293
-0.833323
1.19601
0.81359
-0.0991872
0.0870177
0.382789
-0.732536
-0.0486544
0.19178
-0.0757188
0.666573
0.686827
-0.124448
0.149589
-0.555677
-0.184933
0.346224
-0.0527301
-0.29468
0.548137
-0.528363
-0.805832
1.15285
0.987161
0.313034
0.450399
1.19204
-0.513599
-0.609908
0.997893
0.837243
0.520079
0.234604
0.35952
-0.0398202
0.0180886
0.734605
0.5479
0.00764815
0.521501
-0.458132
0.650517
0.0855727
0.167999
0.13225
-0.394527
0.467511
0.508668
-0.434124
-0.144704
0.807914
0.786296
0.842881
0.0914268
-0.226805
0.603161
0.663106
0.0796228
0.187458
0.634949
0.576768
0.969631
0.304011
0.28148
0.0661199
-0.306713
0.503308
0.556079
-0.209066
-0.505611
0.986793
0.272561
0.33892
0.736305
-0.0233921
-0.110355
0.504353
-0.121219
0.0676661
0.82739
0.23857
-0.0118952
0.476874
0.527663
-0.215717
0.00909703
-0.345518
-0.0331865
-0.390434
-0.876705
0.898371
0.535657
-0.145807
0.0601131
-0.749366
-0.600555
1.01747
0.627374
0.967518
0.282802
0.41582
-0.0975549
0.377891
-0.248467
0.618684
-0.676689
0.0437275
0.225046
0.838904
-0.606694
0.117476
0.259143
0.218817
0.428226
0.442394
-0.152193
0.159573
0.153391
0.584365
0.672156
-0.223877
-0.609158
0.15618
-0.0675228
0.728513
0.38245
-0.201465
0.0436215
0.611701
0.0896082
0.663617
0.180513
0.162959
0.906946
0.958514
0.446691
0.527308
0.713437
0.00447742
-0.0569361
0.640776
-0.801207
-0.229745
-0.584324
0.0839994
0.268569
0.576357
0.417267
0.0708722
0.448938
0.429945
-0.216555
-0.269112
0.0361127
0.0806761
-0.570536
-0.663194
1.11316
1.14228
-0.494025
-0.589278
0.220945
-0.121947
0.468222
-0.3094
0.775323
-0.79982
0.516604
0.499711
0.00320341
-0.032537
0.236216
0.209886
-0.256218
-0.885307
0.852886
1.22709
-0.493808
-0.679939
0.774495
0.96498
0.618828
1.28687
-0.791267
-0.530726
0.790477
0.280879
0.316196
1.0181
-0.904004
-0.344951
-0.914265
-0.650066
0.79147
1.09025
0.413727
0.590943
0.996502
0.518909
0.817477
1.18921
-0.4709
-0.777235
0.827662
0.440146
0.782942
0.792243
0.94321
0.66492
0.779493
-0.0958167
0.00409992
0.890593
0.494626
0.984008
0.668165
0.358191
1.07237
0.619807
0.103268
0.380726
-0.419876
-0.427365
-0.791294
-0.819754
0.895093
0.979762
0.764202
-0.725859
-0.302816
0.35926
0.478876
0.0691301
0.937329
0.350692
0.424243
-0.32037
-0.296664
0.520866
-0.939956
-0.537933
1.0968
-0.0479208
0.562251
-0.809751
1.3132
-0.493045
-0.885219
-0.677423
-0.889473
0.576764
-0.6599
-0.685053
0.634346
-0.392658
0.11189
0.264647
-0.877745
-0.394612
1.08549
0.505128
-0.604155
-0.121668
0.912143
-0.265208
-0.606564
0.8002
0.384388
0.300324
-0.90094
-0.192659
0.789281
-0.29209
0.575742
-0.221486
-0.416255
0.214602
0.46238
-0.811521
-0.930299
-0.425047
-0.841651
-0.600772
0.987323
0.800779
0.532765
0.359401
-0.843583
0.883114
-0.348532
-0.297253
0.937964
-0.850953
0.785588
-0.368322
-0.713987
-0.109681
-0.542658
0.554414
0.571945
0.0561046
0.250724
-0.19048
0.44854
0.145555
-0.109749
0.612202
-0.585876
0.801479
0.687706
0.275026
0.134736
0.300276
0.210747
0.82287
0.311695
0.295427
0.500791
-0.0427485
0.273522
-0.530981
0.024194
0.315795
-0.849811
0.900849
-0.25076
0.135121
0.205708
-0.625712
-0.593456
-0.634476
0.78971
1.09937
1.0782
0.421986
0.50858
0.407079
0.563715
0.598915
0.677942
0.271369
0.131767
0.310182
0.259482
-0.871557
-0.597365
0.685723
-0.804164
0.873246
-0.342833
0.848946
0.314249
0.120572
-0.457525
-0.261486
0.404494
-0.0666829
-0.497088
0.497654
-0.794819
1.19802
-0.563457
-0.882172
1.29769
-0.521523
0.52524
-0.124978
0.149713
1.00679
0.287909
0.3507
0.934475
-0.398612
-0.753099
-0.4495
0.285954
0.283609
-0.244931
-0.636574
0.603355
0.733722
0.283813
0.242683
0.171695
0.000512348
0.771904
1.0023
0.341468
0.4875
-0.409869
-0.819439
0.976759
0.540802
-0.415875
-0.126115
1.11002
0.424264
0.611401
0.670862
-0.151697
-0.592433
0.921016
0.390141
0.329144
0.642727
0.299426
0.872269
-0.36357
0.0412025
0.473977
1.23171
-0.407734
-0.659389
1.12121
-0.34599
-0.630063
-0.227165
-0.629135
0.565714
0.100043
-0.0282675
0.761237
-0.420945
-0.632927
1.1872
-0.159596
-0.666505
0.531953
-0.692913
-0.839032
0.0860409
0.551908
-0.80348
-0.664474
-0.156746
-0.631346
0.618566
-0.4683
-0.838142
1.13776
0.892079
0.767465
-0.348705
-0.691263
-0.312628
-0.697994
0.458204
-0.634952
-0.129309
0.565858
-0.372049
-0.210176
1.02944
0.490304
0.545211
0.450448
-0.63135
0.0724535
0.16689
0.362692
-0.589462
0.582768
-0.023751
-0.568872
0.57462
0.118046
0.338727
0.718953
0.219346
0.274968
0.39012
-0.379817
0.164929
0.37165
-0.452864
0.154546
1.12393
0.427489
0.612861
0.707107
0.0862863
0.208744
-0.151888
-0.863908
0.704494
1.21809
-0.52063
-0.789774
1.22742
-0.529183
-0.842097
0.956859
0.347294
0.435461
-0.789974
-0.587246
1.03628
0.548093
-0.174945
-0.524659
-0.589019
-0.935429
1.01993
0.861337
0.817091
0.533523
0.522292
-0.0532082
0.173897
0.0598446
0.0701718
0.804863
-0.363462
-0.837851
1.04671
-0.461071
0.222751
0.353628
-0.231003
0.780723
-0.666276
0.541626
-0.176559
0.148069
1.08572
0.530074
0.602169
-0.868829
1.10247
-0.394124
-0.246598
-0.684306
0.613186
1.03792
1.11004
-0.472759
-0.493379
-0.672948
-0.693977
0.479854
-0.0763899
0.561553
-0.286818
0.146899
0.316623
0.792991
0.327901
0.670555
-0.820455
1.15829
-0.84741
-0.490572
1.18422
-0.45067
0.501469
-0.418863
0.0134264
1.13123
1.10791
-0.846476
-0.814982
-0.445135
-0.471908
0.409603
-0.246499
0.499074
0.858109
0.0322349
0.32183
1.03963
-0.340348
-0.666202
0.457515
-0.105214
0.525895
0.726481
0.283868
0.627978
1.26003
-0.420309
-0.723852
0.518366
-0.101213
0.0813713
-0.203667
-0.132397
0.614266
0.701904
0.175569
0.329159
-0.715415
0.11765
0.207861
-0.754632
-0.877882
0.0286547
0.498138
-0.0486864
0.278779
0.971241
-0.348232
-0.674745
0.26867
0.0264779
0.693675
0.975484
-0.566711
-0.734735
0.96561
0.941214
0.287861
0.475441
0.248264
0.534156
0.793654
0.354689
0.823442
1.04714
1.01357
0.342509
0.604251
0.323291
0.728611
0.59408
0.00666623
0.49353
0.744656
-0.011187
0.540008
-0.480036
-0.778854
1.16048
0.88084
0.388977
0.324681
1.10088
-0.832265
-0.427938
0.378147
0.418595
-0.451024
-0.515676
0.0279084
-0.0443462
0.939208
0.415486
0.334613
0.566046
0.0711833
0.240527
0.552458
-0.329766
0.150002
1.07136
0.653444
0.586046
0.373232
-0.567994
0.0598357
1.08905
0.401412
0.580574
0.462065
-0.283187
0.408803
0.597374
0.094351
0.208125
1.05217
1.08305
0.732568
0.583495
0.699953
0.512562
1.05426
0.421153
1.03626
0.695334
0.314849
0.901569
0.859855
0.766255
0.269589
0.25474
0.280976
0.244172
-0.171464
-0.493002
0.568944
0.665935
-0.122574
-0.0950732
-0.234637
-0.278973
-0.633856
-0.672348
0.645047
0.592078
0.818879
0.203581
0.140754
1.00339
0.735829
0.741383
0.463244
-0.59307
-0.0102841
0.993773
0.333393
0.497929
0.572095
0.0406182
0.17999
0.503416
0.48953
-0.467026
-0.0505878
-0.437859
-0.0892135
0.422506
-0.463326
-0.0450312
1.14474
-0.695452
-0.564288
0.244745
-0.0105337
0.740196
0.658775
0.752062
0.287303
0.119977
0.341843
0.24099
0.195438
-0.551642
0.263262
0.621167
0.119939
0.26984
0.822744
0.275016
0.0535576
0.803993
0.83797
0.336709
0.317056
0.138296
0.289207
0.758789
0.376353
0.272415
0.4716
-0.430181
0.0425413
1.0805
0.43607
0.66959
1.04753
-0.43436
-0.718307
0.776985
0.28211
0.0991171
0.572346
0.565376
0.0496932
-0.166752
0.129947
0.0914529
-0.391616
-0.762384
0.923372
1.05005
-0.375231
-0.716122
1.10539
-0.40142
-0.730006
0.541506
-0.141827
-0.507709
0.737877
0.119044
0.260975
-0.536177
0.192261
0.33649
-0.407368
0.422012
-0.950991
0.212868
-0.631711
0.456781
0.437585
0.377841
0.360298
-0.291619
0.391305
-0.362827
0.307111
-0.527294
-0.240373
0.195296
0.274566
-0.0361361
-0.0633858
0.402423
-0.187769
0.444409
0.17255
0.297362
0.44265
0.0419229
-0.439642
0.343233
0.31598
-0.206159
-0.36803
0.201946
-0.464088
0.33862
0.468854
-0.303789
-0.396807
-0.123411
-0.645449
0.116433
0.501289
-0.0439922
-0.536925
-0.672658
-0.327629
0.458264
0.00563672
0.477962
-0.119701
0.184228
-0.81412
0.380435
0.504384
0.290697
-0.209813
-0.387917
0.402422
-0.0144329
0.128652
0.451589
-0.614403
-0.443473
0.31489
0.0059907
0.395791
0.396057
-0.166712
-0.153925
-0.131079
0.396435
0.146152
-0.0652463
-0.321826
0.173583
0.216848
0.319069
0.457022
-0.139086
-0.505274
0.453173
0.397548
-1.03362
0.339926
-1.0712
-0.366753
-0.586853
0.368072
0.392031
0.370711
0.381353
-0.331811
-0.0435869
-0.810023
0.146644
-0.389836
-0.0886592
-0.086614
-0.0290552
0.376233
-0.0797823
0.339293
0.345492
-0.552061
0.586669
0.303124
0.155281
0.368664
0.466545
0.0208471
0.575913
-0.135978
-0.444247
-0.129543
-0.800738
-0.36283
-0.0287761
-0.217664
-0.251431
0.187334
0.322764
0.303729
0.079739
0.35756
0.363834
0.448012
-0.726281
0.206219
-0.207079
0.34824
0.543025
-0.855919
-0.580106
0.403476
-0.427443
-0.147953
0.385482
0.457367
0.0808536
0.379745
-0.19211
0.456485
-0.0265285
-0.734088
0.510396
0.407307
0.410065
-0.69062
0.438704
0.175826
-0.285471
0.46188
0.447533
-0.539826
0.320358
0.376253
0.410663
0.228022
0.410159
0.471739
0.0280717
-0.793166
-0.577589
0.522716
-0.312339
-0.283919
0.10597
0.354431
-0.0138871
0.434265
0.427041
0.495944
0.40347
-0.175503
0.344829
0.344669
0.584589
0.476153
-0.826462
0.433618
-0.256517
-0.577333
-0.122241
0.375899
0.306725
-0.125662
0.21173
-0.472656
-0.549086
-0.798696
-0.0375638
0.208139
-0.292287
0.110391
0.0614215
0.276095
-0.335544
-0.293404
0.103946
-0.637131
0.204696
0.309635
0.501783
-0.248236
0.576816
-0.403323
0.0152194
0.198868
-0.25406
-0.655824
-0.813385
0.299067
0.343447
-0.449139
-0.017136
-0.637703
0.527252
-1.1763
-0.205575
-0.811619
0.262111
0.0571795
0.172367
0.217056
0.23638
0.577612
-0.62312
0.384017
-0.414329
-0.750604
0.0977634
-0.882486
0.552304
0.084181
-0.0278112
-0.141318
-0.519755
0.346547
-0.0624178
0.148454
0.372031
-0.581629
0.0827571
-0.331547
-0.448702
-0.902381
0.0128931
-0.182985
0.146935
-0.0800076
0.358287
-0.047907
0.691259
-0.456538
-0.391636
-0.308555
-0.0267284
0.463745
-0.307956
-0.258094
-0.797491
0.462434
0.429447
0.349726
-0.0965584
0.344442
0.0936918
-0.977323
0.321235
-0.189325
-0.351636
-0.188316
-0.772372
-0.690548
-0.456198
0.0641276
0.441522
-0.22353
0.0121927
0.38889
0.227564
-0.00506682
-0.78707
0.263872
0.475317
0.0614833
0.455072
-0.520952
0.383183
0.461333
-0.706149
-0.859645
0.0122719
0.0186579
-0.629531
0.0717327
-0.872098
0.0864008
0.383035
-0.223585
-0.658419
-0.468646
0.24344
-0.105818
0.374508
-0.721061
0.438598
0.428686
0.037651
-0.0607728
0.200851
-0.529045
-0.610508
0.522836
0.138025
-0.853144
0.114245
0.5272
0.286067
0.160823
-0.624081
0.159653
-0.160179
0.142549
-0.17038
-0.136091
-0.121144
-0.267939
0.400105
0.304701
0.0803303
-0.253894
-0.482177
-0.0168864
0.149865
-0.337597
-0.534295
0.0322922
-0.375521
0.153225
0.0325427
-0.275772
0.159255
-0.537459
0.528425
0.131333
0.359328
0.277668
-0.0212793
0.465539
-0.584959
0.430973
-1.39211
-0.780862
-0.0426776
0.436424
0.497261
0.36253
-0.236576
0.325371
0.106707
-0.0731621
0.0872238
0.3835
-0.219689
-0.173683
0.0405378
-0.955273
-0.138699
0.0622841
-1.31098
-0.509447
-0.689389
0.0689941
0.387493
-0.168792
-0.158623
-0.459117
-0.792
-0.147786
0.451972
-0.0596534
-1.10774
-0.0287469
0.197189
0.450638
-0.539326
0.144743
0.537649
-0.483684
0.374016
0.103504
-0.0986129
0.387194
0.4845
-0.0240068
0.448547
-0.526392
0.362205
0.428842
-0.193017
0.0221264
0.164486
-0.335265
-0.615662
-0.334862
-0.094282
0.127433
-0.664977
0.119866
-0.0738102
-0.720481
-0.194375
0.38494
0.0738149
0.423775
-0.21323
-0.784993
0.31294
0.389751
0.244656
0.17267
0.564962
-0.235781
-0.693619
-0.136601
0.425653
0.378686
0.41027
-0.603296
0.0921488
-0.809812
0.278067
-0.280534
0.229822
0.469023
-0.936967
0.112202
-0.255652
-0.469159
0.257038
0.23883
-0.15194
0.0160191
0.0554069
-0.0557775
0.479576
-0.677099
-0.445902
0.35847
-0.392445
0.0575346
0.380637
0.272749
-0.0982925
0.274284
0.260397
-0.573274
0.142716
-0.889801
-0.611493
-0.444854
0.47092
0.45737
-0.784148
-0.732733
0.388001
-0.365201
0.214749
0.0311644
-0.687374
-0.0135427
0.406334
0.478054
0.244532
-0.177626
0.560872
-0.0234241
-0.28063
0.437325
0.325577
-0.967211
0.0603692
0.266941
-0.658262
0.0393502
0.442445
-0.555587
-0.213863
0.507972
0.159445
0.406088
-0.288387
0.377803
-0.831513
0.359281
-0.0282903
0.19626
0.121896
-0.0131357
-0.017092
-0.693009
0.125342
0.289231
0.210041
-0.563825
-0.854742
0.523174
0.286789
0.184792
0.185356
0.436592
-0.0465225
0.0886789
-0.00315249
0.525607
0.320798
-0.435069
-0.694871
0.0482296
0.552642
0.156512
0.0648721
-0.0564129
-0.93393
0.386989
-0.155696
-0.679808
-0.441046
0.109899
0.207741
0.302606
0.188155
0.466208
0.222413
0.0781118
0.43778
0.4327
0.403153
0.00498662
-0.657211
0.337931
-0.419222
0.464914
-0.353556
0.0239398
0.19057
-0.162142
-0.691437
-0.295523
0.289213
0.230478
-0.866954
0.400027
-0.558994
-0.140585
0.438813
0.280989
-0.133926
-0.675069
-0.426342
0.40475
0.25419
0.136847
-1.15226
-0.147466
0.2274
-0.643055
0.283653
-0.108089
-0.132078
0.13971
-0.427129
0.442734
0.297426
0.457161
-0.181366
0.475043
0.384738
0.454927
0.315868
0.281424
-0.0287804
0.198892
-0.720338
0.114808
-0.539877
-0.808701
0.23543
-0.256911
0.0887919
0.0591072
0.443989
-0.174641
-0.775588
0.491303
-0.489022
-0.38794
0.00271665
-0.17753
-0.325951
-1.23917
0.483184
0.417769
-0.166224
-0.987431
0.389408
-0.277065
-1.05424
0.414362
-0.256524
-0.978369
-0.212378
-0.0292808
0.394247
0.214074
0.292262
0.362853
-0.733498
-0.80643
-0.0954385
0.144989
0.220609
-0.432064
-0.796476
-0.773129
-0.254014
0.539564
-0.23726
-0.254609
-0.116838
0.375017
-0.365838
0.303087
0.425889
-0.713379
-0.441183
0.453485
0.385498
-0.786365
-0.408349
0.0684638
-0.259711
0.397463
0.419076
-0.860681
0.202094
0.100576
0.246205
0.397258
-0.455483
0.081509
0.0821668
0.454778
0.028762
0.187059
-0.620907
0.143956
-0.219206
-0.240492
0.333816
0.24526
0.449761
0.16255
-0.146754
0.363062
0.359268
0.357599
-0.63423
-0.665746
-0.320524
0.402899
-0.0102444
-0.200742
0.372802
-0.265221
0.223265
0.0510623
0.350526
0.450198
-0.0603273
0.228612
0.460568
-0.889542
0.355054
0.117331
0.476267
-0.783932
-0.0597822
-0.331472
0.524946
0.00448606
0.219149
-0.209111
-0.304141
-0.348607
-0.425105
0.325534
-0.0573874
-0.475037
-0.417108
0.402471
-0.273473
0.0506253
0.065694
0.0241372
0.333139
-0.00491338
0.179637
0.485794
0.0847106
0.282003
0.0194126
-0.494528
0.513945
0.235813
-0.304612
0.481778
-0.23244
0.311292
0.332619
0.536106
0.469742
-0.887929
-0.0807124
-0.253212
-0.236128
-0.170914
0.35083
0.0191148
-0.697084
-0.0999192
0.476358
-0.381919
0.0369093
-0.289525
0.466569
0.159326
-0.181759
0.118604
-0.163448
0.392509
-0.921752
0.267494
-0.272067
-0.608367
0.350737
0.400397
0.112265
0.217618
-0.673775
-0.388246
-0.136677
-0.240479
-0.387759
0.440263
0.103453
-0.52885
0.124475
-0.303299
-0.359756
-0.462354
-0.0127022
0.259489
0.211693
-0.91394
-0.288486
-0.62894
-0.458261
-0.0481047
0.136484
-0.973559
-0.595982
0.469269
0.687773
0.368965
-0.984684
-0.673058
0.334903
-0.295155
0.415918
-0.939441
-0.718692
0.516057
0.0761078
-0.992499
0.0302774
0.249362
0.102744
-0.71701
0.193409
-1.31456
0.186094
-0.121317
-0.28076
-0.185599
0.48687
-0.791193
0.0804895
0.0376751
-0.404543
0.642487
0.0364212
0.47786
0.208686
0.170801
0.317995
0.134843
-0.803457
-0.322189
-0.631348
-0.217159
0.201885
0.00843185
0.0726668
0.125011
-0.51553
-0.130208
-0.0883552
-0.78291
0.160658
-0.124505
-0.768133
0.286023
0.2244
-0.234247
-0.638398
-0.232683
0.222171
0.225154
-0.341219
0.231896
0.140662
0.406822
-0.7285
0.169175
0.123466
0.459202
0.501879
-0.334598
0.455625
-0.151422
0.2441
0.454208
0.0380997
-0.710009
-0.0107704
0.151392
0.375287
0.395296
0.465359
0.320719
-0.419646
0.704061
0.169314
0.202821
0.26614
-0.178587
0.240227
0.222965
0.0114089
0.224086
-0.621602
0.211154
-0.373377
-0.351794
-0.0222355
0.0447813
-0.330027
-0.00701291
-0.261426
-0.578991
-0.244266
0.158628
-0.468189
0.413402
-0.0625402
-0.0299433
0.421171
0.453327
-0.0414568
0.219314
0.42692
-0.328832
0.371609
-0.0237171
-0.577966
0.00827096
0.376682
0.200938
-0.106868
0.328474
0.271395
-0.29102
-0.846207
0.355465
-0.201985
-0.194681
0.0176398
-0.304043
0.240866
0.426029
-0.184655
0.233284
0.240685
0.0810501
-0.453243
-0.0128545
-0.0351448
-0.0539391
-0.381421
0.456333
0.152602
-0.447686
0.449926
0.170598
0.292136
0.0140751
0.392317
-0.948337
-0.00371707
-0.00865152
0.391179
-0.0951584
-0.51773
0.352506
0.142778
0.344733
-0.594998
0.080238
0.0608485
-0.0902162
-0.121142
0.475851
-0.511728
0.499146
0.315967
-0.151758
0.328592
0.401165
0.144701
0.198702
-0.2943
-0.388237
0.360142
0.388516
-0.492291
0.213948
0.226721
0.496474
-0.357605
-0.58549
-0.579946
-0.95998
0.282454
-0.497334
0.43593
0.146665
-0.0298215
0.303147
-0.0142733
0.111733
0.425783
0.633459
0.266485
0.0955492
-0.211921
-0.0530345
0.0551019
0.403391
-0.426615
-0.830924
0.206987
0.165796
-0.462924
0.27161
0.321584
-0.446357
-0.0409968
0.258951
0.158869
0.0961687
0.2982
0.184143
-0.674814
0.329961
0.211069
-0.251079
-0.872434
0.190904
0.108263
0.101227
-0.76123
-0.49004
-0.893759
-0.0292094
0.444558
-0.910213
0.439655
0.177716
0.4592
0.118594
0.228984
-0.551918
-0.510184
0.248551
0.105721
-0.117891
0.101175
-0.972084
0.221955
0.0763393
0.3049
0.43778
-0.0448433
0.470269
-0.752157
-0.0566165
-0.788799
0.230035
-0.167901
-0.742159
-0.245493
0.057658
-0.338849
-0.543621
0.398257
0.198919
0.0333101
-0.875085
-0.00762117
-0.606759
0.264483
0.523078
0.0933502
-0.351332
-0.0493437
0.212498
-0.380265
0.103314
-0.214994
0.0178015
0.545218
0.329934
0.501328
0.266787
-0.0675729
0.0430237
-0.0749966
-0.738748
-0.0755732
0.137634
-0.151161
0.0867658
0.149266
-0.444814
-0.709015
0.0717689
-0.230987
0.303918
0.0465417
0.187246
-0.407274
-0.829391
-0.84817
-0.0201238
0.231406
-0.0533813
0.123157
-0.18299
0.0921083
-0.804556
0.165992
0.222633
0.460911
-0.167263
-0.241356
-0.123593
0.336817
0.135524
0.216776
0.515675
-0.499052
0.265675
-0.902295
0.441677
0.363187
-0.576459
-0.0284041
-0.0398967
0.0841927
0.289279
0.475776
0.383146
0.402413
0.33367
-0.0658346
-0.445334
-0.653402
0.320755
0.199915
0.194403
-0.568655
0.0657893
-0.00752962
0.372732
-0.0755038
-0.753549
0.263415
0.204905
0.0741733
-0.468428
-0.283014
0.498981
-0.273034
0.188907
0.331077
0.114383
-0.505662
0.19965
0.160037
-0.929358
0.470182
0.205521
0.441588
-0.869603
-0.0685962
0.24933
-0.315358
0.122932
-0.307773
0.0781456
-0.161969
0.0779126
-0.307133
0.547382
-0.939646
0.122287
-0.622074
0.314061
0.157649
-0.792615
0.493205
0.0580827
-0.732176
0.204426
0.353603
0.150647
-0.227315
-0.643841
-0.46756
0.544005
-0.566538
-0.0287214
0.440807
0.0677414
-0.0165488
0.345323
0.587334
-0.140589
0.134604
0.506401
0.0251093
0.420071
-0.429631
-0.602761
-0.257375
-0.368707
0.102316
-0.412563
0.23418
0.395466
-0.353026
-0.94785
0.181474
0.305778
0.44729
0.485056
-0.215218
0.189452
-0.925451
-0.0797099
-0.601529
-0.348959
0.16594
-0.430895
-0.605722
-0.319731
0.0554888
0.185297
-0.0158385
0.0472915
-0.351147
-0.293595
0.120362
-0.600819
0.19835
0.314635
0.126352
-0.49787
0.389351
0.433777
-0.292733
-0.023023
0.407261
-0.108828
-0.0663396
0.228347
-0.755707
0.163678
-0.430401
0.0653768
-0.0797115
0.419142
0.572026
0.497582
0.396346
0.510821
0.353518
0.206055
0.130726
0.262398
-0.205436
-0.630507
-0.235407
0.133253
-0.955172
0.483883
0.284703
0.489118
-1.08258
0.423845
0.365349
0.319132
-0.964872
-0.20233
0.501859
-0.823482
0.175685
-0.729883
0.250221
0.483067
-1.04197
-0.248931
-0.128858
-0.828662
-0.863685
-0.289765
-0.35812
-0.209169
0.456219
0.566706
0.368055
-0.522729
0.41304
-0.631664
0.350631
0.316567
0.59684
-0.239407
-0.129004
-0.0104106
0.295425
-0.132973
0.248303
0.486773
-0.918344
0.202786
0.267625
0.144184
0.536392
-1.01483
-0.270325
0.206315
0.437868
0.514786
-0.0153201
-0.209268
0.235345
0.327003
-0.234791
-0.465437
0.0154255
0.49862
0.365478
-0.379034
0.181091
0.343088
0.350689
-0.0996068
-0.122963
0.235205
0.109597
-0.795063
0.365347
0.231703
0.499042
0.229394
0.0661686
0.193037
0.485688
0.371932
0.392595
0.382928
0.17815
0.0714377
0.429095
-0.634816
-0.0829984
0.46552
-0.208601
-0.0913101
0.521085
-0.864724
0.191871
-0.957777
0.0475537
-0.493505
-0.0122806
0.0191386
0.235536
0.026646
0.369589
0.205216
-0.0557151
-0.122997
0.383756
0.431179
-0.628319
0.485274
-0.351373
0.195156
0.45723
0.424697
-0.841236
0.191861
0.503654
0.517709
0.270087
-0.0654956
0.223269
0.197707
0.413602
-0.0572701
0.28347
-0.288139
0.378364
-0.00906965
0.570396
-0.290156
0.488592
-0.486092
0.20922
0.253517
0.274311
-0.119745
0.18701
0.000797503
-0.186225
0.19351
-0.0645189
0.363854
0.539657
-0.307578
0.302135
-0.119686
0.376485
0.115149
0.0452259
0.453797
0.0428549
0.142466
-0.00774753
-0.266723
0.179195
-0.623061
0.4415
0.317477
0.254144
0.617771
0.35577
0.473855
-0.115629
0.335877
0.364545
-0.068989
0.301702
0.118605
-0.0600931
-0.124692
0.0857277
0.0184214
0.254188
-0.0655787
0.593144
0.158529
0.639561
0.564116
-0.369108
0.310298
0.362708
-0.281413
0.19419
0.437833
0.278989
-0.40728
-0.377423
0.471376
0.368345
0.100622
-0.294329
0.475666
-0.0168288
0.261132
0.0340609
0.00336122
-0.188849
-0.655901
0.474061
0.259635
-0.108664
0.460739
0.501856
0.412581
0.150628
-0.462304
0.378861
-0.416953
0.286805
0.39506
0.32417
0.32372
0.250007
-0.864825
0.524
0.201604
0.169569
-0.0301212
0.312243
-0.0073103
-0.139203
0.488253
0.154136
-0.0794914
-0.51659
0.30288
0.195647
-0.748415
0.161982
0.345449
-1.45403
-0.609885
0.501195
0.176023
0.440022
0.498154
0.424173
0.032476
0.238855
-0.777251
0.0605891
0.376281
-0.121111
-0.945381
-1.14028
-0.105193
-0.071292
0.126791
0.503481
0.143234
-0.681613
-0.826689
0.45048
-0.0319766
-0.642374
0.165397
0.06799
0.20164
0.00620368
-0.126439
-0.429675
-0.0038377
-0.034294
0.390826
0.12024
0.161152
0.36211
0.318878
-0.0917904
0.477455
0.333588
0.00261339
0.429727
0.195981
0.0747686
0.390696
-0.41476
-0.768315
-0.353839
0.312685
0.183953
0.376027
-0.766011
0.14608
0.272364
-0.715144
0.192197
0.127773
0.159009
0.223917
0.0502598
0.0305757
-0.168033
-0.0360388
0.232766
-0.293018
0.038075
0.357979
-0.0832197
-0.162429
-0.014986
0.155982
0.289395
0.272651
0.10114
-0.33181
-0.0402312
0.257554
0.348962
-0.469983
0.215973
0.124192
-0.955126
-0.141706
-0.342444
-0.0998161
0.398751
-0.173846
0.224819
0.305162
0.214199
0.486368
0.446144
-0.185826
0.439374
-0.235437
-0.698948
0.455173
0.197764
0.0894114
-1.03478
0.303809
0.116941
0.188536
0.353281
0.230959
-0.0275499
-0.122683
0.207446
0.0359486
-0.150027
0.383645
0.0910344
-0.308286
-0.00772966
0.198945
-0.167654
0.172048
0.277113
-0.159547
0.498069
-0.124927
0.259055
0.274629
0.596965
0.571623
-0.0830933
0.12254
0.544326
0.0784391
0.136479
0.521601
0.236334
0.302349
-0.176244
0.33307
-0.353539
0.346784
-0.453679
0.488965
-0.0231378
0.310482
0.0760509
-0.405909
0.408236
0.0219067
-0.998269
-0.28257
0.351456
0.132988
-0.686027
-0.993554
-0.091152
0.135265
0.43608
-0.20716
0.488708
0.389336
-0.0522843
-0.112202
-0.237094
-0.645643
0.534355
0.53463
-0.309066
0.21235
-0.156821
0.0650838
-0.585623
0.150376
-0.549194
-0.124801
0.353261
-0.15953
-0.761386
-0.056118
0.264537
0.0341486
-0.0407439
0.298299
-0.790382
0.420475
0.108808
0.34466
-0.00316617
0.42374
-0.0306637
-0.196607
0.107857
-0.195587
-0.363886
0.3828
-0.987075
0.214783
0.344041
0.327186
0.168887
0.115686
-0.974626
-0.164962
0.14698
0.00533521
-0.0498271
0.445751
0.184718
0.0901808
0.110945
-0.258583
0.22043
0.336374
0.0349485
0.455736
0.510584
0.437096
-0.139225
-0.526823
0.368834
0.102161
0.508173
0.302301
0.352276
0.622936
0.327084
0.274342
0.164198
-0.0453996
0.0160098
0.251979
-0.295
0.0484112
-1.2894
0.278761
0.52973
-0.214888
-0.343524
0.227941
0.363246
0.427821
0.112363
-0.224594
-0.556234
0.416296
0.0615097
-0.434151
-0.825708
-0.471283
0.489209
-0.352038
-0.718991
0.257647
0.36272
0.0522814
-0.66671
-0.337082
-0.264723
-0.0482706
-0.295398
0.093357
-0.0443399
0.093308
0.230279
0.489324
-0.877372
-0.56051
0.363107
0.311612
-0.241259
0.423046
0.386492
0.363812
-0.838587
0.123068
-0.18914
-1.17088
0.0116036
-0.230174
0.396956
0.588366
0.34098
0.179744
-0.696095
-0.457234
0.345213
-0.244564
0.145659
-0.773177
-0.512936
0.242718
-0.0236838
0.317566
-0.145191
0.347826
-0.39157
0.374558
0.000954166
0.426861
-0.189166
-0.30998
-0.147466
-0.997442
-0.846231
-0.344687
0.0982184
0.231724
0.36375
-0.430742
0.158418
-0.513488
0.179874
0.422651
0.268965
0.49524
0.311453
0.214032
0.232611
0.0162943
0.337159
0.220495
0.0548175
-0.542449
0.286981
0.186588
0.0447039
0.212178
0.259987
-1.08334
0.0565571
-0.352668
0.423513
-0.0932844
-0.797335
-0.544716
0.155482
0.369891
0.134712
0.221937
0.163385
-0.197488
-1.17447
-0.0667893
-0.431037
-0.852406
0.205316
-0.398887
-0.92217
-0.467862
0.320864
0.475252
0.456509
0.439349
0.273296
-0.70032
0.0984851
-0.291129
0.3046
0.0378114
0.410583
0.465764
-0.300136
0.398572
-0.414746
-0.251723
0.139094
-0.875183
0.595009
-0.172773
0.469004
0.470958
0.330163
-0.598156
0.207399
0.457132
0.462955
-0.125451
-0.697562
-0.625186
-0.15566
0.16865
0.189764
0.400086
-0.180096
0.057388
0.0111982
0.256423
0.156264
0.0893652
-0.100349
0.3711
-0.187963
-0.140372
-0.305957
-0.69461
0.176066
0.211589
-0.913156
0.12452
0.47937
0.577539
-0.38598
0.146741
0.2341
0.296088
0.226576
-0.131906
0.441626
-0.885755
0.151966
-0.601328
0.149517
0.212575
-0.426945
0.272341
-0.283413
-0.237683
-0.647224
0.239955
0.202669
0.426048
0.404183
0.413961
-0.291575
0.368832
0.567208
-0.317176
-0.0929641
0.065466
0.0972781
0.365243
-0.219081
0.171192
0.106313
-0.0658904
0.403227
0.247426
0.40209
0.346465
0.337329
0.54102
0.0830689
0.45758
-0.746245
0.224541
-0.461463
-0.198621
-0.64664
0.302623
-0.477005
-0.0338713
0.153915
-0.512751
0.0283185
-0.114568
0.306415
0.430873
-0.314542
0.133763
-0.548028
-0.310134
-0.453479
0.649016
-0.968587
-0.077125
0.116124
0.262701
0.530867
0.239325
-0.0762036
0.58501
-0.078569
0.0994403
-0.169968
-1.02916
-0.379629
-0.245243
-1.06117
-0.213936
-0.870897
-0.586138
-0.210518
-0.0240853
0.546744
-0.360946
-0.219819
0.235319
-0.356415
0.544334
-0.743661
0.374624
0.358568
-0.0548342
-0.757244
-0.342043
0.42744
0.145582
-0.171217
-0.0133055
-0.135244
0.211647
0.33465
0.432582
0.420125
-0.155149
0.382479
0.277992
-0.621266
-0.152968
0.355687
0.0697566
0.223509
0.437143
-0.167397
-0.709856
0.330347
-0.0561454
0.467672
0.479811
-0.420722
-0.984728
-0.495137
0.533309
-0.230191
0.0678106
0.112779
-0.130567
0.33579
-0.299124
0.334158
0.403811
-0.129189
0.15311
0.12027
-0.14708
-0.00779591
-1.148
-0.682506
0.473012
-1.22826
0.273505
-0.304118
-0.715773
-0.220209
-0.144054
0.274634
-0.909892
-1.01684
0.361286
-0.363978
-0.572173
0.117746
0.39297
-0.818541
0.237804
0.463547
0.221095
0.208348
-0.212537
0.323521
-0.0717404
0.361156
-0.249584
0.0638609
-0.881618
0.51106
0.411528
0.40525
0.198914
0.33796
-0.564003
-0.156683
-0.0833335
-0.0889405
0.494753
-0.241755
-0.876757
0.215316
0.464015
0.557125
-0.326178
-0.428346
0.338806
-0.482153
0.328476
0.554797
-0.113552
0.310118
0.259977
0.566692
0.307941
-0.543059
-0.311359
-0.846461
-0.079354
0.119944
-0.100869
0.254517
-0.70468
0.370222
0.287772
-0.95863
-0.285483
0.427568
0.477566
0.346709
0.293437
0.314692
-0.261515
-0.43697
-0.257622
0.4712
0.300499
0.0763027
0.317945
-0.0817088
0.191781
0.284023
0.238648
-0.205984
0.361629
0.35813
-0.0339306
-0.351157
-0.0827808
0.0849824
-0.229054
-0.835061
-0.769605
0.165307
0.57519
0.352009
0.372912
-0.0326765
0.0872703
-0.0813857
0.655686
0.550287
0.469907
-1.04634
-0.177597
0.559788
-0.199078
0.194125
-0.483432
0.411845
-0.191097
-1.01647
0.505007
0.288651
-0.202051
0.0203405