/*--------------------------------*- C++ -*----------------------------------*\
  =========                 |
  \\      /  F ield         | OpenFOAM: The Open Source CFD Toolbox
   \\    /   O peration     | Website:  https://openfoam.org
    \\  /    A nd           | Version:  6
     \\/     M anipulation  |
\*---------------------------------------------------------------------------*/
FoamFile
{
    version     2.0;
    format      ascii;
    class       volScalarField;
    location    "0";
    object      p;
}
// * * * * * * * * * * * * * * * * * * * * * * * * * * * * * * * * * * * * * //

dimensions      [0 2 -2 0 0 0 0];

internalField   nonuniform List<scalar> 
918
(
0.2088
1.00037
0.00335205
0.208722
0.0012007
0.970038
-0.808053
0.415196
0.187127
-0.133738
0.0302304
0.178365
0.820596
0.585366
-1.43756
0.0175203
0.359568
-0.661835
0.183542
0.00927443
0.502574
0.193525
0.196862
0.189423
0.237771
0.570099
0.69327
-0.00166316
-0.0040818
-0.00342448
0.000814693
0.00178402
0.0143491
0.843213
0.889434
0.907815
0.157498
0.0242505
-0.676449
-0.746443
-0.709869
-0.81381
0.399222
0.402113
-0.511358
0.413324
0.423957
0.179435
0.186995
0.187288
0.18913
0.18714
0.188894
0.286096
-0.130449
-0.191312
-0.0751702
-0.0512899
0.0975108
0.0300145
0.0214462
0.0273847
0.0286845
0.119175
0.175023
0.174395
0.181396
0.195325
0.925865
0.897857
0.920397
0.845919
0.863218
0.795162
0.767559
0.606211
0.628284
0.57007
0.557972
-1.89353
-2.84091
-0.856129
-0.587592
-0.000233853
0.023016
0.0340805
0.33967
0.342048
0.354116
0.365071
0.745066
-0.598138
-0.749861
0.183514
0.18218
0.192323
0.194323
0.189661
0.190524
0.0160684
0.0192233
0.00117681
0.0104416
0.00833312
0.471354
0.466615
0.189632
0.184169
0.203201
0.225566
0.20978
-0.0454642
0.256822
0.290863
0.381169
0.554126
0.551812
0.560144
0.667447
0.634605
0.72513
0.750112
0.00546176
-3.22515e-05
0.0238499
0.0170545
0.0206135
0.158024
0.150801
0.168558
0.161743
0.162773
0.0040485
-0.124948
0.0176149
-0.0752069
-0.598249
-0.659857
-0.639331
-0.663784
-0.780808
0.389835
0.386186
0.388923
-0.516035
-0.427365
-0.581272
-0.390641
-0.450878
0.161831
0.17176
0.16636
0.178235
0.179945
0.178322
0.190104
0.187888
0.189354
0.315094
0.385665
0.248081
0.228114
-0.406882
-0.242966
-0.390727
-0.0225161
-0.0162397
0.104677
0.108538
0.0837187
0.0712529
-0.00238494
0.0151724
0.0068229
0.0300387
0.037484
0.105784
0.0974549
0.128561
0.133381
0.168721
0.166503
0.170811
0.165556
0.715698
0.738864
0.746869
0.723602
-3.81314
-6.49331
-0.241162
-0.0817482
0.0033806
0.00164729
0.00142229
0.00235468
0.00400884
0.00310329
0.0463594
0.0470722
0.0394668
0.0451113
0.325163
0.324592
0.756241
0.814327
0.67416
0.659354
0.172673
0.175082
0.180297
0.173203
0.0299414
0.0227926
0.0240573
0.426276
0.447692
0.444693
-0.0913159
-0.175007
0.004279
0.0275143
0.311361
0.291423
0.309852
0.447492
0.488886
0.762951
0.786469
0.774904
0.790866
0.83913
0.859141
0.823264
0.138644
0.143838
0.141787
0.175252
0.169961
0.169826
0.165163
0.167459
0.167719
-0.250595
-0.63407
-0.326929
-0.389148
-0.226751
-0.317431
0.504572
0.637857
0.364025
0.3781
0.382668
-0.326469
-0.387012
0.199427
0.17631
0.0572261
0.0866764
0.0722997
0.694084
0.651383
0.70275
0.676652
0.637939
0.664116
-0.578234
-2.3415
-1.31352
0.317712
0.111532
0.209594
0.068813
0.0529784
0.0642103
0.80899
0.8464
0.421756
0.564056
0.527832
0.519029
0.548522
0.608683
0.535971
0.573253
0.608909
0.586304
0.228602
-0.17835
0.0552349
0.708866
0.773357
-0.197084
-0.277198
-0.307374
0.120472
0.150271
0.137645
0.811169
0.787766
0.840395
0.185346
0.186743
0.0109361
0.0147753
0.189346
0.188134
0.00755231
0.00919891
0.202594
-1.19998
-0.213247
0.183329
0.168148
0.186228
-0.0582304
0.271533
0.0311403
0.0952621
0.0642932
0.173061
0.1284
0.0890751
0.00538459
0.0277651
0.0197116
-0.310893
0.178759
0.175092
0.184625
0.186708
0.186108
0.00666156
0.0100006
0.00691596
0.0161286
0.0113056
0.0120395
0.158144
0.164846
-0.461853
0.185796
0.187181
0.187269
0.184234
0.185846
0.185326
0.0206347
0.00997122
0.0205027
-0.0747267
0.0365385
0.43195
0.553183
0.341531
0.164108
-0.103039
0.349663
0.413361
0.316601
0.481433
0.364444
0.397356
-0.155409
-0.262952
-0.1159
-0.177377
0.177162
0.17678
0.165966
0.160375
0.17567
0.175784
0.18202
0.179715
0.183914
0.1838
-0.0242845
-0.0415835
-0.0784721
-0.15027
0.301574
0.380133
0.22618
0.227887
0.142709
0.0340444
0.028809
0.0313618
0.0277767
0.0707709
0.0697625
0.079879
0.0781696
0.0546072
0.0529705
0.0691226
0.0666534
0.0741772
0.169489
0.169729
0.171847
0.178322
0.132973
0.13867
0.106743
0.126777
0.10921
0.0616193
0.0861336
0.0667658
0.0105296
0.0105324
0.00806492
0.0337147
0.0357387
0.016166
0.0126272
0.0164522
0.0123523
0.0113677
0.0236913
0.0260513
-0.27577
-0.423751
0.742045
0.595887
0.365907
0.173482
0.179474
0.176893
0.175726
0.180375
0.18405
0.182133
0.180582
0.166581
0.169104
0.165751
0.163647
-0.460492
-0.514284
-0.370774
-0.431727
-0.139946
0.294594
0.0423113
-0.0204677
-0.0380089
0.172928
0.339016
0.324651
0.495596
0.486703
-0.641804
-0.253452
-0.576314
-0.0712626
-0.0531597
0.454446
0.503729
0.524565
0.476802
0.423574
-0.298682
0.227539
-0.369743
-0.33207
-0.162108
-0.24461
0.424536
0.347943
0.35707
0.387034
0.404076
0.355314
0.33829
0.331667
0.37284
0.375712
0.174107
-0.0465606
-0.100713
-0.147712
0.332634
0.205275
0.265618
0.173773
0.169685
0.173275
0.17247
0.159726
0.164938
0.163194
0.164931
0.167397
0.175309
0.171756
0.17047
0.176131
-0.0244331
-0.0143793
-0.0476338
-0.223567
-0.183553
-0.266701
-0.109473
0.133117
0.109738
0.34104
0.396292
0.0766816
-0.109304
-0.0669493
-0.00506272
0.169089
0.158646
0.122884
0.158231
0.183351
0.15657
0.203517
0.186754
0.0517479
0.0637849
0.0396345
0.0395193
0.10193
0.114002
0.118718
0.0569211
0.0558553
0.0362342
0.0313036
0.0878375
0.0558583
0.0713819
0.0766498
0.0296177
0.0349037
0.0377681
0.0501119
0.0458382
0.0504547
0.165747
0.166891
0.166677
0.183187
0.191121
0.204954
0.177123
0.151405
0.142596
0.143587
0.128709
0.136498
0.136794
0.144323
0.15729
0.164207
0.162895
0.165112
0.150932
0.151691
0.140721
0.144912
0.124009
0.103112
0.0907957
0.0222282
0.0157525
0.0188315
0.0175472
0.0136005
0.0130196
0.0498275
0.040565
0.0445199
0.0399896
0.0473198
0.0222804
0.0226996
-0.141202
-0.0123093
-0.430549
-0.364584
-0.481719
0.717552
0.752819
0.590394
0.502668
0.532622
0.63756
0.673232
0.414562
0.511205
0.502002
0.301875
0.742408
0.175231
0.176747
0.172204
0.170914
0.174916
-0.430276
-0.38475
-0.266213
-0.212612
-0.155663
-0.0775324
-0.5653
0.0899754
0.187651
0.0608421
0.285913
0.301949
0.250178
0.27653
0.273901
0.106529
0.172431
0.22956
0.176531
0.230013
0.254062
0.212032
0.246937
0.180423
0.138196
0.139081
0.087595
0.115145
0.0927383
0.0618495
0.163772
0.146434
0.155268
0.146546
0.166882
0.192741
0.189591
0.205732
0.227381
0.155338
0.11678
0.129133
0.149044
0.110359
0.122211
0.138635
-0.671686
-0.722701
-0.312694
-0.445116
-0.300282
-0.276489
-0.272751
-0.425633
-0.195638
-0.607189
-0.57951
-1.25042
0.187814
0.497123
0.37885
0.369115
0.404077
0.390068
0.395577
0.41396
0.422515
0.32464
0.342772
0.343899
0.300672
0.32878
0.362662
0.357889
0.173343
0.0426112
0.0255296
-0.0111004
-0.122996
-0.0962352
0.108853
0.0338329
-0.0307492
-0.0456242
0.131865
0.0330632
0.103155
0.129515
0.0859333
0.0207302
0.230414
0.287761
0.282441
0.263331
0.168044
0.180373
0.212564
0.256486
0.278661
0.305365
0.163188
0.169262
0.171328
0.167403
0.164561
0.167439
0.170044
0.170297
0.167904
0.167814
0.170003
0.0238242
0.0348287
-0.00333754
0.0038489
0.0309117
0.00757942
0.0669162
0.0182964
0.0487874
0.0503297
0.0268102
0.00311497
0.0141762
0.0371032
0.176582
0.203792
0.192519
0.14211
0.251181
0.373893
0.42152
0.363164
0.215197
0.237994
0.291658
0.0953673
0.0954637
0.087239
0.10304
0.106217
0.0448231
0.0433899
0.0445126
0.0480095
0.0501838
0.0386834
0.028846
0.0289946
0.0327253
0.0321243
0.0318705
0.155272
0.148207
0.146377
0.139296
0.13914
0.153975
0.155226
0.159348
0.163713
0.164536
0.156382
0.161504
0.163597
0.0365355
0.0305991
0.0343295
0.029839
0.0308332
0.0247582
0.0247513
0.125688
0.072168
0.200961
-0.0624093
-0.268168
-0.137916
0.0562673
0.137704
-0.142208
0.591791
0.406899
0.179991
0.292321
0.522959
0.307915
0.559662
0.437363
0.71143
0.665357
0.738512
0.591599
-0.216878
0.0709566
0.0943191
-0.297187
-0.0460347
-0.0493312
-0.165302
-0.107189
-0.137142
-0.0175143
-0.343803
-0.465871
-0.808914
-0.693026
-0.301236
-0.310726
-0.250983
-0.35765
-0.682263
-0.817877
-0.66763
0.282183
0.298791
0.317487
0.291073
0.313987
0.233889
0.228629
0.247142
0.252337
0.244655
-0.916811
-0.509426
-1.69554
-1.12204
-0.558737
0.272993
0.249162
0.442443
0.332958
0.404022
0.38781
0.337591
0.299581
0.314078
0.351119
0.0143066
0.128045
0.0900493
0.121994
0.0551268
-0.0137451
0.265743
0.25145
0.294467
0.318464
0.271598
0.313263
0.161939
0.162334
0.159075
0.158302
0.155884
0.155604
0.110244
0.0815822
0.130781
0.111242
0.0762345
0.0594822
0.0426731
0.040828
0.0387453
0.0373278
0.0378987
0.0417951
-0.355306
-0.117795
-0.152184
-0.0439729
-0.412447
-0.300839
-0.35839
-0.288691
-0.328534
-0.452199
0.427508
0.637757
0.538479
0.64859
0.483634
0.533335
-0.251721
-0.437686
-0.432427
-0.282043
-0.117473
-0.066734
-0.398989
-0.383908
0.461134
0.477653
0.338054
0.121734
-0.00965204
0.191219
0.202805
0.151976
0.192043
0.260244
0.255432
-0.248647
-0.242659
0.0396124
0.273352
-0.267724
-0.125851
-0.212932
0.109703
0.0548116
)
;

boundaryField
{
    wall-4
    {
        type            zeroGradient;
    }
    velocity-inlet-5
    {
        type            zeroGradient;
    }
    velocity-inlet-6
    {
        type            zeroGradient;
    }
    pressure-outlet-7
    {
        type            fixedValue;
        value           uniform 0;
    }
    wall-8
    {
        type            zeroGradient;
    }
    frontAndBackPlanes
    {
        type            empty;
    }
}

