/*--------------------------------*- C++ -*----------------------------------*\
  =========                 |
  \\      /  F ield         | OpenFOAM: The Open Source CFD Toolbox
   \\    /   O peration     | Website:  https://openfoam.org
    \\  /    A nd           | Version:  6
     \\/     M anipulation  |
\*---------------------------------------------------------------------------*/
FoamFile
{
    version     2.0;
    format      ascii;
    class       volScalarField;
    location    "0";
    object      p;
}
// * * * * * * * * * * * * * * * * * * * * * * * * * * * * * * * * * * * * * //

dimensions      [0 2 -2 0 0 0 0];

internalField   nonuniform List<scalar> 
13046
(
0.765936
0.754726
0.775475
0.788716
0.779237
0.757999
0.764268
0.762629
0.782441
0.311873
0.200369
0.692463
0.756685
0.696816
0.757803
0.421996
0.69031
0.284551
0.794881
0.784857
0.781774
0.405601
0.693007
0.272965
0.773381
0.785403
0.779143
0.730227
0.701544
0.755791
0.774817
0.721654
0.765483
0.79078
0.790903
0.778677
0.792857
0.796618
0.789817
0.752827
0.757636
0.712431
0.79053
0.806019
0.79445
0.793009
0.790038
0.791458
0.753441
0.748701
0.774277
0.708952
0.733825
0.647583
0.721526
0.621123
0.735325
0.479924
0.628738
0.702944
0.670513
0.647587
0.738161
0.706165
0.418911
0.506167
0.649495
0.493188
0.699471
0.67119
0.515435
0.703248
0.439564
0.605585
0.70074
0.79365
0.795808
0.762968
0.700673
0.559634
0.423424
0.769738
0.776575
0.774461
0.7013
0.374128
0.462083
0.475483
0.706382
0.449975
0.692858
0.403286
0.433207
0.656267
0.630018
0.596551
0.572213
0.727312
0.72663
0.706993
0.484738
0.475378
0.794123
0.789146
0.785698
0.759243
0.666065
0.737619
0.741621
0.744967
0.678845
0.120804
0.686363
0.00262422
0.762028
0.719984
0.758896
0.623169
0.650022
0.535158
0.717265
0.580257
0.721564
0.272052
0.147064
0.690061
0.710036
0.62679
0.745689
0.750258
0.755372
0.709779
0.694559
0.437591
0.483938
0.583051
0.522857
0.717726
0.762474
0.707629
0.756982
0.715964
0.741578
0.757465
0.73215
0.72752
0.680156
0.75708
0.68973
0.755835
0.657416
0.615338
0.732294
0.782884
0.736786
0.76164
0.682393
0.612707
0.665688
0.6034
0.728831
0.726322
0.721987
0.706868
0.746443
0.304193
0.692194
0.220135
0.182933
0.688094
0.0516728
0.566067
0.489319
0.71483
0.743303
0.646983
0.741086
0.728515
0.750177
0.720062
0.694728
0.279473
0.334661
0.746851
0.671573
0.736802
0.7781
0.719683
0.74976
0.731185
0.74542
0.759598
0.683131
0.758003
0.720219
0.658277
0.745539
0.446655
0.702893
0.392342
0.703365
0.483224
0.498498
0.404641
0.419535
0.695117
0.689058
0.596836
0.716245
0.741127
0.57089
0.692761
0.421451
0.369135
0.384029
0.693094
0.787409
0.793655
0.786078
0.737605
0.712761
0.75399
0.701669
0.46748
0.508843
0.723567
0.696414
0.762058
0.688149
0.127777
0.205442
0.716657
0.593705
0.677744
0.450419
0.463573
0.701514
0.659036
0.691304
0.743578
0.69418
0.637072
0.743954
0.571949
0.501316
0.696332
0.574655
0.639927
0.714715
0.68809
0.118559
0.168007
0.75179
0.745635
0.662001
0.153296
0.684965
-0.0617497
0.78675
0.7848
0.777689
0.66712
0.679315
0.686738
0.702207
0.7511
0.73967
0.691887
0.529564
0.380479
0.713732
0.655834
0.740012
0.56818
0.6045
0.713516
0.59659
0.529641
0.717761
0.7959
0.787792
0.806111
0.63297
0.666972
0.730708
0.713333
0.629487
0.737268
0.725789
0.720497
0.751652
0.733659
0.638895
0.624107
0.64288
0.726578
0.559282
0.713319
0.506811
0.765486
0.747438
0.692304
0.726031
0.594177
0.66707
0.649392
0.554481
0.715452
0.735212
0.712593
0.642541
0.621556
0.612004
0.529662
0.711282
0.516108
0.713573
0.696328
0.311802
0.367345
0.665009
0.606091
0.726816
-0.147898
0.682988
0.0118853
0.769415
0.769938
0.750253
0.691356
0.668906
0.742734
0.707154
0.488714
0.439216
0.708396
0.594394
0.729302
0.542776
0.491716
0.698221
0.731813
0.762409
0.665452
0.657382
0.740214
0.716937
0.764691
0.466416
0.694412
0.330007
0.698529
0.569983
0.716652
0.644981
0.635952
0.733159
0.709069
0.726174
0.757731
0.675414
0.717779
0.747099
0.776861
0.748937
0.776869
0.716384
0.600649
0.675813
0.426672
0.40327
0.701729
0.553227
0.489751
0.704355
0.679362
0.702936
0.559305
0.587918
0.610637
0.498123
0.460886
0.698584
0.704851
0.685167
-0.114148
0.0573971
0.189962
0.684689
-0.0238488
0.647728
0.672035
0.730345
0.700182
0.424336
0.348837
0.663202
0.656464
0.561268
0.539741
0.716804
0.711205
0.687468
0.303165
0.290171
0.123042
0.683162
-0.119397
0.77697
0.797709
0.793065
0.110459
-0.053052
0.686706
0.73886
0.645496
0.732543
0.352611
0.304111
0.694427
-0.126536
0.68623
-0.0954578
0.760859
0.758984
0.730556
0.766769
0.790625
0.783523
0.281453
0.688904
0.13675
0.757544
0.777045
0.77896
0.784018
0.800201
0.798085
0.721462
0.563584
0.679212
0.753871
0.787772
0.784965
0.776564
0.749317
0.77026
0.693397
0.571898
0.703777
0.692512
0.69442
0.266352
0.259408
0.377425
0.366141
0.379949
0.375107
0.698415
0.709765
0.672227
0.521577
0.742867
0.735565
0.681644
0.55828
0.627252
0.703423
0.0172313
0.68359
-0.00313167
0.692839
0.386369
0.403767
0.213902
0.688735
0.103097
0.688528
-0.17549
-0.118006
-0.237484
0.688225
-0.0566395
0.615042
0.60133
0.720458
0.194521
0.684552
0.165975
0.554263
0.515274
0.71603
0.366307
0.683274
0.1737
0.75197
0.763468
0.751514
0.34176
0.689502
0.329044
0.571982
0.70622
0.640103
0.594168
0.56607
0.717175
0.69282
-0.381598
-0.253811
-0.101031
0.683438
-0.0211597
0.766762
0.773973
0.752243
0.28917
0.27966
0.691483
0.686134
0.241362
0.273374
0.424045
0.699201
0.350709
0.694808
0.392256
0.514205
0.707513
0.556111
0.706822
0.505043
0.632695
0.71122
0.690956
0.4768
0.300171
0.731856
0.719555
0.664031
0.641842
0.741468
0.741578
0.736385
0.670182
0.741457
0.679293
0.544988
0.718273
0.574268
0.524858
0.708454
0.353894
0.376317
0.695459
0.706988
0.519522
0.53852
-0.2216
0.687142
-0.00998515
0.776029
0.772062
0.769809
0.727818
0.775564
0.738843
0.71148
0.700045
0.723602
0.581293
0.72196
0.620935
-0.0945635
0.683847
-0.0868905
0.31198
0.314905
0.693421
0.727357
0.71376
0.63913
0.598301
0.525384
0.703476
0.696033
0.412961
0.537691
0.00989665
0.0854941
0.686913
0.0627188
0.112217
0.686716
0.664839
0.563018
0.721657
0.770211
0.742582
0.709281
0.393008
0.696745
0.298663
0.596273
0.575235
0.72177
0.710474
0.453004
0.537473
0.708281
0.726881
0.624973
0.671031
0.699616
0.739812
0.753737
0.750466
0.697323
0.695206
0.279658
0.357066
0.593611
0.513195
0.714142
0.772695
0.767209
0.737521
0.436174
0.685649
0.251484
0.74094
0.710828
0.757722
0.750272
0.742434
0.772595
0.616409
0.587108
0.719411
0.258927
0.684061
0.0487274
0.291237
0.682966
0.0747366
0.707656
0.436713
0.53375
0.639717
0.705614
0.729475
0.681434
-0.0179364
0.206371
0.710496
0.472018
0.522527
0.687045
-0.214382
-0.172378
-0.0960382
-0.292884
0.68639
0.694783
0.329575
0.487921
0.690965
0.193556
0.262406
0.426948
0.45939
0.695498
0.302764
0.69932
0.355371
0.50821
0.48893
0.710262
0.71205
0.615135
0.518277
0.788559
0.776345
0.749632
0.537809
0.524665
0.712928
0.713496
0.553379
0.544671
0.50262
0.691151
0.322907
0.700213
0.556011
0.717845
0.721131
0.627848
0.723586
0.608822
0.604887
0.7292
0.595116
0.591903
0.724572
0.778429
0.762478
0.756049
0.714336
0.622032
0.742511
0.68795
0.361336
0.326337
0.0914739
0.685367
0.0773374
0.0489759
0.686164
0.0709718
0.74777
0.751131
0.690451
-0.0333554
0.686664
0.0221588
0.565282
0.709856
0.465496
0.683997
-0.0246025
-0.0213826
0.792945
0.784816
0.767851
0.707119
0.677708
0.746461
0.706901
0.649683
0.734622
0.686246
0.227643
0.214171
0.589619
0.581526
0.717724
0.686554
0.407999
0.232192
0.680393
0.658878
0.743274
0.796112
0.784474
0.756506
0.230153
0.241863
0.688516
0.708962
0.446481
0.515799
0.248219
0.208891
0.687385
0.68638
0.0821796
0.0376858
0.691533
0.703406
0.750119
0.635287
0.623661
0.724568
0.755475
0.756781
0.780435
0.13766
0.143122
0.147621
0.68573
0.138068
0.683845
0.635175
0.588102
0.730316
0.232715
0.185591
0.201699
0.158444
0.689983
0.688891
0.629485
0.659031
0.737045
0.71935
0.700698
0.751499
0.33519
0.684818
0.146021
0.710639
0.68219
0.747664
0.750844
0.729602
0.767079
0.265189
0.684849
0.0876119
0.684167
0.61677
0.734158
0.658248
0.546252
0.707167
0.712337
0.594232
0.720682
0.512377
0.690909
0.44487
0.689686
-0.327902
-0.202501
0.685148
0.674613
0.745435
0.369218
0.69022
0.217878
0.703309
0.561585
0.712556
0.0116052
0.683251
-0.198911
0.769526
0.754943
0.747867
0.727908
0.746622
0.710518
0.762029
0.753223
0.777438
0.758926
0.773462
0.754791
0.732498
0.774866
0.723266
0.702957
0.712915
0.761406
0.722288
0.715821
0.758625
0.683013
0.105133
0.0749771
0.745552
0.688828
0.743085
0.274829
0.224101
0.691626
0.597169
0.569576
0.578084
0.541096
0.723423
0.717411
0.741915
0.72021
0.752375
0.682964
0.586832
0.718666
0.642234
0.621782
0.735044
0.791525
0.780933
0.783876
0.565151
0.547919
0.716764
0.776047
0.767151
0.756939
0.64852
0.654943
0.736934
0.685492
0.612909
0.720372
0.788593
0.785581
0.769016
0.788863
0.770885
0.783387
0.775138
0.758612
0.780119
0.758533
0.787293
0.733891
0.737155
0.734967
0.682393
0.677125
0.750002
0.743113
0.699413
0.406371
0.52936
0.709908
0.572568
0.671333
0.699809
0.701529
0.372828
0.388037
0.495299
0.493487
0.726693
0.716726
0.614018
0.796314
0.794867
0.789515
0.554609
0.522382
0.715324
0.76675
0.760395
0.711327
0.677443
0.601338
0.720488
0.579483
0.587239
0.450818
0.705623
0.471794
0.70843
0.607519
0.567523
0.723194
0.0572981
-0.142033
0.684022
0.699165
0.581756
0.713974
0.707607
0.71271
0.705629
0.574042
0.72007
0.594273
0.543712
0.56216
0.710842
0.689986
0.607008
0.723699
0.731212
0.71028
0.610741
0.713578
0.728516
0.718797
0.73877
0.640905
0.633643
0.708618
0.724543
0.608564
0.615976
0.58558
0.727451
0.779778
0.771718
0.76284
0.31608
0.689237
0.169422
0.725606
0.712246
0.591935
0.690559
0.671142
0.604866
0.588055
0.723163
0.726036
0.691048
0.214326
0.354083
0.342763
0.687586
0.1674
0.307788
0.687364
0.139222
0.561988
0.706173
0.449993
0.701414
0.632332
0.730232
0.271312
0.39992
0.623961
0.279111
0.558651
0.0175374
0.487697
0.360585
0.21095
0.544853
0.540578
0.175491
0.273318
0.544189
0.378749
0.275043
0.304434
0.35608
0.3963
0.498854
0.41878
0.34467
0.561386
0.680891
0.634937
0.409158
0.575688
0.187546
0.445664
0.257765
0.2039
0.481561
0.41021
0.400873
0.238777
0.428912
0.611386
0.557776
0.322872
0.447645
0.319952
0.688448
0.266601
0.54174
0.591324
0.336268
0.347572
0.288596
0.184033
0.266428
0.63813
0.421977
0.278668
0.328109
0.201688
0.631074
0.500887
0.417797
0.281358
0.531229
0.261378
0.276225
0.635996
0.383782
0.416992
0.504441
0.436324
0.678053
0.559756
0.549992
0.148111
0.198524
0.325859
0.520583
0.181828
0.399484
0.398929
0.229767
0.518291
0.591157
0.355777
0.403683
0.192207
0.258264
0.326854
0.530846
0.328862
0.298272
0.373502
0.64508
0.276116
0.531736
0.634636
0.405052
0.275127
-0.0783067
0.244031
0.294189
0.274361
0.143805
0.473579
0.566124
0.606191
0.686348
0.264237
0.275705
0.183669
0.292102
0.247311
0.608728
0.572286
0.498303
0.233606
0.197411
0.463582
0.569697
0.357358
0.298367
0.132451
0.347593
0.395455
0.660406
0.676198
0.524658
0.420587
0.334398
0.179509
0.658051
0.215755
0.517095
0.137619
0.637191
0.194446
0.194678
0.250162
0.589065
0.387174
0.0944744
0.261127
0.490109
0.26786
0.535311
0.469895
0.288313
0.587769
0.327032
0.248698
0.600619
0.266566
0.364278
0.178844
0.431536
0.319425
0.594834
0.530223
0.346335
0.520473
0.537036
0.619779
0.403234
0.321446
0.282458
0.538336
0.216721
0.447691
0.192347
0.67644
0.351103
0.599061
0.65379
0.426407
0.662926
0.600885
0.616618
0.225893
0.129888
0.177149
0.623959
0.226415
0.204396
0.207178
0.208037
0.360717
0.326538
0.431368
0.654228
0.526871
0.320372
0.528486
0.309481
0.682875
0.155979
0.578845
0.290379
0.118195
0.640923
0.658434
0.281094
0.295018
0.675702
0.450089
0.319289
0.249758
0.521271
0.608567
0.511038
0.263785
0.282648
0.553504
0.417126
0.248507
0.475207
0.20514
0.216631
0.335375
0.586456
0.1404
0.348815
0.566945
0.321942
0.133493
0.347574
0.2831
0.324013
0.470486
0.483246
0.257049
0.199138
0.23801
0.502523
0.504641
0.345424
0.487634
0.333944
0.22744
0.454453
0.32118
0.111702
0.518708
0.599215
0.434056
0.650694
0.613491
0.685226
0.275901
0.0861182
0.373376
0.345682
0.317995
0.150079
0.459351
0.635849
0.517991
0.449891
0.252155
0.351481
0.534366
0.416187
0.490276
0.268581
0.375633
0.317532
0.189059
0.256126
0.28929
0.276379
0.231463
0.487757
0.419298
0.348814
0.497035
0.289516
0.362777
0.267304
0.348233
0.313477
0.30466
0.444319
0.150326
0.0768227
0.380231
0.169237
0.135634
0.448899
0.158788
0.138699
0.596449
0.493241
0.258776
0.528986
0.211178
0.480647
0.478391
0.214145
0.282715
0.566784
0.378705
0.532899
0.0131102
0.242676
0.600535
0.310337
0.25264
0.0520026
0.152544
0.122422
0.160841
0.323368
0.495066
0.226141
0.12309
0.24787
0.30292
0.683062
0.269201
0.517946
0.454683
0.179106
0.344817
0.253704
0.194633
0.473427
0.335706
0.635075
0.499905
0.253599
0.327497
0.424967
0.679981
0.526227
0.612634
0.53039
0.323054
0.432222
0.360969
0.238729
0.156527
0.296863
0.311781
0.495705
0.274031
0.176013
0.280443
0.333665
0.27427
0.300012
0.580131
0.316584
0.294931
0.630216
0.587233
0.2549
0.424267
0.609286
0.264266
0.149389
0.330041
0.229448
0.194403
0.606141
0.252723
0.351509
0.621282
0.136737
0.428161
0.270368
0.428907
0.332991
0.285067
-0.0581108
0.345563
0.177649
0.294765
0.338592
0.337313
0.523394
0.633686
0.27251
0.416704
0.334675
0.244946
0.105557
0.571334
0.467
0.300738
0.177045
0.445162
0.174662
0.283929
0.263163
0.244703
0.5649
0.632249
0.315575
0.517553
0.679654
0.576845
0.578776
0.620037
0.313857
0.3005
0.197365
0.677912
0.566042
0.598835
0.282206
0.32444
0.127616
0.531196
0.328424
0.26154
0.599749
0.483899
0.226071
0.341651
0.26571
0.278703
0.268806
0.328375
0.349775
0.221651
0.315436
0.159408
0.345676
0.224177
0.482568
0.399585
0.140696
0.611435
0.625752
0.52735
0.30784
0.435771
0.156866
0.542774
0.417482
0.173258
0.607084
0.0866439
0.63745
0.167618
0.36133
0.375044
0.524733
0.549457
0.27551
0.654371
0.28266
0.58244
0.361869
0.483949
0.30435
0.262904
0.29045
0.589141
0.370758
0.672738
0.505867
0.153227
0.272812
0.481848
0.112155
0.311891
0.363678
0.22129
0.641494
0.227722
0.203227
0.552319
0.290442
0.634572
0.666288
0.334277
0.675398
0.650256
0.58476
0.603947
0.451488
0.184524
0.261592
0.340439
0.569187
0.339006
0.0895063
0.652031
0.226669
0.357153
0.252636
0.617156
0.68033
0.240495
0.577914
0.453233
0.633402
0.348037
0.536123
0.340885
0.653592
0.670025
0.506235
0.259385
0.554536
0.31142
0.420204
0.404274
0.359245
0.456327
0.293251
0.0943171
0.199823
0.371813
0.476289
0.42255
0.602498
0.243937
0.325742
0.478483
0.203509
0.62413
0.262074
0.340836
0.623988
0.591223
0.436489
0.659803
0.260329
0.324519
0.541677
0.398946
0.387937
0.359091
0.292605
0.484385
0.51328
0.293615
0.26655
0.434763
0.152229
0.21786
0.635807
0.679329
0.673853
0.363568
0.685744
0.678831
0.645742
0.102906
0.463717
0.456189
0.661389
0.321049
0.271135
0.182315
0.257086
0.0585684
0.651042
0.375072
0.385124
0.540772
0.506223
0.313834
0.338662
0.67858
0.656829
0.612084
0.502282
0.302056
0.517071
0.485774
0.318773
0.375918
0.202239
0.254489
0.407828
0.387798
0.302128
0.6392
0.634417
0.109064
0.588231
0.277726
0.267559
0.32786
0.633281
0.349484
0.50473
0.370024
0.615405
0.328618
0.372167
0.669398
0.127118
0.149058
0.260723
0.228451
0.0796267
-0.117021
0.242048
0.087307
0.396587
0.107518
0.213228
0.386778
0.282544
0.243941
0.311317
0.188862
-0.0787131
0.65187
0.593026
0.336344
0.178097
0.602559
0.309223
0.270593
0.667871
0.2516
0.665297
0.3499
0.595851
0.361345
0.170676
0.205583
0.418285
0.421105
0.39783
0.173688
0.335909
0.218064
0.231285
0.287084
0.141672
0.194691
0.647803
0.254762
0.513109
0.548152
0.323244
0.572171
0.551827
0.182129
-0.105526
0.361962
0.157678
0.0864169
0.521984
0.527468
0.337851
0.479218
0.314095
0.669583
0.64799
0.361694
0.302812
0.656862
0.603357
0.47074
0.468021
0.324502
0.673711
0.408115
0.106567
0.618723
0.576434
0.635883
0.425275
0.26353
0.324225
0.530095
0.476541
-0.199491
0.688606
0.35893
0.256906
0.412465
0.613706
0.673702
0.672615
0.477394
0.38165
0.556996
0.606643
0.631263
0.51419
0.57124
0.1903
0.273564
0.441966
0.198031
0.184832
0.140737
0.355984
0.553194
0.159054
0.408133
0.279008
0.587653
0.672663
0.371623
0.184531
0.127931
0.544534
0.297472
0.251039
0.133204
0.63846
0.443131
0.456977
0.166667
0.459304
0.252521
0.270656
0.526431
0.548803
0.643315
0.681892
0.242002
0.610496
0.109804
0.621719
0.635161
0.635359
0.558918
0.221039
0.221371
0.342387
0.105411
0.401107
0.137602
0.451741
0.173989
0.599424
0.324252
0.119703
0.591301
0.543374
0.368219
0.378988
0.509734
0.634281
0.444957
0.396244
0.115039
0.576726
0.42394
0.661137
0.0855513
0.390444
0.620254
0.528517
0.659643
0.535494
0.337764
0.0613759
0.117243
0.378783
0.153002
0.649406
0.109138
0.293677
0.365768
0.25346
0.570867
0.0904777
0.63287
0.532015
0.460726
0.0981304
0.485771
0.250627
0.324085
0.377002
0.36675
0.323493
0.304147
0.556203
0.224928
0.68531
0.31513
0.38128
0.49867
0.530415
0.653766
0.324917
0.352811
0.242863
0.377545
0.29992
0.643941
0.25578
0.403791
0.322591
0.578467
0.274924
0.421455
0.190689
0.673153
0.102039
0.219474
0.299624
0.586011
0.125374
0.140303
0.21217
0.176142
0.633605
0.393779
0.511581
0.595835
0.492669
0.412162
0.674888
0.400036
0.537236
0.488187
0.418575
0.140562
0.431665
0.376874
0.296598
0.433088
0.222136
0.152925
0.422362
0.327053
0.226591
0.571316
0.381777
0.513235
0.371137
0.651351
0.362425
0.355792
0.488018
0.172583
0.245185
0.323224
0.417869
0.443498
0.477587
0.629481
0.526689
0.566809
0.427303
0.610872
0.653274
0.649068
0.438267
0.400868
0.45226
0.188102
0.665082
0.602238
0.581226
0.397543
0.220468
0.142821
0.452971
0.527818
0.259159
0.579608
0.601311
0.475911
0.277099
0.423104
0.297883
0.25962
0.399841
0.28235
0.457266
0.133554
0.460802
0.372336
0.363069
0.09286
0.44059
0.413021
0.504717
0.319207
0.447916
0.627177
0.641506
0.459277
0.354358
0.568543
0.421793
0.25071
0.249527
0.353957
0.167737
0.629219
0.384527
0.435448
0.532159
0.517958
0.477537
0.215416
0.678264
0.486124
0.26292
0.392299
0.407567
0.568006
0.621589
0.488486
0.46378
0.12775
0.229788
0.363734
0.471802
0.406385
0.459919
0.284385
0.63725
0.466924
0.570233
0.607663
0.438165
0.261497
0.413442
0.661379
0.292171
0.119307
0.410234
0.67034
0.304058
0.354947
0.557794
0.527188
0.586214
0.393575
0.131969
0.469535
0.184849
0.312039
0.585358
0.383238
0.194808
0.253765
0.300165
0.4838
0.313975
0.288268
0.615097
0.268489
0.676647
0.581852
0.176561
0.0729192
0.385305
0.53648
0.604411
0.390669
0.364027
0.253512
0.344312
0.363489
0.681458
0.620864
0.536081
0.318973
0.143406
0.643846
0.676703
0.637071
0.568519
0.618616
0.407647
0.192938
0.0999222
0.120736
0.652171
0.410841
0.238395
0.334168
0.676482
0.323792
0.276922
0.162393
0.394402
0.243285
0.697531
0.471449
0.530471
0.616206
0.600321
0.347843
0.491714
0.40591
0.516426
0.281418
0.476083
0.28308
0.64274
0.183695
0.305834
0.228874
0.338857
0.625301
0.333125
0.582658
0.610536
0.618634
0.209411
0.402586
0.363915
0.264681
0.634535
0.424584
0.428092
0.466162
0.0408006
0.338924
0.65354
0.49811
0.63848
0.110132
0.220101
0.331169
0.649356
0.268165
0.369432
0.229958
0.212306
0.323904
0.664601
0.350218
0.370003
0.166096
0.694081
0.662888
0.0462088
0.654153
0.32152
0.21165
0.223947
0.403891
0.161149
0.476381
0.320307
0.309241
0.344405
0.634526
0.391803
0.582126
0.347111
0.207786
0.342135
0.108405
0.14273
0.376851
0.315054
0.437789
0.225871
0.371818
0.606882
0.468127
0.309575
0.16149
0.623265
0.394909
0.373112
0.687399
0.435982
0.303052
0.298373
0.220991
0.656407
0.300741
0.377897
0.482364
0.170664
0.629155
0.194567
0.611763
0.397521
0.550149
0.234487
0.569765
0.369009
0.181073
0.248556
0.395541
0.626087
0.0679551
0.268349
0.315819
0.652969
0.68447
0.245005
0.292654
0.470929
0.678298
0.358705
0.632311
0.601937
0.578575
0.550075
0.447873
0.508447
0.494643
0.637518
0.371777
0.417293
0.24602
0.280814
0.369248
0.230917
0.657414
0.201673
0.632238
0.361427
0.649135
0.291478
0.665038
0.54637
0.622417
0.649995
0.626451
0.685264
0.348856
0.611151
0.392697
0.329577
0.27054
0.22741
0.638511
0.203689
0.471055
0.484477
0.361988
0.47016
0.277204
0.646164
0.418064
0.559477
0.0973827
0.255117
0.337425
0.704907
0.255397
0.504219
0.288255
0.338312
0.192418
0.353338
0.324893
0.573824
0.642592
0.15851
0.463095
0.331638
0.299411
0.589992
0.255321
0.278175
0.658469
0.121957
0.430339
0.530042
0.62238
0.668364
0.289637
0.270422
0.174356
0.322861
0.26663
0.329325
0.553882
0.314376
0.190883
0.368367
0.403052
0.307244
0.274674
0.314236
0.405307
0.180082
0.562536
0.548837
0.300484
0.559859
0.173653
0.160781
0.251384
0.125217
0.658538
0.3285
0.32117
0.280858
0.601565
0.636534
0.43801
0.552206
0.279114
0.262945
0.4064
0.324011
0.264795
0.636839
0.447241
0.505676
0.662602
0.570754
0.385519
0.651997
0.153248
0.442809
0.436513
0.480949
0.335176
0.655417
0.312955
0.47389
0.390013
0.305621
0.231908
0.278407
0.546496
0.592966
0.613616
0.413139
0.436954
0.653305
0.574599
0.377771
0.434502
0.203958
0.346409
0.57886
0.15638
0.606638
0.321245
0.619441
0.687299
0.640816
0.309192
0.619398
0.60345
0.131477
0.654467
0.281794
0.646011
0.573812
0.333802
0.224013
0.447912
0.351275
0.326022
0.273593
0.586517
0.304338
0.652692
0.215972
0.291666
0.261612
0.213756
0.321657
0.592569
0.66983
0.209855
0.559626
0.41391
0.474411
0.363347
0.469146
0.630458
0.579111
0.324544
0.622628
0.588758
0.665394
0.213188
0.293449
0.273873
0.553317
0.6602
0.596459
0.378048
0.664593
0.392627
0.160819
0.221934
0.0676288
0.376648
0.190358
0.665701
0.676869
0.435348
0.689261
0.581699
0.431687
0.659637
0.200741
0.655507
0.344234
0.636262
0.326195
0.223198
0.547667
0.442101
0.646111
0.629981
0.634069
0.242497
0.239779
0.135542
0.610466
0.576746
0.242163
0.404718
0.579203
0.111446
0.291565
0.239482
0.331757
0.469772
0.326655
0.436896
0.550526
0.419636
0.437353
0.551094
0.323197
0.341074
0.469732
0.424468
0.329862
0.611872
0.646808
0.242887
0.573685
0.100278
0.282827
0.61993
0.563781
0.312333
0.639046
0.197889
0.547713
0.348724
0.348354
0.619713
0.330855
0.559584
0.549499
0.514981
0.679465
0.521824
0.17526
0.489656
0.372907
0.561518
0.679394
0.508434
0.389775
0.26393
0.350585
0.621503
0.208259
0.604132
0.249541
0.455792
0.571361
0.550693
0.41131
0.61732
0.662876
0.334586
0.324996
0.435173
0.238083
0.190898
0.441755
0.549482
0.253918
0.172144
0.257763
0.169142
0.542704
0.3878
0.56635
0.285643
0.636916
0.41962
0.603524
0.674904
0.268416
0.627626
0.327428
0.439482
0.409026
0.61423
0.275207
0.355955
0.416195
0.227785
0.332069
0.220762
0.189976
0.101122
0.659817
0.674774
0.251135
0.286112
0.555931
0.148459
0.253689
0.325809
0.529938
0.542158
0.135184
0.0976535
0.630025
0.283865
0.471861
0.28067
0.166168
0.223265
0.448477
0.603367
0.467646
0.156432
0.638629
0.600776
0.252144
0.469576
0.316512
0.673452
0.33771
0.364204
0.185347
0.510926
0.650196
0.483471
0.44438
0.269659
0.382463
0.473079
0.660159
0.693328
0.273116
0.66559
0.27946
0.451707
0.452674
0.377183
0.310195
0.612286
0.341332
0.444203
0.248986
0.270215
0.348079
0.227041
0.51535
0.637199
0.250682
0.289448
0.443078
0.316384
0.265244
0.102364
0.314009
0.621259
0.110766
0.302348
0.540208
0.443338
0.378965
0.504242
0.592879
0.235101
0.23963
0.593454
0.36731
0.232433
0.397253
0.612388
0.505544
0.453276
0.276854
0.275079
0.265972
0.661333
0.595666
0.669874
0.372214
0.524013
0.203811
0.409163
0.604451
0.156775
0.169628
0.548778
0.599687
0.150238
0.296933
0.271975
0.223144
0.270384
0.69085
0.359343
0.29119
0.443734
0.264032
0.545427
0.457762
0.195457
0.29996
0.570609
0.379508
0.662953
0.186638
0.293801
0.494532
0.474357
0.378379
0.474989
0.228508
0.667668
0.66404
0.498636
0.618099
0.258329
0.611251
0.502635
0.492097
0.652387
0.148943
0.306859
0.675775
0.50629
0.139492
0.303394
0.595315
0.672563
0.406838
0.557328
0.273019
0.180861
0.245666
0.130782
0.604529
0.275973
0.421071
0.65326
0.26353
0.237958
0.272068
0.431148
0.288539
0.310741
0.267647
0.211777
0.381271
0.57707
0.648456
0.531854
0.317685
0.305366
0.125827
0.300672
0.490666
0.467927
0.515485
0.543792
0.306736
0.393414
0.588781
0.6032
0.671711
0.620949
0.656061
0.384445
0.196387
0.246107
0.210833
0.661353
0.432055
0.280333
0.650306
0.204718
0.582148
0.544348
0.303421
0.279808
0.306907
0.282492
0.600436
0.351939
0.531099
0.397882
0.645404
0.464024
0.679103
0.243779
0.39999
0.293367
0.0923213
0.320267
0.566179
0.220414
0.0167573
0.452232
0.654349
0.562909
0.2805
0.185845
0.251015
0.207322
0.282887
0.209158
0.375051
0.219766
0.550883
0.247253
0.286149
0.651819
0.391239
0.512328
0.591632
0.364489
0.420276
0.237525
0.56858
0.345746
0.307937
0.367911
0.229817
0.179807
0.281952
0.271561
0.56096
0.671817
0.609859
0.456157
0.537517
0.157391
0.666814
0.458703
0.55078
0.280438
0.540719
0.307582
0.327682
0.580455
0.649218
0.565143
0.45975
0.338743
0.676137
0.330768
0.584077
0.658314
0.519507
0.35239
0.150807
0.5835
0.447232
0.218599
0.504744
0.438731
0.642229
0.271059
0.654787
0.672401
0.368828
0.24609
0.655237
0.190726
0.225644
0.327485
0.219866
0.314313
0.23189
0.189051
0.395674
0.288741
0.247603
0.307816
0.46655
0.281252
0.265007
0.497573
0.421529
0.170488
0.637151
0.68413
0.661812
0.278121
0.159494
0.683542
0.179448
0.38185
0.261363
0.328567
0.279153
0.547976
0.317839
0.316723
0.169286
0.155169
0.221297
0.321409
0.146166
0.406499
0.445916
0.39346
0.646817
0.438218
0.508685
0.350134
0.59665
0.323681
0.328429
0.703674
0.327182
0.438863
0.190133
0.521084
0.675926
0.351759
0.479313
0.43986
0.299783
0.27079
0.259884
0.220505
0.553955
0.231801
0.364378
0.316287
0.37037
0.252858
0.262095
0.381126
0.34375
0.299286
0.688452
0.386932
0.350833
0.454795
0.64743
0.330241
0.158942
0.574087
0.192903
0.34835
0.274821
0.388575
0.307447
0.339033
0.388968
0.666842
0.607526
0.16669
0.298169
0.155194
0.263417
0.136795
0.225971
0.319541
0.241314
0.326711
0.494579
0.68493
0.320524
0.541382
0.414863
0.660167
0.315235
0.674123
0.485329
0.203335
0.487555
0.55193
0.325328
0.605115
0.275092
0.615249
0.285621
0.0421068
0.391755
0.683672
0.674816
0.553833
0.498482
0.529668
0.166449
0.296051
0.529113
0.678991
0.0690196
0.392187
0.276162
0.321764
0.372249
0.252355
0.204729
0.281537
0.224081
0.292645
0.336849
0.369639
0.677512
0.599825
0.135787
0.575049
0.24034
0.252981
0.58338
0.283929
0.347001
0.515323
0.113506
0.258429
0.40476
0.608981
0.209948
0.270522
0.343252
0.490506
0.210029
0.644675
0.155074
0.323888
0.345441
0.277163
0.498026
0.49425
0.647225
0.270547
0.561448
0.44655
0.484688
0.27184
0.496456
0.238908
0.197041
0.114495
0.455646
0.388891
0.346181
0.627523
0.39549
0.449467
0.493185
0.252959
0.228427
0.32456
0.462045
0.283253
0.683296
0.192852
0.155654
0.324733
0.319707
0.285105
0.267506
0.540639
0.326645
0.399613
0.211142
0.278221
0.394052
0.203159
0.681243
0.679579
0.216892
0.251476
0.603087
0.415155
0.26063
0.184955
0.258329
0.217909
0.4428
0.633801
0.262382
0.165618
0.493255
0.386628
0.156373
0.213102
0.383321
0.534307
0.693839
0.201521
0.152335
0.464204
0.604519
0.353629
0.446331
0.338284
0.275424
0.329233
0.489872
0.383446
0.27822
0.575562
0.341572
0.117072
0.436567
0.286659
0.581185
0.678909
0.288105
0.317973
0.320049
0.318264
0.201453
0.330895
0.21737
0.650152
0.587316
0.532113
0.321938
0.173129
0.566685
0.664275
0.264326
0.430782
0.311244
0.100655
0.413426
0.325483
0.0996774
0.275763
0.500451
0.200623
0.159079
0.220149
0.606073
0.186409
0.576041
0.375347
0.272338
0.338442
0.245066
0.581977
0.126427
0.329449
0.360056
0.195477
0.446805
0.530393
0.460603
0.389268
0.559256
0.213548
0.215425
0.631243
0.2723
0.626041
0.465274
0.35227
0.443917
0.610307
0.386879
0.15228
0.643264
0.265126
0.362821
0.612337
0.255627
0.655075
0.264188
0.344171
0.124251
0.34569
0.221157
0.401829
0.227184
0.119424
0.214712
0.210866
0.106875
0.633446
0.210732
0.338342
0.454824
0.396108
0.66692
0.668782
0.303866
0.394903
0.586798
0.290817
0.634898
0.120371
0.338001
0.43396
0.268593
0.591892
0.311917
0.321604
0.301278
0.26722
0.265358
0.122235
0.614558
-0.0606608
0.660547
0.533663
0.228333
0.158806
0.22656
0.695741
0.535784
0.500761
0.382187
0.44998
0.362973
0.611902
0.567568
0.247852
0.480428
0.663003
0.374078
0.426796
0.489151
0.141635
0.211378
0.589851
0.335918
0.368195
0.655478
0.204159
0.12479
0.28026
0.366515
0.373675
0.683842
0.263537
0.178805
0.26202
0.363725
0.268764
0.623971
0.385031
0.231155
0.311011
0.264175
0.255676
0.311604
0.484641
0.417121
0.2391
0.6236
0.331553
0.610582
0.240027
0.204622
0.33327
0.616729
0.661481
0.594371
0.40477
0.381835
0.578878
0.673879
0.193978
0.635749
0.219684
0.506732
0.486054
0.622261
0.401678
0.607816
0.643524
0.28537
0.281567
0.339429
0.398398
0.220304
0.238432
0.198668
0.54763
0.592866
0.187866
0.642818
0.401362
0.563215
0.377401
0.230107
0.589037
0.569101
0.31483
0.302058
0.219771
0.670915
0.541187
0.681206
0.189009
0.219339
0.361778
0.598766
0.494091
0.644367
0.429881
0.679256
0.279879
0.352884
0.427178
0.296624
0.469068
0.158737
0.578705
0.3871
0.431808
0.637143
0.17804
0.191533
0.129164
0.466915
0.616841
0.300471
0.498622
0.171131
0.175076
0.373503
0.284862
0.264374
0.633983
0.409265
0.252635
0.354697
0.458743
0.652531
0.468181
0.345574
0.614023
0.404594
0.657155
0.415121
0.529719
0.34793
0.186014
0.685752
0.23402
0.446684
0.454048
0.631635
0.518584
0.384751
0.282173
0.675348
0.358651
0.237189
0.553002
0.667936
0.541675
0.500098
0.176589
0.110576
0.431916
0.243412
0.342602
0.417787
0.238869
0.649176
0.673759
0.641907
0.295714
0.331509
0.266347
0.317813
0.519211
0.205351
0.515401
0.650159
0.195934
0.31855
0.275608
0.594612
0.501079
0.331107
0.246464
0.539571
0.264749
0.150071
0.213122
0.684195
0.121971
0.574445
0.482974
0.272022
0.669299
0.441591
0.699706
0.109955
0.322044
0.434566
0.640262
0.321024
0.634064
0.443215
0.121582
0.386632
0.288642
0.329385
0.112442
0.572379
0.320969
0.244849
0.152349
0.391077
0.638402
0.0552149
0.305266
0.615167
0.349344
0.609284
0.114672
0.267028
0.270326
0.360499
0.289228
0.176282
0.263191
0.0683866
0.341877
0.344769
0.564756
0.431722
0.617819
0.253589
0.331318
0.180014
0.411141
0.0683414
0.33752
0.680603
0.370976
0.306666
0.690096
0.242237
0.447064
0.492292
0.168441
0.295728
0.389494
0.451918
0.64903
0.667196
0.667379
0.462774
0.352632
0.353515
0.224851
0.606295
0.512709
0.272014
0.31226
0.301619
0.381809
0.700377
0.35106
0.700396
0.309989
0.495355
0.22852
0.266514
0.172914
0.286755
0.629213
0.307331
0.190073
0.222771