/*--------------------------------*- C++ -*----------------------------------*\
  =========                 |
  \\      /  F ield         | OpenFOAM: The Open Source CFD Toolbox
   \\    /   O peration     | Website:  https://openfoam.org
    \\  /    A nd           | Version:  6
     \\/     M anipulation  |
\*---------------------------------------------------------------------------*/
FoamFile
{
    version     2.0;
    format      ascii;
    class       volVectorField;
    location    "0";
    object      U;
}
// * * * * * * * * * * * * * * * * * * * * * * * * * * * * * * * * * * * * * //

dimensions      [0 1 -1 0 0 0 0];

internalField   nonuniform List<vector> 
918
(
(-0.000386557 0.000470262 0)
(0.017286 -0.0613786 0)
(-0.00934842 -0.00122969 0)
(-0.00407406 0.000688841 0)
(-0.00164207 0.000580685 -3.70544e-18)
(-0.00500791 -0.0539814 -4.93242e-16)
(0.00887057 -0.00242149 -1.03877e-16)
(-5.31726e-05 8.78007e-06 -3.12718e-18)
(1.28531e-05 -1.70902e-06 0)
(-0.00322031 0.00471941 0)
(0.00146958 -0.0108092 0)
(0.000540625 -0.000904024 0)
(-0.0196947 0.00965345 0)
(0.00095767 -0.0236102 0)
(0.0142725 0.00108895 -1.49512e-16)
(-0.00181383 0.0041413 -1.63326e-17)
(-0.00094978 -0.000773362 2.30993e-16)
(0.021564 0.00242499 -8.69255e-17)
(-0.000226726 -0.00168595 0)
(-0.000831358 -0.000716724 0)
(0.0162938 -0.0292176 -1.41231e-16)
(-0.000142039 0.000205498 0)
(0.00284857 4.85377e-05 0)
(-0.0023323 0.00092268 0)
(-0.000604729 0.00101313 0)
(-0.00863019 0.0204815 0)
(-0.0027732 -0.010261 1.80233e-16)
(-0.000782897 -0.000210891 0)
(0.00234139 -0.00451936 0)
(-0.00836552 -0.00301495 0)
(0.00293456 0.00392866 0)
(0.000503071 0.00179044 3.46435e-18)
(-0.000170653 -0.00400215 0)
(0.0353967 -0.0149265 -1.89214e-20)
(-0.0255317 0.020103 3.97258e-16)
(-0.00909585 -0.0796393 0)
(0.000132625 0.000117418 0)
(-0.0126686 -0.00869373 8.12114e-17)
(-0.0172697 0.0103635 1.99909e-16)
(0.00804613 -0.00731567 -1.62752e-16)
(0.00850333 0.0026995 2.354e-17)
(0.00119637 -0.00390847 -1.2342e-16)
(-0.000611289 -0.000393521 3.05434e-18)
(-0.000435308 -0.000304791 0)
(-0.00716358 0.00775469 0)
(0.00119676 -0.00131089 1.36726e-17)
(-0.00127191 -1.20348e-05 -1.41673e-17)
(-0.000103496 -0.000288256 0)
(0.000720813 -0.000284279 0)
(0.000455831 -0.000388291 0)
(0.00381794 0.00128257 0)
(-0.00138136 -0.000468328 0)
(0.000762378 -0.00103725 0)
(0.0144385 0.00832503 -1.38134e-16)
(0.00848887 -0.00475349 0)
(0.00357944 0.000312532 0)
(-0.000166637 -0.00701077 0)
(-0.00366507 0.00109671 0)
(0.000618991 -0.00307622 0)
(7.27425e-06 -0.00626635 0)
(-0.000723789 -0.00668722 0)
(-0.00250764 -0.00446882 0)
(3.92806e-05 -0.00216337 0)
(-0.000742072 0.000316989 0)
(-0.0014243 0.000152656 0)
(-5.82905e-05 0.00118849 0)
(-0.00032064 -0.00021447 0)
(0.000488792 1.45043e-05 0)
(-0.000683498 0.0488919 1.80875e-16)
(-0.0315718 0.0693563 0)
(0.00371943 -0.0373112 0)
(-0.014069 0.00436954 2.09359e-21)
(-0.00586082 -0.034888 -2.76218e-16)
(0.0132854 0.0236842 0)
(0.0501571 -0.0234934 0)
(0.0241214 0.00751086 4.5224e-22)
(0.0301944 0.0149398 0)
(0.0213022 -0.00950099 0)
(0.03628 -0.0296811 0)
(-0.0297565 0.00273838 0)
(-0.0468101 -0.0227148 0)
(0.000932441 -0.00109814 1.37718e-16)
(-0.00280426 -0.0136764 0)
(0.0013454 0.000828137 0)
(0.000904839 0.000968875 1.65391e-17)
(0.00339616 -0.00682945 -2.03738e-17)
(-0.000357114 0.00038225 -8.07093e-17)
(-0.000357394 -0.000282597 -7.91598e-17)
(-0.000418248 -0.000302836 -2.3921e-16)
(-0.000796307 -0.000511898 -1.53108e-16)
(0.00684961 0.0168306 0)
(0.00303337 -0.00200829 7.82046e-17)
(-0.0157795 0.0023689 -1.27014e-16)
(0.000680127 0.000263188 0)
(0.000430328 -0.000599725 0)
(-1.18888e-05 -0.000443409 0)
(0.00248273 -0.000205767 0)
(0.000236553 -0.000553338 -1.00869e-15)
(-0.00163361 -0.00067638 7.80019e-16)
(1.60953e-05 -1.90347e-05 0)
(-0.00174978 -0.00376144 0)
(0.00585199 0.000460103 0)
(-0.0013492 -0.000734699 0)
(-0.000148805 -0.000894491 0)
(0.0173486 0.00843331 4.38169e-17)
(0.0112703 -0.00564245 0)
(0.00131174 -0.00118655 0)
(-0.000459337 0.00035734 0)
(-0.000849194 -8.96602e-05 0)
(-0.000110869 -0.00105337 0)
(0.000163572 -0.000341588 0)
(-0.000597519 1.30968e-05 0)
(-0.00131545 -0.000888702 0)
(-0.00152722 -0.000581959 3.81497e-16)
(0.00714043 -0.00987275 1.89033e-16)
(-0.0551535 -0.0285232 0)
(-0.00340393 0.00864704 0)
(-0.0523594 -0.00172851 0)
(0.00739413 -0.00146232 1.7622e-16)
(0.0199794 0.00501327 0)
(0.00571507 -0.0171935 -5.3835e-16)
(0.00656017 0.00893868 1.8335e-16)
(-0.00108855 -0.000890059 0)
(-0.000474147 0.000571063 0)
(0.00424622 -0.00290189 -4.15775e-19)
(0.000475817 7.6798e-05 0)
(-0.00221754 0.000445028 0)
(1.47055e-06 0.000103345 0)
(-0.000792829 -0.000408618 0)
(0.00104954 0.000400299 0)
(-0.0011053 0.000178749 0)
(-0.000639237 -0.000247959 0)
(0.00398282 0.00221388 -1.00256e-16)
(-0.0117574 -0.000273976 0)
(-0.000500458 -0.0200347 1.11698e-17)
(0.00954809 -0.0141688 0)
(-0.000542439 -0.00282365 5.12629e-17)
(0.0047538 -0.0015321 -1.1179e-16)
(0.00313356 0.00344097 0)
(0.000936453 -0.00609912 0)
(-0.0109231 0.00741895 0)
(-0.0103707 0.0238348 -4.87877e-17)
(-0.000331758 -6.61699e-06 0)
(-0.00105888 -0.000608539 4.17108e-17)
(-0.00571653 0.000121872 0)
(-0.00087403 -0.00646288 0)
(0.00402724 -0.000105266 1.18208e-16)
(0.000442563 0.00619796 0)
(0.00328832 -0.00808563 8.18248e-19)
(1.46735e-05 0.00028747 0)
(-9.99574e-05 -0.000391603 0)
(0.00108724 0.00108402 0)
(0.000416419 0.000344084 0)
(0.00019252 0.000110265 0)
(-3.58094e-05 9.12022e-05 0)
(-0.00159334 -0.000169353 0)
(-0.000636627 0.00134323 0)
(0.00081608 6.52214e-05 0)
(-0.00201289 0.00301031 7.1921e-17)
(-0.00622519 -0.00147252 0)
(0.00432722 0.00906217 1.33507e-16)
(-0.0137462 -0.00154119 -1.24647e-16)
(8.73823e-05 -0.00846391 7.22104e-17)
(-0.00696326 0.00368748 0)
(-0.00175842 -0.000717435 0)
(0.000664892 -0.00140264 0)
(0.000930954 -0.00467161 0)
(-0.00599796 0.00223619 -6.70601e-19)
(-0.0094573 0.00998441 0)
(0.00284395 0.00137449 -3.73462e-17)
(-0.00331072 -0.00535364 7.21646e-17)
(0.00160006 -0.00213352 0)
(-0.00031558 -0.00873515 0)
(0.00247642 -0.00920251 0)
(-0.00181585 -0.00601079 0)
(-0.00206758 -0.00188421 0)
(-0.000356715 0.000133402 0)
(0.00024145 -0.000604867 0)
(9.54228e-05 -0.000801284 0)
(0.000415443 1.86381e-05 0)
(3.44285e-05 0.000405934 0)
(-1.8803e-05 0.000492508 0)
(0.000329417 0.000249757 0)
(-0.000562502 -0.000362401 0)
(-0.0196199 0.00718459 -1.65172e-18)
(-0.0317507 0.0301546 0)
(0.00675753 -0.0311569 0)
(-0.0343023 -0.0082912 0)
(0.0186855 -0.0628135 0)
(0.0455715 -0.0126696 -3.99197e-17)
(-0.0165625 -0.00372862 0)
(-0.00572487 0.028564 0)
(0.00058017 0.00169302 0)
(0.00232076 0.00143821 0)
(0.00090309 0.000156099 0)
(0.00393086 -0.00347167 4.36128e-18)
(0.00397046 0.00612023 0)
(0.00203522 -0.00091494 0)
(0.00488034 0.00467986 1.78498e-18)
(0.00373881 -0.00113428 2.60515e-17)
(-0.00177681 0.00384282 2.13401e-17)
(-0.00362499 -0.00249485 0)
(-0.000572835 0.000486386 1.26595e-16)
(6.54099e-05 3.8673e-05 -1.24269e-16)
(0.0124505 -0.0104645 0)
(-0.000172581 -0.0132402 -2.84735e-17)
(-0.00321812 0.00705229 -9.37829e-17)
(-0.00731452 0.0168501 9.34336e-17)
(-0.000807875 6.00864e-05 0)
(0.000718638 0.000132775 0)
(0.00122335 -0.000168219 0)
(-0.00107492 0.000206991 0)
(-0.000732143 -0.000152497 0)
(-0.00133429 -0.000961676 0)
(0.00232716 -0.00244905 0)
(0.00205789 0.000646219 1.25093e-16)
(0.00578813 -0.000601857 -1.45999e-16)
(0.00155752 -0.00135565 0)
(-0.00052065 0.000599072 1.62855e-17)
(0.00018381 -0.00120779 0)
(3.22054e-05 -9.3148e-05 0)
(-0.000118148 0.00047727 0)
(-0.000976091 0.00023732 0)
(-0.000708458 -0.00037731 -6.07672e-16)
(-0.000401388 0.000503638 2.24817e-16)
(-0.0276028 0.00880736 1.75367e-16)
(0.00419632 0.00245685 2.72793e-18)
(-0.0179151 -0.0186238 -3.43257e-18)
(0.0472701 0.00390879 1.30425e-16)
(-0.0243623 0.00111409 6.03363e-18)
(-0.012793 0.03016 -2.43804e-20)
(0.0488076 0.00479093 -1.0749e-16)
(-0.0162809 -0.0168282 7.59825e-17)
(0.0128626 0.0051554 -1.29509e-16)
(-0.000417538 -0.000155076 0)
(-0.000673419 -1.30351e-07 0)
(0.000948425 -0.000524686 0)
(0.00111494 0.000161811 0)
(0.000218049 -0.000328588 0)
(-0.000817918 -3.39753e-05 0)
(3.01788e-05 -0.000540857 0)
(-0.000558369 -0.000157409 0)
(0.000245237 -0.000249975 0)
(-0.0176873 0.0152329 -1.15663e-16)
(0.0297766 0.0130643 0)
(0.00101827 0.0144418 1.56044e-17)
(-0.0132842 -0.0156867 1.28913e-16)
(0.00459414 0.0195423 -7.74806e-17)
(-0.00762319 0.01934 1.53052e-16)
(0.00194282 -0.0123487 2.38664e-16)
(0.0119343 -0.013042 4.30086e-17)
(0.000358137 5.78283e-06 1.61331e-16)
(0.000254387 0.000730025 4.19636e-17)
(-0.000233174 -0.000429482 7.85504e-17)
(-0.000385284 0.00211233 -1.2273e-16)
(0.000301498 -0.0117563 -1.33004e-16)
(0.00207171 -0.0054145 5.99277e-17)
(0.00816701 -0.00532804 0)
(-0.000505913 0.000233224 0)
(-0.000825474 0.00041805 0)
(-0.000403119 -0.000203542 0)
(-0.00451689 -0.000268319 0)
(0.0100655 0.0341322 2.46298e-16)
(-0.0430144 0.0011397 0)
(-0.0193795 0.0430919 -2.46087e-16)
(0.020676 -0.0144369 5.93258e-17)
(0.0173556 -0.0167931 0)
(0.0349118 -0.0134669 3.31726e-17)
(-0.0389383 0.0260528 -1.13581e-16)
(0.00859559 0.00276807 1.0545e-16)
(0.00464998 -8.57004e-05 -1.75099e-16)
(-0.00225884 -0.000800126 0)
(0.00897064 -0.000566084 0)
(0.00216361 -0.00616721 -1.62845e-18)
(-1.90337e-05 -0.00655587 -5.9511e-17)
(0.00375742 -8.53486e-05 -1.75287e-18)
(-0.0167972 -0.0025826 9.34489e-17)
(-0.011035 0.0085296 -6.26308e-17)
(0.0131778 0.00336213 8.11275e-17)
(-0.0104321 0.00212537 -8.97943e-17)
(0.000824978 -0.0198863 2.11471e-18)
(-0.0227121 0.0178875 -3.84762e-16)
(0.0172172 0.0113624 4.51888e-16)
(-0.00715741 0.00687987 1.72608e-16)
(0.0254335 0.0093181 -1.75404e-16)
(-0.0102031 0.00722299 -1.75118e-16)
(0.0186355 -0.0125873 -4.46934e-16)
(0.0022709 0.0045948 4.57634e-16)
(0.0147703 0.0149233 0)
(-0.00028959 -0.00752372 -2.57136e-16)
(-0.000600218 -0.0305254 1.11766e-16)
(0.0105301 0.01136 1.26199e-16)
(-0.00731721 0.0106892 -1.96137e-16)
(-0.00118221 -0.000993442 6.40883e-17)
(-0.000637256 0.00167434 0)
(-0.000612017 0.0041285 -6.78086e-17)
(-0.00680423 0.0137749 -7.50633e-19)
(0.0102996 0.00779793 0)
(0.00121563 0.0116543 0)
(0.00148736 0.0178771 -3.43152e-17)
(0.00911872 -0.00641252 -7.54047e-17)
(0.00705071 -0.0153944 1.41856e-16)
(0.000535248 -0.000163582 0)
(-0.00348076 0.00153083 1.90112e-16)
(0.000877049 -0.000866301 0)
(-0.00155131 0.0012801 0)
(-0.000487478 0.00105083 -2.44273e-19)
(0.0012233 0.000341502 3.76744e-16)
(-0.00286903 0.00331409 -7.05174e-18)
(-0.00473517 -0.00516252 0)
(0.0180555 -0.0199936 1.67232e-16)
(-0.0177694 -0.00960865 0)
(0.00453656 -0.0107488 -5.99752e-17)
(0.000976168 -0.000348364 -1.02713e-18)
(0.00148405 0.00290455 0)
(-0.000926818 -3.71836e-05 -7.83816e-21)
(-0.00923735 -0.000730009 0)
(0.0156235 0.0228156 0)
(-0.00150217 -0.0147381 0)
(-0.0113124 0.00946392 4.70564e-17)
(-0.00665968 0.0068281 3.07572e-17)
(-0.000428812 -0.000892325 -1.00189e-18)
(-0.000237433 -4.45336e-05 0)
(-0.000601346 -0.000956455 0)
(-0.00256858 -0.000721247 0)
(-0.00185373 0.00239305 0)
(-0.000799858 0.00115875 0)
(0.0095863 -0.00172828 8.0385e-17)
(8.84216e-05 0.00150688 0)
(0.000428492 9.55416e-05 0)
(-0.000690736 0.000548268 2.40532e-16)
(0.000650629 -0.000676036 -2.87689e-16)
(0.00212975 8.28972e-06 0)
(-0.00203494 -0.00127838 0)
(0.00624914 -0.0014356 0)
(0.000499041 0.00161695 0)
(-0.003981 -0.00284278 0)
(-0.00207003 -0.00125066 0)
(-0.000911809 -0.00142456 0)
(-0.000604792 -0.000153578 0)
(0.000272232 0.00197677 -1.02128e-18)
(0.00323211 -0.00850348 -9.83344e-17)
(-0.000757684 4.25969e-05 -2.40518e-16)
(-0.000891615 -0.00132326 2.88154e-16)
(0.000770143 -0.00054287 0)
(-0.0025986 -0.000445131 2.33374e-16)
(-0.00236037 -0.00101666 -2.84871e-16)
(0.00292983 0.00151613 0)
(0.00123322 0.00374574 0)
(-0.00226496 0.00488131 1.56083e-17)
(-0.00332578 0.00338515 -1.18121e-17)
(-0.0021142 -0.0026451 3.33523e-16)
(0.0015213 -0.000662295 0)
(0.00591183 -0.000124895 -2.34008e-16)
(0.0715687 0.0318856 -1.48787e-17)
(0.0241707 0.0358959 3.2969e-16)
(-0.00243745 -0.00461468 -9.64497e-17)
(-0.0207213 0.00424132 0)
(-0.00518953 0.00795836 7.47687e-17)
(-0.00120709 -0.0393975 2.27284e-16)
(0.000621379 0.0169877 -1.40673e-16)
(-0.00586683 -0.0237919 0)
(0.00200618 -0.000146006 0)
(-0.00116519 -0.000259387 0)
(-0.00226273 0.00609491 1.81496e-16)
(0.00269659 0.00162139 -2.36078e-16)
(-0.00152364 0.00414146 0)
(-0.000531527 0.000784679 0)
(0.000509887 0.000531975 -4.41202e-16)
(0.000393751 5.73362e-05 5.49366e-16)
(-0.00025454 0.000889878 0)
(-0.00103292 -0.00489736 0)
(0.000847516 -0.000148826 0)
(-0.000912011 0.000905602 0)
(-0.000336733 -0.000692462 0)
(-0.000497151 2.84292e-05 0)
(0.00129536 0.000248904 0)
(-0.000119396 0.000841598 0)
(-0.00945084 -0.00178347 0)
(0.00434376 0.0138996 0)
(0.00914102 -0.00697922 0)
(-0.000198599 -0.00285094 0)
(0.0407439 -0.00593364 0)
(0.0108435 -0.0131004 -6.42539e-17)
(0.000566482 -0.00207165 0)
(-0.0147177 0.00893897 5.13514e-17)
(0.0113679 -0.025984 -7.45671e-17)
(-0.00192075 -0.00691221 0)
(-0.00703496 -0.00814197 0)
(-0.000198593 -0.00678643 0)
(0.000303423 -0.00831745 0)
(0.00299748 0.00520644 -4.03936e-17)
(-0.00103548 0.013992 4.32941e-17)
(-0.002932 0.0177325 5.23312e-17)
(-0.00621616 0.0118788 0)
(-0.00197572 0.00935347 -7.34088e-17)
(0.00172121 0.00314133 -4.37991e-17)
(0.00495615 0.00212083 3.14664e-17)
(-0.00650179 0.0091141 -5.50881e-17)
(-0.00663467 0.0127357 -6.38815e-17)
(-3.83594e-06 0.00225838 3.94154e-16)
(-9.24975e-05 -0.00096078 -4.98988e-16)
(-0.000189646 -0.000775038 -3.86694e-16)
(-0.000130642 -0.000274055 4.80708e-16)
(-0.000904863 -0.00140773 0)
(0.000879242 0.000434642 0)
(-0.000173934 -0.000316539 0)
(-0.00086223 0.000922657 0)
(0.00246342 0.000416504 0)
(-0.000948088 0.000398935 0)
(0.000627253 0.00170594 0)
(0.000193768 2.83422e-05 0)
(-0.0035427 0.00200239 -1.53204e-18)
(0.000783304 0.00110618 0)
(-0.000505198 -0.0018598 0)
(0.0023379 0.00229245 1.44461e-17)
(0.00228241 0.00341753 -6.08119e-19)
(-0.0037482 -0.000363289 1.67498e-17)
(0.000579848 -0.000594749 -1.62554e-17)
(0.00209243 -0.00152836 0)
(-0.00371823 0.00130184 0)
(-0.00684857 0.00119533 0)
(-0.00487971 -0.0044489 0)
(0.00493567 -0.00446882 0)
(0.00646796 0.0053321 -1.6786e-16)
(-0.00926451 0.00675862 -5.78963e-17)
(-0.00573068 0.0114867 -2.40108e-17)
(0.00896267 -0.0139328 7.73456e-17)
(0.02956 0.00519621 3.50613e-17)
(-6.00885e-05 0.000584878 0)
(0.000367539 0.000516089 0)
(-0.000897088 -0.000644179 0)
(0.000699849 -0.000182846 0)
(-0.000307798 0.000467094 0)
(-0.00174364 0.000976599 0)
(-0.00202969 0.000334164 0)
(0.00293345 2.64376e-05 0)
(-0.000399057 -4.72441e-05 4.20914e-16)
(9.45549e-05 -0.000183819 -5.3301e-16)
(0.000281822 -0.00149482 -4.13655e-16)
(0.000885062 -0.000113599 5.15621e-16)
(-0.00078389 -0.00240896 0)
(-0.0058857 -0.00478972 -1.26991e-16)
(-0.000265163 0.00648167 -1.04268e-16)
(0.00868123 -0.0138252 1.39901e-16)
(-0.0326941 0.0184901 3.23533e-16)
(0.000630825 -0.0010354 1.48842e-16)
(-0.000746593 -0.000388702 0)
(0.000172938 0.00280597 -2.73411e-16)
(0.000658273 -8.35588e-05 -1.17111e-17)
(-0.000844716 -0.00205584 0)
(-0.0687635 -0.064146 1.88814e-16)
(0.0321787 0.0374359 -3.07568e-16)
(-0.0232063 -0.128035 1.75456e-16)
(0.00370432 0.0766308 -7.76872e-17)
(-0.0105495 -0.019897 9.80172e-17)
(-0.00208064 -0.0203931 0)
(0.0395864 0.000142518 -1.28734e-16)
(-0.0699716 -0.000746188 -4.35198e-16)
(0.0145885 -0.018774 0)
(-0.0117285 -0.0244777 1.24521e-17)
(-0.0348969 0.0331488 -1.38325e-16)
(-0.0030432 -0.0188514 2.01772e-16)
(0.0177972 0.0205366 0)
(0.0192256 0.0121697 0)
(0.0088282 -0.000833826 0)
(-0.000544316 -0.0100471 -1.13686e-16)
(-0.00169613 0.00306122 8.65724e-17)
(-0.00426349 0.00835345 0)
(0.00709013 -0.000335176 -6.57191e-17)
(0.0027271 -0.0087406 1.17836e-18)
(-0.000820941 -0.0168339 -1.89896e-16)
(0.000172996 0.000245526 -3.31202e-19)
(-0.00163395 0.00119337 9.13506e-17)
(0.000580821 -0.00149564 6.18536e-18)
(0.00124542 -0.00136244 -2.45866e-16)
(-0.000841106 -0.00113842 0)
(-0.0011694 -0.000670572 1.5371e-16)
(0.000979911 0.00140855 0)
(-0.000191186 0.000489894 0)
(0.000121387 -0.000130416 0)
(0.00104893 0.000546213 1.22998e-16)
(0.00140984 -0.000904628 -2.71466e-16)
(-0.00193853 -0.00189371 0)
(0.000637791 0.00103461 0)
(0.000288378 -0.000167995 1.41563e-16)
(0.00146227 0.00108083 -9.19113e-17)
(0.00181031 2.13923e-05 1.71929e-16)
(0.000724689 -0.000845356 -2.16585e-16)
(0.000272477 -0.000701302 2.86135e-16)
(-0.00143606 0.00123486 -2.92755e-16)
(0.00137595 -0.000119448 0)
(1.31964e-05 -0.000610656 0)
(-0.00059964 0.00128925 -2.75494e-16)
(0.000490011 0.00043414 2.73218e-16)
(0.00121641 0.000490482 0)
(-2.82952e-05 0.000754384 0)
(-0.000133873 -0.000275388 0)
(-1.14008e-05 0.000126323 0)
(0.000474505 0.0012465 0)
(0.000164731 -0.00129493 0)
(0.016126 -0.00177998 0)
(-0.00515442 -0.00243089 0)
(0.0022576 -0.0131154 -8.14846e-17)
(-0.00911569 0.0101602 -4.68269e-17)
(0.00368597 0.00702761 -1.01429e-16)
(-0.0151549 0.00559641 1.64775e-16)
(0.0158907 -0.00674615 0)
(0.0609501 0.0164143 -8.65271e-17)
(0.00429963 -0.0137471 0)
(-0.00732261 0.0281611 -5.0068e-17)
(-0.0501509 0.00237221 1.11855e-16)
(0.0404604 -0.034176 7.67831e-17)
(-0.00830711 0.00142846 -4.5114e-17)
(0.000582177 -0.00102642 3.55924e-17)
(-0.0129995 -0.0182899 -1.16199e-16)
(-0.0345386 0.0170365 0)
(-0.063804 0.00438166 8.58461e-17)
(0.0112044 0.00508664 -2.81233e-17)
(-0.00665522 0.00308227 0)
(-0.00613287 -0.0272944 7.66389e-17)
(-0.0256559 -0.0104847 0)
(0.00244543 0.0186767 -5.64969e-17)
(-0.0145768 0.0101102 0)
(0.001811 -0.00288906 -5.07454e-17)
(0.00449074 -0.00251435 0)
(0.00768632 -0.00454226 0)
(0.000968855 -0.00757708 5.79645e-17)
(0.0105451 0.00893507 1.4159e-18)
(0.0128076 -0.00945432 8.99706e-17)
(0.00568595 -0.00879719 6.35174e-19)
(-0.00702781 0.00347195 2.90338e-17)
(-0.00775529 0.00568803 1.66077e-17)
(-0.00287614 -0.00441904 0)
(0.00506712 -0.00502779 0)
(0.0108256 0.00277442 8.05416e-17)
(0.00796283 -0.00404377 7.74008e-17)
(0.0167715 -0.00147929 -9.80371e-17)
(0.0164691 -0.00415469 0)
(0.007679 0.00535404 -5.14961e-17)
(0.00644489 0.000596225 2.31038e-17)
(-0.00782912 0.00160513 -7.20605e-18)
(-0.0110459 -0.00499847 -3.40361e-17)
(0.00231458 0.00714339 -1.15098e-17)
(-0.00774714 0.000822813 5.20666e-17)
(-0.00043927 0.00135847 -2.74698e-16)
(-0.000890985 0.000852351 2.6798e-16)
(0.00120952 -0.000187243 0)
(-0.00134757 0.000282425 3.50768e-16)
(0.000180879 -0.000122482 -3.79528e-16)
(0.000152223 0.00043262 4.14595e-16)
(0.000169967 0.00139722 -4.71354e-17)
(-0.00111938 -0.000534406 0)
(0.000582549 -0.0003129 2.63659e-16)
(0.000932291 0.00193499 -2.63258e-16)
(-0.00107583 -0.000408683 -1.53756e-17)
(0.000461572 -0.000120361 1.31286e-16)
(4.04816e-05 -0.00138931 0)
(0.000447491 0.000522644 -4.52979e-17)
(-0.000395514 0.00125802 0)
(0.000696154 -0.000946748 0)
(-0.000967793 0.000850473 0)
(-3.47831e-05 -0.000947152 0)
(0.000222968 -0.00131475 9.41691e-17)
(-0.000105682 0.00112834 -2.07446e-16)
(-0.00168439 -0.000425431 -1.02782e-16)
(-0.000104051 -0.000750698 -1.1038e-16)
(-0.00022485 -0.000456711 2.16987e-16)
(0.00100347 0.000569385 0)
(0.000576677 -0.00145352 0)
(-0.00720161 8.9867e-05 -2.30862e-17)
(-0.0131316 0.00275799 -1.92312e-18)
(0.00321825 -0.00240661 0)
(0.00202227 -0.00162691 2.27969e-17)
(0.0054197 0.000883443 3.39387e-18)
(-0.00880337 0.00367372 -3.79031e-18)
(0.000862848 0.00604233 3.758e-17)
(0.00156897 0.00136599 -2.37785e-18)
(0.000375246 0.00852739 1.12294e-17)
(-0.00741291 0.00106463 -1.96369e-17)
(0.000874664 0.00258719 2.42369e-17)
(0.000546875 0.00412559 6.26316e-19)
(-0.00039336 -2.84975e-06 2.50906e-17)
(-0.0136726 0.0100546 8.91403e-17)
(0.0361772 -0.0150808 1.22491e-16)
(-0.00128784 0.00023207 1.21267e-16)
(-0.00326098 0.0012701 5.61232e-17)
(-3.49099e-05 0.00567464 0)
(0.0208595 -0.0244006 3.02213e-17)
(0.00122174 -0.0102212 3.53843e-17)
(0.0168486 0.0213699 2.58911e-19)
(0.0170563 -0.0147595 -1.38263e-16)
(0.0164332 -0.0239564 9.87759e-17)
(0.000977022 0.00540864 0)
(0.0317867 0.023532 -6.05327e-17)
(-0.00146377 -0.014899 1.59465e-16)
(-0.00930445 0.00908252 -1.68284e-18)
(-0.0320119 -9.25249e-05 -1.97631e-16)
(0.00457253 -0.000436218 1.62465e-16)
(-0.00757735 0.00829383 0)
(0.0001688 -0.000923696 9.48301e-18)
(-1.9724e-05 0.00383624 -7.96788e-18)
(0.000522522 -0.00274079 -1.41794e-16)
(-0.000610976 -0.000259414 1.43545e-16)
(-0.000144994 0.000468553 0)
(0.0051776 -0.00193285 0)
(-0.0134175 0.00536194 0)
(0.00501111 0.00476483 0)
(-0.0017146 -0.00864755 0)
(0.0123462 0.0111474 -8.29426e-19)
(0.0240123 0.00320068 0)
(0.00109417 -0.0305623 1.78446e-18)
(-0.00642797 0.0293348 0)
(0.00562329 -0.00836056 -1.47148e-16)
(-0.023762 0.0039928 9.466e-17)
(-0.00134296 0.00149182 0)
(0.000338154 -0.00118258 3.81754e-17)
(-0.00193735 4.58134e-05 2.50388e-16)
(0.0014403 0.00010838 -8.82516e-17)
(3.09372e-05 -3.76268e-05 -2.79156e-16)
(-0.000763371 4.20063e-05 -3.34712e-16)
(0.00181383 -0.00291571 -7.07706e-19)
(-0.000957432 0.00227601 2.28287e-16)
(-0.000562526 0.000825894 2.09487e-16)
(-0.000312423 0.000174446 -3.44633e-16)
(-0.00166572 0.000322796 4.16816e-17)
(0.000849108 -0.000367048 -9.41332e-17)
(0.00135851 -0.00161352 0)
(0.00146118 -0.00154986 1.74141e-16)
(-0.000328522 0.00251043 0)
(0.0011281 -0.00140239 0)
(0.000632557 -0.000379725 1.04485e-16)
(1.10552e-05 -0.000959431 -8.71437e-19)
(3.32754e-05 0.000323499 -5.61542e-17)
(-0.000225277 -6.83289e-05 0)
(0.000573759 -0.000752294 2.04395e-16)
(-0.000246454 -0.0012326 2.57989e-16)
(0.00123447 0.000211634 -1.9933e-16)
(7.7957e-06 -0.000149948 -1.72578e-16)
(0.00163611 0.000386193 -2.48735e-16)
(-0.000870922 0.00282068 0)
(0.000909261 0.000104727 0)
(0.000733726 -0.000492641 -1.44564e-16)
(-0.00104211 0.00122387 5.39594e-17)
(0.000510125 -0.00104836 2.31736e-16)
(6.62712e-06 0.00195814 -2.92797e-16)
(0.00111492 -0.00109496 2.54214e-16)
(0.000719127 0.000226719 0)
(0.0010427 -0.00027447 0)
(0.00100278 0.000144514 -1.20374e-16)
(0.00110886 0.000458947 -1.91988e-16)
(-0.0192947 0.0316651 8.10171e-17)
(-0.030393 0.0497482 -8.16248e-17)
(-0.0281902 0.0411902 -1.22425e-16)
(0.0258026 -0.0378317 3.16783e-17)
(-0.0125604 0.0304547 -3.18678e-16)
(-0.0175881 -0.0248972 1.146e-16)
(0.00027565 0.0351042 -4.90775e-19)
(0.0101141 0.011914 -1.37936e-16)
(-0.022535 0.012434 2.0327e-16)
(0.0022651 0.0146209 6.30336e-17)
(0.0368588 0.036464 -6.45176e-17)
(0.0180432 -0.0222233 0)
(0.0161347 -0.0224816 -1.33969e-17)
(-0.0150495 0.0457437 8.81189e-17)
(-0.00429007 -0.0262381 1.20455e-16)
(-0.0221853 0.00495316 1.4015e-16)
(-0.00172819 -0.00205943 1.39855e-16)
(0.00147685 0.00306928 -2.37194e-16)
(-0.00237048 -0.00299803 1.93721e-16)
(-0.00842023 -0.00228423 -7.10244e-17)
(0.0011076 -0.0097686 1.57529e-16)
(0.000376188 0.000427464 -8.28615e-17)
(0.000583453 -0.000197051 0)
(0.00100767 -0.0019869 -1.95166e-19)
(-0.00127069 0.00105854 8.18492e-17)
(-0.00156076 -0.00116835 -2.97769e-16)
(-0.00104797 -0.000674451 2.61903e-19)
(-0.00185547 -0.00013874 0)
(0.00264506 0.000675011 9.9526e-17)
(-0.00325865 0.00203498 1.38582e-16)
(0.00205094 -0.00549241 -1.56973e-16)
(0.00104319 0.000684921 -5.97401e-17)
(0.0030632 -0.00309274 -2.28847e-17)
(0.0018579 0.000956761 2.35481e-17)
(-0.00138945 -0.00187446 -2.05015e-16)
(-0.00132474 -0.00212966 5.58715e-17)
(-0.00515283 0.00564753 0)
(0.00371517 -0.00207195 -8.30195e-17)
(-0.000721038 0.00025052 7.34943e-17)
(0.000576004 -0.000520297 1.4341e-16)
(7.66499e-05 -0.000263986 1.31023e-16)
(-0.00135748 -7.266e-05 -1.39997e-16)
(0.00278473 -0.000840305 0)
(0.000657338 0.00171537 0)
(-0.000470643 0.00358493 -1.47318e-18)
(0.000864521 -0.000147249 0)
(-6.06245e-05 0.000576647 9.89911e-17)
(0.00143379 -0.00557137 -1.42418e-18)
(0.00420324 -0.00047807 6.08467e-16)
(0.000639918 0.00109253 1.57716e-16)
(-0.00064254 -1.61625e-05 -1.50164e-16)
(-0.000728334 -0.000634495 1.60807e-16)
(-0.000563138 0.00124362 8.76923e-17)
(0.000323666 0.00221182 -8.45775e-17)
(-0.0013835 0.0016728 2.29875e-16)
(-0.000271815 0.00108815 0)
(0.000930733 6.04114e-05 1.53552e-16)
(0.00258782 0.000302107 -3.45271e-16)
(0.00173792 0.000888708 1.67356e-16)
(-0.000367969 -0.000683515 -3.53477e-16)
(0.000606668 0.000213559 0)
(-0.000632898 -9.85e-05 -7.23021e-17)
(2.75211e-05 -0.000697642 1.81796e-16)
(0.000567511 0.000755643 -9.29589e-17)
(0.000578262 -0.000141747 6.79467e-17)
(0.009986 -0.00321928 0)
(0.00392565 -0.00122361 0)
(0.00423884 -0.00279411 0)
(0.00732722 -0.00480536 0)
(0.00590142 0.000815762 1.47005e-16)
(-0.0237156 0.021715 -4.53855e-17)
(-0.00660852 -0.0140198 -4.09149e-17)
(-0.032721 0.0171177 4.41604e-17)
(0.00183775 -0.0012463 -9.191e-17)
(0.0149948 0.00732437 6.97302e-17)
(0.0282798 0.0124278 -1.38535e-18)
(0.00774044 0.000614432 -8.74013e-17)
(-0.00362778 -0.00229867 -1.2077e-17)
(0.0176386 -0.008197 -1.0879e-17)
(-0.0181473 -0.0220139 -8.30083e-17)
(-0.0240255 -0.00019074 0)
(-0.0264377 0.00151201 3.80471e-17)
(-0.0480618 0.0178223 3.69665e-17)
(-0.00498543 0.00832348 -3.10119e-17)
(-0.0236383 -0.00985834 0)
(-0.0699454 0.00791124 -1.29157e-16)
(-0.00930137 -0.0167905 9.13889e-17)
(0.0417759 0.0048909 -8.38734e-17)
(0.0426906 0.00896652 4.37385e-17)
(0.0215919 0.0161424 0)
(0.00448492 0.0131197 -8.88701e-17)
(0.0149964 0.0127648 -9.76467e-17)
(0.0147805 0.00404044 0)
(0.0146664 0.0112061 -5.78623e-19)
(0.0180866 0.0134298 4.34921e-17)
(-0.00841036 -0.00402107 7.7498e-18)
(-0.0045367 -0.00950652 -1.20312e-16)
(-0.00713921 -0.00134115 3.33149e-17)
(-0.00366344 -0.00250553 4.08287e-17)
(-0.00225441 -0.0108053 0)
(-0.00326325 -0.00610472 0)
(-0.000499084 -0.00210869 3.29515e-17)
(-0.00101801 0.00248832 -1.02758e-17)
(-0.0026992 -0.00638528 0)
(-0.00360789 -0.00616558 2.67683e-17)
(-0.00559584 -0.00293319 -5.13197e-17)
(0.000494831 -0.00175384 0)
(-0.00261218 0.00263747 -2.42964e-17)
(0.00112989 0.00155126 -1.70455e-16)
(0.00104036 -0.000295427 0)
(0.000580526 -0.00141806 0)
(-0.00214254 -0.00241911 -5.77944e-19)
(0.000678243 0.000498277 2.76565e-16)
(0.000432821 -0.000185158 3.35558e-16)
(-0.000924646 0.000239202 0)
(-0.000192396 0.000103139 0)
(3.11992e-05 0.000252967 1.68168e-16)
(-0.000742476 0.000805837 0)
(0.000847353 8.74095e-05 0)
(-0.00959402 0.00269067 0)
(0.000699913 -0.000373585 1.19353e-18)
(-0.00187879 0.00210473 1.16774e-17)
(-0.00541646 -0.00466635 0)
(-0.00778277 -0.00292045 1.75167e-17)
(0.000541383 8.05112e-06 -9.17692e-18)
(-0.000870559 -6.14558e-05 0)
(-0.0123541 -0.0430283 0)
(0.0400448 -0.0355518 -2.07718e-16)
(0.0335278 0.0184415 0)
(0.00102397 0.026566 2.5392e-16)
(0.00125967 -0.00382181 0)
(-0.0137 0.010509 -1.11344e-16)
(0.0166565 0.0052119 -3.87028e-18)
(0.0219837 -0.0117089 -1.95579e-16)
(0.00269186 -0.00571393 2.41648e-16)
(-0.0208976 0.0110802 4.35969e-17)
(0.00335209 0.00845805 0)
(0.00177193 0.0116507 0)
(0.0158516 0.00108455 0)
(-0.00902575 -0.0128407 -1.53693e-16)
(-0.000705642 -0.0218976 -1.15276e-16)
(0.000416616 0.00299803 -2.67706e-17)
(-0.0113219 -0.0142891 2.1836e-17)
(0.0232527 -0.0197458 0)
(0.00663536 -0.00362211 0)
(-0.0186995 0.000309217 -4.20283e-17)
(-0.0194301 0.000619062 0)
(0.00663483 0.00110312 0)
(0.0328953 0.0236603 -1.76897e-16)
(-0.0364469 0.0181592 -1.07117e-17)
(-0.0242163 -0.0505388 0)
(0.00728374 -0.0467079 2.6872e-16)
(0.00102665 -0.00872771 -5.67787e-17)
(-0.00473741 -0.00155055 0)
(0.00141209 0.00579451 9.97514e-17)
(0.00524141 0.00319373 0)
(-0.00516288 0.00547266 0)
(0.0233879 -0.0192502 -1.10182e-16)
(-0.0204258 0.019162 -8.3319e-17)
(-0.0297471 -0.0422922 1.44222e-16)
(-0.00747212 -0.0212046 -4.2357e-17)
(0.000302909 0.016702 0)
(0.0234514 0.0251502 5.49519e-17)
(-0.00532135 0.0145594 -8.47138e-17)
(-0.0113623 -0.000119396 4.00114e-19)
(0.0157039 -0.0244988 0)
(0.0220532 0.030485 -7.01155e-17)
(0.0120339 0.0149756 0)
(-0.00121371 0.000634661 0)
(-0.00171371 0.00125092 0)
(0.000551136 0.000853914 0)
(0.00167033 -0.00189514 -1.57322e-16)
(0.000302214 -0.00102212 8.71231e-17)
(0.00100272 -0.00266027 -1.12873e-16)
(-5.37685e-05 0.000630028 0)
(-0.000460477 0.00244988 4.65495e-17)
(0.000114685 -0.0050863 1.85285e-16)
(0.00103205 0.00354889 -1.18131e-16)
(-0.00828947 -0.0248523 1.05446e-16)
(0.0333202 -0.0895703 0)
(-0.0259444 -0.0213456 1.79217e-16)
(0.0234595 0.00777455 -1.64135e-16)
(0.00541761 0.0427733 -1.10089e-16)
(-0.0142854 -0.00377309 1.44489e-16)
(-0.0555189 0.0691632 0)
(0.0180069 -0.019338 -2.85473e-17)
(0.0160588 -0.00383222 1.88749e-16)
(-0.0092926 0.0215273 -4.41046e-17)
(-0.00048921 0.00313674 4.66859e-17)
(0.00338725 -0.0035253 1.0653e-16)
(0.00203622 -0.00438278 0)
(0.0010049 -0.00392702 0)
(0.000286274 0.00397974 0)
(-0.00183197 0.000680867 6.67135e-17)
(0.000768677 -0.00120119 -1.51601e-16)
(0.000606829 -0.000128025 1.3974e-16)
(-0.000225089 0.00526226 -1.24036e-16)
(-0.00443751 -0.00271292 0)
(0.000995567 0.00299714 -4.27666e-17)
(-4.85417e-05 -0.000281535 -2.07381e-16)
(-0.000474539 0.00105281 -2.67982e-16)
(0.000689028 -0.000862134 1.58834e-16)
(0.000403285 0.00089038 -1.49814e-16)
(0.00112859 -0.000617369 -1.24226e-16)
(-0.00109591 0.000839789 1.52917e-16)
(0.000209056 -0.00114548 -1.7729e-16)
(-9.94242e-05 0.000436189 3.68243e-16)
(0.00142559 -0.000693187 2.21816e-16)
(-0.000531922 -0.00044977 -2.68887e-16)
(0.000530552 -0.000598934 0)
(0.000395699 0.00102867 -4.36613e-16)
(0.0218442 -0.0237835 1.731e-17)
(0.0310311 0.00833716 0)
(-0.011654 -0.00276877 1.4743e-16)
(-0.0668993 0.00142023 -1.35548e-16)
(-0.0544965 -0.014218 7.59377e-17)
(0.0100103 0.00776619 0)
(0.000944511 0.0125707 0)
(-0.00348548 -0.0020531 -1.0582e-17)
(-0.00351057 -0.000883232 9.25495e-18)
(-0.00858865 0.00571144 1.11262e-18)
(0.00159147 0.00133179 -1.66077e-17)
(-0.0135193 0.000586157 9.26153e-18)
(0.026196 -0.00485742 -2.14345e-16)
(-8.52499e-05 -0.00438315 2.24597e-16)
(-0.0341953 0.0100163 -1.43219e-16)
(-0.0678796 0.0565733 1.01781e-17)
(-0.000183425 0.00421543 0)
(-0.00410317 0.00120419 -1.38551e-16)
(-0.00357979 -0.00199905 1.34955e-16)
(-0.00376559 -0.0168646 1.39306e-16)
(0.0115115 -0.0195381 0)
(0.000408972 0.00693127 0)
(0.00588709 -0.0133236 1.75571e-16)
(-0.054462 0.0278622 2.23037e-16)
(-0.00238 0.0216907 -1.52664e-16)
(-0.0174276 -0.0166066 -2.55366e-17)