/*--------------------------------*- C++ -*----------------------------------*\
  =========                 |
  \\      /  F ield         | OpenFOAM: The Open Source CFD Toolbox
   \\    /   O peration     | Website:  https://openfoam.org
    \\  /    A nd           | Version:  6
     \\/     M anipulation  |
\*---------------------------------------------------------------------------*/
FoamFile
{
    version     2.0;
    format      ascii;
    class       volScalarField;
    location    "0";
    object      p;
}
// * * * * * * * * * * * * * * * * * * * * * * * * * * * * * * * * * * * * * //

dimensions      [0 2 -2 0 0 0 0];

internalField   nonuniform List<scalar> 
40000
(
0.0171299
0.0171307
0.0171316
0.0171318
0.0171312
0.0171296
0.017127
0.0171233
0.0171188
0.0171133
0.017107
0.0171
0.0170923
0.017084
0.0170751
0.0170657
0.0170558
0.0170455
0.0170348
0.0170237
0.0170123
0.0170005
0.0169885
0.0169761
0.0169634
0.0169505
0.0169372
0.0169237
0.0169099
0.0168958
0.0168814
0.0168667
0.0168518
0.0168366
0.0168212
0.0168055
0.0167895
0.0167733
0.0167568
0.0167401
0.0167232
0.0167061
0.0166889
0.0166714
0.0166538
0.0166361
0.0166182
0.0166003
0.0165823
0.0165643
0.0165463
0.0165283
0.0165103
0.0164925
0.0164747
0.0164571
0.0164397
0.0164226
0.0164057
0.0163891
0.0163729
0.0163571
0.0163417
0.0163268
0.0163124
0.0162986
0.0162854
0.016273
0.0162612
0.0162502
0.01624
0.0162307
0.0162222
0.0162148
0.0162083
0.0162029
0.0161986
0.0161954
0.0161933
0.0161924
0.0161928
0.0161944
0.0161972
0.0162013
0.0162068
0.0162135
0.0162214
0.0162307
0.0162412
0.016253
0.016266
0.0162801
0.0162954
0.0163117
0.0163291
0.0163474
0.0163665
0.0163864
0.016407
0.0164282
0.0164498
0.0164718
0.016494
0.0165162
0.0165384
0.0165604
0.016582
0.0166031
0.0166235
0.0166431
0.0166616
0.016679
0.016695
0.0167096
0.0167224
0.0167335
0.0167425
0.0167495
0.0167541
0.0167564
0.0167562
0.0167533
0.0167477
0.0167393
0.0167279
0.0167136
0.0166963
0.0166759
0.0166524
0.0166259
0.0165963
0.0165637
0.0165281
0.0164896
0.0164482
0.016404
0.0163572
0.0163078
0.016256
0.016202
0.0161458
0.0160876
0.0160277
0.0159662
0.0159032
0.015839
0.0157738
0.0157078
0.015641
0.0155739
0.0155065
0.015439
0.0153716
0.0153046
0.015238
0.0151721
0.015107
0.0150429
0.0149799
0.0149182
0.0148578
0.0147989
0.0147417
0.0146862
0.0146324
0.0145805
0.0145306
0.0144827
0.0144368
0.014393
0.0143513
0.0143118
0.0142744
0.0142393
0.0142063
0.0141756
0.014147
0.0141207
0.0140966
0.0140747
0.014055
0.0140375
0.0140222
0.0140091
0.0139981
0.0139893
0.0139827
0.0139781
0.0139755
0.013975
0.0139763
0.0139793
0.013984
0.0139899
0.0139968
0.0140043
0.0140116
0.0140181
0.0140227
0.0140247
0.0171291
0.0171299
0.0171307
0.0171308
0.01713
0.0171284
0.0171258
0.0171223
0.0171178
0.0171126
0.0171065
0.0170997
0.0170923
0.0170842
0.0170756
0.0170665
0.0170569
0.0170469
0.0170364
0.0170256
0.0170144
0.0170029
0.0169911
0.0169789
0.0169665
0.0169537
0.0169407
0.0169274
0.0169138
0.0168999
0.0168857
0.0168713
0.0168566
0.0168416
0.0168264
0.0168109
0.0167952
0.0167792
0.016763
0.0167466
0.01673
0.0167131
0.0166961
0.0166789
0.0166616
0.0166442
0.0166266
0.016609
0.0165913
0.0165736
0.0165558
0.0165381
0.0165205
0.0165029
0.0164854
0.0164681
0.016451
0.0164341
0.0164175
0.0164012
0.0163852
0.0163696
0.0163544
0.0163397
0.0163255
0.0163119
0.0162988
0.0162865
0.0162748
0.0162639
0.0162537
0.0162444
0.016236
0.0162285
0.0162219
0.0162164
0.0162119
0.0162085
0.0162062
0.0162051
0.0162052
0.0162064
0.0162089
0.0162126
0.0162175
0.0162237
0.0162311
0.0162398
0.0162497
0.0162607
0.016273
0.0162864
0.0163008
0.0163163
0.0163328
0.0163502
0.0163684
0.0163873
0.0164069
0.0164271
0.0164477
0.0164685
0.0164896
0.0165108
0.0165319
0.0165527
0.0165732
0.0165932
0.0166125
0.0166309
0.0166484
0.0166647
0.0166797
0.0166933
0.0167051
0.0167153
0.0167234
0.0167295
0.0167334
0.0167349
0.016734
0.0167305
0.0167243
0.0167154
0.0167036
0.0166889
0.0166713
0.0166507
0.0166271
0.0166006
0.016571
0.0165385
0.016503
0.0164647
0.0164236
0.0163799
0.0163335
0.0162847
0.0162335
0.0161801
0.0161246
0.0160673
0.0160082
0.0159476
0.0158855
0.0158223
0.0157581
0.0156931
0.0156274
0.0155613
0.015495
0.0154286
0.0153624
0.0152965
0.015231
0.0151662
0.0151022
0.0150392
0.0149773
0.0149166
0.0148572
0.0147994
0.0147431
0.0146885
0.0146356
0.0145846
0.0145355
0.0144883
0.0144431
0.0144
0.014359
0.0143201
0.0142833
0.0142486
0.0142161
0.0141858
0.0141576
0.0141316
0.0141078
0.0140861
0.0140665
0.0140491
0.0140339
0.0140207
0.0140097
0.0140007
0.0139938
0.0139888
0.0139858
0.0139847
0.0139854
0.0139877
0.0139914
0.0139964
0.0140023
0.0140087
0.014015
0.0140206
0.0140247
0.0140268
0.0171282
0.0171291
0.0171299
0.0171299
0.017129
0.0171274
0.0171248
0.0171214
0.0171171
0.0171121
0.0171063
0.0170998
0.0170927
0.0170849
0.0170766
0.0170678
0.0170586
0.0170489
0.0170387
0.0170282
0.0170174
0.0170062
0.0169946
0.0169828
0.0169706
0.0169581
0.0169454
0.0169323
0.016919
0.0169054
0.0168915
0.0168774
0.016863
0.0168483
0.0168333
0.0168181
0.0168027
0.016787
0.0167712
0.016755
0.0167387
0.0167222
0.0167056
0.0166887
0.0166718
0.0166547
0.0166375
0.0166202
0.0166029
0.0165855
0.0165681
0.0165508
0.0165335
0.0165163
0.0164992
0.0164822
0.0164654
0.0164488
0.0164325
0.0164165
0.0164008
0.0163854
0.0163705
0.016356
0.016342
0.0163286
0.0163157
0.0163034
0.0162918
0.016281
0.0162709
0.0162615
0.0162531
0.0162455
0.0162388
0.0162331
0.0162284
0.0162247
0.0162222
0.0162207
0.0162203
0.0162211
0.0162231
0.0162262
0.0162305
0.0162361
0.0162428
0.0162507
0.0162597
0.01627
0.0162813
0.0162937
0.0163072
0.0163216
0.016337
0.0163533
0.0163703
0.016388
0.0164064
0.0164253
0.0164446
0.0164642
0.0164839
0.0165037
0.0165235
0.016543
0.0165621
0.0165807
0.0165987
0.0166158
0.016632
0.0166471
0.0166608
0.0166731
0.0166839
0.0166929
0.0167
0.016705
0.016708
0.0167086
0.0167069
0.0167026
0.0166957
0.0166862
0.0166739
0.0166588
0.0166408
0.01662
0.0165962
0.0165696
0.01654
0.0165076
0.0164723
0.0164343
0.0163936
0.0163503
0.0163044
0.0162562
0.0162057
0.0161531
0.0160985
0.016042
0.0159839
0.0159243
0.0158634
0.0158013
0.0157383
0.0156745
0.0156101
0.0155453
0.0154802
0.0154152
0.0153503
0.0152857
0.0152216
0.0151581
0.0150955
0.0150337
0.0149731
0.0149137
0.0148556
0.0147989
0.0147438
0.0146904
0.0146386
0.0145886
0.0145405
0.0144943
0.0144501
0.0144078
0.0143676
0.0143294
0.0142933
0.0142593
0.0142274
0.0141976
0.0141699
0.0141443
0.0141208
0.0140994
0.0140801
0.0140628
0.0140476
0.0140344
0.0140232
0.014014
0.0140068
0.0140015
0.013998
0.0139962
0.0139961
0.0139976
0.0140003
0.0140043
0.014009
0.0140143
0.0140197
0.0140247
0.0140289
0.0140314
0.017128
0.017129
0.0171299
0.0171299
0.017129
0.0171273
0.0171248
0.0171215
0.0171173
0.0171124
0.0171068
0.0171006
0.0170937
0.0170862
0.0170782
0.0170697
0.0170607
0.0170512
0.0170414
0.0170312
0.0170206
0.0170096
0.0169984
0.0169868
0.0169749
0.0169627
0.0169502
0.0169374
0.0169243
0.016911
0.0168974
0.0168835
0.0168693
0.0168549
0.0168402
0.0168253
0.0168102
0.0167948
0.0167792
0.0167634
0.0167473
0.0167312
0.0167148
0.0166983
0.0166816
0.0166648
0.0166479
0.016631
0.016614
0.0165969
0.0165799
0.0165628
0.0165458
0.0165289
0.0165121
0.0164954
0.0164789
0.0164626
0.0164466
0.0164308
0.0164153
0.0164001
0.0163854
0.0163711
0.0163572
0.0163439
0.0163311
0.0163189
0.0163073
0.0162965
0.0162863
0.016277
0.0162684
0.0162607
0.0162538
0.0162479
0.016243
0.016239
0.0162361
0.0162343
0.0162335
0.0162338
0.0162353
0.0162379
0.0162416
0.0162465
0.0162525
0.0162597
0.016268
0.0162775
0.016288
0.0162995
0.016312
0.0163256
0.01634
0.0163552
0.0163712
0.0163879
0.0164052
0.0164229
0.0164411
0.0164596
0.0164782
0.0164969
0.0165154
0.0165338
0.0165518
0.0165693
0.0165861
0.0166022
0.0166173
0.0166313
0.016644
0.0166553
0.0166651
0.0166732
0.0166794
0.0166836
0.0166858
0.0166857
0.0166832
0.0166784
0.0166709
0.0166609
0.0166482
0.0166327
0.0166144
0.0165934
0.0165694
0.0165427
0.0165131
0.0164807
0.0164456
0.0164077
0.0163673
0.0163243
0.0162789
0.0162311
0.0161812
0.0161291
0.0160752
0.0160194
0.0159621
0.0159033
0.0158432
0.015782
0.0157199
0.0156571
0.0155937
0.01553
0.015466
0.015402
0.0153382
0.0152747
0.0152118
0.0151494
0.0150879
0.0150273
0.0149677
0.0149094
0.0148524
0.0147968
0.0147427
0.0146902
0.0146395
0.0145904
0.0145432
0.0144979
0.0144545
0.014413
0.0143736
0.0143361
0.0143007
0.0142673
0.0142359
0.0142066
0.0141794
0.0141541
0.014131
0.0141098
0.0140907
0.0140736
0.0140584
0.0140453
0.014034
0.0140247
0.0140172
0.0140115
0.0140076
0.0140054
0.0140047
0.0140055
0.0140076
0.0140108
0.014015
0.0140197
0.0140247
0.0140297
0.0140345
0.0140379
0.0171286
0.0171298
0.0171308
0.0171307
0.0171298
0.0171281
0.0171256
0.0171223
0.0171183
0.0171135
0.0171081
0.017102
0.0170953
0.017088
0.0170802
0.0170719
0.0170632
0.017054
0.0170444
0.0170345
0.0170241
0.0170134
0.0170024
0.0169911
0.0169794
0.0169675
0.0169552
0.0169427
0.0169299
0.0169168
0.0169034
0.0168898
0.0168759
0.0168617
0.0168473
0.0168327
0.0168178
0.0168027
0.0167873
0.0167718
0.0167561
0.0167402
0.0167241
0.0167078
0.0166915
0.016675
0.0166584
0.0166417
0.016625
0.0166082
0.0165915
0.0165747
0.016558
0.0165413
0.0165248
0.0165083
0.0164921
0.016476
0.0164601
0.0164445
0.0164292
0.0164142
0.0163996
0.0163854
0.0163717
0.0163584
0.0163456
0.0163335
0.0163219
0.016311
0.0163008
0.0162913
0.0162826
0.0162747
0.0162676
0.0162615
0.0162562
0.016252
0.0162487
0.0162464
0.0162452
0.0162451
0.016246
0.016248
0.0162512
0.0162555
0.0162608
0.0162673
0.0162749
0.0162835
0.0162932
0.0163039
0.0163156
0.0163282
0.0163417
0.016356
0.0163711
0.0163868
0.0164031
0.0164199
0.016437
0.0164545
0.0164721
0.0164897
0.0165073
0.0165247
0.0165417
0.0165582
0.0165741
0.0165892
0.0166033
0.0166164
0.0166282
0.0166387
0.0166477
0.0166549
0.0166604
0.0166639
0.0166654
0.0166647
0.0166617
0.0166563
0.0166484
0.0166379
0.0166248
0.016609
0.0165905
0.0165692
0.0165451
0.0165183
0.0164886
0.0164563
0.0164212
0.0163835
0.0163433
0.0163005
0.0162554
0.016208
0.0161584
0.0161069
0.0160534
0.0159982
0.0159415
0.0158833
0.015824
0.0157635
0.0157022
0.0156402
0.0155776
0.0155147
0.0154517
0.0153886
0.0153257
0.0152632
0.0152012
0.0151398
0.0150792
0.0150196
0.0149611
0.0149037
0.0148476
0.014793
0.0147399
0.0146883
0.0146384
0.0145903
0.0145439
0.0144994
0.0144568
0.0144161
0.0143773
0.0143405
0.0143057
0.0142729
0.0142421
0.0142133
0.0141865
0.0141617
0.0141389
0.014118
0.0140991
0.0140822
0.0140671
0.014054
0.0140427
0.0140332
0.0140256
0.0140196
0.0140154
0.0140128
0.0140117
0.014012
0.0140137
0.0140165
0.0140202
0.0140247
0.0140297
0.0140351
0.0140408
0.0140453
0.0171303
0.0171315
0.0171325
0.0171324
0.0171315
0.0171298
0.0171272
0.017124
0.01712
0.0171153
0.0171099
0.017104
0.0170974
0.0170903
0.0170827
0.0170747
0.0170661
0.0170572
0.0170478
0.0170381
0.017028
0.0170176
0.0170068
0.0169957
0.0169843
0.0169726
0.0169606
0.0169483
0.0169357
0.0169228
0.0169097
0.0168963
0.0168827
0.0168688
0.0168546
0.0168402
0.0168256
0.0168107
0.0167957
0.0167804
0.0167649
0.0167493
0.0167335
0.0167175
0.0167014
0.0166852
0.0166689
0.0166525
0.016636
0.0166195
0.016603
0.0165865
0.01657
0.0165536
0.0165372
0.016521
0.0165049
0.016489
0.0164733
0.0164579
0.0164427
0.0164278
0.0164133
0.0163992
0.0163855
0.0163722
0.0163595
0.0163472
0.0163356
0.0163246
0.0163143
0.0163046
0.0162957
0.0162876
0.0162803
0.0162738
0.0162683
0.0162636
0.01626
0.0162573
0.0162556
0.0162549
0.0162553
0.0162568
0.0162593
0.016263
0.0162677
0.0162734
0.0162803
0.0162882
0.0162971
0.016307
0.0163179
0.0163296
0.0163423
0.0163557
0.0163698
0.0163847
0.0164
0.0164159
0.0164322
0.0164487
0.0164654
0.0164821
0.0164988
0.0165152
0.0165314
0.016547
0.016562
0.0165763
0.0165896
0.0166019
0.016613
0.0166228
0.016631
0.0166376
0.0166425
0.0166454
0.0166463
0.0166451
0.0166416
0.0166357
0.0166274
0.0166166
0.0166032
0.0165871
0.0165683
0.0165468
0.0165226
0.0164956
0.016466
0.0164336
0.0163986
0.016361
0.0163208
0.0162783
0.0162334
0.0161862
0.016137
0.0160858
0.0160327
0.015978
0.0159217
0.0158641
0.0158053
0.0157454
0.0156847
0.0156234
0.0155615
0.0154993
0.015437
0.0153747
0.0153127
0.0152509
0.0151897
0.0151292
0.0150695
0.0150107
0.014953
0.0148966
0.0148414
0.0147876
0.0147353
0.0146846
0.0146355
0.0145882
0.0145427
0.0144989
0.014457
0.0144171
0.014379
0.0143429
0.0143087
0.0142765
0.0142462
0.0142179
0.0141916
0.0141672
0.0141447
0.0141241
0.0141055
0.0140887
0.0140738
0.0140607
0.0140494
0.0140399
0.0140321
0.014026
0.0140215
0.0140186
0.0140172
0.0140173
0.0140186
0.0140211
0.0140247
0.0140292
0.0140344
0.0140403
0.0140471
0.0140527
0.017133
0.0171342
0.0171351
0.017135
0.017134
0.0171322
0.0171296
0.0171263
0.0171223
0.0171177
0.0171124
0.0171065
0.0171001
0.0170932
0.0170858
0.0170779
0.0170695
0.0170608
0.0170516
0.0170421
0.0170322
0.017022
0.0170115
0.0170006
0.0169894
0.016978
0.0169662
0.0169541
0.0169418
0.0169292
0.0169163
0.0169031
0.0168897
0.016876
0.0168621
0.016848
0.0168336
0.016819
0.0168042
0.0167891
0.0167739
0.0167585
0.016743
0.0167272
0.0167114
0.0166954
0.0166793
0.0166632
0.0166469
0.0166307
0.0166144
0.0165981
0.0165818
0.0165655
0.0165494
0.0165333
0.0165174
0.0165016
0.0164861
0.0164707
0.0164556
0.0164408
0.0164263
0.0164122
0.0163985
0.0163852
0.0163724
0.0163601
0.0163484
0.0163372
0.0163267
0.0163168
0.0163077
0.0162993
0.0162917
0.0162849
0.0162789
0.0162739
0.0162698
0.0162666
0.0162644
0.0162632
0.0162631
0.0162639
0.0162658
0.0162688
0.0162728
0.0162779
0.016284
0.0162912
0.0162993
0.0163085
0.0163185
0.0163295
0.0163413
0.0163539
0.0163672
0.0163812
0.0163958
0.0164108
0.0164262
0.0164419
0.0164578
0.0164737
0.0164896
0.0165052
0.0165206
0.0165355
0.0165498
0.0165633
0.016576
0.0165876
0.0165981
0.0166072
0.0166149
0.0166209
0.0166252
0.0166277
0.0166281
0.0166264
0.0166225
0.0166163
0.0166077
0.0165965
0.0165828
0.0165665
0.0165476
0.0165259
0.0165016
0.0164745
0.0164448
0.0164124
0.0163774
0.0163398
0.0162998
0.0162573
0.0162126
0.0161656
0.0161166
0.0160657
0.0160129
0.0159585
0.0159026
0.0158454
0.015787
0.0157276
0.0156674
0.0156066
0.0155453
0.0154837
0.015422
0.0153603
0.0152989
0.0152379
0.0151774
0.0151176
0.0150586
0.0150006
0.0149437
0.014888
0.0148335
0.0147805
0.014729
0.0146791
0.0146308
0.0145842
0.0145394
0.0144964
0.0144553
0.014416
0.0143786
0.0143431
0.0143095
0.0142779
0.0142482
0.0142204
0.0141945
0.0141705
0.0141484
0.0141281
0.0141097
0.0140932
0.0140784
0.0140654
0.0140542
0.0140446
0.0140368
0.0140306
0.0140259
0.0140228
0.0140212
0.0140211
0.0140222
0.0140246
0.0140282
0.0140328
0.0140384
0.014045
0.0140529
0.0140595
0.0171369
0.0171379
0.0171386
0.0171383
0.0171372
0.0171353
0.0171327
0.0171293
0.0171253
0.0171207
0.0171155
0.0171097
0.0171034
0.0170965
0.0170892
0.0170815
0.0170733
0.0170648
0.0170558
0.0170465
0.0170368
0.0170268
0.0170165
0.0170058
0.0169949
0.0169836
0.016972
0.0169602
0.0169481
0.0169357
0.016923
0.0169101
0.0168969
0.0168835
0.0168698
0.0168559
0.0168417
0.0168274
0.0168128
0.016798
0.016783
0.0167678
0.0167525
0.016737
0.0167214
0.0167056
0.0166897
0.0166738
0.0166577
0.0166417
0.0166255
0.0166094
0.0165933
0.0165772
0.0165612
0.0165453
0.0165295
0.0165138
0.0164983
0.016483
0.0164679
0.0164531
0.0164386
0.0164245
0.0164107
0.0163973
0.0163844
0.0163719
0.01636
0.0163486
0.0163379
0.0163278
0.0163183
0.0163096
0.0163016
0.0162944
0.0162881
0.0162826
0.016278
0.0162743
0.0162715
0.0162698
0.016269
0.0162693
0.0162705
0.0162728
0.0162762
0.0162805
0.0162859
0.0162923
0.0162997
0.0163081
0.0163174
0.0163276
0.0163386
0.0163505
0.016363
0.0163762
0.01639
0.0164042
0.0164189
0.0164338
0.016449
0.0164642
0.0164794
0.0164943
0.016509
0.0165233
0.016537
0.0165499
0.016562
0.0165731
0.016583
0.0165916
0.0165988
0.0166044
0.0166083
0.0166103
0.0166104
0.0166084
0.0166042
0.0165977
0.0165888
0.0165774
0.0165635
0.016547
0.0165279
0.0165061
0.0164816
0.0164545
0.0164247
0.0163923
0.0163573
0.0163197
0.0162797
0.0162374
0.0161927
0.0161459
0.016097
0.0160463
0.0159937
0.0159396
0.0158839
0.015827
0.0157689
0.0157099
0.0156501
0.0155896
0.0155288
0.0154677
0.0154065
0.0153453
0.0152845
0.015224
0.0151641
0.0151049
0.0150466
0.0149892
0.0149329
0.0148779
0.0148242
0.0147718
0.014721
0.0146718
0.0146242
0.0145784
0.0145343
0.0144919
0.0144515
0.0144128
0.0143761
0.0143412
0.0143082
0.0142771
0.014248
0.0142207
0.0141952
0.0141717
0.0141499
0.01413
0.0141119
0.0140956
0.014081
0.0140681
0.0140569
0.0140474
0.0140396
0.0140333
0.0140286
0.0140254
0.0140237
0.0140234
0.0140245
0.0140269
0.0140305
0.0140354
0.0140415
0.0140488
0.0140578
0.0140654
0.0171417
0.0171425
0.017143
0.0171426
0.0171413
0.0171392
0.0171365
0.017133
0.017129
0.0171243
0.0171191
0.0171134
0.0171071
0.0171004
0.0170932
0.0170856
0.0170775
0.0170691
0.0170603
0.0170512
0.0170417
0.0170319
0.0170217
0.0170113
0.0170005
0.0169895
0.0169782
0.0169665
0.0169546
0.0169425
0.01693
0.0169173
0.0169043
0.0168911
0.0168777
0.0168639
0.01685
0.0168358
0.0168215
0.0168069
0.0167921
0.0167771
0.016762
0.0167467
0.0167313
0.0167157
0.0167
0.0166842
0.0166684
0.0166524
0.0166365
0.0166205
0.0166045
0.0165885
0.0165726
0.0165567
0.016541
0.0165254
0.0165099
0.0164946
0.0164795
0.0164646
0.0164501
0.0164358
0.0164219
0.0164084
0.0163953
0.0163826
0.0163704
0.0163588
0.0163477
0.0163373
0.0163275
0.0163184
0.01631
0.0163023
0.0162955
0.0162895
0.0162843
0.0162801
0.0162768
0.0162744
0.016273
0.0162726
0.0162732
0.0162748
0.0162774
0.0162811
0.0162857
0.0162914
0.0162981
0.0163057
0.0163142
0.0163237
0.0163339
0.016345
0.0163568
0.0163693
0.0163824
0.0163959
0.0164099
0.0164242
0.0164386
0.0164532
0.0164678
0.0164822
0.0164963
0.01651
0.0165231
0.0165356
0.0165472
0.0165578
0.0165673
0.0165755
0.0165823
0.0165876
0.0165912
0.0165929
0.0165927
0.0165904
0.016586
0.0165793
0.0165702
0.0165587
0.0165446
0.016528
0.0165088
0.0164869
0.0164623
0.0164352
0.0164053
0.0163729
0.0163379
0.0163003
0.0162604
0.016218
0.0161735
0.0161267
0.016078
0.0160273
0.0159749
0.0159209
0.0158655
0.0158087
0.0157509
0.0156921
0.0156326
0.0155725
0.015512
0.0154512
0.0153904
0.0153297
0.0152692
0.0152092
0.0151498
0.0150911
0.0150333
0.0149765
0.0149208
0.0148663
0.0148132
0.0147615
0.0147114
0.0146628
0.0146158
0.0145706
0.0145271
0.0144855
0.0144456
0.0144076
0.0143715
0.0143372
0.0143048
0.0142743
0.0142456
0.0142188
0.0141938
0.0141707
0.0141494
0.0141298
0.014112
0.0140959
0.0140815
0.0140688
0.0140578
0.0140483
0.0140405
0.0140342
0.0140295
0.0140263
0.0140245
0.0140242
0.0140253
0.0140277
0.0140316
0.0140368
0.0140433
0.0140512
0.0140612
0.0140697
0.0171476
0.0171481
0.0171483
0.0171476
0.0171461
0.0171438
0.0171409
0.0171374
0.0171333
0.0171285
0.0171233
0.0171176
0.0171113
0.0171047
0.0170975
0.01709
0.0170821
0.0170738
0.0170652
0.0170562
0.0170469
0.0170373
0.0170273
0.017017
0.0170065
0.0169956
0.0169845
0.0169731
0.0169614
0.0169494
0.0169372
0.0169247
0.0169119
0.0168989
0.0168856
0.0168721
0.0168584
0.0168444
0.0168302
0.0168158
0.0168012
0.0167865
0.0167715
0.0167564
0.0167411
0.0167257
0.0167101
0.0166945
0.0166788
0.016663
0.0166471
0.0166312
0.0166153
0.0165994
0.0165835
0.0165677
0.0165519
0.0165363
0.0165208
0.0165054
0.0164902
0.0164753
0.0164606
0.0164462
0.016432
0.0164183
0.0164049
0.016392
0.0163795
0.0163675
0.0163561
0.0163453
0.016335
0.0163254
0.0163165
0.0163084
0.016301
0.0162944
0.0162887
0.0162838
0.0162799
0.0162768
0.0162747
0.0162736
0.0162735
0.0162744
0.0162763
0.0162792
0.0162831
0.0162881
0.016294
0.0163008
0.0163086
0.0163173
0.0163269
0.0163373
0.0163484
0.0163601
0.0163725
0.0163854
0.0163988
0.0164124
0.0164263
0.0164403
0.0164543
0.0164682
0.0164819
0.0164951
0.0165078
0.0165199
0.0165311
0.0165414
0.0165505
0.0165585
0.016565
0.01657
0.0165734
0.0165749
0.0165745
0.0165721
0.0165675
0.0165607
0.0165515
0.0165399
0.0165257
0.016509
0.0164898
0.0164678
0.0164433
0.0164161
0.0163862
0.0163538
0.0163188
0.0162813
0.0162413
0.016199
0.0161545
0.0161078
0.0160591
0.0160086
0.0159562
0.0159023
0.015847
0.0157904
0.0157328
0.0156742
0.0156148
0.0155549
0.0154947
0.0154342
0.0153736
0.0153132
0.0152531
0.0151935
0.0151345
0.0150762
0.0150188
0.0149625
0.0149073
0.0148533
0.0148007
0.0147496
0.0147
0.014652
0.0146056
0.014561
0.0145181
0.0144771
0.0144378
0.0144004
0.0143648
0.0143312
0.0142993
0.0142693
0.0142412
0.0142149
0.0141904
0.0141676
0.0141467
0.0141275
0.01411
0.0140942
0.01408
0.0140675
0.0140566
0.0140473
0.0140396
0.0140333
0.0140286
0.0140254
0.0140237
0.0140234
0.0140245
0.0140271
0.0140312
0.0140367
0.0140436
0.0140522
0.0140631
0.0140724
0.0171544
0.0171546
0.0171544
0.0171534
0.0171516
0.0171491
0.017146
0.0171423
0.0171381
0.0171333
0.017128
0.0171222
0.017116
0.0171094
0.0171023
0.0170949
0.0170871
0.0170789
0.0170704
0.0170616
0.0170524
0.0170429
0.0170331
0.0170231
0.0170127
0.017002
0.0169911
0.0169798
0.0169683
0.0169565
0.0169445
0.0169322
0.0169196
0.0169068
0.0168937
0.0168804
0.0168668
0.016853
0.016839
0.0168248
0.0168103
0.0167957
0.0167809
0.0167659
0.0167508
0.0167355
0.01672
0.0167045
0.0166889
0.0166731
0.0166573
0.0166415
0.0166256
0.0166097
0.0165938
0.0165779
0.0165621
0.0165464
0.0165308
0.0165153
0.0165
0.0164849
0.01647
0.0164553
0.016441
0.0164269
0.0164132
0.0163999
0.0163871
0.0163747
0.0163628
0.0163515
0.0163407
0.0163306
0.0163211
0.0163124
0.0163044
0.0162972
0.0162908
0.0162852
0.0162806
0.0162768
0.016274
0.0162721
0.0162713
0.0162714
0.0162725
0.0162747
0.0162778
0.016282
0.0162871
0.0162932
0.0163003
0.0163082
0.0163171
0.0163267
0.0163372
0.0163483
0.01636
0.0163723
0.0163851
0.0163982
0.0164115
0.0164251
0.0164386
0.016452
0.0164653
0.0164781
0.0164905
0.0165022
0.0165132
0.0165232
0.0165322
0.0165399
0.0165463
0.0165511
0.0165543
0.0165558
0.0165553
0.0165528
0.0165482
0.0165413
0.0165321
0.0165205
0.0165063
0.0164897
0.0164704
0.0164485
0.016424
0.0163968
0.016367
0.0163346
0.0162996
0.0162621
0.0162222
0.01618
0.0161355
0.0160888
0.0160402
0.0159897
0.0159375
0.0158836
0.0158284
0.0157719
0.0157143
0.0156558
0.0155966
0.0155369
0.0154768
0.0154165
0.0153562
0.015296
0.0152362
0.0151768
0.0151181
0.0150602
0.0150032
0.0149472
0.0148924
0.0148389
0.0147868
0.0147361
0.014687
0.0146395
0.0145937
0.0145496
0.0145073
0.0144668
0.0144281
0.0143912
0.0143562
0.0143231
0.0142918
0.0142623
0.0142347
0.0142088
0.0141848
0.0141625
0.014142
0.0141231
0.0141059
0.0140904
0.0140765
0.0140643
0.0140535
0.0140444
0.0140367
0.0140306
0.014026
0.0140228
0.0140211
0.0140209
0.0140222
0.0140249
0.0140292
0.014035
0.0140424
0.0140515
0.0140632
0.0140731
0.0171621
0.0171619
0.0171613
0.0171599
0.0171578
0.0171551
0.0171517
0.0171479
0.0171434
0.0171385
0.0171332
0.0171274
0.0171211
0.0171145
0.0171075
0.0171001
0.0170924
0.0170843
0.0170759
0.0170672
0.0170582
0.0170488
0.0170392
0.0170293
0.0170191
0.0170086
0.0169978
0.0169868
0.0169754
0.0169638
0.0169519
0.0169398
0.0169274
0.0169147
0.0169018
0.0168887
0.0168752
0.0168616
0.0168477
0.0168337
0.0168194
0.0168048
0.0167902
0.0167753
0.0167602
0.016745
0.0167297
0.0167142
0.0166986
0.0166829
0.0166671
0.0166512
0.0166353
0.0166194
0.0166034
0.0165875
0.0165716
0.0165557
0.0165399
0.0165243
0.0165087
0.0164933
0.0164782
0.0164632
0.0164485
0.0164341
0.01642
0.0164062
0.0163929
0.01638
0.0163676
0.0163557
0.0163444
0.0163336
0.0163235
0.0163141
0.0163054
0.0162975
0.0162903
0.016284
0.0162786
0.016274
0.0162704
0.0162678
0.0162661
0.0162654
0.0162657
0.016267
0.0162694
0.0162727
0.0162771
0.0162824
0.0162887
0.0162959
0.0163041
0.016313
0.0163228
0.0163333
0.0163444
0.0163561
0.0163683
0.0163809
0.0163938
0.0164068
0.01642
0.0164331
0.0164459
0.0164585
0.0164706
0.0164821
0.0164929
0.0165027
0.0165115
0.0165192
0.0165255
0.0165303
0.0165335
0.0165349
0.0165344
0.016532
0.0165274
0.0165206
0.0165115
0.0164999
0.0164859
0.0164693
0.0164501
0.0164283
0.0164039
0.0163768
0.0163471
0.0163148
0.0162799
0.0162425
0.0162027
0.0161605
0.0161161
0.0160695
0.0160209
0.0159705
0.0159183
0.0158645
0.0158093
0.0157529
0.0156954
0.015637
0.0155779
0.0155183
0.0154583
0.0153981
0.0153379
0.015278
0.0152183
0.0151592
0.0151007
0.015043
0.0149863
0.0149307
0.0148762
0.0148231
0.0147713
0.0147211
0.0146724
0.0146254
0.01458
0.0145364
0.0144946
0.0144546
0.0144165
0.0143801
0.0143457
0.014313
0.0142822
0.0142533
0.0142261
0.0142008
0.0141772
0.0141553
0.0141352
0.0141167
0.0140999
0.0140847
0.0140711
0.014059
0.0140485
0.0140395
0.014032
0.014026
0.0140215
0.0140184
0.0140168
0.0140167
0.0140181
0.014021
0.0140255
0.0140316
0.0140393
0.014049
0.0140612
0.0140717
0.0171706
0.01717
0.0171689
0.0171671
0.0171646
0.0171616
0.017158
0.0171539
0.0171493
0.0171443
0.0171388
0.0171329
0.0171267
0.01712
0.017113
0.0171057
0.017098
0.01709
0.0170817
0.0170731
0.0170642
0.017055
0.0170455
0.0170357
0.0170257
0.0170153
0.0170047
0.0169938
0.0169827
0.0169712
0.0169595
0.0169475
0.0169353
0.0169227
0.01691
0.016897
0.0168837
0.0168702
0.0168564
0.0168424
0.0168282
0.0168138
0.0167992
0.0167844
0.0167694
0.0167543
0.016739
0.0167235
0.0167079
0.0166922
0.0166763
0.0166604
0.0166444
0.0166284
0.0166123
0.0165962
0.0165801
0.016564
0.016548
0.016532
0.0165162
0.0165005
0.0164849
0.0164696
0.0164544
0.0164395
0.016425
0.0164107
0.0163968
0.0163833
0.0163703
0.0163577
0.0163457
0.0163342
0.0163234
0.0163132
0.0163037
0.016295
0.016287
0.0162798
0.0162736
0.0162681
0.0162637
0.0162601
0.0162576
0.016256
0.0162554
0.0162559
0.0162574
0.0162599
0.0162634
0.0162679
0.0162735
0.0162799
0.0162873
0.0162956
0.0163047
0.0163145
0.016325
0.0163362
0.0163479
0.01636
0.0163724
0.0163851
0.0163979
0.0164106
0.0164232
0.0164356
0.0164475
0.0164588
0.0164695
0.0164792
0.016488
0.0164956
0.016502
0.0165068
0.0165101
0.0165116
0.0165113
0.016509
0.0165046
0.0164979
0.016489
0.0164776
0.0164638
0.0164474
0.0164284
0.0164068
0.0163826
0.0163557
0.0163261
0.016294
0.0162593
0.016222
0.0161823
0.0161403
0.016096
0.0160495
0.016001
0.0159506
0.0158985
0.0158448
0.0157897
0.0157333
0.0156759
0.0156176
0.0155585
0.015499
0.015439
0.015379
0.0153189
0.015259
0.0151995
0.0151406
0.0150823
0.0150248
0.0149683
0.0149129
0.0148588
0.0148059
0.0147545
0.0147046
0.0146563
0.0146097
0.0145648
0.0145216
0.0144803
0.0144407
0.014403
0.0143672
0.0143332
0.0143011
0.0142708
0.0142423
0.0142157
0.0141908
0.0141676
0.0141462
0.0141264
0.0141083
0.0140919
0.014077
0.0140637
0.0140519
0.0140416
0.0140328
0.0140255
0.0140196
0.0140152
0.0140122
0.0140108
0.0140108
0.0140123
0.0140153
0.01402
0.0140264
0.0140344
0.0140445
0.0140572
0.0140681
0.0171798
0.0171788
0.0171771
0.0171749
0.017172
0.0171687
0.0171648
0.0171604
0.0171556
0.0171504
0.0171448
0.0171389
0.0171325
0.0171259
0.0171189
0.0171116
0.0171039
0.017096
0.0170878
0.0170793
0.0170705
0.0170614
0.017052
0.0170424
0.0170325
0.0170223
0.0170118
0.017001
0.01699
0.0169787
0.0169671
0.0169553
0.0169432
0.0169308
0.0169181
0.0169052
0.0168921
0.0168786
0.016865
0.0168511
0.016837
0.0168226
0.016808
0.0167933
0.0167783
0.0167631
0.0167478
0.0167323
0.0167166
0.0167008
0.0166849
0.0166689
0.0166527
0.0166365
0.0166202
0.0166039
0.0165875
0.0165712
0.0165548
0.0165385
0.0165223
0.0165061
0.0164901
0.0164743
0.0164586
0.0164432
0.016428
0.0164131
0.0163985
0.0163843
0.0163705
0.0163572
0.0163444
0.0163321
0.0163204
0.0163094
0.016299
0.0162893
0.0162804
0.0162723
0.0162651
0.0162587
0.0162533
0.0162488
0.0162453
0.0162427
0.0162412
0.0162407
0.0162413
0.0162429
0.0162456
0.0162493
0.0162539
0.0162596
0.0162663
0.0162738
0.0162822
0.0162914
0.0163013
0.0163119
0.0163231
0.0163348
0.0163468
0.0163591
0.0163716
0.016384
0.0163964
0.0164086
0.0164204
0.0164317
0.0164423
0.0164521
0.0164609
0.0164686
0.016475
0.0164801
0.0164835
0.0164853
0.0164852
0.0164831
0.016479
0.0164726
0.016464
0.0164529
0.0164394
0.0164233
0.0164047
0.0163834
0.0163594
0.0163328
0.0163036
0.0162717
0.0162372
0.0162002
0.0161607
0.0161189
0.0160748
0.0160285
0.0159801
0.0159299
0.0158779
0.0158243
0.0157692
0.015713
0.0156556
0.0155973
0.0155383
0.0154788
0.015419
0.015359
0.015299
0.0152392
0.0151798
0.015121
0.0150628
0.0150055
0.0149492
0.014894
0.0148401
0.0147875
0.0147364
0.0146868
0.0146388
0.0145925
0.014548
0.0145052
0.0144643
0.0144252
0.0143879
0.0143525
0.014319
0.0142873
0.0142575
0.0142295
0.0142033
0.0141788
0.0141561
0.0141351
0.0141158
0.014098
0.0140819
0.0140674
0.0140543
0.0140428
0.0140328
0.0140242
0.014017
0.0140113
0.0140071
0.0140042
0.0140029
0.014003
0.0140046
0.0140078
0.0140127
0.0140192
0.0140275
0.0140379
0.014051
0.0140622
0.0171898
0.0171883
0.017186
0.0171832
0.01718
0.0171762
0.017172
0.0171674
0.0171624
0.017157
0.0171513
0.0171452
0.0171388
0.017132
0.017125
0.0171177
0.0171101
0.0171022
0.0170941
0.0170857
0.0170769
0.017068
0.0170587
0.0170492
0.0170394
0.0170293
0.017019
0.0170083
0.0169974
0.0169863
0.0169748
0.0169631
0.0169511
0.0169388
0.0169262
0.0169134
0.0169003
0.016887
0.0168734
0.0168595
0.0168454
0.0168311
0.0168165
0.0168017
0.0167867
0.0167715
0.0167561
0.0167405
0.0167248
0.0167088
0.0166927
0.0166765
0.0166601
0.0166437
0.0166271
0.0166105
0.0165938
0.016577
0.0165603
0.0165435
0.0165268
0.0165101
0.0164935
0.0164771
0.0164608
0.0164446
0.0164287
0.0164131
0.0163977
0.0163827
0.0163681
0.0163539
0.0163402
0.0163269
0.0163143
0.0163022
0.0162909
0.0162802
0.0162702
0.0162611
0.0162528
0.0162453
0.0162388
0.0162333
0.0162287
0.0162251
0.0162226
0.0162211
0.0162206
0.0162213
0.016223
0.0162257
0.0162296
0.0162344
0.0162402
0.016247
0.0162547
0.0162633
0.0162726
0.0162826
0.0162933
0.0163045
0.0163161
0.0163281
0.0163403
0.0163525
0.0163648
0.0163768
0.0163886
0.0163998
0.0164105
0.0164204
0.0164293
0.0164372
0.0164439
0.0164492
0.0164529
0.016455
0.0164553
0.0164536
0.0164499
0.016444
0.0164358
0.0164251
0.0164121
0.0163965
0.0163783
0.0163574
0.0163339
0.0163077
0.0162789
0.0162474
0.0162133
0.0161766
0.0161375
0.0160959
0.0160521
0.016006
0.0159579
0.0159079
0.0158561
0.0158026
0.0157478
0.0156916
0.0156343
0.0155762
0.0155173
0.0154578
0.0153981
0.0153381
0.0152782
0.0152185
0.0151592
0.0151005
0.0150424
0.0149852
0.0149291
0.0148741
0.0148203
0.0147679
0.014717
0.0146677
0.01462
0.014574
0.0145298
0.0144874
0.0144468
0.014408
0.0143712