/*--------------------------------*- C++ -*----------------------------------*\
  =========                 |
  \\      /  F ield         | OpenFOAM: The Open Source CFD Toolbox
   \\    /   O peration     | Website:  https://openfoam.org
    \\  /    A nd           | Version:  6
     \\/     M anipulation  |
\*---------------------------------------------------------------------------*/
FoamFile
{
    version     2.0;
    format      ascii;
    class       volVectorField;
    location    "0";
    object      U;
}
// * * * * * * * * * * * * * * * * * * * * * * * * * * * * * * * * * * * * * //

dimensions      [0 1 -1 0 0 0 0];

internalField   nonuniform List<vector> 
40000
(
(-5.72738e-08 5.71428e-08 0)
(1.37343e-06 -5.85451e-07 0)
(4.91904e-06 -1.22241e-06 0)
(1.02808e-05 -1.62811e-06 0)
(1.67434e-05 -1.84273e-06 0)
(2.37129e-05 -1.91017e-06 0)
(3.07254e-05 -1.86868e-06 0)
(3.7428e-05 -1.74944e-06 0)
(4.35622e-05 -1.57612e-06 0)
(4.89449e-05 -1.36633e-06 0)
(5.34512e-05 -1.13328e-06 0)
(5.70018e-05 -8.86924e-07 0)
(5.95513e-05 -6.34761e-07 0)
(6.10806e-05 -3.82289e-07 0)
(6.15903e-05 -1.33453e-07 0)
(6.10949e-05 1.09003e-07 0)
(5.96191e-05 3.43257e-07 0)
(5.71942e-05 5.68216e-07 0)
(5.3855e-05 7.83389e-07 0)
(4.9638e-05 9.88767e-07 0)
(4.45796e-05 1.18472e-06 0)
(3.87145e-05 1.37192e-06 0)
(3.20746e-05 1.55121e-06 0)
(2.46886e-05 1.72363e-06 0)
(1.6581e-05 1.89027e-06 0)
(7.77199e-06 2.05231e-06 0)
(-1.72275e-06 2.21094e-06 0)
(-1.18922e-05 2.36735e-06 0)
(-2.27301e-05 2.52267e-06 0)
(-3.42341e-05 2.678e-06 0)
(-4.64066e-05 2.83434e-06 0)
(-5.92534e-05 2.99262e-06 0)
(-7.2784e-05 3.15367e-06 0)
(-8.7011e-05 3.31822e-06 0)
(-0.00010195 3.48689e-06 0)
(-0.000117618 3.6602e-06 0)
(-0.000134034 3.83856e-06 0)
(-0.00015122 4.02226e-06 0)
(-0.000169198 4.21151e-06 0)
(-0.000187989 4.40641e-06 0)
(-0.000207616 4.60697e-06 0)
(-0.000228103 4.81311e-06 0)
(-0.00024947 5.02467e-06 0)
(-0.000271738 5.2414e-06 0)
(-0.000294929 5.463e-06 0)
(-0.000319059 5.68909e-06 0)
(-0.000344145 5.91923e-06 0)
(-0.000370203 6.15292e-06 0)
(-0.000397244 6.38962e-06 0)
(-0.000425279 6.62874e-06 0)
(-0.000454315 6.86962e-06 0)
(-0.000484356 7.11159e-06 0)
(-0.000515403 7.35391e-06 0)
(-0.000547456 7.59581e-06 0)
(-0.000580508 7.83649e-06 0)
(-0.000614552 8.07509e-06 0)
(-0.000649574 8.31073e-06 0)
(-0.000685559 8.54247e-06 0)
(-0.000722486 8.76935e-06 0)
(-0.000760331 8.99035e-06 0)
(-0.000799065 9.20443e-06 0)
(-0.000838654 9.41049e-06 0)
(-0.00087906 9.60741e-06 0)
(-0.000920241 9.794e-06 0)
(-0.000962148 9.96907e-06 0)
(-0.00100473 1.01314e-05 0)
(-0.00104792 1.02796e-05 0)
(-0.00109167 1.04124e-05 0)
(-0.0011359 1.05286e-05 0)
(-0.00118054 1.06267e-05 0)
(-0.0012255 1.07053e-05 0)
(-0.00127071 1.07631e-05 0)
(-0.00131606 1.07986e-05 0)
(-0.00136147 1.08105e-05 0)
(-0.00140682 1.07973e-05 0)
(-0.00145201 1.07577e-05 0)
(-0.00149693 1.06904e-05 0)
(-0.00154146 1.0594e-05 0)
(-0.00158547 1.04672e-05 0)
(-0.00162883 1.0309e-05 0)
(-0.00167141 1.0118e-05 0)
(-0.00171306 9.89335e-06 0)
(-0.00175366 9.63399e-06 0)
(-0.00179305 9.33908e-06 0)
(-0.00183108 9.00788e-06 0)
(-0.00186761 8.63978e-06 0)
(-0.00190247 8.23431e-06 0)
(-0.00193552 7.79114e-06 0)
(-0.0019666 7.31012e-06 0)
(-0.00199556 6.79125e-06 0)
(-0.00202224 6.23474e-06 0)
(-0.00204649 5.64096e-06 0)
(-0.00206816 5.01053e-06 0)
(-0.0020871 4.34423e-06 0)
(-0.00210317 3.64309e-06 0)
(-0.00211623 2.90833e-06 0)
(-0.00212615 2.14143e-06 0)
(-0.00213281 1.34407e-06 0)
(-0.00213608 5.18181e-07 0)
(-0.00213586 -3.34099e-07 0)
(-0.00213205 -1.21039e-06 0)
(-0.00212455 -2.1081e-06 0)
(-0.0021133 -3.0244e-06 0)
(-0.00209822 -3.95628e-06 0)
(-0.00207926 -4.90052e-06 0)
(-0.00205638 -5.8537e-06 0)
(-0.00202956 -6.81225e-06 0)
(-0.00199879 -7.77241e-06 0)
(-0.00196406 -8.73031e-06 0)
(-0.00192541 -9.68195e-06 0)
(-0.00188286 -1.06232e-05 0)
(-0.00183648 -1.155e-05 0)
(-0.00178633 -1.24579e-05 0)
(-0.00173251 -1.33429e-05 0)
(-0.00167511 -1.42006e-05 0)
(-0.00161426 -1.50267e-05 0)
(-0.0015501 -1.58173e-05 0)
(-0.00148278 -1.65681e-05 0)
(-0.00141247 -1.72753e-05 0)
(-0.00133937 -1.79351e-05 0)
(-0.00126366 -1.85438e-05 0)
(-0.00118558 -1.90981e-05 0)
(-0.00110534 -1.95947e-05 0)
(-0.00102319 -2.00309e-05 0)
(-0.000939372 -2.04041e-05 0)
(-0.000854156 -2.07119e-05 0)
(-0.000767807 -2.09524e-05 0)
(-0.000680603 -2.11241e-05 0)
(-0.000592824 -2.12258e-05 0)
(-0.000504756 -2.12567e-05 0)
(-0.000416689 -2.12164e-05 0)
(-0.000328909 -2.1105e-05 0)
(-0.000241705 -2.09228e-05 0)
(-0.000155364 -2.06708e-05 0)
(-7.01652e-05 -2.03501e-05 0)
(1.36147e-05 -1.99625e-05 0)
(9.57076e-05 -1.951e-05 0)
(0.000175854 -1.8995e-05 0)
(0.000253805 -1.84203e-05 0)
(0.000329322 -1.77891e-05 0)
(0.000402182 -1.71048e-05 0)
(0.000472173 -1.63711e-05 0)
(0.000539101 -1.55919e-05 0)
(0.000602786 -1.47715e-05 0)
(0.000663067 -1.39142e-05 0)
(0.000719799 -1.30245e-05 0)
(0.000772856 -1.2107e-05 0)
(0.00082213 -1.11664e-05 0)
(0.000867532 -1.02075e-05 0)
(0.000908992 -9.23484e-06 0)
(0.00094646 -8.25321e-06 0)
(0.000979902 -7.26716e-06 0)
(0.0010093 -6.28115e-06 0)
(0.00103467 -5.29949e-06 0)
(0.00105602 -4.32633e-06 0)
(0.00107339 -3.36558e-06 0)
(0.00108684 -2.42096e-06 0)
(0.00109643 -1.4959e-06 0)
(0.00110224 -5.93579e-07 0)
(0.00110437 2.83111e-07 0)
(0.00110292 1.13158e-06 0)
(0.001098 1.94954e-06 0)
(0.00108975 2.73501e-06 0)
(0.00107829 3.48631e-06 0)
(0.00106377 4.20206e-06 0)
(0.00104632 4.88116e-06 0)
(0.0010261 5.52279e-06 0)
(0.00100326 6.12639e-06 0)
(0.000977958 6.6916e-06 0)
(0.000950346 7.2183e-06 0)
(0.000920583 7.70649e-06 0)
(0.000888829 8.15632e-06 0)
(0.000855241 8.56802e-06 0)
(0.000819977 8.94182e-06 0)
(0.000783195 9.27795e-06 0)
(0.000745053 9.57651e-06 0)
(0.00070571 9.83746e-06 0)
(0.000665325 1.00605e-05 0)
(0.000624061 1.0245e-05 0)
(0.000582085 1.03899e-05 0)
(0.000539567 1.04936e-05 0)
(0.00049669 1.05539e-05 0)
(0.000453645 1.05678e-05 0)
(0.000410636 1.05313e-05 0)
(0.000367888 1.04397e-05 0)
(0.000325643 1.02867e-05 0)
(0.000284174 1.0065e-05 0)
(0.000243782 9.76556e-06 0)
(0.000204805 9.37786e-06 0)
(0.000167624 8.88957e-06 0)
(0.000132665 8.28661e-06 0)
(0.000100407 7.55336e-06 0)
(7.13779e-05 6.67328e-06 0)
(4.6154e-05 5.63049e-06 0)
(2.53402e-05 4.41371e-06 0)
(9.52797e-06 3.02544e-06 0)
(-7.8928e-07 1.49884e-06 0)
(-5.42518e-06 -7.21887e-08 0)
(-5.07839e-06 -1.3858e-06 0)
(-1.621e-06 -1.62083e-06 0)
(5.87326e-07 -1.37568e-06 0)
(5.76298e-06 -5.7521e-06 0)
(1.53094e-05 -9.81536e-06 0)
(2.85518e-05 -1.26346e-05 0)
(4.40341e-05 -1.41947e-05 0)
(6.05202e-05 -1.46909e-05 0)
(7.69744e-05 -1.43457e-05 0)
(9.25611e-05 -1.33619e-05 0)
(0.000106636 -1.19091e-05 0)
(0.000118719 -1.01234e-05 0)
(0.000128467 -8.11232e-06 0)
(0.000135647 -5.96008e-06 0)
(0.000140115 -3.73183e-06 0)
(0.000141795 -1.47725e-06 0)
(0.000140666 7.66564e-07 0)
(0.000136745 2.97272e-06 0)
(0.00013008 5.12259e-06 0)
(0.000120737 7.20428e-06 0)
(0.000108797 9.21133e-06 0)
(9.43456e-05 1.11417e-05 0)
(7.74701e-05 1.29969e-05 0)
(5.82555e-05 1.47811e-05 0)
(3.67813e-05 1.65006e-05 0)
(1.3119e-05 1.81633e-05 0)
(-1.26697e-05 1.97781e-05 0)
(-4.05338e-05 2.13545e-05 0)
(-7.04339e-05 2.29025e-05 0)
(-0.000102342 2.4432e-05 0)
(-0.000136244 2.59525e-05 0)
(-0.000172133 2.74736e-05 0)
(-0.000210017 2.90037e-05 0)
(-0.000249913 3.05511e-05 0)
(-0.000291847 3.21228e-05 0)
(-0.000335852 3.37253e-05 0)
(-0.00038197 3.53639e-05 0)
(-0.00043025 3.70432e-05 0)
(-0.000480742 3.87668e-05 0)
(-0.000533504 4.05371e-05 0)
(-0.000588594 4.2356e-05 0)
(-0.000646072 4.42243e-05 0)
(-0.000706 4.61418e-05 0)
(-0.000768435 4.81077e-05 0)
(-0.000833437 5.01204e-05 0)
(-0.000901062 5.21776e-05 0)
(-0.00097136 5.4276e-05 0)
(-0.00104438 5.64122e-05 0)
(-0.00112016 5.85818e-05 0)
(-0.00119874 6.07801e-05 0)
(-0.00128016 6.30016e-05 0)
(-0.00136442 6.52407e-05 0)
(-0.00145155 6.7491e-05 0)
(-0.00154155 6.97459e-05 0)
(-0.00163442 7.19983e-05 0)
(-0.00173015 7.42407e-05 0)
(-0.00182871 7.64652e-05 0)
(-0.00193008 7.86636e-05 0)
(-0.0020342 8.08273e-05 0)
(-0.00214103 8.29473e-05 0)
(-0.00225049 8.50142e-05 0)
(-0.0023625 8.70183e-05 0)
(-0.00247698 8.89496e-05 0)
(-0.00259382 9.07977e-05 0)
(-0.00271289 9.25518e-05 0)
(-0.00283407 9.42009e-05 0)
(-0.00295721 9.57335e-05 0)
(-0.00308214 9.71381e-05 0)
(-0.00320869 9.84026e-05 0)
(-0.00333666 9.9515e-05 0)
(-0.00346585 0.000100463 0)
(-0.00359603 0.000101234 0)
(-0.00372697 0.000101815 0)
(-0.0038584 0.000102194 0)
(-0.00399006 0.000102359 0)
(-0.00412166 0.000102296 0)
(-0.0042529 0.000101993 0)
(-0.00438346 0.000101439 0)
(-0.004513 0.000100621 0)
(-0.00464119 9.95287e-05 0)
(-0.00476767 9.81507e-05 0)
(-0.00489205 9.64769e-05 0)
(-0.00501396 9.44979e-05 0)
(-0.00513301 9.22049e-05 0)
(-0.00524878 8.95902e-05 0)
(-0.00536087 8.66471e-05 0)
(-0.00546886 8.33698e-05 0)
(-0.00557233 7.97541e-05 0)
(-0.00567083 7.57968e-05 0)
(-0.00576396 7.14963e-05 0)
(-0.00585126 6.68523e-05 0)
(-0.00593232 6.18662e-05 0)
(-0.00600671 5.65413e-05 0)
(-0.00607401 5.08822e-05 0)
(-0.00613381 4.48957e-05 0)
(-0.0061857 3.85903e-05 0)
(-0.00622931 3.19762e-05 0)
(-0.00626425 2.50661e-05 0)
(-0.00629018 1.7874e-05 0)
(-0.00630675 1.04165e-05 0)
(-0.00631365 2.71171e-06 0)
(-0.00631061 -5.22002e-06 0)
(-0.00629735 -1.33565e-05 0)
(-0.00627364 -2.16737e-05 0)
(-0.00623928 -3.01456e-05 0)
(-0.00619412 -3.87447e-05 0)
(-0.00613801 -4.74415e-05 0)
(-0.00607086 -5.62053e-05 0)
(-0.00599263 -6.50038e-05 0)
(-0.00590329 -7.38033e-05 0)
(-0.00580289 -8.25694e-05 0)
(-0.00569149 -9.12663e-05 0)
(-0.00556921 -9.98577e-05 0)
(-0.00543621 -0.000108307 0)
(-0.00529271 -0.000116576 0)
(-0.00513895 -0.000124628 0)
(-0.00497525 -0.000132426 0)
(-0.00480194 -0.000139933 0)
(-0.00461942 -0.000147112 0)
(-0.00442811 -0.000153929 0)
(-0.00422851 -0.000160348 0)
(-0.00402112 -0.000166338 0)
(-0.00380651 -0.000171866 0)
(-0.00358526 -0.000176903 0)
(-0.00335801 -0.000181423 0)
(-0.00312542 -0.000185399 0)
(-0.00288817 -0.00018881 0)
(-0.00264699 -0.000191636 0)
(-0.00240261 -0.000193861 0)
(-0.00215578 -0.00019547 0)
(-0.00190727 -0.000196453 0)
(-0.00165788 -0.000196804 0)
(-0.00140838 -0.000196519 0)
(-0.00115956 -0.000195598 0)
(-0.000912213 -0.000194044 0)
(-0.000667121 -0.000191864 0)
(-0.000425056 -0.000189069 0)
(-0.000186772 -0.000185674 0)
(4.69907e-05 -0.000181695 0)
(0.000275519 -0.000177154 0)
(0.000498123 -0.000172073 0)
(0.000714147 -0.00016648 0)
(0.000922964 -0.000160404 0)
(0.00112399 -0.000153877 0)
(0.00131668 -0.000146933 0)
(0.00150052 -0.000139607 0)
(0.00167505 -0.000131939 0)
(0.00183987 -0.000123967 0)
(0.00199461 -0.00011573 0)
(0.00213895 -0.00010727 0)
(0.00227262 -9.86278e-05 0)
(0.00239542 -8.9845e-05 0)
(0.00250718 -8.09626e-05 0)
(0.00260778 -7.2021e-05 0)
(0.00269716 -6.30599e-05 0)
(0.00277531 -5.41179e-05 0)
(0.00284225 -4.5232e-05 0)
(0.00289806 -3.64379e-05 0)
(0.00294287 -2.77691e-05 0)
(0.00297683 -1.92572e-05 0)
(0.00300014 -1.09315e-05 0)
(0.00301304 -2.81907e-06 0)
(0.0030158 5.05561e-06 0)
(0.00300871 1.26705e-05 0)
(0.00299211 2.00063e-05 0)
(0.00296633 2.7046e-05 0)
(0.00293175 3.37754e-05 0)
(0.00288876 4.01825e-05 0)
(0.00283776 4.62578e-05 0)
(0.00277917 5.19937e-05 0)
(0.00271341 5.73849e-05 0)
(0.00264091 6.24275e-05 0)
(0.00256211 6.71191e-05 0)
(0.00247745 7.14583e-05 0)
(0.00238739 7.54444e-05 0)
(0.00229236 7.9077e-05 0)
(0.00219282 8.23552e-05 0)
(0.00208923 8.52773e-05 0)
(0.00198204 8.78404e-05 0)
(0.00187172 9.00392e-05 0)
(0.00175875 9.18659e-05 0)
(0.00164361 9.33088e-05 0)
(0.00152681 9.43521e-05 0)
(0.00140889 9.49747e-05 0)
(0.00129039 9.51493e-05 0)
(0.00117193 9.48416e-05 0)
(0.00105415 9.40094e-05 0)
(0.000937745 9.26018e-05 0)
(0.000823479 9.05581e-05 0)
(0.000712194 8.78079e-05 0)
(0.000604815 8.42706e-05 0)
(0.000502357 7.98564e-05 0)
(0.000405937 7.44684e-05 0)
(0.000316767 6.8008e-05 0)
(0.000236148 6.03847e-05 0)
(0.000165436 5.15355e-05 0)
(0.000105982 4.14622e-05 0)
(5.90188e-05 3.03042e-05 0)
(2.5443e-05 1.84752e-05 0)
(5.42441e-06 6.91485e-06 0)
(-2.36625e-06 -2.37081e-06 0)
(-1.38726e-06 -5.07886e-06 0)
(1.23114e-06 -4.93904e-06 0)
(9.86849e-06 -1.53152e-05 0)
(2.41468e-05 -2.40721e-05 0)
(4.29935e-05 -3.00914e-05 0)
(6.44458e-05 -3.33787e-05 0)
(8.69197e-05 -3.42905e-05 0)
(0.000109053 -3.32624e-05 0)
(0.000129706 -3.07153e-05 0)
(0.000147971 -2.70188e-05 0)
(0.000163149 -2.24829e-05 0)
(0.000174724 -1.7361e-05 0)
(0.000182332 -1.18566e-05 0)
(0.000185735 -6.13074e-06 0)
(0.000184799 -3.08976e-07 0)
(0.000179467 5.51315e-06 0)
(0.000169746 1.12649e-05 0)
(0.000155687 1.68961e-05 0)
(0.000137374 2.23738e-05 0)
(0.000114912 2.76786e-05 0)
(8.84198e-05 3.28029e-05 0)
(5.80171e-05 3.7748e-05 0)
(2.38238e-05 4.25225e-05 0)
(-1.40477e-05 4.71407e-05 0)
(-5.54957e-05 5.16209e-05 0)
(-0.000100432 5.59844e-05 0)
(-0.000148784 6.02547e-05 0)
(-0.000200495 6.44559e-05 0)
(-0.000255527 6.86126e-05 0)
(-0.000313858 7.27488e-05 0)
(-0.000375485 7.68879e-05 0)
(-0.00044042 8.10516e-05 0)
(-0.000508689 8.52602e-05 0)
(-0.000580334 8.95317e-05 0)
(-0.000655408 9.38822e-05 0)
(-0.000733977 9.83255e-05 0)
(-0.000816113 0.000102873 0)
(-0.000901898 0.000107533 0)
(-0.000991417 0.000112313 0)
(-0.00108476 0.000117216 0)
(-0.00118202 0.000122245 0)
(-0.00128329 0.000127398 0)
(-0.00138866 0.000132674 0)
(-0.00149822 0.000138068 0)
(-0.00161205 0.000143573 0)
(-0.00173022 0.000149181 0)
(-0.00185281 0.000154881 0)
(-0.00197988 0.000160663 0)
(-0.00211148 0.000166513 0)
(-0.00224765 0.000172416 0)
(-0.00238841 0.000178358 0)
(-0.00253378 0.000184321 0)
(-0.00268377 0.000190286 0)
(-0.00283836 0.000196235 0)
(-0.00299751 0.000202147 0)
(-0.00316119 0.000208001 0)
(-0.00332933 0.000213775 0)
(-0.00350184 0.000219445 0)
(-0.00367863 0.000224986 0)
(-0.00385958 0.000230375 0)
(-0.00404454 0.000235584 0)
(-0.00423335 0.000240587 0)
(-0.00442584 0.000245356 0)
(-0.0046218 0.000249861 0)
(-0.00482099 0.000254074 0)
(-0.00502317 0.000257965 0)
(-0.00522806 0.000261501 0)
(-0.00543537 0.000264653 0)
(-0.00564477 0.000267387 0)
(-0.00585591 0.000269672 0)
(-0.00606843 0.000271475 0)
(-0.00628191 0.000272762 0)
(-0.00649595 0.000273503 0)
(-0.00671009 0.000273663 0)
(-0.00692387 0.000273211 0)
(-0.00713678 0.000272115 0)
(-0.00734832 0.000270345 0)
(-0.00755794 0.000267871 0)
(-0.00776508 0.000264664 0)
(-0.00796916 0.000260697 0)
(-0.00816958 0.000255946 0)
(-0.00836573 0.000250386 0)
(-0.00855697 0.000243998 0)
(-0.00874266 0.000236761 0)
(-0.00892214 0.000228661 0)
(-0.00909474 0.000219685 0)
(-0.0092598 0.000209824 0)
(-0.00941664 0.000199071 0)
(-0.00956458 0.000187423 0)
(-0.00970294 0.000174884 0)
(-0.00983105 0.000161459 0)
(-0.00994825 0.000147157 0)
(-0.0100539 0.000131995 0)
(-0.0101473 0.00011599 0)
(-0.010228 9.91676e-05 0)
(-0.0102952 8.15565e-05 0)
(-0.0103484 6.31907e-05 0)
(-0.0103871 4.41093e-05 0)
(-0.0104108 2.43563e-05 0)
(-0.010419 3.98058e-06 0)
(-0.0104113 -1.69639e-05 0)
(-0.0103872 -3.84185e-05 0)
(-0.0103465 -6.03198e-05 0)
(-0.0102888 -8.25998e-05 0)
(-0.0102139 -0.000105187 0)
(-0.0101216 -0.000128004 0)
(-0.0100119 -0.000150971 0)
(-0.00988458 -0.000174006 0)
(-0.00973972 -0.000197021 0)
(-0.00957737 -0.000219928 0)
(-0.00939767 -0.000242636 0)
(-0.00920082 -0.00026505 0)
(-0.00898709 -0.000287078 0)
(-0.00875683 -0.000308625 0)
(-0.00851045 -0.000329594 0)
(-0.00824843 -0.000349892 0)
(-0.00797132 -0.000369426 0)
(-0.00767974 -0.000388103 0)
(-0.00737437 -0.000405834 0)
(-0.00705596 -0.000422533 0)
(-0.00672533 -0.000438116 0)
(-0.00638334 -0.000452504 0)
(-0.00603092 -0.000465624 0)
(-0.00566905 -0.000477407 0)
(-0.00529874 -0.000487789 0)
(-0.00492108 -0.000496714 0)
(-0.00453717 -0.000504133 0)
(-0.00414815 -0.000510004 0)
(-0.00375519 -0.000514292 0)
(-0.00335947 -0.000516971 0)
(-0.00296222 -0.000518023 0)
(-0.00256463 -0.000517439 0)
(-0.00216795 -0.000515217 0)
(-0.00177338 -0.000511368 0)
(-0.00138214 -0.000505907 0)
(-0.000995429 -0.000498861 0)
(-0.000614412 -0.000490265 0)
(-0.000240241 -0.000480161 0)
(0.000125971 -0.0004686 0)
(0.00048315 -0.000455643 0)
(0.000830266 -0.000441355 0)
(0.00116634 -0.00042581 0)
(0.00149045 -0.000409087 0)
(0.00180173 -0.000391272 0)
(0.00209937 -0.000372455 0)
(0.00238265 -0.000352732 0)
(0.0026509 -0.000332199 0)
(0.00290352 -0.000310959 0)
(0.00314001 -0.000289115 0)
(0.00335992 -0.000266771 0)
(0.00356288 -0.000244033 0)
(0.00374861 -0.000221004 0)
(0.0039169 -0.000197789 0)
(0.00406762 -0.00017449 0)
(0.0042007 -0.000151204 0)
(0.00431617 -0.000128029 0)
(0.0044141 -0.000105056 0)
(0.00449465 -8.23731e-05 0)
(0.00455804 -6.00622e-05 0)
(0.00460454 -3.82008e-05 0)
(0.00463449 -1.68604e-05 0)
(0.00464828 3.89367e-06 0)
(0.00464634 2.40021e-05 0)
(0.00462916 4.3412e-05 0)
(0.00459726 6.20768e-05 0)
(0.0045512 7.99563e-05 0)
(0.00449156 9.70162e-05 0)
(0.00441896 0.000113228 0)
(0.00433404 0.000128569 0)
(0.00423746 0.00014302 0)
(0.00412989 0.000156568 0)
(0.00401201 0.000169202 0)
(0.00388452 0.000180915 0)
(0.00374812 0.0001917 0)
(0.00360354 0.000201551 0)
(0.00345149 0.000210462 0)
(0.00329271 0.000218426 0)
(0.00312793 0.000225429 0)
(0.00295791 0.000231456 0)
(0.00278343 0.000236482 0)
(0.00260528 0.000240476 0)
(0.0024243 0.000243394 0)
(0.00224133 0.000245181 0)
(0.0020573 0.000245767 0)
(0.00187318 0.000245067 0)
(0.00168999 0.000242975 0)
(0.00150885 0.00023937 0)
(0.00133097 0.000234106 0)
(0.00115764 0.000227019 0)
(0.000990295 0.000217925 0)
(0.000830464 0.000206627 0)
(0.000679799 0.000192921 0)
(0.000540063 0.000176612 0)
(0.000413093 0.000157543 0)
(0.000300756 0.000135645 0)
(0.000204846 0.000111019 0)
(0.000126927 8.40921e-05 0)
(6.80705e-05 5.58689e-05 0)
(2.84678e-05 2.83659e-05 0)
(6.97331e-06 5.4406e-06 0)
(-6.85619e-08 -5.41465e-06 0)
(1.64878e-06 -1.03484e-05 0)
(1.27539e-05 -2.86241e-05 0)
(3.02883e-05 -4.29473e-05 0)
(5.27503e-05 -5.25282e-05 0)
(7.7724e-05 -5.75544e-05 0)
(0.000103376 -5.8594e-05 0)
(0.000128142 -5.63247e-05 0)
(0.000150695 -5.14136e-05 0)
(0.00016996 -4.44639e-05 0)
(0.000185089 -3.59955e-05 0)
(0.000195445 -2.64437e-05 0)
(0.000200565 -1.61655e-05 0)
(0.000200138 -5.44848e-06 0)
(0.000193974 5.48014e-06 0)
(0.000181985 1.64446e-05 0)
(0.000164158 2.73127e-05 0)
(0.000140541 3.79894e-05 0)
(0.000111224 4.84104e-05 0)
(7.63239e-05 5.8537e-05 0)
(3.59772e-05 6.83515e-05 0)
(-9.67448e-06 7.78534e-05 0)
(-6.04899e-05 8.70558e-05 0)
(-0.000116335 9.59826e-05 0)
(-0.000177088 0.000104666 0)
(-0.000242645 0.000113142 0)
(-0.000312917 0.000121454 0)
(-0.000387841 0.000129645 0)
(-0.00046737 0.000137759 0)
(-0.000551484 0.00014584 0)
(-0.000640179 0.000153931 0)
(-0.000733477 0.00016207 0)
(-0.000831415 0.000170295 0)
(-0.00093405 0.000178639 0)
(-0.00104145 0.000187131 0)
(-0.00115371 0.000195797 0)
(-0.00127092 0.000204656 0)
(-0.00139318 0.000213726 0)
(-0.00152062 0.000223018 0)
(-0.00165334 0.000232539 0)
(-0.00179147 0.000242291 0)
(-0.00193512 0.000252274 0)
(-0.00208441 0.000262482 0)
(-0.00223945 0.000272905 0)
(-0.00240036 0.000283531 0)
(-0.00256721 0.000294342 0)
(-0.00274011 0.00030532 0)
(-0.00291911 0.000316441 0)
(-0.00310429 0.000327681 0)
(-0.00329569 0.000339009 0)
(-0.00349333 0.000350397 0)
(-0.00369722 0.00036181 0)
(-0.00390735 0.000373213 0)
(-0.0041237 0.000384568 0)
(-0.0043462 0.000395836 0)
(-0.00457479 0.000406975 0)
(-0.00480935 0.000417942 0)
(-0.00504978 0.000428691 0)
(-0.0052959 0.000439174 0)
(-0.00554756 0.000449344 0)
(-0.00580453 0.000459149 0)
(-0.00606659 0.000468537 0)
(-0.00633347 0.000477454 0)
(-0.00660487 0.000485844 0)
(-0.00688046 0.000493652 0)
(-0.0071599 0.000500819 0)
(-0.00744279 0.000507286 0)
(-0.00772871 0.000512993 0)
(-0.00801721 0.000517879 0)
(-0.00830778 0.000521883 0)
(-0.00859993 0.000524943 0)
(-0.00889308 0.000526997 0)
(-0.00918666 0.000527985 0)
(-0.00948005 0.000527845 0)
(-0.00977259 0.000526518 0)
(-0.0100636 0.000523945 0)
(-0.0103524 0.000520069 0)
(-0.0106382 0.000514836 0)
(-0.0109203 0.000508195 0)
(-0.0111978 0.000500095 0)
(-0.0114701 0.000490492 0)
(-0.0117361 0.000479345 0)
(-0.0119951 0.000466616 0)
(-0.0122462 0.000452273 0)
(-0.0124886 0.00043629 0)
(-0.0127213 0.000418646 0)
(-0.0129434 0.000399327 0)
(-0.0131541 0.000378324 0)
(-0.0133524 0.000355636 0)
(-0.0135375 0.000331272 0)
(-0.0137085 0.000305244 0)
(-0.0138644 0.000277577 0)
(-0.0140045 0.000248301 0)
(-0.0141279 0.000217456 0)
(-0.0142339 0.000185091 0)
(-0.0143215 0.000151265 0)
(-0.0143902 0.000116043 0)
(-0.0144392 7.95024e-05 0)
(-0.0144679 4.17284e-05 0)
(-0.0144757 2.81528e-06 0)
(-0.0144619 -3.71337e-05 0)
(-0.0144262 -7.80064e-05 0)
(-0.0143682 -0.000119683 0)
(-0.0142874 -0.000162034 0)
(-0.0141835 -0.000204924 0)
(-0.0140564 -0.000248209 0)
(-0.013906 -0.00029174 0)
(-0.0137321 -0.000335361 0)
(-0.0135348 -0.00037891 0)
(-0.0133143 -0.000422221 0)
(-0.0130707 -0.000465126 0)
(-0.0128043 -0.000507451 0)
(-0.0125155 -0.000549023 0)
(-0.0122047 -0.000589667 0)
(-0.0118726 -0.000629206 0)
(-0.0115197 -0.000667466 0)
(-0.0111469 -0.000704277 0)
(-0.0107548 -0.000739468 0)
(-0.0103445 -0.000772877 0)
(-0.00991697 -0.000804343 0)
(-0.00947319 -0.000833714 0)
(-0.00901434 -0.000860847 0)
(-0.00854164 -0.000885605 0)
(-0.00805637 -0.000907862 0)
(-0.00755986 -0.000927503 0)
(-0.00705352 -0.000944425 0)
(-0.00653878 -0.000958536 0)
(-0.00601714 -0.000969759 0)
(-0.00549011 -0.000978032 0)
(-0.00495925 -0.000983305 0)
(-0.00442614 -0.000985544 0)
(-0.00389236 -0.000984733 0)
(-0.0033595 -0.000980868 0)
(-0.00282916 -0.000973965 0)
(-0.00230292 -0.000964054 0)
(-0.00178233 -0.00095118 0)
(-0.00126894 -0.000935407 0)
(-0.000764248 -0.000916811 0)
(-0.00026972 -0.000895485 0)
(0.00021323 -0.000871536 0)
(0.000683246 -0.000845084 0)
(0.00113903 -0.000816261 0)
(0.00157936 -0.000785214 0)
(0.00200307 -0.000752096 0)
(0.00240911 -0.000717074 0)
(0.00279647 -0.000680319 0)
(0.00316426 -0.000642012 0)
(0.00351167 -0.000602339 0)
(0.00383799 -0.000561488 0)
(0.0041426 -0.000519654 0)
(0.00442499 -0.000477028 0)
(0.00468473 -0.000433805 0)
(0.00492152 -0.000390177 0)
(0.00513511 -0.000346332 0)
(0.00532541 -0.000302456 0)
(0.00549236 -0.000258727 0)
(0.00563605 -0.000215319 0)
(0.00575663 -0.000172396 0)
(0.00585433 -0.000130115 0)
(0.00592948 -8.86218e-05 0)
(0.00598247 -4.80538e-05 0)
(0.00601378 -8.53663e-06 0)
(0.00602394 2.98148e-05 0)
(0.00601356 6.68972e-05 0)
(0.00598329 0.000102618 0)
(0.00593383 0.000136898 0)
(0.00586594 0.000169666 0)
(0.0057804 0.000200862 0)
(0.00567804 0.000230439 0)
(0.00555972 0.000258354 0)
(0.00542631 0.000284576 0)
(0.00527872 0.000309077 0)
(0.00511787 0.000331836 0)
(0.0049447 0.000352835 0)
(0.00476017 0.000372057 0)
(0.00456523 0.000389482 0)
(0.00436089 0.000405091 0)
(0.00414814 0.000418853 0)
(0.00392801 0.000430734 0)
(0.00370155 0.000440683 0)
(0.00346986 0.000448638 0)
(0.00323406 0.000454516 0)
(0.00299532 0.000458214 0)
(0.00275488 0.000459604 0)
(0.00251405 0.000458529 0)
(0.0022742 0.000454805 0)
(0.00203683 0.000448213 0)
(0.00180351 0.000438505 0)
(0.00157596 0.000425401 0)
(0.00135598 0.000408595 0)
(0.00114555 0.000387768 0)
(0.000946713 0.000362601 0)
(0.000761645 0.000332811 0)
(0.000592564 0.000298199 0)
(0.000441682 0.000258736 0)
(0.000311092 0.000214694 0)
(0.000202608 0.000166877 0)
(0.000117513 0.000116964 0)
(5.62941e-05 6.80506e-05 0)
(1.86754e-05 2.55862e-05 0)
(1.52023e-06 -7.22175e-07 0)
(1.87725e-06 -1.68971e-05 0)
(1.438e-05 -4.42297e-05 0)
(3.3677e-05 -6.44739e-05 0)
(5.78875e-05 -7.75132e-05 0)
(8.42194e-05 -8.39032e-05 0)
(0.000110635 -8.4505e-05 0)
(0.000135429 -8.0272e-05 0)
(0.000157157 -7.21362e-05 0)
(0.000174639 -6.09486e-05 0)
(0.00018694 -4.74548e-05 0)
(0.00019334 -3.22894e-05 0)
(0.000193311 -1.59811e-05 0)
(0.00018649 1.03852e-06 0)
(0.000172647 1.84239e-05 0)
(0.000151665 3.59047e-05 0)
(0.000123517 5.32754e-05 0)
(8.82421e-05 7.03859e-05 0)
(4.59291e-05 8.71331e-05 0)
(-3.29822e-06 0.000103453 0)
(-5.92956e-05 0.000119315 0)
(-0.000121909 0.000134715 0)
(-0.000190986 0.000149669 0)
(-0.000266379 0.000164213 0)
(-0.000347956 0.000178393 0)
(-0.000435602 0.000192265 0)
(-0.000529224 0.000205893 0)
(-0.000628752 0.000219343 0)
(-0.000734142 0.000232683 0)
(-0.000845375 0.00024598 0)
(-0.000962454 0.000259298 0)
(-0.00108541 0.0002727 0)
(-0.00121429 0.000286243 0)
(-0.00134917 0.000299977 0)
(-0.00149014 0.000313948 0)
(-0.00163731 0.000328194 0)
(-0.00179079 0.000342748 0)
(-0.0019507 0.000357633 0)
(-0.0021172 0.000372868 0)
(-0.00229041 0.000388462 0)
(-0.00247049 0.000404419 0)
(-0.00265757 0.000420735 0)
(-0.00285178 0.000437402 0)
(-0.00305327 0.000454402 0)
(-0.00326215 0.000471713 0)
(-0.00347853 0.000489309 0)
(-0.00370251 0.000507156 0)
(-0.00393418 0.000525217 0)
(-0.00417358 0.000543449 0)
(-0.00442077 0.000561805 0)
(-0.00467576 0.000580234 0)
(-0.00493856 0.000598682 0)
(-0.00520914 0.00061709 0)
(-0.00548744 0.000635396 0)
(-0.00577338 0.000653535 0)
(-0.00606684 0.000671438 0)
(-0.0063677 0.000689033 0)
(-0.00667576 0.000706247 0)
(-0.00699083 0.000723001 0)
(-0.00731266 0.000739216 0)
(-0.00764098 0.000754809 0)
(-0.00797546 0.000769693 0)
(-0.00831577 0.000783783 0)
(-0.0086615 0.000796987 0)
(-0.00901224 0.000809214 0)
(-0.00936751 0.00082037 0)
(-0.00972682 0.000830359 0)
(-0.0100896 0.000839085 0)
(-0.0104553 0.000846451 0)
(-0.0108232 0.000852358 0)
(-0.0111928 0.000856709 0)
(-0.0115632 0.000859404 0)
(-0.0119338 0.000860347 0)
(-0.0123037 0.000859442 0)
(-0.0126721 0.000856595 0)
(-0.0130383 0.000851715 0)
(-0.0134012 0.000844713 0)
(-0.0137599 0.000835505 0)
(-0.0141136 0.000824011 0)
(-0.0144611 0.000810156 0)
(-0.0148016 0.000793872 0)
(-0.0151339 0.000775097 0)
(-0.0154569 0.000753775 0)
(-0.0157698 0.000729861 0)
(-0.0160712 0.000703316 0)
(-0.0163602 0.000674112 0)
(-0.0166357 0.000642232 0)
(-0.0168965 0.000607667 0)
(-0.0171416 0.000570423 0)
(-0.0173698 0.000530516 0)
(-0.0175802 0.000487974 0)
(-0.0177716 0.000442838 0)
(-0.017943 0.000395165 0)
(-0.0180935 0.000345022 0)
(-0.0182221 0.000292493 0)
(-0.0183278 0.000237674 0)
(-0.0184098 0.000180676 0)
(-0.0184673 0.000121624 0)
(-0.0184995 6.06577e-05 0)
(-0.0185057 -2.07002e-06 0)
(-0.0184853 -6.63922e-05 0)
(-0.0184378 -0.000132129 0)
(-0.0183625 -0.000199087 0)
(-0.0182593 -0.000267061 0)
(-0.0181276 -0.000335835 0)
(-0.0179674 -0.000405181 0)
(-0.0177784 -0.000474862 0)
(-0.0175607 -0.000544631 0)
(-0.0173143 -0.000614236 0)
(-0.0170393 -0.000683414 0)
(-0.0167362 -0.000751901 0)
(-0.0164051 -0.000819426 0)
(-0.0160467 -0.000885717 0)
(-0.0156614 -0.0009505 0)
(-0.0152501 -0.0010135 0)
(-0.0148134 -0.00107445 0)
(-0.0143523 -0.00113308 0)
(-0.0138679 -0.00118913 0)
(-0.0133611 -0.00124234 0)
(-0.0128332 -0.00129247 0)
(-0.0122855 -0.00133928 0)
(-0.0117194 -0.00138254 0)
(-0.0111363 -0.00142205 0)
(-0.0105378 -0.00145761 0)
(-0.00992548 -0.00148904 0)
(-0.00930099 -0.00151619 0)
(-0.0086661 -0.0015389 0)
(-0.00802258 -0.00155707 0)
(-0.00737225 -0.00157058 0)
(-0.00671698 -0.00157937 0)
(-0.00605866 -0.00158338 0)
(-0.00539918 -0.00158258 0)
(-0.00474046 -0.00157697 0)
(-0.00408441 -0.00156657 0)
(-0.00343293 -0.00155142 0)
(-0.0027879 -0.00153159 0)
(-0.00215117 -0.00150718 0)
(-0.00152456 -0.0014783 0)
(-0.000909836 -0.0014451 0)
(-0.000308713 -0.00140773 0)
(0.000277159 -0.00136639 0)
(0.000846201 -0.00132126 0)
(0.00139691 -0.00127259 0)
(0.00192788 -0.0012206 0)
(0.00243778 -0.00116554 0)
(0.00292538 -0.0011077 0)
(0.00338957 -0.00104734 0)
(0.00382933 -0.000984751 0)
(0.00424376 -0.00092023 0)
(0.00463205 -0.000854073 0)
(0.00499355 -0.000786585 0)
(0.00532769 -0.000718067 0)
(0.00563403 -0.000648819 0)
(0.00591225 -0.00057914 0)
(0.00616215 -0.000509319 0)
(0.00638363 -0.000439641 0)
(0.00657671 -0.000370378 0)
(0.00674152 -0.000301794 0)
(0.00687829 -0.000234138 0)
(0.00698737 -0.000167647 0)
(0.00706917 -0.000102539 0)
(0.00712422 -3.90201e-05 0)
(0.00715313 2.27225e-05 0)
(0.00715656 8.25186e-05 0)
(0.00713528 0.000140215 0)
(0.0070901 0.000195676 0)
(0.00702191 0.000248783 0)
(0.00693163 0.000299432 0)
(0.00682024 0.000347537 0)
(0.00668877 0.000393023 0)
(0.00653826 0.000435827 0)
(0.00636982 0.000475898 0)
(0.00618456 0.000513193 0)
(0.00598362 0.000547671 0)
(0.00576818 0.000579295 0)
(0.00553943 0.000608028 0)
(0.0052986 0.000633826 0)
(0.00504693 0.000656636 0)
(0.00478569 0.000676394 0)
(0.0045162 0.000693018 0)
(0.00423982 0.000706402 0)
(0.00395794 0.000716415 0)
(0.00367203 0.000722894 0)
(0.00338362 0.000725643 0)
(0.00309432 0.000724424 0)
(0.00280583 0.000718958 0)
(0.00251995 0.000708923 0)
(0.0022386 0.000693956 0)
(0.00196381 0.000673654 0)
(0.00169774 0.000647587 0)
(0.00144267 0.000615315 0)
(0.00120098 0.000576417 0)
(0.000975161 0.000530537 0)
(0.000767706 0.00047746 0)
(0.000581097 0.000417228 0)
(0.000417685 0.000350313 0)
(0.000279557 0.000277888 0)
(0.000168335 0.000202227 0)
(8.50619e-05 0.000127263 0)
(3.07435e-05 5.95005e-05 0)
(3.07866e-06 9.74398e-06 0)
(1.95645e-06 -2.39871e-05 0)
(1.49102e-05 -6.08674e-05 0)
(3.45893e-05 -8.70075e-05 0)
(5.88246e-05 -0.000103118 0)
(8.45558e-05 -0.000110258 0)
(0.000109586 -0.000109662 0)
(0.000132108 -0.000102601 0)
(0.000150603 -9.02919e-05 0)
(0.000163833 -7.38451e-05 0)
(0.000170812 -5.42402e-05 0)
(0.000170776 -3.23199e-05 0)
(0.000163161 -8.79344e-06 0)
(0.00014757 1.57538e-05 0)
(0.00012375 4.08485e-05 0)
(9.15667e-05 6.61171e-05 0)
(5.0979e-05 9.12727e-05 0)
(2.01997e-06 0.000116104 0)
(-5.52232e-05 0.000140463 0)
(-0.000120626 0.000164259 0)
(-0.00019404 0.000187443 0)
(-0.000275307 0.000210006 0)
(-0.000364267 0.000231971 0)
(-0.00046077 0.000253381 0)
(-0.000564678 0.000274301 0)
(-0.000675873 0.000294807 0)
(-0.000794264 0.000314988 0)
(-0.00091978 0.000334933 0)
(-0.00105238 0.000354739 0)
(-0.00119206 0.000374498 0)
(-0.00133882 0.000394301 0)
(-0.00149272 0.000414235 0)
(-0.0016538 0.000434377 0)
(-0.00182218 0.000454801 0)
(-0.00199794 0.00047557 0)
(-0.00218121 0.000496736 0)
(-0.00237215 0.000518345 0)
(-0.00257089 0.000540428 0)
(-0.00277759 0.000563011 0)
(-0.00299241 0.000586106 0)
(-0.00321553 0.000609716 0)
(-0.00344709 0.000633835 0)
(-0.00368726 0.000658447 0)
(-0.00393617 0.000683527 0)
(-0.00419397 0.000709041 0)
(-0.00446077 0.000734947 0)
(-0.00473668 0.000761197 0)
(-0.00502178 0.000787732 0)