/*--------------------------------*- C++ -*----------------------------------*\
  =========                 |
  \\      /  F ield         | OpenFOAM: The Open Source CFD Toolbox
   \\    /   O peration     | Website:  https://openfoam.org
    \\  /    A nd           | Version:  6
     \\/     M anipulation  |
\*---------------------------------------------------------------------------*/
FoamFile
{
    version     2.0;
    format      ascii;
    class       volVectorField;
    location    "0";
    object      U;
}
// * * * * * * * * * * * * * * * * * * * * * * * * * * * * * * * * * * * * * //

dimensions      [0 1 -1 0 0 0 0];

internalField   nonuniform List<vector> 
9000
(
(0.582324 0.127504 0)
(0.45844 0.060514 0)
(0.283319 0.0196332 0)
(0.200866 0.00903961 0)
(0.156133 0.00454112 0)
(0.129217 0.00247033 0)
(0.112043 0.00146584 0)
(0.100588 0.000926433 0)
(0.0927159 0.000609147 0)
(0.0872109 0.000409772 0)
(0.0833269 0.000278644 0)
(0.0805787 0.000189901 0)
(0.0786373 0.000128874 0)
(0.0772725 8.66128e-05 0)
(0.0763206 5.73388e-05 0)
(0.0756637 3.7166e-05 0)
(0.0752163 2.3407e-05 0)
(0.0749164 1.41697e-05 0)
(0.074719 8.10858e-06 0)
(0.0745918 4.26243e-06 0)
(0.0745116 1.94504e-06 0)
(0.0744619 6.68312e-07 0)
(0.0744312 8.73305e-08 0)
(0.0744115 -3.95361e-08 0)
(0.0743975 1.20018e-07 0)
(0.0743856 4.50583e-07 0)
(0.0743736 8.72969e-07 0)
(0.0743606 1.33224e-06 0)
(0.0743461 1.78871e-06 0)
(0.0743304 2.2111e-06 0)
(0.0743145 2.57108e-06 0)
(0.0742997 2.83869e-06 0)
(0.0742882 2.97821e-06 0)
(0.0742831 2.94384e-06 0)
(0.0742883 2.67469e-06 0)
(0.0743095 2.08838e-06 0)
(0.0743541 1.07195e-06 0)
(0.0744322 -5.322e-07 0)
(0.0745581 -2.94963e-06 0)
(0.0747514 -6.51766e-06 0)
(0.0750408 -1.17779e-05 0)
(0.0754687 -1.97016e-05 0)
(0.0761009 -3.23194e-05 0)
(0.0770471 -5.45557e-05 0)
(0.0785056 -9.99151e-05 0)
(0.0808828 -0.000213826 0)
(0.0850819 -0.000571408 0)
(0.0929482 -0.00159287 0)
(0.113914 -0.00649684 0)
(0.165952 -0.0468901 0)
(0.935362 0.302972 0)
(0.847908 0.220492 0)
(0.646063 0.124168 0)
(0.511531 0.0711694 0)
(0.421361 0.0426071 0)
(0.360192 0.0268749 0)
(0.318055 0.0177346 0)
(0.288548 0.0120892 0)
(0.26761 0.00841549 0)
(0.252628 0.00592937 0)
(0.241867 0.00420088 0)
(0.234134 0.00297833 0)
(0.228591 0.0021052 0)
(0.224639 0.00147908 0)
(0.22184 0.00103019 0)
(0.219878 0.00070956 0)
(0.218516 0.000482117 0)
(0.217583 0.00032237 0)
(0.216953 0.000211663 0)
(0.216533 0.000136289 0)
(0.216259 8.61766e-05 0)
(0.21608 5.39438e-05 0)
(0.215964 3.41972e-05 0)
(0.215887 2.30119e-05 0)
(0.215832 1.75386e-05 0)
(0.215789 1.57051e-05 0)
(0.215751 1.59877e-05 0)
(0.215714 1.72347e-05 0)
(0.215678 1.8528e-05 0)
(0.215642 1.907e-05 0)
(0.215611 1.80877e-05 0)
(0.215589 1.47438e-05 0)
(0.215582 8.04474e-06 0)
(0.215601 -3.26343e-06 0)
(0.215659 -2.08292e-05 0)
(0.215774 -4.68802e-05 0)
(0.215971 -8.44968e-05 0)
(0.216282 -0.000138039 0)
(0.216755 -0.000213847 0)
(0.217454 -0.000321459 0)
(0.218473 -0.000475852 0)
(0.219951 -0.000701867 0)
(0.222099 -0.00104364 0)
(0.22526 -0.00158629 0)
(0.230014 -0.00250966 0)
(0.237411 -0.00423281 0)
(0.249448 -0.0078281 0)
(0.269842 -0.0161368 0)
(0.309008 -0.0371655 0)
(0.380363 -0.102357 0)
(1.01414 0.309697 0)
(1.00397 0.305909 0)
(0.862536 0.216696 0)
(0.735864 0.144533 0)
(0.634076 0.0961398 0)
(0.557416 0.0650936 0)
(0.500919 0.0449982 0)
(0.45953 0.0316395 0)
(0.429231 0.0225079 0)
(0.407055 0.0161193 0)
(0.390843 0.0115728 0)
(0.379024 0.0083013 0)
(0.370445 0.00593276 0)
(0.364255 0.00421455 0)
(0.359822 0.00296979 0)
(0.356674 0.00207179 0)
(0.354463 0.00142831 0)
(0.352926 0.000971474 0)
(0.351871 0.000651065 0)
(0.351156 0.000429814 0)
(0.350677 0.000280092 0)
(0.350357 0.000181461 0)
(0.350145 0.000118853 0)
(0.35 8.11954e-05 0)
(0.349898 6.03594e-05 0)
(0.34982 5.03585e-05 0)
(0.349755 4.67255e-05 0)
(0.349697 4.6026e-05 0)
(0.349646 4.5472e-05 0)
(0.349601 4.26028e-05 0)
(0.349569 3.50071e-05 0)
(0.349557 2.00612e-05 0)
(0.349578 -5.34512e-06 0)
(0.349648 -4.5129e-05 0)
(0.349791 -0.000104425 0)
(0.350038 -0.00019016 0)
(0.350431 -0.000311895 0)
(0.351028 -0.000483141 0)
(0.351907 -0.000723496 0)
(0.353179 -0.00106227 0)
(0.355001 -0.00154496 0)
(0.357602 -0.00224534 0)
(0.361325 -0.00328943 0)
(0.366703 -0.00490537 0)
(0.374587 -0.00753236 0)
(0.386382 -0.0120702 0)
(0.404441 -0.020466 0)
(0.432416 -0.0370364 0)
(0.476921 -0.0712968 0)
(0.54153 -0.146626 0)
(1.02655 0.270587 0)
(1.06179 0.340571 0)
(0.983706 0.284657 0)
(0.887706 0.212158 0)
(0.795654 0.152582 0)
(0.718658 0.109066 0)
(0.657794 0.0782629 0)
(0.610987 0.0564822 0)
(0.575515 0.0409441 0)
(0.54888 0.0297433 0)
(0.529022 0.0215993 0)
(0.514314 0.0156445 0)
(0.503493 0.0112792 0)
(0.495592 0.00808 0)
(0.48987 0.00574176 0)
(0.485762 0.00404126 0)
(0.482843 0.00281326 0)
(0.48079 0.00193461 0)
(0.479362 0.00131317 0)
(0.47838 0.000879973 0)
(0.47771 0.000583484 0)
(0.477255 0.000385281 0)
(0.476947 0.000256836 0)
(0.476735 0.000177024 0)
(0.476583 0.000130214 0)
(0.47647 0.000104785 0)
(0.47638 9.1976e-05 0)
(0.476306 8.49669e-05 0)
(0.476245 7.81517e-05 0)
(0.4762 6.65241e-05 0)
(0.476178 4.51401e-05 0)
(0.47619 8.60208e-06 0)
(0.476255 -4.94862e-05 0)
(0.476396 -0.000137159 0)
(0.476646 -0.000264915 0)
(0.477049 -0.000446858 0)
(0.477664 -0.000702379 0)
(0.47857 -0.00105873 0)
(0.479877 -0.00155516 0)
(0.481734 -0.00224974 0)
(0.484352 -0.00323117 0)
(0.488031 -0.00463992 0)
(0.493206 -0.00670752 0)
(0.50052 -0.00983211 0)
(0.510938 -0.0147274 0)
(0.525898 -0.0227208 0)
(0.54749 -0.0363411 0)
(0.578275 -0.0603843 0)
(0.620927 -0.103303 0)
(0.673058 -0.179194 0)
(1.02355 0.230751 0)
(1.07708 0.344598 0)
(1.04711 0.324255 0)
(0.985794 0.263425 0)
(0.913741 0.201947 0)
(0.846264 0.151236 0)
(0.78878 0.112247 0)
(0.742197 0.0830273 0)
(0.705533 0.0613002 0)
(0.677213 0.0451625 0)
(0.655632 0.0331683 0)
(0.639367 0.0242518 0)
(0.627228 0.0176308 0)
(0.618252 0.0127276 0)
(0.611677 0.00911231 0)
(0.606906 0.00646264 0)
(0.60348 0.00453544 0)
(0.601043 0.00314681 0)
(0.599328 0.00215759 0)
(0.598133 0.0014626 0)
(0.597306 0.000982569 0)
(0.596737 0.000657992 0)
(0.596345 0.00044436 0)
(0.596071 0.000308488 0)
(0.595876 0.000225635 0)
(0.595731 0.000177259 0)
(0.59562 0.000149245 0)
(0.595533 0.000130491 0)
(0.595468 0.000111762 0)
(0.59543 8.47272e-05 0)
(0.595426 4.11005e-05 0)
(0.595473 -2.81936e-05 0)
(0.595592 -0.000133902 0)
(0.595815 -0.000289485 0)
(0.596183 -0.000512455 0)
(0.596751 -0.000826216 0)
(0.597593 -0.00126274 0)
(0.598808 -0.00186661 0)
(0.600528 -0.00270135 0)
(0.602935 -0.00385963 0)
(0.606275 -0.00548031 0)
(0.610892 -0.00777744 0)
(0.617265 -0.0110912 0)
(0.626064 -0.0159782 0)
(0.638219 -0.0233731 0)
(0.654973 -0.0348706 0)
(0.677838 -0.0531885 0)
(0.708087 -0.0827933 0)
(0.745631 -0.130097 0)
(0.785597 -0.202423 0)
(1.0174 0.195731 0)
(1.07485 0.33145 0)
(1.07721 0.340882 0)
(1.04666 0.296754 0)
(0.997535 0.240022 0)
(0.944751 0.187233 0)
(0.895804 0.143307 0)
(0.853772 0.108497 0)
(0.819275 0.0815437 0)
(0.791782 0.0609184 0)
(0.770322 0.0452434 0)
(0.753834 0.0333909 0)
(0.741334 0.0244721 0)
(0.731967 0.0177965 0)
(0.725024 0.0128306 0)
(0.719931 0.00916296 0)
(0.716234 0.00647681 0)
(0.713578 0.00452859 0)
(0.711687 0.00313163 0)
(0.710354 0.00214337 0)
(0.70942 0.00145544 0)
(0.708768 0.00098586 0)
(0.708313 0.000672884 0)
(0.707992 0.000470163 0)
(0.707761 0.000342896 0)
(0.70759 0.000264793 0)
(0.707463 0.00021566 0)
(0.707369 0.000179452 0)
(0.707306 0.000142678 0)
(0.707279 9.30441e-05 0)
(0.707299 1.8237e-05 0)
(0.707386 -9.52675e-05 0)
(0.707565 -0.000263472 0)
(0.707874 -0.000506351 0)
(0.708361 -0.000849759 0)
(0.709091 -0.00132803 0)
(0.710148 -0.00198767 0)
(0.711647 -0.00289291 0)
(0.713737 -0.00413409 0)
(0.716617 -0.00584084 0)
(0.720554 -0.00820317 0)
(0.725905 -0.0115058 0)
(0.733145 -0.0161845 0)
(0.742902 -0.0229186 0)
(0.755971 -0.0327796 0)
(0.773277 -0.0474552 0)
(0.795688 -0.0695406 0)
(0.823397 -0.102759 0)
(0.854746 -0.15148 0)
(0.884384 -0.218763 0)
(1.01176 0.165926 0)
(1.06664 0.309466 0)
(1.08904 0.34104 0)
(1.08285 0.314081 0)
(1.05555 0.265801 0)
(1.01927 0.214879 0)
(0.981736 0.169114 0)
(0.947185 0.130845 0)
(0.917417 0.100026 0)
(0.892831 0.0757429 0)
(0.873108 0.0568735 0)
(0.857628 0.0423599 0)
(0.845684 0.0312912 0)
(0.836603 0.0229166 0)
(0.829785 0.0166312 0)
(0.824727 0.0119536 0)
(0.821015 0.00850464 0)
(0.818319 0.00598754 0)
(0.81638 0.00417171 0)
(0.814996 0.00287909 0)
(0.814015 0.00197311 0)
(0.813321 0.00134964 0)
(0.81283 0.0009297 0)
(0.812479 0.000653602 0)
(0.812225 0.000476209 0)
(0.812038 0.000363163 0)
(0.811901 0.000287838 0)
(0.811804 0.000228864 0)
(0.811746 0.000168082 0)
(0.811735 8.87807e-05 0)
(0.811782 -2.58967e-05 0)
(0.811911 -0.000194514 0)
(0.81215 -0.000439017 0)
(0.812542 -0.000786693 0)
(0.81314 -0.00127266 0)
(0.814016 -0.00194318 0)
(0.815264 -0.00286038 0)
(0.817004 -0.00410902 0)
(0.819396 -0.00580664 0)
(0.822645 -0.00811881 0)
(0.827019 -0.0112827 0)
(0.832862 -0.0156431 0)
(0.840611 -0.0217085 0)
(0.850799 -0.0302345 0)
(0.864032 -0.0423435 0)
(0.880891 -0.0596747 0)
(0.901671 -0.084513 0)
(0.925808 -0.119727 0)
(0.950946 -0.168007 0)
(0.97218 -0.229938 0)
(1.00746 0.141112 0)
(1.05741 0.283619 0)
(1.09138 0.330057 0)
(1.10326 0.318315 0)
(1.09486 0.279905 0)
(1.07476 0.233445 0)
(1.04977 0.188383 0)
(1.02439 0.148697 0)
(1.0011 0.115507 0)
(0.980986 0.0886022 0)
(0.964313 0.0672368 0)
(0.95089 0.0505239 0)
(0.940321 0.0376072 0)
(0.932149 0.0277292 0)
(0.925925 0.0202498 0)
(0.921248 0.014642 0)
(0.917775 0.0104801 0)
(0.915224 0.00742462 0)
(0.913367 0.00520792 0)
(0.912026 0.00362096 0)
(0.911063 0.00250187 0)
(0.910373 0.00172627 0)
(0.909877 0.00119913 0)
(0.909518 0.000848145 0)
(0.909255 0.000618254 0)
(0.909062 0.000467226 0)
(0.908922 0.000362038 0)
(0.908828 0.000275922 0)
(0.908779 0.000185879 0)
(0.908785 7.0534e-05 0)
(0.90886 -9.18231e-05 0)
(0.909029 -0.000325172 0)
(0.909324 -0.000657831 0)
(0.90979 -0.00112486 0)
(0.910484 -0.0017711 0)
(0.911482 -0.00265512 0)
(0.912882 -0.00385476 0)
(0.914807 -0.00547489 0)
(0.917417 -0.00765864 0)
(0.920913 -0.0106038 0)
(0.925548 -0.0145866 0)
(0.931633 -0.0199974 0)
(0.939539 -0.0273899 0)
(0.949679 -0.0375497 0)
(0.962455 -0.0515782 0)
(0.97813 -0.0709699 0)
(0.996558 -0.0976183 0)
(1.01672 -0.133591 0)
(1.0361 -0.180334 0)
(1.05055 -0.237097 0)
(1.0044 0.120529 0)
(1.04905 0.256638 0)
(1.08916 0.311845 0)
(1.11385 0.312373 0)
(1.12093 0.283732 0)
(1.11555 0.243138 0)
(1.10303 0.200633 0)
(1.08751 0.161277 0)
(1.07171 0.127154 0)
(1.05714 0.0987287 0)
(1.04449 0.0756789 0)
(1.03395 0.0573508 0)
(1.02543 0.0430006 0)
(1.01871 0.031911 0)
(1.01349 0.0234415 0)
(1.00951 0.0170453 0)
(1.00651 0.0122684 0)
(1.00428 0.00874163 0)
(1.00263 0.00616954 0)
(1.00143 0.00431858 0)
(1.00055 0.00300619 0)
(0.99991 0.00209091 0)
(0.999441 0.00146394 0)
(0.999097 0.00104189 0)
(0.998842 0.000760834 0)
(0.998653 0.000571339 0)
(0.998518 0.000434416 0)
(0.998431 0.00031812 0)
(0.998394 0.000194699 0)
(0.998418 3.80955e-05 0)
(0.998519 -0.000178352 0)
(0.998723 -0.00048418 0)
(0.999065 -0.000914229 0)
(0.999591 -0.00151145 0)
(1.00036 -0.00233038 0)
(1.00145 -0.00344166 0)
(1.00296 -0.00493809 0)
(1.005 -0.00694301 0)
(1.00774 -0.00962201 0)
(1.01135 -0.0131993 0)
(1.01607 -0.0179805 0)
(1.02215 -0.0243843 0)
(1.0299 -0.0329831 0)
(1.03958 -0.0445528 0)
(1.05143 -0.0601212 0)
(1.06542 -0.0809863 0)
(1.08112 -0.10864 0)
(1.09728 -0.144475 0)
(1.1115 -0.189075 0)
(1.12045 -0.241046 0)
(1.00228 0.103278 0)
(1.04209 0.229899 0)
(1.08504 0.289126 0)
(1.11854 0.298791 0)
(1.13783 0.278933 0)
(1.14522 0.2447 0)
(1.14435 0.205946 0)
(1.13867 0.16829 0)
(1.13076 0.1345 0)
(1.12232 0.105618 0)
(1.11433 0.0817267 0)
(1.10727 0.0624301 0)
(1.10132 0.0471322 0)
(1.09646 0.0351905 0)
(1.0926 0.0259945 0)
(1.08958 0.0190013 0)
(1.08727 0.0137473 0)
(1.08551 0.00984774 0)
(1.08419 0.0069899 0)
(1.0832 0.00492357 0)
(1.08247 0.0034513 0)
(1.08192 0.00241886 0)
(1.08152 0.00170671 0)
(1.08121 0.00122267 0)
(1.08098 0.00089553 0)
(1.0808 0.000669794 0)
(1.08068 0.000501273 0)
(1.0806 0.000353365 0)
(1.08058 0.000193894 0)
(1.08062 -7.6788e-06 0)
(1.08074 -0.000282842 0)
(1.08098 -0.000666591 0)
(1.08136 -0.00120017 0)
(1.08192 -0.00193419 0)
(1.08274 -0.00293245 0)
(1.08389 -0.00427683 0)
(1.08545 -0.00607362 0)
(1.08754 -0.00846215 0)
(1.09031 -0.0116262 0)
(1.09391 -0.0158097 0)
(1.09855 -0.0213367 0)
(1.10441 -0.0286381 0)
(1.11172 -0.0382815 0)
(1.12064 -0.0510029 0)
(1.1312 -0.0677239 0)
(1.14322 -0.0895275 0)
(1.15604 -0.117537 0)
(1.16837 -0.152612 0)
(1.17807 -0.194771 0)
(1.1825 -0.242372 0)
(1.00081 0.088572 0)
(1.03652 0.204025 0)
(1.08041 0.26372 0)
(1.1198 0.279613 0)
(1.14849 0.267122 0)
(1.16659 0.239118 0)
(1.17617 0.204762 0)
(1.1798 0.169792 0)
(1.17972 0.137382 0)
(1.17762 0.109002 0)
(1.17462 0.085084 0)
(1.1714 0.0654791 0)
(1.16837 0.0497528 0)
(1.16569 0.0373591 0)
(1.16343 0.0277399 0)
(1.16159 0.0203769 0)
(1.16011 0.0148139 0)
(1.15896 0.0106649 0)
(1.15806 0.00761053 0)
(1.15736 0.00539273 0)
(1.15683 0.00380566 0)
(1.15642 0.00268727 0)
(1.1561 0.00191112 0)
(1.15585 0.00137894 0)
(1.15565 0.00101433 0)
(1.1555 0.000757216 0)
(1.1554 0.000559292 0)
(1.15534 0.000380067 0)
(1.15533 0.000183496 0)
(1.15538 -6.50302e-05 0)
(1.15553 -0.000401494 0)
(1.15578 -0.000866034 0)
(1.15618 -0.00150591 0)
(1.15677 -0.00237887 0)
(1.15761 -0.00355717 0)
(1.15877 -0.00513263 0)
(1.16034 -0.00722305 0)
(1.16241 -0.0099806 0)
(1.16512 -0.0136026 0)
(1.16859 -0.0183452 0)
(1.17299 -0.024541 0)
(1.17845 -0.0326182 0)
(1.18511 -0.0431215 0)
(1.19301 -0.0567262 0)
(1.20207 -0.074232 0)
(1.21196 -0.0965115 0)
(1.22192 -0.12437 0)
(1.2307 -0.15827 0)
(1.23646 -0.197875 0)
(1.23712 -0.241514 0)
(0.999801 0.0757872 0)
(1.03217 0.179234 0)
(1.07595 0.2368 0)
(1.11919 0.256404 0)
(1.15498 0.249735 0)
(1.18185 0.227445 0)
(1.20051 0.197719 0)
(1.21264 0.166085 0)
(1.22 0.13587 0)
(1.22413 0.108815 0)
(1.22618 0.0856154 0)
(1.22695 0.0663385 0)
(1.22701 0.0507054 0)
(1.22668 0.0382753 0)
(1.2262 0.0285574 0)
(1.22566 0.0210733 0)
(1.22515 0.0153898 0)
(1.22469 0.0111317 0)
(1.22428 0.00798452 0)
(1.22394 0.00569065 0)
(1.22364 0.00404288 0)
(1.2234 0.00287676 0)
(1.22319 0.00206304 0)
(1.22301 0.00150061 0)
(1.22287 0.00111019 0)
(1.22275 0.000828937 0)
(1.22267 0.00060574 0)
(1.22262 0.000397205 0)
(1.22263 0.000164163 0)
(1.2227 -0.000131475 0)
(1.22285 -0.000529668 0)
(1.22311 -0.00107518 0)
(1.22352 -0.00182068 0)
(1.22412 -0.00283027 0)
(1.22495 -0.00418354 0)
(1.22609 -0.00598066 0)
(1.22761 -0.00834858 0)
(1.2296 -0.0114489 0)
(1.23216 -0.0154874 0)
(1.2354 -0.020726 0)
(1.23942 -0.0274959 0)
(1.24433 -0.0362116 0)
(1.25017 -0.0473813 0)
(1.2569 -0.0616076 0)
(1.26433 -0.0795654 0)
(1.27204 -0.101935 0)
(1.27926 -0.129261 0)
(1.28481 -0.161716 0)
(1.28714 -0.198764 0)
(1.28464 -0.238812 0)
(0.9991 0.0644468 0)
(1.02879 0.155535 0)
(1.07197 0.209103 0)
(1.11766 0.230334 0)
(1.15875 0.227986 0)
(1.19266 0.210696 0)
(1.21902 0.185545 0)
(1.23866 0.157625 0)
(1.25285 0.130207 0)
(1.26287 0.10515 0)
(1.2698 0.0833248 0)
(1.27453 0.0649627 0)
(1.2777 0.0499222 0)
(1.27979 0.0378661 0)
(1.28114 0.0283776 0)
(1.28199 0.0210298 0)
(1.2825 0.0154237 0)
(1.28278 0.0112067 0)
(1.28292 0.0080789 0)
(1.28296 0.00579169 0)
(1.28293 0.00414334 0)
(1.28287 0.00297251 0)
(1.28279 0.0021515 0)
(1.2827 0.00157967 0)
(1.28262 0.0011775 0)
(1.28254 0.000881293 0)
(1.28248 0.000638638 0)
(1.28246 0.000404376 0)
(1.28248 0.00013711 0)
(1.28255 -0.00020399 0)
(1.28271 -0.000662187 0)
(1.28298 -0.00128619 0)
(1.28338 -0.0021333 0)
(1.28396 -0.00327296 0)
(1.28476 -0.0047908 0)
(1.28584 -0.00679351 0)
(1.28726 -0.00941467 0)
(1.2891 -0.0128218 0)
(1.29144 -0.0172245 0)
(1.29435 -0.0228842 0)
(1.2979 -0.0301231 0)
(1.30214 -0.0393329 0)
(1.30704 -0.050977 0)
(1.3125 -0.0655809 0)
(1.31826 -0.0836994 0)
(1.32383 -0.105845 0)
(1.32847 -0.132356 0)
(1.33111 -0.163205 0)
(1.33046 -0.197753 0)
(1.32527 -0.234535 0)
(0.998611 0.0541906 0)
(1.0262 0.132836 0)
(1.06857 0.181073 0)
(1.11577 0.202254 0)
(1.16076 0.202872 0)
(1.20025 0.189796 0)
(1.233 0.168987 0)
(1.25912 0.144955 0)
(1.27937 0.120753 0)
(1.29475 0.098229 0)
(1.30624 0.0783321 0)
(1.31472 0.0614061 0)
(1.32089 0.0474177 0)
(1.32535 0.0361237 0)
(1.32852 0.0271822 0)
(1.33075 0.0202239 0)
(1.3323 0.0148932 0)
(1.33334 0.0108695 0)
(1.33403 0.00787611 0)
(1.33447 0.00568127 0)
(1.33473 0.00409525 0)
(1.33487 0.00296522 0)
(1.33492 0.00216931 0)
(1.33493 0.00161075 0)
(1.3349 0.00121242 0)
(1.33487 0.000911845 0)
(1.33484 0.000656865 0)
(1.33484 0.0004018 0)
(1.33486 0.000104017 0)
(1.33495 -0.0002792 0)
(1.3351 -0.000793638 0)
(1.33536 -0.00149114 0)
(1.33574 -0.00243273 0)
(1.33628 -0.00369206 0)
(1.33702 -0.00535935 0)
(1.33801 -0.00754589 0)
(1.3393 -0.0103893 0)
(1.34094 -0.0140598 0)
(1.34299 -0.0187666 0)
(1.3455 -0.024765 0)
(1.3485 -0.0323627 0)
(1.35198 -0.0419223 0)
(1.35587 -0.053858 0)
(1.36002 -0.0686188 0)
(1.3641 -0.0866499 0)
(1.36763 -0.108322 0)
(1.36989 -0.133816 0)
(1.36994 -0.16297 0)
(1.3667 -0.195106 0)
(1.35922 -0.228904 0)
(0.998268 0.0447473 0)
(1.02422 0.111002 0)
(1.06576 0.152967 0)
(1.11386 0.172776 0)
(1.1617 0.17519 0)
(1.20553 0.165562 0)
(1.24346 0.148768 0)
(1.27501 0.128657 0)
(1.30049 0.107947 0)
(1.32059 0.0883628 0)
(1.33618 0.07085 0)
(1.34807 0.0558076 0)
(1.35703 0.0432794 0)
(1.36369 0.0331005 0)
(1.36859 0.0250005 0)
(1.37213 0.0186706 0)
(1.37467 0.0138046 0)
(1.37646 0.0101213 0)
(1.37769 0.00737455 0)
(1.37852 0.00535644 0)
(1.37906 0.00389521 0)
(1.37939 0.00285152 0)
(1.37959 0.00211344 0)
(1.37969 0.00159137 0)
(1.37973 0.00121314 0)
(1.37974 0.000919516 0)
(1.37974 0.000660214 0)
(1.37975 0.000390293 0)
(1.37979 6.69325e-05 0)
(1.37987 -0.000353565 0)
(1.38002 -0.000918649 0)
(1.38025 -0.0016824 0)
(1.3806 -0.00270857 0)
(1.38109 -0.00407384 0)
(1.38174 -0.00587148 0)
(1.38261 -0.00821548 0)
(1.38372 -0.0112452 0)
(1.38512 -0.0151302 0)
(1.38684 -0.0200757 0)
(1.38889 -0.0263271 0)
(1.39128 -0.0341727 0)
(1.39396 -0.0439429 0)
(1.39681 -0.0560013 0)
(1.39964 -0.0707245 0)
(1.4021 -0.0884609 0)
(1.40371 -0.109465 0)
(1.40379 -0.133801 0)
(1.40154 -0.161221 0)
(1.39607 -0.191048 0)
(1.38662 -0.222106 0)
(0.998027 0.0359103 0)
(1.02274 0.0898864 0)
(1.06351 0.124918 0)
(1.11212 0.14234 0)
(1.16201 0.145579 0)
(1.20914 0.138704 0)
(1.25119 0.125569 0)
(1.28716 0.109324 0)
(1.31698 0.0922743 0)
(1.3411 0.0759302 0)
(1.3602 0.0611635 0)
(1.37508 0.0483764 0)
(1.3865 0.0376572 0)
(1.39513 0.0289023 0)
(1.40157 0.0219061 0)
(1.40632 0.0164201 0)
(1.40976 0.0121915 0)
(1.41222 0.00898396 0)
(1.41396 0.00658822 0)
(1.41515 0.00482581 0)
(1.41595 0.00354824 0)
(1.41648 0.00263412 0)
(1.4168 0.0019852 0)
(1.41699 0.00152205 0)
(1.4171 0.00117987 0)
(1.41715 0.000904619 0)
(1.41718 0.000649383 0)
(1.41721 0.000371215 0)
(1.41725 2.81489e-05 0)
(1.41733 -0.000423561 0)
(1.41746 -0.00103214 0)
(1.41767 -0.00185298 0)
(1.41796 -0.00295151 0)
(1.41838 -0.00440621 0)
(1.41893 -0.00631193 0)
(1.41965 -0.00878355 0)
(1.42056 -0.0119598 0)
(1.42169 -0.0160072 0)
(1.42303 -0.021124 0)
(1.42459 -0.0275421 0)
(1.42634 -0.0355279 0)
(1.42819 -0.0453778 0)
(1.42999 -0.0574065 0)
(1.43153 -0.071924 0)
(1.43245 -0.0891958 0)
(1.43228 -0.109384 0)
(1.43041 -0.132467 0)
(1.42613 -0.158147 0)
(1.41872 -0.185773 0)
(1.40758 -0.214303 0)
(0.997859 0.0275195 0)
(1.02164 0.0693438 0)
(1.06177 0.0969846 0)
(1.11066 0.111254 0)
(1.16199 0.114546 0)
(1.21158 0.109832 0)
(1.25676 0.100018 0)
(1.29619 0.0875442 0)
(1.32947 0.0742445 0)
(1.35683 0.0613548 0)
(1.37882 0.0496119 0)
(1.39618 0.039377 0)
(1.40964 0.0307528 0)
(1.41994 0.0236803 0)
(1.42769 0.0180103 0)
(1.43346 0.0135534 0)
(1.43768 0.010112 0)
(1.44073 0.00749867 0)
(1.4429 0.00554569 0)
(1.44441 0.00410888 0)
(1.44545 0.00306736 0)
(1.44613 0.00232154 0)
(1.44658 0.00179003 0)
(1.44685 0.00140623 0)
(1.44701 0.00111488 0)
(1.4471 0.000868804 0)
(1.44715 0.000625903 0)
(1.44719 0.000346365 0)
(1.44724 -9.92029e-06 0)
(1.44731 -0.000485846 0)
(1.44742 -0.00112952 0)
(1.44759 -0.00199674 0)
(1.44783 -0.00315357 0)
(1.44816 -0.00467909 0)
(1.4486 -0.00666833 0)
(1.44915 -0.00923534 0)
(1.44984 -0.0125163 0)
(1.45066 -0.0166725 0)
(1.45161 -0.0218926 0)
(1.45266 -0.0283932 0)
(1.45374 -0.0364172 0)
(1.45476 -0.0462269 0)
(1.45555 -0.058091 0)
(1.45585 -0.0722601 0)
(1.45533 -0.0889305 0)
(1.45353 -0.108192 0)
(1.44991 -0.129962 0)
(1.44386 -0.15392 0)
(1.43478 -0.179451 0)
(1.4222 -0.205639 0)
(0.997747 0.0194477 0)
(1.02087 0.0492352 0)
(1.06051 0.0691756 0)
(1.10954 0.07974 0)
(1.16184 0.0825011 0)
(1.21315 0.0794785 0)
(1.2606 0.0726947 0)
(1.30257 0.0638858 0)
(1.33843 0.0543796 0)
(1.36824 0.0450898 0)
(1.39244 0.036574 0)
(1.41169 0.0291164 0)
(1.42675 0.0228095 0)
(1.43834 0.0176229 0)
(1.44713 0.0134568 0)
(1.4537 0.0101782 0)
(1.45854 0.00764559 0)
(1.46206 0.00572317 0)
(1.46457 0.00428834 0)
(1.46634 0.00323483 0)
(1.46756 0.00247281 0)
(1.46838 0.00192754 0)
(1.46892 0.00153715 0)
(1.46926 0.00125002 0)
(1.46947 0.00102222 0)
(1.4696 0.000814912 0)
(1.46967 0.00059201 0)
(1.46972 0.000317867 0)
(1.46976 -4.48767e-05 0)
(1.46982 -0.000537418 0)
(1.46991 -0.00120691 0)
(1.47003 -0.00210866 0)
(1.47021 -0.0033084 0)
(1.47044 -0.00488468 0)
(1.47075 -0.00693139 0)
(1.47113 -0.00956026 0)
(1.47157 -0.0129033 0)
(1.47208 -0.0171147 0)
(1.47263 -0.0223719 0)
(1.47315 -0.0288747 0)
(1.47358 -0.0368422 0)
(1.47379 -0.0465039 0)
(1.47359 -0.058086 0)
(1.47273 -0.0717879 0)
(1.47089 -0.0877484 0)
(1.46762 -0.106002 0)
(1.46246 -0.126427 0)
(1.45487 -0.148694 0)
(1.44436 -0.172233 0)
(1.43056 -0.19624 0)
(0.997678 0.0115896 0)
(1.02039 0.0294298 0)
(1.0597 0.0414721 0)
(1.10878 0.0479588 0)
(1.16167 0.0497811 0)
(1.21409 0.0481101 0)
(1.263 0.0441378 0)
(1.30664 0.0389014 0)
(1.34422 0.0332045 0)
(1.37567 0.0276071 0)
(1.40135 0.0224564 0)
(1.4219 0.0179334 0)
(1.43804 0.0141014 0)
(1.45052 0.0109475 0)
(1.46002 0.00841428 0)
(1.46714 0.00642308 0)
(1.47241 0.00488876 0)
(1.47625 0.0037288 0)
(1.47901 0.00286807 0)
(1.48096 0.00224081 0)
(1.48232 0.00179076 0)
(1.48324 0.00147028 0)
(1.48385 0.00123893 0)
(1.48424 0.00106175 0)
(1.48449 0.000907459 0)
(1.48463 0.000746747 0)
(1.48472 0.000550479 0)
(1.48477 0.000288018 0)
(1.48481 -7.44738e-05 0)
(1.48486 -0.000575752 0)
(1.48491 -0.00126126 0)
(1.48499 -0.00218499 0)
(1.4851 -0.00341143 0)
(1.48523 -0.00501757 0)
(1.4854 -0.007095 0)
(1.48559 -0.00975188 0)
(1.4858 -0.0131146 0)
(1.48599 -0.017329 0)
(1.48612 -0.02256 0)
(1.48613 -0.0289904 0)
(1.48592 -0.0368152 0)
(1.48535 -0.0462336 0)
(1.48424 -0.0574336 0)
(1.48231 -0.0705705 0)
(1.47926 -0.0857373 0)
(1.47469 -0.102927 0)
(1.46817 -0.121993 0)
(1.45926 -0.14261 0)
(1.44754 -0.164257 0)
(1.43272 -0.186226 0)
(0.997645 0.0038544 0)
(1.02015 0.00980324 0)
(1.05929 0.0138373 0)
(1.1084 0.0160315 0)
(1.16158 0.0166746 0)
(1.21453 0.0161505 0)
(1.26416 0.0148531 0)
(1.30863 0.0131278 0)
(1.34707 0.0112436 0)
(1.37933 0.00938949 0)
(1.40577 0.00768337 0)
(1.42697 0.00618765 0)
(1.44366 0.00492492 0)
(1.45659 0.00389177 0)
(1.46645 0.00306959 0)
(1.47386 0.00243215 0)
(1.47936 0.00195071 0)
(1.48337 0.00159695 0)
(1.48626 0.00134462 0)
(1.48831 0.00117 0)
(1.48973 0.00105191 0)
(1.49071 0.000971224 0)
(1.49136 0.000910145 0)
(1.49178 0.000851397 0)
(1.49205 0.000777302 0)
(1.49221 0.000668798 0)
(1.49231 0.000504406 0)
(1.49236 0.000259126 0)
(1.4924 -9.67506e-05 0)
(1.49242 -0.00059892 0)
(1.49244 -0.00129046 0)
(1.49247 -0.00222331 0)
(1.4925 -0.00345992 0)
(1.49254 -0.00507481 0)
(1.49257 -0.00715629 0)
(1.49257 -0.00980783 0)
(1.49253 -0.0131492 0)
(1.4924 -0.0173168 0)
(1.49214 -0.0224627 0)
(1.49165 -0.0287521 0)
(1.49084 -0.0363576 0)
(1.48955 -0.0454498 0)
(1.48758 -0.0561834 0)
(1.48468 -0.068677 0)
(1.48055 -0.0829868 0)
(1.47484 -0.0990764 0)
(1.46715 -0.116785 0)
(1.45712 -0.1358 0)
(1.44439 -0.155647 0)
(1.42874 -0.175705 0)
(0.997645 -0.00384074 0)
(1.02015 -0.00976436 0)
(1.05929 -0.0137738 0)
(1.1084 -0.0159426 0)
(1.16158 -0.0165583 0)
(1.21453 -0.016004 0)
(1.26417 -0.0146727 0)
(1.30864 -0.0129086 0)
(1.34708 -0.01098 0)
(1.37935 -0.00907492 0)
(1.40578 -0.00731058 0)
(1.42699 -0.00574861 0)
(1.44369 -0.00441106 0)
(1.45662 -0.00329422 0)
(1.46649 -0.00237949 0)
(1.4739 -0.00164117 0)
(1.4794 -0.00105167 0)
(1.48342 -0.000584779 0)
(1.48632 -0.000217442 0)
(1.48838 6.92549e-05 0)
(1.48982 0.000289744 0)
(1.4908 0.00045389 0)
(1.49146 0.000567029 0)
(1.49189 0.000630001 0)
(1.49217 0.000639101 0)
(1.49234 0.000585912 0)
(1.49243 0.000456984 0)
(1.49249 0.000233345 0)
(1.49251 -0.000110157 0)
(1.49251 -0.000605685 0)
(1.4925 -0.00129341 0)
(1.49248 -0.00222262 0)
(1.49244 -0.00345301 0)
(1.49237 -0.00505589 0)
(1.49226 -0.00711542 0)
(1.49208 -0.00972957 0)
(1.4918 -0.0130107 0)
(1.49137 -0.0170851 0)
(1.49073 -0.0220919 0)
(1.48978 -0.0281789 0)
(1.4884 -0.0354976 0)
(1.48644 -0.0441932 0)
(1.48369 -0.0543912 0)
(1.47993 -0.0661796 0)
(1.47485 -0.0795867 0)
(1.46815 -0.0945553 0)
(1.45948 -0.110919 0)
(1.4485 -0.128383 0)
(1.43495 -0.146518 0)
(1.41864 -0.16478 0)
(0.997678 -0.0115761 0)
(1.02039 -0.0293915 0)
(1.0597 -0.0414094 0)
(1.10878 -0.047871 0)
(1.16168 -0.0496663 0)
(1.2141 -0.0479655 0)
(1.26302 -0.0439595 0)
(1.30666 -0.0386847 0)
(1.34425 -0.0329439 0)
(1.3757 -0.0272961 0)
(1.4014 -0.0220877 0)
(1.42196 -0.0174992 0)
(1.43811 -0.0135932 0)
(1.4506 -0.0103563 0)
(1.46012 -0.00773145 0)
(1.46726 -0.00564029 0)
(1.47255 -0.00399887 0)
(1.47641 -0.0027267 0)
(1.4792 -0.00175184 0)
(1.48118 -0.00101323 0)
(1.48256 -0.000461274 0)
(1.48351 -5.74698e-05 0)
(1.48415 0.000226342 0)
(1.48457 0.000408905 0)
(1.48484 0.000500374 0)
(1.485 0.000502945 0)
(1.4851 0.000411256 0)
(1.48514 0.00021251 0)
(1.48515 -0.000113661 0)
(1.48514 -0.000595566 0)
(1.48509 -0.00127006 0)
(1.48502 -0.00218331 0)
(1.48491 -0.00339167 0)
(1.48474 -0.0049626 0)
(1.4845 -0.00697547 0)
(1.48415 -0.00952212 0)
(1.48364 -0.0127069 0)
(1.48293 -0.0166459 0)
(1.48193 -0.0214649 0)
(1.48055 -0.0272956 0)
(1.47865 -0.0342697 0)
(1.47609 -0.0425097 0)
(1.47266 -0.0521164 0)
(1.46814 -0.0631531 0)
(1.46225 -0.0756264 0)
(1.45471 -0.0894661 0)
(1.44521 -0.104506 0)
(1.43348 -0.120472 0)
(1.41928 -0.136979 0)
(1.40246 -0.153548 0)
(0.997747 -0.0194347 0)
(1.02088 -0.049198 0)
(1.06052 -0.0691146 0)
(1.10954 -0.0796544 0)
(1.16185 -0.0823891 0)
(1.21317 -0.0793373 0)
(1.26062 -0.0725206 0)
(1.3026 -0.0636741 0)
(1.33848 -0.054125 0)
(1.3683 -0.0447858 0)
(1.39251 -0.0362136 0)
(1.41179 -0.0286918 0)
(1.42687 -0.0223122 0)
(1.43848 -0.0170444 0)
(1.44729 -0.0127884 0)
(1.45389 -0.00941167 0)
(1.45877 -0.00677385 0)
(1.46232 -0.00474108 0)
(1.46488 -0.00319386 0)
(1.46669 -0.00203047 0)
(1.46796 -0.00116755 0)
(1.46883 -0.000539257 0)
(1.46942 -9.56539e-05 0)
(1.46981 0.000199072 0)
(1.47006 0.000368304 0)
(1.47021 0.000424423 0)
(1.47029 0.000369893 0)
(1.47033 0.000197988 0)
(1.47033 -0.000106836 0)
(1.47029 -0.000568882 0)
(1.47022 -0.00122142 0)
(1.4701 -0.00210712 0)
(1.46992 -0.00327858 0)
(1.46966 -0.00479891 0)
(1.46929 -0.0067422 0)
(1.46878 -0.00919368 0)
(1.46807 -0.0122494 0)
(1.46709 -0.0160151 0)
(1.46577 -0.0206037 0)
(1.464 -0.0261317 0)
(1.46165 -0.0327128 0)
(1.45856 -0.0404494 0)
(1.45454 -0.0494215 0)
(1.44937 -0.0596726 0)
(1.4428 -0.0711937 0)
(1.43457 -0.083907 0)
(1.42441 -0.0976512 0)
(1.41208 -0.112174 0)
(1.39739 -0.127131 0)
(1.38023 -0.142104 0)
(0.99786 -0.0275071 0)
(1.02164 -0.0693082 0)
(1.06178 -0.096926 0)
(1.11067 -0.111171 0)
(1.16201 -0.114438 0)
(1.2116 -0.109696 0)
(1.25679 -0.0998497 0)
(1.29623 -0.0873399 0)
(1.32953 -0.0739986 0)
(1.35691 -0.0610611 0)
(1.37893 -0.0492636 0)
(1.3963 -0.0389664 0)
(1.4098 -0.0302719 0)
(1.42012 -0.0231205 0)
(1.42792 -0.0173632 0)
(1.43372 -0.012811 0)
(1.43799 -0.00926718 0)
(1.4411 -0.00654625 0)
(1.44332 -0.00448349 0)
(1.4449 -0.00293904 0)
(1.446 -0.00179818 0)
(1.44675 -0.000969861 0)
(1.44726 -0.00038415 0)
(1.4476 1.03914e-05 0)
(1.44782 0.000249265 0)
(1.44795 0.000354217 0)
(1.44803 0.000334981 0)
(1.44805 0.00019056 0)
(1.44804 -8.99218e-05 0)
(1.44798 -0.000526754 0)
(1.44788 -0.0011495 0)
(1.44772 -0.00199708 0)
(1.44748 -0.00311802 0)
(1.44714 -0.00457075 0)
(1.44666 -0.00642371 0)
(1.446 -0.00875526 0)
(1.4451 -0.011653 0)
(1.4439 -0.0152125 0)
(1.4423 -0.0195344 0)
(1.44019 -0.0247208 0)
(1.43744 -0.0308693 0)
(1.4339 -0.038065 0)
(1.42938 -0.0463705 0)
(1.42367 -0.0558138 0)
(1.41655 -0.066375 0)
(1.40777 -0.0779728 0)
(1.3971 -0.0904543 0)
(1.38434 -0.103589 0)
(1.36933 -0.117072 0)
(1.35197 -0.130537 0)
(0.998027 -0.0358987 0)
(1.02274 -0.0898528 0)
(1.06351 -0.124863 0)
(1.11213 -0.142262 0)
(1.16203 -0.145476 0)
(1.20918 -0.138575 0)
(1.25123 -0.125409 0)
(1.28722 -0.10913 0)
(1.31706 -0.0920398 0)
(1.3412 -0.07565 0)
(1.36033 -0.060831 0)
(1.37524 -0.0479843 0)
(1.38669 -0.0371975 0)
(1.39536 -0.028367 0)
(1.40185 -0.0212868 0)
(1.40665 -0.0157091 0)
(1.41015 -0.0113819 0)
(1.41268 -0.00807044 0)
(1.41449 -0.00556841 0)
(1.41576 -0.00370137 0)
(1.41665 -0.00232664 0)
(1.41725 -0.00133088 0)
(1.41767 -0.000626672 0)
(1.41794 -0.000148935 0)
(1.41812 0.000148397 0)
(1.41823 0.000295271 0)
(1.41829 0.000307857 0)
(1.4183 0.000190331 0)
(1.41828 -6.38402e-05 0)
(1.41821 -0.000471076 0)
(1.41808 -0.00105722 0)
(1.41789 -0.00185733 0)
(1.4176 -0.00291568 0)
(1.41718 -0.00428576 0)
(1.41661 -0.00603017 0)
(1.41582 -0.00822026 0)
(1.41476 -0.0109353 0)
(1.41336 -0.0142607 0)
(1.41152 -0.0182857 0)
(1.40913 -0.0230991 0)
(1.40605 -0.0287842 0)
(1.40214 -0.0354112 0)
(1.39722 -0.0430284 0)
(1.39109 -0.0516519 0)
(1.38354 -0.0612546 0)
(1.37435 -0.0717553 0)
(1.36333 -0.0830114 0)
(1.35029 -0.0948147 0)
(1.33509 -0.106896 0)
(1.31768 -0.118935 0)
(0.998268 -0.0447366 0)
(1.02423 -0.110971 0)
(1.06577 -0.152916 0)
(1.11387 -0.172704 0)
(1.16172 -0.175094 0)
(1.20557 -0.165441 0)
(1.24352 -0.148618 0)
(1.27509 -0.128474 0)
(1.30058 -0.107727 0)
(1.32071 -0.088099 0)
(1.33633 -0.0705367 0)
(1.34826 -0.0554378 0)
(1.35726 -0.0428456 0)
(1.36397 -0.0325949 0)
(1.36892 -0.0244152 0)
(1.37253 -0.017998 0)