/*--------------------------------*- C++ -*----------------------------------*\
  =========                 |
  \\      /  F ield         | OpenFOAM: The Open Source CFD Toolbox
   \\    /   O peration     | Website:  https://openfoam.org
    \\  /    A nd           | Version:  6
     \\/     M anipulation  |
\*---------------------------------------------------------------------------*/
FoamFile
{
    version     2.0;
    format      ascii;
    class       volVectorField;
    location    "0";
    object      U;
}
// * * * * * * * * * * * * * * * * * * * * * * * * * * * * * * * * * * * * * //

dimensions      [0 1 -1 0 0 0 0];

internalField   nonuniform List<vector> 
40000
(
(-1.60143e-07 1.60007e-07 0)
(1.11807e-06 -5.24986e-07 0)
(4.79647e-06 -1.27135e-06 0)
(1.06806e-05 -1.79282e-06 0)
(1.8068e-05 -2.11225e-06 0)
(2.63275e-05 -2.26941e-06 0)
(3.49428e-05 -2.30186e-06 0)
(4.3506e-05 -2.24149e-06 0)
(5.17057e-05 -2.11332e-06 0)
(5.93102e-05 -1.93657e-06 0)
(6.6151e-05 -1.72597e-06 0)
(7.21093e-05 -1.49285e-06 0)
(7.71049e-05 -1.24579e-06 0)
(8.10881e-05 -9.913e-07 0)
(8.40324e-05 -7.34252e-07 0)
(8.59285e-05 -4.78225e-07 0)
(8.67804e-05 -2.25766e-07 0)
(8.6601e-05 2.14158e-08 0)
(8.54095e-05 2.62293e-07 0)
(8.32285e-05 4.96381e-07 0)
(8.00823e-05 7.23622e-07 0)
(7.59954e-05 9.44294e-07 0)
(7.09908e-05 1.15893e-06 0)
(6.50895e-05 1.36827e-06 0)
(5.83095e-05 1.57316e-06 0)
(5.06655e-05 1.77456e-06 0)
(4.21685e-05 1.97346e-06 0)
(3.28255e-05 2.17088e-06 0)
(2.264e-05 2.36781e-06 0)
(1.16111e-05 2.56521e-06 0)
(-2.65122e-07 2.76397e-06 0)
(-1.29964e-05 2.96494e-06 0)
(-2.65934e-05 3.16885e-06 0)
(-4.10696e-05 3.37636e-06 0)
(-5.64409e-05 3.58806e-06 0)
(-7.27252e-05 3.8044e-06 0)
(-8.99422e-05 4.02576e-06 0)
(-0.000108113 4.25243e-06 0)
(-0.000127258 4.48458e-06 0)
(-0.000147402 4.72232e-06 0)
(-0.000168565 4.96565e-06 0)
(-0.00019077 5.21451e-06 0)
(-0.000214039 5.46874e-06 0)
(-0.000238393 5.72813e-06 0)
(-0.000263851 5.99238e-06 0)
(-0.000290431 6.26114e-06 0)
(-0.000318151 6.53399e-06 0)
(-0.000347024 6.81045e-06 0)
(-0.000377063 7.09e-06 0)
(-0.000408279 7.37206e-06 0)
(-0.000440678 7.65598e-06 0)
(-0.000474264 7.94108e-06 0)
(-0.00050904 8.22661e-06 0)
(-0.000545003 8.51178e-06 0)
(-0.000582148 8.79576e-06 0)
(-0.000620466 9.07765e-06 0)
(-0.000659943 9.35649e-06 0)
(-0.000700562 9.63128e-06 0)
(-0.000742301 9.90097e-06 0)
(-0.000785135 1.01645e-05 0)
(-0.000829031 1.04206e-05 0)
(-0.000873953 1.06681e-05 0)
(-0.000919861 1.09057e-05 0)
(-0.000966707 1.11322e-05 0)
(-0.00101444 1.13461e-05 0)
(-0.001063 1.1546e-05 0)
(-0.00111232 1.17304e-05 0)
(-0.00116233 1.18979e-05 0)
(-0.00121296 1.2047e-05 0)
(-0.00126412 1.2176e-05 0)
(-0.00131573 1.22834e-05 0)
(-0.00136768 1.23675e-05 0)
(-0.00141987 1.24268e-05 0)
(-0.0014722 1.24597e-05 0)
(-0.00152454 1.24645e-05 0)
(-0.00157679 1.24398e-05 0)
(-0.0016288 1.23839e-05 0)
(-0.00168045 1.22953e-05 0)
(-0.00173159 1.21727e-05 0)
(-0.00178208 1.20147e-05 0)
(-0.00183176 1.18199e-05 0)
(-0.00188049 1.15872e-05 0)
(-0.0019281 1.13154e-05 0)
(-0.00197443 1.10037e-05 0)
(-0.00201931 1.0651e-05 0)
(-0.00206258 1.02568e-05 0)
(-0.00210405 9.82053e-06 0)
(-0.00214355 9.34173e-06 0)
(-0.00218092 8.82025e-06 0)
(-0.00221597 8.25608e-06 0)
(-0.00224853 7.64942e-06 0)
(-0.00227843 7.00068e-06 0)
(-0.0023055 6.31049e-06 0)
(-0.00232958 5.57973e-06 0)
(-0.0023505 4.8095e-06 0)
(-0.00236811 4.00113e-06 0)
(-0.00238226 3.15623e-06 0)
(-0.0023928 2.27665e-06 0)
(-0.0023996 1.36447e-06 0)
(-0.00240254 4.22053e-07 0)
(-0.0024015 -5.48012e-07 0)
(-0.00239637 -1.54288e-06 0)
(-0.00238708 -2.55947e-06 0)
(-0.00237354 -3.59447e-06 0)
(-0.00235568 -4.64436e-06 0)
(-0.00233347 -5.70538e-06 0)
(-0.00230686 -6.77362e-06 0)
(-0.00227584 -7.84496e-06 0)
(-0.00224041 -8.91513e-06 0)
(-0.00220059 -9.97975e-06 0)
(-0.00215642 -1.10343e-05 0)
(-0.00210794 -1.20742e-05 0)
(-0.00205524 -1.30947e-05 0)
(-0.0019984 -1.40912e-05 0)
(-0.00193754 -1.5059e-05 0)
(-0.00187278 -1.59934e-05 0)
(-0.00180427 -1.68898e-05 0)
(-0.00173218 -1.77436e-05 0)
(-0.0016567 -1.85506e-05 0)
(-0.00157801 -1.93063e-05 0)
(-0.00149635 -2.00069e-05 0)
(-0.00141195 -2.06485e-05 0)
(-0.00132505 -2.12276e-05 0)
(-0.00123591 -2.17408e-05 0)
(-0.00114481 -2.21852e-05 0)
(-0.00105203 -2.25583e-05 0)
(-0.000957868 -2.28578e-05 0)
(-0.000862627 -2.30818e-05 0)
(-0.000766614 -2.32289e-05 0)
(-0.000670143 -2.32981e-05 0)
(-0.000573531 -2.32889e-05 0)
(-0.000477097 -2.32012e-05 0)
(-0.000381158 -2.30353e-05 0)
(-0.00028603 -2.2792e-05 0)
(-0.000192024 -2.24725e-05 0)
(-9.94458e-05 -2.20787e-05 0)
(-8.59419e-06 -2.16126e-05 0)
(8.02424e-05 -2.10768e-05 0)
(0.000166786 -2.04743e-05 0)
(0.000250771 -1.98084e-05 0)
(0.000331946 -1.90829e-05 0)
(0.000410075 -1.83017e-05 0)
(0.000484937 -1.74692e-05 0)
(0.000556331 -1.65898e-05 0)
(0.000624073 -1.56685e-05 0)
(0.000687998 -1.47101e-05 0)
(0.000747963 -1.37198e-05 0)
(0.000803842 -1.27026e-05 0)
(0.000855533 -1.16638e-05 0)
(0.000902952 -1.06086e-05 0)
(0.00094604 -9.54219e-06 0)
(0.000984754 -8.46964e-06 0)
(0.00101907 -7.39596e-06 0)
(0.001049 -6.32594e-06 0)
(0.00107455 -5.26423e-06 0)
(0.00109575 -4.21523e-06 0)
(0.00111268 -3.18309e-06 0)
(0.00112538 -2.17171e-06 0)
(0.00113396 -1.18466e-06 0)
(0.00113851 -2.25215e-07 0)
(0.00113915 7.03694e-07 0)
(0.00113599 1.59946e-06 0)
(0.00112918 2.45982e-06 0)
(0.00111886 3.28286e-06 0)
(0.00110517 4.06699e-06 0)
(0.00108829 4.81095e-06 0)
(0.00106837 5.5138e-06 0)
(0.00104558 6.17487e-06 0)
(0.00102009 6.79378e-06 0)
(0.000992078 7.37035e-06 0)
(0.000961708 7.90463e-06 0)
(0.000929156 8.3968e-06 0)
(0.000894597 8.84716e-06 0)
(0.000858204 9.25604e-06 0)
(0.000820149 9.62377e-06 0)
(0.000780603 9.95059e-06 0)
(0.000739739 1.02366e-05 0)
(0.00069773 1.04816e-05 0)
(0.000654752 1.06851e-05 0)
(0.000610982 1.08462e-05 0)
(0.000566606 1.09633e-05 0)
(0.000521816 1.10343e-05 0)
(0.000476814 1.10562e-05 0)
(0.000431818 1.10251e-05 0)
(0.000387064 1.09359e-05 0)
(0.000342808 1.07823e-05 0)
(0.000299335 1.05566e-05 0)
(0.000256963 1.02493e-05 0)
(0.000216047 9.8495e-06 0)
(0.000176986 9.34403e-06 0)
(0.00014023 8.71801e-06 0)
(0.000106282 7.95478e-06 0)
(7.57005e-05 7.03662e-06 0)
(4.90939e-05 5.94642e-06 0)
(2.71039e-05 4.67169e-06 0)
(1.03602e-05 3.21425e-06 0)
(-6.07801e-07 1.60797e-06 0)
(-5.58982e-06 -4.95702e-08 0)
(-5.30231e-06 -1.44235e-06 0)
(-1.70324e-06 -1.70304e-06 0)
(5.26681e-07 -1.12013e-06 0)
(5.86429e-06 -5.85405e-06 0)
(1.63068e-05 -1.06714e-05 0)
(3.13666e-05 -1.43341e-05 0)
(4.96075e-05 -1.66997e-05 0)
(6.97274e-05 -1.79112e-05 0)
(9.05853e-05 -1.81727e-05 0)
(0.000111225 -1.76845e-05 0)
(0.000130879 -1.66208e-05 0)
(0.000148951 -1.5126e-05 0)
(0.000164985 -1.33167e-05 0)
(0.000178649 -1.12864e-05 0)
(0.000189707 -9.10864e-06 0)
(0.000198 -6.84118e-06 0)
(0.000203432 -4.52836e-06 0)
(0.000205955 -2.20373e-06 0)
(0.000205559 1.08128e-07 0)
(0.000202257 2.38997e-06 0)
(0.000196085 4.6306e-06 0)
(0.000187087 6.82373e-06 0)
(0.000175315 8.96706e-06 0)
(0.000160825 1.10614e-05 0)
(0.000143667 1.31102e-05 0)
(0.00012389 1.51185e-05 0)
(0.000101536 1.70929e-05 0)
(7.66362e-05 1.90409e-05 0)
(4.92168e-05 2.09706e-05 0)
(1.92918e-05 2.28901e-05 0)
(-1.31337e-05 2.48079e-05 0)
(-4.80644e-05 2.67318e-05 0)
(-8.55145e-05 2.86694e-05 0)
(-0.000125507 3.06279e-05 0)
(-0.000168072 3.26135e-05 0)
(-0.000213249 3.46319e-05 0)
(-0.000261081 3.66879e-05 0)
(-0.000311617 3.87855e-05 0)
(-0.000364913 4.09278e-05 0)
(-0.000421025 4.3117e-05 0)
(-0.000480011 4.53546e-05 0)
(-0.000541932 4.76412e-05 0)
(-0.000606848 4.99767e-05 0)
(-0.000674818 5.236e-05 0)
(-0.000745899 5.47896e-05 0)
(-0.000820146 5.72631e-05 0)
(-0.00089761 5.97774e-05 0)
(-0.000978336 6.2329e-05 0)
(-0.00106237 6.49135e-05 0)
(-0.00114974 6.75264e-05 0)
(-0.00124047 7.01621e-05 0)
(-0.0013346 7.2815e-05 0)
(-0.00143213 7.54785e-05 0)
(-0.00153306 7.8146e-05 0)
(-0.00163739 8.081e-05 0)
(-0.00174511 8.34627e-05 0)
(-0.00185619 8.60958e-05 0)
(-0.00197059 8.87006e-05 0)
(-0.00208827 9.12677e-05 0)
(-0.00220915 9.37874e-05 0)
(-0.00233318 9.62495e-05 0)
(-0.00246025 9.86433e-05 0)
(-0.00259028 0.000100958 0)
(-0.00272313 0.000103181 0)
(-0.00285868 0.000105301 0)
(-0.00299679 0.000107305 0)
(-0.00313728 0.00010918 0)
(-0.00327998 0.000110914 0)
(-0.00342469 0.000112492 0)
(-0.00357119 0.000113901 0)
(-0.00371926 0.000115127 0)
(-0.00386863 0.000116155 0)
(-0.00401904 0.000116971 0)
(-0.00417021 0.00011756 0)
(-0.00432182 0.000117909 0)
(-0.00447357 0.000118002 0)
(-0.0046251 0.000117827 0)
(-0.00477606 0.000117368 0)
(-0.00492607 0.000116613 0)
(-0.00507475 0.000115549 0)
(-0.0052217 0.000114163 0)
(-0.00536648 0.000112445 0)
(-0.00550868 0.000110383 0)
(-0.00564784 0.000107967 0)
(-0.00578352 0.000105189 0)
(-0.00591524 0.000102041 0)
(-0.00604253 9.85168e-05 0)
(-0.00616492 9.46114e-05 0)
(-0.00628193 9.03212e-05 0)
(-0.00639306 8.56444e-05 0)
(-0.00649784 8.05806e-05 0)
(-0.00659578 7.51314e-05 0)
(-0.0066864 6.93002e-05 0)
(-0.00676924 6.30922e-05 0)
(-0.00684382 5.65147e-05 0)
(-0.00690969 4.95771e-05 0)
(-0.00696643 4.22907e-05 0)
(-0.0070136 3.46692e-05 0)
(-0.00705081 2.67284e-05 0)
(-0.00707768 1.8486e-05 0)
(-0.00709385 9.96224e-06 0)
(-0.00709899 1.17931e-06 0)
(-0.00709282 -7.83846e-06 0)
(-0.00707505 -1.70646e-05 0)
(-0.00704547 -2.64708e-05 0)
(-0.00700387 -3.60267e-05 0)
(-0.00695011 -4.57e-05 0)
(-0.00688407 -5.54571e-05 0)
(-0.00680568 -6.52624e-05 0)
(-0.00671491 -7.50792e-05 0)
(-0.0066118 -8.48694e-05 0)
(-0.0064964 -9.45938e-05 0)
(-0.00636883 -0.000104213 0)
(-0.00622928 -0.000113685 0)
(-0.00607794 -0.000122971 0)
(-0.00591509 -0.000132027 0)
(-0.00574105 -0.000140815 0)
(-0.00555619 -0.000149292 0)
(-0.00536093 -0.000157418 0)
(-0.00515573 -0.000165155 0)
(-0.00494111 -0.000172465 0)
(-0.00471762 -0.00017931 0)
(-0.00448588 -0.000185655 0)
(-0.00424651 -0.000191469 0)
(-0.00400022 -0.00019672 0)
(-0.0037477 -0.00020138 0)
(-0.00348972 -0.000205423 0)
(-0.00322706 -0.000208828 0)
(-0.00296052 -0.000211575 0)
(-0.00269092 -0.000213648 0)
(-0.00241912 -0.000215034 0)
(-0.00214596 -0.000215725 0)
(-0.00187232 -0.000215717 0)
(-0.00159905 -0.000215008 0)
(-0.00132704 -0.0002136 0)
(-0.00105713 -0.000211501 0)
(-0.000790193 -0.00020872 0)
(-0.000527054 -0.000205274 0)
(-0.000268535 -0.000201179 0)
(-1.5428e-05 -0.000196458 0)
(0.0002315 -0.000191135 0)
(0.000471516 -0.00018524 0)
(0.000703924 -0.000178803 0)
(0.000928065 -0.00017186 0)
(0.00114333 -0.000164448 0)
(0.00134914 -0.000156605 0)
(0.00154498 -0.000148372 0)
(0.00173039 -0.000139793 0)
(0.00190495 -0.000130911 0)
(0.00206829 -0.000121772 0)
(0.00222011 -0.00011242 0)
(0.00236016 -0.000102901 0)
(0.00248825 -9.32619e-05 0)
(0.00260423 -8.35462e-05 0)
(0.00270803 -7.37983e-05 0)
(0.0027996 -6.40613e-05 0)
(0.00287898 -5.43765e-05 0)
(0.00294623 -4.47837e-05 0)
(0.00300149 -3.53206e-05 0)
(0.0030449 -2.60226e-05 0)
(0.00307669 -1.69228e-05 0)
(0.00309711 -8.05154e-06 0)
(0.00310643 5.63408e-07 0)
(0.00310499 8.89717e-06 0)
(0.00309314 1.69277e-05 0)
(0.00307125 2.46358e-05 0)
(0.00303973 3.20052e-05 0)
(0.00299899 3.90224e-05 0)
(0.00294949 4.56762e-05 0)
(0.00289167 5.19584e-05 0)
(0.002826 5.78627e-05 0)
(0.00275295 6.33849e-05 0)
(0.002673 6.85224e-05 0)
(0.00258664 7.32741e-05 0)
(0.00249435 7.76394e-05 0)
(0.00239662 8.16186e-05 0)
(0.00229395 8.52116e-05 0)
(0.00218682 8.84174e-05 0)
(0.00207574 9.12341e-05 0)
(0.00196122 9.36574e-05 0)
(0.00184375 9.568e-05 0)
(0.00172388 9.72914e-05 0)
(0.00160213 9.84761e-05 0)
(0.00147909 9.92132e-05 0)
(0.00135534 9.94753e-05 0)
(0.00123151 9.92277e-05 0)
(0.0011083 9.8427e-05 0)
(0.000986433 9.70203e-05 0)
(0.000866721 9.49447e-05 0)
(0.000750046 9.21261e-05 0)
(0.000637383 8.84798e-05 0)
(0.000529803 8.39107e-05 0)
(0.00042848 7.83158e-05 0)
(0.000334695 7.15897e-05 0)
(0.000249821 6.36346e-05 0)
(0.000175296 5.43808e-05 0)
(0.000112555 4.3826e-05 0)
(6.29109e-05 3.21114e-05 0)
(2.73332e-05 1.9666e-05 0)
(6.03039e-06 7.47182e-06 0)
(-2.35737e-06 -2.36413e-06 0)
(-1.4435e-06 -5.30238e-06 0)
(1.27962e-06 -4.81525e-06 0)
(1.0723e-05 -1.63127e-05 0)
(2.69478e-05 -2.68744e-05 0)
(4.9064e-05 -3.48674e-05 0)
(7.50943e-05 -4.00535e-05 0)
(0.00010337 -4.26734e-05 0)
(0.000132395 -4.31132e-05 0)
(0.000160871 -4.17793e-05 0)
(0.000187723 -3.9046e-05 0)
(0.000212086 -3.52368e-05 0)
(0.000233285 -3.06229e-05 0)
(0.000250809 -2.5427e-05 0)
(0.000264284 -1.98294e-05 0)
(0.000273447 -1.3974e-05 0)
(0.000278131 -7.97356e-06 0)
(0.000278238 -1.91461e-06 0)
(0.000273728 4.13818e-06 0)
(0.000264603 1.01385e-05 0)
(0.000250894 1.60553e-05 0)
(0.000232652 2.18701e-05 0)
(0.000209943 2.75745e-05 0)
(0.000182832 3.31687e-05 0)
(0.000151389 3.8659e-05 0)
(0.000115674 4.4057e-05 0)
(7.57412e-05 4.93779e-05 0)
(3.16331e-05 5.46394e-05 0)
(-1.66208e-05 5.98609e-05 0)
(-6.90043e-05 6.50625e-05 0)
(-0.000125516 7.02644e-05 0)
(-0.000186167 7.54864e-05 0)
(-0.000250985 8.07473e-05 0)
(-0.000320007 8.60644e-05 0)
(-0.000393285 9.14535e-05 0)
(-0.00047088 9.69285e-05 0)
(-0.000552861 0.000102501 0)
(-0.000639308 0.000108182 0)
(-0.000730303 0.000113977 0)
(-0.000825936 0.000119894 0)
(-0.000926297 0.000125933 0)
(-0.00103148 0.000132098 0)
(-0.00114157 0.000138387 0)
(-0.00125667 0.000144796 0)
(-0.00137685 0.000151322 0)
(-0.0015022 0.000157956 0)
(-0.0016328 0.000164691 0)
(-0.0017687 0.000171517 0)
(-0.00190997 0.000178421 0)
(-0.00205666 0.000185391 0)
(-0.0022088 0.000192412 0)
(-0.00236642 0.000199467 0)
(-0.00252952 0.000206539 0)
(-0.0026981 0.00021361 0)
(-0.00287214 0.000220659 0)
(-0.0030516 0.000227664 0)
(-0.00323644 0.000234604 0)
(-0.00342656 0.000241453 0)
(-0.00362189 0.000248188 0)
(-0.00382231 0.000254781 0)
(-0.00402768 0.000261204 0)
(-0.00423784 0.00026743 0)
(-0.00445262 0.000273427 0)
(-0.00467181 0.000279165 0)
(-0.00489518 0.000284611 0)
(-0.00512247 0.000289732 0)
(-0.0053534 0.000294493 0)
(-0.00558767 0.000298861 0)
(-0.00582494 0.000302798 0)
(-0.00606484 0.000306269 0)
(-0.00630698 0.000309237 0)
(-0.00655095 0.000311663 0)
(-0.0067963 0.000313512 0)
(-0.00704254 0.000314746 0)
(-0.00728918 0.000315327 0)
(-0.00753569 0.000315219 0)
(-0.00778151 0.000314387 0)
(-0.00802604 0.000312796 0)
(-0.0082687 0.000310411 0)
(-0.00850884 0.000307201 0)
(-0.0087458 0.000303135 0)
(-0.00897892 0.000298185 0)
(-0.0092075 0.000292324 0)
(-0.00943082 0.00028553 0)
(-0.00964815 0.000277781 0)
(-0.00985877 0.000269059 0)
(-0.0100619 0.000259352 0)
(-0.0102568 0.000248647 0)
(-0.0104428 0.000236938 0)
(-0.010619 0.000224224 0)
(-0.0107846 0.000210505 0)
(-0.0109391 0.000195789 0)
(-0.0110815 0.000180087 0)
(-0.0112111 0.000163415 0)
(-0.0113274 0.000145795 0)
(-0.0114294 0.000127253 0)
(-0.0115167 0.000107822 0)
(-0.0115885 8.75389e-05 0)
(-0.0116442 6.6447e-05 0)
(-0.0116833 4.45947e-05 0)
(-0.0117052 2.20358e-05 0)
(-0.0117095 -1.17046e-06 0)
(-0.0116957 -2.49595e-05 0)
(-0.0116633 -4.92618e-05 0)
(-0.0116122 -7.40029e-05 0)
(-0.011542 -9.91036e-05 0)
(-0.0114524 -0.00012448 0)
(-0.0113434 -0.000150045 0)
(-0.0112148 -0.000175707 0)
(-0.0110667 -0.000201371 0)
(-0.0108991 -0.000226939 0)
(-0.0107121 -0.000252312 0)
(-0.010506 -0.000277387 0)
(-0.010281 -0.000302061 0)
(-0.0100376 -0.000326229 0)
(-0.009776 -0.000349788 0)
(-0.00949689 -0.000372632 0)
(-0.0092008 -0.00039466 0)
(-0.00888842 -0.000415769 0)
(-0.00856046 -0.000435861 0)
(-0.00821775 -0.000454839 0)
(-0.00786115 -0.000472613 0)
(-0.00749161 -0.000489093 0)
(-0.00711014 -0.000504197 0)
(-0.00671778 -0.000517849 0)
(-0.00631566 -0.000529977 0)
(-0.00590494 -0.000540517 0)
(-0.00548682 -0.000549415 0)
(-0.00506255 -0.00055662 0)
(-0.00463341 -0.000562093 0)
(-0.0042007 -0.000565803 0)
(-0.00376574 -0.000567727 0)
(-0.00332986 -0.000567854 0)
(-0.00289442 -0.000566179 0)
(-0.00246074 -0.00056271 0)
(-0.00203016 -0.000557462 0)
(-0.001604 -0.000550461 0)
(-0.00118356 -0.000541744 0)
(-0.000770107 -0.000531355 0)
(-0.000364869 -0.000519347 0)
(3.09592e-05 -0.000505785 0)
(0.000416233 -0.000490738 0)
(0.000789863 -0.000474285 0)
(0.00115082 -0.000456513 0)
(0.00149812 -0.000437513 0)
(0.00183089 -0.000417384 0)
(0.00214828 -0.000396229 0)
(0.00244956 -0.000374155 0)
(0.00273404 -0.000351273 0)
(0.00300115 -0.000327697 0)
(0.00325036 -0.000303541 0)
(0.00348127 -0.000278921 0)
(0.00369353 -0.000253953 0)
(0.00388689 -0.000228751 0)
(0.00406119 -0.000203429 0)
(0.00421633 -0.000178096 0)
(0.00435233 -0.000152859 0)
(0.00446924 -0.00012782 0)
(0.00456722 -0.000103079 0)
(0.00464649 -7.87266e-05 0)
(0.00470734 -5.48502e-05 0)
(0.00475013 -3.153e-05 0)
(0.00477527 -8.83993e-06 0)
(0.00478323 1.31533e-05 0)
(0.00477452 3.43898e-05 0)
(0.00474972 5.48168e-05 0)
(0.00470943 7.43886e-05 0)
(0.00465429 9.30663e-05 0)
(0.00458496 0.000110818 0)
(0.00450214 0.000127617 0)
(0.00440655 0.000143443 0)
(0.00429893 0.00015828 0)
(0.00418002 0.000172118 0)
(0.00405058 0.000184948 0)
(0.00391138 0.000196765 0)
(0.00376321 0.000207564 0)
(0.00360683 0.00021734 0)
(0.00344306 0.000226086 0)
(0.00327269 0.000233793 0)
(0.00309654 0.000240445 0)
(0.00291545 0.000246021 0)
(0.00273026 0.00025049 0)
(0.00254187 0.000253809 0)
(0.00235119 0.000255925 0)
(0.00215921 0.000256766 0)
(0.00196693 0.000256246 0)
(0.00177546 0.000254257 0)
(0.00158598 0.00025067 0)
(0.00139975 0.000245337 0)
(0.00121816 0.000238084 0)
(0.00104269 0.000228719 0)
(0.000874977 0.000217031 0)
(0.000716754 0.000202803 0)
(0.000569883 0.000185828 0)
(0.000436311 0.000165933 0)
(0.000318015 0.000143039 0)
(0.000216903 0.000117242 0)
(0.000134647 8.89799e-05 0)
(7.24058e-05 5.92974e-05 0)
(3.04223e-05 3.03033e-05 0)
(7.54199e-06 6.04812e-06 0)
(-4.41776e-08 -5.57524e-06 0)
(1.81296e-06 -1.07457e-05 0)
(1.44533e-05 -3.14397e-05 0)
(3.50685e-05 -4.90203e-05 0)
(6.22884e-05 -6.20582e-05 0)
(9.36083e-05 -7.04018e-05 0)
(0.000127078 -7.44412e-05 0)
(0.000160974 -7.47676e-05 0)
(0.000193784 -7.20173e-05 0)
(0.000224232 -6.67936e-05 0)
(0.000251274 -5.96334e-05 0)
(0.000274077 -5.09982e-05 0)
(0.000291996 -4.12752e-05 0)
(0.000304546 -3.07832e-05 0)
(0.00031138 -1.97805e-05 0)
(0.000312261 -8.47244e-06 0)
(0.000307044 2.98124e-06 0)
(0.000295656 1.44597e-05 0)
(0.000278076 2.58749e-05 0)
(0.000254324 3.71667e-05 0)
(0.000224447 4.82979e-05 0)
(0.000188507 5.92503e-05 0)
(0.000146577 7.00211e-05 0)
(9.87258e-05 8.06196e-05 0)
(4.50206e-05 9.10647e-05 0)
(-1.44826e-05 0.000101382 0)
(-7.97405e-05 0.000111604 0)
(-0.000150725 0.000121763 0)
(-0.000227425 0.000131896 0)
(-0.000309846 0.000142038 0)
(-0.000398012 0.000152226 0)
(-0.000491963 0.000162493 0)
(-0.000591755 0.00017287 0)
(-0.000697458 0.000183386 0)
(-0.000809156 0.000194066 0)
(-0.000926945 0.000204931 0)
(-0.00105093 0.000215998 0)
(-0.00118122 0.000227281 0)
(-0.00131793 0.000238789 0)
(-0.00146118 0.000250527 0)
(-0.00161109 0.000262497 0)
(-0.00176777 0.000274694 0)
(-0.00193135 0.000287113 0)
(-0.00210193 0.000299744 0)
(-0.00227962 0.000312572 0)
(-0.0024645 0.000325579 0)
(-0.00265665 0.000338747 0)
(-0.00285615 0.000352051 0)
(-0.00306304 0.000365465 0)
(-0.00327736 0.000378959 0)
(-0.00349913 0.000392502 0)
(-0.00372835 0.000406059 0)
(-0.003965 0.000419593 0)
(-0.00420904 0.000433064 0)
(-0.00446039 0.00044643 0)
(-0.00471896 0.000459647 0)
(-0.00498465 0.000472667 0)
(-0.00525729 0.000485441 0)
(-0.00553673 0.000497918 0)
(-0.00582274 0.000510044 0)
(-0.00611511 0.000521762 0)
(-0.00641355 0.000533015 0)
(-0.00671778 0.000543741 0)
(-0.00702745 0.00055388 0)
(-0.0073422 0.000563366 0)
(-0.00766163 0.000572135 0)
(-0.00798529 0.000580119 0)
(-0.00831271 0.00058725 0)
(-0.00864336 0.000593459 0)
(-0.00897671 0.000598677 0)
(-0.00931216 0.000602833 0)
(-0.00964908 0.000605856 0)
(-0.00998681 0.000607678 0)
(-0.0103247 0.00060823 0)
(-0.0106619 0.000607442 0)
(-0.0109977 0.000605251 0)
(-0.0113313 0.00060159 0)
(-0.0116619 0.0005964 0)
(-0.0119887 0.000589621 0)
(-0.0123106 0.000581199 0)
(-0.0126268 0.000571082 0)
(-0.0129364 0.000559225 0)
(-0.0132384 0.000545586 0)
(-0.0135318 0.000530131 0)
(-0.0138157 0.000512828 0)
(-0.014089 0.000493657 0)
(-0.0143507 0.000472601 0)
(-0.0145998 0.000449651 0)
(-0.0148353 0.000424808 0)
(-0.0150563 0.000398079 0)
(-0.0152616 0.000369481 0)
(-0.0154505 0.00033904 0)
(-0.0156218 0.000306791 0)
(-0.0157746 0.000272779 0)
(-0.0159082 0.000237058 0)
(-0.0160215 0.000199692 0)
(-0.0161138 0.000160755 0)
(-0.0161843 0.000120331 0)
(-0.0162323 7.85159e-05 0)
(-0.0162571 3.5412e-05 0)
(-0.0162581 -8.86642e-06 0)
(-0.0162347 -5.41963e-05 0)
(-0.0161865 -0.000100445 0)
(-0.016113 -0.000147472 0)
(-0.016014 -0.000195128 0)
(-0.0158892 -0.000243256 0)
(-0.0157384 -0.000291691 0)
(-0.0155615 -0.000340262 0)
(-0.0153587 -0.000388793 0)
(-0.0151299 -0.000437102 0)
(-0.0148754 -0.000485004 0)
(-0.0145955 -0.00053231 0)
(-0.0142906 -0.000578827 0)
(-0.0139611 -0.000624365 0)
(-0.0136078 -0.000668731 0)
(-0.0132312 -0.000711734 0)
(-0.0128323 -0.000753183 0)
(-0.0124117 -0.000792894 0)
(-0.0119706 -0.000830686 0)
(-0.01151 -0.000866382 0)
(-0.0110311 -0.000899814 0)
(-0.010535 -0.000930823 0)
(-0.0100232 -0.000959256 0)
(-0.00949694 -0.000984974 0)
(-0.00895773 -0.00100785 0)
(-0.00840708 -0.00102776 0)
(-0.00784657 -0.00104461 0)
(-0.00727781 -0.0010583 0)
(-0.00670246 -0.00106877 0)
(-0.00612223 -0.00107596 0)
(-0.00553882 -0.00107982 0)
(-0.00495398 -0.00108033 0)
(-0.00436944 -0.00107749 0)
(-0.00378697 -0.0010713 0)
(-0.00320828 -0.0010618 0)
(-0.0026351 -0.00104903 0)
(-0.00206912 -0.00103305 0)
(-0.00151201 -0.00101395 0)
(-0.000965369 -0.000991821 0)
(-0.000430768 -0.000966775 0)
(9.02872e-05 -0.000938943 0)
(0.000596359 -0.000908466 0)
(0.00108608 -0.0008755 0)
(0.00155817 -0.000840213 0)
(0.00201142 -0.000802783 0)
(0.00244473 -0.000763398 0)
(0.00285708 -0.000722255 0)
(0.00324757 -0.000679555 0)
(0.00361537 -0.000635508 0)
(0.00395979 -0.000590323 0)
(0.00428024 -0.000544214 0)
(0.00457622 -0.000497394 0)
(0.00484736 -0.000450076 0)
(0.00509338 -0.000402467 0)
(0.00531413 -0.000354775 0)
(0.00550955 -0.000307197 0)
(0.00567968 -0.000259926 0)
(0.00582467 -0.000213146 0)
(0.00594476 -0.000167032 0)
(0.00604028 -0.000121749 0)
(0.00611166 -7.74486e-05 0)
(0.00615938 -3.42738e-05 0)
(0.00618402 7.64637e-06 0)
(0.00618622 4.81953e-05 0)
(0.0061667 8.72688e-05 0)
(0.0061262 0.000124776 0)
(0.00606555 0.000160637 0)
(0.0059856 0.000194786 0)
(0.00588725 0.000227166 0)
(0.00577142 0.000257733 0)
(0.00563909 0.000286449 0)
(0.00549122 0.000313286 0)
(0.00532882 0.000338222 0)
(0.00515291 0.000361238 0)
(0.00496454 0.000382318 0)
(0.00476475 0.000401445 0)
(0.00455462 0.000418601 0)
(0.00433522 0.000433759 0)
(0.00410768 0.000446887 0)
(0.00387312 0.000457937 0)
(0.00363272 0.000466849 0)
(0.00338767 0.000473542 0)
(0.00313923 0.000477912 0)
(0.00288872 0.00047983 0)
(0.00263753 0.000479138 0)
(0.00238712 0.000475644 0)
(0.00213906 0.000469123 0)
(0.00189502 0.000459315 0)
(0.00165682 0.000445928 0)
(0.00142637 0.00042864 0)
(0.00120573 0.00040711 0)
(0.000997088 0.000381002 0)
(0.00080273 0.000350009 0)
(0.000625009 0.000313912 0)
(0.000466271 0.000272668 0)
(0.000328741 0.000226549 0)
(0.000214361 0.000176381 0)
(0.000124518 0.000123912 0)
(5.97721e-05 7.23766e-05 0)
(1.98944e-05 2.74941e-05 0)
(1.63387e-06 -5.26076e-07 0)
(2.14678e-06 -1.82196e-05 0)
(1.68916e-05 -4.98101e-05 0)
(4.03741e-05 -7.51356e-05 0)
(7.07766e-05 -9.33958e-05 0)
(0.000105121 -0.000104753 0)
(0.000141209 -0.000109844 0)
(0.000177142 -0.000109507 0)
(0.000211265 -0.000104625 0)
(0.000242174 -9.60441e-05 0)
(0.00026871 -8.45283e-05 0)
(0.000289933 -7.07459e-05 0)
(0.000305106 -5.52663e-05 0)
(0.000313662 -3.85646e-05 0)
(0.000315188 -2.10308e-05 0)
(0.000309393 -2.97821e-06 0)
(0.000296089 1.53467e-05 0)
(0.000275171 3.37553e-05 0)
(0.000246594 5.2109e-05 0)
(0.000210361 7.03112e-05 0)
(0.000166507 8.83007e-05 0)
(0.000115088 0.000106046 0)
(5.61678e-05 0.000123539 0)
(-1.01858e-05 0.000140792 0)
(-8.39112e-05 0.000157831 0)
(-0.000164957 0.000174695 0)
(-0.000253286 0.000191429 0)
(-0.000348878 0.000208085 0)
(-0.000451732 0.000224716 0)
(-0.000561865 0.000241378 0)
(-0.000679316 0.000258125 0)
(-0.000804142 0.000275008 0)
(-0.000936417 0.000292074 0)
(-0.00107623 0.000309368 0)
(-0.0012237 0.000326926 0)
(-0.00137893 0.000344782 0)
(-0.00154205 0.00036296 0)
(-0.00171321 0.000381481 0)
(-0.00189254 0.000400358 0)
(-0.00208018 0.000419597 0)
(-0.00227628 0.000439198 0)
(-0.00248098 0.000459155 0)
(-0.00269441 0.000479455 0)
(-0.00291671 0.000500081 0)
(-0.00314797 0.000521008 0)
(-0.00338832 0.000542207 0)
(-0.00363783 0.000563643 0)
(-0.00389659 0.000585278 0)
(-0.00416462 0.000607065 0)
(-0.00444198 0.000628958 0)
(-0.00472866 0.000650902 0)
(-0.00502465 0.000672839 0)
(-0.0053299 0.000694708 0)
(-0.00564434 0.000716443 0)
(-0.00596786 0.000737973 0)
(-0.00630032 0.000759227 0)
(-0.00664155 0.000780124 0)
(-0.00699136 0.000800586 0)
(-0.00734949 0.000820525 0)
(-0.00771567 0.000839855 0)
(-0.00808958 0.000858483 0)
(-0.00847086 0.000876314 0)
(-0.0088591 0.00089325 0)
(-0.00925387 0.00090919 0)
(-0.00965466 0.00092403 0)
(-0.010061 0.000937664 0)
(-0.0104722 0.000949984 0)
(-0.0108877 0.000960882 0)
(-0.0113069 0.000970245 0)
(-0.011729 0.000977963 0)
(-0.0121532 0.000983924 0)
(-0.0125788 0.000988018 0)
(-0.0130049 0.000990134 0)
(-0.0134307 0.000990163 0)
(-0.0138551 0.000988 0)
(-0.0142772 0.000983541 0)
(-0.0146961 0.000976687 0)
(-0.0151105 0.000967345 0)
(-0.0155196 0.000955423 0)
(-0.0159221 0.000940839 0)
(-0.0163169 0.000923517 0)
(-0.0167028 0.000903387 0)
(-0.0170787 0.00088039 0)
(-0.0174434 0.000854474 0)
(-0.0177956 0.0008256 0)
(-0.018134 0.000793735 0)
(-0.0184576 0.000758862 0)
(-0.018765 0.000720975 0)
(-0.019055 0.000680078 0)
(-0.0193264 0.000636192 0)
(-0.019578 0.000589349 0)
(-0.0198087 0.000539598 0)
(-0.0200173 0.000487 0)
(-0.0202026 0.000431633 0)
(-0.0203637 0.000373588 0)
(-0.0204995 0.000312975 0)
(-0.020609 0.000249915 0)
(-0.0206914 0.000184548 0)
(-0.0207457 0.000117028 0)
(-0.0207712 4.75236e-05 0)
(-0.0207672 -2.37815e-05 0)
(-0.020733 -9.66889e-05 0)
(-0.0206682 -0.000170987 0)
(-0.0205723 -0.000246449 0)
(-0.0204449 -0.00032284 0)
(-0.0202857 -0.000399909 0)
(-0.0200947 -0.000477396 0)
(-0.0198718 -0.000555032 0)
(-0.0196169 -0.000632539 0)
(-0.0193304 -0.000709632 0)
(-0.0190125 -0.000786021 0)
(-0.0186635 -0.000861409 0)
(-0.0182841 -0.000935498 0)
(-0.0178748 -0.00100799 0)
(-0.0174363 -0.00107858 0)
(-0.0169696 -0.00114698 0)
(-0.0164755 -0.0012129 0)
(-0.0159553 -0.00127603 0)
(-0.01541 -0.00133611 0)
(-0.014841 -0.00139287 0)
(-0.0142496 -0.00144603 0)
(-0.0136374 -0.00149536 0)
(-0.0130059 -0.00154062 0)
(-0.0123568 -0.00158159 0)
(-0.0116919 -0.00161807 0)
(-0.0110129 -0.00164989 0)
(-0.0103218 -0.00167689 0)
(-0.00962045 -0.00169892 0)
(-0.00891087 -0.00171587 0)
(-0.00819509 -0.00172766 0)
(-0.00747517 -0.00173422 0)
(-0.00675317 -0.00173551 0)
(-0.00603119 -0.00173152 0)
(-0.00531132 -0.00172226 0)
(-0.00459563 -0.00170778 0)
(-0.00388619 -0.00168815 0)
(-0.00318504 -0.00166345 0)
(-0.00249416 -0.00163382 0)
(-0.00181552 -0.0015994 0)
(-0.00115098 -0.00156036 0)
(-0.000502392 -0.0015169 0)
(0.000128513 -0.00146924 0)
(0.000740066 -0.00141761 0)
(0.0013307 -0.00136227 0)
(0.00189892 -0.00130349 0)
(0.00244339 -0.00124157 0)
(0.00296282 -0.00117681 0)
(0.00345609 -0.00110952 0)
(0.00392216 -0.00104001 0)
(0.00436015 -0.000968634 0)
(0.00476927 -0.000895704 0)
(0.00514889 -0.000821559 0)
(0.00549848 -0.000746528 0)
(0.00581766 -0.000670941 0)
(0.00610618 -0.00059512 0)
(0.0063639 -0.000519378 0)
(0.0065908 -0.00044402 0)
(0.00678701 -0.000369339 0)
(0.00695274 -0.000295613 0)
(0.00708834 -0.000223105 0)
(0.00719426 -0.000152063 0)
(0.00727103 -8.27154e-05 0)
(0.00731929 -1.52735e-05 0)
(0.00733978 5.0071e-05 0)
(0.00733329 0.000113146 0)
(0.00730072 0.000173797 0)
(0.007243 0.000231892 0)
(0.00716114 0.000287313 0)
(0.0070562 0.000339962 0)
(0.00692929 0.000389756 0)
(0.00678156 0.000436627 0)
(0.0066142 0.000480517 0)
(0.0064284 0.000521381 0)
(0.00622543 0.000559177 0)
(0.00600654 0.00059387 0)
(0.00577305 0.000625421 0)
(0.00552625 0.000653792 0)
(0.00526752 0.000678933 0)
(0.00499821 0.000700781 0)
(0.00471974 0.000719258 0)
(0.00443358 0.000734262 0)
(0.00414121 0.000745663 0)
(0.0038442 0.000753298 0)
(0.00354419 0.000756967 0)
(0.00324288 0.000756429 0)
(0.00294208 0.000751396 0)
(0.0026437 0.000741536 0)
(0.00234976 0.000726469 0)
(0.00206243 0.000705773 0)
(0.00178397 0.000678997 0)
(0.0015168 0.000645673 0)
(0.00126345 0.000605351 0)
(0.00102652 0.000557649 0)
(0.000808683 0.000502326 0)
(0.000612562 0.000439408 0)
(0.000440659 0.000369371 0)
(0.000295204 0.000293424 0)
(0.000177946 0.00021393 0)
(9.00341e-05 0.000134998 0)
(3.25979e-05 6.34434e-05 0)
(3.27541e-06 1.06112e-05 0)
(2.317e-06 -2.66038e-05 0)
(1.81505e-05 -7.01005e-05 0)
(4.30294e-05 -0.000103501 0)
(7.4777e-05 -0.000126849 0)
(0.000110044 -0.000140793 0)
(0.000146417 -0.000146323 0)
(0.00018186 -0.000144575 0)
(0.000214614 -0.000136704 0)
(0.000243195 -0.000123813 0)
(0.00026637 -0.000106901 0)
(0.000283136 -8.68514e-05 0)
(0.000292694 -6.44247e-05 0)
(0.000294426 -4.02618e-05 0)
(0.000287871 -1.48934e-05 0)
(0.0002727 1.12498e-05 0)
(0.000248691 3.78261e-05 0)
(0.000215709 6.45721e-05 0)
(0.00017369 9.12919e-05 0)
(0.000122616 0.000117848 0)
(6.25087e-05 0.000144151 0)
(-6.58977e-06 0.000170154 0)
(-8.46253e-05 0.000195843 0)
(-0.000171541 0.000221231 0)
(-0.000267287 0.000246353 0)
(-0.00037182 0.000271259 0)
(-0.000485117 0.000296012 0)
(-0.00060717 0.000320682 0)
(-0.000737991 0.000345344 0)
(-0.000877617 0.000370072 0)
(-0.0010261 0.000394942 0)
(-0.00118352 0.000420024 0)
(-0.00134998 0.000445383 0)
(-0.00152557 0.00047108 0)
(-0.00171045 0.000497166 0)
(-0.00190473 0.000523684 0)
(-0.00210859 0.000550671 0)
(-0.00232218 0.00057815 0)
(-0.00254566 0.00060614 0)
(-0.00277919 0.000634646 0)
(-0.00302295 0.000663666 0)
(-0.00327708 0.000693188 0)
(-0.00354175 0.000723193 0)
(-0.00381708 0.000753651 0)
(-0.00410321 0.000784524 0)
(-0.00440025 0.000815768 0)
(-0.00470827 0.000847329 0)
(-0.00502736 0.000879148 0)
(-0.00535756 0.000911157 0)
(-0.00569887 0.000943281 0)
(-0.0060513 0.000975441 0)