/*--------------------------------*- C++ -*----------------------------------*\
  =========                 |
  \\      /  F ield         | OpenFOAM: The Open Source CFD Toolbox
   \\    /   O peration     | Website:  https://openfoam.org
    \\  /    A nd           | Version:  6
     \\/     M anipulation  |
\*---------------------------------------------------------------------------*/
FoamFile
{
    version     2.0;
    format      ascii;
    class       volScalarField;
    location    "./ITHACAoutput/Offline/1";
    object      p;
}
// * * * * * * * * * * * * * * * * * * * * * * * * * * * * * * * * * * * * * //

dimensions      [0 2 -2 0 0 0 0];

internalField   nonuniform List<scalar> 
9000
(
7.62131
4.23447
3.29546
2.89867
2.69215
2.57403
2.4976
2.4423
2.39852
2.36124
2.32765
2.29611
2.26564
2.23564
2.20577
2.17582
2.1457
2.11535
2.08478
2.05399
2.02301
1.99186
1.96059
1.92921
1.89776
1.86626
1.83473
1.80321
1.77171
1.74024
1.70884
1.67752
1.64632
1.61525
1.58435
1.55366
1.52322
1.4931
1.46337
1.43413
1.40551
1.37771
1.35098
1.32571
1.30246
1.282
1.26466
1.24854
1.24838
1.17938
5.7401
4.01989
3.33747
2.97111
2.7559
2.62233
2.53279
2.46777
2.41697
2.37463
2.33738
2.30317
2.27074
2.23931
2.20839
2.17768
2.147
2.11626
2.0854
2.05441
2.02329
1.99205
1.96071
1.92929
1.89782
1.86631
1.83478
1.80325
1.77174
1.74027
1.70885
1.67752
1.64628
1.61517
1.58421
1.55343
1.52288
1.49259
1.46263
1.43307
1.40399
1.37551
1.34776
1.32091
1.29512
1.27036
1.24586
1.21846
1.18727
1.088
4.60087
3.77938
3.32894
3.00978
2.80039
2.66064
2.56295
2.49075
2.43425
2.38754
2.34698
2.31027
2.27597
2.24314
2.21117
2.17968
2.14843
2.11727
2.08611
2.0549
2.02363
1.99228
1.96087
1.92941
1.8979
1.86636
1.83482
1.80328
1.77176
1.74027
1.70884
1.67748
1.64621
1.61504
1.58401
1.55313
1.52243
1.49195
1.46171
1.43177
1.40215
1.3729
1.34402
1.31546
1.28699
1.25796
1.22668
1.18868
1.13878
1.04584
3.98494
3.54805
3.25074
2.99534
2.81052
2.67766
2.58
2.50558
2.44639
2.39717
2.35447
2.31602
2.28034
2.24643
2.21363
2.1815
2.14977
2.11824
2.08681
2.0554
2.02398
1.99254
1.96105
1.92953
1.89799
1.86643
1.83486
1.8033
1.77176
1.74026
1.7088
1.6774
1.64609
1.61486
1.58374
1.55275
1.5219
1.49122
1.46071
1.43038
1.40024
1.37025
1.34031
1.31024
1.27956
1.24736
1.21173
1.16857
1.11316
1.03154
3.57715
3.34238
3.14875
2.95398
2.79931
2.6797
2.58704
2.51383
2.45423
2.40399
2.36013
2.32059
2.28396
2.24925
2.21579
2.18315
2.15101
2.11917
2.0875
2.05591
2.02435
1.9928
1.96124
1.92967
1.89808
1.86649
1.83489
1.80331
1.77175
1.74022
1.70873
1.6773
1.64593
1.61464
1.58343
1.55232
1.52132
1.49043
1.45964
1.42894
1.3983
1.36762
1.33675
1.30539
1.273
1.23859
1.20041
1.1553
1.09977
1.028
3.28432
3.16781
3.04589
2.90146
2.77583
2.67161
2.58659
2.5168
2.45843
2.40833
2.36413
2.32405
2.28684
2.25159
2.21766
2.18462
2.15215
2.12004
2.08816
2.05641
2.02472
1.99308
1.96144
1.92981
1.89818
1.86655
1.83493
1.80332
1.77173
1.74017
1.70865
1.67717
1.64575
1.61438
1.58309
1.55186
1.5207
1.4896
1.45855
1.4275
1.3964
1.36511
1.33345
1.30107
1.26742
1.23156
1.19208
1.14669
1.0931
1.02951
3.07217
3.02356
2.95011
2.84527
2.74534
2.65663
2.58045
2.51544
2.45947
2.41044
2.36656
2.32643
2.28899
2.25344
2.2192
2.18587
2.15315
2.12083
2.08878
2.05688
2.02508
1.99335
1.96164
1.92995
1.89827
1.86661
1.83495
1.80332
1.7717
1.7401
1.70854
1.67702
1.64554
1.61411
1.58272
1.55137
1.52007
1.48878
1.45748
1.42611
1.3946
1.3628
1.3305
1.29736
1.26286
1.22619
1.18627
1.14156
1.09071
1.03385
2.91601
2.90554
2.8643
2.78973
2.71157
2.63734
2.57027
2.51075
2.45794
2.41063
2.3676
2.32782
2.29044
2.25481
2.22042
2.18691
2.15402
2.12154
2.08934
2.05732
2.02543
1.99361
1.96183
1.93009
1.89837
1.86666
1.83498
1.80331
1.77165
1.74003
1.70843
1.67686
1.64532
1.61381
1.58234
1.55088
1.51943
1.48797
1.45645
1.42481
1.39296
1.36075
1.32797
1.29431
1.2593
1.22231
1.18253
1.13901
1.09109
1.03967
2.79843
2.80914
2.78921
2.7374
2.67713
2.61581
2.5575
2.50367
2.45443
2.40926
2.36747
2.32835
2.29128
2.25574
2.22133
2.18775
2.15474
2.12215
2.08984
2.05773
2.02574
1.99385
1.96202
1.93022
1.89846
1.86671
1.83499
1.80329
1.7716
1.73994
1.7083
1.67669
1.64509
1.61352
1.58196
1.5504
1.51882
1.4872
1.45549
1.42362
1.3915
1.35899
1.32588
1.29189
1.25665
1.21968
1.18041
1.13832
1.09317
1.04612
2.70808
2.73031
2.72449
2.68961
2.64375
2.59357
2.54333
2.49506
2.44951
2.40673
2.36641
2.32817
2.29158
2.25628
2.22196
2.18838
2.15533
2.12266
2.09028
2.05809
2.02603
1.99408
1.96219
1.93035
1.89854
1.86676
1.835
1.80326
1.77155
1.73985
1.70817
1.67651
1.64486
1.61322
1.58158
1.54993
1.51824
1.48649
1.45462
1.42257
1.39025
1.35752
1.3242
1.29007
1.25482
1.2181
1.17955
1.13893
1.09628
1.05274
2.63749
2.66576
2.66929
2.64691
2.6125
2.57173
2.52867
2.48561
2.4437
2.40337
2.36466
2.32742
2.29145
2.2565
2.22235
2.18883
2.15578
2.12309
2.09065
2.0584
2.02629
1.99428
1.96234
1.93046
1.89861
1.86679
1.835
1.80323
1.77148
1.73975
1.70803
1.67632
1.64463
1.61293
1.58122
1.54949
1.51771
1.48584
1.45385
1.42167
1.3892
1.35634
1.32293
1.28878
1.25367
1.21735
1.17964
1.14044
1.09997
1.05926
2.58162
2.61284
2.62257
2.60942
2.58402
2.55106
2.51425
2.47592
2.43744
2.39951
2.36244
2.32628
2.29099
2.25645
2.22254
2.18914
2.15613
2.12343
2.09096
2.05867
2.02652
1.99446
1.96248
1.93056
1.89867
1.86682
1.835
1.8032
1.77141
1.73965
1.70789
1.67614
1.6444
1.61265
1.58088
1.54908
1.51722
1.48527
1.45318
1.4209
1.38835
1.35543
1.32201
1.28795
1.25309
1.21727
1.18041
1.14254
1.10395
1.06552
2.53704
2.5695
2.58335
2.57699
2.55863
2.53208
2.5006
2.46645
2.4311
2.39544
2.35996
2.32489
2.29031
2.25622
2.22257
2.18931
2.15637
2.12369
2.09122
2.0589
2.02671
1.99462
1.9626
1.93064
1.89872
1.86684
1.83499
1.80315
1.77134
1.73954
1.70775
1.67597
1.64418
1.61238
1.58056
1.5487
1.51678
1.48477
1.45262
1.42028
1.38769
1.35477
1.32141
1.28751
1.25297
1.21769
1.18167
1.14501
1.10803
1.07145
2.50135
2.53418
2.55077
2.5494
2.5365
2.51512
2.4881
2.45756
2.425
2.39141
2.35741
2.32337
2.28949
2.25585
2.22249
2.1894
2.15654
2.1239
2.09142
2.05909
2.02688
1.99475
1.9627
1.93071
1.89876
1.86685
1.83496
1.8031
1.77126
1.73943
1.70761
1.67579
1.64397
1.61213
1.58027
1.54836
1.5164
1.48434
1.45215
1.41979
1.3872
1.35432
1.32108
1.28739
1.2532
1.21848
1.18326
1.14768
1.11206
1.07701
2.47292
2.50566
2.52409
2.52637
2.51765
2.50039
2.47703
2.44953
2.41937
2.3876
2.35494
2.32185
2.28862
2.25542
2.22234
2.18941
2.15665
2.12404
2.09158
2.05924
2.02701
1.99486
1.96278
1.93076
1.89878
1.86684
1.83494
1.80305
1.77118
1.73932
1.70747
1.67562
1.64377
1.6119
1.58
1.54806
1.51606
1.48398
1.45177
1.41942
1.38686
1.35406
1.32097
1.28752
1.25371
1.21953
1.18504
1.15043
1.11596
1.08216
2.45057
2.48304
2.50269
2.50763
2.50208
2.48803
2.46759
2.44258
2.41442
2.3842
2.35269
2.32043
2.28778
2.25498
2.22215
2.18938
2.15671
2.12415
2.0917
2.05936
2.02711
1.99494
1.96284
1.93079
1.89879
1.86683
1.8349
1.80299
1.7711
1.73921
1.70734
1.67546
1.64358
1.61168
1.57976
1.54779
1.51577
1.48367
1.45147
1.41914
1.38665
1.35395
1.32103
1.28785
1.25441
1.22074
1.18693
1.15316
1.11968
1.08691
2.4335
2.46566
2.48611
2.49293
2.48972
2.47809
2.45992
2.43686
2.4103
2.38133
2.35076
2.3192
2.28704
2.25456
2.22195
2.18932
2.15673
2.12421
2.09178
2.05944
2.02718
1.995
1.96288
1.93081
1.89879
1.86681
1.83485
1.80292
1.77101
1.7391
1.70721
1.67531
1.6434
1.61148
1.57953
1.54755
1.51552
1.48343
1.45124
1.41895
1.38653
1.35396
1.32122
1.2883
1.25522
1.22204
1.18884
1.1558
1.12315
1.09125
2.42113
2.45301
2.47397
2.48209
2.48052
2.47063
2.4541
2.43248
2.40711
2.37909
2.34925
2.31821
2.28643
2.25422
2.22178
2.18926
2.15674
2.12425
2.09183
2.05949
2.02723
1.99503
1.9629
1.93081
1.89878
1.86677
1.8348
1.80285
1.77092
1.73899
1.70707
1.67515
1.64323
1.61129
1.57933
1.54734
1.51531
1.48322
1.45107
1.41883
1.38649
1.35405
1.3215
1.28884
1.25611
1.22336
1.19071
1.15831
1.12636
1.09517
2.41307
2.44475
2.46602
2.47494
2.47442
2.46565
2.45019
2.42952
2.40495
2.37756
2.3482
2.31752
2.286
2.25397
2.22166
2.18921
2.15673
2.12427
2.09186
2.05952
2.02725
1.99504
1.96289
1.9308
1.89875
1.86673
1.83474
1.80277
1.77082
1.73888
1.70694
1.67501
1.64307
1.61112
1.57914
1.54715
1.51512
1.48305
1.45093
1.41875
1.38651
1.3542
1.32183
1.28941
1.257
1.22466
1.19249
1.16063
1.12929
1.0987
2.4091
2.44067
2.46208
2.47139
2.47138
2.46316
2.44823
2.42803
2.40385
2.37678
2.34766
2.31717
2.28578
2.25384
2.22158
2.18918
2.15672
2.12427
2.09187
2.05952
2.02724
1.99503
1.96287
1.93077
1.8987
1.86667
1.83467
1.80269
1.77072
1.73877
1.70681
1.67486
1.64291
1.61095
1.57897
1.54697
1.51495
1.48291
1.45082
1.41871
1.38655
1.35437
1.32218
1.29
1.25788
1.22589
1.19414
1.16275
1.13191
1.10182
2.4091
2.44067
2.46208
2.47139
2.47138
2.46316
2.44823
2.42803
2.40385
2.37677
2.34766
2.31717
2.28577
2.25383
2.22157
2.18917
2.1567
2.12425
2.09185
2.0595
2.02721
1.99499
1.96283
1.93072
1.89864
1.8666
1.83459
1.8026
1.77062
1.73865
1.70669
1.67472
1.64276
1.61078
1.5788
1.54681
1.5148
1.48277
1.45073
1.41868
1.38661
1.35455
1.32252
1.29055
1.25869
1.22702
1.19563
1.16464
1.13422
1.10454
2.41307
2.44475
2.46601
2.47494
2.47441
2.46565
2.45019
2.42952
2.40494
2.37755
2.34819
2.31751
2.28599
2.25395
2.22163
2.18918
2.15669
2.12422
2.0918
2.05945
2.02716
1.99494
1.96277
1.93065
1.89857
1.86653
1.8345
1.8025
1.77051
1.73853
1.70656
1.67458
1.64261
1.61063
1.57864
1.54665
1.51465
1.48265
1.45064
1.41864
1.38666
1.35471
1.32283
1.29104
1.25941
1.22801
1.19693
1.16629
1.13621
1.10687
2.42112
2.453
2.47396
2.48208
2.48051
2.47063
2.45409
2.43247
2.4071
2.37908
2.34923
2.31819
2.28641
2.25419
2.22174
2.18921
2.15667
2.12417
2.09174
2.05938
2.02709
1.99486
1.96269
1.93057
1.89849
1.86644
1.83441
1.8024
1.7704
1.73841
1.70642
1.67444
1.64245
1.61047
1.57848
1.54649
1.5145
1.48251
1.45054
1.41859
1.38668
1.35484
1.32308
1.29146
1.26002
1.22885
1.19803
1.16767
1.13788
1.10882
2.43349
2.46565
2.4861
2.49292
2.48972
2.47809
2.45991
2.43685
2.41028
2.38131
2.35074
2.31917
2.287
2.25452
2.2219
2.18925
2.15664
2.12411
2.09165
2.05928
2.02698
1.99476
1.96259
1.93047
1.89839
1.86634
1.83431
1.80229
1.77029
1.73829
1.70629
1.6743
1.6423
1.6103
1.57831
1.54632
1.51434
1.48237
1.45043
1.41852
1.38667
1.35491
1.32326
1.29177
1.2605
1.22952
1.19892
1.16878
1.13923
1.11039
2.45056
2.48303
2.50268
2.50762
2.50207
2.48802
2.46758
2.44257
2.4144
2.38418
2.35266
2.3204
2.28774
2.25492
2.22208
2.18929
2.1566
2.12401
2.09153
2.05915
2.02686
1.99464
1.96248
1.93036
1.89829
1.86623
1.8342
1.80218
1.77017
1.73816
1.70616
1.67415
1.64214
1.61014
1.57814
1.54614
1.51416
1.4822
1.45028
1.41841
1.38661
1.35491
1.32335
1.29197
1.26084
1.23001
1.19957
1.16962
1.14025
1.11159
2.4729
2.50564
2.52408
2.52636
2.51765
2.50038
2.47702
2.44952
2.41935
2.38758
2.35491
2.32181
2.28857
2.25536
2.22226
2.18931
2.15652
2.12388
2.09138
2.059
2.02671
1.9945
1.96235
1.93024
1.89817
1.86612
1.83409
1.80207
1.77005
1.73803
1.70602
1.674
1.64198
1.60997
1.57796
1.54596
1.51397
1.48202
1.4501
1.41825
1.38649
1.35484
1.32334
1.29205
1.26101
1.2303
1.2
1.17018
1.14095
1.11242
2.50133
2.53416
2.55076
2.54939
2.53649
2.51511
2.48808
2.45754
2.42498
2.39138
2.35738
2.32333
2.28943
2.25578
2.2224
2.18928
2.1564
2.12371
2.09119
2.05881
2.02653
1.99434
1.9622
1.93011
1.89804
1.866
1.83397
1.80195
1.76993
1.73791
1.70588
1.67385
1.64182
1.60979
1.57776
1.54575
1.51376
1.4818
1.44989
1.41804
1.3863
1.35468
1.32322
1.29199
1.26102
1.2304
1.20018
1.17047
1.14134
1.11289
2.53701
2.56949
2.58334
2.57698
2.55862
2.53207
2.50058
2.46643
2.43108
2.39542
2.35993
2.32484
2.29025
2.25614
2.22247
2.18919
2.15621
2.12349
2.09096
2.05859
2.02633
1.99415
1.96204
1.92996
1.89791
1.86588
1.83385
1.80183
1.76981
1.73777
1.70574
1.6737
1.64165
1.6096
1.57756
1.54553
1.51352
1.48155
1.44963
1.41778
1.38603
1.35443
1.32299
1.29179
1.26086
1.23028
1.20013
1.17047
1.1414
1.113
2.5816
2.61282
2.62255
2.6094
2.58401
2.55105
2.51424
2.47591
2.43742
2.39949
2.3624
2.32624
2.29093
2.25637
2.22244
2.189
2.15595
2.12321
2.09069
2.05834
2.0261
1.99395
1.96186
1.92981
1.89777
1.86575
1.83373
1.80171
1.76968
1.73765
1.7056
1.67354
1.64148
1.60941
1.57735
1.54529
1.51326
1.48126
1.44932
1.41745
1.38569
1.35408
1.32264
1.29144
1.26053
1.22997
1.19983
1.1702
1.14115
1.11277
2.63747
2.66574
2.66927
2.6469
2.61249
2.57172
2.52866
2.4856
2.44368
2.40334
2.36462
2.32738
2.29139
2.25641
2.22224
2.18869
2.1556
2.12286
2.09036
2.05804
2.02585
1.99373
1.96167
1.92964
1.89763
1.86562
1.83361
1.8016
1.76956
1.73752
1.70546
1.67338
1.6413
1.60921
1.57712
1.54503
1.51297
1.48094
1.44897
1.41707
1.38528
1.35363
1.32217
1.29095
1.26001
1.22944
1.19929
1.16965
1.14059
1.11219
2.70806
2.7303
2.72448
2.6896
2.64374
2.59356
2.54332
2.49505
2.44949
2.4067
2.36638
2.32812
2.29152
2.2562
2.22185
2.18823
2.15514
2.12243
2.08998
2.05771
2.02557
1.9935
1.96148
1.92948
1.89749
1.8655
1.8335
1.80148
1.76945
1.73739
1.70532
1.67323
1.64112
1.609
1.57688
1.54476
1.51266
1.48059
1.44856
1.41662
1.38478
1.35309
1.32158
1.29031
1.25933
1.22871
1.19851
1.16883
1.13972
1.11128
2.79841
2.80912
2.7892
2.73739
2.67712
2.6158
2.55749
2.50366
2.45441
2.40924
2.36744
2.32831
2.29122
2.25566
2.22123
2.1876
2.15456
2.12191
2.08953
2.05734
2.02526
1.99325
1.96128
1.92931
1.89735
1.86538
1.83339
1.80138
1.76934
1.73727
1.70519
1.67307
1.64094
1.60879
1.57663
1.54447
1.51232
1.4802
1.44812
1.41611
1.38421
1.35245
1.32087
1.28952
1.25847
1.22777
1.1975
1.16774
1.13855
1.11003
2.91599
2.90552
2.86428
2.78972
2.71157
2.63733
2.57026
2.51074
2.45793
2.41061
2.36757
2.32778
2.29039
2.25473
2.22032
2.18678
2.15384
2.1213
2.08903
2.05694
2.02494
1.99299
1.96107
1.92915
1.89722
1.86527
1.83329
1.80128
1.76924
1.73716
1.70506
1.67293
1.64076
1.60858
1.57638
1.54417
1.51196
1.47978
1.44763
1.41555
1.38356
1.35171
1.32004
1.28859
1.25744
1.22663
1.19626
1.16638
1.13709
1.10846
3.07215
3.02355
2.9501
2.84526
2.74534
2.65662
2.58044
2.51544
2.45947
2.41043
2.36654
2.3264
2.28894
2.25337
2.21911
2.18575
2.15298
2.12061
2.08848
2.0565
2.0246
1.99273
1.96087
1.92899
1.89709
1.86516
1.8332
1.80119
1.76915
1.73707
1.70494
1.67279
1.64059
1.60837
1.57612
1.54386
1.51159
1.47934
1.44711
1.41494
1.38285
1.35089
1.3191
1.28753
1.25624
1.22531
1.19479
1.16477
1.13533
1.10656
3.28431
3.1678
3.04588
2.90145
2.77582
2.67161
2.58659
2.5168
2.45843
2.40833
2.36411
2.32403
2.2868
2.25153
2.21758
2.1845
2.15199
2.11983
2.08788
2.05604
2.02425
1.99247
1.96068
1.92885
1.89698
1.86508
1.83312
1.80112
1.76907
1.73698
1.70484
1.67266
1.64043
1.60817
1.57587
1.54355
1.51121
1.47887
1.44655
1.41428
1.38207
1.34999
1.31805
1.28634
1.25489
1.22379
1.1931
1.16291
1.1333
1.10435
3.57714
3.34238
3.14874
2.95398
2.79931
2.6797
2.58705
2.51384
2.45424
2.40399
2.36013
2.32058
2.28393
2.2492
2.21573
2.18305
2.15087
2.11898
2.08724
2.05556
2.0239
1.99222
1.96049
1.92872
1.89689
1.86501
1.83306
1.80107
1.76902
1.73691
1.70475
1.67254
1.64028
1.60797
1.57562
1.54324
1.51082
1.47839
1.44597
1.41358
1.38124
1.34901
1.31691
1.28502
1.25339
1.22209
1.1912
1.1608
1.13098
1.10183
3.98493
3.54805
3.25073
2.99534
2.81052
2.67767
2.58001
2.50559
2.4464
2.39718
2.35447
2.31603
2.28033
2.2464
2.21358
2.18143
2.14965
2.11808
2.08658
2.05509
2.02356
1.99198
1.96033
1.92861
1.89682
1.86496
1.83303
1.80103
1.76898
1.73686
1.70468
1.67245
1.64015
1.60779
1.57539
1.54293
1.51043
1.47791
1.44537
1.41285
1.38036
1.34796
1.31569
1.28359
1.25175
1.22022
1.18909
1.15846
1.1284
1.09901
4.60086
3.77937
3.32894
3.00978
2.8004
2.66066
2.56296
2.49077
2.43427
2.38756
2.347
2.31029
2.27598
2.24313
2.21114
2.17963
2.14835
2.11713
2.08591
2.05463
2.02325
1.99178
1.9602
1.92854
1.89678
1.86494
1.83302
1.80103
1.76897
1.73684
1.70464
1.67237
1.64004
1.60764
1.57517
1.54264
1.51005
1.47742
1.44476
1.41209
1.37944
1.34685
1.31437
1.28205
1.24995
1.21816
1.18676
1.15584
1.1255
1.09583
5.74009
4.01988
3.33747
2.97112
2.75591
2.62235
2.53282
2.46779
2.417
2.37467
2.33741
2.3032
2.27077
2.23933
2.20839
2.17766
2.14695
2.11616
2.08525
2.05418
2.02297
1.99161
1.96011
1.9285
1.89677
1.86495
1.83304
1.80105
1.76899
1.73684
1.70462
1.67233
1.63995
1.6075
1.57497
1.54235
1.50967
1.47692
1.44412
1.41128
1.37845
1.34564
1.31291
1.28032
1.24794
1.21583
1.1841
1.15285
1.12216
1.09216
7.62131
4.23446
3.29546
2.89867
2.69216
2.57405
2.49763
2.44234
2.39856
2.36128
2.32769
2.29616
2.26568
2.23568
2.2058
2.17584
2.14569
2.1153
2.08468
2.05382
2.02275
1.99149
1.96006
1.92849
1.89679
1.86499
1.83309
1.8011
1.76902
1.73687
1.70463
1.6723
1.63989
1.60739
1.5748
1.54212
1.50934
1.47648
1.44354
1.41055
1.37753
1.34451
1.31154
1.27869
1.24601
1.2136
1.18155
1.14996
1.11893
1.0886
0.546803
0.675337
0.682599
0.708055
0.721889
0.731802
0.73771
0.740948
0.742075
0.741565
0.739738
0.736833
0.733036
0.72849
0.723308
0.717587
0.711404
0.704824
0.697903
0.690691
0.683229
0.675552
0.667691
0.659675
0.651527
0.643268
0.634915
0.626484
0.617989
0.609441
0.60085
0.592225
0.583574
0.574901
0.566213
0.557514
0.548807
0.540096
0.531383
0.522669
0.513958
0.505248
0.496543
0.487842
0.479145
0.470453
0.461767
0.453085
0.444409
0.435738
0.427071
0.418409
0.409751
0.401097
0.392446
0.383799
0.375155
0.366514
0.357875
0.349239
0.340605
0.331972
0.323341
0.314712
0.306083
0.297456
0.28883
0.280205
0.27158
0.262956
0.254333
0.245709
0.237087
0.228464
0.219842
0.21122
0.202599
0.193977
0.185356
0.176734
0.168113
0.159492
0.150871
0.142249
0.133628
0.125007
0.116386
0.107765
0.0991436
0.0905227
0.0819013
0.0732803
0.0646591
0.056038
0.0474169
0.0387958
0.0301748
0.0215535
0.0129329
0.00431008
0.706727
0.742986
0.723597
0.734357
0.74044
0.745611
0.748426
0.749465
0.748946
0.747153
0.744297
0.740549
0.736054
0.730922
0.72525
0.719114
0.712583
0.70571
0.698545
0.69113
0.6835
0.675686
0.667716
0.659612
0.651396
0.643085
0.634693
0.626237
0.617725
0.609168
0.600575
0.591953
0.583308
0.574645
0.565969
0.557283
0.548591
0.539895
0.531197
0.522499
0.513802
0.505107
0.496415
0.487727
0.479042
0.470362
0.461686
0.453014
0.444346
0.435683
0.427023
0.418367
0.409715
0.401066
0.39242
0.383777
0.375136
0.366498
0.357862
0.349228
0.340596
0.331965
0.323336
0.314707
0.30608
0.297454
0.288828
0.280204
0.271579
0.262956
0.254333
0.24571
0.237087
0.228465
0.219843
0.211221
0.2026
0.193978
0.185356
0.176735
0.168114
0.159493
0.150871
0.14225
0.133629
0.125008
0.116386
0.107765
0.099144
0.0905227
0.0819018
0.0732806
0.0646594
0.0560383
0.0474171
0.038796
0.0301748
0.0215535
0.0129327
0.00431045
0.794338
0.792118
0.76087
0.760165
0.759316
0.759872
0.759544
0.75831
0.756078
0.752949
0.749021
0.7444
0.739181
0.733446
0.727267
0.720705
0.713815
0.706642
0.699225
0.691601
0.683799
0.675844
0.667759
0.659565
0.651278
0.642913
0.634482
0.625997
0.617467
0.6089
0.600304
0.591683
0.583044
0.57439
0.565726
0.557053
0.548375
0.539694
0.531011
0.522328
0.513646
0.504965
0.496287
0.487611
0.478939
0.470269
0.461604
0.452941
0.444282
0.435627
0.426974
0.418325
0.409678
0.401034
0.392393
0.383754
0.375117
0.366482
0.357849
0.349217
0.340587
0.331958
0.32333
0.314703
0.306077
0.297451
0.288827
0.280202
0.271579
0.262956
0.254333
0.24571
0.237088
0.228466
0.219844
0.211222
0.2026
0.193979
0.185357
0.176736
0.168115
0.159493
0.150872
0.142251
0.13363
0.125008
0.116387
0.107766
0.0991446
0.0905234
0.0819022
0.0732809
0.0646597
0.0560385
0.0474173
0.0387961
0.0301749
0.0215536
0.0129325
0.0043108
0.854324
0.830701
0.793954
0.784534
0.777864
0.774181
0.77082
0.767327
0.763368
0.75888
0.75386
0.748346
0.742387
0.736035
0.729338
0.722341
0.715086
0.707607
0.699934
0.692096
0.684118
0.67602
0.667818
0.659531
0.651171
0.642749
0.634277
0.625763
0.617213
0.608635
0.600035
0.591415
0.582781
0.574136
0.565482
0.556823
0.548159
0.539492
0.530824
0.522156
0.513488
0.504821
0.496157
0.487494
0.478834
0.470176
0.46152
0.452868
0.444218
0.43557
0.426925
0.418282
0.409641
0.401003
0.392366
0.383731
0.375097
0.366466
0.357835
0.349206
0.340577
0.33195
0.323324
0.314698
0.306073
0.297449
0.288825
0.280201
0.271578
0.262955
0.254333
0.24571
0.237088
0.228466
0.219845
0.211223
0.202601
0.19398
0.185358
0.176737
0.168115
0.159494
0.150873
0.142252
0.13363
0.125009
0.116388
0.107766
0.0991452
0.090524
0.0819026
0.0732813
0.0646601
0.0560388
0.0474175
0.0387962
0.0301749
0.0215536
0.0129323
0.00431114
0.897915
0.862253
0.822999
0.807097
0.795688
0.788246
0.782055
0.776385
0.770726
0.764882
0.758764
0.75235
0.745644
0.738667
0.731448
0.724011
0.716385
0.708594
0.700662
0.692609
0.684452
0.676206
0.667887
0.659505
0.65107
0.642593
0.634077
0.625533
0.616963
0.608373
0.599767
0.591148
0.582519
0.573882
0.565239
0.556592
0.547942
0.53929
0.530636
0.521983
0.51333
0.504677
0.496026
0.487376
0.478728
0.470081
0.461436
0.452793
0.444152
0.435512
0.426874
0.418238
0.409603
0.40097
0.392338
0.383707
0.375077
0.366449
0.357821
0.349194
0.340568
0.331942
0.323318
0.314693
0.306069
0.297446
0.288823
0.2802
0.271577
0.262955
0.254333
0.245711
0.237089
0.228467
0.219845
0.211224
0.202602
0.193981
0.185359
0.176738
0.168116
0.159495
0.150874
0.142252
0.133631
0.12501
0.116388
0.107767
0.0991457
0.0905243
0.081903
0.0732817
0.0646604
0.056039
0.0474177
0.0387964
0.030175
0.0215537
0.0129321
0.00431148
0.929945
0.888366
0.848332
0.827736
0.812549
0.801853
0.793087
0.785362
0.778061
0.77089
0.763687
0.756375
0.748923
0.741321
0.733575
0.725696
0.717698
0.709595
0.701401
0.69313
0.684793
0.676401
0.667962
0.659484
0.650975
0.642439
0.633881
0.625305
0.616715
0.608113
0.599502
0.590883
0.582258
0.573629
0.564997
0.556361
0.547725
0.539087
0.530448
0.52181
0.513171
0.504533
0.495895
0.487258
0.478622
0.469986
0.461352
0.452718
0.444086
0.435455
0.426824
0.418194
0.409565
0.400937
0.39231
0.383683
0.375057
0.366432
0.357807
0.349182
0.340558
0.331935
0.323311
0.314688
0.306065
0.297443
0.288821
0.280198
0.271576
0.262954
0.254332
0.245711
0.237089
0.228468
0.219846
0.211224
0.202603
0.193982
0.18536
0.176739
0.168117
0.159496
0.150874
0.142253
0.133632
0.12501
0.116389
0.107768
0.0991462
0.0905247
0.0819034
0.073282
0.0646607
0.0560393
0.0474179
0.0387965
0.0301751
0.0215537
0.012932
0.00431181
0.954221
0.910268
0.870395
0.846479
0.828319
0.814857
0.803786
0.794159
0.7853
0.776847
0.768582
0.760387
0.752195
0.743971
0.735702
0.727382
0.719012
0.710597
0.702143
0.693653
0.685137
0.676597
0.668039
0.659466
0.65088
0.642287
0.633685
0.625078
0.616467
0.607853
0.599236
0.590617
0.581997
0.573376
0.564754
0.556131
0.547508
0.538884
0.53026
0.521636
0.513012
0.504388
0.495763
0.487139
0.478515
0.469891
0.461267
0.452643
0.44402
0.435396
0.426773
0.41815
0.409527
0.400904
0.392282
0.383659
0.375037
0.366414
0.357792
0.34917
0.340548
0.331927
0.323305
0.314683
0.306061
0.29744
0.288818
0.280197
0.271575
0.262954
0.254332
0.245711
0.237089
0.228468
0.219847
0.211225
0.202604
0.193982
0.185361
0.176739
0.168118
0.159497
0.150875
0.142254
0.133632
0.125011
0.11639
0.107768
0.0991467
0.0905252
0.0819038
0.0732824
0.064661
0.0560395
0.0474181
0.0387966
0.0301752
0.0215538
0.0129318
0.00431212
0.973324
0.928905
0.889641
0.86342
0.842946
0.827163
0.81406
0.802695
0.792375
0.782699
0.773409
0.764352
0.755434
0.746598
0.737811
0.729054
0.720315
0.71159
0.702876
0.694172
0.685476
0.67679
0.668112
0.659444
0.650785
0.642132
0.633489
0.624851
0.616219
0.607593
0.59897
0.590352
0.581736
0.573123
0.564511
0.5559
0.547291
0.538681
0.530072
0.521462
0.512853
0.504243
0.495632
0.48702
0.478408
0.469796
0.461182
0.452568
0.443953
0.435338
0.426722
0.418106
0.409489
0.400871
0.392253
0.383635
0.375016
0.366397
0.357778
0.349159
0.340539
0.331919
0.323299
0.314678
0.306058
0.297437
0.288816
0.280195
0.271574
0.262953
0.254332
0.245711
0.23709
0.228469
0.219847
0.211226
0.202605
0.193983
0.185362
0.17674
0.168119
0.159497
0.150876
0.142255
0.133633
0.125012
0.11639
0.107769
0.0991472
0.0905258
0.0819043
0.0732828
0.0646613
0.0560398
0.0474183
0.0387968
0.0301752
0.0215539
0.0129317
0.00431242
0.988855
0.944958
0.906489
0.878698
0.856435
0.838719
0.823841
0.810903
0.79923
0.788399
0.778127
0.768238
0.758614
0.74918
0.739884
0.730697
0.721594
0.712565
0.703594
0.694676
0.685805
0.676974
0.668179
0.659417
0.650684
0.641976
0.633289
0.624621
0.615969
0.607331
0.598704
0.590086
0.581475
0.572869
0.564268
0.55567
0.547074
0.538479
0.529884
0.521289
0.512694
0.504098
0.495501
0.486902
0.478302
0.469701
0.461098
0.452493
0.443887
0.43528
0.426672
0.418062
0.409451
0.400838
0.392225
0.383611
0.374996
0.36638
0.357764
0.349147
0.340529
0.331911
0.323292
0.314673
0.306054
0.297434
0.288814
0.280194
0.271573
0.262953
0.254332
0.245711
0.23709
0.228469
0.219848
0.211227
0.202605
0.193984
0.185363
0.176741
0.16812
0.159498
0.150877
0.142255
0.133634
0.125012
0.116391
0.107769
0.0991477
0.0905262
0.0819047
0.0732831
0.0646616
0.0560401
0.0474185
0.0387969
0.0301753
0.0215539
0.0129315
0.0043127
1.00183
0.958921
0.921292
0.892458
0.868816
0.849501
0.833083
0.818736
0.805818
0.793905
0.782703
0.772016
0.76171
0.751694
0.741904
0.732297
0.72284
0.713509
0.704287
0.695161
0.686116
0.677144
0.668234
0.659381
0.650576
0.641812
0.633084
0.624388
0.615717
0.607067
0.598436
0.589818
0.581212
0.572615
0.564025
0.555439
0.546857
0.538276
0.529696
0.521116
0.512536
0.503954
0.49537
0.486784
0.478196
0.469606
0.461014
0.452419
0.443822
0.435222
0.426621
0.418018
0.409413
0.400806
0.392197
0.383587
0.374976
0.366363
0.35775
0.349135
0.340519
0.331903
0.323286
0.314668
0.30605
0.297431
0.288812
0.280192
0.271573
0.262952
0.254332
0.245711
0.237091
0.22847
0.219849
0.211228
0.202606
0.193985
0.185364
0.176742
0.168121
0.159499
0.150878
0.142256
0.133635
0.125013
0.116391
0.10777
0.0991483
0.0905267
0.0819051
0.0732835
0.0646619
0.0560403
0.0474187
0.0387971
0.0301754
0.021554
0.0129314
0.00431296
1.01291
0.971163
0.934349
0.904841
0.88014
0.859505
0.841758
0.826157
0.812104
0.799186
0.787106
0.775661
0.764701
0.754123
0.743854
0.733839
0.724036
0.714414
0.704948
0.695618
0.686405
0.677295
0.668274
0.659331
0.650457
0.64164
0.632873
0.624149
0.61546
0.6068
0.598165
0.589549
0.580949
0.572361
0.563782
0.555209
0.54664
0.538074
0.529509
0.520944
0.512378
0.50381
0.49524
0.486667
0.478091
0.469512
0.46093
0.452345
0.443757
0.435165
0.426571
0.417974
0.409375
0.400773
0.39217
0.383564
0.374956
0.366347
0.357736
0.349123
0.34051
0.331895
0.32328
0.314663
0.306046
0.297428
0.28881
0.280191
0.271572
0.262952
0.254332
0.245712
0.237091
0.22847
0.219849
0.211228
0.202607
0.193986
0.185365
0.176743
0.168122
0.1595
0.150878
0.142257
0.133635
0.125014
0.116392
0.10777
0.0991488
0.0905271
0.0819055
0.0732839
0.0646622
0.0560406
0.0474189
0.0387972
0.0301755
0.0215541
0.0129313
0.00431321
1.02252
0.981964
0.945904
0.915978
0.890462
0.868741
0.849852
0.833138
0.818054
0.804209
0.79131
0.779146
0.767565
0.75645
0.74572
0.735312
0.725174
0.715271
0.705568
0.696041
0.686664
0.677421
0.668293
0.659266
0.650324
0.641457
0.632653
0.623903
0.615197
0.606529
0.597892
0.589279
0.580685
0.572106
0.563538
0.554979
0.546424
0.537873
0.529323
0.520773
0.512222
0.503668
0.495111
0.486551
0.477987
0.469419
0.460848
0.452272
0.443692
0.435109
0.426522
0.417932
0.409338
0.400742
0.392142
0.383541
0.374936
0.36633
0.357722
0.349112
0.340501
0.331888
0.323274
0.314659
0.306043
0.297426
0.288808
0.28019
0.271571
0.262952
0.254332
0.245712
0.237092
0.228471
0.21985
0.211229
0.202608
0.193987
0.185365
0.176744
0.168122
0.159501
0.150879
0.142258
0.133636
0.125014
0.116393
0.107771
0.0991493
0.0905276
0.0819059
0.0732842
0.0646625
0.0560408
0.0474191
0.0387974
0.0301756
0.0215541
0.0129312
0.00431343
1.03098
0.991536
0.956158
0.925986
0.899844
0.877229
0.857358
0.839661
0.82365
0.808953
0.795291
0.782454
0.770282
0.758657
0.747487
0.736701
0.726245
0.716069
0.706139
0.696422
0.686889
0.677519
0.668289
0.65918
0.650176
0.641261
0.632423
0.623649
0.614929
0.606254
0.597615
0.589005
0.580419
0.57185
0.563295
0.554749
0.546209
0.537673
0.529138
0.520603
0.512066
0.503527
0.494983
0.486436
0.477884
0.469328
0.460766
0.4522
0.443629
0.435054
0.426474
0.41789
0.409302
0.400711
0.392116
0.383518
0.374917
0.366314
0.357709
0.349101
0.340492
0.331881
0.323268
0.314654
0.306039
0.297423
0.288806
0.280189
0.27157
0.262952
0.254332
0.245712
0.237092
0.228472
0.219851
0.21123
0.202609
0.193988
0.185366
0.176745
0.168123
0.159502
0.15088
0.142258
0.133637
0.125015
0.116393
0.107772
0.0991498
0.0905281
0.0819064
0.0732846
0.0646628
0.0560411
0.0474193
0.0387976
0.0301757
0.0215542
0.0129311
0.00431364
1.03848
1.00004
0.965271
0.93497
0.908345
0.884991
0.86428
0.845717
0.828869
0.813396
0.799029
0.785562
0.772836
0.760729
0.749141
0.737997
0.727234
0.7168
0.706654
0.696755
0.687075
0.677583
0.668256
0.659071
0.650008
0.641049
0.63218
0.623385
0.614653
0.605972
0.597334
0.588729
0.580151
0.571593
0.563051
0.554519
0.545994
0.537474
0.528954
0.520434
0.511912
0.503387
0.494857
0.486323
0.477783
0.469237
0.460686
0.452129
0.443567
0.434999
0.426427
0.417849
0.409267
0.40068
0.39209
0.383496
0.374899
0.366299
0.357696
0.349091
0.340483
0.331874
0.323263
0.31465
0.306036
0.297421
0.288805
0.280188
0.27157
0.262951
0.254332
0.245713
0.237093
0.228472
0.219852
0.211231
0.20261
0.193989
0.185367
0.176746
0.168124
0.159503
0.150881
0.142259
0.133637
0.125016
0.116394
0.107772
0.0991503
0.0905286
0.0819067
0.0732849
0.0646631
0.0560414
0.0474195
0.0387977
0.0301758
0.0215543
0.0129311
0.00431382
1.04515
1.00762
0.973374
0.943019
0.916019
0.892056
0.870624
0.851299
0.833701
0.817521
0.802506
0.788456
0.775212
0.762651
0.750669
0.739187
0.728134
0.717457
0.707104
0.697036
0.687215
0.67761
0.668192
0.658936
0.649818
0.64082
0.631923
0.62311
0.614368
0.605684
0.597048
0.588449
0.579881
0.571335
0.562807
0.55429
0.54578
0.537276
0.528772
0.520267
0.51176
0.503249
0.494733
0.486211
0.477683
0.469149
0.460608
0.45206
0.443506
0.434946
0.42638
0.417809
0.409232
0.400651
0.392065
0.383475
0.374881
0.366284
0.357684
0.349081
0.340475
0.331867
0.323258
0.314646
0.306033
0.297419
0.288803
0.280187
0.271569
0.262951
0.254332
0.245713
0.237093
0.228473
0.219853
0.211232
0.202611
0.19399
0.185368
0.176747
0.168125
0.159503
0.150882
0.14226
0.133638
0.125016
0.116394
0.107773
0.0991509
0.090529
0.0819072
0.0732854
0.0646635
0.0560416
0.0474198
0.0387979
0.0301759
0.0215544
0.012931
0.00431398
1.0511