/*--------------------------------*- C++ -*----------------------------------*\
  =========                 |
  \\      /  F ield         | OpenFOAM: The Open Source CFD Toolbox
   \\    /   O peration     | Website:  https://openfoam.org
    \\  /    A nd           | Version:  6
     \\/     M anipulation  |
\*---------------------------------------------------------------------------*/
FoamFile
{
    version     2.0;
    format      ascii;
    class       surfaceScalarField;
    location    "22647";
    object      phi;
}
// * * * * * * * * * * * * * * * * * * * * * * * * * * * * * * * * * * * * * //

dimensions      [0 3 -1 0 0 0 0];

internalField   nonuniform List<scalar> 
230394
(
7.05543e-08
-1.84583e-08
7.71891e-08
-6.63487e-09
8.12918e-08
-4.10266e-09
8.41639e-08
-2.87217e-09
8.62404e-08
-2.07641e-09
8.7384e-08
-1.14368e-09
8.77972e-08
-4.13221e-10
8.77505e-08
4.67733e-11
8.74208e-08
3.2965e-10
8.68975e-08
5.23296e-10
8.62571e-08
6.40472e-10
8.55542e-08
7.02911e-10
8.48277e-08
7.2648e-10
8.41038e-08
7.23867e-10
8.33988e-08
7.05001e-10
8.2723e-08
6.75871e-10
8.20827e-08
6.40262e-10
8.14821e-08
6.00644e-10
8.09234e-08
5.58648e-10
8.0408e-08
5.15388e-10
7.99364e-08
4.71642e-10
7.95084e-08
4.27948e-10
7.91238e-08
3.84682e-10
7.87816e-08
3.42109e-10
7.84812e-08
3.00422e-10
7.82215e-08
2.59743e-10
7.80013e-08
2.20145e-10
7.78197e-08
1.81671e-10
7.76753e-08
1.44337e-10
7.75672e-08
1.08109e-10
7.74943e-08
7.2877e-11
7.74561e-08
3.81817e-11
7.74573e-08
-1.20554e-12
7.74996e-08
-4.23218e-11
7.75781e-08
-7.84375e-11
7.76894e-08
-1.11355e-10
7.78318e-08
-1.42403e-10
7.80043e-08
-1.7251e-10
7.82067e-08
-2.02342e-10
7.84392e-08
-2.32531e-10
7.8703e-08
-2.6378e-10
7.89998e-08
-2.96894e-10
7.93327e-08
-3.32882e-10
7.97058e-08
-3.73027e-10
8.01249e-08
-4.19152e-10
8.05986e-08
-4.73718e-10
8.11386e-08
-5.39936e-10
8.17615e-08
-6.22932e-10
8.24912e-08
-7.29717e-10
8.33668e-08
-8.7561e-10
8.44447e-08
-1.07791e-09
8.5855e-08
-1.41023e-09
8.77951e-08
-1.94009e-09
9.11476e-08
-3.35255e-09
9.94841e-08
-8.33653e-09
-5.16519e-08
1.51136e-07
2.1433e-07
-7.16237e-08
2.35555e-07
-2.786e-08
2.49748e-07
-1.82962e-08
2.59309e-07
-1.24326e-08
2.65615e-07
-8.38275e-09
2.69158e-07
-4.68621e-09
2.70591e-07
-1.84678e-09
2.70617e-07
2.10339e-11
2.69756e-07
1.19081e-09
2.68309e-07
1.97e-09
2.66499e-07
2.45005e-09
2.64488e-07
2.71445e-09
2.62389e-07
2.82505e-09
2.60283e-07
2.8306e-09
2.58219e-07
2.76836e-09
2.56233e-07
2.66221e-09
2.54346e-07
2.52765e-09
2.52571e-07
2.375e-09
2.50919e-07
2.21121e-09
2.49393e-07
2.04113e-09
2.47996e-07
1.86814e-09
2.4673e-07
1.69467e-09
2.45592e-07
1.52244e-09
2.44581e-07
1.35268e-09
2.43696e-07
1.18627e-09
2.42931e-07
1.02383e-09
2.42286e-07
8.65748e-10
2.41755e-07
7.12293e-10
2.41336e-07
5.63589e-10
2.41024e-07
4.19586e-10
2.40817e-07
2.79915e-10
2.40714e-07
1.41906e-10
2.40725e-07
-1.22525e-11
2.40853e-07
-1.70476e-10
2.41084e-07
-3.09677e-10
2.4141e-07
-4.36852e-10
2.41824e-07
-5.56379e-10
2.42322e-07
-6.71274e-10
2.42904e-07
-7.83902e-10
2.43568e-07
-8.96539e-10
2.44316e-07
-1.01168e-09
2.45151e-07
-1.13219e-09
2.4608e-07
-1.2616e-09
2.47111e-07
-1.40443e-09
2.48259e-07
-1.56696e-09
2.49543e-07
-1.75761e-09
2.5099e-07
-1.98765e-09
2.52642e-07
-2.27426e-09
2.54555e-07
-2.64307e-09
2.56822e-07
-3.14222e-09
2.59591e-07
-3.84687e-09
2.6315e-07
-4.96952e-09
2.68108e-07
-6.89763e-09
2.76243e-07
-1.1488e-08
2.93502e-07
-2.55955e-08
-7.91013e-08
3.20951e-07
3.47562e-07
-1.40735e-07
3.81798e-07
-6.20957e-08
4.04991e-07
-4.14898e-08
4.20798e-07
-2.82393e-08
4.31536e-07
-1.91208e-08
4.38433e-07
-1.15827e-08
4.42401e-07
-5.81473e-09
4.44196e-07
-1.77417e-09
4.44483e-07
9.03144e-10
4.43769e-07
2.68467e-09
4.42356e-07
3.86263e-09
4.40478e-07
4.59246e-09
4.3831e-07
4.99301e-09
4.35981e-07
5.15937e-09
4.33585e-07
5.16491e-09
4.31188e-07
5.05893e-09
4.28841e-07
4.87502e-09
4.26579e-07
4.63664e-09
4.2443e-07
4.36047e-09
4.22412e-07
4.05872e-09
4.2054e-07
3.74041e-09
4.18822e-07
3.41233e-09
4.17265e-07
3.07961e-09
4.15872e-07
2.74613e-09
4.14643e-07
2.41486e-09
4.13579e-07
2.08802e-09
4.12677e-07
1.76728e-09
4.11936e-07
1.45388e-09
4.11351e-07
1.14863e-09
4.10919e-07
8.51918e-10
4.10635e-07
5.63301e-10
4.105e-07
2.77255e-10
4.10521e-07
-3.3879e-11
4.10701e-07
-3.49758e-10
4.11024e-07
-6.33309e-10
4.11482e-07
-8.94622e-10
4.12066e-07
-1.14081e-09
4.12772e-07
-1.37711e-09
4.13596e-07
-1.60798e-09
4.14538e-07
-1.83788e-09
4.15598e-07
-2.07169e-09
4.16781e-07
-2.31513e-09
4.18094e-07
-2.5751e-09
4.1955e-07
-2.86048e-09
4.21167e-07
-3.18342e-09
4.22969e-07
-3.56012e-09
4.24994e-07
-4.0124e-09
4.27292e-07
-4.57281e-09
4.2994e-07
-5.29091e-09
4.33053e-07
-6.25461e-09
4.3682e-07
-7.61405e-09
4.41587e-07
-9.73637e-09
4.48097e-07
-1.3408e-08
4.58133e-07
-2.15238e-08
4.76291e-07
-4.37534e-08
-9.98695e-08
4.97059e-07
4.68369e-07
-2.05645e-07
5.04898e-07
-9.86247e-08
5.31254e-07
-6.78462e-08
5.49922e-07
-4.69067e-08
5.63252e-07
-3.24515e-08
5.72688e-07
-2.10183e-08
5.79147e-07
-1.22738e-08
5.83299e-07
-5.92581e-09
5.85693e-07
-1.49077e-09
5.8683e-07
1.54772e-09
5.87068e-07
3.62439e-09
5.86643e-07
5.01753e-09
5.85738e-07
5.89748e-09
5.84497e-07
6.40113e-09
5.83027e-07
6.63484e-09
5.81413e-07
6.67223e-09
5.79723e-07
6.56521e-09
5.78008e-07
6.35131e-09
5.76311e-07
6.05827e-09
5.74662e-07
5.70705e-09
5.73089e-07
5.31373e-09
5.7161e-07
4.89081e-09
5.70242e-07
4.44808e-09
5.68995e-07
3.99321e-09
5.67877e-07
3.5323e-09
5.66895e-07
3.07014e-09
5.66052e-07
2.61049e-09
5.6535e-07
2.15623e-09
5.64789e-07
1.70952e-09
5.64369e-07
1.27168e-09
5.6409e-07
8.42529e-10
5.63952e-07
4.15304e-10
5.63958e-07
-4.04906e-11
5.6411e-07
-5.01276e-10
5.64401e-07
-9.24529e-10
5.64827e-07
-1.32037e-09
5.65383e-07
-1.69713e-09
5.66068e-07
-2.06145e-09
5.66879e-07
-2.41958e-09
5.67819e-07
-2.77801e-09
5.68892e-07
-3.14405e-09
5.70103e-07
-3.52635e-09
5.71463e-07
-3.93543e-09
5.72987e-07
-4.38476e-09
5.74697e-07
-4.89269e-09
5.7662e-07
-5.4836e-09
5.78798e-07
-6.19041e-09
5.81287e-07
-7.06147e-09
5.84167e-07
-8.17072e-09
5.87557e-07
-9.6449e-09
5.9165e-07
-1.1707e-08
5.96774e-07
-1.48606e-08
6.03603e-07
-2.02373e-08
6.13468e-07
-3.1389e-08
6.29113e-07
-5.93982e-08
-1.1608e-07
6.45324e-07
5.8524e-07
-2.55778e-07
6.16191e-07
-1.29575e-07
6.40395e-07
-9.20502e-08
6.58427e-07
-6.49386e-08
6.71886e-07
-4.59105e-08
6.81973e-07
-3.1106e-08
6.89445e-07
-1.97458e-08
6.94853e-07
-1.13334e-08
6.98606e-07
-5.24362e-09
7.01079e-07
-9.25324e-10
7.02612e-07
2.09153e-09
7.03436e-07
4.19272e-09
7.03714e-07
5.61954e-09
7.03574e-07
6.54153e-09
7.03118e-07
7.09105e-09
7.02429e-07
7.36138e-09
7.01574e-07
7.41989e-09
7.00609e-07
7.31644e-09
6.99578e-07
7.08877e-09
6.98519e-07
6.76601e-09
6.97462e-07
6.37095e-09
6.96431e-07
5.92163e-09
6.95447e-07
5.43247e-09
6.94525e-07
4.91501e-09
6.93679e-07
4.37855e-09
6.92919e-07
3.83059e-09
6.92252e-07
3.27712e-09
6.91685e-07
2.72289e-09
6.91223e-07
2.17152e-09
6.90869e-07
1.62541e-09
6.90627e-07
1.08491e-09
6.90499e-07
5.43296e-10
6.90487e-07
-2.86695e-11
6.90593e-07
-6.06899e-10
6.90817e-07
-1.14879e-09
6.9116e-07
-1.66375e-09
6.91624e-07
-2.1604e-09
6.92208e-07
-2.64622e-09
6.92918e-07
-3.12872e-09
6.93756e-07
-3.61613e-09
6.9473e-07
-4.11797e-09
6.95849e-07
-4.64564e-09
6.97127e-07
-5.21318e-09
6.9858e-07
-5.83857e-09
7.00234e-07
-6.54623e-09
7.02119e-07
-7.36865e-09
7.04278e-07
-8.34968e-09
7.0677e-07
-9.55308e-09
7.09676e-07
-1.10763e-08
7.13113e-07
-1.30822e-08
7.17267e-07
-1.58611e-08
7.22435e-07
-2.00287e-08
7.29201e-07
-2.70034e-08
7.38487e-07
-4.06744e-08
7.519e-07
-7.28113e-08
-1.29275e-07
7.65095e-07
7.04354e-07
-2.88519e-07
7.25917e-07
-1.51138e-07
7.44395e-07
-1.10529e-07
7.59124e-07
-7.96673e-08
7.70671e-07
-5.74569e-08
7.79749e-07
-4.01848e-08
7.8683e-07
-2.68268e-08
7.92283e-07
-1.6786e-08
7.96396e-07
-9.35679e-09
7.99402e-07
-3.93095e-09
8.01542e-07
-4.88645e-11
8.03032e-07
2.70329e-09
8.04003e-07
4.64857e-09
8.04557e-07
5.98699e-09
8.0478e-07
6.86863e-09
8.0474e-07
7.40051e-09
8.04499e-07
7.66142e-09
8.04105e-07
7.71067e-09
8.036e-07
7.59391e-09
8.03019e-07
7.34684e-09
8.02392e-07
6.99779e-09
8.01744e-07
6.56947e-09
8.01096e-07
6.0802e-09
8.00466e-07
5.54489e-09
7.99869e-07
4.97566e-09
7.99317e-07
4.38241e-09
7.98821e-07
3.77319e-09
7.9839e-07
3.15444e-09
7.9803e-07
2.53117e-09
7.97749e-07
1.90684e-09
7.97551e-07
1.28236e-09
7.97443e-07
6.5163e-10
7.97426e-07
-1.16605e-11
7.97503e-07
-6.83783e-10
7.97678e-07
-1.32441e-09
7.97957e-07
-1.94229e-09
7.98343e-07
-2.54613e-09
7.9884e-07
-3.14398e-09
7.99456e-07
-3.74439e-09
8.00197e-07
-4.35708e-09
8.01073e-07
-4.99355e-09
8.02095e-07
-5.66784e-09
8.03279e-07
-6.39731e-09
8.04645e-07
-7.20431e-09
8.06218e-07
-8.11917e-09
8.08031e-07
-9.18223e-09
8.1013e-07
-1.0448e-08
8.12571e-07
-1.1995e-08
8.15439e-07
-1.39434e-08
8.18845e-07
-1.64889e-08
8.22969e-07
-1.99846e-08
8.28077e-07
-2.51373e-08
8.34679e-07
-3.36048e-08
8.43401e-07
-4.93969e-08
8.55204e-07
-8.46136e-08
-1.40494e-07
8.66423e-07
8.27395e-07
-3.05413e-07
8.38715e-07
-1.62458e-07
8.49508e-07
-1.21321e-07
8.59076e-07
-8.92361e-08
8.67135e-07
-6.55158e-08
8.73866e-07
-4.69159e-08
8.79398e-07
-3.23588e-08
8.83877e-07
-2.12644e-08
8.87441e-07
-1.29209e-08
8.90216e-07
-6.70568e-09
8.92318e-07
-2.15085e-09
8.93888e-07
1.13253e-09
8.95045e-07
3.49172e-09
8.95853e-07
5.17933e-09
8.96371e-07
6.35071e-09
8.96651e-07
7.12013e-09
8.96739e-07
7.57334e-09
8.96674e-07
7.77587e-09
8.96489e-07
7.77871e-09
8.96214e-07
7.62216e-09
8.95873e-07
7.33847e-09
8.95489e-07
6.95369e-09
8.9508e-07
6.48902e-09
8.94663e-07
5.96183e-09
8.94253e-07
5.3864e-09
8.93861e-07
4.77446e-09
8.93498e-07
4.13563e-09
8.93175e-07
3.47772e-09
8.92899e-07
2.80683e-09
8.92679e-07
2.12725e-09
8.92521e-07
1.44042e-09
8.92431e-07
7.40879e-10
8.92414e-07
5.80803e-12
8.92472e-07
-7.41821e-10
8.92612e-07
-1.46485e-09
8.92842e-07
-2.17145e-09
8.93166e-07
-2.87047e-09
8.93592e-07
-3.57051e-09
8.94129e-07
-4.28109e-09
8.94785e-07
-5.01335e-09
8.95573e-07
-5.78069e-09
8.96504e-07
-6.59962e-09
8.97598e-07
-7.49072e-09
8.98874e-07
-8.48058e-09
9.0036e-07
-9.60523e-09
9.0209e-07
-1.09127e-08
9.0411e-07
-1.24677e-08
9.06478e-07
-1.43631e-08
9.09275e-07
-1.67404e-08
9.12613e-07
-1.98263e-08
9.16659e-07
-2.40315e-08
9.21659e-07
-3.01369e-08
9.28057e-07
-4.00032e-08
9.36274e-07
-5.76141e-08
9.4689e-07
-9.52287e-08
-1.50358e-07
9.56753e-07
9.5348e-07
-3.09865e-07
9.55782e-07
-1.6476e-07
9.58457e-07
-1.23996e-07
9.61864e-07
-9.26435e-08
9.65354e-07
-6.90051e-08
9.68722e-07
-5.02843e-08
9.71788e-07
-3.54248e-08
9.74467e-07
-2.39436e-08
9.76737e-07
-1.51904e-08
9.78604e-07
-8.57255e-09
9.80087e-07
-3.63373e-09
9.81241e-07
-2.12605e-11
9.82126e-07
2.60594e-09
9.82777e-07
4.5287e-09
9.83225e-07
5.90288e-09
9.835e-07
6.84451e-09
9.83632e-07
7.44203e-09
9.83644e-07
7.76377e-09
9.83559e-07
7.86339e-09
9.83398e-07
7.78358e-09
9.83178e-07
7.55869e-09
9.82915e-07
7.21665e-09
9.82623e-07
6.7803e-09
9.82317e-07
6.26847e-09
9.82006e-07
5.69672e-09
9.81703e-07
5.07791e-09
9.81416e-07
4.42264e-09
9.81154e-07
3.73953e-09
9.80925e-07
3.0354e-09
9.80738e-07
2.31503e-09
9.80598e-07
1.58018e-09
9.80513e-07
8.25885e-10
9.80486e-07
3.28195e-11
9.80521e-07
-7.77317e-10
9.80627e-07
-1.5709e-09
9.80811e-07
-2.3553e-09
9.8108e-07
-3.13968e-09
9.81443e-07
-3.93331e-09
9.81909e-07
-4.74678e-09
9.82488e-07
-5.59264e-09
9.83194e-07
-6.48617e-09
9.8404e-07
-7.44633e-09
9.85047e-07
-8.49686e-09
9.86234e-07
-9.66845e-09
9.87632e-07
-1.10027e-08
9.89274e-07
-1.25551e-08
9.91207e-07
-1.44005e-08
9.93489e-07
-1.66453e-08
9.96201e-07
-1.94517e-08
9.99449e-07
-2.30749e-08
1.0034e-06
-2.79794e-08
1.00827e-06
-3.50064e-08
1.01445e-06
-4.61897e-08
1.02223e-06
-6.53895e-08
1.03193e-06
-1.04933e-07
-1.59242e-07
1.04082e-06
1.08057e-06
-3.05426e-07
1.07629e-06
-1.60481e-07
1.07181e-06
-1.19514e-07
1.06899e-06
-8.98208e-08
1.06739e-06
-6.74113e-08
1.06674e-06
-4.96296e-08
1.06666e-06
-3.53488e-08
1.0669e-06
-2.41787e-08
1.06727e-06
-1.55642e-08
1.06767e-06
-8.97626e-09
1.06804e-06
-3.99997e-09
1.06833e-06
-3.15124e-10
1.06855e-06
2.39506e-09
1.06867e-06
4.40164e-09
1.06872e-06
5.85688e-09
1.06869e-06
6.873e-09
1.0686e-06
7.53677e-09
1.06844e-06
7.91587e-09
1.06824e-06
8.06375e-09
1.068e-06
8.02314e-09
1.06773e-06
7.82864e-09
1.06744e-06
7.50843e-09
1.06714e-06
7.08572e-09
1.06683e-06
6.57967e-09
1.06652e-06
6.00618e-09
1.06622e-06
5.37847e-09
1.06593e-06
4.70741e-09
1.06567e-06
4.00192e-09
1.06543e-06
3.26897e-09
1.06524e-06
2.51347e-09
1.06508e-06
1.7372e-09
1.06497e-06
9.3548e-10
1.06491e-06
9.22344e-11
1.06491e-06
-7.72881e-10
1.06496e-06
-1.62995e-09
1.06509e-06
-2.48519e-09
1.0653e-06
-3.34825e-09
1.0656e-06
-4.22926e-09
1.06599e-06
-5.13999e-09
1.06649e-06
-6.0945e-09
1.06712e-06
-7.11002e-09
1.06788e-06
-8.20799e-09
1.0688e-06
-9.41529e-09
1.0699e-06
-1.07667e-08
1.0712e-06
-1.23093e-08
1.07275e-06
-1.41059e-08
1.07459e-06
-1.62411e-08
1.07678e-06
-1.88346e-08
1.0794e-06
-2.20685e-08
1.08255e-06
-2.62248e-08
1.08639e-06
-3.18182e-08
1.09112e-06
-3.97389e-08
1.0971e-06
-5.21684e-08
1.10449e-06
-7.27804e-08
1.11347e-06
-1.1391e-07
-1.67383e-07
1.12161e-06
1.20636e-06
-2.94785e-07
1.19826e-06
-1.52381e-07
1.18868e-06
-1.09932e-07
1.18054e-06
-8.16854e-08
1.17404e-06
-6.09041e-08
1.16914e-06
-4.47309e-08
1.16553e-06
-3.17413e-08
1.16287e-06
-2.15216e-08
1.1609e-06
-1.35862e-08
1.15939e-06
-7.47441e-09
1.15822e-06
-2.82976e-09
1.15727e-06
6.38098e-10
1.15645e-06
3.2133e-09
1.15573e-06
5.12545e-09
1.15507e-06
6.51255e-09
1.15447e-06
7.47945e-09
1.1539e-06
8.10723e-09
1.15335e-06
8.45927e-09
1.15283e-06
8.58586e-09
1.15233e-06
8.52738e-09
1.15184e-06
8.31659e-09
1.15137e-06
7.98037e-09
1.15091e-06
7.54084e-09
1.15047e-06
7.01638e-09
1.15006e-06
6.42227e-09
1.14967e-06
5.77121e-09
1.1493e-06
5.07367e-09
1.14896e-06
4.3382e-09
1.14866e-06
3.57146e-09
1.1484e-06
2.77799e-09
1.14817e-06
1.95925e-09
1.148e-06
1.11059e-09
1.14787e-06
2.1902e-10
1.1478e-06
-6.98908e-10
1.14779e-06
-1.61733e-09
1.14784e-06
-2.54074e-09
1.14797e-06
-3.47948e-09
1.14819e-06
-4.44473e-09
1.1485e-06
-5.44957e-09
1.14891e-06
-6.50974e-09
1.14945e-06
-7.64452e-09
1.15012e-06
-8.87789e-09
1.15094e-06
-1.02399e-08
1.15194e-06
-1.17695e-08
1.15315e-06
-1.35193e-08
1.15461e-06
-1.55591e-08
1.15635e-06
-1.79834e-08
1.15844e-06
-2.09246e-08
1.16096e-06
-2.45843e-08
1.164e-06
-2.92695e-08
1.16772e-06
-3.5542e-08
1.17232e-06
-4.43322e-08
1.1781e-06
-5.79471e-08
1.18515e-06
-7.98333e-08
1.19352e-06
-1.22283e-07
-1.74933e-07
1.20107e-06
1.32874e-06
-2.79755e-07
1.31918e-06
-1.42822e-07
1.30712e-06
-9.78715e-08
1.2955e-06
-7.00658e-08
1.28505e-06
-5.04522e-08
1.27625e-06
-3.59383e-08
1.26911e-06
-2.45963e-08
1.26337e-06
-1.57834e-08
1.25877e-06
-8.98095e-09
1.25505e-06
-3.75578e-09
1.25201e-06
2.03892e-10
1.24948e-06
3.16885e-09
1.24732e-06
5.37595e-09
1.24545e-06
6.99182e-09
1.24383e-06
8.1404e-09
1.24239e-06
8.91433e-09
1.24111e-06
9.38472e-09
1.23997e-06
9.60715e-09
1.23893e-06
9.62577e-09
1.23798e-06
9.47612e-09
1.23711e-06
9.18718e-09
1.2363e-06
8.78275e-09
1.23556e-06
8.28253e-09
1.23488e-06
7.7029e-09
1.23424e-06
7.0575e-09
1.23365e-06
6.35768e-09
1.23311e-06
5.61278e-09
1.23262e-06
4.83033e-09
1.23218e-06
4.01611e-09
1.23178e-06
3.17384e-09
1.23144e-06
2.30427e-09
1.23115e-06
1.40249e-09
1.23091e-06
4.58501e-10
1.23072e-06
-5.15329e-10
1.2306e-06
-1.49775e-09
1.23055e-06
-2.49107e-09
1.23058e-06
-3.50645e-09
1.23069e-06
-4.55625e-09
1.2309e-06
-5.65508e-09
1.23121e-06
-6.82048e-09
1.23164e-06
-8.07392e-09
1.2322e-06
-9.44206e-09
1.23292e-06
-1.09583e-08
1.23382e-06
-1.26656e-08
1.23492e-06
-1.46221e-08
1.23626e-06
-1.6905e-08
1.2379e-06
-1.96181e-08
1.23988e-06
-2.29067e-08
1.24229e-06
-2.69909e-08
1.24522e-06
-3.22021e-08
1.24882e-06
-3.91455e-08
1.25328e-06
-4.87847e-08
1.25886e-06
-6.35315e-08
1.26561e-06
-8.65827e-08
1.27347e-06
-1.30138e-07
-1.81994e-07
1.28053e-06
1.446e-06
-2.61738e-07
1.43655e-06
-1.33365e-07
1.42448e-06
-8.5806e-08
1.41177e-06
-5.73585e-08
1.39916e-06
-3.7837e-08
1.38754e-06
-2.4322e-08
1.37739e-06
-1.44459e-08
1.36876e-06
-7.15372e-09
1.36152e-06
-1.73627e-09
1.35545e-06
2.31061e-09
1.35033e-06
5.32713e-09
1.34595e-06
7.54352e-09
1.34219e-06
9.13738e-09
1.33894e-06
1.02473e-08
1.3361e-06
1.09768e-08
1.33361e-06
1.1402e-08
1.33142e-06
1.15808e-08
1.32946e-06
1.15579e-08
1.32772e-06
1.13688e-08
1.32616e-06
1.10419e-08
1.32474e-06
1.06006e-08
1.32346e-06
1.00639e-08
1.3223e-06
9.44774e-09
1.32123e-06
8.76539e-09
1.32026e-06
8.02785e-09
1.31938e-06
7.24425e-09
1.31857e-06
6.42204e-09
1.31783e-06
5.56712e-09
1.31716e-06
4.68381e-09
1.31656e-06
3.77455e-09
1.31603e-06
2.83894e-09
1.31556e-06
1.87148e-09
1.31515e-06
8.64857e-10
1.31481e-06
-1.72988e-10
1.31454e-06
-1.22637e-09
1.31434e-06
-2.2958e-09
1.31423e-06
-3.39287e-09
1.3142e-06
-4.53126e-09
1.31428e-06
-5.72729e-09
1.31446e-06
-7.00046e-09
1.31476e-06
-8.37459e-09
1.31519e-06
-9.87916e-09
1.31579e-06
-1.15509e-08
1.31656e-06
-1.34372e-08
1.31754e-06
-1.56017e-08
1.31876e-06
-1.81289e-08
1.32028e-06
-2.11318e-08
1.32214e-06
-2.47686e-08
1.32442e-06
-2.92774e-08
1.32723e-06
-3.50128e-08
1.33071e-06
-4.26206e-08
1.33502e-06
-5.30919e-08
1.34041e-06
-6.89236e-08
1.34688e-06
-9.3052e-08
1.35427e-06
-1.37533e-07
-1.88634e-07
1.36091e-06
1.55703e-06
-2.41935e-07
1.54839e-06
-1.24729e-07
1.538e-06
-7.54098e-08
1.52648e-06
-4.58464e-08
1.51401e-06
-2.53637e-08
1.50141e-06
-1.17237e-08
1.48951e-06
-2.54795e-09
1.47875e-06
3.61032e-09
1.46922e-06
7.79269e-09
1.46087e-06
1.06573e-08
1.4536e-06
1.25965e-08
1.44728e-06
1.38686e-08
1.44177e-06
1.46505e-08
1.43695e-06
1.50673e-08
1.43272e-06
1.52065e-08
1.42899e-06
1.51292e-08
1.42569e-06
1.48792e-08
1.42276e-06
1.44896e-08
1.42014e-06
1.39855e-08
1.4178e-06
1.33869e-08
1.41569e-06
1.271e-08
1.41378e-06
1.1968e-08
1.41206e-06
1.11718e-08
1.4105e-06
1.03304e-08
1.40907e-06
9.45132e-09
1.40778e-06
8.54069e-09
1.40659e-06
7.60336e-09
1.40552e-06
6.64297e-09
1.40454e-06
5.66185e-09
1.40365e-06
4.66065e-09
1.40286e-06
3.63745e-09
1.40214e-06
2.58579e-09
1.40151e-06
1.49959e-09
1.40095e-06
3.85232e-10
1.40047e-06
-7.49287e-10
1.40008e-06
-1.90585e-09
1.39978e-06
-3.0938e-09
1.39958e-06
-4.32865e-09
1.39948e-06
-5.62859e-09
1.3995e-06
-7.01529e-09
1.39964e-06
-8.51507e-09
1.39992e-06
-1.01604e-08
1.40036e-06
-1.19916e-08
1.40098e-06
-1.40602e-08
1.40182e-06
-1.64359e-08
1.4029e-06
-1.92102e-08
1.40427e-06
-2.25058e-08
1.40599e-06
-2.64931e-08
1.40815e-06
-3.14281e-08
1.41082e-06
-3.76877e-08
1.41416e-06
-4.59554e-08
1.41831e-06
-5.72449e-08
1.4235e-06
-7.41194e-08
1.42971e-06
-9.92539e-08
1.43668e-06
-1.44506e-07
-1.949e-07
1.44294e-06
1.66131e-06
-2.21324e-07
1.65362e-06
-1.17032e-07
1.64552e-06
-6.731e-08
1.6366e-06
-3.69343e-08
1.62635e-06
-1.51153e-08
1.61507e-06
-4.37647e-10
1.60339e-06
9.13545e-09
1.59185e-06
1.51473e-08
1.58092e-06
1.87258e-08
1.57085e-06
2.072e-08
1.56176e-06
2.1692e-08
1.55362e-06
2.20058e-08
1.54638e-06
2.18934e-08
1.53994e-06
2.15022e-08
1.53422e-06
2.09242e-08
1.52914e-06
2.02165e-08
1.5246e-06
1.94153e-08
1.52055e-06
1.85444e-08
1.51691e-06
1.76201e-08
1.51364e-06
1.66542e-08
1.5107e-06
1.56553e-08
1.50804e-06
1.46302e-08
1.50562e-06
1.35841e-08
1.50343e-06
1.25213e-08
1.50144e-06
1.1445e-08
1.49962e-06
1.03577e-08
1.49797e-06
9.26105e-09
1.49645e-06
8.15594e-09
1.49507e-06
7.04219e-09
1.49381e-06
5.91821e-09
1.49267e-06
4.7802e-09
1.49164e-06
3.62036e-09
1.4907e-06
2.43236e-09
1.48987e-06
1.22333e-09
1.48912e-06
-6.57375e-12
1.48848e-06
-1.26433e-09
1.48794e-06
-2.55629e-09
1.48752e-06
-3.8993e-09
1.4872e-06
-5.31349e-09
1.48701e-06
-6.82286e-09
1.48695e-06
-8.45641e-09
1.48704e-06
-1.02497e-08
1.48729e-06
-1.22468e-08
1.48774e-06
-1.45038e-08
1.4884e-06
-1.7096e-08
1.48931e-06
-2.01225e-08
1.49052e-06
-2.37155e-08
1.49208e-06
-2.80577e-08
1.49408e-06
-3.34225e-08
1.4966e-06
-4.02082e-08
1.49978e-06
-4.91331e-08
1.50376e-06
-6.12297e-08
1.50875e-06
-7.91091e-08
1.51469e-06
-1.05191e-07
1.52126e-06
-1.5108e-07
-2.0082e-07
1.52718e-06
1.75895e-06
-2.00509e-07
1.75201e-06
-1.10094e-07
1.74605e-06
-6.13568e-08
1.74e-06
-3.08766e-08
1.73301e-06
-8.12499e-09
1.72471e-06
7.85495e-09
1.71523e-06
1.86234e-08
1.70493e-06
2.54431e-08
1.69431e-06
2.9345e-08
1.68382e-06
3.12123e-08
1.67379e-06
3.17255e-08
1.66441e-06
3.13814e-08
1.65578e-06
3.0521e-08
1.64792e-06
2.93656e-08
1.64079e-06
2.80512e-08
1.63435e-06
2.66575e-08
1.62854e-06
2.52301e-08
1.62329e-06
2.37946e-08
1.61854e-06
2.23647e-08
1.61425e-06
2.09476e-08
1.61036e-06
1.95469e-08
1.60682e-06
1.81638e-08
1.60361e-06
1.67986e-08
1.60068e-06
1.54505e-08
1.59801e-06
1.41187e-08
1.59556e-06
1.28016e-08
1.59332e-06
1.14974e-08
1.59128e-06
1.0204e-08
1.5894e-06
8.91828e-09
1.58768e-06
7.6361e-09
1.58611e-06
6.35141e-09
1.58468e-06
5.05483e-09
1.58337e-06
3.73885e-09
1.58218e-06
2.40946e-09
1.58111e-06
1.06616e-09
1.58015e-06
-3.06934e-10
1.57932e-06
-1.72031e-09
1.57861e-06
-3.18703e-09
1.57802e-06
-4.72941e-09
1.57757e-06
-6.37399e-09
1.57727e-06
-8.15262e-09
1.57712e-06
-1.01042e-08
1.57715e-06
-1.22766e-08
1.57738e-06
-1.47305e-08
1.57783e-06
-1.75473e-08
1.57854e-06
-2.08335e-08
1.57956e-06
-2.47309e-08
1.58093e-06
-2.94344e-08
1.58275e-06
-3.52344e-08
1.58509e-06
-4.25502e-08
1.58809e-06
-5.21316e-08
1.59188e-06
-6.50268e-08
1.59665e-06
-8.38765e-08
1.60232e-06
-1.10859e-07
1.6085e-06
-1.57264e-07
-2.06411e-07
1.61409e-06
1.85033e-06
-1.79943e-07
1.84397e-06
-1.03733e-07
1.83974e-06
-5.71241e-08
1.83606e-06
-2.72027e-08
1.83208e-06
-4.14509e-09
1.82718e-06
1.27617e-08
1.82109e-06
2.47136e-08
1.8138e-06
3.27294e-08
1.80549e-06
3.7651e-08
1.79648e-06
4.02242e-08
1.78713e-06
4.10792e-08
1.77777e-06
4.07389e-08
1.76867e-06
3.96171e-08
1.76002e-06
3.80213e-08
1.7519e-06
3.61648e-08
1.74438e-06
3.41858e-08
1.73744e-06
3.21694e-08
1.73107e-06
3.0165e-08
1.72523e-06
2.81995e-08
1.71989e-06
2.62864e-08
1.71501e-06
2.44307e-08
1.71054e-06
2.2633e-08
1.70645e-06
2.08912e-08
1.7027e-06
1.92017e-08
1.69925e-06
1.75604e-08
1.69609e-06
1.59626e-08
1.69319e-06
1.44032e-08
1.69051e-06
1.28771e-08
1.68805e-06
1.13783e-08
1.68579e-06
9.90019e-09
1.68371e-06
8.43423e-09
1.68179e-06
6.96923e-09
1.68004e-06
5.49614e-09
1.67843e-06
4.01867e-09
1.67696e-06
2.53582e-09
1.67562e-06
1.0293e-09
1.67442e-06
-5.21006e-10
1.67337e-06
-2.13036e-09
1.67245e-06
-3.81823e-09
1.67169e-06
-5.61381e-09
1.67109e-06
-7.55199e-09
1.67066e-06
-9.67513e-09
1.67042e-06
-1.2035e-08
1.67039e-06
-1.46973e-08
1.67059e-06
-1.77492e-08
1.67106e-06
-2.13052e-08
1.67185e-06
-2.55163e-08
1.673e-06
-3.05898e-08
1.6746e-06
-3.68327e-08
1.67674e-06
-4.46845e-08
1.67953e-06
-5.49235e-08
1.68311e-06
-6.86109e-08
1.68763e-06
-8.83992e-08
1.69302e-06
-1.16241e-07
1.69881e-06
-1.63057e-07
-2.11679e-07
1.70408e-06
1.93622e-06
-1.60658e-07
1.93046e-06
-9.79661e-08
1.92757e-06
-5.4236e-08
1.92566e-06
-2.5292e-08
1.92394e-06
-2.43124e-09
1.92183e-06
1.4876e-08
1.91897e-06
2.75703e-08
1.91515e-06
3.65495e-08
1.91026e-06
4.25405e-08
1.90433e-06
4.61618e-08
1.89748e-06
4.79288e-08
1.88994e-06
4.82792e-08
1.88197e-06
4.75853e-08
1.87383e-06
4.61577e-08
1.86575e-06
4.42466e-08
1.85789e-06
4.2043e-08
1.85038e-06
3.96866e-08
1.84327e-06
3.72737e-08
1.8366e-06
3.48672e-08
1.83038e-06
3.25053e-08
1.8246e-06
3.02096e-08
1.81924e-06
2.79905e-08
1.81428e-06
2.58512e-08
1.8097e-06
2.37907e-08
1.80545e-06
2.18051e-08
1.80152e-06
1.98891e-08
1.79789e-06
1.80362e-08
1.79453e-06
1.62394e-08
1.79142e-06
1.44906e-08
1.78854e-06
1.27811e-08
1.78587e-06
1.11002e-08
1.7834e-06
9.43517e-09
1.78112e-06
7.77517e-09
1.77902e-06
6.12127e-09
1.77709e-06
4.47075e-09
1.77531e-06
2.80562e-09
1.77369e-06
1.10167e-09
1.77222e-06
-6.66401e-10
1.77093e-06
-2.51967e-09
1.7698e-06
-4.48471e-09
1.76884e-06
-6.59959e-09
1.76808e-06
-8.91024e-09
1.76752e-06
-1.14726e-08
1.76718e-06
-1.4357e-08
1.76708e-06
-1.76573e-08
1.76727e-06
-2.14953e-08
1.76779e-06
-2.60318e-08
1.76869e-06
-3.14862e-08
1.77004e-06
-3.81817e-08
1.77193e-06
-4.65771e-08
1.77448e-06
-5.74763e-08
1.77782e-06
-7.19515e-08
1.78207e-06
-9.26489e-08
1.78715e-06
-1.21318e-07
1.79254e-06
-1.68446e-07
-2.16619e-07
1.79748e-06
2.01829e-06
-1.44012e-07
2.01324e-06
-9.29184e-08
2.0114e-06
-5.23987e-08
2.01074e-06
-2.4627e-08
2.01056e-06
-2.25166e-09
2.01037e-06
1.50656e-08
2.00987e-06
2.80722e-08
2.00882e-06
3.75985e-08
2.00704e-06
4.43195e-08
2.00441e-06
4.87957e-08
2.00085e-06
5.14794e-08
1.9964e-06
5.27383e-08
1.99111e-06
5.28741e-08
1.98513e-06
5.21378e-08
1.97863e-06
5.07399e-08
1.97182e-06
4.88576e-08
1.96487e-06
4.66399e-08
1.95793e-06
4.42093e-08
1.95114e-06
4.16623e-08
1.94457e-06
3.90719e-08
1.93829e-06
3.64902e-08
1.93233e-06
3.39519e-08
1.9267e-06
3.14785e-08
1.92141e-06
2.90818e-08
1.91645e-06
2.67664e-08
1.9118e-06
2.45323e-08
1.90746e-06
2.23761e-08
1.90341e-06
2.0292e-08
1.89963e-06
1.82725e-08
1.8961e-06
1.63082e-08
1.89281e-06
1.43877e-08
1.88975e-06
1.24972e-08
1.8869e-06
1.0625e-08
1.88425e-06
8.76956e-09
1.8818e-06
6.92624e-09
1.87953e-06
5.07645e-09
1.87743e-06
3.19616e-09
1.87551e-06
1.2554e-09
1.87377e-06
-7.78075e-10
1.87222e-06
-2.93238e-09
1.87086e-06
-5.24265e-09
1.86971e-06
-7.75849e-09
1.86878e-06
-1.054e-08
1.86808e-06
-1.36625e-08
1.86765e-06
-1.7226e-08
1.86752e-06
-2.13604e-08
1.86772e-06
-2.62358e-08
1.86832e-06
-3.20837e-08
1.86938e-06
-3.9243e-08
1.87099e-06
-4.81913e-08
1.87327e-06
-5.97545e-08
1.87633e-06
-7.5014e-08
1.88028e-06
-9.65926e-08
1.88502e-06
-1.26059e-07
1.88998e-06
-1.73412e-07
-2.21222e-07
1.89459e-06
2.09886e-06
-1.30272e-07
2.09454e-06
-8.85951e-08
2.09348e-06
-5.1346e-08
2.09368e-06
-2.48235e-08
2.0945e-06
-3.07104e-09
2.09553e-06
1.40326e-08
2.09652e-06
2.70785e-08
2.09729e-06
3.68377e-08
2.09766e-06
4.39496e-08
2.0975e-06
4.89472e-08
2.09672e-06
5.226e-08
2.09523e-06
5.42293e-08
2.09298e-06
5.51247e-08
2.08996e-06
5.51589e-08
2.0862e-06
5.45001e-08
2.08177e-06
5.32845e-08
2.07679e-06
5.16267e-08
2.07137e-06
4.9627e-08
2.06566e-06
4.73739e-08
2.05978e-06
4.49454e-08
2.05387e-06
4.24088e-08
2.048e-06
3.98193e-08
2.04226e-06
3.72204e-08
2.03669e-06
3.46444e-08
2.03135e-06
3.21136e-08
2.02624e-06
2.9642e-08
2.02138e-06
2.72367e-08
2.01677e-06
2.48998e-08
2.01241e-06
2.26288e-08
2.0083e-06
2.04178e-08
2.00443e-06
1.82576e-08
2.00079e-06
1.61359e-08
1.99738e-06
1.40413e-08
1.99418e-06
1.19712e-08
1.99118e-06
9.91959e-09
1.98839e-06
7.86748e-09
1.9858e-06
5.79057e-09
1.98339e-06
3.65948e-09
1.98118e-06
1.43706e-09
1.97916e-06
-9.17451e-10
1.97736e-06
-3.44083e-09
1.97578e-06
-6.1791e-09
1.97444e-06
-9.19644e-09
1.97335e-06
-1.25731e-08
1.97254e-06
-1.64155e-08
1.97204e-06
-2.08612e-08
1.97189e-06
-2.60898e-08
1.97215e-06
-3.23447e-08
1.97289e-06
-3.99797e-08
1.97419e-06
-4.94906e-08
1.97616e-06
-6.17218e-08
1.97891e-06
-7.77622e-08
1.98251e-06
-1.00195e-07
1.98688e-06
-1.30433e-07
1.9914e-06
-1.77929e-07
-2.2547e-07
1.99565e-06
2.17996e-06
-1.18939e-07
2.17625e-06
-8.48874e-08
2.17575e-06
-5.08417e-08
2.17653e-06
-2.56057e-08
2.178e-06
-4.54321e-09
2.17981e-06
1.22286e-08
2.18172e-06
2.51668e-08
2.18358e-06
3.49782e-08
2.18526e-06
4.22662e-08
2.18667e-06
4.75414e-08
2.18771e-06
5.12203e-08
2.1883e-06
5.36344e-08
2.18838e-06
5.5044e-08
2.18789e-06
5.56499e-08
2.18679e-06
5.56052e-08
2.18504e-06
5.50264e-08
2.18267e-06
5.40044e-08
2.17968e-06
5.2613e-08
2.17614e-06
5.09152e-08
2.17212e-06
4.89671e-08
2.16771e-06
4.68205e-08
2.163e-06
4.45234e-08
2.1581e-06
4.21199e-08
2.1531e-06
3.96496e-08
2.14806e-06
3.71461e-08
2.14307e-06
3.46369e-08
2.13816e-06
3.21428e-08
2.13338e-06
2.96784e-08
2.12876e-06
2.72518e-08
2.12431e-06
2.4866e-08
2.12005e-06
2.25185e-08
2.11599e-06
2.02024e-08
2.11212e-06
1.79101e-08
2.10845e-06
1.56407e-08
2.10498e-06
1.33886e-08
2.10171e-06
1.11359e-08
2.09864e-06
8.85876e-09
2.09577e-06
6.52834e-09
2.0931e-06
4.10907e-09
2.09063e-06
1.55497e-09
2.08837e-06
-1.18489e-09
2.08635e-06
-4.15792e-09
2.08458e-06
-7.42403e-09
2.08307e-06
-1.10681e-08
2.08186e-06
-1.52026e-08
2.08097e-06
-1.99728e-08
2.08045e-06
-2.55674e-08
2.08035e-06
-3.22415e-08
2.08073e-06
-4.03629e-08
2.08168e-06
-5.04448e-08
2.08331e-06
-6.33466e-08
2.08571e-06
-8.0163e-08
2.08894e-06
-1.03421e-07
2.09291e-06
-1.34404e-07
2.09695e-06
-1.81969e-07
-2.29342e-07
2.10082e-06
2.26298e-06
-1.09406e-07
2.25975e-06
-8.16487e-08
2.25959e-06
-5.06882e-08
2.26076e-06
-2.67708e-08
2.26266e-06
-6.44383e-09
2.26496e-06
9.92747e-09
2.26745e-06
2.26772e-08
2.26998e-06
3.24436e-08
2.27246e-06
3.97894e-08
2.2748e-06
4.52018e-08
2.27694e-06
4.90838e-08
2.27881e-06
5.17596e-08
2.28037e-06
5.34847e-08
2.28156e-06
5.44566e-08
2.28234e-06
5.48249e-08
2.28267e-06
5.47016e-08
2.2825e-06
5.41707e-08
2.28182e-06
5.32965e-08
2.28061e-06
5.21292e-08
2.27886e-06
5.07096e-08
2.27661e-06
4.90726e-08
2.27388e-06
4.72494e-08
2.27074e-06
4.52692e-08
2.26722e-06
4.316e-08
2.26342e-06
4.09486e-08
2.2594e-06
3.86603e-08
2.25522e-06
3.63178e-08
2.25096e-06
3.39411e-08
2.24667e-06
3.15459e-08
2.24239e-06
2.91434e-08
2.23817e-06
2.67397e-08
2.23403e-06
2.43358e-08
2.23001e-06
2.19312e-08
2.22612e-06
1.95295e-08
2.22238e-06
1.71289e-08
2.21881e-06
1.47149e-08
2.2154e-06
1.22662e-08
2.21217e-06
9.75558e-09
2.20913e-06
7.14926e-09
2.20628e-06
4.4045e-09
2.20363e-06
1.464e-09
2.20121e-06
-1.73481e-09
2.19904e-06
-5.25174e-09
2.19714e-06
-9.16727e-09
2.19553e-06
-1.35995e-08
2.19426e-06
-1.87008e-08
2.19336e-06
-2.46686e-08
2.19289e-06
-3.17692e-08
2.19291e-06
-4.03835e-08
2.19351e-06
-5.10406e-08
2.19477e-06
-6.46112e-08
2.1968e-06
-8.21942e-08
2.19963e-06
-1.06245e-07
2.20317e-06
-1.37945e-07
2.20671e-06
-1.85508e-07
-2.32818e-07
2.21018e-06
2.34886e-06
-1.01177e-07
2.34594e-06
-7.87381e-08
2.34598e-06
-5.07236e-08
2.34737e-06
-2.81595e-08
2.34954e-06
-8.61289e-09
2.35216e-06
7.30671e-09
2.35502e-06
1.98153e-08
2.35799e-06
2.94789e-08
2.36096e-06
3.68157e-08
2.36387e-06
4.22869e-08
2.36668e-06
4.62805e-08
2.36932e-06
4.91119e-08
2.37178e-06
5.10315e-08
2.374e-06
5.22343e-08
2.37596e-06
5.28685e-08
2.37761e-06
5.30455e-08
2.37894e-06
5.28483e-08
2.37989e-06
5.23395e-08
2.38046e-06
5.15663e-08
2.3806e-06
5.05649e-08
2.38031e-06
4.93634e-08
2.37957e-06
4.79847e-08
2.3784e-06
4.6448e-08
2.37678e-06
4.47701e-08
2.37477e-06
4.29667e-08
2.37237e-06
4.10526e-08
2.36965e-06
3.9042e-08
2.36664e-06
3.69485e-08
2.3634e-06
3.47842e-08
2.35999e-06
3.25596e-08