/*--------------------------------*- C++ -*----------------------------------*\
  =========                 |
  \\      /  F ield         | OpenFOAM: The Open Source CFD Toolbox
   \\    /   O peration     | Website:  https://openfoam.org
    \\  /    A nd           | Version:  6
     \\/     M anipulation  |
\*---------------------------------------------------------------------------*/
FoamFile
{
    version     2.0;
    format      ascii;
    class       volScalarField;
    location    "./ITHACAoutput/POD/1";
    object      P_rec;
}
// * * * * * * * * * * * * * * * * * * * * * * * * * * * * * * * * * * * * * //

dimensions      [0 2 -2 0 0 0 0];

internalField   nonuniform List<scalar> 
9000
(
114.362
61.434
47.9796
42.1626
39.2373
37.5443
36.3268
35.4238
34.8743
34.3527
33.8737
33.4975
33.0392
32.6096
32.1027
31.6014
31.1236
30.7816
30.4876
30.0932
29.4545
28.9432
28.5813
28.0803
27.7292
27.2529
26.583
26.3558
25.7734
25.209
24.9428
24.3449
23.8458
23.4724
22.9978
22.6035
22.1172
21.7266
21.4077
21.0605
20.379
20.0215
19.6697
19.399
18.927
18.4816
18.3913
18.4235
18.008
17.2175
83.4509
58.482
48.6242
43.1288
40.1361
38.1941
36.8866
35.8829
35.1136
34.5622
34.0414
33.4476
32.9955
32.5195
32.2242
31.7189
31.2982
30.7041
30.3132
29.8321
29.5702
28.8483
28.4965
28.0778
27.6134
27.0801
26.6312
26.3732
25.7528
25.3504
24.8157
24.4014
23.8847
23.5166
23.0746
22.6766
22.1357
21.8648
21.1944
20.9719
20.3406
20.041
19.625
19.0978
19.0658
18.5371
18.3337
17.6472
17.3769
15.966
66.9085
54.9041
48.4374
43.577
40.7807
38.6408
37.0942
36.2368
35.3296
34.7938
34.1936
33.359
33.1593
32.5637
32.1128
31.6626
31.2345
30.9421
30.2877
29.912
29.4203
28.9814
28.555
28.1028
27.5193
27.2893
26.6231
26.1955
25.7381
25.2049
24.9706
24.387
24.0582
23.6293
23.0392
22.678
22.1828
21.7332
21.3062
20.8025
20.3858
20.03
19.5244
19.1296
18.7222
18.2838
17.7988
17.1399
16.595
15.159
58.0603
51.5943
47.3544
43.5024
40.8421
38.8346
37.5531
36.6284
35.6159
34.9232
34.2783
33.7473
33.1549
32.5779
32.3214
31.8182
31.2153
30.8665
30.3358
29.7695
29.4441
28.9947
28.5895
27.9984
27.5744
27.2098
26.6575
26.3779
25.7853
25.5186
24.99
24.4978
24.0247
23.5564
23.0345
22.6645
22.1798
21.7868
21.3544
20.8799
20.3355
19.9907
19.6091
19.1246
18.7073
18.2838
17.6466
17.1633
16.2157
14.9753
51.9134
48.7554
45.6946
42.9477
40.5672
38.9715
37.8152
36.6084
35.6871
35.1255
34.1804
33.6536
33.2557
32.6244
32.1948
31.8322
31.1811
30.9436
30.3956
30.0699
29.4829
29.1032
28.5807
28.0444
27.47
27.2923
26.7447
26.2337
26.0257
25.3326
24.841
24.4325
23.9281
23.6745
23.2217
22.4765
22.1619
21.7202
21.28
20.8122
20.3599
19.9461
19.413
18.8794
18.4162
18.015
17.4848
16.8994
16.0819
15.0407
47.7779
46.0366
44.1835
42.074
40.3842
39.0282
37.6076
36.6085
35.775
34.9425
34.519
33.9593
33.1983
32.8079
32.433
31.8066
31.3906
30.9549
30.2743
29.8304
29.427
29.0456
28.5013
28.087
27.6718
27.3151
26.7309
26.2618
25.8939
25.3764
24.8397
24.3489
24.0665
23.7381
22.9438
22.5586
22.296
21.5865
21.4378
20.6687
20.3924
19.8276
19.4326
18.9212
18.6148
17.996
17.3983
16.812
15.8715
14.9192
44.6817
43.8797
42.8652
41.5214
40.1224
38.7169
37.4444
36.6711
35.7814
35.1106
34.3852
33.6948
33.301
32.9304
32.178
31.8575
31.3979
30.7414
30.196
29.933
29.3691
29.0594
28.3733
28.0757
27.6153
27.0785
26.7158
26.0826
25.7975
25.3913
24.8022
24.508
23.8554
23.4812
22.9617
22.5282
22.0353
21.5974
21.1627
20.7912
20.2734
19.8437
19.4278
18.9923
18.4474
17.8859
17.2862
16.4833
15.8103
15.043
42.5518
42.1974
41.5529
40.4922
39.5364
38.3163
37.3457
36.4006
35.5744
35.0729
34.4159
33.8933
33.3324
32.6483
32.3686
31.8352
31.5077
30.7706
30.0891
29.9444
29.3238
29.0196
28.7169
28.0141
27.544
27.0995
26.6971
26.3457
25.7892
25.273
24.7976
24.4409
23.8385
23.5113
23.0142
22.6915
22.1725
21.6757
21.2394
20.7915
20.2607
19.7396
19.2918
18.7783
18.2854
17.8438
17.4184
16.587
15.9232
15.0393
40.7943
40.7874
40.4415
39.7823
38.7408
37.9572
37.2037
36.5754
35.8028
35.112
34.4605
33.8635
33.273
32.8346
32.3815
31.8258
31.3599
30.8746
30.3928
29.8221
29.5584
29.0918
28.6301
27.9905
27.6396
26.9694
26.4512
26.1674
25.8044
25.3495
24.8972
24.217
23.7898
23.3656
23.137
22.4806
22.1195
21.6591
21.2525
20.6359
20.2969
19.7966
19.2748
18.8465
18.1619
17.8522
17.1603
16.6158
16.0076
15.1549
39.2696
39.5533
39.6659
39.1524
38.4581
37.7415
36.8568
36.1595
35.68
35.1229
34.3869
33.8864
33.1378
32.9859
32.2662
31.9235
31.5311
30.8535
30.4176
29.8541
29.4775
28.9767
28.4086
28.1377
27.589
27.3653
26.8569
26.1779
25.8872
25.4085
24.9482
24.3732
24.0086
23.5387
22.941
22.5897
22.1683
21.8612
21.1157
20.6144
20.2675
19.7437
19.1834
18.8005
18.3169
17.8093
17.1093
16.5838
15.8838
15.4837
38.2948
38.8142
38.7481
38.5967
37.7556
37.3788
36.7763
36.1779
35.518
34.9871
34.4989
33.8846
33.2491
32.7897
32.1319
31.9325
31.3506
30.9347
30.4838
29.8386
29.3968
28.9603
28.5082
28.2434
27.6729
27.2217
26.6507
26.4748
25.6492
25.3095
24.9429
24.5043
23.9218
23.4129
22.9453
22.573
22.0371
21.7003
21.2679
20.5451
20.3553
19.6054
19.3056
18.7381
18.2603
17.7964
17.3171
16.5867
15.9995
15.4215
37.5227
38.0443
38.1891
37.8561
37.6551
37.0424
36.4039
35.9342
35.3608
34.7655
34.337
33.8017
33.3561
32.8734
32.3864
31.7469
31.4187
30.8672
30.4865
29.9692
29.4158
28.9632
28.5677
28.1054
27.633
27.2711
26.6757
26.0434
25.8912
25.3906
24.9461
24.5521
23.8673
23.4308
22.925
22.4196
21.9834
21.6742
21.111
20.5809
20.2159
19.7891
19.2087
18.8482
18.2174
17.7234
17.1569
16.6544
16.0682
15.5004
36.8059
37.2687
37.627
37.3362
37.0597
36.8214
36.3016
35.827
35.1856
34.8954
34.3422
33.7291
33.2238
32.8244
32.2798
31.7373
31.4982
30.8001
30.393
30.0431
29.4612
28.8917
28.4996
28.188
27.7036
27.1984
26.5676
26.3427
25.7653
25.1456
24.9216
24.3038
23.9614
23.4507
22.9689
22.478
22.1651
21.6839
21.0912
20.7814
20.2683
19.7993
19.35
18.8146
18.2807
17.6912
17.2332
16.6157
16.162
15.5587
36.3536
36.9418
37.0139
37.2806
36.9215
36.5345
36.1327
35.4937
35.2293
34.7228
34.3364
33.786
33.2858
32.8584
32.3909
31.8498
31.3507
30.9574
30.4482
29.9754
29.4995
28.8673
28.6589
28.2239
27.6753
27.1057
26.8576
26.0839
25.7795
25.456
24.8989
24.529
23.9999
23.465
22.9649
22.6467
22.1964
21.5288
21.114
20.7055
20.2256
19.8125
19.2396
18.9401
18.3286
17.8994
17.2426
16.8652
16.1871
15.8278
35.9689
36.3398
36.7374
36.7802
36.6093
36.1429
36.2097
35.5959
35.1317
34.7968
34.3483
33.7822
33.1181
32.8562
32.4644
31.7457
31.4372
30.8034
30.4812
29.9372
29.6187
28.9934
28.6089
28.0971
27.5242
27.2158
26.4853
26.1669
25.7059
25.3185
24.925
24.3346
23.9199
23.4428
23.0704
22.6038
22.1272
21.5567
21.0993
20.5791
20.0841
19.7276
19.1547
18.6959
18.3252
17.8683
17.2535
16.7841
16.2497
15.7339
35.6227
36.1609
36.3679
36.3784
36.3588
36.2333
35.8339
35.4426
35.0667
34.7669
34.1925
33.6474
33.1933
32.9333
32.3697
31.8835
31.4749
30.7875
30.3768
30.0784
29.3943
29.0811
28.5777
28.022
27.5113
27.08
26.7246
26.3054
25.7646
25.4094
24.9589
24.3839
23.8492
23.4228
23.0012
22.321
22.123
21.4454
21.2267
20.7116
20.2561
19.5954
19.2063
18.8711
18.1342
17.718
17.3307
16.8744
16.2717
15.9149
35.4786
35.6904
36.1067
36.1593
36.2994
36.1148
35.7566
35.4853
35.0796
34.6455
34.1423
33.7288
33.1596
32.6229
32.1372
31.7691
31.3732
30.9337
30.48
30.0641
29.5864
29.0376
28.548
28.0861
27.7743
27.0625
26.7566
26.3041
25.7775
25.3133
24.8604
24.4624
23.9161
23.5207
22.9342
22.6363
21.9803
21.5901
20.989
20.68
20.3292
19.737
19.2648
18.7229
18.2044
17.8764
17.3893
16.7315
16.197
15.886
35.1927
35.729
35.9843
36.0663
36.0152
35.821
35.6603
35.2742
35.1645
34.7848
34.1291
33.7179
33.2981
32.9921
32.1438
31.6623
31.2179
30.8989
30.4536
30.035
29.4362
29.1174
28.5072
27.9422
27.7182
27.2884
26.7873
26.242
25.6635
25.2387
24.9201
24.289
23.8499
23.6269
22.7808
22.5348
22.1142
21.6457
21.0946
20.5833
20.137
19.7368
19.2466
18.7238
18.2112
17.8701
17.347
16.9069
16.5725
15.9935
34.9739
35.6059
35.9174
36.0816
35.8835
35.7969
35.4669
35.2168
34.9245
34.5904
34.1476
33.8503
33.2579
32.7553
32.4157
31.8471
31.3814
30.9638
30.4216
29.9913
29.4568
29.1484
28.6043
27.9711
27.6492
27.2283
26.6616
26.1326
25.8854
25.2015
24.9069
24.3307
23.9279
23.4611
23.1713
22.5512
22.1198
21.7437
21.1316
20.439
20.3192
19.7391
19.3516
18.8582
18.3427
17.9333
17.5456
16.887
16.3979
15.9957
35.0513
35.4216
35.8529
35.9327
36.021
35.7406
35.6739
35.4859
35.0702
34.5963
34.1845
33.6711
33.2632
32.6865
32.3371
31.8374
31.3575
30.7725
30.4918
29.9739
29.3653
29.1669
28.5368
27.7959
27.7413
27.1174
26.8422
26.3111
25.7186
25.2779
24.8017
24.4193
23.9229
23.4736
23.0951
22.5802
21.8816
21.6502
21.1653
20.6805
20.363
19.7148
19.3526
18.7178
18.1775
17.8811
17.3223
16.9579
16.3133
16.1236
34.9201
35.5337
35.9582
35.7852
35.972
35.6703
35.5392
35.1807
34.8991
34.539
34.1371
33.7732
33.3813
32.7866
32.373
31.8279
31.42
30.9448
30.5363
29.9843
29.3974
29.0453
28.4813
28.1801
27.7155
27.169
26.7147
26.2629
25.7068
25.3208
24.8306
24.3458
23.8637
23.4753
23.1436
22.5419
22.0462
21.6812
21.0482
20.7783
20.3781
19.5199
19.1869
18.7522
18.2826
17.8842
17.4692
16.9015
16.5042
16.1712
34.8884
35.5026
35.8068
36.009
36.1531
35.8286
35.8089
35.4019
34.7952
34.5902
34.2483
33.7221
33.2591
32.6833
32.2741
32.052
31.2484
30.8426
30.4303
29.9411
29.5309
29.1157
28.5865
28.2471
27.6656
27.0286
26.7701
26.1492
25.622
25.3661
24.7429
24.3154
24.0495
23.3355
23.0328
22.4405
21.91
21.5424
21.1471
20.644
20.0518
19.6298
19.2632
18.6915
18.1962
17.893
17.6335
16.9489
16.4421
16.2727
35.1781
35.8001
35.9191
36.0046
36.1151
35.9282
35.8721
35.3896
34.8839
34.6533
34.1895
33.6742
33.2804
32.9381
32.3918
31.7202
31.2743
30.9187
30.523
29.9445
29.4455
28.9968
28.5443
28.1074
27.5082
27.2179
26.608
26.4173
25.8303
25.1126
24.8248
24.4792
23.9099
23.3695
22.9241
22.3996
21.8723
21.5581
21.1614
20.6124
20.2432
19.8718
19.1011
18.9334
18.4442
17.8024
17.4129
16.9975
16.6041
16.0263
35.3218
35.7652
36.1055
36.2485
36.2975
36.2574
35.9398
35.4816
34.9319
34.7165
34.3207
33.8109
33.3055
32.8181
32.2603
31.7926
31.4593
30.911
30.4192
29.9972
29.4103
29.0207
28.4912
28.1263
27.4783
27.2557
26.6079
26.2176
25.9334
25.3502
24.8223
24.4398
23.8124
23.4086
23.0615
22.3866
21.963
21.6298
21.1094
20.5781
20.155
19.7842
19.2011
18.8782
18.4231
17.8056
17.4066
17.0123
16.6036
16.0696
35.7506
36.1346
36.4057
36.3844
36.45
36.3016
35.9221
35.6415
34.9673
34.8005
34.2231
33.8127
33.3761
32.7884
32.4575
31.9073
31.4664
30.978
30.3242
30.1785
29.591
29.0536
28.4688
28.0878
27.6326
27.1402
26.6322
26.1426
25.7021
25.1855
24.8238
24.2797
23.9517
23.355
22.9529
22.4978
22.0474
21.6167
21.0871
20.6164
20.0608
19.7046
19.2574
18.6902
18.3833
17.8135
17.5767
16.9822
16.6211
16.0514
35.9946
36.3448
36.7479
36.6843
36.5767
36.3923
36.0833
35.6823
35.2317
34.6816
34.1121
33.8079
33.1607
32.8367
32.4254
31.7995
31.2258
30.8018
30.4343
29.8504
29.4791
29.0566
28.4528
28.0446
27.6852
27.0919
26.7753
26.1347
25.7409
25.1434
24.8337
24.3646
24.1123
23.3176
22.9212
22.5137
21.9613
21.6586
21.1378
20.7071
20.237
19.8385
19.2633
18.7209
18.3785
17.8828
17.4977
16.9293
16.6006
16.1882
36.5943
36.6939
37.1827
37.1066
36.6992
36.6258
36.1366
35.7315
35.2943
34.8348
34.3997
33.7765
33.2858
32.9055
32.3575
31.7938
31.6228
30.898
30.4661
29.8843
29.5563
28.9661
28.6505
28.1555
27.7912
27.1462
26.5539
26.2568
25.8684
25.2429
24.7242
24.2603
24.0658
23.4971
22.9811
22.5163
22.1147
21.5711
21.127
20.8112
20.0239
19.7166
19.3112
18.7647
18.4264
17.9437
17.3925
16.9176
16.6584
16.1381
37.053
37.2889
37.6734
37.562
37.1548
36.796
36.1753
35.9099
35.5612
34.7549
34.2961
33.7762
33.3771
32.8145
32.1635
31.9541
31.3293
30.833
30.582
29.8361
29.5722
29.0799
28.493
28.1609
27.5725
27.3159
26.7485
26.2069
25.8269
25.2093
24.7054
24.3443
23.7897
23.4533
22.9406
22.4474
22.0073
21.5563
21.0831
20.6234
20.2619
19.8155
19.2296
18.9016
18.287
17.9242
17.4449
17.0414
16.5301
16.2284
37.5089
38.0482
38.3063
37.9133
37.5767
37.2749
36.6202
35.9854
35.3381
34.9229
34.4372
33.703
33.333
32.8415
32.3614
31.9378
31.2458
30.9694
30.4891
29.9899
29.4717
28.9537
28.5238
28.0577
27.6937
27.0961
26.6812
26.1659
25.7126
25.2928
24.9408
24.3371
24.0389
23.371
22.9754
22.4857
22.139
21.6306
21.0616
20.5384
20.1289
19.7592
19.2406
18.8433
18.3259
17.9265
17.3726
17.0601
16.7244
16.0947
38.3533
38.7246
38.905
38.3796
38.0852
37.446
36.8501
36.1142
35.5556
34.9146
34.3171
33.9939
33.3821
32.7288
32.2186
31.8253
31.3447
30.9421
30.3706
29.9727
29.3786
29.0581
28.4695
28.1058
27.5266
27.0779
26.6321
26.3382
25.6055
25.3836
24.858
24.2463
23.8774
23.4617
23.0034
22.5979
22.078
21.5607
20.9648
20.5729
20.2906
19.6416
19.1011
18.8263
18.4169
17.8489
17.3134
17.0701
16.5882
16.1763
39.4067
39.7685
39.6401
39.1513
38.3888
37.8812
36.95
36.2932
35.5583
35.1198
34.3938
33.843
33.3326
32.7261
32.3689
31.7872
31.2623
30.9729
30.3062
29.887
29.5276
29.0121
28.7141
28.0444
27.6342
27.1218
26.6487
26.3007
25.7639
25.1655
24.7477
24.3544
23.7569
23.4374
23.0874
22.6559
21.926
21.3921
20.9242
20.7318
20.2392
19.6757
19.1805
18.6408
18.3808
18.1145
17.5863
16.982
16.5619
16.0694
40.8411
40.8092
40.7133
39.8857
38.7815
38.0378
37.1653
36.3447
35.6887
35.0454
34.2999
33.8113
33.3329
32.8118
32.2155
31.819
31.422
30.739
30.3959
30.1157
29.509
29.0884
28.5203
28.06
27.583
27.1815
26.7202
26.246
25.7721
25.2922
24.9744
24.274
23.903
23.4212
22.8565
22.479
22.0002
21.5914
21.1574
20.5433
20.2145
19.7781
19.1838
18.7115
18.3342
17.9936
17.3972
16.9706
16.634
16.2481
42.4043
42.1384
41.6215
40.6804
39.4277
38.4747
37.4177
36.5598
35.6043
34.9442
34.4424
33.9457
33.3133
32.7494
32.2652
31.8262
31.3484
30.9001
30.3306
29.8138
29.645
29.0152
28.5216
28.1499
27.5971
27.1975
26.6275
26.0882
25.8598
25.0804
24.9146
24.4113
23.7962
23.5213
23.0161
22.4414
22.1865
21.5678
21.0216
20.7085
20.0937
19.6498
19.2453
18.8069
18.3622
17.9641
17.4908
16.9273
16.6887
15.9851
44.7169
44.1086
42.7746
41.4376
39.9974
38.739
37.5615
36.6665
35.6172
35.1359
34.4164
33.9448
33.3748
32.7785
32.5016
31.8283
31.3407
30.9728
30.3591
29.9423
29.5328
28.8903
28.4043
28.178
27.5281
27.1508
26.8014
26.2512
25.9791
25.0763
24.7375
24.2888
23.9929
23.2994
22.9377
22.5398
22.0345
21.562
21.1067
20.508
20.1923
19.5398
19.1174
18.8375
18.3713
17.9723
17.3665
16.9213
16.5242
16.0228
47.6062
46.0603
44.3213
42.2433
40.4743
38.6869
37.8236
36.5947
35.5505
34.9623
34.4608
33.757
33.2084
32.6913
32.1898
31.7642
31.1734
30.8716
30.3605
29.9436
29.3766
28.9288
28.4305
28.1614
27.585
27.0784
26.6205
26.1271
25.7564
25.4123
24.8355
24.3375
23.9941
23.3179
22.8957
22.4026
22.1634
21.5732
20.9911
20.4451
20.1057
19.8072
19.0676
18.7199
18.2517
17.8584
17.1952
16.9925
16.3874
16.0577
51.9942
48.5378
45.7154
43.0818
40.6727
39.0365
37.642
36.5418
35.7334
35.0915
34.2071
33.8508
33.1444
32.8328
32.2765
31.6777
31.1908
30.6208
30.5282
29.8769
29.5586
29.0478
28.6067
28.1397
27.4196
27.1573
26.8094
26.2415
25.6826
25.2192
24.9548
24.1743
23.8014
23.2227
23.0294
22.4347
22.1556
21.5745
21.0861
20.5026
20.1399
19.677
19.1874
18.8004
18.2807
17.7945
17.3334
16.755
16.4123
16.0948
58.023
51.6575
47.394
43.5833
40.8649
38.8852
37.6147
36.453
35.6947
34.8489
34.3493
33.5502
33.3201
32.6766
32.1428
31.8898
31.2586
30.6899
30.488
29.9044
29.6091
28.9185
28.5229
28.177
27.5481
27.2879
26.6832
26.154
25.8347
25.4545
24.7635
24.5026
23.9126
23.3046
22.7914
22.4354
21.9781
21.6504
21.0067
20.6181
20.0831
19.5536
19.332
18.5543
18.1805
17.8648
17.3517
16.7584
16.3909
16.0258
66.9362
54.9655
48.3308
43.8589
40.6957
38.618
37.23
36.0365
35.4435
34.6314
34.0202
33.6289
33.0329
32.5594
32.1528
31.8472
31.3571
30.9322
30.2551
29.8471
29.3913
29.006
28.6368
28.0721
27.4987
27.1729
26.6547
26.174
25.7705
25.2231
24.8297
24.2586
23.697
23.4435
22.9992
22.5381
21.8289
21.5735
21.0608
20.5911
20.1011
19.488
19.1502
18.7403
18.1229
17.8162
17.2468
16.7769
16.3031
16.0595
83.3986
58.37
48.5946
43.3385
39.9965
38.2306
36.6872
36.0522
35.1615
34.6608
33.9574
33.6313
32.9875
32.39
31.9072
31.6146
31.2121
30.7285
30.4196
29.7602
29.4994
29.0305
28.4458
28.0173
27.478
27.0363
26.6757
26.2334
25.7333
25.3226
24.8146
24.4152
24.0315
23.3235
22.9093
22.4926
21.9721
21.5089
20.889
20.5878
19.9043
19.4601
18.9975
18.6315
18.0216
17.7971
17.2443
16.9936
16.3872
15.836
115.015
61.5444
47.8134
42.1978
39.2883
37.5274
36.0706
35.3891
34.9366
34.1891
33.8927
33.4061
33.0197
32.4803
32.1389
31.4873
31.0592
30.7184
30.1759
30.0118
29.3952
28.9838
28.517
28.1134
27.5094
27.2252
26.749
26.1256
25.8285
25.1589
24.8225
24.3791
23.8473
23.4395
22.9207
22.5037
21.7849
21.5829
21.009
20.5712
20.062
19.518
19.2412
18.603
18.191
17.5882
17.2218
16.75
16.2453
15.7308
7.98877
9.79559
9.94194
10.2175
10.5749
10.5667
10.8059
10.7951
10.8275
10.6859
10.8515
10.8117
10.6117
10.5096
10.5371
10.5125
10.2725
10.1471
10.1462
9.98229
9.92457
9.92003
9.74395
9.58989
9.43253
9.37124
9.25153
9.10308
8.97299
8.85863
8.71895
8.59089
8.47546
8.35314
8.23484
8.11165
7.96872
7.83857
7.72753
7.58679
7.47379
7.32655
7.2061
7.09332
6.96775
6.84615
6.70789
6.59263
6.47691
6.33854
6.20086
6.07869
5.95606
5.81881
5.71616
5.56412
5.43285
5.33006
5.21407
5.0763
4.95008
4.81609
4.70656
4.57781
4.45115
4.31214
4.19436
4.07871
3.94817
3.83154
3.7049
3.57357
3.44834
3.32303
3.19235
3.07191
2.95008
2.84026
2.68967
2.55685
2.43885
2.30872
2.1947
2.06251
1.93435
1.80545
1.68233
1.55983
1.44581
1.31064
1.17526
1.05936
0.925752
0.813849
0.688759
0.563081
0.43829
0.313067
0.188446
0.062695
10.3462
10.8616
10.5664
10.8001
10.7181
10.9627
10.8732
10.818
10.8704
10.9459
10.8334
10.7364
10.6408
10.6144
10.6229
10.2707
10.4153
10.3379
9.98543
10.0188
9.97391
9.80273
9.84163
9.74878
9.36998
9.30122
9.22883
9.11415
8.98848
8.85163
8.7249
8.59711
8.47149
8.35861
8.22015
8.10021
7.96396
7.84657
7.72655
7.5915
7.46192
7.33947
7.21596
7.08426
6.96074
6.83295
6.71566
6.58351
6.45926
6.33686
6.20825
6.08851
5.97134
5.83869
5.6953
5.57499
5.45605
5.31699
5.21376
5.07241
4.95629
4.82381
4.7006
4.58865
4.44582
4.31079
4.20489
4.06724
3.94815
3.80943
3.70376
3.58555
3.43753
3.31755
3.17888
3.07468
2.93527
2.81111
2.70556
2.57764
2.44195
2.31072
2.19181
2.06369
1.93437
1.81527
1.6767
1.56554
1.44008
1.31509
1.20154
1.07222
0.949323
0.813114
0.689537
0.564106
0.440334
0.314491
0.188497
0.0627235
11.6696
11.4674
11.0939
11.011
11.1957
11.1081
11.1873
10.9873
10.8693
11.0948
10.7167
10.802
10.6774
10.6985
10.6425
10.4666
10.368
10.3182
10.0867
9.93028
9.96686
9.76887
9.70668
9.65125
9.46319
9.3017
9.20175
9.09293
8.96129
8.82379
8.73177
8.59616
8.47586
8.35636
8.23244
8.09914
7.95407
7.84381
7.71978
7.59233
7.46043
7.32481
7.21523
7.08735
6.96611
6.83261
6.71271
6.57258
6.45495
6.33378
6.1979
6.08656
5.96678
5.83851
5.67798
5.57651
5.43703
5.32092
5.1991
5.07968
4.95117
4.82897
4.7042
4.57305
4.44831
4.32741
4.19934
4.06038
3.94815
3.82202
3.7004
3.53455
3.44254
3.31915
3.19453
3.08573
2.92819
2.81369
2.69183
2.57501
2.4414
2.31048
2.19297
2.08006
1.94342
1.82118
1.6755
1.57995
1.43376
1.3151
1.19438
1.0635
0.925994
0.814722
0.687554
0.564021
0.438342
0.313949
0.189276
0.0627532
12.443
12.1825
11.5506
11.4515
11.3888
11.2125
11.2646
11.1625
11.207
10.9082
10.9082
10.9541
10.7967
10.8861
10.6479
10.5593
10.4003
10.3231
9.98919
10.0385
9.85407
9.74561
9.62128
9.64846
9.44168
9.37296
9.22914
9.05147
8.95477
8.8524
8.73777
8.5947
8.47305
8.33981
8.21195
8.08001
7.96256
7.86136
7.72466
7.60065
7.47754
7.32981
7.21736
7.08614
6.95799
6.84527
6.7024
6.58791
6.4461
6.31512
6.19965
6.08803
5.97268
5.8138
5.71965
5.56216
5.45618
5.32375
5.20467
5.06976
4.95919
4.82879
4.69145
4.59352
4.45052
4.31818
4.18311
4.06645
3.94939
3.81257
3.70675
3.59304
3.46008
3.32245
3.20236
3.06772
2.95422
2.80735
2.68512
2.56077
2.45192
2.32458
2.20092
2.09676
1.9551
1.82012
1.6829
1.56109
1.44456
1.30624
1.18304
1.07194
0.948191
0.814305
0.690039
0.563375
0.439818
0.3134
0.187906
0.0626259
13.0574
12.4796
11.992
11.7018
11.4515
11.5186
11.332
11.276
11.3047
10.9104
10.9598
11.0035
10.9297
10.5727
10.5917
10.4345
10.4973
10.2762
10.1655
10.0075
10.0513
9.755
9.56171
9.66907
9.40695
9.27486
9.26739
9.02881
8.98886
8.85122
8.71947
8.60424
8.45772
8.36048
8.22849
8.07432
7.96282
7.83352
7.71143
7.59344
7.45996
7.33688
7.22134
7.08812
6.96545
6.83286
6.69958
6.58932
6.44555
6.33449
6.2059
6.07554
5.95877
5.82271
5.70335
5.57291
5.45594
5.34207
5.2074
5.07461
4.95544
4.82042
4.70053
4.5652
4.45139
4.31955
4.18307
4.06777
3.94937
3.81753
3.69367
3.5725
3.44385
3.32804
3.19764
3.07292
2.93909
2.83068
2.69951
2.57352
2.44258
2.31971
2.19961
2.08083
1.94815
1.81529
1.68318
1.5741
1.44449
1.31284
1.22003
1.07623
0.936289
0.816087
0.689119
0.56352
0.439847
0.314721
0.189841
0.0627153
13.598
12.9704
12.3603
11.9852
12.0615
11.562
11.754
11.2408
11.3083
11.1545
11.0188
11.0191
10.8337
10.445
10.5327
10.3056
10.3698
10.2912
10.2984
9.99605
9.90298
9.74396
9.65039
9.6008
9.52473
9.287
9.2785
9.09685
8.96076
8.84248
8.69467
8.58349
8.46554
8.34713
8.20377
8.06898
7.95946
7.84565
7.73186
7.5705
7.45078
7.32934
7.21892
7.09348
6.95973
6.82705
6.72308
6.58076
6.45146
6.31654
6.20556
6.07135
5.96471
5.82537
5.69973
5.56973
5.45265
5.33374
5.20349
5.0756
4.94141
4.83566
4.69818
4.57509
4.4374
4.32815
4.18469
4.07317
3.94809
3.81331
3.69619
3.56256
3.44776
3.33963
3.19373
3.06482
2.94783
2.818
2.70499
2.57342
2.44672
2.31889
2.19814
2.07949
1.94725
1.82704
1.68452
1.57756
1.45127
1.31513
1.18387
1.06094
0.947784
0.815182
0.688482
0.56457
0.438908
0.314554
0.188947
0.0627878
13.9628
13.2571
12.5521
12.2392
12.1099
11.6932
11.7909
11.365
11.4308
11.4005
11.1545
11.0273
11.0898
10.8845
10.6479
10.5846
10.6372
10.1546
10.1963
10.0747
10.0432
9.88326
9.60721
9.50748
9.5276
9.2482
9.19815
9.05456
8.96174
8.85371
8.7092
8.57523
8.47019
8.34762
8.2263
8.07661
7.97389
7.8243
7.72542
7.58193
7.44981
7.3089
7.20788
7.0869
6.95018
6.81878
6.71251
6.57329
6.46011
6.34259
6.19635
6.08551
5.92973
5.83189
5.71035
5.5875
5.4542
5.32716
5.18676
5.07965
4.93345
4.82031
4.70401
4.57844
4.45573
4.30701
4.19481
4.07732
3.94933
3.82452
3.69601
3.57526
3.43459
3.32617
3.18817
3.06484
2.9539
2.82245
2.69027
2.56529
2.43995
2.33233
2.18808
2.09057
1.94947
1.81765
1.68892
1.57211
1.43235
1.31361
1.20411
1.07747
0.935921
0.814045
0.689694
0.562958
0.438775
0.313262
0.187203
0.062881
14.1318
13.6222
13.0038
12.6108
12.1446
12.1905
11.8652
11.5304
11.5173
11.4843
11.2951
11.1294
11.0494
11.0962
10.6158
10.6567
10.3166
10.3141
10.1779
10.1263
9.86732
9.96284
9.68166
9.59924
9.39023
9.30392
9.13579
9.12087
8.94433
8.83428
8.70434
8.56969
8.43348
8.33139
8.21732
8.09155
7.94424
7.82372
7.69682
7.56868
7.43522
7.32627
7.20989
7.08575
6.96003
6.82381
6.69575
6.55971
6.46881
6.33011
6.19923
6.06385
5.95312
5.83241
5.69307
5.58241
5.44659
5.31576
5.20463
5.0652
4.94058
4.82603
4.69844
4.5725
4.42726
4.34187
4.19452
4.07107
3.94452
3.81624
3.68857
3.58095
3.45922
3.31555
3.18375
3.07514
2.936
2.81032
2.68883
2.56592
2.45323
2.31003
2.1881
2.08655
1.95815
1.82084
1.69333
1.57
1.42537
1.32289
1.18635
1.05157
0.946284
0.813357
0.688183
0.56332
0.440225
0.313127
0.188881
0.0628568
14.4099
13.8669
13.191
12.6812
12.6025
12.3359
11.8022
11.8374
11.569
11.4376
11.4506
11.142
11.0963
10.7419
10.8449
10.559
10.4569
10.2449
10.2329
10.016
10.1068
9.86331
9.65621
9.5794
9.39889
9.39092
9.13339
9.07123
8.95757
8.82158
8.70392
8.5728
8.45233
8.33577
8.20669
8.07818
7.95482
7.84098
7.71168
7.57027
7.44681
7.32201
7.20416
7.07789
6.93943
6.81853
6.7103
6.57409
6.46652
6.33845
6.20045
6.07374
5.94647
5.82853
5.69376
5.57597
5.4473
5.32682
5.19714
5.0584
4.93886
4.82302
4.71791
4.57299
4.45868
4.32765
4.20368
4.07002
3.94804
3.8203
3.68306
3.57701
3.43423
3.31836
3.19416
3.06127
2.93882
2.81564
2.69548
2.57587
2.43755
2.32155
2.18118
2.07001
1.9521
1.81235
1.6992
1.58552
1.44429
1.31009
1.19122
1.07892
0.937608
0.814564
0.689751
0.564405
0.437981
0.312806
0.188353
0.0628083
14.4969
14.0085
13.5358
13.0008
12.7241
12.2971
12.1568
11.8877
11.7038
11.511
11.1547
11.2762
11.0024
10.9776
10.8811
10.659
10.5994
10.5287
10.327
10.1045
9.99925
9.91825
9.68916
9.62739
9.42182
9.31668
9.25454
9.04756
8.9666
8.80835
8.69325
8.56731
8.46015
8.31975
8.21131
8.05151
7.95562
7.83665
7.70792
7.57341
7.45185
7.31815
7.20205
7.07212
6.94318
6.82262
6.68056
6.57468
6.44698
6.33198
6.21066
6.0973
5.95728
5.84526
5.7119
5.573
5.43148
5.33334
5.19597
5.07612
4.94408
4.83302
4.6964
4.58479
4.43256
4.32077
4.21051
4.06784
3.94929
3.82918
3.695
3.56709
3.43376
3.32554
3.19271
3.06974
2.94296
2.81175
2.69289
2.56005
2.43219
2.32158
2.19108
2.05927
1.95076
1.79428
1.69373
1.5716
1.45182
1.31659
1.18485
1.05418
0.945079
0.815479
0.688977
0.564325
0.437568
0.312814
0.188595
0.0626754
14.664
14.097
13.4687
13.1377
12.8503
12.5236
12.0826
12.1366
11.6986
11.6061
11.3912
11.3103
11.103
10.8623
10.8585
10.7096
10.4788
10.2104
10.222
10.1966
10.0385
9.86796
9.69011
9.546
9.50201
9.36155
9.1717
9.11352
8.93719
8.82568
8.69225
8.57024
8.44016
8.3242
8.20308
8.07741
7.9483
7.8206
7.70282
7.57768
7.45183
7.32681
7.1949
7.08088
6.94924
6.83346
6.69092
6.56461
6.44138
6.31699
6.18621
6.08005
5.94135
5.82542
5.71001
5.57637
5.44414
5.32601
5.19829
5.06547
4.94992
4.8308
4.70219
4.5819
4.4455
4.32265
4.21623
4.06782
3.93571
3.82012
3.69603
3.56733
3.44416
3.32493
3.17036
3.07559
2.94578
2.81791
2.69399
2.55753
2.45166
2.32225
2.19127
2.05972
1.95094
1.80911
1.69375
1.57383
1.44896
1.31956
1.18614
1.06456
0.941296
0.814589
0.688549
0.565311
0.439832
0.313677
0.18717
0.0626966
14.888
14.2467
13.898
13.33
12.9859
12.5309
12.4491
12.0299
11.9634
11.7043
11.5473
11.5083
11.2923
11.008
10.766
10.6414
10.4678
10.2865
10.3432
10.1362
10.0031
9.82156
9.62772
9.51777
9.3873
9.33854
9.15598
9.04755
8.94201
8.80677
8.6987
8.57052
8.44214
8.31114
8.19202
8.06756
7.95311
7.83107
7.66783
7.57669
7.42749
7.32759
7.2028
7.0828
6.95297
6.82164
6.6863
6.57602
6.44733
6.30779
6.19465
6.08259
5.94931
5.81508
5.69828
5.57006
5.44056
5.32487
5.20862
5.06568
4.96134
4.81923
4.69264
4.57035
4.46032
4.31781
4.20735
4.07477
3.95307
3.82964
3.69391
3.57735
3.44522
3.31743
3.17597
3.07128
2.94524
2.81589
2.69332
2.56746
2.43631
2.32052
2.19934
2.06099
1.94688
1.8195
1.69324
1.56374
1.45313
1.31746
1.19339
1.04862
0.945748
0.815009
0.689421
0.563041
0.438211
0.313063
0.187847
0.0627381
15.0956
14.3833
14.0608
13.4795
13.1217
12.8041
12.4824
12.1111
12.0392
11.7968
11.6413
11.3794
11.2922
11.0565
10.6806
10.725
10.4716
10.4417
10.33
10.0516
10.094
9.86546
9.71024
9.65777
9.52537
9.37189
9.19209
9.04002
8.94393
8.80345
8.68182
8.5637
8.41888
8.31776
8.17815
8.07081
7.95117
7.83193
7.69648
7.55779
7.4448
7.32448
7.20148
7.06083
6.96367
6.82724
6.68693
6.57704
6.44403
6.33727
6.18728
6.06534
5.9434
5.81001
5.70862
5.57783
5.43719
5.3177
5.19058
5.06761
4.95057
4.83994
4.70402
4.56143
4.44085
4.32215
4.18425
4.08015
3.95093
3.83103
3.6966
3.56562
3.45284
3.3111
3.18068
3.07827
2.95962
2.81335
2.6958
2.5772
2.4597
2.30481
2.18425
2.07319
1.95735
1.81616
1.69112
1.55751
1.42494
1.31197
1.18067
1.06905
0.940234
0.814388
0.691304
0.562541
0.439505
0.313696
0.188351
0.0626962
15.0767
14.5198
13.933
13.7814
13.1219
12.9795
12.5675
12.251
12.1435
11.7323
11.5951
11.5369
11.2376
11.008
10.9158
10.7325
10.5088
10.511
10.2347
10.0413
10.0155
9.73921
9.82213
9.54239
9.52846
9.21748
9.15186
9.09706
8.9257
8.82489
8.69938
8.56884
8.44593
8.29958
8.18255
8.06125
7.93161
7.81784
7.67738
7.5639
7.44817
7.3134
7.19851
7.06797
6.94076
6.82788
6.69578
6.55515
6.44789
6.3163
6.20919
6.05166
5.96047
5.8208
5.71035
5.57756
5.44712
5.3174
5.19769
5.06617
4.95282
4.83195
4.7144
4.57329
4.44369
4.32566
4.18884
4.05811
3.94109
3.80656
3.69585
3.57509
3.4425
3.30595
3.19245
3.06107
2.92987
2.81852
2.6818
2.58426
2.45053
2.33807
2.1819
2.06672
1.95159
1.81618
1.6831
1.56688
1.42998
1.3174
1.21692
1.05158
0.945383
0.813951
0.688426
0.564025
0.437665
0.314
0.18689
0.0627318
15.0138
14.6237
14.0588
13.5736
13.1334
12.9588
12.668
12.3608
12.0392
11.8522
11.5753
11.514
11.3193
11.081
10.9083
10.7788
10.5823
10.5314
10.1816
10.1033
9.86728
9.7923
9.83424
9.61619
9.51125
9.30601
9.2374
9.02063
8.9358
8.82074
8.67361
8.54789
8.42089
8.30794
8.1813
8.05551
7.93588
7.79488
7.69181
7.56285
7.44131
7.31803
7.18689
7.0622
6.95032
6.81326
6.68685
6.55259
6.43874
6.31734
6.1859
6.07882
5.94751
5.82483
5.71076
5.56725
5.45036
5.32097
5.18681
5.06948
4.96977
4.81855
4.70393
4.578
4.43117
4.32562
4.1914
4.07658
3.94891
3.81549
3.69728
3.58033
3.43159
3.33791
3.19977
3.08353
2.94714
2.82493
2.69778
2.55601
2.4312
2.31651
2.20825
2.06207
1.94919
1.81014
1.67256
1.55872
1.42441
1.30947
1.18831
1.07258
0.943669
0.814005
0.69065
0.565692
0.437243
0.314032
0.187433
0.0628214
15.3048
14.7167
14.4429
13.806
13.5752
13.0323
12.7054
12.4821
12.1684
12.0049
11.5221
11.5535
11.389
11.0975
10.8295
10.8394
10.8793
10.4727
10.3327
9.95172
9.87613
9.80054
9.69782
9.53349
9.45521
9.25055
9.14862
9.07564
8.93837
8.7913
8.68424
8.54981
8.43302
8.30221
8.16721
8.05291
7.93258
7.81746
7.67372
7.57257
7.4406
7.31446
7.18302
7.08033
6.93613
6.81302
6.69455
6.56795
6.44153
6.31916
6.19443
6.07339
5.95567
5.81742
5.67771
5.55957
5.44031
5.32135
5.18768
5.06622
4.95387
4.81721
4.68378
4.56253
4.4476
4.32624
4.18878
4.08481
3.95302
3.84657
3.70093
3.58034
3.44218
3.31911
3.19391
3.05699
2.94552
2.81738
2.69536
2.57458
2.43173
2.31662
2.19246
2.05981
1.93938
1.81449
1.67258
1.55454
1.44545
1.31714
1.19495
1.05784
0.944473
0.814385
0.68985
0.564478
0.437927
0.312626
0.185896
0.0627694
15.3223
14.8416
14.2853
14.0428
13.3946
13.1595
12.8257
12.4429
12.1794
11.9727
11.6939
11.6048
11.3141
11.1557
10.7904
10.753
10.4866
10.358
10.4045
10.0689
9.90172
9.81268
9.72082
9.44682
9.46161
9.27964
9.23154
9.06834
8.94778
8.80757
8.66829
8.54867
8.41132
8.29434
8.18403
8.04254
7.92002
7.79599
7.6833
7.55312
7.43389
7.30733
7.18078
7.05918
6.92998
6.80154
6.68295
6.55855
6.45219
6.31534
6.20278
6.08245
5.95336
5.82424
5.68945
5.56298
5.44637
5.32229
5.20262
5.0705
4.9563
4.80597
4.69122
4.56707
4.44425
4.31171
4.20224
4.07628
3.9434
3.81368
3.70291
3.57202
3.45311
3.31766
3.203
3.06849
2.93876
2.80465
2.69359
2.57062
2.45419
2.30401
2.19392
2.06501
1.93966
1.82136
1.67984
1.5693
1.44868
1.3179
1.19326
1.07177
0.939684