/*--------------------------------*- C++ -*----------------------------------*\
  =========                 |
  \\      /  F ield         | OpenFOAM: The Open Source CFD Toolbox
   \\    /   O peration     | Website:  https://openfoam.org
    \\  /    A nd           | Version:  6
     \\/     M anipulation  |
\*---------------------------------------------------------------------------*/
FoamFile
{
    version     2.0;
    format      ascii;
    class       volVectorField;
    location    "0";
    object      U;
}
// * * * * * * * * * * * * * * * * * * * * * * * * * * * * * * * * * * * * * //

dimensions      [0 1 -1 0 0 0 0];

internalField   nonuniform List<vector> 
918
(
(0.607558 -0.267073 0)
(0.185334 2.88449 0)
(-0.305085 1.71527 0)
(0.527404 0.229658 0)
(0.260197 1.78794 -1.63475e-19)
(-0.300238 2.64585 -3.20063e-18)
(1.10018 1.82403 9.37014e-20)
(0.444305 0.264771 -2.27206e-20)
(0.622154 0.00635099 0)
(0.0137717 1.79574 0)
(0.00710776 1.74036 0)
(0.945995 0.00245984 0)
(0.164288 3.14658 0)
(0.13744 3.00889 0)
(-0.140413 2.62559 -4.54656e-19)
(-0.0102118 1.71821 -1.19593e-19)
(0.693307 0.172549 1.8458e-18)
(0.1644 2.07537 1.59481e-20)
(0.978201 0.0245292 0)
(0.00929334 1.73098 0)
(-0.0389088 -0.178173 6.82999e-19)
(0.417081 -0.0564035 0)
(0.82967 0.0944256 0)
(1.07709 0.0397805 0)
(0.863761 0.0454147 0)
(0.334017 3.05199 0)
(-0.0169653 2.92904 6.76079e-19)
(-0.571432 1.84195 0)
(-0.0392176 1.68515 0)
(-0.302155 1.79144 0)
(-0.0198764 1.62435 0)
(-0.221765 1.62111 1.27475e-19)
(-0.0188219 1.71317 0)
(-0.566476 3.07798 -7.21474e-23)
(0.0292458 2.92876 2.52134e-18)
(0.0637933 3.03498 0)
(0.992907 -0.00501196 0)
(0.828139 1.3417 5.20045e-19)
(1.15331 1.68918 1.82147e-19)
(1.25598 1.62227 -1.44389e-19)
(0.95907 1.8873 -2.47753e-20)
(0.899137 2.00106 1.92346e-19)
(0.474907 0.308735 2.2124e-20)
(0.515074 0.26705 0)
(1.39042 0.81779 0)
(0.38695 0.313535 9.22562e-20)
(0.360422 0.243669 -9.60479e-20)
(0.996596 -0.00827991 0)
(0.921995 0.00839561 0)
(0.624095 0.0036215 0)
(0.921175 -0.173027 0)
(0.881989 0.04079 0)
(0.635483 0.0478239 0)
(0.00490306 1.62048 -9.30102e-19)
(0.0448347 1.83768 0)
(0.0235497 1.85074 0)
(-0.00575333 1.81941 0)
(0.000674013 1.82157 0)
(-0.00109591 1.73734 0)
(0.0303318 1.76758 0)
(0.00108704 1.76649 0)
(-0.0071928 1.74118 0)
(-0.00134161 1.72316 0)
(1.01914 -0.00102219 0)
(0.964226 0.0210317 0)
(0.965882 0.00177706 0)
(0.951285 0.00457994 0)
(0.944224 0.00213367 0)
(-0.127671 2.63779 1.11444e-18)
(0.449603 2.40785 0)
(-0.148935 2.55335 0)
(0.0905093 3.33067 3.39862e-24)
(-0.34465 3.11631 -1.79951e-18)
(0.145801 3.05444 0)
(0.0369392 2.94004 0)
(0.121841 3.05202 1.5189e-24)
(0.0411146 2.97081 0)
(0.055748 2.97641 0)
(-0.256236 2.95902 0)
(0.153769 2.66048 0)
(-0.013288 2.84786 0)
(-0.0137529 2.66859 3.80249e-19)
(-0.045477 2.66234 0)
(0.00113505 1.72366 0)
(-0.0369731 1.74487 1.17945e-19)
(0.00313345 1.74133 -1.58066e-19)
(0.71982 0.175179 -6.34642e-19)
(0.73146 0.145712 -6.24764e-19)
(0.683801 0.217533 -1.93261e-18)
(0.657286 0.207317 -1.21568e-18)
(0.167851 1.41465 0)
(0.357711 2.11757 -1.18942e-19)
(0.4172 2.15521 2.23515e-19)
(0.999484 -0.00237541 0)
(0.989528 -0.00080055 0)
(0.608504 -0.0123309 0)
(0.980426 0.0536931 0)
(0.963149 0.138798 -6.55173e-18)
(1.10244 0.332126 4.88514e-18)
(0.0323948 1.76123 0)
(-0.0014726 1.75873 0)
(0.00475405 1.65768 0)
(-0.0287757 1.75729 0)
(-0.0222876 1.74171 0)
(0.250824 0.119986 -1.31937e-19)
(0.184103 0.16972 0)
(1.04917 -0.0120856 0)
(1.01478 -0.00777797 0)
(0.934075 0.0573097 0)
(0.891597 0.169997 0)
(0.906809 0.0162147 0)
(1.15164 -0.00811388 0)
(0.853773 0.058333 0)
(0.817516 0.0349294 2.94326e-18)
(-0.0758749 2.86156 7.11492e-19)
(0.0248917 3.10336 0)
(-0.00938245 3.19299 0)
(0.118764 2.99565 0)
(0.0745286 2.95852 6.39326e-19)
(0.0493599 2.94785 0)
(0.0347699 2.93433 -1.95229e-18)
(-0.0366037 2.90173 6.47384e-19)
(0.0643279 1.73255 0)
(-0.0105102 1.74336 0)
(-0.00169974 1.72971 -4.6166e-21)
(-0.0486559 1.73091 0)
(0.00360846 1.72325 0)
(1.00123 0.00262901 0)
(0.993946 -0.00443898 0)
(0.986027 -0.00122849 0)
(0.999142 -0.0137194 0)
(0.988998 0.00443308 0)
(0.886 1.43727 -6.4573e-19)
(0.945818 1.41034 0)
(0.827031 1.34693 7.78115e-20)
(0.790213 1.30681 0)
(1.21624 1.47945 7.42268e-20)
(1.34997 1.33871 -2.61389e-19)
(0.570387 2.11995 0)
(0.775781 2.03505 0)
(0.670744 2.12254 0)
(0.536759 1.29892 -4.62981e-19)
(0.537769 0.301307 0)
(0.562375 0.252392 3.23975e-19)
(1.26305 1.23386 0)
(1.2835 0.997675 0)
(1.38648 1.07049 4.25311e-19)
(1.33283 0.76052 0)
(1.40047 0.635969 4.66247e-20)
(0.997295 0.0107456 0)
(1.00196 -0.0117593 0)
(0.994366 -0.00206548 0)
(1.00819 7.39222e-05 0)
(1.00174 -0.0286233 0)
(0.992483 0.00055319 0)
(0.890434 -0.012619 0)
(0.897232 -0.00796784 0)
(0.627726 -0.00153528 0)
(0.00687805 1.62515 4.7795e-19)
(0.0104566 1.58457 0)
(0.0330549 1.66077 8.74694e-19)
(0.0138309 1.66909 -7.89439e-19)
(0.0648122 2.03392 -5.04378e-21)
(0.0269441 1.92603 0)
(0.00792535 1.97907 0)
(0.00826851 1.8003 0)
(0.00700285 1.73627 0)
(-0.0140366 1.73772 -2.55296e-21)
(-0.0140577 1.72122 0)
(0.015217 1.74688 -1.66556e-19)
(0.00709307 1.73528 3.01401e-19)
(0.0112263 1.75629 0)
(0.0182577 1.77249 0)
(0.00120907 1.75619 0)
(-0.00289466 1.76814 0)
(-0.0028949 1.79749 0)
(1.03281 0.0172195 0)
(1.03031 0.00128493 0)
(1.01959 -0.0015937 0)
(1.00391 -0.000221417 0)
(0.980281 -0.00041157 0)
(0.976057 0.00325276 0)
(0.968957 0.00946492 0)
(0.959459 0.000588915 0)
(0.0524223 3.02989 -6.77332e-21)
(0.0110037 3.05311 0)
(-0.0182488 2.98669 0)
(-0.0608553 2.96228 0)
(0.542721 3.00743 0)
(0.970619 2.43091 2.14386e-19)
(-0.0549234 2.68214 0)
(-0.0991388 2.64593 0)
(-0.0200803 1.80442 0)
(-0.00458512 1.68185 0)
(0.00520798 1.73379 0)
(0.203767 1.87519 -1.03532e-19)
(0.0382754 1.78854 0)
(0.0474575 1.77861 0)
(0.00836854 1.73876 2.3495e-20)
(0.0185402 1.73468 1.3225e-19)
(0.000791303 1.73437 1.61774e-19)
(0.00515472 1.70528 0)
(0.749626 0.17068 1.02699e-18)
(0.752587 0.0945411 -1.01729e-18)
(0.214919 1.42416 0)
(0.222693 1.37256 -2.81866e-19)
(0.146194 1.49538 -8.24097e-19)
(0.0819447 1.49998 8.2492e-19)
(0.993197 -0.0017112 0)
(0.993317 -0.0120179 0)
(0.992869 0.00503867 0)
(0.981185 0.00192649 0)
(0.013921 1.78038 0)
(0.00479244 1.75315 0)
(0.00722295 1.73352 0)
(0.293056 0.28922 7.90114e-19)
(0.193052 0.243979 -7.17092e-19)
(0.268594 0.206312 0)
(1.19129 0.104689 1.07711e-19)
(1.26386 0.0560054 0)
(1.12499 0.0422071 0)
(1.08297 -0.000390139 0)
(0.778977 0.0978537 0)
(0.814553 0.0578188 -4.77822e-18)
(0.777546 0.0562158 1.80667e-18)
(-0.107114 2.91373 5.8404e-19)
(-0.127472 2.93786 -1.29794e-19)
(-0.00377938 3.10843 -1.10384e-20)
(-0.0158322 3.17634 3.33222e-19)
(-0.0091096 2.91487 2.08976e-20)
(-0.15204 2.8861 -5.06215e-23)
(-0.40642 2.91992 -6.29494e-19)
(0.516217 2.98488 4.5362e-19)
(0.216807 3.18409 -3.34502e-19)
(1.01261 0.0031153 0)
(1.00305 0.0398662 0)
(1.00259 0.00988109 0)
(0.990665 -0.00755046 0)
(0.987101 -0.00553792 0)
(0.975026 -0.000632846 0)
(0.985213 -0.00529992 0)
(0.990909 0.0100192 0)
(0.978307 0.00137537 0)
(1.00096 1.44904 -5.58307e-19)
(1.0095 1.45931 0)
(0.646676 1.27079 1.32152e-19)
(0.687773 1.34516 9.60229e-19)
(0.762208 1.35154 -6.22661e-19)
(0.727408 1.32719 1.16334e-18)
(0.499893 1.32723 2.19806e-18)
(0.479516 1.29575 4.11785e-19)
(0.64579 0.244363 1.26993e-18)
(0.594633 0.273905 3.23043e-19)
(0.619464 0.235526 6.09705e-19)
(1.32049 0.567462 -6.41382e-19)
(1.36119 0.42405 -6.95724e-19)
(0.0122911 1.69053 3.701e-19)
(0.00483732 1.67743 0)
(1.07745 0.0360266 0)
(1.05066 0.0125508 0)
(1.05146 -3.16321e-06 0)
(-0.0123043 3.05366 0)
(0.0891845 3.01669 9.2234e-19)
(0.0315805 3.01282 0)
(-0.00571123 2.96978 -9.21249e-19)
(-0.0927764 3.03341 2.32356e-19)
(-0.00905009 3.01819 0)
(1.07883 1.53621 8.82643e-20)
(1.18327 1.77518 -2.81885e-19)
(1.03558 1.51232 -3.05369e-20)
(-0.0853137 2.86014 -6.42737e-19)
(-0.0954852 2.77795 0)
(-0.0721943 2.78415 0)
(-0.0313554 1.74022 -7.19673e-21)
(0.0357893 1.73014 -3.16485e-19)
(-0.0113183 1.70699 2.58401e-20)
(0.265116 1.37811 8.92983e-19)
(0.278652 1.3194 -5.97422e-19)
(0.0509564 1.58672 6.13113e-19)
(0.0857248 1.54807 -6.88299e-19)
(0.0244883 1.54086 5.12041e-20)
(0.0126997 3.09763 -1.10753e-18)
(-0.157192 3.10328 1.31732e-18)
(0.0718844 2.95619 6.70596e-19)
(-0.109523 3.0319 -4.51584e-19)
(0.246829 2.93336 -6.83536e-19)
(-0.0840999 2.98711 -1.73332e-18)
(-0.181529 3.0416 1.8304e-18)
(0.540377 1.32691 0)
(0.599137 1.31056 -2.20242e-18)
(0.582226 1.25461 9.81218e-19)
(0.430973 1.34062 1.23694e-18)
(0.408686 1.30379 -1.92706e-18)
(1.26736 0.208542 3.89322e-19)
(1.30577 0.389303 0)
(1.34829 0.252817 -3.62491e-19)
(-0.0240032 1.73865 -4.89052e-21)
(0.00463067 1.71246 0)
(0.014214 1.71988 0)
(0.306482 1.36766 -3.02289e-19)
(0.373748 1.35445 -7.25599e-19)
(0.362866 1.34446 1.36136e-18)
(0.988539 -0.0777091 0)
(1.11642 -0.149487 1.20626e-18)
(0.126035 1.71258 0)
(0.0705255 1.62956 0)
(1.03554 -0.0852282 6.0101e-20)
(0.863709 -0.119966 2.55836e-18)
(0.116131 1.90027 1.40239e-19)
(0.125988 1.74557 0)
(-0.102545 2.80894 7.29278e-19)
(0.10635 2.45504 0)
(1.22256 0.65499 -3.85581e-19)
(1.09293 -0.00801009 -2.23083e-20)
(1.10611 0.0350243 0)
(0.950932 -0.004427 -1.57587e-21)
(0.0125886 1.9622 0)
(0.149934 1.82493 0)
(-0.0225951 1.8905 0)
(0.134367 1.92164 1.90509e-19)
(0.0442856 1.91157 8.56543e-20)
(1.04409 -0.00297504 1.53866e-20)
(1.13664 0.0685909 0)
(1.14121 0.0430159 0)
(-0.0125592 1.65817 0)
(0.0304266 1.84135 0)
(-0.0317559 1.88911 0)
(0.263949 2.05308 1.3495e-19)
(1.02227 -0.145318 0)
(0.973452 -0.0593321 0)
(0.944878 0.176092 1.55129e-18)
(0.909292 0.0720162 -1.79553e-18)
(1.12287 -0.0783657 0)
(0.143024 1.73693 0)
(-0.0898586 1.69307 0)
(-0.0319662 1.82161 0)
(-0.0273741 1.855 0)
(-0.15671 1.83423 0)
(0.0293597 1.58925 0)
(1.06594 -0.00127556 0)
(1.07719 -0.00869826 2.00952e-21)
(0.974224 1.71428 -8.98004e-20)
(0.975901 -0.194429 -1.54902e-18)
(0.991794 0.0797496 1.89554e-18)
(1.14758 0.0770423 0)
(0.98746 -0.0125485 1.51779e-18)
(1.07591 0.133964 -1.90595e-18)
(0.94919 0.0199831 0)
(0.00400208 1.81357 0)
(0.172466 1.76374 1.70667e-19)
(-0.0297439 1.65051 -1.21407e-19)
(1.24429 0.286896 2.20525e-18)
(1.18129 0.0767405 0)
(-0.822151 2.78686 -8.73347e-19)
(-0.193395 3.37202 -4.24324e-20)
(-0.426701 2.58836 1.9319e-18)
(0.00346479 2.74662 -3.55229e-19)
(0.0417414 2.62788 0)
(-0.00662734 2.90013 2.89109e-19)
(-0.352619 3.14184 8.08397e-19)
(-0.0648939 2.85784 -5.21501e-19)
(-0.389594 3.02221 0)
(0.642333 0.298429 0)
(0.466214 0.347916 0)
(1.05774 0.89166 1.15031e-18)
(1.15085 0.928713 -1.4163e-18)
(1.17371 0.524157 0)
(1.14631 0.59867 0)
(1.05233 0.0655862 -2.82905e-18)
(0.967606 0.036344 3.66173e-18)
(1.11388 -0.17822 0)
(0.964291 -0.0787994 0)
(0.833185 0.102029 0)
(1.11236 -0.0776272 0)
(1.00408 0.103838 0)
(0.947496 -0.0176452 0)
(1.04188 -0.174193 0)
(0.944619 -0.00917878 0)
(0.00384158 1.89445 0)
(0.0291826 1.72863 0)
(0.0329036 1.88274 0)
(0.149407 1.8354 0)
(0.262622 1.76465 0)
(0.0989837 1.59517 -5.01766e-19)
(0.138641 1.69792 0)
(-0.011075 1.6258 3.26072e-19)
(0.124986 1.82427 -3.87816e-19)
(0.0700042 1.84712 0)
(0.111873 1.71254 0)
(-0.0938389 1.76761 0)
(-0.0932647 1.72117 0)
(-0.0165814 1.86456 -8.48286e-20)
(0.0370702 1.76355 3.34284e-19)
(-0.0698947 1.85225 2.59994e-19)
(-0.0357601 1.65528 0)
(-0.0723349 1.84617 -3.2162e-19)
(-0.0745563 1.70899 -3.98975e-19)
(0.205782 1.95021 8.73702e-21)
(-0.258102 1.49713 -4.26823e-19)
(0.00509669 1.5727 -3.31232e-19)
(1.00417 -0.0530415 2.64542e-18)
(0.965936 -0.0657426 -3.4069e-18)
(1.00374 0.0474824 -2.71742e-18)
(0.912015 0.0319082 3.59293e-18)
(1.10804 0.142568 0)
(0.983862 0.0432248 0)
(1.05392 0.0681997 0)
(1.08037 -0.0584927 0)
(0.937185 -0.0075747 0)
(1.12316 0.109762 0)
(1.10507 -0.0189607 0)
(0.965826 0.0267198 0)
(-0.28328 1.60988 -1.80685e-20)
(-0.0741096 1.76021 0)
(0.0155113 1.75109 0)
(0.101197 1.74923 6.80292e-20)
(0.108074 1.7341 -4.63648e-21)
(-0.0155688 1.78277 1.67089e-19)
(-0.293908 1.65048 -1.66748e-19)
(-0.158054 1.73948 0)
(0.117291 1.8344 0)
(0.16764 1.72954 0)
(-0.0989267 1.78408 0)
(-0.129198 1.75955 0)
(0.318299 1.92729 -4.08953e-19)
(0.444683 1.96674 -1.03382e-19)
(0.358185 1.51492 -2.13232e-19)
(0.252213 1.64994 5.84948e-19)
(0.363436 1.87803 1.23259e-19)
(1.04172 0.0552947 0)
(0.998203 0.07823 0)
(0.987394 0.0781012 0)
(0.948031 -0.0416904 0)
(1.02087 -0.101268 0)
(0.908511 0.0537451 0)
(1.00438 0.203728 0)
(1.03109 -0.0131415 0)
(1.01066 -0.0497049 2.77126e-18)
(0.978958 -0.0494073 -3.54662e-18)
(1.03666 0.049444 -2.72237e-18)
(0.961637 0.044088 3.50696e-18)
(0.930387 1.67366 0)
(0.868884 1.70855 -3.79189e-19)
(0.86145 1.62369 -3.57506e-19)
(0.969923 1.47677 4.6642e-19)
(0.93106 1.58709 1.84171e-18)
(0.865733 0.104656 1.15225e-18)
(1.13621 0.0625248 0)
(1.18251 0.315686 -1.78038e-18)
(1.05355 0.108208 -7.43271e-20)
(1.01214 0.118386 0)
(-0.812167 2.42166 1.00075e-18)
(-1.05736 2.33276 -1.27571e-18)
(-1.05341 3.38646 1.89693e-19)
(-1.55799 1.25803 -2.33304e-19)
(-0.16143 2.39588 4.25894e-19)
(-0.0866921 2.61103 0)
(-0.120682 2.55445 -5.1528e-19)
(-0.38238 2.35155 -2.67504e-18)
(-0.190164 2.2323 0)
(-0.0889272 2.98805 5.30644e-20)
(0.00222277 3.11068 -3.25932e-19)
(0.0500537 3.07883 5.16467e-19)
(-0.209029 2.96153 0)
(-0.102562 2.90969 0)
(1.0756 1.70621 0)
(0.347436 1.22895 -9.77992e-19)
(1.0844 1.17376 4.47495e-19)
(0.907637 1.48926 0)
(0.801307 1.12003 -4.27853e-19)
(1.00545 1.16353 4.89222e-20)
(0.0323467 0.0795532 -1.1807e-18)
(0.64077 0.246062 -3.04212e-21)
(0.606135 0.2814 7.02903e-19)
(0.38165 0.446791 4.11455e-20)
(0.276847 0.322723 -1.58198e-18)
(0.546788 0.438247 0)
(0.550157 0.56166 1.12846e-18)
(0.573346 0.320261 0)
(0.432373 0.349647 0)
(0.456387 0.329176 0)
(0.593808 0.745674 9.184e-19)
(1.24837 0.170072 -1.76851e-18)
(1.11636 0.573528 0)
(1.18811 0.253691 0)
(0.783346 0.219699 1.08426e-18)
(0.58022 0.722426 -7.22625e-19)
(0.541239 0.512431 1.35097e-18)
(0.860016 0.402364 -1.52297e-18)
(0.994506 -0.0569621 1.95115e-18)
(1.01384 0.187412 -1.96963e-18)
(0.96312 0.0504416 0)
(0.994605 -0.0396522 0)
(0.984252 -0.0302523 -1.83331e-18)
(0.965251 0.0393277 1.81738e-18)
(0.968098 0.107298 0)
(0.93752 0.0369693 0)
(1.0733 -0.021413 0)
(0.924296 -0.0540124 0)
(1.07451 -0.017077 0)
(0.976849 -0.0713372 0)
(0.250403 1.82187 0)
(0.176923 1.77487 0)
(0.277825 1.85229 -5.04069e-19)
(0.342645 2.01545 -1.33021e-19)
(0.377318 1.89201 -4.05489e-19)
(0.244584 1.90724 5.97429e-19)
(-0.0755604 1.82558 0)
(0.165769 1.82051 -4.77078e-19)
(-0.122434 1.95154 0)
(0.282295 1.75032 -1.76773e-19)
(0.142836 1.60675 8.27221e-19)
(0.360419 1.63202 4.12333e-19)
(0.132478 1.72696 -2.15755e-19)
(0.0233884 1.73921 1.7774e-19)
(0.152749 1.87912 -5.20941e-19)
(0.267992 1.80143 0)
(0.304612 1.68285 3.99329e-19)
(0.159293 1.66008 -1.8339e-19)
(0.187528 1.75173 0)
(0.00180184 1.79909 4.50912e-19)
(-0.154451 1.67918 0)
(0.024904 1.68616 -3.61738e-19)
(0.0275757 1.6097 0)
(-0.0186575 1.78751 -1.9301e-19)
(0.101634 1.69503 0)
(0.00342961 1.76061 0)
(0.0539076 1.74088 2.11495e-19)
(0.19388 1.80074 2.04583e-19)
(-0.00251952 1.74934 4.90332e-19)
(0.0283392 1.64457 4.12664e-21)
(0.217848 1.80302 1.15788e-19)
(0.0698648 1.5018 6.89491e-20)
(-0.211289 1.71329 0)
(-0.151481 1.75658 0)
(0.00336297 1.66739 3.08827e-19)
(-0.0832601 1.70717 4.04981e-19)
(0.0952182 1.79298 -4.52952e-19)
(-0.0483348 1.85378 0)
(0.0983021 1.83822 -5.52554e-19)
(-0.0968675 1.59218 1.64281e-19)
(-0.10924 1.77291 -2.76551e-20)
(0.174905 2.00089 -1.36578e-19)
(0.242873 1.56983 -1.21463e-19)
(-0.011464 1.56381 3.27025e-19)
(0.989606 0.0720882 -1.88139e-18)
(0.995797 -0.166367 1.85261e-18)
(0.95442 0.036119 0)
(0.976767 -0.101434 2.63532e-18)
(0.902297 0.191316 -2.88997e-18)
(0.965207 0.0179217 3.12905e-18)
(0.958522 -0.057644 -3.32015e-19)
(1.10232 -0.140746 0)
(1.00982 -0.00360431 1.85767e-18)
(0.956823 -0.0635161 -1.81402e-18)
(0.928279 -0.0698537 -1.05159e-19)
(0.935741 0.179677 8.94215e-19)
(1.01914 0.124983 0)
(0.939885 0.0695728 -3.17692e-19)
(1.01951 0.0399543 0)
(0.918232 0.0948572 0)
(1.04511 0.0739602 0)
(0.935633 -0.0279945 0)
(1.00807 0.0994679 6.4521e-19)
(1.07784 0.0347715 -1.45619e-18)
(1.00418 -0.0202951 -7.05766e-19)
(0.977336 -0.0231889 -7.5887e-19)
(1.15931 0.0803697 1.47916e-18)
(0.926086 0.0816548 0)
(0.905602 -0.0360553 0)
(0.00558825 1.94592 -1.20227e-19)
(0.324269 1.82046 -2.79994e-20)
(0.120184 1.60554 0)
(0.0226374 1.7296 1.20252e-19)
(-0.257568 1.70063 4.59597e-20)
(-0.156874 1.71313 -4.67947e-20)
(-0.169618 1.7766 3.43368e-19)
(-0.0961781 1.75448 -1.66883e-20)
(0.260761 1.68066 1.08054e-19)
(0.130977 1.74256 -1.56786e-19)
(-0.107197 1.74128 1.86608e-19)
(-0.0389666 1.62813 -2.12486e-20)
(0.0566934 1.88808 3.1717e-19)
(0.476061 1.71515 2.61704e-19)
(0.252981 1.88893 5.79252e-19)
(0.76198 1.7973 3.78596e-19)
(0.572133 1.91755 9.93021e-20)
(0.666088 1.92301 0)
(0.381301 1.46284 2.54694e-19)
(0.268988 1.36528 3.0218e-19)
(0.273601 1.51202 4.94723e-20)
(0.325683 1.51048 -9.11726e-19)
(0.571354 1.49598 8.32057e-19)
(0.179707 1.52577 0)
(0.161574 1.39936 -5.58141e-19)
(0.0944959 1.63758 1.23224e-18)
(-0.0378293 1.63724 3.09447e-21)
(0.0124776 1.50232 -1.53442e-18)
(0.736824 1.42412 1.22894e-18)
(0.497102 1.46097 0)
(1.05082 0.244979 6.07366e-20)
(1.00133 -0.188827 -5.16295e-20)
(0.905418 -0.150033 -9.36024e-19)
(1.02074 0.0318616 9.47749e-19)
(0.950528 0.0206988 0)
(0.722569 1.56814 0)
(0.953007 1.66871 0)
(0.872609 1.29044 0)
(0.732333 1.45906 0)
(0.85812 1.59448 7.72888e-20)
(0.698429 1.4922 0)
(0.546431 1.40981 1.07704e-20)
(0.423107 1.45425 0)
(0.578597 1.63961 -1.03916e-18)
(0.643572 1.43329 6.79953e-19)
(0.811785 0.0742145 0)
(0.801876 0.112622 3.02968e-19)
(0.848395 0.143098 1.89376e-18)
(0.856378 0.0459361 -6.79183e-19)
(0.828078 0.0981836 -2.20586e-18)
(1.18204 0.211691 -2.20893e-18)
(0.665458 0.480273 -3.62229e-20)
(1.01676 0.0795459 1.65455e-18)
(0.900939 0.0373927 1.66132e-18)
(0.83847 0.195325 -2.53142e-18)
(0.936764 0.291647 3.0341e-19)
(0.669469 0.313479 -7.60536e-19)
(0.83537 0.325947 0)
(0.936752 0.138699 1.25022e-18)
(1.00748 0.174328 0)
(1.04889 0.065983 0)
(0.929429 0.233217 7.48532e-19)
(0.939765 0.40154 -1.28118e-20)
(0.836698 0.0420365 -4.30821e-19)
(0.937776 0.0357878 0)
(0.90899 0.0348462 1.39339e-18)
(0.919485 -0.168237 1.79035e-18)
(1.1316 0.0842539 -1.3795e-18)
(1.00074 0.196533 -1.20498e-18)
(0.94423 -0.0563838 -1.87033e-18)
(0.85224 0.219047 0)
(0.925479 0.00358459 0)
(0.892742 0.121264 -1.10796e-18)
(0.914986 -0.0970463 4.09542e-19)
(1.02178 0.166119 1.60505e-18)
(1.0807 0.086198 -2.06795e-18)
(0.929847 0.149244 1.84041e-18)
(0.885542 0.240366 0)
(1.06726 0.165617 0)
(0.881755 0.0971878 -8.14823e-19)
(0.934114 0.0697375 -1.32106e-18)
(0.519835 1.61027 5.14996e-19)
(0.582216 1.46207 -4.72549e-19)
(0.781421 1.5068 -7.15958e-19)
(0.665966 1.62487 1.89486e-19)
(0.827027 1.53744 -1.7425e-18)
(1.03069 1.72064 5.53237e-19)
(0.886884 1.48214 5.84842e-21)
(0.852268 1.66128 -6.99372e-19)
(0.757359 1.63291 1.09471e-18)
(0.684044 1.77049 2.70056e-19)
(1.03171 1.80596 -2.7626e-19)
(1.05987 2.01091 0)
(0.536802 1.42751 -1.0246e-19)
(-0.578307 1.68988 6.93209e-19)
(-0.53561 0.418854 6.76895e-19)
(-0.539984 0.37613 1.9019e-19)
(0.204607 0.427406 9.00573e-19)
(0.19158 0.382091 -1.70597e-18)
(0.127158 0.581197 1.37161e-18)
(-0.0401749 0.319538 -3.80439e-19)
(0.169225 0.264559 7.76282e-19)
(0.716849 0.298816 -6.39885e-19)
(0.622231 0.34543 0)
(0.637063 0.263235 7.06679e-21)
(0.572129 0.467156 6.08431e-19)
(0.301486 0.607526 -2.20561e-18)
(0.256771 0.512584 -3.1528e-20)
(0.425233 0.385692 0)
(0.500511 0.953054 8.055e-19)
(0.705477 0.862329 8.96238e-19)
(0.694634 1.30551 -1.05183e-18)
(0.663777 0.90084 -4.25407e-19)
(0.878272 0.898502 -1.55267e-19)
(0.981915 1.14814 1.57932e-19)
(0.672724 0.739075 -1.5437e-18)
(0.737603 1.02536 4.01314e-19)
(1.05326 0.830632 0)
(0.903206 0.767919 -5.78858e-19)
(0.872426 0.358345 5.22692e-19)
(0.920437 0.437342 9.61052e-19)
(1.09642 0.328021 8.83906e-19)
(0.890536 0.438207 -1.02047e-18)
(1.04914 0.363414 0)
(1.00197 0.335364 0)
(0.667662 0.428483 -1.27415e-20)
(0.824145 0.228426 0)
(0.608509 0.336524 7.90531e-19)
(0.918143 0.272187 -5.26735e-21)
(0.927141 0.631114 4.20727e-18)
(0.717134 0.55525 1.17779e-18)
(0.668683 0.537177 -1.08824e-18)
(0.650734 0.465729 1.18456e-18)
(0.644847 0.591209 6.73028e-19)
(0.558989 0.374121 -6.6357e-19)
(1.0317 0.113848 1.52427e-18)
(0.922444 -0.165631 0)
(0.940261 0.0270269 1.01741e-18)
(0.852892 0.257854 -2.26657e-18)
(1.08073 -0.0168333 1.09052e-18)
(0.899495 0.0362602 -2.26925e-18)
(1.05698 -0.0273263 0)
(0.967233 -0.0167116 -4.75448e-19)
(0.969757 0.111818 1.2071e-18)
(0.962583 -0.00535811 -6.25091e-19)
(0.927777 -0.179927 4.54779e-19)
(-0.151041 1.78442 0)
(0.269937 1.65485 0)
(-0.148381 1.76492 0)
(-0.069117 1.77981 0)
(0.015601 1.90146 6.73991e-19)
(-0.00977726 1.7609 -1.4714e-19)
(0.105998 1.56875 -2.30435e-19)
(0.274688 1.54599 3.0905e-19)
(-0.288514 1.83516 -6.58675e-19)
(0.0913897 1.63709 4.95895e-19)
(-0.0271125 1.90679 6.72715e-20)
(0.00879632 1.64175 -4.69334e-19)
(0.103537 1.7229 -7.57015e-20)
(0.372895 1.7519 -6.33165e-20)
(-0.0277007 1.69492 -4.82557e-19)
(0.0805456 1.62213 0)
(-0.0461787 1.72324 2.43259e-19)
(0.0191624 1.73668 1.55103e-19)
(0.131157 1.60243 -2.38085e-19)
(0.0815392 1.70283 0)
(0.249397 1.54497 -8.83295e-19)
(0.126399 1.64254 6.42597e-19)
(0.405559 1.64361 -6.46532e-19)
(0.224774 1.60515 4.50039e-19)
(-0.183157 1.34596 0)
(0.116118 1.54248 -3.64778e-19)
(-0.0674984 1.44955 -6.82401e-19)
(-0.097371 1.65927 0)
(0.0521079 1.74553 2.07425e-20)
(0.0318591 1.87521 1.83759e-19)
(-0.00515584 1.70893 5.29422e-20)
(0.0677833 1.60039 -8.99985e-19)
(-0.0653912 1.84622 3.23615e-19)
(-0.167799 1.43506 2.29686e-19)
(0.12311 2.02481 0)
(0.0200117 1.95864 0)
(-0.169738 1.78491 1.72788e-19)
(0.210869 1.70456 -6.20836e-20)
(-0.0210427 1.77707 0)
(0.157079 1.78003 1.13382e-19)
(0.098403 1.71434 -2.33225e-19)
(0.950317 0.340665 0)
(1.14319 0.0923031 -1.71764e-19)
(0.926001 0.163513 -1.18309e-18)
(0.881555 -0.0215352 0)
(0.87459 -0.256592 0)
(1.15513 -0.0896282 -3.49078e-20)
(1.03295 -0.228815 1.88596e-18)
(0.91837 0.0104306 2.35789e-18)
(1.03009 0.0195853 0)
(0.983719 -0.00478673 0)
(0.939688 -0.077898 1.1776e-18)
(0.965729 0.0362457 0)
(0.924641 0.179979 0)
(-0.0585723 1.81279 0)
(-0.0693208 1.52491 9.56587e-20)
(-0.119031 1.55366 9.90341e-20)
(-0.0218856 1.74552 0)
(0.301218 1.81525 2.39147e-19)
(0.117026 1.77004 -6.01912e-20)
(0.0717435 1.61432 0)
(0.255675 1.5784 0)
(0.291567 1.39043 -1.05537e-18)
(0.313774 1.43086 0)
(0.50331 1.81143 1.19023e-18)
(0.554316 1.72703 0)
(0.589242 1.77587 -4.94653e-19)
(0.43298 1.428 -2.79569e-20)
(0.749089 1.3633 -1.46342e-18)
(0.621257 1.36369 1.9566e-18)
(0.526738 1.3881 3.80953e-19)
(0.394585 1.44137 0)
(0.535909 1.43625 0)
(0.516884 1.45856 0)
(0.412682 1.32956 -1.40438e-18)
(0.433261 1.43305 -9.6757e-19)
(0.268632 1.41582 -2.18387e-19)
(0.534023 1.53917 1.73027e-19)
(0.268762 1.43567 0)
(0.500804 1.41869 0)
(0.384324 1.35268 -3.87569e-19)
(0.381077 1.46648 0)
(0.487634 1.44102 0)
(0.767131 1.38043 -1.21449e-18)
(0.462467 1.14151 -8.26237e-20)
(0.810474 1.46635 0)
(0.727608 1.54694 1.83731e-18)
(0.795485 1.5029 -3.4597e-19)
(1.16416 1.18649 0)
(0.9218 0.970926 6.29953e-19)
(0.310479 1.64783 0)
(0.32131 1.27638 0)
(0.750801 1.38005 -7.06191e-19)
(0.714983 1.53621 -4.68785e-19)
(0.832339 1.51005 8.21066e-19)
(0.74538 1.60622 -2.61993e-19)
(0.751381 1.43563 0)
(0.690346 1.46677 3.4633e-19)
(0.733988 1.43646 -6.24267e-19)
(0.779196 1.39214 7.38466e-21)
(0.596159 1.46245 0)
(0.482335 1.59739 -4.50705e-19)
(0.5437 1.4008 0)
(0.812023 0.136587 0)
(0.809234 0.225559 0)
(0.685989 0.196187 0)
(0.763182 0.345016 -1.23855e-18)
(0.75953 0.174976 6.72364e-19)
(1.04874 -0.0686136 -8.33376e-19)
(0.873812 -0.0587995 0)
(0.92543 -0.0444925 3.58844e-19)
(0.829576 0.175256 1.45027e-18)
(0.736617 0.0763242 -9.36527e-19)
(0.940577 2.25291 2.02025e-19)
(0.797029 1.98407 0)
(0.905382 2.26098 5.99501e-19)
(0.15983 2.40213 -4.85802e-19)
(0.176174 1.82956 -6.73894e-19)
(0.119105 1.43682 1.11763e-18)
(0.297282 1.50447 0)
(0.182392 0.937338 -2.49798e-19)
(-0.0095432 1.14532 1.57164e-18)
(-0.279259 0.928832 -3.30374e-19)
(0.0682967 0.592202 4.16648e-19)
(0.234696 0.63297 8.22658e-19)
(0.543104 0.662821 0)
(0.234011 0.895762 0)
(0.107084 0.898472 0)
(0.815516 0.766353 4.68326e-19)
(0.784286 0.585076 -1.14167e-18)
(0.943056 0.633441 9.66116e-19)
(0.786849 0.392312 -8.54641e-19)
(1.04192 0.708032 0)
(0.934988 0.670005 -2.90604e-19)
(0.805537 0.34134 -1.56915e-18)
(0.757485 0.204948 -1.96015e-18)
(0.590632 0.462195 1.22944e-18)
(0.592913 0.463859 -1.13691e-18)
(0.754525 0.384102 -9.28967e-19)
(0.67636 0.315823 1.15161e-18)
(1.10141 -0.00359251 -1.13016e-18)
(1.10498 0.0189276 2.35583e-18)
(1.08903 0.026537 1.43788e-18)
(1.05455 -0.100974 -1.71014e-18)
(0.766908 0.0918794 0)
(0.721983 -0.0553281 -3.00621e-18)
(0.191147 1.54799 1.32659e-19)
(-0.164996 1.75617 0)
(0.211571 1.81841 8.19734e-19)
(0.153295 1.71135 -7.68703e-19)
(0.0214845 1.78483 4.16046e-19)
(0.133391 1.76759 0)
(-0.0717622 1.80744 0)
(0.138104 1.59209 -8.61621e-20)
(0.0138661 1.57172 7.809e-20)
(0.279808 1.61919 -1.75253e-20)
(-0.336297 1.87934 -1.92966e-19)
(-0.202983 1.69927 1.01476e-19)
(0.533731 1.58984 -1.31208e-18)
(0.76755 1.63329 1.3774e-18)
(0.453955 1.75642 -5.60217e-19)
(0.778759 1.60506 6.00398e-20)
(0.510674 1.74811 0)
(0.68652 1.74927 -6.37943e-19)
(0.56493 1.69948 6.20246e-19)
(0.480527 1.64369 5.67019e-19)
(0.592621 1.72724 0)
(0.734563 1.67698 0)
(0.801218 1.36769 1.46265e-18)
(0.286155 1.54389 1.78985e-18)
(0.150571 1.55325 -1.27401e-18)
(0.0832693 1.575 -2.17041e-19)
(0.454325 1.3804 4.75739e-19)
(0.38634 1.26873 -1.12875e-18)
(0.658183 1.40461 -1.07232e-18)
(0.599958 1.45815 0)
(0.581602 1.4059 -1.11092e-18)
(0.771071 1.45331 0)
(0.646031 1.64175 0)
(0.550487 1.82709 -7.15825e-19)
(0.554295 1.79605 -5.21012e-19)
(0.213198 1.92557 6.40843e-19)
(-0.394583 1.50926 0)
(-0.0160725 1.41005 -5.54795e-19)
(0.0943905 1.50782 -7.05235e-19)
(0.522813 1.61832 0)
(0.534375 1.92274 4.96264e-19)
(0.0750148 2.07221 0)
(0.576314 0.988435 -1.69918e-18)
(0.608288 1.02972 2.31084e-18)
(0.767294 0.801944 -2.29178e-18)
(0.357743 0.790761 -2.07579e-19)
(0.370758 0.825955 -8.25105e-19)
(0.705976 1.69584 3.80857e-19)
(0.694778 1.64911 -9.60256e-19)
(0.500581 1.82068 1.19273e-18)
(0.514406 1.6059 -7.90915e-19)
(0.609041 1.61868 -1.25286e-18)
(0.606732 1.68561 -1.03046e-19)
(0.726003 1.50059 9.84988e-19)
(0.538862 1.63186 6.90377e-20)
(0.546365 1.45367 5.46739e-19)
)
;

boundaryField
{
    wall-4
    {
        type            noSlip;
    }
    velocity-inlet-5
    {
        type            fixedValue;
        value           uniform (1 0 0);
    }
    velocity-inlet-6
    {
        type            fixedValue;
        value           uniform (0 3 0);
    }
    pressure-outlet-7
    {
        type            zeroGradient;
    }
    wall-8
    {
        type            noSlip;
    }
    frontAndBackPlanes
    {
        type            empty;
    }
}

