/*--------------------------------*- C++ -*----------------------------------*\
  =========                 |
  \\      /  F ield         | OpenFOAM: The Open Source CFD Toolbox
   \\    /   O peration     | Website:  https://openfoam.org
    \\  /    A nd           | Version:  6
     \\/     M anipulation  |
\*---------------------------------------------------------------------------*/
FoamFile
{
    version     2.0;
    format      ascii;
    class       volScalarField;
    location    "0";
    object      P_rec;
}
// * * * * * * * * * * * * * * * * * * * * * * * * * * * * * * * * * * * * * //

dimensions      [0 2 -2 0 0 0 0];

internalField   nonuniform List<scalar> 
918
(
0.548212
0.267553
0.105617
0.566855
-0.00310765
0.166312
-0.788764
0.507645
0.570858
-0.123158
0.0284087
0.444906
0.026055
0.00761003
-1.2329
0.0204462
0.567022
-0.729177
0.405765
0.0229937
-0.0594831
0.571872
0.504815
0.402255
0.490554
-0.066699
0.0957029
-0.0330506
-0.0530682
-0.0407825
-0.00395745
0.0449586
0.00661008
0.161914
0.137163
0.171969
0.41353
0.196058
-0.654895
-0.70621
-0.698253
-0.866093
0.517233
0.530434
-0.289725
0.486028
0.46099
0.41551
0.550533
0.573517
0.509015
0.553923
0.580667
0.271406
-0.167468
-0.237168
-0.0802627
-0.0823707
0.0719224
0.0212217
0.00586113
0.0563738
0.0431636
0.364858
0.436262
0.431007
0.455905
0.455247
0.229426
0.180058
0.222116
0.0275196
0.147194
-0.00367111
0.106883
0.00881325
0.0457666
-0.0145757
-0.0303913
-1.5027
-2.25727
-0.762895
-0.626406
0.00668856
0.0221824
0.0302625
0.555894
0.557428
0.553196
0.562873
0.70821
-0.660222
-0.842784
0.439334
0.438532
0.557323
0.512645
0.455857
0.391131
0.0205615
0.0166226
0.0115996
0.0390002
0.0302101
0.109802
0.221305
0.380615
0.414555
0.455319
0.48073
0.468787
0.199001
0.52807
0.528045
-0.105844
0.0617564
-0.0713467
0.00774323
0.105788
0.0723362
0.177043
0.217175
-0.0583738
-0.0107402
0.0352031
2.66551e-05
0.0247224
0.412318
0.402653
0.426109
0.416028
0.421713
0.0972369
-0.00233492
0.271715
0.311529
-0.534138
-0.573139
-0.759939
-0.782216
-0.89777
0.461775
0.534073
0.549914
-0.393615
-0.263175
-0.430197
-0.177553
-0.224227
0.420039
0.411655
0.412455
0.419763
0.422492
0.423821
0.559658
0.552678
0.585772
0.276114
0.350767
0.25629
0.208847
-0.460449
-0.326781
-0.439621
-0.0547237
-0.0192016
0.0605987
0.0955799
0.106608
0.0787926
-0.0164381
0.00203244
-0.00902713
0.0140614
0.0172409
0.368739
0.3532
0.36611
0.375951
0.430153
0.428688
0.433179
0.436143
0.183625
0.171319
0.129541
0.106611
-3.04949
-5.21008
-0.431603
-0.337356
-0.00224974
-0.0118728
-0.00445075
-0.0804688
-0.0145256
-0.0414445
0.0678243
0.0418825
0.0316069
0.0514926
0.552572
0.56442
0.70856
0.741611
0.627464
0.626758
0.435036
0.444953
0.44065
0.44261
0.0321981
0.016515
0.033148
0.426516
0.322118
0.374368
0.166179
0.0727235
0.246703
0.286001
0.55427
0.537966
0.560648
-0.108465
-0.0233303
0.316344
0.0718925
0.305376
0.138274
0.0908187
0.120412
0.0680083
0.381037
0.398691
0.394951
0.423319
0.429882
0.430112
0.432048
0.424407
0.428229
-0.160047
-0.456141
0.411219
0.413238
0.356426
0.40045
0.52979
0.592649
0.55547
0.544634
0.554859
-0.0800007
-0.1166
0.159835
0.145798
0.316216
0.33202
0.321992
0.102926
0.0618213
0.100679
0.0866465
0.062514
0.113313
-0.423469
-1.78937
-1.02202
-0.137667
-0.225624
-0.192163
0.0391388
0.102049
0.069657
0.710591
0.754305
0.393723
0.550261
0.503129
-0.131201
-0.0559072
0.0490614
-0.0719548
-0.0257504
0.0547233
0.0078805
0.382481
0.372068
0.379498
0.61859
0.68521
0.0355909
-0.0263184
-0.0672054
0.11875
0.115274
0.110796
0.735433
0.688824
0.730081
0.388871
0.379187
-0.0557962
-0.00438214
0.488311
0.513323
-0.0577004
-0.025794
-0.131349
-0.829077
0.03431
0.441321
0.40071
0.454202
-0.154091
0.182827
0.000506696
0.0192534
-0.0270567
0.417502
0.346883
0.315019
-0.0584499
0.00773747
-0.00227649
-0.438278
0.448208
0.432702
0.439514
0.450413
0.46417
-0.00765304
-0.0142985
0.0294055
-0.036841
0.0399762
0.0366368
0.422879
0.412437
-0.443331
0.433336
0.456881
0.456387
0.469263
0.470703
0.459527
-0.0154531
0.0310053
0.0350747
0.135805
0.244059
-0.0246402
-0.0663851
-0.0115697
-0.145176
-0.335444
-0.0636944
-0.0485641
-0.0629421
-0.0346807
0.52003
0.485635
0.117638
-0.0641512
0.106642
0.0699079
0.436451
0.453813
0.428211
0.439606
0.457058
0.409555
0.471775
0.441487
0.438669
0.480472
-0.109607
-0.04747
-0.109698
-0.234675
0.265521
0.349868
0.163598
0.236207
0.0891161
-0.0160546
0.0395858
-0.0252396
-0.00522145
-0.00209841
0.1001
0.0310805
0.131519
0.018348
0.105295
-0.040233
0.129514
-0.00886246
0.401058
0.42009
0.41728
0.457541
0.379401
0.395938
0.373092
0.372569
0.392093
0.323814
0.341654
0.340974
0.0125646
0.0115532
0.0423314
0.0231307
0.0426497
-0.0311396
-0.0298266
-0.0293444
-0.00687583
-0.0495901
-0.00884637
-0.00410368
-0.375195
-0.532539
0.652333
0.540576
-0.0270079
0.410418
0.452
0.426275
0.463871
0.474381
0.505787
0.471511
0.448567
0.41879
0.433931
0.416618
0.434819
-0.36477
-0.44067
-0.286248
-0.338277
0.1166
0.53523
0.291574
0.238815
0.231157
0.399
0.31205
0.0643576
-0.164012
-0.271713
-0.553039
-0.404109
-0.570153
-0.112407
-0.0626538
-0.102907
-0.0214748
0.0532261
-0.0122329
-0.0315073
-0.123946
0.425963
-0.187638
-0.168233
0.0558115
-0.025756
0.227364
0.520278
0.530022
0.463292
0.441736
0.504133
0.478669
0.477351
0.50758
0.514227
0.417311
0.183315
0.169431
0.105493
0.527102
0.440391
0.474942
0.363815
0.456556
0.460627
0.440406
0.431582
0.46627
0.429951
0.425585
0.404357
0.397329
0.435416
0.438989
0.409545
-0.0181667
-0.0287997
-0.11938
-0.336851
-0.19647
-0.295483
-0.163829
0.00522334
-0.0706217
0.0117367
0.21917
-0.0286854
-0.280702
-0.121305
-0.256347
0.0515824
-0.049514
0.0987115
0.122182
0.117672
0.116787
0.184472
0.158873
0.029687
0.03568
0.0610299
-0.0116501
0.122344
0.0811958
0.142288
0.0575097
0.107523
0.0611013
0.0247237
-0.0105476
0.0894294
0.0409338
-0.0101873
0.0273275
0.016251
-0.069703
-0.0678981
0.172374
0.0441439
0.441743
0.426007
0.427637
0.445175
0.477894
0.47119
0.417591
0.419447
0.444395
0.416764
0.386693
0.368309
0.36124
0.391585
0.40293
0.399255
0.439793
0.430707
0.402613
0.42317
0.369411
0.389089
0.34436
0.361655
0.38781
-0.0968638
0.0181182
-0.0398691
-0.0458701
0.0102337
0.0474487
0.10603
0.0306459
0.114276
0.0866107
0.0585329
0.0258954
0.0537224
-0.27722
-0.187703
-0.386094
-0.45678
-0.541168
0.624441
0.689573
0.566685
0.402458
0.454143
0.565685
0.664306
0.390238
0.416859
0.499717
0.353983
0.597347
0.436692
0.422869
0.443646
0.462579
0.439418
-0.217264
-0.0793386
-0.0375581
0.0633299
0.189661
0.248939
0.132124
0.0377482
0.143721
0.162893
0.516947
0.536587
0.502566
0.534291
0.529139
0.3334
0.424456
0.454459
0.448309
0.451972
0.47372
0.476643
0.473134
0.406036
0.401418
0.40695
0.361979
0.386534
0.360312
0.358689
0.414964
0.393731
0.395878
0.406077
0.453239
0.435043
0.461291
0.505348
0.485595
0.388131
0.367792
0.39208
0.403295
0.381163
0.379766
0.375849
0.136179
0.164398
0.0777657
-0.134759
-0.00158549
-0.0637182
-0.114056
-0.0966445
0.0555007
-0.441071
-0.377318
-0.894519
0.316715
0.38156
0.174169
-0.0872194
0.420966
0.453888
0.438398
0.344568
0.356464
0.511618
0.533503
0.54194
0.466776
0.463021
0.480988
0.468176
0.418924
0.297196
0.23694
0.270769
0.110613
0.169245
0.326557
0.268271
0.222376
0.252429
0.344307
0.251316
0.279109
0.351838
0.314599
0.303222
0.431867
0.476761
0.492918
0.437259
0.347669
0.404838
0.392284
0.439389
0.480407
0.484562
0.440556
0.422753
0.431875
0.423297
0.413229
0.430117
0.400771
0.445559
0.451083
0.458868
0.452324
-0.0223542
-0.00113512
0.010516
-0.0314631
-0.0506972
-0.0966736
-0.0879141
-0.11063
0.0533055
0.0248019
-0.0651936
-0.0272543
0.0712195
0.0241609
0.07757
0.0937519
0.0396242
-0.0175333
0.158472
0.320531
0.296594
0.250147
0.151896
0.172231
0.271871
0.0226243
0.11534
0.069218
0.0347927
0.0289272
0.0136845
0.104134
0.0444889
0.0839077
0.0363195
-0.11296
0.0435079
0.0957485
-0.0507429
0.00767485
0.0409358
0.405833
0.40782
0.391534
0.372231
0.380707
0.379389
0.416334
0.439721
0.442704
0.441492
0.447195
0.430738
0.437222
0.00774696
0.122561
0.149869
0.0916316
0.0417863
-0.00675406
-0.020767
-0.0217511
-0.15646
-0.109532
-0.240594
-0.312018
-0.268898
0.296373
0.303803
0.323266
0.543216
0.394771
0.312793
0.397275
0.512192
0.177574
0.298553
0.166873
0.60872
0.539419
0.639989
0.381911
0.0319568
0.121929
0.263033
0.00526948
0.00348194
0.118116
0.113097
0.117469
0.116395
0.199812
0.184245
0.1737
0.0859568
0.115008
0.228768
0.210407
0.299808
0.361208
0.0625099
0.0916018
0.0128296
0.492064
0.517396
0.53951
0.51272
0.532452
0.472171
0.470545
0.501879
0.52672
0.51554
-0.740561
-0.474629
-1.32518
-0.650596
-0.35173
0.410561
0.15611
0.752508
0.596144
0.459137
0.484955
0.489367
0.451604
0.506544
0.506901
0.261616
0.35448
0.299048
0.335671
0.249107
0.175884
0.473406
0.463137
0.487684
0.508572
0.465527
0.507644
0.364604
0.404687
0.387568
0.420972
0.442849
0.461924
0.0654958
0.00588523
0.0414127
0.0326328
0.023268
0.00106902
-0.0483962
-0.0168542
0.164159
0.103409
0.047429
0.102902
-0.0466838
-0.0769165
-0.199626
-0.139406
-0.164911
-0.301761
-0.281499
-0.262823
-0.160227
-0.0740555
0.28812
0.47872
0.359234
0.517549
0.328535
0.492617
0.336782
0.365269
0.384604
0.275784
0.307966
-0.0332337
-0.32054
-0.234104
0.813611
0.908343
0.565265
0.302594
0.0609947
0.375904
0.441551
0.374726
0.393843
0.474149
0.43684
-0.128801
-0.0361852
-0.0878464
-0.0137974
0.128728
0.054009
0.0653555
0.0545244
0.0610486
)
;

boundaryField
{
    wall-4
    {
        type            calculated;
        value           nonuniform List<scalar> 
100
(
0.548212
0.267553
0.105617
0.566855
0.166312
-0.788764
0.507645
-0.123158
0.0284087
0.444906
0.026055
0.00761003
-1.2329
0.567022
-0.729177
0.405765
0.0229937
-0.0594831
0.402255
0.490554
-0.066699
0.0957029
-0.0330506
0.161914
0.41353
-0.70621
-0.866093
0.530434
-0.289725
0.46099
0.41551
-0.237168
-0.0823707
0.00586113
0.0431636
0.364858
0.431007
0.455247
0.147194
0.106883
0.0457666
-0.0303913
-2.25727
-0.626406
0.557428
0.562873
-0.842784
0.438532
0.391131
0.0166226
0.0302101
0.221305
0.414555
0.468787
0.199001
0.528045
-0.105844
0.00774323
0.0723362
0.217175
0.402653
0.426109
0.421713
-0.573139
-0.89777
0.549914
-0.430197
-0.224227
0.412455
0.423821
-0.439621
-0.0192016
-0.00902713
0.0172409
0.3532
0.375951
0.430153
0.436143
0.106611
-0.337356
0.56442
0.435036
0.44261
0.033148
0.374368
0.0727235
0.286001
0.560648
-0.0233303
0.138274
0.394951
0.430112
0.428229
0.554859
-0.1166
0.321992
0.0866465
-0.192163
-0.0257504
-0.0672054
)
;
    }
    velocity-inlet-5
    {
        type            calculated;
        value           nonuniform List<scalar> 8(0.548212 0.566855 0.570858 0.571872 0.573517 0.580667 0.557323 0.585772);
    }
    velocity-inlet-6
    {
        type            calculated;
        value           nonuniform List<scalar> 4(0.267553 0.166312 0.171969 0.222116);
    }
    pressure-outlet-7
    {
        type            calculated;
        value           uniform 0;
    }
    wall-8
    {
        type            calculated;
        value           nonuniform List<scalar> 
34
(
-0.00310765
0.0204462
0.00661008
0.196058
0.271406
0.0719224
0.0302625
0.70821
0.0247224
-0.00233492
0.311529
0.461775
0.350767
0.208847
0.0955799
0.0787926
-5.21008
0.0678243
0.0514926
0.741611
0.626758
-0.456141
0.411219
0.40045
0.592649
0.145798
-1.02202
0.069657
0.754305
0.503129
0.379498
0.68521
0.110796
0.730081
)
;
    }
    frontAndBackPlanes
    {
        type            empty;
    }
}

