/*--------------------------------*- C++ -*----------------------------------*\
  =========                 |
  \\      /  F ield         | OpenFOAM: The Open Source CFD Toolbox
   \\    /   O peration     | Website:  https://openfoam.org
    \\  /    A nd           | Version:  6
     \\/     M anipulation  |
\*---------------------------------------------------------------------------*/
FoamFile
{
    version     2.0;
    format      ascii;
    class       volScalarField;
    location    "0";
    object      P_rec;
}
// * * * * * * * * * * * * * * * * * * * * * * * * * * * * * * * * * * * * * //

dimensions      [0 2 -2 0 0 0 0];

internalField   nonuniform List<scalar> 
918
(
0.555041
0.361205
0.0936497
0.56864
-0.00304659
0.271259
-0.722151
0.529633
0.571463
-0.0998722
0.0374325
0.452237
0.142347
0.0990382
-1.2112
0.0256678
0.575346
-0.728874
0.415916
0.0279659
0.0529632
0.57641
0.514807
0.419019
0.4963
0.0307692
0.189363
-0.0276321
-0.0463493
-0.0363571
-0.00444255
0.0393968
0.00719968
0.267771
0.238847
0.267884
0.426198
0.0725535
-0.580295
-0.642773
-0.617701
-0.803052
0.535944
0.548802
-0.277813
0.510821
0.491113
0.430013
0.553055
0.572977
0.518225
0.557091
0.581165
0.284032
-0.131143
-0.190774
-0.0522078
-0.0516457
0.0855317
0.0325055
0.0222367
0.0594116
0.048135
0.377452
0.443672
0.439892
0.461075
0.460632
0.320802
0.268499
0.30679
0.148195
0.251286
0.10943
0.207693
0.100828
0.136992
0.07491
0.0596522
-1.50447
-2.28066
-0.726204
-0.582264
0.00813093
0.0263419
0.0302605
0.564464
0.566513
0.5628
0.573816
0.684285
-0.64388
-0.841974
0.451516
0.44982
0.55894
0.518524
0.463104
0.406679
0.0257555
0.0202109
0.0150095
0.041362
0.0333412
0.193928
0.290458
0.396259
0.426234
0.462338
0.48392
0.471288
0.209995
0.528352
0.536058
-0.0249533
0.145875
0.0228511
0.0959626
0.196843
0.162504
0.269647
0.311497
-0.0516135
-0.0101133
0.0400319
0.00108262
0.0283007
0.423768
0.414349
0.438719
0.430589
0.433811
0.0198563
-0.0429004
0.103276
0.12304
-0.473319
-0.525177
-0.714857
-0.701634
-0.861441
0.658144
0.547374
0.561866
-0.357833
-0.239792
-0.403912
-0.166058
-0.21762
0.432197
0.425576
0.426308
0.430327
0.436034
0.437258
0.561239
0.555089
0.584123
0.286453
0.35554
0.273071
0.22691
-0.424271
-0.269198
-0.408923
-0.0329271
-0.00183697
0.0772755
0.110701
0.116525
0.0892415
-0.00327652
0.0176759
0.00516857
0.0210295
0.0247838
0.376748
0.362969
0.379092
0.388668
0.43938
0.438759
0.440503
0.442801
0.27386
0.263234
0.224871
0.201943
-3.09374
-5.27705
-0.36977
-0.273428
-0.000521326
-0.00949517
-0.0029376
-0.0714667
-0.0114395
-0.036684
0.0738207
0.0508958
0.0347881
0.0586229
0.558739
0.570718
0.688546
0.733981
0.60863
0.612022
0.447688
0.455751
0.451478
0.450037
0.0371716
0.0196941
0.0333605
0.461907
0.375607
0.419612
0.173605
0.0815839
0.258287
0.295238
0.558357
0.543661
0.560679
-0.0235873
0.0605826
0.401345
0.180686
0.394519
0.245028
0.198219
0.21917
0.181162
0.393422
0.408808
0.405521
0.436518
0.440553
0.440165
0.440834
0.434973
0.43939
-0.178316
-0.449241
0.388045
0.308377
0.155675
0.242698
0.697055
0.736368
0.566587
0.556988
0.568389
-0.0699114
-0.111875
0.180564
0.162816
0.325458
0.344153
0.331916
0.195769
0.153184
0.193801
0.178284
0.152476
0.202482
-0.393097
-1.78261
-0.984408
-0.0613495
-0.158191
-0.119197
0.0515505
0.106973
0.0788196
0.708784
0.760706
0.389212
0.536637
0.494803
-0.032871
0.0368998
0.139387
0.0216457
0.0654259
0.143671
0.0983534
0.559611
0.437081
0.523905
0.729877
0.785014
0.0483599
-0.0205392
-0.058109
0.132947
0.130901
0.122958
0.751315
0.756007
0.77385
0.402468
0.396875
-0.0476342
-0.00169579
0.49679
0.517079
-0.0498145
-0.0241221
-0.0676302
-0.832126
0.0408767
0.454302
0.415587
0.466519
-0.0983133
0.197344
0.0135986
0.0351428
-0.00952003
0.42596
0.360624
0.328952
-0.0545834
0.0148615
0.00483253
-0.353133
0.456815
0.441263
0.452662
0.462333
0.475806
-0.00760378
-0.0110787
0.0285045
-0.0299483
0.0403358
0.0371936
0.433914
0.423654
-0.345991
0.445735
0.467627
0.46825
0.479194
0.480948
0.472066
-0.0102796
0.0306231
0.0370593
0.157254
0.261128
0.0535318
0.0326108
0.0562048
-0.0794474
-0.264623
0.00870793
0.0304888
0.00628688
0.0516771
0.531293
0.509966
0.135482
-0.0363012
0.111841
0.0801942
0.446817
0.463204
0.439012
0.449459
0.465454
0.425677
0.479108
0.453094
0.451292
0.488251
-0.0576519
-0.0165623
-0.0528449
-0.170848
0.28299
0.349013
0.187322
0.252045
0.109825
0.000416723
0.0462316
-0.00882228
0.0124036
0.0173588
0.106976
0.040875
0.137762
0.0285385
0.10909
-0.0188472
0.131274
0.00667684
0.411461
0.428272
0.425596
0.461852
0.390584
0.406853
0.382381
0.383804
0.397347
0.334388
0.34908
0.348673
0.013492
0.00957606
0.0389741
0.0290315
0.0467546
-0.0233079
-0.0268335
-0.0235577
-0.00346333
-0.0443166
-0.000529977
0.00263868
-0.270313
-0.440129
0.632814
0.525811
0.192509
0.426875
0.462826
0.438926
0.469264
0.482749
0.515166
0.483844
0.459568
0.43044
0.443861
0.427636
0.443451
-0.262327
-0.349504
-0.205545
-0.269418
0.013551
0.538457
0.300671
0.2535
0.2376
0.404349
0.370814
0.124543
-0.0474228
-0.14455
-0.516882
-0.331183
-0.519985
-0.0411863
0.004343
-0.0188007
0.0649909
0.135999
0.0686438
0.0433901
-0.119252
0.404717
-0.15362
-0.125222
0.0658072
-0.00957634
0.288509
0.529869
0.541185
0.489069
0.47258
0.516552
0.489329
0.48897
0.525112
0.529869
0.412132
0.190887
0.180017
0.111215
0.540243
0.44177
0.478734
0.372811
0.465357
0.469161
0.451599
0.443555
0.474676
0.444137
0.436424
0.417782
0.412869
0.444757
0.449821
0.425829
0.00486822
-0.011137
-0.0593869
-0.244955
-0.138052
-0.232558
-0.0968985
0.090454
-0.00198732
0.159596
0.318357
0.0684417
-0.150535
-0.0213612
-0.062649
0.162279
0.104285
0.122047
0.143585
0.144169
0.135561
0.20316
0.180659
0.0452433
0.0528839
0.0730036
0.00369204
0.132867
0.0973297
0.1525
0.0660193
0.111892
0.0676906
0.0328281
0.0186269
0.105122
0.0623269
0.0192461
0.0313908
0.0218997
-0.0548538
-0.0509972
0.167007
0.0499405
0.450141
0.43468
0.438313
0.453137
0.481292
0.47823
0.426324
0.428616
0.449948
0.424727
0.397487
0.383736
0.374788
0.40378
0.412089
0.410027
0.448873
0.440505
0.413958
0.431347
0.384477
0.403666
0.355021
0.365697
0.391668
-0.0840992
0.0182243
-0.0323687
-0.0404228
0.0127066
0.0467867
0.10652
0.0381693
0.113947
0.0886735
0.0652171
0.0280823
0.0538002
-0.111374
0.0153238
-0.273082
-0.340737
-0.439036
0.628955
0.693154
0.565813
0.459011
0.511514
0.577466
0.641025
0.402878
0.43509
0.496112
0.555746
0.688554
0.444339
0.434124
0.453828
0.468841
0.449566
-0.129953
-0.026695
-0.0118204
0.0690342
0.0648461
0.0756714
0.176454
0.305579
0.339208
0.279116
0.518774
0.53952
0.504873
0.537945
0.535807
0.340244
0.427341
0.465185
0.449323
0.455642
0.476296
0.478922
0.477083
0.413188
0.407606
0.412046
0.366732
0.389658
0.364093
0.360745
0.423003
0.402747
0.404935
0.41266
0.459525
0.442564
0.465544
0.505871
0.489359
0.396749
0.377781
0.398359
0.40796
0.388805
0.386377
0.383404
-0.136825
-0.101304
-0.0544063
-0.244119
-0.106319
-0.105758
-0.167159
-0.214804
-0.0836997
-0.511263
-0.394517
-0.90227
0.258478
0.434314
0.230068
-0.0100595
0.454979
0.484834
0.469789
0.389339
0.400598
0.524441
0.542904
0.551841
0.473415
0.472735
0.507587
0.4889
0.401173
0.288543
0.219323
0.267191
0.113951
0.169871
0.334185
0.277348
0.230103
0.258635
0.351314
0.25515
0.287876
0.358935
0.330328
0.314938
0.439303
0.487618
0.498637
0.452753
0.360449
0.411431
0.406453
0.454418
0.490345
0.496896
0.448951
0.433962
0.442915
0.433887
0.424806
0.440724
0.414894
0.45608
0.460046
0.467669
0.462531
-0.000588394
0.0196938
0.0265063
-0.0128957
0.00573655
-0.0371451
-0.0310773
-0.0521175
0.0725129
0.0526805
-0.0188962
0.000195356
0.088961
0.0472914
0.118901
0.140583
0.101004
0.0447662
0.238387
0.359488
0.355553
0.321702
0.219795
0.229019
0.309509
0.0469244
0.124433
0.0824176
0.0537004
0.0522807
0.0258846
0.106618
0.0532041
0.0900908
0.0501314
-0.0929387
0.0477091
0.0952395
-0.0389685
0.0167212
0.0471589
0.41728
0.415825
0.396594
0.376987
0.387238
0.389345
0.425267
0.44607
0.45028
0.449371
0.453317
0.439778
0.445616
0.0142361
0.114459
0.140101
0.0926705
0.0422214
-0.000265313
-0.0106308
0.245565
0.098979
0.173622
0.0068273
-0.168124
-0.0842275
0.406072
0.513023
0.439852
0.654815
0.551051
0.443992
0.527192
0.660686
0.407846
0.522533
0.43667
0.649952
0.628836
0.695241
0.551792
-0.0470251
-0.0113599
0.169448
-0.191578
-0.194851
0.0962501
0.0952713
0.106461
0.0705945
0.139247
0.0952239
0.0677507
0.0196301
0.141157
0.171529
0.245546
0.127979
0.163904
0.0835386
-0.049016
-0.000892526
0.499802
0.524734
0.547529
0.518926
0.541965
0.477466
0.479482
0.506555
0.529776
0.515657
-0.757491
-0.539333
-1.33247
-0.670821
-0.351343
0.354394
0.0438566
0.761746
0.59552
0.486227
0.505994
0.508706
0.464981
0.510486
0.518899
0.268673
0.363561
0.311703
0.346334
0.266458
0.190103
0.486273
0.471502
0.501776
0.519951
0.478305
0.518617
0.379594
0.415523
0.399771
0.431361
0.449077
0.464787
0.100999
0.0410883
0.0882368
0.0790218
0.0656217
0.0416372
-0.0357952
-0.00579973
0.1583
0.101141
0.0523496
0.102576
0.142066
0.179092
0.0485591
0.138408
-0.0626908
-0.148753
-0.157576
-0.0649754
0.0149336
0.0304126
0.460779
0.573912
0.515223
0.590587
0.469268
0.571032
0.374551
0.245539
0.305222
0.300144
0.376796
-0.0634184
-0.366713
-0.253919
0.845314
0.913768
0.560618
0.315668
0.0898055
0.423745
0.433865
0.370283
0.392523
0.474405
0.444197
-0.220663
-0.152235
-0.199636
-0.177087
-0.142973
-0.106517
-0.1074
-0.154203
-0.184648
)
;

boundaryField
{
    wall-4
    {
        type            calculated;
        value           nonuniform List<scalar> 
100
(
0.555041
0.361205
0.0936497
0.56864
0.271259
-0.722151
0.529633
-0.0998722
0.0374325
0.452237
0.142347
0.0990382
-1.2112
0.575346
-0.728874
0.415916
0.0279659
0.0529632
0.419019
0.4963
0.0307692
0.189363
-0.0276321
0.267771
0.426198
-0.642773
-0.803052
0.548802
-0.277813
0.491113
0.430013
-0.190774
-0.0516457
0.0222367
0.048135
0.377452
0.439892
0.460632
0.251286
0.207693
0.136992
0.0596522
-2.28066
-0.582264
0.566513
0.573816
-0.841974
0.44982
0.406679
0.0202109
0.0333412
0.290458
0.426234
0.471288
0.209995
0.536058
-0.0249533
0.0959626
0.162504
0.311497
0.414349
0.438719
0.433811
-0.525177
-0.861441
0.561866
-0.403912
-0.21762
0.426308
0.437258
-0.408923
-0.00183697
0.00516857
0.0247838
0.362969
0.388668
0.43938
0.442801
0.201943
-0.273428
0.570718
0.447688
0.450037
0.0333605
0.419612
0.0815839
0.295238
0.560679
0.0605826
0.245028
0.405521
0.440165
0.43939
0.568389
-0.111875
0.331916
0.178284
-0.119197
0.0654259
-0.058109
)
;
    }
    velocity-inlet-5
    {
        type            calculated;
        value           nonuniform List<scalar> 8(0.555041 0.56864 0.571463 0.57641 0.572977 0.581165 0.55894 0.584123);
    }
    velocity-inlet-6
    {
        type            calculated;
        value           nonuniform List<scalar> 4(0.361205 0.271259 0.267884 0.30679);
    }
    pressure-outlet-7
    {
        type            calculated;
        value           uniform 0;
    }
    wall-8
    {
        type            calculated;
        value           nonuniform List<scalar> 
34
(
-0.00304659
0.0256678
0.00719968
0.0725535
0.284032
0.0855317
0.0302605
0.684285
0.0283007
-0.0429004
0.12304
0.658144
0.35554
0.22691
0.110701
0.0892415
-5.27705
0.0738207
0.0586229
0.733981
0.612022
-0.449241
0.388045
0.242698
0.736368
0.162816
-0.984408
0.0788196
0.760706
0.494803
0.523905
0.785014
0.122958
0.77385
)
;
    }
    frontAndBackPlanes
    {
        type            empty;
    }
}

