/*--------------------------------*- C++ -*----------------------------------*\
  =========                 |
  \\      /  F ield         | OpenFOAM: The Open Source CFD Toolbox
   \\    /   O peration     | Website:  https://openfoam.org
    \\  /    A nd           | Version:  6
     \\/     M anipulation  |
\*---------------------------------------------------------------------------*/
FoamFile
{
    version     2.0;
    format      ascii;
    class       volVectorField;
    location    "0";
    object      U_rec;
}
// * * * * * * * * * * * * * * * * * * * * * * * * * * * * * * * * * * * * * //

dimensions      [0 1 -1 0 0 0 0];

internalField   nonuniform List<vector> 
918
(
(0.990713 -0.00124763 0)
(-0.0166768 2.99704 0)
(-0.00243452 1.72735 0)
(0.983582 0.00371673 0)
(-0.0146005 1.68501 5.38088e-17)
(0.0101468 2.99073 -1.31161e-17)
(0.980376 1.44452 6.22677e-18)
(0.490264 0.27219 3.16809e-19)
(1.00174 0.000634226 0)
(0.0374256 1.69231 0)
(-0.00383375 1.67507 0)
(0.915959 0.00255216 0)
(-0.00474876 2.98591 0)
(0.00362281 2.88183 0)
(0.00500037 2.93541 2.06203e-17)
(-0.00113042 1.66827 3.26857e-17)
(0.671541 0.152183 -6.39686e-18)
(0.205905 1.94069 -3.26131e-17)
(0.988635 0.0133183 0)
(0.00274268 1.67921 0)
(0.0316509 0.0548609 9.10986e-18)
(0.994906 0.00958214 0)
(1.00605 0.00899809 0)
(1.00834 0.00157984 0)
(0.848898 -0.0156287 0)
(0.0102057 2.90877 0)
(-0.00598131 2.9382 -9.20186e-17)
(-0.00223842 1.73932 0)
(0.00590399 1.76503 0)
(-0.00922276 1.7491 0)
(-0.0110049 1.78965 0)
(-0.00691912 1.70473 5.3393e-17)
(-0.0089018 1.66842 0)
(0.0184219 3.00946 1.07085e-21)
(0.00825516 3.02417 -6.33576e-17)
(0.0198582 3.01515 0)
(0.952427 0.00294288 0)
(0.43329 0.903032 -1.30407e-17)
(0.952875 1.48572 -1.50946e-17)
(1.08463 1.25858 2.76971e-17)
(0.814886 1.66581 8.42337e-18)
(0.838043 1.62697 1.72613e-17)
(0.52228 0.331052 -2.88897e-20)
(0.55527 0.248145 0)
(1.26 0.657496 0)
(0.447137 0.335111 -3.17553e-19)
(0.43906 0.249377 1.2359e-18)
(0.951867 -0.00146005 0)
(0.996584 0.00223059 0)
(1.00152 0.00245991 0)
(0.991656 0.00458893 0)
(0.984267 0.00706513 0)
(1.00241 0.0109739 0)
(0.0157233 1.57296 7.67753e-18)
(0.0403215 1.78261 0)
(0.0703537 1.7315 0)
(0.0046471 1.7532 0)
(-0.0028937 1.66659 0)
(-0.0074108 1.66411 0)
(-0.00708556 1.71967 0)
(-0.00975599 1.67235 0)
(-0.00833577 1.72719 0)
(-0.00110087 1.67691 0)
(0.982826 0.0148844 0)
(0.950939 0.0108537 0)
(0.932491 -0.00126109 0)
(0.939193 0.0184056 0)
(0.897699 0.019404 0)
(-0.0128816 3.04855 1.84006e-17)
(-0.00949721 2.98231 0)
(-0.0283358 3.03537 0)
(0.0200003 3.03768 -1.14753e-22)
(-0.00298024 3.02013 4.41209e-17)
(0.0168513 3.01108 0)
(0.00469232 2.95396 0)
(0.00358106 2.96136 -2.61215e-23)
(0.00544493 2.88968 0)
(0.0145088 2.96719 0)
(0.00817356 2.86583 0)
(0.29731 3.2482 0)
(-0.0675055 3.32579 0)
(0.11138 2.99956 3.06553e-18)
(-0.00108931 2.82147 0)
(-0.00161538 1.75329 0)
(-0.00260188 1.71469 3.08195e-17)
(-0.00238598 1.67831 3.28673e-17)
(0.70577 0.177264 -2.04604e-18)
(0.701978 0.108317 4.45493e-18)
(0.684877 0.206094 2.62683e-17)
(0.661468 0.171812 -4.08263e-18)
(0.200572 1.39136 0)
(0.305567 2.01287 -4.41408e-17)
(0.449348 1.94618 -3.17084e-17)
(0.997297 0.00845232 0)
(0.970301 0.0169844 0)
(1.00068 -0.00551866 0)
(1.00202 0.00160579 0)
(1.00481 0.0166594 1.618e-16)
(1.00207 0.0102324 9.12789e-17)
(-0.00223221 1.71885 0)
(0.00214116 1.68057 0)
(0.000913064 1.75317 0)
(-0.012739 1.72656 0)
(-0.0016616 1.68965 0)
(0.0434604 0.265281 -3.69545e-18)
(0.209731 0.198132 0)
(1.00965 -0.0102258 0)
(0.988952 0.0029423 0)
(0.909508 0.0280424 0)
(0.887349 0.0248662 0)
(0.877933 0.00146727 0)
(1.10727 0.00998858 0)
(0.850592 0.0296191 0)
(0.795728 0.0274108 8.71498e-18)
(-0.0230429 2.87891 1.53028e-17)
(0.00615988 2.97398 0)
(-0.0467046 3.01334 0)
(-0.000497432 2.85578 0)
(-0.0060991 2.98398 -3.72388e-17)
(-0.000292649 2.92785 0)
(-0.0118875 2.9869 3.15557e-18)
(-0.0147197 2.94786 1.70243e-17)
(0.00687327 1.76494 0)
(0.00407551 1.75842 0)
(0.00683958 1.71337 9.07727e-21)
(-0.00163703 1.71217 0)
(0.0060464 1.66804 0)
(0.97982 0.00764305 0)
(0.959342 0.0078296 0)
(0.94375 -0.00908953 0)
(0.977909 -0.00078424 0)
(0.948974 -0.00807575 0)
(0.486308 1.10532 -1.52441e-18)
(0.605479 1.20413 0)
(0.411576 0.83776 -1.58257e-18)
(0.411675 0.606236 0)
(1.06232 1.28817 1.49574e-17)
(1.16663 1.05108 6.6333e-18)
(0.47649 1.96679 0)
(0.653972 1.83686 0)
(0.66626 1.81046 0)
(0.465953 0.852873 -3.86835e-18)
(0.582848 0.298767 0)
(0.595359 0.234373 -5.18209e-18)
(1.14033 1.08995 0)
(1.20302 0.879968 0)
(1.22189 0.848113 -6.9715e-18)
(1.26975 0.691854 0)
(1.29713 0.50036 -2.71097e-17)
(0.979347 0.0031798 0)
(0.970698 -0.000959918 0)
(0.94939 0.00617188 0)
(0.998787 -0.00299763 0)
(0.979803 -0.00446906 0)
(0.969759 0.00155515 0)
(0.991258 -0.00274528 0)
(0.988393 -0.000883762 0)
(1.00243 -0.00157715 0)
(0.0179783 1.58568 2.59846e-17)
(0.023451 1.53736 0)
(0.0236361 1.62665 -6.82804e-18)
(0.0170739 1.61877 6.9531e-18)
(0.139231 1.94329 -4.21456e-17)
(0.0534179 1.83453 0)
(0.103906 1.83916 0)
(-0.00655786 1.74297 0)
(0.0016211 1.66292 0)
(-0.00660151 1.70181 4.35959e-20)
(0.00128799 1.66535 0)
(-0.00113582 1.70508 -2.94649e-17)
(0.006131 1.67019 -4.09785e-18)
(0.00124756 1.73638 0)
(-0.0067058 1.72627 0)
(0.00142546 1.66872 0)
(-0.000445106 1.72822 0)
(0.00461714 1.68135 0)
(1.02029 0.0138953 0)
(0.996523 -0.00450247 0)
(0.998245 0.0123464 0)
(0.973929 0.00697846 0)
(0.93846 0.0036776 0)
(0.964637 0.00976135 0)
(0.962072 0.00255581 0)
(0.934947 -0.00139641 0)
(0.00982827 3.04233 9.29853e-20)
(0.016355 3.0352 0)
(0.00954589 2.99161 0)
(0.00596456 2.93292 0)
(1.00567 3.77389 0)
(1.3553 2.84389 -2.00886e-20)
(0.0160463 2.89787 0)
(-0.0172041 2.81177 0)
(0.0036627 1.74902 0)
(0.000223809 1.74376 0)
(-0.0015305 1.74606 0)
(-0.00926746 1.77918 -7.16252e-17)
(-0.0066775 1.76283 0)
(-0.00287616 1.77126 0)
(0.00825284 1.67064 -6.35807e-17)
(0.00622889 1.71123 -3.32165e-17)
(-0.00778992 1.71176 3.05035e-17)
(-0.00148555 1.6709 0)
(0.737665 0.132356 -2.12471e-17)
(0.721142 0.0662288 -7.09292e-18)
(0.19144 1.3923 0)
(0.262211 1.33228 1.52467e-18)
(0.134244 1.44366 -2.2426e-17)
(0.120093 1.43589 -3.24533e-17)
(0.934938 0.00505447 0)
(0.977575 0.00670958 0)
(0.985514 0.0211158 0)
(0.951459 0.016497 0)
(0.00462305 1.72863 0)
(0.00669524 1.72313 0)
(0.00551773 1.68458 0)
(0.364201 0.337989 -5.27532e-18)
(0.248601 0.319722 5.59349e-18)
(0.348953 0.222215 0)
(1.20198 0.0997181 -1.04207e-18)
(1.20227 0.0500443 0)
(1.10897 0.0544805 0)
(1.04573 0.00594126 0)
(0.759142 0.100047 0)
(0.787567 0.0841824 4.98377e-17)
(0.749028 0.0569951 -2.72407e-17)
(-0.0123698 2.96094 -3.72059e-17)
(-0.00763311 2.90645 -5.40304e-17)
(0.00793509 3.029 1.85872e-19)
(0.0360675 3.01466 -3.84587e-17)
(-0.017243 2.99821 -3.55913e-19)
(-0.0167214 2.97679 1.39741e-21)
(-0.014606 3.03149 2.08881e-19)
(-0.0042291 2.99203 -1.01123e-17)
(0.0543807 3.02048 -2.36246e-17)
(0.999636 0.00516541 0)
(0.992805 0.0111449 0)
(0.970465 0.00508918 0)
(0.969583 0.00673928 0)
(0.96921 -0.00634574 0)
(0.936999 -0.00465287 0)
(0.969264 0.00191159 0)
(0.968313 -0.00327885 0)
(0.939972 -0.00662377 0)
(0.704304 1.40243 6.72696e-18)
(0.819484 1.4994 0)
(0.375814 0.495686 7.88336e-19)
(0.498094 0.76877 -7.01042e-18)
(0.468032 0.751245 -9.3119e-18)
(0.368886 0.473578 -2.19573e-17)
(0.450942 1.08567 -7.15303e-18)
(0.467729 1.02572 1.70026e-17)
(0.662491 0.24715 -1.60787e-17)
(0.61709 0.280794 -4.62717e-18)
(0.626812 0.215642 1.63915e-18)
(1.29877 0.512998 -1.99346e-17)
(1.30365 0.314116 7.74713e-18)
(0.0106629 1.66672 -3.39487e-17)
(0.00184967 1.64998 0)
(1.05704 0.028944 0)
(1.02647 0.0138369 0)
(1.01473 0.00326953 0)
(0.0138577 3.04986 0)
(0.0126525 2.9678 -4.14594e-17)
(0.0108849 2.98066 0)
(0.00550332 2.91119 -1.3451e-17)
(0.0104388 3.06255 1.23928e-17)
(0.0102945 3.05709 0)
(0.798843 1.75252 -4.38615e-18)
(1.21323 2.38061 -5.25046e-18)
(0.890679 1.85916 -1.86804e-17)
(-0.0258479 2.92655 3.67815e-17)
(-0.0211297 2.89294 0)
(-0.0260242 2.8442 0)
(-0.0106179 1.70161 6.31306e-17)
(0.00585925 1.69852 3.08925e-18)
(-0.0101417 1.65774 6.30405e-17)
(0.247953 1.34578 -1.81153e-17)
(0.323377 1.29971 -9.41134e-18)
(0.0312906 1.55171 -3.28493e-17)
(0.075724 1.50016 -2.35435e-17)
(0.0553729 1.49489 -5.69537e-17)
(-0.0265723 3.07556 1.31075e-16)
(-0.0122181 3.07211 8.22988e-17)
(0.00458799 2.98617 1.76557e-17)
(-0.00452978 2.98176 -1.69554e-17)
(0.00241816 2.93194 3.74148e-17)
(0.0160452 3.06942 -6.93927e-17)
(-0.00610241 3.06045 -1.3719e-16)
(0.515915 0.990334 0)
(0.539883 0.865346 3.50028e-18)
(0.440356 0.653692 -1.94567e-17)
(0.419751 1.18478 2.52096e-17)
(0.430343 1.14771 2.96459e-17)
(1.28238 0.206994 -4.30097e-18)
(1.31475 0.357152 0)
(1.28243 0.182942 3.93259e-18)
(-0.00575278 1.70143 4.50885e-20)
(-0.00156942 1.6895 0)
(-0.00397659 1.66335 0)
(0.300506 1.30603 2.09721e-18)
(0.357763 1.24573 -2.80157e-17)
(0.384517 1.24872 -3.30856e-17)
(1.00303 -0.0268018 0)
(1.00005 -0.00902357 6.20482e-18)
(0.00220131 1.7677 0)
(-0.010219 1.78729 0)
(1.00513 -0.00117482 4.43575e-19)
(1.0074 0.000554465 3.86806e-18)
(-0.00505353 1.77596 -7.09663e-17)
(-0.00332352 1.78142 0)
(-0.012293 2.98598 1.71718e-17)
(0.33668 3.05651 0)
(1.1238 0.704343 -2.25125e-17)
(1.00094 0.00598727 7.95496e-17)
(1.0016 0.00157955 0)
(1.00855 -0.00480339 3.33936e-19)
(0.0278076 1.86702 0)
(0.0377692 1.66017 0)
(0.00335747 1.7946 0)
(0.0233312 1.7419 -7.27922e-17)
(0.00100311 1.74842 6.83605e-17)
(0.986097 0.0207747 7.79706e-17)
(1.0319 0.0122965 0)
(1.05523 0.0334912 0)
(0.00985375 1.75521 0)
(0.0122155 1.75625 0)
(-0.00729389 1.77388 0)
(0.167596 1.92817 -8.17857e-17)
(1.00639 -0.0202309 0)
(1.00386 -0.0240745 0)
(1.0009 0.00146577 -2.66927e-17)
(0.993766 -0.0053137 3.33358e-17)
(1.00021 -0.00454663 0)
(0.00534271 1.74448 0)
(0.00629218 1.76334 0)
(0.00939132 1.74466 0)
(-0.0026942 1.77964 0)
(-0.0154273 1.7732 0)
(-0.0088276 1.77453 0)
(1.01335 0.00248761 0)
(1.00602 0.00707804 7.97118e-17)
(0.744384 1.34972 2.52544e-18)
(1.00122 -0.0052019 2.70272e-17)
(0.996635 0.00237513 -3.30968e-17)
(1.00594 0.00439084 0)
(0.996514 0.0106352 2.643e-17)
(1.00407 0.00636482 5.5182e-17)
(0.998434 0.00254652 0)
(0.011985 1.7662 0)
(0.00070144 1.7706 -3.68401e-17)
(-0.00220982 1.76757 -3.15127e-17)
(1.1351 0.257162 -6.82163e-17)
(1.08621 0.0855758 0)
(-0.2096 2.98315 3.57664e-17)
(-0.229552 3.18694 1.17168e-18)
(-0.0138056 3.02877 3.22475e-17)
(-0.0265923 2.98494 3.77975e-17)
(0.0585791 2.96911 0)
(-0.025988 3.03435 9.73429e-18)
(-0.0769994 3.12838 1.32974e-17)
(-0.0729311 3.02092 2.22601e-17)
(-0.0525437 3.10065 0)
(0.646647 0.345644 0)
(0.523572 0.38448 0)
(1.06667 0.800452 2.10756e-17)
(1.05113 0.874541 4.42798e-17)
(1.13532 0.62144 0)
(1.144 0.576685 0)
(1.00611 0.00254505 2.73237e-17)
(1.00751 0.00223537 -3.12518e-17)
(1.00717 0.0034779 0)
(1.01067 0.00186866 0)
(1.01234 0.00317724 0)
(1.01106 0.0137347 0)
(1.0133 -0.00188214 0)
(1.01022 0.0136199 0)
(1.00689 0.00973567 0)
(0.998835 0.00644103 0)
(0.0310323 1.85978 0)
(0.0036584 1.85873 0)
(0.0723109 1.88636 0)
(0.0435292 1.90447 0)
(0.0283616 1.63954 0)
(0.0147554 1.63415 3.53607e-17)
(0.0546022 1.66837 0)
(0.041519 1.66984 2.83884e-17)
(0.0274161 1.69751 -6.24126e-17)
(-0.00373981 1.79852 0)
(0.00469074 1.79382 0)
(0.010354 1.80451 0)
(0.00115561 1.82475 0)
(0.0280173 1.76557 -6.83598e-17)
(-0.0158663 1.74023 -4.73221e-17)
(0.0243565 1.7483 3.27198e-17)
(0.00478417 1.75723 0)
(0.0259459 1.75207 3.28811e-17)
(0.0141171 1.75729 -6.49654e-17)
(-0.00591835 1.78028 -1.09217e-16)
(-0.00623116 1.73041 -4.17194e-17)
(0.0215297 1.74406 3.93246e-17)
(0.99032 0.0207722 -2.08781e-17)
(0.997584 0.00462038 2.806e-17)
(0.986606 0.0277372 2.49738e-17)
(0.972294 0.0179712 -2.67126e-17)
(1.03093 0.00584004 0)
(1.03615 0.000615144 0)
(1.04516 0.0313518 0)
(1.03277 0.0164761 0)
(1.04757 0.015277 0)
(1.07489 0.0690801 0)
(1.06253 0.0556123 0)
(1.07993 0.0409679 0)
(-0.00370072 1.77728 9.37669e-18)
(0.0166168 1.74395 0)
(-0.0137332 1.75722 0)
(0.00603069 1.75694 -1.45974e-17)
(0.010619 1.76085 4.82349e-20)
(0.00683493 1.77311 4.05912e-17)
(-0.00704079 1.76005 4.24778e-17)
(0.00153164 1.76758 0)
(-0.0274108 1.77087 0)
(-0.00658771 1.76433 0)
(0.00208221 1.77752 0)
(-0.00149201 1.78362 0)
(0.289663 1.91895 -4.50836e-17)
(0.306204 1.89796 4.15855e-17)
(0.274507 1.49103 9.52755e-19)
(0.132635 1.55893 2.4666e-17)
(0.203303 1.69277 3.29294e-17)
(1.00117 -0.00961954 0)
(0.999445 -0.0190524 0)
(0.997191 -0.0190775 0)
(1.01877 -0.00464531 0)
(0.999766 -0.0106357 0)
(0.98918 -0.00845815 0)
(0.997868 -0.0147925 0)
(0.994516 -0.00291403 0)
(1.00574 0.00380067 -2.17606e-17)
(1.01248 -0.000254853 3.02313e-17)
(1.00532 0.00891173 2.59633e-17)
(1.00252 0.0049782 -2.93002e-17)
(0.68393 1.49328 0)
(0.616467 1.57019 -6.6487e-17)
(0.827778 1.28728 7.10738e-17)
(0.894433 1.22624 5.67633e-17)
(0.904419 2.20226 -3.61772e-17)
(0.822221 0.118571 -2.42944e-17)
(1.09653 0.126743 0)
(1.14097 0.191572 -7.83653e-17)
(1.14734 0.137728 5.60095e-19)
(0.953017 0.126967 0)
(-0.0733652 2.70992 4.20999e-17)
(-0.338754 2.62948 7.69576e-17)
(-0.750991 2.68168 -1.57398e-19)
(-0.572921 0.254911 -8.02077e-18)
(0.239633 3.03422 -1.72559e-17)
(0.078667 2.99964 0)
(0.167476 3.00084 -3.58685e-18)
(0.0401605 2.7172 8.91062e-17)
(0.213927 2.75669 0)
(-0.0196151 3.06341 -8.36675e-19)
(-0.0338365 3.06879 -1.6383e-17)
(-0.00708467 3.102 -3.6113e-17)
(-0.0293771 3.1129 0)
(-0.0482794 3.05649 0)
(1.11859 2.25173 0)
(0.591836 1.0428 5.02439e-17)
(0.995492 1.04794 -3.59953e-17)
(0.951817 1.15779 0)
(0.810077 1.05714 -1.07841e-17)
(1.03507 0.998767 -5.79385e-17)
(0.185915 0.406691 5.46329e-18)
(0.65967 0.345329 1.13183e-17)
(0.693351 0.316653 8.44749e-18)
(0.47278 0.453964 -1.68765e-19)
(0.442202 0.403071 1.1154e-17)
(0.608662 0.389687 0)
(0.60239 0.472553 4.63211e-18)
(0.615141 0.42775 0)
(0.536064 0.421251 0)
(0.587165 0.369941 0)
(0.720019 0.652171 2.68159e-17)
(1.15583 0.32601 4.61456e-17)
(1.16088 0.457353 0)
(1.18447 0.386297 0)
(0.765431 0.23225 1.32213e-17)
(0.740378 0.628509 3.73951e-17)
(0.633981 0.552852 3.95932e-18)
(0.871289 0.434138 -6.77426e-17)
(1.0103 -0.00367988 2.12576e-17)
(1.00811 0.00693155 5.42579e-17)
(1.00991 0.00364545 0)
(1.0112 0.0131956 0)
(1.0054 0.00230733 -2.09382e-17)
(1.00798 0.00186003 -5.16633e-17)
(1.00388 -0.00249236 0)
(0.995973 0.00197488 0)
(1.01448 0.00566403 0)
(1.01109 0.000212563 0)
(1.01532 0.00662991 0)
(1.01335 0.00190277 0)
(0.00995926 1.85278 0)
(0.0100563 1.84583 0)
(0.0650614 1.86276 -4.50809e-17)
(0.139453 1.93281 -3.48752e-17)
(0.0829241 1.93386 7.79546e-17)
(0.0729791 1.93926 2.47634e-17)
(0.0858095 1.86321 0)
(0.10127 1.75604 7.19028e-17)
(0.0746144 1.75609 0)
(0.16089 1.68918 3.76797e-17)
(0.166455 1.61784 -4.68368e-17)
(0.105741 1.784 6.26464e-17)
(0.155305 1.85625 -3.60824e-17)
(0.104898 1.85538 -4.0729e-17)
(0.154461 1.81624 -3.89609e-18)
(0.121548 1.75614 0)
(0.154625 1.74075 -5.31619e-17)
(0.0328307 1.72622 6.65074e-18)
(0.026039 1.68448 0)
(0.031247 1.69316 -7.18586e-17)
(0.025854 1.69453 0)
(0.0438304 1.67382 3.44661e-17)
(0.027261 1.67855 0)
(0.0287506 1.75706 5.3274e-17)
(0.0462667 1.76794 0)
(0.0273302 1.78103 0)
(0.0163496 1.78055 4.70723e-17)
(0.00167041 1.72556 -1.10395e-16)
(0.0324215 1.71429 -6.91321e-17)
(0.00709728 1.72882 -3.32917e-20)
(0.000596082 1.74814 7.0855e-17)
(-0.0129275 1.77551 -3.77362e-17)
(0.00320647 1.78825 0)
(-0.00895738 1.79309 0)
(0.0310267 1.7665 2.50714e-17)
(0.0216353 1.79004 2.09181e-17)
(0.032259 1.77208 6.08791e-17)
(0.0325296 1.76393 0)
(0.00734095 1.74601 9.84852e-17)
(-0.00234013 1.75 1.48523e-17)
(0.00737094 1.75786 -1.78417e-17)
(0.00600229 1.76526 7.44248e-17)
(0.0174476 1.72861 -3.12635e-18)
(0.00518839 1.73869 -4.43478e-17)
(0.998233 0.00777532 5.31181e-17)
(0.99834 0.00223363 2.17146e-17)
(0.998555 0.00301607 0)
(0.982905 0.0671541 -7.54455e-17)
(0.963464 0.0407422 2.49154e-17)
(0.943113 0.0263255 -1.8562e-17)
(0.980278 0.0995153 2.86779e-18)
(1.02123 0.010446 0)
(1.02655 0.0140345 -5.22194e-17)
(1.03008 0.00849456 -2.1816e-17)
(1.01881 0.0406837 3.5748e-18)
(1.02087 0.0252216 -1.32539e-17)
(0.99621 0.0335458 0)
(0.983498 0.0317377 1.52509e-18)
(0.996232 0.0243818 0)
(0.993546 0.0292995 0)
(1.00455 0.0156996 0)
(1.00005 0.00610833 0)
(0.995288 0.022939 1.15032e-18)
(0.995681 0.0252362 3.41839e-17)
(1.00987 0.0345519 -2.66392e-18)
(0.987499 0.0238644 1.27897e-17)
(0.992865 0.0569857 1.96501e-17)
(1.03417 0.0532248 0)
(1.03464 0.0965717 0)
(0.0176686 1.75672 -4.90164e-17)
(0.0320192 1.73427 -7.05644e-19)
(0.0113051 1.74923 0)
(0.0190031 1.76785 -5.16778e-17)
(0.0123465 1.77565 8.28031e-18)
(0.0165911 1.76322 -3.55921e-18)
(0.00597665 1.75646 -7.41494e-17)
(0.0134578 1.75281 -6.5222e-20)
(0.0132654 1.74924 -5.1828e-18)
(-0.00203747 1.75263 3.28554e-17)
(0.00242373 1.75926 3.05701e-17)
(0.00946423 1.76288 -2.17197e-17)
(0.00706836 1.76276 -3.74652e-17)
(0.229511 1.80911 2.17826e-17)
(0.210017 1.7954 -1.18381e-17)
(0.55772 1.69251 -8.10121e-17)
(0.408938 1.85221 3.49347e-17)
(0.462727 1.76727 0)
(0.308117 1.48059 -4.47613e-18)
(0.338513 1.44754 -1.65449e-18)
(0.187985 1.537 -6.94241e-18)
(0.187622 1.56406 -2.67715e-17)
(0.254577 1.56593 -3.04746e-17)
(0.263158 1.51496 0)
(0.194443 1.53454 -9.86815e-18)
(0.0602156 1.60392 -4.42442e-18)
(0.110534 1.58251 5.82846e-17)
(0.038741 1.58736 1.2715e-17)
(0.709317 1.50734 -3.87619e-17)
(0.525422 1.42923 0)
(1.02274 -0.0029279 -4.88598e-19)
(1.00428 -0.00300546 5.00811e-19)
(1.0089 -0.000143621 -2.9471e-18)
(1.02457 0.00310394 -1.92132e-17)
(1.02479 0.000420871 0)
(0.494763 1.3218 0)
(0.478411 1.21083 0)
(0.685851 1.15831 0)
(0.595002 1.0396 0)
(0.899357 2.2177 2.72733e-17)
(0.832963 1.9901 0)
(0.473744 2.2532 -1.09125e-18)
(0.435418 1.88878 0)
(0.486342 1.99255 7.39918e-17)
(0.533622 2.04357 6.027e-17)
(0.821514 0.150703 0)
(0.806562 0.16128 -2.18711e-18)
(0.889558 0.12467 7.32366e-19)
(0.831814 0.116207 -2.42433e-17)
(0.834376 0.093466 8.04133e-18)
(1.00151 0.237655 -1.4733e-17)
(0.884635 0.316732 2.69301e-17)
(0.831003 0.291559 1.71451e-17)
(0.925394 0.224324 5.39774e-18)
(0.899056 0.161326 4.81927e-17)
(0.885887 0.174976 -1.15695e-17)
(0.886791 0.24382 4.38404e-18)
(0.872468 0.210113 0)
(0.943981 0.178993 1.529e-17)
(0.974026 0.170899 0)
(0.960384 0.237234 0)
(1.0446 0.126536 -1.5133e-17)
(0.991499 0.173407 2.96381e-17)
(0.989488 0.208797 2.18871e-17)
(1.05481 0.211542 0)
(0.996788 0.0302185 -4.10904e-17)
(0.998892 0.0331753 2.04845e-17)
(1.00207 0.0376266 -1.81555e-17)
(1.0121 0.0541368 4.59878e-17)
(0.988311 0.0631181 -4.41549e-17)
(0.921732 0.120677 0)
(0.939008 0.0758105 0)
(0.933657 0.05265 4.62704e-17)
(0.910407 0.0576999 6.50502e-18)
(1.00336 0.111725 -4.38434e-17)
(1.0002 0.143439 -1.5541e-17)
(1.00393 0.150976 -1.67282e-17)
(0.984716 0.155882 0)
(1.00685 0.102928 0)
(1.0043 0.0934603 3.74575e-17)
(1.00112 0.0973309 -1.87402e-17)
(0.480251 1.59523 2.25626e-17)
(0.584862 2.14104 -1.67538e-17)
(0.874009 2.46775 2.23417e-17)
(1.0035 2.66751 -3.28857e-18)
(0.98256 2.34981 -1.50544e-17)
(1.08372 2.37316 1.2578e-18)
(1.01853 2.01813 7.7678e-18)
(1.00546 2.57582 -1.02648e-17)
(0.986371 2.57074 -2.03263e-17)
(1.08298 2.74517 -3.35667e-18)
(1.20448 2.59666 4.44458e-18)
(1.28174 2.50091 0)
(0.572276 1.07286 -2.81324e-18)
(-0.175858 1.38414 -1.63394e-17)
(0.0153676 0.645185 -9.90315e-18)
(-0.132819 0.825478 -2.04421e-17)
(0.364381 0.454685 -1.22369e-17)
(0.378559 0.502917 9.28999e-18)
(0.323909 0.601913 -1.13866e-17)
(0.225152 0.494332 4.3591e-18)
(0.339207 0.396706 -1.12758e-17)
(0.746652 0.26901 2.53256e-17)
(0.702785 0.308721 0)
(0.729164 0.278168 5.8007e-18)
(0.610084 0.557647 -1.34487e-17)
(0.532132 0.533584 2.11222e-17)
(0.427616 0.591931 -5.54496e-18)
(0.511529 0.487501 0)
(0.616314 0.889659 -2.6203e-17)
(0.764378 0.86508 4.08392e-17)
(0.705506 1.00586 5.29592e-17)
(0.799321 0.845823 1.43696e-17)
(0.912117 0.910343 -3.37842e-18)
(0.895511 0.934348 -6.06662e-18)
(0.775015 0.724168 1.07094e-17)
(0.837044 0.758852 7.76067e-18)
(0.942082 0.806938 0)
(0.939194 0.709717 2.6872e-17)
(0.938008 0.330908 4.57845e-17)
(1.06683 0.324191 -2.31103e-17)
(0.985047 0.288391 -5.11075e-17)
(0.908554 0.398003 4.91494e-17)
(0.97953 0.450114 0)
(1.01664 0.425391 0)
(0.778109 0.396446 4.74854e-17)
(0.785724 0.298467 0)
(0.789237 0.294632 -1.67828e-17)
(0.818794 0.318294 6.46494e-17)
(0.828162 0.494564 -9.84085e-17)
(0.768334 0.56234 -4.83454e-18)
(0.792159 0.511053 1.17796e-17)
(0.718391 0.466187 -5.82032e-18)
(0.700323 0.483282 -8.10148e-18)
(0.646802 0.46333 1.57713e-18)
(1.01642 0.0179353 -5.13102e-17)
(1.01257 0.000892559 0)
(1.01789 0.0156979 5.8008e-18)
(1.01035 0.0220191 -3.75355e-18)
(1.01262 0.00936529 -2.73416e-17)
(1.00757 0.0165131 1.25923e-17)
(1.00015 0.00785803 0)
(1.00386 -0.00507445 1.4365e-17)
(1.01434 0.00540278 -5.85636e-18)
(1.01129 0.00124338 -5.4479e-19)
(1.00985 0.00254318 6.39517e-18)
(-0.00669531 1.82175 0)
(0.0113832 1.80579 0)
(0.0189161 1.83396 0)
(-0.000305037 1.83108 0)
(0.0468982 1.82265 -1.02127e-17)
(0.0450868 1.84218 -1.00659e-16)
(0.0503476 1.77372 -2.96191e-17)
(0.054708 1.84433 -8.28442e-17)
(0.0205257 1.78851 5.70267e-17)
(0.0339767 1.80827 5.58991e-17)
(0.0370653 1.82405 1.13769e-16)
(0.0245782 1.82529 5.70722e-17)
(0.0127921 1.80944 9.96735e-18)
(0.00435236 1.82004 1.75629e-18)
(0.0425391 1.69214 -6.27846e-17)
(0.0621552 1.70016 0)
(0.0528545 1.7201 -3.98641e-17)
(0.0506316 1.76272 -6.0563e-18)
(0.110613 1.69226 -1.60091e-17)
(0.0795765 1.6033 0)
(0.0809267 1.60271 5.57059e-17)
(0.11003 1.60898 4.34626e-17)
(0.0916683 1.6988 -5.63117e-17)
(0.078105 1.71338 -7.95014e-17)
(0.0421582 1.62881 0)
(0.0280477 1.75233 3.37249e-17)
(0.0221818 1.72444 -1.72893e-17)
(0.0240889 1.74513 0)
(0.0387988 1.73025 1.99366e-17)
(0.0272021 1.73209 1.50217e-17)
(0.00554822 1.77784 8.74621e-18)
(-9.99723e-05 1.77511 -9.08595e-17)
(-0.00809014 1.77057 -6.37939e-17)
(-0.0167765 1.7675 4.27151e-17)
(0.00174065 1.75293 0)
(0.0161271 1.78062 0)
(0.00833276 1.77807 -3.81081e-17)
(0.000564112 1.77021 -3.13211e-18)
(0.0076225 1.77888 0)
(-0.00470347 1.78697 3.05922e-17)
(0.00265915 1.77988 2.51213e-18)
(1.00613 0.0275151 0)
(1.00786 0.0299834 9.29273e-19)
(0.996552 0.0181953 4.69113e-17)
(1.01439 0.0202567 0)
(1.01054 0.0161194 0)
(0.999811 0.000609827 2.02776e-17)
(1.00294 0.00807745 -5.95616e-17)
(0.998672 0.00447188 -2.59187e-17)
(1.00049 0.00263913 0)
(1.00823 0.00779821 0)
(0.997571 0.0161667 2.29923e-17)
(0.994422 0.0171015 0)
(1.00377 0.0124116 0)
(-0.00554563 1.7513 0)
(0.00786334 1.76762 -3.92035e-17)
(0.0120882 1.74583 4.00796e-17)
(0.00567035 1.76858 0)
(0.00860492 1.77631 -3.75853e-17)
(0.00138753 1.77338 -1.76542e-17)
(-0.00343117 1.77305 0)
(0.285156 1.83349 0)
(0.177328 1.81062 2.88041e-17)
(0.184218 1.76806 0)
(0.204672 1.78142 6.97828e-17)
(0.285368 1.71834 0)
(0.263404 1.79438 3.58614e-17)
(0.742358 1.92785 -1.49374e-19)
(0.715629 1.53471 -1.90213e-17)
(0.763631 1.53552 -2.74719e-17)
(0.557416 1.43982 -9.00645e-18)
(0.501611 1.68774 0)
(0.543431 1.77362 0)
(0.675395 1.4809 0)
(0.634133 1.41101 1.48706e-18)
(0.33639 1.81371 -3.31388e-17)
(0.445408 1.6763 4.45871e-18)
(0.388667 1.85675 1.76259e-18)
(0.403875 1.44466 0)
(0.478307 1.43066 0)
(0.450813 1.42393 2.02946e-18)
(0.439164 1.601 0)
(0.691515 1.01145 0)
(0.64992 1.02558 -5.41597e-17)
(0.698429 0.966203 -5.30176e-18)
(0.551055 1.10118 0)
(0.665665 1.18822 -7.67866e-17)
(0.730048 1.01497 -7.63949e-18)
(0.756213 1.11063 0)
(0.769025 1.05941 -3.12564e-17)
(0.750827 1.01717 0)
(0.709561 1.00765 0)
(0.810117 2.38881 1.66128e-17)
(0.826217 2.49072 -6.8619e-18)
(0.615905 2.35706 -4.211e-17)
(0.557215 2.27821 -1.55367e-18)
(0.800733 2.22801 0)
(0.735584 2.2 -6.23498e-18)
(0.795847 2.01882 -2.0296e-18)
(0.799428 1.82283 -7.24238e-18)
(0.318152 2.0159 0)
(0.317456 1.51284 3.16472e-17)
(0.358901 1.50986 0)
(0.839441 0.203014 0)
(0.799514 0.195535 0)
(0.776408 0.198403 0)
(0.834345 0.244289 -2.31771e-18)
(0.775392 0.227249 2.06048e-18)
(0.912762 0.0840914 1.60052e-17)
(0.900407 0.119549 0)
(0.878456 0.0978152 -2.14314e-18)
(0.85242 0.086563 -1.01647e-17)
(0.868306 0.0606596 -1.25793e-18)
(1.0895 2.86319 -1.78743e-17)
(1.03439 2.78597 0)
(0.990589 2.90919 -5.60958e-17)
(0.647425 3.1127 -2.36395e-17)
(0.800839 2.62477 1.49904e-17)
(0.587649 1.22263 -2.84809e-17)
(0.68115 1.1098 0)
(0.337759 0.854261 7.32834e-18)
(0.344133 0.960026 3.32171e-17)
(0.208932 0.84396 1.07199e-17)
(0.286634 0.646166 3.51298e-18)
(0.496279 0.614922 -1.16594e-17)
(0.54711 0.643298 0)
(0.493546 0.790106 0)
(0.374087 0.760831 0)
(0.929611 0.668162 7.95299e-18)
(0.834287 0.592022 1.18114e-17)
(0.83099 0.628551 -7.06237e-18)
(0.857805 0.534341 2.31865e-17)
(0.960599 0.544258 0)
(0.954281 0.591987 -8.80336e-18)
(0.750398 0.429667 1.60186e-17)
(0.764823 0.385655 3.20897e-17)
(0.688136 0.412951 -8.6603e-18)
(0.686918 0.399364 6.74536e-18)
(0.758699 0.355134 -4.68079e-18)
(0.718072 0.34532 -2.03297e-17)
(1.01465 0.00171218 -3.10392e-17)
(1.01402 -0.0035656 -4.37913e-17)
(1.02009 0.0158569 2.81018e-17)
(1.01444 0.0167491 5.58709e-17)
(1.00009 0.0243426 0)
(0.993694 0.007343 -8.11904e-19)
(0.0537743 1.76669 2.43358e-17)
(0.0514788 1.78181 0)
(0.0473092 1.76023 -4.81273e-17)
(0.0446872 1.76 -5.00871e-17)
(0.0387626 1.77814 -3.6285e-17)
(0.0418013 1.79198 0)
(0.0262406 1.7739 0)
(0.0115973 1.76819 -1.787e-17)
(0.00402038 1.75731 -1.89968e-17)
(-0.00312759 1.76752 -4.65175e-17)
(-0.00958198 1.75571 -8.93215e-18)
(0.0256995 1.76041 -4.30606e-18)
(0.287321 1.89542 -9.85921e-17)
(0.256652 1.8781 -1.27863e-16)
(0.233281 1.78305 7.57038e-17)
(0.237711 1.87192 -4.92338e-18)
(0.418985 1.4363 0)
(0.327074 1.67186 7.56519e-17)
(0.375683 1.53907 5.96771e-17)
(0.231452 1.67672 5.94363e-17)
(0.266894 1.67153 0)
(0.315051 1.49452 0)
(0.335952 1.7464 -4.92182e-17)
(0.349242 1.55166 -6.84267e-17)
(0.396569 1.59595 -4.77044e-17)
(0.316747 1.54696 -1.41757e-18)
(0.275827 1.6821 4.22887e-19)
(0.251609 1.56302 -1.44937e-17)
(0.754004 1.65033 -6.12475e-18)
(0.793272 1.79901 0)
(0.797423 1.65376 8.58141e-18)
(0.76327 2.07462 0)
(0.733468 2.01791 0)
(0.728212 2.01414 1.37279e-18)
(0.972168 2.60167 7.79161e-19)
(0.875322 2.54315 -4.8492e-18)
(0.219682 1.20104 0)
(0.312612 1.19641 -1.21958e-17)
(0.611164 1.14716 -3.07142e-17)
(0.514453 1.86559 0)
(0.445505 2.34354 3.90502e-18)
(0.245866 2.26902 0)
(0.649016 0.835406 -6.96056e-18)
(0.674284 0.814714 -5.44567e-17)
(0.687367 0.759046 -1.23228e-17)
(0.535412 0.798563 -8.99025e-19)
(0.591468 0.698624 4.70903e-18)
(0.911527 2.40544 -1.2501e-17)
(0.934839 2.45324 -2.60179e-18)
(0.808656 2.05607 2.58586e-18)
(0.819511 1.81607 3.17855e-17)
(0.787378 2.02182 4.28576e-17)
(0.90066 2.24463 -2.70514e-17)
(0.80803 2.32864 -2.2992e-17)
(0.853035 1.84648 2.98182e-19)
(0.755592 1.74412 2.80754e-17)
)
;

boundaryField
{
    wall-4
    {
        type            calculated;
        value           uniform (0 0 0);
    }
    velocity-inlet-5
    {
        type            calculated;
        value           uniform (1 0 0);
    }
    velocity-inlet-6
    {
        type            calculated;
        value           uniform (0 3 0);
    }
    pressure-outlet-7
    {
        type            calculated;
        value           nonuniform List<vector> 8((-0.00287715 1.72741 0) (-0.0146601 1.68475 5.38088e-17) (0.00601382 1.76545 0) (-0.0101389 1.78974 0) (-0.00153335 1.75298 0) (0.0044623 1.75819 0) (-0.00146951 1.74575 0) (-0.00281197 1.77112 0));
    }
    wall-8
    {
        type            calculated;
        value           uniform (0 0 0);
    }
    frontAndBackPlanes
    {
        type            empty;
    }
}

