/*--------------------------------*- C++ -*----------------------------------*\
  =========                 |
  \\      /  F ield         | OpenFOAM: The Open Source CFD Toolbox
   \\    /   O peration     | Website:  https://openfoam.org
    \\  /    A nd           | Version:  6
     \\/     M anipulation  |
\*---------------------------------------------------------------------------*/
FoamFile
{
    version     2.0;
    format      ascii;
    class       volScalarField;
    location    "0";
    object      p;
}
// * * * * * * * * * * * * * * * * * * * * * * * * * * * * * * * * * * * * * //

dimensions      [0 2 -2 0 0 0 0];

internalField   nonuniform List<scalar> 
13046
(
0.0706949
0.0486051
0.0572073
0.0788967
0.0610565
0.0392535
0.0682348
0.0428156
0.0630177
0.00392888
-0.26404
0.0344084
0.074252
0.0084286
0.0503139
0.0199766
0.0292621
-0.214957
0.0753161
0.0552989
0.0664983
0.0181597
0.0320069
-0.224067
0.0701483
0.065408
0.0552888
0.0670975
0.0161923
0.0515223
0.0763545
0.0298153
0.0486401
0.0740129
0.0631835
0.0572737
0.0706573
0.0660182
0.061155
0.067854
0.0447814
0.0476895
0.0641024
0.0758023
0.0660017
0.0705374
0.0641005
0.0622872
0.066602
0.0426893
0.0589816
0.0123004
0.0615829
0.0348276
0.0254556
0.0303675
0.063704
-0.0842109
0.0526047
0.0274969
0.0574239
-0.0251737
0.0519591
0.0376463
-0.147686
0.0346917
0.0539631
-0.0685193
0.0228538
0.0579576
-0.0555617
0.0230264
-0.107403
0.048598
0.0278149
0.076354
0.0657688
0.0587464
0.0320299
0.0414469
-0.124966
0.0693639
0.0574353
0.0542073
0.035989
-0.172545
0.0258505
0.0265196
0.0436227
-0.134808
0.0452853
0.0111531
-0.143501
0.057832
0.0534367
-0.0447314
-0.0613666
0.0411453
0.0436064
0.0455396
0.0258265
-0.121658
0.0752906
0.065988
0.0569726
0.0675934
0.0388379
0.0301601
0.0642496
0.0384832
0.0458801
-0.0286685
0.032808
-0.365351
0.0742929
0.0238255
0.0489031
0.0526648
0.0560239
-0.0751723
0.0368643
-0.0499968
0.0374196
-0.00246461
-0.290681
0.0333581
0.0690787
-0.030866
0.0484098
0.0682416
0.0439203
0.0420967
0.0466476
0.0141091
-0.114004
0.047211
-0.0918297
0.042766
0.0751576
0.0232451
0.0444625
0.063825
0.0339925
0.0581467
0.0603
0.0256524
0.0528483
0.0666161
0.052088
0.0450857
0.0592335
-0.043341
0.0505147
0.0704756
0.055406
0.0395411
-0.00180926
0.0364106
-0.011772
0.0368603
0.0591379
0.0580181
0.0691362
0.00716175
0.0587961
0.000301581
0.035627
-0.259516
-0.017041
0.0329399
-0.340736
0.0449874
-0.110542
0.0411509
0.0698074
0.011545
0.0376606
0.06787
0.0602791
0.016249
0.0386609
-0.224788
0.00582556
0.0681373
0.0249812
0.0317461
0.0695826
0.0484234
0.0319987
0.0667338
0.0353044
0.0579238
-0.00139317
0.0553953
0.068324
-0.011091
0.0462823
0.0243798
0.0400924
-0.16453
0.0468572
0.0239535
-0.107996
0.0115662
-0.150404
0.0438708
0.00367181
0.023183
0.0578821
0.0691781
0.0427068
0.0260389
-0.121176
-0.178311
0.0129153
0.0418021
0.0692054
0.0671397
0.058031
0.0680102
0.0271187
0.0477891
0.0482352
0.0180261
-0.101478
0.0675201
0.00461887
0.0584855
0.0349286
-0.308482
-0.0163338
0.0575956
0.0258892
-0.00398048
0.0177084
-0.12768
0.045656
0.0449559
-0.000371649
0.0609386
0.0640723
-0.0175296
0.0487984
-0.0635915
0.0233663
0.0490441
0.0334248
-0.0254324
0.0546046
0.036362
-0.312392
-0.0234347
0.0694692
0.0392409
0.0302529
-0.0188444
0.0287786
-0.398512
0.0691072
0.073481
0.0510649
0.0542293
0.05037
8.69855e-05
0.00589186
0.0613219
0.0558033
0.0258692
0.0375677
-0.150208
0.0661398
-0.00264949
0.0422445
0.0334419
-0.0496967
0.0529596
0.047312
-0.0835495
0.0397664
0.0663179
0.059841
0.0731608
0.0441972
-0.0127491
0.0572777
0.0676285
-0.0166942
0.0409206
0.0677748
0.0685491
0.070378
0.0302107
0.0169491
0.0455787
-0.028064
0.0550201
0.0397721
0.0391815
-0.0966194
0.0713705
0.0344759
0.0360946
0.0591578
0.0272323
-0.0124794
0.0555537
-0.056408
0.0325128
0.0633228
0.0152794
0.0269969
0.0500374
0.0506064
-0.0703141
0.0320288
-0.082497
0.0353367
0.038008
-0.20846
0.00982857
0.057353
-0.0332054
0.0396055
-0.441089
0.0298725
-0.0437165
0.0737609
0.0653805
0.0312422
0.0621987
-0.0125444
0.0525845
0.0413119
0.0294667
-0.138966
0.0182488
0.0246793
0.0625541
-0.0826083
0.0223578
0.0483424
0.0277918
0.055412
0.0561144
-0.0134334
0.050186
0.0137411
0.0591015
0.028132
0.0300925
-0.19025
0.0126844
0.00957753
0.0605417
0.0523077
-0.0248764
0.046889
0.0591646
0.0208919
0.0612826
0.0438493
0.0151866
0.0641483
0.074068
0.0380168
0.0582896
0.0565226
0.0330835
-0.0049006
0.0172502
-0.161271
0.0421579
-0.074892
0.019722
0.0502914
0.0558963
0.0204406
-0.0223193
0.0456491
0.0483474
-0.0837811
-0.105679
0.0260319
0.0291557
0.0306343
-0.423979
-0.0362043
-0.013272
0.0285235
-0.3826
0.0548301
-0.00630036
0.0529188
0.0385877
0.0225966
-0.187502
0.0559354
0.0566795
-0.0383259
-0.0565385
0.0333655
0.0295832
0.0413268
-0.213437
-0.00509924
-0.0241768
0.027652
-0.417714
0.0593488
0.0745039
0.062365
-0.0271028
-0.390671
0.0315583
0.0690672
0.00625931
0.0320863
0.00849558
-0.213058
0.0392512
-0.425657
0.0361131
-0.0657184
0.068079
0.0430724
0.0537878
0.068159
0.0631592
0.0653639
-0.000892861
0.0320181
-0.298399
0.0650091
0.0526043
0.0643983
0.0611217
0.0730989
0.0660284
0.0606979
0.0167897
0.000186097
0.0588857
0.0611059
0.0708834
0.075139
0.0303642
0.0663737
0.0578081
-0.0103779
0.0196647
0.0326246
0.0349988
-0.228573
-0.234062
0.0130808
0.0121333
0.00754386
-0.174826
0.041815
0.0282913
0.0570261
-0.0440344
0.0654544
0.0308405
0.0376784
0.031958
-0.033327
0.0514566
-0.358884
0.0370478
-0.0526265
0.0440248
0.00893885
-0.160893
-0.0124265
0.0336822
-0.314969
0.0359108
-0.447203
-0.0657412
-0.482344
0.0319667
-0.0520023
-0.0400738
0.0462248
0.049929
-0.270592
0.0399028
-0.0258871
0.040334
-0.0969393
0.0441496
0.0130573
0.0254968
-0.270579
0.071515
0.0543351
0.0442488
-0.192732
0.0422412
0.0014555
0.0304287
0.0523881
-0.0261639
-0.0568677
0.0332255
0.0529462
0.0355384
-0.547318
-0.0858654
-0.41282
0.0331063
-0.053097
0.0743404
0.059547
0.0411618
-0.222936
-0.00922777
0.0412577
0.0415538
-0.0158692
-0.229521
0.018935
0.0368171
-0.186276
0.0288062
-0.150364
0.0338579
0.061862
-0.0129041
0.021952
-0.0766597
0.0532164
0.0330538
0.027882
0.0307656
-0.197874
0.068053
0.0673618
0.00770263
-0.00458427
0.0397401
0.0424719
0.0683239
0.0159713
0.0385354
0.0603277
-0.0437707
0.0342057
-0.0641476
0.0263854
0.050884
-0.186888
0.0114003
0.0412344
0.0478821
0.0302026
-0.0850818
-0.479944
0.0299513
-0.0435081
0.0749115
0.0739433
0.0508278
0.0404178
0.0564892
0.0448071
0.0656785
0.0596145
0.0321318
-0.024286
0.0312337
0.00565602
-0.417085
0.0350297
-0.0637839
-0.212627
-0.00422641
0.0414393
0.0623712
0.0176978
0.0235445
-0.0490317
0.0251607
0.0513315
0.028525
-0.137043
0.0375395
-0.362781
-0.0345044
0.0348412
-0.336006
-0.0310478
0.0357794
0.0589334
-0.0484302
0.0368704
0.070823
0.0285798
0.0435866
0.0164055
0.0356275
-0.212835
-0.0525049
0.0376188
0.0516409
0.0389801
-0.127138
0.0394519
0.0608371
0.0341806
0.0118893
0.0490072
0.00492101
0.0602534
0.0683811
0.0398586
0.0412633
0.0363974
-0.225654
0.00994223
0.0474091
-0.0899009
0.0370227
0.0721892
0.047524
0.0498607
0.0238791
0.0256553
-0.224687
0.068089
0.0334872
0.0487212
0.0657145
0.0277519
0.0644993
-0.0416655
0.0397472
0.0530802
-0.00333957
0.0279107
-0.336613
0.00189805
0.0266864
-0.323219
0.0367327
-0.133936
0.0392646
0.0448312
0.013526
0.0589174
0.0269315
-0.369062
-0.0131598
0.0424589
-0.120861
0.0363871
0.0349291
-0.469469
-0.073344
-0.0595897
-0.494984
0.0313781
0.0300632
-0.185031
0.0322232
0.0362078
-0.27261
-0.00609568
0.0227804
0.0269139
0.0320392
-0.207248
0.0340478
-0.17974
0.0308149
-0.112124
0.0442542
0.055587
-0.0395086
0.0189157
0.0781707
0.0531944
0.0428917
0.0353133
-0.0944123
0.0474676
0.0484195
0.0380454
-0.0831571
0.034903
0.0268298
-0.180889
0.064294
-0.0366904
0.0302361
0.0653547
-0.00177323
0.0275366
0.045333
-0.0472267
0.0502422
0.0440958
-0.055566
0.05041
0.0720159
0.0406402
0.0566994
0.0677066
-0.013612
0.0452882
0.0431206
-0.185021
-0.00339175
-0.0365795
0.036704
-0.33429
-0.0444757
0.0387369
-0.334074
0.0690175
0.0426365
0.0309003
-0.384447
0.0354848
-0.0458193
0.0441608
0.0361436
-0.116524
0.0360047
-0.377237
-0.0553264
0.0766103
0.0637491
0.0445787
0.0669323
0.00149935
0.0502916
0.0120379
0.0414988
0.0607932
0.0402064
-0.25623
-0.0179622
-0.0583463
0.0406981
0.051401
0.0267157
0.0196291
-0.239535
0.0601018
-0.0110382
0.0506112
0.0781693
0.0578309
0.0446298
-0.253025
-0.0117194
0.0389682
0.0401625
-0.134369
0.0351044
-0.00534835
-0.0118009
0.0304185
0.0303006
-0.328088
-0.349876
0.0587099
0.00861552
0.0591746
-0.0292977
0.0492566
0.050719
0.0632957
0.0377552
0.064836
-0.301817
-0.0288817
-0.295305
0.0376022
-0.0280801
0.0379831
0.0546643
-0.0544113
0.0473657
-0.0121715
-0.0205833
-0.267646
-0.290274
0.0385236
0.0383143
0.044606
-0.0175176
0.0568934
0.0624939
0.0107174
0.0539949
0.00851916
0.0275986
-0.287052
0.067016
-0.00634271
0.0562718
0.0684348
0.0215304
0.0590926
-0.00338707
0.0286194
-0.316268
0.0635231
-0.0352324
0.0430615
-0.0111184
0.018988
0.0551402
0.062709
-0.00290693
0.0296167
-0.097491
0.046507
0.0123192
0.0341484
-0.521135
-0.0766981
0.059343
-0.00612572
0.051741
0.0134853
0.0301038
-0.2522
0.017775
-0.00322308
0.0610807
-0.045573
0.0296006
-0.447706
0.0680158
0.0649275
0.0323602
0.0531485
0.035637
0.0560491
0.0688242
0.0346214
0.0651642
0.0668767
0.0704417
0.0391188
0.0592581
0.0536491
0.0516062
0.0612882
0.0136412
0.0599224
0.0663765
0.0155666
0.0605923
0.0380918
-0.319737
-0.0409282
0.0688271
0.0266866
0.0368401
-0.00483462
-0.254693
0.0376944
0.0452526
0.0423464
-0.0611248
-0.0819758
0.0469195
0.0448057
0.0666272
0.0434296
0.0432768
0.0593471
-0.0273776
0.0314352
0.053548
-0.0376687
0.0506757
0.0730362
0.0595874
0.0554241
0.0409444
-0.0803393
0.0476038
0.0732092
0.0461929
0.0527472
0.052354
-0.0206002
0.0552107
0.0589543
-0.0163981
0.0319409
0.0724069
0.0715493
0.0554629
0.0609416
0.0596458
0.0561444
0.0697943
0.0377839
0.072674
0.0627388
0.0631983
0.0546249
0.0694196
0.0691704
0.0144387
0.00871254
0.0449762
0.0404989
0.0304801
-0.145888
0.038234
0.0555123
0.0264682
-0.00467106
0.0330273
0.0345534
-0.166735
-0.160494
0.033112
0.0319632
0.0623596
0.0227625
0.0223389
0.0718141
0.0638954
0.0624882
0.0405834
-0.0946996
0.0458284
0.0738833
0.0449789
0.0332406
0.0584694
-0.0260109
0.0331796
0.0467412
0.0475393
-0.117143
0.0325816
-0.107582
0.0335726
0.0490453
-0.0655889
0.0447027
-0.0384307
-0.427381
0.0301383
0.0130915
0.0095464
0.0598514
0.0596729
0.0618927
0.0196627
-0.000237349
0.0299721
0.00646425
0.033371
-0.0724637
0.0497498
0.0594467
-0.0117953
0.0345934
0.0641215
0.0169426
0.0128003
0.0595937
0.0665366
0.0241999
0.0392677
0.024776
0.0125983
0.060614
0.0327838
0.0110605
0.0498725
-0.0574136
0.0475898
0.0724274
0.0479537
0.0580808
0.00389319
0.0310334
-0.281712
0.0640113
0.0205907
0.00440302
0.062487
0.0600505
-0.0298046
-0.0411686
0.0328792
0.038829
0.0311205
-0.255185
0.0112293
0.00997461
0.0291926
-0.276317
0.00340039
0.0296736
-0.294302
0.0438403
0.0336682
-0.122311
0.0617558
-0.000762056
0.0365398
-0.229693
-0.197553
-0.0181026
-0.225137
-0.076252
-0.345007
-0.134375
-0.180907
-0.325208
-0.088926
-0.0921695
-0.357477
-0.240396
-0.0883393
-0.234376
-0.255235
-0.214199
-0.249096
-0.206664
-0.128237
-0.198182
-0.252772
-0.0734784
0.0244621
-0.0099738
-0.188474
-0.0629031
-0.357743
-0.174273
-0.247582
-0.348694
-0.140761
-0.203221
-0.212856
-0.331254
-0.191592
-0.0314032
-0.0766435
-0.208939
-0.131507
-0.275019
0.0264229
-0.308449
-0.0898049
-0.0440252
-0.276664
-0.266464
-0.312489
-0.350521
-0.315209
-0.0071271
-0.193809
-0.25272
-0.296597
-0.346301
-0.0135061
-0.127859
-0.196993
-0.327277
-0.0988719
-0.320452
-0.301127
-0.00948725
-0.16752
-0.201582
-0.124754
-0.182133
0.0142481
-0.07477
-0.0682861
-0.407266
-0.366503
-0.242614
-0.108648
-0.377957
-0.212712
-0.183498
-0.339476
-0.106528
-0.0459762
-0.244672
-0.213633
-0.339843
-0.277859
-0.28426
-0.0960719
-0.28082
-0.223366
-0.239664
-0.00349002
-0.262497
-0.10084
-0.0100025
-0.208393
-0.245425
-0.400385
-0.319567
-0.310212
-0.245304
-0.409763
-0.146598
-0.0698628
-0.0325341
0.0160232
-0.267362
-0.230353
-0.354382
-0.250797
-0.318382
-0.0341579
-0.0648367
-0.126455
-0.312335
-0.378867
-0.12142
-0.0544586
-0.255902
-0.223133
-0.406287
-0.255197
-0.220456
0.00467862
0.00611796
-0.1056
-0.185055
-0.231727
-0.358287
0.00770313
-0.256618
-0.11122
-0.417499
-0.00951958
-0.338372
-0.270154
-0.243072
-0.0485423
-0.222846
-0.433108
-0.300516
-0.132588
-0.257238
-0.0931416
-0.121387
-0.266312
-0.0429275
-0.296524
-0.284954
-0.0392735
-0.297829
-0.24888
-0.353583
-0.167192
-0.211649
-0.0447929
-0.101236
-0.266177
-0.109754
-0.0903319
-0.0221774
-0.180988
-0.242711
-0.269417
-0.0791855
-0.254757
-0.130422
-0.346704
0.0222124
-0.254091
-0.0347115
0.0053684
-0.190924
0.0111035
-0.0399625
-0.0247077
-0.30409
-0.418588
-0.359185
-0.0186103
-0.314054
-0.325746
-0.258118
-0.322354
-0.247319
-0.285204
-0.184975
0.00590759
-0.104264
-0.275799
-0.100469
-0.301749
0.023683
-0.29213
-0.0498118
-0.275404
-0.432832
-0.00597622
0.00867939
-0.281888
-0.305498
0.0216571
-0.170103
-0.205382
-0.314519
-0.108502
-0.0327156
-0.0916407
-0.277384
-0.328321
-0.0672334
-0.178981
-0.346822
-0.121294
-0.262268
-0.340892
-0.234061
-0.0505646
-0.399885
-0.189016
-0.0696546
-0.288769
-0.412584
-0.267424
-0.251575
-0.217576
-0.155553
-0.143102
-0.270815
-0.333965
-0.251416
-0.125144
-0.0968048
-0.259419
-0.136649
-0.289766
-0.314581
-0.167555
-0.271027
-0.423639
-0.0892126
-0.0402365
-0.185101
-0.00346464
-0.0274949
0.0253008
-0.249344
-0.443937
-0.239045
-0.269367
-0.219635
-0.394344
-0.159864
-0.00866174
-0.110578
-0.170884
-0.285654
-0.257399
-0.0772028
-0.201141
-0.111609
-0.296297
-0.233776
-0.280933
-0.272511
-0.280838
-0.272394
-0.258989
-0.34482
-0.137918
-0.184692
-0.265351
-0.130214
-0.229012
-0.247224
-0.322979
-0.265881
-0.296021
-0.306373
-0.177461
-0.384187
-0.444299
-0.220835
-0.363698
-0.395996
-0.170808
-0.29043
-0.39203
-0.0420423
-0.131766
-0.293945
-0.0825341
-0.341428
-0.141844
-0.1183
-0.257682
-0.24244
-0.0579897
-0.235592
-0.0838919
-0.353164
-0.282716
-0.0376887
-0.286148
-0.244735
-0.466554
-0.384599
-0.430229
-0.369803
-0.299632
-0.134254
-0.32572
-0.411369
-0.330675
-0.276404
0.0251369
-0.232904
-0.113141
-0.153347
-0.275743
-0.208884
-0.283813
-0.355597
-0.152016
-0.276136
-0.0112197
-0.102097
-0.271107
-0.273006
-0.191581
0.0241223
-0.0804852
-0.0303313
-0.100628
-0.263123
-0.188748
-0.252055
-0.33653
-0.379795
-0.304386
-0.205087
-0.108462
-0.331558
-0.378511
-0.245911
-0.20186
-0.250224
-0.213472
-0.0574755
-0.224632
-0.266102
-0.0173553
-0.0424569
-0.284064
-0.144699
-0.0332789
-0.329512
-0.295525
-0.263719
-0.323518
-0.343788
-0.032735
-0.343223
-0.222829
-0.0213947
-0.423749
-0.179927
-0.280189
-0.190216
-0.266746
-0.297225
-0.396305
-0.198882
-0.375463
-0.302485
-0.272711
-0.27559
-0.0906334
-0.0114118
-0.248227
-0.155085
-0.195381
-0.240028
-0.433015
-0.0630018
-0.125121
-0.298057
-0.392231
-0.160723
-0.357592
-0.223677
-0.261957
-0.302699
-0.064115
-0.0118466
-0.267579
-0.0891847
0.0173966
-0.0574267
-0.0481409
-0.0227516
-0.209271
-0.269605
-0.340265
0.0226334
-0.0575632
-0.0359657
-0.31679
-0.284617
-0.420824
-0.0804815
-0.217372
-0.238598
-0.0352485
-0.113914
-0.250321
-0.19996
-0.281348
-0.248358
-0.285403
-0.27451
-0.262527
-0.30581
-0.249428
-0.379706
-0.209809
-0.319494
-0.11193
-0.159295
-0.403052
-0.029789
-0.0186213
-0.103487
-0.312121
-0.175295
-0.29031
-0.0884324
-0.199371
-0.35314
-0.0339272
-0.319819
-0.00895276
-0.398907
-0.249937
-0.208951
-0.1049
-0.0693572
-0.245491
0.00381753
-0.239503
-0.054721
-0.251347
-0.110834
-0.26533
-0.24234
-0.291368
-0.0478998
-0.200652
0.0194038
-0.121824
-0.381898
-0.232072
-0.145753
-0.307382
-0.308097
-0.247304
-0.313972
-0.00450062
-0.250773
-0.266476
-0.078145
-0.31517
-0.0117205
0.0148404
-0.273441
0.0203263
0.00105494
-0.0516909
-0.03246
-0.169767
-0.351228
-0.316818
-0.26298
-0.0668445
-0.23889
-0.320128
0.00113072
-0.332719
-0.251207
-0.323244
-0.0250802
0.0250976
-0.334833
-0.0577995
-0.14623
-0.0118241
-0.192856
-0.09628
-0.263137
0.00502176
0.0169275
-0.118621
-0.312734
-0.0654322
-0.223243
-0.146281
-0.202178
-0.216126
-0.148543
-0.218516
-0.318315
-0.337778
-0.20996
-0.132846
-0.166839
-0.0375277
-0.33597
-0.217462
-0.121961
-0.331996
-0.0192371
-0.247371
-0.263606
-0.0200366
-0.0465819
-0.15731
0.0099055
-0.261187
-0.289653
-0.0902798
-0.166637
-0.165522
-0.251014
-0.286658
-0.141482
-0.117188
-0.284013
-0.272484
-0.166721
-0.393933
-0.311838
-0.0101339
0.0167994
0.0184919
-0.181232
0.0220401
0.0229981
-0.000769655
-0.44325
-0.154474
-0.154976
0.00883961
-0.297023
-0.242315
-0.356584
-0.313273
-0.338679
0.00277968
-0.237533
-0.226415
-0.0922829
-0.119008
-0.281063
-0.266327
0.0212761
0.004977
-0.0297018
-0.108534
-0.301446
-0.0901877
-0.135695
-0.299327
-0.196764
-0.375582
-0.328446
-0.175672
-0.226411
-0.257637
-0.00955016
-0.010087
-0.429223
-0.0489252
-0.268216
-0.267242
-0.229214
-0.0123668
-0.246779
-0.108426
-0.243966
-0.0260346
-0.285518
-0.242509
0.0160299
-0.423042
-0.396276
-0.264714
-0.302864
-0.445171
-0.414836
-0.295505
-0.448794
-0.217094
-0.424175
-0.361446
-0.225925
-0.316055
-0.29152
-0.249499
-0.391957
-0.400992
0.00234915
-0.043438
-0.279682
-0.360453
-0.0399157
-0.295985
-0.241882
0.0156224
-0.287222
0.0144526
-0.229916
-0.0436675
-0.180067
-0.283224
-0.366156
-0.166878
-0.16959
-0.218015
-0.284254
-0.281633
-0.3736
-0.301163
-0.231126
-0.419834
-0.383072
0.000513606
-0.251824
-0.115557
-0.0828434
-0.300651
-0.0635143
-0.0804727
-0.353255
-0.406141
-0.24741
-0.38208
-0.441274
-0.108173
-0.103808
-0.277471
-0.139058
-0.271489
0.0168104
-0.000468046
-0.249379
-0.280128
0.00725369
-0.0374883
-0.151951
-0.145927
-0.290265
0.0189718
-0.159438
-0.429677
-0.0237362
-0.0559623
-0.00889539
-0.176204
-0.324228
-0.232989
-0.101474
-0.149386
-0.450725
0.0282545
-0.248601
-0.274522
-0.201554
-0.0311734
0.0117431
0.0183035
-0.136258
-0.184226
-0.0726531
-0.033227
-0.0161349
-0.116924
-0.065741
-0.267028
-0.260321
-0.151045
-0.337652
-0.269102
-0.400385
-0.251674
-0.0796884
-0.391816
-0.188458
-0.23683
-0.0558733
0.0168407
-0.240261
-0.365855
-0.409337
-0.0813635
-0.308207
-0.309529
-0.415158
-0.0159909
-0.174795
-0.165844
-0.361755
-0.161134
-0.310542
-0.275123
-0.0900945
-0.0841799
-0.00870791
0.020404
-0.29148
-0.0286386
-0.431103
-0.0212287
-0.00738601
-0.00909545
-0.0725776
-0.313238
-0.311274
-0.271695
-0.423166
-0.162392
-0.423148
-0.12955
-0.355407
-0.0387561
-0.29667
-0.412989
-0.0464101
-0.0726838
-0.229932
-0.227427
-0.117332
-0.0117077
-0.176377
-0.205284
-0.422018
-0.0575485
-0.14629
0.00490074
-0.441976
-0.225511
-0.0223025
-0.102639
0.00948316
-0.0954758
-0.27727
-0.457919
-0.430069
-0.228933
-0.406005
0.00202612
-0.413483
-0.217564
-0.227892
-0.344619
-0.0592019
-0.445587
-0.020811
-0.0981119
-0.160295
-0.314284
-0.108512
-0.24055
-0.201299
-0.23186
-0.225689
-0.285681
-0.300837
-0.0787361
-0.309689
0.0216911
-0.30306
-0.170203
-0.127226
-0.0812517
-0.00202241
-0.283834
-0.251512
-0.288264
-0.188128
-0.310342
-0.00273074
-0.31132
-0.196675
-0.296344
-0.052479
-0.324693
-0.179186
-0.378902
0.0189516
-0.427295
-0.310481
-0.212995
-0.0442569
-0.407867
-0.407257
-0.322158
-0.380932
-0.0107442
-0.199469
-0.103867
-0.0442061
-0.119467
-0.153629
0.0174581
-0.158742
-0.0750463
-0.132037
-0.157833
-0.395991
-0.156674
-0.23406
-0.228822
-0.146354
-0.259981
-0.385053
-0.195588
-0.2002
-0.325974
-0.0593488
-0.174353
-0.0949121
-0.239363
0.000573708
-0.22485
-0.18876
-0.128067
-0.38356
-0.31705
-0.296044
-0.168513
-0.168929
-0.144234
-0.0148751
-0.0831697
-0.0677148
-0.190279
-0.0288305
0.00322065
-5.32992e-05
-0.140622
-0.170058
-0.147746
-0.341057
0.00968665
-0.0369603
-0.0526269
-0.217981
-0.314055
-0.390803
-0.149559
-0.104964
-0.260959
-0.0528672
-0.0352801
-0.150181
-0.253824
-0.144855
-0.240266
-0.243706
-0.214932
-0.240833
-0.164585
-0.417925
-0.162029
-0.179837
-0.248877
-0.438295
-0.166711
-0.201949
-0.11639
-0.274147
-0.174671
-0.0163119
-0.00449611
-0.161094
-0.229249
-0.0650857
-0.198088
-0.311916
-0.325817
-0.257771
-0.385085
-0.0147294
-0.206074
-0.183871
-0.0991188
-0.113907
-0.114011
-0.263109
0.0195139
-0.110723
-0.32728
-0.210504
-0.210158
-0.0662242
-0.0237206
-0.109185
-0.153324
-0.400812
-0.337091
-0.246622
-0.152715
-0.199002
-0.159388
-0.319447
-0.00821971
-0.136604
-0.0603796
-0.0329455
-0.177332
-0.267722
-0.163867
0.0113162
-0.304927
-0.413793
-0.16498
0.017151
-0.285408
-0.257028
-0.0766953
-0.105133
-0.0491555
-0.221783
-0.404863
-0.154857
-0.391411
-0.279953
-0.0523893
-0.230326
-0.336
-0.269563
-0.291948
-0.140226
-0.241914
-0.242854
-0.0244477
-0.332493
0.0176818
-0.0523763
-0.355153
-0.453653
-0.198042
-0.0880225
-0.0362001
-0.223112
-0.24607
-0.241133
-0.267743
-0.211364
0.0221891
-0.0213182
-0.0987965
-0.217848
-0.386376
-0.0136592
0.020759
-0.00846562
-0.0661162
-0.0237663
-0.171019
-0.386301
-0.426546
-0.414017
-0.00251987
-0.205167
-0.248694
-0.217286
0.018876
-0.288287
-0.254497
-0.371917
-0.221408
-0.328996
0.0176686
-0.152345
-0.0874386
-0.0270367
-0.0341763
-0.259411
-0.134715
-0.182733
-0.0898102
-0.314647
-0.143595
-0.293953
-0.00543274
-0.275846
-0.312395
-0.251385
-0.254575
-0.0179881
-0.292043
-0.0548655
-0.0271392
-0.0235722
-0.358665
-0.188774
-0.247295
-0.238595
-0.0114548
-0.179543
-0.147744
-0.157256
-0.33713
-0.214317
-0.00853215
-0.12851
-0.00700464
-0.421474
-0.314225
-0.282927
0.000688801
-0.23439
-0.198782
-0.361029
-0.259298
-0.208571
-0.0023949
-0.191842
-0.241119
-0.370199
0.0159979
0.0117736
-0.339768
-0.0108177
-0.289403
-0.357371
-0.30839
-0.205499
-0.402442
-0.120997
-0.22759
-0.298343
-0.246314
-0.0260512
-0.21889
-0.0549983
-0.221133
-0.321704
-0.237736
-0.422745
-0.402924
-0.233638
-0.203558
-0.144624
-0.338228
-0.231142
-0.0298446
-0.13525
-0.299592
-0.290303
-0.0240134
-0.216934
-0.204769
0.0259596
-0.159891
-0.305766
-0.214901
-0.252795
0.00672474
-0.23885
-0.226426
-0.143798
-0.400217
-0.0189935
-0.269609
-0.0270256
-0.187975
-0.0831024
-0.356372
-0.0573252
-0.239472
-0.358293
-0.32465
-0.188032
-0.0171398
-0.463833
-0.261332
-0.285381
0.00372999
0.0164125
-0.24644
-0.292288
-0.123615
0.0040421
-0.218595
-0.0124126
-0.0376216
-0.0555438
-0.0792721
-0.173428
-0.0950071
-0.107249
-0.00752494
-0.195819
-0.175212
-0.245864
-0.246148
-0.189081
-0.29782
0.00471634
-0.260297
-0.0139213
-0.20565
-0.000220966
-0.31858
0.012219
-0.0870247
-0.0271117
0.00200626
-0.0183543
0.0238611
-0.262844
-0.0301255
-0.180815
-0.289043
-0.261821
-0.335812
-0.00696102
-0.259288
-0.148901
-0.140651
-0.247137
-0.134601
-0.323684
-0.00525902
-0.197487
-0.0641306
-0.43447
-0.286414
-0.283021
0.02296
-0.239108
-0.123628
-0.243568
-0.278999
-0.33943
-0.239827
-0.29973
-0.0615558
-0.00377654
-0.376724
-0.155995
-0.281968
-0.311591
-0.048151
-0.247276
-0.245404
0.00723469
-0.407005
-0.150029
-0.103134
-0.0249333
0.0159998
-0.241392
-0.281855
-0.373951
-0.233621
-0.239503
-0.28339
-0.0692939
-0.289949
-0.358505
-0.243536
-0.186737
-0.254675
-0.230935
-0.287668
-0.194341
-0.370036
-0.0722895
-0.084486
-0.223726
-0.067414
-0.276492
-0.407724
-0.24316
-0.424517
0.0088295
-0.27742
-0.295276
-0.318701
-0.0332735
-0.00935434
-0.181127
-0.0688124
-0.232872
-0.336888
-0.173474
-0.289917
-0.264767
-0.00894772
-0.14631
-0.097175
0.00899873
-0.0620694
-0.172079
0.00176444
-0.377577
-0.17811
-0.182965
-0.14386
-0.19444
-0.00175928
-0.293314
-0.14818
-0.215801
-0.248607
-0.301129
-0.275747
-0.0861584
-0.0452661
-0.029016
-0.175009
-0.168531
0.0020742
-0.0528219
-0.236205
-0.142714
-0.358205
-0.264444
-0.0592301
-0.38052
-0.0333216
-0.296008
-0.0231922
0.0192571
-0.00518953
-0.306839
-0.0287727
-0.0360193
-0.29269
0.000747474
-0.225673
-0.00075035
-0.0626722
-0.280032
-0.369024
-0.136132
-0.260108
-0.198851
-0.238644
-0.0486219
-0.221555
0.00300589
-0.321465
-0.250162
-0.240042
-0.315972
-0.296348
-0.0438987
0.0155342
-0.32681
-0.0625122
-0.199767
-0.147988
-0.21814
-0.121264
-0.014291
-0.0572869
-0.291699
-0.0208683
-0.0492914
0.0147351
-0.320288
-0.305642
-0.242189
-0.072354
0.00612852
-0.0426577
-0.22402
0.0112336
-0.195899
-0.367769
-0.368388
-0.458967
-0.184776
-0.352779
0.0142597
0.0179
-0.170045
0.0255878
-0.0554999
-0.185643
0.00874258
-0.360887
-0.00264023
-0.265452
-0.00862373
-0.251242
-0.308673
-0.0757393
-0.173908
-0.001555
-0.0138653
-0.0109917
-0.284911
-0.285136
-0.389406
-0.0275714
-0.0601995
-0.245387
-0.165776
-0.0581712
-0.426122
-0.297627
-0.29679
-0.272981
-0.153057
-0.278709
-0.182457
-0.0706752
-0.19222
-0.174534
-0.0815175
-0.265408
-0.222559
-0.154447
-0.191371
-0.266174
-0.030159
-0.000520148
-0.245774
-0.0622207
-0.43533
-0.291471
-0.0233779
-0.0723203
-0.296222
-0.00884249
-0.346745
-0.0847739
-0.218521
-0.198874
-0.023132
-0.248553
-0.072155
-0.0703339
-0.107952
0.0244024
-0.104309
-0.377371
-0.139529
-0.179544
-0.0725749
0.0205904
-0.107987
-0.191116
-0.26442
-0.19627
-0.0218609
-0.343947
-0.0347595
-0.275603
-0.132363
-0.0616667
-0.0823811
-0.205178
-0.0255175
0.0106191
-0.22655
-0.258825
-0.179049
-0.292276
-0.373003
-0.177809
-0.0714576
-0.339787
-0.378181
-0.23901
-0.362352
-0.0894196
-0.194191
-0.068389
-0.254083
-0.00903548
-0.192348
-0.0350183
0.0141634
-0.316591
-0.0173415
-0.218469
-0.17829
-0.161481
-0.0262472
-0.247259
-0.230718
-0.157447
-0.304555
-0.253905
-0.317139
-0.341096
-0.433892
0.0105946
0.0203586
-0.351706
-0.245134
-0.078763
-0.386244
-0.24704
-0.28205
-0.100132
-0.0832395
-0.399538
-0.440937
-0.0141826
-0.240508
-0.144432
-0.244591
-0.378842
-0.367294
-0.131023
-0.0365825
-0.14164
-0.405982
-0.00771173
-0.0394285
-0.301625
-0.152176
-0.291386
0.0156194
-0.271571
-0.20939
-0.350037
-0.116806
0.00209924
-0.142554
-0.136882
-0.273304
-0.189879
-0.132741
0.00830408
0.0221118
-0.248756
0.0123422
-0.266635
-0.169114
-0.16886
-0.23585
-0.265425
-0.0277422
-0.194622
-0.161174
-0.274876
-0.324584
-0.187768
-0.305614
-0.101992
-0.00775177
-0.304105
-0.2755
-0.175517
-0.260573
-0.229015
-0.422479
-0.240308
-0.0243791
-0.305475
-0.29964
-0.074343
-0.177937
-0.216406
-0.121515
-0.0400681
-0.254928
-0.244204
-0.0466946
-0.234907
-0.252014
-0.180312
-0.0278436
-0.124477
-0.167406
-0.240749
-0.335468
-0.255366
0.0106425
-0.043119
0.0180545
-0.219383
-0.106829
-0.336971
-0.200683
-0.0366254
-0.378976
-0.388166
-0.0841037
-0.0395198
-0.387957
-0.248036
-0.235902
-0.255224
-0.23926
0.0218469
-0.206302
-0.250079
-0.136866
-0.263436
-0.0800999
-0.128099
-0.350005
-0.234248
-0.0578911
-0.19608
0.0121856
-0.372536
-0.299225
-0.1089
-0.137923
-0.233362
-0.148705
-0.299592
0.0153887
-0.00184516
-0.106532
-0.0225401
-0.312178
-0.0272655
-0.12285
-0.104591
0.00332969
-0.383951
-0.26097
0.0195522
-0.119574
-0.401043
-0.295369
-0.0391138
0.0162316
-0.204843
-0.0773706
-0.242253
-0.360093
-0.281631
-0.394463
-0.0359843
-0.28581
-0.196835
0.00338472
-0.328375
-0.250872
-0.263458
-0.164131
-0.239993
-0.29906
-0.266422
-0.348986
-0.188486
-0.058652
0.00107682
-0.0817249
-0.216235
-0.269827
-0.406351
-0.293281
-0.138991
-0.152669
-0.0894635
-0.0743724
-0.269913
-0.22174
-0.0437992
-0.0366776
0.0178061
-0.021574
0.00532816
-0.200078
-0.357913
-0.291826
-0.321436
0.00864014
-0.176023
-0.270902
0.00230989
-0.352997
-0.0553686
-0.0824482
-0.23994
-0.238247
-0.259462
-0.323072
-0.039387
-0.258529
-0.0992536
-0.20814
-0.00143101
-0.157685
0.023591
-0.310501
-0.208101
-0.312103
-0.439935
-0.252359
-0.0620477
-0.258847
-0.351773
-0.167526
-0.00812739
-0.0724274
-0.311933
-0.353419
-0.276754
-0.364129
-0.236912
-0.378325
-0.238714
-0.325347
-0.0821937
-0.354577
-0.245965
-0.0146047
-0.177606
-0.0982836
-0.046092
-0.243063
-0.195995
-0.287755
-0.0556078
-0.257969
-0.224401
-0.203891
-0.339349
-0.385455
-0.252489
-0.230949
-0.0751502
0.0175698
-0.0315715
-0.16671
-0.0938531
-0.387881
0.0122801
-0.13876
-0.0671903
-0.23135
-0.0857003
-0.293537
-0.253071
-0.0574193
-0.00112241
-0.064637
-0.162173
-0.283705
0.0218453
-0.217169
-0.0461782
0.00817481
-0.108821
-0.234905
-0.388379
-0.047369
-0.133832
-0.340498
-0.123333
-0.14659
-0.00374723
-0.283636
0.00437285
0.0192885
-0.243859
-0.306677
0.00680145
-0.343161
-0.331672
-0.246595
-0.326565
-0.243735
-0.322473
-0.367596
-0.212267
-0.238119
-0.279588
-0.294062
-0.154251
-0.320211
-0.30413
-0.128136
-0.197076
-0.390482
-0.0105335
0.0170476
0.00674419
-0.249614
-0.406942
0.0267705
-0.353229
-0.215995
-0.24091
-0.28664
-0.229683
-0.0853567
-0.283037
-0.303217
-0.379687
-0.376139
-0.344401
-0.294892
-0.413658
-0.209673
-0.175215
-0.219669
-0.00174529
-0.172787
-0.101271
-0.209131
-0.0421748
-0.277784
-0.283009
0.0263227
-0.226864
-0.137336
-0.354426
-0.108976
0.015937
-0.250709
-0.123919
-0.140245
-0.294374
-0.249539
-0.335464
-0.308086
-0.0789219
-0.32672
-0.224741
-0.301824
-0.242369
-0.277524
-0.33199
-0.213962
-0.263309
-0.318152
0.0147428
-0.217595
-0.220571
-0.16424
-0.00513456
-0.275771
-0.372359
-0.0524686
-0.340691
-0.252062
-0.237637
-0.172003
-0.299741
-0.193337
-0.168233
0.015321
-0.0330153
-0.362119
-0.311175
-0.385421
-0.240905
-0.402304
-0.303904
-0.229479
-0.302855
-0.226772
-0.131601
0.0245868
-0.268454
-0.089805
-0.177917
0.0101022
-0.299285
0.0183369
-0.139959
-0.353494
-0.128691
-0.080609
-0.284106
-0.032137
-0.236918
-0.0265797
-0.302069
-0.350553
-0.223465
0.0228637
0.0190992
-0.0784678
-0.120658
-0.0897212
-0.406571
-0.309425
-0.0827327
0.0244417
-0.331008
-0.185524
-0.233331
-0.281023
-0.238612
-0.271616
-0.327143
-0.281201
-0.320387
-0.244193
-0.269709
-0.227384
0.0231694
-0.0371602
-0.408831
-0.0618984
-0.289847
-0.34818
-0.0514678
-0.323936
-0.254446
-0.0977082
-0.310707
-0.294149
-0.207915
-0.0312713
-0.335933
-0.296068
-0.268725
-0.136925
-0.320609
-0.00241754
-0.398149
-0.296779
-0.267183
-0.313033
-0.114658
-0.134725
-0.00363639
-0.244988
-0.0621386
-0.172645
-0.139563
-0.254188
-0.110955
-0.340267
-0.33168
-0.436767
-0.129014
-0.225118
-0.268819
-0.0163427
-0.197161
-0.132565
-0.116532
-0.294221
-0.318951
-0.277158
-0.139624
-0.244789
0.0240027
-0.355304
-0.401889
-0.232651
-0.301417
-0.246321
-0.232155
-0.0818251
-0.255672
-0.215654
-0.335021
-0.233234
-0.219121
-0.270351
0.0182304
0.00636675
-0.323377
-0.280908
-0.0367787
-0.153296
-0.270687
-0.347634
-0.254872
-0.348953
-0.177309
-0.0116606