/*--------------------------------*- C++ -*----------------------------------*\
  =========                 |
  \\      /  F ield         | OpenFOAM: The Open Source CFD Toolbox
   \\    /   O peration     | Website:  https://openfoam.org
    \\  /    A nd           | Version:  6
     \\/     M anipulation  |
\*---------------------------------------------------------------------------*/
FoamFile
{
    version     2.0;
    format      ascii;
    class       volScalarField;
    location    "./ITHACAoutput/Offline/1";
    object      prghRec;
}
// * * * * * * * * * * * * * * * * * * * * * * * * * * * * * * * * * * * * * //

dimensions      [0 2 -2 0 0 0 0];

internalField   nonuniform List<scalar> 
115600
(
0.00197343
0.00194281
0.00192784
0.00192327
0.00192003
0.00191323
0.00190428
0.00189423
0.00188369
0.00187302
0.0018624
0.00185194
0.00184168
0.00183167
0.00182191
0.00181237
0.00180306
0.00179394
0.00178507
0.0017764
0.00176792
0.00175962
0.00175151
0.00174355
0.00173576
0.0017281
0.0017206
0.00171319
0.00170589
0.00169868
0.00169154
0.00168443
0.00167735
0.00167029
0.00166322
0.00165606
0.00164876
0.00164131
0.00163363
0.00162565
0.00161731
0.00160853
0.00159919
0.00158916
0.00157831
0.00156645
0.00155334
0.00153874
0.00152225
0.00150348
0.00148166
0.00145646
0.00142514
0.00139065
0.00133278
0.00128862
0.00192642
0.00194187
0.00192759
0.00192312
0.00191994
0.00191318
0.00190426
0.00189423
0.0018837
0.00187304
0.00186242
0.00185197
0.00184171
0.00183171
0.00182192
0.00181238
0.00180306
0.00179397
0.00178509
0.00177642
0.00176794
0.00175964
0.00175152
0.00174356
0.00173577
0.00172812
0.00172059
0.00171319
0.00170589
0.00169868
0.00169154
0.00168443
0.00167735
0.00167029
0.00166321
0.00165605
0.00164875
0.00164131
0.00163363
0.00162564
0.00161732
0.00160851
0.00159918
0.00158915
0.00157829
0.00156642
0.00155334
0.00153871
0.00152221
0.00150344
0.00148162
0.00145643
0.00142508
0.00139058
0.00133273
0.00128965
0.00188522
0.00194081
0.00192705
0.00192276
0.00191968
0.00191297
0.00190411
0.00189412
0.00188363
0.001873
0.0018624
0.00185195
0.00184171
0.00183171
0.00182193
0.00181238
0.00180308
0.00179398
0.00178511
0.00177643
0.00176795
0.00175966
0.00175154
0.00174358
0.00173578
0.00172813
0.0017206
0.0017132
0.0017059
0.00169869
0.00169154
0.00168444
0.00167735
0.00167029
0.00166321
0.00165604
0.00164877
0.0016413
0.00163362
0.00162565
0.00161731
0.0016085
0.00159917
0.00158913
0.0015783
0.00156643
0.00155331
0.0015387
0.0015222
0.00150343
0.00148158
0.0014564
0.00142504
0.00139055
0.00133292
0.00129172
0.001854
0.00193947
0.0019262
0.00192209
0.00191916
0.00191255
0.00190376
0.00189386
0.00188343
0.00187284
0.00186228
0.00185185
0.00184164
0.00183164
0.0018219
0.00181237
0.00180307
0.00179396
0.0017851
0.00177643
0.00176795
0.00175966
0.00175154
0.00174358
0.00173579
0.00172813
0.0017206
0.00171321
0.00170591
0.00169869
0.00169155
0.00168444
0.00167736
0.0016703
0.00166322
0.00165605
0.00164877
0.0016413
0.00163362
0.00162565
0.0016173
0.00160849
0.00159915
0.00158913
0.00157828
0.00156641
0.00155329
0.00153867
0.00152218
0.00150339
0.00148156
0.00145636
0.00142501
0.00139062
0.00133335
0.0012945
0.00182888
0.00193778
0.00192531
0.00192133
0.00191853
0.00191199
0.00190329
0.00189347
0.00188312
0.0018726
0.00186209
0.00185169
0.00184151
0.00183155
0.00182181
0.00181229
0.00180301
0.00179394
0.00178506
0.0017764
0.00176793
0.00175964
0.00175153
0.00174358
0.00173579
0.00172814
0.00172061
0.00171322
0.00170592
0.0016987
0.00169156
0.00168446
0.00167737
0.00167031
0.00166323
0.00165606
0.00164878
0.00164131
0.00163362
0.00162566
0.0016173
0.00160852
0.00159915
0.00158912
0.00157826
0.00156638
0.00155328
0.00153865
0.00152214
0.00150335
0.00148151
0.00145632
0.00142503
0.00139077
0.00133403
0.00129774
0.0018076
0.00193592
0.0019247
0.00192068
0.00191795
0.00191147
0.00190282
0.00189307
0.0018828
0.00187232
0.00186185
0.0018515
0.00184136
0.00183143
0.00182172
0.00181222
0.00180295
0.00179388
0.00178504
0.00177637
0.00176791
0.00175963
0.00175152
0.00174357
0.00173579
0.00172814
0.00172062
0.00171323
0.00170594
0.00169872
0.00169158
0.00168447
0.0016774
0.00167034
0.00166325
0.00165607
0.00164878
0.00164133
0.00163363
0.00162566
0.00161731
0.00160852
0.00159915
0.00158911
0.00157825
0.00156639
0.00155326
0.00153863
0.00152213
0.00150334
0.0014815
0.00145632
0.00142507
0.00139101
0.00133495
0.00130133
0.00178959
0.00193375
0.00192439
0.00192025
0.00191752
0.00191104
0.00190243
0.00189274
0.0018825
0.00187207
0.00186164
0.00185133
0.0018412
0.0018313
0.00182162
0.00181214
0.00180287
0.00179384
0.00178498
0.00177634
0.00176788
0.00175962
0.00175151
0.00174357
0.00173579
0.00172814
0.00172063
0.00171325
0.00170596
0.00169874
0.00169159
0.00168449
0.00167742
0.00167035
0.00166326
0.0016561
0.00164881
0.00164135
0.00163366
0.00162568
0.00161733
0.00160853
0.00159917
0.00158913
0.00157825
0.0015664
0.00155326
0.00153864
0.00152213
0.00150333
0.00148152
0.00145638
0.0014252
0.00139139
0.00133614
0.00130519
0.0017748
0.00193097
0.00192418
0.00191997
0.00191724
0.00191074
0.00190214
0.00189247
0.00188227
0.00187187
0.00186148
0.00185119
0.00184108
0.0018312
0.00182153
0.00181208
0.00180283
0.00179378
0.00178496
0.00177632
0.00176788
0.00175961
0.00175151
0.00174357
0.0017358
0.00172816
0.00172065
0.00171325
0.00170596
0.00169877
0.00169162
0.00168451
0.00167744
0.00167039
0.00166329
0.00165612
0.00164883
0.00164137
0.00163368
0.0016257
0.00161734
0.00160855
0.00159919
0.00158916
0.00157829
0.0015664
0.0015533
0.00153867
0.00152217
0.0015034
0.00148159
0.00145651
0.00142542
0.00139191
0.00133759
0.0013092
0.00176334
0.00192734
0.00192381
0.00191974
0.00191703
0.00191054
0.00190195
0.0018923
0.00188212
0.00187174
0.00186136
0.0018511
0.00184101
0.00183115
0.00182148
0.00181202
0.00180278
0.00179375
0.00178495
0.00177631
0.00176787
0.00175961
0.00175151
0.00174358
0.00173582
0.00172818
0.00172068
0.00171329
0.00170599
0.00169879
0.00169166
0.00168456
0.00167749
0.00167043
0.00166334
0.00165616
0.00164887
0.00164141
0.00163372
0.00162575
0.0016174
0.0016086
0.00159923
0.0015892
0.00157833
0.00156645
0.00155335
0.00153874
0.00152224
0.00150349
0.00148172
0.00145671
0.00142577
0.00139258
0.0013393
0.00131331
0.00175522
0.00192279
0.00192307
0.00191936
0.00191681
0.00191037
0.0019018
0.00189219
0.00188203
0.00187166
0.00186132
0.00185106
0.00184099
0.00183112
0.00182146
0.00181202
0.00180279
0.00179376
0.00178495
0.00177632
0.00176788
0.00175962
0.00175154
0.00174362
0.00173584
0.00172821
0.0017207
0.00171333
0.00170604
0.00169884
0.00169169
0.00168459
0.00167752
0.00167047
0.00166337
0.00165621
0.00164893
0.00164146
0.00163377
0.0016258
0.00161745
0.00160866
0.00159929
0.00158926
0.0015784
0.00156653
0.00155343
0.00153883
0.00152235
0.00150364
0.00148191
0.00145698
0.00142624
0.00139342
0.00134127
0.0013175
0.00175034
0.00191744
0.00192181
0.00191873
0.00191648
0.00191017
0.00190167
0.0018921
0.00188197
0.00187163
0.0018613
0.00185106
0.00184099
0.00183115
0.00182149
0.00181205
0.00180283
0.00179381
0.00178499
0.00177636
0.00176793
0.00175967
0.00175158
0.00174365
0.00173589
0.00172826
0.00172077
0.00171338
0.00170609
0.00169889
0.00169176
0.00168466
0.00167759
0.00167053
0.00166344
0.00165628
0.00164899
0.00164152
0.00163384
0.00162587
0.00161752
0.00160874
0.00159938
0.00158936
0.00157849
0.00156663
0.00155354
0.00153897
0.00152252
0.00150383
0.00148219
0.00145736
0.00142681
0.0013944
0.00134348
0.00132176
0.00174847
0.00191153
0.00192
0.00191777
0.00191593
0.00190987
0.00190149
0.00189201
0.00188194
0.00187165
0.00186132
0.0018511
0.00184106
0.0018312
0.00182154
0.00181211
0.00180289
0.00179387
0.00178505
0.00177643
0.00176799
0.00175974
0.00175166
0.00174374
0.00173595
0.00172832
0.00172083
0.00171344
0.00170615
0.00169896
0.00169183
0.00168473
0.00167768
0.00167061
0.00166352
0.00165636
0.00164907
0.00164161
0.00163392
0.00162596
0.00161762
0.00160881
0.00159947
0.00158946
0.00157861
0.00156678
0.00155371
0.00153913
0.00152274
0.0015041
0.00148252
0.00145782
0.00142754
0.00139556
0.00134594
0.00132602
0.00174924
0.00190534
0.00191769
0.00191647
0.00191511
0.00190939
0.00190122
0.00189187
0.00188189
0.00187165
0.00186137
0.00185117
0.00184113
0.00183128
0.00182163
0.00181221
0.00180299
0.00179397
0.00178515
0.00177653
0.00176809
0.00175984
0.00175175
0.00174383
0.00173605
0.00172842
0.00172092
0.00171354
0.00170625
0.00169906
0.00169192
0.00168483
0.00167776
0.0016707
0.00166361
0.00165645
0.00164917
0.00164171
0.00163403
0.00162606
0.00161773
0.00160893
0.0015996
0.00158959
0.00157878
0.00156693
0.00155388
0.00153936
0.001523
0.00150442
0.00148294
0.00145839
0.00142839
0.00139689
0.00134863
0.00133033
0.00175221
0.00189918
0.00191503
0.00191485
0.00191402
0.0019087
0.00190081
0.00189165
0.00188179
0.00187164
0.00186141
0.00185125
0.00184123
0.00183139
0.00182176
0.00181233
0.00180312
0.0017941
0.00178528
0.00177665
0.00176822
0.00175996
0.00175186
0.00174393
0.00173617
0.00172854
0.00172104
0.00171365
0.00170637
0.00169916
0.00169203
0.00168494
0.00167787
0.00167081
0.00166373
0.00165656
0.00164929
0.00164183
0.00163415
0.00162618
0.00161786
0.00160908
0.00159976
0.00158976
0.00157895
0.00156715
0.00155413
0.00153962
0.00152331
0.00150483
0.00148345
0.00145906
0.00142939
0.00139837
0.00135156
0.00133466
0.00175699
0.00189336
0.00191216
0.00191308
0.00191273
0.00190782
0.00190023
0.00189132
0.00188163
0.00187159
0.00186143
0.00185132
0.00184134
0.00183152
0.00182189
0.00181247
0.00180325
0.00179424
0.00178544
0.00177681
0.00176836
0.0017601
0.00175202
0.00174409
0.00173631
0.00172867
0.00172117
0.00171378
0.0017065
0.0016993
0.00169217
0.00168508
0.00167801
0.00167095
0.00166386
0.0016567
0.00164942
0.00164196
0.0016343
0.00162634
0.00161801
0.00160925
0.00159994
0.00158996
0.00157916
0.00156739
0.00155439
0.00153996
0.0015237
0.00150529
0.00148406
0.00145984
0.00143054
0.00140004
0.00135471
0.00133903
0.00176317
0.00188807
0.00190923
0.00191119
0.00191129
0.00190677
0.00189951
0.00189083
0.00188134
0.00187145
0.00186141
0.00185137
0.00184143
0.00183163
0.00182204
0.00181264
0.00180344
0.00179443
0.00178561
0.00177698
0.00176854
0.00176027
0.00175218
0.00174425
0.00173647
0.00172883
0.00172132
0.00171395
0.00170667
0.00169947
0.00169233
0.00168524
0.00167817
0.0016711
0.00166402
0.00165686
0.00164958
0.00164213
0.00163446
0.0016265
0.0016182
0.00160944
0.00160015
0.00159019
0.00157941
0.00156767
0.00155472
0.00154033
0.00152415
0.00150583
0.00148475
0.00146077
0.00143185
0.00140189
0.00135812
0.00134344
0.00177016
0.00188347
0.00190633
0.00190926
0.00190977
0.00190562
0.00189865
0.00189021
0.00188092
0.00187118
0.00186127
0.00185133
0.00184146
0.00183173
0.00182218
0.00181279
0.00180361
0.00179461
0.0017858
0.00177717
0.00176874
0.00176046
0.00175237
0.00174445
0.00173666
0.00172902
0.00172151
0.00171413
0.00170685
0.00169965
0.00169251
0.00168541
0.00167833
0.00167129
0.0016642
0.00165705
0.00164975
0.00164232
0.00163465
0.00162671
0.00161841
0.00160967
0.00160039
0.00159045
0.00157971
0.001568
0.00155509
0.00154076
0.00152466
0.00150647
0.00148556
0.00146179
0.00143332
0.00140393
0.00136175
0.00134792
0.00177728
0.00187957
0.00190348
0.00190732
0.00190819
0.00190439
0.0018977
0.00188951
0.00188042
0.00187083
0.00186104
0.00185119
0.00184143
0.00183176
0.00182226
0.00181292
0.00180375
0.00179478
0.00178599
0.00177737
0.00176893
0.00176067
0.00175259
0.00174466
0.00173686
0.00172923
0.00172172
0.00171433
0.00170703
0.00169984
0.00169269
0.0016856
0.00167854
0.00167148
0.0016644
0.00165725
0.00164997
0.00164253
0.00163487
0.00162695
0.00161865
0.00160993
0.00160066
0.00159076
0.00158005
0.00156838
0.00155552
0.00154126
0.00152526
0.00150717
0.00148645
0.00146297
0.00143497
0.00140617
0.00136561
0.00135247
0.00178402
0.00187629
0.00190072
0.00190536
0.00190658
0.00190309
0.00189669
0.00188871
0.00187981
0.00187038
0.00186073
0.00185098
0.00184129
0.00183171
0.00182226
0.00181296
0.00180384
0.00179491
0.00178614
0.00177755
0.00176912
0.00176088
0.00175279
0.00174486
0.00173709
0.00172945
0.00172195
0.00171456
0.00170727
0.00170006
0.00169292
0.00168583
0.00167875
0.00167171
0.00166462
0.00165747
0.00165019
0.00164278
0.00163512
0.0016272
0.00161893
0.00161022
0.00160098
0.00159108
0.00158043
0.0015688
0.00155601
0.00154183
0.00152593
0.00150799
0.00148748
0.00146427
0.00143679
0.0014086
0.0013697
0.00135713
0.00179028
0.0018735
0.0018981
0.00190341
0.00190493
0.00190174
0.0018956
0.00188785
0.00187914
0.00186986
0.00186032
0.0018507
0.00184107
0.00183156
0.00182217
0.00181295
0.00180386
0.00179497
0.00178623
0.00177767
0.00176928
0.00176105
0.00175298
0.00174506
0.0017373
0.00172966
0.00172216
0.00171477
0.00170748
0.00170029
0.00169315
0.00168606
0.00167899
0.00167195
0.00166486
0.00165772
0.00165045
0.00164302
0.00163539
0.00162748
0.00161922
0.00161054
0.00160131
0.00159146
0.00158084
0.00156926
0.00155655
0.00154246
0.00152667
0.00150891
0.0014886
0.00146574
0.0014388
0.00141127
0.00137403
0.00136188
0.0017961
0.00187115
0.00189561
0.00190149
0.00190327
0.00190036
0.00189449
0.00188695
0.00187839
0.00186927
0.00185986
0.00185031
0.00184079
0.00183134
0.00182201
0.00181284
0.00180381
0.00179493
0.00178624
0.00177771
0.00176935
0.00176115
0.00175311
0.00174523
0.00173747
0.00172984
0.00172236
0.00171498
0.00170771
0.0017005
0.00169337
0.0016863
0.00167923
0.00167218
0.00166511
0.00165796
0.0016507
0.00164329
0.00163567
0.00162777
0.00161955
0.00161088
0.0016017
0.00159188
0.0015813
0.00156979
0.00155714
0.00154316
0.0015275
0.00150991
0.00148989
0.00146734
0.00144099
0.00141414
0.0013786
0.0013668
0.00180161
0.00186914
0.0018933
0.00189963
0.00190163
0.00189898
0.00189335
0.00188602
0.00187764
0.00186865
0.00185935
0.00184991
0.00184046
0.00183106
0.00182179
0.00181265
0.00180367
0.00179484
0.00178618
0.00177768
0.00176935
0.00176118
0.00175316
0.0017453
0.00173757
0.00172997
0.00172249
0.00171514
0.00170789
0.0017007
0.00169358
0.0016865
0.00167947
0.00167242
0.00166535
0.00165822
0.00165098
0.00164359
0.00163597
0.00162809
0.00161988
0.00161124
0.00160209
0.00159232
0.0015818
0.00157037
0.00155782
0.00154392
0.00152842
0.00151103
0.00149126
0.00146911
0.00144338
0.00141725
0.0013834
0.00137186
0.00180685
0.0018675
0.00189118
0.00189785
0.00190006
0.00189764
0.00189224
0.0018851
0.00187688
0.00186803
0.00185882
0.00184947
0.00184009
0.00183075
0.00182153
0.00181244
0.00180349
0.0017947
0.00178607
0.00177759
0.00176928
0.00176114
0.00175314
0.00174529
0.00173759
0.00173003
0.00172257
0.00171525
0.00170799
0.00170083
0.00169374
0.00168668
0.00167965
0.00167264
0.00166557
0.00165845
0.00165123
0.00164386
0.00163627
0.00162842
0.00162023
0.00161162
0.00160251
0.0015928
0.00158233
0.00157097
0.00155852
0.00154475
0.00152942
0.00151225
0.00149279
0.00147105
0.00144596
0.00142057
0.00138844
0.0013771
0.00181186
0.00186614
0.00188923
0.00189618
0.00189852
0.00189633
0.00189115
0.0018842
0.00187615
0.00186741
0.00185832
0.00184904
0.00183972
0.00183045
0.00182126
0.00181219
0.00180328
0.0017945
0.0017859
0.00177746
0.00176918
0.00176104
0.00175307
0.00174526
0.00173756
0.00173002
0.00172259
0.00171527
0.00170805
0.00170091
0.00169382
0.00168679
0.00167979
0.00167278
0.00166576
0.00165865
0.00165145
0.00164409
0.00163654
0.00162871
0.00162056
0.00161201
0.00160295
0.00159328
0.00158289
0.00157162
0.00155927
0.00154565
0.00153049
0.00151356
0.00149444
0.00147313
0.00144874
0.00142415
0.00139367
0.00138254
0.00181664
0.00186508
0.00188747
0.00189462
0.00189707
0.00189508
0.0018901
0.00188333
0.00187543
0.00186682
0.00185782
0.00184864
0.00183938
0.00183014
0.00182101
0.00181196
0.00180307
0.00179432
0.00178573
0.00177731
0.00176904
0.00176093
0.00175297
0.00174517
0.0017375
0.00172995
0.00172255
0.00171525
0.00170805
0.00170093
0.00169386
0.00168685
0.00167986
0.00167288
0.00166587
0.00165881
0.00165163
0.0016443
0.00163676
0.00162898
0.00162088
0.00161238
0.00160337
0.00159377
0.00158346
0.00157229
0.00156006
0.0015466
0.00153164
0.00151496
0.0014962
0.00147537
0.00145172
0.00142791
0.00139913
0.0013882
0.00182118
0.00186428
0.00188586
0.00189313
0.00189568
0.00189387
0.0018891
0.00188251
0.00187474
0.00186627
0.00185736
0.00184825
0.00183905
0.00182987
0.00182075
0.00181176
0.00180287
0.00179415
0.00178558
0.00177716
0.0017689
0.0017608
0.00175285
0.00174505
0.00173741
0.00172988
0.0017225
0.00171519
0.00170801
0.0017009
0.00169386
0.00168687
0.0016799
0.00167294
0.00166595
0.0016589
0.00165176
0.00164446
0.00163696
0.00162922
0.00162116
0.0016127
0.00160377
0.00159425
0.00158403
0.00157296
0.00156087
0.00154757
0.00153284
0.00151644
0.00149807
0.00147774
0.00145484
0.0014319
0.00140478
0.00139409
0.00182548
0.00186372
0.00188441
0.00189174
0.00189436
0.00189272
0.00188813
0.00188172
0.00187411
0.00186574
0.00185695
0.0018479
0.00183875
0.00182962
0.00182053
0.00181157
0.00180271
0.001794
0.00178543
0.00177702
0.00176877
0.00176068
0.00175274
0.00174495
0.0017373
0.0017298
0.0017224
0.00171514
0.00170796
0.00170085
0.00169384
0.00168686
0.0016799
0.00167297
0.001666
0.00165898
0.00165185
0.00164459
0.00163713
0.00162943
0.00162141
0.00161302
0.00160415
0.00159472
0.00158459
0.00157364
0.00156169
0.00154859
0.00153409
0.00151801
0.00150002
0.00148024
0.00145813
0.0014361
0.0014106
0.0014002
0.00182959
0.00186335
0.0018831
0.00189044
0.00189309
0.0018916
0.00188721
0.00188096
0.00187349
0.00186524
0.00185654
0.00184758
0.0018385
0.00182939
0.00182035
0.00181139
0.00180255
0.00179386
0.00178531
0.00177692
0.00176867
0.00176058
0.00175266
0.00174486
0.00173722
0.00172972
0.00172233
0.00171506
0.0017079
0.00170081
0.00169379
0.00168683
0.0016799
0.00167297
0.00166603
0.00165904
0.00165192
0.00164468
0.00163728
0.00162961
0.00162165
0.00161332
0.00160452
0.00159518
0.00158515
0.00157432
0.00156255
0.00154963
0.00153538
0.00151962
0.00150209
0.00148287
0.00146157
0.00144047
0.00141659
0.00140655
0.00183349
0.00186318
0.00188191
0.00188922
0.00189187
0.00189052
0.00188631
0.00188022
0.0018729
0.00186477
0.00185616
0.00184728
0.00183825
0.0018292
0.00182019
0.00181127
0.00180244
0.00179376
0.00178522
0.00177683
0.00176859
0.00176051
0.00175258
0.00174481
0.00173718
0.00172966
0.00172229
0.00171501
0.00170785
0.00170078
0.00169377
0.00168681
0.0016799
0.00167298
0.00166605
0.00165907
0.001652
0.0016448
0.00163741
0.0016298
0.00162189
0.00161362
0.0016049
0.00159563
0.00158573
0.00157503
0.00156342
0.00155071
0.00153673
0.00152133
0.00150424
0.00148563
0.00146517
0.00144503
0.00142272
0.00141311
0.0018372
0.0018632
0.00188085
0.00188806
0.0018907
0.00188949
0.00188545
0.00187953
0.00187235
0.00186435
0.00185582
0.00184701
0.00183805
0.00182905
0.00182006
0.00181117
0.00180235
0.00179369
0.00178517
0.00177677
0.00176853
0.00176046
0.00175254
0.00174476
0.00173713
0.00172962
0.00172225
0.00171498
0.00170783
0.00170077
0.00169375
0.00168682
0.00167989
0.00167301
0.0016661
0.00165913
0.00165209
0.0016449
0.00163756
0.00162998
0.00162213
0.00161393
0.00160529
0.00159612
0.00158632
0.00157577
0.00156433
0.00155186
0.00153817
0.00152311
0.00150651
0.00148853
0.00146893
0.00144975
0.001429
0.00141991
0.00184073
0.00186336
0.00187992
0.00188697
0.00188959
0.0018885
0.00188462
0.00187885
0.00187181
0.00186393
0.00185551
0.00184677
0.00183786
0.0018289
0.00181995
0.00181107
0.0018023
0.00179363
0.00178511
0.00177673
0.00176851
0.00176043
0.00175251
0.00174474
0.00173711
0.00172959
0.00172223
0.00171498
0.00170781
0.00170076
0.00169375
0.00168682
0.00167993
0.00167305
0.00166614
0.0016592
0.00165217
0.00164503
0.00163772
0.00163019
0.0016224
0.00161427
0.0016057
0.00159664
0.00158696
0.00157656
0.00156532
0.00155307
0.00153968
0.001525
0.00150892
0.00149156
0.00147284
0.00145466
0.00143545
0.00142691
0.00184409
0.00186366
0.00187909
0.00188596
0.00188853
0.00188753
0.00188379
0.00187819
0.0018713
0.00186353
0.00185521
0.00184654
0.0018377
0.00182878
0.00181987
0.00181102
0.00180225
0.00179361
0.0017851
0.00177672
0.00176849
0.00176043
0.00175251
0.00174474
0.0017371
0.00172961
0.00172224
0.00171498
0.00170784
0.00170078
0.00169379
0.00168686
0.00167998
0.00167311
0.00166623
0.0016593
0.00165232
0.00164519
0.00163793
0.00163044
0.00162269
0.00161463
0.00160615
0.00159719
0.00158765
0.00157741
0.00156635
0.00155436
0.00154128
0.00152701
0.00151145
0.00149475
0.00147693
0.00145975
0.00144205
0.00143411
0.00184729
0.0018641
0.00187838
0.00188502
0.00188751
0.00188659
0.001883
0.00187756
0.0018708
0.00186315
0.00185492
0.00184633
0.00183755
0.00182869
0.00181982
0.00181097
0.00180223
0.0017936
0.0017851
0.00177673
0.00176852
0.00176045
0.00175254
0.00174476
0.00173714
0.00172963
0.00172227
0.00171502
0.00170788
0.00170083
0.00169385
0.00168692
0.00168005
0.00167319
0.00166633
0.00165944
0.00165246
0.00164539
0.00163815
0.00163072
0.00162305
0.00161504
0.00160665
0.00159781
0.0015884
0.00157833
0.00156749
0.00155575
0.001543
0.00152914
0.00151413
0.00149812
0.00148121
0.00146505
0.00144882
0.00144151
0.00185033
0.00186463
0.00187776
0.00188414
0.00188655
0.00188569
0.00188222
0.00187692
0.00187031
0.00186278
0.00185465
0.00184614
0.00183744
0.0018286
0.00181976
0.00181096
0.00180223
0.00179362
0.00178511
0.00177678
0.00176856
0.00176049
0.00175257
0.0017448
0.00173718
0.00172968
0.00172233
0.00171508
0.00170793
0.00170089
0.00169392
0.00168701
0.00168015
0.0016733
0.00166646
0.00165959
0.00165266
0.00164559
0.00163842
0.00163104
0.00162342
0.0016155
0.00160721
0.00159848
0.00158922
0.00157932
0.0015687
0.00155725
0.00154484
0.00153142
0.00151695
0.00150167
0.00148567
0.00147053
0.00145577
0.00144911
0.00185324
0.00186527
0.00187725
0.00188334
0.00188564
0.00188482
0.00188148
0.00187632
0.00186983
0.00186241
0.00185439
0.00184596
0.00183731
0.00182853
0.00181972
0.00181095
0.00180225
0.00179364
0.00178517
0.00177682
0.00176862
0.00176055
0.00175263
0.00174486
0.00173725
0.00172975
0.00172239
0.00171514
0.00170802
0.00170097
0.00169402
0.00168712
0.00168027
0.00167344
0.00166663
0.00165977
0.00165285
0.00164585
0.0016387
0.00163139
0.00162384
0.001616
0.00160782
0.00159922
0.0015901
0.00158039
0.00157
0.00155884
0.0015468
0.00153384
0.00151996
0.00150539
0.00149033
0.00147623
0.0014629
0.0014569
0.00185601
0.00186596
0.00187681
0.00188259
0.00188477
0.00188397
0.00188074
0.00187571
0.00186936
0.00186206
0.00185413
0.00184579
0.00183719
0.00182847
0.0018197
0.00181095
0.00180228
0.00179368
0.00178521
0.00177687
0.00176868
0.00176062
0.00175271
0.00174494
0.00173732
0.00172984
0.00172248
0.00171524
0.00170812
0.00170108
0.00169414
0.00168725
0.00168042
0.0016736
0.0016668
0.00165997
0.00165309
0.00164614
0.00163904
0.0016318
0.00162431
0.00161658
0.00160849
0.00160002
0.00159107
0.00158156
0.00157141
0.00156055
0.0015489
0.00153642
0.00152313
0.00150931
0.00149519
0.00148212
0.00147019
0.00146485
0.00185867
0.00186672
0.00187647
0.0018819
0.00188394
0.00188316
0.00188004
0.00187512
0.00186889
0.00186172
0.00185388
0.00184563
0.00183708
0.00182841
0.00181969
0.00181096
0.0018023
0.00179372
0.00178526
0.00177693
0.00176875
0.00176069
0.00175279
0.00174504
0.00173741
0.00172993
0.00172258
0.00171534
0.00170823
0.00170121
0.00169426
0.0016874
0.00168056
0.00167378
0.00166701
0.00166022
0.00165337
0.00164645
0.00163942
0.00163222
0.00162483
0.00161718
0.00160922
0.00160089
0.00159212
0.00158281
0.00157293
0.00156238
0.00155112
0.00153914
0.00152649
0.00151342
0.00150025
0.0014882
0.00147767
0.00147298
0.00186121
0.00186753
0.00187619
0.0018813
0.00188316
0.00188238
0.00187934
0.00187454
0.00186843
0.00186136
0.00185362
0.00184545
0.00183697
0.00182835
0.00181967
0.00181098
0.00180235
0.00179379
0.00178535
0.00177701
0.00176884
0.00176079
0.00175288
0.00174513
0.00173752
0.00173005
0.0017227
0.00171547
0.00170835
0.00170133
0.00169441
0.00168756
0.00168076
0.00167399
0.00166725
0.00166048
0.00165367
0.0016468
0.00163982
0.00163269
0.00162538
0.00161784
0.00161001
0.00160182
0.00159323
0.00158416
0.00157456
0.00156435
0.0015535
0.00154203
0.00153001
0.00151771
0.00150551
0.00149452
0.00148531
0.00148128
0.00186362
0.00186835
0.00187599
0.00188073
0.00188245
0.00188163
0.00187866
0.00187398
0.00186798
0.00186102
0.00185337
0.00184527
0.00183686
0.00182829
0.00181964
0.00181099
0.00180237
0.00179384
0.00178541
0.00177708
0.00176892
0.00176089
0.00175297
0.00174523
0.00173763
0.00173015
0.00172282
0.00171559
0.00170849
0.0017015
0.00169458
0.00168773
0.00168094
0.00167421
0.00166749
0.00166077
0.00165401
0.00164718
0.00164027
0.00163321
0.00162599
0.00161855
0.00161086
0.00160283
0.00159443
0.0015856
0.00157627
0.00156642
0.001556
0.00154506
0.0015337
0.00152221
0.00151096
0.00150101
0.00149313
0.00148974
0.00186595
0.0018692
0.00187581
0.00188021
0.00188176
0.00188093
0.00187801
0.00187341
0.00186752
0.00186066
0.00185312
0.00184509
0.00183675
0.00182823
0.00181962
0.00181101
0.00180241
0.00179388
0.00178547
0.00177716
0.001769
0.00176096
0.00175308
0.00174534
0.00173774
0.00173027
0.00172294
0.00171572
0.00170863
0.00170165
0.00169475
0.00168792
0.00168116
0.00167445
0.00166776
0.00166107
0.00165436
0.00164759
0.00164074
0.00163377
0.00162665
0.00161932
0.00161176
0.00160391
0.00159571
0.00158713
0.00157811
0.00156861
0.00155867
0.00154828
0.00153759
0.0015269
0.00151661
0.00150769
0.00150111
0.00149833
0.00186818
0.00187002
0.0018757
0.00187974
0.00188112
0.00188024
0.00187736
0.00187286
0.00186706
0.00186031
0.00185284
0.0018449
0.00183663
0.00182815
0.00181958
0.00181098
0.00180242
0.00179393
0.00178552
0.00177723
0.00176907
0.00176106
0.00175318
0.00174544
0.00173784
0.00173038
0.00172308
0.00171587
0.00170879
0.00170182
0.00169493
0.00168813
0.00168139
0.00167471
0.00166805
0.00166142
0.00165475
0.00164804
0.00164125
0.00163436
0.00162736
0.00162015
0.00161272
0.00160506
0.00159707
0.00158876
0.00158005
0.00157095
0.00156148
0.00155164
0.00154164
0.00153178
0.00152246
0.00151459
0.00150925
0.00150711
0.00187033
0.00187084
0.00187562
0.0018793
0.00188053
0.00187957
0.00187675
0.00187232
0.00186662
0.00185995
0.00185256
0.00184469
0.00183647
0.00182806
0.00181954
0.00181097
0.00180243
0.00179395
0.00178557
0.00177729
0.00176914
0.00176114
0.00175327
0.00174555
0.00173796
0.00173051
0.00172319
0.001716
0.00170895
0.00170198
0.00169512
0.00168834
0.00168164
0.00167497
0.00166837
0.00166175
0.00165515
0.0016485
0.0016418
0.001635
0.00162808
0.00162103
0.00161376
0.00160628
0.00159852
0.00159048
0.0015821
0.0015734
0.00156441
0.00155518
0.00154589
0.00153684
0.0015285
0.00152166
0.00151758
0.001516
0.0018724
0.0018716
0.00187557
0.00187891
0.00187996
0.00187895
0.00187614
0.00187178
0.00186617
0.00185958
0.00185228
0.00184447
0.00183631
0.00182795
0.00181946
0.00181094
0.00180242
0.00179398
0.00178561
0.00177735
0.0017692
0.00176122
0.00175336
0.00174564
0.00173807
0.00173062
0.00172332
0.00171615
0.0017091
0.00170216
0.00169531
0.00168857
0.00168187
0.00167526
0.00166868
0.00166213
0.00165557
0.001649
0.00164238
0.00163567
0.00162888
0.00162195
0.00161485
0.00160757
0.00160006
0.0015923
0.00158428
0.00157601
0.00156751
0.00155889
0.0015503
0.0015421
0.00153474
0.00152893
0.00152604
0.00152505
0.00187437
0.00187231
0.00187552
0.00187856
0.00187944
0.00187835
0.00187556
0.00187125
0.00186572
0.00185921
0.00185198
0.00184424
0.00183615
0.00182782
0.00181938
0.00181088
0.00180239
0.00179397
0.00178562
0.00177738
0.00176927
0.00176128
0.00175344
0.00174572
0.00173815
0.00173073
0.00172344
0.00171628
0.00170925
0.00170233
0.0016955
0.00168878
0.00168213
0.00167555
0.00166901
0.00166251
0.00165602
0.00164952
0.00164299
0.00163639
0.00162972
0.00162294
0.00161602
0.00160893
0.00160167
0.00159423
0.00158656
0.00157872
0.00157074
0.00156274
0.00155489
0.00154754
0.00154116
0.00153638
0.00153465
0.00153422
0.00187623
0.00187291
0.00187548
0.00187823
0.00187895
0.0018778
0.00187501
0.00187076
0.00186527
0.00185884
0.00185167
0.001844
0.00183596
0.00182768
0.00181927
0.00181082
0.00180235
0.00179395
0.00178561
0.0017774
0.00176929
0.00176132
0.00175347
0.0017458
0.00173824
0.00173082
0.00172356
0.00171641
0.0017094
0.0017025
0.00169569
0.00168901
0.00168239
0.00167586
0.00166937
0.00166291
0.00165649
0.00165005
0.00164362
0.00163712
0.00163059
0.00162397
0.00161722
0.00161038
0.00160338
0.00159624
0.00158895
0.00158157
0.00157412
0.00156677
0.00155967
0.00155316
0.00154775
0.001544
0.00154341
0.00154352
0.00187797
0.00187346
0.00187542
0.00187794
0.00187851
0.00187727
0.00187448
0.00187028
0.00186485
0.00185847
0.00185138
0.00184375
0.00183575
0.00182752
0.00181915
0.00181071
0.00180229
0.00179391
0.00178559
0.00177739
0.0017693
0.00176134
0.00175352
0.00174584
0.0017383
0.0017309
0.00172364
0.00171653
0.00170954
0.00170266
0.00169589
0.00168923
0.00168266
0.00167616
0.00166973
0.00166333
0.00165697
0.00165063
0.0016443
0.00163791
0.00163152
0.00162504
0.00161851
0.00161188
0.00160517
0.00159834
0.00159147
0.00158454
0.00157765
0.00157092
0.00156459
0.00155896
0.00155451
0.00155179
0.00155228
0.00155293
0.0018795
0.00187387
0.00187538
0.0018777
0.00187811
0.00187681
0.00187401
0.00186982
0.00186444
0.00185812
0.00185106
0.00184349
0.00183554
0.00182734
0.00181901
0.00181061
0.00180221
0.00179384
0.00178556
0.00177736
0.00176929
0.00176134
0.00175355
0.00174587
0.00173836
0.00173099
0.00172374
0.00171665
0.00170967
0.00170282
0.00169609
0.00168945
0.00168293
0.00167648
0.00167008
0.00166376
0.00165749
0.00165123
0.00164498
0.00163873
0.00163248
0.00162618
0.00161984
0.00161346
0.00160702
0.00160055
0.00159406
0.00158762
0.00158129
0.00157524
0.00156965
0.00156491
0.00156143
0.00155969
0.00156129
0.00156246
0.00188072
0.00187423
0.00187535
0.0018775
0.0018778
0.00187642
0.00187359
0.00186942
0.00186408
0.00185779
0.00185078
0.00184324
0.00183533
0.00182717
0.00181886
0.00181048
0.0018021
0.00179376
0.0017855
0.00177732
0.00176927
0.00176133
0.00175355
0.0017459
0.00173839
0.00173104
0.00172382
0.00171674
0.00170981
0.00170297
0.00169628
0.00168969
0.0016832
0.00167678
0.00167047
0.00166421
0.001658
0.00165184
0.0016457
0.00163958
0.00163348
0.00162736
0.00162124
0.0016151
0.00160895
0.00160283
0.00159677
0.0015908
0.00158507
0.00157968
0.00157487
0.00157099
0.00156847
0.00156774
0.00157039
0.00157208