/*--------------------------------*- C++ -*----------------------------------*\
  =========                 |
  \\      /  F ield         | OpenFOAM: The Open Source CFD Toolbox
   \\    /   O peration     | Website:  https://openfoam.org
    \\  /    A nd           | Version:  6
     \\/     M anipulation  |
\*---------------------------------------------------------------------------*/
FoamFile
{
    version     2.0;
    format      ascii;
    class       volVectorField;
    location    "0";
    object      U;
}
// * * * * * * * * * * * * * * * * * * * * * * * * * * * * * * * * * * * * * //

dimensions      [0 1 -1 0 0 0 0];

internalField   nonuniform List<vector> 
11644
(
(1.00009 -0.000325252 0)
(1.00002 -0.000961872 0)
(1.00001 -0.0015812 0)
(1.00002 -0.00220332 0)
(1.00002 -0.00283395 0)
(1.00002 -0.00346827 0)
(1.00002 -0.00409929 0)
(1.00003 -0.00471693 0)
(1.00003 -0.00530568 0)
(1.00003 -0.00584306 0)
(1.00002 -0.00629876 0)
(1.00002 -0.00663462 0)
(1 -0.00680613 0)
(0.999984 -0.00676592 0)
(0.999956 -0.00646972 0)
(0.999922 -0.00588415 0)
(0.999883 -0.00499551 0)
(0.999846 -0.00381797 0)
(0.999817 -0.00239894 0)
(0.999801 -0.000818578 4.98146e-30)
(0.999801 0.000818594 -4.98146e-30)
(0.999817 0.00239896 0)
(0.999846 0.00381799 0)
(0.999883 0.00499554 0)
(0.999922 0.00588418 0)
(0.999956 0.00646975 0)
(0.999984 0.00676596 0)
(1 0.00680617 0)
(1.00002 0.00663466 0)
(1.00002 0.0062988 0)
(1.00003 0.00584311 0)
(1.00003 0.00530572 0)
(1.00003 0.00471696 0)
(1.00002 0.00409932 0)
(1.00002 0.00346829 0)
(1.00002 0.00283397 0)
(1.00002 0.00220334 0)
(1.00001 0.00158121 0)
(1.00002 0.000961879 0)
(1.00009 0.000325254 0)
(1.0019 -0.000873717 0)
(1.00182 -0.0026123 0)
(1.00183 -0.00435055 0)
(1.00185 -0.00612119 0)
(1.00186 -0.00793053 0)
(1.00186 -0.00976328 0)
(1.00184 -0.0115967 0)
(1.00179 -0.0134007 0)
(1.00168 -0.0151313 0)
(1.0015 -0.0167255 0)
(1.00122 -0.0180982 0)
(1.00083 -0.0191405 0)
(1.0003 -0.0197221 0)
(0.999647 -0.0196992 0)
(0.998875 -0.0189298 0)
(0.99803 -0.0172984 0)
(0.997178 -0.0147474 0)
(0.996408 -0.0113083 0)
(0.995819 -0.00712121 0)
(0.995498 -0.00243257 -2.04747e-29)
(0.995498 0.00243287 2.04747e-29)
(0.995819 0.00712151 0)
(0.996408 0.0113086 0)
(0.997178 0.0147477 0)
(0.99803 0.0172987 0)
(0.998875 0.0189301 0)
(0.999647 0.0196994 0)
(1.0003 0.0197223 0)
(1.00083 0.0191407 0)
(1.00122 0.0180984 0)
(1.0015 0.0167257 0)
(1.00168 0.0151314 0)
(1.00179 0.0134008 0)
(1.00184 0.0115968 0)
(1.00186 0.00976335 0)
(1.00186 0.00793059 0)
(1.00185 0.00612124 0)
(1.00183 0.00435059 0)
(1.00182 0.00261232 0)
(1.0019 0.000873723 0)
(1.00456 -0.00121291 0)
(1.00456 -0.00364406 0)
(1.00465 -0.0061199 0)
(1.00477 -0.00869411 0)
(1.00485 -0.0113773 0)
(1.00489 -0.0141486 0)
(1.00487 -0.0169762 0)
(1.00475 -0.0198175 0)
(1.00449 -0.0226101 0)
(1.00403 -0.0252611 0)
(1.00331 -0.0276376 0)
(1.00225 -0.0295604 0)
(1.00082 -0.0308039 0)
(0.998982 -0.031109 0)
(0.996764 -0.0302109 0)
(0.994275 -0.0278812 0)
(0.991717 -0.0239813 0)
(0.989374 -0.0185254 0)
(0.987566 -0.0117292 0)
(0.986579 -0.00401802 -4.21302e-29)
(0.986579 0.00401883 4.21302e-29)
(0.987566 0.01173 0)
(0.989374 0.0185262 0)
(0.991717 0.023982 0)
(0.994275 0.0278819 0)
(0.996764 0.0302115 0)
(0.998982 0.0311097 0)
(1.00082 0.0308045 0)
(1.00225 0.0295609 0)
(1.00331 0.027638 0)
(1.00403 0.0252614 0)
(1.00449 0.0226104 0)
(1.00475 0.0198178 0)
(1.00487 0.0169764 0)
(1.0049 0.0141488 0)
(1.00485 0.0113774 0)
(1.00477 0.00869419 0)
(1.00465 0.00611995 0)
(1.00456 0.0036441 0)
(1.00456 0.00121292 0)
(1.00809 -0.00147563 0)
(1.00815 -0.00444739 0)
(1.0084 -0.00751194 0)
(1.00871 -0.0107452 0)
(1.00899 -0.0141743 0)
(1.0092 -0.0177904 0)
(1.00929 -0.0215684 0)
(1.00921 -0.0254679 0)
(1.00887 -0.0294221 0)
(1.00816 -0.0333222 0)
(1.00694 -0.0369997 0)
(1.00506 -0.0402079 0)
(1.00238 -0.0426106 0)
(0.998834 -0.0437878 0)
(0.994472 -0.0432691 0)
(0.9895 -0.0406001 0)
(0.984296 -0.0354474 0)
(0.979447 -0.0277231 0)
(0.975646 -0.017707 0)
(0.973547 -0.00609334 0)
(0.973547 0.00609447 0)
(0.975646 0.0177081 0)
(0.979447 0.0277242 0)
(0.984296 0.0354485 0)
(0.9895 0.0406012 0)
(0.994472 0.0432701 0)
(0.998834 0.0437887 0)
(1.00238 0.0426115 0)
(1.00506 0.0402087 0)
(1.00694 0.0370004 0)
(1.00816 0.0333228 0)
(1.00887 0.0294226 0)
(1.00921 0.0254684 0)
(1.00929 0.0215688 0)
(1.0092 0.0177906 0)
(1.00899 0.0141745 0)
(1.00871 0.0107453 0)
(1.0084 0.00751204 0)
(1.00815 0.00444745 0)
(1.00809 0.00147566 0)
(1.01275 -0.00191074 0)
(1.01285 -0.00575936 0)
(1.01331 -0.00972575 0)
(1.01391 -0.0139056 0)
(1.01451 -0.0183535 0)
(1.01504 -0.0230906 0)
(1.01541 -0.0281177 0)
(1.01554 -0.0334137 0)
(1.0153 -0.0389231 0)
(1.01449 -0.0445355 0)
(1.01287 -0.050056 0)
(1.01015 -0.0551662 0)
(1.00603 -0.0593866 0)
(1.00029 -0.0620655 0)
(0.992872 -0.0624076 0)
(0.984029 -0.0595904 0)
(0.97449 -0.0528727 0)
(0.965241 -0.041918 0)
(0.957854 -0.0270482 0)
(0.953727 -0.00935882 -9.45082e-29)
(0.953727 0.00935971 9.45082e-29)
(0.957854 0.0270491 0)
(0.965241 0.041919 0)
(0.97449 0.0528738 0)
(0.984029 0.0595916 0)
(0.992872 0.0624088 0)
(1.00029 0.0620666 0)
(1.00603 0.0593877 0)
(1.01015 0.0551672 0)
(1.01287 0.050057 0)
(1.01449 0.0445364 0)
(1.0153 0.0389238 0)
(1.01554 0.0334143 0)
(1.01541 0.0281183 0)
(1.01504 0.0230911 0)
(1.01451 0.0183539 0)
(1.01391 0.0139059 0)
(1.01331 0.00972594 0)
(1.01285 0.00575948 0)
(1.01275 0.00191078 0)
(1.0188 -0.00257366 0)
(1.01898 -0.00775522 0)
(1.01967 -0.0130701 0)
(1.02062 -0.0186206 0)
(1.02166 -0.0244873 0)
(1.02265 -0.0307306 0)
(1.0235 -0.0373928 0)
(1.02408 -0.0444915 0)
(1.02419 -0.0520061 0)
(1.02353 -0.0598533 0)
(1.02171 -0.0678454 0)
(1.0182 -0.0756197 0)
(1.0124 -0.082536 0)
(1.00371 -0.0876062 0)
(0.991951 -0.0896158 0)
(0.977426 -0.0870793 0)
(0.960963 -0.0790018 0)
(0.944664 -0.0640641 0)
(0.93131 -0.0419748 0)
(0.923647 -0.0146462 -2.0774e-28)
(0.923647 0.0146463 2.0774e-28)
(0.931309 0.0419749 0)
(0.944663 0.0640645 0)
(0.960963 0.0790024 0)
(0.977426 0.0870801 0)
(0.991951 0.0896169 0)
(1.00371 0.0876074 0)
(1.0124 0.0825372 0)
(1.0182 0.075621 0)
(1.02171 0.0678466 0)
(1.02353 0.0598545 0)
(1.02419 0.0520072 0)
(1.02408 0.0444924 0)
(1.0235 0.0373936 0)
(1.02265 0.0307313 0)
(1.02166 0.0244878 0)
(1.02062 0.0186211 0)
(1.01967 0.0130704 0)
(1.01898 0.0077554 0)
(1.0188 0.00257372 0)
(1.02672 -0.00329074 0)
(1.02706 -0.00992606 0)
(1.02801 -0.0167258 0)
(1.02936 -0.0237812 0)
(1.0309 -0.0311933 0)
(1.0325 -0.0390663 0)
(1.03403 -0.0474966 0)
(1.03532 -0.0565634 0)
(1.0361 -0.0663168 0)
(1.03595 -0.0767586 0)
(1.03427 -0.0878069 0)
(1.03023 -0.0992217 0)
(1.02271 -0.110364 0)
(1.01041 -0.120183 0)
(0.993362 -0.126675 0)
(0.97068 -0.127964 0)
(0.954438 -0.111247 0)
(0.928414 -0.095822 0)
(0.905179 -0.0685714 0)
(0.889476 -0.0314276 -2.70874e-23)
(0.885922 0.0109259 0)
(0.895681 0.0514621 2.48908e-22)
(0.91565 0.083964 0)
(0.940596 0.105725 0)
(0.97068 0.127964 0)
(0.993362 0.126676 0)
(1.01041 0.120184 0)
(1.02271 0.110365 0)
(1.03024 0.099223 0)
(1.03428 0.0878083 0)
(1.03595 0.0767599 0)
(1.0361 0.0663181 0)
(1.03532 0.0565646 0)
(1.03403 0.0474977 0)
(1.0325 0.0390672 0)
(1.0309 0.031194 0)
(1.02936 0.0237818 0)
(1.02802 0.0167262 0)
(1.02706 0.00992631 0)
(1.02672 0.00329083 0)
(1.03658 -0.00383792 0)
(1.03712 -0.0115913 0)
(1.03838 -0.0195499 0)
(1.04016 -0.0277945 0)
(1.04229 -0.0364476 0)
(1.04465 -0.0456587 0)
(1.04711 -0.0555881 0)
(1.04946 -0.0664002 0)
(1.05139 -0.0782628 0)
(1.05243 -0.0913507 0)
(1.05186 -0.105834 0)
(1.04862 -0.121789 0)
(1.04129 -0.13892 0)
(1.0257 -0.144361 0)
(1.00693 -0.157863 0)
(0.978949 -0.167006 0)
(0.940635 -0.165491 0)
(0.895901 -0.148788 0)
(0.851164 -0.111542 0)
(0.819203 -0.0528377 3.09363e-23)
(0.812033 0.0179961 0)
(0.832739 0.0845468 -3.09371e-23)
(0.872808 0.133038 0)
(0.919013 0.159195 0)
(0.960331 0.168459 0)
(0.993633 0.163334 0)
(1.01691 0.151631 0)
(1.04129 0.138922 0)
(1.04862 0.12179 0)
(1.05186 0.105836 0)
(1.05243 0.0913523 0)
(1.05139 0.0782643 0)
(1.04946 0.0664016 0)
(1.04711 0.0555894 0)
(1.04466 0.0456598 0)
(1.0423 0.0364485 0)
(1.04016 0.0277953 0)
(1.03838 0.0195504 0)
(1.03713 0.0115916 0)
(1.03658 0.00383802 0)
(1.04762 -0.00407255 0)
(1.04842 -0.0123099 0)
(1.05001 -0.0207843 0)
(1.05229 -0.0295807 0)
(1.05512 -0.038845 0)
(1.05843 -0.04877 0)
(1.06211 -0.0595848 0)
(1.06598 -0.0715598 0)
(1.06978 -0.0850264 0)
(1.07306 -0.100415 0)
(1.07515 -0.118302 0)
(1.07492 -0.139367 0)
(1.07054 -0.164109 0)
(1.05233 -0.178513 0)
(1.03172 -0.204854 0)
(0.994953 -0.230925 0)
(0.945031 -0.23511 0)
(0.874172 -0.230658 0)
(0.791705 -0.190618 4.94639e-23)
(0.722142 -0.10417 0)
(0.698975 0.0156352 -2.90011e-23)
(0.736001 0.130115 0)
(0.811892 0.20504 -3.73807e-22)
(0.893196 0.234624 0)
(0.959579 0.233011 0)
(1.01576 0.218273 0)
(1.04379 0.191465 0)
(1.07054 0.164111 0)
(1.07492 0.139369 0)
(1.07515 0.118304 0)
(1.07306 0.100417 0)
(1.06978 0.0850282 0)
(1.06598 0.0715614 0)
(1.06211 0.0595863 0)
(1.05843 0.0487713 0)
(1.05513 0.038846 0)
(1.05229 0.0295815 0)
(1.05001 0.0207849 0)
(1.04842 0.0123102 0)
(1.04763 0.00407267 0)
(1.05882 -0.00395848 0)
(1.05988 -0.0119702 0)
(1.06186 -0.0202309 0)
(1.06469 -0.028837 0)
(1.06834 -0.0379522 0)
(1.07278 -0.0478012 0)
(1.07798 -0.0586713 0)
(1.08387 -0.0709353 0)
(1.09034 -0.0850924 0)
(1.09717 -0.101833 0)
(1.10392 -0.122142 0)
(1.10981 -0.147407 0)
(1.11322 -0.17951 0)
(1.09691 -0.206521 0)
(1.08286 -0.250066 0)
(1.04384 -0.288636 0)
(0.980086 -0.329121 0)
(0.871951 -0.360833 0)
(0.712178 -0.337592 1.95213e-22)
(0.543789 -0.209889 0)
(0.473452 0.0152263 4.2884e-22)
(0.561973 0.232371 4.92027e-22)
(0.734276 0.345351 -1.82804e-22)
(0.888483 0.358835 0)
(0.999174 0.326596 0)
(1.06863 0.275777 0)
(1.092 0.226792 0)
(1.11322 0.179512 0)
(1.10981 0.147409 0)
(1.10392 0.122144 0)
(1.09717 0.101835 0)
(1.09034 0.0850944 0)
(1.08387 0.0709372 0)
(1.07798 0.058673 0)
(1.07278 0.0478026 0)
(1.06834 0.0379534 0)
(1.06469 0.0288379 0)
(1.06186 0.0202316 0)
(1.05989 0.0119706 0)
(1.05882 0.00395861 0)
(1.06924 -0.00353393 0)
(1.07057 -0.0106883 0)
(1.07293 -0.0180766 0)
(1.07635 -0.0257978 0)
(1.08087 -0.0340158 0)
(1.08653 -0.04296 0)
(1.09345 -0.0529398 0)
(1.10173 -0.0643809 0)
(1.11153 -0.0778795 0)
(1.12299 -0.0942705 0)
(1.1362 -0.114735 0)
(1.15107 -0.141054 0)
(1.16692 -0.176334 0)
(1.15975 -0.215669 0)
(1.16391 -0.271806 0)
(1.13593 -0.337075 0)
(1.07399 -0.416089 6.60151e-24)
(0.926009 -0.495849 -6.47092e-23)
(0.632006 -0.494863 -3.48048e-22)
(0.231328 -0.295528 -1.19672e-20)
(0.0597164 0.00890197 0)
(0.253389 0.314181 -2.65133e-21)
(0.655853 0.499738 3.65604e-22)
(0.952031 0.487975 2.00149e-23)
(1.0979 0.401039 -2.09605e-24)
(1.15932 0.307651 0)
(1.16365 0.240907 0)
(1.16692 0.176338 0)
(1.15107 0.141057 0)
(1.1362 0.114738 0)
(1.12299 0.0942734 0)
(1.11153 0.077882 0)
(1.10173 0.064383 0)
(1.09345 0.0529417 0)
(1.08654 0.0429615 0)
(1.08087 0.0340171 0)
(1.07635 0.0257988 0)
(1.07293 0.0180773 0)
(1.07057 0.0106887 0)
(1.06924 0.00353406 0)
(1.07813 -0.00286981 0)
(1.0797 -0.00867711 0)
(1.08241 -0.01467 0)
(1.08637 -0.020929 0)
(1.09168 -0.0275887 0)
(1.09851 -0.0348414 0)
(1.10709 -0.0429547 0)
(1.11775 -0.0523082 0)
(1.13096 -0.0634432 0)
(1.14731 -0.0771014 0)
(1.16746 -0.0942602 0)
(1.19196 -0.116367 0)
(1.22085 -0.146329 0)
(1.22834 -0.190064 0)
(1.25262 -0.238138 0)
(1.2425 -0.302013 0)
(1.1803 -0.361249 -1.95025e-23)
(0.95693 -0.369806 1.54452e-22)
(0.274821 -0.142892 -4.72471e-21)
(0.34163 0.172572 1.1301e-21)
(0.989106 0.365648 2.69863e-23)
(1.20481 0.343012 0)
(1.25747 0.26711 0)
(1.24199 0.211634 0)
(1.22085 0.146335 0)
(1.19196 0.116372 0)
(1.16746 0.0942645 0)
(1.14731 0.0771051 0)
(1.13096 0.0634463 0)
(1.11775 0.0523108 0)
(1.10709 0.0429568 0)
(1.09851 0.034843 0)
(1.09168 0.02759 0)
(1.08637 0.02093 0)
(1.08241 0.0146706 0)
(1.0797 0.0086775 0)
(1.07814 0.00286994 0)
(1.08496 -0.00204423 0)
(1.08668 -0.00617135 0)
(1.08964 -0.0104013 0)
(1.09398 -0.0147721 0)
(1.09986 -0.0193562 0)
(1.10754 -0.0242624 0)
(1.11735 -0.0296452 0)
(1.1298 -0.0357256 0)
(1.1456 -0.0428161 0)
(1.16566 -0.0513146 0)
(1.1909 -0.0616469 0)
(1.22191 -0.0743577 0)
(1.25785 -0.0907526 0)
(1.27729 -0.125721 0)
(1.30212 -0.143965 0)
(1.28255 -0.167832 0)
(1.16008 -0.149615 0)
(0.790072 -0.0562779 2.97382e-22)
(0.0126541 0.00237633 3.37225e-20)
(0.0398096 -0.00651145 -1.37986e-20)
(0.824916 0.0645357 0)
(1.19549 0.147274 0)
(1.29927 0.149598 0)
(1.29278 0.134497 0)
(1.25785 0.0907607 0)
(1.22191 0.0743645 0)
(1.19091 0.0616525 0)
(1.16566 0.0513191 0)
(1.14561 0.0428196 0)
(1.12981 0.0357284 0)
(1.11735 0.0296474 0)
(1.10754 0.024264 0)
(1.09987 0.0193574 0)
(1.09398 0.014773 0)
(1.08964 0.0104019 0)
(1.08668 0.00617171 0)
(1.08496 0.00204435 0)
(1.08936 -0.00113624 0)
(1.09115 -0.00341116 0)
(1.09419 -0.00568155 0)
(1.09865 -0.00792609 0)
(1.10473 -0.0101333 0)
(1.1127 -0.0122979 0)
(1.12297 -0.0144172 0)
(1.13608 -0.0164874 0)
(1.15284 -0.0184954 0)
(1.17416 -0.0203769 0)
(1.20089 -0.0219101 0)
(1.23289 -0.0226897 0)
(1.26726 -0.0223054 0)
(1.28948 -0.0400583 0)
(1.29432 -0.0274793 0)
(1.24146 -0.0144532 0)
(1.0561 0.0342909 0)
(0.651451 0.0989456 4.94825e-24)
(0.183993 0.0756539 0)
(0.209621 -0.080898 1.26945e-21)
(0.711897 -0.0934986 0)
(1.10348 -0.0293846 0)
(1.27203 0.01398 0)
(1.29753 0.0349265 0)
(1.26727 0.0223157 0)
(1.2329 0.0226981 0)
(1.2009 0.0219166 0)
(1.17417 0.0203819 0)
(1.15284 0.0184992 0)
(1.13609 0.0164902 0)
(1.12297 0.0144193 0)
(1.11271 0.0122995 0)
(1.10473 0.0101344 0)
(1.09865 0.00792687 0)
(1.09419 0.00568207 0)
(1.09115 0.00341145 0)
(1.08937 0.00113634 0)
(1.09122 -0.000223264 0)
(1.09295 -0.0006342 0)
(1.09587 -0.00092686 0)
(1.10015 -0.00101761 0)
(1.10597 -0.000808583 0)
(1.11358 -0.00017848 0)
(1.12335 0.0010328 0)
(1.13579 0.00304869 0)
(1.15154 0.0061927 0)
(1.17135 0.0109481 0)
(1.19562 0.0180556 0)
(1.22335 0.0285729 0)
(1.24985 0.043956 0)
(1.26798 0.0438713 0)
(1.25027 0.075518 0)
(1.1737 0.103808 0)
(0.977624 0.143582 0)
(0.63811 0.164047 -4.04979e-23)
(0.282612 0.121952 -7.83724e-26)
(0.0656729 0.0471607 -8.11746e-23)
(0.00970144 -0.00119418 -2.6861e-23)
(0.0828454 -0.0557134 -1.25179e-21)
(0.321882 -0.130418 -6.78959e-22)
(0.684871 -0.164555 4.0499e-23)
(1.02504 -0.140464 0)
(1.21362 -0.0968936 0)
(1.26616 -0.0583673 0)
(1.24985 -0.0439447 0)
(1.22336 -0.0285642 0)
(1.19563 -0.0180493 0)
(1.17135 -0.0109435 0)
(1.15154 -0.00618945 0)
(1.13579 -0.00304642 0)
(1.12336 -0.00103121 0)
(1.11358 0.000179584 0)
(1.10597 0.000809342 0)
(1.10015 0.00101812 0)
(1.09588 0.000927182 0)
(1.09295 0.000634376 0)
(1.09122 0.00022332 0)
(1.09061 0.000623983 0)
(1.09217 0.00194108 0)
(1.09479 0.00347591 0)
(1.09859 0.00536287 0)
(1.10371 0.00776857 0)
(1.11036 0.0109035 0)
(1.1188 0.0150425 0)
(1.12937 0.0205596 0)
(1.1425 0.0279779 0)
(1.15858 0.0380288 0)
(1.17759 0.051712 0)
(1.19799 0.0703562 0)
(1.21447 0.0961396 0)
(1.22549 0.110205 0)
(1.19291 0.14969 0)
(1.08586 0.194767 0)
(0.917871 0.216029 0)
(0.643679 0.214708 0)
(0.365086 0.165162 2.95184e-23)
(0.171838 0.0817845 -1.13742e-22)
(0.115966 -0.0117853 0)
(0.208419 -0.104339 0)
(0.429864 -0.181705 -5.32665e-22)
(0.716218 -0.219463 0)
(0.976097 -0.210313 0)
(1.15131 -0.172205 0)
(1.21646 -0.129005 0)
(1.21448 -0.0961313 0)
(1.198 -0.0703502 0)
(1.1776 -0.0517079 0)
(1.15859 -0.038026 0)
(1.1425 -0.0279761 0)
(1.12938 -0.0205585 0)
(1.11881 -0.0150418 0)
(1.11037 -0.0109031 0)
(1.10372 -0.00776836 0)
(1.09859 -0.00536276 0)
(1.09479 -0.00347586 0)
(1.09217 -0.00194106 0)
(1.09061 -0.000623979 0)
(1.0878 0.00134954 0)
(1.08911 0.00414186 0)
(1.09128 0.00722159 0)
(1.09438 0.0107536 0)
(1.09851 0.0149441 0)
(1.10377 0.0200512 0)
(1.11031 0.026405 0)
(1.11829 0.0344409 0)
(1.12786 0.0447525 0)
(1.13905 0.0581552 0)
(1.15139 0.0757338 0)
(1.1629 0.0988109 0)
(1.1679 0.128656 0)
(1.153 0.167283 0)
(1.13208 0.193466 0)
(1.03644 0.232137 0)
(0.896195 0.249445 0)
(0.682699 0.239019 0)
(0.463886 0.185592 0)
(0.305893 0.0951664 0)
(0.258472 -0.0139431 4.27169e-24)
(0.336436 -0.120358 -1.51597e-22)
(0.515371 -0.202966 0)
(0.739066 -0.245437 0)
(0.962013 -0.245951 0)
(1.09307 -0.2139 0)
(1.15301 -0.167284 0)
(1.16791 -0.128656 0)
(1.16291 -0.098811 0)
(1.1514 -0.0757341 0)
(1.13906 -0.0581557 0)
(1.12787 -0.0447531 0)
(1.1183 -0.0344416 0)
(1.11032 -0.0264056 0)
(1.10378 -0.0200518 0)
(1.09851 -0.0149446 0)
(1.09438 -0.010754 0)
(1.09128 -0.00722187 0)
(1.08911 -0.00414203 0)
(1.08781 -0.0013496 0)
(1.0832 0.00191827 0)
(1.08419 0.00586036 0)
(1.08583 0.0101232 0)
(1.08812 0.01488 0)
(1.0911 0.0203456 0)
(1.0948 0.0267838 0)
(1.09924 0.0345212 0)
(1.1044 0.0439723 0)
(1.11021 0.0556781 0)
(1.11637 0.0703535 0)
(1.12207 0.0889011 0)
(1.12523 0.112293 0)
(1.12112 0.141181 0)
(1.10091 0.176052 0)
(1.07797 0.204692 0)
(0.997959 0.235481 0)
(0.888418 0.249937 0)
(0.727327 0.234705 0)
(0.564396 0.181287 0)
(0.445991 0.0932732 0)
(0.410169 -0.0137018 0)
(0.468972 -0.117854 0)
(0.602751 -0.198296 0)
(0.769425 -0.241913 0)
(0.939798 -0.245473 0)
(1.044 -0.221154 0)
(1.10092 -0.176066 0)
(1.12113 -0.141191 0)
(1.12524 -0.112301 0)
(1.12209 -0.088907 0)
(1.11638 -0.0703579 0)
(1.11022 -0.0556815 0)
(1.10441 -0.043975 0)
(1.09924 -0.0345233 0)
(1.0948 -0.0267854 0)
(1.0911 -0.0203469 0)
(1.08812 -0.0148809 0)
(1.08583 -0.0101239 0)
(1.0842 -0.00586073 0)
(1.0832 -0.00191839 0)
(1.07726 0.00231656 0)
(1.07794 0.00705604 0)
(1.07901 0.0121149 0)
(1.08048 0.0176558 0)
(1.08231 0.0238772 0)
(1.08447 0.0310161 0)
(1.08689 0.0393549 0)
(1.08944 0.0492348 0)
(1.09186 0.0610751 0)
(1.09368 0.0753959 0)
(1.09393 0.0928079 0)
(1.09073 0.113885 0)
(1.08056 0.138802 0)
(1.05777 0.167145 0)
(1.03496 0.193122 0)
(0.97064 0.214987 0)
(0.888627 0.225439 0)
(0.772887 0.208115 0)
(0.658127 0.159187 0)
(0.575303 0.0815897 0)
(0.550273 -0.0119802 0)
(0.591354 -0.103158 0)
(0.685012 -0.174442 0)
(0.802819 -0.215299 0)
(0.926952 -0.221028 0)
(1.00665 -0.205059 0)
(1.05776 -0.167169 0)
(1.08056 -0.138821 0)
(1.09074 -0.113899 0)
(1.09394 -0.0928181 0)
(1.09368 -0.0754035 0)
(1.09186 -0.0610808 0)
(1.08944 -0.0492391 0)
(1.0869 -0.0393582 0)
(1.08447 -0.0310186 0)
(1.08231 -0.0238791 0)
(1.08048 -0.0176572 0)
(1.07902 -0.0121158 0)
(1.07794 -0.00705657 0)
(1.07726 -0.00231674 0)
(1.07047 0.0025496 0)
(1.07084 0.0077466 0)
(1.0714 0.0132341 0)
(1.07211 0.0191515 0)
(1.0729 0.025665 0)
(1.0737 0.0329665 0)
(1.07439 0.0412749 0)
(1.07476 0.0508398 0)
(1.07448 0.0619452 0)
(1.07301 0.0749094 0)
(1.06941 0.0900559 0)
(1.06214 0.107593 0)
(1.04872 0.12733 0)
(1.02577 0.148341 0)
(1.00457 0.169164 0)
(0.954536 0.182506 0)
(0.895007 0.1884 0)
(0.815415 0.170737 0)
(0.738623 0.129007 0)
(0.683972 0.0656965 0)
(0.667543 -0.0096279 0)
(0.694519 -0.0831538 0)
(0.756472 -0.141721 0)
(0.835724 -0.177352 0)
(0.922776 -0.18502 0)
(0.981841 -0.176718 0)
(1.02576 -0.148366 0)
(1.04871 -0.12735 0)
(1.06214 -0.107609 0)
(1.06942 -0.0900679 0)
(1.07301 -0.0749186 0)
(1.07448 -0.0619521 0)
(1.07476 -0.0508451 0)
(1.07439 -0.041279 0)
(1.07371 -0.0329696 0)
(1.0729 -0.0256673 0)
(1.07211 -0.0191532 0)
(1.0714 -0.0132352 0)
(1.07084 -0.00774725 0)
(1.07047 -0.00254981 0)
(1.06327 0.00263646 0)
(1.06337 0.0079923 0)
(1.06349 0.0135919 0)
(1.06355 0.0195447 0)
(1.06349 0.0259778 0)
(1.0632 0.0330315 0)
(1.06252 0.0408575 0)
(1.06124 0.0496157 0)
(1.05902 0.0594686 0)
(1.05532 0.0705659 0)
(1.04936 0.0830016 0)
(1.03996 0.0967034 0)
(1.02559 0.111231 0)
(1.00459 0.125595 0)
(0.985544 0.141016 0)
(0.947912 0.14744 0)
(0.90543 0.149481 0)
(0.85267 0.132708 0)
(0.803501 0.0988295 0)
(0.769205 0.049928 0)
(0.759007 -0.00727695 8.49336e-35)
(0.775856 -0.0632449 0)
(0.814929 -0.108869 0)
(0.866056 -0.13847 0)
(0.92537 -0.147395 0)
(0.968179 -0.144962 0)
(1.00458 -0.125615 0)
(1.02558 -0.111248 0)
(1.03996 -0.0967175 0)
(1.04936 -0.0830128 0)
(1.05532 -0.0705747 0)
(1.05902 -0.0594755 0)
(1.06124 -0.0496211 0)
(1.06252 -0.0408617 0)
(1.0632 -0.0330347 0)
(1.06349 -0.0259802 0)
(1.06355 -0.0195465 0)
(1.06349 -0.0135931 0)
(1.06337 -0.007993 0)
(1.06327 -0.00263669 0)
(1.05602 0.00260406 0)
(1.05591 0.00787697 0)
(1.05567 0.013338 0)
(1.05524 0.0190653 0)
(1.05453 0.0251453 0)
(1.05343 0.0316679 0)
(1.05179 0.0387215 0)
(1.04939 0.0463862 0)
(1.04593 0.0547228 0)
(1.04094 0.063751 0)
(1.03381 0.073406 0)
(1.02374 0.083452 0)
(1.00989 0.0933579 0)
(0.991549 0.102123 0)
(0.967874 0.107606 0)
(0.946743 0.114896 0)
(0.915924 0.108665 0)
(0.883853 0.0927627 0)
(0.856143 0.0658475 0)
(0.838317 0.0300529 0)
(0.834531 -0.0101171 -6.64651e-35)
(0.845729 -0.0487932 0)
(0.869184 -0.0805815 0)
(0.899794 -0.102132 0)
(0.931894 -0.112518 0)
(0.967851 -0.107616 0)
(0.991532 -0.102134 0)
(1.00988 -0.0933693 0)
(1.02373 -0.0834623 0)
(1.0338 -0.0734148 0)
(1.04094 -0.0637583 0)
(1.04592 -0.0547287 0)
(1.04939 -0.046391 0)
(1.05179 -0.0387253 0)
(1.05343 -0.0316709 0)
(1.05453 -0.0251476 0)
(1.05524 -0.019067 0)
(1.05567 -0.0133392 0)
(1.05591 -0.00787765 0)
(1.05602 -0.00260428 0)
(1.04901 0.00248248 0)
(1.04874 0.00749349 0)
(1.04825 0.0126362 0)
(1.04747 0.0179589 0)
(1.04633 0.0235112 0)
(1.04471 0.0293379 0)
(1.04248 0.0354731 0)
(1.03945 0.0419314 0)
(1.03537 0.0486937 0)
(1.02988 0.0556851 0)
(1.02254 0.0627404 0)
(1.01285 0.0695488 0)
(1.00043 0.0755846 0)
(0.985134 0.0800441 0)
(0.967212 0.0815651 0)
(0.948099 0.0786297 0)
(0.929078 0.0706119 0)
(0.911886 0.0565086 0)
(0.898543 0.0367114 0)
(0.89118 0.0127542 1.51489e-34)
(0.891176 -0.012737 -1.51489e-34)
(0.898532 -0.0366962 0)
(0.911869 -0.0564971 0)
(0.929058 -0.0706051 0)
(0.948079 -0.0786275 0)
(0.967194 -0.081567 0)
(0.985119 -0.0800488 0)
(1.00041 -0.0755905 0)
(1.01284 -0.0695551 0)
(1.02253 -0.0627463 0)
(1.02987 -0.0556903 0)
(1.03536 -0.0486983 0)
(1.03945 -0.0419353 0)
(1.04247 -0.0354763 0)
(1.04471 -0.0293405 0)
(1.04632 -0.0235132 0)
(1.04747 -0.0179604 0)
(1.04825 -0.0126372 0)
(1.04874 -0.0074941 0)
(1.04901 -0.00248268 0)
(1.04244 0.00230126 0)
(1.04207 0.00693261 0)
(1.04142 0.0116444 0)
(1.04043 0.0164599 0)
(1.03904 0.0213982 0)
(1.03714 0.0264685 0)
(1.03465 0.031664 0)
(1.0314 0.0369525 0)
(1.0272 0.0422628 0)
(1.02182 0.0474648 0)
(1.01496 0.0523478 0)
(1.00631 0.0565972 0)
(0.995733 0.0597767 0)
(0.98336 0.0613359 0)
(0.969717 0.0605673 0)
(0.95587 0.0567788 0)
(0.942731 0.0496676 0)
(0.931428 0.0389638 0)
(0.922995 0.0249704 0)
(0.918445 0.00861646 1.84699e-35)
(0.918442 -0.00860077 -1.84699e-35)
(0.922987 -0.0249559 0)
(0.931416 -0.0389517 0)
(0.942717 -0.0496587 0)
(0.955855 -0.0567734 0)
(0.969703 -0.0605652 0)
(0.983348 -0.0613363 0)
(0.995724 -0.0597789 0)
(1.00631 -0.0566003 0)
(1.01495 -0.0523513 0)
(1.02182 -0.0474682 0)
(1.0272 -0.042266 0)
(1.03139 -0.0369553 0)
(1.03464 -0.0316664 0)
(1.03714 -0.0264705 0)
(1.03903 -0.0213998 0)
(1.04043 -0.0164611 0)
(1.04142 -0.0116452 0)
(1.04207 -0.00693312 0)
(1.04244 -0.00230143 0)
(1.03644 0.0020864 0)
(1.03602 0.00627367 0)
(1.03528 0.0104992 0)
(1.0342 0.0147672 0)
(1.0327 0.0190747 0)
(1.03073 0.0234062 0)
(1.02821 0.0277292 0)
(1.02503 0.0319858 0)
(1.02106 0.0360816 0)
(1.01616 0.0398716 0)
(1.01013 0.0431476 0)
(1.0028 0.0456369 0)
(0.994078 0.0470152 0)
(0.984144 0.0469382 0)
(0.9735 0.0450668 0)
(0.962968 0.0411522 0)
(0.953355 0.0351371 0)
(0.94539 0.0270344 0)
(0.939649 0.0170936 0)
(0.936621 0.00585884 0)
(0.936618 -0.00584611 0)
(0.939643 -0.0170817 0)
(0.945381 -0.027024 0)
(0.953344 -0.0351289 0)
(0.962957 -0.0411464 0)
(0.97349 -0.0450634 0)
(0.984135 -0.0469368 0)
(0.99407 -0.0470153 0)
(1.00279 -0.045638 0)
(1.01013 -0.0431493 0)
(1.01616 -0.0398736 0)
(1.02106 -0.0360836 0)
(1.02502 -0.0319877 0)
(1.02821 -0.0277309 0)
(1.03073 -0.0234077 0)
(1.0327 -0.0190759 0)
(1.03419 -0.0147682 0)
(1.03528 -0.0104999 0)
(1.03602 -0.00627408 0)
(1.03644 -0.00208654 0)
(1.03107 0.00185869 0)
(1.03062 0.00557961 0)
(1.02986 0.00930716 0)
(1.02876 0.0130328 0)
(1.02728 0.0167395 0)
(1.02537 0.0203985 0)
(1.02297 0.0239652 0)
(1.02003 0.0273742 0)
(1.01648 0.0305319 0)
(1.01222 0.0333078 0)
(1.00713 0.0355282 0)
(1.00109 0.0369813 0)
(0.994027 0.0374369 0)
(0.986063 0.0366789 0)
(0.977597 0.0345409 0)
(0.969296 0.0309541 0)
(0.961858 0.0259631 0)
(0.955849 0.019675 0)
(0.951633 0.0123041 0)
(0.949453 0.00419332 0)
(0.949451 -0.00418315 0)
(0.951628 -0.0122945 0)
(0.955842 -0.0196666 0)
(0.96185 -0.0259562 0)
(0.969288 -0.0309489 0)
(0.97759 -0.0345374 0)
(0.986056 -0.0366768 0)
(0.994021 -0.037436 0)
(1.00108 -0.0369812 0)
(1.00712 -0.0355287 0)
(1.01221 -0.0333087 0)
(1.01648 -0.030533 0)
(1.02003 -0.0273754 0)
(1.02297 -0.0239663 0)
(1.02536 -0.0203995 0)
(1.02728 -0.0167404 0)
(1.02876 -0.0130335 0)
(1.02986 -0.00930766 0)
(1.03062 -0.00557992 0)
(1.03107 -0.00185879 0)
(1.02632 0.00163317 0)
(1.02588 0.00489548 0)
(1.02514 0.00814298 0)
(1.02408 0.0113597 0)
(1.02268 0.0145217 0)
(1.0209 0.0175952 0)
(1.01872 0.0205345 0)
(1.0161 0.0232786 0)
(1.013 0.0257483 0)
(1.00938 0.027841 0)
(1.00516 0.0294279 0)
(1.00024 0.0303558 0)
(0.994557 0.0304594 0)
(0.988168 0.0295833 0)
(0.981381 0.0276158 0)
(0.974734 0.0245274 0)
(0.968821 0.0203818 0)
(0.964105 0.0153109 0)
(0.960849 0.00950893 0)
(0.959188 0.00322851 2.94515e-35)
(0.959187 -0.00322018 -2.94515e-35)
(0.960845 -0.00950111 0)
(0.964099 -0.015304 0)
(0.968815 -0.0203761 0)
(0.974727 -0.024523 0)
(0.981374 -0.0276125 0)
(0.988162 -0.0295811 0)
(0.994552 -0.030458 0)
(1.00024 -0.0303552 0)
(1.00516 -0.0294278 0)
(1.00938 -0.0278412 0)
(1.013 -0.0257487 0)
(1.0161 -0.0232792 0)
(1.01872 -0.0205351 0)
(1.0209 -0.0175958 0)
(1.02268 -0.0145223 0)
(1.02408 -0.0113602 0)
(1.02514 -0.00814332 0)
(1.02588 -0.00489569 0)
(1.02632 -0.00163324 0)
(1.02218 0.00141946 0)
(1.02176 0.00424963 0)
(1.02107 0.00705191 0)
(1.02008 0.00980695 0)
(1.0188 0.0124887 0)
(1.01719 0.0150637 0)
(1.01525 0.0174905 0)
(1.01295 0.0197184 0)
(1.01029 0.0216857 0)
(1.00723 0.0233179 0)
(1.00373 0.0245246 0)
(0.999715 0.0251972 0)
(0.995119 0.0252113 0)
(0.989983 0.0244378 0)
(0.98454 0.0227735 0)
(0.979216 0.0201829 0)
(0.974496 0.0167199 0)
(0.970751 0.0125144 0)
(0.968185 0.00774635 0)
(0.966885 0.0026249 0)
(0.966884 -0.00261791 0)
(0.968182 -0.0077398 0)
(0.970747 -0.0125086 0)
(0.974491 -0.016715 0)
(0.979212 -0.020179 0)
(0.984535 -0.0227705 0)
(0.989979 -0.0244356 0)
(0.995115 -0.0252097 0)
(0.999711 -0.0251962 0)
(1.00373 -0.024524 0)
(1.00723 -0.0233176 0)
(1.01028 -0.0216857 0)
(1.01295 -0.0197186 0)
(1.01524 -0.0174908 0)
(1.01719 -0.015064 0)
(1.01879 -0.012489 0)
(1.02008 -0.00980721 0)
(1.02107 -0.00705211 0)
(1.02176 -0.00424976 0)
(1.02218 -0.0014195 0)
(1.01861 0.00122287 0)
(1.01822 0.00365727 0)
(1.01758 0.0060568 0)
(1.01669 0.00840125 0)
(1.01553 0.0106651 0)
(1.0141 0.012818 0)
(1.01239 0.0148243 0)
(1.0104 0.0166434 0)
(1.00811 0.0182292 0)
(1.00553 0.0195282 0)
(1.00261 0.0204769 0)
(0.999312 0.0209965 0)
(0.995588 0.0209889 0)
(0.991472 0.0203432 0)
(0.987143 0.018962 0)
(0.98293 0.0168039 0)
(0.979204 0.0139104 0)
(0.976254 0.0103983 0)
(0.974236 0.00642764 0)
(0.973216 0.00217611 0)
(0.973216 -0.00217023 0)
(0.974234 -0.0064221 0)
(0.976251 -0.0103934 0)
(0.9792 -0.0139062 0)
(0.982926 -0.0168004 0)
(0.987139 -0.0189593 0)
(0.991468 -0.0203411 0)
(0.995585 -0.0209872 0)
(0.999309 -0.0209953 0)
(1.00261 -0.0204761 0)
(1.00553 -0.0195277 0)
(1.00811 -0.0182289 0)
(1.0104 -0.0166433 0)
(1.01239 -0.0148242 0)
(1.0141 -0.012818 0)
(1.01553 -0.0106652 0)
(1.01668 -0.00840135 0)
(1.01758 -0.00605689 0)
(1.01822 -0.00365733 0)
(1.0186 -0.0012229 0)
(1.01554 0.00104576 0)
(1.01519 0.00312477 0)
(1.01461 0.00516607 0)
(1.01382 0.00714992 0)
(1.01279 0.00905272 0)
(1.01153 0.0108475 0)
(1.01004 0.0125045 0)
(1.00832 0.0139911 0)
(1.00637 0.0152722 0)
(1.00417 0.0163083 0)
(1.00173 0.0170529 0)
(0.999016 0.0174464 0)
(0.996003 0.0174114 0)
(0.992728 0.0168567 0)
(0.989331 0.0156994 0)
(0.986053 0.0139027 0)
(0.983164 0.0115 0)
(0.980877 0.00858951 0)
(0.979311 0.00530558 0)
(0.978519 0.00179542 0)
(0.978519 -0.00179049 0)
(0.97931 -0.0053009 0)
(0.980875 -0.00858527 0)
(0.983162 -0.0114964 0)
(0.98605 -0.0138996 0)
(0.989327 -0.0156969 0)
(0.992725 -0.0168546 0)
(0.996 -0.0174097 0)
(0.999014 -0.0174451 0)
(1.00173 -0.0170519 0)
(1.00417 -0.0163075 0)
(1.00636 -0.0152716 0)
(1.00832 -0.0139908 0)
(1.01004 -0.0125043 0)
(1.01153 -0.0108474 0)
(1.01279 -0.00905266 0)
(1.01381 -0.00714989 0)
(1.01461 -0.00516607 0)
(1.01519 -0.00312478 0)
(1.01554 -0.00104577 0)
(1.01293 0.00088862 0)
(1.01262 0.00265312 0)
(1.01211 0.00437962 0)
(1.0114 0.00604962 0)
(1.0105 0.00764179 0)
(1.00941 0.00913257 0)
(1.00812 0.0104967 0)
(1.00663 0.0117076 0)
(1.00497 0.0127372 0)
(1.00311 0.013555 0)
(1.00107 0.0141252 0)
(0.99883 0.0144021 0)
(0.996398 0.0143263 0)
(0.993809 0.0138281 0)
(0.99117 0.0128454 0)
(0.988652 0.0113516 0)
(0.986442 0.00937536 0)
(0.984692 0.00699494 0)
(0.98349 0.00431754 0)
(0.982881 0.00146056 0)
(0.982881 -0.00145644 0)
(0.983489 -0.0043136 0)
(0.98469 -0.00699132 0)
(0.98644 -0.00937214 0)
(0.98865 -0.0113488 0)
(0.991168 -0.012843 0)
(0.993807 -0.0138261 0)
(0.996395 -0.0143246 0)
(0.998828 -0.0144007 0)
(1.00107 -0.0141241 0)
(1.00311 -0.0135541 0)
(1.00496 -0.0127366 0)
(1.00663 -0.0117071 0)
(1.00811 -0.0104964 0)
(1.0094 -0.00913231 0)
(1.0105 -0.00764161 0)
(1.0114 -0.0060495 0)
(1.0121 -0.00437955 0)
(1.01262 -0.00265308 0)
(1.01293 -0.000888609 0)
(1.01072 0.000750825 0)
(1.01045 0.00224008 0)
(1.01 0.00369266 0)
(1.00938 0.00509154 0)
(1.0086 0.00641772 0)
(1.00765 0.00765066 0)
(1.00654 0.00876877 0)
(1.00528 0.00974968 0)
(1.00386 0.0105702 0)
(1.00229 0.0112056 0)
(1.00059 0.0116277 0)
(0.998748 0.0118017 0)
(0.99679 0.0116842 0)
(0.99475 0.0112263 0)
(0.992708 0.0103862 0)
(0.990783 0.00914883 0)
(0.989103 0.00753875 0)
(0.98777 0.00561636 0)
(0.986853 0.00346366 0)
(0.986388 0.00117128 0)
(0.986387 -0.00116783 0)
(0.986853 -0.00346033 0)
(0.987769 -0.00561325 0)
(0.989101 -0.00753593 0)
(0.990782 -0.00914633 0)
(0.992706 -0.010384 0)
(0.994748 -0.0112244 0)
(0.996788 -0.0116826 0)
(0.998746 -0.0118003 0)
(1.00058 -0.0116266 0)
(1.00229 -0.0112047 0)
(1.00385 -0.0105694 0)
(1.00527 -0.00974908 0)
(1.00654 -0.0087683 0)
(1.00765 -0.0076503 0)