/*--------------------------------*- C++ -*----------------------------------*\
  =========                 |
  \\      /  F ield         | OpenFOAM: The Open Source CFD Toolbox
   \\    /   O peration     | Website:  https://openfoam.org
    \\  /    A nd           | Version:  6
     \\/     M anipulation  |
\*---------------------------------------------------------------------------*/
FoamFile
{
    version     2.0;
    format      ascii;
    class       volVectorField;
    location    "0";
    object      U;
}
// * * * * * * * * * * * * * * * * * * * * * * * * * * * * * * * * * * * * * //

dimensions      [0 1 -1 0 0 0 0];

internalField   nonuniform List<vector> 
40000
(
(4.96663e-07 -4.96675e-07 0)
(2.05903e-06 -6.3048e-07 0)
(3.31964e-06 -4.2005e-07 0)
(3.58769e-06 -5.29392e-08 0)
(2.40959e-06 3.62128e-07 0)
(-3.48649e-07 7.81232e-07 0)
(-4.68234e-06 1.18158e-06 0)
(-1.05203e-05 1.55241e-06 0)
(-1.77573e-05 1.88978e-06 0)
(-2.62736e-05 2.19315e-06 0)
(-3.59463e-05 2.46365e-06 0)
(-4.66551e-05 2.70323e-06 0)
(-5.82858e-05 2.91417e-06 0)
(-7.07314e-05 3.09889e-06 0)
(-8.38934e-05 3.2598e-06 0)
(-9.76816e-05 3.39919e-06 0)
(-0.000112014 3.51923e-06 0)
(-0.000126816 3.62192e-06 0)
(-0.000142021 3.70913e-06 0)
(-0.00015757 3.78255e-06 0)
(-0.000173408 3.84376e-06 0)
(-0.000189487 3.89416e-06 0)
(-0.000205767 3.93504e-06 0)
(-0.000222208 3.96755e-06 0)
(-0.000238779 3.99275e-06 0)
(-0.00025545 4.01156e-06 0)
(-0.000272195 4.02483e-06 0)
(-0.000288994 4.03329e-06 0)
(-0.000305826 4.03761e-06 0)
(-0.000322675 4.03836e-06 0)
(-0.000339526 4.03605e-06 0)
(-0.000356367 4.03113e-06 0)
(-0.000373188 4.02398e-06 0)
(-0.00038998 4.01493e-06 0)
(-0.000406733 4.00426e-06 0)
(-0.000423442 3.99221e-06 0)
(-0.000440101 3.97897e-06 0)
(-0.000456705 3.96469e-06 0)
(-0.000473249 3.94952e-06 0)
(-0.000489729 3.93355e-06 0)
(-0.000506142 3.91685e-06 0)
(-0.000522485 3.89948e-06 0)
(-0.000538754 3.88148e-06 0)
(-0.000554947 3.86287e-06 0)
(-0.000571061 3.84364e-06 0)
(-0.000587093 3.82379e-06 0)
(-0.00060304 3.80332e-06 0)
(-0.0006189 3.78218e-06 0)
(-0.000634669 3.76036e-06 0)
(-0.000650344 3.73781e-06 0)
(-0.000665922 3.71451e-06 0)
(-0.000681401 3.69039e-06 0)
(-0.000696775 3.66542e-06 0)
(-0.000712042 3.63955e-06 0)
(-0.000727198 3.61273e-06 0)
(-0.000742238 3.58491e-06 0)
(-0.000757158 3.55605e-06 0)
(-0.000771954 3.52609e-06 0)
(-0.000786621 3.49498e-06 0)
(-0.000801155 3.46268e-06 0)
(-0.000815549 3.42914e-06 0)
(-0.000829799 3.39431e-06 0)
(-0.0008439 3.35813e-06 0)
(-0.000857845 3.32058e-06 0)
(-0.000871628 3.28159e-06 0)
(-0.000885245 3.24113e-06 0)
(-0.000898688 3.19914e-06 0)
(-0.000911951 3.15559e-06 0)
(-0.000925028 3.11044e-06 0)
(-0.000937912 3.06364e-06 0)
(-0.000950596 3.01515e-06 0)
(-0.000963072 2.96493e-06 0)
(-0.000975334 2.91296e-06 0)
(-0.000987375 2.85918e-06 0)
(-0.000999187 2.80357e-06 0)
(-0.00101076 2.74609e-06 0)
(-0.00102209 2.68672e-06 0)
(-0.00103317 2.62543e-06 0)
(-0.00104399 2.56218e-06 0)
(-0.00105454 2.49695e-06 0)
(-0.00106481 2.42973e-06 0)
(-0.0010748 2.36048e-06 0)
(-0.00108449 2.28919e-06 0)
(-0.00109389 2.21586e-06 0)
(-0.00110297 2.14045e-06 0)
(-0.00111173 2.06296e-06 0)
(-0.00112017 1.98339e-06 0)
(-0.00112827 1.90172e-06 0)
(-0.00113603 1.81797e-06 0)
(-0.00114343 1.73212e-06 0)
(-0.00115047 1.64418e-06 0)
(-0.00115715 1.55417e-06 0)
(-0.00116344 1.4621e-06 0)
(-0.00116935 1.36797e-06 0)
(-0.00117486 1.27183e-06 0)
(-0.00117997 1.17368e-06 0)
(-0.00118466 1.07356e-06 0)
(-0.00118894 9.715e-07 0)
(-0.00119279 8.67544e-07 0)
(-0.0011962 7.61731e-07 0)
(-0.00119917 6.5411e-07 0)
(-0.00120169 5.44733e-07 0)
(-0.00120375 4.33656e-07 0)
(-0.00120535 3.20941e-07 0)
(-0.00120648 2.06655e-07 0)
(-0.00120713 9.08693e-08 0)
(-0.0012073 -2.63411e-08 0)
(-0.00120698 -1.44895e-07 0)
(-0.00120617 -2.64708e-07 0)
(-0.00120486 -3.85689e-07 0)
(-0.00120304 -5.07744e-07 0)
(-0.00120071 -6.30773e-07 0)
(-0.00119788 -7.54673e-07 0)
(-0.00119453 -8.79337e-07 0)
(-0.00119066 -1.00465e-06 0)
(-0.00118627 -1.1305e-06 0)
(-0.00118136 -1.25677e-06 0)
(-0.00117592 -1.38332e-06 0)
(-0.00116997 -1.51005e-06 0)
(-0.00116348 -1.63681e-06 0)
(-0.00115647 -1.76347e-06 0)
(-0.00114894 -1.88991e-06 0)
(-0.00114088 -2.01597e-06 0)
(-0.0011323 -2.14154e-06 0)
(-0.0011232 -2.26646e-06 0)
(-0.00111358 -2.39059e-06 0)
(-0.00110345 -2.5138e-06 0)
(-0.00109282 -2.63593e-06 0)
(-0.00108167 -2.75686e-06 0)
(-0.00107003 -2.87644e-06 0)
(-0.0010579 -2.99452e-06 0)
(-0.00104527 -3.11097e-06 0)
(-0.00103217 -3.22565e-06 0)
(-0.00101859 -3.33843e-06 0)
(-0.00100455 -3.44915e-06 0)
(-0.000990051 -3.5577e-06 0)
(-0.000975105 -3.66395e-06 0)
(-0.000959721 -3.76775e-06 0)
(-0.000943909 -3.869e-06 0)
(-0.000927679 -3.96755e-06 0)
(-0.000911044 -4.06329e-06 0)
(-0.000894014 -4.15611e-06 0)
(-0.000876603 -4.24588e-06 0)
(-0.000858821 -4.33248e-06 0)
(-0.000840683 -4.41581e-06 0)
(-0.000822202 -4.49575e-06 0)
(-0.000803392 -4.5722e-06 0)
(-0.000784268 -4.64503e-06 0)
(-0.000764845 -4.71414e-06 0)
(-0.000745137 -4.77941e-06 0)
(-0.000725161 -4.84074e-06 0)
(-0.000704934 -4.89799e-06 0)
(-0.000684472 -4.95106e-06 0)
(-0.000663792 -4.99981e-06 0)
(-0.000642914 -5.04411e-06 0)
(-0.000621854 -5.08382e-06 0)
(-0.000600634 -5.11879e-06 0)
(-0.000579272 -5.14885e-06 0)
(-0.000557789 -5.17384e-06 0)
(-0.000536206 -5.19356e-06 0)
(-0.000514546 -5.20782e-06 0)
(-0.000492832 -5.21639e-06 0)
(-0.000471088 -5.21904e-06 0)
(-0.000449339 -5.2155e-06 0)
(-0.000427611 -5.2055e-06 0)
(-0.000405932 -5.18872e-06 0)
(-0.000384331 -5.16484e-06 0)
(-0.000362838 -5.13349e-06 0)
(-0.000341484 -5.0943e-06 0)
(-0.000320304 -5.04685e-06 0)
(-0.000299333 -4.99069e-06 0)
(-0.000278608 -4.92536e-06 0)
(-0.000258168 -4.85034e-06 0)
(-0.000238055 -4.76509e-06 0)
(-0.000218312 -4.66905e-06 0)
(-0.000198986 -4.56162e-06 0)
(-0.000180125 -4.44216e-06 0)
(-0.00016178 -4.31001e-06 0)
(-0.000144005 -4.1645e-06 0)
(-0.000126857 -4.00493e-06 0)
(-0.000110395 -3.83058e-06 0)
(-9.46808e-05 -3.64074e-06 0)
(-7.97796e-05 -3.43472e-06 0)
(-6.57583e-05 -3.21185e-06 0)
(-5.26863e-05 -2.97153e-06 0)
(-4.06347e-05 -2.71328e-06 0)
(-2.96754e-05 -2.43675e-06 0)
(-1.98805e-05 -2.14188e-06 0)
(-1.13206e-05 -1.82893e-06 0)
(-4.0628e-06 -1.49878e-06 0)
(1.8329e-06 -1.15313e-06 0)
(6.31776e-06 -7.95002e-07 0)
(9.36154e-06 -4.29504e-07 0)
(1.09631e-05 -6.5028e-08 0)
(1.11671e-05 2.84554e-07 0)
(1.00887e-05 5.96292e-07 0)
(7.94843e-06 8.33917e-07 0)
(5.1408e-06 9.40905e-07 0)
(2.38255e-06 8.08428e-07 0)
(3.88812e-07 3.87864e-07 0)
(6.31788e-07 -2.06023e-06 0)
(2.62288e-06 -2.61927e-06 0)
(3.24774e-06 -9.89363e-07 0)
(1.18992e-06 1.76555e-06 0)
(-4.44569e-06 5.01486e-06 0)
(-1.40093e-05 8.39879e-06 0)
(-2.75572e-05 1.17158e-05 0)
(-4.49783e-05 1.48578e-05 0)
(-6.60635e-05 1.77713e-05 0)
(-9.05518e-05 2.0434e-05 0)
(-0.000118159 2.28419e-05 0)
(-0.000148595 2.50013e-05 0)
(-0.000181576 2.69244e-05 0)
(-0.000216831 2.86263e-05 0)
(-0.000254104 3.01235e-05 0)
(-0.000293156 3.14331e-05 0)
(-0.000333769 3.25715e-05 0)
(-0.000375741 3.35549e-05 0)
(-0.000418889 3.43984e-05 0)
(-0.000463049 3.51161e-05 0)
(-0.000508069 3.57214e-05 0)
(-0.000553817 3.62263e-05 0)
(-0.000600172 3.66422e-05 0)
(-0.000647028 3.69791e-05 0)
(-0.000694289 3.72463e-05 0)
(-0.000741871 3.74523e-05 0)
(-0.000789701 3.76046e-05 0)
(-0.000837712 3.77101e-05 0)
(-0.000885849 3.77746e-05 0)
(-0.000934061 3.78038e-05 0)
(-0.000982304 3.78022e-05 0)
(-0.00103054 3.7774e-05 0)
(-0.00107874 3.7723e-05 0)
(-0.00112687 3.76522e-05 0)
(-0.00117491 3.75644e-05 0)
(-0.00122283 3.74618e-05 0)
(-0.00127062 3.73464e-05 0)
(-0.00131826 3.72198e-05 0)
(-0.00136574 3.70833e-05 0)
(-0.00141305 3.6938e-05 0)
(-0.00146016 3.67846e-05 0)
(-0.00150707 3.66238e-05 0)
(-0.00155378 3.6456e-05 0)
(-0.00160027 3.62815e-05 0)
(-0.00164653 3.61005e-05 0)
(-0.00169255 3.59129e-05 0)
(-0.00173833 3.57187e-05 0)
(-0.00178386 3.55178e-05 0)
(-0.00182912 3.53099e-05 0)
(-0.00187411 3.50948e-05 0)
(-0.00191881 3.48721e-05 0)
(-0.00196323 3.46415e-05 0)
(-0.00200734 3.44027e-05 0)
(-0.00205114 3.41553e-05 0)
(-0.00209461 3.38988e-05 0)
(-0.00213774 3.36327e-05 0)
(-0.00218053 3.33568e-05 0)
(-0.00222295 3.30706e-05 0)
(-0.00226499 3.27736e-05 0)
(-0.00230664 3.24654e-05 0)
(-0.00234789 3.21455e-05 0)
(-0.00238872 3.18136e-05 0)
(-0.00242911 3.14693e-05 0)
(-0.00246906 3.1112e-05 0)
(-0.00250853 3.07415e-05 0)
(-0.00254751 3.03573e-05 0)
(-0.002586 2.9959e-05 0)
(-0.00262396 2.95462e-05 0)
(-0.00266138 2.91186e-05 0)
(-0.00269824 2.86758e-05 0)
(-0.00273453 2.82175e-05 0)
(-0.00277021 2.77432e-05 0)
(-0.00280528 2.72527e-05 0)
(-0.00283971 2.67457e-05 0)
(-0.00287347 2.62218e-05 0)
(-0.00290656 2.56808e-05 0)
(-0.00293894 2.51224e-05 0)
(-0.00297059 2.45464e-05 0)
(-0.0030015 2.39524e-05 0)
(-0.00303164 2.33403e-05 0)
(-0.00306098 2.27099e-05 0)
(-0.0030895 2.20611e-05 0)
(-0.00311718 2.13935e-05 0)
(-0.003144 2.07072e-05 0)
(-0.00316993 2.00019e-05 0)
(-0.00319495 1.92777e-05 0)
(-0.00321904 1.85344e-05 0)
(-0.00324216 1.7772e-05 0)
(-0.0032643 1.69906e-05 0)
(-0.00328543 1.619e-05 0)
(-0.00330553 1.53705e-05 0)
(-0.00332458 1.4532e-05 0)
(-0.00334254 1.36748e-05 0)
(-0.0033594 1.27989e-05 0)
(-0.00337514 1.19046e-05 0)
(-0.00338973 1.0992e-05 0)
(-0.00340314 1.00616e-05 0)
(-0.00341537 9.11349e-06 0)
(-0.00342637 8.14814e-06 0)
(-0.00343614 7.16591e-06 0)
(-0.00344465 6.16725e-06 0)
(-0.00345188 5.15261e-06 0)
(-0.00345781 4.12253e-06 0)
(-0.00346243 3.07756e-06 0)
(-0.00346571 2.01829e-06 0)
(-0.00346764 9.45387e-07 0)
(-0.00346819 -1.40476e-07 0)
(-0.00346736 -1.23857e-06 0)
(-0.00346514 -2.34811e-06 0)
(-0.00346149 -3.46831e-06 0)
(-0.00345642 -4.59829e-06 0)
(-0.00344991 -5.73717e-06 0)
(-0.00344195 -6.88401e-06 0)
(-0.00343254 -8.03785e-06 0)
(-0.00342165 -9.19769e-06 0)
(-0.00340929 -1.03625e-05 0)
(-0.00339546 -1.15311e-05 0)
(-0.00338014 -1.27026e-05 0)
(-0.00336333 -1.38756e-05 0)
(-0.00334503 -1.50492e-05 0)
(-0.00332525 -1.6222e-05 0)
(-0.00330398 -1.73929e-05 0)
(-0.00328123 -1.85607e-05 0)
(-0.003257 -1.97242e-05 0)
(-0.00323129 -2.0882e-05 0)
(-0.00320412 -2.20329e-05 0)
(-0.0031755 -2.31756e-05 0)
(-0.00314543 -2.4309e-05 0)
(-0.00311394 -2.54316e-05 0)
(-0.00308102 -2.65422e-05 0)
(-0.0030467 -2.76396e-05 0)
(-0.003011 -2.87225e-05 0)
(-0.00297393 -2.97897e-05 0)
(-0.00293551 -3.08398e-05 0)
(-0.00289577 -3.18718e-05 0)
(-0.00285473 -3.28843e-05 0)
(-0.00281241 -3.38761e-05 0)
(-0.00276885 -3.48462e-05 0)
(-0.00272406 -3.57933e-05 0)
(-0.00267809 -3.67163e-05 0)
(-0.00263095 -3.76142e-05 0)
(-0.00258268 -3.84857e-05 0)
(-0.00253332 -3.93298e-05 0)
(-0.0024829 -4.01454e-05 0)
(-0.00243145 -4.09315e-05 0)
(-0.00237902 -4.16871e-05 0)
(-0.00232564 -4.2411e-05 0)
(-0.00227135 -4.31022e-05 0)
(-0.0022162 -4.37596e-05 0)
(-0.00216022 -4.43823e-05 0)
(-0.00210346 -4.4969e-05 0)
(-0.00204598 -4.55187e-05 0)
(-0.00198781 -4.60301e-05 0)
(-0.001929 -4.65021e-05 0)
(-0.00186961 -4.69333e-05 0)
(-0.00180968 -4.73223e-05 0)
(-0.00174927 -4.76678e-05 0)
(-0.00168845 -4.79681e-05 0)
(-0.00162725 -4.82215e-05 0)
(-0.00156576 -4.84263e-05 0)
(-0.00150402 -4.85805e-05 0)
(-0.0014421 -4.86819e-05 0)
(-0.00138008 -4.87283e-05 0)
(-0.00131803 -4.87172e-05 0)
(-0.00125601 -4.86459e-05 0)
(-0.00119411 -4.85115e-05 0)
(-0.0011324 -4.83109e-05 0)
(-0.00107099 -4.80407e-05 0)
(-0.00100995 -4.76974e-05 0)
(-0.00094938 -4.72769e-05 0)
(-0.000889385 -4.67753e-05 0)
(-0.000830068 -4.61881e-05 0)
(-0.000771541 -4.55108e-05 0)
(-0.000713922 -4.47382e-05 0)
(-0.000657334 -4.38655e-05 0)
(-0.000601908 -4.2887e-05 0)
(-0.000547781 -4.17973e-05 0)
(-0.000495097 -4.05906e-05 0)
(-0.000444007 -3.92611e-05 0)
(-0.00039467 -3.78029e-05 0)
(-0.00034725 -3.62101e-05 0)
(-0.000301919 -3.44772e-05 0)
(-0.000258854 -3.25988e-05 0)
(-0.00021824 -3.05703e-05 0)
(-0.000180262 -2.83882e-05 0)
(-0.00014511 -2.60501e-05 0)
(-0.000112973 -2.35558e-05 0)
(-8.4037e-05 -2.09081e-05 0)
(-5.84794e-05 -1.81138e-05 0)
(-3.64622e-05 -1.51859e-05 0)
(-1.8123e-05 -1.2146e-05 0)
(-3.56221e-06 -9.02802e-06 0)
(7.17516e-06 -5.88454e-06 0)
(1.41253e-05 -2.7952e-06 0)
(1.74417e-05 1.19741e-07 0)
(1.74445e-05 2.6798e-06 0)
(1.46818e-05 4.61727e-06 0)
(1.00357e-05 5.54468e-06 0)
(4.94137e-06 4.94664e-06 0)
(8.07855e-07 2.37879e-06 0)
(4.2299e-07 -3.32567e-06 0)
(9.96331e-07 -3.24565e-06 0)
(-1.18734e-06 1.19136e-06 0)
(-7.63882e-06 7.97051e-06 0)
(-1.93634e-05 1.58688e-05 0)
(-3.68217e-05 2.41355e-05 0)
(-6.01272e-05 3.23152e-05 0)
(-8.91696e-05 4.01425e-05 0)
(-0.000123695 4.74706e-05 0)
(-0.000163366 5.42274e-05 0)
(-0.000207796 6.03866e-05 0)
(-0.000256583 6.59505e-05 0)
(-0.000309321 7.09385e-05 0)
(-0.000365615 7.53804e-05 0)
(-0.000425089 7.93111e-05 0)
(-0.000487386 8.27685e-05 0)
(-0.000552175 8.5791e-05 0)
(-0.000619149 8.84162e-05 0)
(-0.000688027 9.06808e-05 0)
(-0.000758551 9.26193e-05 0)
(-0.000830488 9.42645e-05 0)
(-0.000903627 9.56466e-05 0)
(-0.000977778 9.67939e-05 0)
(-0.00105277 9.77321e-05 0)
(-0.00112845 9.84849e-05 0)
(-0.00120469 9.9074e-05 0)
(-0.00128136 9.95187e-05 0)
(-0.00135836 9.98367e-05 0)
(-0.00143559 0.000100044 0)
(-0.00151297 0.000100154 0)
(-0.00159044 0.00010018 0)
(-0.00166791 0.000100133 0)
(-0.00174535 0.000100022 0)
(-0.0018227 9.98555e-05 0)
(-0.00189992 9.96413e-05 0)
(-0.00197698 9.93854e-05 0)
(-0.00205383 9.90929e-05 0)
(-0.00213045 9.87683e-05 0)
(-0.00220683 9.84152e-05 0)
(-0.00228292 9.80366e-05 0)
(-0.00235872 9.76347e-05 0)
(-0.0024342 9.72114e-05 0)
(-0.00250934 9.67679e-05 0)
(-0.00258414 9.63051e-05 0)
(-0.00265857 9.58235e-05 0)
(-0.00273262 9.53234e-05 0)
(-0.00280627 9.48048e-05 0)
(-0.00287951 9.42672e-05 0)
(-0.00295232 9.37104e-05 0)
(-0.00302469 9.31337e-05 0)
(-0.0030966 9.25363e-05 0)
(-0.00316803 9.19175e-05 0)
(-0.00323896 9.12763e-05 0)
(-0.00330938 9.06118e-05 0)
(-0.00337927 8.9923e-05 0)
(-0.00344861 8.92087e-05 0)
(-0.00351738 8.8468e-05 0)
(-0.00358556 8.76998e-05 0)
(-0.00365312 8.69029e-05 0)
(-0.00372005 8.60763e-05 0)
(-0.00378631 8.52189e-05 0)
(-0.00385189 8.43296e-05 0)
(-0.00391676 8.34073e-05 0)
(-0.0039809 8.2451e-05 0)
(-0.00404428 8.14596e-05 0)
(-0.00410686 8.04322e-05 0)
(-0.00416863 7.93676e-05 0)
(-0.00422955 7.82649e-05 0)
(-0.0042896 7.71233e-05 0)
(-0.00434874 7.59416e-05 0)
(-0.00440694 7.47191e-05 0)
(-0.00446417 7.34548e-05 0)
(-0.0045204 7.21479e-05 0)
(-0.0045756 7.07977e-05 0)
(-0.00462973 6.94032e-05 0)
(-0.00468276 6.79639e-05 0)
(-0.00473466 6.64789e-05 0)
(-0.00478538 6.49477e-05 0)
(-0.0048349 6.33697e-05 0)
(-0.00488317 6.17442e-05 0)
(-0.00493016 6.00709e-05 0)
(-0.00497584 5.83491e-05 0)
(-0.00502017 5.65786e-05 0)
(-0.00506311 5.4759e-05 0)
(-0.00510462 5.28899e-05 0)
(-0.00514466 5.09713e-05 0)
(-0.00518321 4.90029e-05 0)
(-0.00522021 4.69847e-05 0)
(-0.00525563 4.49167e-05 0)
(-0.00528944 4.2799e-05 0)
(-0.0053216 4.06317e-05 0)
(-0.00535206 3.8415e-05 0)
(-0.00538079 3.61494e-05 0)
(-0.00540776 3.38353e-05 0)
(-0.00543293 3.14731e-05 0)
(-0.00545626 2.90636e-05 0)
(-0.00547771 2.66074e-05 0)
(-0.00549726 2.41053e-05 0)
(-0.00551486 2.15583e-05 0)
(-0.00553049 1.89673e-05 0)
(-0.00554411 1.63337e-05 0)
(-0.00555568 1.36585e-05 0)
(-0.00556518 1.09431e-05 0)
(-0.00557259 8.189e-06 0)
(-0.00557785 5.39778e-06 0)
(-0.00558097 2.57109e-06 0)
(-0.00558189 -2.89277e-07 0)
(-0.00558061 -3.18142e-06 0)
(-0.0055771 -6.10333e-06 0)
(-0.00557133 -9.05291e-06 0)
(-0.00556328 -1.20279e-05 0)
(-0.00555295 -1.50261e-05 0)
(-0.0055403 -1.80449e-05 0)
(-0.00552534 -2.1082e-05 0)
(-0.00550803 -2.41346e-05 0)
(-0.00548838 -2.72002e-05 0)
(-0.00546637 -3.02759e-05 0)
(-0.005442 -3.33588e-05 0)
(-0.00541527 -3.6446e-05 0)
(-0.00538616 -3.95346e-05 0)
(-0.00535469 -4.26215e-05 0)
(-0.00532084 -4.57035e-05 0)
(-0.00528464 -4.87775e-05 0)
(-0.00524608 -5.18403e-05 0)
(-0.00520518 -5.48886e-05 0)
(-0.00516194 -5.79193e-05 0)
(-0.00511639 -6.09289e-05 0)
(-0.00506853 -6.39143e-05 0)
(-0.0050184 -6.68721e-05 0)
(-0.004966 -6.9799e-05 0)
(-0.00491136 -7.26917e-05 0)
(-0.00485452 -7.5547e-05 0)
(-0.0047955 -7.83617e-05 0)
(-0.00473433 -8.11324e-05 0)
(-0.00467105 -8.38561e-05 0)
(-0.00460568 -8.65296e-05 0)
(-0.00453829 -8.91498e-05 0)
(-0.00446889 -9.17136e-05 0)
(-0.00439754 -9.42179e-05 0)
(-0.00432428 -9.666e-05 0)
(-0.00424917 -9.90367e-05 0)
(-0.00417224 -0.000101345 0)
(-0.00409356 -0.000103583 0)
(-0.00401318 -0.000105746 0)
(-0.00393115 -0.000107833 0)
(-0.00384754 -0.000109841 0)
(-0.0037624 -0.000111766 0)
(-0.0036758 -0.000113607 0)
(-0.0035878 -0.000115359 0)
(-0.00349847 -0.000117021 0)
(-0.00340789 -0.000118589 0)
(-0.00331612 -0.00012006 0)
(-0.00322323 -0.000121431 0)
(-0.00312932 -0.0001227 0)
(-0.00303445 -0.000123861 0)
(-0.00293871 -0.000124912 0)
(-0.00284218 -0.000125848 0)
(-0.00274495 -0.000126666 0)
(-0.00264713 -0.000127361 0)
(-0.00254879 -0.000127928 0)
(-0.00245005 -0.000128362 0)
(-0.002351 -0.000128657 0)
(-0.00225176 -0.000128806 0)
(-0.00215244 -0.000128804 0)
(-0.00205316 -0.000128644 0)
(-0.00195404 -0.000128317 0)
(-0.00185521 -0.000127815 0)
(-0.00175682 -0.000127129 0)
(-0.00165901 -0.00012625 0)
(-0.00156193 -0.000125168 0)
(-0.00146573 -0.000123872 0)
(-0.0013706 -0.00012235 0)
(-0.0012767 -0.00012059 0)
(-0.00118423 -0.00011858 0)
(-0.00109337 -0.000116307 0)
(-0.00100435 -0.000113756 0)
(-0.000917366 -0.000110914 0)
(-0.000832655 -0.000107765 0)
(-0.000750454 -0.000104296 0)
(-0.000671009 -0.000100493 0)
(-0.000594578 -9.63402e-05 0)
(-0.000521429 -9.18257e-05 0)
(-0.000451837 -8.69373e-05 0)
(-0.000386082 -8.16654e-05 0)
(-0.000324449 -7.60034e-05 0)
(-0.000267225 -6.99489e-05 0)
(-0.000214691 -6.35055e-05 0)
(-0.000167121 -5.66853e-05 0)
(-0.000124769 -4.9512e-05 0)
(-8.78638e-05 -4.20255e-05 0)
(-5.65885e-05 -3.4288e-05 0)
(-3.10661e-05 -2.63934e-05 0)
(-1.1332e-05 -1.84794e-05 0)
(2.69929e-06 -1.07459e-05 0)
(1.1279e-05 -3.47975e-06 0)
(1.48795e-05 2.91086e-06 0)
(1.42566e-05 7.85371e-06 0)
(1.05511e-05 1.0567e-05 0)
(5.52762e-06 1.00389e-05 0)
(9.36144e-07 5.12807e-06 0)
(5.60558e-08 -3.59873e-06 0)
(-1.77015e-06 -1.18102e-06 0)
(-8.00531e-06 7.65372e-06 0)
(-2.01401e-05 2.00814e-05 0)
(-3.90576e-05 3.43169e-05 0)
(-6.52128e-05 4.92028e-05 0)
(-9.87261e-05 6.39967e-05 0)
(-0.000139479 7.82393e-05 0)
(-0.000187189 9.16596e-05 0)
(-0.000241471 0.000104111 0)
(-0.000301876 0.000115529 0)
(-0.000367924 0.0001259 0)
(-0.000439123 0.000135246 0)
(-0.00051499 0.000143609 0)
(-0.000595054 0.000151044 0)
(-0.000678868 0.000157614 0)
(-0.000766011 0.000163382 0)
(-0.00085609 0.000168414 0)
(-0.000948741 0.000172774 0)
(-0.00104363 0.000176524 0)
(-0.00114045 0.000179722 0)
(-0.00123893 0.000182423 0)
(-0.0013388 0.000184679 0)
(-0.00143985 0.000186536 0)
(-0.00154188 0.000188039 0)
(-0.00164469 0.000189227 0)
(-0.00174813 0.000190137 0)
(-0.00185205 0.000190801 0)
(-0.00195632 0.00019125 0)
(-0.00206083 0.00019151 0)
(-0.00216548 0.000191604 0)
(-0.00227018 0.000191555 0)
(-0.00237485 0.000191379 0)
(-0.00247943 0.000191093 0)
(-0.00258385 0.000190711 0)
(-0.00268806 0.000190246 0)
(-0.00279202 0.000189706 0)
(-0.00289569 0.000189102 0)
(-0.00299902 0.00018844 0)
(-0.00310199 0.000187725 0)
(-0.00320456 0.000186963 0)
(-0.0033067 0.000186158 0)
(-0.0034084 0.000185311 0)
(-0.00350962 0.000184425 0)
(-0.00361035 0.000183501 0)
(-0.00371056 0.000182539 0)
(-0.00381022 0.000181541 0)
(-0.00390933 0.000180504 0)
(-0.00400785 0.00017943 0)
(-0.00410576 0.000178316 0)
(-0.00420304 0.000177162 0)
(-0.00429966 0.000175965 0)
(-0.00439561 0.000174725 0)
(-0.00449085 0.00017344 0)
(-0.00458537 0.000172108 0)
(-0.00467912 0.000170727 0)
(-0.0047721 0.000169294 0)
(-0.00486426 0.000167809 0)
(-0.00495558 0.000166269 0)
(-0.00504603 0.000164672 0)
(-0.00513557 0.000163016 0)
(-0.00522418 0.000161299 0)
(-0.00531181 0.000159519 0)
(-0.00539844 0.000157674 0)
(-0.00548403 0.000155762 0)
(-0.00556854 0.000153781 0)
(-0.00565193 0.00015173 0)
(-0.00573416 0.000149606 0)
(-0.0058152 0.000147408 0)
(-0.00589501 0.000145134 0)
(-0.00597354 0.000142783 0)
(-0.00605075 0.000140352 0)
(-0.00612659 0.00013784 0)
(-0.00620103 0.000135246 0)
(-0.00627402 0.000132569 0)
(-0.00634551 0.000129806 0)
(-0.00641546 0.000126957 0)
(-0.00648382 0.00012402 0)
(-0.00655054 0.000120994 0)
(-0.00661558 0.000117879 0)
(-0.00667888 0.000114673 0)
(-0.00674041 0.000111375 0)
(-0.0068001 0.000107985 0)
(-0.00685791 0.000104502 0)
(-0.00691379 0.000100926 0)
(-0.00696768 9.72566e-05 0)
(-0.00701955 9.34929e-05 0)
(-0.00706934 8.9635e-05 0)
(-0.00711699 8.56831e-05 0)
(-0.00716247 8.16374e-05 0)
(-0.00720571 7.74981e-05 0)
(-0.00724667 7.32658e-05 0)
(-0.0072853 6.89412e-05 0)
(-0.00732155 6.45251e-05 0)
(-0.00735537 6.00184e-05 0)
(-0.00738672 5.54224e-05 0)
(-0.00741554 5.07385e-05 0)
(-0.0074418 4.59683e-05 0)
(-0.00746543 4.11134e-05 0)
(-0.00748641 3.61759e-05 0)
(-0.00750469 3.11579e-05 0)
(-0.00752023 2.60617e-05 0)
(-0.00753297 2.089e-05 0)
(-0.0075429 1.56454e-05 0)
(-0.00754996 1.0331e-05 0)
(-0.00755412 4.94994e-06 0)
(-0.00755535 -4.94446e-07 0)
(-0.00755361 -5.99857e-06 0)
(-0.00754888 -1.15586e-05 0)
(-0.00754112 -1.71707e-05 0)
(-0.00753031 -2.28305e-05 0)
(-0.00751643 -2.85338e-05 0)
(-0.00749945 -3.4276e-05 0)
(-0.00747935 -4.00524e-05 0)
(-0.00745612 -4.58581e-05 0)
(-0.00742974 -5.16879e-05 0)
(-0.0074002 -5.75368e-05 0)
(-0.0073675 -6.33993e-05 0)
(-0.00733162 -6.927e-05 0)
(-0.00729257 -7.51431e-05 0)
(-0.00725035 -8.10131e-05 0)
(-0.00720495 -8.6874e-05 0)
(-0.00715638 -9.27199e-05 0)
(-0.00710466 -9.85448e-05 0)
(-0.0070498 -0.000104343 0)
(-0.0069918 -0.000110107 0)
(-0.0069307 -0.000115833 0)
(-0.00686652 -0.000121513 0)
(-0.00679927 -0.000127141 0)
(-0.00672899 -0.000132711 0)
(-0.00665571 -0.000138217 0)
(-0.00657947 -0.000143654 0)
(-0.0065003 -0.000149013 0)
(-0.00641825 -0.000154291 0)
(-0.00633337 -0.00015948 0)
(-0.00624569 -0.000164575 0)
(-0.00615527 -0.00016957 0)
(-0.00606217 -0.00017446 0)
(-0.00596644 -0.000179237 0)
(-0.00586815 -0.000183898 0)
(-0.00576735 -0.000188436 0)
(-0.00566412 -0.000192846 0)
(-0.00555852 -0.000197122 0)
(-0.00545062 -0.000201259 0)
(-0.00534051 -0.000205252 0)
(-0.00522825 -0.000209096 0)
(-0.00511393 -0.000212785 0)
(-0.00499764 -0.000216313 0)
(-0.00487946 -0.000219676 0)
(-0.00475947 -0.000222867 0)
(-0.00463778 -0.000225882 0)
(-0.00451448 -0.000228713 0)
(-0.00438967 -0.000231356 0)
(-0.00426345 -0.000233803 0)
(-0.00413592 -0.000236049 0)
(-0.00400721 -0.000238085 0)
(-0.00387742 -0.000239904 0)
(-0.00374667 -0.000241498 0)
(-0.00361508 -0.000242858 0)
(-0.00348279 -0.000243975 0)
(-0.00334993 -0.000244839 0)
(-0.00321664 -0.000245438 0)
(-0.00308306 -0.000245762 0)
(-0.00294935 -0.000245797 0)
(-0.00281567 -0.000245529 0)
(-0.00268218 -0.000244945 0)
(-0.00254906 -0.000244028 0)
(-0.00241649 -0.000242761 0)
(-0.00228468 -0.000241126 0)
(-0.00215381 -0.000239104 0)
(-0.00202412 -0.000236675 0)
(-0.00189582 -0.000233817 0)
(-0.00176915 -0.000230507 0)
(-0.00164436 -0.000226723 0)
(-0.00152171 -0.000222438 0)
(-0.00140149 -0.000217628 0)
(-0.00128396 -0.000212267 0)
(-0.00116945 -0.000206328 0)
(-0.00105825 -0.000199786 0)
(-0.000950703 -0.000192615 0)
(-0.000847138 -0.000184789 0)
(-0.000747907 -0.000176288 0)
(-0.000653366 -0.000167091 0)
(-0.000563879 -0.000157185 0)
(-0.00047981 -0.00014656 0)
(-0.000401524 -0.000135217 0)
(-0.000329375 -0.00012317 0)
(-0.000263703 -0.000110447 0)
(-0.00020482 -9.70997e-05 0)
(-0.000152997 -8.3211e-05 0)
(-0.000108447 -6.89039e-05 0)
(-7.13025e-05 -5.43572e-05 0)
(-4.1584e-05 -3.98255e-05 0)
(-1.91665e-05 -2.56657e-05 0)
(-3.73293e-06 -1.23726e-05 0)
(5.27923e-06 -6.24161e-07 0)
(8.73371e-06 8.6644e-06 0)
(7.88661e-06 1.42855e-05 0)
(4.61057e-06 1.46885e-05 0)
(8.26735e-07 7.92302e-06 0)
(-3.62204e-07 -2.41602e-06 0)
(-5.05961e-06 4.49712e-06 0)
(-1.60155e-05 1.94468e-05 0)
(-3.45862e-05 3.90412e-05 0)
(-6.13793e-05 6.10441e-05 0)
(-9.67488e-05 8.39417e-05 0)
(-0.000140764 0.000106721 0)
(-0.000193271 0.000128726 0)
(-0.000253953 0.000149552 0)
(-0.000322386 0.000168964 0)
(-0.000398075 0.000186847 0)
(-0.000480484 0.000203165 0)
(-0.000569062 0.000217933 0)
(-0.000663258 0.000231204 0)
(-0.000762532 0.00024305 0)
(-0.000866368 0.000253557 0)
(-0.000974273 0.000262819 0)
(-0.00108578 0.00027093 0)
(-0.00120047 0.000277986 0)
(-0.00131794 0.000284078 0)
(-0.00143781 0.000289296 0)
(-0.00155976 0.000293723 0)
(-0.00168348 0.000297438 0)
(-0.00180869 0.000300515 0)
(-0.00193515 0.000303022 0)
(-0.00206262 0.00030502 0)
(-0.00219091 0.000306568 0)
(-0.00231983 0.000307716 0)
(-0.00244923 0.000308513 0)
(-0.00257896 0.000308999 0)
(-0.0027089 0.000309214 0)
(-0.00283893 0.00030919 0)
(-0.00296895 0.000308956 0)
(-0.00309889 0.00030854 0)
(-0.00322865 0.000307963 0)
(-0.00335817 0.000307246 0)
(-0.0034874 0.000306404 0)
(-0.00361627 0.000305452 0)
(-0.00374474 0.000304401 0)
(-0.00387276 0.000303262 0)
(-0.0040003 0.000302042 0)
(-0.00412731 0.000300747 0)
(-0.00425377 0.000299382 0)
(-0.00437964 0.00029795 0)
(-0.00450489 0.000296454 0)
(-0.00462949 0.000294894 0)
(-0.00475342 0.000293272 0)
(-0.00487664 0.000291587 0)
(-0.00499912 0.000289838 0)
(-0.00512084 0.000288024 0)
(-0.00524176 0.000286143 0)
(-0.00536186 0.000284193 0)
(-0.00548111 0.000282171 0)
(-0.00559946 0.000280076 0)
(-0.0057169 0.000277903 0)
(-0.00583339 0.00027565 0)
(-0.00594889 0.000273315 0)
(-0.00606337 0.000270894 0)
(-0.00617678 0.000268384 0)
(-0.0062891 0.000265781 0)
(-0.00640027 0.000263084 0)
(-0.00651027 0.000260288 0)
(-0.00661905 0.00025739 0)
(-0.00672656 0.000254388 0)
(-0.00683276 0.000251278 0)
(-0.00693761 0.000248058 0)
(-0.00704105 0.000244724 0)
(-0.00714305 0.000241274 0)
(-0.00724355 0.000237704 0)
(-0.0073425 0.000234013 0)
(-0.00743985 0.000230197 0)
(-0.00753555 0.000226254 0)
(-0.00762954 0.000222181 0)
(-0.00772178 0.000217976 0)
(-0.0078122 0.000213638 0)
(-0.00790075 0.000209163 0)
(-0.00798738 0.00020455 0)
(-0.00807202 0.000199796 0)
(-0.00815462 0.000194901 0)
(-0.00823512 0.000189862 0)
(-0.00831346 0.000184678 0)
(-0.00838958 0.000179348 0)
(-0.00846342 0.000173871 0)
(-0.00853492 0.000168245 0)
(-0.00860402 0.000162471 0)
(-0.00867066 0.000156546 0)
(-0.00873477 0.000150472 0)
(-0.0087963 0.000144248 0)
(-0.00885518 0.000137874 0)
(-0.00891135 0.00013135 0)
(-0.00896476 0.000124677 0)
(-0.00901533 0.000117856 0)
(-0.00906302 0.000110888 0)
(-0.00910775 0.000103774 0)
(-0.00914948 9.65164e-05 0)
(-0.00918814 8.91164e-05 0)
(-0.00922368 8.15765e-05 0)
(-0.00925604 7.38992e-05 0)
(-0.00928516 6.60873e-05 0)
(-0.00931099 5.81441e-05 0)
(-0.00933348 5.00729e-05 0)
(-0.00935258 4.18776e-05 0)
(-0.00936824 3.35621e-05 0)
(-0.0093804 2.51311e-05 0)
(-0.00938903 1.65891e-05 0)
(-0.00939408 7.9412e-06 0)
(-0.00939551 -8.07121e-07 0)
(-0.00939328 -9.65021e-06 0)
(-0.00938735 -1.85821e-05 0)
(-0.00937768 -2.75963e-05 0)
(-0.00936425 -3.66863e-05 0)
(-0.00934703 -4.58452e-05 0)
(-0.00932599 -5.50657e-05 0)
(-0.00930111 -6.43403e-05 0)
(-0.00927236 -7.36612e-05 0)
(-0.00923974 -8.30204e-05 0)
(-0.00920322 -9.24097e-05 0)
(-0.0091628 -0.00010182 0)
(-0.00911846 -0.000111244 0)
(-0.00907022 -0.000120671 0)
(-0.00901806 -0.000130094 0)
(-0.00896199 -0.000139501 0)
(-0.00890202 -0.000148885 0)
(-0.00883816 -0.000158235 0)
(-0.00877043 -0.000167543 0)
(-0.00869884 -0.000176798 0)
(-0.00862343 -0.00018599 0)
(-0.00854421 -0.00019511 0)
(-0.00846122 -0.000204148 0)
(-0.00837449 -0.000213094 0)
(-0.00828406 -0.000221938 0)
(-0.00818998 -0.000230671 0)
(-0.00809229 -0.000239284 0)
(-0.00799105 -0.000247765 0)
(-0.0078863 -0.000256106 0)
(-0.00777812 -0.000264298 0)
(-0.00766655 -0.000272331 0)
(-0.00755167 -0.000280196 0)
(-0.00743354 -0.000287884 0)
(-0.00731224 -0.000295385 0)
(-0.00718785 -0.000302692 0)
(-0.00706045 -0.000309796 0)
(-0.00693012 -0.000316686 0)
(-0.00679695 -0.000323356 0)
(-0.00666103 -0.000329797 0)
(-0.00652245 -0.000335999 0)
(-0.00638133 -0.000341955 0)
(-0.00623775 -0.000347656 0)
(-0.00609182 -0.000353092 0)
(-0.00594366 -0.000358255 0)
(-0.00579338 -0.000363136 0)
(-0.00564109 -0.000367725 0)
(-0.00548692 -0.000372013 0)
(-0.00533099 -0.000375988 0)
(-0.00517344 -0.000379639 0)
(-0.00501439 -0.000382956 0)
(-0.004854 -0.000385926 0)
(-0.0046924 -0.000388535 0)
(-0.00452975 -0.000390769 0)
(-0.0043662 -0.000392613 0)
(-0.00420193 -0.000394051 0)
(-0.00403709 -0.000395065 0)
(-0.00387189 -0.000395636 0)
(-0.00370649 -0.000395744 0)
(-0.0035411 -0.000395366 0)
(-0.00337592 -0.000394479 0)
(-0.00321117 -0.000393058 0)
(-0.00304708 -0.000391075 0)
(-0.00288389 -0.000388501 0)
(-0.00272184 -0.000385307 0)
(-0.00256121 -0.00038146 0)
(-0.00240226 -0.000376925 0)
(-0.00224529 -0.000371667 0)
(-0.00209061 -0.000365648 0)
(-0.00193853 -0.00035883 0)
(-0.00178938 -0.000351174 0)
(-0.00164353 -0.00034264 0)
(-0.00150134 -0.000333186 0)
(-0.00136318 -0.000322774 0)
(-0.00122945 -0.000311364 0)
(-0.00110055 -0.000298922 0)
(-0.000976911 -0.000285414 0)
(-0.00085895 -0.000270814 0)
(-0.000747098 -0.000255105 0)
(-0.000641788 -0.000238278 0)
(-0.000543444 -0.000220341 0)
(-0.000452478 -0.000201323 0)
(-0.000369281 -0.000181276 0)
(-0.000294206 -0.000160292 0)
(-0.000227556 -0.000138508 0)
(-0.000169563 -0.000116123 0)
(-0.000120365 -9.34184e-05 0)
(-7.99744e-05 -7.07853e-05 0)
(-4.82445e-05 -4.87556e-05 0)
(-2.48266e-05 -2.80474e-05 0)
(-9.12224e-06 -9.61747e-06 0)
(-2.3402e-07 5.27594e-06 0)
(3.11037e-06 1.50083e-05 0)
(2.72956e-06 1.75046e-05 0)
(5.92261e-07 1.00612e-05 0)
(-7.89304e-07 3.72342e-07 0)
(-8.52334e-06 1.41807e-05 0)
(-2.4493e-05 3.70952e-05 0)
(-4.98651e-05 6.53894e-05 0)
(-8.48826e-05 9.65085e-05 0)
(-0.000129729 0.00012866 0)
(-0.000184373 0.000160602 0)
(-0.000248591 0.000191503 0)
(-0.000322017 0.000220828 0)
(-0.000404184 0.000248256 0)
(-0.000494555 0.000273614 0)
(-0.000592553 0.000296836 0)
(-0.000697577 0.000317931 0)
(-0.000809028 0.000336955 0)
(-0.000926314 0.000353996 0)
(-0.00104886 0.000369163 0)
(-0.00117613 0.000382579 0)
(-0.00130759 0.000394368 0)
(-0.00144276 0.000404659 0)
(-0.0015812 0.000413577 0)
(-0.00172248 0.000421243 0)
(-0.00186622 0.000427774 0)
(-0.00201206 0.000433279 0)
(-0.0021597 0.00043786 0)
(-0.00230883 0.000441613 0)
(-0.0024592 0.000444627 0)
(-0.00261057 0.000446982 0)
(-0.00276272 0.000448752 0)