/*--------------------------------*- C++ -*----------------------------------*\
  =========                 |
  \\      /  F ield         | OpenFOAM: The Open Source CFD Toolbox
   \\    /   O peration     | Website:  https://openfoam.org
    \\  /    A nd           | Version:  6
     \\/     M anipulation  |
\*---------------------------------------------------------------------------*/
FoamFile
{
    version     2.0;
    format      ascii;
    class       volScalarField;
    location    "0";
    object      T;
}
// * * * * * * * * * * * * * * * * * * * * * * * * * * * * * * * * * * * * * //

dimensions      [0 0 0 1 0 0 0];

internalField   nonuniform List<scalar> 
10000
(
-9.62954
-28.3113
-45.1058
-59.1398
-70.2858
-78.7815
-85.0136
-89.3747
-92.2043
-93.7796
-94.3293
-94.0487
-93.1116
-91.6738
-89.8744
-87.8296
-85.6268
-83.4145
-81.2412
-79.3098
-77.6617
-76.2893
-75.1605
-74.2307
-73.45
-72.7636
-72.1154
-71.4473
-70.7024
-69.8263
-68.7699
-67.4911
-65.9584
-64.152
-62.067
-59.7146
-57.1234
-54.3392
-51.4253
-48.4597
-45.5333
-42.7456
-40.2001
-37.9994
-36.2393
-35.0038
-34.3601
-34.3548
-35.0112
-36.3279
-38.2788
-40.8151
-43.8669
-47.348
-51.1588
-55.1914
-59.3335
-63.4727
-67.5
-71.3148
-74.8274
-77.96
-80.6449
-82.8246
-84.4567
-85.5121
-85.9717
-85.8261
-85.0737
-83.7204
-81.7767
-79.257
-76.1771
-72.5527
-68.3972
-63.7207
-58.5275
-52.8155
-46.5737
-39.7816
-32.4067
-24.4032
-15.7087
-6.24052
4.10927
15.4819
28.0618
42.0885
57.8672
75.7688
96.1972
119.483
145.631
173.811
201.409
223.548
231.345
212.506
155.555
59.2067
-10.2504
-29.9685
-47.4738
-62.0262
-73.5635
-82.3679
-88.8429
-93.3854
-96.3292
-97.9497
-98.4734
-98.1014
-97.0136
-95.3782
-93.3442
-91.0449
-88.5953
-86.0507
-83.3657
-81.2098
-79.4034
-77.9133
-76.6937
-75.6978
-74.8733
-74.1664
-73.5184
-72.8708
-72.1634
-71.3396
-70.3458
-69.1365
-67.6748
-65.9361
-63.9101
-61.6028
-59.0376
-56.2563
-53.3187
-50.3005
-47.292
-44.393
-41.71
-39.3485
-37.41
-35.9835
-35.1433
-34.9415
-35.4079
-36.5457
-38.3338
-40.7255
-43.6541
-47.033
-50.7637
-54.7364
-58.8388
-62.9553
-66.9738
-70.7889
-74.3077
-77.4609
-80.1824
-82.3958
-84.0648
-85.1597
-85.6601
-85.5546
-84.8416
-83.5255
-81.6175
-79.1312
-76.0835
-72.4899
-68.3653
-63.7202
-58.5607
-52.8855
-46.686
-39.9431
-32.627
-24.6937
-16.0836
-6.71615
3.51412
14.7465
27.1642
41.0083
56.592
74.3094
94.619
117.964
144.561
173.985
203.485
228.629
239.817
223.114
164.909
63.1477
-11.2079
-32.7846
-52.0643
-68.2844
-81.3553
-91.5219
-99.1547
-104.616
-108.22
-110.232
-110.89
-110.411
-109.011
-106.893
-104.246
-101.228
-97.9235
-94.1534
-90.6658
-87.7104
-85.3843
-83.417
-81.7674
-80.3926
-79.2456
-78.2713
-77.4123
-76.6064
-75.7917
-74.9059
-73.891
-72.6936
-71.2694
-69.5844
-67.6182
-65.3662
-62.841
-60.0741
-57.1153
-54.033
-50.9105
-47.8454
-44.9422
-42.3102
-40.0548
-38.2745
-37.0517
-36.4513
-36.513
-37.2531
-38.6592
-40.6954
-43.3
-46.3938
-49.8793
-53.6502
-57.5918
-61.5896
-65.5297
-69.2988
-72.791
-75.9187
-78.6433
-80.9324
-82.6606
-83.8312
-84.4184
-84.405
-83.7854
-82.5639
-80.7492
-78.3561
-75.4003
-71.8995
-67.8689
-63.3221
-58.2669
-52.7057
-46.6327
-40.0328
-32.8789
-25.13
-16.7273
-7.59009
2.39055
13.3598
25.5101
39.0955
54.4474
71.9879
92.223
115.673
142.643
172.633
204.309
231.832
245.138
229.198
169.522
64.6639
-12.5997
-37.0269
-59.1894
-78.238
-93.9818
-106.571
-116.287
-123.43
-128.272
-131.069
-132.071
-131.535
-129.723
-126.9
-123.318
-119.206
-114.749
-110.112
-104.101
-99.5459
-96.4092
-93.4955
-90.953
-88.7701
-86.9018
-85.2942
-83.8881
-82.621
-81.4278
-80.2434
-79.004
-77.65
-76.1281
-74.3943
-72.4161
-70.1754
-67.6706
-64.9179
-61.9524
-58.828
-55.6162
-52.4036
-49.2888
-46.3773
-43.7763
-41.5882
-39.9052
-38.8028
-38.3358
-38.5343
-39.402
-40.9162
-43.029
-45.6705
-48.7523
-52.1724
-55.8202
-59.5807
-63.34
-66.9885
-70.414
-73.4973
-76.1583
-78.4068
-80.2406
-81.4948
-82.194
-82.3119
-81.8312
-80.7529
-79.0853
-76.8416
-74.0388
-70.6952
-66.8289
-62.4559
-57.5883
-52.2327
-46.3881
-40.0436
-33.1756
-25.7446
-17.6899
-8.92466
0.671995
11.2634
23.0661
36.3626
51.5151
68.9772
89.2901
113.023
140.562
171.621
204.157
232.664
246.509
230.158
169.305
63.9234
-14.3083
-42.2694
-68.0547
-90.6737
-109.78
-125.388
-137.674
-146.875
-153.239
-157.028
-158.523
-158.027
-155.857
-152.339
-147.789
-142.507
-136.781
-130.986
-126.087
-119.678
-111.995
-107.378
-103.539
-100.221
-97.3212
-94.7774
-92.5311
-90.5219
-88.6857
-86.957
-85.27
-83.5611
-81.7707
-79.8462
-77.7446
-75.4348
-72.9002
-70.1403
-67.1729
-64.0335
-60.7764
-57.4719
-54.2053
-51.0717
-48.1727
-45.6095
-43.4783
-41.8624
-40.8292
-40.4234
-40.6662
-41.5518
-43.0499
-45.1052
-47.6434
-50.5722
-53.7889
-57.1829
-60.6424
-64.0568
-67.3224
-70.3336
-72.9396
-75.0697
-76.8366
-78.1681
-78.9656
-79.2272
-78.9136
-78.0135
-76.5336
-74.486
-71.8884
-68.7604
-65.1233
-60.9965
-56.3972
-51.3373
-45.8215
-39.8438
-33.3841
-26.4028
-18.8347
-10.5809
-1.50013
8.60094
19.9777
32.9572
47.9458
65.4335
85.9851
110.187
138.479
170.155
203.2
231.875
245.258
227.826
166.126
61.9072
-16.1263
-47.8317
-77.4121
-103.693
-126.145
-144.649
-159.312
-170.354
-178.047
-182.696
-184.633
-184.211
-181.797
-177.761
-172.465
-166.248
-159.412
-152.172
-144.285
-132.682
-125.791
-121.718
-117.219
-112.906
-108.956
-105.396
-102.2
-99.3213
-96.7045
-94.2897
-92.0142
-89.8146
-87.6294
-85.4016
-83.0811
-80.6273
-78.0112
-75.2179
-72.2477
-69.118
-65.8631
-62.5343
-59.1982
-55.9344
-52.8317
-49.9836
-47.4828
-45.4155
-43.8557
-42.8607
-42.4663
-42.6852
-43.5051
-44.8903
-46.7827
-49.1062
-51.7698
-54.673
-57.7095
-60.7725
-63.7582
-66.5699
-69.1128
-71.1837
-72.7176
-74.0265
-74.812
-75.1715
-75.0317
-74.3253
-73.0554
-71.2338
-68.8781
-66.0101
-62.6534
-58.8323
-54.5691
-49.882
-44.7818
-39.2682
-33.3245
-26.9106
-19.9542
-12.3409
-3.90242
5.59419
16.4558
29.0684
43.8954
61.4684
82.3609
107.119
136.058
168.39
201.733
230.113
242.47
223.627
161.386
59.3282
-17.8481
-53.0501
-86.0615
-115.495
-140.652
-161.328
-177.634
-189.843
-198.3
-203.385
-205.493
-205.029
-202.4
-198.008
-192.239
-185.453
-177.985
-170.161
-162.451
-156.538
-147.076
-136.605
-130.102
-124.567
-119.653
-115.215
-111.184
-107.518
-104.174
-101.101
-98.245
-95.5472
-92.9485
-90.3922
-87.8262
-85.2051
-82.4925
-79.663
-76.7036
-73.6154
-70.4146
-67.1328
-63.8169
-60.5274
-57.3363
-54.3233
-51.5718
-49.1639
-47.1748
-45.6681
-44.691
-44.271
-44.4139
-45.1029
-46.2998
-47.9467
-49.9691
-52.2802
-54.7848
-57.3838
-59.9781
-62.4727
-64.7798
-66.8122
-68.2917
-69.1437
-69.9599
-70.2879
-70.2458
-69.7296
-68.6718
-67.0858
-64.9899
-62.4073
-59.3647
-55.8907
-52.0132
-47.7568
-43.1393
-38.1667
-32.8259
-27.0767
-20.8392
-13.9815
-6.30452
2.47083
12.7125
24.8774
39.4985
57.1554
78.4213
103.77
133.41
166.342
199.842
227.661
238.699
218.351
155.885
56.5802
-19.3349
-57.4885
-93.2412
-124.992
-151.919
-173.817
-190.868
-203.45
-212.008
-217
-218.886
-218.118
-215.138
-210.376
-204.233
-197.085
-189.265
-181.072
-172.77
-164.699
-153.164
-141.991
-137.04
-131.962
-126.936
-122.117
-117.601
-113.426
-109.587
-106.055
-102.786
-99.7276
-96.8266
-94.0302
-91.2887
-88.5571
-85.797
-82.9776
-80.0774
-77.086
-74.005
-70.849
-67.6465
-64.4389
-61.2797
-58.232
-55.3659
-52.7538
-50.4664
-48.5678
-47.1113
-46.135
-45.6591
-45.6845
-46.1917
-47.1425
-48.4813
-50.1382
-52.033
-54.0781
-56.1835
-58.26
-60.2232
-61.9971
-63.4894
-64.3507
-64.583
-64.787
-64.7244
-64.3307
-63.4634
-62.1018
-60.2634
-57.9726
-55.2585
-52.1537
-48.6916
-44.9035
-40.8147
-36.4376
-31.7646
-26.7556
-21.3245
-15.322
-8.51691
-0.580619
8.92232
20.5295
34.8552
52.5356
74.1321
99.9665
130.4
163.907
197.465
224.57
234.171
212.387
150.034
53.8488
-20.5401
-61.0161
-98.764
-131.998
-159.846
-182.168
-199.262
-211.614
-219.753
-224.204
-225.475
-224.061
-220.443
-215.082
-208.411
-200.823
-192.664
-184.213
-175.583
-166.185
-151.558
-144.322
-140.172
-135.076
-129.806
-124.724
-119.978
-115.607
-111.6
-107.92
-104.521
-101.355
-98.3717
-95.5245
-92.7691
-90.0648
-87.3752
-84.669
-81.9213
-79.1148
-76.2412
-73.3026
-70.3121
-67.2943
-64.2855
-61.3319
-58.4882
-55.8146
-53.3731
-51.2237
-49.4203
-48.0066
-47.0133
-46.4548
-46.3287
-46.6151
-47.2775
-48.2646
-49.513
-50.9504
-52.499
-54.0791
-55.613
-57.0294
-58.2697
-59.1931
-59.3822
-59.118
-58.7001
-58.2658
-57.5574
-56.3923
-54.7915
-52.7808
-50.3916
-47.6601
-44.6247
-41.3234
-37.789
-34.0418
-30.08
-25.8662
-21.3097
-16.2455
-10.4117
-3.42955
5.20733
16.1248
30.0313
47.6391
69.5171
95.7392
127.006
160.983
194.479
220.776
228.939
205.905
144.023
51.2026
-21.4957
-63.7558
-102.907
-137.027
-165.263
-187.574
-204.367
-216.201
-223.653
-227.281
-227.627
-225.225
-220.604
-214.274
-206.715
-198.362
-189.6
-180.774
-172.256
-164.757
-160.725
-152.074
-140.128
-133.263
-127.269
-121.997
-117.312
-113.108
-109.304
-105.833
-102.638
-99.6684
-96.8794
-94.2295
-91.6808
-89.1982
-86.7498
-84.3064
-81.8433
-79.3404
-76.7839
-74.1673
-71.4928
-68.7721
-66.0268
-63.288
-60.5958
-57.997
-55.5432
-53.2871
-51.2795
-49.5655
-48.1812
-47.1511
-46.4861
-46.1821
-46.2202
-46.567
-47.1772
-47.9948
-48.9568
-49.9958
-51.0437
-52.0362
-52.9186
-53.6563
-53.9571
-53.3634
-52.6199
-51.8616
-51.1155
-50.1047
-48.706
-46.9493
-44.8669
-42.4977
-39.8848
-37.0727
-34.1018
-31.0008
-27.7755
-24.393
-20.7606
-16.7011
-11.9247
-6.0042
1.63786
11.7201
25.0573
42.4769
64.7261
92.5137
123.36
157.408
190.692
216.145
222.966
198.956
137.92
48.649
-22.2767
-65.9628
-106.167
-140.888
-169.332
-191.556
-208.028
-219.33
-226.039
-228.717
-227.928
-224.248
-218.265
-210.555
-201.669
-192.103
-182.295
-172.632
-163.545
-155.903
-152.756
-145.818
-131.141
-123.97
-118.261
-113.478
-109.343
-105.694
-102.43
-99.4784
-96.7811
-94.29
-91.963
-89.7625
-87.6543
-85.6072
-83.5927
-81.5845
-79.5588
-77.4953
-75.3778
-73.195
-70.9422
-68.6217
-66.2441
-63.8287
-61.4026
-59.0007
-56.6637
-54.4358
-52.3624
-50.4867
-48.847
-47.4736
-46.3871
-45.5958
-45.0957
-44.87
-44.89
-45.1165
-45.502
-45.9929
-46.5332
-47.0675
-47.547
-47.9386
-48.237
-47.8757
-46.5343
-45.3013
-44.3433
-43.4034
-42.159
-40.6206
-38.817
-36.7886
-34.5827
-32.2498
-29.8382
-27.3857
-24.9068
-22.3752
-19.6998
-16.6944
-13.0457
-8.2824
-1.75842
7.33569
19.915
36.8787
58.9319
86.4597
118.23
152.67
185.819
210.507
216.18
191.535
131.728
46.1669
-22.9631
-67.8973
-109.026
-144.316
-173.044
-195.328
-211.645
-222.542
-228.561
-230.248
-228.187
-223.002
-215.352
-205.9
-195.279
-184.067
-172.765
-161.785
-151.455
-142
-133.27
-121.939
-113.246
-108.412
-104.071
-100.238
-96.8781
-93.9382
-91.3612
-89.0905
-87.0724
-85.2568
-83.5982
-82.0554
-80.592
-79.1754
-77.7766
-76.3695
-74.9309
-73.4406
-71.8812
-70.2393
-68.5063
-66.6788
-64.7599
-62.7599
-60.6963
-58.5939
-56.4835
-54.4013
-52.3861
-50.4777
-48.7137
-47.1275
-45.7455
-44.5854
-43.6549
-42.951
-42.4599
-42.1579
-42.0126
-41.9848
-42.0311
-42.107
-42.1711
-42.1923
-42.1572
-42.0599
-41.0081
-39.1079
-37.579
-36.4033
-35.2959
-33.9428
-32.3864
-30.6715
-28.85
-26.9784
-25.1127
-23.3002
-21.5656
-19.8912
-18.1901
-16.2719
-13.8043
-10.277
-4.98015
2.98501
14.6365
30.938
52.372
80.0969
112.198
146.838
179.803
203.8
208.549
183.638
125.431
43.7287
-23.6128
-69.742
-111.804
-147.766
-176.963
-199.531
-215.894
-226.528
-231.914
-232.582
-229.136
-222.264
-212.708
-201.229
-188.561
-175.372
-162.239
-149.623
-137.84
-126.95
-116.406
-103.932
-95.7474
-91.4864
-87.5806
-84.1608
-81.2573
-78.8472
-76.8788
-75.2866
-74.0013
-72.9556
-72.0874
-71.3413
-70.6693
-70.0304
-69.3898
-68.7179
-67.9895
-67.1833
-66.2814
-65.2693
-64.1364
-62.8762
-61.4874
-59.9743
-58.3476
-56.6243
-54.8276
-52.9863
-51.1333
-49.3038
-47.5336
-45.8564
-44.3023
-42.8951
-41.6512
-40.5784
-39.6754
-38.9319
-38.3293
-37.842
-37.4394
-37.088
-36.7555
-36.4157
-36.0548
-35.6794
-35.0616
-33.1233
-31.0725
-29.477
-28.2783
-27.0622
-25.7165
-24.285
-22.8221
-21.3893
-20.0505
-18.8626
-17.8614
-17.0396
-16.3174
-15.5039
-14.2532
-12.0222
-8.04265
-1.32727
9.2742
24.9719
46.947
73.4986
105.331
139.905
172.606
195.989
200.059
175.254
119.005
41.3054
-24.2518
-71.5719
-114.621
-151.383
-181.229
-204.261
-220.81
-231.253
-236.008
-235.586
-230.629
-221.899
-210.242
-196.527
-181.6
-166.226
-151.066
-136.65
-123.354
-111.319
-100.237
-88.7923
-80.5235
-74.5844
-70.0874
-66.4111
-63.5301
-61.376
-59.8538
-58.8572
-58.2791
-58.0189
-57.9858
-58.101
-58.2973
-58.5194
-58.7217
-58.8674
-58.9269
-58.8764
-58.6965
-58.372
-57.8912
-57.2463
-56.4337
-55.4541
-54.3139
-53.0246
-51.6039
-50.0747
-48.4645
-46.8043
-45.1272
-43.4662
-41.8527
-40.3141
-38.8729
-37.5449
-36.3386
-35.2547
-34.2865
-33.4204
-32.6377
-31.9159
-31.2321
-30.5673
-29.9135
-29.2917
-28.8015
-27.62
-24.814
-22.6969
-21.1925
-20.0874
-18.9248
-17.7507
-16.6217
-15.6046
-14.7712
-14.1884
-13.9039
-13.9222
-14.173
-14.4685
-14.4543
-13.5607
-10.9707
-5.62594
3.70744
18.3454
39.0406
65.6009
97.3335
131.786
164.199
187.07
190.716
166.385
112.423
38.873
-24.876
-73.3694
-117.433
-155.075
-185.675
-209.255
-226.026
-236.252
-240.288
-238.642
-232.007
-221.241
-207.305
-191.197
-173.88
-156.222
-138.969
-122.721
-107.932
-94.887
-83.6455
-73.8533
-65.2715
-57.3165
-51.731
-47.4612
-44.3764
-42.324
-41.1414
-40.6667
-40.7463
-41.2408
-42.0269
-42.9991
-44.0688
-45.1638
-46.2258
-47.2088
-48.0769
-48.8023
-49.3635
-49.744
-49.9315
-49.9175
-49.6973
-49.27
-48.639
-47.8129
-46.8052
-45.6345
-44.324
-42.901
-41.3956
-39.8393
-38.2633
-36.697
-35.1666
-33.6933
-32.2928
-30.9743
-29.7408
-28.5889
-27.5102
-26.4924
-25.5215
-24.586
-23.6821
-22.8246
-22.0574
-21.3841
-19.3001
-16.5607
-14.4356
-13.0762
-12.0976
-11.1643
-10.3483
-9.72512
-9.37518
-9.37628
-9.78829
-10.629
-11.8395
-13.238
-14.4653
-14.9308
-13.7748
-9.88192
-2.00915
10.754
30.98
57.0242
88.3819
122.546
154.618
177.071
180.544
157.035
105.667
36.4124
-25.4613
-75.0554
-120.096
-158.62
-189.98
-214.086
-231.007
-240.892
-244.039
-240.968
-232.445
-219.44
-203.053
-184.425
-164.645
-144.69
-125.385
-107.388
-91.2066
-77.2259
-65.7348
-56.9535
-47.8317
-38.7615
-32.3346
-27.6138
-24.402
-22.4815
-21.6331
-21.6484
-22.3357
-23.5233
-25.0615
-26.8228
-28.7009
-30.6088
-32.4766
-34.2493
-35.8843
-37.3492
-38.6195
-39.6771
-40.5087
-41.1053
-41.4615
-41.5756
-41.4497
-41.0902
-40.5079
-39.7184
-38.7415
-37.6013
-36.3251
-34.9422
-33.4829
-31.977
-30.4524
-28.9338
-27.4416
-25.9913
-24.5931
-23.252
-21.968
-20.7374
-19.5548
-18.4155
-17.3207
-16.286
-15.3575
-14.6534
-13.6081
-10.4102
-8.05066
-6.32243
-5.31967
-4.60046
-4.07405
-3.82279
-3.93447
-4.49746
-5.58447
-7.22723
-9.37952
-11.8678
-14.3314
-16.1612
-16.4515
-13.9881
-7.2612
5.62857
23.255
47.9581
78.5494
112.224
143.9
166.033
169.578
147.219
98.7253
33.9108
-25.9737
-76.525
-122.431
-161.752
-193.784
-218.299
-235.21
-244.552
-246.576
-241.83
-231.172
-215.709
-196.703
-175.45
-153.185
-130.989
-109.766
-90.2097
-72.8395
-58.0555
-46.1872
-37.5039
-28.4287
-19.0654
-12.2983
-7.50533
-4.42188
-2.77827
-2.32036
-2.81461
-4.04883
-5.83409
-8.00691
-10.4287
-12.9833
-15.5752
-18.1266
-20.5757
-22.8743
-24.9855
-26.8815
-28.5421
-29.9525
-31.1027
-31.9869
-32.6026
-32.951
-33.037
-32.8696
-32.462
-31.8314
-30.9988
-29.9889
-28.8285
-27.5464
-26.1714
-24.7318
-23.2538
-21.7606
-20.272
-18.8031
-17.3651
-15.9648
-14.6057
-13.2894
-12.0175
-10.7962
-9.64274
-8.59861
-7.75539
-7.25833
-5.39369
-2.29907
-0.0214797
1.3554
1.90746
2.16626
2.06648
1.51468
0.41174
-1.32846
-3.75219
-6.82703
-10.3893
-14.0796
-17.2754
-19.0389
-18.128
-13.2638
-2.43834
14.3276
37.9809
67.7394
100.823
132.081
154.002
157.857
136.954
91.5922
31.3602
-26.3781
-77.6721
-124.261
-164.219
-196.758
-221.491
-238.168
-246.711
-247.337
-240.64
-227.588
-209.452
-187.676
-163.734
-139.013
-114.708
-91.7941
-70.9792
-52.7464
-37.4297
-25.2539
-16.3209
-7.73818
1.00802
7.46065
11.8523
14.5012
15.7036
15.7173
14.7729
13.0828
10.8377
8.19979
5.30432
2.26593
-0.818815
-3.87011
-6.82298
-9.62559
-12.2376
-14.6281
-16.7742
-18.6592
-20.2719
-21.6049
-22.6551
-23.4223
-23.9104
-24.1264
-24.0814
-23.7901
-23.2708
-22.5452
-21.6376
-20.5742
-19.3822
-18.0889
-16.7205
-15.3014
-13.8535
-12.3954
-10.9423
-9.50609
-8.09586
-6.71884
-5.3823
-4.09668
-2.88115
-1.77356
-0.848064
-0.243631
0.407243
3.57572
5.79299
7.58661
8.41171
8.38825
7.95009
6.97734
5.3555
2.98293
-0.202182
-4.182
-8.80351
-13.7098
-18.2659
-21.4849
-21.9222
-18.1497
-10.0642
4.94716
27.2667
56.0267
88.4116
119.234
141.048
145.439
126.272
84.2733
28.7592
-26.6433
-78.4057
-125.435
-165.809
-198.63
-223.336
-239.513
-246.977
-245.92
-236.995
-221.309
-200.318
-175.672
-149.041
-121.974
-95.7844
-71.5224
-49.8741
-31.2425
-15.8441
-3.71034
5.29314
12.7198
20.1409
25.6468
29.2101
31.1685
31.8239
31.3929
30.0699
28.0537
25.5315
22.6478
19.516
16.2374
12.9019
9.58505
6.35025
3.25025
0.327335
-2.38519
-4.86174
-7.08331
-9.03638
-10.712
-12.1049
-13.2136
-14.0398
-14.5887
-14.8688
-14.8922
-14.674
-14.2327
-13.5894
-12.7673
-11.7911
-10.6859
-9.47692
-8.18814
-6.84201
-5.45879
-4.05626
-2.64975
-1.25237
0.124185
1.46821
2.76546
3.99462
5.11919
6.07219
6.72389
6.83096
8.28812
11.3543
13.3144
14.5009
14.6305
13.873
12.5004
10.3809
7.39516
3.46488
-1.40732
-7.07948
-13.1976
-19.1247
-23.9086
-26.5419
-25.0172
-18.4357
-5.05273
15.8374
43.4739
75.0695
105.447
127.256
132.392
115.214
76.7842
26.1106
-26.7451
-78.6552
-125.838
-166.361
-199.195
-223.597
-238.99
-245.091
-242.079
-230.686
-212.176
-188.217
-160.689
-131.474
-102.288
-74.5682
-49.4452
-27.531
-9.0962
5.75543
17.2152
25.8155
31.3094
36.8079
40.8806
43.3067
44.4068
44.5212
43.7277
42.1368
39.9452
37.3654
34.4988
31.4047
28.1631
24.8546
21.5423
18.2826
15.1265
12.1162
9.28601
6.66399
4.27169
2.12539
0.236822
-1.38623
-2.7395
-3.82201
-4.63601
-5.18688
-5.48314
-5.53647
-5.36149
-4.97546
-4.39786
-3.6499
-2.75389
-1.73261
-0.608605
0.596357
1.86176
3.16865
4.49971
5.83909
7.17189
8.48299
9.75508
10.965
12.0773
13.0332
13.7317
14.0077
14.204
17.0448
18.757
20.2096
20.6468
19.9214
18.1716
15.5783
11.9965
7.33215
1.57158
-5.15377
-12.4836
-19.7393
-25.7928
-30.1656
-31.4898
-27.0598
-15.5279
3.78858
30.1802
60.9045
90.8292
112.728
118.796
103.831
69.1497
23.4223
-26.6665
-78.3732
-125.39
-165.759
-198.308
-222.112
-236.439
-240.916
-235.722
-221.684
-200.244
-173.308
-143.019
-111.486
-80.5544
-51.8184
-26.5125
-5.05225
12.5196
26.0818
35.9724
42.996
46.2962
49.5921
51.946
53.0688
53.1754
52.955
51.9907
50.2358
47.9714
45.585
43.0434
40.2713
37.3482
34.3617
31.3415
28.3308
25.3796
22.5255
19.8026
17.2405
14.8631
12.69
10.7361
9.0131
7.52888
6.28832
5.29321
4.54238
4.03165
3.75389
3.69907
3.85453
4.20525
4.73422
5.42288
6.25166
7.20048
8.24929
9.37842
10.5689
11.8026
13.0621
14.3304
15.5899
16.8211
17.9993
19.09
20.039
20.7566
21.0849
20.7798
21.9118
24.5067
25.6425
26.3774
25.8926
24.1254
21.0798
16.9148
11.5216
4.86444
-2.93967
-11.528
-20.2169
-28.6557
-35.5413
-38.652
-36.1566
-26.4818
-8.81303
16.2449
46.0331
75.5029
97.5781
104.744
92.1857
61.4025
20.7044
-26.3983
-77.5331
-124.045
-163.935
-195.887
-218.798
-231.798
-234.435
-226.897
-210.129
-185.769
-155.985
-123.218
-89.8492
-57.7024
-28.6321
-4.08186
16.0461
32.2056
43.7724
51.179
55.5514
56.4715
57.4117
57.9532
57.8215
56.4754
56.6787
55.9017
53.9512
51.4598
49.6115
47.7948
45.5721
43.1977
40.8378
38.3921
35.8947
33.4118
30.9624
28.5781
26.2909
24.1252
22.1038
20.2456
18.5665
17.0793
15.7938
14.7172
13.8536
13.2043
12.7678
12.5394
12.512
12.6757
13.0185
13.5261
14.1831
14.9725
15.8768
16.8781
17.9583
19.0994
20.2835
21.4924
22.7071
23.9066
25.0656
26.1504
27.1124
27.8754
28.3161
28.2405
28.1999
30.556
31.4957
31.9454
31.6802
30.037
26.9611
22.3124
16.185
8.61208
-0.309009
-10.5331
-21.9663
-32.7502
-41.2072
-46.1571
-45.5988
-37.8158
-21.8601
1.78886
30.5861
59.6
81.9266
90.3349
80.3456
53.5801
17.9703
-25.9379
-76.1285
-121.785
-160.863
-191.9
-213.642
-225.092
-225.735
-215.782
-196.314
-169.186
-136.825
-102.022
-67.6243
-34.8782
-6.22729
18.1408
38.0713
52.2025
59.5352
61.4098
60.2306
56.5504
53.4216
50.9609
50.0741
52.0607
56.0652
56.0277
53.4131
49.553
49.1022
48.7089
46.966
45.1994
43.8543
42.2207
40.4411
38.6848
36.873
35.0478
33.2491
31.4928
29.8063
28.2125
26.7311
25.3807
24.1771
23.1337
22.2613
21.5678
21.0579
20.7334
20.5934
20.6338
20.848
21.2269
21.7594
22.4326
23.232
24.142
25.1463
26.2279
27.3691
28.5515
29.7557
30.9602
32.1398
33.2629
34.286
35.1459
35.7455
35.9198
35.5918
36.7416
38.2501
37.9933
37.4715
35.8605
32.6512
27.7505
21.0441
12.4537
1.91977
-10.4491
-22.9409
-35.9953
-46.7112
-53.7355
-55.2174
-49.4004
-35.2311
-13.061
14.697
43.254
65.8965
75.6678
68.3807
45.7233
15.2332
-25.2893
-74.1698
-118.623
-156.554
-186.371
-206.693
-216.426
-215
-202.662
-180.663
-151.077
-116.538
-80.1564
-46.6873
-13.3348
18.2929
42.2371
54.1996
58.14
59.1048
57.974
55.536
52.0083
49.1591
47.1172
45.9444
45.7355
45.6443
42.5561
38.542
37.1843
44.2155
46.8803
44.2533
42.7095
43.3397
42.5381
41.4909
40.7762
39.7803
38.697
37.5944
36.4325
35.2611
34.1028
32.9783
31.9139
30.9309
30.0501
29.2896
28.6647
28.1873
27.8663
27.7071
27.7123
27.8811
28.2099
28.6925
29.32
30.0817
30.9651
31.9561
33.0392
34.1981
35.4152
36.6715
37.9463
39.216
40.4519
41.6176
42.664
43.5199
44.0531
43.9825
44.2793
45.6777
45.2745
43.9076
41.8655
38.3679
32.9479
25.4136
15.6357
3.45857
-9.99354
-25.4222
-39.627
-52.2155
-61.3054
-64.8935
-61.1189
-48.8102
-28.1844
-1.50803
26.5919
49.6053
60.8394
56.3591
37.871
12.5069
-24.4611
-71.6826
-114.594
-151.054
-179.369
-198.063
-205.975
-202.496
-187.907
-163.691
-132.153
-95.9702
-63.989
-29.7725
12.0515
40.6145
53.1182
56.8765
57.1233
56.0798
53.4614
49.1224
44.342
40.3107
37.2197
35.1104
33.8955
33.171
32.5897
32.7647
33.6446
35.1415
34.2014
30.5581
33.9624
40.4793
39.2748
38.4123
39.5597
39.3127
39.0736
38.9054
38.4767
37.9919
37.4395
36.8295
36.2064
35.5922
35.0158
34.5038
34.0786
33.7597
33.5632
33.5013
33.5833
33.8144
34.1968
34.7293
35.4076
36.2251
37.1726
38.239
39.4114
40.6754
42.0153
43.414
44.8531
46.312
47.7676
49.1935
50.5596
51.8154
52.8467
53.3971
53.5408
54.1668
53.7669
51.6232
48.6824
44.4487
38.2928
29.7239
18.5024
5.24307
-10.2991
-26.6612
-42.8342
-57.4766
-68.7348
-74.523
-72.8762
-62.5022
-43.4791
-17.9189
9.72654
33.1588
45.938
44.3438
30.0603
9.80303
-23.4668
-68.7042
-109.755
-144.441
-171.001
-187.908
-193.969
-188.546
-171.926
-145.946
-113.212
-86.2317
-51.2352
3.55661
37.664
51.6802
56.28
56.9035
54.4255
50.2037
44.5113
37.2081
31.0575
25.9287
21.9037
19.116
17.474
16.752
16.7434
17.3675
18.7518
20.8309
22.5832
24.913
28.4415
29.8755
27.0524
29.3762
36.0614
35.0818
35.7219
36.9949
37.2285
37.6211
37.8475
37.8883
37.8692
37.7764
37.6555
37.5422
37.4634
37.447
37.5154
37.6877
37.9796
38.4026
38.9644
39.669
40.5172
41.5064
42.6316
43.8852
45.2577
46.7379
48.3134
49.9705
51.6949
53.472
55.2871
57.1275
58.983
60.7888
62.4322
63.5973
64.1251
64.0053
63.1528
60.6171
56.8678
51.6588
44.4412
34.7269
22.5013
8.44897
-9.45889
-27.3377
-45.5166
-62.3661
-75.9322
-84.0359
-84.6088
-76.2393
-58.8675
-34.447
-7.2475
16.6482
31.0403
32.3901
22.3227
7.13225
-22.3224
-65.2819
-104.178
-136.818
-161.41
-176.423
-180.673
-173.513
-155.124
-127.914
-107.55
-76.017
-8.43845
32.4692
48.062
54.0215
55.3503
52.5643
46.6193
39.1885
31.0771
21.2392
13.7295
7.60629
2.78792
-0.526944
-2.39106
-2.97121
-2.45433
-0.995111
1.28431
4.15437
7.22958
10.5668
13.8985
16.8807
19.4865
23.9095
26.2524
23.9102
27.8875
32.4641
32.1606
33.9336
35.1194
35.8461
36.6343
37.2044
37.6927
38.1406
38.5656
39.0099
39.4991
40.0582
40.7099
41.4714
42.3559
43.3725
44.527
45.8215
47.2557
48.8263
50.5285
52.3557
54.3003
56.3544
58.5103
60.7622
63.1086
65.5568
68.0915
70.6874
73.0681
74.916
75.7257
74.874
73.2409
70.5433
66.3946
60.4334
52.2334
41.5094
28.6043
11.7626
-7.05828
-27.1414
-47.5915
-66.8401
-82.869
-93.4089
-96.2894
-89.9838
-74.2977
-51.0268
-24.2555
0.148141
16.2108
20.5448
14.6855
4.50192
-21.0465
-61.4681
-97.9489
-128.302
-150.756
-163.821
-166.364
-157.793
-137.86
-121.354
-102.916
-26.8365
24.0191
41.7475
50.1057
53.0895
50.8046
44.4475
35.5735
25.5476
15.3302
3.32732
-5.78843
-13.0174
-18.5915
-22.364
-24.3926
-24.8417
-23.9194
-21.8434
-18.8385
-15.1646
-11.0909
-6.7675
-2.39665
1.8406
5.91554
10.0824
13.3643
16.2364
20.9678
22.8529
21.1736
27.2335
29.3582
30.3552
32.435
33.7086
34.9593
36.1509
37.2333
38.3081
39.3837
40.4913
41.6639
42.9217
44.2832
45.763
47.3717
49.1168
51.0031
53.0331
55.2078
57.527
59.9902
62.5978
65.3519
68.2597
71.337
74.5847
77.9888
81.4323
84.5646
87.1174
87.7503
86.1443
83.9326
81.293
77.053
70.5978
61.5418
49.5742
35.0617
16.3412
-4.01186
-26.2434
-49.1202
-70.9381
-89.5739
-102.659
-107.921
-103.723
-89.74
-67.6125
-41.2408
-16.2817
1.50292
8.84788
7.17137
1.9178
-19.6583
-57.3192
-91.1569
-119.023
-139.212
-150.323
-151.303
-141.843
-127.274
-124.297
-52.93
11.2181
33.4952
44.4259
50.3176
49.6296
43.7606
34.3712
22.9522
10.7262
-2.0908
-14.9396
-26.0229
-34.431
-40.7562
-44.9766
-47.194
-47.5979
-46.4261
-43.9385
-40.4047
-36.0984
-31.2755
-26.1422
-20.8892
-15.6717
-10.5788
-5.64789
-1.13513
3.09198
7.36365
10.635
13.8322
18.4574
19.4039
20.2858
25.8111
27.1323
29.3786
31.5695
33.4007
35.3012
37.1302
38.9453
40.8061
42.723
44.7203
46.8195
49.0355
51.3814
53.8684
56.5059
59.3026
62.2669
65.408
68.7375
72.2709
76.0327
80.0316
84.2607
88.6755
92.9561
96.9151
99.7005
99.2697
97.274
95.3271
93.1707
88.9036
81.9971
72.0492
58.8034
42.414
22.3831
-0.0792723
-24.718
-50.2115
-74.7523
-96.1151
-111.832
-119.529
-117.462
-105.181
-84.1736
-58.1604
-32.593
-13.0372
-2.66235
-0.194944
-0.61935
-18.177
-52.8906
-83.8937
-109.107
-126.95
-136.148
-135.673
-126.448
-132.097
-86.6024
-7.94405
23.8014
37.1332
46.5485
48.5911
44.4123
35.5852
23.7055
10.2198
-3.55765
-20.2259
-33.6492
-45.9431
-55.3573
-62.3827
-67.0579
-69.525
-70.0028
-68.7561
-66.071
-62.2385
-57.5406
-52.2356
-46.5459
-40.6635
-34.7448
-28.9065
-23.2364
-17.8395
-12.711
-7.81834
-3.37954
0.837163
5.00364
8.4405
12.5372
16.1221
16.5383
20.966
24.6654
26.9809
30.0612
32.7809
35.4345
38.1651
40.9006
43.6885
46.5632
49.5388
52.6345
55.87
59.2626
62.8307
66.5936
70.5733
74.7965
79.2946
84.0737
89.1571
94.4801
99.8004
104.953
109.06
111.169
109.957
108.633
108.165
106.452
102.136
94.6515
83.6632
68.9697
50.5404
29.2725
4.44969
-22.7827
-51.0345
-78.4088
-102.582
-120.986
-131.148
-131.215
-120.614
-100.689
-74.9801
-48.7436
-27.3636
-13.9368
-7.36779
-3.12062
-16.6209
-48.2367
-76.2472
-98.675
-114.13
-121.533
-119.408
-121.237
-119.259
-36.2533
13.4432
28.3778
41.2824
46.9143
45.6152
38.6184
27.434
13.5776
-1.66165
-17.9974
-36.1378
-51.5591
-64.4368
-74.6859
-82.3474
-87.4863
-90.2739
-90.9538
-89.8105
-87.1456
-83.2592
-78.4359
-72.9334
-66.9766
-60.7562
-54.4294
-48.1202
-41.9242
-35.9177
-30.1358
-24.5969
-19.3521
-14.3449
-9.53236
-5.01994
-0.553593
3.51322
7.4791
12.1462
14.9403
17.3213
22.9471
26.436
29.9635
33.8317
37.5177
41.2355
45.0431
48.9243
52.9117
57.0367
61.3246
65.8059
70.5125
75.4809
80.7635
86.3398
92.258
98.4907
104.731
110.995
116.49
120.56
120.864
120.667
121.76
122.789
121.241
116.444
108.219
96.2116
80.0512
59.2847
36.3745
9.17021
-20.711
-51.7816
-82.0433
-109.068
-130.182
-142.811
-144.994
-136.037
-117.138
-91.669
-64.6932
-41.4232
-24.8882
-14.1913
-5.67629
-15.0072
-43.4078
-68.2986
-87.8315
-100.876
-106.833
-107.018
-124.381
-73.2414
-0.849256
18.8803
34.3423
43.89
46.3394
42.3685
33.1678
20.2033
4.96413
-11.3025
-32.3879
-49.8845
-66.9198
-80.5646
-91.5296
-99.7692
-105.378
-108.552
-109.555
-108.683
-106.246
-102.545
-97.8606
-92.4442
-86.5142
-80.255
-73.8181
-67.3247
-60.8681
-54.5184
-48.3207
-42.3031
-36.4866
-30.8609
-25.4109
-20.1457
-15.0128
-10.0592
-5.19241
-0.314096
4.48374
9.5818
13.9753
17.4714
22.3221
28.0572
32.6437
37.3994
42.3277
47.2449
52.2501
57.3968
62.7063
68.2276
74.0035
80.0747
86.4765
93.1997
100.291
107.447
114.717
121.466
126.817
129.282
130.675
133.607
137.423
138.622
136.499
130.988
121.948
108.966
91.4324
68.4037
43.1658
13.7273
-18.7506
-52.628
-85.7782
-115.654
-139.471
-154.546
-158.807
-151.44
-133.501
-108.195
-80.4015
-55.1598
-35.3752
-19.9673
-8.85117
-13.3514
-38.4506
-60.1199
-76.6539
-87.1899
-91.0073
-104.352
-104.739
-29.1307
11.6842
26.5277
39.3613
45.7674
45.6323
39.561
28.6848
14.4289
-1.66885
-21.815
-42.5105
-62.0913
-79.559
-93.7724
-105.293
-114.039
-120.113
-123.726
-125.153
-124.699
-122.675
-119.375
-115.071
-110.003
-104.376
-98.3618
-92.1012
-85.7055
-79.2611
-72.8324
-66.4646
-60.1869
-54.0168
-47.9578
-42.0052
-36.1558
-30.3933
-24.7113
-19.0723
-13.4338
-7.78969
-2.10679
3.67857
9.71402
15.1329
20.3145
25.7109
32.1331
38.5405
44.5518
50.673
56.9749
63.4079
70.0752
76.9507
84.1065
91.6792
99.5015
107.617
115.843
123.825
130.397
134.942
138.206
143.207
149.767
153.725
154.07
151.083
144.877
135.097
121.254
102.528
77.9266
49.6949
18.012
-17.031
-53.6873
-89.7
-122.399
-148.884
-166.362
-172.647
-166.804
-149.747
-124.52
-95.8291
-68.5631
-45.5592
-25.6354
-11.8882
-11.6684
-33.4092
-51.7802
-65.2249
-73.3386
-78.3939
-103.466
-68.4961
1.99614
18.5876
33.7896
43.6587
47.5378
45.346
37.6578
25.549
10.3351
-8.1793
-30.3718
-50.4455
-71.2575
-88.8758
-103.628
-115.613
-124.806
-131.331
-135.415
-137.342
-137.422
-135.959
-133.239
-129.521
-125.027
-119.945
-114.429
-108.603
-102.566
-96.3913
-90.1363
-83.841
-77.5323
-71.2274
-64.9342
-58.654
-52.3851
-46.1209
-39.8515
-33.5584
-27.219
-20.8159
-14.3284
-7.72362
-0.998708
5.89146
13.1913
19.9689
26.3399
33.1328
40.3551
48.1054
55.8156
63.3911
71.2024
79.2028
87.5196
96.0979
105.064
114.352
123.415
131.329
137.564
142.905
150.14
159.254
165.885
168.555
168.093
164.67
157.994
147.493
132.652
113.019
87.6414
56.1748
22.1268
-15.5489
-54.9966
-93.8491
-129.329
-158.431
-178.251
-186.492
-182.092
-165.827
-140.582
-110.899
-81.5647
-55.666
-34.2
-13.0687
-9.97219
-28.3271
-43.3441
-53.5522
-58.3142
-71.8049
-90.7463
-29.4293
14.1701
28.4027
40.4405
47.8342
49.6623
45.8375
36.9267
24.0257
8.76796
-12.9023
-33.8247
-56.2882
-77.2713
-94.9384
-110.045
-122.385
-131.956
-138.904
-143.469
-145.943
-146.634
-145.842
-143.838
-140.864
-137.123
-132.78
-127.971
-122.799
-117.346