/*--------------------------------*- C++ -*----------------------------------*\
  =========                 |
  \\      /  F ield         | OpenFOAM: The Open Source CFD Toolbox
   \\    /   O peration     | Website:  https://openfoam.org
    \\  /    A nd           | Version:  6
     \\/     M anipulation  |
\*---------------------------------------------------------------------------*/
FoamFile
{
    version     2.0;
    format      ascii;
    class       volScalarField;
    location    "0";
    object      p;
}
// * * * * * * * * * * * * * * * * * * * * * * * * * * * * * * * * * * * * * //

dimensions      [0 2 -2 0 0 0 0];

internalField   nonuniform List<scalar> 
918
(
0.214472
0.978223
0.00729997
0.214152
0.000398125
0.946947
-0.834821
0.395643
0.192858
-0.301124
0.0158488
0.185197
0.798102
0.563963
-1.49849
0.0103509
0.352175
-0.736975
0.191952
0.00638073
0.466128
0.198984
0.202226
0.194157
0.251195
0.540204
0.670316
0.00320494
-0.00329627
-0.00165098
0.00419458
-0.000608701
0.00280515
0.820001
0.866317
0.884996
0.163682
0.0106172
-0.706068
-0.768857
-0.741703
-0.895275
0.383567
0.387379
-0.498439
0.396855
0.410988
0.179808
0.192145
0.192935
0.194354
0.193196
0.194591
0.181034
-0.360559
-0.428553
-0.214593
-0.15651
0.0579008
0.0163771
0.0141126
0.0290983
0.0264229
0.120593
0.182145
0.180959
0.191831
0.200833
0.903734
0.875654
0.898428
0.823551
0.840834
0.772169
0.744437
0.584946
0.607217
0.547731
0.538514
-1.96518
-2.94256
-0.905365
-0.623213
0.00108525
0.0161264
0.0216583
0.340657
0.343816
0.350222
0.36298
0.813936
-0.727171
-0.848411
0.191214
0.190528
0.198334
0.199879
0.196224
0.195684
0.0127623
0.0192079
-0.000697503
0.00338197
0.00316089
0.442908
0.442318
0.193524
0.191133
0.209783
0.233956
0.223087
-0.0427771
0.262372
0.279353
0.366355
0.535491
0.527096
0.537822
0.644471
0.611582
0.702689
0.726917
0.00897322
0.00250472
0.0085248
0.00604291
0.00835154
0.158775
0.151938
0.17432
0.16575
0.168199
-0.0826457
-0.227325
0.0857241
0.10594
-0.616484
-0.665054
-0.782231
-0.796506
-0.87212
0.193191
0.375958
0.377763
-0.510423
-0.434282
-0.570148
-0.373243
-0.439518
0.171641
0.178083
0.174429
0.18788
0.181453
0.183902
0.196094
0.193343
0.194864
0.256848
0.359538
0.100434
0.114779
-0.616449
-0.498816
-0.576369
-0.086818
-0.0560721
0.0624286
0.0689875
0.0493859
0.045751
-0.0258179
0.0089934
-0.0166066
0.0254439
0.0242201
0.113476
0.102859
0.129694
0.135564
0.173653
0.17412
0.176475
0.175489
0.692747
0.71588
0.723878
0.700555
-3.94566
-6.66097
-0.268054
-0.103476
0.0020304
0.00261706
0.00110812
0.00314865
0.00308207
0.00132881
0.0264157
0.0234495
0.0236382
0.0252291
0.327986
0.331373
0.751686
0.745607
0.734445
0.68348
0.180447
0.182166
0.187281
0.183729
0.0230514
0.0207249
0.0224317
0.41024
0.427527
0.423077
-0.080394
-0.169375
0.00561325
0.0347629
0.317326
0.296149
0.316383
0.428548
0.468943
0.739816
0.764538
0.751422
0.76776
0.815929
0.836049
0.801279
0.140101
0.14761
0.143385
0.179227
0.176086
0.1773
0.173546
0.17297
0.170408
-0.359455
-0.732712
0.149571
0.154712
0.13572
0.139344
0.282588
0.37803
0.354435
0.366767
0.36506
-0.326495
-0.377491
0.102078
0.0999475
0.0610606
0.0904154
0.0755895
0.668086
0.631703
0.678875
0.654684
0.617926
0.64041
-0.665906
-2.44969
-1.39974
0.304229
0.098719
0.194868
0.0419794
0.0267361
0.0334216
0.724161
0.771314
0.452738
0.599592
0.564978
0.500796
0.531516
0.584235
0.515129
0.550107
0.584384
0.565623
0.158799
0.147837
0.141322
0.462771
0.525594
-0.203753
-0.267364
-0.304525
0.0735248
0.086265
0.0910868
0.736929
0.595956
0.684326
0.19141
0.191619
0.0122936
0.0229922
0.195043
0.195245
0.00567764
0.00556775
0.20045
-1.25458
-0.182775
0.184493
0.175415
0.190787
-0.368188
0.196557
0.016057
0.0759856
0.0459797
0.183498
0.13129
0.0950438
0.00687
0.0152762
0.0119222
-0.555868
0.189074
0.187189
0.190346
0.19137
0.192057
0.00831082
0.0103782
0.00731838
0.0110847
0.0109766
0.00813557
0.158705
0.17242
-0.492908
0.190454
0.192608
0.19232
0.186285
0.191187
0.189302
0.0125797
0.00804727
0.00778967
-0.0972088
0.0285511
0.417267
0.52053
0.346104
0.164886
-0.125336
0.337525
0.399361
0.308875
0.461787
0.359844
0.373723
-0.123172
-0.270504
-0.129302
-0.187455
0.182343
0.180857
0.172556
0.170271
0.185948
0.183845
0.188497
0.186015
0.188692
0.189811
-0.302488
-0.208705
-0.423423
-0.480165
0.121693
0.355302
0.0809176
0.059917
0.106416
0.0198141
0.0256454
0.0131799
0.0123861
0.0356637
0.0457797
0.0685342
0.0517877
0.0470061
0.0281257
0.0310406
0.039752
0.0400951
0.178327
0.174827
0.182246
0.189429
0.138306
0.141165
0.113712
0.128507
0.118778
0.0659806
0.0930134
0.0732278
0.00701425
0.00779166
0.00536396
0.01841
0.0227624
0.0124816
0.00988657
0.013759
0.0109815
0.00957126
0.0153211
0.0188483
-0.515857
-0.589124
0.650495
0.607306
-0.187281
0.178343
0.183377
0.180099
0.185506
0.188288
0.188911
0.186996
0.18372
0.173315
0.175856
0.170795
0.171689
-0.43409
-0.550966
-0.380335
-0.446874
-0.17605
0.300743
0.0373378
-0.0138273
-0.0260839
0.185886
0.37666
0.330914
0.453172
0.44714
-0.708886
-0.292455
-0.635351
-0.0911373
-0.126031
0.434907
0.483329
0.506268
0.457398
0.407127
-0.361486
0.187109
-0.359223
-0.322152
-0.143805
-0.240675
0.401277
0.341506
0.349274
0.363739
0.388727
0.355778
0.333045
0.334561
0.357904
0.367155
0.173891
-0.0626923
-0.0947619
-0.139829
0.327597
0.209847
0.263657
0.173742
0.177073
0.179609
0.17852
0.163056
0.16823
0.164526
0.169876
0.172654
0.181233
0.181657
0.177475
0.179389
-0.126621
-0.0778638
-0.403407
-0.534091
-0.525594
-0.55871
-0.504134
-0.633859
-0.513477
-0.299277
-0.0122267
-0.68316
-0.541792
-0.608078
-0.510303
-0.495778
-0.466719
0.0612022
0.126132
0.0584319
0.106519
0.116552
0.124328
0.0221625
0.0183748
-0.00264033
0.0151686
0.0670286
0.0672113
0.0787983
0.0350258
0.0300872
0.0223117
0.0213143
-0.0119147
-0.0163591
-0.0060696
-0.0159038
0.0197827
0.0205998
0.0244853
0.0345714
0.0316765
0.0375132
0.170584
0.171804
0.171538
0.185375
0.194417
0.208526
0.182242
0.157263
0.149471
0.15004
0.127191
0.134117
0.132207
0.143542
0.162075
0.16944
0.167039
0.169082
0.156059
0.157366
0.143182
0.147341
0.127865
0.112705
0.103486
0.0160773
0.00974748
0.0121714
0.0130506
0.00933774
0.0106877
0.0346931
0.0289228
0.0330316
0.0265163
0.0273275
0.0168679
0.0159831
-0.446725
-0.376419
-0.526429
-0.541247
-0.625463
0.551855
0.68861
0.500992
0.299014
0.310362
0.519464
0.65561
0.307554
0.402987
0.5169
0.163907
0.477044
0.182661
0.182473
0.180647
0.179466
0.180178
-0.348028
-0.252792
-0.233051
-0.182568
-0.0563201
0.0537659
-0.0609247
-0.135071
-0.00523495
0.0277097
0.298142
0.313216
0.253009
0.280337
0.282086
0.105061
0.182502
0.227461
0.178606
0.235478
0.266062
0.223776
0.258842
0.19
0.1485
0.142715
0.0904646
0.124961
0.104742
0.0791352
0.172656
0.153844
0.162552
0.155382
0.173437
0.204066
0.200057
0.217251
0.235677
0.161851
0.118191
0.132833
0.157607
0.11818
0.131315
0.148014
-0.163005
-0.264773
-0.11069
-0.435263
-0.322074
-0.300168
-0.338679
-0.388471
-0.0807719
-0.743779
-0.676006
-1.36468
0.129206
0.522003
0.358239
0.366886
0.385269
0.362877
0.368993
0.394061
0.404259
0.316268
0.332171
0.334506
0.294066
0.324984
0.334081
0.338621
0.156331
0.0840834
0.062462
0.0246672
-0.109641
-0.072576
0.103533
0.042391
-0.0229537
-0.018798
0.140563
0.0253086
0.0932613
0.13377
0.0829604
0.0230924
0.223544
0.287724
0.272068
0.243293
0.164807
0.18169
0.204493
0.242278
0.266443
0.29714
0.170608
0.174817
0.175956
0.173878
0.170388
0.173683
0.173362
0.175402
0.177108
0.179533
0.178412
0.000304979
-0.0111263
-0.0532551
-0.0180152
-0.288806
-0.336269
-0.419541
-0.378515
-0.0279025
-0.0610345
-0.198057
-0.106188
-0.0593965
-0.0350772
-0.0686368
-0.104264
-0.263695
-0.302947
-0.274149
-0.0575759
0.108954
-0.0115986
-0.397165
-0.304347
-0.154897
0.0167383
0.0554017
0.0470572
0.0400373
0.0428509
0.0248635
0.0227441
0.0202596
0.0226645
0.0228637
0.0213307
0.0212271
0.021165
0.0225803
0.021284
0.0212079
0.157519
0.15108
0.15216
0.147115
0.146886
0.158195
0.162574
0.163937
0.168253
0.170304
0.162434
0.166631
0.169187
0.0239873
0.0187104
0.021154
0.0209251
0.0199446
0.017935
0.0176126
-0.127868
-0.263629
-0.179377
-0.339995
-0.447473
-0.406947
0.143076
0.103836
0.131484
0.337887
0.202918
0.0886829
0.156098
0.281707
0.0180292
0.164528
0.018381
0.55507
0.420273
0.572768
0.213927
-0.101548
0.0427287
0.0634872
-0.0948318
0.00369141
-0.00374686
-0.118422
-0.0793789
-0.0616266
0.0143866
-0.0881586
-0.12328
-0.376202
-0.211254
-0.057171
-0.0853659
0.0594575
0.113299
-0.107469
-0.183197
-0.22673
0.284406
0.307379
0.321075
0.287744
0.313461
0.242614
0.232991
0.24917
0.262177
0.254397
-1.02204
-0.64025
-1.78619
-1.16866
-0.722787
0.162929
0.145957
0.385278
0.296227
0.36923
0.354418
0.305502
0.273081
0.283976
0.31812
0.0241513
0.131985
0.093481
0.117006
0.0432269
-0.0358918
0.255026
0.251951
0.27966
0.304788
0.278738
0.306144
0.166193
0.166271
0.168846
0.166403
0.163571
0.165363
-0.0592866
-0.0571584
-0.168005
-0.228505
-0.249586
-0.192096
0.0336974
0.0268636
0.023166
0.0244204
0.0304795
0.0321313
-0.167155
-0.201133
-0.300899
-0.216377
-0.340545
-0.393158
-0.420559
-0.317028
-0.233925
-0.246887
0.110558
0.358256
0.183811
0.345654
0.157209
0.239839
0.129674
0.109827
0.140964
0.0275523
0.114977
-0.317778
-0.560703
-0.589418
0.434779
0.403342
0.208193
-0.047598
-0.168159
0.116843
0.19098
0.158221
0.190736
0.237892
0.233302
-0.360009
-0.256578
-0.180136
0.126477
-0.0965949
-0.0729409
-0.0798939
0.0733378
0.027658
)
;

boundaryField
{
    wall-4
    {
        type            zeroGradient;
    }
    velocity-inlet-5
    {
        type            zeroGradient;
    }
    velocity-inlet-6
    {
        type            zeroGradient;
    }
    pressure-outlet-7
    {
        type            fixedValue;
        value           uniform 0;
    }
    wall-8
    {
        type            zeroGradient;
    }
    frontAndBackPlanes
    {
        type            empty;
    }
}

