/*--------------------------------*- C++ -*----------------------------------*\
  =========                 |
  \\      /  F ield         | OpenFOAM: The Open Source CFD Toolbox
   \\    /   O peration     | Website:  https://openfoam.org
    \\  /    A nd           | Version:  6
     \\/     M anipulation  |
\*---------------------------------------------------------------------------*/
FoamFile
{
    version     2.0;
    format      ascii;
    class       volVectorField;
    location    "0";
    object      U;
}
// * * * * * * * * * * * * * * * * * * * * * * * * * * * * * * * * * * * * * //

dimensions      [0 1 -1 0 0 0 0];

internalField   nonuniform List<vector> 
918
(
(0.985684 0.00383912 0)
(-0.0039987 2.96739 0)
(-0.00337053 1.61584 0)
(0.980724 -0.00205494 0)
(-0.00798734 1.57485 5.32671e-22)
(0.00135491 2.95102 -1.39246e-18)
(0.85242 1.17192 4.93278e-19)
(0.461269 0.195589 -5.72023e-21)
(0.999912 -0.000291234 0)
(0.022713 0.814217 0)
(-0.00473292 1.26262 0)
(0.791833 -0.00851556 0)
(0.00898801 2.93478 0)
(0.00399616 2.79738 0)
(-0.00108677 3.19926 7.93739e-19)
(-0.0104783 1.4894 -7.4649e-21)
(0.575374 0.0810726 3.59671e-19)
(0.19287 1.11103 4.37907e-19)
(0.965626 0.00378088 0)
(-0.00433323 1.38647 0)
(0.204276 0.256819 -3.05671e-19)
(1.00181 -0.005024 0)
(1.00171 -0.00830016 0)
(0.977503 -0.00483875 0)
(0.712421 -0.0210327 0)
(0.0307356 2.63705 0)
(-0.0106378 2.91564 4.6465e-19)
(-0.0196514 1.63996 0)
(-0.0195672 1.75374 0)
(-0.0220259 1.63624 0)
(-0.00594674 1.82552 0)
(0.000199712 1.59565 -4.16857e-22)
(-0.010716 1.48945 0)
(-0.0197514 2.98961 -4.88287e-23)
(-0.0137408 3.00794 1.09585e-18)
(0.00162937 2.9997 0)
(0.874705 -0.00659888 0)
(0.371437 0.919405 -2.30683e-20)
(0.860841 1.18768 -7.2071e-19)
(0.996584 1.04913 6.57248e-19)
(0.722603 1.2684 -1.14386e-19)
(0.735513 1.23668 6.43309e-19)
(0.496458 0.277899 5.57914e-21)
(0.488652 0.170249 0)
(1.18604 0.538643 0)
(0.462323 0.308809 2.61343e-20)
(0.410032 0.207842 -2.71289e-20)
(0.922711 -0.00598116 0)
(1.00031 -8.43784e-06 0)
(0.999891 0.000336328 0)
(1.00323 -0.00756449 0)
(1.00092 -0.00110086 0)
(1.00017 -2.94361e-05 0)
(0.0752786 1.67387 -1.64575e-19)
(0.0255293 0.89919 0)
(0.0929768 0.795187 0)
(-0.0271879 0.951415 0)
(-0.0212745 0.888227 0)
(-2.11126e-05 1.58301 0)
(-0.0128718 1.41293 0)
(-0.016343 1.22715 0)
(-0.010464 1.4653 0)
(-0.00733526 1.27682 0)
(0.869794 0.000141728 0)
(0.880111 0.0122291 0)
(0.803557 -0.00280646 0)
(0.874086 0.0166222 0)
(0.772562 -0.00789331 0)
(0.0136704 3.00362 5.02184e-19)
(0.0114666 3.00452 0)
(0.0073326 3.00383 0)
(0.0106636 2.99823 5.60902e-24)
(0.00613754 2.96198 -7.55643e-19)
(0.0117936 2.98449 0)
(0.00849542 2.90902 0)
(0.0217112 2.93266 1.02061e-24)
(0.00459687 2.82804 0)
(0.0275601 2.91971 0)
(-0.000413491 2.74689 0)
(0.312364 3.60508 0)
(-0.12795 3.68725 0)
(0.150887 3.29118 -7.35537e-19)
(0.00561475 3.02167 0)
(-0.0125802 1.80494 0)
(-0.00300279 1.63129 7.36282e-21)
(-0.00561494 1.50084 -1.21968e-20)
(0.627358 0.147328 -1.23617e-19)
(0.585807 0.0417676 -1.19519e-19)
(0.605205 0.185992 -3.73661e-19)
(0.542269 0.112977 -2.49178e-19)
(0.282656 0.953894 0)
(0.296525 1.24702 -4.36958e-19)
(0.366304 1.24299 7.1999e-19)
(0.989275 0.00653584 0)
(0.945717 0.00545009 0)
(0.999816 0.000770616 0)
(1.00379 0.00761082 0)
(1.0034 0.00865796 -6.5241e-19)
(0.992858 0.00735858 4.9944e-19)
(-0.0200816 1.52742 0)
(-0.00879601 1.36753 0)
(-0.0251574 1.64359 0)
(-0.0225572 1.56868 0)
(-0.00278552 1.42631 0)
(0.22915 0.281362 9.4073e-20)
(0.284188 0.252726 0)
(0.994785 -0.00608049 0)
(0.956267 -0.0055034 0)
(0.846293 0.022696 0)
(0.811797 0.0352701 0)
(0.748711 -0.0161512 0)
(1.01909 -0.00380809 0)
(0.765138 0.0477957 0)
(0.635058 -0.0132575 4.67873e-19)
(-0.034364 2.86804 2.69152e-19)
(0.035211 2.91411 0)
(0.0451762 2.88999 0)
(0.00554879 2.70056 0)
(-0.00806076 2.98761 4.32922e-19)
(-0.0126857 2.89878 0)
(-0.00988436 2.99278 -1.35878e-18)
(-0.00914562 2.93255 4.67685e-19)
(-0.015245 1.81365 0)
(-0.0118967 1.80873 0)
(-0.00244154 1.62775 -1.6417e-22)
(-0.000582336 1.59613 0)
(-0.0102704 1.48864 0)
(0.93463 -0.00342991 0)
(0.860442 -0.00752586 0)
(0.873196 0.00877047 0)
(0.948945 -0.0037779 0)
(0.890202 -0.00546635 0)
(0.500501 1.11869 2.13087e-20)
(0.548892 1.19085 0)
(0.329339 0.846205 2.93376e-21)
(0.271211 0.712473 0)
(0.961366 1.07613 -1.91766e-19)
(1.07512 0.874974 3.88481e-19)
(0.48822 1.34061 0)
(0.569484 1.33984 0)
(0.591849 1.25273 0)
(0.0983301 0.118548 -7.38056e-20)
(0.521121 0.25054 0)
(0.503558 0.156842 7.12579e-20)
(1.03762 0.924938 0)
(1.10567 0.763105 0)
(1.13592 0.697963 -3.38516e-19)
(1.16473 0.603092 0)
(1.22136 0.38894 3.25752e-20)
(0.957875 -0.00458636 0)
(0.96317 -0.00614229 0)
(0.904702 -0.00471642 0)
(0.985027 -0.00667526 0)
(0.976713 -0.00692163 0)
(0.939395 -0.00506009 0)
(0.999799 0.00216847 0)
(1.00085 0.00121077 0)
(0.999955 0.000723494 0)
(-0.0212534 1.89856 1.04631e-19)
(0.0949929 1.60517 0)
(0.0314993 1.87608 1.07577e-19)
(0.0285662 1.6317 -7.91402e-20)
(0.102468 1.11847 -3.63145e-19)
(0.0903445 0.989076 0)
(0.161538 0.934274 0)
(-0.0646132 1.09035 0)
(-0.032578 1.03152 0)
(0.0148119 1.73564 -6.24194e-22)
(0.00613232 1.59534 0)
(-0.00362207 1.72223 -2.30479e-20)
(-0.012453 1.56572 4.65192e-20)
(-0.0359302 1.23492 0)
(-0.0321442 1.34583 0)
(-0.022519 1.15558 0)
(-0.0114314 1.49439 0)
(-0.00687425 1.30225 0)
(0.952553 0.0164511 0)
(0.893678 0.0037344 0)
(0.932608 0.0107467 0)
(0.859558 -0.000429207 0)
(0.817537 0.00111611 0)
(0.907461 0.00773897 0)
(0.895734 0.00557315 0)
(0.806883 -0.00471343 0)
(0.00837737 3.06495 -4.28398e-21)
(0.0139146 3.05728 0)
(0.0121453 2.97249 0)
(0.00733073 2.88103 0)
(0.915163 4.01377 0)
(1.21961 3.39179 7.57515e-19)
(0.0805002 3.10451 0)
(-0.0143818 2.92785 0)
(-0.0147514 1.7976 0)
(-0.015221 1.80013 0)
(-0.0138644 1.7984 0)
(-0.00791611 1.81356 2.66102e-21)
(-0.0115385 1.81233 0)
(-0.00982369 1.81067 0)
(-0.00356241 1.50365 1.31212e-21)
(0.00181102 1.65595 1.30638e-20)
(0.00173 1.64464 1.24559e-20)
(-0.00151615 1.49785 0)
(0.64462 0.104817 1.82872e-19)
(0.579079 0.0125561 -1.78323e-19)
(0.218279 1.51177 0)
(0.323664 0.69444 -1.46348e-19)
(0.149503 1.62006 -5.21348e-19)
(0.210299 1.1679 5.20494e-19)
(0.907568 0.0084947 0)
(0.96872 0.0101874 0)
(0.976328 0.00963669 0)
(0.927226 0.00782627 0)
(-0.015795 1.50403 0)
(-0.0189227 1.51271 0)
(-0.00902034 1.33238 0)
(0.412502 0.311084 2.39332e-19)
(0.359264 0.286348 -2.9117e-19)
(0.371573 0.233062 0)
(1.13776 0.0859637 -4.33263e-21)
(1.12468 0.041608 0)
(1.05212 0.0397565 0)
(0.958797 0.0102096 0)
(0.656552 0.0769488 0)
(0.694141 0.0513804 -7.60648e-19)
(0.584975 -0.0121305 2.96099e-19)
(0.0110873 2.98117 3.27231e-19)
(-0.0288495 2.86675 3.16411e-20)
(0.00698374 3.05006 -9.23955e-21)
(0.0154901 3.0413 3.52458e-19)
(-0.00954689 3.00008 1.55875e-20)
(-0.00889504 2.95412 -6.36526e-23)
(-0.0150585 3.01277 -2.98149e-19)
(0.0127427 3.02366 2.10669e-19)
(0.00618099 3.03192 -3.37856e-19)
(0.931014 0.00606753 0)
(0.934182 -6.79571e-05 0)
(0.852618 -0.00404288 0)
(0.958227 0.0121551 0)
(0.946092 0.010905 0)
(0.889231 0.00923547 0)
(0.92181 0.0117017 0)
(0.933295 0.0143591 0)
(0.84577 0.00905987 0)
(0.690588 1.42548 2.08823e-19)
(0.710756 1.53859 0)
(0.189638 0.377898 1.48172e-20)
(0.154996 0.537965 1.17263e-19)
(0.233704 0.661286 -7.07461e-20)
(0.199002 0.550827 1.28166e-19)
(0.28657 0.676402 4.40572e-19)
(0.117968 0.154784 1.43283e-19)
(0.568738 0.215888 2.68434e-19)
(0.548265 0.239562 6.59406e-20)
(0.524964 0.140067 1.33878e-19)
(1.21153 0.448909 2.19985e-19)
(1.2327 0.246761 2.29481e-19)
(0.0216191 1.80099 3.36831e-20)
(0.0251041 1.57921 0)
(0.99914 0.0309665 0)
(0.966113 0.0208055 0)
(0.918055 0.00128371 0)
(0.0114025 3.07313 0)
(0.0173142 2.94626 5.93953e-19)
(0.0139608 2.95919 0)
(0.00581072 2.85404 -5.90878e-19)
(0.00808088 3.08896 1.40083e-19)
(0.0102555 3.08007 0)
(0.730774 1.83324 -1.69428e-19)
(1.26394 2.62605 5.62082e-19)
(0.710855 2.00495 -1.13661e-18)
(0.0230709 2.98452 -2.49267e-19)
(0.0414189 3.01045 0)
(-0.0320903 2.88717 0)
(-0.00748602 1.68017 -3.38279e-21)
(-0.00228389 1.67015 -3.0365e-20)
(-0.00573807 1.53028 -4.28042e-21)
(0.240743 1.29112 4.73371e-19)
(0.285464 0.444824 -3.2619e-19)
(0.0236184 1.86874 3.29982e-19)
(0.0796981 1.80141 -4.23798e-19)
(0.153698 1.43769 6.90154e-20)
(0.006406 3.11788 -7.63303e-19)
(0.0132876 3.11827 8.5209e-19)
(-0.00440769 2.98205 3.86001e-19)
(-0.00139044 2.97792 -3.50775e-19)
(-0.0153379 2.88193 -3.93259e-19)
(0.0121594 3.09737 -1.02902e-18)
(0.00511719 3.10224 1.04177e-18)
(0.183704 0.565453 0)
(0.127987 0.521031 -2.34068e-19)
(0.103336 0.169541 1.0366e-19)
(0.306765 0.776887 4.29014e-19)
(0.182644 0.199461 -6.53804e-19)
(1.22251 0.169351 -4.84448e-20)
(1.23045 0.303985 0)
(1.2177 0.112543 9.20489e-20)
(0.0231288 1.74951 -4.42106e-22)
(0.0431934 1.76626 0)
(0.0299949 1.58881 0)
(0.270047 1.18942 -1.67931e-19)
(0.325102 1.00838 -3.5674e-19)
(0.223904 0.310913 6.08731e-19)
(1.00589 -0.0106067 0)
(1.00679 -0.00699189 1.20453e-19)
(-0.0162521 1.80303 0)
(-0.0263998 1.81217 0)
(1.0015 0.00328901 1.17497e-21)
(1.00321 0.0087639 2.44674e-19)
(-0.00836679 1.81743 -3.55627e-21)
(-0.00922067 1.81618 0)
(0.0473068 3.17906 1.25622e-19)
(0.382222 3.5506 0)
(1.07927 0.68227 4.52597e-20)
(1.0115 0.0122755 -1.42407e-21)
(1.01997 -0.0090467 0)
(1.00155 5.19327e-05 3.54243e-23)
(-0.0578162 1.07906 0)
(0.0224022 2.71324 0)
(-0.101134 1.66342 0)
(-0.0706978 1.99615 4.88883e-20)
(-0.0561497 1.89465 2.87333e-20)
(1.00466 0.0129337 1.72009e-21)
(1.04558 0.0159189 0)
(1.07373 0.027036 0)
(-0.016702 1.8025 0)
(-0.00879176 1.82989 0)
(-0.0256396 1.79694 0)
(0.323477 1.41854 -3.07305e-19)
(1.00958 -0.00912157 0)
(1.00867 -0.0147996 0)
(1.0022 0.000375928 1.51238e-19)
(1.00524 -0.00510584 -1.81146e-19)
(1.00119 -0.00106691 0)
(-0.0192693 1.79914 0)
(-0.0177742 1.79826 0)
(-0.0169521 1.79965 0)
(-0.0272509 1.7974 0)
(-0.0259053 1.79413 0)
(-0.0289605 1.79741 0)
(1.02286 -0.0126324 0)
(1.01849 0.0138532 -8.27721e-22)
(0.765794 1.30291 3.60488e-19)
(1.00318 0.000341922 -1.51765e-19)
(1.00325 0.00468792 1.83435e-19)
(1.00131 0.00202865 0)
(1.01204 0.0105301 1.48066e-19)
(1.00725 0.0086548 -1.84998e-19)
(1.00894 0.012775 0)
(-0.00984341 1.82967 0)
(-0.0107893 1.82419 6.40293e-21)
(-0.010736 1.82226 -4.61489e-21)
(1.18861 0.260238 -8.36155e-20)
(1.12543 0.0930335 0)
(0.0584872 3.08609 -3.98469e-19)
(0.0525266 2.86526 -3.03545e-20)
(0.12097 3.20476 5.12522e-19)
(0.129716 3.22138 -4.52499e-20)
(0.149829 3.26288 0)
(0.0245212 3.13739 9.77796e-20)
(0.0715717 3.1617 3.91881e-19)
(0.0693069 3.18383 -1.87044e-19)
(0.030848 3.1251 0)
(0.673955 0.338121 0)
(0.640864 0.389745 0)
(1.07261 0.706327 -1.71235e-19)
(1.03291 0.856404 2.64661e-19)
(1.13302 0.603541 0)
(1.16424 0.544523 0)
(1.0147 0.0123065 -2.75072e-19)
(1.01324 0.0125761 3.42868e-19)
(1.02382 -0.00931347 0)
(1.02114 -0.0147253 0)
(1.00717 0.00281975 0)
(1.00976 0.00292581 0)
(1.00398 0.00227872 0)
(1.00804 0.00662888 0)
(1.00749 0.00524668 0)
(1.0039 0.00491122 0)
(-0.0826589 1.10745 0)
(-0.135155 1.06176 0)
(0.112513 1.09578 0)
(0.12969 1.15359 0)
(0.0695354 2.71615 0)
(0.135979 2.71896 -1.35377e-19)
(-0.0878847 2.71332 0)
(-0.126383 2.63338 -4.79387e-21)
(-0.112343 2.26075 -5.58553e-20)
(-0.0823223 1.67906 0)
(-0.0582442 1.70727 0)
(-0.122327 1.62009 0)
(-0.118116 1.54669 0)
(-0.201189 1.91136 -1.38117e-20)
(-0.0678519 1.92105 2.88061e-20)
(-0.0668083 1.98946 3.67701e-20)
(-0.0538712 1.95892 0)
(-0.05442 1.89328 -6.32265e-20)
(-0.0386389 1.87508 -2.5825e-20)
(-0.175427 1.88698 1.12432e-20)
(-0.105237 1.88937 -3.75804e-20)
(-0.106619 1.94372 -4.73796e-20)
(1.01406 0.0232279 2.70054e-19)
(1.0143 0.0104619 -3.32913e-19)
(1.00578 0.0206367 -2.81479e-19)
(0.99228 0.012793 3.61981e-19)
(1.04495 0.0181601 0)
(1.03227 0.00143413 0)
(1.06466 0.0398549 0)
(1.05308 0.0255742 0)
(1.05777 0.0145777 0)
(1.10473 0.0780501 0)
(1.08329 0.0519387 0)
(1.09638 0.0429979 0)
(-0.0111077 1.81972 -7.92806e-22)
(-0.0174988 1.81046 0)
(-0.0130133 1.81335 0)
(-0.00762839 1.83472 8.36431e-21)
(-0.00557564 1.83658 -3.39419e-22)
(-0.0223279 1.80632 7.28508e-21)
(-0.0239851 1.80284 -7.31912e-21)
(-0.0269918 1.80164 0)
(-0.0257926 1.80173 0)
(-0.0253347 1.80142 0)
(-0.0255067 1.79578 0)
(-0.0211492 1.78524 0)
(0.412978 1.47077 5.81783e-19)
(0.383704 1.47429 2.16768e-19)
(0.631794 2.41279 -1.10765e-19)
(0.405803 2.53563 3.21687e-19)
(0.412382 2.02842 -2.91733e-20)
(1.01995 -0.00722674 0)
(1.01388 -0.00964582 0)
(1.01678 -0.0142946 0)
(1.00737 -0.000922634 0)
(1.00425 -0.00119902 0)
(1.00651 -0.00380853 0)
(1.00995 -0.00475582 0)
(1.01277 -0.00530545 0)
(1.02013 0.0135172 2.65712e-19)
(1.01254 0.0106525 -3.3555e-19)
(1.02204 0.0165458 -2.65144e-19)
(1.0181 0.0163641 3.31658e-19)
(0.737324 1.33505 0)
(0.660514 1.38027 4.22075e-19)
(0.846751 1.21308 2.41808e-19)
(0.852588 1.20568 -3.20793e-19)
(1.15694 2.62985 -3.62868e-19)
(0.836349 0.127708 1.84631e-19)
(1.13057 0.0976762 0)
(1.16649 0.180256 6.85337e-20)
(1.15193 0.15792 3.15206e-21)
(0.977102 0.124649 0)
(0.108233 3.0265 -4.72265e-20)
(0.107522 2.90192 -4.65801e-19)
(0.0499744 2.34464 3.13543e-19)
(0.177623 0.061732 -1.38241e-19)
(0.351825 3.45686 -3.17011e-19)
(0.200592 3.34765 0)
(0.231291 3.4047 4.12745e-19)
(0.242862 3.08632 -1.55674e-19)
(0.278989 3.20967 0)
(0.00924912 3.1192 2.12158e-20)
(0.0199959 3.1284 -2.61287e-19)
(0.0189527 3.12425 3.83852e-19)
(0.0382005 3.13738 0)
(0.0359914 3.14957 0)
(1.2541 2.6036 0)
(0.489211 0.838882 -1.45049e-19)
(0.958566 1.04401 -1.37081e-19)
(0.944821 1.06332 0)
(0.798633 0.94816 3.84683e-20)
(1.02647 0.898965 1.94757e-20)
(0.434798 0.458963 -3.45082e-19)
(0.707671 0.335284 -1.62518e-20)
(0.698453 0.286782 1.41255e-19)
(0.64363 0.412926 1.11577e-20)
(0.585578 0.413899 -4.61636e-19)
(0.689503 0.346972 0)
(0.710793 0.420758 2.35992e-19)
(0.709318 0.420165 0)
(0.67813 0.377096 0)
(0.655631 0.336083 0)
(0.718332 0.609424 7.51009e-20)
(1.1923 0.284097 6.48532e-20)
(1.17029 0.417342 0)
(1.17933 0.388175 0)
(0.763411 0.22542 2.13293e-19)
(0.779473 0.515461 -1.17792e-19)
(0.727078 0.479196 1.91751e-19)
(0.908515 0.409485 -1.67014e-19)
(1.0184 0.0104924 1.79982e-19)
(1.01641 0.0119406 -1.83129e-19)
(1.01357 0.01112 0)
(1.02419 -0.013854 0)
(1.02439 -0.0129364 -1.63499e-19)
(1.01948 -0.0186427 1.61823e-19)
(1.03073 0.00553424 0)
(1.02722 0.0152248 0)
(1.01192 0.00486396 0)
(1.01386 0.00856062 0)
(1.01612 0.00331414 0)
(1.01367 0.00179667 0)
(-0.202839 1.19937 0)
(-0.210686 1.22225 0)
(0.159176 1.01944 3.59866e-19)
(0.305626 1.40604 1.83852e-19)
(0.239626 1.23051 4.071e-19)
(0.225694 1.2884 -6.50031e-19)
(0.327646 1.19433 0)
(0.3033 1.86265 4.06578e-19)
(0.132225 1.77596 0)
(0.470034 2.10593 4.29276e-20)
(0.394256 2.41957 1.23084e-19)
(0.497723 1.44545 -3.54428e-19)
(0.419668 1.34803 1.52466e-19)
(0.382465 1.19133 -1.23421e-19)
(0.48777 1.33888 2.90799e-19)
(0.50516 1.74571 0)
(0.463245 1.70022 -2.10611e-19)
(-0.353392 2.21888 5.00121e-20)
(-0.174778 2.40829 0)
(-0.28263 2.42401 -1.55764e-19)
(-0.326764 2.3416 0)
(-0.146608 2.58948 4.53799e-21)
(-0.138129 2.47337 0)
(-0.190878 1.75661 7.42244e-21)
(-0.264059 1.81991 0)
(-0.23515 1.65247 0)
(-0.195249 1.67241 -8.36333e-21)
(-0.0980528 2.06639 -2.59131e-20)
(-0.0982048 2.22925 6.03932e-20)
(-0.0644953 2.11298 3.59616e-22)
(-0.106891 1.83549 1.59728e-20)
(-0.130045 1.82957 5.68824e-21)
(-0.0436508 1.73693 0)
(-0.0265295 1.75239 0)
(-0.379626 1.91284 -6.69982e-20)
(-0.322778 1.68621 -7.67337e-20)
(-0.299225 1.81994 9.26743e-20)
(-0.437398 1.86227 0)
(-0.0186268 1.82557 -3.08873e-20)
(-0.017421 1.83578 1.38933e-20)
(-0.0192713 1.84012 -4.29284e-21)
(-0.0845341 1.82239 -1.93128e-20)
(-0.050862 1.86258 -7.7795e-21)
(-0.0619166 1.86977 4.25699e-20)
(1.02312 0.0155446 -1.75248e-19)
(1.02337 0.0131959 1.76755e-19)
(1.01905 0.0112945 0)
(1.00127 0.0427124 2.54728e-19)
(0.994414 0.0318356 -3.0055e-19)
(0.971431 0.0280866 3.45776e-19)
(0.995177 0.0809307 -3.33582e-20)
(1.02505 -0.0117958 0)
(1.03122 0.00341606 1.44837e-19)
(1.02296 -0.0113698 -1.43798e-19)
(1.04888 0.0376805 -7.79961e-21)
(1.04858 0.031732 6.98458e-20)
(1.04532 0.0548073 0)
(1.03578 0.0444669 -2.6634e-20)
(1.02843 0.0305804 0)
(1.02455 0.0228491 0)
(1.03569 0.0088102 0)
(1.03162 0.011857 0)
(1.03562 0.0290396 5.51365e-20)
(1.03879 0.0217595 -1.25632e-19)
(1.0395 0.0330961 -5.49641e-20)
(1.03838 0.0324738 -6.45243e-20)
(1.04156 0.0588045 1.12193e-19)
(1.06809 0.0556137 0)
(1.05558 0.0937137 0)
(-0.0186195 1.82556 -1.08313e-20)
(-0.0182013 1.81438 -9.37546e-22)
(-0.0201422 1.81514 0)
(-0.0143445 1.82625 1.13559e-20)
(-0.0130191 1.82147 1.67255e-21)
(-0.0132673 1.82469 -1.62121e-21)
(-0.033953 1.8692 2.15507e-20)
(-0.0223324 1.84916 -1.65691e-21)
(-0.0350354 1.85411 8.14334e-21)
(-0.00909646 1.84705 -1.12417e-20)
(-0.0160629 1.85142 1.37786e-20)
(-0.0257781 1.80766 4.38795e-23)
(-0.0249868 1.81053 1.3279e-20)
(0.464777 1.41114 -2.85185e-19)
(0.454992 1.42285 -2.75812e-19)
(0.63789 1.41962 -4.08608e-19)
(0.501179 1.47625 -2.13069e-19)
(0.525753 1.46231 0)
(0.60343 2.39248 9.44598e-20)
(0.695346 2.35817 1.63324e-19)
(0.438612 2.49613 7.36419e-20)
(0.442635 2.56035 -6.85773e-20)
(0.546653 2.50834 2.04529e-19)
(0.532273 2.45126 0)
(0.541299 2.46548 -2.50828e-19)
(0.259626 2.65007 4.14247e-19)
(0.381593 2.56635 -3.59772e-20)
(0.278487 2.67568 -6.6571e-19)
(0.92418 2.3806 1.29323e-19)
(0.82418 2.35624 0)
(1.01076 0.000810608 5.94869e-21)
(1.01453 -0.00488235 -4.92876e-21)
(1.0146 -0.00363294 -8.68101e-20)
(1.01392 -0.00133804 8.88747e-20)
(1.01325 0.000571427 0)
(0.624087 1.26433 0)
(0.646065 1.14575 0)
(0.743754 1.09169 0)
(0.632959 1.11793 0)
(1.18769 2.64995 2.99748e-20)
(1.07006 2.38395 0)
(0.842179 2.27333 -1.54354e-21)
(0.811443 2.50549 0)
(0.906294 2.59018 1.80387e-20)
(0.940254 2.53977 -1.19096e-20)
(0.835939 0.136179 0)
(0.809604 0.146271 5.37314e-20)
(0.922574 0.131457 2.70782e-19)
(0.864261 0.109058 -1.07359e-19)
(0.852368 0.0800444 -3.30072e-19)
(1.02654 0.208762 -1.41904e-19)
(0.945929 0.271066 -7.34851e-21)
(0.886339 0.299674 2.36303e-19)
(0.975782 0.20817 1.73645e-19)
(0.925502 0.169082 -3.39075e-19)
(0.896046 0.177354 4.52714e-20)
(0.912268 0.27532 -8.21106e-20)
(0.891639 0.191065 0)
(0.971826 0.16918 1.60268e-19)
(1.00381 0.170523 0)
(1.00485 0.18413 0)
(1.08374 0.106487 4.39369e-20)
(1.01236 0.149386 -6.77937e-21)
(1.01568 0.216048 -2.93053e-20)
(1.06011 0.182951 0)
(1.01728 0.0266797 1.33883e-19)
(1.02912 0.0449359 1.57425e-19)
(1.02558 0.0318157 -1.32055e-19)
(1.02119 0.0468949 -1.06272e-19)
(1.00565 0.0476949 -1.79505e-19)
(0.9775 0.126562 0)
(0.978359 0.075567 0)
(0.970867 0.0460569 -1.24771e-19)
(0.935272 0.0603086 5.33109e-20)
(1.00616 0.0815397 1.50372e-19)
(1.02575 0.108852 -1.4178e-19)
(1.01954 0.138359 1.34017e-19)
(0.997464 0.122652 0)
(1.03982 0.0973644 0)
(1.02404 0.082032 -6.03648e-20)
(1.02235 0.0789961 -1.19288e-19)
(0.596359 1.08957 -7.58534e-20)
(0.623248 1.44342 1.45873e-19)
(1.15003 2.75329 5.07718e-20)
(1.20173 3.12713 -5.16243e-20)
(1.24991 2.75066 3.88254e-19)
(1.29301 2.72489 -1.98043e-19)
(1.25981 2.34776 -1.95185e-20)
(1.1867 3.03019 1.50928e-19)
(1.20471 2.9871 -1.53561e-19)
(1.18853 3.2809 -1.8702e-19)
(1.40304 2.99525 2.25206e-19)
(1.41795 2.92838 0)
(0.511073 0.854973 -6.86304e-21)
(0.245651 1.27464 1.88806e-19)
(0.485168 0.543769 2.24248e-19)
(0.337911 0.320658 2.61618e-19)
(0.582107 0.435258 2.57326e-19)
(0.55064 0.507995 -4.08684e-19)
(0.54992 0.513369 3.40015e-19)
(0.53154 0.473879 -1.35202e-19)
(0.511082 0.413985 3.10928e-19)
(0.769449 0.269222 -1.19507e-19)
(0.738141 0.286383 0)
(0.732209 0.255397 7.3093e-21)
(0.7068 0.512755 1.23869e-19)
(0.680094 0.479669 -4.56697e-19)
(0.639532 0.502799 1.53031e-20)
(0.655135 0.47218 0)
(0.65082 0.741375 8.66551e-20)
(0.739203 0.7659 4.62825e-20)
(0.69428 0.834929 -5.86791e-20)
(0.815741 0.790917 -9.36762e-21)
(0.872478 0.836653 1.04347e-20)
(0.875554 0.843827 -1.0723e-20)
(0.792705 0.637233 -1.28631e-19)
(0.879895 0.699768 8.72574e-21)
(0.941498 0.700675 0)
(0.927853 0.669197 -1.68985e-21)
(0.977393 0.321071 3.59478e-20)
(1.09328 0.297123 -1.45384e-20)
(1.01097 0.253515 5.68665e-20)
(0.950451 0.352083 -8.51357e-20)
(0.985579 0.434206 0)
(1.05201 0.40691 0)
(0.885588 0.357538 7.53912e-21)
(0.816573 0.296254 0)
(0.836415 0.285153 1.24657e-19)
(0.878204 0.302539 -1.74657e-22)
(0.903404 0.415408 4.57752e-19)
(0.844044 0.484792 1.16227e-19)
(0.855907 0.43148 -1.56944e-19)
(0.804778 0.423337 1.67031e-19)
(0.797858 0.413079 1.14108e-19)
(0.786494 0.394746 -1.11569e-19)
(1.02311 -0.0092709 1.39228e-19)
(1.01931 -0.00629122 0)
(1.01725 -0.00405009 9.39089e-20)
(1.02261 -0.00609341 -2.11231e-19)
(1.02346 -0.00244459 1.02529e-19)
(1.02288 0.00800068 -2.17053e-19)
(1.02428 0.00962794 0)
(1.02216 0.0121795 -4.51846e-20)
(1.01704 0.00514071 1.13353e-19)
(1.01656 0.00964133 -5.75589e-20)
(1.01794 0.00802157 4.20435e-20)
(-0.180177 1.50036 0)
(-0.275983 1.6057 0)
(-0.225868 1.3451 0)
(-0.168253 1.39414 0)
(-0.343477 1.47415 -6.06087e-19)
(-0.191576 1.29434 1.9476e-19)
(-0.100205 1.76959 1.95292e-19)
(-0.135735 1.48128 -1.84616e-19)
(-0.377858 1.67568 1.37544e-19)
(-0.388473 1.65808 -1.05134e-19)
(-0.34213 1.44058 8.23722e-20)
(-0.33605 1.45247 2.5323e-19)
(-0.303867 1.47693 2.51132e-20)
(-0.330438 1.56501 1.47218e-20)
(-0.252371 2.47659 1.69813e-19)
(-0.147601 2.59062 0)
(-0.104564 2.32841 -5.32825e-20)
(-0.132293 1.93912 -1.24426e-19)
(0.426546 2.16135 6.31361e-20)
(0.24354 2.54134 0)
(0.240665 2.50534 -1.22061e-19)
(0.415767 2.44618 8.23366e-20)
(0.346246 2.19162 1.75243e-19)
(0.139241 2.34132 -8.34312e-20)
(0.0439497 2.58049 0)
(-0.32652 2.0206 5.35654e-20)
(-0.2121 2.02825 -5.38499e-20)
(-0.248155 1.96834 0)
(-0.248422 2.1593 -2.31893e-21)
(-0.34233 2.16119 -2.03052e-20)
(-0.124024 1.74556 1.39943e-21)
(-0.0828906 1.75958 -1.79377e-20)
(-0.0794968 1.77847 4.91223e-21)
(-0.124985 1.77718 6.12074e-21)
(-0.165761 1.76992 0)
(-0.061477 1.77956 0)
(-0.0230891 1.78627 1.23654e-20)
(-0.0335681 1.79457 -3.80845e-21)
(-0.0437156 1.78751 0)
(-0.0255084 1.77233 8.75894e-21)
(-0.0183909 1.77446 -1.80121e-20)
(1.03016 0.0103765 0)
(1.03898 0.0136209 -1.36776e-20)
(1.04281 0.0222009 -9.89317e-20)
(1.04262 0.023228 0)
(1.04179 0.0233333 0)
(1.04329 0.00915367 -4.29142e-21)
(1.0396 0.00717291 1.68089e-19)
(1.03958 0.0129082 2.01738e-19)
(1.03302 0.014484 0)
(1.02864 0.0132302 0)
(1.03742 0.0203507 1.01343e-19)
(1.02777 0.014882 0)
(1.02834 0.0138909 0)
(-0.0355515 1.82785 0)
(-0.0273524 1.81086 1.80853e-21)
(-0.0268104 1.82212 7.42467e-21)
(-0.0293501 1.79945 0)
(-0.0303764 1.81154 7.38381e-21)
(-0.0271863 1.80759 -4.25394e-21)
(-0.0294596 1.80183 0)
(0.350817 1.68302 0)
(0.373193 1.37005 4.34723e-19)
(0.349073 1.38239 0)
(0.420837 1.34363 -5.74965e-19)
(0.487414 1.43163 0)
(0.465674 1.42816 2.68008e-19)
(1.01845 2.717 -2.50965e-21)
(0.942866 2.41224 -1.60618e-19)
(0.880728 2.15309 2.00146e-19)
(0.841353 2.3528 7.94485e-20)
(0.836998 2.53116 0)
(0.899558 2.53499 0)
(0.908609 2.37231 0)
(0.890089 2.34042 -2.70195e-19)
(0.674462 2.50679 -1.82915e-20)
(0.7961 2.50485 -1.10802e-20)
(0.795546 2.48361 8.67574e-21)
(0.689621 2.35421 0)
(0.78799 2.35069 0)
(0.756175 2.35949 -1.52991e-19)
(0.75692 2.49834 0)
(0.591121 1.0541 0)
(0.490126 0.904828 -2.26326e-20)
(0.496653 0.95615 -4.99259e-22)
(0.503774 1.07251 0)
(0.485357 1.00633 4.03462e-20)
(0.729301 0.880663 9.65712e-21)
(0.758423 1.00479 0)
(0.7298 0.978977 -4.41412e-20)
(0.607341 1.0134 0)
(0.598221 0.935556 0)
(1.15877 2.78815 4.20412e-20)
(1.13731 2.84848 9.28475e-20)
(0.934564 2.38908 -2.1548e-19)
(0.904925 2.35808 3.15726e-20)
(1.1243 2.76565 0)
(1.07019 2.73646 -3.8675e-20)
(1.08359 2.51232 -4.36047e-20)
(0.973412 2.24204 -1.96602e-20)
(0.502063 1.39526 0)
(0.516891 1.06342 6.66562e-20)
(0.548639 1.13351 0)
(0.864185 0.199595 0)
(0.811625 0.152235 0)
(0.773162 0.165985 0)
(0.852115 0.215733 -1.9591e-19)
(0.793901 0.221426 1.24011e-19)
(0.936821 0.0582723 -1.08326e-19)
(0.94076 0.105143 0)
(0.927104 0.113216 5.08048e-20)
(0.883599 0.0763278 2.09242e-19)
(0.88402 0.053632 -1.28371e-19)
(1.11595 3.37779 -6.57084e-19)
(1.17838 3.30239 0)
(1.13715 3.44891 -1.37894e-18)
(0.670787 3.5947 1.18262e-18)
(1.01066 3.11745 2.84595e-19)
(0.493852 0.846799 1.28246e-19)
(0.479562 0.823029 0)
(0.384631 0.560228 -5.17064e-20)
(0.410307 0.692907 2.3676e-19)
(0.502517 0.541578 -7.20573e-20)
(0.497856 0.562412 8.04528e-20)
(0.646411 0.55712 1.63868e-19)
(0.659943 0.571667 0)
(0.599147 0.635651 0)
(0.570524 0.577853 0)
(0.933793 0.582924 -3.43067e-20)
(0.860594 0.516578 -1.11086e-19)
(0.894339 0.566558 3.75049e-20)
(0.936192 0.476282 -7.99966e-20)
(0.995063 0.459947 0)
(1.02163 0.575596 4.80729e-22)
(0.829156 0.372759 -2.52228e-19)
(0.826331 0.367528 -2.95931e-19)
(0.797617 0.370069 1.97456e-19)
(0.782477 0.340899 -2.23821e-19)
(0.820857 0.305276 -1.66858e-19)
(0.78862 0.301173 2.04714e-19)
(1.03043 -0.00287029 -1.0738e-19)
(1.03195 -0.00316849 2.20692e-19)
(1.02493 -0.00977041 1.31745e-19)
(1.02604 -0.0101302 -1.61401e-19)
(1.03328 0.00509883 0)
(1.03519 0.00416915 -2.65061e-19)
(-0.460001 1.97152 -1.01455e-20)
(-0.433548 1.84932 0)
(-0.393998 1.93139 -5.15823e-19)
(-0.306976 1.91775 4.92798e-19)
(-0.284586 1.74196 -3.65354e-19)
(-0.403604 1.7825 0)
(-0.0738265 1.82172 0)
(-0.0572594 1.79497 -4.12685e-21)
(-0.0420497 1.79861 3.73169e-21)
(-0.0384558 1.81011 2.25117e-21)
(-0.0498192 1.83022 -8.4101e-21)
(-0.056489 1.8294 6.33165e-21)
(0.476136 1.41518 2.80102e-19)
(0.450152 1.41373 -2.98648e-19)
(0.42432 1.31547 2.89401e-19)
(0.394504 1.34502 -1.62408e-20)
(0.628321 1.29144 0)
(0.551053 1.396 3.62746e-19)
(0.580612 1.3571 -3.51236e-19)
(0.447197 1.28017 -2.76416e-19)
(0.480384 1.22503 0)
(0.545165 1.16839 0)
(0.63455 2.46134 2.71707e-20)
(0.661416 2.45935 4.18484e-19)
(0.706828 2.47566 -2.85157e-19)
(0.638744 2.44581 -8.42509e-20)
(0.557792 2.56219 8.37083e-20)
(0.542319 2.51963 -2.38342e-19)
(0.956499 2.38298 -1.095e-19)
(1.00175 2.4129 0)
(0.898447 2.14809 -1.39224e-19)
(1.03794 2.71954 0)
(1.03553 2.7062 0)
(0.612586 2.32586 2.33526e-19)
(1.11174 3.12583 3.04928e-19)
(0.983253 3.00164 -3.28941e-19)
(0.332578 0.942127 0)
(0.366282 0.847413 -8.75889e-20)
(0.538109 0.762411 -3.92973e-20)
(0.38085 2.16198 0)
(0.417412 2.77527 -2.01925e-19)
(0.430873 2.51721 0)
(0.64039 0.692 -1.82527e-19)
(0.695361 0.671947 2.5703e-19)
(0.699978 0.634945 -2.55302e-19)
(0.622554 0.669636 -2.73566e-20)
(0.683786 0.616971 -1.16056e-19)
(0.978361 2.7896 -2.30403e-19)
(1.01865 2.80582 1.7557e-19)
(0.573864 2.24623 -9.18979e-20)
(0.609007 1.77697 3.14306e-20)
(0.700791 1.89239 2.19411e-20)
(0.983044 2.43581 -6.96305e-20)
(0.980337 2.39892 -6.10388e-20)
(0.65571 1.82266 -5.75431e-22)
(0.45622 1.32786 -3.19715e-20)
)
;

boundaryField
{
    wall-4
    {
        type            noSlip;
    }
    velocity-inlet-5
    {
        type            fixedValue;
        value           uniform (1 0 0);
    }
    velocity-inlet-6
    {
        type            fixedValue;
        value           uniform (0 3 0);
    }
    pressure-outlet-7
    {
        type            zeroGradient;
    }
    wall-8
    {
        type            noSlip;
    }
    frontAndBackPlanes
    {
        type            empty;
    }
}

