/*--------------------------------*- C++ -*----------------------------------*\
  =========                 |
  \\      /  F ield         | OpenFOAM: The Open Source CFD Toolbox
   \\    /   O peration     | Website:  https://openfoam.org
    \\  /    A nd           | Version:  6
     \\/     M anipulation  |
\*---------------------------------------------------------------------------*/
FoamFile
{
    version     2.0;
    format      ascii;
    class       volVectorField;
    location    "0";
    object      U_rec;
}
// * * * * * * * * * * * * * * * * * * * * * * * * * * * * * * * * * * * * * //

dimensions      [0 1 -1 0 0 0 0];

internalField   nonuniform List<vector> 
918
(
(0.791296 -0.157855 0)
(0.0304136 2.98744 0)
(-0.247447 1.75815 0)
(0.711594 0.167004 0)
(0.0532714 1.74102 1.73899e-17)
(-0.0902615 2.90521 3.84368e-17)
(1.12016 1.77873 1.12232e-17)
(0.460487 0.277077 3.62184e-19)
(0.836497 0.0060537 0)
(0.039069 1.75646 0)
(0.0255913 1.73065 0)
(0.930467 0.0103363 0)
(-0.0270148 3.13576 0)
(0.0475723 2.94991 0)
(-0.107271 2.67398 1.96095e-17)
(-0.0222504 1.71013 1.17925e-17)
(0.696141 0.169193 -2.11846e-17)
(0.206331 2.05315 -2.6267e-18)
(0.990336 0.0561465 0)
(0.0266929 1.71489 0)
(0.443974 -0.0739204 1.56439e-17)
(0.658651 -0.0191982 0)
(0.834834 0.0527708 0)
(1.07805 0.0577416 0)
(0.851197 0.0581049 0)
(0.0454719 3.04066 0)
(-0.00833504 2.88331 -4.49755e-17)
(-0.284298 1.79836 0)
(-0.0603929 1.66215 0)
(-0.264427 1.7497 0)
(-0.0101035 1.71784 0)
(-0.123075 1.67685 1.6744e-17)
(-0.0352351 1.70292 0)
(-0.0577447 3.14326 1.99164e-21)
(0.0206407 3.07807 -5.4528e-17)
(0.060546 3.07087 0)
(0.980936 -0.00396813 0)
(0.849711 1.30483 -1.09468e-17)
(1.13924 1.72577 -2.23731e-17)
(1.24705 1.59191 2.31287e-17)
(0.933185 1.89485 5.8061e-19)
(0.907211 1.96836 1.65698e-17)
(0.494739 0.306312 -2.64432e-19)
(0.523376 0.276012 0)
(1.37265 0.815013 0)
(0.423177 0.315848 -1.24955e-18)
(0.389798 0.264351 1.58343e-18)
(0.997969 -0.00817979 0)
(0.944282 0.0123732 0)
(0.840341 0.00256304 0)
(0.897006 -0.112203 0)
(0.899923 0.0519525 0)
(0.850456 0.0415402 0)
(-0.0174199 1.58723 1.40657e-17)
(0.0305103 1.81438 0)
(0.0122694 1.82714 0)
(-0.0112901 1.78514 0)
(-0.0159401 1.81723 0)
(-0.0287057 1.7174 0)
(0.0430579 1.75752 0)
(0.00142162 1.75652 0)
(0.00270084 1.71754 0)
(0.00313979 1.70285 0)
(1.00415 -0.00130124 0)
(0.950156 0.0342712 0)
(0.956356 0.00289068 0)
(0.936082 0.00468092 0)
(0.938736 0.00400066 0)
(-0.0667155 3.01239 -9.78516e-18)
(0.147428 2.98302 0)
(-0.0622699 3.00437 0)
(-0.00808744 3.22648 -2.198e-22)
(-0.160213 3.04334 3.78969e-17)
(0.0300516 3.14786 0)
(0.0296016 3.02013 0)
(0.0340504 3.00677 -4.78597e-23)
(0.0146408 2.92587 0)
(0.0405301 2.9962 0)
(0.0141448 2.92206 0)
(0.152284 2.83108 0)
(-0.0789323 2.86618 0)
(-0.0126822 2.73946 -1.10445e-17)
(-0.0962083 2.65488 0)
(-0.00348353 1.73327 0)
(-0.024092 1.73207 8.40536e-18)
(0.0193778 1.71822 1.21906e-17)
(0.71907 0.17529 6.04262e-18)
(0.73471 0.154288 7.98576e-18)
(0.684735 0.227181 2.81995e-17)
(0.657745 0.207877 1.13993e-17)
(0.184856 1.41406 0)
(0.338942 2.10872 -2.10739e-17)
(0.433115 2.11201 1.33398e-18)
(0.998877 -0.00799708 0)
(0.985493 -0.00736303 0)
(0.819899 -0.0236763 0)
(0.970992 0.0139854 0)
(1.02371 0.132156 1.36123e-16)
(1.12038 0.219708 -3.64539e-17)
(0.0247053 1.7521 0)
(-0.0106139 1.73821 0)
(0.00438593 1.73168 0)
(-0.042008 1.73795 0)
(-0.0362537 1.75168 0)
(0.550596 0.0834102 -5.08091e-18)
(0.318653 0.284536 0)
(1.06278 0.00895492 0)
(1.01479 -0.00592566 0)
(0.929528 0.0387252 0)
(0.883549 0.115374 0)
(0.899405 0.0232648 0)
(1.1357 -0.0186199 0)
(0.842886 0.0542953 0)
(0.826565 0.0389082 -2.89178e-17)
(-0.0642904 2.87328 -1.16069e-17)
(-0.0310295 3.00879 0)
(-0.0935223 3.08741 0)
(0.0239725 2.94627 0)
(0.0182802 2.93518 -2.72248e-17)
(0.0547913 2.88361 0)
(-0.00643445 2.91905 4.78747e-17)
(-0.08074 2.86608 -1.05138e-17)
(0.0331802 1.7303 0)
(-0.0195763 1.74971 0)
(-0.00190364 1.71599 3.74042e-20)
(-0.0524396 1.73877 0)
(0.0215527 1.71635 0)
(0.987384 0.00883133 0)
(0.98333 -0.00676928 0)
(0.977405 -0.00521697 0)
(0.98856 0.00271206 0)
(0.978964 0.00974426 0)
(0.90637 1.35414 7.89937e-18)
(0.919476 1.28506 0)
(0.83115 1.36643 -1.4306e-18)
(0.769105 1.30051 0)
(1.21474 1.48634 2.70712e-19)
(1.35831 1.30699 1.1838e-17)
(0.548653 2.12962 0)
(0.757761 2.05425 0)
(0.694997 2.07368 0)
(0.509087 1.26295 2.78525e-18)
(0.54329 0.307995 0)
(0.562754 0.253109 -5.11526e-18)
(1.2496 1.24225 0)
(1.2848 0.983248 0)
(1.38301 1.05136 -1.24018e-17)
(1.33461 0.781942 0)
(1.38676 0.626879 -8.6661e-18)
(0.987584 0.0208399 0)
(1.00525 -0.0190457 0)
(0.989287 -0.00582141 0)
(1.00875 0.00497737 0)
(1.00552 -0.0135422 0)
(0.986706 0.00454197 0)
(0.900406 -0.0213422 0)
(0.916156 -0.0119363 0)
(0.847404 0.00286474 0)
(-0.0167208 1.63707 2.21131e-18)
(0.0319692 1.58496 0)
(0.0313638 1.642 -1.3406e-17)
(0.0301487 1.67205 1.27375e-17)
(0.0989877 2.01078 -1.9858e-17)
(0.00440361 1.89684 0)
(0.0134102 1.95322 0)
(-0.00163408 1.80212 0)
(0.013691 1.75112 0)
(-0.0272855 1.74702 7.15721e-20)
(0.0145376 1.73073 0)
(0.0340235 1.72865 -6.20809e-18)
(0.0523992 1.73169 -7.45158e-18)
(0.0358806 1.75456 0)
(0.0275249 1.75622 0)
(0.0125296 1.73 0)
(-0.00450781 1.74314 0)
(-0.00972582 1.77604 0)
(1.02218 0.0344627 0)
(1.0249 0.0109641 0)
(1.00928 -0.0036555 0)
(0.997175 0.00660778 0)
(0.97045 -0.00378076 0)
(0.961471 0.00259566 0)
(0.95187 0.0131629 0)
(0.940712 0.000836255 0)
(0.105505 3.05863 1.72855e-19)
(0.125149 3.05376 0)
(0.0467537 3.03489 0)
(0.000659475 2.96211 0)
(0.702214 3.132 0)
(0.997439 2.45203 3.61892e-18)
(-0.080381 2.74539 0)
(-0.0907142 2.70858 0)
(-0.0271108 1.81117 0)
(-0.0112867 1.70065 0)
(-0.00364475 1.74136 0)
(0.0827049 1.82198 -2.32524e-17)
(-0.0142682 1.81685 0)
(0.0698995 1.77337 0)
(0.0403967 1.72452 -2.03706e-17)
(0.0447673 1.72688 -1.27923e-17)
(0.00978249 1.71706 7.90161e-18)
(0.0121894 1.69993 0)
(0.7489 0.167738 -1.72492e-17)
(0.749136 0.0899528 8.03698e-18)
(0.199177 1.41742 0)
(0.211101 1.33807 2.83496e-18)
(0.134889 1.51892 6.42195e-19)
(0.0863814 1.49836 -1.80835e-17)
(0.992388 -0.00714631 0)
(0.987262 -0.0190206 0)
(0.994137 0.00331903 0)
(0.968185 0.00637481 0)
(-0.00580306 1.77526 0)
(0.00824283 1.74622 0)
(0.00401663 1.74379 0)
(0.365553 0.286967 -1.22365e-17)
(0.356261 0.240401 1.42529e-17)
(0.338102 0.250015 0)
(1.18027 0.125544 -1.69812e-18)
(1.25048 0.0594148 0)
(1.11682 0.0491879 0)
(1.07419 0.0122085 0)
(0.773013 0.107703 0)
(0.814133 0.0608805 6.6295e-17)
(0.770839 0.0562682 -2.72949e-17)
(-0.0544564 2.93742 -2.71522e-17)
(0.00853162 2.91336 -1.74585e-17)
(0.154389 3.0697 3.55982e-19)
(0.19291 3.15824 -2.36337e-17)
(-0.0437127 2.95319 -6.34536e-19)
(-0.116834 2.97174 2.57404e-21)
(-0.06156 3.17533 9.41221e-18)
(0.233859 3.21189 -9.84128e-18)
(0.241906 3.26956 3.82167e-18)
(1.00394 0.0176336 0)
(0.982307 0.0452893 0)
(0.99118 0.0221332 0)
(0.986125 -0.0101992 0)
(0.973511 -0.00922239 0)
(0.963772 -0.000406635 0)
(0.967288 -0.0106176 0)
(0.981334 0.0171336 0)
(0.963367 0.0063689 0)
(0.972891 1.32792 1.19231e-17)
(0.925817 1.33506 0)
(0.674004 1.27535 -1.0315e-18)
(0.680431 1.34477 -1.282e-17)
(0.770077 1.36656 3.37636e-18)
(0.731945 1.30984 -1.95368e-17)
(0.502294 1.29651 -2.19552e-17)
(0.505822 1.28513 1.85733e-18)
(0.648035 0.247187 -1.85031e-17)
(0.600734 0.276452 -4.96121e-18)
(0.62625 0.241549 -6.00797e-18)
(1.29804 0.570393 4.07001e-18)
(1.34023 0.396027 1.37262e-17)
(0.00797369 1.69318 -1.58872e-17)
(0.003218 1.67523 0)
(1.06649 0.0488371 0)
(1.0475 0.0154504 0)
(1.03509 -0.00187047 0)
(0.0714955 3.07391 0)
(0.0301025 2.99426 -3.46748e-17)
(0.0286105 3.00999 0)
(-0.000488648 2.93494 1.7177e-17)
(0.00661682 3.0713 -1.22503e-18)
(0.0514661 3.06791 0)
(0.894272 1.44298 -4.26126e-18)
(0.986064 1.91611 8.11368e-18)
(0.819961 1.52621 -1.52043e-17)
(-0.094938 2.88658 2.69736e-17)
(-0.0999139 2.80541 0)
(-0.0802755 2.80181 0)
(-0.0279259 1.75033 2.0238e-17)
(0.0521515 1.68513 6.01036e-18)
(-0.0438782 1.67166 2.02492e-17)
(0.23451 1.3798 -1.35082e-17)
(0.280809 1.31475 2.19472e-18)
(0.0436059 1.61072 -1.72559e-17)
(0.0769829 1.56357 9.21427e-22)
(0.0411806 1.55186 -1.82761e-17)
(-0.0928277 3.09616 7.54974e-17)
(-0.0855064 3.10704 -1.33967e-17)
(0.0261246 2.94232 -9.44598e-18)
(0.0158979 2.9928 9.95849e-18)
(0.131445 2.90749 2.71973e-17)
(-0.00568655 3.06265 1.69358e-17)
(-0.0752833 3.06475 -8.36084e-17)
(0.52557 1.3089 0)
(0.595353 1.32298 2.22865e-17)
(0.577343 1.23723 -1.53872e-17)
(0.433857 1.35967 -2.39542e-18)
(0.406908 1.3094 2.56287e-17)
(1.26724 0.197668 -6.7727e-18)
(1.30213 0.398125 0)
(1.32689 0.246079 6.99176e-18)
(0.0168827 1.72884 7.7767e-20)
(-0.0106667 1.69786 0)
(0.00206667 1.69065 0)
(0.292008 1.37473 3.51843e-18)
(0.351514 1.35605 -2.67996e-18)
(0.365391 1.34587 -2.22681e-17)
(1.02934 -0.0797712 0)
(1.13024 -0.128102 -1.39854e-17)
(0.0307272 1.75766 0)
(-0.020072 1.73963 0)
(1.08107 -0.0412494 2.03779e-19)
(0.944472 -0.0903106 -3.02745e-17)
(0.0160669 1.84815 -2.18828e-17)
(0.0823527 1.80547 0)
(-0.159258 2.82318 -9.08365e-18)
(0.0191614 2.60564 0)
(1.18251 0.651977 -2.13018e-18)
(1.06144 -0.0113441 2.53952e-17)
(1.06887 0.045312 0)
(1.05306 -0.00114608 1.03165e-19)
(0.0350555 1.88241 0)
(0.129442 1.77772 0)
(-0.0345138 1.78361 0)
(0.129466 1.82417 -2.72063e-17)
(0.0523036 1.80875 1.9088e-17)
(0.983767 0.00599746 2.49173e-17)
(1.08367 0.0904073 0)
(1.09621 0.0659147 0)
(-0.0169701 1.77299 0)
(0.0734817 1.75673 0)
(-0.0800104 1.77052 0)
(0.200234 1.97096 -3.30808e-17)
(1.00785 -0.0949732 0)
(0.991535 -0.0567297 0)
(1.02483 0.102481 -2.86597e-17)
(1.00851 0.034258 3.47576e-17)
(1.14091 -0.0427303 0)
(0.00674024 1.7711 0)
(-0.0364979 1.75442 0)
(-0.0354201 1.7832 0)
(-0.076341 1.78491 0)
(-0.105318 1.78337 0)
(-0.0338336 1.68704 0)
(1.00096 0.0113968 0)
(1.0166 -0.00908158 2.54634e-17)
(0.840339 1.74301 9.44566e-18)
(1.05069 -0.111752 2.87705e-17)
(1.07362 0.0636289 -3.46463e-17)
(1.17481 0.0585827 0)
(0.986505 -0.00182861 -1.1129e-17)
(1.05973 0.0534792 4.13749e-17)
(1.00812 0.0216398 0)
(0.0588115 1.77068 0)
(0.0830935 1.75953 -1.30185e-17)
(0.00411053 1.71093 -9.04924e-18)
(1.19609 0.327257 -4.97163e-17)
(1.12166 0.109264 0)
(-0.542412 2.89445 3.18438e-17)
(-0.246776 3.18466 1.68043e-18)
(-0.345565 2.76624 -1.82279e-17)
(-0.142071 2.79839 2.043e-17)
(-0.0849273 2.77137 0)
(-0.112727 2.9186 -3.40584e-18)
(-0.279127 3.041 -1.57118e-17)
(-0.180414 2.89454 1.93349e-17)
(-0.251449 3.04861 0)
(0.630108 0.300848 0)
(0.468196 0.354177 0)
(1.06825 0.865486 -8.56082e-18)
(1.13181 0.966412 3.39852e-17)
(1.12791 0.61271 0)
(1.12015 0.641086 0)
(1.04166 0.0291251 4.56518e-17)
(0.978965 0.0130577 -5.58941e-17)
(1.06676 -0.0713106 0)
(0.9773 -0.0663038 0)
(0.922413 0.0685255 0)
(1.06012 -0.0372147 0)
(1.04343 0.0316181 0)
(1.00854 -0.0426078 0)
(1.07019 -0.109069 0)
(1.01107 0.0144329 0)
(0.0179915 1.8568 0)
(0.00463689 1.77282 0)
(0.0766758 1.81819 0)
(0.150958 1.8463 0)
(0.105568 1.69844 0)
(0.0577898 1.68434 1.66367e-17)
(0.146331 1.71681 0)
(0.0687259 1.66454 4.70307e-18)
(0.100254 1.74681 -1.34864e-17)
(0.00229704 1.78236 0)
(0.0700818 1.7049 0)
(-0.0541949 1.75085 0)
(-0.055715 1.74161 0)
(-0.0569367 1.76216 -1.823e-17)
(0.00874751 1.68453 -1.86833e-17)
(0.0650157 1.80706 5.89715e-18)
(0.0255404 1.72812 0)
(0.0413061 1.76749 1.67957e-17)
(0.0326246 1.70083 -1.70467e-17)
(0.034621 1.79767 -3.75498e-17)
(-0.108604 1.52377 -8.67127e-18)
(0.0822571 1.66822 1.80282e-17)
(0.963893 -0.0222818 -3.96184e-17)
(0.960038 -0.0620435 5.06369e-17)
(0.965398 0.0426559 4.0232e-17)
(0.899054 0.0249871 -4.85272e-17)
(1.04276 0.076634 0)
(0.994533 0.0410683 0)
(0.997982 0.0577588 0)
(1.05065 0.0253902 0)
(0.966036 0.0127048 0)
(1.04907 0.103716 0)
(1.07521 0.0465667 0)
(1.00845 0.0438131 0)
(-0.176296 1.72816 3.11303e-18)
(0.0218192 1.81489 0)
(-0.0624051 1.78422 0)
(0.0806269 1.71753 -5.88803e-18)
(0.0763301 1.74859 6.6875e-20)
(-0.000831976 1.81805 1.14688e-17)
(-0.169398 1.73843 1.49328e-17)
(-0.130553 1.74476 0)
(-0.0683267 1.81037 0)
(0.0364492 1.77173 0)
(-0.0971304 1.73926 0)
(-0.0912491 1.76843 0)
(0.339353 1.90807 2.8286e-19)
(0.405718 2.00794 1.83279e-17)
(0.282859 1.47952 2.30126e-18)
(0.220041 1.62436 1.35567e-18)
(0.299174 1.76892 7.45205e-18)
(1.02137 0.0330751 0)
(1.00469 0.0351739 0)
(1.02141 0.0691621 0)
(0.992349 -0.0433686 0)
(1.02611 -0.0500911 0)
(0.932261 0.0381481 0)
(1.01771 0.145061 0)
(1.04788 0.0604122 0)
(0.968636 -0.032884 -4.21499e-17)
(0.98066 -0.0393581 5.41909e-17)
(0.997816 0.0208549 4.28852e-17)
(0.946572 0.0290581 -5.23895e-17)
(0.780746 1.75265 0)
(0.764722 1.73425 -1.01627e-17)
(0.820974 1.62752 3.16157e-17)
(0.940956 1.54003 6.01581e-18)
(0.872533 1.53257 -3.85534e-17)
(0.853776 0.11552 -2.00912e-17)
(1.09717 0.12552 0)
(1.12689 0.284299 -2.00757e-18)
(1.07212 0.131136 1.16095e-18)
(0.946898 0.166096 0)
(-0.704347 2.67667 -2.84002e-18)
(-0.72786 2.55922 5.13573e-17)
(-0.813197 3.11934 -1.55391e-17)
(-0.805011 1.14271 4.41526e-18)
(-0.124088 2.70864 -1.39619e-17)
(-0.0797031 2.78483 0)
(0.00685027 2.71768 9.96759e-18)
(-0.529692 2.66982 6.56952e-17)
(-0.43351 2.58063 0)
(-0.111549 2.99731 -1.35287e-18)
(-0.11484 3.06587 6.8403e-18)
(-0.0855463 3.05267 -2.90816e-17)
(-0.154498 3.04237 0)
(-0.15865 2.95976 0)
(1.03461 1.76699 0)
(0.209924 1.28568 2.53642e-17)
(1.06768 1.19193 -1.87973e-17)
(0.90079 1.47465 0)
(0.763619 1.20039 2.07348e-18)
(1.00268 1.19604 -1.85178e-17)
(0.133089 -0.160394 1.81408e-17)
(0.616319 0.286872 3.63396e-18)
(0.608315 0.309699 -4.91323e-18)
(0.40903 0.422728 -5.74015e-19)
(0.33633 0.315944 2.42885e-17)
(0.560219 0.41107 0)
(0.559455 0.497063 -1.13645e-17)
(0.559807 0.363995 0)
(0.437626 0.376104 0)
(0.472943 0.349487 0)
(0.563888 0.794992 -1.70427e-18)
(1.20967 0.280397 3.74991e-17)
(1.11914 0.492851 0)
(1.18761 0.28435 0)
(0.769973 0.229096 -7.57288e-18)
(0.567252 0.711981 1.95327e-17)
(0.527759 0.558415 -1.30104e-17)
(0.829535 0.43376 -3.45993e-18)
(0.97085 -0.00773553 -1.71499e-17)
(0.994103 0.129584 4.17419e-17)
(0.968362 0.0677183 0)
(0.973566 -0.0144919 0)
(0.97196 -0.0364842 1.63648e-17)
(0.971577 0.0280759 -3.92865e-17)
(0.929219 0.0746101 0)
(0.928703 0.016692 0)
(1.0528 -0.0184869 0)
(0.951294 -0.0143341 0)
(1.0205 -0.0336944 0)
(0.983126 -0.066198 0)
(0.111423 1.79313 0)
(0.132742 1.77531 0)
(0.0707334 1.8051 -7.35259e-18)
(0.215161 1.94001 -7.03057e-18)
(0.24357 1.87572 3.3572e-17)
(0.157152 1.903 -6.37745e-18)
(-0.0227055 1.75283 0)
(0.248428 1.71031 3.0274e-17)
(0.0703393 1.82927 0)
(0.263229 1.71099 1.63209e-17)
(0.177278 1.58319 -2.43272e-17)
(0.262519 1.65187 1.33908e-17)
(0.179383 1.76647 -7.60083e-18)
(0.0645574 1.66306 -1.6031e-17)
(0.180945 1.80992 8.77059e-18)
(0.197858 1.69556 0)
(0.23297 1.66382 -2.43171e-17)
(0.0735178 1.67307 4.50589e-18)
(0.0656825 1.6775 0)
(0.00703047 1.69107 -2.94074e-17)
(-0.0490177 1.67412 0)
(0.0320297 1.68459 1.57407e-17)
(0.0151093 1.64649 0)
(0.0344293 1.73335 2.13381e-17)
(0.100249 1.72463 0)
(0.0704 1.73063 0)
(0.0605749 1.77473 9.98743e-18)
(0.101062 1.70086 -3.51821e-17)
(0.0734605 1.74755 -2.97059e-17)
(0.0457875 1.69581 -6.42655e-20)
(0.106739 1.63085 2.0035e-17)
(0.0308968 1.55456 -1.34456e-17)
(-0.0401606 1.68522 0)
(-0.118319 1.74423 0)
(-0.0134342 1.71372 1.02379e-18)
(-0.0492169 1.74614 7.61601e-20)
(0.0501311 1.77189 2.77588e-17)
(0.0112222 1.75711 0)
(0.0813992 1.70215 3.56517e-17)
(-0.0313254 1.63653 2.73776e-18)
(-0.00535159 1.76598 -5.04772e-18)
(0.13194 1.8293 2.66454e-17)
(0.164343 1.53288 -5.43594e-20)
(-0.00882282 1.62271 -1.85567e-17)
(0.955084 0.0506615 3.98377e-17)
(0.957622 -0.0820009 -1.54827e-17)
(0.946508 0.0410297 0)
(0.95522 -0.0451627 -5.32177e-17)
(0.887162 0.160406 3.94944e-17)
(0.925389 0.0650506 -4.0379e-17)
(0.948609 -0.00673268 4.84971e-18)
(1.03236 -0.0725489 0)
(0.980916 0.0066544 -3.8645e-17)
(0.957919 -0.0397407 1.50372e-17)
(0.928168 0.020946 2.4238e-18)
(0.94289 0.130816 -1.52085e-17)
(0.970999 0.118513 0)
(0.934554 0.0742382 4.27007e-18)
(0.968613 0.0549987 0)
(0.923112 0.0730584 0)
(0.962908 0.089914 0)
(0.918039 0.000588438 0)
(0.996389 0.0843477 -7.50548e-18)
(1.00067 0.0483803 2.81835e-17)
(0.948951 0.00470548 7.76117e-18)
(0.959901 0.0113922 1.32994e-17)
(1.06952 0.10283 -1.19047e-17)
(0.960421 0.0965172 0)
(0.910363 0.0384385 0)
(0.0627891 1.83114 -1.3556e-17)
(0.204776 1.76552 -6.4718e-20)
(0.0603414 1.70485 0)
(0.0799128 1.77461 -1.84754e-17)
(-0.124713 1.78791 2.35316e-18)
(-0.0136111 1.74044 -8.22216e-19)
(-0.0536094 1.74019 -2.67221e-17)
(0.0700998 1.72848 1.7981e-19)
(0.211899 1.64822 -2.57865e-18)
(0.0189475 1.72718 1.21047e-17)
(-0.0500642 1.74536 7.69678e-18)
(-0.0217115 1.67276 -6.98371e-18)
(-0.032466 1.76173 -1.39861e-17)
(0.444062 1.77959 -7.88687e-19)
(0.336166 1.75599 -1.42399e-17)
(0.696288 1.8212 -3.63042e-17)
(0.554621 1.94719 6.18801e-18)
(0.616635 1.94101 0)
(0.244994 1.44433 -3.94084e-18)
(0.248048 1.38841 -3.4675e-18)
(0.214915 1.50263 -2.20556e-18)
(0.315927 1.51439 3.15425e-18)
(0.39292 1.48761 -1.79175e-17)
(0.234476 1.50903 0)
(0.174604 1.45682 1.88248e-18)
(0.0586029 1.65272 -1.47442e-17)
(0.0860722 1.664 1.8716e-17)
(0.0134149 1.58582 2.05549e-17)
(0.630884 1.40219 -2.58404e-17)
(0.46661 1.44366 0)
(1.02877 0.136267 -9.5109e-19)
(1.02174 -0.111475 8.27387e-19)
(0.941531 -0.118901 1.092e-17)
(0.992297 0.00538677 -1.81225e-17)
(0.976083 0.0489153 0)
(0.747206 1.63933 0)
(0.773106 1.67049 0)
(0.834704 1.35773 0)
(0.605212 1.45636 0)
(0.838709 1.52207 8.77399e-18)
(0.791126 1.48709 0)
(0.605952 1.43087 -4.9702e-19)
(0.42185 1.47878 0)
(0.552316 1.48702 3.58947e-17)
(0.588246 1.40879 1.12452e-17)
(0.814498 0.117832 0)
(0.79022 0.127485 -3.86378e-18)
(0.859983 0.117359 -2.0578e-17)
(0.833912 0.0969666 -3.81377e-19)
(0.825302 0.122812 2.57284e-17)
(1.06991 0.195115 2.33231e-17)
(0.742562 0.396997 8.60468e-18)
(0.882176 0.216551 -1.35631e-17)
(0.902565 0.110132 -1.56817e-17)
(0.827592 0.19525 4.40505e-17)
(0.870464 0.269584 -7.15402e-18)
(0.700396 0.327898 9.20787e-18)
(0.833126 0.298814 0)
(0.914489 0.167021 -9.66474e-18)
(0.937742 0.226593 0)
(0.988437 0.185204 0)
(0.942662 0.216776 -1.35356e-17)
(0.921771 0.333027 9.50571e-18)
(0.861823 0.130443 1.16354e-17)
(0.9284 0.125236 0)
(0.919134 0.072292 -3.01576e-17)
(0.938197 -0.0615189 -1.50342e-17)
(1.04259 0.0866252 1.08866e-17)
(0.961327 0.151875 2.90547e-17)
(0.894444 0.0194332 6.64244e-18)
(0.868234 0.215394 0)
(0.926647 0.0278959 0)
(0.894715 0.11951 2.67415e-17)
(0.898624 -0.0104948 -2.41633e-18)
(0.980311 0.152693 -3.33192e-17)
(1.02713 0.132621 1.94807e-17)
(0.926135 0.158931 -2.65332e-17)
(0.882359 0.227342 0)
(0.977757 0.150898 0)
(0.903382 0.114714 2.20015e-17)
(0.924275 0.112307 1.00834e-17)
(0.595038 1.58546 4.60122e-19)
(0.562222 1.54697 1.42904e-18)
(0.743124 1.60812 1.73612e-17)
(0.731357 1.75953 -3.70115e-18)
(0.878448 1.58089 2.18467e-17)
(1.02997 1.75546 -9.32129e-18)
(1.00852 1.62698 2.49463e-18)
(0.855375 1.7029 8.31492e-18)
(0.788956 1.66738 -2.35195e-17)
(0.839724 1.97814 -6.41777e-18)
(1.01257 1.94038 6.88811e-18)
(1.07093 1.98488 0)
(0.416179 1.43102 2.1289e-19)
(-0.913602 1.78977 -1.27713e-17)
(-0.385733 0.256669 -1.34892e-17)
(-0.599854 0.666248 -1.90159e-17)
(0.267679 0.367942 -1.56891e-17)
(0.211219 0.356915 2.28642e-17)
(0.153231 0.428786 -1.98966e-17)
(0.111194 0.248749 7.47414e-18)
(0.263077 0.203855 -1.70431e-17)
(0.733443 0.297425 1.49592e-17)
(0.618665 0.344456 0)
(0.640129 0.273453 1.87002e-18)
(0.512286 0.515952 -1.11116e-17)
(0.332837 0.591528 3.15823e-17)
(0.271009 0.474208 -1.82472e-18)
(0.37413 0.414428 0)
(0.444364 1.06927 -1.6562e-17)
(0.693776 0.971214 1.42703e-18)
(0.62768 1.18663 2.9954e-17)
(0.661564 0.986805 9.55077e-18)
(0.879974 0.948851 8.37816e-19)
(0.896609 1.0919 -3.89948e-18)
(0.688796 0.759182 2.04682e-17)
(0.727286 0.980086 -2.18295e-18)
(0.966077 0.870007 0)
(0.868145 0.794858 1.5482e-17)
(0.851111 0.406161 8.42508e-18)
(0.965614 0.405425 -1.9385e-17)
(1.0755 0.327495 -2.72438e-17)
(0.858279 0.466806 2.73296e-17)
(1.02414 0.390657 0)
(0.970709 0.392232 0)
(0.705105 0.431661 1.52568e-17)
(0.761242 0.292835 0)
(0.648043 0.361159 -1.35619e-17)
(0.908647 0.282226 2.06897e-17)
(0.853724 0.586229 -8.21936e-17)
(0.666666 0.578852 -1.46598e-17)
(0.691635 0.576301 1.62664e-17)
(0.654493 0.459905 -1.52582e-17)
(0.607434 0.560933 -9.87019e-18)
(0.56002 0.426113 7.53765e-18)
(0.980243 0.117215 -3.55779e-17)
(0.945433 -0.117683 0)
(0.975639 0.0234988 -1.10116e-17)
(0.896271 0.171217 2.7716e-17)
(1.01252 -0.025976 -2.27135e-17)
(0.929464 0.0582671 3.36172e-17)
(1.0057 -0.00451829 0)
(0.95521 -0.0323989 1.06186e-17)
(0.972166 0.0941038 -1.70635e-17)
(0.944924 0.0123757 7.59487e-18)
(0.937657 -0.108591 -3.64513e-18)
(-0.060608 1.78252 0)
(0.211088 1.7014 0)
(0.0241472 1.76701 0)
(-0.00904929 1.81061 0)
(0.0917518 1.76747 -1.59075e-17)
(0.0806783 1.74099 -2.81299e-17)
(0.108944 1.66875 -5.92547e-18)
(0.201898 1.65 -3.01603e-17)
(-0.071709 1.74507 2.59441e-17)
(0.0847451 1.69108 1.18774e-17)
(0.0352924 1.78884 3.63605e-17)
(0.0592094 1.70914 2.56783e-17)
(0.0497593 1.71396 4.19973e-18)
(0.189899 1.77218 1.48552e-18)
(0.0179923 1.63556 -1.29113e-17)
(0.098075 1.64011 0)
(0.0810545 1.70539 -1.59188e-17)
(0.00882309 1.7609 -5.1075e-18)
(0.106341 1.60977 -2.48718e-18)
(0.110029 1.6316 0)
(0.141809 1.56547 2.86251e-17)
(0.106599 1.58807 6.1332e-18)
(0.215669 1.63822 -1.08563e-17)
(0.175669 1.68737 -2.89458e-17)
(-0.0704997 1.50794 0)
(0.0595392 1.6269 1.84091e-17)
(-0.00571216 1.57884 2.75814e-18)
(-0.0838158 1.61191 0)
(0.0820611 1.76146 6.4092e-18)
(0.0499514 1.77184 1.03537e-18)
(0.00446111 1.73433 2.12596e-18)
(0.0424375 1.63468 -1.87574e-17)
(-0.0281205 1.71078 -2.31015e-17)
(-0.119924 1.56758 1.01247e-17)
(0.0537227 1.80324 0)
(-0.0148467 1.8283 0)
(-0.0355905 1.73334 -1.49306e-17)
(0.0646935 1.68671 -1.31169e-19)
(-0.0349169 1.78561 0)
(-0.0148014 1.75975 7.43851e-18)
(0.0455732 1.71692 5.19386e-18)
(0.915096 0.243649 0)
(1.04292 0.16305 2.32401e-18)
(0.931784 0.100455 2.92077e-17)
(0.876207 0.00616197 0)
(0.91048 -0.117501 0)
(1.05068 -0.0961587 6.47485e-18)
(0.934692 -0.142526 -4.20483e-17)
(0.920152 5.88111e-05 -3.62819e-17)
(0.946364 0.00162432 0)
(0.958241 -0.00701769 0)
(0.921471 -0.0407879 -6.71371e-18)
(0.941029 0.0407811 0)
(0.92184 0.104524 0)
(-0.0625625 1.77962 0)
(-0.0395492 1.62127 -1.25393e-17)
(-0.0297293 1.61829 1.17684e-17)
(-0.0362314 1.71464 0)
(0.133761 1.74111 -1.34057e-17)
(0.0440478 1.73562 -4.83213e-18)
(-0.0154604 1.68648 0)
(0.311683 1.6502 0)
(0.291231 1.54633 2.689e-17)
(0.302048 1.52052 0)
(0.393182 1.78298 5.04478e-19)
(0.49538 1.78478 0)
(0.497709 1.79994 2.0957e-17)
(0.553735 1.41916 2.74519e-19)
(0.592798 1.38644 1.01848e-17)
(0.581746 1.38751 -2.86782e-17)
(0.483455 1.39538 -6.47297e-18)
(0.464986 1.44281 0)
(0.57389 1.4462 0)
(0.589231 1.41973 0)
(0.497283 1.373 1.31635e-17)
(0.328581 1.50648 -9.38596e-19)
(0.306298 1.46985 3.66022e-18)
(0.41153 1.4818 -1.26588e-18)
(0.302167 1.43889 0)
(0.441841 1.44351 0)
(0.38674 1.40559 4.13602e-18)
(0.343795 1.46102 0)
(0.430168 1.49225 0)
(0.569977 1.37399 -2.43827e-18)
(0.457567 1.24874 -7.97766e-19)
(0.69473 1.55847 0)
(0.645666 1.61076 -4.68848e-17)
(0.674087 1.39704 2.33675e-18)
(0.926209 1.23018 0)
(0.775052 1.11805 -1.83164e-17)
(0.363878 1.53123 0)
(0.387464 1.28861 0)
(0.710209 1.46131 1.4445e-17)
(0.678201 1.57042 4.75784e-18)
(0.700867 1.52146 -2.5378e-17)
(0.69657 1.52848 3.04146e-18)
(0.700574 1.4233 0)
(0.66164 1.44751 -6.56905e-18)
(0.738867 1.4618 6.33736e-18)
(0.744438 1.41514 -2.34698e-18)
(0.592909 1.46649 0)
(0.547969 1.61008 1.58943e-17)
(0.620108 1.55105 0)
(0.797929 0.196285 0)
(0.794578 0.199958 0)
(0.70629 0.211522 0)
(0.771533 0.293959 1.23235e-17)
(0.739259 0.208695 -6.58364e-18)
(0.980724 -0.0125115 1.44799e-17)
(0.883681 0.0353967 0)
(0.87563 0.0185991 -4.5436e-18)
(0.813289 0.149275 -1.85966e-17)
(0.806277 0.0544029 9.39479e-18)
(0.865265 2.3018 -1.47674e-17)
(0.812718 2.11594 0)
(0.815119 2.39731 -3.32643e-17)
(0.190856 2.54919 6.60727e-18)
(0.281204 2.1011 1.40266e-17)
(0.164985 1.57013 -2.09573e-17)
(0.298227 1.54265 0)
(-0.0785887 0.996167 4.70899e-18)
(-0.0910008 1.18708 -4.99414e-18)
(-0.323858 0.664935 7.13446e-18)
(0.00243266 0.554758 -2.7877e-18)
(0.278017 0.601987 -1.25996e-17)
(0.493749 0.627309 0)
(0.156515 0.892935 0)
(0.0495685 0.835734 0)
(0.807829 0.764874 -3.03607e-18)
(0.725085 0.602174 1.63745e-17)
(0.856994 0.671003 -1.39196e-17)
(0.782257 0.500375 1.77442e-17)
(1.01017 0.647066 0)
(0.940529 0.682471 7.74109e-19)
(0.743364 0.364025 2.23438e-17)
(0.714519 0.301498 3.25301e-17)
(0.577171 0.479502 -1.59581e-17)
(0.599932 0.441554 1.45943e-17)
(0.732363 0.366391 8.85083e-18)
(0.679593 0.33719 -1.91921e-17)
(1.04026 0.000683961 4.97902e-18)
(1.03572 0.0277053 -4.47876e-17)
(1.03766 0.0655898 -9.65667e-18)
(1.0091 -0.0488498 4.03299e-17)
(0.784203 0.0720216 0)
(0.732651 -0.026554 3.62064e-17)
(0.11636 1.62599 6.28455e-18)
(-0.0414729 1.71027 0)
(0.113894 1.73923 -2.79007e-17)
(0.0352804 1.69728 -4.38046e-18)
(0.0444787 1.70973 -1.80478e-17)
(0.088904 1.74473 0)
(0.0752696 1.78203 0)
(0.0250219 1.64646 -4.79871e-18)
(-0.0481366 1.51323 -6.82528e-18)
(0.0695867 1.56704 -1.4907e-17)
(-0.1828 1.77051 -1.46711e-18)
(-0.0035274 1.64294 -2.1276e-18)
(0.511137 1.60168 -1.32722e-17)
(0.554513 1.62146 -5.96663e-17)
(0.434411 1.71518 3.63456e-17)
(0.571647 1.65714 -2.42782e-18)
(0.599132 1.72011 0)
(0.573219 1.80783 3.59695e-17)
(0.512231 1.7882 7.41895e-18)
(0.514559 1.70973 6.99181e-18)
(0.597164 1.73927 0)
(0.676756 1.66342 0)
(0.546137 1.47319 -3.03143e-17)
(0.19394 1.53376 -4.0378e-17)
(0.202335 1.52753 -2.46077e-18)
(0.125872 1.53767 1.6747e-18)
(0.380306 1.48973 -4.35643e-18)
(0.257511 1.42039 6.15591e-18)
(0.602466 1.41273 9.46946e-18)
(0.680425 1.42077 0)
(0.616547 1.38868 1.53754e-17)
(0.671296 1.4113 0)
(0.662485 1.45977 0)
(0.549209 1.83971 1.10044e-17)
(0.53422 1.92674 1.08606e-17)
(0.369389 2.02241 -1.22932e-17)
(-0.620511 1.61313 0)
(-0.30326 1.5519 1.31823e-18)
(0.0291158 1.58683 -2.01787e-18)
(0.385623 1.76222 0)
(0.0870497 2.17203 -5.38581e-18)
(-0.341024 2.29729 0)
(0.466417 1.00234 1.54929e-17)
(0.587046 1.01117 -4.30548e-17)
(0.644019 0.845888 2.15915e-17)
(0.26586 0.847293 1.85604e-18)
(0.376879 0.803838 1.0625e-17)
(0.613019 1.80404 -1.19847e-17)
(0.67541 1.72373 1.27554e-17)
(0.640263 1.84162 -1.66101e-17)
(0.61653 1.73044 2.13202e-17)
(0.561506 1.61343 2.93734e-17)
(0.615299 1.71632 -7.38315e-18)
(0.661551 1.70301 -2.09588e-17)
(0.604701 1.68929 -8.54645e-19)
(0.52535 1.61354 2.5711e-18)
)
;

boundaryField
{
    wall-4
    {
        type            calculated;
        value           uniform (0 0 0);
    }
    velocity-inlet-5
    {
        type            calculated;
        value           uniform (1 0 0);
    }
    velocity-inlet-6
    {
        type            calculated;
        value           uniform (0 3 0);
    }
    pressure-outlet-7
    {
        type            calculated;
        value           nonuniform List<vector> 8((-0.253176 1.76179 0) (0.0507801 1.73323 1.73899e-17) (-0.0554357 1.6704 0) (0.0106965 1.7203 0) (-0.00135734 1.72816 0) (-0.0107816 1.74606 0) (-0.00229017 1.73648 0) (0.0737162 1.77082 0));
    }
    wall-8
    {
        type            calculated;
        value           uniform (0 0 0);
    }
    frontAndBackPlanes
    {
        type            empty;
    }
}

