/*--------------------------------*- C++ -*----------------------------------*\
  =========                 |
  \\      /  F ield         | OpenFOAM: The Open Source CFD Toolbox
   \\    /   O peration     | Website:  https://openfoam.org
    \\  /    A nd           | Version:  6
     \\/     M anipulation  |
\*---------------------------------------------------------------------------*/
FoamFile
{
    version     2.0;
    format      ascii;
    class       volScalarField;
    location    "0";
    object      P_rec;
}
// * * * * * * * * * * * * * * * * * * * * * * * * * * * * * * * * * * * * * //

dimensions      [0 2 -2 0 0 0 0];

internalField   nonuniform List<scalar> 
13046
(
1.08619
1.03522
1.04675
1.0974
1.06717
1.03488
1.08312
1.03046
1.06413
0.806291
0.477323
1.00003
1.0866
0.975598
1.03771
0.880257
0.982009
0.554434
1.0935
1.0574
1.07866
0.868358
0.988521
0.543967
1.08955
1.06233
1.05309
1.07067
0.973477
1.03104
1.09394
1.01288
1.03592
1.09432
1.06873
1.0623
1.09162
1.07529
1.07017
1.07629
1.01698
1.02148
1.07966
1.09062
1.07993
1.08865
1.07861
1.06897
1.07859
1.02391
1.04874
0.965188
1.06019
0.980698
0.964823
0.971276
1.06003
0.773387
1.01286
0.973897
1.03234
0.902108
1.03913
1.00444
0.678819
0.936533
1.02321
0.793099
0.968011
1.03614
0.821176
0.969929
0.729546
0.997851
0.97242
1.09261
1.06141
1.06683
0.978594
0.970392
0.696173
1.08781
1.05057
1.05236
1.00009
0.633665
0.90595
0.910328
1.02008
0.699133
1.02538
0.851092
0.682209
1.03006
1.01406
0.859608
0.831295
1.01219
1.01519
1.02376
0.913617
0.719892
1.09353
1.08029
1.06007
1.06861
1.01083
0.982003
1.06635
0.998049
1.00889
0.664288
1.00026
0.312357
1.0892
0.998826
1.0387
1.01106
1.02694
0.803473
0.998815
0.846556
1.0026
0.778222
0.433371
0.99808
1.06303
0.906459
1.02403
1.07714
1.01793
1.01268
1.02736
0.872066
0.72284
0.985292
0.780691
1.0169
1.08934
0.993871
1.02789
1.06019
0.993141
1.05412
1.05971
0.983406
1.01206
1.0689
1.03183
1.00147
1.02743
0.872691
1.03607
1.07796
1.05798
1.01958
0.926418
0.975755
0.906818
0.973136
1.05175
1.04881
1.05676
0.969875
1.05885
0.794568
1.0044
0.490236
0.712433
0.999208
0.352051
0.975729
0.750503
1.0116
1.07443
0.958947
1.00022
1.05871
1.06328
0.983275
1.01081
0.545696
0.817912
1.07474
0.981756
0.999024
1.07535
1.04391
1.00538
1.06769
1.00388
1.05654
0.95467
1.04275
1.06767
0.934488
1.02475
0.895259
1.01257
0.647872
1.02784
0.907036
0.741616
0.855667
0.662074
1.02319
0.945436
0.93907
1.05088
1.07436
0.979486
0.969972
0.698638
0.622386
0.84723
1.02014
1.08821
1.07681
1.06298
1.07497
0.987403
1.0259
1.02906
0.892596
0.745938
1.06694
0.963911
1.04777
1.00549
0.413289
0.722303
1.04986
0.941587
0.931693
0.885915
0.703128
1.02466
1.00849
0.938965
1.056
1.05248
0.907941
1.02111
0.812168
0.906633
1.03205
0.954595
0.881873
1.04243
1.00846
0.40195
0.693404
1.07453
0.9979
0.98917
0.686488
0.992007
0.265231
1.08391
1.08718
1.05073
1.0256
1.02562
0.937388
0.953301
1.05757
1.04823
0.971947
0.952676
0.65882
1.06331
0.932483
1.01358
0.950889
0.852058
1.0399
0.992893
0.787647
1.00625
1.0832
1.07567
1.08746
0.995634
0.913136
1.04927
1.06387
0.915175
1.00871
1.06863
1.06655
1.07422
0.986447
0.967888
0.993058
0.891168
1.04465
0.96823
1.00505
0.758359
1.07955
1.00359
1.01077
1.05107
0.954868
0.91372
1.02492
0.830899
0.990442
1.06252
0.970773
0.969999
1.00767
1.00431
0.799347
0.988091
0.785449
0.99341
1.00778
0.572531
0.840387
1.03467
0.873033
1.00429
0.201938
1.00014
0.574818
1.07843
1.07676
1.01767
1.04607
0.926825
1.04012
1.0128
0.921577
0.689212
0.949629
0.953767
1.05687
0.784306
0.903055
1.03072
0.994662
1.04669
1.03267
0.912027
1.03055
0.985003
1.05594
0.910536
0.983229
0.597547
0.950901
0.913613
1.05243
1.02109
0.886883
1.02432
1.04892
0.978776
1.05861
1.00819
0.972239
1.06485
1.09233
1.02661
1.05539
1.04773
0.958016
0.924976
0.876168
0.651452
1.01674
0.787323
0.904547
1.0327
1.03739
0.969327
0.866267
0.988161
1.00091
0.773115
0.737167
0.976403
0.980877
0.998658
0.22449
0.612856
0.714257
0.990354
0.295812
1.01778
0.920233
1.04309
1.01004
0.88159
0.611366
1.03116
1.02948
0.849153
0.829357
0.985639
0.983064
1.01984
0.556613
0.77777
0.665816
0.990547
0.22054
1.07064
1.09286
1.067
0.658089
0.271348
0.998341
1.07373
0.950169
0.996217
0.830228
0.566343
1.01339
0.208022
1.00932
0.494687
1.07914
1.02131
1.03928
1.0821
1.05519
1.07409
0.781663
0.99495
0.424376
1.07545
1.03922
1.07222
1.07556
1.09121
1.07465
1.05253
0.923699
0.924482
1.06589
1.05059
1.08433
1.08014
1.01995
1.08069
1.0444
0.884358
0.967104
0.992605
0.998841
0.539161
0.532865
0.85175
0.843085
0.842672
0.621274
1.0156
0.972443
1.03462
0.834945
1.07016
0.995804
0.996067
0.936926
0.873684
1.03783
0.317845
1.01275
0.563724
1.02342
0.841609
0.653301
0.735248
1.00094
0.395287
1.00973
0.171833
0.477204
0.131012
1.00331
0.522203
0.859788
0.988461
1.03441
0.458145
1.01795
0.688143
0.964115
0.766679
1.01892
0.844484
0.975121
0.459603
1.08273
1.04598
1.01485
0.59243
1.02094
0.806222
0.9415
1.04002
0.890105
0.840285
0.952125
1.03946
1.01009
0.0275277
0.371407
0.230613
1.00409
0.552516
1.08961
1.05748
1.02412
0.539884
0.770029
1.01714
1.0195
0.739023
0.527913
0.878509
1.00294
0.6069
0.979525
0.659179
0.941697
1.05319
0.879496
0.965542
0.79057
1.01502
0.982818
0.97534
0.919943
0.581981
1.07112
1.06535
0.955266
0.929777
1.00925
1.00942
1.07298
0.96611
1.006
1.04173
0.84407
0.983306
0.810984
0.927907
1.0344
0.609931
0.84259
1.01725
1.03026
0.930525
0.780475
0.146868
1.00091
0.557977
1.09117
1.08964
1.03417
1.02849
1.04234
1.03303
1.06002
1.05003
0.987697
0.890473
0.985316
0.922567
0.236147
1.01115
0.495409
0.559733
0.794037
1.01683
1.06047
0.973718
0.95736
0.83839
0.920331
1.03643
0.978082
0.682753
0.956456
0.317221
0.635538
1.00682
0.357105
0.656049
1.00846
1.03508
0.846433
0.993251
1.08103
1.00193
1.02676
0.860866
1.00178
0.565849
0.838523
0.967931
1.03531
1.0041
0.712986
0.956824
1.05354
0.987613
0.931208
1.01419
0.951934
1.05727
1.07566
1.00808
1.01205
1.00467
0.545579
0.835409
0.992381
0.776558
0.999269
1.08661
1.03078
1.04085
0.893293
0.972127
0.534256
1.0755
0.997173
1.02546
1.07095
1.00777
1.06991
0.861959
0.971098
1.04032
0.769671
0.983898
0.354525
0.792847
0.980231
0.376388
0.998495
0.700835
0.955402
0.993958
0.951436
1.05304
0.982753
0.299427
0.73176
1.01729
0.725891
0.944484
1.01041
0.145903
0.429936
0.494458
0.0867641
1.00035
0.98047
0.60677
0.926774
1.00682
0.467575
0.76468
0.885452
0.905791
0.991625
0.574583
0.994745
0.619394
0.931106
0.7337
1.02019
1.04206
0.85491
0.909805
1.09867
1.04861
1.03851
0.947369
0.771269
1.02841
1.03119
0.956326
0.793327
0.936297
0.971959
0.608429
1.05376
0.866066
0.981456
1.06343
0.928075
0.989006
0.994941
0.849821
1.03093
0.985397
0.836926
1.0324
1.08933
1.03028
1.05436
1.06289
0.915268
1.00791
1.02184
0.605608
0.797883
0.634729
1.01187
0.366481
0.604441
1.0146
0.357241
1.0764
1.01292
0.994492
0.280548
1.00856
0.584372
0.975226
0.996605
0.731653
1.00998
0.286929
0.550502
1.09618
1.07417
1.0445
1.05965
0.93712
1.03139
0.957948
0.993105
1.0577
1.01847
0.486783
0.722384
0.837754
0.969399
1.03709
0.976301
0.873326
0.51275
1.04312
0.914696
1.02815
1.10031
1.05608
1.04686
0.494867
0.747411
1.01471
1.00937
0.701537
0.9419
0.758035
0.729012
0.991654
0.993185
0.37847
0.342416
1.04131
0.95556
1.05335
0.883189
1.00074
1.0376
1.07373
1.02153
1.06612
0.415851
0.672653
0.423831
1.01265
0.669685
1.01509
1.01713
0.845234
1.023
0.742376
0.706747
0.470404
0.432916
1.01293
1.01296
0.999429
0.903322
1.04634
1.05967
0.957305
1.04127
0.823326
0.980545
0.437145
1.05621
0.94458
1.04992
1.07604
0.999428
1.05882
0.776055
0.985427
0.385464
1.04679
0.887262
1.01804
0.89804
0.920104
1.04206
1.05586
0.910633
0.979525
0.745455
1.02724
0.871634
1.00777
0.0637204
0.410738
1.04333
0.933452
1.03756
0.845255
0.986705
0.496263
0.959567
0.896684
1.05288
0.581346
0.993185
0.155132
1.0756
1.07008
1.00791
1.04555
1.00293
1.03825
1.07863
1.01919
1.0713
1.07632
1.0803
1.01556
1.04545
1.0296
1.04491
1.05272
0.970878
1.05304
1.06273
0.971419
1.05461
1.01526
0.38641
0.619251
1.07679
0.986344
1.00829
0.774279
0.494181
1.00976
0.989368
0.973151
0.825829
0.791489
1.02509
1.02193
1.07459
1.00841
1.0185
1.04283
0.876377
0.987532
1.01833
0.873144
1.03114
1.09328
1.06653
1.05863
0.967517
0.795531
1.02816
1.0917
1.03742
1.04621
1.01599
0.90374
1.04371
1.04467
0.895091
0.990622
1.09136
1.08999
1.06078
1.05901
1.06521
1.05161
1.08503
1.0254
1.08466
1.06138
1.04279
1.0533
1.07469
1.07433
0.969595
0.960347
1.01801
1.01432
0.984902
0.676153
0.953054
1.04433
0.936211
0.91616
0.98901
0.993043
0.639845
0.652536
0.930904
0.928913
1.05841
0.968874
0.951285
1.09181
1.07459
1.07388
0.962515
0.77336
1.0244
1.08756
1.0239
1.00993
1.0411
0.880709
0.992774
0.984939
0.989426
0.726207
0.985907
0.743526
0.989482
0.998694
0.820588
1.01963
0.616836
0.198945
0.993552
0.956273
0.917502
1.05245
1.0507
1.0543
0.963574
0.899825
0.974594
0.921099
0.944536
0.806519
1.03362
1.04565
0.898054
0.990626
1.06246
0.966069
0.941512
1.05439
1.06564
0.980795
0.995711
0.953457
0.949246
1.0522
0.981206
0.928595
1.00291
0.837632
1.02544
1.09032
1.03995
1.05644
0.805671
0.991003
0.44977
1.0599
0.965796
0.924132
1.05011
1.03928
0.886121
0.863331
0.996294
1.00119
0.990112
0.493861
0.836143
0.829348
0.984968
0.456751
0.803423
0.986952
0.426481
0.974195
0.990692
0.718923
1.05285
0.922294
0.997365
0.49256
0.64576
0.88096
0.497765
0.811899
0.295393
0.740702
0.593608
0.443738
0.807266
0.804867
0.412843
0.497592
0.796999
0.643046
0.5014
0.534571
0.605454
0.647847
0.764865
0.682599
0.593335
0.82772
0.971171
0.898712
0.65116
0.827027
0.429567
0.703248
0.488992
0.445327
0.740039
0.66042
0.669351
0.483914
0.68091
0.878471
0.821772
0.554024
0.67883
0.564425
0.993737
0.50991
0.797666
0.839717
0.59739
0.605695
0.536391
0.421354
0.511212
0.906116
0.691914
0.503681
0.58148
0.440781
0.901633
0.764304
0.66926
0.527534
0.78602
0.506271
0.520107
0.901397
0.615182
0.669793
0.768163
0.694289
0.94419
0.824278
0.791359
0.38897
0.435663
0.563505
0.785535
0.421735
0.67
0.635443
0.476605
0.770956
0.857719
0.603828
0.661122
0.427816
0.4872
0.589133
0.781378
0.591331
0.532594
0.634211
0.906312
0.505418
0.790288
0.894841
0.674584
0.501559
0.236723
0.482586
0.541791
0.499841
0.38641
0.720809
0.832282
0.850553
0.949595
0.492853
0.511393
0.426561
0.517544
0.485145
0.87617
0.838949
0.766308
0.471055
0.440521
0.693669
0.812099
0.614501
0.53218
0.367121
0.599597
0.659522
0.912373
0.938869
0.789868
0.665543
0.568917
0.413132
0.926751
0.452272
0.782047
0.378219
0.89811
0.428687
0.457372
0.478228
0.856572
0.658855
0.338407
0.500463
0.747396
0.498087
0.78887
0.70469
0.522099
0.833841
0.577418
0.481567
0.868045
0.508811
0.617231
0.414665
0.671275
0.549915
0.854745
0.790141
0.605733
0.783763
0.78883
0.880061
0.641976
0.557601
0.516159
0.781531
0.451447
0.678862
0.432864
0.973242
0.601094
0.846689
0.929902
0.686276
0.932515
0.860656
0.881668
0.457705
0.371418
0.412161
0.883351
0.462916
0.440504
0.448105
0.442587
0.61469
0.574164
0.685638
0.928769
0.789258
0.570287
0.776369
0.558187
0.986087
0.423328
0.826233
0.525169
0.356434
0.917625
0.941949
0.517298
0.541534
0.970452
0.708548
0.554832
0.490022
0.787123
0.873186
0.742683
0.500153
0.529437
0.796463
0.657105
0.493247
0.716655
0.456171
0.458456
0.5716
0.818624
0.374415
0.582093
0.833764
0.583361
0.3714
0.600519
0.506733
0.551879
0.733215
0.746543
0.484064
0.43728
0.471782
0.768419
0.742115
0.617734
0.75473
0.585177
0.464003
0.71997
0.56743
0.353498
0.749927
0.867286
0.700439
0.901428
0.870197
0.992677
0.502837
0.327974
0.630913
0.603139
0.545153
0.382553
0.715429
0.910574
0.770438
0.716189
0.490641
0.619526
0.767863
0.6769
0.722724
0.511055
0.625193
0.566876
0.444373
0.485699
0.52562
0.506626
0.472173
0.749868
0.6621
0.608849
0.757563
0.506082
0.621763
0.512936
0.603682
0.582765
0.552043
0.709379
0.385107
0.32552
0.627523
0.406895
0.380131
0.716497
0.421887
0.378949
0.85612
0.760314
0.494667
0.761953
0.451108
0.742763
0.715709
0.465478
0.506153
0.814039
0.640771
0.772673
0.29811
0.4752
0.856354
0.559286
0.482085
0.302044
0.39362
0.368472
0.401371
0.577782
0.758593
0.465574
0.360615
0.492363
0.545917
0.987455
0.508803
0.783403
0.69658
0.439892
0.572679
0.487058
0.435089
0.737024
0.581136
0.910593
0.740645
0.482891
0.578133
0.693743
0.968268
0.757475
0.880501
0.79538
0.566393
0.691338
0.618995
0.483881
0.392582
0.546154
0.537568
0.732541
0.52087
0.420282
0.502087
0.562103
0.497891
0.527368
0.840462
0.546579
0.528722
0.890747
0.830656
0.483949
0.656101
0.873949
0.538085
0.41439
0.577041
0.470202
0.431607
0.861313
0.498802
0.588776
0.872775
0.384039
0.676009
0.50119
0.687183
0.581474
0.529881
0.258688
0.574556
0.418459
0.568669
0.596704
0.600305
0.76174
0.904566
0.498042
0.646747
0.559863
0.48371
0.349351
0.827503
0.703699
0.574273
0.423148
0.690638
0.411724
0.508923
0.493406
0.479958
0.79724
0.890689
0.559503
0.75596
0.948
0.836508
0.822168
0.884023
0.547408
0.540218
0.434127
0.968852
0.808905
0.850449
0.529676
0.589151
0.363812
0.770585
0.557662
0.503962
0.850135
0.722017
0.459968
0.569817
0.495572
0.501525
0.503111
0.580425
0.606748
0.455069
0.551622
0.399499
0.573916
0.461721
0.717226
0.63624
0.37545
0.879578
0.897847
0.791136
0.555831
0.684113
0.423109
0.808789
0.68236
0.416908
0.872874
0.362817
0.91343
0.40591
0.614176
0.614649
0.791321
0.791423
0.49953
0.936527
0.511755
0.838537
0.613361
0.721512
0.543073
0.491516
0.533839
0.841413
0.604666
0.962167
0.772201
0.391843
0.508161
0.744407
0.378595
0.560279
0.613964
0.454216
0.911304
0.47116
0.451245
0.807203
0.538466
0.910031
0.951383
0.599379
0.960175
0.914818
0.851431
0.858076
0.705309
0.424961
0.505994
0.589981
0.831801
0.579519
0.365107
0.933985
0.468296
0.625239
0.497368
0.885231
0.98248
0.477311
0.83758
0.693912
0.903006
0.574844
0.798703
0.613192
0.931541
0.957114
0.753567
0.501618
0.796162
0.535549
0.654027
0.657366
0.59493
0.700968
0.523667
0.364587
0.437314
0.610889
0.717355
0.65957
0.858817
0.488952
0.555927
0.713078
0.437771
0.894985
0.49042
0.613196
0.872709
0.851437
0.675566
0.944057
0.489368
0.585532
0.79705
0.629064
0.626078
0.614064
0.536375
0.747062
0.77141
0.536174
0.497074
0.679915
0.392978
0.453778
0.902457
0.942433
0.957396
0.598981
0.956158
0.976904
0.917889
0.344923
0.709809
0.703197
0.945777
0.569288
0.497573
0.417689
0.499155
0.340925
0.927339
0.638996
0.649883
0.803591
0.756646
0.558943
0.609739
0.976971
0.921043
0.882767
0.741941
0.569027
0.758312
0.735331
0.570692
0.610596
0.446591
0.498404
0.642671
0.641121
0.537987
0.899693
0.907152
0.351366
0.853997
0.506793
0.501409
0.559951
0.891699
0.595213
0.750278
0.628586
0.886559
0.582956
0.627506
0.948977
0.357541
0.392582
0.48803
0.461976
0.324321
0.203571
0.471821
0.326851
0.648305
0.345277
0.452685
0.640912
0.55324
0.475764
0.546051
0.43203
0.236177
0.914045
0.832531
0.593859
0.41856
0.840458
0.575992
0.496342
0.954747
0.478746
0.947053
0.589316
0.863523
0.596634
0.423412
0.447522
0.653849
0.659677
0.650972
0.427464
0.588675
0.460292
0.459905
0.514688
0.380569
0.438282
0.924597
0.487622
0.779177
0.805849
0.573091
0.816197
0.81093
0.417486
0.211049
0.612448
0.393821
0.332035
0.777494
0.791603
0.595852
0.729241
0.559192
0.948602
0.911268
0.622862
0.547184
0.939394
0.867311
0.722222
0.715389
0.580212
0.955082
0.639247
0.348813
0.889032
0.823987
0.906663
0.66778
0.508669
0.557364
0.794695
0.741062
0.143456
0.998714
0.608654
0.488013
0.675447
0.852413
0.940728
0.964641
0.72612
0.612948
0.813059
0.866599
0.875034
0.774462
0.831675
0.436922
0.504807
0.678203
0.434255
0.427066
0.378117
0.605124
0.815936
0.399049
0.653454
0.50791
0.834698
0.965146
0.63891
0.42822
0.368289
0.792265
0.54706
0.491673
0.366991
0.889965
0.699069
0.718987
0.407885
0.71081
0.490011
0.501865
0.771028
0.814278
0.890208
0.980499
0.470639
0.864166
0.351827
0.886522
0.909004
0.908266
0.809518
0.454833
0.454178
0.60435
0.347668
0.630949
0.378944
0.685814
0.413723
0.852579
0.575874
0.360247
0.850846
0.778864
0.616346
0.625572
0.770231
0.887021
0.697699
0.643147
0.355504
0.829734
0.659088
0.917563
0.327441
0.645517
0.891241
0.786998
0.943409
0.785456
0.588879
0.31237
0.361764
0.630466
0.387225
0.922056
0.358662
0.51838
0.609568
0.496963
0.811387
0.332124
0.880108
0.79795
0.717782
0.364184
0.721382
0.477425
0.550583
0.637053
0.609406
0.586771
0.575276
0.818279
0.463371
0.95124
0.576163
0.619042
0.756715
0.770045
0.922848
0.588781
0.627223
0.475828
0.609887
0.561761
0.92126
0.498157
0.647604
0.579221
0.826328
0.544886
0.667425
0.431917
0.965815
0.344003
0.453636
0.540993
0.83352
0.365208
0.369987
0.443172
0.41832
0.898643
0.635803
0.753383
0.864176
0.731138
0.649871
0.968154
0.632786
0.774368
0.738257
0.650682
0.377668
0.66815
0.645304
0.522557
0.667143
0.460868
0.392118
0.688305
0.563615
0.463376
0.816567
0.611636
0.751096
0.636301
0.9053
0.603183
0.586815
0.735911
0.418839
0.488603
0.581307
0.655923
0.691708
0.740782
0.891064
0.763524
0.832662
0.68095
0.866284
0.927038
0.928728
0.676039
0.633802
0.692386
0.427225
0.938091
0.86204
0.835326
0.66223
0.459766
0.383515
0.695065
0.784976
0.489133
0.830231
0.856474
0.733703
0.504236
0.654812
0.525338
0.493002
0.665738
0.512514
0.718854
0.36768
0.717882
0.602696
0.624799
0.333142
0.684488
0.661792
0.758342
0.566857
0.708322
0.898616
0.906947
0.727257
0.595758
0.834328
0.683597
0.494052
0.491114
0.605812
0.407928
0.886278
0.624263
0.695611
0.798122
0.778739
0.713829
0.45571
0.950365
0.720333
0.507006
0.638867
0.670886
0.834347
0.894845
0.724818
0.716072
0.368787
0.471395
0.631668
0.727564
0.65038
0.729939
0.531644
0.903681
0.705011
0.803148
0.870921
0.693154
0.486113
0.648241
0.936006
0.567242
0.362505
0.644307
0.941971
0.550688
0.609951
0.823438
0.779853
0.84086
0.652144
0.374815
0.730308
0.430705
0.559221
0.849713
0.649095
0.433119
0.487863
0.547038
0.741976
0.547703
0.514463
0.868765
0.515182
0.97003
0.838624
0.415693
0.316632
0.623332
0.780638
0.868476
0.655459
0.631537
0.487662
0.603925
0.600421
0.979295
0.88377
0.789518
0.546598
0.385918
0.890514
0.958392
0.901035
0.83058
0.877123
0.642782
0.433562
0.343529
0.365135
0.918337
0.668038
0.487869
0.565287
0.955548
0.579435
0.505815
0.399535
0.656338
0.483701
0.95073
0.735727
0.779507
0.887783
0.846066
0.616909
0.758349
0.646463
0.754433
0.560137
0.726865
0.524707
0.920502
0.435415
0.558037
0.48757
0.585303
0.896362
0.58577
0.849155
0.85832
0.884556
0.456026
0.642864
0.628584
0.48996
0.908698
0.666336
0.659456
0.730024
0.317538
0.571526
0.903378
0.760832
0.908401
0.353656
0.451
0.590471
0.928654
0.516234
0.604326
0.476186
0.450345
0.55187
0.912683
0.580259
0.637655
0.406652
0.942667
0.947982
0.325175
0.901869
0.56855
0.459153
0.456915
0.660778
0.394434
0.714466
0.548486
0.558769
0.591862
0.876849
0.65412
0.843346
0.582662
0.443704
0.58371
0.353138
0.385405
0.640015
0.55166
0.673021
0.465836
0.616609
0.856719
0.709179
0.560266
0.419985
0.876042
0.664958
0.610162
0.968416
0.67587
0.55328
0.544513
0.469987
0.938308
0.527147
0.626823
0.742173
0.412332
0.883016
0.447426
0.864881
0.634956
0.808374
0.480021
0.812296
0.625498
0.418998
0.494004
0.632932
0.886082
0.314984
0.49199
0.588529
0.918957
0.95094
0.480969
0.53764
0.708117
0.927868
0.596487
0.897732
0.870673
0.835274
0.799885
0.712051
0.744064
0.735965
0.912378
0.60493
0.657587
0.479395
0.504805
0.59972
0.461944
0.940025
0.439021
0.89037
0.593368
0.9288
0.539235
0.950034
0.808007
0.857392
0.929045
0.898997
0.964381
0.60775
0.881377
0.628005
0.586759
0.490146
0.468724
0.907546
0.440933
0.740535
0.744942
0.619103
0.715094
0.524445
0.893541
0.687418
0.806435
0.33832
0.488893
0.59212
0.948859
0.490446
0.76631
0.510896
0.591524
0.428754
0.599939
0.577256
0.84025
0.917616
0.396565
0.73325
0.589503
0.545881
0.853751
0.486318
0.501138
0.925479
0.365605
0.663868
0.788456
0.896565
0.958962
0.516588
0.506295
0.409247
0.558203
0.492183
0.5862
0.798038
0.563774
0.425652
0.632493
0.642249
0.542264
0.495725
0.585976
0.653646
0.423757
0.827081
0.810532
0.529729
0.810745
0.420365
0.406251
0.491965
0.358904
0.940578
0.573285
0.575179
0.525878
0.849628
0.912423
0.701141
0.791509
0.506751
0.508972
0.641292
0.575818
0.49048
0.909364
0.6856
0.741085
0.938267
0.825917
0.615704
0.932308
0.391882
0.706648
0.701035
0.747761
0.572199
0.906528
0.566265
0.740106
0.637681
0.538968
0.460825
0.51432
0.809682
0.856793
0.884625
0.649016
0.676614
0.910677
0.817506
0.641025
0.666987
0.446809
0.610656
0.845518
0.391385
0.86621
0.580308
0.87892
0.95207
0.915996
0.572092
0.859325
0.868039
0.383468
0.906274
0.523945
0.923225
0.836783
0.593684
0.466921
0.683233
0.613489
0.569299
0.505041
0.823265
0.533286
0.927786
0.452777
0.521807
0.489071
0.449482
0.57679
0.849899
0.944595
0.447652
0.800255
0.667911
0.742505
0.603274
0.702015
0.904139
0.843698
0.585205
0.894858
0.856715
0.948168
0.445877
0.567512
0.497766
0.799084
0.93261
0.861643
0.626523
0.950911
0.631219
0.401292
0.465184
0.312362
0.607315
0.432132
0.941056
0.972
0.68
0.95689
0.848781
0.70081
0.943925
0.447292
0.904874
0.609067
0.910377
0.566898
0.456317
0.796511
0.692383
0.924246
0.897991
0.906014
0.473242
0.475056
0.38064
0.859756
0.841192
0.472922
0.636341
0.842375
0.349922
0.538969
0.472479
0.602016
0.728122
0.595335
0.700823
0.782287
0.672196
0.683916
0.817638
0.568487
0.576088
0.735834
0.678045
0.576117
0.881219
0.912244
0.475482
0.837316
0.33775
0.526194
0.882762
0.822123
0.580414
0.914959
0.439047
0.808948
0.582143
0.576659
0.891728
0.571594
0.814469
0.794854
0.763362
0.974037
0.774969
0.413218
0.753516
0.601633
0.823227
0.975767
0.757616
0.627562
0.489304
0.578661
0.894018
0.439555
0.845808
0.480661
0.690115
0.823085
0.809953
0.674689
0.878466
0.949681
0.56854
0.568103
0.683578
0.46674
0.433595
0.705678
0.798409
0.498401
0.413569
0.49608
0.409866
0.807463
0.624371
0.828349
0.513292
0.905276
0.666683
0.855172
0.937269
0.51344
0.900726
0.555758
0.693298
0.640347
0.865645
0.502833
0.596851
0.649658
0.463121
0.576324
0.449724
0.42952
0.339258
0.937812
0.94797
0.496994
0.515253
0.821121
0.390811
0.490048
0.58138
0.79031
0.79857
0.371889
0.338963
0.897049
0.509619
0.722406
0.50233
0.402946
0.467838
0.679086
0.863308
0.718637
0.399808
0.908323
0.862819
0.488776
0.725405
0.570764
0.935877
0.590094
0.599821
0.41859
0.774615
0.906095
0.744194
0.685205
0.502787
0.616191
0.714287
0.944816
0.962464
0.49821
0.953675
0.511771
0.713277
0.709931
0.638351
0.550919
0.867643
0.578151
0.685539
0.485991
0.543635
0.579512
0.45672
0.760416
0.909773
0.49042
0.530323
0.699197
0.559432
0.50062
0.350124
0.546157
0.863403
0.370206
0.573023
0.779843
0.705417
0.622943
0.766791
0.842102
0.484349
0.486727
0.857489
0.616673
0.468584
0.631757
0.863199
0.763882
0.720587
0.504701
0.52042
0.49372
0.945896
0.862596
0.953073
0.616658
0.786028
0.436887
0.657321
0.867277
0.398085
0.411277
0.812747
0.867893
0.386545
0.528169
0.498505
0.468985
0.494411
0.959328
0.591743
0.522998
0.684348
0.488903
0.792841
0.694059
0.428405
0.528778
0.813326
0.614484
0.947581
0.42967
0.539889
0.734858
0.726236
0.647033
0.729224
0.461494
0.955863
0.89986
0.739135
0.870234
0.502642
0.863836
0.76955
0.728208
0.932697
0.391455
0.544313
0.969085
0.772973
0.383374
0.577525
0.838429
0.963224
0.660177
0.820145
0.501615
0.416963
0.477003
0.377876
0.865924
0.515407
0.686262
0.921317
0.508047
0.484176
0.505727
0.66961
0.516291
0.575203
0.494244
0.452749
0.614686
0.843347
0.92694
0.773003
0.54852
0.544865
0.366327
0.547045
0.752742
0.737089
0.751083
0.787118
0.546873
0.659874
0.835267
0.872574
0.961641
0.886925
0.937824
0.624253
0.439168
0.480431
0.443041
0.946778
0.679864
0.516629
0.929654
0.445093
0.840483
0.790924
0.533391
0.50236
0.542853
0.529503
0.869449
0.616692
0.792406
0.646628
0.92099
0.718606
0.979485
0.480577
0.653092
0.56316
0.329951
0.559019
0.805849
0.460453
0.302091
0.720965
0.909852
0.826563
0.527006
0.426934
0.48053
0.451146
0.504221
0.451122
0.637715
0.457497
0.813448
0.491387
0.513331
0.895718
0.623982
0.752776
0.860114
0.636377
0.686965
0.473765
0.811112
0.619639
0.532057
0.60386
0.469081
0.423812
0.511398
0.518323
0.818594
0.954868
0.87833
0.716576
0.7929
0.394456
0.954141
0.695454
0.790746
0.51177
0.79487
0.579019
0.569757
0.847579
0.909224
0.810906
0.725837
0.591822
0.966798
0.559059
0.831431
0.941359
0.779635
0.595183
0.387686
0.83119
0.680156
0.458785
0.76988
0.674206
0.913195
0.509056
0.921502
0.962323
0.626082
0.480834
0.936995
0.42642
0.466283
0.567118
0.461084
0.544983
0.466511
0.431331
0.645494
0.514216
0.476558
0.557818
0.733527
0.550373
0.506773
0.762098
0.684487
0.40233
0.91369
0.945099
0.932077
0.502723
0.39886
0.988854
0.416677
0.623826
0.493585
0.588002
0.512115
0.810058
0.562981
0.578013
0.412669
0.393921
0.462053
0.568741
0.38151
0.670103
0.708925
0.660607
0.925743
0.679443
0.75088
0.582051
0.856138
0.597023
0.580604
0.965373
0.561082
0.66929
0.43145
0.779631
0.949407
0.627588
0.721651
0.67497
0.578886
0.498996
0.505952
0.453659
0.816436
0.472902
0.606309
0.57601
0.628412
0.481352
0.507171
0.625539
0.61213
0.548593
0.945815
0.636314
0.586225
0.724386
0.910637
0.577345
0.397405
0.818707
0.428387
0.594976
0.498952
0.6173
0.573908
0.580273
0.619167
0.950323
0.877392
0.406987
0.545457
0.393576
0.489579
0.382153
0.457902
0.548486
0.474716
0.55856
0.749832
0.958394
0.565243
0.797098
0.654677
0.944406
0.567316
0.948979
0.750225
0.439413
0.733636
0.802469
0.587755
0.855536
0.498037
0.885261
0.530824
0.333456
0.650121
0.960508
0.934414
0.820863
0.744267
0.773462
0.408826
0.561316
0.768425
0.980567
0.346725
0.627703
0.501817
0.59325
0.622674
0.48451
0.440078
0.522143
0.458433
0.523131
0.605616
0.61465
0.972821
0.854135
0.379236
0.83264
0.471655
0.497463
0.837889
0.5321
0.594734
0.761515
0.386428
0.49895
0.655894
0.871566
0.447541
0.51179
0.592239
0.750674
0.443599
0.915039
0.394735
0.577824
0.599224
0.523512
0.741016
0.753141
0.913288
0.49769
0.802698
0.715959
0.740236
0.494251
0.736747
0.481634
0.434418
0.360062
0.688506
0.653429
0.600122
0.881505
0.638485
0.684789
0.732963
0.486756
0.467477
0.569956
0.706655
0.50133
0.955973
0.431496
0.396811
0.561391
0.58033
0.508385
0.499232
0.786715
0.569932
0.662807
0.443738
0.49903
0.663023
0.451088
0.958261
0.935906
0.449055
0.481576
0.85654
0.646358
0.487017
0.424574
0.489381
0.455533
0.709989
0.908359
0.485281
0.403426
0.749838
0.631273
0.395393
0.44833
0.626438
0.79278
0.957549
0.436946
0.397706
0.729999
0.86431
0.618999
0.695588
0.594314
0.498468
0.581014
0.751352
0.651049
0.50088
0.842918
0.594001
0.362252
0.700484
0.513747
0.846008
0.974999
0.506238
0.570982
0.576257
0.566004
0.433065
0.586101
0.452979
0.930514
0.843577
0.792621
0.552615
0.413534
0.827422
0.951768
0.507699
0.694945
0.575257
0.33652
0.680867
0.585129
0.34669
0.529855
0.734479
0.443081
0.399333
0.456416
0.845454
0.427747
0.831927
0.605508
0.506313
0.608625
0.474939
0.847584
0.367095
0.580409
0.617066
0.431453
0.694621
0.770314
0.722889
0.655815
0.82629
0.450754
0.44828
0.893362
0.497256
0.887571
0.73129
0.622627
0.679301
0.879712
0.631436
0.389741
0.91382
0.493946
0.628618
0.868798
0.48583
0.922195
0.494701
0.595874
0.383998
0.58907
0.452738
0.649906
0.473393
0.362002
0.46049
0.44602
0.341649
0.906075
0.445239
0.585742
0.704077
0.641067
0.955398
0.955571
0.568492
0.627657
0.849324
0.558681
0.909537
0.35255
0.604094
0.684507
0.514432
0.859171
0.574506
0.58037
0.530298
0.512977
0.494654
0.368049
0.883374
0.254479
0.914782
0.791437
0.473206
0.399613
0.469569
0.963256
0.777208
0.758764
0.628201
0.695239
0.623978
0.876965
0.821362
0.476896
0.726205
0.92524
0.636432
0.690597
0.724732
0.37895
0.442915
0.829683
0.589468
0.609254
0.924178
0.442155
0.358293
0.526969
0.604973
0.642488
0.9419
0.497933
0.421982
0.503743
0.604339
0.503443
0.896815
0.617442
0.471464
0.579139
0.508922
0.483459
0.542965
0.737342
0.650904
0.469561
0.880251
0.593608
0.853196
0.470736
0.438327
0.567618
0.871955
0.939703
0.847101
0.675902
0.650642
0.837935
0.930869
0.432113
0.910289
0.462791
0.755692
0.752818
0.893688
0.67079
0.878383
0.905753
0.505583
0.498669
0.586526
0.632439
0.462238
0.492798
0.433998
0.813943
0.858148
0.424943
0.91736
0.664318
0.830354
0.628608
0.468383
0.849264
0.827768
0.574245
0.53174
0.453638
0.963591
0.785228
0.985065
0.426178
0.461551
0.614851
0.865415
0.746254
0.881186
0.663274
0.936301
0.525435
0.592012
0.691102
0.542153
0.737755
0.410076
0.843689
0.635426
0.685456
0.911125
0.41668
0.428352
0.368137
0.699225
0.884167
0.529795
0.746669
0.418637
0.417035
0.613436
0.516341
0.491081
0.878682
0.640079
0.487479
0.60182
0.698832
0.911518
0.702466
0.608323
0.883733
0.639307
0.939704
0.684686
0.796014
0.613246
0.42925
0.960157
0.467258
0.679709
0.721782
0.906021
0.781218
0.64837
0.508273
0.968963
0.601105
0.479912
0.819034
0.956422
0.799353
0.763301
0.411838
0.355684
0.7033
0.471318
0.59693
0.67501
0.46861
0.908571
0.964702
0.918787
0.543972
0.588503
0.490233
0.560128
0.759842
0.449299
0.77103
0.92978
0.433698
0.578998
0.522291
0.841313
0.761241
0.589384
0.475864
0.803831
0.493482
0.399301
0.460481
0.969854
0.360773
0.83953
0.717933
0.498304
0.925595
0.709002
0.955864
0.387442
0.579973
0.679517
0.914985
0.561581
0.903965
0.711792
0.361351
0.656991
0.535662
0.575492
0.354478
0.82066
0.581124
0.475902
0.394329
0.65881
0.88611
0.301294
0.551729
0.885659
0.578479
0.867494
0.349501
0.499057
0.496321
0.622899
0.562942
0.410524
0.493752
0.314583
0.603471
0.610543
0.830553
0.667334
0.888868
0.484446
0.585531
0.414177
0.642063
0.310916
0.589367
0.979445
0.601744
0.543336
0.963894
0.487269
0.703716
0.742174
0.405927
0.549871
0.637868
0.685232
0.926761
0.954477
0.95629
0.695143
0.581143
0.626996
0.467571
0.85612
0.748856
0.506323
0.54772
0.536587
0.632547
0.960414
0.60395
0.955344
0.581489
0.725139
0.47224
0.493664
0.414141
0.521762
0.901841
0.535914
0.426113
0.452496
0.96371
0.552744
0.471195
0.464387
0.493715
0.788568
0.660636
0.671119
0.580702
0.7877
0.402373
0.624604
0.663195
0.551388
0.875792
0.88528
0.478877
0.893521
0.921603
0.877059
0.677501
0.601252
0.530221
0.619496
0.92815
0.633468
0.697972
0.890812
0.960815
0.92117
0.883321
0.502164
0.753486
0.638764
0.487516
0.385584
0.595373
0.874551
0.96102
0.932716
0.53116
0.461835
0.441217
0.430349
0.760205
0.955675
0.741252
0.813956
0.828001
0.822262
0.802645
0.491178
0.551349
0.52038
0.450865
0.502415
0.58165
0.42916
0.541857
0.506378
0.900133
0.728104
0.390269
0.950053
0.51843
0.503559
0.61415