/*--------------------------------*- C++ -*----------------------------------*\
  =========                 |
  \\      /  F ield         | OpenFOAM: The Open Source CFD Toolbox
   \\    /   O peration     | Website:  https://openfoam.org
    \\  /    A nd           | Version:  6
     \\/     M anipulation  |
\*---------------------------------------------------------------------------*/
FoamFile
{
    version     2.0;
    format      ascii;
    class       volScalarField;
    location    "0";
    object      P_rec;
}
// * * * * * * * * * * * * * * * * * * * * * * * * * * * * * * * * * * * * * //

dimensions      [0 2 -2 0 0 0 0];

internalField   nonuniform List<scalar> 
13046
(
0.507738
0.50254
0.561657
0.509054
0.550005
0.521273
0.496858
0.522434
0.556954
0.348928
0.40211
0.571003
0.490722
0.497475
0.562425
0.385853
0.576448
0.397003
0.540865
0.539948
0.50788
0.379846
0.575918
0.399787
0.513409
0.519549
0.550756
0.485479
0.491206
0.567689
0.511694
0.49403
0.559137
0.52211
0.548276
0.517918
0.52103
0.54714
0.524143
0.525536
0.56
0.474198
0.524125
0.538931
0.531765
0.519642
0.535357
0.53698
0.499255
0.504754
0.562265
0.553505
0.536345
0.443094
0.556324
0.432174
0.542434
0.415622
0.460644
0.57829
0.44605
0.507997
0.56386
0.571003
0.444286
0.401182
0.471657
0.415216
0.576369
0.479718
0.420395
0.574818
0.40697
0.452881
0.578568
0.539692
0.547644
0.499109
0.580452
0.4334
0.407021
0.507179
0.520083
0.55195
0.571106
0.435211
0.389237
0.385377
0.566792
0.471564
0.559581
0.359764
0.489493
0.45233
0.441362
0.474493
0.471567
0.569045
0.571545
0.566118
0.38602
0.480923
0.516184
0.540254
0.534067
0.550422
0.447879
0.548064
0.533524
0.558823
0.456066
0.297813
0.568993
0.36394
0.496052
0.504536
0.558442
0.444318
0.45267
0.452698
0.572881
0.464022
0.571178
0.338992
0.389871
0.571849
0.473091
0.47672
0.57072
0.51966
0.561336
0.47569
0.55753
0.368967
0.500453
0.421556
0.470419
0.569682
0.506213
0.490417
0.560121
0.470583
0.53085
0.555923
0.535857
0.554971
0.453425
0.549114
0.458688
0.549594
0.44315
0.498721
0.564726
0.554387
0.47844
0.537951
0.542978
0.42551
0.53629
0.421631
0.55078
0.554294
0.467485
0.531235
0.551719
0.344617
0.569318
0.412681
0.315234
0.569891
0.37215
0.417552
0.46032
0.571785
0.516088
0.453307
0.566988
0.47049
0.548566
0.536497
0.569536
0.432271
0.349805
0.519287
0.461091
0.562556
0.552825
0.470309
0.539125
0.478027
0.531438
0.552901
0.496618
0.566551
0.477393
0.486389
0.566649
0.380844
0.568248
0.451354
0.561885
0.383555
0.494903
0.363382
0.478349
0.560701
0.558334
0.423848
0.531
0.483985
0.437537
0.581563
0.402059
0.464368
0.358404
0.564083
0.513978
0.547073
0.5286
0.492731
0.490119
0.567013
0.560692
0.378088
0.50152
0.477949
0.50283
0.566592
0.568535
0.39669
0.317844
0.534949
0.421424
0.554723
0.375276
0.484818
0.562234
0.441574
0.533142
0.555254
0.472503
0.472537
0.572113
0.523926
0.387055
0.552597
0.411317
0.534618
0.552388
0.566594
0.400195
0.306661
0.531073
0.563272
0.451789
0.310806
0.570885
0.33753
0.541837
0.509056
0.536232
0.447246
0.449701
0.526368
0.531722
0.557436
0.555964
0.577806
0.4225
0.402548
0.482455
0.475526
0.568633
0.406624
0.524681
0.556401
0.431339
0.461087
0.571343
0.529115
0.52493
0.540517
0.43107
0.53071
0.555746
0.483339
0.465689
0.570461
0.479307
0.473619
0.53151
0.562248
0.443774
0.427598
0.522788
0.557732
0.419426
0.571507
0.459299
0.538909
0.554098
0.462058
0.549174
0.418057
0.542979
0.459489
0.448027
0.572089
0.533646
0.556781
0.441305
0.450427
0.443831
0.44245
0.573315
0.442614
0.575222
0.569637
0.435132
0.359481
0.460894
0.465574
0.572166
0.327988
0.568003
0.26908
0.494596
0.543426
0.536683
0.45569
0.510052
0.562891
0.569556
0.393325
0.457761
0.556491
0.422841
0.541784
0.514245
0.384388
0.555735
0.513258
0.561593
0.453231
0.496828
0.56675
0.513788
0.560201
0.398527
0.575547
0.405838
0.563531
0.416265
0.529332
0.444989
0.494124
0.56677
0.464801
0.528905
0.557763
0.449861
0.54789
0.544858
0.50584
0.510736
0.557212
0.542791
0.421738
0.548167
0.372683
0.461547
0.565486
0.513207
0.385702
0.558334
0.491192
0.57224
0.426348
0.439807
0.44828
0.429821
0.422842
0.574755
0.574663
0.568517
0.333717
0.282135
0.321265
0.572299
0.343404
0.441119
0.524276
0.556083
0.568574
0.375675
0.440368
0.474363
0.467323
0.435938
0.435294
0.575343
0.574947
0.559721
0.457047
0.332504
0.303197
0.572091
0.321235
0.512114
0.535057
0.542761
0.297202
0.346002
0.569702
0.507136
0.458134
0.566612
0.35285
0.440433
0.568442
0.343669
0.564971
0.23664
0.529462
0.556532
0.480191
0.49967
0.539302
0.545891
0.343839
0.573489
0.381951
0.492774
0.538531
0.546892
0.517142
0.535138
0.54073
0.540519
0.410622
0.556383
0.491967
0.549837
0.539141
0.496898
0.53974
0.539868
0.499319
0.427287
0.570967
0.575172
0.574372
0.406897
0.410143
0.368398
0.36395
0.359826
0.459018
0.565053
0.576707
0.487535
0.416318
0.523767
0.560782
0.461393
0.406382
0.536998
0.547444
0.386732
0.562168
0.259797
0.56119
0.356365
0.479992
0.322491
0.570162
0.384967
0.564494
0.329903
0.231983
0.306859
0.56592
0.250521
0.511072
0.422879
0.560534
0.433575
0.559559
0.301634
0.412022
0.473667
0.569054
0.372698
0.576834
0.369136
0.4917
0.558935
0.5155
0.465299
0.560572
0.341939
0.409994
0.545215
0.540799
0.518489
0.407078
0.559262
0.563804
0.270072
0.194712
0.345286
0.567267
0.25812
0.499545
0.557416
0.516058
0.448221
0.331647
0.562211
0.560456
0.319511
0.453162
0.377941
0.570219
0.434958
0.576941
0.413617
0.414468
0.506866
0.419284
0.573338
0.425427
0.458918
0.577968
0.578935
0.40526
0.389411
0.497464
0.491595
0.469516
0.464163
0.567623
0.569488
0.504509
0.467218
0.566669
0.481205
0.427477
0.57741
0.515403
0.39569
0.557909
0.456687
0.357999
0.567039
0.560373
0.395059
0.501785
0.308262
0.566688
0.264238
0.523463
0.518793
0.559741
0.485278
0.56026
0.492185
0.49474
0.49777
0.571227
0.438158
0.572813
0.445579
0.356615
0.56219
0.239074
0.450228
0.340712
0.563456
0.522112
0.561231
0.444148
0.528938
0.394772
0.55214
0.577146
0.414975
0.422448
0.373583
0.286415
0.566707
0.388317
0.292756
0.565983
0.46757
0.443812
0.575556
0.541891
0.549229
0.468359
0.369701
0.570705
0.423522
0.509583
0.412467
0.5634
0.573641
0.445237
0.412937
0.504296
0.57183
0.442895
0.445684
0.538979
0.550377
0.528779
0.559629
0.466333
0.570021
0.424771
0.358225
0.432985
0.451306
0.573223
0.529072
0.556016
0.485683
0.393433
0.578998
0.379573
0.503537
0.48369
0.565274
0.483581
0.531009
0.553803
0.520673
0.415621
0.557975
0.341375
0.575259
0.35199
0.351418
0.576462
0.352714
0.574761
0.436786
0.41397
0.436645
0.546025
0.547526
0.574944
0.337872
0.326908
0.568409
0.467203
0.401613
0.562835
0.321813
0.217755
0.24003
0.288469
0.5674
0.578302
0.399752
0.40664
0.568615
0.411517
0.332887
0.383128
0.391765
0.57252
0.412391
0.572798
0.423775
0.396707
0.475695
0.56721
0.552974
0.535794
0.393579
0.520579
0.553865
0.503196
0.401544
0.490503
0.565052
0.56378
0.404821
0.498114
0.415175
0.579227
0.389732
0.491539
0.429843
0.574618
0.500606
0.453702
0.566857
0.426898
0.499147
0.567187
0.421052
0.499917
0.56578
0.531566
0.549857
0.494479
0.490845
0.455187
0.572805
0.55937
0.473332
0.340108
0.284893
0.563814
0.398325
0.272645
0.562141
0.400763
0.516381
0.564462
0.468676
0.366675
0.564978
0.268835
0.424767
0.574352
0.439509
0.564054
0.372963
0.255675
0.510607
0.547343
0.527222
0.471344
0.495156
0.566081
0.548084
0.440222
0.54475
0.559976
0.439615
0.313866
0.511433
0.413133
0.561244
0.577076
0.383828
0.381
0.459417
0.490886
0.570173
0.522761
0.552863
0.506979
0.433148
0.323055
0.564053
0.571896
0.453421
0.402152
0.335419
0.324685
0.571727
0.571312
0.369636
0.361701
0.456784
0.522911
0.560196
0.515489
0.430186
0.558141
0.489796
0.524716
0.557464
0.413192
0.297803
0.41926
0.56398
0.295977
0.561893
0.440882
0.47926
0.571341
0.322127
0.309634
0.423259
0.414822
0.565426
0.564213
0.431541
0.520564
0.562628
0.470477
0.510086
0.562941
0.362911
0.577144
0.367765
0.462238
0.514204
0.561231
0.485338
0.521071
0.556229
0.341386
0.574258
0.364257
0.46123
0.480638
0.567316
0.548415
0.403317
0.544223
0.5068
0.434028
0.570928
0.509519
0.555039
0.370812
0.56467
0.285662
0.209693
0.458489
0.505787
0.564227
0.36991
0.573855
0.389887
0.568764
0.417055
0.518441
0.270229
0.570565
0.307093
0.545494
0.542387
0.544535
0.473656
0.548884
0.468233
0.491453
0.529758
0.552373
0.534625
0.541043
0.552092
0.479023
0.55203
0.476302
0.465307
0.513339
0.563819
0.47
0.517885
0.5626
0.560921
0.411775
0.278768
0.510246
0.473213
0.562934
0.33416
0.422648
0.567846
0.424361
0.415869
0.490111
0.483452
0.566392
0.566128
0.50863
0.4832
0.563405
0.480333
0.445134
0.57251
0.441439
0.49318
0.569017
0.527498
0.514388
0.545302
0.411124
0.491186
0.565781
0.521922
0.552765
0.500927
0.439027
0.513571
0.563874
0.47868
0.454903
0.571798
0.52613
0.529539
0.507402
0.551453
0.50396
0.550591
0.534773
0.546063
0.541659
0.494537
0.552608
0.482248
0.497846
0.491279
0.477056
0.481124
0.567077
0.56591
0.57534
0.421946
0.416299
0.541298
0.413288
0.550905
0.576685
0.575386
0.416924
0.425709
0.405583
0.402653
0.531077
0.562127
0.431472
0.528064
0.540972
0.524312
0.409168
0.482449
0.566983
0.519879
0.559955
0.480357
0.473171
0.454694
0.572408
0.434652
0.43526
0.423866
0.577291
0.432924
0.575417
0.430293
0.479432
0.568557
0.282616
0.321696
0.570786
0.565147
0.422162
0.522458
0.512414
0.515306
0.569577
0.423618
0.571053
0.428376
0.401128
0.508085
0.560335
0.486472
0.446646
0.572873
0.52635
0.562268
0.433482
0.514487
0.5142
0.565409
0.570048
0.444954
0.445148
0.511752
0.570717
0.434543
0.431841
0.486558
0.568679
0.527615
0.550987
0.500587
0.353462
0.572561
0.386412
0.52348
0.565298
0.427716
0.474213
0.464971
0.460921
0.456968
0.569871
0.573973
0.573317
0.394303
0.36357
0.3631
0.575965
0.376789
0.352547
0.573846
0.37543
0.425589
0.575553
0.431424
0.491513
0.454211
0.571424
0.50444
0.573635
0.592788
0.507358
0.596591
0.403719
0.589689
0.511247
0.538096
0.593257
0.59211
0.536414
0.515029
0.595363
0.582763
0.529719
0.506178
0.579722
0.576473
0.589257
0.585034
0.574046
0.591513
0.578502
0.595877
0.574487
0.599488
0.541859
0.588055
0.506986
0.546752
0.587837
0.58629
0.583188
0.556149
0.591558
0.594305
0.592631
0.517588
0.542233
0.573149
0.567415
0.560041
0.593647
0.570538
0.581375
0.583731
0.574248
0.536821
0.563786
0.59213
0.583412
0.531598
0.587549
0.544599
0.59091
0.591347
0.586897
0.5773
0.593303
0.563754
0.561472
0.595314
0.516734
0.589875
0.59125
0.587258
0.582768
0.592444
0.568962
0.549255
0.555729
0.55474
0.590589
0.551936
0.58163
0.561749
0.554903
0.588673
0.591748
0.576417
0.588042
0.534785
0.536127
0.583882
0.591227
0.583277
0.506966
0.584622
0.591094
0.536313
0.594379
0.596372
0.582635
0.520615
0.369235
0.554561
0.576269
0.520328
0.547431
0.590977
0.592134
0.572125
0.579322
0.531741
0.497361
0.536908
0.540387
0.556095
0.594099
0.592092
0.587355
0.542238
0.559142
0.544271
0.572135
0.585616
0.508737
0.543381
0.577139
0.584536
0.583714
0.575027
0.590724
0.580429
0.553632
0.540818
0.590593
0.478978
0.590111
0.548797
0.588545
0.535776
0.439811
0.49723
0.591396
0.58028
0.534183
0.552197
0.587923
0.524843
0.591126
0.556681
0.547255
0.578377
0.587042
0.532815
0.592512
0.552923
0.585426
0.536059
0.575137
0.518737
0.596359
0.593241
0.582638
0.591727
0.590833
0.592393
0.563004
0.551866
0.545611
0.578798
0.478442
0.532451
0.538231
0.576842
0.579501
0.58643
0.59013
0.586007
0.59055
0.596935
0.592629
0.532096
0.545719
0.539312
0.591808
0.538726
0.532381
0.468711
0.532898
0.580488
0.582395
0.587318
0.591247
0.592507
0.572573
0.595264
0.580328
0.570136
0.433205
0.574698
0.556297
0.548104
0.586744
0.585281
0.553955
0.574673
0.57785
0.588033
0.498962
0.554112
0.590227
0.594629
0.561652
0.536171
0.57817
0.580839
0.573264
0.569603
0.507479
0.46445
0.549649
0.555684
0.541603
0.544296
0.506031
0.591781
0.583897
0.545891
0.58605
0.534746
0.53275
0.590663
0.590411
0.529542
0.53421
0.493228
0.589474
0.547696
0.577638
0.587549
0.588436
0.539895
0.587832
0.570934
0.538839
0.539418
0.591897
0.586333
0.579085
0.595137
0.5681
0.525169
0.536959
0.583445
0.585562
0.530599
0.547104
0.587275
0.58807
0.593982
0.586951
0.532986
0.581258
0.554144
0.587045
0.572959
0.552486
0.582974
0.573957
0.458592
0.536508
0.55205
0.532896
0.560977
0.589583
0.579553
0.586484
0.59124
0.52063
0.581056
0.568261
0.585091
0.578149
0.579993
0.588019
0.539434
0.529074
0.576942
0.53627
0.534277
0.585815
0.446576
0.535336
0.593588
0.587944
0.546894
0.539702
0.54718
0.586262
0.504641
0.456498
0.525497
0.578295
0.585534
0.583211
0.40269
0.52695
0.594428
0.572667
0.500402
0.528203
0.538615
0.545169
0.534248
0.58601
0.59146
0.546185
0.539924
0.561771
0.562818
0.570572
0.4893
0.59113
0.581201
0.445386
0.543991
0.535531
0.54576
0.590038
0.583679
0.58757
0.560328
0.526144
0.575212
0.584211
0.58069
0.563762
0.593604
0.591019
0.567681
0.589447
0.583445
0.559514
0.540114
0.574548
0.512255
0.573684
0.575269
0.547151
0.527717
0.523484
0.525512
0.508112
0.594161
0.532665
0.552427
0.582851
0.58245
0.538534
0.526563
0.595527
0.571991
0.441244
0.571962
0.546342
0.538711
0.594389
0.569807
0.558542
0.579537
0.548638
0.581161
0.545914
0.588542
0.57559
0.564528
0.376468
0.530119
0.547803
0.573686
0.581378
0.582266
0.581641
0.5928
0.521816
0.547343
0.518439
0.480573
0.539843
0.593512
0.560452
0.574383
0.554076
0.57841
0.535713
0.506438
0.524841
0.543655
0.538723
0.596682
0.565415
0.56795
0.584869
0.591579
0.577942
0.595452
0.506124
0.557109
0.538619
0.578006
0.581017
0.587745
0.572852
0.579146
0.548075
0.570821
0.53618
0.485761
0.585444
0.564067
0.482834
0.528092
0.54462
0.528128
0.54804
0.576442
0.584889
0.529985
0.553052
0.540008
0.545029
0.540762
0.557789
0.502305
0.5458
0.592543
0.591096
0.591583
0.583787
0.583404
0.436994
0.590436
0.585781
0.52903
0.594141
0.42346
0.587605
0.555421
0.583475
0.564832
0.589724
0.570406
0.52171
0.584194
0.519382
0.595792
0.585487
0.541712
0.556883
0.506809
0.564659
0.596544
0.554793
0.581034
0.589317
0.538482
0.495161
0.591546
0.432622
0.584228
0.583782
0.536596
0.593333
0.474484
0.470095
0.590634
0.576381
0.587952
0.583272
0.579817
0.581517
0.59175
0.59144
0.588913
0.591001
0.53623
0.561858
0.578081
0.593956
0.561093
0.418467
0.584776
0.550785
0.580769
0.559979
0.593368
0.5735
0.562613
0.592395
0.5727
0.593833
0.526901
0.592849
0.577408
0.588484
0.580851
0.592761
0.558622
0.578245
0.530136
0.513916
0.578676
0.55921
0.576921
0.503204
0.430259
0.537852
0.563152
0.581125
0.566857
0.597162
0.56215
0.532618
0.571682
0.537346
0.591672
0.51108
0.577072
0.578454
0.594708
0.568928
0.584209
0.522561
0.583622
0.593848
0.542248
0.505104
0.582318
0.562872
0.590312
0.593902
0.561891
0.537062
0.575465
0.5442
0.531174
0.590801
0.585037
0.581118
0.50645
0.583304
0.575001
0.592117
0.544279
0.589932
0.582547
0.580891
0.584587
0.514789
0.540958
0.557478
0.412193
0.587652
0.583832
0.581763
0.592849
0.5918
0.572787
0.578288
0.573927
0.59075
0.590609
0.580502
0.57914
0.56488
0.590262
0.583707
0.554925
0.559323
0.564409
0.562625
0.586102
0.549498
0.585738
0.590946
0.540155
0.592233
0.542889
0.531184
0.546663
0.587774
0.57403
0.580389
0.585828
0.589998
0.582453
0.587266
0.584721
0.551363
0.542604
0.527076
0.532702
0.532922
0.358112
0.538266
0.541135
0.586463
0.53883
0.56025
0.584616
0.575369
0.535415
0.550019
0.560607
0.371195
0.590782
0.557263
0.586596
0.538631
0.553453
0.579894
0.513868
0.581982
0.539687
0.585934
0.56273
0.592171
0.50249
0.462136
0.55776
0.562729
0.567728
0.587254
0.464541
0.585392
0.566757
0.534709
0.515857
0.552566
0.559409
0.588669
0.507596
0.589782
0.592232
0.586812
0.532964
0.592561
0.538382
0.359539
0.582685
0.542295
0.533933
0.593591
0.591664
0.584721
0.587083
0.566599
0.586374
0.592419
0.58234
0.564946
0.58533
0.595087
0.591438
0.584429
0.582417
0.583612
0.542315
0.539631
0.591596
0.594028
0.592557
0.576897
0.566965
0.546642
0.591562
0.589741
0.331605
0.565812
0.581398
0.530939
0.583542
0.560991
0.582337
0.577378
0.58262
0.548049
0.588664
0.593819
0.572438
0.593824
0.59535
0.464497
0.531317
0.568912
0.537098
0.464602
0.543205
0.581591
0.59234
0.547075
0.572313
0.513021
0.541089
0.577041
0.582809
0.5448
0.540007
0.525623
0.57657
0.551144
0.548406
0.570822
0.586508
0.589486
0.531828
0.589985
0.55446
0.542079
0.580656
0.591521
0.574788
0.570602
0.535054
0.589976
0.541946
0.594995
0.588123
0.591035
0.593134
0.535359
0.534448
0.584159
0.535115
0.539594
0.55114
0.545041
0.532715
0.573097
0.585526
0.537845
0.593541
0.554093
0.574622
0.581794
0.590349
0.58252
0.59124
0.576972
0.54059
0.593661
0.507295
0.583768
0.535681
0.587728
0.591015
0.593312
0.584972
0.595831
0.584568
0.52783
0.54369
0.581089
0.553648
0.591995
0.528036
0.508975
0.57229
0.571404
0.550456
0.540105
0.566975
0.590181
0.588037
0.432684
0.553094
0.49593
0.515749
0.579796
0.571604
0.582216
0.5752
0.593812
0.533243
0.584577
0.584986
0.500656
0.590215
0.557883
0.582505
0.581474
0.576368
0.530951
0.548282
0.583288
0.586785
0.554923
0.576746
0.584077
0.590335
0.575707
0.575105
0.556373
0.577764
0.536028
0.531827
0.483131
0.583276
0.53809
0.549983
0.536781
0.549625
0.592873
0.571254
0.584222
0.592015
0.583915
0.493579
0.575214
0.517839
0.563844
0.588538
0.553476
0.54062
0.564266
0.581782
0.522305
0.553172
0.48656
0.54007
0.585631
0.490748
0.547949
0.593544
0.535936
0.530417
0.580668
0.586389
0.567962
0.52388
0.584749
0.547375
0.551415
0.584095
0.5636
0.584338
0.586878
0.596367
0.555398
0.591401
0.588462
0.588883
0.587033
0.585258
0.497238
0.549041
0.57375
0.531736
0.585166
0.593956
0.591359
0.585515
0.533074
0.537234
0.575602
0.595558
0.52113
0.591183
0.585784
0.592306
0.530317
0.52347
0.534437
0.50171
0.584452
0.52032
0.588978
0.550363
0.590567
0.532706
0.583249
0.538146
0.581102
0.58969
0.585257
0.571365
0.589396
0.591555
0.593522
0.585867
0.565251
0.591186
0.588577
0.551553
0.560726
0.583487
0.548037
0.595352
0.570286
0.587968
0.590691
0.593673
0.5501
0.48365
0.586898
0.562471
0.568401
0.578326
0.587116
0.5911
0.589474
0.56144
0.585668
0.534301
0.555414
0.581941
0.592146
0.58114
0.584292
0.575261
0.594659
0.57745
0.542911
0.592631
0.585047
0.530948
0.554689
0.590102
0.572147
0.536804
0.553208
0.59029
0.568776
0.583093
0.591872
0.596691
0.591751
0.587142
0.538557
0.590371
0.557515
0.570436
0.593679
0.58395
0.53292
0.522277
0.570328
0.588997
0.546417
0.529545
0.587644
0.572919
0.573975
0.589875
0.534643
0.534772
0.564185
0.591082
0.594622
0.583811
0.581998
0.494773
0.58507
0.55834
0.572435
0.591791
0.597672
0.529263
0.533604
0.566804
0.58325
0.592162
0.592747
0.586054
0.557717
0.561042
0.533475
0.537055
0.58166
0.587384
0.461027
0.540124
0.582236
0.580786
0.529741
0.538041
0.585838
0.559391
0.570579
0.588752
0.577987
0.590452
0.592738
0.580118
0.588735
0.566547
0.558441
0.569928
0.58827
0.562118
0.586238
0.46471
0.582255
0.449059
0.571869
0.59154
0.588862
0.592274
0.594009
0.591497
0.554094
0.56965
0.582319
0.505918
0.590255
0.579976
0.549379
0.588775
0.408842
0.540339
0.56756
0.590263
0.593476
0.536067
0.536621
0.583035
0.584755
0.470561
0.55186
0.5661
0.477398
0.522584
0.566897
0.523931
0.582297
0.537581
0.569933
0.584449
0.410683
0.562134
0.581575
0.554186
0.533781
0.579852
0.556115
0.565899
0.540774
0.578485
0.56942
0.547264
0.580587
0.594367
0.553846
0.531615
0.562599
0.535448
0.543305
0.579819
0.495658
0.555452
0.554441
0.579304
0.584274
0.575087
0.578937
0.45836
0.574679
0.581173
0.560176
0.580761
0.571177
0.578338
0.475687
0.462741
0.582988
0.535942
0.579092
0.591584
0.556293
0.577481
0.458407
0.585647
0.565379
0.593945
0.56665
0.560278
0.579982
0.540466
0.558097
0.563302
0.596614
0.535833
0.530974
0.575876
0.592333
0.579646
0.491296
0.566178
0.5637
0.563999
0.560866
0.593255
0.591326
0.592161
0.592919
0.587912
0.543164
0.524876
0.589983
0.551008
0.569557
0.493875
0.52732
0.542545
0.531092
0.581409
0.471024
0.585997
0.553062
0.584339
0.578259
0.57991
0.593155
0.554865
0.586128
0.590983
0.581684
0.582473
0.590968
0.553928
0.586032
0.534536
0.553229
0.593663
0.472284
0.584791
0.59021
0.580725
0.574668
0.573474
0.57777
0.583552
0.582047
0.53812
0.538616
0.587652
0.568344
0.4926
0.591239
0.531522
0.585559
0.53451
0.571492
0.587014
0.591574
0.590505
0.538741
0.584297
0.582236
0.57964
0.593415
0.504236
0.524779
0.590317
0.534033
0.55545
0.594998
0.589404
0.580847
0.52835
0.545596
0.547546
0.544027
0.507903
0.581696
0.555497
0.577211
0.547831
0.582283
0.568571
0.551606
0.507779
0.576517
0.574613
0.54477
0.592501
0.59307
0.517882
0.58643
0.46142
0.553372
0.486283
0.549646
0.584757
0.580135
0.583007
0.573695
0.581729
0.588348
0.586916
0.585008
0.510366
0.57216
0.558632
0.582377
0.530946
0.591744
0.567332
0.5402
0.585162
0.591711
0.533453
0.583393
0.535166
0.588062
0.586977
0.588072
0.49643
0.577562
0.577379
0.587227
0.580652
0.545501
0.53505
0.546616
0.592431
0.593444
0.590703
0.566903
0.581184
0.585734
0.565025
0.585097
0.547797
0.552365
0.58341
0.592434
0.54087
0.595092
0.586073
0.596534
0.581858
0.589633
0.583044
0.559518
0.592723
0.444457
0.584178
0.481651
0.588152
0.593902
0.585213
0.567509
0.554529
0.584375
0.481305
0.508496
0.549621
0.518177
0.587405
0.536982
0.537041
0.50414
0.531642
0.583575
0.591069
0.587189
0.536286
0.560426
0.584811
0.586532
0.56329
0.559445
0.589879
0.592801
0.5843
0.5901
0.591418
0.586632
0.535774
0.573846
0.517784
0.588748
0.585366
0.592982
0.577481
0.580074
0.568297
0.53268
0.566233
0.534393
0.544931
0.540441
0.58976
0.573773
0.579185
0.585325
0.59182
0.584342
0.582406
0.550328
0.575117
0.581954
0.590349
0.561896
0.533566
0.584962
0.586672
0.587805
0.593531
0.592155
0.528919
0.5254
0.529954
0.582449
0.593352
0.492198
0.548588
0.594148
0.54178
0.568151
0.535846
0.578382
0.589122
0.579211
0.586244
0.540332
0.58326
0.584922
0.590654
0.56887
0.549856
0.588247
0.586323
0.573551
0.592005
0.596042
0.491748
0.593181
0.541599
0.559449
0.596346
0.595825
0.579071
0.589425
0.541663
0.59231
0.553804
0.535626
0.589787
0.563216
0.591535
0.573117
0.589125
0.577336
0.590153
0.548812
0.59134
0.531393
0.592885
0.572935
0.581574
0.561412
0.529811
0.534977
0.589561
0.550987
0.564695
0.526572
0.559374
0.59318
0.592853
0.585998
0.58647
0.581547
0.548842
0.565849
0.58617
0.532629
0.553069
0.586177
0.574106
0.569341
0.54612
0.489933
0.533847
0.591532
0.562751
0.592806
0.536818
0.591011
0.585516
0.59598
0.584487
0.565673
0.590432
0.537418
0.587842
0.547088
0.58069
0.521996
0.567313
0.549673
0.532336
0.566682
0.539735
0.532657
0.540834
0.589661
0.590082
0.572539
0.527594
0.592234
0.536867
0.496356
0.578454
0.591585
0.585122
0.539866
0.541003
0.594138
0.52362
0.585115
0.526137
0.545074
0.565788
0.519228
0.595242
0.576713
0.551441
0.590168
0.595736
0.547609
0.589219
0.578213
0.58889
0.580734
0.557241
0.538988
0.590337
0.593733
0.590613
0.506755
0.538855
0.555008
0.578015
0.581939
0.579609
0.522909
0.580389
0.541106
0.587703
0.590049
0.584035
0.560239
0.584628
0.491477
0.579582
0.522094
0.572614
0.510768
0.53499
0.584145
0.591291
0.546978
0.552827
0.587537
0.560872
0.48518
0.530481
0.545465
0.567762
0.43803
0.576678
0.571296
0.588529
0.573248
0.587541
0.587657
0.470302
0.467697
0.594803
0.577343
0.487417
0.557585
0.578799
0.594046
0.586416
0.516702
0.577474
0.522388
0.58249
0.592458
0.585946
0.570263
0.592511
0.542184
0.583436
0.595615
0.537539
0.550101
0.592048
0.591664
0.541621
0.538667
0.508935
0.470995
0.511806
0.581325
0.55185
0.535684
0.503543
0.529476
0.589794
0.517732
0.54584
0.529099
0.591812
0.558395
0.582559
0.550412
0.570659
0.569484
0.578753
0.582168
0.591544
0.53015
0.581242
0.559811
0.571144
0.584415
0.556611
0.593536
0.588167
0.55143
0.584046
0.53548
0.555808
0.575657
0.588153
0.540145
0.574207
0.568869
0.576637
0.583387
0.593476
0.514649
0.542159
0.528674
0.529372
0.59552
0.551522
0.586239
0.591423
0.569234
0.473917
0.531351
0.571785
0.525757
0.5816
0.534425
0.551916
0.551904
0.591643
0.587624
0.574911
0.522927
0.560993
0.537076
0.571422
0.592519
0.585109
0.556625
0.577562
0.561987
0.584654
0.59176
0.591082
0.579277
0.593605
0.582595
0.564726
0.547454
0.536017
0.534826
0.581126
0.5808
0.54389
0.584926
0.550425
0.595762
0.592128
0.537243
0.519404
0.555299
0.575776
0.591135
0.580698
0.591495
0.580208
0.589981
0.590182
0.57536
0.54844
0.580299
0.576866
0.5399
0.558346
0.59301
0.482723
0.405413
0.585444
0.569521
0.59319
0.569732
0.538658
0.529046
0.556947
0.521152
0.564696
0.585408
0.542132
0.592382
0.572178
0.530192
0.553125
0.5494
0.516745
0.590884
0.578965
0.584524
0.525671
0.570084
0.576547
0.52888
0.555648
0.55779
0.553038
0.531752
0.473713
0.596193
0.582083
0.592429
0.589713
0.594048
0.545375
0.578754
0.571588
0.565473
0.507622
0.588129
0.576355
0.563918
0.592104
0.588244
0.591804
0.587229
0.58878
0.580329
0.5391
0.580412
0.583638
0.591018
0.568064
0.541887
0.587217
0.549182
0.551343
0.5901
0.559321
0.592461
0.546745
0.590668
0.579911
0.584296
0.547955
0.586693
0.536541
0.549747
0.55886
0.541716
0.550115
0.549846
0.549208
0.581534
0.525286
0.529094
0.575368
0.586185
0.576594
0.556512
0.588077
0.587146
0.555589
0.587179
0.581157
0.584658
0.528349
0.554951
0.571222
0.535705
0.57606
0.499446
0.583792
0.501869
0.593121
0.576537
0.583651
0.544445
0.535457
0.555019
0.583931
0.553486
0.585391
0.588205
0.582902
0.586221
0.585977
0.576034
0.545509
0.594803
0.575814
0.581519
0.577765
0.542573
0.543587
0.541727
0.593228
0.582601
0.575204
0.572815
0.550039
0.570243
0.520326
0.570052
0.531077
0.591795
0.550083
0.569306
0.583153
0.583772
0.531748
0.569929
0.572861
0.580267
0.58169
0.575763
0.579042
0.556753
0.584579
0.586708
0.579801
0.535318
0.581638
0.53625
0.576845
0.514007
0.540659
0.579418
0.486273
0.532236
0.585192
0.590793
0.532426
0.578766
0.541767
0.506942
0.53856
0.532187
0.541553
0.542018
0.54316
0.592037
0.585505
0.569271
0.59316
0.570219
0.583044
0.581694
0.586921
0.589165
0.551608
0.585671
0.595708
0.583546
0.579729
0.514017
0.59147
0.567639
0.409291
0.586791
0.582413
0.590573
0.590223
0.587928
0.584566
0.55675
0.580207
0.573145
0.574731
0.421233
0.558611
0.510107
0.577066
0.584109
0.524215
0.533963
0.551446
0.542941
0.531867
0.579857
0.574513
0.578323
0.591871
0.542488
0.596093
0.531333
0.572335
0.592645
0.576653
0.577347
0.57729
0.426832
0.544329
0.584923
0.592346
0.543463
0.554826
0.583616
0.591778
0.533273
0.591325
0.548491
0.585258
0.583361
0.568374
0.581819
0.593192
0.587598
0.516338
0.586162
0.584909
0.59072
0.527926
0.576296
0.562144
0.531397
0.545173
0.553946
0.583759
0.58488
0.585199
0.570448
0.512803
0.579789
0.543562
0.542727
0.577323
0.572253
0.52991
0.586961
0.545239
0.549984
0.544076
0.585165
0.53107
0.496665
0.58588
0.564515
0.585628
0.545713
0.513711
0.582731
0.47305
0.579521
0.57182
0.541133
0.532865
0.598229
0.540801
0.532567
0.534014
0.514355
0.556826
0.586328
0.58902
0.533157
0.554124
0.592553
0.575087
0.548011
0.543238
0.567469
0.593849
0.580698
0.542798
0.532368
0.587925
0.596484
0.581996
0.579952
0.580979
0.517412
0.583305
0.590518
0.582937
0.522612
0.590966
0.582225
0.531019
0.58781
0.536577
0.593554
0.576502
0.530177
0.581918
0.576873
0.579502
0.538467
0.587931
0.556836
0.585433
0.587632
0.592169
0.539684
0.5518
0.59111
0.582156
0.560814
0.587434
0.581967
0.543049
0.584421
0.585158
0.54149
0.457506
0.531012
0.56339
0.547876
0.539995
0.537631
0.5607
0.584886
0.528316
0.536976
0.578132
0.531901
0.592793
0.541917
0.586203
0.58143
0.533693
0.583951
0.563955
0.589621
0.584359
0.590584
0.545782
0.541781
0.593144
0.520072
0.591474
0.588449
0.579015
0.552378
0.59197
0.576228
0.538167
0.593641
0.517002
0.583183
0.593238
0.523208
0.593882
0.538791
0.581455
0.444431
0.582084
0.534125
0.585265
0.55768
0.534174
0.561358
0.53084
0.545282
0.591267
0.532265
0.574586
0.584799
0.576507
0.580464
0.582138
0.580852
0.514123
0.594924
0.577846
0.58897
0.549318
0.580573
0.58886
0.566903
0.592188
0.584025
0.586866
0.54358
0.575677
0.499281
0.53017
0.592268
0.372167
0.578861
0.588809
0.552568
0.541709
0.563823
0.578481
0.573056
0.590835
0.581547
0.584039
0.586115
0.594518
0.593556
0.531526
0.582658
0.580229
0.583918
0.586652
0.566363
0.544399
0.538791
0.559699
0.586769
0.567055
0.592974
0.534521
0.550364
0.578014
0.559813
0.581688
0.577697
0.542658
0.554986
0.554232
0.565486
0.540991
0.589466
0.519589
0.566996
0.578967
0.565761
0.528152
0.522864
0.588355
0.516763
0.531408
0.591157
0.583283
0.542622
0.531769
0.53451
0.552451
0.591897
0.58667
0.544089
0.58128
0.582272
0.596556
0.580817
0.549142
0.589916
0.559281
0.579563
0.588429
0.590642
0.582977
0.590863
0.584529
0.523219
0.508715
0.573967
0.552965
0.564444
0.456084
0.469398
0.590508
0.591804
0.540086
0.590505
0.582875
0.590394
0.579537
0.537334
0.594829
0.593198
0.585548
0.519442
0.536885
0.579628
0.590393
0.572567
0.532993
0.563567
0.590438
0.592643
0.587773
0.557294
0.558461
0.578378
0.567566
0.561312
0.586148
0.568287
0.586026
0.455676
0.59334
0.576336
0.583596
0.590337
0.532827
0.540103
0.550249
0.534927
0.592979
0.541014
0.577319
0.459357
0.552371
0.566271
0.543366
0.534329
0.561943
0.525424
0.539899
0.577335
0.570625
0.58545
0.540008
0.584433
0.591856
0.555264
0.58233
0.582994
0.589836
0.58175
0.553687
0.579184
0.532766
0.534586
0.58671
0.589573
0.592798
0.582401
0.509448
0.579883
0.58453
0.566683
0.591313
0.579207
0.590735
0.590721
0.536347
0.536877
0.582555
0.532695
0.587237
0.583929
0.530621
0.589746
0.576399
0.586437
0.581577
0.585053
0.529679
0.564487
0.58767
0.54481
0.583939
0.584378
0.560495
0.5855
0.574685
0.576983
0.58668
0.585138
0.530833
0.591573
0.512528
0.452019
0.55916
0.580469
0.537765
0.593335
0.547998
0.510462
0.566323
0.58604
0.578126
0.417522
0.587432
0.587891
0.589008
0.564542
0.593126
0.585438
0.536866
0.58115
0.571078
0.571185
0.534273
0.585726
0.584728
0.539655
0.534455
0.583153
0.560009
0.533059
0.58147
0.591109
0.53353
0.593309
0.544275
0.504461
0.521255
0.583663
0.573566
0.538145
0.511289
0.530921
0.583802
0.581
0.591571
0.560583
0.59113
0.524047
0.586819
0.538242
0.538646
0.535431
0.589969
0.575426
0.541651
0.546629
0.584212
0.566941
0.592123
0.593071
0.557446
0.57952
0.584982
0.564741
0.588077
0.578599
0.579447
0.566027
0.539377
0.577238
0.561214
0.599518
0.565719
0.549727
0.500309
0.545532
0.58484
0.577245
0.576375
0.576651
0.576313
0.549335
0.563185
0.521572
0.557709
0.548927
0.58963
0.531398
0.543993
0.539165
0.58006
0.580693
0.539974
0.53267
0.518085
0.593924
0.561965
0.546336
0.537317
0.54825
0.54124
0.570649
0.580147
0.528836
0.593151
0.593981
0.564411
0.594412