/*--------------------------------*- C++ -*----------------------------------*\
  =========                 |
  \\      /  F ield         | OpenFOAM: The Open Source CFD Toolbox
   \\    /   O peration     | Website:  https://openfoam.org
    \\  /    A nd           | Version:  6
     \\/     M anipulation  |
\*---------------------------------------------------------------------------*/
FoamFile
{
    version     2.0;
    format      ascii;
    class       surfaceScalarField;
    location    "0.024";
    object      phi;
}
// * * * * * * * * * * * * * * * * * * * * * * * * * * * * * * * * * * * * * //

dimensions      [0 3 -1 0 0 0 0];

internalField   nonuniform List<scalar> 
44700
(
4.34894e-07
-2.56738e-08
-2.50644e-08
4.81275e-07
-2.73801e-08
-1.90007e-08
5.27271e-07
-3.00427e-08
-1.59534e-08
5.72642e-07
-3.08801e-08
-1.4491e-08
6.15183e-07
-2.90735e-08
-1.34674e-08
6.53232e-07
-2.54408e-08
-1.26087e-08
6.85994e-07
-2.11531e-08
-1.16082e-08
7.13439e-07
-1.71212e-08
-1.03241e-08
7.36015e-07
-1.38089e-08
-8.76712e-09
7.54402e-07
-1.13203e-08
-7.06675e-09
7.69351e-07
-9.56936e-09
-5.38018e-09
7.81611e-07
-8.41757e-09
-3.84167e-09
7.91914e-07
-7.74802e-09
-2.5554e-09
8.00963e-07
-7.47314e-09
-1.57558e-09
8.09354e-07
-7.50315e-09
-8.87856e-10
8.17529e-07
-7.75341e-09
-4.21269e-10
8.25784e-07
-8.19485e-09
-6.02855e-11
8.34392e-07
-8.89527e-09
2.86969e-10
8.43685e-07
-9.94395e-09
6.51479e-10
8.54046e-07
-1.13694e-08
1.00825e-09
8.65849e-07
-1.31287e-08
1.32554e-09
8.79392e-07
-1.51667e-08
1.62399e-09
8.94904e-07
-1.74733e-08
1.96085e-09
9.12647e-07
-2.01068e-08
2.36466e-09
9.32995e-07
-2.31612e-08
2.81248e-09
9.56448e-07
-2.66995e-08
3.24696e-09
9.83578e-07
-3.07461e-08
3.61637e-09
1.01498e-06
-3.53549e-08
3.95235e-09
1.05123e-06
-4.06611e-08
4.41267e-09
1.09294e-06
-4.68655e-08
5.15898e-09
1.14095e-06
-5.41883e-08
6.1769e-09
1.19647e-06
-6.28572e-08
7.33043e-09
1.26104e-06
-7.31429e-08
8.57447e-09
1.33642e-06
-8.5392e-08
1.00101e-08
1.42469e-06
-1.00046e-07
1.17754e-08
1.52841e-06
-1.1768e-07
1.39664e-08
1.65081e-06
-1.39064e-07
1.66585e-08
1.79609e-06
-1.65246e-07
1.99653e-08
1.96968e-06
-1.97668e-07
2.4079e-08
2.17872e-06
-2.38343e-07
2.93017e-08
2.43278e-06
-2.90159e-07
3.61039e-08
2.74483e-06
-3.57308e-07
4.52617e-08
3.1322e-06
-4.45812e-07
5.84334e-08
3.6179e-06
-5.64264e-07
7.85707e-08
4.23276e-06
-7.24808e-07
1.09941e-07
5.01867e-06
-9.4499e-07
1.59086e-07
6.02972e-06
-1.25058e-06
2.39525e-07
7.32451e-06
-1.68432e-06
3.89528e-07
8.96111e-06
-2.33303e-06
6.9643e-07
-3.60898e-06
1.29953e-06
1.12706e-05
2.30367e-06
-2.97835e-08
-5.8564e-08
2.35911e-06
-3.22417e-08
-5.05755e-08
2.41563e-06
-3.71923e-08
-4.93706e-08
2.47152e-06
-4.06679e-08
-4.61078e-08
2.5223e-06
-4.08127e-08
-3.9036e-08
2.5658e-06
-3.78355e-08
-3.11032e-08
2.60178e-06
-3.29251e-08
-2.42064e-08
2.63119e-06
-2.7395e-08
-1.91353e-08
2.65524e-06
-2.23062e-08
-1.55539e-08
2.67493e-06
-1.83148e-08
-1.26998e-08
2.69102e-06
-1.56629e-08
-9.99986e-09
2.70419e-06
-1.42823e-08
-7.29826e-09
2.7152e-06
-1.39497e-08
-4.81444e-09
2.72501e-06
-1.44278e-08
-2.85387e-09
2.73446e-06
-1.55424e-08
-1.40541e-09
2.74399e-06
-1.71658e-08
-1.23146e-10
2.75371e-06
-1.91714e-08
1.25896e-09
2.7638e-06
-2.14619e-08
2.47339e-09
2.77476e-06
-2.40398e-08
3.13741e-09
2.78714e-06
-2.70334e-08
3.28154e-09
2.80139e-06
-3.06086e-08
3.2358e-09
2.81778e-06
-3.48986e-08
3.33789e-09
2.83652e-06
-4.00064e-08
3.79468e-09
2.85786e-06
-4.60482e-08
4.60203e-09
2.88224e-06
-5.31406e-08
5.59744e-09
2.91024e-06
-6.13474e-08
6.64587e-09
2.94251e-06
-7.07107e-08
7.7013e-09
2.97975e-06
-8.13473e-08
8.75146e-09
3.02271e-06
-9.35284e-08
9.90282e-09
3.07208e-06
-1.07699e-07
1.14676e-08
3.12863e-06
-1.24371e-07
1.36327e-08
3.1936e-06
-1.43975e-07
1.61509e-08
3.26869e-06
-1.66927e-07
1.86896e-08
3.35583e-06
-1.93856e-07
2.13234e-08
3.45702e-06
-2.25685e-07
2.44533e-08
3.57448e-06
-2.63572e-07
2.84275e-08
3.7109e-06
-3.08897e-07
3.34183e-08
3.86947e-06
-3.63359e-07
3.95411e-08
4.05394e-06
-4.29121e-07
4.69757e-08
4.26855e-06
-5.08934e-07
5.59886e-08
4.51789e-06
-6.0648e-07
6.69747e-08
4.80663e-06
-7.26521e-07
8.04761e-08
5.13902e-06
-8.75147e-07
9.69436e-08
5.5185e-06
-1.06021e-06
1.16463e-07
5.94661e-06
-1.29266e-06
1.3975e-07
6.42262e-06
-1.58856e-06
1.67563e-07
6.93646e-06
-1.96816e-06
2.03748e-07
7.45041e-06
-2.46009e-06
2.61817e-07
7.85285e-06
-3.10313e-06
3.67653e-07
-3.9514e-06
5.39051e-07
7.65622e-06
3.95278e-06
-2.26462e-08
-6.37303e-08
4.00225e-06
-2.46931e-08
-5.70121e-08
4.0548e-06
-2.89801e-08
-6.07684e-08
4.10765e-06
-3.29657e-08
-6.05514e-08
4.15551e-06
-3.47946e-08
-5.38768e-08
4.19564e-06
-3.40152e-08
-4.39512e-08
4.2275e-06
-3.12009e-08
-3.35891e-08
4.252e-06
-2.73383e-08
-2.45519e-08
4.27073e-06
-2.34233e-08
-1.76106e-08
4.28535e-06
-2.0214e-08
-1.27181e-08
4.29713e-06
-1.8141e-08
-9.30819e-09
4.30687e-06
-1.73416e-08
-6.67963e-09
4.31508e-06
-1.77308e-08
-4.42822e-09
4.32233e-06
-1.90968e-08
-2.58231e-09
4.32933e-06
-2.12396e-08
-1.30532e-09
4.33674e-06
-2.40521e-08
-5.21444e-10
4.34486e-06
-2.75287e-08
2.40903e-10
4.3536e-06
-3.16728e-08
1.46543e-09
4.36291e-06
-3.64063e-08
3.0598e-09
4.37309e-06
-4.16348e-08
4.42383e-09
4.3847e-06
-4.73576e-08
5.13828e-09
4.39818e-06
-5.37192e-08
5.33617e-09
4.41373e-06
-6.09802e-08
5.42311e-09
4.43147e-06
-6.94602e-08
5.6729e-09
4.4516e-06
-7.94269e-08
6.1592e-09
4.47437e-06
-9.10699e-08
6.9573e-09
4.50014e-06
-1.04611e-07
8.12723e-09
4.5295e-06
-1.20321e-07
9.61037e-09
4.56317e-06
-1.38492e-07
1.12962e-08
4.60182e-06
-1.59487e-07
1.31398e-08
4.64607e-06
-1.83809e-07
1.51813e-08
4.6966e-06
-2.12032e-07
1.75298e-08
4.75414e-06
-2.44773e-07
2.0309e-08
4.81952e-06
-2.82812e-07
2.35692e-08
4.8937e-06
-3.27165e-07
2.73073e-08
4.97765e-06
-3.79054e-07
3.15313e-08
5.07234e-06
-4.39886e-07
3.62959e-08
5.17853e-06
-5.11276e-07
4.17222e-08
5.29652e-06
-5.95091e-07
4.79811e-08
5.4263e-06
-6.93863e-07
5.51482e-08
5.56718e-06
-8.10388e-07
6.3035e-08
5.7172e-06
-9.48039e-07
7.14925e-08
5.87294e-06
-1.11136e-06
8.04758e-08
6.02893e-06
-1.30589e-06
8.96882e-08
6.17449e-06
-1.53812e-06
9.98845e-08
6.28785e-06
-1.81565e-06
1.13724e-07
6.33307e-06
-2.14857e-06
1.35185e-07
6.25848e-06
-2.54425e-06
1.58759e-07
5.98853e-06
-3.00611e-06
1.72935e-07
-3.52996e-06
1.59685e-07
5.4074e-06
4.88229e-06
-1.19285e-08
-6.95325e-08
4.93333e-06
-1.3145e-08
-6.25811e-08
4.98825e-06
-1.57695e-08
-6.81392e-08
5.04368e-06
-1.85636e-08
-6.98317e-08
5.09314e-06
-2.05211e-08
-6.37273e-08
5.13319e-06
-2.12625e-08
-5.28077e-08
5.16309e-06
-2.09434e-08
-4.01576e-08
5.18394e-06
-1.99886e-08
-2.8199e-08
5.19793e-06
-1.88894e-08
-1.8526e-08
5.20748e-06
-1.80748e-08
-1.16816e-08
5.21447e-06
-1.78539e-08
-7.28075e-09
5.22005e-06
-1.83986e-08
-4.52396e-09
5.2248e-06
-1.97413e-08
-2.73884e-09
5.2291e-06
-2.18172e-08
-1.58406e-09
5.2333e-06
-2.45577e-08
-8.75198e-10
5.23762e-06
-2.79488e-08
-4.2931e-10
5.24229e-06
-3.20413e-08
-1.55034e-10
5.24746e-06
-3.69322e-08
8.97074e-11
5.25324e-06
-4.26998e-08
5.14058e-10
5.25972e-06
-4.93725e-08
1.25953e-09
5.26702e-06
-5.69287e-08
2.27308e-09
5.27534e-06
-6.53509e-08
3.30707e-09
5.28494e-06
-7.4713e-08
4.1355e-09
5.29604e-06
-8.5211e-08
4.64771e-09
5.30879e-06
-9.70786e-08
4.90387e-09
5.32315e-06
-1.10586e-07
5.16108e-09
5.33907e-06
-1.26122e-07
5.58388e-09
5.35674e-06
-1.44145e-07
6.15757e-09
5.37641e-06
-1.65112e-07
6.94477e-09
5.39839e-06
-1.89397e-07
7.93835e-09
5.42303e-06
-2.17363e-07
8.91226e-09
5.4506e-06
-2.49585e-07
9.97966e-09
5.48104e-06
-2.86825e-07
1.16134e-08
5.51418e-06
-3.29847e-07
1.38972e-08
5.54999e-06
-3.79373e-07
1.63983e-08
5.58849e-06
-4.36265e-07
1.87042e-08
5.62954e-06
-5.0165e-07
2.07184e-08
5.67268e-06
-5.76919e-07
2.25016e-08
5.71714e-06
-6.63692e-07
2.41395e-08
5.76122e-06
-7.63666e-07
2.57206e-08
5.802e-06
-8.78796e-07
2.76272e-08
5.83486e-06
-1.01127e-06
3.03802e-08
5.85338e-06
-1.1632e-06
3.33239e-08
5.84735e-06
-1.33704e-06
3.71755e-08
5.80327e-06
-1.53526e-06
4.12202e-08
5.70232e-06
-1.75846e-06
4.37566e-08
5.52066e-06
-2.00786e-06
4.09531e-08
5.22309e-06
-2.28203e-06
3.53518e-08
4.76948e-06
-2.5755e-06
2.29945e-08
-2.87637e-06
-2.49479e-09
4.11839e-06
5.27179e-06
-4.2937e-10
-7.22218e-08
5.32443e-06
-9.01496e-10
-6.48864e-08
5.38143e-06
-1.6676e-09
-7.11049e-08
5.43917e-06
-2.55836e-09
-7.37426e-08
5.49053e-06
-3.66455e-09
-6.82109e-08
5.53154e-06
-5.12162e-09
-5.71523e-08
5.56117e-06
-6.95671e-09
-4.36225e-08
5.58054e-06
-9.04129e-09
-3.03168e-08
5.59208e-06
-1.11906e-08
-1.9233e-08
5.59857e-06
-1.32931e-08
-1.12713e-08
5.60232e-06
-1.53655e-08
-6.23755e-09
5.60478e-06
-1.75155e-08
-3.34376e-09
5.60668e-06
-1.98715e-08
-1.77158e-09
5.60835e-06
-2.25448e-08
-9.39535e-10
5.60993e-06
-2.56245e-08
-5.19834e-10
5.6115e-06
-2.91949e-08
-3.16591e-10
5.61304e-06
-3.33462e-08
-2.39788e-10
5.61454e-06
-3.81871e-08
-2.47739e-10
5.61598e-06
-4.38282e-08
-3.1375e-10
5.61748e-06
-5.03638e-08
-5.017e-10
5.61928e-06
-5.78856e-08
-8.44365e-10
5.62165e-06
-6.65505e-08
-1.16991e-09
5.6247e-06
-7.65804e-08
-1.18339e-09
5.62835e-06
-8.81343e-08
-7.27972e-10
5.63235e-06
-1.0122e-07
1.46528e-10
5.6364e-06
-1.15849e-07
1.21039e-09
5.6404e-06
-1.32221e-07
2.09694e-09
5.6445e-06
-1.50713e-07
2.47396e-09
5.64883e-06
-1.71836e-07
2.39241e-09
5.65341e-06
-1.96138e-07
2.15397e-09
5.6583e-06
-2.24152e-07
1.90592e-09
5.66336e-06
-2.56442e-07
1.79259e-09
5.66811e-06
-2.93572e-07
1.99368e-09
5.67186e-06
-3.36128e-07
2.53277e-09
5.67395e-06
-3.84712e-07
3.24739e-09
5.67376e-06
-4.39976e-07
3.90211e-09
5.67048e-06
-5.02699e-07
4.3344e-09
5.66283e-06
-5.73786e-07
4.51768e-09
5.64898e-06
-6.54294e-07
4.45088e-09
5.62623e-06
-7.45003e-07
4.09078e-09
5.59098e-06
-8.46844e-07
3.29718e-09
5.53875e-06
-9.60577e-07
1.52868e-09
5.46289e-06
-1.08672e-06
-6.2164e-10
5.35506e-06
-1.22533e-06
-3.88616e-09
5.20406e-06
-1.37576e-06
-8.49984e-09
4.99651e-06
-1.53612e-06
-1.47943e-08
4.71495e-06
-1.70307e-06
-2.32247e-08
4.33981e-06
-1.87104e-06
-3.5852e-08
3.85124e-06
-2.03208e-06
-5.48523e-08
-2.17624e-06
-8.42531e-08
3.23537e-06
5.26884e-06
1.106e-08
-7.23363e-08
5.32159e-06
1.13725e-08
-6.50248e-08
5.37859e-06
1.25289e-08
-7.11909e-08
5.43614e-06
1.36211e-08
-7.37294e-08
5.48713e-06
1.3484e-08
-6.81455e-08
5.52766e-06
1.14786e-08
-5.71273e-08
5.55674e-06
7.70477e-09
-4.37433e-08
5.57549e-06
2.84262e-09
-3.0627e-08
5.58625e-06
-2.25762e-09
-1.96926e-08
5.59173e-06
-6.97285e-09
-1.18013e-08
5.59419e-06
-1.10607e-08
-6.76878e-09
5.59511e-06
-1.45849e-08
-3.84585e-09
5.59525e-06
-1.77616e-08
-2.25402e-09
5.59497e-06
-2.0836e-08
-1.43259e-09
5.59441e-06
-2.40226e-08
-1.03966e-09
5.59359e-06
-2.74927e-08
-8.79856e-10
5.59248e-06
-3.1384e-08
-8.54968e-10
5.59103e-06
-3.58161e-08
-9.23189e-10
5.58917e-06
-4.08974e-08
-1.06405e-09
5.58681e-06
-4.67414e-08
-1.26612e-09
5.58391e-06
-5.34979e-08
-1.48258e-09
5.58042e-06
-6.13688e-08
-1.69152e-09
5.57638e-06
-7.05401e-08
-2.00703e-09
5.57184e-06
-8.11113e-08
-2.47788e-09
5.56663e-06
-9.31135e-08
-2.90004e-09
5.5605e-06
-1.06646e-07
-3.07345e-09
5.55327e-06
-1.21925e-07
-3.06266e-09
5.5449e-06
-1.39204e-07
-3.14317e-09
5.53527e-06
-1.58811e-07
-3.39465e-09
5.52404e-06
-1.81204e-07
-3.69668e-09
5.51088e-06
-2.06863e-07
-4.13119e-09
5.49535e-06
-2.36162e-07
-4.75517e-09
5.47667e-06
-2.69378e-07
-5.50711e-09
5.45382e-06
-3.06913e-07
-6.37304e-09
5.42582e-06
-3.49337e-07
-7.37355e-09
5.39164e-06
-3.9721e-07
-8.58664e-09
5.35015e-06
-4.5101e-07
-1.01927e-08
5.29992e-06
-5.11178e-07
-1.23804e-08
5.23901e-06
-5.78144e-07
-1.52446e-08
5.16503e-06
-6.52252e-07
-1.87667e-08
5.07485e-06
-7.33715e-07
-2.29485e-08
4.96457e-06
-8.22481e-07
-2.78192e-08
4.82946e-06
-9.1807e-07
-3.35318e-08
4.66374e-06
-1.01938e-06
-4.02289e-08
4.46037e-06
-1.12439e-06
-4.79919e-08
4.21098e-06
-1.22979e-06
-5.69339e-08
3.90543e-06
-1.33048e-06
-6.70376e-08
3.53223e-06
-1.4194e-06
-7.84406e-08
3.07941e-06
-1.48802e-06
-9.12376e-08
-1.52798e-06
-1.06519e-07
2.53766e-06
4.8734e-06
2.16303e-08
-6.9636e-08
4.92466e-06
2.29286e-08
-6.28165e-08
4.97949e-06
2.59311e-08
-6.82364e-08
5.03433e-06
2.83791e-08
-6.9591e-08
5.08263e-06
2.83706e-08
-6.31913e-08
5.12113e-06
2.53878e-08
-5.24069e-08
5.14932e-06
2.00456e-08
-4.05325e-08
5.16834e-06
1.34694e-08
-2.96444e-08
5.18009e-06
6.76205e-09
-2.07748e-08
5.18664e-06
6.66217e-10
-1.41882e-08
5.18973e-06
-4.51895e-09
-9.62652e-09
5.19058e-06
-8.83452e-09
-6.60518e-09
5.18998e-06
-1.24969e-08
-4.65907e-09
5.18835e-06
-1.57681e-08
-3.44159e-09
5.18593e-06
-1.88891e-08
-2.71295e-09
5.18281e-06
-2.20595e-08
-2.31064e-09
5.17899e-06
-2.54395e-08
-2.13002e-09
5.17445e-06
-2.91605e-08
-2.10939e-09
5.1691e-06
-3.33351e-08
-2.216e-09
5.16287e-06
-3.80697e-08
-2.44453e-09
5.15565e-06
-4.34795e-08
-2.79593e-09
5.14729e-06
-4.96824e-08
-3.32708e-09
5.13769e-06
-5.67938e-08
-4.14329e-09
5.12666e-06
-6.49866e-08
-5.09687e-09
5.11383e-06
-7.44915e-08
-5.79152e-09
5.09881e-06
-8.5521e-08
-6.10133e-09
5.0814e-06
-9.82032e-08
-6.31532e-09
5.06155e-06
-1.12604e-07
-6.74675e-09
5.03896e-06
-1.2883e-07
-7.38991e-09
5.01308e-06
-1.47064e-07
-8.26442e-09
4.98339e-06
-1.67511e-07
-9.65971e-09
4.94919e-06
-1.90447e-07
-1.15142e-08
4.90946e-06
-2.16191e-07
-1.34562e-08
4.86313e-06
-2.45094e-07
-1.549e-08
4.80923e-06
-2.77544e-07
-1.78914e-08
4.7467e-06
-3.13889e-07
-2.07999e-08
4.67433e-06
-3.54375e-07
-2.42568e-08
4.59065e-06
-3.99167e-07
-2.83306e-08
4.49397e-06
-4.4838e-07
-3.30879e-08
4.38233e-06
-5.02047e-07
-3.85671e-08
4.25346e-06
-5.60047e-07
-4.47907e-08
4.10474e-06
-6.21991e-07
-5.17776e-08
3.93326e-06
-6.87092e-07
-5.94978e-08
3.73573e-06
-7.53997e-07
-6.78525e-08
3.50844e-06
-8.20554e-07
-7.65484e-08
3.24733e-06
-8.83519e-07
-8.51543e-08
2.94789e-06
-9.38112e-07
-9.29271e-08
2.60589e-06
-9.78639e-07
-9.87609e-08
2.21859e-06
-1.00092e-06
-9.98004e-08
-1.00228e-06
-9.23935e-08
1.78528e-06
3.93852e-06
2.86411e-08
-6.38321e-08
3.9882e-06
3.05733e-08
-5.73182e-08
4.04051e-06
3.44521e-08
-6.08334e-08
4.09235e-06
3.6656e-08
-6.01156e-08
4.13841e-06
3.55299e-08
-5.3224e-08
4.17612e-06
3.13767e-08
-4.36975e-08
4.20519e-06
2.53592e-08
-3.43791e-08
4.22647e-06
1.86783e-08
-2.64951e-08
4.24126e-06
1.22273e-08
-2.0251e-08
4.25087e-06
6.5025e-09
-1.54444e-08
4.25645e-06
1.66079e-09
-1.17684e-08
4.25895e-06
-2.35963e-09
-8.96781e-09
4.25905e-06
-5.72524e-09
-6.87852e-09
4.2573e-06
-8.63023e-09
-5.38059e-09
4.25403e-06
-1.12585e-08
-4.36234e-09
4.24946e-06
-1.37714e-08
-3.71889e-09
4.24369e-06
-1.6304e-08
-3.36223e-09
4.23672e-06
-1.89691e-08
-3.22688e-09
4.22852e-06
-2.18623e-08
-3.2686e-09
4.21898e-06
-2.50677e-08
-3.46278e-09
4.20796e-06
-2.86648e-08
-3.79793e-09
4.19529e-06
-3.27302e-08
-4.28193e-09
4.18079e-06
-3.73534e-08
-4.94313e-09
4.16423e-06
-4.26739e-08
-5.74661e-09
4.14521e-06
-4.88591e-08
-6.61267e-09
4.12329e-06
-5.60445e-08
-7.55451e-09
4.09807e-06
-6.43173e-08
-8.66517e-09
4.06917e-06
-7.37282e-08
-9.97976e-09
4.03608e-06
-8.43183e-08
-1.14232e-08
3.99814e-06
-9.61288e-08
-1.29951e-08
3.95469e-06
-1.09223e-07
-1.48365e-08
3.90494e-06
-1.23762e-07
-1.69364e-08
3.84792e-06
-1.39969e-07
-1.91962e-08
3.78265e-06
-1.58051e-07
-2.17761e-08
3.70823e-06
-1.78184e-07
-2.49441e-08
3.62364e-06
-2.0052e-07
-2.87739e-08
3.52763e-06
-2.25158e-07
-3.32072e-08
3.41882e-06
-2.52136e-07
-3.82217e-08
3.29572e-06
-2.81425e-07
-4.38544e-08
3.15674e-06
-3.12914e-07
-5.0153e-08
3.00017e-06
-3.46366e-07
-5.71117e-08
2.82414e-06
-3.81331e-07
-6.46245e-08
2.62653e-06
-4.17043e-07
-7.2438e-08
2.40493e-06
-4.52264e-07
-8.01398e-08
2.15656e-06
-4.85097e-07
-8.70805e-08
1.87864e-06
-5.12952e-07
-9.26512e-08
1.57131e-06
-5.33645e-07
-9.71329e-08
1.24437e-06
-5.50278e-07
-1.01426e-07
9.25646e-07
-5.82057e-07
-1.00136e-07
-6.56847e-07
-7.82592e-08
6.58475e-07
2.28345e-06
2.47691e-08
-5.79373e-08
2.33803e-06
2.62499e-08
-5.02648e-08
2.39318e-06
2.84647e-08
-4.91617e-08
2.44704e-06
2.88742e-08
-4.60791e-08
2.49533e-06
2.67907e-08
-3.9549e-08
2.53613e-06
2.29849e-08
-3.24068e-08
2.56916e-06
1.84435e-08
-2.61182e-08
2.59493e-06
1.39056e-08
-2.0995e-08
2.61421e-06
9.79655e-09
-1.68476e-08
2.62787e-06
6.28806e-09
-1.34451e-08
2.63678e-06
3.38924e-09
-1.06399e-08
2.64176e-06
1.02706e-09
-8.36453e-09
2.64353e-06
-9.05669e-10
-6.58498e-09
2.64267e-06
-2.52667e-09
-5.25283e-09
2.63965e-06
-3.93943e-09
-4.29922e-09
2.63477e-06
-5.23136e-09
-3.6583e-09
2.62821e-06
-6.47086e-09
-3.26891e-09
2.62004e-06
-7.71597e-09
-3.08252e-09
2.61025e-06
-9.01597e-09
-3.06235e-09
2.59878e-06
-1.04125e-08
-3.1843e-09
2.5855e-06
-1.1942e-08
-3.43505e-09
2.57022e-06
-1.36378e-08
-3.81483e-09
2.55275e-06
-1.55355e-08
-4.34546e-09
2.5328e-06
-1.76852e-08
-5.04361e-09
2.50998e-06
-2.01462e-08
-5.89503e-09
2.4838e-06
-2.29772e-08
-6.88374e-09
2.45377e-06
-2.62322e-08
-8.05823e-09
2.41941e-06
-2.99481e-08
-9.41435e-09
2.38002e-06
-3.41223e-08
-1.08075e-08
2.33482e-06
-3.87297e-08
-1.21974e-08
2.28308e-06
-4.37643e-08
-1.37183e-08
2.22405e-06
-4.92653e-08
-1.54671e-08
2.15689e-06
-5.52876e-08
-1.75278e-08
2.08078e-06
-6.1867e-08
-2.00714e-08
1.99485e-06
-6.90239e-08
-2.32261e-08
1.8981e-06
-7.67703e-08
-2.70035e-08
1.78941e-06
-8.50958e-08
-3.13719e-08
1.66753e-06
-9.3944e-08
-3.63049e-08
1.53105e-06
-1.03184e-07
-4.17701e-08
1.37844e-06
-1.12572e-07
-4.77287e-08
1.2079e-06
-1.21687e-07
-5.41368e-08
1.01721e-06
-1.29824e-07
-6.08137e-08
8.03472e-07
-1.35807e-07
-6.75033e-08
5.63312e-07
-1.37808e-07
-7.42958e-08
2.94018e-07
-1.33651e-07
-8.21523e-08
-2.57662e-09
-1.22361e-07
-9.39957e-08
-3.13597e-07
-1.07618e-07
-1.15007e-07
-6.10738e-07
-1.04959e-07
-1.48178e-07
-8.51553e-07
-1.65542e-07
-1.75699e-07
-4.27578e-07
-1.34474e-07
-9.46348e-07
4.14812e-07
-2.48435e-08
4.60149e-07
-1.90864e-08
5.04885e-07
-1.62713e-08
5.48599e-07
-1.48406e-08
5.89104e-07
-1.37141e-08
6.2483e-07
-1.27412e-08
6.54989e-07
-1.17156e-08
6.79399e-07
-1.0504e-08
6.98304e-07
-9.10871e-09
7.12235e-07
-7.64289e-09
7.21861e-07
-6.23714e-09
7.27873e-07
-4.98474e-09
7.30901e-07
-3.93356e-09
7.31469e-07
-3.09442e-09
7.30004e-07
-2.47438e-09
7.26802e-07
-2.02936e-09
7.22062e-07
-1.73154e-09
7.15901e-07
-1.55465e-09
7.08359e-07
-1.47394e-09
6.99418e-07
-1.47142e-09
6.89011e-07
-1.53503e-09
6.77033e-07
-1.65947e-09
6.63344e-07
-1.84618e-09
6.47751e-07
-2.09263e-09
6.3e-07
-2.39484e-09
6.09804e-07
-2.78128e-09
5.8687e-07
-3.29844e-09
5.60823e-07
-3.9006e-09
5.31156e-07
-4.45545e-09
4.97318e-07
-4.89151e-09
4.58797e-07
-5.24368e-09
4.15126e-07
-5.59457e-09
3.65856e-07
-6.0175e-09
3.10539e-07
-6.54941e-09
2.48694e-07
-7.1797e-09
1.79789e-07
-7.86448e-09
1.03251e-07
-8.55829e-09
1.85486e-08
-9.24144e-09
-7.47065e-08
-9.92851e-09
-1.76666e-07
-1.06118e-08
-2.8718e-07
-1.11733e-08
-4.05524e-07
-1.14801e-08
-5.2996e-07
-1.13717e-08
-6.57245e-07
-1.05222e-08
-7.82238e-07
-8.65884e-09
-8.98559e-07
-6.04075e-09
-1.00456e-06
-1.61775e-09
-1.13147e-06
2.19473e-08
-1.42243e-06
1.25418e-07
3.32501e-07
-2.1825e-06
1.27528e-06
-5.98796e-08
-4.47703e-08
1.35785e-06
-6.1199e-08
-4.03665e-08
1.44535e-06
-6.65228e-08
-3.69274e-08
1.53285e-06
-6.87946e-08
-3.32056e-08
1.6145e-06
-6.55961e-08
-2.95183e-08
1.68652e-06
-5.80816e-08
-2.65485e-08
1.74735e-06
-4.85315e-08
-2.39078e-08
1.79728e-06
-3.91019e-08
-2.11528e-08
1.83763e-06
-3.1078e-08
-1.80336e-08
1.87008e-06
-2.49093e-08
-1.46076e-08
1.89633e-06
-2.05176e-08
-1.11112e-08
1.91792e-06
-1.76117e-08
-7.8263e-09
1.93628e-06
-1.58956e-08
-5.01583e-09
1.95267e-06
-1.51316e-08
-2.83253e-09
1.96813e-06
-1.50855e-08
-1.26742e-09
1.98343e-06
-1.55167e-08
-2.01485e-10
1.99907e-06
-1.62663e-08
5.69599e-10
2.01553e-06
-1.74093e-08
1.23311e-09
2.03345e-06
-1.91642e-08
1.89769e-09
2.05357e-06
-2.16909e-08
2.57387e-09
2.07663e-06
-2.49588e-08
3.22937e-09
2.10318e-06
-2.8834e-08
3.90467e-09
2.13369e-06
-3.32448e-08
4.70282e-09
2.16866e-06
-3.82798e-08
5.66642e-09
2.20888e-06
-4.41418e-08
6.74106e-09
2.2553e-06
-5.09884e-08
7.81279e-09
2.30899e-06
-5.88586e-08
8.78107e-09
2.37102e-06
-6.77833e-08
9.70975e-09
2.44246e-06
-7.79422e-08
1.09164e-08
2.52458e-06
-8.97146e-08
1.27469e-08
2.61915e-06
-1.03587e-07
1.51992e-08
2.72853e-06
-1.20032e-07
1.7985e-08
2.85563e-06
-1.39519e-07
2.09924e-08
3.00382e-06
-1.62643e-07
2.4463e-08
3.17703e-06
-1.90202e-07
2.87623e-08
3.38007e-06
-2.23243e-07
3.4171e-08
3.61893e-06
-2.6311e-07
4.09066e-08
3.90121e-06
-3.11577e-07
4.92714e-08
4.23656e-06
-3.71049e-07
5.97755e-08
4.63748e-06
-4.44847e-07
7.32311e-08
5.12033e-06
-5.37648e-07
9.09007e-08
5.70699e-06
-6.56131e-07
1.14732e-07
6.42751e-06
-8.09952e-07
1.4786e-07
7.32276e-06
-1.01307e-06
1.964e-07
8.44531e-06
-1.28484e-06
2.7223e-07
9.86427e-06
-1.65297e-06
3.931e-07
1.16715e-05
-2.15604e-06
5.88337e-07
1.3996e-05
-2.85099e-06
9.16029e-07
1.70335e-05
-3.83079e-06
1.48971e-06
-5.72665e-06
2.47167e-06
2.1588e-05
7.05636e-06
-7.2876e-08
-1.07095e-07
7.12972e-06
-7.60377e-08
-1.09104e-07
7.21361e-06
-8.60993e-08
-1.13678e-07
7.30013e-06
-9.44554e-08
-1.06969e-07
7.38207e-06
-9.62678e-08
-9.03042e-08
7.45473e-06
-9.08313e-08
-7.10083e-08
7.51597e-06
-8.01649e-08
-5.38165e-08
7.56641e-06
-6.71657e-08
-4.15096e-08
7.60763e-06
-5.44795e-08
-3.33769e-08
7.64131e-06
-4.39055e-08
-2.73806e-08
7.66889e-06
-3.62619e-08
-2.18387e-08
7.6917e-06
-3.15965e-08
-1.61173e-08
7.71114e-06
-2.95149e-08
-1.06383e-08
7.72884e-06
-2.9469e-08
-6.21357e-09
7.7463e-06
-3.09653e-08
-2.99093e-09
7.76454e-06
-3.36195e-08
-2.6389e-10
7.78395e-06
-3.71025e-08
2.69433e-09
7.80478e-06
-4.11964e-08
5.42336e-09
7.82766e-06
-4.58425e-08
6.93879e-09
7.85334e-06
-5.12074e-08
7.11589e-09
7.8825e-06
-5.75722e-08
6.68731e-09
7.91572e-06
-6.52246e-08
6.51207e-09
7.95353e-06
-7.44069e-08
7.14552e-09
7.99662e-06
-8.53867e-08
8.61998e-09
8.04596e-06
-9.84501e-08
1.05657e-08
8.10274e-06
-1.13764e-07
1.26436e-08
8.16823e-06
-1.31387e-07
1.47353e-08
8.24379e-06
-1.51428e-07
1.68363e-08
8.33083e-06
-1.74226e-07
1.91461e-08
8.43082e-06
-2.00522e-07
2.22855e-08
8.54555e-06
-2.31355e-07
2.66769e-08
8.67751e-06
-2.67634e-07
3.17861e-08
8.82997e-06
-3.10089e-07
3.67998e-08
9.00665e-06
-3.59764e-07
4.17646e-08
9.21164e-06
-4.18311e-07
4.75736e-08
9.4495e-06
-4.87845e-07
5.51707e-08
9.7256e-06
-5.7082e-07
6.50238e-08
1.00464e-05
-6.70158e-07
7.73484e-08
1.04193e-05
-7.89532e-07
9.25443e-08
1.08528e-05
-9.33699e-07
1.11321e-07
1.13562e-05
-1.10892e-06
1.34827e-07
1.19389e-05
-1.32309e-06
1.64726e-07
1.26088e-05
-1.58628e-06
2.03429e-07
1.33703e-05
-1.91172e-06
2.53545e-07
1.42236e-05
-2.31622e-06
3.17871e-07
1.51588e-05
-2.82209e-06
4.01522e-07
1.61508e-05
-3.45864e-06
5.1428e-07
1.71673e-05
-4.27407e-06
6.68445e-07
1.81424e-05
-5.33349e-06
8.95261e-07
-6.7226e-06
1.31791e-06
1.83595e-05
1.19461e-05
-5.35314e-08
-1.19126e-07
1.1995e-05
-5.56313e-08
-1.26401e-07
1.20549e-05
-6.3532e-08
-1.43146e-07
1.21163e-05
-7.2547e-08
-1.4393e-07
1.21742e-05
-7.83667e-08
-1.29653e-07
1.22247e-05
-7.87882e-08
-1.0647e-07
1.22661e-05
-7.40246e-08
-8.11415e-08
1.22988e-05
-6.58053e-08
-5.86194e-08
1.23244e-05
-5.63963e-08
-4.13405e-08
1.23451e-05
-4.7783e-08
-2.94624e-08
1.23623e-05
-4.12601e-08
-2.15777e-08
1.23772e-05
-3.74371e-08
-1.57517e-08
1.23904e-05
-3.63524e-08
-1.07497e-08
1.24025e-05
-3.75878e-08
-6.55802e-09
1.24144e-05
-4.0634e-08
-3.57589e-09
1.24272e-05
-4.51629e-08
-1.76972e-09
1.24417e-05
-5.10799e-08
-2.37361e-10
1.24582e-05
-5.84227e-08
2.20073e-09
1.24769e-05
-6.70541e-08
5.60027e-09
1.24981e-05
-7.66794e-08
8.67554e-09
1.25225e-05
-8.71366e-08
1.02693e-08
1.25507e-05
-9.85814e-08
1.04809e-08
1.2583e-05
-1.11434e-07
1.02049e-08
1.26194e-05
-1.26323e-07
1.01416e-08
1.26604e-05
-1.4388e-07
1.05774e-08
1.27064e-05
-1.6456e-07
1.17679e-08
1.27581e-05
-1.88828e-07
1.38481e-08
1.28169e-05
-2.17201e-07
1.66374e-08
1.28843e-05
-2.50173e-07
1.97966e-08
1.29621e-05
-2.8831e-07
2.31298e-08
1.30517e-05
-3.32442e-07
2.67214e-08
1.31543e-05
-3.83589e-07
3.08591e-08
1.32715e-05
-4.42835e-07
3.58517e-08
1.3405e-05
-5.11572e-07
4.18829e-08
1.35567e-05
-5.9165e-07
4.89592e-08
1.37287e-05
-6.85301e-07
5.69694e-08
1.39233e-05
-7.95052e-07
6.59798e-08
1.41423e-05
-9.23794e-07
7.63205e-08
1.43872e-05
-1.07493e-06
8.84314e-08
1.46585e-05
-1.25254e-06
1.0276e-07
1.49541e-05
-1.46136e-06
1.19874e-07
1.52692e-05
-1.70707e-06
1.40346e-07
1.55966e-05
-1.99736e-06
1.64112e-07
1.5925e-05
-2.34102e-06
1.90627e-07
1.62366e-05
-2.74874e-06
2.20777e-07
1.65081e-05
-3.23395e-06
2.54113e-07
1.67e-05
-3.81377e-06
2.98392e-07
1.67193e-05
-4.50362e-06
3.69046e-07
1.64139e-05
-5.32473e-06
4.69514e-07
-6.2764e-06
5.33024e-07
1.55944e-05
1.46823e-05
-2.76862e-08
-1.2868e-07
1.47298e-05
-2.8665e-08
-1.37019e-07
1.47895e-05
-3.29782e-08
-1.58456e-07
1.48499e-05
-3.86909e-08
-1.64026e-07
1.49042e-05
-4.35627e-08
-1.52828e-07
1.49481e-05
-4.61603e-08
-1.2936e-07
1.498e-05
-4.62314e-08
-9.98853e-08
1.5001e-05
-4.43925e-08
-7.06313e-08
1.5014e-05
-4.16559e-08
-4.62714e-08
1.50224e-05
-3.90157e-08
-2.88427e-08
1.50289e-05
-3.72487e-08
-1.77586e-08
1.50349e-05
-3.68815e-08
-1.10451e-08
1.50408e-05
-3.81458e-08
-6.84984e-09
1.50468e-05
-4.09659e-08
-4.21139e-09
1.50532e-05
-4.51716e-08
-2.72317e-09
1.506e-05
-5.06919e-08
-1.78811e-09
1.50676e-05
-5.75535e-08
-1.23348e-09
1.5076e-05
-6.59821e-08
-7.32467e-10
1.50855e-05
-7.62103e-08
1.38383e-10
1.50967e-05
-8.83032e-08
1.65044e-09
1.51103e-05
-1.0215e-07
3.76788e-09
1.51265e-05
-1.17558e-07
6.00648e-09
1.5146e-05
-1.34483e-07
7.75539e-09
1.51689e-05
-1.53235e-07
8.6687e-09
1.51953e-05
-1.74321e-07
8.94761e-09
1.52249e-05
-1.9826e-07
9.24071e-09
1.52575e-05
-2.2577e-07
9.90997e-09
1.52933e-05
-2.57716e-07
1.09148e-08
1.53327e-05
-2.95022e-07
1.23391e-08
1.53767e-05
-3.3845e-07
1.40755e-08
1.54261e-05
-3.88581e-07
1.5636e-08
1.54815e-05
-4.46335e-07
1.73655e-08
1.55429e-05
-5.13131e-07
2.04727e-08
1.56105e-05
-5.90536e-07
2.53109e-08
1.56843e-05
-6.79968e-07
3.09238e-08
1.57643e-05
-7.82903e-07
3.62606e-08
1.58502e-05
-9.01238e-07
4.10422e-08
1.59407e-05
-1.0374e-06
4.55638e-08
1.6034e-05
-1.19424e-06
5.02017e-08
1.6127e-05
-1.37497e-06
5.51153e-08
1.62164e-05
-1.58323e-06
6.00376e-08
1.62978e-05
-1.8233e-06
6.52767e-08
1.63616e-05
-2.09914e-06
7.13165e-08
1.63918e-05
-2.41523e-06
8.11506e-08
1.63661e-05
-2.77609e-06
9.42221e-08
1.62491e-05
-3.18522e-06
1.12098e-07
1.59931e-05
-3.64772e-06
1.30907e-07
1.55396e-05
-4.15912e-06
1.44327e-07
1.48064e-05
-4.71348e-06
1.4492e-07
-5.29264e-06
1.23537e-07
1.36966e-05
1.58313e-05
-4.58144e-10
-1.32852e-07
1.588e-05
-9.06085e-10
-1.41273e-07
1.59423e-05
-1.96033e-09
-1.6448e-07
1.60053e-05
-3.24014e-09
-1.72166e-07
1.60613e-05
-4.79998e-09
-1.6301e-07
1.61052e-05
-6.99183e-09
-1.4024e-07
1.6135e-05
-1.01469e-08
-1.09447e-07
1.61517e-05
-1.41935e-08
-7.72748e-08
1.61589e-05
-1.8681e-08
-4.93985e-08
1.61606e-05
-2.31221e-08
-2.88835e-08
1.61603e-05
-2.73075e-08
-1.57949e-08
1.61597e-05
-3.13585e-08
-8.32827e-09
1.61597e-05
-3.55559e-08
-4.37789e-09
1.61604e-05
-4.01849e-08
-2.37061e-09
1.61616e-05
-4.5477e-08
-1.42869e-09
1.61632e-05
-5.16274e-08
-1.02169e-09
1.61652e-05
-5.88034e-08
-8.9654e-10
1.61671e-05
-6.72143e-08
-9.65539e-10
1.61688e-05
-7.71084e-08
-1.1394e-09
1.61702e-05
-8.87324e-08
-1.47525e-09
1.61716e-05
-1.02251e-07
-2.09064e-09
1.61735e-05
-1.17849e-07
-2.78678e-09
1.61768e-05
-1.35877e-07
-3.05742e-09
1.6182e-05
-1.56751e-07
-2.4251e-09
1.6189e-05
-1.80563e-07
-6.4463e-10
1.61972e-05
-2.07175e-07
1.94391e-09
1.62059e-05
-2.36736e-07
4.33349e-09
1.62149e-05
-2.69781e-07
5.50348e-09
1.62242e-05
-3.07272e-07
5.40984e-09
1.62335e-05
-3.50393e-07
4.75046e-09
1.62432e-05
-4.00276e-07
3.90641e-09
1.62535e-05
-4.58108e-07
3.31649e-09
1.62637e-05
-5.25037e-07
3.70547e-09
1.62726e-05
-6.02172e-07
5.25404e-09
1.62791e-05
-6.90608e-07
7.38825e-09
1.62822e-05
-7.91494e-07
9.40239e-09
1.62806e-05
-9.06222e-07
1.08964e-08
1.62724e-05
-1.03653e-06
1.18171e-08
1.62547e-05
-1.18439e-06
1.23189e-08
1.6223e-05
-1.3518e-06
1.25995e-08
1.61708e-05
-1.5407e-06
1.29742e-08
1.60892e-05
-1.75317e-06
1.30706e-08
1.59665e-05
-1.99021e-06
1.30943e-08
1.57886e-05
-2.25274e-06
1.15037e-08
1.55356e-05
-2.54051e-06
8.9538e-09
1.51823e-05
-2.85131e-06
4.62734e-09
1.4694e-05
-3.18017e-06
-2.54942e-09
1.4031e-05
-3.51762e-06
-1.42751e-08
1.31464e-05
-3.84905e-06
-3.47644e-08
-4.15414e-06
-7.15689e-08
1.19953e-05
1.58271e-05
2.66467e-08
-1.33018e-07
1.58759e-05
2.67403e-08
-1.41478e-07
1.59384e-05
2.90006e-08
-1.64611e-07
1.60013e-05
3.22364e-08
-1.72102e-07
1.6057e-05
3.41034e-08
-1.62824e-07
1.61005e-05
3.24933e-08
-1.40051e-07
1.61295e-05
2.65512e-08
-1.09474e-07
1.61453e-05
1.70967e-08
-7.76866e-08
1.6151e-05
6.04184e-09
-5.01609e-08
1.61507e-05
-4.74083e-09
-2.98246e-08
1.61475e-05
-1.41939e-08
-1.67532e-08
1.61437e-05
-2.21378e-08
-9.21371e-09
1.614e-05
-2.89335e-08
-5.1808e-09
1.61367e-05
-3.51287e-08
-3.15017e-09
1.61336e-05
-4.12419e-08
-2.20636e-09
1.61306e-05
-4.76887e-08
-1.8324e-09
1.61275e-05
-5.478e-08
-1.77e-09
1.6124e-05
-6.27722e-08
-1.91649e-09
1.612e-05
-7.18862e-08
-2.23712e-09
1.6115e-05
-8.23258e-08
-2.70777e-09
1.61088e-05
-9.43313e-08
-3.19783e-09
1.61012e-05
-1.0828e-07
-3.63898e-09
1.60922e-05
-1.24639e-07
-4.24765e-09
1.60819e-05
-1.43796e-07
-5.09078e-09
1.60699e-05
-1.65845e-07
-5.68836e-09
1.60561e-05
-1.90777e-07
-5.67183e-09
1.60404e-05
-2.18796e-07
-5.31375e-09
1.6023e-05
-2.50252e-07
-5.2489e-09
1.60037e-05
-2.85711e-07
-5.6094e-09
1.59817e-05
-3.26108e-07
-6.04379e-09
1.59566e-05
-3.72512e-07
-6.74021e-09
1.59274e-05
-4.25901e-07
-7.82731e-09
1.58927e-05
-4.86891e-07
-8.92735e-09
1.58502e-05
-5.56103e-07
-9.9043e-09
1.57977e-05
-6.34533e-07
-1.09687e-08
1.57333e-05
-7.23339e-07
-1.23587e-08
1.56549e-05
-8.23602e-07
-1.44139e-08
1.55598e-05
-9.36332e-07
-1.74952e-08
1.54445e-05
-1.06254e-06
-2.17366e-08
1.53042e-05
-1.2032e-06
-2.70455e-08
1.51329e-05
-1.35909e-06
-3.3281e-08
1.4923e-05
-1.53067e-06
-4.04579e-08
1.46655e-05
-1.71764e-06
-4.85583e-08
1.43491e-05
-1.91876e-06
-5.78565e-08
1.39603e-05
-2.1312e-06
-6.8479e-08
1.34825e-05
-2.34979e-06
-8.0647e-08
1.28954e-05
-2.56595e-06
-9.41456e-08
1.21748e-05
-2.76652e-06
-1.08942e-07
1.1293e-05
-2.93345e-06
-1.25052e-07
-3.04571e-06
-1.44013e-07
1.02221e-05
1.46693e-05
5.19112e-08
-1.28702e-07
1.47172e-05
5.32453e-08
-1.37206e-07
1.47771e-05
5.92609e-08
-1.58374e-07
1.4837e-05
6.58534e-08
-1.63183e-07