/*--------------------------------*- C++ -*----------------------------------*\
  =========                 |
  \\      /  F ield         | OpenFOAM: The Open Source CFD Toolbox
   \\    /   O peration     | Website:  https://openfoam.org
    \\  /    A nd           | Version:  6
     \\/     M anipulation  |
\*---------------------------------------------------------------------------*/
FoamFile
{
    version     2.0;
    format      ascii;
    class       volVectorField;
    location    "0";
    object      U;
}
// * * * * * * * * * * * * * * * * * * * * * * * * * * * * * * * * * * * * * //

dimensions      [0 1 -1 0 0 0 0];

internalField   nonuniform List<vector> 
918
(
(0.985803 0.00394264 0)
(-0.00400715 2.9674 0)
(0.000616175 1.63899 0)
(0.98079 -0.0020907 0)
(-0.00483198 1.60053 -6.89062e-22)
(0.00137209 2.951 -1.36939e-18)
(0.851355 1.1567 5.07145e-19)
(0.489403 0.217716 -5.48265e-21)
(0.999922 -0.000377268 0)
(0.0246967 1.16672 0)
(-0.00797408 1.33282 0)
(0.817051 -0.00669143 0)
(0.00892958 2.93484 0)
(0.00341051 2.7979 0)
(-0.000257863 3.20194 8.04658e-19)
(-0.00624304 1.51012 -1.13772e-20)
(0.588254 0.0882485 3.37664e-19)
(0.198964 1.15282 4.21357e-19)
(0.966264 0.00434702 0)
(0.00201157 1.47971 0)
(0.210686 0.264515 -2.94718e-19)
(1.00148 -0.0053723 0)
(1.00155 -0.00843699 0)
(0.977304 -0.00508005 0)
(0.741124 -0.0129773 0)
(0.0309223 2.63678 0)
(-0.0108815 2.91568 4.5537e-19)
(-0.0119419 1.6661 0)
(-0.012425 1.76445 0)
(-0.0145288 1.6628 0)
(-0.000518582 1.80847 0)
(0.00383559 1.61301 5.39447e-22)
(-0.00807958 1.52042 0)
(-0.0198018 2.98959 -4.79277e-23)
(-0.0137581 3.00796 1.07797e-18)
(0.0016338 2.99972 0)
(0.873804 -0.00629187 0)
(0.355553 0.896946 -3.29405e-20)
(0.855985 1.16975 -7.20571e-19)
(0.980978 1.04972 6.72857e-19)
(0.712505 1.25803 -1.16947e-19)
(0.745571 1.20047 6.63921e-19)
(0.523118 0.301062 5.34754e-21)
(0.522167 0.195226 0)
(1.20256 0.549648 0)
(0.482845 0.31622 2.50635e-20)
(0.440939 0.221776 -2.6018e-20)
(0.925153 -0.00394184 0)
(1.00032 -0.000232306 0)
(0.999905 0.000289302 0)
(1.00347 -0.00709028 0)
(1.0007 -0.00110568 0)
(1.00007 -6.92199e-05 0)
(0.0561428 1.56899 -3.52793e-19)
(-0.0109323 1.2564 0)
(0.0329184 1.07681 0)
(-0.0171101 1.35873 0)
(0.0203155 1.23668 0)
(-0.00570558 1.56449 0)
(-0.00708374 1.50626 0)
(0.00493762 1.33563 0)
(-0.018953 1.53001 0)
(-0.011111 1.35565 0)
(0.89466 0.00124451 0)
(0.899774 0.0097448 0)
(0.833491 0.00108926 0)
(0.890027 0.0149255 0)
(0.801473 -0.00812548 0)
(0.0137001 3.00359 4.93443e-19)
(0.0115214 3.00434 0)
(0.00740335 3.00385 0)
(0.0106248 2.99812 5.50668e-24)
(0.00616659 2.96199 -7.42491e-19)
(0.0117809 2.98459 0)
(0.00850177 2.90906 0)
(0.0212461 2.93307 9.96356e-25)
(0.00454356 2.82854 0)
(0.0271128 2.91991 0)
(6.88856e-05 2.74629 0)
(0.312331 3.60712 0)
(-0.127767 3.68935 0)
(0.151596 3.29291 -7.4566e-19)
(0.00581388 3.02306 0)
(-0.0104793 1.79069 0)
(-0.00273448 1.63939 1.12216e-20)
(-0.00770231 1.52526 -1.73919e-20)
(0.650923 0.157713 -1.16404e-19)
(0.610159 0.0578357 -1.11508e-19)
(0.613671 0.187247 -3.479e-19)
(0.564236 0.124082 -2.33608e-19)
(0.290587 1.05557 0)
(0.241321 1.22565 -4.17198e-19)
(0.337686 1.2241 6.89965e-19)
(0.989505 0.00787811 0)
(0.946644 0.00809861 0)
(0.999807 0.000846136 0)
(1.00371 0.00767394 0)
(1.00329 0.00882733 -5.7013e-19)
(0.992846 0.00713201 4.36691e-19)
(-0.0109958 1.59225 0)
(-0.00554428 1.46639 0)
(-0.0128653 1.6735 0)
(-0.0139863 1.62204 0)
(0.00308646 1.49728 0)
(0.239109 0.2907 9.04555e-20)
(0.294778 0.263501 0)
(0.994339 -0.00611404 0)
(0.955489 -0.00546784 0)
(0.866632 0.0182973 0)
(0.83222 0.0387722 0)
(0.778761 -0.00296773 0)
(1.02914 -0.00396645 0)
(0.786128 0.0460988 0)
(0.661814 -0.022181 4.32169e-19)
(-0.0344563 2.86704 2.56955e-19)
(0.0352885 2.91369 0)
(0.0452749 2.89013 0)
(0.00477685 2.7005 0)
(-0.00774393 2.98764 4.23066e-19)
(-0.012617 2.89889 0)
(-0.00981849 2.99263 -1.33019e-18)
(-0.00920303 2.93234 4.58324e-19)
(-0.00823781 1.81374 0)
(-0.00750451 1.80859 0)
(0.000460634 1.64068 -2.07735e-22)
(0.000458212 1.61525 0)
(-0.0105789 1.51194 0)
(0.934702 -0.00329802 0)
(0.867349 -0.0038835 0)
(0.869396 0.0121151 0)
(0.943842 -0.00208375 0)
(0.892624 -0.00503539 0)
(0.484319 1.09683 3.37533e-20)
(0.532462 1.17645 0)
(0.314621 0.814761 1.15236e-21)
(0.255147 0.681928 0)
(0.969142 1.06382 -1.98107e-19)
(1.08643 0.879771 4.03726e-19)
(0.419812 1.28835 0)
(0.616198 1.29167 0)
(0.547333 1.23593 0)
(0.131594 0.0873443 -6.06862e-20)
(0.555725 0.267802 0)
(0.538294 0.166021 6.78719e-20)
(1.04809 0.925346 0)
(1.12236 0.768452 0)
(1.15342 0.70368 -3.54485e-19)
(1.17989 0.611286 0)
(1.23732 0.393024 3.395e-20)
(0.95621 -0.00442371 0)
(0.963014 -0.00410668 0)
(0.907672 -0.00403801 0)
(0.985266 -0.00663265 0)
(0.977088 -0.00523576 0)
(0.940231 -0.00408897 0)
(0.999791 0.00240203 0)
(1.00092 0.00111543 0)
(1.00003 0.000641925 0)
(0.0532666 1.73639 1.92121e-19)
(0.103661 1.52554 0)
(0.0226382 1.75732 3.05506e-19)
(0.0319659 1.59568 -2.56632e-19)
(0.0992008 1.15544 -3.49832e-19)
(-0.00634984 1.16859 0)
(0.131372 1.02185 0)
(0.00392567 1.43127 0)
(0.0140919 1.28354 0)
(-0.013322 1.69126 -7.59443e-22)
(-0.0118224 1.59306 0)
(-0.00472791 1.67607 -3.50636e-20)
(0.00109521 1.56307 6.79076e-20)
(-0.0104562 1.47375 0)
(0.000491552 1.50159 0)
(0.00493702 1.30718 0)
(-0.0205636 1.55092 0)
(-0.0136669 1.38955 0)
(0.967854 0.0160509 0)
(0.915934 0.00769669 0)
(0.950959 0.00983359 0)
(0.885619 0.00302005 0)
(0.835094 -0.00637546 0)
(0.918759 0.000173881 0)
(0.910387 0.00734959 0)
(0.833447 -0.00402851 0)
(0.00856945 3.0647 -4.19623e-21)
(0.0144766 3.05731 0)
(0.0122633 2.97248 0)
(0.00744242 2.88074 0)
(0.911902 4.01418 0)
(1.21565 3.39032 7.59099e-19)
(0.0806871 3.1052 0)
(-0.0143877 2.92835 0)
(-0.0110886 1.79372 0)
(-0.0119072 1.79 0)
(-0.0112051 1.79147 0)
(-0.00339892 1.79869 2.52506e-21)
(-0.0105702 1.79417 0)
(-0.00467804 1.79163 0)
(-0.00429475 1.54923 2.03034e-22)
(-0.00593917 1.67016 2.25014e-20)
(-0.00652647 1.65606 1.77542e-20)
(-0.00592379 1.53364 0)
(0.683706 0.120137 1.70316e-19)
(0.635597 0.0290331 -1.66408e-19)
(0.179843 1.4054 0)
(0.342836 0.813768 -1.61007e-19)
(0.132582 1.48562 -5.10553e-19)
(0.248526 1.25842 5.09718e-19)
(0.91156 0.0113075 0)
(0.969651 0.011267 0)
(0.976345 0.0109244 0)
(0.929001 0.00849214 0)
(-0.0199927 1.56953 0)
(-0.0178793 1.58105 0)
(-0.0112997 1.42772 0)
(0.450838 0.33014 2.2783e-19)
(0.373608 0.304405 -2.78248e-19)
(0.390975 0.24853 0)
(1.14562 0.0864195 -5.57778e-21)
(1.13375 0.0411098 0)
(1.06176 0.0345462 0)
(0.976993 0.00512338 0)
(0.686174 0.0753129 0)
(0.71495 0.0350885 -7.04732e-19)
(0.628297 -0.00286274 2.76425e-19)
(0.0111544 2.98087 3.1491e-19)
(-0.0291167 2.86681 3.129e-20)
(0.00668587 3.05035 -9.04897e-21)
(0.015238 3.04136 3.45999e-19)
(-0.00971191 3.00015 1.52689e-20)
(-0.00878683 2.95413 -6.24108e-23)
(-0.0149886 3.0129 -2.92723e-19)
(0.0124495 3.02399 2.06442e-19)
(0.00612923 3.03165 -3.30791e-19)
(0.946154 0.008847 0)
(0.940211 0.00357633 0)
(0.870219 0.00184326 0)
(0.960212 0.0124881 0)
(0.947331 0.0155014 0)
(0.891842 0.00935252 0)
(0.922446 0.00178281 0)
(0.93045 0.011552 0)
(0.844184 0.000208213 0)
(0.676503 1.4157 2.20529e-19)
(0.701068 1.53131 0)
(0.182437 0.376123 1.12138e-20)
(0.159776 0.495765 8.77629e-20)
(0.216678 0.624362 -4.93725e-20)
(0.184944 0.51809 8.91222e-20)
(0.294615 0.640704 3.65953e-19)
(0.151147 0.137342 1.24793e-19)
(0.597083 0.219638 2.51421e-19)
(0.576665 0.240158 6.13714e-20)
(0.556314 0.148505 1.24855e-19)
(1.22607 0.454328 2.32931e-19)
(1.24526 0.249689 2.42099e-19)
(0.011373 1.75508 1.18351e-19)
(0.0213559 1.61197 0)
(1.01543 0.02811 0)
(0.984311 0.0198317 0)
(0.941633 0.000640022 0)
(0.0108964 3.07303 0)
(0.0170795 2.94583 5.80918e-19)
(0.0141148 2.95892 0)
(0.0058989 2.85402 -5.78024e-19)
(0.00765856 3.08773 1.36625e-19)
(0.010809 3.08014 0)
(0.720971 1.82803 -1.70987e-19)
(1.25949 2.62267 5.66106e-19)
(0.703748 2.00012 -1.1405e-18)
(0.0233204 2.98411 -2.37907e-19)
(0.0420463 3.01112 0)
(-0.0316047 2.88769 0)
(0.0034606 1.6589 -2.71282e-21)
(-0.00259216 1.67382 -4.86954e-20)
(0.00174214 1.55834 -4.36812e-21)
(0.238774 1.28577 4.77658e-19)
(0.308631 0.528086 -3.26848e-19)
(0.068659 1.66649 3.41017e-19)
(0.1062 1.59106 -4.17698e-19)
(0.14647 1.40161 5.16676e-20)
(0.00324178 3.11827 -8.01877e-19)
(0.0178615 3.11726 8.89109e-19)
(-0.00435808 2.98263 3.73655e-19)
(-0.000691389 2.97815 -3.38153e-19)
(-0.0147655 2.88242 -3.80677e-19)
(0.0119892 3.0979 -1.0033e-18)
(0.00590994 3.10251 9.9995e-19)
(0.179502 0.547221 0)
(0.110611 0.455677 -1.81432e-19)
(0.146409 0.150029 7.8231e-20)
(0.304145 0.767769 3.6862e-19)
(0.227396 0.183035 -5.64131e-19)
(1.23077 0.169334 -5.39815e-20)
(1.24023 0.307742 0)
(1.22397 0.112915 9.79799e-20)
(-0.0104267 1.72862 -9.32329e-22)
(9.04893e-05 1.74057 0)
(0.00209412 1.60225 0)
(0.332922 1.16522 -1.5377e-19)
(0.361665 1.0035 -3.31699e-19)
(0.241784 0.302519 5.49569e-19)
(1.00513 -0.0110519 0)
(1.00675 -0.00738417 1.05057e-19)
(-0.0074369 1.80212 0)
(-0.0137584 1.81024 0)
(1.00174 0.00310443 1.10605e-21)
(1.00293 0.00837294 2.13549e-19)
(-0.00494421 1.80277 -3.35552e-21)
(-0.00410913 1.80116 0)
(0.0477599 3.18026 1.15614e-19)
(0.384753 3.55671 0)
(1.06752 0.684865 5.1927e-20)
(1.01049 0.0104933 -1.45933e-21)
(1.01678 -0.0151388 0)
(1.00163 0.00029683 4.34388e-23)
(-0.192661 1.44568 0)
(-0.0387504 2.12421 0)
(-0.0226607 1.7821 0)
(-0.0395404 1.85984 4.81743e-20)
(-0.00474833 1.82866 2.90824e-20)
(1.00309 0.00983907 1.18574e-21)
(1.04679 0.013331 0)
(1.0796 0.032695 0)
(-0.0118296 1.79057 0)
(-0.00875535 1.81171 0)
(-0.0190951 1.79611 0)
(0.256642 1.17079 -2.86064e-19)
(1.00827 -0.00910726 0)
(1.01033 -0.0134297 0)
(1.00237 0.000256193 1.3172e-19)
(1.00559 -0.00560036 -1.57809e-19)
(1.00093 -0.000836067 0)
(-0.0134685 1.78969 0)
(-0.0107022 1.79431 0)
(-0.0109193 1.79451 0)
(-0.0162476 1.79873 0)
(-0.0129866 1.79489 0)
(-0.0162404 1.79845 0)
(1.01934 -0.00192968 0)
(1.02356 0.0118952 -1.05305e-21)
(0.76416 1.27962 3.64527e-19)
(1.00285 0.000458974 -1.31546e-19)
(1.00321 0.00389231 1.59931e-19)
(1.00132 0.00196997 0)
(1.01076 0.00966117 1.26727e-19)
(1.0076 0.00958202 -1.60693e-19)
(1.00892 0.0118967 0)
(-0.00702093 1.81268 0)
(-0.00546407 1.80867 8.69888e-21)
(-0.00619774 1.80819 -5.88628e-21)
(1.18466 0.264586 -1.12255e-19)
(1.11965 0.0826657 0)
(0.059442 3.08583 -3.8471e-19)
(0.0529324 2.86477 -2.94689e-20)
(0.121598 3.20445 4.91456e-19)
(0.130383 3.22078 -3.90107e-20)
(0.149197 3.26417 0)
(0.0256679 3.13748 9.32905e-20)
(0.0726226 3.16195 3.78128e-19)
(0.0702579 3.18413 -1.78742e-19)
(0.0313883 3.12544 0)
(0.704033 0.336274 0)
(0.637061 0.401126 0)
(1.06589 0.711246 -1.93657e-19)
(1.03134 0.863346 2.94312e-19)
(1.12287 0.593432 0)
(1.15443 0.548608 0)
(1.01409 0.0100689 -2.37935e-19)
(1.01315 0.00863311 2.96489e-19)
(1.01953 -0.0150935 0)
(1.01243 -0.022216 0)
(1.00787 0.00145271 0)
(1.01015 0.00224673 0)
(1.00378 0.0032192 0)
(1.00857 0.00760013 0)
(1.00671 0.00527068 0)
(1.00364 0.00491786 0)
(-0.173228 1.47368 0)
(-0.15079 1.5372 0)
(-0.188779 1.4007 0)
(-0.120548 1.35109 0)
(-0.0839255 2.19665 0)
(0.024409 2.2077 -2.02107e-19)
(-0.030551 2.11661 0)
(-0.0235589 2.03462 1.00285e-19)
(-0.0289043 1.93405 -9.12199e-20)
(-0.0205158 1.78468 0)
(-0.0191285 1.78689 0)
(-0.0340581 1.77059 0)
(-0.0290174 1.74036 0)
(-0.0606608 1.82753 -2.87266e-20)
(-0.0192607 1.83809 3.99457e-20)
(-0.0388966 1.85831 4.79677e-20)
(-0.0204618 1.84592 0)
(-0.0033081 1.82941 -6.34679e-20)
(-0.00332459 1.82497 -3.48311e-20)
(-0.0560859 1.82239 2.24122e-20)
(-0.0303777 1.83171 -5.15292e-20)
(-0.0393674 1.84234 -6.12844e-20)
(1.01015 0.0161162 2.33333e-19)
(1.01008 0.00570766 -2.87946e-19)
(1.00623 0.0180434 -2.45184e-19)
(0.995224 0.0163341 3.14118e-19)
(1.04154 0.0206404 0)
(1.04166 0.011562 0)
(1.06239 0.0360456 0)
(1.05169 0.0240878 0)
(1.05756 0.0136679 0)
(1.10322 0.0734635 0)
(1.07901 0.0505886 0)
(1.09969 0.0397922 0)
(-0.00931128 1.80391 -1.01763e-21)
(-0.0121788 1.79415 0)
(-0.0101919 1.79739 0)
(-0.0101185 1.81555 1.05466e-20)
(-0.0129047 1.81485 -4.77159e-22)
(-0.015296 1.78946 1.00472e-20)
(-0.014878 1.79089 -1.02049e-20)
(-0.0168634 1.79484 0)
(-0.0140046 1.79517 0)
(-0.0136592 1.79515 0)
(-0.0200129 1.79576 0)
(-0.022197 1.79483 0)
(0.436672 1.26863 6.0638e-19)
(0.389791 1.36865 2.18812e-19)
(0.612639 2.45592 -1.14794e-19)
(0.285863 2.46162 2.99325e-19)
(0.544433 2.38371 -1.35405e-19)
(1.0171 -0.010953 0)
(1.01633 -0.00924239 0)
(1.01713 -0.0136957 0)
(1.00894 -0.000614873 0)
(1.00442 -0.000825454 0)
(1.00697 -0.0042082 0)
(1.01011 -0.00481851 0)
(1.01137 -0.00487849 0)
(1.02194 0.0127745 2.25723e-19)
(1.0129 0.0158821 -2.90007e-19)
(1.02577 0.00868588 -2.24879e-19)
(1.02322 0.00804927 2.82779e-19)
(0.743921 1.30269 0)
(0.649469 1.37573 4.34105e-19)
(0.856559 1.20671 2.55749e-19)
(0.867979 1.2037 -3.39589e-19)
(1.12795 2.62527 -3.92166e-19)
(0.829959 0.105848 1.69594e-19)
(1.12599 0.0976593 0)
(1.16557 0.171778 9.38592e-20)
(1.15004 0.156099 4.06673e-21)
(0.972498 0.132192 0)
(0.108677 3.02648 -5.60886e-20)
(0.108718 2.90149 -4.46906e-19)
(0.0503803 2.34382 3.02776e-19)
(0.181565 0.0734861 -1.32458e-19)
(0.353907 3.45632 -3.24601e-19)
(0.202638 3.34576 0)
(0.231324 3.40853 4.22629e-19)
(0.242968 3.08351 -1.31698e-19)
(0.280879 3.20627 0)
(0.00847506 3.11942 2.04094e-20)
(0.0184658 3.12874 -2.54741e-19)
(0.0177618 3.12448 3.74229e-19)
(0.0385108 3.13797 0)
(0.0366724 3.14955 0)
(1.24871 2.60188 0)
(0.506966 0.821203 -1.3157e-19)
(0.951767 1.03022 -1.45361e-19)
(0.953744 1.06888 0)
(0.810938 0.960955 5.03623e-20)
(1.02184 0.901403 1.78207e-20)
(0.428517 0.458169 -3.27721e-19)
(0.72601 0.32186 -1.71937e-20)
(0.716394 0.295517 1.30745e-19)
(0.635167 0.425061 1.05545e-20)
(0.573327 0.420563 -4.38763e-19)
(0.701551 0.352548 0)
(0.689673 0.43867 2.24573e-19)
(0.694531 0.437084 0)
(0.680505 0.404763 0)
(0.681786 0.355936 0)
(0.722247 0.619652 5.78499e-20)
(1.18332 0.285158 8.30209e-20)
(1.17473 0.421122 0)
(1.17032 0.39808 0)
(0.77237 0.216792 1.96298e-19)
(0.763102 0.521035 -1.07959e-19)
(0.692223 0.496221 1.72287e-19)
(0.890777 0.405117 -1.40942e-19)
(1.01567 0.0116175 1.56324e-19)
(1.01465 0.00753961 -1.60895e-19)
(1.00869 0.0088561 0)
(1.01717 -0.00615885 0)
(1.01742 -0.0164584 -1.39892e-19)
(1.00778 -0.0228927 1.38444e-19)
(1.03378 0.00740991 0)
(1.02791 0.0107933 0)
(1.01323 0.0046183 0)
(1.01372 0.00765303 0)
(1.01838 -0.000768606 0)
(1.01554 -0.00209429 0)
(-0.122124 1.59249 0)
(-0.0879406 1.63041 0)
(-0.274178 1.3693 1.30274e-19)
(0.218375 1.22412 1.66769e-19)
(-0.063743 1.28774 3.51902e-19)
(0.0791961 1.20802 -5.75399e-19)
(-0.179182 1.3755 0)
(-0.386867 1.98273 2.17923e-19)
(-0.373505 1.92896 0)
(0.349906 2.45099 1.97491e-19)
(0.122108 2.54883 1.19837e-19)
(-0.362298 1.92341 -1.91633e-19)
(0.135543 1.13285 1.93873e-19)
(-0.159532 1.34094 -1.53541e-19)
(0.178329 1.1604 5.43968e-19)
(-0.130127 1.92159 0)
(0.108439 1.98944 -3.97725e-19)
(-0.112924 1.89735 -1.84475e-20)
(-0.0282267 1.95235 0)
(-0.106363 1.95494 8.42987e-20)
(-0.092042 1.92009 0)
(-0.0231408 2.01087 -1.09321e-19)
(-0.0202099 1.98222 0)
(-0.0545666 1.79417 -2.08266e-20)
(-0.0707409 1.80248 0)
(-0.0750177 1.76589 0)
(-0.059556 1.78216 2.34342e-20)
(-0.0426357 1.87338 -3.62085e-21)
(-0.0329232 1.91864 1.07167e-19)
(-0.0337345 1.89885 7.42548e-22)
(-0.026763 1.81359 1.83259e-20)
(-0.0348133 1.80831 1.2324e-20)
(-0.0212587 1.78754 0)
(-0.0231741 1.78704 0)
(-0.110354 1.84742 4.8441e-20)
(-0.104835 1.76896 3.17694e-20)
(-0.100488 1.80726 -4.57772e-20)
(-0.150295 1.86953 0)
(-0.0126104 1.80842 -3.51357e-20)
(-0.0125778 1.8148 1.55044e-20)
(-0.0142411 1.81347 -5.16986e-21)
(-0.0205497 1.81451 -2.22163e-20)
(-0.0138948 1.81727 -8.249e-21)
(-0.0119735 1.82273 4.17369e-20)
(1.02387 0.00645961 -1.50249e-19)
(1.01876 0.0110308 1.53018e-19)
(1.01912 0.00612818 0)
(0.997945 0.0439198 2.19117e-19)
(0.995286 0.0312207 -2.62937e-19)
(0.969221 0.0269685 3.07514e-19)
(0.989683 0.0843507 -2.86476e-20)
(1.02198 0.00226741 0)
(1.03274 0.010002 1.2498e-19)
(1.02608 0.00452643 -1.22203e-19)
(1.03727 0.0422317 -6.57296e-21)
(1.04098 0.0261619 5.81291e-20)
(1.02676 0.0555101 0)
(1.02078 0.0464018 -2.26054e-20)
(1.01998 0.022036 0)
(1.0185 0.0222658 0)
(1.03447 0.00993763 0)
(1.0289 0.00856308 0)
(1.02753 0.0228715 4.67422e-20)
(1.02885 0.0184325 -1.08083e-19)
(1.02936 0.0281212 -4.59793e-20)
(1.03047 0.0319717 -5.49731e-20)
(1.02217 0.0557588 9.29729e-20)
(1.05507 0.0513886 0)
(1.04604 0.0844563 0)
(-0.0122324 1.80893 -1.39332e-20)
(-0.0124872 1.79796 -1.20732e-21)
(-0.0136614 1.79697 0)
(-0.00838986 1.80937 1.40524e-20)
(-0.00949187 1.80503 2.13361e-21)
(-0.00842175 1.80855 -2.3651e-21)
(-0.00645558 1.82303 3.09895e-20)
(-0.0151286 1.81596 -1.86227e-21)
(-0.0141423 1.81634 8.90638e-21)
(-0.0128432 1.81843 -1.6597e-20)
(-0.0106582 1.81835 1.98971e-20)
(-0.0169739 1.79023 2.50297e-22)
(-0.0167232 1.7916 1.59118e-20)
(0.506775 1.15637 -3.31689e-19)
(0.515735 1.31731 -5.23071e-19)
(0.646938 1.40369 -4.18792e-19)
(0.532447 1.41525 -2.10602e-19)
(0.524022 1.43461 0)
(0.646501 2.41253 7.63717e-20)
(0.686265 2.41202 1.44148e-19)
(0.339109 2.54337 6.42984e-20)
(0.300842 2.66309 -6.70677e-20)
(0.434462 2.61246 1.1858e-19)
(0.538977 2.48989 0)
(0.51868 2.45726 -2.43673e-19)
(0.000151712 2.35248 5.19401e-19)
(0.189814 2.4676 -3.86057e-20)
(0.147399 2.3563 -6.80565e-19)
(0.928017 2.35262 7.98124e-20)
(0.833405 2.35614 0)
(1.01015 -0.000849064 5.14543e-21)
(1.01196 -0.00425961 -4.35994e-21)
(1.01299 -0.00744179 -7.58262e-20)
(1.01334 -0.00914142 7.68314e-20)
(1.01322 -0.00371998 0)
(0.661825 1.28059 0)
(0.642593 1.17112 0)
(0.754853 1.05406 0)
(0.624108 1.11526 0)
(1.16683 2.64298 2.85721e-20)
(1.03728 2.36948 0)
(0.76481 2.26182 -1.28808e-21)
(0.851433 2.4714 0)
(0.901872 2.55782 -1.76927e-20)
(0.891417 2.50954 1.17877e-20)
(0.822946 0.126143 0)
(0.80053 0.153712 5.03205e-20)
(0.898804 0.124019 2.46981e-19)
(0.863921 0.105768 -1.0233e-19)
(0.861319 0.0783173 -2.9941e-19)
(1.02023 0.219284 -1.10967e-19)
(0.942211 0.258867 -7.74868e-21)
(0.896587 0.276989 2.13633e-19)
(0.973097 0.212494 1.5506e-19)
(0.923146 0.163265 -3.02852e-19)
(0.880964 0.181197 4.03218e-20)
(0.909558 0.267811 -7.2967e-20)
(0.884156 0.197554 0)
(0.977879 0.174699 1.42182e-19)
(1.00257 0.168138 0)
(1.00391 0.195301 0)
(1.06717 0.095406 3.47593e-20)
(1.01138 0.151063 -6.63171e-21)
(1.00646 0.222812 -2.3451e-20)
(1.03676 0.183835 0)
(1.01309 0.0217852 1.15302e-19)
(1.0166 0.0405965 1.32996e-19)
(1.01762 0.0263345 -1.13878e-19)
(1.01069 0.0455866 -8.97201e-20)
(1.00073 0.0476626 -1.5488e-19)
(0.976096 0.134578 0)
(0.985425 0.0815547 0)
(0.969594 0.0480301 -1.11984e-19)
(0.928238 0.0593153 4.82313e-20)
(0.995488 0.081261 1.27532e-19)
(1.0185 0.0935671 -1.12866e-19)
(1.0155 0.132456 1.08213e-19)
(1.00136 0.120893 0)
(1.02835 0.0901666 0)
(1.01532 0.0756419 -5.02436e-20)
(1.01394 0.0742701 -1.00889e-19)
(0.556163 1.11367 -8.7196e-20)
(0.609259 1.53834 1.44289e-19)
(1.12157 2.78014 9.72079e-20)
(1.196 3.13568 -5.78891e-20)
(1.23087 2.75605 4.16667e-19)
(1.28254 2.72878 -2.1388e-19)
(1.24435 2.34012 -1.52809e-20)
(1.17933 3.04191 1.85648e-19)
(1.18943 2.9993 -2.11148e-19)
(1.18305 3.28528 -1.92978e-19)
(1.39678 2.99746 2.31698e-19)
(1.41316 2.92957 0)
(0.525791 0.832224 -4.59968e-21)
(0.243312 1.27283 1.82159e-19)
(0.478527 0.543192 2.12472e-19)
(0.327685 0.320476 2.51216e-19)
(0.563977 0.444492 2.45676e-19)
(0.536812 0.514037 -3.84869e-19)
(0.539279 0.519088 3.19895e-19)
(0.516535 0.482296 -1.2784e-19)
(0.489103 0.431663 2.97601e-19)
(0.778087 0.247956 -1.08753e-19)
(0.742516 0.296294 0)
(0.746504 0.249599 7.9915e-21)
(0.683193 0.526463 1.13428e-19)
(0.645978 0.504175 -4.22362e-19)
(0.613263 0.49555 1.56967e-20)
(0.630425 0.477527 0)
(0.658391 0.737876 7.29552e-20)
(0.738672 0.78301 2.76346e-20)
(0.696669 0.841726 -3.74474e-20)
(0.798246 0.788238 -1.9148e-21)
(0.873581 0.834909 1.37833e-20)
(0.87369 0.839505 -1.41654e-20)
(0.795085 0.635906 -1.00506e-19)
(0.875872 0.698438 1.78374e-21)
(0.936105 0.707373 0)
(0.929128 0.682331 7.50424e-21)
(0.968685 0.305738 2.8262e-20)
(1.07768 0.295799 -2.35777e-20)
(1.00175 0.265039 4.44073e-20)
(0.941013 0.33394 -7.1792e-20)
(0.973623 0.421653 0)
(1.056 0.389357 0)
(0.875663 0.342545 5.96418e-21)
(0.834824 0.272362 0)
(0.837316 0.262231 1.15705e-19)
(0.894483 0.273808 1.03091e-21)
(0.881215 0.414215 3.84977e-19)
(0.812014 0.490477 9.88216e-20)
(0.831669 0.442751 -1.35904e-19)
(0.787779 0.419537 1.45081e-19)
(0.763397 0.415409 1.05122e-19)
(0.76801 0.411317 -1.01936e-19)
(1.02017 -0.00889777 1.20926e-19)
(1.0228 -0.00932153 0)
(1.01953 -0.0111051 8.18163e-20)
(1.01872 -0.0119097 -1.81319e-19)
(1.03301 -0.000139955 8.8519e-20)
(1.02964 0.00784227 -1.87205e-19)
(1.02672 0.0115085 0)
(1.0229 0.0132962 -3.91967e-20)
(1.02315 0.00230243 9.78903e-20)
(1.01942 0.0104989 -4.99899e-20)
(1.02318 0.0113923 3.69803e-20)
(-0.0508702 1.72665 0)
(-0.078808 1.75448 0)
(-0.0728869 1.67292 0)
(-0.0535607 1.68935 0)
(-0.248236 1.69021 -1.08351e-19)
(-0.249585 1.55558 3.21982e-20)
(-0.336886 1.93757 1.49732e-20)
(-0.416951 1.69766 -9.58851e-20)
(-0.137823 1.77185 -1.51003e-20)
(-0.155393 1.76585 9.80006e-21)
(-0.198689 1.67261 1.79336e-20)
(-0.173587 1.68776 3.50442e-20)
(-0.115695 1.71505 2.8893e-21)
(-0.108082 1.73673 -9.88027e-22)
(-0.147978 2.03772 -8.8302e-20)
(-0.163002 2.10484 0)
(-0.306812 2.1483 9.36103e-21)
(-0.341439 1.9731 2.2169e-21)
(-0.225187 2.29531 3.0584e-20)
(-0.152388 2.46705 0)
(-0.0849539 2.49151 -6.81253e-20)
(-0.00941997 2.54256 4.84061e-20)
(-0.289325 2.24495 2.72959e-20)
(-0.307446 2.21157 -4.91285e-20)
(-0.23439 2.3323 0)
(-0.0859802 1.8361 -6.39236e-20)
(-0.0729018 1.84148 -9.45217e-20)
(-0.074756 1.83318 0)
(-0.0770115 1.87813 -2.93931e-21)
(-0.0933032 1.87713 3.40855e-20)
(-0.0250116 1.79573 3.73754e-21)
(-0.0213056 1.79635 -5.69029e-20)
(-0.0239438 1.79921 1.26694e-20)
(-0.0287858 1.79798 2.2784e-20)
(-0.0393049 1.79794 0)
(-0.0231671 1.79879 0)
(-0.0271915 1.79147 1.76149e-20)
(-0.0262628 1.79389 -5.57446e-21)
(-0.026122 1.79612 0)
(-0.0264139 1.78776 1.33805e-20)
(-0.0256708 1.78864 -2.63063e-20)
(1.03001 0.0202541 0)
(1.03466 0.0208108 -1.14691e-20)
(1.03309 0.0188902 -8.5778e-20)
(1.03293 0.0210423 0)
(1.03263 0.0242304 0)
(1.03482 0.0133163 -3.59384e-21)
(1.03433 0.0123289 1.43754e-19)
(1.03014 0.0117478 1.75001e-19)
(1.02871 0.00985841 0)
(1.02346 0.0085033 0)
(1.02681 0.0176391 8.71033e-20)
(1.02182 0.0137741 0)
(1.02302 0.0118306 0)
(-0.0172897 1.80874 0)
(-0.0178758 1.79277 1.20104e-21)
(-0.0171461 1.80147 7.68133e-21)
(-0.0263866 1.7943 0)
(-0.0207842 1.79453 1.04544e-20)
(-0.0192665 1.79254 -5.33287e-21)
(-0.0235749 1.79223 0)
(0.646744 1.63094 0)
(0.56167 1.33989 7.76024e-19)
(0.523779 1.64364 0)
(0.651168 1.28352 -8.02927e-19)
(0.571573 1.30628 0)
(0.616403 1.24676 3.50052e-19)
(1.01887 2.68615 -2.14204e-21)
(0.952546 2.36686 -9.7841e-20)
(0.861914 2.09784 1.6605e-19)
(0.845865 2.3411 5.99341e-20)
(0.880215 2.49187 0)
(0.894469 2.49949 0)
(0.903823 2.34761 0)
(0.901811 2.30462 -2.23174e-19)
(0.764626 2.49061 1.34195e-20)
(0.859723 2.47635 -1.08262e-20)
(0.84877 2.45484 8.65828e-21)
(0.720098 2.38393 0)
(0.799344 2.3601 0)
(0.773076 2.38687 -1.31642e-19)
(0.828778 2.47434 0)
(0.572616 1.05732 0)
(0.503082 0.902184 2.14689e-20)
(0.51323 0.950346 2.21798e-21)
(0.49134 1.06021 0)
(0.503178 1.00061 -3.31401e-20)
(0.724127 0.864982 1.75458e-20)
(0.755832 0.993712 0)
(0.738842 0.980193 -6.02898e-20)
(0.643388 0.985182 0)
(0.608422 0.921815 0)
(1.13167 2.79533 5.16993e-20)
(1.10625 2.85789 9.59934e-20)
(0.895804 2.40972 -2.15677e-19)
(0.87731 2.3934 2.98334e-20)
(1.09744 2.75895 0)
(1.04948 2.72821 -3.68682e-20)
(1.0649 2.49569 -2.74413e-20)
(0.93953 2.21363 -1.62696e-20)
(0.465484 1.42743 0)
(0.45835 1.10551 7.62825e-20)
(0.51932 1.18676 0)
(0.840932 0.217954 0)
(0.805218 0.171164 0)
(0.776916 0.193975 0)
(0.831002 0.222368 -1.82888e-19)
(0.786168 0.223032 1.14726e-19)
(0.929081 0.0567697 -9.73698e-20)
(0.936861 0.105108 0)
(0.923533 0.110051 4.58537e-20)
(0.885375 0.073548 1.89345e-19)
(0.886089 0.062981 -1.16287e-19)
(1.11128 3.37948 -6.64948e-19)
(1.17308 3.30307 0)
(1.13388 3.45347 -1.40636e-18)
(0.67117 3.60057 1.20413e-18)
(1.02042 3.11026 2.93999e-19)
(0.504894 0.834572 1.11179e-19)
(0.493645 0.814721 0)
(0.389083 0.559443 -4.88912e-20)
(0.398697 0.687187 2.14907e-19)
(0.498843 0.54321 -6.85104e-20)
(0.49493 0.55869 7.64096e-20)
(0.629749 0.550921 1.52973e-19)
(0.64676 0.573115 0)
(0.580733 0.626136 0)
(0.5559 0.568946 0)
(0.918798 0.582722 -4.13776e-20)
(0.851248 0.524534 -9.42095e-20)
(0.886495 0.575324 2.31206e-20)
(0.913568 0.483141 -6.5911e-20)
(0.992422 0.455028 0)
(1.01599 0.565972 4.41906e-21)
(0.829303 0.368158 -2.25836e-19)
(0.820922 0.356726 -2.69632e-19)
(0.819005 0.363138 1.75831e-19)
(0.798692 0.337197 -2.07552e-19)
(0.82654 0.291314 -1.52919e-19)
(0.800887 0.295831 1.87866e-19)
(1.03643 0.00151079 -9.1957e-20)
(1.03679 0.00350551 1.88839e-19)
(1.02219 -0.00103809 1.15226e-19)
(1.02708 0.00236802 -1.389e-19)
(1.03144 0.0179762 0)
(1.0347 0.0131063 -2.26542e-19)
(-0.156871 1.87646 1.99362e-20)
(-0.178775 1.87145 0)
(-0.249341 1.94948 -6.86233e-21)
(-0.299784 1.97069 1.41601e-20)
(-0.301255 1.9249 -2.82638e-20)
(-0.263331 1.91704 0)
(-0.0158275 1.80954 0)
(-0.0232308 1.80225 -5.95034e-21)
(-0.0228843 1.798 5.32332e-21)
(-0.0219836 1.79754 1.33703e-21)
(-0.0175362 1.80785 -1.02987e-20)
(-0.0148461 1.80879 6.85396e-21)
(0.525716 1.41561 2.54473e-19)
(0.573402 1.42815 -2.69702e-19)
(0.602983 1.29809 3.42743e-19)
(0.710049 1.39502 -1.65651e-20)
(0.639168 1.29564 0)
(0.608956 1.34458 3.95952e-19)
(0.615579 1.36631 -3.90841e-19)
(0.595901 1.27622 -3.42633e-19)
(0.586177 1.28163 0)
(0.553816 1.26319 0)
(0.832128 2.52102 -2.02514e-20)
(0.743524 2.51196 2.96255e-19)
(0.82518 2.50748 -2.01048e-19)
(0.736105 2.51995 -6.87433e-20)
(0.627015 2.71131 -9.98255e-21)
(0.487473 2.73041 -6.41822e-20)
(0.957491 2.33997 -9.45009e-20)
(0.988839 2.38185 0)
(0.873103 2.10592 -1.03883e-19)
(1.02301 2.70881 0)
(1.01475 2.68532 0)
(0.622748 2.32764 2.62021e-19)
(1.10683 3.10197 3.22333e-19)
(0.996794 3.00828 -3.6654e-19)
(0.328474 0.937652 0)
(0.372624 0.847267 -8.16703e-20)
(0.549007 0.754457 -2.556e-20)
(0.400208 2.16995 0)
(0.415062 2.7658 -2.06477e-19)
(0.438002 2.51325 0)
(0.654161 0.690885 -1.51963e-19)
(0.704229 0.668549 2.16072e-19)
(0.703078 0.641829 -2.15151e-19)
(0.603963 0.660268 -2.41792e-20)
(0.675035 0.613878 -1.025e-19)
(0.980971 2.78479 -2.43543e-19)
(1.01344 2.80582 2.26067e-19)
(0.596686 2.28331 -1.37813e-19)
(0.6071 1.7576 6.12457e-20)
(0.717784 1.94301 1.0871e-19)
(0.976922 2.45663 -4.61868e-20)
(0.975023 2.44223 -1.36712e-19)
(0.671232 1.88767 -5.50183e-21)
(0.465687 1.39735 -7.54916e-20)
)
;

boundaryField
{
    wall-4
    {
        type            noSlip;
    }
    velocity-inlet-5
    {
        type            fixedValue;
        value           uniform (1 0 0);
    }
    velocity-inlet-6
    {
        type            fixedValue;
        value           uniform (0 3 0);
    }
    pressure-outlet-7
    {
        type            zeroGradient;
    }
    wall-8
    {
        type            noSlip;
    }
    frontAndBackPlanes
    {
        type            empty;
    }
}

