/*--------------------------------*- C++ -*----------------------------------*\
  =========                 |
  \\      /  F ield         | OpenFOAM: The Open Source CFD Toolbox
   \\    /   O peration     | Website:  https://openfoam.org
    \\  /    A nd           | Version:  6
     \\/     M anipulation  |
\*---------------------------------------------------------------------------*/
FoamFile
{
    version     2.0;
    format      ascii;
    class       volVectorField;
    location    "0";
    object      U_rec;
}
// * * * * * * * * * * * * * * * * * * * * * * * * * * * * * * * * * * * * * //

dimensions      [0 1 -1 0 0 0 0];

internalField   nonuniform List<vector> 
918
(
(0.984801 -0.00507425 0)
(-0.0111339 2.99784 0)
(-0.0143471 1.67857 0)
(0.978585 0.00629398 0)
(-0.00697407 1.63911 7.14608e-17)
(0.00344209 2.98952 -3.00208e-17)
(0.954973 1.49756 5.46643e-18)
(0.432467 0.214758 3.4252e-19)
(0.995116 0.00105227 0)
(0.0256793 1.29115 0)
(-0.0076945 1.47581 0)
(0.869396 -0.00507281 0)
(-0.00297198 3.00444 0)
(0.0050987 2.91474 0)
(-0.000735081 2.83913 2.32471e-17)
(-0.00658341 1.60835 4.3053e-17)
(0.628874 0.128016 -2.63001e-18)
(0.160448 1.59932 -4.57132e-17)
(0.98488 0.00215865 0)
(-0.000512989 1.55236 0)
(-0.0915429 -0.069349 8.62732e-18)
(0.98621 0.0122717 0)
(1.00831 0.0152847 0)
(1.02384 -0.000588064 0)
(0.780958 -0.010034 0)
(0.0148216 2.99751 0)
(-0.00370559 2.94781 -1.17813e-16)
(-0.0245354 1.70153 0)
(-0.00264557 1.75347 0)
(-0.0206859 1.69629 0)
(-0.0173681 1.80353 0)
(-0.0142618 1.65733 7.10994e-17)
(-0.00789256 1.61 0)
(0.0111873 3.02026 9.42548e-22)
(0.0128704 3.02879 -7.42263e-17)
(0.0270751 3.01546 0)
(0.937135 -0.00407914 0)
(0.643027 1.18598 -1.51406e-17)
(0.987472 1.49937 -1.47712e-17)
(1.10077 1.32142 3.24489e-17)
(0.837143 1.63267 1.18374e-17)
(0.792553 1.62113 1.96067e-17)
(0.451299 0.289841 3.86522e-20)
(0.489029 0.209005 0)
(1.26976 0.688756 0)
(0.376533 0.304373 -7.8424e-20)
(0.356877 0.202992 1.28796e-18)
(0.960844 -0.00447123 0)
(0.998678 0.00310086 0)
(0.995151 0.00375447 0)
(0.993558 0.00642787 0)
(0.980464 0.0102976 0)
(0.995745 0.0157569 0)
(0.00961669 1.68071 6.83902e-18)
(0.0489126 1.36446 0)
(0.0491663 1.34665 0)
(0.00814121 1.33321 0)
(-0.00507988 1.29019 0)
(0.00650851 1.64626 0)
(-0.0124186 1.53369 0)
(-0.0187097 1.44242 0)
(-0.0148769 1.57405 0)
(-0.00739287 1.4999 0)
(0.943126 0.00196987 0)
(0.917212 0.01351 0)
(0.882915 -0.00155181 0)
(0.90806 0.015116 0)
(0.853211 -0.00338769 0)
(-0.0294571 3.05459 2.90276e-17)
(-0.00226856 2.96582 0)
(-0.0398311 3.02781 0)
(0.0311107 3.0576 -9.81414e-23)
(-0.00935643 3.04559 5.16661e-17)
(0.022418 3.01991 0)
(0.00650826 2.96692 0)
(-0.00157678 2.97381 -2.3185e-23)
(0.00456229 2.91388 0)
(0.00306109 2.98559 0)
(0.0068537 2.91128 0)
(0.265282 3.0994 0)
(-0.0547005 3.18231 0)
(0.0788049 2.89035 7.9221e-18)
(-3.7162e-05 2.75566 0)
(-0.00670428 1.77763 0)
(-0.00110912 1.68074 4.1408e-17)
(-0.00225865 1.61203 4.31902e-17)
(0.654875 0.161759 -4.77666e-18)
(0.651892 0.0907247 3.9074e-18)
(0.626617 0.199922 2.88703e-17)
(0.599668 0.158619 -9.30372e-18)
(0.197991 1.19395 0)
(0.310298 1.72426 -5.6552e-17)
(0.374778 1.69529 -4.56668e-17)
(0.996526 0.00235337 0)
(0.973725 0.000472558 0)
(0.99358 -0.00720912 0)
(1.00399 -0.000466898 0)
(1.00445 0.0114428 1.89286e-16)
(1.00876 0.0149361 1.41483e-16)
(-0.00997904 1.62815 0)
(-0.00384852 1.54262 0)
(-0.0144401 1.69813 0)
(-0.0222042 1.65102 0)
(-0.00673348 1.58264 0)
(-0.113595 0.214641 -3.82931e-18)
(0.121408 0.118832 0)
(1.01826 -0.0184268 0)
(0.988675 -0.00379922 0)
(0.88179 0.0290057 0)
(0.842837 0.0455498 0)
(0.822952 -0.00672283 0)
(1.08591 0.000743111 0)
(0.796043 0.0444091 0)
(0.726469 0.00279386 2.13137e-17)
(-0.0209949 2.87852 2.53172e-17)
(-0.00451931 3.00112 0)
(-0.0787267 3.05926 0)
(0.00374728 2.91131 0)
(-0.00294691 2.98403 -4.5052e-17)
(0.00184649 2.94061 0)
(-0.0081766 2.98668 -9.44747e-18)
(-0.0116107 2.957 2.72828e-17)
(-0.00336257 1.77591 0)
(-0.00580232 1.77665 0)
(0.00313573 1.68008 1.67971e-21)
(-0.00648317 1.66764 0)
(-0.00186342 1.61466 0)
(0.96701 -0.000173339 0)
(0.930796 -0.00428759 0)
(0.931692 0.00502188 0)
(0.97378 -0.00293411 0)
(0.944432 -0.00284218 0)
(0.687079 1.29795 -4.75197e-18)
(0.79278 1.33409 0)
(0.560766 1.13222 -1.79296e-18)
(0.541655 1.06153 0)
(1.0963 1.32534 2.12678e-17)
(1.18874 1.10704 5.80961e-18)
(0.508805 1.7741 0)
(0.666225 1.73576 0)
(0.609674 1.67671 0)
(0.30455 0.731973 -6.27548e-18)
(0.503495 0.273613 0)
(0.526511 0.204272 -5.83497e-18)
(1.17017 1.1263 0)
(1.22448 0.915578 0)
(1.24027 0.890417 -6.09472e-18)
(1.27042 0.718425 0)
(1.2886 0.514467 -3.60486e-17)
(0.977114 0.00240979 0)
(0.978667 -0.00537698 0)
(0.949933 -0.0010879 0)
(1.00022 -0.00904533 0)
(0.989761 -0.0101451 0)
(0.974353 -0.00253308 0)
(0.989578 -0.00468584 0)
(0.987356 -0.000278258 0)
(0.995941 -0.00256836 0)
(-0.00723956 1.79489 3.63148e-17)
(0.0558392 1.63253 0)
(0.00236568 1.80166 -5.82832e-18)
(0.0123645 1.7047 6.2202e-18)
(0.120481 1.59349 -5.41055e-17)
(0.0707446 1.46343 0)
(0.0699317 1.46392 0)
(-0.0161149 1.36236 0)
(-0.0181387 1.32525 0)
(0.0202381 1.72551 4.13498e-20)
(7.02245e-05 1.6431 0)
(0.0138228 1.72386 -4.01091e-17)
(0.0033113 1.64322 -3.64158e-18)
(-0.0160892 1.41568 0)
(-0.0201498 1.48048 0)
(-0.0161202 1.38605 0)
(-0.00968501 1.60626 0)
(-0.00572243 1.524 0)
(0.988365 0.0179071 0)
(0.962168 0.000636476 0)
(0.970667 0.0093024 0)
(0.932885 -0.00250463 0)
(0.901956 0.00172119 0)
(0.942211 0.00900888 0)
(0.93055 0.00912426 0)
(0.887547 -0.000173606 0)
(0.00936299 3.03562 8.09987e-20)
(0.0160706 3.02947 0)
(0.00971661 2.99608 0)
(0.0051928 2.94926 0)
(1.00477 3.65615 0)
(1.39892 2.63526 -1.34354e-18)
(-0.00917981 2.82787 0)
(-0.0107999 2.77109 0)
(-0.0110615 1.77133 0)
(-0.0118663 1.7752 0)
(-0.0127138 1.77216 0)
(-0.0101234 1.79449 -9.51434e-17)
(-0.0108583 1.78392 0)
(-0.00825304 1.78964 0)
(0.00326119 1.622 -8.45132e-17)
(0.00624267 1.70053 -4.35197e-17)
(-0.00157495 1.68645 4.11163e-17)
(-0.00350389 1.61249 0)
(0.680278 0.127999 -2.50235e-17)
(0.663805 0.057772 -1.25928e-17)
(0.209168 1.46156 0)
(0.249404 1.03595 1.35351e-18)
(0.151823 1.54404 -3.21225e-17)
(0.138951 1.33744 -4.08724e-17)
(0.951139 0.00384093 0)
(0.980372 0.00352519 0)
(0.986033 0.007941 0)
(0.959445 0.00400641 0)
(-0.007146 1.62373 0)
(-0.00299284 1.62246 0)
(-0.00225984 1.53219 0)
(0.277579 0.293472 -3.87979e-18)
(0.143586 0.258501 3.80416e-18)
(0.266047 0.177538 0)
(1.1743 0.103986 -9.64454e-19)
(1.18248 0.0603949 0)
(1.08342 0.0514773 0)
(1.02191 0.00584928 0)
(0.703768 0.0947475 0)
(0.742076 0.0649568 5.0793e-17)
(0.682176 0.0291051 -3.04723e-17)
(-0.0261389 2.94976 -4.48947e-17)
(-0.00816474 2.91612 -7.17944e-17)
(0.00805859 3.02633 1.58674e-19)
(0.0413482 3.0157 -4.77562e-17)
(-0.0169141 2.99973 -3.17418e-19)
(-0.0154405 2.987 1.22856e-21)
(-0.0126695 3.0374 -2.46654e-18)
(0.00409323 2.98773 -1.15559e-17)
(0.0675088 3.02624 -3.47099e-17)
(0.970253 0.00144358 0)
(0.968573 0.00819352 0)
(0.933153 -0.0021012 0)
(0.974429 0.0070189 0)
(0.965464 0.00673106 0)
(0.938652 0.0060117 0)
(0.952764 0.005786 0)
(0.95895 0.00866151 0)
(0.916683 0.00379917 0)
(0.833746 1.48284 5.765e-18)
(0.934865 1.53015 0)
(0.42085 0.861614 1.45588e-18)
(0.402878 0.946282 -5.77243e-18)
(0.477284 1.02442 -1.45779e-17)
(0.463864 0.963595 -2.48523e-17)
(0.378222 0.99841 -3.91048e-18)
(0.292419 0.75193 2.36034e-17)
(0.588733 0.232591 -1.7289e-17)
(0.549606 0.257039 -5.08665e-18)
(0.564072 0.186478 4.16787e-18)
(1.29332 0.529955 -2.9772e-17)
(1.28751 0.340457 6.77077e-18)
(0.00730382 1.79139 -4.37093e-17)
(-0.00120177 1.68109 0)
(1.0342 0.0335187 0)
(1.00285 0.0218015 0)
(0.984405 0.00231324 0)
(0.0131947 3.04117 0)
(0.0119286 2.97531 -4.88295e-17)
(0.010298 2.98661 0)
(0.00427313 2.93139 -2.419e-17)
(0.0091598 3.05053 1.801e-17)
(0.00879725 3.04658 0)
(0.900266 1.75282 -4.91121e-18)
(1.20045 2.28864 -1.01856e-17)
(1.00943 1.81926 -2.16696e-17)
(-0.0438122 2.90163 4.43055e-17)
(-0.0436252 2.84681 0)
(-0.0210962 2.82631 0)
(-7.2636e-05 1.7075 8.39208e-17)
(0.0130753 1.70352 2.61717e-18)
(-0.00499557 1.62007 8.37939e-17)
(0.246294 1.33276 -2.18673e-17)
(0.264073 0.904528 -1.39936e-17)
(0.0197952 1.74951 -4.1707e-17)
(0.0841995 1.66831 -3.35077e-17)
(0.0902659 1.52696 -7.56954e-17)
(-0.0338749 3.0585 1.64373e-16)
(-0.0211559 3.05471 1.213e-16)
(0.00831194 2.98826 2.78979e-17)
(-0.0146833 2.98282 -2.70446e-17)
(0.00610629 2.94864 4.52856e-17)
(0.0155943 3.05562 -1.03715e-16)
(-0.0125883 3.04368 -1.70687e-16)
(0.358765 0.944742 0)
(0.359593 0.929941 -1.9124e-18)
(0.33713 0.750998 -2.30454e-17)
(0.35858 1.05983 3.64238e-17)
(0.283439 0.777957 3.49228e-17)
(1.26563 0.206777 -4.05377e-18)
(1.29618 0.366678 0)
(1.262 0.188866 3.43979e-18)
(0.0114573 1.73984 4.15763e-20)
(0.00557057 1.76119 0)
(0.00350863 1.66528 0)
(0.289022 1.27382 1.97582e-18)
(0.334914 1.17417 -3.90301e-17)
(0.274127 0.840404 -4.06743e-17)
(1.0012 -0.0232137 0)
(1.00352 -0.0114012 1.31345e-17)
(-0.00706399 1.7728 0)
(-0.0225149 1.79331 0)
(1.00628 -0.00152749 5.85285e-19)
(1.00396 0.00121972 1.48279e-17)
(-0.00406118 1.79339 -9.45599e-17)
(-0.00204711 1.79234 0)
(-0.0452556 2.91443 2.7224e-17)
(0.27748 2.87199 0)
(1.11327 0.695372 -3.15128e-17)
(1.00438 0.00898384 1.05768e-16)
(1.0138 -0.00213655 0)
(1.00929 -0.00137033 4.44243e-19)
(0.0437792 1.47285 0)
(0.0696091 2.17315 0)
(-0.0825035 1.64229 0)
(-0.0535703 1.94477 -9.56377e-17)
(-0.0379475 1.8375 9.17005e-17)
(0.986732 0.015239 1.03667e-16)
(1.03143 0.0205945 0)
(1.05415 0.0303103 0)
(-0.0072375 1.78576 0)
(0.00319962 1.78548 0)
(-0.0224638 1.76891 0)
(0.282779 1.68467 -1.06707e-16)
(1.00699 -0.0119438 0)
(1.00749 -0.0145638 0)
(0.995948 0.00634613 -2.93107e-17)
(0.994497 -0.00492877 3.69114e-17)
(0.999276 -0.00557254 0)
(-0.00966197 1.77431 0)
(-0.00913572 1.76829 0)
(-0.00872323 1.7668 0)
(-0.0157805 1.77147 0)
(-0.0368293 1.77146 0)
(-0.0229038 1.76391 0)
(1.01279 -0.00408491 0)
(1.00464 0.0078065 1.05982e-16)
(0.856272 1.44378 7.54427e-19)
(1.00251 -0.00811438 2.97545e-17)
(0.998802 0.00374235 -3.65707e-17)
(1.00761 0.00397113 0)
(0.999652 0.0120343 4.11589e-17)
(1.00913 0.0152071 6.60165e-17)
(1.00631 0.0129424 0)
(0.00489822 1.7891 0)
(0.00400891 1.78653 -4.85901e-17)
(-0.000840231 1.78331 -4.22114e-17)
(1.16024 0.250391 -8.20819e-17)
(1.09765 0.0858152 0)
(-0.31771 2.93381 4.15427e-17)
(-0.331616 3.30246 1.17322e-18)
(-0.0785902 2.96151 5.15249e-17)
(-0.0828558 2.90756 4.77163e-17)
(0.0213742 2.87474 0)
(-0.0440349 2.99524 1.49186e-17)
(-0.142775 3.11602 2.3349e-17)
(-0.12565 2.96674 2.59016e-17)
(-0.0877701 3.08684 0)
(0.608722 0.331083 0)
(0.500004 0.366303 0)
(1.08562 0.841807 3.27834e-17)
(1.08274 0.903163 5.26524e-17)
(1.15419 0.640247 0)
(1.16228 0.549073 0)
(1.00549 0.00607561 2.49233e-17)
(1.00183 0.00707218 -2.73959e-17)
(1.01557 -0.00355071 0)
(1.01205 -0.00824025 0)
(1.00131 0.0118908 0)
(1.00531 0.00632547 0)
(1.00625 0.00661976 0)
(1.00159 0.00660024 0)
(1.00442 0.00414237 0)
(0.992408 0.00542077 0)
(0.0579472 1.47385 0)
(-0.005571 1.38436 0)
(0.150506 1.50597 0)
(0.112167 1.54454 0)
(0.0673599 2.16132 0)
(0.0896492 2.16734 4.54691e-17)
(0.0337227 2.19902 0)
(0.000999837 2.17428 3.89957e-17)
(-0.0701787 2.10348 -8.48085e-17)
(-0.0716946 1.66073 0)
(-0.0487698 1.67969 0)
(-0.085157 1.61649 0)
(-0.0864056 1.57134 0)
(-0.151531 1.88086 -9.19036e-17)
(-0.0756326 1.85941 -6.18211e-17)
(-0.0468109 1.938 4.48363e-17)
(-0.0403181 1.90565 0)
(-0.00547977 1.83979 4.18522e-17)
(-0.0139547 1.83304 -8.75181e-17)
(-0.188654 1.88833 -1.44476e-16)
(-0.107562 1.82186 -5.68863e-17)
(-0.0870762 1.88215 5.06735e-17)
(0.991926 0.0233834 -1.75642e-17)
(0.995168 0.00642318 2.44278e-17)
(0.984022 0.0300039 2.32342e-17)
(0.971092 0.0177011 -2.31918e-17)
(1.03114 0.0089075 0)
(1.02399 0.00172601 0)
(1.04505 0.0348948 0)
(1.03459 0.029257 0)
(1.03546 0.0145995 0)
(1.08595 0.0722963 0)
(1.06267 0.0647699 0)
(1.07521 0.0395907 0)
(-0.0152552 1.79711 1.24307e-17)
(-0.00618029 1.77689 0)
(-0.0232285 1.78105 0)
(-0.00634884 1.79161 -1.90426e-17)
(-0.00321191 1.79826 4.85507e-20)
(-0.0203034 1.80664 5.4413e-17)
(-0.0361945 1.78549 5.60736e-17)
(-0.0149473 1.76711 0)
(-0.0466531 1.77632 0)
(-0.0232802 1.76772 0)
(-0.0133259 1.76834 0)
(-0.0131109 1.76696 0)
(0.402051 1.72017 -6.42114e-17)
(0.423212 1.71621 5.3817e-17)
(0.41879 1.92715 6.95692e-19)
(0.263019 2.04308 3.4695e-17)
(0.327255 1.85737 4.46108e-17)
(1.01414 -0.0109771 0)
(1.01088 -0.00497444 0)
(1.01515 -0.00843945 0)
(1.00465 0.00433418 0)
(0.99766 -0.0034765 0)
(0.99022 -0.000963645 0)
(1.00503 -0.00450546 0)
(1.00325 -0.00292046 0)
(1.00353 0.00694686 -1.80579e-17)
(1.00189 0.0030993 2.64299e-17)
(1.00547 0.0136253 2.3835e-17)
(0.999067 0.0122211 -2.56402e-17)
(0.763282 1.55629 0)
(0.747011 1.56864 -9.17516e-17)
(0.901056 1.40106 9.17804e-17)
(0.958798 1.30014 7.91925e-17)
(1.00251 2.02783 -3.92392e-17)
(0.825135 0.122641 -2.84922e-17)
(1.11131 0.142556 0)
(1.15996 0.193244 -1.11342e-16)
(1.13554 0.139236 4.38359e-19)
(0.952976 0.132482 0)
(-0.156867 2.60125 6.07628e-17)
(-0.514745 2.52024 9.45132e-17)
(-1.03742 2.76001 4.31078e-18)
(-0.882964 0.216162 -1.26323e-17)
(0.158643 2.88402 -2.02908e-17)
(0.0138921 2.89558 0)
(0.117682 2.865 -8.32718e-18)
(-0.0419495 2.60218 1.07345e-16)
(0.165871 2.61009 0)
(-0.0327047 3.03785 -7.8597e-19)
(-0.051612 3.05218 -2.54154e-17)
(-0.0143153 3.09023 -4.27334e-17)
(-0.0612146 3.10221 0)
(-0.0771256 3.02328 0)
(1.13883 2.09927 0)
(0.4959 1.10961 6.3933e-17)
(1.03931 1.10158 -4.55695e-17)
(0.997371 1.24223 0)
(0.826179 1.10291 -1.60776e-17)
(1.05874 1.0528 -7.70264e-17)
(0.109724 0.388389 2.52392e-18)
(0.628186 0.337581 1.5048e-17)
(0.651397 0.292849 1.35532e-17)
(0.431606 0.44424 -6.84503e-20)
(0.399723 0.370216 8.67117e-18)
(0.572482 0.384681 0)
(0.587255 0.47689 1.0063e-17)
(0.607591 0.419759 0)
(0.511215 0.393606 0)
(0.548646 0.340846 0)
(0.679156 0.687153 3.88291e-17)
(1.17702 0.344697 5.43325e-17)
(1.18297 0.468711 0)
(1.18223 0.376868 0)
(0.736957 0.225742 2.1171e-17)
(0.737486 0.637656 4.73814e-17)
(0.616275 0.571818 9.661e-18)
(0.883721 0.43091 -9.56386e-17)
(1.00128 0.00266798 3.56358e-17)
(1.00143 0.0179957 6.46038e-17)
(0.998341 0.0109575 0)
(1.0108 0.00367351 0)
(1.00836 -0.0119356 -3.49452e-17)
(1.00461 -0.00471381 -6.1664e-17)
(1.00967 -0.00110341 0)
(1.00055 0.00694302 0)
(1.0073 1.93229e-05 0)
(1.00092 0.00323505 0)
(1.00625 0.00178942 0)
(1.00401 -0.00439599 0)
(-0.0310808 1.42177 0)
(-0.0616753 1.41737 0)
(0.165873 1.49343 -6.19058e-17)
(0.24294 1.70316 -4.75788e-17)
(0.18717 1.62489 1.01097e-16)
(0.172693 1.64413 3.71266e-17)
(0.21583 1.55289 0)
(0.235434 1.72979 9.35999e-17)
(0.167964 1.73291 0)
(0.274505 1.85517 4.89347e-17)
(0.280489 1.99585 -5.96588e-17)
(0.279336 1.59953 8.51171e-17)
(0.293104 1.6045 -4.91033e-17)
(0.2363 1.55303 -5.32892e-17)
(0.278592 1.57409 -7.99925e-18)
(0.240279 1.6946 0)
(0.300823 1.67493 -6.8611e-17)
(-0.123158 2.06341 8.20466e-18)
(-0.0695994 2.13559 0)
(-0.0490666 2.11546 -9.37934e-17)
(-0.088273 2.1083 0)
(-0.0312541 2.18181 4.44816e-17)
(-0.0620497 2.15168 0)
(-0.129307 1.70237 6.95955e-17)
(-0.165564 1.75502 0)
(-0.134596 1.63934 0)
(-0.127575 1.65838 6.40465e-17)
(-0.102394 1.99628 -1.46799e-16)
(-0.0568935 2.09149 -8.97608e-17)
(-0.0691902 2.04513 -2.8717e-20)
(-0.0957145 1.80072 9.49609e-17)
(-0.151109 1.82153 -4.97724e-17)
(-0.0466222 1.70147 0)
(-0.0380175 1.72573 0)
(-0.218581 1.79782 3.52402e-17)
(-0.177514 1.66095 2.96715e-17)
(-0.177594 1.75012 7.86197e-17)
(-0.173563 1.76983 0)
(-0.00823813 1.79028 1.29646e-16)
(-0.0232169 1.79109 2.03409e-17)
(-0.0151947 1.80239 -2.39111e-17)
(-0.0673155 1.80136 9.81141e-17)
(-0.0153782 1.77736 -4.45446e-18)
(-0.037319 1.79625 -5.76374e-17)
(0.998225 0.019588 6.35383e-17)
(0.997331 0.00651165 3.5776e-17)
(0.994609 0.0130619 0)
(0.991801 0.0491268 -9.13473e-17)
(0.962767 0.0510324 2.33927e-17)
(0.948163 0.0330848 -1.40025e-17)
(0.989515 0.0919626 2.60136e-18)
(1.01807 0.00155185 0)
(1.01958 0.00778705 -6.26629e-17)
(1.01499 -0.0025249 -3.58247e-17)
(1.0348 0.0373433 4.35662e-18)
(1.03346 0.0401809 -1.42399e-17)
(1.03315 0.0465464 0)
(1.02149 0.0439247 8.64816e-19)
(1.0075 0.0300128 0)
(1.00195 0.0282147 0)
(1.01283 0.023129 0)
(1.00122 0.0114383 0)
(1.01531 0.0304887 3.96099e-18)
(1.0167 0.0236318 4.00977e-17)
(1.03641 0.0348119 -6.17849e-18)
(1.02533 0.0282023 1.41604e-17)
(1.03053 0.0680894 3.17193e-17)
(1.04348 0.062082 0)
(1.0376 0.0957937 0)
(-0.00272256 1.80278 -6.57911e-17)
(0.016304 1.77266 -9.88324e-19)
(-0.0118471 1.78699 0)
(0.00682812 1.79827 -6.8131e-17)
(-0.00181469 1.80295 1.10992e-17)
(0.00239547 1.79151 -4.83162e-18)
(-0.0230761 1.82602 -9.76493e-17)
(-0.0157289 1.79971 -1.47359e-19)
(-0.0173049 1.79908 -6.60473e-18)
(-0.0181994 1.80614 4.31971e-17)
(-0.0183169 1.81565 4.12693e-17)
(-0.00997501 1.76912 -2.88689e-17)
(-0.016985 1.78998 -4.91764e-17)
(0.382571 1.60917 3.12459e-17)
(0.36991 1.57942 -1.27312e-17)
(0.678612 1.65406 -1.04589e-16)
(0.541163 1.72655 4.7902e-17)
(0.59662 1.6765 0)
(0.418949 1.90188 -5.23256e-18)
(0.469396 1.89144 -1.35882e-18)
(0.310031 1.99361 -9.21873e-18)
(0.306034 2.0591 -3.88975e-17)
(0.407703 2.02837 -3.81589e-17)
(0.390157 1.9406 0)
(0.341283 1.97974 -1.45899e-17)
(0.174561 2.09817 -1.97513e-18)
(0.228904 2.05131 7.74707e-17)
(0.162629 2.10666 1.20197e-17)
(0.743031 1.87775 -4.75978e-17)
(0.620637 1.87735 0)
(1.01006 0.0123161 -4.05817e-19)
(1.00631 -0.00975322 4.61268e-19)
(1.00523 -0.018524 -7.5898e-18)
(1.01686 -0.00334765 -2.18338e-17)
(1.01151 0.00525717 0)
(0.697711 1.44109 0)
(0.649669 1.37875 0)
(0.768735 1.27031 0)
(0.69558 1.30716 0)
(0.97418 2.05048 3.62556e-17)
(0.929823 1.89981 0)
(0.707562 1.86433 -1.40405e-18)
(0.652568 1.99118 0)
(0.686943 2.02408 9.47486e-17)
(0.770516 1.97783 8.24868e-17)
(0.807321 0.156764 0)
(0.789727 0.154236 -1.93776e-18)
(0.894268 0.139537 7.41789e-18)
(0.8371 0.114879 -3.44995e-17)
(0.844589 0.0836798 3.56075e-18)
(1.02415 0.251734 -2.82707e-17)
(0.892678 0.309247 3.57992e-17)
(0.852846 0.297874 2.86461e-17)
(0.945762 0.227952 1.25319e-17)
(0.886253 0.167166 5.52555e-17)
(0.872107 0.191119 -1.43155e-17)
(0.867515 0.2668 3.42708e-18)
(0.851977 0.222933 0)
(0.94326 0.198273 2.48119e-17)
(0.992516 0.184619 0)
(0.981757 0.252799 0)
(1.0576 0.131843 -1.74267e-17)
(1.00259 0.187119 3.9397e-17)
(0.999377 0.209349 2.76604e-17)
(1.05374 0.20488 0)
(0.994318 0.02911 -4.93658e-17)
(1.01124 0.0373029 3.38964e-17)
(1.01111 0.0373562 -2.92753e-17)
(1.01157 0.0574031 5.67115e-17)
(0.986348 0.0509886 -6.50908e-17)
(0.940499 0.144277 0)
(0.948704 0.0684767 0)
(0.942929 0.0530094 5.78217e-17)
(0.924314 0.0514881 1.00381e-17)
(0.996391 0.0995635 -5.23364e-17)
(1.02296 0.13844 -2.82394e-17)
(1.01509 0.155409 -1.5714e-17)
(0.974398 0.149735 0)
(1.0257 0.102163 0)
(1.01716 0.089626 4.67111e-17)
(0.995282 0.0880937 -2.98667e-17)
(0.61624 1.32683 3.23708e-17)
(0.620242 1.4842 -2.45991e-17)
(0.918621 2.12079 2.62622e-17)
(0.961965 2.36434 -3.49277e-18)
(1.02485 2.11022 -2.90052e-17)
(1.08959 2.16916 4.73038e-18)
(1.09511 1.93773 1.03067e-17)
(0.998707 2.2637 -1.75114e-17)
(1.00553 2.25082 -2.13169e-17)
(1.04435 2.4621 -2.68309e-18)
(1.15129 2.37688 4.07141e-18)
(1.22986 2.33438 0)
(0.471092 1.16524 -4.09671e-18)
(-0.273452 1.40098 -1.95363e-17)
(-0.0867564 0.606179 -1.01446e-17)
(-0.202723 0.907777 -2.36619e-17)
(0.304952 0.445515 -1.27566e-17)
(0.332015 0.504246 6.3926e-18)
(0.267199 0.612806 -1.0239e-17)
(0.153085 0.459273 4.01978e-18)
(0.272308 0.357229 -1.1068e-17)
(0.717536 0.278652 3.15852e-17)
(0.670662 0.306149 0)
(0.687749 0.265795 7.7066e-18)
(0.602456 0.562658 -1.58041e-17)
(0.506655 0.532411 2.05244e-17)
(0.407133 0.591127 -7.37472e-18)
(0.481525 0.4804 0)
(0.558947 0.970469 -3.22715e-17)
(0.748126 0.907862 5.79469e-17)
(0.676659 1.0746 6.63301e-17)
(0.793598 0.941956 1.75544e-17)
(0.904841 0.931037 -5.09675e-18)
(0.907377 1.00704 -7.4444e-18)
(0.782771 0.777968 8.97032e-18)
(0.842619 0.814855 1.17729e-17)
(0.935954 0.868748 0)
(0.931431 0.732087 3.35839e-17)
(0.952719 0.326122 6.27838e-17)
(1.0679 0.324934 -2.70186e-17)
(1.00078 0.310529 -6.4597e-17)
(0.907675 0.410361 6.17532e-17)
(1.00675 0.46042 0)
(1.03183 0.430512 0)
(0.811575 0.40801 6.31167e-17)
(0.768225 0.299253 0)
(0.77588 0.29799 -1.97943e-17)
(0.854687 0.337639 8.59416e-17)
(0.833727 0.513897 -1.15205e-16)
(0.76217 0.559504 -2.36174e-18)
(0.802201 0.512982 1.18092e-17)
(0.720586 0.476168 -3.62415e-18)
(0.7155 0.490139 -8.53586e-18)
(0.661296 0.453426 -4.18476e-20)
(1.02031 -0.00176771 -6.23303e-17)
(1.00775 -0.00527675 0)
(1.01857 0.00401794 1.16528e-17)
(1.01012 0.0112826 -1.38735e-17)
(1.01351 0.00582345 -3.20337e-17)
(1.00448 0.0148367 7.60898e-18)
(1.00247 0.0111701 0)
(1.0064 0.003628 1.72351e-17)
(1.0071 0.00895913 -3.10399e-18)
(1.00404 0.00740589 -3.11229e-18)
(1.00624 0.00363017 1.02525e-17)
(-0.122924 1.54368 0)
(-0.156344 1.63629 0)
(-0.0766791 1.46805 0)
(-0.085208 1.47507 0)
(-0.00699674 1.58636 -1.02154e-17)
(0.0707295 1.504 -1.34885e-16)
(0.103245 1.72527 -4.03201e-17)
(0.119958 1.57275 -1.09101e-16)
(-0.183317 1.64997 7.36649e-17)
(-0.155312 1.66757 7.59812e-17)
(-0.0722307 1.5372 1.51316e-16)
(-0.0869485 1.53288 7.38571e-17)
(-0.112419 1.53517 1.29695e-17)
(-0.15791 1.61271 2.07779e-18)
(-0.00656551 2.11274 -8.54185e-17)
(0.0440883 2.14798 0)
(0.0750807 1.99021 -5.2122e-17)
(0.0754697 1.80807 -7.19502e-18)
(0.236403 1.89867 -2.20333e-17)
(0.154683 2.04454 0)
(0.168908 2.02659 7.09871e-17)
(0.223229 2.01018 5.99694e-17)
(0.207905 1.89401 -7.68872e-17)
(0.126904 2.02098 -1.04684e-16)
(0.0526551 2.02937 0)
(-0.190925 1.92685 4.27503e-17)
(-0.163421 1.94376 -2.53859e-17)
(-0.190919 1.91501 0)
(-0.131673 2.03555 2.65021e-17)
(-0.16898 2.03131 2.10144e-17)
(-0.105766 1.7127 1.18287e-17)
(-0.0761575 1.71698 -1.23895e-16)
(-0.0918852 1.74543 -8.39915e-17)
(-0.14149 1.73634 5.78371e-17)
(-0.146777 1.71246 0)
(-0.0435723 1.75473 0)
(-0.0135063 1.75672 -4.9838e-17)
(-0.0312824 1.75143 -4.42938e-18)
(-0.0389277 1.75323 0)
(-0.0262218 1.74171 4.13663e-17)
(-0.00713181 1.74431 2.03361e-18)
(1.01889 0.0259854 0)
(1.02741 0.018263 6.10164e-19)
(1.01185 0.0244546 5.80006e-17)
(1.02692 0.0150564 0)
(1.02018 0.00169246 0)
(1.02025 0.00120659 2.69544e-17)
(1.01688 0.00865131 -7.20907e-17)
(1.01062 0.00719941 -2.5794e-17)
(1.00275 0.00904636 0)
(1.00846 0.01423 0)
(1.01122 0.017745 3.49167e-17)
(1.00302 0.0186289 0)
(1.00666 0.0170647 0)
(-0.0385943 1.79385 0)
(-0.0168734 1.78828 -5.21048e-17)
(-0.0171858 1.7826 5.36e-17)
(-0.021017 1.75349 0)
(-0.0142637 1.79032 -4.95315e-17)
(-0.0233597 1.77189 -2.37139e-17)
(-0.0270203 1.75993 0)
(0.39379 1.69659 0)
(0.323114 1.53588 3.32459e-17)
(0.290614 1.49544 0)
(0.38948 1.49915 9.90869e-17)
(0.489629 1.60026 0)
(0.450757 1.60975 4.4911e-17)
(0.802828 2.06105 -2.94968e-19)
(0.753891 1.87795 -3.01268e-17)
(0.731966 1.75397 -3.02339e-17)
(0.63647 1.86225 -1.09301e-17)
(0.636229 1.97882 0)
(0.706096 1.97193 0)
(0.699196 1.87395 0)
(0.686524 1.85997 -1.69751e-18)
(0.526862 2.0484 -4.67659e-17)
(0.597539 1.9691 5.3083e-18)
(0.592033 2.022 2.85316e-18)
(0.50216 1.87129 0)
(0.568911 1.87301 0)
(0.552169 1.87556 1.71466e-18)
(0.563837 1.97532 0)
(0.640846 1.26797 0)
(0.583159 1.19229 -7.70099e-17)
(0.557284 1.17011 -7.35039e-18)
(0.621898 1.27642 0)
(0.583712 1.22944 -9.44937e-17)
(0.719136 1.0929 -1.16608e-17)
(0.778462 1.22467 0)
(0.794093 1.12887 -3.89275e-17)
(0.690287 1.24076 0)
(0.618059 1.18787 0)
(0.906843 2.10458 1.90287e-17)
(0.898285 2.17304 -1.1439e-17)
(0.770721 1.9363 -5.19215e-17)
(0.765293 1.91078 -3.19162e-18)
(0.891677 2.08248 0)
(0.839615 2.07726 -6.83385e-18)
(0.871454 1.96595 -5.12049e-18)
(0.838772 1.80757 -9.63227e-18)
(0.560635 1.47117 0)
(0.571703 1.32101 4.00557e-17)
(0.602302 1.3709 0)
(0.822502 0.203341 0)
(0.779183 0.186662 0)
(0.753728 0.182496 0)
(0.811831 0.249226 -7.11379e-18)
(0.750822 0.22407 4.96728e-18)
(0.933227 0.0799346 1.8357e-17)
(0.923781 0.120514 0)
(0.894207 0.0939144 -1.6495e-18)
(0.855381 0.0785534 -8.74247e-18)
(0.862942 0.0496144 -4.70932e-18)
(1.04183 2.64037 -2.07494e-17)
(0.954521 2.53962 0)
(0.903254 2.71243 -6.95534e-17)
(0.575496 2.92121 -3.60935e-17)
(0.685025 2.44192 1.70046e-17)
(0.460051 1.23856 -3.4163e-17)
(0.535464 1.14042 0)
(0.217549 0.890666 9.03004e-18)
(0.249576 0.994362 4.90115e-17)
(0.121603 0.874109 1.31333e-17)
(0.208591 0.658269 5.84683e-18)
(0.478262 0.651808 -1.28283e-17)
(0.506038 0.699704 0)
(0.456612 0.822952 0)
(0.325408 0.780866 0)
(0.916735 0.703043 1.23186e-17)
(0.840338 0.611073 1.18132e-17)
(0.851064 0.645135 -5.77894e-18)
(0.877134 0.530468 2.76386e-17)
(0.974114 0.571469 0)
(0.973138 0.625977 -1.28174e-17)
(0.765665 0.432458 1.59977e-17)
(0.767824 0.381929 3.58018e-17)
(0.690623 0.401765 -7.47912e-18)
(0.695464 0.383213 5.15407e-18)
(0.749641 0.348964 -9.40291e-18)
(0.723459 0.324678 -2.31295e-17)
(1.02062 0.00136151 -4.58669e-17)
(1.01862 -0.00455829 -4.86931e-17)
(1.02713 -0.00153726 4.30425e-17)
(1.02329 -0.00569568 6.73869e-17)
(1.01803 0.0115266 0)
(0.997949 0.0106122 -1.22794e-17)
(-0.117743 1.85546 3.27608e-17)
(-0.118453 1.78813 0)
(-0.0105427 1.80504 -6.06413e-17)
(0.0283054 1.80206 -6.97202e-17)
(0.0490214 1.72656 -4.65089e-17)
(-0.0255787 1.74448 0)
(-0.0346063 1.8098 0)
(-0.0402502 1.76048 -2.4035e-17)
(-0.0375148 1.75192 -2.50283e-17)
(-0.0354183 1.77681 -6.1836e-17)
(-0.0564613 1.79667 -1.23035e-17)
(-0.0230465 1.79729 -5.48963e-18)
(0.525579 1.48302 -1.36408e-16)
(0.495276 1.52254 -1.64482e-16)
(0.455196 1.49794 9.70458e-17)
(0.42853 1.48549 -6.29809e-18)
(0.638454 1.49755 0)
(0.560342 1.58576 9.70187e-17)
(0.60129 1.53661 8.28571e-17)
(0.490198 1.47015 8.25282e-17)
(0.537139 1.45978 0)
(0.608605 1.39085 0)
(0.51444 2.03891 -6.13367e-17)
(0.475081 1.9641 -8.57322e-17)
(0.504353 1.97161 -6.70395e-17)
(0.424109 1.96541 -2.49952e-18)
(0.43436 2.10939 1.83724e-18)
(0.405263 2.02011 -2.23435e-17)
(0.765693 1.86712 -1.17432e-17)
(0.821623 1.88666 0)
(0.769377 1.75342 7.19121e-18)
(0.840601 2.04476 0)
(0.821104 2.05068 0)
(0.565241 1.94024 -1.61789e-18)
(0.902173 2.37886 -2.47073e-18)
(0.773865 2.38485 -2.90585e-18)
(0.144894 1.26112 0)
(0.189259 1.23496 -1.78058e-17)
(0.443397 1.15373 -4.32797e-17)
(0.388986 1.89416 0)
(0.381886 2.22836 7.2889e-18)
(0.162872 2.22572 0)
(0.5957 0.879239 -1.48118e-17)
(0.623364 0.861204 -6.43766e-17)
(0.647097 0.812576 -2.43334e-17)
(0.487343 0.850766 -1.85884e-18)
(0.556544 0.730185 3.45799e-18)
(0.819967 2.19858 -1.39688e-17)
(0.884559 2.1783 -8.05565e-18)
(0.662129 1.91077 9.22291e-18)
(0.630554 1.6555 3.85664e-17)
(0.689992 1.68916 5.13892e-17)
(0.829819 1.98585 -3.64321e-17)
(0.842598 1.98262 -2.5951e-17)
(0.698002 1.65613 7.22244e-19)
(0.567489 1.4175 3.96435e-17)
)
;

boundaryField
{
    wall-4
    {
        type            calculated;
        value           uniform (0 0 0);
    }
    velocity-inlet-5
    {
        type            calculated;
        value           uniform (1 0 0);
    }
    velocity-inlet-6
    {
        type            calculated;
        value           uniform (0 3 0);
    }
    pressure-outlet-7
    {
        type            calculated;
        value           nonuniform List<vector> 8((-0.0147305 1.67886 0) (-0.00718881 1.63849 7.14608e-17) (-0.00217866 1.754 0) (-0.015857 1.8036 0) (-0.00653089 1.77714 0) (-0.00514747 1.77621 0) (-0.0126157 1.77166 0) (-0.00791557 1.78931 0));
    }
    wall-8
    {
        type            calculated;
        value           uniform (0 0 0);
    }
    frontAndBackPlanes
    {
        type            empty;
    }
}

