/*--------------------------------*- C++ -*----------------------------------*\
  =========                 |
  \\      /  F ield         | OpenFOAM: The Open Source CFD Toolbox
   \\    /   O peration     | Website:  https://openfoam.org
    \\  /    A nd           | Version:  6
     \\/     M anipulation  |
\*---------------------------------------------------------------------------*/
FoamFile
{
    version     2.0;
    format      ascii;
    class       volScalarField;
    location    "0";
    object      p;
}
// * * * * * * * * * * * * * * * * * * * * * * * * * * * * * * * * * * * * * //

dimensions      [0 2 -2 0 0 0 0];

internalField   nonuniform List<scalar> 
13046
(
0.603277
0.580241
0.652933
0.609358
0.64448
0.599786
0.588475
0.603342
0.653676
0.303599
0.289966
0.619847
0.585924
0.549663
0.647272
0.378203
0.622773
0.317446
0.643557
0.632472
0.600443
0.366677
0.624028
0.315439
0.608173
0.609624
0.644386
0.570889
0.547906
0.650437
0.613191
0.557114
0.646366
0.622956
0.646038
0.606583
0.621814
0.647889
0.618268
0.618485
0.639702
0.537076
0.621645
0.642881
0.628877
0.617777
0.634476
0.63183
0.58968
0.579927
0.653359
0.607872
0.623971
0.48621
0.614976
0.466233
0.629745
0.398859
0.520593
0.630597
0.508573
0.539521
0.642109
0.62922
0.400656
0.416761
0.538839
0.402503
0.626685
0.554016
0.413627
0.627471
0.377994
0.505865
0.629737
0.643218
0.644524
0.583345
0.631439
0.47027
0.375349
0.600892
0.60618
0.643968
0.626437
0.377943
0.39097
0.386178
0.628417
0.433179
0.619756
0.33369
0.439063
0.515664
0.495295
0.490484
0.480127
0.639282
0.641107
0.629323
0.388032
0.450277
0.615252
0.639033
0.62611
0.644079
0.499632
0.61652
0.622016
0.629595
0.508492
0.194608
0.613513
0.189582
0.591479
0.564957
0.644021
0.498918
0.515102
0.449787
0.636739
0.476117
0.637774
0.281843
0.261827
0.618469
0.554757
0.503621
0.64921
0.612407
0.640581
0.537162
0.619426
0.352952
0.467329
0.4598
0.459051
0.63515
0.604025
0.547932
0.644007
0.543544
0.600097
0.643684
0.619924
0.617084
0.507639
0.640685
0.517392
0.62452
0.50231
0.518234
0.639333
0.654547
0.556929
0.618525
0.584981
0.460184
0.571918
0.454429
0.632585
0.633734
0.542205
0.584792
0.636476
0.29645
0.61948
0.304413
0.231502
0.615133
0.213995
0.451207
0.43948
0.63501
0.610572
0.491952
0.639498
0.546582
0.635651
0.595213
0.622507
0.341312
0.307909
0.613663
0.508896
0.633142
0.652167
0.542884
0.614331
0.556117
0.601314
0.641582
0.544164
0.651437
0.5611
0.523908
0.645693
0.375026
0.626064
0.396115
0.626162
0.383268
0.46934
0.339388
0.427075
0.619445
0.601399
0.449768
0.613842
0.569231
0.477942
0.62732
0.371156
0.397126
0.328956
0.620447
0.612219
0.647368
0.620244
0.58093
0.551336
0.648806
0.625492
0.371329
0.478681
0.556834
0.555835
0.653761
0.616218
0.257964
0.238766
0.616876
0.447292
0.592874
0.365578
0.448957
0.62426
0.494001
0.581577
0.641075
0.548107
0.505993
0.648947
0.519226
0.388204
0.618823
0.434781
0.558421
0.627137
0.615027
0.258028
0.2157
0.626161
0.636114
0.497158
0.222755
0.613223
0.145732
0.640644
0.603582
0.624328
0.504579
0.510054
0.571174
0.584554
0.645083
0.63743
0.624607
0.450634
0.354803
0.565166
0.514273
0.644288
0.430564
0.534948
0.629907
0.475592
0.45532
0.636172
0.629733
0.620184
0.643918
0.475154
0.567485
0.635935
0.567449
0.49493
0.644032
0.560925
0.555256
0.628182
0.629845
0.481878
0.470142
0.550583
0.634903
0.450738
0.634159
0.446691
0.637504
0.628716
0.520613
0.631737
0.447046
0.578396
0.524055
0.452365
0.63466
0.623325
0.612983
0.482807
0.505551
0.4952
0.440214
0.633442
0.435833
0.636119
0.623098
0.354972
0.328709
0.527807
0.487961
0.640936
0.105319
0.610981
0.134905
0.583667
0.63745
0.612351
0.525305
0.549928
0.643033
0.629572
0.400693
0.419458
0.609056
0.447725
0.627023
0.500752
0.383911
0.621601
0.580419
0.649367
0.515183
0.53447
0.644299
0.574343
0.649363
0.405301
0.624723
0.339982
0.609945
0.432494
0.614171
0.500541
0.5236
0.641043
0.53555
0.592966
0.646449
0.504832
0.607222
0.634884
0.604042
0.585564
0.65016
0.621975
0.451246
0.585885
0.359102
0.408027
0.624321
0.505799
0.384133
0.625467
0.566267
0.624063
0.436233
0.486199
0.501332
0.417919
0.398658
0.627117
0.630356
0.611889
0.123538
0.162628
0.243924
0.614256
0.163705
0.491832
0.56165
0.632834
0.624136
0.364002
0.371812
0.54372
0.535377
0.445753
0.436158
0.636061
0.633439
0.613657
0.367139
0.274129
0.205249
0.612198
0.113175
0.601979
0.638607
0.63974
0.192897
0.155577
0.613352
0.600678
0.494664
0.636251
0.31547
0.355712
0.622169
0.129604
0.610356
0.0656252
0.624196
0.636399
0.550844
0.587845
0.631406
0.64384
0.29118
0.619127
0.251724
0.577981
0.625055
0.643834
0.610383
0.638775
0.640066
0.624611
0.426484
0.594599
0.573087
0.641941
0.639869
0.588187
0.615175
0.634287
0.578864
0.441408
0.622848
0.623526
0.624185
0.317427
0.31724
0.343926
0.335373
0.330933
0.396626
0.622397
0.630703
0.561438
0.413074
0.615204
0.629602
0.513502
0.423582
0.553728
0.619164
0.211451
0.60921
0.114329
0.620163
0.325841
0.421547
0.246759
0.616499
0.241338
0.610781
0.102971
0.0564409
0.0599866
0.611399
0.0992329
0.527657
0.460356
0.631989
0.310637
0.610462
0.205982
0.439586
0.459856
0.634296
0.349542
0.617559
0.256645
0.580787
0.646734
0.589778
0.387081
0.616349
0.294554
0.431855
0.619493
0.56234
0.526768
0.431035
0.633072
0.612017
-0.0162899
-0.0189047
0.138253
0.61064
0.110355
0.59273
0.649592
0.590834
0.356409
0.271535
0.616453
0.61375
0.245602
0.353653
0.366829
0.624918
0.370065
0.626335
0.369304
0.435771
0.591742
0.428552
0.625093
0.416474
0.519408
0.635741
0.624328
0.416317
0.316346
0.587004
0.57756
0.51239
0.498819
0.642541
0.645016
0.595405
0.512933
0.641162
0.556824
0.431729
0.63792
0.515635
0.405854
0.626931
0.386422
0.326906
0.623474
0.626403
0.40626
0.490003
0.0641607
0.611539
0.126704
0.624974
0.617756
0.646908
0.553412
0.650224
0.563923
0.581113
0.577904
0.634147
0.452376
0.636229
0.475366
0.147029
0.608771
0.0700461
0.366441
0.29158
0.618514
0.609906
0.619213
0.482644
0.534696
0.402965
0.622174
0.627191
0.377056
0.451775
0.199226
0.171271
0.612957
0.229231
0.184139
0.61315
0.537328
0.45237
0.63989
0.641241
0.622152
0.533653
0.349487
0.623094
0.341369
0.520268
0.441314
0.635859
0.63362
0.414533
0.438639
0.586674
0.635685
0.475108
0.501045
0.58979
0.635385
0.622947
0.635687
0.524554
0.621963
0.335251
0.325798
0.477408
0.441278
0.635436
0.62822
0.64081
0.558787
0.391647
0.620945
0.292215
0.592755
0.544112
0.647515
0.568855
0.601574
0.648462
0.537188
0.446182
0.631541
0.284321
0.61582
0.198299
0.304555
0.616139
0.208091
0.632668
0.401927
0.439283
0.479065
0.597424
0.629151
0.613424
0.163302
0.253184
0.630798
0.438093
0.419303
0.609598
0.0797231
0.0252142
0.0746174
0.0277301
0.610673
0.626659
0.334444
0.420356
0.618498
0.29382
0.27114
0.376141
0.393942
0.623135
0.334026
0.626047
0.362273
0.408044
0.45178
0.630492
0.628315
0.548282
0.397741
0.624535
0.645578
0.578833
0.420639
0.476783
0.6318
0.631774
0.428162
0.489733
0.435374
0.624679
0.323946
0.574604
0.436591
0.635152
0.588988
0.484423
0.632441
0.468857
0.516318
0.640562
0.457942
0.511569
0.637876
0.631798
0.63324
0.575091
0.575826
0.483541
0.647686
0.616222
0.399927
0.290405
0.168965
0.61199
0.241336
0.143265
0.610925
0.242394
0.609802
0.641706
0.5231
0.178867
0.611416
0.134718
0.460909
0.633653
0.413937
0.609997
0.186305
0.105603
0.611517
0.644735
0.610072
0.548722
0.540606
0.645777
0.600968
0.485972
0.63012
0.612276
0.326782
0.233165
0.518378
0.443769
0.633036
0.6201
0.373145
0.286394
0.527849
0.531005
0.648101
0.628874
0.648299
0.585743
0.323004
0.251168
0.615839
0.632046
0.41846
0.419055
0.274364
0.251433
0.6162
0.615096
0.222916
0.200413
0.522922
0.576641
0.645152
0.539063
0.47505
0.632268
0.578183
0.603055
0.654086
0.274532
0.196908
0.282521
0.61311
0.192579
0.611198
0.49521
0.49237
0.642976
0.24897
0.222738
0.30595
0.283945
0.616588
0.61437
0.476357
0.55574
0.643064
0.548599
0.563371
0.646369
0.329113
0.618593
0.245341
0.53764
0.559029
0.643989
0.573055
0.585488
0.647175
0.284569
0.615954
0.221595
0.533819
0.502278
0.641226
0.577234
0.414669
0.620066
0.592177
0.454862
0.631915
0.484943
0.617401
0.355382
0.611184
0.0140478
0.0112289
0.525988
0.548336
0.644905
0.346063
0.620237
0.287409
0.618155
0.42916
0.603164
0.136529
0.610702
0.0760663
0.642023
0.633835
0.618272
0.547825
0.620715
0.534011
0.580719
0.606311
0.648152
0.627675
0.638828
0.629881
0.551235
0.638382
0.545616
0.539132
0.573253
0.651748
0.548204
0.578313
0.649768
0.609854
0.261359
0.156142
0.603451
0.525472
0.6383
0.274567
0.313667
0.618916
0.464317
0.447458
0.497408
0.477067
0.636491
0.633081
0.598028
0.547719
0.642949
0.5562
0.46221
0.635246
0.495544
0.518461
0.644167
0.629209
0.605317
0.639578
0.439294
0.486134
0.633715
0.621073
0.639705
0.580238
0.492216
0.547551
0.642607
0.55402
0.480814
0.635984
0.628054
0.630694
0.592624
0.647364
0.590511
0.643566
0.632798
0.626894
0.641335
0.576656
0.644498
0.555034
0.588017
0.581235
0.526619
0.526938
0.646496
0.643032
0.628026
0.379165
0.442361
0.618813
0.432463
0.585543
0.628978
0.629369
0.363806
0.376052
0.420003
0.415555
0.617877
0.618887
0.462165
0.629372
0.640201
0.619127
0.435478
0.469257
0.633252
0.619168
0.643491
0.541981
0.545778
0.476288
0.636798
0.477342
0.479643
0.396228
0.632804
0.410836
0.633435
0.475697
0.48416
0.637379
0.162908
0.107055
0.611646
0.612848
0.441725
0.60649
0.595472
0.599331
0.621072
0.439026
0.629902
0.450903
0.419383
0.504544
0.629172
0.563829
0.471347
0.637469
0.616492
0.617816
0.462172
0.597008
0.60303
0.624948
0.639857
0.483925
0.480035
0.593973
0.63227
0.461446
0.478578
0.497788
0.640031
0.627644
0.639325
0.582874
0.312552
0.618736
0.26729
0.612463
0.621353
0.44974
0.551505
0.535241
0.481667
0.473218
0.636921
0.641722
0.620383
0.289096
0.333834
0.330696
0.619584
0.258896
0.309346
0.617846
0.248484
0.461389
0.632209
0.402123
0.571602
0.488121
0.639501
0.384384
0.445191
0.575539
0.389392
0.531182
0.232021
0.487878
0.422178
0.358064
0.521074
0.518095
0.339132
0.385874
0.521108
0.423029
0.389442
0.396369
0.420156
0.440398
0.491263
0.444393
0.415419
0.531566
0.616311
0.583898
0.450912
0.542017
0.342623
0.46188
0.375153
0.351401
0.482357
0.445058
0.432371
0.366603
0.455546
0.567424
0.529508
0.40728
0.473642
0.405226
0.611606
0.380515
0.519452
0.554447
0.404684
0.41128
0.390922
0.342251
0.380582
0.587289
0.443788
0.392065
0.407238
0.351375
0.581711
0.493916
0.448715
0.390992
0.513396
0.378137
0.385044
0.584646
0.434706
0.448044
0.495943
0.456588
0.613868
0.530686
0.530598
0.327145
0.35218
0.411919
0.504563
0.342933
0.430216
0.449721
0.361175
0.506853
0.551381
0.420687
0.438775
0.345952
0.381669
0.398176
0.514518
0.398611
0.391928
0.421172
0.590612
0.390236
0.512382
0.583213
0.433888
0.387387
0.16559
0.372893
0.393857
0.387052
0.323404
0.481322
0.535202
0.563346
0.617203
0.383783
0.379616
0.340932
0.400343
0.374978
0.565668
0.539605
0.488742
0.36739
0.350509
0.480597
0.541371
0.415508
0.392507
0.32104
0.415029
0.430235
0.599688
0.609926
0.50754
0.454691
0.417797
0.342836
0.602533
0.349052
0.501851
0.322593
0.58586
0.348537
0.315288
0.371438
0.550025
0.422701
0.295548
0.379989
0.488002
0.383483
0.516398
0.486124
0.395195
0.552757
0.408245
0.374569
0.558804
0.380382
0.421212
0.340158
0.463328
0.405789
0.555469
0.511599
0.409057
0.50522
0.517752
0.573121
0.451347
0.409941
0.392798
0.523703
0.349875
0.469525
0.34558
0.610128
0.417083
0.5598
0.598764
0.450099
0.606233
0.559488
0.570749
0.363555
0.317304
0.341077
0.575922
0.363323
0.351859
0.340698
0.354075
0.419636
0.407475
0.455231
0.599331
0.509331
0.403624
0.513307
0.399893
0.60972
0.296037
0.547184
0.39712
0.313485
0.586796
0.600201
0.392249
0.393974
0.609568
0.463885
0.398482
0.374028
0.50532
0.564664
0.509138
0.380195
0.391363
0.53191
0.456489
0.374972
0.468526
0.334531
0.357735
0.417735
0.538706
0.324635
0.414184
0.535974
0.395917
0.320346
0.41301
0.395162
0.411115
0.47569
0.482553
0.380088
0.348828
0.363169
0.493635
0.501744
0.399749
0.482857
0.410331
0.364806
0.464987
0.405455
0.306011
0.506164
0.557501
0.452643
0.592395
0.567619
0.6107
0.388725
0.293667
0.423094
0.409503
0.409436
0.331147
0.470178
0.582599
0.505176
0.4614
0.375272
0.407296
0.519261
0.443691
0.497373
0.381714
0.428803
0.401868
0.324472
0.380229
0.395754
0.388714
0.367554
0.484829
0.454548
0.409393
0.490941
0.397309
0.417767
0.381384
0.412318
0.386221
0.398682
0.459666
0.327692
0.283072
0.433444
0.335323
0.315063
0.45989
0.304835
0.318798
0.555888
0.486373
0.380606
0.511092
0.356017
0.481236
0.468224
0.334194
0.393007
0.539924
0.423773
0.519599
0.227178
0.370806
0.558877
0.399
0.372014
0.270636
0.325658
0.311504
0.330086
0.404233
0.491321
0.363003
0.313747
0.371563
0.397772
0.610214
0.372651
0.504654
0.474176
0.313255
0.425208
0.377784
0.346822
0.476978
0.412459
0.58282
0.501809
0.376796
0.40664
0.44592
0.617356
0.517074
0.568242
0.511232
0.407916
0.45351
0.417439
0.366753
0.330146
0.393413
0.403571
0.498725
0.386281
0.336641
0.392673
0.414595
0.388753
0.396647
0.544206
0.407601
0.399883
0.580336
0.552535
0.380707
0.456182
0.565913
0.356947
0.298062
0.409606
0.363756
0.347637
0.563027
0.375932
0.42495
0.573953
0.318526
0.457629
0.389018
0.451915
0.410369
0.389523
0.174543
0.422002
0.339615
0.371644
0.406699
0.403552
0.514623
0.583174
0.386198
0.457548
0.416188
0.361084
0.302484
0.539055
0.484435
0.37547
0.33796
0.469689
0.337517
0.389158
0.380468
0.373964
0.527916
0.581883
0.404159
0.511693
0.616757
0.543328
0.547544
0.573008
0.399534
0.399442
0.349456
0.613379
0.539911
0.559095
0.387579
0.397268
0.31852
0.519702
0.414047
0.367756
0.560669
0.493289
0.355531
0.4196
0.386176
0.391616
0.386815
0.406003
0.411477
0.360381
0.406776
0.32965
0.42515
0.361647
0.493169
0.433203
0.32512
0.566433
0.57712
0.50962
0.401924
0.461284
0.298907
0.518318
0.442901
0.332693
0.563807
0.263236
0.584509
0.338768
0.419944
0.43607
0.506864
0.53014
0.388248
0.596474
0.389522
0.546309
0.421217
0.490209
0.401243
0.378368
0.392142
0.551321
0.434297
0.611397
0.495331
0.327834
0.377409
0.483069
0.280771
0.40303
0.422455
0.36254
0.589425
0.349712
0.336968
0.527452
0.392118
0.582701
0.606221
0.399236
0.614256
0.595743
0.546849
0.561769
0.466858
0.341174
0.377969
0.412807
0.5372
0.416228
0.263643
0.595239
0.362456
0.408603
0.373465
0.57099
0.609599
0.373489
0.543496
0.475864
0.583143
0.422795
0.515658
0.397252
0.598948
0.609709
0.499764
0.37823
0.533153
0.407213
0.449226
0.444103
0.428834
0.475672
0.39085
0.271166
0.349876
0.434668
0.486359
0.460208
0.56
0.370108
0.409996
0.491469
0.353703
0.575546
0.378491
0.396724
0.575231
0.552219
0.467003
0.600822
0.379197
0.397862
0.519308
0.447787
0.43117
0.417644
0.393165
0.482924
0.501183
0.393479
0.385537
0.463655
0.327167
0.358457
0.585316
0.614841
0.612436
0.420125
0.621449
0.609716
0.592657
0.303221
0.476325
0.473502
0.599814
0.406243
0.384445
0.3436
0.377092
0.248087
0.597207
0.420788
0.42746
0.518444
0.499028
0.402219
0.397638
0.609051
0.600282
0.566458
0.502777
0.381943
0.511035
0.48858
0.403259
0.435604
0.352018
0.37575
0.454185
0.432715
0.401343
0.586108
0.58359
0.304563
0.549446
0.392025
0.381534
0.416265
0.582669
0.418618
0.502451
0.420701
0.56813
0.405428
0.423697
0.611248
0.322504
0.324046
0.381417
0.365089
0.287796
0.146117
0.373589
0.296275
0.438118
0.305919
0.359982
0.431918
0.368989
0.373431
0.406154
0.347912
0.166362
0.59668
0.550027
0.406023
0.338052
0.554203
0.386062
0.384304
0.607058
0.379923
0.608032
0.422709
0.555373
0.418367
0.319236
0.354589
0.458878
0.459296
0.438556
0.320662
0.409553
0.363071
0.367828
0.39217
0.325712
0.34946
0.593786
0.373295
0.499987
0.524459
0.407355
0.526232
0.526384
0.342773
0.150898
0.421745
0.331724
0.291263
0.506662
0.509988
0.405653
0.484622
0.402566
0.611395
0.593731
0.41461
0.397264
0.598833
0.561192
0.477769
0.479371
0.40257
0.613946
0.453525
0.303975
0.571641
0.542915
0.584786
0.458588
0.379833
0.41325
0.51154
0.479105
0.0973545
0.61116
0.420859
0.378835
0.442121
0.563188
0.613602
0.606411
0.484835
0.441157
0.531081
0.563193
0.577225
0.503236
0.539188
0.331198
0.387092
0.471168
0.349777
0.330275
0.323356
0.419505
0.526458
0.331607
0.450363
0.387276
0.538962
0.606283
0.418107
0.340445
0.314753
0.509346
0.394252
0.374483
0.324889
0.581496
0.461984
0.467392
0.331259
0.471874
0.377672
0.387138
0.515767
0.522967
0.584731
0.609499
0.373884
0.567117
0.30697
0.574094
0.581205
0.583739
0.532199
0.361872
0.361907
0.405724
0.30146
0.449868
0.322225
0.476187
0.335818
0.559121
0.40626
0.310592
0.5524
0.523764
0.427564
0.432344
0.498212
0.581993
0.462535
0.441902
0.309498
0.54312
0.4464
0.600213
0.29279
0.432736
0.572588
0.511045
0.601869
0.516452
0.410682
0.27486
0.309627
0.430287
0.334402
0.595563
0.300613
0.395262
0.428171
0.378658
0.535477
0.296731
0.576877
0.511512
0.470375
0.276101
0.493644
0.371776
0.410019
0.424412
0.429321
0.395216
0.380874
0.528881
0.362062
0.620031
0.394748
0.42538
0.493005
0.517627
0.597575
0.394719
0.401636
0.372781
0.439507
0.386366
0.58876
0.375117
0.446794
0.40203
0.545706
0.365853
0.456444
0.347521
0.607384
0.300716
0.359958
0.382853
0.551908
0.313855
0.330439
0.358249
0.338946
0.5834
0.443031
0.506104
0.555502
0.495743
0.434158
0.607007
0.44207
0.523102
0.489197
0.458385
0.322906
0.465575
0.418847
0.397785
0.467168
0.353049
0.327634
0.445364
0.397577
0.365189
0.540227
0.439997
0.497795
0.418262
0.594554
0.428312
0.423431
0.490838
0.334126
0.370351
0.401386
0.458375
0.465476
0.478735
0.579567
0.51559
0.534688
0.452908
0.567544
0.598824
0.592657
0.446275
0.450054
0.47512
0.34239
0.60791
0.560297
0.546103
0.432972
0.3585
0.321793
0.474907
0.511201
0.377656
0.545663
0.56133
0.479734
0.39029
0.454637
0.400886
0.37417
0.432999
0.389757
0.466892
0.323524
0.47072
0.43474
0.415449
0.297953
0.466047
0.447739
0.500621
0.40442
0.46169
0.577913
0.589368
0.465278
0.424208
0.535488
0.447691
0.372144
0.374295
0.418137
0.335708
0.578954
0.439004
0.45472
0.512393
0.504769
0.490092
0.349167
0.617521
0.495181
0.380862
0.439822
0.439725
0.535071
0.57401
0.496656
0.475595
0.312865
0.364332
0.413511
0.476969
0.447297
0.464417
0.389583
0.586024
0.483153
0.531974
0.564018
0.459693
0.383373
0.457186
0.60581
0.37035
0.308974
0.456478
0.612063
0.396664
0.416281
0.5293
0.511638
0.549682
0.433418
0.315558
0.474805
0.343321
0.400308
0.548354
0.424034
0.346556
0.375452
0.395677
0.483586
0.4075
0.395985
0.570411
0.383193
0.60749
0.547159
0.337692
0.286197
0.442441
0.520285
0.561655
0.428766
0.41348
0.370134
0.407332
0.431431
0.609648
0.573989
0.516554
0.409664
0.32015
0.582541
0.61655
0.585689
0.536464
0.573101
0.454527
0.35154
0.297883
0.309096
0.597299
0.444572
0.345385
0.416262
0.615984
0.402472
0.389554
0.332692
0.430878
0.372187
0.616161
0.474299
0.518431
0.569782
0.560067
0.403806
0.486941
0.451315
0.510788
0.362441
0.482574
0.389965
0.588311
0.325017
0.398678
0.333979
0.413494
0.576691
0.409932
0.546252
0.565651
0.572623
0.351855
0.448627
0.413964
0.380478
0.583471
0.458796
0.462773
0.471312
0.241997
0.418006
0.58844
0.490899
0.586999
0.303239
0.362283
0.401909
0.592318
0.361834
0.434381
0.365115
0.346496
0.410474
0.59426
0.421812
0.416382
0.332633
0.613958
0.60402
0.244605
0.585089
0.406465
0.353332
0.36289
0.441664
0.338969
0.489736
0.412358
0.399296
0.416484
0.565646
0.432542
0.546206
0.423148
0.353271
0.417508
0.30243
0.321641
0.423542
0.396644
0.469426
0.363809
0.42967
0.564721
0.483177
0.399828
0.314635
0.574086
0.427337
0.434706
0.622693
0.466943
0.397254
0.377725
0.341206
0.596901
0.403137
0.431296
0.482087
0.338221
0.577549
0.327297
0.568058
0.446969
0.524465
0.367803
0.53922
0.424785
0.341463
0.370704
0.447203
0.577052
0.282555
0.386519
0.384277
0.597746
0.61876
0.364761
0.39266
0.486963
0.599583
0.428512
0.582182
0.559185
0.54463
0.526826
0.460527
0.501867
0.488066
0.585344
0.435486
0.456691
0.366804
0.392286
0.435677
0.366159
0.597655
0.340639
0.581456
0.432901
0.592545
0.393433
0.601668
0.52174
0.564204
0.594059
0.577742
0.622051
0.410297
0.565677
0.445289
0.403441
0.390159
0.3631
0.587025
0.342001
0.470733
0.483174
0.419264
0.484683
0.38639
0.588234
0.441844
0.534814
0.299619
0.378411
0.408833
0.616353
0.370009
0.495481
0.397475
0.409958
0.34656
0.420686
0.406522
0.539287
0.589791
0.330489
0.465818
0.404117
0.397258
0.551449
0.373107
0.390517
0.602424
0.309168
0.463869
0.511958
0.575484
0.60604
0.39524
0.385692
0.341543
0.408797
0.380722
0.403377
0.529694
0.401415
0.349959
0.416721
0.449497
0.404332
0.3859
0.384155
0.447351
0.338932
0.532342
0.523269
0.39785
0.53408
0.323298
0.332884
0.363723
0.319945
0.601081
0.409214
0.402591
0.389127
0.561453
0.584099
0.455763
0.531194
0.386327
0.380809
0.452969
0.404915
0.384563
0.585379
0.473509
0.499952
0.606247
0.539672
0.440129
0.594123
0.326104
0.458347
0.454211
0.480064
0.404442
0.594992
0.398475
0.474297
0.437593
0.403765
0.368345
0.389581
0.521697
0.553204
0.567942
0.455552
0.465126
0.596203
0.542958
0.422831
0.467714
0.351687
0.40585
0.544178
0.331211
0.563594
0.398499
0.571731
0.621094
0.587962
0.389626
0.565379
0.561052
0.299461
0.596543
0.374187
0.591376
0.540479
0.402329
0.365448
0.474893
0.410391
0.392257
0.38239
0.543371
0.399598
0.598571
0.358019
0.397406
0.377581
0.356588
0.402472
0.554059
0.61237
0.354605
0.533616
0.446834
0.474518
0.428446
0.485715
0.579972
0.543571
0.398307
0.574079
0.549877
0.607274
0.358284
0.37182
0.387051
0.530097
0.604272
0.55575
0.431702
0.601858
0.443774
0.328642
0.363658
0.28304
0.439421
0.343948
0.609042
0.607824
0.463361
0.624401
0.545275
0.449624
0.599047
0.347503
0.593521
0.403769
0.584569
0.412427
0.362478
0.527183
0.463157
0.591503
0.580461
0.583423
0.371682
0.368697
0.314472
0.567018
0.542457
0.365957
0.453056
0.544179
0.308396
0.391308
0.371357
0.394194
0.47557
0.392623
0.454144
0.521351
0.450534
0.462195
0.523948
0.407044
0.418586
0.473861
0.452568
0.409162
0.56697
0.5929
0.365285
0.539941
0.304746
0.388028
0.572745
0.534289
0.386758
0.586983
0.348685
0.523035
0.425983
0.425831
0.571686
0.414349
0.531995
0.53045
0.505423
0.613902
0.508762
0.340735
0.488567
0.433372
0.531984
0.608602
0.504071
0.444299
0.384626
0.426861
0.572994
0.358767
0.558938
0.375765
0.478693
0.539759
0.524892
0.440193
0.571635
0.601604
0.416
0.408082
0.459895
0.370846
0.34695
0.456475
0.529742
0.376916
0.337193
0.368748
0.333072
0.51913
0.442
0.534727
0.395357
0.585822
0.452537
0.561058
0.611563
0.381482
0.57835
0.415541
0.460131
0.454096
0.569464
0.38735
0.42456
0.457754
0.363585
0.410345
0.364153
0.343631
0.304564
0.603783
0.61507
0.376838
0.392464
0.528458
0.32351
0.369274
0.403668
0.51182
0.52259
0.320138
0.303977
0.580442
0.392547
0.480669
0.39151
0.335922
0.363204
0.46406
0.560903
0.481735
0.330634
0.587443
0.559452
0.376302
0.476311
0.399735
0.610778
0.410014
0.430984
0.346859
0.498141
0.594138
0.482539
0.4559
0.385028
0.441263
0.485708
0.599957
0.624722
0.387205
0.603059
0.390681
0.463108
0.465799
0.422904
0.401854
0.568943
0.403145
0.468722
0.371697
0.359965
0.416869
0.365605
0.508854
0.585646
0.37352
0.391467
0.461144
0.403617
0.372294
0.296895
0.407924
0.569781
0.286698
0.37865
0.525276
0.458834
0.434321
0.495526
0.555564
0.347486
0.350529
0.554434
0.426356
0.358382
0.447967
0.568132
0.497315
0.4628
0.387163
0.38886
0.383071
0.600883
0.55514
0.611218
0.430771
0.507743
0.355218
0.447033
0.562049
0.328266
0.33641
0.523287
0.557482
0.328218
0.398942
0.383718
0.345199
0.384227
0.623744
0.432361
0.39599
0.453783
0.384707
0.527
0.467546
0.352246
0.400343
0.540945
0.440263
0.603156
0.342578
0.392571
0.499476
0.485138
0.420944
0.479943
0.364314
0.605861
0.58738
0.50146
0.572296
0.376073
0.567097
0.491924
0.496503
0.59425
0.32354
0.403168
0.607177
0.494055
0.319247
0.376824
0.55561
0.605807
0.44372
0.529507
0.384728
0.342773
0.373256
0.310462
0.561349
0.386986
0.44539
0.598542
0.38142
0.35162
0.384872
0.463211
0.394603
0.388704
0.386869
0.355805
0.439765
0.541671
0.59329
0.52001
0.406101
0.402314
0.313102
0.395638
0.489469
0.469743
0.509779
0.52688
0.40259
0.430929
0.55242
0.559931
0.608219
0.573464
0.596536
0.44155
0.346775
0.373665
0.356494
0.60024
0.460525
0.389913
0.593273
0.352862
0.546198
0.522989
0.402256
0.39081
0.404251
0.389306
0.55817
0.40806
0.512052
0.441221
0.591718
0.473297
0.611185
0.373021
0.440605
0.375332
0.29956
0.408634
0.537568
0.350572
0.228999
0.461309
0.590198
0.532884
0.386764
0.343945
0.376593
0.353999
0.392931
0.358727
0.421768
0.360095
0.524671
0.376193
0.394742
0.577305
0.4454
0.489788
0.551206
0.410438
0.443408
0.367281
0.540784
0.398691
0.405348
0.434203
0.366741
0.340032
0.391919
0.365501
0.532242
0.611532
0.565407
0.467244
0.517148
0.332064
0.602937
0.479086
0.530437
0.386319
0.521713
0.38115
0.410757
0.544827
0.593605
0.535827
0.466998
0.411159
0.613093
0.41714
0.550639
0.598867
0.504936
0.423012
0.328243
0.549701
0.473574
0.359958
0.495329
0.469573
0.589989
0.384131
0.599577
0.609296
0.420975
0.374805
0.59788
0.346735
0.362519
0.411328
0.359351
0.409587
0.36854
0.344597
0.439449
0.39524
0.374689
0.398086
0.469231
0.369826
0.380432
0.489976
0.446094
0.344246
0.584723
0.616078
0.60478
0.391158
0.335136
0.611098
0.339723
0.436498
0.374735
0.400379
0.383277
0.522898
0.403983
0.396687
0.334302
0.327297
0.361031
0.40651
0.329544
0.437567
0.459891
0.428332
0.591342
0.464591
0.506386
0.424732
0.556287
0.387638
0.405873
0.627161
0.412232
0.467689
0.344473
0.506137
0.615665
0.399978
0.489658
0.470886
0.370053
0.384832
0.378899
0.360334
0.526636
0.364708
0.428119
0.39702
0.421236
0.378707
0.380117
0.43605
0.401925
0.397515
0.614294
0.435511
0.425083
0.461818
0.59255
0.409107
0.329163
0.544563
0.347003
0.417591
0.38669
0.443688
0.384477
0.400123
0.442289
0.607908
0.562886
0.33153
0.39646
0.329291
0.379665
0.316524
0.363915
0.411988
0.372155
0.413107
0.490909
0.623022
0.405922
0.519725
0.454584
0.600743
0.401582
0.615603
0.482859
0.355001
0.490822
0.527021
0.397292
0.563421
0.387299
0.569127
0.389235
0.237378
0.432707
0.620889
0.612018
0.525128
0.49674
0.517267
0.336778
0.380706
0.518446
0.610183
0.256718
0.445612
0.386575
0.388097
0.426582
0.375747
0.352388
0.388001
0.364017
0.396364
0.398365
0.429736
0.612286
0.558889
0.317768
0.541546
0.371363
0.37808
0.547784
0.390224
0.416372
0.509051
0.276047
0.376228
0.442695
0.565371
0.356906
0.382981
0.413655
0.487233
0.355366
0.591318
0.330261
0.404227
0.412593
0.384933
0.498693
0.490003
0.594063
0.384337
0.535608
0.458084
0.484734
0.388155
0.498997
0.369388
0.347184
0.307259
0.477858
0.427645
0.412622
0.578307
0.444118
0.460994
0.498169
0.379144
0.364486
0.406436
0.480447
0.395473
0.621446
0.346796
0.329913
0.408808
0.397287
0.393975
0.377587
0.522694
0.409086
0.434663
0.358488
0.389579
0.429012
0.337437
0.617873
0.606052
0.362293
0.377508
0.560892
0.456698
0.383312
0.342875
0.376784
0.361262
0.457459
0.582086
0.384819
0.338291
0.489766
0.437909
0.331002
0.358912
0.438026
0.514448
0.623392
0.352554
0.324684
0.469927
0.561002
0.408214
0.467883
0.408991
0.388225
0.406994
0.486253
0.423036
0.389951
0.540094
0.41139
0.305402
0.454793
0.394691
0.54582
0.612484
0.397856
0.401934
0.400557
0.403582
0.353405
0.405854
0.362904
0.593975
0.551211
0.512438
0.411493
0.339341
0.537183
0.603394
0.38016
0.451397
0.38935
0.305452
0.439785
0.399333
0.300686
0.358446
0.492522
0.354343
0.331674
0.360185
0.545842
0.347764
0.544543
0.434508
0.386491
0.397
0.374138
0.545658
0.314374
0.408379
0.417437
0.347339
0.467635
0.518778
0.469403
0.428819
0.529121
0.35827
0.360932
0.58147
0.385971
0.577659
0.471886
0.404688
0.472779
0.565677
0.437867
0.327715
0.590497
0.380778
0.413233
0.56713
0.376821
0.599941
0.384539
0.413535
0.294191
0.417403
0.361994
0.442547
0.360812
0.308194
0.356898
0.354713
0.309516
0.582638
0.355296
0.41257
0.471457
0.442709
0.604648
0.608038
0.384514
0.43765
0.549648
0.375378
0.582934
0.318236
0.400479
0.458482
0.381218
0.552342
0.392201
0.399291
0.403872
0.385031
0.378191
0.307051
0.568625
0.173448
0.598896
0.516526
0.360979
0.330951
0.364243
0.624803
0.522117
0.494184
0.433915
0.469923
0.416825
0.567016
0.537295
0.375747
0.487415
0.602706
0.420767
0.448703
0.496435
0.324335
0.35955
0.549482
0.408726
0.431924
0.60054
0.351656
0.320037
0.389941
0.430692
0.417475
0.613598
0.382485
0.340731
0.378957
0.429551
0.384044
0.575089
0.435932
0.369262
0.38617
0.379864
0.378535
0.402678
0.486342
0.448444
0.37077
0.575296
0.399355
0.551384
0.371343
0.352723
0.417161
0.571181
0.604851
0.543538
0.432202
0.42274
0.544016
0.609074
0.349107
0.584355
0.36016
0.503719
0.483397
0.573565
0.433015
0.563873
0.591164
0.394397
0.390127
0.413585
0.448782
0.363394
0.341033
0.34003
0.521314
0.553533
0.346274
0.589929
0.436434
0.531248
0.430084
0.364226
0.550577
0.537576
0.395591
0.399292
0.361398
0.607372
0.521569
0.610842
0.343548
0.362399
0.418543
0.557282
0.492283
0.576635
0.464918
0.610657
0.386849
0.423694
0.448486
0.393977
0.471133
0.314954
0.544102
0.437349
0.457042
0.585403
0.337733
0.348296
0.31911
0.479515
0.570794
0.402477
0.499741
0.32285
0.338813
0.433867
0.394423
0.38546
0.573769
0.449628
0.376449
0.420328
0.479573
0.595946
0.481776
0.40692
0.568311
0.452373
0.597507
0.4395
0.51
0.405415
0.343453
0.620062
0.367686
0.46941
0.464271
0.581258
0.505668
0.426686
0.388866
0.612017
0.423805
0.370507
0.525947
0.603896
0.520342
0.492542
0.339182
0.303528
0.44754
0.373575
0.410244
0.447653
0.370297
0.594244
0.606236
0.587191
0.396838
0.404321
0.385357
0.40645
0.509698
0.350142
0.50752
0.592839
0.353462
0.397084
0.386513
0.556919
0.494356
0.403353
0.374516
0.516702
0.380185
0.310113
0.35485
0.620355
0.311984
0.541435
0.490994
0.384359
0.598707
0.456322
0.624464
0.267785
0.400136
0.460748
0.58834
0.408471
0.583514
0.456735
0.311028
0.423234
0.38991
0.410151
0.304999
0.542889
0.397429
0.374975
0.32486
0.427756
0.575059
0.275574
0.400143
0.569011
0.423277
0.56527
0.314808
0.378855
0.384847
0.413565
0.369606
0.340555
0.378901
0.2811
0.405155
0.403471
0.5332
0.466259
0.571113
0.375949
0.407163
0.34209
0.454587
0.284359
0.411013
0.612679
0.433727
0.400719
0.625674
0.371344
0.463282
0.491326
0.340527
0.393996
0.435241
0.476343
0.594072
0.602972
0.604241
0.481714
0.428856
0.403213
0.363343
0.562527
0.508702
0.387363
0.395886
0.401224
0.430979
0.624335
0.416807
0.622181
0.381694
0.497839
0.364547
0.382535
0.340432
0.393928
0.578548
0.403333
0.348111
0.364331
0.618015
0.397856
0.369944
0.36643
0.380643
0.519338
0.462116
0.470112
0.424563
0.524426
0.331736