/*--------------------------------*- C++ -*----------------------------------*\
  =========                 |
  \\      /  F ield         | OpenFOAM: The Open Source CFD Toolbox
   \\    /   O peration     | Website:  https://openfoam.org
    \\  /    A nd           | Version:  6
     \\/     M anipulation  |
\*---------------------------------------------------------------------------*/
FoamFile
{
    version     2.0;
    format      ascii;
    class       volScalarField;
    location    "0";
    object      P_rec;
}
// * * * * * * * * * * * * * * * * * * * * * * * * * * * * * * * * * * * * * //

dimensions      [0 2 -2 0 0 0 0];

internalField   nonuniform List<scalar> 
918
(
0.613309
0.273854
0.123543
0.638797
-0.00229373
0.148909
-0.773963
0.545541
0.647105
-0.143797
0.0343897
0.498766
-0.0319458
-0.0232893
-1.17073
0.0232807
0.615022
-0.735339
0.456039
0.0274109
-0.153244
0.642056
0.565226
0.450354
0.5443
-0.11719
0.0679135
-0.0412853
-0.0637789
-0.0482463
-0.00157746
0.0571048
0.0111888
0.120722
0.120537
0.171322
0.464681
0.227777
-0.641136
-0.689172
-0.684581
-0.859494
0.55737
0.572303
-0.248714
0.523039
0.494408
0.465765
0.622743
0.650659
0.571269
0.624449
0.656523
0.2523
-0.195456
-0.263133
-0.0953824
-0.0932268
0.0716987
0.0280097
0.013943
0.0666936
0.053519
0.414461
0.489666
0.485474
0.51089
0.508839
0.235444
0.196767
0.248124
-0.0365207
0.11754
-0.0526266
0.0744133
-0.0183065
0.0199587
-0.0396009
-0.0571032
-1.42679
-2.17477
-0.707971
-0.584857
0.00514925
0.0244296
0.0334819
0.605263
0.60694
0.601219
0.610879
0.712822
-0.667186
-0.844425
0.489927
0.490269
0.63021
0.577479
0.512489
0.437537
0.0243536
0.0207875
0.012889
0.0446849
0.0353297
0.0748361
0.209524
0.428231
0.46497
0.508432
0.535065
0.522216
0.247918
0.584038
0.58036
-0.118096
0.0387072
-0.111209
-0.0239593
0.0812541
0.0494028
0.152097
0.188259
-0.0685504
-0.0119052
0.041824
0.00374325
0.0312672
0.463456
0.453258
0.47899
0.467679
0.472865
0.129811
0.0373024
0.298441
0.33256
-0.511063
-0.547474
-0.75985
-0.774765
-0.890787
0.513418
0.577856
0.593539
-0.365326
-0.226171
-0.397286
-0.137731
-0.181826
0.470234
0.461788
0.462456
0.470274
0.474406
0.475233
0.631912
0.623954
0.664638
0.262972
0.344959
0.23873
0.194071
-0.478555
-0.361472
-0.460939
-0.0631308
-0.0185947
0.0591998
0.0940912
0.109029
0.079285
-0.0132968
0.0102837
-0.00433456
0.0221208
0.0215327
0.418106
0.402329
0.416161
0.425915
0.482447
0.481219
0.487875
0.489621
0.16403
0.151257
0.104042
0.0801763
-2.96034
-5.10702
-0.40024
-0.31549
-0.00317397
-0.015707
-0.00581959
-0.0928617
-0.0177867
-0.0469596
0.0701641
0.0408137
0.0360715
0.0558025
0.603826
0.617608
0.703055
0.72668
0.634487
0.63058
0.488204
0.498711
0.49291
0.495537
0.0348287
0.0219859
0.0372222
0.45566
0.333439
0.393294
0.21458
0.119261
0.295375
0.335877
0.606689
0.589921
0.611496
-0.126595
-0.042803
0.303282
0.0247988
0.283337
0.0902724
0.052812
0.105998
0.0136669
0.431136
0.448601
0.445488
0.474171
0.482984
0.482377
0.48466
0.476227
0.480143
-0.123204
-0.414791
0.434254
0.428193
0.370268
0.415686
0.575234
0.622526
0.60161
0.588885
0.599278
-0.0337952
-0.0695179
0.143827
0.133685
0.366119
0.381449
0.371557
0.0774132
0.037624
0.0752453
0.0625356
0.0393832
0.0911442
-0.390702
-1.73672
-0.985703
-0.141807
-0.213232
-0.191099
0.0372593
0.107088
0.0717888
0.694711
0.745598
0.394358
0.557858
0.509636
-0.171626
-0.0852693
0.0241971
-0.104427
-0.0499242
0.0319546
-0.0169065
0.438341
0.408968
0.43207
0.638338
0.699019
0.0817075
0.0172626
-0.0227982
0.116206
0.106467
0.106579
0.731676
0.696014
0.728418
0.438281
0.424466
-0.0653947
-0.00495777
0.547459
0.57747
-0.0696138
-0.0298705
-0.117932
-0.744693
0.0784662
0.493285
0.448026
0.508611
-0.197201
0.149579
0.000247569
0.0137533
-0.0390558
0.468172
0.392925
0.362149
-0.0677798
0.00597633
-0.00573362
-0.445712
0.503494
0.485814
0.492218
0.505095
0.51906
-0.00684635
-0.0159661
0.0324003
-0.0375813
0.0470608
0.0440359
0.473996
0.463034
-0.432969
0.485956
0.512858
0.510865
0.526145
0.527106
0.513191
-0.0156385
0.0344594
0.0414749
0.18257
0.287636
-0.0366511
-0.120016
0.00540471
-0.127477
-0.307437
-0.06347
-0.0653005
-0.0611188
-0.0640996
0.564416
0.525341
0.167906
-0.0222366
0.150683
0.117712
0.48966
0.50919
0.479826
0.493047
0.513273
0.456653
0.529624
0.494168
0.489974
0.538672
-0.151678
-0.0627012
-0.143517
-0.271225
0.224947
0.340063
0.129605
0.212133
0.0801749
-0.0161168
0.0480054
-0.0267122
-0.000303462
-0.0100613
0.105449
0.0339761
0.139851
0.0205122
0.114937
-0.0500999
0.147798
-0.00927911
0.450406
0.472297
0.469186
0.513468
0.427257
0.448011
0.425718
0.422533
0.444304
0.373276
0.392105
0.392801
0.0153312
0.0156411
0.0496431
0.0217698
0.0479155
-0.0304003
-0.0251813
-0.0251618
-0.00378623
-0.0511568
-0.0127224
-0.0031076
-0.362837
-0.52674
0.623163
0.531765
-0.0238707
0.458338
0.507901
0.478681
0.521015
0.531089
0.566386
0.527582
0.503439
0.470203
0.4879
0.468908
0.489156
-0.344604
-0.413767
-0.26816
-0.311259
0.14664
0.586447
0.342461
0.288486
0.281193
0.445475
0.390512
0.111393
-0.246811
-0.385479
-0.487198
-0.370454
-0.517688
-0.0602992
0.000203041
-0.119391
-0.0459772
0.0331322
-0.0291617
-0.0349727
-0.0903927
0.472121
-0.153113
-0.133788
0.0985637
0.0104798
0.238993
0.56442
0.574322
0.502363
0.476151
0.549872
0.521518
0.521274
0.552112
0.557992
0.466503
0.229992
0.22018
0.151869
0.575189
0.488966
0.523961
0.406197
0.512685
0.517316
0.493932
0.482788
0.524392
0.482982
0.477517
0.452672
0.444603
0.48857
0.492268
0.458897
-0.0243082
-0.0351585
-0.15351
-0.354329
-0.220719
-0.31498
-0.196888
-0.114486
-0.192274
-0.0436552
0.184152
-0.125678
-0.291781
-0.154943
-0.250649
-0.00403329
-0.0775884
0.0952803
0.113571
0.0912502
0.111338
0.167054
0.142669
0.0274823
0.0322962
0.0694089
-0.0122029
0.125442
0.0771152
0.147837
0.0618292
0.119748
0.0724353
0.0303517
-0.0308846
0.0890376
0.0298107
-0.0300063
0.031702
0.0175177
-0.0794859
-0.0772153
0.190875
0.0523546
0.49702
0.478087
0.480386
0.500104
0.536324
0.526591
0.46897
0.472407
0.504175
0.470349
0.438857
0.419003
0.406809
0.442144
0.453548
0.44926
0.493867
0.484167
0.454974
0.477377
0.420438
0.440938
0.390454
0.413233
0.443386
-0.105462
0.0280359
-0.0369463
-0.0449381
0.0152199
0.0580272
0.120871
0.0320439
0.126104
0.0967514
0.0627502
0.0362134
0.0642893
-0.228713
-0.12619
-0.34772
-0.434293
-0.528551
0.595781
0.679434
0.554716
0.394186
0.447416
0.552286
0.658311
0.379508
0.409327
0.508425
0.42088
0.615278
0.491991
0.475736
0.497827
0.521809
0.494535
-0.187024
-0.0452046
-0.00355165
0.109983
0.210361
0.270358
0.130456
0.0950846
0.18474
0.206903
0.566542
0.587668
0.554248
0.588329
0.583284
0.378644
0.474105
0.501443
0.501117
0.500631
0.522929
0.534317
0.527394
0.452911
0.451436
0.457206
0.416043
0.440169
0.411415
0.412074
0.467652
0.44477
0.445201
0.458462
0.510084
0.48343
0.515722
0.564003
0.539994
0.437198
0.41907
0.445274
0.454937
0.433928
0.432784
0.425402
0.134846
0.157229
0.0866859
-0.0856942
0.0365202
-0.0275845
-0.0766912
-0.0598299
0.0754654
-0.394695
-0.336675
-0.847675
0.350056
0.451861
0.213964
-0.0790868
0.454682
0.497273
0.481971
0.372176
0.379837
0.558111
0.579285
0.588842
0.514721
0.506242
0.528362
0.511088
0.46864
0.335065
0.261182
0.312678
0.150511
0.213623
0.368606
0.309643
0.269103
0.30312
0.390794
0.296174
0.321411
0.397315
0.357106
0.35193
0.475951
0.521831
0.540692
0.480179
0.388973
0.453346
0.437825
0.486045
0.528248
0.530623
0.494242
0.473831
0.485003
0.475865
0.462969
0.482248
0.448416
0.49938
0.505366
0.513928
0.507723
-0.0262176
-0.00436509
0.0119522
-0.0321211
-0.109248
-0.157102
-0.169853
-0.167239
0.0533816
0.0195801
-0.100616
-0.0364121
0.0745151
0.0176057
0.0275093
0.0341319
-0.0429487
-0.103817
0.108841
0.274011
0.272474
0.212564
0.0798545
0.104191
0.215468
0.00919389
0.125203
0.0722103
0.0268501
0.0171318
0.0197999
0.12238
0.0480671
0.0915038
0.0344163
-0.127968
0.0493694
0.107944
-0.0544092
0.0092303
0.04536
0.456887
0.462391
0.446297
0.426117
0.433485
0.43103
0.468358
0.497402
0.497731
0.496556
0.504961
0.485148
0.491347
0.0153583
0.147669
0.179998
0.101745
0.0542283
-0.00607684
-0.0267262
0.107911
-0.0416523
0.00884781
-0.147163
-0.262811
-0.20032
0.339509
0.379315
0.371008
0.575066
0.433085
0.33686
0.434064
0.560837
0.268754
0.356848
0.244306
0.602406
0.549013
0.648025
0.419034
0.0519477
0.144721
0.294443
0.00700261
0.0134663
0.136897
0.155322
0.158645
0.146072
0.225443
0.203771
0.175306
0.0673332
0.1029
0.256874
0.237694
0.317301
0.369784
0.0714028
0.0977688
0.0413334
0.542446
0.567977
0.590369
0.562733
0.583188
0.524287
0.520356
0.554751
0.583637
0.572044
-0.706304
-0.45322
-1.25859
-0.551375
-0.263977
0.464006
0.180095
0.846129
0.663842
0.522379
0.540341
0.540117
0.498794
0.558966
0.558887
0.303853
0.398746
0.337823
0.379611
0.289276
0.216018
0.522625
0.507897
0.535815
0.554905
0.510696
0.553929
0.408771
0.454616
0.434896
0.472262
0.498786
0.520307
0.0364796
-0.0274171
-0.0137023
-0.0284826
-0.0402403
-0.05863
-0.0482477
-0.0134968
0.190024
0.123593
0.0577453
0.119351
0.0122408
0.00706298
-0.101905
-0.0235772
-0.120464
-0.252431
-0.232723
-0.198511
-0.106055
-0.0266447
0.34682
0.489943
0.401423
0.528964
0.370189
0.510466
0.367446
0.37412
0.398032
0.296041
0.337524
0.0171972
-0.295907
-0.182225
0.936075
1.02392
0.64254
0.375884
0.136051
0.464829
0.493077
0.421356
0.439443
0.52557
0.483408
-0.0932511
0.00327333
-0.0662184
-0.012331
0.144465
0.077459
0.0822344
0.0709205
0.0799304
)
;

boundaryField
{
    wall-4
    {
        type            calculated;
        value           nonuniform List<scalar> 
100
(
0.613309
0.273854
0.123543
0.638797
0.148909
-0.773963
0.545541
-0.143797
0.0343897
0.498766
-0.0319458
-0.0232893
-1.17073
0.615022
-0.735339
0.456039
0.0274109
-0.153244
0.450354
0.5443
-0.11719
0.0679135
-0.0412853
0.120722
0.464681
-0.689172
-0.859494
0.572303
-0.248714
0.494408
0.465765
-0.263133
-0.0932268
0.013943
0.053519
0.414461
0.485474
0.508839
0.11754
0.0744133
0.0199587
-0.0571032
-2.17477
-0.584857
0.60694
0.610879
-0.844425
0.490269
0.437537
0.0207875
0.0353297
0.209524
0.46497
0.522216
0.247918
0.58036
-0.118096
-0.0239593
0.0494028
0.188259
0.453258
0.47899
0.472865
-0.547474
-0.890787
0.593539
-0.397286
-0.181826
0.462456
0.475233
-0.460939
-0.0185947
-0.00433456
0.0215327
0.402329
0.425915
0.482447
0.489621
0.0801763
-0.31549
0.617608
0.488204
0.495537
0.0372222
0.393294
0.119261
0.335877
0.611496
-0.042803
0.0902724
0.445488
0.482377
0.480143
0.599278
-0.0695179
0.371557
0.0625356
-0.191099
-0.0499242
-0.0227982
)
;
    }
    velocity-inlet-5
    {
        type            calculated;
        value           nonuniform List<scalar> 8(0.613309 0.638797 0.647105 0.642056 0.650659 0.656523 0.63021 0.664638);
    }
    velocity-inlet-6
    {
        type            calculated;
        value           nonuniform List<scalar> 4(0.273854 0.148909 0.171322 0.248124);
    }
    pressure-outlet-7
    {
        type            calculated;
        value           uniform 0;
    }
    wall-8
    {
        type            calculated;
        value           nonuniform List<scalar> 
34
(
-0.00229373
0.0232807
0.0111888
0.227777
0.2523
0.0716987
0.0334819
0.712822
0.0312672
0.0373024
0.33256
0.513418
0.344959
0.194071
0.0940912
0.079285
-5.10702
0.0701641
0.0558025
0.72668
0.63058
-0.414791
0.434254
0.415686
0.622526
0.133685
-0.985703
0.0717888
0.745598
0.509636
0.43207
0.699019
0.106579
0.728418
)
;
    }
    frontAndBackPlanes
    {
        type            empty;
    }
}

