/*--------------------------------*- C++ -*----------------------------------*\
  =========                 |
  \\      /  F ield         | OpenFOAM: The Open Source CFD Toolbox
   \\    /   O peration     | Website:  https://openfoam.org
    \\  /    A nd           | Version:  6
     \\/     M anipulation  |
\*---------------------------------------------------------------------------*/
FoamFile
{
    version     2.0;
    format      ascii;
    class       volScalarField;
    location    "0";
    object      p;
}
// * * * * * * * * * * * * * * * * * * * * * * * * * * * * * * * * * * * * * //

dimensions      [0 2 -2 0 0 0 0];

internalField   nonuniform List<scalar> 
145945
(
2.62603e-06
2.62564e-06
2.62556e-06
2.62551e-06
2.62558e-06
2.62562e-06
2.62569e-06
2.62572e-06
2.62575e-06
2.62575e-06
2.62574e-06
2.62569e-06
2.62568e-06
2.62562e-06
2.62571e-06
2.62577e-06
2.62618e-06
2.62564e-06
2.62544e-06
2.62538e-06
2.62538e-06
2.62545e-06
2.6255e-06
2.62556e-06
2.6256e-06
2.62563e-06
2.62563e-06
2.62562e-06
2.62557e-06
2.62555e-06
2.6255e-06
2.62555e-06
2.62558e-06
2.6258e-06
2.62556e-06
2.62538e-06
2.62532e-06
2.62535e-06
2.62543e-06
2.6255e-06
2.62557e-06
2.62561e-06
2.62564e-06
2.62564e-06
2.62562e-06
2.62558e-06
2.62555e-06
2.62549e-06
2.6255e-06
2.62553e-06
2.62572e-06
2.62551e-06
2.62538e-06
2.62535e-06
2.62542e-06
2.62552e-06
2.62559e-06
2.62566e-06
2.62571e-06
2.62574e-06
2.62574e-06
2.62572e-06
2.62567e-06
2.62563e-06
2.62557e-06
2.62555e-06
2.62554e-06
2.62568e-06
2.62558e-06
2.62545e-06
2.62543e-06
2.62552e-06
2.62561e-06
2.62569e-06
2.62576e-06
2.62581e-06
2.62584e-06
2.62584e-06
2.62582e-06
2.62578e-06
2.62573e-06
2.62567e-06
2.62564e-06
2.62562e-06
2.62575e-06
2.62562e-06
2.6255e-06
2.6255e-06
2.62559e-06
2.62569e-06
2.62578e-06
2.62585e-06
2.62589e-06
2.62592e-06
2.62593e-06
2.62591e-06
2.62586e-06
2.62581e-06
2.62575e-06
2.6257e-06
2.62568e-06
2.62579e-06
2.62569e-06
2.62556e-06
2.62557e-06
2.62566e-06
2.62576e-06
2.62585e-06
2.62591e-06
2.62596e-06
2.62599e-06
2.62599e-06
2.62598e-06
2.62593e-06
2.62589e-06
2.62583e-06
2.62578e-06
2.62575e-06
2.62586e-06
2.62572e-06
2.6256e-06
2.62561e-06
2.62571e-06
2.62581e-06
2.62589e-06
2.62596e-06
2.62601e-06
2.62604e-06
2.62604e-06
2.62602e-06
2.62598e-06
2.62593e-06
2.62587e-06
2.62582e-06
2.62579e-06
2.6259e-06
2.62575e-06
2.62563e-06
2.62564e-06
2.62574e-06
2.62584e-06
2.62592e-06
2.62599e-06
2.62604e-06
2.62607e-06
2.62607e-06
2.62605e-06
2.62601e-06
2.62596e-06
2.62591e-06
2.62585e-06
2.62582e-06
2.62593e-06
2.62575e-06
2.62563e-06
2.62564e-06
2.62574e-06
2.62584e-06
2.62593e-06
2.626e-06
2.62604e-06
2.62607e-06
2.62608e-06
2.62606e-06
2.62602e-06
2.62597e-06
2.6259e-06
2.62585e-06
2.62582e-06
2.62593e-06
2.62574e-06
2.62562e-06
2.62562e-06
2.62572e-06
2.62582e-06
2.62591e-06
2.62598e-06
2.62603e-06
2.62605e-06
2.62606e-06
2.62604e-06
2.626e-06
2.62595e-06
2.62589e-06
2.62583e-06
2.6258e-06
2.62591e-06
2.62569e-06
2.62557e-06
2.62558e-06
2.62567e-06
2.62578e-06
2.62586e-06
2.62594e-06
2.62599e-06
2.62601e-06
2.62602e-06
2.626e-06
2.62595e-06
2.6259e-06
2.62584e-06
2.62579e-06
2.62575e-06
2.62586e-06
2.62568e-06
2.62555e-06
2.62555e-06
2.62563e-06
2.62573e-06
2.62582e-06
2.62589e-06
2.62593e-06
2.62597e-06
2.62597e-06
2.62595e-06
2.6259e-06
2.62585e-06
2.62579e-06
2.62575e-06
2.62573e-06
2.62585e-06
2.62563e-06
2.62551e-06
2.62549e-06
2.62558e-06
2.62567e-06
2.62575e-06
2.62583e-06
2.62588e-06
2.62591e-06
2.62591e-06
2.62589e-06
2.62584e-06
2.62579e-06
2.62573e-06
2.62569e-06
2.62568e-06
2.6258e-06
2.62572e-06
2.62555e-06
2.6255e-06
2.62555e-06
2.62564e-06
2.62571e-06
2.62578e-06
2.62582e-06
2.62585e-06
2.62585e-06
2.62583e-06
2.62579e-06
2.62575e-06
2.62569e-06
2.62569e-06
2.62571e-06
2.62588e-06
2.62577e-06
2.62558e-06
2.62554e-06
2.62555e-06
2.62563e-06
2.62568e-06
2.62575e-06
2.62579e-06
2.62582e-06
2.62582e-06
2.6258e-06
2.62576e-06
2.62573e-06
2.62568e-06
2.62571e-06
2.62573e-06
2.62593e-06
2.62619e-06
2.6258e-06
2.62572e-06
2.62568e-06
2.62575e-06
2.62579e-06
2.62587e-06
2.6259e-06
2.62593e-06
2.62593e-06
2.62592e-06
2.62587e-06
2.62585e-06
2.6258e-06
2.62588e-06
2.62593e-06
2.62634e-06
2.55387e-06
2.55375e-06
2.55388e-06
2.55402e-06
2.55423e-06
2.55441e-06
2.55457e-06
2.55467e-06
2.55472e-06
2.5547e-06
2.55462e-06
2.55449e-06
2.55433e-06
2.55414e-06
2.55401e-06
2.55385e-06
2.55397e-06
2.55375e-06
2.55379e-06
2.55396e-06
2.55416e-06
2.5544e-06
2.5546e-06
2.55477e-06
2.55488e-06
2.55494e-06
2.55492e-06
2.55483e-06
2.55469e-06
2.55451e-06
2.55429e-06
2.55411e-06
2.55391e-06
2.55386e-06
2.55388e-06
2.55396e-06
2.55415e-06
2.55439e-06
2.55465e-06
2.55488e-06
2.55507e-06
2.55519e-06
2.55524e-06
2.55522e-06
2.55513e-06
2.55498e-06
2.55478e-06
2.55454e-06
2.55431e-06
2.55409e-06
2.55399e-06
2.55402e-06
2.55416e-06
2.55439e-06
2.55468e-06
2.55496e-06
2.55521e-06
2.5554e-06
2.55553e-06
2.55559e-06
2.55556e-06
2.55547e-06
2.55531e-06
2.55509e-06
2.55483e-06
2.55456e-06
2.55431e-06
2.55414e-06
2.55423e-06
2.5544e-06
2.55465e-06
2.55496e-06
2.55526e-06
2.55552e-06
2.55572e-06
2.55585e-06
2.55591e-06
2.55589e-06
2.55579e-06
2.55562e-06
2.5554e-06
2.55512e-06
2.55483e-06
2.55455e-06
2.55435e-06
2.55441e-06
2.5546e-06
2.55488e-06
2.55521e-06
2.55552e-06
2.55578e-06
2.55599e-06
2.55612e-06
2.55618e-06
2.55616e-06
2.55606e-06
2.55589e-06
2.55566e-06
2.55537e-06
2.55507e-06
2.55476e-06
2.55453e-06
2.55457e-06
2.55477e-06
2.55507e-06
2.5554e-06
2.55572e-06
2.55599e-06
2.5562e-06
2.55633e-06
2.55639e-06
2.55637e-06
2.55627e-06
2.5561e-06
2.55586e-06
2.55557e-06
2.55526e-06
2.55494e-06
2.55469e-06
2.55467e-06
2.55488e-06
2.55519e-06
2.55553e-06
2.55585e-06
2.55612e-06
2.55633e-06
2.55647e-06
2.55653e-06
2.55651e-06
2.55641e-06
2.55623e-06
2.55599e-06
2.5557e-06
2.55538e-06
2.55505e-06
2.55479e-06
2.55472e-06
2.55494e-06
2.55524e-06
2.55559e-06
2.55591e-06
2.55618e-06
2.55639e-06
2.55653e-06
2.55659e-06
2.55657e-06
2.55647e-06
2.55629e-06
2.55605e-06
2.55576e-06
2.55544e-06
2.5551e-06
2.55485e-06
2.5547e-06
2.55492e-06
2.55522e-06
2.55556e-06
2.55589e-06
2.55616e-06
2.55637e-06
2.55651e-06
2.55657e-06
2.55655e-06
2.55645e-06
2.55627e-06
2.55603e-06
2.55574e-06
2.55542e-06
2.55508e-06
2.55483e-06
2.55462e-06
2.55483e-06
2.55513e-06
2.55547e-06
2.55579e-06
2.55606e-06
2.55627e-06
2.55641e-06
2.55647e-06
2.55645e-06
2.55635e-06
2.55617e-06
2.55593e-06
2.55564e-06
2.55532e-06
2.555e-06
2.55475e-06
2.55449e-06
2.55469e-06
2.55498e-06
2.55531e-06
2.55562e-06
2.55589e-06
2.5561e-06
2.55623e-06
2.55629e-06
2.55627e-06
2.55617e-06
2.556e-06
2.55576e-06
2.55548e-06
2.55516e-06
2.55485e-06
2.55462e-06
2.55434e-06
2.55451e-06
2.55478e-06
2.55509e-06
2.5554e-06
2.55566e-06
2.55586e-06
2.55599e-06
2.55605e-06
2.55603e-06
2.55593e-06
2.55576e-06
2.55553e-06
2.55526e-06
2.55496e-06
2.55467e-06
2.55446e-06
2.55414e-06
2.55429e-06
2.55454e-06
2.55483e-06
2.55512e-06
2.55537e-06
2.55557e-06
2.5557e-06
2.55576e-06
2.55574e-06
2.55564e-06
2.55548e-06
2.55526e-06
2.55499e-06
2.55471e-06
2.55445e-06
2.55426e-06
2.55401e-06
2.55411e-06
2.55431e-06
2.55456e-06
2.55483e-06
2.55507e-06
2.55526e-06
2.55538e-06
2.55544e-06
2.55542e-06
2.55532e-06
2.55517e-06
2.55496e-06
2.55471e-06
2.55447e-06
2.55425e-06
2.55413e-06
2.55386e-06
2.55391e-06
2.5541e-06
2.55431e-06
2.55455e-06
2.55476e-06
2.55494e-06
2.55505e-06
2.5551e-06
2.55508e-06
2.555e-06
2.55485e-06
2.55467e-06
2.55445e-06
2.55425e-06
2.55404e-06
2.55397e-06
2.55397e-06
2.55386e-06
2.55399e-06
2.55414e-06
2.55435e-06
2.55453e-06
2.55469e-06
2.5548e-06
2.55485e-06
2.55483e-06
2.55475e-06
2.55462e-06
2.55446e-06
2.55426e-06
2.55413e-06
2.55397e-06
2.55408e-06
2.50499e-06
2.50591e-06
2.50678e-06
2.50755e-06
2.50824e-06
2.50876e-06
2.50914e-06
2.50937e-06
2.50946e-06
2.5094e-06
2.50921e-06
2.50887e-06
2.50838e-06
2.50771e-06
2.50693e-06
2.50597e-06
2.505e-06
2.50591e-06
2.50676e-06
2.5076e-06
2.50837e-06
2.50905e-06
2.50957e-06
2.50995e-06
2.51018e-06
2.51027e-06
2.51021e-06
2.51002e-06
2.50967e-06
2.50919e-06
2.50853e-06
2.50774e-06
2.50681e-06
2.50594e-06
2.50678e-06
2.5076e-06
2.50838e-06
2.50912e-06
2.50978e-06
2.51029e-06
2.51067e-06
2.51089e-06
2.51098e-06
2.51093e-06
2.51074e-06
2.5104e-06
2.50992e-06
2.50928e-06
2.50851e-06
2.50764e-06
2.5068e-06
2.50755e-06
2.50837e-06
2.50912e-06
2.50985e-06
2.51049e-06
2.51099e-06
2.51136e-06
2.51158e-06
2.51167e-06
2.51162e-06
2.51143e-06
2.51109e-06
2.51062e-06
2.51e-06
2.50924e-06
2.5084e-06
2.50757e-06
2.50824e-06
2.50905e-06
2.50978e-06
2.51049e-06
2.51112e-06
2.51161e-06
2.51197e-06
2.51219e-06
2.51228e-06
2.51223e-06
2.51204e-06
2.51171e-06
2.51125e-06
2.51064e-06
2.5099e-06
2.50909e-06
2.50826e-06
2.50876e-06
2.50957e-06
2.51029e-06
2.51099e-06
2.51161e-06
2.5121e-06
2.51246e-06
2.51268e-06
2.51276e-06
2.51271e-06
2.51253e-06
2.51221e-06
2.51175e-06
2.51114e-06
2.51041e-06
2.50961e-06
2.50878e-06
2.50914e-06
2.50995e-06
2.51067e-06
2.51136e-06
2.51197e-06
2.51246e-06
2.51281e-06
2.51303e-06
2.51312e-06
2.51307e-06
2.51288e-06
2.51256e-06
2.5121e-06
2.51151e-06
2.51078e-06
2.50999e-06
2.50916e-06
2.50937e-06
2.51018e-06
2.51089e-06
2.51158e-06
2.51219e-06
2.51268e-06
2.51303e-06
2.51325e-06
2.51333e-06
2.51328e-06
2.5131e-06
2.51278e-06
2.51233e-06
2.51173e-06
2.511e-06
2.51022e-06
2.50939e-06
2.50946e-06
2.51027e-06
2.51098e-06
2.51167e-06
2.51228e-06
2.51276e-06
2.51312e-06
2.51333e-06
2.51342e-06
2.51337e-06
2.51318e-06
2.51287e-06
2.51241e-06
2.51182e-06
2.51109e-06
2.51031e-06
2.50948e-06
2.5094e-06
2.51021e-06
2.51093e-06
2.51162e-06
2.51223e-06
2.51271e-06
2.51307e-06
2.51328e-06
2.51337e-06
2.51332e-06
2.51313e-06
2.51282e-06
2.51236e-06
2.51176e-06
2.51104e-06
2.51025e-06
2.50942e-06
2.50921e-06
2.51002e-06
2.51074e-06
2.51143e-06
2.51204e-06
2.51253e-06
2.51288e-06
2.5131e-06
2.51318e-06
2.51313e-06
2.51295e-06
2.51263e-06
2.51217e-06
2.51157e-06
2.51085e-06
2.51006e-06
2.50923e-06
2.50887e-06
2.50967e-06
2.5104e-06
2.51109e-06
2.51171e-06
2.51221e-06
2.51256e-06
2.51278e-06
2.51287e-06
2.51282e-06
2.51263e-06
2.51231e-06
2.51185e-06
2.51124e-06
2.51051e-06
2.50971e-06
2.50889e-06
2.50838e-06
2.50919e-06
2.50992e-06
2.51062e-06
2.51125e-06
2.51175e-06
2.51211e-06
2.51233e-06
2.51241e-06
2.51236e-06
2.51217e-06
2.51185e-06
2.51138e-06
2.51077e-06
2.51003e-06
2.50923e-06
2.5084e-06
2.50771e-06
2.50853e-06
2.50928e-06
2.51e-06
2.51064e-06
2.51114e-06
2.51151e-06
2.51173e-06
2.51182e-06
2.51176e-06
2.51158e-06
2.51124e-06
2.51077e-06
2.51015e-06
2.5094e-06
2.50857e-06
2.50773e-06
2.50693e-06
2.50774e-06
2.50851e-06
2.50924e-06
2.5099e-06
2.51041e-06
2.51078e-06
2.51101e-06
2.51109e-06
2.51104e-06
2.51085e-06
2.51051e-06
2.51003e-06
2.5094e-06
2.50863e-06
2.50778e-06
2.50695e-06
2.50597e-06
2.50681e-06
2.50764e-06
2.50841e-06
2.50909e-06
2.50961e-06
2.50999e-06
2.51022e-06
2.51031e-06
2.51025e-06
2.51006e-06
2.50971e-06
2.50923e-06
2.50857e-06
2.50778e-06
2.50686e-06
2.50599e-06
2.505e-06
2.50594e-06
2.5068e-06
2.50757e-06
2.50826e-06
2.50878e-06
2.50916e-06
2.50939e-06
2.50948e-06
2.50942e-06
2.50923e-06
2.50889e-06
2.5084e-06
2.50773e-06
2.50695e-06
2.50599e-06
2.50502e-06
2.45412e-06
2.45582e-06
2.45737e-06
2.45885e-06
2.4601e-06
2.46103e-06
2.46169e-06
2.46209e-06
2.46225e-06
2.46215e-06
2.4618e-06
2.4612e-06
2.46034e-06
2.45916e-06
2.45769e-06
2.45599e-06
2.45417e-06
2.45582e-06
2.45725e-06
2.45876e-06
2.4602e-06
2.46141e-06
2.46232e-06
2.46296e-06
2.46336e-06
2.46351e-06
2.46341e-06
2.46308e-06
2.46249e-06
2.46165e-06
2.46051e-06
2.45907e-06
2.45742e-06
2.45588e-06
2.45737e-06
2.45876e-06
2.4602e-06
2.46158e-06
2.46274e-06
2.46361e-06
2.46423e-06
2.46461e-06
2.46475e-06
2.46466e-06
2.46434e-06
2.46378e-06
2.46297e-06
2.46188e-06
2.46051e-06
2.45892e-06
2.45743e-06
2.45885e-06
2.4602e-06
2.46158e-06
2.46291e-06
2.46402e-06
2.46486e-06
2.46546e-06
2.46582e-06
2.46596e-06
2.46587e-06
2.46556e-06
2.46502e-06
2.46424e-06
2.4632e-06
2.46187e-06
2.46035e-06
2.45891e-06
2.4601e-06
2.46141e-06
2.46274e-06
2.46402e-06
2.4651e-06
2.46591e-06
2.46649e-06
2.46684e-06
2.46698e-06
2.46689e-06
2.46659e-06
2.46607e-06
2.46531e-06
2.46431e-06
2.46303e-06
2.46157e-06
2.46016e-06
2.46103e-06
2.46232e-06
2.46361e-06
2.46486e-06
2.46591e-06
2.46671e-06
2.46727e-06
2.46761e-06
2.46775e-06
2.46767e-06
2.46737e-06
2.46686e-06
2.46613e-06
2.46514e-06
2.46389e-06
2.46247e-06
2.46109e-06
2.46169e-06
2.46296e-06
2.46423e-06
2.46546e-06
2.46649e-06
2.46727e-06
2.46782e-06
2.46816e-06
2.46829e-06
2.46821e-06
2.46792e-06
2.46742e-06
2.4667e-06
2.46573e-06
2.46451e-06
2.46312e-06
2.46175e-06
2.46209e-06
2.46336e-06
2.46461e-06
2.46582e-06
2.46684e-06
2.46761e-06
2.46816e-06
2.4685e-06
2.46863e-06
2.46855e-06
2.46826e-06
2.46776e-06
2.46705e-06
2.4661e-06
2.46488e-06
2.46351e-06
2.46216e-06
2.46225e-06
2.46351e-06
2.46475e-06
2.46596e-06
2.46698e-06
2.46775e-06
2.46829e-06
2.46863e-06
2.46876e-06
2.46868e-06
2.46839e-06
2.4679e-06
2.46719e-06
2.46624e-06
2.46503e-06
2.46366e-06
2.46231e-06
2.46215e-06
2.46341e-06
2.46466e-06
2.46587e-06
2.46689e-06
2.46767e-06
2.46821e-06
2.46855e-06
2.46868e-06
2.4686e-06
2.46831e-06
2.46782e-06
2.4671e-06
2.46615e-06
2.46494e-06
2.46356e-06
2.46221e-06
2.4618e-06
2.46308e-06
2.46434e-06
2.46556e-06
2.46659e-06
2.46737e-06
2.46792e-06
2.46826e-06
2.46839e-06
2.46831e-06
2.46802e-06
2.46752e-06
2.4668e-06
2.46584e-06
2.46462e-06
2.46323e-06
2.46187e-06
2.4612e-06
2.46249e-06
2.46378e-06
2.46502e-06
2.46607e-06
2.46686e-06
2.46742e-06
2.46776e-06
2.4679e-06
2.46782e-06
2.46752e-06
2.46701e-06
2.46628e-06
2.4653e-06
2.46406e-06
2.46264e-06
2.46126e-06
2.46034e-06
2.46165e-06
2.46297e-06
2.46424e-06
2.46532e-06
2.46613e-06
2.4667e-06
2.46705e-06
2.46719e-06
2.4671e-06
2.4668e-06
2.46628e-06
2.46553e-06
2.46453e-06
2.46325e-06
2.4618e-06
2.4604e-06
2.45916e-06
2.46051e-06
2.46188e-06
2.4632e-06
2.46431e-06
2.46514e-06
2.46573e-06
2.4661e-06
2.46624e-06
2.46615e-06
2.46584e-06
2.4653e-06
2.46453e-06
2.46349e-06
2.46217e-06
2.46066e-06
2.45922e-06
2.45769e-06
2.45908e-06
2.46051e-06
2.46188e-06
2.46303e-06
2.46389e-06
2.46451e-06
2.46488e-06
2.46503e-06
2.46494e-06
2.46462e-06
2.46406e-06
2.46326e-06
2.46217e-06
2.46081e-06
2.45923e-06
2.45775e-06
2.456e-06
2.45742e-06
2.45892e-06
2.46035e-06
2.46157e-06
2.46247e-06
2.46312e-06
2.46351e-06
2.46366e-06
2.46357e-06
2.46323e-06
2.46264e-06
2.4618e-06
2.46066e-06
2.45923e-06
2.45759e-06
2.45605e-06
2.45417e-06
2.45588e-06
2.45743e-06
2.45891e-06
2.46016e-06
2.46109e-06
2.46176e-06
2.46216e-06
2.46231e-06
2.46221e-06
2.46187e-06
2.46126e-06
2.4604e-06
2.45922e-06
2.45775e-06
2.45605e-06
2.45422e-06
2.40392e-06
2.40589e-06
2.40765e-06
2.40938e-06
2.41083e-06
2.41192e-06
2.41271e-06
2.41318e-06
2.41337e-06
2.41325e-06
2.41284e-06
2.41212e-06
2.4111e-06
2.40973e-06
2.40798e-06
2.40607e-06
2.40395e-06
2.40589e-06
2.40754e-06
2.40928e-06
2.41096e-06
2.41239e-06
2.41348e-06
2.41425e-06
2.41472e-06
2.4149e-06
2.41479e-06
2.41438e-06
2.41367e-06
2.41266e-06
2.41131e-06
2.40961e-06
2.40771e-06
2.40593e-06
2.40765e-06
2.40928e-06
2.41098e-06
2.41261e-06
2.41399e-06
2.41504e-06
2.41578e-06
2.41624e-06
2.41642e-06
2.41631e-06
2.41591e-06
2.41523e-06
2.41425e-06
2.41294e-06
2.4113e-06
2.40943e-06
2.40769e-06
2.40938e-06
2.41096e-06
2.41261e-06
2.41419e-06
2.41552e-06
2.41654e-06
2.41727e-06
2.41771e-06
2.41788e-06
2.41777e-06
2.41739e-06
2.41673e-06
2.41578e-06
2.41451e-06
2.41293e-06
2.41112e-06
2.40943e-06
2.41083e-06
2.41239e-06
2.41399e-06
2.41552e-06
2.41682e-06
2.41781e-06
2.41852e-06
2.41895e-06
2.41912e-06
2.41902e-06
2.41864e-06
2.418e-06
2.41707e-06
2.41584e-06
2.4143e-06
2.41255e-06
2.41088e-06
2.41192e-06
2.41347e-06
2.41504e-06
2.41654e-06
2.41781e-06
2.41879e-06
2.41948e-06
2.4199e-06
2.42007e-06
2.41997e-06
2.4196e-06
2.41897e-06
2.41806e-06
2.41686e-06
2.41535e-06
2.41363e-06
2.41197e-06
2.41271e-06
2.41425e-06
2.41578e-06
2.41727e-06
2.41852e-06
2.41948e-06
2.42016e-06
2.42058e-06
2.42074e-06
2.42064e-06
2.42028e-06
2.41966e-06
2.41877e-06
2.41758e-06
2.41609e-06
2.4144e-06
2.41276e-06
2.41318e-06
2.41472e-06
2.41624e-06
2.41771e-06
2.41895e-06
2.4199e-06
2.42058e-06
2.421e-06
2.42115e-06
2.42106e-06
2.4207e-06
2.42008e-06
2.4192e-06
2.41802e-06
2.41655e-06
2.41488e-06
2.41323e-06
2.41337e-06
2.4149e-06
2.41642e-06
2.41788e-06
2.41912e-06
2.42007e-06
2.42074e-06
2.42115e-06
2.42131e-06
2.42122e-06
2.42086e-06
2.42024e-06
2.41936e-06
2.41819e-06
2.41672e-06
2.41506e-06
2.41342e-06
2.41325e-06
2.41479e-06
2.41631e-06
2.41777e-06
2.41902e-06
2.41997e-06
2.42064e-06
2.42106e-06
2.42122e-06
2.42112e-06
2.42076e-06
2.42014e-06
2.41926e-06
2.41809e-06
2.41661e-06
2.41494e-06
2.4133e-06
2.41284e-06
2.41438e-06
2.41591e-06
2.41739e-06
2.41864e-06
2.4196e-06
2.42028e-06
2.4207e-06
2.42086e-06
2.42076e-06
2.4204e-06
2.41978e-06
2.41889e-06
2.41771e-06
2.41622e-06
2.41453e-06
2.41289e-06
2.41212e-06
2.41367e-06
2.41522e-06
2.41673e-06
2.418e-06
2.41897e-06
2.41966e-06
2.42008e-06
2.42025e-06
2.42014e-06
2.41978e-06
2.41915e-06
2.41824e-06
2.41705e-06
2.41554e-06
2.41382e-06
2.41216e-06
2.4111e-06
2.41266e-06
2.41425e-06
2.41578e-06
2.41707e-06
2.41806e-06
2.41877e-06
2.4192e-06
2.41936e-06
2.41926e-06
2.41889e-06
2.41824e-06
2.41732e-06
2.4161e-06
2.41456e-06
2.41281e-06
2.41115e-06
2.40973e-06
2.41131e-06
2.41294e-06
2.41452e-06
2.41585e-06
2.41686e-06
2.41758e-06
2.41803e-06
2.4182e-06
2.41809e-06
2.41771e-06
2.41705e-06
2.4161e-06
2.41484e-06
2.41326e-06
2.41146e-06
2.40977e-06
2.40798e-06
2.40961e-06
2.41131e-06
2.41293e-06
2.4143e-06
2.41535e-06
2.41609e-06
2.41655e-06
2.41672e-06
2.41661e-06
2.41622e-06
2.41554e-06
2.41456e-06
2.41326e-06
2.41163e-06
2.40977e-06
2.40803e-06
2.40607e-06
2.40771e-06
2.40943e-06
2.41112e-06
2.41255e-06
2.41363e-06
2.41441e-06
2.41488e-06
2.41506e-06
2.41494e-06
2.41453e-06
2.41382e-06
2.41282e-06
2.41146e-06
2.40977e-06
2.40788e-06
2.40612e-06
2.40395e-06
2.40593e-06
2.40769e-06
2.40943e-06
2.41088e-06
2.41197e-06
2.41276e-06
2.41323e-06
2.41342e-06
2.4133e-06
2.41289e-06
2.41217e-06
2.41115e-06
2.40977e-06
2.40803e-06
2.40611e-06
2.40399e-06
2.35737e-06
2.35943e-06
2.36124e-06
2.36307e-06
2.36458e-06
2.36573e-06
2.36656e-06
2.36706e-06
2.36725e-06
2.36712e-06
2.36669e-06
2.36593e-06
2.36485e-06
2.36341e-06
2.36156e-06
2.35959e-06
2.35739e-06
2.35943e-06
2.36116e-06
2.36296e-06
2.36474e-06
2.36625e-06
2.3674e-06
2.36823e-06
2.36873e-06
2.36892e-06
2.36879e-06
2.36836e-06
2.3676e-06
2.36652e-06
2.36509e-06
2.36328e-06
2.36131e-06
2.35945e-06
2.36124e-06
2.36296e-06
2.36476e-06
2.36649e-06
2.36796e-06
2.36908e-06
2.36988e-06
2.37037e-06
2.37056e-06
2.37044e-06
2.37001e-06
2.36927e-06
2.36822e-06
2.36683e-06
2.36508e-06
2.3631e-06
2.36127e-06
2.36307e-06
2.36474e-06
2.36649e-06
2.36817e-06
2.3696e-06
2.3707e-06
2.37148e-06
2.37196e-06
2.37214e-06
2.37202e-06
2.3716e-06
2.37089e-06
2.36986e-06
2.3685e-06
2.3668e-06
2.36488e-06
2.36309e-06
2.36458e-06
2.36625e-06
2.36796e-06
2.3696e-06
2.371e-06
2.37207e-06
2.37284e-06
2.37331e-06
2.37348e-06
2.37337e-06
2.37296e-06
2.37226e-06
2.37125e-06
2.36992e-06
2.36826e-06
2.36638e-06
2.3646e-06
2.36573e-06
2.3674e-06
2.36908e-06
2.3707e-06
2.37207e-06
2.37313e-06
2.37388e-06
2.37434e-06
2.37452e-06
2.37441e-06
2.37401e-06
2.37331e-06
2.37232e-06
2.37102e-06
2.36938e-06
2.36753e-06
2.36575e-06
2.36656e-06
2.36823e-06
2.36988e-06
2.37148e-06
2.37284e-06
2.37388e-06
2.37463e-06
2.37508e-06
2.37526e-06
2.37515e-06
2.37475e-06
2.37406e-06
2.37309e-06
2.37179e-06
2.37018e-06
2.36836e-06
2.36658e-06
2.36706e-06
2.36873e-06
2.37037e-06
2.37196e-06
2.37331e-06
2.37434e-06
2.37508e-06
2.37554e-06
2.37571e-06
2.3756e-06
2.3752e-06
2.37453e-06
2.37355e-06
2.37227e-06
2.37067e-06
2.36886e-06
2.36708e-06
2.36725e-06
2.36892e-06
2.37056e-06
2.37214e-06
2.37348e-06
2.37452e-06
2.37526e-06
2.37571e-06
2.37588e-06
2.37577e-06
2.37538e-06
2.3747e-06
2.37373e-06
2.37245e-06
2.37085e-06
2.36905e-06
2.36727e-06
2.36712e-06
2.36879e-06
2.37044e-06
2.37202e-06
2.37337e-06
2.37441e-06
2.37515e-06
2.3756e-06
2.37577e-06
2.37566e-06
2.37527e-06
2.37459e-06
2.37362e-06
2.37234e-06
2.37073e-06
2.36893e-06
2.36715e-06
2.36669e-06
2.36836e-06
2.37001e-06
2.3716e-06
2.37296e-06
2.37401e-06
2.37475e-06
2.3752e-06
2.37538e-06
2.37527e-06
2.37487e-06
2.37419e-06
2.37321e-06
2.37192e-06
2.37031e-06
2.36849e-06
2.36671e-06
2.36593e-06
2.3676e-06
2.36927e-06
2.37089e-06
2.37226e-06
2.37331e-06
2.37407e-06
2.37453e-06
2.3747e-06
2.37459e-06
2.37419e-06
2.3735e-06
2.37251e-06
2.3712e-06
2.36957e-06
2.36773e-06
2.36595e-06
2.36485e-06
2.36652e-06
2.36822e-06
2.36986e-06
2.37125e-06
2.37232e-06
2.37309e-06
2.37355e-06
2.37373e-06
2.37362e-06
2.37321e-06
2.37251e-06
2.37151e-06
2.37018e-06
2.36853e-06
2.36665e-06
2.36487e-06
2.36342e-06
2.36509e-06
2.36683e-06
2.3685e-06
2.36992e-06
2.37102e-06
2.3718e-06
2.37227e-06
2.37245e-06
2.37234e-06
2.37192e-06
2.3712e-06
2.37018e-06
2.36883e-06
2.36714e-06
2.36522e-06
2.36344e-06
2.36156e-06
2.36329e-06
2.36508e-06
2.3668e-06
2.36826e-06
2.36938e-06
2.37018e-06
2.37067e-06
2.37085e-06
2.37073e-06
2.37031e-06
2.36957e-06
2.36853e-06
2.36714e-06
2.3654e-06
2.36342e-06
2.36159e-06
2.35959e-06
2.36131e-06
2.3631e-06
2.36488e-06
2.36638e-06
2.36753e-06
2.36836e-06
2.36886e-06
2.36905e-06
2.36893e-06
2.36849e-06
2.36773e-06
2.36665e-06
2.36522e-06
2.36342e-06
2.36146e-06
2.35962e-06
2.35739e-06
2.35945e-06
2.36127e-06
2.36309e-06
2.3646e-06
2.36575e-06
2.36658e-06
2.36708e-06
2.36727e-06
2.36715e-06
2.36671e-06
2.36595e-06
2.36487e-06
2.36344e-06
2.36158e-06
2.35962e-06
2.35741e-06
2.31391e-06
2.31592e-06
2.3177e-06
2.31952e-06
2.32101e-06
2.32217e-06
2.323e-06
2.3235e-06
2.3237e-06
2.32357e-06
2.32313e-06
2.32236e-06
2.32128e-06
2.31986e-06
2.31801e-06
2.31608e-06
2.31392e-06
2.31592e-06
2.31762e-06
2.3194e-06
2.32118e-06
2.32268e-06
2.32385e-06
2.32468e-06
2.32519e-06
2.32538e-06
2.32525e-06
2.32481e-06
2.32404e-06
2.32295e-06
2.32152e-06
2.31971e-06
2.31776e-06
2.31594e-06
2.3177e-06
2.3194e-06
2.32119e-06
2.32293e-06
2.32441e-06
2.32555e-06
2.32636e-06
2.32686e-06
2.32704e-06
2.32692e-06
2.32649e-06
2.32574e-06
2.32467e-06
2.32327e-06
2.32151e-06
2.31953e-06
2.31771e-06
2.31952e-06
2.32118e-06
2.32293e-06
2.32463e-06
2.32607e-06
2.32719e-06
2.32799e-06
2.32848e-06
2.32866e-06
2.32854e-06
2.32812e-06
2.32738e-06
2.32634e-06
2.32496e-06
2.32324e-06
2.32131e-06
2.31954e-06
2.32101e-06
2.32268e-06
2.32441e-06
2.32607e-06
2.3275e-06
2.3286e-06
2.32938e-06
2.32987e-06
2.33005e-06
2.32993e-06
2.32951e-06
2.32879e-06
2.32776e-06
2.3264e-06
2.32471e-06
2.32281e-06
2.32103e-06
2.32217e-06
2.32385e-06
2.32555e-06
2.32719e-06
2.3286e-06
2.32969e-06
2.33046e-06
2.33094e-06
2.33112e-06
2.331e-06
2.33058e-06
2.32987e-06
2.32885e-06
2.32751e-06
2.32585e-06
2.32397e-06
2.32219e-06
2.323e-06
2.32468e-06
2.32636e-06
2.32799e-06
2.32938e-06
2.33046e-06
2.33123e-06
2.3317e-06
2.33188e-06
2.33176e-06
2.33135e-06
2.33064e-06
2.32964e-06
2.32831e-06
2.32666e-06
2.32481e-06
2.32302e-06
2.3235e-06
2.32519e-06
2.32685e-06
2.32848e-06
2.32987e-06
2.33094e-06
2.3317e-06
2.33217e-06
2.33234e-06
2.33223e-06
2.33182e-06
2.33112e-06
2.33012e-06
2.3288e-06
2.32715e-06
2.32531e-06
2.32352e-06
2.3237e-06
2.32538e-06
2.32704e-06
2.32866e-06
2.33005e-06
2.33112e-06
2.33188e-06
2.33234e-06
2.33252e-06
2.33241e-06
2.332e-06
2.3313e-06
2.3303e-06
2.32898e-06
2.32734e-06
2.32551e-06
2.32371e-06
2.32357e-06
2.32525e-06
2.32692e-06
2.32854e-06
2.32993e-06
2.331e-06
2.33176e-06
2.33223e-06
2.33241e-06
2.33229e-06
2.33188e-06
2.33118e-06
2.33018e-06
2.32886e-06
2.32722e-06
2.32538e-06
2.32359e-06
2.32313e-06
2.32481e-06
2.32649e-06
2.32812e-06
2.32951e-06
2.33058e-06
2.33135e-06
2.33182e-06
2.332e-06
2.33188e-06
2.33147e-06
2.33077e-06
2.32976e-06
2.32844e-06
2.32679e-06
2.32494e-06
2.32315e-06
2.32236e-06
2.32404e-06
2.32574e-06
2.32738e-06
2.32879e-06
2.32987e-06
2.33064e-06
2.33112e-06
2.3313e-06
2.33118e-06
2.33077e-06
2.33006e-06
2.32904e-06
2.3277e-06
2.32604e-06
2.32417e-06
2.32238e-06
2.32128e-06
2.32295e-06
2.32467e-06
2.32634e-06
2.32776e-06
2.32886e-06
2.32964e-06
2.33012e-06
2.3303e-06
2.33018e-06
2.32976e-06
2.32904e-06
2.32801e-06
2.32666e-06
2.32498e-06
2.32308e-06
2.3213e-06
2.31986e-06
2.32152e-06
2.32327e-06
2.32496e-06
2.3264e-06
2.32752e-06
2.32831e-06
2.3288e-06
2.32898e-06
2.32886e-06
2.32844e-06
2.3277e-06
2.32666e-06
2.32529e-06
2.32358e-06
2.32165e-06
2.31988e-06
2.31801e-06
2.31971e-06
2.32151e-06
2.32324e-06
2.32472e-06
2.32585e-06
2.32666e-06
2.32715e-06
2.32734e-06
2.32722e-06
2.32679e-06
2.32604e-06
2.32498e-06
2.32358e-06
2.32182e-06
2.31985e-06
2.31803e-06
2.31608e-06
2.31777e-06
2.31954e-06
2.32131e-06
2.32281e-06
2.32398e-06
2.32481e-06
2.32531e-06
2.32551e-06
2.32538e-06
2.32494e-06
2.32417e-06
2.32308e-06
2.32165e-06
2.31985e-06
2.31791e-06
2.3161e-06
2.31392e-06
2.31594e-06
2.31772e-06
2.31954e-06
2.32103e-06
2.32219e-06
2.32302e-06
2.32352e-06
2.32372e-06
2.32359e-06
2.32315e-06
2.32238e-06
2.3213e-06
2.31988e-06
2.31802e-06
2.3161e-06
2.31394e-06
2.27303e-06
2.27489e-06
2.27654e-06
2.27826e-06
2.27967e-06
2.28077e-06
2.28156e-06
2.28204e-06
2.28222e-06
2.2821e-06
2.28168e-06
2.28095e-06
2.27992e-06
2.27859e-06
2.27683e-06
2.27503e-06
2.27304e-06
2.27489e-06
2.27647e-06
2.27814e-06
2.27983e-06
2.28125e-06
2.28236e-06
2.28316e-06
2.28365e-06
2.28383e-06
2.28371e-06
2.28328e-06
2.28255e-06
2.28151e-06
2.28015e-06
2.27843e-06
2.27661e-06
2.2749e-06
2.27654e-06
2.27814e-06
2.27984e-06
2.28149e-06
2.2829e-06
2.28399e-06
2.28478e-06
2.28526e-06
2.28544e-06
2.28532e-06
2.2849e-06
2.28418e-06
2.28315e-06
2.28181e-06
2.28013e-06
2.27827e-06
2.27656e-06
2.27827e-06
2.27983e-06
2.28149e-06
2.28311e-06
2.2845e-06
2.28558e-06
2.28635e-06
2.28683e-06
2.28701e-06
2.28689e-06
2.28647e-06
2.28576e-06
2.28475e-06
2.28343e-06
2.28178e-06
2.27995e-06
2.27828e-06
2.27967e-06
2.28125e-06
2.2829e-06
2.2845e-06
2.28588e-06
2.28695e-06
2.28771e-06
2.28818e-06
2.28836e-06
2.28824e-06
2.28783e-06
2.28713e-06
2.28613e-06
2.28482e-06
2.28319e-06
2.28137e-06
2.27968e-06
2.28077e-06
2.28236e-06
2.28399e-06
2.28558e-06
2.28695e-06
2.288e-06
2.28876e-06
2.28922e-06
2.2894e-06
2.28929e-06
2.28888e-06
2.28818e-06
2.28719e-06
2.28589e-06
2.28428e-06
2.28248e-06
2.28079e-06
2.28156e-06
2.28316e-06
2.28477e-06
2.28635e-06
2.28771e-06
2.28876e-06
2.28951e-06
2.28997e-06
2.29015e-06
2.29003e-06
2.28963e-06
2.28894e-06
2.28795e-06
2.28666e-06
2.28506e-06
2.28328e-06
2.28157e-06
2.28204e-06
2.28365e-06
2.28525e-06
2.28683e-06
2.28818e-06
2.28922e-06
2.28997e-06
2.29043e-06
2.29061e-06
2.29049e-06
2.29009e-06
2.2894e-06
2.28842e-06
2.28714e-06
2.28554e-06
2.28377e-06
2.28205e-06
2.28222e-06
2.28383e-06
2.28544e-06
2.28701e-06
2.28836e-06
2.2894e-06
2.29015e-06
2.29061e-06
2.29078e-06
2.29067e-06
2.29027e-06
2.28958e-06
2.2886e-06
2.28732e-06
2.28572e-06
2.28395e-06
2.28224e-06
2.2821e-06
2.28371e-06
2.28532e-06
2.28689e-06
2.28824e-06
2.28929e-06
2.29003e-06
2.29049e-06
2.29067e-06
2.29055e-06
2.29015e-06
2.28946e-06
2.28848e-06
2.2872e-06
2.28561e-06
2.28383e-06
2.28212e-06
2.28168e-06
2.28328e-06
2.2849e-06
2.28647e-06
2.28783e-06
2.28888e-06
2.28963e-06
2.29009e-06
2.29027e-06
2.29015e-06
2.28975e-06
2.28906e-06
2.28807e-06
2.28678e-06
2.28519e-06
2.2834e-06
2.2817e-06
2.28095e-06
2.28255e-06
2.28418e-06
2.28576e-06
2.28713e-06
2.28818e-06
2.28894e-06
2.2894e-06
2.28958e-06
2.28946e-06
2.28906e-06
2.28836e-06
2.28737e-06
2.28607e-06
2.28447e-06
2.28267e-06
2.28097e-06
2.27992e-06
2.28151e-06
2.28315e-06
2.28475e-06
2.28613e-06
2.28719e-06
2.28795e-06
2.28842e-06
2.2886e-06
2.28848e-06
2.28807e-06
2.28737e-06
2.28638e-06
2.28507e-06
2.28344e-06
2.28163e-06
2.27994e-06
2.27859e-06
2.28015e-06
2.28181e-06
2.28343e-06
2.28482e-06
2.28589e-06
2.28666e-06
2.28714e-06
2.28732e-06
2.2872e-06
2.28679e-06
2.28607e-06
2.28507e-06
2.28374e-06
2.28211e-06
2.28027e-06
2.2786e-06
2.27683e-06
2.27843e-06
2.28013e-06
2.28179e-06
2.28319e-06
2.28429e-06
2.28507e-06
2.28554e-06
2.28573e-06
2.28561e-06
2.28519e-06
2.28447e-06
2.28345e-06
2.28211e-06
2.28043e-06
2.27856e-06
2.27685e-06
2.27504e-06
2.27661e-06
2.27827e-06
2.27995e-06
2.28137e-06
2.28249e-06
2.28328e-06
2.28377e-06
2.28396e-06
2.28383e-06
2.28341e-06
2.28267e-06
2.28163e-06
2.28027e-06
2.27856e-06
2.27674e-06
2.27505e-06
2.27304e-06
2.2749e-06
2.27656e-06
2.27828e-06
2.27969e-06
2.28079e-06
2.28157e-06
2.28206e-06
2.28224e-06
2.28212e-06
2.2817e-06
2.28097e-06
2.27994e-06
2.2786e-06
2.27685e-06
2.27505e-06
2.27305e-06
2.23444e-06
2.23611e-06
2.23761e-06
2.23918e-06
2.24046e-06
2.24147e-06
2.24219e-06
2.24263e-06
2.2428e-06
2.24269e-06
2.2423e-06
2.24163e-06
2.24068e-06
2.23947e-06
2.23787e-06
2.23624e-06
2.23445e-06
2.23611e-06
2.23755e-06
2.23906e-06
2.2406e-06
2.2419e-06
2.24293e-06
2.24366e-06
2.24412e-06
2.24429e-06
2.24417e-06
2.24378e-06
2.2431e-06
2.24214e-06
2.2409e-06
2.23932e-06
2.23767e-06
2.23612e-06
2.23761e-06
2.23906e-06
2.24061e-06
2.24213e-06
2.24342e-06
2.24444e-06
2.24516e-06
2.24561e-06
2.24578e-06
2.24566e-06
2.24527e-06
2.24461e-06
2.24366e-06
2.24242e-06
2.24088e-06
2.23917e-06
2.23762e-06
2.23918e-06
2.2406e-06
2.24213e-06
2.24362e-06
2.24491e-06
2.24591e-06
2.24663e-06
2.24707e-06
2.24724e-06
2.24713e-06
2.24674e-06
2.24608e-06
2.24514e-06
2.24391e-06
2.24239e-06
2.24071e-06
2.23919e-06
2.24046e-06
2.2419e-06
2.24342e-06
2.24491e-06
2.24619e-06
2.24718e-06
2.2479e-06
2.24834e-06
2.2485e-06
2.24839e-06
2.24801e-06
2.24735e-06
2.24642e-06
2.24519e-06
2.24369e-06
2.24201e-06
2.24047e-06
2.24147e-06
2.24293e-06
2.24444e-06
2.24591e-06
2.24718e-06
2.24817e-06
2.24888e-06
2.24932e-06
2.24948e-06
2.24938e-06
2.24899e-06
2.24834e-06
2.24741e-06
2.2462e-06
2.2447e-06
2.24304e-06
2.24148e-06
2.24219e-06
2.24366e-06
2.24516e-06
2.24663e-06
2.2479e-06
2.24888e-06
2.24959e-06
2.25002e-06
2.25019e-06
2.25008e-06
2.2497e-06
2.24905e-06
2.24812e-06
2.24691e-06
2.24543e-06
2.24377e-06
2.2422e-06
2.24263e-06
2.24412e-06
2.24561e-06
2.24707e-06
2.24834e-06
2.24932e-06
2.25002e-06
2.25046e-06
2.25062e-06
2.25051e-06
2.25013e-06
2.24948e-06
2.24856e-06
2.24736e-06
2.24587e-06
2.24422e-06
2.24264e-06
2.2428e-06
2.24429e-06
2.24578e-06
2.24724e-06
2.2485e-06
2.24949e-06
2.25019e-06
2.25062e-06
2.25079e-06
2.25068e-06
2.2503e-06
2.24965e-06
2.24873e-06
2.24753e-06
2.24604e-06
2.2444e-06