/*--------------------------------*- C++ -*----------------------------------*\
  =========                 |
  \\      /  F ield         | OpenFOAM: The Open Source CFD Toolbox
   \\    /   O peration     | Website:  https://openfoam.org
    \\  /    A nd           | Version:  6
     \\/     M anipulation  |
\*---------------------------------------------------------------------------*/
FoamFile
{
    version     2.0;
    format      ascii;
    class       volScalarField;
    location    "0";
    object      p;
}
// * * * * * * * * * * * * * * * * * * * * * * * * * * * * * * * * * * * * * //

dimensions      [0 2 -2 0 0 0 0];

internalField   nonuniform List<scalar> 
145945
(
3.66906e-06
3.66764e-06
3.66645e-06
3.66526e-06
3.66433e-06
3.66358e-06
3.66307e-06
3.66274e-06
3.66262e-06
3.66269e-06
3.66296e-06
3.66342e-06
3.66411e-06
3.66497e-06
3.66615e-06
3.66738e-06
3.6689e-06
3.66764e-06
3.66646e-06
3.66527e-06
3.66409e-06
3.66312e-06
3.66236e-06
3.66183e-06
3.6615e-06
3.66137e-06
3.66144e-06
3.66172e-06
3.6622e-06
3.6629e-06
3.66379e-06
3.66496e-06
3.66621e-06
3.66748e-06
3.66645e-06
3.66527e-06
3.66402e-06
3.66285e-06
3.66187e-06
3.66111e-06
3.66057e-06
3.66024e-06
3.66011e-06
3.66018e-06
3.66047e-06
3.66095e-06
3.66165e-06
3.66256e-06
3.66371e-06
3.66503e-06
3.6663e-06
3.66526e-06
3.66409e-06
3.66285e-06
3.66168e-06
3.66069e-06
3.65992e-06
3.65938e-06
3.65904e-06
3.65891e-06
3.65898e-06
3.65927e-06
3.65976e-06
3.66047e-06
3.66139e-06
3.66254e-06
3.66386e-06
3.6651e-06
3.66433e-06
3.66312e-06
3.66187e-06
3.66069e-06
3.65969e-06
3.65892e-06
3.65837e-06
3.65802e-06
3.65789e-06
3.65797e-06
3.65826e-06
3.65875e-06
3.65947e-06
3.6604e-06
3.66156e-06
3.6629e-06
3.66417e-06
3.66358e-06
3.66237e-06
3.66111e-06
3.65992e-06
3.65892e-06
3.65814e-06
3.65758e-06
3.65724e-06
3.6571e-06
3.65718e-06
3.65747e-06
3.65798e-06
3.65869e-06
3.65964e-06
3.6608e-06
3.66214e-06
3.66343e-06
3.66307e-06
3.66183e-06
3.66058e-06
3.65938e-06
3.65837e-06
3.65758e-06
3.65702e-06
3.65667e-06
3.65654e-06
3.65662e-06
3.65691e-06
3.65742e-06
3.65814e-06
3.65909e-06
3.66027e-06
3.66161e-06
3.66291e-06
3.66274e-06
3.6615e-06
3.66024e-06
3.65904e-06
3.65802e-06
3.65724e-06
3.65667e-06
3.65633e-06
3.65619e-06
3.65627e-06
3.65657e-06
3.65707e-06
3.6578e-06
3.65875e-06
3.65993e-06
3.66127e-06
3.66259e-06
3.66262e-06
3.66137e-06
3.66011e-06
3.65891e-06
3.65789e-06
3.6571e-06
3.65654e-06
3.65619e-06
3.65605e-06
3.65613e-06
3.65643e-06
3.65694e-06
3.65767e-06
3.65862e-06
3.6598e-06
3.66114e-06
3.66246e-06
3.66269e-06
3.66144e-06
3.66018e-06
3.65898e-06
3.65797e-06
3.65718e-06
3.65662e-06
3.65627e-06
3.65613e-06
3.65621e-06
3.65651e-06
3.65702e-06
3.65774e-06
3.6587e-06
3.65988e-06
3.66122e-06
3.66253e-06
3.66296e-06
3.66172e-06
3.66047e-06
3.65927e-06
3.65826e-06
3.65747e-06
3.65691e-06
3.65657e-06
3.65643e-06
3.65651e-06
3.6568e-06
3.65731e-06
3.65803e-06
3.65898e-06
3.66016e-06
3.6615e-06
3.66281e-06
3.66342e-06
3.6622e-06
3.66095e-06
3.65976e-06
3.65875e-06
3.65798e-06
3.65742e-06
3.65707e-06
3.65694e-06
3.65702e-06
3.65731e-06
3.65782e-06
3.65853e-06
3.65948e-06
3.66064e-06
3.66198e-06
3.66327e-06
3.66411e-06
3.6629e-06
3.66165e-06
3.66047e-06
3.65947e-06
3.65869e-06
3.65814e-06
3.6578e-06
3.65767e-06
3.65774e-06
3.65803e-06
3.65853e-06
3.65924e-06
3.66018e-06
3.66134e-06
3.66267e-06
3.66395e-06
3.66497e-06
3.66379e-06
3.66256e-06
3.66139e-06
3.6604e-06
3.65964e-06
3.65909e-06
3.65875e-06
3.65862e-06
3.6587e-06
3.65898e-06
3.65948e-06
3.66018e-06
3.6611e-06
3.66225e-06
3.66357e-06
3.66482e-06
3.66615e-06
3.66496e-06
3.66371e-06
3.66254e-06
3.66156e-06
3.6608e-06
3.66027e-06
3.65993e-06
3.6598e-06
3.65988e-06
3.66016e-06
3.66064e-06
3.66134e-06
3.66225e-06
3.66341e-06
3.66472e-06
3.666e-06
3.66738e-06
3.66621e-06
3.66503e-06
3.66386e-06
3.6629e-06
3.66214e-06
3.66161e-06
3.66127e-06
3.66114e-06
3.66122e-06
3.6615e-06
3.66198e-06
3.66267e-06
3.66357e-06
3.66472e-06
3.66597e-06
3.66723e-06
3.6689e-06
3.66748e-06
3.6663e-06
3.6651e-06
3.66417e-06
3.66343e-06
3.66291e-06
3.66259e-06
3.66246e-06
3.66253e-06
3.66281e-06
3.66327e-06
3.66395e-06
3.66482e-06
3.666e-06
3.66723e-06
3.66874e-06
3.61731e-06
3.61639e-06
3.61557e-06
3.61474e-06
3.61407e-06
3.61355e-06
3.61318e-06
3.61295e-06
3.61285e-06
3.6129e-06
3.61308e-06
3.6134e-06
3.61386e-06
3.61446e-06
3.61525e-06
3.6161e-06
3.61707e-06
3.61639e-06
3.61563e-06
3.61484e-06
3.61403e-06
3.61336e-06
3.61283e-06
3.61246e-06
3.61223e-06
3.61213e-06
3.61217e-06
3.61236e-06
3.61268e-06
3.61314e-06
3.61374e-06
3.61452e-06
3.61535e-06
3.61616e-06
3.61557e-06
3.61484e-06
3.61404e-06
3.61324e-06
3.61257e-06
3.61205e-06
3.61168e-06
3.61145e-06
3.61135e-06
3.6114e-06
3.61158e-06
3.6119e-06
3.61236e-06
3.61296e-06
3.61371e-06
3.61456e-06
3.61534e-06
3.61474e-06
3.61403e-06
3.61324e-06
3.61246e-06
3.61179e-06
3.61127e-06
3.6109e-06
3.61067e-06
3.61057e-06
3.61062e-06
3.6108e-06
3.61112e-06
3.61158e-06
3.61218e-06
3.61292e-06
3.61376e-06
3.61451e-06
3.61407e-06
3.61336e-06
3.61257e-06
3.61179e-06
3.61113e-06
3.61061e-06
3.61024e-06
3.61e-06
3.60991e-06
3.60995e-06
3.61014e-06
3.61046e-06
3.61091e-06
3.61151e-06
3.61225e-06
3.61309e-06
3.61385e-06
3.61355e-06
3.61283e-06
3.61205e-06
3.61128e-06
3.61061e-06
3.61009e-06
3.60972e-06
3.60949e-06
3.60939e-06
3.60943e-06
3.60962e-06
3.60994e-06
3.6104e-06
3.611e-06
3.61174e-06
3.61257e-06
3.61332e-06
3.61318e-06
3.61246e-06
3.61168e-06
3.6109e-06
3.61024e-06
3.60972e-06
3.60935e-06
3.60911e-06
3.60902e-06
3.60906e-06
3.60925e-06
3.60957e-06
3.61003e-06
3.61063e-06
3.61137e-06
3.6122e-06
3.61295e-06
3.61295e-06
3.61223e-06
3.61145e-06
3.61067e-06
3.61e-06
3.60949e-06
3.60911e-06
3.60888e-06
3.60878e-06
3.60883e-06
3.60901e-06
3.60933e-06
3.60979e-06
3.61039e-06
3.61113e-06
3.61196e-06
3.61272e-06
3.61285e-06
3.61213e-06
3.61135e-06
3.61058e-06
3.60991e-06
3.60939e-06
3.60902e-06
3.60878e-06
3.60868e-06
3.60873e-06
3.60892e-06
3.60924e-06
3.6097e-06
3.6103e-06
3.61104e-06
3.61187e-06
3.61262e-06
3.6129e-06
3.61217e-06
3.6114e-06
3.61062e-06
3.60995e-06
3.60943e-06
3.60906e-06
3.60883e-06
3.60873e-06
3.60877e-06
3.60896e-06
3.60928e-06
3.60974e-06
3.61034e-06
3.61108e-06
3.61191e-06
3.61267e-06
3.61308e-06
3.61236e-06
3.61158e-06
3.6108e-06
3.61014e-06
3.60962e-06
3.60925e-06
3.60901e-06
3.60892e-06
3.60896e-06
3.60915e-06
3.60947e-06
3.60993e-06
3.61052e-06
3.61126e-06
3.61209e-06
3.61285e-06
3.6134e-06
3.61268e-06
3.6119e-06
3.61112e-06
3.61046e-06
3.60994e-06
3.60957e-06
3.60933e-06
3.60924e-06
3.60928e-06
3.60947e-06
3.60979e-06
3.61025e-06
3.61084e-06
3.61158e-06
3.61241e-06
3.61317e-06
3.61386e-06
3.61314e-06
3.61236e-06
3.61158e-06
3.61091e-06
3.6104e-06
3.61003e-06
3.60979e-06
3.6097e-06
3.60974e-06
3.60993e-06
3.61025e-06
3.6107e-06
3.6113e-06
3.61204e-06
3.61288e-06
3.61363e-06
3.61446e-06
3.61374e-06
3.61296e-06
3.61218e-06
3.61151e-06
3.611e-06
3.61063e-06
3.61039e-06
3.6103e-06
3.61034e-06
3.61053e-06
3.61084e-06
3.6113e-06
3.6119e-06
3.61264e-06
3.61348e-06
3.61423e-06
3.61525e-06
3.61452e-06
3.61372e-06
3.61292e-06
3.61225e-06
3.61174e-06
3.61137e-06
3.61113e-06
3.61104e-06
3.61108e-06
3.61126e-06
3.61158e-06
3.61204e-06
3.61264e-06
3.61339e-06
3.61424e-06
3.61502e-06
3.6161e-06
3.61535e-06
3.61457e-06
3.61376e-06
3.61309e-06
3.61257e-06
3.6122e-06
3.61196e-06
3.61187e-06
3.61191e-06
3.61209e-06
3.61241e-06
3.61288e-06
3.61348e-06
3.61424e-06
3.61508e-06
3.61587e-06
3.61708e-06
3.61616e-06
3.61534e-06
3.61451e-06
3.61385e-06
3.61332e-06
3.61295e-06
3.61272e-06
3.61262e-06
3.61267e-06
3.61285e-06
3.61317e-06
3.61363e-06
3.61423e-06
3.61502e-06
3.61587e-06
3.61684e-06
3.58199e-06
3.58172e-06
3.58148e-06
3.5812e-06
3.58098e-06
3.58077e-06
3.58062e-06
3.58051e-06
3.58047e-06
3.58048e-06
3.58055e-06
3.58068e-06
3.58085e-06
3.58105e-06
3.5813e-06
3.58153e-06
3.5818e-06
3.58172e-06
3.58147e-06
3.58119e-06
3.5809e-06
3.58064e-06
3.58041e-06
3.58024e-06
3.58013e-06
3.58008e-06
3.5801e-06
3.58018e-06
3.58032e-06
3.58051e-06
3.58074e-06
3.58101e-06
3.58127e-06
3.58153e-06
3.58148e-06
3.58119e-06
3.58086e-06
3.58053e-06
3.58024e-06
3.58e-06
3.57982e-06
3.5797e-06
3.57965e-06
3.57966e-06
3.57975e-06
3.5799e-06
3.58011e-06
3.58037e-06
3.58067e-06
3.58099e-06
3.58129e-06
3.5812e-06
3.5809e-06
3.58053e-06
3.58017e-06
3.57986e-06
3.5796e-06
3.5794e-06
3.57928e-06
3.57922e-06
3.57924e-06
3.57933e-06
3.5795e-06
3.57972e-06
3.58e-06
3.58033e-06
3.58069e-06
3.58101e-06
3.58098e-06
3.58064e-06
3.58024e-06
3.57986e-06
3.57952e-06
3.57925e-06
3.57904e-06
3.57891e-06
3.57885e-06
3.57887e-06
3.57897e-06
3.57914e-06
3.57938e-06
3.57968e-06
3.58003e-06
3.58043e-06
3.58079e-06
3.58077e-06
3.58041e-06
3.58e-06
3.5796e-06
3.57925e-06
3.57896e-06
3.57875e-06
3.57861e-06
3.57855e-06
3.57857e-06
3.57868e-06
3.57886e-06
3.57911e-06
3.57942e-06
3.57979e-06
3.5802e-06
3.58058e-06
3.58062e-06
3.58024e-06
3.57982e-06
3.5794e-06
3.57904e-06
3.57875e-06
3.57853e-06
3.57839e-06
3.57833e-06
3.57835e-06
3.57846e-06
3.57864e-06
3.5789e-06
3.57922e-06
3.5796e-06
3.58004e-06
3.58043e-06
3.58051e-06
3.58013e-06
3.5797e-06
3.57928e-06
3.57891e-06
3.57861e-06
3.57839e-06
3.57824e-06
3.57818e-06
3.57821e-06
3.57831e-06
3.5785e-06
3.57876e-06
3.5791e-06
3.57948e-06
3.57992e-06
3.58032e-06
3.58047e-06
3.58008e-06
3.57965e-06
3.57922e-06
3.57885e-06
3.57855e-06
3.57833e-06
3.57818e-06
3.57812e-06
3.57814e-06
3.57825e-06
3.57844e-06
3.57871e-06
3.57904e-06
3.57943e-06
3.57987e-06
3.58028e-06
3.58048e-06
3.5801e-06
3.57966e-06
3.57924e-06
3.57887e-06
3.57857e-06
3.57835e-06
3.57821e-06
3.57814e-06
3.57817e-06
3.57828e-06
3.57846e-06
3.57873e-06
3.57906e-06
3.57945e-06
3.57989e-06
3.58029e-06
3.58055e-06
3.58018e-06
3.57975e-06
3.57933e-06
3.57897e-06
3.57868e-06
3.57846e-06
3.57831e-06
3.57825e-06
3.57828e-06
3.57838e-06
3.57857e-06
3.57883e-06
3.57915e-06
3.57954e-06
3.57997e-06
3.58036e-06
3.58068e-06
3.58032e-06
3.5799e-06
3.5795e-06
3.57914e-06
3.57886e-06
3.57864e-06
3.5785e-06
3.57844e-06
3.57846e-06
3.57857e-06
3.57875e-06
3.579e-06
3.57932e-06
3.57969e-06
3.58011e-06
3.58049e-06
3.58085e-06
3.58051e-06
3.58011e-06
3.57972e-06
3.57938e-06
3.57911e-06
3.5789e-06
3.57876e-06
3.57871e-06
3.57873e-06
3.57883e-06
3.579e-06
3.57924e-06
3.57955e-06
3.5799e-06
3.5803e-06
3.58066e-06
3.58105e-06
3.58074e-06
3.58037e-06
3.58e-06
3.57968e-06
3.57942e-06
3.57922e-06
3.5791e-06
3.57904e-06
3.57906e-06
3.57915e-06
3.57932e-06
3.57955e-06
3.57983e-06
3.58016e-06
3.58053e-06
3.58086e-06
3.5813e-06
3.58101e-06
3.58067e-06
3.58033e-06
3.58003e-06
3.57979e-06
3.5796e-06
3.57948e-06
3.57943e-06
3.57945e-06
3.57954e-06
3.57969e-06
3.5799e-06
3.58016e-06
3.58047e-06
3.5808e-06
3.58111e-06
3.58153e-06
3.58127e-06
3.58099e-06
3.58069e-06
3.58043e-06
3.5802e-06
3.58004e-06
3.57992e-06
3.57987e-06
3.57989e-06
3.57997e-06
3.58011e-06
3.5803e-06
3.58053e-06
3.5808e-06
3.58107e-06
3.58134e-06
3.5818e-06
3.58154e-06
3.58129e-06
3.58102e-06
3.58079e-06
3.58058e-06
3.58043e-06
3.58032e-06
3.58028e-06
3.58029e-06
3.58037e-06
3.58049e-06
3.58066e-06
3.58087e-06
3.58111e-06
3.58134e-06
3.58161e-06
3.53956e-06
3.53963e-06
3.53973e-06
3.53982e-06
3.53988e-06
3.5399e-06
3.53991e-06
3.5399e-06
3.53989e-06
3.53989e-06
3.53988e-06
3.53986e-06
3.53983e-06
3.53976e-06
3.53966e-06
3.53953e-06
3.53941e-06
3.53963e-06
3.53966e-06
3.53971e-06
3.53976e-06
3.53978e-06
3.53978e-06
3.53976e-06
3.53975e-06
3.53974e-06
3.53973e-06
3.53973e-06
3.53973e-06
3.53972e-06
3.5397e-06
3.53964e-06
3.53955e-06
3.53948e-06
3.53973e-06
3.53971e-06
3.53972e-06
3.53972e-06
3.53971e-06
3.53967e-06
3.53964e-06
3.53962e-06
3.5396e-06
3.5396e-06
3.53961e-06
3.53963e-06
3.53965e-06
3.53965e-06
3.53964e-06
3.5396e-06
3.53959e-06
3.53982e-06
3.53976e-06
3.53972e-06
3.53968e-06
3.53964e-06
3.53958e-06
3.53953e-06
3.53949e-06
3.53947e-06
3.53947e-06
3.53949e-06
3.53953e-06
3.53957e-06
3.53961e-06
3.53964e-06
3.53965e-06
3.53968e-06
3.53988e-06
3.53978e-06
3.53971e-06
3.53964e-06
3.53956e-06
3.53948e-06
3.53941e-06
3.53937e-06
3.53935e-06
3.53935e-06
3.53938e-06
3.53943e-06
3.53949e-06
3.53956e-06
3.53962e-06
3.53967e-06
3.53974e-06
3.5399e-06
3.53978e-06
3.53967e-06
3.53958e-06
3.53948e-06
3.53938e-06
3.53931e-06
3.53926e-06
3.53923e-06
3.53924e-06
3.53927e-06
3.53933e-06
3.53941e-06
3.5395e-06
3.53959e-06
3.53967e-06
3.53976e-06
3.53991e-06
3.53976e-06
3.53964e-06
3.53953e-06
3.53941e-06
3.53931e-06
3.53922e-06
3.53917e-06
3.53914e-06
3.53915e-06
3.53918e-06
3.53925e-06
3.53934e-06
3.53945e-06
3.53955e-06
3.53965e-06
3.53977e-06
3.5399e-06
3.53975e-06
3.53962e-06
3.53949e-06
3.53937e-06
3.53926e-06
3.53917e-06
3.53911e-06
3.53908e-06
3.53909e-06
3.53913e-06
3.5392e-06
3.53929e-06
3.53941e-06
3.53952e-06
3.53964e-06
3.53976e-06
3.5399e-06
3.53974e-06
3.5396e-06
3.53947e-06
3.53935e-06
3.53923e-06
3.53914e-06
3.53908e-06
3.53905e-06
3.53906e-06
3.5391e-06
3.53917e-06
3.53927e-06
3.53939e-06
3.53951e-06
3.53963e-06
3.53976e-06
3.53989e-06
3.53973e-06
3.5396e-06
3.53947e-06
3.53935e-06
3.53924e-06
3.53915e-06
3.53909e-06
3.53906e-06
3.53907e-06
3.53911e-06
3.53918e-06
3.53928e-06
3.53939e-06
3.53951e-06
3.53962e-06
3.53975e-06
3.53988e-06
3.53973e-06
3.53961e-06
3.53949e-06
3.53938e-06
3.53927e-06
3.53918e-06
3.53913e-06
3.5391e-06
3.53911e-06
3.53914e-06
3.53921e-06
3.5393e-06
3.53941e-06
3.53952e-06
3.53962e-06
3.53974e-06
3.53986e-06
3.53973e-06
3.53963e-06
3.53953e-06
3.53943e-06
3.53933e-06
3.53925e-06
3.5392e-06
3.53917e-06
3.53918e-06
3.53921e-06
3.53927e-06
3.53935e-06
3.53945e-06
3.53954e-06
3.53962e-06
3.53972e-06
3.53983e-06
3.53973e-06
3.53965e-06
3.53957e-06
3.53949e-06
3.53941e-06
3.53934e-06
3.53929e-06
3.53927e-06
3.53928e-06
3.5393e-06
3.53936e-06
3.53942e-06
3.5395e-06
3.53956e-06
3.53962e-06
3.53969e-06
3.53977e-06
3.5397e-06
3.53966e-06
3.53961e-06
3.53956e-06
3.5395e-06
3.53945e-06
3.53941e-06
3.53939e-06
3.53939e-06
3.53941e-06
3.53945e-06
3.5395e-06
3.53954e-06
3.53957e-06
3.53959e-06
3.53962e-06
3.53967e-06
3.53964e-06
3.53964e-06
3.53964e-06
3.53962e-06
3.53959e-06
3.53955e-06
3.53953e-06
3.53951e-06
3.53951e-06
3.53952e-06
3.53954e-06
3.53956e-06
3.53957e-06
3.53956e-06
3.53953e-06
3.53952e-06
3.53953e-06
3.53955e-06
3.5396e-06
3.53965e-06
3.53967e-06
3.53967e-06
3.53965e-06
3.53964e-06
3.53963e-06
3.53962e-06
3.53962e-06
3.53962e-06
3.53962e-06
3.53959e-06
3.53953e-06
3.53944e-06
3.53938e-06
3.53941e-06
3.53949e-06
3.53959e-06
3.53968e-06
3.53974e-06
3.53976e-06
3.53977e-06
3.53976e-06
3.53976e-06
3.53975e-06
3.53974e-06
3.53972e-06
3.53969e-06
3.53962e-06
3.53952e-06
3.53938e-06
3.53926e-06
3.49965e-06
3.49988e-06
3.50011e-06
3.50033e-06
3.50051e-06
3.50064e-06
3.50071e-06
3.50076e-06
3.50077e-06
3.50075e-06
3.5007e-06
3.50061e-06
3.50048e-06
3.5003e-06
3.50005e-06
3.49977e-06
3.49949e-06
3.49989e-06
3.50005e-06
3.50024e-06
3.50043e-06
3.50058e-06
3.50069e-06
3.50075e-06
3.50079e-06
3.5008e-06
3.50078e-06
3.50073e-06
3.50066e-06
3.50055e-06
3.50039e-06
3.50018e-06
3.49994e-06
3.49973e-06
3.50011e-06
3.50024e-06
3.50039e-06
3.50054e-06
3.50066e-06
3.50074e-06
3.50079e-06
3.50082e-06
3.50082e-06
3.50081e-06
3.50077e-06
3.50071e-06
3.50062e-06
3.5005e-06
3.50032e-06
3.50012e-06
3.49995e-06
3.50033e-06
3.50043e-06
3.50054e-06
3.50065e-06
3.50074e-06
3.5008e-06
3.50083e-06
3.50085e-06
3.50085e-06
3.50084e-06
3.50081e-06
3.50077e-06
3.5007e-06
3.5006e-06
3.50046e-06
3.50031e-06
3.50018e-06
3.50051e-06
3.50058e-06
3.50066e-06
3.50074e-06
3.5008e-06
3.50084e-06
3.50086e-06
3.50087e-06
3.50086e-06
3.50085e-06
3.50084e-06
3.50081e-06
3.50076e-06
3.50069e-06
3.50058e-06
3.50046e-06
3.50036e-06
3.50064e-06
3.50069e-06
3.50074e-06
3.5008e-06
3.50084e-06
3.50086e-06
3.50087e-06
3.50087e-06
3.50087e-06
3.50086e-06
3.50085e-06
3.50083e-06
3.50079e-06
3.50074e-06
3.50066e-06
3.50056e-06
3.50048e-06
3.50071e-06
3.50075e-06
3.50079e-06
3.50083e-06
3.50086e-06
3.50087e-06
3.50087e-06
3.50087e-06
3.50086e-06
3.50085e-06
3.50084e-06
3.50083e-06
3.50081e-06
3.50077e-06
3.50071e-06
3.50063e-06
3.50056e-06
3.50076e-06
3.50079e-06
3.50082e-06
3.50085e-06
3.50087e-06
3.50087e-06
3.50087e-06
3.50086e-06
3.50085e-06
3.50085e-06
3.50084e-06
3.50083e-06
3.50082e-06
3.50079e-06
3.50073e-06
3.50067e-06
3.50061e-06
3.50077e-06
3.5008e-06
3.50082e-06
3.50085e-06
3.50086e-06
3.50087e-06
3.50086e-06
3.50085e-06
3.50084e-06
3.50084e-06
3.50083e-06
3.50083e-06
3.50081e-06
3.50079e-06
3.50074e-06
3.50067e-06
3.50062e-06
3.50075e-06
3.50078e-06
3.50081e-06
3.50084e-06
3.50085e-06
3.50086e-06
3.50085e-06
3.50085e-06
3.50084e-06
3.50083e-06
3.50083e-06
3.50082e-06
3.5008e-06
3.50077e-06
3.50072e-06
3.50066e-06
3.5006e-06
3.5007e-06
3.50074e-06
3.50077e-06
3.50081e-06
3.50084e-06
3.50085e-06
3.50085e-06
3.50084e-06
3.50083e-06
3.50083e-06
3.50082e-06
3.50081e-06
3.50079e-06
3.50075e-06
3.50069e-06
3.50061e-06
3.50055e-06
3.50061e-06
3.50066e-06
3.50071e-06
3.50077e-06
3.50081e-06
3.50083e-06
3.50083e-06
3.50083e-06
3.50083e-06
3.50082e-06
3.50081e-06
3.50079e-06
3.50076e-06
3.50071e-06
3.50063e-06
3.50054e-06
3.50046e-06
3.50048e-06
3.50055e-06
3.50062e-06
3.5007e-06
3.50076e-06
3.50079e-06
3.50081e-06
3.50082e-06
3.50081e-06
3.5008e-06
3.50079e-06
3.50076e-06
3.50071e-06
3.50065e-06
3.50055e-06
3.50043e-06
3.50033e-06
3.5003e-06
3.50039e-06
3.5005e-06
3.5006e-06
3.50069e-06
3.50074e-06
3.50077e-06
3.50079e-06
3.50079e-06
3.50078e-06
3.50075e-06
3.50071e-06
3.50065e-06
3.50055e-06
3.50042e-06
3.50027e-06
3.50015e-06
3.50005e-06
3.50018e-06
3.50032e-06
3.50047e-06
3.50058e-06
3.50066e-06
3.50071e-06
3.50073e-06
3.50074e-06
3.50072e-06
3.50069e-06
3.50063e-06
3.50055e-06
3.50042e-06
3.50025e-06
3.50006e-06
3.49989e-06
3.49978e-06
3.49994e-06
3.50012e-06
3.50031e-06
3.50046e-06
3.50057e-06
3.50063e-06
3.50067e-06
3.50067e-06
3.50066e-06
3.50061e-06
3.50054e-06
3.50043e-06
3.50027e-06
3.50006e-06
3.49982e-06
3.49962e-06
3.49949e-06
3.49973e-06
3.49995e-06
3.50018e-06
3.50036e-06
3.50048e-06
3.50056e-06
3.50061e-06
3.50062e-06
3.5006e-06
3.50055e-06
3.50046e-06
3.50033e-06
3.50015e-06
3.49989e-06
3.49962e-06
3.49933e-06
3.46052e-06
3.46082e-06
3.46111e-06
3.46142e-06
3.46168e-06
3.46187e-06
3.462e-06
3.46207e-06
3.4621e-06
3.46207e-06
3.462e-06
3.46187e-06
3.46168e-06
3.46142e-06
3.46108e-06
3.46073e-06
3.46038e-06
3.46082e-06
3.46105e-06
3.46131e-06
3.46159e-06
3.46183e-06
3.462e-06
3.46212e-06
3.46219e-06
3.46221e-06
3.46219e-06
3.46212e-06
3.462e-06
3.46182e-06
3.46159e-06
3.46128e-06
3.46096e-06
3.46068e-06
3.46111e-06
3.46131e-06
3.46155e-06
3.46179e-06
3.462e-06
3.46216e-06
3.46226e-06
3.46232e-06
3.46234e-06
3.46232e-06
3.46225e-06
3.46215e-06
3.46199e-06
3.46178e-06
3.46151e-06
3.46122e-06
3.46098e-06
3.46142e-06
3.46159e-06
3.46179e-06
3.462e-06
3.46218e-06
3.46232e-06
3.46241e-06
3.46246e-06
3.46247e-06
3.46245e-06
3.4624e-06
3.46231e-06
3.46217e-06
3.46199e-06
3.46175e-06
3.4615e-06
3.46129e-06
3.46168e-06
3.46183e-06
3.462e-06
3.46218e-06
3.46234e-06
3.46246e-06
3.46253e-06
3.46257e-06
3.46259e-06
3.46257e-06
3.46252e-06
3.46244e-06
3.46233e-06
3.46217e-06
3.46196e-06
3.46173e-06
3.46155e-06
3.46187e-06
3.462e-06
3.46216e-06
3.46232e-06
3.46246e-06
3.46255e-06
3.46262e-06
3.46266e-06
3.46267e-06
3.46265e-06
3.46261e-06
3.46254e-06
3.46244e-06
3.4623e-06
3.46211e-06
3.46191e-06
3.46174e-06
3.462e-06
3.46212e-06
3.46226e-06
3.46241e-06
3.46253e-06
3.46262e-06
3.46268e-06
3.46271e-06
3.46272e-06
3.4627e-06
3.46267e-06
3.4626e-06
3.46251e-06
3.46238e-06
3.46221e-06
3.46203e-06
3.46187e-06
3.46207e-06
3.46219e-06
3.46232e-06
3.46246e-06
3.46257e-06
3.46266e-06
3.46271e-06
3.46274e-06
3.46275e-06
3.46273e-06
3.4627e-06
3.46264e-06
3.46255e-06
3.46243e-06
3.46227e-06
3.4621e-06
3.46194e-06
3.4621e-06
3.46222e-06
3.46234e-06
3.46247e-06
3.46259e-06
3.46267e-06
3.46272e-06
3.46275e-06
3.46275e-06
3.46274e-06
3.46271e-06
3.46265e-06
3.46256e-06
3.46245e-06
3.46229e-06
3.46212e-06
3.46197e-06
3.46207e-06
3.46219e-06
3.46232e-06
3.46245e-06
3.46257e-06
3.46265e-06
3.4627e-06
3.46273e-06
3.46274e-06
3.46273e-06
3.46269e-06
3.46263e-06
3.46255e-06
3.46243e-06
3.46227e-06
3.46209e-06
3.46194e-06
3.462e-06
3.46212e-06
3.46225e-06
3.4624e-06
3.46252e-06
3.46261e-06
3.46267e-06
3.4627e-06
3.46271e-06
3.46269e-06
3.46265e-06
3.46259e-06
3.4625e-06
3.46238e-06
3.46221e-06
3.46202e-06
3.46187e-06
3.46187e-06
3.462e-06
3.46215e-06
3.46231e-06
3.46244e-06
3.46254e-06
3.4626e-06
3.46264e-06
3.46265e-06
3.46263e-06
3.46259e-06
3.46252e-06
3.46242e-06
3.46229e-06
3.4621e-06
3.4619e-06
3.46174e-06
3.46168e-06
3.46182e-06
3.46199e-06
3.46217e-06
3.46233e-06
3.46244e-06
3.46251e-06
3.46255e-06
3.46256e-06
3.46255e-06
3.4625e-06
3.46242e-06
3.46231e-06
3.46215e-06
3.46195e-06
3.46173e-06
3.46155e-06
3.46142e-06
3.46159e-06
3.46178e-06
3.46199e-06
3.46217e-06
3.4623e-06
3.46238e-06
3.46243e-06
3.46245e-06
3.46243e-06
3.46238e-06
3.46229e-06
3.46215e-06
3.46198e-06
3.46175e-06
3.46149e-06
3.46129e-06
3.46109e-06
3.46128e-06
3.46151e-06
3.46175e-06
3.46196e-06
3.46211e-06
3.46222e-06
3.46227e-06
3.46229e-06
3.46227e-06
3.46221e-06
3.4621e-06
3.46195e-06
3.46175e-06
3.46148e-06
3.46119e-06
3.46095e-06
3.46074e-06
3.46096e-06
3.46122e-06
3.4615e-06
3.46173e-06
3.46191e-06
3.46203e-06
3.4621e-06
3.46212e-06
3.4621e-06
3.46202e-06
3.4619e-06
3.46173e-06
3.46149e-06
3.46119e-06
3.46087e-06
3.4606e-06
3.46038e-06
3.46068e-06
3.46098e-06
3.46129e-06
3.46155e-06
3.46174e-06
3.46187e-06
3.46194e-06
3.46197e-06
3.46194e-06
3.46187e-06
3.46174e-06
3.46155e-06
3.46129e-06
3.46095e-06
3.4606e-06
3.46024e-06
3.42215e-06
3.42244e-06
3.42272e-06
3.42303e-06
3.4233e-06
3.42351e-06
3.42365e-06
3.42373e-06
3.42376e-06
3.42373e-06
3.42365e-06
3.42351e-06
3.42331e-06
3.42305e-06
3.42271e-06
3.42237e-06
3.42203e-06
3.42244e-06
3.42267e-06
3.42293e-06
3.42322e-06
3.42348e-06
3.42367e-06
3.42381e-06
3.42389e-06
3.42392e-06
3.42389e-06
3.42381e-06
3.42368e-06
3.42349e-06
3.42323e-06
3.42292e-06
3.42259e-06
3.42232e-06
3.42272e-06
3.42293e-06
3.42318e-06
3.42344e-06
3.42368e-06
3.42386e-06
3.42398e-06
3.42405e-06
3.42408e-06
3.42406e-06
3.42398e-06
3.42386e-06
3.42369e-06
3.42345e-06
3.42316e-06
3.42286e-06
3.4226e-06
3.42303e-06
3.42322e-06
3.42344e-06
3.42368e-06
3.4239e-06
3.42406e-06
3.42417e-06
3.42424e-06
3.42426e-06
3.42424e-06
3.42417e-06
3.42406e-06
3.4239e-06
3.42369e-06
3.42342e-06
3.42314e-06
3.42292e-06
3.4233e-06
3.42348e-06
3.42368e-06
3.4239e-06
3.42409e-06
3.42423e-06
3.42433e-06
3.42439e-06
3.42441e-06
3.42439e-06
3.42433e-06
3.42423e-06
3.42409e-06
3.4239e-06
3.42366e-06
3.4234e-06
3.42319e-06
3.42351e-06
3.42367e-06
3.42386e-06
3.42406e-06
3.42423e-06
3.42437e-06
3.42446e-06
3.42451e-06
3.42453e-06
3.42451e-06
3.42446e-06
3.42436e-06
3.42423e-06
3.42405e-06
3.42383e-06
3.42359e-06
3.42339e-06
3.42365e-06
3.42381e-06
3.42398e-06
3.42417e-06
3.42433e-06
3.42446e-06
3.42454e-06
3.42459e-06
3.42461e-06
3.42459e-06
3.42454e-06
3.42445e-06
3.42433e-06
3.42416e-06
3.42395e-06
3.42373e-06
3.42354e-06
3.42373e-06
3.42389e-06
3.42406e-06
3.42424e-06
3.42439e-06
3.42451e-06
3.4246e-06
3.42464e-06
3.42466e-06
3.42464e-06
3.42459e-06
3.42451e-06
3.42439e-06
3.42423e-06
3.42403e-06
3.42381e-06
3.42362e-06
3.42376e-06
3.42392e-06
3.42408e-06
3.42426e-06
3.42441e-06
3.42453e-06
3.42461e-06
3.42466e-06
3.42467e-06
3.42466e-06
3.42461e-06
3.42452e-06
3.42441e-06
3.42425e-06
3.42405e-06
3.42384e-06
3.42365e-06
3.42374e-06
3.42389e-06
3.42406e-06
3.42424e-06
3.42439e-06
3.42451e-06
3.42459e-06
3.42464e-06
3.42466e-06
3.42464e-06
3.42459e-06
3.42451e-06
3.42439e-06
3.42423e-06
3.42403e-06
3.42381e-06
3.42362e-06
3.42365e-06
3.42381e-06
3.42398e-06
3.42417e-06
3.42433e-06
3.42446e-06
3.42454e-06
3.42459e-06
3.42461e-06
3.42459e-06
3.42454e-06
3.42445e-06
3.42433e-06
3.42416e-06
3.42396e-06
3.42373e-06
3.42354e-06
3.42351e-06
3.42368e-06
3.42386e-06
3.42406e-06
3.42423e-06
3.42436e-06
3.42445e-06
3.42451e-06
3.42453e-06
3.42451e-06
3.42445e-06
3.42436e-06
3.42423e-06
3.42405e-06
3.42384e-06
3.4236e-06
3.4234e-06
3.42332e-06
3.42349e-06
3.42369e-06
3.4239e-06
3.42409e-06
3.42423e-06
3.42433e-06
3.42439e-06
3.42441e-06
3.42439e-06
3.42433e-06
3.42423e-06
3.42409e-06
3.4239e-06
3.42366e-06
3.42341e-06
3.4232e-06
3.42305e-06
3.42324e-06
3.42345e-06
3.42369e-06
3.4239e-06
3.42405e-06
3.42416e-06
3.42423e-06
3.42425e-06
3.42423e-06
3.42416e-06
3.42406e-06
3.4239e-06
3.42369e-06
3.42343e-06
3.42316e-06
3.42294e-06
3.42271e-06
3.42292e-06
3.42316e-06
3.42343e-06
3.42366e-06
3.42383e-06
3.42396e-06
3.42403e-06
3.42405e-06
3.42403e-06
3.42396e-06
3.42384e-06
3.42366e-06
3.42343e-06
3.42315e-06
3.42284e-06
3.4226e-06
3.42237e-06
3.4226e-06
3.42286e-06
3.42315e-06
3.4234e-06
3.42359e-06
3.42373e-06
3.42381e-06
3.42384e-06
3.42381e-06
3.42373e-06
3.4236e-06
3.42341e-06
3.42316e-06
3.42284e-06
3.42252e-06
3.42225e-06
3.42203e-06
3.42232e-06
3.4226e-06
3.42292e-06
3.42319e-06
3.42339e-06
3.42354e-06
3.42362e-06
3.42365e-06
3.42362e-06
3.42354e-06
3.4234e-06
3.4232e-06
3.42294e-06
3.4226e-06
3.42225e-06
3.42191e-06
3.38444e-06
3.38468e-06
3.38493e-06
3.38521e-06
3.38545e-06
3.38564e-06
3.38578e-06
3.38586e-06
3.38589e-06
3.38586e-06
3.38579e-06
3.38566e-06
3.38547e-06
3.38523e-06
3.38493e-06
3.38463e-06
3.38434e-06
3.38468e-06
3.38488e-06
3.38512e-06
3.38538e-06
3.38562e-06
3.38581e-06
3.38594e-06
3.38602e-06
3.38605e-06
3.38602e-06
3.38595e-06
3.38582e-06
3.38564e-06
3.38541e-06
3.38512e-06
3.38483e-06
3.38459e-06
3.38493e-06
3.38512e-06
3.38535e-06
3.3856e-06
3.38582e-06
3.38599e-06
3.38612e-06
3.38619e-06
3.38622e-06
3.38619e-06
3.38612e-06
3.386e-06
3.38583e-06
3.38561e-06
3.38534e-06
3.38506e-06
3.38483e-06
3.38521e-06
3.38538e-06
3.3856e-06
3.38582e-06
3.38603e-06
3.38619e-06
3.38631e-06
3.38638e-06
3.3864e-06
3.38638e-06
3.38631e-06
3.3862e-06
3.38604e-06
3.38584e-06
3.38559e-06
3.38532e-06
3.38511e-06
3.38545e-06
3.38562e-06
3.38582e-06
3.38603e-06
3.38622e-06
3.38637e-06
3.38648e-06
3.38654e-06
3.38656e-06
3.38654e-06
3.38648e-06
3.38638e-06
3.38623e-06
3.38604e-06
3.38581e-06
3.38556e-06
3.38536e-06
3.38564e-06
3.38581e-06
3.38599e-06
3.38619e-06
3.38637e-06
3.38651e-06
3.38661e-06
3.38667e-06
3.38669e-06
3.38667e-06
3.38661e-06
3.38652e-06
3.38638e-06
3.3862e-06
3.38598e-06
3.38575e-06
3.38555e-06
3.38578e-06
3.38594e-06
3.38612e-06
3.38631e-06
3.38648e-06
3.38661e-06
3.38671e-06
3.38676e-06
3.38678e-06
3.38676e-06
3.38671e-06
3.38661e-06
3.38648e-06
3.38631e-06
3.3861e-06
3.38588e-06
3.38569e-06
3.38586e-06
3.38602e-06
3.38619e-06
3.38638e-06
3.38654e-06
3.38667e-06
3.38676e-06
3.38682e-06
3.38683e-06
3.38682e-06
3.38676e-06
3.38667e-06
3.38655e-06
3.38638e-06
3.38617e-06
3.38596e-06
3.38577e-06
3.38589e-06
3.38605e-06
3.38622e-06
3.3864e-06
3.38656e-06
3.38669e-06
3.38678e-06
3.38683e-06
3.38685e-06
3.38683e-06
3.38678e-06
3.38669e-06
3.38657e-06
3.3864e-06
3.3862e-06
3.38598e-06
3.3858e-06
3.38586e-06
3.38602e-06
3.38619e-06
3.38638e-06
3.38654e-06
3.38667e-06
3.38676e-06
3.38682e-06
3.38683e-06
3.38682e-06
3.38676e-06
3.38667e-06
3.38655e-06
3.38638e-06
3.38618e-06
3.38596e-06
3.38577e-06
3.38579e-06
3.38595e-06
3.38612e-06
3.38631e-06
3.38648e-06
3.38661e-06
3.38671e-06
3.38676e-06
3.38678e-06
3.38676e-06
3.38671e-06
3.38662e-06
3.38649e-06
3.38632e-06
3.38611e-06
3.38588e-06
3.38569e-06
3.38566e-06
3.38582e-06
3.386e-06
3.3862e-06
3.38638e-06
3.38652e-06
3.38661e-06
3.38667e-06
3.38669e-06
3.38667e-06
3.38662e-06
3.38652e-06
3.38639e-06
3.38621e-06
3.38599e-06
3.38576e-06
3.38556e-06
3.38547e-06
3.38564e-06
3.38583e-06
3.38604e-06
3.38623e-06
3.38638e-06
3.38648e-06
3.38655e-06
3.38657e-06
3.38655e-06
3.38649e-06
3.38639e-06
3.38624e-06
3.38605e-06
3.38582e-06
3.38558e-06
3.38538e-06
3.38523e-06
3.38541e-06
3.38561e-06
3.38584e-06
3.38604e-06
3.3862e-06
3.38631e-06
3.38638e-06
3.3864e-06
3.38638e-06
3.38632e-06
3.38621e-06
3.38605e-06
3.38585e-06
3.38561e-06
3.38534e-06
3.38514e-06
3.38493e-06
3.38512e-06
3.38535e-06
3.38559e-06
3.38581e-06
3.38598e-06
3.3861e-06
3.38617e-06
3.3862e-06
3.38618e-06
3.38611e-06
3.38599e-06
3.38582e-06
3.38561e-06
3.38534e-06
3.38506e-06
3.38484e-06
3.38463e-06
3.38483e-06
3.38506e-06
3.38533e-06
3.38556e-06
3.38575e-06
3.38588e-06
3.38596e-06
3.38598e-06
3.38596e-06
3.38588e-06
3.38576e-06
3.38558e-06
3.38535e-06
3.38506e-06
3.38477e-06
3.38454e-06
3.38434e-06
3.38459e-06
3.38483e-06
3.38511e-06
3.38536e-06
3.38555e-06
3.38569e-06
3.38577e-06
3.3858e-06
3.38577e-06
3.38569e-06
3.38556e-06
3.38538e-06
3.38514e-06
3.38484e-06
3.38454e-06
3.38425e-06
3.3472e-06
3.34739e-06
3.34759e-06
3.34782e-06
3.34803e-06
3.34819e-06
3.3483e-06
3.34838e-06
3.3484e-06
3.34838e-06
3.34831e-06
3.3482e-06
3.34805e-06
3.34785e-06
3.3476e-06
3.34736e-06
3.34713e-06
3.34739e-06
3.34756e-06
3.34775e-06
3.34797e-06
3.34818e-06
3.34834e-06
3.34845e-06
3.34852e-06
3.34855e-06
3.34853e-06
3.34846e-06
3.34835e-06
3.3482e-06
3.348e-06
3.34776e-06
3.34752e-06
3.34732e-06
3.34759e-06
3.34775e-06
3.34795e-06
3.34816e-06
3.34835e-06
3.3485e-06
3.34861e-06
3.34868e-06
3.3487e-06
3.34869e-06
3.34862e-06
3.34852e-06
3.34837e-06
3.34818e-06
3.34795e-06
3.34771e-06
3.34752e-06
3.34782e-06
3.34797e-06
3.34816e-06
3.34836e-06
3.34854e-06
3.34868e-06
3.34879e-06
3.34885e-06
3.34887e-06
3.34886e-06
3.3488e-06
3.3487e-06
3.34856e-06
3.34837e-06
3.34816e-06
3.34793e-06
3.34775e-06
3.34803e-06
3.34818e-06
3.34835e-06
3.34854e-06
3.34871e-06
3.34885e-06
3.34895e-06
3.34901e-06
3.34903e-06
3.34901e-06
3.34895e-06
3.34886e-06
3.34873e-06
3.34855e-06
3.34835e-06
3.34813e-06
3.34795e-06
3.34819e-06
3.34834e-06
3.3485e-06
3.34868e-06
3.34885e-06
3.34898e-06
3.34907e-06
3.34913e-06
3.34915e-06
3.34913e-06
3.34908e-06
3.34899e-06
3.34886e-06
3.3487e-06
3.3485e-06
3.34829e-06
3.34812e-06
3.3483e-06
3.34845e-06
3.34861e-06
3.34879e-06
3.34895e-06
3.34907e-06
3.34916e-06
3.34921e-06
3.34923e-06
3.34922e-06
3.34916e-06
3.34908e-06
3.34896e-06
3.3488e-06
3.34861e-06
3.34841e-06
3.34823e-06
3.34838e-06
3.34852e-06
3.34868e-06
3.34885e-06
3.34901e-06
3.34913e-06
3.34921e-06
3.34926e-06
3.34928e-06
3.34927e-06
3.34922e-06
3.34913e-06
3.34901e-06
3.34886e-06
3.34867e-06
3.34848e-06
3.34831e-06
3.3484e-06
3.34855e-06
3.34871e-06
3.34887e-06
3.34903e-06
3.34915e-06
3.34923e-06
3.34928e-06
3.3493e-06
3.34929e-06
3.34924e-06
3.34915e-06
3.34903e-06
3.34888e-06
3.3487e-06
3.3485e-06
3.34833e-06