/*--------------------------------*- C++ -*----------------------------------*\
  =========                 |
  \\      /  F ield         | OpenFOAM: The Open Source CFD Toolbox
   \\    /   O peration     | Website:  https://openfoam.org
    \\  /    A nd           | Version:  6
     \\/     M anipulation  |
\*---------------------------------------------------------------------------*/
FoamFile
{
    version     2.0;
    format      ascii;
    class       volVectorField;
    location    "0";
    object      U;
}
// * * * * * * * * * * * * * * * * * * * * * * * * * * * * * * * * * * * * * //

dimensions      [0 1 -1 0 0 0 0];

internalField   nonuniform List<vector> 
40000
(
(4.8023e-07 -4.8034e-07 0)
(2.85445e-06 -9.61777e-07 0)
(6.04837e-06 -1.08521e-06 0)
(9.19079e-06 -9.2369e-07 0)
(1.14352e-05 -6.11967e-07 0)
(1.23336e-05 -2.19844e-07 0)
(1.16545e-05 2.07847e-07 0)
(9.29746e-06 6.42645e-07 0)
(5.2499e-06 1.0674e-06 0)
(-4.44623e-07 1.47195e-06 0)
(-7.70736e-06 1.85042e-06 0)
(-1.64385e-05 2.19964e-06 0)
(-2.65265e-05 2.51827e-06 0)
(-3.7855e-05 2.80619e-06 0)
(-5.03069e-05 3.06415e-06 0)
(-6.37675e-05 3.29345e-06 0)
(-7.81268e-05 3.49573e-06 0)
(-9.32808e-05 3.67285e-06 0)
(-0.000109132 3.82678e-06 0)
(-0.000125592 3.95956e-06 0)
(-0.000142577 4.07322e-06 0)
(-0.000160014 4.16974e-06 0)
(-0.000177836 4.25103e-06 0)
(-0.000195983 4.31889e-06 0)
(-0.000214404 4.37501e-06 0)
(-0.000233051 4.42095e-06 0)
(-0.000251885 4.45816e-06 0)
(-0.000270871 4.48795e-06 0)
(-0.00028998 4.51149e-06 0)
(-0.000309187 4.52983e-06 0)
(-0.00032847 4.54391e-06 0)
(-0.000347813 4.55453e-06 0)
(-0.000367202 4.56238e-06 0)
(-0.000386624 4.56807e-06 0)
(-0.00040607 4.57206e-06 0)
(-0.000425534 4.57478e-06 0)
(-0.000445009 4.57652e-06 0)
(-0.00046449 4.57754e-06 0)
(-0.000483974 4.57799e-06 0)
(-0.000503457 4.57798e-06 0)
(-0.000522936 4.57756e-06 0)
(-0.00054241 4.57672e-06 0)
(-0.000561874 4.57541e-06 0)
(-0.000581326 4.57355e-06 0)
(-0.000600763 4.57102e-06 0)
(-0.000620181 4.56766e-06 0)
(-0.000639575 4.56329e-06 0)
(-0.000658939 4.55772e-06 0)
(-0.000678269 4.55072e-06 0)
(-0.000697556 4.54207e-06 0)
(-0.000716793 4.53151e-06 0)
(-0.000735971 4.51881e-06 0)
(-0.00075508 4.50368e-06 0)
(-0.000774109 4.48588e-06 0)
(-0.000793045 4.46513e-06 0)
(-0.000811876 4.44116e-06 0)
(-0.000830587 4.41371e-06 0)
(-0.000849163 4.3825e-06 0)
(-0.000867587 4.34728e-06 0)
(-0.000885842 4.30778e-06 0)
(-0.000903909 4.26375e-06 0)
(-0.00092177 4.21496e-06 0)
(-0.000939402 4.16115e-06 0)
(-0.000956785 4.10209e-06 0)
(-0.000973897 4.03758e-06 0)
(-0.000990713 3.9674e-06 0)
(-0.00100721 3.89134e-06 0)
(-0.00102337 3.80923e-06 0)
(-0.00103915 3.72089e-06 0)
(-0.00105454 3.62616e-06 0)
(-0.00106951 3.5249e-06 0)
(-0.00108402 3.41696e-06 0)
(-0.00109806 3.30224e-06 0)
(-0.00111159 3.18064e-06 0)
(-0.00112459 3.05206e-06 0)
(-0.00113703 2.91645e-06 0)
(-0.00114887 2.77376e-06 0)
(-0.00116009 2.62395e-06 0)
(-0.00117066 2.46702e-06 0)
(-0.00118055 2.30298e-06 0)
(-0.00118973 2.13185e-06 0)
(-0.00119817 1.9537e-06 0)
(-0.00120585 1.76859e-06 0)
(-0.00121273 1.57663e-06 0)
(-0.00121878 1.37793e-06 0)
(-0.00122399 1.17265e-06 0)
(-0.00122832 9.60944e-07 0)
(-0.00123175 7.4302e-07 0)
(-0.00123425 5.19098e-07 0)
(-0.0012358 2.89426e-07 0)
(-0.00123638 5.42813e-08 0)
(-0.00123597 -1.86032e-07 0)
(-0.00123454 -4.31183e-07 0)
(-0.00123207 -6.80812e-07 0)
(-0.00122856 -9.34532e-07 0)
(-0.00122398 -1.19193e-06 0)
(-0.00121832 -1.45255e-06 0)
(-0.00121158 -1.71593e-06 0)
(-0.00120373 -1.98157e-06 0)
(-0.00119477 -2.24894e-06 0)
(-0.0011847 -2.51749e-06 0)
(-0.00117352 -2.78664e-06 0)
(-0.00116122 -3.05579e-06 0)
(-0.0011478 -3.32431e-06 0)
(-0.00113328 -3.59156e-06 0)
(-0.00111765 -3.85687e-06 0)
(-0.00110093 -4.11955e-06 0)
(-0.00108313 -4.3789e-06 0)
(-0.00106427 -4.63422e-06 0)
(-0.00104436 -4.88477e-06 0)
(-0.00102342 -5.12983e-06 0)
(-0.00100149 -5.36866e-06 0)
(-0.000978586 -5.60052e-06 0)
(-0.000954741 -5.82467e-06 0)
(-0.000929988 -6.04039e-06 0)
(-0.000904363 -6.24696e-06 0)
(-0.000877907 -6.44366e-06 0)
(-0.000850661 -6.62981e-06 0)
(-0.00082267 -6.80474e-06 0)
(-0.000793981 -6.9678e-06 0)
(-0.000764646 -7.11839e-06 0)
(-0.000734715 -7.25591e-06 0)
(-0.000704244 -7.37982e-06 0)
(-0.000673289 -7.48961e-06 0)
(-0.00064191 -7.58483e-06 0)
(-0.000610167 -7.66507e-06 0)
(-0.000578122 -7.72995e-06 0)
(-0.000545838 -7.77916e-06 0)
(-0.00051338 -7.81246e-06 0)
(-0.000480814 -7.82964e-06 0)
(-0.000448206 -7.83056e-06 0)
(-0.000415623 -7.81515e-06 0)
(-0.00038313 -7.78338e-06 0)
(-0.000350796 -7.73531e-06 0)
(-0.000318687 -7.67103e-06 0)
(-0.000286868 -7.59072e-06 0)
(-0.000255406 -7.49461e-06 0)
(-0.000224363 -7.38299e-06 0)
(-0.000193803 -7.2562e-06 0)
(-0.000163788 -7.11464e-06 0)
(-0.000134377 -6.95877e-06 0)
(-0.000105628 -6.7891e-06 0)
(-7.75958e-05 -6.60618e-06 0)
(-5.0335e-05 -6.41061e-06 0)
(-2.3896e-05 -6.20302e-06 0)
(1.67287e-06 -5.98409e-06 0)
(2.63262e-05 -5.75452e-06 0)
(5.00213e-05 -5.51504e-06 0)
(7.27186e-05 -5.26641e-06 0)
(9.43815e-05 -5.00941e-06 0)
(0.000114977 -4.74481e-06 0)
(0.000134474 -4.47342e-06 0)
(0.000152846 -4.19603e-06 0)
(0.000170069 -3.91346e-06 0)
(0.000186123 -3.62649e-06 0)
(0.00020099 -3.33592e-06 0)
(0.000214657 -3.04253e-06 0)
(0.000227112 -2.7471e-06 0)
(0.000238348 -2.45037e-06 0)
(0.00024836 -2.15308e-06 0)
(0.000257146 -1.85595e-06 0)
(0.000264707 -1.55967e-06 0)
(0.000271048 -1.26492e-06 0)
(0.000276176 -9.72351e-07 0)
(0.000280099 -6.82607e-07 0)
(0.00028283 -3.96301e-07 0)
(0.000284383 -1.14039e-07 0)
(0.000284777 1.63588e-07 0)
(0.00028403 4.35996e-07 0)
(0.000282165 7.02601e-07 0)
(0.000279207 9.62817e-07 0)
(0.000275183 1.21604e-06 0)
(0.000270123 1.46166e-06 0)
(0.00026406 1.69902e-06 0)
(0.00025703 1.92742e-06 0)
(0.000249071 2.14611e-06 0)
(0.000240226 2.35426e-06 0)
(0.00023054 2.55094e-06 0)
(0.000220064 2.73512e-06 0)
(0.000208853 2.90562e-06 0)
(0.000196967 3.06109e-06 0)
(0.000184472 3.19998e-06 0)
(0.000171441 3.3205e-06 0)
(0.000157956 3.42056e-06 0)
(0.000144107 3.49775e-06 0)
(0.000129994 3.54924e-06 0)
(0.000115731 3.57173e-06 0)
(0.000101445 3.56135e-06 0)
(8.7279e-05 3.51355e-06 0)
(7.33949e-05 3.42302e-06 0)
(5.99759e-05 3.28353e-06 0)
(4.72293e-05 3.08784e-06 0)
(3.5389e-05 2.82769e-06 0)
(2.47167e-05 2.49398e-06 0)
(1.55e-05 2.07763e-06 0)
(8.04344e-06 1.57222e-06 0)
(2.64414e-06 9.79711e-07 0)
(-4.73626e-07 3.20986e-07 0)
(-1.3573e-06 -3.11351e-07 0)
(-5.73045e-07 -5.73083e-07 0)
(9.65051e-07 -2.85773e-06 0)
(5.78842e-06 -5.77573e-06 0)
(1.15438e-05 -6.2699e-06 0)
(1.65177e-05 -4.94373e-06 0)
(1.90218e-05 -2.44794e-06 0)
(1.80567e-05 7.33529e-07 0)
(1.30429e-05 4.26648e-06 0)
(3.68813e-06 7.92548e-06 0)
(-1.00913e-05 1.15609e-05 0)
(-2.82338e-05 1.50752e-05 0)
(-5.05795e-05 1.84064e-05 0)
(-7.69043e-05 2.1517e-05 0)
(-0.000106944 2.43866e-05 0)
(-0.000140412 2.70067e-05 0)
(-0.000177015 2.93777e-05 0)
(-0.000216456 3.15055e-05 0)
(-0.000258449 3.34007e-05 0)
(-0.000302719 3.50762e-05 0)
(-0.000349004 3.65469e-05 0)
(-0.000397061 3.78287e-05 0)
(-0.000446667 3.89378e-05 0)
(-0.000497615 3.98907e-05 0)
(-0.00054972 4.0703e-05 0)
(-0.000602812 4.13903e-05 0)
(-0.000656744 4.1967e-05 0)
(-0.000711381 4.24468e-05 0)
(-0.000766607 4.28423e-05 0)
(-0.000822322 4.31651e-05 0)
(-0.000878435 4.34256e-05 0)
(-0.000934873 4.36335e-05 0)
(-0.00099157 4.37971e-05 0)
(-0.00104847 4.39238e-05 0)
(-0.00110553 4.40201e-05 0)
(-0.00116271 4.40915e-05 0)
(-0.00121998 4.41425e-05 0)
(-0.00127731 4.4177e-05 0)
(-0.00133469 4.41982e-05 0)
(-0.00139208 4.42083e-05 0)
(-0.00144948 4.4209e-05 0)
(-0.00150687 4.42016e-05 0)
(-0.00156424 4.41866e-05 0)
(-0.00162158 4.41643e-05 0)
(-0.00167887 4.41343e-05 0)
(-0.0017361 4.40961e-05 0)
(-0.00179326 4.40486e-05 0)
(-0.00185034 4.39906e-05 0)
(-0.00190732 4.39207e-05 0)
(-0.00196418 4.38371e-05 0)
(-0.00202089 4.37381e-05 0)
(-0.00207745 4.36215e-05 0)
(-0.00213381 4.34852e-05 0)
(-0.00218996 4.3327e-05 0)
(-0.00224587 4.31447e-05 0)
(-0.00230149 4.29358e-05 0)
(-0.0023568 4.2698e-05 0)
(-0.00241175 4.24289e-05 0)
(-0.0024663 4.2126e-05 0)
(-0.00252041 4.17872e-05 0)
(-0.00257403 4.14099e-05 0)
(-0.00262711 4.09918e-05 0)
(-0.00267959 4.05308e-05 0)
(-0.00273141 4.00247e-05 0)
(-0.00278253 3.94712e-05 0)
(-0.00283287 3.88685e-05 0)
(-0.00288237 3.82145e-05 0)
(-0.00293096 3.75074e-05 0)
(-0.00297858 3.67454e-05 0)
(-0.00302516 3.5927e-05 0)
(-0.00307061 3.50506e-05 0)
(-0.00311488 3.41149e-05 0)
(-0.00315787 3.31185e-05 0)
(-0.00319952 3.20604e-05 0)
(-0.00323974 3.09397e-05 0)
(-0.00327846 2.97555e-05 0)
(-0.00331559 2.85071e-05 0)
(-0.00335106 2.71942e-05 0)
(-0.00338478 2.58163e-05 0)
(-0.00341666 2.43734e-05 0)
(-0.00344664 2.28655e-05 0)
(-0.00347462 2.12928e-05 0)
(-0.00350052 1.96557e-05 0)
(-0.00352427 1.7955e-05 0)
(-0.00354579 1.61913e-05 0)
(-0.00356499 1.43659e-05 0)
(-0.00358181 1.24798e-05 0)
(-0.00359616 1.05347e-05 0)
(-0.00360798 8.53222e-06 0)
(-0.00361719 6.47429e-06 0)
(-0.00362373 4.36309e-06 0)
(-0.00362754 2.20105e-06 0)
(-0.00362854 -9.20404e-09 0)
(-0.0036267 -2.26476e-06 0)
(-0.00362194 -4.56247e-06 0)
(-0.00361422 -6.89896e-06 0)
(-0.00360351 -9.27058e-06 0)
(-0.00358975 -1.16735e-05 0)
(-0.00357291 -1.41035e-05 0)
(-0.00355296 -1.65562e-05 0)
(-0.00352989 -1.90271e-05 0)
(-0.00350366 -2.15114e-05 0)
(-0.00347427 -2.40039e-05 0)
(-0.00344172 -2.64993e-05 0)
(-0.003406 -2.89922e-05 0)
(-0.00336713 -3.1477e-05 0)
(-0.00332511 -3.39477e-05 0)
(-0.00327998 -3.63983e-05 0)
(-0.00323177 -3.88227e-05 0)
(-0.0031805 -4.12146e-05 0)
(-0.00312623 -4.35675e-05 0)
(-0.00306902 -4.5875e-05 0)
(-0.00300893 -4.81306e-05 0)
(-0.00294602 -5.03276e-05 0)
(-0.00288037 -5.24595e-05 0)
(-0.00281208 -5.45198e-05 0)
(-0.00274124 -5.6502e-05 0)
(-0.00266794 -5.83996e-05 0)
(-0.00259231 -6.02065e-05 0)
(-0.00251446 -6.19165e-05 0)
(-0.00243452 -6.35236e-05 0)
(-0.00235261 -6.50223e-05 0)
(-0.00226888 -6.6407e-05 0)
(-0.00218348 -6.76727e-05 0)
(-0.00209656 -6.88144e-05 0)
(-0.00200828 -6.98278e-05 0)
(-0.00191879 -7.07088e-05 0)
(-0.00182828 -7.14537e-05 0)
(-0.00173691 -7.20592e-05 0)
(-0.00164485 -7.25228e-05 0)
(-0.00155229 -7.2842e-05 0)
(-0.00145942 -7.30151e-05 0)
(-0.0013664 -7.30408e-05 0)
(-0.00127344 -7.29185e-05 0)
(-0.0011807 -7.26479e-05 0)
(-0.00108839 -7.22294e-05 0)
(-0.000996685 -7.1664e-05 0)
(-0.000905766 -7.0953e-05 0)
(-0.000815816 -7.00984e-05 0)
(-0.000727015 -6.91027e-05 0)
(-0.000639537 -6.7969e-05 0)
(-0.000553553 -6.67007e-05 0)
(-0.000469231 -6.53018e-05 0)
(-0.000386732 -6.37767e-05 0)
(-0.000306212 -6.21302e-05 0)
(-0.000227821 -6.03676e-05 0)
(-0.000151701 -5.84944e-05 0)
(-7.79896e-05 -5.65166e-05 0)
(-6.81461e-06 -5.44404e-05 0)
(6.1703e-05 -5.22721e-05 0)
(0.00012745 -5.00185e-05 0)
(0.000190323 -4.76863e-05 0)
(0.000250226 -4.52826e-05 0)
(0.000307071 -4.28145e-05 0)
(0.00036078 -4.0289e-05 0)
(0.000411283 -3.77133e-05 0)
(0.00045852 -3.50946e-05 0)
(0.000502439 -3.24401e-05 0)
(0.000542998 -2.97566e-05 0)
(0.000580162 -2.70513e-05 0)
(0.000613905 -2.4331e-05 0)
(0.000644212 -2.16024e-05 0)
(0.000671072 -1.8872e-05 0)
(0.000694487 -1.61464e-05 0)
(0.000714465 -1.34319e-05 0)
(0.000731019 -1.07344e-05 0)
(0.000744175 -8.0602e-06 0)
(0.000753964 -5.41499e-06 0)
(0.000760423 -2.80463e-06 0)
(0.0007636 -2.34825e-07 0)
(0.000763547 2.28873e-06 0)
(0.000760326 4.76031e-06 0)
(0.000754005 7.17413e-06 0)
(0.00074466 9.52425e-06 0)
(0.000732376 1.18045e-05 0)
(0.000717244 1.40084e-05 0)
(0.000699366 1.6129e-05 0)
(0.000678853 1.81588e-05 0)
(0.000655825 2.00897e-05 0)
(0.000630414 2.19127e-05 0)
(0.000602765 2.36178e-05 0)
(0.000573035 2.51937e-05 0)
(0.000541398 2.66276e-05 0)
(0.000508043 2.79052e-05 0)
(0.000473181 2.90099e-05 0)
(0.000437043 2.99231e-05 0)
(0.000399885 3.06231e-05 0)
(0.000361993 3.10853e-05 0)
(0.000323682 3.12817e-05 0)
(0.000285304 3.11799e-05 0)
(0.000247251 3.07433e-05 0)
(0.000209958 2.99306e-05 0)
(0.000173912 2.86955e-05 0)
(0.000139646 2.69878e-05 0)
(0.000107748 2.47548e-05 0)
(7.88537e-05 2.19468e-05 0)
(5.36292e-05 1.85276e-05 0)
(3.27417e-05 1.44988e-05 0)
(1.67887e-05 9.9493e-06 0)
(6.16374e-06 5.15358e-06 0)
(8.0149e-07 8.06535e-07 0)
(-3.12395e-07 -1.3584e-06 0)
(1.09544e-06 -6.07049e-06 0)
(6.31438e-06 -1.15438e-05 0)
(1.1716e-05 -1.16628e-05 0)
(1.51806e-05 -7.92007e-06 0)
(1.46461e-05 -1.60003e-06 0)
(8.82879e-06 6.312e-06 0)
(-3.06556e-06 1.50959e-05 0)
(-2.14703e-05 2.42394e-05 0)
(-4.65402e-05 3.33844e-05 0)
(-7.82242e-05 4.22858e-05 0)
(-0.000116325 5.07799e-05 0)
(-0.000160542 5.8762e-05 0)
(-0.000210511 6.61703e-05 0)
(-0.000265823 7.29739e-05 0)
(-0.000326052 7.91651e-05 0)
(-0.000390762 8.47521e-05 0)
(-0.000459527 8.97551e-05 0)
(-0.000531931 9.42025e-05 0)
(-0.000607579 9.81282e-05 0)
(-0.000686097 0.000101569 0)
(-0.00076714 0.000104565 0)
(-0.000850387 0.000107154 0)
(-0.000935545 0.000109376 0)
(-0.00102235 0.000111269 0)
(-0.00111056 0.00011287 0)
(-0.00119997 0.000114213 0)
(-0.00129039 0.000115329 0)
(-0.00138164 0.000116248 0)
(-0.0014736 0.000116998 0)
(-0.00156612 0.000117603 0)
(-0.0016591 0.000118084 0)
(-0.00175246 0.000118461 0)
(-0.0018461 0.00011875 0)
(-0.00193996 0.000118967 0)
(-0.00203399 0.000119122 0)
(-0.00212813 0.000119228 0)
(-0.00222234 0.000119291 0)
(-0.00231659 0.000119318 0)
(-0.00241085 0.000119315 0)
(-0.00250508 0.000119283 0)
(-0.00259927 0.000119226 0)
(-0.00269338 0.000119144 0)
(-0.0027874 0.000119036 0)
(-0.0028813 0.000118901 0)
(-0.00297504 0.000118737 0)
(-0.00306861 0.000118541 0)
(-0.00316198 0.000118309 0)
(-0.00325511 0.000118036 0)
(-0.00334796 0.00011772 0)
(-0.00344049 0.000117353 0)
(-0.00353267 0.000116931 0)
(-0.00362444 0.000116448 0)
(-0.00371575 0.000115898 0)
(-0.00380655 0.000115275 0)
(-0.00389677 0.000114574 0)
(-0.00398635 0.000113788 0)
(-0.00407522 0.00011291 0)
(-0.0041633 0.000111935 0)
(-0.00425052 0.000110857 0)
(-0.00433679 0.00010967 0)
(-0.00442203 0.000108368 0)
(-0.00450614 0.000106945 0)
(-0.00458902 0.000105396 0)
(-0.00467058 0.000103717 0)
(-0.00475072 0.000101901 0)
(-0.00482932 9.99441e-05 0)
(-0.00490627 9.78422e-05 0)
(-0.00498146 9.55911e-05 0)
(-0.00505478 9.31869e-05 0)
(-0.00512611 9.06262e-05 0)
(-0.00519532 8.79059e-05 0)
(-0.00526229 8.50233e-05 0)
(-0.00532689 8.19761e-05 0)
(-0.005389 7.87624e-05 0)
(-0.0054485 7.53806e-05 0)
(-0.00550524 7.18298e-05 0)
(-0.00555911 6.81094e-05 0)
(-0.00560998 6.42192e-05 0)
(-0.00565771 6.01596e-05 0)
(-0.00570218 5.59314e-05 0)
(-0.00574326 5.1536e-05 0)
(-0.00578082 4.69753e-05 0)
(-0.00581475 4.22518e-05 0)
(-0.00584492 3.73684e-05 0)
(-0.0058712 3.23286e-05 0)
(-0.0058935 2.71366e-05 0)
(-0.00591169 2.17971e-05 0)
(-0.00592567 1.63154e-05 0)
(-0.00593533 1.06972e-05 0)
(-0.00594057 4.9493e-06 0)
(-0.00594131 -9.21343e-07 0)
(-0.00593745 -6.90694e-06 0)
(-0.00592892 -1.29991e-05 0)
(-0.00591563 -1.91889e-05 0)
(-0.00589753 -2.54666e-05 0)
(-0.00587455 -3.18219e-05 0)
(-0.00584664 -3.82441e-05 0)
(-0.00581376 -4.47216e-05 0)
(-0.00577587 -5.12424e-05 0)
(-0.00573296 -5.77938e-05 0)
(-0.005685 -6.43625e-05 0)
(-0.00563199 -7.09348e-05 0)
(-0.00557394 -7.74965e-05 0)
(-0.00551087 -8.40327e-05 0)
(-0.0054428 -9.05284e-05 0)
(-0.00536978 -9.69678e-05 0)
(-0.00529185 -0.000103335 0)
(-0.00520908 -0.000109614 0)
(-0.00512156 -0.000115788 0)
(-0.00502936 -0.00012184 0)
(-0.00493258 -0.000127754 0)
(-0.00483135 -0.000133512 0)
(-0.00472579 -0.000139098 0)
(-0.00461604 -0.000144495 0)
(-0.00450225 -0.000149687 0)
(-0.00438458 -0.000154656 0)
(-0.00426321 -0.000159387 0)
(-0.00413833 -0.000163865 0)
(-0.00401014 -0.000168073 0)
(-0.00387884 -0.000171998 0)
(-0.00374466 -0.000175626 0)
(-0.00360783 -0.000178943 0)
(-0.00346859 -0.000181938 0)
(-0.00332719 -0.000184598 0)
(-0.00318388 -0.000186914 0)
(-0.00303894 -0.000188875 0)
(-0.00289262 -0.000190475 0)
(-0.00274521 -0.000191705 0)
(-0.00259699 -0.00019256 0)
(-0.00244824 -0.000193035 0)
(-0.00229926 -0.000193128 0)
(-0.00215033 -0.000192835 0)
(-0.00200174 -0.000192158 0)
(-0.00185378 -0.000191096 0)
(-0.00170675 -0.000189652 0)
(-0.00156093 -0.000187829 0)
(-0.00141661 -0.000185633 0)
(-0.00127407 -0.000183069 0)
(-0.00113358 -0.000180146 0)
(-0.000995414 -0.000176872 0)
(-0.000859833 -0.000173257 0)
(-0.000727091 -0.000169312 0)
(-0.000597436 -0.00016505 0)
(-0.000471104 -0.000160485 0)
(-0.000348321 -0.000155629 0)
(-0.000229304 -0.000150499 0)
(-0.000114256 -0.000145109 0)
(-3.37143e-06 -0.000139477 0)
(0.000103171 -0.00013362 0)
(0.000205204 -0.000127554 0)
(0.000302573 -0.000121299 0)
(0.000395137 -0.000114872 0)
(0.00048277 -0.00010829 0)
(0.000565358 -0.000101574 0)
(0.000642801 -9.47413e-05 0)
(0.000715014 -8.78101e-05 0)
(0.000781925 -8.07989e-05 0)
(0.000843476 -7.37257e-05 0)
(0.000899622 -6.66086e-05 0)
(0.000950333 -5.9465e-05 0)
(0.000995589 -5.23122e-05 0)
(0.00103539 -4.51671e-05 0)
(0.00106974 -3.80464e-05 0)
(0.00109866 -3.09662e-05 0)
(0.00112218 -2.39427e-05 0)
(0.00114035 -1.69914e-05 0)
(0.00115323 -1.0128e-05 0)
(0.00116089 -3.36785e-06 0)
(0.00116341 3.27367e-06 0)
(0.00116088 9.78103e-06 0)
(0.00115342 1.61385e-05 0)
(0.00114113 2.23297e-05 0)
(0.00112416 2.8338e-05 0)
(0.00110264 3.41456e-05 0)
(0.00107675 3.97337e-05 0)
(0.00104665 4.50818e-05 0)
(0.00101255 5.01681e-05 0)
(0.000974646 5.49682e-05 0)
(0.000933175 5.94552e-05 0)
(0.000888391 6.35994e-05 0)
(0.00084057 6.7367e-05 0)
(0.000790018 7.07205e-05 0)
(0.000737069 7.36171e-05 0)
(0.000682093 7.60087e-05 0)
(0.000625494 7.78408e-05 0)
(0.000567721 7.90518e-05 0)
(0.000509269 7.95723e-05 0)
(0.000450683 7.93243e-05 0)
(0.000392564 7.8221e-05 0)
(0.000335574 7.61669e-05 0)
(0.000280436 7.3059e-05 0)
(0.000227937 6.87901e-05 0)
(0.000178921 6.32558e-05 0)
(0.000134277 5.63689e-05 0)
(9.4913e-05 4.80861e-05 0)
(6.17032e-05 3.84605e-05 0)
(3.53997e-05 2.77383e-05 0)
(1.6499e-05 1.65286e-05 0)
(5.13162e-06 6.16214e-06 0)
(3.16953e-07 -4.82558e-07 0)
(9.41624e-07 -9.25055e-06 0)
(5.01063e-06 -1.65482e-05 0)
(7.98689e-06 -1.51276e-05 0)
(7.55037e-06 -7.50608e-06 0)
(1.53542e-06 4.33929e-06 0)
(-1.14532e-05 1.88754e-05 0)
(-3.23068e-05 3.49434e-05 0)
(-6.15293e-05 5.16889e-05 0)
(-9.93151e-05 6.8494e-05 0)
(-0.00014562 8.49204e-05 0)
(-0.000200221 0.000100665 0)
(-0.00026277 0.000115528 0)
(-0.000332827 0.000129382 0)
(-0.000409898 0.000142162 0)
(-0.000493453 0.00015384 0)
(-0.000582954 0.000164423 0)
(-0.000677858 0.00017394 0)
(-0.00077764 0.000182436 0)
(-0.000881793 0.000189967 0)
(-0.000989835 0.000196598 0)
(-0.00110131 0.000202396 0)
(-0.00121582 0.000207432 0)
(-0.00133295 0.000211777 0)
(-0.00145237 0.000215497 0)
(-0.00157376 0.00021866 0)
(-0.00169682 0.000221328 0)
(-0.00182131 0.000223561 0)
(-0.001947 0.000225413 0)
(-0.00207369 0.000226933 0)
(-0.00220121 0.000228167 0)
(-0.0023294 0.000229157 0)
(-0.00245812 0.000229938 0)
(-0.00258728 0.000230542 0)
(-0.00271677 0.000230996 0)
(-0.0028465 0.000231324 0)
(-0.0029764 0.000231545 0)
(-0.0031064 0.000231675 0)
(-0.00323646 0.000231726 0)
(-0.00336653 0.000231709 0)
(-0.00349654 0.000231629 0)
(-0.00362648 0.00023149 0)
(-0.00375629 0.000231295 0)
(-0.00388593 0.000231042 0)
(-0.00401538 0.00023073 0)
(-0.00414457 0.000230354 0)
(-0.00427348 0.00022991 0)
(-0.00440206 0.000229391 0)
(-0.00453025 0.000228788 0)
(-0.00465801 0.000228094 0)
(-0.00478527 0.000227299 0)
(-0.00491197 0.000226393 0)
(-0.00503804 0.000225366 0)
(-0.00516342 0.000224206 0)
(-0.00528801 0.000222903 0)
(-0.00541174 0.000221445 0)
(-0.00553451 0.000219822 0)
(-0.00565622 0.00021802 0)
(-0.00577678 0.000216031 0)
(-0.00589607 0.000213841 0)
(-0.00601399 0.00021144 0)
(-0.0061304 0.000208817 0)
(-0.00624518 0.000205963 0)
(-0.00635821 0.000202866 0)
(-0.00646934 0.000199518 0)
(-0.00657845 0.000195909 0)
(-0.00668537 0.000192031 0)
(-0.00678996 0.000187875 0)
(-0.00689207 0.000183434 0)
(-0.00699154 0.000178701 0)
(-0.00708821 0.000173671 0)
(-0.00718192 0.000168336 0)
(-0.00727251 0.000162694 0)
(-0.00735979 0.000156738 0)
(-0.00744362 0.000150467 0)
(-0.00752381 0.000143878 0)
(-0.00760019 0.00013697 0)
(-0.0076726 0.00012974 0)
(-0.00774086 0.000122191 0)
(-0.0078048 0.000114322 0)
(-0.00786425 0.000106135 0)
(-0.00791905 9.76349e-05 0)
(-0.00796904 8.88241e-05 0)
(-0.00801403 7.97079e-05 0)
(-0.00805389 7.02925e-05 0)
(-0.00808846 6.05849e-05 0)
(-0.00811757 5.05933e-05 0)
(-0.0081411 4.03269e-05 0)
(-0.00815889 2.97961e-05 0)
(-0.00817082 1.90123e-05 0)
(-0.00817675 7.9883e-06 0)
(-0.00817658 -3.26224e-06 0)
(-0.00817017 -1.47244e-05 0)
(-0.00815745 -2.6382e-05 0)
(-0.0081383 -3.82178e-05 0)
(-0.00811264 -5.02135e-05 0)
(-0.00808041 -6.23496e-05 0)
(-0.00804153 -7.46052e-05 0)
(-0.00799596 -8.69587e-05 0)
(-0.00794365 -9.93871e-05 0)
(-0.00788459 -0.000111866 0)
(-0.00781875 -0.000124372 0)
(-0.00774613 -0.000136877 0)
(-0.00766676 -0.000149356 0)
(-0.00758065 -0.00016178 0)
(-0.00748785 -0.000174122 0)
(-0.00738842 -0.000186351 0)
(-0.00728243 -0.000198437 0)
(-0.00716997 -0.000210351 0)
(-0.00705115 -0.000222062 0)
(-0.00692608 -0.000233538 0)
(-0.00679492 -0.000244748 0)
(-0.0066578 -0.000255661 0)
(-0.00651491 -0.000266244 0)
(-0.00636643 -0.000276467 0)
(-0.00621256 -0.000286299 0)
(-0.00605353 -0.00029571 0)
(-0.00588956 -0.000304668 0)
(-0.00572091 -0.000313146 0)
(-0.00554785 -0.000321116 0)
(-0.00537065 -0.00032855 0)
(-0.00518961 -0.000335422 0)
(-0.00500504 -0.000341708 0)
(-0.00481724 -0.000347386 0)
(-0.00462656 -0.000352433 0)
(-0.00443333 -0.000356832 0)
(-0.0042379 -0.000360563 0)
(-0.00404064 -0.000363613 0)
(-0.0038419 -0.000365968 0)
(-0.00364206 -0.000367617 0)
(-0.00344149 -0.000368551 0)
(-0.00324058 -0.000368765 0)
(-0.00303971 -0.000368255 0)
(-0.00283926 -0.00036702 0)
(-0.00263962 -0.000365061 0)
(-0.00244118 -0.000362383 0)
(-0.00224431 -0.000358992 0)
(-0.00204939 -0.000354897 0)
(-0.00185679 -0.000350109 0)
(-0.00166687 -0.000344644 0)
(-0.00148 -0.000338516 0)
(-0.00129653 -0.000331745 0)
(-0.00111678 -0.000324351 0)
(-0.000941095 -0.000316357 0)
(-0.000769781 -0.000307787 0)
(-0.000603144 -0.000298668 0)
(-0.000441471 -0.000289027 0)
(-0.000285036 -0.000278895 0)
(-0.000134097 -0.0002683 0)
(1.11042e-05 -0.000257276 0)
(0.000150342 -0.000245854 0)
(0.000283407 -0.000234067 0)
(0.00041011 -0.00022195 0)
(0.000530276 -0.000209537 0)
(0.000643752 -0.000196862 0)
(0.0007504 -0.00018396 0)
(0.0008501 -0.000170865 0)
(0.000942753 -0.000157612 0)
(0.00102828 -0.000144234 0)
(0.0011066 -0.000130766 0)
(0.00117769 -0.000117241 0)
(0.00124151 -0.00010369 0)
(0.00129804 -9.01475e-05 0)
(0.0013473 -7.66438e-05 0)
(0.00138931 -6.32104e-05 0)
(0.0014241 -4.98779e-05 0)
(0.00145174 -3.66764e-05 0)
(0.00147229 -2.3636e-05 0)
(0.00148585 -1.07865e-05 0)
(0.00149252 1.84213e-06 0)
(0.00149243 1.42198e-05 0)
(0.00148571 2.63158e-05 0)
(0.00147253 3.80983e-05 0)
(0.00145306 4.95346e-05 0)
(0.00142749 6.059e-05 0)
(0.00139604 7.12278e-05 0)
(0.00135895 8.14087e-05 0)
(0.00131647 9.10898e-05 0)
(0.0012689 0.000100224 0)
(0.00121653 0.000108761 0)
(0.00115972 0.000116643 0)
(0.00109882 0.000123806 0)
(0.00103426 0.00013018 0)
(0.000966483 0.000135685 0)
(0.000895971 0.000140232 0)
(0.000823266 0.000143722 0)
(0.000748958 0.000146042 0)
(0.000673696 0.00014707 0)
(0.000598186 0.000146668 0)
(0.000523203 0.000144686 0)
(0.000449588 0.000140962 0)
(0.00037825 0.000135328 0)
(0.000310163 0.000127615 0)
(0.000246357 0.000117669 0)
(0.000187897 0.000105373 0)
(0.000135854 9.06975e-05 0)
(9.12491e-05 7.37765e-05 0)
(5.49666e-05 5.50385e-05 0)
(2.76706e-05 3.5421e-05 0)
(9.90456e-06 1.67632e-05 0)
(9.71066e-07 2.61591e-06 0)
(6.33292e-07 -1.1541e-05 0)
(2.49097e-06 -1.90605e-05 0)
(1.55033e-06 -1.45296e-05 0)
(-4.56232e-06 -1.43069e-06 0)
(-1.79155e-05 1.7578e-05 0)
(-3.98929e-05 4.04219e-05 0)
(-7.13909e-05 6.55004e-05 0)
(-0.000112919 9.16039e-05 0)
(-0.000164672 0.000117834 0)
(-0.000226594 0.000143538 0)
(-0.000298434 0.000168252 0)
(-0.000379802 0.000191658 0)
(-0.000470202 0.000213554 0)
(-0.000569071 0.00023382 0)
(-0.000675803 0.000252406 0)
(-0.000789773 0.000269308 0)
(-0.000910351 0.000284562 0)
(-0.00103692 0.000298228 0)
(-0.00116888 0.000310388 0)
(-0.00130567 0.000321134 0)
(-0.00144673 0.000330568 0)
(-0.00159158 0.000338795 0)
(-0.00173974 0.000345921 0)
(-0.00189079 0.000352052 0)
(-0.00204434 0.000357288 0)
(-0.00220004 0.000361727 0)
(-0.00235757 0.00036546 0)
(-0.00251666 0.000368572 0)
(-0.00267704 0.000371141 0)
(-0.0028385 0.00037324 0)
(-0.00300085 0.000374932 0)
(-0.00316392 0.000376273 0)
(-0.00332756 0.000377316 0)
(-0.00349163 0.000378103 0)
(-0.00365603 0.000378671 0)
(-0.00382065 0.000379053 0)
(-0.00398542 0.000379273 0)
(-0.00415025 0.000379351 0)
(-0.00431507 0.000379305 0)
(-0.00447982 0.000379143 0)
(-0.00464444 0.000378873 0)
(-0.00480887 0.000378499 0)
(-0.00497306 0.00037802 0)
(-0.00513695 0.000377434 0)
(-0.00530047 0.000376733 0)
(-0.00546358 0.000375911 0)
(-0.00562621 0.000374957 0)
(-0.00578829 0.000373859 0)
(-0.00594974 0.000372605 0)
(-0.0061105 0.000371179 0)
(-0.00627047 0.000369566 0)
(-0.00642956 0.000367749 0)
(-0.00658769 0.000365712 0)
(-0.00674474 0.000363438 0)
(-0.00690062 0.000360907 0)
(-0.00705519 0.000358104 0)
(-0.00720833 0.000355009 0)
(-0.00735993 0.000351604 0)
(-0.00750983 0.000347874 0)
(-0.00765789 0.000343799 0)
(-0.00780397 0.000339364 0)
(-0.00794789 0.000334552 0)
(-0.00808951 0.000329347 0)
(-0.00822865 0.000323735 0)
(-0.00836513 0.000317701 0)
(-0.00849878 0.000311232 0)
(-0.0086294 0.000304316 0)
(-0.00875681 0.00029694 0)
(-0.00888081 0.000289095 0)
(-0.00900121 0.000280771 0)
(-0.00911781 0.000271959 0)
(-0.00923039 0.000262653 0)
(-0.00933876 0.000252846 0)
(-0.00944271 0.000242534 0)
(-0.00954203 0.000231713 0)
(-0.0096365 0.000220382 0)
(-0.00972593 0.00020854 0)
(-0.0098101 0.000196188 0)
(-0.00988881 0.000183327 0)
(-0.00996185 0.000169963 0)
(-0.010029 0.0001561 0)
(-0.0100901 0.000141745 0)
(-0.0101449 0.000126907 0)
(-0.0101933 0.000111596 0)
(-0.010235 9.58241e-05 0)
(-0.0102699 7.96048e-05 0)
(-0.0102978 6.29533e-05 0)
(-0.0103185 4.58868e-05 0)
(-0.010332 2.84241e-05 0)
(-0.0103379 1.05859e-05 0)
(-0.0103362 -7.60537e-06 0)
(-0.0103268 -2.61255e-05 0)
(-0.0103095 -4.49485e-05 0)
(-0.0102842 -6.40465e-05 0)
(-0.0102509 -8.33898e-05 0)
(-0.0102093 -0.000102947 0)
(-0.0101596 -0.000122685 0)
(-0.0101016 -0.000142569 0)
(-0.0100352 -0.000162562 0)
(-0.00996054 -0.000182626 0)
(-0.00987747 -0.000202722 0)
(-0.00978605 -0.000222808 0)
(-0.00968628 -0.000242841 0)
(-0.00957822 -0.000262777 0)
(-0.00946192 -0.000282571 0)
(-0.00933745 -0.000302178 0)
(-0.00920492 -0.000321548 0)
(-0.00906444 -0.000340635 0)
(-0.00891614 -0.00035939 0)
(-0.00876017 -0.000377763 0)
(-0.00859671 -0.000395706 0)
(-0.00842595 -0.000413167 0)
(-0.00824811 -0.000430099 0)
(-0.0080634 -0.000446451 0)
(-0.00787209 -0.000462175 0)
(-0.00767445 -0.000477223 0)
(-0.00747076 -0.000491548 0)
(-0.00726134 -0.000505105 0)
(-0.0070465 -0.000517849 0)
(-0.00682658 -0.000529738 0)
(-0.00660196 -0.000540731 0)
(-0.00637299 -0.000550791 0)
(-0.00614008 -0.00055988 0)
(-0.00590362 -0.000567967 0)
(-0.00566402 -0.000575021 0)
(-0.00542171 -0.000581014 0)
(-0.00517713 -0.000585922 0)
(-0.00493072 -0.000589725 0)
(-0.00468294 -0.000592406 0)
(-0.00443425 -0.000593951 0)
(-0.0041851 -0.00059435 0)
(-0.00393596 -0.000593598 0)
(-0.0036873 -0.000591693 0)
(-0.00343959 -0.000588638 0)
(-0.0031933 -0.000584438 0)
(-0.00294889 -0.000579103 0)
(-0.00270681 -0.000572648 0)
(-0.00246753 -0.000565091 0)
(-0.00223148 -0.000556453 0)
(-0.0019991 -0.000546759 0)
(-0.00177083 -0.00053604 0)
(-0.00154706 -0.000524326 0)
(-0.00132821 -0.000511653 0)
(-0.00111465 -0.00049806 0)
(-0.000906766 -0.000483588 0)
(-0.000704904 -0.000468279 0)
(-0.000509404 -0.000452181 0)
(-0.000320582 -0.000435342 0)
(-0.000138739 -0.00041781 0)
(3.58467e-05 -0.000399636 0)
(0.000202916 -0.000380874 0)
(0.000362231 -0.000361577 0)
(0.000513576 -0.000341798 0)
(0.000656755 -0.000321591 0)
(0.000791596 -0.000301013 0)
(0.000917947 -0.000280117 0)
(0.00103568 -0.000258957 0)
(0.00114469 -0.000237589 0)
(0.00124489 -0.000216065 0)
(0.00133621 -0.000194439 0)
(0.00141862 -0.000172763 0)
(0.0014921 -0.000151088 0)
(0.00155664 -0.000129466 0)
(0.00161227 -0.000107947 0)
(0.00165903 -8.65798e-05 0)
(0.00169699 -6.5414e-05 0)
(0.00172624 -4.4498e-05 0)
(0.00174687 -2.38805e-05 0)
(0.00175901 -3.61044e-06 0)
(0.00176282 1.62629e-05 0)
(0.00175846 3.56891e-05 0)
(0.00174612 5.46164e-05 0)
(0.00172602 7.29907e-05 0)
(0.0016984 9.07555e-05 0)
(0.00166352 0.000107851 0)
(0.00162167 0.000124212 0)
(0.00157317 0.00013977 0)
(0.00151837 0.000154449 0)
(0.00145765 0.000168166 0)
(0.00139143 0.000180831 0)
(0.00132017 0.000192341 0)
(0.00124437 0.000202585 0)
(0.00116457 0.000211438 0)
(0.00108138 0.000218762 0)
(0.000995436 0.000224404 0)
(0.000907463 0.000228193 0)
(0.000818233 0.000229942 0)
(0.000728588 0.000229449 0)
(0.00063944 0.000226494 0)
(0.000551775 0.000220846 0)
(0.000466645 0.000212268 0)
(0.000385165 0.000200532 0)
(0.000308503 0.00018544 0)
(0.000237856 0.000166856 0)
(0.000174423 0.000144774 0)
(0.000119361 0.000119404 0)
(7.3711e-05 9.1327e-05 0)
(3.83793e-05 6.17119e-05 0)
(1.44375e-05 3.26785e-05 0)
(1.55893e-06 7.98317e-06 0)
(2.35438e-07 -1.24654e-05 0)
(-7.97879e-07 -1.79973e-05 0)
(-6.69816e-06 -8.44681e-06 0)
(-1.97854e-05 1.18925e-05 0)
(-4.18802e-05 3.97424e-05 0)
(-7.42579e-05 7.25223e-05 0)
(-0.000117747 0.00010821 0)
(-0.000172807 0.00014525 0)
(-0.000239591 0.000182463 0)
(-0.000318009 0.000218974 0)
(-0.000407772 0.00025415 0)
(-0.000508444 0.000287547 0)
(-0.00061948 0.000318872 0)
(-0.000740257 0.000347949 0)
(-0.000870107 0.000374693 0)
(-0.00100834 0.000399087 0)
(-0.00115424 0.00042117 0)
(-0.00130713 0.000441016 0)
(-0.00146634 0.000458732 0)
(-0.0016312 0.000474439 0)
(-0.00180113 0.000488275 0)
(-0.00197552 0.000500384 0)
(-0.00215387 0.000510912 0)
(-0.00233567 0.000520002 0)
(-0.00252046 0.000527798 0)
(-0.00270785 0.000534434 0)
(-0.00289746 0.000540039 0)
(-0.00308896 0.000544732 0)
(-0.00328206 0.000548625 0)
(-0.00347648 0.000551818 0)
(-0.00367199 0.000554403 0)
(-0.00386839 0.000556463 0)
(-0.0040655 0.000558068 0)
(-0.00426315 0.000559282 0)
(-0.00446121 0.000560158 0)
(-0.00465954 0.000560742 0)