/*--------------------------------*- C++ -*----------------------------------*\
  =========                 |
  \\      /  F ield         | OpenFOAM: The Open Source CFD Toolbox
   \\    /   O peration     | Website:  https://openfoam.org
    \\  /    A nd           | Version:  6
     \\/     M anipulation  |
\*---------------------------------------------------------------------------*/
FoamFile
{
    version     2.0;
    format      ascii;
    class       volVectorField;
    location    "0";
    object      U;
}
// * * * * * * * * * * * * * * * * * * * * * * * * * * * * * * * * * * * * * //

dimensions      [0 1 -1 0 0 0 0];

internalField   nonuniform List<vector> 
13046
(
(-0.591342 0.31766 0)
(-0.531061 0.0848851 -6.09517e-21)
(-0.304812 0.124082 -1.36188e-20)
(-0.586741 0.254363 0)
(-0.364847 0.183371 -1.22077e-20)
(-0.459761 0.0839262 0)
(-0.613987 0.264961 1.76401e-21)
(-0.460101 0.059983 3.13458e-21)
(-0.347873 0.192214 -1.34693e-20)
(-0.767222 0.3843 6.07077e-21)
(-0.724183 -0.207763 0)
(-0.0746671 0.0885945 9.20769e-21)
(-0.655528 0.330783 -5.59533e-21)
(-0.527703 0.0351942 -9.79344e-21)
(-0.269357 0.136548 7.51833e-21)
(-0.743612 0.440589 -7.84779e-21)
(-0.0793144 0.0560151 2.21202e-20)
(-0.753314 -0.136641 5.28868e-21)
(-0.455619 0.24523 0)
(-0.3939 0.100113 -6.6176e-21)
(-0.556785 0.188314 1.84868e-20)
(-0.750148 0.431005 -3.35004e-21)
(-0.0778354 0.0640973 -2.9531e-20)
(-0.744583 -0.150949 0)
(-0.558127 0.26939 7.43913e-21)
(-0.499027 0.108165 -1.48951e-20)
(-0.353804 0.148738 0)
(-0.655489 0.352026 -1.0252e-20)
(-0.545491 0.030814 2.85717e-21)
(-0.250414 0.120553 -1.29842e-20)
(-0.591177 0.33315 0)
(-0.549745 0.088731 0)
(-0.288533 0.10566 1.38654e-20)
(-0.531954 0.250967 -8.63794e-21)
(-0.375367 0.150874 4.57313e-21)
(-0.493563 0.127806 2.59411e-20)
(-0.526437 0.234425 -1.33185e-20)
(-0.396741 0.167648 6.95961e-21)
(-0.476559 0.132142 -1.33649e-20)
(-0.526862 0.355976 9.62521e-21)
(-0.299561 0.0332543 2.57957e-21)
(-0.628586 0.133524 -9.16665e-21)
(-0.49195 0.19129 6.03012e-21)
(-0.449661 0.188678 1.03879e-20)
(-0.451055 0.154342 0)
(-0.515067 0.192966 3.78868e-21)
(-0.443776 0.204197 -1.59041e-20)
(-0.432245 0.135856 -1.99395e-21)
(-0.605363 0.310391 0)
(-0.51487 0.0687549 -4.39474e-22)
(-0.300198 0.136916 1.86496e-23)
(-0.331601 -0.0478216 1.61279e-20)
(-0.471111 0.388246 0)
(-0.716915 0.160974 -1.12338e-20)
(-0.354933 -0.0689577 -2.29734e-20)
(-0.739292 0.173504 -1.79268e-20)
(-0.443413 0.381567 1.51619e-20)
(-0.709341 -0.00526708 -2.2957e-21)
(-0.69272 0.491295 0)
(-0.149123 0.0111295 1.21436e-20)
(-0.748561 0.303034 -5.2957e-21)
(-0.50813 -0.0628496 5.91196e-21)
(-0.263715 0.214675 -3.15211e-20)
(-0.128432 0.115616 1.67634e-20)
(-0.663557 -0.135422 -3.83455e-21)
(-0.779193 0.387527 -9.07261e-21)
(-0.674879 0.500087 0)
(-0.711987 0.0175373 0)
(-0.165341 -0.00672779 0)
(-0.661629 0.491234 -4.20329e-21)
(-0.702096 0.0299757 0)
(-0.176927 -0.0056777 9.6754e-21)
(-0.726763 -0.0176547 0)
(-0.702464 0.497926 1.27401e-22)
(-0.136605 0.00670438 9.31098e-24)
(-0.469717 0.263269 0)
(-0.375454 0.0880973 7.20362e-21)
(-0.569602 0.175304 -1.32033e-20)
(-0.115349 0.0255473 1.34861e-20)
(-0.720777 0.484383 -1.31167e-20)
(-0.729752 -0.0561236 0)
(-0.576375 0.272829 3.88952e-21)
(-0.486824 0.0941306 0)
(-0.345553 0.16033 0)
(-0.114075 0.106533 -1.50815e-20)
(-0.683175 -0.151232 -3.00307e-21)
(-0.780588 0.392196 5.40921e-21)
(-0.814143 0.326059 -9.5144e-21)
(-0.166447 0.182509 0)
(-0.607316 -0.172665 -2.97614e-21)
(-0.200296 0.249058 0)
(-0.852028 0.262568 0)
(-0.566311 -0.226338 4.01951e-22)
(-0.729523 0.380917 0)
(-0.746205 0.377724 4.98948e-21)
(-0.593808 -0.0428109 1.15446e-20)
(-0.599069 -0.0649307 -5.42371e-21)
(-0.19139 0.121378 -6.88444e-21)
(-0.183055 0.131554 1.76186e-20)
(-0.184554 0.201586 -8.42085e-22)
(-0.819635 0.31142 9.3086e-21)
(-0.588477 -0.176869 0)
(-0.538217 0.208521 -3.51864e-23)
(-0.42541 0.204542 8.37442e-21)
(-0.432454 0.11824 0)
(-0.409517 0.326857 0)
(-0.705557 0.203924 -5.48244e-21)
(-0.375371 -0.0310646 0)
(-0.478219 0.365449 1.66786e-20)
(-0.323858 -0.0130274 0)
(-0.680281 0.159091 -2.10273e-20)
(-0.710328 0.363613 0)
(-0.0391696 0.0617902 0)
(-0.718855 -0.259835 -4.41648e-21)
(-0.634089 0.317159 1.54648e-20)
(-0.515796 0.0505264 4.11803e-21)
(-0.286282 0.143633 1.35683e-20)
(-0.734369 0.417038 6.326e-21)
(-0.723678 0.403349 -1.19041e-20)
(-0.641957 -0.0532889 -9.78577e-21)
(-0.157035 0.0887796 7.91462e-21)
(-0.61658 -0.0375933 5.96398e-21)
(-0.17519 0.0985306 -7.39592e-21)
(-0.754321 0.388014 -5.13768e-21)
(-0.73537 -0.217866 -6.12171e-21)
(-0.063251 0.0781965 -4.13044e-21)
(-0.695307 0.375114 0)
(-0.572866 -0.00687608 -7.5974e-21)
(-0.21505 0.114324 1.59531e-20)
(-0.550242 0.363437 0)
(-0.284478 0.0435559 -1.27851e-20)
(-0.617042 0.116581 5.48649e-22)
(-0.22044 0.263946 0)
(-0.846803 0.25835 0)
(-0.550336 -0.207545 0)
(-0.776092 0.363365 0)
(-0.608853 -0.107437 -1.51987e-20)
(-0.174917 0.149921 -1.89488e-20)
(-0.611824 0.346206 0)
(-0.559967 0.0727716 0)
(-0.271386 0.0978693 0)
(-0.683965 0.265271 0)
(-0.446171 -0.00127839 0)
(-0.336887 0.233226 0)
(-0.462527 0.365034 0)
(-0.337823 -0.0273095 0)
(-0.697332 0.169296 1.13212e-20)
(-0.41409 0.315221 -1.75725e-21)
(-0.692504 0.206563 -1.17092e-20)
(-0.379094 -0.0171921 1.39149e-20)
(-0.75805 0.314748 1.266e-20)
(-0.529231 -0.0749129 0)
(-0.242579 0.197483 4.10539e-20)
(-0.399448 0.264694 0)
(-0.649008 0.22286 1.25736e-20)
(-0.39963 0.0252342 -3.50121e-21)
(-0.406683 -0.093188 0)
(-0.766504 0.207361 1.26942e-20)
(-0.43452 -0.106601 0)
(-0.779926 0.225046 7.28686e-21)
(-0.380819 0.34835 0)
(-0.348918 0.326474 0)
(-0.700479 0.238376 1.60326e-21)
(-0.418718 -0.0211718 7.36058e-21)
(-0.361572 0.267675 -7.70433e-21)
(-0.782751 0.371275 -6.2347e-21)
(-0.082868 0.102034 0)
(-0.704982 -0.217645 -7.55679e-21)
(-0.727469 0.375147 -4.65543e-21)
(-0.0461559 0.066024 -1.89042e-21)
(-0.734258 -0.243407 0)
(-0.775339 0.374923 -7.44762e-21)
(-0.626249 -0.111787 0)
(-0.158826 0.135633 2.15557e-20)
(-0.577219 0.414637 0)
(-0.656237 0.0984792 2.98945e-21)
(-0.254981 0.0105684 7.52952e-21)
(-0.687236 0.2279 1.06356e-20)
(-0.381683 0.281953 3.67366e-21)
(-0.402576 -0.00810166 0)
(-0.105019 0.134424 0)
(-0.66852 -0.220755 0)
(-0.806815 0.346035 5.30316e-21)
(-0.559615 0.397082 0)
(-0.647223 0.111979 -6.41617e-21)
(-0.270274 0.0187951 1.94205e-21)
(-0.398064 0.277599 0)
(-0.659615 0.217587 0)
(-0.389255 0.012321 0)
(-0.66505 0.255764 5.23474e-21)
(-0.438571 0.0127012 0)
(-0.347268 0.228477 0)
(-0.524185 0.00698464 -5.25362e-23)
(-0.259685 0.153521 -9.20071e-21)
(-0.684492 0.360359 1.6218e-20)
(-0.55723 0.00603659 0)
(-0.232093 0.124021 -1.99894e-20)
(-0.802832 0.35631 -9.68831e-21)
(-0.134764 0.143925 1.36316e-20)
(-0.650875 -0.173914 -1.45474e-20)
(-0.215756 0.243144 1.23853e-20)
(-0.830814 0.280507 5.757e-21)
(-0.557353 -0.183919 1.48715e-20)
(-0.838489 0.293221 -1.62928e-20)
(-0.595335 -0.20875 0)
(-0.173524 0.211985 -1.21765e-20)
(-0.324305 -0.0790318 -8.29127e-22)
(-0.74674 0.144843 5.08111e-21)
(-0.48843 0.435534 0)
(-0.654727 0.289621 -2.37328e-20)
(-0.712641 0.495169 6.65955e-21)
(-0.119326 0.0159464 -8.3112e-21)
(-0.739761 -0.0479788 0)
(-0.613845 -0.22246 0)
(-0.833836 0.304243 -1.48476e-20)
(-0.15263 0.190314 0)
(-0.545346 0.22904 -1.91882e-20)
(-0.400243 0.187549 -6.83153e-21)
(-0.452879 0.114043 1.96991e-20)
(-0.641815 0.360576 0)
(-0.559132 0.0459828 -4.11222e-22)
(-0.253955 0.108473 -7.64926e-21)
(-0.225882 0.259516 9.46191e-21)
(-0.838045 0.268424 0)
(-0.546948 -0.193402 -1.71313e-20)
(-0.673655 0.300908 1.9036e-20)
(-0.509007 0.00404046 1.77776e-20)
(-0.273752 0.168495 0)
(-0.0646339 0.0916269 0)
(-0.702825 -0.250199 6.58955e-21)
(-0.768158 0.359169 0)
(-0.46321 0.41991 0)
(-0.757839 0.155072 0)
(-0.343022 -0.0913896 0)
(-0.831488 0.295255 1.42983e-20)
(-0.582596 -0.192013 0)
(-0.186333 0.215331 -1.45078e-23)
(-0.739904 0.233231 4.71691e-21)
(-0.421948 -0.0637705 -5.69871e-21)
(-0.352235 0.296641 0)
(-0.69032 0.389777 0)
(-0.586479 -0.000916063 7.09097e-21)
(-0.206814 0.100076 1.25841e-20)
(-0.492225 -0.182093 -2.11523e-20)
(-0.837421 0.227202 -1.04066e-20)
(-0.292724 0.324781 7.43594e-21)
(-0.798694 0.222497 0)
(-0.44799 -0.128433 -8.25477e-21)
(-0.338469 0.332097 -2.66232e-22)
(-0.0623779 0.0947354 -1.20981e-20)
(-0.686767 -0.26358 0)
(-0.770237 0.344585 -5.51713e-21)
(-0.51712 0.393169 8.88169e-21)
(-0.297582 -0.00953739 -9.39397e-21)
(-0.677092 0.13624 9.34296e-22)
(-0.658147 0.385841 5.05063e-21)
(-0.027543 0.0393633 -1.77704e-20)
(-0.755636 -0.22685 0)
(-0.430003 0.228827 -3.96346e-21)
(-0.565089 0.203339 -1.49368e-20)
(-0.408595 0.0946316 1.9826e-20)
(-0.734949 0.262779 5.68233e-21)
(-0.72738 0.243663 2.98887e-23)
(-0.45409 -0.0544878 -1.37188e-20)
(-0.429144 -0.0491715 0)
(-0.345579 0.279639 7.00355e-21)
(-0.314223 0.255085 -7.28354e-21)
(-0.103252 0.0311416 -1.76474e-20)
(-0.725647 0.477589 6.92856e-21)
(-0.742083 -0.0708025 -1.28548e-20)
(-0.672255 0.392262 0)
(-0.59165 0.0209575 0)
(-0.216798 0.0894757 -1.65876e-20)
(-0.81069 0.235126 -2.71111e-21)
(-0.472022 -0.146111 0)
(-0.312621 0.316662 0)
(-0.755949 0.39246 -6.11203e-21)
(-0.627785 -0.0804367 0)
(-0.160226 0.115924 7.8817e-21)
(-0.484087 0.202194 4.07804e-21)
(-0.470942 0.162643 5.95077e-21)
(-0.437743 0.172695 -2.03793e-21)
(-0.767164 0.239331 -9.30897e-21)
(-0.443899 -0.0919436 0)
(-0.33273 0.300679 -1.22594e-20)
(-0.670848 0.406725 0)
(-0.608447 0.0214857 8.85227e-21)
(-0.206491 0.0748839 -1.07291e-20)
(-0.678099 0.321308 0)
(-0.695753 0.32946 1.90122e-21)
(-0.519387 0.405527 3.22513e-21)
(-0.29401 -0.0216907 2.72843e-20)
(-0.688785 0.134326 -2.24855e-20)
(-0.776593 0.254164 -9.59209e-21)
(-0.46617 -0.103204 1.20341e-20)
(-0.304676 0.279589 1.1188e-20)
(-0.766739 0.389308 0)
(-0.152477 0.121652 -2.77389e-20)
(-0.635698 -0.0982941 -7.60292e-21)
(-0.48292 0.350123 -2.30133e-20)
(-0.325486 0.000660876 0)
(-0.664362 0.162632 7.11077e-21)
(-0.390592 0.368379 -1.42549e-20)
(-0.776118 0.197017 -7.3482e-21)
(-0.400676 -0.107075 0)
(-0.705925 0.434756 -6.10331e-21)
(-0.647134 -0.0169209 -7.85935e-21)
(-0.163431 0.0624288 4.93015e-21)
(-0.493254 0.404919 1.16897e-21)
(-0.316754 -0.0440479 0)
(-0.71327 0.15049 1.54756e-20)
(-0.717618 0.442137 0)
(-0.728631 0.434616 0)
(-0.661993 -0.0314911 -5.12914e-21)
(-0.15188 0.0617816 -1.28174e-20)
(-0.660614 -0.0488945 7.25725e-21)
(-0.147281 0.0732459 1.36307e-20)
(-0.109619 0.128371 -1.061e-20)
(-0.674754 -0.202893 0)
(-0.801742 0.358928 -7.07557e-21)
(-0.708293 0.405189 7.04624e-21)
(-0.610219 -0.0208479 0)
(-0.183521 0.0912576 4.34355e-21)
(-0.66969 -0.269175 1.27935e-20)
(-0.0203616 0.0413633 1.55442e-20)
(-0.630284 0.338218 1.29141e-20)
(-0.616681 0.206625 -6.86075e-21)
(-0.423065 0.260342 0)
(-0.389054 0.0518795 0)
(-0.727691 0.300526 1.28131e-20)
(-0.496457 -0.0416746 0)
(-0.273413 0.206774 2.4057e-20)
(-0.145309 0.142934 -8.64302e-21)
(-0.79635 0.361296 1.97869e-20)
(-0.63879 -0.152381 1.08739e-20)
(-0.358497 -0.0823201 0)
(-0.751984 0.172025 6.68082e-21)
(-0.437572 0.394612 -1.71782e-20)
(-0.511668 -0.187287 -2.59848e-20)
(-0.838847 0.24147 -6.41674e-21)
(-0.266445 0.29983 0)
(-0.488472 0.0254168 -1.77628e-20)
(-0.299376 0.178018 0)
(-0.728633 0.337735 1.4091e-20)
(-0.537174 -0.0396103 6.52471e-21)
(-0.234537 0.163295 7.35263e-21)
(-0.473081 0.0177851 1.04582e-20)
(-0.311351 0.19311 7.96361e-23)
(-0.746278 0.442399 -4.74037e-22)
(-0.0898194 0.0573048 1.03753e-20)
(-0.738299 -0.119981 -7.76905e-21)
(-0.312465 -0.0889849 0)
(-0.753522 0.133939 1.63296e-21)
(-0.507223 0.45587 0)
(-0.742323 0.343421 -1.43552e-20)
(-0.552741 -0.0550318 -7.96889e-21)
(-0.221277 0.165578 -9.03895e-21)
(-0.694979 0.25757 0)
(-0.435639 -0.0155842 -1.06985e-20)
(-0.341533 0.247633 0)
(-0.707823 0.187846 0)
(-0.358555 -0.0374933 0)
(-0.434205 0.34552 0)
(-0.597908 0.291692 -5.39719e-21)
(-0.498083 0.0775596 -9.71611e-21)
(-0.322658 0.151521 4.18316e-23)
(-0.414272 0.385159 1.76993e-20)
(-0.769059 0.184319 1.79338e-20)
(-0.383017 -0.0994092 1.17302e-20)
(-0.816414 0.334367 -8.70451e-21)
(-0.631311 -0.188653 1.2397e-20)
(-0.145196 0.164101 -1.28585e-20)
(-0.520253 -0.177921 1.75481e-20)
(-0.832691 0.254232 6.5046e-21)
(-0.255238 0.282957 9.41171e-21)
(-0.628763 0.485207 -1.29873e-20)
(-0.20718 -0.0176604 1.4554e-20)
(-0.701177 0.0586674 -1.09557e-20)
(-0.7224 0.465567 3.75669e-21)
(-0.715221 0.462606 -3.39052e-21)
(-0.686928 -0.0324781 -1.63632e-21)
(-0.701788 -0.0449494 0)
(-0.129238 0.0411351 -4.72881e-21)
(-0.140379 0.0418573 -4.15065e-21)
(-0.0237687 0.0411715 -2.10349e-20)
(-0.699473 -0.256276 -1.40908e-20)
(-0.643077 0.350204 3.19065e-21)
(-0.67197 0.395909 -3.19796e-22)
(-0.0320974 0.0402652 2.45891e-20)
(-0.769666 -0.217943 0)
(-0.752866 0.270441 -2.08775e-20)
(-0.473234 -0.0695486 -3.10616e-21)
(-0.301177 0.253554 0)
(-0.120682 0.130006 -2.62463e-20)
(-0.798939 0.362949 7.03449e-21)
(-0.667855 -0.180839 0)
(-0.672997 0.465528 1.84124e-20)
(-0.68781 0.462537 -1.38155e-20)
(-0.673663 0.0171471 8.40316e-21)
(-0.672622 0.00259441 3.2189e-21)
(-0.177542 0.0229384 -8.19854e-21)
(-0.165463 0.0331717 -4.10917e-21)
(-0.129107 0.178629 0)
(-0.614842 -0.253339 0)
(-0.837259 0.288742 2.67387e-21)
(-0.617388 0.379803 -5.93115e-21)
(-0.0215474 0.0306517 0)
(-0.74898 -0.221858 0)
(-0.523785 0.168215 -5.69825e-23)
(-0.478939 0.238781 8.70892e-21)
(-0.394097 0.125417 4.3987e-21)
(-0.673817 0.366604 -1.0565e-20)
(-0.726882 -0.251888 6.46103e-21)
(-0.0303663 0.048618 1.15134e-21)
(-0.606562 0.415902 0)
(-0.640605 0.0774829 -1.38411e-20)
(-0.236962 0.0283408 1.60091e-24)
(-0.813792 0.337268 7.71098e-23)
(-0.656523 -0.221479 1.79355e-20)
(-0.118182 0.146723 5.38571e-24)
(-0.589019 -0.2905 3.8768e-22)
(-0.0190669 0.0422317 -8.94876e-21)
(-0.608491 0.274675 -5.12522e-21)
(-0.506704 0.334331 -8.31273e-21)
(-0.318149 0.0431292 8.15222e-21)
(-0.619005 0.148511 2.23879e-20)
(-0.589063 0.219549 0)
(-0.416466 0.0771563 -2.19738e-20)
(-0.407788 0.227743 1.1252e-20)
(-0.74308 0.401114 0)
(-0.0587015 0.0693428 1.23235e-20)
(-0.74899 -0.20761 6.04721e-24)
(-0.606162 0.222104 0)
(-0.407854 0.0628538 -7.76045e-21)
(-0.401512 0.239443 -1.58889e-20)
(-0.509616 0.172959 8.94115e-21)
(-0.472911 0.223608 -4.62918e-21)
(-0.410769 0.138448 2.3131e-21)
(-0.447616 0.425945 8.52849e-21)
(-0.778879 0.161459 -6.41805e-21)
(-0.362719 -0.114182 1.29679e-20)
(-0.585368 0.180774 0)
(-0.369237 0.0744519 0)
(-0.457938 0.275633 1.30402e-21)
(-0.609097 0.197493 1.08614e-20)
(-0.377511 0.0605104 5.99367e-21)
(-0.442941 0.274677 1.85635e-22)
(-0.610432 0.480118 1.97174e-20)
(-0.705303 0.0709502 -1.07789e-20)
(-0.223554 -0.0292138 -1.43619e-20)
(-0.0830355 0.083996 1.8589e-20)
(-0.0849242 0.0909624 -1.88475e-20)
(-0.729387 -0.175098 5.29653e-21)
(-0.718353 -0.187269 3.67715e-21)
(-0.765105 0.407733 0)
(-0.772452 0.397534 -6.21574e-21)
(-0.821748 0.329191 1.06971e-20)
(-0.636698 -0.203032 -1.11467e-20)
(-0.137023 0.166588 1.59047e-20)
(-0.194793 -0.0259102 -9.32632e-21)
(-0.640459 0.502031 4.04963e-21)
(-0.713973 0.0486768 1.39741e-20)
(-0.534439 0.386868 -8.11082e-21)
(-0.286595 0.00799268 -8.56153e-21)
(-0.657846 0.126101 7.04852e-21)
(-0.808369 0.204203 0)
(-0.435902 -0.141786 8.53827e-21)
(-0.357989 0.360468 2.7552e-22)
(-0.613437 -0.301538 6.41881e-21)
(-0.0424984 0.076973 -8.32864e-21)
(-0.716389 0.283941 -4.43172e-21)
(-0.18105 0.229164 0)
(-0.848225 0.274887 0)
(-0.581 -0.228502 7.52687e-21)
(-0.748296 0.372368 5.36655e-21)
(-0.0567148 0.078685 0)
(-0.725192 -0.240637 -6.46646e-21)
(-0.0133959 0.0325819 -3.30836e-32)
(-0.562672 -0.279825 -5.97742e-21)
(-0.559831 0.262402 5.19035e-21)
(-0.603546 -0.240986 6.69096e-21)
(-0.0105304 0.025383 3.30075e-32)
(-0.535814 0.303834 -4.61489e-21)
(-0.517218 -0.109378 -1.65885e-20)
(-0.786134 0.289536 0)
(-0.258097 0.236699 -2.41189e-20)
(-0.624668 -0.279863 -3.45729e-21)
(-0.0893206 0.137537 -8.50069e-21)
(-0.812536 0.289235 0)
(-0.787465 0.353095 -9.34466e-21)
(-0.604452 -0.124106 9.44225e-21)
(-0.176193 0.161387 1.26038e-20)
(-0.715611 0.44667 1.59018e-20)
(-0.057824 0.0378012 7.52983e-21)
(-0.793652 -0.147844 0)
(-0.638201 0.298619 4.1703e-21)
(-0.304875 0.16813 -4.59913e-21)
(-0.493292 0.0418504 4.27548e-21)
(-0.605723 -0.246221 3.89216e-21)
(-0.145249 0.195506 8.95959e-21)
(-0.841964 0.284634 2.93545e-21)
(-0.798384 0.19592 -7.28008e-21)
(-0.378213 0.375014 -4.87807e-21)
(-0.418329 -0.130649 0)
(-0.485123 -0.143525 0)
(-0.808427 0.247916 0)
(-0.291958 0.297306 0)
(-0.00271596 0.00899848 0)
(-0.359089 -0.16202 -4.99546e-21)
(-0.322284 0.157383 3.81622e-21)
(-0.653752 -0.285178 6.3906e-21)
(-0.0240946 0.0481211 -1.08075e-20)
(-0.650238 0.323412 -5.40459e-21)
(-0.618636 0.286242 -1.07244e-20)
(-0.323063 0.170072 1.08102e-20)
(-0.48389 0.0579032 4.93491e-21)
(-0.638724 -0.243774 1.59935e-20)
(-0.825617 0.313527 -5.8651e-21)
(-0.11416 0.15716 0)
(-0.120378 0.174268 -9.41959e-21)
(-0.837677 0.282436 0)
(-0.610553 -0.267096 -1.19654e-20)
(-0.788237 0.382421 -6.43218e-21)
(-0.11058 0.113937 2.81592e-20)
(-0.683223 -0.169085 0)
(-0.103738 0.0523198 -2.1324e-20)
(-0.724368 -0.0894041 8.1243e-21)
(-0.739828 0.455324 0)
(-0.595809 0.492457 -2.48153e-20)
(-0.723134 0.0798757 1.37357e-20)
(-0.23847 -0.0484013 -4.56958e-21)
(-0.691548 -0.0151222 2.44551e-21)
(-0.700082 0.476264 8.00567e-21)
(-0.149686 0.0271278 -1.29631e-20)
(-0.0847419 0.0351141 -1.91606e-20)
(-0.72842 0.467697 0)
(-0.76359 -0.101909 0)
(-0.63023 0.397745 -3.88403e-21)
(-0.649992 0.410421 0)
(-0.607067 0.0587945 -1.44107e-20)
(-0.616325 0.0428662 1.54039e-20)
(-0.232069 0.0630862 2.17804e-21)
(-0.215669 0.0606749 -2.32226e-21)
(-0.610329 0.400257 3.72705e-21)
(-0.619911 0.0750139 0)
(-0.242208 0.0481074 4.18748e-21)
(-0.662973 0.479003 0)
(-0.687418 0.0260078 -1.35759e-20)
(-0.180507 0.00802668 2.95815e-21)
(-0.5101 -0.162703 -8.67739e-21)
(-0.82278 0.255647 6.67985e-21)
(-0.264718 0.280082 -1.9381e-20)
(-0.624738 -0.218815 0)
(-0.826498 0.316955 1.62339e-20)
(-0.139581 0.176477 0)
(-0.230762 0.24439 -6.24788e-21)
(-0.820649 0.280799 -4.28392e-21)
(-0.54349 -0.164283 -5.67817e-21)
(-0.643161 -0.240834 -9.18493e-22)
(-0.0125056 0.0275023 5.76579e-21)
(-0.563421 0.326035 0)
(-0.549134 0.337749 7.46719e-21)
(-0.55831 0.327812 0)
(-0.299815 0.0726594 0)
(-0.585044 0.120164 2.74562e-20)
(-0.304053 0.0897594 0)
(-0.566179 0.111483 -1.74292e-20)
(-0.637202 0.461042 0)
(-0.616378 0.448649 0)
(-0.221942 0.00715777 3.25306e-23)
(-0.673896 0.0520422 8.40703e-21)
(-0.206439 0.0105316 2.15847e-20)
(-0.668812 0.0667376 -1.77366e-20)
(-0.567033 -0.300387 0)
(-0.023758 0.0506044 1.21745e-20)
(-0.634532 0.262985 0)
(-0.640817 -0.235058 -9.41136e-21)
(-0.825118 0.319777 1.78995e-21)
(-0.119028 0.155619 5.65952e-21)
(-0.540681 0.42148 -1.40186e-20)
(-0.280641 -0.0258544 -9.85186e-21)
(-0.692915 0.120678 2.33638e-20)
(-0.474178 -0.165175 1.88072e-20)
(-0.826022 0.22293 1.74142e-20)
(-0.311607 0.333297 0)
(-0.110007 0.0467284 2.28021e-20)
(-0.720345 -0.0769871 -8.64434e-21)
(-0.73495 0.461048 8.79761e-21)
(-0.685487 -0.278009 0)
(-0.722962 0.339773 0)
(-0.0411598 0.0700502 0)
(-0.678829 -0.275498 0)
(-0.747211 0.333758 4.92933e-21)
(-0.0524796 0.0851824 2.05803e-21)
(-0.692 0.447064 -7.63404e-21)
(-0.65466 -0.00303615 4.88585e-21)
(-0.1691 0.0490021 6.08217e-21)
(-0.46852 0.334314 -2.185e-21)
(-0.338731 0.0097178 0)
(-0.656914 0.17471 -8.8242e-23)
(-0.783171 0.384768 7.49476e-21)
(-0.0985977 0.105065 1.64506e-20)
(-0.700664 -0.18146 -4.28321e-21)
(-0.52061 -0.127769 0)
(-0.798332 0.28481 0)
(-0.25288 0.247832 2.0786e-20)
(-0.13377 0.107874 5.29898e-21)
(-0.661367 -0.112629 1.30312e-20)
(-0.76818 0.401697 1.96705e-20)
(-0.600912 0.449079 0)
(-0.23339 -0.00419152 -1.44015e-20)
(-0.676969 0.0778124 9.04588e-21)
(-0.730059 0.218814 9.3358e-23)
(-0.400765 -0.0534715 8.36517e-21)
(-0.3819 0.315589 0)
(-0.517559 0.364046 1.28521e-22)
(-0.301974 0.0167343 -2.79241e-21)
(-0.647695 0.13875 -9.23705e-21)
(-0.0976222 0.113129 6.08524e-24)
(-0.694194 -0.201881 1.01687e-20)
(-0.790016 0.370183 8.3857e-21)
(-0.747741 0.411682 -3.60711e-21)
(-0.648015 -0.0738538 -3.82298e-21)
(-0.149215 0.0971984 0)
(-0.51567 0.325115 -8.09829e-21)
(-0.319856 0.0609937 1.75045e-20)
(-0.598928 0.143205 -1.4753e-20)
(-0.72232 0.465138 6.21228e-21)
(-0.0730676 0.0321767 8.54851e-21)
(-0.78089 -0.117565 -6.1586e-21)
(-0.60504 0.364029 -4.71249e-21)
(-0.579691 0.0750924 0)
(-0.261264 0.0802879 0)
(-0.65051 0.241562 -1.9474e-20)
(-0.419569 0.0259132 4.82787e-21)
(-0.37187 0.243118 0)
(-0.484911 -0.124127 0)
(-0.795455 0.255938 1.37119e-20)
(-0.289496 0.282805 0)
(-0.693286 0.416752 -3.48365e-21)
(-0.0408273 0.0410464 -2.64372e-21)
(-0.790321 -0.193663 7.08141e-21)
(-0.693497 0.428956 9.62396e-21)
(-0.0428386 0.0371772 0)
(-0.798536 -0.177 -6.75463e-21)
(-0.124875 0.0933114 4.85664e-21)
(-0.676783 -0.107216 -7.7649e-21)
(-0.761564 0.414342 -1.80548e-20)
(-0.745103 0.204182 -6.44668e-21)
(-0.394033 -0.0724821 -8.39033e-21)
(-0.395158 0.339854 0)
(-0.0314994 0.0344591 2.4221e-21)
(-0.788568 -0.205037 -6.62034e-21)
(-0.661893 0.406178 0)
(-0.163861 0.159347 0)
(-0.617233 -0.143355 -7.97364e-21)
(-0.796309 0.350173 -2.26254e-21)
(-0.00994387 0.0258834 9.72005e-21)
(-0.483786 -0.268392 6.71135e-21)
(-0.498969 0.213941 0)
(-0.455431 0.279344 -5.20718e-21)
(-0.551723 -0.204622 0)
(-0.00647843 0.0165692 9.74064e-21)
(-0.0911188 0.0462407 1.76683e-23)
(-0.746644 -0.104583 0)
(-0.73619 0.458583 0)
(-0.0784567 0.105601 0)
(-0.69554 -0.23528 0)
(-0.785273 0.35906 1.12218e-20)
(-0.763791 0.414184 -6.5832e-21)
(-0.76785 0.411764 5.3259e-21)
(-0.0906901 0.079957 -9.31888e-21)
(-0.723995 -0.1513 -1.73539e-21)
(-0.102034 0.0877759 -1.5076e-20)
(-0.704643 -0.140726 3.12246e-21)
(-0.8044 0.335448 4.36615e-21)
(-0.603389 -0.151645 5.25997e-21)
(-0.174202 0.176013 0)
(-0.342162 0.363256 0)
(-0.450328 -0.162249 0)
(-0.824346 0.206487 0)
(-0.556981 0.298714 0)
(-0.326759 0.117599 -2.38118e-20)
(-0.533844 0.111489 9.59495e-21)
(-0.809618 0.304963 1.24598e-20)
(-0.563223 -0.150886 1.93197e-21)
(-0.2101 0.215034 1.84459e-20)
(-0.229165 0.23296 1.19953e-20)
(-0.809961 0.292955 -1.73254e-20)
(-0.545492 -0.148554 -2.68135e-21)
(-0.721898 0.482474 7.0108e-21)
(-0.0913162 0.0250665 9.1721e-21)
(-0.763187 -0.0821889 1.34276e-20)
(-0.641417 0.473003 0)
(-0.685447 0.0473686 4.03284e-21)
(-0.198804 0.00163565 -2.11554e-20)
(-0.621777 0.429347 0)
(-0.649073 0.0658385 1.81793e-20)
(-0.224133 0.0236016 3.11128e-23)
(-0.775663 0.316231 -1.60834e-20)
(-0.543124 -0.0992127 2.32618e-21)
(-0.23056 0.201729 -1.04565e-20)
(-0.786019 0.30792 0)
(-0.540167 -0.112274 2.18459e-21)
(-0.233624 0.213156 9.62459e-21)
(-0.501698 0.305572 0)
(-0.337098 0.0724957 -2.76379e-20)
(-0.586955 0.152627 8.26898e-21)
(-0.651885 0.423316 0)
(-0.629611 0.0382663 0)
(-0.206234 0.0478178 3.16446e-21)
(-0.158985 0.214832 -1.94008e-20)
(-0.588719 -0.24882 -2.12286e-20)
(-0.850976 0.27279 0)
(-0.75989 0.315075 6.71451e-21)
(-0.0560213 0.0931028 0)
(-0.650615 -0.28746 4.62472e-21)
(-0.749006 0.293465 -1.21929e-22)
(-0.0527162 0.0909246 0)
(-0.62886 -0.29495 -1.32815e-20)
(-0.56794 0.383706 5.60529e-21)
(-0.269511 0.0383749 -3.04494e-21)
(-0.62521 0.104517 -1.2449e-22)
(-0.659489 -0.286574 1.88699e-22)
(-0.0336525 0.0619018 1.65298e-20)
(-0.697091 0.321007 0)
(-0.75201 0.421836 1.55179e-20)
(-0.132083 0.0873995 1.01928e-20)
(-0.671349 -0.087106 0)
(-0.0341074 0.0650258 -2.45372e-21)
(-0.620055 -0.300276 -7.19205e-21)
(-0.690523 0.291094 0)
(-0.576815 0.239679 1.33246e-20)
(-0.38707 0.198395 1.4295e-20)
(-0.445197 0.0921316 7.11815e-23)
(-0.70083 0.347465 -2.37159e-21)
(-0.542853 -0.00905847 -2.37042e-21)
(-0.240566 0.145867 -1.07998e-20)
(-0.372102 -0.0628121 1.90999e-20)
(-0.733868 0.190831 1.51118e-20)
(-0.421231 0.354922 0)
(-0.100161 0.147773 0)
(-0.628426 -0.269323 -4.32754e-21)
(-0.82139 0.296376 0)
(-0.507335 -0.133971 0)
(-0.802222 0.272261 0)
(-0.265866 0.263078 0)
(-0.0686089 0.0416203 0)
(-0.727364 0.450817 -5.82943e-21)
(-0.779313 -0.134167 6.03519e-21)
(-0.719001 0.352708 0)
(-0.55161 -0.029135 1.17447e-21)
(-0.227714 0.149088 1.05657e-20)
(-0.547517 0.285152 0)
(-0.342737 0.127454 2.0431e-20)
(-0.52297 0.117772 0)
(-0.648826 -0.256063 -1.51339e-20)
(-0.813028 0.31774 5.57047e-21)
(-0.0984409 0.139935 0)
(-0.142252 0.130883 -1.11296e-20)
(-0.645408 -0.13841 5.07423e-22)
(-0.785248 0.375786 1.82514e-22)
(-0.71958 0.400118 0)
(-0.707955 0.39446 6.51308e-21)
(-0.0470378 0.0567133 -6.06758e-21)
(-0.0416659 0.0545613 -7.46745e-21)
(-0.762721 -0.211761 -4.34699e-21)
(-0.758786 -0.223747 3.57419e-21)
(-0.718731 0.273152 0)
(-0.45841 -0.037781 3.20303e-20)
(-0.313431 0.239125 1.13987e-20)
(-0.496443 -0.0926299 2.32751e-20)
(-0.772625 0.280546 0)
(-0.272647 0.243727 -1.26264e-20)
(-0.628476 0.258413 -1.09816e-20)
(-0.44516 0.0453256 8.24054e-21)
(-0.349931 0.208032 1.75539e-20)
(-0.650394 -0.281119 1.00807e-20)
(-0.786933 0.313081 7.20295e-21)
(-0.633631 -0.286226 -4.80969e-21)
(-0.0700426 0.110598 0)
(-0.793803 0.297288 -6.95691e-21)
(-0.0751778 0.118437 0)
(-0.751543 0.364221 0)
(-0.58223 -0.0712002 0)
(-0.196681 0.147762 1.18287e-20)
(-0.802163 0.328695 9.90169e-21)
(-0.79056 0.325799 -1.84797e-20)
(-0.664816 -0.255756 6.61278e-21)
(-0.666626 -0.267548 -1.65667e-20)
(-0.0855262 0.123733 1.66454e-20)
(-0.0738613 0.111301 8.06034e-25)
(-0.766317 0.270537 0)
(-0.476476 -0.0884317 -2.14365e-20)
(-0.296709 0.265307 1.63793e-20)
(-0.690086 0.300282 1.03291e-20)
(-0.500969 -0.0127288 -1.42618e-20)
(-0.273148 0.182819 0)
(-0.71659 0.435677 0)
(-0.0536606 0.0435929 0)
(-0.7881 -0.166224 6.48893e-21)
(-0.716839 0.287657 7.59157e-21)
(-0.475588 -0.0318051 -8.89924e-21)
(-0.296095 0.220367 -1.89452e-20)
(-0.651057 0.272107 4.42665e-21)
(-0.456907 0.0259721 -9.66079e-21)
(-0.331098 0.204315 1.03029e-20)
(-0.710675 0.41112 0)
(-0.0474148 0.0499912 0)
(-0.778254 -0.198849 -8.93721e-21)
(-0.71714 0.368651 0)
(-0.574189 -0.0276873 2.52512e-21)
(-0.207906 0.128889 -1.17598e-20)
(-0.405034 -0.135902 0)
(-0.801262 0.184705 0)
(-0.397872 0.398776 -6.29526e-22)
(-0.596619 0.461538 -6.33316e-22)
(-0.692127 0.0816396 0)
(-0.234556 -0.0190328 2.24067e-20)
(-0.528436 -0.206826 1.01895e-20)
(-0.243872 0.291366 0)
(-0.849471 0.243604 0)
(-0.00573009 0.016202 -2.33991e-20)
(-0.466882 -0.211223 6.99187e-21)
(-0.426049 0.214076 -5.34199e-21)
(-0.71957 0.318561 0)
(-0.510488 -0.0289525 8.76165e-21)
(-0.260773 0.184002 -9.70683e-21)
(-0.743379 0.425744 1.09223e-20)
(-0.0682713 0.0616611 3.15391e-20)
(-0.758508 -0.162938 0)
(-0.274117 -0.068534 -5.99451e-21)
(-0.738411 0.107487 -8.95017e-21)
(-0.551758 0.476882 -5.6495e-21)
(-0.549248 0.343001 0)
(-0.012769 0.0238611 -8.7742e-21)
(-0.681228 -0.226185 0)
(-0.430469 0.296151 1.08848e-20)
(-0.437502 0.316296 -1.11498e-20)
(-0.366889 0.0180304 0)
(-0.65077 0.197374 9.43736e-21)
(-0.359337 0.000935548 -1.78937e-20)
(-0.668828 0.189605 -7.59799e-21)
(-0.625915 0.24189 1.0329e-20)
(-0.424666 0.048534 1.08926e-20)
(-0.374784 0.227969 0)
(-0.481824 0.324008 9.58248e-21)
(-0.456861 0.305357 0)
(-0.333608 0.0335801 -9.90187e-21)
(-0.630584 0.164598 8.46826e-21)
(-0.350844 0.0361544 9.97534e-21)
(-0.629601 0.180395 6.82445e-23)
(-0.704906 0.31489 6.55744e-22)
(-0.480663 -0.00402862 -6.19128e-21)
(-0.296829 0.198746 -1.27301e-20)
(-0.695155 0.289176 -1.77509e-20)
(-0.471455 -0.0105993 1.64308e-22)
(-0.30678 0.213432 0)
(-0.0631607 0.106477 0)
(-0.616111 -0.298294 0)
(-0.774069 0.284391 7.50011e-21)
(-0.590951 0.38454 -5.16886e-21)
(-0.612978 0.0900277 0)
(-0.258263 0.0512464 5.64375e-21)
(-0.798909 0.344725 -1.78411e-20)
(-0.676283 -0.239378 7.604e-21)
(-0.0882392 0.121166 -9.4992e-21)
(-0.776141 0.333481 0)
(-0.786263 0.337831 8.99633e-21)
(-0.566228 -0.10162 -2.89803e-21)
(-0.582488 -0.117044 9.29485e-21)
(-0.207498 0.181986 -1.30655e-20)
(-0.193698 0.177514 -1.21733e-20)
(-0.589182 0.366037 0)
(-0.592928 0.0891949 0)
(-0.268267 0.0683325 2.64925e-21)
(-0.664967 0.450501 6.13273e-21)
(-0.657391 0.0268654 0)
(-0.189411 0.0321242 7.05362e-21)
(-0.751162 0.33409 -4.61098e-21)
(-0.544901 -0.069601 0)
(-0.225271 0.17964 0)
(-0.507008 0.251544 1.05045e-20)
(-0.51631 0.146973 -5.14351e-21)
(-0.377034 0.131628 5.48978e-21)
(-0.79794 0.3155 0)
(-0.56337 -0.132614 0)
(-0.210984 0.204729 -1.9611e-20)
(-0.540244 0.305881 0)
(-0.324073 0.0988532 3.025e-21)
(-0.554905 0.124531 0)
(-0.759181 0.289181 -1.02823e-20)
(-0.493967 -0.0786865 -1.19375e-20)
(-0.277442 0.234173 -1.63386e-21)
(-0.66907 0.433285 6.19124e-21)
(-0.639447 0.0217154 0)
(-0.191956 0.0474682 1.4492e-20)
(-0.515879 0.270621 -1.04158e-20)
(-0.502831 0.275553 -4.66685e-21)
(-0.530821 0.139311 5.03856e-21)
(-0.358617 0.119382 -1.08432e-20)
(-0.550779 0.148822 0)
(-0.35567 0.103391 -1.93809e-20)
(-0.478102 0.292038 -4.74811e-21)
(-0.350283 0.0646775 1.29127e-20)
(-0.460193 0.295283 3.05806e-21)
(-0.594309 0.166969 -1.14282e-20)
(-0.358979 0.0475596 -6.1894e-21)
(-0.617743 0.181949 2.00682e-22)
(-0.628374 0.381197 5.58711e-21)
(-0.649965 0.37891 0)
(-0.587786 0.0575438 1.0659e-20)
(-0.579395 0.0412884 -8.31777e-21)
(-0.241425 0.0790148 -1.25648e-20)
(-0.235211 0.0925784 2.0909e-20)
(-0.110782 0.0662016 0)
(-0.705797 -0.0934948 -4.77618e-21)
(-0.746953 0.44019 -9.33979e-21)
(-0.420163 0.40336 7.62173e-21)
(-0.783759 0.177117 1.01228e-20)
(-0.38494 -0.117221 -2.03726e-20)
(-0.102045 0.0692222 -1.0619e-20)
(-0.107889 0.0817829 8.48586e-21)
(-0.714621 -0.11341 4.12851e-21)
(-0.699861 -0.121667 7.0941e-21)
(-0.752118 0.43554 2.39142e-20)
(-0.76142 0.42187 -1.24529e-20)
(-0.500395 0.424583 1.03398e-20)
(-0.3123 -0.057453 -9.44758e-21)
(-0.725907 0.141968 2.2303e-21)
(-0.49711 0.218922 1.76646e-20)
(-0.414618 0.161849 0)
(-0.482001 0.154204 -1.76123e-20)
(-0.796835 0.328924 -4.32892e-21)
(-0.582468 -0.13428 -1.0494e-20)
(-0.193809 0.187571 0)
(-0.563564 0.3527 0)
(-0.283846 0.0619196 -2.52555e-21)
(-0.595476 0.108909 -8.91531e-21)
(-0.680796 0.432627 0)
(-0.637863 0.0107404 0)
(-0.184325 0.0552593 -1.35044e-20)
(-0.732095 0.454672 -1.00267e-20)
(-0.736344 0.441852 0)
(-0.698291 -0.0625233 2.50991e-21)
(-0.124724 0.0541245 -1.2934e-20)
(-0.682255 -0.0635024 -6.84734e-21)
(-0.131632 0.0666904 1.7494e-20)
(-0.764969 0.357527 8.73526e-21)
(-0.587892 -0.0882132 9.73052e-21)