/*--------------------------------*- C++ -*----------------------------------*\
  =========                 |
  \\      /  F ield         | OpenFOAM: The Open Source CFD Toolbox
   \\    /   O peration     | Website:  https://openfoam.org
    \\  /    A nd           | Version:  6
     \\/     M anipulation  |
\*---------------------------------------------------------------------------*/
FoamFile
{
    version     2.0;
    format      ascii;
    class       volVectorField;
    location    "0";
    object      U;
}
// * * * * * * * * * * * * * * * * * * * * * * * * * * * * * * * * * * * * * //

dimensions      [0 1 -1 0 0 0 0];

internalField   nonuniform List<vector> 
13046
(
(0.476195 0.222099 0)
(0.462205 0.0217276 4.12852e-21)
(0.255522 0.0550973 9.31535e-21)
(0.475451 0.169193 0)
(0.294107 0.10587 8.356e-21)
(0.402073 0.0185803 0)
(0.498348 0.179183 -1.20591e-21)
(0.409239 -0.00241716 -2.12229e-21)
(0.278763 0.113499 9.24219e-21)
(0.634654 0.304105 -4.18873e-21)
(0.638287 -0.20808 0)
(0.0564456 0.0514672 -6.31369e-21)
(0.531225 0.236046 7.61832e-21)
(0.474612 -0.022166 6.58057e-21)
(0.220199 0.0681658 -5.16228e-21)
(0.60964 0.345712 -1.93763e-21)
(0.0671747 0.0204144 -1.01053e-20)
(0.671993 -0.151141 -3.44249e-21)
(0.364511 0.158087 0)
(0.340137 0.0320386 4.50863e-21)
(0.459066 0.111867 -1.26045e-20)
(0.615966 0.338354 2.32266e-21)
(0.0640497 0.0278936 2.02315e-20)
(0.663733 -0.162968 -1.13726e-21)
(0.449913 0.180585 -5.0935e-21)
(0.427694 0.0409464 7.59267e-21)
(0.291826 0.0753303 0)
(0.53072 0.254047 -9.15578e-23)
(0.490062 -0.0243796 -1.92172e-21)
(0.207592 0.0550626 1.78235e-20)
(0.475246 0.235587 0)
(0.478306 0.0259272 0)
(0.245983 0.0395478 -9.48338e-21)
(0.429001 0.164438 1.78273e-20)
(0.309856 0.077034 -3.12336e-21)
(0.418003 0.0578396 -1.17789e-20)
(0.425988 0.150218 5.19741e-23)
(0.325115 0.0914141 0)
(0.402578 0.0611033 0)
(0.419796 0.25181 -6.6182e-21)
(0.276836 -0.0263804 -8.65959e-21)
(0.531053 0.0686896 6.21003e-21)
(0.402958 0.112466 -4.11533e-21)
(0.36667 0.10979 4.20171e-21)
(0.37456 0.0802923 0)
(0.421837 0.114979 -2.59158e-21)
(0.359072 0.12316 0)
(0.36336 0.0640555 1.361e-21)
(0.488429 0.216643 0)
(0.452474 0.00774247 2.97462e-22)
(0.247773 0.0668047 -9.87842e-24)
(0.324484 -0.100054 -1.09173e-20)
(0.372677 0.277619 0)
(0.599846 0.0982237 7.59043e-21)
(0.347771 -0.118828 1.55468e-20)
(0.616261 0.109968 8.15062e-21)
(0.350059 0.271468 -1.04419e-20)
(0.637091 -0.0460496 1.51864e-21)
(0.559565 0.373896 0)
(0.145726 -0.034066 -8.30127e-21)
(0.614838 0.220894 3.63533e-21)
(0.478458 -0.109035 -3.95843e-21)
(0.204798 0.136654 2.16327e-20)
(0.0999224 0.0644109 -1.1497e-20)
(0.605027 -0.159056 2.5209e-21)
(0.64168 0.299253 6.25865e-21)
(0.543386 0.378613 0)
(0.634498 -0.0261618 -7.0773e-21)
(0.164645 -0.0525032 -2.42597e-21)
(0.532088 0.3704 2.90603e-21)
(0.623367 -0.0158586 9.59103e-21)
(0.175302 -0.052898 3.29873e-21)
(0.653195 -0.0558603 1.58097e-23)
(0.567946 0.380628 -9.03925e-23)
(0.134365 -0.036416 -3.71804e-24)
(0.375087 0.173254 0)
(0.326746 0.0216051 -4.91727e-21)
(0.471587 0.100863 8.98456e-21)
(0.109453 -0.0154279 -9.22444e-21)
(0.585261 0.372553 9.08401e-21)
(0.658238 -0.0872565 3.36427e-21)
(0.465329 0.184289 -2.66602e-21)
(0.422177 0.0285388 2.71683e-21)
(0.282638 0.0859066 0)
(0.0886384 0.0589316 1.03398e-20)
(0.618744 -0.169857 0)
(0.643301 0.30467 -3.73116e-21)
(0.675075 0.249824 6.5219e-21)
(0.126062 0.117771 0)
(0.558853 -0.194016 1.96398e-21)
(0.153104 0.171924 0)
(0.712206 0.199822 0)
(0.52125 -0.240407 -2.6457e-22)
(0.595482 0.284581 7.4959e-21)
(0.610823 0.284013 -1.04516e-20)
(0.546716 -0.0866445 -7.6843e-21)
(0.553539 -0.105196 3.60836e-21)
(0.155144 0.0607902 4.72138e-21)
(0.145945 0.0707178 -1.20781e-20)
(0.140181 0.132408 5.78443e-22)
(0.680433 0.236894 -6.38036e-21)
(0.543827 -0.198891 0)
(0.43936 0.128683 2.20068e-23)
(0.343122 0.123323 0)
(0.36845 0.0484499 0)
(0.321946 0.22655 -1.86658e-20)
(0.583506 0.133764 3.72377e-21)
(0.360163 -0.0845534 0)
(0.378881 0.258649 -2.85756e-21)
(0.310968 -0.0684727 0)
(0.568639 0.0939516 1.42469e-20)
(0.586856 0.290963 0)
(0.0286276 0.0380335 8.62788e-21)
(0.611605 -0.236918 2.81107e-21)
(0.512958 0.224074 -5.29902e-21)
(0.460782 -0.00887625 -2.78202e-21)
(0.234021 0.0735761 -9.28369e-21)
(0.599017 0.316006 -4.3633e-21)
(0.589622 0.303098 4.07317e-21)
(0.587389 -0.0922833 -2.13824e-21)
(0.131746 0.0356221 -5.41997e-21)
(0.564886 -0.0803803 2.07858e-21)
(0.145839 0.0420999 5.06429e-21)
(0.62347 0.308172 1.08735e-20)
(0.64331 -0.213244 3.93517e-21)
(0.0478231 0.0449444 2.83106e-21)
(0.565094 0.276019 0)
(0.522139 -0.0565858 5.07494e-21)
(0.177214 0.051911 -2.73618e-20)
(0.439541 0.258696 0)
(0.260394 -0.0164501 8.71504e-21)
(0.525663 0.0535351 -3.68383e-22)
(0.169077 0.182516 0)
(0.706738 0.194843 0)
(0.510891 -0.227353 0)
(0.638747 0.275604 0)
(0.563057 -0.140698 1.00672e-20)
(0.135619 0.0883826 1.22363e-20)
(0.492518 0.247142 0)
(0.490774 0.0120197 0)
(0.231885 0.03338 0)
(0.559121 0.18382 0)
(0.414763 -0.0572188 0)
(0.264849 0.148949 0)
(0.365644 0.258396 2.6442e-21)
(0.326731 -0.0817917 0)
(0.581687 0.103879 -7.67553e-21)
(0.326082 0.216438 1.8094e-20)
(0.572025 0.134686 7.97532e-21)
(0.360333 -0.072447 -9.44358e-21)
(0.622879 0.231368 -8.6815e-21)
(0.49661 -0.118372 0)
(0.188072 0.123392 -2.81744e-20)
(0.315539 0.17443 0)
(0.532546 0.145419 -1.72344e-20)
(0.367011 -0.0344873 -2.40794e-21)
(0.3955 -0.139554 -4.35402e-21)
(0.636012 0.141216 -8.61378e-21)
(0.420019 -0.150256 0)
(0.646383 0.157171 -4.95838e-21)
(0.298345 0.244691 -9.08392e-21)
(0.272164 0.227279 8.72355e-21)
(0.575291 0.162246 -1.09601e-21)
(0.394955 -0.0756055 -4.96535e-21)
(0.283334 0.177731 5.29022e-21)
(0.6485 0.29311 4.29553e-21)
(0.0620965 0.061767 -3.27811e-21)
(0.622934 -0.216938 4.90167e-21)
(0.601134 0.299895 3.22214e-21)
(0.0342511 0.0393167 1.2949e-21)
(0.63104 -0.22772 0)
(0.637722 0.285896 -9.8425e-23)
(0.576814 -0.142891 0)
(0.123563 0.07761 -1.47863e-20)
(0.461659 0.301647 0)
(0.564157 0.0399197 -2.00876e-21)
(0.242938 -0.0448998 -5.13505e-21)
(0.565041 0.152932 -7.24041e-21)
(0.299675 0.189357 0)
(0.379451 -0.0643001 0)
(0.0781275 0.0852957 0)
(0.597084 -0.224417 0)
(0.670151 0.271421 -3.64285e-21)
(0.446919 0.286804 0)
(0.553227 0.0513347 4.3285e-21)
(0.255338 -0.0381071 -1.32387e-21)
(0.313603 0.185405 0)
(0.541985 0.142149 0)
(0.361554 -0.0455024 0)
(0.542952 0.174697 -3.57905e-21)
(0.404207 -0.0448486 0)
(0.273718 0.144688 0)
(0.479014 -0.0469095 3.62539e-23)
(0.208733 0.0834701 6.30746e-21)
(0.555901 0.263198 -1.11487e-20)
(0.50707 -0.0462779 0)
(0.190434 0.0593668 2.82563e-20)
(0.664723 0.275804 7.48564e-21)
(0.102046 0.0888496 -9.34814e-21)
(0.591756 -0.191137 9.5442e-21)
(0.16493 0.164881 -8.51131e-21)
(0.691254 0.211346 -3.93195e-21)
(0.519095 -0.207747 -9.84802e-21)
(0.698676 0.22515 1.11337e-20)
(0.545074 -0.223563 0)
(0.131446 0.142888 8.3645e-21)
(0.322519 -0.127978 4.49016e-21)
(0.628257 0.0871385 -3.42712e-21)
(0.386596 0.316661 -8.85504e-21)
(0.532109 0.202436 7.0095e-21)
(0.57796 0.381145 -4.61298e-21)
(0.115875 -0.0248021 5.67985e-21)
(0.665793 -0.0797276 -1.57905e-23)
(0.557025 -0.231874 0)
(0.695274 0.23511 3.33284e-21)
(0.11496 0.127114 0)
(0.442742 0.146257 1.31228e-20)
(0.32421 0.108782 0)
(0.386975 0.0452128 -4.47436e-21)
(0.518516 0.260536 0)
(0.497918 -0.0109964 2.76666e-22)
(0.214462 0.0437115 -5.25751e-21)
(0.173215 0.178054 -6.50772e-21)
(0.698137 0.201367 0)
(0.510028 -0.216207 1.13424e-20)
(0.54824 0.213004 0)
(0.466584 -0.050019 -1.19478e-20)
(0.218369 0.0957517 0)
(0.0475181 0.0571532 0)
(0.611152 -0.237992 -4.23258e-21)
(0.637182 0.285391 0)
(0.365759 0.303535 9.58017e-21)
(0.634825 0.096705 0)
(0.339935 -0.139008 0)
(0.691432 0.224755 -9.77202e-21)
(0.537801 -0.211512 0)
(0.141569 0.143982 1.38198e-23)
(0.610266 0.16091 -9.59467e-21)
(0.405017 -0.112777 -3.78522e-21)
(0.274889 0.202194 1.21635e-20)
(0.560238 0.288073 0)
(0.532545 -0.0503354 -4.73742e-21)
(0.173894 0.0399573 -2.84968e-21)
(0.467786 -0.212082 1.41057e-20)
(0.698456 0.165499 7.0748e-21)
(0.227259 0.228487 -5.11637e-21)
(0.663315 0.157005 0)
(0.432288 -0.168901 5.53262e-21)
(0.263834 0.232433 1.83114e-22)
(0.0455482 0.0603679 6.6392e-21)
(0.595045 -0.247775 0)
(0.6394 0.273917 3.79299e-21)
(0.411208 0.282059 -1.23458e-20)
(0.286813 -0.0647737 6.39381e-21)
(0.5712 0.0739769 6.29682e-22)
(0.540451 0.309492 -3.5079e-21)
(0.0210204 0.0220657 7.1539e-22)
(0.636605 -0.205484 0)
(0.343976 0.144138 -2.74834e-21)
(0.462893 0.125297 1.01942e-20)
(0.354412 0.0274677 -1.34924e-20)
(0.604023 0.185571 -3.88981e-21)
(0.598685 0.168572 -2.7094e-23)
(0.431379 -0.103423 9.23195e-21)
(0.408869 -0.0998292 9.07651e-21)
(0.269825 0.187855 -9.65305e-21)
(0.244659 0.168379 5.00104e-21)
(0.0967328 -0.00811034 1.20718e-20)
(0.590386 0.369569 -4.79177e-21)
(0.668473 -0.0987667 0)
(0.544189 0.288915 0)
(0.532356 -0.03144 0)
(0.186083 0.0294532 1.13615e-20)
(0.673837 0.168717 1.84323e-21)
(0.45225 -0.182867 0)
(0.242792 0.220567 0)
(0.619139 0.29787 -4.03758e-21)
(0.577719 -0.116308 0)
(0.128446 0.0596667 -5.4022e-21)
(0.394488 0.121811 -2.79104e-21)
(0.3903 0.0877633 -4.05405e-21)
(0.359487 0.0959209 1.39513e-21)
(0.634226 0.168458 6.33119e-21)
(0.426882 -0.137124 0)
(0.258851 0.206181 8.42883e-21)
(0.542716 0.300971 0)
(0.546428 -0.0298846 -5.90982e-21)
(0.180592 0.0171473 7.3366e-21)
(0.551262 0.229812 -1.1441e-20)
(0.566724 0.237895 9.20676e-21)
(0.412801 0.292519 9.75039e-21)
(0.286372 -0.0755723 -1.85559e-20)
(0.58173 0.0733652 1.39343e-20)
(0.641746 0.181751 6.54573e-21)
(0.446252 -0.145686 -8.06683e-21)
(0.236197 0.189811 -7.69063e-21)
(0.629142 0.296943 1.44532e-20)
(0.120688 0.0657491 1.90196e-20)
(0.584531 -0.130671 5.01555e-21)
(0.382967 0.245975 4.28621e-21)
(0.308107 -0.0562518 0)
(0.555111 0.0952697 -4.8129e-21)
(0.306228 0.261219 9.81773e-21)
(0.645517 0.133299 4.97243e-21)
(0.391083 -0.151952 0)
(0.572756 0.327853 1.41024e-21)
(0.587119 -0.060368 5.22493e-21)
(0.145039 0.0106954 -3.37115e-21)
(0.39097 0.2915 -8.06052e-22)
(0.310913 -0.0964441 0)
(0.599346 0.0887768 -1.04562e-20)
(0.583076 0.335349 0)
(0.593533 0.330523 0)
(0.601752 -0.0720817 3.39993e-21)
(0.134625 0.0115593 8.77506e-21)
(0.602416 -0.0870632 -4.8092e-21)
(0.12718 0.0227888 -9.32645e-21)
(0.0822361 0.0795333 7.2772e-21)
(0.604912 -0.210666 0)
(0.664857 0.280658 4.88415e-21)
(0.575661 0.302779 0)
(0.556367 -0.0659906 2.40481e-21)
(0.15534 0.0345432 -2.97563e-21)
(0.555743 -0.233104 -8.07817e-21)
(0.0145073 0.0265095 -1.06532e-20)
(0.517579 0.270639 -8.9165e-21)
(0.50658 0.130489 1.38873e-20)
(0.335309 0.171107 0)
(0.350849 -0.0108392 5.07962e-21)
(0.595935 0.216919 -8.78571e-21)
(0.46562 -0.0906155 0)
(0.213319 0.129186 -1.65031e-20)
(0.110985 0.0862955 5.93001e-21)
(0.657649 0.27779 -1.36149e-20)
(0.584605 -0.174875 -7.15714e-21)
(0.352792 -0.130655 5.84579e-21)
(0.627306 0.110192 0)
(0.344984 0.282351 1.18321e-20)
(0.482797 -0.214591 1.72634e-20)
(0.699229 0.177983 4.36664e-21)
(0.20589 0.209002 0)
(0.444052 -0.0318576 6.00399e-21)
(0.239274 0.102942 0)
(0.595639 0.24767 -9.66785e-21)
(0.498825 -0.0865622 -4.36772e-21)
(0.18514 0.0939537 -5.0715e-21)
(0.432355 -0.0393278 -2.13824e-22)
(0.246926 0.115629 -6.04408e-23)
(0.611026 0.345226 1.06764e-20)
(0.0767976 0.0191459 -1.41967e-20)
(0.662881 -0.1393 5.05718e-21)
(0.312419 -0.136736 -5.84897e-21)
(0.636684 0.0777464 -1.09833e-21)
(0.402145 0.333415 0)
(0.607921 0.254156 9.84606e-21)
(0.514609 -0.099335 5.33371e-21)
(0.17382 0.0969028 1.24002e-20)
(0.569388 0.177913 0)
(0.408366 -0.0697977 3.6314e-21)
(0.267649 0.161164 0)
(0.587595 0.120034 4.7923e-21)
(0.346075 -0.0907198 0)
(0.341982 0.242109 0)
(0.482819 0.200674 3.69689e-21)
(0.436425 0.014113 6.57474e-21)
(0.263958 0.0789279 -2.81825e-23)
(0.325668 0.274954 -1.21903e-20)
(0.640906 0.122105 -1.21472e-20)
(0.375567 -0.145707 -1.58454e-20)
(0.677378 0.258201 5.96686e-21)
(0.575263 -0.204008 -8.13198e-21)
(0.109578 0.104997 -1.40237e-22)
(0.490356 -0.205948 -1.16672e-20)
(0.692908 0.18812 -4.42579e-21)
(0.196767 0.195413 -6.46962e-21)
(0.503923 0.362627 8.96461e-21)
(0.206847 -0.067058 -4.91891e-21)
(0.614646 0.00921016 0)
(0.587014 0.356545 -2.59898e-21)
(0.580435 0.352316 2.34397e-21)
(0.62232 -0.0709709 1.08412e-21)
(0.635763 -0.0807139 -4.73803e-21)
(0.11874 -0.00353077 3.23214e-21)
(0.129084 -0.00481937 2.83939e-21)
(0.0172655 0.0255506 1.08124e-20)
(0.583293 -0.224854 8.89353e-21)
(0.528264 0.280653 -2.21125e-21)
(0.552035 0.317227 2.21815e-22)
(0.0250601 0.0212331 0)
(0.653706 -0.200719 0)
(0.619649 0.193435 1.42654e-20)
(0.449693 -0.116417 2.08343e-21)
(0.234087 0.16781 0)
(0.0912331 0.0790279 1.8e-20)
(0.661267 0.282547 -6.09545e-21)
(0.60356 -0.195049 0)
(0.542972 0.34956 -1.27182e-20)
(0.556115 0.348941 9.54261e-21)
(0.601684 -0.0290092 -5.5959e-21)
(0.604627 -0.0417326 -2.14011e-21)
(0.16896 -0.0268885 5.60011e-21)
(0.155268 -0.0162562 2.81032e-21)
(0.0967679 0.120438 0)
(0.550469 -0.252583 0)
(0.699343 0.225306 -1.82833e-21)
(0.5059 0.304604 4.12005e-21)
(0.0164205 0.01708 -6.73489e-21)
(0.624257 -0.196763 0)
(0.434334 0.0937869 3.50498e-23)
(0.384955 0.153039 -5.96676e-21)
(0.332748 0.0545014 -3.00066e-21)
(0.555015 0.293892 7.31558e-21)
(0.612989 -0.226545 -4.11287e-21)
(0.0222961 0.0293609 -1.34106e-20)
(0.486687 0.304281 -1.06215e-20)
(0.557431 0.020826 9.28117e-21)
(0.221844 -0.0275915 4.29266e-24)
(0.677086 0.263454 -5.39642e-23)
(0.588523 -0.226177 -1.17099e-20)
(0.0882127 0.0944668 3.70114e-21)
(0.484717 -0.24699 -2.46737e-22)
(0.0133924 0.0283482 1.22554e-20)
(0.500238 0.218673 3.52238e-21)
(0.403036 0.233565 5.70832e-21)
(0.291071 -0.0179794 3.68709e-22)
(0.519621 0.0811996 -1.51791e-20)
(0.481089 0.139767 0)
(0.366496 0.0121496 1.49496e-20)
(0.325509 0.143045 -7.71182e-21)
(0.612943 0.318799 -1.09119e-20)
(0.0451258 0.0380587 -8.44417e-21)
(0.654411 -0.203965 -1.66174e-24)
(0.495596 0.143143 0)
(0.364309 -0.000467995 5.26445e-21)
(0.319003 0.153318 1.08895e-20)
(0.421379 0.0974043 -6.09112e-21)
(0.381556 0.140021 6.30053e-21)
(0.344058 0.0659556 -1.57887e-21)
(0.353048 0.308222 5.88248e-21)
(0.652286 0.103467 4.33843e-21)
(0.358649 -0.159185 -8.74714e-21)
(0.484435 0.107211 0)
(0.326712 0.00975702 0)
(0.364481 0.183766 -8.95559e-22)
(0.502593 0.122213 -7.41564e-21)
(0.339572 -0.00354905 -4.07736e-21)
(0.351575 0.183262 -1.27319e-22)
(0.48829 0.356971 -1.3612e-20)
(0.613152 0.0203004 7.21301e-21)
(0.223674 -0.078922 9.77216e-21)
(0.0648781 0.0449513 -1.27362e-20)
(0.06528 0.0508775 1.29243e-20)
(0.649062 -0.183644 -3.43257e-21)
(0.639324 -0.193896 -2.38989e-21)
(0.630788 0.320859 -8.63603e-21)
(0.637777 0.312504 1.30641e-20)
(0.682863 0.255638 -7.33073e-21)
(0.57666 -0.214517 7.29e-21)
(0.10295 0.108268 0)
(0.196404 -0.0733878 -6.34023e-21)
(0.513589 0.376892 -2.80085e-21)
(0.628252 0.00107912 0)
(0.425803 0.277489 0)
(0.272537 -0.0486068 5.82529e-21)
(0.557373 0.0642267 -4.76698e-21)
(0.673082 0.142631 0)
(0.422218 -0.181268 -5.72296e-21)
(0.279915 0.255481 -1.89475e-22)
(0.51816 -0.267511 -4.1262e-21)
(0.0305493 0.0514682 0)
(0.594108 0.225365 8.9758e-21)
(0.137642 0.156824 0)
(0.708524 0.210694 0)
(0.531817 -0.240038 -4.93752e-21)
(0.61962 0.296791 -3.70338e-21)
(0.0419522 0.0475079 0)
(0.628397 -0.228962 4.15362e-21)
(0.00937758 0.0221355 4.53339e-32)
(0.459079 -0.233718 3.7865e-21)
(0.458233 0.208549 -3.59127e-21)
(0.489867 -0.201284 -4.23439e-21)
(0.00736713 0.0169988 -4.5229e-32)
(0.437171 0.24224 3.19562e-21)
(0.489073 -0.148625 1.10852e-20)
(0.649061 0.21272 0)
(0.199089 0.156175 1.65642e-20)
(0.546462 -0.265361 2.23587e-21)
(0.0659884 0.0924025 0)
(0.678198 0.228017 0)
(0.649346 0.267926 6.41744e-21)
(0.559323 -0.154637 -6.25061e-21)
(0.135556 0.0982796 -8.64976e-21)
(0.585838 0.353368 -1.10371e-20)
(0.0508099 0.00953882 -5.15015e-21)
(0.697137 -0.154471 0)
(0.517406 0.208644 -2.85189e-21)
(0.245617 0.0940971 3.14709e-21)
(0.44373 -0.0174145 -2.89411e-21)
(0.546058 -0.249393 0)
(0.109401 0.132597 -6.15806e-21)
(0.703679 0.220956 -2.00922e-21)
(0.665223 0.13487 4.93547e-21)
(0.29626 0.26705 3.35797e-21)
(0.407279 -0.172391 0)
(0.463058 -0.179625 0)
(0.671039 0.179764 0)
(0.225907 0.20519 -6.0247e-21)
(0.00185443 0.00693259 0)
(0.285641 -0.130046 3.15059e-21)
(0.262186 0.125214 -2.64577e-21)
(0.544232 -0.247619 -4.07011e-21)
(0.0171269 0.0312869 7.40939e-21)
(0.535439 0.25811 3.74219e-21)
(0.501092 0.197247 7.35255e-21)
(0.260778 0.0951586 -7.40192e-21)
(0.430488 -0.0037499 -3.3364e-21)
(0.569654 -0.243051 -1.04038e-20)
(0.688067 0.245624 4.01617e-21)
(0.0849735 0.103891 0)
(0.0901083 0.118315 6.47375e-21)
(0.700127 0.22081 0)
(0.542942 -0.261318 7.79859e-21)
(0.650843 0.297961 4.43367e-21)
(0.084675 0.0662051 -1.93079e-20)
(0.616496 -0.183862 -9.79638e-21)
(0.091815 0.0112956 1.4589e-20)
(0.654297 -0.11565 -5.33286e-21)
(0.603864 0.352513 0)
(0.475924 0.36596 1.71472e-20)
(0.625365 0.028944 -9.19468e-21)
(0.24051 -0.0972715 9.32522e-21)
(0.623258 -0.0556601 -1.61807e-21)
(0.566684 0.361403 -5.53319e-21)
(0.141928 -0.0197466 8.86235e-21)
(0.0774661 -0.000213652 1.31136e-20)
(0.594296 0.364895 0)
(0.683285 -0.122392 3.91734e-21)
(0.507452 0.290733 2.67431e-21)
(0.52437 0.302343 0)
(0.535138 0.00275147 9.66571e-21)
(0.547756 -0.0110452 -1.0329e-20)
(0.208109 0.00435789 -5.94559e-21)
(0.193449 0.00338781 0)
(0.490255 0.29157 2.62382e-21)
(0.540966 0.0174832 0)
(0.221305 -0.00998085 -2.85672e-21)
(0.533961 0.35996 0)
(0.611099 -0.0204584 9.03807e-21)
(0.175504 -0.040807 -2.02156e-21)
(0.48294 -0.193876 5.77386e-21)
(0.6836 0.187868 -4.55749e-21)
(0.204359 0.192438 1.33233e-20)
(0.56573 -0.227842 0)
(0.688137 0.245855 -1.22062e-21)
(0.104667 0.116361 0)
(0.176995 0.164776 4.29084e-21)
(0.681369 0.209731 2.92758e-21)
(0.509492 -0.192721 3.7728e-21)
(0.525822 -0.203486 5.77269e-22)
(0.00893742 0.0178645 -1.50044e-24)
(0.459953 0.260634 0)
(0.439089 0.23753 -5.13258e-21)
(0.447357 0.229389 0)
(0.265671 0.00950083 1.35167e-21)
(0.498612 0.0547667 -1.85635e-20)
(0.264247 0.0245214 -1.71018e-21)
(0.484521 0.046437 1.17963e-20)
(0.512279 0.343278 0)
(0.494492 0.331705 1.74227e-21)
(0.214191 -0.0456861 -2.36295e-23)
(0.593345 0.000802351 -5.62647e-21)
(0.199266 -0.0411137 -1.47336e-20)
(0.583966 0.0137099 1.1891e-20)
(0.469831 -0.2566 0)
(0.0168385 0.0342094 -1.33643e-20)
(0.522775 0.208453 0)
(0.574114 -0.236894 6.13635e-21)
(0.686854 0.249722 -1.23055e-21)
(0.0889083 0.101857 -3.88632e-21)
(0.430407 0.306128 3.22562e-21)
(0.274943 -0.0790936 6.69146e-21)
(0.588427 0.0617662 -1.57377e-20)
(0.453754 -0.199012 -1.25494e-20)
(0.688086 0.160362 -1.18331e-20)
(0.242444 0.234503 0)
(0.0990038 0.00494146 -1.56005e-20)
(0.65132 -0.105687 5.67476e-21)
(0.598983 0.355831 0)
(0.582798 -0.251676 0)
(0.598231 0.27134 0)
(0.0296712 0.0447339 0)
(0.581938 -0.253565 0)
(0.620329 0.265994 -6.55796e-21)
(0.0379408 0.05498 0)
(0.560371 0.336178 5.27216e-21)
(0.590418 -0.0477813 -3.24872e-21)
(0.154177 -0.00230177 -4.15974e-21)
(0.371019 0.232841 1.50436e-21)
(0.318398 -0.0482981 0)
(0.546964 0.105562 -5.08811e-21)
(0.647317 0.301496 -5.16606e-21)
(0.0753144 0.0608639 -1.12819e-20)
(0.627566 -0.191776 1.41962e-20)
(0.492036 -0.163884 0)
(0.660545 0.210116 0)
(0.194706 0.16577 -1.42815e-20)
(0.106298 0.0563795 -3.63354e-21)
(0.604427 -0.140577 -8.5868e-21)
(0.630944 0.308626 -1.35751e-20)
(0.481115 0.330991 -1.77473e-21)
(0.227384 -0.0568515 9.81774e-21)
(0.58702 0.0238547 -6.07491e-21)
(0.603244 0.148006 9.31994e-21)
(0.385886 -0.104439 -5.63744e-21)
(0.299069 0.217558 -1.18752e-20)
(0.41197 0.258137 -9.64329e-23)
(0.283487 -0.0413457 1.9021e-21)
(0.545786 0.07409 6.24644e-21)
(0.0735164 0.0684386 4.40157e-21)
(0.619142 -0.207636 -6.5955e-21)
(0.654557 0.290794 -5.77775e-21)
(0.611513 0.31348 2.49008e-21)
(0.59376 -0.1093 2.53114e-21)
(0.122686 0.0443303 0)
(0.410944 0.226099 5.56625e-21)
(0.287041 -0.00171521 -1.19221e-20)
(0.504113 0.0754232 1.00066e-20)
(0.589778 0.364765 -4.31324e-21)
(0.0668673 3.52431e-06 -5.84757e-21)
(0.694252 -0.132869 -2.55631e-23)
(0.486415 0.261369 3.24217e-21)
(0.506057 0.0157008 0)
(0.228585 0.0179897 0)
(0.531952 0.161784 1.32901e-20)
(0.384863 -0.0334652 -3.26978e-21)
(0.293389 0.156683 0)
(0.462893 -0.162969 0)
(0.658682 0.185366 -9.35406e-21)
(0.224013 0.193111 6.30722e-21)
(0.569342 0.332582 0)
(0.0333268 0.0183541 1.80936e-21)
(0.680658 -0.185898 -4.51098e-21)
(0.568739 0.341765 -4.47616e-21)
(0.0362841 0.0138379 -5.78068e-21)
(0.690986 -0.173356 4.32984e-21)
(0.101134 0.0447763 -3.32378e-21)
(0.616731 -0.134905 5.0953e-21)
(0.624622 0.319168 1.24601e-20)
(0.617567 0.13675 4.3687e-21)
(0.382416 -0.121511 1.13101e-20)
(0.3101 0.237307 0)
(0.025549 0.0160091 -1.65758e-21)
(0.670797 -0.190047 4.21859e-21)
(0.543272 0.325293 0)
(0.125229 0.0981793 0)
(0.568552 -0.169556 5.24873e-21)
(0.65793 0.267535 1.55586e-21)
(0.00696296 0.0181205 -6.66366e-21)
(0.391418 -0.22052 -4.28482e-21)
(0.407196 0.169101 0)
(0.370537 0.222361 3.62941e-21)
(0.44214 -0.167546 0)
(0.00444178 0.0115427 -6.67193e-21)
(0.080983 0.00860158 -1.06196e-23)
(0.670456 -0.126137 6.67435e-22)
(0.601591 0.357003 0)
(0.0581632 0.0656952 0)
(0.612037 -0.230233 0)
(0.651553 0.284004 -7.71622e-21)
(0.628455 0.324449 4.55361e-21)
(0.631362 0.320773 -3.68396e-21)
(0.0723508 0.0396542 6.38544e-21)
(0.648944 -0.166263 1.12753e-21)
(0.0812248 0.0441762 0)
(0.635839 -0.159593 0)
(0.665344 0.255493 -2.99781e-21)
(0.557174 -0.177227 -3.47112e-21)
(0.132798 0.111358 0)
(0.267239 0.258057 0)
(0.434067 -0.19808 0)
(0.687312 0.145996 0)
(0.447358 0.205314 -6.84087e-21)
(0.275947 0.0487873 1.62699e-20)
(0.45699 0.0448487 -6.49948e-21)
(0.67064 0.229333 -8.52923e-21)
(0.525679 -0.180044 -1.28127e-21)
(0.160483 0.141278 -1.26699e-20)
(0.175614 0.155115 -8.24184e-21)
(0.671346 0.218706 1.18573e-20)
(0.511678 -0.179629 1.7781e-21)
(0.587412 0.37507 -4.86218e-21)
(0.0865091 -0.0110779 -6.27572e-21)
(0.68431 -0.10637 0)
(0.515477 0.353528 0)
(0.604277 -0.00227702 -2.68417e-21)
(0.194389 -0.0486075 1.44411e-20)
(0.499377 0.316099 0)
(0.567896 0.0110839 -1.21887e-20)
(0.21128 -0.0308752 -2.06307e-23)
(0.638821 0.234437 1.10269e-20)
(0.509482 -0.138102 -1.54946e-21)
(0.177798 0.127924 7.17861e-21)
(0.648501 0.228399 0)
(0.507618 -0.149412 -1.45689e-21)
(0.179675 0.137672 -6.60844e-21)
(0.399751 0.209521 0)
(0.299042 0.00798927 1.88124e-20)
(0.491577 0.0830689 0)
(0.525678 0.313019 0)
(0.559305 -0.0137916 6.85499e-21)
(0.187919 -0.00736441 -2.16335e-21)
(0.120548 0.147385 1.33396e-20)
(0.533194 -0.252876 1.11543e-20)
(0.711884 0.210525 0)
(0.631362 0.250302 1.44456e-22)
(0.040571 0.0611636 -4.10211e-21)
(0.558357 -0.263003 -2.9736e-21)
(0.62241 0.233099 8.1322e-23)
(0.0380951 0.0604514 0)
(0.536759 -0.267229 8.53819e-21)
(0.454349 0.275896 -3.85549e-21)
(0.249046 -0.0202948 2.07583e-21)
(0.53622 0.0436095 9.44004e-23)
(0.554529 -0.253784 -1.33415e-22)
(0.0240845 0.0403026 -1.69944e-20)
(0.57574 0.256144 0)
(0.615426 0.323569 -1.07208e-20)
(0.109299 0.0381894 0)
(0.612677 -0.118659 0)
(0.0243296 0.0432113 6.737e-21)
(0.520129 -0.263481 4.59645e-21)
(0.571027 0.231514 -6.97295e-21)
(0.468657 0.156324 -9.11484e-21)
(0.311246 0.118374 -9.78575e-21)
(0.387776 0.0253832 -5.13205e-23)
(0.570924 0.253311 1.62995e-21)
(0.498454 -0.0601705 1.58992e-21)
(0.19355 0.0780495 6.48666e-21)
(0.361979 -0.113328 -1.29093e-20)
(0.609604 0.124444 -1.54576e-20)
(0.331498 0.2497 0)
(0.0743205 0.099078 0)
(0.554043 -0.259639 2.80197e-21)
(0.685582 0.233046 0)
(0.481195 -0.170027 0)
(0.664484 0.199591 0)
(0.204992 0.177999 0)
(0.0602893 0.00990112 0)
(0.595309 0.354902 4.05177e-21)
(0.69047 -0.146323 -3.90826e-21)
(0.586938 0.259267 0)
(0.509448 -0.0767862 -7.9045e-22)
(0.181683 0.0818012 1.73363e-23)
(0.440146 0.193493 6.60713e-21)
(0.287292 0.056967 -1.39632e-20)
(0.445978 0.049929 0)
(0.573176 -0.249736 9.84567e-21)
(0.677859 0.25013 -3.81302e-21)
(0.0727107 0.0920765 0)
(0.109681 0.0760315 7.63048e-21)
(0.590691 -0.162934 -3.33477e-22)
(0.647363 0.288809 -1.29647e-22)
(0.592843 0.319416 0)
(0.583479 0.315487 -4.5087e-21)
(0.0365358 0.0304431 -4.13716e-21)
(0.0318788 0.03035 5.11361e-21)
(0.659662 -0.202955 2.77757e-21)
(0.651668 -0.210414 -2.2837e-21)
(0.589381 0.192673 0)
(0.431992 -0.0885239 -1.08005e-20)
(0.244699 0.154904 -7.82453e-21)
(0.471297 -0.135165 -1.55597e-20)
(0.637008 0.204125 0)
(0.210853 0.161222 8.67672e-21)
(0.511301 0.174597 7.50249e-21)
(0.400798 -0.0152697 -5.57005e-21)
(0.278233 0.12722 -1.20472e-20)
(0.564031 -0.2627 -6.50583e-21)
(0.65491 0.24815 -5.08381e-21)
(0.550005 -0.267422 3.0949e-21)
(0.0510719 0.0727935 4.34532e-21)
(0.661546 0.235042 4.76453e-21)
(0.0550821 0.0788552 0)
(0.61608 0.27239 0)
(0.540022 -0.111514 0)
(0.154849 0.0837851 -8.11777e-21)
(0.667499 0.25979 -5.03996e-21)
(0.657609 0.258345 1.26816e-20)
(0.584545 -0.247697 -4.26968e-21)
(0.581205 -0.253798 1.07162e-20)
(0.0628667 0.0802206 -1.14231e-20)
(0.0540659 0.0722784 4.97431e-25)
(0.632117 0.194701 0)
(0.454154 -0.132482 1.43695e-20)
(0.229879 0.177852 -1.12474e-20)
(0.562915 0.2135 -7.07128e-21)
(0.463749 -0.0649442 9.58253e-21)
(0.215748 0.108257 0)
(0.587658 0.345455 0)
(0.0455043 0.0159927 -7.96355e-22)
(0.689496 -0.168621 -4.15846e-21)
(0.586964 0.205185 -5.20027e-21)
(0.446258 -0.0828293 0)
(0.231152 0.139767 1.29985e-20)
(0.530013 0.187362 -3.03569e-21)
(0.416399 -0.0326185 6.52999e-21)
(0.262301 0.124595 -7.06544e-21)
(0.584978 0.327591 0)
(0.0378877 0.0244522 0)
(0.674086 -0.192662 5.74032e-21)
(0.584747 0.273179 0)
(0.52845 -0.0747123 -1.68634e-21)
(0.168031 0.0657203 8.05586e-21)
(0.395977 -0.177283 0)
(0.669051 0.12514 0)
(0.312419 0.28611 4.3322e-22)
(0.477171 0.341109 4.3691e-22)
(0.599128 0.0281751 0)
(0.231791 -0.0704577 -7.62716e-21)
(0.493964 -0.228768 -6.76069e-21)
(0.188147 0.203525 0)
(0.709294 0.181725 0)
(0.00395317 0.0116273 1.60311e-20)
(0.372928 -0.169898 -4.41169e-21)
(0.345819 0.168726 3.70456e-21)
(0.587961 0.230949 0)
(0.475132 -0.0788877 -5.88825e-21)
(0.204951 0.110088 0)
(0.610883 0.335908 -7.5713e-21)
(0.0557094 0.0281462 -2.16009e-20)
(0.670947 -0.170698 8.45331e-21)
(0.275956 -0.117216 0)
(0.630438 0.0536697 6.01488e-21)
(0.4391 0.351561 0)
(0.448773 0.274589 0)
(0.00932231 0.0148802 4.00977e-21)
(0.557231 -0.191606 0)
(0.339841 0.200926 -7.47912e-21)
(0.345421 0.217558 7.65881e-21)
(0.340701 -0.0406827 0)
(0.5372 0.124518 -6.41033e-21)
(0.338662 -0.0562734 1.21445e-20)
(0.553646 0.119271 5.1584e-21)
(0.510646 0.16065 -7.05892e-21)
(0.383031 -0.013091 -7.3897e-21)
(0.297191 0.143849 0)
(0.382331 0.224655 -6.57895e-21)
(0.361984 0.208818 0)
(0.307605 -0.0268511 0)
(0.525944 0.0956529 0)
(0.321832 -0.0244293 6.7953e-21)
(0.52198 0.108987 -4.02777e-23)
(0.575014 0.226766 -4.49018e-22)
(0.444509 -0.0582054 4.16961e-21)
(0.23397 0.120886 8.73675e-21)
(0.567869 0.20438 1.21616e-20)
(0.438411 -0.0644054 0)
(0.240894 0.133154 0)
(0.0460944 0.0713374 0)
(0.529821 -0.27292 0)
(0.644471 0.224994 -5.13248e-21)
(0.473855 0.277771 1.06039e-20)
(0.530704 0.0301833 0)
(0.234897 -0.00798151 -3.85015e-21)
(0.663906 0.271923 1.02651e-20)
(0.598238 -0.235935 -4.92723e-21)
(0.0652539 0.0769879 6.51915e-21)
(0.639001 0.249587 0)
(0.648285 0.254725 -6.18099e-21)
(0.528596 -0.138488 1.93056e-21)
(0.541978 -0.150456 -6.15978e-21)
(0.160018 0.112808 8.96506e-21)
(0.148861 0.110341 8.35236e-21)
(0.472667 0.262369 0)
(0.513378 0.0284926 0)
(0.2386 0.00673917 -1.80831e-21)
(0.536406 0.336426 -4.23122e-21)
(0.585861 -0.0218888 0)
(0.177536 -0.0198653 -4.8177e-21)
(0.616347 0.247007 3.16501e-21)
(0.509166 -0.112223 0)
(0.175355 0.108843 -8.18168e-21)
(0.407603 0.164342 -7.2009e-21)
(0.432508 0.0751012 -3.50307e-21)
(0.316129 0.0600532 -3.74855e-21)
(0.659596 0.236758 0)
(0.526341 -0.164863 0)
(0.161554 0.132299 1.34687e-20)
(0.432561 0.210695 0)
(0.279309 0.0321123 -2.06476e-21)
(0.471237 0.0572291 0)
(0.624788 0.209087 7.03081e-21)
(0.46748 -0.1232 7.99302e-21)
(0.215158 0.152508 1.12348e-21)
(0.540254 0.32258 -4.27041e-21)
(0.571589 -0.0272226 -7.81705e-21)
(0.175259 -0.00631952 0)
(0.413938 0.180463 7.13827e-21)
(0.40237 0.184277 3.20146e-21)
(0.446476 0.0690542 -3.42631e-21)
(0.303428 0.049465 7.40578e-21)
(0.460785 0.0779732 0)
(0.305557 0.0352404 1.32277e-20)
(0.380105 0.197979 3.25968e-21)
(0.312251 0.001158 -8.77846e-21)
(0.365238 0.200169 -2.09917e-21)
(0.494299 0.0958995 0)
(0.325346 -0.0146194 -4.31457e-21)
(0.51192 0.109204 7.33674e-21)
(0.506282 0.276934 -3.84132e-21)
(0.525067 0.276564 0)
(0.518769 0.000780877 -7.16487e-21)
(0.517014 -0.0142051 5.59021e-21)
(0.211603 0.0180897 1.71875e-20)
(0.202079 0.0308272 -1.42964e-20)
(0.0946662 0.022651 0)
(0.639765 -0.120951 3.1287e-21)
(0.610599 0.3403 6.45956e-21)
(0.330567 0.289829 -1.45704e-20)
(0.654672 0.117135 -6.84022e-21)
(0.378109 -0.161474 1.37275e-20)
(0.0855122 0.0272597 7.27237e-21)
(0.087901 0.0375432 0)
(0.645652 -0.136493 -2.70422e-21)
(0.633832 -0.14458 -4.65476e-21)
(0.616113 0.338276 -1.65388e-20)
(0.624688 0.327126 8.60928e-21)
(0.396835 0.307538 0)
(0.309006 -0.108348 7.32179e-21)
(0.61135 0.0825593 -1.50533e-21)
(0.402698 0.136616 -1.51483e-20)
(0.341859 0.0864032 0)
(0.401851 0.0805765 1.2002e-20)
(0.658419 0.248549 2.97141e-21)
(0.541564 -0.164885 6.95357e-21)
(0.148186 0.119164 0)
(0.450915 0.25038 0)
(0.253858 0.000369011 1.72375e-21)
(0.509948 0.045519 6.02177e-21)
(0.550632 0.323138 0)
(0.573365 -0.036972 0)
(0.166441 0.00150135 1.15234e-21)
(0.596454 0.348839 0)
(0.600448 0.338313 0)
(0.633664 -0.095862 -1.65337e-21)
(0.110995 0.00902356 8.85753e-21)
(0.620915 -0.0980071 4.50968e-21)
(0.114204 0.0193237 -1.19795e-20)
(0.628339 0.268842 -5.99943e-21)
(0.545799 -0.125666 -6.45348e-21)
(0.147892 0.090533 -3.90325e-21)
(0.492667 0.285915 -5.62038e-21)
(0.589364 -0.204198 0)
(0.0139537 0.0187538 4.90731e-21)
(0.290322 -0.118513 0)
(0.626194 0.0644415 -4.90457e-21)
(0.423121 0.336981 0)
(0.456214 0.352491 -4.42799e-21)
(0.44993 0.339351 4.76756e-21)
(0.258153 -0.10079 4.77272e-21)
(0.620968 0.0433373 0)
(0.262063 -0.0925168 0)
(0.610316 0.0475887 0)
(0.678029 0.200042 1.03986e-20)
(0.49314 -0.188051 -1.31187e-20)
(0.193731 0.177378 -6.14169e-22)
(0.523872 0.335132 8.68703e-21)
(0.583514 -0.0104949 0)
(0.189515 -0.0264954 4.97094e-21)
(0.42006 0.316733 0)