/*--------------------------------*- C++ -*----------------------------------*\
  =========                 |
  \\      /  F ield         | OpenFOAM: The Open Source CFD Toolbox
   \\    /   O peration     | Website:  https://openfoam.org
    \\  /    A nd           | Version:  6
     \\/     M anipulation  |
\*---------------------------------------------------------------------------*/
FoamFile
{
    version     2.0;
    format      ascii;
    class       volScalarField;
    location    "0";
    object      p;
}
// * * * * * * * * * * * * * * * * * * * * * * * * * * * * * * * * * * * * * //

dimensions      [0 2 -2 0 0 0 0];

internalField   nonuniform List<scalar> 
10000
(
0
1.34877e-06
1.91399e-06
1.20985e-06
-1.26681e-06
-5.92363e-06
-1.30446e-05
-2.27634e-05
-3.50478e-05
-4.97056e-05
-6.64081e-05
-8.47259e-05
-0.000104169
-0.00012423
-0.000144413
-0.000164271
-0.00018343
-0.000201563
-0.000218365
-0.00023364
-0.000247293
-0.00025929
-0.000269642
-0.0002784
-0.00028564
-0.000291458
-0.000295963
-0.000299273
-0.000301506
-0.000302781
-0.000303214
-0.000302914
-0.000301985
-0.000300523
-0.000298613
-0.000296336
-0.000293763
-0.000290955
-0.00028797
-0.000284855
-0.000281653
-0.000278401
-0.00027513
-0.000271867
-0.000268637
-0.000265457
-0.000262346
-0.000259316
-0.00025638
-0.000253547
-0.000250825
-0.00024822
-0.000245737
-0.00024338
-0.000241153
-0.000239056
-0.000237092
-0.000235261
-0.000233563
-0.000231999
-0.000230568
-0.000229269
-0.000228101
-0.000227062
-0.000226153
-0.00022537
-0.000224713
-0.000224182
-0.000223776
-0.000223495
-0.000223342
-0.000223318
-0.000223428
-0.000223677
-0.000224074
-0.000224629
-0.000225356
-0.000226275
-0.000227411
-0.000228794
-0.000230465
-0.000232477
-0.000234893
-0.000237794
-0.000241277
-0.000245456
-0.000250468
-0.000256465
-0.000263612
-0.000272081
-0.000282039
-0.000293628
-0.000306941
-0.000321991
-0.000338577
-0.000356164
-0.000373725
-0.000389531
-0.000400527
-0.000403226
-0.00985476
-0.00985295
-0.00985207
-0.00985247
-0.00985457
-0.00985875
-0.00986529
-0.00987433
-0.00988584
-0.00989964
-0.00991541
-0.00993273
-0.00995115
-0.00997015
-0.00998927
-0.0100081
-0.0100262
-0.0100433
-0.0100593
-0.0100738
-0.0100866
-0.0100979
-0.0101076
-0.0101158
-0.0101225
-0.0101279
-0.010132
-0.0101349
-0.0101369
-0.0101379
-0.0101382
-0.0101377
-0.0101366
-0.0101351
-0.0101331
-0.0101308
-0.0101282
-0.0101254
-0.0101224
-0.0101193
-0.0101161
-0.0101129
-0.0101096
-0.0101064
-0.0101032
-0.0101
-0.0100969
-0.0100939
-0.010091
-0.0100882
-0.0100855
-0.0100829
-0.0100804
-0.010078
-0.0100758
-0.0100736
-0.0100716
-0.0100698
-0.010068
-0.0100664
-0.010065
-0.0100636
-0.0100624
-0.0100613
-0.0100604
-0.0100595
-0.0100588
-0.0100582
-0.0100578
-0.0100574
-0.0100572
-0.0100572
-0.0100572
-0.0100574
-0.0100578
-0.0100583
-0.010059
-0.0100598
-0.0100609
-0.0100622
-0.0100638
-0.0100657
-0.010068
-0.0100707
-0.0100739
-0.0100777
-0.0100823
-0.0100876
-0.0100939
-0.0101011
-0.0101095
-0.0101189
-0.0101294
-0.0101407
-0.0101526
-0.0101644
-0.0101753
-0.0101841
-0.0101884
-0.0101862
-0.0197088
-0.0197063
-0.0197049
-0.0197049
-0.0197065
-0.0197101
-0.0197161
-0.0197246
-0.0197356
-0.0197488
-0.019764
-0.0197807
-0.0197984
-0.0198167
-0.0198351
-0.0198531
-0.0198704
-0.0198867
-0.0199018
-0.0199155
-0.0199276
-0.0199382
-0.0199472
-0.0199547
-0.0199609
-0.0199657
-0.0199693
-0.0199718
-0.0199734
-0.019974
-0.019974
-0.0199733
-0.019972
-0.0199702
-0.0199681
-0.0199657
-0.019963
-0.0199601
-0.019957
-0.0199539
-0.0199507
-0.0199474
-0.0199442
-0.0199409
-0.0199377
-0.0199346
-0.0199315
-0.0199285
-0.0199256
-0.0199227
-0.01992
-0.0199174
-0.0199149
-0.0199125
-0.0199102
-0.0199081
-0.0199061
-0.0199042
-0.0199024
-0.0199007
-0.0198992
-0.0198978
-0.0198966
-0.0198954
-0.0198944
-0.0198935
-0.0198928
-0.0198922
-0.0198916
-0.0198913
-0.019891
-0.0198909
-0.0198909
-0.019891
-0.0198913
-0.0198918
-0.0198924
-0.0198931
-0.0198941
-0.0198953
-0.0198968
-0.0198986
-0.0199006
-0.0199031
-0.019906
-0.0199095
-0.0199135
-0.0199182
-0.0199235
-0.0199296
-0.0199365
-0.0199439
-0.0199519
-0.0199601
-0.019968
-0.0199753
-0.0199812
-0.0199849
-0.0199849
-0.0199802
-0.0295618
-0.0295588
-0.0295569
-0.0295563
-0.0295574
-0.0295607
-0.0295663
-0.0295745
-0.0295851
-0.0295981
-0.0296129
-0.0296293
-0.0296467
-0.0296645
-0.0296824
-0.0296999
-0.0297165
-0.0297321
-0.0297463
-0.0297592
-0.0297706
-0.0297804
-0.0297887
-0.0297954
-0.0298009
-0.029805
-0.029808
-0.0298099
-0.029811
-0.0298112
-0.0298107
-0.0298096
-0.029808
-0.0298059
-0.0298036
-0.0298009
-0.029798
-0.029795
-0.0297918
-0.0297886
-0.0297853
-0.029782
-0.0297787
-0.0297754
-0.0297722
-0.029769
-0.0297659
-0.0297629
-0.02976
-0.0297571
-0.0297544
-0.0297518
-0.0297492
-0.0297468
-0.0297445
-0.0297424
-0.0297403
-0.0297384
-0.0297366
-0.0297349
-0.0297333
-0.0297319
-0.0297306
-0.0297294
-0.0297283
-0.0297274
-0.0297266
-0.0297259
-0.0297254
-0.0297249
-0.0297246
-0.0297244
-0.0297244
-0.0297245
-0.0297247
-0.029725
-0.0297256
-0.0297263
-0.0297271
-0.0297282
-0.0297295
-0.0297311
-0.029733
-0.0297352
-0.0297378
-0.0297408
-0.0297443
-0.0297483
-0.0297528
-0.0297578
-0.0297633
-0.0297691
-0.0297749
-0.0297806
-0.0297855
-0.0297894
-0.0297917
-0.029792
-0.0297896
-0.0297836
-0.0394138
-0.0394104
-0.0394081
-0.0394072
-0.0394079
-0.0394109
-0.0394163
-0.0394244
-0.0394349
-0.0394478
-0.0394626
-0.0394789
-0.0394961
-0.0395137
-0.0395312
-0.0395481
-0.0395642
-0.0395792
-0.0395926
-0.0396047
-0.0396153
-0.0396243
-0.0396317
-0.0396377
-0.0396423
-0.0396457
-0.039648
-0.0396492
-0.0396496
-0.0396493
-0.0396482
-0.0396466
-0.0396446
-0.0396422
-0.0396395
-0.0396365
-0.0396334
-0.0396301
-0.0396268
-0.0396234
-0.03962
-0.0396166
-0.0396132
-0.0396099
-0.0396066
-0.0396034
-0.0396002
-0.0395972
-0.0395942
-0.0395914
-0.0395886
-0.0395859
-0.0395834
-0.039581
-0.0395787
-0.0395765
-0.0395744
-0.0395724
-0.0395706
-0.0395688
-0.0395672
-0.0395658
-0.0395644
-0.0395632
-0.0395621
-0.0395611
-0.0395603
-0.0395595
-0.0395589
-0.0395584
-0.0395581
-0.0395578
-0.0395577
-0.0395577
-0.0395579
-0.0395582
-0.0395586
-0.0395592
-0.0395599
-0.0395609
-0.0395621
-0.0395634
-0.0395651
-0.039567
-0.0395692
-0.0395718
-0.0395748
-0.0395782
-0.0395819
-0.039586
-0.0395903
-0.0395947
-0.0395989
-0.0396025
-0.0396052
-0.0396066
-0.0396064
-0.0396046
-0.0396007
-0.0395943
-0.0492649
-0.0492614
-0.0492588
-0.0492575
-0.0492581
-0.0492609
-0.0492663
-0.0492744
-0.0492851
-0.0492981
-0.049313
-0.0493293
-0.0493464
-0.0493638
-0.049381
-0.0493976
-0.0494132
-0.0494275
-0.0494404
-0.0494516
-0.0494613
-0.0494694
-0.049476
-0.0494811
-0.0494849
-0.0494875
-0.049489
-0.0494895
-0.0494892
-0.0494882
-0.0494865
-0.0494844
-0.0494818
-0.0494789
-0.0494758
-0.0494724
-0.049469
-0.0494654
-0.0494619
-0.0494583
-0.0494547
-0.0494511
-0.0494476
-0.0494442
-0.0494408
-0.0494375
-0.0494343
-0.0494312
-0.0494282
-0.0494254
-0.0494226
-0.0494199
-0.0494173
-0.0494149
-0.0494125
-0.0494103
-0.0494082
-0.0494062
-0.0494043
-0.0494026
-0.0494009
-0.0493994
-0.049398
-0.0493968
-0.0493956
-0.0493946
-0.0493937
-0.0493929
-0.0493923
-0.0493917
-0.0493913
-0.049391
-0.0493908
-0.0493908
-0.0493909
-0.0493911
-0.0493914
-0.0493919
-0.0493925
-0.0493933
-0.0493943
-0.0493955
-0.0493969
-0.0493986
-0.0494005
-0.0494027
-0.0494052
-0.049408
-0.049411
-0.0494143
-0.0494176
-0.0494208
-0.0494236
-0.0494257
-0.0494268
-0.0494264
-0.0494246
-0.0494215
-0.0494169
-0.0494106
-0.0591154
-0.0591116
-0.0591088
-0.0591074
-0.0591079
-0.0591107
-0.0591163
-0.0591246
-0.0591356
-0.0591488
-0.0591639
-0.0591803
-0.0591974
-0.0592147
-0.0592317
-0.0592479
-0.059263
-0.0592767
-0.0592889
-0.0592994
-0.0593082
-0.0593154
-0.0593211
-0.0593253
-0.0593283
-0.05933
-0.0593307
-0.0593304
-0.0593293
-0.0593276
-0.0593253
-0.0593225
-0.0593194
-0.059316
-0.0593124
-0.0593086
-0.0593048
-0.0593009
-0.059297
-0.0592931
-0.0592893
-0.0592856
-0.0592819
-0.0592783
-0.0592748
-0.0592715
-0.0592682
-0.0592651
-0.059262
-0.0592591
-0.0592563
-0.0592536
-0.059251
-0.0592485
-0.0592461
-0.0592439
-0.0592417
-0.0592397
-0.0592378
-0.0592361
-0.0592344
-0.0592328
-0.0592314
-0.0592301
-0.0592289
-0.0592279
-0.0592269
-0.0592261
-0.0592254
-0.0592248
-0.0592243
-0.059224
-0.0592237
-0.0592236
-0.0592236
-0.0592237
-0.059224
-0.0592244
-0.0592249
-0.0592256
-0.0592264
-0.0592274
-0.0592286
-0.0592299
-0.0592315
-0.0592333
-0.0592354
-0.0592376
-0.0592401
-0.0592426
-0.0592451
-0.0592473
-0.0592491
-0.0592501
-0.0592499
-0.0592485
-0.0592456
-0.0592417
-0.0592369
-0.0592309
-0.0689651
-0.0689612
-0.0689583
-0.0689569
-0.0689574
-0.0689604
-0.0689662
-0.0689749
-0.0689862
-0.0689998
-0.0690152
-0.0690318
-0.0690489
-0.0690661
-0.0690827
-0.0690985
-0.069113
-0.0691261
-0.0691376
-0.0691473
-0.0691553
-0.0691616
-0.0691664
-0.0691697
-0.0691718
-0.0691727
-0.0691725
-0.0691715
-0.0691697
-0.0691672
-0.0691642
-0.0691608
-0.0691571
-0.0691531
-0.069149
-0.0691448
-0.0691405
-0.0691363
-0.0691321
-0.0691279
-0.0691238
-0.0691199
-0.069116
-0.0691123
-0.0691087
-0.0691052
-0.0691018
-0.0690986
-0.0690955
-0.0690925
-0.0690896
-0.0690869
-0.0690843
-0.0690818
-0.0690794
-0.0690771
-0.069075
-0.0690729
-0.069071
-0.0690692
-0.0690675
-0.069066
-0.0690645
-0.0690632
-0.069062
-0.0690608
-0.0690599
-0.069059
-0.0690583
-0.0690576
-0.0690571
-0.0690567
-0.0690564
-0.0690562
-0.0690561
-0.0690562
-0.0690563
-0.0690566
-0.069057
-0.0690575
-0.0690582
-0.069059
-0.0690599
-0.069061
-0.0690623
-0.0690638
-0.0690654
-0.0690672
-0.0690691
-0.069071
-0.0690728
-0.0690743
-0.0690752
-0.0690753
-0.0690744
-0.0690721
-0.0690687
-0.0690645
-0.0690598
-0.0690542
-0.0788141
-0.0788101
-0.0788072
-0.0788058
-0.0788065
-0.0788098
-0.078816
-0.0788251
-0.0788369
-0.0788509
-0.0788666
-0.0788833
-0.0789004
-0.0789174
-0.0789337
-0.078949
-0.0789629
-0.0789753
-0.0789859
-0.0789948
-0.079002
-0.0790075
-0.0790113
-0.0790138
-0.079015
-0.079015
-0.0790141
-0.0790123
-0.0790097
-0.0790066
-0.0790029
-0.0789989
-0.0789946
-0.0789901
-0.0789855
-0.0789809
-0.0789762
-0.0789715
-0.078967
-0.0789625
-0.0789581
-0.0789539
-0.0789499
-0.0789459
-0.0789422
-0.0789385
-0.0789351
-0.0789318
-0.0789286
-0.0789255
-0.0789226
-0.0789199
-0.0789172
-0.0789147
-0.0789123
-0.07891
-0.0789078
-0.0789058
-0.0789039
-0.078902
-0.0789003
-0.0788988
-0.0788973
-0.0788959
-0.0788947
-0.0788935
-0.0788925
-0.0788916
-0.0788908
-0.0788902
-0.0788896
-0.0788891
-0.0788888
-0.0788885
-0.0788884
-0.0788883
-0.0788884
-0.0788885
-0.0788888
-0.0788892
-0.0788897
-0.0788903
-0.0788911
-0.0788919
-0.0788929
-0.078894
-0.0788953
-0.0788966
-0.078898
-0.0788994
-0.0789006
-0.0789015
-0.0789018
-0.0789013
-0.0788998
-0.0788971
-0.0788934
-0.0788891
-0.0788846
-0.0788795
-0.0886625
-0.0886584
-0.0886554
-0.0886541
-0.0886551
-0.0886588
-0.0886655
-0.0886752
-0.0886875
-0.0887019
-0.0887179
-0.0887347
-0.0887517
-0.0887684
-0.0887843
-0.0887989
-0.0888122
-0.0888237
-0.0888335
-0.0888416
-0.0888479
-0.0888524
-0.0888554
-0.088857
-0.0888574
-0.0888566
-0.0888549
-0.0888524
-0.0888491
-0.0888453
-0.0888411
-0.0888365
-0.0888317
-0.0888267
-0.0888216
-0.0888165
-0.0888114
-0.0888064
-0.0888015
-0.0887967
-0.0887921
-0.0887876
-0.0887833
-0.0887792
-0.0887753
-0.0887715
-0.0887679
-0.0887645
-0.0887613
-0.0887582
-0.0887552
-0.0887524
-0.0887497
-0.0887472
-0.0887448
-0.0887425
-0.0887403
-0.0887382
-0.0887363
-0.0887345
-0.0887328
-0.0887312
-0.0887297
-0.0887283
-0.088727
-0.0887259
-0.0887248
-0.0887239
-0.0887231
-0.0887224
-0.0887217
-0.0887212
-0.0887208
-0.0887205
-0.0887203
-0.0887201
-0.0887201
-0.0887202
-0.0887203
-0.0887206
-0.0887209
-0.0887214
-0.0887219
-0.0887225
-0.0887233
-0.0887241
-0.088725
-0.0887259
-0.0887269
-0.0887278
-0.0887285
-0.0887289
-0.0887287
-0.0887278
-0.0887259
-0.088723
-0.0887192
-0.088715
-0.0887108
-0.0887062
-0.09851
-0.0985058
-0.0985029
-0.0985019
-0.0985032
-0.0985074
-0.0985147
-0.0985249
-0.0985377
-0.0985526
-0.0985687
-0.0985856
-0.0986024
-0.0986187
-0.098634
-0.0986479
-0.0986603
-0.098671
-0.0986799
-0.098687
-0.0986924
-0.098696
-0.0986981
-0.0986989
-0.0986984
-0.098697
-0.0986946
-0.0986914
-0.0986875
-0.0986832
-0.0986784
-0.0986733
-0.098668
-0.0986625
-0.098657
-0.0986515
-0.0986461
-0.0986407
-0.0986355
-0.0986304
-0.0986256
-0.0986209
-0.0986164
-0.0986121
-0.098608
-0.0986041
-0.0986003
-0.0985968
-0.0985935
-0.0985903
-0.0985873
-0.0985845
-0.0985818
-0.0985792
-0.0985768
-0.0985745
-0.0985723
-0.0985702
-0.0985683
-0.0985665
-0.0985648
-0.0985632
-0.0985617
-0.0985603
-0.098559
-0.0985578
-0.0985568
-0.0985558
-0.0985549
-0.0985542
-0.0985535
-0.098553
-0.0985525
-0.0985521
-0.0985519
-0.0985517
-0.0985515
-0.0985515
-0.0985516
-0.0985517
-0.0985519
-0.0985522
-0.0985525
-0.0985529
-0.0985534
-0.0985539
-0.0985545
-0.0985552
-0.0985558
-0.0985563
-0.0985566
-0.0985565
-0.098556
-0.0985547
-0.0985525
-0.0985495
-0.0985458
-0.0985418
-0.0985379
-0.0985338
-0.108357
-0.108352
-0.10835
-0.108349
-0.108351
-0.108355
-0.108363
-0.108374
-0.108387
-0.108403
-0.108419
-0.108436
-0.108452
-0.108468
-0.108482
-0.108496
-0.108507
-0.108517
-0.108525
-0.108531
-0.108535
-0.108538
-0.108539
-0.108539
-0.108538
-0.108536
-0.108533
-0.108529
-0.108525
-0.10852
-0.108514
-0.108509
-0.108503
-0.108497
-0.108492
-0.108486
-0.10848
-0.108474
-0.108469
-0.108464
-0.108458
-0.108454
-0.108449
-0.108444
-0.10844
-0.108436
-0.108432
-0.108429
-0.108425
-0.108422
-0.108419
-0.108416
-0.108413
-0.108411
-0.108408
-0.108406
-0.108404
-0.108402
-0.1084
-0.108398
-0.108396
-0.108395
-0.108393
-0.108392
-0.108391
-0.108389
-0.108388
-0.108387
-0.108386
-0.108386
-0.108385
-0.108384
-0.108384
-0.108383
-0.108383
-0.108383
-0.108383
-0.108382
-0.108382
-0.108382
-0.108383
-0.108383
-0.108383
-0.108383
-0.108383
-0.108384
-0.108384
-0.108384
-0.108385
-0.108385
-0.108385
-0.108384
-0.108383
-0.108382
-0.10838
-0.108377
-0.108373
-0.108369
-0.108366
-0.108362
-0.118202
-0.118198
-0.118195
-0.118195
-0.118197
-0.118202
-0.118211
-0.118222
-0.118236
-0.118252
-0.118268
-0.118284
-0.1183
-0.118315
-0.118329
-0.118341
-0.118352
-0.11836
-0.118367
-0.118372
-0.118376
-0.118378
-0.118378
-0.118377
-0.118376
-0.118373
-0.118369
-0.118365
-0.11836
-0.118355
-0.118349
-0.118343
-0.118337
-0.118331
-0.118325
-0.118319
-0.118313
-0.118307
-0.118301
-0.118296
-0.118291
-0.118286
-0.118281
-0.118276
-0.118272
-0.118268
-0.118264
-0.11826
-0.118256
-0.118253
-0.11825
-0.118247
-0.118244
-0.118242
-0.118239
-0.118237
-0.118235
-0.118233
-0.118231
-0.118229
-0.118227
-0.118226
-0.118224
-0.118223
-0.118222
-0.11822
-0.118219
-0.118218
-0.118218
-0.118217
-0.118216
-0.118215
-0.118215
-0.118214
-0.118214
-0.118214
-0.118213
-0.118213
-0.118213
-0.118213
-0.118213
-0.118213
-0.118213
-0.118213
-0.118213
-0.118213
-0.118213
-0.118213
-0.118213
-0.118213
-0.118213
-0.118212
-0.118211
-0.118209
-0.118207
-0.118204
-0.118201
-0.118197
-0.118194
-0.118191
-0.128047
-0.128043
-0.12804
-0.12804
-0.128043
-0.128049
-0.128058
-0.12807
-0.128084
-0.128099
-0.128115
-0.128132
-0.128147
-0.128161
-0.128174
-0.128185
-0.128194
-0.128202
-0.128208
-0.128212
-0.128214
-0.128215
-0.128215
-0.128214
-0.128211
-0.128208
-0.128204
-0.128199
-0.128194
-0.128188
-0.128182
-0.128176
-0.12817
-0.128164
-0.128157
-0.128151
-0.128145
-0.128139
-0.128133
-0.128127
-0.128122
-0.128117
-0.128112
-0.128107
-0.128103
-0.128098
-0.128094
-0.128091
-0.128087
-0.128084
-0.128081
-0.128078
-0.128075
-0.128072
-0.12807
-0.128068
-0.128065
-0.128063
-0.128061
-0.12806
-0.128058
-0.128056
-0.128055
-0.128054
-0.128052
-0.128051
-0.12805
-0.128049
-0.128048
-0.128047
-0.128047
-0.128046
-0.128045
-0.128045
-0.128044
-0.128044
-0.128044
-0.128044
-0.128043
-0.128043
-0.128043
-0.128043
-0.128043
-0.128043
-0.128043
-0.128043
-0.128042
-0.128042
-0.128042
-0.128042
-0.128041
-0.12804
-0.128039
-0.128037
-0.128035
-0.128032
-0.128029
-0.128025
-0.128022
-0.128019
-0.13789
-0.137886
-0.137884
-0.137884
-0.137887
-0.137894
-0.137903
-0.137916
-0.13793
-0.137945
-0.137961
-0.137977
-0.137991
-0.138005
-0.138016
-0.138026
-0.138034
-0.138041
-0.138045
-0.138048
-0.13805
-0.13805
-0.138049
-0.138047
-0.138044
-0.138041
-0.138036
-0.138031
-0.138026
-0.13802
-0.138014
-0.138008
-0.138001
-0.137995
-0.137989
-0.137982
-0.137976
-0.13797
-0.137964
-0.137958
-0.137953
-0.137947
-0.137942
-0.137937
-0.137933
-0.137929
-0.137925
-0.137921
-0.137917
-0.137914
-0.137911
-0.137908
-0.137905
-0.137902
-0.1379
-0.137898
-0.137895
-0.137893
-0.137892
-0.13789
-0.137888
-0.137887
-0.137885
-0.137884
-0.137883
-0.137881
-0.13788
-0.137879
-0.137878
-0.137878
-0.137877
-0.137876
-0.137876
-0.137875
-0.137875
-0.137874
-0.137874
-0.137874
-0.137873
-0.137873
-0.137873
-0.137873
-0.137872
-0.137872
-0.137872
-0.137872
-0.137872
-0.137871
-0.137871
-0.13787
-0.13787
-0.137868
-0.137867
-0.137865
-0.137863
-0.13786
-0.137857
-0.137854
-0.137851
-0.137848
-0.147732
-0.147728
-0.147726
-0.147727
-0.14773
-0.147737
-0.147747
-0.14776
-0.147774
-0.147789
-0.147805
-0.14782
-0.147833
-0.147846
-0.147856
-0.147865
-0.147872
-0.147877
-0.147881
-0.147883
-0.147883
-0.147883
-0.147881
-0.147879
-0.147876
-0.147871
-0.147867
-0.147862
-0.147856
-0.14785
-0.147844
-0.147838
-0.147831
-0.147825
-0.147818
-0.147812
-0.147806
-0.1478
-0.147794
-0.147788
-0.147782
-0.147777
-0.147772
-0.147767
-0.147763
-0.147758
-0.147754
-0.14775
-0.147747
-0.147743
-0.14774
-0.147737
-0.147734
-0.147732
-0.147729
-0.147727
-0.147725
-0.147723
-0.147721
-0.147719
-0.147718
-0.147716
-0.147715
-0.147714
-0.147712
-0.147711
-0.14771
-0.147709
-0.147708
-0.147708
-0.147707
-0.147706
-0.147705
-0.147705
-0.147704
-0.147704
-0.147704
-0.147703
-0.147703
-0.147703
-0.147702
-0.147702
-0.147702
-0.147702
-0.147701
-0.147701
-0.147701
-0.1477
-0.1477
-0.147699
-0.147698
-0.147697
-0.147695
-0.147693
-0.147691
-0.147688
-0.147685
-0.147682
-0.14768
-0.147677
-0.157573
-0.157569
-0.157567
-0.157568
-0.157572
-0.157579
-0.15759
-0.157602
-0.157617
-0.157632
-0.157646
-0.15766
-0.157673
-0.157684
-0.157693
-0.157701
-0.157706
-0.15771
-0.157713
-0.157714
-0.157714
-0.157713
-0.157711
-0.157708
-0.157705
-0.1577
-0.157695
-0.15769
-0.157684
-0.157679
-0.157672
-0.157666
-0.15766
-0.157653
-0.157647
-0.157641
-0.157635
-0.157629
-0.157623
-0.157617
-0.157611
-0.157606
-0.157601
-0.157596
-0.157592
-0.157587
-0.157583
-0.157579
-0.157576
-0.157572
-0.157569
-0.157566
-0.157563
-0.157561
-0.157558
-0.157556
-0.157554
-0.157552
-0.15755
-0.157549
-0.157547
-0.157546
-0.157544
-0.157543
-0.157542
-0.157541
-0.15754
-0.157539
-0.157538
-0.157537
-0.157536
-0.157536
-0.157535
-0.157534
-0.157534
-0.157533
-0.157533
-0.157533
-0.157532
-0.157532
-0.157532
-0.157531
-0.157531
-0.157531
-0.15753
-0.15753
-0.157529
-0.157529
-0.157528
-0.157527
-0.157526
-0.157525
-0.157523
-0.157521
-0.157519
-0.157516
-0.157514
-0.157511
-0.157509
-0.157506
-0.167411
-0.167408
-0.167406
-0.167408
-0.167412
-0.16742
-0.16743
-0.167443
-0.167457
-0.167471
-0.167485
-0.167498
-0.167509
-0.167519
-0.167527
-0.167534
-0.167538
-0.167541
-0.167543
-0.167543
-0.167543
-0.167541
-0.167539
-0.167535
-0.167531
-0.167527
-0.167522
-0.167517
-0.167511
-0.167505
-0.167499
-0.167493
-0.167487
-0.167481
-0.167475
-0.167468
-0.167462
-0.167456
-0.167451
-0.167445
-0.167439
-0.167434
-0.167429
-0.167424
-0.16742
-0.167416
-0.167412
-0.167408
-0.167404
-0.167401
-0.167398
-0.167395
-0.167392
-0.167389
-0.167387
-0.167385
-0.167383
-0.167381
-0.167379
-0.167377
-0.167376
-0.167374
-0.167373
-0.167372
-0.167371
-0.16737
-0.167369
-0.167368
-0.167367
-0.167366
-0.167365
-0.167365
-0.167364
-0.167364
-0.167363
-0.167363
-0.167362
-0.167362
-0.167361
-0.167361
-0.167361
-0.16736
-0.16736
-0.16736
-0.167359
-0.167359
-0.167358
-0.167358
-0.167357
-0.167356
-0.167355
-0.167353
-0.167352
-0.16735
-0.167347
-0.167345
-0.167342
-0.16734
-0.167337
-0.167335
-0.177249
-0.177245
-0.177244
-0.177246
-0.17725
-0.177258
-0.177269
-0.177281
-0.177295
-0.177308
-0.177321
-0.177333
-0.177343
-0.177352
-0.177359
-0.177364
-0.177367
-0.177369
-0.17737
-0.17737
-0.177369
-0.177367
-0.177364
-0.177361
-0.177357
-0.177352
-0.177347
-0.177342
-0.177337
-0.177331
-0.177325
-0.177319
-0.177313
-0.177307
-0.177301
-0.177295
-0.177289
-0.177283
-0.177278
-0.177272
-0.177267
-0.177262
-0.177257
-0.177252
-0.177248
-0.177243
-0.177239
-0.177236
-0.177232
-0.177229
-0.177226
-0.177223
-0.17722
-0.177218
-0.177215
-0.177213
-0.177211
-0.177209
-0.177208
-0.177206
-0.177204
-0.177203
-0.177202
-0.177201
-0.177199
-0.177198
-0.177197
-0.177196
-0.177196
-0.177195
-0.177194
-0.177194
-0.177193
-0.177192
-0.177192
-0.177191
-0.177191
-0.177191
-0.17719
-0.17719
-0.17719
-0.177189
-0.177189
-0.177188
-0.177188
-0.177188
-0.177187
-0.177186
-0.177185
-0.177184
-0.177183
-0.177182
-0.17718
-0.177178
-0.177176
-0.177173
-0.177171
-0.177168
-0.177166
-0.177164
-0.187084
-0.187081
-0.18708
-0.187082
-0.187087
-0.187095
-0.187105
-0.187117
-0.18713
-0.187143
-0.187155
-0.187165
-0.187174
-0.187182
-0.187187
-0.187191
-0.187194
-0.187195
-0.187195
-0.187194
-0.187193
-0.18719
-0.187187
-0.187184
-0.18718
-0.187176
-0.187171
-0.187166
-0.187161
-0.187155
-0.18715
-0.187144
-0.187138
-0.187132
-0.187126
-0.187121
-0.187115
-0.187109
-0.187104
-0.187099
-0.187093
-0.187089
-0.187084
-0.187079
-0.187075
-0.187071
-0.187067
-0.187063
-0.18706
-0.187056
-0.187053
-0.187051
-0.187048
-0.187045
-0.187043
-0.187041
-0.187039
-0.187037
-0.187036
-0.187034
-0.187033
-0.187031
-0.18703
-0.187029
-0.187028
-0.187027
-0.187026
-0.187025
-0.187024
-0.187023
-0.187023
-0.187022
-0.187021
-0.187021
-0.18702
-0.18702
-0.18702
-0.187019
-0.187019
-0.187018
-0.187018
-0.187018
-0.187017
-0.187017
-0.187017
-0.187016
-0.187015
-0.187015
-0.187014
-0.187013
-0.187012
-0.18701
-0.187008
-0.187006
-0.187004
-0.187002
-0.186999
-0.186997
-0.186995
-0.186993
-0.196918
-0.196915
-0.196914
-0.196917
-0.196922
-0.19693
-0.19694
-0.196951
-0.196963
-0.196975
-0.196986
-0.196995
-0.197003
-0.197009
-0.197013
-0.197016
-0.197018
-0.197018
-0.197018
-0.197017
-0.197015
-0.197012
-0.197009
-0.197006
-0.197002
-0.196998
-0.196993
-0.196988
-0.196983
-0.196978
-0.196973
-0.196968
-0.196962
-0.196957
-0.196951
-0.196946
-0.19694
-0.196935
-0.19693
-0.196924
-0.19692
-0.196915
-0.19691
-0.196906
-0.196902
-0.196898
-0.196894
-0.19689
-0.196887
-0.196884
-0.196881
-0.196878
-0.196875
-0.196873
-0.196871
-0.196869
-0.196867
-0.196865
-0.196863
-0.196862
-0.19686
-0.196859
-0.196858
-0.196857
-0.196856
-0.196855
-0.196854
-0.196853
-0.196852
-0.196851
-0.196851
-0.19685
-0.19685
-0.196849
-0.196849
-0.196848
-0.196848
-0.196847
-0.196847
-0.196847
-0.196846
-0.196846
-0.196846
-0.196845
-0.196845
-0.196844
-0.196844
-0.196843
-0.196842
-0.196841
-0.19684
-0.196838
-0.196837
-0.196835
-0.196832
-0.19683
-0.196827
-0.196825
-0.196823
-0.196821
-0.20675
-0.206748
-0.206747
-0.206749
-0.206754
-0.206762
-0.206772
-0.206783
-0.206794
-0.206805
-0.206814
-0.206822
-0.206829
-0.206834
-0.206837
-0.206839
-0.20684
-0.20684
-0.206839
-0.206838
-0.206835
-0.206833
-0.20683
-0.206827
-0.206823
-0.206819
-0.206815
-0.20681
-0.206805
-0.2068
-0.206796
-0.20679
-0.206785
-0.20678
-0.206775
-0.20677
-0.206765
-0.20676
-0.206755
-0.20675
-0.206745
-0.20674
-0.206736
-0.206732
-0.206728
-0.206724
-0.20672
-0.206717
-0.206714
-0.20671
-0.206708
-0.206705
-0.206702
-0.2067
-0.206698
-0.206696
-0.206694
-0.206692
-0.206691
-0.206689
-0.206688
-0.206686
-0.206685
-0.206684
-0.206683
-0.206682
-0.206681
-0.206681
-0.20668
-0.206679
-0.206678
-0.206678
-0.206677
-0.206677
-0.206676
-0.206676
-0.206676
-0.206675
-0.206675
-0.206675
-0.206674
-0.206674
-0.206674
-0.206673
-0.206673
-0.206673
-0.206672
-0.206671
-0.20667
-0.206669
-0.206668
-0.206667
-0.206665
-0.206663
-0.20666
-0.206658
-0.206656
-0.206653
-0.206651
-0.20665
-0.216581
-0.216578
-0.216578
-0.21658
-0.216585
-0.216593
-0.216602
-0.216612
-0.216622
-0.216632
-0.21664
-0.216647
-0.216652
-0.216656
-0.216659
-0.21666
-0.216661
-0.21666
-0.216659
-0.216657
-0.216655
-0.216652
-0.21665
-0.216646
-0.216643
-0.216639
-0.216635
-0.216631
-0.216627
-0.216622
-0.216617
-0.216613
-0.216608
-0.216603
-0.216598
-0.216593
-0.216588
-0.216584
-0.216579
-0.216574
-0.21657
-0.216566
-0.216561
-0.216557
-0.216554
-0.21655
-0.216546
-0.216543
-0.21654
-0.216537
-0.216534
-0.216532
-0.216529
-0.216527
-0.216525
-0.216523
-0.216521
-0.216519
-0.216518
-0.216516
-0.216515
-0.216514
-0.216513
-0.216511
-0.21651
-0.21651
-0.216509
-0.216508
-0.216507
-0.216507
-0.216506
-0.216505
-0.216505
-0.216504
-0.216504
-0.216504
-0.216503
-0.216503
-0.216503
-0.216502
-0.216502
-0.216502
-0.216502
-0.216501
-0.216501
-0.2165
-0.2165
-0.216499
-0.216498
-0.216497
-0.216496
-0.216495
-0.216493
-0.216491
-0.216488
-0.216486
-0.216484
-0.216481
-0.21648
-0.216478
-0.226409
-0.226407
-0.226407
-0.22641
-0.226414
-0.226422
-0.22643
-0.22644
-0.226449
-0.226457
-0.226464
-0.22647
-0.226474
-0.226477
-0.226479
-0.22648
-0.22648
-0.226479
-0.226477
-0.226476
-0.226473
-0.226471
-0.226468
-0.226465
-0.226462
-0.226459
-0.226455
-0.226451
-0.226447
-0.226443
-0.226439
-0.226434
-0.22643
-0.226425
-0.226421
-0.226416
-0.226412
-0.226407
-0.226403
-0.226399
-0.226395
-0.22639
-0.226386
-0.226383
-0.226379
-0.226375
-0.226372
-0.226369
-0.226366
-0.226363
-0.22636
-0.226358
-0.226356
-0.226353
-0.226351
-0.226349
-0.226348
-0.226346
-0.226345
-0.226343
-0.226342
-0.226341
-0.226339
-0.226338
-0.226337
-0.226337
-0.226336
-0.226335
-0.226334
-0.226334
-0.226333
-0.226332
-0.226332
-0.226332
-0.226331
-0.226331
-0.22633
-0.22633
-0.22633
-0.22633
-0.226329
-0.226329
-0.226329
-0.226329
-0.226328
-0.226328
-0.226328
-0.226327
-0.226326
-0.226325
-0.226324
-0.226322
-0.22632
-0.226318
-0.226316
-0.226314
-0.226311
-0.226309
-0.226307
-0.226306
-0.236237
-0.236235
-0.236235
-0.236237
-0.236242
-0.236249
-0.236256
-0.236265
-0.236273
-0.23628
-0.236286
-0.236291
-0.236294
-0.236297
-0.236298
-0.236298
-0.236297
-0.236296
-0.236295
-0.236293
-0.236291
-0.236289
-0.236287
-0.236284
-0.236281
-0.236278
-0.236274
-0.236271
-0.236267
-0.236263
-0.236259
-0.236255
-0.236251
-0.236247
-0.236243
-0.236239
-0.236235
-0.236231
-0.236227
-0.236223
-0.236219
-0.236215
-0.236211
-0.236207
-0.236204
-0.236201
-0.236198
-0.236195
-0.236192
-0.236189
-0.236186
-0.236184
-0.236182
-0.23618
-0.236178
-0.236176
-0.236174
-0.236173
-0.236171
-0.23617
-0.236168
-0.236167
-0.236166
-0.236165
-0.236164
-0.236163
-0.236162
-0.236162
-0.236161
-0.23616
-0.23616
-0.236159
-0.236159
-0.236158
-0.236158
-0.236158
-0.236157
-0.236157
-0.236157
-0.236157
-0.236157
-0.236156
-0.236156
-0.236156
-0.236156
-0.236155
-0.236155
-0.236154
-0.236154
-0.236153
-0.236151
-0.23615
-0.236148
-0.236146
-0.236143
-0.236141
-0.236139
-0.236137
-0.236135
-0.236134
-0.246062
-0.24606
-0.246061
-0.246063
-0.246067
-0.246074
-0.246081
-0.246088
-0.246095
-0.246102
-0.246107
-0.246111
-0.246113
-0.246115
-0.246115
-0.246115
-0.246114
-0.246113
-0.246112
-0.246111
-0.246109
-0.246107
-0.246104
-0.246102
-0.246099
-0.246097
-0.246093
-0.24609
-0.246087
-0.246083
-0.24608
-0.246076
-0.246073
-0.246069
-0.246065
-0.246061
-0.246057
-0.246054
-0.24605
-0.246046
-0.246042
-0.246039
-0.246035
-0.246032
-0.246029
-0.246026
-0.246023
-0.24602
-0.246017
-0.246014
-0.246012
-0.24601
-0.246008
-0.246006
-0.246004
-0.246002
-0.246
-0.245999
-0.245997
-0.245996
-0.245995
-0.245993
-0.245992
-0.245991
-0.24599
-0.24599
-0.245989
-0.245988
-0.245987
-0.245987
-0.245986
-0.245986
-0.245985
-0.245985
-0.245984
-0.245984
-0.245984
-0.245984
-0.245983
-0.245983
-0.245983
-0.245983
-0.245983
-0.245983
-0.245983
-0.245982
-0.245982
-0.245981
-0.245981
-0.24598
-0.245978
-0.245977
-0.245975
-0.245973
-0.24597
-0.245968
-0.245966
-0.245964
-0.245962
-0.245961
-0.255886
-0.255885
-0.255885
-0.255887
-0.255892
-0.255897
-0.255904
-0.25591
-0.255916
-0.255922
-0.255926
-0.255929
-0.255931
-0.255931
-0.255932
-0.255932
-0.255931
-0.25593
-0.255929
-0.255927
-0.255926
-0.255924
-0.255922
-0.25592
-0.255918
-0.255915
-0.255912
-0.255909
-0.255906
-0.255903
-0.2559
-0.255897
-0.255893
-0.25589
-0.255887
-0.255883
-0.25588
-0.255876
-0.255873
-0.255869
-0.255866
-0.255862
-0.255859
-0.255856
-0.255853
-0.25585
-0.255847
-0.255845
-0.255842
-0.25584
-0.255837
-0.255835
-0.255833
-0.255831
-0.255829
-0.255828
-0.255826
-0.255825
-0.255823
-0.255822
-0.255821
-0.255819
-0.255818
-0.255817
-0.255816
-0.255816
-0.255815
-0.255814
-0.255813
-0.255813
-0.255812
-0.255812
-0.255811
-0.255811
-0.25581
-0.25581
-0.25581
-0.25581
-0.25581
-0.255809
-0.255809
-0.255809
-0.255809
-0.255809
-0.255809
-0.255809
-0.255808
-0.255808
-0.255807
-0.255806
-0.255805
-0.255803
-0.255802
-0.255799
-0.255797
-0.255795
-0.255793
-0.255791
-0.255789
-0.255788
-0.265709
-0.265708
-0.265708
-0.265711
-0.265714
-0.265719
-0.265725
-0.265731
-0.265736
-0.265741
-0.265744
-0.265746
-0.265747
-0.265748
-0.265748
-0.265748
-0.265747
-0.265746
-0.265745
-0.265744
-0.265743
-0.265741
-0.265739
-0.265738
-0.265735
-0.265733
-0.265731
-0.265728
-0.265726
-0.265723
-0.26572
-0.265717
-0.265714
-0.265711
-0.265708
-0.265705
-0.265701
-0.265698
-0.265695
-0.265692
-0.265689
-0.265686
-0.265683
-0.26568
-0.265677
-0.265674
-0.265672
-0.265669
-0.265667
-0.265665
-0.265662
-0.26566
-0.265658
-0.265656
-0.265655
-0.265653
-0.265652
-0.26565
-0.265649
-0.265647
-0.265646
-0.265645
-0.265644
-0.265643
-0.265642
-0.265641
-0.26564
-0.26564
-0.265639
-0.265638
-0.265638
-0.265637
-0.265637
-0.265636
-0.265636
-0.265636
-0.265636
-0.265635
-0.265635
-0.265635
-0.265635
-0.265635
-0.265635
-0.265635
-0.265635
-0.265635
-0.265635
-0.265634
-0.265633
-0.265632
-0.265631
-0.26563
-0.265628
-0.265626
-0.265623
-0.265621
-0.265619
-0.265617
-0.265615
-0.265614
-0.275531
-0.27553
-0.27553
-0.275532
-0.275536
-0.27554
-0.275545
-0.27555
-0.275555
-0.275558
-0.275561
-0.275562
-0.275563
-0.275564
-0.275564
-0.275563
-0.275563
-0.275562
-0.275561
-0.275561
-0.275559
-0.275558
-0.275557
-0.275555
-0.275553
-0.275551
-0.275549
-0.275547
-0.275545
-0.275542
-0.27554
-0.275537