/*--------------------------------*- C++ -*----------------------------------*\
  =========                 |
  \\      /  F ield         | OpenFOAM: The Open Source CFD Toolbox
   \\    /   O peration     | Website:  https://openfoam.org
    \\  /    A nd           | Version:  6
     \\/     M anipulation  |
\*---------------------------------------------------------------------------*/
FoamFile
{
    version     2.0;
    format      ascii;
    class       volScalarField;
    location    "0";
    object      T;
}
// * * * * * * * * * * * * * * * * * * * * * * * * * * * * * * * * * * * * * //

dimensions      [0 0 0 1 0 0 0];

internalField   nonuniform List<scalar> 
10000
(
298.52
298.56
298.598
298.634
298.669
298.701
298.731
298.758
298.784
298.808
298.83
298.851
298.87
298.888
298.905
298.921
298.935
298.949
298.962
298.974
298.985
298.996
299.006
299.015
299.024
299.033
299.041
299.049
299.056
299.063
299.069
299.075
299.08
299.086
299.09
299.095
299.099
299.103
299.107
299.11
299.114
299.117
299.12
299.122
299.125
299.128
299.131
299.133
299.136
299.139
299.141
299.144
299.147
299.149
299.152
299.155
299.157
299.16
299.163
299.166
299.168
299.171
299.174
299.177
299.179
299.182
299.185
299.188
299.19
299.193
299.196
299.199
299.202
299.205
299.209
299.212
299.216
299.221
299.225
299.231
299.237
299.244
299.252
299.262
299.273
299.287
299.305
299.327
299.355
299.39
299.436
299.495
299.571
299.67
299.796
299.957
300.158
300.4
300.681
300.99
298.521
298.561
298.6
298.637
298.672
298.705
298.735
298.763
298.79
298.814
298.836
298.857
298.876
298.894
298.91
298.926
298.94
298.953
298.966
298.978
298.989
298.999
299.009
299.018
299.027
299.036
299.043
299.051
299.058
299.065
299.071
299.077
299.082
299.087
299.092
299.096
299.101
299.104
299.108
299.111
299.115
299.118
299.121
299.123
299.126
299.129
299.131
299.134
299.137
299.139
299.142
299.144
299.147
299.15
299.152
299.155
299.158
299.16
299.163
299.166
299.169
299.171
299.174
299.177
299.18
299.182
299.185
299.188
299.191
299.193
299.196
299.199
299.202
299.205
299.209
299.212
299.216
299.22
299.225
299.23
299.236
299.243
299.251
299.26
299.271
299.285
299.302
299.323
299.35
299.384
299.427
299.484
299.558
299.654
299.778
299.938
300.139
300.384
300.67
300.986
298.522
298.564
298.605
298.645
298.681
298.716
298.747
298.777
298.804
298.829
298.852
298.873
298.892
298.91
298.926
298.941
298.955
298.967
298.979
298.99
299
299.01
299.019
299.028
299.036
299.044
299.051
299.058
299.064
299.071
299.076
299.082
299.087
299.092
299.096
299.1
299.104
299.108
299.111
299.114
299.117
299.12
299.123
299.126
299.128
299.131
299.133
299.136
299.138
299.141
299.143
299.146
299.148
299.151
299.153
299.156
299.158
299.161
299.164
299.167
299.169
299.172
299.175
299.177
299.18
299.183
299.185
299.188
299.191
299.194
299.196
299.199
299.202
299.206
299.209
299.212
299.216
299.22
299.225
299.23
299.235
299.242
299.249
299.258
299.269
299.282
299.298
299.318
299.343
299.375
299.417
299.471
299.542
299.635
299.758
299.917
300.119
300.368
300.66
300.982
298.523
298.569
298.614
298.656
298.696
298.733
298.768
298.8
298.829
298.856
298.88
298.902
298.921
298.939
298.955
298.969
298.982
298.993
299.004
299.013
299.022
299.031
299.038
299.046
299.053
299.059
299.065
299.071
299.077
299.082
299.087
299.092
299.096
299.1
299.104
299.108
299.111
299.114
299.117
299.12
299.123
299.125
299.127
299.13
299.132
299.134
299.136
299.139
299.141
299.143
299.145
299.148
299.15
299.152
299.155
299.157
299.16
299.162
299.165
299.168
299.17
299.173
299.175
299.178
299.181
299.183
299.186
299.189
299.191
299.194
299.197
299.2
299.203
299.206
299.209
299.213
299.216
299.22
299.225
299.229
299.235
299.241
299.248
299.257
299.267
299.279
299.294
299.313
299.336
299.367
299.407
299.459
299.529
299.621
299.743
299.902
300.106
300.358
300.654
300.981
298.526
298.576
298.625
298.672
298.716
298.757
298.796
298.831
298.863
298.892
298.918
298.941
298.962
298.98
298.996
299.009
299.021
299.032
299.04
299.048
299.055
299.062
299.068
299.073
299.079
299.083
299.088
299.092
299.096
299.1
299.104
299.107
299.11
299.113
299.116
299.119
299.121
299.124
299.126
299.128
299.13
299.132
299.134
299.136
299.138
299.139
299.141
299.143
299.145
299.147
299.149
299.151
299.153
299.155
299.157
299.159
299.162
299.164
299.167
299.169
299.172
299.174
299.177
299.179
299.182
299.184
299.187
299.19
299.192
299.195
299.198
299.201
299.204
299.207
299.21
299.213
299.217
299.221
299.225
299.229
299.235
299.24
299.247
299.255
299.265
299.276
299.291
299.309
299.332
299.361
299.4
299.452
299.52
299.612
299.734
299.895
300.101
300.355
300.653
300.981
298.528
298.584
298.638
298.69
298.74
298.786
298.829
298.868
298.904
298.936
298.964
298.989
299.011
299.03
299.046
299.059
299.071
299.08
299.088
299.094
299.099
299.103
299.107
299.11
299.113
299.116
299.118
299.12
299.122
299.124
299.126
299.128
299.13
299.131
299.133
299.134
299.135
299.137
299.138
299.139
299.141
299.142
299.143
299.144
299.145
299.146
299.148
299.149
299.15
299.152
299.153
299.155
299.157
299.159
299.161
299.163
299.165
299.167
299.169
299.171
299.174
299.176
299.179
299.181
299.184
299.186
299.189
299.191
299.194
299.197
299.199
299.202
299.205
299.208
299.211
299.214
299.218
299.222
299.226
299.23
299.235
299.241
299.247
299.255
299.264
299.275
299.289
299.306
299.329
299.358
299.396
299.448
299.516
299.608
299.732
299.894
300.101
300.357
300.655
300.982
298.531
298.593
298.653
298.711
298.766
298.818
298.865
298.909
298.949
298.984
299.015
299.042
299.066
299.086
299.102
299.116
299.127
299.136
299.142
299.147
299.15
299.152
299.154
299.155
299.155
299.156
299.156
299.156
299.155
299.155
299.155
299.154
299.154
299.154
299.154
299.154
299.154
299.154
299.154
299.154
299.154
299.154
299.154
299.155
299.155
299.156
299.156
299.157
299.158
299.159
299.16
299.161
299.162
299.164
299.165
299.167
299.169
299.17
299.172
299.175
299.177
299.179
299.181
299.183
299.186
299.188
299.191
299.193
299.196
299.198
299.201
299.204
299.207
299.21
299.213
299.216
299.219
299.223
299.227
299.231
299.236
299.242
299.248
299.255
299.264
299.275
299.289
299.306
299.328
299.357
299.395
299.447
299.516
299.61
299.734
299.898
300.107
300.363
300.66
300.984
298.534
298.602
298.669
298.733
298.794
298.851
298.903
298.952
298.995
299.034
299.068
299.098
299.124
299.145
299.162
299.176
299.187
299.196
299.201
299.205
299.207
299.207
299.207
299.205
299.204
299.201
299.199
299.196
299.194
299.191
299.188
299.186
299.184
299.181
299.179
299.177
299.176
299.174
299.173
299.171
299.17
299.169
299.169
299.168
299.167
299.167
299.167
299.167
299.167
299.167
299.168
299.168
299.169
299.17
299.171
299.172
299.174
299.175
299.177
299.179
299.18
299.182
299.185
299.187
299.189
299.191
299.194
299.196
299.198
299.201
299.204
299.206
299.209
299.212
299.215
299.218
299.222
299.225
299.229
299.233
299.238
299.243
299.25
299.257
299.265
299.276
299.289
299.306
299.329
299.358
299.397
299.449
299.519
299.614
299.74
299.906
300.115
300.371
300.666
300.986
298.537
298.612
298.685
298.755
298.821
298.884
298.942
298.995
299.042
299.085
299.122
299.154
299.182
299.205
299.223
299.238
299.249
299.257
299.263
299.265
299.266
299.265
299.263
299.259
299.255
299.251
299.246
299.241
299.236
299.231
299.226
299.221
299.217
299.212
299.208
299.205
299.201
299.198
299.195
299.192
299.189
299.187
299.185
299.183
299.182
299.18
299.179
299.178
299.178
299.177
299.177
299.177
299.177
299.178
299.178
299.179
299.18
299.181
299.182
299.184
299.185
299.187
299.189
299.191
299.193
299.195
299.197
299.199
299.202
299.204
299.207
299.21
299.212
299.215
299.218
299.221
299.225
299.228
299.232
299.236
299.241
299.246
299.252
299.259
299.268
299.278
299.291
299.308
299.331
299.36
299.4
299.453
299.525
299.621
299.749
299.916
300.126
300.381
300.674
300.989
298.541
298.621
298.7
298.777
298.849
298.917
298.98
299.037
299.089
299.135
299.175
299.21
299.239
299.263
299.283
299.298
299.31
299.318
299.323
299.325
299.325
299.323
299.319
299.314
299.309
299.302
299.295
299.288
299.281
299.274
299.266
299.259
299.253
299.246
299.24
299.234
299.229
299.224
299.219
299.215
299.211
299.207
299.204
299.201
299.198
299.196
299.194
299.192
299.19
299.189
299.188
299.187
299.187
299.187
299.187
299.187
299.187
299.188
299.189
299.19
299.191
299.193
299.194
299.196
299.198
299.2
299.202
299.204
299.206
299.208
299.211
299.214
299.216
299.219
299.222
299.225
299.228
299.232
299.236
299.24
299.244
299.249
299.255
299.262
299.271
299.281
299.294
299.312
299.334
299.364
299.405
299.459
299.532
299.63
299.76
299.928
300.139
300.392
300.682
300.992
298.544
298.631
298.716
298.798
298.876
298.95
299.017
299.079
299.134
299.183
299.226
299.263
299.294
299.32
299.341
299.357
299.369
299.377
299.382
299.384
299.383
299.38
299.375
299.369
299.362
299.353
299.345
299.336
299.326
299.317
299.308
299.299
299.29
299.282
299.274
299.266
299.259
299.252
299.246
299.24
299.234
299.229
299.224
299.22
299.216
299.213
299.21
299.207
299.204
299.202
299.2
299.199
299.198
299.197
299.196
299.196
299.196
299.196
299.197
299.197
299.198
299.199
299.2
299.202
299.203
299.205
299.207
299.209
299.211
299.213
299.216
299.218
299.221
299.224
299.227
299.23
299.233
299.236
299.24
299.244
299.249
299.254
299.259
299.266
299.275
299.285
299.299
299.316
299.339
299.369
299.411
299.466
299.541
299.641
299.772
299.941
300.152
300.404
300.69
300.995
298.547
298.64
298.731
298.819
298.903
298.981
299.053
299.119
299.178
299.23
299.276
299.315
299.347
299.374
299.396
299.412
299.424
299.433
299.437
299.439
299.438
299.434
299.428
299.421
299.412
299.403
299.393
299.382
299.371
299.36
299.349
299.338
299.328
299.317
299.308
299.298
299.289
299.281
299.273
299.266
299.259
299.252
299.246
299.241
299.236
299.231
299.227
299.223
299.22
299.217
299.214
299.212
299.21
299.208
299.207
299.206
299.206
299.205
299.205
299.206
299.206
299.207
299.208
299.209
299.21
299.212
299.213
299.215
299.217
299.219
299.221
299.224
299.226
299.229
299.232
299.235
299.238
299.242
299.245
299.249
299.254
299.259
299.264
299.271
299.28
299.29
299.303
299.321
299.344
299.375
299.417
299.474
299.55
299.652
299.784
299.954
300.165
300.416
300.698
300.998
298.55
298.649
298.746
298.84
298.928
299.012
299.088
299.158
299.22
299.276
299.323
299.364
299.398
299.426
299.448
299.464
299.477
299.485
299.489
299.49
299.488
299.484
299.478
299.47
299.46
299.449
299.438
299.426
299.414
299.401
299.389
299.377
299.365
299.353
299.341
299.331
299.32
299.31
299.301
299.292
299.284
299.276
299.269
299.262
299.256
299.25
299.245
299.24
299.236
299.232
299.229
299.226
299.223
299.221
299.219
299.218
299.216
299.216
299.215
299.215
299.215
299.215
299.216
299.217
299.218
299.219
299.221
299.222
299.224
299.226
299.228
299.23
299.233
299.235
299.238
299.241
299.244
299.248
299.251
299.255
299.26
299.264
299.27
299.277
299.285
299.296
299.309
299.327
299.35
299.382
299.425
299.483
299.56
299.663
299.797
299.968
300.179
300.427
300.705
301
298.553
298.658
298.76
298.859
298.953
299.041
299.122
299.196
299.261
299.319
299.368
299.411
299.446
299.474
299.496
299.513
299.525
299.532
299.536
299.537
299.535
299.53
299.523
299.514
299.504
299.492
299.48
299.467
299.454
299.44
299.426
299.413
299.4
299.387
299.374
299.362
299.35
299.339
299.329
299.318
299.309
299.3
299.292
299.284
299.277
299.27
299.264
299.258
299.253
299.248
299.244
299.241
299.237
299.234
299.232
299.23
299.228
299.227
299.226
299.225
299.225
299.225
299.225
299.226
299.226
299.227
299.229
299.23
299.232
299.234
299.236
299.238
299.24
299.243
299.245
299.248
299.251
299.254
299.258
299.262
299.266
299.271
299.277
299.283
299.292
299.302
299.315
299.333
299.357
299.389
299.433
299.492
299.571
299.675
299.81
299.982
300.192
300.438
300.713
301.003
298.556
298.666
298.774
298.879
298.978
299.07
299.155
299.232
299.3
299.36
299.411
299.455
299.49
299.519
299.541
299.557
299.569
299.576
299.579
299.579
299.576
299.571
299.563
299.554
299.543
299.53
299.517
299.504
299.49
299.475
299.461
299.446
299.432
299.418
299.405
299.392
299.379
299.367
299.355
299.344
299.334
299.324
299.314
299.306
299.298
299.29
299.283
299.277
299.271
299.265
299.26
299.256
299.252
299.248
299.245
299.243
299.241
299.239
299.237
299.236
299.236
299.235
299.235
299.235
299.236
299.237
299.238
299.239
299.24
299.242
299.244
299.246
299.248
299.251
299.253
299.256
299.259
299.262
299.266
299.269
299.274
299.278
299.284
299.29
299.299
299.309
299.322
299.34
299.365
299.397
299.442
299.502
299.582
299.687
299.824
299.995
300.205
300.449
300.72
301.006
298.558
298.674
298.788
298.897
299.001
299.098
299.187
299.267
299.338
299.399
299.452
299.496
299.532
299.56
299.582
299.598
299.609
299.615
299.617
299.616
299.613
299.607
299.598
299.588
299.577
299.564
299.55
299.536
299.522
299.507
299.492
299.477
299.462
299.447
299.433
299.419
299.406
299.393
299.38
299.368
299.357
299.347
299.336
299.327
299.318
299.31
299.302
299.295
299.288
299.282
299.277
299.271
299.267
299.263
299.259
299.256
299.254
299.251
299.25
299.248
299.247
299.246
299.246
299.246
299.246
299.247
299.247
299.248
299.25
299.251
299.253
299.255
299.257
299.259
299.262
299.265
299.267
299.271
299.274
299.278
299.282
299.286
299.292
299.298
299.306
299.317
299.33
299.348
299.373
299.406
299.451
299.512
299.593
299.699
299.837
300.009
300.217
300.459
300.727
301.008
298.561
298.682
298.801
298.915
299.024
299.125
299.217
299.3
299.373
299.437
299.49
299.535
299.571
299.599
299.62
299.635
299.644
299.649
299.651
299.649
299.644
299.637
299.628
299.618
299.606
299.593
299.579
299.564
299.549
299.534
299.519
299.503
299.488
299.473
299.458
299.444
299.43
299.417
299.404
299.391
299.379
299.368
299.357
299.347
299.338
299.329
299.32
299.313
299.305
299.299
299.293
299.287
299.282
299.278
299.274
299.27
299.267
299.264
299.262
299.26
299.259
299.258
299.257
299.257
299.257
299.257
299.258
299.259
299.26
299.261
299.263
299.265
299.267
299.269
299.271
299.274
299.277
299.28
299.283
299.287
299.291
299.295
299.3
299.307
299.315
299.325
299.339
299.357
299.381
299.415
299.461
299.522
299.604
299.712
299.85
300.022
300.229
300.469
300.733
301.01
298.564
298.69
298.814
298.933
299.045
299.15
299.246
299.332
299.407
299.472
299.526
299.571
299.606
299.634
299.654
299.667
299.676
299.68
299.68
299.677
299.671
299.663
299.654
299.643
299.63
299.617
299.603
299.588
299.573
299.557
299.542
299.526
299.511
299.496
299.481
299.466
299.452
299.438
299.425
299.412
299.4
299.388
299.377
299.366
299.356
299.347
299.338
299.33
299.322
299.315
299.309
299.303
299.297
299.292
299.288
299.284
299.281
299.278
299.275
299.273
299.272
299.27
299.269
299.269
299.269
299.269
299.269
299.27
299.271
299.272
299.274
299.275
299.277
299.279
299.282
299.284
299.287
299.29
299.293
299.296
299.3
299.305
299.31
299.316
299.324
299.334
299.347
299.366
299.391
299.425
299.471
299.533
299.616
299.724
299.862
300.034
300.241
300.479
300.74
301.012
298.566
298.697
298.826
298.949
299.066
299.175
299.274
299.362
299.439
299.505
299.56
299.604
299.639
299.665
299.684
299.696
299.703
299.705
299.704
299.7
299.693
299.685
299.674
299.663
299.65
299.636
299.622
299.607
299.592
299.577
299.561
299.546
299.531
299.515
299.5
299.486
299.471
299.458
299.444
299.431
299.419
299.407
299.395
299.384
299.374
299.364
299.355
299.347
299.339
299.331
299.324
299.318
299.312
299.307
299.303
299.298
299.295
299.291
299.289
299.286
299.284
299.283
299.282
299.281
299.281
299.281
299.281
299.282
299.283
299.284
299.285
299.287
299.288
299.29
299.293
299.295
299.298
299.3
299.303
299.307
299.31
299.315
299.32
299.326
299.333
299.344
299.357
299.375
299.4
299.435
299.481
299.544
299.627
299.736
299.875
300.047
300.253
300.488
300.746
301.014
298.568
298.704
298.837
298.965
299.086
299.199
299.301
299.391
299.47
299.536
299.591
299.635
299.668
299.693
299.71
299.721
299.726
299.727
299.725
299.719
299.712
299.702
299.691
299.679
299.666
299.652
299.638
299.623
299.608
299.593
299.577
299.562
299.547
299.532
299.517
299.503
299.488
299.474
299.461
299.448
299.435
299.423
299.412
299.401
299.39
299.381
299.371
299.363
299.354
299.347
299.34
299.333
299.327
299.322
299.317
299.312
299.309
299.305
299.302
299.3
299.298
299.296
299.295
299.294
299.293
299.293
299.293
299.294
299.295
299.296
299.297
299.299
299.3
299.302
299.304
299.307
299.309
299.312
299.315
299.318
299.321
299.325
299.33
299.336
299.344
299.354
299.367
299.386
299.411
299.445
299.492
299.555
299.639
299.749
299.888
300.059
300.264
300.497
300.751
301.016
298.571
298.711
298.848
298.981
299.106
299.221
299.326
299.418
299.498
299.565
299.619
299.663
299.695
299.718
299.734
299.743
299.746
299.746
299.741
299.735
299.726
299.716
299.704
299.692
299.678
299.664
299.65
299.635
299.62
299.605
299.59
299.575
299.561
299.546
299.531
299.517
299.503
299.489
299.476
299.463
299.451
299.439
299.427
299.416
299.406
299.396
299.386
299.378
299.369
299.362
299.354
299.348
299.342
299.336
299.331
299.327
299.323
299.319
299.316
299.313
299.311
299.309
299.308
299.307
299.307
299.306
299.306
299.307
299.308
299.309
299.31
299.311
299.313
299.315
299.317
299.319
299.321
299.324
299.326
299.329
299.333
299.336
299.341
299.347
299.354
299.364
299.378
299.396
299.422
299.456
299.504
299.567
299.652
299.761
299.9
300.072
300.275
300.506
300.757
301.018
298.573
298.717
298.859
298.995
299.124
299.243
299.35
299.444
299.524
299.592
299.646
299.688
299.719
299.741
299.754
299.761
299.763
299.761
299.755
299.747
299.738
299.726
299.714
299.701
299.688
299.674
299.659
299.645
299.63
299.616
299.601
299.586
299.572
299.557
299.543
299.529
299.515
299.502
299.489
299.476
299.464
299.452
299.441
299.43
299.42
299.41
299.401
299.392
299.384
299.376
299.369
299.362
299.356
299.35
299.345
299.341
299.337
299.333
299.33
299.327
299.325
299.323
299.322
299.321
299.32
299.32
299.32
299.32
299.321
299.322
299.323
299.324
299.326
299.328
299.329
299.331
299.334
299.336
299.339
299.341
299.345
299.348
299.353
299.358
299.366
299.376
299.389
299.407
299.433
299.468
299.515
299.579
299.664
299.774
299.913
300.084
300.286
300.515
300.763
301.02
298.575
298.723
298.869
299.009
299.141
299.263
299.372
299.468
299.549
299.616
299.67
299.711
299.74
299.76
299.772
299.777
299.777
299.773
299.766
299.757
299.747
299.735
299.722
299.709
299.695
299.681
299.667
299.653
299.638
299.624
299.609
299.595
299.581
299.567
299.553
299.54
299.526
299.513
299.5
299.488
299.476
299.465
299.454
299.443
299.433
299.423
299.414
299.405
299.397
299.39
299.382
299.376
299.37
299.364
299.359
299.355
299.351
299.347
299.344
299.341
299.339
299.337
299.336
299.335
299.334
299.334
299.334
299.334
299.335
299.336
299.337
299.338
299.339
299.341
299.343
299.345
299.347
299.349
299.351
299.354
299.357
299.361
299.365
299.37
299.378
299.387
299.401
299.419
299.445
299.48
299.527
299.592
299.677
299.787
299.926
300.096
300.296
300.523
300.768
301.022
298.577
298.729
298.879
299.022
299.157
299.282
299.393
299.49
299.572
299.639
299.692
299.731
299.759
299.777
299.787
299.791
299.789
299.783
299.775
299.765
299.754
299.741
299.728
299.715
299.701
299.687
299.673
299.659
299.645
299.631
299.617
299.603
299.589
299.575
299.562
299.549
299.536
299.523
299.511
299.499
299.487
299.476
299.465
299.455
299.445
299.436
299.427
299.418
299.41
299.403
299.396
299.39
299.384
299.378
299.373
299.369
299.365
299.361
299.358
299.356
299.354
299.352
299.35
299.349
299.349
299.348
299.348
299.349
299.349
299.35
299.351
299.352
299.354
299.355
299.357
299.359
299.361
299.363
299.365
299.367
299.37
299.373
299.377
299.383
299.39
299.4
299.413
299.431
299.457
299.492
299.54
299.604
299.69
299.8
299.939
300.108
300.307
300.531
300.773
301.024
298.578
298.735
298.888
299.035
299.173
299.299
299.412
299.51
299.593
299.66
299.712
299.75
299.776
299.793
299.801
299.802
299.799
299.792
299.783
299.772
299.76
299.747
299.733
299.72
299.706
299.692
299.678
299.664
299.65
299.637
299.623
299.609
299.596
299.583
299.57
299.557
299.545
299.532
299.52
299.509
299.498
299.487
299.477
299.467
299.457
299.448
299.439
299.431
299.423
299.416
299.409
299.403
299.397
299.392
299.387
299.383
299.379
299.376
299.373
299.37
299.368
299.367
299.365
299.364
299.364
299.363
299.363
299.364
299.364
299.365
299.366
299.367
299.368
299.37
299.371
299.373
299.375
299.377
299.379
299.381
299.383
299.387
299.39
299.396
299.403
299.412
299.425
299.444
299.469
299.504
299.552
299.617
299.703
299.813
299.952
300.12
300.317
300.539
300.778
301.026
298.58
298.74
298.896
299.046
299.187
299.316
299.431
299.53
299.612
299.679
299.73
299.767
299.792
299.806
299.812
299.812
299.808
299.8
299.79
299.778
299.765
299.752
299.738
299.724
299.71
299.697
299.683
299.669
299.656
299.642
299.629
299.616
299.603
299.59
299.577
299.565
299.553
299.541
299.53
299.519
299.508
299.497
299.487
299.478
299.469
299.46
299.452
299.444
299.436
299.429
299.423
299.417
299.411
299.406
299.402
299.398
299.394
299.391
299.388
299.385
299.383
299.382
299.381
299.38
299.379
299.379
299.379
299.379
299.38
299.38
299.381
299.382
299.383
299.385
299.386
299.388
299.389
299.391
299.393
299.395
299.397
299.4
299.404
299.409
299.416
299.425
299.438
299.456
299.482
299.517
299.566
299.63
299.716
299.826
299.964
300.132
300.328
300.548
300.784
301.027
298.582
298.744
298.904
299.057
299.2
299.331
299.448
299.547
299.63
299.696
299.746
299.782
299.805
299.818
299.823
299.822
299.816
299.807
299.796
299.784
299.77
299.757
299.743
299.729
299.715
299.701
299.687
299.674
299.661
299.648
299.635
299.622
299.609
299.597
299.585
299.573
299.562
299.55
299.539
299.528
299.518
299.508
299.498
299.489
299.48
299.472
299.464
299.456
299.449
299.443
299.437
299.431
299.426
299.421
299.416
299.412
299.409
299.406
299.403
299.401
299.399
299.398
299.396
299.396
299.395
299.395
299.395
299.395
299.396
299.396
299.397
299.398
299.399
299.4
299.402
299.403
299.404
299.406
299.407
299.409
299.411
299.414
299.418
299.422
299.429
299.438
299.451
299.469
299.495
299.531
299.579
299.644
299.73
299.84
299.977
300.144
300.338
300.556
300.789
301.029
298.583
298.749
298.911
299.067
299.213
299.346
299.463
299.564
299.647
299.712
299.762
299.796
299.818
299.829
299.833
299.83
299.823
299.814
299.802
299.789
299.776
299.762
299.748
299.734
299.72
299.706
299.693
299.679
299.666
299.653
299.641
299.628
299.616
299.604
299.593
299.581
299.57
299.559
299.549
299.539
299.529
299.519
299.51
299.501
299.492
299.484
299.477
299.47
299.463
299.456
299.451
299.445
299.44
299.436
299.431
299.428
299.424
299.422
299.419
299.417
299.415
299.414
299.413
299.412
299.411
299.411
299.411
299.411
299.412
299.413
299.413
299.414
299.415
299.416
299.417
299.418
299.42
299.421
299.422
299.424
299.426
299.428
299.432
299.436
299.443
299.452
299.465
299.483
299.509
299.544
299.593
299.658
299.743
299.853
299.991
300.156
300.349
300.564
300.794
301.031
298.585
298.753
298.918
299.077
299.225
299.359
299.478
299.579
299.662
299.727
299.775
299.809
299.829
299.839
299.842
299.839
299.831
299.821
299.809
299.795
299.781
299.767
299.753
299.739
299.725
299.712
299.698
299.685
299.672
299.66
299.648
299.636
299.624
299.612
299.601
299.59
299.58
299.569
299.559
299.549
299.54
299.53
299.522
299.513
299.505
299.497
299.49
299.483
299.477
299.471
299.465
299.46
299.455
299.451
299.447
299.444
299.44
299.438
299.435
299.433
299.432
299.43
299.429
299.429
299.428
299.428
299.428
299.428
299.429
299.429
299.43
299.431
299.432
299.433
299.433
299.434
299.436
299.437
299.438
299.439
299.441
299.443
299.446
299.45
299.457
299.466
299.478
299.497
299.522
299.558
299.607
299.672
299.757
299.867
300.004
300.168
300.359
300.571
300.799
301.033
298.586
298.757
298.925
299.086
299.236
299.372
299.492
299.593
299.676
299.741
299.788
299.82
299.84
299.849
299.851
299.847
299.839
299.828
299.815
299.802
299.788
299.773
299.759
299.745
299.731
299.718
299.705
299.692
299.679
299.667
299.655
299.644
299.632
299.621
299.611
299.6
299.59
299.58
299.57
299.561
299.551
299.543
299.534
299.526
299.518
299.511
299.504
299.498
299.492
299.486
299.481
299.476
299.471
299.467
299.463
299.46
299.457
299.455
299.452
299.451
299.449
299.448
299.447
299.446
299.446
299.446
299.446
299.446
299.446
299.447
299.447
299.448
299.449
299.449
299.45
299.451
299.452
299.453
299.454
299.455
299.456
299.458
299.461
299.465
299.471
299.48
299.493
299.511
299.536
299.572
299.621
299.686
299.772
299.881
300.017
300.18
300.369
300.579
300.804
301.034
298.587
298.761
298.931
299.094
299.246
299.384
299.504
299.607
299.69
299.753
299.8
299.831
299.85
299.859
299.86
299.855
299.847
299.835
299.823
299.809
299.795
299.78
299.766
299.752
299.739
299.725
299.712
299.7
299.688
299.676
299.664
299.653
299.642
299.631
299.621
299.611
299.601
299.591
299.582
299.573
299.564
299.556
299.548
299.54
299.533
299.526
299.519
299.513
299.507
299.502
299.497
299.492
299.488
299.484
299.48
299.477
299.475
299.472
299.47
299.468
299.467
299.466
299.465
299.464
299.464
299.464
299.463
299.464
299.464
299.464
299.465
299.465
299.466
299.466
299.467
299.468
299.468
299.469
299.47
299.471
299.472
299.473
299.476
299.48
299.486
299.494
299.507
299.525
299.551
299.586
299.635
299.7
299.786
299.895
300.03
300.192
300.38
300.587
300.808
301.036
298.588
298.764
298.937
299.102
299.256
299.395
299.516
299.619
299.702
299.765
299.811
299.841
299.86
299.868
299.869
299.864
299.855
299.844
299.831
299.817
299.803
299.788
299.774
299.76
299.747
299.734
299.721
299.709
299.697
299.685
299.674
299.663
299.653
299.642
299.632
299.622
299.613
299.604
299.595
299.586
299.578
299.57
299.562
299.555
299.548
299.541
299.535
299.529
299.524
299.518
299.514
299.509
299.505
299.501
299.498
299.495
299.493
299.49
299.488
299.487
299.485
299.484
299.483
299.483
299.482
299.482
299.482
299.482
299.482
299.482
299.483
299.483
299.483
299.484
299.484
299.485
299.485
299.486
299.486
299.487
299.488
299.489
299.491
299.495
299.501
299.509
299.522
299.54
299.565
299.601
299.65
299.715
299.8
299.909
300.044
300.204
300.39
300.595
300.813
301.037
298.589
298.768
298.942
299.109
299.265
299.405
299.528
299.631
299.713
299.776
299.821
299.852
299.87
299.877
299.878
299.873
299.864
299.852
299.839
299.825
299.811
299.797
299.783
299.769
299.756
299.743
299.731
299.719
299.707
299.696
299.685
299.675
299.664
299.654
299.645
299.635
299.626
299.617
299.609
299.601
299.593
299.585
299.578
299.571
299.564
299.558
299.552
299.546
299.541
299.536
299.531
299.527
299.523
299.52
299.517
299.514
299.511
299.509
299.507
299.506
299.504
299.503
299.502
299.502
299.501
299.501
299.501
299.501
299.501
299.501
299.501
299.501
299.502
299.502
299.502
299.502
299.503
299.503
299.503
299.503
299.504
299.505
299.507
299.51
299.516
299.524
299.536
299.554
299.58
299.616
299.665
299.73
299.815
299.923
300.057
300.217
300.4
300.603
300.818
301.039
298.591
298.771
298.947
299.116
299.273
299.415
299.538
299.641
299.724
299.786
299.832
299.862
299.879
299.887
299.887
299.882
299.873
299.862
299.849
299.835
299.821
299.807
299.793
299.779
299.766
299.754
299.742
299.73
299.719
299.708
299.697
299.687
299.677
299.668
299.658
299.649
299.641
299.632
299.624
299.616
299.609
299.601
299.594
299.588
299.581
299.575
299.57
299.564
299.559
299.555
299.55
299.546
299.542
299.539
299.536
299.533
299.531
299.529
299.527
299.525
299.524
299.523
299.522
299.521
299.52
299.52
299.52
299.52
299.52
299.52
299.52
299.52
299.52
299.52
299.52
299.52
299.52
299.52
299.52
299.52
299.52
299.521
299.523
299.526
299.531
299.539
299.552
299.569
299.595
299.631
299.68
299.745
299.83
299.938
300.07
300.229
300.41
300.61
300.823
301.041
298.592
298.774
298.952
299.123
299.281
299.424
299.548
299.651
299.734
299.796
299.842
299.872
299.889
299.897
299.897
299.892
299.883
299.872
299.859
299.845
299.831
299.817
299.804
299.79
299.778
299.765
299.753
299.742
299.731
299.721
299.71
299.701
299.691
299.682
299.673
299.664
299.656
299.648
299.64
299.633
299.626
299.619
299.612
299.606
299.6
299.594
299.588
299.583
299.578
299.574
299.57
299.566
299.562
299.559
299.556
299.553
299.551
299.549
299.547
299.545
299.544
299.543
299.542
299.541
299.54
299.54
299.539
299.539
299.539
299.539
299.539
299.539
299.539
299.539
299.539
299.538
299.538
299.538
299.537
299.537
299.537
299.538
299.539
299.542
299.547
299.555
299.567
299.585
299.61
299.646
299.695
299.76
299.844
299.952
300.084
300.241
300.42
300.618
300.828
301.042
298.593
298.777
298.957
299.129
299.289
299.433
299.558
299.661
299.744
299.806
299.851
299.881
299.899
299.907
299.907
299.902
299.893
299.882
299.869
299.856
299.842
299.829
299.815
299.802
299.79
299.778
299.766
299.755
299.745
299.735
299.725
299.715
299.706
299.697
299.689
299.681
299.673
299.665
299.657
299.65
299.643
299.637
299.63
299.624
299.618
299.613
299.608
299.603
299.598
299.594
299.59
299.586
299.582
299.579
299.576
299.574
299.571
299.569
299.567
299.566
299.564
299.563
299.562
299.561
299.56
299.56
299.559
299.559
299.559
299.559
299.558
299.558
299.558
299.558
299.557
299.557
299.556
299.556
299.555
299.555
299.554
299.555
299.556
299.558
299.563
299.571
299.582
299.6
299.625
299.661
299.71
299.775
299.859
299.966
300.097
300.253
300.43
300.626
300.832
301.044
298.593
298.779
298.962
299.135
299.297
299.442
299.567
299.671
299.753
299.816
299.861
299.892
299.909
299.917
299.918
299.913
299.904
299.893
299.881
299.868
299.854
299.841
299.828
299.815
299.803
299.791
299.78
299.769
299.759
299.749
299.74
299.731
299.722
299.714
299.705
299.698
299.69
299.683
299.675
299.669
299.662
299.656
299.65
299.644
299.638
299.633
299.628
299.623
299.619
299.614
299.61
299.607
299.603
299.6
299.597
299.595
299.592
299.59
299.588
299.587
299.585
299.584
299.583
299.582
299.581
299.58
299.58
299.579
299.579
299.578
299.578
299.578
299.577
299.577
299.576
299.576
299.575
299.574
299.573
299.572
299.572
299.572
299.573
299.575
299.579
299.587
299.598
299.616
299.641
299.676
299.725
299.79
299.874
299.98
300.11
300.264
300.44
300.633
300.837
301.045
298.594
298.782
298.966
299.142
299.304
299.45
299.576
299.68
299.763
299.826
299.871
299.902
299.92
299.928
299.929
299.924
299.916
299.905
299.893