/*--------------------------------*- C++ -*----------------------------------*\
  =========                 |
  \\      /  F ield         | OpenFOAM: The Open Source CFD Toolbox
   \\    /   O peration     | Website:  https://openfoam.org
    \\  /    A nd           | Version:  6
     \\/     M anipulation  |
\*---------------------------------------------------------------------------*/
FoamFile
{
    version     2.0;
    format      ascii;
    class       volScalarField;
    location    "0";
    object      p;
}
// * * * * * * * * * * * * * * * * * * * * * * * * * * * * * * * * * * * * * //

dimensions      [0 2 -2 0 0 0 0];

internalField   nonuniform List<scalar> 
145945
(
2.70133e-06
2.7009e-06
2.70077e-06
2.70068e-06
2.70071e-06
2.70072e-06
2.70077e-06
2.70079e-06
2.70082e-06
2.70081e-06
2.70082e-06
2.70079e-06
2.70081e-06
2.7008e-06
2.70093e-06
2.70103e-06
2.7015e-06
2.7009e-06
2.70066e-06
2.70055e-06
2.7005e-06
2.70053e-06
2.70055e-06
2.70059e-06
2.70061e-06
2.70064e-06
2.70064e-06
2.70064e-06
2.70062e-06
2.70064e-06
2.70063e-06
2.70072e-06
2.70081e-06
2.70107e-06
2.70077e-06
2.70055e-06
2.70044e-06
2.70042e-06
2.70046e-06
2.70049e-06
2.70053e-06
2.70056e-06
2.70059e-06
2.70059e-06
2.70059e-06
2.70057e-06
2.70057e-06
2.70056e-06
2.70062e-06
2.70071e-06
2.70095e-06
2.70068e-06
2.7005e-06
2.70042e-06
2.70044e-06
2.70048e-06
2.70052e-06
2.70057e-06
2.7006e-06
2.70062e-06
2.70063e-06
2.70063e-06
2.70061e-06
2.7006e-06
2.70059e-06
2.70062e-06
2.70068e-06
2.70086e-06
2.70071e-06
2.70053e-06
2.70046e-06
2.70048e-06
2.70053e-06
2.70057e-06
2.70062e-06
2.70065e-06
2.70067e-06
2.70068e-06
2.70067e-06
2.70066e-06
2.70065e-06
2.70064e-06
2.70066e-06
2.70071e-06
2.7009e-06
2.70072e-06
2.70055e-06
2.70049e-06
2.70052e-06
2.70057e-06
2.70062e-06
2.70066e-06
2.70069e-06
2.70072e-06
2.70072e-06
2.70072e-06
2.70071e-06
2.7007e-06
2.70069e-06
2.7007e-06
2.70074e-06
2.70091e-06
2.70077e-06
2.70059e-06
2.70053e-06
2.70057e-06
2.70062e-06
2.70066e-06
2.7007e-06
2.70073e-06
2.70076e-06
2.70076e-06
2.70076e-06
2.70075e-06
2.70074e-06
2.70073e-06
2.70074e-06
2.70078e-06
2.70096e-06
2.70079e-06
2.70061e-06
2.70056e-06
2.7006e-06
2.70065e-06
2.70069e-06
2.70073e-06
2.70076e-06
2.70079e-06
2.7008e-06
2.70079e-06
2.70078e-06
2.70077e-06
2.70076e-06
2.70077e-06
2.70081e-06
2.70098e-06
2.70082e-06
2.70064e-06
2.70059e-06
2.70062e-06
2.70067e-06
2.70072e-06
2.70076e-06
2.70079e-06
2.70081e-06
2.70082e-06
2.70082e-06
2.70081e-06
2.7008e-06
2.70079e-06
2.7008e-06
2.70083e-06
2.70101e-06
2.70081e-06
2.70064e-06
2.70059e-06
2.70063e-06
2.70068e-06
2.70072e-06
2.70076e-06
2.7008e-06
2.70082e-06
2.70083e-06
2.70083e-06
2.70081e-06
2.7008e-06
2.7008e-06
2.7008e-06
2.70083e-06
2.70101e-06
2.70082e-06
2.70064e-06
2.70059e-06
2.70063e-06
2.70067e-06
2.70072e-06
2.70076e-06
2.70079e-06
2.70082e-06
2.70083e-06
2.70082e-06
2.70081e-06
2.7008e-06
2.70079e-06
2.7008e-06
2.70084e-06
2.70101e-06
2.70079e-06
2.70062e-06
2.70057e-06
2.70061e-06
2.70066e-06
2.70071e-06
2.70075e-06
2.70078e-06
2.70081e-06
2.70081e-06
2.70081e-06
2.7008e-06
2.70078e-06
2.70077e-06
2.70078e-06
2.70081e-06
2.70098e-06
2.70081e-06
2.70064e-06
2.70057e-06
2.7006e-06
2.70065e-06
2.7007e-06
2.70074e-06
2.70077e-06
2.7008e-06
2.7008e-06
2.7008e-06
2.70079e-06
2.70078e-06
2.70076e-06
2.70078e-06
2.70082e-06
2.701e-06
2.7008e-06
2.70063e-06
2.70057e-06
2.70059e-06
2.70064e-06
2.70069e-06
2.70073e-06
2.70077e-06
2.70079e-06
2.7008e-06
2.70079e-06
2.70077e-06
2.70076e-06
2.70075e-06
2.70077e-06
2.70081e-06
2.70098e-06
2.70093e-06
2.70072e-06
2.70063e-06
2.70062e-06
2.70066e-06
2.7007e-06
2.70074e-06
2.70077e-06
2.7008e-06
2.7008e-06
2.7008e-06
2.70078e-06
2.70078e-06
2.70077e-06
2.70081e-06
2.70089e-06
2.70111e-06
2.70103e-06
2.70081e-06
2.70072e-06
2.70068e-06
2.70072e-06
2.70074e-06
2.70078e-06
2.70081e-06
2.70084e-06
2.70084e-06
2.70084e-06
2.70081e-06
2.70082e-06
2.70081e-06
2.70089e-06
2.70096e-06
2.70121e-06
2.7015e-06
2.70108e-06
2.70095e-06
2.70086e-06
2.7009e-06
2.70091e-06
2.70096e-06
2.70098e-06
2.70101e-06
2.70101e-06
2.70101e-06
2.70098e-06
2.701e-06
2.70098e-06
2.70111e-06
2.70121e-06
2.70167e-06
2.62971e-06
2.62955e-06
2.62963e-06
2.62973e-06
2.6299e-06
2.63004e-06
2.63018e-06
2.63027e-06
2.63031e-06
2.6303e-06
2.63024e-06
2.63013e-06
2.63e-06
2.62984e-06
2.62976e-06
2.62966e-06
2.62982e-06
2.62955e-06
2.62956e-06
2.62968e-06
2.62983e-06
2.63002e-06
2.6302e-06
2.63034e-06
2.63044e-06
2.63049e-06
2.63047e-06
2.6304e-06
2.63028e-06
2.63014e-06
2.62996e-06
2.62982e-06
2.62968e-06
2.62967e-06
2.62963e-06
2.62968e-06
2.62982e-06
2.63001e-06
2.63023e-06
2.63043e-06
2.63059e-06
2.63069e-06
2.63074e-06
2.63073e-06
2.63065e-06
2.63052e-06
2.63035e-06
2.63015e-06
2.62997e-06
2.62982e-06
2.62975e-06
2.62973e-06
2.62983e-06
2.63001e-06
2.63025e-06
2.63049e-06
2.6307e-06
2.63087e-06
2.63098e-06
2.63103e-06
2.63101e-06
2.63093e-06
2.63079e-06
2.63061e-06
2.6304e-06
2.63018e-06
2.62998e-06
2.62985e-06
2.6299e-06
2.63002e-06
2.63023e-06
2.63049e-06
2.63074e-06
2.63096e-06
2.63113e-06
2.63125e-06
2.6313e-06
2.63129e-06
2.63121e-06
2.63106e-06
2.63087e-06
2.63064e-06
2.63041e-06
2.63018e-06
2.63002e-06
2.63004e-06
2.6302e-06
2.63043e-06
2.6307e-06
2.63096e-06
2.63119e-06
2.63137e-06
2.63149e-06
2.63154e-06
2.63152e-06
2.63144e-06
2.63129e-06
2.6311e-06
2.63086e-06
2.63061e-06
2.63036e-06
2.63017e-06
2.63018e-06
2.63034e-06
2.63059e-06
2.63087e-06
2.63114e-06
2.63137e-06
2.63155e-06
2.63167e-06
2.63172e-06
2.63171e-06
2.63162e-06
2.63147e-06
2.63127e-06
2.63103e-06
2.63077e-06
2.63051e-06
2.63031e-06
2.63027e-06
2.63044e-06
2.63069e-06
2.63098e-06
2.63125e-06
2.63149e-06
2.63167e-06
2.63179e-06
2.63185e-06
2.63183e-06
2.63174e-06
2.63159e-06
2.63139e-06
2.63114e-06
2.63088e-06
2.63061e-06
2.6304e-06
2.63031e-06
2.63049e-06
2.63074e-06
2.63103e-06
2.63131e-06
2.63154e-06
2.63172e-06
2.63185e-06
2.6319e-06
2.63189e-06
2.6318e-06
2.63165e-06
2.63145e-06
2.6312e-06
2.63093e-06
2.63065e-06
2.63044e-06
2.6303e-06
2.63047e-06
2.63073e-06
2.63101e-06
2.63129e-06
2.63153e-06
2.63171e-06
2.63183e-06
2.63189e-06
2.63187e-06
2.63178e-06
2.63163e-06
2.63143e-06
2.63118e-06
2.63091e-06
2.63064e-06
2.63043e-06
2.63024e-06
2.6304e-06
2.63065e-06
2.63093e-06
2.63121e-06
2.63144e-06
2.63162e-06
2.63174e-06
2.6318e-06
2.63178e-06
2.6317e-06
2.63155e-06
2.63134e-06
2.6311e-06
2.63084e-06
2.63057e-06
2.63037e-06
2.63013e-06
2.63028e-06
2.63052e-06
2.63079e-06
2.63106e-06
2.63129e-06
2.63147e-06
2.63159e-06
2.63165e-06
2.63163e-06
2.63155e-06
2.6314e-06
2.6312e-06
2.63096e-06
2.6307e-06
2.63045e-06
2.63026e-06
2.63e-06
2.63014e-06
2.63035e-06
2.63061e-06
2.63087e-06
2.6311e-06
2.63127e-06
2.63139e-06
2.63145e-06
2.63143e-06
2.63134e-06
2.6312e-06
2.63101e-06
2.63077e-06
2.63053e-06
2.63029e-06
2.63013e-06
2.62984e-06
2.62996e-06
2.63015e-06
2.6304e-06
2.63064e-06
2.63086e-06
2.63103e-06
2.63114e-06
2.6312e-06
2.63118e-06
2.6311e-06
2.63096e-06
2.63077e-06
2.63055e-06
2.63032e-06
2.63011e-06
2.62997e-06
2.62977e-06
2.62982e-06
2.62998e-06
2.63018e-06
2.63041e-06
2.63061e-06
2.63077e-06
2.63088e-06
2.63093e-06
2.63091e-06
2.63084e-06
2.6307e-06
2.63053e-06
2.63032e-06
2.63013e-06
2.62997e-06
2.62989e-06
2.62966e-06
2.62968e-06
2.62982e-06
2.62998e-06
2.63018e-06
2.63036e-06
2.63051e-06
2.63061e-06
2.63066e-06
2.63064e-06
2.63057e-06
2.63045e-06
2.6303e-06
2.63011e-06
2.62997e-06
2.62981e-06
2.62978e-06
2.62982e-06
2.62967e-06
2.62975e-06
2.62985e-06
2.63002e-06
2.63018e-06
2.63031e-06
2.6304e-06
2.63045e-06
2.63043e-06
2.63037e-06
2.63026e-06
2.63013e-06
2.62997e-06
2.62989e-06
2.62978e-06
2.62993e-06
2.58195e-06
2.58281e-06
2.58361e-06
2.58431e-06
2.58495e-06
2.58543e-06
2.58578e-06
2.58599e-06
2.58608e-06
2.58603e-06
2.58585e-06
2.58553e-06
2.58509e-06
2.58447e-06
2.58375e-06
2.58286e-06
2.58197e-06
2.58281e-06
2.58359e-06
2.58437e-06
2.58507e-06
2.5857e-06
2.58618e-06
2.58653e-06
2.58674e-06
2.58683e-06
2.58678e-06
2.5866e-06
2.58628e-06
2.58584e-06
2.58523e-06
2.5845e-06
2.58364e-06
2.58284e-06
2.58361e-06
2.58437e-06
2.58509e-06
2.58577e-06
2.58637e-06
2.58685e-06
2.58719e-06
2.5874e-06
2.58748e-06
2.58743e-06
2.58726e-06
2.58695e-06
2.58651e-06
2.58592e-06
2.58521e-06
2.58441e-06
2.58364e-06
2.58431e-06
2.58508e-06
2.58577e-06
2.58643e-06
2.58702e-06
2.58749e-06
2.58782e-06
2.58803e-06
2.58811e-06
2.58806e-06
2.58789e-06
2.58758e-06
2.58715e-06
2.58658e-06
2.58588e-06
2.58511e-06
2.58434e-06
2.58495e-06
2.5857e-06
2.58637e-06
2.58702e-06
2.5876e-06
2.58805e-06
2.58838e-06
2.58859e-06
2.58867e-06
2.58862e-06
2.58845e-06
2.58815e-06
2.58773e-06
2.58716e-06
2.58648e-06
2.58574e-06
2.58498e-06
2.58543e-06
2.58618e-06
2.58685e-06
2.58748e-06
2.58805e-06
2.5885e-06
2.58883e-06
2.58903e-06
2.58911e-06
2.58907e-06
2.5889e-06
2.5886e-06
2.58818e-06
2.58763e-06
2.58695e-06
2.58622e-06
2.58546e-06
2.58578e-06
2.58653e-06
2.58719e-06
2.58782e-06
2.58838e-06
2.58883e-06
2.58916e-06
2.58936e-06
2.58943e-06
2.58939e-06
2.58922e-06
2.58893e-06
2.58851e-06
2.58796e-06
2.5873e-06
2.58657e-06
2.58581e-06
2.58599e-06
2.58674e-06
2.5874e-06
2.58803e-06
2.58859e-06
2.58903e-06
2.58936e-06
2.58956e-06
2.58963e-06
2.58959e-06
2.58942e-06
2.58913e-06
2.58872e-06
2.58817e-06
2.5875e-06
2.58678e-06
2.58602e-06
2.58608e-06
2.58683e-06
2.58748e-06
2.58811e-06
2.58867e-06
2.58911e-06
2.58944e-06
2.58963e-06
2.58971e-06
2.58967e-06
2.5895e-06
2.58921e-06
2.5888e-06
2.58825e-06
2.58759e-06
2.58687e-06
2.5861e-06
2.58603e-06
2.58678e-06
2.58743e-06
2.58806e-06
2.58862e-06
2.58907e-06
2.58939e-06
2.58959e-06
2.58967e-06
2.58962e-06
2.58946e-06
2.58917e-06
2.58875e-06
2.5882e-06
2.58754e-06
2.58682e-06
2.58605e-06
2.58585e-06
2.5866e-06
2.58726e-06
2.58789e-06
2.58845e-06
2.5889e-06
2.58922e-06
2.58942e-06
2.5895e-06
2.58946e-06
2.58929e-06
2.589e-06
2.58858e-06
2.58803e-06
2.58736e-06
2.58664e-06
2.58588e-06
2.58554e-06
2.58629e-06
2.58695e-06
2.58758e-06
2.58815e-06
2.5886e-06
2.58893e-06
2.58913e-06
2.58921e-06
2.58917e-06
2.589e-06
2.5887e-06
2.58828e-06
2.58773e-06
2.58705e-06
2.58632e-06
2.58556e-06
2.58509e-06
2.58584e-06
2.58651e-06
2.58715e-06
2.58773e-06
2.58818e-06
2.58851e-06
2.58872e-06
2.5888e-06
2.58875e-06
2.58858e-06
2.58828e-06
2.58786e-06
2.5873e-06
2.58662e-06
2.58588e-06
2.58512e-06
2.58447e-06
2.58523e-06
2.58592e-06
2.58658e-06
2.58717e-06
2.58763e-06
2.58796e-06
2.58817e-06
2.58825e-06
2.5882e-06
2.58803e-06
2.58773e-06
2.5873e-06
2.58672e-06
2.58603e-06
2.58527e-06
2.5845e-06
2.58375e-06
2.5845e-06
2.58521e-06
2.58588e-06
2.58648e-06
2.58695e-06
2.5873e-06
2.5875e-06
2.58759e-06
2.58754e-06
2.58736e-06
2.58705e-06
2.58662e-06
2.58603e-06
2.58532e-06
2.58454e-06
2.58378e-06
2.58286e-06
2.58364e-06
2.58441e-06
2.58512e-06
2.58574e-06
2.58622e-06
2.58657e-06
2.58678e-06
2.58687e-06
2.58682e-06
2.58664e-06
2.58632e-06
2.58588e-06
2.58527e-06
2.58454e-06
2.58369e-06
2.58289e-06
2.58197e-06
2.58284e-06
2.58364e-06
2.58434e-06
2.58498e-06
2.58546e-06
2.58581e-06
2.58602e-06
2.58611e-06
2.58605e-06
2.58588e-06
2.58556e-06
2.58512e-06
2.5845e-06
2.58378e-06
2.58289e-06
2.582e-06
2.53164e-06
2.53326e-06
2.53474e-06
2.53615e-06
2.53735e-06
2.53824e-06
2.53887e-06
2.53925e-06
2.5394e-06
2.53931e-06
2.53898e-06
2.5384e-06
2.53758e-06
2.53646e-06
2.53505e-06
2.53344e-06
2.5317e-06
2.53326e-06
2.53463e-06
2.53606e-06
2.53744e-06
2.53859e-06
2.53946e-06
2.54007e-06
2.54044e-06
2.54059e-06
2.5405e-06
2.54018e-06
2.53962e-06
2.53883e-06
2.53774e-06
2.53637e-06
2.5348e-06
2.53333e-06
2.53474e-06
2.53606e-06
2.53744e-06
2.53875e-06
2.53985e-06
2.54068e-06
2.54127e-06
2.54163e-06
2.54177e-06
2.54168e-06
2.54138e-06
2.54084e-06
2.54008e-06
2.53904e-06
2.53774e-06
2.53623e-06
2.53481e-06
2.53616e-06
2.53744e-06
2.53875e-06
2.54001e-06
2.54107e-06
2.54187e-06
2.54243e-06
2.54278e-06
2.54291e-06
2.54283e-06
2.54254e-06
2.54202e-06
2.54129e-06
2.5403e-06
2.53904e-06
2.5376e-06
2.53623e-06
2.53735e-06
2.53859e-06
2.53985e-06
2.54107e-06
2.54209e-06
2.54286e-06
2.54341e-06
2.54374e-06
2.54387e-06
2.54379e-06
2.54351e-06
2.54301e-06
2.5423e-06
2.54135e-06
2.54014e-06
2.53875e-06
2.53742e-06
2.53824e-06
2.53946e-06
2.54068e-06
2.54187e-06
2.54286e-06
2.54361e-06
2.54415e-06
2.54447e-06
2.5446e-06
2.54452e-06
2.54425e-06
2.54376e-06
2.54307e-06
2.54214e-06
2.54096e-06
2.53962e-06
2.53831e-06
2.53887e-06
2.54007e-06
2.54127e-06
2.54243e-06
2.54341e-06
2.54415e-06
2.54467e-06
2.54499e-06
2.54511e-06
2.54504e-06
2.54477e-06
2.54429e-06
2.54362e-06
2.5427e-06
2.54155e-06
2.54023e-06
2.53894e-06
2.53925e-06
2.54044e-06
2.54163e-06
2.54278e-06
2.54374e-06
2.54447e-06
2.54499e-06
2.54531e-06
2.54543e-06
2.54536e-06
2.54509e-06
2.54462e-06
2.54395e-06
2.54305e-06
2.5419e-06
2.5406e-06
2.53932e-06
2.5394e-06
2.54059e-06
2.54177e-06
2.54291e-06
2.54387e-06
2.5446e-06
2.54511e-06
2.54543e-06
2.54555e-06
2.54548e-06
2.54521e-06
2.54475e-06
2.54408e-06
2.54318e-06
2.54204e-06
2.54075e-06
2.53947e-06
2.53931e-06
2.5405e-06
2.54168e-06
2.54283e-06
2.54379e-06
2.54452e-06
2.54504e-06
2.54536e-06
2.54548e-06
2.54541e-06
2.54514e-06
2.54467e-06
2.544e-06
2.5431e-06
2.54196e-06
2.54066e-06
2.53938e-06
2.53898e-06
2.54018e-06
2.54138e-06
2.54254e-06
2.54351e-06
2.54425e-06
2.54477e-06
2.54509e-06
2.54521e-06
2.54514e-06
2.54487e-06
2.5444e-06
2.54372e-06
2.54281e-06
2.54165e-06
2.54034e-06
2.53905e-06
2.5384e-06
2.53962e-06
2.54084e-06
2.54202e-06
2.54301e-06
2.54377e-06
2.5443e-06
2.54462e-06
2.54475e-06
2.54467e-06
2.5444e-06
2.54392e-06
2.54323e-06
2.5423e-06
2.54112e-06
2.53978e-06
2.53848e-06
2.53759e-06
2.53883e-06
2.54008e-06
2.54129e-06
2.5423e-06
2.54307e-06
2.54362e-06
2.54395e-06
2.54408e-06
2.544e-06
2.54372e-06
2.54323e-06
2.54252e-06
2.54157e-06
2.54036e-06
2.53898e-06
2.53766e-06
2.53646e-06
2.53774e-06
2.53904e-06
2.5403e-06
2.54135e-06
2.54215e-06
2.54271e-06
2.54305e-06
2.54318e-06
2.5431e-06
2.54281e-06
2.5423e-06
2.54157e-06
2.54059e-06
2.53934e-06
2.5379e-06
2.53653e-06
2.53506e-06
2.53638e-06
2.53774e-06
2.53904e-06
2.54014e-06
2.54096e-06
2.54155e-06
2.5419e-06
2.54204e-06
2.54196e-06
2.54165e-06
2.54112e-06
2.54036e-06
2.53934e-06
2.53804e-06
2.53654e-06
2.53512e-06
2.53344e-06
2.5348e-06
2.53623e-06
2.5376e-06
2.53875e-06
2.53962e-06
2.54023e-06
2.5406e-06
2.54075e-06
2.54066e-06
2.54034e-06
2.53978e-06
2.53898e-06
2.5379e-06
2.53654e-06
2.53497e-06
2.53351e-06
2.5317e-06
2.53333e-06
2.53481e-06
2.53623e-06
2.53742e-06
2.53831e-06
2.53894e-06
2.53933e-06
2.53948e-06
2.53938e-06
2.53905e-06
2.53848e-06
2.53766e-06
2.53653e-06
2.53512e-06
2.53351e-06
2.53176e-06
2.48186e-06
2.48375e-06
2.48544e-06
2.4871e-06
2.48848e-06
2.48953e-06
2.49028e-06
2.49074e-06
2.49092e-06
2.4908e-06
2.49041e-06
2.48972e-06
2.48875e-06
2.48743e-06
2.48576e-06
2.48393e-06
2.48191e-06
2.48375e-06
2.48533e-06
2.48699e-06
2.48861e-06
2.48997e-06
2.49101e-06
2.49175e-06
2.4922e-06
2.49238e-06
2.49227e-06
2.49188e-06
2.4912e-06
2.49024e-06
2.48894e-06
2.48732e-06
2.4855e-06
2.4838e-06
2.48544e-06
2.48699e-06
2.48862e-06
2.49018e-06
2.4915e-06
2.4925e-06
2.49322e-06
2.49365e-06
2.49382e-06
2.49372e-06
2.49334e-06
2.49268e-06
2.49175e-06
2.4905e-06
2.48894e-06
2.48715e-06
2.48549e-06
2.4871e-06
2.48861e-06
2.49018e-06
2.49169e-06
2.49296e-06
2.49394e-06
2.49463e-06
2.49505e-06
2.49522e-06
2.49512e-06
2.49475e-06
2.49412e-06
2.49321e-06
2.49201e-06
2.49049e-06
2.48877e-06
2.48715e-06
2.48848e-06
2.48997e-06
2.4915e-06
2.49296e-06
2.4942e-06
2.49515e-06
2.49582e-06
2.49624e-06
2.4964e-06
2.4963e-06
2.49594e-06
2.49533e-06
2.49445e-06
2.49328e-06
2.49181e-06
2.49013e-06
2.48854e-06
2.48953e-06
2.49101e-06
2.4925e-06
2.49394e-06
2.49515e-06
2.49608e-06
2.49674e-06
2.49714e-06
2.4973e-06
2.4972e-06
2.49686e-06
2.49625e-06
2.49539e-06
2.49425e-06
2.49281e-06
2.49117e-06
2.48959e-06
2.49028e-06
2.49175e-06
2.49321e-06
2.49463e-06
2.49582e-06
2.49674e-06
2.49739e-06
2.49779e-06
2.49794e-06
2.49785e-06
2.4975e-06
2.49691e-06
2.49606e-06
2.49494e-06
2.49352e-06
2.49191e-06
2.49034e-06
2.49074e-06
2.4922e-06
2.49365e-06
2.49505e-06
2.49624e-06
2.49714e-06
2.49779e-06
2.49818e-06
2.49834e-06
2.49824e-06
2.4979e-06
2.49732e-06
2.49648e-06
2.49536e-06
2.49395e-06
2.49236e-06
2.4908e-06
2.49091e-06
2.49238e-06
2.49382e-06
2.49522e-06
2.4964e-06
2.4973e-06
2.49794e-06
2.49834e-06
2.49849e-06
2.4984e-06
2.49806e-06
2.49747e-06
2.49664e-06
2.49552e-06
2.49412e-06
2.49254e-06
2.49097e-06
2.4908e-06
2.49227e-06
2.49372e-06
2.49511e-06
2.4963e-06
2.4972e-06
2.49785e-06
2.49824e-06
2.4984e-06
2.4983e-06
2.49796e-06
2.49738e-06
2.49654e-06
2.49542e-06
2.49402e-06
2.49243e-06
2.49086e-06
2.49041e-06
2.49188e-06
2.49334e-06
2.49475e-06
2.49594e-06
2.49686e-06
2.49751e-06
2.4979e-06
2.49806e-06
2.49796e-06
2.49762e-06
2.49703e-06
2.49618e-06
2.49506e-06
2.49364e-06
2.49204e-06
2.49047e-06
2.48972e-06
2.4912e-06
2.49268e-06
2.49412e-06
2.49533e-06
2.49626e-06
2.49691e-06
2.49732e-06
2.49747e-06
2.49738e-06
2.49703e-06
2.49643e-06
2.49557e-06
2.49443e-06
2.49299e-06
2.49136e-06
2.48978e-06
2.48875e-06
2.49024e-06
2.49175e-06
2.49321e-06
2.49445e-06
2.49539e-06
2.49607e-06
2.49648e-06
2.49664e-06
2.49654e-06
2.49618e-06
2.49557e-06
2.4947e-06
2.49353e-06
2.49206e-06
2.49039e-06
2.4888e-06
2.48743e-06
2.48894e-06
2.4905e-06
2.49201e-06
2.49328e-06
2.49425e-06
2.49494e-06
2.49536e-06
2.49553e-06
2.49542e-06
2.49506e-06
2.49443e-06
2.49353e-06
2.49233e-06
2.49082e-06
2.4891e-06
2.48749e-06
2.48577e-06
2.48732e-06
2.48894e-06
2.49049e-06
2.49181e-06
2.49281e-06
2.49352e-06
2.49396e-06
2.49412e-06
2.49402e-06
2.49364e-06
2.49299e-06
2.49206e-06
2.49082e-06
2.48926e-06
2.48748e-06
2.48582e-06
2.48394e-06
2.4855e-06
2.48715e-06
2.48877e-06
2.49013e-06
2.49117e-06
2.49191e-06
2.49236e-06
2.49254e-06
2.49243e-06
2.49204e-06
2.49136e-06
2.4904e-06
2.4891e-06
2.48748e-06
2.48567e-06
2.48398e-06
2.48191e-06
2.4838e-06
2.48549e-06
2.48715e-06
2.48854e-06
2.48959e-06
2.49034e-06
2.4908e-06
2.49097e-06
2.49086e-06
2.49047e-06
2.48978e-06
2.4888e-06
2.48749e-06
2.48581e-06
2.48398e-06
2.48195e-06
2.43566e-06
2.43763e-06
2.43938e-06
2.44113e-06
2.44258e-06
2.44368e-06
2.44447e-06
2.44496e-06
2.44514e-06
2.44502e-06
2.4446e-06
2.44387e-06
2.44284e-06
2.44146e-06
2.43969e-06
2.4378e-06
2.43568e-06
2.43763e-06
2.43929e-06
2.44102e-06
2.44273e-06
2.44418e-06
2.44528e-06
2.44607e-06
2.44655e-06
2.44674e-06
2.44662e-06
2.4462e-06
2.44547e-06
2.44444e-06
2.44307e-06
2.44134e-06
2.43944e-06
2.43766e-06
2.43938e-06
2.44102e-06
2.44275e-06
2.4444e-06
2.44581e-06
2.44689e-06
2.44766e-06
2.44812e-06
2.4483e-06
2.44819e-06
2.44778e-06
2.44707e-06
2.44607e-06
2.44473e-06
2.44306e-06
2.44116e-06
2.4394e-06
2.44113e-06
2.44273e-06
2.4444e-06
2.44601e-06
2.44738e-06
2.44843e-06
2.44918e-06
2.44964e-06
2.44982e-06
2.4497e-06
2.44931e-06
2.44862e-06
2.44764e-06
2.44634e-06
2.44471e-06
2.44287e-06
2.44116e-06
2.44258e-06
2.44418e-06
2.44581e-06
2.44738e-06
2.44872e-06
2.44975e-06
2.45048e-06
2.45093e-06
2.4511e-06
2.45099e-06
2.4506e-06
2.44993e-06
2.44897e-06
2.4477e-06
2.44611e-06
2.44431e-06
2.4426e-06
2.44368e-06
2.44528e-06
2.44689e-06
2.44843e-06
2.44975e-06
2.45076e-06
2.45148e-06
2.45193e-06
2.45209e-06
2.45199e-06
2.4516e-06
2.45094e-06
2.45e-06
2.44875e-06
2.44718e-06
2.44541e-06
2.44371e-06
2.44447e-06
2.44607e-06
2.44765e-06
2.44918e-06
2.45048e-06
2.45148e-06
2.45219e-06
2.45263e-06
2.4528e-06
2.45269e-06
2.45231e-06
2.45166e-06
2.45073e-06
2.44949e-06
2.44795e-06
2.4462e-06
2.4445e-06
2.44496e-06
2.44655e-06
2.44812e-06
2.44964e-06
2.45093e-06
2.45193e-06
2.45263e-06
2.45307e-06
2.45323e-06
2.45313e-06
2.45275e-06
2.4521e-06
2.45117e-06
2.44995e-06
2.44841e-06
2.44669e-06
2.44499e-06
2.44514e-06
2.44674e-06
2.4483e-06
2.44982e-06
2.4511e-06
2.45209e-06
2.4528e-06
2.45323e-06
2.4534e-06
2.45329e-06
2.45292e-06
2.45227e-06
2.45135e-06
2.45012e-06
2.44859e-06
2.44687e-06
2.44517e-06
2.44502e-06
2.44662e-06
2.44819e-06
2.4497e-06
2.45099e-06
2.45199e-06
2.45269e-06
2.45313e-06
2.45329e-06
2.45319e-06
2.45281e-06
2.45216e-06
2.45124e-06
2.45001e-06
2.44848e-06
2.44675e-06
2.44505e-06
2.4446e-06
2.4462e-06
2.44778e-06
2.44931e-06
2.4506e-06
2.4516e-06
2.45231e-06
2.45275e-06
2.45292e-06
2.45281e-06
2.45243e-06
2.45178e-06
2.45085e-06
2.44961e-06
2.44807e-06
2.44633e-06
2.44463e-06
2.44387e-06
2.44547e-06
2.44707e-06
2.44862e-06
2.44993e-06
2.45094e-06
2.45166e-06
2.4521e-06
2.45227e-06
2.45216e-06
2.45178e-06
2.45112e-06
2.45018e-06
2.44893e-06
2.44737e-06
2.44561e-06
2.4439e-06
2.44284e-06
2.44444e-06
2.44607e-06
2.44764e-06
2.44897e-06
2.45e-06
2.45073e-06
2.45118e-06
2.45135e-06
2.45124e-06
2.45085e-06
2.45018e-06
2.44922e-06
2.44795e-06
2.44637e-06
2.44457e-06
2.44287e-06
2.44147e-06
2.44307e-06
2.44473e-06
2.44634e-06
2.4477e-06
2.44875e-06
2.44949e-06
2.44995e-06
2.45012e-06
2.45001e-06
2.44962e-06
2.44893e-06
2.44795e-06
2.44666e-06
2.44504e-06
2.4432e-06
2.44149e-06
2.43969e-06
2.44134e-06
2.44306e-06
2.44471e-06
2.44611e-06
2.44718e-06
2.44795e-06
2.44842e-06
2.44859e-06
2.44848e-06
2.44807e-06
2.44737e-06
2.44637e-06
2.44504e-06
2.44337e-06
2.44148e-06
2.43972e-06
2.4378e-06
2.43944e-06
2.44117e-06
2.44287e-06
2.44431e-06
2.44542e-06
2.44621e-06
2.44669e-06
2.44687e-06
2.44675e-06
2.44633e-06
2.44561e-06
2.44457e-06
2.4432e-06
2.44148e-06
2.43959e-06
2.43783e-06
2.43569e-06
2.43766e-06
2.43941e-06
2.44116e-06
2.4426e-06
2.44371e-06
2.4445e-06
2.44499e-06
2.44517e-06
2.44505e-06
2.44463e-06
2.4439e-06
2.44287e-06
2.44149e-06
2.43972e-06
2.43783e-06
2.43571e-06
2.39241e-06
2.39434e-06
2.39605e-06
2.3978e-06
2.39924e-06
2.40035e-06
2.40115e-06
2.40163e-06
2.40182e-06
2.4017e-06
2.40128e-06
2.40054e-06
2.3995e-06
2.39814e-06
2.39635e-06
2.3945e-06
2.39243e-06
2.39434e-06
2.39597e-06
2.39768e-06
2.39939e-06
2.40084e-06
2.40196e-06
2.40276e-06
2.40325e-06
2.40343e-06
2.40331e-06
2.40289e-06
2.40215e-06
2.4011e-06
2.39973e-06
2.39799e-06
2.39612e-06
2.39436e-06
2.39605e-06
2.39768e-06
2.39941e-06
2.40107e-06
2.40249e-06
2.40359e-06
2.40437e-06
2.40485e-06
2.40503e-06
2.40491e-06
2.40449e-06
2.40378e-06
2.40275e-06
2.4014e-06
2.39971e-06
2.39782e-06
2.39607e-06
2.3978e-06
2.3994e-06
2.40107e-06
2.4027e-06
2.40409e-06
2.40517e-06
2.40593e-06
2.4064e-06
2.40658e-06
2.40647e-06
2.40606e-06
2.40535e-06
2.40435e-06
2.40303e-06
2.40138e-06
2.39953e-06
2.39782e-06
2.39924e-06
2.40084e-06
2.40249e-06
2.40409e-06
2.40546e-06
2.40652e-06
2.40727e-06
2.40773e-06
2.40791e-06
2.4078e-06
2.40739e-06
2.4067e-06
2.40571e-06
2.40441e-06
2.40279e-06
2.40097e-06
2.39926e-06
2.40035e-06
2.40196e-06
2.40359e-06
2.40517e-06
2.40652e-06
2.40756e-06
2.4083e-06
2.40876e-06
2.40893e-06
2.40882e-06
2.40842e-06
2.40774e-06
2.40677e-06
2.40548e-06
2.40388e-06
2.40209e-06
2.40038e-06
2.40115e-06
2.40276e-06
2.40437e-06
2.40593e-06
2.40727e-06
2.4083e-06
2.40904e-06
2.40949e-06
2.40966e-06
2.40955e-06
2.40916e-06
2.40848e-06
2.40752e-06
2.40625e-06
2.40466e-06
2.40289e-06
2.40117e-06
2.40163e-06
2.40325e-06
2.40485e-06
2.4064e-06
2.40773e-06
2.40876e-06
2.40949e-06
2.40994e-06
2.41011e-06
2.41e-06
2.40961e-06
2.40894e-06
2.40798e-06
2.40671e-06
2.40514e-06
2.40338e-06
2.40166e-06
2.40182e-06
2.40343e-06
2.40503e-06
2.40658e-06
2.40791e-06
2.40893e-06
2.40966e-06
2.41011e-06
2.41028e-06
2.41017e-06
2.40978e-06
2.40911e-06
2.40815e-06
2.40689e-06
2.40532e-06
2.40356e-06
2.40185e-06
2.4017e-06
2.40331e-06
2.40491e-06
2.40647e-06
2.4078e-06
2.40882e-06
2.40955e-06
2.41e-06
2.41017e-06
2.41006e-06
2.40967e-06
2.409e-06
2.40804e-06
2.40678e-06
2.4052e-06
2.40344e-06
2.40172e-06
2.40128e-06
2.40289e-06
2.40449e-06
2.40606e-06
2.40739e-06
2.40842e-06
2.40916e-06
2.40961e-06
2.40978e-06
2.40967e-06
2.40928e-06
2.4086e-06
2.40764e-06
2.40637e-06
2.40479e-06
2.40301e-06
2.4013e-06
2.40054e-06
2.40215e-06
2.40378e-06
2.40535e-06
2.4067e-06
2.40774e-06
2.40848e-06
2.40894e-06
2.40911e-06
2.409e-06
2.4086e-06
2.40792e-06
2.40695e-06
2.40567e-06
2.40407e-06
2.40228e-06
2.40057e-06
2.3995e-06
2.40111e-06
2.40275e-06
2.40435e-06
2.40571e-06
2.40677e-06
2.40752e-06
2.40798e-06
2.40815e-06
2.40804e-06
2.40764e-06
2.40695e-06
2.40597e-06
2.40467e-06
2.40305e-06
2.40123e-06
2.39952e-06
2.39814e-06
2.39973e-06
2.4014e-06
2.40303e-06
2.40441e-06
2.40548e-06
2.40625e-06
2.40672e-06
2.40689e-06
2.40678e-06
2.40637e-06
2.40567e-06
2.40467e-06
2.40335e-06
2.40171e-06
2.39986e-06
2.39816e-06
2.39636e-06
2.39799e-06
2.39972e-06
2.40138e-06
2.4028e-06
2.40389e-06
2.40466e-06
2.40514e-06
2.40532e-06
2.4052e-06
2.40479e-06
2.40407e-06
2.40305e-06
2.40171e-06
2.40002e-06
2.39813e-06
2.39638e-06
2.3945e-06
2.39612e-06
2.39782e-06
2.39953e-06
2.40097e-06
2.40209e-06
2.40289e-06
2.40338e-06
2.40356e-06
2.40344e-06
2.40302e-06
2.40228e-06
2.40124e-06
2.39986e-06
2.39813e-06
2.39626e-06
2.39452e-06
2.39243e-06
2.39436e-06
2.39607e-06
2.39783e-06
2.39926e-06
2.40038e-06
2.40117e-06
2.40166e-06
2.40185e-06
2.40172e-06
2.4013e-06
2.40057e-06
2.39952e-06
2.39816e-06
2.39638e-06
2.39452e-06
2.39245e-06
2.35161e-06
2.3534e-06
2.355e-06
2.35665e-06
2.35801e-06
2.35907e-06
2.35983e-06
2.36029e-06
2.36047e-06
2.36035e-06
2.35995e-06
2.35925e-06
2.35825e-06
2.35697e-06
2.35528e-06
2.35355e-06
2.35163e-06
2.3534e-06
2.35493e-06
2.35653e-06
2.35816e-06
2.35953e-06
2.3606e-06
2.36136e-06
2.36183e-06
2.36201e-06
2.3619e-06
2.36149e-06
2.36078e-06
2.35978e-06
2.35847e-06
2.35682e-06
2.35506e-06
2.35342e-06
2.355e-06
2.35653e-06
2.35816e-06
2.35975e-06
2.36111e-06
2.36216e-06
2.36292e-06
2.36338e-06
2.36355e-06
2.36344e-06
2.36304e-06
2.36234e-06
2.36136e-06
2.36007e-06
2.35845e-06
2.35666e-06
2.35502e-06
2.35665e-06
2.35816e-06
2.35975e-06
2.36131e-06
2.36265e-06
2.36369e-06
2.36443e-06
2.36489e-06
2.36506e-06
2.36495e-06
2.36455e-06
2.36387e-06
2.36289e-06
2.36162e-06
2.36004e-06
2.35828e-06
2.35667e-06
2.35801e-06
2.35953e-06
2.36111e-06
2.36265e-06
2.36397e-06
2.365e-06
2.36573e-06
2.36618e-06
2.36636e-06
2.36624e-06
2.36585e-06
2.36518e-06
2.36422e-06
2.36296e-06
2.3614e-06
2.35965e-06
2.35803e-06
2.35907e-06
2.3606e-06
2.36216e-06
2.36369e-06
2.365e-06
2.36601e-06
2.36674e-06
2.36719e-06
2.36736e-06
2.36725e-06
2.36686e-06
2.36619e-06
2.36524e-06
2.36399e-06
2.36245e-06
2.36072e-06
2.35909e-06
2.35983e-06
2.36136e-06
2.36291e-06
2.36443e-06
2.36573e-06
2.36674e-06
2.36746e-06
2.36791e-06
2.36808e-06
2.36797e-06
2.36758e-06
2.36692e-06
2.36597e-06
2.36473e-06
2.3632e-06
2.36149e-06
2.35985e-06
2.36029e-06
2.36183e-06
2.36338e-06
2.36489e-06
2.36618e-06
2.36719e-06
2.36791e-06
2.36835e-06
2.36852e-06
2.36841e-06
2.36802e-06
2.36736e-06
2.36642e-06
2.36519e-06
2.36366e-06
2.36196e-06
2.36031e-06
2.36047e-06
2.36201e-06
2.36355e-06
2.36506e-06
2.36636e-06
2.36736e-06
2.36808e-06
2.36852e-06
2.36869e-06
2.36858e-06
2.36819e-06
2.36753e-06
2.36659e-06
2.36536e-06
2.36383e-06
2.36214e-06
2.36049e-06
2.36035e-06
2.3619e-06
2.36344e-06
2.36495e-06
2.36625e-06
2.36725e-06
2.36797e-06
2.36841e-06
2.36858e-06
2.36847e-06
2.36808e-06
2.36742e-06
2.36648e-06
2.36525e-06
2.36372e-06
2.36202e-06
2.36037e-06
2.35995e-06
2.36149e-06
2.36304e-06
2.36455e-06
2.36585e-06
2.36686e-06
2.36758e-06
2.36802e-06
2.36819e-06
2.36808e-06
2.3677e-06
2.36703e-06
2.36609e-06
2.36485e-06
2.36332e-06
2.36161e-06
2.35997e-06
2.35925e-06
2.36078e-06
2.36234e-06
2.36387e-06
2.36518e-06
2.36619e-06
2.36692e-06
2.36736e-06
2.36753e-06
2.36742e-06
2.36703e-06
2.36637e-06
2.36542e-06
2.36417e-06
2.36263e-06
2.3609e-06
2.35927e-06
2.35826e-06
2.35978e-06
2.36136e-06
2.36289e-06
2.36422e-06
2.36524e-06
2.36597e-06
2.36642e-06
2.36659e-06
2.36648e-06
2.36609e-06
2.36542e-06
2.36446e-06
2.3632e-06
2.36164e-06
2.3599e-06
2.35828e-06
2.35697e-06
2.35847e-06
2.36007e-06
2.36162e-06
2.36296e-06
2.36399e-06
2.36473e-06
2.36519e-06
2.36536e-06
2.36525e-06
2.36485e-06
2.36417e-06
2.3632e-06
2.36193e-06
2.36036e-06
2.3586e-06
2.35699e-06
2.35528e-06
2.35682e-06
2.35845e-06
2.36004e-06
2.3614e-06
2.36245e-06
2.3632e-06
2.36366e-06
2.36384e-06
2.36372e-06
2.36332e-06
2.36263e-06
2.36164e-06
2.36036e-06
2.35875e-06
2.35695e-06
2.3553e-06
2.35355e-06
2.35507e-06
2.35666e-06
2.35828e-06
2.35965e-06
2.36072e-06
2.36149e-06
2.36196e-06
2.36214e-06
2.36202e-06
2.36161e-06
2.3609e-06
2.3599e-06
2.3586e-06
2.35695e-06
2.3552e-06
2.35357e-06
2.35164e-06
2.35342e-06
2.35502e-06
2.35668e-06
2.35803e-06
2.35909e-06
2.35985e-06
2.36031e-06
2.36049e-06
2.36038e-06
2.35997e-06
2.35927e-06
2.35828e-06
2.35699e-06
2.3553e-06
2.35357e-06
2.35165e-06
2.31302e-06
2.31463e-06
2.31607e-06
2.31758e-06
2.31881e-06
2.31979e-06
2.32048e-06
2.32091e-06
2.32108e-06
2.32097e-06
2.32059e-06
2.31995e-06
2.31904e-06
2.31787e-06
2.31632e-06
2.31476e-06
2.31304e-06
2.31463e-06
2.31601e-06
2.31746e-06
2.31895e-06
2.32021e-06
2.32119e-06
2.3219e-06
2.32234e-06
2.3225e-06
2.32239e-06
2.32201e-06
2.32136e-06
2.32043e-06
2.31924e-06
2.31772e-06
2.31613e-06
2.31464e-06
2.31607e-06
2.31746e-06
2.31895e-06
2.32041e-06
2.32166e-06
2.32264e-06
2.32334e-06
2.32377e-06
2.32393e-06
2.32382e-06
2.32345e-06
2.3228e-06
2.32189e-06
2.3207e-06
2.31922e-06
2.31758e-06
2.31609e-06
2.31758e-06
2.31895e-06
2.32041e-06
2.32185e-06
2.32309e-06
2.32406e-06
2.32475e-06
2.32517e-06
2.32534e-06
2.32523e-06
2.32486e-06
2.32422e-06
2.32331e-06
2.32213e-06
2.32068e-06
2.31906e-06
2.3176e-06
2.31881e-06
2.32021e-06
2.32166e-06
2.32309e-06
2.32432e-06
2.32528e-06
2.32597e-06
2.32639e-06
2.32655e-06
2.32645e-06
2.32608e-06
2.32544e-06
2.32455e-06
2.32337e-06
2.32193e-06
2.32031e-06
2.31883e-06
2.31979e-06
2.32119e-06
2.32264e-06
2.32405e-06
2.32528e-06
2.32623e-06
2.32691e-06
2.32733e-06
2.3275e-06
2.32739e-06
2.32702e-06
2.32639e-06
2.3255e-06
2.32434e-06
2.3229e-06
2.3213e-06
2.31981e-06
2.32048e-06
2.3219e-06
2.32334e-06
2.32475e-06
2.32597e-06
2.32691e-06
2.32759e-06
2.32801e-06
2.32817e-06
2.32807e-06
2.3277e-06
2.32708e-06
2.32619e-06
2.32503e-06
2.3236e-06
2.32201e-06
2.3205e-06
2.32091e-06
2.32234e-06
2.32377e-06
2.32517e-06
2.32639e-06
2.32733e-06
2.32801e-06
2.32843e-06
2.32859e-06
2.32849e-06
2.32812e-06
2.3275e-06
2.32661e-06
2.32545e-06
2.32403e-06
2.32245e-06
2.32093e-06
2.32108e-06
2.3225e-06
2.32393e-06
2.32534e-06
2.32655e-06
2.3275e-06
2.32817e-06
2.32859e-06
2.32875e-06
2.32865e-06
2.32828e-06
2.32766e-06
2.32677e-06
2.32562e-06
2.32419e-06
2.32261e-06
2.32109e-06
2.32097e-06
2.32239e-06
2.32382e-06
2.32523e-06