/*--------------------------------*- C++ -*----------------------------------*\
  =========                 |
  \\      /  F ield         | OpenFOAM: The Open Source CFD Toolbox
   \\    /   O peration     | Website:  https://openfoam.org
    \\  /    A nd           | Version:  6
     \\/     M anipulation  |
\*---------------------------------------------------------------------------*/
FoamFile
{
    version     2.0;
    format      ascii;
    class       volScalarField;
    location    "0";
    object      p;
}
// * * * * * * * * * * * * * * * * * * * * * * * * * * * * * * * * * * * * * //

dimensions      [0 2 -2 0 0 0 0];

internalField   nonuniform List<scalar> 
40000
(
0.0169177
0.0169187
0.0169199
0.0169205
0.0169203
0.016919
0.0169167
0.0169132
0.0169087
0.0169032
0.0168967
0.0168893
0.0168811
0.0168722
0.0168625
0.0168522
0.0168413
0.0168298
0.0168177
0.0168052
0.0167923
0.0167788
0.016765
0.0167507
0.016736
0.016721
0.0167055
0.0166897
0.0166735
0.016657
0.0166401
0.0166228
0.0166052
0.0165872
0.0165689
0.0165502
0.0165312
0.0165119
0.0164923
0.0164724
0.0164522
0.0164318
0.016411
0.0163901
0.0163689
0.0163475
0.016326
0.0163043
0.0162825
0.0162606
0.0162386
0.0162166
0.0161946
0.0161726
0.0161507
0.0161289
0.0161073
0.0160858
0.0160646
0.0160437
0.0160232
0.016003
0.0159832
0.015964
0.0159453
0.0159272
0.0159097
0.015893
0.0158771
0.0158619
0.0158477
0.0158344
0.0158222
0.0158109
0.0158009
0.0157919
0.0157843
0.0157778
0.0157727
0.015769
0.0157667
0.0157658
0.0157664
0.0157684
0.015772
0.0157771
0.0157837
0.0157919
0.0158015
0.0158127
0.0158253
0.0158394
0.0158548
0.0158716
0.0158897
0.015909
0.0159293
0.0159508
0.0159731
0.0159963
0.0160201
0.0160445
0.0160693
0.0160944
0.0161197
0.0161449
0.0161698
0.0161944
0.0162185
0.0162418
0.0162641
0.0162854
0.0163054
0.0163239
0.0163407
0.0163556
0.0163686
0.0163794
0.0163878
0.0163937
0.016397
0.0163975
0.0163951
0.0163896
0.0163811
0.0163694
0.0163545
0.0163362
0.0163146
0.0162897
0.0162615
0.0162299
0.0161951
0.0161571
0.0161159
0.0160716
0.0160245
0.0159744
0.0159218
0.0158665
0.0158089
0.0157491
0.0156873
0.0156236
0.0155583
0.0154916
0.0154237
0.0153548
0.0152851
0.0152148
0.0151442
0.0150734
0.0150026
0.0149321
0.0148621
0.0147927
0.0147241
0.0146565
0.0145901
0.0145249
0.0144612
0.0143991
0.0143386
0.01428
0.0142232
0.0141684
0.0141156
0.014065
0.0140165
0.0139702
0.0139262
0.0138845
0.013845
0.0138079
0.0137731
0.0137407
0.0137106
0.0136828
0.0136574
0.0136342
0.0136135
0.013595
0.0135788
0.0135649
0.0135533
0.013544
0.0135369
0.0135319
0.0135292
0.0135285
0.0135297
0.0135328
0.0135376
0.0135438
0.013551
0.0135587
0.0135664
0.0135732
0.013578
0.0135802
0.0169168
0.0169177
0.0169188
0.0169192
0.0169188
0.0169174
0.0169151
0.0169117
0.0169073
0.0169019
0.0168956
0.0168885
0.0168805
0.0168719
0.0168625
0.0168524
0.0168418
0.0168306
0.0168189
0.0168067
0.016794
0.0167808
0.0167672
0.0167532
0.0167388
0.016724
0.0167089
0.0166933
0.0166774
0.0166611
0.0166444
0.0166274
0.0166101
0.0165924
0.0165744
0.016556
0.0165373
0.0165183
0.016499
0.0164794
0.0164595
0.0164394
0.016419
0.0163983
0.0163775
0.0163565
0.0163353
0.0163139
0.0162924
0.0162709
0.0162492
0.0162276
0.0162059
0.0161843
0.0161627
0.0161412
0.0161199
0.0160988
0.0160779
0.0160573
0.016037
0.0160171
0.0159976
0.0159786
0.0159601
0.0159422
0.0159249
0.0159084
0.0158925
0.0158775
0.0158633
0.0158501
0.0158378
0.0158266
0.0158164
0.0158074
0.0157995
0.0157929
0.0157876
0.0157836
0.015781
0.0157797
0.0157798
0.0157815
0.0157845
0.0157891
0.0157951
0.0158026
0.0158115
0.0158219
0.0158338
0.015847
0.0158616
0.0158774
0.0158945
0.0159128
0.0159322
0.0159525
0.0159737
0.0159958
0.0160184
0.0160417
0.0160653
0.0160892
0.0161132
0.0161371
0.0161609
0.0161842
0.0162071
0.0162291
0.0162503
0.0162704
0.0162892
0.0163066
0.0163223
0.0163362
0.0163482
0.016358
0.0163655
0.0163706
0.0163731
0.0163729
0.0163698
0.0163638
0.0163548
0.0163427
0.0163274
0.0163089
0.0162871
0.0162621
0.0162338
0.0162024
0.0161677
0.0161299
0.016089
0.0160452
0.0159985
0.015949
0.015897
0.0158424
0.0157856
0.0157266
0.0156657
0.0156029
0.0155386
0.015473
0.0154061
0.0153383
0.0152698
0.0152006
0.0151312
0.0150616
0.0149921
0.0149228
0.014854
0.0147858
0.0147184
0.014652
0.0145867
0.0145227
0.01446
0.014399
0.0143396
0.0142819
0.0142261
0.0141722
0.0141203
0.0140705
0.0140228
0.0139773
0.013934
0.0138929
0.0138541
0.0138175
0.0137832
0.0137512
0.0137215
0.0136941
0.0136689
0.0136461
0.0136254
0.0136071
0.0135909
0.013577
0.0135653
0.0135558
0.0135484
0.0135432
0.0135399
0.0135387
0.0135393
0.0135416
0.0135455
0.0135506
0.0135567
0.0135633
0.01357
0.0135759
0.0135802
0.0135823
0.0169156
0.0169167
0.0169177
0.016918
0.0169174
0.016916
0.0169136
0.0169103
0.016906
0.0169008
0.0168948
0.0168879
0.0168802
0.0168719
0.0168628
0.0168531
0.0168429
0.016832
0.0168206
0.0168088
0.0167964
0.0167836
0.0167704
0.0167567
0.0167427
0.0167282
0.0167134
0.0166982
0.0166826
0.0166666
0.0166503
0.0166336
0.0166166
0.0165993
0.0165816
0.0165636
0.0165453
0.0165267
0.0165077
0.0164885
0.016469
0.0164493
0.0164293
0.0164091
0.0163887
0.0163681
0.0163473
0.0163264
0.0163053
0.0162842
0.016263
0.0162417
0.0162205
0.0161993
0.0161781
0.0161571
0.0161361
0.0161154
0.0160949
0.0160746
0.0160547
0.0160351
0.0160159
0.0159971
0.0159789
0.0159612
0.0159441
0.0159277
0.015912
0.015897
0.0158829
0.0158697
0.0158573
0.015846
0.0158357
0.0158265
0.0158185
0.0158116
0.0158059
0.0158015
0.0157984
0.0157967
0.0157963
0.0157973
0.0157997
0.0158035
0.0158088
0.0158154
0.0158235
0.015833
0.0158438
0.015856
0.0158694
0.0158841
0.0159
0.0159171
0.0159351
0.0159541
0.015974
0.0159946
0.0160159
0.0160377
0.0160598
0.0160822
0.0161048
0.0161272
0.0161495
0.0161713
0.0161927
0.0162133
0.016233
0.0162517
0.0162691
0.0162852
0.0162996
0.0163123
0.0163231
0.0163317
0.0163382
0.0163423
0.0163438
0.0163427
0.0163389
0.0163322
0.0163226
0.01631
0.0162943
0.0162754
0.0162535
0.0162283
0.0162
0.0161686
0.0161341
0.0160966
0.0160561
0.0160127
0.0159665
0.0159177
0.0158664
0.0158127
0.0157567
0.0156987
0.0156388
0.0155772
0.015514
0.0154496
0.015384
0.0153175
0.0152503
0.0151825
0.0151145
0.0150463
0.0149782
0.0149104
0.014843
0.0147763
0.0147103
0.0146453
0.0145814
0.0145188
0.0144575
0.0143978
0.0143397
0.0142832
0.0142286
0.0141759
0.0141251
0.0140764
0.0140297
0.0139851
0.0139427
0.0139024
0.0138643
0.0138285
0.0137948
0.0137634
0.0137342
0.0137072
0.0136824
0.0136599
0.0136395
0.0136213
0.0136052
0.0135913
0.0135795
0.0135697
0.0135621
0.0135564
0.0135526
0.0135507
0.0135505
0.0135519
0.0135548
0.0135588
0.0135638
0.0135693
0.0135749
0.0135802
0.0135845
0.0135871
0.016915
0.0169163
0.0169175
0.0169177
0.0169171
0.0169156
0.0169132
0.0169099
0.0169057
0.0169007
0.0168948
0.0168882
0.0168808
0.0168726
0.0168639
0.0168545
0.0168445
0.016834
0.0168229
0.0168113
0.0167993
0.0167868
0.0167739
0.0167605
0.0167468
0.0167326
0.0167181
0.0167032
0.0166879
0.0166723
0.0166563
0.01664
0.0166233
0.0166063
0.0165889
0.0165713
0.0165533
0.016535
0.0165164
0.0164976
0.0164785
0.0164591
0.0164395
0.0164196
0.0163996
0.0163794
0.016359
0.0163384
0.0163177
0.016297
0.0162762
0.0162553
0.0162344
0.0162135
0.0161927
0.016172
0.0161514
0.016131
0.0161108
0.0160908
0.0160711
0.0160517
0.0160328
0.0160142
0.0159961
0.0159786
0.0159616
0.0159453
0.0159296
0.0159147
0.0159006
0.0158873
0.0158749
0.0158634
0.0158529
0.0158435
0.0158352
0.015828
0.015822
0.0158172
0.0158136
0.0158114
0.0158104
0.0158108
0.0158126
0.0158157
0.0158202
0.015826
0.0158333
0.0158418
0.0158517
0.0158629
0.0158754
0.0158891
0.0159039
0.0159198
0.0159367
0.0159545
0.0159732
0.0159926
0.0160127
0.0160332
0.0160541
0.0160752
0.0160965
0.0161177
0.0161387
0.0161593
0.0161794
0.0161988
0.0162173
0.0162348
0.0162511
0.0162661
0.0162794
0.0162911
0.0163009
0.0163086
0.0163142
0.0163175
0.0163183
0.0163165
0.016312
0.0163048
0.0162947
0.0162816
0.0162655
0.0162464
0.0162243
0.016199
0.0161707
0.0161393
0.0161049
0.0160675
0.0160273
0.0159842
0.0159385
0.0158902
0.0158394
0.0157863
0.015731
0.0156737
0.0156146
0.0155539
0.0154916
0.0154282
0.0153636
0.0152981
0.015232
0.0151654
0.0150985
0.0150314
0.0149645
0.0148979
0.0148317
0.0147662
0.0147015
0.0146377
0.014575
0.0145135
0.0144534
0.0143948
0.0143378
0.0142825
0.0142289
0.0141772
0.0141274
0.0140796
0.0140338
0.0139901
0.0139485
0.013909
0.0138717
0.0138365
0.0138034
0.0137726
0.0137439
0.0137173
0.0136929
0.0136706
0.0136505
0.0136324
0.0136165
0.0136026
0.0135907
0.0135808
0.0135729
0.0135669
0.0135627
0.0135603
0.0135595
0.0135603
0.0135624
0.0135657
0.01357
0.0135749
0.0135801
0.0135854
0.0135904
0.013594
0.0169152
0.0169167
0.0169181
0.0169183
0.0169177
0.0169162
0.0169138
0.0169105
0.0169064
0.0169014
0.0168957
0.0168892
0.016882
0.0168741
0.0168656
0.0168564
0.0168467
0.0168364
0.0168256
0.0168143
0.0168026
0.0167904
0.0167778
0.0167647
0.0167513
0.0167374
0.0167232
0.0167086
0.0166936
0.0166783
0.0166626
0.0166466
0.0166302
0.0166135
0.0165965
0.0165791
0.0165615
0.0165436
0.0165253
0.0165068
0.016488
0.016469
0.0164497
0.0164303
0.0164106
0.0163907
0.0163706
0.0163504
0.0163301
0.0163097
0.0162892
0.0162687
0.0162481
0.0162276
0.0162071
0.0161866
0.0161663
0.0161462
0.0161262
0.0161064
0.016087
0.0160678
0.016049
0.0160306
0.0160126
0.0159952
0.0159782
0.0159619
0.0159463
0.0159313
0.0159171
0.0159037
0.0158911
0.0158794
0.0158687
0.015859
0.0158504
0.0158428
0.0158364
0.0158311
0.0158271
0.0158243
0.0158228
0.0158226
0.0158236
0.0158261
0.0158298
0.0158349
0.0158413
0.015849
0.015858
0.0158683
0.0158798
0.0158924
0.0159062
0.0159211
0.015937
0.0159537
0.0159713
0.0159896
0.0160085
0.0160279
0.0160477
0.0160677
0.0160879
0.0161079
0.0161278
0.0161474
0.0161664
0.0161847
0.0162022
0.0162187
0.0162341
0.016248
0.0162605
0.0162713
0.0162803
0.0162872
0.0162921
0.0162946
0.0162948
0.0162924
0.0162874
0.0162797
0.0162692
0.0162558
0.0162394
0.01622
0.0161977
0.0161723
0.0161439
0.0161125
0.0160782
0.016041
0.0160009
0.0159581
0.0159127
0.0158647
0.0158144
0.0157618
0.015707
0.0156503
0.0155919
0.0155318
0.0154703
0.0154076
0.0153439
0.0152793
0.0152141
0.0151484
0.0150824
0.0150164
0.0149505
0.0148849
0.0148197
0.0147552
0.0146915
0.0146288
0.0145672
0.0145068
0.0144477
0.0143901
0.0143341
0.0142798
0.0142272
0.0141765
0.0141276
0.0140807
0.0140358
0.0139929
0.013952
0.0139133
0.0138766
0.0138421
0.0138097
0.0137793
0.0137511
0.013725
0.013701
0.013679
0.0136591
0.0136413
0.0136254
0.0136116
0.0135997
0.0135897
0.0135816
0.0135753
0.0135708
0.013568
0.0135668
0.0135671
0.0135687
0.0135716
0.0135754
0.0135801
0.0135854
0.013591
0.013597
0.0136017
0.0169166
0.0169181
0.0169195
0.0169198
0.0169191
0.0169176
0.0169152
0.0169119
0.0169078
0.016903
0.0168973
0.016891
0.0168839
0.0168762
0.0168678
0.0168589
0.0168494
0.0168394
0.0168288
0.0168178
0.0168063
0.0167944
0.0167821
0.0167693
0.0167561
0.0167426
0.0167286
0.0167143
0.0166996
0.0166846
0.0166692
0.0166535
0.0166374
0.0166211
0.0166044
0.0165873
0.01657
0.0165524
0.0165345
0.0165163
0.0164978
0.0164791
0.0164602
0.0164411
0.0164217
0.0164021
0.0163824
0.0163625
0.0163425
0.0163224
0.0163022
0.016282
0.0162617
0.0162415
0.0162212
0.0162011
0.016181
0.016161
0.0161412
0.0161217
0.0161024
0.0160833
0.0160646
0.0160463
0.0160284
0.0160109
0.015994
0.0159777
0.0159619
0.0159469
0.0159325
0.0159189
0.0159061
0.0158942
0.0158832
0.0158732
0.0158641
0.0158562
0.0158493
0.0158435
0.015839
0.0158356
0.0158335
0.0158326
0.015833
0.0158347
0.0158376
0.0158419
0.0158475
0.0158544
0.0158625
0.0158719
0.0158824
0.0158942
0.015907
0.0159209
0.0159357
0.0159515
0.0159681
0.0159853
0.0160032
0.0160216
0.0160404
0.0160594
0.0160785
0.0160976
0.0161165
0.0161351
0.0161532
0.0161706
0.0161872
0.0162029
0.0162174
0.0162305
0.0162422
0.0162523
0.0162606
0.0162669
0.0162711
0.0162731
0.0162727
0.0162699
0.0162644
0.0162563
0.0162454
0.0162317
0.016215
0.0161955
0.016173
0.0161475
0.016119
0.0160876
0.0160533
0.0160162
0.0159763
0.0159337
0.0158885
0.0158408
0.0157908
0.0157385
0.0156842
0.015628
0.01557
0.0155105
0.0154496
0.0153876
0.0153245
0.0152606
0.0151961
0.0151312
0.015066
0.0150009
0.0149358
0.0148711
0.0148068
0.0147432
0.0146805
0.0146187
0.014558
0.0144985
0.0144404
0.0143838
0.0143287
0.0142753
0.0142236
0.0141737
0.0141257
0.0140797
0.0140356
0.0139935
0.0139534
0.0139154
0.0138794
0.0138455
0.0138136
0.0137839
0.0137562
0.0137305
0.0137069
0.0136853
0.0136656
0.013648
0.0136323
0.0136185
0.0136066
0.0135966
0.0135884
0.0135819
0.0135772
0.0135741
0.0135726
0.0135725
0.0135738
0.0135764
0.0135801
0.0135848
0.0135902
0.0135964
0.0136036
0.0136094
0.016919
0.0169206
0.016922
0.0169222
0.0169215
0.0169199
0.0169174
0.0169142
0.0169101
0.0169052
0.0168997
0.0168934
0.0168865
0.0168789
0.0168707
0.016862
0.0168527
0.0168429
0.0168326
0.0168218
0.0168105
0.0167989
0.0167868
0.0167743
0.0167614
0.0167481
0.0167344
0.0167204
0.016706
0.0166913
0.0166762
0.0166608
0.016645
0.0166289
0.0166125
0.0165958
0.0165788
0.0165614
0.0165438
0.016526
0.0165078
0.0164894
0.0164708
0.0164519
0.0164329
0.0164136
0.0163942
0.0163746
0.0163549
0.0163351
0.0163152
0.0162952
0.0162752
0.0162551
0.0162351
0.0162151
0.0161952
0.0161754
0.0161558
0.0161364
0.0161171
0.0160982
0.0160795
0.0160612
0.0160433
0.0160258
0.0160088
0.0159924
0.0159765
0.0159612
0.0159467
0.0159328
0.0159198
0.0159075
0.0158962
0.0158857
0.0158763
0.0158678
0.0158604
0.0158541
0.015849
0.015845
0.0158422
0.0158406
0.0158403
0.0158413
0.0158435
0.015847
0.0158517
0.0158577
0.015865
0.0158735
0.0158831
0.015894
0.0159059
0.0159188
0.0159327
0.0159476
0.0159632
0.0159795
0.0159965
0.016014
0.0160318
0.0160499
0.0160682
0.0160864
0.0161044
0.0161222
0.0161395
0.0161561
0.016172
0.0161869
0.0162007
0.0162132
0.0162242
0.0162337
0.0162414
0.0162472
0.0162509
0.0162524
0.0162516
0.0162483
0.0162425
0.0162341
0.0162229
0.0162089
0.0161921
0.0161724
0.0161497
0.0161241
0.0160956
0.0160642
0.0160299
0.0159929
0.015953
0.0159106
0.0158655
0.0158181
0.0157683
0.0157163
0.0156623
0.0156065
0.0155489
0.0154898
0.0154294
0.0153678
0.0153053
0.015242
0.0151781
0.0151138
0.0150493
0.0149848
0.0149205
0.0148565
0.014793
0.0147302
0.0146682
0.0146072
0.0145474
0.0144887
0.0144315
0.0143757
0.0143214
0.0142689
0.014218
0.014169
0.0141218
0.0140765
0.0140332
0.0139919
0.0139525
0.0139152
0.0138799
0.0138466
0.0138154
0.0137861
0.0137589
0.0137337
0.0137105
0.0136892
0.0136699
0.0136525
0.013637
0.0136233
0.0136115
0.0136015
0.0135932
0.0135866
0.0135817
0.0135785
0.0135767
0.0135765
0.0135776
0.01358
0.0135837
0.0135885
0.0135944
0.0136013
0.0136096
0.0136165
0.0169226
0.0169241
0.0169254
0.0169256
0.0169247
0.016923
0.0169205
0.0169172
0.0169131
0.0169082
0.0169027
0.0168965
0.0168897
0.0168822
0.0168742
0.0168656
0.0168565
0.0168468
0.0168367
0.0168262
0.0168152
0.0168037
0.0167919
0.0167796
0.016767
0.016754
0.0167406
0.0167268
0.0167127
0.0166982
0.0166834
0.0166683
0.0166528
0.016637
0.0166209
0.0166044
0.0165877
0.0165707
0.0165534
0.0165358
0.0165179
0.0164998
0.0164815
0.0164629
0.0164441
0.0164251
0.016406
0.0163866
0.0163672
0.0163476
0.0163279
0.0163081
0.0162883
0.0162684
0.0162486
0.0162288
0.016209
0.0161893
0.0161698
0.0161504
0.0161312
0.0161123
0.0160936
0.0160752
0.0160572
0.0160396
0.0160225
0.0160059
0.0159898
0.0159743
0.0159594
0.0159453
0.0159318
0.0159192
0.0159074
0.0158965
0.0158866
0.0158776
0.0158696
0.0158627
0.0158569
0.0158523
0.0158488
0.0158465
0.0158454
0.0158456
0.015847
0.0158497
0.0158536
0.0158588
0.0158652
0.0158728
0.0158816
0.0158915
0.0159026
0.0159146
0.0159277
0.0159416
0.0159564
0.0159718
0.015988
0.0160046
0.0160216
0.0160389
0.0160564
0.0160738
0.0160912
0.0161082
0.0161248
0.0161408
0.016156
0.0161703
0.0161835
0.0161955
0.0162061
0.016215
0.0162223
0.0162276
0.0162309
0.0162321
0.016231
0.0162274
0.0162213
0.0162127
0.0162013
0.0161871
0.0161701
0.0161503
0.0161275
0.0161019
0.0160733
0.0160419
0.0160076
0.0159706
0.0159308
0.0158884
0.0158435
0.0157962
0.0157466
0.0156948
0.0156411
0.0155855
0.0155282
0.0154695
0.0154094
0.0153482
0.0152861
0.0152232
0.0151598
0.015096
0.0150321
0.0149681
0.0149044
0.014841
0.0147782
0.014716
0.0146547
0.0145945
0.0145353
0.0144774
0.0144209
0.0143658
0.0143124
0.0142606
0.0142105
0.0141622
0.0141158
0.0140713
0.0140287
0.0139881
0.0139494
0.0139128
0.0138781
0.0138455
0.0138148
0.0137861
0.0137594
0.0137347
0.0137119
0.013691
0.013672
0.0136549
0.0136396
0.0136261
0.0136143
0.0136043
0.0135961
0.0135895
0.0135845
0.0135811
0.0135792
0.0135789
0.0135799
0.0135824
0.0135862
0.0135912
0.0135975
0.0136051
0.0136145
0.0136225
0.0169274
0.0169288
0.0169299
0.0169298
0.0169289
0.016927
0.0169244
0.016921
0.0169168
0.016912
0.0169064
0.0169003
0.0168935
0.0168861
0.0168782
0.0168697
0.0168608
0.0168513
0.0168414
0.016831
0.0168202
0.016809
0.0167974
0.0167854
0.016773
0.0167602
0.0167471
0.0167336
0.0167197
0.0167055
0.0166909
0.0166761
0.0166609
0.0166453
0.0166295
0.0166133
0.0165968
0.0165801
0.016563
0.0165457
0.0165281
0.0165103
0.0164922
0.0164739
0.0164553
0.0164366
0.0164177
0.0163985
0.0163793
0.0163599
0.0163404
0.0163208
0.0163011
0.0162814
0.0162616
0.0162419
0.0162222
0.0162026
0.0161831
0.0161637
0.0161445
0.0161255
0.0161067
0.0160882
0.0160701
0.0160523
0.0160349
0.016018
0.0160016
0.0159858
0.0159706
0.015956
0.0159422
0.0159291
0.0159168
0.0159054
0.0158948
0.0158852
0.0158766
0.0158691
0.0158626
0.0158572
0.015853
0.0158499
0.0158481
0.0158474
0.015848
0.0158499
0.0158529
0.0158573
0.0158628
0.0158695
0.0158775
0.0158865
0.0158967
0.0159079
0.0159201
0.0159332
0.0159472
0.0159619
0.0159772
0.0159931
0.0160094
0.016026
0.0160427
0.0160595
0.0160762
0.0160927
0.0161087
0.0161241
0.0161388
0.0161527
0.0161654
0.016177
0.0161871
0.0161957
0.0162026
0.0162077
0.0162107
0.0162116
0.0162103
0.0162065
0.0162003
0.0161914
0.0161799
0.0161656
0.0161485
0.0161286
0.0161058
0.0160801
0.0160516
0.0160201
0.0159859
0.0159489
0.0159092
0.0158669
0.0158221
0.0157749
0.0157254
0.0156738
0.0156202
0.0155648
0.0155078
0.0154493
0.0153895
0.0153286
0.0152668
0.0152042
0.0151412
0.0150778
0.0150143
0.0149508
0.0148875
0.0148246
0.0147623
0.0147007
0.01464
0.0145803
0.0145218
0.0144645
0.0144087
0.0143543
0.0143015
0.0142504
0.0142011
0.0141535
0.0141078
0.014064
0.0140221
0.0139821
0.0139441
0.0139081
0.0138741
0.0138421
0.013812
0.0137839
0.0137577
0.0137334
0.0137111
0.0136906
0.0136719
0.013655
0.01364
0.0136267
0.0136151
0.0136052
0.013597
0.0135904
0.0135854
0.0135819
0.01358
0.0135796
0.0135807
0.0135832
0.0135872
0.0135926
0.0135993
0.0136076
0.0136181
0.0136269
0.0169334
0.0169345
0.0169353
0.016935
0.0169338
0.0169318
0.0169291
0.0169255
0.0169213
0.0169164
0.0169108
0.0169046
0.0168979
0.0168906
0.0168827
0.0168744
0.0168656
0.0168562
0.0168465
0.0168363
0.0168257
0.0168147
0.0168033
0.0167915
0.0167793
0.0167668
0.0167539
0.0167406
0.016727
0.016713
0.0166987
0.0166841
0.0166691
0.0166539
0.0166383
0.0166223
0.0166061
0.0165896
0.0165728
0.0165557
0.0165384
0.0165208
0.0165029
0.0164848
0.0164665
0.0164479
0.0164292
0.0164103
0.0163912
0.0163719
0.0163525
0.0163331
0.0163135
0.0162938
0.0162742
0.0162545
0.0162348
0.0162151
0.0161956
0.0161761
0.0161568
0.0161376
0.0161187
0.0161
0.0160816
0.0160636
0.0160459
0.0160287
0.0160119
0.0159957
0.01598
0.015965
0.0159506
0.0159369
0.015924
0.015912
0.0159008
0.0158905
0.0158812
0.0158729
0.0158657
0.0158595
0.0158545
0.0158506
0.0158479
0.0158464
0.0158461
0.0158471
0.0158493
0.0158528
0.0158574
0.0158633
0.0158704
0.0158786
0.0158879
0.0158983
0.0159097
0.015922
0.0159352
0.0159491
0.0159638
0.0159789
0.0159946
0.0160105
0.0160267
0.0160429
0.0160591
0.016075
0.0160906
0.0161056
0.0161199
0.0161333
0.0161457
0.016157
0.0161668
0.0161752
0.0161819
0.0161867
0.0161896
0.0161904
0.0161889
0.016185
0.0161787
0.0161698
0.0161582
0.0161439
0.0161268
0.0161069
0.0160841
0.0160584
0.0160299
0.0159985
0.0159643
0.0159274
0.0158877
0.0158455
0.0158008
0.0157537
0.0157043
0.0156528
0.0155994
0.0155441
0.0154872
0.0154289
0.0153693
0.0153086
0.0152471
0.0151848
0.015122
0.0150589
0.0149957
0.0149326
0.0148697
0.0148072
0.0147454
0.0146842
0.014624
0.0145648
0.0145068
0.0144501
0.0143949
0.0143411
0.0142889
0.0142385
0.0141897
0.0141428
0.0140977
0.0140546
0.0140133
0.0139741
0.0139367
0.0139014
0.0138679
0.0138365
0.013807
0.0137794
0.0137537
0.01373
0.013708
0.0136879
0.0136696
0.0136531
0.0136383
0.0136252
0.0136138
0.013604
0.0135959
0.0135894
0.0135844
0.013581
0.0135791
0.0135788
0.0135799
0.0135825
0.0135867
0.0135924
0.0135996
0.0136086
0.0136199
0.0136296
0.0169404
0.0169412
0.0169416
0.0169411
0.0169396
0.0169374
0.0169345
0.0169308
0.0169264
0.0169214
0.0169158
0.0169096
0.0169029
0.0168956
0.0168878
0.0168795
0.0168708
0.0168616
0.016852
0.016842
0.0168316
0.0168207
0.0168095
0.0167979
0.016786
0.0167736
0.0167609
0.0167479
0.0167345
0.0167208
0.0167067
0.0166923
0.0166776
0.0166626
0.0166472
0.0166315
0.0166155
0.0165993
0.0165827
0.0165658
0.0165487
0.0165312
0.0165136
0.0164956
0.0164775
0.0164591
0.0164405
0.0164217
0.0164027
0.0163836
0.0163643
0.0163449
0.0163253
0.0163057
0.016286
0.0162663
0.0162465
0.0162268
0.0162071
0.0161875
0.016168
0.0161486
0.0161294
0.0161104
0.0160917
0.0160733
0.0160553
0.0160376
0.0160203
0.0160036
0.0159874
0.0159718
0.0159568
0.0159425
0.0159289
0.0159161
0.0159042
0.0158931
0.015883
0.0158739
0.0158658
0.0158588
0.0158529
0.0158481
0.0158446
0.0158422
0.015841
0.015841
0.0158423
0.0158449
0.0158487
0.0158537
0.0158598
0.0158672
0.0158757
0.0158853
0.0158959
0.0159074
0.0159199
0.0159331
0.0159471
0.0159616
0.0159767
0.0159921
0.0160077
0.0160234
0.0160391
0.0160547
0.0160698
0.0160845
0.0160985
0.0161117
0.0161239
0.0161349
0.0161446
0.0161528
0.0161594
0.0161642
0.016167
0.0161677
0.0161662
0.0161624
0.0161561
0.0161472
0.0161357
0.0161214
0.0161044
0.0160845
0.0160618
0.0160362
0.0160078
0.0159765
0.0159424
0.0159056
0.015866
0.0158239
0.0157793
0.0157323
0.015683
0.0156316
0.0155783
0.0155232
0.0154664
0.0154082
0.0153488
0.0152883
0.0152269
0.0151648
0.0151022
0.0150394
0.0149764
0.0149136
0.014851
0.0147889
0.0147273
0.0146666
0.0146068
0.014548
0.0144905
0.0144343
0.0143795
0.0143262
0.0142746
0.0142247
0.0141766
0.0141302
0.0140858
0.0140432
0.0140026
0.0139639
0.0139272
0.0138924
0.0138596
0.0138288
0.0137998
0.0137728
0.0137476
0.0137243
0.0137028
0.0136831
0.0136652
0.013649
0.0136345
0.0136216
0.0136104
0.0136009
0.0135929
0.0135864
0.0135815
0.0135782
0.0135764
0.0135761
0.0135774
0.0135802
0.0135845
0.0135906
0.0135982
0.0136077
0.0136198
0.0136302
0.0169484
0.0169489
0.0169489
0.016948
0.0169463
0.0169438
0.0169406
0.0169367
0.0169322
0.0169271
0.0169214
0.0169151
0.0169084
0.0169011
0.0168934
0.0168852
0.0168765
0.0168674
0.016858
0.0168481
0.0168378
0.0168271
0.0168161
0.0168047
0.0167929
0.0167808
0.0167683
0.0167555
0.0167423
0.0167288
0.016715
0.0167008
0.0166863
0.0166714
0.0166563
0.0166408
0.016625
0.0166089
0.0165925
0.0165758
0.0165589
0.0165416
0.0165241
0.0165063
0.0164883
0.01647
0.0164515
0.0164328
0.0164139
0.0163948
0.0163755
0.0163561
0.0163365
0.0163169
0.0162971
0.0162772
0.0162574
0.0162374
0.0162175
0.0161977
0.0161779
0.0161582
0.0161387
0.0161193
0.0161002
0.0160813
0.0160627
0.0160445
0.0160267
0.0160094
0.0159925
0.0159762
0.0159605
0.0159454
0.015931
0.0159175
0.0159047
0.0158928
0.0158818
0.0158717
0.0158627
0.0158548
0.0158479
0.0158422
0.0158376
0.0158343
0.0158321
0.0158312
0.0158315
0.0158331
0.015836
0.0158401
0.0158454
0.0158519
0.0158595
0.0158683
0.0158781
0.0158889
0.0159007
0.0159133
0.0159266
0.0159405
0.015955
0.0159699
0.0159851
0.0160004
0.0160157
0.0160309
0.0160458
0.0160602
0.016074
0.0160871
0.0160991
0.01611
0.0161197
0.0161279
0.0161345
0.0161393
0.0161422
0.016143
0.0161416
0.0161378
0.0161317
0.016123
0.0161116
0.0160975
0.0160807
0.016061
0.0160384
0.016013
0.0159848
0.0159536
0.0159197
0.015883
0.0158436
0.0158016
0.0157572
0.0157103
0.0156612
0.0156099
0.0155567
0.0155017
0.0154451
0.015387
0.0153277
0.0152673
0.0152061
0.0151441
0.0150817
0.0150191
0.0149563
0.0148937
0.0148313
0.0147694
0.0147082
0.0146478
0.0145883
0.0145299
0.0144727
0.0144169
0.0143626
0.0143098
0.0142587
0.0142093
0.0141616
0.0141159
0.014072
0.01403
0.0139899
0.0139518
0.0139157
0.0138815
0.0138492
0.0138189
0.0137905
0.013764
0.0137394
0.0137165
0.0136955
0.0136762
0.0136587
0.0136428
0.0136286
0.013616
0.0136051
0.0135957
0.0135879
0.0135816
0.0135768
0.0135736
0.0135718
0.0135717
0.013573
0.013576
0.0135806
0.0135869
0.0135949
0.0136049
0.0136176
0.0136285
0.0169574
0.0169575
0.016957
0.0169557
0.0169536
0.0169508
0.0169474
0.0169433
0.0169386
0.0169333
0.0169275
0.0169212
0.0169144
0.0169071
0.0168994
0.0168912
0.0168827
0.0168737
0.0168643
0.0168545
0.0168444
0.0168339
0.016823
0.0168117
0.0168002
0.0167882
0.0167759
0.0167633
0.0167503
0.016737
0.0167234
0.0167094
0.016695
0.0166804
0.0166654
0.0166501
0.0166345
0.0166186
0.0166024
0.0165858
0.016569
0.0165519
0.0165345
0.0165168
0.0164988
0.0164806
0.0164622
0.0164435
0.0164246
0.0164055
0.0163861
0.0163666
0.016347
0.0163272
0.0163072
0.0162872
0.0162671
0.0162469
0.0162267
0.0162065
0.0161864
0.0161663
0.0161463
0.0161264
0.0161068
0.0160873
0.0160681
0.0160493
0.0160308
0.0160127
0.015995
0.0159779
0.0159613
0.0159454
0.0159302
0.0159156
0.0159019
0.015889
0.015877
0.015866
0.0158559
0.0158469
0.015839
0.0158322
0.0158266
0.0158222
0.015819
0.0158171
0.0158164
0.015817
0.0158189
0.015822
0.0158264
0.015832
0.0158388
0.0158468
0.0158558
0.0158659
0.0158769
0.0158888
0.0159016
0.015915
0.0159289
0.0159434
0.0159582
0.0159731
0.0159881
0.0160031
0.0160178
0.016032
0.0160457
0.0160587
0.0160707
0.0160817
0.0160914
0.0160997
0.0161064
0.0161113
0.0161144
0.0161154
0.0161142
0.0161108
0.0161049
0.0160964
0.0160853
0.0160715
0.016055
0.0160356
0.0160133
0.0159882
0.0159602
0.0159294
0.0158957
0.0158592
0.0158201
0.0157783
0.015734
0.0156874
0.0156384
0.0155873
0.0155343
0.0154794
0.0154229
0.015365
0.0153058
0.0152456
0.0151844
0.0151227
0.0150604
0.0149979
0.0149353
0.0148728
0.0148107
0.014749
0.014688
0.0146278
0.0145686
0.0145105
0.0144537
0.0143982
0.0143443
0.0142919
0.0142412
0.0141922
0.014145
0.0140997
0.0140564
0.0140149
0.0139754
0.0139378
0.0139022
0.0138686
0.0138369
0.0138071
0.0137792
0.0137532
0.0137291
0.0137067
0.0136861
0.0136672
0.0136501
0.0136346
0.0136207
0.0136084
0.0135977
0.0135885
0.0135809
0.0135748
0.0135701
0.013567
0.0135654
0.0135654
0.0135669
0.01357
0.0135748
0.0135813
0.0135896
0.0136
0.0136133
0.0136246
0.0169673
0.0169669
0.0169659
0.0169642
0.0169617
0.0169586
0.0169548
0.0169505
0.0169456
0.0169401
0.0169342
0.0169278
0.0169209
0.0169136
0.0169059
0.0168977
0.0168892
0.0168803
0.016871
0.0168613
0.0168513
0.0168409
0.0168302
0.0168191
0.0168077
0.0167959
0.0167838
0.0167713
0.0167585
0.0167454
0.0167319
0.0167181
0.0167039
0.0166894
0.0166746
0.0166595
0.016644
0.0166282
0.0166121
0.0165957
0.0165789
0.0165619
0.0165446
0.0165269
0.016509
0.0164908
0.0164723
0.0164536
0.0164347
0.0164154
0.016396
0.0163764
0.0163565
0.0163365
0.0163163
0.016296
0.0162756
0.016255
0.0162344
0.0162138
0.0161932
0.0161725
0.016152
0.0161315
0.0161112
0.016091
0.0160711
0.0160515
0.0160321
0.0160132
0.0159946
0.0159766
0.0159591
0.0159421
0.0159258
0.0159103
0.0158954
0.0158815
0.0158683
0.0158562
0.015845
0.0158348
0.0158257
0.0158178
0.015811
0.0158055
0.0158012
0.0157981
0.0157964
0.0157959
0.0157967
0.0157989
0.0158023
0.015807
0.0158129
0.01582
0.0158282
0.0158375
0.0158479
0.0158592
0.0158713
0.0158842
0.0158977
0.0159117
0.0159261
0.0159408
0.0159556
0.0159703
0.0159849
0.0159991
0.0160127
0.0160257
0.0160378
0.0160489
0.0160588
0.0160673
0.0160743
0.0160795
0.0160829
0.0160842
0.0160835
0.0160804
0.0160749
0.0160668
0.0160562
0.0160428
0.0160267
0.0160077
0.0159859
0.0159612
0.0159336
0.0159031
0.0158698
0.0158338
0.0157949
0.0157535
0.0157095
0.0156631
0.0156144
0.0155636
0.0155107
0.0154561
0.0153998
0.015342
0.015283
0.0152229
0.0151619
0.0151002
0.0150381
0.0149758
0.0149133
0.014851
0.014789
0.0147275
0.0146667
0.0146067
0.0145477
0.0144899
0.0144333
0.0143782
0.0143245
0.0142725
0.0142222
0.0141736
0.0141269
0.014082
0.0140391
0.0139981
0.0139591
0.013922
0.0138869
0.0138538
0.0138226
0.0137933
0.013766
0.0137404
0.0137168
0.0136949
0.0136747
0.0136563
0.0136395
0.0136244
0.0136108
0.0135988
0.0135884
0.0135794
0.013572
0.0135661
0.0135616
0.0135586
0.0135571
0.0135572
0.0135588
0.0135621
0.013567
0.0135738
0.0135823
0.013593
0.0136066
0.0136182
0.0169781
0.0169772
0.0169756
0.0169734
0.0169705
0.0169669
0.0169629
0.0169582
0.0169531
0.0169474
0.0169413
0.0169348
0.0169279
0.0169205
0.0169127
0.0169046
0.0168961
0.0168872
0.016878
0.0168684
0.0168585
0.0168482
0.0168376
0.0168267
0.0168154
0.0168038
0.0167918
0.0167795
0.0167668
0.0167539
0.0167405
0.0167269
0.0167128
0.0166985
0.0166838
0.0166688
0.0166534
0.0166377
0.0166217
0.0166053
0.0165886
0.0165716
0.0165543
0.0165367
0.0165187
0.0165005
0.0164819
0.0164631
0.016444
0.0164246
0.016405
0.0163851
0.016365
0.0163447
0.0163242
0.0163035
0.0162826
0.0162616
0.0162405
0.0162193
0.0161981
0.0161768
0.0161555
0.0161343
0.0161132
0.0160922
0.0160714
0.0160509
0.0160306
0.0160106
0.015991
0.0159719
0.0159532
0.0159352
0.0159177
0.0159009
0.0158849
0.0158696
0.0158553
0.0158418
0.0158293
0.0158179
0.0158075
0.0157983
0.0157903
0.0157835
0.015778
0.0157737
0.0157708
0.0157692
0.0157689
0.0157699
0.0157723
0.015776
0.015781
0.0157872
0.0157946
0.0158031
0.0158128
0.0158234
0.0158349
0.0158473
0.0158604
0.015874
0.0158881
0.0159025
0.0159171
0.0159317
0.0159462
0.0159604
0.0159742
0.0159873
0.0159996
0.0160109
0.0160211
0.0160299
0.0160373
0.0160429
0.0160468
0.0160486
0.0160484
0.0160458
0.0160409
0.0160334
0.0160234
0.0160106
0.0159951
0.0159767
0.0159555
0.0159313
0.0159043
0.0158744
0.0158416
0.015806
0.0157677
0.0157267
0.0156831
0.0156371
0.0155888
0.0155383
0.0154857
0.0154314
0.0153753
0.0153178
0.015259
0.0151991
0.0151383
0.0150768
0.0150148
0.0149526
0.0148903
0.0148282
0.0147663
0.014705
0.0146443
0.0145845
0.0145258
0.0144681
0.0144118
0.0143569
0.0143036
0.0142518
0.0142018