/*--------------------------------*- C++ -*----------------------------------*\
  =========                 |
  \\      /  F ield         | OpenFOAM: The Open Source CFD Toolbox
   \\    /   O peration     | Website:  https://openfoam.org
    \\  /    A nd           | Version:  6
     \\/     M anipulation  |
\*---------------------------------------------------------------------------*/
FoamFile
{
    version     2.0;
    format      ascii;
    class       volScalarField;
    location    "0";
    object      p;
}
// * * * * * * * * * * * * * * * * * * * * * * * * * * * * * * * * * * * * * //

dimensions      [0 2 -2 0 0 0 0];

internalField   nonuniform List<scalar> 
145945
(
2.67912e-06
2.67871e-06
2.67859e-06
2.67851e-06
2.67856e-06
2.67858e-06
2.67863e-06
2.67866e-06
2.67869e-06
2.67868e-06
2.67868e-06
2.67865e-06
2.67866e-06
2.67863e-06
2.67875e-06
2.67884e-06
2.67929e-06
2.67871e-06
2.67848e-06
2.67839e-06
2.67835e-06
2.6784e-06
2.67842e-06
2.67847e-06
2.6785e-06
2.67853e-06
2.67853e-06
2.67853e-06
2.6785e-06
2.6785e-06
2.67848e-06
2.67856e-06
2.67862e-06
2.67888e-06
2.67859e-06
2.67839e-06
2.67829e-06
2.67829e-06
2.67834e-06
2.67838e-06
2.67844e-06
2.67847e-06
2.6785e-06
2.6785e-06
2.67849e-06
2.67846e-06
2.67846e-06
2.67843e-06
2.67848e-06
2.67855e-06
2.67877e-06
2.67851e-06
2.67835e-06
2.67829e-06
2.67833e-06
2.67839e-06
2.67844e-06
2.67849e-06
2.67853e-06
2.67855e-06
2.67856e-06
2.67855e-06
2.67852e-06
2.6785e-06
2.67848e-06
2.67849e-06
2.67853e-06
2.67869e-06
2.67856e-06
2.6784e-06
2.67834e-06
2.67839e-06
2.67845e-06
2.6785e-06
2.67855e-06
2.67859e-06
2.67862e-06
2.67862e-06
2.67861e-06
2.67859e-06
2.67857e-06
2.67855e-06
2.67855e-06
2.67858e-06
2.67874e-06
2.67858e-06
2.67842e-06
2.67838e-06
2.67844e-06
2.6785e-06
2.67856e-06
2.67861e-06
2.67865e-06
2.67867e-06
2.67868e-06
2.67867e-06
2.67865e-06
2.67863e-06
2.6786e-06
2.67859e-06
2.67861e-06
2.67876e-06
2.67863e-06
2.67847e-06
2.67844e-06
2.67849e-06
2.67855e-06
2.67861e-06
2.67866e-06
2.6787e-06
2.67872e-06
2.67873e-06
2.67872e-06
2.6787e-06
2.67868e-06
2.67866e-06
2.67865e-06
2.67866e-06
2.67882e-06
2.67866e-06
2.6785e-06
2.67847e-06
2.67853e-06
2.67859e-06
2.67865e-06
2.6787e-06
2.67874e-06
2.67876e-06
2.67877e-06
2.67876e-06
2.67874e-06
2.67872e-06
2.67869e-06
2.67868e-06
2.67869e-06
2.67885e-06
2.67869e-06
2.67853e-06
2.6785e-06
2.67855e-06
2.67862e-06
2.67867e-06
2.67872e-06
2.67876e-06
2.67879e-06
2.67879e-06
2.67879e-06
2.67877e-06
2.67874e-06
2.67872e-06
2.67871e-06
2.67872e-06
2.67888e-06
2.67868e-06
2.67853e-06
2.6785e-06
2.67856e-06
2.67862e-06
2.67868e-06
2.67873e-06
2.67877e-06
2.67879e-06
2.6788e-06
2.67879e-06
2.67877e-06
2.67875e-06
2.67872e-06
2.67871e-06
2.67872e-06
2.67887e-06
2.67868e-06
2.67853e-06
2.67849e-06
2.67855e-06
2.67861e-06
2.67867e-06
2.67872e-06
2.67876e-06
2.67879e-06
2.67879e-06
2.67878e-06
2.67876e-06
2.67874e-06
2.67871e-06
2.6787e-06
2.67872e-06
2.67887e-06
2.67865e-06
2.6785e-06
2.67847e-06
2.67852e-06
2.67859e-06
2.67865e-06
2.6787e-06
2.67874e-06
2.67877e-06
2.67877e-06
2.67876e-06
2.67874e-06
2.67872e-06
2.67869e-06
2.67867e-06
2.67869e-06
2.67884e-06
2.67866e-06
2.6785e-06
2.67846e-06
2.67851e-06
2.67857e-06
2.67863e-06
2.67868e-06
2.67872e-06
2.67874e-06
2.67875e-06
2.67874e-06
2.67872e-06
2.67869e-06
2.67867e-06
2.67866e-06
2.67869e-06
2.67885e-06
2.67863e-06
2.67848e-06
2.67843e-06
2.67848e-06
2.67855e-06
2.6786e-06
2.67866e-06
2.67869e-06
2.67872e-06
2.67872e-06
2.67872e-06
2.67869e-06
2.67867e-06
2.67864e-06
2.67863e-06
2.67866e-06
2.67882e-06
2.67875e-06
2.67856e-06
2.67848e-06
2.67849e-06
2.67855e-06
2.67859e-06
2.67865e-06
2.67868e-06
2.67871e-06
2.67871e-06
2.6787e-06
2.67867e-06
2.67866e-06
2.67864e-06
2.67867e-06
2.67873e-06
2.67893e-06
2.67884e-06
2.67863e-06
2.67855e-06
2.67853e-06
2.67858e-06
2.67861e-06
2.67866e-06
2.67869e-06
2.67872e-06
2.67872e-06
2.67872e-06
2.67869e-06
2.67869e-06
2.67866e-06
2.67873e-06
2.67878e-06
2.67901e-06
2.67929e-06
2.67888e-06
2.67877e-06
2.6787e-06
2.67875e-06
2.67877e-06
2.67882e-06
2.67885e-06
2.67888e-06
2.67887e-06
2.67887e-06
2.67884e-06
2.67885e-06
2.67882e-06
2.67893e-06
2.67901e-06
2.67945e-06
2.60733e-06
2.60719e-06
2.60728e-06
2.60739e-06
2.60758e-06
2.60773e-06
2.60788e-06
2.60797e-06
2.60801e-06
2.608e-06
2.60793e-06
2.60782e-06
2.60768e-06
2.60751e-06
2.60742e-06
2.60729e-06
2.60744e-06
2.60719e-06
2.6072e-06
2.60734e-06
2.60751e-06
2.60772e-06
2.6079e-06
2.60805e-06
2.60815e-06
2.6082e-06
2.60819e-06
2.60811e-06
2.60799e-06
2.60783e-06
2.60764e-06
2.60749e-06
2.60733e-06
2.6073e-06
2.60728e-06
2.60734e-06
2.6075e-06
2.60771e-06
2.60794e-06
2.60814e-06
2.60831e-06
2.60842e-06
2.60848e-06
2.60846e-06
2.60838e-06
2.60824e-06
2.60806e-06
2.60785e-06
2.60765e-06
2.60748e-06
2.6074e-06
2.60739e-06
2.60751e-06
2.60771e-06
2.60796e-06
2.60821e-06
2.60843e-06
2.60861e-06
2.60873e-06
2.60878e-06
2.60876e-06
2.60868e-06
2.60853e-06
2.60834e-06
2.60811e-06
2.60788e-06
2.60766e-06
2.60752e-06
2.60758e-06
2.60772e-06
2.60794e-06
2.60821e-06
2.60848e-06
2.60871e-06
2.60889e-06
2.60902e-06
2.60907e-06
2.60905e-06
2.60897e-06
2.60881e-06
2.60861e-06
2.60837e-06
2.60812e-06
2.60787e-06
2.6077e-06
2.60773e-06
2.6079e-06
2.60814e-06
2.60843e-06
2.60871e-06
2.60895e-06
2.60914e-06
2.60926e-06
2.60932e-06
2.6093e-06
2.60921e-06
2.60906e-06
2.60885e-06
2.6086e-06
2.60833e-06
2.60806e-06
2.60786e-06
2.60788e-06
2.60805e-06
2.60831e-06
2.60861e-06
2.6089e-06
2.60914e-06
2.60933e-06
2.60946e-06
2.60951e-06
2.60949e-06
2.6094e-06
2.60925e-06
2.60903e-06
2.60878e-06
2.6085e-06
2.60822e-06
2.60801e-06
2.60797e-06
2.60815e-06
2.60842e-06
2.60873e-06
2.60902e-06
2.60926e-06
2.60946e-06
2.60958e-06
2.60964e-06
2.60962e-06
2.60953e-06
2.60937e-06
2.60916e-06
2.6089e-06
2.60861e-06
2.60832e-06
2.6081e-06
2.60801e-06
2.6082e-06
2.60848e-06
2.60878e-06
2.60907e-06
2.60932e-06
2.60951e-06
2.60964e-06
2.6097e-06
2.60968e-06
2.60959e-06
2.60943e-06
2.60921e-06
2.60895e-06
2.60867e-06
2.60837e-06
2.60815e-06
2.608e-06
2.60819e-06
2.60846e-06
2.60876e-06
2.60905e-06
2.6093e-06
2.60949e-06
2.60962e-06
2.60968e-06
2.60966e-06
2.60957e-06
2.60941e-06
2.6092e-06
2.60893e-06
2.60865e-06
2.60835e-06
2.60813e-06
2.60793e-06
2.60812e-06
2.60838e-06
2.60868e-06
2.60897e-06
2.60921e-06
2.6094e-06
2.60953e-06
2.60959e-06
2.60957e-06
2.60948e-06
2.60932e-06
2.60911e-06
2.60885e-06
2.60857e-06
2.60828e-06
2.60806e-06
2.60782e-06
2.60799e-06
2.60824e-06
2.60853e-06
2.60881e-06
2.60906e-06
2.60925e-06
2.60937e-06
2.60943e-06
2.60941e-06
2.60932e-06
2.60916e-06
2.60895e-06
2.6087e-06
2.60842e-06
2.60815e-06
2.60794e-06
2.60768e-06
2.60783e-06
2.60806e-06
2.60834e-06
2.60861e-06
2.60885e-06
2.60904e-06
2.60916e-06
2.60921e-06
2.6092e-06
2.60911e-06
2.60895e-06
2.60875e-06
2.6085e-06
2.60824e-06
2.60799e-06
2.60781e-06
2.60751e-06
2.60764e-06
2.60785e-06
2.60811e-06
2.60837e-06
2.6086e-06
2.60878e-06
2.6089e-06
2.60895e-06
2.60893e-06
2.60885e-06
2.6087e-06
2.6085e-06
2.60826e-06
2.60802e-06
2.60779e-06
2.60764e-06
2.60742e-06
2.60749e-06
2.60765e-06
2.60788e-06
2.60812e-06
2.60833e-06
2.6085e-06
2.60861e-06
2.60867e-06
2.60865e-06
2.60857e-06
2.60842e-06
2.60824e-06
2.60802e-06
2.60782e-06
2.60763e-06
2.60754e-06
2.6073e-06
2.60733e-06
2.60748e-06
2.60766e-06
2.60787e-06
2.60806e-06
2.60822e-06
2.60832e-06
2.60837e-06
2.60836e-06
2.60828e-06
2.60815e-06
2.60799e-06
2.60779e-06
2.60763e-06
2.60746e-06
2.60741e-06
2.60744e-06
2.6073e-06
2.6074e-06
2.60752e-06
2.6077e-06
2.60786e-06
2.60801e-06
2.6081e-06
2.60815e-06
2.60813e-06
2.60806e-06
2.60795e-06
2.60781e-06
2.60764e-06
2.60754e-06
2.60741e-06
2.60755e-06
2.55924e-06
2.56012e-06
2.56094e-06
2.56166e-06
2.56232e-06
2.56281e-06
2.56317e-06
2.56339e-06
2.56347e-06
2.56342e-06
2.56324e-06
2.56291e-06
2.56246e-06
2.56182e-06
2.56108e-06
2.56017e-06
2.55926e-06
2.56012e-06
2.56092e-06
2.56171e-06
2.56244e-06
2.56309e-06
2.56358e-06
2.56394e-06
2.56415e-06
2.56424e-06
2.56419e-06
2.56401e-06
2.56368e-06
2.56322e-06
2.5626e-06
2.56185e-06
2.56097e-06
2.56014e-06
2.56094e-06
2.56171e-06
2.56245e-06
2.56315e-06
2.56378e-06
2.56426e-06
2.56461e-06
2.56483e-06
2.56491e-06
2.56486e-06
2.56468e-06
2.56436e-06
2.56391e-06
2.56331e-06
2.56258e-06
2.56176e-06
2.56096e-06
2.56166e-06
2.56244e-06
2.56315e-06
2.56384e-06
2.56444e-06
2.56492e-06
2.56526e-06
2.56548e-06
2.56556e-06
2.56551e-06
2.56533e-06
2.56502e-06
2.56457e-06
2.56398e-06
2.56327e-06
2.56248e-06
2.56169e-06
2.56232e-06
2.56309e-06
2.56378e-06
2.56444e-06
2.56503e-06
2.5655e-06
2.56584e-06
2.56605e-06
2.56613e-06
2.56609e-06
2.56591e-06
2.5656e-06
2.56517e-06
2.56459e-06
2.56389e-06
2.56312e-06
2.56234e-06
2.56281e-06
2.56358e-06
2.56426e-06
2.56492e-06
2.5655e-06
2.56597e-06
2.5663e-06
2.56651e-06
2.56659e-06
2.56654e-06
2.56637e-06
2.56607e-06
2.56563e-06
2.56506e-06
2.56437e-06
2.56362e-06
2.56284e-06
2.56317e-06
2.56394e-06
2.56461e-06
2.56526e-06
2.56584e-06
2.5663e-06
2.56664e-06
2.56684e-06
2.56692e-06
2.56688e-06
2.5667e-06
2.5664e-06
2.56597e-06
2.56541e-06
2.56472e-06
2.56398e-06
2.5632e-06
2.56339e-06
2.56415e-06
2.56483e-06
2.56548e-06
2.56605e-06
2.56651e-06
2.56684e-06
2.56705e-06
2.56713e-06
2.56708e-06
2.56691e-06
2.56661e-06
2.56618e-06
2.56562e-06
2.56494e-06
2.56419e-06
2.56341e-06
2.56347e-06
2.56424e-06
2.56491e-06
2.56556e-06
2.56613e-06
2.56659e-06
2.56692e-06
2.56713e-06
2.56721e-06
2.56716e-06
2.56699e-06
2.56669e-06
2.56626e-06
2.5657e-06
2.56502e-06
2.56428e-06
2.5635e-06
2.56342e-06
2.56419e-06
2.56486e-06
2.56551e-06
2.56609e-06
2.56654e-06
2.56688e-06
2.56708e-06
2.56716e-06
2.56711e-06
2.56694e-06
2.56664e-06
2.56622e-06
2.56565e-06
2.56497e-06
2.56423e-06
2.56344e-06
2.56324e-06
2.56401e-06
2.56468e-06
2.56533e-06
2.56591e-06
2.56637e-06
2.5667e-06
2.56691e-06
2.56699e-06
2.56694e-06
2.56677e-06
2.56647e-06
2.56604e-06
2.56547e-06
2.56479e-06
2.56405e-06
2.56326e-06
2.56291e-06
2.56368e-06
2.56436e-06
2.56502e-06
2.5656e-06
2.56607e-06
2.5664e-06
2.56661e-06
2.56669e-06
2.56664e-06
2.56647e-06
2.56617e-06
2.56573e-06
2.56516e-06
2.56447e-06
2.56372e-06
2.56294e-06
2.56246e-06
2.56322e-06
2.56391e-06
2.56458e-06
2.56517e-06
2.56563e-06
2.56597e-06
2.56618e-06
2.56626e-06
2.56622e-06
2.56604e-06
2.56573e-06
2.5653e-06
2.56472e-06
2.56402e-06
2.56326e-06
2.56248e-06
2.56182e-06
2.5626e-06
2.56331e-06
2.56399e-06
2.56459e-06
2.56506e-06
2.56541e-06
2.56562e-06
2.5657e-06
2.56565e-06
2.56548e-06
2.56516e-06
2.56472e-06
2.56413e-06
2.56342e-06
2.56264e-06
2.56185e-06
2.56108e-06
2.56185e-06
2.56258e-06
2.56327e-06
2.56389e-06
2.56437e-06
2.56472e-06
2.56494e-06
2.56502e-06
2.56497e-06
2.56479e-06
2.56447e-06
2.56402e-06
2.56342e-06
2.5627e-06
2.56189e-06
2.56111e-06
2.56017e-06
2.56097e-06
2.56176e-06
2.56248e-06
2.56313e-06
2.56362e-06
2.56398e-06
2.56419e-06
2.56428e-06
2.56423e-06
2.56405e-06
2.56372e-06
2.56326e-06
2.56264e-06
2.56189e-06
2.56102e-06
2.5602e-06
2.55926e-06
2.56014e-06
2.56097e-06
2.56169e-06
2.56234e-06
2.56284e-06
2.5632e-06
2.56341e-06
2.5635e-06
2.56344e-06
2.56326e-06
2.56294e-06
2.56248e-06
2.56185e-06
2.56111e-06
2.5602e-06
2.55928e-06
2.50876e-06
2.5104e-06
2.51191e-06
2.51334e-06
2.51455e-06
2.51545e-06
2.51609e-06
2.51648e-06
2.51663e-06
2.51654e-06
2.5162e-06
2.51562e-06
2.51479e-06
2.51365e-06
2.51222e-06
2.51058e-06
2.50881e-06
2.5104e-06
2.51179e-06
2.51325e-06
2.51464e-06
2.51582e-06
2.51669e-06
2.51732e-06
2.51769e-06
2.51784e-06
2.51775e-06
2.51743e-06
2.51686e-06
2.51605e-06
2.51495e-06
2.51356e-06
2.51196e-06
2.51047e-06
2.51191e-06
2.51325e-06
2.51464e-06
2.51598e-06
2.5171e-06
2.51794e-06
2.51854e-06
2.5189e-06
2.51904e-06
2.51895e-06
2.51864e-06
2.5181e-06
2.51732e-06
2.51627e-06
2.51494e-06
2.51341e-06
2.51197e-06
2.51334e-06
2.51464e-06
2.51598e-06
2.51726e-06
2.51833e-06
2.51914e-06
2.51972e-06
2.52007e-06
2.5202e-06
2.52012e-06
2.51982e-06
2.5193e-06
2.51855e-06
2.51755e-06
2.51627e-06
2.5148e-06
2.51341e-06
2.51455e-06
2.51582e-06
2.5171e-06
2.51833e-06
2.51937e-06
2.52015e-06
2.52071e-06
2.52105e-06
2.52118e-06
2.5211e-06
2.52081e-06
2.52031e-06
2.51959e-06
2.51862e-06
2.51738e-06
2.51597e-06
2.51462e-06
2.51545e-06
2.51669e-06
2.51794e-06
2.51914e-06
2.52015e-06
2.52092e-06
2.52146e-06
2.52179e-06
2.52192e-06
2.52185e-06
2.52156e-06
2.52107e-06
2.52037e-06
2.51942e-06
2.51822e-06
2.51685e-06
2.51552e-06
2.51609e-06
2.51732e-06
2.51854e-06
2.51972e-06
2.52071e-06
2.52146e-06
2.52199e-06
2.52232e-06
2.52245e-06
2.52237e-06
2.52209e-06
2.52161e-06
2.52092e-06
2.51999e-06
2.51881e-06
2.51747e-06
2.51616e-06
2.51648e-06
2.51769e-06
2.5189e-06
2.52007e-06
2.52105e-06
2.52179e-06
2.52232e-06
2.52264e-06
2.52277e-06
2.52269e-06
2.52242e-06
2.52194e-06
2.52126e-06
2.52034e-06
2.51917e-06
2.51785e-06
2.51655e-06
2.51663e-06
2.51784e-06
2.51904e-06
2.5202e-06
2.52118e-06
2.52192e-06
2.52245e-06
2.52277e-06
2.52289e-06
2.52282e-06
2.52255e-06
2.52207e-06
2.52139e-06
2.52048e-06
2.51931e-06
2.518e-06
2.5167e-06
2.51654e-06
2.51775e-06
2.51895e-06
2.52012e-06
2.5211e-06
2.52185e-06
2.52237e-06
2.52269e-06
2.52282e-06
2.52275e-06
2.52247e-06
2.52199e-06
2.52131e-06
2.52039e-06
2.51923e-06
2.51791e-06
2.51661e-06
2.5162e-06
2.51743e-06
2.51864e-06
2.51982e-06
2.52081e-06
2.52156e-06
2.52209e-06
2.52242e-06
2.52255e-06
2.52247e-06
2.52219e-06
2.52171e-06
2.52102e-06
2.5201e-06
2.51892e-06
2.51758e-06
2.51627e-06
2.51562e-06
2.51686e-06
2.5181e-06
2.5193e-06
2.52031e-06
2.52107e-06
2.52161e-06
2.52194e-06
2.52207e-06
2.52199e-06
2.52171e-06
2.52122e-06
2.52052e-06
2.51958e-06
2.51838e-06
2.51702e-06
2.51569e-06
2.51479e-06
2.51605e-06
2.51732e-06
2.51855e-06
2.51959e-06
2.52037e-06
2.52092e-06
2.52126e-06
2.52139e-06
2.52131e-06
2.52102e-06
2.52052e-06
2.5198e-06
2.51884e-06
2.51761e-06
2.51621e-06
2.51486e-06
2.51365e-06
2.51495e-06
2.51627e-06
2.51755e-06
2.51862e-06
2.51942e-06
2.51999e-06
2.52034e-06
2.52048e-06
2.52039e-06
2.5201e-06
2.51958e-06
2.51884e-06
2.51784e-06
2.51656e-06
2.51511e-06
2.51371e-06
2.51222e-06
2.51356e-06
2.51494e-06
2.51627e-06
2.51738e-06
2.51822e-06
2.51881e-06
2.51917e-06
2.51932e-06
2.51923e-06
2.51892e-06
2.51838e-06
2.51761e-06
2.51656e-06
2.51524e-06
2.51372e-06
2.51229e-06
2.51058e-06
2.51196e-06
2.51341e-06
2.5148e-06
2.51597e-06
2.51685e-06
2.51747e-06
2.51785e-06
2.518e-06
2.51791e-06
2.51758e-06
2.51702e-06
2.51621e-06
2.51511e-06
2.51372e-06
2.51213e-06
2.51065e-06
2.50881e-06
2.51047e-06
2.51197e-06
2.51341e-06
2.51462e-06
2.51552e-06
2.51616e-06
2.51655e-06
2.5167e-06
2.51661e-06
2.51628e-06
2.51569e-06
2.51486e-06
2.51371e-06
2.51229e-06
2.51064e-06
2.50887e-06
2.45885e-06
2.46077e-06
2.46248e-06
2.46416e-06
2.46556e-06
2.46662e-06
2.46738e-06
2.46785e-06
2.46802e-06
2.46791e-06
2.46751e-06
2.46681e-06
2.46583e-06
2.46449e-06
2.4628e-06
2.46095e-06
2.45889e-06
2.46077e-06
2.46237e-06
2.46405e-06
2.46569e-06
2.46707e-06
2.46813e-06
2.46888e-06
2.46933e-06
2.46951e-06
2.4694e-06
2.469e-06
2.46832e-06
2.46734e-06
2.46603e-06
2.46438e-06
2.46254e-06
2.46081e-06
2.46248e-06
2.46405e-06
2.4657e-06
2.46728e-06
2.46862e-06
2.46964e-06
2.47036e-06
2.4708e-06
2.47097e-06
2.47087e-06
2.47048e-06
2.46982e-06
2.46888e-06
2.46761e-06
2.46602e-06
2.46421e-06
2.46252e-06
2.46416e-06
2.46569e-06
2.46728e-06
2.46881e-06
2.4701e-06
2.47109e-06
2.4718e-06
2.47223e-06
2.47239e-06
2.47229e-06
2.47192e-06
2.47128e-06
2.47036e-06
2.46913e-06
2.4676e-06
2.46585e-06
2.46421e-06
2.46556e-06
2.46707e-06
2.46862e-06
2.4701e-06
2.47136e-06
2.47232e-06
2.47301e-06
2.47343e-06
2.47359e-06
2.47349e-06
2.47313e-06
2.4725e-06
2.47161e-06
2.47042e-06
2.46893e-06
2.46723e-06
2.46561e-06
2.46662e-06
2.46812e-06
2.46963e-06
2.47109e-06
2.47232e-06
2.47327e-06
2.47394e-06
2.47435e-06
2.47451e-06
2.47441e-06
2.47405e-06
2.47344e-06
2.47257e-06
2.47141e-06
2.46994e-06
2.46828e-06
2.46668e-06
2.46738e-06
2.46888e-06
2.47036e-06
2.47179e-06
2.47301e-06
2.47394e-06
2.4746e-06
2.475e-06
2.47516e-06
2.47506e-06
2.47471e-06
2.47411e-06
2.47325e-06
2.47211e-06
2.47067e-06
2.46903e-06
2.46744e-06
2.46785e-06
2.46933e-06
2.4708e-06
2.47222e-06
2.47343e-06
2.47435e-06
2.475e-06
2.4754e-06
2.47556e-06
2.47546e-06
2.47512e-06
2.47452e-06
2.47367e-06
2.47254e-06
2.47111e-06
2.46949e-06
2.4679e-06
2.46802e-06
2.46951e-06
2.47097e-06
2.47239e-06
2.47359e-06
2.47451e-06
2.47516e-06
2.47556e-06
2.47571e-06
2.47562e-06
2.47527e-06
2.47468e-06
2.47383e-06
2.4727e-06
2.47128e-06
2.46967e-06
2.46808e-06
2.46791e-06
2.4694e-06
2.47087e-06
2.47229e-06
2.47349e-06
2.47441e-06
2.47506e-06
2.47546e-06
2.47562e-06
2.47552e-06
2.47518e-06
2.47458e-06
2.47373e-06
2.4726e-06
2.47117e-06
2.46956e-06
2.46797e-06
2.46751e-06
2.469e-06
2.47048e-06
2.47192e-06
2.47313e-06
2.47406e-06
2.47471e-06
2.47512e-06
2.47527e-06
2.47518e-06
2.47483e-06
2.47423e-06
2.47337e-06
2.47223e-06
2.47079e-06
2.46916e-06
2.46757e-06
2.46681e-06
2.46832e-06
2.46982e-06
2.47128e-06
2.4725e-06
2.47344e-06
2.47411e-06
2.47452e-06
2.47468e-06
2.47458e-06
2.47423e-06
2.47362e-06
2.47275e-06
2.47159e-06
2.47013e-06
2.46847e-06
2.46687e-06
2.46583e-06
2.46734e-06
2.46888e-06
2.47036e-06
2.47161e-06
2.47257e-06
2.47325e-06
2.47367e-06
2.47383e-06
2.47373e-06
2.47337e-06
2.47275e-06
2.47186e-06
2.47068e-06
2.46919e-06
2.46749e-06
2.46588e-06
2.46449e-06
2.46603e-06
2.46761e-06
2.46913e-06
2.47042e-06
2.47141e-06
2.47211e-06
2.47254e-06
2.4727e-06
2.4726e-06
2.47223e-06
2.47159e-06
2.47068e-06
2.46946e-06
2.46793e-06
2.46618e-06
2.46455e-06
2.4628e-06
2.46438e-06
2.46602e-06
2.4676e-06
2.46893e-06
2.46995e-06
2.47067e-06
2.47111e-06
2.47128e-06
2.47117e-06
2.47079e-06
2.47013e-06
2.46919e-06
2.46793e-06
2.46635e-06
2.46454e-06
2.46285e-06
2.46095e-06
2.46254e-06
2.46421e-06
2.46585e-06
2.46723e-06
2.46828e-06
2.46903e-06
2.46949e-06
2.46967e-06
2.46956e-06
2.46916e-06
2.46847e-06
2.4675e-06
2.46618e-06
2.46454e-06
2.46271e-06
2.461e-06
2.45889e-06
2.46081e-06
2.46252e-06
2.46421e-06
2.46561e-06
2.46668e-06
2.46744e-06
2.4679e-06
2.46808e-06
2.46797e-06
2.46757e-06
2.46687e-06
2.46588e-06
2.46455e-06
2.46285e-06
2.461e-06
2.45894e-06
2.41254e-06
2.41454e-06
2.41631e-06
2.41808e-06
2.41955e-06
2.42067e-06
2.42147e-06
2.42196e-06
2.42215e-06
2.42202e-06
2.4216e-06
2.42086e-06
2.41981e-06
2.41842e-06
2.41662e-06
2.41471e-06
2.41257e-06
2.41454e-06
2.41622e-06
2.41798e-06
2.41971e-06
2.42117e-06
2.42229e-06
2.42309e-06
2.42358e-06
2.42376e-06
2.42364e-06
2.42322e-06
2.42248e-06
2.42144e-06
2.42005e-06
2.4183e-06
2.41637e-06
2.41457e-06
2.41631e-06
2.41798e-06
2.41972e-06
2.4214e-06
2.42283e-06
2.42392e-06
2.4247e-06
2.42517e-06
2.42535e-06
2.42524e-06
2.42482e-06
2.42411e-06
2.42309e-06
2.42173e-06
2.42004e-06
2.41812e-06
2.41633e-06
2.41808e-06
2.41971e-06
2.4214e-06
2.42303e-06
2.42442e-06
2.42549e-06
2.42624e-06
2.42671e-06
2.42689e-06
2.42677e-06
2.42637e-06
2.42567e-06
2.42468e-06
2.42336e-06
2.42171e-06
2.41984e-06
2.41811e-06
2.41955e-06
2.42117e-06
2.42283e-06
2.42442e-06
2.42578e-06
2.42682e-06
2.42756e-06
2.42802e-06
2.42819e-06
2.42808e-06
2.42768e-06
2.427e-06
2.42603e-06
2.42474e-06
2.42313e-06
2.4213e-06
2.41957e-06
2.42067e-06
2.42229e-06
2.42392e-06
2.42548e-06
2.42682e-06
2.42785e-06
2.42858e-06
2.42902e-06
2.42919e-06
2.42909e-06
2.4287e-06
2.42803e-06
2.42707e-06
2.4258e-06
2.42421e-06
2.42242e-06
2.4207e-06
2.42147e-06
2.42309e-06
2.42469e-06
2.42624e-06
2.42756e-06
2.42858e-06
2.4293e-06
2.42974e-06
2.42991e-06
2.4298e-06
2.42942e-06
2.42875e-06
2.42781e-06
2.42656e-06
2.42499e-06
2.42322e-06
2.4215e-06
2.42196e-06
2.42358e-06
2.42517e-06
2.42671e-06
2.42802e-06
2.42902e-06
2.42974e-06
2.43018e-06
2.43035e-06
2.43024e-06
2.42986e-06
2.4292e-06
2.42826e-06
2.42702e-06
2.42546e-06
2.42371e-06
2.42199e-06
2.42215e-06
2.42376e-06
2.42535e-06
2.42689e-06
2.42819e-06
2.4292e-06
2.42991e-06
2.43035e-06
2.43052e-06
2.43041e-06
2.43003e-06
2.42937e-06
2.42843e-06
2.42719e-06
2.42564e-06
2.4239e-06
2.42217e-06
2.42202e-06
2.42364e-06
2.42523e-06
2.42677e-06
2.42808e-06
2.42909e-06
2.4298e-06
2.43024e-06
2.43041e-06
2.4303e-06
2.42992e-06
2.42926e-06
2.42832e-06
2.42708e-06
2.42553e-06
2.42378e-06
2.42205e-06
2.4216e-06
2.42322e-06
2.42482e-06
2.42637e-06
2.42768e-06
2.4287e-06
2.42942e-06
2.42986e-06
2.43003e-06
2.42992e-06
2.42954e-06
2.42888e-06
2.42793e-06
2.42668e-06
2.42511e-06
2.42335e-06
2.42163e-06
2.42086e-06
2.42248e-06
2.42411e-06
2.42567e-06
2.427e-06
2.42803e-06
2.42876e-06
2.4292e-06
2.42937e-06
2.42926e-06
2.42888e-06
2.42821e-06
2.42725e-06
2.42598e-06
2.4244e-06
2.42262e-06
2.42089e-06
2.41981e-06
2.42144e-06
2.42309e-06
2.42468e-06
2.42603e-06
2.42707e-06
2.42781e-06
2.42826e-06
2.42844e-06
2.42832e-06
2.42793e-06
2.42725e-06
2.42628e-06
2.42499e-06
2.42339e-06
2.42157e-06
2.41984e-06
2.41842e-06
2.42005e-06
2.42173e-06
2.42336e-06
2.42474e-06
2.4258e-06
2.42656e-06
2.42702e-06
2.4272e-06
2.42708e-06
2.42668e-06
2.42599e-06
2.42499e-06
2.42368e-06
2.42204e-06
2.42018e-06
2.41845e-06
2.41662e-06
2.4183e-06
2.42004e-06
2.42171e-06
2.42313e-06
2.42422e-06
2.42499e-06
2.42546e-06
2.42564e-06
2.42553e-06
2.42512e-06
2.4244e-06
2.42339e-06
2.42204e-06
2.42035e-06
2.41844e-06
2.41665e-06
2.41471e-06
2.41638e-06
2.41812e-06
2.41984e-06
2.4213e-06
2.42242e-06
2.42322e-06
2.42371e-06
2.4239e-06
2.42378e-06
2.42335e-06
2.42262e-06
2.42157e-06
2.42018e-06
2.41844e-06
2.41652e-06
2.41474e-06
2.41257e-06
2.41457e-06
2.41634e-06
2.41811e-06
2.41958e-06
2.4207e-06
2.4215e-06
2.42199e-06
2.42217e-06
2.42205e-06
2.42163e-06
2.42089e-06
2.41984e-06
2.41845e-06
2.41665e-06
2.41474e-06
2.41259e-06
2.36923e-06
2.37118e-06
2.37291e-06
2.37469e-06
2.37614e-06
2.37727e-06
2.37807e-06
2.37856e-06
2.37875e-06
2.37863e-06
2.3782e-06
2.37746e-06
2.3764e-06
2.37502e-06
2.37322e-06
2.37134e-06
2.36925e-06
2.37118e-06
2.37283e-06
2.37457e-06
2.3763e-06
2.37776e-06
2.3789e-06
2.3797e-06
2.3802e-06
2.38039e-06
2.38026e-06
2.37983e-06
2.37909e-06
2.37803e-06
2.37664e-06
2.37488e-06
2.37298e-06
2.3712e-06
2.37291e-06
2.37457e-06
2.37631e-06
2.378e-06
2.37944e-06
2.38055e-06
2.38134e-06
2.38182e-06
2.382e-06
2.38188e-06
2.38146e-06
2.38073e-06
2.3797e-06
2.37833e-06
2.37662e-06
2.3747e-06
2.37294e-06
2.37469e-06
2.3763e-06
2.378e-06
2.37965e-06
2.38106e-06
2.38215e-06
2.38292e-06
2.3834e-06
2.38358e-06
2.38346e-06
2.38304e-06
2.38233e-06
2.38132e-06
2.37997e-06
2.37831e-06
2.37643e-06
2.37471e-06
2.37614e-06
2.37776e-06
2.37944e-06
2.38106e-06
2.38244e-06
2.38351e-06
2.38428e-06
2.38474e-06
2.38492e-06
2.38481e-06
2.3844e-06
2.3837e-06
2.3827e-06
2.38138e-06
2.37974e-06
2.37789e-06
2.37616e-06
2.37727e-06
2.3789e-06
2.38055e-06
2.38214e-06
2.38351e-06
2.38457e-06
2.38532e-06
2.38578e-06
2.38596e-06
2.38584e-06
2.38544e-06
2.38475e-06
2.38376e-06
2.38246e-06
2.38084e-06
2.37902e-06
2.37729e-06
2.37807e-06
2.3797e-06
2.38134e-06
2.38292e-06
2.38428e-06
2.38532e-06
2.38607e-06
2.38652e-06
2.3867e-06
2.38659e-06
2.38619e-06
2.3855e-06
2.38452e-06
2.38324e-06
2.38163e-06
2.37983e-06
2.3781e-06
2.37856e-06
2.3802e-06
2.38182e-06
2.3834e-06
2.38474e-06
2.38578e-06
2.38652e-06
2.38698e-06
2.38715e-06
2.38704e-06
2.38664e-06
2.38596e-06
2.38499e-06
2.38371e-06
2.38211e-06
2.38033e-06
2.37859e-06
2.37875e-06
2.38039e-06
2.382e-06
2.38358e-06
2.38492e-06
2.38596e-06
2.3867e-06
2.38715e-06
2.38732e-06
2.38721e-06
2.38682e-06
2.38614e-06
2.38517e-06
2.38389e-06
2.3823e-06
2.38052e-06
2.37878e-06
2.37863e-06
2.38026e-06
2.38188e-06
2.38346e-06
2.38481e-06
2.38585e-06
2.38659e-06
2.38704e-06
2.38721e-06
2.3871e-06
2.38671e-06
2.38602e-06
2.38505e-06
2.38377e-06
2.38218e-06
2.38039e-06
2.37865e-06
2.3782e-06
2.37983e-06
2.38146e-06
2.38304e-06
2.3844e-06
2.38544e-06
2.38619e-06
2.38664e-06
2.38682e-06
2.38671e-06
2.38631e-06
2.38562e-06
2.38465e-06
2.38336e-06
2.38176e-06
2.37996e-06
2.37822e-06
2.37746e-06
2.37909e-06
2.38073e-06
2.38233e-06
2.3837e-06
2.38475e-06
2.3855e-06
2.38596e-06
2.38614e-06
2.38603e-06
2.38562e-06
2.38493e-06
2.38395e-06
2.38265e-06
2.38103e-06
2.37922e-06
2.37748e-06
2.37641e-06
2.37803e-06
2.3797e-06
2.38132e-06
2.3827e-06
2.38376e-06
2.38452e-06
2.38499e-06
2.38517e-06
2.38505e-06
2.38465e-06
2.38395e-06
2.38295e-06
2.38164e-06
2.38e-06
2.37816e-06
2.37643e-06
2.37502e-06
2.37664e-06
2.37833e-06
2.37998e-06
2.38138e-06
2.38246e-06
2.38324e-06
2.38371e-06
2.38389e-06
2.38377e-06
2.38336e-06
2.38265e-06
2.38164e-06
2.3803e-06
2.37864e-06
2.37677e-06
2.37505e-06
2.37322e-06
2.37488e-06
2.37662e-06
2.37831e-06
2.37974e-06
2.38085e-06
2.38163e-06
2.38211e-06
2.3823e-06
2.38218e-06
2.38176e-06
2.38103e-06
2.38e-06
2.37864e-06
2.37693e-06
2.37502e-06
2.37324e-06
2.37134e-06
2.37298e-06
2.37471e-06
2.37643e-06
2.3779e-06
2.37903e-06
2.37983e-06
2.38033e-06
2.38052e-06
2.38039e-06
2.37996e-06
2.37922e-06
2.37816e-06
2.37677e-06
2.37502e-06
2.37313e-06
2.37137e-06
2.36925e-06
2.3712e-06
2.37294e-06
2.37471e-06
2.37617e-06
2.37729e-06
2.3781e-06
2.37859e-06
2.37878e-06
2.37865e-06
2.37822e-06
2.37748e-06
2.37643e-06
2.37505e-06
2.37324e-06
2.37136e-06
2.36927e-06
2.32841e-06
2.33021e-06
2.33183e-06
2.33351e-06
2.33488e-06
2.33595e-06
2.33671e-06
2.33718e-06
2.33736e-06
2.33725e-06
2.33683e-06
2.33613e-06
2.33512e-06
2.33382e-06
2.33211e-06
2.33036e-06
2.32842e-06
2.33021e-06
2.33176e-06
2.33338e-06
2.33502e-06
2.33641e-06
2.3375e-06
2.33827e-06
2.33875e-06
2.33893e-06
2.33881e-06
2.33839e-06
2.33768e-06
2.33666e-06
2.33534e-06
2.33367e-06
2.3319e-06
2.33023e-06
2.33183e-06
2.33338e-06
2.33503e-06
2.33664e-06
2.33802e-06
2.33908e-06
2.33984e-06
2.34031e-06
2.34049e-06
2.34037e-06
2.33996e-06
2.33926e-06
2.33826e-06
2.33696e-06
2.33532e-06
2.33351e-06
2.33185e-06
2.33351e-06
2.33502e-06
2.33664e-06
2.33822e-06
2.33957e-06
2.34062e-06
2.34137e-06
2.34184e-06
2.34201e-06
2.3419e-06
2.34149e-06
2.3408e-06
2.33982e-06
2.33853e-06
2.33693e-06
2.33515e-06
2.33352e-06
2.33488e-06
2.33641e-06
2.33801e-06
2.33957e-06
2.34091e-06
2.34195e-06
2.34269e-06
2.34315e-06
2.34332e-06
2.34321e-06
2.34281e-06
2.34213e-06
2.34116e-06
2.33988e-06
2.3383e-06
2.33653e-06
2.33489e-06
2.33595e-06
2.3375e-06
2.33908e-06
2.34062e-06
2.34195e-06
2.34298e-06
2.34371e-06
2.34417e-06
2.34434e-06
2.34423e-06
2.34383e-06
2.34316e-06
2.34219e-06
2.34093e-06
2.33937e-06
2.33762e-06
2.33597e-06
2.33671e-06
2.33827e-06
2.33984e-06
2.34137e-06
2.34269e-06
2.34371e-06
2.34444e-06
2.34489e-06
2.34507e-06
2.34495e-06
2.34456e-06
2.34389e-06
2.34293e-06
2.34168e-06
2.34013e-06
2.33839e-06
2.33673e-06
2.33718e-06
2.33875e-06
2.34031e-06
2.34184e-06
2.34315e-06
2.34417e-06
2.34489e-06
2.34534e-06
2.34551e-06
2.3454e-06
2.34501e-06
2.34434e-06
2.34339e-06
2.34214e-06
2.34059e-06
2.33887e-06
2.3372e-06
2.33736e-06
2.33893e-06
2.34049e-06
2.34201e-06
2.34332e-06
2.34434e-06
2.34507e-06
2.34551e-06
2.34568e-06
2.34557e-06
2.34518e-06
2.34451e-06
2.34356e-06
2.34232e-06
2.34077e-06
2.33905e-06
2.33738e-06
2.33725e-06
2.33881e-06
2.34037e-06
2.3419e-06
2.34321e-06
2.34423e-06
2.34496e-06
2.3454e-06
2.34557e-06
2.34546e-06
2.34507e-06
2.3444e-06
2.34345e-06
2.3422e-06
2.34065e-06
2.33893e-06
2.33727e-06
2.33684e-06
2.33839e-06
2.33996e-06
2.34149e-06
2.34281e-06
2.34383e-06
2.34456e-06
2.34501e-06
2.34518e-06
2.34507e-06
2.34468e-06
2.34401e-06
2.34305e-06
2.3418e-06
2.34025e-06
2.33851e-06
2.33685e-06
2.33613e-06
2.33768e-06
2.33926e-06
2.3408e-06
2.34213e-06
2.34316e-06
2.34389e-06
2.34434e-06
2.34452e-06
2.3444e-06
2.34401e-06
2.34333e-06
2.34237e-06
2.34111e-06
2.33955e-06
2.3378e-06
2.33615e-06
2.33512e-06
2.33666e-06
2.33826e-06
2.33982e-06
2.34116e-06
2.34219e-06
2.34293e-06
2.34339e-06
2.34356e-06
2.34345e-06
2.34305e-06
2.34237e-06
2.3414e-06
2.34013e-06
2.33855e-06
2.33679e-06
2.33514e-06
2.33382e-06
2.33535e-06
2.33696e-06
2.33853e-06
2.33988e-06
2.34093e-06
2.34168e-06
2.34214e-06
2.34232e-06
2.3422e-06
2.3418e-06
2.34111e-06
2.34013e-06
2.33884e-06
2.33725e-06
2.33547e-06
2.33384e-06
2.33212e-06
2.33367e-06
2.33533e-06
2.33693e-06
2.33831e-06
2.33937e-06
2.34013e-06
2.34059e-06
2.34077e-06
2.34066e-06
2.34025e-06
2.33955e-06
2.33855e-06
2.33725e-06
2.33562e-06
2.3338e-06
2.33213e-06
2.33036e-06
2.3319e-06
2.33351e-06
2.33515e-06
2.33654e-06
2.33762e-06
2.33839e-06
2.33887e-06
2.33905e-06
2.33893e-06
2.33852e-06
2.3378e-06
2.33679e-06
2.33547e-06
2.3338e-06
2.33203e-06
2.33038e-06
2.32843e-06
2.33023e-06
2.33185e-06
2.33352e-06
2.3349e-06
2.33597e-06
2.33674e-06
2.3372e-06
2.33738e-06
2.33727e-06
2.33686e-06
2.33615e-06
2.33514e-06
2.33384e-06
2.33213e-06
2.33038e-06
2.32844e-06
2.28981e-06
2.29144e-06
2.2929e-06
2.29443e-06
2.29567e-06
2.29666e-06
2.29736e-06
2.29779e-06
2.29796e-06
2.29785e-06
2.29747e-06
2.29682e-06
2.2959e-06
2.29472e-06
2.29315e-06
2.29157e-06
2.28983e-06
2.29144e-06
2.29284e-06
2.29431e-06
2.29581e-06
2.29708e-06
2.29808e-06
2.2988e-06
2.29924e-06
2.2994e-06
2.29929e-06
2.29891e-06
2.29825e-06
2.29731e-06
2.2961e-06
2.29457e-06
2.29296e-06
2.29145e-06
2.2929e-06
2.29431e-06
2.29581e-06
2.29729e-06
2.29856e-06
2.29954e-06
2.30025e-06
2.30068e-06
2.30085e-06
2.30074e-06
2.30036e-06
2.29971e-06
2.29879e-06
2.29758e-06
2.29608e-06
2.29442e-06
2.29291e-06
2.29443e-06
2.29581e-06
2.29729e-06
2.29874e-06
2.3e-06
2.30098e-06
2.30168e-06
2.30211e-06
2.30227e-06
2.30217e-06
2.30179e-06
2.30114e-06
2.30023e-06
2.29903e-06
2.29756e-06
2.29592e-06
2.29444e-06
2.29567e-06
2.29708e-06
2.29856e-06
2.3e-06
2.30125e-06
2.30222e-06
2.30291e-06
2.30334e-06
2.3035e-06
2.3034e-06
2.30302e-06
2.30238e-06
2.30147e-06
2.30028e-06
2.29882e-06
2.29719e-06
2.29569e-06
2.29666e-06
2.29808e-06
2.29954e-06
2.30098e-06
2.30222e-06
2.30318e-06
2.30387e-06
2.30429e-06
2.30446e-06
2.30435e-06
2.30398e-06
2.30334e-06
2.30244e-06
2.30126e-06
2.29981e-06
2.29819e-06
2.29667e-06
2.29736e-06
2.2988e-06
2.30025e-06
2.30168e-06
2.30291e-06
2.30387e-06
2.30456e-06
2.30498e-06
2.30514e-06
2.30504e-06
2.30467e-06
2.30403e-06
2.30313e-06
2.30196e-06
2.30051e-06
2.2989e-06
2.29738e-06
2.29779e-06
2.29924e-06
2.30068e-06
2.30211e-06
2.30334e-06
2.3043e-06
2.30498e-06
2.3054e-06
2.30556e-06
2.30546e-06
2.30509e-06
2.30446e-06
2.30356e-06
2.30239e-06
2.30094e-06
2.29934e-06
2.29781e-06
2.29796e-06
2.2994e-06
2.30085e-06
2.30227e-06
2.3035e-06
2.30446e-06
2.30514e-06
2.30556e-06
2.30573e-06
2.30562e-06
2.30525e-06
2.30462e-06
2.30373e-06
2.30255e-06
2.30111e-06
2.29951e-06
2.29797e-06