/*--------------------------------*- C++ -*----------------------------------*\
  =========                 |
  \\      /  F ield         | OpenFOAM: The Open Source CFD Toolbox
   \\    /   O peration     | Website:  https://openfoam.org
    \\  /    A nd           | Version:  6
     \\/     M anipulation  |
\*---------------------------------------------------------------------------*/
FoamFile
{
    version     2.0;
    format      ascii;
    class       volVectorField;
    location    "0";
    object      Usup;
}
// * * * * * * * * * * * * * * * * * * * * * * * * * * * * * * * * * * * * * //

dimensions      [0 1 -1 0 0 0 0];

internalField   nonuniform List<vector> 
9000
(
(-0.199092 -0.201205 0)
(-0.325188 -0.114718 0)
(-0.21329 -0.0562881 0)
(-0.154312 -0.0286182 0)
(-0.122466 -0.0152554 0)
(-0.103539 -0.00858134 0)
(-0.0919069 -0.00502428 0)
(-0.0845941 -0.00298876 0)
(-0.0799692 -0.00175591 0)
(-0.0770936 -0.000980502 0)
(-0.0753866 -0.000484056 0)
(-0.0744694 -0.0001652 0)
(-0.0740844 3.64124e-05 0)
(-0.0740533 0.000160026 0)
(-0.0742508 0.000231386 0)
(-0.0745884 0.000269069 0)
(-0.0750037 0.000285169 0)
(-0.0754537 0.000288037 0)
(-0.0759095 0.000284092 0)
(-0.0763512 0.000277806 0)
(-0.0767667 0.000271265 0)
(-0.0771493 0.000267247 0)
(-0.0774948 0.000266927 0)
(-0.0778023 0.000270738 0)
(-0.0780724 0.000280009 0)
(-0.0783066 0.000294058 0)
(-0.0785071 0.000314071 0)
(-0.0786766 0.000339995 0)
(-0.0788176 0.000372219 0)
(-0.0789333 0.00041085 0)
(-0.0790269 0.000456452 0)
(-0.0791018 0.000509102 0)
(-0.0791617 0.000570314 0)
(-0.0792105 0.000639887 0)
(-0.0792538 0.000718989 0)
(-0.0792976 0.000808956 0)
(-0.0793496 0.000910104 0)
(-0.0794202 0.00102525 0)
(-0.079523 0.00115552 0)
(-0.0796778 0.0013043 0)
(-0.0799117 0.00147553 0)
(-0.0802647 0.00167608 0)
(-0.0808007 0.00191793 0)
(-0.0816235 0.00222659 0)
(-0.0829192 0.002659 0)
(-0.0850629 0.00336295 0)
(-0.0888265 0.00475782 0)
(-0.0956132 0.00805241 0)
(-0.11367 0.0170264 0)
(-0.167179 0.0544907 0)
(-0.275709 -0.414321 0)
(-0.522023 -0.289783 0)
(-0.450406 -0.16533 0)
(-0.376098 -0.0949085 0)
(-0.321317 -0.0560395 0)
(-0.283171 -0.0342915 0)
(-0.257375 -0.0215948 0)
(-0.240202 -0.013804 0)
(-0.228974 -0.0088228 0)
(-0.221865 -0.00554504 0)
(-0.217621 -0.00335404 0)
(-0.215366 -0.00188104 0)
(-0.214477 -0.000895294 0)
(-0.21451 -0.000244512 0)
(-0.215144 0.000176067 0)
(-0.21615 0.000439387 0)
(-0.217363 0.000596922 0)
(-0.218667 0.000684273 0)
(-0.219985 0.000728192 0)
(-0.221264 0.000748511 0)
(-0.222468 0.000756564 0)
(-0.22358 0.000762785 0)
(-0.224587 0.000774181 0)
(-0.225487 0.000793834 0)
(-0.22628 0.000825638 0)
(-0.226973 0.000871125 0)
(-0.227569 0.000932425 0)
(-0.228078 0.00101123 0)
(-0.228507 0.00110918 0)
(-0.228866 0.00122614 0)
(-0.229163 0.00136531 0)
(-0.22941 0.00152766 0)
(-0.229617 0.00171648 0)
(-0.2298 0.00193346 0)
(-0.229974 0.00218261 0)
(-0.230159 0.00246868 0)
(-0.230381 0.0027962 0)
(-0.230675 0.00317375 0)
(-0.231085 0.00361059 0)
(-0.231676 0.00412024 0)
(-0.232539 0.00472506 0)
(-0.233808 0.00545839 0)
(-0.235692 0.00637902 0)
(-0.238522 0.00760018 0)
(-0.242862 0.00935338 0)
(-0.24973 0.0121639 0)
(-0.261014 0.0173176 0)
(-0.280302 0.0279975 0)
(-0.318316 0.0522525 0)
(-0.389323 0.120019 0)
(-0.254196 -0.389222 0)
(-0.539511 -0.37278 0)
(-0.556063 -0.260024 0)
(-0.516771 -0.171331 0)
(-0.469586 -0.112018 0)
(-0.429774 -0.0739796 0)
(-0.399932 -0.0494651 0)
(-0.378843 -0.0333229 0)
(-0.364594 -0.0224556 0)
(-0.355456 -0.0150113 0)
(-0.350047 -0.00985855 0)
(-0.347309 -0.00627656 0)
(-0.346444 -0.00379116 0)
(-0.346858 -0.00207912 0)
(-0.34811 -0.000912815 0)
(-0.349878 -0.000131477 0)
(-0.351929 0.000381083 0)
(-0.354098 0.000708725 0)
(-0.356268 0.000912765 0)
(-0.358362 0.00103898 0)
(-0.360333 0.0011176 0)
(-0.362148 0.00117252 0)
(-0.363795 0.00122071 0)
(-0.365269 0.00127348 0)
(-0.366572 0.00133837 0)
(-0.367713 0.00142203 0)
(-0.3687 0.00152902 0)
(-0.369547 0.0016637 0)
(-0.370268 0.00182994 0)
(-0.370876 0.00202907 0)
(-0.371389 0.00226762 0)
(-0.371825 0.00254829 0)
(-0.372203 0.00287663 0)
(-0.372546 0.00325953 0)
(-0.372884 0.0037043 0)
(-0.37325 0.00422216 0)
(-0.373689 0.00482655 0)
(-0.37426 0.00553543 0)
(-0.375041 0.00637471 0)
(-0.376142 0.00737892 0)
(-0.377715 0.00860562 0)
(-0.379985 0.0101401 0)
(-0.383288 0.012129 0)
(-0.388146 0.0148347 0)
(-0.395393 0.0187547 0)
(-0.406407 0.0248921 0)
(-0.42347 0.0353664 0)
(-0.450219 0.0546923 0)
(-0.493543 0.092537 0)
(-0.556019 0.172435 0)
(-0.216044 -0.31985 0)
(-0.501298 -0.398023 0)
(-0.586299 -0.327795 0)
(-0.59374 -0.241179 0)
(-0.570849 -0.170736 0)
(-0.542469 -0.119578 0)
(-0.517591 -0.0836162 0)
(-0.498542 -0.0584339 0)
(-0.48517 -0.0407061 0)
(-0.476558 -0.0281462 0)
(-0.471665 -0.0192107 0)
(-0.469548 -0.0128487 0)
(-0.46943 -0.00833118 0)
(-0.470692 -0.00514303 0)
(-0.472859 -0.00291382 0)
(-0.475573 -0.0013736 0)
(-0.478569 -0.000325022 0)
(-0.481657 0.000377706 0)
(-0.484703 0.0008415 0)
(-0.48762 0.00114549 0)
(-0.490349 0.0013467 0)
(-0.492858 0.00148736 0)
(-0.49513 0.00159791 0)
(-0.497164 0.00170096 0)
(-0.498966 0.00181123 0)
(-0.500545 0.00194126 0)
(-0.501917 0.00209987 0)
(-0.503099 0.0022951 0)
(-0.504111 0.00253402 0)
(-0.504975 0.00282162 0)
(-0.505711 0.00316602 0)
(-0.506347 0.00357525 0)
(-0.506909 0.00405793 0)
(-0.507432 0.00462646 0)
(-0.507954 0.005295 0)
(-0.508525 0.0060831 0)
(-0.509207 0.00701606 0)
(-0.510081 0.00812738 0)
(-0.511257 0.00946439 0)
(-0.512882 0.0110957 0)
(-0.515162 0.0131235 0)
(-0.51839 0.0157056 0)
(-0.522994 0.0191003 0)
(-0.529602 0.023746 0)
(-0.539156 0.0304211 0)
(-0.553065 0.040555 0)
(-0.573352 0.0568249 0)
(-0.60252 0.0841883 0)
(-0.643227 0.13129 0)
(-0.691826 0.212458 0)
(-0.180059 -0.262918 0)
(-0.448552 -0.39292 0)
(-0.576994 -0.365562 0)
(-0.626931 -0.293443 0)
(-0.634105 -0.221714 0)
(-0.624657 -0.163102 0)
(-0.611219 -0.118438 0)
(-0.59913 -0.0853093 0)
(-0.590181 -0.0609855 0)
(-0.584589 -0.0431978 0)
(-0.581942 -0.0302239 0)
(-0.581641 -0.0207929 0)
(-0.583084 -0.0139719 0)
(-0.585746 -0.00907236 0)
(-0.589194 -0.00558446 0)
(-0.593092 -0.00312867 0)
(-0.597183 -0.00141977 0)
(-0.601281 -0.000246245 0)
(-0.605255 0.000550183 0)
(-0.609017 0.00108709 0)
(-0.612512 0.001452 0)
(-0.615711 0.00170897 0)
(-0.618601 0.00190423 0)
(-0.621186 0.00207316 0)
(-0.623475 0.00224013 0)
(-0.625484 0.00242555 0)
(-0.627233 0.00264266 0)
(-0.628746 0.00290443 0)
(-0.630048 0.00322155 0)
(-0.631167 0.00360448 0)
(-0.63213 0.00406287 0)
(-0.632971 0.00461103 0)
(-0.633725 0.00526321 0)
(-0.634436 0.00603687 0)
(-0.635152 0.00695649 0)
(-0.635936 0.00805115 0)
(-0.636866 0.00936085 0)
(-0.638043 0.0109387 0)
(-0.639598 0.0128592 0)
(-0.64171 0.0152289 0)
(-0.644622 0.0182023 0)
(-0.648667 0.0220174 0)
(-0.654311 0.0270453 0)
(-0.662204 0.0338882 0)
(-0.673245 0.0435477 0)
(-0.68863 0.0577135 0)
(-0.709781 0.0792276 0)
(-0.737839 0.112674 0)
(-0.772514 0.164552 0)
(-0.807882 0.242126 0)
(-0.150208 -0.219023 0)
(-0.396391 -0.372455 0)
(-0.549276 -0.379434 0)
(-0.632662 -0.326599 0)
(-0.669184 -0.260572 0)
(-0.681568 -0.19997 0)
(-0.68335 -0.150099 0)
(-0.681699 -0.111025 0)
(-0.679993 -0.0811554 0)
(-0.679573 -0.0586354 0)
(-0.680763 -0.0418143 0)
(-0.683426 -0.0293475 0)
(-0.687248 -0.0201807 0)
(-0.691882 -0.0134978 0)
(-0.697006 -0.00867194 0)
(-0.702354 -0.00522447 0)
(-0.707715 -0.00278912 0)
(-0.712934 -0.00108917 0)
(-0.7179 8.5264e-05 0)
(-0.722543 0.000892083 0)
(-0.726821 0.00144948 0)
(-0.730714 0.00184467 0)
(-0.734218 0.00214204 0)
(-0.737346 0.00238988 0)
(-0.740112 0.00262429 0)
(-0.742542 0.00287241 0)
(-0.744661 0.00315553 0)
(-0.746498 0.00348962 0)
(-0.748085 0.00389085 0)
(-0.749456 0.0043754 0)
(-0.750646 0.00495721 0)
(-0.751692 0.00565492 0)
(-0.752639 0.00648978 0)
(-0.753537 0.00748777 0)
(-0.754445 0.00868211 0)
(-0.755436 0.0101152 0)
(-0.7566 0.0118434 0)
(-0.758052 0.0139412 0)
(-0.75994 0.0165135 0)
(-0.762462 0.0197051 0)
(-0.765875 0.0237261 0)
(-0.770523 0.0288879 0)
(-0.776865 0.0356601 0)
(-0.785498 0.0447704 0)
(-0.797173 0.0573514 0)
(-0.812746 0.0751704 0)
(-0.832968 0.100908 0)
(-0.857846 0.138336 0)
(-0.885456 0.191772 0)
(-0.909685 0.263987 0)
(-0.126823 -0.184271 0)
(-0.350546 -0.344788 0)
(-0.515041 -0.37655 0)
(-0.622564 -0.34296 0)
(-0.684632 -0.286427 0)
(-0.718694 -0.228002 0)
(-0.737247 -0.176226 0)
(-0.748085 -0.133486 0)
(-0.755589 -0.0995268 0)
(-0.762007 -0.0731618 0)
(-0.768355 -0.0530126 0)
(-0.774989 -0.0378018 0)
(-0.781939 -0.0264431 0)
(-0.789086 -0.0180503 0)
(-0.796271 -0.0119148 0)
(-0.803336 -0.00747863 0)
(-0.810147 -0.00430746 0)
(-0.816603 -0.0020656 0)
(-0.822635 -0.00049604 0)
(-0.828201 0.000596978 0)
(-0.833281 0.00136161 0)
(-0.837875 0.00190729 0)
(-0.841992 0.00231792 0)
(-0.845655 0.00265437 0)
(-0.848891 0.00296433 0)
(-0.851731 0.00328182 0)
(-0.854211 0.00363601 0)
(-0.856364 0.00404857 0)
(-0.858229 0.00454007 0)
(-0.859846 0.00513212 0)
(-0.861256 0.00584504 0)
(-0.862502 0.0067027 0)
(-0.863636 0.0077326 0)
(-0.864713 0.00897072 0)
(-0.865801 0.0104595 0)
(-0.866979 0.0122564 0)
(-0.868347 0.0144342 0)
(-0.870028 0.0170908 0)
(-0.872178 0.0203596 0)
(-0.874998 0.0244247 0)
(-0.878746 0.0295456 0)
(-0.883748 0.0360943 0)
(-0.890414 0.0446141 0)
(-0.89924 0.0559054 0)
(-0.910774 0.0711404 0)
(-0.925506 0.0920129 0)
(-0.943596 0.120845 0)
(-0.964275 0.160478 0)
(-0.984927 0.213433 0)
(-1.00015 0.279876 0)
(-0.108986 -0.156382 0)
(-0.312408 -0.314441 0)
(-0.48052 -0.362525 0)
(-0.60433 -0.345729 0)
(-0.687165 -0.30006 0)
(-0.741025 -0.246532 0)
(-0.776301 -0.195547 0)
(-0.800473 -0.151311 0)
(-0.818332 -0.114849 0)
(-0.832721 -0.0857364 0)
(-0.845216 -0.0629942 0)
(-0.856626 -0.0455226 0)
(-0.867328 -0.0322844 0)
(-0.877459 -0.0223798 0)
(-0.887048 -0.0150575 0)
(-0.896073 -0.00970739 0)
(-0.904502 -0.00584408 0)
(-0.912307 -0.00308442 0)
(-0.919475 -0.00113118 0)
(-0.926004 0.000243874 0)
(-0.931908 0.00121555 0)
(-0.937209 0.00191512 0)
(-0.941936 0.00244277 0)
(-0.946128 0.002873 0)
(-0.949823 0.00326266 0)
(-0.953064 0.00365438 0)
(-0.955892 0.00408373 0)
(-0.958351 0.00457919 0)
(-0.960484 0.00516625 0)
(-0.962337 0.00587162 0)
(-0.963957 0.00672133 0)
(-0.965394 0.00774567 0)
(-0.966702 0.00898031 0)
(-0.967944 0.0104695 0)
(-0.96919 0.0122679 0)
(-0.970526 0.0144451 0)
(-0.972055 0.0170916 0)
(-0.973903 0.0203289 0)
(-0.976225 0.0243158 0)
(-0.979215 0.0292707 0)
(-0.983113 0.0354937 0)
(-0.988207 0.0434008 0)
(-0.994834 0.0535793 0)
(-1.00336 0.0668488 0)
(-1.01412 0.0843459 0)
(-1.02726 0.107589 0)
(-1.04251 0.138457 0)
(-1.05864 0.178923 0)
(-1.07293 0.230182 0)
(-1.08094 0.291012 0)
(-0.0955036 -0.133646 0)
(-0.281517 -0.283755 0)
(-0.448652 -0.341359 0)
(-0.582783 -0.338006 0)
(-0.68174 -0.303006 0)
(-0.75274 -0.255845 0)
(-0.80368 -0.207616 0)
(-0.841118 -0.163741 0)
(-0.869767 -0.126299 0)
(-0.892751 -0.0955999 0)
(-0.912031 -0.0711146 0)
(-0.928788 -0.0519873 0)
(-0.943711 -0.0372948 0)
(-0.957197 -0.026173 0)
(-0.969467 -0.017866 0)
(-0.980655 -0.0117391 0)
(-0.990843 -0.00727464 0)
(-1.00009 -0.00405695 0)
(-1.00845 -0.00175796 0)
(-1.01598 -0.000124196 0)
(-1.02272 0.00104081 0)
(-1.02873 0.00188757 0)
(-1.03407 0.00252941 0)
(-1.03878 0.00305255 0)
(-1.04292 0.00352268 0)
(-1.04655 0.00399096 0)
(-1.04971 0.00449814 0)
(-1.05246 0.00507903 0)
(-1.05485 0.00576494 0)
(-1.05693 0.00658722 0)
(-1.05875 0.00757814 0)
(-1.06036 0.00877397 0)
(-1.06183 0.0102186 0)
(-1.06321 0.0119652 0)
(-1.06459 0.0140795 0)
(-1.06604 0.0166443 0)
(-1.06768 0.019767 0)
(-1.06963 0.0235878 0)
(-1.07202 0.0282902 0)
(-1.07505 0.0341176 0)
(-1.07891 0.0414001 0)
(-1.08384 0.05058 0)
(-1.0901 0.0622559 0)
(-1.09792 0.0772269 0)
(-1.10741 0.0965358 0)
(-1.11849 0.121472 0)
(-1.13055 0.153467 0)
(-1.14218 0.193763 0)
(-1.15084 0.242645 0)
(-1.15305 0.298245 0)
(-0.0853169 -0.11471 0)
(-0.256816 -0.25383 0)
(-0.42059 -0.315785 0)
(-0.560791 -0.322442 0)
(-0.671847 -0.297026 0)
(-0.75715 -0.256756 0)
(-0.822144 -0.212565 0)
(-0.872155 -0.170509 0)
(-0.911471 -0.13343 0)
(-0.94323 -0.102264 0)
(-0.9696 -0.0769157 0)
(-0.992032 -0.0568008 0)
(-1.01148 -0.0411492 0)
(-1.02857 -0.0291716 0)
(-1.04372 -0.0201405 0)
(-1.05721 -0.0134227 0)
(-1.06926 -0.00848699 0)
(-1.08002 -0.00490057 0)
(-1.08962 -0.00231738 0)
(-1.09817 -0.000465449 0)
(-1.10575 0.000866672 0)
(-1.11247 0.00184379 0)
(-1.1184 0.00258993 0)
(-1.12362 0.00320034 0)
(-1.1282 0.0037484 0)
(-1.1322 0.00429231 0)
(-1.13568 0.00487751 0)
(-1.13871 0.00554536 0)
(-1.14134 0.00633158 0)
(-1.14363 0.00727194 0)
(-1.14563 0.00840618 0)
(-1.1474 0.0097751 0)
(-1.149 0.0114314 0)
(-1.1505 0.0134359 0)
(-1.15198 0.0158651 0)
(-1.15351 0.0188143 0)
(-1.1552 0.0224061 0)
(-1.15716 0.0267961 0)
(-1.15953 0.0321863 0)
(-1.16245 0.0388399 0)
(-1.1661 0.0471016 0)
(-1.17066 0.0574242 0)
(-1.17627 0.0703903 0)
(-1.18305 0.0867467 0)
(-1.19096 0.107408 0)
(-1.19969 0.133416 0)
(-1.20847 0.165798 0)
(-1.21587 0.205222 0)
(-1.21965 0.251386 0)
(-1.21715 0.302203 0)
(-0.0775898 -0.0985713 0)
(-0.237183 -0.225111 0)
(-0.396566 -0.287612 0)
(-0.539953 -0.301154 0)
(-0.659853 -0.283817 0)
(-0.756778 -0.250323 0)
(-0.833992 -0.21088 0)
(-0.895496 -0.171707 0)
(-0.94495 -0.136105 0)
(-0.985301 -0.105481 0)
(-1.01877 -0.0801189 0)
(-1.04698 -0.0596972 0)
(-1.07108 -0.0436146 0)
(-1.0919 -0.0311818 0)
(-1.11004 -0.0217252 0)
(-1.12592 -0.0146352 0)
(-1.13989 -0.00938728 0)
(-1.15219 -0.005546 0)
(-1.16304 -0.00275868 0)
(-1.17261 -0.000743686 0)
(-1.18104 0.000718726 0)
(-1.18846 0.00180146 0)
(-1.19497 0.00263598 0)
(-1.20068 0.00332374 0)
(-1.20567 0.00394443 0)
(-1.21002 0.00455999 0)
(-1.21381 0.00522211 0)
(-1.2171 0.00597545 0)
(-1.21995 0.00686178 0)
(-1.22243 0.00791969 0)
(-1.22459 0.00919505 0)
(-1.2265 0.0107353 0)
(-1.22821 0.0125995 0)
(-1.2298 0.014857 0)
(-1.23134 0.0175925 0)
(-1.23291 0.0209132 0)
(-1.23459 0.0249533 0)
(-1.2365 0.0298812 0)
(-1.23874 0.0359116 0)
(-1.24144 0.043319 0)
(-1.24472 0.0524519 0)
(-1.2487 0.0637546 0)
(-1.25346 0.0777777 0)
(-1.25898 0.0951914 0)
(-1.26509 0.116767 0)
(-1.27135 0.143309 0)
(-1.27693 0.175496 0)
(-1.28045 0.213575 0)
(-1.28004 0.25689 0)
(-1.27367 0.303361 0)
(-0.0716956 -0.0845035 0)
(-0.221621 -0.197706 0)
(-0.376381 -0.257997 0)
(-0.521085 -0.275754 0)
(-0.647304 -0.264879 0)
(-0.753485 -0.237651 0)
(-0.841068 -0.203241 0)
(-0.912787 -0.167666 0)
(-0.971574 -0.134417 0)
(-1.02006 -0.105205 0)
(-1.06039 -0.0806058 0)
(-1.09428 -0.060531 0)
(-1.123 -0.0445469 0)
(-1.14755 -0.0320744 0)
(-1.16868 -0.0225106 0)
(-1.18696 -0.015288 0)
(-1.20285 -0.00990564 0)
(-1.2167 -0.00593968 0)
(-1.22879 -0.00304084 0)
(-1.23937 -0.000928588 0)
(-1.24862 0.000619118 0)
(-1.25671 0.00177608 0)
(-1.26379 0.0026781 0)
(-1.26996 0.00342956 0)
(-1.27535 0.00411369 0)
(-1.28003 0.00479572 0)
(-1.2841 0.00553108 0)
(-1.28763 0.00636737 0)
(-1.29068 0.00734996 0)
(-1.29333 0.0085225 0)
(-1.29564 0.00993422 0)
(-1.29766 0.0116401 0)
(-1.29946 0.0137039 0)
(-1.30111 0.0162026 0)
(-1.30268 0.0192288 0)
(-1.30423 0.0228987 0)
(-1.30585 0.0273549 0)
(-1.30762 0.0327744 0)
(-1.30965 0.0393801 0)
(-1.31201 0.047449 0)
(-1.3148 0.0573247 0)
(-1.31806 0.0694272 0)
(-1.3218 0.0842633 0)
(-1.32591 0.102414 0)
(-1.33013 0.124506 0)
(-1.33393 0.15113 0)
(-1.33648 0.182682 0)
(-1.33653 0.21911 0)
(-1.33252 0.259567 0)
(-1.32295 0.302094 0)
(-0.0671764 -0.0719768 0)
(-0.209309 -0.171555 0)
(-0.35966 -0.227665 0)
(-0.504536 -0.247439 0)
(-0.635179 -0.241469 0)
(-0.748612 -0.219799 0)
(-0.844819 -0.19041 0)
(-0.925399 -0.158868 0)
(-0.992548 -0.128627 0)
(-1.0485 -0.101544 0)
(-1.09527 -0.0783928 0)
(-1.13455 -0.0592682 0)
(-1.16772 -0.0438874 0)
(-1.19588 -0.0317846 0)
(-1.21993 -0.022435 0)
(-1.24055 -0.0153269 0)
(-1.25831 -0.00999575 0)
(-1.27366 -0.00604273 0)
(-1.28696 -0.00313329 0)
(-1.29851 -0.000996708 0)
(-1.30855 0.000584667 0)
(-1.31728 0.00178027 0)
(-1.32488 0.00272527 0)
(-1.3315 0.00352417 0)
(-1.33725 0.00425999 0)
(-1.34224 0.00500063 0)
(-1.34656 0.00580315 0)
(-1.35031 0.00671713 0)
(-1.35355 0.00779019 0)
(-1.35635 0.00907186 0)
(-1.35877 0.0106135 0)
(-1.36089 0.0124752 0)
(-1.36275 0.014726 0)
(-1.36443 0.0174483 0)
(-1.36598 0.0207424 0)
(-1.36747 0.0247295 0)
(-1.36898 0.0295591 0)
(-1.37056 0.035413 0)
(-1.37229 0.0425159 0)
(-1.37423 0.0511407 0)
(-1.37641 0.0616164 0)
(-1.37885 0.074332 0)
(-1.38146 0.089739 0)
(-1.38409 0.108327 0)
(-1.38639 0.130587 0)
(-1.38783 0.156924 0)
(-1.38757 0.187515 0)
(-1.38454 0.222105 0)
(-1.37746 0.259764 0)
(-1.36522 0.298703 0)
(-0.0637026 -0.0606033 0)
(-0.199603 -0.146522 0)
(-0.345987 -0.197049 0)
(-0.490389 -0.21708 0)
(-0.624069 -0.214617 0)
(-0.743103 -0.197724 0)
(-0.846355 -0.173158 0)
(-0.934451 -0.145873 0)
(-1.0089 -0.119109 0)
(-1.07153 -0.0947289 0)
(-1.12415 -0.0736069 0)
(-1.1684 -0.0559692 0)
(-1.2057 -0.0416563 0)
(-1.23726 -0.030308 0)
(-1.26405 -0.0214827 0)
(-1.28689 -0.0147317 0)
(-1.30642 -0.00963753 0)
(-1.32319 -0.00583688 0)
(-1.33762 -0.00302011 0)
(-1.35008 -0.000934181 0)
(-1.36086 0.00062592 0)
(-1.37019 0.00182235 0)
(-1.37828 0.00278324 0)
(-1.3853 0.00361091 0)
(-1.39138 0.00438568 0)
(-1.39665 0.00517516 0)
(-1.40121 0.00603668 0)
(-1.40515 0.00702101 0)
(-1.40855 0.00817768 0)
(-1.41147 0.00955968 0)
(-1.414 0.0112214 0)
(-1.41618 0.0132258 0)
(-1.41808 0.0156466 0)
(-1.41975 0.0185706 0)
(-1.42126 0.0221027 0)
(-1.42266 0.0263688 0)
(-1.42399 0.0315206 0)
(-1.42533 0.0377425 0)
(-1.4267 0.0452547 0)
(-1.42814 0.0543205 0)
(-1.42965 0.0652481 0)
(-1.43118 0.0783905 0)
(-1.43262 0.0941384 0)
(-1.43374 0.112893 0)
(-1.43418 0.135022 0)
(-1.43338 0.160778 0)
(-1.43058 0.190173 0)
(-1.42484 0.222823 0)
(-1.41515 0.257782 0)
(-1.40067 0.293444 0)
(-0.0610375 -0.0500941 0)
(-0.192007 -0.122443 0)
(-0.334976 -0.166396 0)
(-0.478593 -0.185305 0)
(-0.614314 -0.185146 0)
(-0.737611 -0.172268 0)
(-0.846507 -0.15223 0)
(-0.940834 -0.129277 0)
(-1.02149 -0.106309 0)
(-1.08991 -0.0850736 0)
(-1.14767 -0.0664611 0)
(-1.19636 -0.0507715 0)
(-1.23739 -0.0379383 0)
(-1.27202 -0.0276946 0)
(-1.30132 -0.0196801 0)
(-1.32618 -0.0135144 0)
(-1.34733 -0.00883529 0)
(-1.3654 -0.00532174 0)
(-1.38087 -0.00269897 0)
(-1.39416 -0.000737478 0)
(-1.40561 0.000747975 0)
(-1.41548 0.00190643 0)
(-1.42401 0.00285576 0)
(-1.43139 0.00369204 0)
(-1.43777 0.00449189 0)
(-1.44329 0.00531909 0)
(-1.44805 0.00622972 0)
(-1.45215 0.00727631 0)
(-1.45569 0.0085084 0)
(-1.45872 0.00997949 0)
(-1.46132 0.0117478 0)
(-1.46354 0.0138788 0)
(-1.46545 0.0164492 0)
(-1.4671 0.019548 0)
(-1.46853 0.0232838 0)
(-1.46979 0.0277845 0)
(-1.47092 0.0332017 0)
(-1.47196 0.0397179 0)
(-1.47293 0.0475453 0)
(-1.47382 0.0569331 0)
(-1.4746 0.0681647 0)
(-1.4752 0.0815538 0)
(-1.47544 0.0974295 0)
(-1.47508 0.116111 0)
(-1.47374 0.13786 0)
(-1.47087 0.162806 0)
(-1.4658 0.190841 0)
(-1.45771 0.221506 0)
(-1.44579 0.25388 0)
(-1.42946 0.286539 0)
(-0.0590127 -0.040231 0)
(-0.186146 -0.0991491 0)
(-0.32629 -0.135834 0)
(-0.469032 -0.152559 0)
(-0.606094 -0.15371 0)
(-0.732578 -0.144156 0)
(-0.845892 -0.128316 0)
(-0.945242 -0.10968 0)
(-1.03102 -0.0907111 0)
(-1.10428 -0.0729525 0)
(-1.16643 -0.0572337 0)
(-1.21892 -0.0438755 0)
(-1.26318 -0.0328751 0)
(-1.30049 -0.0240417 0)
(-1.33198 -0.0170927 0)
(-1.35861 -0.0117176 0)
(-1.38119 -0.00761528 0)
(-1.4004 -0.00451366 0)
(-1.41678 -0.00217824 0)
(-1.4308 -0.00041106 0)
(-1.44283 0.000948986 0)
(-1.45318 0.00203219 0)
(-1.4621 0.00294369 0)
(-1.46979 0.00376864 0)
(-1.47642 0.00457871 0)
(-1.48215 0.0054317 0)
(-1.48708 0.00638213 0)
(-1.49133 0.00748037 0)
(-1.49497 0.00877703 0)
(-1.49808 0.0103257 0)
(-1.50073 0.0121852 0)
(-1.50298 0.0144238 0)
(-1.50487 0.0171193 0)
(-1.50646 0.0203628 0)
(-1.50779 0.0242635 0)
(-1.50889 0.0289498 0)
(-1.50979 0.0345709 0)
(-1.5105 0.0413037 0)
(-1.51102 0.04935 0)
(-1.51134 0.0589418 0)
(-1.51137 0.0703334 0)
(-1.51102 0.0837996 0)
(-1.51009 0.099611 0)
(-1.50832 0.118013 0)
(-1.50531 0.139178 0)
(-1.50057 0.163137 0)
(-1.49347 0.189703 0)
(-1.48336 0.218378 0)
(-1.46957 0.248289 0)
(-1.45168 0.278182 0)
(-0.057509 -0.0308447 0)
(-0.181743 -0.0764803 0)
(-0.319654 -0.105415 0)
(-0.461576 -0.119159 0)
(-0.599496 -0.12083 0)
(-0.728296 -0.114012 0)
(-0.844956 -0.102053 0)
(-0.948206 -0.0876685 0)
(-1.03802 -0.0728219 0)
(-1.11518 -0.0587809 0)
(-1.18087 -0.0462516 0)
(-1.23648 -0.0355323 0)
(-1.2834 -0.0266541 0)
(-1.32293 -0.0194865 0)
(-1.35624 -0.0138193 0)
(-1.38435 -0.00941118 0)
(-1.40812 -0.00602561 0)
(-1.42828 -0.00344505 0)
(-1.44543 -0.00147925 0)
(-1.46006 3.1897e-05 0)
(-1.47258 0.0012206 0)
(-1.48332 0.00219504 0)
(-1.49255 0.00304417 0)
(-1.5005 0.00383979 0)
(-1.50735 0.00464502 0)
(-1.51325 0.0055125 0)
(-1.51832 0.00649175 0)
(-1.52268 0.00763064 0)
(-1.5264 0.00897976 0)
(-1.52957 0.0105917 0)
(-1.53225 0.0125257 0)
(-1.5345 0.0148505 0)
(-1.53636 0.0176441 0)
(-1.53787 0.0209995 0)
(-1.53907 0.0250239 0)
(-1.53999 0.0298437 0)
(-1.54062 0.0356046 0)
(-1.54099 0.0424751 0)
(-1.54105 0.0506448 0)
(-1.54077 0.0603249 0)
(-1.54006 0.0717418 0)
(-1.53878 0.0851293 0)
(-1.53673 0.100707 0)
(-1.53362 0.118654 0)
(-1.52909 0.139069 0)
(-1.52267 0.161911 0)
(-1.51381 0.18694 0)
(-1.50196 0.213645 0)
(-1.4866 0.241217 0)
(-1.46743 0.268552 0)
(-0.0564441 -0.0217996 0)
(-0.178599 -0.0542839 0)
(-0.314856 -0.0751429 0)
(-0.456102 -0.0853299 0)
(-0.594548 -0.0869224 0)
(-0.724956 -0.0823743 0)
(-0.844016 -0.0740248 0)
(-0.950117 -0.0638097 0)
(-1.04293 -0.0531544 0)
(-1.12301 -0.0429977 0)
(-1.19139 -0.0338762 0)
(-1.24937 -0.02603 0)
(-1.29833 -0.0194986 0)
(-1.33957 -0.014199 0)
(-1.37428 -0.00998534 0)
(-1.40354 -0.00668659 0)
(-1.42823 -0.00413146 0)
(-1.44913 -0.00216006 0)
(-1.46687 -0.000632627 0)
(-1.48198 0.0005708 0)
(-1.49488 0.00154963 0)
(-1.50592 0.00238685 0)
(-1.51541 0.00315181 0)
(-1.52355 0.00390219 0)
(-1.53056 0.00468952 0)
(-1.53659 0.00555963 0)
(-1.54177 0.00655647 0)
(-1.54621 0.00772503 0)
(-1.54999 0.00911359 0)
(-1.55319 0.0107733 0)
(-1.55588 0.0127635 0)
(-1.55811 0.0151515 0)
(-1.55991 0.0180156 0)
(-1.56133 0.0214474 0)
(-1.56239 0.0255524 0)
(-1.5631 0.0304524 0)
(-1.56347 0.0362887 0)
(-1.56347 0.0432189 0)
(-1.56307 0.0514184 0)
(-1.5622 0.0610771 0)
(-1.56075 0.0723941 0)
(-1.55858 0.0855636 0)
(-1.55548 0.100759 0)
(-1.55115 0.118105 0)
(-1.54524 0.13764 0)
(-1.53734 0.159271 0)
(-1.52696 0.182724 0)
(-1.51364 0.2075 0)
(-1.49699 0.232852 0)
(-1.47678 0.257813 0)
(-0.0557627 -0.0129836 0)
(-0.176575 -0.0324161 0)
(-0.311741 -0.0449905 0)
(-0.452512 -0.051233 0)
(-0.591256 -0.0523314 0)
(-0.722676 -0.0497169 0)
(-0.843283 -0.0447705 0)
(-0.95125 -0.0386505 0)
(-1.04605 -0.0322208 0)
(-1.12807 -0.0260563 0)
(-1.19825 -0.0204926 0)
(-1.25784 -0.0156829 0)
(-1.30817 -0.0116581 0)
(-1.35057 -0.00837228 0)
(-1.38625 -0.00573779 0)
(-1.41628 -0.00365273 0)
(-1.44161 -0.00201178 0)
(-1.46302 -0.000715395 0)
(-1.48116 0.000323092 0)
(-1.49659 0.00117991 0)
(-1.50976 0.00191895 0)
(-1.52101 0.00259692 0)
(-1.53066 0.00326015 0)
(-1.53895 0.00395139 0)
(-1.54607 0.00470918 0)
(-1.55219 0.00557099 0)
(-1.55744 0.00657534 0)
(-1.56192 0.00776223 0)
(-1.56574 0.00917649 0)
(-1.56895 0.0108683 0)
(-1.57163 0.0128948 0)
(-1.57381 0.0153227 0)
(-1.57555 0.0182279 0)
(-1.57686 0.0216998 0)
(-1.57777 0.0258417 0)
(-1.57827 0.0307691 0)
(-1.57835 0.0366167 0)
(-1.57799 0.0435306 0)
(-1.57713 0.0516707 0)
(-1.57569 0.0612066 0)
(-1.57355 0.072309 0)
(-1.57055 0.085138 0)
(-1.56647 0.0998255 0)
(-1.56104 0.11645 0)
(-1.55392 0.135004 0)
(-1.54472 0.155359 0)
(-1.53306 0.177225 0)
(-1.51852 0.20012 0)
(-1.50082 0.223367 0)
(-1.47979 0.246118 0)
(-0.0554302 -0.00430023 0)
(-0.175584 -0.0107423 0)
(-0.310209 -0.0149164 0)
(-0.450735 -0.0169906 0)
(-0.589614 -0.0173508 0)
(-0.721523 -0.0164665 0)
(-0.842889 -0.0147947 0)
(-0.951779 -0.0127197 0)
(-1.04757 -0.0105298 0)
(-1.13056 -0.00841888 0)
(-1.20164 -0.00649937 0)
(-1.26204 -0.00482292 0)
(-1.31307 -0.00340037 0)
(-1.35606 -0.0022161 0)
(-1.39222 -0.00123816 0)
(-1.42266 -0.000430345 0)
(-1.44831 0.000244975 0)
(-1.46998 0.000824991 0)
(-1.48833 0.00134228 0)
(-1.50393 0.0018275 0)
(-1.51723 0.00230837 0)
(-1.5286 0.00281153 0)
(-1.53834 0.00336131 0)
(-1.5467 0.00398335 0)
(-1.55388 0.00470195 0)
(-1.56004 0.00554667 0)
(-1.56532 0.00654792 0)
(-1.56983 0.00774187 0)
(-1.57365 0.00916847 0)
(-1.57685 0.0108751 0)
(-1.5795 0.012918 0)
(-1.58163 0.0153611 0)
(-1.58328 0.0182776 0)
(-1.58448 0.0217542 0)
(-1.58522 0.025889 0)
(-1.58551 0.0307926 0)
(-1.58531 0.0365896 0)
(-1.5846 0.0434145 0)
(-1.5833 0.0514129 0)
(-1.58132 0.0607328 0)
(-1.57854 0.0715195 0)
(-1.57477 0.0839014 0)
(-1.56982 0.0979757 0)
(-1.5634 0.113782 0)
(-1.55522 0.131281 0)
(-1.54494 0.150318 0)
(-1.5322 0.1706 0)
(-1.51668 0.191673 0)
(-1.49814 0.212925 0)
(-1.47649 0.233613 0)
(-0.0554301 0.00434 0)
(-0.175584 0.0108669 0)
(-0.310211 0.0151298 0)
(-0.450738 0.0172973 0)
(-0.589618 0.0177561 0)
(-0.721529 0.0169775 0)
(-0.842896 0.0154185 0)
(-0.951788 0.0134663 0)
(-1.04758 0.0114119 0)
(-1.13057 0.00944956 0)
(-1.20166 0.00769623 0)
(-1.26206 0.00620625 0)
(-1.3131 0.00499418 0)
(-1.35609 0.00404819 0)
(-1.39226 0.00334414 0)
(-1.4227 0.00285257 0)
(-1.44836 0.00254393 0)
(-1.47003 0.00239235 0)
(-1.4884 0.00237647 0)
(-1.50401 0.00248051 0)
(-1.51731 0.00269532 0)
(-1.52869 0.00301668 0)
(-1.53844 0.00344674 0)
(-1.5468 0.00399257 0)
(-1.55399 0.00466543 0)
(-1.56015 0.00548496 0)
(-1.56543 0.00647401 0)
(-1.56992 0.00766316 0)
(-1.57372 0.00908855 0)
(-1.57689 0.0107943 0)
(-1.57949 0.0128336 0)
(-1.58156 0.0152673 0)
(-1.58312 0.0181659 0)
(-1.58419 0.0216116 0)
(-1.58477 0.0256973 0)
(-1.58485 0.0305272 0)
(-1.58439 0.0362158 0)
(-1.58334 0.0428852 0)
(-1.58163 0.0506662 0)
(-1.57915 0.0596873 0)
(-1.57578 0.0700693 0)
(-1.57133 0.0819138 0)
(-1.56561 0.0952878 0)
(-1.55835 0.110202 0)
(-1.54927 0.126592 0)
(-1.53807 0.144289 0)
(-1.52446 0.163005 0)
(-1.50817 0.182318 0)
(-1.489 0.201679 0)
(-1.46691 0.220434 0)
(-0.055763 0.0130238 0)
(-0.176576 0.0325393 0)
(-0.311745 0.0452021 0)
(-0.452519 0.0515376 0)
(-0.591267 0.0527353 0)
(-0.722692 0.050225 0)
(-0.843304 0.0453917 0)
(-0.951277 0.0393947 0)
(-1.04608 0.033099 0)
(-1.12811 0.0270826 0)
(-1.1983 0.0216839 0)
(-1.2579 0.0170593 0)
(-1.30825 0.0132436 0)
(-1.35066 0.0101955 0)
(-1.38635 0.00783468 0)
(-1.41641 0.00606405 0)
(-1.44176 0.00478775 0)
(-1.46318 0.00391669 0)
(-1.48136 0.0033763 0)
(-1.49681 0.00310525 0)
(-1.51 0.00305692 0)
(-1.52128 0.00319811 0)
(-1.53095 0.00350694 0)
(-1.53926 0.00397342 0)
(-1.5464 0.0045966 0)
(-1.55252 0.00538453 0)
(-1.55775 0.0063532 0)
(-1.56221 0.00752722 0)
(-1.56597 0.00893911 0)
(-1.56909 0.0106282 0)
(-1.57163 0.0126438 0)
(-1.57362 0.0150443 0)
(-1.57508 0.0178967 0)
(-1.57603 0.0212778 0)
(-1.57645 0.0252749 0)
(-1.57632 0.0299838 0)
(-1.57561 0.0355102 0)
(-1.57425 0.041964 0)
(-1.57216 0.0494602 0)
(-1.56924 0.058109 0)
(-1.56535 0.0680104 0)
(-1.56031 0.0792424 0)
(-1.55392 0.0918471 0)
(-1.54594 0.105813 0)
(-1.53613 0.121059 0)
(-1.5242 0.137409 0)
(-1.50991 0.154588 0)
(-1.49304 0.172207 0)
(-1.47344 0.189772 0)
(-1.45108 0.206716 0)
(-0.0564453 0.0218391 0)
(-0.178602 0.0544059 0)
(-0.314863 0.0753521 0)
(-0.456114 0.0856311 0)
(-0.594566 0.0873216 0)
(-0.724982 0.0828774 0)
(-0.844049 0.0746407 0)
(-0.950161 0.0645472 0)
(-1.04299 0.0540244 0)
(-1.12308 0.0440143 0)
(-1.19147 0.0350568 0)
(-1.24948 0.0273939 0)
(-1.29845 0.0210694 0)
(-1.33972 0.0160055 0)
(-1.37446 0.0120622 0)
(-1.40374 0.00907493 0)
(-1.42847 0.00688076 0)
(-1.44941 0.00532937 0)
(-1.46719 0.00429341 0)
(-1.48233 0.00366802 0)
(-1.49528 0.00337076 0)
(-1.50636 0.00334029 0)
(-1.51588 0.00353305 0)
(-1.52407 0.00392181 0)
(-1.5311 0.00449339 0)
(-1.53714 0.00524597 0)
(-1.5423 0.0061872 0)
(-1.54669 0.00733712 0)
(-1.55038 0.00872262 0)
(-1.55343 0.0103796 0)
(-1.5559 0.0123536 0)
(-1.5578 0.0146985 0)
(-1.55916 0.0174773 0)
(-1.55998 0.0207622 0)
(-1.56025 0.0246331 0)
(-1.55994 0.0291787 0)
(-1.55899 0.0344936 0)
(-1.55736 0.0406781 0)
(-1.55494 0.0478303 0)
(-1.55164 0.0560438 0)
(-1.54729 0.0654016 0)
(-1.54175 0.0759599 0)
(-1.53481 0.0877419 0)
(-1.52626 0.100721 0)
(-1.51586 0.114802 0)
(-1.50338 0.129812 0)
(-1.48859 0.14549 0)
(-1.47132 0.16148 0)
(-1.45146 0.177345 0)
(-1.42901 0.192587 0)
(-0.0575103 0.0308836 0)
(-0.181748 0.0766019 0)
(-0.319663 0.105623 0)
(-0.461592 0.119457 0)
(-0.59952 0.121223 0)
(-0.72833 0.114508 0)
(-0.845002 0.10266 0)
(-0.948266 0.0883951 0)
(-1.0381 0.0736796 0)
(-1.11527 0.0597836 0)
(-1.18099 0.0474151 0)
(-1.23662 0.036877 0)
(-1.28357 0.0282028 0)
(-1.32314 0.0212678 0)
(-1.35648 0.0158663 0)
(-1.38463 0.0117647 0)
(-1.40845 0.00873394 0)
(-1.42866 0.00656569 0)
(-1.44586 0.00508264 0)
(-1.46055 0.00413764 0)
(-1.47313 0.00361664 0)
(-1.48393 0.00343152 0)
(-1.49322 0.00351884 0)
(-1.50121 0.00383504 0)
(-1.50809 0.0043557 0)
(-1.514 0.00506995 0)
(-1.51906 0.00597844 0)
(-1.52335 0.00709501 0)
(-1.52696 0.00844256 0)
(-1.52993 0.0100534 0)
(-1.53231 0.0119686 0)
(-1.53412 0.014237 0)
(-1.53538 0.0169176 0)
(-1.53608 0.0200765 0)
(-1.53621 0.0237879 0)
(-1.53572 0.0281318 0)
(-1.53458 0.0331923 0)
(-1.5327 0.0390593 0)
(-1.53 0.045817 0)
(-1.52637 0.0535441 0)
(-1.52166 0.0623064 0)
(-1.51571 0.0721444 0)
(-1.50834 0.0830653 0)
(-1.49935 0.0950308 0)
(-1.48851 0.10794 0)
(-1.47563 0.121627 0)
(-1.46052 0.135846 0)
(-1.44303 0.150276 0)
(-1.42308 0.164529 0)
(-1.40069 0.178172 0)
(-0.059014 0.0402698 0)
(-0.186151 0.099269 0)
(-0.326301 0.136038 0)
(-0.469052 0.152852 0)
(-0.606124 0.154096 0)
(-0.73262 0.144643 0)
(-0.845948 0.128911 0)
(-0.945317 0.110393 0)
(-1.03111 0.0915522 0)
(-1.1044 0.0739362 0)
(-1.16657 0.0583748 0)
(-1.2191 0.0451944 0)
(-1.26339 0.0343942 0)
(-1.30075 0.0257885 0)
(-1.33228 0.0191002 0)
(-1.35896 0.0140249 0)
(-1.3816 0.010269 0)
(-1.40087 0.00757059 0)
(-1.41732 0.00570544 0)
(-1.43142 0.00448915 0)
(-1.44352 0.00377882 0)
(-1.45395 0.00346254 0)
(-1.46293 0.00345897 0)
(-1.47068 0.00371091 0)
(-1.47736 0.00418366 0)
(-1.48311 0.00485806 0)
(-1.48803 0.00572963 0)
(-1.4922 0.00680517 0)
(-1.4957 0.00810465 0)
(-1.49858 0.00965578 0)
(-1.50086 0.0114955 0)