/*--------------------------------*- C++ -*----------------------------------*\
  =========                 |
  \\      /  F ield         | OpenFOAM: The Open Source CFD Toolbox
   \\    /   O peration     | Website:  https://openfoam.org
    \\  /    A nd           | Version:  6
     \\/     M anipulation  |
\*---------------------------------------------------------------------------*/
FoamFile
{
    version     2.0;
    format      ascii;
    class       volVectorField;
    location    "0";
    object      Usup;
}
// * * * * * * * * * * * * * * * * * * * * * * * * * * * * * * * * * * * * * //

dimensions      [0 1 -1 0 0 0 0];

internalField   nonuniform List<vector> 
11644
(
(-0.0007264 0.000524984 0)
(-0.00206124 0.00157125 0)
(-0.00326279 0.00261514 0)
(-0.00432268 0.00366412 0)
(-0.00523442 0.00471919 0)
(-0.00599023 0.00577488 0)
(-0.0065802 0.0068197 0)
(-0.00699212 0.00783458 0)
(-0.00721258 0.00879132 0)
(-0.00722865 0.00965121 0)
(-0.00703085 0.0103642 0)
(-0.00661691 0.0108696 0)
(-0.0059964 0.0110985 0)
(-0.00519563 0.01098 0)
(-0.00426154 0.0104494 0)
(-0.00326289 0.00946052 0)
(-0.00228755 0.00799863 0)
(-0.00143433 0.00609194 0)
(-0.000799503 0.00381804 0)
(-0.000460447 0.00130111 0)
(-0.000460435 -0.00130097 0)
(-0.000799467 -0.00381791 0)
(-0.00143428 -0.0060918 0)
(-0.0022875 -0.00799847 0)
(-0.00326283 -0.0094604 0)
(-0.00426146 -0.0104493 0)
(-0.00519556 -0.0109799 0)
(-0.0059963 -0.0110985 0)
(-0.00661683 -0.0108695 0)
(-0.0070308 -0.0103642 0)
(-0.00722862 -0.00965122 0)
(-0.00721253 -0.00879131 0)
(-0.00699211 -0.00783455 0)
(-0.0065802 -0.00681972 0)
(-0.00599025 -0.00577493 0)
(-0.00523439 -0.00471921 0)
(-0.00432267 -0.00366414 0)
(-0.00326279 -0.00261514 0)
(-0.00206128 -0.0015712 0)
(-0.000726408 -0.000524968 0)
(-0.00220391 0.00133743 0)
(-0.00622543 0.00401458 0)
(-0.00983755 0.00670268 0)
(-0.0130249 0.00941151 0)
(-0.0157722 0.0121422 0)
(-0.018058 0.0148834 0)
(-0.0198532 0.0176083 0)
(-0.021121 0.0202704 0)
(-0.0218199 0.0227989 0)
(-0.0219083 0.0250942 0)
(-0.0213531 0.0270258 0)
(-0.0201414 0.0284323 0)
(-0.0182949 0.0291279 0)
(-0.015886 0.028916 0)
(-0.0130511 0.0276134 0)
(-0.00999698 0.0250826 0)
(-0.00699393 0.0212697 0)
(-0.00435194 0.0162394 0)
(-0.00237759 0.0101958 0)
(-0.00132017 0.00347772 0)
(-0.00132014 -0.0034773 0)
(-0.00237747 -0.0101954 0)
(-0.00435178 -0.016239 0)
(-0.00699378 -0.0212693 0)
(-0.00999684 -0.0250823 0)
(-0.013051 -0.0276131 0)
(-0.0158858 -0.0289158 0)
(-0.0182947 -0.0291278 0)
(-0.0201412 -0.0284322 0)
(-0.021353 -0.0270257 0)
(-0.0219082 -0.0250942 0)
(-0.0218199 -0.0227988 0)
(-0.021121 -0.0202705 0)
(-0.0198532 -0.0176084 0)
(-0.018058 -0.0148834 0)
(-0.0157722 -0.0121422 0)
(-0.0130249 -0.00941157 0)
(-0.00983752 -0.00670274 0)
(-0.00622546 -0.00401453 0)
(-0.00220392 -0.00133738 0)
(-0.00371487 0.00191673 0)
(-0.0104477 0.00576048 0)
(-0.0164832 0.00963521 0)
(-0.0218161 0.0135578 0)
(-0.0264313 0.0175348 0)
(-0.0302994 0.0215569 0)
(-0.0333752 0.0255933 0)
(-0.0355978 0.0295843 0)
(-0.0368942 0.033434 0)
(-0.037187 0.0370019 0)
(-0.0364071 0.0400962 0)
(-0.0345129 0.0424706 0)
(-0.0315163 0.0438295 0)
(-0.0275136 0.0438458 0)
(-0.0227143 0.0421962 0)
(-0.0174595 0.0386165 0)
(-0.0122189 0.0329695 0)
(-0.00755313 0.0253154 0)
(-0.00403436 0.0159594 0)
(-0.00213887 0.0054554 0)
(-0.00213883 -0.00545467 0)
(-0.00403423 -0.0159587 0)
(-0.00755291 -0.0253148 0)
(-0.0122187 -0.0329691 0)
(-0.0174593 -0.038616 0)
(-0.0227141 -0.0421958 0)
(-0.0275134 -0.0438455 0)
(-0.0315162 -0.0438293 0)
(-0.0345128 -0.0424704 0)
(-0.0364071 -0.0400961 0)
(-0.037187 -0.0370019 0)
(-0.0368942 -0.033434 0)
(-0.0355978 -0.0295843 0)
(-0.0333752 -0.0255933 0)
(-0.0302994 -0.021557 0)
(-0.0264313 -0.0175348 0)
(-0.0218161 -0.0135579 0)
(-0.0164832 -0.00963527 0)
(-0.0104477 -0.00576047 0)
(-0.00371487 -0.00191668 0)
(-0.00522242 0.00225736 0)
(-0.0146545 0.0067913 0)
(-0.0231069 0.0113812 0)
(-0.0305963 0.0160579 0)
(-0.0371183 0.0208413 0)
(-0.0426442 0.0257346 0)
(-0.0471186 0.0307163 0)
(-0.0504595 0.0357319 0)
(-0.0525608 0.040682 0)
(-0.0533008 0.0454099 0)
(-0.0525565 0.0496873 0)
(-0.050229 0.0532026 0)
(-0.0462812 0.0555564 0)
(-0.0407892 0.0562747 0)
(-0.0339972 0.0548505 0)
(-0.026361 0.050823 0)
(-0.0185661 0.0438872 0)
(-0.01149 0.0340235 0)
(-0.00607287 0.0215995 0)
(-0.00312665 0.00741059 0)
(-0.00312661 -0.00740969 0)
(-0.00607275 -0.0215987 0)
(-0.0114897 -0.0340227 0)
(-0.0185658 -0.0438866 0)
(-0.0263607 -0.0508225 0)
(-0.0339969 -0.05485 0)
(-0.040789 -0.0562743 0)
(-0.046281 -0.0555561 0)
(-0.0502289 -0.0532024 0)
(-0.0525565 -0.0496873 0)
(-0.0533008 -0.0454099 0)
(-0.0525608 -0.040682 0)
(-0.0504595 -0.0357319 0)
(-0.0471187 -0.0307163 0)
(-0.0426442 -0.0257345 0)
(-0.0371183 -0.0208414 0)
(-0.0305963 -0.0160579 0)
(-0.0231069 -0.0113812 0)
(-0.0146544 -0.00679127 0)
(-0.00522242 -0.00225731 0)
(-0.00668565 0.00235063 0)
(-0.0187413 0.00708083 0)
(-0.0295562 0.0118954 0)
(-0.0391792 0.0168437 0)
(-0.0476281 0.021966 0)
(-0.0548859 0.0272874 0)
(-0.060897 0.0328104 0)
(-0.0655659 0.038505 0)
(-0.068757 0.0442945 0)
(-0.0702996 0.0500379 0)
(-0.0700004 0.0555075 0)
(-0.0676678 0.0603618 0)
(-0.0631586 0.0641202 0)
(-0.056454 0.0661534 0)
(-0.0477598 0.0657118 0)
(-0.0375799 0.0620344 0)
(-0.0268122 0.0545042 0)
(-0.016754 0.042891 0)
(-0.00887858 0.0275306 0)
(-0.00453054 0.00950095 0)
(-0.00453045 -0.00949987 0)
(-0.00887835 -0.0275295 0)
(-0.0167537 -0.0428901 0)
(-0.0268119 -0.0545035 0)
(-0.0375795 -0.0620339 0)
(-0.0477595 -0.0657113 0)
(-0.0564538 -0.0661531 0)
(-0.0631584 -0.0641199 0)
(-0.0676677 -0.0603617 0)
(-0.0700004 -0.0555074 0)
(-0.0702996 -0.0500378 0)
(-0.068757 -0.0442944 0)
(-0.065566 -0.038505 0)
(-0.0608971 -0.0328104 0)
(-0.054886 -0.0272874 0)
(-0.0476283 -0.021966 0)
(-0.0391793 -0.0168437 0)
(-0.0295563 -0.0118954 0)
(-0.0187413 -0.00708083 0)
(-0.00668567 -0.00235062 0)
(-0.00805933 0.00219013 0)
(-0.0225783 0.00660843 0)
(-0.0356259 0.0111383 0)
(-0.0472946 0.0158489 0)
(-0.0576368 0.0208033 0)
(-0.0666607 0.0260551 0)
(-0.0743253 0.0316418 0)
(-0.0805363 0.0375751 0)
(-0.0851419 0.0438281 0)
(-0.0879308 0.0503141 0)
(-0.0886344 0.056858 0)
(-0.0869406 0.0631532 0)
(-0.0825312 0.0687045 0)
(-0.0751765 0.0727676 0)
(-0.0649497 0.0742858 0)
(-0.0522231 0.0720798 0)
(-0.0379391 0.0649527 0)
(-0.0241423 0.0523055 0)
(-0.0129467 0.0341532 0)
(-0.00661434 0.0118959 0)
(-0.00661424 -0.0118946 0)
(-0.0129464 -0.034152 0)
(-0.0241419 -0.0523046 0)
(-0.0379387 -0.0649519 0)
(-0.0522226 -0.0720792 0)
(-0.0649494 -0.0742854 0)
(-0.0751762 -0.0727673 0)
(-0.082531 -0.0687043 0)
(-0.0869405 -0.0631531 0)
(-0.0886344 -0.0568579 0)
(-0.0879309 -0.0503141 0)
(-0.0851421 -0.0438281 0)
(-0.0805365 -0.0375751 0)
(-0.0743254 -0.0316417 0)
(-0.0666608 -0.0260552 0)
(-0.057637 -0.0208033 0)
(-0.0472947 -0.0158488 0)
(-0.0356261 -0.0111383 0)
(-0.0225784 -0.00660843 0)
(-0.00805936 -0.00219014 0)
(-0.00928536 0.00177688 0)
(-0.025998 0.00537513 0)
(-0.0410445 0.00910461 0)
(-0.0545716 0.0130495 0)
(-0.0666782 0.0172933 0)
(-0.0774121 0.0219173 0)
(-0.086765 0.0269968 0)
(-0.0946662 0.0325956 0)
(-0.100974 0.0387549 0)
(-0.105465 0.0454767 0)
(-0.107821 0.0526955 0)
(-0.107618 0.0602319 0)
(-0.104314 0.0677186 0)
(-0.0972541 0.0745233 0)
(-0.0864632 0.0791153 0)
(-0.0718103 0.0800739 0)
(-0.0539708 0.0742135 0)
(-0.0364482 0.0636692 0)
(-0.0206802 0.0455788 0)
(-0.0101973 0.0209616 0)
(-0.00789301 -0.00702734 0)
(-0.01446 -0.0338708 0)
(-0.0279857 -0.0555246 0)
(-0.0450275 -0.0699126 0)
(-0.0718099 -0.0800733 0)
(-0.0864628 -0.079115 0)
(-0.0972538 -0.0745231 0)
(-0.104314 -0.0677184 0)
(-0.107618 -0.0602319 0)
(-0.107821 -0.0526955 0)
(-0.105465 -0.0454767 0)
(-0.100974 -0.0387549 0)
(-0.0946664 -0.0325956 0)
(-0.0867652 -0.0269968 0)
(-0.0774123 -0.0219173 0)
(-0.0666784 -0.0172933 0)
(-0.0545718 -0.0130495 0)
(-0.0410446 -0.00910459 0)
(-0.0259981 -0.00537512 0)
(-0.0092854 -0.00177687 0)
(-0.0102929 0.00112553 0)
(-0.0287972 0.00342278 0)
(-0.0454802 0.0058564 0)
(-0.0605478 0.00851593 0)
(-0.0741527 0.0114952 0)
(-0.0863933 0.0148938 0)
(-0.097311 0.0188166 0)
(-0.106884 0.0233731 0)
(-0.115015 0.0286731 0)
(-0.121519 0.0348183 0)
(-0.126099 0.0418822 0)
(-0.128313 0.0498599 0)
(-0.127545 0.0585637 0)
(-0.117721 0.0679574 0)
(-0.108953 0.0757345 0)
(-0.0949511 0.0812254 0)
(-0.0755146 0.0817054 0)
(-0.0525895 0.0738918 0)
(-0.0301092 0.0553259 0)
(-0.0142471 0.0261514 0)
(-0.010714 -0.0088946 0)
(-0.0209362 -0.0418782 0)
(-0.040941 -0.0660403 0)
(-0.0643147 -0.0790011 0)
(-0.0857304 -0.0824047 0)
(-0.10254 -0.0789768 0)
(-0.113896 -0.0720801 0)
(-0.127545 -0.0585636 0)
(-0.128313 -0.0498598 0)
(-0.1261 -0.0418822 0)
(-0.12152 -0.0348182 0)
(-0.115015 -0.0286731 0)
(-0.106884 -0.0233731 0)
(-0.0973114 -0.0188165 0)
(-0.0863936 -0.0148937 0)
(-0.0741529 -0.0114952 0)
(-0.0605481 -0.00851589 0)
(-0.0454804 -0.00585637 0)
(-0.0287973 -0.00342277 0)
(-0.0102929 -0.00112553 0)
(-0.0110058 0.000269843 0)
(-0.0307584 0.00085122 0)
(-0.0485747 0.00155518 0)
(-0.0647151 0.002463 0)
(-0.079384 0.00366361 0)
(-0.0927328 0.00525697 0)
(-0.10486 0.0073572 0)
(-0.115806 0.010096 0)
(-0.12555 0.0136258 0)
(-0.133986 0.0181239 0)
(-0.140909 0.0237955 0)
(-0.145957 0.0308614 0)
(-0.148532 0.0395 0)
(-0.142155 0.0529846 0)
(-0.136524 0.0637724 0)
(-0.124387 0.0744988 0)
(-0.103216 0.0818867 0)
(-0.0766215 0.0813888 0)
(-0.0461042 0.0674563 0)
(-0.0209156 0.0368005 0)
(-0.0126794 -0.00548083 0)
(-0.0259636 -0.0459232 0)
(-0.0535987 -0.0724986 0)
(-0.0838014 -0.0825795 0)
(-0.108675 -0.080667 0)
(-0.131394 -0.0692718 0)
(-0.14005 -0.0582837 0)
(-0.148533 -0.0394999 0)
(-0.145958 -0.0308613 0)
(-0.140909 -0.0237954 0)
(-0.133987 -0.0181238 0)
(-0.12555 -0.0136257 0)
(-0.115807 -0.0100958 0)
(-0.10486 -0.00735709 0)
(-0.0927332 -0.00525686 0)
(-0.0793844 -0.00366351 0)
(-0.0647154 -0.00246293 0)
(-0.048575 -0.00155513 0)
(-0.0307586 -0.000851183 0)
(-0.0110058 -0.000269832 0)
(-0.0113542 -0.000734601 0)
(-0.0316832 -0.00217263 0)
(-0.0499985 -0.00352022 0)
(-0.0665993 -0.00471811 0)
(-0.0817273 -0.00569876 0)
(-0.0955744 -0.00638235 0)
(-0.108286 -0.00667246 0)
(-0.11996 -0.0064503 0)
(-0.130647 -0.0055673 0)
(-0.140335 -0.00383437 0)
(-0.148938 -0.0010019 0)
(-0.156261 0.0032734 0)
(-0.161914 0.00945501 0)
(-0.161207 0.0250732 0)
(-0.160447 0.0362478 0)
(-0.151524 0.0526252 0)
(-0.135022 0.0677544 0)
(-0.10737 0.0779789 0)
(-0.067704 0.074698 0)
(-0.0278217 0.0467028 0)
(-0.0117261 -0.00338679 0)
(-0.0320283 -0.0516989 0)
(-0.0730769 -0.0762798 0)
(-0.111562 -0.0771899 0)
(-0.14073 -0.0634782 0)
(-0.157952 -0.0429201 0)
(-0.161439 -0.0302741 0)
(-0.161915 -0.0094548 0)
(-0.156262 -0.00327317 0)
(-0.148939 0.00100215 0)
(-0.140336 0.00383463 0)
(-0.130647 0.00556755 0)
(-0.119961 0.00645053 0)
(-0.108286 0.00667268 0)
(-0.0955749 0.00638253 0)
(-0.0817278 0.00569891 0)
(-0.0665996 0.00471823 0)
(-0.0499988 0.00352031 0)
(-0.0316833 0.00217269 0)
(-0.0113543 0.000734618 0)
(-0.0112886 -0.00181239 0)
(-0.031431 -0.00542039 0)
(-0.0495182 -0.0089818 0)
(-0.0658605 -0.0124682 0)
(-0.0807112 -0.0158445 0)
(-0.0942754 -0.019066 0)
(-0.106715 -0.0220743 0)
(-0.118153 -0.0247926 0)
(-0.12867 -0.0271174 0)
(-0.138297 -0.0289101 0)
(-0.147008 -0.0299764 0)
(-0.154696 -0.0300114 0)
(-0.161123 -0.0284908 0)
(-0.166341 -0.0144744 0)
(-0.168799 -0.00719437 0)
(-0.166853 0.00965799 0)
(-0.156749 0.0284188 0)
(-0.130749 0.0477297 0)
(-0.0824018 0.0594672 0)
(-0.0223985 0.0388815 0)
(0.000507715 -0.00119228 0)
(-0.0255043 -0.0412116 0)
(-0.0861564 -0.0595564 0)
(-0.135204 -0.0453939 0)
(-0.160013 -0.02159 0)
(-0.168397 0.00192068 0)
(-0.168015 0.011355 0)
(-0.161124 0.0284913 0)
(-0.154697 0.0300119 0)
(-0.147009 0.0299769 0)
(-0.138298 0.0289106 0)
(-0.128671 0.0271179 0)
(-0.118154 0.0247929 0)
(-0.106716 0.0220747 0)
(-0.094276 0.0190662 0)
(-0.0807117 0.0158447 0)
(-0.0658609 0.0124684 0)
(-0.0495185 0.00898193 0)
(-0.0314312 0.00542046 0)
(-0.0112887 0.00181242 0)
(-0.0107919 -0.00287605 0)
(-0.0299567 -0.00862592 0)
(-0.0470594 -0.0143732 0)
(-0.0623889 -0.0201202 0)
(-0.0761775 -0.0258644 0)
(-0.0886088 -0.0315969 0)
(-0.0998214 -0.0372993 0)
(-0.10991 -0.0429393 0)
(-0.118922 -0.0484633 0)
(-0.126844 -0.053788 0)
(-0.133582 -0.0587838 0)
(-0.138926 -0.063216 0)
(-0.142491 -0.0666038 0)
(-0.150587 -0.0576357 0)
(-0.150376 -0.0563744 0)
(-0.150246 -0.0448565 0)
(-0.140427 -0.0300209 0)
(-0.111389 -0.00873111 0)
(-0.0315042 0.00582685 0)
(-0.039153 -0.00628862 0)
(-0.114156 0.0126908 0)
(-0.141377 0.0365056 0)
(-0.14844 0.0541106 0)
(-0.150967 0.0575055 0)
(-0.142492 0.0666049 0)
(-0.138927 0.063217 0)
(-0.133582 0.0587846 0)
(-0.126845 0.0537887 0)
(-0.118923 0.0484639 0)
(-0.109911 0.0429398 0)
(-0.0998221 0.0372998 0)
(-0.0886093 0.0315972 0)
(-0.076178 0.0258647 0)
(-0.0623893 0.0201204 0)
(-0.0470597 0.0143734 0)
(-0.0299569 0.00862602 0)
(-0.010792 0.00287609 0)
(-0.00988722 -0.00383847 0)
(-0.0273307 -0.0115238 0)
(-0.0427425 -0.0192382 0)
(-0.0563594 -0.0270043 0)
(-0.068363 -0.0348406 0)
(-0.0788844 -0.0427589 0)
(-0.0880043 -0.0507606 0)
(-0.0957495 -0.0588303 0)
(-0.102083 -0.0669243 0)
(-0.106885 -0.0749547 0)
(-0.10992 -0.0827585 0)
(-0.110783 -0.0900236 0)
(-0.108825 -0.0961543 0)
(-0.115355 -0.0926168 0)
(-0.107527 -0.094281 0)
(-0.102124 -0.0873299 0)
(-0.0852937 -0.0750909 0)
(-0.053119 -0.0513362 0)
(-0.000767431 -0.00106711 0)
(-0.00243462 0.00334005 0)
(-0.0558236 0.053328 0)
(-0.0863987 0.0798578 0)
(-0.101231 0.0931277 0)
(-0.112113 0.0940412 0)
(-0.108826 0.0961557 0)
(-0.110784 0.0900248 0)
(-0.109921 0.0827595 0)
(-0.106886 0.0749556 0)
(-0.102084 0.0669251 0)
(-0.0957502 0.0588309 0)
(-0.0880049 0.0507612 0)
(-0.0788849 0.0427594 0)
(-0.0683635 0.034841 0)
(-0.0563598 0.0270046 0)
(-0.0427428 0.0192384 0)
(-0.0273308 0.0115239 0)
(-0.00988728 0.00383851 0)
(-0.00863722 -0.00462667 0)
(-0.0237363 -0.0138922 0)
(-0.0368762 -0.023197 0)
(-0.0482201 -0.0325676 0)
(-0.0578807 -0.0420239 0)
(-0.0659207 -0.0515742 0)
(-0.0723496 -0.0612088 0)
(-0.0771161 -0.0708888 0)
(-0.080097 -0.0805272 0)
(-0.0810781 -0.0899606 0)
(-0.0797271 -0.098899 0)
(-0.0755562 -0.106834 0)
(-0.0678911 -0.112932 0)
(-0.0704463 -0.112578 0)
(-0.055723 -0.11283 0)
(-0.0448903 -0.106204 0)
(-0.0250583 -0.0922984 0)
(0.00177216 -0.066699 0)
(0.0159479 -0.0302293 0)
(0.0157223 0.0327749 0)
(-0.00138328 0.0705861 0)
(-0.0266107 0.0962272 0)
(-0.0462511 0.110477 0)
(-0.0637492 0.113452 0)
(-0.0678915 0.112933 0)
(-0.0755567 0.106835 0)
(-0.0797277 0.0989001 0)
(-0.0810787 0.0899616 0)
(-0.0800976 0.0805281 0)
(-0.0771167 0.0708895 0)
(-0.0723501 0.0612095 0)
(-0.0659212 0.0515747 0)
(-0.0578811 0.0420243 0)
(-0.0482204 0.0325679 0)
(-0.0368765 0.0231972 0)
(-0.0237365 0.0138924 0)
(-0.00863728 0.00462671 0)
(-0.00713442 -0.00519271 0)
(-0.0194406 -0.0155866 0)
(-0.0299055 -0.0260062 0)
(-0.038611 -0.0364651 0)
(-0.0455977 -0.0469651 0)
(-0.0508621 -0.0574889 0)
(-0.0543515 -0.0679905 0)
(-0.0559579 -0.0783786 0)
(-0.0555098 -0.0884933 0)
(-0.0527643 -0.09807 0)
(-0.047401 -0.106684 0)
(-0.0390266 -0.113672 0)
(-0.0272185 -0.118074 0)
(-0.0259548 -0.118666 0)
(-0.00788791 -0.11595 0)
(0.00513404 -0.1083 0)
(0.0236816 -0.0933691 0)
(0.0441868 -0.0699901 0)
(0.0565271 -0.0423153 0)
(0.0580302 -0.017154 0)
(0.0546644 0.000503969 0)
(0.0582726 0.0199095 0)
(0.0556049 0.0458061 0)
(0.0419479 0.0732471 0)
(0.0221264 0.0967711 0)
(0.00246733 0.112141 0)
(-0.0174011 0.118085 0)
(-0.0272186 0.118075 0)
(-0.0390268 0.113673 0)
(-0.0474014 0.106685 0)
(-0.0527648 0.098071 0)
(-0.0555103 0.0884942 0)
(-0.0559584 0.0783794 0)
(-0.0543519 0.0679911 0)
(-0.0508625 0.0574894 0)
(-0.0455981 0.0469655 0)
(-0.0386113 0.0364655 0)
(-0.0299057 0.0260065 0)
(-0.0194408 0.0155867 0)
(-0.00713447 0.00519276 0)
(-0.00548565 -0.00551825 0)
(-0.0147489 -0.0165531 0)
(-0.0223332 -0.0275815 0)
(-0.0282445 -0.0385907 0)
(-0.0324603 -0.0495516 0)
(-0.0349255 -0.0604093 0)
(-0.0355485 -0.0710708 0)
(-0.0341982 -0.0813869 0)
(-0.0307034 -0.0911284 0)
(-0.0248588 -0.0999531 0)
(-0.0164437 -0.107362 0)
(-0.00527069 -0.112663 0)
(0.00871043 -0.115009 0)
(0.0127433 -0.115476 0)
(0.0314734 -0.110193 0)
(0.05172 -0.0994305 0)
(0.0644654 -0.0859996 0)
(0.0812501 -0.0653604 0)
(0.0926801 -0.0422853 0)
(0.098327 -0.0192532 0)
(0.0996102 0.00272057 0)
(0.0973976 0.024907 0)
(0.0903853 0.0481396 0)
(0.077501 0.0708453 0)
(0.0596475 0.0906006 0)
(0.0415066 0.105537 0)
(0.0217568 0.113529 0)
(0.00871044 0.11501 0)
(-0.00527085 0.112664 0)
(-0.0164439 0.107363 0)
(-0.0248591 0.099954 0)
(-0.0307037 0.0911292 0)
(-0.0341985 0.0813876 0)
(-0.0355489 0.0710714 0)
(-0.0349258 0.0604098 0)
(-0.0324605 0.049552 0)
(-0.0282447 0.038591 0)
(-0.0223334 0.0275818 0)
(-0.014749 0.0165533 0)
(-0.00548569 0.0055183 0)
(-0.00379577 -0.0056123 0)
(-0.00995806 -0.0168216 0)
(-0.0146416 -0.0279816 0)
(-0.0177901 -0.0390476 0)
(-0.0193338 -0.0499554 0)
(-0.0191857 -0.0606114 0)
(-0.0172391 -0.0708799 0)
(-0.0133691 -0.0805666 0)
(-0.00743819 -0.0893995 0)
(0.000689889 -0.0970064 0)
(0.0111239 -0.102895 0)
(0.0238994 -0.106436 0)
(0.0389243 -0.106843 0)
(0.0559875 -0.103228 0)
(0.0624883 -0.100266 0)
(0.0803979 -0.0893697 0)
(0.0921368 -0.0774076 0)
(0.10647 -0.0592218 0)
(0.116893 -0.0391155 0)
(0.122853 -0.0182852 0)
(0.124443 0.00261092 0)
(0.121782 0.0235119 0)
(0.114699 0.0442516 0)
(0.103213 0.0639986 0)
(0.0890073 0.0822674 0)
(0.0714718 0.0953895 0)
(0.0559879 0.103229 0)
(0.0389244 0.106844 0)
(0.0238993 0.106437 0)
(0.0111237 0.102896 0)
(0.000689693 0.0970073 0)
(-0.0074384 0.0894002 0)
(-0.0133693 0.0805673 0)
(-0.0172393 0.0708805 0)
(-0.0191859 0.0606119 0)
(-0.019334 0.0499558 0)
(-0.0177903 0.0390479 0)
(-0.0146418 0.0279818 0)
(-0.00995815 0.0168217 0)
(-0.00379581 0.00561234 0)
(-0.00215493 -0.00550419 0)
(-0.0053213 -0.0164828 0)
(-0.00723543 -0.0273678 0)
(-0.00779628 -0.0380831 0)
(-0.00690424 -0.0485324 0)
(-0.00445792 -0.0585906 0)
(-0.000354175 -0.0680916 0)
(0.00550769 -0.0768164 0)
(0.0132161 -0.0844798 0)
(0.0228296 -0.0907189 0)
(0.0343486 -0.0950892 0)
(0.0476721 -0.0970738 0)
(0.0625312 -0.096121 0)
(0.0783747 -0.0917824 0)
(0.0855076 -0.0888616 0)
(0.101311 -0.0783491 0)
(0.111891 -0.0678041 0)
(0.124246 -0.051918 0)
(0.133332 -0.0344769 0)
(0.13869 -0.0162235 0)
(0.140157 0.00232223 0)
(0.137712 0.0208304 0)
(0.131398 0.0389395 0)
(0.121438 0.0560673 0)
(0.108734 0.0719242 0)
(0.0935152 0.0840159 0)
(0.0783751 0.0917831 0)
(0.0625315 0.0961217 0)
(0.0476721 0.0970746 0)
(0.0343485 0.09509 0)
(0.0228296 0.0907196 0)
(0.013216 0.0844805 0)
(0.00550757 0.076817 0)
(-0.000354307 0.0680921 0)
(-0.00445805 0.058591 0)
(-0.00690437 0.0485328 0)
(-0.00779641 0.0380833 0)
(-0.00723554 0.027368 0)
(-0.00532137 0.016483 0)
(-0.00215496 0.00550423 0)
(-0.000631697 -0.00523498 0)
(-0.00102945 -0.0156624 0)
(-0.000414061 -0.0259572 0)
(0.00134272 -0.0360174 0)
(0.00435519 -0.0457225 0)
(0.0087257 -0.0549262 0)
(0.0145431 -0.0634475 0)
(0.0218769 -0.0710628 0)
(0.0307661 -0.0774992 0)
(0.0412014 -0.0824325 0)
(0.0530998 -0.0854957 0)
(0.0662708 -0.086306 0)
(0.0803736 -0.0845224 0)
(0.0948668 -0.0799297 0)
(0.102144 -0.0772104 0)
(0.116012 -0.0675181 0)
(0.125512 -0.0583026 0)
(0.136077 -0.0445763 0)
(0.143849 -0.029625 0)
(0.148459 -0.0139619 0)
(0.149729 0.00199975 0)
(0.147615 0.0179202 0)
(0.142192 0.0334484 0)
(0.133679 0.0481443 0)
(0.12242 0.0618097 0)
(0.109219 0.0726721 0)
(0.0948673 0.0799303 0)
(0.0803739 0.0845231 0)
(0.0662711 0.0863067 0)
(0.0530999 0.0854964 0)
(0.0412014 0.0824331 0)
(0.0307661 0.0774998 0)
(0.0218768 0.0710633 0)
(0.014543 0.063448 0)
(0.00872563 0.0549266 0)
(0.00435511 0.0457228 0)
(0.00134264 0.0360176 0)
(-0.000414129 0.0259574 0)
(-0.0010295 0.0156625 0)
(-0.000631713 0.00523502 0)
(0.000728584 -0.00484961 0)
(0.00279277 -0.0144965 0)
(0.00563166 -0.0239816 0)
(0.00938573 -0.0331847 0)
(0.0141722 -0.0419707 0)
(0.0200862 -0.0501833 0)
(0.0271979 -0.0576405 0)
(0.0355471 -0.0641295 0)
(0.0451327 -0.0694065 0)
(0.0558976 -0.0732011 0)
(0.0677095 -0.0752294 0)
(0.0803402 -0.0752258 0)
(0.0934493 -0.0729999 0)
(0.10657 -0.0684944 0)
(0.113708 -0.0660581 0)
(0.125821 -0.0573919 0)
(0.134346 -0.0494508 0)
(0.143369 -0.0377272 0)
(0.149979 -0.0250535 0)
(0.1539 -0.011807 0)
(0.154981 0.00169124 0)
(0.153182 0.0151542 0)
(0.14857 0.0282898 0)
(0.141326 0.0407629 0)
(0.131365 0.0524111 0)
(0.119907 0.0619629 0)
(0.106571 0.0684949 0)
(0.0934497 0.0730005 0)
(0.0803405 0.0752264 0)
(0.0677097 0.07523 0)
(0.0558977 0.0732016 0)
(0.0451328 0.069407 0)
(0.0355472 0.0641299 0)
(0.0271979 0.0576409 0)
(0.0200862 0.0501837 0)
(0.0141722 0.0419709 0)
(0.00938569 0.033185 0)
(0.00563162 0.0239818 0)
(0.00279274 0.0144966 0)
(0.000728574 0.00484964 0)
(0.00190177 -0.00439099 0)
(0.00608044 -0.0131145 0)
(0.0108071 -0.0216584 0)
(0.016223 -0.0298927 0)
(0.0224404 -0.0376764 0)
(0.0295428 -0.0448536 0)
(0.0375822 -0.0512508 0)
(0.0465745 -0.0566759 0)
(0.0564908 -0.0609214 0)
(0.0672468 -0.0637719 0)
(0.0786898 -0.065019 0)
(0.0905864 -0.0644861 0)
(0.102615 -0.0620815 0)
(0.114371 -0.0579191 0)
(0.12133 -0.0558891 0)
(0.131837 -0.0481585 0)
(0.139573 -0.0415028 0)
(0.147271 -0.031573 0)
(0.152898 -0.0209345 0)
(0.156225 -0.00985932 0)
(0.157136 0.00141282 0)
(0.1556 0.0126568 0)
(0.151671 0.0236455 0)
(0.14549 0.034134 0)
(0.136672 0.0438921 0)
(0.126643 0.0522351 0)
(0.114371 0.0579196 0)
(0.102616 0.062082 0)
(0.0905867 0.0644866 0)
(0.07869 0.0650195 0)
(0.0672469 0.0637723 0)
(0.056491 0.0609218 0)
(0.0465746 0.0566763 0)
(0.0375823 0.0512511 0)
(0.0295428 0.0448539 0)
(0.0224404 0.0376766 0)
(0.016223 0.0298929 0)
(0.0108071 0.0216585 0)
(0.00608042 0.0131146 0)
(0.00190176 0.00439102 0)
(0.00288096 -0.00389636 0)
(0.00881685 -0.0116281 0)
(0.0150938 -0.0191732 0)
(0.021846 -0.0263997 0)
(0.0291756 -0.0331682 0)
(0.0371535 -0.0393304 0)
(0.0458161 -0.044728 0)
(0.0551621 -0.0491942 0)
(0.0651462 -0.0525582 0)
(0.0756729 -0.0546552 0)
(0.0865894 -0.0553402 0)
(0.0976808 -0.0545097 0)
(0.108672 -0.05213 0)
(0.119255 -0.0482621 0)
(0.12919 -0.0430015 0)
(0.135298 -0.0400969 0)
(0.143097 -0.0326299 0)
(0.149387 -0.0244536 0)
(0.153862 -0.015783 0)
(0.156386 -0.00681489 0)
(0.156883 0.00227746 0)
(0.155342 0.0113277 0)
(0.151809 0.0201676 0)
(0.146391 0.0286163 0)
(0.139281 0.0364574 0)
(0.12919 0.043002 0)
(0.119256 0.0482625 0)
(0.108672 0.0521305 0)
(0.0976812 0.0545101 0)
(0.0865897 0.0553406 0)
(0.0756731 0.0546555 0)
(0.0651464 0.0525585 0)
(0.0551622 0.0491944 0)
(0.0458162 0.0447283 0)
(0.0371536 0.0393306 0)
(0.0291757 0.0331684 0)
(0.021846 0.0263998 0)
(0.0150938 0.0191733 0)
(0.00881684 0.0116281 0)
(0.00288096 0.00389638 0)
(0.00367196 -0.00339553 0)
(0.0110204 -0.0101261 0)
(0.0185278 -0.0166725 0)
(0.0263159 -0.0229066 0)
(0.0344752 -0.0286964 0)
(0.0430636 -0.033906 0)
(0.0521057 -0.0383957 0)
(0.061589 -0.0420248 0)
(0.0714612 -0.0446573 0)
(0.081626 -0.0461706 0)
(0.0919414 -0.0464684 0)
(0.102219 -0.0454963 0)
(0.112232 -0.043258 0)
(0.121727 -0.0398258 0)
(0.130448 -0.0353229 0)
(0.138108 -0.0299004 0)
(0.144454 -0.0238223 0)
(0.149344 -0.0173043 0)
(0.152671 -0.0104964 0)
(0.154354 -0.00351757 0)
(0.154354 0.00351808 0)
(0.152671 0.0104969 0)
(0.149344 0.0173048 0)
(0.144454 0.0238228 0)
(0.138109 0.0299009 0)
(0.130448 0.0353233 0)
(0.121727 0.0398262 0)
(0.112232 0.0432584 0)
(0.10222 0.0454967 0)
(0.0919417 0.0464687 0)
(0.0816263 0.0461709 0)
(0.0714614 0.0446575 0)
(0.0615892 0.042025 0)
(0.0521058 0.0383958 0)
(0.0430637 0.0339062 0)
(0.0344752 0.0286965 0)
(0.0263159 0.0229066 0)
(0.0185278 0.0166726 0)
(0.0110204 0.0101262 0)
(0.00367196 0.00339555 0)
(0.00428889 -0.00291067 0)
(0.0127326 -0.00867444 0)
(0.0211796 -0.0142635 0)
(0.0297374 -0.019558 0)
(0.0384836 -0.0244373 0)
(0.0474651 -0.0287803 0)
(0.0566972 -0.0324669 0)
(0.0661619 -0.0353814 0)
(0.0758059 -0.0374178 0)
(0.0855395 -0.0384875 0)
(0.0952367 -0.03853 0)
(0.104738 -0.0375236 0)
(0.113856 -0.0354959 0)
(0.122388 -0.0325265 0)
(0.130128 -0.0287347 0)
(0.136876 -0.0242711 0)
(0.142443 -0.0193157 0)
(0.146714 -0.0140213 0)
(0.149609 -0.00850059 0)
(0.151071 -0.00284786 0)
(0.151071 0.00284846 0)
(0.149609 0.00850118 0)
(0.146714 0.0140219 0)
(0.142443 0.0193162 0)
(0.136876 0.0242716 0)
(0.130129 0.0287352 0)
(0.122388 0.0325269 0)
(0.113856 0.0354962 0)
(0.104738 0.0375239 0)
(0.0952369 0.0385302 0)
(0.0855397 0.0384877 0)
(0.0758061 0.037418 0)
(0.066162 0.0353816 0)
(0.0566973 0.032467 0)
(0.0474651 0.0287804 0)
(0.0384836 0.0244374 0)
(0.0297374 0.019558 0)
(0.0211796 0.0142635 0)
(0.0127326 0.00867446 0)
(0.00428888 0.00291068 0)
(0.00475058 -0.00245687 0)
(0.0140073 -0.00731756 0)
(0.0231385 -0.0120178 0)
(0.0322367 -0.0164489 0)
(0.0413668 -0.0205036 0)
(0.0505665 -0.0240764 0)
(0.0598448 -0.0270665 0)
(0.0691815 -0.0293801 0)
(0.0785267 -0.0309364 0)
(0.0878008 -0.0316732 0)
(0.096896 -0.0315553 0)
(0.10568 -0.0305824 0)
(0.114002 -0.0287947 0)
(0.121703 -0.0262724 0)
(0.128624 -0.023125 0)
(0.134615 -0.0194813 0)
(0.139548 -0.0154739 0)
(0.143329 -0.0112147 0)
(0.145891 -0.00679078 0)
(0.147184 -0.00227349 0)
(0.147184 0.00227415 0)
(0.145891 0.00679143 0)
(0.143329 0.0112153 0)
(0.139548 0.0154745 0)
(0.134615 0.0194818 0)
(0.128624 0.0231254 0)
(0.121703 0.0262727 0)
(0.114003 0.028795 0)
(0.10568 0.0305826 0)
(0.0968962 0.0315554 0)
(0.087801 0.0316733 0)
(0.0785269 0.0309365 0)
(0.0691816 0.0293802 0)
(0.0598448 0.0270665 0)
(0.0505665 0.0240765 0)
(0.0413668 0.0205036 0)
(0.0322367 0.0164489 0)
(0.0231385 0.0120178 0)
(0.0140073 0.00731757 0)
(0.00475058 0.00245687 0)
(0.0050778 -0.00204326 0)
(0.0149036 -0.00608225 0)
(0.0245004 -0.00997779 0)
(0.0339458 -0.013634 0)
(0.0432936 -0.0169574 0)
(0.0525735 -0.0198582 0)
(0.0617905 -0.0222528 0)
(0.0709248 -0.0240668 0)
(0.0799319 -0.0252393 0)
(0.0887437 -0.0257278 0)
(0.0972707 -0.025515 0)
(0.105406 -0.0246131 0)
(0.11303 -0.0230678 0)
(0.120019 -0.0209547 0)
(0.126252 -0.0183712 0)
(0.131619 -0.0154238 0)
(0.136025 -0.0122153 0)
(0.139396 -0.00883169 0)
(0.141675 -0.0053385 0)
(0.142825 -0.00178558 0)
(0.142825 0.00178629 0)
(0.141675 0.00533918 0)
(0.139396 0.00883233 0)
(0.136025 0.0122159 0)
(0.13162 0.0154242 0)
(0.126253 0.0183716 0)
(0.120019 0.020955 0)
(0.11303 0.023068 0)
(0.105406 0.0246133 0)
(0.0972709 0.0255151 0)
(0.0887439 0.0257279 0)
(0.079932 0.0252393 0)
(0.0709249 0.0240669 0)
(0.0617906 0.0222528 0)
(0.0525735 0.0198582 0)
(0.0432936 0.0169573 0)
(0.0339458 0.013634 0)
(0.0245004 0.00997779 0)
(0.0149036 0.00608224 0)
(0.00507779 0.00204325 0)
(0.00529124 -0.0016743 0)
(0.0154802 -0.00498131 0)
(0.0253594 -0.00816311 0)
(0.0349928 -0.0111368 0)
(0.0444243 -0.0138226 0)
(0.0536773 -0.0161455 0)
(0.0627542 -0.0180371 0)
(0.0716369 -0.0194391 0)
(0.0802874 -0.020306 0)
(0.0886491 -0.0206101 0)
(0.0966493 -0.0203455 0)
(0.104203 -0.0195318 0)
(0.111217 -0.018215 0)
(0.117596 -0.016465 0)
(0.12325 -0.0143665 0)
(0.128094 -0.0120086 0)
(0.132057 -0.00947345 0)
(0.135081 -0.00682724 0)
(0.137122 -0.00411726 0)
(0.138151 -0.00137537 0)
(0.138151 0.0013761 0)
(0.137123 0.00411795 0)
(0.135081 0.00682788 0)
(0.132057 0.00947401 0)
(0.128094 0.012009 0)
(0.12325 0.0143668 0)
(0.117597 0.0164652 0)
(0.111217 0.0182152 0)
(0.104203 0.0195319 0)
(0.0966494 0.0203456 0)
(0.0886491 0.0206101 0)
(0.0802874 0.020306 0)
(0.0716369 0.019439 0)
(0.0627541 0.0180371 0)
(0.0536772 0.0161454 0)
(0.0444243 0.0138226 0)
(0.0349927 0.0111368 0)
(0.0253593 0.00816309 0)
(0.0154802 0.0049813 0)
(0.00529123 0.00167429 0)
(0.00541032 -0.00135097 0)
(0.0157919 -0.00401727 0)
(0.0258027 -0.00657654 0)
(0.035495 -0.00895851 0)
(0.0449039 -0.0110963 0)
(0.0540479 -0.0129281 0)
(0.0629277 -0.0143988 0)
(0.0715279 -0.015463 0)
(0.0798168 -0.0160873 0)
(0.0877486 -0.0162544 0)
(0.0952653 -0.0159657 0)
(0.1023 -0.0152442 0)
(0.108782 -0.0141345 0)
(0.114637 -0.0126996 0)
(0.119798 -0.0110136 0)
(0.124201 -0.00915159 0)
(0.127791 -0.00718049 0)
(0.130525 -0.00515109 0)
(0.132367 -0.00309604 0)
(0.133294 -0.00103235 0)
(0.133294 0.00103306 0)
(0.132367 0.00309672 0)
(0.130525 0.0051517 0)
(0.127791 0.00718101 0)
(0.124201 0.00915201 0)
(0.119798 0.0110139 0)
(0.114638 0.0126998 0)
(0.108782 0.0141346 0)
(0.1023 0.0152442 0)
(0.0952653 0.0159657 0)
(0.0877485 0.0162544 0)
(0.0798167 0.0160873 0)
(0.0715278 0.0154629 0)
(0.0629277 0.0143987 0)
(0.0540478 0.012928 0)
(0.0449039 0.0110963 0)
(0.0354949 0.00895847 0)
(0.0258027 0.00657651 0)
(0.0157919 0.00401726 0)
(0.00541031 0.00135096 0)
(0.00545247 -0.00107181 0)
(0.0158878 -0.0031855 0)
(0.0259083 -0.00520943 0)
(0.0355562 -0.00708514 0)
(0.0448593 -0.00875748 0)
(0.0538321 -0.0101761 0)
(0.0624747 -0.0112973 0)
(0.0707741 -0.0120859 0)
(0.0787047 -0.0125178 0)
(0.08623 -0.0125828 0)
(0.0933048 -0.012287 0)
(0.0998772 -0.0116544 0)
(0.105893 -0.0107269 0)
(0.111296 -0.00956123 0)
(0.116036 -0.00822226 0)
(0.120064 -0.00677437 0)
(0.123339 -0.00527263 0)
(0.125828 -0.0037562 0)
(0.127503 -0.002246 0)
(0.128345 -0.000746794 0)
(0.128345 0.000747468 0)
(0.127503 0.00224663 0)
(0.125828 0.00375676 0)
(0.123339 0.00527309 0)
(0.120064 0.00677473 0)
(0.116036 0.00822251 0)
(0.111296 0.00956137 0)
(0.105893 0.0107269 0)
(0.0998771 0.0116544 0)
(0.0933046 0.012287 0)
(0.0862299 0.0125828 0)
(0.0787045 0.0125177 0)
(0.0707739 0.0120858 0)
(0.0624746 0.0112972 0)
(0.053832 0.010176 0)
(0.0448592 0.00875742 0)
(0.035556 0.00708509 0)
(0.0259083 0.00520939 0)
(0.0158877 0.00318547 0)
(0.00545245 0.0010718 0)
(0.00543279 -0.000833807 0)
(0.0158102 -0.00247677 0)
(0.0257433 -0.00404587 0)
(0.0352651 -0.00549326 0)
(0.0443982 -0.00677419 0)
(0.0531534 -0.00784828 0)
(0.0615308 -0.00868105 0)
(0.0695198 -0.00924567 0)
(0.0771 -0.009525 0)
(0.084243 -0.00951374 0)
(0.0909137 -0.00922054 0)
(0.0970727 -0.00866929 0)
(0.102678 -0.00789887 0)
(0.107689 -0.00696028 0)
(0.112066 -0.00591086 0)
(0.115774 -0.00480643 0)
(0.118781 -0.00369312 0)
(0.121062 -0.00260109 0)
(0.122595 -0.00154191 0)
(0.123365 -0.00051025 0)
(0.123365 0.000510841 0)
(0.122594 0.00154246 0)
(0.121062 0.00260156 0)
(0.118781 0.0036935 0)
(0.115774 0.0048067 0)