/*--------------------------------*- C++ -*----------------------------------*\
  =========                 |
  \\      /  F ield         | OpenFOAM: The Open Source CFD Toolbox
   \\    /   O peration     | Website:  https://openfoam.org
    \\  /    A nd           | Version:  6
     \\/     M anipulation  |
\*---------------------------------------------------------------------------*/
FoamFile
{
    version     2.0;
    format      ascii;
    class       volScalarField;
    location    "0";
    object      P_rec;
}
// * * * * * * * * * * * * * * * * * * * * * * * * * * * * * * * * * * * * * //

dimensions      [0 2 -2 0 0 0 0];

internalField   nonuniform List<scalar> 
918
(
0.558717
0.291708
0.106311
0.577891
-0.00283477
0.188863
-0.787952
0.517893
0.581653
-0.112413
0.0324502
0.453169
0.0451864
0.0257095
-1.23097
0.0217063
0.576407
-0.720499
0.416286
0.0244939
-0.0485726
0.58216
0.515232
0.41295
0.498156
-0.0490001
0.115788
-0.0332518
-0.0533498
-0.0407316
-0.00409213
0.0456484
0.00779903
0.183329
0.159605
0.195471
0.422348
0.21125
-0.65306
-0.705159
-0.695444
-0.862293
0.526866
0.540048
-0.286735
0.496074
0.470986
0.425688
0.561217
0.584371
0.519284
0.564302
0.591421
0.281592
-0.152981
-0.223823
-0.0727787
-0.0763962
0.0766838
0.0252668
0.00998979
0.0598933
0.0468666
0.372993
0.444684
0.439592
0.463835
0.463625
0.253089
0.204333
0.246853
0.0456416
0.168173
0.0160249
0.127
0.0274469
0.0646686
0.00354244
-0.0129779
-1.50363
-2.264
-0.757632
-0.618731
0.00644082
0.0239475
0.0330038
0.564556
0.566269
0.562395
0.571774
0.72063
-0.648659
-0.834989
0.449401
0.448441
0.568046
0.523359
0.466512
0.401965
0.0222304
0.0180902
0.0121332
0.0403821
0.0313737
0.121798
0.232795
0.391505
0.42484
0.46354
0.488855
0.476569
0.205482
0.536525
0.537707
-0.0907394
0.079032
-0.0542879
0.0253542
0.124994
0.0913645
0.196468
0.236371
-0.0585979
-0.0107361
0.0367151
0.00167061
0.0264088
0.421599
0.411806
0.43513
0.42512
0.431001
0.11238
0.0104937
0.287766
0.322627
-0.531967
-0.571963
-0.749045
-0.773538
-0.892711
0.475967
0.543558
0.559418
-0.39142
-0.258288
-0.428205
-0.174547
-0.220775
0.429008
0.421211
0.421582
0.429776
0.432673
0.433882
0.57019
0.563128
0.596723
0.286868
0.362035
0.266626
0.218411
-0.443953
-0.310659
-0.424498
-0.0484991
-0.013528
0.0657821
0.10116
0.1111
0.0831279
-0.0123892
0.00515042
-0.0056876
0.0175949
0.0206262
0.376438
0.360926
0.374598
0.384595
0.438975
0.437307
0.441922
0.444572
0.203357
0.191891
0.150239
0.126589
-3.06168
-5.2352
-0.421527
-0.325743
-0.00228269
-0.0119989
-0.00449637
-0.0806702
-0.0145281
-0.0414018
0.0713646
0.0446467
0.0346357
0.0538788
0.561355
0.572762
0.724529
0.762213
0.638089
0.637709
0.44433
0.454532
0.450479
0.452192
0.0350685
0.0187194
0.0358826
0.436919
0.333345
0.385491
0.171584
0.0780676
0.253703
0.292889
0.562808
0.546493
0.569327
-0.0918208
-0.00625698
0.336572
0.091197
0.325509
0.157529
0.112459
0.143604
0.0875559
0.389869
0.407499
0.403815
0.432935
0.439155
0.439553
0.440641
0.433521
0.437407
-0.148507
-0.447524
0.389426
0.397347
0.361744
0.3974
0.552
0.62231
0.564812
0.554355
0.565052
-0.0751946
-0.113068
0.168788
0.153369
0.323643
0.339577
0.329542
0.122738
0.081418
0.120746
0.106372
0.0821868
0.132785
-0.416175
-1.79075
-1.01855
-0.122706
-0.212644
-0.17869
0.0432809
0.105501
0.0731368
0.732078
0.777306
0.40308
0.560126
0.512272
-0.114513
-0.0377671
0.0672434
-0.0550844
-0.00780797
0.0735907
0.0267707
0.381116
0.3473
0.364431
0.651821
0.72139
0.0417571
-0.0220475
-0.0624573
0.124659
0.122498
0.116952
0.761415
0.721539
0.761189
0.399594
0.389744
-0.0558953
-0.00427215
0.498738
0.523732
-0.0571697
-0.0245957
-0.117731
-0.827014
0.0373626
0.451406
0.41024
0.464724
-0.135826
0.190916
0.00504397
0.0239757
-0.0237941
0.425554
0.355407
0.322595
-0.0579745
0.00943048
-0.000440263
-0.425171
0.458168
0.442575
0.44995
0.460868
0.474365
-0.00677361
-0.0137739
0.0296064
-0.034865
0.0410832
0.0379858
0.432076
0.421393
-0.442534
0.443943
0.467423
0.466691
0.479467
0.480955
0.469645
-0.0135636
0.0320145
0.0367062
0.14356
0.251768
-0.00731391
-0.0490414
0.00535041
-0.132114
-0.324951
-0.0475315
-0.0326907
-0.0478212
-0.0186363
0.529087
0.495875
0.120144
-0.0591335
0.113489
0.0760898
0.446501
0.46368
0.437768
0.448588
0.466836
0.41937
0.481938
0.451633
0.448796
0.490569
-0.0952229
-0.0378947
-0.0880466
-0.213364
0.27727
0.358521
0.175238
0.246161
0.0948461
-0.0118402
0.0433375
-0.0205975
-0.00170537
0.00323472
0.103828
0.0355471
0.135832
0.0214281
0.108504
-0.034989
0.134169
-0.00368382
0.40943
0.428827
0.425397
0.465564
0.387616
0.404641
0.380816
0.381014
0.399652
0.330987
0.349181
0.348166
0.0132297
0.0125059
0.042784
0.024948
0.0453643
-0.0292241
-0.0278927
-0.0272209
-0.0051965
-0.0480231
-0.00656152
-0.00139654
-0.358337
-0.520842
0.675485
0.554262
0.0513524
0.42011
0.462187
0.436275
0.473872
0.484413
0.51577
0.481328
0.458691
0.427873
0.443166
0.425822
0.443547
-0.367061
-0.436666
-0.284127
-0.334819
0.130874
0.543781
0.299166
0.244923
0.23679
0.406671
0.331782
0.0849385
-0.148961
-0.259008
-0.549228
-0.396406
-0.564517
-0.104132
-0.0609133
-0.0856199
-0.00448026
0.0697634
0.00435858
-0.0142124
-0.114231
0.432464
-0.18488
-0.165306
0.0594789
-0.0207077
0.240854
0.529523
0.539304
0.473708
0.451897
0.512822
0.487196
0.485584
0.516984
0.523473
0.425021
0.19091
0.174479
0.110499
0.536141
0.447425
0.482776
0.371944
0.465671
0.470104
0.449734
0.440528
0.47565
0.439164
0.434661
0.413434
0.407432
0.445072
0.448585
0.41951
-0.0104863
-0.0227024
-0.0958465
-0.314761
-0.176111
-0.275935
-0.136652
0.0465369
-0.0405789
0.0819431
0.258793
0.0211417
-0.240593
-0.0822158
-0.207935
0.104544
0.00926186
0.106272
0.128135
0.127918
0.123089
0.193012
0.166126
0.033859
0.0409415
0.066624
-0.00684511
0.127963
0.088073
0.148412
0.0615858
0.111716
0.0649419
0.0282791
-0.00295936
0.0954278
0.0473226
-0.00314891
0.0296507
0.0186238
-0.066951
-0.063743
0.175422
0.0476635
0.450574
0.434619
0.436407
0.453503
0.48646
0.479565
0.425807
0.4282
0.453063
0.425443
0.394976
0.3769
0.36981
0.400117
0.411355
0.407895
0.448793
0.439768
0.410971
0.431559
0.378136
0.39762
0.352373
0.369279
0.39478
-0.0950788
0.0201202
-0.0377273
-0.0439996
0.0113429
0.0484487
0.109352
0.0333694
0.117347
0.0893575
0.0613995
0.0283835
0.0561012
-0.249122
-0.145696
-0.381185
-0.443632
-0.531279
0.652218
0.714623
0.588505
0.432785
0.490121
0.593071
0.683723
0.406344
0.435999
0.512378
0.357665
0.637084
0.44686
0.432821
0.453114
0.4723
0.449381
-0.220082
-0.083562
-0.0345367
0.0678443
0.201652
0.263354
0.0963055
0.0336659
0.144505
0.15228
0.524802
0.544576
0.510865
0.542914
0.537325
0.34137
0.431119
0.462003
0.455589
0.460434
0.481866
0.483827
0.481108
0.41374
0.408393
0.414126
0.369556
0.393738
0.367046
0.364721
0.422932
0.401796
0.403843
0.413989
0.461065
0.442847
0.469027
0.513007
0.4938
0.396005
0.375913
0.400003
0.410973
0.388603
0.3873
0.383578
0.146179
0.181041
0.0917936
-0.122883
0.0116728
-0.052545
-0.102334
-0.0831507
0.0719007
-0.430816
-0.368013
-0.889462
0.32355
0.401198
0.190627
-0.0683745
0.431372
0.46436
0.449536
0.356917
0.367791
0.520773
0.542857
0.551284
0.475035
0.471768
0.490553
0.477666
0.425601
0.301387
0.241778
0.275124
0.11615
0.173847
0.333578
0.274038
0.228418
0.257075
0.351163
0.259001
0.287617
0.359123
0.321591
0.309153
0.440136
0.484966
0.50227
0.446729
0.355398
0.41186
0.400386
0.448149
0.489052
0.492986
0.44958
0.432496
0.441792
0.432914
0.422619
0.439475
0.41016
0.454846
0.460382
0.467978
0.461647
-0.0188372
0.00411942
0.0153353
-0.0279102
-0.0356448
-0.0806634
-0.0637244
-0.0891825
0.0601508
0.0331683
-0.0537562
-0.0197801
0.0770599
0.0304221
0.0949944
0.113027
0.0639428
0.00551893
0.199262
0.351628
0.328007
0.287502
0.190105
0.203693
0.300013
0.0300316
0.121779
0.0752258
0.0423361
0.0363273
0.0179587
0.108956
0.0488825
0.0878497
0.0402191
-0.109194
0.0462414
0.0986786
-0.0472207
0.0110982
0.0438832
0.414844
0.417033
0.400483
0.381283
0.3894
0.388636
0.425064
0.448691
0.451555
0.450186
0.455803
0.439336
0.445722
0.0111769
0.125861
0.153368
0.0942624
0.045084
-0.00398726
-0.0185957
-0.0165838
-0.116403
-0.0608345
-0.225041
-0.298656
-0.24996
0.282338
0.293757
0.293134
0.580071
0.417238
0.330813
0.418608
0.539894
0.187703
0.322331
0.182391
0.641198
0.575463
0.67386
0.415835
0.0418085
0.134333
0.273107
0.0197511
0.0200787
0.123425
0.117964
0.122349
0.122404
0.207076
0.18724
0.180359
0.0831783
0.086656
0.22798
0.199851
0.306962
0.362161
0.0225369
0.0775909
-0.00210253
0.500569
0.525404
0.547823
0.521414
0.541116
0.480449
0.478878
0.510512
0.534812
0.523606
-0.735162
-0.467683
-1.327
-0.650092
-0.349615
0.415654
0.16807
0.759085
0.601813
0.471555
0.495837
0.49863
0.460239
0.514149
0.516181
0.267353
0.360859
0.305142
0.342975
0.256444
0.183427
0.481968
0.470675
0.496658
0.517812
0.472675
0.516476
0.373967
0.413851
0.396613
0.429709
0.451385
0.470397
0.0763414
0.0147098
0.0598341
0.052022
0.0396736
0.0132481
-0.043876
-0.0126918
0.167822
0.106854
0.0505161
0.106388
-0.0843117
-0.09414
-0.202954
-0.147283
-0.171462
-0.300669
-0.280262
-0.276158
-0.188491
-0.0929106
0.323794
0.51982
0.400665
0.563987
0.380987
0.540586
0.306953
0.35181
0.360758
0.261826
0.291091
-0.0223818
-0.313582
-0.22712
0.821165
0.911516
0.565755
0.302879
0.060781
0.375777
0.44848
0.38051
0.400886
0.481746
0.444688
-0.117939
-0.0259857
-0.0706901
0.00705281
0.153394
0.0685078
0.0836649
0.0752667
0.0848613
)
;

boundaryField
{
    wall-4
    {
        type            calculated;
        value           nonuniform List<scalar> 
100
(
0.558717
0.291708
0.106311
0.577891
0.188863
-0.787952
0.517893
-0.112413
0.0324502
0.453169
0.0451864
0.0257095
-1.23097
0.576407
-0.720499
0.416286
0.0244939
-0.0485726
0.41295
0.498156
-0.0490001
0.115788
-0.0332518
0.183329
0.422348
-0.705159
-0.862293
0.540048
-0.286735
0.470986
0.425688
-0.223823
-0.0763962
0.00998979
0.0468666
0.372993
0.439592
0.463625
0.168173
0.127
0.0646686
-0.0129779
-2.264
-0.618731
0.566269
0.571774
-0.834989
0.448441
0.401965
0.0180902
0.0313737
0.232795
0.42484
0.476569
0.205482
0.537707
-0.0907394
0.0253542
0.0913645
0.236371
0.411806
0.43513
0.431001
-0.571963
-0.892711
0.559418
-0.428205
-0.220775
0.421582
0.433882
-0.424498
-0.013528
-0.0056876
0.0206262
0.360926
0.384595
0.438975
0.444572
0.126589
-0.325743
0.572762
0.44433
0.452192
0.0358826
0.385491
0.0780676
0.292889
0.569327
-0.00625698
0.157529
0.403815
0.439553
0.437407
0.565052
-0.113068
0.329542
0.106372
-0.17869
-0.00780797
-0.0624573
)
;
    }
    velocity-inlet-5
    {
        type            calculated;
        value           nonuniform List<scalar> 8(0.558717 0.577891 0.581653 0.58216 0.584371 0.591421 0.568046 0.596723);
    }
    velocity-inlet-6
    {
        type            calculated;
        value           nonuniform List<scalar> 4(0.291708 0.188863 0.195471 0.246853);
    }
    pressure-outlet-7
    {
        type            calculated;
        value           uniform 0;
    }
    wall-8
    {
        type            calculated;
        value           nonuniform List<scalar> 
34
(
-0.00283477
0.0217063
0.00779903
0.21125
0.281592
0.0766838
0.0330038
0.72063
0.0264088
0.0104937
0.322627
0.475967
0.362035
0.218411
0.10116
0.0831279
-5.2352
0.0713646
0.0538788
0.762213
0.637709
-0.447524
0.389426
0.3974
0.62231
0.153369
-1.01855
0.0731368
0.777306
0.512272
0.364431
0.72139
0.116952
0.761189
)
;
    }
    frontAndBackPlanes
    {
        type            empty;
    }
}

