/*--------------------------------*- C++ -*----------------------------------*\
  =========                 |
  \\      /  F ield         | OpenFOAM: The Open Source CFD Toolbox
   \\    /   O peration     | Website:  https://openfoam.org
    \\  /    A nd           | Version:  6
     \\/     M anipulation  |
\*---------------------------------------------------------------------------*/
FoamFile
{
    version     2.0;
    format      ascii;
    class       volVectorField;
    location    "0";
    object      U_rec;
}
// * * * * * * * * * * * * * * * * * * * * * * * * * * * * * * * * * * * * * //

dimensions      [0 1 -1 0 0 0 0];

internalField   nonuniform List<vector> 
918
(
(0.985516 -0.00391224 0)
(-0.0107865 2.99192 0)
(-0.0125016 1.70488 0)
(0.977887 0.00652482 0)
(-0.00810988 1.66665 5.73431e-17)
(0.00485345 2.98337 -2.57429e-17)
(0.941244 1.42016 4.19286e-18)
(0.477171 0.245429 2.64807e-19)
(0.996321 0.000326473 0)
(0.0336454 1.59433 0)
(-0.00441182 1.58682 0)
(0.895308 -0.0029487 0)
(-0.0027266 2.98911 0)
(0.00461602 2.89187 0)
(-0.000955284 2.90499 1.8387e-17)
(-0.00625267 1.63328 3.45029e-17)
(0.646532 0.137193 -1.37723e-18)
(0.192721 1.66659 -3.6896e-17)
(0.981906 0.00733592 0)
(0.00619023 1.63983 0)
(-0.000289761 0.0169326 6.45623e-18)
(0.986411 0.00875094 0)
(1.0028 0.00984935 0)
(1.01512 -0.000190895 0)
(0.810595 -0.00314561 0)
(0.0181353 2.92809 0)
(-0.00725208 2.94073 -9.39595e-17)
(-0.0107991 1.72788 0)
(0.00155824 1.76545 0)
(-0.0132841 1.72488 0)
(-0.00784755 1.78825 0)
(-0.00895278 1.67971 5.70743e-17)
(-0.00594656 1.63713 0)
(0.00765537 3.01136 6.93858e-22)
(0.00694928 3.02337 -5.82464e-17)
(0.0210128 3.01108 0)
(0.933812 -0.00437479 0)
(0.58926 1.1227 -1.19107e-17)
(0.958695 1.43006 -1.14264e-17)
(1.07636 1.26177 2.57111e-17)
(0.812659 1.55496 9.54442e-18)
(0.776249 1.5395 1.55123e-17)
(0.499731 0.310936 4.08796e-20)
(0.530591 0.231439 0)
(1.27405 0.680418 0)
(0.424432 0.323301 -1.89687e-20)
(0.410804 0.23132 9.88115e-19)
(0.955257 -0.00223378 0)
(0.996125 0.00268215 0)
(0.996438 0.00327212 0)
(0.990694 0.00249752 0)
(0.980946 0.0091977 0)
(0.99725 0.0130969 0)
(0.0282857 1.58429 4.93258e-18)
(0.0233306 1.68364 0)
(0.0443579 1.60881 0)
(0.0148865 1.69561 0)
(0.0165412 1.60791 0)
(-0.00731759 1.65808 0)
(-0.00624462 1.66876 0)
(-0.00300127 1.58872 0)
(-0.0140922 1.67791 0)
(-0.00791443 1.59895 0)
(0.966021 0.00436154 0)
(0.936223 0.00930266 0)
(0.909208 0.000448589 0)
(0.927595 0.0108418 0)
(0.881438 0.000427286 0)
(-0.0189822 3.04534 2.39026e-17)
(-0.00313163 2.97463 0)
(-0.0293979 3.02382 0)
(0.0263651 3.04147 -7.18154e-23)
(-0.00385071 3.02658 4.0547e-17)
(0.0176058 3.01251 0)
(0.00409667 2.95737 0)
(0.00290493 2.96649 -1.7149e-23)
(0.00440165 2.89806 0)
(0.00832762 2.97356 0)
(0.00816793 2.8792 0)
(0.271722 3.18645 0)
(-0.0661126 3.26551 0)
(0.0919326 2.96492 6.60722e-18)
(0.000532458 2.80687 0)
(0.00415558 1.7583 0)
(-0.00348033 1.69075 3.32856e-17)
(-0.00116789 1.6363 3.45982e-17)
(0.687735 0.169212 -4.08967e-18)
(0.675687 0.0963528 2.88575e-18)
(0.645902 0.207206 2.24126e-17)
(0.62379 0.16647 -7.95449e-18)
(0.216907 1.31611 0)
(0.242901 1.71426 -4.52249e-17)
(0.380408 1.64764 -3.69114e-17)
(0.994161 0.00599626 0)
(0.970074 0.00403653 0)
(0.995313 -0.0061758 0)
(1.00107 0.000634299 0)
(1.00463 0.0147961 1.48897e-16)
(1.00643 0.0146077 1.15887e-16)
(-0.0019804 1.69494 0)
(0.00135123 1.64037 0)
(-0.00423685 1.73029 0)
(-0.0109097 1.70511 0)
(-6.72891e-05 1.65085 0)
(-0.0154068 0.250575 -2.92906e-18)
(0.181253 0.170717 0)
(1.01396 -0.0153812 0)
(0.983272 -0.0028673 0)
(0.903429 0.0287814 0)
(0.864629 0.0445273 0)
(0.850112 0.00921428 0)
(1.09176 0.00276609 0)
(0.821609 0.0339726 0)
(0.757152 -0.0110561 1.82965e-17)
(-0.0195167 2.87701 2.08936e-17)
(0.0055291 2.98348 0)
(-0.0511008 3.0252 0)
(0.00491178 2.86996 0)
(-0.00628311 2.98394 -3.55814e-17)
(-0.00177262 2.93037 0)
(-0.0119485 2.98729 -9.3579e-18)
(-0.0143193 2.95068 2.2504e-17)
(0.00439524 1.7785 0)
(0.000628432 1.77801 0)
(0.00170598 1.69401 4.50888e-23)
(-0.00390231 1.68778 0)
(0.000189025 1.63443 0)
(0.966192 0.0011192 0)
(0.934557 0.00114749 0)
(0.922538 0.00092985 0)
(0.967069 -0.00162747 0)
(0.937577 -0.00113047 0)
(0.65126 1.23915 -4.11286e-18)
(0.735937 1.27891 0)
(0.511844 1.07405 -1.40457e-18)
(0.478262 1.00031 0)
(1.07381 1.27034 1.71764e-17)
(1.18252 1.0651 4.42468e-18)
(0.44027 1.69148 0)
(0.644727 1.64578 0)
(0.577767 1.61368 0)
(0.300391 0.515168 -5.18348e-18)
(0.550267 0.295234 0)
(0.571844 0.220779 -4.54921e-18)
(1.15633 1.08947 0)
(1.22043 0.890676 0)
(1.24128 0.861205 -4.62348e-18)
(1.27374 0.707051 0)
(1.29834 0.50644 -2.8922e-17)
(0.9719 0.00315304 0)
(0.974661 -0.004575 0)
(0.945842 -0.00157149 0)
(0.998183 -0.0072069 0)
(0.987549 -0.0069428 0)
(0.970552 -0.00107254 0)
(0.98805 -0.00364776 0)
(0.986443 -0.000344894 0)
(0.997351 -0.00174691 0)
(0.0289036 1.62422 2.94368e-17)
(0.0368316 1.54993 0)
(0.028114 1.65977 -4.13911e-18)
(0.0172858 1.6088 4.48311e-18)
(0.0803242 1.69876 -4.32531e-17)
(0.0330448 1.68858 0)
(0.0630336 1.62677 0)
(0.00588062 1.70242 0)
(0.0155471 1.5886 0)
(-0.00636623 1.70192 3.06717e-20)
(0.00635084 1.65686 0)
(-0.00729932 1.70442 -3.23327e-17)
(0.00142123 1.65801 -2.65747e-18)
(0.011225 1.68762 0)
(-0.000285465 1.67514 0)
(0.00847113 1.58452 0)
(-0.0120298 1.68896 0)
(-0.00682669 1.61769 0)
(1.00459 0.0190662 0)
(0.983052 0.00696967 0)
(0.988925 0.00911113 0)
(0.955899 0.00257671 0)
(0.915372 -0.00485721 0)
(0.9526 0.00306322 0)
(0.946047 0.00985042 0)
(0.910805 0.0020072 0)
(0.0111364 3.04025 5.95706e-20)
(0.0167512 3.03425 0)
(0.00838562 2.99335 0)
(0.00476045 2.93829 0)
(0.980463 3.69951 0)
(1.34839 2.75428 -1.05352e-18)
(0.00935958 2.8832 0)
(-0.0115749 2.80316 0)
(-0.00416492 1.77254 0)
(-0.00211143 1.76117 0)
(-0.00251322 1.76363 0)
(-0.00254228 1.77664 -7.63488e-17)
(-0.00249831 1.76106 0)
(0.00401267 1.76859 0)
(0.00346119 1.64084 -6.78212e-17)
(0.003003 1.69968 -3.48406e-17)
(-0.00435152 1.69519 3.30686e-17)
(-0.00183702 1.63882 0)
(0.714617 0.137845 -1.96861e-17)
(0.711634 0.0745466 -1.04974e-17)
(0.204526 1.34908 0)
(0.272128 1.19613 9.53899e-19)
(0.137957 1.4415 -2.61652e-17)
(0.137473 1.41761 -3.24212e-17)
(0.947549 0.00788559 0)
(0.980561 0.00819549 0)
(0.985329 0.0091281 0)
(0.957552 0.00788389 0)
(-0.00980587 1.69537 0)
(0.00111964 1.69415 0)
(-0.00210296 1.63025 0)
(0.346353 0.325175 -2.71318e-18)
(0.216856 0.289997 2.58476e-18)
(0.311994 0.208546 0)
(1.18386 0.102868 -7.27979e-19)
(1.18884 0.055757 0)
(1.09565 0.0483076 0)
(1.03399 0.000374633 0)
(0.740105 0.10089 0)
(0.773855 0.0509978 3.8867e-17)
(0.728357 0.0419683 -2.37514e-17)
(-0.0152329 2.95708 -3.5484e-17)
(-0.00773905 2.90607 -5.76069e-17)
(0.00884584 3.02938 1.15989e-19)
(0.0358111 3.01712 -3.78966e-17)
(-0.0173455 3.00002 -2.34897e-19)
(-0.0154166 2.97973 9.05421e-22)
(-0.013627 3.03038 -2.33734e-18)
(9.20559e-05 2.98999 -9.02003e-18)
(0.0536376 3.02217 -2.82886e-17)
(0.984141 0.00534662 0)
(0.975256 0.0114264 0)
(0.946191 0.00522724 0)
(0.973446 0.00954618 0)
(0.961599 0.0090604 0)
(0.927311 0.0086507 0)
(0.954352 -0.00323376 0)
(0.95529 0.00204251 0)
(0.91393 -0.00548426 0)
(0.794543 1.44191 4.32474e-18)
(0.873585 1.50395 0)
(0.39024 0.711933 1.21282e-18)
(0.350609 0.829681 -4.2362e-18)
(0.407213 0.945173 -1.19479e-17)
(0.42782 0.876813 -1.945e-17)
(0.419588 0.893454 -2.37986e-18)
(0.296687 0.60566 1.91198e-17)
(0.62582 0.233154 -1.33615e-17)
(0.593094 0.263144 -3.94931e-18)
(0.602559 0.190304 3.59754e-18)
(1.29618 0.526065 -2.42034e-17)
(1.29743 0.329425 5.09707e-18)
(0.00625655 1.67821 -3.48332e-17)
(0.00198413 1.6206 0)
(1.0487 0.0289874 0)
(1.02276 0.0182372 0)
(1.00263 -0.00084066 0)
(0.0146085 3.04709 0)
(0.0126155 2.97125 -3.83886e-17)
(0.0103239 2.9832 0)
(0.00424679 2.91837 -2.02155e-17)
(0.0113934 3.05907 1.46468e-17)
(0.0112595 3.05333 0)
(0.847868 1.73761 -3.87484e-18)
(1.19419 2.32179 -8.40534e-18)
(0.930328 1.82633 -1.7292e-17)
(-0.028134 2.92044 3.50276e-17)
(-0.0249421 2.88289 0)
(-0.0210787 2.83964 0)
(-0.0154243 1.69781 6.73439e-17)
(0.00378122 1.69027 1.8944e-18)
(-0.0119462 1.63898 6.7247e-17)
(0.259427 1.27526 -1.71268e-17)
(0.305803 1.0578 -1.15144e-17)
(0.0373274 1.58532 -3.3149e-17)
(0.0747527 1.52025 -2.72539e-17)
(0.062959 1.49261 -6.07415e-17)
(-0.0245265 3.07125 1.30701e-16)
(-0.0115418 3.06823 9.87787e-17)
(0.00538734 2.98597 2.2947e-17)
(-0.00969898 2.9808 -2.22631e-17)
(0.00175839 2.9339 3.57811e-17)
(0.0168901 3.06499 -8.46863e-17)
(-0.00633694 3.05722 -1.35518e-16)
(0.377501 0.833311 0)
(0.306957 0.791606 -2.20531e-18)
(0.336058 0.531694 -1.8203e-17)
(0.392219 0.990795 2.97336e-17)
(0.350704 0.741954 2.72567e-17)
(1.27195 0.202314 -3.07759e-18)
(1.30085 0.362845 0)
(1.26802 0.179101 2.58345e-18)
(-0.00454816 1.69462 3.01937e-20)
(0.00261671 1.68523 0)
(0.000559569 1.63658 0)
(0.29877 1.18013 1.4356e-18)
(0.349246 1.10523 -3.16561e-17)
(0.321673 0.906085 -3.2045e-17)
(1.00137 -0.021722 0)
(1.00333 -0.0132225 1.11111e-17)
(0.00200491 1.77733 0)
(-0.00931121 1.79389 0)
(1.0038 -0.000968756 4.69376e-19)
(1.00224 0.00187022 1.30298e-17)
(0.00138431 1.77508 -7.5914e-17)
(0.00280962 1.7754 0)
(-0.0217379 2.97317 2.23333e-17)
(0.299679 3.00169 0)
(1.09879 0.698013 -2.54534e-17)
(1.00451 0.00640093 8.48857e-17)
(1.00846 -0.00825782 0)
(1.00656 -0.000841243 3.56457e-19)
(-0.0578272 1.77343 0)
(-0.00120706 1.75897 0)
(-0.002245 1.80403 0)
(0.0299705 1.73482 -7.65823e-17)
(-0.000281882 1.75364 7.3689e-17)
(0.989118 0.010774 8.31998e-17)
(1.03611 0.0231471 0)
(1.06073 0.0318587 0)
(7.61752e-05 1.77085 0)
(0.00556192 1.76564 0)
(-0.0124636 1.77661 0)
(0.109881 1.61888 -8.54537e-17)
(1.00615 -0.012141 0)
(1.00906 -0.0157458 0)
(0.997157 0.00487731 -2.28046e-17)
(0.99716 -0.00548705 2.87645e-17)
(0.998176 -0.00433414 0)
(-0.00475434 1.76632 0)
(0.00175871 1.7716 0)
(-0.000320438 1.76488 0)
(-0.00541231 1.78075 0)
(-0.0193815 1.77698 0)
(-0.00996745 1.77372 0)
(1.01169 0.00890584 0)
(1.01179 0.00382427 8.50578e-17)
(0.821568 1.39822 3.93786e-19)
(1.0016 -0.00677094 2.31619e-17)
(0.999639 0.00398138 -2.8489e-17)
(1.00501 0.00360219 0)
(0.999783 0.0103733 3.3733e-17)
(1.00693 0.0129975 5.21331e-17)
(1.00624 0.0102091 0)
(0.00683484 1.76942 0)
(0.00636195 1.7667 -3.89499e-17)
(0.00262413 1.76648 -3.39155e-17)
(1.15573 0.263112 -6.49316e-17)
(1.09549 0.0818965 0)
(-0.2312 2.97288 3.26148e-17)
(-0.24996 3.21779 8.94267e-19)
(-0.0309885 3.01971 4.23485e-17)
(-0.0377822 2.97398 3.80236e-17)
(0.0488092 2.95458 0)
(-0.0278726 3.02621 1.21978e-17)
(-0.0935811 3.12872 1.94542e-17)
(-0.0823426 3.01389 2.03652e-17)
(-0.0591682 3.09676 0)
(0.64708 0.345812 0)
(0.515035 0.38565 0)
(1.08132 0.828036 2.6793e-17)
(1.06837 0.906828 4.16406e-17)
(1.13171 0.631854 0)
(1.14695 0.561175 0)
(1.00603 0.00385226 1.86812e-17)
(1.00165 0.0039499 -2.03409e-17)
(1.00887 -0.00948056 0)
(1.00519 -0.0149903 0)
(1.00316 0.00679897 0)
(1.00698 0.0044687 0)
(1.0045 0.00573599 0)
(1.00281 0.00549117 0)
(1.00392 0.00398379 0)
(0.993923 0.00647405 0)
(-0.0390134 1.78324 0)
(-0.0454038 1.81049 0)
(-0.0329791 1.75929 0)
(-0.0382827 1.74659 0)
(0.000960009 1.75887 0)
(0.0199839 1.75189 3.62282e-17)
(0.00839547 1.75061 0)
(-0.0100346 1.73363 3.15198e-17)
(0.0128534 1.71122 -6.83834e-17)
(-0.0116206 1.80524 0)
(-0.00276857 1.79882 0)
(0.0101383 1.81251 0)
(0.00275628 1.82548 0)
(0.0334635 1.76644 -7.39154e-17)
(-0.0138935 1.7385 -4.94773e-17)
(0.0285301 1.74057 3.61605e-17)
(0.00573117 1.7511 0)
(0.0235639 1.75969 3.33708e-17)
(0.00741781 1.76542 -7.03829e-17)
(0.0036449 1.78522 -1.1583e-16)
(-0.00217855 1.72996 -4.58356e-17)
(0.0259563 1.73691 4.04575e-17)
(0.992213 0.0170484 -1.29183e-17)
(0.994797 0.00101226 1.81084e-17)
(0.988129 0.0253979 1.74874e-17)
(0.9745 0.0204292 -1.71656e-17)
(1.02998 0.0113008 0)
(1.03348 0.0107631 0)
(1.04511 0.0323411 0)
(1.03561 0.0281715 0)
(1.04327 0.0123945 0)
(1.08491 0.0678526 0)
(1.06336 0.059695 0)
(1.08268 0.04124 0)
(-0.00766825 1.77359 9.97225e-18)
(0.0032515 1.75508 0)
(-0.0148801 1.75904 0)
(-0.000955568 1.76489 -1.52388e-17)
(0.00192301 1.76802 3.70189e-20)
(-0.00923507 1.78794 4.37211e-17)
(-0.0206946 1.77613 4.49563e-17)
(-0.00232321 1.77099 0)
(-0.0301981 1.77634 0)
(-0.0111957 1.77063 0)
(-0.00226091 1.77955 0)
(-0.0063427 1.78989 0)
(0.271667 1.58801 -5.19116e-17)
(0.349543 1.58451 4.30652e-17)
(0.341321 1.76654 4.49773e-19)
(0.178974 1.73328 2.81517e-17)
(0.0692859 2.05382 3.59222e-17)
(1.00849 -0.0162429 0)
(1.01151 -0.00909389 0)
(1.0136 -0.0112182 0)
(1.0058 0.00118401 0)
(0.997736 -0.00302213 0)
(0.989962 -0.00113891 0)
(1.00344 -0.00278258 0)
(1.00303 -0.0023933 0)
(1.00938 0.00232407 -1.32377e-17)
(1.00864 0.00331422 1.96204e-17)
(1.01134 0.00572848 1.79003e-17)
(1.00614 0.00581914 -1.90444e-17)
(0.761339 1.48402 0)
(0.702999 1.504 -7.39063e-17)
(0.891968 1.3511 7.34155e-17)
(0.949243 1.2726 6.389e-17)
(1.0171 2.09596 -3.05704e-17)
(0.813225 0.119278 -2.24051e-17)
(1.10629 0.132248 0)
(1.16001 0.193625 -9.01344e-17)
(1.13796 0.137678 3.18821e-19)
(0.951413 0.144671 0)
(-0.0886842 2.70276 4.92874e-17)
(-0.374989 2.61348 7.49138e-17)
(-0.805507 2.68741 4.01147e-18)
(-0.644828 0.230872 -1.03771e-17)
(0.196086 2.99708 -1.60715e-17)
(0.0523083 2.98495 0)
(0.143914 2.971 -6.96307e-18)
(0.0163749 2.70865 8.4929e-17)
(0.192675 2.73939 0)
(-0.0224437 3.05637 -5.92303e-19)
(-0.0356022 3.06844 -2.08332e-17)
(-0.00680382 3.09807 -3.3663e-17)
(-0.0378222 3.11125 0)
(-0.0511847 3.05128 0)
(1.13903 2.16273 0)
(0.492244 1.05608 5.0959e-17)
(1.02289 1.09364 -3.6353e-17)
(0.997695 1.21756 0)
(0.846122 1.07563 -1.30803e-17)
(1.04219 1.03001 -6.18142e-17)
(0.174538 0.410414 1.4354e-18)
(0.657329 0.342393 1.20731e-17)
(0.684735 0.298539 1.11675e-17)
(0.455519 0.458241 -3.52349e-20)
(0.419762 0.396985 6.17334e-18)
(0.608992 0.391314 0)
(0.581616 0.481517 8.56253e-18)
(0.606022 0.440058 0)
(0.539933 0.413513 0)
(0.588946 0.35919 0)
(0.677075 0.69662 3.15328e-17)
(1.16348 0.335823 4.28287e-17)
(1.17801 0.461312 0)
(1.1725 0.386699 0)
(0.755903 0.229622 1.74375e-17)
(0.728627 0.632161 3.77428e-17)
(0.608808 0.571785 8.28412e-18)
(0.860069 0.433942 -7.74139e-17)
(1.00388 0.00527516 2.94573e-17)
(1.00152 0.0159166 5.09735e-17)
(0.999779 0.0133654 0)
(1.00754 0.0122179 0)
(1.00246 -0.0126604 -2.887e-17)
(0.996838 -0.00442103 -4.8675e-17)
(1.01339 0.0018437 0)
(1.00485 0.00266656 0)
(1.01102 0.000850781 0)
(1.00633 0.00562093 0)
(1.01373 -0.00016823 0)
(1.00929 -0.00551493 0)
(-0.0201204 1.82046 0)
(-0.00736357 1.81971 0)
(-0.0971554 1.73976 -5.00359e-17)
(0.0527022 1.67626 -3.83223e-17)
(-0.0055489 1.7318 8.08231e-17)
(-0.00767765 1.68952 3.02979e-17)
(-0.0785196 1.72007 0)
(-0.0755442 1.8495 7.47481e-17)
(-0.100128 1.8321 0)
(0.00161531 2.05596 3.91071e-17)
(0.0713166 1.94588 -4.74396e-17)
(-0.0873643 1.84758 6.86471e-17)
(-0.00927742 1.64505 -3.95414e-17)
(-0.0826091 1.70283 -4.26653e-17)
(-0.0528509 1.63641 -6.70084e-18)
(-0.0783678 1.89388 0)
(-0.0325829 1.89773 -5.48443e-17)
(-0.00305368 1.72587 6.42739e-18)
(0.00216785 1.7077 0)
(-0.0382402 1.72216 -7.4869e-17)
(-0.0319299 1.7103 0)
(-0.00248301 1.72184 3.54559e-17)
(-0.00371738 1.7133 0)
(0.0391043 1.7816 5.56583e-17)
(0.056174 1.78435 0)
(0.0320979 1.80616 0)
(0.0233316 1.80959 5.16292e-17)
(0.00606605 1.71752 -1.17795e-16)
(0.026178 1.71632 -7.16577e-17)
(0.0143241 1.72371 -2.04085e-20)
(0.0115305 1.75652 7.63084e-17)
(-0.00507814 1.78298 -3.98868e-17)
(-0.00818981 1.79463 0)
(-0.0152043 1.80124 0)
(0.0142695 1.77599 2.86786e-17)
(0.0144432 1.81088 2.41784e-17)
(0.0307051 1.78912 6.26341e-17)
(-0.0221139 1.78248 0)
(0.00223553 1.76643 1.03897e-16)
(-0.00837935 1.76594 1.63967e-17)
(0.00413873 1.77228 -1.92131e-17)
(0.0174357 1.77648 7.86364e-17)
(0.0182541 1.73335 -3.61093e-18)
(0.00661072 1.74248 -4.61027e-17)
(1.00225 0.0121102 5.0177e-17)
(0.995881 0.00443858 2.95176e-17)
(0.997159 0.00792628 0)
(0.988703 0.0500013 -7.22599e-17)
(0.965211 0.0497418 1.76287e-17)
(0.948241 0.0356642 -9.98436e-18)
(0.983911 0.0964927 1.94641e-18)
(1.01749 0.012643 0)
(1.02398 0.0136317 -4.95064e-17)
(1.02403 0.00868642 -2.95358e-17)
(1.02446 0.0392788 3.45093e-18)
(1.02537 0.034298 -1.10392e-17)
(1.0102 0.0453303 0)
(1.00222 0.042987 5.5868e-19)
(0.99827 0.0257521 0)
(0.99928 0.0248755 0)
(1.01229 0.0229595 0)
(1.00273 0.00886373 0)
(1.00597 0.0271194 3.45934e-18)
(1.00818 0.0202179 3.15634e-17)
(1.02182 0.0345142 -5.26453e-18)
(1.01212 0.0331836 1.10363e-17)
(1.00928 0.0610958 2.61022e-17)
(1.03428 0.0573528 0)
(1.02655 0.0907661 0)
(0.00578628 1.77745 -5.28729e-17)
(0.0165407 1.75438 -7.98902e-19)
(-0.00458741 1.76839 0)
(0.0109164 1.77731 -5.4613e-17)
(0.00229727 1.78114 8.91825e-18)
(0.0074044 1.77111 -3.88945e-18)
(-0.00105799 1.76542 -7.82504e-17)
(0.0099659 1.76347 -1.25713e-19)
(0.0128719 1.75581 -5.26574e-18)
(-0.00558945 1.76426 3.46062e-17)
(-0.00323821 1.76843 3.32005e-17)
(0.00491111 1.76421 -2.31682e-17)
(-0.00386524 1.77086 -3.93935e-17)
(0.176815 1.46349 2.52666e-17)
(0.0811561 1.65562 -1.0007e-17)
(0.661817 1.54289 -8.36875e-17)
(0.488627 1.55683 3.8572e-17)
(0.55379 1.55911 0)
(0.369686 1.79328 -4.0684e-18)
(0.47036 1.72926 -9.3218e-19)
(0.228499 1.72711 -7.38392e-18)
(0.189182 1.90405 -3.17635e-17)
(0.228239 1.9385 -3.02255e-17)
(0.325085 1.75954 0)
(0.268973 1.7184 -1.19727e-17)
(0.0634481 1.75281 -9.40335e-19)
(0.139899 1.74421 6.21636e-17)
(0.0866127 1.71611 8.87033e-18)
(0.754248 1.99011 -3.78293e-17)
(0.639803 1.91108 0)
(1.00907 0.00290656 -2.9735e-19)
(1.00498 -0.0111201 3.46398e-19)
(1.00072 -0.0233262 -6.51462e-18)
(1.01668 -0.0121187 -1.70962e-17)
(1.0162 -0.00204696 0)
(0.750865 1.36223 0)
(0.700294 1.33122 0)
(0.778466 1.2344 0)
(0.715229 1.299 0)
(0.993742 2.12289 2.91026e-17)
(0.940088 1.93813 0)
(0.816814 1.92209 -1.12163e-18)
(0.676866 2.14333 0)
(0.785642 2.14844 7.56588e-17)
(0.851642 2.09193 6.6452e-17)
(0.801029 0.158707 0)
(0.787262 0.15898 -1.4353e-18)
(0.870701 0.135014 6.7241e-18)
(0.832986 0.111223 -2.79651e-17)
(0.852163 0.0825274 1.99642e-18)
(1.01006 0.253127 -2.3684e-17)
(0.888581 0.293054 2.87273e-17)
(0.863583 0.282389 2.36924e-17)
(0.941797 0.216713 1.06968e-17)
(0.879157 0.169242 4.32933e-17)
(0.863668 0.193397 -1.13618e-17)
(0.879634 0.252495 2.46356e-18)
(0.858163 0.221922 0)
(0.951661 0.196672 2.04445e-17)
(0.988165 0.190884 0)
(0.980319 0.250759 0)
(1.03727 0.123525 -1.36766e-17)
(1.00083 0.189844 3.16162e-17)
(0.988947 0.221294 2.20335e-17)
(1.03329 0.208744 0)
(0.992071 0.0277853 -3.901e-17)
(0.998648 0.0328682 2.79747e-17)
(1.0021 0.0354898 -2.40923e-17)
(1.00209 0.0515843 4.50014e-17)
(0.981765 0.0525739 -5.29901e-17)
(0.935828 0.149721 0)
(0.961982 0.0794336 0)
(0.944084 0.0521987 4.59688e-17)
(0.91777 0.0520292 8.22118e-18)
(0.991698 0.0984531 -4.13121e-17)
(1.00895 0.126304 -2.35343e-17)
(1.00932 0.156772 -1.18542e-17)
(0.982947 0.154389 0)
(1.01187 0.0924574 0)
(1.00702 0.081984 3.71319e-17)
(0.991411 0.0828529 -2.45442e-17)
(0.632059 1.34768 2.62278e-17)
(0.613657 1.49731 -2.00054e-17)
(0.925688 2.21606 2.07146e-17)
(0.987204 2.48565 -2.72061e-18)
(1.04863 2.19533 -2.41607e-17)
(1.10748 2.24264 4.10297e-18)
(1.1098 1.9805 8.26701e-18)
(1.01187 2.38033 -1.44354e-17)
(1.02108 2.35571 -1.65291e-17)
(1.05414 2.59567 -2.00482e-18)
(1.18025 2.46393 3.12245e-18)
(1.24835 2.41583 0)
(0.464518 1.11662 -3.3289e-18)
(-0.178609 1.4151 -1.54114e-17)
(0.0297614 0.593767 -7.76376e-18)
(-0.101147 0.814865 -1.85516e-17)
(0.342543 0.458165 -9.79289e-18)
(0.358489 0.511564 4.38374e-18)
(0.30681 0.594778 -7.61019e-18)
(0.220137 0.464219 3.00164e-18)
(0.312772 0.383027 -8.37838e-18)
(0.73414 0.274292 2.50912e-17)
(0.690843 0.302692 0)
(0.711948 0.26578 6.18683e-18)
(0.592434 0.571607 -1.24283e-17)
(0.50739 0.53789 1.55384e-17)
(0.424881 0.578984 -5.91657e-18)
(0.488643 0.486374 0)
(0.580274 0.929692 -2.55992e-17)
(0.747775 0.892971 4.69153e-17)
(0.685953 1.01535 5.27735e-17)
(0.771392 0.930464 1.39153e-17)
(0.899543 0.917534 -4.15396e-18)
(0.900904 0.984417 -5.90975e-18)
(0.778426 0.753973 6.58313e-18)
(0.837528 0.812792 9.6115e-18)
(0.92622 0.85409 0)
(0.927963 0.736364 2.67145e-17)
(0.940712 0.318631 5.0608e-17)
(1.05712 0.312727 -2.12691e-17)
(0.992692 0.302047 -5.14547e-17)
(0.898818 0.394939 4.91438e-17)
(0.987995 0.454674 0)
(1.03085 0.4198 0)
(0.791517 0.402052 5.06523e-17)
(0.790814 0.289354 0)
(0.782102 0.283691 -1.55784e-17)
(0.868358 0.309481 6.89726e-17)
(0.821 0.504642 -9.06279e-17)
(0.754044 0.553416 -1.42093e-18)
(0.787234 0.512904 9.02132e-18)
(0.706676 0.470321 -2.41895e-18)
(0.690715 0.490619 -6.57761e-18)
(0.647688 0.474949 -2.97866e-19)
(1.01729 0.00743308 -4.93372e-17)
(1.01604 -0.00482414 0)
(1.0233 0.000863928 9.81254e-18)
(1.00805 0.00945894 -1.21678e-17)
(1.023 0.00655784 -2.52109e-17)
(1.01386 0.0139274 5.05128e-18)
(1.00886 0.00965111 0)
(1.00969 0.00221073 1.36172e-17)
(1.01649 0.00833191 -1.94734e-18)
(1.00925 0.00835881 -2.77684e-18)
(1.01123 0.00468144 8.43197e-18)
(-0.000847197 1.82435 0)
(0.0144327 1.83069 0)
(0.011632 1.82012 0)
(0.00298307 1.82445 0)
(-0.0569817 1.80955 -7.41338e-18)
(-0.0664403 1.79331 -1.08515e-16)
(-0.097901 1.82584 -3.25807e-17)
(-0.113104 1.81403 -8.73962e-17)
(-0.0139947 1.80562 5.8656e-17)
(-0.00823383 1.82081 6.13357e-17)
(-0.0411538 1.82254 1.2141e-16)
(-0.0218635 1.83017 5.88314e-17)
(-0.00659957 1.82708 1.03514e-17)
(-0.000303121 1.83978 1.61503e-18)
(-0.0404401 1.73698 -6.89969e-17)
(-0.017978 1.76985 0)
(-0.0644069 1.80725 -4.16633e-17)
(-0.0960048 1.82741 -5.58879e-18)
(-0.0182554 1.88858 -1.78092e-17)
(0.0325621 1.82713 0)
(0.0244145 1.85094 5.64577e-17)
(0.030767 1.90611 4.8496e-17)
(-0.0264875 1.85273 -6.20706e-17)
(-0.038507 1.83513 -8.3851e-17)
(-0.0230618 1.78604 0)
(0.0172023 1.74379 3.38743e-17)
(0.016203 1.71062 -2.07746e-17)
(0.0209873 1.73547 0)
(0.0250763 1.72222 2.12664e-17)
(-0.00281717 1.73072 1.70802e-17)
(0.00479165 1.79447 9.51929e-18)
(-0.00682923 1.78325 -9.98399e-17)
(-0.0167281 1.78234 -6.73016e-17)
(-0.0144057 1.78211 4.65597e-17)
(0.0108564 1.78247 0)
(0.0121794 1.78796 0)
(0.000619599 1.7839 -3.98973e-17)
(-0.00198726 1.76825 -3.58709e-18)
(-0.00039617 1.78019 0)
(-0.0103941 1.79508 3.32838e-17)
(-0.0031363 1.78983 1.47274e-18)
(1.01644 0.0330217 0)
(1.02294 0.0274601 4.17421e-19)
(1.00504 0.0197126 4.60433e-17)
(1.01504 0.0144764 0)
(1.01323 0.00838637 0)
(1.01473 0.00232223 2.16308e-17)
(1.01164 0.0106238 -5.7033e-17)
(1.00561 0.00676685 -1.97004e-17)
(1.00119 0.00589414 0)
(1.00579 0.00943875 0)
(1.00357 0.013992 2.85267e-17)
(1.00035 0.0159608 0)
(1.00461 0.0138863 0)
(-0.00413439 1.77379 0)
(0.00277409 1.77277 -4.18159e-17)
(0.00458507 1.76244 4.30548e-17)
(0.000832369 1.76418 0)
(0.0109023 1.77719 -3.96991e-17)
(0.000207476 1.7684 -1.90599e-17)
(-0.00521608 1.76352 0)
(0.356431 2.03507 0)
(0.0313219 1.74225 2.6389e-17)
(0.0992587 1.97557 0)
(0.268566 1.45205 7.98761e-17)
(0.40277 1.34389 0)
(0.321717 1.44334 3.58827e-17)
(0.8667 2.20609 -2.45902e-19)
(0.773376 2.01698 -2.46214e-17)
(0.707784 1.83913 -2.36417e-17)
(0.671809 1.9337 -8.62839e-18)
(0.719649 2.1192 0)
(0.772494 2.08856 0)
(0.711011 1.97309 0)
(0.714149 1.92418 -1.85384e-18)
(0.423735 2.21818 -3.78406e-17)
(0.620602 2.15056 4.19008e-18)
(0.623053 2.1765 2.34736e-18)
(0.468678 1.8402 0)
(0.580495 1.90096 0)
(0.556158 1.82352 1.20604e-18)
(0.539342 2.12044 0)
(0.634461 1.26553 0)
(0.556764 1.1575 -6.23272e-17)
(0.55085 1.14753 -5.9307e-18)
(0.59797 1.26115 0)
(0.558781 1.23703 -7.50512e-17)
(0.729664 1.0449 -9.51973e-18)
(0.785357 1.18099 0)
(0.79297 1.09439 -3.09703e-17)
(0.675448 1.21769 0)
(0.613808 1.14817 0)
(0.941869 2.1952 1.49395e-17)
(0.923793 2.26173 -9.44359e-18)
(0.804161 1.96415 -4.12145e-17)
(0.820191 1.96364 -2.68299e-18)
(0.927965 2.18236 0)
(0.897771 2.1761 -5.32853e-18)
(0.891882 2.02892 -4.38471e-18)
(0.824391 1.82855 -7.73219e-18)
(0.711519 1.54581 0)
(0.66471 1.32195 3.19338e-17)
(0.678291 1.33984 0)
(0.815219 0.209696 0)
(0.782862 0.1897 0)
(0.764143 0.201106 0)
(0.804724 0.241793 -6.19944e-18)
(0.756266 0.224464 4.25899e-18)
(0.924086 0.0744722 1.43918e-17)
(0.916183 0.115647 0)
(0.882977 0.0934128 -1.18104e-18)
(0.859203 0.0728731 -6.45022e-18)
(0.871161 0.0543037 -4.14099e-18)
(1.03844 2.75722 -1.64719e-17)
(0.980685 2.66518 0)
(0.938364 2.83699 -5.5576e-17)
(0.584578 3.04036 -2.92162e-17)
(0.729266 2.56561 1.33963e-17)
(0.46281 1.16982 -2.69778e-17)
(0.505354 1.10735 0)
(0.23837 0.827354 7.15868e-18)
(0.260285 0.932146 3.99206e-17)
(0.185332 0.794811 1.04039e-17)
(0.256734 0.635225 4.8368e-18)
(0.479125 0.626567 -9.96098e-18)
(0.506552 0.682809 0)
(0.458837 0.77659 0)
(0.342685 0.730423 0)
(0.900144 0.681934 1.00728e-17)
(0.828883 0.604657 9.02449e-18)
(0.846345 0.640729 -4.22661e-18)
(0.861435 0.529102 2.18102e-17)
(0.973254 0.55612 0)
(0.962724 0.617237 -1.04114e-17)
(0.756508 0.421553 1.22e-17)
(0.763209 0.36998 2.79072e-17)
(0.704092 0.41399 -5.5116e-18)
(0.712176 0.379301 3.66339e-18)
(0.768444 0.329526 -7.93096e-18)
(0.751546 0.312729 -1.80893e-17)
(1.02683 0.00501216 -3.73397e-17)
(1.02465 0.00333576 -3.79856e-17)
(1.02475 0.0114486 3.52108e-17)
(1.02416 0.00933333 5.32816e-17)
(1.01403 0.0235481 0)
(0.999033 0.0157334 -1.11626e-17)
(-0.0225699 1.77934 2.63905e-17)
(-0.0237879 1.79835 0)
(-0.0763068 1.80321 -4.78736e-17)
(-0.0878517 1.81025 -5.66795e-17)
(-0.10417 1.81574 -3.69204e-17)
(-0.0777509 1.82237 0)
(0.0345783 1.78646 0)
(0.0170446 1.7777 -1.93235e-17)
(0.00392383 1.75969 -2.00586e-17)
(-9.6045e-05 1.76868 -4.96265e-17)
(-0.00717638 1.7726 -9.92597e-18)
(0.0279328 1.77434 -4.37698e-18)
(0.697129 1.57877 -1.09866e-16)
(0.610798 1.67105 -1.31611e-16)
(0.412113 1.48143 7.76892e-17)
(0.460361 1.72411 -5.04057e-18)
(0.705613 1.35218 0)
(0.543041 1.36554 7.7593e-17)
(0.612176 1.36556 6.67691e-17)
(0.49846 1.26318 6.64314e-17)
(0.676881 1.3274 0)
(0.70919 1.32394 0)
(0.363792 2.21601 -4.87632e-17)
(0.389189 2.05492 -6.8001e-17)
(0.45756 2.09615 -5.43538e-17)
(0.334135 2.04026 -2.11389e-18)
(0.209998 2.19041 1.66805e-18)
(0.227425 2.03712 -1.84281e-17)
(0.777283 1.95845 -9.78422e-18)
(0.828698 1.95231 0)
(0.740043 1.79554 5.2982e-18)
(0.883427 2.15851 0)
(0.86241 2.17179 0)
(0.557246 2.02855 -1.62398e-18)
(0.92007 2.50334 -2.29612e-18)
(0.792574 2.49524 -2.01887e-18)
(0.175819 1.23413 0)
(0.199789 1.18333 -1.44872e-17)
(0.435397 1.09211 -3.50203e-17)
(0.380678 1.96617 0)
(0.383459 2.35115 6.03027e-18)
(0.200838 2.30818 0)
(0.610467 0.842235 -1.25352e-17)
(0.648544 0.841516 -5.07358e-17)
(0.65783 0.788969 -2.04536e-17)
(0.488448 0.809209 -1.57149e-18)
(0.558479 0.713067 2.4382e-18)
(0.820643 2.30564 -1.09754e-17)
(0.891127 2.28947 -6.90708e-18)
(0.629358 1.97328 7.99598e-18)
(0.616472 1.71037 3.05653e-17)
(0.653222 1.74381 4.06825e-17)
(0.825915 2.07356 -2.93021e-17)
(0.843706 2.07098 -2.03502e-17)
(0.667549 1.72582 6.127e-19)
(0.52134 1.45441 3.2053e-17)
)
;

boundaryField
{
    wall-4
    {
        type            calculated;
        value           uniform (0 0 0);
    }
    velocity-inlet-5
    {
        type            calculated;
        value           uniform (1 0 0);
    }
    velocity-inlet-6
    {
        type            calculated;
        value           uniform (0 3 0);
    }
    pressure-outlet-7
    {
        type            calculated;
        value           nonuniform List<vector> 8((-0.0126564 1.70504 0) (-0.0081966 1.66634 5.73431e-17) (0.00184028 1.76567 0) (-0.00714565 1.78818 0) (0.00426285 1.75797 0) (0.000966756 1.7777 0) (-0.00244607 1.76327 0) (0.00419982 1.76832 0));
    }
    wall-8
    {
        type            calculated;
        value           uniform (0 0 0);
    }
    frontAndBackPlanes
    {
        type            empty;
    }
}

