/*--------------------------------*- C++ -*----------------------------------*\
  =========                 |
  \\      /  F ield         | OpenFOAM: The Open Source CFD Toolbox
   \\    /   O peration     | Website:  https://openfoam.org
    \\  /    A nd           | Version:  6
     \\/     M anipulation  |
\*---------------------------------------------------------------------------*/
FoamFile
{
    version     2.0;
    format      ascii;
    class       volVectorField;
    location    "0";
    object      U;
}
// * * * * * * * * * * * * * * * * * * * * * * * * * * * * * * * * * * * * * //

dimensions      [0 1 -1 0 0 0 0];

internalField   nonuniform List<vector> 
13046
(
(-0.394705 -0.307398 0)
(-1.02187 -0.803855 -5.24815e-22)
(-0.517115 -0.40261 -1.68281e-21)
(-0.56763 -0.450239 0)
(-0.453293 -0.333593 -1.4299e-21)
(-0.924108 -0.752597 0)
(-0.564814 -0.446417 2.51867e-22)
(-0.976112 -0.799966 2.33832e-22)
(-0.408088 -0.285663 -1.68876e-21)
(-0.06977 -0.21822 2.21659e-21)
(-0.962951 -0.7104 0)
(-0.0799216 0.0953858 1.36748e-21)
(-0.387496 -0.327653 -8.72787e-22)
(-1.11492 -0.876604 -2.65246e-22)
(-0.396198 -0.280032 1.13154e-21)
(0.00294623 -0.169458 -2.28357e-21)
(-0.124967 -0.00106964 3.35023e-21)
(-1.04143 -0.720609 -1.22971e-21)
(-0.433459 -0.316994 0)
(-0.764708 -0.630331 -7.02055e-22)
(-0.766602 -0.59841 2.49474e-21)
(-0.0122152 -0.181536 -1.14421e-21)
(-0.113717 0.0195131 -4.47174e-21)
(-1.03616 -0.723363 0)
(-0.490807 -0.382696 9.91861e-22)
(-0.921424 -0.732245 -1.57773e-21)
(-0.539221 -0.422995 0)
(-0.333768 -0.284316 -1.66912e-21)
(-1.1332 -0.879973 9.65165e-23)
(-0.402569 -0.293012 -1.70165e-21)
(-0.346403 -0.268157 0)
(-1.04674 -0.807819 0)
(-0.528035 -0.422822 1.71121e-21)
(-0.519675 -0.401993 -1.15241e-21)
(-0.572896 -0.457215 5.20412e-22)
(-0.856111 -0.683186 2.75881e-21)
(-0.566301 -0.439813 -1.6764e-21)
(-0.567142 -0.4437 8.56783e-22)
(-0.820552 -0.658478 -1.40014e-21)
(-0.229902 -0.151713 1.22768e-21)
(-0.726667 -0.640882 3.4268e-22)
(-1.01118 -0.749756 -1.10897e-21)
(-0.659348 -0.520199 7.0375e-22)
(-0.595897 -0.469367 1.23729e-21)
(-0.700154 -0.562658 0)
(-0.680817 -0.535702 5.33978e-22)
(-0.532788 -0.411768 -1.9158e-21)
(-0.731828 -0.592715 -2.3076e-22)
(-0.414389 -0.330152 0)
(-1.03225 -0.818315 -3.20016e-23)
(-0.468937 -0.360193 -2.36083e-23)
(-0.91096 -0.841406 1.18572e-21)
(-0.116576 -0.03122 0)
(-1.00671 -0.70401 -1.71893e-21)
(-0.976319 -0.903683 -1.64615e-21)
(-0.968473 -0.684331 -3.38827e-21)
(-0.105596 -0.0118108 1.93939e-21)
(-1.20661 -0.802872 1.81549e-22)
(-0.00630944 -0.0912289 0)
(-0.377133 -0.325115 1.7664e-21)
(-0.51756 -0.424879 -1.07275e-21)
(-1.1718 -0.972163 -7.55716e-23)
(-0.209661 -0.0527059 -4.06427e-21)
(-0.147358 0.0123567 2.40248e-21)
(-1.14882 -0.870859 5.8349e-22)
(-0.183983 -0.255533 -2.63701e-21)
(0.00138079 -0.0714218 0)
(-1.21523 -0.795436 0)
(-0.443431 -0.409212 0)
(-0.0153662 -0.0716121 -6.84686e-22)
(-1.21644 -0.805319 0)
(-0.472605 -0.440313 1.2641e-21)
(-1.18823 -0.776121 0)
(0.0136709 -0.0895561 2.78128e-23)
(-0.344567 -0.298279 -3.25833e-23)
(-0.399055 -0.290489 0)
(-0.755844 -0.631398 8.50081e-22)
(-0.814086 -0.638939 -1.63609e-21)
(-0.262991 -0.192718 2.03187e-21)
(0.0100957 -0.119113 -2.85523e-21)
(-1.15883 -0.767758 0)
(-0.499854 -0.390444 5.35667e-22)
(-0.943561 -0.753957 0)
(-0.49649 -0.376371 0)
(-0.132165 0.0303697 -2.18189e-21)
(-1.11575 -0.837938 5.88861e-22)
(-0.147524 -0.242644 1.61714e-21)
(-0.366456 -0.346862 -3.21927e-21)
(-0.114406 0.0759694 0)
(-1.15822 -0.947333 3.83845e-22)
(-0.0650982 0.130644 0)
(-0.558405 -0.421706 0)
(-1.13264 -0.994653 -5.71911e-23)
(-0.2646 -0.27075 0)
(-0.273503 -0.281351 1.12959e-21)
(-1.20592 -0.924648 -6.5293e-22)
(-1.2056 -0.930579 3.21548e-22)
(-0.271071 -0.139129 -9.95903e-22)
(-0.235205 -0.0925973 2.45208e-21)
(-0.110122 0.0807734 -1.15937e-22)
(-0.424685 -0.379477 3.14979e-21)
(-1.16055 -0.968801 0)
(-0.665401 -0.522916 -5.28478e-25)
(-0.500771 -0.381642 1.02048e-21)
(-0.786217 -0.641785 0)
(-0.18046 -0.0660934 0)
(-0.851187 -0.624741 -1.01172e-21)
(-0.980404 -0.872785 0)
(-0.167996 -0.0810712 2.11103e-21)
(-0.863627 -0.777549 0)
(-0.975938 -0.710053 -3.24468e-21)
(0.0171132 -0.180203 0)
(-0.0406914 0.128448 0)
(-0.731049 -0.530053 1.68886e-21)
(-0.417647 -0.342594 2.43776e-21)
(-1.0832 -0.852145 2.57424e-22)
(-0.416504 -0.298369 1.61166e-21)
(-0.161903 -0.211928 1.29319e-21)
(-0.201156 -0.229144 -2.34204e-21)
(-1.20561 -0.887597 6.2331e-22)
(-0.259814 -0.143088 1.11262e-21)
(-1.20952 -0.903102 -5.28653e-22)
(-0.282279 -0.165681 -1.03964e-21)
(-0.0347113 -0.204147 -2.20751e-21)
(-0.916177 -0.664175 1.86353e-21)
(-0.0697854 0.100577 -6.14364e-22)
(-0.282619 -0.263552 0)
(-1.18625 -0.912422 1.21469e-22)
(-0.335979 -0.22518 2.14668e-21)
(-0.23172 -0.1632 0)
(-0.67062 -0.586346 -1.50873e-21)
(-1.04524 -0.777606 6.97533e-23)
(-0.0685395 0.120042 0)
(-0.593097 -0.443608 0)
(-1.15196 -1.01609 0)
(-0.304433 -0.310568 0)
(-1.19343 -0.939191 1.42671e-21)
(-0.179346 -0.0149732 -2.64738e-21)
(-0.319114 -0.256627 0)
(-1.0863 -0.835228 0)
(-0.502543 -0.403099 0)
(-0.621751 -0.492383 0)
(-1.06161 -0.889723 0)
(-0.280551 -0.147104 0)
(-0.15467 -0.0591924 0)
(-0.910113 -0.821307 0)
(-0.962516 -0.69351 1.82383e-21)
(-0.208392 -0.0931567 -2.12677e-22)
(-0.838325 -0.627991 -2.17501e-21)
(-0.974273 -0.854145 1.20547e-21)
(-0.474128 -0.401377 3.1017e-21)
(-1.18521 -0.974441 0)
(-0.2036 -0.0505375 5.3414e-21)
(-0.298762 -0.179824 0)
(-0.746409 -0.578953 1.96807e-21)
(-0.943106 -0.806382 -2.43927e-22)
(-1.07645 -0.980071 0)
(-0.864182 -0.615901 2.8621e-21)
(-1.11547 -1.00389 0)
(-0.802296 -0.580229 1.7948e-21)
(-0.107579 0.014805 0)
(-0.110094 0.0235624 0)
(-0.725554 -0.55668 3.17811e-22)
(-1.04076 -0.896741 3.36329e-22)
(-0.22987 -0.105139 -9.52617e-22)
(-0.110762 -0.236976 -2.43263e-21)
(-0.0807051 0.106489 0)
(-0.971005 -0.733462 1.90197e-21)
(0.0063043 -0.188274 -2.0751e-21)
(-0.0491337 0.12004 -2.73952e-22)
(-0.798824 -0.576941 0)
(-0.258731 -0.286497 -2.02374e-21)
(-1.18747 -0.923338 0)
(-0.17387 -0.0161666 3.016e-21)
(-0.141424 -0.103158 0)
(-1.12664 -0.803565 2.32812e-22)
(-0.66042 -0.601619 9.39833e-22)
(-0.763483 -0.575248 1.95077e-21)
(-0.234406 -0.111416 4.51056e-22)
(-1.00539 -0.864308 0)
(-0.0833929 0.114234 0)
(-1.03159 -0.814474 0)
(-0.211079 -0.274932 2.25317e-21)
(-0.167726 -0.114748 0)
(-1.09381 -0.786922 -5.81136e-22)
(-0.686565 -0.61208 2.29422e-22)
(-0.266485 -0.152286 0)
(-0.764318 -0.584767 0)
(-0.946423 -0.818315 0)
(-0.624813 -0.498907 8.75266e-22)
(-1.03098 -0.863901 0)
(-0.302963 -0.176017 0)
(-1.14146 -0.908544 3.86005e-23)
(-0.337637 -0.212359 -1.20954e-21)
(-0.321452 -0.284868 2.63348e-21)
(-1.17157 -0.906295 0)
(-0.350383 -0.233522 -2.68973e-21)
(-0.253242 -0.296776 -3.17095e-21)
(-0.116264 0.0704197 1.92934e-21)
(-1.12225 -0.885145 2.50759e-21)
(-0.0935856 0.0952921 1.71097e-21)
(-0.540165 -0.42886 1.96352e-21)
(-1.16944 -1.00998 -1.53572e-21)
(-0.44612 -0.375764 -6.46785e-21)
(-1.1249 -0.95187 0)
(-0.0842312 0.118253 -1.69679e-21)
(-0.92177 -0.876184 -6.906e-23)
(-1.07584 -0.715032 7.92194e-22)
(-0.0547332 0.0106505 0)
(-0.510907 -0.414541 -4.07311e-21)
(0.0231838 -0.103633 1.30532e-21)
(-0.283175 -0.221249 -1.23466e-21)
(-1.16109 -0.762937 0)
(-1.09289 -0.913994 0)
(-0.387317 -0.351758 -6.30894e-21)
(-0.0823171 0.123807 0)
(-0.605996 -0.474667 -2.55265e-21)
(-0.511172 -0.391161 -8.42146e-22)
(-0.831724 -0.676289 2.00808e-21)
(-0.312475 -0.260104 0)
(-1.12953 -0.868954 -1.6013e-23)
(-0.444999 -0.334925 -9.80611e-22)
(-0.0811406 0.104506 1.28898e-21)
(-0.582098 -0.448142 0)
(-1.16249 -1.01901 1.76791e-21)
(-0.501072 -0.405187 3.36726e-21)
(-1.12725 -0.907413 3.66545e-22)
(-0.327803 -0.198872 0)
(-0.0603434 0.129871 0)
(-0.864468 -0.65674 -2.07749e-21)
(-0.0786645 -0.220531 0)
(-0.0581281 0.0181897 0)
(-1.03687 -0.694186 0)
(-0.96448 -0.918445 0)
(-0.457011 -0.390969 5.67337e-21)
(-1.15159 -0.97132 0)
(-0.0949544 0.100008 1.84882e-23)
(-0.75834 -0.567045 9.38039e-22)
(-1.08022 -0.952412 -2.05158e-22)
(-0.165457 -0.0352102 0)
(-0.24586 -0.236537 0)
(-1.191 -0.90244 -1.04756e-22)
(-0.354275 -0.248245 1.77635e-21)
(-1.16605 -1.06283 9.08015e-22)
(-0.762471 -0.531559 -3.46192e-21)
(-0.0615806 0.0967771 1.00502e-21)
(-0.804654 -0.573751 0)
(-1.13692 -1.02985 1.72653e-24)
(-0.0896943 0.0491425 -3.47206e-23)
(-0.0554612 0.138941 -1.77475e-21)
(-0.838379 -0.643983 0)
(-0.0906157 -0.218049 -2.96406e-21)
(-0.147713 -0.0794388 1.13404e-21)
(-0.797155 -0.724402 -9.55445e-22)
(-1.04785 -0.751199 1.12493e-22)
(0.0897505 -0.161893 2.33199e-21)
(-0.0279854 0.108387 -2.55983e-21)
(-0.672412 -0.447302 0)
(-0.433467 -0.319042 -4.83179e-22)
(-0.716673 -0.562869 -2.04037e-21)
(-0.808384 -0.666726 2.06661e-21)
(-0.643566 -0.504105 1.53627e-21)
(-0.71905 -0.547704 5.63535e-23)
(-1.11736 -0.956347 -3.49355e-22)
(-1.07945 -0.941319 0)
(-0.193778 -0.0601119 8.66176e-22)
(-0.198937 -0.0566268 -9.26553e-22)
(-0.221345 -0.143299 -2.66727e-21)
(0.0175472 -0.124414 1.42624e-21)
(-1.13384 -0.75333 2.45592e-21)
(-0.237349 -0.219139 0)
(-1.18213 -0.886544 0)
(-0.402527 -0.300307 -2.35451e-21)
(-0.757884 -0.54601 -8.28341e-22)
(-1.15711 -1.04435 0)
(-0.0881773 0.0617836 0)
(-0.219169 -0.256645 -1.38648e-21)
(-1.1984 -0.909344 0)
(-0.214837 -0.0755965 1.13378e-21)
(-0.614033 -0.48115 5.15794e-22)
(-0.712324 -0.566426 6.48073e-22)
(-0.625029 -0.494352 -2.59325e-22)
(-0.746257 -0.553162 -2.27721e-21)
(-1.12258 -0.993908 0)
(-0.136991 0.0023509 -1.59902e-21)
(-0.199591 -0.194291 0)
(-1.19194 -0.881623 -1.00021e-22)
(-0.408037 -0.318976 -1.41926e-21)
(-0.431119 -0.362128 0)
(-0.420505 -0.355748 3.66018e-22)
(-0.122638 -0.0590519 4.29105e-22)
(-0.804294 -0.742111 2.77154e-21)
(-1.063 -0.75065 -2.68686e-21)
(-0.685151 -0.520874 -2.6119e-21)
(-1.14635 -1.00553 -7.01585e-23)
(-0.138212 0.0101314 1.45641e-21)
(-0.219424 -0.260397 0)
(-0.189937 -0.0412733 -3.98652e-21)
(-1.1889 -0.90585 9.79653e-22)
(-0.198755 -0.109572 -2.9215e-21)
(-0.83905 -0.752796 0)
(-0.960629 -0.709372 9.88114e-22)
(-0.083712 0.0298299 -1.85859e-21)
(-0.903435 -0.627733 -1.48718e-21)
(-1.07053 -0.992192 0)
(-0.119978 -0.16661 -1.11496e-21)
(-1.21225 -0.867382 4.16718e-22)
(-0.329932 -0.240297 6.87089e-22)
(-0.106279 -0.0315677 1.54138e-22)
(-0.877809 -0.814084 0)
(-1.04523 -0.725919 2.27471e-21)
(-0.103341 -0.164139 0)
(-0.118314 -0.1831 0)
(-1.20853 -0.861858 4.50951e-22)
(-0.301444 -0.208062 -1.84902e-21)
(-1.20293 -0.870034 -6.45453e-22)
(-0.267939 -0.162245 1.95917e-21)
(-0.0948187 0.0972741 -1.53337e-21)
(-1.05144 -0.82355 0)
(-0.196156 -0.273294 -2.60494e-21)
(-0.198758 -0.216976 1.3336e-21)
(-1.2066 -0.898887 0)
(-0.318797 -0.211063 6.27027e-22)
(-0.568957 -0.39575 -5.66324e-21)
(-0.0208408 0.120377 2.24103e-21)
(0.0714292 -0.145143 7.49094e-21)
(-0.769887 -0.595906 -1.07562e-21)
(-0.334394 -0.222289 0)
(-0.876355 -0.740879 0)
(-0.512205 -0.425514 2.74579e-21)
(-1.15336 -0.952304 0)
(-0.235933 -0.0899446 3.05535e-21)
(-0.134749 0.04158 -1.24638e-21)
(-0.260705 -0.299794 6.24231e-21)
(-1.15 -0.902478 -1.59258e-21)
(-0.991666 -0.926628 0)
(-0.976684 -0.677314 1.26226e-21)
(-0.0856396 0.00736542 -2.19854e-21)
(-1.16795 -1.05212 1.96404e-21)
(-0.698523 -0.501501 -2.24083e-21)
(-0.0676166 0.100091 0)
(-1.08038 -0.875665 -9.18174e-22)
(-0.355918 -0.226927 0)
(-0.394044 -0.351456 2.97829e-21)
(-1.18044 -0.94301 -1.34284e-22)
(-0.262957 -0.124971 9.75145e-22)
(-1.06892 -0.880178 4.57007e-22)
(-0.334982 -0.205908 8.50703e-23)
(-0.0137704 -0.169557 -1.2652e-22)
(-0.149237 -0.0303102 1.55603e-21)
(-1.08074 -0.747925 1.80971e-21)
(-0.898705 -0.874916 0)
(-1.1097 -0.726075 2.21343e-22)
(-0.0363926 0.0165072 0)
(-0.38461 -0.343951 -3.03245e-21)
(-1.19509 -0.950947 1.63375e-22)
(-0.237024 -0.0909784 -1.25676e-21)
(-0.657219 -0.51551 0)
(-1.05692 -0.902135 -4.88037e-22)
(-0.251111 -0.120425 0)
(-0.906412 -0.657854 0)
(-0.954808 -0.863849 0)
(-0.15927 -0.0553624 0)
(-0.46449 -0.368973 -7.4131e-22)
(-0.993913 -0.794846 -7.14037e-22)
(-0.469791 -0.355597 3.70474e-23)
(-0.0791994 0.0245988 2.30419e-21)
(-0.950974 -0.652937 4.02619e-21)
(-1.04177 -0.968469 4.8629e-22)
(-0.309763 -0.324479 -3.35483e-21)
(-1.11989 -0.902045 -2.17248e-21)
(-0.106082 0.0894626 -1.81259e-21)
(-1.17321 -1.03921 -1.22958e-21)
(-0.651598 -0.482461 2.26811e-21)
(-0.0809142 0.0913873 1.23511e-21)
(-0.0285861 -0.0515236 -1.96865e-21)
(-0.577595 -0.545778 1.72099e-21)
(-1.21073 -0.800257 -7.45667e-23)
(-0.0353515 -0.136697 7.87682e-22)
(-0.0520665 -0.137036 -6.52582e-22)
(-1.20148 -0.828144 1.50485e-22)
(-1.18786 -0.813706 0)
(-0.274937 -0.19214 -6.65479e-22)
(-0.305872 -0.227144 -5.94683e-22)
(-0.0238127 0.118621 -3.01633e-21)
(-0.600483 -0.412924 6.23462e-21)
(0.075014 -0.155296 1.56782e-21)
(0.0857603 -0.166141 -1.37137e-22)
(-0.0355413 0.100968 3.5525e-21)
(-0.719731 -0.476694 0)
(-0.633989 -0.494002 -4.94681e-21)
(-1.14592 -0.976188 -8.98953e-24)
(-0.18619 -0.0354153 0)
(-0.10954 0.0750031 -3.72489e-21)
(-0.211297 -0.280332 2.5892e-21)
(-1.09759 -0.85581 0)
(-0.0659457 -0.111323 3.13907e-21)
(-0.0687684 -0.122013 -2.3762e-21)
(-1.21361 -0.835917 -2.3049e-22)
(-1.21501 -0.840386 -1.49466e-22)
(-0.43693 -0.377135 -1.15065e-21)
(-0.38829 -0.320359 -5.87979e-22)
(-0.0663052 0.14715 0)
(-1.01814 -0.854232 0)
(-0.353628 -0.325276 1.31881e-21)
(0.109633 -0.156182 -2.74141e-21)
(-0.0195222 0.104304 0)
(-0.604815 -0.389791 0)
(-0.776029 -0.613479 7.10191e-23)
(-0.485749 -0.366165 1.11283e-21)
(-0.690217 -0.564912 4.84298e-22)
(0.0570193 -0.168409 -5.51231e-21)
(-0.679915 -0.473162 -2.46971e-21)
(-0.0314149 0.120549 1.64678e-22)
(-0.151386 -0.12627 0)
(-1.15352 -0.827325 -6.38696e-22)
(-0.582523 -0.517053 -3.01792e-23)
(-0.256357 -0.297641 -6.08351e-23)
(-1.04746 -0.838877 -3.74231e-21)
(-0.0869938 0.117104 -7.86391e-24)
(-0.499018 -0.372099 -1.59866e-22)
(-0.0235087 0.120035 -1.30299e-21)
(0.0420985 -0.127978 -3.39593e-21)
(-0.261829 -0.171176 -1.03449e-21)
(-0.750732 -0.652646 9.20475e-22)
(-0.961025 -0.721363 2.70331e-21)
(-0.686534 -0.540491 0)
(-0.873059 -0.719688 -2.26087e-21)
(-0.407575 -0.290508 1.32153e-21)
(-0.00552807 -0.192855 0)
(-0.0676692 0.0907412 1.82706e-21)
(-0.908293 -0.648248 4.16725e-23)
(-0.698299 -0.545795 0)
(-0.891722 -0.742207 -6.30092e-22)
(-0.369393 -0.250402 -1.87877e-21)
(-0.742342 -0.588123 1.00691e-21)
(-0.524397 -0.402222 -5.95174e-22)
(-0.682684 -0.553933 2.67727e-22)
(-0.0449803 0.0381926 1.14038e-21)
(-1.02772 -0.681121 -1.42966e-21)
(-1.01191 -0.970409 6.35411e-22)
(-0.815563 -0.633299 0)
(-0.786436 -0.661947 0)
(-0.360042 -0.250817 1.61532e-22)
(-0.810952 -0.618658 1.68889e-21)
(-0.841001 -0.705828 6.03632e-22)
(-0.33814 -0.220828 2.24788e-23)
(-0.0326264 -0.0432716 2.94838e-21)
(-1.19689 -0.792019 -5.60192e-22)
(-0.634637 -0.608685 -1.72942e-21)
(-0.101093 0.058017 2.7286e-21)
(-0.0971049 0.0700854 -2.78937e-21)
(-1.02367 -0.746541 -1.31993e-21)
(-1.02266 -0.752152 -8.50773e-22)
(-0.0609301 -0.207119 0)
(-0.0814221 -0.220415 -2.26905e-21)
(-0.308868 -0.315108 4.05641e-21)
(-1.09275 -0.88558 2.17257e-21)
(-0.0946508 0.108278 2.23022e-21)
(-0.5507 -0.533488 -1.21967e-21)
(-0.00401846 -0.0460409 6.60762e-22)
(-1.21659 -0.792589 9.50374e-23)
(-0.167425 -0.104753 -1.03488e-21)
(-0.743863 -0.668126 -9.16889e-22)
(-1.06074 -0.764761 8.40538e-22)
(-0.872212 -0.597247 0)
(-1.12451 -1.04071 -1.78774e-24)
(-0.0640557 0.0629484 3.59153e-23)
(-0.646743 -0.515174 -2.14956e-21)
(-0.0405028 0.147314 -1.23055e-21)
(-0.0714317 -0.180836 -2.89752e-21)
(-0.0696117 0.131032 0)
(-0.497781 -0.394615 0)
(-1.11778 -0.967886 -1.29921e-21)
(-0.0357775 -0.203703 2.30055e-21)
(-0.0579034 0.120791 0)
(-0.851621 -0.62911 2.03922e-21)
(-0.0176473 0.107651 -4.66509e-33)
(-0.442137 -0.319324 2.85209e-21)
(0.068923 -0.112865 3.52569e-21)
(-0.433604 -0.280806 -3.21583e-21)
(-0.00940996 0.100287 4.65469e-33)
(0.103987 -0.119575 -3.11707e-21)
(-1.18271 -1.00261 4.75026e-22)
(-0.560448 -0.453088 0)
(-0.155344 0.0116963 -3.14941e-21)
(-0.87731 -0.723338 9.67342e-22)
(-0.0565962 0.158755 -1.2472e-21)
(-0.246164 -0.270005 0)
(-0.328587 -0.325301 -2.59355e-21)
(-1.18663 -0.944726 -9.23573e-22)
(-0.162588 0.00944944 1.7324e-21)
(0.0661427 -0.149864 4.76496e-21)
(-0.0935693 0.0181262 1.10895e-21)
(-0.938762 -0.61695 0)
(-0.478471 -0.392629 6.87798e-22)
(-0.390544 -0.265314 -5.5537e-22)
(-1.06555 -0.855436 2.41197e-22)
(-1.05378 -0.893445 -7.35932e-22)
(-0.0677693 0.14285 1.2786e-21)
(-0.403294 -0.347228 1.21067e-21)
(-0.91107 -0.615723 -1.79382e-21)
(-0.0624157 0.0559544 -6.4023e-22)
(-1.10346 -1.02549 0)
(-1.16467 -1.03867 0)
(-0.706036 -0.517028 0)
(-0.0977235 0.0580378 0)
(-0.00342413 0.0528661 0)
(-0.219063 -0.130589 2.89499e-21)
(0.0908986 -0.060174 3.01572e-21)
(-0.584242 -0.423774 -2.51157e-21)
(-0.0266639 0.127041 -1.57373e-21)
(0.0427927 -0.149174 -2.84182e-21)
(-0.502213 -0.402811 -1.71713e-21)
(-0.419373 -0.297953 1.35483e-21)
(-1.01949 -0.824228 3.58345e-22)
(-1.00613 -0.822684 -3.86647e-21)
(-0.281487 -0.297516 -2.86027e-21)
(-0.0716548 0.139274 0)
(-0.0608165 0.155393 -1.36111e-21)
(-0.342991 -0.315841 0)
(-0.973176 -0.823182 2.70657e-21)
(-0.158104 -0.251831 -2.20227e-21)
(-0.116407 0.0579599 4.06918e-21)
(-1.09226 -0.829382 0)
(-0.193394 -0.0907853 -3.18061e-21)
(-1.13336 -0.781081 -1.39084e-21)
(-0.0210462 -0.154526 0)
(-0.0184836 -0.0238206 -3.59966e-21)
(-1.19367 -0.780867 7.13953e-22)
(-0.690164 -0.671751 -5.46854e-22)
(-1.20696 -0.823938 -1.93163e-22)
(-0.0385529 -0.114863 1.46192e-21)
(-0.356246 -0.291899 -1.88763e-21)
(-0.164362 -0.0734473 -2.8716e-21)
(0.0342068 -0.137454 0)
(-1.07034 -0.710759 0)
(-0.204806 -0.176175 -5.6423e-22)
(-0.184618 -0.171451 0)
(-1.15541 -0.851215 -4.0679e-22)
(-1.1822 -0.864751 4.35312e-22)
(-0.504711 -0.416493 2.90196e-22)
(-0.465199 -0.382948 -3.08811e-22)
(-0.191056 -0.157647 5.41791e-22)
(-1.14093 -0.833614 0)
(-0.558525 -0.479197 5.13854e-22)
(-0.0434 -0.0901585 0)
(-1.21346 -0.825104 3.03495e-22)
(-0.465849 -0.421416 4.22354e-22)
(-1.17318 -1.03615 5.41618e-22)
(-0.655434 -0.491397 2.11564e-21)
(-0.0928857 0.0751199 -2.59044e-21)
(-1.09053 -0.900363 0)
(-0.337692 -0.328559 6.69726e-21)
(-0.0840291 0.119248 0)
(-0.107388 0.0748213 -8.30871e-22)
(-0.555542 -0.443053 -1.548e-21)
(-1.17737 -1.01231 4.22317e-22)
(-0.476352 -0.303703 4.67676e-22)
(-0.010648 0.104657 8.15155e-22)
(0.1071 -0.130054 0)
(-0.296949 -0.217197 9.66473e-22)
(-0.332496 -0.249525 0)
(-0.637781 -0.538768 0)
(-1.00908 -0.767205 2.53157e-21)
(-0.606434 -0.502742 0)
(-1.00421 -0.773833 -1.64233e-21)
(-0.0785886 -0.0922382 0)
(-0.0931656 -0.0906599 0)
(-0.581416 -0.529566 6.91315e-23)
(-1.20255 -0.828792 2.77093e-22)
(-0.53343 -0.478284 2.83381e-21)
(-1.18429 -0.82139 -7.8756e-22)
(-0.513583 -0.401549 0)
(-0.0285643 0.127271 1.77995e-21)
(0.00457665 -0.136507 0)
(-1.02951 -0.833593 2.06552e-21)
(-0.279048 -0.306099 7.69587e-22)
(-0.0781712 0.128974 8.19075e-22)
(-0.101676 -0.0533708 -1.88109e-21)
(-0.776513 -0.722171 -9.45237e-22)
(-1.1028 -0.767166 2.68266e-21)
(-1.15838 -1.05787 -7.15718e-22)
(-0.787982 -0.551517 5.69125e-21)
(-0.0669308 0.0821428 0)
(-0.216588 -0.123563 3.4018e-21)
(-1.14909 -0.788616 1.47951e-21)
(-0.0203984 -0.147273 1.93422e-21)
(-0.71941 -0.539223 0)
(-0.017451 -0.183385 0)
(-0.0412573 0.138498 0)
(-0.770452 -0.593467 0)
(-0.0680885 -0.202649 2.40066e-21)
(-0.0479995 0.14417 3.02389e-22)
(-0.102763 -0.146514 -1.3104e-21)
(-1.2127 -0.860125 -2.8729e-22)
(-0.37134 -0.292625 8.70162e-22)
(-0.220891 -0.122542 -2.81338e-22)
(-0.854824 -0.754985 0)
(-0.92476 -0.685127 6.67882e-23)
(-0.12841 -0.240309 2.5653e-21)
(-0.105546 0.0712623 2.40495e-21)
(-1.05669 -0.793324 9.90053e-22)
(-1.18112 -1.01245 0)
(-0.574601 -0.454026 0)
(-0.135202 0.0363557 2.70105e-21)
(-0.173339 -0.0259442 7.60432e-22)
(-1.16815 -0.877184 -1.78056e-21)
(-0.172396 -0.241338 5.14085e-21)
(-0.0870263 -0.076722 0)
(-0.628884 -0.581808 -1.86613e-21)
(-1.17149 -0.810707 5.0413e-22)
(-0.820692 -0.603476 -1.33793e-22)
(-1.0451 -0.926287 3.00652e-22)
(-0.162578 -0.0384776 0)
(-0.202515 -0.125937 2.46095e-23)
(-0.7632 -0.680563 -3.14121e-22)
(-1.01367 -0.746171 -1.09947e-21)
(-0.0934833 0.0942231 4.69653e-24)
(-1.02878 -0.787807 -2.55894e-21)
(-0.148925 -0.251509 3.27335e-21)
(-0.167243 -0.223705 -8.33188e-22)
(-1.19666 -0.888277 3.62768e-22)
(-0.226645 -0.0980662 0)
(-0.295859 -0.205366 -1.04767e-21)
(-0.711639 -0.609078 1.86652e-21)
(-0.957031 -0.727435 -1.77287e-21)
(0.0549968 -0.137122 1.66094e-21)
(-0.137355 -0.0431161 1.27418e-21)
(-1.02299 -0.66981 1.59061e-21)
(-0.272218 -0.218877 -6.83881e-22)
(-1.09763 -0.831927 0)
(-0.530614 -0.438787 0)
(-0.681924 -0.530578 -3.07274e-21)
(-0.977969 -0.825358 3.36731e-22)
(-0.309814 -0.187132 0)
(-1.16733 -1.02261 0)
(-0.675211 -0.507542 3.7341e-21)
(-0.12052 0.0365544 0)
(0.0778533 -0.163656 -1.25781e-21)
(-0.0526145 0.0775245 -3.84558e-22)
(-0.812387 -0.536638 -2.58665e-21)
(0.0852441 -0.156043 3.37046e-21)
(-0.0598 0.0605662 0)
(-0.840237 -0.546135 2.1934e-21)
(-0.177552 -0.0401678 7.34757e-22)
(-1.16213 -0.856975 1.26817e-21)
(-0.131529 -0.219507 -4.60887e-21)
(-0.862782 -0.627262 -1.53425e-21)
(-1.05103 -0.948127 -4.73275e-22)
(-0.130648 -0.0122348 0)
(-0.0373948 0.0888674 3.52364e-22)
(-0.730211 -0.471774 2.41681e-21)
(0.100349 -0.159932 0)
(-0.142508 0.0364749 0)
(-1.17181 -0.934445 1.15846e-21)
(-0.314768 -0.32338 -6.9091e-22)
(-0.0156791 0.0931431 1.36734e-21)
(-0.361056 -0.269376 -2.93383e-21)
(0.0691935 -0.0900756 0)
(0.11426 -0.107934 -3.08859e-21)
(-0.354419 -0.211091 0)
(-0.00338106 0.0832974 1.35862e-21)
(-0.167951 -0.0643376 1.00049e-23)
(-1.09307 -0.742717 0)
(0.00599445 -0.150905 0)
(-0.0715736 0.121482 0)
(-0.94338 -0.719389 0)
(-0.119838 -0.237775 4.96548e-21)
(-0.0631833 -0.203959 -2.02121e-21)
(-0.0919007 -0.213981 1.63502e-21)
(-0.120469 0.0280111 -1.36787e-21)
(-1.06785 -0.770561 4.02759e-22)
(-0.134296 0.0124607 -2.22991e-21)
(-1.1035 -0.806642 -6.12946e-22)
(-0.358472 -0.346781 1.32275e-21)
(-1.16969 -0.948846 -6.79658e-22)
(-0.133454 0.0494863 0)
(-0.053144 0.0801869 0)
(-1.13903 -1.06227 0)
(-0.859082 -0.584776 0)
(-0.407932 -0.313195 0)
(-0.574729 -0.461022 -2.74756e-21)
(-0.961704 -0.752946 8.22958e-22)
(-0.476229 -0.40405 3.81078e-21)
(-1.18096 -0.991107 -1.63873e-22)
(-0.125419 0.0551772 2.52193e-21)
(-0.123258 0.0566247 1.60868e-21)
(-0.529753 -0.431883 -5.29938e-21)
(-1.18302 -1.00755 2.26778e-22)
(0.0431894 -0.120824 1.63592e-21)
(-0.195068 -0.120373 1.36831e-21)
(-1.09478 -0.715584 -2.56789e-21)
(-0.0545623 -0.0787156 0)
(-1.20878 -0.822047 -4.69119e-23)
(-0.526856 -0.484418 -2.77799e-21)
(-0.128144 -0.11843 0)
(-1.1744 -0.833499 8.37949e-22)
(-0.556778 -0.495006 7.12919e-23)
(-0.4636 -0.397916 -3.93516e-21)
(-1.19194 -0.984767 -1.36739e-22)
(-0.177857 -0.0161646 -1.38507e-21)
(-0.4914 -0.415701 0)
(-1.1889 -0.992162 -1.00958e-22)
(-0.160007 0.00633405 1.27056e-21)
(-0.331615 -0.231257 0)
(-0.722807 -0.610433 -2.84692e-21)
(-0.911874 -0.70066 9.75405e-22)
(-0.152642 -0.154151 0)
(-1.189 -0.860546 0)
(-0.465754 -0.396646 4.41111e-22)
(-0.0623793 0.145574 -2.78552e-21)
(-1.06535 -0.917337 3.86239e-21)
(-0.458741 -0.371982 0)
(-0.100389 -0.209587 3.81928e-21)
(-0.0480786 0.150251 0)
(-0.759524 -0.598812 -1.52351e-21)
(-0.105357 -0.200733 5.11976e-23)
(-0.0454011 0.152447 0)
(-0.717848 -0.574758 4.42606e-21)
(-0.202482 -0.146985 7.64514e-22)
(-0.649673 -0.565681 -3.59971e-22)
(-1.08408 -0.797207 -7.36189e-23)
(-0.641887 -0.481989 6.10992e-23)
(-0.0351902 0.137346 2.40706e-21)
(-0.00158104 -0.166747 0)
(-0.127452 -0.208105 3.6712e-21)
(-0.205198 -0.0767566 1.50504e-21)
(-1.17867 -0.862199 0)
(-0.035633 0.139993 -3.5831e-22)
(-0.614085 -0.478751 2.67271e-21)
(-0.0269601 -0.16427 0)
(-0.615199 -0.48182 1.78829e-21)
(-0.454447 -0.332438 1.67384e-21)
(-0.885332 -0.72073 3.93587e-23)
(-0.3724 -0.327908 -4.567e-22)
(-1.17078 -0.922286 7.11857e-24)
(-0.316063 -0.188096 -1.49195e-21)
(-1.00337 -0.915088 1.18265e-21)
(-0.91072 -0.65341 2.8576e-21)
(-0.128443 -0.021998 0)
(-0.0612288 0.15401 0)
(-0.926876 -0.763482 1.23246e-21)
(-0.268136 -0.28627 0)
(-1.17616 -1.02269 0)
(-0.62099 -0.477416 0)
(-0.123499 0.0430278 0)
(-0.115778 -0.00550276 0)
(0.0438546 -0.151629 -1.79031e-21)
(-0.997707 -0.667041 -1.56003e-21)
(-0.355827 -0.325419 0)
(-1.18479 -0.936107 1.77891e-23)
(-0.283571 -0.151705 1.45433e-21)
(-0.441369 -0.337808 0)
(-0.579496 -0.463131 2.36015e-21)
(-0.929245 -0.731867 0)
(-0.953486 -0.773723 3.65235e-21)
(-0.236068 -0.278404 2.71253e-21)
(-0.0665821 0.144688 0)
(-0.147903 0.0186424 -1.58531e-21)
(-1.15836 -0.8984 -7.88773e-23)
(-0.230612 -0.281894 -1.27571e-22)
(0.035589 -0.179056 0)
(0.0438147 -0.177242 2.89762e-21)
(-0.0555104 0.0959818 -8.96545e-22)
(-0.0468738 0.105999 -1.08489e-21)
(-0.838944 -0.577992 1.55303e-21)
(-0.794087 -0.549407 -1.2774e-21)
(-0.61416 -0.490994 0)
(-1.10785 -0.941402 7.86326e-22)
(-0.227317 -0.0890898 1.44954e-21)
(-1.16968 -0.993749 -6.17054e-22)
(-0.585837 -0.467697 0)
(-0.164215 -0.00237399 -1.62667e-21)
(-0.599332 -0.469105 -1.59447e-21)
(-0.982203 -0.813094 4.96204e-22)
(-0.368185 -0.247436 2.20459e-21)
(-0.830963 -0.664479 -2.94409e-21)
(-0.152698 -0.234759 4.09629e-21)
(-0.830938 -0.675169 1.47322e-21)
(-0.0539392 0.151607 0)
(-0.188767 -0.247581 -3.96695e-21)
(-0.0536067 0.156144 0)
(-0.322591 -0.313743 0)
(-1.20176 -0.945099 0)
(-0.227214 -0.0784103 1.65354e-21)
(-0.182346 -0.256192 5.07715e-21)
(-0.149334 -0.239204 -9.50596e-21)
(-0.928848 -0.738459 -1.99494e-21)
(-0.872558 -0.687609 4.64656e-21)
(-0.0646287 0.140257 2.42995e-21)
(-0.0586129 0.144873 7.44042e-24)
(-0.642775 -0.496884 0)
(-1.15037 -0.996419 1.5243e-22)
(-0.159119 -0.00664086 2.11526e-21)
(-0.516741 -0.416972 1.78731e-21)
(-1.13944 -0.923933 -2.14361e-22)
(-0.291287 -0.157712 0)
(0.0595355 -0.159271 0)
(-0.0797092 0.0425228 0)
(-0.915588 -0.608297 -2.10505e-21)
(-0.563678 -0.456928 1.45765e-21)
(-1.12538 -0.941005 -2.0116e-22)
(-0.239209 -0.0996807 -2.41401e-21)
(-0.569791 -0.453564 7.01782e-22)
(-1.03629 -0.858193 -5.83899e-22)
(-0.338949 -0.212532 1.27918e-21)
(0.0506186 -0.173046 0)
(-0.0607388 0.0818264 0)
(-0.852063 -0.577937 2.84036e-21)
(-0.30057 -0.287395 0)
(-1.19872 -0.925279 -5.9843e-23)
(-0.287204 -0.159716 -1.55236e-21)
(-1.08643 -1.02498 0)
(-0.958046 -0.638488 0)
(-0.0471116 0.0596368 -8.38912e-23)
(-0.0633906 -0.0557199 -9.25242e-23)
(-1.17744 -0.800588 0)
(-0.651834 -0.616209 2.70725e-21)
(-1.15715 -1.04116 -8.62845e-22)
(-0.0589116 0.118327 0)
(-0.66194 -0.477893 0)
(-0.00684713 0.075378 -3.27702e-21)
(-0.308894 -0.196005 -4.05172e-21)
(0.0958883 -0.0834658 -4.22287e-21)
(-0.455386 -0.383552 0)
(-1.15848 -0.940949 1.21043e-22)
(-0.265996 -0.126195 -1.28755e-21)
(0.00426844 -0.177808 3.49745e-21)
(-0.0959224 0.0419124 4.6687e-21)
(-0.987638 -0.683671 0)
(-0.798286 -0.778899 -5.76501e-22)
(-1.15978 -0.757743 -1.01907e-21)
(-0.0238592 -0.000702566 -7.71875e-22)
(0.11964 -0.139594 0)
(-0.00909 0.100833 -1.22312e-21)
(-0.488944 -0.299995 0)
(-0.258814 -0.150248 1.33707e-21)
(-0.223665 -0.116183 -1.3718e-21)
(-0.896919 -0.779193 0)
(-0.82774 -0.629032 1.29738e-21)
(-0.914854 -0.803776 -1.55318e-21)
(-0.866651 -0.651563 -1.14567e-21)
(-0.656234 -0.512749 1.5118e-21)
(-0.946967 -0.787736 8.84021e-22)
(-0.354638 -0.234541 0)
(-0.257776 -0.16101 1.19152e-21)
(-0.278939 -0.175289 0)
(-0.804297 -0.700963 -1.01358e-21)
(-0.925095 -0.694339 1.18982e-21)
(-0.831793 -0.720036 1.02195e-21)
(-0.869242 -0.656018 -3.53484e-23)
(-0.465567 -0.384359 1.15774e-22)
(-1.1073 -0.910247 -1.6977e-22)
(-0.296216 -0.163259 -1.66787e-21)
(-0.555987 -0.447381 -3.26005e-21)
(-1.10274 -0.913439 4.2251e-24)
(-0.277325 -0.142582 0)
(-0.048352 0.157384 0)
(-0.757121 -0.61757 0)
(-0.15912 -0.224625 4.75539e-21)
(-0.214214 -0.16698 -7.06074e-22)
(-1.10872 -0.816562 0)
(-0.590711 -0.505345 6.81918e-22)
(-0.169151 -0.255037 -7.79321e-21)
(-0.971549 -0.758631 -1.97716e-21)
(-0.0726142 0.126269 -1.38694e-21)
(-0.401897 -0.363064 0)
(-0.380166 -0.351332 2.50576e-21)
(-1.19613 -0.969623 1.70666e-22)
(-1.19338 -0.964014 -8.57872e-22)
(-0.178023 -0.0152256 -1.78324e-21)
(-0.163549 0.00640358 -1.67252e-21)
(-0.257261 -0.199782 0)
(-1.08606 -0.815735 0)
(-0.575634 -0.484197 3.2107e-22)
(-0.0977424 -0.124259 9.76355e-22)
(-1.20848 -0.84713 0)
(-0.454232 -0.386596 9.79997e-22)
(-0.41554 -0.364976 -1.06963e-21)
(-1.18962 -0.965064 0)
(-0.214091 -0.0663981 0)
(-0.480836 -0.366438 1.31681e-21)
(-0.831945 -0.660777 -5.03798e-22)
(-0.635465 -0.516908 6.35525e-22)
(-0.453369 -0.393995 0)
(-1.18787 -0.985282 0)
(-0.143353 0.0327974 -2.67923e-21)
(-0.367523 -0.274543 0)
(-0.623439 -0.513043 3.41784e-22)
(-0.95714 -0.74332 0)
(-0.569385 -0.459728 -2.32261e-21)
(-1.16236 -0.984437 1.5201e-22)
(-0.190519 -0.033277 -2.15428e-22)
(-0.131252 -0.149452 9.97759e-22)
(-1.20398 -0.861956 0)
(-0.430375 -0.357743 1.96181e-21)
(-0.441134 -0.331575 -1.30409e-21)
(-0.407387 -0.300405 -5.90628e-22)
(-0.871399 -0.688679 5.3685e-22)
(-0.638748 -0.522543 -1.24674e-21)
(-0.867126 -0.681995 0)
(-0.679151 -0.563132 -2.23709e-21)
(-0.330187 -0.230536 -5.95617e-22)
(-0.761927 -0.650252 1.23532e-21)
(-0.310262 -0.201824 3.85479e-22)
(-0.868116 -0.669878 -1.51142e-21)
(-0.828104 -0.707429 -6.24659e-22)
(-0.852762 -0.652 2.49868e-23)
(-0.245588 -0.207131 8.0835e-22)
(-0.26299 -0.227198 0)
(-1.13886 -0.853864 4.07039e-22)
(-1.15621 -0.871629 -3.18469e-22)
(-0.488422 -0.395262 -1.61566e-21)
(-0.439994 -0.336547 2.68252e-21)
(-0.188437 -0.0748296 0)
(-1.14963 -0.813624 8.37947e-22)
(-0.0586421 -0.176088 -2.33899e-21)
(-0.0564858 0.0414676 1.00591e-21)
(-0.981989 -0.659231 2.25278e-21)
(-1.0504 -0.991127 -8.76461e-22)
(-0.161894 -0.0384668 -1.58798e-21)
(-0.156319 -0.0215483 1.24428e-21)
(-1.1214 -0.798282 -7.25345e-22)
(-1.12902 -0.820064 -1.16015e-21)
(-0.0532416 -0.184519 6.20642e-21)
(-0.0871278 -0.204526 -3.28117e-21)
(-0.0791974 -0.0153491 1.37986e-21)
(-0.882342 -0.829881 -8.72235e-22)
(-1.06918 -0.731951 2.2709e-22)
(-0.572032 -0.44576 2.20839e-21)
(-0.616227 -0.489112 0)
(-0.763598 -0.608146 -1.95745e-21)
(-0.401622 -0.36551 -1.31242e-21)
(-1.18534 -0.970738 9.75421e-22)
(-0.145454 0.0313975 0)
(-0.266085 -0.197821 0)
(-0.622657 -0.535604 -3.05641e-22)
(-1.04295 -0.785657 -7.53504e-22)