/*--------------------------------*- C++ -*----------------------------------*\
  =========                 |
  \\      /  F ield         | OpenFOAM: The Open Source CFD Toolbox
   \\    /   O peration     | Website:  https://openfoam.org
    \\  /    A nd           | Version:  6
     \\/     M anipulation  |
\*---------------------------------------------------------------------------*/
FoamFile
{
    version     2.0;
    format      ascii;
    class       volScalarField;
    location    "24151";
    object      k;
}
// * * * * * * * * * * * * * * * * * * * * * * * * * * * * * * * * * * * * * //

dimensions      [0 2 -2 0 0 0 0];

internalField   nonuniform List<scalar> 
115600
(
2.74953e-06
1.62997e-06
1.68196e-06
1.75124e-06
1.7525e-06
1.67857e-06
1.56159e-06
1.43333e-06
1.31482e-06
1.21158e-06
1.12496e-06
1.05292e-06
9.92054e-07
9.38906e-07
8.90857e-07
8.46443e-07
8.05258e-07
7.67585e-07
7.33978e-07
7.04916e-07
6.80597e-07
6.60868e-07
6.45241e-07
6.32998e-07
6.23323e-07
6.1546e-07
6.08831e-07
6.0311e-07
5.98219e-07
5.9427e-07
5.91469e-07
5.90021e-07
5.90128e-07
5.92208e-07
5.95788e-07
6.00549e-07
6.0618e-07
6.12398e-07
6.18983e-07
6.2579e-07
6.32753e-07
6.39865e-07
6.47155e-07
6.54664e-07
6.62426e-07
6.70472e-07
6.78832e-07
6.87553e-07
6.96726e-07
7.06555e-07
7.17439e-07
7.30464e-07
7.48028e-07
7.79736e-07
8.68317e-07
1.32199e-06
2.63394e-05
2.66739e-05
2.92577e-05
3.13667e-05
3.21174e-05
3.1391e-05
2.96396e-05
2.74389e-05
2.52476e-05
2.32806e-05
2.16202e-05
2.02541e-05
1.9122e-05
1.81505e-05
1.72764e-05
1.64601e-05
1.56872e-05
1.49625e-05
1.43009e-05
1.37182e-05
1.32254e-05
1.28253e-05
1.2512e-05
1.22727e-05
1.20902e-05
1.19473e-05
1.18292e-05
1.17266e-05
1.16359e-05
1.15588e-05
1.15e-05
1.14652e-05
1.14599e-05
1.14926e-05
1.15569e-05
1.16469e-05
1.17564e-05
1.18789e-05
1.2009e-05
1.21429e-05
1.22787e-05
1.24162e-05
1.25558e-05
1.26987e-05
1.28459e-05
1.29981e-05
1.31561e-05
1.33207e-05
1.34933e-05
1.36769e-05
1.38781e-05
1.4113e-05
1.4421e-05
1.49372e-05
1.62295e-05
2.03478e-05
5.41953e-05
7.04967e-05
8.21921e-05
9.01198e-05
9.41356e-05
9.44647e-05
9.19496e-05
8.76681e-05
8.26963e-05
7.78251e-05
7.34799e-05
6.98024e-05
6.67355e-05
6.41142e-05
6.17529e-05
5.95092e-05
5.7314e-05
5.517e-05
5.31296e-05
5.12653e-05
4.96429e-05
4.83026e-05
4.72508e-05
4.64609e-05
4.58821e-05
4.54527e-05
4.51147e-05
4.48254e-05
4.45635e-05
4.43295e-05
4.41393e-05
4.40166e-05
4.39851e-05
4.40706e-05
4.42665e-05
4.45576e-05
4.49223e-05
4.53365e-05
4.57781e-05
4.62306e-05
4.66846e-05
4.71372e-05
4.75899e-05
4.80468e-05
4.85118e-05
4.89882e-05
4.94781e-05
4.99832e-05
5.05061e-05
5.10525e-05
5.16357e-05
5.22868e-05
5.30928e-05
5.42952e-05
5.69346e-05
6.28253e-05
6.95617e-05
9.94784e-05
0.0001185
0.000130569
0.000137188
0.000139333
0.000138087
0.000134614
0.00012998
0.000125095
0.00012055
0.000116622
0.00011334
0.000110566
0.000108092
0.000105726
0.000103353
0.000100945
9.85533e-05
9.62781e-05
9.42293e-05
9.24965e-05
9.11258e-05
9.01116e-05
8.94022e-05
8.8917e-05
8.85688e-05
8.82856e-05
8.80247e-05
8.77769e-05
8.75612e-05
8.74131e-05
8.73724e-05
8.74692e-05
8.77137e-05
8.80938e-05
8.85822e-05
8.91438e-05
8.9744e-05
9.03553e-05
9.09607e-05
9.15537e-05
9.21354e-05
9.27115e-05
9.32882e-05
9.38705e-05
9.44613e-05
9.50617e-05
9.56722e-05
9.62945e-05
9.69352e-05
9.76081e-05
9.83703e-05
9.93289e-05
0.000101158
0.000104173
7.41512e-05
0.000111391
0.000134673
0.000149147
0.000157284
0.000160558
0.000160235
0.000157537
0.000153576
0.000149225
0.000145096
0.000141506
0.000138523
0.000136035
0.000133846
0.000131766
0.00012967
0.000127517
0.000125346
0.000123251
0.000121342
0.000119718
0.000118435
0.000117501
0.000116872
0.000116473
0.000116215
0.00011602
0.00011584
0.00011566
0.000115495
0.00011538
0.000115356
0.000115451
0.000115681
0.000116041
0.000116506
0.000117044
0.000117619
0.000118203
0.000118777
0.000119335
0.000119875
0.000120405
0.000120929
0.000121453
0.00012198
0.000122508
0.000123038
0.000123566
0.00012409
0.000124607
0.000125132
0.000125655
0.000126484
0.000127389
7.25066e-05
0.000112782
0.000138836
0.000155213
0.000164664
0.000168933
0.000169418
0.000167391
0.000163988
0.000160112
0.000156367
0.000153078
0.000150334
0.000148046
0.000146037
0.000144133
0.000142211
0.000140232
0.00013823
0.000136292
0.000134522
0.000133015
0.000131827
0.000130969
0.000130401
0.000130054
0.000129843
0.000129695
0.00012956
0.000129423
0.000129297
0.000129213
0.00012921
0.000129315
0.000129542
0.000129887
0.000130329
0.000130838
0.000131381
0.000131931
0.000132471
0.000132993
0.000133497
0.000133988
0.000134471
0.00013495
0.000135428
0.000135903
0.000136372
0.000136829
0.000137268
0.000137675
0.00013804
0.000138298
0.000138573
0.000138551
6.74932e-05
0.000107263
0.000134941
0.00015311
0.000164071
0.000169587
0.000171105
0.00016993
0.000167212
0.000163872
0.000160546
0.000157572
0.000155055
0.000152932
0.000151056
0.00014927
0.000147464
0.000145602
0.000143719
0.000141894
0.000140227
0.000138804
0.000137682
0.000136869
0.000136331
0.000136002
0.000135806
0.000135673
0.000135559
0.000135447
0.000135348
0.000135292
0.000135312
0.000135434
0.000135668
0.000136012
0.000136446
0.00013694
0.000137466
0.000137999
0.000138522
0.000139028
0.000139518
0.000139995
0.000140464
0.000140928
0.000141387
0.000141839
0.000142281
0.000142704
0.0001431
0.000143449
0.000143728
0.00014385
0.000143853
0.000143471
6.10375e-05
9.7212e-05
0.000124977
0.000144626
0.000157316
0.000164457
0.000167406
0.000167439
0.000165698
0.000163115
0.000160355
0.000157803
0.000155589
0.000153687
0.000151984
0.000150346
0.000148679
0.000146952
0.000145198
0.000143492
0.000141927
0.000140587
0.000139522
0.000138745
0.000138226
0.000137906
0.000137715
0.00013759
0.00013749
0.0001374
0.000137329
0.000137303
0.000137351
0.000137495
0.000137745
0.000138096
0.00013853
0.000139022
0.000139543
0.000140072
0.000140594
0.000141102
0.000141596
0.000142078
0.000142552
0.00014302
0.000143482
0.000143935
0.000144374
0.00014479
0.000145173
0.0001455
0.000145741
0.000145803
0.000145686
0.000145187
5.43975e-05
8.48068e-05
0.00011068
0.000130933
0.000145256
0.000154287
0.000159057
0.000160701
0.000160302
0.000158781
0.000156829
0.000154878
0.000153112
0.000151553
0.000150127
0.00014873
0.000147284
0.000145763
0.000144196
0.000142656
0.00014123
0.000139997
0.00013901
0.000138284
0.000137796
0.000137495
0.00013732
0.000137215
0.000137141
0.000137084
0.000137051
0.000137063
0.000137147
0.00013732
0.000137592
0.000137959
0.000138402
0.0001389
0.000139427
0.000139963
0.000140496
0.000141018
0.000141528
0.000142028
0.000142521
0.000143007
0.000143486
0.000143954
0.000144405
0.000144832
0.00014522
0.000145548
0.000145781
0.000145826
0.000145667
0.000145159
4.82187e-05
7.20363e-05
9.41122e-05
0.000113483
0.00012877
0.000139595
0.000146386
0.000149964
0.000151257
0.000151128
0.000150269
0.000149152
0.000148027
0.000146978
0.000145977
0.000144955
0.000143848
0.000142637
0.000141349
0.000140051
0.000138827
0.000137754
0.000136887
0.000136248
0.000135822
0.00013557
0.000135439
0.000135378
0.000135353
0.00013535
0.000135372
0.000135438
0.00013557
0.000135785
0.000136089
0.00013648
0.000136943
0.000137456
0.000138
0.000138554
0.000139108
0.000139654
0.00014019
0.000140718
0.000141239
0.000141753
0.000142258
0.000142751
0.000143225
0.000143673
0.000144079
0.000144421
0.000144665
0.000144719
0.000144561
0.000144089
4.27308e-05
6.0358e-05
7.75099e-05
9.42875e-05
0.000109244
0.000121206
0.000129833
0.000135435
0.000138646
0.000140183
0.000140692
0.000140659
0.0001404
0.000140058
0.000139658
0.000139166
0.000138539
0.000137764
0.000136868
0.000135911
0.000134974
0.000134135
0.000133451
0.000132953
0.000132639
0.000132478
0.000132429
0.000132449
0.000132506
0.000132585
0.000132688
0.00013283
0.000133028
0.000133301
0.000133653
0.000134082
0.000134577
0.000135119
0.000135691
0.000136275
0.00013686
0.00013744
0.000138012
0.000138576
0.000139133
0.000139682
0.000140221
0.000140746
0.000141252
0.000141727
0.00014216
0.000142527
0.000142792
0.00014287
0.000142735
0.000142321
3.8003e-05
5.0531e-05
6.27595e-05
7.57113e-05
8.87307e-05
0.000100568
0.000110295
0.000117603
0.000122688
0.000125998
0.000128064
0.000129347
0.00013018
0.00013075
0.000131134
0.000131338
0.000131342
0.000131142
0.000130763
0.000130263
0.000129716
0.000129201
0.000128782
0.000128496
0.000128355
0.000128341
0.000128424
0.000128569
0.000128747
0.000128944
0.00012916
0.000129406
0.000129697
0.00013005
0.00013047
0.000130956
0.000131501
0.000132088
0.000132703
0.00013333
0.000133959
0.000134583
0.0001352
0.00013581
0.000136411
0.000137002
0.000137582
0.000138147
0.000138689
0.0001392
0.000139666
0.000140064
0.000140359
0.00014047
0.000140373
0.000140024
3.40692e-05
4.27362e-05
5.09084e-05
5.98355e-05
6.96981e-05
7.98623e-05
8.93842e-05
9.75189e-05
0.000103992
0.000108909
0.000112556
0.000115273
0.000117356
0.00011901
0.000120344
0.000121398
0.000122178
0.00012269
0.000122959
0.000123037
0.000122994
0.000122909
0.000122847
0.000122859
0.000122965
0.000123164
0.000123438
0.000123759
0.000124105
0.000124463
0.000124829
0.000125213
0.000125629
0.00012609
0.000126605
0.000127173
0.000127788
0.00012844
0.000129116
0.000129802
0.000130489
0.000131171
0.000131845
0.00013251
0.000133164
0.000133807
0.000134436
0.000135046
0.000135633
0.000136185
0.000136691
0.000137127
0.000137459
0.00013761
0.000137558
0.000137279
3.09265e-05
3.6816e-05
4.20879e-05
4.77329e-05
5.42473e-05
6.16455e-05
6.94575e-05
7.70786e-05
8.39779e-05
8.98867e-05
9.47857e-05
9.88087e-05
0.000102139
0.000104939
0.000107318
0.000109331
0.000111
0.000112338
0.00011337
0.000114142
0.000114717
0.000115169
0.000115568
0.000115969
0.000116406
0.000116893
0.000117422
0.000117978
0.000118545
0.000119109
0.00011967
0.000120233
0.00012081
0.000121414
0.000122054
0.000122733
0.000123446
0.000124187
0.000124944
0.000125708
0.000126471
0.000127226
0.000127971
0.000128703
0.000129423
0.000130127
0.000130814
0.00013148
0.000132118
0.000132719
0.000133272
0.000133752
0.000134127
0.000134325
0.000134324
0.000134117
2.85234e-05
3.2484e-05
3.58689e-05
3.93084e-05
4.32171e-05
4.78236e-05
5.31652e-05
5.90194e-05
6.50187e-05
7.08067e-05
7.61472e-05
8.09458e-05
8.52107e-05
8.89948e-05
9.23519e-05
9.53162e-05
9.79029e-05
0.000100121
0.000101987
0.000103536
0.000104822
0.000105908
0.000106863
0.000107746
0.0001086
0.000109452
0.000110306
0.000111159
0.000112001
0.000112824
0.000113626
0.000114412
0.000115192
0.000115977
0.000116779
0.000117601
0.000118444
0.000119301
0.000120165
0.00012103
0.000121888
0.000122734
0.000123566
0.000124381
0.000125179
0.000125957
0.000126714
0.000127445
0.000128145
0.000128804
0.000129411
0.000129943
0.000130368
0.000130619
0.000130676
0.000130541
2.67879e-05
2.9459e-05
3.16874e-05
3.38256e-05
3.61209e-05
3.87681e-05
4.19259e-05
4.56369e-05
4.98294e-05
5.43436e-05
5.89893e-05
6.36002e-05
6.80595e-05
7.22973e-05
7.62715e-05
7.99518e-05
8.33117e-05
8.63308e-05
8.90015e-05
9.13357e-05
9.33659e-05
9.51414e-05
9.67199e-05
9.81581e-05
9.95036e-05
0.00010079
0.000102034
0.000103243
0.000104415
0.000105546
0.000106636
0.00010769
0.000108715
0.000109723
0.000110724
0.000111725
0.00011273
0.000113735
0.000114735
0.000115725
0.000116702
0.00011766
0.000118597
0.000119513
0.000120405
0.000121272
0.000122112
0.000122921
0.000123694
0.000124422
0.000125093
0.000125685
0.000126169
0.00012648
0.000126601
0.000126542
2.56354e-05
2.74841e-05
2.90312e-05
3.04558e-05
3.18871e-05
3.34403e-05
3.52272e-05
3.73332e-05
3.98097e-05
4.26653e-05
4.58682e-05
4.93569e-05
5.30547e-05
5.68783e-05
6.07429e-05
6.45637e-05
6.82599e-05
7.17603e-05
7.50116e-05
7.79839e-05
8.06733e-05
8.30989e-05
8.52964e-05
8.73089e-05
8.91789e-05
9.09411e-05
9.26195e-05
9.42276e-05
9.57705e-05
9.72499e-05
9.86673e-05
0.000100027
0.000101336
0.000102605
0.000103843
0.000105059
0.000106258
0.000107442
0.000108607
0.000109751
0.00011087
0.000111962
0.000113027
0.000114061
0.000115066
0.000116038
0.000116977
0.000117878
0.000118737
0.000119546
0.000120292
0.000120955
0.000121506
0.000121887
0.000122079
0.0001221
2.49373e-05
2.62819e-05
2.74361e-05
2.84814e-05
2.94828e-05
3.05006e-05
3.15929e-05
3.28152e-05
3.42181e-05
3.5845e-05
3.77292e-05
3.98933e-05
4.23464e-05
4.5081e-05
4.80697e-05
5.12615e-05
5.45846e-05
5.79539e-05
6.12834e-05
6.45e-05
6.75525e-05
7.04153e-05
7.30863e-05
7.55798e-05
7.79194e-05
8.01298e-05
8.22318e-05
8.42399e-05
8.61623e-05
8.80029e-05
8.97646e-05
9.1451e-05
9.30679e-05
9.46233e-05
9.61263e-05
9.75852e-05
9.90069e-05
0.000100395
0.000101752
0.000103075
0.000104361
0.00010561
0.000106821
0.000107994
0.000109129
0.000110224
0.000111277
0.000112286
0.000113245
0.000114147
0.000114981
0.000115727
0.000116356
0.000116816
0.000117089
0.000117196
2.45399e-05
2.55811e-05
2.65097e-05
2.73539e-05
2.81461e-05
2.89166e-05
2.96943e-05
3.0508e-05
3.1387e-05
3.2361e-05
3.34605e-05
3.47174e-05
3.61638e-05
3.78302e-05
3.97398e-05
4.19028e-05
4.43094e-05
4.69267e-05
4.97015e-05
5.25683e-05
5.5461e-05
5.83236e-05
6.11164e-05
6.38172e-05
6.64183e-05
6.89215e-05
7.13323e-05
7.3656e-05
7.58959e-05
7.80533e-05
8.01283e-05
8.2122e-05
8.40368e-05
8.58776e-05
8.76507e-05
8.93628e-05
9.10203e-05
9.26283e-05
9.41901e-05
9.57075e-05
9.7178e-05
9.86005e-05
9.99755e-05
0.000101303
0.000102583
0.000103815
0.000104998
0.000106128
0.000107201
0.000108211
0.000109144
0.000109984
0.000110703
0.000111253
0.000111616
0.000111817
2.43211e-05
2.51808e-05
2.59795e-05
2.67165e-05
2.7407e-05
2.80658e-05
2.87074e-05
2.93469e-05
2.99999e-05
3.06828e-05
3.14137e-05
3.22127e-05
3.3103e-05
3.41105e-05
3.52628e-05
3.65862e-05
3.81017e-05
3.98202e-05
4.17388e-05
4.38397e-05
4.60921e-05
4.84577e-05
5.08972e-05
5.33757e-05
5.58656e-05
5.83467e-05
6.08051e-05
6.323e-05
6.56126e-05
6.79446e-05
7.02185e-05
7.24282e-05
7.45697e-05
7.66416e-05
7.86449e-05
8.05823e-05
8.24573e-05
8.42733e-05
8.60334e-05
8.774e-05
8.93946e-05
9.09945e-05
9.25386e-05
9.40273e-05
9.54609e-05
9.68388e-05
9.81597e-05
9.94208e-05
0.000100618
0.000101744
0.000102788
0.000103732
0.000104551
0.000105201
0.000105664
0.000105968
2.42075e-05
2.49606e-05
2.56856e-05
2.63666e-05
2.70093e-05
2.76197e-05
2.82056e-05
2.87751e-05
2.9337e-05
2.99006e-05
3.04762e-05
3.10756e-05
3.17121e-05
3.24013e-05
3.31611e-05
3.40105e-05
3.4969e-05
3.60546e-05
3.72812e-05
3.86572e-05
4.01835e-05
4.18543e-05
4.36575e-05
4.55773e-05
4.75962e-05
4.96964e-05
5.18606e-05
5.40722e-05
5.63144e-05
5.85709e-05
6.08257e-05
6.30641e-05
6.52732e-05
6.74433e-05
6.95671e-05
7.16403e-05
7.36606e-05
7.56269e-05
7.75392e-05
7.93979e-05
8.12036e-05
8.29567e-05
8.46532e-05
8.62907e-05
8.78689e-05
8.93869e-05
9.08431e-05
9.22344e-05
9.35562e-05
9.48016e-05
9.59598e-05
9.70134e-05
9.79385e-05
9.86948e-05
9.92662e-05
9.96799e-05
2.41584e-05
2.48535e-05
2.55401e-05
2.61953e-05
2.6819e-05
2.74128e-05
2.79804e-05
2.85266e-05
2.90566e-05
2.95763e-05
3.00919e-05
3.06106e-05
3.11406e-05
3.16912e-05
3.22726e-05
3.28965e-05
3.35751e-05
3.43208e-05
3.51457e-05
3.60605e-05
3.70741e-05
3.81931e-05
3.94214e-05
4.07607e-05
4.22105e-05
4.37681e-05
4.54289e-05
4.71859e-05
4.90295e-05
5.09475e-05
5.29255e-05
5.49476e-05
5.69976e-05
5.906e-05
6.11212e-05
6.31697e-05
6.51963e-05
6.71937e-05
6.91566e-05
7.10809e-05
7.29637e-05
7.4803e-05
7.65974e-05
7.83396e-05
8.0026e-05
8.16541e-05
8.32211e-05
8.47231e-05
8.61545e-05
8.75078e-05
8.87718e-05
8.99296e-05
9.09582e-05
9.18213e-05
9.25029e-05
9.30294e-05
2.41503e-05
2.48208e-05
2.54932e-05
2.6142e-05
2.67644e-05
2.73591e-05
2.79277e-05
2.8473e-05
2.89985e-05
2.95081e-05
3.00059e-05
3.04969e-05
3.09863e-05
3.14801e-05
3.19847e-05
3.25073e-05
3.30552e-05
3.36361e-05
3.42577e-05
3.49275e-05
3.56527e-05
3.64401e-05
3.72962e-05
3.8227e-05
3.92383e-05
4.03351e-05
4.15217e-05
4.2801e-05
4.4174e-05
4.56387e-05
4.71905e-05
4.88217e-05
5.05222e-05
5.22801e-05
5.40827e-05
5.59173e-05
5.77721e-05
5.96361e-05
6.14999e-05
6.33551e-05
6.51946e-05
6.70127e-05
6.88047e-05
7.05667e-05
7.22875e-05
7.39621e-05
7.55853e-05
7.71511e-05
7.86524e-05
8.00803e-05
8.14227e-05
8.26627e-05
8.37779e-05
8.47351e-05
8.55185e-05
8.61522e-05
2.4168e-05
2.48378e-05
2.55138e-05
2.61704e-05
2.68034e-05
2.74101e-05
2.79908e-05
2.85474e-05
2.90823e-05
2.95981e-05
3.00981e-05
3.05857e-05
3.10647e-05
3.15391e-05
3.20135e-05
3.24924e-05
3.29806e-05
3.3483e-05
3.40045e-05
3.45499e-05
3.5124e-05
3.57316e-05
3.63778e-05
3.70677e-05
3.78069e-05
3.8601e-05
3.94559e-05
4.03774e-05
4.13705e-05
4.24391e-05
4.35854e-05
4.48097e-05
4.61098e-05
4.74817e-05
4.89194e-05
5.04155e-05
5.19617e-05
5.35493e-05
5.51693e-05
5.68132e-05
5.84727e-05
6.01399e-05
6.18077e-05
6.34704e-05
6.51202e-05
6.67456e-05
6.83389e-05
6.98918e-05
7.13952e-05
7.28382e-05
7.42075e-05
7.54856e-05
7.66504e-05
7.76712e-05
7.85322e-05
7.92539e-05
2.42012e-05
2.48867e-05
2.55797e-05
2.62552e-05
2.6908e-05
2.75347e-05
2.8135e-05
2.87103e-05
2.92625e-05
2.97935e-05
3.03059e-05
3.08024e-05
3.12856e-05
3.17588e-05
3.22251e-05
3.26879e-05
3.31503e-05
3.36159e-05
3.40878e-05
3.45694e-05
3.50639e-05
3.55746e-05
3.6105e-05
3.66589e-05
3.72404e-05
3.78539e-05
3.85042e-05
3.91964e-05
3.99354e-05
4.07259e-05
4.1572e-05
4.2477e-05
4.34427e-05
4.44702e-05
4.55588e-05
4.67068e-05
4.79113e-05
4.91683e-05
5.04733e-05
5.18209e-05
5.32052e-05
5.46202e-05
5.60593e-05
5.75164e-05
5.89864e-05
6.04579e-05
6.19219e-05
6.33686e-05
6.47872e-05
6.61657e-05
6.74898e-05
6.87413e-05
6.98988e-05
7.09337e-05
7.18301e-05
7.26039e-05
2.42425e-05
2.49543e-05
2.56739e-05
2.63764e-05
2.70562e-05
2.77094e-05
2.83352e-05
2.89347e-05
2.95094e-05
3.00611e-05
3.05919e-05
3.11038e-05
3.15993e-05
3.20807e-05
3.25504e-05
3.30109e-05
3.34649e-05
3.39146e-05
3.43625e-05
3.4811e-05
3.52625e-05
3.57194e-05
3.61842e-05
3.66596e-05
3.71488e-05
3.76549e-05
3.81815e-05
3.87324e-05
3.93114e-05
3.99223e-05
4.0569e-05
4.12547e-05
4.19823e-05
4.27542e-05
4.3572e-05
4.44368e-05
4.53489e-05
4.63078e-05
4.73127e-05
4.83618e-05
4.94528e-05
5.05826e-05
5.17476e-05
5.29436e-05
5.41669e-05
5.54111e-05
5.66679e-05
5.79283e-05
5.91822e-05
6.04177e-05
6.16209e-05
6.27744e-05
6.38579e-05
6.48454e-05
6.57215e-05
6.64979e-05
2.42869e-05
2.50304e-05
2.57823e-05
2.65175e-05
2.72298e-05
2.79144e-05
2.85703e-05
2.91983e-05
2.97997e-05
3.0376e-05
3.09291e-05
3.14608e-05
3.19732e-05
3.24681e-05
3.29476e-05
3.34138e-05
3.38685e-05
3.43137e-05
3.47514e-05
3.51833e-05
3.56114e-05
3.60375e-05
3.64637e-05
3.68921e-05
3.73249e-05
3.77647e-05
3.82142e-05
3.8676e-05
3.91532e-05
3.96487e-05
4.01653e-05
4.07058e-05
4.12727e-05
4.18685e-05
4.24951e-05
4.31542e-05
4.38474e-05
4.45757e-05
4.534e-05
4.61404e-05
4.6977e-05
4.7849e-05
4.87554e-05
4.96943e-05
5.06636e-05
5.16607e-05
5.26803e-05
5.37158e-05
5.47592e-05
5.58009e-05
5.68287e-05
5.78276e-05
5.878e-05
5.96634e-05
6.04639e-05
6.11903e-05
2.4331e-05
2.51076e-05
2.58937e-05
2.66645e-05
2.74123e-05
2.81318e-05
2.88214e-05
2.94812e-05
3.01124e-05
3.07164e-05
3.12949e-05
3.18494e-05
3.23819e-05
3.28939e-05
3.33872e-05
3.38635e-05
3.43246e-05
3.4772e-05
3.52073e-05
3.56321e-05
3.6048e-05
3.64565e-05
3.68594e-05
3.72584e-05
3.76553e-05
3.80523e-05
3.84513e-05
3.88545e-05
3.92643e-05
3.96829e-05
4.01124e-05
4.05551e-05
4.10131e-05
4.14883e-05
4.19825e-05
4.24974e-05
4.30347e-05
4.35958e-05
4.41818e-05
4.4794e-05
4.54331e-05
4.60997e-05
4.67939e-05
4.75153e-05
4.82632e-05
4.90369e-05
4.98337e-05
5.06496e-05
5.14792e-05
5.23152e-05
5.31487e-05
5.39677e-05
5.47579e-05
5.55014e-05
5.6187e-05
5.68224e-05
2.4372e-05
2.518e-05
2.59995e-05
2.68055e-05
2.75894e-05
2.83451e-05
2.90702e-05
2.97641e-05
3.04274e-05
3.10615e-05
3.16676e-05
3.22473e-05
3.28022e-05
3.33338e-05
3.38437e-05
3.43334e-05
3.48045e-05
3.52582e-05
3.56962e-05
3.61197e-05
3.65302e-05
3.69291e-05
3.73179e-05
3.76982e-05
3.80715e-05
3.84395e-05
3.88041e-05
3.9167e-05
3.95301e-05
3.98952e-05
4.0264e-05
4.06384e-05
4.102e-05
4.14105e-05
4.18115e-05
4.22243e-05
4.26506e-05
4.30915e-05
4.35485e-05
4.40226e-05
4.45151e-05
4.50267e-05
4.55582e-05
4.61097e-05
4.66812e-05
4.72729e-05
4.78835e-05
4.85108e-05
4.91513e-05
4.98001e-05
5.04507e-05
5.10942e-05
5.172e-05
5.23143e-05
5.2869e-05
5.33924e-05
2.4408e-05
2.52436e-05
2.6093e-05
2.69313e-05
2.77494e-05
2.85401e-05
2.93004e-05
3.00288e-05
3.07253e-05
3.13906e-05
3.20258e-05
3.26323e-05
3.32114e-05
3.37644e-05
3.4293e-05
3.47983e-05
3.52819e-05
3.5745e-05
3.6189e-05
3.66152e-05
3.70248e-05
3.74194e-05
3.78001e-05
3.81685e-05
3.8526e-05
3.88742e-05
3.92145e-05
3.95486e-05
3.9878e-05
4.02044e-05
4.05292e-05
4.0854e-05
4.11802e-05
4.15092e-05
4.18423e-05
4.21809e-05
4.25262e-05
4.28794e-05
4.32418e-05
4.36144e-05
4.39983e-05
4.43945e-05
4.48036e-05
4.52262e-05
4.56624e-05
4.61127e-05
4.65765e-05
4.70524e-05
4.75383e-05
4.80309e-05
4.85254e-05
4.90155e-05
4.94932e-05
4.99486e-05
5.03762e-05
5.07856e-05
2.44378e-05
2.52955e-05
2.61691e-05
2.70346e-05
2.78824e-05
2.87047e-05
2.94975e-05
3.02587e-05
3.09875e-05
3.16838e-05
3.23484e-05
3.29822e-05
3.35863e-05
3.4162e-05
3.47104e-05
3.5233e-05
3.57309e-05
3.62055e-05
3.6658e-05
3.70897e-05
3.75019e-05
3.78958e-05
3.82727e-05
3.86341e-05
3.89813e-05
3.93157e-05
3.96387e-05
3.99518e-05
4.02565e-05
4.05541e-05
4.08461e-05
4.11337e-05
4.14183e-05
4.17012e-05
4.19835e-05
4.22664e-05
4.25511e-05
4.28387e-05
4.31302e-05
4.34266e-05
4.3729e-05
4.40382e-05
4.43549e-05
4.46797e-05
4.50128e-05
4.53545e-05
4.57046e-05
4.60623e-05
4.64262e-05
4.67937e-05
4.71617e-05
4.75251e-05
4.78784e-05
4.8214e-05
4.8529e-05
4.88341e-05
2.44606e-05
2.53336e-05
2.62246e-05
2.71103e-05
2.79812e-05
2.88292e-05
2.96495e-05
3.04395e-05
3.11974e-05
3.19225e-05
3.2615e-05
3.32753e-05
3.39041e-05
3.45024e-05
3.50713e-05
3.56118e-05
3.61252e-05
3.66128e-05
3.70756e-05
3.75149e-05
3.79319e-05
3.8328e-05
3.87044e-05
3.90624e-05
3.94033e-05
3.97285e-05
4.00394e-05
4.03374e-05
4.06238e-05
4.08999e-05
4.1167e-05
4.14264e-05
4.16793e-05
4.19269e-05
4.21703e-05
4.24106e-05
4.26488e-05
4.28861e-05
4.31233e-05
4.33615e-05
4.36014e-05
4.3844e-05
4.40898e-05
4.43394e-05
4.4593e-05
4.48509e-05
4.51129e-05
4.53786e-05
4.56469e-05
4.59159e-05
4.61831e-05
4.64447e-05
4.66965e-05
4.69332e-05
4.71531e-05
4.73682e-05
2.44758e-05
2.53565e-05
2.62567e-05
2.71545e-05
2.80403e-05
2.89062e-05
2.97469e-05
3.05593e-05
3.13409e-05
3.20904e-05
3.28072e-05
3.34912e-05
3.41427e-05
3.47623e-05
3.53508e-05
3.59091e-05
3.64382e-05
3.69392e-05
3.74133e-05
3.78616e-05
3.82853e-05
3.86857e-05
3.9064e-05
3.94214e-05
3.97594e-05
4.00791e-05
4.0382e-05
4.06694e-05
4.09426e-05
4.12027e-05
4.14512e-05
4.16892e-05
4.19179e-05
4.21384e-05
4.23518e-05
4.25592e-05
4.27615e-05
4.29598e-05
4.31549e-05
4.33477e-05
4.35392e-05
4.37299e-05
4.39206e-05
4.41115e-05
4.43031e-05
4.44955e-05
4.46888e-05
4.48824e-05
4.50755e-05
4.52668e-05
4.5454e-05
4.56343e-05
4.58045e-05
4.59605e-05
4.6102e-05
4.62418e-05
2.44828e-05
2.53631e-05
2.62637e-05
2.71644e-05
2.80558e-05
2.89303e-05
2.97825e-05
3.06087e-05
3.14064e-05
3.21736e-05
3.29089e-05
3.36118e-05
3.42821e-05
3.49199e-05
3.55256e-05
3.61e-05
3.66437e-05
3.71578e-05
3.76431e-05
3.81009e-05
3.85323e-05
3.89383e-05
3.93203e-05
3.96795e-05
4.0017e-05
4.03343e-05
4.06326e-05
4.09132e-05
4.11774e-05
4.14263e-05
4.16613e-05
4.18835e-05
4.20941e-05
4.22941e-05
4.24847e-05
4.26667e-05
4.28414e-05
4.30094e-05
4.31718e-05
4.33295e-05
4.3483e-05
4.36333e-05
4.37806e-05
4.39255e-05
4.40684e-05
4.42094e-05
4.43485e-05
4.44853e-05
4.46191e-05
4.47487e-05
4.48723e-05
4.49878e-05
4.50924e-05
4.51831e-05
4.52605e-05
4.5338e-05
2.44811e-05
2.53523e-05
2.62442e-05
2.7138e-05
2.80249e-05
2.88976e-05
2.97509e-05
3.05811e-05
3.13853e-05
3.21613e-05
3.29072e-05
3.3622e-05
3.43049e-05
3.49557e-05
3.55745e-05
3.61615e-05
3.67172e-05
3.72425e-05
3.7738e-05
3.82047e-05
3.86437e-05
3.9056e-05
3.94427e-05
3.9805e-05
4.01442e-05
4.04614e-05
4.07579e-05
4.10349e-05
4.12937e-05
4.15354e-05
4.17613e-05
4.19725e-05
4.21702e-05
4.23554e-05
4.25291e-05
4.26924e-05
4.28462e-05
4.29914e-05
4.31289e-05
4.32594e-05
4.33838e-05
4.35025e-05
4.36161e-05
4.37252e-05
4.38299e-05
4.39306e-05
4.4027e-05
4.4119e-05
4.42059e-05
4.42867e-05
4.43599e-05
4.44235e-05
4.44756e-05
4.45137e-05
4.45392e-05
4.45658e-05
2.44707e-05
2.53239e-05
2.61974e-05
2.7074e-05
2.79457e-05
2.88056e-05
2.96488e-05
3.04717e-05
3.12713e-05
3.20455e-05
3.27921e-05
3.35097e-05
3.41972e-05
3.48538e-05
3.54794e-05
3.60738e-05
3.66372e-05
3.71701e-05
3.76731e-05
3.81468e-05
3.85922e-05
3.90102e-05
3.94017e-05
3.97679e-05
4.01098e-05
4.04286e-05
4.07254e-05
4.10015e-05
4.12579e-05
4.14958e-05
4.17165e-05
4.1921e-05
4.21103e-05
4.22856e-05
4.24478e-05
4.2598e-05
4.2737e-05
4.28657e-05
4.29849e-05
4.30955e-05
4.31979e-05
4.3293e-05
4.33811e-05
4.34627e-05
4.35383e-05
4.36078e-05
4.36713e-05
4.37284e-05
4.37787e-05
4.38213e-05
4.38548e-05
4.38775e-05
4.38879e-05
4.38842e-05
4.3868e-05
4.38535e-05
2.44512e-05
2.52774e-05
2.61226e-05
2.69717e-05
2.7817e-05
2.86526e-05
2.94738e-05
3.02773e-05
3.10604e-05
3.1821e-05
3.25569e-05
3.32666e-05
3.39486e-05
3.4602e-05
3.52263e-05
3.58209e-05
3.63858e-05
3.69212e-05
3.74273e-05
3.79047e-05
3.83539e-05
3.87757e-05
3.9171e-05
3.95406e-05
3.98854e-05
4.02066e-05
4.05051e-05
4.0782e-05
4.10384e-05
4.12754e-05
4.1494e-05
4.16954e-05
4.18804e-05
4.20502e-05
4.22057e-05
4.23478e-05
4.24774e-05
4.25953e-05
4.27024e-05
4.27991e-05
4.28864e-05
4.29646e-05
4.30345e-05
4.30963e-05
4.31504e-05
4.3197e-05
4.32359e-05
4.32669e-05
4.32895e-05
4.3303e-05
4.33061e-05
4.32974e-05
4.32757e-05
4.32395e-05
4.31909e-05
4.31442e-05
2.44226e-05
2.52124e-05
2.60195e-05
2.68302e-05
2.7638e-05
2.84375e-05
2.92246e-05
2.99964e-05
3.07504e-05
3.14847e-05
3.21977e-05
3.28875e-05
3.35528e-05
3.41924e-05
3.48056e-05
3.53916e-05
3.59502e-05
3.64812e-05
3.69845e-05
3.74605e-05
3.79095e-05
3.83319e-05
3.87285e-05
3.90998e-05
3.94467e-05
3.977e-05
4.00705e-05
4.03493e-05
4.06073e-05
4.08453e-05
4.10644e-05
4.12656e-05
4.14498e-05
4.16179e-05
4.17708e-05
4.19093e-05
4.20344e-05
4.21467e-05
4.22469e-05
4.23357e-05
4.24138e-05
4.24817e-05
4.25399e-05
4.25888e-05
4.26287e-05
4.26596e-05
4.26816e-05
4.26944e-05
4.26975e-05
4.26901e-05
4.26713e-05
4.26399e-05
4.25947e-05
4.25347e-05
4.24623e-05
4.23915e-05
2.43848e-05
2.51288e-05
2.58876e-05
2.66494e-05
2.74083e-05
2.816e-05
2.89008e-05
2.96283e-05
3.03407e-05
3.10361e-05
3.17133e-05
3.23708e-05
3.30073e-05
3.36217e-05
3.42129e-05
3.47803e-05
3.53233e-05
3.58415e-05
3.63347e-05
3.68028e-05
3.7246e-05
3.76644e-05
3.80585e-05
3.84286e-05
3.87753e-05
3.90993e-05
3.94012e-05
3.96817e-05
3.99417e-05
4.01819e-05
4.04032e-05
4.06064e-05
4.07924e-05
4.09619e-05
4.11157e-05
4.12547e-05
4.13794e-05
4.14906e-05
4.1589e-05
4.16751e-05
4.17497e-05
4.18132e-05
4.18659e-05
4.19083e-05
4.19406e-05
4.19629e-05
4.19751e-05
4.1977e-05
4.19682e-05
4.19478e-05
4.19152e-05
4.18691e-05
4.18088e-05
4.17334e-05
4.16454e-05
4.15586e-05
2.43376e-05
2.50262e-05
2.57266e-05
2.64286e-05
2.71277e-05
2.78199e-05
2.85026e-05
2.91738e-05
2.98322e-05
3.04764e-05
3.11054e-05
3.17182e-05
3.23139e-05
3.28912e-05
3.34492e-05
3.39873e-05
3.45047e-05
3.50009e-05
3.54754e-05
3.5928e-05
3.63585e-05
3.6767e-05
3.71534e-05
3.7518e-05
3.78611e-05
3.81831e-05
3.84844e-05
3.87655e-05
3.9027e-05
3.92695e-05
3.94936e-05
3.97001e-05
3.98896e-05
4.00628e-05
4.02203e-05
4.03627e-05
4.04907e-05
4.06049e-05
4.07059e-05
4.07942e-05
4.08703e-05
4.09347e-05
4.09877e-05
4.10297e-05
4.10607e-05
4.10809e-05
4.10901e-05
4.10882e-05
4.10748e-05
4.10491e-05
4.10103e-05
4.09576e-05
4.08903e-05
4.08078e-05
4.07126e-05
4.0618e-05
2.42806e-05
2.49041e-05
2.55359e-05
2.61679e-05
2.67962e-05
2.74181e-05
2.80314e-05
2.86351e-05
2.9228e-05
2.98095e-05
3.03789e-05
3.09356e-05
3.14788e-05
3.20078e-05
3.25217e-05
3.30199e-05
3.35015e-05
3.3966e-05
3.44128e-05
3.48416e-05
3.52518e-05
3.56434e-05
3.60161e-05
3.63699e-05
3.67047e-05
3.70208e-05
3.73184e-05
3.75976e-05
3.78589e-05
3.81026e-05
3.83293e-05
3.85392e-05
3.8733e-05
3.89112e-05
3.90742e-05
3.92225e-05
3.93567e-05
3.94772e-05
3.95846e-05
3.96791e-05
3.97614e-05
3.98316e-05
3.98901e-05
3.99371e-05
3.99728e-05
3.99971e-05
4.00099e-05
4.00111e-05
4.00001e-05
3.99765e-05
3.99394e-05
3.9888e-05
3.9822e-05
3.97408e-05
3.96471e-05
3.95532e-05
2.42139e-05
2.47624e-05
2.53156e-05
2.58674e-05
2.64149e-05
2.69563e-05
2.74904e-05
2.80165e-05
2.85341e-05
2.90429e-05
2.95428e-05
3.00334e-05
3.05144e-05
3.09851e-05
3.1445e-05
3.18935e-05
3.23298e-05
3.27535e-05
3.31639e-05
3.35603e-05
3.39425e-05
3.43098e-05
3.4662e-05
3.49988e-05
3.532e-05
3.56255e-05
3.59152e-05
3.61891e-05
3.64475e-05
3.66903e-05
3.69179e-05
3.71305e-05
3.73284e-05
3.7512e-05
3.76814e-05
3.78371e-05
3.79795e-05
3.81088e-05
3.82255e-05
3.83298e-05
3.8422e-05
3.85024e-05
3.85711e-05
3.86283e-05
3.86742e-05
3.87085e-05
3.87312e-05
3.87421e-05
3.87407e-05
3.87264e-05
3.86987e-05
3.86569e-05
3.86006e-05
3.85296e-05
3.84464e-05
3.83621e-05
2.41371e-05
2.46009e-05
2.50662e-05
2.55286e-05
2.59865e-05
2.64391e-05
2.68858e-05
2.73264e-05
2.7761e-05
2.81896e-05
2.86125e-05
2.90295e-05
2.94404e-05
2.98451e-05
3.02431e-05
3.0634e-05
3.10172e-05
3.13921e-05
3.17581e-05
3.21147e-05
3.24614e-05
3.27974e-05
3.31225e-05
3.3436e-05
3.37378e-05
3.40273e-05
3.43044e-05
3.4569e-05
3.48208e-05
3.50598e-05
3.5286e-05
3.54995e-05
3.57003e-05
3.58887e-05
3.60647e-05
3.62284e-05
3.63801e-05
3.652e-05
3.66482e-05
3.6765e-05
3.68704e-05
3.69646e-05
3.70478e-05
3.712e-05
3.71811e-05
3.7231e-05
3.72697e-05
3.72967e-05
3.73118e-05
3.73144e-05
3.73039e-05
3.72799e-05
3.72421e-05
3.71904e-05
3.71273e-05
3.70623e-05
2.40505e-05
2.44204e-05
2.47896e-05
2.51554e-05
2.55174e-05
2.58753e-05
2.62293e-05
2.65796e-05
2.69267e-05
2.72708e-05
2.76122e-05
2.79512e-05
2.82876e-05
2.86215e-05
2.89527e-05
2.92807e-05
2.96051e-05
2.99256e-05
3.02415e-05
3.05523e-05
3.08574e-05
3.11562e-05
3.14483e-05
3.17329e-05
3.20098e-05
3.22783e-05
3.25382e-05
3.27889e-05
3.30304e-05
3.32622e-05
3.34842e-05
3.36962e-05
3.38982e-05
3.40901e-05
3.4272e-05
3.44437e-05
3.46053e-05
3.47567e-05
3.48981e-05
3.50294e-05
3.51508e-05
3.52621e-05
3.53635e-05
3.54548e-05
3.5536e-05
3.56069e-05
3.56673e-05
3.57168e-05
3.57553e-05
3.57821e-05
3.57968e-05
3.57991e-05
3.57889e-05
3.57661e-05
3.57331e-05
3.56976e-05
2.39555e-05