/*--------------------------------*- C++ -*----------------------------------*\
  =========                 |
  \\      /  F ield         | OpenFOAM: The Open Source CFD Toolbox
   \\    /   O peration     | Website:  https://openfoam.org
    \\  /    A nd           | Version:  6
     \\/     M anipulation  |
\*---------------------------------------------------------------------------*/
FoamFile
{
    version     2.0;
    format      ascii;
    class       volVectorField;
    location    "0";
    object      U;
}
// * * * * * * * * * * * * * * * * * * * * * * * * * * * * * * * * * * * * * //

dimensions      [0 1 -1 0 0 0 0];

internalField   nonuniform List<vector> 
7125
(
(-0.000119422680118208 0.000119127350563395 0)
(-0.000223328715458766 7.29011059128696e-05 0)
(-6.85736944687725e-05 6.49036139575792e-07 0)
(0.000310168958372645 -5.22774123147577e-05 0)
(0.000814731341998365 -7.12174632969106e-05 0)
(0.00135845539549471 -7.42704502481915e-05 0)
(0.00190914546065176 -7.08625232271333e-05 0)
(0.00244812246412584 -6.71672591548367e-05 0)
(0.00297288154653985 -6.3963135812008e-05 0)
(0.00348005943205553 -6.13736784172958e-05 0)
(0.0039686386557339 -5.89032842160236e-05 0)
(0.00443632182343559 -5.63706021406752e-05 0)
(0.00488127646249919 -5.36124211353845e-05 0)
(0.00530132349380151 -5.05980524665463e-05 0)
(0.00569451026017345 -4.73059993518342e-05 0)
(0.00605889168964642 -4.37485925781147e-05 0)
(0.0063926986608788 -3.99388775488999e-05 0)
(0.00669428006795391 -3.58988884618774e-05 0)
(0.00696215482240593 -3.1651196628676e-05 0)
(0.00719499980136587 -2.72213987849074e-05 0)
(0.00739166805005601 -2.26357771484961e-05 0)
(0.00755118850016075 -1.79218580548243e-05 0)
(0.00767277331126331 -1.31076427723896e-05 0)
(0.00775581951279634 -8.2216082715483e-06 0)
(0.00779991201040731 -3.29236490214789e-06 0)
(0.0078048245066316 1.65147448664491e-06 0)
(0.00777052008972291 6.58151417715608e-06 0)
(0.00769715087998962 1.14697104692205e-05 0)
(0.00758505669238299 1.62885726271196e-05 0)
(0.00743476355833736 2.10112371278089e-05 0)
(0.00724698014575787 2.56117643850784e-05 0)
(0.00702259602739213 3.00650132927672e-05 0)
(0.00676267398306154 3.43473789047967e-05 0)
(0.00646845109007102 3.84359922892543e-05 0)
(0.00614132002897376 4.23111555258491e-05 0)
(0.00578284375884685 4.59533148853147e-05 0)
(0.00539470137568837 4.9352046042409e-05 0)
(0.00497875328694048 5.24963240498111e-05 0)
(0.00453686358921762 5.54096518063971e-05 0)
(0.00407114012801843 5.81214080165668e-05 0)
(0.00358332217443748 6.07991083189929e-05 0)
(0.0030756528249923 6.36267760537651e-05 0)
(0.00254895108059792 6.71456233190393e-05 0)
(0.00200640053592183 7.13072884993979e-05 0)
(0.00144958405983072 7.55705617040887e-05 0)
(0.000896352659112398 7.39233551366684e-05 0)
(0.00037615636055566 5.71259348730833e-05 0)
(-2.35312797463393e-05 5.91684150010486e-06 0)
(-0.00020537995483223 -6.63549053185482e-05 0)
(-0.000118560411564417 -0.000118033786231874 0)
(-7.49949464229832e-05 0.000223546119622847 0)
(0.000122715022466933 -0.000128742541271109 0)
(0.000877238962048503 -0.00055089439286015 0)
(0.00203586412500066 -0.000859568621453385 0)
(0.00344890956792779 -0.00100519219819257 0)
(0.0049551298898532 -0.00105289398147131 0)
(0.00648687974986463 -0.00105029478804155 0)
(0.00799873599526919 -0.00102881911326147 0)
(0.00947660282130201 -0.00099900022798787 0)
(0.0109083268485561 -0.000964765539287657 0)
(0.0122877689999574 -0.000926431533104754 0)
(0.0136078496725393 -0.000884119801404038 0)
(0.0148628130179019 -0.000837745236509095 0)
(0.0160466595894006 -0.000787436116205607 0)
(0.0171539605066066 -0.000733346718674267 0)
(0.018179472587095 -0.000675715296564014 0)
(0.0191183983396857 -0.000614800409616489 0)
(0.0199662959010136 -0.000550893865009364 0)
(0.0207191664607085 -0.000484302125622296 0)
(0.0213734410077558 -0.000415348590235157 0)
(0.0219260145035062 -0.000344367220674479 0)
(0.022374250454371 -0.00027170179671706 0)
(0.0227159967678232 -0.000197702908835207 0)
(0.0229495920704265 -0.000122726503754167 0)
(0.0230738734953223 -4.71319083159143e-05 0)
(0.0230881806144202 2.87196802256247e-05 0)
(0.0229923582312852 0.000104466805303078 0)
(0.0227867571041214 0.000179749167189095 0)
(0.0224722325170432 0.000254209141787961 0)
(0.022050141998912 0.000327493067933998 0)
(0.0215223390912251 0.000399252981279973 0)
(0.0208911693264339 0.000469147623391018 0)
(0.0201594560663352 0.0005368451825625 0)
(0.0193304995032063 0.000602023314923845 0)
(0.0184080435465627 0.000664375539870995 0)
(0.0173962953788333 0.000723607661881987 0)
(0.0162998355677365 0.000779457510443231 0)
(0.0151237216404874 0.000831679110938432 0)
(0.0138732120067835 0.000880111688449664 0)
(0.0125541859341657 0.000924616015280154 0)
(0.011172258945774 0.000965289185862282 0)
(0.00973444536576616 0.00100205004440071 0)
(0.0082465828950577 0.00103478864125176 0)
(0.0067205524744515 0.00105998578728801 0)
(0.00516900147315491 0.00106801736732924 0)
(0.00363615908441475 0.00102817677196734 0)
(0.00218561566546599 0.000892941069715233 0)
(0.000980550722217779 0.000592706901223131 0)
(0.000169441007223568 0.000169927092463023 0)
(-6.8005635233902e-05 -0.000206156244797769 0)
(-7.04728463410166e-06 7.6664783787838e-05 0)
(0.0005308703767365 -0.000878648600667824 0)
(0.00185752914092988 -0.00188215749624242 0)
(0.00366701107331186 -0.00259168342085662 0)
(0.00579034640459601 -0.00294344914067534 0)
(0.0080220543016206 -0.00306537543755241 0)
(0.0102816606424029 -0.00306404238018845 0)
(0.0125105013758843 -0.00300800282685333 0)
(0.0146889693663472 -0.0029249922148863 0)
(0.0167997045870119 -0.00282584946019636 0)
(0.0188331403698277 -0.00271332101143658 0)
(0.0207788691594616 -0.00258845405738311 0)
(0.0226282986433847 -0.00245165213967933 0)
(0.0243727058941356 -0.00230345477650999 0)
(0.026004170583317 -0.00214444591267418 0)
(0.0275151047388318 -0.00197532988864823 0)
(0.0288985524551016 -0.00179686869876951 0)
(0.0301480838292801 -0.00160988937881868 0)
(0.0312578985648267 -0.00141526129005215 0)
(0.0322228133130681 -0.00121389374004525 0)
(0.0330383044755601 -0.00100672609577504 0)
(0.0337005167577447 -0.000794723570759455 0)
(0.0342062846707844 -0.000578871262360958 0)
(0.0345531428413283 -0.000360169862940322 0)
(0.0347393377917397 -0.000139631090380824 0)
(0.034763835035118 8.1726312487986e-05 0)
(0.0346263245897824 0.000302880564879386 0)
(0.0343272238311061 0.000522810595253596 0)
(0.0338676775513456 0.000740499863740141 0)
(0.0332495567204768 0.000954939998230787 0)
(0.0324754523066945 0.00116513493002728 0)
(0.0315486713217456 0.00137010449592196 0)
(0.030473220667171 0.00156888989970442 0)
(0.0292538060462449 0.00176055693615785 0)
(0.0278957930762315 0.00194420575996927 0)
(0.0264052302368571 0.00211897177757052 0)
(0.0247887439455325 0.00228404976400253 0)
(0.0230536634606397 0.00243868379571215 0)
(0.0212077019753852 0.00258223756258177 0)
(0.0192594729295911 0.00271411712644266 0)
(0.017217469909041 0.00283390758623299 0)
(0.0150921359472315 0.0029406383919251 0)
(0.0128928260247158 0.0030319633207146 0)
(0.0106367821196432 0.00309793292967858 0)
(0.00834210810751779 0.00311257546195714 0)
(0.00606636064661864 0.00300886232768623 0)
(0.00388538111213852 0.00267981100233598 0)
(0.00200751248071128 0.00198871621714155 0)
(0.000599956677457708 0.000982631933749216 0)
(4.43203668767647e-06 -2.50180926075214e-05 0)
(4.14918341733553e-05 -0.000284180740334 0)
(0.000829577562462769 -0.00202277640263413 0)
(0.00255813356384978 -0.00368740505263119 0)
(0.00479422712493374 -0.00481874737209593 0)
(0.00736613675921116 -0.00537990316571428 0)
(0.0100442768658507 -0.00557138363033856 0)
(0.0127479277963867 -0.00556360963947362 0)
(0.0154126334308363 -0.00546252027563333 0)
(0.0180170907915635 -0.00531328312649392 0)
(0.0205409503483137 -0.00513372725824125 0)
(0.0229726678744971 -0.00492923966997221 0)
(0.0252997196941433 -0.00470199155468276 0)
(0.0275117590225664 -0.00445305424861422 0)
(0.029598372186096 -0.00418352989006094 0)
(0.0315501191329892 -0.00389456358289987 0)
(0.0333579841192376 -0.00358744689168869 0)
(0.0350137024732045 -0.00326356134987375 0)
(0.0365096358622915 -0.00292438485693897 0)
(0.0378388854018762 -0.00257146658600954 0)
(0.0389952766412757 -0.00220642131735126 0)
(0.039973407393314 -0.00183091639202593 0)
(0.0407686580530459 -0.00144666428443183 0)
(0.0413772166740345 -0.00105541362547255 0)
(0.0417960918516586 -0.000658941997074493 0)
(0.0420231273969264 -0.000259048593842021 0)
(0.0420570119270572 0.000142452456341433 0)
(0.0418972867821546 0.000543738682047828 0)
(0.0415443510487432 0.000942985591107104 0)
(0.0409994635126432 0.00133837307564484 0)
(0.0402647431991488 0.00172809169152518 0)
(0.0393431644064471 0.00211034952831822 0)
(0.038238554258207 0.00248337870452276 0)
(0.0369555766517627 0.0028454438679154 0)
(0.0354997332294224 0.00319484870446852 0)
(0.0338773223105647 0.00352994906325054 0)
(0.0320954679476111 0.00384915738945319 0)
(0.0301620066564056 0.00415096977211763 0)
(0.0280856357294433 0.00443395752529744 0)
(0.0258755644460169 0.00469683335836578 0)
(0.0235421192820086 0.00493835116366978 0)
(0.0210956020917197 0.00515735577018628 0)
(0.0185486859400001 0.00535173824907033 0)
(0.0159128196147664 0.0055166577983566 0)
(0.0132084424443198 0.00563562891418453 0)
(0.0104554173341995 0.00566611619905046 0)
(0.00771736347461389 0.00550458047804141 0)
(0.00507001604360155 0.00497969595024239 0)
(0.00274677833633874 0.00387754600803626 0)
(0.000916930652102307 0.00220696657698649 0)
(5.64880743049856e-05 0.000380442227266023 0)
(5.73235221048799e-05 -0.000766503281714036 0)
(0.000976968362099453 -0.00342611490258182 0)
(0.00293376013153267 -0.00582078409219452 0)
(0.0054120353765742 -0.00739962259662026 0)
(0.0082372561159376 -0.00817760080594082 0)
(0.0111629818049711 -0.00843742571733342 0)
(0.0141105382153116 -0.00841841489220484 0)
(0.017012741417361 -0.00826497862697093 0)
(0.0198486155172349 -0.00804026039680783 0)
(0.0225965403009754 -0.00776921187654509 0)
(0.0252442707591739 -0.00746003561569451 0)
(0.0277782271026443 -0.00711615297376726 0)
(0.0301871938000011 -0.0067394276473583 0)
(0.0324598544484991 -0.00633162689874639 0)
(0.034585959251215 -0.00589455168483306 0)
(0.0365557169340511 -0.00543016816366807 0)
(0.0383601521200799 -0.00494056303733324 0)
(0.0399909653291355 -0.00442795033814041 0)
(0.0414406546008652 -0.00389464571474804 0)
(0.0427024973597307 -0.00334305796486948 0)
(0.0437706015270832 -0.00277567324971552 0)
(0.0446399161177532 -0.00219504451582026 0)
(0.0453062583114831 -0.00160377952651562 0)
(0.0457663275603512 -0.00100453066900369 0)
(0.0460177219418098 -0.000399984762287324 0)
(0.0460589492491044 0.000207146411939106 0)
(0.0458894365150209 0.000814135421993723 0)
(0.0455095366340324 0.00141824822214489 0)
(0.0449205318685895 0.00201675329079262 0)
(0.044124636053838 0.00260693072789573 0)
(0.0431249909995561 0.00318608203787965 0)
(0.0419256658933149 0.00375153972551232 0)
(0.0405316420259676 0.00430067897593888 0)
(0.0389488164658049 0.00483092761340135 0)
(0.0371839598945141 0.00533978239522234 0)
(0.035244751880315 0.00582481685608418 0)
(0.0331396599472095 0.00628370980959781 0)
(0.0308781073512814 0.00671423777149946 0)
(0.0284700910106571 0.0071143316481628 0)
(0.0259268544481322 0.00748195426433896 0)
(0.0232596051409787 0.00781504941451393 0)
(0.0204821578217034 0.00811021237543057 0)
(0.0176067395051066 0.00835991084640519 0)
(0.0146552134071127 0.00854099812915981 0)
(0.0116471146088285 0.00859387074150443 0)
(0.00864897506791089 0.00837746804018528 0)
(0.00573406382435248 0.00765098256898521 0)
(0.00315345007694602 0.00611317009891076 0)
(0.00107863052017298 0.00370782787710586 0)
(7.48220221604726e-05 0.000917389465920008 0)
(5.88613682530833e-05 -0.00129095006982144 0)
(0.00104035073627646 -0.00494518151677108 0)
(0.00311724037394037 -0.00810318407584018 0)
(0.0057278481118594 -0.0101382752813508 0)
(0.00869391378461326 -0.0111308267787861 0)
(0.0117568073715159 -0.0114537705939914 0)
(0.0148392410072778 -0.0114183841135882 0)
(0.0178721695171475 -0.0112079063735014 0)
(0.020835282519776 -0.0109031801273716 0)
(0.0237063033877681 -0.0105359171872276 0)
(0.0264727764744003 -0.0101169379914151 0)
(0.0291205506651439 -0.00965082212928741 0)
(0.0316379676008965 -0.00914020550810644 0)
(0.0340132057636959 -0.00858753083047891 0)
(0.0362355709098272 -0.00799527930010141 0)
(0.0382948372404179 -0.0073661209040474 0)
(0.0401816348943595 -0.00670287838502143 0)
(0.0418872959149635 -0.00600853325383225 0)
(0.0434039834416213 -0.00528619916742002 0)
(0.0447246698162974 -0.00453911074518203 0)
(0.0458431898057363 -0.00377060515986057 0)
(0.0467542504103444 -0.00298410857018522 0)
(0.0474534587779968 -0.00218312129062752 0)
(0.0479373364721957 -0.00137120474528269 0)
(0.0482033364914056 -0.000551968544441088 0)
(0.0482498549519826 0.000270941650223647 0)
(0.0480762414180588 0.00109385604163252 0)
(0.0476828064480417 0.00191309232921751 0)
(0.0470708261201123 0.0027249674715306 0)
(0.0462425455080065 0.00352580950037652 0)
(0.0452011762264646 0.00431197013097812 0)
(0.0439508975864048 0.00507983737666593 0)
(0.042496842202175 0.00582585035086113 0)
(0.040845102486314 0.00654651260709748 0)
(0.0390026877843889 0.00723841160504798 0)
(0.036977565805995 0.00789823002299369 0)
(0.0347785345320631 0.00852277616601858 0)
(0.0324154077235759 0.00910897858505493 0)
(0.029898599957173 0.00965393671593214 0)
(0.0272398587197188 0.0101547858023573 0)
(0.0244508450118917 0.0106085625660476 0)
(0.0215459921016457 0.0110106352119814 0)
(0.0185377643879211 0.0113509643119877 0)
(0.0154487674135266 0.0116001162478487 0)
(0.0122977890624422 0.0116817486546938 0)
(0.00915330131103687 0.011417004248777 0)
(0.00608667858570042 0.0104925126044306 0)
(0.00336182101644507 0.00851120950604814 0)
(0.0011534036954152 0.00533688380932601 0)
(7.82398780875118e-05 0.00150326759367029 0)
(5.52609070552315e-05 -0.0018329918119828 0)
(0.00106664196762271 -0.00653101365148307 0)
(0.00321383898361281 -0.0104810099288027 0)
(0.0059094001943622 -0.0129864458843038 0)
(0.00897006442733733 -0.0141974008476992 0)
(0.0121269834463878 -0.0145829391900167 0)
(0.0153025568085464 -0.0145289487183633 0)
(0.0184257586702719 -0.0142586162558317 0)
(0.021476637567926 -0.0138707289638281 0)
(0.0244324131961533 -0.0134037556978636 0)
(0.0272805614491625 -0.012871092619335 0)
(0.030006564524043 -0.0122784541091524 0)
(0.0325984991219779 -0.0116292483175164 0)
(0.035044209022818 -0.0109266074069481 0)
(0.0373327073736801 -0.0101737144832946 0)
(0.0394534745142986 -0.0093739684259173 0)
(0.0413968752587837 -0.00853095454280713 0)
(0.0431539931492253 -0.00764844889251743 0)
(0.0447167672513851 -0.00673039034409524 0)
(0.0460779667768986 -0.0057808665382179 0)
(0.0472312459874032 -0.00480409280238211 0)
(0.0481711527623827 -0.00380439561926422 0)
(0.048893156703553 -0.00278619498764759 0)
(0.0493936629121749 -0.00175398861364233 0)
(0.0496700290019034 -0.00071233637009561 0)
(0.0497205767456279 0.00033415436457124 0)
(0.0495446026345211 0.00138084306948138 0)
(0.0491423858463878 0.00242307014075073 0)
(0.0485151933737869 0.00345617110725808 0)
(0.0476652844380224 0.00447549099269284 0)
(0.0465959089445532 0.0054763995998075 0)
(0.0453113102073596 0.00645430700623975 0)
(0.0438167113517554 0.00740468139242357 0)
(0.0421183244471588 0.00832306569605557 0)
(0.0402233068665819 0.00920510029020622 0)
(0.0381398082106405 0.0100465379003326 0)
(0.0358768347905548 0.010843276410267 0)
(0.0334444504044492 0.0115913566936897 0)
(0.0308533288288521 0.0122870095041952 0)
(0.0281155376483164 0.0129265125539853 0)
(0.0252429931586984 0.0135059809193702 0)
(0.0222505147016798 0.0140195695684636 0)
(0.0191506247223863 0.0144547788816607 0)
(0.0159664676778579 0.0147759244791106 0)
(0.0127163213324027 0.0148897582157873 0)
(0.00947062084917379 0.0145785977066227 0)
(0.00630044751650178 0.0134538358955394 0)
(0.00348043855685369 0.0110161486856312 0)
(0.00118975474530558 0.00704365135601178 0)
(7.62314090509646e-05 0.00211267231719679 0)
(5.23011432841984e-05 -0.00238047112186267 0)
(0.00108566320456482 -0.00815518111530932 0)
(0.00328869265618456 -0.0129202081563335 0)
(0.00605683966052688 -0.0159092206933686 0)
(0.00920106749002776 -0.0173429762429279 0)
(0.0124432392574821 -0.0177912975624768 0)
(0.015704189932345 -0.0177170076544581 0)
(0.018910659442168 -0.0173845529222955 0)
(0.0220426368910518 -0.0169110187338871 0)
(0.0250767668833569 -0.016341702798345 0)
(0.0280003935370519 -0.0156925359995696 0)
(0.0307986468348548 -0.0149703313366585 0)
(0.0334593535289816 -0.0141792476768732 0)
(0.0359700506805371 -0.0133231030371456 0)
(0.0383194850717753 -0.0124057892831685 0)
(0.040496870963833 -0.0114314477618035 0)
(0.0424923346732414 -0.0104044431419197 0)
(0.0442967380109668 -0.00932936442442483 0)
(0.0459018221318024 -0.00821099451272713 0)
(0.047300178691836 -0.00705429279280385 0)
(0.0484853060279205 -0.00586437104008944 0)
(0.0494516161507618 -0.00464647381650487 0)
(0.0501944625820421 -0.00340595800958515 0)
(0.050710153202943 -0.00214827434641709 0)
(0.0509959668142217 -0.000878949379337957 0)
(0.0510501643425598 0.00039643150519352 0)
(0.0508719992711508 0.00167224066600328 0)
(0.0504617257380211 0.00294282443830849 0)
(0.0498206040491311 0.00420251953831489 0)
(0.0489509058867856 0.00544566971057878 0)
(0.0478559136155377 0.00666664345035691 0)
(0.0465399245687917 0.00785985217667723 0)
(0.045008238330067 0.00901977097183558 0)
(0.0432671685533442 0.0101409585130068 0)
(0.0413239987520438 0.0112180831761328 0)
(0.0391870346157701 0.0122459419480406 0)
(0.0368654615975849 0.0132194967657843 0)
(0.0343695602210696 0.0141338771050992 0)
(0.0317102286093369 0.0149844268904609 0)
(0.0288998152547465 0.0157665577961129 0)
(0.0259504627315084 0.0164754739594375 0)
(0.0228773458346527 0.0171041475806126 0)
(0.0196930869631885 0.017637671566425 0)
(0.0164214133281554 0.0180340833922501 0)
(0.0130804633387942 0.0181829751346201 0)
(0.00974282571550899 0.0178266365747828 0)
(0.0064804499858056 0.016498889671183 0)
(0.00357773429667595 0.0135929544988276 0)
(0.00121910464982178 0.00879893226863223 0)
(7.49243174709782e-05 0.00273299165662925 0)
(5.05336197625413e-05 -0.00293656390813992 0)
(0.00110687467621266 -0.0098191987419113 0)
(0.00336719756174214 -0.0154239146117995 0)
(0.00621153846917006 -0.0189123248042663 0)
(0.00944445617420917 -0.0205758783920628 0)
(0.0127785031395107 -0.0210889702979478 0)
(0.0161320596168546 -0.0209936665101777 0)
(0.019429334702226 -0.0205971956723385 0)
(0.022649899898832 -0.0200355040366932 0)
(0.0257696993630136 -0.0193609478800324 0)
(0.0287758353651736 -0.0185920425731218 0)
(0.0316530383718064 -0.0177367172700187 0)
(0.0343888449035887 -0.0167998881966907 0)
(0.0369704601293016 -0.0157860720043958 0)
(0.0393863421822268 -0.0146998858539271 0)
(0.0416254216875183 -0.0135462339937616 0)
(0.0436775712792111 -0.012330282669816 0)
(0.0455334187340141 -0.0110574570386886 0)
(0.0471844973625608 -0.00973340731103891 0)
(0.0486232136892681 -0.00836398752012439 0)
(0.0498429045840847 -0.00695522807383764 0)
(0.0508378424187272 -0.00551331295098964 0)
(0.0516032622825405 -0.00404455638442186 0)
(0.0521353735682266 -0.00255538178081003 0)
(0.0524313757491572 -0.00105230139202091 0)
(0.052489468862088 0.000458102775534464 0)
(0.0523088635808532 0.00196919747736324 0)
(0.0518897892884862 0.00347431631873905 0)
(0.0512334998982449 0.00496677801882519 0)
(0.0503422798596357 0.00643990501388753 0)
(0.0492194444011248 0.00788704331821981 0)
(0.0478693455274571 0.00930158311144598 0)
(0.0462973604042824 0.0106769822249765 0)
(0.0445099060914409 0.0120067892550679 0)
(0.0425143951003487 0.013284673238428 0)
(0.0403192932755369 0.0145044467683684 0)
(0.0379339711399206 0.0156601067002416 0)
(0.0353689336443184 0.0167458421278973 0)
(0.0326353152060626 0.0177560836973531 0)
(0.0297457604443003 0.0186853532945716 0)
(0.0267126682934377 0.0195279279670705 0)
(0.0235516074387212 0.0202755760545657 0)
(0.020275397471484 0.0209109505442331 0)
(0.0169084590290798 0.0213856369180459 0)
(0.0134691090728728 0.0215716251665067 0)
(0.0100323405389559 0.0211697811581577 0)
(0.0066717583328453 0.0196340306037643 0)
(0.00368156057195605 0.016245672291172 0)
(0.00125204528356998 0.0106052338753493 0)
(7.50773571406518e-05 0.00336804368557089 0)
(4.99512853076476e-05 -0.00350311624170172 0)
(0.0011335435290686 -0.0115257213104503 0)
(0.00345875795953518 -0.0179965841239091 0)
(0.0063890792432229 -0.0220014789525301 0)
(0.00972199759068836 -0.0239028151264464 0)
(0.0131601935696909 -0.0244831509919613 0)
(0.0166189879733992 -0.0243662748529479 0)
(0.0200197781343536 -0.0239038292290073 0)
(0.0233414584134638 -0.0232512800498609 0)
(0.0265591417345323 -0.022468324729955 0)
(0.0296595733365905 -0.0215761406270008 0)
(0.0326270096254677 -0.0205838049489706 0)
(0.0354486321155446 -0.0194970048356162 0)
(0.03811126365362 -0.0183209724847799 0)
(0.0406030297576997 -0.0170610695625023 0)
(0.0429125403758993 -0.0157229859665735 0)
(0.0450293823048989 -0.0143127138437828 0)
(0.0469439218435247 -0.0128365397377779 0)
(0.0486474610289422 -0.0113010062860814 0)
(0.0501322015137069 -0.00971288668644463 0)
(0.0513913021886798 -0.00807915347664672 0)
(0.0524188821096087 -0.00640695236445241 0)
(0.0532100466743694 -0.00470357600887072 0)
(0.0537608975691265 -0.002976440447136 0)
(0.0540685474226437 -0.00123306265280154 0)
(0.0541311292920718 0.000518960361781965 0)
(0.0539478061835639 0.00227197164244841 0)
(0.0535187789947655 0.00401827383513524 0)
(0.0528452926394134 0.00575014888748242 0)
(0.0519296429510167 0.00745987818564692 0)
(0.0507751780651022 0.00913976416784823 0)
(0.0493863064294862 0.0107821529866673 0)
(0.0477684866882955 0.0123794605206011 0)
(0.0459282458048563 0.0139241985299646 0)
(0.0438731349703661 0.0154090080373367 0)
(0.0416117936766781 0.0168266868256332 0)
(0.0391537957445887 0.0181702353404441 0)
(0.0365098943097864 0.0194328704766546 0)
(0.0336914915223361 0.0206080794867775 0)
(0.0307115680204193 0.0216894651170573 0)
(0.0275828343021238 0.0226703527100099 0)
(0.0243213214479387 0.0235412705888914 0)
(0.0209401515019376 0.0242823746470292 0)
(0.0174645609868955 0.0248385821734094 0)
(0.0139132648275678 0.0250637641801528 0)
(0.0103639043802664 0.0246158803241495 0)
(0.00689222246305153 0.0228664535099937 0)
(0.00380283810726009 0.018980518993879 0)
(0.00129253505338183 0.0124669484295432 0)
(7.68008462189884e-05 0.00402069940135781 0)
(5.00114543965619e-05 -0.00408405040629929 0)
(0.00116569233512165 -0.0132829356403681 0)
(0.00356548106798009 -0.0206499003063975 0)
(0.00659391301512952 -0.0251905591380271 0)
(0.0100406545849307 -0.027339050521186 0)
(0.0135975577800253 -0.0279897672511966 0)
(0.0171763881586087 -0.0278509793957108 0)
(0.0206954219119734 -0.0273205067829056 0)
(0.0241326787432361 -0.0265740983018646 0)
(0.0274623122389514 -0.0256791294047319 0)
(0.0306706072908456 -0.0246595537882333 0)
(0.033741266368113 -0.0235256521430409 0)
(0.0366610471470875 -0.0222839128532886 0)
(0.0394163325042536 -0.0209403128258536 0)
(0.0419948653041767 -0.0195009868907832 0)
(0.0443848918926207 -0.0179724410146384 0)
(0.0465756762005261 -0.0163615240721327 0)
(0.0485572913911929 -0.0146754149248261 0)
(0.0503207812989871 -0.0129215788284333 0)
(0.0518581199793137 -0.0111077371970079 0)
(0.0531622692716854 -0.00924183223341671 0)
(0.0542271789677119 -0.00733199725689148 0)
(0.0550478114365248 -0.00538652756970861 0)
(0.0556201494620866 -0.0034138545398964 0)
(0.0559412093670419 -0.00142252131094051 0)
(0.0560090491786025 0.000578839529659707 0)
(0.0558227773736613 0.00258152717703248 0)
(0.0553825605853082 0.0045767930972738 0)
(0.0546896300474418 0.00655586163283124 0)
(0.0537462895447592 0.00850995113607426 0)
(0.052555918207366 0.010430296835487 0)
(0.0511229809428523 0.012308175121418 0)
(0.0494530203308794 0.0141349317505882 0)
(0.0475526787909823 0.0159020107890109 0)
(0.045429655555324 0.0176009916979984 0)
(0.043092777848228 0.0192236212047318 0)
(0.0405518425154085 0.020761864970212 0)
(0.037817877565991 0.0222079271596876 0)
(0.0349025878368086 0.0235543105036698 0)
(0.0318193353061607 0.0247936549612557 0)
(0.0285811998499666 0.0259182906880514 0)
(0.0252047486556191 0.0269174452887162 0)
(0.0217034986233459 0.0277686865853507 0)
(0.0181036233214697 0.0284100047786679 0)
(0.0144243873041862 0.0286765541972134 0)
(0.0107463543751068 0.0281818002161847 0)
(0.00714775387235563 0.0262120629205017 0)
(0.00394466862248439 0.0218115675955723 0)
(0.00134104487368813 0.0143946075691555 0)
(7.96191490903546e-05 0.00469624467688528 0)
(5.04966895201195e-05 -0.00468191269996839 0)
(0.00120324828468557 -0.0150979174300524 0)
(0.00368803275912488 -0.023394574198509 0)
(0.00682771306966612 -0.0284924065066652 0)
(0.0104032627751939 -0.0308985355965204 0)
(0.0140945118303769 -0.031623147532889 0)
(0.0178092072610195 -0.0314621068913106 0)
(0.0214621622167217 -0.0308613294624422 0)
(0.0250303595592275 -0.0300177037240601 0)
(0.0284868657832873 -0.0290066542549829 0)
(0.0318174119447839 -0.0278550452477897 0)
(0.0350050641217736 -0.0265744269861747 0)
(0.0380360861110658 -0.0251721282554347 0)
(0.0408963593350845 -0.0236549071538535 0)
(0.0435731912203946 -0.0220297069987724 0)
(0.0460544190788554 -0.0203038862488682 0)
(0.0483289454640755 -0.0184851867873283 0)
(0.0503865179396138 -0.0165817156121539 0)
(0.0522178950993252 -0.0146018951043589 0)
(0.0538148010234186 -0.0125544276685066 0)
(0.0551699820881166 -0.0104482558304853 0)
(0.0562772036546557 -0.00829252893744393 0)
(0.0571312724794418 -0.00609657113293033 0)
(0.0577280418292134 -0.00386985330421767 0)
(0.0580644225524585 -0.0016219672928242 0)
(0.0581383895103326 0.000637397392901721 0)
(0.0579489892605461 0.00289847536130145 0)
(0.0574963473873734 0.00515144613025892 0)
(0.0567816752783789 0.00738645496079439 0)
(0.0558072792995484 0.0095936343058127 0)
(0.0545765653338408 0.0117631272859956 0)
(0.0530940521468348 0.0138851130102422 0)
(0.0513653659217392 0.0159498365127276 0)
(0.0493972673169082 0.0179476401091642 0)
(0.0471976103601894 0.0198690040804364 0)
(0.0447754219562581 0.0217045828047177 0)
(0.0421407400416291 0.0234452626515127 0)
(0.0393048935234604 0.0250821872140104 0)
(0.0362799244117616 0.0266068249242167 0)
(0.0330796223365127 0.0280107993716556 0)
(0.0297174927127775 0.0292853904471558 0)
(0.0262107133127247 0.0304184520283937 0)
(0.0225732755657595 0.0313848559536725 0)
(0.0188324100854231 0.0321153849050558 0)
(0.0150080394061476 0.0324258120586762 0)
(0.0111839543676381 0.0318833953667123 0)
(0.00744116079378138 0.029686085686884 0)
(0.00410850428152611 0.0247523195004583 0)
(0.00139786053942155 0.0163980136011811 0)
(8.33682889830234e-05 0.00539877962736839 0)
(5.12161219725951e-05 -0.00529960927812811 0)
(0.00124598719234112 -0.0169789070020571 0)
(0.00382657493825348 -0.0262430072947235 0)
(0.00709129512086286 -0.0319219495521456 0)
(0.0108114662844324 -0.0345974948054838 0)
(0.0146535351502696 -0.0353999755736504 0)
(0.018520751077703 -0.0352163528757475 0)
(0.022324080558319 -0.034542746043876 0)
(0.0260393181052996 -0.033598143527549 0)
(0.0296383098778644 -0.0324664293016314 0)
(0.0331061448159514 -0.0311775341375824 0)
(0.0364251683618355 -0.0297443564394088 0)
(0.039581080608411 -0.0281751153575067 0)
(0.0425591985069868 -0.026477396013364 0)
(0.0453463407083287 -0.0246589942467846 0)
(0.0479298896886197 -0.0227281653127367 0)
(0.0502983485965609 -0.0206935875159561 0)
(0.0524411079818772 -0.0185643381338369 0)
(0.0543486158094014 -0.0163498366976298 0)
(0.0560123258317119 -0.0140598040721606 0)
(0.0574247528054165 -0.011704217649697 0)
(0.0585794647770009 -0.00929327432653401 0)
(0.0594711024420676 -0.00683735566769509 0)
(0.0600953807558683 -0.00434699801168493 0)
(0.0604490972893493 -0.00183286564108771 0)
(0.0605301363929202 0.000694272850467724 0)
(0.0603374754476112 0.00322356617477427 0)
(0.0598711916247683 0.00574410063931984 0)
(0.0591324689871729 0.00824492035892047 0)
(0.0581236090862162 0.0107150481588131 0)
(0.0568480376253042 0.0131435088376579 0)
(0.0553103213655619 0.0155193547580188 0)
(0.0535161660412913 0.0178316968857556 0)
(0.0514724493287429 0.0200697380258099 0)
(0.0491871826478967 0.0222228168413242 0)
(0.046669600494267 0.0242804479984843 0)
(0.0439299960348599 0.0262323866005668 0)
(0.0409800217605367 0.0280686588782064 0)
(0.0378320879108367 0.0297796386088192 0)
(0.0345004558131619 0.031355867446389 0)
(0.0309991083779612 0.0327875062520092 0)
(0.0273459071903693 0.0340609480645457 0)
(0.0235553883894361 0.0351482421761958 0)
(0.0196559627283335 0.0359726583062017 0)
(0.0156682984556208 0.0363298503429099 0)
(0.011679755065569 0.0357390007899493 0)
(0.00777439236450498 0.0333061223424541 0)
(0.00429530181838957 0.0278183222486366 0)
(0.00146312765487737 0.0184884975128753 0)
(8.79161877905522e-05 0.00613296429211082 0)
(5.2102690905105e-05 -0.00593962822853008 0)
(0.00129388683066926 -0.0189338164331578 0)
(0.00398141206095802 -0.0292074574174608 0)
(0.0073855435980758 -0.0354941206133503 0)
(0.0112668941120921 -0.038452186711501 0)
(0.0152770453341296 -0.0393369453398397 0)
(0.019314234968976 -0.0391303724452915 0)
(0.0232851590890659 -0.0383811158547187 0)
(0.0271642700936157 -0.0373313354841877 0)
(0.0309220516231301 -0.0360738262461384 0)
(0.0345428626430166 -0.0346417615458535 0)
(0.0380082404563905 -0.0330494767362129 0)
(0.0413032507031839 -0.0313061404277627 0)
(0.0444125812079879 -0.0294202190090196 0)
(0.0473225081432237 -0.0274004132396599 0)
(0.0500199135356192 -0.0252559273720176 0)
(0.052492864328153 -0.0229964268683525 0)
(0.0547303646012546 -0.0206320079600274 0)
(0.0567225289561685 -0.0181731329949438 0)
(0.058460523553356 -0.0156305834387857 0)
(0.0599366186999675 -0.0130154097745478 0)
(0.0611441755628953 -0.0103388906793356 0)
(0.0620776614279746 -0.00761249552419597 0)
(0.0627326468180636 -0.00484785303026837 0)