/*--------------------------------*- C++ -*----------------------------------*\
  =========                 |
  \\      /  F ield         | OpenFOAM: The Open Source CFD Toolbox
   \\    /   O peration     | Website:  https://openfoam.org
    \\  /    A nd           | Version:  6
     \\/     M anipulation  |
\*---------------------------------------------------------------------------*/
FoamFile
{
    version     2.0;
    format      ascii;
    class       volVectorField;
    location    "./ITHACAoutput/Offline/1";
    object      U_rec;
}
// * * * * * * * * * * * * * * * * * * * * * * * * * * * * * * * * * * * * * //

dimensions      [0 1 -1 0 0 0 0];

internalField   nonuniform List<vector> 
13046
(
(-0.405942 0.150327 0)
(-0.699572 -0.296183 -4.70637e-21)
(-0.171588 -0.15811 -9.5964e-21)
(-0.382386 0.0443982 0)
(-0.107107 -0.0764233 -9.02328e-21)
(-0.581851 -0.298021 0)
(-0.436987 0.0737864 1.43256e-21)
(-0.664152 -0.348895 2.33969e-21)
(-0.0734015 -0.0614187 -9.75143e-21)
(-1.2394 0.554285 3.24571e-21)
(-1.48374 -0.705003 0)
(0.0810732 -0.00683604 5.69941e-21)
(-0.575502 0.208235 -4.55156e-21)
(-0.879815 -0.402569 -6.8581e-21)
(-0.067104 -0.109406 5.07921e-21)
(-1.15853 0.614669 -4.59629e-21)
(0.0283306 -0.0277292 1.3583e-20)
(-1.5335 -0.603205 1.52596e-21)
(-0.165656 0.0031379 0)
(-0.403801 -0.250422 -4.96474e-21)
(-0.417766 -0.0828565 1.4978e-20)
(-1.17502 0.604901 -1.81026e-21)
(0.0440719 -0.0202542 -1.81515e-20)
(-1.52519 -0.62581 0)
(-0.324637 0.0595506 5.90974e-21)
(-0.555916 -0.245767 -1.16675e-20)
(-0.175886 -0.138108 0)
(-0.592048 0.246006 -8.18055e-21)
(-0.916989 -0.400606 2.03634e-21)
(-0.083596 -0.124804 -8.91888e-21)
(-0.419769 0.176475 0)
(-0.731528 -0.28188 0)
(-0.195627 -0.180176 9.7665e-21)
(-0.284547 0.0231695 -6.8658e-21)
(-0.203052 -0.140907 3.39354e-21)
(-0.47974 -0.205596 2.03355e-20)
(-0.287165 -0.00496371 -1.05595e-20)
(-0.19836 -0.117182 5.23652e-21)
(-0.441238 -0.199149 -1.03743e-20)
(-0.313449 0.172203 7.16817e-21)
(-0.436348 -0.342462 1.72448e-21)
(-0.678139 -0.164487 -7.26671e-21)
(-0.302477 -0.0859218 4.75846e-21)
(-0.234073 -0.0889162 7.98722e-21)
(-0.320213 -0.1506 0)
(-0.330746 -0.0764102 3.10038e-21)
(-0.193678 -0.0601899 -1.23093e-20)
(-0.352197 -0.183701 -1.52403e-21)
(-0.432842 0.143844 0)
(-0.721982 -0.323239 -3.31968e-22)
(-0.123345 -0.131636 -8.04019e-23)
(-0.70739 -0.537163 1.04467e-20)
(-0.260573 0.184909 0)
(-0.74718 -0.0605816 -8.55528e-21)
(-0.800028 -0.596853 -1.48971e-20)
(-0.764121 -0.0262217 -1.37622e-20)
(-0.219058 0.160809 1.05677e-20)
(-1.33157 -0.407937 -1.26083e-21)
(-0.896061 0.548207 0)
(-0.191879 -0.199874 7.57772e-21)
(-0.824051 0.240127 -4.34007e-21)
(-1.10417 -0.619539 3.66872e-21)
(0.0460656 -0.0131856 -2.11565e-20)
(0.0743115 -0.029893 1.06058e-20)
(-1.43774 -0.680164 -1.61792e-21)
(-1.13538 0.487848 -6.13408e-21)
(-0.836553 0.531023 0)
(-1.26491 -0.354766 0)
(-0.257206 -0.255801 0)
(-0.783045 0.496817 -3.03002e-21)
(-1.20803 -0.335458 0)
(-0.278994 -0.272498 6.04786e-21)
(-1.38791 -0.42002 0)
(-0.947165 0.578662 7.60554e-23)
(-0.171578 -0.188583 -5.81334e-23)
(-0.178514 0.0281586 0)
(-0.403278 -0.266982 5.32126e-21)
(-0.460485 -0.108751 -1.06102e-20)
(-0.0930647 -0.123358 8.27929e-21)
(-1.02042 0.601695 -8.87997e-21)
(-1.45357 -0.482205 0)
(-0.359969 0.0722874 3.13564e-21)
(-0.594591 -0.274049 0)
(-0.139179 -0.112287 0)
(0.0757672 -0.0245582 -9.45345e-21)
(-1.46568 -0.686672 -1.01458e-21)
(-1.17287 0.514215 3.60844e-21)
(-1.17676 0.389168 -6.49168e-21)
(0.0927532 -0.0148898 0)
(-1.38743 -0.785044 -1.31106e-21)
(0.0428245 0.000145342 0)
(-1.26116 0.304071 0)
(-1.35636 -0.89721 1.45518e-22)
(-0.867862 0.374021 0)
(-0.92786 0.390061 3.74239e-21)
(-1.21383 -0.550351 6.86622e-21)
(-1.26337 -0.592613 -3.18712e-21)
(0.00701641 -0.0771868 -4.43574e-21)
(0.0347117 -0.058299 1.14401e-20)
(0.0853978 -0.0106894 -5.41452e-22)
(-1.16421 0.359427 6.34941e-21)
(-1.36176 -0.803824 0)
(-0.342312 -0.0468603 -1.39896e-23)
(-0.163055 -0.0584869 6.35453e-21)
(-0.411973 -0.222181 0)
(-0.11986 0.0964717 0)
(-0.662267 0.0130001 -4.36152e-21)
(-0.76977 -0.526358 0)
(-0.245045 0.162105 1.21715e-20)
(-0.61898 -0.458205 0)
(-0.682118 -0.0885655 -1.66303e-20)
(-1.19229 0.556878 0)
(0.0642488 0.00499741 0)
(-1.35114 -0.671978 8.02558e-22)
(-0.508638 0.175665 1.25624e-20)
(-0.814109 -0.367962 3.03062e-21)
(-0.0810989 -0.108274 9.37413e-21)
(-0.945039 0.459387 4.7679e-21)
(-0.881018 0.414448 -9.0242e-21)
(-1.31412 -0.544312 -5.74675e-21)
(-0.0163388 -0.0881822 5.073e-21)
(-1.24353 -0.52439 3.26478e-21)
(-0.0213047 -0.0934999 -4.73869e-21)
(-1.23308 0.569975 -2.21032e-21)
(-1.47582 -0.692761 -3.54803e-22)
(0.0760583 -0.00179601 -2.54209e-21)
(-0.740157 0.319666 0)
(-1.07937 -0.478989 -4.94834e-21)
(-0.0391891 -0.108 1.06988e-20)
(-0.364555 0.19471 0)
(-0.375272 -0.306724 -8.74188e-21)
(-0.718509 -0.202226 4.16912e-22)
(0.03267 0.00920387 0)
(-1.20743 0.278423 0)
(-1.33299 -0.880683 0)
(-1.03653 0.405507 0)
(-1.33791 -0.67213 -7.84605e-21)
(0.0741772 -0.033487 -1.21722e-20)
(-0.479704 0.206538 0)
(-0.798913 -0.315409 0)
(-0.177289 -0.18247 0)
(-0.597375 0.113384 0)
(-0.838949 -0.486086 0)
(-0.015987 -0.00756296 0)
(-0.221516 0.155308 0)
(-0.684692 -0.500995 0)
(-0.694406 -0.0594192 9.00345e-21)
(-0.117103 0.0835445 -1.23851e-21)
(-0.632048 0.0056299 -9.53225e-21)
(-0.746317 -0.500666 9.65226e-21)
(-0.875615 0.269022 9.88009e-21)
(-1.15411 -0.63788 0)
(0.0576966 -0.0220625 2.74539e-20)
(-0.0818586 0.0279632 0)
(-0.527193 0.0124108 1.02679e-20)
(-0.661753 -0.415116 -2.49883e-21)
(-0.955912 -0.675363 0)
(-0.808812 0.0643475 9.85431e-21)
(-1.0311 -0.707618 0)
(-0.85049 0.109941 5.68331e-21)
(-0.116108 0.10563 0)
(-0.068922 0.078182 0)
(-0.633273 0.0734265 1.32458e-21)
(-0.827707 -0.522106 5.00994e-21)
(-0.0396063 0.0299148 -5.3753e-21)
(-1.26224 0.532905 -3.32843e-21)
(0.0882173 -0.0100633 0)
(-1.45921 -0.732953 -1.4767e-21)
(-1.21259 0.565844 -1.73254e-21)
(0.0687957 0.0053799 -1.1642e-21)
(-1.4112 -0.67832 0)
(-1.06071 0.434446 -5.32723e-21)
(-1.36604 -0.668744 0)
(0.0715174 -0.0357541 1.38306e-20)
(-0.473057 0.28177 0)
(-0.854543 -0.22401 2.1945e-21)
(-0.406066 -0.347024 4.98487e-21)
(-0.605381 0.0488217 8.6423e-21)
(-0.0632479 0.0472002 2.61705e-21)
(-0.774352 -0.489024 0)
(0.0957518 -0.016041 0)
(-1.44425 -0.783318 0)
(-1.27806 0.478588 2.68666e-21)
(-0.416952 0.248078 0)
(-0.794089 -0.199412 -4.87235e-21)
(-0.422259 -0.342923 1.30824e-21)
(-0.080748 0.0432798 0)
(-0.550534 0.0130542 0)
(-0.679527 -0.435591 0)
(-0.549558 0.0838741 4.27747e-21)
(-0.779394 -0.452901 0)
(-0.0283203 -0.0126883 0)
(-0.961048 -0.464801 5.79651e-24)
(-0.0200059 -0.0806644 -6.3506e-21)
(-0.689261 0.285412 1.29392e-20)
(-1.02658 -0.45764 0)
(-0.0432739 -0.104856 -1.34039e-20)
(-1.20233 0.458145 -6.42205e-21)
(0.0954006 -0.0189275 8.6008e-21)
(-1.43916 -0.752212 -5.28867e-21)
(0.0568271 0.00387594 7.9029e-21)
(-1.15715 0.299584 4.06611e-21)
(-1.32822 -0.840315 6.73781e-21)
(-1.24789 0.355956 -1.03797e-20)
(-1.38703 -0.84595 0)
(0.0776424 -0.0107319 -7.75825e-21)
(-0.751374 -0.593391 -5.26166e-22)
(-0.836385 -0.0695427 3.78489e-21)
(-0.333862 0.246241 0)
(-0.539001 0.139058 -1.92428e-20)
(-1.00345 0.61478 4.61479e-21)
(-0.121973 -0.142124 -5.09594e-21)
(-1.45375 -0.468482 0)
(-1.40139 -0.846063 0)
(-1.27877 0.390999 -8.72232e-21)
(0.0850533 -0.0160083 0)
(-0.325043 -0.010055 -1.55294e-20)
(-0.157035 -0.0825768 -5.14322e-21)
(-0.45958 -0.231829 1.51694e-20)
(-0.562215 0.253007 0)
(-0.895775 -0.372357 -2.97933e-22)
(-0.128689 -0.151308 -5.14361e-21)
(0.0400889 0.0104775 6.08795e-21)
(-1.16496 0.281541 0)
(-1.31772 -0.860032 -7.76743e-21)
(-0.592039 0.170846 1.53828e-20)
(-0.937817 -0.472101 1.22529e-20)
(-0.0111719 -0.0676875 0)
(0.0829049 -0.00780916 0)
(-1.40593 -0.731475 1.39116e-22)
(-1.26975 0.534601 0)
(-0.284012 0.212372 0)
(-0.826612 -0.0419877 0)
(-0.807715 -0.63414 0)
(-1.19858 0.339857 9.10326e-21)
(-1.36738 -0.827043 0)
(0.0769775 -0.00787581 -4.41758e-23)
(-0.735122 0.0921286 3.76857e-21)
(-0.930318 -0.613432 -3.67264e-21)
(-0.0446314 0.0545108 0)
(-0.739722 0.343956 0)
(-1.08997 -0.460686 4.6418e-21)
(-0.0668207 -0.123524 8.40847e-21)
(-1.22605 -0.863596 -1.10033e-20)
(-1.08097 0.181736 -7.4338e-21)
(-0.0420582 0.059541 4.79006e-21)
(-0.914541 0.125074 0)
(-1.09001 -0.75581 -4.7376e-21)
(-0.0699717 0.0786642 -1.76139e-22)
(0.0805873 -0.0119228 -7.52667e-21)
(-1.37611 -0.740176 0)
(-1.28151 0.517871 -1.42797e-21)
(-0.334591 0.214313 6.53776e-21)
(-0.55224 -0.428113 -6.24312e-21)
(-0.74576 -0.138681 7.08682e-22)
(-1.10526 0.594145 1.47133e-21)
(0.050068 0.0218936 -1.09034e-20)
(-1.36705 -0.589404 0)
(-0.138455 -0.0204758 -3.03769e-21)
(-0.39494 -0.0512845 -1.21e-20)
(-0.448768 -0.265093 1.48761e-20)
(-0.740062 0.146474 4.46189e-21)
(-0.705756 0.10227 3.23455e-23)
(-0.979348 -0.598428 -9.07907e-21)
(-0.913491 -0.585642 0)
(-0.0277061 0.0378691 4.88619e-21)
(0.00729469 0.0154412 -5.02173e-21)
(-0.0623477 -0.0965906 -1.08366e-20)
(-1.05921 0.614305 4.77863e-21)
(-1.49566 -0.502238 -4.62749e-21)
(-0.686091 0.331391 0)
(-1.03963 -0.417066 0)
(-0.114697 -0.151205 -1.1033e-20)
(-0.974539 0.163519 -1.99671e-21)
(-1.14953 -0.79422 0)
(-0.0400836 0.0613508 0)
(-0.996778 0.438722 -4.58356e-21)
(-1.3325 -0.604673 0)
(0.037481 -0.0570013 4.98852e-21)
(-0.2684 -0.0655588 3.16971e-21)
(-0.33566 -0.135807 4.64677e-21)
(-0.252943 -0.115259 -1.58769e-21)
(-0.821595 0.128491 -7.23551e-21)
(-1.02637 -0.678857 0)
(-0.032378 0.0551865 -8.26153e-21)
(-0.702942 0.356502 0)
(-1.06718 -0.408531 5.81017e-21)
(-0.134753 -0.166426 -6.98403e-21)
(-0.62364 0.206539 0)
(-0.683185 0.236335 1.52531e-21)
(-0.352783 0.230916 2.34843e-21)
(-0.572936 -0.450442 1.80445e-20)
(-0.771718 -0.131907 -1.68744e-20)
(-0.866099 0.166342 -7.40465e-21)
(-1.0809 -0.701414 7.36777e-21)
(0.000548952 0.0357755 7.53869e-21)
(-1.03903 0.450778 0)
(0.054206 -0.0458348 -1.76976e-20)
(-1.37104 -0.635147 -3.56316e-21)
(-0.240167 0.145174 -1.68622e-20)
(-0.576042 -0.43048 0)
(-0.655215 -0.0926629 5.58293e-21)
(-0.147205 0.127358 -9.7139e-21)
(-0.835005 0.0530019 -5.61789e-21)
(-0.961012 -0.702694 0)
(-0.863178 0.45225 -4.58624e-21)
(-1.25039 -0.464787 -4.74184e-21)
(-0.0944811 -0.137431 3.11988e-21)
(-0.308725 0.215525 8.43829e-22)
(-0.669422 -0.516945 0)
(-0.772268 -0.085071 1.18388e-20)
(-0.915569 0.485555 0)
(-0.951976 0.491621 0)
(-1.31101 -0.489769 -2.82143e-21)
(-0.0773959 -0.124722 -8.1435e-21)
(-1.33894 -0.526791 3.992e-21)
(-0.0417805 -0.0996904 8.62527e-21)
(0.0955909 -0.0156646 -6.61103e-21)
(-1.45297 -0.762257 0)
(-1.25457 0.49258 -4.23815e-21)
(-0.823567 0.39501 5.37242e-21)
(-1.18681 -0.490649 0)
(-0.0532964 -0.11353 2.85193e-21)
(-1.19206 -0.613176 -4.3232e-21)
(0.0432878 0.0101212 9.56097e-21)
(-1.07141 0.538573 1.26678e-21)
(-0.480762 -0.0287306 -5.65824e-21)
(-0.110458 0.0252598 0)
(-0.562811 -0.353059 0)
(-0.75303 0.214956 1.03579e-20)
(-1.03915 -0.571886 0)
(0.0350204 -0.0228629 1.63584e-20)
(0.0906016 -0.0231111 -5.47886e-21)
(-1.15293 0.445635 1.33194e-20)
(-1.41522 -0.724796 4.52046e-21)
(-0.834079 -0.627033 0)
(-0.791314 -0.0166654 5.04023e-21)
(-0.221604 0.173622 -1.19776e-20)
(-1.25928 -0.867667 -1.2625e-20)
(-1.1133 0.217298 -4.46103e-21)
(-0.00862701 0.037311 0)
(-0.839245 -0.426264 -1.28257e-20)
(-0.0312648 -0.0648002 0)
(-0.800345 0.282325 1.09581e-20)
(-1.09854 -0.556912 4.14972e-21)
(0.0311175 -0.0547031 4.95988e-21)
(-0.827714 -0.445637 7.42869e-21)
(-0.0195409 -0.047667 -3.27136e-23)
(-1.13713 0.597376 -3.05314e-22)
(0.0174156 -0.0407293 6.41858e-21)
(-1.51741 -0.5894 -2.24449e-21)
(-0.73204 -0.604335 0)
(-0.878951 -0.0899965 1.16908e-21)
(-0.384796 0.280792 0)
(-0.854247 0.311976 -1.11668e-20)
(-1.16867 -0.586483 -5.05622e-21)
(0.04517 -0.0466861 -5.95937e-21)
(-0.623344 0.106839 0)
(-0.847852 -0.51331 -7.27535e-21)
(-0.0180332 0.00781343 0)
(-0.683823 -0.0169318 0)
(-0.741053 -0.534959 0)
(-0.169548 0.122605 0)
(-0.410314 0.109905 -4.33931e-21)
(-0.668898 -0.312231 -7.27036e-21)
(-0.118401 -0.115469 -9.90558e-24)
(-0.187056 0.154508 1.20397e-20)
(-0.823977 0.0221991 1.36102e-20)
(-0.913284 -0.678216 7.11626e-21)
(-1.22453 0.422992 -5.25137e-21)
(-1.41721 -0.783453 4.39721e-21)
(0.0967997 -0.0168144 -8.14313e-21)
(-1.26958 -0.845732 8.65823e-21)
(-1.09948 0.235019 4.52267e-21)
(0.0148589 0.0271387 6.16115e-21)
(-0.672991 0.436531 -9.30832e-21)
(-0.375695 -0.339943 9.07715e-21)
(-1.09824 -0.275775 -6.94362e-21)
(-0.98836 0.555847 2.61415e-21)
(-0.943543 0.52698 -2.44059e-21)
(-1.35432 -0.472298 -8.97036e-22)
(-1.40272 -0.489205 0)
(-0.0842639 -0.121228 -2.93909e-21)
(-0.103029 -0.13895 -2.63633e-21)
(0.0483397 0.0145745 -1.29526e-20)
(-1.24715 -0.606247 4.76293e-21)
(-1.08914 0.547152 1.12668e-21)
(-1.12304 0.603531 -1.18903e-22)
(0.0516378 0.0212356 1.5085e-20)
(-1.41095 -0.592768 0)
(-0.800008 0.176275 -1.65489e-20)
(-1.05011 -0.634347 -1.93867e-21)
(0.0180017 0.0151563 0)
(0.0943331 -0.0175282 -1.65534e-20)
(-1.22235 0.480921 4.2171e-21)
(-1.45602 -0.745815 0)
(-0.783741 0.46258 1.34939e-20)
(-0.834213 0.481612 -1.00416e-20)
(-1.19099 -0.379902 5.2664e-21)
(-1.23957 -0.410101 1.94985e-21)
(-0.218485 -0.223004 -5.21116e-21)
(-0.172565 -0.188661 -2.61168e-21)
(0.0797037 -0.0243392 0)
(-1.38296 -0.857257 0)
(-1.34056 0.390682 1.40618e-21)
(-1.03772 0.588548 -1.72733e-21)
(0.0443209 0.0272708 0)
(-1.32055 -0.556371 0)
(-0.406844 -0.123258 2.03024e-23)
(-0.205991 -0.00380113 6.78756e-21)
(-0.315997 -0.198271 3.31422e-21)
(-1.13429 0.565476 -2.31649e-21)
(-1.33352 -0.636064 -1.1738e-21)
(0.0557142 0.0134704 7.08909e-22)
(-0.542671 0.308606 0)
(-0.914023 -0.274549 -9.79349e-21)
(-0.321745 -0.289907 -8.49525e-23)
(-1.28236 0.461564 1.57597e-22)
(-1.43402 -0.80017 4.81669e-21)
(0.0965319 -0.0171836 9.4456e-24)
(-1.05257 -0.615465 -1.16626e-22)
(0.0365796 -0.00432064 -5.53967e-21)
(-1.04816 0.455797 8.35821e-23)
(-0.259157 0.136338 -6.1898e-21)
(-0.44937 -0.335057 5.63785e-21)
(-0.618669 -0.13814 1.78209e-20)
(-0.412204 -0.0175586 0)
(-0.527478 -0.304298 -1.65097e-20)
(-0.110033 -0.0224807 8.29871e-21)
(-1.21343 0.592152 0)
(0.068566 0.00107345 7.58011e-21)
(-1.48618 -0.673794 -1.77143e-22)
(-0.442669 -0.00325486 0)
(-0.568331 -0.332492 -5.65578e-21)
(-0.0924672 -0.00402027 -1.17767e-20)
(-0.373376 -0.116456 7.0273e-21)
(-0.213119 -0.0285101 -3.58812e-21)
(-0.305551 -0.176355 1.76808e-21)
(-0.269898 0.208449 5.80838e-21)
(-0.86418 -0.0162513 -4.71912e-21)
(-0.885346 -0.696927 7.83037e-21)
(-0.477663 -0.0859276 0)
(-0.452037 -0.292412 0)
(-0.15873 0.0457301 9.91116e-22)
(-0.494836 -0.0498813 8.95462e-21)
(-0.525155 -0.333397 4.31003e-21)
(-0.136605 0.046122 1.3948e-22)
(-0.620328 0.40649 1.4147e-20)
(-1.03738 -0.245258 -7.29035e-21)
(-0.430186 -0.384739 -9.0128e-21)
(0.0686048 -0.0135335 1.14579e-20)
(0.0776096 -0.0121235 -1.16872e-20)
(-1.50591 -0.678577 1.07752e-21)
(-1.49335 -0.696667 8.59609e-22)
(-1.20582 0.574745 0)
(-1.22157 0.560971 -3.32342e-21)
(-1.25586 0.428875 6.55159e-21)
(-1.42564 -0.798462 -3.31372e-21)
(0.0965893 -0.0171294 1.01014e-20)
(-0.36097 -0.338216 -5.81569e-21)
(-0.725635 0.479563 2.91388e-21)
(-1.1558 -0.289007 8.84916e-21)
(-0.359361 0.217265 -5.96889e-21)
(-0.483058 -0.381756 -5.72992e-21)
(-0.748023 -0.165013 5.49312e-21)
(-0.935244 0.098069 0)
(-1.07914 -0.782651 4.90365e-21)
(-0.117196 0.106132 1.82037e-22)
(-1.17412 -0.707987 -4.28268e-22)
(0.0594708 -0.0226803 -5.17352e-21)
(-1.22758 0.454668 -6.09864e-22)
(0.059963 -0.00820027 0)
(-1.27762 0.333914 0)
(-1.369 -0.887762 2.41042e-21)
(-1.23831 0.55503 2.31116e-21)
(0.0767725 -0.00145879 0)
(-1.43023 -0.705741 -1.36921e-22)
(0.0287584 0.00121839 -2.06367e-32)
(-0.986687 -0.57726 2.73042e-21)
(-0.971012 0.44324 -3.24541e-22)
(-1.02931 -0.513717 -3.09397e-21)
(0.0277678 0.0145727 2.05875e-32)
(-0.920848 0.503188 2.68086e-22)
(-1.18965 -0.712104 -9.73432e-21)
(-0.944386 0.24954 0)
(0.0499335 0.00504084 -1.58876e-20)
(-1.32816 -0.813412 -1.2866e-22)
(0.0777761 -0.0314018 -5.29865e-21)
(-1.35395 0.426578 0)
(-1.06791 0.397586 -6.86087e-21)
(-1.34527 -0.702859 4.78828e-21)
(0.0828936 -0.0264565 8.15785e-21)
(-1.15257 0.649321 8.7592e-21)
(0.0223462 -0.0113423 4.55174e-21)
(-1.55626 -0.568664 0)
(-0.503531 0.145934 3.3825e-21)
(-0.0558479 -0.0811323 -3.21575e-21)
(-0.799749 -0.392704 3.12655e-21)
(-1.38504 -0.871381 1.13224e-21)
(0.0756166 -0.0202615 5.62341e-21)
(-1.32548 0.373736 1.81726e-21)
(-0.901569 0.0735224 -5.47911e-21)
(-0.146165 0.126649 -3.27308e-21)
(-1.03336 -0.756632 0)
(-1.17022 -0.786614 0)
(-0.980414 0.189003 0)
(-0.00869254 0.0446171 0)
(0.0077243 0.0071209 0)
(-0.589063 -0.310566 3.66129e-21)
(-0.562236 0.279902 -1.29622e-21)
(-1.18379 -0.642386 -1.47471e-21)
(0.0466984 0.00213186 -6.68131e-21)
(-1.10633 0.519085 -9.04998e-22)
(-0.452355 0.112005 -8.69273e-21)
(-0.0764127 -0.0851119 7.75114e-21)
(-0.718855 -0.357976 3.71298e-21)
(-1.40467 -0.821555 3.08441e-21)
(-1.32326 0.435564 -2.71086e-21)
(0.0898608 -0.0223103 0)
(0.0763825 -0.0284677 -5.87005e-21)
(-1.36156 0.393261 0)
(-1.35861 -0.859468 -2.34583e-21)
(-1.20258 0.510851 -3.86747e-21)
(0.0849749 -0.0189365 1.76578e-20)
(-1.47155 -0.711872 0)
(-0.018493 -0.068786 -1.31038e-20)
(-1.48586 -0.55224 3.3418e-21)
(-1.08279 0.58807 0)
(-0.596101 0.410352 -1.77811e-20)
(-1.02496 -0.22143 9.28751e-21)
(-0.496569 -0.437709 -2.84853e-21)
(-1.31505 -0.437038 1.34103e-21)
(-0.89736 0.525534 5.82353e-21)
(-0.15631 -0.176883 -8.09072e-21)
(-0.0202569 -0.0587178 -1.17122e-20)
(-1.11106 0.63511 0)
(-1.54177 -0.541085 0)
(-0.578404 0.301516 -2.98057e-21)
(-0.645259 0.338801 0)
(-0.935727 -0.328049 -1.01548e-20)
(-1.01507 -0.362339 1.0866e-20)
(-0.222815 -0.215514 1.44936e-21)
(-0.193869 -0.203565 -1.54419e-21)
(-0.530723 0.288942 2.86042e-21)
(-0.89381 -0.290406 0)
(-0.281204 -0.256089 2.73498e-21)
(-0.769648 0.475092 0)
(-1.18507 -0.357878 -8.52097e-21)
(-0.258168 -0.253429 1.87908e-21)
(-1.23655 -0.816607 -4.5066e-21)
(-1.05409 0.222263 4.87268e-21)
(0.0146453 0.0281786 -1.2572e-20)
(-1.41031 -0.834615 0)
(-1.27242 0.41459 9.58843e-21)
(0.0912994 -0.0174815 0)
(0.0534862 0.00647598 -4.06648e-21)
(-1.09484 0.280484 -2.93074e-21)
(-1.29356 -0.809471 -2.86977e-21)
(-1.09958 -0.524505 4.65777e-22)
(0.032677 0.0186373 3.56206e-21)
(-0.962396 0.526811 0)
(-0.337651 0.159645 5.74734e-21)
(-0.346428 0.148352 0)
(-0.318633 -0.254665 0)
(-0.667783 -0.209309 2.12841e-20)
(-0.273637 -0.224533 0)
(-0.66265 -0.232628 -1.35943e-20)
(-0.671472 0.41167 0)
(-0.599886 0.366969 0)
(-0.347916 -0.313579 2.30844e-23)
(-1.07375 -0.312604 5.77801e-21)
(-0.308756 -0.283024 1.37874e-20)
(-0.997708 -0.279466 -1.24678e-20)
(-1.03066 -0.638964 0)
(0.0409833 -0.0140444 7.5699e-21)
(-1.09908 0.441132 0)
(-1.41163 -0.814307 -2.35747e-21)
(-1.30716 0.436547 9.47235e-22)
(0.0927722 -0.0196983 3.54428e-21)
(-0.41009 0.263841 -1.01118e-20)
(-0.548833 -0.446812 -6.40463e-21)
(-0.820734 -0.157866 1.73949e-20)
(-1.1778 -0.831475 9.94284e-21)
(-1.0221 0.156668 1.25253e-20)
(-0.0580358 0.0717774 0)
(-0.0388117 -0.0854705 1.40129e-20)
(-1.46627 -0.534037 -3.5533e-21)
(-1.05802 0.583723 6.10061e-21)
(-1.30524 -0.696103 0)
(-1.22176 0.525584 0)
(0.0651987 -0.0044636 0)
(-1.32881 -0.726511 0)
(-1.25582 0.510173 1.78591e-21)
(0.0733699 -0.0122259 1.27678e-21)
(-0.826553 0.456696 -5.66933e-21)
(-1.22084 -0.434034 2.92791e-21)
(-0.140322 -0.167515 3.86202e-21)
(-0.203907 0.122724 -1.60905e-21)
(-0.585929 -0.419054 0)
(-0.619802 -0.0711217 -8.51428e-23)
(-1.22347 0.53062 4.5063e-21)
(0.0842596 -0.0151145 1.02262e-20)
(-1.48629 -0.711948 -1.00038e-21)
(-1.21671 -0.748283 0)
(-0.987765 0.255403 0)
(0.0485931 0.0116535 1.37115e-20)
(0.0545826 -0.04165 3.38427e-21)
(-1.41662 -0.645261 5.91929e-21)
(-1.08805 0.493261 1.37123e-20)
(-0.562817 0.351709 0)
(-0.398484 -0.350266 -9.32209e-21)
(-0.960374 -0.253639 6.49244e-21)
(-0.714827 0.0586092 9.20239e-23)
(-0.871052 -0.587853 5.38535e-21)
(-0.0859747 0.0782227 0)
(-0.307451 0.178186 4.896e-23)
(-0.487752 -0.378222 -1.91595e-21)
(-0.690186 -0.1472 -7.1945e-21)
(0.0908462 -0.0134112 7.05844e-24)
(-1.46938 -0.741508 1.98623e-21)
(-1.25087 0.517315 4.47631e-21)
(-0.997025 0.472077 -2.60301e-21)
(-1.35605 -0.581714 -2.04555e-21)
(0.0127331 -0.068713 0)
(-0.266719 0.127863 -6.23297e-21)
(-0.395415 -0.295467 1.23545e-20)
(-0.607693 -0.158098 -1.17603e-20)
(-1.12815 0.65083 3.67374e-21)
(-0.00784464 -0.0420322 5.1668e-21)
(-1.5612 -0.546687 -1.27875e-21)
(-0.479405 0.229032 -3.65809e-21)
(-0.814231 -0.300119 0)
(-0.219829 -0.210623 0)
(-0.521036 0.0504167 -1.59082e-20)
(-0.703703 -0.41851 3.44754e-21)
(-0.0519236 0.00446863 0)
(-1.15248 -0.745416 0)
(-0.936688 0.190277 1.05862e-20)
(0.00844932 0.0362508 0)
(-1.14595 0.62604 -1.57545e-21)
(0.0471231 0.0142574 -1.60696e-21)
(-1.4936 -0.595093 -8.10239e-22)
(-1.13966 0.640085 4.42436e-21)
(0.0385178 0.010434 0)
(-1.51825 -0.57702 -1.46717e-22)
(0.0396778 -0.0468662 3.02671e-21)
(-1.43493 -0.624195 -3.14172e-21)
(-1.08926 0.515602 -1.26294e-20)
(-0.752117 0.0401292 -4.91252e-21)
(-0.89665 -0.629052 -5.42344e-21)
(-0.122907 0.100737 0)
(0.0455392 0.0231978 1.47221e-21)
(-1.44513 -0.578203 7.48532e-22)
(-1.10074 0.616497 0)
(0.0899558 -0.0220869 0)
(-1.38138 -0.729729 -3.32519e-21)
(-1.12404 0.41377 -1.57464e-21)
(0.0208115 -0.00201447 6.07999e-21)
(-0.836899 -0.533535 -2.55914e-21)
(-0.876021 0.376038 0)
(-0.782754 0.471413 -3.57013e-23)
(-0.919623 -0.431129 0)
(0.0203858 0.0180332 6.06989e-21)
(-0.00870633 -0.0552668 -2.01337e-23)
(-1.52107 -0.562136 0)
(-1.11139 0.615254 0)
(0.0888713 -0.0110701 0)
(-1.43995 -0.749867 0)
(-1.27986 0.520506 5.2255e-21)
(-1.18445 0.56821 -4.09637e-21)
(-1.1613 0.548631 3.31361e-21)
(0.0587255 -0.0220916 -5.75456e-21)
(-1.51053 -0.652249 -4.25225e-22)
(0.0587745 -0.0279421 -9.39355e-21)
(-1.48916 -0.653999 1.05639e-21)
(-1.12592 0.388166 3.12331e-21)
(-1.368 -0.75203 2.32085e-21)
(0.0906943 -0.0180775 0)
(-0.107602 0.102572 0)
(-1.12764 -0.826196 0)
(-0.992664 0.119092 0)
(-0.329195 0.106564 0)
(-0.221312 -0.180091 -1.72224e-20)
(-0.607868 -0.238772 7.41432e-21)
(-1.08479 0.320235 9.19128e-21)
(-1.30843 -0.774427 9.59707e-22)
(0.0762672 -0.00597524 1.19491e-20)
(0.0626245 0.0025301 7.77749e-21)
(-1.06412 0.293239 -1.27876e-20)
(-1.27879 -0.781065 -1.32982e-21)
(-1.08366 0.642453 4.59322e-21)
(-0.0525897 -0.0832396 5.59674e-21)
(-1.53224 -0.507332 4.82972e-21)
(-0.697202 0.434816 0)
(-1.11007 -0.314738 2.54374e-21)
(-0.313871 -0.291767 -1.35155e-20)
(-0.59551 0.343791 0)
(-0.971479 -0.294954 1.28572e-20)
(-0.305984 -0.283384 -3.7463e-23)
(-0.942406 0.293527 -1.255e-20)
(-1.21639 -0.68418 1.31272e-21)
(0.0681078 -0.0162707 -6.93447e-21)
(-0.972901 0.288853 0)
(-1.22916 -0.709118 1.2409e-21)
(0.0670594 -0.00869422 6.34035e-21)
(-0.232488 0.0972931 0)
(-0.393812 -0.283146 -1.95236e-20)
(-0.555071 -0.141277 6.59692e-21)
(-0.668519 0.362551 0)
(-1.04123 -0.359824 0)
(-0.205847 -0.216564 2.07606e-21)
(0.0640484 -0.0171909 -1.21671e-20)
(-1.36689 -0.888753 -6.44553e-21)
(-1.32683 0.351262 0)
(-1.28273 0.486691 1.67488e-21)
(0.0724807 -0.0198219 0)
(-1.28364 -0.743238 -1.58498e-22)
(-1.27525 0.459455 -3.7051e-22)
(0.0671139 -0.0246237 0)
(-1.23752 -0.737053 7.42227e-22)
(-0.418941 0.233029 4.25587e-21)
(-0.367919 -0.302681 -2.0403e-21)
(-0.78059 -0.225819 -2.08383e-22)
(-1.22642 -0.671107 3.30498e-22)
(0.0568184 -0.00600503 1.02318e-20)
(-1.1881 0.507741 0)
(-1.04703 0.510308 1.10263e-20)
(0.0163253 -0.0613614 6.42113e-21)
(-1.40759 -0.592159 0)
(0.0536074 -0.0150479 -1.52223e-21)
(-1.16174 -0.687143 1.24325e-21)
(-1.18357 0.469157 0)
(-0.373775 0.01586 1.08006e-20)
(-0.117293 -0.0597248 1.05697e-20)
(-0.534607 -0.280546 1.27286e-23)
(-0.719733 0.27438 -1.90279e-21)
(-1.04505 -0.497077 -1.58862e-21)
(-0.00814628 -0.0806471 -7.26747e-21)
(-0.824459 -0.595617 1.23726e-20)
(-0.73533 0.00639849 1.16983e-20)
(-0.166125 0.12599 0)
(0.0815958 -0.028436 0)
(-1.35583 -0.823946 -3.99455e-22)
(-1.35118 0.427138 0)
(-1.19718 -0.763475 0)
(-0.985849 0.232161 0)
(0.0321207 0.0217838 0)
(0.0157555 -0.0253636 0)
(-1.15137 0.640163 -3.11476e-21)
(-1.55766 -0.571914 1.25607e-21)
(-0.786479 0.304168 0)
(-1.10441 -0.534653 8.22705e-22)
(0.0128454 -0.0693836 7.10021e-21)
(-0.307306 0.082219 0)
(-0.218742 -0.170401 1.48032e-20)
(-0.565793 -0.226034 0)
(-1.39183 -0.811925 -2.91255e-21)
(-1.32564 0.456497 2.57777e-21)
(0.0884082 -0.0233405 0)
(0.0821216 -0.0279768 -7.03119e-21)
(-1.41209 -0.701151 2.09129e-22)
(-1.12624 0.463324 3.27873e-22)
(-1.18976 0.598429 0)
(-1.17699 0.596344 2.41859e-21)
(0.0612108 0.00930807 -3.73022e-21)
(0.0609465 0.0120741 -4.57638e-21)
(-1.46906 -0.638179 2.17027e-22)
(-1.44034 -0.640344 -1.7858e-22)
(-0.698111 0.154008 0)
(-0.947167 -0.56555 2.12491e-20)
(0.00838691 0.00101203 7.84908e-21)
(-1.13126 -0.677625 1.36857e-20)
(-0.88538 0.21733 0)
(0.0395467 0.00887331 -8.46722e-21)
(-0.467243 0.0698152 -8.95004e-21)
(-0.686063 -0.375971 5.92912e-21)
(-0.0532551 -0.038688 1.27156e-20)
(-1.3288 -0.777459 5.27398e-22)
(-1.31606 0.472254 2.22246e-21)
(-1.31005 -0.79116 -1.07679e-22)
(0.0787892 -0.0231637 0)
(-1.33211 0.448196 -2.14407e-21)
(0.0761981 -0.0282932 0)
(-0.923536 0.365912 0)
(-1.23995 -0.611843 0)
(0.0485591 -0.0490248 7.78462e-21)
(-1.31489 0.475504 3.90453e-21)
(-1.31269 0.482079 -7.04822e-21)
(-1.40052 -0.789126 3.35214e-22)
(-1.37338 -0.773538 -1.59468e-21)
(0.0882614 -0.0195984 1.03759e-20)
(0.0837736 -0.0189066 -1.29204e-23)
(-0.843494 0.192574 0)
(-1.08569 -0.674632 -1.30841e-20)
(0.0170207 0.0238826 1.09742e-20)
(-0.634419 0.182218 8.43199e-21)
(-0.974141 -0.507485 -9.66881e-21)
(0.0122252 -0.0502271 0)
(-1.1624 0.639195 0)
(0.0366791 -0.00191428 0)
(-1.54006 -0.592164 1.40957e-22)
(-0.706142 0.18229 6.23018e-21)
(-0.973155 -0.552778 -5.91532e-21)
(0.0213768 -0.0139693 -1.29365e-20)
(-0.521545 0.10523 3.60799e-21)
(-0.771726 -0.425437 -6.96317e-21)
(-0.0291649 -0.0382757 7.2994e-21)
(-1.1698 0.613014 0)
(0.0542837 0.00955898 0)
(-1.49842 -0.62294 -2.78664e-22)
(-0.8078 0.334799 0)
(-1.14853 -0.523363 1.60599e-21)
(0.00193035 -0.0809337 -7.73764e-21)
(-1.01194 -0.763858 0)
(-0.907593 0.0510266 0)
(-0.188688 0.154666 -4.21182e-22)
(-0.567891 0.366931 -4.5841e-22)
(-0.973529 -0.236425 0)
(-0.433911 -0.380949 1.42794e-20)
(-1.30062 -0.896963 4.78716e-21)
(0.00294084 0.0250526 0)
(-1.18028 0.244191 0)
(0.015076 0.00803734 -1.46066e-20)
(-0.785621 -0.422369 -5.12194e-21)
(-0.743591 0.374689 1.81387e-21)
(-0.745085 0.237541 0)
(-1.03243 -0.54201 5.90528e-21)
(0.027848 -0.0433554 -6.54554e-21)
(-1.18496 0.609446 6.13017e-21)
(0.0494134 -0.0106804 1.93741e-20)
(-1.53293 -0.624562 0)
(-0.614904 -0.520594 -3.75402e-21)
(-0.940967 -0.157779 -6.31259e-21)
(-0.488986 0.343332 -3.97602e-21)
(-0.927106 0.54416 0)
(0.0345235 0.0264601 -5.37959e-21)
(-1.16237 -0.513913 0)
(-0.126667 0.0692058 7.92579e-21)
(-0.148308 0.0917415 -8.09322e-21)
(-0.618177 -0.416791 0)
(-0.560856 -0.0294423 7.59604e-21)
(-0.655705 -0.453355 -1.24368e-20)
(-0.604208 -0.0354058 -6.06931e-21)
(-0.468767 0.0390708 8.43382e-21)
(-0.644417 -0.368595 7.95158e-21)
(-0.0650093 -0.0151415 0)
(-0.213024 0.115136 7.11746e-21)
(-0.165017 0.085199 0)
(-0.509891 -0.366556 -7.00228e-21)
(-0.592734 -0.102195 6.78341e-21)
(-0.534684 -0.367794 7.05718e-21)
(-0.55365 -0.0711378 3.25931e-23)
(-0.693057 0.218103 5.29637e-22)
(-0.910114 -0.491797 -4.28286e-21)
(0.00329117 -0.0384963 -8.91577e-21)
(-0.640253 0.164419 -1.45307e-20)
(-0.913061 -0.506955 1.11376e-22)
(0.00541331 -0.0244621 0)
(0.0690234 -0.0307595 0)
(-1.24367 -0.76858 0)
(-1.31358 0.440991 1.45656e-21)
(-0.469986 0.251943 -3.92704e-21)
(-0.823797 -0.260473 0)
(-0.303288 -0.264229 3.77467e-21)
(-1.29363 0.492068 -8.55165e-21)
(-1.43156 -0.778288 1.07461e-21)
(0.0920912 -0.0151735 -5.91519e-21)
(-0.977167 0.334637 0)
(-1.03196 0.36026 6.60008e-21)
(-1.26214 -0.678227 -1.63763e-21)
(-1.30727 -0.701427 4.68777e-21)
(0.0748218 -0.0238923 -8.55629e-21)
(0.081685 -0.0226883 -7.87255e-21)
(-0.444714 0.223034 0)
(-0.787076 -0.268611 0)
(-0.270167 -0.241309 1.81879e-21)
(-0.739719 0.425438 4.51456e-21)
(-1.13129 -0.369669 0)
(-0.219837 -0.222633 4.48854e-21)
(-0.873434 0.303253 -3.56202e-21)
(-1.17261 -0.620667 0)
(0.0567911 -0.0340411 0)
(-0.241129 0.0205593 8.25288e-21)
(-0.454559 -0.16621 -4.00835e-21)
(-0.264219 -0.179084 4.0284e-21)
(-1.04488 0.326305 0)
(-1.29228 -0.741144 0)
(0.0784042 -0.0110559 -1.27109e-20)
(-0.300369 0.110032 0)
(-0.28011 -0.217611 2.15662e-21)
(-0.595812 -0.207269 0)
(-0.841383 0.215633 -8.18945e-21)
(-1.09405 -0.653309 -7.38613e-21)
(0.0375384 0.000800336 -1.10154e-21)
(-0.730112 0.399837 4.62279e-21)
(-1.11279 -0.387528 0)
(-0.182024 -0.200151 9.2739e-21)
(-0.250533 0.0503711 -8.17779e-21)
(-0.228626 0.053459 -3.61454e-21)
(-0.498719 -0.179698 3.97549e-21)
(-0.2736 -0.196512 -8.00639e-21)
(-0.497649 -0.157952 0)
(-0.321843 -0.228374 -1.41778e-20)
(-0.190878 0.0734251 -3.58545e-21)
(-0.435553 -0.304373 9.12402e-21)
(-0.165553 0.0714546 2.30345e-21)
(-0.521921 -0.108213 -9.19806e-21)
(-0.514042 -0.350406 -4.455e-21)
(-0.53207 -0.0778615 1.84571e-22)
(-0.554347 0.273825 4.33366e-21)
(-0.6088 0.290227 0)
(-0.902694 -0.336271 7.66948e-21)
(-0.95336 -0.375533 -5.9939e-21)
(-0.191473 -0.194324 -8.44798e-21)
(-0.140592 -0.162073 1.40468e-20)
(0.00246327 -0.060657 0)
(-1.46409 -0.577951 -1.84956e-21)
(-1.08283 0.560698 -6.26195e-21)
(-0.21488 0.172304 5.13964e-21)
(-0.864305 0.0192014 7.44222e-21)
(-0.941861 -0.716794 -1.23824e-20)
(0.0230007 -0.0449723 -6.56124e-21)
(0.04106 -0.0391968 5.26e-21)
(-1.48745 -0.60597 1.6014e-21)
(-1.47293 -0.627728 2.87489e-21)
(-1.11848 0.572263 1.58374e-20)
(-1.12725 0.549657 -8.21005e-21)
(-0.340825 0.241007 7.35424e-21)
(-0.687549 -0.540916 -6.06166e-21)
(-0.809346 -0.0942769 1.71673e-21)
(-0.257002 -0.0333906 1.40051e-20)
(-0.242926 -0.13144 0)
(-0.381696 -0.153981 -1.38096e-20)
(-1.0698 0.357732 -3.09987e-21)
(-1.32271 -0.735458 -5.29739e-21)
(0.0847608 -0.0165687 0)
(-0.381248 0.187001 0)
(-0.313059 -0.265984 -1.7325e-21)
(-0.717208 -0.226409 -6.86659e-21)
(-0.767156 0.413035 0)
(-1.15013 -0.412629 0)
(-0.151262 -0.177267 -8.62926e-21)
(-1.01793 0.551631 -6.95282e-21)
(-1.00848 0.526857 0)
(-1.41877 -0.530212 1.20518e-21)
(-0.0471541 -0.0961695 -8.09635e-21)