/*--------------------------------*- C++ -*----------------------------------*\
  =========                 |
  \\      /  F ield         | OpenFOAM: The Open Source CFD Toolbox
   \\    /   O peration     | Website:  https://openfoam.org
    \\  /    A nd           | Version:  6
     \\/     M anipulation  |
\*---------------------------------------------------------------------------*/
FoamFile
{
    version     2.0;
    format      ascii;
    class       volVectorField;
    location    "0";
    object      uRec;
}
// * * * * * * * * * * * * * * * * * * * * * * * * * * * * * * * * * * * * * //

dimensions      [0 1 -1 0 0 0 0];

internalField   nonuniform List<vector> 
10000
(
(9.89698e-06 1.18144e-05 0)
(6.6854e-05 -2.71712e-06 0)
(0.000171261 -1.66356e-05 0)
(0.000332485 -2.69676e-05 0)
(0.000540947 -3.45658e-05 0)
(0.000784206 -3.96265e-05 0)
(0.00104876 -4.18554e-05 0)
(0.00132006 -4.10192e-05 0)
(0.00158465 -3.73728e-05 0)
(0.00183124 -3.15431e-05 0)
(0.00205121 -2.44346e-05 0)
(0.00223872 -1.6957e-05 0)
(0.00239074 -9.82526e-06 0)
(0.00250688 -3.5864e-06 0)
(0.00258884 1.33244e-06 0)
(0.00264151 4.42112e-06 0)
(0.00266383 4.26964e-06 0)
(0.00268329 1.3168e-05 0)
(0.00264932 1.91613e-05 0)
(0.00260768 1.4471e-05 0)
(0.00255435 1.42964e-05 0)
(0.00249087 1.45103e-05 0)
(0.00241889 1.44783e-05 0)
(0.00234037 1.4269e-05 0)
(0.00225761 1.36993e-05 0)
(0.00217205 1.29845e-05 0)
(0.00208559 1.22381e-05 0)
(0.00199977 1.13112e-05 0)
(0.00191505 1.04216e-05 0)
(0.00183251 9.71011e-06 0)
(0.00175307 8.91889e-06 0)
(0.00167645 8.08717e-06 0)
(0.00160277 7.51851e-06 0)
(0.00153281 7.0612e-06 0)
(0.00146635 6.45416e-06 0)
(0.00140276 5.88114e-06 0)
(0.00134224 5.56859e-06 0)
(0.00128513 5.32942e-06 0)
(0.00123097 4.91776e-06 0)
(0.00117919 4.50487e-06 0)
(0.00112996 4.30725e-06 0)
(0.00108354 4.18345e-06 0)
(0.00103956 3.93408e-06 0)
(0.000997551 3.62285e-06 0)
(0.0009576 3.41664e-06 0)
(0.000919927 3.31917e-06 0)
(0.000884436 3.17653e-06 0)
(0.00085079 2.93877e-06 0)
(0.000818899 2.72408e-06 0)
(0.000788982 2.59981e-06 0)
(0.00076114 2.49992e-06 0)
(0.000735215 2.34424e-06 0)
(0.000711026 2.12305e-06 0)
(0.000688589 1.90521e-06 0)
(0.000668096 1.74868e-06 0)
(0.000649654 1.61318e-06 0)
(0.000633205 1.43573e-06 0)
(0.000618572 1.21796e-06 0)
(0.000605733 9.32201e-07 0)
(0.000595086 8.5976e-07 0)
(0.000585565 1.03542e-06 0)
(0.00057733 9.98962e-07 0)
(0.000569991 8.67356e-07 0)
(0.00056309 7.98025e-07 0)
(0.00055697 5.95277e-07 0)
(0.00055205 3.21446e-07 0)
(0.000548859 1.14269e-07 0)
(0.00054729 -3.21401e-08 0)
(0.000547037 -1.27099e-07 0)
(0.0005478 -2.04959e-07 0)
(0.000549351 -2.77017e-07 0)
(0.000551565 -3.22614e-07 0)
(0.000554413 -3.27734e-07 0)
(0.000557915 -3.30557e-07 0)
(0.000562095 -3.87199e-07 0)
(0.000567035 -5.00754e-07 0)
(0.000572996 -6.61421e-07 0)
(0.000580434 -9.14529e-07 0)
(0.000589938 -1.31172e-06 0)
(0.000602254 -1.86838e-06 0)
(0.000618373 -2.62113e-06 0)
(0.000639528 -3.65567e-06 0)
(0.000667149 -5.05688e-06 0)
(0.000702888 -6.87974e-06 0)
(0.000748622 -9.18322e-06 0)
(0.000806238 -1.20126e-05 0)
(0.000877344 -1.53368e-05 0)
(0.000962954 -1.90408e-05 0)
(0.00106306 -2.29324e-05 0)
(0.00117593 -2.6692e-05 0)
(0.00129733 -2.97926e-05 0)
(0.0014197 -3.14558e-05 0)
(0.00153157 -3.06928e-05 0)
(0.00161542 -2.55243e-05 0)
(0.00164795 -1.43055e-05 0)
(0.0015962 6.07337e-06 0)
(0.00142062 3.87244e-05 0)
(0.00108666 8.20139e-05 0)
(0.000607224 0.000121623 0)
(0.000123078 0.000116041 0)
(1.43238e-05 -2.69478e-05 0)
(0.000162325 -0.000143969 0)
(0.000438647 -0.000257756 0)
(0.000830316 -0.000353988 0)
(0.00131817 -0.000429411 0)
(0.00187757 -0.00048107 0)
(0.0024819 -0.000507332 0)
(0.00310358 -0.000508438 0)
(0.00371714 -0.00048681 0)
(0.00430099 -0.000446497 0)
(0.00483798 -0.000392598 0)
(0.00531549 -0.000330311 0)
(0.00572526 -0.000264378 0)
(0.00606297 -0.000199002 0)
(0.00632787 -0.000137808 0)
(0.00652104 -8.3636e-05 0)
(0.00665419 -4.01948e-05 0)
(0.00670002 6.40145e-07 0)
(0.00676591 5.04826e-05 0)
(0.00670795 8.77819e-05 0)
(0.00663956 0.000107513 0)
(0.00653499 0.000126151 0)
(0.00640061 0.000141324 0)
(0.00624169 0.000152874 0)
(0.00606392 0.000160682 0)
(0.00587215 0.000164875 0)
(0.00567086 0.000166219 0)
(0.00546439 0.000165233 0)
(0.00525575 0.000162297 0)
(0.00504762 0.000157998 0)
(0.00484255 0.000152805 0)
(0.00464206 0.000146951 0)
(0.0044471 0.000140734 0)
(0.00425885 0.000134403 0)
(0.00407793 0.000128063 0)
(0.00390441 0.000121831 0)
(0.00373843 0.000115823 0)
(0.00358009 0.000110088 0)
(0.00342919 0.00010455 0)
(0.00328542 9.92672e-05 0)
(0.00314863 9.43225e-05 0)
(0.00301867 8.9609e-05 0)
(0.00289513 8.50274e-05 0)
(0.00277767 8.06422e-05 0)
(0.00266625 7.64801e-05 0)
(0.00256078 7.24695e-05 0)
(0.00246099 6.85084e-05 0)
(0.00236662 6.45738e-05 0)
(0.00227763 6.0761e-05 0)
(0.00219411 5.7083e-05 0)
(0.00211604 5.34059e-05 0)
(0.0020432 4.96616e-05 0)
(0.00197545 4.58997e-05 0)
(0.00191288 4.21881e-05 0)
(0.00185564 3.85256e-05 0)
(0.00180374 3.48288e-05 0)
(0.00175697 3.10163e-05 0)
(0.00171521 2.70897e-05 0)
(0.00167903 2.32942e-05 0)
(0.00164717 1.98268e-05 0)
(0.00162167 1.69188e-05 0)
(0.00160072 1.55447e-05 0)
(0.00158025 1.44209e-05 0)
(0.00156263 1.27041e-05 0)
(0.00154642 1.08202e-05 0)
(0.00153221 8.01565e-06 0)
(0.00152212 4.85141e-06 0)
(0.00151609 2.0677e-06 0)
(0.00151359 -2.67833e-07 0)
(0.00151402 -2.17268e-06 0)
(0.00151692 -3.7247e-06 0)
(0.00152194 -5.02034e-06 0)
(0.00152888 -6.16965e-06 0)
(0.00153762 -7.34804e-06 0)
(0.00154827 -8.78329e-06 0)
(0.00156108 -1.06712e-05 0)
(0.00157656 -1.31865e-05 0)
(0.00159557 -1.65976e-05 0)
(0.00161937 -2.1263e-05 0)
(0.0016495 -2.75446e-05 0)
(0.0016879 -3.58359e-05 0)
(0.00173692 -4.65991e-05 0)
(0.00179928 -6.02779e-05 0)
(0.00187793 -7.71623e-05 0)
(0.00197596 -9.73246e-05 0)
(0.00209619 -0.000120499 0)
(0.00224058 -0.000145819 0)
(0.00240936 -0.000171607 0)
(0.00260021 -0.00019521 0)
(0.002807 -0.000212758 0)
(0.00301828 -0.000218866 0)
(0.00321568 -0.000206457 0)
(0.00337337 -0.000166703 0)
(0.00345181 -9.02574e-05 0)
(0.00341278 3.83617e-05 0)
(0.00318749 0.000232607 0)
(0.00272211 0.000488203 0)
(0.00198346 0.000758964 0)
(0.00103889 0.000904821 0)
(0.000159697 0.000623575 0)
(1.66852e-05 -0.000132431 0)
(0.000229197 -0.000411467 0)
(0.000621473 -0.000671249 0)
(0.00116462 -0.00089348 0)
(0.00183005 -0.00106837 0)
(0.0025851 -0.00118864 0)
(0.00339628 -0.00125186 0)
(0.0042311 -0.00126028 0)
(0.00506025 -0.0012198 0)
(0.00585877 -0.00113883 0)
(0.00660649 -0.00102696 0)
(0.00728803 -0.000893886 0)
(0.00789229 -0.00074864 0)
(0.00841202 -0.000599283 0)
(0.00884348 -0.000452748 0)
(0.00918538 -0.000314656 0)
(0.00943917 -0.000188701 0)
(0.00961491 -8.2669e-05 0)
(0.00969345 2.83474e-05 0)
(0.00974347 0.00012432 0)
(0.00971418 0.000185017 0)
(0.00963468 0.000247575 0)
(0.0095028 0.00030194 0)
(0.00932867 0.000345048 0)
(0.00911978 0.000377654 0)
(0.00888301 0.000400357 0)
(0.00862521 0.000414217 0)
(0.00835206 0.00042089 0)
(0.00806831 0.000421629 0)
(0.00777902 0.000417405 0)
(0.00748833 0.000409419 0)
(0.00719875 0.000398667 0)
(0.00691294 0.000385816 0)
(0.0066337 0.000371598 0)
(0.00636238 0.000356666 0)
(0.00609951 0.000341364 0)
(0.00584622 0.000325911 0)
(0.00560344 0.000310712 0)
(0.00537107 0.000296007 0)
(0.00514878 0.000281744 0)
(0.00493669 0.000267893 0)
(0.00473496 0.000254579 0)
(0.00454317 0.000241853 0)
(0.00436075 0.000229638 0)
(0.00418749 0.00021777 0)
(0.0040234 0.000206161 0)
(0.00386828 0.000194871 0)
(0.00372172 0.000183891 0)
(0.00358353 0.000173102 0)
(0.0034537 0.000162409 0)
(0.0033322 0.000151763 0)
(0.00321892 0.000141176 0)
(0.00311366 0.000130693 0)
(0.00301636 0.000120296 0)
(0.00292707 0.000109906 0)
(0.00284579 9.94635e-05 0)
(0.00277229 8.89518e-05 0)
(0.00270648 7.83741e-05 0)
(0.00264788 6.79419e-05 0)
(0.00259803 5.78802e-05 0)
(0.00255475 4.8548e-05 0)
(0.00251794 4.10377e-05 0)
(0.0024943 3.72974e-05 0)
(0.00246742 3.46003e-05 0)
(0.00244495 3.05232e-05 0)
(0.00242256 2.45174e-05 0)
(0.00240352 1.64115e-05 0)
(0.00239108 8.48608e-06 0)
(0.00238412 1.84317e-06 0)
(0.00238184 -3.65902e-06 0)
(0.00238352 -8.19363e-06 0)
(0.00238865 -1.20796e-05 0)
(0.00239684 -1.56569e-05 0)
(0.00240788 -1.92617e-05 0)
(0.00242178 -2.33142e-05 0)
(0.00243884 -2.83171e-05 0)
(0.00245967 -3.47812e-05 0)
(0.00248522 -4.328e-05 0)
(0.00251685 -5.4543e-05 0)
(0.00255637 -6.94096e-05 0)
(0.00260594 -8.8735e-05 0)
(0.00266811 -0.000113359 0)
(0.00274576 -0.000144016 0)
(0.00284192 -0.000181097 0)
(0.00295947 -0.000224386 0)
(0.00310077 -0.00027278 0)
(0.00326682 -0.000323852 0)
(0.00345635 -0.000373342 0)
(0.00366463 -0.000414715 0)
(0.00388218 -0.000438753 0)
(0.00409309 -0.000433141 0)
(0.00427332 -0.000382161 0)
(0.00438878 -0.000266911 0)
(0.00439736 -6.65438e-05 0)
(0.00423499 0.000245368 0)
(0.00384743 0.000682772 0)
(0.00318498 0.00121834 0)
(0.00223932 0.00173657 0)
(0.00112065 0.00194429 0)
(0.000149166 0.00125351 0)
(1.79662e-05 -0.000264628 0)
(0.000270844 -0.000753615 0)
(0.000737032 -0.0011913 0)
(0.00137614 -0.00156144 0)
(0.00215189 -0.00185049 0)
(0.00302563 -0.00204893 0)
(0.00395952 -0.00215488 0)
(0.00491894 -0.00217359 0)
(0.00587364 -0.00211549 0)
(0.00679838 -0.00199396 0)
(0.00767286 -0.00182327 0)
(0.00848148 -0.00161751 0)
(0.00921275 -0.00138971 0)
(0.00985861 -0.00115136 0)
(0.0104142 -0.000912396 0)
(0.0108769 -0.000681151 0)
(0.0112475 -0.000464187 0)
(0.0115287 -0.000266286 0)
(0.0117042 -9.8157e-05 0)
(0.0118962 6.32556e-05 0)
(0.0118894 0.000223429 0)
(0.0118596 0.00034324 0)
(0.0117642 0.000449072 0)
(0.0116151 0.000536657 0)
(0.0114207 0.000606338 0)
(0.0111867 0.000659514 0)
(0.0109205 0.000697451 0)
(0.0106288 0.000721927 0)
(0.0103171 0.000734964 0)
(0.00999081 0.000738262 0)
(0.00965567 0.000733424 0)
(0.0093157 0.000722106 0)
(0.00897449 0.000705743 0)
(0.00863582 0.000685527 0)
(0.00830234 0.00066255 0)
(0.00797584 0.000637789 0)
(0.0076583 0.000611997 0)
(0.00735134 0.000585749 0)
(0.00705552 0.000559484 0)
(0.00677119 0.000533538 0)
(0.00649903 0.000508141 0)
(0.00623941 0.000483475 0)
(0.00599204 0.000459561 0)
(0.00575648 0.000436318 0)
(0.00553271 0.000413717 0)
(0.00532084 0.000391753 0)
(0.00512057 0.000370374 0)
(0.00493137 0.000349451 0)
(0.00475298 0.000328831 0)
(0.00458544 0.000308439 0)
(0.0044287 0.000288281 0)
(0.00428253 0.000268344 0)
(0.00414664 0.000248572 0)
(0.00402087 0.000228896 0)
(0.00390525 0.000209293 0)
(0.00379972 0.000189806 0)
(0.00370406 0.000170479 0)
(0.00361791 0.000151309 0)
(0.00354108 0.000132173 0)
(0.00347286 0.000113297 0)
(0.00341488 9.53055e-05 0)
(0.00336737 7.86405e-05 0)
(0.00332347 6.54898e-05 0)
(0.00330127 5.94465e-05 0)
(0.00327455 5.62782e-05 0)
(0.0032493 4.95123e-05 0)
(0.00322166 3.65677e-05 0)
(0.00320018 2.16085e-05 0)
(0.00318661 8.80345e-06 0)
(0.00317902 -1.77976e-06 0)
(0.00317661 -1.06437e-05 0)
(0.00317864 -1.8273e-05 0)
(0.00318466 -2.52439e-05 0)
(0.00319433 -3.21523e-05 0)
(0.00320749 -3.96491e-05 0)
(0.00322433 -4.85057e-05 0)
(0.00324539 -5.9596e-05 0)
(0.00327152 -7.38769e-05 0)
(0.0033039 -9.24484e-05 0)
(0.00334414 -0.000116561 0)
(0.00339421 -0.000147482 0)
(0.00345631 -0.000186352 0)
(0.00353289 -0.000234054 0)
(0.0036264 -0.000290907 0)
(0.00373897 -0.000356214 0)
(0.00387198 -0.000427735 0)
(0.00402528 -0.000501086 0)
(0.0041962 -0.000568997 0)
(0.00437837 -0.000620583 0)
(0.00456033 -0.000640697 0)
(0.00472398 -0.000609448 0)
(0.00484275 -0.000501903 0)
(0.00488016 -0.000289346 0)
(0.0047906 6.3193e-05 0)
(0.00451608 0.000585082 0)
(0.00400713 0.00128017 0)
(0.00323095 0.00209011 0)
(0.00220299 0.00282046 0)
(0.00105746 0.00302485 0)
(0.000125022 0.00186453 0)
(1.80229e-05 -0.000410965 0)
(0.000295023 -0.00113963 0)
(0.000808354 -0.00177702 0)
(0.00150853 -0.00230846 0)
(0.00235261 -0.00271855 0)
(0.00329712 -0.0029979 0)
(0.00430108 -0.00314717 0)
(0.0053286 -0.0031761 0)
(0.00634952 -0.00310046 0)
(0.00733949 -0.00293893 0)
(0.00827941 -0.00271075 0)
(0.00915474 -0.00243423 0)
(0.00995493 -0.00212613 0)
(0.0106726 -0.00180098 0)
(0.0113028 -0.00147113 0)
(0.0118429 -0.00114715 0)
(0.0122916 -0.000837146 0)
(0.0126469 -0.000549336 0)
(0.0129227 -0.00029642 0)
(0.0130455 -4.16848e-05 0)
(0.0132212 0.000183541 0)
(0.0132628 0.000372798 0)
(0.0132431 0.000542535 0)
(0.013153 0.00068668 0)
(0.013006 0.000805031 0)
(0.0128098 0.00089944 0)
(0.0125714 0.000971881 0)
(0.0122981 0.0010244 0)
(0.0119957 0.00105919 0)
(0.0116704 0.00107855 0)
(0.0113282 0.00108472 0)
(0.0109737 0.00107975 0)
(0.0106113 0.00106556 0)
(0.0102457 0.00104396 0)
(0.0098805 0.00101667 0)
(0.00951828 0.00098514 0)
(0.00916186 0.000950522 0)
(0.00881383 0.000913865 0)
(0.0084757 0.000876081 0)
(0.00814849 0.000837892 0)
(0.00783342 0.000799763 0)
(0.00753147 0.000762006 0)
(0.00724281 0.000724888 0)
(0.00696741 0.00068858 0)
(0.00670551 0.000653125 0)
(0.00645733 0.000618502 0)
(0.00622263 0.000584639 0)
(0.00600096 0.000551424 0)
(0.00579208 0.000518756 0)
(0.00559603 0.000486579 0)
(0.00541268 0.000454851 0)
(0.0052417 0.000423476 0)
(0.00508269 0.000392373 0)
(0.00493542 0.000361531 0)
(0.0047999 0.000330979 0)
(0.00467603 0.000300773 0)
(0.00456342 0.000270972 0)
(0.00446159 0.000241605 0)
(0.00437022 0.000212661 0)
(0.00428894 0.000184018 0)
(0.00421721 0.00015585 0)
(0.00415522 0.000129375 0)
(0.00410705 0.000105317 0)
(0.00406047 8.62894e-05 0)
(0.00404117 7.92294e-05 0)
(0.00402017 7.67182e-05 0)
(0.00399291 6.5572e-05 0)
(0.00396063 4.41922e-05 0)
(0.00393855 2.30012e-05 0)
(0.00392355 6.16307e-06 0)
(0.00391444 -7.96247e-06 0)
(0.00391049 -2.01622e-05 0)
(0.00391107 -3.11915e-05 0)
(0.0039157 -4.19254e-05 0)
(0.00392411 -5.32626e-05 0)
(0.00393628 -6.62081e-05 0)
(0.00395255 -8.19479e-05 0)
(0.00397352 -0.00010181 0)
(0.00400004 -0.000127232 0)
(0.00403333 -0.000159755 0)
(0.0040749 -0.000200931 0)
(0.00412641 -0.000252127 0)
(0.00418958 -0.00031427 0)
(0.00426605 -0.000387448 0)
(0.00435713 -0.000470341 0)
(0.00446322 -0.000559484 0)
(0.00458321 -0.000648447 0)
(0.00471346 -0.000726876 0)
(0.00484674 -0.0007795 0)
(0.00497084 -0.000785296 0)
(0.00506719 -0.000716921 0)
(0.00510869 -0.000540539 0)
(0.00506088 -0.000217053 0)
(0.00487511 0.000296431 0)
(0.00450693 0.00102778 0)
(0.00391508 0.00196783 0)
(0.00308255 0.00302015 0)
(0.0020436 0.00391029 0)
(0.000942875 0.00405277 0)
(9.93006e-05 0.0024108 0)
(1.75828e-05 -0.000566031 0)
(0.00030995 -0.00155354 0)
(0.000854886 -0.00240538 0)
(0.00159509 -0.00310617 0)
(0.00248134 -0.00363944 0)
(0.00346611 -0.00399794 0)
(0.00450608 -0.00418714 0)
(0.0055647 -0.00422285 0)
(0.00661242 -0.00412709 0)
(0.00762622 -0.00392428 0)
(0.00858869 -0.00363884 0)
(0.00948702 -0.00329329 0)
(0.0103123 -0.00290778 0)
(0.0110588 -0.00249971 0)
(0.0117226 -0.00208342 0)
(0.0123021 -0.00167088 0)
(0.0127969 -0.00127156 0)
(0.0132066 -0.000893132 0)
(0.0135359 -0.000541441 0)
(0.0137785 -0.000241101 0)
(0.0139728 3.32417e-05 0)
(0.0140579 0.000320424 0)
(0.0140954 0.00056573 0)
(0.0140631 0.000774999 0)
(0.0139722 0.000950258 0)
(0.0138281 0.00109411 0)
(0.0136368 0.00120899 0)
(0.0134047 0.00129749 0)
(0.013137 0.00136217 0)
(0.0128397 0.00140557 0)
(0.0125187 0.00143021 0)
(0.0121787 0.00143864 0)
(0.0118242 0.00143331 0)
(0.0114604 0.00141642 0)
(0.0110913 0.00139006 0)
(0.0107199 0.00135611 0)
(0.0103499 0.00131627 0)
(0.0099845 0.00127208 0)
(0.00962595 0.00122485 0)
(0.00927596 0.00117559 0)
(0.00893643 0.00112519 0)
(0.008609 0.00107434 0)
(0.00829453 0.00102358 0)
(0.00799343 0.000973286 0)
(0.00770627 0.000923694 0)
(0.00743362 0.000874896 0)
(0.00717554 0.000826918 0)
(0.00693174 0.000779784 0)
(0.00670207 0.000733453 0)
(0.00648663 0.00068784 0)
(0.00628523 0.000642886 0)
(0.00609744 0.000598517 0)
(0.00592287 0.000554674 0)
(0.00576126 0.000511362 0)
(0.00561246 0.000468628 0)
(0.00547626 0.000426541 0)
(0.00535219 0.000385172 0)
(0.00523968 0.000344589 0)
(0.00513827 0.000304854 0)
(0.00504756 0.000266035 0)
(0.00496703 0.0002282 0)
(0.00489634 0.00019127 0)
(0.00483382 0.000156684 0)
(0.00478798 0.000125689 0)
(0.00474033 0.000100948 0)
(0.00473168 9.61718e-05 0)
(0.00471293 9.39942e-05 0)
(0.00468286 7.53951e-05 0)
(0.00464749 4.73641e-05 0)
(0.0046242 2.22759e-05 0)
(0.00460654 2.26596e-06 0)
(0.00459433 -1.49454e-05 0)
(0.00458684 -3.03493e-05 0)
(0.00458344 -4.50192e-05 0)
(0.00458372 -6.01122e-05 0)
(0.00458743 -7.68829e-05 0)
(0.00459462 -9.67644e-05 0)
(0.00460558 -0.000121354 0)
(0.00462083 -0.000152348 0)
(0.00464113 -0.000191503 0)
(0.00466739 -0.000240561 0)
(0.00470065 -0.000301026 0)
(0.00474191 -0.000373786 0)
(0.00479206 -0.000458623 0)
(0.00485158 -0.00055355 0)
(0.00492015 -0.000653931 0)
(0.00499594 -0.000751385 0)
(0.00507485 -0.000832581 0)
(0.00514935 -0.000878027 0)
(0.00520725 -0.000861105 0)
(0.00523041 -0.000747445 0)
(0.00519286 -0.000494828 0)
(0.00506042 -5.58224e-05 0)
(0.00479426 0.00061567 0)
(0.00435401 0.00154456 0)
(0.0037096 0.00270518 0)
(0.00285719 0.00396065 0)
(0.00184487 0.00495962 0)
(0.000819431 0.00499539 0)
(7.66102e-05 0.00288344 0)
(1.74868e-05 -0.000727086 0)
(0.000321433 -0.00198668 0)
(0.000889061 -0.00306225 0)
(0.0016561 -0.00393584 0)
(0.00256738 -0.00459056 0)
(0.0035718 -0.00502331 0)
(0.00462451 -0.00524635 0)
(0.00568891 -0.00528304 0)
(0.00673647 -0.00516253 0)
(0.00774563 -0.00491555 0)
(0.00870086 -0.00457174 0)
(0.00959142 -0.00415808 0)
(0.0104102 -0.00369785 0)
(0.0111532 -0.00321109 0)
(0.0118185 -0.00271422 0)
(0.0124052 -0.00222043 0)
(0.0129139 -0.00174044 0)
(0.0133453 -0.0012832 0)
(0.013701 -0.000855626 0)
(0.0139816 -0.000469597 0)
(0.0141753 -0.000103772 0)
(0.0143353 0.000232164 0)
(0.0144287 0.000539008 0)
(0.0144558 0.000807801 0)
(0.0144231 0.0010389 0)
(0.0143361 0.00123404 0)
(0.0141999 0.00139495 0)
(0.0140202 0.00152395 0)
(0.0138014 0.00162362 0)
(0.0135488 0.00169667 0)
(0.0132677 0.00174584 0)
(0.0129625 0.00177388 0)
(0.0126376 0.00178345 0)
(0.0122977 0.0017771 0)
(0.0119471 0.00175723 0)
(0.0115891 0.00172608 0)
(0.0112275 0.00168573 0)
(0.0108661 0.00163804 0)
(0.0105075 0.00158469 0)
(0.010154 0.00152712 0)
(0.00980812 0.00146655 0)
(0.00947207 0.00140409 0)
(0.00914723 0.00134059 0)
(0.00883458 0.00127667 0)
(0.00853521 0.00121278 0)
(0.00825004 0.00114935 0)
(0.00797955 0.00108661 0)
(0.00772375 0.00102469 0)
(0.00748266 0.000963658 0)
(0.00725644 0.000903507 0)
(0.00704505 0.000844242 0)
(0.0068481 0.000785855 0)
(0.00666513 0.000728326 0)
(0.0064958 0.00067168 0)
(0.00633994 0.000615982 0)
(0.00619723 0.000561317 0)
(0.00606706 0.000507774 0)
(0.00594876 0.00045547 0)
(0.00584182 0.000404553 0)
(0.0057458 0.000355174 0)
(0.00566011 0.000307459 0)
(0.00558403 0.000261456 0)
(0.00551703 0.000216692 0)
(0.00545661 0.000174969 0)
(0.00541517 0.000137386 0)
(0.00536226 0.000108633 0)
(0.00537504 0.000110719 0)
(0.00534822 0.000108952 0)
(0.0053134 8.07856e-05 0)
(0.00527964 4.83398e-05 0)
(0.00525412 2.17533e-05 0)
(0.00523266 -5.53495e-07 0)
(0.0052156 -2.02734e-05 0)
(0.00520224 -3.86363e-05 0)
(0.005192 -5.70436e-05 0)
(0.00518447 -7.69926e-05 0)
(0.00517944 -0.000100088 0)
(0.0051769 -0.000128081 0)
(0.00517703 -0.000162865 0)
(0.00518008 -0.000206385 0)
(0.00518647 -0.000260481 0)
(0.0051966 -0.000326671 0)
(0.00521087 -0.00040576 0)
(0.0052295 -0.000497265 0)
(0.00525231 -0.000598594 0)
(0.00527842 -0.000704003 0)
(0.00530564 -0.000803329 0)
(0.00532976 -0.000880544 0)
(0.00534339 -0.000912331 0)
(0.0053348 -0.000867028 0)
(0.00528697 -0.000703962 0)
(0.00517455 -0.000373505 0)
(0.00496891 0.000180763 0)
(0.00463511 0.0010026 0)
(0.00414108 0.0021123 0)
(0.00346535 0.00346549 0)
(0.00261473 0.00488477 0)
(0.00164678 0.00594744 0)
(0.000705444 0.00584445 0)
(5.838e-05 0.00328641 0)
(1.80033e-05 -0.000893631 0)
(0.000332326 -0.0024353 0)
(0.000917138 -0.00373954 0)
(0.00170172 -0.00478507 0)
(0.00262548 -0.00555616 0)
(0.00363448 -0.00605583 0)
(0.00468307 -0.00630485 0)
(0.00573514 -0.00633526 0)
(0.00676338 -0.00618412 0)
(0.00774788 -0.00588892 0)
(0.00867494 -0.00548465 0)
(0.009536 -0.00500269 0)
(0.0103261 -0.00446972 0)
(0.0110429 -0.00390795 0)
(0.0116864 -0.00333552 0)
(0.0122573 -0.00276666 0)
(0.0127572 -0.00221238 0)
(0.0131875 -0.00168159 0)
(0.0135485 -0.00118128 0)
(0.0138455 -0.000719707 0)
(0.0140584 -0.000308262 0)
(0.014234 6.90697e-05 0)
(0.0143759 0.000447178 0)
(0.0144504 0.000781542 0)
(0.0144683 0.0010701 0)
(0.0144344 0.00131718 0)
(0.0143526 0.00152503 0)
(0.0142278 0.0016961 0)
(0.0140633 0.00183317 0)
(0.0138635 0.00193905 0)
(0.0136327 0.00201662 0)
(0.0133746 0.00206865 0)
(0.013093 0.00209786 0)
(0.0127923 0.002107 0)
(0.0124764 0.00209867 0)
(0.0121486 0.00207526 0)
(0.0118126 0.00203911 0)
(0.0114724 0.00199235 0)
(0.0111309 0.00193693 0)
(0.0107905 0.00187462 0)
(0.0104543 0.00180702 0)
(0.0101249 0.00173548 0)
(0.00980408 0.00166119 0)
(0.00949323 0.00158513 0)
(0.00919398 0.00150805 0)
(0.00890778 0.00143061 0)
(0.0086354 0.00135334 0)
(0.00837714 0.00127659 0)
(0.00813335 0.00120058 0)
(0.00790447 0.00112547 0)
(0.00769055 0.00105139 0)
(0.00749128 0.000978464 0)
(0.00730627 0.000906754 0)
(0.00713522 0.000836331 0)
(0.00697786 0.000767276 0)
(0.00683377 0.000699707 0)
(0.00670232 0.000633781 0)
(0.00658277 0.000569678 0)
(0.00647451 0.000507577 0)
(0.00637696 0.000447663 0)
(0.00628951 0.000390119 0)
(0.00621141 0.000335081 0)
(0.00614174 0.000282512 0)
(0.00607938 0.000231686 0)
(0.00602317 0.000185169 0)
(0.00598437 0.000141791 0)
(0.00593086 0.000117821 0)
(0.00595855 0.000126022 0)
(0.00592489 0.000117192 0)
(0.00588398 8.25134e-05 0)
(0.00585157 4.93188e-05 0)
(0.00582184 2.3073e-05 0)
(0.00579508 2.78366e-08 0)
(0.00577109 -2.12488e-05 0)
(0.00574921 -4.21263e-05 0)
(0.00572894 -6.42099e-05 0)
(0.00570992 -8.92242e-05 0)
(0.00569186 -0.000119029 0)
(0.00567458 -0.000155619 0)
(0.00565799 -0.000201031 0)
(0.00564205 -0.000257155 0)
(0.00562665 -0.000325476 0)
(0.00561162 -0.000406701 0)
(0.00559663 -0.000500109 0)
(0.00558107 -0.000602595 0)
(0.00556368 -0.000707421 0)
(0.00554208 -0.000802799 0)
(0.00551208 -0.000870216 0)
(0.0054666 -0.000882716 0)
(0.00539449 -0.000803593 0)
(0.00527959 -0.000585179 0)
(0.00510028 -0.000170881 0)
(0.00483783 0.000483607 0)
(0.00444821 0.00144357 0)
(0.00391374 0.00271473 0)
(0.00322082 0.00423236 0)
(0.00238403 0.00577928 0)
(0.00146688 0.00686784 0)
(0.0006075 0.00660442 0)
(4.44689e-05 0.00362921 0)
(1.89427e-05 -0.00106567 0)
(0.000343186 -0.00289696 0)
(0.000941139 -0.00443123 0)
(0.00173561 -0.00564443 0)
(0.00266162 -0.00652419 0)
(0.00366326 -0.00708167 0)
(0.00469478 -0.00734764 0)
(0.00572086 -0.00736374 0)
(0.00671553 -0.00717545 0)
(0.00766072 -0.0068273 0)
(0.00854464 -0.00635995 0)
(0.0093607 -0.00580902 0)
(0.0101061 -0.00520467 0)
(0.0107808 -0.00457136 0)
(0.0113862 -0.00392851 0)
(0.011925 -0.00329113 0)
(0.0124002 -0.00267046 0)
(0.0128144 -0.00207484 0)
(0.0131695 -0.00151049 0)
(0.0134696 -0.000981938 0)
(0.0137105 -0.000499179 0)
(0.0138846 -8.89352e-05 0)
(0.0140488 0.000322458 0)
(0.014154 0.000713867 0)
(0.0142064 0.00105409 0)
(0.0142156 0.00134911 0)
(0.0141823 0.00160133 0)
(0.0141095 0.00181319 0)
(0.0139992 0.00198754 0)
(0.0138541 0.00212716 0)
(0.0136776 0.00223486 0)
(0.0134724 0.00231345 0)
(0.0132414 0.00236555 0)
(0.0129887 0.00239383 0)
(0.0127177 0.00240098 0)
(0.0124312 0.00238947 0)
(0.0121329 0.00236169 0)
(0.0118264 0.00231999 0)
(0.0115148 0.00226656 0)
(0.0112006 0.00220334 0)
(0.010887 0.00213215 0)
(0.0105768 0.00205466 0)
(0.0102721 0.00197233 0)
(0.00997476 0.00188642 0)
(0.00968665 0.00179806 0)
(0.00940957 0.00170813 0)
(0.00914474 0.00161744 0)
(0.0088928 0.00152661 0)
(0.00865433 0.00143612 0)
(0.00843001 0.00134633 0)
(0.00822019 0.00125758 0)
(0.00802476 0.00117013 0)
(0.00784334 0.00108421 0)
(0.00767566 0.000999935 0)
(0.00752149 0.000917482 0)
(0.00738047 0.000837063 0)
(0.00725189 0.000758904 0)
(0.00713492 0.000683195 0)
(0.00702886 0.000610146 0)
(0.00693314 0.000540017 0)
(0.00684708 0.000473057 0)
(0.00676988 0.000409433 0)
(0.00670056 0.000349179 0)
(0.00663823 0.000292043 0)
(0.0065804 0.000237191 0)
(0.00653374 0.000188162 0)
(0.00648746 0.000140138 0)
(0.00646843 0.000129848 0)
(0.00647395 0.000141831 0)
(0.00643709 0.000122522 0)
(0.00639247 8.70936e-05 0)
(0.00635604 5.61589e-05 0)
(0.00631986 3.05942e-05 0)
(0.00628535 7.45584e-06 0)
(0.00625184 -1.47125e-05 0)
(0.00621859 -3.75836e-05 0)
(0.0061851 -6.29911e-05 0)
(0.00615089 -9.28555e-05 0)
(0.00611552 -0.000129169 0)
(0.00607858 -0.000173966 0)
(0.0060397 -0.000229163 0)
(0.00599836 -0.000296236 0)
(0.00595393 -0.000375763 0)
(0.00590566 -0.000466787 0)
(0.00585265 -0.00056579 0)
(0.00579346 -0.000665258 0)
(0.0057257 -0.000752041 0)
(0.00564554 -0.000805508 0)
(0.00554681 -0.000795645 0)
(0.00542031 -0.000681848 0)
(0.00524974 -0.000414125 0)
(0.00502571 5.8385e-05 0)
(0.00469165 0.000837076 0)
(0.00425829 0.00192671 0)
(0.00369424 0.00334043 0)
(0.00299382 0.00499611 0)
(0.00217721 0.00663884 0)
(0.00131121 0.00772259 0)
(0.000526568 0.00728506 0)
(3.41906e-05 0.00392243 0)
(2.01085e-05 -0.00124324 0)
(0.000353459 -0.0033692 0)
(0.000960593 -0.00513188 0)
(0.00175791 -0.00650579 0)
(0.00267721 -0.00748459 0)
(0.00366153 -0.0080897 0)
(0.00466542 -0.00836295 0)
(0.00565471 -0.00835635 0)
(0.0066049 -0.00812413 0)
(0.00749967 -0.00771803 0)
(0.0083293 -0.00718468 0)
(0.00908921 -0.00656407 0)
(0.00977864 -0.00588955 0)
(0.0103996 -0.00518786 0)
(0.0109556 -0.00447967 0)
(0.0114508 -0.00378053 0)
(0.0118897 -0.00310177 0)
(0.0122764 -0.00245146 0)
(0.0126144 -0.00183556 0)
(0.0129086 -0.00125757 0)
(0.0131537 -0.000729329 0)
(0.0133722 -0.00026584 0)
(0.0135048 0.0001833 0)
(0.013636 0.000626713 0)
(0.0137096 0.00100834 0)
(0.0137542 0.00134194 0)
(0.0137637 0.00163152 0)
(0.0137386 0.00187953 0)
(0.0136792 0.00208848 0)
(0.0135871 0.00226071 0)
(0.0134646 0.00239858 0)
(0.0133133 0.00250459 0)
(0.0131355 0.00258126 0)
(0.0129346 0.00263099 0)
(0.0127134 0.00265631 0)
(0.0124744 0.00265977 0)
(0.0122208 0.00264376 0)
(0.0119561 0.00261065 0)
(0.0116831 0.00256273 0)
(0.0114042 0.00250212 0)
(0.0111225 0.0024308 0)
(0.0108411 0.00235062 0)
(0.0105621 0.00226328 0)
(0.0102875 0.00217028 0)
(0.0100194 0.00207303 0)
(0.00976009 0.00197271 0)
(0.00951088 0.00187038 0)
(0.00927269 0.00176692 0)
(0.00904643 0.00166309 0)
(0.00883307 0.00155956 0)
(0.00863319 0.00145687 0)
(0.0084468 0.00135546 0)
(0.0082737 0.0012557 0)
(0.00811374 0.00115794 0)
(0.00796678 0.00106247 0)
(0.00783247 0.000969562 0)
(0.0077101 0.000879519 0)
(0.0075988 0.000792614 0)
(0.0074979 0.000709126 0)
(0.00740674 0.000629341 0)
(0.00732458 0.000553524 0)
(0.00725054 0.000481893 0)
(0.00718362 0.000414554 0)
(0.00712264 0.000351413 0)
(0.0070668 0.00029172 0)
(0.00701069 0.000235095 0)
(0.00697256 0.000183419 0)
(0.00690291 0.000142082 0)
(0.00693142 0.00015054 0)
(0.00690518 0.000156984 0)
(0.00686494 0.000128739 0)
(0.00682271 9.64938e-05 0)
(0.00678105 7.01387e-05 0)
(0.00673789 4.68166e-05 0)
(0.00669403 2.48246e-05 0)
(0.00664876 2.6459e-06 0)
(0.00660154 -2.15217e-05 0)
(0.00655185 -4.95967e-05 0)
(0.00649907 -8.35461e-05 0)
(0.00644257 -0.000125351 0)
(0.00638165 -0.000176893 0)
(0.00631556 -0.00023963 0)
(0.00624332 -0.000314041 0)
(0.00616387 -0.000398942 0)
(0.00607601 -0.000490467 0)
(0.00597822 -0.000580529 0)
(0.00586809 -0.000654895 0)
(0.00574199 -0.000691136 0)
(0.00559417 -0.000656538 0)
(0.00541568 -0.000506379 0)
(0.00519418 -0.000183277 0)
(0.00490085 0.000389509 0)
(0.00453674 0.00124294 0)
(0.00407189 0.0024412 0)
(0.00349055 0.00397886 0)
(0.00279053 0.00574982 0)
(0.00199739 0.00746189 0)
(0.00117991 0.00851682 0)
(0.000461083 0.00789746 0)
(2.6731e-05 0.00417579 0)
(2.1392e-05 -0.00142607 0)
(0.000362233 -0.00384925 0)
(0.000974073 -0.00583588 0)
(0.00176746 -0.00736149 0)
(0.00267187 -0.00842851 0)
(0.0036302 -0.00907049 0)
(0.00459769 -0.00934124 0)
(0.00554143 -0.00930347 0)
(0.00643857 -0.00902052 0)
(0.00727453 -0.00855161 0)
(0.00804156 -0.00794931 0)
(0.00873717 -0.00725824 0)
(0.00936265 -0.00651489 0)
(0.00992199 -0.00574802 0)
(0.0104206 -0.00497943 0)
(0.0108642 -0.00422505 0)
(0.0112587 -0.00349592 0)
(0.011609 -0.00279971 0)
(0.01192 -0.00214213 0)
(0.0121932 -0.00152786 0)
(0.0124346 -0.000964224 0)
(0.0126755 -0.000433583 0)
(0.0127535 5.50142e-05 0)
(0.0129202 0.000520298 0)
(0.0130212 0.000930123 0)
(0.0131041 0.00129483 0)
(0.0131555 0.00161681 0)
(0.0131752 0.00189752 0)
(0.0131633 0.00213858 0)
(0.0131207 0.00234177 0)
(0.0130491 0.00250901 0)
(0.0129498 0.00264234 0)
(0.0128242 0.00274396 0)
(0.0126752 0.00281618 0)
(0.0125051 0.0028613 0)
(0.0123159 0.00288174 0)
(0.0121103 0.00287987 0)
(0.0118915 0.00285805 0)
(0.0116619 0.00281856 0)
(0.0114238 0.00276358 0)
(0.0111801 0.00269519 0)
(0.0109338 0.00261538 0)
(0.0106871 0.002526 0)
(0.010442 0.00242877 0)
(0.0102009 0.00232527 0)
(0.00996582 0.00221695 0)
(0.00973852 0.0021051 0)
(0.00952015 0.00199093 0)
(0.00931181 0.00187546 0)
(0.00911467 0.00175961 0)
(0.00892947 0.00164416 0)
(0.00875649 0.00152979 0)
(0.00859572 0.00141711 0)
(0.00844709 0.00130664 0)
(0.00831056 0.0011988 0)
(0.00818588 0.00109403 0)
(0.0080724 0.000992731 0)
(0.00796929 0.000895288 0)
(0.00787582 0.000802034 0)
(0.00779134 0.000713275 0)
(0.00771509 0.000629328 0)
(0.0076462 0.000550496 0)
(0.00758362 0.000476987 0)
(0.00752622 0.000408841 0)
(0.00747286 0.000345841 0)
(0.00742267 0.000286641 0)
(0.00737099 0.000231991 0)
(0.00733272 0.000178282 0)
(0.00727527 0.000154402 0)
(0.00730686 0.000175292 0)
(0.007267 0.000171692 0)
(0.00721773 0.000143203 0)
(0.00717168 0.000116197 0)
(0.00712179 9.45514e-05 0)
(0.00706932 7.46553e-05 0)
(0.00701387 5.49578e-05 0)
(0.00695471 3.38372e-05 0)
(0.00689127 9.45806e-06 0)
(0.00682289 -2.00912e-05 0)
(0.00674876 -5.67027e-05 0)
(0.00666797 -0.000102147 0)
(0.00657955 -0.000157801 0)
(0.00648237 -0.000224081 0)
(0.0063751 -0.000299635 0)
(0.00625631 -0.000380292 0)
(0.00612436 -0.000457471 0)
(0.00597694 -0.000516038 0)
(0.00581056 -0.000531938 0)
(0.00561992 -0.000469916 0)
(0.00539683 -0.000281547 0)
(0.00512815 9.42334e-05 0)
(0.00480068 0.00072446 0)
(0.0044014 0.00167061 0)
(0.0039085 0.00297483 0)