/*--------------------------------*- C++ -*----------------------------------*\
  =========                 |
  \\      /  F ield         | OpenFOAM: The Open Source CFD Toolbox
   \\    /   O peration     | Website:  https://openfoam.org
    \\  /    A nd           | Version:  6
     \\/     M anipulation  |
\*---------------------------------------------------------------------------*/
FoamFile
{
    version     2.0;
    format      ascii;
    class       volScalarField;
    location    "0";
    object      p;
}
// * * * * * * * * * * * * * * * * * * * * * * * * * * * * * * * * * * * * * //

dimensions      [0 2 -2 0 0 0 0];

internalField   nonuniform List<scalar> 
13046
(
0.957209
0.996222
1.09411
0.974555
1.06268
1.03531
0.944611
1.04091
1.07809
0.49459
0.905983
1.07952
0.91362
1.00261
1.08697
0.58845
1.09877
0.884125
1.03946
1.0607
0.989159
0.575648
1.09525
0.89186
0.977638
1.02606
1.07398
0.892133
0.989716
1.0989
0.964227
0.983711
1.09076
1.00292
1.06832
1.01931
1.00603
1.06716
1.0315
0.984404
1.10092
0.927277
1.02085
1.04736
1.03733
1.01006
1.03746
1.05532
0.936588
1.00458
1.09193
1.09834
1.00211
0.850982
1.10477
0.815757
1.01318
0.867195
0.791445
1.11929
0.802615
1.03578
1.07332
1.08521
0.952602
0.642976
0.822644
0.859032
1.11936
0.846779
0.861577
1.11863
0.85982
0.768262
1.1184
1.03387
1.07444
0.97002
1.11518
0.715508
0.869887
0.96341
1.03196
1.07367
1.08419
0.944457
0.610455
0.616841
1.06868
0.999489
1.04486
0.564804
1.0292
0.794464
0.763873
0.97905
0.979198
1.09157
1.09381
1.06522
0.625643
1.01348
0.998278
1.04379
1.05247
1.04126
0.843941
1.09377
0.996415
1.10326
0.87629
0.372304
1.07256
0.861076
0.929318
1.01147
1.08055
0.762128
0.789718
0.945403
1.1003
0.960579
1.09879
0.468822
0.889517
1.08074
0.852276
0.973425
1.10082
0.970039
1.10062
0.936949
1.03854
0.594402
1.04385
0.709685
0.984463
1.08266
0.946265
0.982239
1.09091
0.876108
1.06354
1.06119
1.00047
1.09896
0.865264
1.0379
0.865453
1.09088
0.787092
1.02197
1.0728
1.06389
0.915679
1.07098
1.08953
0.781927
1.08126
0.764637
1.03235
1.0393
0.877421
1.0633
1.04554
0.49411
1.07324
0.926016
0.410535
1.07598
0.870203
0.694052
0.971107
1.08838
0.955231
0.899499
1.11187
0.890669
1.03894
1.06977
1.07238
0.951382
0.510064
0.966875
0.911566
1.10541
1.05782
0.898673
1.07552
0.897538
1.06129
1.05659
1.00344
1.0903
0.869134
0.987661
1.09334
0.593317
1.07315
0.970271
1.05279
0.62941
1.03333
0.567479
1.01605
1.04731
1.10617
0.808961
0.983865
0.903606
0.723853
1.1195
0.858126
0.995567
0.544667
1.05615
0.992133
1.06248
1.04242
0.910071
0.984208
1.10127
1.04774
0.620697
1.04434
0.883217
1.01455
1.08939
1.06917
0.907757
0.428138
0.993409
0.796184
1.10294
0.602727
1.02301
1.0531
0.817138
1.07318
1.04921
0.846337
0.963325
1.10319
1.06968
0.660714
1.02707
0.734506
1.08028
1.03119
1.06366
0.916579
0.404291
0.993167
1.11042
0.876523
0.401854
1.08191
0.818378
1.0421
0.985532
1.05706
0.816861
0.83493
1.06114
1.06951
1.05863
1.05245
1.11058
0.683371
0.869333
0.875133
0.964872
1.10127
0.717375
1.06744
1.04197
0.732574
0.966566
1.092
1.0311
1.02516
1.05527
0.784374
1.07118
1.04568
0.873335
0.946439
1.10619
0.883269
0.867163
0.993064
1.11049
0.864083
0.767747
1.06099
1.05005
0.700017
1.08971
0.969674
1.01746
1.0963
0.899295
1.02772
0.770652
1.09037
0.801443
0.92826
1.10515
0.995139
1.10212
0.85537
0.77446
0.755776
0.92478
1.10528
0.928281
1.1061
1.0741
0.953658
0.534695
0.813314
0.957885
1.10293
0.809264
1.07087
0.315627
0.953782
1.03694
1.06488
0.827835
1.03549
1.07394
1.07727
0.630766
0.977027
1.1071
0.790484
1.00894
1.05852
0.647345
1.03587
1.03101
1.08259
0.809245
1.0135
1.08385
1.03217
1.07606
0.622316
1.09944
0.892623
1.11376
0.798745
0.976874
0.784967
1.01351
1.08226
0.866871
1.06133
1.06336
0.856436
1.09169
1.02618
0.959197
1.01752
1.08114
1.01009
0.782379
1.09503
0.581431
0.990156
1.06387
1.05858
0.648458
1.04218
0.878637
1.11671
0.860982
0.737895
0.763893
0.902161
0.895882
1.10783
1.1086
1.07356
0.817523
0.340093
0.425015
1.08497
0.825303
0.794219
1.05941
1.04862
1.07406
0.575159
0.955298
0.836195
0.816632
0.892968
0.899473
1.11539
1.11384
1.04421
0.992712
0.478821
0.381175
1.08378
0.790584
1.00089
1.03196
1.06313
0.367767
0.83198
1.07638
0.934543
0.91685
1.10917
0.519483
0.96211
1.06866
0.840385
1.05968
0.243362
0.997611
1.09609
0.937036
0.958905
1.06542
1.05085
0.483307
1.08506
0.877478
0.943479
1.06801
1.0505
1.01035
1.03592
1.05786
1.00481
0.766944
1.10788
0.95093
1.08291
1.03069
0.964082
1.06876
1.02825
0.90192
0.854504
1.11677
1.09111
1.08713
0.905542
0.912549
0.545708
0.536986
0.548867
0.990913
1.06083
1.12314
0.864512
0.844986
0.977236
1.10398
0.903523
0.727047
1.0828
1.01769
0.901976
1.05095
0.297371
1.04881
0.551332
1.01868
0.429018
1.07564
0.886469
1.06113
0.820776
0.23375
0.78381
1.06914
0.275174
1.04534
0.738704
1.05581
0.966329
1.04308
0.399173
0.687535
0.9939
1.07858
0.546533
1.10024
0.844409
0.920633
1.07775
1.02978
1.00136
1.04679
0.503127
0.744184
1.01385
1.08626
1.06033
0.713358
1.05095
1.06373
0.732392
0.160173
0.837547
1.06556
0.28941
0.943528
1.07619
1.02739
0.983025
0.476546
1.05108
1.04435
0.450856
0.990813
0.583011
1.07952
0.949343
1.1053
0.895643
0.666945
0.920109
0.831497
1.12281
0.886375
0.790793
1.11685
1.10865
0.633037
0.858236
0.912942
0.894547
0.944146
0.937575
1.10608
1.10638
0.929544
0.93435
1.10696
0.852615
0.871269
1.12143
1.05895
0.676808
1.04332
0.985352
0.541736
1.06474
1.05004
0.663236
1.03966
0.783083
1.07237
0.303132
0.988876
0.978366
1.09708
0.956429
1.09454
0.9713
0.89339
0.901235
1.11426
0.884175
1.1175
0.89102
0.859566
1.05355
0.25545
0.984721
0.501515
1.05438
0.96693
1.10673
0.870423
1.07511
0.68698
1.02769
1.1075
0.892443
0.68914
0.878457
0.35059
1.0654
0.8989
0.365374
1.06241
0.820593
0.913617
1.1131
1.0284
1.08895
0.90955
0.554436
1.08017
0.931927
1.04701
0.713714
1.06251
1.09243
0.948411
0.675079
0.91855
1.11724
0.878986
0.832781
1.07971
1.03683
0.991048
1.10246
0.90956
1.07647
0.938375
0.525804
0.731212
0.94882
1.09834
1.00116
1.09307
0.952494
0.599828
1.10742
0.849141
0.932218
0.963413
1.10113
0.921859
1.059
1.06193
1.06099
0.732028
1.04799
0.467352
1.09246
0.829128
0.490518
1.09629
0.826288
1.09676
0.933745
0.673181
0.810714
1.09009
1.02532
1.09089
0.81031
0.431746
1.07551
0.987138
0.655692
1.05762
0.809986
0.210899
0.250637
0.752087
1.07142
1.10631
0.875094
0.640344
1.07033
0.926555
0.465561
0.583594
0.610768
1.08912
0.908712
1.08998
0.923828
0.64968
1.00261
1.07041
1.0318
1.0851
0.693844
0.990855
1.08143
0.996834
0.672364
1.02251
1.06471
1.06143
0.685906
1.03148
0.659261
1.11184
0.851411
0.881416
0.871122
1.12016
0.914772
0.913688
1.10842
0.743951
1.02895
1.07664
0.728644
1.03107
1.07023
1.01127
1.08305
0.971719
0.887905
0.91871
1.11246
1.04155
1.01513
0.508553
0.354657
1.05565
0.917748
0.325503
1.0509
0.92405
0.96097
1.10586
0.92645
0.87224
1.06086
0.314849
0.703759
1.09878
0.932991
1.05626
0.881281
0.287416
0.98493
1.05725
1.04462
0.854773
1.00412
1.08649
1.0922
0.829634
1.02106
1.04467
0.973876
0.430696
1.04835
0.719103
1.05616
1.10189
0.576509
0.858097
0.822363
1.00161
1.09407
1.00092
1.08006
1.002
0.960145
0.447089
1.0559
1.08536
0.966671
0.650547
0.459024
0.433821
1.08364
1.08156
0.862843
0.852775
0.840224
1.05282
1.06531
1.04948
0.762466
1.05247
0.931762
1.04675
1.0759
0.936928
0.387262
0.945032
1.05519
0.381874
1.04958
0.766789
0.991032
1.09026
0.441782
0.411754
0.947007
0.937778
1.0604
1.0573
0.774486
1.05765
1.06544
0.869896
1.03033
1.07807
0.522022
1.09815
0.845741
0.849383
1.03811
1.06938
0.915834
1.04319
1.06814
0.466538
1.08971
0.847281
0.822261
0.985189
1.09024
1.09838
0.734671
1.00919
0.923312
0.861658
1.11787
1.0561
1.03038
0.608309
1.06439
0.755421
0.18995
0.829992
1.02667
1.07924
0.545057
1.09158
0.879735
1.11855
0.813835
0.949859
0.309442
1.0783
0.773867
1.03764
1.02418
1.08156
0.911403
1.0875
0.896013
0.937933
1.05511
1.06116
1.00924
1.02721
1.09012
0.92828
1.0903
0.91613
0.851162
1.03412
1.08069
0.870412
1.042
1.07509
1.04657
0.93877
0.345259
0.947512
0.941944
1.10161
0.470083
0.941747
1.06751
0.730034
0.702517
1.01498
1.00742
1.07463
1.07213
0.945281
0.958824
1.101
0.856351
0.908261
1.11225
0.777498
1.01402
1.08481
1.0135
1.01214
1.068
0.696302
1.02022
1.06795
0.989237
1.08297
0.990811
0.78713
1.04496
1.06913
0.855984
0.927535
1.11028
1.00758
1.01255
0.996837
1.08009
0.988155
1.08146
1.01809
1.07786
1.03069
0.965586
1.08815
0.928894
0.916684
0.902937
0.957188
0.970445
1.1037
1.09994
1.1019
0.908232
0.673632
1.00421
0.763252
1.09958
1.10113
1.09681
0.905556
0.921392
0.643337
0.639663
0.984894
1.11027
0.830143
1.02257
1.05645
1.0284
0.685365
1.00786
1.07202
0.976402
1.09734
0.951791
0.840471
0.931579
1.10939
0.723202
0.728569
0.900122
1.10908
0.916031
1.10504
0.73827
0.995419
1.08217
0.336206
0.797036
1.0787
1.11393
0.818603
0.961145
0.935505
0.942635
1.11797
0.833496
1.12046
0.838274
0.684527
1.04647
1.0514
0.873268
0.903838
1.11379
0.975539
1.11036
0.844252
0.944582
0.944725
1.11033
1.11692
0.875519
0.877872
0.934383
1.11814
0.854194
0.747389
1.00646
1.08201
1.00441
1.08208
0.984876
0.507256
1.08573
0.88308
0.96578
1.11463
0.834446
0.847088
0.819987
0.944736
0.940499
1.10459
1.10839
1.08913
0.888625
0.528955
0.523105
1.09476
0.858714
0.498047
1.08958
0.864105
0.701456
1.10297
0.918709
0.888448
0.916074
1.11206
1.08557
1.20818
1.16155
1.09034
1.20051
0.941539
1.21227
1.07657
1.19248
1.19486
1.19276
1.20213
1.10704
1.2033
1.2433
1.14325
1.07905
1.25097
1.21767
1.20295
1.22954
1.23838
1.1811
1.10455
1.16243
1.20727
1.20258
1.21462
1.22758
1.0923
1.22299
1.20875
1.24168
1.23017
1.23673
1.24894
1.16841
1.18629
1.09719
1.11595
1.25068
1.08129
1.23527
1.19818
1.13338
1.26615
1.2678
1.27472
1.19972
1.24858
1.15073
1.21976
1.14712
1.30026
1.21698
1.14969
1.20954
1.23948
1.29372
1.20264
1.25145
1.23459
1.16032
1.08258
1.24938
1.20759
1.22931
1.13164
1.18476
1.14001
1.26223
1.25907
1.18898
1.19675
1.25376
1.22474
1.17668
1.2373
1.19573
1.16773
1.2404
1.24913
1.1896
1.16694
1.27493
1.19744
1.27098
1.08104
1.25261
1.15167
1.15917
1.20528
1.16527
1.22566
1.1191
0.885268
1.22925
1.27914
1.11878
1.25772
1.2246
1.18119
1.13435
1.12847
1.15175
1.06728
1.1995
1.16518
1.23296
1.16908
1.1786
1.19577
1.19431
1.27349
1.11574
1.14038
1.26619
1.08451
1.24675
1.24648
1.24057
1.14116
1.12468
1.19554
1.21905
1.18222
1.21568
1.1425
1.04579
1.19663
1.2666
1.14871
1.1919
0.976885
1.07463
1.1681
1.22594
1.23189
1.21239
1.20453
1.13177
1.19454
1.13741
1.18498
1.14699
1.30048
1.16028
1.16691
1.21139
1.2643
1.19961
1.1985
1.10026
1.18155
1.20172
1.2636
1.20102
1.19289
1.16091
1.17747
1.18266
1.18272
1.1628
1.04487
1.09811
1.19979
1.09883
1.25293
1.15862
1.13899
1.23006
1.1412
1.1811
1.16031
1.16752
1.25797
1.21165
1.15882
1.18661
1.17689
1.02782
1.17701
1.24979
1.28089
1.23247
1.14164
1.20067
1.24715
1.21138
1.28508
1.08674
0.971078
1.14208
1.21194
1.27342
1.13763
1.12549
1.20876
1.2722
1.10177
1.22467
1.06208
1.22436
1.19547
1.16957
1.13734
1.16278
1.29645
1.16216
1.20006
1.28399
1.05436
1.01751
1.22637
1.18793
1.09559
1.24627
1.06989
1.18004
1.27785
1.25632
1.27676
1.15424
1.13135
1.22273
1.21495
1.14875
1.18465
1.06834
1.20192
1.11239
1.23843
1.20211
1.29922
1.19042
1.21988
1.24166
1.24092
1.1002
1.16564
1.22481
1.13628
1.17126
1.0807
1.13061
1.24592
1.25129
1.27438
1.12897
1.25179
1.21833
1.14154
1.21107
1.21895
1.15751
1.2494
1.11944
1.23785
1.16865
1.20901
1.25064
1.25426
1.0099
1.16853
1.19875
1.14978
1.25994
1.21021
1.2176
1.27259
1.21128
1.11658
1.24885
1.26525
1.27198
1.26372
1.28762
1.22605
1.22406
1.22182
1.22866
1.20464
1.21341
1.21513
0.992804
1.2153
1.17307
1.20062
1.1972
1.09861
1.22107
1.20351
1.05152
1.00393
1.12968
1.15174
1.25223
1.17584
0.938232
1.14612
1.17451
1.25394
1.07987
1.23035
1.22029
1.26123
1.20125
1.29733
1.21341
1.21029
1.23873
1.25208
1.22474
1.08522
1.05288
1.2006
1.20561
0.987708
1.15307
1.16597
1.22431
1.21857
1.27988
1.14209
1.13568
1.14007
1.25239
1.2213
1.10932
1.1372
1.16588
1.19393
1.23008
1.2387
1.25854
1.24893
1.22373
1.26991
1.08916
1.1667
1.29019
1.239
1.13661
1.10651
1.13242
1.08421
1.18189
1.13337
1.1979
1.14176
1.1554
1.17533
1.09191
1.17279
1.26048
0.985088
1.23986
1.20875
1.20133
1.17252
1.28176
1.18834
1.14063
1.26744
1.21707
1.19157
1.23701
1.25071
1.24028
0.892729
1.1183
1.2406
1.25028
1.26492
1.26641
1.17619
1.1537
1.1233
1.13357
1.09744
1.04171
1.24811
1.1843
1.14615
1.25009
1.26552
1.20114
1.20033
1.08522
1.13301
1.19431
1.09481
1.1673
1.22636
1.14591
1.1328
1.17517
1.14858
1.16717
1.07619
1.20821
1.19981
1.10349
1.15833
1.16072
1.2736
1.262
1.2676
1.14799
1.13809
1.04796
1.15591
1.14851
1.05122
1.115
1.18847
1.13799
1.1968
1.25571
1.26786
1.16241
1.18897
1.22181
1.15515
1.19372
1.13651
1.05556
1.25192
1.16208
1.15304
1.19716
1.30226
1.22002
0.97739
1.1855
1.23155
1.17872
1.16866
0.96069
1.14087
1.27626
1.25974
1.19538
1.19194
1.1429
1.1223
1.127
1.11269
1.18619
1.26674
1.10686
1.20578
1.09121
1.23784
1.1863
1.16914
1.11104
1.19958
1.21949
1.06386
1.22005
0.975732
1.30078
1.26039
1.18337
1.1516
1.03321
1.02907
1.1855
1.28234
1.14297
1.11871
1.25636
1.11353
1.14935
1.16963
1.16083
1.23447
1.19717
1.24442
1.2546
1.18532
1.20111
0.953438
1.1298
1.22497
1.24458
1.24282
1.16194
1.09003
1.26039
1.17753
1.18182
1.15676
1.11022
1.19751
1.23975
1.13498
1.11262
1.21439
1.23454
1.15644
1.13099
1.0718
1.22054
1.18699
1.19141
1.07542
0.973874
1.19627
1.19218
1.19501
1.17963
1.18124
1.256
1.12908
1.16989
1.19326
1.15481
1.10016
1.23923
1.13989
1.17748
1.17873
1.12231
1.12844
1.27902
1.19958
1.12795
1.06161
1.25607
1.23033
1.21389
1.21271
1.22666
1.16571
1.19686
1.24069
1.16766
1.1502
1.13588
1.11461
1.06779
1.12723
1.09572
1.14645
1.26688
1.22636
1.2076
1.11871
1.29451
1.10725
1.21449
1.23179
0.94646
1.13466
1.24768
1.23534
1.19536
1.21081
1.2529
1.24456
1.09543
1.14694
1.15744
1.18179
1.26838
1.13963
1.21578
1.29167
1.16669
1.27195
1.25841
1.17545
1.25294
1.18528
1.14443
1.14771
1.24743
1.17063
1.17807
1.14688
1.16643
1.14939
1.23623
1.1792
1.25941
1.15401
1.27808
1.26398
1.12381
1.27941
1.23636
1.14042
1.16844
1.23417
0.873363
1.17927
1.26104
1.24934
1.24193
1.26817
1.24855
1.26411
1.16991
1.18291
1.28564
0.889291
1.14814
1.1152
1.28294
1.20861
1.11054
1.26771
1.10534
1.11539
1.18055
1.12485
1.20106
1.16825
1.06153
1.01996
1.2628
1.17068
1.18256
1.25165
1.02335
1.28469
1.29323
1.17357
1.10437
1.27928
1.27655
1.13747
1.09406
1.19772
1.19039
1.30278
1.08217
1.18971
1.20598
0.872901
1.2573
1.23078
1.23505
1.20794
1.19755
1.27686
1.20951
1.2312
1.12688
1.15157
1.25177
1.23197
1.12661
1.17363
1.22695
1.20744
1.28008
1.12046
1.12585
1.24622
1.15681
1.18562
1.1516
1.20657
1.2625
1.16731
1.19598
1.21602
0.833291
1.07476
1.25487
1.15195
1.22732
1.11949
1.13027
1.10435
1.19745
1.1482
1.17744
1.16925
1.1311
1.21183
1.1894
1.02148
1.14658
1.17703
1.19474
1.02457
1.24238
1.25734
1.18703
1.24773
1.20053
1.0998
1.09227
1.10538
1.24478
1.22585
1.2372
1.07344
1.27793
1.21381
1.26611
1.12701
1.22467
1.22483
1.19075
1.2281
1.22461
1.17791
1.17145
1.18671
1.13219
1.09237
1.17064
1.16131
1.25379
1.16487
1.14066
1.14786
1.19051
1.17953
1.17652
1.26984
1.22986
1.12211
1.27626
1.11916
1.19057
1.13442
1.29542
1.23298
1.17499
1.11793
1.22737
1.24527
1.20175
1.14249
1.23915
1.2203
1.24549
1.18314
1.06092
1.13916
1.24112
1.25602
1.15449
1.2034
1.12457
1.20974
1.28025
1.22477
1.25742
1.24211
1.27637
1.14503
1.20345
1.08847
1.22206
1.28852
1.10821
1.2561
1.12399
1.18982
1.22015
0.979043
1.1263
1.07239
1.09378
1.2358
1.21965
1.27054
1.25682
1.19121
1.1706
1.13193
1.29119
1.05597
1.20808
1.12494
1.13328
1.26715
1.22962
1.15702
1.15026
1.28824
1.13575
1.2236
1.21666
1.28836
1.17476
1.27057
1.20246
1.26643
1.10436
1.23474
1.16918
1.03738
1.15622
1.23123
1.26755
1.1879
1.2481
1.15488
1.20494
1.18748
1.16808
1.19601
1.04193
1.10209
1.08157
1.13376
1.20945
1.14666
1.23302
1.169
1.23791
1.1157
1.14141
1.05781
1.22526
1.22879
1.04784
1.21631
1.18706
1.11963
1.08515
1.23965
1.14523
1.21098
1.1011
1.19873
1.24162
1.21739
1.28749
1.17259
1.21889
1.20523
1.16628
1.1223
1.17776
1.23866
1.15856
1.13511
1.1316
1.0445
1.14315
1.18517
1.18143
1.13118
1.1713
1.17518
1.2412
1.17134
1.22001
1.18962
1.21141
1.12469
1.17624
1.15459
1.22613
1.14314
1.08716
1.14627
1.07994
1.236
1.11522
1.22269
1.27309
1.22795
1.11546
1.25369
1.24676
1.21142
1.25065
1.19154
1.244
1.23033
1.15245
1.15388
1.20989
1.20613
1.17561
1.2402
1.21489
1.24786
1.2652
1.24669
1.16597
1.20695
1.2311
1.19193
1.20981
1.12304
1.05335
1.13227
1.14477
1.26899
1.22692
1.24198
1.17627
1.15221
1.14194
1.21235
1.21649
1.23981
1.24546
1.22781
1.22885
1.20379
1.28228
1.15764
1.18901
1.09981
1.16529
1.22225
1.15132
1.15217
1.13702
1.24714
1.22974
1.15022
1.13801
1.24397
1.26196
1.18393
1.21635
1.17393
1.25037
1.23015
1.22203
1.27508
1.24508
1.17685
1.24322
1.18236
1.12848
1.25208
1.2117
1.17091
1.1374
1.15512
1.28385
1.10072
1.1701
1.19576
1.24424
1.18941
1.1958
1.17145
1.23932
1.24547
1.06758
1.26991
1.18231
1.09374
1.15789
1.21571
1.12527
1.20706
1.1224
1.11898
1.15343
1.18131
1.14982
1.16206
1.28457
1.22657
1.23016
1.1328
1.24255
1.00963
1.1454
1.11976
1.27438
1.14135
1.21349
1.24533
1.24661
1.12087
1.21475
1.16277
1.1559
1.17275
1.24683
1.20467
1.18575
1.12895
1.24512
1.21464
1.23344
1.13652
1.02207
1.29589
0.987496
1.23472
1.15336
1.30122
1.17395
1.17208
1.15726
1.24605
1.19622
1.24874
1.08925
1.14788
1.21634
1.13351
1.21764
0.945095
1.14351
1.12144
1.20673
1.15327
1.23144
1.18404
1.27484
1.13041
1.02111
1.1617
1.28181
1.04297
1.10803
1.12093
1.10331
1.24366
1.21015
1.12195
1.12234
0.947804
1.11552
1.28167
1.24492
1.17337
1.22373
1.28183
1.15561
1.15412
1.2771
1.22337
1.09857
1.22982
1.18048
1.17715
1.17295
1.2041
1.23009
1.24226
1.23578
1.05694
1.14493
1.23855
1.24173
1.15215
1.18176
1.27884
1.0137
1.1339
1.22598
1.1827
1.11438
1.18544
1.28128
1.02452
1.01341
1.12311
1.14943
1.23656
1.21976
1.27838
1.13659
1.00971
1.15235
1.18657
1.19496
1.28087
1.12174
1.24253
1.21279
1.238
1.18209
1.16809
1.25195
1.14912
1.24763
1.1488
1.12628
1.06222
1.24188
1.15245
1.11507
1.19141
1.15658
1.16267
1.177
1.19344
1.22385
1.10548
1.07974
1.14409
1.15902
1.18913
1.06772
1.13549
1.13942
1.16251
1.12261
1.03405
1.14701
1.16986
1.13001
1.29035
1.11519
1.19369
1.11102
1.13152
1.15291
1.11788
1.26131
1.15838
1.15735
1.28796
1.15859
1.23339
1.15389
1.03587
1.1997
1.21396
1.249
1.17928
1.27981
1.1355
1.22242
1.16186
1.24463
1.17417
1.29033
1.12082
1.06235
1.20709
1.14391
1.28317
1.1887
1.22544
1.30146
1.17529
1.14378
1.21782
1.20192
1.27328
1.29039
1.17398
1.08663
1.12911
1.14344
1.2184
1.14656
1.20853
1.15299
1.11136
1.13296
1.18792
1.24144
1.15953
1.09254
1.27308
1.117
1.26856
1.23406
1.24692
1.19303
1.18915
1.0916
1.25121
1.20793
1.22813
1.18348
1.19209
1.10432
1.17185
1.02014
1.27254
1.05063
1.27457
1.12485
1.27093
1.28588
1.27833
1.14908
1.14212
1.22535
1.1733
1.09397
1.28468
1.16471
1.28195
1.15034
1.15014
1.17012
1.10165
1.12972
1.17935
1.11302
1.12757
1.20796
1.22692
1.22608
1.20756
1.05495
1.13375
1.26922
1.20738
1.23525
1.17246
1.17453
1.18721
1.19077
1.1726
1.15735
1.18427
1.21419
1.14214
1.12797
1.25086
1.12986
1.24277
1.2614
1.17673
1.22637
1.17239
1.29053
1.17181
1.13021
1.14261
1.28704
1.11672
1.166
0.997484
1.14302
1.03793
1.13707
1.18292
1.27773
1.29233
1.13969
1.2624
1.03011
1.09059
1.10573
1.10342
1.13532
1.18606
1.15521
1.0861
1.17084
1.28766
1.16909
1.13129
1.18662
1.12344
1.23458
1.20484
1.19549
1.14343
1.14805
1.17674
1.28268
1.15203
1.1688
1.12562
1.18404
1.25293
1.11347
1.18132
1.13282
1.16976
1.23129
1.11539
1.19729
1.19606
1.28789
1.24561
1.14253
1.20837
1.13555
1.09935
1.20809
1.13088
1.17293
1.21836
1.12052
1.23706
1.13122
1.25766
1.1456
1.21037
1.17282
1.17267
1.22679
1.13699
1.15658
1.15169
1.15168
1.14231
1.19798
1.14814
1.17992
1.06619
1.14151
1.18134
1.25145
1.24925
1.17347
1.24902
1.21865
1.2553
1.22432
1.09766
1.22701
1.22424
1.18262
1.23364
1.16791
1.21395
1.23403
1.24585
1.16115
1.15836
1.06454
1.18054
1.25593
1.22413
1.17027
1.19475
1.2663
1.14511
1.20873
1.19021
1.17714
1.13093
1.15227
1.21213
1.18444
1.14704
1.19912
1.09975
1.19779
1.24556
1.21572
1.1123
1.18547
1.096
1.18058
1.17895
1.14673
1.12882
1.1512
1.23643
1.12378
1.14286
1.14767
1.18472
1.19132
1.23597
1.15049
1.1174
1.16826
1.22297
1.22885
1.16452
1.2528
1.22133
1.14828
1.27903
1.23731
1.05649
1.19671
1.18957
1.1834
1.18275
1.15753
1.14948
1.23518
1.17875
1.13582
1.25443
1.15106
1.14261
1.23071
1.13559
1.14406
1.12245
1.2124
1.13879
1.16695
1.22182
1.19405
1.18361
1.25286
1.13501
1.13637
1.29513
1.13131
1.18611
1.21608
1.0699
1.26433
1.19657
1.17348
1.2328
1.25641
1.15891
1.12401
1.2069
1.13198
1.23646
1.28562
1.07795
1.17442
1.18514
1.26682
1.14659
1.17657
1.20255
1.21933
1.26996
1.14205
1.26562
1.17892
1.20649
1.20043
1.15672
1.21615
1.05858
1.16839
1.16502
1.18704
1.12005
1.12359
1.12602
1.11421
1.17084
1.22159
1.22988
1.24883
1.21321
1.14976
1.04747
1.20587
1.12909
1.25973
1.07839
1.17616
1.18509
1.14761
1.20048
1.19962
1.22735
1.21084
1.04751
1.21508
1.16856
1.12662
0.988605
1.25904
1.14666
1.22885
1.21818
1.19626
1.16283
1.02459
1.01902
1.1776
1.2367
1.05761
1.16561
1.14154
1.21703
1.21514
1.10908
1.29995
1.12667
1.11932
1.16858
1.12313
1.21208
1.20205
1.20881
1.23402
1.17481
1.21458
1.25367
1.1884
1.16481
1.23202
1.15711
1.09349
1.02765
1.10067
1.12643
1.16764
1.15118
1.05322
1.14583
1.18717
1.07411
1.22521
1.13128
1.18273
1.1758
1.11834
1.24504
1.25749
1.15709
1.18812
1.23849
1.22425
1.16052
1.11347
1.11395
1.15953
1.14891
1.22776
1.16903
1.19649
1.12146
1.12737
1.21123
1.20145
1.10152
1.1948
1.23221
1.24774
1.13064
1.10616
1.23392
1.18941
1.10537
1.21924
1.15002
1.19834
1.17443
1.20283
1.23137
1.14629
1.2718
1.03111
1.14595
1.18918
1.12737
1.27626
1.15853
1.23719
1.15721
1.17397
1.13485
1.15639
1.10973
1.2186
1.22739
1.25593
1.21941
1.2028
1.12617
1.15811
1.22067
1.24009
1.17461
1.1616
1.1087
1.16098
1.12394
1.19088
1.229
1.17021
1.18203
1.11849
1.21418
1.17788
1.1292
1.23564
1.18571
1.19443
1.15052
1.11602
1.20019
1.28619
1.16327
1.25105
1.19551
1.22949
1.14161
1.22519
1.0947
1.20914
1.22788
1.2681
1.25323
1.2024
1.18918
1.05042
0.941503
1.21189
1.12214
1.18586
1.26229
1.20452
1.14948
1.2585
1.11948
1.29009
1.25323
1.20041
1.1886
1.2968
1.13966
1.1045
1.14723
1.06446
1.1656
1.23335
1.2254
1.14377
1.13727
1.23378
1.12892
1.17276
1.24844
1.2595
1.14471
1.02584
1.19743
1.11729
1.16306
1.2267
1.2018
1.24208
1.11248
1.17659
1.13341
1.08757
1.18291
1.25404
1.21548
1.1748
1.14618
1.18546
1.21512
1.29495
1.10789
1.14557
1.15157
1.12334
1.19933
1.21591
1.23271
1.16559
1.12855
1.23139
1.20294
1.15334
1.14876
1.19012
1.1452
1.10846
1.25604
1.20693
1.1291
1.19606
1.22203
1.20016
1.19842
1.18198
1.22025
1.23953
1.23457
1.12631
1.15045
1.26563
1.20742
1.27116
1.22412
1.19981
1.23501
1.27421
1.14111
1.13133
1.13262
1.13826
1.27907
1.08454
1.19821
1.22598
1.0753
1.27897
1.0757
1.19255
1.26437
1.28875
1.23269
1.20815
1.24312
1.29176
1.27962
1.23682
1.22601
1.23364
1.13424
1.2283
1.16716
1.15326
1.17617
1.24287
1.27489
1.12483
1.15402
1.119
1.21307
1.20613
1.12515
1.22507
1.17052
1.13274
1.23362
1.12025
1.27768
1.16636
1.18522
1.21997
1.21379
1.28702
1.25359
1.15664
1.27561
1.21586
1.24973
1.29926
1.12712
1.23135
1.18348
1.20739
1.14392
1.26797
1.20599
1.15711
1.19403
1.24633
1.10449
1.12806
1.26943
1.03744
1.11019
1.12271
1.15928
1.1927
1.2872
1.23016
1.09153
1.22787
1.16779
1.15647
1.19048
1.15665
1.21631
1.12731
1.23619
1.19778
1.19195
1.12025
1.28584
1.13017
1.20913
1.24099
1.20202
1.20164
1.2734
1.14445
1.10458
1.15762
1.25137
0.940817
1.25049
1.12065
1.14438
1.17966
1.20371
1.1805
1.28306
1.27699
1.15366
1.09212
0.960622
1.17023
1.09511
1.24916
1.25614
1.13484
1.18176
1.19948
1.20163
1.14061
1.252
1.22698
1.10189
1.16884
1.24287
1.19034
1.15965
1.29302
1.17677
1.28887
1.24856
1.1668
0.963799
1.18836
1.24057
1.16369
1.20955
1.2156
1.27338
1.21665
1.17738
1.14694
1.25542
1.29336
1.26942
1.25917
1.18685
1.21998
1.1431
1.11045
1.17205
1.21286
1.21664
1.13929
1.17285
1.25959
1.17657
1.26509
1.13571
1.24033
1.27446
1.14782
1.20144
1.06678
1.18402
1.19051
1.19814
1.26289
1.17614
1.14145
1.1308
1.2236
1.26109
1.15791
1.29192
1.14372
1.0684
1.1791
1.21762
1.24077
1.21742
1.10349
1.23208
1.03443
1.11784
1.12391
1.19972
1.16004
1.18474
1.12046
1.15634
1.19024
1.10856
1.25206
1.22028
1.14524
1.15741
1.27197
1.2182
1.21972
1.25278
1.20729
1.19837
1.20209
1.12844
1.21164
1.19906
1.21539
1.17756
1.25214
1.20416
1.26505
1.11216
1.28184
1.21226
1.239
1.1238
1.17253
1.26853
1.20997
1.22917
1.15638
1.17867
1.09798
1.14089
1.28434
1.26195
1.2752
1.19807
1.29645
1.25225
1.13072
1.16345
1.19733
1.14955
1.25824
1.17699
1.1171
1.23924
1.23093
1.27922
1.26091
1.22835
1.284
1.25902
0.997105
1.08855
1.29011
1.25083
1.19335
1.08901
1.28753
1.16074
1.10517
1.16107
1.24518
1.15978
1.17566
1.24516
1.29405
1.25234
1.1847
1.21624
1.13487
1.22333
1.24103
1.17859
1.21538
1.2023
1.15799
1.11902
1.15651
1.21698
1.2401
1.13658
1.1613
1.22329
1.21891
1.15177
1.11333
1.25122
1.16694
1.13135
1.14988
1.17172
1.26434
0.99645
1.26681
1.17571
1.24389
1.249
1.22008
1.27181
1.1693
1.2665
1.15
1.17392
1.24421
1.21462
1.21936
1.11397
1.1151
1.27596
1.07603
1.18055
1.2705
1.14368
1.2751
1.25708
1.2375
1.25903
1.16972
1.29079
1.29364
1.16957
1.29747
1.07475
1.20475
1.15996
0.887624
1.13383
1.18672
1.22954
1.22816
1.27442
1.12318
1.15113
1.2084
1.24307
1.21559
1.26269
1.16762
1.1868
1.15767
1.19678
1.13339
1.24847
1.23022
1.15234
1.24646
1.19454
1.11912
1.28899
1.20505
1.14753
1.18351
1.27757
1.29814
1.18466
1.23933
1.13005
1.18177
1.26833
1.2179
1.20267
1.17444
1.15017
1.08687
1.28509
1.26235
1.25752
1.14493
1.11126
1.21034
1.07692
1.16055
1.15849
1.27189
1.09407
1.16127
1.18352
1.1794
1.16272
1.12994
1.09456
1.22054
1.23697
1.19026
1.1349
1.23689
1.14576
1.26025
1.17587
1.20634
1.15241
1.22886
1.1603
1.14138
1.12369
1.09263
1.24134
1.1533
1.28142
0.999981
1.03262
1.18341
1.16692
1.20897
1.14357
1.23293
1.17587
1.23791
1.18046
1.17934
1.18417
1.28967
1.10755
1.18478
1.10791
1.19136
1.08829
1.18506
1.27827
1.28348
1.1673
1.20405
1.11218
1.15472
1.13107
1.25443
1.19543
1.22823
1.24675
1.2056
1.01115
1.17951
1.22307
1.22161
1.14518
1.18915
1.20733
1.27651
1.09936
1.16048
1.16301
1.17348
1.01672
1.25956
1.20032
1.17549
1.1592
1.11672
1.09315
1.17784
1.24423
1.17374
1.14058
1.10702
1.26596
1.15996
1.15657
1.12301
1.22185
1.18976
1.25485
1.25838
1.11833
1.16609
1.1016
1.21605
1.14827
1.20618
1.24035
1.09206
1.10586
1.26652
1.2793
1.18423
1.11152
1.1893
1.20761
1.20152
1.23454
1.2112
1.16282
1.28224
1.22894
1.15806
1.14845
1.10489
1.13657
1.30174
1.28383
1.14598
1.22255
1.19406
1.21522
1.18251
1.12949
1.28024
1.29402
1.28649
1.14282
1.19482
1.28383
1.15609
1.19122
1.10284
1.0079
1.2636
1.11067
1.23148
1.18141
1.1178
1.09708
1.11894
1.2198
1.12938
0.948459
1.29429
1.23534
1.14048
1.22133
1.15455
1.21656
1.2285
1.22995
1.26219
1.23774
1.2235
1.16582
1.28839
1.18236
1.20602
1.23515
1.11362
1.24671
1.29383
1.15733
1.12413
1.16762
1.25903
1.08435
1.12233
1.25592
1.25269
1.20771
1.1004
1.23203
1.26569
1.25432
1.17922
1.15969
1.15676
1.13442
1.29348
1.20654
1.1174
1.24863
1.30171
1.09405
1.13563
1.17361
1.12476
1.27674
1.24066
1.22181
1.28408
1.29153
1.24968
1.16234
1.13632
1.11225
1.11235
1.16143
1.13817
1.23227
1.26468
1.18821
1.1434
1.20018
1.06583
1.17403
1.25247
1.12602
1.24189
1.12821
1.25289
1.11837
1.27042
1.12403
1.28301
1.19039
1.14716
1.1337
1.2211
1.19137
1.11256
1.29156
1.18625
1.16676
1.11617
1.20194
1.16628
1.12504
1.13167
1.10824
1.22555
1.20968
1.22336
1.12245
1.16463
1.16332
1.27095
1.16271
1.13164
1.16661
1.23065
1.25381
1.20781
1.26094
1.13827
1.24396
1.16992
1.15222
1.10836
1.13885
1.17403
1.10248
1.22145
1.21196
1.27486
1.21042
1.21759
1.16085
1.11879
1.13726
1.11455
1.25384
1.19133
1.02976
1.10111
1.12479
1.20247
1.19972
1.18829
1.18254
1.19171
1.0955
1.20945
1.21592
1.17902
1.15688
1.2339
1.18798
1.10201
1.11266
1.15647
1.22205
1.21498
1.1213
1.10964
1.16628
1.2333
1.16417
1.13048
1.19575
1.12863
1.1049
1.12946
1.10795
1.21427
1.19767
1.13108
1.23571
1.258
1.19024
1.20772
1.22086
1.09756
1.20529
1.21682
1.21707
0.912846
1.08862
1.13797
1.15513
1.20217
1.28666
1.1199
1.23398
1.15396
1.18179
1.19224
1.15165
1.16337
1.25736
1.1223
1.18612
1.18874
1.13096
1.12297
1.29924
1.15672
1.22181
1.22336
1.13866
1.10012
1.28309
1.19474
1.12465
1.19533
1.11866
1.2524
1.16295
1.15816
1.28024
1.1339
1.21008
1.1603
1.1824
1.13153
1.15848
1.16187
1.1752
1.18608
1.20473
1.00304
1.20728
1.18631
1.13266
1.20064
1.1839
1.19397
1.20803
1.28918
1.19363
1.28713
1.16145
1.11702
1.08462
1.13245
1.15605
1.07352
1.22113
1.16467
1.16954
1.15784
0.90458
1.20895
1.20049
1.17992
1.23717
1.12368
1.21641
1.14222
1.198
1.20369
1.09949
1.1898
1.09853
1.15579
1.00792
1.27578
1.21827
1.06985
1.10468
1.07312
0.94033
1.07285
1.13888
1.21992
1.17178
1.15757
1.12529
1.17385
1.04121
1.12929
1.1812
1.15432
1.13035
1.20129
1.25225
1.27228
1.07282
1.20058
1.11958
1.16846
1.03673
1.24419
1.05666
1.25266
1.13139
1.15282
1.24339
1.2483
1.18839
1.21461
1.1702
1.2522
1.24738
1.092
1.19931
1.11644
1.19022
1.17047
1.2262
1.04607
1.1945
1.23617
1.12449
1.28315
0.983543
1.20689
1.26901
1.16496
1.26644
1.20482
1.16306
1.24286
1.15477
1.17834
1.09543
1.25662
1.2169
1.22214
1.21863
1.23601
1.16691
1.16867
1.05558
1.13904
1.24383
1.16362
1.18548
1.28557
1.13039
1.23012
1.15628
1.13959
1.14137
1.14113
1.28784
1.17797
1.2923
1.18225
1.17293
1.20331
1.13072
1.07832
1.25488
1.1974
1.15154
1.25449
1.25863
1.20122
1.15947
1.19137
1.27004
1.14933
1.12907
1.14052
1.17176
1.18534
1.11401
1.11034
1.16074
1.17638
1.14856
1.22569
1.15564
1.18918
1.15715
1.17709
1.1362
1.28848
1.2824
1.08332
1.21512
1.22057
1.20364
1.223
1.14625
1.26202
1.18955
1.27084
1.15755
1.13497
1.19722
1.27092
0.981003
1.15152
0.976214
1.14004
1.27852
1.13591
1.13792
1.11996
1.12779
1.1365
1.15894
1.17827
1.12215
1.19961
1.18045
1.21366
1.12286
1.19593
0.985614
1.21337
1.25705
1.20529
1.24826
1.21764
1.15446
1.2722
1.28256
1.12064
1.22232
1.18015
1.19469
1.11539
1.21098
1.1124
1.23042
1.2328
1.29902
1.09963
1.16857
1.13252
1.18268
1.29901
1.0826
1.10884
1.19247
1.21092
1.13604
1.30268
1.04704
1.19713
1.14257
1.12637
1.13977
1.07126
1.11
1.17713
1.21344
1.16784
1.19814
1.18279
1.19552
1.05832
1.00383
1.21607
1.19405
1.14005
1.21467
1.16278