/*--------------------------------*- C++ -*----------------------------------*\
  =========                 |
  \\      /  F ield         | OpenFOAM: The Open Source CFD Toolbox
   \\    /   O peration     | Website:  https://openfoam.org
    \\  /    A nd           | Version:  6
     \\/     M anipulation  |
\*---------------------------------------------------------------------------*/
FoamFile
{
    version     2.0;
    format      ascii;
    class       volScalarField;
    location    "0";
    object      p_rgh;
}
// * * * * * * * * * * * * * * * * * * * * * * * * * * * * * * * * * * * * * //

dimensions      [0 2 -2 0 0 0 0];

internalField   nonuniform List<scalar> 
10000
(
0.00492242
0.00492306
0.00492305
0.00492192
0.00491929
0.00491488
0.0049085
0.00490011
0.00488977
0.00487766
0.00486403
0.00484924
0.00483363
0.0048176
0.00480151
0.00478568
0.00477039
0.00475587
0.00474234
0.00472995
0.00471876
0.00470881
0.0047001
0.00469259
0.00468623
0.00468095
0.00467669
0.00467335
0.00467086
0.00466914
0.00466809
0.00466765
0.00466775
0.0046683
0.00466926
0.00467056
0.00467216
0.004674
0.00467604
0.00467825
0.00468059
0.00468304
0.00468556
0.00468814
0.00469076
0.00469339
0.00469603
0.00469865
0.00470125
0.00470382
0.00470634
0.0047088
0.00471121
0.00471355
0.00471582
0.00471802
0.00472013
0.00472216
0.0047241
0.00472595
0.00472771
0.00472937
0.00473094
0.00473241
0.00473377
0.00473504
0.0047362
0.00473725
0.0047382
0.00473903
0.00473975
0.00474034
0.00474081
0.00474115
0.00474133
0.00474136
0.0047412
0.00474085
0.00474026
0.00473941
0.00473824
0.0047367
0.00473471
0.00473218
0.00472899
0.00472502
0.0047201
0.00471405
0.00470666
0.00469771
0.00468698
0.00467425
0.00465937
0.00464224
0.00462296
0.00460201
0.00458036
0.0045598
0.00454362
0.00453572
0.00492123
0.00492132
0.00492062
0.00491884
0.00491569
0.00491091
0.00490431
0.00489583
0.00488553
0.00487357
0.00486019
0.00484573
0.00483052
0.00481493
0.0047993
0.00478395
0.00476916
0.00475509
0.00474194
0.00472992
0.00471908
0.00470945
0.00470101
0.00469374
0.00468757
0.00468246
0.00467832
0.00467507
0.00467264
0.00467095
0.00466992
0.00466948
0.00466954
0.00467006
0.00467097
0.00467221
0.00467374
0.00467551
0.00467748
0.00467961
0.00468188
0.00468425
0.0046867
0.0046892
0.00469174
0.0046943
0.00469687
0.00469942
0.00470196
0.00470446
0.00470692
0.00470933
0.00471168
0.00471397
0.00471619
0.00471833
0.0047204
0.00472239
0.00472429
0.0047261
0.00472783
0.00472945
0.00473098
0.00473242
0.00473375
0.00473498
0.00473611
0.00473713
0.00473804
0.00473884
0.00473952
0.00474008
0.00474051
0.00474079
0.00474093
0.0047409
0.00474068
0.00474025
0.00473959
0.00473865
0.00473739
0.00473575
0.00473366
0.00473104
0.00472777
0.00472374
0.00471879
0.00471277
0.00470549
0.00469676
0.00468639
0.00467421
0.00466007
0.00464387
0.00462573
0.00460593
0.00458509
0.00456434
0.00454624
0.0045335
0.00492071
0.00492025
0.00491892
0.00491654
0.00491288
0.00490766
0.00490071
0.00489196
0.00488147
0.0048694
0.00485599
0.00484156
0.00482647
0.00481106
0.00479567
0.00478062
0.00476616
0.00475252
0.00473979
0.0047281
0.00471761
0.00470832
0.00470021
0.00469324
0.00468736
0.00468249
0.00467857
0.00467551
0.00467325
0.00467169
0.00467076
0.0046704
0.00467053
0.00467109
0.00467202
0.00467328
0.0046748
0.00467656
0.0046785
0.0046806
0.00468283
0.00468516
0.00468757
0.00469003
0.00469252
0.00469503
0.00469755
0.00470006
0.00470255
0.004705
0.00470742
0.00470978
0.00471209
0.00471434
0.00471653
0.00471864
0.00472067
0.00472262
0.00472449
0.00472627
0.00472797
0.00472957
0.00473107
0.00473248
0.00473378
0.00473498
0.00473608
0.00473708
0.00473796
0.00473873
0.00473939
0.00473992
0.00474031
0.00474057
0.00474067
0.0047406
0.00474035
0.00473988
0.00473918
0.0047382
0.00473691
0.00473524
0.00473313
0.0047305
0.00472725
0.00472327
0.00471841
0.00471253
0.00470546
0.00469703
0.00468704
0.00467531
0.0046617
0.00464606
0.00462832
0.00460843
0.00458658
0.00456327
0.00454027
0.00451971
0.00492104
0.00491975
0.00491761
0.00491445
0.00491005
0.00490416
0.00489659
0.00488727
0.00487628
0.00486377
0.00485003
0.00483536
0.00482013
0.00480469
0.00478938
0.0047745
0.0047603
0.00474701
0.00473473
0.00472351
0.00471346
0.00470462
0.00469696
0.00469043
0.00468496
0.00468049
0.00467693
0.00467422
0.00467225
0.00467097
0.00467028
0.00467013
0.00467043
0.00467114
0.0046722
0.00467355
0.00467516
0.00467697
0.00467896
0.0046811
0.00468335
0.00468569
0.00468809
0.00469055
0.00469303
0.00469553
0.00469803
0.00470051
0.00470298
0.00470541
0.0047078
0.00471014
0.00471243
0.00471465
0.00471681
0.0047189
0.00472091
0.00472284
0.00472468
0.00472644
0.00472811
0.00472969
0.00473118
0.00473256
0.00473385
0.00473503
0.0047361
0.00473708
0.00473794
0.00473869
0.00473932
0.00473983
0.0047402
0.00474044
0.00474052
0.00474044
0.00474017
0.00473969
0.00473898
0.00473801
0.00473673
0.00473509
0.00473302
0.00473046
0.0047273
0.00472345
0.00471876
0.00471309
0.00470627
0.00469812
0.00468843
0.00467699
0.00466356
0.00464787
0.00462956
0.00460824
0.00458366
0.00455578
0.00452587
0.00449606
0.00492218
0.00491964
0.00491631
0.00491201
0.00490654
0.0048996
0.00489104
0.0048808
0.00486896
0.00485571
0.00484134
0.00482619
0.00481061
0.00479498
0.00477963
0.00476485
0.00475088
0.00473793
0.00472613
0.00471549
0.00470601
0.00469777
0.00469071
0.00468477
0.00467989
0.00467599
0.00467297
0.00467075
0.00466926
0.00466841
0.00466811
0.00466831
0.00466893
0.00466992
0.00467122
0.00467278
0.00467457
0.00467654
0.00467866
0.0046809
0.00468324
0.00468565
0.00468812
0.00469062
0.00469314
0.00469566
0.00469818
0.00470068
0.00470316
0.00470559
0.00470799
0.00471033
0.00471261
0.00471483
0.00471698
0.00471906
0.00472106
0.00472298
0.00472481
0.00472656
0.00472822
0.00472979
0.00473126
0.00473263
0.0047339
0.00473507
0.00473613
0.00473709
0.00473793
0.00473867
0.00473929
0.00473978
0.00474014
0.00474037
0.00474045
0.00474036
0.00474009
0.00473963
0.00473894
0.00473799
0.00473675
0.00473517
0.00473319
0.00473073
0.00472771
0.00472402
0.00471951
0.00471405
0.00470745
0.00469949
0.00468993
0.00467848
0.0046648
0.0046484
0.00462863
0.00460479
0.00457619
0.00454241
0.00450443
0.00446466
0.004924
0.00491979
0.00491483
0.00490898
0.004902
0.00489362
0.00488367
0.00487212
0.00485907
0.00484476
0.00482948
0.0048136
0.00479749
0.00478151
0.00476601
0.00475127
0.0047375
0.0047249
0.00471357
0.00470357
0.00469483
0.00468733
0.00468103
0.00467586
0.00467174
0.00466857
0.00466627
0.00466474
0.00466389
0.00466363
0.0046639
0.0046646
0.00466569
0.0046671
0.00466878
0.00467068
0.00467277
0.00467501
0.00467736
0.00467981
0.00468232
0.00468489
0.00468748
0.00469009
0.00469271
0.00469532
0.00469791
0.00470047
0.00470299
0.00470547
0.00470789
0.00471026
0.00471257
0.00471481
0.00471697
0.00471906
0.00472107
0.004723
0.00472484
0.00472659
0.00472825
0.00472981
0.00473128
0.00473265
0.00473392
0.00473509
0.00473614
0.00473708
0.00473792
0.00473865
0.00473926
0.00473975
0.00474011
0.00474034
0.00474042
0.00474034
0.00474009
0.00473965
0.004739
0.0047381
0.00473693
0.00473543
0.00473356
0.00473123
0.00472835
0.00472482
0.0047205
0.0047152
0.00470873
0.00470083
0.00469119
0.00467943
0.00466502
0.00464728
0.00462528
0.004598
0.0045644
0.00452384
0.00447719
0.00442729
0.0049264
0.00492009
0.00491308
0.00490524
0.00489632
0.00488606
0.00487431
0.00486107
0.00484648
0.00483079
0.00481434
0.00479751
0.00478069
0.00476424
0.0047485
0.00473374
0.00472015
0.00470791
0.00469708
0.00468773
0.0046798
0.00467318
0.00466778
0.00466353
0.00466032
0.00465806
0.00465664
0.00465596
0.00465592
0.00465643
0.00465741
0.00465879
0.0046605
0.00466248
0.00466468
0.00466705
0.00466956
0.00467218
0.00467488
0.00467763
0.00468042
0.00468322
0.00468603
0.00468883
0.00469161
0.00469437
0.00469708
0.00469975
0.00470237
0.00470493
0.00470743
0.00470987
0.00471223
0.00471452
0.00471672
0.00471885
0.00472089
0.00472284
0.00472471
0.00472647
0.00472815
0.00472973
0.00473121
0.00473259
0.00473386
0.00473504
0.0047361
0.00473704
0.00473788
0.0047386
0.00473922
0.00473971
0.00474007
0.00474031
0.0047404
0.00474034
0.00474012
0.00473972
0.00473912
0.00473829
0.00473719
0.00473579
0.00473403
0.00473184
0.00472911
0.00472573
0.00472155
0.00471637
0.00470994
0.00470195
0.00469201
0.00467961
0.00466404
0.00464441
0.00461954
0.00458812
0.00454883
0.00450095
0.00444541
0.00438551
0.00492932
0.00492051
0.00491104
0.00490078
0.00488951
0.00487697
0.00486305
0.00484777
0.00483131
0.00481397
0.00479611
0.00477814
0.00476046
0.00474343
0.00472738
0.00471255
0.00469913
0.00468724
0.00467695
0.00466827
0.00466118
0.00465551
0.00465112
0.0046479
0.00464573
0.00464451
0.0046441
0.00464441
0.00464532
0.00464675
0.00464859
0.00465078
0.00465324
0.00465592
0.00465877
0.00466175
0.00466481
0.00466793
0.00467108
0.00467424
0.0046774
0.00468054
0.00468364
0.00468671
0.00468973
0.0046927
0.0046956
0.00469844
0.00470121
0.00470391
0.00470653
0.00470907
0.00471153
0.00471389
0.00471618
0.00471837
0.00472046
0.00472247
0.00472437
0.00472618
0.00472789
0.00472949
0.004731
0.0047324
0.00473369
0.00473488
0.00473596
0.00473693
0.00473777
0.0047385
0.00473912
0.00473963
0.00474
0.00474026
0.00474037
0.00474034
0.00474016
0.0047398
0.00473926
0.0047385
0.00473749
0.0047362
0.00473455
0.00473249
0.0047299
0.00472665
0.00472257
0.00471743
0.00471094
0.00470271
0.00469225
0.00467893
0.00466183
0.00463985
0.00461161
0.0045755
0.00453005
0.00447456
0.00441013
0.00434053
0.00493274
0.00492107
0.00490875
0.0048957
0.00488169
0.00486649
0.00485004
0.0048324
0.0048138
0.00479458
0.00477512
0.00475586
0.00473721
0.00471953
0.00470311
0.0046882
0.00467494
0.00466343
0.0046537
0.00464572
0.00463944
0.00463476
0.00463145
0.00462933
0.00462829
0.00462818
0.00462889
0.00463029
0.00463226
0.0046347
0.00463751
0.00464062
0.00464395
0.00464745
0.00465106
0.00465474
0.00465846
0.00466218
0.00466588
0.00466956
0.00467318
0.00467674
0.00468023
0.00468365
0.00468698
0.00469023
0.00469339
0.00469647
0.00469944
0.00470233
0.00470511
0.0047078
0.00471039
0.00471288
0.00471527
0.00471755
0.00471974
0.00472182
0.00472379
0.00472566
0.00472741
0.00472907
0.00473061
0.00473205
0.00473337
0.00473459
0.0047357
0.00473669
0.00473756
0.00473831
0.00473895
0.00473947
0.00473987
0.00474014
0.00474029
0.00474029
0.00474015
0.00473985
0.00473937
0.00473868
0.00473777
0.00473658
0.00473505
0.00473311
0.00473064
0.00472749
0.00472347
0.0047183
0.00471165
0.00470304
0.00469187
0.00467735
0.00465841
0.00463373
0.0046017
0.00456053
0.00450863
0.0044454
0.00437223
0.00429331
0.00493668
0.00492183
0.00490632
0.00489011
0.00487301
0.00485483
0.00483554
0.00481527
0.00479429
0.00477299
0.00475179
0.00473114
0.00471145
0.00469307
0.00467629
0.0046613
0.00464822
0.00463711
0.00462796
0.00462071
0.00461528
0.00461158
0.00460936
0.00460837
0.00460848
0.00460954
0.00461142
0.00461396
0.00461704
0.00462056
0.00462442
0.00462852
0.0046328
0.00463719
0.00464164
0.00464611
0.00465056
0.00465497
0.00465932
0.00466358
0.00466774
0.00467181
0.00467576
0.0046796
0.00468332
0.00468692
0.0046904
0.00469376
0.004697
0.00470012
0.00470312
0.004706
0.00470877
0.00471142
0.00471395
0.00471636
0.00471866
0.00472084
0.00472291
0.00472485
0.00472669
0.0047284
0.00473
0.00473149
0.00473286
0.00473412
0.00473526
0.00473629
0.0047372
0.00473798
0.00473864
0.00473919
0.00473962
0.00473993
0.00474011
0.00474015
0.00474006
0.00473981
0.0047394
0.00473879
0.00473797
0.00473688
0.00473546
0.00473363
0.00473126
0.00472818
0.00472417
0.00471892
0.004712
0.00470289
0.00469084
0.00467489
0.00465385
0.00462619
0.00459007
0.00454356
0.00448505
0.00441407
0.00433237
0.00424452
0.00494119
0.00492285
0.00490384
0.00488415
0.00486364
0.00484218
0.00481978
0.00479664
0.0047731
0.00474958
0.00472655
0.00470446
0.00468371
0.00466465
0.00464753
0.0046325
0.00461965
0.00460898
0.00460045
0.00459398
0.00458941
0.00458669
0.00458553
0.00458567
0.00458694
0.00458917
0.00459221
0.00459591
0.00460013
0.00460475
0.00460967
0.0046148
0.00462006
0.00462538
0.00463072
0.00463602
0.00464127
0.00464642
0.00465146
0.00465637
0.00466114
0.00466576
0.00467024
0.00467456
0.00467872
0.00468273
0.00468659
0.00469029
0.00469385
0.00469725
0.00470052
0.00470364
0.00470662
0.00470946
0.00471217
0.00471474
0.00471719
0.0047195
0.00472168
0.00472373
0.00472566
0.00472746
0.00472913
0.00473069
0.00473212
0.00473343
0.00473462
0.00473569
0.00473665
0.00473748
0.00473817
0.00473876
0.00473922
0.00473956
0.00473978
0.00473987
0.00473983
0.00473964
0.0047393
0.00473877
0.00473803
0.00473704
0.00473572
0.00473398
0.00473169
0.00472865
0.00472461
0.0047192
0.00471195
0.00470221
0.00468914
0.0046716
0.00464825
0.00461736
0.00457693
0.00452491
0.00445969
0.00438105
0.00429106
0.00419466
0.00494636
0.00492424
0.00490142
0.00487796
0.00485376
0.00482875
0.00480301
0.00477682
0.00475057
0.00472475
0.00469983
0.0046763
0.00465454
0.00463485
0.00461746
0.00460246
0.00458991
0.00457976
0.00457191
0.00456624
0.00456258
0.0045608
0.00456068
0.00456193
0.00456433
0.00456771
0.00457189
0.00457671
0.00458204
0.00458774
0.00459371
0.00459985
0.00460609
0.00461235
0.00461858
0.00462474
0.00463079
0.00463671
0.00464247
0.00464807
0.00465348
0.00465871
0.00466374
0.00466859
0.00467324
0.0046777
0.00468198
0.00468607
0.00468998
0.00469372
0.00469728
0.00470068
0.00470391
0.00470699
0.0047099
0.00471267
0.00471528
0.00471775
0.00472007
0.00472225
0.00472429
0.00472619
0.00472796
0.00472959
0.0047311
0.00473247
0.00473372
0.00473484
0.00473585
0.00473673
0.00473748
0.0047381
0.00473861
0.004739
0.00473926
0.0047394
0.00473941
0.00473928
0.004739
0.00473855
0.0047379
0.00473699
0.00473576
0.0047341
0.00473186
0.00472884
0.00472472
0.00471911
0.00471144
0.00470098
0.00468674
0.00466749
0.00464166
0.00460737
0.00456247
0.00450482
0.00443289
0.00434669
0.00424868
0.00414408
0.00495227
0.00492608
0.00489919
0.00487168
0.00484353
0.00481473
0.00478546
0.00475607
0.00472703
0.00469886
0.00467208
0.00464715
0.00462444
0.00460423
0.00458667
0.00457183
0.00455968
0.00455013
0.00454303
0.00453822
0.00453549
0.00453466
0.00453555
0.00453787
0.00454136
0.00454582
0.00455108
0.00455698
0.00456335
0.00457008
0.00457704
0.00458415
0.00459132
0.00459848
0.00460557
0.00461256
0.00461941
0.00462609
0.00463258
0.00463886
0.00464493
0.00465077
0.00465639
0.00466179
0.00466695
0.0046719
0.00467662
0.00468113
0.00468543
0.00468953
0.00469342
0.00469713
0.00470064
0.00470397
0.00470713
0.0047101
0.00471291
0.00471556
0.00471804
0.00472037
0.00472254
0.00472456
0.00472643
0.00472816
0.00472975
0.0047312
0.00473252
0.00473371
0.00473477
0.0047357
0.00473651
0.00473718
0.00473774
0.00473817
0.00473848
0.00473867
0.00473874
0.00473867
0.00473846
0.00473808
0.0047375
0.00473667
0.00473552
0.00473392
0.00473172
0.00472867
0.00472444
0.00471857
0.00471042
0.00469915
0.00468364
0.00466255
0.00463412
0.00459631
0.00454683
0.0044835
0.00440489
0.00431129
0.0042055
0.00409301
0.00495901
0.00492849
0.00489726
0.00486546
0.00483312
0.00480034
0.00476738
0.00473469
0.0047028
0.00467229
0.00464369
0.00461746
0.00459393
0.00457333
0.00455575
0.00454119
0.00452956
0.00452071
0.00451445
0.00451055
0.00450879
0.00450893
0.00451081
0.00451415
0.00451865
0.00452413
0.0045304
0.00453728
0.00454462
0.00455228
0.00456016
0.00456815
0.00457618
0.00458418
0.00459208
0.00459985
0.00460745
0.00461485
0.00462204
0.00462899
0.0046357
0.00464215
0.00464835
0.00465429
0.00465998
0.00466542
0.0046706
0.00467555
0.00468025
0.00468473
0.00468898
0.00469301
0.00469682
0.00470043
0.00470384
0.00470705
0.00471008
0.00471292
0.00471558
0.00471807
0.00472038
0.00472254
0.00472453
0.00472636
0.00472805
0.00472958
0.00473098
0.00473223
0.00473335
0.00473434
0.00473521
0.00473594
0.00473655
0.00473703
0.0047374
0.00473764
0.00473776
0.00473775
0.0047376
0.00473729
0.00473678
0.00473602
0.00473493
0.00473339
0.0047312
0.0047281
0.00472372
0.00471754
0.00470885
0.00469671
0.00467986
0.00465683
0.0046257
0.00458427
0.00453014
0.00446112
0.00437591
0.00427506
0.00416172
0.00404161
0.00496666
0.00493156
0.00489576
0.00485942
0.00482269
0.00478575
0.00474899
0.00471294
0.0046782
0.00464541
0.0046151
0.00458769
0.0045635
0.00454267
0.00452523
0.00451111
0.00450014
0.0044921
0.00448676
0.00448384
0.00448307
0.0044842
0.00448705
0.00449134
0.0044968
0.00450321
0.00451039
0.00451815
0.00452635
0.00453485
0.00454354
0.00455232
0.00456111
0.00456985
0.00457848
0.00458695
0.00459524
0.0046033
0.00461113
0.0046187
0.00462601
0.00463304
0.0046398
0.00464627
0.00465247
0.00465839
0.00466403
0.00466941
0.00467453
0.00467938
0.00468399
0.00468836
0.00469248
0.00469638
0.00470006
0.00470352
0.00470677
0.00470981
0.00471266
0.00471532
0.0047178
0.00472009
0.00472221
0.00472416
0.00472595
0.00472757
0.00472905
0.00473038
0.00473156
0.00473261
0.00473353
0.00473432
0.00473498
0.00473552
0.00473594
0.00473623
0.00473641
0.00473646
0.00473637
0.00473612
0.00473568
0.00473499
0.00473395
0.00473243
0.00473023
0.00472706
0.00472249
0.00471596
0.00470668
0.00469358
0.00467536
0.00465031
0.00461642
0.0045713
0.00451249
0.00443781
0.00434608
0.00423814
0.00411748
0.00398999
0.00497533
0.00493541
0.00489479
0.00485371
0.00481241
0.00477118
0.00473053
0.0046911
0.00465356
0.00461857
0.00458668
0.00455827
0.00453359
0.00451272
0.0044956
0.00448207
0.0044719
0.0044648
0.00446046
0.00445857
0.00445883
0.00446095
0.00446473
0.00446993
0.00447628
0.00448354
0.00449152
0.00450006
0.00450901
0.00451822
0.0045276
0.00453705
0.0045465
0.00455587
0.00456512
0.0045742
0.00458308
0.00459173
0.00460013
0.00460826
0.00461611
0.00462367
0.00463094
0.00463791
0.00464458
0.00465096
0.00465704
0.00466284
0.00466835
0.00467358
0.00467854
0.00468323
0.00468767
0.00469186
0.0046958
0.00469951
0.00470299
0.00470625
0.00470929
0.00471213
0.00471476
0.0047172
0.00471945
0.00472152
0.00472341
0.00472514
0.00472669
0.0047281
0.00472935
0.00473046
0.00473143
0.00473227
0.004733
0.00473359
0.00473406
0.00473441
0.00473464
0.00473474
0.00473471
0.00473453
0.00473414
0.0047335
0.00473251
0.004731
0.00472878
0.0047255
0.00472072
0.00471381
0.00470388
0.00468978
0.00467011
0.00464302
0.0046063
0.00455747
0.00449398
0.00441367
0.00431553
0.00420067
0.00407288
0.00393823
0.00498509
0.00494012
0.00489448
0.00484847
0.00480245
0.00475683
0.00471225
0.00466945
0.00462918
0.00459213
0.00455881
0.00452959
0.00450462
0.0044839
0.00446729
0.00445452
0.00444529
0.00443923
0.00443597
0.00443515
0.00443646
0.00443957
0.00444426
0.00445031
0.00445746
0.00446548
0.00447417
0.00448337
0.00449293
0.00450274
0.00451269
0.00452269
0.00453266
0.00454255
0.00455231
0.0045619
0.00457128
0.00458042
0.0045893
0.00459791
0.00460623
0.00461425
0.00462197
0.00462938
0.00463648
0.00464328
0.00464976
0.00465594
0.00466182
0.00466741
0.0046727
0.00467771
0.00468245
0.00468692
0.00469112
0.00469507
0.00469878
0.00470224
0.00470547
0.00470848
0.00471128
0.00471386
0.00471624
0.00471842
0.00472042
0.00472224
0.00472388
0.00472536
0.00472668
0.00472785
0.00472887
0.00472977
0.00473054
0.00473119
0.00473171
0.00473211
0.0047324
0.00473256
0.00473258
0.00473245
0.00473213
0.00473153
0.00473057
0.00472907
0.0047268
0.0047234
0.00471837
0.00471103
0.00470042
0.00468531
0.00466415
0.00463495
0.00459538
0.00454283
0.00447467
0.00438879
0.00428435
0.00416273
0.00402799
0.00388638
0.00499603
0.0049458
0.00489494
0.00484384
0.00479296
0.00474288
0.00469437
0.00464825
0.00460536
0.00456639
0.00453183
0.00450199
0.00447694
0.00445658
0.00444065
0.0044288
0.00442064
0.00441571
0.0044136
0.0044139
0.00441625
0.00442034
0.0044259
0.00443274
0.00444061
0.00444929
0.00445858
0.00446832
0.00447839
0.00448867
0.00449906
0.00450948
0.00451986
0.00453016
0.00454031
0.00455029
0.00456005
0.00456959
0.00457886
0.00458785
0.00459656
0.00460497
0.00461307
0.00462086
0.00462833
0.00463549
0.00464233
0.00464885
0.00465506
0.00466096
0.00466656
0.00467186
0.00467687
0.0046816
0.00468604
0.00469022
0.00469414
0.0046978
0.00470121
0.00470438
0.00470733
0.00471005
0.00471255
0.00471485
0.00471695
0.00471886
0.00472058
0.00472213
0.00472352
0.00472474
0.00472582
0.00472676
0.00472757
0.00472827
0.00472885
0.00472931
0.00472964
0.00472986
0.00472994
0.00472987
0.00472959
0.00472904
0.0047281
0.00472659
0.00472426
0.00472071
0.00471542
0.00470762
0.00469628
0.00468013
0.00465745
0.00462612
0.00458368
0.0045274
0.00445461
0.00436324
0.00425262
0.00412439
0.00398288
0.00383447
0.00500822
0.00495253
0.00489628
0.00483994
0.00478412
0.00472954
0.0046771
0.00462775
0.00458236
0.00454163
0.00450603
0.00447578
0.00445085
0.00443103
0.00441596
0.00440517
0.00439818
0.00439446
0.00439355
0.00439498
0.00439838
0.00440341
0.0044098
0.00441737
0.00442588
0.00443511
0.00444489
0.00445507
0.00446553
0.00447615
0.00448687
0.00449759
0.00450827
0.00451885
0.00452928
0.00453954
0.00454959
0.00455941
0.00456898
0.00457827
0.00458728
0.00459599
0.00460439
0.00461248
0.00462026
0.00462771
0.00463485
0.00464166
0.00464815
0.00465433
0.00466019
0.00466575
0.004671
0.00467595
0.00468062
0.004685
0.0046891
0.00469294
0.00469651
0.00469984
0.00470292
0.00470576
0.00470838
0.00471078
0.00471297
0.00471497
0.00471677
0.00471838
0.00471983
0.00472111
0.00472224
0.00472323
0.00472408
0.00472482
0.00472545
0.00472596
0.00472635
0.00472663
0.00472676
0.00472674
0.00472652
0.004726
0.00472508
0.00472355
0.00472114
0.00471743
0.00471184
0.00470355
0.00469149
0.00467425
0.00465002
0.00461654
0.00457122
0.00451123
0.00443385
0.00433707
0.00422039
0.00408571
0.00393759
0.00378255
0.00502169
0.00496038
0.00489859
0.00483689
0.00477606
0.00471696
0.00466065
0.00460816
0.00456041
0.0045181
0.00448164
0.00445117
0.00442656
0.00440745
0.00439339
0.00438378
0.00437805
0.00437561
0.00437591
0.00437848
0.0043829
0.00438883
0.004396
0.00440422
0.00441328
0.00442298
0.00443315
0.00444365
0.00445439
0.00446525
0.00447618
0.0044871
0.00449796
0.00450872
0.00451933
0.00452977
0.00454
0.00455001
0.00455977
0.00456927
0.00457849
0.00458741
0.00459604
0.00460436
0.00461237
0.00462005
0.00462742
0.00463446
0.00464118
0.00464758
0.00465366
0.00465942
0.00466487
0.00467002
0.00467486
0.00467941
0.00468368
0.00468767
0.00469138
0.00469484
0.00469804
0.00470099
0.00470371
0.0047062
0.00470847
0.00471054
0.00471241
0.00471409
0.00471559
0.00471692
0.0047181
0.00471913
0.00472003
0.00472081
0.00472148
0.00472205
0.0047225
0.00472283
0.00472302
0.00472306
0.00472288
0.0047224
0.00472149
0.00471994
0.00471744
0.00471355
0.00470764
0.00469883
0.00468602
0.00466768
0.00464187
0.00460624
0.00455804
0.00449435
0.00441243
0.00431034
0.00418772
0.00404674
0.00389216
0.00373063
0.00503649
0.0049694
0.00490194
0.0048348
0.00476891
0.00470531
0.00464518
0.00458965
0.00453969
0.00449597
0.00445884
0.00442834
0.0044042
0.00438596
0.00437302
0.00436469
0.00436028
0.00435913
0.00436066
0.00436434
0.00436975
0.00437652
0.00438439
0.00439319
0.00440272
0.00441279
0.00442326
0.004434
0.00444491
0.00445592
0.00446696
0.00447798
0.00448893
0.00449977
0.00451046
0.00452099
0.00453131
0.00454142
0.00455129
0.0045609
0.00457025
0.00457931
0.00458808
0.00459655
0.00460471
0.00461256
0.00462009
0.0046273
0.00463418
0.00464075
0.00464699
0.00465291
0.00465852
0.00466381
0.0046688
0.00467349
0.00467788
0.00468199
0.00468582
0.00468938
0.00469267
0.00469572
0.00469852
0.00470108
0.00470342
0.00470555
0.00470748
0.00470921
0.00471076
0.00471214
0.00471337
0.00471444
0.00471539
0.00471621
0.00471693
0.00471755
0.00471806
0.00471845
0.00471871
0.0047188
0.00471868
0.00471824
0.00471733
0.00471575
0.00471315
0.00470906
0.00470281
0.00469349
0.0046799
0.00466043
0.00463304
0.00459523
0.00454415
0.0044768
0.0043904
0.00428308
0.00415465
0.0040075
0.00384662
0.00367877
0.00505263
0.00497963
0.0049064
0.00483374
0.00476277
0.00469469
0.00463081
0.00457237
0.00452034
0.00447536
0.00443773
0.00440734
0.00438382
0.00436657
0.00435484
0.00434784
0.00434478
0.00434494
0.00434766
0.00435241
0.00435875
0.0043663
0.0043748
0.0043841
0.00439402
0.00440438
0.00441506
0.00442594
0.00443695
0.00444803
0.00445911
0.00447014
0.00448109
0.00449193
0.00450263
0.00451316
0.00452349
0.00453361
0.00454351
0.00455316
0.00456255
0.00457167
0.00458051
0.00458906
0.0045973
0.00460524
0.00461287
0.00462018
0.00462717
0.00463384
0.00464019
0.00464622
0.00465194
0.00465734
0.00466243
0.00466721
0.0046717
0.00467589
0.0046798
0.00468344
0.00468681
0.00468992
0.00469278
0.0046954
0.0046978
0.00469998
0.00470195
0.00470373
0.00470533
0.00470675
0.00470802
0.00470915
0.00471014
0.00471101
0.00471177
0.00471245
0.00471303
0.00471349
0.00471381
0.00471397
0.0047139
0.0047135
0.00471261
0.00471098
0.00470828
0.00470398
0.00469736
0.00468752
0.00467315
0.00465253
0.00462353
0.00458354
0.0045296
0.00445861
0.0043678
0.00425533
0.00412121
0.00396804
0.00380101
0.00362698
0.0050701
0.00499109
0.004912
0.00483379
0.00475773
0.0046852
0.00461766
0.00455641
0.00450243
0.00445635
0.00441834
0.0043882
0.0043654
0.00434921
0.00433874
0.0043331
0.00433138
0.00433282
0.00433669
0.00434245
0.00434964
0.0043579
0.00436696
0.00437668
0.00438691
0.00439748
0.00440829
0.00441925
0.0044303
0.00444136
0.00445241
0.0044634
0.00447429
0.00448506
0.00449569
0.00450615
0.00451643
0.0045265
0.00453635
0.00454597
0.00455534
0.00456445
0.00457329
0.00458184
0.00459011
0.00459807
0.00460574
0.00461309
0.00462012
0.00462685
0.00463325
0.00463934
0.00464511
0.00465057
0.00465571
0.00466055
0.0046651
0.00466934
0.0046733
0.00467699
0.0046804
0.00468356
0.00468646
0.00468913
0.00469156
0.00469378
0.00469579
0.00469761
0.00469925
0.00470072
0.00470204
0.00470321
0.00470426
0.00470519
0.00470601
0.00470675
0.0047074
0.00470793
0.00470833
0.00470857
0.00470856
0.0047082
0.00470732
0.00470566
0.00470284
0.00469831
0.00469136
0.00468097
0.00466579
0.00464401
0.00461338
0.0045712
0.00451441
0.00443982
0.00434465
0.00422714
0.00408745
0.00392839
0.00375536
0.0035753
0.00508889
0.00500378
0.00491877
0.00483497
0.00475383
0.00467691
0.00460578
0.00454181
0.00448601
0.00443892
0.00440064
0.00437083
0.00434882
0.00433374
0.00432454
0.00432023
0.00431983
0.00432251
0.00432749
0.00433419
0.00434213
0.00435099
0.00436052
0.00437057
0.00438103
0.00439175
0.00440263
0.00441362
0.00442465
0.00443567
0.00444663
0.00445751
0.00446829
0.00447895
0.00448946
0.00449981
0.00450997
0.00451993
0.00452968
0.00453921
0.0045485
0.00455753
0.00456631
0.00457481
0.00458304
0.00459097
0.00459861
0.00460594
0.00461297
0.00461969
0.0046261
0.00463219
0.00463798
0.00464345
0.00464861
0.00465347
0.00465803
0.0046623
0.00466628
0.00466999
0.00467342
0.0046766
0.00467953
0.00468222
0.00468468
0.00468693
0.00468897
0.00469083
0.00469251
0.00469402
0.00469539
0.00469662
0.00469773
0.00469873
0.00469962
0.00470043
0.00470116
0.00470178
0.00470227
0.00470259
0.00470266
0.00470235
0.00470149
0.00469979
0.00469685
0.00469211
0.0046848
0.00467387
0.00465785
0.00463489
0.00460263
0.00455826
0.00449861
0.00442046
0.00432099
0.00419853
0.00405339
0.00388859
0.0037097
0.00352376
0.00510894
0.00501768
0.00492671
0.00483729
0.00475109
0.00466982
0.00459518
0.00452859
0.00447104
0.00442303
0.00438455
0.00435512
0.00433392
0.00431993
0.00431198
0.00430904
0.00430994
0.00431374
0.0043197
0.00432719
0.00433578
0.00434514
0.00435505
0.00436538
0.00437602
0.00438683
0.00439775
0.00440872
0.00441968
0.0044306
0.00444144
0.00445218
0.00446283
0.00447335
0.0044837
0.00449388
0.00450389
0.0045137
0.00452331
0.0045327
0.00454186
0.00455077
0.00455944
0.00456784
0.00457597
0.00458382
0.00459138
0.00459865
0.00460562
0.00461229
0.00461865
0.00462471
0.00463046
0.00463591
0.00464105
0.00464589
0.00465044
0.00465469
0.00465867
0.00466237
0.00466581
0.00466899
0.00467193
0.00467463
0.00467711
0.00467938
0.00468145
0.00468334
0.00468506
0.00468663
0.00468805
0.00468935
0.00469053
0.00469161
0.00469259
0.00469349
0.00469431
0.00469504
0.00469563
0.00469605
0.0046962
0.00469596
0.00469512
0.00469339
0.00469034
0.00468539
0.00467773
0.00466622
0.00464937
0.00462521
0.0045913
0.00454473
0.00448225
0.00440057
0.00429687
0.00416955
0.00401908
0.00384867
0.00366406
0.0034724
0.00513022
0.00503274
0.00493578
0.00484076
0.00474952
0.00466395
0.00458585
0.0045167
0.00445747
0.0044086
0.00436993
0.00434088
0.00432047
0.00430759
0.00430097
0.00429928
0.00430133
0.00430608
0.00431284
0.004321
0.00433015
0.00433994
0.00435018
0.00436075
0.00437152
0.0043824
0.00439332
0.00440423
0.0044151
0.00442589
0.00443659
0.00444717
0.00445763
0.00446795
0.00447811
0.0044881
0.00449794
0.00450758
0.004517
0.00452622
0.00453521
0.00454397
0.00455248
0.00456074
0.00456874
0.00457646
0.00458391
0.00459107
0.00459794
0.00460452
0.0046108
0.00461678
0.00462247
0.00462785
0.00463294
0.00463773
0.00464224
0.00464646
0.00465041
0.00465408
0.00465751
0.00466068
0.00466361
0.00466632
0.00466881
0.0046711
0.0046732
0.00467512
0.00467689
0.00467851
0.00468
0.00468137
0.00468264
0.00468381
0.00468491
0.00468592
0.00468685
0.00468769
0.00468841
0.00468894
0.0046892
0.00468903
0.00468823
0.00468648
0.00468333
0.00467817
0.00467015
0.00465807
0.00464036
0.00461499
0.00457942
0.00453066
0.00446536
0.00438018
0.00427231
0.00414022
0.00398454
0.00380866
0.00361849
0.00342125
0.00515264
0.00504893
0.00494596
0.00484534
0.00474908
0.00465925
0.00457775
0.00450608
0.00444521
0.00439548
0.00435663
0.00432791
0.00430832
0.00429657
0.00429117
0.00429051
0.00429346
0.00429904
0.00430651
0.00431527
0.0043249
0.00433507
0.00434559
0.00435635
0.00436723
0.00437814
0.00438904
0.00439988
0.00441063
0.00442127
0.0044318
0.00444219
0.00445244
0.00446254
0.00447249
0.00448226
0.00449187
0.00450128
0.0045105
0.00451953
0.00452834
0.00453691
0.00454524
0.00455333
0.00456116
0.00456873
0.00457603
0.00458305
0.00458979
0.00459624
0.00460241
0.00460829
0.00461387
0.00461917
0.00462417
0.0046289
0.00463334
0.00463751
0.00464141
0.00464505
0.00464844
0.00465159
0.00465451
0.00465722
0.00465972
0.00466203
0.00466416
0.00466613
0.00466795
0.00466964
0.0046712
0.00467267
0.00467404
0.00467533
0.00467655
0.00467769
0.00467876
0.00467974
0.0046806
0.00468126
0.00468164
0.00468157
0.00468083
0.00467907
0.00467583
0.00467048
0.00466208
0.00464942
0.00463085
0.00460426
0.00456703
0.00451607