/*--------------------------------*- C++ -*----------------------------------*\
  =========                 |
  \\      /  F ield         | OpenFOAM: The Open Source CFD Toolbox
   \\    /   O peration     | Website:  https://openfoam.org
    \\  /    A nd           | Version:  6
     \\/     M anipulation  |
\*---------------------------------------------------------------------------*/
FoamFile
{
    version     2.0;
    format      ascii;
    class       volScalarField;
    location    "0";
    object      TRec;
}
// * * * * * * * * * * * * * * * * * * * * * * * * * * * * * * * * * * * * * //

dimensions      [0 0 0 1 0 0 0];

internalField   nonuniform List<scalar> 
10000
(
298.613
298.64
298.666
298.691
298.715
298.737
298.758
298.778
298.796
298.814
298.83
298.844
298.858
298.871
298.883
298.894
298.904
298.914
298.923
298.932
298.94
298.948
298.956
298.963
298.97
298.977
298.983
298.99
298.996
299.002
299.007
299.013
299.019
299.024
299.029
299.035
299.04
299.045
299.05
299.055
299.06
299.064
299.069
299.073
299.078
299.082
299.086
299.089
299.093
299.096
299.099
299.102
299.104
299.107
299.109
299.111
299.113
299.114
299.116
299.117
299.119
299.12
299.122
299.123
299.125
299.127
299.128
299.13
299.132
299.134
299.136
299.138
299.14
299.143
299.145
299.148
299.151
299.155
299.159
299.163
299.168
299.174
299.181
299.19
299.2
299.213
299.229
299.25
299.277
299.313
299.359
299.419
299.498
299.601
299.732
299.898
300.102
300.342
300.613
300.902
298.614
298.641
298.667
298.692
298.717
298.739
298.761
298.781
298.799
298.817
298.833
298.847
298.861
298.874
298.886
298.897
298.907
298.916
298.925
298.934
298.942
298.95
298.957
298.964
298.971
298.978
298.984
298.99
298.996
299.002
299.007
299.013
299.018
299.024
299.029
299.034
299.039
299.044
299.049
299.054
299.059
299.064
299.068
299.073
299.077
299.081
299.085
299.089
299.092
299.096
299.099
299.101
299.104
299.107
299.109
299.111
299.113
299.114
299.116
299.118
299.119
299.121
299.122
299.124
299.125
299.127
299.129
299.13
299.132
299.134
299.136
299.138
299.14
299.143
299.145
299.148
299.151
299.155
299.159
299.163
299.168
299.173
299.18
299.188
299.198
299.21
299.226
299.246
299.271
299.305
299.349
299.407
299.483
299.583
299.713
299.878
300.083
300.327
300.603
300.899
298.614
298.642
298.67
298.696
298.721
298.745
298.767
298.788
298.807
298.825
298.842
298.857
298.871
298.883
298.895
298.905
298.915
298.924
298.932
298.94
298.948
298.955
298.962
298.968
298.975
298.981
298.986
298.992
298.998
299.003
299.008
299.013
299.019
299.024
299.029
299.034
299.039
299.043
299.048
299.053
299.058
299.063
299.067
299.072
299.076
299.08
299.084
299.088
299.092
299.095
299.098
299.101
299.104
299.107
299.109
299.111
299.113
299.115
299.117
299.118
299.12
299.122
299.123
299.125
299.126
299.128
299.129
299.131
299.133
299.135
299.137
299.139
299.141
299.143
299.146
299.149
299.152
299.155
299.158
299.162
299.167
299.172
299.179
299.186
299.195
299.207
299.221
299.239
299.263
299.295
299.336
299.391
299.464
299.562
299.69
299.855
300.062
300.311
300.593
300.895
298.615
298.645
298.674
298.702
298.729
298.754
298.778
298.8
298.821
298.84
298.857
298.873
298.887
298.9
298.911
298.921
298.93
298.939
298.946
298.953
298.96
298.966
298.971
298.977
298.982
298.987
298.992
298.997
299.002
299.007
299.011
299.016
299.02
299.025
299.029
299.034
299.039
299.043
299.048
299.052
299.057
299.061
299.066
299.07
299.075
299.079
299.083
299.087
299.091
299.095
299.098
299.101
299.104
299.107
299.109
299.112
299.114
299.116
299.118
299.12
299.121
299.123
299.124
299.126
299.128
299.129
299.131
299.133
299.134
299.136
299.138
299.14
299.142
299.145
299.147
299.15
299.152
299.155
299.159
299.162
299.167
299.172
299.177
299.184
299.193
299.203
299.216
299.233
299.255
299.284
299.324
299.376
299.447
299.543
299.67
299.836
300.046
300.298
300.585
300.893
298.616
298.648
298.68
298.71
298.739
298.767
298.793
298.818
298.84
298.86
298.879
298.895
298.91
298.923
298.934
298.944
298.953
298.96
298.966
298.971
298.978
298.982
298.987
298.991
298.995
298.998
299.002
299.006
299.009
299.013
299.017
299.02
299.024
299.028
299.032
299.036
299.04
299.044
299.048
299.052
299.057
299.061
299.065
299.07
299.074
299.078
299.082
299.087
299.09
299.094
299.098
299.101
299.104
299.107
299.11
299.113
299.115
299.117
299.119
299.121
299.123
299.125
299.127
299.128
299.13
299.131
299.133
299.135
299.137
299.138
299.14
299.142
299.144
299.146
299.149
299.151
299.154
299.157
299.16
299.163
299.167
299.171
299.177
299.183
299.191
299.2
299.212
299.228
299.248
299.276
299.314
299.365
299.434
299.529
299.657
299.824
300.035
300.291
300.581
300.891
298.618
298.653
298.687
298.721
298.753
298.784
298.812
298.839
298.864
298.886
298.906
298.923
298.939
298.952
298.963
298.973
298.981
298.987
298.993
298.997
299.001
299.004
299.007
299.009
299.012
299.014
299.016
299.018
299.02
299.023
299.025
299.028
299.03
299.033
299.036
299.039
299.043
299.046
299.05
299.054
299.058
299.062
299.066
299.07
299.074
299.078
299.082
299.086
299.09
299.094
299.098
299.102
299.105
299.108
299.111
299.114
299.117
299.119
299.121
299.123
299.125
299.127
299.129
299.131
299.133
299.134
299.136
299.138
299.14
299.141
299.143
299.145
299.147
299.149
299.151
299.153
299.156
299.158
299.161
299.165
299.168
299.172
299.177
299.183
299.19
299.198
299.209
299.224
299.244
299.27
299.307
299.357
299.426
299.521
299.649
299.817
300.031
300.288
300.58
300.891
298.619
298.658
298.696
298.733
298.768
298.802
298.834
298.864
298.891
298.915
298.937
298.956
298.972
298.986
298.997
299.006
299.014
299.019
299.024
299.027
299.027
299.031
299.032
299.033
299.033
299.034
299.034
299.034
299.035
299.035
299.036
299.038
299.039
299.041
299.043
299.045
299.047
299.05
299.053
299.056
299.06
299.063
299.067
299.071
299.075
299.079
299.083
299.087
299.091
299.095
299.099
299.103
299.106
299.11
299.113
299.116
299.119
299.121
299.124
299.126
299.128
299.13
299.132
299.134
299.136
299.138
299.14
299.141
299.143
299.145
299.147
299.149
299.15
299.152
299.154
299.157
299.159
299.161
299.164
299.167
299.17
299.174
299.178
299.183
299.19
299.198
299.208
299.222
299.241
299.267
299.302
299.352
299.421
299.517
299.646
299.816
300.031
300.289
300.581
300.892
298.621
298.664
298.705
298.746
298.785
298.823
298.858
298.89
298.92
298.947
298.97
298.99
299.008
299.022
299.034
299.043
299.05
299.055
299.058
299.06
299.059
299.061
299.061
299.06
299.058
299.057
299.055
299.054
299.052
299.051
299.051
299.05
299.05
299.05
299.051
299.052
299.054
299.056
299.058
299.06
299.063
299.066
299.07
299.073
299.077
299.081
299.085
299.089
299.093
299.096
299.1
299.104
299.108
299.112
299.115
299.118
299.121
299.124
299.127
299.13
299.132
299.134
299.136
299.138
299.14
299.142
299.144
299.146
299.148
299.149
299.151
299.153
299.155
299.157
299.158
299.16
299.163
299.165
299.167
299.17
299.173
299.176
299.18
299.185
299.191
299.199
299.209
299.222
299.24
299.265
299.301
299.351
299.42
299.517
299.647
299.818
300.034
300.292
300.583
300.893
298.623
298.67
298.715
298.76
298.803
298.844
298.883
298.918
298.951
298.98
299.005
299.027
299.045
299.061
299.073
299.082
299.089
299.093
299.096
299.096
299.097
299.094
299.092
299.089
299.086
299.083
299.079
299.076
299.072
299.07
299.067
299.065
299.063
299.062
299.062
299.062
299.062
299.063
299.064
299.066
299.068
299.071
299.074
299.077
299.08
299.084
299.087
299.091
299.095
299.099
299.103
299.107
299.111
299.114
299.118
299.121
299.125
299.128
299.131
299.133
299.136
299.138
299.141
299.143
299.145
299.147
299.149
299.151
299.152
299.154
299.156
299.158
299.16
299.161
299.163
299.165
299.167
299.169
299.171
299.174
299.177
299.18
299.184
299.188
299.194
299.201
299.21
299.223
299.241
299.266
299.302
299.352
299.422
299.52
299.651
299.823
300.04
300.298
300.587
300.894
298.625
298.676
298.726
298.774
298.821
298.866
298.908
298.947
298.982
299.013
299.041
299.064
299.084
299.1
299.113
299.122
299.129
299.132
299.134
299.134
299.132
299.128
299.127
299.121
299.116
299.111
299.105
299.1
299.095
299.09
299.086
299.082
299.079
299.076
299.074
299.073
299.072
299.072
299.073
299.074
299.075
299.077
299.079
299.082
299.085
299.088
299.091
299.095
299.098
299.102
299.106
299.11
299.114
299.118
299.121
299.125
299.128
299.132
299.135
299.138
299.141
299.143
299.146
299.148
299.15
299.152
299.154
299.156
299.158
299.16
299.162
299.163
299.165
299.167
299.169
299.17
299.172
299.174
299.176
299.179
299.181
299.184
299.188
299.192
299.197
299.204
299.213
299.226
299.244
299.269
299.305
299.356
299.427
299.525
299.658
299.831
300.048
300.305
300.592
300.896
298.627
298.682
298.736
298.789
298.84
298.888
298.933
298.975
299.013
299.047
299.076
299.101
299.122
299.139
299.152
299.162
299.168
299.172
299.173
299.172
299.169
299.162
299.16
299.153
299.147
299.14
299.133
299.126
299.119
299.112
299.106
299.101
299.096
299.092
299.089
299.086
299.084
299.083
299.083
299.083
299.083
299.084
299.086
299.088
299.09
299.093
299.096
299.1
299.103
299.107
299.111
299.114
299.118
299.122
299.126
299.129
299.133
299.136
299.14
299.143
299.146
299.149
299.151
299.154
299.156
299.158
299.16
299.162
299.164
299.166
299.168
299.17
299.171
299.173
299.175
299.176
299.178
299.18
299.182
299.184
299.186
299.189
299.192
299.196
299.201
299.208
299.217
299.23
299.247
299.273
299.309
299.36
299.432
299.532
299.666
299.84
300.057
300.313
300.597
300.898
298.629
298.688
298.746
298.803
298.858
298.91
298.958
299.003
299.044
299.08
299.111
299.138
299.16
299.178
299.192
299.202
299.208
299.211
299.212
299.21
299.205
299.198
299.193
299.186
299.178
299.17
299.161
299.152
299.144
299.136
299.128
299.121
299.115
299.11
299.105
299.101
299.098
299.096
299.094
299.093
299.093
299.093
299.094
299.096
299.098
299.1
299.103
299.106
299.109
299.112
299.116
299.12
299.123
299.127
299.131
299.135
299.138
299.142
299.145
299.148
299.151
299.154
299.157
299.16
299.162
299.164
299.166
299.168
299.17
299.172
299.174
299.176
299.178
299.18
299.181
299.183
299.185
299.186
299.188
299.19
299.192
299.195
299.198
299.202
299.206
299.213
299.222
299.234
299.252
299.278
299.314
299.367
299.44
299.54
299.675
299.85
300.067
300.321
300.603
300.9
298.631
298.694
298.756
298.817
298.875
298.931
298.983
299.031
299.074
299.112
299.145
299.174
299.197
299.216
299.23
299.24
299.246
299.249
299.249
299.247
299.242
299.235
299.227
299.219
299.21
299.2
299.19
299.18
299.17
299.16
299.151
299.143
299.135
299.128
299.122
299.117
299.113
299.11
299.107
299.105
299.104
299.104
299.104
299.105
299.106
299.108
299.11
299.113
299.116
299.119
299.122
299.126
299.13
299.133
299.137
299.141
299.144
299.148
299.151
299.154
299.158
299.161
299.164
299.166
299.169
299.171
299.173
299.175
299.177
299.179
299.181
299.183
299.185
299.187
299.188
299.19
299.191
299.193
299.195
299.197
299.199
299.201
299.204
299.207
299.212
299.218
299.227
299.24
299.258
299.284
299.321
299.374
299.448
299.55
299.686
299.861
300.077
300.33
300.609
300.902
298.633
298.7
298.766
298.83
298.892
298.951
299.006
299.057
299.103
299.143
299.178
299.208
299.233
299.252
299.267
299.277
299.283
299.286
299.285
299.282
299.277
299.27
299.261
299.252
299.241
299.23
299.218
299.207
299.195
299.184
299.174
299.165
299.156
299.148
299.141
299.134
299.129
299.125
299.121
299.119
299.117
299.115
299.115
299.115
299.116
299.117
299.119
299.121
299.124
299.127
299.13
299.133
299.137
299.14
299.144
299.147
299.151
299.154
299.158
299.161
299.164
299.167
299.17
299.173
299.176
299.178
299.18
299.183
299.185
299.186
299.188
299.19
299.192
299.194
299.196
299.197
299.199
299.2
299.202
299.204
299.206
299.208
299.21
299.214
299.218
299.225
299.233
299.246
299.264
299.291
299.328
299.382
299.457
299.56
299.697
299.872
300.088
300.338
300.615
300.904
298.635
298.706
298.776
298.844
298.909
298.971
299.03
299.083
299.131
299.173
299.21
299.241
299.267
299.287
299.302
299.312
299.318
299.32
299.32
299.316
299.31
299.303
299.292
299.282
299.27
299.258
299.245
299.233
299.221
299.209
299.197
299.187
299.177
299.168
299.16
299.153
299.146
299.141
299.137
299.133
299.13
299.128
299.127
299.127
299.127
299.128
299.129
299.131
299.133
299.136
299.138
299.141
299.145
299.148
299.151
299.155
299.158
299.162
299.165
299.168
299.172
299.175
299.178
299.181
299.183
299.186
299.188
299.19
299.192
299.194
299.196
299.198
299.2
299.202
299.203
299.205
299.206
299.208
299.209
299.211
299.213
299.215
299.218
299.221
299.225
299.231
299.24
299.253
299.271
299.298
299.336
299.391
299.467
299.571
299.708
299.884
300.099
300.347
300.62
300.906
298.637
298.712
298.785
298.856
298.925
298.991
299.052
299.108
299.158
299.203
299.241
299.273
299.299
299.32
299.335
299.345
299.351
299.353
299.352
299.347
299.341
299.332
299.321
299.31
299.298
299.285
299.271
299.258
299.245
299.232
299.22
299.209
299.198
299.188
299.179
299.171
299.164
299.158
299.153
299.148
299.145
299.142
299.141
299.14
299.139
299.139
299.14
299.141
299.143
299.145
299.148
299.15
299.153
299.156
299.16
299.163
299.166
299.17
299.173
299.176
299.179
299.182
299.185
299.188
299.191
299.194
299.196
299.198
299.2
299.202
299.204
299.206
299.207
299.21
299.211
299.213
299.214
299.216
299.217
299.219
299.221
299.223
299.225
299.228
299.233
299.239
299.248
299.26
299.279
299.306
299.345
299.4
299.477
299.582
299.72
299.896
300.109
300.356
300.626
300.908
298.639
298.717
298.794
298.869
298.941
299.01
299.074
299.132
299.184
299.23
299.27
299.303
299.33
299.351
299.366
299.376
299.381
299.383
299.381
299.376
299.369
299.36
299.348
299.336
299.323
299.309
299.296
299.282
299.268
299.255
299.242
299.23
299.219
299.209
299.199
299.19
299.182
299.176
299.17
299.165
299.161
299.157
299.155
299.153
299.152
299.152
299.152
299.153
299.154
299.156
299.158
299.16
299.163
299.166
299.169
299.172
299.175
299.178
299.181
299.185
299.188
299.191
299.194
299.196
299.199
299.202
299.204
299.206
299.208
299.21
299.212
299.214
299.215
299.217
299.22
299.221
299.223
299.224
299.226
299.227
299.229
299.231
299.233
299.236
299.241
299.247
299.255
299.268
299.287
299.315
299.354
299.41
299.488
299.593
299.732
299.908
300.12
300.365
300.632
300.91
298.641
298.722
298.803
298.881
298.957
299.028
299.095
299.155
299.21
299.257
299.298
299.332
299.359
299.38
299.395
299.405
299.41
299.411
299.408
299.402
299.394
299.384
299.372
299.36
299.346
299.332
299.318
299.304
299.29
299.277
299.264
299.251
299.24
299.229
299.218
299.209
299.201
299.193
299.187
299.181
299.177
299.173
299.17
299.167
299.166
299.165
299.165
299.165
299.166
299.167
299.169
299.171
299.173
299.176
299.178
299.181
299.184
299.187
299.19
299.193
299.196
299.199
299.202
299.205
299.208
299.21
299.213
299.215
299.217
299.219
299.221
299.223
299.224
299.226
299.228
299.23
299.232
299.233
299.234
299.236
299.238
299.239
299.242
299.245
299.249
299.255
299.264
299.277
299.296
299.324
299.364
299.42
299.499
299.605
299.744
299.919
300.131
300.373
300.637
300.912
298.643
298.728
298.811
298.893
298.972
299.046
299.115
299.178
299.234
299.283
299.324
299.358
299.386
299.407
299.422
299.431
299.435
299.436
299.432
299.426
299.417
299.407
299.394
299.381
299.367
299.353
299.339
299.325
299.311
299.297
299.284
299.271
299.259
299.248
299.237
299.228
299.219
299.211
299.204
299.198
299.193
299.188
299.185
299.182
299.18
299.179
299.178
299.178
299.178
299.179
299.18
299.182
299.184
299.186
299.188
299.191
299.194
299.197
299.2
299.202
299.205
299.208
299.211
299.214
299.217
299.219
299.222
299.224
299.226
299.228
299.23
299.232
299.234
299.235
299.237
299.239
299.241
299.242
299.244
299.245
299.247
299.249
299.251
299.254
299.258
299.264
299.273
299.286
299.305
299.333
299.373
299.431
299.51
299.617
299.756
299.931
300.142
300.382
300.643
300.913
298.644
298.733
298.82
298.905
298.986
299.063
299.134
299.199
299.257
299.307
299.349
299.384
299.411
299.432
299.446
299.455
299.459
299.458
299.454
299.447
299.438
299.427
299.414
299.4
299.386
299.372
299.357
299.343
299.329
299.315
299.302
299.29
299.278
299.266
299.256
299.246
299.237
299.228
299.221
299.215
299.209
299.204
299.2
299.197
299.194
299.192
299.191
299.191
299.191
299.191
299.192
299.193
299.195
299.197
299.199
299.201
299.204
299.207
299.209
299.212
299.215
299.218
299.221
299.223
299.226
299.229
299.231
299.233
299.236
299.238
299.24
299.242
299.244
299.245
299.246
299.248
299.251
299.252
299.254
299.255
299.257
299.259
299.261
299.264
299.268
299.274
299.282
299.295
299.315
299.343
299.384
299.441
299.521
299.629
299.768
299.943
300.152
300.39
300.648
300.915
298.646
298.737
298.828
298.916
299
299.08
299.153
299.22
299.279
299.33
299.373
299.408
299.435
299.455
299.469
299.477
299.479
299.478
299.473
299.465
299.455
299.444
299.43
299.416
299.402
299.388
299.374
299.36
299.346
299.332
299.319
299.307
299.295
299.283
299.273
299.263
299.254
299.245
299.238
299.231
299.225
299.22
299.215
299.212
299.209
299.207
299.205
299.204
299.204
299.204
299.204
299.205
299.207
299.208
299.21
299.212
299.215
299.217
299.22
299.222
299.225
299.228
299.23
299.233
299.236
299.238
299.241
299.243
299.246
299.248
299.25
299.252
299.254
299.256
299.257
299.259
299.261
299.263
299.265
299.266
299.267
299.269
299.271
299.274
299.278
299.284
299.292
299.305
299.325
299.353
299.394
299.453
299.533
299.641
299.78
299.955
300.163
300.398
300.653
300.917
298.647
298.742
298.836
298.927
299.014
299.096
299.171
299.24
299.3
299.351
299.395
299.43
299.457
299.476
299.489
299.496
299.498
299.495
299.489
299.481
299.47
299.458
299.445
299.431
299.417
299.403
299.389
299.375
299.361
299.347
299.335
299.322
299.31
299.299
299.289
299.279
299.27
299.261
299.253
299.246
299.24
299.235
299.23
299.226
299.223
299.221
299.219
299.217
299.217
299.216
299.217
299.217
299.218
299.22
299.222
299.223
299.226
299.228
299.23
299.233
299.236
299.238
299.241
299.244
299.246
299.249
299.252
299.254
299.257
299.259
299.261
299.263
299.265
299.267
299.269
299.27
299.272
299.274
299.276
299.277
299.279
299.281
299.283
299.285
299.289
299.294
299.303
299.316
299.336
299.364
299.405
299.464
299.545
299.653
299.793
299.967
300.173
300.406
300.658
300.919
298.649
298.747
298.843
298.937
299.027
299.111
299.189
299.259
299.32
299.372
299.415
299.45
299.477
299.495
299.507
299.513
299.514
299.51
299.503
299.494
299.483
299.471
299.457
299.443
299.429
299.416
299.402
299.388
299.374
299.361
299.348
299.336
299.325
299.314
299.303
299.294
299.284
299.276
299.268
299.261
299.255
299.25
299.245
299.241
299.237
299.235
299.232
299.231
299.23
299.229
299.229
299.23
299.231
299.232
299.233
299.235
299.237
299.239
299.242
299.244
299.247
299.249
299.252
299.255
299.258
299.26
299.263
299.266
299.268
299.271
299.273
299.275
299.278
299.28
299.281
299.283
299.284
299.285
299.287
299.289
299.291
299.292
299.294
299.296
299.3
299.305
299.314
299.327
299.347
299.375
299.417
299.476
299.557
299.665
299.805
299.978
300.183
300.414
300.663
300.92
298.65
298.751
298.85
298.947
299.04
299.126
299.206
299.276
299.338
299.391
299.434
299.469
299.495
299.513
299.524
299.528
299.528
299.523
299.515
299.506
299.494
299.482
299.468
299.454
299.441
299.427
299.413
299.399
299.386
299.373
299.361
299.349
299.338
299.327
299.317
299.307
299.298
299.29
299.282
299.275
299.269
299.264
299.259
299.255
299.251
299.248
299.246
299.244
299.243
299.242
299.242
299.243
299.243
299.244
299.246
299.247
299.249
299.251
299.254
299.256
299.259
299.261
299.264
299.267
299.27
299.272
299.275
299.278
299.281
299.283
299.286
299.289
299.291
299.293
299.295
299.296
299.297
299.299
299.3
299.302
299.303
299.304
299.306
299.308
299.312
299.318
299.326
299.339
299.359
299.387
299.429
299.488
299.569
299.678
299.818
299.99
300.193
300.422
300.668
300.922
298.652
298.755
298.857
298.957
299.052
299.14
299.221
299.294
299.356
299.409
299.452
299.486
299.511
299.529
299.538
299.542
299.54
299.534
299.526
299.516
299.504
299.491
299.478
299.464
299.451
299.437
299.423
299.41
299.397
299.384
299.372
299.361
299.35
299.339
299.329
299.32
299.311
299.303
299.295
299.289
299.282
299.277
299.272
299.268
299.265
299.262
299.259
299.258
299.256
299.256
299.255
299.256
299.256
299.257
299.258
299.26
299.262
299.264
299.266
299.269
299.271
299.274
299.277
299.28
299.283
299.286
299.289
299.291
299.294
299.297
299.3
299.303
299.306
299.308
299.31
299.311
299.312
299.313
299.315
299.316
299.317
299.318
299.319
299.322
299.326
299.331
299.339
299.352
299.371
299.4
299.442
299.501
299.582
299.691
299.83
300.002
300.203
300.43
300.673
300.924
298.653
298.759
298.864
298.966
299.064
299.154
299.237
299.31
299.373
299.425
299.468
299.502
299.526
299.543
299.551
299.553
299.55
299.544
299.536
299.526
299.514
299.5
299.487
299.473
299.459
299.445
299.432
299.419
299.406
299.393
299.382
299.371
299.361
299.35
299.34
299.331
299.323
299.315
299.308
299.301
299.295
299.29
299.285
299.281
299.278
299.275
299.273
299.271
299.27
299.269
299.269
299.269
299.269
299.27
299.272
299.273
299.275
299.277
299.28
299.282
299.285
299.288
299.291
299.294
299.297
299.3
299.303
299.306
299.309
299.313
299.316
299.319
299.322
299.324
299.326
299.327
299.329
299.33
299.331
299.332
299.332
299.333
299.335
299.337
299.34
299.345
299.353
299.365
299.384
299.413
299.454
299.514
299.595
299.704
299.843
300.013
300.214
300.438
300.678
300.925
298.655
298.763
298.871
298.975
299.075
299.167
299.251
299.325
299.388
299.441
299.483
299.516
299.54
299.555
299.562
299.563
299.56
299.554
299.545
299.534
299.522
299.509
299.495
299.481
299.467
299.453
299.44
299.427
299.414
299.402
299.391
299.38
299.37
299.36
299.35
299.342
299.334
299.327
299.32
299.313
299.307
299.302
299.298
299.294
299.291
299.288
299.286
299.284
299.283
299.283
299.282
299.283
299.283
299.284
299.286
299.287
299.289
299.292
299.294
299.297
299.3
299.303
299.306
299.309
299.312
299.316
299.319
299.323
299.326
299.33
299.333
299.337
299.339
299.341
299.343
299.345
299.346
299.347
299.348
299.349
299.35
299.35
299.351
299.353
299.356
299.36
299.368
299.379
299.398
299.426
299.468
299.527
299.609
299.717
299.855
300.025
300.224
300.446
300.683
300.927
298.656
298.767
298.877
298.984
299.086
299.18
299.265
299.339
299.403
299.455
299.497
299.53
299.553
299.567
299.572
299.573
299.569
299.562
299.553
299.542
299.529
299.516
299.502
299.488
299.474
299.46
299.447
299.434
299.422
299.41
299.399
299.389
299.379
299.369
299.361
299.352
299.345
299.337
299.331
299.325
299.32
299.315
299.31
299.307
299.304
299.301
299.299
299.298
299.297
299.297
299.297
299.297
299.298
299.299
299.301
299.302
299.305
299.307
299.31
299.312
299.315
299.319
299.322
299.325
299.329
299.333
299.337
299.34
299.344
299.348
299.352
299.355
299.357
299.359
299.361
299.363
299.365
299.367
299.368
299.368
299.368
299.369
299.369
299.37
299.372
299.376
299.383
299.394
299.412
299.44
299.482
299.541
299.622
299.73
299.868
300.037
300.234
300.453
300.688
300.929
298.657
298.771
298.883
298.993
299.096
299.192
299.278
299.353
299.417
299.469
299.511
299.543
299.564
299.575
299.581
299.582
299.578
299.57
299.56
299.549
299.536
299.523
299.508
299.494
299.48
299.467
299.454
299.441
299.429
299.418
299.407
299.397
299.388
299.379
299.37
299.362
299.355
299.348
299.342
299.337
299.331
299.327
299.323
299.32
299.317
299.315
299.313
299.312
299.311
299.311
299.312
299.312
299.313
299.315
299.316
299.318
299.321
299.323
299.326
299.329
299.333
299.336
299.34
299.344
299.347
299.351
299.356
299.36
299.364
299.369
299.372
299.374
299.376
299.378
299.381
299.384
299.386
299.387
299.388
299.389
299.389
299.388
299.388
299.388
299.39
299.393
299.399
299.41
299.427
299.455
299.496
299.555
299.636
299.744
299.881
300.049
300.244
300.461
300.692
300.93
298.658
298.775
298.889
299.001
299.106
299.203
299.29
299.366
299.43
299.481
299.524
299.554
299.573
299.585
299.591
299.59
299.586
299.578
299.568
299.556
299.543
299.53
299.515
299.501
299.487
299.474
299.461
299.449
299.437
299.426
299.415
299.406
299.396
299.388
299.38
299.372
299.366
299.359
299.354
299.348
299.344
299.34
299.336
299.333
299.331
299.329
299.328
299.327
299.327
299.327
299.327
299.328
299.33
299.331
299.333
299.336
299.338
299.341
299.344
299.348
299.351
299.355
299.359
299.363
299.367
299.372
299.377
299.381
299.386
299.39
299.392
299.394
299.397
299.4
299.403
299.406
299.408
299.41
299.411
299.411
299.41
299.409
299.408
299.407
299.408
299.41
299.416
299.426
299.443
299.47
299.511
299.569
299.651
299.758
299.894
300.061
300.254
300.469
300.697
300.932
298.659
298.778
298.895
299.009
299.116
299.214
299.302
299.378
299.442
299.494
299.534
299.563
299.583
299.595
299.6
299.599
299.594
299.586
299.575
299.563
299.551
299.537
299.522
299.508
299.494
299.481
299.468
299.456
299.445
299.434
299.424
299.415
299.406
299.398
299.39
299.383
299.377
299.371
299.366
299.361
299.357
299.353
299.35
299.348
299.346
299.344
299.343
299.343
299.343
299.343
299.344
299.345
299.347
299.349
299.351
299.354
299.357
299.36
299.364
299.367
299.371
299.375
299.38
299.384
299.389
299.394
299.399
299.404
299.408
299.41
299.412
299.415
299.419
299.423
299.427
299.43
299.432
299.433
299.434
299.433
299.432
299.431
299.429
299.427
299.427
299.429
299.433
299.443
299.459
299.486
299.526
299.584
299.665
299.772
299.908
300.073
300.264
300.476
300.702
300.934
298.661
298.781
298.901
299.016
299.125
299.225
299.314
299.389
299.453
299.504
299.544
299.573
299.593
299.604
299.608
299.607
299.602
299.593
299.583
299.571
299.559
299.544
299.53
299.516
299.502
299.489
299.477
299.465
299.454
299.443
299.434
299.425
299.416
299.408
299.401
299.395
299.389
299.383
299.379
299.374
299.371
299.368
299.365
299.363
299.361
299.36
299.36
299.359
299.36
299.361
299.362
299.363
299.365
299.368
299.37
299.373
299.377
299.38
299.384
299.388
299.392
299.397
299.402
299.407
299.412
299.418
299.422
299.426
299.428
299.431
299.434
299.439
299.443
299.448
299.452
299.454
299.456
299.458
299.458
299.457
299.456
299.454
299.451
299.448
299.447
299.448
299.451
299.46
299.476
299.502
299.542
299.6
299.68
299.786
299.921
300.085
300.274
300.484
300.707
300.935
298.662
298.785
298.906
299.024
299.134
299.236
299.325
299.399
299.464
299.515
299.553
299.583
299.602
299.613
299.617
299.616
299.61
299.602
299.592
299.58
299.567
299.552
299.538
299.524
299.511
299.498
299.486
299.474
299.464
299.454
299.444
299.436
299.428
299.42
299.414
299.408
299.402
299.397
299.393
299.389
299.386
299.383
299.381
299.379
299.378
299.377
299.377
299.377
299.378
299.379
299.381
299.383
299.385
299.388
299.391
299.394
299.398
299.402
299.406
299.41
299.415
299.42
299.425
299.431
299.436
299.44
299.443
299.446
299.449
299.453
299.458
299.464
299.469
299.473
299.477
299.479
299.481
299.482
299.482
299.481
299.48
299.477
299.473
299.47
299.468
299.467
299.47
299.478
299.493
299.518
299.558
299.615
299.695
299.801
299.935
300.097
300.284
300.492
300.712
300.936
298.663
298.788
298.912
299.031
299.144
299.246
299.336
299.41
299.474
299.524
299.564
299.593
299.612
299.622
299.626
299.624
299.619
299.61
299.601
299.589
299.575
299.561
299.547
299.533
299.52
299.508
299.496
299.485
299.475
299.465
299.456
299.448
299.441
299.434
299.427
299.422
299.417
299.412
299.409
299.405
299.402
299.4
299.398
299.397
299.396
299.396
299.396
299.396
299.397
299.399
299.401
299.403
299.406
299.409
299.412
299.416
299.42
299.424
299.429
299.433
299.438
299.444
299.449
299.454
299.458
299.46
299.463
299.467
299.472
299.478
299.484
299.49
299.494
299.498
299.502
299.504
299.506
299.507
299.507
299.506
299.504
299.501
299.497
299.492
299.489
299.487
299.489
299.496
299.51
299.535
299.574
299.631
299.71
299.815
299.948
300.109
300.295
300.5
300.716
300.938
298.664
298.791
298.917
299.039
299.153
299.256
299.344
299.422
299.482
299.535
299.575
299.603
299.621
299.631
299.635
299.633
299.628
299.62
299.61
299.598
299.584
299.57
299.557
299.544
299.531
299.519
299.508
299.497
299.487
299.478
299.47
299.462
299.455
299.449
299.443
299.438
299.433
299.429
299.426
299.423
299.42
299.418
299.417
299.416
299.415
299.415
299.416
299.417
299.418
299.42
299.422
299.425
299.428
299.431
299.434
299.439
299.443
299.447
299.452
299.457
299.463
299.468
299.472
299.474
299.477
299.481
299.486
299.491
299.498
299.504
299.51
299.515
299.519
299.523
299.526
299.528
299.529
299.53
299.531
299.53
299.528
299.525
299.52
299.515
299.51
299.508
299.509
299.515
299.528
299.552
299.591
299.647
299.726
299.83
299.962
300.122
300.305
300.508
300.72
300.94
298.665
298.795
298.923
299.046
299.162
299.266
299.352
299.433
299.493
299.545
299.585
299.613
299.631
299.641
299.644
299.642
299.637
299.63
299.621
299.608
299.594
299.581
299.568
299.555
299.543
299.531
299.52
299.51
299.501
299.492
299.485
299.477
299.471
299.465
299.46
299.455
299.451
299.447
299.444
299.442
299.44
299.438
299.437
299.436
299.436
299.437
299.437
299.438
299.44
299.442
299.444
299.447
299.45
299.454
299.458
299.462
299.466
299.471
299.476
299.481
299.485
299.488
299.49
299.493
299.498
299.504
299.51
299.517
299.523
299.529
299.533
299.538
299.542
299.546
299.549
299.551
299.553
299.554
299.554
299.553
299.552
299.548
299.544
299.538
299.533
299.529
299.529
299.534
299.547
299.57
299.608
299.664
299.742
299.845
299.976
300.134
300.316
300.516
300.724
300.941
298.666
298.798
298.928
299.053
299.17
299.274
299.364
299.441
299.504
299.556
299.595
299.623
299.641
299.65
299.654
299.652
299.646
299.64
299.631
299.618
299.605
299.592
299.58
299.567
299.555
299.545
299.534
299.525
299.516
299.508
299.501
299.494
299.488
299.483
299.478
299.474
299.471
299.467
299.465
299.462
299.461
299.459
299.459
299.458
299.458
299.459
299.46
299.461
299.463
299.465
299.467
299.47
299.474
299.477
299.481
299.486
299.49
299.495
299.498
299.501
299.503
299.506
299.511
299.516
299.522
299.528
299.535
299.541
299.546
299.551
299.556
299.561
299.565
299.568
299.572
299.574
299.576
299.577
299.577
299.577
299.575
299.572
299.567
299.561
299.555
299.551
299.549
299.554
299.565
299.588
299.625
299.68
299.758
299.861
299.991
300.147
300.327
300.523
300.728
300.943
298.667
298.801
298.933
299.061
299.18
299.282
299.377
299.451
299.515
299.567
299.606
299.633
299.651
299.661
299.664
299.662
299.657
299.651