/*--------------------------------*- C++ -*----------------------------------*\
  =========                 |
  \\      /  F ield         | OpenFOAM: The Open Source CFD Toolbox
   \\    /   O peration     | Website:  https://openfoam.org
    \\  /    A nd           | Version:  6
     \\/     M anipulation  |
\*---------------------------------------------------------------------------*/
FoamFile
{
    version     2.0;
    format      ascii;
    class       volVectorField;
    location    "0";
    object      U;
}
// * * * * * * * * * * * * * * * * * * * * * * * * * * * * * * * * * * * * * //

dimensions      [0 1 -1 0 0 0 0];

internalField   nonuniform List<vector> 
13046
(
(0.360228 0.0790933 0)
(0.580929 -0.221406 2.5998e-21)
(0.220432 -0.14704 5.81371e-21)
(0.37082 0.00597867 0)
(0.186201 -0.0815982 5.38302e-21)
(0.500995 -0.230217 0)
(0.401442 0.0250158 -8.02089e-22)
(0.548003 -0.263576 -1.3152e-21)
(0.159667 -0.0697511 5.89886e-21)
(0.789129 0.322667 -2.17662e-21)
(0.970042 -0.449061 0)
(-0.0175388 -0.0242299 -3.58945e-21)
(0.453836 0.113639 5.10143e-21)
(0.679692 -0.288733 3.7914e-21)
(0.143657 -0.112123 -3.16969e-21)
(0.735522 0.357908 -1.17985e-21)
(0.0254785 -0.0586447 -5.7177e-21)
(1.01977 -0.384229 -9.80853e-22)
(0.225724 -0.0195182 0)
(0.383423 -0.205268 2.88131e-21)
(0.413695 -0.081289 -8.35841e-21)
(0.746554 0.351057 1.2295e-21)
(0.0136853 -0.0497818 1.14494e-20)
(1.01116 -0.39922 -2.55385e-22)
(0.32774 0.0172047 -3.39799e-21)
(0.492665 -0.192789 4.92463e-21)
(0.232558 -0.12841 0)
(0.458144 0.139227 -9.69246e-23)
(0.702724 -0.285533 -1.12286e-21)
(0.150606 -0.125536 1.09411e-20)
(0.360593 0.098075 0)
(0.60301 -0.210935 0)
(0.232435 -0.165441 -5.91654e-21)
(0.308324 -0.00718268 1.19014e-20)
(0.254097 -0.12943 -2.00129e-21)
(0.446936 -0.16683 -7.62947e-21)
(0.316406 -0.0277754 1.66546e-23)
(0.25419 -0.110803 0)
(0.420732 -0.163679 0)
(0.282698 0.103977 -4.29692e-21)
(0.38341 -0.280189 -5.26372e-21)
(0.584437 -0.130452 3.95117e-21)
(0.332895 -0.0851035 -2.71193e-21)
(0.283351 -0.0881563 2.77221e-21)
(0.341352 -0.132115 0)
(0.353015 -0.0781247 -1.75438e-21)
(0.253814 -0.0671844 0)
(0.358593 -0.156011 8.83763e-22)
(0.378574 0.0747405 0)
(0.590609 -0.240602 1.84906e-22)
(0.187559 -0.126985 3.49907e-23)
(0.547161 -0.408871 -6.23583e-21)
(0.233199 0.123409 0)
(0.628695 -0.0606589 4.58461e-21)
(0.601543 -0.443799 8.87575e-21)
(0.633574 -0.0387921 5.01663e-21)
(0.205262 0.11056 -6.54278e-21)
(0.942887 -0.269447 6.88145e-22)
(0.594264 0.329106 0)
(0.19525 -0.199721 -4.76601e-21)
(0.605982 0.129105 2.42871e-21)
(0.791057 -0.427894 -2.09539e-21)
(0.0511392 -0.0231722 1.31616e-20)
(0.00698675 -0.0471438 -6.67437e-21)
(0.967587 -0.441634 9.58087e-22)
(0.743831 0.280698 3.70874e-21)
(0.560608 0.322268 0)
(0.912399 -0.238097 -3.35437e-21)
(0.241328 -0.240836 -1.37785e-21)
(0.532117 0.30347 1.83735e-21)
(0.88287 -0.227248 4.54571e-21)
(0.258093 -0.251288 1.87485e-21)
(0.971914 -0.275643 6.37529e-24)
(0.620335 0.346164 -5.75914e-23)
(0.178484 -0.192542 3.19597e-23)
(0.228725 -0.000390783 0)
(0.378925 -0.218648 -3.13669e-21)
(0.442714 -0.097912 5.90413e-21)
(0.120837 -0.142318 -5.22777e-21)
(0.661172 0.354357 5.46666e-21)
(0.998329 -0.313602 1.3653e-21)
(0.34916 0.0256468 -1.78808e-21)
(0.513361 -0.212086 1.75187e-21)
(0.206472 -0.109369 0)
(0.00159311 -0.0434687 5.94348e-21)
(0.979361 -0.443466 0)
(0.760887 0.296206 -2.19196e-21)
(0.782621 0.219807 3.79334e-21)
(-0.00746504 -0.0165242 0)
(0.929519 -0.512796 7.87088e-22)
(0.0134011 0.0129429 0)
(0.844973 0.167869 0)
(0.896878 -0.587454 -9.43587e-23)
(0.604862 0.214782 4.82363e-21)
(0.63882 0.223702 -6.68944e-21)
(0.862274 -0.371032 -3.81521e-21)
(0.886308 -0.396667 1.7782e-21)
(0.0744151 -0.0892046 2.78839e-21)
(0.0520251 -0.0719368 -7.15948e-21)
(-0.00211997 -0.00978649 3.41236e-22)
(0.781672 0.200283 -3.71116e-21)
(0.913958 -0.527527 0)
(0.359522 -0.0572341 1.29513e-23)
(0.230678 -0.0660833 0)
(0.395409 -0.182016 0)
(0.155766 0.0612635 -1.18834e-20)
(0.563965 -0.0145689 2.36109e-21)
(0.590793 -0.392043 0)
(0.231814 0.103803 -1.81027e-21)
(0.495476 -0.355881 0)
(0.58867 -0.0794838 8.9837e-21)
(0.750129 0.329778 0)
(-0.0214472 -0.00900234 4.85485e-21)
(0.871014 -0.424839 -3.27104e-23)
(0.420012 0.0930999 -3.56178e-21)
(0.641894 -0.268645 -1.68825e-21)
(0.15667 -0.110131 -5.7236e-21)
(0.637815 0.267253 -2.79036e-21)
(0.605888 0.240595 2.60462e-21)
(0.918868 -0.361644 -9.68026e-22)
(0.0814981 -0.103551 -3.1781e-21)
(0.881267 -0.352552 1.01953e-21)
(0.0898439 -0.10605 2.96891e-21)
(0.780729 0.332839 5.22177e-21)
(0.962127 -0.440496 5.58446e-22)
(-0.0178463 -0.021287 1.59933e-21)
(0.535271 0.183958 0)
(0.792229 -0.33063 2.71632e-21)
(0.112265 -0.114603 -1.66169e-20)
(0.313321 0.117128 0)
(0.343576 -0.257526 5.30298e-21)
(0.606625 -0.154934 -2.14341e-22)
(0.0233759 0.0189797 0)
(0.819027 0.152114 0)
(0.887961 -0.580892 0)
(0.701085 0.230511 0)
(0.918292 -0.4445 4.50505e-21)
(0.0187349 -0.0456184 7.19351e-21)
(0.391237 0.117299 0)
(0.641614 -0.23099 0)
(0.216943 -0.168766 0)
(0.496835 0.0494441 0)
(0.642095 -0.353089 0)
(0.107183 -0.0226819 0)
(0.215152 0.101239 1.67513e-21)
(0.535967 -0.382256 0)
(0.594662 -0.060328 -4.86889e-21)
(0.159376 0.0496958 1.151e-20)
(0.545463 -0.0201144 5.21402e-21)
(0.577304 -0.374326 -5.67589e-21)
(0.628966 0.147544 -5.55486e-21)
(0.819453 -0.436445 0)
(0.0405654 -0.0321337 -1.70968e-20)
(0.153281 0.00318852 0)
(0.475568 -0.016459 -1.13891e-20)
(0.534638 -0.314768 -1.47718e-21)
(0.694388 -0.483683 -2.41887e-21)
(0.641927 0.0185153 -5.33553e-21)
(0.737618 -0.499009 0)
(0.654923 0.0472737 -3.09388e-21)
(0.138771 0.0761234 -5.59025e-21)
(0.107966 0.057531 5.36994e-21)
(0.529015 0.0239096 -7.29029e-22)
(0.630773 -0.381718 -2.8794e-21)
(0.113621 0.00879551 3.31164e-21)
(0.806628 0.308636 2.21512e-21)
(-0.0213113 -0.0220741 -1.8706e-21)
(0.954949 -0.466773 1.14879e-21)
(0.763451 0.334078 1.42642e-21)
(-0.0206544 -0.0123328 7.28939e-22)
(0.913642 -0.429693 0)
(0.709981 0.248315 -8.93613e-23)
(0.934049 -0.439885 0)
(0.0172324 -0.0500801 -8.68836e-21)
(0.366196 0.176117 0)
(0.689521 -0.165554 -1.17323e-21)
(0.355283 -0.291026 -3.05526e-21)
(0.519677 0.00805879 -4.72279e-21)
(0.130118 0.0212527 0)
(0.599345 -0.363039 0)
(-0.0239789 -0.0191369 0)
(0.946063 -0.502168 0)
(0.825269 0.27562 -1.81002e-21)
(0.335774 0.15425 0)
(0.654627 -0.150871 2.6278e-21)
(0.368894 -0.286168 -7.95022e-22)
(0.147042 0.0164375 0)
(0.491249 -0.0151376 0)
(0.543013 -0.32954 0)
(0.471231 0.0314287 -2.38237e-21)
(0.607621 -0.332637 0)
(0.118739 -0.0282685 0)
(0.722386 -0.328041 1.08351e-23)
(0.108466 -0.0878618 3.90653e-21)
(0.510282 0.162563 -7.41139e-21)
(0.762228 -0.31928 0)
(0.119225 -0.110633 1.71677e-20)
(0.787465 0.261381 4.32996e-21)
(-0.0117857 -0.027133 -5.40532e-21)
(0.957371 -0.486978 3.31195e-21)
(0.0143019 0.00837035 -4.99017e-21)
(0.787122 0.164427 -2.31078e-21)
(0.893096 -0.554938 -4.10138e-21)
(0.829129 0.200073 6.1407e-21)
(0.917437 -0.551249 0)
(-0.00571296 -0.00204768 4.8877e-21)
(0.569446 -0.450104 2.49557e-21)
(0.686148 -0.064364 -2.02604e-21)
(0.269953 0.168389 -5.49572e-21)
(0.450179 0.0683134 4.68426e-21)
(0.649967 0.363637 -2.82168e-21)
(0.140834 -0.157801 3.2157e-21)
(1.0016 -0.302843 -6.36974e-24)
(0.921978 -0.547587 0)
(0.840932 0.220217 1.73966e-21)
(-0.0136019 -0.0077954 0)
(0.343618 -0.0315164 8.79631e-21)
(0.225481 -0.0845829 0)
(0.427704 -0.187248 -2.84285e-21)
(0.438278 0.144569 0)
(0.693954 -0.266133 1.62608e-22)
(0.181281 -0.145928 -3.24667e-21)
(0.0227375 0.0164304 -3.84738e-21)
(0.795779 0.152778 0)
(0.884397 -0.569164 4.72514e-21)
(0.477682 0.0882007 0)
(0.706973 -0.334874 -6.83348e-21)
(0.104125 -0.0759168 0)
(-0.0259108 -0.015857 0)
(0.912225 -0.465172 -5.09152e-22)
(0.807402 0.311994 0)
(0.239137 0.148112 5.94697e-21)
(0.676122 -0.0466615 0)
(0.603857 -0.472763 0)
(0.802972 0.189125 -5.38771e-21)
(0.911779 -0.543163 0)
(-0.00096389 -0.0027805 3.42444e-23)
(0.588587 0.0365701 -6.11419e-21)
(0.684739 -0.439883 -2.12584e-21)
(0.103954 0.0339167 7.58936e-21)
(0.531651 0.199946 0)
(0.800241 -0.317108 -2.54499e-21)
(0.129111 -0.128331 -1.719e-21)
(0.836598 -0.585153 6.59374e-21)
(0.769269 0.0925622 4.11657e-21)
(0.076179 0.0545842 -3.03096e-21)
(0.68828 0.0567618 0)
(0.768263 -0.527475 2.81339e-21)
(0.103881 0.0612811 1.10624e-22)
(-0.0270253 -0.0149975 3.77798e-21)
(0.88854 -0.47115 0)
(0.815273 0.302306 1.41956e-21)
(0.283468 0.137299 -7.98562e-21)
(0.451751 -0.340852 3.78227e-21)
(0.629182 -0.110958 3.78857e-22)
(0.686685 0.352747 -1.43208e-21)
(-0.0142896 -0.0045924 4.01886e-22)
(0.880288 -0.368512 0)
(0.20831 -0.0369597 -1.7873e-21)
(0.395966 -0.0595324 6.78288e-21)
(0.413187 -0.213508 -8.57831e-21)
(0.576049 0.0707706 -2.49911e-21)
(0.567581 0.0423252 -3.83572e-23)
(0.71696 -0.423543 5.19604e-21)
(0.677756 -0.4204 5.0885e-21)
(0.0988409 0.0191495 -6.0332e-21)
(0.076655 0.00181286 3.10266e-21)
(0.0961659 -0.120856 6.84281e-21)
(0.680572 0.360945 -2.9103e-21)
(1.01722 -0.324461 0)
(0.500169 0.193987 0)
(0.775901 -0.289631 0)
(0.163313 -0.149915 6.85716e-21)
(0.713229 0.0804164 1.09669e-21)
(0.800977 -0.5464 0)
(0.082515 0.0499339 0)
(0.671378 0.252411 -2.4376e-21)
(0.922538 -0.400642 0)
(0.0442967 -0.0731725 -3.13513e-21)
(0.308602 -0.0710084 -1.84155e-21)
(0.353876 -0.121132 -2.64358e-21)
(0.295684 -0.10778 9.24007e-22)
(0.631823 0.0591976 3.93529e-21)
(0.737939 -0.478373 0)
(0.0895959 0.0379322 5.16383e-21)
(0.505595 0.210815 0)
(0.793705 -0.282503 -3.15356e-21)
(0.173681 -0.163456 4.34173e-21)
(0.486731 0.111646 -7.61266e-21)
(0.517947 0.129582 6.12957e-21)
(0.291035 0.149724 6.31763e-21)
(0.462924 -0.356979 -1.09272e-20)
(0.646129 -0.106304 8.28339e-21)
(0.648019 0.0829101 4.07641e-21)
(0.769858 -0.488142 -4.25971e-21)
(0.0675213 0.0238095 -4.71101e-21)
(0.695441 0.25933 8.93249e-21)
(0.0295141 -0.0618087 1.11186e-20)
(0.939147 -0.417782 2.06666e-21)
(0.233355 0.0900087 2.78018e-21)
(0.470791 -0.336835 0)
(0.571212 -0.0838617 -3.01159e-21)
(0.154258 0.093143 6.06185e-21)
(0.661677 0.0121897 3.01743e-21)
(0.694964 -0.502947 0)
(0.588152 0.267392 9.0354e-22)
(0.891275 -0.311831 2.58004e-21)
(0.13609 -0.145556 -1.95741e-21)
(0.261864 0.142799 -5.16232e-22)
(0.522836 -0.39858 0)
(0.646263 -0.0763196 -6.34506e-21)
(0.615933 0.286327 0)
(0.637417 0.287773 0)
(0.92265 -0.325022 1.56837e-21)
(0.121282 -0.136187 5.11419e-21)
(0.934627 -0.347957 -2.21382e-21)
(0.0959279 -0.115376 -5.41363e-21)
(-0.0197771 -0.0233827 4.1621e-21)
(0.956992 -0.489355 0)
(0.811039 0.282426 2.67302e-21)
(0.574123 0.230552 0)
(0.852498 -0.332335 1.22505e-21)
(0.113823 -0.122593 -1.78011e-21)
(0.758724 -0.380516 9.64659e-22)
(-0.0162843 -0.00226799 -5.97834e-21)
(0.666697 0.320112 -2.66602e-21)
(0.451728 -0.0436409 9.2186e-21)
(0.177231 -0.000652974 0)
(0.476284 -0.275137 3.09684e-21)
(0.566916 0.114236 -5.77494e-21)
(0.756132 -0.399406 0)
(0.0634194 -0.0333394 -1.01326e-20)
(-0.00348362 -0.0339499 3.4514e-21)
(0.761257 0.253721 -7.96977e-21)
(0.949867 -0.472577 -2.72875e-21)
(0.620812 -0.463159 3.22202e-21)
(0.649855 -0.0315135 0)
(0.203382 0.121384 7.41569e-21)
(0.854239 -0.582226 7.61835e-21)
(0.77909 0.114231 2.50419e-21)
(0.053942 0.0381956 0)
(0.650492 -0.308487 3.6509e-21)
(0.122981 -0.0729477 0)
(0.580319 0.157277 -6.21978e-21)
(0.794694 -0.383665 -2.3279e-21)
(0.0652418 -0.0648374 -3.07709e-21)
(0.641012 -0.322713 -1.24817e-22)
(0.114591 -0.0582906 -1.24945e-23)
(0.726389 0.347947 6.05039e-21)
(0.0370913 -0.0701394 -8.06375e-21)
(1.01553 -0.37764 1.442e-21)
(0.555631 -0.46009 -3.24738e-21)
(0.713731 -0.0768544 -6.24843e-22)
(0.299424 0.190846 0)
(0.608951 0.174855 6.33486e-21)
(0.832123 -0.400135 2.83888e-21)
(0.0517076 -0.0571718 7.45927e-21)
(0.515553 0.0452625 0)
(0.644819 -0.372252 2.11206e-21)
(0.103381 -0.00863684 0)
(0.582431 -0.033573 3.00387e-21)
(0.571559 -0.400699 0)
(0.182991 0.079988 0)
(0.371748 0.0511673 2.47726e-21)
(0.55809 -0.235134 4.06611e-21)
(0.188548 -0.113687 -3.00989e-25)
(0.179664 0.110601 -7.51835e-21)
(0.662544 -0.00711119 -7.33266e-21)
(0.667363 -0.491472 -8.62518e-21)
(0.804388 0.239926 3.22751e-21)
(0.941642 -0.508421 -2.7798e-21)
(-0.0142727 -0.0191966 -8.14593e-23)
(0.861486 -0.566275 -5.21335e-21)
(0.767888 0.125145 -2.53779e-21)
(0.0415692 0.0282309 -3.87645e-21)
(0.471696 0.273017 5.65094e-21)
(0.325945 -0.29625 -2.77885e-21)
(0.827759 -0.191514 0)
(0.648515 0.327229 -1.58954e-21)
(0.626036 0.311734 1.46671e-21)
(0.947559 -0.311741 4.95052e-22)
(0.972026 -0.32018 -1.92096e-21)
(0.119125 -0.137661 1.84637e-21)
(0.134998 -0.150472 1.65232e-21)
(-0.0170842 -0.0022959 6.07537e-21)
(0.798247 -0.377496 -1.06231e-21)
(0.678017 0.325962 -9.67527e-22)
(0.698569 0.357375 9.89408e-23)
(-0.0123282 -0.00835679 0)
(0.913711 -0.371806 0)
(0.60614 0.0885781 9.18026e-21)
(0.756115 -0.443642 1.11586e-21)
(0.0668548 0.00254915 0)
(-0.0142191 -0.028062 1.04036e-20)
(0.793789 0.275571 -3.36142e-21)
(0.965028 -0.481216 0)
(0.538646 0.279225 -8.08047e-21)
(0.566602 0.288094 6.03142e-21)
(0.868117 -0.2574 -2.83289e-21)
(0.892216 -0.275858 -1.05814e-21)
(0.220237 -0.212484 3.25854e-21)
(0.187604 -0.187423 1.63744e-21)
(-0.0184002 -0.00952272 0)
(0.898725 -0.550209 0)
(0.87159 0.222586 -9.07287e-22)
(0.642495 0.35008 1.68189e-21)
(-0.0132245 -0.000387577 -3.75561e-21)
(0.84575 -0.343545 0)
(0.405222 -0.109884 -4.49607e-24)
(0.257159 -0.0252516 -3.95744e-21)
(0.329341 -0.168835 -1.93024e-21)
(0.709273 0.336168 2.68581e-21)
(0.856541 -0.39831 4.78505e-23)
(-0.0185541 -0.00523974 -7.54615e-21)
(0.408243 0.189413 -6.97116e-21)
(0.719612 -0.197685 5.25611e-21)
(0.299762 -0.252859 4.63058e-23)
(0.831927 0.263556 -7.16253e-23)
(0.940894 -0.513358 -3.37647e-21)
(-0.0224769 -0.0172263 2.12888e-21)
(0.663278 -0.383747 1.93892e-23)
(-0.0149809 -0.00562318 6.9172e-21)
(0.653372 0.266484 8.23015e-22)
(0.255114 0.079306 3.70426e-21)
(0.395346 -0.272336 2.26438e-22)
(0.547457 -0.114429 -9.71498e-21)
(0.403584 -0.0366354 0)
(0.460646 -0.238947 9.49434e-21)
(0.186965 -0.037842 -4.95716e-21)
(0.765712 0.34622 -5.30702e-21)
(-0.0133604 -0.0227589 -4.76407e-21)
(0.970701 -0.426237 5.49074e-23)
(0.422673 -0.0266045 0)
(0.483328 -0.258345 3.25605e-21)
(0.170881 -0.0228552 7.02133e-21)
(0.382127 -0.105781 -3.97969e-21)
(0.265923 -0.0436293 4.18023e-21)
(0.325814 -0.152364 -1.02528e-21)
(0.227043 0.14869 3.61608e-21)
(0.695483 -0.0305051 2.54139e-21)
(0.64786 -0.509665 -4.71757e-21)
(0.454143 -0.0820268 0)
(0.406923 -0.236545 0)
(0.21149 0.0136591 -5.87755e-22)
(0.46405 -0.0579722 -4.96303e-21)
(0.452476 -0.26314 -2.52731e-21)
(0.194349 0.0141874 -8.3038e-23)
(0.441352 0.256598 -8.59522e-21)
(0.796635 -0.173414 3.8891e-21)
(0.362616 -0.325732 5.58848e-21)
(-0.00352198 -0.0362817 -7.21216e-21)
(-0.0100861 -0.0321544 7.36139e-21)
(0.994339 -0.432317 -8.06289e-22)
(0.984161 -0.445371 -6.17269e-22)
(0.769693 0.333836 -4.6104e-21)
(0.780899 0.32436 6.9141e-21)
(0.822099 0.24464 -3.99856e-21)
(0.940392 -0.51578 2.23975e-21)
(-0.0179648 -0.015669 0)
(0.313182 -0.297177 -3.61954e-21)
(0.498734 0.297776 -1.77142e-21)
(0.859844 -0.198662 0)
(0.301567 0.136359 0)
(0.408653 -0.310436 3.46345e-21)
(0.628993 -0.128966 -2.9641e-21)
(0.70776 0.0407207 0)
(0.759742 -0.547995 -2.91138e-21)
(0.129844 0.0831614 -1.14434e-22)
(0.747454 -0.449094 -3.12623e-22)
(-0.0234658 -0.0137751 0)
(0.777203 0.264566 2.51795e-21)
(0.00169779 0.00483506 0)
(0.848973 0.186157 0)
(0.903297 -0.577178 -1.61405e-21)
(0.78425 0.326202 -1.73055e-21)
(-0.0227348 -0.0156648 0)
(0.927418 -0.447474 4.99687e-22)
(-0.0118463 -0.00253662 2.56646e-32)
(0.618179 -0.354576 -6.90309e-22)
(0.599212 0.257546 -8.08912e-22)
(0.645492 -0.311231 7.94116e-22)
(-0.0109093 0.00241592 -2.5604e-32)
(0.565672 0.295896 7.31153e-22)
(0.831979 -0.48499 5.6073e-21)
(0.675563 0.133811 0)
(0.0373669 -0.00240604 9.94958e-21)
(0.852964 -0.518199 3.332e-22)
(-0.0253183 -0.0154996 0)
(0.870033 0.245653 0)
(0.720823 0.2248 3.95635e-21)
(0.918804 -0.46381 -2.7612e-21)
(0.0104197 -0.0363113 -5.11565e-21)
(0.720463 0.379314 -5.92155e-21)
(0.0214084 -0.0481783 -2.86578e-21)
(1.02588 -0.359106 0)
(0.42618 0.0723107 -1.89957e-21)
(0.142209 -0.0866385 1.95489e-21)
(0.629174 -0.286257 -1.76424e-21)
(0.903759 -0.561031 0)
(-0.013326 -0.00548581 -3.55262e-21)
(0.867371 0.211658 -1.09787e-21)
(0.696013 0.0254915 2.96148e-21)
(0.149008 0.0964308 2.05135e-21)
(0.734126 -0.535405 0)
(0.813887 -0.53823 0)
(0.710433 0.0969211 0)
(0.0634331 0.0366817 -3.63445e-21)
(-0.00321685 0.00244096 0)
(0.361703 -0.182262 -1.14195e-21)
(0.341741 0.16052 -2.32489e-22)
(0.752688 -0.402297 1.45824e-22)
(-0.0180022 -0.00504792 4.17687e-21)
(0.69263 0.306258 1.26574e-21)
(0.401208 0.0510615 4.93592e-21)
(0.159501 -0.0896023 -4.68434e-21)
(0.583079 -0.265704 -2.06294e-21)
(0.913832 -0.526821 -2.50486e-21)
(0.856703 0.249125 1.87495e-21)
(-0.0238525 -0.0137831 0)
(-0.0193142 -0.0103258 3.70285e-21)
(0.882759 0.224154 0)
(0.87863 -0.54957 1.93588e-21)
(0.778829 0.293999 2.44661e-21)
(-0.00778206 -0.0346003 -1.11e-20)
(0.976355 -0.458409 -2.84493e-21)
(0.0666459 -0.0948471 8.27047e-21)
(1.00681 -0.356072 -1.95309e-21)
(0.69866 0.343454 0)
(0.425156 0.261647 1.08515e-20)
(0.793486 -0.157394 -4.95676e-21)
(0.405688 -0.361535 5.28366e-21)
(0.931127 -0.289338 -7.32613e-22)
(0.599066 0.31335 -3.49228e-21)
(0.17248 -0.180468 5.09036e-21)
(0.0612776 -0.0900551 7.39759e-21)
(0.705369 0.371075 0)
(1.03351 -0.344919 1.01495e-21)
(0.435021 0.180422 1.75722e-21)
(0.47164 0.202837 0)
(0.725043 -0.233463 5.48808e-21)
(0.768051 -0.253019 -5.86844e-21)
(0.23669 -0.198264 -3.59349e-21)
(0.214281 -0.19121 0)
(0.406022 0.174688 1.71699e-21)
(0.704618 -0.208937 0)
(0.2758 -0.227069 -1.68645e-21)
(0.527752 0.28895 0)
(0.868124 -0.241849 4.57873e-21)
(0.246133 -0.235826 -1.17578e-21)
(0.846524 -0.550961 2.66936e-21)
(0.744063 0.117083 -2.72194e-21)
(0.0454233 0.0262526 7.92715e-21)
(0.928781 -0.537334 0)
(0.833268 0.235125 -6.27316e-22)
(-0.0180257 -0.0118118 0)
(0.0214078 0.0073055 2.55717e-21)
(0.755918 0.152551 1.6872e-21)
(0.877936 -0.539177 1.70229e-21)
(0.69634 -0.320691 -1.33153e-22)
(-0.0122769 0.00276872 -6.22937e-24)
(0.592254 0.312516 0)
(0.306516 0.0910217 -3.39667e-21)
(0.317244 0.0818607 0)
(0.312032 -0.218713 8.44051e-22)
(0.572351 -0.16199 -1.16046e-20)
(0.284651 -0.196265 -1.06816e-21)
(0.56608 -0.178134 7.43058e-21)
(0.475039 0.253175 0)
(0.436215 0.228677 1.11141e-21)
(0.31254 -0.27291 -1.84882e-23)
(0.810017 -0.216955 -3.09316e-21)
(0.284439 -0.253906 -8.57415e-21)
(0.769189 -0.197599 6.67349e-21)
(0.65209 -0.400568 0)
(-0.0169727 -0.00939693 -7.55938e-21)
(0.687031 0.254776 0)
(0.923209 -0.523427 1.69403e-21)
(0.847648 0.248689 -6.19812e-22)
(-0.022912 -0.0148315 -2.23465e-21)
(0.323456 0.170443 2.06971e-21)
(0.446223 -0.357313 3.88421e-21)
(0.675623 -0.12206 -9.29762e-21)
(0.812661 -0.569418 -5.93749e-21)
(0.742032 0.0769488 -6.91772e-21)
(0.0892191 0.0610428 0)
(0.0825718 -0.109234 -8.84457e-21)
(0.9999 -0.345068 2.07763e-21)
(0.685056 0.341624 0)
(0.837346 -0.441464 0)
(0.770247 0.310117 0)
(-0.0236618 -0.0101779 0)
(0.853752 -0.461229 0)
(0.797515 0.300008 -2.60509e-21)
(-0.0263122 -0.0130226 0)
(0.566111 0.271352 3.37538e-21)
(0.878846 -0.29177 -1.5997e-21)
(0.167586 -0.169414 -2.42363e-21)
(0.214701 0.0739834 9.77234e-22)
(0.479821 -0.327289 0)
(0.547869 -0.0702195 -3.2537e-21)
(0.786769 0.306048 -2.85066e-21)
(-0.0110688 -0.0315488 -6.43674e-21)
(0.981358 -0.456409 4.03321e-21)
(0.843814 -0.506423 0)
(0.700734 0.137502 0)
(0.0333022 0.00629054 -8.58624e-21)
(0.0241395 -0.0604379 -2.12614e-21)
(0.962342 -0.42037 -3.4518e-21)
(0.717177 0.283977 -8.21828e-21)
(0.413328 0.22072 -1.13217e-21)
(0.346209 -0.297666 5.75192e-21)
(0.750605 -0.180935 -3.47627e-21)
(0.585265 0.0144107 5.92486e-21)
(0.650012 -0.427453 -3.14866e-21)
(0.130362 0.0505357 -7.41091e-21)
(0.274957 0.109861 -6.14536e-23)
(0.414508 -0.305053 1.15274e-21)
(0.593325 -0.118723 3.88248e-21)
(-0.018294 -0.0249925 2.50753e-21)
(0.966424 -0.474087 -1.54587e-21)
(0.80404 0.298335 -2.97957e-21)
(0.667169 0.273437 1.54582e-21)
(0.937886 -0.383697 1.14604e-21)
(0.0589477 -0.0862668 0)
(0.265008 0.0713854 3.68344e-21)
(0.363035 -0.24472 -7.35363e-21)
(0.538399 -0.128407 6.41924e-21)
(0.710665 0.379591 -2.40339e-21)
(0.0485437 -0.0767547 -3.26253e-21)
(1.03943 -0.346579 -1.36262e-22)
(0.385858 0.133855 2.13915e-21)
(0.65381 -0.219301 0)
(0.241698 -0.190575 0)
(0.463213 0.00932579 8.78072e-21)
(0.562931 -0.313721 -1.98265e-21)
(0.13557 -0.0156258 0)
(0.806692 -0.512279 0)
(0.684432 0.097862 -5.82538e-21)
(0.0578434 0.0269973 3.80694e-21)
(0.713822 0.368001 0)
(-0.00415747 -0.0198444 1.00803e-21)
(0.972941 -0.373553 -1.10576e-22)
(0.709314 0.375739 -2.20691e-21)
(0.00328511 -0.0265034 -3.20879e-21)
(0.992607 -0.362135 4.80327e-22)
(0.0325332 -0.0681097 -1.92883e-21)
(0.973903 -0.405891 1.8648e-21)
(0.713775 0.298417 7.56355e-21)
(0.612646 0.00286304 2.65877e-21)
(0.660591 -0.455105 6.33858e-21)
(0.148048 0.069721 0)
(-0.00755402 -0.0109415 -9.23389e-22)
(0.936976 -0.360256 1.07057e-22)
(0.684003 0.364678 0)
(0.000598717 -0.0307044 0)
(0.933766 -0.478074 2.00611e-21)
(0.749381 0.23408 9.2847e-22)
(-0.00877318 -0.00281289 -3.77834e-21)
(0.520773 -0.323966 5.22071e-22)
(0.535972 0.213701 0)
(0.478067 0.275149 9.8864e-22)
(0.569316 -0.253921 0)
(-0.00807436 0.00513002 -3.77154e-21)
(0.0556818 -0.0849682 8.29945e-24)
(1.0224 -0.359253 1.96944e-22)
(0.710109 0.358503 0)
(-0.0252007 -0.0186233 0)
(0.93719 -0.477328 0)
(0.817364 0.301938 -3.68632e-21)
(0.757617 0.329809 2.58786e-21)
(0.749109 0.317809 -2.09351e-21)
(0.00725116 -0.0470272 3.62333e-21)
(1.0033 -0.418091 2.95447e-22)
(0.0110047 -0.0514093 0)
(0.994391 -0.421015 0)
(0.755106 0.218445 -1.80876e-21)
(0.923581 -0.49338 -1.39228e-21)
(-0.000613701 -0.0233907 0)
(0.120144 0.0833379 0)
(0.784583 -0.572364 0)
(0.736187 0.0536823 0)
(0.317899 0.0511304 -4.6086e-21)
(0.256913 -0.162133 1.0292e-20)
(0.529223 -0.185009 -4.09495e-21)
(0.743164 0.177224 -5.19843e-21)
(0.890562 -0.514354 -5.67676e-22)
(0.00986393 -0.00792493 -7.51898e-21)
(0.019472 0.000604707 -4.89514e-21)
(0.736389 0.159926 7.22857e-21)
(0.87439 -0.521555 7.87094e-22)
(0.689039 0.376466 -2.87478e-21)
(0.0855791 -0.111792 -3.53422e-21)
(1.03382 -0.324829 0)
(0.487751 0.268385 0)
(0.830809 -0.216645 -1.36327e-21)
(0.285515 -0.261574 8.40493e-21)
(0.436667 0.210096 0)
(0.751819 -0.209236 -6.90086e-21)
(0.287038 -0.25029 1.09584e-23)
(0.665329 0.161798 7.05428e-21)
(0.850073 -0.462343 -7.53727e-22)
(0.0284705 -0.0246856 4.33016e-21)
(0.684133 0.158363 0)
(0.854614 -0.479071 -7.16875e-22)
(0.0256342 -0.0155413 -3.96877e-21)
(0.250261 0.0493749 0)
(0.365922 -0.234026 1.15867e-20)
(0.505276 -0.118579 0)
(0.481594 0.217962 0)
(0.784317 -0.250429 3.73521e-21)
(0.219614 -0.202633 -1.28863e-21)
(-0.00583621 0.00010191 7.69382e-21)
(0.893689 -0.57397 3.54897e-21)
(0.873047 0.196851 0)
(0.81559 0.283686 5.40469e-23)
(-0.02669 -0.0144093 -2.32786e-21)
(0.824813 -0.472391 -2.79048e-22)
(0.810138 0.267842 1.38845e-22)
(-0.0255581 -0.0150347 0)
(0.790369 -0.468647 6.9889e-22)
(0.341795 0.142256 -2.52548e-21)
(0.334996 -0.256776 1.24692e-21)
(0.643205 -0.168538 1.29286e-22)
(0.782948 -0.424829 -1.59997e-22)
(-0.0216489 -0.00889774 -9.59027e-21)
(0.746546 0.299248 0)
(0.690302 0.295997 -6.59888e-21)
(0.0514969 -0.0818946 0)
(0.963871 -0.387048 0)
(-0.0213312 -0.0110312 3.80725e-21)
(0.738097 -0.433393 1.99212e-23)
(0.745437 0.27422 -1.87816e-21)
(0.37244 -0.0139364 -6.11489e-21)
(0.195118 -0.068001 -6.30578e-21)
(0.470922 -0.220248 -2.42153e-23)
(0.533161 0.153832 1.08261e-21)
(0.76847 -0.345028 8.81673e-22)
(0.096361 -0.088531 3.94908e-21)
(0.61896 -0.438963 -7.3245e-21)
(0.610408 -0.0186414 -9.57295e-21)
(0.175307 0.0857758 0)
(-0.0246045 -0.0143009 0)
(0.875427 -0.526196 4.94933e-22)
(0.870913 0.245128 0)
(0.831776 -0.51855 0)
(0.704137 0.122951 0)
(0.041635 0.0157559 0)
(0.0303582 -0.059979 0)
(0.724343 0.373595 2.1464e-21)
(1.03203 -0.362928 -9.04228e-22)
(0.568657 0.170937 0)
(0.800815 -0.367477 -4.56302e-22)
(0.0780608 -0.0788379 -3.81785e-24)
(0.310261 0.0339154 4.45267e-21)
(0.258462 -0.153748 -8.84479e-21)
(0.502987 -0.178082 0)
(0.90178 -0.518034 2.36788e-21)
(0.854426 0.262624 -1.78094e-21)
(-0.0264617 -0.0152852 0)
(0.00408464 -0.0422101 4.42189e-21)
(0.952818 -0.456357 -1.25095e-22)
(0.743689 0.264473 -1.65244e-22)
(0.746071 0.352137 0)
(0.737531 0.351819 -1.99671e-21)
(-0.0124522 -0.0174663 -2.32159e-21)
(-0.0151915 -0.0129799 2.87489e-21)
(0.956984 -0.403462 1.88308e-22)
(0.93471 -0.40363 -1.54867e-22)
(0.549911 0.0748328 0)
(0.701056 -0.401018 -6.02764e-21)
(0.0813655 -0.0121878 -4.85122e-21)
(0.801323 -0.467332 -7.90128e-21)
(0.646519 0.114852 0)
(0.0468449 0.000284659 5.28218e-21)
(0.423022 0.0227231 4.99189e-21)
(0.557636 -0.282609 -3.36341e-21)
(0.142866 -0.0510317 -7.69298e-21)
(0.854587 -0.494415 -9.77569e-22)
(0.840563 0.274328 -1.98002e-21)
(0.84056 -0.503436 3.98527e-22)
(-0.0276842 -0.0156673 2.46577e-21)
(0.852385 0.259121 1.85719e-21)
(-0.0266254 -0.0160834 0)
(0.6409 0.207387 0)
(0.871449 -0.411031 0)
(0.0445309 -0.061558 -4.86755e-21)
(0.842974 0.275924 -2.15544e-21)
(0.838366 0.280807 5.48016e-21)
(0.906569 -0.503217 -6.34274e-22)
(0.886032 -0.492548 1.90118e-21)
(-0.0277759 -0.0164173 -6.51831e-21)
(-0.0281303 -0.0158032 1.11912e-23)
(0.631316 0.0983239 0)
(0.773835 -0.46868 7.58392e-21)
(0.0617732 0.0126358 -6.84983e-21)
(0.503301 0.094604 -4.69296e-21)
(0.724025 -0.358067 5.41419e-21)
(0.085436 -0.0596609 0)
(0.727066 0.37369 0)
(0.00943439 -0.0373152 -4.44568e-22)
(1.01149 -0.373495 -4.61405e-22)
(0.547077 0.0931767 -3.46389e-21)
(0.718859 -0.390633 0)
(0.0743551 -0.0256852 8.00663e-21)
(0.448219 0.0461073 -2.0326e-21)
(0.607556 -0.312534 3.94758e-21)
(0.123 -0.0504791 -4.45277e-21)
(0.733069 0.359574 0)
(-0.0065567 -0.0212809 0)
(0.977133 -0.392562 6.99957e-22)
(0.574579 0.191516 0)
(0.827353 -0.35796 -8.89009e-22)
(0.082032 -0.09104 4.81767e-21)
(0.719707 -0.542769 0)
(0.707151 0.0109793 0)
(0.174194 0.116451 2.63907e-22)
(0.413419 0.231667 2.77885e-22)
(0.76088 -0.16925 0)
(0.367783 -0.319862 -4.3937e-21)
(0.870487 -0.593982 -2.9056e-21)
(0.0422427 0.032534 0)
(0.811455 0.130671 0)
(-0.0062101 0.00188488 9.07603e-21)
(0.482969 -0.247831 1.59925e-21)
(0.451184 0.212857 3.25586e-22)
(0.556062 0.129412 0)
(0.756233 -0.378578 -3.31735e-21)
(0.0710493 -0.0533295 0)
(0.74922 0.354932 -4.07989e-21)
(0.00600598 -0.040577 -1.2192e-20)
(1.01027 -0.397214 1.76636e-21)
(0.481936 -0.411935 0)
(0.749822 -0.118223 3.37262e-21)
(0.36143 0.225665 0)
(0.572711 0.324115 0)
(-0.0122517 0.00482707 2.22734e-21)
(0.735147 -0.310274 0)
(0.174549 0.0351638 -4.80385e-21)
(0.181551 0.0534964 4.91032e-21)
(0.504019 -0.319865 0)
(0.504257 -0.043222 -4.14538e-21)
(0.523081 -0.345409 7.3014e-21)
(0.533156 -0.0465376 3.29819e-21)
(0.431458 0.00198726 -4.70023e-21)
(0.530457 -0.280063 -4.56999e-21)
(0.150405 -0.032135 0)
(0.227001 0.0659707 -4.26795e-21)
(0.201372 0.0451073 0)
(0.434462 -0.291537 0)
(0.53118 -0.0906251 0)
(0.452548 -0.289853 4.27482e-21)
(0.50434 -0.0708272 -2.6123e-23)
(0.528827 0.11775 -2.96225e-22)
(0.686672 -0.351261 2.41108e-21)
(0.0941439 -0.0493083 5.47692e-21)
(0.511343 0.0825834 8.08783e-21)
(0.686367 -0.362344 0)
(0.091087 -0.0364752 0)
(-0.0255962 -0.016624 0)
(0.795628 -0.489181 0)
(0.837837 0.254907 -1.69127e-21)
(0.372953 0.151555 6.95766e-21)
(0.665332 -0.191401 0)
(0.293344 -0.230827 -2.30853e-21)
(0.830063 0.284519 5.00044e-21)
(0.931798 -0.496572 -1.01559e-21)
(-0.0266482 -0.0178527 3.72008e-21)
(0.678006 0.187218 0)
(0.705729 0.202329 -3.80982e-21)
(0.87586 -0.454734 9.39832e-22)
(0.898425 -0.466417 -2.73305e-21)
(0.0219368 -0.0331516 5.35417e-21)
(0.0134702 -0.0310918 4.93708e-21)
(0.363905 0.131295 0)
(0.640975 -0.198344 0)
(0.275071 -0.21226 -1.10397e-21)
(0.516633 0.256496 -2.70545e-21)
(0.835693 -0.25329 0)
(0.224255 -0.210235 -2.80498e-21)
(0.622861 0.168805 2.0205e-21)
(0.83199 -0.422132 0)
(0.041248 -0.044369 -4.9315e-21)
(0.277832 -0.00839319 -4.79167e-21)
(0.434654 -0.139155 -2.28812e-21)
(0.29387 -0.156874 -2.38254e-21)
(0.719437 0.180818 0)
(0.885698 -0.493888 0)
(0.0129489 -0.0156286 7.99555e-21)
(0.295628 0.055438 0)
(0.293366 -0.189254 -1.29138e-21)
(0.525585 -0.162996 0)
(0.621497 0.113382 4.54109e-21)
(0.782501 -0.45126 4.22416e-21)
(0.053442 -0.00941203 6.86724e-22)
(0.514917 0.239325 -2.74508e-21)
(0.822369 -0.265931 -4.25621e-21)
(0.200817 -0.191935 0)
(0.27783 0.0133987 4.74792e-21)
(0.259967 0.0168512 2.11993e-21)
(0.463778 -0.147097 -2.22297e-21)
(0.29615 -0.170656 4.7284e-21)
(0.465583 -0.131601 0)
(0.325705 -0.193415 8.38047e-21)
(0.225398 0.0332632 2.13431e-21)
(0.393708 -0.246913 -5.38501e-21)
(0.206811 0.0338774 -1.3734e-21)
(0.484308 -0.0966513 0)
(0.441618 -0.276854 -2.75214e-21)
(0.490202 -0.0759851 4.74568e-21)
(0.42586 0.161653 -2.53273e-21)
(0.458564 0.169359 0)
(0.703405 -0.240514 -4.17162e-21)
(0.729193 -0.265997 3.25666e-21)
(0.219033 -0.180893 1.03931e-20)
(0.184787 -0.156792 -8.64953e-21)
(0.0544357 -0.0855942 0)
(0.99379 -0.373662 1.10052e-21)
(0.70242 0.326651 3.84464e-21)
(0.193479 0.125237 -8.94033e-21)
(0.688406 -0.00883684 -4.00642e-21)
(0.681286 -0.516746 7.39956e-21)
(0.0371992 -0.0715432 4.13913e-21)
(0.0261726 -0.0636974 0)
(1.00145 -0.389502 -9.51996e-22)
(0.991386 -0.405709 -1.70492e-21)
(0.721418 0.332722 -9.75566e-21)
(0.730049 0.318262 5.05794e-21)
(0.278021 0.161242 0)
(0.531373 -0.415788 4.18977e-21)
(0.669987 -0.0808425 -9.16049e-22)
(0.298298 -0.047922 -1.00674e-20)
(0.286226 -0.120311 0)
(0.384591 -0.132672 7.84112e-21)
(0.727913 0.200345 1.79365e-21)
(0.903091 -0.487191 3.08513e-21)
(0.00772533 -0.0224611 0)
(0.327484 0.109682 0)
(0.305117 -0.22849 1.05175e-21)
(0.602399 -0.172149 3.7413e-21)
(0.536034 0.245995 0)
(0.841015 -0.28125 0)
(0.179022 -0.174954 6.74894e-22)
(0.666636 0.323089 0)
(0.664881 0.307929 0)
(0.976904 -0.344956 -6.79665e-22)
(0.0928947 -0.116292 5.10407e-21)
(0.964064 -0.354654 1.84667e-21)
(0.0833838 -0.107681 -6.91331e-21)
(0.668139 0.211068 -3.80517e-21)
(0.890026 -0.428705 -2.96132e-21)
(0.0294255 -0.0504827 -2.32911e-21)
(0.628786 0.332826 -1.95274e-21)
(0.792625 -0.34229 0)
(-0.0142867 0.00124974 2.75049e-21)