/*--------------------------------*- C++ -*----------------------------------*\
  =========                 |
  \\      /  F ield         | OpenFOAM: The Open Source CFD Toolbox
   \\    /   O peration     | Website:  https://openfoam.org
    \\  /    A nd           | Version:  6
     \\/     M anipulation  |
\*---------------------------------------------------------------------------*/
FoamFile
{
    version     2.0;
    format      ascii;
    class       volScalarField;
    location    "0";
    object      p;
}
// * * * * * * * * * * * * * * * * * * * * * * * * * * * * * * * * * * * * * //

dimensions      [0 2 -2 0 0 0 0];

internalField   nonuniform List<scalar> 
13046
(
0.462678
0.439733
0.491995
0.469645
0.488368
0.451211
0.452077
0.454628
0.494751
0.231938
0.166718
0.456735
0.452776
0.407859
0.485874
0.289887
0.456983
0.196641
0.49217
0.478568
0.459591
0.281193
0.458903
0.193431
0.466036
0.46462
0.486081
0.439139
0.408774
0.487339
0.47203
0.418534
0.485316
0.477648
0.490282
0.461108
0.476337
0.492634
0.470809
0.471033
0.478009
0.408282
0.47408
0.491731
0.479629
0.473429
0.482885
0.479919
0.451938
0.438277
0.492383
0.446053
0.471858
0.368357
0.453158
0.352782
0.475638
0.280703
0.399366
0.463128
0.392729
0.390995
0.480921
0.465373
0.267161
0.321567
0.412439
0.286016
0.459236
0.424344
0.29649
0.460276
0.261198
0.387948
0.462328
0.491782
0.489101
0.44533
0.464281
0.360802
0.255939
0.46099
0.460276
0.485365
0.462388
0.246384
0.300677
0.296654
0.466573
0.291202
0.460276
0.253757
0.29172
0.398008
0.382195
0.352588
0.341866
0.475262
0.476939
0.467798
0.297406
0.305461
0.472767
0.486482
0.474444
0.487636
0.380317
0.457761
0.4712
0.46812
0.387203
0.145257
0.451398
0.0779247
0.456334
0.42213
0.48333
0.384841
0.397148
0.317877
0.471335
0.341807
0.472648
0.214679
0.142298
0.45525
0.429149
0.366469
0.48539
0.467297
0.478429
0.407107
0.460396
0.268383
0.317009
0.355517
0.319539
0.472026
0.465063
0.409835
0.482214
0.418118
0.447716
0.484745
0.467988
0.456098
0.388253
0.484945
0.395564
0.466192
0.388543
0.371792
0.478368
0.497363
0.426103
0.463701
0.426007
0.350519
0.414375
0.346473
0.47552
0.475728
0.418513
0.430391
0.479965
0.225784
0.456979
0.177051
0.17492
0.452679
0.0995676
0.34886
0.302649
0.471121
0.466826
0.367645
0.475157
0.421456
0.480169
0.43976
0.460226
0.209548
0.234744
0.468455
0.382896
0.469707
0.495205
0.414466
0.458667
0.427746
0.448956
0.483695
0.401331
0.489776
0.433224
0.384739
0.482583
0.288436
0.463705
0.259607
0.465868
0.293119
0.32084
0.258325
0.282266
0.459725
0.438114
0.339139
0.462881
0.438554
0.366436
0.459449
0.254074
0.256127
0.251349
0.460003
0.469147
0.492282
0.47109
0.446188
0.413391
0.485378
0.4655
0.282573
0.328149
0.428854
0.411094
0.492244
0.454293
0.135129
0.179845
0.464494
0.337918
0.430269
0.278896
0.302571
0.463871
0.377787
0.425493
0.483082
0.42214
0.370684
0.484808
0.363545
0.295279
0.460904
0.331349
0.401048
0.469463
0.45377
0.134433
0.161412
0.476465
0.473075
0.375626
0.169498
0.450405
0.0416275
0.488131
0.463481
0.471314
0.38784
0.391038
0.417935
0.429547
0.486335
0.478765
0.457502
0.346327
0.236093
0.43488
0.379435
0.480016
0.32934
0.379512
0.471116
0.366653
0.319434
0.471655
0.480392
0.472373
0.492111
0.363882
0.411665
0.477705
0.437147
0.363083
0.479208
0.431954
0.428955
0.478469
0.466478
0.361777
0.360811
0.396572
0.476049
0.346576
0.46962
0.310493
0.485617
0.468075
0.394487
0.475147
0.339094
0.418805
0.403219
0.323721
0.46874
0.472353
0.450424
0.364513
0.388344
0.381295
0.312252
0.467262
0.306967
0.470055
0.460354
0.222281
0.251122
0.406057
0.354103
0.475592
0.00547348
0.449475
0.0994237
0.449055
0.484272
0.457253
0.405818
0.401652
0.481927
0.466663
0.30809
0.281497
0.446963
0.338001
0.472937
0.347144
0.29239
0.462844
0.434019
0.488377
0.39633
0.390476
0.481777
0.426448
0.48997
0.311675
0.458956
0.217189
0.445629
0.323348
0.464103
0.385099
0.379879
0.478048
0.411434
0.439914
0.487664
0.384956
0.447599
0.480193
0.464816
0.441105
0.490954
0.467252
0.342817
0.425236
0.274917
0.267968
0.462818
0.352665
0.291616
0.466109
0.431206
0.457511
0.319514
0.373902
0.385025
0.293741
0.275676
0.460358
0.463723
0.450079
0.021512
0.121435
0.18588
0.450978
0.057019
0.378471
0.40881
0.474149
0.461818
0.28029
0.238333
0.416151
0.411303
0.323301
0.312776
0.469424
0.466694
0.454518
0.227775
0.207269
0.155165
0.449278
0.0157591
0.458797
0.488577
0.485743
0.144956
0.0497223
0.451203
0.460336
0.36808
0.471538
0.240779
0.221379
0.460305
0.0261031
0.450067
0.0429979
0.475424
0.475933
0.420315
0.451054
0.47867
0.488644
0.221985
0.455444
0.133822
0.443363
0.471648
0.488289
0.465434
0.488487
0.487241
0.470494
0.320782
0.431794
0.438382
0.485654
0.487603
0.452911
0.459154
0.482609
0.440335
0.325444
0.456475
0.458666
0.46009
0.193402
0.192013
0.263128
0.256763
0.251805
0.257037
0.460942
0.463521
0.428295
0.298589
0.467937
0.466623
0.388823
0.322186
0.395237
0.462681
0.0932865
0.449675
0.0803895
0.460233
0.247734
0.276381
0.186636
0.453967
0.122965
0.45074
0.00452214
0.0373618
-0.0317428
0.450629
0.072967
0.377111
0.354128
0.471887
0.177563
0.451595
0.152839
0.338795
0.318741
0.471488
0.267959
0.451743
0.143666
0.447175
0.486332
0.443882
0.245542
0.456866
0.223477
0.328357
0.463678
0.403066
0.372783
0.329751
0.473443
0.452245
-0.0938861
-0.0201969
0.0338678
0.449489
0.0783353
0.456268
0.490643
0.444525
0.218961
0.204697
0.456292
0.45438
0.183655
0.215198
0.281251
0.461445
0.237879
0.459769
0.246244
0.334452
0.450431
0.315795
0.45847
0.294676
0.398896
0.468643
0.457644
0.320056
0.199711
0.450549
0.443687
0.381295
0.36836
0.478218
0.480436
0.45615
0.383442
0.476883
0.426676
0.312294
0.470926
0.362146
0.309217
0.467735
0.247627
0.2495
0.461951
0.466585
0.311211
0.340098
-0.0293688
0.450489
0.094651
0.47897
0.473568
0.486026
0.41915
0.489612
0.42745
0.445729
0.440337
0.468434
0.331086
0.469937
0.353721
0.038386
0.449258
0.0467726
0.228094
0.220477
0.457933
0.462865
0.455372
0.362959
0.377898
0.306237
0.464434
0.460391
0.254366
0.346916
0.0847427
0.126773
0.451903
0.110068
0.136426
0.452239
0.413256
0.32594
0.473528
0.488349
0.462614
0.405906
0.268323
0.459745
0.212489
0.369471
0.338519
0.474928
0.469072
0.281582
0.338216
0.44632
0.470033
0.354932
0.383854
0.432416
0.478965
0.474297
0.473808
0.398106
0.459056
0.205298
0.249395
0.368017
0.308644
0.47011
0.480045
0.480774
0.425293
0.300569
0.454257
0.177677
0.453914
0.409823
0.48472
0.43738
0.448575
0.491337
0.383446
0.342028
0.472379
0.216879
0.451304
0.0901736
0.232669
0.451117
0.0995298
0.467559
0.271669
0.33865
0.365619
0.438282
0.473245
0.449045
0.0597046
0.191778
0.46832
0.298154
0.323394
0.450015
-0.0156928
0.0137384
0.0531383
-0.0553586
0.449476
0.460248
0.214615
0.323297
0.456448
0.166994
0.205748
0.289531
0.303089
0.458615
0.20908
0.461443
0.23424
0.313293
0.309078
0.468391
0.470238
0.389946
0.300481
0.480231
0.486835
0.437457
0.323496
0.330087
0.470662
0.471041
0.329576
0.341297
0.33485
0.457671
0.208258
0.440575
0.317443
0.468485
0.451026
0.35864
0.467268
0.36051
0.369256
0.478203
0.352296
0.363649
0.476267
0.482974
0.474452
0.438617
0.442364
0.355821
0.482623
0.456874
0.255478
0.21878
0.12399
0.451777
0.118292
0.10335
0.451346
0.119404
0.46587
0.478502
0.394618
0.0667971
0.450928
0.0979218
0.355537
0.4683
0.283791
0.449853
0.073009
0.0737016
0.470803
0.489689
0.459869
0.423333
0.398248
0.483426
0.441039
0.370217
0.475218
0.453194
0.1914
0.174562
0.36672
0.341076
0.47305
0.454059
0.286423
0.170451
0.406722
0.389123
0.484529
0.483554
0.490246
0.443236
0.190016
0.189108
0.455387
0.468225
0.282251
0.322944
0.20947
0.191237
0.452699
0.451948
0.108447
0.0885037
0.402323
0.4248
0.48573
0.38765
0.365669
0.472791
0.443566
0.453187
0.495288
0.1473
0.145861
0.15374
0.452776
0.142652
0.451688
0.38234
0.351729
0.479494
0.187744
0.166963
0.175943
0.15632
0.455747
0.453975
0.365207
0.402886
0.482651
0.42231
0.416565
0.485076
0.251937
0.453204
0.132602
0.415869
0.409576
0.484297
0.441211
0.435967
0.488743
0.216698
0.451489
0.110083
0.412747
0.363235
0.477794
0.416208
0.312606
0.464578
0.451161
0.337063
0.466083
0.331921
0.458864
0.269149
0.451028
-0.0688373
0.00344092
0.405045
0.402029
0.483224
0.265485
0.455503
0.168035
0.452633
0.318321
0.457166
0.100155
0.448238
-0.0141983
0.487654
0.480339
0.460954
0.418965
0.462
0.408473
0.446641
0.454351
0.491507
0.477109
0.485998
0.470369
0.421705
0.480208
0.41639
0.415197
0.4251
0.491155
0.422827
0.428744
0.489708
0.450578
0.134474
0.113249
0.461931
0.394772
0.474922
0.208201
0.184183
0.457139
0.35758
0.344867
0.352675
0.333646
0.474236
0.470992
0.456885
0.414474
0.480039
0.426281
0.337309
0.469022
0.381843
0.373885
0.481455
0.481957
0.46122
0.483733
0.338321
0.339903
0.472272
0.476024
0.480333
0.440912
0.378914
0.396952
0.481963
0.424529
0.352911
0.469896
0.480764
0.482236
0.451226
0.490099
0.450775
0.486007
0.482679
0.469024
0.488664
0.440967
0.486857
0.423817
0.451637
0.44738
0.393006
0.391422
0.482761
0.47916
0.461961
0.253768
0.340753
0.464304
0.326936
0.424002
0.463201
0.463981
0.238561
0.248219
0.323161
0.319734
0.467502
0.455325
0.348067
0.481737
0.486798
0.471646
0.335799
0.325339
0.471365
0.474531
0.481768
0.408727
0.418786
0.347639
0.470771
0.367811
0.369746
0.2718
0.466323
0.283767
0.467342
0.367082
0.342803
0.474345
0.12085
0.0104951
0.449039
0.448102
0.330169
0.458829
0.45163
0.45476
0.45526
0.325798
0.464354
0.336454
0.321476
0.353228
0.469398
0.431053
0.347051
0.471427
0.467976
0.453727
0.346018
0.452702
0.459644
0.460551
0.475071
0.364269
0.359308
0.450758
0.466848
0.344855
0.36908
0.354427
0.477233
0.480187
0.480696
0.444212
0.238921
0.454727
0.148021
0.465035
0.456606
0.335067
0.424624
0.412189
0.350537
0.34214
0.471435
0.475985
0.455948
0.168461
0.255931
0.253396
0.454589
0.143666
0.236463
0.453414
0.132882
0.355747
0.4663
0.274552
0.437031
0.361717
0.474115
0.233841
0.286106
0.408513
0.238364
0.367583
0.112339
0.326429
0.268946
0.203756
0.357512
0.35454
0.185382
0.232682
0.357917
0.265168
0.234581
0.244508
0.263589
0.281473
0.328975
0.284983
0.258682
0.367067
0.450287
0.417012
0.291619
0.378333
0.188776
0.30196
0.223592
0.19753
0.320857
0.286632
0.273198
0.212327
0.297052
0.401698
0.36525
0.252982
0.314223
0.249618
0.450217
0.225643
0.355973
0.38894
0.24903
0.255432
0.237221
0.188327
0.226214
0.419588
0.283724
0.237222
0.253832
0.197415
0.414216
0.331948
0.29005
0.23856
0.350507
0.223975
0.229899
0.417653
0.280143
0.289774
0.33382
0.296884
0.445695
0.366341
0.366439
0.175569
0.19966
0.254699
0.341527
0.190493
0.270769
0.290476
0.20709
0.34411
0.385578
0.263785
0.280704
0.19162
0.226697
0.242666
0.351449
0.242844
0.239156
0.263753
0.422829
0.234607
0.349593
0.416415
0.274402
0.233274
0.0555468
0.218504
0.240252
0.23297
0.171653
0.320847
0.370669
0.397602
0.449437
0.228765
0.2299
0.186896
0.24465
0.220622
0.400003
0.374875
0.326034
0.21255
0.198654
0.320327
0.376465
0.259088
0.239515
0.16893
0.258506
0.271849
0.431882
0.442489
0.344394
0.295361
0.260422
0.189355
0.434108
0.204696
0.338841
0.171271
0.418081
0.19421
0.180671
0.222131
0.384387
0.263524
0.143352
0.224791
0.325939
0.229047
0.353058
0.324586
0.23913
0.38705
0.255004
0.219537
0.393027
0.224868
0.264843
0.186178
0.30322
0.251232
0.390247
0.348603
0.252891
0.342411
0.354263
0.406076
0.29189
0.252742
0.236958
0.359565
0.205628
0.311397
0.19135
0.445348
0.260716
0.393598
0.431298
0.290713
0.43783
0.394188
0.403851
0.208671
0.165793
0.187521
0.408787
0.208485
0.197333
0.199244
0.199448
0.262791
0.253068
0.295866
0.431816
0.346392
0.247829
0.350969
0.24622
0.447419
0.163004
0.381824
0.241473
0.162606
0.420255
0.433762
0.236745
0.239999
0.444592
0.303669
0.247914
0.219279
0.342246
0.39863
0.346325
0.224551
0.239053
0.367402
0.296823
0.222705
0.315846
0.193796
0.203739
0.260435
0.378262
0.172442
0.261657
0.371406
0.240645
0.168658
0.257546
0.240109
0.254795
0.314967
0.321171
0.225129
0.194477
0.21472
0.331223
0.340786
0.241932
0.320687
0.256639
0.210234
0.304377
0.249467
0.153977
0.346193
0.391713
0.292637
0.425082
0.401319
0.449093
0.234257
0.142011
0.265962
0.253906
0.253837
0.179062
0.309643
0.415929
0.342844
0.300798
0.219517
0.249975
0.356852
0.284743
0.335078
0.226022
0.271716
0.246469
0.185044
0.225091
0.239779
0.233376
0.21445
0.323108
0.29527
0.253373
0.329071
0.243295
0.26072
0.22773
0.256574
0.23064
0.245252
0.299578
0.174542
0.130721
0.275487
0.181623
0.162022
0.299083
0.168332
0.165632
0.390042
0.324032
0.225306
0.351285
0.202053
0.319416
0.31628
0.195097
0.238482
0.374899
0.266198
0.355898
0.106512
0.21613
0.393038
0.24377
0.221766
0.118796
0.172536
0.160137
0.176431
0.250781
0.329721
0.208478
0.161454
0.217729
0.241663
0.447736
0.224591
0.341969
0.313647
0.177553
0.268399
0.222605
0.193106
0.315988
0.257808
0.416333
0.339459
0.221952
0.250876
0.285874
0.450754
0.353739
0.402373
0.347904
0.251597
0.294363
0.260838
0.212976
0.177105
0.239265
0.251466
0.336071
0.233804
0.183651
0.237987
0.259486
0.234068
0.245472
0.37917
0.251375
0.243935
0.412804
0.38681
0.225642
0.299292
0.400228
0.201564
0.162943
0.253348
0.209018
0.193604
0.397005
0.223443
0.267062
0.407226
0.167325
0.298035
0.233882
0.292714
0.254417
0.234433
0.0609144
0.265797
0.186742
0.215233
0.2509
0.247698
0.35132
0.416403
0.232034
0.297844
0.262667
0.216222
0.150804
0.374316
0.322918
0.218974
0.186024
0.309252
0.183637
0.238131
0.225775
0.2191
0.368183
0.415119
0.247914
0.348406
0.448361
0.377993
0.38202
0.406661
0.247628
0.243177
0.195485
0.447474
0.374819
0.393042
0.233988
0.241395
0.167344
0.355877
0.257385
0.220335
0.394347
0.331244
0.210409
0.263681
0.231052
0.236879
0.231462
0.250279
0.255239
0.205471
0.24983
0.176461
0.268051
0.206773
0.331482
0.28148
0.173121
0.400218
0.410665
0.346474
0.249365
0.301569
0.165215
0.354282
0.283539
0.178549
0.397855
0.134945
0.418007
0.187506
0.263481
0.277637
0.343543
0.365886
0.233941
0.430366
0.235258
0.381437
0.265069
0.330431
0.244825
0.226991
0.236813
0.386366
0.27554
0.445121
0.33274
0.174737
0.22787
0.32206
0.149668
0.250248
0.266054
0.208047
0.422033
0.206185
0.194356
0.363368
0.238767
0.416226
0.439644
0.242699
0.447042
0.427716
0.381234
0.395562
0.30712
0.18711
0.223548
0.256822
0.372681
0.258655
0.136431
0.429175
0.2082
0.250928
0.219158
0.404696
0.446256
0.22033
0.378215
0.314859
0.416469
0.267023
0.352383
0.239564
0.431393
0.442991
0.338021
0.223595
0.368552
0.251877
0.295176
0.285207
0.270656
0.31468
0.240071
0.140768
0.19577
0.276226
0.324895
0.300024
0.394527
0.216522
0.253164
0.329496
0.199469
0.409101
0.225744
0.239031
0.408588
0.386672
0.306372
0.434387
0.22475
0.242843
0.356048
0.288753
0.279368
0.260978
0.237539
0.321442
0.339107
0.237635
0.230289
0.30333
0.174659
0.203824
0.41757
0.446445
0.44537
0.267371
0.453218
0.445693
0.425044
0.152301
0.316072
0.312895
0.434132
0.252806
0.231615
0.190097
0.222379
0.122364
0.429262
0.263036
0.268883
0.354968
0.337082
0.246841
0.240254
0.445411
0.432041
0.400332
0.340186
0.226398
0.348055
0.32726
0.249673
0.276419
0.199999
0.222068
0.294641
0.275243
0.244897
0.418544
0.416462
0.152785
0.383804
0.236542
0.225857
0.259433
0.415135
0.261682
0.339682
0.263712
0.401789
0.25077
0.266914
0.44341
0.171561
0.17143
0.226582
0.210458
0.135768
0.0411027
0.218646
0.145133
0.280316
0.153798
0.207655
0.274376
0.213522
0.218412
0.249442
0.196834
0.0561814
0.428558
0.386622
0.250949
0.184502
0.391392
0.230382
0.23153
0.440698
0.225082
0.440488
0.264947
0.389775
0.266952
0.17904
0.202137
0.298769
0.299176
0.280859
0.179418
0.255051
0.211901
0.212833
0.2391
0.174897
0.197776
0.426387
0.221408
0.337168
0.360576
0.254372
0.368168
0.36243
0.189045
0.0457532
0.265217
0.178879
0.13931
0.344142
0.346893
0.250381
0.323406
0.246396
0.443645
0.425728
0.257429
0.241433
0.432443
0.395554
0.31736
0.318439
0.248037
0.446515
0.29485
0.15224
0.405329
0.37832
0.417778
0.298862
0.226133
0.256288
0.348343
0.317913
0.00230454
0.450411
0.264354
0.223798
0.282672
0.398936
0.445072
0.441503
0.323372
0.282656
0.366551
0.396912
0.411252
0.341175
0.374826
0.190801
0.23189
0.310468
0.195657
0.190213
0.171057
0.263134
0.3622
0.179256
0.29096
0.234246
0.378639
0.441741
0.260229
0.186892
0.162419
0.352926
0.24048
0.219455
0.173454
0.415474
0.302153
0.306993
0.177284
0.311789
0.223044
0.231482
0.352232
0.358943
0.418282
0.446849
0.219077
0.4004
0.155514
0.407548
0.414328
0.416993
0.368141
0.207314
0.207235
0.24988
0.149064
0.291601
0.171357
0.316294
0.181783
0.393341
0.252763
0.158246
0.386749
0.36128
0.269886
0.274954
0.335554
0.414861
0.303204
0.283196
0.157647
0.378174
0.293209
0.432247
0.140925
0.275287
0.406172
0.348217
0.435206
0.353944
0.255871
0.122823
0.15822
0.272746
0.183315
0.427887
0.147532
0.243977
0.270405
0.226551
0.373447
0.145487
0.411357
0.347909
0.30982
0.145402
0.332322
0.223059
0.256978
0.266318
0.271483
0.239542
0.224958
0.36489
0.207194
0.451802
0.240604
0.274254
0.331104
0.35486
0.429406
0.238841
0.243234
0.217654
0.281188
0.232027
0.422157
0.220056
0.28793
0.248042
0.38052
0.210901
0.29678
0.195441
0.442376
0.148556
0.205268
0.236493
0.386182
0.161376
0.178948
0.203675
0.186363
0.415795
0.28406
0.343367
0.389965
0.333857
0.284968
0.442825
0.287078
0.359473
0.32773
0.298312
0.170311
0.305127
0.260497
0.243244
0.307102
0.205945
0.174713
0.285787
0.248598
0.210926
0.375854
0.282597
0.339931
0.260307
0.426711
0.270459
0.267522
0.329076
0.181269
0.215459
0.247308
0.29834
0.305462
0.316817
0.412662
0.353142
0.369818
0.293809
0.400761
0.430574
0.426313
0.296015
0.290905
0.314174
0.188102
0.439475
0.394188
0.380923
0.274463
0.203588
0.168869
0.313898
0.348811
0.223273
0.380614
0.394754
0.319133
0.23525
0.298369
0.24535
0.223458
0.27418
0.235642
0.306334
0.172475
0.310501
0.277926
0.258303
0.146232
0.305982
0.289658
0.337873
0.248585
0.301788
0.411147
0.42169
0.304005
0.26644
0.370414
0.288745
0.216985
0.220326
0.262188
0.183205
0.411984
0.28037
0.295027
0.34896
0.342545
0.329439
0.202727
0.449145
0.332907
0.227512
0.28151
0.281096
0.370158
0.407823
0.334606
0.314793
0.159795
0.210477
0.255786
0.316492
0.28867
0.302814
0.236418
0.418851
0.321791
0.371213
0.39763
0.29977
0.228256
0.297735
0.437652
0.213901
0.156549
0.297341
0.443867
0.241204
0.260092
0.365001
0.349583
0.384123
0.275503
0.163015
0.31409
0.19174
0.244699
0.383138
0.265877
0.192252
0.220676
0.240667
0.322139
0.250736
0.241033
0.403582
0.230473
0.443668
0.381511
0.183764
0.134623
0.283731
0.357155
0.395794
0.270376
0.255741
0.221637
0.251249
0.273254
0.446452
0.406752
0.354383
0.254168
0.166742
0.417157
0.449025
0.418059
0.371509
0.405802
0.295102
0.200334
0.145434
0.156665
0.429127
0.286036
0.204344
0.258987
0.448244
0.2477
0.234455
0.179258
0.272672
0.21836
0.450151
0.313078
0.354535
0.403632
0.394241
0.246388
0.324893
0.291835
0.348147
0.206102
0.3216
0.234719
0.421912
0.184189
0.24574
0.196983
0.256831
0.410007
0.256366
0.381047
0.399631
0.405623
0.198516
0.289285
0.256486
0.229132
0.417056
0.299362
0.302403
0.310385
0.119609
0.260408
0.42276
0.328769
0.419925
0.150911
0.207692
0.246703
0.425922
0.218012
0.275918
0.213087
0.202239
0.255803
0.428932
0.266313
0.25846
0.179063
0.448131
0.437581
0.120647
0.420597
0.252291
0.199865
0.208139
0.282828
0.18802
0.327875
0.25604
0.245163
0.259323
0.404512
0.273793
0.381059
0.265422
0.198609
0.259977
0.150135
0.169317
0.265502
0.247657
0.309135
0.210046
0.272414
0.398294
0.321643
0.245814
0.17485
0.407588
0.268038
0.27601
0.455522
0.306508
0.243529
0.233104
0.200763
0.430631
0.247508
0.273589
0.320941
0.187051
0.410855
0.187605
0.401277
0.287671
0.360736
0.215631
0.375505
0.267216
0.187882
0.21623
0.288084
0.410206
0.131431
0.231455
0.227417
0.42974
0.450721
0.216714
0.237455
0.325299
0.435022
0.270534
0.414796
0.393213
0.379411
0.363084
0.300223
0.341288
0.331825
0.418496
0.276955
0.296933
0.218364
0.237839
0.278056
0.211218
0.431824
0.198671
0.413966
0.275125
0.426134
0.240579
0.436069
0.358023
0.401255
0.427191
0.411433
0.454453
0.253945
0.399549
0.285985
0.248941
0.234737
0.209081
0.419832
0.19973
0.308665
0.321723
0.262352
0.323173
0.233261
0.421353
0.281982
0.370012
0.147834
0.22309
0.254378
0.451312
0.221781
0.333254
0.242547
0.255268
0.192319
0.263363
0.25334
0.374261
0.422764
0.177338
0.304045
0.249006
0.24417
0.385856
0.22186
0.235895
0.434091
0.156364
0.30322
0.349368
0.409493
0.440385
0.239981
0.230072
0.188822
0.251255
0.22876
0.248322
0.3668
0.246786
0.196795
0.259103
0.290112
0.24783
0.234422
0.227517
0.288112
0.185559
0.367866
0.35943
0.244016
0.369428
0.183854
0.181539
0.216407
0.16897
0.434058
0.254262
0.248533
0.235829
0.39517
0.417491
0.295719
0.36692
0.233846
0.228267
0.293265
0.250655
0.229705
0.418673
0.312466
0.340156
0.43804
0.37457
0.282326
0.427907
0.172517
0.298316
0.294231
0.318349
0.254459
0.427801
0.243847
0.312578
0.279559
0.247318
0.213446
0.233705
0.357846
0.387509
0.40183
0.295698
0.305221
0.428476
0.378616
0.265206
0.308077
0.198442
0.249269
0.379251
0.178202
0.397459
0.244119
0.405489
0.452869
0.421097
0.235377
0.401465
0.394763
0.165932
0.428716
0.227751
0.424471
0.375734
0.246982
0.214118
0.314453
0.253784
0.246392
0.229888
0.381413
0.245318
0.430518
0.203457
0.24164
0.226874
0.202018
0.248501
0.388213
0.444028
0.200152
0.369898
0.28808
0.312735
0.270126
0.324116
0.413467
0.378416
0.243542
0.407724
0.3844
0.440257
0.203755
0.215641
0.233451
0.365884
0.435795
0.389858
0.273871
0.436397
0.28474
0.174786
0.212117
0.131567
0.281523
0.189951
0.440982
0.44414
0.303359
0.456121
0.380059
0.289316
0.433118
0.193975
0.426765
0.247049
0.417788
0.255646
0.207712
0.362788
0.303472
0.424839
0.413389
0.416656
0.216735
0.214008
0.160965
0.400424
0.37758
0.218183
0.294128
0.379276
0.156714
0.236366
0.216592
0.237162
0.314742
0.236006
0.294154
0.361122
0.291463
0.302588
0.359671
0.250763
0.260589
0.312694
0.293503
0.25309
0.400904
0.425698
0.217479
0.375057
0.153301
0.232415
0.406561
0.370378
0.2312
0.420555
0.194638
0.359088
0.268471
0.269677
0.405322
0.257492
0.367556
0.365983
0.342877
0.448429
0.345847
0.188132
0.327201
0.276028
0.36754
0.445204
0.341232
0.285225
0.229468
0.270832
0.406627
0.205595
0.394277
0.221103
0.317488
0.375122
0.360938
0.281168
0.404469
0.435929
0.258339
0.25144
0.300402
0.215808
0.194212
0.296149
0.365307
0.22426
0.184347
0.22083
0.179241
0.355328
0.282861
0.369922
0.239689
0.418139
0.293718
0.395381
0.443423
0.227298
0.411995
0.25929
0.30056
0.294763
0.40276
0.233124
0.266811
0.298213
0.208656
0.253368
0.209675
0.189352
0.153015
0.436283
0.447022
0.225138
0.236916
0.364302
0.170412
0.219186
0.248444
0.348595
0.358164
0.167544
0.152666
0.413549
0.238221
0.319439
0.236739
0.183133
0.211506
0.308293
0.395007
0.320107
0.179096
0.41965
0.393874
0.221143
0.315528
0.245054
0.442334
0.254472
0.27261
0.192981
0.335407
0.426363
0.321224
0.303703
0.22928
0.282403
0.324027
0.434003
0.456853
0.232949
0.437616
0.234738
0.302583
0.305814
0.265302
0.245344
0.401955
0.253497
0.308452
0.216867
0.204449
0.26389
0.210763
0.345873
0.418441
0.21811
0.235073
0.301293
0.246729
0.226121
0.144168
0.251198
0.404449
0.15469
0.222639
0.361195
0.298904
0.276101
0.332909
0.389624
0.203279
0.208522
0.38921
0.268975
0.211386
0.288452
0.401573
0.335631
0.30194
0.233673
0.236961
0.228841
0.434679
0.389471
0.443985
0.27258
0.344911
0.201376
0.288474
0.396368
0.175032
0.18414
0.359275
0.391672
0.175527
0.242803
0.231921
0.201984
0.231657
0.455603
0.274823
0.240188
0.302468
0.22959
0.363163
0.312465
0.198871
0.245019
0.376332
0.281651
0.436564
0.189608
0.237898
0.336988
0.323517
0.262619
0.319273
0.20949
0.439873
0.42367
0.338823
0.40529
0.221097
0.400838
0.329151
0.335062
0.427914
0.170324
0.246712
0.442953
0.331111
0.166703
0.220168
0.39043
0.441222
0.285111
0.365435
0.231579
0.18938
0.218511
0.157043
0.395523
0.231207
0.285951
0.430435
0.228208
0.206993
0.229208
0.302865
0.239892
0.233614
0.231814
0.202195
0.280864
0.376492
0.426403
0.356166
0.250868
0.246286
0.16047
0.240725
0.328266
0.307929
0.347281
0.362584
0.246529
0.272452
0.386987
0.393954
0.442535
0.406635
0.430462
0.282774
0.1931
0.218484
0.201792
0.434591
0.300775
0.233893
0.426611
0.199369
0.381323
0.359613
0.246091
0.237172
0.247864
0.236387
0.392318
0.25105
0.348733
0.282799
0.424687
0.312847
0.447128
0.218174
0.282028
0.220122
0.148
0.251695
0.373456
0.204659
0.107765
0.300294
0.424171
0.368528
0.232654
0.190095
0.221786
0.201291
0.239072
0.207548
0.264271
0.20553
0.360561
0.224689
0.239686
0.414954
0.286446
0.335195
0.385509
0.252052
0.283662
0.212647
0.376097
0.240621
0.250354
0.275889
0.213208
0.187804
0.236616
0.221269
0.368496
0.444441
0.399412
0.306976
0.354
0.179611
0.437724
0.317694
0.36638
0.23467
0.357708
0.22476
0.253817
0.379782
0.425722
0.371622
0.30605
0.256993
0.447019
0.260683
0.384962
0.432642
0.342017
0.265512
0.175549
0.384105
0.313378
0.206125
0.332923
0.308801
0.422431
0.228137
0.431313
0.443309
0.263968
0.219917
0.431352
0.192656
0.208226
0.254117
0.204737
0.253065
0.214251
0.191483
0.281177
0.240563
0.219674
0.243453
0.307641
0.214837
0.225226
0.327463
0.28685
0.192846
0.418372
0.448107
0.436326
0.236384
0.184157
0.448393
0.185796
0.27845
0.224313
0.245399
0.232612
0.359085
0.249034
0.242687
0.181287
0.173763
0.207432
0.252953
0.178664
0.278717
0.299745
0.26949
0.424958
0.305168
0.343349
0.266874
0.390618
0.230393
0.2511
0.459829
0.254902
0.307646
0.190672
0.343528
0.447442
0.241326
0.327729
0.31119
0.212677
0.23095
0.226024
0.205506
0.362219
0.210161
0.270199
0.242893
0.264133
0.223878
0.22709
0.277771
0.244724
0.244989
0.447354
0.27742
0.267166
0.300502
0.424352
0.253968
0.175533
0.379252
0.192861
0.261096
0.233912
0.285415
0.22905
0.252695
0.285116
0.441006
0.396799
0.177546
0.243217
0.176404
0.228028
0.163822
0.209116
0.255644
0.217128
0.256038
0.329449
0.454805
0.249736
0.356509
0.294782
0.434249
0.247826
0.447273
0.321098
0.20178
0.329148
0.363769
0.241675
0.397059
0.234439
0.402788
0.234541
0.112094
0.274859
0.453109
0.443729
0.360633
0.334843
0.353743
0.185896
0.22577
0.354658
0.44633
0.128935
0.286338
0.234516
0.231225
0.26978
0.22098
0.197919
0.231873
0.20955
0.240748
0.241402
0.271992
0.4471
0.392803
0.165551
0.377154
0.216474
0.226214
0.382315
0.237469
0.259994
0.345757
0.14577
0.220399
0.284441
0.398712
0.202792
0.227466
0.25841
0.325829
0.200677
0.423709
0.178283
0.250494
0.257003
0.230743
0.336431
0.328689
0.425759
0.230988
0.371038
0.297238
0.323425
0.233065
0.336478
0.216082
0.192659
0.156223
0.316864
0.269257
0.257198
0.411061
0.285115
0.3069
0.335886
0.224099
0.209774
0.251248
0.319057
0.24026
0.453205
0.193151
0.178115
0.250881
0.243357
0.239121
0.228472
0.358859
0.252208
0.276124
0.204782
0.236831
0.270072
0.193306
0.450036
0.439704
0.208049
0.222621
0.395553
0.29809
0.228408
0.188676
0.22347
0.208151
0.297074
0.415608
0.229622
0.186834
0.328401
0.279506
0.178876
0.204655
0.279282
0.351409
0.455458
0.198593
0.171024
0.308898
0.395334
0.251027
0.307393
0.253332
0.234629
0.252572
0.324563
0.264635
0.235526
0.374921
0.255917
0.152367
0.294972
0.239178
0.380845
0.447469
0.242902
0.247951
0.245358
0.249152
0.199164
0.25196
0.209889
0.42741
0.385457
0.349121
0.254868
0.187246
0.371938
0.437515
0.225497
0.291784
0.234524
0.154137
0.280315
0.244531
0.149537
0.219527
0.334305
0.203308
0.179442
0.205423
0.386862
0.196816
0.378945
0.277887
0.230474
0.239674
0.219281
0.380512
0.162305
0.254636
0.260607
0.192913
0.307476
0.355253
0.308859
0.27045
0.364503
0.204152
0.20677
0.414067
0.231872
0.410336
0.310973
0.246836
0.312633
0.399588
0.279565
0.174576
0.423308
0.227146
0.25584
0.400797
0.222269
0.43181
0.229305
0.257769
0.159802
0.261841
0.207228
0.284524
0.207248
0.15538
0.204625
0.199982
0.158339
0.415959
0.200627
0.25623
0.311047
0.284041
0.439096
0.441519
0.22943
0.283215
0.38458
0.220173
0.416285
0.167245
0.243941
0.299348
0.227233
0.386841
0.238207
0.245082
0.247806
0.233156
0.228786
0.153773
0.402362
0.0608725
0.431346
0.352731
0.206651
0.178068
0.211874
0.45705
0.358166
0.332088
0.27644
0.309809
0.260051
0.400826
0.372816
0.220828
0.325852
0.434738
0.26305
0.28913
0.334075
0.172202
0.205198
0.385611
0.254299
0.27382
0.432412
0.197292
0.169183
0.237803
0.27211
0.259266
0.446075
0.22686
0.188942
0.223677
0.271467
0.228092
0.408695
0.280725
0.217415
0.230156
0.225904
0.223524
0.247448
0.324937
0.293414
0.215918
0.408209
0.243777
0.391165
0.216496
0.198136
0.259868
0.404392
0.437132
0.382762
0.27243
0.264275
0.379576
0.44109
0.195915
0.417548
0.207276
0.340843
0.321534
0.407076
0.273768
0.397946
0.422934
0.240055
0.238678
0.25711
0.289469
0.211578
0.201053
0.198881
0.357101
0.387385
0.192545
0.422718
0.27773
0.366397
0.27245
0.209213
0.385201
0.372955
0.241136
0.245448
0.206885
0.442062
0.35809
0.44767
0.189178
0.210436
0.263071
0.39139
0.330425
0.413428
0.304485
0.443089
0.232415
0.265753
0.288773
0.238802
0.309488
0.177205
0.379255
0.278984
0.297412
0.418336
0.183555
0.194457
0.168334
0.32074
0.404042
0.246605
0.33697
0.184028
0.186674
0.27544
0.238525
0.230235
0.409247
0.29326
0.22092
0.263551
0.318342
0.428104
0.322392
0.250601
0.402224
0.292881
0.431506
0.279638
0.346434
0.248487
0.191075
0.452325
0.212858
0.310937
0.303493
0.414939
0.34323
0.268678
0.237355
0.446391
0.267998
0.218234
0.361739
0.438643
0.356528
0.330432
0.185192
0.151328
0.286827
0.218551
0.255
0.288457
0.215263
0.426295
0.441704
0.42064
0.244545
0.249681
0.230239
0.250076
0.347042
0.195904
0.344272
0.426516
0.20198
0.243242
0.233793
0.391022
0.33162
0.248688
0.219597
0.35302
0.227254
0.174011
0.202195
0.453566
0.159446
0.37676
0.33011
0.232372
0.432942
0.295934
0.456979
0.139472
0.24587
0.301652
0.420666
0.251965
0.416632
0.29615
0.158409
0.264295
0.235589
0.253844
0.152301
0.377508
0.24316
0.219897
0.171416
0.269026
0.411027
0.124255
0.247128
0.4028
0.266428
0.398812
0.163299
0.227984
0.230593
0.256531
0.213408
0.18681
0.226371
0.129109
0.248887
0.246609
0.368476
0.306018
0.404946
0.221358
0.253195
0.188288
0.296483
0.132924
0.257301
0.448162
0.275532
0.243652
0.457734
0.218816
0.303995
0.330264
0.189639
0.240996
0.277779
0.315098
0.427105
0.437814
0.438922
0.320086
0.271946
0.244933
0.210569
0.397387
0.345628
0.231806
0.244988
0.244789
0.273696
0.457072
0.259941
0.455143
0.225209
0.336474
0.211967
0.228188
0.189446
0.23789
0.411794
0.247353
0.194647
0.209864
0.450862
0.244741
0.215119
0.211526
0.226897
0.356256
0.302026