/*--------------------------------*- C++ -*----------------------------------*\
  =========                 |
  \\      /  F ield         | OpenFOAM: The Open Source CFD Toolbox
   \\    /   O peration     | Website:  https://openfoam.org
    \\  /    A nd           | Version:  6
     \\/     M anipulation  |
\*---------------------------------------------------------------------------*/
FoamFile
{
    version     2.0;
    format      ascii;
    class       volScalarField;
    location    "0";
    object      P_rec;
}
// * * * * * * * * * * * * * * * * * * * * * * * * * * * * * * * * * * * * * //

dimensions      [0 2 -2 0 0 0 0];

internalField   nonuniform List<scalar> 
918
(
0.558016
0.563104
0.0998608
0.576908
0.000213424
0.445725
-0.724696
0.523111
0.583512
-0.0798075
0.0430369
0.456094
0.242284
0.196575
-1.22802
0.0305914
0.574078
-0.775982
0.414569
0.0310932
0.0305173
0.582799
0.519044
0.420266
0.498333
0.135096
0.301977
-0.0352801
-0.051884
-0.0384599
-0.00244456
0.0487207
0.0130452
0.37421
0.403713
0.457466
0.426915
0.035694
-0.563073
-0.63172
-0.605518
-0.824999
0.529466
0.543883
-0.267314
0.506428
0.48966
0.430081
0.561778
0.584875
0.522855
0.563671
0.591975
0.283401
-0.121657
-0.200379
-0.0359944
-0.0337524
0.0843407
0.0402092
0.0381428
0.0670656
0.0623316
0.378919
0.446515
0.44437
0.466247
0.464326
0.513612
0.486676
0.536083
0.237664
0.382316
0.228257
0.321923
0.209587
0.244018
0.184262
0.165355
-1.54958
-2.34762
-0.735897
-0.555089
0.00336305
0.0315114
0.0349111
0.566191
0.57105
0.563441
0.574597
0.701903
-0.673146
-0.88697
0.453043
0.448555
0.569356
0.52593
0.460369
0.40932
0.0269842
0.0264915
0.0153437
0.0432371
0.0363679
0.202297
0.297788
0.392495
0.421316
0.466203
0.483968
0.4734
0.212714
0.52927
0.536497
0.0667793
0.233352
0.126463
0.193134
0.30272
0.272607
0.367986
0.39735
-0.0536349
-0.00797795
0.0382728
0.00965175
0.0338751
0.422437
0.414611
0.439963
0.431844
0.433022
-0.0377789
-0.112694
0.12437
0.207926
-0.443942
-0.506249
-0.753411
-0.712539
-0.910413
0.730125
0.541908
0.557884
-0.331192
-0.218297
-0.38315
-0.152914
-0.208391
0.431652
0.425408
0.425888
0.428112
0.436427
0.438187
0.569312
0.561033
0.596835
0.292479
0.362356
0.266855
0.230829
-0.441894
-0.266016
-0.413122
-0.0179817
0.0141175
0.0829196
0.118012
0.110207
0.0897089
0.0200797
0.030925
0.0219662
0.0382948
0.0299079
0.379249
0.364851
0.380559
0.393302
0.440185
0.441456
0.444225
0.446047
0.37736
0.378677
0.343998
0.316381
-3.16585
-5.30806
-0.314576
-0.205092
-0.00257469
-0.0133019
-0.00463847
-0.0760616
-0.0130638
-0.0373227
0.0773088
0.0495217
0.0412192
0.0533529
0.561343
0.574055
0.697787
0.741518
0.622263
0.61431
0.447715
0.455475
0.450585
0.449018
0.0383849
0.0298229
0.0392664
0.461367
0.382774
0.42424
0.176842
0.0835759
0.259645
0.296242
0.559909
0.545452
0.56031
0.0882021
0.160213
0.496262
0.280596
0.479186
0.327224
0.327767
0.390059
0.278466
0.397029
0.409802
0.406371
0.4376
0.441014
0.442241
0.442495
0.436766
0.441755
-0.236114
-0.47452
0.588795
0.521567
0.317159
0.446864
0.750541
0.787832
0.564587
0.554423
0.566041
-0.0628577
-0.11285
0.184182
0.163606
0.326074
0.34559
0.332702
0.306617
0.267008
0.308107
0.291128
0.267567
0.310007
-0.415762
-1.77262
-0.961138
0.0366202
-0.0769891
-0.0389479
0.0532403
0.100949
0.071918
0.715796
0.774161
0.398989
0.53515
0.501551
0.0716259
0.148942
0.243531
0.124843
0.181057
0.253057
0.210812
0.65474
0.596037
0.647295
0.768285
0.810684
0.0520016
-0.0167437
-0.0540185
0.139467
0.141725
0.133895
0.764319
0.772953
0.78736
0.399773
0.397378
-0.0488331
0.00308297
0.500063
0.518991
-0.0544579
-0.0191502
0.0123455
-0.914327
0.0627939
0.451548
0.415353
0.468158
-0.0933177
0.204161
0.019576
0.0366875
-0.010611
0.426632
0.363287
0.332984
-0.051434
0.00838721
-0.00058752
-0.365135
0.456275
0.440848
0.455401
0.464601
0.477319
0.000304843
-0.00766253
0.0271241
-0.0220986
0.0461572
0.0444202
0.431599
0.423536
-0.312717
0.447063
0.470074
0.468382
0.477713
0.482477
0.473573
-0.00480892
0.0314174
0.0343928
0.161241
0.263096
0.16735
0.127235
0.189283
-0.00154425
-0.212812
0.112563
0.121226
0.0924813
0.13692
0.523319
0.501504
0.16033
-0.00852197
0.118044
0.0877594
0.448077
0.463076
0.436291
0.449929
0.46458
0.425944
0.475348
0.453624
0.446657
0.48339
-0.0475444
-0.00143501
-0.0511854
-0.162924
0.282582
0.356437
0.193175
0.249015
0.115678
0.00995495
0.056353
0.00311217
0.0204496
0.0225207
0.103459
0.0496519
0.132121
0.0296642
0.107106
-0.00894452
0.140734
0.0231444
0.414912
0.432051
0.428948
0.466988
0.389848
0.409502
0.385994
0.385614
0.398688
0.338354
0.350777
0.351045
0.0155287
0.0155645
0.0422089
0.0189327
0.0488791
-0.00803192
-0.00534807
-0.0132995
0.00326142
-0.0302129
4.93553e-05
0.0112547
-0.275642
-0.43593
0.637877
0.536834
0.213057
0.42826
0.466398
0.439486
0.464812
0.48096
0.515104
0.483054
0.457663
0.431521
0.445444
0.430563
0.446768
-0.194093
-0.303309
-0.147245
-0.217549
0.0139052
0.538293
0.299642
0.267089
0.242407
0.410341
0.548582
0.328528
0.0102583
-0.133065
-0.605642
-0.324947
-0.553715
-0.0396427
-0.150335
0.102394
0.160762
0.217633
0.164681
0.158385
-0.145973
0.306468
-0.114239
-0.0791507
0.101427
0.0298188
0.317469
0.52502
0.537681
0.4803
0.470209
0.507989
0.47793
0.480697
0.516088
0.523147
0.402061
0.189322
0.186914
0.115818
0.54125
0.436207
0.469421
0.376743
0.466784
0.469942
0.453642
0.443424
0.476422
0.44586
0.437493
0.41806
0.415604
0.446832
0.450245
0.426222
0.0256504
0.00907163
-0.0429479
-0.240574
-0.137459
-0.240298
-0.0876724
0.0808959
-0.0079034
0.172327
0.330844
0.0565828
-0.131207
-0.0176278
-0.0551066
0.156324
0.0988773
0.149891
0.146418
0.164771
0.162593
0.209271
0.183175
0.0428886
0.058478
0.0946935
0.015715
0.132863
0.112074
0.163068
0.0672818
0.119419
0.0771855
0.0462759
0.0316152
0.117349
0.069703
0.0432827
0.0334275
0.0200886
-0.0478574
-0.0450165
0.163794
0.0538032
0.451679
0.437316
0.441582
0.454396
0.482763
0.481127
0.429248
0.427496
0.453708
0.426979
0.400056
0.390595
0.375701
0.408948
0.413524
0.41474
0.449353
0.442992
0.419071
0.431809
0.395276
0.413062
0.355672
0.367765
0.395036
-0.069548
0.0337761
-0.0119038
-0.0204527
0.0188554
0.0533493
0.114461
0.0400884
0.116801
0.0884723
0.0683609
0.0416462
0.0642447
-0.103526
0.0282196
-0.235196
-0.332625
-0.41268
0.635121
0.702101
0.579807
0.47235
0.521688
0.590139
0.655888
0.410759
0.447961
0.497084
0.618815
0.71301
0.43984
0.428668
0.453065
0.470614
0.448687
-0.0145009
0.116988
0.0886846
0.188266
0.155199
0.148013
0.372762
0.346579
0.393238
0.358416
0.517066
0.539379
0.500425
0.537564
0.5373
0.341097
0.429167
0.462337
0.45029
0.454802
0.474276
0.478461
0.476447
0.418102
0.414867
0.41683
0.372502
0.393804
0.368295
0.370823
0.424511
0.406936
0.403174
0.414223
0.461942
0.448731
0.468221
0.507325
0.491779
0.39789
0.383543
0.402494
0.411744
0.391566
0.386144
0.383094
0.261844
0.291767
0.100214
-0.23485
-0.110728
-0.124524
-0.206047
-0.173941
-0.0195381
-0.563279
-0.418594
-0.923954
0.113006
0.5407
0.306222
0.118772
0.453322
0.473342
0.457907
0.405476
0.409277
0.524009
0.537079
0.549523
0.455428
0.460382
0.487448
0.47366
0.353744
0.312064
0.235298
0.294024
0.149792
0.199054
0.337393
0.29618
0.257498
0.280261
0.355668
0.254371
0.285128
0.364361
0.34149
0.32012
0.434657
0.488984
0.500086
0.448656
0.361109
0.413221
0.404443
0.449707
0.48345
0.490573
0.446639
0.434692
0.445481
0.435622
0.423116
0.440253
0.413236
0.454509
0.459418
0.47036
0.465433
0.00534345
0.033734
0.048938
0.00800788
0.0192624
-0.0281776
-0.0157995
-0.031342
0.0967478
0.084057
0.00559946
0.0267919
0.101367
0.0574931
0.140807
0.148783
0.101078
0.0467962
0.242198
0.366655
0.364093
0.32649
0.222345
0.236288
0.320387
0.0576235
0.144091
0.0955308
0.0758693
0.0695357
0.0364968
0.116128
0.0541815
0.091498
0.0426536
-0.0832988
0.0516735
0.097307
-0.0249575
0.0265558
0.0503135
0.416591
0.418281
0.396997
0.380463
0.386466
0.394401
0.425191
0.450227
0.452071
0.451161
0.456245
0.442788
0.447583
0.0296382
0.130923
0.154776
0.0902085
0.0604761
0.0131604
-0.0080452
0.266054
0.126765
0.208033
0.0196121
-0.152888
-0.0730433
0.483535
0.574134
0.571145
0.697935
0.594118
0.539759
0.613818
0.715282
0.416456
0.511967
0.431876
0.665086
0.653093
0.714647
0.552579
0.138981
-0.0891306
0.115948
0.0623441
-0.119316
0.14116
0.169342
0.154279
0.156852
0.168464
0.282907
0.304917
0.323417
0.365318
0.340866
0.400775
0.28327
0.357376
0.285573
0.300142
0.263291
0.502314
0.52583
0.549721
0.521526
0.54528
0.482814
0.481168
0.506497
0.532791
0.518121
-0.81813
-0.688096
-1.40867
-0.777454
-0.529132
0.0702175
-0.156785
0.589218
0.46924
0.464916
0.47638
0.477076
0.431724
0.447078
0.474059
0.283282
0.370001
0.322676
0.348815
0.272791
0.194399
0.481318
0.466094
0.497899
0.515542
0.478625
0.515514
0.377493
0.414952
0.400375
0.429589
0.443879
0.458574
0.123474
0.0629578
0.100765
0.0848
0.0635744
0.0457248
-0.0162632
0.00857948
0.161984
0.112879
0.061355
0.111798
0.215612
0.224343
0.0684913
0.164801
0.0259278
-0.115919
-0.108157
-0.0217078
0.0656649
0.146624
0.485526
0.584782
0.532218
0.604734
0.485505
0.584824
0.535244
0.45274
0.521538
0.448069
0.494235
-0.345384
-0.558416
-0.457762
0.707082
0.638144
0.18312
-0.074826
-0.220935
0.175491
0.397641
0.355336
0.372698
0.430113
0.404278
-0.337447
-0.181679
-0.411445
-0.341263
0.107707
-0.0772854
0.0323289
-0.19129
-0.0883805
)
;

boundaryField
{
    wall-4
    {
        type            calculated;
        value           nonuniform List<scalar> 
100
(
0.558016
0.563104
0.0998608
0.576908
0.445725
-0.724696
0.523111
-0.0798075
0.0430369
0.456094
0.242284
0.196575
-1.22802
0.574078
-0.775982
0.414569
0.0310932
0.0305173
0.420266
0.498333
0.135096
0.301977
-0.0352801
0.37421
0.426915
-0.63172
-0.824999
0.543883
-0.267314
0.48966
0.430081
-0.200379
-0.0337524
0.0381428
0.0623316
0.378919
0.44437
0.464326
0.382316
0.321923
0.244018
0.165355
-2.34762
-0.555089
0.57105
0.574597
-0.88697
0.448555
0.40932
0.0264915
0.0363679
0.297788
0.421316
0.4734
0.212714
0.536497
0.0667793
0.193134
0.272607
0.39735
0.414611
0.439963
0.433022
-0.506249
-0.910413
0.557884
-0.38315
-0.208391
0.425888
0.438187
-0.413122
0.0141175
0.0219662
0.0299079
0.364851
0.393302
0.440185
0.446047
0.316381
-0.205092
0.574055
0.447715
0.449018
0.0392664
0.42424
0.0835759
0.296242
0.56031
0.160213
0.327224
0.406371
0.442241
0.441755
0.566041
-0.11285
0.332702
0.291128
-0.0389479
0.181057
-0.0540185
)
;
    }
    velocity-inlet-5
    {
        type            calculated;
        value           nonuniform List<scalar> 8(0.558016 0.576908 0.583512 0.582799 0.584875 0.591975 0.569356 0.596835);
    }
    velocity-inlet-6
    {
        type            calculated;
        value           nonuniform List<scalar> 4(0.563104 0.445725 0.457466 0.536083);
    }
    pressure-outlet-7
    {
        type            calculated;
        value           uniform 0;
    }
    wall-8
    {
        type            calculated;
        value           nonuniform List<scalar> 
34
(
0.000213424
0.0305914
0.0130452
0.035694
0.283401
0.0843407
0.0349111
0.701903
0.0338751
-0.112694
0.207926
0.730125
0.362356
0.230829
0.118012
0.0897089
-5.30806
0.0773088
0.0533529
0.741518
0.61431
-0.47452
0.588795
0.446864
0.787832
0.163606
-0.961138
0.071918
0.774161
0.501551
0.647295
0.810684
0.133895
0.78736
)
;
    }
    frontAndBackPlanes
    {
        type            empty;
    }
}

